/*--------------------------------*- C++ -*----------------------------------*\
| =========                 |                                                 |
| \\      /  F ield         | OpenFOAM: The Open Source CFD Toolbox           |
|  \\    /   O peration     | Version:  v2012                                 |
|   \\  /    A nd           | Website:  www.openfoam.com                      |
|    \\/     M anipulation  |                                                 |
\*---------------------------------------------------------------------------*/
FoamFile
{
    version     2.0;
    format      ascii;
    class       surfaceScalarField;
    location    "742";
    object      phi;
}
// * * * * * * * * * * * * * * * * * * * * * * * * * * * * * * * * * * * * * //

dimensions      [0 3 -1 0 0 0 0];
oriented        oriented;


internalField   nonuniform List<scalar> 
95859
(
-0.511904
0.343308
0.327281
0.266157
0.176013
0.193309
-0.130792
-0.308446
-0.270596
0.158777
-0.176724
0.122522
-0.0260537
-0.0338602
-0.0689308
-0.025546
0.0331658
-0.0725449
-0.012857
0.0354596
0.0323963
-0.0563253
0.0798468
-0.0639464
-0.0488492
0.0602152
-0.0457656
0.048616
-0.0489936
0.045306
0.0166784
0.0490408
-0.0362503
0.00475954
0.00758587
0.00945221
-0.013483
-0.034408
-0.0305555
-0.0212824
0.0262632
0.0176172
0.0297364
-0.0162619
-0.0109788
0.0186727
0.0227405
-0.016649
-0.0170322
-0.00810577
-0.0202522
0.000540398
-0.0144948
0.00298812
0.00745563
0.0105713
0.00656768
0.00197121
-0.0107375
0.0121564
0.00526563
0.00794877
-0.0105934
-0.00621337
0.000303369
0.00128914
-0.00244324
-0.00320316
-0.00460168
0.00417178
1.70414e-06
-6.7687e-06
-1.03687e-05
1.53342e-06
-0.00418869
-0.0097256
0.00997132
-0.000726892
-0.00328667
-0.0160009
-0.0290688
-0.00194473
-0.602704
-0.872284
0.850836
0.320903
-0.0197036
-0.390166
-0.328596
-0.0232544
-0.300166
-0.138522
0.207312
-0.256294
-0.267557
-0.135092
0.110921
-0.273544
-0.257198
-0.0380702
0.250819
-0.153804
-0.192782
-0.00662515
-0.0855039
-0.149925
0.148777
-0.145156
-0.139006
0.102072
0.082772
0.0839291
0.129394
0.126799
0.0123519
0.123805
-0.0744822
0.00526556
-0.0856949
0.132103
-0.00972196
0.0492875
-0.0279365
-0.0279238
0.130965
-0.0958692
-0.0849645
-0.0882943
0.000291862
-0.0869641
0.0722317
0.0803339
-0.0783892
-0.0778455
-0.101901
0.058517
-0.013601
-0.0493906
-0.0734321
-0.104737
-0.0672579
0.0691824
0.0775317
0.0482046
-0.0292327
-0.0667957
-0.064648
0.0353698
0.0767698
0.0333008
-0.0141547
-0.0917939
-0.00852274
0.0539428
0.0678916
-0.0711192
-0.0583365
0.0751426
0.0383309
-0.0688596
0.0383847
0.0398287
-0.0294552
0.0593743
0.00537647
0.0504465
0.00400671
0.0164948
0.0497294
0.053711
-0.0398568
-0.00142202
0.0447822
-0.0417166
0.0342998
-0.0548968
-0.0333619
0.00759405
-0.0403752
-0.0288495
0.0532615
-0.0318514
0.047785
-0.04347
0.0448503
0.044354
-0.0248837
0.0499058
0.0395334
-0.00707594
0.00575304
0.0473253
-0.015451
-0.0194068
0.0249155
-0.0377263
0.0285667
-0.000344604
0.036641
0.00144886
0.0153102
0.0288992
0.00984902
0.00725528
-0.0350807
-0.0225155
-0.0039803
0.00797572
-0.0133987
-0.0237455
-0.0269784
0.019818
0.0170288
0.0166973
-0.0220921
-0.0175352
-0.027976
0.0381919
-0.000591625
-0.0199152
0.0077449
-0.0305363
0.00423397
0.0147885
0.0236238
0.0171274
0.00787408
0.022309
0.0137903
0.0254966
0.0240839
-0.0149432
0.0214565
0.0145858
0.0176551
-0.0216087
0.00187204
-0.0147462
0.0218189
-0.00908319
-0.0244564
0.0228765
0.0205051
-0.0133809
-0.0213867
-0.00398662
0.00719173
-0.000463438
-0.0190855
-0.0075102
-0.0142096
-0.0179501
-0.00508867
0.00922577
0.0162113
0.0172785
-0.0127325
0.0174952
0.0184707
-0.00796004
-0.011339
0.00351034
-0.0064241
0.0061359
-0.00706296
-0.016885
-0.0173214
-0.0132094
-0.0012359
-0.0105508
-0.011371
0.00783552
-0.00631215
-0.00264161
-0.0160953
-0.0132846
-0.0109757
0.00135079
-0.0044817
0.0153393
0.0132854
0.0150108
-0.0192142
-0.00622143
-0.0138394
-0.00825636
-0.0154572
-0.0134955
0.00447197
0.0133322
-0.0108671
-0.00969176
0.0129784
-0.00802108
-0.0125969
0.0141904
-0.0134433
0.00176881
0.0150612
-0.00672387
-0.00606966
-0.0113567
-0.00281416
-0.00678052
-0.00914617
-0.0115123
-0.00862259
0.00315688
-0.0129941
-0.00971751
-0.00596322
0.00414711
-0.012517
-0.0073722
0.00536991
-0.0010906
0.00868816
-0.0103997
0.00838589
0.00345047
0.00584704
0.011609
0.00955945
0.0001752
-0.00734357
-0.0116422
0.010764
0.00858427
0.00543707
0.00290773
0.0113802
-0.0046608
-0.00933068
-0.00298488
0.0101751
-0.00694643
-0.0107082
-0.00488805
-0.00175479
8.16485e-05
0.00805044
-0.0114873
-0.009689
-0.00781608
-0.0055934
0.0104703
-0.00443664
0.00891574
0.0041638
-0.00369885
0.00889822
-0.00510034
-0.0100227
0.00970786
0.00862062
0.00651835
-0.00455014
0.00502621
-0.0070348
-0.00797579
0.00509202
0.00148023
-0.00359259
-0.00204741
-0.00371904
0.00171166
0.00440662
0.00488423
-0.0035409
-0.000323493
-0.00270324
-0.00204247
-0.000209256
0.00040793
0.000168256
0.000986072
0.000114661
0.000161029
0.000102608
-3.1098e-05
-2.34266e-05
8.01956e-05
5.54196e-05
-7.40168e-06
1.43387e-05
1.22839e-05
-1.19021e-05
-8.62963e-06
-4.79371e-05
0.000292681
-0.00220465
0.00265055
0.00399997
-0.00219962
0.00435278
-0.00457995
0.00180036
0.00246012
0.0053851
0.00602974
-0.00610687
0.00871389
0.00653552
-0.00787424
-0.00460716
-0.00827629
0.00944536
-0.000107638
0.00313868
-0.00932874
-0.00954707
-0.00795294
0.010737
0.00938137
-0.0117998
0.00315819
0.00816215
0.0115665
-0.00996439
-0.00376155
0.0100702
0.00175087
-0.0124409
-0.00835112
0.0131584
0.010947
0.0157633
0.0102185
-0.013487
0.0100585
-0.00519106
0.00833688
-0.00111998
-0.0183633
-0.0173867
-0.00792834
-0.0105413
-0.000815686
0.0168893
0.0133634
-0.0144383
-0.0159109
-0.0231569
-0.0038173
-0.0184776
-0.0187111
-0.020587
-0.0191194
-0.00861068
0.0217639
-0.0254621
0.0216867
0.0249936
-0.0229434
0.0253867
-0.0245025
0.0114217
-0.0166121
-0.0344852
0.0059185
-0.0170633
0.032644
0.0204293
0.00076989
0.032816
0.00748626
-0.0527242
0.0412764
-0.0445155
-0.041616
-0.0282989
0.0660622
-0.0471571
-0.0246554
-0.0414
0.0536722
-0.0677934
0.0495872
0.0421726
0.0784188
0.0118886
0.00881098
0.0127595
-0.115068
0.120034
-0.00510132
-0.0418833
0.0958642
-0.0344284
-0.178065
0.360264
-0.276465
-0.0242028
0.665986
0.989923
0.803078
0.694308
0.351751
-0.0555266
-0.463678
0.566344
0.501984
0.0440307
-0.485183
0.498792
-0.384305
0.368307
-0.325464
-0.00462547
0.242862
-0.065114
0.180618
-0.0485341
0.316228
-0.237852
-0.00437098
0.201907
0.172997
0.169229
-0.025532
0.136121
-0.0919356
-0.0911648
-0.159296
-0.16307
0.0810562
-0.165127
0.0306742
0.11889
-0.00873017
0.100909
-0.00463447
-0.0843636
-0.0639772
-0.123814
0.118513
-0.0967781
0.0702493
-0.0133453
-0.0576561
0.119936
0.0800719
0.0512813
0.125189
-0.0850954
0.100353
0.0495098
0.0970562
-7.99834e-05
0.0714727
-0.0828832
-0.0139903
-0.0594419
-0.116221
-0.063895
-0.0973029
-0.0417472
0.0356944
0.0458313
0.0886846
-0.10205
-0.0563177
0.124521
0.0182707
-0.074385
-0.0865051
-0.0578681
0.0458284
-0.0814745
0.0356461
0.0168223
-0.0587118
-0.0418894
-0.00545553
0.0122654
-0.0473907
-0.0831136
-0.0220273
0.107964
0.0506487
-0.0574023
0.097849
0.0701621
-0.0444715
-0.0467733
-0.0887865
-0.0494659
-0.0596579
0.0217826
0.0122019
-0.0685895
0.0114579
0.00476951
0.0438645
-0.0346613
0.0216509
0.041987
-0.0291833
0.0114556
-0.0199705
0.0196275
0.054253
-0.0630004
-0.0519047
-0.0600096
-0.0778449
-0.0696313
0.0544978
0.0656201
-0.0548181
-0.0444554
-0.00588051
-0.0555369
-0.030331
0.0276214
0.0599528
0.0313252
0.00420476
0.0411656
0.0433753
-0.0431516
-0.041551
0.0485561
0.0331223
-0.0271871
0.0524538
0.0227978
-0.0570074
0.0100789
-0.0284068
0.0171501
-0.0172107
-0.036836
-0.0141899
0.0235691
-0.0496284
0.00567835
0.0340057
0.00389434
0.0223852
0.0181345
0.0434898
0.0415557
0.00733097
0.038747
0.0102644
-0.0467753
-0.0485244
0.0315349
-0.0494595
0.0326455
0.0361505
-0.0363013
0.0373061
-0.0357574
0.0292905
-0.0306959
0.0542717
0.0070964
-0.0375681
0.0398651
0.0227177
0.00742452
-0.0358733
0.0369828
-0.0349172
-0.0376927
-0.0275017
-0.0227885
0.0192374
0.0317388
0.0225984
0.00190944
-0.0106391
0.0267009
-0.000813429
-0.0255773
-0.0300925
-0.014856
0.0248108
0.0175224
-0.0212299
-0.0265098
-0.0060526
-0.0087882
0.0213473
0.0120518
-0.00730836
0.0143329
-0.0129903
-0.0101386
-0.00997224
0.024345
0.0293306
-0.00692088
-0.00043284
-0.0132141
-0.0137676
-0.0282667
-0.0216677
0.00714625
0.00407609
-0.0241097
0.0211339
0.0132608
-0.01717
-0.000782248
0.0153879
0.00372926
0.0230059
0.0192168
0.013916
0.0199883
0.00840163
0.0175685
0.0135275
-0.00267788
0.0168075
-0.0179682
-0.0117868
0.00710508
0.0206882
-0.0267427
0.00872249
-0.00306937
-0.00352481
-0.0141748
-0.0012568
-0.0121522
-0.0135806
-0.00799627
-0.0157632
-0.0139503
0.0121194
0.00649468
-0.0133892
-0.0147909
0.0209936
0.0157338
0.0143554
-0.00154831
-0.0138184
-0.0140291
-0.0225119
0.0160828
0.00885706
0.0149822
-0.00286004
0.0113363
-0.00702645
-0.0141056
0.0131016
0.00818861
-0.000960154
0.0161236
0.00543333
-0.00974514
0.00298097
-0.00956525
0.00890116
0.0173895
0.0142621
-0.0121584
-0.00462986
-0.000519469
0.0155785
0.0125218
-0.00866389
-0.0103949
-0.0045035
-0.00222415
0.0104324
-0.012855
-0.00917284
-0.0140099
0.0154813
-0.0129603
-0.00878129
-0.0175397
-0.0160369
-0.0107608
0.008855
0.0105442
0.0102284
-0.000283781
-0.0131402
0.0146302
-0.00439849
-0.00718704
0.000270526
0.0153762
0.00808624
0.00390664
0.00608684
-0.0120823
0.00193286
0.0109059
0.0110711
-0.0069403
-0.00880937
-0.0113248
-0.00741651
-0.00766629
-0.0116369
-0.0117317
-0.00017469
-0.0103916
-0.00910569
0.000382353
-0.00837977
-0.00388918
-0.0088724
0.00847872
-0.00379784
-0.0098819
-0.00355554
0.00295407
-0.0107106
-0.0054811
0.000671721
0.0105122
-0.000180904
0.00065592
-0.00984203
0.0072222
-0.0020644
0.00616684
-0.00422673
-0.00955577
0.00751292
-0.00388237
0.00745898
-0.00194939
-0.00756244
0.00340433
0.00535451
-0.000126924
0.00261807
-0.00566149
0.00349705
0.00203697
-0.0019408
0.00295666
0.000436427
0.00450065
-0.00163837
0.00432648
-0.00212303
-0.00268046
0.00138036
-0.000374408
0.00217931
-0.000667146
-0.000969119
-0.000121453
3.58479e-05
0.000197303
-0.000203992
-0.000110686
-3.08285e-05
-2.37582e-05
-1.2294e-05
-5.59407e-05
-7.53624e-08
-8.20679e-06
-3.2191e-05
1.95505e-05
5.26169e-05
-1.01771e-05
-0.00013953
1.34932e-05
-0.000161455
-0.000458601
0.000967388
0.00273022
-0.00648538
-0.00857302
-0.00873281
-0.00292327
0.00497987
0.00358672
0.00351516
0.00770292
-0.00307896
0.00454147
0.00303401
0.0116381
-0.00237802
-0.00533564
-0.00555635
-0.00619903
-0.00874521
0.000625878
0.00858058
-0.00316438
0.00658659
-0.00936224
0.00656347
-0.00400037
-0.0125992
-0.000919876
0.00981261
-0.00199115
0.0138587
0.00383795
-0.000477332
0.00863606
-0.0116038
-0.0135668
-0.0144937
0.0105708
-0.0100383
-0.00168459
0.00468847
0.00076603
-0.0173072
-0.000355384
0.00514028
-0.0117965
0.000889275
0.00633513
-0.000700582
-0.0131527
-0.0159278
-0.0165598
0.00375415
0.00341431
0.00939556
-0.0146063
0.00286732
-0.0164496
0.0134854
-0.00666928
0.00380414
0.0114246
-0.0175908
0.00333987
0.0178752
0.000806378
-0.0201177
0.0144902
-0.0127458
-0.0116298
-0.0144784
-0.0164161
-0.000949846
-0.0135585
0.0222602
0.0184335
0.000964441
0.00551598
-0.0174842
-0.0134336
0.0224889
-0.014533
-0.00959605
-0.00611539
0.0251577
-0.0231533
0.0173986
0.0259051
-0.0102182
0.0212156
0.00810269
0.0111293
-0.0196102
-0.018435
-0.0324802
0.000860468
-0.016342
-0.00647153
-0.0214497
0.0386076
0.0310007
-0.0315652
-0.02108
0.0350767
-0.0399955
0.0279717
-0.0353738
-0.0361292
-0.00447294
-0.018434
-0.0322097
0.00424227
-0.0178643
-0.0314161
-0.0339284
0.0444924
0.0419178
-0.0353859
-0.0119665
-0.0473524
0.00339198
0.0384893
-0.0464294
0.0497826
-0.0318433
-0.0118518
0.00677833
-0.0203304
0.00736306
0.0133052
0.0324517
0.030115
0.0625667
-0.0610125
0.0168918
-0.0495543
0.0137474
0.0786735
0.0750536
0.0678428
0.0105009
-0.0622656
0.0756455
-0.0728716
-0.0501914
-0.0090617
0.0966003
0.00683219
-0.0924102
-0.0192576
-0.0609775
0.0556113
0.0510291
-0.0902199
0.0621304
0.0521444
-0.105313
-0.105232
-0.071901
0.0783377
-0.121404
-0.0121038
-0.0875184
-0.0545379
-0.112193
-0.102226
0.14455
0.249651
0.538269
0.730903
0.827062
0.201487
-0.375505
-0.111355
-0.467516
-0.012349
0.324221
0.0130367
-0.0441211
-0.132246
-0.148026
0.202471
-0.0799053
0.122566
-0.0952774
0.0937482
-0.00152919
-0.0446726
-0.121555
0.0646604
0.159844
-0.0853732
0.0501248
0.135806
0.0616348
-0.0186253
0.0403105
0.114168
0.0178416
-0.0665265
-0.0308651
-0.0875434
0.00748888
0.0568059
-0.0664022
0.0783243
-0.0178371
0.065431
-0.0613263
0.0594579
-0.0274264
-0.0332283
0.0421571
-0.0445628
0.0278402
0.0238725
-0.0349341
-0.0295948
0.0205401
-0.0388672
0.0346558
0.0344616
-0.00261804
0.0116824
-0.0433595
0.0280566
0.0393101
-0.00338612
-0.0122017
-0.0336149
0.00179545
-0.000427807
-0.0322162
-0.0284151
-0.0183736
-0.0241694
-0.0243213
-0.0253746
-0.0207888
0.0201624
0.0103958
-0.0190547
0.000485345
0.00470473
0.024688
0.00731091
-0.014225
-0.0106453
-0.0151279
0.00235253
0.000270366
-0.00835477
-0.0136897
0.00992325
0.0153398
-0.00357972
0.0105712
-0.0111628
0.00631138
-0.00263749
-0.00419855
0.00189738
0.000974226
0.00323842
0.000913321
0.00227481
-0.00180224
-0.00173651
-0.000910878
-0.00115105
-4.27118e-05
5.9692e-05
3.51565e-05
2.07842e-05
2.90243e-05
1.53744e-05
-3.58702e-05
2.94736e-05
-1.7262e-05
1.22521e-05
4.1439e-07
1.40472e-06
9.06071e-06
1.04654e-05
1.18378e-05
-2.17403e-05
-1.07655e-05
9.10206e-06
4.60159e-06
2.0449e-05
-8.02371e-06
1.98056e-06
1.45094e-05
-6.06888e-06
2.54793e-06
-9.66986e-06
-1.01695e-05
6.91556e-06
1.0401e-05
1.31569e-07
4.60191e-06
1.13419e-05
-7.42614e-06
-2.18849e-05
-1.5934e-07
-1.0681e-05
-1.50029e-05
1.77575e-05
-8.78181e-06
-3.27244e-06
-2.0364e-06
-1.27905e-05
6.6099e-07
7.92717e-06
-8.73924e-06
2.02708e-05
-9.25769e-06
1.75328e-05
-1.91916e-05
-1.66349e-06
1.26822e-05
-7.64252e-06
1.28794e-05
6.80717e-07
1.48551e-05
-7.12193e-06
1.80731e-05
-8.77267e-06
4.83395e-06
1.86183e-05
-1.43519e-05
-1.57326e-05
-1.44461e-05
2.59281e-05
2.33342e-05
-4.03666e-05
-2.84613e-05
-8.50067e-06
-5.89056e-06
-1.20712e-05
2.75466e-06
9.69159e-06
-7.32545e-06
2.26378e-05
1.35096e-05
-2.50504e-05
9.02784e-07
2.2723e-05
-2.36258e-05
-6.02372e-06
-9.21344e-06
-1.37844e-05
-1.72009e-05
-4.82628e-06
2.20272e-05
5.61113e-05
-2.39851e-05
-9.07453e-06
-7.43883e-06
-1.11968e-05
3.24039e-05
3.00971e-05
-2.49777e-05
-4.10048e-05
2.23606e-05
2.20458e-05
-9.8497e-06
-3.90622e-05
1.98706e-05
-2.6047e-05
-1.21294e-05
7.73798e-06
4.39141e-06
-6.49269e-06
3.41724e-06
5.63131e-06
-1.82899e-05
4.79608e-06
1.34938e-05
-7.17139e-06
2.70706e-05
5.33917e-06
1.48084e-05
-1.5295e-05
4.97044e-05
-6.47508e-06
3.00649e-06
1.41858e-05
-1.60884e-05
-1.08198e-05
-2.41535e-05
-2.54871e-06
2.34921e-05
1.54368e-05
-3.59906e-06
-4.84844e-05
3.08682e-05
-4.31493e-05
2.71519e-06
2.33296e-06
-1.03891e-05
-1.12911e-05
1.02482e-05
-2.3407e-05
2.12716e-05
3.17515e-05
-6.88006e-05
8.34241e-06
-2.07426e-05
-1.0776e-05
1.6571e-05
-1.77317e-05
3.01519e-06
1.47165e-05
-2.81318e-06
-7.71479e-06
1.0528e-05
-1.06734e-05
-1.82081e-05
7.73784e-06
-6.98473e-06
-1.22214e-05
1.92062e-05
3.84981e-06
-2.71218e-05
-1.19507e-05
1.17632e-05
-3.06726e-05
-2.93272e-05
2.99978e-05
-1.71099e-05
2.66278e-05
1.40232e-05
3.61466e-05
-4.88757e-06
1.15509e-05
-3.28274e-05
4.14224e-05
-8.595e-06
2.41e-05
-1.92428e-05
-1.34971e-05
-3.33741e-05
-3.15907e-05
1.60247e-05
-1.30022e-05
4.91908e-05
-4.52163e-05
-1.10636e-05
5.56202e-05
-8.91233e-07
6.79087e-05
-5.02959e-05
1.35172e-05
-9.73842e-06
-8.58611e-06
5.10181e-05
2.59246e-06
3.4771e-05
-2.0217e-05
-7.82704e-06
4.90556e-06
1.37548e-05
-1.86603e-05
1.24463e-05
-9.19228e-06
-3.25397e-06
3.06758e-05
-1.24002e-05
-1.82756e-05
-2.86336e-05
-7.83283e-06
1.17153e-05
-2.27389e-06
2.89874e-05
-3.5579e-05
4.24398e-05
3.49161e-06
1.23916e-05
-7.53297e-06
4.2673e-05
-5.92991e-05
7.41825e-06
3.66038e-05
-7.26202e-07
-3.00978e-05
4.4486e-05
1.63551e-05
1.26815e-07
5.10621e-05
-2.61832e-05
-2.4879e-05
-4.80962e-05
-4.23463e-06
-1.47735e-05
2.74498e-05
-1.82186e-05
2.01213e-05
-1.90268e-06
-2.59424e-05
4.95153e-05
-2.35729e-05
-2.3272e-05
-9.76197e-06
3.30339e-05
6.59158e-06
-3.19335e-05
6.92473e-06
1.19563e-05
-1.88811e-05
8.26307e-06
-1.0124e-05
2.25163e-05
5.63739e-05
1.07622e-05
-1.57584e-05
2.09434e-05
1.42701e-06
-8.94781e-07
-8.45635e-06
-3.33976e-06
-4.02845e-06
1.19259e-05
3.1747e-05
-1.54277e-05
-2.72194e-05
-5.38462e-06
-1.77456e-05
-3.36383e-05
2.28088e-05
-1.6626e-05
-5.02594e-06
7.66784e-05
4.168e-05
-4.76253e-05
-2.86382e-06
-2.62032e-05
-6.10796e-05
3.72035e-05
7.60147e-05
2.91775e-05
-3.66982e-05
-1.48265e-05
2.31854e-05
-3.30596e-05
1.51102e-05
2.34366e-05
-1.04285e-06
2.60774e-05
3.58181e-07
3.89482e-05
2.43598e-05
3.97451e-06
-3.35896e-05
4.98084e-05
6.57073e-06
-9.69125e-06
1.35814e-05
-2.39115e-06
-1.11904e-05
-4.18648e-05
2.51756e-05
9.51797e-06
-3.60216e-05
6.77966e-05
-5.64092e-05
-5.42027e-05
-3.10005e-05
-5.38592e-05
5.72832e-05
-2.6901e-06
4.9755e-05
-4.7065e-05
7.73313e-06
-1.07343e-05
-1.08403e-05
-1.97566e-06
1.2816e-05
-5.15211e-05
-3.97233e-05
-9.4245e-06
-1.0778e-05
2.76081e-05
-4.90376e-05
3.7934e-05
-5.85166e-06
-2.65036e-05
3.8015e-05
-1.15114e-05
-2.28767e-05
-1.70694e-05
3.99459e-05
-4.2647e-05
2.5847e-05
-1.24375e-05
-4.01523e-06
7.29988e-06
-3.28481e-06
-8.68558e-07
-7.19436e-06
8.06285e-06
-4.69506e-05
3.65354e-05
-2.34642e-05
3.18557e-05
3.71655e-05
-1.88041e-05
3.9162e-05
-2.03579e-05
-1.97835e-05
-2.73157e-05
-1.08294e-05
-2.59408e-05
2.61063e-05
-2.74476e-07
2.1409e-05
-1.53126e-05
1.1983e-05
-1.66479e-05
-3.20315e-05
-3.51255e-05
-2.53419e-05
-1.22115e-06
2.65629e-05
8.35901e-06
2.44825e-05
-6.83607e-05
-5.3374e-05
-1.44994e-05
-2.07343e-05
1.56298e-06
4.43851e-05
9.78264e-06
2.67136e-05
-3.07603e-05
-2.68845e-06
3.34487e-05
-2.12607e-05
2.74718e-05
-1.77114e-05
-3.35195e-05
4.26278e-05
-4.65074e-05
3.87944e-06
4.99288e-05
-4.32293e-05
-8.05558e-07
-2.80439e-05
2.88493e-05
-1.15609e-05
-3.43199e-05
7.87734e-06
-1.03328e-05
-1.75689e-05
4.26645e-06
1.33025e-05
8.94094e-05
-3.82432e-05
7.25261e-05
-3.82084e-05
-5.10706e-05
9.80363e-06
5.70951e-05
-1.19871e-05
-4.51079e-05
-2.76846e-05
1.96368e-06
6.72092e-06
-8.68467e-06
-1.17961e-05
1.0435e-05
-8.92704e-05
-4.59342e-05
5.11545e-05
-5.22028e-06
-4.58808e-05
-2.71597e-05
1.58536e-06
2.55739e-05
-3.09331e-05
-7.72882e-06
-5.88845e-05
6.9393e-05
-3.45238e-05
-3.48692e-05
-5.48937e-05
-7.50395e-05
-0.000102
2.28587e-05
5.68471e-05
3.35363e-05
-1.94243e-05
2.28031e-06
-0.000118358
1.02298e-05
-4.94194e-05
9.69223e-05
-1.3491e-05
-2.77121e-05
-5.39357e-05
-2.49966e-05
4.89297e-05
1.62007e-05
-1.01043e-05
6.92318e-05
-1.98675e-05
-3.58997e-06
2.14095e-05
3.99636e-05
-4.77071e-06
2.88619e-05
4.10467e-05
-1.96999e-05
-4.85401e-06
-3.19309e-05
3.67849e-05
-3.67702e-05
-1.68203e-05
4.41553e-06
-2.60543e-05
-7.01384e-05
-9.45374e-05
4.7313e-05
-1.62522e-05
-2.31301e-05
-6.52491e-06
3.58776e-05
-2.93527e-05
-4.29483e-05
-1.25289e-05
1.05325e-05
-1.85255e-05
1.80316e-05
4.93919e-07
9.44241e-05
1.1469e-05
-1.41868e-05
3.19982e-05
-3.4911e-05
2.91259e-06
2.55516e-05
-4.86794e-05
-5.96717e-05
3.76342e-05
-3.39102e-05
-8.23748e-05
-9.43362e-05
1.51573e-05
-5.97914e-05
-2.35642e-05
-9.90519e-06
-4.03293e-05
2.21509e-05
-2.93193e-05
9.14683e-05
4.35857e-05
-2.52437e-05
-1.36587e-05
3.89023e-05
-3.58893e-05
-1.08084e-05
-6.35757e-05
2.6667e-05
7.08026e-06
1.48028e-05
-2.46121e-05
-2.68181e-05
1.26764e-05
-2.34454e-05
2.52171e-05
8.84299e-06
-6.75677e-06
-2.08629e-06
-0.000111967
1.62188e-05
-7.12428e-05
5.5024e-05
-1.3307e-05
-8.28138e-07
-2.16834e-05
8.6136e-06
2.35778e-05
-1.94435e-05
2.67007e-05
7.86943e-06
-3.59956e-06
-3.30865e-05
-1.62465e-05
-2.18796e-05
-4.26554e-06
2.31748e-05
-1.89094e-05
4.75029e-05
9.03433e-06
-4.58364e-05
-3.67787e-05
7.25669e-05
-8.00326e-07
-7.17668e-05
2.94214e-05
-0.000158642
0.000106457
5.21851e-05
0.000107991
-3.57702e-05
-0.000136114
3.3256e-05
4.48779e-05
3.26404e-06
-5.7174e-05
6.66645e-05
-5.81056e-05
4.98413e-07
-0.000109681
0.000178481
-2.42909e-05
3.6352e-05
3.46231e-05
-3.52937e-05
6.70611e-07
5.55787e-06
4.85729e-06
5.78567e-06
6.79809e-06
-0.000117384
-2.2161e-05
-7.93361e-05
-1.66893e-05
4.45757e-05
-2.78864e-05
2.6558e-05
6.88046e-06
0.000113232
-5.08229e-06
-9.162e-06
3.58789e-05
8.78767e-05
-0.000127347
-0.000121263
-1.755e-05
-3.70491e-05
5.4599e-05
3.93529e-05
4.25743e-07
-3.97788e-05
-4.92027e-05
-9.40262e-05
0.000104246
-1.022e-05
-0.000124865
-0.000102858
4.49241e-05
1.59169e-05
-6.08411e-05
-2.90319e-05
4.15269e-05
-1.24951e-05
0.000140333
1.91118e-05
0.000100344
4.57963e-05
-7.44701e-05
2.86737e-05
2.82123e-05
-6.87321e-05
1.6011e-05
6.94545e-06
-3.58489e-05
2.89035e-05
5.22153e-06
1.81537e-05
2.33755e-05
-1.512e-07
-5.73655e-05
-8.52895e-07
5.82185e-05
-4.96016e-05
-1.91752e-05
6.87769e-05
-4.68712e-05
2.64357e-05
1.89159e-06
-8.72552e-06
6.83388e-06
-2.54539e-05
0.000176101
1.98216e-05
1.04362e-05
-0.000101497
0.000127642
-0.00012939
4.81207e-05
3.37366e-05
-2.75835e-05
1.00628e-05
-2.40776e-05
1.03304e-05
6.66985e-05
4.29552e-05
1.30395e-05
0.000118315
-3.31973e-05
-0.000105298
9.39111e-05
1.13874e-05
5.76071e-05
4.93642e-05
4.15282e-05
-9.9631e-06
2.48602e-05
-1.48973e-05
-6.92909e-05
-0.0001909
0.000300993
2.66808e-05
5.5414e-05
-7.58834e-05
6.32798e-06
-0.000151388
0.000177979
-0.000100384
-8.81404e-05
-0.00021556
-6.81722e-05
6.87393e-05
5.5651e-05
3.56202e-05
2.18848e-05
8.06039e-06
-9.49701e-06
2.03247e-05
-9.33058e-05
-7.24156e-05
1.13585e-05
6.10571e-05
-7.19184e-05
8.23074e-08
3.51803e-05
-2.16386e-05
-1.35419e-05
6.09763e-05
-3.86617e-05
-8.80011e-05
-5.35514e-05
1.17224e-05
-1.81783e-05
-1.23624e-05
3.05405e-05
9.49835e-06
2.70201e-05
0.000106971
-5.70344e-05
-4.99369e-05
2.18947e-05
-1.96115e-05
8.76638e-06
2.26612e-06
-9.7446e-05
0.000105893
0.000140676
3.46173e-05
-4.34092e-05
-4.0794e-05
-2.71491e-05
4.52346e-05
-1.80855e-05
4.35254e-06
-3.32075e-05
0.000107876
-8.63041e-05
-8.54699e-05
-0.000120832
-2.58125e-05
-3.25847e-05
-1.18353e-06
-2.57422e-05
-5.87033e-05
5.31221e-05
3.62557e-05
1.30713e-05
-1.0769e-05
1.93394e-05
-2.52178e-05
0.000175293
-1.25507e-05
-0.000121213
3.29973e-05
8.82158e-05
7.47917e-05
3.42199e-05
-3.66859e-05
-0.000202679
8.55561e-05
-0.000117122
0.000299746
-0.000182623
-3.17704e-05
2.92059e-08
0.000193326
-6.98381e-06
-3.29544e-05
3.99378e-05
-2.27115e-05
1.82849e-05
1.22765e-05
-1.83244e-05
6.04779e-06
2.20123e-05
-4.91849e-05
2.71724e-05
-3.5757e-05
-3.56097e-07
-3.91836e-05
-3.44504e-05
7.36339e-05
3.03525e-05
-2.00346e-05
-1.03179e-05
3.79295e-05
-9.80926e-06
-4.69422e-05
5.86661e-06
-2.75431e-05
7.19142e-05
7.29881e-05
3.52283e-05
9.76043e-06
-4.49888e-05
-2.46598e-06
5.12486e-05
-5.04746e-05
9.27372e-06
-1.79283e-05
-2.00326e-05
3.79607e-05
-3.94591e-05
5.55692e-05
-1.61102e-05
-8.40738e-05
1.50713e-05
6.90025e-05
5.52554e-05
5.16993e-05
-1.37468e-05
-2.66707e-05
-7.67069e-05
-2.53781e-05
7.99709e-05
-2.35817e-06
-3.61128e-05
5.84614e-05
-3.4707e-05
-2.37545e-05
-1.65802e-05
-3.50248e-05
-2.08773e-06
2.29827e-05
-1.65749e-06
-1.07164e-05
5.88526e-06
3.96122e-05
-1.34836e-05
-2.37186e-05
4.07372e-05
9.72726e-05
-0.000155779
1.19594e-05
-1.09477e-05
-3.61139e-05
4.70616e-05
-8.82448e-05
-9.87578e-06
-1.75205e-05
4.93271e-05
-3.72877e-05
-1.20395e-05
-0.000243667
3.28159e-06
-1.85554e-05
1.52734e-05
1.99782e-05
-9.00471e-05
0.000170736
1.82411e-05
-2.86536e-05
4.21136e-05
-1.47175e-05
-2.73962e-05
9.6702e-06
9.84887e-05
-1.72966e-05
7.97059e-05
-2.18828e-05
-4.5539e-06
-7.18362e-05
7.63901e-05
1.19615e-05
-8.27343e-05
6.82297e-05
5.58317e-05
-5.95938e-05
-6.21486e-05
-1.40964e-05
7.6245e-05
-2.73554e-06
2.79234e-05
-4.04174e-05
-1.24938e-05
-3.72019e-05
4.96956e-05
1.3937e-06
-9.09414e-05
8.95477e-05
2.34268e-05
4.24263e-05
-6.58532e-05
-1.84424e-05
7.25734e-06
2.32244e-05
-3.04819e-05
1.46509e-05
3.30053e-05
-2.44017e-06
0.000116859
-0.00011442
-2.52394e-05
4.74391e-05
-2.21996e-05
-2.69256e-05
-8.26746e-06
3.5193e-05
5.61696e-06
2.32379e-05
-2.88549e-05
0.000239395
-0.000109099
5.60094e-05
5.3089e-05
-3.32607e-05
6.24105e-05
-1.95592e-05
-2.37114e-05
4.46914e-05
-1.42733e-06
0.000186511
8.68804e-06
-2.31713e-06
-6.37093e-06
6.0965e-06
-2.26375e-05
1.65409e-05
-9.61224e-05
-9.96998e-05
5.5415e-05
4.42849e-05
-6.64071e-05
2.60767e-05
4.03301e-05
1.52747e-05
-5.16049e-05
-9.56462e-05
5.47061e-05
4.09399e-05
5.51177e-05
-3.29324e-06
2.68067e-05
-2.73566e-05
3.72651e-05
-3.43228e-05
-2.87856e-05
4.08293e-05
-1.20441e-05
-3.84709e-05
4.16371e-05
-0.000298836
-0.000115497
4.91196e-05
-0.000101745
5.26247e-05
2.84316e-08
-6.51663e-05
5.79342e-05
-2.60703e-05
-3.92037e-05
-0.000180963
-0.00018704
9.28293e-06
8.62757e-05
-6.02483e-05
-0.000111401
5.28512e-05
-5.12975e-05
4.48272e-05
-0.000125591
2.15716e-05
0.000118866
-9.29145e-05
9.98466e-06
-1.2731e-05
0.000150319
-0.000137588
-0.000199623
1.63243e-05
-0.000104879
6.73465e-05
5.45928e-05
-8.85371e-05
-5.27659e-05
-1.69973e-05
6.97632e-05
0.000149039
6.88031e-05
-0.000101058
4.8292e-05
-7.79619e-05
-4.06917e-05
0.000118654
-0.000110058
1.03938e-05
-4.75857e-05
-0.000187778
0.000161211
-0.000113921
-0.000124989
-0.000202827
-0.000120667
-7.67344e-05
3.3425e-05
-7.92725e-06
4.28596e-05
-3.49327e-05
-1.36108e-05
-2.04694e-05
3.408e-05
-5.85501e-05
-4.77144e-05
0.000167298
2.62923e-06
7.46494e-05
-7.72786e-05
-3.30227e-05
-3.38021e-05
3.56043e-05
2.28332e-06
8.79907e-05
3.71941e-05
-0.000100596
-1.52571e-05
7.01419e-05
-3.76208e-06
-5.35905e-05
5.73526e-05
-4.70992e-05
-4.49078e-06
-0.000188797
-0.000150114
-3.007e-05
-0.000154
6.88e-05
-3.95278e-06
8.33802e-05
-7.94274e-05
-4.39742e-05
2.67204e-05
1.31335e-05
-3.98541e-05
-1.68987e-05
4.43713e-05
3.86954e-05
-0.000277303
-1.14295e-05
0.000199096
0.000182908
5.4988e-05
-0.000250792
-0.000174797
0.000181486
3.93047e-05
-0.000187445
5.5131e-05
2.30401e-05
-4.84776e-05
-2.34961e-05
-2.37185e-05
0.000388197
-0.000294944
-9.68573e-05
-0.000169255
-0.000183057
0.000133407
4.965e-05
-9.20752e-05
4.21528e-05
-0.000107486
-5.40917e-06
-5.62294e-06
1.10319e-05
1.654e-05
1.28042e-05
-2.93444e-05
-5.33255e-05
3.18511e-05
-3.64664e-05
4.00757e-05
-3.60926e-06
9.68849e-05
3.68552e-05
-4.04745e-05
3.61904e-06
-2.90467e-06
3.92347e-05
-3.63302e-05
9.43894e-05
7.88432e-05
-0.000126436
-6.86019e-05
0.000195038
0.000130247
-6.60712e-05
0.000218436
0.000138583
-0.000324951
-1.3541e-05
0.000117648
-0.000132425
0.000137501
8.25365e-05
-2.25885e-05
4.75132e-05
-2.49249e-05
2.57285e-05
1.37635e-07
0.000267268
-1.42883e-05
-0.000118566
0.000132854
-0.000288733
0.000151423
1.47985e-05
-8.25948e-05
6.77962e-05
2.42486e-05
4.20773e-05
-6.93049e-05
7.43953e-05
-5.0904e-06
9.75305e-05
5.38801e-05
0.000118562
-0.000266112
-0.000305074
-0.000201815
0.000387135
-0.000553921
6.52088e-05
-7.27828e-06
9.1332e-08
-2.08105e-05
0.000137742
-0.000116931
-0.000175534
4.55901e-05
0.000129944
-0.000193933
-0.000402798
0.000100853
3.05485e-05
-7.83869e-05
-2.31052e-05
0.000101492
1.77869e-05
-0.000283005
0.000111968
-0.000106265
4.53584e-05
-1.1643e-05
0.000106102
-0.000265276
0.000467283
-0.000202007
-0.000314041
7.57846e-05
-3.75327e-05
0.000111661
4.54441e-05
-0.000222644
-3.62396e-05
0.000231818
-0.000230705
0.000460857
-0.000589801
-0.000291404
7.06176e-05
0.000189668
-0.000256209
6.65411e-05
-6.89845e-06
-0.000162781
0.000102258
-0.000116101
0.00012883
-2.32217e-05
-0.000105609
0.000113841
-0.000123948
7.51616e-06
1.52958e-05
0.000162727
0.000103249
-0.000148249
4.49998e-05
9.44587e-05
-1.21683e-05
8.22908e-05
-1.15203e-05
-6.87538e-05
-0.000305358
0.000231481
-3.81608e-06
1.70056e-05
0.000227665
-0.00024467
-0.000293629
0.000233786
0.000151411
1.29127e-05
-0.000164323
2.67752e-05
7.99561e-05
-0.000106731
2.15223e-05
-8.7181e-05
4.54976e-05
0.000170565
-0.000237071
6.65063e-05
-0.000575338
5.62006e-05
4.51711e-05
5.18248e-05
-4.10753e-05
0.000185266
1.19499e-05
9.70706e-05
1.26791e-05
0.000201119
-1.74806e-06
-0.000199371
-0.000220787
0.000317974
-0.000136954
0.000228001
-2.96783e-05
-3.31152e-05
-1.63717e-05
-3.01367e-05
-0.000125083
-1.40458e-05
0.000139128
-4.68065e-05
-5.30305e-06
0.000379992
0.000213221
-2.3675e-05
0.000283142
-0.00020286
-0.000119419
6.41762e-05
0.000240264
0.000128254
-0.000225998
0.000121474
0.000251666
5.07851e-05
-0.000158589
0.000602373
0.000830353
-0.000700872
-0.000109133
4.77187e-05
0.000161329
-3.22547e-05
-0.000129075
-3.54289e-05
-0.000356317
-6.55767e-05
5.45666e-05
-7.92056e-06
2.71065e-05
-1.91863e-05
-3.71693e-05
2.27847e-05
1.43842e-05
-5.19141e-05
-2.63147e-07
-2.17641e-05
4.69673e-05
3.99278e-05
4.46825e-05
8.58992e-05
-3.99431e-07
9.34915e-05
-0.000115875
3.42397e-06
-3.98794e-05
8.4471e-06
-0.000122833
-1.44393e-05
9.12713e-05
-7.68321e-05
0.000102853
-0.000124454
7.23943e-06
-0.00059245
-0.000347202
9.71879e-05
-2.99462e-05
-3.95763e-05
6.95221e-05
-6.68247e-05
2.04838e-05
4.63407e-05
-0.000347085
-0.000160745
-5.19378e-05
0.000421398
7.56698e-05
4.96447e-05
-0.000125315
3.97268e-06
-8.46282e-05
0.00062393
0.000348928
0.000110495
-5.7132e-05
8.59703e-05
-0.000380209
0.000162743
-0.000107499
-5.52432e-05
9.10469e-05
0.000146621
-6.67484e-06
-0.000269975
4.41182e-06
-0.000461148
0.000584956
-0.000428707
-0.000156249
0.000508987
-4.25604e-05
-2.62157e-07
-6.12876e-05
-2.11476e-05
8.24348e-05
-6.89416e-05
-2.44577e-05
1.06778e-05
-8.80558e-06
-7.27709e-05
5.96347e-05
1.3136e-05
-5.159e-05
4.22782e-05
9.31188e-06
-4.18291e-05
8.49066e-05
-4.30775e-05
-0.000654581
0.00010975
-4.46342e-05
-6.51155e-05
3.25888e-05
0.000199671
-4.54993e-05
1.61157e-05
-2.28293e-05
-6.09061e-05
8.37353e-05
0.000193356
-1.08682e-05
-0.000182487
-0.000254084
0.000300316
-0.000147442
1.08117e-05
0.000126916
-2.75746e-05
-3.94705e-05
5.75757e-05
-1.81053e-05
-0.00060779
0.000155033
7.31521e-05
0.000306116
-4.21798e-06
-2.28146e-05
2.70322e-05
-4.35007e-05
-0.000418951
-2.71303e-05
6.99522e-05
-4.28223e-05
1.67901e-05
-7.43373e-05
3.08357e-05
0.000194344
-0.000277127
0.000164384
0.000112742
0.00025199
-0.000137005
-9.14646e-06
-0.000203622
7.93162e-05
0.000660608
0.000626624
-6.75905e-05
2.00379e-05
9.18993e-05
7.46753e-05
1.62393e-05