/*--------------------------------*- C++ -*----------------------------------*\
| =========                 |                                                 |
| \\      /  F ield         | OpenFOAM: The Open Source CFD Toolbox           |
|  \\    /   O peration     | Version:  v2012                                 |
|   \\  /    A nd           | Website:  www.openfoam.com                      |
|    \\/     M anipulation  |                                                 |
\*---------------------------------------------------------------------------*/
FoamFile
{
    version     2.0;
    format      ascii;
    class       volVectorField;
    location    "3";
    object      ddt0(U);
}
// * * * * * * * * * * * * * * * * * * * * * * * * * * * * * * * * * * * * * //

dimensions      [0 1 -2 0 0 0 0];


internalField   nonuniform List<vector> 
11941
(
(1.32691e-05 2.51687e-05 -1.11708e-23)
(1.22696e-05 3.5139e-05 3.09412e-24)
(2.28514e-05 3.26924e-05 1.50859e-23)
(2.98582e-05 0.000104459 -1.11173e-24)
(7.76836e-06 2.2774e-05 -1.4822e-323)
(3.17189e-05 9.38807e-05 -6.88436e-24)
(2.01178e-05 1.01948e-05 2.96944e-23)
(2.61344e-05 0.000114609 -3.79893e-24)
(4.05623e-05 0.000117729 6.27864e-24)
(9.10564e-06 4.04019e-05 -4.81865e-24)
(5.41488e-05 0.000108178 0)
(2.99221e-05 2.66273e-05 -1.28075e-23)
(4.40303e-05 0.000173246 7.89292e-25)
(1.81873e-05 8.73441e-05 -2.34057e-25)
(5.6642e-05 0.000149602 -1.4822e-323)
(3.68791e-06 2.50875e-05 1.45308e-23)
(6.00601e-05 0.000112746 -1.4822e-323)
(2.66839e-05 4.24238e-05 1.4822e-323)
(5.06558e-05 0.000179551 -1.4822e-323)
(2.60967e-05 0.000165064 1.76327e-24)
(2.27735e-05 0.000123896 -7.90719e-24)
(8.32021e-05 0.000212732 1.4822e-323)
(8.54806e-06 4.76958e-05 -8.86521e-24)
(6.11962e-05 0.000113414 -3.20102e-23)
(9.67119e-05 0.000197125 0)
(3.01472e-05 4.52198e-06 1.4822e-323)
(6.94543e-05 0.000251013 1.97626e-323)
(2.88931e-05 0.000203813 -5.43616e-24)
(1.13916e-05 0.000104848 1.71618e-23)
(0.000104471 0.000271023 1.4822e-323)
(1.5037e-06 3.49433e-05 1.78838e-23)
(6.11391e-05 0.000107099 1.12752e-23)
(0.000123908 0.00022724 0)
(3.64702e-05 6.07735e-05 -2.52942e-23)
(7.79005e-05 0.000319317 -1.45168e-25)
(5.54235e-05 0.000284655 9.61377e-24)
(1.03629e-05 0.000207737 1.22399e-23)
(2.73814e-06 0.000132091 -2.45301e-23)
(0.00013347 0.000356536 2.02188e-23)
(-3.40702e-06 4.99157e-05 -2.05507e-23)
(3.97578e-05 9.67627e-05 1.75603e-24)
(9.87018e-05 0.000170234 1.40849e-23)
(0.000175215 0.000303608 1.4822e-323)
(6.58477e-05 1.89983e-05 4.47502e-23)
(0.000111867 0.000425033 -1.15336e-24)
(5.51184e-05 0.000364306 -2.67727e-23)
(2.68257e-06 0.000229245 1.4822e-323)
(6.11871e-06 0.000114699 5.00244e-24)
(0.000186827 0.000426753 5.46998e-24)
(0.00014441 0.000476393 0)
(-8.42607e-07 1.63244e-05 -2.70255e-23)
(3.09038e-06 9.16956e-05 -6.5686e-24)
(5.40179e-05 0.000105887 1.4822e-323)
(0.000125451 0.000164698 2.19626e-24)
(0.000207812 0.000422844 -1.51015e-23)
(0.000227569 0.000325872 9.21601e-24)
(8.43758e-05 -2.54775e-05 -4.21316e-23)
(0.000106638 0.000540218 -3.13191e-24)
(6.76556e-05 0.000509306 1.96973e-23)
(1.508e-05 0.000328128 1.44302e-23)
(-1.54703e-06 0.000203744 1.4822e-323)
(0.000209111 0.000512875 -1.3793e-23)
(0.000172281 0.000540603 2.48672e-23)
(-2.53746e-06 5.62046e-05 4.31427e-23)
(-3.73557e-06 8.78271e-05 -2.36633e-23)
(6.72351e-05 9.51962e-05 1.4822e-323)
(0.000154882 0.000191176 -2.19444e-24)
(0.000277441 0.000457742 2.55097e-23)
(0.00021458 0.000296235 -8.83481e-24)
(0.000306079 0.000420444 -4.00058e-23)
(5.84576e-05 -2.35297e-07 0)
(0.000140041 0.000619749 5.58353e-24)
(5.16441e-05 0.000574323 -2.04489e-23)
(3.6224e-06 0.000452815 0)
(-1.32639e-05 0.000211024 3.27047e-23)
(0.000257944 0.000615726 3.00586e-23)
(0.000203982 0.000632543 -5.29107e-24)
(-8.45523e-06 3.57247e-05 -1.22801e-23)
(-1.6316e-05 0.000117028 2.96855e-23)
(0.000117433 0.000120744 -1.4822e-323)
(0.000147392 0.000167384 -1.4822e-323)
(0.0003338 0.000566343 -5.03198e-23)
(0.000265992 0.000292575 1.4822e-323)
(0.000359177 0.000404548 -4.76111e-24)
(8.54658e-05 4.3344e-05 1.56371e-23)
(0.000126339 0.000704246 -1.84855e-23)
(1.14811e-05 0.000543506 -1.4822e-323)
(7.71674e-05 0.00070052 4.2492e-23)
(-2.84366e-05 0.000386043 -8.196e-23)
(-2.06392e-05 0.000252351 2.00704e-23)
(0.000245014 0.000641762 -1.98485e-23)
(-1.93541e-05 5.0417e-05 0)
(-1.94848e-05 0.000133169 -3.69671e-23)
(0.000114458 0.000118126 3.78481e-23)
(0.000217342 0.000211798 8.27109e-23)
(0.000408008 0.000572497 5.97153e-24)
(0.000339689 0.000349813 -3.98385e-23)
(0.000432185 0.000479076 7.45144e-23)
(0.000113463 -5.24505e-05 2.40686e-23)
(0.000170651 0.000753603 8.72237e-24)
(-1.23038e-05 0.000654281 -2.05337e-23)
(3.9798e-05 0.00072421 -2.52078e-23)
(-7.39419e-05 0.000476621 7.39685e-23)
(-3.23641e-05 0.000239856 -6.44187e-23)
(0.000268698 0.000707456 1.09211e-23)
(-1.26587e-05 2.72968e-05 -1.4822e-323)
(-2.80788e-05 0.000112338 3.08708e-23)
(0.000131414 9.04314e-05 -4.13423e-23)
(0.000247767 0.000188056 -3.55164e-23)
(0.000433803 0.00061924 1.03025e-24)
(0.000387416 0.000295501 -6.18111e-24)
(0.000500263 0.000434155 -1.11624e-22)
(9.21072e-05 2.76841e-05 2.32567e-23)
(0.00015315 0.000833537 -8.44984e-24)
(-5.89175e-05 0.000668099 4.40323e-23)
(3.35817e-05 0.000780126 -1.97626e-323)
(-8.80707e-05 0.000574581 -2.01957e-23)
(-6.95199e-05 0.000382175 1.4822e-323)
(-4.65606e-05 0.000250011 3.63859e-23)
(0.00032662 0.000715786 -2.68096e-23)
(-1.75446e-05 3.83641e-05 1.27222e-23)
(-3.1765e-05 0.000116255 -3.81221e-23)
(8.67193e-05 6.79771e-05 -2.9662e-23)
(0.000214301 0.000111697 8.92724e-24)
(0.000330431 0.000220973 4.90608e-24)
(0.000531431 0.000648754 3.21665e-23)
(0.000381612 0.000698235 3.25975e-23)
(0.000445943 0.000292067 2.74846e-23)
(0.000490515 0.000351989 1.97626e-323)
(0.000588817 0.000494219 1.06179e-22)
(0.000140681 -9.72906e-05 -4.92545e-24)
(0.000234407 0.000898802 -1.4822e-323)
(8.73202e-05 0.000858822 3.77097e-23)
(-8.09326e-05 0.000763823 -8.07618e-23)
(-5.45317e-05 0.000785915 5.39761e-23)
(-0.000149415 0.000634379 5.91093e-23)
(-0.000127552 0.000432049 1.4822e-323)
(-4.7727e-05 0.000191443 -5.25939e-24)
(0.000356532 0.000875004 0)
(-3.34085e-05 0.000114655 9.82804e-23)
(-1.35742e-05 1.46161e-05 -1.16021e-23)
(0.000120352 3.81625e-05 -1.10929e-23)
(0.000240523 0.000109231 3.44343e-23)
(0.000366344 0.000151377 6.27988e-24)
(0.000618636 0.000564843 -3.32269e-23)
(0.000525471 0.00074326 -1.91512e-23)
(0.000439198 0.000788634 0)
(0.00048975 0.000174501 1.1946e-22)
(0.000585262 0.00031108 0)
(0.000676461 0.000394447 5.40549e-23)
(7.56198e-05 -0.000102599 5.63376e-23)
(0.000202271 0.000986815 -3.87585e-24)
(3.43951e-05 0.000912102 -1.30212e-23)
(-0.000154769 0.000735945 8.07255e-24)
(-8.36241e-05 0.000888405 -9.03234e-23)
(-0.000166816 0.000618943 1.4822e-323)
(-0.000139045 0.000492805 1.4822e-323)
(-9.2741e-05 0.00030683 6.88522e-24)
(-6.32441e-05 0.000214738 -5.82995e-23)
(0.000424837 0.000858357 0)
(-2.6214e-05 9.70624e-05 -1.04715e-22)
(-1.85959e-05 5.70166e-05 4.52643e-23)
(0.000204331 6.64916e-05 -2.50644e-23)
(0.000254579 9.48802e-05 -4.44192e-23)
(0.000317493 0.000108219 1.4822e-323)
(0.000461119 0.000129076 6.63873e-24)
(0.000732218 0.000622103 -6.08967e-23)
(0.00060667 0.000817395 -4.27711e-25)
(0.000599241 0.000199304 -1.00752e-22)
(0.000757178 0.000368678 7.61953e-23)
(6.54988e-05 8.85048e-05 -5.53036e-23)
(0.000272894 0.00109136 1.70972e-23)
(6.36798e-05 0.00101032 5.32103e-23)
(-0.000218534 0.000766493 -6.15826e-23)
(-0.000143664 0.00090492 4.48453e-23)
(-0.00025239 0.00062091 -1.4822e-323)
(-0.000191358 0.000487512 -8.18867e-23)
(-0.000117616 0.000326242 -6.81449e-23)
(-5.02213e-05 0.000148506 5.33013e-23)
(0.000497433 0.000980543 3.54946e-23)
(-4.29266e-05 5.86382e-05 4.95455e-23)
(0.000214643 1.80047e-05 1.97626e-323)
(0.000246795 4.84992e-05 6.83194e-23)
(0.000339286 2.38516e-05 1.4822e-323)
(0.000487469 4.83491e-05 -6.68662e-23)
(0.000703435 0.00075656 3.14382e-23)
(0.000838995 0.000551452 1.02022e-22)
(0.000625379 0.00093802 -5.38678e-23)
(0.000689943 0.000135812 -1.56811e-22)
(0.000809126 0.000190831 1.58012e-22)
(0.000833399 0.000456372 -1.89754e-22)
(0.000304646 -9.56305e-05 2.08069e-23)
(9.62914e-05 0.000102917 4.59621e-23)
(0.000207027 0.00120755 -2.13954e-23)
(0.000437301 0.00107451 -9.93609e-24)
(1.25475e-05 0.00109887 -1.0319e-22)
(-0.000303723 0.000697086 -4.36489e-24)
(-0.000225454 0.000854067 1.12889e-22)
(-0.000147008 0.000997794 -7.35581e-23)
(-0.00026262 0.000570394 2.26831e-24)
(-0.000179275 0.000412398 7.31124e-23)
(-9.58424e-05 0.00023894 8.30625e-23)
(-6.45862e-05 0.000168255 -1.71791e-23)
(-5.31221e-05 8.7362e-05 4.40868e-24)
(-2.99335e-05 5.59152e-06 -2.62637e-24)
(0.000224325 3.60644e-05 -9.24721e-23)
(0.000284909 -1.86919e-05 -1.97626e-323)
(0.000396129 -3.60538e-05 1.4822e-323)
(0.000572022 -2.57987e-05 -1.4822e-323)
(0.000802148 0.000810234 -4.42365e-23)
(0.000935353 0.000605946 2.51834e-23)
(0.000736544 0.00105075 -5.7184e-23)
(0.000696353 3.77487e-05 1.5646e-22)
(0.000911482 0.00020112 -1.68289e-22)
(0.000939988 0.000334157 1.18186e-22)
(0.000211708 -0.000279715 -5.04667e-23)
(2.285e-05 -5.22552e-06 -1.97626e-323)
(0.000280066 0.0013401 -6.70002e-24)
(7.88029e-05 0.00121572 5.62636e-23)
(0.000527822 0.00121403 -3.83338e-24)
(-7.60501e-05 0.00110181 0)
(-0.000373721 0.000712127 1.4822e-323)
(-0.000315234 0.000859899 -1.3738e-22)
(-0.000275553 0.00103559 7.92945e-23)
(-0.00033483 0.000527112 -6.97156e-23)
(-0.000218452 0.000387459 1.4822e-323)
(-0.000130208 0.000243269 1.97626e-323)
(-6.73389e-05 0.000125391 5.6909e-23)
(-5.23281e-05 8.6138e-05 -4.05681e-23)
(-2.08659e-05 2.5513e-05 7.33263e-23)
(0.000182107 -4.00028e-05 5.99464e-23)
(0.000258483 -3.83924e-05 5.45151e-23)
(0.000397578 -8.98005e-05 -1.97626e-323)
(0.000543307 -0.000128611 -1.4822e-323)
(0.000906676 0.000715647 -9.59485e-23)
(0.000869836 0.00100341 9.14722e-23)
(0.00104511 0.000527805 -1.45608e-22)
(0.000712247 0.0011727 -2.34112e-23)
(0.000788492 -0.000122476 -1.01119e-22)
(0.000990062 6.53078e-05 1.68843e-22)
(0.00104534 0.000385357 -1.18855e-22)
(0.000145279 -4.62231e-05 1.94037e-23)
(7.02318e-05 -1.27547e-05 -1.4822e-323)
(0.000451 0.00132896 -1.80027e-24)
(0.000197886 0.00146441 1.2792e-23)
(2.16252e-05 0.0013096 3.58606e-23)
(-0.000135466 0.00121527 -1.01378e-22)
(-0.000441583 0.000652632 -2.92256e-23)
(-0.000380177 0.000783682 0)
(-0.00034218 0.000992639 0)
(-0.000305689 0.00116216 -3.45846e-323)
(-0.000275157 0.000424658 8.7661e-23)
(-0.000376171 0.000529773 -1.4822e-323)
(-0.000167401 0.000284745 4.19532e-23)
(-9.30546e-05 0.000163083 -4.29978e-23)
(-6.61889e-05 0.000102619 -3.48436e-23)
(-1.60303e-05 -2.93588e-06 -1.4822e-323)
(0.00020887 -5.74663e-05 -4.58664e-23)
(0.000263393 -9.38199e-05 -6.4233e-23)
(0.000328214 -0.000122688 0)
(0.000441988 -0.000166546 0)
(0.000602936 -0.000225448 -7.00415e-23)
(0.00106347 0.000847211 1.02716e-22)
(0.00100835 0.00097982 -4.17024e-23)
(0.00114845 0.000586796 1.9264e-22)
(0.000836127 0.00134175 2.82574e-23)
(0.000940834 -9.09841e-05 -1.30415e-22)
(0.000738749 -0.000220521 1.8361e-22)
(0.00112995 9.74238e-05 2.96439e-323)
(0.00115908 0.000261989 1.5806e-22)
(0.000228225 -0.000301083 2.0268e-23)
(0.0001596 -7.88566e-05 2.31234e-23)
(0.000543358 0.00152282 2.18803e-24)
(0.000255243 0.00159987 -1.8308e-23)
(7.79377e-05 0.00146114 6.66786e-24)
(-0.000111657 0.00131024 1.01344e-22)
(-0.000543073 0.000681012 5.00735e-23)
(-0.000432616 0.000588014 -1.4822e-323)
(-0.000464448 0.000864892 -1.13552e-22)
(-0.000470236 0.00097667 0)
(-0.000398127 0.00126038 6.46844e-23)
(-0.000280905 0.000386416 -1.4822e-323)
(-0.000389757 0.000434602 -2.06102e-22)
(-0.000171105 0.000256227 -4.11434e-23)
(-0.000105572 0.000157829 -3.75349e-23)
(-4.8126e-05 9.69056e-05 1.4822e-323)
(-3.16808e-05 4.7611e-05 1.4822e-323)
(0.000245521 -0.000136042 4.37314e-23)
(0.000219608 -0.000189219 8.49286e-24)
(0.000329733 -0.000221229 -5.8381e-23)
(0.000404171 -0.000225428 0)
(0.000523762 -0.000376431 -1.74063e-22)
(0.00118864 0.000763723 -4.94066e-323)
(0.00113293 0.00114582 -3.45846e-323)
(0.0012724 0.00046907 -5.43472e-323)
(0.000720057 0.00152205 0)
(0.00101949 0.0013441 0)
(0.00105023 -0.000248126 -9.77652e-23)
(0.0007644 -0.000343985 2.32672e-22)
(0.00124212 -2.40449e-05 1.44863e-22)
(0.00128572 0.000313834 -1.77365e-22)
(5.07262e-05 -0.000196136 -5.08887e-23)
(0.000412725 0.0016367 0)
(0.000153882 0.00182987 5.09377e-23)
(-4.12145e-06 0.00154287 -6.47388e-23)
(-0.000180636 0.00143793 5.43472e-323)
(-0.000642044 0.000596246 0)
(-0.000555343 0.000822406 1.05323e-22)
(-0.000509379 0.000503845 8.03678e-23)
(-0.000532392 0.00106071 1.5437e-22)
(-0.000511538 0.00125629 -3.32066e-22)
(-0.000356399 0.00139202 4.94066e-323)
(-0.00022118 0.000300048 -1.4822e-323)
(-0.000338867 0.000385314 1.30002e-22)
(-0.000474389 0.000416364 1.4822e-323)
(-0.000124611 0.000174482 3.75995e-23)
(-6.05972e-05 0.000101966 -1.4822e-323)
(-6.02126e-05 -1.00608e-05 1.4822e-323)
(0.000240434 -0.00020764 -8.77191e-23)
(0.000283733 -0.000245702 4.49641e-23)
(0.000210676 -0.000200905 7.94473e-23)
(0.000428135 -0.000363387 4.37752e-23)
(0.000594924 -0.000422503 1.00969e-22)
(0.00133487 0.00078736 1.01646e-22)
(0.00137129 0.00116448 1.9929e-22)
(0.00146949 0.000625066 0)
(0.000829684 0.00178502 -4.46623e-24)
(0.00113244 0.00153038 4.34972e-24)
(0.000996236 -0.000423168 -2.74123e-24)
(0.00121476 -0.000193087 1.27162e-22)
(0.00086252 -0.000463927 -1.5587e-22)
(0.00139151 2.85988e-05 1.25376e-22)
(0.00140841 0.000230119 -1.61313e-23)
(0.000127222 5.95665e-06 -4.00366e-23)
(0.000477939 0.00187633 7.41098e-323)
(0.000197744 0.00192903 -5.16894e-23)
(5.11179e-05 0.00181431 0)
(-0.000114733 0.00154867 -1.09409e-23)
(-0.00074938 0.00068789 -1.43341e-22)
(-0.000614661 0.000533255 -6.69415e-23)
(-0.000670133 0.000823067 -2.96439e-323)
(-0.000657381 0.00106229 1.07588e-22)
(-0.000613303 0.00126793 9.12054e-23)
(-0.000436233 0.00155155 5.43472e-323)
(-0.000207166 0.000263964 -4.27617e-23)
(-0.000340161 0.000324425 1.24832e-22)
(-0.000516746 0.000347205 5.28216e-23)
(-0.000110617 0.000151617 1.4822e-323)
(-6.37884e-05 9.19485e-05 1.4822e-323)
(-4.85166e-05 3.97132e-05 1.4822e-323)
(0.000131224 -0.000114535 4.6094e-23)
(0.000278378 -0.000358107 -3.14117e-23)
(0.000189609 -0.000282817 -1.2404e-23)
(0.000359367 -0.000420084 1.59625e-23)
(0.000576071 -0.000601676 1.4822e-323)
(0.0014992 0.000950735 -1.85443e-22)
(0.00143831 0.00130406 -1.68054e-22)
(0.00159424 0.000480465 1.30079e-22)
(0.000644321 0.00191863 4.96273e-24)
(0.00102826 0.00176004 -4.29304e-24)
(0.00133519 0.00152143 -8.89318e-323)
(0.00110333 -0.000636309 1.11741e-22)
(0.001348 -0.000362314 8.575e-24)
(0.000759758 -0.000667275 1.82898e-22)
(0.00156076 1.41539e-05 -2.99474e-22)
(0.0015583 0.000318483 -1.67688e-22)
(0.00020425 -0.000456678 1.6935e-23)
(0.00019102 0.00218791 4.8063e-23)
(-9.40672e-05 0.00186002 -1.43024e-22)
(-0.000198175 0.00168767 8.63534e-23)
(-0.000878694 0.000632988 3.95232e-22)
(-0.000696065 0.00041293 1.4822e-323)
(-0.000734763 0.000960911 -2.96439e-323)
(-0.000712696 0.00116971 -1.16238e-22)
(-0.000673396 0.00148399 -1.52093e-22)
(-0.000603464 0.00155558 -4.94066e-323)
(-0.000321369 0.00166924 -7.2975e-23)
(-0.000250072 0.000261415 -5.0623e-23)
(-0.000140749 0.000172444 -3.88127e-23)
(-0.000385396 0.000283576 1.4822e-323)
(-0.000460756 0.000262927 -1.4822e-323)
(-0.000631099 0.000276827 -6.44407e-23)
(-8.747e-05 0.000101112 -6.98885e-23)
(-8.0272e-05 -2.23421e-05 -4.78283e-23)
(0.000118618 -0.00015669 -1.4822e-323)
(0.000221595 -0.000390045 2.80218e-23)
(7.4968e-05 -0.000243363 5.32455e-23)
(0.000347812 -0.000520222 -8.53199e-23)
(0.000496747 -0.000663625 -9.09553e-23)
(0.00175776 0.000982618 -3.95234e-23)
(0.00166797 0.00137528 3.00206e-22)
(0.00180437 0.000579453 -4.15405e-23)
(0.000708188 0.0021881 1.62714e-23)
(0.00112899 0.00193449 -3.92812e-23)
(0.00142191 0.00169563 -1.08694e-322)
(0.00100568 -0.000804633 -1.12181e-22)
(0.00127449 -0.000591101 -4.94311e-22)
(0.00149784 -0.000353476 0)
(0.000826251 -0.000784592 -1.38991e-22)
(0.00167655 0.000148416 0)
(0.00160954 -0.000144554 1.52451e-22)
(0.000185637 -0.000181166 -1.85445e-23)
(0.000403272 0.00232939 -6.74462e-23)
(3.81291e-05 0.00227169 7.20444e-23)
(-0.000142068 0.00196949 2.41308e-22)
(-0.00099102 0.000778977 -3.61348e-22)
(-0.000921321 0.000532386 -2.61881e-22)
(-0.000820727 0.000398408 1.30663e-22)
(-0.000908167 0.000954069 -1.37396e-24)
(-0.000856253 0.00120439 -3.42982e-22)
(-0.000906603 0.00137857 3.77836e-22)
(-0.000704489 0.00170182 2.50203e-22)
(-0.000417134 0.00192651 -1.93878e-22)
(-0.000224767 0.000214497 -1.97626e-323)
(-0.000140837 0.000138608 1.10165e-22)
(-0.000322567 0.000203692 -5.06823e-23)
(-0.000466327 0.000168478 -7.92469e-24)
(-0.000667702 0.000239438 0)
(-7.78004e-05 9.32537e-05 -1.4822e-323)
(-6.0553e-05 4.41244e-05 -1.4822e-323)
(0.000177629 -0.000439613 -1.3703e-23)
(5.04695e-05 -0.000345821 -1.09099e-22)
(0.000241126 -0.00055716 -1.09691e-22)
(0.000375755 -0.000652281 7.97263e-23)
(0.000504935 -0.000895785 -1.04299e-22)
(0.001914 0.000790685 -1.48915e-22)
(0.00179984 0.0011931 -2.4945e-22)
(0.00169107 0.00154269 -6.88861e-23)
(0.00198498 0.000357138 1.12292e-22)
(0.000884569 0.00230322 -1.82395e-23)
(0.00110676 0.0021866 5.22286e-23)
(0.00142402 0.00185846 0)
(0.00103367 -0.000964602 3.87687e-23)
(0.00141921 -0.000781136 5.37201e-22)
(0.00162469 -0.000562922 3.87863e-22)
(0.000719517 -0.000960116 1.4822e-323)
(0.00188597 0.000222259 -3.83306e-24)
(0.00184739 -0.000256379 -1.20393e-22)
(0.00021935 -0.000619867 -2.82863e-23)
(0.000403794 0.0026379 3.86147e-23)
(-0.000132771 0.00214586 -2.05754e-22)
(5.56579e-05 0.00252432 0)
(-0.00114279 0.000750856 -1.51456e-22)
(-0.00106977 0.00042073 2.2918e-22)
(-0.0008821 0.000182332 -1.97626e-323)
(-0.000975588 0.001098 3.94305e-22)
(-0.00104858 0.00148725 1.49025e-22)
(-0.00086227 0.00176253 -3.13684e-22)
(-0.000542353 0.00194662 2.35504e-22)
(-0.000255744 0.00018296 -1.4822e-323)
(-0.00016709 0.000154807 -1.97626e-323)
(-0.000356138 0.000123814 4.89527e-23)
(-0.0005274 8.33068e-05 -1.04875e-22)
(-0.000772991 0.000115769 0)
(-0.000622902 6.41327e-05 3.37324e-22)
(-0.000110279 7.52527e-05 1.4822e-323)
(-0.000107544 -5.39572e-05 4.47424e-23)
(7.997e-05 -0.000415473 1.02074e-22)
(0.000198084 -0.000518532 7.04332e-23)
(0.00018203 -0.000316756 5.29153e-23)
(0.000224497 -0.000697908 -3.34429e-23)
(0.000284142 -0.000763356 1.69904e-22)
(0.000410108 -0.000954062 1.90268e-22)
(0.00216617 0.000859042 2.3239e-22)
(0.00203474 0.00124961 1.92236e-23)
(0.00192638 0.00173836 0)
(0.00221151 0.000423014 -1.40562e-22)
(0.000814875 0.00253008 1.13309e-23)
(0.00135356 0.00233028 -8.24483e-24)
(0.00157805 0.00197081 6.20331e-23)
(0.000932886 -0.00129962 -3.27924e-23)
(0.00130087 -0.000987384 -1.15126e-22)
(0.00158732 -0.000740186 -2.83049e-22)
(0.00188363 -0.000465906 -2.61326e-22)
(0.000697977 -0.0010965 0)
(0.00201427 -4.72475e-05 -1.88913e-23)
(0.000150084 0.00270164 -6.59259e-23)
(0.000604089 0.00270075 -5.80429e-23)
(-0.00037161 0.00232104 -1.08694e-322)
(-0.000298481 0.00252201 -7.52549e-23)
(-0.00123918 0.000944305 -4.69491e-22)
(-0.00121348 0.000591411 3.67189e-22)
(-0.00102525 0.000176201 -1.3312e-24)
(-0.00118066 0.000479975 -2.51908e-22)
(-0.00114429 0.00105742 1.59744e-22)
(-0.00104722 0.00161694 -2.5779e-22)
(-0.00128758 0.00127411 0)
(-0.000897844 0.00199874 9.21518e-23)
(-0.000594018 0.00205783 -3.53251e-22)
(-0.000214232 0.000114411 -1.4822e-323)
(-0.000171553 9.94088e-05 -1.4822e-323)
(-0.000337839 8.97316e-05 -1.4822e-323)
(-0.000469809 2.11925e-06 -9.34408e-24)
(-0.000734593 7.91698e-05 3.97511e-22)
(-7.47167e-05 7.0155e-05 6.19233e-23)
(-7.57635e-05 3.9984e-05 -3.2141e-23)
(-1.40987e-05 -0.000476934 -4.65343e-23)
(8.06203e-05 -0.000552478 1.97626e-323)
(0.0001775 -0.000826974 -2.46349e-23)
(9.13262e-05 -0.000727849 8.42936e-23)
(0.000270433 -0.000852496 -1.89075e-22)
(0.000332385 -0.00107928 3.85356e-23)
(0.00220748 0.00107242 3.77254e-22)
(0.00232643 0.000726119 -1.93709e-22)
(0.00212288 0.00156099 -3.86274e-23)
(0.00184527 0.00186817 -1.69407e-22)
(0.00239529 0.000301596 -4.80987e-23)
(0.00107117 0.00272101 -5.16924e-25)
(0.00132668 0.00257513 1.06616e-23)
(0.00156604 0.00227502 -6.23107e-23)
(0.00126572 -0.00148604 -9.03701e-23)
(0.000734837 -0.0013889 0)
(0.00146871 -0.00123274 -8.65617e-24)
(0.00172698 -0.000903061 1.21223e-22)
(0.00206634 -0.000662927 4.13094e-22)
(0.000476312 -0.0012536 0)
(0.00226179 -0.000134285 2.01392e-22)
(9.31144e-05 0.00288468 1.52594e-23)
(0.000550119 0.00306455 -6.82869e-23)
(-0.000613 0.00225988 2.54486e-22)
(-0.00036285 0.00275571 2.14877e-22)
(-0.00140906 0.000828487 1.01447e-22)
(-0.00141381 0.000679376 -5.43472e-323)
(-0.00109584 8.56106e-05 3.50866e-22)
(-0.0012899 0.000372068 2.19794e-22)
(-0.00123786 0.0017809 -9.38725e-323)
(-0.00145297 0.00129148 2.97263e-22)
(-0.0010492 0.00194552 -1.96091e-22)
(-0.000231005 9.0178e-05 9.44416e-24)
(-0.000264674 6.83849e-05 -1.06465e-23)
(-0.000366966 8.17744e-06 -1.0814e-23)
(-0.000488493 -0.00012372 0)
(-0.000777554 -2.79944e-05 -2.11267e-22)
(-0.000107059 8.73426e-05 -5.72552e-23)
(-0.000135846 -0.000100465 2.99958e-23)
(5.79855e-05 -0.000521315 3.97019e-23)
(6.39057e-05 -0.000600664 4.19661e-23)
(0.00023578 -0.000388297 2.6291e-23)
(7.78469e-05 -0.00073842 -3.66624e-23)
(0.000158373 -0.000889696 1.00606e-22)
(0.000366624 -0.00125248 1.00916e-22)
(0.000133962 -0.00104225 -6.90058e-23)
(0.00243517 0.00115302 -2.19436e-22)
(0.00256835 0.00078655 1.10617e-22)
(0.00235742 0.00162495 1.13635e-322)
(0.0020955 0.00211068 1.88211e-22)
(0.00244216 4.33938e-05 -2.78195e-22)
(0.00273503 0.000511325 5.41286e-23)
(0.00103867 0.00297223 -1.48402e-23)
(0.00155969 0.0028322 -1.21013e-23)
(0.00176441 0.00233223 1.7304e-22)
(0.00128505 -0.00169083 0)
(0.000707205 -0.00137493 0)
(0.00161478 -0.00119448 -2.7599e-22)
(0.00203086 -0.000829156 -2.47573e-22)
(0.00232777 -0.000476001 -2.5587e-22)
(0.000194343 0.00320832 2.03818e-22)
(-0.00027349 0.00296068 -3.83704e-22)
(0.000490493 0.00321597 5.05072e-23)
(-0.00078043 0.00239205 -2.43864e-22)
(-0.000727636 0.00272024 -1.36643e-22)
(-0.00158828 0.000973301 0)
(-0.00152255 0.000532111 -2.50686e-22)
(-0.00114133 -8.3308e-05 -3.26889e-22)
(-0.00123428 0.000178287 0)
(-0.00145909 0.000398352 -2.594e-22)
(-0.00141172 0.00172574 0)
(-0.00151052 0.00156683 8.89318e-323)
(-0.00159776 0.00112897 -3.1789e-22)
(-0.00113257 0.00217484 2.99941e-22)
(-0.000144248 8.38571e-05 1.4822e-323)
(-0.000230591 -8.14787e-06 1.4822e-323)
(-0.00031886 -2.29679e-05 -1.09339e-23)
(-0.000587438 -0.000177523 -3.37016e-23)
(-0.00039355 -0.000189239 9.41758e-23)
(-0.000894054 -0.000158412 -9.64711e-23)
(-9.1117e-05 2.48236e-05 -1.4822e-323)
(1.15758e-05 -0.00061495 1.4822e-323)
(1.73865e-05 -0.000635911 -1.97626e-323)
(0.000156532 -0.00115434 -2.99712e-23)
(3.32962e-05 -0.000812509 5.877e-23)
(1.24293e-05 -0.000712629 6.9878e-23)
(7.34395e-05 -0.000867418 -4.36217e-23)
(0.000190913 -0.00136582 1.4822e-323)
(6.23539e-05 -0.00103173 -4.88102e-23)
(0.00252973 0.00147196 -3.50619e-23)
(0.00263265 0.000898227 -1.34368e-22)
(0.00249148 0.00195649 3.09003e-23)
(0.00229908 0.0021698 -1.38338e-322)
(0.00274837 -5.58339e-05 4.62001e-22)
(0.00293065 0.000470626 1.28715e-22)
(0.00115154 0.0031331 0)
(0.00147304 0.00302087 -2.47033e-322)
(0.00190284 0.00266024 -1.52859e-22)
(0.00105449 -0.00186689 0)
(0.00155194 -0.00177789 -1.70075e-22)
(0.000563738 -0.00165331 -1.62582e-22)
(0.00182794 -0.00128453 3.84644e-22)
(0.00213013 -0.00114059 2.42507e-22)
(0.00261591 -0.000572424 3.59176e-22)
(-4.51571e-06 0.00339849 -1.27931e-22)
(-0.000474705 0.00321991 1.18852e-22)
(0.00064383 0.00353718 6.63168e-23)
(-0.000993617 0.0023362 1.09628e-22)
(-0.00092081 0.00271149 1.42549e-22)
(-0.00182205 0.000770678 0)
(-0.00179403 0.000593014 2.39865e-22)
(-0.00132291 -0.000155714 3.95253e-323)
(-0.00105066 -0.000158981 1.97626e-323)
(-0.00140571 0.000104253 0)
(-0.0015622 0.000227378 3.14074e-22)
(-0.0015366 0.0019256 1.18576e-322)
(-0.00178382 0.00145154 7.35607e-23)
(-0.00183785 0.00125576 -6.39378e-23)
(-0.00140897 0.00214902 -3.0649e-22)
(-0.000120821 1.70481e-05 -1.4822e-323)
(-0.000249816 -4.22816e-05 -9.55657e-23)
(-0.000319769 -0.000110358 -1.4822e-323)
(-0.000596127 -0.000309692 -1.17033e-22)
(-0.000373228 -0.000279677 -1.80451e-22)
(-0.000777202 -0.000314947 -1.97626e-323)
(-0.000160947 -0.000130913 0)
(4.37394e-05 -0.000663837 1.4822e-323)
(0.000186169 -0.000531928 -1.4822e-323)
(-3.0821e-05 -0.000821911 -6.69965e-23)
(-2.13215e-05 -0.000731068 -7.2985e-23)
(-2.31168e-06 -0.00093811 -4.55636e-23)
(2.35439e-05 -0.00129655 8.66205e-23)
(0.000197929 -0.00164959 1.58561e-22)
(-5.54668e-05 -0.00113854 0)
(0.0027927 0.0014756 1.64761e-22)
(0.00305438 0.00116422 3.80341e-23)
(0.00281295 0.00197441 3.54772e-22)
(0.00241535 0.00252684 -1.82981e-23)
(0.00299987 0.00016322 -6.78669e-23)
(0.00283455 -0.000395226 7.90505e-323)
(0.00317135 0.000711797 3.35989e-22)
(0.00107919 0.00362373 -3.19039e-23)
(0.00177807 0.00323469 -2.12757e-23)
(0.00216758 0.00277983 -9.63964e-23)
(0.000704165 -0.0018087 -1.55652e-22)
(0.00118617 -0.00218675 0)
(0.00180895 -0.00159504 -1.80388e-22)
(0.00163526 -0.00203879 2.43215e-22)
(0.00236583 -0.00116397 2.66821e-22)
(0.00263405 -0.000932678 -5.15328e-23)
(0.000201182 0.00378786 -9.00681e-23)
(-0.000210823 0.00339366 1.41735e-22)
(-0.000807568 0.00326281 2.06591e-22)
(0.000887322 0.00370009 -2.37152e-322)
(0.000287016 0.00378165 -8.56306e-23)
(-0.00117117 0.0026135 3.79087e-22)
(-0.000978557 0.00299281 -4.07724e-22)
(-0.00210695 0.000888511 1.82101e-22)
(-0.00191655 0.000423075 -1.66828e-22)
(-0.0014327 -2.94764e-05 -2.2469e-22)
(-0.00137193 -0.000336982 -1.54703e-22)
(-0.0010714 -0.000407266 1.65354e-22)
(-0.00172381 0.000199427 -6.81658e-22)
(-0.00182237 0.00191019 0)
(-0.00190939 0.00172442 1.65035e-22)
(-0.00202912 0.00116037 -2.61823e-22)
(-0.00155165 0.00235668 3.57324e-22)
(-0.000106665 -9.78568e-07 -5.5415e-23)
(-0.000224851 -8.15219e-05 -1.4822e-323)
(-0.000234189 -0.000142994 -1.4822e-323)
(-0.000536865 -0.00039753 -5.32419e-23)
(-0.000417669 -0.000395135 2.00314e-22)
(-0.000256768 -0.000310328 -1.73255e-22)
(-0.000819778 -0.000452645 0)
(-0.000137274 -2.12079e-05 1.4822e-323)
(-7.68291e-05 -0.000706625 2.93918e-23)
(0.00014123 -0.00124955 3.15168e-23)
(-7.54806e-05 -0.000854343 -2.52911e-23)
(-3.40693e-05 -0.000807867 -6.51257e-23)
(-6.05217e-05 -0.000922047 2.99505e-23)
(-0.00021366 -0.00137944 -9.21937e-23)
(-2.20846e-05 -0.00182091 -1.4822e-323)
(-0.000200773 -0.00105448 -1.4822e-323)
(0.00298203 0.00167697 -3.46869e-22)
(0.00322085 0.00101636 -6.81627e-22)
(0.00304515 0.00246379 -1.85635e-22)
(0.00274983 0.0026374 1.63499e-22)
(0.00331189 7.6629e-05 -1.93532e-22)
(0.00313786 -0.000460922 -1.49528e-22)
(0.00350032 0.000577484 -1.05595e-22)
(0.0014899 0.00354022 5.58595e-23)
(0.00195571 0.00347098 0)
(0.00230058 0.00318572 1.08261e-22)
(0.000556876 -0.00205435 1.85819e-22)
(0.00136511 -0.00223229 -5.92879e-323)
(0.000918869 -0.00232362 -1.48349e-22)
(0.00216466 -0.00171292 -5.43472e-323)
(0.00195387 -0.00218287 -1.54397e-22)
(0.00243684 -0.00151966 0)
(0.00295479 -0.00105628 -6.8997e-22)
(-0.000244798 0.00380564 2.24449e-22)
(-0.000445662 0.00375492 -5.44211e-23)
(-0.000884106 0.00355263 -2.79025e-22)
(0.000931694 0.00396256 7.71684e-24)
(0.00032132 0.00419522 8.33021e-24)
(-0.00141138 0.0025558 -3.70029e-22)
(-0.0013166 0.00316858 4.83438e-22)
(-0.0022989 0.000817402 8.90762e-24)
(-0.0021256 0.000210492 -8.47004e-22)
(-0.00164653 -0.000154859 2.454e-22)
(-0.00129361 -0.000447448 2.56892e-22)
(-0.00161822 -0.000323531 1.81669e-23)
(-0.000990832 -0.00050419 -1.70629e-22)
(-0.00178805 -7.20166e-05 2.92069e-22)
(-0.00198398 0.00214287 0)
(-0.00216187 0.00161523 2.06122e-22)
(-0.00224364 0.00140119 1.66303e-22)
(-0.00180133 0.00235934 0)
(-0.000161813 1.84623e-07 1.18072e-22)
(-0.000211751 -7.21238e-05 -3.02493e-23)
(-0.000223845 -0.000202516 7.71496e-23)
(-0.000571485 -0.000566845 8.41116e-24)
(-0.000328148 -0.000494024 4.6002e-23)
(-0.000223036 -0.000370964 -1.9426e-23)
(-0.000712195 -0.000579642 -1.12305e-22)
(-0.000173715 -0.000243436 1.51982e-23)
(-1.91198e-05 -0.000667382 -2.65739e-23)
(5.63914e-05 -0.000616654 -5.0854e-23)
(-0.000104496 -0.00078461 5.29136e-23)
(-0.000156485 -0.000715462 -1.4822e-323)
(-0.000145692 -0.000936394 0)
(-0.000421239 -0.00120475 0)
(-0.000206142 -0.00168398 -1.1017e-22)
(2.16958e-05 -0.00202301 -3.54203e-22)
(-0.000361258 -0.00103699 0)
(0.00335661 0.00185176 5.88515e-23)
(0.00350873 0.00127584 4.39707e-22)
(0.00338141 0.00217345 4.56099e-22)
(0.00289364 0.00287493 -2.2792e-22)
(0.00355259 0.000265406 5.33707e-22)
(0.00337882 -0.000217443 3.95347e-22)
(0.00323784 -0.000834325 6.02147e-22)
(0.00369894 0.000798554 -3.56416e-22)
(0.00153232 0.00383087 8.35824e-23)
(0.00198207 0.00358318 -6.19497e-23)
(0.00267154 0.00327384 0)
(0.000278811 -0.00213312 3.13079e-22)
(0.00154229 -0.00251748 -6.58472e-23)
(0.000971251 -0.00271343 1.03201e-22)
(0.00218853 -0.00206474 0)
(0.00192976 -0.00254532 1.50211e-22)
(0.00278397 -0.0016478 4.3202e-22)
(0.00303488 -0.00144614 -2.29247e-22)
(-0.000286538 0.00433921 -3.31024e-322)
(-0.000711723 0.00377457 2.639e-22)
(-0.00146428 0.00331467 -2.78632e-22)
(0.00122198 0.00437727 1.09974e-23)
(0.000660642 0.00433058 -2.19418e-23)
(3.62583e-05 0.00438357 0)
(-0.00157141 0.00300717 0)
(-0.00248246 0.0010349 0)
(-0.00233995 0.000604339 0)
(-0.00233373 0.000313496 9.62648e-22)
(-0.00204773 -4.08505e-05 3.31847e-22)
(-0.00131298 -0.000662509 -9.80437e-23)
(-0.00172151 -0.000453435 -2.32044e-22)
(-0.000963003 -0.000759887 -1.95977e-23)
(-0.0022682 0.00209786 1.4822e-322)
(-0.00237682 0.00185606 -4.52451e-22)
(-0.00248277 0.0012487 -1.82837e-22)
(-0.00192952 0.00262048 -3.4284e-22)
(-7.43666e-05 -0.000198775 -5.61742e-23)
(-0.000162738 -6.19514e-05 -1.4822e-323)
(-0.000165036 -0.000205026 7.87183e-23)
(-0.000472498 -0.000649767 1.14767e-22)
(-0.000211798 -0.000496709 1.17457e-22)
(-0.000346707 -0.000629174 2.99621e-23)
(-0.000160542 -0.00035411 1.79837e-23)
(-0.00075313 -0.000758967 1.83972e-23)
(-8.09725e-06 -0.00116021 1.35439e-23)