/*--------------------------------*- C++ -*----------------------------------*\
| =========                 |                                                 |
| \\      /  F ield         | OpenFOAM: The Open Source CFD Toolbox           |
|  \\    /   O peration     | Version:  v2012                                 |
|   \\  /    A nd           | Website:  www.openfoam.com                      |
|    \\/     M anipulation  |                                                 |
\*---------------------------------------------------------------------------*/
FoamFile
{
    version     2.0;
    format      ascii;
    class       surfaceScalarField;
    location    "3";
    object      phi;
}
// * * * * * * * * * * * * * * * * * * * * * * * * * * * * * * * * * * * * * //

dimensions      [0 3 -1 0 0 0 0];
oriented        oriented;


internalField   nonuniform List<scalar> 
18781
(
0.223422
0.700559
0.822117
-0.598696
0.758771
-0.0582121
0.211775
0.610343
0.353254
0.267895
0.490876
0.828931
0.722801
-0.511027
0.878237
0.887287
-0.534033
-0.359783
0.850659
0.469148
0.734759
-0.0119573
0.376261
0.134491
0.743746
0.436696
0.0782163
0.772442
0.686618
-0.21747
0.86925
-0.6965
0.684543
-0.320239
0.110221
0.633525
0.951562
-0.514866
0.764834
0.882664
0.624268
0.387448
0.481802
0.970916
-0.286373
0.631323
1.02097
0.465305
-0.0230808
0.787915
-0.211325
1.09399
0.881276
-0.257008
-0.438769
0.920571
0.532146
-0.729333
0.44296
-0.0980101
0.746824
0.274148
-0.403564
0.868869
0.858195
0.57659
0.398171
0.695818
0.53124
0.4443
0.476271
0.877762
-0.345615
0.978151
-0.535191
-0.786193
0.688183
0.32609
0.420735
0.718449
0.576607
0.0826752
0.422147
0.436048
0.998736
0.72426
0.0833622
0.612456
1.25843
-0.315982
0.792253
0.56178
0.632536
0.152992
-0.261115
0.68185
0.457333
0.821775
-0.245168
0.90445
-0.391969
0.828017
0.629243
0.369493
0.239826
0.484434
0.712606
0.852282
0.866464
0.211439
0.580813
-0.16095
0.72273
0.934193
-0.301657
-0.582424
0.735417
0.552242
0.129608
0.668773
0.725561
0.322026
0.544382
0.283635
0.913875
1.03668
-0.113573
0.826179
0.067732
0.78455
0.642058
0.224407
-0.333917
0.91473
0.773243
0.388813
-0.952635
0.650977
-0.217218
0.798381
-0.255061
0.980623
0.759207
-0.437181
0.925692
0.800302
0.246692
0.789984
0.893911
1.03124
0.883533
0.198904
0.715826
0.512792
0.260451
0.901605
1.07353
-0.422551
0.541989
0.997285
0.696888
0.543442
0.103375
0.822318
-0.0868659
0.887168
0.77887
0.0111143
0.00102249
0.892888
0.364181
0.667061
0.627089
0.256444
0.787309
-0.0714829
-0.472605
0.733056
0.669331
0.232274
0.600924
-0.892369
0.469818
-0.35038
0.533502
0.463783
0.810915
-0.114027
0.862611
-0.319169
0.730464
0.735452
0.88819
0.564405
0.214465
0.544616
0.285893
0.606995
0.650074
0.135302
0.53176
0.841218
0.189093
0.598216
0.597848
0.577549
0.155507
0.809823
0.693664
-0.0927408
0.936302
-0.466484
0.512231
0.652876
0.491746
0.809952
-0.134359
0.864823
-0.192283
0.927734
0.155003
0.733187
0.699707
-0.478979
0.693444
0.0656374
0.0802515
0.526743
0.289329
0.360745
0.821089
0.706859
0.753852
-0.155636
-0.20295
0.800798
0.849172
0.606873
-0.689456
0.596715
0.246846
-0.874851
0.408367
-0.36262
0.718513
-0.461546
0.953292
0.348405
0.672541
0.509872
0.417862
0.664875
0.813439
0.055366
0.644341
0.541019
0.152424
0.887488
0.393708
0.42738
-0.0655795
0.772438
0.428947
0.324905
0.645162
0.0203575
0.828814
-0.155298
0.762171
0.91844
-0.321725
0.775382
-0.528536
0.807946
-0.399579
0.590672
0.446939
0.271574
0.725553
-0.377148
-0.0461468
0.718688
-0.285909
0.703772
-0.126801
0.791676
-0.0105206
0.82396
0.596385
0.149763
0.494578
0.599363
0.244209
0.64328
0.637917
0.577143
0.439197
0.726291
0.53263
-0.103683
0.59648
0.547338
0.0978244
0.938797
0.673516
0.37941
0.382761
0.453657
0.27941
-0.686769
0.28719
-0.0960967
0.704346
0.0212067
0.509986
0.432778
0.57697
0.781156
0.196486
0.627474
0.466234
0.130151
-0.0645869
0.559165
0.401636
0.197727
0.839766
-0.118476
0.756393
0.458667
0.859311
0.402518
0.323773
0.246574
0.286056
0.443655
0.349904
0.246576
0.477234
0.418514
0.520283
0.0852143
0.588302
-0.160714
0.543475
-0.601513
1.05517
0.847024
-0.567615
0.774727
-0.487537
0.608249
-0.663151
0.684358
-0.153165
0.835296
-0.401749
0.978719
0.196141
0.585014
-0.144992
0.772466
0.401647
0.531788
0.144861
0.414304
0.547631
0.359374
0.480392
0.396954
0.359439
0.603528
0.412292
0.447019
0.736065
0.493149
0.43173
-0.145674
0.456572
-0.0129172
0.0126738
0.464561
0.745908
-0.327394
0.605498
0.427588
0.556149
0.245511
0.86393
0.19124
0.207112
0.120712
0.644191
0.0401663
0.688553
0.433548
0.37488
0.603839
0.571022
0.440022
0.293204
0.479262
-0.103581
0.505228
0.428207
-0.0566549
0.470959
0.074867
0.472764
0.756329
0.773595
-0.267162
0.626601
0.336365
0.778258
0.535583
0.200483
0.347482
0.145668
0.223454
0.208276
0.310898
0.451643
0.436708
0.3092
0.536537
0.283125
0.322373
0.710712
0.169912
0.386237
-0.619459
0.86497
-0.696775
0.888015
0.803545
-0.596432
0.764903
-0.683435
0.723601
0.00511847
0.96913
0.543278
0.0605607
0.307362
0.26366
0.747384
-0.211995
0.691257
0.448573
-0.0784565
0.506663
0.200559
0.2704
0.422349
0.394308
0.57768
0.178649
0.183873
0.589722
0.457743
0.168858
0.536924
0.97874
0.369122
0.396437
-0.188161
0.334644
-0.0237462
0.0765602
0.375083
0.63061
-0.193902
0.631573
-0.279002
0.815539
0.295119
0.415593
0.465031
0.462797
0.184086
0.168195
0.609013
0.168471
0.641675
0.0819259
0.793317
0.751539
0.217591
0.806938
0.8121
0.535389
0.87513
0.261697
0.186876
0.263955
0.242708
0.532097
0.0374143
0.384934
0.0107124
0.383595
-0.0103921
0.588072
0.636392
0.57933
-0.295256
0.464113
0.241669
0.51072
0.468021
0.0216148
0.347507
0.418052
0.146483
0.351337
-0.0828859
0.713496
0.621637
0.548687
0.0342166
0.381377
0.0406054
0.424425
0.251103
0.211694
0.825731
-0.641645
-0.683255
0.851451
-0.303478
0.912491
0.810146
-0.703787
0.785713
0.0895298
0.728311
0.575832
0.231106
0.705596
0.106504
1.11122
0.146968
0.728162
0.450831
-0.0910508
0.333759
0.182352
0.349745
0.384922
0.395647
0.292544
0.549421
0.0386511
0.465652
0.17074
0.726298
-0.0901838
0.554297
0.424021
0.707379
0.290287
0.127765
-0.212572
0.359055
0.138765
0.422589
0.290907
-0.196216
0.817853
0.582903
0.421982
0.166734
0.257692
0.417837
0.350459
0.142476
0.168501
0.850755
0.000695173
0.547277
0.716275
0.649171
0.136542
0.816606
0.750921
-0.0226108
0.936701
0.857426
0.425457
0.685764
-0.0279618
0.756124
0.379391
0.0714393
0.276014
0.057745
-0.0453152
0.39506
0.0139455
0.370976
0.165696
0.229951
0.227779
0.0647651
0.0224825
0.526939
0.504303
-0.26185
0.43259
0.74878
0.333837
0.292447
0.684768
0.304233
-0.163349
0.291114
-0.0893425
0.448398
-0.234775
0.657364
-0.372384
0.66329
0.445469
0.348128
0.247031
0.174951
0.504723
0.32523
0.0926063
0.261116
0.727305
-0.584828
0.817672
-0.861715
0.862411
-0.439563
0.98684
0.559498
0.156777
-0.648717
0.785259
0.167888
0.0960481
0.840653
0.840892
0.0165338
-0.315299
0.740756
0.657802
-0.00643525
0.762559
0.334076
0.347453
0.285524
0.117086
0.277974
0.129315
0.241661
0.295011
0.294716
0.640751
-0.113812
0.509332
-0.00502839
0.439097
-0.00650691
0.742345
0.450923
0.377348
-0.0849006
0.830016
0.0339189
0.270314
0.285049
0.248725
0.0423891
0.246754
0.410611
0.131714
0.531576
-0.270324
0.715793
0.523079
0.271269
0.233454
0.0979003
0.22733
0.353723
-0.134411
0.232844
0.422848
0.542665
0.444175
0.289175
0.699442
0.633049
0.15221
0.826804
0.93694
0.525354
0.846549
0.211891
0.528866
0.869693
-0.0410967
0.803656
-0.0249403
0.359017
0.30366
0.0437932
0.285039
0.000485532
-0.107666
0.38564
-0.0103685
0.25203
0.137216
0.157795
0.209203
0.0855126
0.129101
0.511649
0.39552
0.434068
0.370841
0.0785324
0.663813
0.366022
0.282644
0.259945
0.248525
0.0365234
0.290914
-0.227672
0.474425
0.0274324
0.383178
0.847507
0.559009
0.295407
0.369169
0.528861
-0.0677639
0.295094
0.285959
-0.865892
0.731482
-0.488437
0.911285
-0.583051
1.02723
0.988617
-0.594313
0.746523
0.23249
0.334812
0.602129
0.860166
0.896282
-0.302103
0.830969
0.828596
0.378531
0.425124
0.27872
0.251351
0.328832
0.209689
0.350427
0.0352131
0.1129
0.13913
0.250116
0.243307
-0.516077
0.645178
0.590182
-0.120557
0.419014
0.0150546
0.419969
-0.0491283
0.535312
0.128501
-0.023516
0.389538
0.267751
0.0148929
0.118749
0.141196
0.322482
0.254584
0.0363307
0.0673688
0.407056
0.450547
0.621906
0.225601
0.251079
0.30793
0.0473845
0.321785
0.258502
0.27036
0.342478
0.884131
-0.15265
0.395694
0.328234
0.849743
0.177482
0.0897578
0.898859
1.00407
-0.257551
0.81689
-0.201194
0.803322
0.558062
0.695089
0.857704
-0.0267358
0.38763
0.440967
0.913843
0.812754
0.0177983
0.260922
0.320039
-0.0686882
0.237809
0.0910227
-0.0968522
0.306541
0.326911
0.355252
0.25788
0.12214
0.127975
0.146455
0.666881
-0.0217025
0.718683
0.298456
0.435024
0.34041
0.0959287
0.171822
0.269477
0.237125
0.180064
0.142418
0.216395
0.0371693
0.369887
0.0731097
0.377437
0.423693
0.198213
0.476679
0.38104
0.0384449
0.28334
0.296947
0.307529
0.0989204
0.243558
0.851425
-0.584899
0.980593
-0.507755
0.835989
0.939501
-0.764874
0.942357
0.448364
0.450495
0.559339
0.148229
0.655093
0.706291
0.697188
0.289104
0.568601
0.679556
0.73007
0.76968
0.144163
-0.0132376
0.825992
0.255608
0.192233
-0.179228
0.270251
0.127313
-0.0312728
0.358184
0.29599
0.059262
0.0864536
0.171426
0.208594
0.27443
0.389906
0.276975
-0.444618
0.422915
0.653357
0.0653256
-0.263349
0.561806
0.171675
-0.0977895
0.4382
0.180506
-0.00868414
0.18115
0.0883269
0.155427
0.0816973
0.241338
-0.0415221
0.257917
0.0294433
0.340444
0.406881
-0.0782395
0.501933
0.646577
0.0219423
0.454737
0.402982
0.0115715
0.271768
0.0340864
0.26286
0.341615
0.255129
0.266525
0.472838
0.071115
0.374019
0.565482
0.955799
-0.0134423
0.824514
1.06357
-0.0409665
0.69606
0.656221
0.932346
-0.363745
-0.0508086
0.730364
0.716833
-0.0525214
0.822201
0.797521
0.77347
0.179291
0.076317
0.371524
0.172079
0.0981717
-0.124507
0.25182
0.264717
0.260394
-0.220808
0.28007
0.0211676
0.150259
0.0297852
0.178809
0.149923
0.455232
-0.220719
0.497694
0.117188
0.419256
0.00365941
-0.251017
0.422692
0.187182
0.105752
0.0747546
0.172466
-0.102715
0.191042
0.176595
0.187449
0.199816
0.155202
-0.0969952
0.437439
-0.046117
0.452998
0.376498
0.326597
0.175336
0.352314
0.294263
0.356865
0.0276237
0.244145
0.290484
0.24462
0.021397
0.233732
-0.575042
0.841567
0.794294
-0.321456
0.865409
-0.259742
0.825223
0.696057
-0.784972
0.77153
0.345914
0.4786
0.488526
0.645251
0.658439
0.157364
0.774982
0.366619
0.874197
0.817836
0.00436552
0.746527
0.0509942
-0.0848398
0.85831
0.248396
0.150716
-0.153986
0.252157
0.0978343
-0.018862
0.283579
-0.0873176
0.347712
0.229078
0.0509913
0.180044
0.0865056
0.0923032
0.236428
-0.237573
0.692804
0.198536
0.260121
-0.321167
0.438355
-0.365168
0.368827
0.101525
-0.181347
0.368529
-0.106321
0.181076
0.0661443
0.118789
0.0722527
0.145771
0.0308235
0.11542
0.0720291
0.221213
0.173132
-0.0179298
0.151664
0.285774
0.282497
0.170501
0.390807
-0.0143088
0.678911
0.566142
0.640177
0.342556
-0.0115294
0.255674
0.0880743
0.20241
0.332694
0.222203
0.834875
0.00669281
0.513419
0.0804366
0.179991
0.645232
-0.156349
0.852407
0.841359
-0.0698296
0.658591
0.907662
0.0913363
0.553915
0.749775
-0.0689132
0.843895
0.920534
0.789357
-0.0392385
0.857074
0.750892
-0.476086
0.52708
0.819072
-0.0284201
0.276816
-0.106987
0.257703
0.223737
-0.101186
0.199021
0.210216
0.196262
0.166365
-0.148766
0.199757
0.0864952
0.0935486
0.178798
0.135242
0.216718
-0.270958
0.469494
-0.329306
0.589427
0.0731873
0.0978692
-0.254417
0.355941
0.114112
0.100157
0.0809188
0.184934
0.245384
0.0512362
0.0945353
0.146243
0.172186
0.203283
-0.131543
0.283208
0.0755217
0.210253
0.358019
0.513057
0.396127
0.282785
0.136713
0.429429
0.041038
0.599139
0.0633321
0.192342
0.265742
0.201151
0.0194838
0.202719
0.914354
-0.431049
0.944468
-0.579147
0.659583
-0.117943
0.763175
0.68501
0.734464
-0.848229
0.778399
0.699629
0.751768
-0.742272
0.673359
0.164948
0.678947
0.178262
0.954305
1.02927
-0.172194
0.844427
-0.093535
0.813406
-0.286326
-0.252221
1.07129
0.169829
0.108938
0.198616
0.0251212
-0.0245998
0.22362
-0.0100838
0.2203
-0.0859324
0.282194
-0.143128
0.309493
0.205877
-0.00611938
0.144785
0.000955427
0.177843
0.160005
-0.0247625
-0.374275
0.590993
0.140189
0.215152
-0.331737
0.404924
-0.288697
0.386566
0.0242043
-0.214757
0.328869
-0.0932736
0.174192
0.0916601
0.0853869
0.159998
-0.0634829
0.158018
0.0827604
0.0580198
0.114166
0.222767
0.0775623
0.205645
0.287815
0.0369182
0.321101
0.212847
0.30021
0.00822811
0.387899
-0.153226
0.43601
0.349561
0.276203
0.607367
-0.0507044
0.243046
0.0959706
0.169771
0.297122
0.152015
0.483306
0.365321
-0.188645
0.0430685
0.720107
-0.200854
0.885864
-0.0699156
0.804379
0.700666
0.077733
0.742697
0.93003
-0.166952
0.840311
-0.194381
0.873328
0.702084
0.452721
0.576547
0.672233
0.719871
0.304667
0.507867
0.563426
-0.0444211
0.21425
0.203357
-0.0944199
0.154195
-0.131808
0.156929
0.135405
0.0918125
0.195793
0.134368
0.139066
0.0947365
0.197238
0.14574
0.15308
-0.32378
0.463968
-0.418786
0.633939
0.116228
0.0627862
-0.246492
0.270696
0.0823769
0.0501622
0.12403
0.177047
0.140401
0.0195963
0.0990042
0.0590139
0.14078
0.00408655
0.11008
0.0658447
0.156922
-0.083099
0.288744
0.324733
0.00407069
0.31703
0.30428
-0.0207273
0.408626
0.415283
0.262811
0.0867498
0.539014
0.15255
0.454817
0.104197
0.13885
0.273968
0.214023
0.217859
0.813266
0.693343
-0.328023
0.504698
-0.0617014
0.781808
0.499812
0.815948
0.742678
0.746551
-0.668818
0.0388325
0.703865
0.763078
0.64593
0.291708
0.58162
0.993792
0.960588
-0.46376
1.04031
0.937495
-0.265262
0.709658
0.0102131
-0.382556
0.687223
-0.413723
0.977149
0.11983
0.157497
-0.00330153
0.153669
0.00325974
0.161038
-0.0256327
-0.0454559
0.137268
0.140931
0.0548613
0.275299
-0.102701
0.241767
-0.217641
0.312378
0.195845
0.00139319
-0.00588948
0.15163
0.133307
0.0197737
0.0451818
0.251383
-0.201349
0.317577
-0.306848
0.369634
0.416124
-0.145427
-0.183373
0.26575
-0.0806153
0.130778
0.128117
0.0964317
0.0323542
0.108047
0.176519
0.0931147
-0.0526805
0.111694
0.0880997
0.0394689
0.0706108
0.051382
0.237362
0.0313072
0.293426
-0.0182851
0.335315
0.39103
0.561176
-0.128007
0.54329
0.411006
0.49365
-0.0532472
0.192097
0.193385
0.080583
0.224288
-0.0102655
0.164612
0.485243
0.756709
-0.252011
-0.0325395
0.814348
-0.49594
0.995752
0.683459
0.13249
-0.0914902
0.834168
0.250611
0.087891
0.671326
0.764838
-0.125453
0.771383
-0.352259
0.933879
0.580069
0.515437
0.445151
0.473735
0.446024
0.594283
0.444396
-0.655053
0.665266
0.0321698
0.504049
0.4731
-0.100974
0.220804
0.0565228
0.150368
-0.119205
0.122464
0.115582
0.107674
0.0180638
0.250706
0.172598
0.024126
0.129005
-0.144553
0.145947
0.0779893
0.0736404
0.097763
-0.444103
0.489285
-0.260506
0.511889
0.214775
0.0107286
-0.0744684
0.120323
0.0069805
0.123797
0.0585848
0.069532
0.128786
-0.050968
0.159015
0.125551
-0.023061
0.116176
0.0886335
0.127569
0.129196
0.27567
0.26867
0.275141
0.0101865
0.325129
0.401217
0.23735
0.323826
0.242267
0.301024
0.400898
0.0101083
0.731
0.137528
0.0545691
0.183119
0.218111
0.0298957
0.134717
0.72271
0.470699
0.101164
0.713183
0.634282
0.361471
0.591969
0.766771
0.935333
-0.747734
0.998345
-0.61327
0.701161
-0.0949331
0.766259
0.639385
0.419124
0.384037
0.549842
0.964106
0.961462
0.949199
-0.478896
0.952631
-0.162189
0.756472
-0.417889
0.862285
0.247377
-0.401234
0.433404
-0.449714
0.922815
0.0762506
-0.0881775
0.1447
0.0621902
-0.0225033
0.144968
0.0964742
0.0191075
0.123331
-0.0156573
0.114538
0.0444327
0.206273
0.19291
-0.0203123
0.217036
0.263842
-0.134837
0.24052
-0.0945728
-0.031475
0.105115
0.101772
-0.00400884
0.512854
-0.0235691
0.252347
0.110655
0.281907
-0.0671321
0.292636
-0.296461
0.221992
-0.154754
0.275077
0.135766
0.0333443
0.0904527
0.102876
0.0688966
0.0901184
0.155446
0.0847008
-0.0126422
0.101276
0.114926
0.097859
0.0313366
0.0837371
0.191933
0.0358255
0.232844
-0.0181712
0.293312
0.237697
0.0874314
0.316652
0.0845642
0.566093
-0.166244
0.467268
0.234654
0.326761
0.636066
0.189286
-0.0933205
0.27644
0.12479
-0.128054
0.841237
-0.486343
0.847813
-0.352138
0.944106
0.414634
0.66068
0.274653
0.512002
0.638205
0.641326
1.06045
-0.340734
0.890576
0.514391
0.485451
0.476011
0.526571
0.422629
0.383389
0.802533
0.150099
0.640344
0.599648
0.156824
-0.317634
0.565011
0.737804
-0.3044
0.513429
0.409385
0.135779
-0.0595288
0.178051
-0.0333505
-0.0645137
0.126704
-0.0973072
0.0748039
0.0804539
-0.086147
0.105254
0.0371843
0.0861146
0.0172308
-0.126775
0.171207
0.185961
0.266352
-0.0493156
0.109087
0.131515
0.113745
0.0412065
0.101107
0.362796
-0.386365
-0.147347
0.399694
0.421977
-0.311322
-0.330643
0.263511
-0.00382501
0.427096
-0.205104
-0.0555656
0.0377068
0.0980597
0.0138587
0.0765939
0.0695668
0.0333095
0.106603
-0.0216843
0.111803
0.133762
-0.0228321
0.107533
0.0784437
0.0429792
0.0719472
0.0414486
0.0564104
0.100903
-0.133815
0.217552
0.227759
0.214673
0.199064
0.0942484
0.322261
0.286495
-0.060406
0.626499
0.406862
-0.302837
0.537491
0.0239233
-0.0203545
0.656421
-0.00185058
0.191136
0.142625
-0.0462847
0.171075
0.239547
0.601689
0.465974
0.38184
0.586031
0.358075
0.880607
0.900227
0.860684
0.510337
-0.0846634
0.722868
0.719716
0.389315
0.501261
0.903706
1.01202
1.07566
0.936058
-0.272874
0.656262
-0.641449
0.791547
0.50302
0.137324
0.659845
0.42017
0.61379
-0.0487788
0.117577
-0.497587
0.906972
0.118522
0.0933535
-0.0660637
0.140868
-0.0441961
0.12465
0.0732591
0.0319953
-0.0828468
0.120031
0.00326776
0.0904899
0.174934
-0.00372625
0.207222
-0.0212609
0.157906
0.249668
-0.140581
0.234612
-0.103097
0.177705
-0.0639605
-0.113346
0.154552
0.0860914
0.0150151
0.386996
-0.0241994
0.0407306
0.239649
0.0883722
0.307935
-0.0444244
0.30411
0.0990064
0.194102
0.111918
0.109903
0.0235189
0.0830845
0.135322
0.131911
0.0585708
0.0489621
0.00399323
0.0744504
0.0844279
0.0759404
-0.0315572
0.0879676
0.0693462
0.154092
0.0634601
0.0379305
0.189828
0.199285
0.0153876
0.293534
0.302725
0.0195362
0.209938
0.0765571
0.606144
-0.197407
0.604269
0.340084
0.326649
0.571758
0.144852
-0.0322671
0.174892
0.17993
-0.00885484
-0.387822
0.989512
-0.507712
0.889552
-0.496786
0.854861
0.383821
0.631643
0.268584
0.617561
0.243123
0.335046
0.72122
-0.188747
0.690009
0.406119
0.448392
0.56363
0.381329
0.694329
0.544672
0.391386
0.340916
0.0148135
0.516401
0.275147
0.653724
-0.318213
0.978057
0.411523
0.00864683
0.362744
-0.314466
0.432042
0.520904
0.386068
0.00517622
-0.0565129
0.149866
0.0244262
0.0966715
0.0681372
-0.0500574
0.0820528
0.0699737
0.0893591
0.153673
0.173979
0.21505
-0.057144
0.0940313
0.111954
-0.177657
0.113696
-0.0231043
0.0735859
0.307988
-0.332188
0.340954
-0.300223
0.330394
-0.090745
0.418766
-0.231433
0.187009
0.303524
-0.204518
0.266128
-0.0720256
0.0374663
0.0744521
0.0228941
0.0870094
0.120551
0.0253747
0.109947
0.157286
-0.0330888
0.0820509
0.0413616
0.0268402
0.0575877
0.0422748
0.0336656
0.043099
0.0448685
-0.00496406
0.0743102
0.192023
-0.121771
0.185231
0.205216
0.180575
0.112959
0.229474
0.257132
0.532967
0.0731771
0.428552
0.175717
-0.0505023
0.390586
-0.079666
0.406315
0.518483
0.053275
0.106071
0.0387806
0.147663
0.0531211
0.0972161
0.219604
0.769908
0.334392
0.555159
0.590902
0.263959
0.718213
0.851247
0.886144
0.834026
0.853529
0.532473
0.508916
0.181093
0.915035
0.993064
0.944959
-0.0209845
0.715314
0.91229
0.559263
-0.218346
0.574076
0.678863
-0.403716
0.335512
0.711175
0.266883
-0.295271
0.303917
0.419645
-0.0569011
0.1043
0.530113
-0.0980707
-0.555031
0.9411
-0.106932
0.112108
0.0429344
-0.0773336
0.10176
0.0930304
0.00364107
-0.0412505
0.109388
0.00471919
0.0590001
0.0109736
-0.0159712
0.10533
0.181116
-0.0274429
0.142323
0.0316556
0.123972
0.247495
-0.153464
0.190058
-0.0781042
-0.0806308
0.194327
-0.117874
0.09477
-0.0106635
0.0842494
0.235295
0.0726932
0.00876604
0.0033012
0.14455
0.034695
0.339001
-0.151992
0.134483
-0.230003
0.157977
0.0973462
0.0820453
0.0468198
0.073731
-0.0013961
0.111343
0.0788325
0.0784536
0.0713874
0.0836364
0.0605058
0.00967602
0.0479117
0.052775
-0.0121266
0.0569951
0.0621836
0.0200887
0.171934
0.137871
0.0473597
-0.0162059
0.221422
-0.167091
0.28005
-0.109122
0.338596
0.14801
0.586242
0.501729
-0.281622
0.457339
-0.354523
0.304021
0.108964
0.25893
0.0517915
0.117613
0.108645
0.0390174
0.161767
-0.0499724
0.147189
0.0311603
0.738747
0.553253
-0.576391
0.84035
0.141822
0.252884
0.598363
0.551473
0.334672
0.614894
0.219132
0.830358
0.0231712
0.534255
0.715347
0.360003
0.393172
0.599892
0.340043
0.604916
0.69019
-0.0667283
0.782042
0.519435
0.392854
0.201299
0.650901
-0.0768248
0.386095
0.292768
0.247184
0.721606
-0.504425
0.771308
0.234843
0.4016
-0.0976826
0.344699
0.326676
-0.222375
-0.272598
0.174527
0.549803
0.391297
-0.00576617
-0.070337
0.113271
0.11469
-0.0129303
0.0517799
-0.0595382
0.0631792
0.0390508
0.0637193
-0.0600861
0.0710597
0.0682782
0.0452443
0.114881
-0.12422
0.155876
0.195321
-0.0713492
0.0174927
0.0365936
0.117217
-0.139316
0.0586855
0.0701066
-0.0445463
-0.154855
0.227549
0.223823
-0.215057
-0.204635
0.207936
-0.122587
0.267138
0.250107
-0.215412
0.0981151
0.210987
-0.076504
-0.0574352
0.0356877
0.0616586
0.0149592
0.0670861
0.0825075
0.0723349
0.0474594
0.0638835
0.125913
-0.00127396
0.0726613
0.0570045
0.0266319
0.0137238
0.0467819
0.0616355
0.00105006
0.051725
0.0580452
0.00410786
0.0580758
0.15796
0.155728
-0.125083
0.172443
0.0543304
0.14805
0.132
0.29606
0.729306
-0.143064
0.468138
0.0335917
0.415077
0.0422621
0.270763
0.0332576
0.379727
0.303506
-0.0445759
0.355298
0.0676408
-0.110287
0.149305
0.0366835
0.0369014
0.861518
0.0806267
0.658121
0.695074
0.578999
0.261351
0.804356
0.67899
0.949565
0.798132
0.752477
0.716655
1.07666
0.912607
0.939936
-0.162969
0.767885
0.623462
0.619073
0.942658
-0.319823
0.521122
-0.450464
0.37364
0.547576
-0.254808
-0.198782
0.445966
0.217181
0.731954
0.0393539
0.3185
-0.0836577
0.220818
0.0248764
0.0540776
-0.338928
0.116552
0.34009
-0.165563
-0.422144
0.813441
-0.086926
0.0811598
0.0263453
0.0551519
-0.101139
0.0882087
-0.0292291
0.081009
0.0641695
-0.000990266
-0.048946
0.0879968
-0.0374197
0.03364
-0.00571642
0.0739946
-0.0382473
0.0834916
-0.051882
0.166763
0.103994
0.0954134
-0.165972
0.183465
-0.159028
0.195622
-0.0418118
0.130119
-0.0714338
0.122097
-0.0519902
-0.111501
0.0669544
-0.267221
0.112365
0.104961
-0.0433976
-0.284178
0.0691209
0.00635159
-0.0762416
-0.0717903
-0.137462
0.235577
-0.218855
0.142351
-0.163226
0.105791
0.0766178
0.071194
0.0221035
0.060404
0.0944384
-0.0408678
0.104751
0.040144
0.085769
0.0557306
0.0669449
0.0734138
-0.00179257
0.0634281
0.0499324
0.00726701
0.0507782
0.0653428
0.0122338
0.145726
0.154314
0.00141392
0.100556
0.0718865
0.208644
0.214757
-0.0827571
0.221864
0.0741956
0.325074
0.448669
-0.334544
0.376807
-0.284234
0.317491
0.0451828
0.177288
0.071064
0.107785
0.106155
0.04315
0.142838
-0.0902524
0.127154
0.425904
0.435614
1.08402
0.693348
0.954699
0.275998
0.528358
0.954988
0.3632
0.586366
-0.162629
0.960761
-0.114992
0.867469
0.654514
0.466605
0.446002
0.320682
0.619254
0.61995
0.147935
-0.0884605
0.711922
0.555755
0.0633177
0.413686
0.528971
0.0706573
0.452836
-0.0791968
0.425557
0.122019
-0.519592
0.264784
0.254055
-0.0736257
0.642738
0.643494
-0.531228
0.570582
-0.316021
0.232363
-0.0833874
0.304205
-0.297601
0.322477
0.24425
-0.190172
0.266881
-0.150328
0.0240695
0.0786871
0.0301359
0.783305
-0.0303408
-0.0651987
0.091544
0.06424
-0.0090881
0.0714772
0.0167315
0.0349404
0.032063
0.0632497
0.0227981
-0.0364497
0.0700897
0.0357473
0.0470419
-0.0474241
0.151418
-0.0590473
0.154461
0.0296501
0.0202382
-0.134172
0.0923605
0.12429
0.00582974
-0.106159
0.0347251
0.132288
-0.0101907
0.0722993
-0.0392045
-0.112436
0.224801
0.205752
-0.100791
0.112238
-0.155636
0.195637
-0.126516
-0.154822
0.161174
-0.199759
0.123517
0.133962
0.0795311
-0.216993
0.016722
-0.0124708
0.179493
-0.0737019
0.0209922
0.0556256
0.0157938
0.0554001
0.0813961
0.0535706
0.0747625
0.0299888
0.0109943
0.0747747
-0.0153529
0.0710835
0.0429979
0.023947
0.0580609
0.0443201
0.0191079
0.0140107
0.0359217
0.0647889
0.0071092
0.0582336
0.11279
0.14714
-0.0369868
0.108873
0.248014
-0.0393699
0.147183
0.0675743
0.165257
0.221378
-0.366096
0.691169
0.082573
0.458755
-0.0819483
0.274562
0.0429295
0.319745
-0.13198
0.309268
-0.241634
0.312698
0.0175324
0.108884
-0.0657337
0.149995
-0.00715736
0.100447
0.0267072
-0.395402
0.831016
0.426247
0.657778
0.792069
0.891558
0.37259
0.582399
-0.264725
0.851091
0.696036
-0.652211
0.53722
0.472067
0.655599
0.787287
0.859689
-0.073726
0.69298
0.546224
0.70369
0.77524
-0.186503
0.715475
0.345228
-0.27457
-0.351567
0.27237
0.389259
-0.26724
0.449981
-0.185197
0.366102
-0.112047
0.292477
0.11151
0.798486
-0.154992
0.623267
-0.0526852
0.270569
-0.0382061
0.187182
0.00660396
0.371801
-0.0493237
0.0767086
-0.251366
0.101037
0.258436
-0.234366
0.221811
-0.143123
0.685735
0.596802
0.0612032
0.0623891
-0.0504951
0.0672266
-0.0378735
0.0728139
-0.0398086
0.0718716
0.0253763
-0.0540958
0.0768939
0.0812006
-0.0111109
0.0787453
0.0557082
-0.00866634
0.0848634
0.0923707
0.0202884
0.181133
-0.151483
0.161277
-0.141039
0.165525
-0.0731643
0.0836627
-0.077833
0.0985467
-0.0638216
-0.0910217
0.080831
-0.0187224
-0.0935612
0.0543567
-0.202655
0.090219
0.12401
-0.0904164
0.0400014
-0.194317
0.0678012
-0.0385851
-0.0708004
-0.117404
0.171519
-0.0919875
-0.0375001
-0.139079
0.155801
-0.142885
0.130414
0.0875751
0.0714194
0.0625093
0.0330418
0.0483544
0.0866124
0.0857568
-0.0502238
0.0802127
0.0923071
0.0301916
0.0408919
0.0541385
0.00835527
0.0497056
0.0526754
0.0550296
0.0367861
0.0280028
0.00303658
0.055197
-0.0348754
0.147665
0.176982
-0.0298418
0.113009
0.0739979
0.137612
-0.153356
0.22093
0.0119015
0.0893984
0.038958
0.541328
-0.303351
0.221403
-0.27189
0.314819
0.0163936
0.067634
0.0408087
0.0887341
0.0201496
0.0347128
0.0815768
-0.0406021
0.0673092
0.869912
-0.0388952
0.798836
-0.0218753
0.679653
0.790687
0.38773
0.503828
0.970129
0.314928
0.536163
-0.103124
0.79916
-0.112113
0.649333
0.740887
-0.26882
0.244149
0.543138
0.446572
0.413116
0.937129
-0.369042
0.915266
0.334648
0.482326
0.292914
0.498646
0.216829
-0.00633947
0.0972309
0.356177
-0.0838069
-0.107306
0.496565
0.182742
-0.405074
0.219877
0.24413
-0.112598
-0.309727
0.421237
0.454936
0.343549
0.468275
-0.531785
0.4791
-0.23385
0.195644
0.225004
-0.0378227
0.231608
-0.313958
0.264634
0.249116
-0.172408
0.180356
-0.0793182
0.0245859
-0.0125556
0.105993
0.68679
0.574631
0.0221704
-0.032358
-0.00305247
0.0654415
0.0307055
0.0608549
0.00637166
0.0330053
0.0177757
-0.0249573
0.0503335
0.0818782
-0.00498426
0.0445973
0.0483855
0.0303597
0.0397192
-0.0297357
0.114599
0.114037
-0.0216664
0.134325
0.0400941
0.0140419
0.0611612
0.0825325
0.00113023
0.0207137
-0.0686576
0.00483595
0.107785
-0.0269543
0.0638101
-0.0143008
-0.113739
0.203958
0.167029
-0.0430186
-0.151726
0.0613092
-0.111724
0.159014
-0.091213
-0.156964
0.118379
-0.152937
0.0821368
0.0496244
0.0324397
0.0656552
-0.157643
-0.139337
0.101837
0.012916
-0.0265495
-0.0517618
0.0205973
0.0508221
0.00718235
0.055327
0.0689517
0.0363886
0.0186486
0.0671082
0.0611948
0.0190179
0.0898107
0.00249643
-0.00396283
0.0448547
-0.00132091
0.0554595
0.0457428
0.0386889
0.0139865
0.0172283
0.0378013
0.0398227
0.0452311
0.024962
0.030235
0.117824
0.0798546
0.0331541
0.153852
0.208421
-0.0708096
0.152316
0.0686145
-0.131805
0.143707
0.241714
-0.485017
0.523975
0.0563103
-0.215676
0.437078
0.268985
0.0458346
0.285378
-0.200185
0.267819
-0.246636
0.287444
-0.0750353
0.0951849
-0.0524563
0.0871691
-0.0567593
0.138336
0.0492087
0.014853
0.848036
0.701992
0.106355
0.692481
0.786008
0.687563
0.818756
0.277462
0.692666
-0.155757
0.69192
0.643404
-0.555922
0.443809
0.380512
0.98971
0.911762
0.228044
0.709084
0.544384
0.370881
0.816975
0.74785
0.79146
-0.242212
0.235873
-0.210897
0.308128
-0.323932
0.240125
-0.358001
0.250695
0.186838
-0.175259
0.366375
-0.146498
0.332897
-0.0887677
0.2203
-0.110549
0.630395
-0.286846
0.610427
-0.142152
0.509448
-0.0303481
0.237053
-0.0414098
0.199231
-0.0823492
0.0537367
0.00794785
0.0970462
-0.176364
0.15393
-0.129344
-0.231547
0.218991
-0.125554
0.70896
0.0495202
0.0578024
0.0404842
-0.0297503
0.0604558
-0.0473113
0.053683
-0.0234535
0.0564588
-0.0359531
0.0537289
0.0469717
0.00336181
-0.0593608
0.0543766
0.0592301
-0.0146329
-0.0200325
0.0503922
0.0522416
-0.0125225
0.0780496
0.0913468
0.0232524
0.0696804
-0.0997178
0.139812
-0.103377
0.117419
0.100101
-0.0389402
0.053714
-0.0525837
0.0757832
-0.0550694
-0.0481027
0.0529387
-0.0881129
0.0611586
-0.0243028
0.0440614
-0.0583622
-0.172222
0.0584824
0.150678
0.0532804
0.107659
-0.110913
0.0472901
-0.153739
0.0625259
-0.0345586
-0.0716022
0.201282
-0.151658
-0.118407
0.150847
0.118967
-0.0533115
-0.0558059
-0.0976491
0.110565
-0.135704
0.109155
-0.122065
0.070303
0.0580045
0.0173263
0.0380006
0.0345656
0.034386
0.0709542
0.0798434
0.0696046
-0.0498351
0.068853
0.0435338
0.035427
0.00525252
0.0404903
0.0439414
0.0517878
-0.00305959
0.0428823
0.0421715
0.0422884
-0.0151952
0.0454301
-0.0581496
0.175973
-0.0874188
0.120573
0.0957029
0.0766164
0.105164
-0.101953
0.170567
0.193674
-0.0499673
0.0415293
-0.0319466
-0.447405
0.503715
0.0697026
-0.0103262
-0.278103
0.323937
0.021183
0.00934195
0.0121338
0.0384255
0.0509173
0.0572551
-0.00804642
0.072108
0.196454
0.651582
-0.135759
0.837751
0.969944
-0.118275
0.904283
0.686113
0.118472
0.700283
-0.172691
0.865358
0.810392
-0.12421
0.767613
0.568176
-0.124367
-0.216029
0.596541
0.249157
0.740553
0.238863
0.672899
0.772429
0.958241
-0.466866
0.837747
0.350109
0.517012
0.230838
0.621089
0.170371
0.0659156
-0.0880586
0.345078
-0.104953
0.397995
-0.1473
0.38223
-0.195391
0.191115
-0.335648
0.18915
0.25631
-0.115348
0.271681
0.473805
0.15659
0.323581
0.367297
0.360505
-0.390853
-0.211795
0.170385
0.227113
-0.0278827
0.144764
-0.223994
0.277731
-0.187549
0.195497
-0.0905028
0.0249175
-0.0578647
-0.218078
0.0887341
0.000913132
-0.221892
0.0963383
0.709846
0.0657969
-0.0162767
0.0522815
0.00552092
0.0448135
-0.00432923
0.0294798
0.0131445
0.0567048
-0.0030218
0.0235183
0.0205057
-0.00563197
0.0481753
0.0653372
-0.0109606
0.0376088
0.0378697
0.0716789
0.00637074
0.0949313
-0.0538811
0.123562
-0.154534
0.0548164
0.0177471
-0.00327599
-0.0371149
-0.108695