/*--------------------------------*- C++ -*----------------------------------*\
| =========                 |                                                 |
| \\      /  F ield         | OpenFOAM: The Open Source CFD Toolbox           |
|  \\    /   O peration     | Version:  v2012                                 |
|   \\  /    A nd           | Website:  www.openfoam.com                      |
|    \\/     M anipulation  |                                                 |
\*---------------------------------------------------------------------------*/
FoamFile
{
    version     2.0;
    format      ascii;
    class       surfaceVectorField;
    location    "3";
    object      Uf_0;
}
// * * * * * * * * * * * * * * * * * * * * * * * * * * * * * * * * * * * * * //

dimensions      [0 1 -1 0 0 0 0];


internalField   nonuniform List<vector> 
18781
(
(1.00008 0.000211673 -2.11951e-24)
(1.0001 0.000182163 2.84408e-22)
(1.00013 0.000405006 8.30465e-23)
(1.00007 0.000199911 1.65649e-24)
(1.00015 0.000376682 4.16556e-24)
(1.00012 0.000181029 1.42429e-23)
(1.00014 0.000576604 4.62889e-23)
(1.00018 0.000612508 1.62952e-24)
(1.00004 0.000209884 6.29115e-25)
(1.0002 0.000594427 -1.12547e-22)
(1.00024 0.0005713 -1.88959e-24)
(1.00011 0.000122213 -3.05751e-22)
(1.00019 0.000769061 -5.40606e-23)
(1.00011 0.000552993 -1.09674e-22)
(1.00027 0.000763548 1.78186e-24)
(1.00007 0.000402938 5.29256e-24)
(1.00004 0.000221211 -4.24539e-23)
(1.00023 0.00041795 -3.74646e-24)
(1.00031 0.000622226 0)
(1.00017 0.000209214 -4.21165e-24)
(1.00026 0.00095669 1.33056e-24)
(1.00019 0.00095477 -9.24091e-25)
(1.00012 0.000580211 -1.15493e-24)
(1.00031 0.00093013 0)
(1.00034 0.00093373 0)
(1.00003 0.000219875 -8.68274e-24)
(1.00033 0.000619323 -8.72434e-24)
(1.00042 0.000779855 0)
(1.00026 0.000438932 -8.66775e-24)
(1.00016 0.000205911 0)
(1.00034 0.00112385 0)
(1.00013 0.000802453 -2.42029e-23)
(1.00016 0.00100148 -3.87182e-25)
(1.0001 0.000631866 1.7484e-23)
(1.00045 0.00100605 0)
(1.00045 0.00115018 0)
(1.00005 0.000456703 4.05164e-25)
(1.00002 0.000248977 1.52559e-24)
(1.00035 0.000583075 1.13746e-22)
(1.00057 0.000990725 0)
(1.00016 0.000156361 -6.83477e-24)
(1.00044 0.0012664 0)
(1.00036 0.00128787 -2.5841e-25)
(1.00018 0.00120699 -5.61907e-25)
(1.00009 0.00107247 5.67194e-23)
(1.00005 0.000660622 -1.30099e-22)
(1.00053 0.0012844 6.65956e-24)
(0.999988 0.00024032 -1.13902e-22)
(1.00032 0.000526776 1.62366e-23)
(1.00045 0.000707258 9.46554e-23)
(1.00058 0.00088174 4.10082e-24)
(1.00069 0.00105496 0)
(1.00023 0.000409159 -6.13122e-24)
(1.00025 0.000256524 -7.34495e-22)
(1.00027 0.00133989 -8.37779e-25)
(1.00037 0.00147727 1.22317e-23)
(1.00019 0.00140377 1.59613e-22)
(1.00005 0.000913449 3.23355e-23)
(1.00004 0.00110803 2.31581e-25)
(1.00002 0.000693085 4.88887e-23)
(1.00065 0.00138242 -2.16285e-22)
(1.00056 0.00151046 5.54045e-24)
(0.999984 0.000191351 -4.83362e-24)
(0.999993 0.0004037 -2.41138e-24)
(1.00031 0.000482582 4.29842e-25)
(1.00059 0.000780939 4.02931e-24)
(1.00082 0.00125119 -4.7421e-24)
(1.00086 0.00105461 2.55432e-24)
(1.0004 1.3803e-05 4.11014e-22)
(1.00048 0.00157487 2.35288e-24)
(1.00038 0.0016528 1.44321e-23)
(1.00017 0.00161126 -3.94174e-25)
(1.00011 0.00144502 -2.98907e-22)
(1.00002 0.00125181 4.61704e-25)
(1.00002 0.00111093 0)
(0.999996 0.000592246 -3.00791e-25)
(0.999987 0.000874541 3.4539e-25)
(1.00078 0.00137877 -7.19517e-22)
(1.00075 0.001522 -4.7876e-24)
(1.00056 0.00166185 1.00554e-23)
(0.99999 0.000186149 -6.7393e-25)
(0.999978 0.0005394 -8.9107e-23)
(1.0005 0.000586063 5.53338e-25)
(1.00036 0.000440766 0)
(1.00068 0.000714709 -2.40229e-23)
(1.00094 0.00140976 5.55094e-23)
(1.00091 0.00098726 -5.69487e-23)
(1.00103 0.00114419 -7.50374e-24)
(1.00021 -5.58174e-05 -1.46793e-23)
(1.00026 0.00174432 7.07061e-23)
(1.00039 0.00184991 -3.97013e-24)
(1.00012 0.00176652 -1.62187e-22)
(0.999999 0.00147234 5.40453e-25)
(0.999932 0.00104988 3.4741e-24)
(1.0007 0.00166839 4.17595e-22)
(1.00085 0.00172847 -9.67608e-24)
(1.00066 0.00181619 5.31218e-22)
(0.999968 0.000407411 2.23831e-24)
(0.999978 0.000248975 9.99005e-24)
(0.999949 0.000593021 1.69321e-22)
(1.00038 0.000264007 0)
(1.00054 0.000464886 0)
(1.00085 0.000850036 -2.76339e-24)
(1.00078 0.000631393 -5.57266e-25)
(1.00107 0.00136541 -2.33015e-24)
(1.00114 0.00153048 6.56637e-22)
(1.00102 0.000895952 -2.1399e-24)
(1.00123 0.00121048 1.40177e-22)
(1.00034 7.18712e-05 5.1225e-24)
(1.00057 0.00195674 -4.64459e-24)
(1.00039 0.00203525 -1.46605e-22)
(1.00002 0.00176976 -2.30087e-25)
(1.00009 0.0019681 -4.60343e-24)
(0.999934 0.00166324 0)
(0.999857 0.00150736 -8.73583e-24)
(0.999892 0.000902461 6.89712e-24)
(0.999856 0.00111506 -1.27585e-22)
(1.00105 0.00184846 -6.67772e-22)
(1.00088 0.00199816 7.26985e-25)
(1.00074 0.00199665 -5.35495e-23)
(0.999947 0.000238217 -1.51481e-24)
(0.999906 0.000696796 -1.26526e-24)
(1.00067 0.000485866 0)
(1.00051 0.00041597 9.53306e-24)
(1.00083 0.000548313 1.92115e-23)
(1.00132 0.00179315 1.63282e-22)
(1.00102 0.000701488 1.83516e-23)
(1.00118 0.000860225 -8.00925e-24)
(1.00135 0.0010376 -1.02633e-23)
(1.0015 0.00129411 -1.05174e-23)
(1.00043 0.000303327 1.41027e-23)
(1.0005 7.40138e-05 7.92681e-22)
(1.0002 0.00215049 2.29293e-22)
(1.00039 0.00225541 4.47308e-25)
(0.9999 0.00181033 -1.86176e-24)
(1.00001 0.00215749 -2.14134e-22)
(0.999815 0.00127139 4.28333e-23)
(0.999687 0.00149923 -5.92967e-22)
(0.999827 0.00112834 1.16313e-22)
(1.00084 0.00209614 -3.16393e-22)
(0.999929 0.000229467 0)
(0.999911 0.000445302 3.96857e-24)
(0.999844 0.000922431 -1.26983e-23)
(0.999885 0.000646516 1.94913e-22)
(1.00054 0.00034721 2.91477e-22)
(1.00099 0.000504644 -8.34284e-23)
(1.00157 0.00166104 1.97967e-23)
(1.0015 0.00190841 1.64261e-24)
(1.00141 0.000816143 9.60464e-23)
(1.00181 0.00138402 -3.58307e-22)
(1.00037 -0.000152354 -1.14127e-21)
(1.00066 0.00233952 2.38198e-24)
(1.00043 0.00249922 -3.30499e-22)
(0.999874 0.00206319 -2.8893e-24)
(0.999714 0.00188607 2.34117e-22)
(0.999898 0.00222105 -9.63063e-25)
(0.999577 0.00157977 -8.38328e-23)
(0.99961 0.00141445 7.54934e-24)
(0.99978 0.00107506 3.00973e-22)
(1.00096 0.00225795 -5.67545e-24)
(0.999913 0.000192264 2.2785e-24)
(0.999847 0.000615809 -2.22759e-24)
(1.00046 0.00013653 1.87115e-22)
(1.00072 0.000222801 -8.49959e-24)
(1.00095 0.000321697 -5.00743e-23)
(1.00118 0.000435498 -1.13005e-22)
(1.00174 0.00207474 9.23347e-24)
(1.00142 0.00214485 1.75826e-23)
(1.0014 0.000573777 -1.73399e-25)
(1.00162 0.000730983 5.75835e-22)
(1.00196 0.00110129 -2.22562e-23)
(1.00211 0.00148261 3.4319e-22)
(1.0004 0.000105646 -6.35465e-22)
(1.00063 -0.000103076 4.20344e-24)
(1.00048 0.00290745 1.70185e-24)
(1.00012 0.00269773 3.55958e-24)
(0.999552 0.00176193 2.46255e-24)
(0.99952 0.0020437 7.08719e-23)
(0.999877 0.00251362 1.75085e-24)
(0.999679 0.00230464 5.19533e-24)
(0.999437 0.00164681 4.81491e-24)
(0.999669 0.00121486 4.65999e-24)
(0.999542 0.00132357 0)
(0.999725 0.000984463 3.69471e-24)
(1.00123 0.00225103 8.85049e-22)
(1.00116 0.00273871 -7.87685e-24)
(0.999886 0.000377223 1.56429e-23)
(0.999902 0.000189183 1.19177e-22)
(0.999784 0.000764675 -1.23122e-23)
(0.999831 0.000563412 1.86104e-22)
(1.00045 9.76419e-05 -1.08344e-23)
(1.00089 0.000174352 1.1009e-23)
(1.00138 0.00031764 9.12896e-23)
(1.00209 0.00201817 2.5111e-24)
(1.00196 0.0024237 8.58135e-23)
(1.00149 0.00260439 8.83272e-24)
(1.00186 0.000892471 5.96657e-24)
(1.00185 0.000510059 -3.56748e-22)
(1.00216 0.00090454 0)
(1.00227 0.00167656 3.43001e-22)
(1.00247 0.00140944 3.42985e-23)
(1.00027 -0.000595014 5.54061e-22)
(1.0009 0.00306203 0)
(1.00045 0.00325826 8.20595e-25)
(0.999833 0.00284365 -2.11106e-23)
(0.999488 0.00217145 -6.22784e-22)
(0.999341 0.00208925 -7.41941e-24)
(0.999441 0.00246698 -4.48642e-24)
(0.999278 0.00182329 7.26869e-23)
(0.999285 0.00162061 6.48206e-24)
(0.999404 0.0013143 0)
(0.999503 0.00117136 9.90482e-25)
(0.999685 0.000908462 -9.06568e-24)
(1.00131 0.00307898 0)
(0.999821 0.00051906 1.25024e-22)
(0.999915 0.000148963 4.56256e-24)
(1.00045 -0.000240311 -2.13697e-22)
(1.00072 2.27936e-05 -8.93475e-24)
(1.00085 0.0001014 8.01887e-23)
(1.00093 7.25429e-05 -9.02875e-23)
(1.0013 8.0058e-05 8.19525e-25)
(1.0016 0.00015188 1.18263e-22)
(1.00259 0.0020328 -2.138e-23)
(1.00177 0.00276629 -4.24243e-24)
(1.00213 0.00281837 -1.16095e-22)
(1.00152 0.00294091 0)
(1.00181 0.000232675 3.00036e-23)
(1.00215 0.000317243 2.31317e-22)
(1.00245 0.00095172 1.02925e-23)
(1.00236 0.000692966 -1.82849e-23)
(1.00277 0.00112572 -4.79586e-22)
(1.00029 -0.000266055 -1.22347e-21)
(1.00045 0.00369729 -7.91512e-23)
(1.00008 0.00342531 4.11499e-24)
(0.999554 0.00287102 4.84393e-22)
(0.999707 0.00312215 3.68659e-24)
(0.9991 0.00196415 -6.53143e-22)
(0.999206 0.00268735 9.16478e-22)
(0.999248 0.00146753 0)
(0.999048 0.00156597 0)
(0.999251 0.00124519 -1.13815e-23)
(0.999602 0.00098684 9.76403e-24)
(0.999464 0.00102723 -8.89928e-24)
(0.999686 0.000806264 -4.74262e-23)
(1.00154 0.00334256 1.12222e-23)
(0.99984 0.0004204 -4.11603e-22)
(0.999765 0.000593432 -2.06463e-23)
(0.999821 0.000255592 1.50948e-23)
(1.00082 -3.58473e-05 -5.5263e-24)
(1.00108 3.67065e-05 -1.05503e-23)
(1.00094 -0.000100148 6.02004e-23)
(1.00126 -0.000110216 0)
(1.0018 2.00842e-05 -2.84542e-23)
(1.00279 0.00249712 -4.64674e-24)
(1.00306 0.00197951 4.37883e-23)
(1.00254 0.00286037 7.22385e-24)
(1.00234 0.00326592 2.18832e-23)
(1.00249 0.000303655 4.16249e-23)
(1.00309 0.000693351 4.58776e-23)
(1.00314 0.00128809 -6.513e-22)
(1.00082 -6.96642e-05 -1.72248e-24)
(1.00039 0.000274874 -1.56378e-21)
(1.00031 0.00424858 7.6504e-23)
(1.00092 0.00397872 -6.14518e-24)
(0.999589 0.00353445 -2.26789e-22)
(0.998808 0.00183009 1.65962e-23)
(0.99888 0.0021877 6.53658e-24)
(0.998886 0.00253003 1.17859e-22)
(0.998948 0.0029532 -6.24521e-24)
(0.998827 0.0015157 -4.7817e-25)
(0.998962 0.00134188 2.82765e-25)
(0.999094 0.00121105 -1.60259e-23)
(0.999232 0.00109898 -1.46023e-23)
(0.999332 0.00101411 -4.02662e-25)
(0.999459 0.000883621 2.07207e-22)
(0.999671 0.000689607 3.59886e-24)
(1.00207 0.00360719 4.67708e-22)
(1.00146 0.00380895 3.69099e-22)
(0.999776 0.000349093 7.82063e-24)
(0.999831 0.000189679 7.41345e-22)
(1.00056 2.51263e-05 1.25544e-23)
(1.0007 -0.000152289 -2.29222e-23)
(1.00084 -0.000206386 -1.6662e-22)
(1.00096 -0.000299537 1.63833e-23)
(1.00115 -0.000367123 0)
(1.00136 -0.000335704 0)
(1.00169 -0.000277167 -1.37307e-23)
(1.00198 -0.000235025 -1.40845e-23)
(1.00299 0.00299025 -3.10154e-22)
(1.00328 0.00159251 -2.66852e-22)
(1.00358 0.00203349 2.45175e-23)
(1.00254 0.00384622 -2.846e-23)
(1.00296 0.000297235 1.57876e-23)
(1.00268 1.06107e-06 8.55231e-22)
(1.00333 0.000342555 -5.71741e-22)
(1.00356 0.00117479 -8.9733e-24)
(1.00117 -0.000996976 2.38703e-21)
(1.00021 -6.28157e-06 1.30254e-23)
(1.00025 0.00486413 2.36512e-23)
(0.999861 0.00437623 4.31385e-23)
(1.00146 0.00448812 -3.52459e-23)
(0.999519 0.00406104 2.50598e-23)
(0.9992 0.00360192 -5.75779e-24)
(0.998578 0.00157823 -4.85511e-25)
(0.998532 0.00228407 -1.81763e-22)
(0.998937 0.00335297 -7.06076e-24)
(0.99857 0.00308305 -5.88098e-22)
(0.998911 0.00120087 -8.10361e-24)
(0.999223 0.000991186 9.46153e-24)
(0.999558 0.000773267 9.71533e-24)
(0.99948 0.000799087 1.15877e-23)
(0.99965 0.000597249 7.29273e-23)
(0.99974 0.000454721 9.32261e-24)
(0.999764 0.000388878 -3.51141e-24)
(0.999851 6.50522e-05 1.26717e-23)
(1.00074 -0.000324316 -8.98424e-22)
(1.00098 -0.000463422 1.05935e-23)
(1.00153 -0.000540616 0)
(1.00241 -0.0002899 2.99351e-23)
(1.0021 -0.000612772 0)
(1.00355 0.00288718 -3.02882e-23)
(1.00342 0.00358303 1.20953e-23)
(1.0038 0.0024646 -7.55969e-23)
(1.00405 0.0020207 -2.57905e-23)
(1.00318 0.00415055 4.27243e-22)
(1.00256 0.00450408 -1.96536e-23)
(1.00285 -0.000498033 1.03573e-23)
(1.00365 0.000724107 -2.34249e-24)
(1.0037 0.000124708 -6.99256e-24)
(1.00398 0.0010703 -1.26084e-23)
(1.00024 -0.0008853 -1.2888e-23)
(1.0004 -0.000463243 1.57147e-23)
(1.00005 -0.000377517 0)
(1.00071 0.00524031 -1.3179e-24)
(1.00007 0.00548748 4.63255e-25)
(0.999375 0.00450279 5.60984e-24)
(1.00203 0.00481089 -8.24966e-24)
(1.00134 0.00506568 -3.71582e-24)
(0.998811 0.00382442 -1.09372e-23)
(0.998338 0.00141436 -3.43455e-24)
(0.998287 0.00177707 0)
(0.998282 0.00206361 -1.48024e-23)
(0.998205 0.00256737 -1.42862e-23)
(0.998232 0.00291425 8.58172e-24)
(0.99815 0.00330378 7.46917e-24)
(0.998921 0.000930352 3.18595e-22)
(0.998714 0.0010283 -8.63638e-24)
(0.999113 0.000879792 1.13526e-23)
(0.999259 0.000839754 6.26086e-24)
(0.999395 0.000758645 5.6032e-24)
(0.99951 0.000661893 -6.72722e-24)
(0.999614 0.000559872 2.82954e-22)
(0.999793 0.000266104 -4.71513e-23)
(0.999714 0.000393543 1.41782e-22)
(0.999825 0.000127699 1.35536e-23)
(1.00067 -0.000598027 6.50215e-24)
(1.00082 -0.00058521 -5.0697e-25)
(1.00097 -0.000629157 -5.45163e-23)
(1.00139 -0.000685412 0)
(1.0016 -0.00078231 0)
(1.00182 -0.0008598 0)
(1.00218 -0.000969256 -1.49155e-23)
(1.00419 0.00301698 -5.66456e-22)
(1.00375 0.00415271 -9.915e-23)
(1.00428 0.0015805 -5.26809e-23)
(1.00461 0.00211517 7.99309e-22)
(1.00271 0.0052225 -5.49845e-23)
(1.00329 -0.000742365 -4.38086e-23)
(1.0028 -0.000985476 1.47358e-22)
(1.00381 -0.000368365 8.50596e-22)
(1.00431 -2.82514e-05 2.58129e-23)
(1.00451 0.000934841 8.85764e-24)
(1.00032 -0.000538646 8.63121e-24)
(1.0009 -0.000948298 4.69858e-21)
(1.00039 -0.000382038 7.53512e-24)
(1.00131 0.00586395 -2.34853e-23)
(0.999879 0.00615162 1.06365e-22)
(0.999545 0.00559813 1.07262e-24)
(0.999213 0.00513832 4.28015e-23)
(0.998892 0.00458037 1.21275e-23)
(0.998358 0.00382046 -1.04108e-23)
(0.998571 0.0041769 -8.29115e-22)
(0.998004 0.00127405 1.33576e-22)
(0.99832 0.00114896 -3.41783e-24)
(0.997998 0.00192283 -1.37384e-23)
(0.997813 0.00273422 0)
(0.997825 0.00362191 6.98834e-24)
(0.999019 0.000750313 1.16716e-23)
(0.998496 0.00103365 0)
(0.998588 0.000739671 -2.85919e-23)
(0.999329 0.000707012 -8.33672e-24)
(0.999571 0.000558872 -1.23199e-23)
(0.999621 0.000452859 -1.13709e-23)
(0.999733 0.000360777 -5.75111e-24)
(0.99989 5.65256e-05 0)
(1.00077 -0.000716604 -4.27779e-22)
(1.00117 -0.000710347 -1.19542e-23)
(1.00095 -0.000887314 -1.1991e-23)
(1.00128 -0.000947757 -1.25068e-23)
(1.00164 -0.00100705 0)
(1.00247 -0.00110072 1.16402e-22)
(1.00216 -0.00137515 -4.46348e-23)
(1.00429 0.0038169 -1.67778e-22)
(1.00487 0.00332083 2.0863e-23)
(1.00432 0.00442774 -9.08939e-24)
(1.00512 0.00265999 3.88795e-23)
(1.00524 0.00189866 3.69232e-23)
(1.00256 0.00607512 6.84913e-24)
(1.00337 0.00562013 7.33869e-24)
(1.00378 -0.00117604 -4.11298e-23)
(1.00279 -0.00134475 7.84828e-23)
(1.00466 0.000385184 3.25569e-23)
(1.00476 -0.000277716 2.52033e-23)
(1.0051 0.000849003 5.03017e-23)
(1.00002 -0.0012221 -8.27413e-21)
(1.00065 -0.000671113 1.76313e-23)
(1.00032 -0.000847922 -3.84479e-22)
(1.00185 0.00632231 2.25651e-24)
(1.00101 0.00656969 1.94167e-24)
(1.0003 0.00659996 -3.56196e-26)
(0.999594 0.00687345 2.83277e-24)
(0.998849 0.00564181 5.75594e-23)
(0.998331 0.0047131 8.46974e-24)
(0.997695 0.00103199 6.38203e-24)
(0.997645 0.00149596 1.8215e-23)
(0.998221 0.000839693 1.08651e-23)
(0.997678 0.00221595 -1.31646e-23)
(0.997672 0.00186939 8.72904e-23)
(0.997381 0.00256541 2.00729e-23)
(0.99726 0.00353383 -4.76805e-22)
(0.99743 0.00413125 5.82232e-24)
(0.999124 0.000618987 0)
(0.998961 0.000582176 1.54613e-23)
(0.998768 0.00050539 -5.22676e-22)
(0.998538 0.000443123 -2.76299e-23)
(0.999276 0.000616553 -6.14294e-24)
(0.999402 0.000589312 -1.37652e-25)
(0.999523 0.000517115 1.00526e-22)
(0.999771 0.000278222 0)
(0.99971 0.00035922 0)
(0.999726 9.10161e-05 0)
(1.00069 -0.000923195 -9.51686e-24)
(1.00101 -0.00112549 1.1632e-23)
(1.00083 -0.0010388 4.28151e-23)
(1.0014 -0.00113595 -1.31172e-23)
(1.00118 -0.00114448 -1.21202e-22)
(1.00158 -0.00132023 6.71022e-24)
(1.00182 -0.00160142 -3.4625e-22)
(1.00211 -0.00171357 7.03374e-22)
(1.00548 0.00328856 2.01193e-23)
(1.00417 0.00528839 0)
(1.00516 0.00490148 4.8482e-23)
(1.00547 0.0013648 -2.9946e-23)
(1.00601 0.00194309 0)
(1.00251 0.00716512 -2.15293e-24)
(1.0041 0.00640404 1.31348e-24)
(1.00378 -0.00168417 -1.80905e-23)
(1.00433 -0.00138606 1.54245e-22)
(1.00253 -0.00171287 -3.28984e-22)
(1.00283 -0.0017499 -9.23656e-22)
(1.00488 -0.00091432 4.7955e-22)
(1.00546 -0.000537776 4.8202e-23)
(1.00567 0.000775001 -6.94077e-23)
(1.00028 -0.000783589 -3.05015e-23)
(1.00082 0.00746989 0)
(0.999172 0.00762521 1.02104e-21)
(0.998908 0.00709727 2.8977e-24)
(0.998563 0.0063778 -5.26328e-24)
(0.998371 0.00557912 -1.85318e-23)
(0.997732 0.00470378 0)
(0.998097 0.00523484 -1.19005e-24)
(0.997323 0.000822904 -1.82778e-23)
(0.997682 0.000671397 -6.8502e-24)
(0.997282 0.00163374 1.15863e-23)
(0.998257 0.000497954 1.08234e-23)
(0.997998 0.000594812 -1.74498e-22)
(0.997085 0.00306333 -1.36551e-22)
(0.996959 0.00241762 2.97847e-23)
(0.996681 0.00344701 3.32336e-23)
(0.997001 0.00463396 0)
(0.999247 0.000501399 -6.25229e-24)
(0.99893 0.000374406 7.37846e-23)
(0.998375 0.000260912 5.87669e-24)
(0.999496 0.000473695 5.96685e-24)
(0.999606 0.000371243 0)
(0.999727 0.00029389 0)
(0.999847 -2.8241e-05 0)
(1.00068 -0.00101124 1.6861e-21)
(1.00042 -0.000917159 -1.84111e-24)
(1.00109 -0.00130591 4.87146e-24)
(1.00072 -0.00119599 1.51945e-23)
(1.00147 -0.00165371 1.21566e-23)
(1.0022 -0.00201265 2.18288e-23)
(1.0062 0.00286342 1.91649e-23)
(1.00612 0.00354021 2.80847e-22)
(1.00598 0.00449867 -1.07184e-22)
(1.00588 0.0054926 -3.40577e-22)
(1.00675 0.00212034 2.32412e-23)
(1.0021 0.00824774 6.15414e-23)
(1.00317 0.00790849 -3.08065e-24)
(1.00401 0.00739296 1.0684e-23)
(1.00496 0.00682569 9.21687e-25)
(1.00327 -0.00200162 -3.36016e-23)
(1.00377 -0.00240808 2.06211e-23)
(1.00497 -0.00175731 3.04922e-22)
(1.00276 -0.00232359 4.76221e-24)
(1.0059 9.67087e-05 1.74458e-23)
(1.00616 -0.000693158 -2.69014e-22)
(1.00641 0.000778983 -3.74219e-23)
(1.0003 -0.000662988 -1.18845e-21)
(1.00076 -0.00102618 -5.19647e-24)
(1.00011 0.00819316 -2.84902e-24)
(1.00105 0.00819154 2.00756e-24)
(0.999115 0.00856464 -5.94161e-25)
(0.99801 0.00720331 -1.73035e-23)
(0.997879 0.00568364 1.02209e-23)
(0.99706 0.00122931 -1.59057e-23)
(0.996923 0.000669925 3.56201e-22)
(0.997723 0.000312451 -7.96206e-24)
(0.996856 0.0016747 0)
(0.996716 0.00215782 1.4723e-23)
(0.996466 0.0025569 4.94728e-23)
(0.996339 0.00307865 -6.35016e-23)
(0.99621 0.00374628 -7.20717e-24)
(0.996444 0.00467392 0)
(0.996785 0.00522919 -9.52072e-24)
(0.999205 0.000351897 -6.59558e-23)
(0.999352 0.00039522 -1.24747e-23)
(0.999063 0.000271109 3.01504e-23)
(0.998888 0.000200061 1.63951e-23)
(0.998532 -5.50669e-05 6.261e-24)
(0.998195 -0.000146636 2.44853e-23)
(0.99948 0.000375848 -6.18556e-24)
(0.999742 0.000210888 0)
(0.99967 0.000278007 -1.16753e-23)
(0.999638 3.05805e-05 -9.84427e-24)
(1.00012 -0.00084678 1.46007e-23)
(1.00118 -0.00157918 -4.67894e-24)
(1.00092 -0.00153731 1.30015e-23)
(1.00066 -0.00142773 2.25509e-24)
(1.00041 -0.00126042 1.00578e-22)
(1.00128 -0.001799 -3.21524e-24)
(1.00241 -0.00246259 3.66955e-23)
(1.00198 -0.00230628 -1.43578e-23)
(1.00713 0.00405344 -4.17915e-23)
(1.00574 0.00628456 -3.59885e-23)
(1.00669 0.00596825 3.42875e-23)
(1.00696 0.0011993 -6.98081e-22)
(1.00768 0.00203755 1.4011e-23)
(1.00156 0.00924155 1.36103e-23)
(1.00391 0.00870364 -1.35209e-23)
(1.00574 0.00760133 0)
(1.00361 -0.00301784 2.22899e-22)
(1.0043 -0.00277219 -7.35695e-23)
(1.00493 -0.0024356 -8.5976e-24)
(1.00563 -0.00204188 8.48131e-25)
(1.00259 -0.00272141 -6.46044e-22)
(1.00695 -0.000449999 -4.79498e-23)
(1.0066 -0.00114086 6.46105e-23)
(1.00712 0.000413675 -3.1569e-23)
(1.0002 -0.00159098 -4.42211e-21)
(0.999271 0.00975145 1.70966e-23)
(0.998123 0.00903458 1.10619e-23)
(0.997527 0.00654605 -4.99404e-24)
(0.997391 0.00728005 1.06136e-21)
(0.997237 0.00571829 1.27599e-22)
(0.996333 0.000633058 -6.24368e-23)
(0.996741 0.000223162 -2.48501e-22)
(0.997852 -0.00011267 -7.66137e-24)
(0.997429 -4.16341e-05 1.75189e-23)
(0.996336 0.00165467 -4.2282e-25)
(0.995965 0.00262617 -5.30495e-23)
(0.995978 0.00424334 -1.86576e-23)
(0.995376 0.00377227 -7.6599e-22)
(0.995673 0.00483174 3.83502e-23)
(0.996498 0.00604237 -3.21635e-23)
(0.999233 0.000186465 -6.54852e-24)
(0.999462 0.000286927 -4.54427e-23)
(0.998798 -2.364e-06 0)
(0.998954 5.37172e-06 -7.1615e-24)
(0.998708 -0.000278977 -1.13022e-24)
(0.99807 -0.000380939 -6.39347e-24)
(0.99959 0.000223194 7.38525e-23)
(0.999714 0.000188692 -1.16235e-23)
(0.999802 -0.000150187 -9.87972e-24)
(1.00024 -0.00102266 1.22825e-23)
(1.00036 -0.00106812 -7.71733e-24)
(1.00069 -0.00162172 1.91505e-24)
(1.00011 -0.0012554 -7.32875e-22)
(1.00103 -0.00195878 -4.04446e-23)
(1.00129 -0.00212686 -4.96242e-23)
(1.00153 -0.00232268 1.16893e-24)
(1.00176 -0.00280233 -8.84074e-22)
(1.00814 0.00361658 -3.80094e-23)
(1.00791 0.00485482 -1.48265e-22)
(1.00756 0.00585821 -2.39601e-22)
(1.00737 0.00676949 2.64391e-22)
(1.00841 0.00261075 -9.33658e-23)
(1.00862 0.00136242 1.40045e-23)
(1.00044 0.01013 3.89514e-23)
(1.00187 0.0104363 -4.91103e-22)
(1.00395 0.0098982 -2.50994e-22)
(1.0051 0.00920804 -9.76809e-24)
(1.00689 0.00784122 -1.62138e-23)
(1.00589 0.00850749 0)
(1.00302 -0.00321199 -4.2433e-23)
(1.00331 -0.00364726 -1.00809e-23)
(1.00477 -0.00330781 -1.52471e-22)
(1.00633 -0.00179336 2.90137e-23)
(1.00607 -0.00273293 7.21253e-23)
(1.00239 -0.00333677 -2.54593e-23)
(1.00771 -6.96402e-05 -3.03164e-25)
(1.00716 -0.00183973 -1.09529e-24)
(1.00089 -0.00170035 -1.79229e-23)
(0.999471 0.0111683 -3.93078e-24)
(0.997213 0.00863308 -1.68362e-22)
(0.997341 0.00987595 6.69384e-24)
(0.996654 0.00703515 -8.74754e-25)
(0.996891 0.00774254 6.62214e-23)
(0.996047 0.00120459 2.71934e-22)
(0.995762 0.000567903 -5.43927e-23)
(0.996999 -3.82694e-05 -6.07408e-23)
(0.996582 -0.000255197 5.82187e-24)
(0.997277 -0.000561074 1.63527e-23)
(0.995697 0.00177305 -4.90546e-22)
(0.995276 0.0029262 -3.78075e-22)
(0.995544 0.00233886 -7.84888e-23)
(0.994767 0.00340354 -2.99751e-23)
(0.994906 0.00479572 -5.52754e-22)
(0.995227 0.00575582 5.95326e-23)
(0.995797 0.00652113 8.89037e-22)
(0.999268 6.87028e-05 0)
(0.999375 0.000148764 0)
(0.999485 0.000171509 1.63587e-23)
(0.999193 -5.99411e-05 -7.11266e-24)
(0.999071 -0.00026592 4.35695e-24)
(0.998877 -0.000424744 5.73033e-24)
(0.998683 -0.000535921 -7.6037e-24)
(0.997893 -0.00074658 0)
(0.998117 -0.000601086 3.80722e-23)
(0.999702 0.000137213 0)
(0.999647 0.00014252 0)
(0.999538 -6.19301e-05 1.02508e-23)
(1.00048 -0.00160242 9.0575e-23)
(1.00063 -0.00177433 1.16454e-23)
(1.0003 -0.00147383 -1.46477e-21)
(1.00026 -0.00157934 -7.20701e-24)
(1.00076 -0.00191001 -5.1427e-22)
(1.00082 -0.00220152 1.87049e-23)
(1.00116 -0.0024711 4.76781e-23)
(1.0019 -0.00338782 -1.7323e-23)
(1.00133 -0.00318627 9.28439e-22)
(1.00938 0.00332269 2.38161e-23)
(1.00874 0.00567707 4.96733e-22)
(1.00819 0.00794986 -1.65307e-23)
(1.0086 0.000289328 -5.5496e-23)
(1.00957 0.000696368 -5.35964e-22)
(1.003 0.0106573 2.26588e-24)
(1.00192 0.0117788 -2.69932e-24)
(1.00439 0.0113603 2.98189e-23)
(1.00624 0.00960755 1.81377e-23)
(1.00303 -0.00438486 -1.97472e-22)
(1.00387 -0.00411772 -1.66649e-23)
(1.00456 -0.00396082 1.72544e-22)
(1.00534 -0.00375502 3.26544e-23)
(1.00611 -0.0033901 1.70615e-21)
(1.00685 -0.00313612 3.02149e-23)
(1.00212 -0.00380748 0)
(1.00853 -0.000753177 -2.18745e-22)
(1.00758 -0.00254261 -6.55089e-23)
(1.00802 -0.00189493 -2.8222e-22)
(1.00004 -0.00211026 7.6348e-21)
(0.99833 0.0119843 3.54497e-23)
(0.999654 0.0124102 9.17354e-22)
(0.996001 0.00829311 -1.96254e-23)
(0.997138 0.011033 -7.55453e-24)
(0.996062 0.0103937 -1.03715e-23)
(0.995088 0.00075029 1.04976e-22)
(0.995529 6.47105e-05 5.8654e-22)
(0.996703 -0.000851678 2.91836e-23)
(0.996235 -0.000540488 -3.01494e-22)
(0.99768 -0.00102764 0)
(0.997228 -0.00114737 -1.65117e-25)
(0.995119 0.00179008 6.43644e-23)
(0.994102 0.0037614 -5.48165e-23)
(0.994037 0.00290255 1.86041e-23)
(0.994317 0.0044059 -7.0828e-23)
(0.994127 0.0054493 -2.30825e-23)
(0.995005 0.00667934 -1.44439e-22)
(0.999325 -9.65118e-05 0)
(0.999446 5.23122e-05 0)
(0.999128 -0.000444276 7.42143e-24)
(0.998437 -0.00079531 1.81809e-21)
(0.99878 -0.000886331 -4.26722e-22)
(0.998009 -0.00113832 4.2263e-23)
(0.998217 -0.00103902 8.87754e-23)
(0.999561 -4.40995e-05 0)
(0.999802 -3.07162e-05 1.16827e-23)
(0.999774 -0.000284474 8.84316e-25)
(1.00024 -0.0016528 1.26139e-23)
(1.00053 -0.00199112 1.3214e-23)
(1.00075 -0.00227843 6.53347e-21)
(1.00091 -0.00251421 2.45482e-23)
(1.00056 -0.0024125 -5.01955e-22)
(1.00102 -0.0026663 1.71601e-22)
(1.00102 -0.00294684 4.81172e-23)
(1.00104 -0.0032896 -5.62983e-22)
(1.01016 0.00414115 1.46747e-22)
(1.01041 0.0029185 -4.2961e-27)
(1.00994 0.0052516 -1.28012e-22)
(1.00988 0.00673813 1.32828e-22)
(1.00946 0.00820413 -8.35903e-24)
(1.00856 0.00917965 -4.71937e-23)
(1.01053 0.00163918 2.47079e-22)
(1.01051 -1.02881e-05 -3.41544e-23)
(1.0009 0.0125507 -1.69938e-24)
(1.00217 0.0131978 -5.57314e-23)
(1.00465 0.0127757 1.23036e-24)
(1.00567 0.0118325 -1.91764e-23)
(1.00757 0.00977417 -2.46761e-23)
(1.00657 0.0108727 1.27369e-22)
(1.00313 -0.00540923 -2.01424e-23)
(1.00227 -0.00483483 -4.7368e-24)
(1.00416 -0.00483665 -2.02604e-23)
(1.00599 -0.00429349 -1.66264e-23)
(1.00751 -0.00359733 7.58799e-22)
(1.00182 -0.00435775 0)
(1.00165 -0.00395651 0)
(1.00916 -0.00179117 5.63271e-22)
(0.996811 0.012544 3.51075e-22)
(0.999799 0.014084 1.007e-22)
(0.995229 0.00929787 -1.11528e-23)
(0.994963 0.00813073 2.97149e-23)
(0.994674 0.0103204 3.54157e-22)
(0.994786 0.00124378 -2.65691e-22)
(0.994412 0.000697876 -2.39383e-22)
(0.995694 -0.000353814 6.91008e-23)
(0.995068 -0.000300402 3.68412e-23)
(0.996976 -0.00143866 4.06882e-23)
(0.9959 -0.000925057 8.2316e-24)
(0.994278 0.00191729 1.73118e-23)
(0.993476 0.00415901 -2.78351e-23)
(0.993422 0.00212917 3.98825e-23)
(0.994186 0.00642385 -9.0111e-23)
(0.993358 0.00590837 -1.13695e-23)
(0.994417 0.00720388 -1.05799e-21)
(0.999454 -0.000121894 0)
(0.999392 -0.000175991 1.48906e-24)
(0.99932 -0.000458869 -1.86513e-24)
(0.999185 -0.000650977 -8.76227e-25)
(0.999057 -0.000866861 1.37623e-22)
(0.998895 -0.0011335 -8.4344e-25)
(0.998128 -0.00121902 3.76194e-22)
(0.999757 -2.11183e-05 2.14686e-24)
(0.999834 8.00699e-05 2.88401e-22)
(0.999427 -0.000203699 -1.7316e-21)
(1.0003 -0.00195424 -1.04175e-23)
(1.0001 -0.00183113 8.64202e-22)
(1.00041 -0.00206299 9.04064e-24)
(0.999938 -0.00235993 2.80327e-24)
(1.00036 -0.00223382 -9.23502e-23)
(1.00035 -0.00241439 2.38839e-22)
(1.00076 -0.00273428 -1.19283e-23)
(1.0008 -0.00355172 1.24151e-21)
(1.00056 -0.00325307 -1.02249e-22)
(1.01121 0.00500462 -5.40756e-22)
(1.01169 0.00247659 -1.4262e-23)
(1.01087 0.00806801 -7.90682e-24)
(1.00905 0.0103959 -7.4322e-22)
(1.01112 -0.00100976 -5.33925e-23)
(1.01204 5.05409e-05 -1.43291e-22)
(1.00347 0.013785 2.97825e-24)
(1.00216 0.0149315 9.77597e-23)
(1.0051 0.0146986 -4.6337e-24)
(1.00702 0.012351 1.09095e-23)
(1.00382 -0.00551611 4.10868e-22)
(1.00319 -0.00601544 -1.39782e-23)
(1.00169 -0.0047874 0)
(1.00471 -0.00548429 3.18844e-22)
(1.00568 -0.00511166 -2.91222e-22)
(1.00671 -0.00483163 -4.54691e-24)
(1.00756 -0.00468619 4.16051e-22)
(1.00854 -0.00414876 2.29543e-23)
(1.00123 -0.00398141 1.10882e-23)
(1.0015 -0.00440093 0)
(1.01039 -0.00196398 -2.56567e-23)
(1.0095 -0.00305594 -4.49914e-24)
(0.996352 0.0141243 3.52673e-22)
(0.995078 0.0127272 1.87906e-23)
(1.00084 0.0157067 -1.15794e-23)
(0.998973 0.0153997 1.11825e-21)
(0.993662 0.00796195 -1.48675e-23)
(0.99393 0.0115083 2.05359e-22)
(0.993144 0.01025 2.87504e-24)
(0.994479 -9.4313e-05 1.09957e-23)
(0.993791 0.000363886 1.11459e-23)
(0.994607 -0.000607455 -2.63579e-23)
(0.996968 -0.00183663 -1.17454e-22)
(0.996433 -0.00158108 2.61447e-23)
(0.996013 -0.00133892 2.51752e-23)
(0.995522 -0.00125821 -1.40428e-22)
(0.992863 0.00497011 -2.73402e-23)
(0.992662 0.00393911 0)
(0.992596 0.00249861 2.88927e-23)
(0.992963 0.00134575 -5.13798e-22)
(0.992425 0.00603181 4.28498e-22)
(0.999447 -0.000342148 -5.72537e-23)
(0.999556 -0.000158759 1.5666e-24)
(0.999431 -0.000565271 -1.72095e-24)
(0.999289 -0.000875652 -2.96593e-22)
(0.998808 -0.00143901 -4.42921e-24)
(0.999126 -0.00140058 1.34808e-23)
(0.998387 -0.00146878 -2.88411e-23)
(0.997993 -0.00162088 6.41201e-23)
(0.99968 1.27177e-05 -1.06286e-23)
(0.999696 -9.67046e-05 -9.91813e-24)
(0.999801 -0.000497469 7.40307e-24)
(1.00029 -0.00192093 2.0736e-23)
(1.00021 -0.00198595 8.75495e-24)
(1.00033 -0.00215829 9.0142e-24)
(1.00077 -0.00280042 9.20581e-21)
(1.0003 -0.002438 2.4163e-24)
(1.00029 -0.00236525 1.04013e-23)
(1.0005 -0.00296282 6.24631e-24)
(1.00055 -0.00266034 6.3656e-22)
(1.00057 -0.0039888 1.63108e-23)
(1.00028 -0.00308728 1.20365e-22)
(1.01239 0.00605485 -1.60596e-23)
(1.0126 0.00416684 -7.30036e-23)
(1.01268 0.00175207 3.29667e-23)
(1.01277 0.00286667 -2.06596e-22)
(1.01233 0.00753956 -8.26723e-24)
(1.01213 0.00927872 7.64171e-24)
(1.00866 0.0123451 8.96892e-23)
(1.0102 0.0114175 4.84458e-23)
(1.01166 -0.002318 7.08565e-22)
(1.01356 0.000502779 3.53705e-23)
(1.00197 0.0164598 -6.97417e-24)
(1.00527 0.0164339 -2.94345e-24)
(1.00675 0.0153752 -4.12227e-23)
(1.00791 0.013641 1.27198e-21)
(1.00245 -0.0063964 0)
(1.00359 -0.00696297 -3.03337e-23)
(1.00133 -0.0048025 -1.76981e-23)
(1.00544 -0.00601138 5.07803e-22)
(1.00724 -0.00562423 -2.4798e-24)
(1.00976 -0.00447354 3.45011e-22)
(0.997194 0.0153109 3.11832e-23)
(0.995178 0.0154758 5.32853e-23)
(0.993156 0.0127859 6.21674e-23)
(0.998214 0.0173633 2.60032e-23)
(0.99282 0.0091739 -5.17071e-23)
(0.992648 0.00762033 4.2117e-22)
(0.991868 0.00999077 -1.22348e-22)
(0.993062 0.000670487 -4.1788e-23)
(0.993115 -0.000348879 0)
(0.994926 -0.00124469 -5.52892e-23)
(0.994192 -0.00133952 1.69402e-22)
(0.996795 -0.00237252 -2.54163e-23)
(0.997307 -0.00207944 -3.92781e-23)
(0.99605 -0.00190542 0)
(0.995163 -0.00166092 6.81247e-24)
(0.992233 0.00312045 0)
(0.991572 0.00397864 0)
(0.991669 0.0022836 9.53395e-24)
(0.992239 0.000820494 -3.92592e-23)
(0.992051 0.00692465 -5.53221e-23)
(0.991348 0.0059089 -9.61885e-24)
(0.999741 -0.000257797 0)
(0.999595 -0.000622733 0)
(0.999473 -0.000758519 -1.44957e-23)
(0.999423 -0.00083088 3.71527e-22)
(0.999366 -0.000992967 -5.91604e-25)
(0.998757 -0.00178787 3.38722e-23)
(0.999368 -0.00123503 1.09386e-23)
(0.999358 -0.0015166 4.7107e-23)