/*--------------------------------*- C++ -*----------------------------------*\
| =========                 |                                                 |
| \\      /  F ield         | OpenFOAM: The Open Source CFD Toolbox           |
|  \\    /   O peration     | Version:  v2012                                 |
|   \\  /    A nd           | Website:  www.openfoam.com                      |
|    \\/     M anipulation  |                                                 |
\*---------------------------------------------------------------------------*/
FoamFile
{
    version     2.0;
    format      ascii;
    class       volVectorField;
    location    "1.5";
    object      cellDisplacement;
}
// * * * * * * * * * * * * * * * * * * * * * * * * * * * * * * * * * * * * * //

dimensions      [0 1 0 0 0 0 0];


internalField   nonuniform List<vector> 
13611
(
(0.000159449 -0.00293854 0)
(0.000279425 -0.00598055 0)
(6.82629e-05 -0.00135794 0)
(0.000372002 -0.00706108 0)
(0.000487845 -0.00918996 0)
(0.000659976 -0.0132391 0)
(0.000260811 -0.00690949 0)
(9.70188e-05 -0.00259927 0)
(0.000927525 -0.0162431 0)
(0.000518376 -0.0109797 0)
(0.000618013 -0.0150274 0)
(0.000171798 -0.00513022 0)
(0.0003241 -0.00983767 0)
(3.82492e-05 -0.00123445 0)
(0.000852308 -0.0171446 0)
(0.000431094 -0.0115581 0)
(0.000666016 -0.0169196 0)
(0.000475795 -0.0140895 0)
(0.000137672 -0.00568646 0)
(0.000260117 -0.0103636 0)
(7.24786e-05 -0.00310289 0)
(0.000986925 -0.018393 0)
(0.000905195 -0.0185858 0)
(0.000767859 -0.0175802 0)
(0.000579392 -0.0181885 0)
(0.000420073 -0.0157558 0)
(0.000167353 -0.00795541 0)
(0.000252188 -0.012781 0)
(3.22151e-05 -0.00191239 0)
(0.00104479 -0.0191281 0)
(0.0008461 -0.0197441 0)
(0.000758715 -0.0193948 0)
(0.00059763 -0.0199366 0)
(0.000471532 -0.017931 0)
(0.000305305 -0.0153167 0)
(0.000138635 -0.00885299 0)
(0.000175586 -0.0119519 0)
(3.32921e-05 -0.00320398 0)
(0.00102719 -0.0202437 0)
(0.000860732 -0.0210874 0)
(0.000680219 -0.0204085 0)
(0.000510659 -0.020799 0)
(0.000432537 -0.0196076 0)
(0.000245338 -0.0176154 0)
(9.00201e-05 -0.00808486 0)
(0.000122221 -0.0129335 0)
(7.44834e-06 -0.00131688 0)
(5.36243e-05 -0.0058638 0)
(0.000946088 -0.0211999 0)
(0.00109831 -0.0207253 0)
(0.000773249 -0.0221922 0)
(0.000681165 -0.0218507 0)
(0.000488642 -0.0220532 0)
(0.000356412 -0.0203982 0)
(0.000275926 -0.0198994 0)
(0.000152369 -0.0176305 0)
(7.6331e-05 -0.01063 0)
(0.000105956 -0.0154658 0)
(5.33668e-06 -0.0029444 0)
(1.88909e-05 -0.00566303 0)
(0.000966437 -0.0223674 0)
(0.00106403 -0.0219316 0)
(0.000762292 -0.0234019 0)
(0.00060594 -0.0229301 0)
(0.00121041 -0.0216834 0)
(0.000407829 -0.022801 0)
(0.00053039 -0.0229672 0)
(0.000345809 -0.0223796 0)
(0.000206625 -0.0214975 0)
(9.95642e-05 -0.0201934 0)
(2.95459e-05 -0.010682 0)
(2.35719e-05 -0.0159459 0)
(-5.33044e-06 -0.00171068 0)
(7.64254e-06 -0.00781007 0)
(0.000909783 -0.0235308 0)
(0.00111609 -0.0223357 0)
(0.000675072 -0.0243339 0)
(0.000818742 -0.023948 0)
(0.000608517 -0.0242223 0)
(0.00039874 -0.0241174 0)
(0.000467903 -0.0241777 0)
(0.00026963 -0.0235716 0)
(0.000131592 -0.0217426 0)
(0.00021002 -0.0232268 0)
(1.67292e-05 -0.0206617 0)
(-1.19406e-06 -0.0134127 0)
(-1.84734e-05 -0.0186025 0)
(-2.02057e-05 -0.00415195 0)
(-2.26761e-05 -0.0077672 0)
(0.000948731 -0.0245107 0)
(0.00110233 -0.023233 0)
(0.000669815 -0.0253938 0)
(0.000753861 -0.0252042 0)
(0.000535952 -0.0252382 0)
(0.00119234 -0.0231686 0)
(0.000336261 -0.0251251 0)
(0.00047132 -0.0251859 0)
(0.000264539 -0.0250494 0)
(9.19755e-05 -0.0234431 0)
(0.000140076 -0.024245 0)
(-3.75005e-05 -0.0227446 0)
(-5.17995e-05 -0.01332 0)
(-9.82312e-05 -0.0196781 0)
(-3.37221e-05 -0.00430378 0)
(-5.04559e-05 -0.0102191 0)
(0.00103995 -0.0241831 0)
(0.000866784 -0.0258036 0)
(0.000585456 -0.0265016 0)
(0.000766476 -0.0260585 0)
(0.000517554 -0.0264574 0)
(0.0011881 -0.0239468 0)
(0.00125477 -0.0240338 0)
(0.000335484 -0.0263729 0)
(0.000403747 -0.0263307 0)
(0.000204314 -0.0260858 0)
(2.70373e-05 -0.0245657 0)
(0.000103615 -0.025739 0)
(-2.7364e-05 -0.0244064 0)
(-0.000107042 -0.0233044 0)
(-0.000106542 -0.0154445 0)
(-0.000135044 -0.0183013 0)
(-0.000143823 -0.0223081 0)
(-1.78142e-05 -0.00185777 0)
(-6.89413e-05 -0.00750905 0)
(-7.77505e-05 -0.0100312 0)
(0.00108449 -0.0247831 0)
(0.000877948 -0.0267066 0)
(0.000589486 -0.0273284 0)
(0.000685999 -0.027078 0)
(0.000426115 -0.0272131 0)
(0.00123047 -0.0249804 0)
(0.00026383 -0.0273686 0)
(0.000206092 -0.0271731 0)
(0.000131036 -0.0264429 0)
(2.22551e-05 -0.0261787 0)
(-0.000103746 -0.0258249 0)
(-0.000145804 -0.0251708 0)
(-0.000136764 -0.0143902 0)
(-0.000213193 -0.0196234 0)
(-0.000213812 -0.023569 0)
(-4.57456e-05 -0.00356059 0)
(-0.000100117 -0.00859837 0)
(-0.000115477 -0.0120079 0)
(0.00106031 -0.0256992 0)
(0.00079784 -0.0277496 0)
(0.000970259 -0.0265614 0)
(0.000531538 -0.0283217 0)
(0.000672164 -0.0279714 0)
(0.000376559 -0.0282232 0)
(0.00114236 -0.0257712 0)
(0.00130559 -0.0249724 0)
(0.000241871 -0.0285166 0)
(0.000142459 -0.0279726 0)
(9.23297e-05 -0.0276677 0)
(-3.45387e-05 -0.0275059 0)
(-0.000130574 -0.0271714 0)
(-0.000206108 -0.026077 0)
(-0.000190836 -0.0155684 0)
(-0.000232073 -0.0179307 0)
(-0.000261473 -0.0218554 0)
(-0.000241317 -0.0255118 0)
(-0.000257829 -0.0233723 0)
(-2.61017e-05 -0.00176122 0)
(-9.46446e-05 -0.00704483 0)
(-0.000134697 -0.0112229 0)
(0.000716125 -0.0282113 0)
(0.000806848 -0.0284529 0)
(0.000960073 -0.0275004 0)
(0.000449267 -0.0290322 0)
(0.000581348 -0.0287092 0)
(0.00028597 -0.028832 0)
(0.000389306 -0.0290128 0)
(0.00112577 -0.0266402 0)
(0.00129259 -0.025755 0)
(0.000157641 -0.0293047 0)
(0.000118044 -0.0289458 0)
(3.20987e-05 -0.0286178 0)
(-0.000101747 -0.0278514 0)
(-2.76766e-05 -0.0287352 0)
(-0.000208342 -0.028244 0)
(-0.000242515 -0.0278099 0)
(-0.000180238 -0.0133565 0)
(-0.000293683 -0.0191239 0)
(-0.000331726 -0.022876 0)
(-0.000297985 -0.0265104 0)
(-0.000330355 -0.0251691 0)
(-5.62105e-05 -0.00327129 0)
(-0.000131468 -0.008317 0)
(0.000664708 -0.0293456 0)
(0.000876204 -0.0283475 0)
(0.000720742 -0.0294075 0)
(0.00103878 -0.0274409 0)
(0.000421056 -0.0300703 0)
(0.000550661 -0.0295029 0)
(0.000241874 -0.0300113 0)
(0.000295218 -0.0301352 0)
(0.00120418 -0.0265853 0)
(0.00137151 -0.0256237 0)
(0.000119295 -0.0303734 0)
(4.22406e-05 -0.0295242 0)
(-0.000160472 -0.0292377 0)
(-9.7117e-05 -0.0300182 0)
(-0.00022588 -0.0294488 0)
(-0.000301171 -0.0284789 0)
(-0.000206536 -0.0133786 0)
(-0.000312194 -0.0180499 0)
(-0.000348577 -0.0218376 0)
(-0.000374372 -0.0249331 0)
(-0.000341631 -0.0263796 0)
(-0.00032032 -0.0277737 0)
(-0.000109973 -0.00633506 0)
(-2.9645e-05 -0.00156349 0)
(-0.00018158 -0.0110313 0)
(0.000591057 -0.0298867 0)
(0.000867476 -0.029045 0)
(0.000715372 -0.0300606 0)
(0.00101941 -0.0283158 0)
(0.000343107 -0.0309014 0)
(0.000475262 -0.0301396 0)
(0.00015981 -0.0307609 0)
(0.000276334 -0.03099 0)
(0.00119016 -0.0273512 0)
(0.00136376 -0.0263291 0)
(4.04706e-05 -0.0310501 0)
(3.33386e-06 -0.0305597 0)
(-0.000159422 -0.0301609 0)
(-0.000105634 -0.0310279 0)
(-0.000281787 -0.0305719 0)
(-0.000354103 -0.0297096 0)
(-0.000269918 -0.0156322 0)
(-0.000374552 -0.0196724 0)
(-0.000412943 -0.0229756 0)
(-0.000436208 -0.026197 0)
(-0.000389431 -0.027673 0)
(-0.000373079 -0.0284187 0)
(-0.000142447 -0.00744829 0)
(-6.53725e-05 -0.00317318 0)
(-0.000217422 -0.0117605 0)
(0.000529165 -0.0307774 0)
(0.000794627 -0.0297919 0)
(0.000935242 -0.0290225 0)
(0.000650945 -0.0308808 0)
(0.00109483 -0.028246 0)
(0.00032549 -0.0316983 0)
(0.000456758 -0.0309277 0)
(0.000108245 -0.0318731 0)
(0.000205777 -0.0318494 0)
(0.00127118 -0.0272235 0)
(1.93658e-06 -0.0320069 0)
(-6.27045e-05 -0.0311987 0)
(-0.000222993 -0.0313641 0)
(-0.000171486 -0.0320878 0)
(-0.000335492 -0.0309284 0)
(-0.000279715 -0.0315697 0)
(-0.000366093 -0.0305856 0)
(-0.000398378 -0.0295256 0)
(-0.000273453 -0.0143905 0)
(-0.000403157 -0.0195576 0)
(-0.000419397 -0.0219384 0)
(-0.000465831 -0.0249159 0)
(-0.000473507 -0.0261044 0)
(-0.000467759 -0.0278565 0)
(-0.000441506 -0.0283291 0)
(-0.000122434 -0.00597058 0)
(-0.000198508 -0.0101467 0)
(-3.64991e-05 -0.00164017 0)
(0.000518623 -0.0314434 0)
(0.000802641 -0.0302957 0)
(0.000891059 -0.0298462 0)
(0.000668477 -0.0313541 0)
(0.000571679 -0.0314439 0)
(0.00108253 -0.0289946 0)
(0.000385814 -0.0316509 0)
(0.000251173 -0.0324987 0)
(2.91974e-05 -0.0324398 0)
(0.000133716 -0.0322567 0)
(0.000198339 -0.0325663 0)
(0.00125303 -0.027876 0)
(-7.53829e-05 -0.0327436 0)
(-0.000104912 -0.0324494 0)
(-0.000226032 -0.032279 0)
(-0.000171632 -0.0329362 0)
(-0.00038606 -0.0321599 0)
(-0.000337674 -0.0326905 0)
(-0.000428954 -0.0316111 0)
(-0.000452616 -0.0302333 0)
(-0.000318226 -0.0153054 0)
(-0.000381919 -0.0178114 0)
(-0.000467869 -0.0217105 0)
(-0.000476062 -0.0230051 0)
(-0.000520986 -0.0256472 0)
(-0.000541201 -0.0275979 0)
(-0.000528644 -0.0289011 0)
(-0.000480169 -0.0297729 0)
(-0.000173836 -0.0079705 0)
(-0.00022576 -0.0105394 0)
(-8.15526e-05 -0.0035099 0)
(0.000425244 -0.0323505 0)
(0.000740698 -0.0310413 0)
(0.000910677 -0.0302151 0)
(0.000595956 -0.0321983 0)
(0.000533288 -0.0323456 0)
(0.000995375 -0.0298762 0)
(0.00116178 -0.0287387 0)
(0.000366578 -0.0323957 0)
(0.000232086 -0.0332264 0)
(-2.93305e-05 -0.0333892 0)
(8.6398e-05 -0.0331941 0)
(0.00013067 -0.0332918 0)
(0.00130386 -0.0279316 0)
(0.00138549 -0.02744 0)
(-9.75747e-05 -0.0336119 0)
(-0.000287409 -0.0333153 0)
(-0.00023205 -0.0339409 0)
(-0.000434715 -0.0324431 0)
(-0.000388493 -0.0329141 0)
(-0.000342083 -0.0335239 0)
(-0.000471602 -0.0318329 0)
(-0.000483708 -0.0312927 0)
(-0.000286993 -0.0130241 0)
(-0.000432867 -0.0186419 0)
(-0.000513913 -0.0224404 0)
(-0.000525152 -0.024776 0)
(-0.0005672 -0.0272599 0)
(-0.000563111 -0.0287425 0)
(-0.000563552 -0.0302625 0)
(-0.000540718 -0.0306485 0)
(-0.000162063 -0.0070666 0)
(-8.0742e-05 -0.00332028 0)
(0.000399899 -0.0330672 0)
(0.000749049 -0.0315434 0)
(0.000830327 -0.0311691 0)
(0.000598157 -0.032627 0)
(0.000455603 -0.033053 0)
(0.000986425 -0.0304798 0)
(0.00116467 -0.0291803 0)
(0.000286761 -0.0331737 0)
(0.000155691 -0.0339958 0)
(-3.04742e-05 -0.0339497 0)
(2.28763e-05 -0.0338339 0)
(0.000107776 -0.0339883 0)
(0.00124692 -0.0287145 0)
(0.00140764 -0.0278096 0)
(-0.000156046 -0.0344475 0)
(-0.000293622 -0.0341369 0)
(-0.000235883 -0.034565 0)
(-0.000485498 -0.0333821 0)
(-0.000445352 -0.0339581 0)
(-0.000403003 -0.0345395 0)
(-0.000522708 -0.032835 0)
(-0.000539605 -0.031983 0)
(-0.000325745 -0.0138721 0)
(-0.0005023 -0.0210827 0)
(-0.000408234 -0.0169766 0)
(-0.000575021 -0.0245057 0)
(-0.000578367 -0.0255735 0)
(-0.000624643 -0.0281436 0)
(-0.000619764 -0.0299944 0)
(-0.000620614 -0.0309509 0)
(-0.000570571 -0.0318063 0)
(-0.000199192 -0.00820236 0)
(-3.55381e-05 -0.00142808 0)
(-0.000151987 -0.00606794 0)
(0.00031539 -0.0338564 0)
(0.0006781 -0.0322928 0)
(0.000841499 -0.0315328 0)
(0.000538387 -0.0333709 0)
(0.000419436 -0.0338133 0)
(0.00104305 -0.0304316 0)
(0.000913217 -0.0311794 0)
(0.00111466 -0.0299131 0)
(0.000260795 -0.0339171 0)
(0.000130107 -0.0347032 0)
(-9.77608e-05 -0.0349096 0)
(-5.25633e-06 -0.0346262 0)
(3.5067e-05 -0.0346847 0)
(0.00125606 -0.029074 0)
(0.00133438 -0.028667 0)
(-0.000155758 -0.0351932 0)
(-0.000205233 -0.0347026 0)
(-0.000350428 -0.0349523 0)
(-0.000288776 -0.0354006 0)
(-0.000530578 -0.0335499 0)
(-0.000493411 -0.034142 0)
(-0.00045492 -0.0347469 0)
(-0.00040423 -0.0351473 0)
(-0.000561218 -0.0328953 0)
(-0.000308572 -0.0126122 0)
(-0.000558629 -0.0221886 0)
(-0.000443704 -0.0174897 0)
(-0.000626692 -0.0253328 0)
(-0.000631806 -0.0273153 0)
(-0.00066488 -0.0294731 0)
(-0.000658595 -0.0302457 0)
(-0.00065886 -0.031975 0)
(-0.000625494 -0.0327045 0)
(-0.000256162 -0.0103184 0)
(-6.18388e-05 -0.00235202 0)
(-0.00016862 -0.00642946 0)
(0.000289187 -0.0345064 0)
(0.000661311 -0.0328634 0)
(0.000785345 -0.032274 0)
(0.000460321 -0.0339121 0)
(0.000574101 -0.0335381 0)
(0.000337388 -0.0344787 0)
(0.000983436 -0.0312604 0)
(0.000909337 -0.0316386 0)
(0.00117375 -0.0298686 0)
(0.000180423 -0.0346784 0)
(5.25304e-05 -0.0354227 0)
(-7.98526e-05 -0.035287 0)
(5.60714e-06 -0.0354108 0)
(0.00135333 -0.0289409 0)
(-0.000228036 -0.0361731 0)
(-0.00025993 -0.0355584 0)
(-0.000371313 -0.0357324 0)
(-0.000343875 -0.0359181 0)
(-0.000581922 -0.0344246 0)
(-0.000547839 -0.0350289 0)
(-0.000515117 -0.0356603 0)
(-0.000444957 -0.0358715 0)
(-0.00061015 -0.0337054 0)
(-0.000360336 -0.0139695 0)
(-0.000557109 -0.0212985 0)
(-0.000623464 -0.0243758 0)
(-0.000413179 -0.0158333 0)
(-0.000507178 -0.0193443 0)
(-0.000681445 -0.0270577 0)
(-0.000683127 -0.0279801 0)
(-0.000715749 -0.0302903 0)
(-0.000709012 -0.0314026 0)
(-0.000707983 -0.0325508 0)
(-0.00065892 -0.0327386 0)
(-0.000645072 -0.0337079 0)
(-0.00027389 -0.0104886 0)
(-0.00012352 -0.0046236 0)
(-2.70209e-05 -0.000997842 0)
(-0.000232988 -0.00870971 0)
(-0.0015055 -0.0131464 0)
(-0.00033286 -0.00282719 0)
(0.000206489 -0.035302 0)
(0.00070776 -0.0328533 0)
(0.000834326 -0.0322974 0)
(0.000410746 -0.0346903 0)
(0.000532365 -0.0341838 0)
(0.000288357 -0.0352436 0)
(0.000993818 -0.0315449 0)
(0.00115342 -0.0304245 0)
(0.000151677 -0.0354174 0)
(2.33293e-05 -0.036102 0)
(-0.000113251 -0.0360125 0)
(-6.83815e-05 -0.0360833 0)
(0.00145382 -0.0283549 0)
(0.00129659 -0.0296318 0)
(-0.000280821 -0.0362684 0)
(-0.00023599 -0.0367762 0)
(-0.000427621 -0.0362401 0)
(-0.000376498 -0.036712 0)
(-0.000623562 -0.0345258 0)
(-0.000590943 -0.0351447 0)
(-0.000559508 -0.0357596 0)
(-0.000529698 -0.0363693 0)
(-0.000493847 -0.0363513 0)
(-0.000333662 -0.0125574 0)
(-0.000619393 -0.0226298 0)
(-0.000674648 -0.0252653 0)
(-0.000457189 -0.01678 0)
(-0.000512992 -0.0187399 0)
(-0.000734704 -0.0278566 0)
(-0.000734241 -0.0293981 0)
(-0.000739884 -0.031393 0)
(-0.00074421 -0.0303114 0)
(-0.000729037 -0.0323502 0)
(-0.000737522 -0.0335844 0)
(-0.00071038 -0.0336882 0)
(-0.000697134 -0.0345834 0)
(-0.000120045 -0.00432766 0)
(-5.88014e-05 -0.00210507 0)
(-0.000258117 -0.0092901 0)
(-0.00123235 -0.0107601 0)
(-0.00159034 -0.0149993 0)
(-0.00198309 -0.0168693 0)
(-0.000645209 -0.00557397 0)
(-0.000164353 -0.00149773 0)
(0.000202429 -0.0357877 0)
(0.000659979 -0.033628 0)
(0.00080281 -0.0328777 0)
(0.000447128 -0.0347982 0)
(0.000320869 -0.0353598 0)
(0.00057255 -0.0342748 0)
(0.00106869 -0.0311849 0)
(0.000927393 -0.0323196 0)
(0.00121315 -0.0302702 0)
(7.15897e-05 -0.0361241 0)
(-5.29961e-05 -0.0367727 0)
(-0.000178927 -0.0366218 0)
(-9.76433e-05 -0.0367637 0)
(0.00132136 -0.0297885 0)
(-0.000344111 -0.0369081 0)
(-0.000290754 -0.0375291 0)
(-0.000467678 -0.0368956 0)
(-0.000434097 -0.0373407 0)
(-0.00067727 -0.0354329 0)
(-0.000638108 -0.0358817 0)
(-0.000614495 -0.0365409 0)
(-0.000591774 -0.037201 0)
(-0.000512454 -0.0370307 0)
(-0.000366298 -0.0132382 0)
(-0.000616176 -0.0218662 0)
(-0.000673191 -0.0244416 0)
(-0.000731305 -0.027021 0)
(-0.000435773 -0.0155383 0)
(-0.000561092 -0.0199173 0)
(-0.000779052 -0.0291889 0)
(-0.000775183 -0.0297917 0)
(-0.000780796 -0.0321771 0)
(-0.000797409 -0.0314797 0)
(-0.000782638 -0.0332381 0)
(-0.000784125 -0.0343195 0)
(-0.000728817 -0.034533 0)
(-0.00071657 -0.0354922 0)
(-0.000158565 -0.00558268 0)
(-3.19612e-05 -0.0011067 0)
(-0.000223653 -0.00786708 0)
(-0.00033095 -0.0117149 0)
(-0.00106925 -0.010073 0)
(-0.00179915 -0.0170697 0)
(-0.00142972 -0.0145824 0)
(-0.0019398 -0.0175616 0)
(-0.00078125 -0.00730715 0)
(-0.00031589 -0.0031332 0)
(0.000139586 -0.0365246 0)
(0.00070733 -0.0336158 0)
(0.000847936 -0.0328828 0)
(0.00039896 -0.035529 0)
(0.000276768 -0.036053 0)
(0.000523792 -0.0349172 0)
(0.00104689 -0.031764 0)
(0.000962861 -0.0324245 0)
(0.00118745 -0.03086 0)
(3.20815e-05 -0.0368467 0)
(-8.04898e-05 -0.0373622 0)
(-0.000209449 -0.0373798 0)
(-0.000172724 -0.0374472 0)
(0.00138508 -0.029405 0)
(0.00125351 -0.0305331 0)
(-0.000388364 -0.0376549 0)
(-0.000270434 -0.0378581 0)
(-0.000349267 -0.0380582 0)
(-0.000474829 -0.0374248 0)
(-0.000447605 -0.0379434 0)
(-0.000683034 -0.0360752 0)
(-0.00064945 -0.0365481 0)
(-0.00063173 -0.03727 0)
(-0.000600632 -0.0377513 0)
(-0.000556578 -0.0375941 0)
(-0.000661818 -0.0227087 0)
(-0.000717802 -0.0252745 0)
(-0.000776912 -0.0276398 0)
(-0.000472738 -0.0162879 0)
(-0.000576741 -0.0197835 0)
(-0.000826466 -0.0300365 0)
(-0.000819683 -0.0309099 0)
(-0.000809809 -0.0322589 0)
(-0.000802773 -0.0330794 0)
(-0.00083053 -0.0316741 0)
(-0.000808793 -0.0341804 0)
(-0.00080751 -0.0351978 0)
(-0.00077955 -0.0353119 0)
(-0.00076912 -0.0362649 0)
(-0.000134401 -0.0046181 0)
(-6.88769e-05 -0.00234422 0)
(-0.000257204 -0.00875698 0)
(-0.000352152 -0.0120639 0)
(-0.00118461 -0.0120607 0)
(-0.00183984 -0.0185994 0)
(-0.00154255 -0.0166914 0)
(-0.00218126 -0.0194452 0)
(-0.0020811 -0.0193437 0)
(-0.00236702 -0.0203994 0)
(-0.000618191 -0.00617901 0)
(-0.000157464 -0.00167313 0)
(6.02672e-05 -0.0370189 0)
(0.000148918 -0.0368423 0)
(0.000672716 -0.0341949 0)
(0.000793207 -0.0336268 0)
(0.000436721 -0.0355499 0)
(0.000318464 -0.0361164 0)
(0.000204962 -0.0366275 0)
(0.000539848 -0.0351218 0)
(0.00110649 -0.0315877 0)
(0.000919111 -0.0329941 0)
(-4.3739e-05 -0.0374141 0)
(-0.000153022 -0.0380375 0)
(-0.000201787 -0.0381388 0)
(0.00146707 -0.0291606 0)
(0.00139292 -0.0296467 0)
(0.00126612 -0.0307043 0)
(-0.000392931 -0.0381518 0)
(-0.000316375 -0.038513 0)
(-0.000371567 -0.0387365 0)
(-0.000533708 -0.0381352 0)
(-0.000503589 -0.0386063 0)
(-0.000722898 -0.036887 0)
(-0.000700824 -0.0371774 0)
(-0.00068872 -0.0379475 0)
(-0.000645445 -0.038498 0)
(-0.000569788 -0.0381643 0)
(-0.000638399 -0.0214806 0)
(-0.00070856 -0.0240472 0)
(-0.000727783 -0.0250059 0)
(-0.00076537 -0.0267601 0)
(-0.000830747 -0.0290304 0)
(-0.00045399 -0.0152466 0)
(-0.000541944 -0.0183781 0)
(-0.000849522 -0.0300246 0)
(-0.000851563 -0.0310936 0)
(-0.000854295 -0.0332762 0)
(-0.000851168 -0.0337983 0)
(-0.000877194 -0.0327049 0)
(-0.000857758 -0.03493 0)
(-0.00085566 -0.0359089 0)
(-0.000800034 -0.0361351 0)
(-0.000796945 -0.0371689 0)
(-0.000165498 -0.00555987 0)
(-7.03197e-05 -0.00234706 0)
(-0.000313483 -0.0105679 0)
(-0.000223089 -0.00745706 0)
(-0.000406525 -0.0136242 0)
(-0.00101472 -0.0109468 0)
(-0.00174395 -0.0185948 0)
(-0.00200051 -0.0204065 0)
(-0.00147537 -0.0171661 0)
(-0.00228771 -0.0205361 0)
(-0.00210376 -0.0206472 0)
(-0.00246671 -0.0212896 0)
(-0.000736557 -0.00787502 0)
(-0.000320936 -0.0036633 0)
(-1.61758e-06 -0.0378461 0)
(8.90671e-05 -0.0375276 0)
(0.000715446 -0.0341853 0)
(0.000596989 -0.0348472 0)
(0.000830952 -0.033619 0)
(0.000409033 -0.0360622 0)
(0.000262313 -0.0368617 0)
(0.000177459 -0.0371387 0)
(0.000469725 -0.0358119 0)
(0.00108456 -0.0321153 0)
(0.000933419 -0.0331974 0)
(-9.03615e-05 -0.0380729 0)
(-0.000160947 -0.038486 0)
(-0.000268706 -0.0387627 0)
(0.00134171 -0.0302071 0)
(0.00122426 -0.0312655 0)
(-0.00046654 -0.0390048 0)
(-0.000317369 -0.0388899 0)
(-0.000430183 -0.0394182 0)
(-0.000549577 -0.0387208 0)
(-0.000516743 -0.0391633 0)
(-0.00077399 -0.0374235 0)
(-0.000722203 -0.0378433 0)
(-0.000710844 -0.0385864 0)
(-0.000625101 -0.0387493 0)
(-0.000689941 -0.0388345 0)
(-0.000673273 -0.0220482 0)
(-0.0007481 -0.0246578 0)
(-0.00077806 -0.0261789 0)
(-0.000800362 -0.0271532 0)
(-0.000868309 -0.0293076 0)
(-0.000503562 -0.0164741 0)
(-0.000556155 -0.0182593 0)
(-0.000908668 -0.0313124 0)
(-0.000893619 -0.0320234 0)
(-0.00088925 -0.0335401 0)
(-0.000879925 -0.0347007 0)
(-0.000908934 -0.03288 0)
(-0.000881403 -0.0357827 0)
(-0.000876699 -0.0367008 0)
(-0.000849161 -0.0368138 0)
(-0.000848096 -0.0377305 0)
(-0.00013158 -0.0043491 0)
(-3.20712e-05 -0.00105621 0)
(-0.000342801 -0.0112274 0)
(-0.000246504 -0.00804514 0)
(-0.000396687 -0.0129287 0)
(-0.0010362 -0.0120313 0)
(-0.00184633 -0.0204652 0)
(-0.00199783 -0.0215272 0)
(-0.00164562 -0.0198654 0)
(-0.001244 -0.0149349 0)
(-0.0023115 -0.0217504 0)
(-0.0022258 -0.0219849 0)
(-0.00249188 -0.0223334 0)
(-0.000595331 -0.00679412 0)
(-0.000166874 -0.00202487 0)
(-7.62027e-05 -0.0383315 0)
(1.94194e-05 -0.0380254 0)
(0.000110961 -0.037635 0)
(0.000658385 -0.0348497 0)
(0.000588302 -0.035247 0)
(0.000795016 -0.034169 0)
(0.000346384 -0.0366487 0)
(0.000193735 -0.0373052 0)
(0.000277667 -0.0370539 0)
(0.000464063 -0.0361448 0)
(0.00114855 -0.0318832 0)
(0.000998219 -0.0328795 0)
(0.000854241 -0.0339352 0)
(-0.000214156 -0.0391272 0)
(-0.000302572 -0.0394081 0)
(0.00141433 -0.0300268 0)
(0.0013517 -0.0304216 0)
(0.00128283 -0.0310587 0)
(-0.000482854 -0.039606 0)
(-0.000378369 -0.0395934 0)
(-0.000436146 -0.0398987 0)
(-0.000606891 -0.0393502 0)
(-0.000584284 -0.0399033 0)
(-0.000806557 -0.0383289 0)
(-0.000776087 -0.0384578 0)
(-0.000764585 -0.039178 0)
(-0.000646279 -0.0393488 0)
(-0.000734055 -0.0395749 0)
(-0.000659026 -0.0211482 0)
(-0.000736796 -0.0238713 0)
(-0.000792023 -0.0260088 0)
(-0.000848938 -0.0283145 0)
(-0.000912125 -0.0303532 0)
(-0.000498375 -0.0159467 0)
(-0.000604653 -0.0194227 0)
(-0.000927728 -0.032248 0)
(-0.000932146 -0.0313489 0)
(-0.00093529 -0.0344926 0)
(-0.000927313 -0.035425 0)
(-0.00095342 -0.0338259 0)
(-0.000928967 -0.036479 0)
(-0.000922737 -0.0373547 0)
(-0.000868626 -0.0375071 0)
(-0.000881318 -0.0384362 0)
(-0.000150957 -0.00489244 0)
(-5.94432e-05 -0.00190843 0)
(-0.000309425 -0.00999888 0)
(-0.000208308 -0.0067065 0)
(-0.000438789 -0.0140205 0)
(-0.000772293 -0.00926285 0)
(-0.00182001 -0.0211983 0)
(-0.00209472 -0.0230608 0)
(-0.00166788 -0.0211914 0)
(-0.00119139 -0.0154364 0)
(-0.00241507 -0.0226725 0)
(-0.00226599 -0.023294 0)
(-0.00266721 -0.0226695 0)
(-0.00258602 -0.0230826 0)
(-0.000269745 -0.0034987 0)
(-0.000132748 -0.03899 0)
(-2.35227e-05 -0.0386617 0)
(8.32376e-05 -0.0380883 0)
(0.000663112 -0.0350792 0)
(0.000525889 -0.0358528 0)
(0.000724203 -0.0347746 0)
(0.000336195 -0.0370491 0)
(0.000132754 -0.0379307 0)
(0.000218997 -0.037783 0)
(0.00039288 -0.0368 0)
(0.00111996 -0.0324018 0)
(0.00098116 -0.0333343 0)
(0.00083769 -0.0343178 0)
(-0.000281947 -0.0395729 0)
(-0.00019985 -0.0393759 0)
(-0.000371841 -0.0399043 0)
(0.0014436 -0.030035 0)
(0.00126481 -0.0314417 0)
(-0.000546152 -0.0402747 0)
(-0.000490873 -0.0405767 0)
(-0.000628017 -0.0399727 0)
(-0.000597662 -0.0404204 0)
(-0.000859812 -0.0389907 0)
(-0.000797154 -0.0391604 0)
(-0.000778094 -0.0397506 0)
(-0.000698302 -0.0399036 0)
(-0.000737499 -0.0399947 0)
(-0.000703186 -0.0219787 0)
(-0.000774013 -0.0244317 0)
(-0.000838273 -0.0270266 0)
(-0.000874698 -0.0283749 0)
(-0.000942344 -0.0306875 0)
(-0.000547323 -0.0171272 0)
(-0.000600363 -0.0187895 0)
(-0.000970652 -0.0332301 0)
(-0.00097833 -0.0321886 0)
(-0.00096764 -0.0346038 0)
(-0.000952481 -0.0353351 0)
(-0.000953459 -0.0363599 0)
(-0.000980572 -0.0339564 0)
(-0.000949605 -0.0372648 0)
(-0.000942814 -0.0381157 0)
(-0.000915785 -0.0381492 0)
(-0.000923702 -0.0386741 0)
(-0.000888988 -0.038966 0)
(-0.000116011 -0.00370629 0)
(-2.84058e-05 -0.000898514 0)
(-0.000317603 -0.0100555 0)
(-0.00022462 -0.00708792 0)
(-0.000436237 -0.0136626 0)
(-0.00073077 -0.00932396 0)
(-0.00194641 -0.0232105 0)
(-0.00221426 -0.0238204 0)
(-0.0020711 -0.0240029 0)
(-0.00157253 -0.0208267 0)
(-0.00182453 -0.0233791 0)
(-0.000943996 -0.0125496 0)
(-0.0013685 -0.0184123 0)
(-0.00244317 -0.023801 0)
(-0.00237971 -0.0241973 0)
(-0.00274922 -0.0235212 0)
(-0.00260076 -0.02416 0)
(-0.000112023 -0.00152786 0)
(-0.000505565 -0.00664429 0)
(-0.000138326 -0.039375 0)
(-9.37776e-05 -0.0392547 0)
(1.91863e-05 -0.0386141 0)
(0.000588573 -0.0358265 0)
(0.00052166 -0.0362008 0)
(0.00069624 -0.035289 0)
(0.000260642 -0.0377159 0)
(0.000115006 -0.038313 0)
(0.000153355 -0.0382714 0)
(0.000380814 -0.037168 0)
(0.00103969 -0.0330853 0)
(0.0011775 -0.0321697 0)
(0.000899473 -0.03404 0)
(0.000750376 -0.0350678 0)
(-0.000331765 -0.0402591 0)
(-0.000247113 -0.0399991 0)
(-0.000421638 -0.0405582 0)
(0.00140663 -0.0305322 0)
(0.00132108 -0.0312143 0)
(-0.000564707 -0.0407736 0)
(-0.000542176 -0.040895 0)
(-0.000484057 -0.0409376 0)
(-0.000688964 -0.0405627 0)
(-0.000653951 -0.0410568 0)
(-0.000884699 -0.0398137 0)
(-0.000850571 -0.039826 0)
(-0.000822493 -0.0403491 0)
(-0.00071939 -0.0404952 0)
(-0.000787136 -0.0406891 0)
(-0.000692235 -0.02128 0)
(-0.000755772 -0.0234773 0)
(-0.000828978 -0.0258579 0)
(-0.000856823 -0.0269816 0)
(-0.0009246 -0.0294421 0)
(-0.000951804 -0.03043 0)
(-0.000980793 -0.0317458 0)
(-0.000533982 -0.0163951 0)
(-0.000643372 -0.0197691 0)
(-0.00100568 -0.0336678 0)
(-0.00100556 -0.0329441 0)
(-0.00101158 -0.0354644 0)
(-0.000998113 -0.0361063 0)
(-0.00100589 -0.0371537 0)
(-0.00102472 -0.0348392 0)
(-0.000995485 -0.0379426 0)
(-0.000985755 -0.0386718 0)
(-0.000958592 -0.0393399 0)
(-0.00094241 -0.0396287 0)
(-0.000137666 -0.0043151 0)
(-5.27483e-05 -0.00163683 0)
(-0.000271768 -0.00851805 0)
(-0.000355364 -0.0110726 0)
(-0.000188851 -0.00588815 0)
(-0.000398725 -0.012372 0)
(-0.000483182 -0.0148511 0)
(-0.00193309 -0.0240305 0)
(-0.00228351 -0.025304 0)
(-0.00216058 -0.0254533 0)
(-0.00167522 -0.023185 0)
(-0.00186537 -0.0247376 0)
(-0.000892052 -0.0125796 0)
(-0.00134182 -0.0190496 0)
(-0.00253457 -0.0245341 0)
(-0.00242232 -0.0253865 0)
(-0.00273906 -0.0246187 0)
(-0.00267349 -0.0248322 0)
(-0.000245228 -0.00350336 0)
(-0.00047976 -0.00675919 0)
(-0.000214528 -0.0400402 0)
(-0.000121138 -0.0398049 0)
(-5.53708e-06 -0.039092 0)
(0.000609383 -0.0359473 0)
(0.000447148 -0.0368648 0)
(0.000240819 -0.0381365 0)
(4.09254e-05 -0.0389478 0)
(9.60641e-05 -0.0389299 0)
(0.000304684 -0.0378382 0)
(0.00101845 -0.0335291 0)
(0.00115514 -0.0325594 0)
(0.000877786 -0.0344614 0)
(0.000735606 -0.0354148 0)
(-0.000402433 -0.0407534 0)
(-0.000310923 -0.040437 0)
(0.00145465 -0.0303743 0)
(0.00128585 -0.0317286 0)
(-0.000618492 -0.041283 0)
(-0.000594232 -0.0415765 0)
(-0.000535029 -0.0415298 0)
(-0.000717015 -0.0411243 0)
(-0.000701056 -0.0413151 0)
(-0.000656523 -0.0414272 0)
(-0.000937257 -0.0404186 0)
(-0.000864061 -0.0404597 0)
(-0.000828743 -0.0408765 0)
(-0.000776247 -0.040977 0)
(-0.000731652 -0.0220019 0)
(-0.000787979 -0.0239524 0)
(-0.000856544 -0.0260648 0)
(-0.000916578 -0.0282909 0)
(-0.000947507 -0.0293967 0)
(-0.000994781 -0.0312817 0)
(-0.00100984 -0.0320475 0)
(-0.000567124 -0.0170509 0)
(-0.000650904 -0.019609 0)
(-0.00101383 -0.0334798 0)
(-0.00104101 -0.0347064 0)
(-0.00104427 -0.0335494 0)
(-0.0010414 -0.0355652 0)
(-0.00102406 -0.0361255 0)
(-0.00102499 -0.0369923 0)
(-0.00102805 -0.0379572 0)
(-0.00101151 -0.0385929 0)
(-0.00101194 -0.0393625 0)
(-0.00100156 -0.0396918 0)
(-0.00096556 -0.0402649 0)
(-0.000105341 -0.00326146 0)
(-2.49416e-05 -0.000763419 0)
(-0.000284008 -0.00875175 0)
(-0.000330061 -0.0101272 0)
(-0.000205665 -0.00629597 0)
(-0.000422119 -0.0128151 0)
(-0.000467731 -0.0141382 0)
(-0.0020225 -0.0256696 0)
(-0.00225557 -0.0259594 0)
(-0.00237929 -0.0259508 0)
(-0.00217189 -0.0264858 0)
(-0.0018112 -0.0249131 0)
(-0.00162297 -0.0232656 0)
(-0.00197807 -0.0260878 0)
(-0.00101861 -0.0148841 0)
(-0.000638316 -0.00923661 0)
(-0.00120152 -0.0175507 0)
(-0.00148559 -0.021591 0)
(-0.00255555 -0.025545 0)
(-0.00250733 -0.0259908 0)
(-0.00289225 -0.0247214 0)
(-0.00279344 -0.0255254 0)
(-0.00268431 -0.0259073 0)
(-0.000135139 -0.00203158 0)
(-0.000244393 -0.0405634 0)
(-0.000195719 -0.0404519 0)
(-7.50743e-05 -0.0396867 0)
(0.000559038 -0.0365311 0)
(0.000424878 -0.0372905 0)
(0.000166585 -0.0388069 0)
(2.74542e-05 -0.0393139 0)
(9.89229e-05 -0.0391709 0)
(0.000292346 -0.0381582 0)
(0.000938135 -0.0342018 0)
(0.00107747 -0.0332305 0)
(0.00120728 -0.0323483 0)
(0.000800798 -0.0350926 0)
(0.000666806 -0.0360499 0)
(-0.000443206 -0.0413405 0)
(-0.000354189 -0.0409813 0)
(0.00141902 -0.0308496 0)
(0.00133624 -0.0315198 0)
(-0.00063486 -0.0417462 0)
(-0.000593044 -0.0418467 0)
(-0.000545637 -0.0419328 0)
(-0.000773995 -0.0415962 0)
(-0.000751906 -0.0419703 0)
(-0.000700702 -0.0419803 0)
(-0.000965568 -0.0411263 0)
(-0.000907642 -0.0410784 0)
(-0.000875951 -0.0414892 0)
(-0.000802956 -0.0415194 0)
(-0.000775071 -0.0231908 0)
(-0.000707087 -0.0210268 0)
(-0.000834671 -0.0251464 0)
(-0.000900709 -0.0270884 0)
(-0.000931081 -0.02816 0)
(-0.00100032 -0.0305225 0)
(-0.00102047 -0.0314387 0)
(-0.00104308 -0.0328048 0)
(-0.000543592 -0.0161359 0)
(-0.000619381 -0.0184832 0)
(-0.00105453 -0.0341073 0)
(-0.00107761 -0.0352323 0)
(-0.00105913 -0.0335306 0)
(-0.00108333 -0.0363851 0)
(-0.00106351 -0.0368833 0)
(-0.00106736 -0.0374684 0)
(-0.00106937 -0.0386483 0)
(-0.00105503 -0.039261 0)
(-0.00105779 -0.0397474 0)
(-0.0010368 -0.0403617 0)
(-0.00101212 -0.040783 0)
(-0.000122098 -0.00372207 0)
(-4.49779e-05 -0.00135691 0)
(-0.000252921 -0.00770152 0)
(-0.000348499 -0.0105321 0)
(-0.000171423 -0.00519873 0)
(-0.000397032 -0.0119291 0)
(-0.000495484 -0.0147579 0)
(-0.00211958 -0.0266602 0)
(-0.00231654 -0.027308 0)
(-0.00243255 -0.0271901 0)
(-0.00227234 -0.0276981 0)
(-0.00188087 -0.0266052 0)
(-0.0016802 -0.0248872 0)
(-0.00203492 -0.0275025 0)
(-0.000950531 -0.0145505 0)
(-0.000624621 -0.00943172 0)
(-0.00123859 -0.0190174 0)
(-0.00148568 -0.0224484 0)
(-0.00263324 -0.026239 0)
(-0.00255275 -0.0270811 0)
(-0.0028677 -0.025624 0)
(-0.00275711 -0.0263564 0)
(-0.000244458 -0.00381591 0)
(-0.000309916 -0.0411032 0)
(-0.0002159 -0.0408789 0)
(-9.8261e-05 -0.0401711 0)
(0.000470967 -0.0371634 0)
(0.000592488 -0.0365394 0)
(0.000345526 -0.0379207 0)
(0.000160291 -0.0391484 0)
(-4.15183e-05 -0.0399393 0)
(2.4147e-05 -0.0398774 0)
(0.000222797 -0.0387955 0)
(0.000908495 -0.0346433 0)
(0.00108147 -0.033408 0)
(0.00116498 -0.0328381 0)
(0.000769802 -0.035538 0)
(0.000688113 -0.0361285 0)
(-0.000414849 -0.0413891 0)
(-0.000508455 -0.041866 0)
(-0.000349093 -0.0412055 0)
(0.00146024 -0.0306902 0)
(0.00131298 -0.0318997 0)
(-0.000685691 -0.0421797 0)
(-0.000641801 -0.0424699 0)
(-0.000615556 -0.042548 0)
(-0.000793487 -0.0421065 0)
(-0.000749176 -0.0422703 0)
(-0.00101665 -0.0416108 0)
(-0.000950392 -0.0413634 0)
(-0.0009128 -0.0415808 0)
(-0.000887549 -0.0419993 0)
(-0.000854268 -0.04199 0)
(-0.00081692 -0.0240056 0)
(-0.000722918 -0.021125 0)
(-0.00085619 -0.0252414 0)
(-0.000922904 -0.0271937 0)
(-0.00097466 -0.0289069 0)
(-0.00102852 -0.0306938 0)
(-0.00106445 -0.0324492 0)