/*--------------------------------*- C++ -*----------------------------------*\
| =========                 |                                                 |
| \\      /  F ield         | OpenFOAM: The Open Source CFD Toolbox           |
|  \\    /   O peration     | Version:  v2012                                 |
|   \\  /    A nd           | Website:  www.openfoam.com                      |
|    \\/     M anipulation  |                                                 |
\*---------------------------------------------------------------------------*/
FoamFile
{
    version     2.0;
    format      ascii;
    class       volScalarField;
    location    "1.5";
    object      k;
}
// * * * * * * * * * * * * * * * * * * * * * * * * * * * * * * * * * * * * * //

dimensions      [0 2 -2 0 0 0 0];


internalField   nonuniform List<scalar> 
13611
(
0.00108893
0.000628714
0.00179272
0.000445326
0.000297147
0.000261362
0.000554443
0.00128475
0.000285894
0.000277654
0.000259053
0.000788904
0.000365079
0.00192115
0.000285242
0.000259888
0.000276474
0.000254373
0.000734187
0.000347086
0.00117599
0.0002782
0.000280194
0.000286414
0.000276438
0.000258874
0.000514855
0.000282883
0.00169037
0.000272896
0.000276998
0.000280476
0.000277668
0.000273525
0.000256817
0.000470329
0.000323872
0.00115698
0.000270862
0.000271281
0.000278606
0.00027701
0.000275103
0.000257147
0.000471694
0.000290367
0.0018221
0.000706946
0.000269574
0.000269161
0.000268722
0.000272007
0.000274337
0.000274131
0.000271686
0.000247689
0.000355484
0.000256886
0.00113964
0.000731001
0.000268014
0.000269082
0.000266398
0.000269286
0.000272727
0.000273034
0.000269927
0.000273294
0.000271133
0.000259297
0.000336893
0.000240541
0.00164663
0.000525011
0.000267788
0.000271244
0.000264728
0.000266155
0.000265017
0.000268622
0.000267019
0.000270123
0.000272908
0.000269597
0.00025744
0.000268297
0.000243078
0.00107515
0.00051761
0.00027046
0.000272146
0.000264187
0.000265639
0.000263079
0.000274346
0.000266454
0.000263516
0.000266363
0.000270826
0.000267357
0.000263345
0.000257951
0.000243559
0.000864003
0.000359996
0.000272199
0.000270541
0.000263212
0.000268563
0.000261754
0.000275669
0.000277932
0.000262373
0.000261716
0.000263997
0.000268158
0.000262448
0.000268911
0.000263475
0.000228952
0.000235975
0.000257183
0.00159579
0.000519407
0.000338584
0.000274023
0.000272274
0.000265864
0.000268547
0.000260552
0.000279836
0.000261405
0.000261677
0.000261672
0.000262337
0.0002682
0.000267194
0.00023006
0.000242308
0.000257897
0.000960021
0.000410723
0.000271965
0.000275578
0.000272148
0.000274754
0.000266184
0.000269703
0.000260183
0.000278893
0.000282809
0.000260614
0.000260347
0.000259667
0.000259059
0.000261929
0.00026528
0.000213373
0.000231231
0.000252127
0.00026256
0.000256287
0.00158005
0.000546279
0.000288937
0.000271093
0.000274686
0.00027732
0.000264979
0.000268563
0.000259799
0.000262466
0.000281262
0.000285399
0.000261336
0.000261162
0.00025833
0.000259016
0.000256424
0.000260253
0.000261582
0.000245892
0.000240067
0.000254736
0.000259303
0.000255237
0.000953264
0.000434519
0.000272695
0.000276915
0.000274693
0.000280541
0.000266795
0.000269576
0.000260608
0.000261949
0.000284627
0.000288854
0.00026142
0.000259203
0.000254872
0.000253667
0.000257106
0.000259544
0.000237503
0.000236911
0.000253323
0.000255615
0.000256157
0.000257668
0.000573955
0.00156702
0.000305048
0.000271995
0.000279554
0.000277254
0.000283651
0.000266547
0.000269162
0.000260929
0.000264207
0.000287733
0.000292281
0.000261825
0.000259735
0.000251734
0.000254948
0.000254406
0.000259432
0.000225199
0.000243578
0.000255329
0.000251855
0.000252045
0.000253435
0.00046684
0.000902826
0.000267254
0.000272675
0.000279707
0.000282798
0.000277855
0.000287274
0.000268935
0.000270883
0.000262523
0.000264691
0.000291679
0.000262167
0.000258467
0.000250342
0.000254723
0.000256277
0.000250039
0.000259119
0.000255624
0.000231334
0.000242813
0.000254335
0.000254497
0.000252555
0.000246003
0.000247926
0.000562726
0.000320038
0.00147298
0.000275063
0.000282271
0.000284552
0.000281124
0.000277274
0.000291115
0.000271034
0.00026927
0.000262617
0.000263977
0.000267553
0.000294521
0.000261943
0.000260249
0.000252043
0.000258096
0.000253985
0.000250403
0.000259108
0.000253855
0.000218035
0.000230952
0.000250252
0.000254319
0.000252168
0.000247435
0.000242912
0.000247643
0.000402488
0.000286314
0.00097713
0.000275278
0.000283102
0.000288239
0.000282001
0.000279793
0.000291387
0.000294819
0.000273262
0.000271706
0.000263357
0.000265711
0.000267814
0.000299454
0.000302057
0.000262408
0.000253342
0.000259299
0.00025637
0.000251063
0.000251876
0.000260843
0.000258462
0.000234169
0.000231188
0.000248207
0.000251917
0.000248235
0.000242641
0.000242078
0.000246536
0.000466496
0.000782077
0.000277305
0.00028724
0.000289899
0.000285079
0.000279628
0.000296009
0.000298244
0.000273552
0.000272112
0.000264483
0.00026594
0.000270136
0.000301789
0.0003091
0.00026328
0.000257336
0.000261838
0.000255522
0.000252104
0.00025453
0.000260363
0.000258729
0.000225476
0.000242807
0.00022548
0.000246617
0.00024781
0.00024473
0.000240097
0.000239939
0.000253798
0.000350076
0.00149393
0.000469636
0.000277538
0.000287827
0.000294005
0.000286882
0.000282603
0.000300725
0.00029654
0.00030199
0.00027562
0.000274125
0.000266396
0.000268604
0.000270405
0.000308178
0.0003118
0.000265567
0.000262604
0.000258652
0.000262893
0.000257568
0.000252942
0.000253552
0.000257891
0.000260234
0.00022023
0.000240135
0.000223867
0.00024289
0.00024356
0.000241701
0.000241216
0.000244197
0.000254252
0.000266024
0.000920782
0.000392791
0.000279857
0.000291746
0.000296124
0.00028607
0.000290778
0.000282399
0.000303818
0.000300942
0.000308486
0.000275986
0.000274486
0.00026878
0.000272574
0.000319506
0.000267718
0.000264112
0.000262211
0.000263577
0.000256789
0.000253942
0.000256319
0.000260076
0.000259714
0.000210256
0.000237019
0.000240498
0.000219021
0.000230685
0.000239162
0.000240486
0.000242553
0.000241881
0.000244209
0.000250391
0.000258581
0.000237547
0.000527115
0.00155166
0.00028499
0.000270125
0.000405842
0.000280883
0.000295337
0.000300327
0.000289323
0.000294105
0.000285585
0.000310718
0.000315104
0.000278887
0.000276865
0.000270993
0.000273046
0.00032488
0.000323069
0.000266666
0.000270611
0.000262727
0.000265989
0.000258411
0.00025469
0.000255247
0.000260258
0.000261308
0.000212746
0.000233275
0.0002371
0.000224826
0.000230362
0.000237773
0.000240013
0.000243241
0.000242674
0.000242403
0.000248729
0.000252325
0.00025871
0.000536322
0.000884345
0.000255819
0.000215732
0.000280727
0.000271099
0.000102965
0.000992015
0.00028406
0.000300115
0.000306247
0.00029332
0.00028871
0.000299017
0.000315861
0.00031548
0.000322278
0.000279141
0.000277315
0.000271463
0.000275323
0.000332296
0.00026749
0.000272313
0.000265023
0.000267486
0.00025781
0.0002558
0.0002578
0.000263078
0.000264493
0.000208546
0.000231406
0.000232943
0.000236284
0.000222973
0.000231177
0.000237537
0.000239209
0.00024464
0.000245351
0.000244523
0.000250703
0.000257215
0.000258868
0.000406174
0.00140543
0.000289041
0.000216723
0.000173259
0.000271406
0.000277768
0.000268612
4.19289e-05
0.000433095
0.000286367
0.000305456
0.000314013
0.000297714
0.000292523
0.000302444
0.000324953
0.000323742
0.000330737
0.000282262
0.000279568
0.000274457
0.000276211
0.000335736
0.000336239
0.000270307
0.000274626
0.000273293
0.000267092
0.000270015
0.000256444
0.000256949
0.000261933
0.000265875
0.000265957
0.000228176
0.000230162
0.000235847
0.000226179
0.000229601
0.000239316
0.000242591
0.000246396
0.000244842
0.000245335
0.000248248
0.000256192
0.000258258
0.000259455
0.000474841
0.000933711
0.00025079
0.000210188
0.000228149
0.000267468
0.000275922
0.000262927
0.000263664
0.000262432
9.4594e-05
0.000542102
0.000285547
0.000290701
0.000311114
0.000320158
0.000302201
0.000297057
0.000292652
0.000309512
0.000331739
0.000328122
0.000282178
0.000281135
0.000279334
0.000346344
0.000342393
0.000341714
0.000272685
0.00027683
0.000276056
0.00026894
0.000271991
0.000257603
0.000258736
0.000264056
0.000268286
0.000268347
0.000227414
0.000226276
0.00022798
0.00023251
0.000238437
0.000226611
0.000228431
0.000240029
0.000242144
0.000247604
0.000247166
0.000247537
0.000250605
0.000257723
0.000259854
0.000259086
0.000354965
0.00071604
0.000214101
0.000276592
0.000219984
0.000179204
0.000267131
0.0002618
0.000282561
0.000261769
0.00026107
0.000262194
4.99922e-05
0.000253342
0.000289839
0.000293659
0.000318821
0.000312721
0.00032673
0.000307936
0.000302286
0.000296985
0.000312479
0.00034026
0.000337328
0.000285525
0.000284475
0.000280406
0.000345332
0.000347556
0.000274891
0.000279206
0.00027839
0.000271345
0.00027437
0.000259498
0.000262292
0.000267252
0.000269934
0.000268636
0.000225002
0.000226252
0.000228703
0.000231466
0.000238788
0.000225962
0.000225963
0.000242967
0.000244453
0.000249157
0.000249102
0.000247705
0.000255543
0.000260538
0.00026048
0.000260516
0.000437321
0.00138298
0.000210365
0.000245277
0.000218568
0.000197174
0.000262649
0.000259219
0.000270674
0.000247857
0.000260594
0.000259706
0.000261584
1.2273e-05
0.000478367
0.000289099
0.000293743
0.000297198
0.000323833
0.000320043
0.000333322
0.000309932
0.000301225
0.00030828
0.000318949
0.000347725
0.000341672
0.000339613
0.000287341
0.000284674
0.000357332
0.000354099
0.000355304
0.000277696
0.000281926
0.000281567
0.000273106
0.000276609
0.000263417
0.0002648
0.000268984
0.000272072
0.000271227
0.000222303
0.000224519
0.000227637
0.00023518
0.000240961
0.000223626
0.000222513
0.00024535
0.000243661
0.000250701
0.00025222
0.000250457
0.000258433
0.000262414
0.000260601
0.000263907
0.000353664
0.000730049
0.00021657
0.000267053
0.000220597
8.20245e-05
0.000259097
0.000257491
0.000265665
0.000267058
0.00026053
0.000258796
0.000263084
0.000262162
0.00060546
0.000292042
0.000297733
0.000300451
0.00033065
0.00032317
0.000334433
0.000317702
0.000303748
0.000314773
0.00032179
0.000353613
0.000349156
0.000345381
0.000287439
0.000291427
0.000284999
0.000361514
0.000358816
0.000279982
0.000284951
0.000275728
0.00027924
0.000266344
0.000268388
0.000271094
0.000273408
0.000273223
0.000220735
0.000224576
0.000230583
0.000235197
0.000243626
0.000219316
0.000218967
0.00024958
0.000249612
0.000252933
0.00025279
0.00025731
0.000252215
0.000262621
0.000264158
0.00026347
0.000265314
0.000265958
0.00042669
0.00130119
0.000209718
0.000236086
0.000217475
4.71396e-05
0.000255875
0.000257735
0.000255991
0.000265847
0.000253971
0.000147259
0.000277941
0.000260041
0.000259064
0.000262765
0.000261358
0.000767713
0.000280825
0.000297055
0.000299603
0.000301833
0.000335153
0.000331732
0.000342126
0.000320404
0.000309907
0.000314862
0.00032929
0.000354116
0.000358754
0.00034988
0.000346622
0.000291595
0.000295452
0.000288827
0.000363592
0.000362629
0.000283537
0.000285237
0.000288797
0.000277491
0.000282321
0.000270517
0.000270945
0.000273428
0.000276247
0.000275942
0.000219281
0.000221602
0.000228521
0.000231644
0.000240204
0.000244452
0.00024919
0.000215128
0.000219656
0.000253946
0.000253487
0.00025791
0.000257839
0.000262749
0.000258501
0.0002658
0.00026699
0.000268099
0.000269478
0.000314875
0.000806884
0.000214045
0.000210334
0.000251477
0.000215652
0.000214466
0.000254193
0.000257381
0.000255776
0.000256312
0.000252389
0.000149879
0.000280701
0.000260583
0.000258794
0.000261959
0.000261087
0.000498676
0.000213544
0.000299088
0.000306953
0.000308403
0.000341216
0.000333844
0.000327545
0.000312582
0.00032084
0.000332025
0.000358305
0.000360991
0.000354306
0.000350785
0.000292276
0.00029559
0.000367251
0.000364724
0.000285553
0.000289413
0.000292229
0.000280832
0.000282745
0.000285595
0.00027346
0.000273622
0.000276084
0.000277868
0.000217072
0.000221501
0.00023174
0.000237205
0.000240854
0.000249937
0.000253115
0.000214307
0.000210503
0.00025383
0.000259641
0.000258428
0.00026099
0.000259989
0.000262314
0.000267289
0.00026843
0.000270118
0.000270766
0.000272988
0.000428287
0.00106862
0.000208511
0.000208773
0.00022934
0.000208978
0.000207437
0.000253876
0.000256688
0.000258004
0.000255357
0.000250249
0.000254108
0.000252801
0.000197809
0.000148808
0.000273469
0.000263896
0.000260033
0.000259357
0.000263717
0.000262164
0.000260708
0.000459206
0.000305741
0.00030976
0.000310912
0.00034494
0.00033974
0.000330592
0.000317899
0.00032798
0.00033706
0.000358128
0.000361223
0.000363838
0.000354237
0.000351961
0.000297075
0.000299897
0.000368144
0.00036727
0.000288951
0.0002926
0.000297551
0.000282751
0.000286632
0.000288311
0.000277396
0.000276613
0.000279466
0.000281145
0.000220989
0.000206474
0.000229304
0.000235416
0.000238925
0.000247778
0.000254405
0.000258337
0.000224787
0.000214336
0.000260782
0.000265472
0.000261016
0.000266157
0.000264258
0.00026645
0.000271155
0.000272223
0.000273787
0.000275382
0.000276346
0.000336125
0.000400091
0.000211841
0.000205307
0.000255797
0.000203802
0.0002269
0.000254619
0.000256545
0.000257769
0.000255871
0.000250164
0.000249627
0.00025287
0.000208558
0.000126605
0.00027968
0.000257482
0.000260072
0.00025898
0.000262967
0.000261346
0.00034183
0.000307442
0.000315378
0.000317907
0.00034436
0.000350529
0.000340366
0.00033743
0.000321609
0.000331837
0.000339664
0.000359995
0.000362937
0.000364678
0.000356599
0.000355288
0.000301033
0.000299625
0.000305517
0.000369983
0.000368284
0.00029072
0.000297894
0.000301268
0.000285918
0.000289122
0.00028064
0.000278514
0.00027985
0.000282973
0.00028339
0.000246599
0.000245609
0.00022883
0.000231429
0.000255474
0.000269225
0.000263814
0.000265306
0.000153127
0.000215258
0.000265792
0.000271504
0.000270603
0.000268663
0.000272032
0.000272261
0.00027374
0.000273406
0.000277834
0.000278617
0.000277092
0.000280237
0.000341021
0.000396481
0.00020785
0.000204505
0.000239859
0.000207621
0.000219709
0.000254443
0.000257055
0.000258296
0.000255606
0.000249399
0.000252202
0.000248255
0.000249358
0.000253803
0.00017125
0.000255878
0.000179983
0.000259768
0.000259351
0.000263033
0.000261377
0.000480927
0.000313901
0.000319285
0.000319499
0.000347702
0.000352049
0.000344039
0.00033941
0.000329023
0.000337227
0.000343349
0.000359088
0.000362386
0.000363497
0.000366445
0.000356244
0.000306306
0.000306341
0.00030895
0.000372076
0.000370634
0.000367854
0.000369991
0.000295686
0.000299332
0.000306741
0.000288762
0.000293691
0.000284842
0.000283193
0.000284057
0.000285884
0.000287389
0.000197273
0.00027342
0.00022452
0.0002291
0.000248737
0.00026507
0.000290803
0.000285592
0.000273613
0.000156782
0.000156391
0.000273968
0.000278751
0.000276233
0.000275383
0.00028123
0.00027718
0.000274659
0.000278696
0.000278541
0.00028185
0.000282012
0.000281566
0.00028363
0.000295511
0.000364703
0.000207216
0.000202133
0.000254829
0.000221644
0.00023093
0.000200703
0.00025496
0.000257038
0.00025833
0.000256019
0.000250626
0.000252158
0.000247837
0.000247108
0.000253791
0.000160216
0.00025986
0.000153177
0.000251339
0.000259811
0.000264686
0.000262257
0.000263906
0.000260832
0.00043129
0.000312897
0.000318503
0.000325649
0.000326061
0.000347129
0.000351188
0.000354739
0.000343487
0.000332202
0.000339347
0.000345141
0.000360212
0.000363297
0.000365752
0.000366736
0.000358691
0.000308922
0.000309093
0.000373023
0.000369003
0.000370533
0.000297406
0.000305308
0.000310183
0.000293577
0.000295775
0.000288897
0.000286202
0.000286751
0.000289824
0.00029074
2.22649e-05
0.000123761
3.17951e-06
0.000270524
0.000310836
0.000232139
0.000268998
0.000289285
0.000299545
0.000292595
0.000121816
0.000257548
0.000280918
0.000287498
0.000285714
0.000282273
0.000288403
0.000283092
0.00028022
0.000282205
0.000282603
0.000286775
0.00028644
0.000284205
0.000288104
0.000318213
0.000463859
0.000202623
0.000201029
0.000259459
0.000217867
0.000218836
0.00020232
0.000255015
0.000256645
0.00025777
0.0002591
0.000255604
0.000251692
0.000250164
0.000252818
0.0002492
0.00024658
0.000245847
0.000253425
0.000254483
0.00018097
0.000253393
0.000242362
0.000168003
0.000249224
0.000259711
0.000262456
0.000264105
0.000261043
0.000621866
0.00031684
0.000324015
0.000329617
0.000331273
0.000349073
0.000352134
0.000355054
0.00034393
0.000345444
0.000337709
0.000342556
0.000348236
0.00036246
0.000360192
0.000365097
0.000366032
0.000368074
0.000359237
0.000314646
0.000314279
0.000372254
0.000370271
0.000302591
0.000306373
0.000309994
0.000315365
0.000297158
0.00030153
0.000294007
0.00029153
0.000291067
0.000293875
0.000295682
2.16586e-05
0.000201101
0.000221059
0.000230047
0.000492281
0.00027195
0.000270865
0.000314458
0.000255147
0.000304491
0.000330662
0.000302182
0.000150871
1.80528e-05
0.0024202
0.000290504
0.000296212
0.000299209
0.000290243
0.000296901
0.000284333
0.000290378
0.000287972
0.000287332
0.000293066
0.000289899
0.000287999
0.000290788
0.000302362
0.000461929
0.000201932
0.000198871
0.000239662
0.000208149
0.000229161
0.000257073
0.000257952
0.000259193
0.000256178
0.000251778
0.000250178
0.000252477
0.00024895
0.000246639
0.000244875
0.000253763
0.000254448
0.000146454
0.000251335
0.000253635
0.000124192
0.00024492
0.0002604
0.000266018
0.000261768
0.000263383
0.000265153
0.00074214
0.000360247
0.000322625
0.000329255
0.000333959
0.000334462
0.000351341
0.000353849
0.000357186
0.000345873
0.000347438
0.000338762
0.000343752
0.000348828
0.000363143
0.000361971
0.000366182
0.000367283
0.000368664
0.000358689
0.000361104
0.000317028
0.000316745
0.000380779
0.000374292
0.000371927
0.000304388
0.000311163
0.000314883
0.0003192
0.000302137
0.000303733
0.000297693
0.000294717
0.00029452
0.000294955
0.000298651
0.000300103
0.000485444
0.000913099
0.00234098
0.00160631
0.00219373
4.7452e-05
2.29175e-05
0.000630152
5.232e-05
0.000289449
0.000326424
0.000333386
9.08144e-05
6.70865e-05
0.000527547
0.00384763
0.000305933
0.000318223
0.000298183
0.000307816
0.000291428
0.000295584
0.0002936
0.000289552
0.000292575
0.000298456
0.000295709
0.000296145
0.00033353
0.000536453
0.000197141
0.00019736
0.000239544
0.000201252
0.000205883
0.000256967
0.000257754
0.000258718
0.000259924
0.000255958
0.000251555
0.000249387
0.000250832
0.000252729
0.000248147
0.000245581
0.000243387
0.000253491
0.000255204
0.000174181
0.000247704
0.000232023
4.28975e-05
0.000243596
0.000260547
0.000267355
0.000262146
0.000263723
0.000265641
0.000817282
0.00032901
0.000325373
0.000332848
0.00033658
0.000337852
0.000352438
0.000354895
0.000356714
0.000347602
0.000345533
0.000348159
0.000341387
0.00034322
0.000350459
0.000364925
0.000362095
0.000368375
0.000368948
0.000371674
0.000359932
0.000361168
0.00032184
0.000322516
0.000377787
0.000375191
0.000308883
0.000311963
0.000315116
0.000319319
0.000323447
0.000305848
0.000309174
0.000302913
0.000299187
0.000299305
0.000300155
0.000302057
0.00030323
0.000305322
0.00308039
0.00168953
0.00339044
0.00289774
0.0119329
6.50971e-06
0.00238275
0.00728129
0.00184079
8.46338e-05
9.23186e-05
0.000337468
0.000330191
0.000117486
0.00134629
0.0138054
0.0303816
0.000328553
0.000332559
0.000307974
0.000319612
0.000294861
0.000303073
0.000300177
0.000297022
0.000297658
0.0003045
0.00029819
0.000298962
0.00029562
0.000650795
0.000425027
0.000194208
0.000196118
0.000209278
0.00021665
0.000221147
0.000257622
0.000258299
0.000258891
0.00026017
0.000256508
0.000252155
0.000249237
0.000250742
0.000252824
0.00024786
0.000246567
0.000243533
0.00025406
0.000255172
0.00010134
0.000243478
0.000244827
0.00025576
0.000241972
0.000261442
0.000270179
0.000267828
0.000263116
0.000264843
0.000266961
0.000587543
0.00016931
0.000325068
0.000330918
0.000333039
0.000336384
0.000339381
0.000339779
0.000354259
0.000351903
0.000357594
0.000348604
0.000346614
0.000349939
0.000341584
0.000343828
0.000365477
0.000363538
0.000372653
0.000371775
0.000374633
0.000359266
0.000362156
0.000324323
0.00038385
0.000390279
0.000382228
0.000311105
0.000316758
0.000319042
0.000323818
0.000326742
0.000309869
0.000303796
0.00030724
0.000304718
0.000305883
0.000306517
0.000309267
0.000310037
0.00710471
0.00192708
0.00621983
0.0382239
0.00223579
0.0463324
0.00094757
0.0128659
0.024468
0.00581015
0.000166892
0.000223446
0.000350903
0.000356562
8.45153e-05
0.00766008
0.000118769
0.0336214
0.0648722
0.000349706
0.0003553
0.000321629
0.000314377
0.000344112
0.000307177
0.000301686
0.000306724
0.000308017
0.000308801
0.000307893
0.00030524
0.000304736
0.000293937
0.000642045
0.000397073
0.000193565
0.000188731
0.000206564
0.000214483
0.000208301
0.000258331
0.00025775
0.000259569
0.000260983
0.000257329
0.000256451
0.000252209
0.000249952
0.000248278
0.000251431
0.000253544
0.000246029
0.000244968
0.000242096
0.000254786
0.000255891
9.64539e-05
0.000241191
0.000240988
0.000248727
0.000192063
0.00024064
0.000261647
0.000271908
0.000269177
0.000263643
0.000265592
0.000267996
0.000559033
6.62331e-05
0.000329197
0.000331891
0.000335587
0.000337878
0.000340342
0.000355455
0.000353186
0.000357105
0.000350144
0.000348135
0.000346304
0.000350812
0.000342592
0.000345173
0.000369656
0.000363538
0.000378287
0.000375767
0.000376809
0.000380567
0.000359481
0.000364353
0.000328454
0.00039779
0.000388931
0.000315752
0.000319711
0.000323507
0.000327346
0.000330019
0.000313424
0.000309657
0.000312709
0.000307757
0.000310502
0.000312384
0.000313448
0.00031408
0.0149171
0.00595814
0.0116628
0.0461965
0.0108855
0.0118715
0.00560513
0.00613277
0.0337056
0.0315916
0.011149
0.000827905
0.000530018
0.0025026
0.000385362
0.000141437
0.0075845
4.10975e-05
0.0804329
0.114195
0.000372597
0.000376902
0.000349599
0.000346685
0.000361015
0.000314621
0.000309242
0.000312196
0.000315937
0.000315319
0.000316583
0.000307966
0.000236211
0.000468278
0.000659391
0.000270154
0.000188723
0.000197873
0.000197156
0.000214817
0.000259012
0.00025863
0.000259723
0.000261563
0.000257643
0.000257072
0.000253046
0.000249723
0.000248059
0.000251806
0.000254
0.000246651
0.000244945
0.000241955
0.000255266
0.000255914
0.000238361
0.000243766
0.000215572
0.000239639
0.000262834
0.000271941
0.000270374
0.000264978
0.000263638
0.000267223
0.000269773
0.000722214
0.000254959
0.000119181
0.000333777
0.000335514
0.000337592
0.000339687
0.000341995
0.000354787
0.000352409
0.000357958
0.000350556
0.000348874
0.000347242
0.000342946
0.000345377
0.000373867
0.000369403
0.00036667
0.000386312
0.000386038
0.000381661
0.000387438
0.000362049
0.000365823
0.000330445
0.000401686
0.000398374
0.000398086
0.000317674
0.000322741
0.000325065
0.000329774
0.000331863
0.00031708
0.000314067
0.000317136
0.000314618
0.00031555
0.000316382
0.000319008
0.000317536
0.0356265
0.0435929
0.139774
0.0461554
0.00914681
0.0156302
0.0259601
0.0756635
0.060266
0.029025
0.0036855
0.000513313
0.00318244
0.000401506
0.000107227
0.0444277
0.000218314
3.49554e-06
0.0817791
0.213756
0.000384613
0.000402523
0.000356659
0.000356618
0.000375182
0.000345024
0.000313845
0.000319641
0.000338549
0.000318556
0.00031931
0.000321381
0.000314712
0.000397138
0.000568589
0.000220351
0.000185632
0.000198247
0.000189805
0.000210569
0.000259254
0.000258948
0.000260506
0.000262656
0.000261313
0.000258377
0.000257332
0.00025378
0.000253335
0.000250431
0.000248974
0.000247572
0.00025287
0.000251311
0.000254971
0.00024594
0.000244392
0.000243278
0.000240268
0.000256655
0.000237678
0.000237159
0.000242968
0.000238306
0.000275336
0.000273706
0.000265597
0.000264732
0.00026789
0.000270859
0.000524049
0.000210493
0.00011098
0.000334399
0.000336742
0.000338459
0.000340365
0.00034241
0.000355405
0.000352729
0.000357383
0.000350057
0.000351809
0.000348399
0.000346486
0.000344529
0.0003806
0.000375603
0.000389343
0.000392436
0.000389971
0.000390904
0.000394996
0.000365516
0.000364243
0.000373502
0.000333547
0.000397066
0.00039729
0.00039923
0.000322463
0.000324657
0.000328086
0.00033177
0.000330657
0.000333922
0.000320349
0.000318778
0.000321908
0.00031791
0.000319522
0.000321276
0.000322448
0.000320188
0.000320859
0.0606557
0.0673485
0.226963
0.130019
0.03444
0.031394
0.0473079
0.0634068
0.0968781
0.0862991
0.053937
0.0872974
0.0268444
0.000377736
0.000462608
0.0107913
0.000159938
0.0319251
1.12982e-05
4.56033e-06
0.132201
0.194796
0.000395722
0.000411524
0.000375485
0.000378234
0.000381948
0.000357964
0.000324398
0.000326868
0.000350287
0.000334443
0.000324694
0.000325908
0.000327997
0.000261502
0.000420897
0.000562491
0.00018861
0.000184909
0.000186865
0.000192271
0.000210653
0.000199922
0.000260261
0.000259856
0.000260862
0.000263686
0.000262188
0.0002589
0.000258314
0.000254508
0.000254168
0.00024985
0.000249121
0.000248244
0.000253569
0.000251982
0.000255592
0.000246281
0.000244919
0.000242859
0.000240064
0.000256933
0.000237177
0.000234456
0.000239295
0.000246535
0.000277659
0.000274437
0.000266918
0.000265165
0.000269671
0.000273177
0.000270937
0.000514337
0.000134112
0.000186769
0.000336109
0.00033803
0.000339735
0.000341655
0.000343681
0.000355681
0.000354286
0.000359155
0.000350747
0.00035194
0.000349303
0.00034634
0.000344514
0.000381646
0.000388725
0.000377684
0.00039569
0.000396746
0.000396102
0.00040039
0.000370785
0.00036216
0.000372128
0.000375722
0.000334406
0.000395142
0.00039806
0.000323362
0.000324908
0.00032819
0.000330351
0.000333062
0.000332667
0.000334439
0.000322806
0.000326458
0.000323635
0.000324421
0.000325273
0.000327058
0.000324474
0.0003245
0.10785
0.108777
0.269607
0.237804
0.0322897
0.0616005
0.0628069
0.0654557
0.10973
0.108379
0.0813205
0.100069
0.0430492
0.000756654
0.0004954
0.0105556
0.0311623
5.30362e-05
0.0136286
0.0216516
1.13014e-05
0.085617
0.157502
0.000410664
0.00040048
0.000384236
0.000382786
0.000389855
0.000373835
0.000334793
0.000362247
0.000349133
0.000326789
0.000328472
0.000330452
0.000335627
0.000229958
0.000326515
0.000537154
0.000178672
0.000179615
0.000184069
0.000192398
0.000197151
0.000190321
0.000260501
0.000260481
0.000261734
0.000264874
0.000263282
0.000260003
0.000258537
0.000255322
0.000254862
0.000250319
0.000248279
0.000254625
0.000253108
0.000251555
0.000256566
0.000246031
0.000247545
0.000244781
0.000243649
0.000241662
0.000238783
0.000257932
0.000235988
0.00023183
0.000234321
0.00024341
0.000232477
0.000279481
0.00027752
0.000267663
0.000266813
0.000270439
0.000274256
0.000272802
0.000669091
0.000250182
6.93783e-05
0.000191114
0.000336455
0.000338802
0.000340154
0.000341965
0.000343579
0.000357685
0.000355167
0.000350648
0.000353354
0.000348859
0.000347234
0.000345313
0.000389827
0.000393686
0.000386786
0.000396341
0.000398692
0.000396301
0.000395288
0.000374762
0.000366524
0.00037223
0.000384094
0.000335737
0.000380302
0.000387372
0.000326506
0.000328391
0.000329678
0.000331587
0.000334196
0.00033331
0.000335465
0.000327526
0.000331116
0.000327009
0.000328214
0.000329737
0.000329821
0.0003284
0.000327452
0.000327158
0.154243
0.132716
0.273764
0.222686
0.106753
0.0213771
0.132409
0.1005
0.105927
0.113616
0.117958
0.0729858
0.104795
0.00150995
0.000213334
0.000499817
0.0330143
0.0699647
8.81618e-05
0.00667815
0.0429501
0.00602746
0.00019273
0.0861654
0.208318
0.000413297
0.000407325
0.00039057
0.000383763
0.00039496
0.000370017
0.000347658
0.000358384
0.000331308
0.000333731
0.000336615
0.000341843
0.000191402
0.000310208
0.000588849
0.000395527
0.000170972
0.000179583
0.000185277
0.000188127
0.000196674
0.000114145
0.000261662
0.000261516
0.000262369
0.000266148
0.000264196
0.000260607
0.000259648
0.000256105
0.00025592
0.00025033
0.000249449
0.000255585
0.000253731
0.000252097
0.000257238
0.000247063
0.000248017
0.000245943
0.000244482
0.00024117
0.000239457
0.000258524
0.000236929
0.000231204
0.000232859
0.00023892
0.000228186
0.000281975
0.000279572
0.000277975
0.000269404
0.000267442
0.000272463
0.000276428
0.000273763
0.00053171
0.000251497
9.03351e-05
0.000222732
0.000337571
0.00033982
0.000338438
0.00034131
0.000342889
0.000344222
0.000360119
0.000358409
0.000352321
0.000354436
0.000350439
0.000348382
0.000347188
0.000345068
0.00039169
0.000397062
0.000388798
0.000394301
0.000391982
0.00039414
0.000393763
0.000386466
0.000383163
0.000365479
0.000377446
0.000336039
0.000376981
0.000372452
0.000328856
0.000330353
0.00033141
0.000332921
0.000334734
0.000334231
0.000335433
0.000330704
0.000335668
0.000332045
0.000332727
0.000332865
0.000332299
0.000331669
0.000330254
0.000329634
0.163029
0.119145
0.26953
0.0890252
0.0282634
0.144098
0.128411
0.128668
0.111499
0.127615
0.0874753
0.104039
0.00266567
0.000150323
0.00042883
0.0691717
0.0203727
5.3233e-05
6.15884e-05
0.00192992
0.0313661
0.0025661
0.0974299
0.212194
0.00043076
0.000407223
0.000401118
0.000394791
0.000370966
0.000391511
0.000361954
0.000351033
0.000354932
0.000335205
0.000338484
0.000342964
0.000349004
0.000181013
0.000235204
0.000529839
0.000328686
0.000167431
0.000175085
0.00018304
0.000189128
0.000142476
7.69827e-05
0.00026243
0.000262492
0.000263723
0.000266615
0.000265739
0.000260452
0.000262089
0.000259521
0.000257066
0.000256969
0.000251363
0.000249774
0.000256829
0.000255677
0.0002531
0.000254934
0.000258239
0.000247097
0.000249081
0.000246033
0.000244067
0.000242181
0.000238797
0.000236111
0.000229482
0.00023378
0.000229422
0.000239312
0.000227632
0.000284543
0.000282994
0.000280581
0.000270318
0.000269109
0.000273607
0.000277594
0.00027633
0.000606659
0.000135467
6.34304e-05
0.000221412
0.000337625
0.000340328
0.000338897
0.000341183
0.000343045
0.000343833
0.000361177
0.000360657
0.000354087
0.000357926
0.000349297
0.000352643
0.000348816
0.000345963
0.000395202
0.000394857
0.000394807
0.000390296
0.000380562
0.000380412
0.000391193
0.000373939
0.000387817
0.000370308
0.000375807
0.000386048
0.000336993
0.000368943
0.000366253
0.000330523
0.000331739
0.000332281
0.000333322
0.000334693
0.000334592
0.00033589
0.000334996
0.000336273
0.00033786
0.000335507
0.000335118
0.00033442
0.000333036
0.000331949
0.000331135
0.164138
0.170438
0.227094
0.146068
0.0153985
0.0795976
0.168235
0.148735
0.132837
0.136947
0.125305
0.116591
0.112723
0.00129578
0.000462427
0.000447617
0.0976137
0.0360018
0.000607247
0.000407649
0.000360284
0.000838814
0.0238252
0.0607583
0.00120528
0.0117186
0.176746
0.23834
0.000405594
0.000403299
0.000401618
0.000373105
0.000391296
0.000359642
0.000355168
0.000339757
0.000343344
0.000347494