/*--------------------------------*- C++ -*----------------------------------*\
| =========                 |                                                 |
| \\      /  F ield         | OpenFOAM: The Open Source CFD Toolbox           |
|  \\    /   O peration     | Version:  v2012                                 |
|   \\  /    A nd           | Website:  www.openfoam.com                      |
|    \\/     M anipulation  |                                                 |
\*---------------------------------------------------------------------------*/
FoamFile
{
    version     2.0;
    format      ascii;
    class       volScalarField;
    location    "1.5";
    object      nut;
}
// * * * * * * * * * * * * * * * * * * * * * * * * * * * * * * * * * * * * * //

dimensions      [0 2 -1 0 0 0 0];


internalField   nonuniform List<scalar> 
13611
(
1.80553e-05
1.94233e-05
1.63942e-05
1.96837e-05
1.56236e-05
1.14072e-05
2.02544e-05
1.75399e-05
1.14018e-05
1.39561e-05
1.09194e-05
1.93241e-05
1.71242e-05
1.68051e-05
1.14116e-05
1.34815e-05
1.12182e-05
1.16157e-05
2.00088e-05
1.71954e-05
1.81657e-05
1.14415e-05
1.14509e-05
1.14409e-05
1.12393e-05
1.13747e-05
1.96916e-05
1.45959e-05
1.67648e-05
1.13895e-05
1.14538e-05
1.14561e-05
1.14013e-05
1.1225e-05
1.17351e-05
1.92842e-05
1.60173e-05
1.79502e-05
1.13886e-05
1.14137e-05
1.14717e-05
1.14285e-05
1.1298e-05
1.13046e-05
1.97442e-05
1.52433e-05
1.65185e-05
1.92148e-05
1.13947e-05
1.13776e-05
1.14036e-05
1.14343e-05
1.14514e-05
1.13075e-05
1.12823e-05
1.10581e-05
1.76992e-05
1.26869e-05
1.7832e-05
1.93333e-05
1.13999e-05
1.14067e-05
1.14039e-05
1.14277e-05
1.14501e-05
1.14791e-05
1.14414e-05
1.14342e-05
1.13033e-05
1.11167e-05
1.782e-05
1.21553e-05
1.64497e-05
1.92533e-05
1.14229e-05
1.14456e-05
1.14025e-05
1.14128e-05
1.14047e-05
1.14692e-05
1.14452e-05
1.145e-05
1.13506e-05
1.14149e-05
1.10245e-05
1.4646e-05
1.12774e-05
1.73906e-05
1.97819e-05
1.1479e-05
1.14726e-05
1.14161e-05
1.14334e-05
1.14008e-05
1.15022e-05
1.1478e-05
1.14164e-05
1.14749e-05
1.1432e-05
1.14385e-05
1.12091e-05
1.47308e-05
1.10994e-05
1.84851e-05
1.87404e-05
1.14944e-05
1.15092e-05
1.14254e-05
1.14927e-05
1.14042e-05
1.15434e-05
1.15796e-05
1.14417e-05
1.14185e-05
1.14735e-05
1.14688e-05
1.14377e-05
1.14885e-05
1.12471e-05
1.27128e-05
1.12999e-05
1.11418e-05
1.61124e-05
2.02622e-05
1.9517e-05
1.1535e-05
1.15537e-05
1.14824e-05
1.15153e-05
1.14059e-05
1.16335e-05
1.14643e-05
1.14768e-05
1.14567e-05
1.14675e-05
1.16041e-05
1.15247e-05
1.34754e-05
1.11326e-05
1.12329e-05
1.79502e-05
2.08769e-05
1.72146e-05
1.15793e-05
1.1573e-05
1.15849e-05
1.15066e-05
1.15526e-05
1.142e-05
1.16357e-05
1.16869e-05
1.14749e-05
1.14851e-05
1.14641e-05
1.1467e-05
1.15656e-05
1.15748e-05
1.18839e-05
1.12472e-05
1.11507e-05
1.15032e-05
1.1192e-05
1.6026e-05
2.01325e-05
1.87292e-05
1.15709e-05
1.16311e-05
1.16517e-05
1.15006e-05
1.15519e-05
1.14417e-05
1.14626e-05
1.17019e-05
1.17588e-05
1.15268e-05
1.1533e-05
1.14728e-05
1.15044e-05
1.14471e-05
1.16051e-05
1.1631e-05
1.50149e-05
1.1228e-05
1.1251e-05
1.15114e-05
1.13382e-05
1.79776e-05
2.12208e-05
1.16212e-05
1.16643e-05
1.16555e-05
1.17084e-05
1.15537e-05
1.15829e-05
1.14628e-05
1.14748e-05
1.17657e-05
1.18244e-05
1.15309e-05
1.15192e-05
1.14603e-05
1.14192e-05
1.15532e-05
1.16452e-05
1.46927e-05
1.12523e-05
1.12734e-05
1.13608e-05
1.14755e-05
1.15903e-05
2.05486e-05
1.5941e-05
1.79761e-05
1.16236e-05
1.17301e-05
1.17151e-05
1.1788e-05
1.15689e-05
1.15933e-05
1.14952e-05
1.15347e-05
1.18408e-05
1.19026e-05
1.15661e-05
1.15393e-05
1.13988e-05
1.14639e-05
1.15231e-05
1.17079e-05
1.23947e-05
1.11876e-05
1.13726e-05
1.14076e-05
1.14838e-05
1.15505e-05
2.14037e-05
1.82037e-05
1.64281e-05
1.16597e-05
1.17507e-05
1.17881e-05
1.17458e-05
1.18544e-05
1.16275e-05
1.16357e-05
1.15484e-05
1.15651e-05
1.1912e-05
1.15817e-05
1.15284e-05
1.13879e-05
1.14708e-05
1.15989e-05
1.14081e-05
1.17032e-05
1.16363e-05
1.32762e-05
1.11183e-05
1.13573e-05
1.14892e-05
1.14705e-05
1.14026e-05
1.14326e-05
2.14914e-05
1.84023e-05
1.6091e-05
1.17175e-05
1.18109e-05
1.18454e-05
1.1818e-05
1.1751e-05
1.19493e-05
1.16584e-05
1.1655e-05
1.15749e-05
1.15704e-05
1.1631e-05
1.19894e-05
1.15984e-05
1.15739e-05
1.14261e-05
1.15421e-05
1.15595e-05
1.14326e-05
1.17279e-05
1.16313e-05
1.20869e-05
1.12223e-05
1.13513e-05
1.14622e-05
1.15466e-05
1.14944e-05
1.13868e-05
1.14885e-05
2.11364e-05
1.73816e-05
1.73209e-05
1.17452e-05
1.18467e-05
1.19251e-05
1.18581e-05
1.18192e-05
1.19772e-05
1.20172e-05
1.1715e-05
1.17153e-05
1.16073e-05
1.16196e-05
1.16555e-05
1.20907e-05
1.21333e-05
1.16089e-05
1.14728e-05
1.15863e-05
1.16478e-05
1.1475e-05
1.14592e-05
1.17978e-05
1.17618e-05
1.38872e-05
1.10351e-05
1.14156e-05
1.15449e-05
1.1549e-05
1.14296e-05
1.14019e-05
1.15001e-05
2.03655e-05
1.87031e-05
1.17968e-05
1.19404e-05
1.19834e-05
1.19276e-05
1.18347e-05
1.2091e-05
1.20965e-05
1.17419e-05
1.17444e-05
1.16262e-05
1.16416e-05
1.17134e-05
1.21619e-05
1.23011e-05
1.16418e-05
1.15622e-05
1.16396e-05
1.16406e-05
1.15144e-05
1.154e-05
1.18039e-05
1.17935e-05
1.29559e-05
1.13019e-05
1.12848e-05
1.15441e-05
1.15636e-05
1.15555e-05
1.14056e-05
1.13893e-05
1.16956e-05
2.20451e-05
1.57995e-05
2.15241e-05
1.18224e-05
1.1971e-05
1.20789e-05
1.19817e-05
1.1913e-05
1.21862e-05
1.21193e-05
1.22001e-05
1.17937e-05
1.17941e-05
1.1686e-05
1.17098e-05
1.17389e-05
1.23172e-05
1.23858e-05
1.16845e-05
1.16412e-05
1.16097e-05
1.16737e-05
1.1721e-05
1.15611e-05
1.1539e-05
1.16137e-05
1.18287e-05
1.31385e-05
1.13749e-05
1.10754e-05
1.15654e-05
1.15522e-05
1.15222e-05
1.14701e-05
1.15154e-05
1.17298e-05
1.73852e-05
1.75479e-05
2.26949e-05
1.18818e-05
1.20684e-05
1.21403e-05
1.19814e-05
1.20651e-05
1.19268e-05
1.2282e-05
1.22273e-05
1.23479e-05
1.18215e-05
1.18216e-05
1.17361e-05
1.1793e-05
1.25625e-05
1.17554e-05
1.16933e-05
1.16909e-05
1.17066e-05
1.17116e-05
1.15973e-05
1.16214e-05
1.16717e-05
1.18301e-05
1.17143e-05
1.13148e-05
1.15412e-05
1.11406e-05
1.11936e-05
1.15494e-05
1.15466e-05
1.15781e-05
1.15122e-05
1.15365e-05
1.16533e-05
1.18298e-05
1.57704e-05
2.05586e-05
1.56287e-05
1.88902e-05
1.13929e-05
1.18531e-05
1.1924e-05
1.214e-05
1.22313e-05
1.20706e-05
1.21561e-05
1.20136e-05
1.24497e-05
1.25111e-05
1.18925e-05
1.18802e-05
1.17919e-05
1.18224e-05
1.26609e-05
1.26574e-05
1.17497e-05
1.18208e-05
1.17199e-05
1.17678e-05
1.17816e-05
1.16413e-05
1.1617e-05
1.17094e-05
1.1716e-05
1.26678e-05
1.13797e-05
1.15525e-05
1.11466e-05
1.12247e-05
1.15826e-05
1.15734e-05
1.15841e-05
1.1616e-05
1.15143e-05
1.16504e-05
1.17191e-05
1.18438e-05
2.02732e-05
1.73792e-05
1.70133e-05
1.08377e-05
1.14888e-05
1.13378e-05
8.36022e-06
1.32014e-05
1.19971e-05
1.22707e-05
1.2386e-05
1.21575e-05
1.20773e-05
1.22648e-05
1.25479e-05
1.25732e-05
1.26589e-05
1.19183e-05
1.19095e-05
1.18186e-05
1.18777e-05
1.28558e-05
1.17866e-05
1.18685e-05
1.17855e-05
1.18183e-05
1.17732e-05
1.16787e-05
1.16942e-05
1.17954e-05
1.1792e-05
1.17926e-05
1.13639e-05
1.15005e-05
1.15871e-05
1.12554e-05
1.13048e-05
1.15879e-05
1.15905e-05
1.16371e-05
1.17061e-05
1.15915e-05
1.1718e-05
1.18337e-05
1.18292e-05
2.08825e-05
1.55519e-05
1.838e-05
1.28838e-05
1.02958e-05
1.13691e-05
1.15198e-05
1.13237e-05
5.35177e-06
1.21357e-05
1.20688e-05
1.23911e-05
1.25593e-05
1.22776e-05
1.21816e-05
1.23628e-05
1.27577e-05
1.27518e-05
1.28476e-05
1.2002e-05
1.19689e-05
1.18903e-05
1.19174e-05
1.29103e-05
1.29501e-05
1.18632e-05
1.19099e-05
1.1906e-05
1.18268e-05
1.18764e-05
1.17189e-05
1.1693e-05
1.1788e-05
1.18575e-05
1.18384e-05
1.14323e-05
1.15074e-05
1.16341e-05
1.12718e-05
1.13541e-05
1.16591e-05
1.16901e-05
1.17127e-05
1.16258e-05
1.17389e-05
1.16812e-05
1.18496e-05
1.18739e-05
1.18574e-05
1.96112e-05
1.64226e-05
1.62203e-05
1.21633e-05
1.11146e-05
1.13393e-05
1.14781e-05
1.12744e-05
1.12854e-05
1.12707e-05
8.41573e-06
1.24816e-05
1.20689e-05
1.21696e-05
1.2534e-05
1.27096e-05
1.23778e-05
1.22809e-05
1.22012e-05
1.25274e-05
1.28873e-05
1.2851e-05
1.20179e-05
1.20231e-05
1.19949e-05
1.30747e-05
1.30303e-05
1.304e-05
1.19085e-05
1.1974e-05
1.19726e-05
1.18861e-05
1.19354e-05
1.17489e-05
1.17548e-05
1.18577e-05
1.19194e-05
1.18887e-05
1.14295e-05
1.14819e-05
1.14897e-05
1.15821e-05
1.17092e-05
1.12276e-05
1.13369e-05
1.17144e-05
1.17147e-05
1.17479e-05
1.1711e-05
1.18053e-05
1.17583e-05
1.19007e-05
1.1898e-05
1.18303e-05
2.08346e-05
1.71546e-05
1.30665e-05
1.78608e-05
1.14894e-05
1.05945e-05
1.1337e-05
1.12888e-05
1.14985e-05
1.12707e-05
1.12759e-05
1.12739e-05
6.21292e-06
1.15614e-05
1.21876e-05
1.22553e-05
1.26976e-05
1.25867e-05
1.28436e-05
1.25202e-05
1.24227e-05
1.23162e-05
1.26121e-05
1.3036e-05
1.30192e-05
1.21097e-05
1.21028e-05
1.20383e-05
1.30684e-05
1.31039e-05
1.1978e-05
1.2025e-05
1.20423e-05
1.19393e-05
1.19836e-05
1.18143e-05
1.18379e-05
1.1931e-05
1.19436e-05
1.19441e-05
1.14759e-05
1.15376e-05
1.15444e-05
1.15995e-05
1.17668e-05
1.1287e-05
1.13655e-05
1.18062e-05
1.17822e-05
1.18192e-05
1.1751e-05
1.18398e-05
1.1873e-05
1.19551e-05
1.19249e-05
1.1885e-05
1.94543e-05
1.50598e-05
1.1987e-05
1.62389e-05
1.14282e-05
1.09974e-05
1.13005e-05
1.12788e-05
1.13688e-05
1.13334e-05
1.12725e-05
1.12726e-05
1.12794e-05
2.85794e-06
1.2873e-05
1.21883e-05
1.22757e-05
1.2338e-05
1.28211e-05
1.27544e-05
1.29761e-05
1.25797e-05
1.24131e-05
1.25598e-05
1.27569e-05
1.31174e-05
1.30625e-05
1.30682e-05
1.21854e-05
1.21495e-05
1.31513e-05
1.31385e-05
1.31548e-05
1.20438e-05
1.21047e-05
1.21138e-05
1.19956e-05
1.20565e-05
1.19053e-05
1.19144e-05
1.19868e-05
1.19907e-05
1.20138e-05
1.14682e-05
1.15434e-05
1.15691e-05
1.17052e-05
1.18288e-05
1.12595e-05
1.14178e-05
1.18396e-05
1.18592e-05
1.18608e-05
1.18431e-05
1.19122e-05
1.19554e-05
1.20097e-05
1.19115e-05
1.19676e-05
2.0168e-05
1.62532e-05
1.28914e-05
1.78544e-05
1.12861e-05
9.62054e-06
1.12781e-05
1.12759e-05
1.13355e-05
1.14213e-05
1.1277e-05
1.12766e-05
1.12923e-05
1.12901e-05
1.31778e-05
1.22759e-05
1.23833e-05
1.24218e-05
1.29597e-05
1.28311e-05
1.30003e-05
1.27568e-05
1.24896e-05
1.27166e-05
1.2831e-05
1.30889e-05
1.3093e-05
1.30988e-05
1.22062e-05
1.22788e-05
1.21762e-05
1.30668e-05
1.30483e-05
1.21162e-05
1.22092e-05
1.20533e-05
1.21188e-05
1.19911e-05
1.19936e-05
1.20315e-05
1.20369e-05
1.20509e-05
1.15389e-05
1.15912e-05
1.16634e-05
1.17541e-05
1.19215e-05
1.13527e-05
1.14505e-05
1.19488e-05
1.20305e-05
1.19483e-05
1.18865e-05
1.1954e-05
1.19833e-05
1.20425e-05
1.20343e-05
1.19927e-05
1.20253e-05
1.20021e-05
1.871e-05
1.48278e-05
1.22288e-05
1.65719e-05
1.12241e-05
9.66795e-06
1.12738e-05
1.12779e-05
1.1279e-05
1.13286e-05
1.12727e-05
1.09484e-05
1.14181e-05
1.12838e-05
1.12829e-05
1.12986e-05
1.1294e-05
1.33822e-05
1.28325e-05
1.23975e-05
1.2445e-05
1.24713e-05
1.30334e-05
1.29905e-05
1.30743e-05
1.28312e-05
1.2636e-05
1.27331e-05
1.29782e-05
1.30734e-05
1.30307e-05
1.30869e-05
1.30987e-05
1.23183e-05
1.23867e-05
1.22797e-05
1.29257e-05
1.29196e-05
1.22022e-05
1.22308e-05
1.22968e-05
1.21156e-05
1.22067e-05
1.20812e-05
1.20689e-05
1.20955e-05
1.21012e-05
1.21252e-05
1.15588e-05
1.15685e-05
1.16904e-05
1.17299e-05
1.19057e-05
1.19795e-05
1.20531e-05
1.13076e-05
1.16419e-05
1.20784e-05
1.21141e-05
1.20771e-05
1.20255e-05
1.2106e-05
1.2148e-05
1.2134e-05
1.21218e-05
1.20947e-05
1.21075e-05
2.02527e-05
1.53739e-05
1.34534e-05
1.15353e-05
1.82129e-05
1.12242e-05
1.12542e-05
1.12724e-05
1.12866e-05
1.1286e-05
1.12906e-05
1.12754e-05
1.05841e-05
1.1449e-05
1.12933e-05
1.12911e-05
1.13022e-05
1.12976e-05
1.30333e-05
1.205e-05
1.24658e-05
1.26232e-05
1.2629e-05
1.30863e-05
1.3032e-05
1.29728e-05
1.27105e-05
1.2867e-05
1.30282e-05
1.28891e-05
1.28643e-05
1.29633e-05
1.30295e-05
1.23542e-05
1.24074e-05
1.27373e-05
1.26593e-05
1.22647e-05
1.23486e-05
1.23949e-05
1.22008e-05
1.22331e-05
1.22796e-05
1.21714e-05
1.21232e-05
1.21474e-05
1.2161e-05
1.14678e-05
1.15428e-05
1.18456e-05
1.18631e-05
1.19213e-05
1.21436e-05
1.21896e-05
1.15339e-05
1.12394e-05
1.21005e-05
1.22087e-05
1.22655e-05
1.21886e-05
1.2107e-05
1.21207e-05
1.2203e-05
1.21838e-05
1.21905e-05
1.21841e-05
1.21859e-05
1.78099e-05
1.48052e-05
1.25975e-05
1.17213e-05
1.6717e-05
1.09986e-05
1.10397e-05
1.12851e-05
1.12894e-05
1.12928e-05
1.12914e-05
1.12716e-05
1.12801e-05
1.1287e-05
1.08877e-05
1.06852e-05
1.14329e-05
1.13541e-05
1.12982e-05
1.12991e-05
1.13231e-05
1.13168e-05
1.13061e-05
1.29284e-05
1.26264e-05
1.27035e-05
1.26995e-05
1.30484e-05
1.30665e-05
1.30139e-05
1.28233e-05
1.29967e-05
1.30786e-05
1.28492e-05
1.27753e-05
1.26663e-05
1.29362e-05
1.29369e-05
1.2481e-05
1.2523e-05
1.24631e-05
1.24324e-05
1.23494e-05
1.24221e-05
1.25217e-05
1.22636e-05
1.23411e-05
1.23572e-05
1.22623e-05
1.22063e-05
1.2244e-05
1.22418e-05
1.16051e-05
1.09991e-05
1.1815e-05
1.19226e-05
1.20072e-05
1.20857e-05
1.22826e-05
1.23259e-05
1.22616e-05
1.1601e-05
1.23106e-05
1.23828e-05
1.23636e-05
1.23266e-05
1.2222e-05
1.22525e-05
1.23068e-05
1.22865e-05
1.23076e-05
1.23007e-05
1.22858e-05
1.91626e-05
1.7203e-05
1.34628e-05
1.12899e-05
1.81081e-05
1.08396e-05
1.23125e-05
1.12937e-05
1.12992e-05
1.1301e-05
1.12997e-05
1.12869e-05
1.1272e-05
1.12988e-05
1.09829e-05
9.89837e-06
1.14926e-05
1.13263e-05
1.13044e-05
1.13061e-05
1.1326e-05
1.13177e-05
1.24627e-05
1.26792e-05
1.28276e-05
1.28461e-05
1.3057e-05
1.29703e-05
1.30683e-05
1.30643e-05
1.29042e-05
1.30383e-05
1.30577e-05
1.25906e-05
1.25549e-05
1.24144e-05
1.2724e-05
1.27587e-05
1.25648e-05
1.25567e-05
1.26495e-05
1.21675e-05
1.20188e-05
1.24105e-05
1.25576e-05
1.26271e-05
1.23395e-05
1.23946e-05
1.23633e-05
1.22705e-05
1.22723e-05
1.23223e-05
1.23137e-05
1.28935e-05
1.31893e-05
1.1853e-05
1.17973e-05
1.27828e-05
1.30934e-05
1.25378e-05
1.25437e-05
8.40456e-06
1.16896e-05
1.24284e-05
1.25266e-05
1.26324e-05
1.23622e-05
1.25083e-05
1.23964e-05
1.23473e-05
1.23814e-05
1.24057e-05
1.24017e-05
1.23247e-05
1.23734e-05
1.91817e-05
1.79412e-05
1.26112e-05
1.14661e-05
1.82791e-05
1.11488e-05
1.20573e-05
1.13034e-05
1.13045e-05
1.13081e-05
1.1309e-05
1.12926e-05
1.13035e-05
1.1287e-05
1.12766e-05
1.13073e-05
1.05495e-05
1.13727e-05
1.09311e-05
1.13637e-05
1.13112e-05
1.1345e-05
1.13315e-05
1.2987e-05
1.28223e-05
1.29012e-05
1.28865e-05
1.29457e-05
1.28189e-05
1.30059e-05
1.30306e-05
1.30255e-05
1.30548e-05
1.30093e-05
1.25648e-05
1.23332e-05
1.22884e-05
1.20994e-05
1.25428e-05
1.26892e-05
1.27137e-05
1.2737e-05
1.145e-05
1.17798e-05
1.1881e-05
1.16689e-05
1.25351e-05
1.26085e-05
1.27519e-05
1.24269e-05
1.2516e-05
1.24678e-05
1.23872e-05
1.23919e-05
1.24087e-05
1.24108e-05
1.03581e-05
1.45616e-05
1.2128e-05
1.17838e-05
1.25537e-05
1.29422e-05
1.37751e-05
1.34103e-05
1.27674e-05
8.6501e-06
8.56363e-06
1.26694e-05
1.27429e-05
1.27601e-05
1.25327e-05
1.27441e-05
1.25544e-05
1.24359e-05
1.24879e-05
1.25053e-05
1.25276e-05
1.2485e-05
1.24511e-05
1.24751e-05
2.09168e-05
1.9299e-05
1.27191e-05
1.11794e-05
2.01067e-05
1.52434e-05
1.26778e-05
1.08528e-05
1.13102e-05
1.13176e-05
1.13231e-05
1.13227e-05
1.13134e-05
1.13137e-05
1.12984e-05
1.12819e-05
1.13173e-05
1.03587e-05
1.14387e-05
1.03274e-05
1.13227e-05
1.13256e-05
1.13623e-05
1.13461e-05
1.13617e-05
1.13349e-05
1.2852e-05
1.28182e-05
1.29028e-05
1.29957e-05
1.29874e-05
1.29463e-05
1.28313e-05
1.26025e-05
1.29276e-05
1.30356e-05
1.30028e-05
1.2931e-05
1.22953e-05
1.19166e-05
1.18349e-05
1.17303e-05
1.22403e-05
1.27561e-05
1.27847e-05
1.08843e-05
1.12192e-05
1.11973e-05
1.25943e-05
1.27536e-05
1.28321e-05
1.25454e-05
1.25824e-05
1.25902e-05
1.2483e-05
1.24508e-05
1.25027e-05
1.25093e-05
1.15334e-06
6.61208e-06
1.74008e-07
1.33332e-05
1.48128e-05
1.0644e-05
1.21033e-05
1.34829e-05
1.36789e-05
1.33926e-05
6.80484e-06
1.47419e-05
1.28338e-05
1.29673e-05
1.30019e-05
1.27445e-05
1.29655e-05
1.27134e-05
1.25923e-05
1.25635e-05
1.26359e-05
1.26459e-05
1.26116e-05
1.25093e-05
1.25867e-05
2.11701e-05
1.80837e-05
1.17703e-05
1.11933e-05
2.0578e-05
1.53006e-05
1.21836e-05
1.10194e-05
1.13243e-05
1.13269e-05
1.1328e-05
1.13375e-05
1.13329e-05
1.13202e-05
1.13186e-05
1.13223e-05
1.13144e-05
1.12952e-05
1.12816e-05
1.13239e-05
1.13261e-05
1.0701e-05
1.13837e-05
1.13711e-05
1.07902e-05
1.13236e-05
1.13374e-05
1.13666e-05
1.13847e-05
1.1354e-05
1.32571e-05
1.28966e-05
1.29837e-05
1.30285e-05
1.30448e-05
1.27935e-05
1.26625e-05
1.24326e-05
1.2869e-05
1.28822e-05
1.30219e-05
1.29099e-05
1.28078e-05
1.19542e-05
1.21242e-05
1.15087e-05
1.14554e-05
1.12308e-05
1.19408e-05
1.287e-05
1.28877e-05
1.07928e-05
1.09394e-05
1.27204e-05
1.27937e-05
1.28451e-05
1.2926e-05
1.26478e-05
1.27236e-05
1.27173e-05
1.26222e-05
1.25651e-05
1.26186e-05
1.26288e-05
1.14517e-06
1.00153e-05
1.19791e-05
1.24473e-05
2.79483e-05
1.28562e-05
1.23238e-05
1.4069e-05
1.11352e-05
1.35272e-05
1.44148e-05
1.35937e-05
8.40445e-06
1.06928e-06
0.000140162
1.31134e-05
1.32451e-05
1.33967e-05
1.29556e-05
1.31876e-05
1.2723e-05
1.29316e-05
1.27335e-05
1.27608e-05
1.28247e-05
1.26881e-05
1.26162e-05
1.26762e-05
2.10587e-05
1.81203e-05
1.18789e-05
1.09448e-05
1.82178e-05
1.35905e-05
1.27631e-05
1.13463e-05
1.13435e-05
1.13545e-05
1.1353e-05
1.13289e-05
1.13315e-05
1.13324e-05
1.13222e-05
1.13056e-05
1.12941e-05
1.13389e-05
1.13427e-05
1.017e-05
1.14037e-05
1.14813e-05
9.35968e-06
1.13014e-05
1.13537e-05
1.14095e-05
1.13682e-05
1.13862e-05
1.14085e-05
1.34347e-05
1.30182e-05
1.29816e-05
1.30366e-05
1.3041e-05
1.30338e-05
1.26522e-05
1.24793e-05
1.2061e-05
1.27131e-05
1.27636e-05
1.29808e-05
1.27914e-05
1.26932e-05
1.15371e-05
1.1675e-05
1.09602e-05
1.10193e-05
1.09283e-05
1.18797e-05
1.15156e-05
1.29205e-05
1.29318e-05
9.9054e-06
1.03145e-05
1.04507e-05
1.27764e-05
1.28956e-05
1.29377e-05
1.29829e-05
1.27656e-05
1.27858e-05
1.28199e-05
1.27151e-05
1.26786e-05
1.26737e-05
1.27312e-05
1.27474e-05
2.47226e-05
4.22228e-05
0.000131127
7.84456e-05
0.000130034
2.16919e-06
1.03811e-06
2.87514e-05
2.22522e-06
1.25253e-05
1.35274e-05
1.44763e-05
5.19542e-06
4.00888e-06
3.15011e-05
0.000227292
1.34919e-05
1.38759e-05
1.31851e-05
1.34825e-05
1.29126e-05
1.30638e-05
1.28664e-05
1.27967e-05
1.29199e-05
1.29497e-05
1.28413e-05
1.28138e-05
2.05581e-05
1.71821e-05
1.12793e-05
1.09066e-05
1.81199e-05
1.33074e-05
1.16287e-05
1.13607e-05
1.13531e-05
1.13562e-05
1.13715e-05
1.13643e-05
1.13412e-05
1.13309e-05
1.13409e-05
1.13433e-05
1.13209e-05
1.13078e-05
1.12917e-05
1.13477e-05
1.13605e-05
1.05875e-05
1.13718e-05
1.13378e-05
6.47995e-06
1.13e-05
1.13714e-05
1.14375e-05
1.13931e-05
1.1409e-05
1.14347e-05
1.35457e-05
1.30852e-05
1.30011e-05
1.30059e-05
1.29618e-05
1.30011e-05
1.24019e-05
1.2232e-05
1.19824e-05
1.25957e-05
1.26666e-05
1.26228e-05
1.28671e-05
1.27869e-05
1.24607e-05
1.10367e-05
1.14171e-05
1.05176e-05
1.05934e-05
1.03628e-05
1.13556e-05
1.11628e-05
1.29911e-05
1.30024e-05
9.93405e-06
1.0174e-05
1.28787e-05
1.29245e-05
1.29571e-05
1.29989e-05
1.30242e-05
1.28577e-05
1.29038e-05
1.29366e-05
1.28723e-05
1.28221e-05
1.28257e-05
1.28395e-05
1.28482e-05
1.28643e-05
0.00010422
7.09541e-05
0.000201308
0.000115814
0.00061312
3.27379e-07
9.26631e-05
0.000239011
7.03955e-05
3.38067e-06
3.44545e-06
1.39536e-05
1.39857e-05
6.71001e-06
7.88482e-05
0.000680015
0.00127314
1.39591e-05
1.40738e-05
1.34147e-05
1.37393e-05
1.30159e-05
1.32397e-05
1.304e-05
1.29958e-05
1.30421e-05
1.31009e-05
1.29187e-05
1.29018e-05
1.95113e-05
1.62663e-05
1.7841e-05
1.09035e-05
1.19649e-05
1.17364e-05
1.53651e-05
1.25513e-05
1.138e-05
1.13702e-05
1.13743e-05
1.13925e-05
1.1386e-05
1.13592e-05
1.13423e-05
1.136e-05
1.13599e-05
1.13314e-05
1.1324e-05
1.13116e-05
1.13691e-05
1.13742e-05
9.74078e-06
1.13049e-05
1.13506e-05
1.15716e-05
1.13045e-05
1.13924e-05
1.15103e-05
1.14669e-05
1.14132e-05
1.14328e-05
1.14625e-05
1.33517e-05
1.14829e-05
1.30084e-05
1.301e-05
1.29912e-05
1.29552e-05
1.28751e-05
1.28865e-05
1.21708e-05
1.23232e-05
1.16306e-05
1.23224e-05
1.24289e-05
1.24211e-05
1.28079e-05
1.26354e-05
1.08021e-05
1.09733e-05
1.01421e-05
1.02338e-05
1.01488e-05
1.12984e-05
1.08811e-05
1.30134e-05
9.82325e-06
9.76657e-06
9.82664e-06
1.2931e-05
1.29945e-05
1.30028e-05
1.30261e-05
1.30157e-05
1.29365e-05
1.29406e-05
1.30499e-05
1.30063e-05
1.29552e-05
1.29499e-05
1.29749e-05
1.29697e-05
0.000165664
7.87555e-05
0.000153037
0.00142846
6.45206e-05
0.00161157
4.09101e-05
0.000320703
0.000471611
0.000171068
6.23371e-06
7.60851e-06
1.34729e-05
1.44044e-05
4.90519e-06
0.000404284
7.05707e-06
0.00133853
0.00192446
1.42858e-05
1.42561e-05
1.37038e-05
1.34846e-05
1.41432e-05
1.32983e-05
1.3097e-05
1.31866e-05
1.32601e-05
1.31823e-05
1.31926e-05
1.30837e-05
1.30384e-05
1.95251e-05
1.62327e-05
1.76436e-05
1.08897e-05
1.15693e-05
1.1695e-05
1.5002e-05
1.20273e-05
1.13848e-05
1.1397e-05
1.1391e-05
1.14114e-05
1.13979e-05
1.13975e-05
1.13774e-05
1.13576e-05
1.13404e-05
1.13778e-05
1.13756e-05
1.13297e-05
1.13301e-05
1.13106e-05
1.13789e-05
1.13936e-05
9.93494e-06
1.12965e-05
1.1303e-05
1.1437e-05
1.11605e-05
1.13028e-05
1.1412e-05
1.15595e-05
1.15009e-05
1.14373e-05
1.14635e-05
1.15039e-05
1.31562e-05
8.19307e-06
1.30065e-05
1.29995e-05
1.28949e-05
1.28466e-05
1.27425e-05
1.17889e-05
1.18957e-05
1.1525e-05
1.20844e-05
1.22269e-05
1.23152e-05
1.21306e-05
1.27102e-05
1.24468e-05
1.03016e-05
1.08507e-05
9.95668e-06
1.0087e-05
1.00071e-05
9.91433e-06
1.0963e-05
1.05286e-05
1.30166e-05
9.81132e-06
9.81023e-06
1.29949e-05
1.30237e-05
1.3035e-05
1.30244e-05
1.29821e-05
1.30012e-05
1.30697e-05
1.31665e-05
1.30898e-05
1.30671e-05
1.30666e-05
1.30633e-05
1.30364e-05
0.000249261
0.000161296
0.000230529
0.0013355
0.000359015
0.000218063
0.000154645
0.000176085
0.000545641
0.000530625
0.000278842
2.91952e-05
1.8589e-05
7.37396e-05
1.48273e-05
8.22819e-06
0.00038732
2.5124e-06
0.0020469
0.00234908
1.44903e-05
1.45621e-05
1.41311e-05
1.39968e-05
1.43254e-05
1.34117e-05
1.32686e-05
1.3317e-05
1.34066e-05
1.3322e-05
1.33798e-05
1.31283e-05
1.74499e-05
1.70891e-05
1.60735e-05
1.75659e-05
1.10646e-05
1.11981e-05
1.2888e-05
1.23862e-05
1.1405e-05
1.142e-05
1.141e-05
1.14344e-05
1.14186e-05
1.14149e-05
1.13982e-05
1.13695e-05
1.13498e-05
1.14005e-05
1.13941e-05
1.13483e-05
1.1342e-05
1.1327e-05
1.14007e-05
1.14096e-05
1.13006e-05
1.13872e-05
1.13158e-05
1.13106e-05
1.1443e-05
1.15778e-05
1.15433e-05
1.14626e-05
1.14521e-05
1.14997e-05
1.15457e-05
1.32437e-05
1.19192e-05
9.85488e-06
1.29355e-05
1.28663e-05
1.28219e-05
1.27355e-05
1.25932e-05
1.16595e-05
1.18472e-05
1.11631e-05
1.17963e-05
1.18847e-05
1.18841e-05
1.25566e-05
1.22204e-05
1.00792e-05
1.02189e-05
1.03928e-05
9.92597e-06
9.96911e-06
9.89966e-06
9.78503e-06
1.05197e-05
1.04138e-05
1.29706e-05
9.778e-06
9.84821e-06
9.83749e-06
1.30275e-05
1.30586e-05
1.30488e-05
1.29821e-05
1.29016e-05
1.30408e-05
1.31727e-05
1.32665e-05
1.3236e-05
1.31608e-05
1.31499e-05
1.31429e-05
1.30923e-05
0.000466926
0.000572269
0.00265273
0.00108623
0.000161944
0.000299432
0.000481035
0.000788127
0.00068756
0.000483123
0.000102354
1.71206e-05
9.12e-05
1.47943e-05
6.32507e-06
0.00139632
1.34013e-05
2.11627e-07
0.00190175
0.00295237
1.45247e-05
1.503e-05
1.41579e-05
1.40706e-05
1.44239e-05
1.38921e-05
1.33631e-05
1.34613e-05
1.37343e-05
1.33632e-05
1.34098e-05
1.34725e-05
1.32746e-05
1.74407e-05
1.657e-05
1.68282e-05
1.09945e-05
1.13762e-05
1.24564e-05
1.22895e-05
1.14235e-05
1.14397e-05
1.14317e-05
1.14547e-05
1.14405e-05
1.14374e-05
1.14328e-05
1.14024e-05
1.14175e-05
1.13935e-05
1.1366e-05
1.13565e-05
1.14211e-05
1.14054e-05
1.14083e-05
1.13538e-05
1.13509e-05
1.13463e-05
1.13231e-05
1.14285e-05
1.13095e-05
1.13026e-05
1.14069e-05
1.14581e-05
1.16506e-05
1.16242e-05
1.14901e-05
1.14818e-05
1.15327e-05
1.15855e-05
1.28962e-05
1.15146e-05
9.67969e-06
1.2864e-05
1.27188e-05
1.26734e-05
1.25656e-05
1.23816e-05
1.13366e-05
1.14935e-05
1.10672e-05
1.16782e-05
1.15033e-05
1.17072e-05
1.1893e-05
1.22893e-05
1.00321e-05
1.00838e-05
1.00095e-05
9.99318e-06
1.00845e-05
9.97229e-06
9.98762e-06
1.03702e-05
1.0365e-05
1.01146e-05
1.28921e-05
9.45182e-06
9.84147e-06
1.00628e-05
1.30723e-05
1.30553e-05
1.30063e-05
1.29031e-05
1.29261e-05
1.28041e-05
1.30844e-05
1.32509e-05
1.33359e-05
1.33162e-05
1.32346e-05
1.32153e-05
1.31946e-05
1.31333e-05
1.31091e-05
0.000808163
0.000762515
0.00314563
0.00244388
0.000642613
0.00047042
0.000618768
0.000744694
0.000895549
0.000889847
0.000648358
0.000824608
0.000456036
1.2325e-05
1.61111e-05
0.000240376
9.44175e-06
0.00114439
7.46141e-07
2.95998e-07
0.00210682
0.0025456
1.45666e-05
1.47901e-05
1.43463e-05
1.42989e-05
1.44132e-05
1.40285e-05
1.35327e-05
1.35695e-05
1.38998e-05
1.36746e-05
1.34579e-05
1.35093e-05
1.35583e-05
1.75225e-05
1.746e-05
1.63681e-05
1.36161e-05
1.15285e-05
1.09568e-05
1.11042e-05
1.23195e-05
1.17889e-05
1.14486e-05
1.14622e-05
1.14529e-05
1.14886e-05
1.14711e-05
1.14619e-05
1.14581e-05
1.1428e-05
1.14356e-05
1.1399e-05
1.13845e-05
1.13781e-05
1.14504e-05
1.14334e-05
1.14328e-05
1.13731e-05
1.13743e-05
1.13661e-05
1.13371e-05
1.1447e-05
1.13222e-05
1.1297e-05
1.13572e-05
1.15543e-05
1.17026e-05
1.16566e-05
1.15216e-05
1.15039e-05
1.15808e-05
1.16378e-05
1.16009e-05
1.28315e-05
1.0346e-05
1.10203e-05
1.27354e-05
1.26254e-05
1.25434e-05
1.23939e-05
1.21183e-05
1.10601e-05
1.11299e-05
1.06651e-05
1.13702e-05
1.12334e-05
1.13016e-05
1.16312e-05
1.20611e-05
1.00344e-05
1.00452e-05
1.00681e-05
1.02753e-05
1.01642e-05
1.03277e-05
1.01778e-05
1.01293e-05
1.03772e-05
1.01293e-05
1.0062e-05
1.27839e-05
9.35565e-06
1.00994e-05
1.31007e-05
1.30694e-05
1.30231e-05
1.29515e-05
1.27734e-05
1.27996e-05
1.26827e-05
1.33161e-05
1.33924e-05
1.34082e-05
1.32846e-05
1.32578e-05
1.32141e-05
1.31566e-05
1.31232e-05
0.00122321
0.00111748
0.00333743
0.00332558
0.000581028
0.00094455
0.000725597
0.000751352
0.00107286
0.00107985
0.00074996
0.000865424
0.000573147
2.37215e-05
1.68605e-05
0.000238053
0.000481695
3.22662e-06
0.000676263
0.000714643
7.22563e-07
0.00149708
0.00214803
1.47423e-05
1.4611e-05
1.43838e-05
1.43005e-05
1.44382e-05
1.4202e-05
1.36535e-05
1.40258e-05
1.38493e-05
1.34595e-05
1.35153e-05
1.35669e-05
1.36442e-05
1.77805e-05
1.78055e-05
1.6649e-05
1.26436e-05
1.15495e-05
1.09346e-05
1.12914e-05
1.17057e-05
1.13611e-05
1.14672e-05
1.14882e-05
1.14738e-05
1.1511e-05
1.14938e-05
1.14879e-05
1.14754e-05
1.14413e-05
1.14603e-05
1.14174e-05
1.13955e-05
1.14715e-05
1.14549e-05
1.14371e-05
1.14511e-05
1.13851e-05
1.13937e-05
1.13901e-05
1.13873e-05
1.136e-05
1.13374e-05
1.14714e-05
1.13285e-05
1.12864e-05
1.13193e-05
1.14516e-05
1.12969e-05
1.17588e-05
1.17361e-05
1.15546e-05
1.15443e-05
1.16146e-05
1.16776e-05
1.16515e-05
1.29217e-05
1.1774e-05
8.34424e-06
1.10987e-05
1.25936e-05
1.23926e-05
1.23501e-05
1.21175e-05
1.18941e-05
1.06631e-05
1.0826e-05
1.11562e-05
1.09328e-05
1.11947e-05
1.12592e-05
1.17332e-05
1.01587e-05
1.02176e-05
1.01402e-05
1.02814e-05
1.00565e-05
1.03133e-05
9.85142e-06
1.00834e-05
1.01955e-05
1.00747e-05
1.01288e-05
1.26352e-05
6.98282e-06
8.61923e-06
1.30812e-05
1.30185e-05
1.29767e-05
1.28556e-05
1.2673e-05
1.2679e-05
1.24968e-05
1.33496e-05
1.34101e-05
1.3424e-05
1.33166e-05
1.32544e-05
1.32069e-05
1.31603e-05
1.31364e-05
1.31051e-05
0.00147306
0.00126035
0.00320488
0.00291894
0.00167407
0.00037823
0.00154785
0.000956043
0.00104433
0.00103918
0.00117411
0.000720074
0.000902611
4.45061e-05
6.90115e-06
1.65649e-05
0.0004825
0.000696927
5.29883e-06
0.000361442
0.000966905
0.00027099
1.20451e-05
0.00141565
0.00264442
1.45129e-05
1.46297e-05
1.43988e-05
1.41992e-05
1.44705e-05
1.41278e-05
1.38036e-05
1.39514e-05
1.34808e-05
1.35408e-05
1.35967e-05
1.36773e-05
1.52636e-05
1.76908e-05
1.60201e-05
1.72729e-05
1.26348e-05
1.12183e-05
1.09489e-05
1.10938e-05
1.17453e-05
6.89887e-06
1.15018e-05
1.15128e-05
1.14989e-05
1.15503e-05
1.15282e-05
1.15152e-05
1.15081e-05
1.14691e-05
1.14794e-05
1.14313e-05
1.14242e-05
1.1503e-05
1.14846e-05
1.14632e-05
1.1478e-05
1.14141e-05
1.14228e-05
1.14223e-05
1.14225e-05
1.13755e-05
1.13564e-05
1.14949e-05
1.13526e-05
1.13116e-05
1.13274e-05
1.14112e-05
1.12741e-05
1.1814e-05
1.17745e-05
1.176e-05
1.16005e-05
1.15741e-05
1.16671e-05
1.17332e-05
1.16878e-05
1.26748e-05
1.17287e-05
9.14494e-06
1.13715e-05
1.2399e-05
1.22593e-05
1.23169e-05
1.21308e-05
1.18826e-05
1.15807e-05
1.04171e-05
1.04252e-05
1.08003e-05
1.06808e-05
1.07869e-05
1.11334e-05
1.10411e-05
1.15001e-05
1.02188e-05
1.03998e-05
1.02065e-05
1.00645e-05
9.6892e-06
9.76127e-06
1.00933e-05
8.85231e-06
1.0097e-05
1.01777e-05
1.01331e-05
1.24534e-05
7.00215e-06
5.68369e-06
1.30313e-05
1.29691e-05
1.28847e-05
1.27232e-05
1.25157e-05
1.25082e-05
1.23763e-05
1.33694e-05
1.33893e-05
1.34532e-05
1.32961e-05
1.32427e-05
1.31289e-05
1.3084e-05
1.30605e-05
1.30346e-05
0.00140218
0.00108418
0.00320407
0.00145888
0.000563615
0.00155337
0.00112567
0.00102767
0.000928227
0.00124476
0.000761552
0.00082639
7.55383e-05
4.7445e-06
1.45583e-05
0.00068598
0.00035176
3.24304e-06
3.70833e-06
0.000117618
0.000762719
0.00012276
0.00158956
0.00263441
1.48385e-05
1.44105e-05
1.44605e-05
1.43605e-05
1.39915e-05
1.42411e-05
1.39831e-05
1.38037e-05
1.38654e-05
1.35076e-05
1.35671e-05
1.36357e-05
1.37215e-05
1.50545e-05
1.65157e-05
1.6296e-05
1.68795e-05
1.17361e-05
1.12133e-05
1.09534e-05
1.13558e-05
8.67148e-06
4.72288e-06
1.15135e-05
1.15458e-05
1.15287e-05
1.15744e-05
1.15641e-05
1.15224e-05
1.15545e-05
1.15174e-05
1.14871e-05
1.15133e-05
1.14586e-05
1.14459e-05
1.1525e-05
1.15185e-05
1.1485e-05
1.15123e-05
1.14996e-05
1.1435e-05
1.14466e-05
1.14488e-05
1.1437e-05
1.14103e-05
1.13709e-05
1.13698e-05
1.13116e-05
1.13438e-05
1.12996e-05
1.14417e-05
1.13022e-05
1.18733e-05
1.18602e-05
1.18278e-05
1.16366e-05
1.16177e-05
1.17075e-05
1.1772e-05
1.17529e-05
1.27337e-05
1.03862e-05
8.04418e-06
1.13959e-05
1.22146e-05
1.20701e-05
1.20345e-05
1.1952e-05
1.15679e-05
1.13673e-05
1.03289e-05
1.02711e-05
1.05466e-05
1.03392e-05
1.08388e-05
1.05561e-05
1.07126e-05
1.11471e-05
1.04751e-05
1.02491e-05
1.05956e-05
9.55848e-06
8.23862e-06
7.88871e-06
9.89282e-06
6.43318e-06
1.03124e-05
1.01016e-05
1.01009e-05
1.02973e-05
1.22392e-05
4.8948e-06
3.96988e-06
1.29574e-05
1.28768e-05
1.28054e-05
1.26249e-05
1.24304e-05
1.23054e-05
1.21364e-05
1.33422e-05
1.34307e-05
1.33383e-05
1.32867e-05
1.31569e-05
1.30859e-05
1.30019e-05
1.29824e-05
1.29607e-05
0.00126813
0.00133075
0.00280011
0.00207968
0.000321532
0.00131408
0.00149138
0.00134411
0.000884811
0.00111691
0.000877368