/*--------------------------------*- C++ -*----------------------------------*\
| =========                 |                                                 |
| \\      /  F ield         | OpenFOAM: The Open Source CFD Toolbox           |
|  \\    /   O peration     | Version:  v2012                                 |
|   \\  /    A nd           | Website:  www.openfoam.com                      |
|    \\/     M anipulation  |                                                 |
\*---------------------------------------------------------------------------*/
FoamFile
{
    version     2.0;
    format      ascii;
    class       volScalarField;
    location    "1.5";
    object      omega;
}
// * * * * * * * * * * * * * * * * * * * * * * * * * * * * * * * * * * * * * //

dimensions      [0 0 -1 0 0 0 0];


internalField   nonuniform List<scalar> 
13611
(
60.311
32.3691
109.351
22.6241
19.0191
22.9121
27.3739
73.2473
25.0746
19.8949
23.7242
40.8249
21.3195
114.32
24.9957
19.2774
24.6451
21.8991
36.6932
20.1848
64.737
24.315
24.4692
25.0344
24.5956
22.7587
26.1459
19.381
100.828
23.9603
24.184
24.4827
24.354
24.3676
21.8845
24.3894
20.2202
64.4549
23.7837
23.768
24.2865
24.2385
24.3498
22.7471
23.8903
19.0488
110.307
36.7917
23.6578
23.657
23.5646
23.7887
23.9565
24.2433
24.0808
22.3988
20.0847
20.2481
63.91
37.8106
23.5101
23.5899
23.3603
23.5643
23.8188
23.7852
23.5922
23.9014
23.987
23.325
18.9053
19.789
100.101
27.2686
23.4431
23.6986
23.2168
23.3208
23.2375
23.4213
23.3302
23.5916
24.0436
23.6181
23.3515
18.3188
21.5545
61.8237
26.1658
23.5612
23.7213
23.1416
23.2337
23.0755
23.8516
23.2143
23.0823
23.2125
23.6902
23.3735
23.4938
17.5111
21.9435
46.7406
19.2097
23.681
23.5065
23.0375
23.3681
22.9523
23.8811
24.0018
22.9312
22.9203
23.0093
23.3815
22.9459
23.4069
23.4261
18.0096
20.883
23.0826
99.0414
25.6342
17.3481
23.7557
23.566
23.1541
23.321
22.8437
24.0544
22.8018
22.8004
22.84
22.8766
23.1124
23.1846
17.0726
21.7656
22.959
53.4824
19.6736
15.7985
23.7991
23.5158
23.7165
23.1332
23.3456
22.7831
23.9688
24.1987
22.7116
22.6682
22.6504
22.5918
22.6472
22.9188
17.9548
20.5591
22.6108
22.8249
22.899
98.5933
27.1342
15.4271
23.4287
23.6166
23.8007
23.0406
23.2485
22.7063
22.8975
24.0356
24.2712
22.6721
22.6447
22.5167
22.5145
22.4008
22.4258
22.4901
16.3766
21.3811
22.6411
22.5258
22.5113
53.025
20.4761
23.4654
23.7404
23.5677
23.9608
23.0918
23.2736
22.7351
22.8281
24.1914
24.4286
22.6712
22.5018
22.2396
22.2141
22.2541
22.2877
16.1647
21.0545
22.4707
22.4997
22.322
22.2314
27.9316
98.3014
16.9697
23.4003
23.8323
23.6663
24.0626
23.0399
23.217
22.6988
22.9053
24.3002
24.5561
22.6372
22.5087
22.0844
22.2392
22.078
22.1586
18.169
21.7722
22.4513
22.0778
21.948
21.9415
21.8112
49.5958
16.268
23.3861
23.8034
23.9901
23.6558
24.2335
23.1293
23.2803
22.7325
22.8871
24.4861
22.6362
22.42
21.9833
22.2063
22.0949
21.9178
22.1409
21.9677
17.4247
21.8391
22.3941
22.151
22.0177
21.5742
21.6859
26.1838
17.3912
91.5406
23.4745
23.8991
24.022
23.7877
23.5957
24.3625
23.248
23.1034
22.6885
22.8149
23.0035
24.5651
22.5844
22.486
22.0585
22.3612
21.972
21.9026
22.0933
21.8253
18.0389
20.5796
22.0462
22.1876
21.8391
21.5267
21.3328
21.5557
19.0424
16.4722
56.4135
23.4374
23.8972
24.1708
23.7814
23.6726
24.3285
24.5331
23.3259
23.1923
22.6889
22.8675
22.9775
24.7674
24.8949
22.6041
22.082
22.3798
22.0101
21.879
21.9802
22.1095
21.9747
16.8621
20.9502
21.7428
21.8207
21.4941
21.2292
21.2313
21.4377
22.9062
41.8153
23.5068
24.0562
24.1917
23.9008
23.6278
24.4817
24.6554
23.2972
23.1694
22.7489
22.844
23.062
24.8142
25.1277
22.6151
22.2566
22.4955
21.9509
21.8947
22.0564
22.0574
21.9383
17.4033
21.4838
19.9809
21.363
21.4302
21.1786
21.0508
21.067
21.7003
15.88
94.5551
21.819
23.4756
24.0438
24.3405
23.9434
23.7223
24.6774
24.4683
24.753
23.3701
23.2425
22.7961
22.9384
23.035
25.0202
25.1739
22.7282
22.5581
22.279
22.52
21.9748
21.8788
21.9735
22.2058
22.0001
16.7622
21.111
20.2129
21.0014
21.0835
20.9769
21.03
21.2062
21.6758
15.3018
52.4725
17.3075
23.5534
24.1744
24.3918
23.8763
24.1007
23.6777
24.7368
24.6123
24.9829
23.3462
23.219
22.902
23.1132
25.4333
22.7742
22.5867
22.4287
22.5152
21.926
21.8966
22.0557
22.2827
21.9537
17.9486
20.9477
20.8383
19.6598
20.6086
20.7078
20.8275
20.9492
21.0108
21.1684
21.4868
21.8584
15.0629
25.6396
99.283
15.0867
23.71
34.2394
23.5562
24.3276
24.5541
23.9693
24.1941
23.7717
24.9578
25.186
23.4507
23.3048
22.9813
23.0956
25.6601
25.524
22.6956
22.8927
22.4171
22.6031
21.9335
21.8782
21.9718
22.2263
22.3036
16.7942
20.4992
20.5237
20.17
20.5228
20.5285
20.7384
20.9978
20.8913
21.0524
21.3493
21.5312
21.8434
26.4548
50.8851
15.0364
19.9057
24.4348
23.9111
12.3161
75.145
23.6774
24.4579
24.7252
24.1267
23.9051
24.3802
25.1723
25.0915
25.4586
23.4212
23.2852
22.9691
23.1798
25.848
22.6945
22.9441
22.4872
22.6331
21.8981
21.9031
22.0451
22.3035
22.4299
17.6844
20.3632
20.2551
20.392
19.8104
20.4493
20.4988
20.6384
21.0225
20.9591
21.095
21.3946
21.7357
21.8837
19.4504
90.3704
15.7258
16.8214
16.8282
23.8722
24.1123
23.7212
7.83459
35.6878
23.7279
24.6511
25.0025
24.2485
24.0134
24.464
25.471
25.3879
25.7431
23.5179
23.3579
23.0824
23.1772
26.0054
25.9642
22.7855
23.0587
22.9543
22.5837
22.7355
21.8829
21.9746
22.2204
22.4226
22.4655
19.9588
20.0011
20.272
20.066
20.222
20.5261
20.7518
21.0366
21.0602
20.8994
21.2519
21.6202
21.7501
21.8813
24.2128
56.8552
15.4615
17.2805
20.527
23.5878
24.039
23.3207
23.3633
23.2844
11.2401
43.432
23.6597
23.8875
24.8216
25.1903
24.4147
24.1886
23.9855
24.7068
25.7416
25.5329
23.4798
23.383
23.2878
26.4897
26.2766
26.205
22.8984
23.1192
23.0573
22.6265
22.7886
21.9257
22.0111
22.2688
22.5083
22.5715
19.8972
19.7072
19.8422
20.075
20.3632
20.1835
20.1494
20.4901
20.67
21.0765
21.1055
20.9683
21.3131
21.6561
21.8403
21.9003
17.0373
41.7405
16.3855
15.486
19.1467
16.9148
23.5628
23.1911
24.5738
23.2256
23.1528
23.2567
8.04649
21.9127
23.7814
23.9617
25.1088
24.8453
25.4392
24.5952
24.3332
24.1134
24.7762
26.1015
25.91
23.5782
23.505
23.2928
26.4249
26.523
22.9497
23.2187
23.1177
22.727
22.8954
21.9648
22.157
22.3998
22.6008
22.4911
19.6064
19.6099
19.8107
19.9548
20.2934
20.0196
19.8814
20.5795
20.7476
21.0807
21.1984
20.9213
21.523
21.7932
21.8434
21.9198
22.4794
91.8327
17.5495
15.1043
19.1253
17.9291
23.2422
22.9828
23.8086
21.8696
23.1176
23.0387
23.1912
4.29434
37.1605
23.7193
23.9289
24.088
25.2578
25.0927
25.6873
24.6375
24.2667
24.545
25.0021
26.5086
26.1567
25.9878
23.5807
23.431
27.1708
26.9513
27.0096
23.0572
23.2906
23.2435
22.7672
22.9427
22.126
22.2253
22.44
22.6903
22.5762
19.3843
19.4499
19.6763
20.0919
20.3707
19.8612
19.4882
20.7229
20.5461
21.137
21.2968
21.0252
21.6163
21.8502
21.8781
22.0519
17.5359
44.9172
16.7996
14.9573
19.546
8.52598
22.9735
22.8355
23.4366
23.3824
23.1029
22.9499
23.2977
23.2206
45.9454
23.7897
24.0431
24.1874
25.5137
25.1865
25.725
24.9046
24.3201
24.753
25.0792
27.0162
26.6674
26.3673
23.5485
23.734
23.4062
27.6666
27.4992
23.108
23.339
22.8758
23.0419
22.2118
22.3776
22.532
22.7141
22.6725
19.1296
19.3747
19.7698
20.0098
20.4358
19.3184
19.1228
20.8874
20.7482
21.169
21.2669
21.525
21.0472
21.8077
21.9504
21.9692
22.0631
22.1592
22.8055
87.7538
17.1495
14.2462
19.3757
4.87586
22.6964
22.8532
22.6963
23.4668
22.5298
13.4503
24.3422
23.0457
22.9608
23.2564
23.1414
57.3681
21.8838
23.9608
24.0742
24.2023
25.7149
25.5365
26.1679
24.9707
24.5257
24.7279
25.3727
27.0869
27.5315
26.7351
26.4623
23.6717
23.8524
23.5206
28.1293
28.0681
23.2366
23.3212
23.4855
22.9036
23.1283
22.3914
22.4498
22.6058
22.8281
22.7577
18.9709
19.1556
19.5477
19.7482
20.1756
20.4058
20.6743
19.0251
18.8677
21.0248
20.925
21.3552
21.4411
21.704
21.2792
21.9053
22.0257
22.1668
22.2571
15.5473
52.4839
15.9101
18.2339
13.8076
19.2131
19.0566
22.55
22.8042
22.6632
22.7014
22.384
14.1608
24.5175
23.0741
22.9202
23.1778
23.11
38.2616
17.7215
23.9926
24.3165
24.4202
26.0743
25.6171
25.2486
24.5924
24.9351
25.4851
27.799
28.0614
27.3315
26.9223
23.658
23.8238
28.8326
28.8107
23.2825
23.4369
23.5765
23.0175
23.1131
23.2577
22.4673
22.5702
22.7277
22.849
18.9288
19.1895
19.5634
19.9951
20.2036
20.5818
20.7648
18.5805
18.7289
20.9769
21.2669
21.0696
21.4125
21.4742
21.6418
21.9036
22.0317
22.158
22.2229
22.402
24.0477
72.1784
16.5518
17.8115
13.719
19.0004
18.7901
22.4966
22.7372
22.8468
22.6151
22.2017
22.5271
22.3974
18.1681
13.9265
23.9195
23.2424
23.0155
22.9538
23.2901
23.1659
23.0591
35.5192
24.2144
24.3837
24.4823
26.4354
26.0009
25.4029
24.7906
25.2356
25.772
27.8716
28.2751
28.725
27.3833
27.206
23.8022
23.9476
29.5387
29.5414
23.3981
23.5549
23.7627
23.0562
23.2258
23.3314
22.6219
22.6615
22.8248
22.966
19.0424
18.7719
19.4079
19.7453
19.8985
20.5018
20.7127
20.9588
18.3326
18.4756
21.1835
21.4388
21.1116
21.592
21.6215
21.7465
22.0329
22.1562
22.2454
22.3876
22.4932
17.5406
23.2571
15.7354
18.185
14.1261
18.8016
18.4284
22.5453
22.7047
22.8094
22.6441
22.164
22.1458
22.3802
18.9893
12.7905
24.3357
22.7331
23.0064
22.9063
23.218
23.0918
27.4283
24.2478
24.5859
24.7474
26.3736
27.0255
26.0452
25.8283
24.9228
25.4509
26.0125
28.5924
28.908
29.3754
28.0257
27.8468
23.9585
23.8617
24.1524
30.4074
30.6424
23.4253
23.7222
23.8588
23.1709
23.3265
22.6994
22.6979
22.8033
22.9643
23.0141
19.1258
18.6218
19.3058
19.6171
19.9857
20.5619
21.0414
21.1505
18.2195
18.4145
21.3858
21.6742
21.4214
21.7327
21.7481
21.9629
22.1701
22.082
22.3958
22.4662
22.4827
22.6484
17.7784
22.0989
16.4814
17.8356
13.1221
18.6228
18.2221
22.5103
22.7392
22.8417
22.602
22.0851
22.3118
21.9947
22.1128
22.4459
16.233
22.4993
16.4652
22.8594
22.9288
23.1849
23.0664
37.0313
24.4809
24.7485
24.7934
26.8585
27.4633
26.4526
26.0471
25.2599
25.8315
26.3925
28.5787
29.383
29.5806
30.2862
28.4022
24.1391
24.0954
24.2562
32.4957
31.4635
30.9616
31.7073
23.5887
23.7406
24.0545
23.237
23.4653
22.8463
22.8617
22.9228
23.0391
23.1563
19.0452
18.7769
18.5125
19.442
19.8139
20.4811
21.1107
21.2964
21.4305
18.1248
18.2623
21.6244
21.875
21.6482
21.9732
22.0675
22.0783
22.0859
22.3174
22.2738
22.4984
22.5881
22.6138
22.7357
14.1279
18.8975
16.2917
18.0808
12.6738
14.5403
18.2153
18.4932
22.5424
22.7113
22.8145
22.6112
22.153
22.2878
21.9355
21.903
22.4251
15.4669
22.7176
14.8321
22.1978
22.9402
23.2952
23.1142
23.2276
23.0115
33.5583
24.4105
24.6848
25.0582
25.1059
26.8129
27.3696
28.1482
26.57
25.4842
26.098
26.6909
29.2968
30.4866
30.9044
31.264
29.3041
24.2176
24.1769
34.2717
32.8902
33.0913
23.6144
23.9389
24.1724
23.4012
23.5071
22.9462
22.9273
23.0307
23.1808
23.2419
19.3047
18.7174
18.2721
20.2896
20.9842
21.8094
22.2253
21.4557
21.8984
21.8475
17.9013
17.4705
21.8889
22.171
21.9747
22.1487
22.2439
22.2672
22.2533
22.4624
22.365
22.6773
22.7124
22.7194
22.8895
15.0313
25.6507
17.2149
17.9598
12.6085
14.2391
17.9615
18.3603
22.5193
22.6581
22.755
22.8533
22.5541
22.2338
22.1021
22.3292
22.025
21.8304
21.7919
22.3797
22.4686
16.9115
22.2593
21.3138
15.5699
22.0093
22.9075
23.0901
23.1982
22.9912
46.908
24.5676
24.9555
25.2997
25.3951
27.2852
27.8093
28.5584
26.7254
26.8155
25.9339
26.5343
27.1893
30.3208
29.7085
31.7234
31.9527
32.7736
30.0848
24.4479
24.386
34.4911
33.8473
23.788
23.9472
24.1332
24.3977
23.4949
23.6985
23.1188
23.0965
23.1647
23.289
23.4132
18.9129
20.0794
18.4537
18.4816
17.614
21.1533
21.9791
22.3511
22.9136
22.5095
22.939
22.2296
17.9514
16.8832
17.2671
22.1532
22.3639
22.3346
22.4029
22.5136
22.3479
22.4549
22.6153
22.5167
22.8517
22.8482
22.8276
22.9398
14.358
25.4924
16.9992
18.1705
13.1554
15.3158
17.955
22.6569
22.74
22.8273
22.5648
22.2243
22.0782
22.2791
21.9878
21.8156
21.6816
22.3799
22.4326
14.4006
22.0397
22.091
13.2688
21.6717
22.9352
23.3155
23.0264
23.1318
23.2416
55.2404
27.6726
24.8525
25.2562
25.6084
25.6611
27.7691
28.3549
29.615
27.206
27.221
26.0971
26.8737
27.4815
31.4762
31.004
33.4102
33.331
33.7349
30.1935
31.3579
24.5369
24.4935
38.4415
36.2878
35.5886
23.8242
24.1293
24.3384
24.5862
23.6681
23.7556
23.2211
23.1786
23.2297
23.2731
23.4583
23.5423
19.6356
21.6257
17.8528
20.4767
16.8704
21.8755
22.0762
21.9172
23.5123
23.1091
24.1306
23.0298
17.4797
16.7345
16.747
16.9281
22.6754
22.9336
22.6152
22.8309
22.5693
22.6261
22.8191
22.627
22.6454
23.0474
23.028
23.1115
16.2238
31.2216
17.4782
18.0955
13.22
15.1232
17.7047
22.619
22.7034
22.7821
22.8575
22.523
22.1806
22.0096
22.1175
22.2801
21.9194
21.7179
21.5546
22.3385
22.4642
16.4515
21.7824
20.4645
6.62004
21.5572
22.9125
23.3754
23.0091
23.1154
23.2312
60.335
25.1438
25.0267
25.592
25.9671
25.9865
28.418
29.0137
29.7697
27.5969
27.2792
27.5818
26.5317
26.8416
28.1252
33.0646
31.715
35.0248
34.8281
35.8662
31.6965
32.3547
24.7738
24.8044
38.0295
36.8774
23.9841
24.1374
24.3199
24.5651
24.8344
23.7872
23.9599
23.4152
23.2428
23.3429
23.4027
23.5256
23.6009
23.7341
29.5567
23.8117
16.8421
25.0207
19.4626
19.8843
25.7141
30.4643
26.1493
25.0346
26.7943
24.185
23.6091
17.5091
17.0745
20.3016
23.8636
23.5368
23.6297
22.958
23.2627
22.6539
22.8912
23.0198
22.8553
22.8228
23.2427
23.0821
23.1722
15.1512
40.0087
23.823
17.8115
16.3911
17.8315
14.1001
17.6194
22.6381
22.7172
22.7611
22.8369
22.5285
22.1983
21.9741
22.0724
22.2558
21.8738
21.7739
21.5294
22.3466
22.4342
10.4037
21.5373
21.5695
22.1023
21.405
22.9488
23.4727
23.3566
23.0537
23.1652
23.2899
44.0053
14.7446
24.9891
25.4355
25.6357
25.9652
26.3595
26.3671
29.1074
28.5563
30.7459
28.2901
27.8877
28.173
26.6698
27.2115
33.8339
33.1295
36.7433
36.3282
36.9142
31.798
33.2832
24.9223
39.0756
39.9607
38.8972
24.0588
24.3762
24.5364
24.8592
25.1036
23.953
23.4761
23.5434
23.4284
23.6108
23.6694
23.8358
23.9048
42.8862
24.4691
40.6427
26.7588
34.6524
28.7498
23.1622
40.1179
51.8818
33.9641
26.7725
29.3679
26.0451
24.7536
17.2298
18.9473
16.8298
25.1183
33.7093
24.4792
24.9228
23.4701
23.3138
24.3305
23.099
23.0348
23.2602
23.2289
23.4255
23.3382
23.3298
23.3723
15.0543
39.5526
22.5052
17.7749
16.3131
17.6625
14.297
17.319
22.6909
22.6157
22.7871
22.8704
22.5769
22.5007
22.1675
22.0075
21.8932
22.0984
22.2885
21.7154
21.621
21.4044
22.3911
22.4591
9.70856
21.3509
21.3207
21.7475
17.2091
21.2903
22.9274
23.5224
23.4048
23.0511
23.1684
23.2962
42.4919
8.08404
25.3101
25.531
26.0248
26.3009
26.7091
30.1518
29.6901
30.9852
28.975
28.4728
28.12
28.9197
26.954
27.7318
35.8833
33.5035
37.9933
37.2526
37.6541
38.3855
32.7903
34.6059
25.2334
40.544
39.6455
24.2982
24.5484
24.8182
25.1334
25.4211
24.1073
23.6928
23.7504
23.5112
23.762
23.9071
23.9945
24.0925
59.8453
36.9392
50.5913
34.591
30.3204
54.4405
36.2452
34.8285
61.7726
59.5366
39.983
28.3575
28.5124
33.9384
25.9901
17.1893
19.582
16.3579
39.295
48.6127
25.7136
25.8824
24.7396
24.7689
25.2011
23.4588
23.3063
23.4434
23.5658
23.6691
23.6612
23.4581
13.5365
27.4021
41.0234
15.3794
17.0564
17.6703
15.2977
17.3433
22.7103
22.6471
22.7627
22.8751
22.5636
22.5207
22.2006
21.9642
21.8558
22.0874
22.2922
21.7346
21.5963
21.3609
22.3905
22.4298
21.0929
21.407
19.0506
21.1871
22.969
23.4881
23.4226
23.1167
23.0209
23.2374
23.3657
54.5326
21.3907
12.0936
25.8033
26.0769
26.3294
26.6724
27.1571
30.429
29.7461
32.0663
29.7175
29.3549
29.2191
27.3119
28.2623
37.0928
36.1489
35.2811
38.9193
38.7235
38.553
39.595
34.4163
35.1288
25.4764
41.0805
40.4514
40.4662
24.3849
24.7149
24.9114
25.4022
25.7226
24.3145
23.8423
23.905
23.7699
23.9764
24.0597
24.2722
24.2535
76.3002
76.1755
52.6904
42.4912
56.4815
52.1996
53.9672
96.0043
87.6519
60.0779
36.0072
29.9822
34.8951
27.1393
16.9527
31.8177
16.2905
16.5174
43.0019
72.4016
26.4799
26.7813
25.1915
25.345
26.0111
24.836
23.4859
23.7453
24.65
23.8383
23.8117
23.8545
23.7079
22.7708
34.3144
13.0942
16.8842
17.4264
15.2375
17.1341
22.6949
22.636
22.7881
22.9299
22.841
22.5905
22.5083
22.2567
22.1882
21.9802
21.9052
21.8
22.1405
22.0345
22.3497
21.6615
21.5307
21.4412
21.2193
22.4575
21.0157
20.9827
21.3001
20.798
23.6327
23.5462
23.1152
23.0566
23.2288
23.3791
40.6358
18.2806
11.4652
25.9949
26.4759
26.7061
27.0869
27.6547
31.3502
30.6895
32.2922
29.9753
30.5834
29.7594
29.1336
28.0349
37.9383
37.2483
38.8974
39.2704
38.6702
39.199
39.5486
35.2467
35.1415
36.9271
25.8722
42.0095
40.369
39.6739
24.6676
24.8679
25.2252
25.7125
25.5805
26.0793
24.4833
24.0571
24.1385
23.8739
24.143
24.3109
24.4379
24.38
24.4761
75.0538
88.3242
72.1518
53.2019
53.5937
66.736
76.455
85.1448
108.177
96.9819
83.1901
105.865
58.8645
30.648
28.7137
44.8935
16.9394
27.897
15.1422
15.4066
62.7489
76.5228
27.1664
27.8242
26.173
26.452
26.4998
25.517
23.9715
24.0885
25.2009
24.4573
24.1266
24.1247
24.1915
14.9238
24.1064
34.3652
13.852
16.0393
17.0547
17.3152
17.0991
16.9586
22.7331
22.6708
22.777
22.952
22.8564
22.5879
22.5442
22.2705
22.2261
21.9186
21.8824
21.8177
22.1449
22.0391
22.3562
21.6546
21.5326
21.367
21.1751
22.4455
20.9479
20.7537
21.0698
21.337
23.7263
23.5435
23.1668
23.0501
23.286
23.4733
23.3547
40.0839
12.9627
16.9478
26.3917
26.7737
27.0847
27.5665
28.3604
32.1589
31.832
33.6758
30.848
31.3299
30.9075
29.7768
28.5641
38.0337
38.6974
37.5128
38.5088
38.5691
38.3534
39.3396
36.6051
34.8997
36.7378
37.3406
26.1583
42.2357
39.4141
24.6828
24.8602
25.2007
25.5068
26.0746
25.9904
26.3697
24.2418
24.3764
24.1371
24.4208
24.5344
24.7507
24.6625
24.7272
88.1697
97.3406
80.7827
71.5075
55.5734
65.2168
86.559
87.1172
102.278
100.365
108.433
115.63
75.1103
31.8974
29.3824
44.3414
64.6929
16.437
20.1528
30.2971
15.6407
57.1895
73.3239
27.8561
27.4094
26.7132
26.7673
27.0017
26.3228
24.5207
25.8272
25.2094
24.2795
24.3038
24.3573
24.5986
12.9331
18.3379
32.2634
14.1315
15.5518
16.8337
17.0393
16.8424
16.7521
22.717
22.6737
22.8114
23.0105
22.9065
22.6328
22.5297
22.3157
22.2387
21.9244
21.7875
22.1963
22.0961
21.9946
22.4054
21.6099
21.7266
21.4906
21.3965
21.2731
21.0616
22.4848
20.8314
20.5407
20.701
21.2556
20.5788
23.7679
23.6468
23.1651
23.112
23.2845
23.4857
23.4134
51.7806
21.2487
8.31452
17.2195
26.7164
27.3391
27.5427
28.2207
28.8866
33.5442
32.8069
31.4308
32.3204
31.1629
30.8401
29.4305
38.3736
38.53
38.1439
38.5494
37.9555
38.4262
40.125
37.1662
35.9495
36.9472
37.9211
26.5716
54.4625
44.9427
24.96
25.225
25.4053
25.7931
26.3707
26.2884
26.8441
24.5345
24.6915
24.3601
24.647
24.8776
24.9734
24.9538
24.9272
24.9641
104.709
105.301
85.4211
76.2901
63.7684
56.5187
85.5442
105.121
101.43
109.333
100.466
101.359
116.102
33.9267
30.9129
30.1733
68.4234
100.39
16.638
18.4764
44.4202
22.2424
16.0007
60.8663
78.7763
28.4779
27.8423
27.1251
27.0272
27.2941
26.1906
25.1861
25.6881
24.5762
24.6463
24.7572
24.9935
12.5397
17.535
36.7568
22.8987
13.5318
16.008
16.922
16.9578
16.7449
16.5454
22.7496
22.7153
22.8168
23.0424
22.9174
22.6316
22.5622
22.33
22.2939
21.8986
21.8352
22.2189
22.0932
21.9919
22.4114
21.6454
21.7125
21.5318
21.4036
21.2007
21.0857
22.4904
20.87
20.4396
20.5571
20.9373
20.24
23.8678
23.7439
23.6372
23.2236
23.107
23.3532
23.5595
23.4229
41.9502
21.4428
9.87815
19.5869
27.2256
27.7195
27.4774
28.1358
28.8565
29.7238
34.5699
34.3792
32.6213
33.1844
32.4874
31.2917
31.445
30.0058
38.3303
38.1798
38.0933
39.1775
40.4556
40.3779
39.0123
43.6571
37.9481
35.9097
37.2488
26.9837
53.8379
65.5301
25.2357
25.4723
25.7213
26.1664
26.7452
26.7211
27.1029
24.7359
25.0698
24.6814
25.0244
25.1357
25.3104
25.3492
25.2866
25.2891
116.269
109.894
84.1213
61.0229
50.1466
92.765
114.075
125.204
120.121
102.522
114.865
125.896
35.289
31.6836
29.456
100.836
57.9166
16.4145
16.6081
16.4083
41.124
20.9034
61.2935
80.5471
29.0298
28.2588
27.7389
27.4915
26.5137
27.4915
25.8852
25.4303
25.5985
24.816
24.9488
25.1519
25.4349
12.0238
14.2413
32.5133
19.4725
14.2663
15.614
16.7107
16.6547
16.4304
16.2999
22.7933
22.7348
22.8754
23.0349
22.9797
22.6039
22.6829
22.5329
22.3786
22.3194
21.9366
21.8221
22.2845
22.197
22.0375
22.1445
22.4564
21.6089
21.7603
21.4899
21.3402
21.2247
21.0007
20.7665
20.2873
20.6087
20.3036
20.9157
20.1405
23.9649
23.8608
23.7222
23.23
23.1636
23.3703
23.5808
23.5117
47.642
13.043
7.88525
19.429
27.641
28.196
28.1605
28.5461
29.655
30.2477
34.9676
35.1139
33.5735
34.6184
32.2265
33.4066
32.5614
31.0361
37.7278
38.5259
37.2613
40.8324
46.1924
48.2223
39.5431
58.1266
37.6067
36.6584
37.2054
37.4902
27.5339
75.3743
92.2579
25.5084
25.7625
25.9485
26.4019
26.9253
27.1906
27.6762
25.108
25.0376
25.3301
25.2513
25.4709
25.5558
25.6144
25.5692
25.549
129.433
128.076
81.1017
70.2358
47.891
60.5731
112.805
110.656
150.131
122.612
142.819
89.6566
136.176
35.6859
32.1288
30.3012
127.394
71.7783
36.8489
16.6506
16.7086
15.7081
36.4409
51.4471
18.7582
28.4196
74.559
84.0445
29.4864
28.6456
27.8712
26.8843
27.97
25.9188
25.7206
25.2148
25.3939
25.5956
25.8059
12.48
14.5917
35.0187
21.5331
13.7999
16.045
16.8155
16.3612
16.6656
16.2415
22.8337
22.8041
22.7238
22.8885
23.1071
22.9882
22.6327
22.6755
22.5534
22.3926
22.3726
21.9306
21.8766
22.3003
22.241
22.0458
22.1517
22.4738
21.658
21.777
21.5412
21.3847
21.1656
21.0327
20.8031
20.3314
20.4971
19.9058
20.3812
19.9565
23.9772
23.8303
23.665
23.3024
23.1708
23.4759
23.5508
58.63
32.718
12.4846
12.6093
20.0826
28.1507
28.7413
28.7005
29.342
29.8164
31.1244
36.2872
36.2657
35.0435
35.3175
32.9731
34.5863
33.1087
31.5852
38.2071
37.4068
37.3479
48.9997
56.5597
56.7093
44.3973
74.691
37.5142
37.0343
37.3515
37.4251
28.171
107.357
123.975
118.732
25.8721
25.9857
26.2267
26.9582
27.6983
27.7916
27.2853
27.9888
28.1524
25.3846
25.6954
25.6457
25.7634
25.9171
25.8787
25.9705
25.7815
126.44
131.09
119.68
58.4973
33.6092
39.0976
72.1608
99.5608
162.098
151.912
148.163
81.0514
34.3553
33.5692
30.6319
110.436
52.8709
38.1434
15.8367
16.5205
16.2857
45.2928
53.4185
25.1632
30.9777
72.0172
76.3031
29.5691
28.7919
28.2213
26.4288
27.675
28.4502
28.2111
26.1197
25.565
25.7824
25.9937
26.276
11.8894
12.8858
33.5225
26.4839
17.2656
14.8356
15.7677
16.3405
16.1637
16.4178
16.063
22.8444
22.8242
22.7773
22.9406
23.1001
23.045
22.606
22.7207
22.5246
22.4444
22.4182
21.9873
21.8491
22.2882
22.3657
22.2045
22.1061
21.7429
21.633
21.5372
21.4851
21.3269
21.2261
21.0334
20.7254
20.9554
20.1967
20.5533
19.7737
20.2568
20.0018
24.126
24.0091
23.7516
23.3183
23.2476
23.4815
23.6718
53.8823
40.542
5.94873
11.0531
20.3648
28.7729
29.502
29.3678
30.8489
31.6325
36.6431
36.606
35.699
36.35
34.2992
35.6475
34.1657
32.5649
42.6554
39.4446
38.3173
51.9681
56.9366
73.5199
78.0844
52.2545
96.4492
37.1023
37.3588
37.2694
37.0374
28.8444
140.339
169.932
162.988
26.0319
26.4693
26.6185
27.0464
28.267
28.0714
28.4297
28.6505
25.8963
25.9068
26.0393
25.8402
26.2331
26.1132
26.3512
26.1684
26.0656
115.461
124.651
77.6171
54.3929
36.9742
24.7491
47.418
57.5716
66.4096
155.179
163.959
107.041
149.356
35.3302
33.2644
32.1738
129.439
38.2219
72.5281
35.4154
16.1286
15.9577
19.1497
44.5748
64.2784
26.6324
40.2052
73.9398
61.9368
74.3492
30.7198
29.7124
26.6446
28.2457
29.707
29.423
26.0819
26.3313
26.6105
26.9718
13.5989
12.5549
34.4411
26.9947
16.8969
16.3555
16.0428
16.388
16.0661
15.7239
22.9187
22.8858
22.7762
22.9656
23.167
23.0717
22.6315
22.722
22.5467
22.4651
22.4067
21.9934
21.8943
22.3416
22.3874
22.2285
22.1197
21.7848
21.6837
21.6305
21.5335
21.3822
21.1533
20.8029
21.0032
20.2538
20.5093
19.6198
20.0352
19.8395
24.3447
24.3038
24.2322
23.9306
23.4008
23.2783
23.6079
23.7794
63.4085
25.6847
7.72774
13.661
18.3467
20.1594
29.4076
30.1425
30.2425
30.8472
31.6116
32.733
37.1662
37.0697
36.489
36.6006
34.8647
36.2172
34.8392
34.7676
33.1388
42.2315
49.6299
41.4904
69.364
74.1588
98.2518
105.129
67.8886
129.32
114.304
37.1948
39.0737
36.8027
36.9727
29.7615
211.438
215.709
26.4541
26.8848
27.6652
29.0552
28.4774
28.2282
29.0576
29.5417
26.2812
26.1514
26.3252
26.7327
26.1677
26.4618
26.7069
26.9411
26.7182
26.4997
108.051
68.7585
90.7451
39.0502
33.2068
27.1493
20.3568
30.5546
37.0246
45.0134
155.142
144.181
157.283
97.255
35.2368
35.0586
32.3538
110.939
45.4101
91.1042
85.5614
42.1362
18.4702
16.2264
24.2213
46.9543
57.5948
35.7176
42.0868
62.6933
51.9661
59.3475
30.8586
30.2108
27.366
29.4123
28.045
30.2852
30.0652
26.5415
26.8462
27.2218
27.6312
13.4983
12.2909
33.1458
18.3336
13.4122
16.3566
15.9783
15.7492
16.1557
15.8486
15.243
22.9376
22.9138
22.8378
23.0317
23.1381
23.2402
22.6888
22.6017
22.7873
22.5146
22.4649
21.9641
22.0705
21.8607
22.3418
22.4364
22.1814
22.3017
21.7603
21.6909
21.6182
21.4884
21.3279
21.2046
20.7817
20.9467
21.1383
20.1185
20.4298
20.6635
19.6645
19.4
19.5138
19.8961
24.6855
24.6467
24.5177
24.0807
23.4396
23.3831
23.7456
23.5497
23.9967
44.8723
3.23046
10.9217
18.9421
19.7063
30.3138
30.471
30.8496
31.4202
32.4713
33.1396
37.0848
36.869
36.5612
36.8907
35.9338
36.5804
36.2574
35.6283
35.5697
34.3657
50.4837
65.1093
50.6852
79.6798
94.2311
134.503
144.038
85.4364
167.429
157.165
38.6029
42.295
36.6997
38.7265
30.0037
30.5479
244.778
213.809
274.87
26.8205
27.5634
27.8201
28.9756
29.3063
28.9786
29.8182
26.8714
26.7719
26.9027
26.5257
27.1585
27.1672
26.9358
27.0561
27.5841
27.2055
26.9287
66.3053
27.8579
59.6552
25.2526
27.9609
18.6209
20.6582
18.8037
49.305
143.285
127.8
146.643
114.168
37.8284
37.5317
33.9504
84.1413
118.625
118.41
50.6497
23.9251
21.8218
30.2831
45.1488
51.5141
56.4611
36.6665
42.4064
54.4351
34.1369
32.1357
31.9072
30.125
29.2628
31.9427
31.6084
27.267
27.6192
28.0912
28.6803
14.3784
11.7299
32.502
21.263
12.7653
16.2985
16.3826
15.665
15.8783
16.1068
14.6467
23.0055
23.0058
22.8981
22.8364
23.0775
23.1984
23.2912
22.7243
22.6416
22.78
22.5535
22.5204
22.0076
22.0782
21.8885
22.4263
22.3415
22.4762
22.2092
22.3327
21.8109
21.7629
21.6894
21.5506
21.3903
20.9025
21.013
21.202
20.1479
20.5508
20.6966
19.4884
19.3262
19.251
19.804
24.9801
24.8772
24.5287
24.8596
24.356
23.4321
23.9792
23.6425
24.2385
38.8543
11.2138
14.5206
19.4393
19.587
31.1542
31.5953
32.2937
32.712
34.1192
36.6131
36.3889
36.5715
36.6
36.1168
36.5506
36.3359
35.9054
34.7314
55.7793
62.99
83.3076
55.6559
102.049
116.938
168.546
193.294
112.039
201.693
41.9018
42.1802
50.6267
37.442
38.8571
41.4516
31.053
31.4219
359.992
272.93
369.967
27.4225
28.0332
28.5833
29.6644
30.3292
29.6679
29.1104
30.5073
27.5357
27.173
27.6761
27.1272
28.0714
27.646
27.3691
27.5516
28.3298
27.3186
27.643
27.4671
38.7755
18.9729
29.285
28.8835
19.9075
18.5276
18.0323
17.0999
16.6688
26.5777
127.979
136.663
125.784
60.9394
52.4986
35.7463
49.7769
33.664
108.384
127.242
121.855
133.488
87.2675
31.218
23.2597
39.2943
38.8708
40.0027
42.3315
42.9275
36.5728
25.8592
33.0107
31.3855
29.5898
32.554
32.9661
32.3397
27.9361
28.3825
29.0269
14.3321
12.5921
41.4189
16.8569
11.8111
16.1795
15.6073
14.52
15.4396
15.8563
17.983
23.0622
23.0425
23.0161
22.9524
22.8929
23.1675
23.2768
23.3853
22.7049
22.6229
22.8351
22.5482
22.5716
22.0128
22.1427
21.8689
21.9631
22.402
22.4695
22.5497
22.2936
22.2012
22.4005
21.8106
21.7234
21.7808
21.6706
21.5046
21.3314
21.0004
20.8239
21.1446
20.0423
20.3359
20.4919
19.5728
19.1541
19.0908
19.9672
25.2703
25.733
25.2088
24.9417
25.2466
24.5464
23.5553
24.01
24.2298
23.8569
24.5193
41.8189
6.18173
14.4951
19.549
19.1523
31.8253
32.2477
32.5217
33.7583
34.4107
36.5487
36.4283
36.1537
36.2147
36.4195
36.3827
36.2575
36.1826
35.9254
35.4824
69.6795
76.805
108.019
72.1691
121.749
149.42
234.844
255.902
141.629
262.587
50.0301
49.3304
55.172
37.7394
43.8977
49.0685
31.7045
31.1688
32.2048
433.424
446.918
372.484
633.187
28.0113
28.6081
30.6346
30.7878
30.8382
30.5655
29.9352
28.4053
28.1037
28.36
27.7407
28.6284
28.5395
28.6148
27.7237
28.291
28.9642
28.086
28.3889
28.1583
15.5256
18.0976
21.6313
23.1418
22.0849
17.0902
17.2016
18.8306
18.5523
18.6499
34.9513
97.9151
69.6433
98.4294
38.3616
59.0004
35.0221
140.088
119.817
124.4
137.045
112.03
37.9199
31.7395
40.2317
34.9624
33.0819
29.8907
47.6127
43.9792
46.1421
23.7831
16.3365
34.5817
31.9739
31.0752
34.1957
34.9687
33.811
29.0099
29.4792
30.2533
12.3903
38.4409
18.4657
13.0103
11.7426
16.0513
15.9181
14.5051
15.6375
14.1944
15.8621
18.8423
23.1246
23.107
23.0898
22.9532
22.8955
23.2125
23.3685
23.457
22.7559
22.6648
22.8247
22.616
22.6236
22.1016
22.159
21.9148
21.9754
22.4342
22.5186
22.5756
22.3094
22.2528
22.4511
21.9114
21.814
21.8393
21.7305
21.5596
21.3896
21.1061
20.8953
21.2051
19.8925
20.4131
20.6849
19.8305
19.3533
19.1216
18.8802
20.4798
25.6541
25.6881
24.8817
25.2735
25.6617
23.6381
24.2945
24.5438
23.9716
24.7813
34.142
10.2737
11.9869
17.5614
19.3749
18.9844
33.3517
33.3717
34.0502
35.1599
37.1201
36.8447
36.9436
36.1214
36.1565
35.988
35.9023
35.8748
35.6088
82.3365
97.4693
110.885
137.262
77.6172
84.9821
163.409
181.764
270.418
272.043
350.703
182.177
361.819
59.6367
66.0252
40.3219
49.3575
44.3954
58.2163
32.6433
32.0709
33.0881
620.094
447.38
746.558
28.5936
29.3482
31.3982
31.6426
31.7446
31.4084
30.6287
30.0542
28.627
29.1086
29.1483
28.5528
29.7721
29.4267
29.2079
28.5297
28.9134
29.8355
28.7824
28.8243
28.7872
28.6724
17.7558
19.3622
18.4797
22.1022
20.6009
18.1096
17.5116
18.8545
18.6374
18.8879
19.5845
21.0222
54.6349
92.0315
41.3081
142.237
42.5692
37.3824
102.016
146.233
99.2926
103.163
133.86
99.0172
39.6242
32.1176
35.3241
24.547
23.0899
20.1292
50.1984
48.4056
44.9282
18.066
16.1613
35.8259
33.5503
31.4478
35.3944
34.7488
34.3769
29.4492
29.7944
30.5094
12.5976
43.0001
13.6824
12.3154
12.1626
16.0149
14.7888
15.7295
15.3424
14.9427
15.6062
26.1284
23.1928
23.1647
23.1029
23.1868
23.038
22.9588
23.3236
23.4085
23.5714
22.7323
22.6627
22.8944
22.6849
22.0983
22.234
21.9448
22.0389
22.5163
22.5578
22.639
22.3815
22.2843
22.4464
22.5338
21.9754
21.8839
21.9335
21.6718
21.8687
21.5652
21.5161
21.3219
21.1723
21.1122
20.9296
19.9348
20.8796
21.2695
18.8879
18.7598
26.3929
27.0961
26.2944
25.0333
25.7212
26.0856
23.8543
24.3699
24.5372
24.8211
24.2339
37.6982
11.9645
7.88045
16.5231
19.2147
18.5976
33.824
33.6881
34.8662
35.3362
38.4465
36.6321
38.3578
36.1904
36.0381
35.9269
35.9527
35.8015
35.8492
35.758
107.861
114.311
143.821
174.738
104.928
114.884
194.607
241.88
348.765
358.031
425.666
224.213
74.8783
79.4768
43.4848
62.2339
53.8035
70.4609
33.263
32.9697
32.8213
33.8406
604.452
739.705
821.456
29.2905
32.1972
32.2495
32.0282
32.2523
31.5465
30.9105
29.888
30.0491
29.1915
29.8687
30.3546
30.085
30.2405
29.888
29.6181
30.1315
30.3729
29.5774
29.5722
29.3613
29.4648
21.8591
17.9786
17.4348
18.7055
18.353
18.8382
20.874
27.7575