/*--------------------------------*- C++ -*----------------------------------*\
| =========                 |                                                 |
| \\      /  F ield         | OpenFOAM: The Open Source CFD Toolbox           |
|  \\    /   O peration     | Version:  v2012                                 |
|   \\  /    A nd           | Website:  www.openfoam.com                      |
|    \\/     M anipulation  |                                                 |
\*---------------------------------------------------------------------------*/
FoamFile
{
    version     2.0;
    format      ascii;
    class       volScalarField;
    location    "1.5";
    object      p;
}
// * * * * * * * * * * * * * * * * * * * * * * * * * * * * * * * * * * * * * //

dimensions      [1 -1 -2 0 0 0 0];


internalField   nonuniform List<scalar> 
13611
(
49422.7
2370.6
61480
6286.58
134193
152293
2343.14
63064.6
64056.3
2339.05
173223
43030.2
2299.98
81535
134722
2302.63
174654
171370
57331.9
2341.45
76620.7
173378
175609
166035
176355
123143
55417.2
5506.12
86127.4
131166
177181
176976
177571
175498
94632
56322
28447.3
83448.5
151114
177234
177848
178441
178193
120866
67255.2
58154.8
89930.4
76301
168430
136405
177685
178295
175852
177104
159673
106471
68839.1
83713.6
87507.3
83093.1
151960
139822
166662
172885
124701
168679
171278
166453
147344
119364
79102.8
91210.6
89402.2
83555.2
149177
133062
162385
154996
163762
161232
162639
154229
133519
147846
113672
86403.5
102079
88727.6
87140.8
139217
131667
153006
149448
157076
125415
153841
157059
150331
133603
140493
117414
90294.5
103795
89677.4
89490.9
133429
137657
147888
142480
149503
124461
121063
149006
150292
144533
129401
137564
124060
114695
94722.8
99791.5
109803
84908.4
91846
90909.7
128291
132454
142778
140328
146345
120428
143781
142322
139283
131801
121830
117539
95051.9
102026
110015
89901.6
91703.8
93302.4
126536
131446
128135
139162
136029
141976
122470
117552
139883
138423
136573
129393
122925
116400
96746.4
99481.7
104933
113403
108027
89639.2
93015.3
93322.3
132924
128019
125112
137563
135621
139365
138494
120785
116615
136359
136001
133152
125813
130382
120623
118250
95306.1
100566
105176
113025
109164
92139.2
92532.9
129752
125499
127406
121953
133674
132843
135491
134932
117958
114263
133489
132887
124339
127622
121604
116752
95571
99608.2
103391
107516
111196
114587
93295.9
90586.5
94283.3
129895
123285
125025
120024
131751
132161
133035
132240
116654
113314
131017
130744
125176
127288
120637
116444
97602.2
100759
103903
107978
111924
113810
93413.5
91207.4
95163.3
128092
123265
120814
124035
117596
129240
129434
130173
130114
114336
128949
128555
123438
125280
119023
121664
117263
114675
96881.9
100505
102749
105529
107060
109826
111356
93210.5
94437.2
89007.3
125846
121186
119649
121805
124356
115991
128324
127706
128570
129242
128096
113463
126869
126683
123840
125017
118734
120617
116690
113980
97665.4
99270.5
102055
103273
105676
107802
109898
112479
93344.3
94622.8
90681
124930
120648
117915
120982
122245
116256
114213
126124
125768
126493
127128
126642
111983
110788
125619
122321
123308
117520
119298
120978
115697
114509
96243
99694.1
102391
104609
106945
108873
110978
112068
93731.1
90867.5
123079
118759
117499
119519
121828
114862
113017
125069
124545
125526
125823
125055
111817
109531
124036
122156
122878
116975
118527
119865
115389
113901
96663.6
101341
98793.4
103852
104785
106988
109370
110510
112876
93949.7
86616.1
93739.3
122408
118372
116065
118746
120246
113433
115021
112801
123249
122969
123741
124224
123900
110821
109641
123132
123250
120947
121776
115942
117461
118780
119910
114460
96465.4
102012
99099.6
104104
106026
107859
108938
111005
112680
95263.1
90747.2
93635
120978
117053
115443
118982
117254
120082
112790
113819
111177
122357
122022
123062
122477
108605
121475
121874
120451
120778
115560
116836
117888
119242
114173
97146.3
101442
103414
98177.5
100274
105251
106143
108133
109476
110762
111990
113373
95328.4
93195
91310.6
94566.1
107844
109459
120195
115834
113991
117732
116328
118810
111718
110367
120791
120722
121846
121535
107340
108550
121075
120661
119485
119966
114709
115959
117029
117843
118488
96608
102099
103827
98848.4
99938
105531
106953
108964
107783
110176
111368
111956
113170
93279.9
91834.5
95046.4
108295
107767
106867
109633
110182
118911
114763
113174
116572
117782
115063
110693
111445
109207
120073
119992
120946
120367
107582
120107
119653
118769
119072
114385
115532
116363
117012
118189
97038.1
101751
103215
104937
98244.6
100642
106319
106925
109207
108310
110246
111307
112502
113661
93211.4
91196.4
94280.5
96448.3
108661
107326
108095
106971
109473
109855
118011
113514
111985
115542
116700
114339
109757
110151
108360
118810
118991
119787
119517
106849
107467
119191
119179
118936
118605
118588
114780
115740
116374
116960
117556
102142
103671
105116
98747.2
100527
106752
107546
108894
109805
108115
110780
111778
112335
113341
92780.8
91953
94901.8
96588.1
108546
107217
107950
106406
106637
105943
109681
110541
118005
116994
112692
111249
114576
115638
116546
113349
108662
109676
118484
118277
118459
105379
106070
106722
118709
118301
118106
117741
117773
114658
115182
115681
116442
117348
101594
102905
103483
104585
105887
98218.4
99813.8
106602
107434
109380
109822
108624
110768
111669
112712
113585
93573
92258.2
95839.1
94460.2
97414.9
108910
107480
106819
108194
106109
106553
105667
109484
110124
116884
116253
111649
112736
110238
113731
114682
115636
112989
107806
108745
117536
117459
117751
106068
106409
117636
117749
117282
117370
117337
114153
115151
115538
116638
115906
102007
103322
104148
104745
105926
99074.3
99971.5
107341
107929
109214
110277
108518
111195
112017
112508
113164
93412.3
91041.5
96420
94904.8
97321.6
108971
107213
106802
107795
108725
106012
106215
105562
109656
110402
116790
116122
115556
111124
111754
109551
113461
114858
113806
112130
106740
107920
108640
116681
116856
104688
105303
105352
117031
116954
116698
116642
116503
114152
114638
115020
116310
115406
101553
102977
104043
105396
106509
98931
100658
107898
107252
109601
110362
108975
111173
111905
112727
113138
93585.4
91971.5
96043.1
94461.7
98116
109481
107299
106534
107732
108943
105732
106072
105113
105290
110107
116020
115251
114870
110316
111490
109676
112510
114304
113006
111889
105985
106993
107925
116420
116021
116438
103886
104775
116294
115967
116239
116074
113736
114616
114925
115721
115353
102098
103272
104668
105354
106610
99701.3
100522
108399
107482
109471
110056
110808
108934
111513
112196
112579
112765
113364
93035.8
91786.1
96277.6
94812.9
98070.2
109604
106921
106195
106555
107989
107262
109529
108503
105613
105754
104893
105209
110627
109984
115242
114894
114659
109975
110568
108806
112242
113615
112998
111074
106138
105055
107068
107993
115588
115262
115710
103542
103921
115784
115692
115461
115579
115469
113760
114143
114504
115406
114847
101895
102865
103997
104608
105907
106453
107252
99547.7
101156
108629
107894
109846
110271
110873
109414
111451
112018
112724
112991
93575.2
92373.2
95749.6
96930
94292.4
97478.3
98780.6
106935
105949
106257
107675
107089
109815
108644
105354
105589
104840
104994
110311
110104
114750
113996
113869
109023
110365
111485
113379
112334
110890
105354
104468
106343
107270
115282
115059
102684
103352
115308
114980
114843
115142
115132
115171
113338
114103
114462
114866
102332
103207
104202
105338
105894
106925
107351
100104
101240
108415
109283
108421
109816
110175
110650
111092
111693
112192
112468
113004
93101.5
91755.3
95826.6
96701.1
94749.8
97942.7
98661.2
106629
105983
105672
106171
107222
107806
106701
109445
109977
109023
108207
105248
105350
104470
104654
104908
110583
114025
113582
113537
108516
109606
111208
112654
111612
110210
105437
104574
103636
106484
107132
114623
114445
102268
102523
114851
114655
114359
114666
114532
114640
113218
113738
114010
114541
102885
102045
103809
104718
105300
106457
106968
107793
99831.2
100769
108720
109535
108372
110279
110471
110569
111040
111703
111971
112403
112767
93569.2
92098.2
95497.3
96993.3
94410.7
97688.8
99149.4
106312
105745
105456
105825
106937
107581
106447
109485
109919
108814
108142
105016
105160
104456
104688
110612
113721
112898
112728
108845
107589
109655
110366
112306
111181
109985
104775
103816
103214
105856
106225
114303
114247
113975
101561
101917
114429
114092
113843
114321
114352
112809
113407
113720
113855
114084
103540
102268
104036
104816
105584
106478
107487
107897
100144
101132
109176
110105
108691
110578
110481
110643
111417
110862
112085
112243
112562
112671
93146
91428.4
96002.5
96663.7
94696.2
98067.1
99107
106056
105504
105200
105686
106974
106543
107251
107803
106119
109795
109125
110218
108417
104952
104285
104543
110692
113066
112509
112470
108236
107155
109084
110053
111568
110475
109275
105043
103948
103560
102514
105862
113742
113602
113543
100476
101103
101950
101205
113995
113774
113357
113910
113883
112614
113098
113270
113429
113769
103532
102977
101843
104484
105354
106104
106884
107721
108447
99763.8
100739
109485
110372
109161
110931
111169
110767
110672
111328
110808
112071
112262
112361
112406
93565.2
92677.1
95757.2
97015.1
94272
95343.7
98635.2
97631.1
105788
105298
105032
105437
106642
106320
107151
107687
105896
109881
109088
110205
108282
104773
104026
104321
104090
104581
110395
113053
112604
111898
111863
108457
107507
106348
109360
111161
110136
108887
104516
103429
102680
102232
105080
113407
113213
99919.7
101196
100634
113692
113219
112955
113562
113566
112317
112702
113158
113240
113377
104022
103056
102095
104688
105451
106231
106931
107390
108388
108675
99893.1
100979
110042
111005
109455
111402
111522
110790
110309
111762
110184
112380
112264
112295
112250
93381.4
93421
96317.7
96847.6
94194.3
95320.4
98774.1
97811.4
105571
105280
105077
104814
105363
106378
106651
106052
106882
107356
107885
105892
105624
109681
108810
109365
110272
108461
104711
104168
103940
104422
110477
112647
112021
111450
111352
107980
107104
106097
109196
108929
110459
109557
108233
103745
104600
102638
102261
101330
104779
112831
112709
99952.7
100597
113237
113015
112909
112506
113171
113122
112062
112418
112851
112886
113104
104060
104537
102658
103595
101762
104924
105886
106650
107528
107694
108428
109127
99227.4
100362
100997
110418
111020
109997
112174
112510
110072
111579
111948
109566
112762
112075
112123
111988
93625.1
93106.7
96184.7
97306.9
94773.3
95700
98305
105064
104920
104682
105171
106130
106481
105954
106831
107264
107698
105637
105491
109769
108989
109349
110235
108215
104482
103689
104223
103971
103749
110889
110517
112094
111508
110957
110872
107341
106502
105506
108668
108376
110177
109237
107958
103338
103850
102134
101488
100991
105012
104134
112500
112426
98467.8
99474.7
99863.4
112997
112578
112395
112114
112851
112843
111764
112145
112404
112555
112641
112729
104463
104796
102710
103910
102270
105668
106265
107061
107780
108124
108678
109325
99361.3
99880.2
100578
101700
111610
110142
113456
112637
108901
112030
113800
110791
106776
112163
111839
111741
93305.1
94714.4
96410.5
97299.6
94728.6
95548.5
98453.9
105015
104925
104744
104484
105152
106076
106624
106249
105769
106990
107396
107825
105612
105313
109804
108827
109608
110306
108272
104380
103501
104074
103827
103599
110867
110229
111727
111038
110547
110406
106926
106200
105567
108238
108718
108112
109718
109336
107484
102562
103673
101316
101101
100361
104476
103934
112048
111965
98867.1
99526.9
112618
112453
112297
112061
111751
112535
112487
111551
111635
111897
111980
112238
112279
112466
104346
104947
103666
103907
102099
105815
106427
106999
107639
108079
108726
109149
109837
98994.2
100020
100928
101735
111372
110727
115731
113585
110208
114318
116504
110515
101459
111875
111802
111584
94275.3
96089.8
93840.9
96801.3
96025.9
97689.4
95107.2
98201.4
104845
104752
104645
104379
105014
105852
106572
106191
105720
106943
107182
107644
105490
105267
110014
108509
108889
109518
108054
104158
103160
103363
103871
103654
103392
110531
110570
111791
111265
110984
110568
110077
110050
106355
107019
105209
107835
108309
107531
109662
108990
102355
103040
100725
100377
99753.4
104610
103464
111803
98423.3
97698.4
98654.5
112384
112058
111929
111654
111409
112284
111611
111239
111291
111770
111857
112009
112094
105270
105312
104976
102998
103710
102265
106365
106588
106925
107684
108349
109111
109434
110016
99174.5
100513
99658.3
101016
102507
111798
110426
115285
118934
112961
110110
116330
114479
88516.8
110998
112067
111201
111158
94346.2
95743.9
94417.3
96840.8
96027.5
97632.5
95130.8
98393
104715
104797
104477
104193
104883
105036
105835
106373
106749
106002
105562
107191
107383
107783
105355
105141
110087
108406
108589
109148
109815
108164
104072
102987
103248
103743
103518
103246
111765
110385
111363
111057
110496
110164
109692
105936
106570
105407
107370
107893
108306
107212
109275
108599
101784
103038
99918.6
100700
99841.2
99130.1
104398
103135
111370
97090.7
98170
112021
111845
111627
111338
111099
111998
111367
110975
111040
111441
111599
111654
111861
104426
105791
105041
103160
103050
104390
105339
106585
107210
107195
107904
108473
109325
108748
109755
98924.2
100829
99783.8
100948
102346
111018
110451
116438
130114
113574
108508
118909
118058
90545.7
110040
110099
110914
94851.4
93557
94310.8
95202.8
96424.2
97197.8
95682.6
98192.7
104546
104629
104418
104077
104825
104919
105724
106393
106705
106001
105507
106972
107252
107661
105281
105155
108465
109110
109950
108030
103899
102933
103094
103579
103761
103310
103095
111865
110950
110442
110710
110448
110162
109771
109257
106045
106711
104992
107081
107530
107865
109095
108417
101135
102087
102646
99290.7
99839.9
99222.7
98474.1
103952
103090
111067
96446.2
97002.4
97454.3
111779
111555
111376
111006
110766
111785
111036
110618
110625
111204
111265
111379
111588
105860
104880
103288
104329
104077
105391
106809
107327
108355
108524
108928
109502
108898
109796
99091.3
100830
100413
99540.4
101084
102559
110680
110041
119616
148131
111973
162046
119946
114761
59883.7
109900
109240
110627
110354
94656.4
94058.8
95134.2
96470.5
97283.4
95641
98229.8
104508
104596
104275
103896
104125
104708
104925
105590
105761
106286
106547
106796
105873
106132
105353
107040
107289
107453
107788
105058
108144
108653
109271
109566
102571
102691
103490
103590
103234
102956
111327
110522
110497
110557
110097
109802
109449
108973
105649
106440
105136
107175
106676
107512
107955
108631
100708
101674
99286.2
98516.8
99624.9
98549.9
98059.3
103452
104020
102463
110679
95754.4
96281.4
97066.9
111476
111406
111109
110770
110850
110440
111544
110793
110336
110235
110888
111025
111048
111395
111463
104236
106279
102865
103783
104206
104651
107578
106850
108647
107198
108256
107869
108330
109314
109674
109018
98902.7
100641
99990.1
99969.4
101140
102364
109361
109754
111962
117260
110572
162163
117012
125143
126676
70524.5
109325
108709
110655
95303.5
94235.1
94681.1
95272.1
95982.6
96557.4
97018.5
97716.9
98388.7
104348
104464
104242
103783
104015
104693
104817
105557
105660
106399
106520
106669
105891
106124
105329
106951
107153
107404
107698
105082
107968
108438
109079
109634
102403
102648
103343
103550
103097
102790
102982
111899
110951
109993
110131
109807
109483
109092
108590
105655
105981
104849
106842
106518
107144
107764
108405
100984
100075
101883
98523.6
98031.8
98864.1
97335.8
103116
104415
103608
102564
110366
95626.1
96317.8
111318
111340
111082
110886
110460
110493
110183
110469
109935
109792
110664
110751
110796
111129
111179
103779
104246
103648
103895
105447
105245
105379
107826
106054
106360
108240
106711
108245
109232
109634
108892
108476
99061.2
100712
101155
99791.2
101036
102223
109454
108820
111092
118852
110247
171797
118324
149930
82329.4
109371
108667
107012
124338
94978.9
94661.2
94849.4
95302.6
95875
96443.3
97107.1
97760.5
98355
104334
104444
104094
103638
103854
104568
104846
105443
105662
106370
106680
105784
106013
106237
105207
107014
106797
107170
107272
107509
107775
104979
107972
108476
108138
109322
108726
102298
102496
103307
103411
103082
102760
102858
112162
111125
110628
109976
109891
109467
109213
108817
108402
105151
105844
106801
106176
107089
107416
108029
100502
99866.3
101401
98339
97422.5
98687.5
96810.7
103194
104307
103821
102268
110016
94773.9
95826.4
111067
110988
110861
110586
110202
110240
109879
110252
109767
109713
110355
110546
110585
110783
110878
111004
103354
104048
103948
104510
104850
105371
104054
104246
105785
104742
107825
107816
106264
109410
109581
109606
109114
108058
99052.5
100794
101587
101584
99941.3
101865
102658
109503
108438
103146
31728.9
108102
155378
70787
136895
109010
108019
108710
108094
94869.7
94740.6
98148.1
93592.1
95291.5
96001.9
96395.4
96967.1
97601
98526.8
104232
104295
104039
103534
103796
104573
104797
105438
105557
106444
106569
105789
106052
106260
105214
106919
106803
107084
107228
107509
107636
105007
107748
108180
108039
109256
108624
102189
102340
102531
103184
103400
102969
102657
102861
111842
111011
110561
109818
109573
109202
109396
108901
108507
108079
105003
105477
106429
106127
106780
107208
107353
107901
100672
99257.2
101683
97567.1
97098.5
96883.3
98047.4
96080
102700
104593
103746
109794
95092.2
93935.8
110873
110814
110637
110319
109942
109959
109702
109937
109374
109206
110168
110256
110394
110490
110667
110745
102656
105649
103607
106032
106485
103381
107740
104753
104801
108072
107530
106264
109477
109697
109748
107786
108822
99578.7
98877.5
100286
102655
102071
102923
103417
109796
109197
106632
88581.3
28231
68918
108088
80157.3
117056
108507
106444
114440
79794.7
95092
94662.2
96250.8
93071.7
95339.3
95718
96248.3
97000.4
97754.3
98282.4
104115
104267
103898
103554
103677
104691
104489
104896
105326
105561
106380
106608
105670
105889
106193
106002
105119
106975
106723
107142
107300
107421
107630
107714
108105
107840
108840
109467
108295
102109
102277
102480
103180
103295
102975
102669
102763
111527
111130
110672
109892
109400
108923
109085
108727
108240
107967
105156
105482
106325
105791
106934
106508
107041
107570
100251
99016
101376
97354.8
96268.2
96147.3
98131.2
95582.9
102645
104506
104158
103452
109491
94753.3
92710.9
110635
110566
110445
110147
109867
109769
109474
109757
109055
109415
109883
110096
110190
110362
110434
110594
102556
106620
104401
105096
106032
105931
104147
108992
101999
105581
104524
107213
106208
109482
109874
109987
107957
108520
109378
99491.4
99131.8
100441
102473
102345
101520
101714
103652
103490
110186
109924
103076
55864.5
103086
117395
101406
108076
107335
106644
87902
94973.7
94630
93017.9
92901.4
95237.1
95719.2
96159.8
97530.8
96682.5
98461.9
104005
104142
104370
103878
103438
103673
104678
104558
104899
105331
105441
106439
106552
105671
105898
106257
106083
105127
106940
106739
107118
107308
107449
107532
107627
107847
107758
108708
109076
108171
102161
102341
102557
103085
103312
102866
102764
111409
111425
111121
110263
109535
109115
108768
108835
108465
108232
107698
104841
105189
105976
105751
106839
106331
106969
107478
99443
100680
101666
96621.4
95702.5
95552.6
97581.1
95227.3
103055
102162
104071
103635
109240
93988.4
92754.2
92556.1
110458
110410
110232
109917
109566
109480
109772
109408
109268
108535
109277
109718
109917
110064
110192
110286
110408
104082
104977
107700
105601
105757
105794
105012
106729
101213
105689
105103
107361
109992
110111
110312
107073
109311
109556
100078
99000.9
100582
102580
103270
101216
102428
103747
103496
110444
110279
109049
89535.7
95873.1
110464
111633
95859.5
107192
108235
97047.1
89014.8
95079
94956.7
93681.7
91111.4
92597.5
95242.7
95645.6
95850.2
97795.9
96735.6
98226.8
104028
104173
104301
103780
103463
103585
104781
104510
105023
105235
105404
106397
106648
105805
105592
106022
106210
106838
107026
107183
107269
107378
107424
107507
107597
107542
107751
107628
108370
109163
107865
102060
102295
102542
103100
103214
102879
102651
112481
111688
110968
110363
109498
108915
108455
108618
107967
107605
104868
105214
105881
105466
106516
106037
106724
107196
99085.3
100503
101160
96739.1
95857.9
94917.4
94859.8
97540.3
95214.4
102825
102311
104290
103512
108932
94662.6
91808.5
91066.4
110275
110130
110077
109836
109315
109519
109178
109064
108430
109467
109009
109785
109843
110097
109873
110076
110290
105087
108818
107829
104446
105784
106646
105916
105309
106249
103179
105476
105497
104540
110106
110590
110742
106624
109470
108569
109891
100226
99437.3
101083
102798
103611
101651
103135
104403
104047
104570
111191
111855
105627
112388
114949
118433
107402
106503
100394
98237
95248.3
94688.6
92118.4
91459.8
94075.8
95745.3
97610.3
96465.8
97189.2
98442
103919
104098
104372
103800
103425
103604
104792
104582
105035
105265
105467
106466
106663
105800
105658
106088
106299
106869
107045
107186
107318
107413
107466
107551
107527
107592
107572
108204
108921
107712
101900
102062
102159
102393
103005
103226
102831
102626
111670
111277
111164
110115
109793
109105
108668
108264
108370
108017
107716
107311
104623
104987
105621
105440
106401
105883
106530
106701
107139
99819.5
98232.4
101342
96012.6
95107.4
94073.5
94301.5
96453.2
95617.1
94875.7
103090
101999
104138
103804
108676
93443.9
89278.9
110096
109943
109642
109165
109352
109458
109046
108852
107914
108701
109410
109059
109646
109669
109931
109747
109921
110069
105988
106184
106285
107068
105872
106277
106368
106002
106432
107451
105381
104556
106250
105284
110466
110701
111236
107670
110025
108472
109536
109898
100561
99367.3
101552
104063
103570
102348
103325
104469
105626
104925
111841
113638
111525
117769
115370
117860
119982
107027
104281
99665.1
107531
94942.8
94458.1
91476.8
93112.4
94248.3
95998.2
95386.8
97990.1
96549.7
97289.3
98880.4
103963
104142
104355
103706
103509
103330
104711
104921
104548
105169
105438
106590
106433
106800
105852
105566
106264
106056
106976
107132
107315
107397
107464
107479
107534
107535
107503
107483
107551
107536
107829
108320
108637
107524
101829
101898
102074
102367
103021
103123
102716
102904
102482
111623
110703
110269
109644
108866
108431
108251
108235
107866
107488
107249
104724
105030
105559
105223
106141
105643
105938
106377
106458
106866
99732.3
98005.8
101071
95238
94286.5
92958.5
93235.5
96003.1
95636.2
95326.1
102974
102233
104315
103769
108669
108407
89252.4
94716.7
89868.9
109971
109736
109633
109098
109050
109260
108792
108004
108628
109232
109525
108846
109554
109880
109797
109630
109863
109923
106399
106514
107379
107182
105527
106405
106950
105384
107185
106366
106992
106794
106578
110671
111204
111693
109677
108682
109938
110236
100246
99788.4
101244
103583
103755
105015
101991
102615
105119
105638
112542
113505
116420
114829
116698
117554
107188
105577
104385
109184
95033.5
94087.4
93252.7
92953.1
93513.9
95630.8
95166.7
97876.1
97043.4
96195.3
98863.1
103916
104084
104257
104448
103719
103504
103313
104732
104923
104633
105165
105358
106667
106562
106877
105818
105945
105595
106361
106207
107039
107166
107387
107491
107527
107548
107547
107540
107421
107466
107489
107739
107967
108562
107416
101690
101833
102123
101917
102252
103133
102648
102908
102432
111206
110733
109983
109277
108903
107998
107976
107661
107487
107038
104565
104850
105376
105218
106176
105438
105743
106304
106816
100384
98917.2
96991.2
101641
94466.2
93634.1
91951.8
93336.4
94737.6
94232.4
102647
103232
102065
104239
104028
103554
108408
108174
83410.8
92836.3
89374.1
109793
109606
109417
108966
108769
109060
109246
108606
107742
108393
109239
109455
108874
109553
109741
109682
109564
109857
109668
109794
106339
107005
108370
107508
107544
106493
106384
106539
106269
106283
108253
106936
106922
107138
111128
111594
111059
112350
110437
107943
109593
109909
110415
100859
99798
103856
104296
104894
102011
103172
105344
105978
114045
115153
112217
116785
115172
115649
106769
105785
107602
94683.1
94446.4
94417.8
92687
93816.8
95711.5
94844.6
98249
97091.6
96226
99172.5
103818
103990
104150
104255
104436
103605
103403
103229
104822
105022
104634
105245
105400
106792
106592
107004
106881
105938
105722
105505
106347
106492
106185
107272
107482
107366
107537
107550
107560
107560
107518
107551
107395
107384
107407
107494
107949
108247
107309
101609
101391
101677
102039
101837
102232
103037
102710
102509
102833
102314
111928
110549
109948
109266
108600
107872
107847
107640
107249
107037
104661
104861
105022
106017
105390
105549
105805
106057
106366
106601
100220
99122.1
96804.7
101769
94046.4
92604.4
90539.7
92055.3
94226
94091.1
102716
102992
102445
104398
104059
103656
108185
108399
107946
83890.4
89371.8
85147.2
95549.7
109625
109415
108757
108668
108601
108883
109083
108023
108499
109169
109352
109041
108722
109446
109692
109597
109463
109645
109557
109620
106557
107026
106723
107144
107207
106485
106567
107057
107056
106878
107419
108022
107480
110529
112010
111332
112799
110507
108769
109463
109858
109589
101134
100247
103800
104462
105175
105672
102684
101521
102947
105702
106342
113459
113147
111971
115188
114380
114435
107495
107351
108906
94160.5
93586.5
92518.3
92880.8
93527.9
95393.5
94596.1
98101.3
96582.6
97555.9
95712.6
99026.5
103820
103919
104161
104345
104529
103624
103365
103250
104839
105015
104741
105208
105296
106854
106773
107075
107023
106013
105728
105564
106483
106581
106320
107282
107570
107493
107698
107632
107634
107583
107522
107604
107280
107223
107404
107316
107485
107845
108231
107294
101465
101602
102096
101910
101684
103060
102646
102444
102883
102242
111241
110243
110417
109582
108917
108585
107589
107448
107227
106824
104571
104681
104947
105208
105420
105655
105875
106202
106623
100720
98713.7
97791.7
95546
102351
101437
92787.7
92053.7
90657.2
91265.6
92214
92506.3
90137.8
103041
102473
104334
103951
104226
103515
107964
108231
107755
92764.8
86381.7
96128.8
109475
109285
108630
108462
108350
108680
108908
109099
108376
108110
109218
109376
109076
108807
109421
109597
109519
109419
109503
109518
109541
109488
107202
107136
106805
107231
107435
106940
106902
107190
107132
107441
106991
107276
108224
108330
107540
110459
111781
112488
111276
111324
108935
109038
109675
109950
100679
100123
104067
104792
105352
106047
102156
101528
103421
106432
106669
113579
112741
110551
114301
114349
113306
107990
107760
108514
94077.6
93203.1
92085.7
93276.5
93802.6
94942.3
94318.2
98515.9
96520.3
97525.9
95568.3
99531.8
103738
103928
104269
104111
104355
104520
103565
103441
103179
104930
105110
104758
105268
107031
106859
107179
107084
105995
105858
105551
106561
106732
106501
106270
107429
107668
107526
107688
107829
107680
107702
107648
107607
107560
107486
107126
107293
107410
107865
107932
101379
101161
101443
102096
101813
101610
102993
102708
102519
102305
102821
111898
110152
110523
109649
108768
108248
107481
107427
107007
106816
104634
105043
104752
105242
105459
105689
105865
105998
106252
106435
100375
99482.4
97824.4
95496.8
102769
101991
91737.7
90416.7
92073.2
92997.9
94376.6
91923
102742
102649
104393
104103
104218
103779
107770
107939
108043
107558
90824.2
93407.6
93501.2
109324
108433
108393
108291
108534
108753
108961
108607
108503
109285
109208
109165
108988
108777
109396
109447
109402
109366
109332
109383
109423
109340
107492
107097
107038
107394
107481
107376
107385
108406
108767
107980
110712
111794
112613
111171
110628
109156
109056
110046
101204
101038
104768
104167
105297
106040
106332
102415
102937
106640
113068
111933
110547
113603
113468
112745
108414
108406
109195
92283.6
92448.4
93070
93525.9
94731.3
94032.4
98551.7
95942.5
96859
98056.5
95060.2
99280.3
103736
104020
103819
104261
104171
104429
104592
103633
103403
103177
104968
105080
104872
104685
105149
105340
107166
107023
107224
106123
105826
105459
105673
106766
106662
106397
107487
107705
107781
107753
107952
107806
107722
107705
107638
107576
107934
101244
101385
102009
101862
101672
101470
103050
102615
102503
102231
102876
111406
110432
110445
109375
108967
108317
107291
107171
106988
106631
104500
104915
104632
105087
105319
105509
105651
105917
106051
106447
101188
99187.4
97102.3
93993
103051
102898
89795.7
89456.9
95732.1
94679.2
98258.8
89737.4
103062
104308
104170
104213
103721
107565
107727
107891
107377
89485.7
90569.7
92954.5
109195
108293
108192
108139
108581
108336
108777
108976
108617
109295
109234
109195
109039
108950
109387
109385
109311
109317
109208
109301
107487
107447
107430
107647
107650
107735
108384
108172
108609
108046
109679
111467
112128
111111
109517
108984
109886
101148
100615
104827
104330
105884
106160
106650
102279
103174
107077
112972
111792
111136
109908
113207
113266
112814
112138
108595
109018
90920.5
92090
92635.8
92953.3
93552.2
94269.5
93654.7
99110.7
95763.4
96845.5
97968.5
94926.3
100423
103949
103837
104332
104180
104463
104544
103622
103504
103277
104971
104878
104700
105075
105270
107149
107351
107112
107354
106158
105926
105530
105662
106925
106875
106582
106338
107638
107808
107842
107866
107939
108057
107822
107898
107748
107699
107539
101126
100983
101262
102068
101733
101552
101424
103003
102648
102423
102292
102790
111356
110175
110890
109552
108734
108073
107219
107128
106754
106605
104446
104748
104621
105058
105367
105159
105508
105593
105725
106020
106317
101094
99812.5
97610.4
94078.8
103305
103677
88818.5
89318.7
104255
107922
90442.3
89615.8
103436
104246
104577
104208
104853
107565
107370
107679
107886
88668.1
91457.7
92061.5
109065
108084
108060
108003
108450
108220
108636
108825
108916
109339
109226
109205
109142
109091
109320
109286
109263
109272
109137
109262
109240
107652
107660
107554
108490
108167
108700
107983
110356
109496
111455
112170
111159
109248
109010
109150
109061
101533
100599
105272
104489
106223
106407
106742
106916
102075
103128
103910
107484
112570
111190
110967
110065
112773
112795
112463
111933
108977
109187
92204.3
92062.5
92498.4
93164.9
94014.1
93732.5
98630.9
95259.2
96126.3
97002.9
97940.3
94428.4
100204
103996
103739
104424
104272
104112
104608
103498
103246
104973
104782
105131
105354
107331
107515
107102
107277
106077
105789
105489
107029
106680
106472
107673
107753
107777
107868
108013
108068
108173
107924