/*--------------------------------*- C++ -*----------------------------------*\
| =========                 |                                                 |
| \\      /  F ield         | OpenFOAM: The Open Source CFD Toolbox           |
|  \\    /   O peration     | Version:  v2012                                 |
|   \\  /    A nd           | Website:  www.openfoam.com                      |
|    \\/     M anipulation  |                                                 |
\*---------------------------------------------------------------------------*/
FoamFile
{
    version     2.0;
    format      ascii;
    class       volScalarField;
    location    "1.5";
    object      p_rgh;
}
// * * * * * * * * * * * * * * * * * * * * * * * * * * * * * * * * * * * * * //

dimensions      [1 -1 -2 0 0 0 0];


internalField   nonuniform List<scalar> 
13611
(
58624.7
10986.6
71016.4
14616.3
142038
159234
10832.1
72390.5
70019.3
9845.38
179897
51894.6
10244.8
91120.4
140643
9824.53
180902
178393
66147.4
10265.4
85897.7
178841
181168
172002
182478
129932
63835.8
13021.3
95615
136388
182606
182603
183326
181813
101636
64615.6
36179
92735.7
156141
182366
183389
184143
184230
127500
75713.2
65758.7
99526.1
85145.3
173395
141214
182723
183539
181327
183076
165836
113196
76870.3
90876.7
96850.7
91993.5
156649
144440
171459
178012
129112
174105
176509
172041
153260
125641
87157.3
98337.2
98945.8
92092.6
153708
137502
167114
159584
168613
166395
167695
159660
139458
153414
119916
93994.1
108735
97897.7
95747.6
143469
135936
157510
153865
161810
129540
158866
161895
155461
139234
145921
123279
97941.8
110278
98824.4
97671.3
137596
141756
152273
146685
153995
128421
124880
153765
154968
149507
134854
142716
129588
120483
101995
106542
115798
94429
100476
99136.1
132247
136324
146969
144427
150797
124069
148409
147060
144257
136931
127118
122975
102504
108521
115774
99151.2
100139
101176
130324
135204
131880
143210
139942
146267
126086
121049
144283
143057
141324
134289
127954
121675
103964
106264
111004
118794
113818
99164.2
101697
101306
136708
131590
128647
141566
139503
143638
142586
124221
119946
140682
140448
137754
130684
135013
125469
123195
102894
107086
111019
118223
114602
101410
100972
133347
128975
130889
125353
137473
136581
139550
138894
121254
117472
137614
137284
128959
132034
126214
121571
103130
106273
109397
112969
116409
119543
102050
100128
102238
133476
126600
128352
123239
135463
135861
137023
136025
119784
116360
135075
134950
129601
131488
125037
121030
104713
107053
109631
113157
116880
118636
101942
100464
102936
131551
126520
124005
127262
120682
132783
132969
133966
133788
117337
132830
132680
127648
129301
123366
125860
121679
119288
104155
106741
108621
110872
112206
114695
116164
101971
102470
98517.7
129153
124292
122708
124875
127573
118903
131789
131159
132321
132912
131606
116329
130661
130571
127858
128855
122841
124605
120905
118445
104692
105787
107829
108867
110806
112616
114528
117010
101701
102515
99832.9
128155
123670
120836
123956
125290
119102
117033
129430
129067
130089
130633
130067
114727
113492
129236
126155
126970
121576
123255
124794
119861
118769
103629
105920
107924
109845
111754
113480
115350
116401
102226
100034
126158
121628
120315
122371
124817
117559
115707
128300
127759
128990
129251
128337
114464
112083
127515
125818
126404
120848
122286
123496
119354
118009
103791
107046
105271
108956
109771
111548
113699
114703
116992
102163
96141.4
102340
125415
121168
118754
121500
123091
116020
117666
115387
126327
126039
127052
127494
127105
113344
112109
126438
126717
124465
125156
119774
121188
122383
123414
118397
103777
107358
105338
108925
110657
112161
113157
114990
116596
103017
100065
102102
123854
119718
118030
121726
119892
122885
115261
116336
113646
125359
125016
126262
125539
110947
124622
125195
123812
124078
119217
120390
121319
122611
117939
104061
106831
108306
104669
106041
109715
110534
112203
113441
114584
115863
117110
102941
102020
100899
102505
100460
100142
122989
118408
116469
120344
118857
121483
114078
112714
123641
123581
124907
124523
109626
110811
124249
123672
122768
123112
118327
119482
120443
121134
121774
103732
107046
108399
104983
105648
109702
111041
112855
111761
113983
115002
115619
116717
102118
101165
102755
100426
100594
100360
100796
100622
121578
117202
115540
119084
120364
117484
112996
113711
111464
122855
122782
123932
123218
109734
123185
122537
121930
122117
117814
118905
119623
120146
121341
103876
106693
107797
109144
104516
105970
110223
110820
112904
112011
113829
114762
116019
117048
101720
100735
102249
103544
100549
100562
100690
100435
100875
100533
120575
115856
114250
117927
119160
116660
111924
112300
110487
121457
121663
122621
122289
108970
109541
122133
121962
121747
121656
121509
118098
118990
119494
119986
120604
106722
107941
109037
104668
105675
110390
111193
112494
113353
111679
114199
115082
115671
116556
101465
101176
102540
103446
100686
100609
100828
100347
100420
100234
100840
100982
120559
119451
114924
113396
116879
118000
118966
115572
110744
111737
121089
120869
121088
107371
108089
108704
121537
120971
120776
120667
120580
117814
118302
118666
119325
120282
106265
107161
107650
108557
109484
104209
105180
110100
110926
112755
113168
111947
113993
114796
115905
116636
101969
101469
102979
102349
103775
100790
100748
100559
101036
100282
100455
100175
100871
100838
119303
118613
113789
114923
112297
115928
116923
117953
115138
109760
110699
120029
119942
120301
108026
108301
120325
120323
119842
120178
120028
117185
118145
118402
119467
118725
106343
107239
107967
108463
109269
104576
105108
110509
111193
112450
113464
111696
114280
115013
115538
116075
102076
100568
103219
102523
103649
100954
100757
100624
101057
101146
100302
100391
100178
100833
100879
119190
118454
117845
113170
113827
111505
115598
117093
115954
114179
108608
109822
110530
119062
119279
106516
107158
107160
119593
119418
119146
119340
119069
117014
117500
117762
119022
118081
105872
106882
107703
108807
109600
104348
105342
110980
110269
112615
113350
111929
114075
114738
115640
115911
102038
101238
103070
102376
103990
101006
100873
100611
101148
101372
100248
100407
100049
100114
100778
118319
117467
117070
112270
113498
111588
114535
116460
115036
113873
107736
108769
109714
118772
118312
118815
105627
106487
118749
118301
118812
118532
116451
117347
117561
118331
117948
105965
106816
108000
108538
109491
104596
105049
111258
110237
112348
112966
113653
111753
114295
114909
115337
115447
116054
101776
101323
103126
102499
103824
101108
100828
100498
100685
101284
101055
101499
101376
100256
100330
100031
100135
101025
101097
117437
117051
116814
111842
112463
110599
114204
115683
115000
112955
107849
106733
108796
109728
117818
117446
117974
105197
105559
118136
117996
117697
118051
117818
116333
116732
117020
117900
117307
105680
106388
107178
107717
108775
109218
109943
104363
105236
111297
110520
112517
112980
113507
112017
114062
114588
115271
115527
102062
101661
102962
103346
102265
103481
103999
100906
100479
100636
101320
101070
101746
101577
100200
100328
100038
100093
100964
101200
116872
116032
115919
110792
112199
113344
115387
114232
112709
106946
106052
107962
108905
117471
117212
104256
104883
117581
117163
116980
117505
117447
117437
115773
116583
116884
117272
105668
106367
107052
108043
108505
109429
109842
104447
105053
111023
111792
110826
112346
112782
113228
113612
114212
114641
114904
115428
101866
101302
102813
103220
102462
103535
103821
100867
100535
100396
100667
101177
101431
100939
101710
101426
101703
101541
100209
100272
99952.8
100018
100112
101043
116038
115547
115527
110190
111335
112995
114566
113421
111939
106986
106112
105148
108065
108700
116703
116505
103750
103983
117027
116770
116402
116946
116727
116806
115524
116093
116310
116842
105940
105367
106659
107269
107778
108748
109253
110112
104163
104661
111107
111856
110658
112616
112902
112976
113396
114061
114286
114706
115063
102113
101422
102698
103196
102416
103378
103895
100763
100509
100372
100569
101155
101455
100904
101695
101358
101720
101602
100162
100251
99962.3
100055
101302
115677
114763
114604
110503
109166
111343
112042
114146
112902
111643
106219
105261
104643
107337
107697
116332
116265
115962
102978
103278
116539
116095
115800
116501
116480
114995
115689
115990
116062
116295
106165
105253
106547
107062
107720
108491
109550
110006
104030
104609
111435
112279
110751
112878
112664
112895
113703
113110
114275
114433
114820
114858
101989
101001
102875
103006
102567
103433
103720
100722
100437
100299
100573
101251
101005
101383
101581
100790
101660
101752
101339
101702
100184
99956.5
100047
101125
114918
114298
114291
109791
108641
110682
111654
113307
112100
110854
106458
105319
104934
103868
107252
115679
115508
115456
101764
102438
103272
102509
116010
115729
115220
116005
115904
114683
115238
115413
115533
115875
105922
105531
104903
106689
107357
108049
108652
109542
110401
103807
104221
111542
112370
111121
113064
113170
112875
112872
113458
112912
114124
114352
114488
114486
102237
102013
102736
103034
102509
102767
103513
103188
100642
100424
100302
100530
101205
100980
101441
101641
100761
101677
101809
101547
101822
100160
99878.6
99986.9
99917.4
100091
101116
114890
114385
113602
113588
109992
108987
107745
110860
112819
111681
110394
105846
104706
103967
103514
106383
115284
115050
101124
102415
101858
115656
115064
114736
115559
115532
114282
114749
115228
115259
115396
106001
105293
104817
106495
107161
107816
108447
109111
110027
110401
103757
104009
111985
112862
111195
113388
113371
112743
112334
113784
112173
114309
114230
114354
114225
102297
102980
102851
102951
102406
102759
103390
103119
100617
100471
100356
100253
100553
101081
101287
100902
101388
101564
101777
100816
100675
101737
101945
101814
101468
101943
100189
99979.2
99909.2
100087
101125
114408
113698
113071
113009
109424
108499
107425
110639
110399
112018
111020
109668
105011
105887
103840
103470
102530
106006
114609
114453
101125
101775
115102
114822
114680
114200
115086
114983
113926
114356
114812
114821
115030
105794
106254
104987
105422
104448
106478
107369
108050
108901
109175
109832
110739
103399
103776
103829
112172
112724
111645
113988
114205
111995
113385
113811
111430
114549
113967
114069
113883
102258
102323
102812
102946
102634
102788
103160
100453
100353
100264
100549
101042
101317
100941
101463
101638
101849
100774
100698
101652
102076
102032
101712
102051
100131
99827.6
100028
99929.7
99866
101251
101584
113766
113108
112509
112439
108719
107836
106755
110027
109766
111671
110621
109331
104529
105051
103244
102628
102128
106219
105288
114213
114108
99493.6
100574
100965
114815
114291
114064
113727
114679
114648
113541
114005
114282
114436
114488
114568
105833
106135
104756
105408
104527
106878
107439
108167
108932
109470
109896
110724
103281
103355
103568
104036
113169
111611
115130
114194
110664
113716
115551
112601
108516
113855
113614
113536
102015
103916
102786
102856
102614
102665
103023
100495
100404
100310
100220
100611
101118
101445
101257
100913
101572
101775
101979
100832
100688
101883
102179
102095
101725
102148
100146
99790.6
100024
99913.1
99842.2
101228
101303
113323
112548
112013
111908
108219
107461
106777
109548
110040
109441
111139
110705
108785
103671
104817
102361
102171
101424
105586
105019
113678
113556
99908
100564
114347
114134
113944
113657
113299
114285
114198
113243
113383
113664
113748
114005
114038
114216
105405
105985
105290
105001
104204
106795
107363
107921
108641
109206
109717
110375
111186
103071
103184
103470
103808
112774
112093
117249
115017
111881
115864
118121
112177
103084
113446
113504
113314
102589
105634
102545
102743
102734
102791
102599
102894
100497
100386
100330
100240
100639
101098
101526
101375
100993
101671
101802
102083
100874
100757
101819
102200
102268
102192
102238
100085
99743.6
99771.4
99954.7
99876.8
99774.6
101186
102058
113381
112778
112460
112013
111478
111472
107593
108279
106353
109064
109553
108798
111039
110286
103402
104112
101691
101401
100774
105694
104498
113372
99389.9
98611
99614.5
114061
113649
113493
113153
112880
113961
113298
112856
112934
113451
113534
113665
113749
105978
106245
105695
104352
104415
103889
107025
107199
107547
108447
109308
109920
110458
111199
102958
103168
102974
103137
104116
113063
111620
116698
120398
114259
111643
117912
115993
90000.7
112518
113566
112791
112781
102669
105039
102971
102638
102681
102654
102636
102736
100432
100553
100302
100188
100617
100725
101218
101519
101661
101358
100980
101922
102061
102213
100843
100780
101955
102298
102348
102272
102143
102327
100103
99694.7
99780.4
99946.1
99857.7
99751.4
102464
101914
112867
112517
111881
111528
111014
107096
107740
106524
108549
109092
109511
108412
110585
109831
102755
104069
100843
101619
100798
100072
105418
104111
112861
97932.3
99059.8
113609
113384
113117
112777
112509
113600
112965
112504
112624
113033
113178
113220
113442
104784
106333
105468
104093
103701
104711
105760
107090
107638
107762
108587
109239
110160
109348
110788
102850
103189
102826
102642
103712
112113
111511
117714
131408
114778
109944
120363
119466
91939.6
111456
111474
112470
102760
102359
103858
103250
102601
102529
102758
102740
100415
100542
100344
100192
100682
100744
101263
101655
101762
101518
101067
101964
102156
102337
100930
100883
102472
102487
102334
102407
100078
99674.5
99736.4
99901.4
100007
99792.9
99735.7
102271
102108
102406
112100
111801
111500
111078
110513
107169
107854
106036
108196
108652
108982
110349
109588
102056
103024
103619
100149
100681
100140
99361.9
104905
104025
112488
97243.7
97808.5
98280.1
113310
113023
112810
112367
112097
113325
112553
112066
112101
112707
112759
112844
113089
105890
104969
103953
104524
103998
105536
106984
107493
108707
109001
109517
110167
109329
110688
102669
102676
103009
102703
102621
103455
111675
110950
120827
149342
113044
163320
121330
116070
61144.9
111279
110581
111916
111804
103240
103317
102954
102637
102408
102666
102623
100468
100609
100332
100128
100261
100686
100833
101195
101426
101712
101762
101898
101543
101671
101040
102117
102289
102376
102433
100920
102497
102532
102482
102335
99490.4
99553.6
99910.7
99971.7
99813.3
99702.9
102043
101696
102492
111895
111373
111064
110682
110159
106701
107513
106150
108263
107741
108591
109055
109810
101556
102542
100108
99329.6
100415
99389.7
98879
104377
104921
103326
112024
96477.8
97013.9
97830.9
112924
112821
112476
112084
112160
111709
113009
112223
111693
111644
112310
112428
112435
112842
112910
103901
106051
103466
104001
104054
104244
107406
106797
108677
107153
108598
107991
108758
109785
110388
109247
102502
102330
102416
102746
102194
103104
110198
110501
113027
118294
111568
163336
118281
126368
127854
71731.5
110601
109940
111832
103411
103024
104188
102635
102575
102340
102343
102378
102346
100456
100603
100390
100145
100282
100778
100864
101318
101453
101871
101867
101977
101723
101831
101161
102211
102401
102547
102551
101039
102602
102612
102554
102406
99425.8
99568.1
99877.2
100009
99801.2
99656.2
99748
102610
102526
102409
111394
111039
110697
110271
109714
106656
106988
105801
107865
107527
108144
108806
109524
101812
100870
102716
99282.9
98783.8
99591.5
98095.6
103969
105320
104433
103387
111638
96319.8
97028.4
112728
112740
112429
112196
111697
111723
111388
111820
111203
111103
111997
112075
112097
112489
112548
103170
103685
103809
103860
104861
104428
104957
107493
105788
106044
108390
106710
108506
109557
110247
108967
108646
102266
102745
102404
102588
101801
102512
110168
109606
112062
119803
111116
172825
119449
150980
83416.2
110620
109869
108164
125434
102996
103114
104085
102419
102527
102343
102098
102155
102316
100521
100685
100361
100098
100230
100789
100969
101304
101586
101973
102114
101741
101859
101962
101156
102351
102210
102548
102621
102614
102642
101059
102709
102645
102714
102507
102620
99416.3
99548.2
99924.4
99992.1
99860.4
99701.5
99745.6
102564
102285
102193
102372
111093
110623
110366
109926
109470
106090
106786
107778
107128
108048
108391
109083
101259
100604
102161
99055.2
98121.2
99370
97502
104000
105152
104616
103029
111221
95393.4
96475.5
112404
112295
112149
111820
111392
111403
111020
111517
110954
110963
111611
111785
111817
112044
112161
112316
102363
103169
103808
104075
104139
104448
102928
103487
105219
104322
107270
107934
106072
109540
109904
110051
108985
108030
102163
102622
102412
102911
102437
102153
102542
110052
109092
103981
32518
108905
156345
71835.1
137907
110167
109122
109755
109084
102519
103184
107673
102349
102522
102345
101975
102096
102126
102168
100554
100652
100406
100120
100281
100893
101040
101438
101588
102116
102191
101894
102037
102114
101288
102462
102388
102662
102790
102769
102752
101183
102841
102757
102812
102610
102698
99399
99473.1
99626
99919.7
100052
99870.3
99694.2
99809.7
102524
102142
102527
102582
110716
110326
110517
110003
109567
109090
105887
106353
107340
107026
107678
108163
108278
108902
101397
99944.5
102410
98219.7
97740.8
97554.2
98675.5
96713.9
103444
105430
104490
110932
95688.9
94514.6
112153
112077
111870
111487
111064
111059
110794
111128
110460
110359
111334
111414
111546
111657
111879
111977
101494
104675
103060
104861
105135
101862
106903
104083
104441
107265
107480
106055
109513
109848
110123
107614
108541
102271
102138
102338
103048
103094
102830
102830
110219
109738
107305
89300.9
28987
69604.1
108945
81096.1
117948
109591
107468
115404
80704.6
102763
102692
105426
101567
102218
102174
101976
101789
101938
102016
100509
100727
100373
100197
100277
101009
100931
101169
101424
101734
102211
102352
101884
102051
102167
102115
101297
102628
102452
102834
102930
102905
102869
102961
102830
102927
102665
102648
102792
99413.5
99538.1
99676.5
99991.4
100058
99945.8
99768.6
99826.7
102158
102597
102569
102581
110484
109990
110139
109781
109234
108931
106012
106307
107180
106629
107826
107360
107901
108509
100908
99645.7
102044
97964
96856.3
96746.6
98723.9
96150.8
103338
105287
104895
104142
110569
95289.2
93229
111844
111755
111620
111259
110954
110807
110510
110865
110124
110454
110976
111178
111273
111480
111574
111780
101059
105277
103428
103775
104558
104295
102319
107939
101256
104740
103956
106180
105831
109364
109978
110193
107596
108030
109118
102077
102056
102309
102769
102296
102596
102248
103089
102454
110472
110328
103689
56516.6
103615
118215
102264
109066
108259
107506
88706.4
102307
102694
102289
101526
102197
101880
101644
101840
101678
101809
100530
100716
100864
100443
100217
100363
101118
101065
101268
101548
101702
102382
102458
102010
102221
102354
102316
101419
102779
102621
102988
103177
103033
103016
103168
102964
103042
102669
102656
102846
99501.4
99623.5
99754.3
100010
100146
99961.4
99904.5
101760
102394
102477
102517
102571
110150
109786
109845
109466
109201
108607
105629
105952
106770
106539
107686
107116
107785
108371
100056
101314
102295
97172.9
96237.6
96106.4
98126
95749.5
103725
102799
104753
104285
110249
94470
93236.5
93033.3
111604
111545
111353
110964
110580
110466
110787
110400
110263
109514
110233
110729
110930
111075
111236
111355
111529
102273
103395
106223
103844
103826
103744
102836
105399
100280
104577
104536
106089
109830
110058
110478
106547
108693
109149
102283
101920
102012
102358
102860
101809
102714
102798
102027
110719
110661
109534
90236.7
96407.9
110899
112104
96607.6
108102
109078
97829.7
89738.1
102419
102669
103302
99918.2
100847
101899
101926
101703
101756
101436
101675
100629
100844
100925
100446
100299
100374
101242
101125
101408
101542
101800
102485
102640
102196
102021
102382
102439
102773
102967
103185
103284
103316
103225
103168
103280
103247
103048
103211
102759
102673
102949
99502.4
99684.9
99815.7
100093
100164
100027
99903.8
102986
102531
102603
102466
102590
109893
109427
109569
108869
108471
105613
105933
106623
106197
107301
106773
107486
108032
99634.2
101075
101727
97261.4
96378.3
95402.8
95352.4
98044.6
95685.1
103428
102898
104947
104104
109890
95095.4
92241.9
91494.4
111368
111191
111139
110851
110252
110460
110120
110005
109313
110410
109892
110771
110785
111096
110811
111088
111354
102925
106928
105996
102429
103720
104424
103635
102792
104785
102177
104344
104179
103819
109798
110487
110755
105928
108915
107767
109480
102328
101914
102403
102412
102769
102171
103019
103035
102132
103011
111333
112109
106290
112841
115236
118760
108216
107251
101078
98855.5
102151
102457
101738
100332
102412
101537
101562
101360
101396
101633
100654
100879
101050
100559
100365
100473
101353
101252
101523
101687
101928
102673
102807
102316
102188
102564
102656
102977
103146
103383
103547
103561
103324
103489
103483
103286
103363
102794
102683
103021
99410.6
99565.4
99648.5
99772.9
100097
100252
100087
99964.7
102027
102290
102583
102455
102598
102613
109607
109190
109274
108905
108577
108120
105306
105651
106312
106126
107138
106559
107265
107421
107933
100351
98734.3
101865
96480.9
95573.6
94506.8
94744.5
96906.7
96052.7
95315.9
103656
102534
104732
104366
109568
93820.7
89659.4
111130
110944
110595
110052
110267
110371
109940
109742
108714
109554
110277
109855
110559
110557
110859
110616
110872
111074
103831
103662
104279
105133
103351
103751
103639
103369
103655
105737
104166
103647
104947
103702
110106
110438
111237
106805
109384
107560
108648
109347
102216
101736
102443
103245
102344
102457
102936
102740
103359
102870
111984
113847
112080
118103
115839
118097
120254
107761
104950
100266
108066
101831
101841
100812
101616
102190
101338
101508
101482
101089
101164
101605
100779
101003
101145
100568
100465
100347
101357
101493
101324
101678
102020
102827
102778
103007
102438
102178
102742
102646
103149
103357
103642
103689
103669
103532
103616
103584
103610
103318
103426
103570
102930
102789
102777
103188
99433
99503.4
99667.3
99825.8
100178
100256
100056
100162
99921.8
102299
102363
102381
102534
102622
109309
109147
109091
108710
108291
108023
105371
105654
106211
105857
106822
106284
106592
107059
107130
107600
100209
98448.5
101536
95681.2
94715.3
93341.8
93621.3
96410.1
96027.8
95715.7
103486
102725
104880
104272
109532
109258
89605.7
95070.3
90221.6
110964
110679
110557
109963
109916
110108
109650
108715
109382
110025
110386
109575
110375
110793
110668
110428
110766
110870
103971
103685
105049
104966
102687
103505
104041
102260
105400
105050
105992
105292
104933
110174
110869
111572
108887
107582
108887
109650
101748
101629
101995
102758
102553
103320
102261
102309
102975
102950
112583
113585
116706
115193
116801
117703
107829
106152
104887
109611
101577
101556
102506
101662
101558
101091
101044
101310
101057
100890
101448
100834
101061
101118
101281
100675
100551
100421
101472
101594
101446
101779
102010
103057
103010
103220
102513
102557
102297
102944
102910
103368
103536
103871
103975
103931
103874
103805
103856
103585
103673
103747
102964
102837
102729
103329
99377.3
99518.1
99730.2
99604.6
99804.2
100336
100094
100232
99957.8
102010
102115
102426
102554
102596
108846
108780
108460
108265
107762
105156
105427
105979
105808
106828
106030
106338
106926
107514
100832
99352.7
97389.8
102068
94860.2
94019.2
92290
93675.9
95099.7
94578.5
103134
103703
102509
104750
104509
104019
109202
108963
83702.9
93149.6
89679.4
110719
110495
110278
109783
109572
109865
110071
109414
108374
109089
109963
110254
109524
110330
110596
110499
110305
110758
110512
110703
103600
103800
105857
105054
105300
103204
103046
103289
102925
104248
106723
105743
105294
105237
110551
111326
110546
112268
109604
106697
108440
108781
109697
101886
101524
102645
102643
102802
102115
102464
102800
102943
114047
115338
112558
116854
115181
115758
107330
106277
108015
101304
101498
103955
101202
101499
100881
101018
101242
100812
100670
101286
100789
100990
101184
101220
101370
100658
100524
100416
101576
101714
101543
101908
102172
103268
103167
103403
103328
102660
102465
102295
103041
103113
102993
103785
104109
103925
104177
104089
104023
103950
103958
103925
103606
103807
103843
103053
102843
102767
103342
99385.8
99256.5
99450.5
99749.3
99613.6
99845.6
100331
100180
100040
100248
99920.6
102413
102126
102375
102536
102703
108677
108604
108410
107971
107733
105222
105399
105563
106622
105952
106112
106381
106640
106974
107246
100615
99512.4
97153.1
102142
94405.3
92948.7
90830.7
92348.3
94542
94398.7
103149
103414
102855
104885
104489
104067
108946
109171
108697
84146.7
89643.8
85416.8
95776.2
110506
110258
109523
109430
109382
109627
109849
108582
109111
109821
110089
109659
109313
110139
110508
110355
110144
110482
110352
110469
103578
103561
103874
104412
104705
102999
103000
103316
103462
103086
105333
106374
105612
109811
111650
110750
112630
109546
107353
108162
108775
108301
101933
101503
102623
102808
103101
103146
102369
101878
102259
102725
102876
113335
113298
112202
115141
114262
114437
107967
107752
109221
101323
102838
101292
100930
101228
100575
100644
100976
100578
100770
100434
101016
100888
101005
101277
101340
101501
100754
100583
100508
101696
101797
101678
101982
102128
103483
103443
103589
103568
102818
102573
102438
103257
103316
103231
103916
104324
104198
104520
104320
104289
104163
104164
104166
103779
103943
104157
103227
103098
103149
102750
103737
99326.1
99457.5
99800.2
99694.8
99539.9
100409
100209
100073
100350
99931
101978
102294
101668
102449
102585
102671
108296
108170
107923
107470
105082
105178
105438
105724
105933
106184
106409
106759
107243
101078
99065
98125.1
95856.7
102699
101785
93099.7
92360.1
90912.2
91540.4
92464.1
92783.3
90395.9
103419
102841
104776
104349
104640
103888
108668
108947
108450
92973.9
86613.6
96321.8
110301
110072
109341
109175
109073
109381
109637
109844
108930
108598
109822
110051
109607
109324
110074
110360
110244
110051
110281
110282
110294
110300
103874
103320
103832
104479
104913
102980
102878
103361
103015
103524
102986
104961
106356
106746
105550
109606
111284
112188
110549
110343
107517
107677
108463
108615
101559
101278
102493
102662
102897
103103
101884
101659
102268
103035
102788
113387
112787
110770
114161
114273
113279
108441
108155
108828
100961
102713
100521
101273
101025
100472
100727
100858
100315
100540
100126
101033
100868
101095
101417
101307
101450
101580
100782
100702
100509
101792
101924
101796
102196
103741
103660
103792
103738
102906
102781
102504
103439
103550
103441
103259
104221
104557
104343
104501
104804
104460
104499
104346
104365
104355
104285
103876
104271
104407
103186
102843
99324.5
99183.4
99385.2
99846
99690.7
99539.3
100423
100301
100155
100010
100372
102354
102388
102006
102389
102569
102733
108150
108120
107652
107437
105094
105527
105202
105731
105957
106198
106370
106515
106795
107004
100693
99797.8
98110.9
95762.5
103067
102284
92013.9
90681
92283.9
93224
94589
92160.6
103077
102981
104806
104451
104587
104109
108446
108611
108719
108222
91015.9
93583.1
93666.3
110102
109101
109066
108985
109181
109424
109652
109075
108934
109898
109750
109668
109476
109230
109992
110114
110025
109952
110059
110088
110127
110090
104741
102876
102803
103096
102895
103060
104971
106445
107054
105769
109855
111222
112239
110412
109479
107598
107537
108555
101606
101742
102683
102596
102785
103149
102951
101818
101832
102769
112757
111940
110679
113366
113288
112614
108783
108727
109421
101584
100901
100693
100723
100112
100244
100742
100022
100179
100580
99928.2
100630
100947
101236
101051
101488
101433
101549
101702
100898
100768
100582
101898
101978
101944
101795
102102
102339
104004
103911
103935
103116
102838
102462
102687
103679
103721
103470
104374
104642
104771
104658
105083
104790
104611
104639
104645
104605
102827
99264.7
99400.9
99849.4
99767
99614.3
99472.9
100518
100292
100209
100026
100476
102134
102426
101685
102384
102502
102656
107920
107808
107603
107207
104919
105351
105033
105533
105775
105972
106104
106398
106549
106998
101467
99466.1
97358.6
94224.5
103337
103168
90032.5
89687.2
95930.2
94859.5
98433.3
89943.1
103350
104675
104488
104547
104010
108188
108347
108514
107994
89643.9
90717.2
93096.3
109923
108912
108829
108787
109214
108944
109432
109642
108982
109840
109738
109634
109454
109340
109935
110041
109866
109851
109889
109957
104800
102751
102738
102968
102744
105362
106514
106026
106925
105773
108698
110778
111620
110241
108308
107380
108350
101474
101140
102441
102284
102954
102987
102829
101744
101716
102844
112595
111701
111181
110047
112874
113017
112607
111982
108911
109256
100506
100929
100583
100511
100371
99970.4
100064
100797
99629.8
100007
100356
99563.1
101248
101264
101151
101624
101517
101667
101742
100969
100905
100704
101987
102052
101911
102111
102364
104049
104249
104100
104181
103245
103031
102624
102753
103943
103978
103696
103468
104649
104846
104996
104912
105098
105315
104857
105006
104884
104870
104764
99226.7
99145
99353.5
99935.9
99736.3
99581.2
99490.7
100557
100364
100201
100113
100470
102016
102407
102301
102296
102538
102667
107818
107740
107313
107149
104828
105141
104997
105472
105808
105580
105944
106014
106161
106495
106827
101334
100054
97821.3
94272.7
103553
103897
89024.1
89509.4
104413
108063
90583.5
89780.8
103684
104580
104850
104501
105108
108163
107965
108272
108483
88798.4
91582
92184
109746
108664
108654
108613
109024
108783
109242
109436
109214
109858
109671
109593
109517
109408
109823
109897
109794
109785
109775
109916
109850
102696
102718
104962
106548
105971
106874
105517
109394
108383
110695
111599
110293
107874
107251
107668
107376
101421
100617
102465
102249
102971
102817
102840
102717
101128
101765
101938
102770
112068
111077
110931
110128
112375
112449
112146
111686
109219
109374
101510
100907
100445
100216
99646.3
99794.7
100156
99372.9
99549.3
99722.7
99833.7
99295.9
100903
101374
101113
101709
101637
101496
101866
100992
100770
102189
102023
102235
102523
104346
104544
104150
104330
103218
102942
102655
104233
103892
103686
104755
104851
104878
105024
105280
105382
105580
105170
105299
105202
105052
99266.5
99136.1
99360
99952.5
99798.5
99643.6
99427.6
100682
100377
100291
100135
100549
102011
102370
102481
102339
102610
102498
107558
107510
107266
106887
104678
105092
104762