/*--------------------------------*- C++ -*----------------------------------*\
| =========                 |                                                 |
| \\      /  F ield         | OpenFOAM: The Open Source CFD Toolbox           |
|  \\    /   O peration     | Version:  v2012                                 |
|   \\  /    A nd           | Website:  www.openfoam.com                      |
|    \\/     M anipulation  |                                                 |
\*---------------------------------------------------------------------------*/
FoamFile
{
    version     2.0;
    format      ascii;
    class       pointVectorField;
    location    "1.5";
    object      pointDisplacement;
}
// * * * * * * * * * * * * * * * * * * * * * * * * * * * * * * * * * * * * * //

dimensions      [0 1 0 0 0 0 0];


internalField   nonuniform List<vector> 
16294
(
(0 0 0)
(0 0 0)
(0 0 0)
(0 0 0)
(0 0 0)
(0 0 0)
(0 0 0)
(0 0 0)
(0 0 0)
(0 0 0)
(0 0 0)
(0 0 0)
(0 0 0)
(0 0 0)
(0 0 0)
(0 0 0)
(0 0 0)
(0 0 0)
(0 0 0)
(0 0 0)
(0 0 0)
(0 0 0)
(0 0 0)
(0 0 0)
(0 0 0)
(0 0 0)
(0 0 0)
(0 0 0)
(0 0 0)
(0 0 0)
(0 0 0)
(0 0 0)
(0 0 0)
(0 0 0)
(0 0 0)
(0 0 0)
(0 0 0)
(0 0 0)
(0 0 0)
(0 0 0)
(0 0 0)
(0 0 0)
(0 0 0)
(0 0 0)
(0 0 0)
(0 0 0)
(0 0 0)
(0 0 0)
(0 0 0)
(0 0 0)
(0 0 0)
(0 0 0)
(0 0 0)
(0 0 0)
(0 0 0)
(0 0 0)
(0 0 0)
(0 0 0)
(0 0 0)
(0 0 0)
(0 0 0)
(0 0 0)
(0 0 0)
(0 0 0)
(0 0 0)
(0 0 0)
(0 0 0)
(0 0 0)
(0 0 0)
(0 0 0)
(0 0 0)
(0 0 0)
(0 0 0)
(0 0 0)
(0 0 0)
(0 0 0)
(0 0 0)
(0 0 0)
(0 0 0)
(0 0 0)
(0 0 0)
(0 0 0)
(0 0 0)
(0 0 0)
(0 0 0)
(0 0 0)
(0 0 0)
(0 0 0)
(0 0 0)
(0 0 0)
(0 0 0)
(0 0 0)
(0 0 0)
(0 0 0)
(0 0 0)
(0 0 0)
(0 0 0)
(0 0 0)
(0 0 0)
(0 0 0)
(0 0 0)
(0 0 0)
(0 0 0)
(0 0 0)
(0 0 0)
(0 0 0)
(0 0 0)
(-0.00372331 -0.0320847 0)
(-0.00367585 -0.0328416 0)
(-0.0036283 -0.033583 0)
(-0.00358075 -0.0343086 0)
(-0.0035333 -0.0350181 0)
(-0.00348602 -0.0357112 0)
(-0.00343902 -0.0363878 0)
(-0.00339235 -0.0370477 0)
(-0.0033461 -0.0376907 0)
(-0.00330034 -0.0383168 0)
(-0.00325511 -0.0389259 0)
(-0.00321048 -0.0395181 0)
(-0.0031665 -0.0400934 0)
(-0.00312321 -0.0406519 0)
(-0.00308067 -0.0411937 0)
(-0.00303889 -0.041719 0)
(-0.00299792 -0.0422279 0)
(-0.00295779 -0.0427206 0)
(-0.00291851 -0.0431974 0)
(-0.00288011 -0.0436583 0)
(-0.00284261 -0.0441039 0)
(-0.00280602 -0.0445343 0)
(-0.00277035 -0.0449499 0)
(-0.00273561 -0.0453509 0)
(-0.0027018 -0.0457375 0)
(-0.00266892 -0.0461103 0)
(-0.00263698 -0.0464695 0)
(-0.00260597 -0.0468154 0)
(-0.00257589 -0.0471484 0)
(-0.00254672 -0.0474689 0)
(-0.00251846 -0.0477772 0)
(-0.00249111 -0.0480736 0)
(-0.00246464 -0.0483585 0)
(-0.00243904 -0.0486322 0)
(-0.00241431 -0.0488952 0)
(-0.00239042 -0.0491476 0)
(-0.00236736 -0.04939 0)
(-0.00234511 -0.0496226 0)
(-0.00232365 -0.0498456 0)
(-0.00230297 -0.0500596 0)
(-0.00228305 -0.0502648 0)
(-0.00226386 -0.0504614 0)
(-0.00224539 -0.0506499 0)
(-0.00222763 -0.0508305 0)
(-0.00221054 -0.0510035 0)
(-0.00219411 -0.0511691 0)
(-0.00217832 -0.0513278 0)
(-0.00216315 -0.0514796 0)
(-0.00214858 -0.0516249 0)
(-0.00213459 -0.051764 0)
(-0.00212117 -0.051897 0)
(-0.00210828 -0.0520243 0)
(-0.00209593 -0.0521461 0)
(-0.00208408 -0.0522626 0)
(-0.00207272 -0.0523739 0)
(-0.00206183 -0.0524803 0)
(-0.0020514 -0.0525821 0)
(-0.00204141 -0.0526793 0)
(-0.00203183 -0.0527723 0)
(-0.00202267 -0.0528611 0)
(-0.00201389 -0.052946 0)
(-0.00200549 -0.053027 0)
(-0.00199745 -0.0531045 0)
(-0.00198976 -0.0531785 0)
(-0.00198239 -0.0532492 0)
(-0.00194689 -0.0532504 0)
(-0.00191097 -0.0532517 0)
(-0.0018749 -0.053253 0)
(-0.00183897 -0.0532543 0)
(-0.00180347 -0.0532555 0)
(-0.00179111 -0.0531856 0)
(-0.00177818 -0.0531123 0)
(-0.00176466 -0.0530356 0)
(-0.00175052 -0.0529553 0)
(-0.00173575 -0.0528713 0)
(-0.00172029 -0.0527834 0)
(-0.00170414 -0.0526913 0)
(-0.00168727 -0.052595 0)
(-0.00166964 -0.0524943 0)
(-0.00165122 -0.0523889 0)
(-0.00163199 -0.0522786 0)
(-0.0016119 -0.0521633 0)
(-0.00159093 -0.0520427 0)
(-0.00156904 -0.0519167 0)
(-0.0015462 -0.0517849 0)
(-0.00152238 -0.0516472 0)
(-0.00149752 -0.0515032 0)
(-0.00147161 -0.0513529 0)
(-0.0014446 -0.0511958 0)
(-0.00141645 -0.0510317 0)
(-0.00138712 -0.0508604 0)
(-0.00135658 -0.0506815 0)
(-0.00132477 -0.0504948 0)
(-0.00129167 -0.0503001 0)
(-0.00125723 -0.0500968 0)
(-0.00122141 -0.0498848 0)
(-0.00118417 -0.0496638 0)
(-0.00114546 -0.0494334 0)
(-0.00110525 -0.0491933 0)
(-0.0010635 -0.0489432 0)
(-0.00102016 -0.0486827 0)
(-0.000975188 -0.0484114 0)
(-0.000928556 -0.0481291 0)
(-0.000880222 -0.0478354 0)
(-0.000830148 -0.0475299 0)
(-0.000778301 -0.0472123 0)
(-0.000724646 -0.0468823 0)
(-0.000669157 -0.0465395 0)
(-0.00061179 -0.0461834 0)
(-0.000552531 -0.0458139 0)
(-0.000491345 -0.0454306 0)
(-0.000428225 -0.0450331 0)
(-0.000363141 -0.0446212 0)
(-0.000296082 -0.0441944 0)
(-0.000227036 -0.0437526 0)
(-0.000156004 -0.0432955 0)
(-8.29706e-05 -0.0428227 0)
(-7.95392e-06 -0.0423342 0)
(6.9044e-05 -0.0418294 0)
(0.000148012 -0.0413085 0)
(0.000228916 -0.0407711 0)
(0.000311747 -0.0402171 0)
(0.000396467 -0.0396463 0)
(0.000483036 -0.0390587 0)
(0.000571395 -0.0384544 0)
(0.000661501 -0.0378331 0)
(0.000753291 -0.037195 0)
(0.00084669 -0.0365401 0)
(0.000941618 -0.0358686 0)
(0.00103798 -0.0351806 0)
(0.00113569 -0.0344763 0)
(0.00123465 -0.0337558 0)
(0.00133472 -0.0330197 0)
(0.0014358 -0.032268 0)
(0.00067498 -0.0187385 0)
(0.000826039 -0.01849 0)
(0.000775152 -0.0154625 0)
(0.00115469 -0.0212323 0)
(0.00111861 -0.0195603 0)
(0.00102041 -0.0212936 0)
(0.000675183 -0.0262607 0)
(0.00084406 -0.0248427 0)
(0.000735956 -0.0244564 0)
(0.000443064 -0.00744056 0)
(0.000381956 -0.00878774 0)
(0.000638436 -0.0108132 0)
(0.00102106 -0.023156 0)
(0.00112144 -0.0238629 0)
(0.00117539 -0.0225359 0)
(6.32971e-05 -0.0180835 0)
(-6.47321e-05 -0.0212175 0)
(4.3149e-05 -0.0225378 0)
(0.000540646 -0.0129788 0)
(0.000352678 -0.0128147 0)
(0.00027125 -0.00496409 0)
(0.000610458 -0.0343714 0)
(0.000530802 -0.0355043 0)
(0.000646367 -0.0346648 0)
(0.00149177 -0.0298593 0)
(0.00137058 -0.0310365 0)
(0.00149752 -0.030225 0)
(7.69938e-05 -0.0248343 0)
(0.000189031 -0.0249089 0)
(0.000156057 -0.0228311 0)
(0.000483158 -0.0277614 0)
(0.000333365 -0.0275511 0)
(0.000317787 -0.0292429 0)
(-9.68307e-05 -0.0289182 0)
(-3.07809e-05 -0.0299546 0)
(4.55887e-05 -0.0272697 0)
(5.9408e-05 -0.013178 0)
(0.000194127 -0.0148135 0)
(0.000120557 -0.0104904 0)
(0.000220292 -0.00764677 0)
(0.000172796 -0.00415262 0)
(0.000596549 -0.0377775 0)
(0.000605529 -0.0375833 0)
(0.000496589 -0.0383129 0)
(0.00123528 -0.0319103 0)
(0.00120298 -0.0317034 0)
(0.00109803 -0.0328293 0)
(-9.44903e-05 -0.0342502 0)
(-0.000155653 -0.0358534 0)
(-3.80944e-05 -0.0345213 0)
(-0.000327772 -0.0393117 0)
(-0.000250979 -0.0381414 0)
(-0.000375001 -0.039175 0)
(-0.000289427 -0.0294723 0)
(-0.000268239 -0.0270271 0)
(-0.00034941 -0.0287813 0)
(-0.000176322 -0.0243239 0)
(-8.42939e-05 -0.0242904 0)
(0.000198781 -0.0103811 0)
(0.000103451 -0.00355084 0)
(0.000632019 -0.0372642 0)
(0.00108448 -0.0340713 0)
(0.000980486 -0.0347436 0)
(0.001002 -0.0348035 0)
(0.0014392 -0.032041 0)
(0.00147092 -0.0318915 0)
(-0.000743715 -0.0404119 0)
(-0.000664641 -0.0399389 0)
(-0.000682375 -0.039272 0)
(-0.000165404 -0.0283907 0)
(-4.98182e-05 -0.0262153 0)
(-0.000172851 -0.0267165 0)
(0.000193403 -0.0376456 0)
(0.000176483 -0.0384021 0)
(0.000287977 -0.0372501 0)
(-0.00210635 -0.016813 0)
(-0.00177199 -0.0154643 0)
(-0.00196073 -0.0189384 0)
(-0.00206711 -0.018268 0)
(-0.00219853 -0.020618 0)
(-0.00317247 -0.0264118 0)
(-0.000501742 -0.0275667 0)
(-0.00050373 -0.0292952 0)
(-0.000397321 -0.0266484 0)
(-0.000189078 -0.0212454 0)
(-0.00016908 -0.0168763 0)
(-0.000280121 -0.0205413 0)
(9.06715e-05 -0.00558368 0)
(4.60105e-05 -0.00812253 0)
(-1.48224e-05 -0.0105348 0)
(0.000375675 -0.0398194 0)
(0.000344147 -0.0400191 0)
(0.000269975 -0.0405408 0)
(-0.00043004 -0.0442521 0)
(-0.00037876 -0.0436723 0)
(-0.000483496 -0.0444444 0)
(0.000402105 -0.0394769 0)
(0.000495129 -0.03881 0)
(0.00043946 -0.0391168 0)
(0.0015306 -0.0312484 0)
(-0.000821998 -0.0369367 0)
(-0.000748539 -0.0353868 0)
(-0.000828103 -0.0360114 0)
(-0.00092765 -0.0467142 0)
(-0.000996619 -0.0473087 0)
(-0.000918817 -0.04692 0)
(-0.0013851 -0.0111284 0)
(-0.000940351 -0.00818996 0)
(-0.00188571 -0.0199188 0)
(-0.00165763 -0.0167566 0)
(-0.00261365 -0.025203 0)
(-0.00272948 -0.025448 0)
(-0.00270577 -0.0269948 0)
(-0.000280497 -0.0250857 0)
(-0.00034449 -0.0273511 0)
(-0.00024078 -0.0161486 0)
(-0.000151603 -0.0133091 0)
(-0.000147047 -0.0104219 0)
(2.37148e-05 -0.00379837 0)
(-9.93966e-05 -0.00987382 0)
(-4.56336e-05 -0.00733104 0)
(-6.01637e-05 -0.0054793 0)
(-0.000218515 -0.0435851 0)
(-0.000283291 -0.0441031 0)
(-0.000174209 -0.0433531 0)
(0.000483257 -0.0389691 0)
(-0.000229287 -0.0428064 0)
(-0.00025637 -0.0432495 0)
(-0.000141534 -0.0422652 0)
(0.000593289 -0.0382227 0)
(0.00068506 -0.0376062 0)
(0.000699304 -0.0374339 0)
(0.00143005 -0.0323046 0)
(0.00147163 -0.0319828 0)
(-0.00139514 -0.043494 0)
(-0.00143898 -0.0443205 0)
(-0.00138613 -0.0438818 0)
(-0.00118445 -0.0499508 0)
(-0.00115411 -0.0496837 0)
(-0.00120979 -0.0500611 0)
(-0.00047901 -0.032609 0)
(-0.000538366 -0.0342787 0)
(-0.000438921 -0.0331666 0)
(-0.000923156 -0.0481924 0)
(-0.000921931 -0.0482826 0)
(-0.000857227 -0.0478289 0)
(-0.0030055 -0.0408246 0)
(-0.00297702 -0.0406105 0)
(-0.00304634 -0.0397689 0)
(-0.00355922 -0.0307983 0)
(-0.00167903 -0.0189975 0)
(-0.00236735 -0.0355338 0)
(-0.00234429 -0.0367762 0)
(-0.00228166 -0.0353975 0)
(-0.00250064 -0.0301609 0)
(-0.00259179 -0.0311714 0)
(-0.00253749 -0.0318842 0)
(-0.000360238 -0.0206 0)
(-2.72665e-06 -0.00500745 0)
(-8.98021e-05 -0.0125689 0)
(-8.51841e-05 -0.0429039 0)
(-0.000127445 -0.0432033 0)
(-0.000157443 -0.04338 0)
(0.000265918 -0.0405697 0)
(0.000332421 -0.040118 0)
(0.000308211 -0.0402857 0)
(-0.000759398 -0.0473969 0)
(-0.000832728 -0.047867 0)
(-0.000816064 -0.0477681 0)
(0.000818158 -0.0365912 0)
(0.000858389 -0.0363617 0)
(0.000938137 -0.035731 0)
(0.00105673 -0.0350402 0)
(0.000976616 -0.0356162 0)
(0.00103002 -0.0352385 0)
(0.0012736 -0.0334508 0)
(0.00132963 -0.0330504 0)
(0.0013772 -0.0326876 0)
(0.00150073 -0.0317287 0)
(-0.000993639 -0.0401191 0)
(-0.00104617 -0.0400394 0)
(-0.00106791 -0.0408684 0)
(-0.00182794 -0.0496935 0)
(-0.00184107 -0.0502304 0)
(-0.00179717 -0.0497553 0)
(-0.000685531 -0.0289877 0)
(-0.000783545 -0.0305942 0)
(-0.000764646 -0.0313185 0)
(-0.0016245 -0.052764 0)
(-0.00158885 -0.0525643 0)
(-0.00162349 -0.0527604 0)
(-0.00270479 -0.0471288 0)
(-0.00271462 -0.0470894 0)
(-0.00267699 -0.047632 0)
(-0.00356305 -0.033428 0)
(-0.0035203 -0.0343501 0)
(-0.0035134 -0.0339806 0)
(-0.00133532 -0.012604 0)
(-0.000900764 -0.00907373 0)
(-0.000500518 -0.00398767 0)
(-0.00221455 -0.0293471 0)
(-0.00207602 -0.0270932 0)
(-0.00221392 -0.0277723 0)
(-0.00239456 -0.0333553 0)
(-0.0024257 -0.0348442 0)
(-0.00235379 -0.0341041 0)
(-0.00268597 -0.0393499 0)
(-0.00262545 -0.0386821 0)
(-0.0026779 -0.0381538 0)
(-0.000487161 -0.0195752 0)
(-0.000359015 -0.0159394 0)
(-0.000376631 -0.0151256 0)
(-0.000566687 -0.0233217 0)
(-0.000617764 -0.0233675 0)
(-0.000678718 -0.0261518 0)
(-0.000229779 -0.0132386 0)
(-0.00033335 -0.0172032 0)
(-0.000253389 -0.0125276 0)
(-7.73625e-05 -0.00504858 0)
(-7.34826e-05 -0.0428591 0)
(-5.80956e-05 -0.0427408 0)
(3.75468e-08 -0.0423637 0)
(-0.000313336 -0.0444402 0)
(-0.000266848 -0.0441168 0)
(-0.000242671 -0.0439768 0)
(0.000175966 -0.041185 0)
(0.000194169 -0.0410492 0)
(0.000226841 -0.0408399 0)
(0.000188804 -0.0410915 0)
(-0.000973418 -0.0486614 0)
(-0.00103591 -0.0490536 0)
(-0.00102372 -0.0490285 0)
(0.000752109 -0.0372158 0)
(0.000842966 -0.0365745 0)
(0.000794403 -0.0369164 0)
(0.000936712 -0.0359078 0)
(0.000883845 -0.0362807 0)
(0.000952718 -0.0357012 0)
(0.00103881 -0.0351064 0)
(0.00104245 -0.0350165 0)
(-0.00115697 -0.0358278 0)
(-0.00122432 -0.0372179 0)
(-0.00117144 -0.036686 0)
(-0.00140205 -0.0410471 0)
(-0.00144855 -0.0416658 0)
(-0.00143648 -0.0420826 0)
(-0.00182287 -0.0529238 0)
(-0.00178608 -0.0527945 0)
(-0.00179765 -0.052712 0)
(-0.00101729 -0.0326873 0)
(-0.000975913 -0.0312385 0)
(-0.00103414 -0.0321815 0)
(-0.001755 -0.0533033 0)
(-0.00172803 -0.0531263 0)
(-0.00175668 -0.0532471 0)
(-0.00130792 -0.0507004 0)
(-0.00136121 -0.0510529 0)
(-0.0013327 -0.0509246 0)
(-0.00353738 -0.0351135 0)
(-0.00353659 -0.035101 0)
(-0.00349958 -0.0356801 0)
(-0.00306343 -0.0402101 0)
(-0.000457416 -0.00488647 0)
(-0.000476287 -0.00441964 0)
(-0.00151117 -0.0210561 0)
(-0.00175719 -0.0252063 0)
(-0.00157454 -0.0233163 0)
(-0.00231628 -0.0296678 0)
(-0.00233939 -0.0314122 0)
(-0.00313193 -0.0394914 0)
(-0.00310057 -0.0393912 0)
(-0.00045034 -0.0202076 0)
(-0.000674977 -0.023711 0)
(-0.000694501 -0.023136 0)
(-0.000750908 -0.0251798 0)
(-0.000163573 -0.00917352 0)
(-0.000242272 -0.0104499 0)
(-0.000172599 -0.00841517 0)
(-0.000267458 -0.0441554 0)
(-0.000313498 -0.0444685 0)
(-0.000231714 -0.0439245 0)
(-0.000282636 -0.0442543 0)
(0.00048258 -0.0390865 0)
(0.000567972 -0.0384982 0)
(0.000525291 -0.0387953 0)
(0.000417934 -0.0395149 0)
(-0.0013842 -0.0512289 0)
(-0.00142417 -0.0515003 0)
(-0.0014301 -0.051504 0)
(-0.000881434 -0.0480338 0)
(-0.000846216 -0.0478416 0)
(-0.000883831 -0.0480964 0)
(0.00072054 -0.0374388 0)
(0.00125039 -0.0335956 0)
(0.00118933 -0.034057 0)
(-0.00129247 -0.0382555 0)
(-0.00135902 -0.0391723 0)
(-0.00132667 -0.0392976 0)
(-0.00199185 -0.0527264 0)
(-0.00201863 -0.0527494 0)
(-0.00201268 -0.0529678 0)
(-0.00194393 -0.0532343 0)
(-0.00196662 -0.0534419 0)
(-0.00194166 -0.0534161 0)
(-0.000939155 -0.0330273 0)
(-0.000967833 -0.0325527 0)
(-0.00100453 -0.03408 0)
(-0.00180029 -0.0536465 0)
(-0.00180629 -0.0536576 0)
(-0.00178326 -0.053564 0)
(-0.00151709 -0.0521458 0)
(-0.00151444 -0.0521285 0)
(-0.00155253 -0.0523539 0)
(-0.00374413 -0.0318484 0)
(-0.00318169 -0.0398415 0)
(-0.00322284 -0.0391042 0)
(-0.00324074 -0.0390475 0)
(-0.00267246 -0.0470296 0)
(-0.00266567 -0.0473762 0)
(-0.00263939 -0.0475978 0)
(-0.00260075 -0.0428672 0)
(-0.00263753 -0.0431016 0)
(-0.00258881 -0.0437522 0)
(-0.00083102 -0.00938203 0)
(-0.00127534 -0.0140592 0)
(-0.00145227 -0.0182631 0)
(-0.000986378 -0.0122557 0)
(-0.00195213 -0.0282112 0)
(-0.00192719 -0.0262847 0)
(-0.00209859 -0.0383217 0)
(-0.0020645 -0.0369452 0)
(-0.00213627 -0.0378716 0)
(-0.00234245 -0.0470187 0)
(-0.00231194 -0.0464909 0)
(-0.0023353 -0.0464013 0)
(-0.00082206 -0.0271762 0)
(-0.000757874 -0.0260745 0)
(-8.76824e-05 -0.0046271 0)
(-6.54007e-06 -0.042387 0)
(-0.00036757 -0.0447827 0)
(-0.000363306 -0.0447275 0)
(-0.000321571 -0.0444724 0)
(0.000453608 -0.0392885 0)
(0.000446637 -0.0393372 0)
(7.67991e-05 -0.0418523 0)
(0.000113125 -0.0416003 0)
(0.00014931 -0.0413654 0)
(-0.00116251 -0.0497862 0)
(-0.0011681 -0.0498602 0)
(-0.0011997 -0.0500285 0)
(-0.000829324 -0.0476999 0)
(-0.000776972 -0.0473754 0)
(-0.000809766 -0.0476054 0)
(-0.000955068 -0.0485183 0)
(-0.000931107 -0.0483381 0)
(-0.000920838 -0.0483127 0)
(-0.00176689 -0.0471537 0)
(-0.00175829 -0.0465432 0)
(-0.00179945 -0.0471704 0)
(-0.000949148 -0.0312648 0)
(-0.000903266 -0.0295587 0)
(-0.00188742 -0.0483653 0)
(-0.00192221 -0.0485723 0)
(-0.00192144 -0.0490021 0)
(-0.00221089 -0.0532393 0)
(-0.00219526 -0.0532803 0)
(-0.00221316 -0.0530855 0)
(-0.00198705 -0.0469298 0)
(-0.00199736 -0.0476471 0)
(-0.00196061 -0.0470173 0)
(-0.0018359 -0.0537345 0)
(-0.0018462 -0.0538008 0)
(-0.00182263 -0.0537127 0)
(-0.000815109 -0.0280343 0)
(-0.00176682 -0.0534789 0)
(-0.00178648 -0.0535657 0)
(-0.00174358 -0.0533728 0)
(-0.00175007 -0.0533831 0)
(-0.00172914 -0.0532917 0)
(-0.00155695 -0.0523076 0)
(-0.00152478 -0.0521054 0)
(-0.00153031 -0.0521725 0)
(-0.00360167 -0.0341188 0)
(-0.00365497 -0.033282 0)
(-0.00360665 -0.0340342 0)
(-0.00346687 -0.0361395 0)
(-0.003483 -0.0358648 0)
(-0.0034382 -0.0365231 0)
(-0.00325745 -0.0392836 0)
(-0.0033051 -0.0385819 0)
(-0.00326047 -0.0392174 0)
(-0.00300202 -0.0429828 0)
(-0.00304712 -0.0423297 0)
(-0.0030443 -0.0423768 0)
(-0.00275136 -0.0465893 0)
(-0.0027775 -0.0462306 0)
(-0.00278531 -0.0461003 0)
(-0.00271245 -0.0471827 0)
(-0.00274292 -0.0467349 0)
(-0.0027184 -0.047081 0)
(-0.00244221 -0.0490044 0)
(-0.00243775 -0.049542 0)
(-0.00241436 -0.0494775 0)
(-0.000480238 -0.00588768 0)
(-0.000698446 -0.00951606 0)
(-0.00135486 -0.0201729 0)
(-0.00150802 -0.0235965 0)
(-0.00125094 -0.0200827 0)
(-0.00136319 -0.0244272 0)
(-0.00148355 -0.0259648 0)
(-0.00146995 -0.0268451 0)
(-0.00218136 -0.0373638 0)
(-0.00224778 -0.0388148 0)
(-0.00219593 -0.0386915 0)
(-0.00204897 -0.0452128 0)
(-0.00205978 -0.0446369 0)
(-0.00209191 -0.0455464 0)
(-0.000508367 -0.0179185 0)
(-0.000394401 -0.0146527 0)
(-0.00040263 -0.013959 0)
(-0.000505682 -0.0169293 0)
(-0.000551741 -0.01767 0)
(-0.000607175 -0.0200746 0)
(-0.000106953 -0.00488823 0)
(-0.00021381 -0.0083695 0)
(-0.000135114 -0.00563371 0)
(4.58947e-05 -0.0420653 0)
(-0.000530015 -0.0458443 0)
(-0.00052734 -0.0458532 0)
(-0.000586197 -0.0462202 0)
(0.000109649 -0.0416358 0)
(-0.00106519 -0.049219 0)
(-0.00102818 -0.0489527 0)
(-0.00103232 -0.0490303 0)
(-0.00113128 -0.0495799 0)
(-0.00114868 -0.0496623 0)
(-0.000776759 -0.0474123 0)
(-0.000815346 -0.0476704 0)
(-0.00099163 -0.0487586 0)
(-0.000975806 -0.0486194 0)
(-0.00113455 -0.0310888 0)
(-0.00114542 -0.0306098 0)
(-0.00120537 -0.0324298 0)
(-0.00154625 -0.037731 0)
(-0.00149621 -0.0363139 0)
(-0.00156122 -0.037412 0)
(-0.0021142 -0.0529382 0)
(-0.00211736 -0.0531584 0)
(-0.00209555 -0.0530183 0)
(-0.00205631 -0.0541896 0)
(-0.00207206 -0.0541577 0)
(-0.00206878 -0.0541812 0)
(-0.00214466 -0.0485662 0)
(-0.00213132 -0.0490871 0)
(-0.00211157 -0.0485194 0)
(-0.00201197 -0.0542093 0)
(-0.00202067 -0.0541959 0)
(-0.0020042 -0.0541896 0)
(-0.000878518 -0.0261653 0)
(-0.000806333 -0.0248219 0)
(-0.000814169 -0.0243074 0)
(-0.00174771 -0.0531139 0)
(-0.00175322 -0.0531117 0)
(-0.00173264 -0.0530079 0)
(-0.00161139 -0.0525937 0)
(-0.00158474 -0.0524532 0)
(-0.00161465 -0.0526456 0)
(-0.00143635 -0.0514 0)
(-0.00141069 -0.0512297 0)
(-0.00141082 -0.0512669 0)
(-0.00147785 -0.0516612 0)
(-0.00150286 -0.0518104 0)
(-0.00148192 -0.0516399 0)
(-0.00357981 -0.0344207 0)
(-0.00352693 -0.0352139 0)
(-0.00362652 -0.0337108 0)
(-0.00338908 -0.0372376 0)
(-0.00335462 -0.0377721 0)
(-0.00338607 -0.0373332 0)
(-0.00345837 -0.0362987 0)
(-0.00347043 -0.0361324 0)
(-0.00369922 -0.0325841 0)
(-0.00371976 -0.0322304 0)
(-0.00336525 -0.0376687 0)
(-0.00332174 -0.0382855 0)
(-0.00334013 -0.0380576 0)
(-0.00325415 -0.039131 0)
(-0.00325077 -0.0392583 0)
(-0.00328767 -0.0387207 0)
(-0.00304412 -0.0421092 0)
(-0.00300168 -0.0426905 0)
(-0.00303413 -0.0423186 0)
(-0.00283385 -0.0452725 0)
(-0.0028648 -0.0448071 0)
(-0.00283831 -0.0451284 0)
(-0.00276167 -0.0462193 0)
(-0.00274209 -0.0465827 0)
(-0.00277566 -0.0461112 0)
(-0.00248679 -0.050234 0)
(-0.00246096 -0.0506731 0)
(-0.00245812 -0.0506241 0)
(-0.00212276 -0.0504836 0)
(-0.00215609 -0.0504936 0)
(-0.00214383 -0.0508633 0)
(-0.000322449 -0.00438651 0)
(-0.00113683 -0.0157804 0)
(-0.000819415 -0.0121572 0)
(-0.000839354 -0.0143591 0)
(-0.00106689 -0.0179879 0)
(-0.00102426 -0.0182788 0)
(-0.000913213 -0.0146192 0)
(-0.00110079 -0.0166408 0)
(-0.00156491 -0.0292699 0)
(-0.00143335 -0.0271719 0)
(-0.00163176 -0.033227 0)
(-0.00164038 -0.0325635 0)
(-0.00171209 -0.0344568 0)
(-0.00199188 -0.0419777 0)
(-0.00197913 -0.0424582 0)
(-0.00194051 -0.041595 0)
(-0.000306528 -0.0119893 0)
(-0.000299309 -0.0109996 0)
(-0.00059465 -0.0181753 0)
(-0.000650483 -0.0203983 0)
(-0.00068505 -0.0207374 0)
(-0.000670374 -0.0197907 0)
(-0.000763147 -0.0224617 0)
(-0.000103711 -0.00403701 0)
(-0.000470151 -0.0454426 0)
(-0.000525162 -0.04579 0)
(-0.00115259 -0.0498405 0)
(-0.00120604 -0.0501816 0)
(-0.00119497 -0.050085 0)
(-0.00124126 -0.0502914 0)
(-0.0012507 -0.0502963 0)
(-0.00122128 -0.0501258 0)
(-0.000736136 -0.0471705 0)
(-0.000689994 -0.046889 0)
(-0.00074021 -0.0472261 0)
(-0.00110051 -0.0494301 0)
(-0.00107068 -0.0492182 0)
(-0.00166322 -0.0386875 0)
(-0.00166466 -0.0379949 0)
(-0.00171369 -0.0394377 0)
(-0.00129228 -0.0316141 0)
(-0.00135809 -0.0333293 0)
(-0.00128629 -0.0321584 0)
(-0.00108212 -0.0290261 0)
(-0.00106672 -0.0293413 0)
(-0.00224902 -0.0532341 0)
(-0.00223406 -0.0533621 0)
(-0.00224001 -0.0533035 0)
(-0.00204196 -0.0538411 0)
(-0.00205114 -0.0537926 0)
(-0.00203454 -0.053784 0)
(-0.00191873 -0.0538435 0)
(-0.00190527 -0.0537664 0)
(-0.00190411 -0.0538167 0)
(-0.000869499 -0.0251164 0)
(-0.000966703 -0.0269846 0)
(-0.000947904 -0.0274065 0)
(-0.00182419 -0.0535007 0)
(-0.00180723 -0.0533876 0)
(-0.00180646 -0.053429 0)
(-0.0017605 -0.0531819 0)
(-0.00168733 -0.0529049 0)
(-0.00170545 -0.05302 0)
(-0.00170695 -0.052991 0)
(-0.00161273 -0.0524351 0)
(-0.00162181 -0.052445 0)
(-0.0016017 -0.0523296 0)
(-0.00136011 -0.0508927 0)
(-0.00138666 -0.0510901 0)
(-0.00139432 -0.051097 0)
(-0.00150408 -0.0517748 0)
(-0.00152569 -0.0519099 0)
(-0.00362421 -0.0337261 0)
(-0.00339874 -0.0371811 0)
(-0.00342328 -0.0367894 0)
(-0.00370587 -0.0324884 0)
(-0.00334249 -0.0378912 0)
(-0.00322361 -0.0395996 0)
(-0.0033005 -0.0384804 0)
(-0.00332162 -0.0382296 0)
(-0.00307275 -0.0418809 0)
(-0.00306835 -0.0418584 0)
(-0.00304368 -0.0422446 0)
(-0.00310276 -0.0413508 0)
(-0.00307634 -0.0416688 0)
(-0.00279284 -0.0454797 0)
(-0.00279667 -0.0453005 0)
(-0.00277346 -0.0456287 0)
(-0.0026944 -0.0465634 0)
(-0.00266532 -0.0469758 0)
(-0.00269853 -0.0466803 0)
(-0.00252029 -0.0487877 0)
(-0.00254258 -0.0484715 0)
(-0.00252451 -0.0485794 0)
(-0.00267033 -0.0473011 0)
(-0.00264079 -0.0476653 0)
(-0.0026553 -0.0476035 0)
(-0.00242748 -0.0507957 0)
(-0.00244574 -0.0504044 0)
(-0.0024511 -0.0505035 0)
(-0.000402908 -0.00597421 0)
(-0.00127616 -0.022026 0)
(-0.0012257 -0.022133 0)
(-0.000742163 -0.0133503 0)
(-0.000335184 -0.00539743 0)
(-0.000624503 -0.00977295 0)
(-0.00173828 -0.0364227 0)
(-0.00166714 -0.0352775 0)
(-0.00169246 -0.0349356 0)
(-0.00187547 -0.0348926 0)
(-0.0018805 -0.036009 0)
(-0.00180474 -0.034412 0)
(-0.00037445 -0.0119172 0)
(-0.000362332 -0.0120825 0)
(-0.000282096 -0.0093426 0)
(-0.000289265 -0.0100437 0)
(-0.000813142 -0.0231225 0)
(-0.000489653 -0.015334 0)
(-0.000441599 -0.0135678 0)
(-0.000515177 -0.0155547 0)
(-0.00018363 -0.00668954 0)
(-0.00059091 -0.046275 0)
(-0.000545144 -0.045987 0)
(-0.000592995 -0.0463051 0)
(-0.00106711 -0.0492652 0)
(-0.00109851 -0.0494539 0)
(-0.00126245 -0.0503253 0)
(-0.00122283 -0.0500857 0)
(-0.000637939 -0.0465134 0)
(-0.000610145 -0.0463129 0)
(-0.000582977 -0.0461686 0)
(-0.00161591 -0.0363953 0)
(-0.00160621 -0.0368873 0)
(-0.00122295 -0.029918 0)
(-0.0012385 -0.0307959 0)
(-0.00100386 -0.026127 0)
(-0.00103042 -0.0262433 0)
(-0.00108903 -0.0279907 0)
(-0.00220242 -0.0535052 0)
(-0.00220774 -0.0535148 0)
(-0.00222093 -0.0533945 0)
(-0.00204769 -0.054048 0)
(-0.00204851 -0.0540058 0)
(-0.0020328 -0.0540205 0)
(-0.00199828 -0.0537923 0)
(-0.00201338 -0.053827 0)
(-0.00200701 -0.053763 0)
(-0.00184115 -0.0534967 0)
(-0.00185908 -0.0535727 0)
(-0.00184802 -0.0534796 0)
(-0.0019469 -0.0538188 0)
(-0.00195363 -0.0537713 0)
(-0.00193727 -0.0537362 0)
(-0.00182654 -0.0534557 0)
(-0.00182752 -0.0534059 0)
(-0.00180988 -0.0533236 0)
(-0.00181501 -0.0533093 0)
(-0.00179483 -0.0532407 0)
(-0.00179644 -0.053291 0)
(-0.00177975 -0.0532234 0)
(-0.00178739 -0.0532926 0)
(-0.00173863 -0.0530817 0)
(-0.00171242 -0.0528904 0)
(-0.00169568 -0.0527941 0)
(-0.00170408 -0.0528762 0)
(-0.00177207 -0.0533043 0)
(-0.00179259 -0.0533923 0)
(-0.00177594 -0.0532767 0)
(-0.0016713 -0.052727 0)
(-0.00169217 -0.0528407 0)
(-0.00167838 -0.0527359 0)
(-0.00163531 -0.0525072 0)
(-0.00162224 -0.0524012 0)
(-0.00143467 -0.0514364 0)
(-0.00145866 -0.0515649 0)
(-0.00317963 -0.04042 0)
(-0.00313326 -0.0410874 0)
(-0.00314279 -0.0409553 0)
(-0.00293819 -0.0434919 0)
(-0.00296695 -0.0430713 0)
(-0.00294094 -0.0433584 0)
(-0.00306237 -0.0417786 0)
(-0.00278251 -0.0452509 0)
(-0.00276998 -0.0455346 0)
(-0.00279793 -0.0451611 0)
(-0.00281894 -0.0448218 0)
(-0.0027048 -0.0468886 0)
(-0.0026861 -0.0469827 0)
(-0.00271662 -0.0460712 0)
(-0.00269024 -0.0464674 0)
(-0.00271911 -0.0461876 0)
(-0.0023449 -0.0519773 0)
(-0.00233714 -0.0521552 0)
(-0.00235675 -0.051933 0)
(-0.00238147 -0.0501627 0)
(-0.00238366 -0.05029 0)
(-0.00240079 -0.0500668 0)
(-0.00253238 -0.0488677 0)
(-0.00256526 -0.0484849 0)
(-0.00254512 -0.0485897 0)
(-0.00256897 -0.0479631 0)
(-0.00254747 -0.0481385 0)
(-0.00256083 -0.0481742 0)
(-0.00113094 -0.0211633 0)
(-0.000870992 -0.0164223 0)
(-0.000621993 -0.0102899 0)
(-0.00126663 -0.0269356 0)
(-0.00138311 -0.0293468 0)
(-0.00133865 -0.0289482 0)
(-0.000193723 -0.00663989 0)
(-0.000187648 -0.00616808 0)
(-0.000263043 -0.00840216 0)
(-0.000589058 -0.0173623 0)
(-0.000446205 -0.0132956 0)
(-9.54422e-05 -0.00334742 0)
(-7.82467e-05 -0.00288128 0)
(-0.00130066 -0.0505678 0)
(-0.00131044 -0.0506795 0)
(-0.00133113 -0.0507782 0)
(-0.00171851 -0.0375528 0)
(-0.00177699 -0.0386772 0)
(-0.00174206 -0.0385375 0)
(-0.00111873 -0.0293362 0)
(-0.00104152 -0.0276206 0)
(-0.00150615 -0.0352362 0)
(-0.00142493 -0.033474 0)
(-0.00148979 -0.0342663 0)
(-0.00222327 -0.052551 0)
(-0.00224254 -0.052501 0)
(-0.00223881 -0.0523842 0)
(-0.00200037 -0.0534544 0)
(-0.00201034 -0.0533809 0)
(-0.00199515 -0.0533789 0)
(-0.00196381 -0.053615 0)
(-0.00198049 -0.0536604 0)
(-0.00197823 -0.0535778 0)
(-0.0018603 -0.0533661 0)
(-0.00188757 -0.0534426 0)
(-0.00189208 -0.0533978 0)
(-0.00189632 -0.0535597 0)
(-0.00191348 -0.0536064 0)
(-0.00190618 -0.0535251 0)
(-0.0017786 -0.0531835 0)
(-0.00168982 -0.0527894 0)
(-0.00166173 -0.0526325 0)
(-0.00159921 -0.0522692 0)
(-0.00133372 -0.0507588 0)
(-0.00135848 -0.0509337 0)
(-0.0015766 -0.0522595 0)
(-0.00155491 -0.05211 0)
(-0.00156363 -0.0522139 0)
(-0.0031451 -0.0406792 0)
(-0.00318593 -0.0401384 0)
(-0.00316722 -0.0403168 0)
(-0.00294008 -0.0435734 0)
(-0.00290785 -0.0439368 0)
(-0.00315571 -0.0406013 0)
(-0.00275063 -0.0456445 0)
(-0.00284904 -0.044544 0)
(-0.00287778 -0.044256 0)
(-0.0028756 -0.0441814 0)
(-0.0026527 -0.0473791 0)
(-0.00232749 -0.0511992 0)
(-0.00234936 -0.0511396 0)
(-0.00234973 -0.0509339 0)
(-0.00244198 -0.0496098 0)
(-0.00246673 -0.0493088 0)
(-0.00245011 -0.0493424 0)
(-0.00251892 -0.0484781 0)
(-0.00250353 -0.0487808 0)
(-0.00259923 -0.0474958 0)
(-0.00258547 -0.0477505 0)
(-0.00260422 -0.047598 0)
(-0.00127581 -0.0246926 0)
(-0.00105379 -0.0206466 0)
(-0.000589923 -0.0110408 0)
(-0.000472815 -0.00849655 0)
(-0.000373051 -0.00638738 0)
(-0.00112721 -0.0237588 0)
(-0.00123359 -0.0254031 0)
(-0.00126025 -0.0277062 0)
(-0.000171066 -0.00543264 0)
(-0.000375297 -0.0114746 0)
(-0.000311763 -0.0097051 0)
(-0.000652828 -0.0187755 0)
(-0.000731012 -0.0209922 0)
(-0.000652256 -0.0183123 0)
(-0.000705638 -0.0199129 0)
(-0.000569971 -0.0162881 0)
(-0.00050319 -0.0142889 0)
(-0.000538517 -0.0150324 0)
(-0.00138463 -0.0511593 0)
(-0.00135287 -0.0509459 0)
(-0.00136908 -0.0510911 0)
(-0.00115072 -0.0265617 0)
(-0.0011354 -0.026862 0)
(-0.00106056 -0.0248676 0)
(-0.000701236 -0.0189043 0)
(-0.000791714 -0.0214976 0)
(-0.000716046 -0.0197823 0)
(-0.00223727 -0.052661 0)
(-0.0022252 -0.0528051 0)
(-0.00223974 -0.0527316 0)
(-0.00206764 -0.0534251 0)
(-0.00207117 -0.0535058 0)
(-0.00207863 -0.0534163 0)
(-0.00194778 -0.0534226 0)
(-0.00197237 -0.0533768 0)
(-0.00194839 -0.0533672 0)
(-0.00196728 -0.0536967 0)
(-0.00185882 -0.0534606 0)
(-0.00186349 -0.0534191 0)
(-0.00183723 -0.0533564 0)
(-0.00163911 -0.0525995 0)
(-0.00157985 -0.0521931 0)
(-0.00155482 -0.0520379 0)
(-0.00156282 -0.0521209 0)
(-0.00290813 -0.0438014 0)
(-0.00262606 -0.0476001 0)
(-0.00262552 -0.0477412 0)
(-0.00224288 -0.0520292 0)
(-0.00223592 -0.0519741 0)
(-0.00222904 -0.0521349 0)
(-0.00234037 -0.0506245 0)
(-0.00236288 -0.0504259 0)
(-0.00234666 -0.0504079 0)
(-0.00241315 -0.0497016 0)
(-0.00243041 -0.0495319 0)
(-0.00241822 -0.049514 0)
(-0.00247309 -0.0490413 0)
(-0.00249146 -0.0490518 0)
(-0.00264489 -0.0470686 0)
(-0.00262111 -0.0473342 0)
(-0.0026305 -0.0473769 0)
(-0.000190646 -0.00341421 0)
(-0.0006688 -0.0130159 0)
(-0.000435397 -0.00841461 0)
(-0.000835105 -0.017915 0)
(-0.000831233 -0.0172704 0)
(-0.00097552 -0.0204178 0)
(-0.000114135 -0.00384365 0)
(-9.3401e-05 -0.0030434 0)
(-0.000410468 -0.0119525 0)
(-0.000364765 -0.0108539 0)
(-0.000219843 -0.00661219 0)
(-0.000301566 -0.00914945 0)
(-0.000237971 -0.00737387 0)
(-0.000774454 -0.0206021 0)
(-0.000483804 -0.0140129 0)
(-0.000879376 -0.0227213 0)
(-0.000960323 -0.024608 0)
(-0.000924365 -0.0242637 0)
(-0.000999429 -0.0243583 0)
(-0.0010012 -0.0250173 0)
(-0.000929459 -0.0229587 0)
(-0.00092768 -0.0203699 0)
(-0.000904625 -0.0203247 0)
(-0.000814814 -0.0180209 0)
(-0.000843307 -0.022314 0)
(-0.000883046 -0.02377 0)
(-0.00207909 -0.0528636 0)
(-0.00207741 -0.0529783 0)
(-0.00208864 -0.0528975 0)
(-0.00210199 -0.052823 0)
(-0.00210554 -0.0526982 0)
(-0.00209112 -0.0527562 0)
(-0.00204455 -0.0532308 0)
(-0.00205715 -0.0532379 0)
(-0.00205598 -0.0531635 0)
(-0.00198309 -0.0534395 0)
(-0.00198474 -0.0533832 0)
(-0.00192752 -0.0535176 0)
(-0.00192749 -0.0534582 0)
(-0.00191086 -0.0534766 0)
(-0.00196442 -0.0534599 0)
(-0.00220427 -0.0519019 0)
(-0.00219616 -0.0520636 0)
(-0.00220889 -0.0520062 0)
(-0.002195 -0.0518072 0)
(-0.00218032 -0.0519652 0)
(-0.00219116 -0.0519678 0)
(-0.0023306 -0.0505715 0)
(-0.00231901 -0.0507878 0)
(-0.00239878 -0.0499171 0)
(-0.00239885 -0.049756 0)
(-0.000315349 -0.00589352 0)
(-0.000208057 -0.00401518 0)
(-8.32693e-05 -0.0026211 0)
(-0.00015518 -0.00478045 0)
(-0.000348788 -0.0101753 0)
(-0.000550433 -0.0147108 0)
(-0.000621146 -0.016672 0)
(-0.000566043 -0.0154496 0)
(-0.0006045 -0.0167851 0)
(-0.000631663 -0.017227 0)
(-0.000662401 -0.0182364 0)
(-0.000412228 -0.0115768 0)
(-0.000474024 -0.0132792 0)
(-0.000442856 -0.01263 0)
(-0.000910633 -0.022991 0)
(-0.000828279 -0.0210911 0)
(-0.000850271 -0.0211966 0)
(-0.000864574 -0.0211168 0)
(-0.000785148 -0.0193452 0)
(-0.000869986 -0.0200609 0)
(-0.000971994 -0.0221457 0)
(-0.00097201 -0.0226146 0)