/*--------------------------------*- C++ -*----------------------------------*\
| =========                 |                                                 |
| \\      /  F ield         | OpenFOAM: The Open Source CFD Toolbox           |
|  \\    /   O peration     | Version:  v2012                                 |
|   \\  /    A nd           | Website:  www.openfoam.com                      |
|    \\/     M anipulation  |                                                 |
\*---------------------------------------------------------------------------*/
FoamFile
{
    version     2.0;
    format      ascii;
    class       volVectorField;
    location    "1.5";
    object      U;
}
// * * * * * * * * * * * * * * * * * * * * * * * * * * * * * * * * * * * * * //

dimensions      [0 1 -1 0 0 0 0];


internalField   nonuniform List<vector> 
13611
(
(8.89763 0.150046 8.20655e-22)
(9.05867 0.0766169 -6.08024e-22)
(9.25331 -0.874085 1.84348e-21)
(9.33861 -0.417155 0)
(9.00091 -0.246368 0)
(8.60179 -0.16372 1.04973e-21)
(8.76873 -0.0818595 -3.29225e-21)
(9.52813 -0.334857 -5.95825e-22)
(8.70002 -0.35904 -1.02343e-21)
(8.90408 -0.224134 0)
(8.42326 -0.226634 -2.01096e-22)
(8.79039 0.202893 -4.87084e-21)
(8.88574 -0.137216 0)
(9.67032 -0.265209 -1.41034e-22)
(8.64103 -0.370699 1.84443e-21)
(8.85897 -0.0716709 6.16216e-21)
(8.52479 -0.303206 4.13081e-22)
(8.47584 -0.0986366 4.51623e-21)
(8.81522 0.180515 6.99528e-22)
(8.91459 -0.229262 0)
(9.54742 -0.107594 6.33913e-22)
(8.6921 -0.391503 1.18025e-21)
(8.67104 -0.389928 -3.29129e-22)
(8.63286 -0.367811 2.92859e-21)
(8.49255 -0.290179 -5.07734e-23)
(8.31702 -0.156223 -3.80416e-22)
(8.7332 -0.114283 -8.97662e-22)
(8.74445 -0.271506 0)
(9.32363 -0.0564236 0)
(8.67671 -0.399696 3.79542e-22)
(8.65347 -0.42722 0)
(8.63956 -0.389667 1.92177e-22)
(8.55486 -0.354796 0)
(8.38448 -0.285182 -4.77109e-22)
(8.2646 -0.19171 0)
(8.60099 -0.0999887 -6.71682e-23)
(8.68711 -0.233418 0)
(9.5742 -0.130376 -3.32747e-22)
(8.65651 -0.426822 4.51464e-22)
(8.59551 -0.450642 0)
(8.61299 -0.408415 8.74613e-24)
(8.51666 -0.374712 0)
(8.40385 -0.331218 -1.64117e-23)
(8.23057 -0.231666 1.11285e-21)
(8.46286 -0.0944168 -4.9521e-23)
(8.65416 -0.260405 -1.44895e-21)
(9.28378 -0.159288 -2.32858e-22)
(8.97958 -0.210626 0)
(8.60382 -0.446882 7.97481e-24)
(8.68576 -0.486543 0)
(8.56544 -0.469694 -2.06658e-22)
(8.56552 -0.443318 9.06261e-24)
(8.495 -0.421489 5.6727e-23)
(8.36375 -0.349179 -3.74278e-22)
(8.30405 -0.301824 1.05318e-21)
(8.19499 -0.280088 -4.8089e-22)
(8.52437 -0.1747 -6.82797e-23)
(8.39373 -0.323059 -1.41833e-21)
(9.35644 -0.154292 5.84551e-23)
(9.02983 -0.230094 0)
(8.62691 -0.51452 4.79303e-23)
(8.66574 -0.524642 0)
(8.54581 -0.504089 -2.63754e-22)
(8.52165 -0.479775 -1.74005e-22)
(8.71738 -0.54631 0)
(8.44467 -0.442676 0)
(8.49806 -0.470336 3.46765e-22)
(8.39741 -0.416272 1.01713e-22)
(8.27843 -0.337163 7.10605e-22)
(8.18086 -0.358103 -4.96264e-22)
(8.45792 -0.175348 4.36941e-22)
(8.36306 -0.409045 -2.13813e-22)
(9.13412 -0.189222 2.69802e-23)
(8.74884 -0.208781 2.52161e-23)
(8.5944 -0.544117 3.19296e-23)
(8.68307 -0.55059 0)
(8.50738 -0.523377 8.43278e-23)
(8.56333 -0.541008 -3.31381e-22)
(8.48792 -0.518383 0)
(8.41482 -0.500654 0)
(8.44843 -0.513626 2.65947e-22)
(8.36173 -0.431404 3.49375e-22)
(8.22907 -0.365498 1.53761e-22)
(8.32482 -0.404397 3.92496e-22)
(8.12991 -0.38111 -5.84925e-22)
(8.34722 -0.289484 1.49645e-22)
(8.21834 -0.410916 -5.86664e-22)
(9.03676 -0.321385 -1.02071e-22)
(8.80131 -0.264334 -9.074e-23)
(8.59614 -0.605202 1.90745e-22)
(8.66042 -0.58306 0)
(8.49624 -0.564754 1.78395e-23)
(8.52425 -0.571367 0)
(8.45934 -0.556166 -1.61865e-23)
(8.68993 -0.611072 8.16425e-23)
(8.37191 -0.526391 0)
(8.43332 -0.55316 2.50525e-23)
(8.33624 -0.489465 -3.83391e-23)
(8.25929 -0.422559 0)
(8.30353 -0.431501 0)
(8.14057 -0.425833 0)
(8.26606 -0.296206 -5.37381e-22)
(8.2137 -0.392608 -1.91166e-23)
(9.05714 -0.0983445 1.36955e-22)
(8.59107 -0.309964 0)
(8.6282 -0.61457 1.92458e-22)
(8.55756 -0.645537 1.40438e-22)
(8.44931 -0.593742 0)
(8.51261 -0.627673 1.40534e-22)
(8.43559 -0.600641 0)
(8.68573 -0.648219 1.90201e-23)
(8.70883 -0.666333 1.58319e-23)
(8.36816 -0.582744 -5.9704e-23)
(8.39987 -0.596284 -1.11816e-22)
(8.30603 -0.489061 -3.71821e-23)
(8.22982 -0.470034 0)
(8.26727 -0.473955 -1.78978e-23)
(8.20766 -0.482269 0)
(8.10187 -0.389989 0)
(8.16561 -0.293909 -5.17645e-22)
(8.23557 -0.373326 0)
(8.09591 -0.358804 -1.84883e-23)
(9.01507 -0.334115 -1.03053e-22)
(8.76853 -0.15278 -5.95173e-23)
(8.58313 -0.318054 -4.29776e-23)
(8.64281 -0.656903 -4.61679e-23)
(8.56217 -0.694094 -3.26962e-23)
(8.42085 -0.628385 0)
(8.46989 -0.64297 -3.91943e-23)
(8.40664 -0.628617 -5.45063e-23)
(8.70137 -0.70916 5.85793e-23)
(8.33714 -0.591559 0)
(8.30835 -0.548247 -1.85615e-23)
(8.26749 -0.483002 -1.85955e-23)
(8.22916 -0.502436 -1.77535e-23)
(8.18491 -0.50818 -9.0442e-23)
(8.15487 -0.448842 -1.79371e-22)
(8.1797 -0.317589 -3.97885e-23)
(8.1921 -0.387973 4.58324e-23)
(8.08461 -0.360414 5.28816e-23)
(9.16065 -0.27082 6.84037e-23)
(8.55262 -0.176926 -2.35435e-23)
(8.38156 -0.329261 3.74443e-23)
(8.6327 -0.692578 5.51359e-23)
(8.53676 -0.717768 -4.02932e-23)
(8.60052 -0.709552 3.04167e-23)
(8.39817 -0.659269 5.85121e-23)
(8.47485 -0.687013 -3.548e-23)
(8.3778 -0.652777 0)
(8.66829 -0.724434 6.91713e-23)
(8.72589 -0.736796 3.79166e-23)
(8.33023 -0.634901 5.41539e-23)
(8.27058 -0.551126 -2.36664e-23)
(8.24281 -0.520822 0)
(8.18928 -0.550328 2.97053e-23)
(8.12837 -0.531677 5.79723e-24)
(8.11056 -0.429082 -1.12517e-23)
(8.11434 -0.304851 -8.74868e-23)
(8.1476 -0.339722 0)
(8.10058 -0.402461 4.11498e-23)
(8.09987 -0.394816 1.54574e-22)
(8.07832 -0.390906 0)
(8.94809 -0.286731 -7.21e-23)
(8.66393 -0.161322 0)
(8.39405 -0.291939 -1.29368e-22)
(8.50533 -0.716283 -4.29425e-23)
(8.54599 -0.759056 3.29094e-24)
(8.60274 -0.754856 0)
(8.36589 -0.674558 -1.62455e-23)
(8.43534 -0.694321 6.24623e-23)
(8.35074 -0.666913 0)
(8.35162 -0.668358 0)
(8.6615 -0.766263 0)
(8.71658 -0.771571 1.45614e-23)
(8.28351 -0.628672 2.86699e-23)
(8.25708 -0.589052 -7.81407e-23)
(8.20502 -0.553795 2.40998e-23)
(8.1519 -0.574519 0)
(8.17748 -0.574114 5.4008e-23)
(8.06654 -0.547282 0)
(8.04073 -0.496824 6.43264e-24)
(8.22916 -0.283299 -8.80874e-23)
(8.09353 -0.332349 0)
(8.06074 -0.442817 3.5481e-24)
(8.05828 -0.403058 3.01368e-23)
(8.05387 -0.428146 -9.33945e-23)
(9.04167 -0.230534 9.28108e-24)
(8.54551 -0.14771 -5.72717e-23)
(8.49107 -0.76204 -2.67534e-23)
(8.57444 -0.773409 2.296e-23)
(8.51295 -0.784201 -4.5642e-24)
(8.63088 -0.778897 0)
(8.37119 -0.71511 -8.20878e-23)
(8.43436 -0.726761 0)
(8.31123 -0.696923 -6.39783e-23)
(8.31831 -0.700361 -2.47131e-23)
(8.6866 -0.78967 1.45103e-23)
(8.73973 -0.786191 0)
(8.26076 -0.670099 -3.78207e-23)
(8.20692 -0.594414 -5.38498e-23)
(8.12085 -0.620225 0)
(8.1388 -0.624478 0)
(8.07538 -0.602561 0)
(7.99413 -0.484817 6.06286e-23)
(8.20444 -0.245976 0)
(8.05905 -0.247983 0)
(8.03863 -0.408698 -8.60536e-25)
(8.04649 -0.457953 -4.01245e-24)
(8.03753 -0.415261 -9.22241e-23)
(8.00329 -0.44562 8.87796e-23)
(8.74807 -0.137506 -2.44577e-23)
(8.87207 -0.243003 -4.57338e-24)
(8.33492 -0.190335 -3.33608e-23)
(8.4661 -0.765724 0)
(8.57249 -0.808794 2.42435e-23)
(8.51666 -0.812083 -2.31081e-23)
(8.62327 -0.822184 0)
(8.34883 -0.734894 -3.51484e-23)
(8.40438 -0.732207 -3.0446e-23)
(8.27817 -0.707561 -5.1353e-23)
(8.31842 -0.728209 0)
(8.68426 -0.826922 -9.60491e-24)
(8.74379 -0.826344 -2.13149e-23)
(8.21599 -0.675578 1.05775e-23)
(8.18469 -0.634455 1.1108e-23)
(8.11326 -0.63841 0)
(8.12428 -0.645538 -2.7992e-23)
(8.04979 -0.629177 -2.913e-23)
(7.9513 -0.511197 4.39041e-23)
(8.10786 -0.213158 -1.58788e-23)
(7.99624 -0.247168 0)
(7.98691 -0.401131 4.86435e-25)
(7.98037 -0.492365 -5.98462e-23)
(7.96058 -0.440539 0)
(7.9421 -0.444382 2.14809e-23)
(8.65321 -0.194894 6.26965e-24)
(8.96277 -0.138699 0)
(8.22808 -0.153535 2.86407e-23)
(8.44781 -0.7938 -1.34067e-23)
(8.54771 -0.82364 1.38255e-24)
(8.59728 -0.832154 0)
(8.4951 -0.832579 -2.30334e-23)
(8.651 -0.846905 -9.5759e-24)
(8.35569 -0.772239 -1.94038e-23)
(8.41316 -0.77399 2.51117e-23)
(8.25388 -0.741692 2.44606e-23)
(8.29664 -0.748199 1.80301e-23)
(8.71311 -0.846218 -2.13404e-23)
(8.19811 -0.714137 3.70718e-23)
(8.14922 -0.650428 -2.74411e-23)
(8.08295 -0.661792 1.5893e-23)
(8.10145 -0.67415 0)
(8.02585 -0.6183 0)
(8.0649 -0.666765 -1.23245e-23)
(7.9852 -0.56702 5.37237e-23)
(7.90411 -0.478418 -5.30836e-23)
(8.12904 -0.170654 -1.61309e-23)
(7.94721 -0.213471 0)
(7.95959 -0.33633 0)
(7.96555 -0.448411 5.56144e-23)
(7.95892 -0.493947 6.53156e-23)
(7.9098 -0.49319 -6.08619e-23)
(7.91172 -0.468492 0)
(8.7495 -0.138047 0)
(8.34934 -0.195014 3.35181e-23)
(8.83026 -0.216049 0)
(8.44638 -0.820745 4.63544e-23)
(8.54851 -0.856434 1.14044e-23)
(8.5786 -0.864425 -2.28431e-23)
(8.50095 -0.869743 2.12799e-23)
(8.46981 -0.840346 7.47676e-23)
(8.64387 -0.88605 0)
(8.38502 -0.789056 6.01588e-24)
(8.32899 -0.792959 1.1138e-23)
(8.22318 -0.749942 -1.38249e-23)
(8.26804 -0.758949 4.67672e-23)
(8.30342 -0.785568 2.13346e-23)
(8.7032 -0.876688 0)
(8.161 -0.726117 2.46661e-23)
(8.1362 -0.709079 3.25599e-23)
(8.07777 -0.676655 -3.0544e-23)
(8.10901 -0.711043 3.22799e-23)
(8.01363 -0.659623 -3.9222e-23)
(8.04088 -0.687055 0)
(7.95322 -0.596049 -2.62655e-23)
(7.86429 -0.486332 -5.87616e-23)
(8.06612 -0.17775 0)
(7.96827 -0.193767 0)
(7.88492 -0.265513 3.03363e-23)
(7.89988 -0.325096 2.97456e-23)
(7.90572 -0.430649 1.76335e-23)
(7.87179 -0.502118 5.39859e-23)
(7.85853 -0.516875 -6.47845e-24)
(7.84616 -0.482441 0)
(8.49832 -0.148699 4.41489e-23)
(8.27731 -0.210483 4.97527e-23)
(8.78561 -0.305754 -7.48865e-25)
(8.41304 -0.838638 -9.47264e-24)
(8.52432 -0.876066 3.63235e-23)
(8.58632 -0.895254 -2.21532e-23)
(8.47408 -0.894299 7.71864e-24)
(8.45421 -0.881946 0)
(8.61964 -0.908449 0)
(8.67293 -0.89972 0)
(8.38249 -0.823759 0)
(8.32813 -0.828489 1.11014e-23)
(8.20692 -0.777471 -2.2887e-23)
(8.25766 -0.792016 1.10491e-23)
(8.27897 -0.805125 0)
(8.72819 -0.903775 1.5919e-23)
(8.75407 -0.903807 1.58552e-23)
(8.17044 -0.764562 -1.24056e-23)
(8.0542 -0.704457 -3.72499e-23)
(8.0935 -0.737455 0)
(7.97863 -0.657099 -3.63696e-23)
(8.02193 -0.693029 -2.8006e-23)
(8.03235 -0.702095 -6.62979e-24)
(7.91607 -0.572689 0)
(7.8792 -0.525192 2.06876e-23)
(8.14581 -0.184809 0)
(7.89751 -0.201657 0)
(7.8357 -0.260973 2.4916e-23)
(7.88605 -0.373008 4.81749e-23)
(7.84802 -0.469608 -2.37576e-23)
(7.83791 -0.521031 4.16858e-23)
(7.79855 -0.515188 -1.67719e-23)
(7.80794 -0.505458 0)
(8.52396 -0.179134 -5.89488e-24)
(8.81897 -0.0946441 3.44833e-25)
(8.40643 -0.875623 -1.61059e-24)
(8.53117 -0.91045 1.10283e-23)
(8.56139 -0.918042 0)
(8.47849 -0.917685 2.2863e-23)
(8.42787 -0.894609 1.92861e-23)
(8.62666 -0.941839 0)
(8.68389 -0.92492 1.70525e-23)
(8.35425 -0.84224 2.67301e-24)
(8.30086 -0.848032 1.2395e-23)
(8.21157 -0.798371 1.37172e-23)
(8.23597 -0.808888 0)
(8.27596 -0.834253 -1.31068e-23)
(8.71675 -0.929702 1.62625e-23)
(8.77022 -0.941363 -8.5092e-24)
(8.1485 -0.791473 -1.15647e-23)
(8.05436 -0.730482 0)
(8.11517 -0.771224 -1.40552e-23)
(7.95965 -0.683945 -1.0321e-23)
(7.98629 -0.71602 1.05739e-23)
(8.00114 -0.728165 5.24277e-24)
(7.90915 -0.61631 1.00824e-23)
(7.84988 -0.544728 2.47075e-23)
(8.09651 -0.206961 2.75315e-24)
(7.82724 -0.228255 2.54954e-23)
(7.93326 -0.215772 4.23884e-24)
(7.8165 -0.313747 1.59124e-23)
(7.82936 -0.362811 4.1872e-23)
(7.77879 -0.464907 -2.67717e-23)
(7.76658 -0.533643 0)
(7.75183 -0.539544 -1.96787e-23)
(7.80861 -0.530704 0)
(8.46107 -0.177763 -4.06255e-24)
(8.78564 -0.257891 0)
(8.60767 -0.0489793 0)
(8.37741 -0.892465 -7.04811e-24)
(8.5131 -0.92928 -4.56596e-24)
(8.57595 -0.94596 8.0789e-24)
(8.46435 -0.939633 2.31511e-23)
(8.41885 -0.923378 1.69947e-23)
(8.64843 -0.964108 -1.21701e-24)
(8.60923 -0.956351 0)
(8.66837 -0.958908 -2.1204e-23)
(8.35149 -0.878531 -6.46809e-24)
(8.30181 -0.879601 -1.60071e-23)
(8.18761 -0.831769 3.60388e-23)
(8.23027 -0.840183 0)
(8.24878 -0.850777 -2.55623e-23)
(8.72315 -0.963531 0)
(8.75063 -0.97125 0)
(8.16107 -0.831063 0)
(8.12932 -0.785608 -2.85816e-23)
(8.0373 -0.747503 0)
(8.0881 -0.798093 9.90509e-24)
(7.92924 -0.665762 2.20336e-23)
(7.9633 -0.713649 1.53957e-23)
(7.97304 -0.730897 3.55575e-23)
(8.00619 -0.749358 -4.99125e-24)
(7.8657 -0.596697 -8.77033e-24)
(8.12145 -0.196375 0)
(7.77728 -0.229253 2.68409e-23)
(7.89523 -0.223429 -3.87275e-23)
(7.75201 -0.311235 -6.00801e-24)
(7.76807 -0.414786 -1.43368e-23)
(7.72488 -0.490942 -2.13808e-23)
(7.74004 -0.535197 -2.17468e-23)
(7.73609 -0.550416 3.36227e-23)
(7.78117 -0.56575 0)
(8.27223 -0.181296 0)
(8.92235 -0.19436 0)
(8.51014 -0.0428477 -2.07514e-23)
(8.37167 -0.918111 -2.20115e-23)
(8.51692 -0.96099 -4.49447e-24)
(8.56287 -0.975663 8.07375e-24)
(8.43715 -0.944367 0)
(8.48848 -0.967283 0)
(8.39517 -0.933211 -6.56925e-24)
(8.63119 -0.995428 0)
(8.61014 -0.990676 0)
(8.68985 -0.983613 -2.0095e-23)
(8.3261 -0.893928 -2.50954e-23)
(8.27706 -0.896114 -1.2521e-23)
(8.19876 -0.856867 0)
(8.24979 -0.882775 -1.26171e-23)
(8.77074 -1.00319 -5.21961e-24)
(8.1415 -0.860281 0)
(8.10382 -0.818555 -1.63778e-23)
(8.04088 -0.787579 -1.02672e-23)
(8.06325 -0.806234 1.16747e-23)
(7.89819 -0.690105 1.12105e-23)
(7.9296 -0.73317 2.47798e-23)
(7.94673 -0.754657 2.00619e-23)
(7.99185 -0.772217 1.57323e-23)
(7.84018 -0.626659 0)
(8.0002 -0.190654 1.94875e-23)
(7.77021 -0.214227 0)
(7.74051 -0.270782 2.00564e-23)
(7.92624 -0.208359 -2.57197e-23)
(7.82448 -0.220192 0)
(7.69256 -0.357734 0)
(7.70151 -0.403043 -2.64413e-23)
(7.67867 -0.49751 -1.78784e-23)
(7.69564 -0.554417 3.96451e-25)
(7.70207 -0.571937 7.46681e-24)
(7.75004 -0.566436 2.42489e-23)
(7.79828 -0.614107 -8.35478e-24)
(8.18513 -0.158075 -9.21273e-24)
(8.64049 -0.0324616 -8.19235e-23)
(8.77729 -0.131264 0)
(8.29622 -0.120114 0)
(8.23307 -0.13156 4.94808e-24)
(8.32961 -0.0347103 3.64425e-24)
(8.34761 -0.93936 -2.57909e-23)
(8.5367 -0.979732 0)
(8.58349 -1.00472 0)
(8.43258 -0.974604 4.05639e-25)
(8.48099 -0.995892 -1.53773e-24)
(8.38634 -0.966112 8.84217e-24)
(8.64031 -1.01505 -4.88175e-24)
(8.69475 -1.01392 0)
(8.32395 -0.927636 -1.64751e-23)
(8.27627 -0.927024 0)
(8.19752 -0.882874 2.46169e-23)
(8.22612 -0.898306 0)
(8.80802 -1.00732 0)
(8.75227 -1.02317 2.71582e-24)
(8.11477 -0.853371 0)
(8.14828 -0.885422 -1.42206e-23)
(8.01863 -0.795632 -2.10857e-24)
(8.07437 -0.842592 -4.89851e-24)
(7.85732 -0.67698 0)
(7.90039 -0.728529 9.09471e-24)
(7.92073 -0.754386 1.70248e-23)
(7.94572 -0.779588 -1.36082e-23)
(7.97187 -0.78719 1.94545e-23)
(8.03371 -0.162118 -8.59017e-24)
(7.7105 -0.217139 -5.06435e-23)
(7.67415 -0.2694 0)
(7.87338 -0.196798 -1.41249e-23)
(7.82487 -0.208493 1.65515e-23)
(7.61895 -0.350134 0)
(7.64272 -0.430287 2.38277e-23)
(7.66464 -0.545504 -1.72716e-23)
(7.64348 -0.472562 3.54783e-23)
(7.67748 -0.569369 -2.29908e-24)
(7.68914 -0.598969 0)
(7.72188 -0.602513 -1.38171e-23)
(7.77014 -0.655146 4.31904e-24)
(8.69141 -0.0509093 3.40677e-23)
(8.83061 -0.0901638 -1.6358e-23)
(8.18574 -0.10123 0)
(8.2064 -0.0870163 0)
(8.25282 -0.141086 2.49136e-24)
(8.26248 -0.191047 1.57678e-25)
(8.20677 -0.0991836 4.63207e-24)
(8.32219 0.0021866 1.14448e-23)
(8.3564 -0.966557 -2.66109e-23)
(8.52911 -1.0157 0)
(8.5793 -1.02713 0)
(8.45124 -0.997199 1.19059e-23)
(8.40479 -0.982363 -1.54898e-23)
(8.50186 -1.02191 1.20469e-23)
(8.67287 -1.02678 0)
(8.6277 -1.04463 -4.78093e-24)
(8.7281 -1.03246 0)
(8.30003 -0.942269 0)
(8.25061 -0.940694 0)
(8.17919 -0.894219 2.49507e-23)
(8.22709 -0.927772 0)
(8.76506 -1.05157 8.15781e-24)
(8.09807 -0.862496 6.43164e-24)
(8.14391 -0.905032 -1.37733e-23)
(8.01519 -0.821522 7.11139e-24)
(8.05383 -0.858727 4.63582e-24)
(7.82216 -0.713326 -1.42684e-23)
(7.8687 -0.747568 7.93436e-24)
(7.89071 -0.779406 1.53043e-23)
(7.92297 -0.811099 -9.84887e-24)
(7.98267 -0.817955 1.05518e-23)
(7.96187 -0.149926 6.01574e-23)
(7.70617 -0.20386 -4.6748e-23)
(7.66146 -0.23652 -4.04468e-23)
(7.60471 -0.311865 -1.06826e-23)
(7.87996 -0.166426 1.43934e-23)
(7.77967 -0.198765 -8.45971e-24)
(7.57639 -0.382288 2.51281e-24)
(7.59744 -0.419863 0)
(7.62301 -0.556014 -1.42973e-23)
(7.58831 -0.502938 0)
(7.63122 -0.5954 3.11878e-24)
(7.65256 -0.623377 2.09219e-24)
(7.72962 -0.639886 -1.46575e-23)
(7.78142 -0.704751 -1.17458e-23)
(8.58432 -0.120821 2.40335e-23)
(8.6837 -0.102419 -1.33385e-23)
(8.27077 -0.111153 -9.89139e-24)
(8.00596 -0.115352 4.25435e-23)
(8.18978 -0.0630058 3.22963e-24)
(8.26803 -0.167772 -1.06276e-23)
(8.25452 -0.125153 6.82194e-26)
(8.26814 -0.184507 -8.79427e-24)
(8.15795 -0.0848329 0)
(8.35559 -0.030033 -8.49214e-24)
(8.33735 -0.989257 -2.64559e-23)
(8.55125 -1.03733 0)
(8.60009 -1.04694 -9.78126e-24)
(8.4386 -1.03025 4.4817e-23)
(8.39297 -1.01081 -1.56258e-23)
(8.48754 -1.04313 2.86912e-23)
(8.67824 -1.06693 0)
(8.65147 -1.07725 0)
(8.72668 -1.06966 1.86947e-23)
(8.29151 -0.972047 2.30938e-23)
(8.24453 -0.963552 8.30928e-24)
(8.18372 -0.93009 0)
(8.20443 -0.942519 -6.8685e-24)
(8.79192 -1.05324 1.5129e-24)
(8.74754 -1.07878 1.47113e-23)
(8.08761 -0.88539 6.34802e-24)
(8.16651 -0.936886 -1.37483e-23)
(8.12212 -0.919247 0)
(8.03172 -0.851456 4.92661e-24)
(8.05784 -0.882456 6.4547e-24)
(7.83059 -0.747346 7.833e-24)
(7.86402 -0.774774 0)
(7.89257 -0.808166 -1.5499e-24)
(7.93669 -0.83872 -3.9906e-24)
(7.96986 -0.838669 1.04422e-23)
(7.64142 -0.190533 -1.6132e-23)
(7.60235 -0.237012 4.99138e-24)
(7.54412 -0.295331 -1.33616e-23)
(7.84621 -0.145791 0)
(7.75961 -0.171086 1.7613e-23)
(7.51091 -0.393532 2.3388e-24)
(7.54218 -0.448881 0)
(7.58496 -0.543608 -1.3546e-23)
(7.60422 -0.585148 0)
(7.54125 -0.485839 0)
(7.61867 -0.620798 -9.92815e-24)
(7.65188 -0.657883 6.1429e-24)
(7.69472 -0.670928 -5.35907e-24)
(7.74588 -0.733675 -1.06507e-23)
(8.63542 -0.129918 -1.47973e-23)
(8.71462 -0.132261 -7.45032e-23)
(8.14005 -0.103161 5.8343e-25)
(7.94972 -0.104313 0)
(8.20631 -0.0810854 -1.40762e-25)
(8.27221 -0.16928 -2.14332e-24)
(8.26804 -0.135382 2.55932e-24)
(8.26474 -0.212814 0)
(8.26546 -0.198218 8.24344e-25)
(8.27629 -0.233711 -1.12117e-25)
(8.16815 -0.0766488 -1.44788e-26)
(8.33983 -0.00528916 4.43234e-25)
(8.30953 -0.991965 2.29363e-23)
(8.34733 -1.01392 0)
(8.5427 -1.0637 1.74001e-23)
(8.58886 -1.08473 -1.04476e-23)
(8.45845 -1.05289 3.07697e-23)
(8.41165 -1.03502 0)
(8.37144 -1.01885 0)
(8.49832 -1.06928 1.70543e-23)
(8.70347 -1.08694 4.04427e-24)
(8.64041 -1.09971 8.10019e-24)
(8.2681 -0.979288 8.20546e-24)
(8.22495 -0.982245 0)
(8.20201 -0.972197 -6.94012e-24)
(8.83017 -1.07975 0)
(8.8025 -1.0827 1.11054e-24)
(8.76239 -1.09824 -1.20689e-23)
(8.10033 -0.911451 0)
(8.15176 -0.958949 -3.55157e-24)
(8.12198 -0.955175 -1.12165e-23)
(8.00875 -0.875994 -6.8596e-25)
(8.03956 -0.906466 0)
(7.80422 -0.774573 0)
(7.82976 -0.797554 0)
(7.87001 -0.834174 -1.35043e-24)
(7.93126 -0.872903 -4.00251e-24)
(7.9843 -0.869369 -6.94075e-25)
(7.66844 -0.165181 1.57161e-25)
(7.58911 -0.196216 -1.75398e-23)
(7.57753 -0.220538 1.71081e-24)
(7.54651 -0.267369 0)
(7.48458 -0.321883 2.37303e-23)
(7.85437 -0.118739 0)
(7.78767 -0.150751 0)
(7.47087 -0.368564 1.48062e-23)
(7.48653 -0.432317 -1.65997e-24)
(7.5373 -0.575587 -1.74842e-23)
(7.55195 -0.604063 9.08573e-25)
(7.49266 -0.518597 0)
(7.58012 -0.646957 -9.80084e-24)
(7.62076 -0.687234 -9.25517e-24)
(7.7044 -0.718147 0)
(7.74444 -0.775071 1.42708e-25)
(8.52704 -0.120722 1.59945e-24)
(8.72135 -0.0978101 -2.37387e-23)
(8.00244 -0.09606 5.01403e-24)
(8.25334 -0.109432 1.51585e-23)
(7.88715 -0.10782 -4.88182e-25)
(8.18535 -0.0759479 -4.91752e-24)
(8.27437 -0.160634 0)
(8.26859 -0.186387 0)
(8.27751 -0.131602 1.7265e-23)
(8.27368 -0.22188 -1.57886e-25)
(8.26844 -0.197757 1.04362e-24)
(8.28552 -0.244525 9.72914e-25)
(8.13852 -0.0754678 4.1797e-24)
(8.34645 -0.03172 0)
(8.2985 -1.0222 0)
(8.33489 -1.03657 1.31154e-23)
(8.56416 -1.08905 1.60945e-23)
(8.5207 -1.07716 9.41382e-25)
(8.60954 -1.1078 0)
(8.45645 -1.07732 0)
(8.40014 -1.06541 5.71854e-25)
(8.36943 -1.04549 1.36576e-23)
(8.48087 -1.0883 4.00819e-24)
(8.704 -1.11871 -3.21924e-24)
(8.65352 -1.12891 8.03696e-24)
(8.26159 -1.00548 1.15912e-23)
(8.23516 -1.00611 -1.29097e-23)
(8.18374 -0.986381 -1.66629e-24)
(8.79229 -1.1023 -5.05131e-24)
(8.75887 -1.12605 -5.85314e-24)
(8.07881 -0.94041 -9.21661e-25)
(8.16017 -0.979422 9.26041e-24)
(8.1072 -0.976256 -1.98158e-23)
(8.01041 -0.901635 2.11639e-23)
(8.05096 -0.93536 -8.96696e-25)
(7.77366 -0.790364 1.36833e-24)
(7.8323 -0.822332 -1.52664e-23)
(7.88182 -0.865068 0)
(7.9574 -0.893866 0)
(7.90829 -0.881863 0)
(7.6098 -0.150156 -4.92807e-24)
(7.52208 -0.182451 0)
(7.50856 -0.227568 2.38072e-24)
(7.48807 -0.25079 4.25744e-24)
(7.41348 -0.295807 -3.43035e-24)
(7.79858 -0.109859 -2.24721e-23)
(7.7546 -0.128415 -3.32565e-23)
(7.3897 -0.398341 0)
(7.44333 -0.456554 -1.7734e-24)
(7.49527 -0.566728 -2.20758e-23)
(7.54507 -0.634493 -2.56238e-24)
(7.44689 -0.504693 0)
(7.58059 -0.675527 -1.93171e-23)
(7.63234 -0.727124 0)
(7.67282 -0.742165 0)
(7.71675 -0.792498 -5.94926e-25)
(8.61949 -0.10045 -2.0626e-23)
(8.59423 -0.0750265 0)
(7.93832 -0.0825767 -1.5311e-23)
(8.15771 -0.0895474 0)
(7.88294 -0.0866813 -3.98936e-25)
(8.17775 -0.0728952 1.16763e-23)
(8.26986 -0.168994 -3.06903e-24)
(8.26568 -0.184163 -4.85577e-24)
(8.27102 -0.145469 -4.388e-25)
(8.22953 -0.107324 3.59552e-24)
(8.27997 -0.222321 1.43136e-24)
(8.27623 -0.210911 2.2997e-24)
(8.29289 -0.244434 -1.90946e-24)
(8.12723 -0.0738229 5.6423e-24)
(8.31018 -4.13033e-05 6.56299e-24)
(8.27543 -1.025 1.16905e-23)
(8.31113 -1.0425 4.91323e-26)
(8.34712 -1.05319 1.30716e-23)
(8.55122 -1.11377 8.21414e-24)
(8.52533 -1.10916 3.23505e-24)
(8.60597 -1.13469 0)
(8.43944 -1.09126 0)
(8.37903 -1.06562 2.18412e-23)
(8.41612 -1.08873 -5.84517e-24)
(8.48632 -1.11466 -1.4722e-24)
(8.7331 -1.13945 0)
(8.68004 -1.13871 -1.22789e-24)
(8.63183 -1.14755 -8.9267e-25)
(8.22105 -1.02675 -1.27865e-23)
(8.18318 -1.01681 -1.48906e-23)
(8.82919 -1.13025 5.40091e-24)
(8.80663 -1.12819 1.25768e-23)
(8.78778 -1.1494 0)
(8.08139 -0.971653 -4.02845e-25)
(8.14631 -1.00252 -7.79034e-24)
(8.12025 -1.00135 -7.85689e-24)
(7.98891 -0.923902 2.10203e-23)
(8.02249 -0.962399 0)
(7.77775 -0.830041 1.32779e-24)
(7.81227 -0.844472 -1.28822e-23)
(7.85763 -0.888358 2.53834e-24)
(7.95975 -0.916457 1.90278e-23)
(7.89731 -0.914493 0)
(7.61669 -0.135691 0)
(7.51903 -0.159128 0)
(7.47234 -0.20293 -1.06344e-23)
(7.41277 -0.260657 -2.59578e-23)
(7.35629 -0.325189 0)
(7.78908 -0.089914 -2.27136e-24)
(7.6785 -0.126967 -2.06003e-23)
(7.39166 -0.443886 0)
(7.35816 -0.38026 0)
(7.46499 -0.59929 -2.04513e-23)
(7.51291 -0.652844 1.0419e-23)
(7.41112 -0.537743 -6.7466e-24)
(7.55429 -0.708528 0)
(7.61088 -0.757676 0)
(7.68141 -0.778354 -5.61379e-25)
(7.71258 -0.826089 0)
(8.56447 -0.0930166 1.3938e-24)
(8.70085 -0.0750065 0)
(7.99121 -0.0728941 -2.14894e-23)
(8.2908 -0.0806698 4.37918e-24)
(7.84009 -0.0715989 0)
(8.1274 -0.0766533 0)
(8.26449 -0.165125 1.10517e-24)
(8.26981 -0.193084 -1.79124e-24)
(8.26322 -0.143686 0)
(8.23796 -0.101983 0)
(8.28892 -0.23408 -2.04681e-24)
(8.28155 -0.213267 1.03064e-24)
(8.30613 -0.267982 3.29478e-26)
(8.30529 -0.256885 -2.04033e-25)
(8.35276 -0.0306347 1.82406e-23)
(8.25952 -1.04566 -1.32341e-23)
(8.29966 -1.0677 8.89481e-24)
(8.33896 -1.07402 0)
(8.56397 -1.1363 7.88405e-24)
(8.50964 -1.12635 -2.11506e-24)
(8.58815 -1.14818 -1.7166e-24)
(8.44327 -1.12234 0)
(8.35989 -1.08378 1.17625e-23)
(8.40462 -1.11957 -6.9816e-24)
(8.46693 -1.13124 0)
(8.73253 -1.17674 2.37718e-24)
(8.68665 -1.17688 1.75386e-24)
(8.63758 -1.1779 1.75252e-25)
(8.19811 -1.0324 -1.31776e-23)
(8.23395 -1.04693 0)
(8.15814 -1.02311 -7.84478e-24)
(8.84582 -1.15397 -7.91194e-24)
(8.78532 -1.17613 0)
(8.06191 -0.992137 0)
(8.10655 -1.02918 0)
(7.99446 -0.955281 0)
(8.02657 -0.988721 0)
(7.757 -0.858596 9.93745e-24)
(7.82536 -0.879325 2.72368e-24)
(7.86611 -0.916449 0)
(7.93837 -0.93658 1.87073e-23)
(7.91018 -0.934008 -3.93115e-24)
(7.53722 -0.121188 -2.53033e-23)
(7.46032 -0.145444 0)
(7.40156 -0.205929 0)
(7.36182 -0.233608 -1.60391e-23)
(7.32114 -0.311801 0)
(7.71504 -0.0799808 -5.36497e-23)
(7.65632 -0.0954043 -5.59656e-23)
(7.36352 -0.474005 1.09892e-24)
(7.31588 -0.388079 5.15543e-24)
(7.42078 -0.584425 -9.4883e-24)
(7.47688 -0.6424 8.54559e-25)
(7.514 -0.693067 0)
(7.37598 -0.524196 -7.22845e-24)
(7.56934 -0.747937 -2.2123e-24)
(7.62704 -0.799329 7.22213e-24)
(7.65902 -0.804024 0)
(7.6758 -0.832084 0)
(7.7279 -0.851826 1.07127e-23)
(8.64394 -0.0777134 0)
(8.53243 -0.0378893 1.55972e-23)
(7.95542 -0.0535663 -1.32766e-23)
(8.20882 -0.0704286 0)
(7.8372 -0.0569955 3.33957e-23)
(8.08095 -0.0701417 1.25896e-23)
(8.26256 -0.176489 -1.46608e-24)
(8.2788 -0.206583 0)
(8.26819 -0.189678 -1.69668e-24)
(8.26196 -0.136832 -1.57341e-24)
(8.25012 -0.16172 1.21185e-24)
(8.14878 -0.0927974 1.2585e-23)
(8.25552 -0.114427 5.02532e-24)
(8.29583 -0.234785 0)
(8.29228 -0.226466 8.96533e-25)
(8.30854 -0.276577 0)
(8.3081 -0.254959 -4.81311e-26)
(8.36126 -0.0117608 4.62794e-24)
(8.15345 -0.0536953 1.96754e-24)
(8.26238 -1.07165 -6.4195e-24)
(8.28119 -1.08045 0)
(8.31749 -1.08507 9.45617e-24)
(8.54846 -1.16313 0)
(8.5222 -1.15615 0)
(8.5888 -1.18441 -1.77565e-24)
(8.42144 -1.13889 0)
(8.36779 -1.10571 -5.25754e-24)
(8.38705 -1.12398 -1.12919e-23)
(8.47814 -1.16015 0)
(8.71028 -1.19145 2.37584e-24)
(8.75771 -1.19158 0)
(8.66475 -1.19354 0)
(8.60967 -1.19515 1.01999e-24)
(8.18802 -1.05979 0)
(8.22335 -1.07108 8.15667e-24)
(8.14726 -1.04805 6.89012e-24)
(8.83612 -1.18111 0)
(8.80837 -1.19185 -5.15703e-24)
(8.06989 -1.01777 0)
(8.08732 -1.03116 0)
(8.12266 -1.05393 0)
(7.96887 -0.975086 0)
(8.01421 -1.00958 -5.27805e-24)
(7.77472 -0.902891 1.25772e-23)
(7.80601 -0.908427 3.15103e-24)
(7.85514 -0.940037 -5.86686e-24)
(7.94304 -0.968114 0)
(7.89802 -0.96536 -4.04255e-24)
(7.5344 -0.0984207 2.26101e-23)
(7.4645 -0.125347 -2.76852e-23)
(7.3924 -0.151021 9.57346e-24)
(7.36904 -0.177966 1.02893e-23)
(7.3084 -0.241502 -4.58497e-24)
(7.29588 -0.278771 -2.84996e-24)
(7.29053 -0.356009 4.96789e-24)
(7.71055 -0.0524406 0)
(7.5958 -0.0823719 3.13923e-23)
(7.31925 -0.481437 7.90181e-24)
(7.30213 -0.415252 0)
(7.38834 -0.61921 -1.06034e-24)
(7.44256 -0.673846 -8.6614e-24)
(7.47475 -0.737322 9.69815e-24)
(7.33356 -0.560371 0)
(7.54548 -0.77835 -2.31621e-24)
(7.60212 -0.823958 6.60336e-24)
(7.67217 -0.862019 0)
(7.70303 -0.883183 0)
(8.58343 -0.0616046 2.09592e-23)
(8.62701 -0.0272021 1.18774e-23)
(8.05076 -0.0510658 0)
(7.9003 -0.0515468 -2.47859e-23)
(8.33358 -0.0557547 0)
(7.86599 -0.054184 1.56432e-23)
(7.76822 -0.0444528 -2.8952e-24)
(8.25858 -0.173131 0)
(8.28715 -0.21153 2.45523e-24)
(8.27626 -0.196933 0)
(8.24926 -0.145027 -6.74365e-25)
(8.25185 -0.164517 5.92506e-25)
(8.1197 -0.0666592 1.41277e-26)
(8.2524 -0.112308 4.95712e-24)
(8.3071 -0.245572 0)
(8.29883 -0.228504 -1.36425e-25)
(8.31179 -0.271993 5.86497e-25)
(8.309 -0.262845 -9.53773e-26)
(8.34407 -0.0327902 2.09083e-24)
(8.11779 -0.0619429 7.64469e-24)
(8.24013 -1.08618 1.27628e-23)
(8.29067 -1.11044 -2.03866e-24)
(8.3253 -1.10863 4.47839e-25)
(8.56377 -1.19085 0)
(8.50538 -1.17216 0)
(8.43075 -1.16309 -6.56341e-24)
(8.35022 -1.11881 1.72238e-24)
(8.37863 -1.14823 0)
(8.45904 -1.1763 -1.05448e-23)
(8.70674 -1.2274 0)
(8.7548 -1.21862 0)
(8.65997 -1.22553 0)
(8.60968 -1.22053 0)
(8.16291 -1.06792 5.51028e-24)
(8.2011 -1.07794 -5.92098e-24)
(8.8592 -1.19965 -4.76552e-25)
(8.80398 -1.22793 -5.30351e-24)
(8.05397 -1.03435 0)
(8.07506 -1.05909 0)
(8.1116 -1.07358 -7.57793e-25)
(7.97117 -0.999675 9.92318e-24)
(7.99339 -1.01379 3.67259e-24)
(8.03191 -1.03302 -6.95858e-25)
(7.75052 -0.928508 1.24945e-23)
(7.82131 -0.939154 -2.59409e-24)
(7.87216 -0.967234 -7.80361e-24)
(7.91584 -0.984604 -6.90276e-24)
(7.47764 -0.0627217 1.55883e-23)
(7.42379 -0.0964039 5.1465e-24)
(7.35111 -0.119536 0)
(7.28441 -0.176648 9.36097e-24)
(7.26852 -0.209497 1.98799e-23)
(7.25054 -0.297742 -2.00661e-24)
(7.24902 -0.338882 8.36232e-24)
(7.65407 -0.0386251 0)
(7.56917 -0.0455855 0)
(7.30744 -0.454711 0)
(7.29915 -0.535076 5.68066e-24)
(7.2367 -0.427553 4.74738e-24)
(7.3394 -0.603695 0)
(7.39994 -0.662709 -3.37721e-24)
(7.43784 -0.722199 4.52948e-24)
(7.49353 -0.782873 0)
(7.5621 -0.817642 5.35896e-26)
(7.60408 -0.861009 1.52113e-24)
(7.63542 -0.877778 1.35054e-24)
(7.71419 -0.914795 0)
(8.63159 -0.0440088 1.54381e-23)
(8.49102 -0.00428185 0)
(8.00303 -0.0619218 0)
(7.91404 -0.0610267 0)
(8.21434 -0.0571871 1.40817e-24)
(7.82405 -0.047225 -1.19349e-23)
(7.77034 -0.0414618 -2.62261e-24)
(8.26388 -0.179907 5.4362e-24)
(8.2862 -0.207006 0)
(8.29693 -0.222321 1.6582e-24)
(8.27702 -0.196091 1.44188e-24)
(8.24388 -0.159193 0)
(8.24302 -0.141732 4.39699e-24)
(8.26087 -0.175267 0)
(8.16113 -0.078018 0)
(8.08142 -0.052303 0)
(8.23445 -0.105716 0)
(8.24539 -0.126344 9.01263e-25)
(8.30861 -0.244593 0)
(8.30775 -0.237241 0)
(8.32372 -0.292855 -1.05339e-24)
(8.32144 -0.276724 5.21249e-25)
(8.31305 -0.260284 -2.54672e-26)
(8.31327 -0.00576105 2.71339e-23)
(8.24833 -1.11326 -1.5994e-24)
(8.27427 -1.12632 -5.30763e-24)
(8.31169 -1.12223 6.6619e-24)
(8.55168 -1.21464 1.38913e-23)
(8.50449 -1.20006 0)
(8.41621 -1.17859 1.07509e-23)
(8.35503 -1.1428 0)
(8.39211 -1.17041 0)
(8.45996 -1.19639 2.2183e-24)
(8.68279 -1.24241 0)
(8.72963 -1.24065 3.92245e-24)
(8.77997 -1.23877 0)
(8.63756 -1.23599 0)
(8.59245 -1.24123 0)
(8.15461 -1.08901 4.95372e-24)
(8.19556 -1.09685 -1.1114e-23)
(8.85587 -1.22901 -1.54147e-23)
(8.82866 -1.24544 0)
(8.05728 -1.06041 -8.46074e-24)
(8.08777 -1.07751 -6.07724e-25)
(8.11763 -1.0952 0)
(7.95153 -1.01687 8.15438e-24)
(7.98307 -1.04711 1.36191e-24)
(8.0207 -1.05887 6.69403e-24)
(7.7562 -0.959826 0)
(7.80755 -0.962902 1.15446e-23)
(7.85854 -0.993894 -7.66956e-24)
(7.92298 -1.00522 -2.31723e-23)
(7.42834 -0.0614322 3.34251e-23)
(7.48976 -0.0372794 -5.15639e-24)
(7.36163 -0.0902138 0)
(7.29616 -0.116796 0)
(7.26995 -0.144647 2.39077e-26)
(7.22473 -0.223844 1.04609e-23)
(7.21061 -0.268312 0)
(7.22123 -0.360831 9.51346e-24)
(7.65466 -0.0302622 0)
(7.59644 -0.0349375 -6.37215e-24)
(7.23743 -0.468614 -1.02001e-23)
(7.25192 -0.546666 6.62113e-24)
(7.20808 -0.404334 1.17422e-23)
(7.30176 -0.641149 2.06176e-24)
(7.36546 -0.699786 -3.10406e-26)
(7.39202 -0.740112 -6.79492e-24)