/*--------------------------------*- C++ -*----------------------------------*\
| =========                 |                                                 |
| \\      /  F ield         | OpenFOAM: The Open Source CFD Toolbox           |
|  \\    /   O peration     | Version:  v2012                                 |
|   \\  /    A nd           | Website:  www.openfoam.com                      |
|    \\/     M anipulation  |                                                 |
\*---------------------------------------------------------------------------*/
FoamFile
{
    version     2.0;
    format      ascii;
    class       surfaceScalarField;
    location    "0.96";
    object      meshPhi;
}
// * * * * * * * * * * * * * * * * * * * * * * * * * * * * * * * * * * * * * //

dimensions      [0 3 -1 0 0 0 0];


internalField   nonuniform List<scalar> 
18811
(
0.00364861
4.42782e-05
0.00180204
0.0060898
-0.00469785
0.00849959
0.00736402
-0.00572374
0.0156012
-3.81336e-05
0.00680727
0.00628782
0.00807921
0.0122195
0.00875403
0.00829105
-0.00364398
-0.00613314
0.016998
0.0236473
0.0148862
-0.000441277
-0.015125
0.0287387
0.0145133
-0.00172618
-6.04992e-05
0.0126016
0.00588285
0.0158611
0.0141774
0.00991003
0.0102646
0.00613027
0.0201598
0.0145615
0.0118688
-0.00969786
0.00587513
-0.00262962
0.0214633
-0.00473077
0.0318243
0.0316705
0.0403489
-0.00885836
0.0243997
0.00361313
-0.0238747
0.0442206
0.0171341
-0.00179758
-0.000666854
0.000170612
0.0168793
0.0142142
0.0182677
0.0200062
0.0247815
0.0226608
0.0173967
0.0134366
0.0156279
-0.00353539
0.025568
0.025287
-0.0136054
0.0153545
0.0100386
-0.00748604
0.00446107
-0.00190919
0.0284348
-0.00802006
-0.0271893
0.0482012
0.0420199
0.0514675
0.0544605
-0.0130313
0.0328746
0.00923089
0.0015972
-0.0238357
0.0550763
-0.000492712
0.0186517
-0.000526336
-0.000968103
-0.00137574
0.0011367
0.0062636
0.0133017
0.0311896
0.0163051
0.0335163
0.0264485
0.0326079
0.0373751
0.0245816
0.0221984
0.0157709
0.0248001
-0.00863382
0.00671547
0.0307436
0.0295292
-0.0102006
0.0128137
-0.0151961
0.0174007
-0.00575456
0.00739356
-0.000145878
-0.00322053
-0.0285566
0.0397221
-0.0123797
0.0452684
-0.00906018
0.0444855
0.067834
0.0779067
0.0609402
-0.0148058
0.0357355
0.0158413
0.00784313
-0.026991
0.0617896
0.000326182
0.000867332
0.00854057
0.00159101
-0.000692137
-7.4292e-05
0.0438892
0.00280406
0.0233896
0.040313
-0.00799067
0.0581649
0.0380209
0.0402474
0.0326911
0.0520773
-0.00701384
0.0739395
0.032621
-0.0154518
0.0380775
0.0164433
-0.00137394
0.0606871
0.0100252
-0.00636423
-0.0116006
0.0158482
-0.0164423
0.0293784
5.85414e-05
0.00253027
-0.00125175
-0.0346351
0.0442886
-0.0330335
0.0611381
0.0117574
0.025341
0.0393399
0.0776308
0.0733633
-0.0107277
0.0691278
0.0706486
-0.0140039
0.0525733
0.00743036
0.0302564
0.00569586
0.00303165
0.0615796
0.00156176
-0.0048184
0.000522708
0.00300528
0.000910399
0.00061586
-0.00116812
0.000115044
0.0358544
0.0146077
0.0562682
0.0112782
0.0529124
-0.0176473
0.0628302
-0.00307897
0.0871106
-0.00833002
0.0887079
0.0714473
0.070772
0.00616736
0.0417319
-0.0116362
0.025822
0.0384566
-0.0034588
0.000118615
0.0633748
0.061826
0.00334094
-0.00647577
0.0110683
0.00439422
-0.0018109
-0.0117536
0.0183317
-0.0202012
0.0260816
-0.000872763
0.000635981
-0.0233778
0.0432157
-0.0392184
0.0553262
0.0178303
0.0607702
0.0396286
0.0541328
0.0277149
0.0708417
0.00158514
0.0759231
0.0783513
0.0739445
-0.0200525
0.0689963
0.0283156
0.00429964
0.0239913
0.0297944
0.00758218
0.0704338
0.00115974
0.00251595
0.00158613
0.0379284
-0.00723472
0.0198551
0.0314971
0.0166469
-0.0119735
0.0709613
0.0534764
-0.0174153
0.0853613
0.0740353
-0.00654194
0.0647981
-0.0193663
0.0978316
0.0744699
0.009549
0.0743434
0.065898
0.0129064
0.0594285
-0.0145162
0.0256517
-0.0263026
0.0555727
0.00784699
0.000651718
0.0565525
0.0193309
0.00380926
-0.0056838
0.0111607
-0.00991752
0.014099
-0.0204944
0.0171389
-0.0144343
0.0379521
-0.0270886
0.0481548
0.0450131
0.0405306
0.0347409
0.0743631
-0.00613554
0.0864107
0.0636613
0.0228097
0.0837164
0.0157407
0.0643956
0.080624
0.0963981
0.0738801
-0.0152983
0.0831459
0.0188453
0.0119275
0.0532838
0.00773054
0.0310253
0.00861527
0.064411
0.00106174
0.00355037
-0.00391806
0.0254709
-0.00526498
0.0143574
0.0144148
0.00876225
0.0433151
-0.00793481
0.0570063
-0.0161237
0.0535084
-0.00656965
0.0876712
0.117506
0.134161
-0.0163543
0.10724
0.0799198
0.00506181
-0.00470444
0.106505
0.063153
0.0145388
0.0448426
0.0846456
-0.0078047
0.0248205
-0.0383967
0.0513467
-0.00257783
0.0141618
0.000284195
0.0488278
0.0189714
0.00385349
0.0105807
-0.00478217
0.00918617
-0.0150648
0.0128646
-0.00960634
0.0269255
-0.0164696
0.0331991
-0.0260887
0.0374653
0.0390101
0.0438248
0.0427085
0.0135332
0.07843
0.0897072
0.0375333
0.0782691
0.0646858
0.0357607
0.0788576
0.0795723
0.0719517
0.0410748
0.0716626
0.0665967
-0.0274351
0.077262
0.0226302
0.0673997
0.011652
0.0270932
0.0286318
0.00602742
0.0651491
0.00196887
-0.00313457
0.0160857
-0.000964062
0.00898582
0.0123182
0.00906573
0.0347279
0.00615864
-0.00291085
0.0441019
0.0359856
0.0101269
0.0516662
-0.00726
0.0911713
0.133111
0.123876
0.112033
-0.0251141
0.10948
0.00301705
0.0793366
0.0710107
0.00373741
-0.0152343
0.0897492
0.0561911
0.0127985
0.049146
0.0340127
0.0775069
0.0649712
-0.00651079
0.0229009
-0.00939743
0.0421369
-0.0224334
0.0562489
0.00503479
0.0339686
0.0331532
0.00531969
0.00598253
-0.00931013
0.0107029
-0.0089331
0.020565
-0.0119997
0.0268705
-0.0144353
0.0240904
0.0337086
-0.0272356
0.0363441
0.0301826
0.0153622
0.0424561
0.00753
0.0460996
0.0712874
0.079259
0.061751
0.110738
0.0192762
0.0646314
0.0511463
0.0513551
0.0639313
0.0767529
0.0668263
0.0624166
0.0315754
0.0603165
0.048441
-0.0358282
0.0747379
0.0176125
0.0644284
0.086451
0.0185084
0.0242592
0.0242098
-0.00304558
0.015729
-0.00748521
0.0421533
0.00046843
0.00485044
0.01177
0.0113202
-0.000725585
0.027624
0.00755461
0.0219531
0.0175132
0.0442488
0.0336223
0.0104543
0.0427397
0.0404109
-0.0185131
0.0937744
-0.0227655
0.107003
0.118737
0.0924815
0.0876446
0.0845323
-0.0317145
0.0998945
0.0603294
0.0183786
-0.000649103
0.0690593
0.0623777
0.00135027
-0.0185259
0.0802562
-0.00164298
0.0514995
0.0530678
0.0242896
-0.000378007
0.0687212
0.0721803
-0.00729423
0.0310627
-0.0126235
0.0406462
-0.0282809
0.0562142
0.00240456
0.013617
0.0418015
0.00408855
-0.00606863
0.0142347
-0.0075697
0.0226839
0.0220426
-0.0107425
0.0247195
0.0309362
-0.00902726
0.0294044
0.0258852
0.0193696
0.0376987
0.00745859
0.0365178
0.00180401
0.0398713
0.0663615
0.0751223
0.0351631
0.04531
0.0778818
0.0574379
0.0386032
-0.0081966
0.0971379
0.0775561
0.0393579
0.0650178
0.0612201
-0.0432536
0.0633171
0.051805
0.0204354
0.0540639
0.0515055
0.0299027
0.0561566
-0.0323842
0.0592479
-0.00151976
0.0730962
0.0731583
0.0218766
0.0149445
0.0267144
0.0076748
-0.00516473
0.0239599
-0.00189516
0.0446058
0.00131572
0.0111154
0.0124849
0.0294003
-0.00254429
-0.00314683
0.0348799
0.0239747
0.0269442
-0.0120837
0.0319222
0.0287421
0.0101657
0.0372975
0.0395912
0.0388612
-0.0205709
0.0898644
0.000157728
0.0783641
0.0951322
0.0879189
0.0820786
-0.0440768
0.085347
0.0557538
0.00862152
0.0702771
-0.0341277
0.102989
0.0128106
0.0495417
0.0390188
0.0253433
-0.00106892
0.0537091
-0.029733
0.0509958
0.0251908
0.061148
-0.0298753
0.0606417
-0.00903239
0.0672052
0.0520311
0.0426634
0.0328463
0.0550616
0.0284526
-0.00369045
0.0461159
-0.0271237
0.056527
0.0100606
0.0236373
0.0158383
0.0291535
0.00488521
0.0150641
-0.00158225
-0.00792662
0.0210216
-0.0219374
0.0213199
0.0231943
-0.00170787
0.0280878
0.000838873
0.0271004
0.0246794
0.00824848
0.0361104
0.0349588
0.0033587
0.00169908
0.0387164
0.0152831
0.0242499
0.0592936
-0.0241948
0.105581
0.0740661
0.0109433
0.0812426
0.0965849
0.0834909
0.00392625
-0.0130552
0.0706273
0.0591857
0.0298491
0.0773696
0.0528129
0.0492914
-0.0166879
0.0427541
0.0245453
0.0534255
-0.00166209
-0.0152572
0.041224
0.0106808
0.051433
0.0412002
0.0200995
0.0351666
0.033693
0.0357573
0.0172747
0.0810838
0.0900415
0.0211302
0.037621
0.0197477
0.017326
0.000153306
-0.00585772
0.0317832
0.0314775
0.0143558
0.00733642
0.00079254
0.00819959
0.00828933
6.22275e-05
0.0239378
-0.000707076
-0.00396815
0.0277885
0.0250965
0.0302535
0.0237196
0.0371901
0.0257602
0.0111542
0.0374869
0.0299527
0.0188638
0.0205612
0.044005
-0.024496
0.086184
0.0152028
0.0940847
-0.0088808
0.0850841
0.115108
0.11608
0.0766422
0.0762557
-0.00495999
0.065392
0.0849918
-0.00489037
0.0430509
0.0103449
0.0266318
0.0232302
0.0375271
0.0294399
0.0138033
0.0516777
0.040204
0.0526537
0.0475061
-0.0300104
0.0505702
0.0707576
0.0561251
0.0429153
0.0393022
0.067801
-0.016432
0.0397848
-0.0231157
0.0438868
0.0122008
0.00748202
0.0169606
0.0462941
0.00373529
-0.00677706
0.0168322
0.00352593
0.0175223
-0.017987
0.0189707
0.0280272
-0.00123434
0.0127056
0.0187019
0.0374157
0.0201198
0.0182236
0.0320944
0.019934
0.0182032
-0.00980669
0.040485
0.0410719
0.0194107
0.0252795
0.069568
0.0184068
0.0110056
0.08554
0.0551479
0.0317224
0.0378535
0.0819488
0.0556156
0.0652521
0.0449518
0.0327979
0.0106582
0.0666338
0.0349715
0.0310474
0.0225389
0.0647985
0.0670405
0.0158864
0.0275928
0.040273
0.0395937
0.038155
-5.62171e-05
0.052531
0.0221243
0.0434011
-0.00248526
0.0400952
0.0130028
0.00629442
0.0415662
0.033341
0.0175401
0.0186919
0.0525153
0.00671704
0.0492754
-0.0153995
0.0599173
0.0588943
0.054064
0.0176547
0.027298
0.0165484
-0.00728894
0.0191623
0.00293101
-0.00605602
0.0241615
0.011405
0.0355319
0.00557371
0.000984268
0.012136
0.00161969
0.0229353
-0.00200393
0.0139499
0.0157488
0.0234577
0.0344482
0.0160389
0.0226434
0.0353965
0.0229773
-0.0164581
0.0353351
0.0247221
0.0252153
0.0165062
0.0453058
0.0372641
0.0739948
0.0677319
0.0401158
0.0477815
0.077697
0.097105
0.005626
0.0784423
0.108636
-0.0259256
0.0593836
0.0462593
0.04131
-0.0143643
0.0457487
-0.0494327
0.0739084
0.0728903
0.0191032
-0.0128927
0.0408062
0.0277765
0.0311395
0.00881668
0.0440259
0.0262986
0.0267552
0.0537409
0.0336564
0.0467818
0.0467256
0.0274991
-0.023129
0.0409228
-0.0080833
0.0602429
0.0338459
0.0401739
0.0115616
0.0488322
0.0709025
-0.0164108
0.0352486
-0.0131635
0.029708
0.0140135
0.00776209
0.00854129
0.00395663
0.0114217
0.00309753
0.0150755
-0.0130479
0.0124847
-0.0163082
0.0335601
0.0086826
0.0073492
0.0281717
0.0308729
0.0134901
0.0228483
0.0373202
0.0247499
0.0110724
-0.00652304
0.0318335
0.041862
0.0233109
0.0224186
0.0167601
0.0210432
0.0516319
0.0233683
0.0487382
0.0201123
0.097943
0.0392078
0.0396426
0.0474466
0.0539024
0.0194282
0.0629082
0.0296484
0.08138
0.00920579
0.0503757
-0.000159483
0.0466423
0.0444218
-0.0028073
0.0458372
0.052955
0.0229918
0.016835
0.0578978
0.0724299
0.0500639
0.0545768
0.04717
-0.00268928
-0.0205494
0.0477167
0.0309248
0.0509847
0.0183519
0.0286228
0.044601
0.002287
0.0460274
0.0321981
0.00883805
0.0219321
0.0368193
-0.00391016
0.0368628
0.00122803
0.037855
0.0731482
0.0242128
0.0458515
0.0218957
0.024785
0.0125623
0.00211191
0.0083355
0.00168249
0.0219456
0.00547436
0.00123633
0.0110588
0.00341989
0.0188169
-0.00521423
0.0142565
0.0205703
-0.0174426
0.0281784
0.00866232
0.0204617
0.0156965
0.0160361
0.0395309
0.0315987
0.0434648
0.0217508
0.0205749
0.0448764
0.044575
0.0601024
0.0684515
0.0304238
-0.0128179
0.0528774
0.0791338
0.0764897
0.00527236
0.0593899
0.0380239
0.0447525
0.0538245
0.0378769
0.0441382
0.0403424
0.00562323
0.0718382
-0.0448189
0.0695946
0.0655227
0.0283543
0.0388043
0.0115029
0.0303062
0.0245511
0.026959
0.048831
0.022675
0.0252434
0.0362448
-0.0050963
-0.00892466
0.0377154
0.0358683
0.034627
0.038484
0.00762375
0.0452077
0.045306
-0.00959128
0.0449419
0.0366458
0.0264924
0.0332268
0.0401706
0.00876512
0.0365285
-0.00299132
0.0248555
-0.00522666
0.029085
0.011362
0.00409154
0.019779
0.00256013
0.00421218
0.00846952
0.00470612
0.0133598
0.0028968
0.00919643
-0.0134933
0.028925
0.0304084
0.0161424
0.0373447
0.00832229
0.0319319
0.0405967
0.0257455
0.0182397
0.0468165
-0.00480399
0.050061
0.0401587
-0.00935388
0.06934
0.0104514
0.0591479
-0.0309806
0.0614825
0.0434606
0.036033
0.0451888
0.0293781
0.0496463
0.00812734
0.0544281
0.0752412
0.05637
0.0138234
0.0401594
0.0518212
-0.00921502
0.053416
0.0311913
0.0442509
0.0419666
0.0317536
0.0589797
0.0116783
0.0217406
0.0444234
0.0621908
0.0339411
0.0420566
0.0474177
-0.0199837
0.0471703
0.029124
-0.0198857
0.0452824
0.0454275
0.0438952
-0.00798406
-0.0112345
0.0458878
0.0340247
0.00856486
0.0356825
0.00620199
0.0361005
0.016641
0.0173471
0.0410693
0.048819
0.0444489
0.0166429
0.0186711
0.0200886
0.00710722
0.00896082
0.00311117
0.00370717
0.00165003
0.0118626
0.00528
0.00201998
0.0125247
-0.014007
0.0183725
-0.0034993
0.0143695
0.0153205
0.00884789
0.0224834
-0.0070774
0.0247417
0.0109887
0.0271756
0.00222404
0.0302816
0.0174416
0.0236509
0.0361571
0.0364218
0.0107856
0.00935044
0.0410575
-0.00110744
0.041533
0.038263
0.053124
0.00644856
0.0394888
0.0223677
-0.0072428
0.0506773
0.0763989
0.0601745
0.000429848
0.0563295
0.000790993
0.0755812
0.0579321
0.0351673
0.00497951
0.0445589
0.0272975
0.0261335
-0.01631
0.0474889
0.0279439
-0.0112573
0.0547928
0.0546659
0.0494501
-0.030872
0.0430526
0.0471941
0.0311439
-0.0210577
0.0551075
0.0210635
0.0248486
0.0226317
0.0274169
0.0387545
0.0197408
0.0255844
-0.00213306
0.0475239
0.0417446
0.0379569
-0.0126328
0.0466201
0.0401127
-0.00246339
0.0357793
0.0342845
0.0346843
0.0100066
0.0384496
0.0027899
0.0402202
0.0168144
-0.000351498
0.0168958
0.000812309
0.0224048
0.00765993
0.00316114
0.0130472
-0.000954192
0.00539958
0.0110464
0.021941
-0.00181563
-0.00805541
0.0232134
0.0249398
0.0343034
0.0164988
0.0177108
0.0300012
0.00783148
0.022933
0.0319586
0.0286202
0.00785467
0.0355737
0.0397662
0.0241271
0.0170909
0.0278105
0.0138022
-0.0149954
0.052993
-0.00267388
0.0561697
0.0461717
-0.0250421
0.0476687
0.035432
-0.000353232
0.0781969
0.0612438
0.00481636
0.0537404
0.0410599
0.0357399
0.0557925
-0.000228019
0.0353183
0.0323099
0.0053675
0.0391609
-0.0193861
0.0454786
0.0280319
-0.0126364
0.0405631
0.0380523
0.0171601
0.00611186
0.05085
0.0304482
0.0195098
0.0461271
-0.00307762
0.055513
0.0409525
0.0424264
0.0459658
0.0424052
-0.0180896
0.0456497
0.0207738
-0.019513
0.0451491
0.0348774
0.0396249
0.00192416
-0.00993645
0.0477541
0.0365424
0.00104623
0.0372438
0.0251204
0.00695832
0.0192457
0.00974522
0.010582
0.0197263
0.0404335
0.0398012
0.0164517
0.0124261
0.019709
-5.00132e-05
0.00690081
0.00142648
0.00223074
0.00171386
0.00655984
0.0119305
0.000966008
0.0114771
0.00228687
0.0214906
0.0278169
0.0171058
0.0176758
0.0212058
-0.00337186
-0.00318306
0.0217348
0.0182536
0.0122443
0.0417205
0.0401708
0.0230511
0.0126205
0.0275264
0.0124563
0.0450128
0.0450709
0.0369289
0.0281725
0.0385063
0.0176085
0.042457
0.00368561
0.0268927
0.0208234
-0.0091931
0.0445283
0.0267826
0.053583
0.0679323
-0.00950865
0.0658069
-0.0122261
0.0537328
0.0638532
0.0440067
0.0320416
0.0406463
0.0298994
0.00950715
0.0358484
-0.0206116
0.0484923
0.0198171
-0.00934028
0.0485605
0.047745
0.0425244
-0.0252192
0.0452697
0.0205738
0.0374489
0.0484581
0.0460321
-0.00370975
-0.00645817
0.0523145
0.0358507
0.0261518
0.015782
0.0291728
0.00565014
0.0290421
0.0450375
0.0494594
-0.00824427
0.0446214
0.0206404
0.0144364
0.00334717
0.01918
0.0249897
0.0243512
0.0239821
0.0200352
-0.00671573
0.0459544
0.0191629
0.0186679
0.0132276
0.00235203
0.0113883
0.00065779
0.0110702
0.00882803
0.00323104
0.00469995
0.0095451
0.0178695
-0.00488786
-0.00028597
0.0222702
0.00647034
0.0218589
0.0297974
0.0245958
0.0190092
0.0160666
0.0220048
0.0188945
0.0231773
0.0280935
0.0123792
0.0402952
0.0407983
0.0201178
0.0248196
0.0209458
0.0240369
-0.00417812
0.0410875
-0.0153778
0.043669
-0.00226337
0.040784
-0.0243261
0.0417857
0.0179962
0.030575
-0.0127492
0.0335569
0.0292011
-0.00870441
0.063424
0.0607181
0.0264409
0.0410311
0.0295024
0.0246721
0.021318
0.0435687
0.0418033
0.0414197
0.0155502
0.0249508
0.0453066
0.028412
0.00721067
0.027298
0.0209582
0.0486645
0.0342109
0.0148177
0.00397625
0.0433691
0.0062557
0.0375224
0.0485587
-0.0300335
0.0502999
0.05637
0.0376349
0.0484909
0.0514229
0.0462293
-0.0200827
0.0490395
0.0437603
0.000947275
0.0356139
0.0135757
0.028492
0.0157572
0.0319271
0.00156374
0.0145475
0.0187175
0.00350804
0.00418083
0.0143628
0.00849272
0.0108487
0.0034533
0.0131324
0.0165954
0.0277234
0.0334813
0.0127454
0.00900607
-0.0047129
0.0143386
0.000957403
0.00233485
0.00343753
0.00323329
0.00624303
0.00128128
0.0213418
0.0234801
-0.00222942
0.0323247
0.0226288
0.0205671
-0.000716529
0.0171308
0.000343102
0.00157002
0.0208795
0.031544
-0.00579346
0.0291991
0.0361057
0.00651285
0.0341608
0.0456499
-0.0122466
0.0362322
0.0287826
0.0308544
0.0231483
0.0174978
0.0234289
0.0181004
-0.0303589
0.0481934
7.34144e-05
0.0334657
-0.0123195
0.0413822
0.0276328
0.0370671
0.0309305
0.0311899
0.0586885
-0.0105832
0.0529114
-0.0150782
0.0447615
0.0465145
0.00353387
0.0407846
0.0268347
0.0243017
0.0168542
0.0489883
0.0328104
0.0449873
0.03427
-0.0198397
0.0405253
0.0284173
-0.00630833
0.0410246
0.0533879
0.0371287
0.0254063
0.0229633
0.0122885
0.0369797
0.0474692
0.0335152
0.00383917
0.0329253
0.0152636
0.0255176
0.0255216
0.0259307
0.0225095
0.0261428
0.0106527
0.0327928
0.0362999
0.0417776
0.04891
0.0176236
0.0121646
0.0172698
0.0150587
0.0189621
0.0129848
0.00210177
0.00702124
-0.00202225
0.00718894
0.00781063
0.0387154
0.0158017
0.0150086
0.00702545
0.00164933
0.0071123
0.0124633
-3.53773e-06
0.00127519
0.00385704
0.00025287
0.00526993
0.0111423
0.00628493
0.015344
0.00639584
0.0173049
0.0267896
0.0293039
0.0226723
0.0173038
-0.0113527
0.013109
0.0275385
0.00186722
0.0296541
0.0310423
0.00379482
0.0322225
0.0360508
0.0378442
0.0223281
0.0230824
0.023979
0.0119922
-0.00216421
0.030817
-0.00951338
0.0401785
0.0498933
0.0406534
-0.0174018
0.0352968
0.0305841
-0.00925639
0.0424869
0.0316497
0.0597354
0.0414032
0.0277806
0.0324849
0.0171602
0.0368493
0.0331247
0.0117862
0.0232226
0.0236722
0.016357
0.0249762
0.00970679
0.0389067
0.0422049
0.0405107
0.00397167
-0.00249351
0.036465
0.0377026
0.0387302
0.0336779
0.00773325
0.0262456
0.0277176
0.00329963
0.0339964
0.0286252
-0.00398091
0.0266898
0.0322878
0.00832283
0.0403113
0.0364752
0.0404903
0.0476793
0.0480337
-0.0200149
0.0457524
0.0288099
0.00364642
-0.00447244
0.0403014
0.0367899
0.0407907
0.00751059
0.0257744
0.0146714
-0.00103505
-0.00156479
0.011592
-0.00255656
0.0190025
-0.00023107
0.00817871
-0.00167104
0.00418634
0.00668255
-0.00144521
0.00497278
0.0028822
0.0178508
0.0190446
0.0304821
-0.00196671
0.0080536
0.00431378
0.00658956
0.000527851
0.000619713
0.00150858
0.00194623
0.0026113
-0.00125896
0.00782281
0.0328727
-0.00339007
0.0302485
0.0259861
0.0207652
0.00245151
0.0192028
-0.000864335
0.013322
0.000837506
0.000487165
0.0273802
0.00118281
0.029724
0.0299113
0.00108299
0.0347141
0.0099015
0.0276208
0.0467644
0.0425567
0.0307174
0.0286371
0.0211185
0.0069692
0.033283
0.0287081
0.00632209
0.0286461
0.00165409
0.0295001
0.0127108
-0.00734921
0.0386476
0.0412777
0.0194422
0.0210867
0.0209321
0.0460413
-0.0112617
0.0447013
0.00298102
0.034536
0.0110826
0.0219713
0.0351661
0.0404039
0.0464821
-0.000491448
0.0388741
0.034446
0.039459
0.0400052
0.0029722
0.0341158
0.00802525
0.030356
-0.00297824
0.037075
0.0346333
0.0372055
0.0309588
0.0017402
0.0268019
0.0281371
0.0102934
0.0212212
0.0444732
-0.00939708
0.0453333
0.0305292
0.021223
0.025787
0.0275546
0.0194893
0.0256647
0.0365241
0.0434743
-0.00245136
0.0386524
0.0377459
0.0521652
0.0205227
0.00882373
0.0146424
0.0063147
0.00216208
0.00346607
-0.00433854
0.000172436
0.00425834
0.00110337
0.00053733
-0.000508676
0.02821
0.0218981
0.00594914
0.00531352
0.00637034
-0.00127501
0.000572455
0.00235915
0.00392512
0.000279067
0.00910476
0.000283404
0.00474874
0.0281517
0.0312749
0.0307739
0.021562
0.0223084
0.0134014
0.0110561
0.000750794
0.0265729
0.0305834
0.0395253
0.0158381
0.0185702
0.0430392
0.0152927
0.0309254
0.00276165
0.0393861
0.0316936
-0.00141965
-0.00101686
0.0293773
0.0320813
0.0353407
0.0318663
0.0346875
0.0308418
0.0440681
0.0366428
0.0306954
0.0409777
0.00570982
0.0412294
0.0357172
0.00981742
0.0412737
-0.0140195
0.0358849
0.0211141
0.0152207
0.025323
0.0125336
0.0342229
0.00340932
0.0350504
0.0374432
0.0377255
0.000972638
0.00637297
0.0331204
0.0327618
0.0399476
0.0140489
0.0233085
-0.00171752
0.0368915
0.0361184
0.00338752
0.0276863
0.0300474
0.00277328
0.0249607
0.0234606
0.0261179
0.0189725
0.0510085
0.0446612
0.0423771
-0.0183117
0.0433286
0.0169893
0.0189052
0.0218051
0.0210609
0.018026
0.019725
0.0243069
0.0128248
0.0228051
0.0286665
-0.00310756
0.0193899
0.0084431
-0.00454863
-0.00309776
0.0137631
-0.00252663
0.00293582
0.000676014
-0.00326196
-0.00935934
0.00402206
0.0022328
-0.00211533
-0.000697759
-0.00722766
0.0182048
0.00856864
0.0153613
0.0223155
0.00284364
-0.000564265
0.000812901
0.00142074
0.00564786
0.00224338
0.0288638
0.00128528
0.0298272
0.0318862
-0.00739148
0.0293093
0.0153546
-0.00912415
0.0238482
0.00314397
0.00392968
0.0226667
0.0211861
0.00917311
0.0418665
0.0395304
0.0225594
0.0199931
-0.00581648
0.0363483
0.0331707
-0.00719664
0.0361835
0.0245839
0.00701002
0.0279257
0.00078082
0.0304222
0.0278483
0.00640469
-0.0014425
0.0318898
0.0420643
-0.0144641
0.0503881
-0.00192164
0.0331401
0.03959
0.000597612
0.0418736
0.037109
0.0435045
0.00266957
0.0392436
0.0144494
0.0210526
0.0363459
0.037916
-0.00121799
0.0357311
0.00898503
0.0254622
0.0224648
0.0458435
0.0334357
0.0490493
0.0134744
0.0256777
-0.0199772
0.0347749
-0.00324872
0.0268229
0.0174213
0.0135818
0.0230717
0.0244925
0.0191184
0.0107668
0.0107962
0.0137973
0.0158003
0.00699565
0.0295064
0.0333908
0.035919
0.014175
0.0250022
0.018929
0.023386
0.0132388
0.0294372
0.0400379
0.0382817
0.0432439
0.0350444
-0.000604805
0.028569
0.0125475
0.00482602
-0.000458862
0.00536049
-0.0020004
-0.00532596
-0.0121756
-0.00357575
0.00159885
0.000848205
0.00109761
-0.00106461
0.00217013
-0.00579955
0.000270948
-0.0109861
0.0232545
-0.00342712
0.0162555
0.0190888
0.00122501
0.00332765
0.000685771
-0.00190476
0.00926663
0.00207085
0.00593941
0.0225608
0.0386747
0.0374455
0.0333366
-0.00920872
0.0253517
0.0154865
0.0144107
0.0449452
0.0134419
0.0278236
0.0166882
0.0222878
0.0354308
0.036233
0.0178585
0.0179565
0.0105939
0.0221027
0.00840291
0.0273408
0.0385486
0.0344277
0.0280718
0.0382307
0.0378019
0.0312731
0.00982287
0.0303156
0.0191035
0.0388004
0.0146834
0.0278241
0.00736368
0.0304315
0.0263132
0.0178323
0.0150347
0.0249325
-0.015209
0.0360189
0.0210033
0.0123996
0.0253894
0.00870091
0.0270631
0.0473029
0.0293246
0.0157186
0.0460945
0.0126305
0.0356385
0.0375523
0.014077
0.0211883
0.0149388
0.0121676
0.0413173
0.00799466
0.0165851
0.0269722
0.0212461
0.020324
0.00155317
0.0282585
0.0354827
0.0343977
0.038477
0.0316322
0.0406323
0.00711194
0.0217439
0.00221405
0.0371531
0.0398165
0.0360834
0.00628264
0.00572063
0.0286493
0.0336364
-0.000749904
0.00971106
-0.000183012
-0.00393365
-0.00474053
0.00599883
-0.00288899
-0.00332507
-0.00820074
-0.00371491
-0.00677399
-0.0105881
-0.0166878
0.000595086
-0.0014522
0.00115166
-0.00210242
-0.00851166
-0.00762544
-0.00840882
0.019346
0.00261892
0.0136293
0.0133996
-0.000496027
0.0189024
0.00106051
3.34128e-05
0.000211771
0.00494436
0.0133907
0.0244466
0.0497529
0.00523777
0.0279851
0.0199304
0.00565665
0.0175701
-0.0011451
0.0129439
0.00292932
0.0158077
0.0282441
0.0378382
0.0459192
0.00285136
0.0318858
0.0382924
0.0395331
-0.0040841
0.0308638
0.03379
0.0165906
0.0172659
0.0439583
0.00283894
0.0346102
0.0105084
0.0264855
0.0408477
0.0390993
-0.0171541
0.0355995
0.0132366
0.0258755
0.0303238
-0.000630247
0.0289942
0.0341268
0.0301908
0.0313628
-0.000862646
0.0259989
0.0338276
0.0018208
0.0332093
0.0340709
0.000917556
0.0261934
0.0293568
0.00139178
0.0269891
-0.0146173
0.0297071
0.0306183
0.0204608
0.0145952
0.00871427
0.0279686
0.0294365
-0.0014081
0.0229028
0.0288401
0.0232572
0.0183013
0.0169432
0.00980935
0.00208891
0.018702
0.0217987
0.0278015
0.00716895
0.0286146
0.0274617
0.00603774
0.0240446
0.0137084
0.0082487
0.0225694
0.025153
0.0146061
0.0315213
0.0293182
0.0151148
0.021207
0.0139488
0.0249615
0.012505
0.0223827
0.0342148
0.00635269
0.0263231
0.00921091
0.00189407
-0.0066805
-0.00198245
-0.0123212
-0.0205276
0.0125127
-0.0279298
-0.00988128
0.00082056
-0.00156683
0.000248343
0.000219127
0.00168164
-0.00588046
-0.00692993
-0.00461145
-0.0183677
0.0232603
0.0134421
-0.0019606
0.0102474
0.0167855
0.000351767
0.000668195
4.73871e-05
0.00499802
0.00187107
0.0117941
0.0367794
0.0250868
0.0430199
0.0235657
0.0127682
0.00946325
0.0389665
0.0165641
0.0201675
0.00363458
0.0404106
0.0470968
0.0403756
0.0203753
0.0184242
0.0330337
0.000564697
0.0323613
0.0428938
0.0155368
0.0273132
0.00625308
0.0272535
0.00964371
0.0301387
0.0260169
0.0121298
0.0257828
0.00900003
0.0269419
0.0130787
0.0174621
0.00691603
0.0223108
0.0111871
0.0233702
0.00843899
0.0221119
0.0105395
0.021023
0.0133403
0.0126099
0.0336821
0.0346826
0.00764204
0.0263796
0.0337594
0.0297801
-0.0111799
0.0373159
0.0178772
0.00772268
0.0219689
0.028579
0.0290098
0.0345257
0.020951
0.00872941
0.0223735
0.013451
0.00969258
0.0100905
0.0189033
0.0259393
0.0268409
0.0279115
0.00754112
0.020029
0.0108692
0.0176039
0.0327814
0.0292859
0.0354698
0.0342669
0.012254
0.0183592
0.0405712
0.0344901
0.0361868
-0.0216102
0.0428589
0.0115653
0.0367353
0.00542256
0.000270689
0.00400907
-0.00145574
-0.0101816
-0.00356816
-0.00278832
0.00153034
-0.0198452
-0.00877343
-0.0153933
-0.0134445
-0.0179661
0.00988123
-0.0246437
-0.000208677
-0.00155782
0.000366055
-0.0050779
-0.00272052
-0.0126274
-0.00649098
-0.0152266
0.0176324
0.00426135
0.0127061
0.0115335
-0.00475839
0.0164573
-1.849e-05
0.00422704
0.00538935
0.029974
-0.00984623
0.0349014
0.0218173
0.0194802
0.0137426
-0.00414302
0.0177601
0.00604905
0.00809489
0.0290585
0.0376721
0.0440328
0.0100473
0.0352809
0.0483282
-0.000459524
0.0324157
0.0308715
0.0154102
0.0266146
0.0301837
0.0323927
0.000163901
0.0262674
0.0347076
-0.000583746
0.0296326
0.0369445
0.0379126
0.0375694
0.0265119
0.0245122
0.00596753
0.0165556
0.0324378
0.0320626
0.0281843
0.0200569
-0.000633737
0.0335263
-0.00103012
0.0351901
0.0250829
0.01452
0.0189818
0.0183149
0.0178318
0.0390047
-0.00314694
0.03089
0.0250712
0.000647471
0.0325662
0.00643793
0.0148497
0.0224395
0.0140447
0.00842422
0.0240314
0.0254595
0.00988663
0.0161473
0.0102593
0.0163282
0.0169763
0.0101169
0.00768525
0.0121408
0.0185155
-0.000367681
0.017819
0.0288697
0.00262018
-0.00338344
0.0317658
0.0310099
0.0261768
0.00707324
0.0432132
0.00730828
0.031444
0.00846357
0.0249723
0.0049348
0.0302311
0.0235256
0.0178945
0.00626357
0.0293703
-0.00678884
0.00290325
-0.00371924
-0.00868261
-0.0132333
-0.0144014
-0.0252937
-0.0249444
0.00677704
-0.0283196
-0.0325169
0.00362616
0.000444075
-0.0013584
0.0010551
-0.00362804
0.00235077
-0.00621075
-0.0028105
-0.011171
0.00192148
-0.0191183
0.0200674
0.0133008
-0.00286825
0.000740711
0.00593983
0.016162
-0.00140478
-0.000310053
0.00216823
0.00321551
0.0365935
0.00891534
0.0247262
0.0295583
0.0463628
-0.00950469
0.0234582
0.00852366
0.00916831
0.0434814
0.0165795
0.0247815
-0.00750927
0.0404464
0.0353103
0.00965622
0.0315694
-0.00545954
0.0351267
0.025113
0.00750379
0.0215608
0.0105205
0.0209397
0.00817475
0.0169829
0.0120556
0.0216419
0.00604921
0.0227989
0.0214146
0.0144158
0.0164758
0.0202324
0.0156992
0.021769
0.00713429
0.0191324
0.00823233
0.016395
0.0248388
0.0154212
0.0170897
0.0139333
0.0183484
0.0113301
0.0170672
0.00402719
0.0155003
0.0338136
0.0270514
0.0392331
0.0343801
-0.0110707
0.0285385
0.0330784
0.0269114
0.0303365
0.0325441
-0.00343568
0.0345452
-0.00794185
0.0230443
0.0150317
0.0186264
0.0151238
0.00908819
0.0176352
0.00803096
0.0156147
0.0199081
-0.000175566
0.0163715
0.0160018
0.00581138
0.0121037
0.0037194
0.0137217
0.0339639
0.0329843
0.0367016
0.0152723
0.0254366
0.0443838
0.0290243
0.010054
0.0189946
-0.00432808
0.0266223
0.0267261
0.0237607
0.00308119
-0.00477467
-0.0057872
0.000141995
-0.0140075
0.00445246
-0.0229145
-0.0309047
0.0115811
0.000872783
-0.0289555
-0.00402768
-0.0231123
-0.029415
-0.0297541
-0.0309288
-0.001243
-0.0021795
-0.00618871
-0.000832449
-0.0102848
-0.0109477
-0.00226114
-0.0182733
0.0126971
0.00649286
0.0112338
0.00311482
-0.00594138
0.00967377
-0.00674649
0.0102058
-0.000456273
0.00380065
0.000615578
0.0503965
0.0169646
0.00690224
0.00732998
0.0204802
0.0188642
0.0246102
0.015202
0.00754048
-0.00633575
0.0154606
0.00339095
0.0337214
0.0553365
0.0471177
0.0173362
0.0129768
0.0139126
0.0200288
0.0315376
0.0309713
0.0278961
0.0330619
0.0324155
0.0268748
4.73106e-05
0.0217716
0.0335718
0.0370552
0.0222829
0.00329549
0.0158399
0.0194738
0.015164
0.00983799
0.0311234
0.0296586
0.0322984
0.0061418
0.0268663
-0.00569973
0.0315382
0.0234432
0.0149708
0.0184722
0.0153056
0.0127845
0.0142806
0.0160857
0.0159786
0.0224609
-0.00686076
0.0358282
0.024475
0.0197975
0.0137417
0.00894241
0.0144667
-0.00412131
0.0194111
0.00169229
0.0167617
0.0113444
-0.00483676
0.0140703
0.0173591
0.0170947
0.0172624
-0.00024951
0.0197198
0.0158161
0.0212478
0.015484
0.00363823
0.0095245
0.00945477
0.0230505
-0.00127309
0.0328403
0.0338574
0.0560529
-0.0135163
0.0539634
0.018215
0.00948802
0.0358316
-0.00203775
0.0272489
0.0233608
0.0319267
-0.00293465
-0.00541782
-0.0108882
-0.0143508
-0.0162504
-0.035187
-0.0267656
-0.0414533
0.0087609
0.0107942
-0.042849
-0.0409206
0.00558291
0.000286713
-0.00188257
-0.00374662
0.00103765
-0.00541339
-0.00347237
-0.00752072
-0.015176
0.00295521
-0.021883
-0.00712248
0.0129663
0.0104308
-0.000942782
-0.00290202
0.000261951
0.00165705
-0.00891659
0.0179343
-0.000513044
0.00788447
0.00216693
0.0214891
0.0250371
0.0229313
0.0210952
0.0366016
0.0421422
-0.0073557
0.0146398
0.00799663
0.0223122
0.0276645
-0.0113258
0.0540583
0.0256927
-0.00845112
0.0270243
0.0302
0.00474995
0.0249266
0.0313315
0.0238673
0.00741139
0.0173005
0.0139418
0.00867564
0.0172457
0.0294194
0.0156552
0.0166345
0.0145669
0.0220298
0.00770715
0.0142846
0.0232147
0.0291663
0.000270542
0.0307903
0.0297479
0.0081156
0.024419
0.0287619
0.0202674
0.0214631
0.03271
0.0293453
0.0338418
0.0290554
0.0304711
0.0106753