/*--------------------------------*- C++ -*----------------------------------*\
| =========                 |                                                 |
| \\      /  F ield         | OpenFOAM: The Open Source CFD Toolbox           |
|  \\    /   O peration     | Version:  v2012                                 |
|   \\  /    A nd           | Website:  www.openfoam.com                      |
|    \\/     M anipulation  |                                                 |
\*---------------------------------------------------------------------------*/
FoamFile
{
    version     2.0;
    format      ascii;
    class       pointVectorField;
    location    "0.96";
    object      pointDisplacement;
}
// * * * * * * * * * * * * * * * * * * * * * * * * * * * * * * * * * * * * * //

dimensions      [0 1 0 0 0 0 0];


internalField   nonuniform List<vector> 
14482
(
(0 0 0)
(0 0 0)
(0 0 0)
(0 0 0)
(0 0 0)
(0 0 0)
(0 0 0)
(0 0 0)
(0 0 0)
(0 0 0)
(0 0 0)
(0 0 0)
(0 0 0)
(0 0 0)
(0 0 0)
(0 0 0)
(0 0 0)
(0 0 0)
(0 0 0)
(0 0 0)
(0 0 0)
(0 0 0)
(0 0 0)
(0 0 0)
(0 0 0)
(0 0 0)
(0 0 0)
(0 0 0)
(0 0 0)
(0 0 0)
(0 0 0)
(0 0 0)
(0 0 0)
(0 0 0)
(0 0 0)
(0 0 0)
(0 0 0)
(0 0 0)
(0 0 0)
(0 0 0)
(0 0 0)
(0 0 0)
(0 0 0)
(0 0 0)
(0 0 0)
(0 0 0)
(0 0 0)
(0 0 0)
(0 0 0)
(0 0 0)
(0 0 0)
(0 0 0)
(0 0 0)
(0 0 0)
(0 0 0)
(0 0 0)
(0 0 0)
(0 0 0)
(0 0 0)
(0 0 0)
(0 0 0)
(0 0 0)
(0 0 0)
(0 0 0)
(0 0 0)
(0 0 0)
(0 0 0)
(0 0 0)
(0 0 0)
(0 0 0)
(0 0 0)
(0 0 0)
(0 0 0)
(0 0 0)
(0 0 0)
(0 0 0)
(0 0 0)
(0 0 0)
(0 0 0)
(0 0 0)
(0 0 0)
(0 0 0)
(0 0 0)
(0.0696359 -0.173115 0)
(0.0698256 -0.172996 0)
(0.0700299 -0.172868 0)
(0.0702499 -0.17273 0)
(0.0704868 -0.172581 0)
(0.070742 -0.172421 0)
(0.0710167 -0.172248 0)
(0.0713126 -0.172063 0)
(0.0716311 -0.171863 0)
(0.0719741 -0.171648 0)
(0.0723433 -0.171416 0)
(0.0727407 -0.171166 0)
(0.0731685 -0.170898 0)
(0.0735539 -0.170516 0)
(0.0739616 -0.170097 0)
(0.0744003 -0.169646 0)
(0.0748264 -0.16912 0)
(0.075273 -0.168545 0)
(0.0757151 -0.167899 0)
(0.0761696 -0.16719 0)
(0.0766154 -0.166401 0)
(0.077057 -0.165533 0)
(0.0774935 -0.164582 0)
(0.0779205 -0.163542 0)
(0.0783354 -0.162407 0)
(0.0787287 -0.16117 0)
(0.0791046 -0.159828 0)
(0.0794557 -0.158373 0)
(0.079781 -0.156801 0)
(0.0800747 -0.155103 0)
(0.0803334 -0.153273 0)
(0.0805542 -0.151304 0)
(0.0807329 -0.149188 0)
(0.0808649 -0.146917 0)
(0.0809453 -0.144482 0)
(0.0809695 -0.141874 0)
(0.080933 -0.139085 0)
(0.0808304 -0.136105 0)
(0.080656 -0.132922 0)
(0.080404 -0.129528 0)
(0.0800678 -0.125912 0)
(0.0796412 -0.122062 0)
(0.0791172 -0.117968 0)
(0.0784883 -0.113619 0)
(0.0777473 -0.109002 0)
(0.0768863 -0.104108 0)
(0.0758973 -0.098925 0)
(0.0747716 -0.093442 0)
(0.0735012 -0.0876487 0)
(0.0720775 -0.0815352 0)
(0.0704917 -0.0750918 0)
(0.0687356 -0.0683107 0)
(0.0668004 -0.0611832 0)
(0.0646784 -0.0537038 0)
(0.0623616 -0.0458666 0)
(0.0598429 -0.0376682 0)
(0.0571154 -0.0291056 0)
(0.0541741 -0.0201801 0)
(0.0510134 -0.0108916 0)
(0.0476298 -0.00124463 0)
(0.044021 0.00875504 0)
(0.040186 0.019099 0)
(0.036125 0.0297767 0)
(0.0318405 0.0407741 0)
(0.027336 0.0520764 0)
(0.0226176 0.0636644 0)
(0.0176929 0.0755168 0)
(0.0125708 0.0876117 0)
(0.00726329 0.0999217 0)
(0.00178284 0.11242 0)
(-0.00385558 0.125077 0)
(-0.00963589 0.137862 0)
(-0.0155403 0.15074 0)
(-0.0215506 0.16368 0)
(-0.0276464 0.176644 0)
(-0.0338082 0.189601 0)
(-0.0400147 0.202513 0)
(-0.0462457 0.215348 0)
(-0.05248 0.22807 0)
(-0.0586972 0.240647 0)
(-0.0648777 0.253048 0)
(-0.0710026 0.265244 0)
(-0.0770536 0.277207 0)
(-0.0830141 0.288911 0)
(-0.0888683 0.300333 0)
(-0.0946024 0.311454 0)
(-0.100203 0.322254 0)
(-0.10566 0.33272 0)
(-0.110963 0.342839 0)
(-0.116103 0.3526 0)
(-0.121074 0.361996 0)
(-0.125872 0.371024 0)
(-0.130491 0.37968 0)
(-0.13493 0.387964 0)
(-0.139187 0.395878 0)
(-0.143262 0.403425 0)
(-0.147155 0.410611 0)
(-0.150868 0.417441 0)
(-0.154404 0.423925 0)
(-0.157766 0.430071 0)
(-0.160958 0.435888 0)
(-0.163984 0.441388 0)
(-0.166849 0.446581 0)
(-0.169559 0.451479 0)
(-0.172117 0.456094 0)
(-0.174531 0.460438 0)
(-0.176806 0.464522 0)
(-0.178948 0.46836 0)
(-0.180962 0.471963 0)
(-0.182856 0.475342 0)
(-0.184633 0.478509 0)
(-0.186301 0.481476 0)
(-0.187864 0.484252 0)
(-0.189329 0.486851 0)
(-0.1907 0.48928 0)
(-0.191984 0.491549 0)
(-0.193184 0.49367 0)
(-0.194306 0.495649 0)
(-0.195354 0.497496 0)
(-0.196332 0.499219 0)
(-0.197245 0.500826 0)
(-0.198097 0.502324 0)
(-0.198892 0.50372 0)
(-0.199633 0.50502 0)
(-0.200323 0.50623 0)
(-0.200967 0.507358 0)
(-0.201566 0.508408 0)
(-0.202124 0.509384 0)
(-0.202644 0.510293 0)
(-0.203127 0.511138 0)
(-0.203577 0.511925 0)
(-0.203996 0.512656 0)
(-0.204385 0.513335 0)
(-0.204747 0.513967 0)
(-0.205083 0.514554 0)
(-0.205397 0.515101 0)
(-0.205688 0.515608 0)
(-0.205958 0.516079 0)
(-0.206209 0.516517 0)
(-0.206443 0.516925 0)
(-0.20666 0.517302 0)
(-0.206862 0.517653 0)
(-0.207049 0.51798 0)
(-0.207223 0.518283 0)
(-0.207384 0.518564 0)
(-0.207535 0.518825 0)
(-0.207674 0.519067 0)
(-0.207804 0.519293 0)
(-0.207924 0.519502 0)
(-0.208035 0.519696 0)
(-0.208243 0.519612 0)
(-0.208427 0.519539 0)
(-0.208595 0.519471 0)
(-0.208754 0.519407 0)
(-0.208908 0.519345 0)
(-0.209062 0.519283 0)
(-0.209221 0.519219 0)
(-0.209389 0.519152 0)
(-0.209573 0.519078 0)
(-0.20978 0.518994 0)
(-0.209726 0.518777 0)
(-0.209668 0.518543 0)
(-0.209606 0.51829 0)
(-0.209538 0.518019 0)
(-0.209466 0.517726 0)
(-0.209388 0.517412 0)
(-0.209304 0.517073 0)
(-0.209213 0.516708 0)
(-0.209115 0.516315 0)
(-0.20901 0.515892 0)
(-0.208897 0.515436 0)
(-0.208775 0.514946 0)
(-0.208643 0.514419 0)
(-0.208502 0.513852 0)
(-0.20835 0.513241 0)
(-0.208186 0.512584 0)
(-0.208009 0.511877 0)
(-0.20782 0.511117 0)
(-0.207615 0.5103 0)
(-0.207395 0.509421 0)
(-0.207159 0.508477 0)
(-0.206905 0.507461 0)
(-0.206631 0.50637 0)
(-0.206336 0.505198 0)
(-0.20602 0.503939 0)
(-0.205679 0.502587 0)
(-0.205314 0.501137 0)
(-0.20492 0.499579 0)
(-0.204498 0.497909 0)
(-0.204045 0.496117 0)
(-0.203557 0.494196 0)
(-0.203034 0.492138 0)
(-0.202473 0.489933 0)
(-0.201871 0.487572 0)
(-0.201225 0.485046 0)
(-0.200532 0.482344 0)
(-0.19979 0.479455 0)
(-0.198995 0.47637 0)
(-0.198144 0.473074 0)
(-0.197233 0.469559 0)
(-0.196259 0.46581 0)
(-0.195218 0.461816 0)
(-0.194105 0.457563 0)
(-0.192918 0.453042 0)
(-0.191652 0.448236 0)
(-0.190302 0.443135 0)
(-0.188865 0.437725 0)
(-0.187336 0.431994 0)
(-0.185711 0.425931 0)
(-0.183985 0.419524 0)
(-0.182155 0.412762 0)
(-0.180217 0.405636 0)
(-0.178166 0.398137 0)
(-0.175999 0.390256 0)
(-0.173712 0.38199 0)
(-0.171304 0.373333 0)
(-0.168769 0.364282 0)
(-0.166108 0.354839 0)
(-0.163318 0.345004 0)
(-0.160398 0.334782 0)
(-0.157347 0.32418 0)
(-0.154166 0.313208 0)
(-0.150856 0.301879 0)
(-0.147418 0.290208 0)
(-0.143854 0.278215 0)
(-0.140168 0.26592 0)
(-0.136364 0.253349 0)
(-0.132446 0.240529 0)
(-0.128419 0.227488 0)
(-0.124291 0.214262 0)
(-0.120067 0.200883 0)
(-0.115755 0.187387 0)
(-0.111363 0.173813 0)
(-0.1069 0.1602 0)
(-0.102373 0.146585 0)
(-0.0977937 0.133011 0)
(-0.0931698 0.119513 0)
(-0.0885118 0.106134 0)
(-0.0838295 0.0929077 0)
(-0.0791328 0.0798717 0)
(-0.0744319 0.0670596 0)
(-0.0697369 0.0545033 0)
(-0.065057 0.0422305 0)
(-0.0604027 0.0302692 0)
(-0.0557826 0.0186418 0)
(-0.051206 0.00736847 0)
(-0.0466818 -0.00353249 0)
(-0.0422177 -0.0140481 0)
(-0.0378218 -0.0241664 0)
(-0.033501 -0.0338797 0)
(-0.0292619 -0.0431826 0)
(-0.0251103 -0.0520725 0)
(-0.0210518 -0.0605486 0)
(-0.0170904 -0.0686148 0)
(-0.0132304 -0.0762737 0)
(-0.00947493 -0.0835321 0)
(-0.00582661 -0.0903976 0)
(-0.00228735 -0.0968798 0)
(0.00114141 -0.102988 0)
(0.00445907 -0.108735 0)
(0.00766531 -0.114131 0)
(0.0107604 -0.119191 0)
(0.0137451 -0.123926 0)
(0.0166207 -0.12835 0)
(0.0193886 -0.132477 0)
(0.0220506 -0.136321 0)
(0.0246088 -0.139894 0)
(0.0270657 -0.143211 0)
(0.0294237 -0.146284 0)
(0.0316853 -0.149126 0)
(0.0338537 -0.151749 0)
(0.0359314 -0.154165 0)
(0.0379213 -0.156387 0)
(0.0398263 -0.158424 0)
(0.0416494 -0.160289 0)
(0.0433934 -0.16199 0)
(0.0450613 -0.163537 0)
(0.0466555 -0.16494 0)
(0.0481784 -0.166207 0)
(0.0496321 -0.167348 0)
(0.0510198 -0.16837 0)
(0.0523434 -0.169279 0)
(0.0536039 -0.170086 0)
(0.0548045 -0.170794 0)
(0.0559448 -0.171414 0)
(0.05703 -0.171945 0)
(0.0580585 -0.1724 0)
(0.059032 -0.172784 0)
(0.0599515 -0.173104 0)
(0.0608191 -0.173364 0)
(0.0616381 -0.173561 0)
(0.0624045 -0.173721 0)
(0.0631251 -0.173827 0)
(0.0637963 -0.173911 0)
(0.0644253 -0.173933 0)
(0.0650099 -0.173953 0)
(0.0655522 -0.173962 0)
(0.0660467 -0.173859 0)
(0.0665061 -0.173764 0)
(0.0669329 -0.173675 0)
(0.0673294 -0.173593 0)
(0.0676977 -0.173517 0)
(0.0680397 -0.173446 0)
(0.0683573 -0.17338 0)
(0.0686523 -0.173319 0)
(0.0689262 -0.173262 0)
(0.0691805 -0.173209 0)
(0.0694167 -0.17316 0)
(-0.102395 0.245501 0)
(-0.117071 0.276313 0)
(-0.116487 0.270733 0)
(-0.138409 0.306209 0)
(-0.125465 0.280237 0)
(-0.122207 0.277972 0)
(-0.165978 0.335646 0)
(-0.16237 0.331871 0)
(-0.174257 0.351744 0)
(-0.0747903 0.179742 0)
(-0.0611688 0.156215 0)
(-0.0745324 0.182975 0)
(-0.0681296 0.217879 0)
(-0.0598425 0.206061 0)
(-0.0766035 0.240385 0)
(-0.0701993 0.181978 0)
(-0.0590474 0.165116 0)
(-0.0751286 0.195009 0)
(-0.204492 0.444798 0)
(-0.202521 0.444599 0)
(-0.214329 0.465069 0)
(-0.186606 0.408139 0)
(-0.178866 0.398282 0)
(-0.194739 0.425089 0)
(-0.211615 0.426995 0)
(-0.224347 0.449154 0)
(-0.218504 0.435098 0)
(-0.122737 0.259881 0)
(-0.13107 0.276077 0)
(-0.129634 0.27134 0)
(-0.0474099 0.132794 0)
(-0.0394605 0.122751 0)
(-0.0554303 0.152689 0)
(-0.0513001 0.183841 0)
(-0.0467057 0.181168 0)
(-0.120637 0.319723 0)
(-0.115336 0.304715 0)
(-0.103065 0.285168 0)
(-0.0400944 0.136805 0)
(-0.0241521 0.10541 0)
(-0.0324178 0.126006 0)
(-0.219509 0.478346 0)
(-0.229587 0.498369 0)
(-0.225902 0.487355 0)
(-0.219862 0.458227 0)
(-0.229218 0.477374 0)
(-0.226272 0.467605 0)
(-0.168059 0.355942 0)
(-0.170933 0.357044 0)
(-0.158286 0.335011 0)
(-0.11018 0.222528 0)
(-0.111781 0.224283 0)
(-0.105665 0.213565 0)
(-0.0457829 0.11156 0)
(-0.0562535 0.132787 0)
(-0.0530443 0.123554 0)
(-0.0651335 0.14809 0)
(-0.030706 0.0857415 0)
(-0.0250704 0.0717202 0)
(-0.0230715 0.0704422 0)
(-0.00940872 0.0977242 0)
(-0.0164369 0.109229 0)
(-0.00600463 0.0839678 0)
(-0.0354006 0.172909 0)
(-0.0444859 0.190415 0)
(-0.0358557 0.168357 0)
(-0.134843 0.364282 0)
(-0.143505 0.377374 0)
(-0.135994 0.362146 0)
(-0.010469 0.0484593 0)
(-0.00243406 0.0333421 0)
(-0.0110094 0.053948 0)
(0.026682 -0.00457326 0)
(0.0271883 -0.000414784 0)
(0.0212163 0.0106807 0)
(-0.237967 0.530078 0)
(-0.234573 0.524038 0)
(-0.23744 0.530786 0)
(-0.232891 0.536975 0)
(-0.229456 0.53562 0)
(-0.231253 0.536309 0)
(-0.251965 0.521591 0)
(-0.249919 0.524004 0)
(-0.254326 0.52935 0)
(-0.269625 0.541134 0)
(-0.265472 0.539806 0)
(-0.269018 0.544552 0)
(-0.248918 0.489187 0)
(-0.251177 0.496922 0)
(-0.254224 0.499324 0)
(-0.208288 0.392112 0)
(-0.206416 0.392025 0)
(-0.213257 0.403023 0)
(-0.196309 0.381397 0)
(-0.19535 0.375861 0)
(-0.189835 0.368598 0)
(-0.139564 0.279938 0)
(-0.134086 0.271918 0)
(-0.143036 0.287562 0)
(-0.0753657 0.166088 0)
(-0.0875429 0.187536 0)
(-0.075679 0.164328 0)
(-0.0301621 0.0730493 0)
(-0.0374748 0.0883986 0)
(-0.0327331 0.0772769 0)
(-0.0181194 0.0529439 0)
(-0.0234534 0.0635861 0)
(-0.018593 0.0514306 0)
(-0.00270604 0.0187916 0)
(-0.00785366 0.0293409 0)
(-0.0043205 0.0178211 0)
(-0.00694631 0.105028 0)
(0.00742508 0.0750724 0)
(-0.00272536 0.102634 0)
(-0.10319 0.309524 0)
(-0.0911638 0.285097 0)
(-0.0943802 0.295529 0)
(-0.0159191 0.13206 0)
(-0.0246703 0.155903 0)
(-0.0275193 0.158125 0)
(-0.123164 0.340105 0)
(-0.106291 0.308329 0)
(-0.112403 0.323742 0)
(-0.179662 0.43383 0)
(-0.183675 0.443681 0)
(-0.189775 0.453736 0)
(0.0412489 -0.0533672 0)
(0.0376456 -0.0507039 0)
(0.0431892 -0.0605449 0)
(0.0554287 -0.064954 0)
(0.0560877 -0.0592238 0)
(0.0512172 -0.0498159 0)
(-0.217691 0.505567 0)
(-0.216001 0.503072 0)
(-0.224662 0.514509 0)
(-0.189135 0.455375 0)
(-0.182098 0.4484 0)
(-0.247009 0.543157 0)
(-0.24746 0.544674 0)
(-0.251512 0.545483 0)
(-0.279738 0.554468 0)
(-0.272948 0.552755 0)
(-0.277103 0.555437 0)
(-0.242818 0.469768 0)
(-0.245838 0.479588 0)
(-0.248473 0.480902 0)
(-0.216601 0.414669 0)
(-0.224943 0.430403 0)
(-0.219509 0.416453 0)
(-0.167411 0.310829 0)
(-0.163284 0.299657 0)
(-0.155616 0.288564 0)
(-0.130087 0.255983 0)
(-0.127484 0.252591 0)
(-0.133252 0.262701 0)
(-0.0928247 0.189664 0)
(-0.0930499 0.189208 0)
(-0.0896483 0.183291 0)
(-0.0645847 0.13884 0)
(-0.05974 0.130671 0)
(-0.0683049 0.147265 0)
(-0.0763802 0.163406 0)
(-0.0672365 0.146862 0)
(-0.0364113 0.0893275 0)
(-0.0432415 0.10428 0)
(-0.0434306 0.102425 0)
(-0.0118652 0.0280565 0)
(-0.0135843 0.0342725 0)
(-0.0136898 0.0337181 0)
(-0.0354277 0.0855552 0)
(0.00878438 0.0777919 0)
(6.95223e-05 0.10151 0)
(0.0296222 0.0284171 0)
(0.020221 0.0520515 0)
(0.027272 0.0287146 0)
(-0.0854717 0.286472 0)
(-0.0883034 0.289301 0)
(-0.0793352 0.271906 0)
(-0.0504439 0.220324 0)
(-0.0434478 0.205804 0)
(-0.0475878 0.21554 0)
(-0.104593 0.316491 0)
(-0.172953 0.434877 0)
(-0.171854 0.432734 0)
(-0.176402 0.443666 0)
(0.0671903 -0.108592 0)
(0.0643713 -0.107793 0)
(0.0680735 -0.116696 0)
(0.0513176 -0.0636775 0)
(0.0538771 -0.0741066 0)
(0.0560871 -0.0736225 0)
(0.0647307 -0.0967538 0)
(0.0687079 -0.102501 0)
(0.0654149 -0.0911299 0)
(-0.204961 0.491494 0)
(-0.213754 0.501777 0)
(-0.2113 0.496757 0)
(-0.235889 0.529563 0)
(-0.23051 0.523198 0)
(-0.232714 0.527745 0)
(-0.196229 0.479059 0)
(-0.190787 0.470156 0)
(-0.198215 0.480726 0)
(-0.23896 0.53422 0)
(-0.237495 0.536996 0)
(-0.239641 0.536399 0)
(-0.225172 0.533523 0)
(-0.222535 0.531962 0)
(-0.222441 0.531703 0)
(-0.27918 0.551199 0)
(-0.282733 0.550111 0)
(-0.277978 0.547239 0)
(-0.264044 0.500981 0)
(-0.261218 0.490472 0)
(-0.258593 0.489815 0)
(-0.225486 0.41155 0)
(-0.231726 0.426519 0)
(-0.232167 0.425056 0)
(-0.208086 0.389019 0)
(-0.210919 0.391865 0)
(-0.202975 0.377326 0)
(-0.217699 0.409877 0)
(-0.213132 0.399659 0)
(-0.169965 0.318502 0)
(-0.176851 0.3294 0)
(-0.13273 0.250693 0)
(-0.124801 0.23725 0)
(-0.130159 0.248104 0)
(-0.0887162 0.180785 0)
(-0.0853006 0.175112 0)
(-0.0518783 0.116217 0)
(-0.049877 0.110246 0)
(-0.0850658 0.176163 0)
(-0.0785447 0.163479 0)
(-0.0808506 0.169182 0)
(-0.0268274 0.0639758 0)
(-0.0218644 0.0529235 0)
(-0.0238227 0.058501 0)
(-0.00876469 0.0280315 0)
(-0.0115675 0.028358 0)
(-0.0186705 0.0460101 0)
(-0.0149888 0.0364127 0)
(-0.0148115 0.0363922 0)
(0.0138492 -0.0331854 0)
(0.0123461 -0.0353521 0)
(0.0180493 -0.0415384 0)
(0.0192914 0.0598807 0)
(0.00980558 0.0809926 0)
(0.0118176 0.0809257 0)
(0.0194144 0.0631416 0)
(0.05831 -0.046349 0)
(0.0543683 -0.0406762 0)
(0.0611679 -0.060937 0)
(-0.0910616 0.298401 0)
(-0.0868148 0.291316 0)
(-0.0899113 0.298089 0)
(-0.095971 0.302923 0)
(-0.0666763 0.253548 0)
(-0.0617372 0.2424 0)
(-0.0605418 0.241489 0)
(-0.0384217 0.195939 0)
(-0.0371673 0.192102 0)
(-0.114485 0.338403 0)
(-0.120342 0.34997 0)
(-0.119983 0.346619 0)
(-0.132573 0.378035 0)
(-0.128502 0.36938 0)
(-0.130954 0.375931 0)
(-0.163371 0.423929 0)
(-0.168854 0.433679 0)
(-0.166833 0.433937 0)
(-0.168465 0.43993 0)
(-0.173793 0.44293 0)
(0.0197574 -0.0345667 0)
(0.0162544 -0.0244214 0)
(0.0155181 -0.028365 0)
(0.049681 -0.080475 0)
(0.0515379 -0.0906414 0)
(0.056197 -0.0959011 0)
(0.0547583 -0.0859317 0)
(0.0570201 -0.0853277 0)
(0.0534354 -0.0781347 0)
(0.0601662 -0.085406 0)
(0.0577662 -0.0823269 0)
(0.0608149 -0.0918042 0)
(-0.208667 0.489688 0)
(-0.206433 0.48099 0)
(-0.196281 0.475225 0)
(-0.222746 0.516064 0)
(-0.218229 0.509768 0)
(-0.21445 0.50767 0)
(-0.229201 0.522722 0)
(-0.192791 0.476895 0)
(-0.195215 0.480687 0)
(-0.218186 0.528859 0)
(-0.220075 0.530096 0)
(-0.218536 0.529001 0)
(-0.220227 0.530287 0)
(-0.222356 0.53142 0)
(-0.225319 0.533193 0)
(-0.224369 0.53284 0)
(-0.27673 0.542426 0)
(-0.273248 0.544014 0)
(-0.264114 0.516844 0)
(-0.268084 0.524057 0)
(-0.267492 0.518018 0)
(-0.255359 0.474411 0)
(-0.247166 0.461011 0)
(-0.258756 0.475379 0)
(-0.242301 0.448101 0)
(-0.236854 0.43317 0)
(-0.237135 0.437679 0)
(-0.183607 0.336448 0)
(-0.185374 0.336496 0)
(-0.178308 0.323284 0)
(-0.133681 0.249339 0)
(-0.123855 0.233497 0)
(-0.143946 0.26045 0)
(-0.144147 0.263528 0)
(-0.153456 0.279389 0)
(-0.0927553 0.183123 0)
(-0.0917783 0.182075 0)
(-0.0962838 0.190022 0)
(-0.105957 0.206072 0)
(-0.109486 0.211605 0)
(-0.103994 0.201694 0)
(-0.07473 0.153243 0)
(-0.076173 0.156652 0)
(-0.0786773 0.160889 0)
(-0.0528556 0.120365 0)
(-0.0447562 0.102832 0)
(-0.0560224 0.121124 0)
(-0.0659239 0.140021 0)
(-0.0576259 0.1227 0)
(-0.0476764 0.102758 0)
(-0.0452134 0.0991209 0)
(-0.0252537 0.0589822 0)
(-0.0315511 0.0734344 0)
(-0.0304474 0.0698967 0)
(-0.0130203 0.0184764 0)
(-0.0104609 0.0166209 0)
(-0.0122532 0.0196573 0)
(-0.016194 0.0407832 0)
(-0.020375 0.0518133 0)
(-0.0092748 0.0210609 0)
(-0.0104843 0.0217988 0)
(-0.00982615 0.0184418 0)
(-0.0179425 0.0431942 0)
(-0.0222205 0.0529457 0)
(-0.0192866 0.0455866 0)
(-0.00622274 -0.00186764 0)
(-0.00589112 0.00178942 0)
(-0.01226 0.00885934 0)
(-0.018705 0.154978 0)
(-0.0127883 0.142002 0)
(-0.0166842 0.151258 0)
(0.00122239 0.109234 0)
(0.00873658 0.0911904 0)
(0.00568938 0.100139 0)
(0.0438612 -0.00621369 0)
(0.0514249 -0.0272407 0)
(0.0480269 -0.0132794 0)
(-0.0915747 0.302435 0)
(-0.0975731 0.313624 0)
(-0.0949624 0.307264 0)
(-0.0712857 0.258064 0)
(-0.0727882 0.26352 0)
(-0.0783808 0.273285 0)
(-0.0485663 0.213331 0)
(-0.0425955 0.198865 0)
(-0.0405168 0.197456 0)
(-0.0350682 0.189778 0)
(-0.0334195 0.184965 0)
(-0.124352 0.361508 0)
(-0.119435 0.354746 0)
(-0.126133 0.366403 0)
(-0.115657 0.344232 0)
(-0.114617 0.344974 0)
(-0.120015 0.35294 0)
(-0.125664 0.361406 0)
(-0.140055 0.384874 0)
(-0.139898 0.387666 0)
(-0.15651 0.417443 0)
(-0.1598 0.424314 0)
(-0.161193 0.42362 0)
(-0.156 0.419081 0)
(-0.157088 0.422555 0)
(-0.16707 0.435067 0)
(-0.165897 0.435292 0)
(-0.168233 0.440576 0)
(-0.167549 0.443464 0)
(-0.168093 0.443238 0)
(-0.00492336 -0.0241904 0)
(0.0030055 -0.0352064 0)
(-0.00379198 -0.0218401 0)
(0.0343813 -0.0989711 0)
(0.0336972 -0.102165 0)
(0.039414 -0.108353 0)
(0.0621045 -0.12405 0)
(0.0571139 -0.118121 0)
(0.0585591 -0.124302 0)
(0.0785049 -0.122523 0)
(0.0809768 -0.127157 0)
(0.0783917 -0.117171 0)
(-0.192722 0.483148 0)
(-0.189996 0.481104 0)
(-0.191516 0.483597 0)
(-0.247728 0.546115 0)
(-0.242706 0.542404 0)
(-0.248867 0.54723 0)
(-0.167301 0.443963 0)
(-0.169837 0.446859 0)
(-0.218115 0.528779 0)
(-0.215776 0.526681 0)
(-0.218301 0.528765 0)
(-0.216471 0.527534 0)
(-0.214656 0.525791 0)
(-0.216328 0.52734 0)
(-0.226488 0.533461 0)
(-0.225157 0.532493 0)
(-0.229744 0.53508 0)
(-0.220771 0.530926 0)
(-0.219793 0.530228 0)
(-0.220269 0.5305 0)
(-0.274426 0.559145 0)
(-0.284312 0.564894 0)
(-0.2815 0.563186 0)
(-0.296738 0.570108 0)
(-0.303646 0.572913 0)
(-0.299993 0.570363 0)
(-0.258801 0.471288 0)
(-0.254687 0.461807 0)
(-0.249238 0.450509 0)
(-0.210204 0.373411 0)
(-0.198924 0.347517 0)
(-0.199805 0.352606 0)
(-0.14407 0.257888 0)
(-0.156661 0.280169 0)
(-0.144662 0.255847 0)
(-0.128724 0.222651 0)
(-0.117252 0.203183 0)
(-0.126927 0.222077 0)
(-0.132662 0.243829 0)
(-0.123371 0.228609 0)
(-0.0773872 0.152466 0)
(-0.080232 0.158502 0)
(-0.0816309 0.160474 0)
(-0.078654 0.156291 0)
(-0.0756345 0.149958 0)
(-0.0738973 0.147382 0)
(-0.0364266 0.0830306 0)
(-0.0410479 0.0917203 0)
(-0.0331724 0.074879 0)
(-0.0365047 0.0809426 0)
(-0.0388889 0.0848709 0)
(-0.0313924 0.0691771 0)
(-0.0510151 0.108334 0)
(-0.0289658 0.064871 0)
(-0.00965332 0.0134559 0)
(-0.00586802 0.00850196 0)
(-0.00791526 0.0138683 0)
(-0.0106117 0.0191338 0)
(-0.0131721 0.0216112 0)
(-0.0112486 0.0209854 0)
(-0.00889987 0.0200298 0)
(-0.00891334 0.0187429 0)
(-0.0104994 0.0238298 0)
(-0.0100966 0.0198024 0)
(-0.00888306 0.017014 0)
(-0.00873291 0.0203102 0)
(-0.0102746 0.0239468 0)
(-0.0108069 0.0257223 0)
(-0.0481321 0.0637541 0)
(-0.0589784 0.0827325 0)
(-0.0543765 0.0719876 0)
(-0.00743654 0.130676 0)
(-0.00619468 0.126702 0)
(-0.00502707 0.125975 0)
(-0.0106743 0.138346 0)
(0.00930265 0.0928424 0)
(0.0151494 0.0791652 0)
(0.0124094 0.0865083 0)
(0.00621675 0.100778 0)
(0.0576064 -0.034572 0)
(0.0566913 -0.0291643 0)
(0.0528899 -0.0190092 0)
(0.0405125 0.0174314 0)
(0.0382245 0.0230344 0)
(0.0439526 0.00717333 0)
(-0.0678671 0.248111 0)
(-0.0619163 0.238583 0)
(-0.0686724 0.256403 0)
(-0.0300761 0.178678 0)
(-0.110735 0.336435 0)
(-0.105924 0.326212 0)
(-0.106388 0.329042 0)
(-0.146271 0.392405 0)
(-0.137864 0.377654 0)
(-0.159864 0.428701 0)
(-0.165927 0.43786 0)
(-0.155323 0.411274 0)
(-0.146123 0.399294 0)
(-0.154624 0.411964 0)
(-0.168552 0.442763 0)
(-0.0747546 0.107502 0)
(-0.0836491 0.121563 0)
(-0.0683247 0.0933371 0)
(0.0351586 -0.0956657 0)
(0.0319473 -0.0858383 0)
(0.0264769 -0.0818438 0)
(0.0472953 -0.129491 0)
(0.0532079 -0.138293 0)
(0.0526608 -0.133704 0)
(0.071483 -0.130785 0)
(0.0734066 -0.138269 0)
(0.075521 -0.137116 0)
(0.0710309 -0.0747366 0)
(0.0705308 -0.074592 0)
(0.0739654 -0.0864733 0)
(0.0810038 -0.12225 0)
(0.0833746 -0.131669 0)
(-0.192004 0.478259 0)
(-0.195188 0.483587 0)
(-0.196817 0.484056 0)
(-0.201709 0.490725 0)
(-0.198243 0.486314 0)
(-0.196801 0.48693 0)
(-0.22226 0.519875 0)
(-0.218482 0.517059 0)
(-0.22073 0.520237 0)
(-0.206417 0.506252 0)
(-0.211813 0.51014 0)
(-0.204818 0.503961 0)
(-0.229893 0.53098 0)
(-0.230646 0.531997 0)
(-0.237474 0.537313 0)
(-0.240094 0.539711 0)
(-0.242388 0.541834 0)
(-0.245304 0.543995 0)
(-0.216518 0.527358 0)
(-0.217353 0.528189 0)
(-0.218061 0.528622 0)
(-0.223808 0.531191 0)
(-0.228538 0.534085 0)
(-0.267404 0.555438 0)
(-0.274666 0.559199 0)
(-0.264937 0.554208 0)
(-0.246696 0.54346 0)
(-0.246573 0.543725 0)
(-0.239416 0.540197 0)
(-0.315367 0.566893 0)
(-0.310031 0.557893 0)
(-0.311161 0.561549 0)
(-0.288373 0.559698 0)
(-0.282353 0.557461 0)
(-0.284306 0.559753 0)
(-0.277147 0.523911 0)
(-0.282237 0.529265 0)
(-0.27897 0.521128 0)
(-0.235339 0.4294 0)
(-0.230129 0.416532 0)
(-0.245438 0.445076 0)
(-0.264837 0.487067 0)
(-0.258395 0.472786 0)
(-0.177295 0.298062 0)
(-0.165668 0.275868 0)
(-0.157037 0.25505 0)
(-0.14385 0.230603 0)
(-0.154601 0.255629 0)
(-0.160983 0.266306 0)
(-0.154133 0.271321 0)
(-0.165554 0.291409 0)
(-0.154308 0.268472 0)
(-0.0894562 0.167627 0)
(-0.103616 0.194788 0)
(-0.0989731 0.184051 0)
(-0.100349 0.182118 0)
(-0.112314 0.204578 0)
(-0.113492 0.20408 0)
(-0.0977814 0.186197 0)
(-0.103131 0.197743 0)
(-0.106002 0.201219 0)
(-0.0540543 0.109427 0)
(-0.0540655 0.108896 0)
(-0.0500415 0.10122 0)
(-0.0877202 0.167857 0)
(-0.082125 0.156448 0)
(-0.0781109 0.150044 0)
(-0.0596845 0.121248 0)
(-0.0564014 0.115249 0)
(-0.0596738 0.121874 0)
(-0.0546454 0.113444 0)
(-0.0499602 0.103639 0)
(-0.047917 0.0999587 0)
(-0.0400408 0.0864965 0)
(-0.0440612 0.0944226 0)
(-0.0377618 0.0811039 0)
(-0.0329824 0.0699625 0)
(-0.0376034 0.0792278 0)
(-0.0331697 0.0700167 0)
(-0.0207673 0.045845 0)
(-0.0247816 0.0550696 0)
(-0.0265339 0.0582777 0)
(-0.0200287 0.0465302 0)
(-0.0145275 0.0336504 0)
(-0.0152337 0.0357913 0)
(-0.0227904 0.033409 0)
(-0.0238957 0.0342546 0)
(-0.0202244 0.0296043 0)
(-0.0156727 0.0238856 0)
(-0.0168375 0.0253998 0)
(-0.0194064 0.0279661 0)
(-0.00850496 0.0201514 0)
(-0.0065023 0.0150724 0)
(-0.00915404 0.016251 0)
(-0.0106908 0.0226408 0)
(-0.0117307 0.028194 0)
(-0.00938155 0.0224137 0)
(-0.0106014 0.0248522 0)
(-0.0534113 0.0790196 0)
(-0.0623823 0.0930932 0)
(-0.0512698 0.0739623 0)
(-0.00441747 0.120757 0)
(0.00371123 0.105863 0)
(0.0247687 0.057388 0)
(0.0249444 0.0561726 0)
(0.0286476 0.0474193 0)
(0.052687 -0.015693 0)
(0.0542183 -0.0200007 0)
(0.0508842 -0.0103778 0)
(0.0649446 -0.0532649 0)
(0.0677474 -0.0626756 0)
(0.0668138 -0.0595865 0)
(0.0301877 0.0386704 0)
(0.0362877 0.0238674 0)
(0.0303539 0.0412847 0)
(-0.0983341 0.311026 0)
(-0.101486 0.319336 0)
(-0.0226581 0.163965 0)
(-0.141935 0.393076 0)
(-0.144701 0.398488 0)
(-0.146493 0.396148 0)
(-0.0485622 0.0538871 0)
(-0.045359 0.0458602 0)
(-0.0353331 0.0305129 0)
(-0.0221501 -0.00743728 0)
(-0.033361 0.00981842 0)
(-0.0176538 -0.0191178 0)
(0.0409328 -0.107224 0)
(0.0611664 -0.154729 0)
(0.0579856 -0.154006 0)
(0.0631842 -0.160189 0)
(0.0739529 -0.128944 0)
(0.0709337 -0.124015 0)
(0.0763151 -0.0954976 0)
(0.0760752 -0.0936317 0)
(0.0781232 -0.102189 0)
(0.082728 -0.122468 0)
(0.0812859 -0.115702 0)
(0.0830861 -0.122721 0)
(-0.18727 0.477921 0)
(-0.189892 0.479252 0)
(-0.202818 0.497455 0)
(-0.199254 0.492869 0)
(-0.199311 0.494365 0)
(-0.216818 0.513815 0)
(-0.213902 0.510642 0)
(-0.215734 0.513569 0)
(-0.203119 0.504785 0)
(-0.207969 0.50848 0)
(-0.201064 0.501951 0)
(-0.230283 0.532028 0)
(-0.185042 0.470881 0)
(-0.185321 0.472431 0)
(-0.187844 0.474256 0)
(-0.217371 0.527872 0)
(-0.218702 0.529077 0)
(-0.224382 0.532271 0)
(-0.307045 0.572634 0)
(-0.30613 0.572558 0)
(-0.298669 0.568582 0)
(-0.256513 0.550215 0)
(-0.249875 0.546987 0)
(-0.255969 0.549798 0)
(-0.322808 0.576964 0)
(-0.32123 0.574615 0)
(-0.323208 0.577148 0)
(-0.314877 0.584041 0)
(-0.311098 0.581437 0)
(-0.312405 0.582279 0)
(-0.321179 0.588339 0)
(-0.310688 0.580745 0)
(-0.322857 0.589489 0)
(-0.289515 0.526496 0)
(-0.295667 0.535568 0)
(-0.295253 0.53724 0)
(-0.290995 0.529095 0)
(-0.290821 0.528318 0)
(-0.284814 0.518654 0)
(-0.219697 0.403121 0)
(-0.230937 0.413772 0)
(-0.216347 0.3872 0)
(-0.218932 0.388781 0)
(-0.155767 0.24787 0)
(-0.169799 0.278483 0)
(-0.159971 0.256835 0)
(-0.177239 0.305695 0)
(-0.163189 0.276195 0)
(-0.169826 0.293021 0)
(-0.0875165 0.0981167 0)
(-0.0778136 0.0789534 0)
(-0.0920724 0.109364 0)
(-0.111739 0.187263 0)
(-0.123988 0.210606 0)
(-0.11811 0.197297 0)
(-0.115891 0.190702 0)
(-0.10734 0.176475 0)
(-0.102442 0.18832 0)
(-0.0872941 0.159537 0)
(-0.0859694 0.159198 0)
(-0.0948221 0.163556 0)
(-0.106262 0.184742 0)
(-0.103383 0.176857 0)
(-0.112184 0.199234 0)
(-0.100431 0.178693 0)
(-0.0974534 0.175104 0)
(-0.0630446 0.123465 0)
(-0.0601552 0.118508 0)
(-0.0647649 0.127462 0)
(-0.0696324 0.137584 0)
(-0.0673415 0.133749 0)
(-0.0724149 0.143308 0)
(-0.0733683 0.139981 0)
(-0.0799893 0.1512 0)
(-0.0680449 0.128818 0)
(-0.0501426 0.102599 0)
(-0.0520063 0.105885 0)
(-0.0478996 0.0978213 0)
(-0.0474005 0.0974761 0)
(-0.0427455 0.0882705 0)
(-0.046657 0.0963671 0)
(-0.040266 0.0852225 0)
(-0.0320055 0.069505 0)
(-0.0225533 0.0492249 0)
(-0.0356513 0.0760698 0)
(-0.0428013 0.0911097 0)
(-0.0256967 0.0587092 0)
(-0.0107726 0.0244936 0)
(-0.0110893 0.0254855 0)
(-0.0156352 0.0356913 0)
(-0.0146984 0.0227371 0)
(-0.011905 0.0186904 0)
(-0.015316 0.0232459 0)
(-0.0498874 0.0746718 0)
(-0.0595146 0.0907046 0)
(-0.00660718 0.0156851 0)
(-0.00527871 0.0108675 0)
(-0.00709896 0.0141545 0)
(-0.00694515 0.0146068 0)
(-0.00492167 0.00852304 0)
(-0.00691474 0.0115462 0)
(-0.00722178 0.0126342 0)
(-0.00619085 0.014735 0)
(-0.0097224 0.0231564 0)
(-0.0116012 0.0274448 0)
(-0.0076103 0.0179913 0)
(-0.0967004 0.147899 0)
(-0.0861644 0.129148 0)
(-0.0950661 0.14806 0)
(-0.0416428 0.0548567 0)
(-0.0528669 0.074479 0)
(0.0216578 0.0648026 0)
(0.017117 0.0758359 0)
(0.0196741 0.0688382 0)
(0.0601044 -0.0378455 0)
(0.0606678 -0.0395333 0)
(0.0627553 -0.0461388 0)
(0.0544369 -0.0212365 0)
(0.0505633 -0.0100603 0)
(0.0658069 -0.056322 0)
(0.0393853 0.0188666 0)
(0.0439118 0.00851983 0)
(0.0470069 0.000295534 0)
(0.0436957 0.00952893 0)
(-0.0666077 0.0945018 0)
(-0.0639162 0.087524 0)
(-0.034624 0.0248434 0)
(-0.0275282 0.014508 0)
(-0.0246578 -0.00937334 0)
(-0.0166238 -0.0270356 0)
(-0.0130048 -0.0304086 0)
(0.0325038 -0.122671 0)
(0.0243 -0.108544 0)
(0.0228715 -0.109448 0)
(0.0798239 -0.1694 0)
(0.0834376 -0.170589 0)
(0.0810772 -0.167369 0)
(0.0865258 -0.13847 0)
(0.0871132 -0.141992 0)
(0.0854515 -0.137645 0)
(0.0694232 -0.0685593 0)
(0.0724294 -0.0791387 0)
(0.0709731 -0.0743413 0)
(0.0728075 -0.0811654 0)
(0.0711969 -0.0758558 0)
(0.0906861 -0.153668 0)
(0.0896147 -0.14912 0)
(0.090627 -0.153612 0)
(-0.1851 0.473834 0)
(-0.195932 0.490534 0)
(-0.195721 0.491534 0)
(-0.204502 0.508496 0)
(-0.21222 0.515198 0)
(-0.20805 0.510953 0)
(-0.208823 0.506205 0)
(-0.2266 0.527777 0)
(-0.218293 0.521109 0)
(-0.22092 0.523645 0)
(-0.251867 0.549874 0)
(-0.2514 0.549458 0)
(-0.250799 0.54875 0)
(-0.19306 0.480868 0)
(-0.224053 0.532926 0)
(-0.221222 0.530885 0)
(-0.219743 0.529824 0)
(-0.290061 0.567712 0)
(-0.288594 0.566462 0)
(-0.30116 0.575245 0)
(-0.317302 0.573546 0)
(-0.320691 0.576285 0)
(-0.303783 0.566281 0)
(-0.325672 0.580582 0)
(-0.325366 0.580483 0)
(-0.323518 0.578124 0)
(-0.317977 0.586198 0)
(-0.317989 0.586233 0)
(-0.320941 0.587901 0)
(-0.326513 0.590924 0)
(-0.313644 0.582257 0)
(-0.327544 0.591566 0)
(-0.299605 0.553594 0)
(-0.296462 0.553298 0)
(-0.292282 0.549443 0)
(-0.294578 0.535539 0)
(-0.292685 0.535279 0)
(-0.300027 0.548793 0)
(-0.261229 0.492723 0)
(-0.258795 0.494103 0)
(-0.251146 0.485333 0)
(-0.251626 0.474399 0)
(-0.256403 0.482812 0)
(-0.242923 0.468733 0)
(-0.200989 0.392583 0)
(-0.190201 0.378205 0)
(-0.192127 0.375955 0)
(-0.200109 0.368691 0)
(-0.19121 0.34578 0)
(-0.210795 0.382252 0)
(-0.159087 0.278349 0)
(-0.169995 0.298422 0)
(-0.169591 0.301766 0)
(-0.117522 0.168158 0)
(-0.116849 0.168892 0)
(-0.107874 0.146292 0)
(-0.12283 0.181165 0)
(-0.117226 0.167334 0)
(-0.106415 0.14584 0)
(-0.133599 0.199169 0)
(-0.141283 0.215915 0)
(-0.145939 0.226579 0)
(-0.0941619 0.158623 0)
(-0.0917831 0.152163 0)
(-0.0833039 0.138959 0)
(-0.113511 0.214436 0)
(-0.118478 0.221627 0)
(-0.0805095 0.139251 0)
(-0.0875178 0.154063 0)
(-0.0949121 0.165397 0)
(-0.0690779 0.12407 0)
(-0.0857089 0.153024 0)
(-0.0719599 0.127565 0)
(-0.0626966 0.119905 0)
(-0.0555868 0.105558 0)
(-0.0602222 0.119283 0)
(-0.0558567 0.110476 0)
(-0.0421099 0.0845929 0)
(-0.045787 0.0921861 0)
(-0.0465166 0.093196 0)
(-0.0637058 0.118773 0)
(-0.071574 0.132744 0)
(-0.0586025 0.108324 0)
(-0.0513875 0.0960033 0)
(-0.0610514 0.114783 0)
(-0.0464752 0.0952885 0)
(-0.0436775 0.089451 0)
(-0.0422537 0.0862449 0)
(-0.040201 0.0823606 0)
(-0.0385014 0.0803317 0)