/*--------------------------------*- C++ -*----------------------------------*\
| =========                 |                                                 |
| \\      /  F ield         | OpenFOAM: The Open Source CFD Toolbox           |
|  \\    /   O peration     | Version:  v2012                                 |
|   \\  /    A nd           | Website:  www.openfoam.com                      |
|    \\/     M anipulation  |                                                 |
\*---------------------------------------------------------------------------*/
FoamFile
{
    version     2.0;
    format      ascii;
    class       volScalarField;
    location    "1.6";
    object      k;
}
// * * * * * * * * * * * * * * * * * * * * * * * * * * * * * * * * * * * * * //

dimensions      [0 2 -2 0 0 0 0];


internalField   nonuniform List<scalar> 
13611
(
0.000975087
0.000563173
0.00168344
0.000385486
0.000265296
0.000257684
0.0005037
0.00115904
0.000289164
0.000256809
0.000260114
0.000717448
0.000336422
0.00181801
0.00028783
0.000239317
0.000278863
0.000244568
0.000686821
0.000323041
0.00110087
0.000279392
0.000281413
0.000289049
0.000279556
0.000251568
0.000485299
0.000262594
0.00162307
0.00027583
0.000278038
0.00028214
0.000280642
0.000274999
0.000246176
0.000446647
0.000304487
0.0011049
0.000273899
0.000273566
0.000279987
0.000280061
0.00027778
0.000253133
0.000466151
0.000281309
0.00175421
0.000698634
0.000272552
0.000273211
0.000271229
0.000273715
0.000276413
0.000276958
0.000273872
0.000245928
0.000357027
0.000256136
0.00111336
0.000746457
0.000272279
0.000273644
0.00026998
0.000271244
0.000277091
0.000274411
0.000271335
0.000275488
0.000274478
0.000260033
0.000358378
0.000249064
0.00161732
0.000558824
0.000272436
0.000275765
0.000268786
0.000270929
0.000268365
0.000269147
0.000268229
0.000272832
0.000275102
0.00027349
0.00025696
0.00029114
0.000248498
0.00109839
0.000579179
0.0002754
0.000276774
0.000269461
0.000271104
0.000267204
0.000279194
0.000266934
0.00026648
0.00026725
0.0002739
0.00027175
0.000261466
0.000296928
0.000245712
0.000916017
0.000426863
0.000277221
0.000275786
0.000269322
0.000273688
0.000267956
0.000281212
0.00028384
0.000265157
0.000265666
0.000265429
0.000270023
0.000265903
0.000269081
0.000260409
0.000260605
0.000244293
0.000253711
0.00162162
0.000602515
0.000421953
0.00027972
0.000278684
0.000271729
0.000273707
0.000266712
0.000286157
0.000264071
0.000263622
0.000263739
0.00026432
0.000266412
0.000264761
0.000275281
0.000239783
0.000254689
0.00102521
0.000498662
0.000347601
0.000281866
0.000279086
0.000281516
0.000272509
0.000275677
0.000267309
0.000285542
0.000289242
0.000264773
0.000262616
0.000262132
0.000261051
0.000259532
0.000262322
0.000239237
0.00023287
0.000245507
0.000261203
0.000252541
0.00162206
0.000634351
0.000372057
0.000277943
0.000282356
0.000284778
0.000272318
0.000274834
0.000266414
0.000270563
0.000288553
0.000292432
0.000263977
0.000262761
0.00026129
0.000259257
0.000259892
0.000256593
0.00025672
0.000299298
0.000233097
0.000248348
0.000258988
0.000256064
0.00103068
0.000520352
0.000280378
0.000284796
0.000282849
0.00028823
0.000274472
0.000276565
0.000269024
0.00027118
0.000292157
0.000296053
0.000266165
0.000261551
0.000257644
0.000259628
0.000256259
0.000254596
0.000284041
0.000228948
0.000244203
0.000254998
0.00025877
0.000254669
0.000666532
0.00162258
0.000364609
0.000279615
0.00028806
0.000286062
0.000292236
0.000274709
0.000276418
0.00026878
0.00027302
0.000296145
0.00030043
0.000265925
0.000263131
0.000258028
0.00026135
0.000256324
0.000253917
0.000242814
0.000232778
0.000246539
0.000253048
0.000254164
0.000252467
0.000554337
0.000984676
0.000313134
0.000280656
0.000288681
0.000291652
0.000287218
0.000296246
0.000276822
0.000278499
0.000270677
0.00027341
0.000300453
0.000267695
0.000263074
0.000259153
0.000262755
0.000255868
0.000258098
0.000254752
0.000252699
0.000254822
0.000233026
0.000244546
0.000251157
0.000251952
0.000251042
0.000252217
0.000652455
0.000375487
0.00153288
0.000284152
0.000291905
0.000294312
0.000291354
0.00028689
0.000301143
0.000278884
0.000277551
0.000270074
0.000272785
0.000275926
0.000304165
0.000268023
0.000266182
0.00026175
0.000265566
0.00025764
0.000260029
0.000255747
0.000252264
0.000233192
0.000230692
0.000243342
0.000247328
0.000249335
0.000247771
0.000248764
0.000250477
0.000470191
0.000330909
0.00104252
0.000284757
0.000293449
0.000298792
0.000293054
0.000290437
0.000302064
0.000305214
0.000282113
0.000280682
0.00027158
0.00027452
0.000276559
0.000309597
0.00031171
0.000269975
0.0002636
0.000267648
0.0002574
0.000259489
0.000262844
0.000255533
0.000253734
0.000261863
0.000230935
0.000244302
0.000248774
0.000246818
0.000246625
0.000247981
0.000249983
0.000530771
0.000855254
0.000287686
0.000298691
0.000301488
0.000297015
0.000290666
0.000307734
0.000309443
0.000282801
0.000281568
0.000273684
0.000275072
0.00027944
0.000312591
0.000318542
0.000271855
0.000266589
0.000270288
0.000259056
0.000261588
0.000264882
0.000257071
0.000254258
0.000248928
0.000241195
0.000232155
0.000245229
0.000245936
0.00024339
0.000244749
0.00024628
0.000252394
0.0004139
0.00154874
0.000543483
0.000288406
0.000299975
0.000306524
0.000299726
0.000294873
0.000312705
0.000308922
0.000313495
0.000285892
0.00028447
0.000276145
0.000278296
0.000280135
0.000318631
0.000321704
0.00027535
0.000271138
0.000267846
0.000271596
0.000258611
0.000261085
0.000264218
0.000267264
0.000256147
0.000251089
0.000240774
0.000228088
0.000241748
0.000242499
0.000241411
0.000243524
0.000248778
0.000253376
0.000318718
0.000994971
0.000475015
0.000291811
0.000305192
0.000309505
0.00029919
0.000304608
0.00029506
0.000316629
0.000314034
0.000319553
0.000286793
0.00028532
0.000278763
0.000283004
0.000329109
0.000277601
0.00027303
0.000270774
0.000272181
0.000260158
0.000262848
0.00026605
0.000268743
0.000257363
0.000230563
0.000238419
0.00024076
0.000225261
0.000232806
0.000238477
0.000240199
0.000241902
0.000245218
0.000249495
0.000252199
0.000256252
0.000291929
0.000613076
0.00160629
0.000356362
0.000244204
0.000261093
0.000293677
0.000309211
0.000314116
0.000303768
0.0003089
0.000299706
0.000323235
0.000326338
0.000291109
0.000288904
0.000281349
0.000283848
0.000333914
0.000333423
0.000276235
0.000280717
0.000270903
0.000274904
0.000259538
0.000262229
0.000265232
0.000268587
0.000269538
0.000248193
0.000236028
0.000237386
0.000224402
0.000229298
0.000236834
0.000239727
0.000244368
0.000241628
0.000248004
0.000252551
0.000253987
0.000257836
0.000621287
0.000955659
0.00031945
0.000229013
0.000247575
0.000260851
0.000224667
0.000275409
0.000298097
0.000314952
0.000320367
0.000308603
0.000303612
0.000314398
0.000327691
0.000328567
0.000333214
0.000291937
0.00028998
0.00028203
0.000287269
0.000343196
0.000277017
0.000283125
0.00027304
0.000276435
0.000261386
0.000263649
0.000266992
0.000270718
0.000272177
0.000232678
0.00023388
0.000235698
0.000234842
0.000221779
0.000229857
0.000237893
0.000239869
0.000246135
0.000244242
0.000250024
0.000254272
0.000256715
0.00026054
0.000481953
0.00145604
0.000354017
0.000251429
0.00022083
0.000256135
0.000240956
0.000259749
0.000204643
0.000290331
0.000301593
0.000320434
0.000327716
0.000314199
0.000308773
0.000318683
0.000337682
0.000336969
0.000342804
0.000296641
0.000293493
0.000286384
0.000288815
0.00034631
0.000348438
0.00028022
0.000286629
0.000284436
0.000275549
0.000279501
0.000263468
0.000266112
0.000269728
0.000273257
0.000273629
0.000230999
0.000233207
0.000234431
0.000218384
0.000228097
0.000239839
0.000242697
0.000246361
0.000249031
0.00024458
0.000253175
0.000257358
0.000258377
0.000262216
0.000540505
0.000986463
0.000296909
0.000233504
0.000227184
0.000255086
0.000245631
0.000257147
0.000257126
0.00025629
0.000232106
0.000433779
0.000300944
0.00030729
0.000326668
0.000334884
0.000319146
0.000314061
0.000309346
0.000326214
0.000344678
0.000342488
0.00029693
0.000295907
0.000293488
0.000357307
0.000353695
0.00035471
0.000283312
0.000289839
0.000288503
0.000277647
0.000281863
0.00026552
0.00026756
0.000271518
0.000276163
0.000276574
0.000229067
0.000229828
0.000231618
0.000232689
0.000236941
0.000211756
0.000223708
0.000239469
0.000242893
0.000249243
0.000251094
0.000247295
0.000255255
0.000259139
0.00026117
0.000265314
0.000415189
0.000771813
0.000242104
0.00032532
0.000215326
0.000222437
0.000253664
0.000253717
0.000244619
0.000255437
0.000254534
0.000255708
0.000219752
0.000457107
0.000306713
0.000311199
0.00033416
0.000329052
0.000341807
0.000325566
0.000320505
0.000314865
0.000329999
0.00035499
0.000353058
0.000301574
0.000300439
0.000295042
0.00035802
0.00036224
0.00028626
0.000293351
0.000291713
0.000280773
0.000285203
0.000266948
0.000269958
0.000274585
0.000278439
0.000276456
0.000226668
0.000227514
0.000231002
0.000232532
0.000237347
0.000216441
0.000223389
0.000242822
0.000245044
0.000249853
0.000254086
0.000247776
0.000258279
0.000262007
0.000262882
0.000266633
0.000498747
0.00140346
0.000216594
0.000281266
0.000207678
0.000219104
0.000252115
0.000251501
0.000248212
0.000232157
0.000253553
0.000252367
0.000254582
0.000237664
0.000505406
0.000306054
0.000311589
0.000315488
0.000340382
0.000336859
0.000349868
0.000328123
0.000319782
0.000326965
0.000336888
0.000363436
0.000357715
0.000356839
0.000304236
0.000300838
0.000371399
0.000368419
0.000371156
0.000290423
0.000297042
0.000296362
0.00028302
0.000288029
0.000270738
0.000272201
0.000276687
0.000281513
0.000280104
0.000224931
0.000225569
0.00022851
0.00023534
0.000239734
0.000215444
0.000223835
0.000245637
0.000242373
0.000253382
0.000256758
0.00025111
0.000261008
0.000264785
0.00026554
0.000270494
0.000413245
0.000867897
0.000227019
0.00031436
0.000208672
0.000203747
0.000250605
0.000249307
0.000246441
0.00022948
0.000253141
0.00025079
0.000256585
0.000255056
0.000372832
0.00030985
0.000316641
0.000319554
0.000348124
0.000341022
0.000352147
0.000336504
0.000323155
0.000334187
0.00034061
0.000372181
0.000368131
0.000364958
0.000304457
0.000309309
0.000301214
0.000377078
0.000377121
0.000293202
0.00030065
0.000286606
0.000291778
0.000273544
0.000275715
0.000279678
0.0002833
0.000282953
0.000222545
0.000225505
0.000231418
0.000235596
0.000241128
0.000220161
0.000223674
0.000248912
0.000246014
0.000254083
0.000256632
0.000260602
0.00025157
0.000264417
0.00026836
0.00026879
0.000271528
0.000272982
0.000518897
0.00106995
0.000210318
0.000277617
0.000207101
0.00019268
0.000247617
0.000249227
0.000247223
0.000245873
0.00024537
0.000214587
0.000236173
0.000252236
0.000250818
0.000256975
0.000254235
0.000263756
0.000213089
0.000315987
0.000319025
0.000321488
0.000354608
0.000351068
0.000362837
0.000340023
0.000329759
0.000334732
0.000349336
0.000374182
0.00037873
0.000370404
0.000368102
0.000309655
0.000314244
0.000306039
0.000381678
0.00038211
0.000298176
0.00030073
0.000305753
0.00028883
0.000295651
0.000277854
0.000278721
0.000282658
0.000287107
0.000286489
0.000220996
0.000223316
0.000227879
0.000231074
0.00023788
0.000240887
0.000244801
0.000218843
0.000221475
0.000251055
0.000249063
0.000257889
0.000260063
0.000264502
0.000255659
0.000267553
0.000270714
0.000274399
0.000276357
0.000397966
0.000832054
0.000226762
0.000204329
0.000310417
0.000205369
0.000213012
0.000246099
0.000248408
0.000246302
0.000244139
0.000243865
0.000215981
0.00023604
0.000252866
0.000250374
0.000256026
0.000254736
0.000211732
0.000191302
0.000318589
0.000327875
0.000328969
0.000362593
0.000354464
0.00034829
0.000333264
0.000341923
0.000353451
0.000381233
0.000383059
0.000377629
0.000374779
0.000310466
0.000314523
0.000386857
0.000386868
0.000300536
0.000305855
0.000309907
0.000293202
0.000295759
0.000300135
0.000281058
0.000282388
0.000286357
0.000289086
0.000220815
0.000223992
0.000229131
0.000235295
0.000238535
0.000243474
0.000246208
0.000217728
0.000221317
0.000250089
0.000255022
0.000251399
0.000258433
0.00026055
0.00026374
0.0002681
0.000270941
0.000274689
0.000276392
0.000279975
0.000508445
0.000920242
0.000213097
0.00020394
0.000268927
0.000209615
0.000213163
0.000244513
0.000247354
0.000249169
0.000245687
0.000242585
0.000243632
0.000243225
0.000217421
0.000212138
0.000227902
0.00024125
0.00025244
0.000251298
0.000258213
0.000256186
0.000254304
0.000305662
0.000326662
0.000331384
0.000332275
0.000369015
0.000363141
0.000352868
0.000339142
0.000349947
0.000360654
0.000382539
0.000384983
0.000386943
0.000378915
0.000377918
0.000316326
0.000319783
0.00038984
0.000390322
0.000304914
0.000310039
0.000316588
0.000295328
0.000300295
0.000303237
0.000285875
0.000285905
0.000290292
0.000293221
0.000222438
0.000220394
0.000227358
0.000232894
0.000235414
0.000242595
0.000245534
0.000249412
0.000214829
0.000219808
0.000253464
0.000258025
0.000252049
0.000261953
0.000263536
0.000266322
0.000271922
0.000275173
0.000277866
0.000280955
0.000283189
0.000400676
0.000866282
0.000221715
0.000205942
0.000304133
0.000210631
0.000214043
0.000244518
0.000247351
0.000249316
0.000246361
0.000241097
0.000241448
0.000242504
0.000199395
0.000208936
0.000239622
0.000240518
0.000253317
0.000251449
0.000257174
0.000255069
0.000359699
0.000328851
0.00033789
0.000340188
0.000369265
0.000377009
0.000364909
0.000362551
0.000343983
0.000355748
0.000365291
0.000386643
0.000388179
0.000389436
0.000383816
0.000383243
0.000321228
0.00031939
0.000326537
0.00039237
0.000392353
0.000306587
0.000316412
0.000320866
0.000299121
0.000303664
0.000289015
0.00028772
0.000290247
0.000294728
0.000295577
0.000226787
0.00022379
0.000229718
0.000235282
0.000240225
0.000245575
0.000250517
0.000252351
0.000210171
0.000218689
0.000256958
0.000262599
0.000257399
0.00026535
0.000264486
0.000271266
0.000275892
0.000274267
0.000282549
0.000284134
0.000283417
0.000287847
0.000530268
0.000942048
0.000210937
0.000204507
0.000283015
0.000213429
0.000213601
0.000244195
0.000248295
0.000250532
0.000246009
0.00023991
0.000241287
0.000239219
0.000240777
0.000243082
0.000190848
0.000221902
0.000262372
0.000241161
0.000252492
0.000256836
0.000254837
0.000495697
0.000336848
0.000342947
0.000342517
0.000375479
0.000380797
0.000371117
0.000366504
0.000352574
0.00036373
0.000370942
0.000387133
0.000389621
0.000389628
0.000391912
0.000385997
0.000327678
0.000327782
0.000330904
0.000394473
0.000393582
0.000392397
0.000393565
0.000312631
0.000317695
0.000327933
0.00030213
0.000309022
0.000293935
0.000293294
0.000294838
0.000297707
0.00030019
0.000226501
0.000226978
0.000221676
0.000233672
0.00023936
0.000245212
0.000252541
0.000254967
0.000257034
0.000209679
0.00021322
0.000261313
0.000266256
0.000261446
0.000270494
0.000271045
0.000273915
0.000274672
0.000281913
0.000280797
0.000287027
0.000288122
0.00028812
0.000291261
0.000455087
0.000789304
0.000206183
0.000204771
0.000343917
0.000238987
0.00021416
0.000211664
0.000245031
0.00024838
0.00025042
0.000246735
0.00023929
0.00024082
0.000237755
0.000238578
0.000243165
0.000168214
0.000226491
0.000212114
0.000239585
0.00025274
0.000258661
0.000255754
0.000257626
0.00025398
0.000421232
0.00033578
0.00034228
0.000350725
0.000350729
0.000375616
0.000380731
0.000385188
0.000373559
0.000357719
0.000368027
0.000374634
0.00038943
0.000390955
0.000391835
0.000391949
0.000389364
0.000331147
0.000331379
0.000395034
0.000392529
0.000393405
0.000314098
0.000325296
0.000332529
0.000307856
0.000311035
0.000297958
0.000296124
0.000298187
0.000302243
0.000303679
0.000226937
0.000222975
0.000226712
0.000242993
0.000244235
0.000256237
0.000261805
0.000255792
0.000262718
0.000263303
0.000210041
0.000231483
0.000266299
0.000272353
0.000267216
0.000274041
0.000274773
0.000280004
0.000280718
0.000286884
0.000284723
0.000293133
0.000293079
0.00029138
0.000296503
0.000503336
0.000756908
0.000195986
0.000198725
0.000330783
0.0002352
0.000212014
0.000210633
0.000245139
0.000247654
0.000249488
0.000251358
0.000246025
0.000239965
0.000238439
0.000241739
0.000237529
0.000236663
0.000237424
0.000242629
0.00024438
0.000159826
0.00023654
0.000209711
0.000210403
0.000240272
0.000252293
0.000255498
0.000257282
0.000253835
0.000464283
0.000341083
0.000349758
0.000356412
0.000356892
0.000380087
0.000383549
0.000386658
0.000375356
0.000376156
0.000366062
0.000373627
0.00037965
0.000391125
0.000389956
0.000391793
0.000391698
0.000391968
0.000390296
0.000338467
0.000338314
0.000394377
0.000393125
0.00032072
0.000326231
0.000331858
0.00033989
0.0003117
0.000318341
0.000303639
0.000301934
0.000302735
0.000306337
0.000309408
0.000254428
0.000242041
0.000225756
0.000229245
0.000224587
0.000252187
0.000256125
0.000264481
0.000270452
0.000266608
0.000273443
0.000270113
0.000208972
0.000208872
0.000208698
0.000272072
0.0002767
0.00027424
0.00028156
0.000282172
0.000283887
0.000285232
0.000293527
0.000290836
0.000300058
0.000297391
0.000295584
0.00029914
0.000400677
0.000585642
0.000193562
0.000203222
0.000282165
0.000213382
0.000208693
0.000247958
0.00024943
0.000251063
0.000246394
0.000240382
0.000238373
0.000241337
0.000237022
0.000235754
0.000234995
0.000243163
0.000244082
0.000132309
0.000237552
0.000231441
0.000154056
0.000236305
0.000252917
0.000259222
0.000254521
0.000256253
0.000258077
0.000518456
0.000273392
0.00034833
0.000356497
0.000362239
0.000362376
0.000383665
0.000386176
0.000389387
0.000379784
0.000380065
0.000368618
0.000376971
0.000381719
0.000391389
0.000391172
0.000391871
0.000391632
0.000392513
0.000390336
0.000391126
0.000341952
0.000341942
0.000407998
0.000397622
0.000394641
0.000322611
0.00033288
0.00033873
0.000345349
0.000318012
0.000320869
0.000307299
0.000304975
0.000305667
0.000306737
0.000311945
0.000314376
0.000292677
0.000258723
0.00023595
0.00028669
0.000204336
0.000275472
0.000269533
0.000276195
0.000279678
0.000274182
0.00028777
0.000283203
0.000210694
0.000211914
0.000212835
0.000169695
0.000284444
0.000285021
0.000286396
0.00028862
0.000292549
0.00029234
0.00030023
0.000294608
0.000295739
0.000306337
0.000303722
0.000304849
0.000400867
0.000577778
0.000185282
0.00019984
0.000280394
0.000208316
0.000206402
0.000247406
0.00024886
0.000250295
0.000251712
0.000245774
0.000240031
0.000237495
0.000239139
0.000241741
0.000236174
0.000234356
0.000233084
0.000242666
0.000244755
0.000133825
0.00023806
0.000206248
0.00011843
0.000235261
0.000252646
0.000260282
0.000254347
0.000256116
0.000258088
0.000574741
0.000264979
0.000352636
0.000362458
0.000367473
0.000367776
0.000385963
0.000387926
0.000389598
0.000382457
0.000380449
0.000382295
0.000373786
0.000376756
0.000384794
0.000391478
0.000391141
0.000392642
0.000392953
0.000395372
0.000390459
0.000390706
0.00034847
0.000350182
0.000403206
0.000399852
0.000328833
0.000333702
0.000338756
0.000345304
0.000351607
0.000322764
0.000328575
0.000313305
0.000308541
0.00031021
0.000311764
0.000315028
0.00031728
0.000321189
0.000153856
0.000229643
0.000280313
0.000251639
0.000228911
0.000283854
0.000289397
0.000293649
0.00028629
0.0002849
0.000321113
0.000292392
0.000291993
0.000210033
0.000215104
0.000198713
8.57216e-05
0.000297114
0.000296723
0.000297457
0.000298685
0.000294368
0.000300485
0.000306935
0.000302379
0.000302113
0.00031301
0.000306296
0.000307615
0.000346089
0.000670238
0.000466912
0.000191962
0.0001924
0.000197867
0.00024047
0.000201292
0.000247859
0.000249208
0.000250022
0.00025147
0.000246028
0.000240671
0.000237237
0.000238771
0.000241523
0.000235739
0.000234641
0.000232087
0.00024296
0.000244395
0.000114123
0.000235751
0.000236386
0.0002353
0.000231746
0.000253364
0.000262146
0.000260192
0.000255137
0.000257053
0.000259174
0.000439094
0.000169458
0.000352686
0.000360686
0.000363543
0.000367894
0.000372369
0.000372141
0.000387907
0.000386208
0.000389805
0.000384944
0.000383276
0.000385304
0.000375278
0.000379171
0.00039203
0.000391097
0.000397789
0.000395585
0.000399092
0.000390147
0.000390528
0.000352517
0.000413913
0.000425213
0.000411021
0.000331735
0.000340858
0.000344592
0.000352252
0.000357072
0.000328843
0.000314879
0.000317907
0.000314694
0.000318561
0.00032024
0.000325448
0.000327482
0.000182691
0.0002138
5.46516e-05
0.000193561
0.000103795
0.000373084
0.000298345
0.000293505
0.000330724
0.00030605
0.00030484
0.000351939
0.000314829
0.000306914
0.000206488
0.000223794
0.000208419
0.000154388
0.0001454
0.000312466
0.000311615
0.000303358
0.000305276
0.000312046
0.000305963
0.000307688
0.000314627
0.000312058
0.000318163
0.000316659
0.000314363
0.000314237
0.000350291
0.000681169
0.000434747
0.000191167
0.000187064
0.000196478
0.00023775
0.00019877
0.000248827
0.000247597
0.000250572
0.000252156
0.000246938
0.000245666
0.000240318
0.000237898
0.000236266
0.000239339
0.000242125
0.000234036
0.000232953
0.000230469
0.000243738
0.000244964
0.000103977
0.000233028
0.000233346
0.000237898
0.000183229
0.000230799
0.000253129
0.00026308
0.000261106
0.000255252
0.000257281
0.000259476
0.000416442
0.000143299
0.000359282
0.00036306
0.000368803
0.000371622
0.000375226
0.000388713
0.000387495
0.000389451
0.000386737
0.000385379
0.000383689
0.000386521
0.000377506
0.000382341
0.000395544
0.000391176
0.000405415
0.00040241
0.000403293
0.000408942
0.000389481
0.000391633
0.000358666
0.00043935
0.000423218
0.00033897
0.000345343
0.000351487
0.000358053
0.000362489
0.000333937
0.000321803
0.000324408
0.000318018
0.000323797
0.00032843
0.000331036
0.000333944
0.00176429
9.82455e-05
0.00103463
5.16755e-05
0.000120725
0.000272519
0.00010375
0.000297524
0.000303826
0.0003315
0.000335379
0.000321053
0.000351859
0.000203771
0.000324599
0.000201283
0.000254727
0.000177974
0.000858512
0.00182875
0.000328798
0.00032754
0.000320393
0.000325093
0.000324922
0.000313783
0.000315727
0.000320703
0.00032024
0.000325807
0.000326548
0.00031779
0.000278225
0.0005167
0.000763582
0.000311991
0.000187424
0.000194109
0.00020784
0.00019765
0.000249305
0.000248323
0.00025028
0.000252412
0.000246888
0.000246146
0.000240896
0.000237472
0.000235965
0.000239332
0.0002423
0.000234533
0.000232862
0.000230048
0.000243907
0.000244607
0.000230191
0.000235481
0.00019641
0.000229144
0.000253992
0.000262662
0.000261554
0.000256486
0.000254891
0.000258565
0.000260724
0.00045166
0.000245322
0.000164682
0.000366939
0.000369678
0.000372138
0.000375096
0.000378316
0.000388435
0.00038747
0.000389067
0.000387025
0.00038657
0.000385593
0.000379167
0.000383434
0.000399816
0.000395535
0.000393218
0.000418465
0.000417469
0.000410787
0.000420449
0.000390209
0.000393355
0.000362688
0.000446959
0.000440997
0.000439957
0.0003416
0.000349661
0.000353672
0.00036272
0.000366648
0.000340134
0.000326867
0.000329742
0.000326175
0.000330968
0.000333438
0.000339955
0.000339189
0.00749525
0.012187
0.000493246
0.000825554
0.000733753
0.00145646
0.000379364
0.000161359
0.000333508
0.000339446
0.000297761
0.000342014
2.24892e-05
0.000347305
0.000203049
0.00122017
0.000106473
0.000194191
0.00337525
0.00385151
0.000339814
0.000356384
0.000329309
0.000335788
0.000337455
0.000330823
0.000321929
0.000329658
0.000334358
0.000330223
0.000330496
0.000332071
0.000325701
0.000456896
0.000704613
0.000256713
0.00018524
0.000195847
0.000203505
0.000198157
0.000249193
0.000248316
0.000250907
0.00025348
0.000251917
0.000247511
0.000246065
0.00024179
0.000240848
0.00023787
0.000236706
0.000235374
0.000240204
0.000238669
0.000243304
0.000233766
0.000232221
0.000231252
0.000228708
0.000245184
0.000227825
0.000229845
0.000234633
0.000216805
0.000265022
0.00026366
0.000256636
0.000255685
0.00025859
0.000261056
0.000337094
0.000208481
0.000157061
0.000369109
0.000373182
0.000374944
0.000377339
0.000380023
0.000388165
0.000387158
0.000388453
0.000387117
0.000387087
0.000386621
0.000385166
0.000382561
0.000409642
0.000403532
0.000423206
0.000429261
0.000424039
0.000427005
0.000434183
0.000392983
0.000392033
0.000401334
0.000368137
0.000440447
0.000441487
0.000443594
0.00034894
0.00035275
0.00035928
0.000366929
0.000364925
0.000370616
0.000345073
0.000333733
0.00033678
0.000330039
0.000335941
0.000341134
0.000344191
0.000342773
0.000345301
0.0181197
0.0262697
0.00371914
0.00078099
0.000134837
0.00726405
0.0244443
0.000682611
0.000313338
0.000159328
0.00025094
0.000153965
0.000244064
3.68964e-05
0.000332816
0.000211907
0.00020299
0.000201814
9.01732e-05
0.000153731
0.00992758
0.0135359
0.000342967
0.000388713
0.000344151
0.00035307
0.000347039
0.000342529
0.000330893
0.00033574
0.00034059
0.000336941
0.000338492
0.000339307
0.000341289
0.000309604
0.000511619
0.000745265
0.000215516
0.000192236
0.000187807
0.000195434
0.000198185
0.0002004
0.000250119
0.000249148
0.000250934
0.000254124
0.000252457
0.000247657
0.000246864
0.000242148
0.000241545
0.000237151
0.000236579
0.000235745
0.000240517
0.000238956
0.000243523
0.000233827
0.000232488
0.00023076
0.000228609
0.000245104
0.000227
0.000227394
0.000236389
0.000224987
0.000266582
0.000263774
0.000257605
0.000255733
0.00025964
0.000262652
0.00026076
0.000313043
0.000163562
0.000193904
0.000372796
0.00037539
0.000377276
0.000379607
0.000382394
0.000387507
0.00038705
0.000388428
0.000386946
0.000386799
0.000386518
0.000385053
0.000383117
0.000411229
0.000421603
0.000406323
0.000434651
0.000437913
0.000435555
0.000445196
0.000398105
0.00038995
0.000399575
0.000403658
0.000370911
0.000439079
0.000443367
0.000350037
0.000352911
0.000359065
0.000363949
0.000370534
0.000369809
0.000372683
0.000338875
0.00034279
0.000338064
0.000343613
0.000346046
0.000351524
0.000350052
0.000351129
0.0387524
0.0452878
0.00747365
0.00288949
0.000318048
0.0147198
0.0380986
0.0196734
0.00123009
0.00167772
4.81132e-05
0.000827071
2.11808e-05
0.000236735
0.000311721
0.0047231
2.1721e-05
0.000155166
6.69844e-05
0.010679
0.000158668
0.0291609
0.0397755
0.000390923
0.000359833
0.000355119
0.000360777
0.000357551
0.000354616
0.000343847
0.000352301
0.000348065
0.000341647
0.000342639
0.000343857
0.000346669
0.000278739
0.000403983
0.000714368
0.000204385
0.000192852
0.000184771
0.000199115
0.0002046
0.000213448
0.000250007
0.000249397
0.000251751
0.000255212
0.000253473
0.000248662
0.000246742
0.000242945
0.000241944
0.000237378
0.000235538
0.000241446
0.000239894
0.000238423
0.000244439
0.000233417
0.000234799
0.000232158
0.000231206
0.00022991
0.000227773
0.000245947
0.000226282
0.0002254
0.000225539
0.000235621
0.000227795
0.000267514
0.000265666
0.000257768
0.000256936
0.000259812
0.000263034
0.000261845
0.000323872
0.000205297
0.000139365
0.000193252
0.000374639
0.000377697
0.000378819
0.000380964
0.000382664
0.000387337
0.00038681
0.000386679
0.000386484
0.00038615
0.000385306
0.000384252
0.000423867
0.00043004
0.000418994
0.000437589
0.000444066
0.000438152
0.000440682
0.000402434
0.000393499
0.00039905
0.000414531
0.00037407
0.000422214
0.000431298
0.000355341
0.000359227
0.000362008
0.000367137
0.000372961
0.000372122
0.000375363
0.000346092
0.000349485
0.0003429
0.000348036
0.000353001
0.000354757
0.000355065
0.000354774
0.000355862
0.0500765
0.0610639
0.0168847
0.00192583
0.00139894
0.00438147
0.0372127
0.0649312
0.030368
0.000782444
0.0138063
0.000137557
0.00586709
0.00940658
0.000320957
0.000140152
0.0810884
0.00613286
0.000144998
0.00109117
0.0257814
0.00573506
0.000191263
0.0503585
0.0378271
0.000452738
0.000365131
0.000364319
0.000370704
0.000364954
0.000357873
0.000350543
0.000353769
0.000347514
0.000348938
0.000350617
0.000352914
0.000233491
0.000388785
0.000756259
0.00049636
0.00020561
0.000188545
0.000198396
0.000216084
0.000211734
0.000114727
0.000250885
0.000250336
0.000252039
0.000255979
0.000253919
0.00024879
0.000247523
0.0002434
0.00024296
0.000237189
0.000236361
0.000242201
0.000240233
0.000238651
0.000244781
0.000234066
0.000234885
0.000232846
0.000231475
0.000229551
0.000228452
0.000246225
0.000226979
0.000224039
0.000224654
0.000234626
0.000223983
0.000269267
0.000267277
0.000265692
0.000258858
0.000257071
0.000261108
0.000264398
0.000262232
0.000267644
0.000199227
0.000153985
0.000215952
0.000377097
0.00037916
0.00037789
0.000380621
0.000382345
0.000383403
0.000388402
0.000387419
0.000386207
0.000386576
0.000385665
0.000385742
0.000384757
0.000383954
0.000426817
0.000437638
0.00042156
0.000439911
0.000438257
0.000439947
0.000439776
0.000430917
0.00041261
0.000392111
0.000404957
0.000375866
0.000418939
0.000412825
0.000359773
0.000363058
0.000366245
0.000371067
0.000375047
0.000375014
0.000376422
0.00034972
0.00035479
0.000348993
0.000354635
0.000356382
0.000359521
0.000360326
0.000360497
0.000360437
0.0537777
0.0551929
0.0152886
0.00362172
0.00356317
0.0276288
0.0597872
0.00153945
0.0058479
0.0175997
0.00104892
0.0161832
0.0240258
0.00239818
0.000294979
0.0423865
0.175802
0.000152811
6.24367e-05
0.000128392
0.0368726
0.00640663
0.062934
0.0499804
0.000218974
0.000418716
0.000375113
0.000374635
0.000369111
0.000376346
0.000360735
0.000355719
0.000358362
0.000351147
0.000352709
0.000354742
0.000357166
0.000224825
0.000295638
0.000653275
0.000409598
0.000197116
0.000189645
0.00019512
0.000123722
0.000157794
8.36273e-05
0.000251747
0.000250872
0.000253245
0.000256036
0.00025515
0.000248349
0.000249935
0.000247113
0.000244338
0.000243751
0.000237904
0.000236401
0.000243434
0.000242126
0.000239475
0.000241308
0.000245728
0.00023378
0.000235661
0.000232508
0.000230921
0.000229815
0.000228007
0.000226572
0.000223185
0.000225417
0.000225951
0.000236672
0.000222332
0.000270927
0.000269416
0.000267356
0.000259201
0.000258141
0.000261675
0.000265029
0.00026395
0.000278351
0.000174095
0.000151832
0.000213684
0.000378001
0.000380343
0.000379243
0.000381023
0.000382573
0.000383038
0.000389004
0.000388957
0.000386454
0.000387487
0.000385272
0.000385842
0.000384748
0.000384201
0.000436383
0.000439416
0.000432385
0.000437177
0.000426665
0.000426322
0.00043883
0.000419183
0.000419732
0.000396526
0.000402646
0.000415987
0.000377795
0.000414847
0.000411786
0.000363227
0.000366493
0.00036846
0.000372473
0.000375636
0.000376478
0.000377717
0.000355525
0.00035467
0.000358146
0.000357277
0.000360816
0.000362113
0.000363864
0.000363507
0.000363845
0.0232915
0.0269383
0.018829
0.00998279
0.00348862
0.0137881
0.0317032
0.0689238
0.0106624
0.00193473
0.0237842
0.0530537
0.0564466
0.0868631
0.00841439
0.00100061
0.0968497
0.235745
0.202002
0.000331517
0.000167398