/*--------------------------------*- C++ -*----------------------------------*\
| =========                 |                                                 |
| \\      /  F ield         | OpenFOAM: The Open Source CFD Toolbox           |
|  \\    /   O peration     | Version:  v2012                                 |
|   \\  /    A nd           | Website:  www.openfoam.com                      |
|    \\/     M anipulation  |                                                 |
\*---------------------------------------------------------------------------*/
FoamFile
{
    version     2.0;
    format      ascii;
    class       volScalarField;
    location    "1.6";
    object      nut;
}
// * * * * * * * * * * * * * * * * * * * * * * * * * * * * * * * * * * * * * //

dimensions      [0 2 -1 0 0 0 0];


internalField   nonuniform List<scalar> 
13611
(
1.66891e-05
1.76834e-05
1.5706e-05
1.74918e-05
1.44784e-05
1.1445e-05
1.84584e-05
1.64787e-05
1.14619e-05
1.33409e-05
1.10671e-05
1.7942e-05
1.6035e-05
1.62155e-05
1.14582e-05
1.29317e-05
1.13e-05
1.14802e-05
1.89047e-05
1.62459e-05
1.73426e-05
1.14554e-05
1.14679e-05
1.14819e-05
1.13202e-05
1.1282e-05
1.87559e-05
1.38175e-05
1.61833e-05
1.14211e-05
1.14648e-05
1.14781e-05
1.14493e-05
1.12751e-05
1.15125e-05
1.85514e-05
1.53101e-05
1.73258e-05
1.14178e-05
1.14344e-05
1.14878e-05
1.14742e-05
1.1352e-05
1.12513e-05
1.94925e-05
1.48302e-05
1.60338e-05
1.90522e-05
1.14215e-05
1.1422e-05
1.14262e-05
1.1449e-05
1.14771e-05
1.13629e-05
1.1329e-05
1.10654e-05
1.76084e-05
1.26097e-05
1.7545e-05
1.95092e-05
1.14451e-05
1.14573e-05
1.14396e-05
1.14445e-05
1.14987e-05
1.14892e-05
1.14499e-05
1.14663e-05
1.13686e-05
1.11562e-05
1.81954e-05
1.23891e-05
1.61455e-05
1.97085e-05
1.14735e-05
1.14951e-05
1.14458e-05
1.14652e-05
1.14387e-05
1.14561e-05
1.14435e-05
1.14875e-05
1.13856e-05
1.14789e-05
1.10327e-05
1.52084e-05
1.1456e-05
1.73555e-05
2.04363e-05
1.15349e-05
1.15247e-05
1.1478e-05
1.14969e-05
1.1448e-05
1.15618e-05
1.14575e-05
1.14424e-05
1.14672e-05
1.14796e-05
1.15118e-05
1.11679e-05
1.57842e-05
1.12085e-05
1.86151e-05
1.97984e-05
1.15538e-05
1.15696e-05
1.15035e-05
1.15483e-05
1.14885e-05
1.16179e-05
1.16639e-05
1.1459e-05
1.14591e-05
1.14727e-05
1.14902e-05
1.14906e-05
1.1472e-05
1.117e-05
1.37887e-05
1.16479e-05
1.10674e-05
1.61119e-05
2.08642e-05
2.08109e-05
1.16105e-05
1.16407e-05
1.15531e-05
1.15699e-05
1.14886e-05
1.17263e-05
1.14712e-05
1.14713e-05
1.1473e-05
1.14904e-05
1.15315e-05
1.14432e-05
1.49948e-05
1.11801e-05
1.1155e-05
1.82829e-05
2.17466e-05
1.90154e-05
1.16675e-05
1.16705e-05
1.1682e-05
1.15867e-05
1.16251e-05
1.15227e-05
1.17337e-05
1.17839e-05
1.15069e-05
1.1481e-05
1.14762e-05
1.14808e-05
1.14761e-05
1.14725e-05
1.30541e-05
1.15409e-05
1.10274e-05
1.14434e-05
1.11016e-05
1.62226e-05
2.08174e-05
2.03994e-05
1.16647e-05
1.17451e-05
1.17641e-05
1.16039e-05
1.16297e-05
1.15299e-05
1.1585e-05
1.1814e-05
1.18691e-05
1.15175e-05
1.15019e-05
1.1488e-05
1.14752e-05
1.14795e-05
1.14736e-05
1.14709e-05
1.67134e-05
1.12438e-05
1.11122e-05
1.14721e-05
1.13461e-05
1.83963e-05
2.18472e-05
1.17329e-05
1.17845e-05
1.17787e-05
1.18275e-05
1.16627e-05
1.16767e-05
1.15923e-05
1.16231e-05
1.18849e-05
1.19406e-05
1.15703e-05
1.15049e-05
1.14816e-05
1.15054e-05
1.14819e-05
1.14763e-05
1.63943e-05
1.1275e-05
1.10886e-05
1.13365e-05
1.15112e-05
1.14759e-05
2.08418e-05
1.61558e-05
1.92352e-05
1.17324e-05
1.18644e-05
1.18533e-05
1.19277e-05
1.1688e-05
1.16918e-05
1.16098e-05
1.16702e-05
1.19809e-05
1.20416e-05
1.15879e-05
1.15463e-05
1.14967e-05
1.15474e-05
1.15105e-05
1.15082e-05
1.33087e-05
1.10354e-05
1.11627e-05
1.14256e-05
1.15047e-05
1.14839e-05
2.14103e-05
1.8303e-05
1.78554e-05
1.17753e-05
1.18944e-05
1.1932e-05
1.18957e-05
1.2005e-05
1.17382e-05
1.17419e-05
1.16673e-05
1.16967e-05
1.2063e-05
1.1637e-05
1.15646e-05
1.15415e-05
1.15929e-05
1.1524e-05
1.1543e-05
1.15254e-05
1.15065e-05
1.44065e-05
1.09488e-05
1.11163e-05
1.13899e-05
1.14416e-05
1.15099e-05
1.15092e-05
2.09512e-05
1.92992e-05
1.61747e-05
1.18585e-05
1.197e-05
1.20091e-05
1.19883e-05
1.19054e-05
1.21243e-05
1.17685e-05
1.17735e-05
1.16762e-05
1.17035e-05
1.17517e-05
1.21596e-05
1.16661e-05
1.16395e-05
1.15922e-05
1.16469e-05
1.15795e-05
1.16014e-05
1.15692e-05
1.15287e-05
1.29231e-05
1.13539e-05
1.11596e-05
1.12553e-05
1.14535e-05
1.14858e-05
1.15115e-05
1.15127e-05
2.10039e-05
1.86476e-05
1.72917e-05
1.18936e-05
1.2021e-05
1.21081e-05
1.20461e-05
1.1997e-05
1.21649e-05
1.22025e-05
1.18479e-05
1.18492e-05
1.1725e-05
1.17504e-05
1.17838e-05
1.22735e-05
1.23057e-05
1.17113e-05
1.16498e-05
1.17101e-05
1.15982e-05
1.16126e-05
1.16554e-05
1.15866e-05
1.15675e-05
1.52273e-05
1.10552e-05
1.12798e-05
1.14353e-05
1.14946e-05
1.15095e-05
1.15111e-05
1.1533e-05
2.0195e-05
1.83339e-05
1.19661e-05
1.21407e-05
1.21882e-05
1.21364e-05
1.20205e-05
1.23008e-05
1.23e-05
1.18828e-05
1.18886e-05
1.17658e-05
1.17793e-05
1.18539e-05
1.23563e-05
1.24636e-05
1.17672e-05
1.171e-05
1.17624e-05
1.16509e-05
1.1675e-05
1.17173e-05
1.16395e-05
1.16017e-05
1.41451e-05
1.12176e-05
1.15569e-05
1.14723e-05
1.14854e-05
1.14961e-05
1.1492e-05
1.15073e-05
1.15852e-05
2.20778e-05
1.58232e-05
2.09364e-05
1.20021e-05
1.21857e-05
1.23038e-05
1.22101e-05
1.2127e-05
1.24012e-05
1.23419e-05
1.24054e-05
1.19584e-05
1.1959e-05
1.18372e-05
1.1859e-05
1.18886e-05
1.24979e-05
1.25542e-05
1.18367e-05
1.1766e-05
1.17541e-05
1.18018e-05
1.16659e-05
1.1687e-05
1.17253e-05
1.17629e-05
1.16432e-05
1.48555e-05
1.13458e-05
1.1212e-05
1.15014e-05
1.15021e-05
1.14791e-05
1.1491e-05
1.15685e-05
1.16281e-05
1.90736e-05
1.72978e-05
2.23054e-05
1.2087e-05
1.23108e-05
1.23821e-05
1.22151e-05
1.23153e-05
1.21488e-05
1.251e-05
1.24623e-05
1.25387e-05
1.19979e-05
1.19972e-05
1.18915e-05
1.19587e-05
1.27217e-05
1.19078e-05
1.18254e-05
1.18155e-05
1.18311e-05
1.17134e-05
1.17396e-05
1.17802e-05
1.18004e-05
1.16856e-05
1.29346e-05
1.13011e-05
1.15112e-05
1.14297e-05
1.12221e-05
1.15057e-05
1.15108e-05
1.15115e-05
1.15424e-05
1.16036e-05
1.16224e-05
1.16849e-05
1.82059e-05
2.02304e-05
1.56495e-05
2.08327e-05
1.10906e-05
1.15159e-05
1.21476e-05
1.23915e-05
1.24802e-05
1.23317e-05
1.2424e-05
1.22672e-05
1.2664e-05
1.27023e-05
1.21022e-05
1.20845e-05
1.1955e-05
1.19963e-05
1.28129e-05
1.2835e-05
1.18949e-05
1.19768e-05
1.1834e-05
1.1897e-05
1.17241e-05
1.17483e-05
1.17832e-05
1.18288e-05
1.18323e-05
1.46391e-05
1.14141e-05
1.15235e-05
1.11529e-05
1.11706e-05
1.15195e-05
1.15204e-05
1.15517e-05
1.15348e-05
1.15921e-05
1.16682e-05
1.16779e-05
1.17325e-05
2.0275e-05
1.73536e-05
1.96238e-05
1.09939e-05
1.1122e-05
1.12169e-05
1.11304e-05
1.16245e-05
1.22485e-05
1.25376e-05
1.26362e-05
1.24352e-05
1.23477e-05
1.25422e-05
1.27506e-05
1.2801e-05
1.28463e-05
1.21406e-05
1.2128e-05
1.19865e-05
1.20791e-05
1.30551e-05
1.19297e-05
1.20415e-05
1.18932e-05
1.19471e-05
1.17756e-05
1.17909e-05
1.18367e-05
1.18944e-05
1.18916e-05
1.32087e-05
1.13872e-05
1.15414e-05
1.15107e-05
1.13337e-05
1.12347e-05
1.15465e-05
1.15563e-05
1.16053e-05
1.16065e-05
1.16584e-05
1.17232e-05
1.17309e-05
1.17811e-05
2.18393e-05
1.57041e-05
2.1097e-05
1.48305e-05
1.09534e-05
1.11949e-05
1.10765e-05
1.12166e-05
1.0899e-05
1.17008e-05
1.23446e-05
1.26576e-05
1.27973e-05
1.25775e-05
1.24782e-05
1.26562e-05
1.2988e-05
1.29895e-05
1.30715e-05
1.22591e-05
1.22158e-05
1.20905e-05
1.21336e-05
1.31091e-05
1.31856e-05
1.20142e-05
1.21116e-05
1.20865e-05
1.19434e-05
1.20168e-05
1.18086e-05
1.18354e-05
1.18912e-05
1.19477e-05
1.19364e-05
1.14682e-05
1.15553e-05
1.15468e-05
1.10987e-05
1.12667e-05
1.16094e-05
1.16243e-05
1.16355e-05
1.16582e-05
1.16444e-05
1.17236e-05
1.17855e-05
1.17835e-05
1.18346e-05
2.08479e-05
1.68058e-05
1.90995e-05
1.3675e-05
1.09772e-05
1.11982e-05
1.11276e-05
1.12022e-05
1.12048e-05
1.11963e-05
1.12083e-05
1.21811e-05
1.23479e-05
1.24727e-05
1.28119e-05
1.29764e-05
1.26849e-05
1.2591e-05
1.25064e-05
1.28283e-05
1.31314e-05
1.31231e-05
1.22828e-05
1.22876e-05
1.22458e-05
1.33111e-05
1.3261e-05
1.33088e-05
1.20762e-05
1.21983e-05
1.21837e-05
1.20077e-05
1.20843e-05
1.18588e-05
1.18859e-05
1.19506e-05
1.20207e-05
1.19987e-05
1.14245e-05
1.1545e-05
1.15544e-05
1.15427e-05
1.16029e-05
1.08447e-05
1.11746e-05
1.16304e-05
1.16614e-05
1.17079e-05
1.17293e-05
1.17158e-05
1.17878e-05
1.18403e-05
1.18364e-05
1.18949e-05
2.3092e-05
1.78383e-05
1.50297e-05
2.07982e-05
1.16354e-05
1.09624e-05
1.11989e-05
1.11955e-05
1.11385e-05
1.11944e-05
1.11968e-05
1.11963e-05
1.10472e-05
1.21905e-05
1.24954e-05
1.25764e-05
1.29747e-05
1.28816e-05
1.31278e-05
1.28397e-05
1.27555e-05
1.26434e-05
1.29308e-05
1.33463e-05
1.33439e-05
1.24007e-05
1.23918e-05
1.2299e-05
1.33454e-05
1.34405e-05
1.21626e-05
1.22748e-05
1.2272e-05
1.20775e-05
1.21554e-05
1.191e-05
1.19365e-05
1.20187e-05
1.20597e-05
1.20439e-05
1.14738e-05
1.15317e-05
1.15649e-05
1.15796e-05
1.16542e-05
1.09948e-05
1.12336e-05
1.17209e-05
1.1717e-05
1.17507e-05
1.17908e-05
1.17555e-05
1.18467e-05
1.18946e-05
1.18897e-05
1.19455e-05
2.11787e-05
1.54266e-05
1.28735e-05
1.89824e-05
1.13761e-05
1.09124e-05
1.11975e-05
1.11907e-05
1.11852e-05
1.10324e-05
1.11899e-05
1.11872e-05
1.11964e-05
1.12152e-05
1.2267e-05
1.24972e-05
1.2602e-05
1.2673e-05
1.31323e-05
1.30652e-05
1.33089e-05
1.29124e-05
1.27523e-05
1.29008e-05
1.30913e-05
1.34795e-05
1.34113e-05
1.34355e-05
1.24923e-05
1.24409e-05
1.35204e-05
1.34979e-05
1.35585e-05
1.22596e-05
1.2374e-05
1.23754e-05
1.21449e-05
1.22408e-05
1.19941e-05
1.20048e-05
1.20834e-05
1.21289e-05
1.21387e-05
1.14926e-05
1.15332e-05
1.15481e-05
1.16439e-05
1.17134e-05
1.09741e-05
1.13966e-05
1.17614e-05
1.17399e-05
1.18389e-05
1.18667e-05
1.18372e-05
1.19227e-05
1.19711e-05
1.19411e-05
1.20374e-05
2.27377e-05
1.67158e-05
1.41603e-05
2.09169e-05
1.10068e-05
1.08559e-05
1.1199e-05
1.11835e-05
1.11867e-05
1.10312e-05
1.1191e-05
1.1185e-05
1.12129e-05
1.12048e-05
1.19429e-05
1.26003e-05
1.27291e-05
1.2772e-05
1.33049e-05
1.31715e-05
1.33662e-05
1.31091e-05
1.28458e-05
1.30797e-05
1.31906e-05
1.35698e-05
1.35588e-05
1.3558e-05
1.25148e-05
1.26043e-05
1.24677e-05
1.35178e-05
1.35601e-05
1.23409e-05
1.24874e-05
1.22251e-05
1.23277e-05
1.20757e-05
1.20809e-05
1.21493e-05
1.21857e-05
1.21957e-05
1.15367e-05
1.15755e-05
1.16259e-05
1.16917e-05
1.17671e-05
1.13159e-05
1.15262e-05
1.1838e-05
1.1841e-05
1.18837e-05
1.18918e-05
1.194e-05
1.18717e-05
1.19884e-05
1.20425e-05
1.20301e-05
1.20844e-05
1.20822e-05
2.02376e-05
1.58599e-05
1.30713e-05
1.95409e-05
1.09561e-05
1.0725e-05
1.11855e-05
1.11816e-05
1.11788e-05
1.11958e-05
1.11852e-05
1.09262e-05
1.11132e-05
1.11928e-05
1.11883e-05
1.12256e-05
1.12077e-05
1.16353e-05
1.10117e-05
1.27424e-05
1.2801e-05
1.28323e-05
1.34448e-05
1.33882e-05
1.35515e-05
1.32068e-05
1.30024e-05
1.3106e-05
1.33849e-05
1.35993e-05
1.35893e-05
1.35993e-05
1.36164e-05
1.26455e-05
1.27283e-05
1.25893e-05
1.34806e-05
1.35066e-05
1.24559e-05
1.25034e-05
1.25997e-05
1.22967e-05
1.24304e-05
1.21682e-05
1.21665e-05
1.22279e-05
1.22719e-05
1.2288e-05
1.15567e-05
1.1581e-05
1.16146e-05
1.16535e-05
1.17497e-05
1.17927e-05
1.18412e-05
1.13456e-05
1.15833e-05
1.19054e-05
1.18994e-05
1.19787e-05
1.19854e-05
1.20498e-05
1.19742e-05
1.20781e-05
1.21168e-05
1.21552e-05
1.21819e-05
2.2918e-05
1.655e-05
1.50617e-05
1.1688e-05
2.1668e-05
1.09196e-05
1.11644e-05
1.11832e-05
1.11848e-05
1.1179e-05
1.11945e-05
1.11817e-05
1.09305e-05
1.11358e-05
1.12013e-05
1.11933e-05
1.12268e-05
1.12185e-05
1.12661e-05
1.08376e-05
1.28214e-05
1.30123e-05
1.30106e-05
1.3575e-05
1.347e-05
1.33935e-05
1.30983e-05
1.32834e-05
1.34816e-05
1.35456e-05
1.35184e-05
1.3596e-05
1.36503e-05
1.26828e-05
1.27509e-05
1.33836e-05
1.33631e-05
1.25241e-05
1.26386e-05
1.27114e-05
1.24024e-05
1.24485e-05
1.2528e-05
1.22623e-05
1.22441e-05
1.23036e-05
1.23384e-05
1.16095e-05
1.16242e-05
1.16886e-05
1.17617e-05
1.18084e-05
1.18677e-05
1.1905e-05
1.14975e-05
1.16564e-05
1.19043e-05
1.19872e-05
1.1976e-05
1.2021e-05
1.20219e-05
1.20565e-05
1.21215e-05
1.21465e-05
1.22054e-05
1.22254e-05
1.22616e-05
2.00228e-05
1.60885e-05
1.35288e-05
1.18804e-05
1.97238e-05
1.10167e-05
1.12196e-05
1.11792e-05
1.11841e-05
1.11912e-05
1.11819e-05
1.11806e-05
1.11997e-05
1.11771e-05
1.09519e-05
1.09604e-05
1.10762e-05
1.11904e-05
1.12066e-05
1.12028e-05
1.12498e-05
1.12388e-05
1.12249e-05
1.19398e-05
1.3015e-05
1.31116e-05
1.31023e-05
1.36386e-05
1.36098e-05
1.349e-05
1.32357e-05
1.34539e-05
1.36126e-05
1.35477e-05
1.34871e-05
1.33908e-05
1.3608e-05
1.36304e-05
1.283e-05
1.28861e-05
1.31979e-05
1.31982e-05
1.26283e-05
1.27322e-05
1.2866e-05
1.24676e-05
1.25679e-05
1.26124e-05
1.23715e-05
1.23371e-05
1.2409e-05
1.24352e-05
1.16378e-05
1.16561e-05
1.16856e-05
1.17831e-05
1.18094e-05
1.19144e-05
1.19494e-05
1.19814e-05
1.14718e-05
1.16808e-05
1.20112e-05
1.20784e-05
1.20177e-05
1.21109e-05
1.20998e-05
1.21437e-05
1.22217e-05
1.22574e-05
1.2306e-05
1.2337e-05
1.23544e-05
2.27854e-05
1.61799e-05
1.46537e-05
1.14363e-05
2.14376e-05
1.10869e-05
1.13734e-05
1.11789e-05
1.11931e-05
1.12011e-05
1.11906e-05
1.11758e-05
1.119e-05
1.11783e-05
1.07644e-05
1.08619e-05
1.12166e-05
1.11933e-05
1.122e-05
1.12135e-05
1.12488e-05
1.12362e-05
1.20588e-05
1.30815e-05
1.32673e-05
1.32868e-05
1.36669e-05
1.36665e-05
1.36476e-05
1.36496e-05
1.33565e-05
1.35679e-05
1.36682e-05
1.33848e-05
1.33429e-05
1.32105e-05
1.35007e-05
1.3546e-05
1.29347e-05
1.29186e-05
1.30384e-05
1.29578e-05
1.28409e-05
1.26858e-05
1.28912e-05
1.29856e-05
1.25558e-05
1.26398e-05
1.24661e-05
1.23966e-05
1.24263e-05
1.25053e-05
1.25073e-05
1.1767e-05
1.18335e-05
1.17977e-05
1.18938e-05
1.19647e-05
1.20373e-05
1.20702e-05
1.20792e-05
1.14496e-05
1.17285e-05
1.20841e-05
1.21778e-05
1.21617e-05
1.21673e-05
1.21973e-05
1.22617e-05
1.2296e-05
1.22959e-05
1.24165e-05
1.24328e-05
1.23792e-05
1.24572e-05
1.94755e-05
1.58111e-05
1.30711e-05
1.15133e-05
2.12325e-05
1.11979e-05
1.14456e-05
1.1185e-05
1.12009e-05
1.12126e-05
1.11963e-05
1.11741e-05
1.11759e-05
1.11735e-05
1.11932e-05
1.11828e-05
1.06403e-05
1.10496e-05
1.13514e-05
1.12191e-05
1.12242e-05
1.12601e-05
1.12449e-05
1.2515e-05
1.32758e-05
1.33857e-05
1.33515e-05
1.36692e-05
1.36045e-05
1.36858e-05
1.36903e-05
1.35325e-05
1.36847e-05
1.37016e-05
1.33916e-05
1.31757e-05
1.31128e-05
1.29454e-05
1.33995e-05
1.3089e-05
1.31178e-05
1.31538e-05
1.22727e-05
1.26001e-05
1.27105e-05
1.24971e-05
1.28325e-05
1.29391e-05
1.31529e-05
1.26441e-05
1.27761e-05
1.25832e-05
1.25294e-05
1.25497e-05
1.25903e-05
1.26153e-05
1.17901e-05
1.1914e-05
1.18242e-05
1.19039e-05
1.19967e-05
1.20772e-05
1.2222e-05
1.22195e-05
1.2189e-05
1.14337e-05
1.16235e-05
1.22062e-05
1.22895e-05
1.22439e-05
1.22925e-05
1.23565e-05
1.23553e-05
1.23262e-05
1.24574e-05
1.245e-05
1.25451e-05
1.25277e-05
1.25061e-05
1.25555e-05
2.10066e-05
1.65424e-05
1.29134e-05
1.12403e-05
2.16648e-05
1.65016e-05
1.14427e-05
1.11887e-05
1.11938e-05
1.12113e-05
1.12231e-05
1.12087e-05
1.11771e-05
1.11797e-05
1.11705e-05
1.11833e-05
1.11907e-05
1.02841e-05
1.11211e-05
1.08388e-05
1.12119e-05
1.12342e-05
1.12765e-05
1.12576e-05
1.12731e-05
1.12444e-05
1.22526e-05
1.32673e-05
1.33879e-05
1.35406e-05
1.35222e-05
1.36883e-05
1.36347e-05
1.34705e-05
1.37075e-05
1.36187e-05
1.37183e-05
1.36976e-05
1.31721e-05
1.27764e-05
1.26844e-05
1.25639e-05
1.31465e-05
1.31829e-05
1.32166e-05
1.16814e-05
1.20117e-05
1.19944e-05
1.28856e-05
1.31309e-05
1.32735e-05
1.27802e-05
1.28415e-05
1.27008e-05
1.26177e-05
1.26216e-05
1.26953e-05
1.27144e-05
1.17498e-05
1.16917e-05
1.21171e-05
1.227e-05
1.21434e-05
1.24176e-05
1.25028e-05
1.22758e-05
1.2399e-05
1.23728e-05
1.15441e-05
1.26134e-05
1.23162e-05
1.24373e-05
1.24083e-05
1.24085e-05
1.24781e-05
1.25132e-05
1.24882e-05
1.25667e-05
1.25707e-05
1.26881e-05
1.26624e-05
1.25771e-05
1.2681e-05
2.0449e-05
1.66877e-05
1.15723e-05
1.10767e-05
2.28188e-05
1.65571e-05
1.15243e-05
1.12278e-05
1.12038e-05
1.12147e-05
1.12228e-05
1.12367e-05
1.12128e-05
1.1181e-05
1.11775e-05
1.11894e-05
1.11734e-05
1.11681e-05
1.11837e-05
1.11937e-05
1.12025e-05
1.01744e-05
1.12198e-05
1.09447e-05
1.08203e-05
1.12351e-05
1.12403e-05
1.12695e-05
1.12861e-05
1.12564e-05
1.2447e-05
1.33954e-05
1.35478e-05
1.36438e-05
1.36262e-05
1.36353e-05
1.35408e-05
1.33424e-05
1.3701e-05
1.36933e-05
1.37197e-05
1.37234e-05
1.36577e-05
1.28337e-05
1.30115e-05
1.23531e-05
1.22807e-05
1.20256e-05
1.28568e-05
1.33525e-05
1.33786e-05
1.15731e-05
1.17166e-05
1.30512e-05
1.31707e-05
1.32748e-05
1.34379e-05
1.28903e-05
1.30233e-05
1.28383e-05
1.27633e-05
1.27383e-05
1.28107e-05
1.28502e-05
1.3036e-05
1.22933e-05
1.19433e-05
1.18979e-05
1.20834e-05
1.25347e-05
1.24684e-05
1.2601e-05
1.26998e-05
1.2576e-05
1.26324e-05
1.25199e-05
1.1517e-05
1.1543e-05
1.14112e-05
1.24768e-05
1.25767e-05
1.25599e-05
1.26e-05
1.2667e-05
1.25894e-05
1.26687e-05
1.27517e-05
1.27244e-05
1.28789e-05
1.27574e-05
1.26902e-05
1.2767e-05
2.26599e-05
1.85164e-05
1.16809e-05
1.10916e-05
2.04638e-05
1.42223e-05
1.13999e-05
1.12281e-05
1.12325e-05
1.12464e-05
1.12266e-05
1.11907e-05
1.11874e-05
1.11962e-05
1.1178e-05
1.11692e-05
1.11729e-05
1.12069e-05
1.12125e-05
9.60309e-06
1.1251e-05
1.12058e-05
1.00137e-05
1.1204e-05
1.1253e-05
1.13072e-05
1.12676e-05
1.12839e-05
1.13033e-05
1.26709e-05
1.15251e-05
1.35401e-05
1.3665e-05
1.37218e-05
1.37053e-05
1.35556e-05
1.34049e-05
1.30057e-05
1.36431e-05
1.36516e-05
1.37379e-05
1.36903e-05
1.36001e-05
1.23905e-05
1.25495e-05
1.17468e-05
1.18021e-05
1.17114e-05
1.2812e-05
1.2403e-05
1.3442e-05
1.34649e-05
1.09731e-05
1.11285e-05
1.12098e-05
1.31132e-05
1.33331e-05
1.34378e-05
1.35558e-05
1.30438e-05
1.30979e-05
1.29429e-05
1.28531e-05
1.28393e-05
1.28509e-05
1.29437e-05
1.29862e-05
1.45519e-05
1.26719e-05
1.24042e-05
1.46851e-05
1.08784e-05
1.33168e-05
1.27462e-05
1.27942e-05
1.28245e-05
1.27064e-05
1.29272e-05
1.28249e-05
1.1741e-05
1.18264e-05
1.17364e-05
9.17126e-06
1.2769e-05
1.28316e-05
1.27468e-05
1.28426e-05
1.28107e-05
1.28438e-05
1.29092e-05
1.2801e-05
1.28717e-05
1.30253e-05
1.29208e-05
1.29121e-05
2.37997e-05
1.86698e-05
1.08919e-05
1.10364e-05
2.10328e-05
1.41386e-05
1.15144e-05
1.12353e-05
1.12362e-05
1.12442e-05
1.12597e-05
1.12321e-05
1.11986e-05
1.11859e-05
1.11965e-05
1.1206e-05
1.11763e-05
1.11672e-05
1.11659e-05
1.12115e-05
1.12259e-05
9.66645e-06
1.12618e-05
1.09257e-05
9.23124e-06
1.12054e-05
1.12632e-05
1.13273e-05
1.12825e-05
1.12978e-05
1.132e-05
1.31146e-05
1.15353e-05
1.36214e-05
1.37329e-05
1.375e-05
1.37544e-05
1.33643e-05
1.31935e-05
1.29514e-05
1.35681e-05
1.36333e-05
1.35725e-05
1.37288e-05
1.36988e-05
1.34381e-05
1.18374e-05
1.22787e-05
1.12615e-05
1.13498e-05
1.11419e-05
1.22552e-05
1.20324e-05
1.35772e-05
1.36263e-05
1.08542e-05
1.1043e-05
1.32678e-05
1.33663e-05
1.34544e-05
1.35703e-05
1.36684e-05
1.31697e-05
1.32842e-05
1.30858e-05
1.29892e-05
1.29801e-05
1.30027e-05
1.30492e-05
1.30874e-05
1.31487e-05
7.62681e-06
1.09026e-05
1.44747e-05
1.25131e-05
1.21714e-05
1.32563e-05
1.33358e-05
1.34366e-05
1.29848e-05
1.29169e-05
1.40902e-05
1.2995e-05
1.29687e-05
1.18204e-05
1.2123e-05
1.10691e-05
4.63151e-06
1.30513e-05
1.30519e-05
1.30162e-05
1.30731e-05
1.28735e-05
1.30509e-05
1.30936e-05
1.30119e-05
1.30299e-05
1.32009e-05
1.30024e-05
1.29995e-05
2.32797e-05
1.75921e-05
2.07689e-05
1.09084e-05
1.20862e-05
1.1111e-05
1.75111e-05
1.13615e-05
1.12499e-05
1.12485e-05
1.12546e-05
1.12723e-05
1.12479e-05
1.12132e-05
1.11941e-05
1.12086e-05
1.12161e-05
1.11847e-05
1.11787e-05
1.11716e-05
1.12265e-05
1.12344e-05
9.15171e-06
1.12213e-05
1.12572e-05
1.12807e-05
1.11815e-05
1.12789e-05
1.13768e-05
1.13458e-05
1.12974e-05
1.13158e-05
1.13406e-05
1.27142e-05
1.04249e-05
1.36374e-05
1.37353e-05
1.37518e-05
1.37651e-05
1.37518e-05
1.37416e-05
1.3154e-05
1.33127e-05
1.25843e-05
1.33611e-05
1.34686e-05
1.34299e-05
1.37212e-05
1.36222e-05
1.15905e-05
1.17863e-05
1.09318e-05
1.09958e-05
1.09883e-05
1.22135e-05
1.17086e-05
1.3658e-05
1.10415e-05
1.13457e-05
1.09405e-05
1.33461e-05
1.35215e-05
1.35734e-05
1.36946e-05
1.37478e-05
1.33086e-05
1.31094e-05
1.3213e-05
1.31473e-05
1.31649e-05
1.31884e-05
1.32793e-05
1.33083e-05
9.14202e-06
1.02319e-05
2.78168e-06
9.89355e-06
4.98034e-06
1.93744e-05
1.32737e-05
1.30441e-05
1.45961e-05
1.35156e-05
1.34993e-05
1.48452e-05
1.34421e-05
1.32247e-05
1.17698e-05
1.2605e-05
1.18753e-05
8.50927e-06
7.69023e-06
1.3352e-05
1.33026e-05
1.31515e-05
1.31642e-05
1.33362e-05
1.31617e-05
1.31342e-05
1.32755e-05
1.32704e-05
1.33113e-05
1.33047e-05
1.32017e-05
1.31662e-05
2.39736e-05
1.75345e-05
2.12188e-05
1.08626e-05
1.16856e-05
1.11622e-05
1.75671e-05
1.1428e-05
1.12567e-05
1.12607e-05
1.12677e-05
1.12871e-05
1.12592e-05
1.12548e-05
1.12241e-05
1.12058e-05
1.11927e-05
1.12218e-05
1.12281e-05
1.11834e-05
1.11831e-05
1.11672e-05
1.12354e-05
1.125e-05
8.8632e-06
1.12044e-05
1.12205e-05
1.12976e-05
1.06399e-05
1.11836e-05
1.12909e-05
1.14072e-05
1.13692e-05
1.1313e-05
1.13355e-05
1.13662e-05
1.26636e-05
9.93461e-06
1.37356e-05
1.37764e-05
1.37687e-05
1.3751e-05
1.37016e-05
1.27743e-05
1.29098e-05
1.24894e-05
1.31502e-05
1.32991e-05
1.33886e-05
1.31692e-05
1.36771e-05
1.35044e-05
1.10693e-05
1.16587e-05
1.0876e-05
1.09587e-05
1.0906e-05
1.09573e-05
1.18503e-05
1.13044e-05
1.3745e-05
1.20215e-05
1.12782e-05
1.3497e-05
1.36031e-05
1.36939e-05
1.37763e-05
1.37998e-05
1.34277e-05
1.32746e-05
1.3367e-05
1.32428e-05
1.33043e-05
1.33788e-05
1.3419e-05
1.34492e-05
8.23084e-05
4.97048e-06
5.35635e-05
2.48572e-06
5.7331e-06
1.27141e-05
5.20729e-06
1.33664e-05
1.30499e-05
1.43009e-05
1.43272e-05
1.37839e-05
1.46223e-05
8.19475e-06
1.36816e-05
1.16137e-05
1.44783e-05
1.02409e-05
4.62126e-05
9.16801e-05
1.36295e-05
1.36042e-05
1.34808e-05
1.35539e-05
1.35675e-05
1.33201e-05
1.33354e-05
1.34315e-05
1.34449e-05
1.34913e-05
1.3537e-05
1.32692e-05
2.17641e-05
1.95812e-05
1.67641e-05
2.21328e-05
1.10867e-05
1.10515e-05
1.41068e-05
1.13885e-05
1.12722e-05
1.12792e-05
1.12794e-05
1.13035e-05
1.12734e-05
1.12685e-05
1.12395e-05
1.12137e-05
1.11994e-05
1.12373e-05
1.12415e-05
1.11982e-05
1.11927e-05
1.11781e-05
1.12514e-05
1.12599e-05
1.12027e-05
1.12848e-05
1.08621e-05
1.11789e-05
1.13136e-05
1.14168e-05
1.13947e-05
1.1333e-05
1.1322e-05
1.13615e-05
1.13943e-05
1.30491e-05
1.15111e-05
1.03734e-05
1.37943e-05
1.37747e-05
1.37557e-05
1.37125e-05
1.36185e-05
1.26651e-05
1.28859e-05
1.20922e-05
1.28766e-05
1.29947e-05
1.30208e-05
1.35814e-05
1.33278e-05
1.08901e-05
1.09785e-05
1.11493e-05
1.11492e-05
1.1133e-05
1.09639e-05
1.11138e-05
1.1334e-05
1.12062e-05
1.3783e-05
1.25241e-05
1.21838e-05
1.19127e-05
1.35604e-05
1.3689e-05
1.37377e-05
1.38235e-05
1.38153e-05
1.35486e-05
1.34057e-05
1.35e-05
1.34365e-05
1.34677e-05
1.35025e-05
1.36073e-05
1.35674e-05
0.000296676
0.000431983
2.53746e-05
3.75916e-05
3.19325e-05
7.60609e-05
1.68635e-05
6.35984e-06
1.36066e-05
1.37227e-05
1.21013e-05
1.36629e-05
8.76163e-07
1.4177e-05
1.18388e-05
6.57702e-05
6.15026e-06
1.12944e-05
0.000164702
0.00018029
1.37666e-05
1.44335e-05
1.36344e-05
1.3736e-05
1.37834e-05
1.36484e-05
1.34739e-05
1.36261e-05
1.37058e-05
1.35695e-05
1.36026e-05
1.36573e-05
1.3458e-05
2.0387e-05
1.71675e-05
2.17888e-05
1.09807e-05
1.12585e-05
1.35575e-05
1.15427e-05
1.12848e-05
1.12931e-05
1.12967e-05
1.13206e-05
1.13066e-05
1.12887e-05
1.12805e-05
1.12454e-05
1.12525e-05
1.12308e-05
1.12108e-05
1.12042e-05
1.12535e-05
1.12398e-05
1.12547e-05
1.12023e-05
1.11989e-05
1.11954e-05
1.11758e-05
1.12745e-05
1.11805e-05
1.12149e-05
1.12971e-05
1.11301e-05
1.14626e-05
1.1445e-05
1.1351e-05
1.13437e-05
1.13815e-05
1.14179e-05
1.25619e-05
1.11988e-05
1.02272e-05
1.3787e-05
1.37256e-05
1.36914e-05
1.36147e-05
1.34725e-05
1.23275e-05
1.25302e-05
1.20015e-05
1.27829e-05
1.25669e-05
1.28478e-05
1.30443e-05
1.33934e-05
1.10159e-05
1.09519e-05
1.1343e-05
1.15409e-05
1.14108e-05
1.14978e-05
1.17734e-05
1.11613e-05
1.11776e-05
1.09519e-05
1.38048e-05
1.2487e-05
1.27899e-05
1.25949e-05
1.36982e-05
1.37358e-05
1.37973e-05
1.38291e-05
1.38241e-05
1.3801e-05
1.36531e-05
1.35544e-05
1.36417e-05
1.35363e-05
1.35801e-05
1.36595e-05
1.36949e-05
1.36452e-05
1.36723e-05
0.000476192
0.00064713
0.000175137
3.70337e-05
6.09302e-06
0.000248028
0.000621365
2.74863e-05
1.18967e-05
6.26041e-06
1.01237e-05
6.03522e-06
9.83908e-06
1.43393e-06
1.31877e-05
8.46953e-06
1.19878e-05
1.17443e-05
5.30579e-06
8.96408e-06
0.000365446
0.000467922
1.35491e-05
1.5183e-05
1.38837e-05
1.40053e-05
1.39163e-05
1.38523e-05
1.36598e-05
1.37448e-05
1.38127e-05
1.37646e-05
1.37312e-05
1.37697e-05
1.38195e-05
2.20117e-05
1.9436e-05
1.65293e-05
1.58263e-05
1.19417e-05
1.10048e-05
1.12823e-05
1.15422e-05
1.18482e-05
1.13062e-05
1.1312e-05
1.13121e-05
1.13458e-05
1.13301e-05
1.13061e-05
1.13006e-05
1.12637e-05
1.12671e-05
1.12344e-05
1.12238e-05
1.1219e-05
1.12754e-05
1.12605e-05
1.12716e-05
1.12158e-05
1.12166e-05
1.12111e-05
1.1189e-05
1.12868e-05
1.11853e-05
1.1205e-05
1.1325e-05
1.12531e-05
1.14949e-05
1.14641e-05
1.13729e-05
1.13584e-05
1.14125e-05
1.14512e-05
1.14264e-05
1.2627e-05
1.04466e-05
1.08475e-05
1.37469e-05
1.36768e-05
1.36128e-05
1.34943e-05
1.32694e-05
1.20219e-05
1.21275e-05
1.15356e-05
1.24662e-05
1.22944e-05
1.24359e-05
1.28103e-05
1.32098e-05
1.10252e-05
1.12704e-05
1.09634e-05
1.19865e-05
1.21453e-05
1.20438e-05
1.25918e-05
1.09345e-05
1.11938e-05
1.09492e-05
1.09102e-05
1.37785e-05
1.23776e-05
1.31368e-05
1.37355e-05
1.37496e-05
1.38079e-05
1.38296e-05
1.37968e-05
1.38109e-05
1.37486e-05
1.36594e-05
1.37469e-05
1.37001e-05
1.37203e-05
1.3742e-05
1.3809e-05
1.37686e-05
1.37667e-05
0.000660077
0.000716567
0.000293319
0.000124929
1.38144e-05
0.000368253
0.00070965
0.000519827
4.45072e-05
6.15984e-05
1.99271e-06
3.20765e-05
9.17309e-07
8.52742e-06
1.19822e-05
0.000134059
9.24236e-07
9.14788e-06
4.44701e-06
0.000402332
9.26136e-06
0.000741075
0.000861992
1.50482e-05
1.39391e-05
1.40347e-05
1.40992e-05
1.40366e-05
1.40293e-05
1.38705e-05
1.39933e-05
1.39326e-05
1.37672e-05
1.38029e-05
1.38376e-05
1.38896e-05
2.3258e-05
2.07777e-05
1.68279e-05
1.4125e-05
1.20474e-05
1.09493e-05
1.16316e-05
1.20814e-05
1.2732e-05
1.13189e-05
1.13308e-05
1.13301e-05
1.1363e-05
1.13487e-05
1.13277e-05
1.1312e-05
1.12756e-05
1.1286e-05
1.1248e-05
1.12316e-05
1.12932e-05
1.12776e-05
1.12629e-05
1.12871e-05
1.12243e-05
1.12301e-05
1.12274e-05
1.12259e-05
1.12087e-05
1.11929e-05
1.13065e-05
1.11949e-05
1.11976e-05
1.11938e-05
1.13458e-05
1.1233e-05
1.15299e-05
1.1514e-05
1.13941e-05
1.13869e-05
1.14336e-05
1.14754e-05
1.1458e-05
1.32799e-05
1.1673e-05
1.01527e-05
1.08591e-05
1.36738e-05
1.35226e-05
1.34773e-05
1.32825e-05
1.30814e-05
1.15512e-05
1.17892e-05
1.22555e-05
1.19458e-05
1.23414e-05
1.24416e-05
1.29204e-05
1.14089e-05
1.16414e-05
1.12371e-05
1.21909e-05
1.20607e-05
1.2223e-05
1.24338e-05
1.09183e-05
1.09976e-05
1.08799e-05
1.11169e-05
1.37131e-05
8.89493e-06
1.11169e-05
1.38e-05
1.38111e-05
1.38215e-05
1.38149e-05
1.37555e-05
1.37613e-05
1.3644e-05
1.37749e-05
1.38331e-05
1.37644e-05
1.37833e-05
1.38282e-05
1.38321e-05
1.38287e-05
1.38193e-05
1.38217e-05
0.000649996
0.000726431
0.000505496
8.08142e-05
5.71692e-05
0.000147257
0.000564494
0.000786104
0.00062993
2.76984e-05
0.000370603
5.81109e-06
0.000207359
0.000249667
1.15345e-05
5.14144e-06
0.000891752
0.000155031
8.61344e-06
6.84841e-05
0.000679437
0.000256796
1.144e-05
0.000963997
0.000813745
1.66122e-05
1.37821e-05
1.40876e-05
1.41252e-05
1.40673e-05
1.40626e-05
1.39488e-05
1.39974e-05
1.3838e-05
1.38697e-05
1.38945e-05
1.39261e-05
1.89522e-05
2.0866e-05
1.61525e-05
1.89789e-05
1.43428e-05
1.14506e-05
1.17464e-05
1.26779e-05
1.25466e-05
6.89759e-06
1.13463e-05
1.13513e-05
1.13485e-05
1.13906e-05
1.13733e-05
1.13459e-05
1.13369e-05
1.12966e-05
1.1303e-05
1.12584e-05
1.12529e-05
1.13203e-05
1.1302e-05
1.12832e-05
1.13072e-05
1.12451e-05
1.12511e-05
1.12495e-05
1.12482e-05
1.12239e-05
1.12125e-05
1.13237e-05
1.12198e-05
1.12016e-05
1.12066e-05
1.13412e-05
1.12086e-05
1.15658e-05
1.15392e-05
1.15289e-05
1.14241e-05
1.1407e-05
1.14674e-05
1.15106e-05
1.14813e-05
1.31556e-05
1.2123e-05
1.03727e-05
1.114e-05
1.35485e-05
1.34199e-05
1.34765e-05
1.33052e-05
1.30852e-05
1.27973e-05
1.12664e-05
1.13022e-05
1.18377e-05
1.16585e-05
1.18691e-05
1.22893e-05
1.22164e-05
1.27071e-05
1.15137e-05
1.21413e-05
1.1326e-05
1.24546e-05
1.21608e-05
1.2297e-05
1.24295e-05
1.13998e-05
1.10358e-05
1.0975e-05
1.0992e-05
1.36047e-05
8.92934e-06
7.06541e-06
1.3829e-05
1.38329e-05
1.38223e-05
1.37826e-05
1.36701e-05
1.36746e-05
1.35734e-05
1.38166e-05
1.38511e-05
1.3836e-05
1.38452e-05
1.3842e-05
1.38419e-05
1.38377e-05
1.38503e-05
1.38383e-05
0.000648819
0.000673605
0.000455579
9.88649e-05
9.66476e-05
0.000435317
0.000748101
4.56205e-05
0.000180167
0.000394493
3.77576e-05
0.000407722
0.000493056
7.74909e-05
1.04963e-05
0.000595184
0.00120131
9.09297e-06
3.74759e-06
8.34914e-06
0.00081631
0.000250983
0.00103416
0.000842621
7.67832e-06
1.51839e-05
1.40521e-05
1.41105e-05
1.40355e-05
1.40444e-05
1.40518e-05
1.39623e-05
1.39973e-05
1.38644e-05
1.38799e-05
1.38977e-05
1.39202e-05
1.93295e-05
2.05965e-05
1.68398e-05
1.95792e-05
1.28362e-05
1.16072e-05
1.16831e-05
7.40547e-06
9.51932e-06
5.09181e-06
1.13574e-05
1.13747e-05
1.13724e-05
1.1407e-05
1.13996e-05
1.13493e-05
1.1376e-05
1.13423e-05
1.13125e-05
1.13316e-05
1.1279e-05
1.12691e-05
1.13411e-05
1.13335e-05
1.13011e-05
1.13266e-05
1.13258e-05
1.12586e-05
1.12689e-05
1.12651e-05
1.1257e-05
1.12435e-05
1.12281e-05
1.12395e-05
1.1214e-05
1.12295e-05
1.1239e-05
1.13685e-05
1.12057e-05
1.16035e-05
1.15938e-05
1.1573e-05
1.14481e-05
1.14358e-05
1.14947e-05
1.15366e-05
1.15243e-05
1.36514e-05
1.17342e-05
1.06137e-05
1.11432e-05
1.34179e-05
1.32731e-05
1.32596e-05
1.31642e-05
1.28034e-05
1.26059e-05
1.11676e-05
1.11199e-05
1.15301e-05
1.1229e-05
1.19515e-05
1.15723e-05
1.1826e-05
1.23508e-05
1.2207e-05
1.23569e-05
1.19999e-05
1.19708e-05
1.0514e-05
1.00938e-05
1.23266e-05
8.25262e-06
1.13901e-05
1.08979e-05
1.09303e-05
1.12846e-05
1.34512e-05
6.20331e-06
4.89412e-06
1.38288e-05
1.38219e-05
1.37999e-05
1.37291e-05
1.36173e-05
1.35379e-05
1.33963e-05
1.38521e-05
1.38707e-05
1.38465e-05
1.38393e-05
1.38381e-05
1.38266e-05
1.38349e-05
1.38314e-05
1.38381e-05
0.000399174
0.000358658
0.000423819
0.000221477
8.4705e-05
0.000261339
0.000457769