/*--------------------------------*- C++ -*----------------------------------*\
| =========                 |                                                 |
| \\      /  F ield         | OpenFOAM: The Open Source CFD Toolbox           |
|  \\    /   O peration     | Version:  v2012                                 |
|   \\  /    A nd           | Website:  www.openfoam.com                      |
|    \\/     M anipulation  |                                                 |
\*---------------------------------------------------------------------------*/
FoamFile
{
    version     2.0;
    format      ascii;
    class       volScalarField;
    location    "1.6";
    object      omega;
}
// * * * * * * * * * * * * * * * * * * * * * * * * * * * * * * * * * * * * * //

dimensions      [0 0 -1 0 0 0 0];


internalField   nonuniform List<scalar> 
13611
(
58.4264
31.8475
107.185
22.0381
18.3235
22.5151
27.2884
70.3353
25.2282
19.2498
23.5033
39.9871
20.9804
112.115
25.1201
18.5063
24.6781
21.3034
36.3307
19.8844
63.4776
24.3897
24.5392
25.1742
24.6954
22.2981
25.8745
19.0044
100.293
24.151
24.2514
24.5807
24.5117
24.39
21.3835
24.0762
19.888
63.7721
23.9887
23.9249
24.3727
24.4079
24.4698
22.4982
23.9144
18.9687
109.407
36.6695
23.8631
23.9198
23.7375
23.9073
24.0839
24.374
24.1743
22.225
20.276
20.3127
63.4575
38.2617
23.79
23.8837
23.6004
23.7008
24.0976
23.8842
23.6976
24.0259
24.1434
23.3083
19.696
20.1035
100.172
28.3545
23.7449
23.9897
23.4834
23.6305
23.4612
23.4937
23.4395
23.7504
24.1622
23.8254
23.2909
19.1434
21.6914
63.2875
28.3406
23.8754
24.0158
23.4763
23.5805
23.3408
24.1479
23.2978
23.2888
23.3057
23.8596
23.6062
23.4121
18.8117
21.9221
49.2083
21.5605
23.9939
23.8372
23.4122
23.6993
23.3238
24.205
24.3349
23.1398
23.1838
23.1357
23.5003
23.1409
23.4556
23.3132
18.8998
20.9731
22.9241
100.647
28.8779
20.2756
24.0921
23.9405
23.5199
23.6569
23.2154
24.403
23.0203
22.9811
22.9878
23.0036
23.1029
23.137
18.3584
21.4472
22.8319
56.0746
22.9306
18.28
24.1581
23.9137
24.0984
23.5191
23.714
23.1985
24.3351
24.5455
23.0099
22.874
22.8415
22.738
22.615
22.8653
18.3266
20.1779
22.2635
22.8256
22.7481
99.9878
30.4721
18.2387
23.8277
24.0404
24.2074
23.4678
23.632
23.1064
23.3546
24.4246
24.6382
22.9197
22.8449
22.7446
22.5927
22.6397
22.3638
22.3802
17.9077
20.7311
22.3491
22.5755
22.5685
56.0266
23.8178
23.8967
24.1669
24.0136
24.3695
23.5341
23.6853
23.207
23.3312
24.5822
24.7939
23.0043
22.7339
22.4397
22.5658
22.3185
22.1844
17.3256
20.3059
22.0228
22.4935
22.4799
22.1916
31.9806
100.433
18.9553
23.8327
24.2794
24.1335
24.5007
23.5035
23.642
23.1511
23.3947
24.7182
24.9493
22.9485
22.7892
22.4437
22.6327
22.2688
22.0641
18.2448
21.0938
22.0859
22.1476
22.0922
21.9845
25.8912
53.7986
17.5372
23.8344
24.2702
24.4428
24.1448
24.6769
23.5831
23.7184
23.1997
23.375
24.9069
23.0039
22.7483
22.4541
22.6652
22.2031
22.3596
22.1036
21.9614
17.688
21.2832
21.9989
22.0508
22.0208
21.8109
21.9144
31.1416
19.4561
94.7702
23.9619
24.3863
24.5073
24.3032
24.0975
24.8379
23.6975
23.5742
23.1303
23.308
23.4797
25.0143
22.9745
22.8688
22.5799
22.8014
22.2496
22.4136
22.1058
21.8814
18.0446
20.3184
21.8056
21.9744
21.7694
21.5718
21.61
21.7565
22.3859
17.7454
60.2903
23.942
24.4113
24.677
24.3278
24.2092
24.8309
25.0124
23.8113
23.6878
23.1626
23.3627
23.4694
25.2249
25.3304
23.0526
22.627
22.8562
22.1932
22.3456
22.5513
22.0541
21.935
17.1969
20.8893
21.6583
21.7549
21.4725
21.4279
21.5429
21.6755
26.2824
46.6489
24.0418
24.6025
24.736
24.4732
24.1809
25.0175
25.158
23.7992
23.6839
23.2609
23.3521
23.5737
25.2981
25.5578
23.1028
22.766
22.9789
22.2347
22.4059
22.6061
22.086
21.9157
17.5981
21.5015
20.088
21.3756
21.4128
21.1715
21.2974
21.4022
21.786
18.7473
97.8778
25.9587
24.0297
24.6169
24.913
24.5474
24.3155
25.2157
25.0304
25.2709
23.9071
23.7872
23.3287
23.4671
23.5634
25.4947
25.6253
23.2625
23.0443
22.7875
23.0131
22.1681
22.3398
22.534
22.721
21.9997
16.9021
21.2214
20.3432
21.019
21.0831
21.0305
21.1925
21.5047
21.79
16.7099
57.52
21.296
24.1425
24.7905
24.9962
24.4934
24.7341
24.2871
25.3101
25.1988
25.4854
23.9036
23.7821
23.4421
23.6652
25.8698
23.3127
23.0885
22.9168
23.0055
22.2103
22.3898
22.5845
22.7741
22.0239
17.8254
21.0969
20.9152
19.7083
20.7452
20.7269
20.8673
21.014
21.245
21.5015
21.6993
21.9301
16.0348
30.3047
102.642
17.1059
22.0191
22.6723
24.1758
24.9534
25.1692
24.6331
24.8631
24.4315
25.5239
25.6913
24.0542
23.907
23.5339
23.6613
26.0607
25.9777
23.223
23.4384
22.8919
23.1071
22.137
22.3207
22.5094
22.7063
22.7798
16.9542
20.6787
20.6001
20.1206
20.527
20.5594
20.809
21.1543
20.9479
21.3943
21.6444
21.7494
21.9762
30.6431
55.0698
16.2787
20.8309
22.2598
23.2551
20.1849
23.6921
24.3375
25.1206
25.3532
24.8168
24.5886
25.0672
25.7001
25.6673
25.9385
24.0463
23.9101
23.5291
23.7823
26.2883
23.2207
23.5125
22.9577
23.1381
22.1973
22.3605
22.5563
22.7601
22.8882
17.6155
20.5389
20.422
20.4021
19.5681
20.4596
20.603
20.7566
21.2089
21.0435
21.4458
21.6896
21.8835
22.115
22.0681
92.717
16.7805
16.9536
20.1608
22.8797
21.7538
23.1576
18.7763
24.8129
24.4313
25.3155
25.6081
24.9811
24.7451
25.1801
25.9996
25.9417
26.2253
24.1977
24.0258
23.6868
23.8029
26.4176
26.4257
23.3241
23.6657
23.5333
23.0712
23.2592
22.3115
22.4844
22.6829
22.8712
22.9239
20.1426
20.1819
20.3027
19.6766
20.2453
20.6591
20.8784
21.1732
21.361
21.0042
21.5953
21.8367
21.927
22.1567
25.9261
58.6979
15.5454
17.0752
20.6959
22.7792
22.074
22.955
22.9477
22.8906
20.7084
35.6107
24.3721
24.6369
25.4972
25.8072
25.1595
24.9432
24.7351
25.4291
26.2483
26.0982
24.1745
24.0817
23.9663
26.8428
26.6717
26.6524
23.4603
23.7606
23.6794
23.1224
23.3247
22.3902
22.5106
22.72
22.974
23.0503
20.0505
19.9071
20.0458
20.1589
20.4209
19.5261
20.0194
20.59
20.8287
21.2884
21.4074
21.1078
21.6541
21.8862
22.065
22.3048
17.9798
43.2671
16.1083
15.6417
18.5061
20.2908
22.6508
22.6623
21.9615
22.8184
22.7326
22.8385
19.8921
37.497
24.5461
24.7448
25.7547
25.5443
26.0369
25.3561
25.1268
24.9034
25.5203
26.5984
26.4584
24.3191
24.245
23.9891
26.8273
26.9514
23.5361
23.8986
23.7706
23.2477
23.4631
22.4138
22.6162
22.8464
23.0885
22.954
19.7552
19.7294
19.9744
20.0813
20.3658
19.6858
19.8857
20.717
20.9136
21.2628
21.5495
21.0774
21.8018
22.0275
22.11
22.3209
23.5494
90.9766
16.8248
14.8172
18.2557
20.0785
22.5154
22.4742
22.191
21.0433
22.6592
22.5586
22.7377
21.1913
41.2004
24.4897
24.7253
24.8946
25.9195
25.783
26.2883
25.4115
25.0764
25.3446
25.7337
26.962
26.6727
26.5594
24.3539
24.1814
27.4695
27.2946
27.3745
23.6894
24.0053
23.9477
23.3036
23.5303
22.5727
22.6743
22.8982
23.2101
23.0753
19.5718
19.5582
19.7877
20.2114
20.4666
19.632
19.6405
20.885
20.6452
21.4024
21.6369
21.2137
21.8917
22.1186
22.2374
22.4711
18.1744
51.9208
16.032
15.0289
18.9585
18.7683
22.3776
22.2924
22.0298
20.8029
22.6201
22.4219
22.8831
22.7632
31.2179
24.5906
24.8753
25.0198
26.1651
25.8909
26.346
25.6694
25.1564
25.55
25.8221
27.4272
27.1508
26.9183
24.3278
24.54
24.1595
27.895
27.8111
23.7585
24.0763
23.4441
23.6686
22.6525
22.8224
23.0201
23.2485
23.2011
19.2902
19.4812
19.9054
20.1506
20.4918
19.4559
19.4058
21.0265
20.7765
21.3809
21.5807
21.8259
21.1908
22.056
22.2844
22.3432
22.4693
22.5937
25.6403
67.4625
16.0901
14.207
18.9029
17.9655
22.1373
22.2891
22.1152
21.9612
21.9371
19.6397
21.2515
22.5355
22.4178
22.8919
22.6839
22.6686
19.3511
24.7981
24.9219
25.053
26.3751
26.2222
26.7747
25.7461
25.3614
25.5404
26.0993
27.5148
27.8698
27.237
27.0338
24.4874
24.6886
24.3094
28.3132
28.2907
23.9386
24.0519
24.2667
23.4884
23.7845
22.8345
22.909
23.1158
23.3955
23.3146
19.1228
19.283
19.6201
19.8286
20.2457
20.4268
20.6737
19.2889
19.1201
21.0876
20.9308
21.5289
21.6983
21.9506
21.3508
22.1519
22.3421
22.5745
22.6858
17.3648
50.2751
15.0555
17.4819
14.3261
18.8073
19.0795
22.0061
22.2093
22.0325
21.8088
21.8092
19.7595
21.1965
22.5747
22.3682
22.8049
22.7067
18.7937
17.6517
24.8483
25.1974
25.2848
26.7104
26.3151
26.0045
25.4432
25.7406
26.2174
28.1444
28.336
27.775
27.4558
24.4792
24.6666
28.9052
28.9505
23.9965
24.2001
24.3802
23.6408
23.7586
23.9571
22.9204
23.0632
23.2743
23.4298
19.0203
19.2694
19.6029
20.0051
20.2004
20.5157
20.681
18.937
18.9868
21.0083
21.2745
20.9918
21.4983
21.6728
21.8753
22.1177
22.3061
22.5056
22.608
22.8335
25.3933
57.1987
15.7513
17.1661
13.6346
19.027
18.9991
21.8722
22.1165
22.2647
21.9719
21.6969
21.7535
21.761
19.8523
19.355
20.5759
21.5587
22.526
22.4316
22.9527
22.7948
22.6553
25.6003
25.0989
25.2741
25.36
27.0567
26.6823
26.1577
25.6232
26.0109
26.4941
28.2365
28.5446
28.8962
27.845
27.726
24.6551
24.8162
29.5381
29.5739
24.1453
24.3507
24.6066
23.6876
23.8939
24.0427
23.1076
23.1744
23.3938
23.5798
19.1133
18.908
19.4562
19.765
19.9345
20.3615
20.5479
20.8166
18.7266
18.8179
21.1024
21.3626
20.9732
21.6295
21.7802
21.9309
22.2491
22.4496
22.5798
22.7733
22.9221
17.5847
53.5407
15.1303
18.0077
14.1869
18.9982
18.8197
21.8732
22.0984
22.2582
22.0149
21.5732
21.5772
21.6941
18.5235
19.2357
21.3632
21.4877
22.5773
22.4237
22.8623
22.7007
29.8288
25.1386
25.4679
25.6035
27.019
27.5863
26.7379
26.5613
25.7539
26.2199
26.7257
28.8867
29.0926
29.4793
28.4293
28.2921
24.8346
24.7232
25.0442
30.2805
30.5549
24.1677
24.5448
24.7094
23.8233
24.0244
23.184
23.2095
23.3574
23.5683
23.6324
19.2731
18.9116
19.4713
19.7819
20.0778
20.4011
20.7551
20.8913
18.3563
18.6459
21.2641
21.5638
21.1648
21.8084
21.684
22.123
22.4374
22.3056
22.7559
22.8536
22.8946
23.1068
27.2275
59.5814
16.1376
17.7627
13.3293
19.0598
18.6623
21.8324
22.1673
22.3437
21.9724
21.4701
21.5899
21.4096
21.5109
21.7371
17.9364
20.0823
23.1137
21.4954
22.4954
22.8095
22.6624
39.6081
25.3731
25.6205
25.6538
27.469
27.9904
27.1169
26.7712
26.0537
26.5792
27.0729
28.9086
29.5712
29.7137
30.2741
28.8068
25.0346
24.9875
25.1565
32.1424
31.2363
30.8717
31.4925
24.3624
24.5531
24.9324
23.8948
24.1876
23.3593
23.4084
23.4935
23.6458
23.7957
19.2111
19.0513
18.7476
19.6298
19.9521
20.3036
20.6628
20.8656
21.0874
18.3387
18.3438
21.4083
21.6653
21.3532
22.0048
21.9355
22.1698
22.2835
22.6301
22.554
22.8797
22.9989
23.0384
23.1978
21.664
47.714
15.9666
18.2176
15.8745
14.4826
18.7158
18.9177
21.8899
22.1544
22.3129
22.0129
21.4091
21.5408
21.2841
21.3333
21.7292
16.3567
20.3659
19.5699
21.3688
22.4973
22.938
22.7184
22.8532
22.5873
34.3789
25.3088
25.5663
25.9017
25.9372
27.4407
27.9237
28.5949
27.2521
26.2668
26.8275
27.3504
29.5647
30.5999
30.891
31.1965
29.6174
25.1195
25.0729
33.8173
32.679
32.7991
24.3758
24.7732
25.052
24.0885
24.2211
23.4597
23.4689
23.6251
23.8075
23.8847
19.3142
19.0712
18.71
19.8039
20.1126
20.6349
20.9397
20.8371
21.1886
21.2807
18.1946
18.3522
21.6218
21.8981
21.5352
22.0849
22.0204
22.3767
22.4787
22.8289
22.6496
23.1029
23.1456
23.1675
23.3816
24.6142
45.3572
16.9358
17.9408
14.4961
14.2053
18.3971
18.7599
21.88
22.083
22.2305
22.3694
21.9414
21.4619
21.3321
21.6043
21.2584
21.191
21.2295
21.6756
21.8147
15.7085
21.0823
19.1609
19.4451
21.3858
22.4455
22.6715
22.7963
22.5503
37.3009
25.4627
25.8165
26.1225
26.1915
27.8752
28.3253
28.9796
27.3963
27.4702
26.6815
27.2255
27.7975
30.4765
29.9702
31.716
31.8955
32.5946
30.3573
25.3486
25.2877
34.0772
33.5527
24.5741
24.7694
24.9991
25.2933
24.1809
24.4439
23.651
23.6564
23.7658
23.9126
24.078
19.5173
19.6888
18.9023
19.2676
18.5865
20.1191
20.5419
20.9889
21.2958
21.1998
21.6462
21.5747
18.1446
18.0951
18.2889
21.8062
22.0011
21.8345
22.346
22.2761
22.5496
22.5147
23.0186
22.8565
23.2984
23.3113
23.2924
23.4308
17.6822
31.6283
16.5708
18.3222
13.7885
15.0033
18.3065
22.0836
22.2062
22.3239
21.9473
21.4805
21.3073
21.5553
21.2044
21.1074
21.0327
21.6976
21.7687
13.7777
21.1138
20.6536
15.3845
21.0911
22.4755
22.9254
22.5887
22.7096
22.832
40.917
23.7215
25.7257
26.0884
26.3988
26.4406
28.303
28.8086
29.9398
27.837
27.8404
26.8321
27.5356
28.0673
31.5879
31.1702
33.3597
33.1833
33.5156
30.4664
31.5348
25.4391
25.395
37.1816
35.7301
35.2051
24.6019
24.9664
25.2073
25.4761
24.3803
24.4978
23.7428
23.7276
23.8071
23.8688
24.1001
24.2086
20.1126
20.4171
19.0217
19.5225
18.7836
20.686
21.1462
21.5874
21.808
21.5782
22.2608
22.0823
17.9451
17.9187
18.1346
18.5029
22.2761
22.2124
22.4681
22.4737
22.8363
22.7611
23.257
23.0144
22.976
23.5186
23.5065
23.6096
16.8433
30.9471
17.011
18.1073
13.3312
14.7338
17.9256
22.0203
22.1481
22.2599
22.3552
21.8815
21.434
21.2317
21.3585
21.5725
21.1316
20.9861
20.8746
21.6443
21.8027
13.8443
21.1387
18.8773
12.8292
20.9953
22.4311
22.9783
22.5434
22.6695
22.7993
43.8247
22.9712
25.8883
26.3933
26.7252
26.7387
28.8801
29.4027
30.0815
28.1879
27.9058
28.1669
27.2263
27.5029
28.6347
33.0713
31.8551
34.866
34.622
35.485
31.8606
32.4711
25.6658
25.6991
37.1476
36.2088
24.7844
24.9659
25.1781
25.4455
25.7241
24.5081
24.7343
23.9425
23.7536
23.899
23.9768
24.1416
24.2432
24.4275
20.173
21.0632
19.3657
20.11
18.8073
21.4128
21.7007
21.8545
22.0481
22.0564
22.7898
22.5003
22.5152
17.7686
17.7434
17.9521
18.5083
22.7652
22.7341
22.8529
22.8473
22.8661
23.024
23.4417
23.2387
23.1861
23.7113
23.5569
23.6636
14.8666
38.0987
22.4812
17.5976
15.919
17.8083
13.7325
17.717
22.0321
22.1547
22.2151
22.3087
21.8732
21.4631
21.193
21.3025
21.5335
21.0768
20.99
20.7747
21.6417
21.7542
12.4701
21.0092
20.9987
20.8587
20.7258
22.4635
23.0422
22.933
22.5837
22.7162
22.8535
34.5357
16.2551
25.8616
26.2598
26.4361
26.7265
27.0777
27.0813
29.4897
29.0106
30.9754
28.8109
28.457
28.69
27.3501
27.8348
33.8234
33.1823
36.3883
35.9759
36.3197
31.944
33.354
25.8103
37.4871
37.4778
37.5689
24.8563
25.2085
25.3872
25.722
25.9731
24.7092
24.0194
24.0601
23.936
24.1977
24.282
24.5079
24.6073
19.9837
20.8954
19.647
19.5644
20.841
19.2566
22.4764
22.501
22.6583
22.6442
22.5819
23.7073
23.421
23.2076
17.5438
17.7543
17.5506
18.1435
18.9072
23.4022
23.425
23.0663
23.1899
23.3984
23.2465
23.4264
23.6999
23.5154
23.9018
23.8005
23.8123
23.867
14.6115
38.8474
20.4888
17.5986
16.008
17.602
13.5339
17.3933
22.1048
21.9877
22.2381
22.3402
21.9321
21.8276
21.411
21.2298
21.109
21.328
21.5642
20.9271
20.8308
20.638
21.6937
21.7745
11.7313
20.7979
20.7964
21.0573
17.221
20.6372
22.4189
23.0626
22.9661
22.5627
22.6969
22.8287
32.8849
14.4242
26.157
26.3537
26.7857
27.0251
27.3856
30.4292
30.0155
31.1825
29.4091
28.9778
28.6579
29.3504
27.6013
28.3122
35.7335
33.5522
37.2761
36.7205
36.9791
37.3213
32.8667
34.6442
26.0942
36.5469
37.5252
25.1145
25.3871
25.6673
25.9906
26.2677
24.8694
24.242
24.2694
24.0144
24.3377
24.5485
24.6692
24.83
21.4352
19.7658
19.3159
20.789
21.0576
21.4344
19.924
22.2591
23.2818
23.1804
23.4086
23.2919
24.0631
24.866
23.7253
17.3315
17.5937
17.3788
18.5775
19.9471
24.124
24.0764
23.7667
23.9852
23.9485
23.5571
23.6758
23.877
23.8186
24.1495
24.1227
23.9495
12.7836
26.3875
45.5487
14.0963
16.9054
17.5641
14.7333
17.3552
22.1168
22.0159
22.1892
22.3304
21.9
21.8437
21.433
21.1769
21.0694
21.2981
21.554
20.9438
20.8048
20.5802
21.678
21.7237
20.5478
20.8671
18.0822
20.4978
22.4501
23.0066
22.9541
22.6319
22.5129
22.7581
22.882
34.6124
21.3117
15.8754
26.6007
26.8374
27.0533
27.3544
27.7796
30.6698
30.0692
32.1751
30.0565
29.7483
29.6135
27.9181
28.7695
36.7138
36.028
35.2685
37.5331
37.4984
37.4673
37.8312
34.4282
35.1015
26.3143
35.6878
36.1953
36.9317
25.1909
25.5433
25.7446
26.2395
26.5393
25.1047
24.3826
24.4253
24.2753
24.575
24.6946
24.9834
25.0004
25.2641
28.2117
19.4386
21.9611
22.9783
19.1487
22.4962
25.3715
24.5107
24.7361
24.6058
25.0323
25.6678
24.4977
17.1511
18.552
17.3119
17.1935
20.4931
21.3628
24.684
24.6914
24.1528
24.4459
24.4827
24.2389
23.8928
24.1932
24.3954
24.3357
24.2966
24.3145
24.2012
22.4112
41.0435
11.7819
16.8696
17.3954
15.0105
17.1674
22.0822
21.9883
22.2106
22.3909
22.2806
21.9256
21.8134
21.5013
21.4039
21.1802
21.1142
21.0077
21.3449
21.2342
21.6181
20.8676
20.736
20.656
20.4647
21.7467
20.3771
20.4946
20.7694
19.4791
23.1206
23.0371
22.6092
22.5397
22.7202
22.8637
26.8347
18.6164
15.3571
26.7724
27.1888
27.3854
27.7156
28.2073
31.4877
30.898
32.3669
30.2839
30.8022
30.0924
29.5275
28.5635
37.1863
36.8458
37.3097
37.1948
37.1613
37.138
36.8782
35.2095
35.073
36.6451
26.6673
35.2725
34.5184
35.2202
25.4733
25.6811
26.04
26.5331
26.3977
26.8542
25.2743
24.6218
24.6875
24.3817
24.7378
24.9742
25.1329
25.1204
25.2556
38.0511
40.5942
21.2356
21.0886
22.1297
29.2872
39.3397
24.8346
26.3383
25.4501
24.7874
25.511
24.8056
25.731
25.2367
25.02
16.9331
17.184
16.9952
17.1497
27.1657
28.9276
25.3129
25.6019
24.7882
25.2097
24.9375
24.7273
24.2238
24.4266
24.6578
24.4789
24.6513
24.6416
24.6961
14.0654
26.3232
45.0876
13.6176
16.098
17.0659
17.3222
17.1705
16.914
22.1222
22.025
22.1827
22.3981
22.2821
21.9047
21.8452
21.498
21.4381
21.1094
21.0783
21.0131
21.3311
21.2207
21.605
20.848
20.727
20.5832
20.4317
21.716
20.2945
20.294
20.8732
19.9933
23.1914
23.0086
22.6507
22.5149
22.7506
22.9367
22.8208
24.7915
15.6569
17.8755
27.1185
27.4471
27.7147
28.1309
28.8178
32.2335
31.915
33.6721
31.0396
31.4614
31.0809
30.0582
29.0026
37.2989
37.408
37.0618
36.2617
35.8217
36.1642
35.3561
36.4081
34.8361
36.4936
36.9982
26.9195
35.4737
33.75
25.4841
25.6671
26.0042
26.3166
26.8565
26.7766
27.1069
24.8089
24.9357
24.6761
25.0442
25.1817
25.4561
25.4239
25.5058
58.7089
63.201
25.4796
23.1291
23.0229
39.9721
53.6865
37.8461
27.638
27.2365
24.1447
25.7843
23.0902
27.7616
26.0152
35.2316
23.5016
16.962
15.0628
26.5427
17.1323
39.3494
46.1437
25.9781
25.8146
25.3029
25.5885
25.4727
25.2769
24.7898
25.1764
24.9821
24.816
24.8237
24.8495
24.9589
11.9846
19.4431
42.4515
14.4697
16.0078
16.8752
17.1184
16.9351
16.7646
22.0877
22.0106
22.2197
22.4599
22.335
21.9517
21.8124
21.5461
21.4375
21.1041
20.971
21.3798
21.2717
21.1689
21.6565
20.7956
20.908
20.6778
20.5958
20.5117
20.3498
21.7528
20.2129
20.1293
20.1485
20.7674
20.2792
23.2018
23.0734
22.6228
22.5642
22.7235
22.9214
22.8526
24.3881
17.5872
13.7269
17.7963
27.3984
27.9308
28.1079
28.6816
29.2525
33.5322
32.8105
31.5514
32.353
31.289
30.969
29.74
37.1524
36.9407
37.2868
35.8948
34.2081
35.8465
35.4423
36.8585
35.7804
36.6777
37.2883
27.2783
47.4668
38.7966
25.7494
26.01
26.1916
26.5754
27.1136
27.0411
27.5111
25.1248
25.2644
24.9121
25.2507
25.5277
25.6475
25.6759
25.6725
25.7466
77.0412
84.0601
33.4022
23.8304
24.4701
29.7539
65.9222
82.5988
48.2085
28.2487
37.2535
23.6715
28.2944
37.6766
27.8258
27.2594
90.9316
39.5589
16.8339
15.9331
37.9453
22.3331
16.7188
52.2393
46.4852
27.2533
26.4932
25.861
26.2442
25.9434
25.4486
25.1307
25.2739
25.113
25.1584
25.2342
25.3418
12.32
18.6324
46.8199
26.1532
14.3355
16.4659
16.89
17.0442
16.8758
16.6329
22.1116
22.0535
22.209
22.4728
22.3259
21.9278
21.8335
21.5464
21.4952
21.0677
21.0045
21.3954
21.2558
21.1511
21.6482
20.815
20.8767
20.6982
20.579
20.452
20.3747
21.7442
20.2302
20.0007
20.0465
20.688
19.9831
23.2813
23.1624
23.0458
22.6589
22.5363
22.7695
22.9699
22.8399
20.3445
16.4338
14.8453
19.3853
27.8331
28.2536
28.0408
28.6069
29.2197
29.9596
34.4745
34.2781
32.6252
33.1582
32.4932
31.3885
31.4952
30.2157
37.0703
36.0453
37.2205
35.3212
36.0385
35.7767
35.3816
37.8003
37.3882
35.7275
36.8411
27.6278
46.9171
58.429
26.0157
26.246
26.4968
26.9229
27.4355
27.4242
27.7323
25.3116
25.6145
25.2236
25.6144
25.7464
25.9733
26.0394
26.0281
26.0463
82.8854
81.9366
33.5587
36.6331
36.8676
63.4682
79.9185
33.7448
32.4582
44.6134
27.7802
39.6917
48.7284
30.9478
28.1032
71.2158
146.342
16.8054
16.6605
15.3779
45.1698
25.5262
60.8551
59.3154
28.5185
27.5764
26.6944
26.5501
26.2983
26.7969
25.6718
25.4771
25.6023
25.3273
25.4114
25.5253
25.6581
11.6312
14.3538
38.7934
20.92
15.3562
16.3385
16.701
16.7068
16.5761
16.4239
22.1658
22.0553
22.2684
22.4455
22.3824
21.8822
21.9703
21.787
21.5988
21.5108
21.0926
20.9777
21.4649
21.3637
21.1904
21.3046
21.6963
20.7647
20.9125
20.6397
20.5135
20.4398
20.3069
20.1586
19.9024
20.0737
20.1041
20.8181
19.841
23.3488
23.2379
23.1018
22.6415
22.5731
22.7648
22.9728
22.9038
20.3899
14.8365
14.3052
19.1761
28.1714
28.6551
28.6014
28.9439
29.8806
30.3857
34.8333
34.9784
33.5169
34.5078
32.2363
33.3419
32.5341
31.1075
35.7485
35.5604
36.0322
36.5205
40.5805
42.2362
35.6003
50.7939
36.8508
36.3855
36.8377
36.8633
28.0864
66.875
84.1388
26.266
26.5153
26.7003
27.1302
27.5853
27.8092
28.1957
25.6657
25.5696
25.8655
25.8162
26.074
26.1895
26.3005
26.2813
26.2931
58.3493
75.1085
44.4271
45.0737
41.1855
52.7597
69.2558
93.1872
50.863
38.2321
58.3607
76.411
81.3983
91.4685
36.729
28.1354
112.467
188.48
151.357
16.6174
16.5737
15.5445
43.0069
57.8175
25.0168
36.1606
66.0583
55.9195
30.2354
29.1302
27.0917
26.8693
27.916
25.9295
25.8048
25.7106
25.8389
25.9786
26.1254
12.8314
14.653
36.6424
22.6196
15.1726
16.525
16.6203
16.404
16.6101
16.3895
22.1947
22.1293
22.0234
22.2606
22.4916
22.3655
21.892
21.9395
21.7926
21.6012
21.5673
21.0729
21.0162
21.4682
21.3963
21.1895
21.3009
21.6968
20.7875
20.9104
20.6638
20.5177
20.382
20.2999
20.1531
19.9208
20.005
19.777
20.3271
19.7284
23.3361
23.1942
23.0417
22.6949
22.5578
22.8458
22.9188
22.4283
18.386
15.5606
16.2693
19.7243
28.5897
29.0926
29.0488
29.5949
29.9999
31.1455
36.0465
36.0643
34.9157
35.1896
32.9343
34.4879
33.0461
31.5848
35.3611
35.4836
35.7498
42.9518
49.3518
49.4439
39.2539
65.8412
36.7058
35.7954
36.884
36.7688
28.5954
96.7095
114.589
108.013
26.6004
26.7183
26.9656
27.622
28.209
28.2911
27.8988
28.4419
28.5728
25.8926
26.2293
26.2015
26.3542
26.5573
26.5463
26.6575
26.5002
53.254
49.181
91.3408
57.5159
58.0286
61.5994
63.6326
108.338
80.4314
57.9778
89.3732
92.1522
108.614
56.2487
31.4162
175.833
202.821
208.511
15.4891
16.4445
20.4103
52.4807
60.1318
33.3991
39.052
66.3682
55.66
30.7906
29.4469
28.2166
26.5846
27.8081
28.875
28.4778
26.3324
26.0228
26.1814
26.3479
26.5576
12.3602
13.0602
72.9226
23.6091
17.6892
16.0311
16.2623
16.3662
16.2059
16.2848
16.2548
22.1842
22.1237
22.0659
22.307
22.4678
22.4049
21.8481
21.9777
21.7471
21.6545
21.6029
21.1231
20.973
21.4462
21.5332
21.3499
21.2486
20.8651
20.747
20.6451
20.5888
20.4598
20.3967
20.2816
20.1028
20.229
19.8491
20.0167
19.6335
20.2412
19.7526
23.439
23.3104
23.0923
22.6918
22.6175
22.837
23.0146
23.2192
20.451
15.4148
16.0388
19.921
29.0893
29.7114
29.5871
30.8768
31.5987
36.3993
36.4369
35.5894
36.1957
34.1957
35.5391
34.0631
32.504
38.1926
36.1989
35.566
45.2034
49.4579
63.8428
68.1667
45.3255
85.5957
35.7605
35.5842
36.83
35.9196
29.1372
126.367
156.954
149.204
26.7429
27.1739
27.3163
27.7026
28.6756
28.5251
28.7931
28.9614
26.3933
26.4499
26.5617
26.412
26.8278
26.7564
26.9566
26.8378
26.7628
29.275
36.3659
82.0173
50.6642
59.7629
62.9388
69.2905
41.7771
110.707
116.879
73.4331
80.2306
135.897
167.793
65.1876
35.9752
168.404
203.198
157.903
198.2
15.332
15.1902
21.7744
51.2281
65.9836
34.1744
45.099
60.6609
48.4223
55.4467
33.2195
31.2781
26.8377
28.6344
30.6774
29.9908
26.5313
26.7276
26.9591
27.2701
14.5435
13.1298
23.2146
22.5148
17.2315
16.2591
15.9883
16.2233
15.9101
15.9904
22.2468
22.1767
22.0448
22.3059
22.5145
22.4134
21.8582
21.9617
21.7564
21.6579
21.5813
21.1171
21.0062
21.4977
21.5475
21.3664
21.2475
20.8886
20.7799
20.7137
20.6124
20.4836
20.3406
20.1316
20.2419
19.8496
19.9977
19.5522
20.1625
19.6728
23.6209
23.5603
23.487
23.2303
22.7583
22.6309
22.9282
23.082
25.6144
20.0427
17.2408
16.7127
18.9631
20.1913
29.609
30.2418
30.3091
30.8555
31.5541
32.6392
36.8689
36.9045
36.4138
36.5165
34.7845
36.2278
34.7513
34.6817
33.0494
37.7609
43.11
37.4367
59.2807
63.7613
84.6733
92.1807
57.6665
115.717
100.9
35.5757
36.0156
36.0922
35.7582
29.8649
190.424
197.629
27.1318
27.5268
28.2078
29.2648
28.8332
28.6521
29.2748
29.6565
26.7482
26.658
26.8865
27.2345
26.7506
27.04
27.2957
27.49
27.3233
27.1701
22.8503
28.8109
50.2609
101.007
44.5668
54.2088
61.4641
65.2882
46.6792
132.533
118.221
140.747
93.9576
120.17
163.629
102.088
39.8566
169.364
193.737
161.19
130.702
220.498
17.8693
15.7601
28.5469
57.3433
60.8697
39.1688
48.2321
51.5675
35.7478
41.454
33.5442
31.7708
27.6667
29.8603
28.3735
31.2658
30.6955
26.9551
27.1994
27.5252
27.9265
14.4699
13.2814
19.3652
18.3351
14.7527
16.1899
15.9151
15.9279
15.914
15.6114
15.3425
22.2439
22.1901
22.0899
22.3608
22.4729
22.5844
21.9165
21.8139
22.015
21.709
21.631
21.0768
21.1899
20.9606
21.4939
21.5962
21.3058
21.4442
20.8542
20.7729
20.6851
20.5644
20.4377
20.3599
20.1303
20.2104
20.3169
19.8106
19.9269
20.0654
19.595
19.4037
19.6094
19.674
23.8778
23.8279
23.7043
23.331
22.7802
22.7216
23.0422
22.871
23.2496
23.7472
16.3497
16.1003
19.3452
19.851
30.3541
30.5179
30.8147
31.3729
32.3652
33.0233
36.8426
36.7967
36.5777
36.8773
35.9464
36.6665
36.3312
35.6264
35.5452
34.2654
43.5257
54.7004
43.3367
67.9465
80.6305
115.928
125.477
71.6838
149.299
139.065
35.8619
37.8875
35.9476
36.1337
30.0419
30.523
223.859
191.335
254.718
27.4652
28.1078
28.3197
29.2
29.4665
29.2153
29.8623
27.3249
27.2591
27.3993
27.0795
27.6104
27.6503
27.498
27.5883
28.0091
27.7311
27.5309
19.5973
21.1985
25.095
74.6883
27.6751
54.7311
55.6162
30.865
132.729
145.235
164.615
117.876
121.847
230.541
102.444
43.1733
142.866
138.339
107.064
214.982
21.0455
19.4741
30.118
55.4841
61.4327
53.2277
36.0392
45.3482
40.6989
23.4601
35.3674
34.3853
30.5624
29.6101
33.1772
32.3292
27.6532
27.9393
28.3605
28.9619
14.9386
13.2293
17.3719
17.5711
14.1178
16.0853
16.1029
15.6231
15.544
15.8824
15.9855
22.3013
22.2844
22.1596
22.072
22.3916
22.5204
22.6194
21.9391
21.8446
21.9952
21.7397
21.6911
21.1112
21.1859
20.978
21.5849
21.492
21.6381
21.3305
21.4764
20.8906
20.8341
20.7423
20.614
20.487
20.2132
20.25
20.3628
20.2054
19.942
20.1202
19.5052
19.3674
19.4136
19.6667
24.1187
24.0172
23.7025
23.9881
23.5488
22.7524
23.2162
22.9339
23.4357
23.3515
18.3426
17.4654
19.6816
19.788
31.1256
31.502
32.1788
32.5874
34.0113
36.2431
36.3039
36.7465
36.7044
36.1806
36.7865
36.672
36.13
34.6619
47.0121
52.5756
69.0436
46.4768
86.5882
99.8159
145.653
169.117
94.0991
178.424
37.5698
37.7591
42.9504
35.7512
36.0855
37.268
30.9243
31.2962
333.222
246.538
346.862
27.9534
28.4648
28.9068
29.7323
30.2663
29.7373
29.3165
30.4234
27.9051
27.5982
28.0626
27.6222
28.3634
28.0592
27.8584
28.0163
28.61
27.8361
28.0799
27.9801
19.2955
20.7312
25.9155
36.7134
88.8349
19.3646
30.7018
31.142
19.1897
132.078
146.242
155.496
148.508
135.942
210.738
57.7878
180.483
38.5693
140.697
144.238
108.349
99.0621
178.967
27.7657
24.9441
57.786
55.7796
42.1337
37.8572
49.2377
28.5488
18.1436
35.6111
31.8488
29.9195
33.6574
34.932
33.0089
28.236
28.6335
29.2847
14.7454
13.7662
18.8972
15.6072
13.254
15.9562
15.5353
15.1311
15.0413
15.6533
21.9108
22.3678
22.3298
22.2843
22.2108
22.1279
22.4811
22.5967
22.7041
21.9109
21.8162
22.0492
21.726
21.7424
21.108
21.2489
20.9479
21.0523
21.5581
21.631
21.7182
21.4295
21.3184
21.5527
20.8709
20.7786
20.8374
20.727
20.5811
20.4546
20.2678
20.1695
20.3381
20.0009
20.4156
20.4291
19.6399
19.2356
19.2251
19.718
24.3564
24.7276
24.2988
24.0375
24.2968
23.6985
22.8541
23.2337
23.4206
23.1026
23.6679
24.5543
16.8834
17.3198
19.6651
19.3295
31.7362
32.1121
32.3812
33.6314
34.3196
36.0963
36.0228
36.1467
36.5355
36.6653
36.7812
36.7107
36.6334
36.1919
35.6001
57.0082
62.9596
89.3609
58.1421
103.435
128.086
204.061
226.404
119.58
235.073
42.3976
41.7865
45.6473
35.7537
38.4678
41.5318
31.5127
30.993
32.0427
402.528
419.607
340.223
594.285
28.4337
28.9159
30.4882
30.621
30.682
30.4481
29.9576
28.6369
28.3594
28.6168
28.1163
28.8252
28.7296
28.8348
28.1378
28.5802
29.1125
28.4512
28.6523
28.5173
17.734
19.3233
16.7669
15.0532
32.0327
22.9501
16.4637
19.0785
22.8284
18.6282
116.174
126.784
120.64
189.484
66.9838
164.82
41.0276
130.479
106.043
77.6207
124.887
74.8532
32.8526
35.9995
56.0304
58.6119
46.022
29.0902
43.6607
38.3135
47.4306
17.5728
15.5947
38.4075
32.4011
31.3923
35.665
37.6784
34.6626
29.1474
29.6236
30.4573
13.6647
21.1234
17.6425
13.3819
12.8681
15.8689
15.6465
15.5506
15.234
14.2414
15.7198
26.2929
22.4225
22.3965
22.3559
22.2008
22.12
22.5163
22.6733
22.7551
21.9565
21.8537
22.0296
21.7939
21.7988
21.1952
21.2621
20.9888
21.0565
21.592
21.683
21.7454
21.4428
21.3777
21.6058
20.9731
20.875
20.8971
20.8023
20.6502
20.5404
20.3683
20.2072
20.4182
20.6585
19.5589
20.9009
19.6044
19.5361
19.4379
19.0354
20.4922
24.6644
24.6532
23.9814
24.3117
24.6308
22.9126
23.4615
23.6822
23.1878
23.8893
23.5493
16.7149
18.7461
18.6038
19.4232
19.1887
33.1814
33.2198
33.9372
35.2243
35.775
35.6971
35.9924
36.0948
36.2839
36.4579
36.5477
36.3923
35.8024
66.6035
79.392
91.0571
114.689
61.7377
68.1078
139.986
157.005
238.831
240.835
316.593
155.879
329.166
48.4173
52.8871
36.5864
41.4369
38.5175
47.0771
32.4084
31.7845
32.9166
580.871
413.159
723.206
28.8775
29.4864
31.1286
31.3192
31.4683
31.1281
30.5023
30.0475
28.809
29.2118
29.2627
28.7706
29.7508
29.4564
29.312
28.7488
29.0485
29.7967
28.9794
28.9941
28.9551
28.9282
20.1811
19.2104
14.4913
19.7245
35.1262
17.1612
17.4348
20.9982
17.1246
18.4735
18.8064
52.4723
75.3411
96.2728
85.1577
180.886
102.151
42.7152
212.963
156.638
69.0927
57.3631
135.317
87.5898
37.9238
41.8925
54.192
52.1253
39.2204
21.5655
46.2623
44.0528
45.9289
16.6771
17.3724
39.9457
34.0058
31.7145
37.8551
36.1266
35.164
29.5275
29.8984
30.6591
14.022
26.9721
15.8725
13.0838
13.4802
15.7804
15.0894
22.0278
14.8443
14.0787
15.5636
37.6271
22.491
22.4512
22.3606
22.4602
22.2856
22.1848
22.6203
22.6998
22.8495
21.9269
21.8472
22.1035
21.8643
21.187
21.3482
21.0132
21.119
21.6795
21.7253
21.812
21.5202
21.4074
21.5952
21.6976
21.046
20.9638
21.0002
20.7559
20.9421
20.6761
20.6576
20.5189
20.4773
20.5012
20.575
20.0862
18.5771
19.1331
19.4236
19.1619
25.1668
25.6544
25.101
24.108
24.6542
24.9141
23.0862
23.5233
23.6711
23.9235
23.4023
26.052
16.5875
17.2255
18.0015
19.288
18.9492
33.7021
33.5605
34.8944
35.4824
36.0959
35.9256
36.009
35.9612
36.2358
36.4101
36.491
36.5279
36.4418
36.2154
86.883
92.8234
118.865
147.092
82.7432
91.8301
167.888
210.668
319.044
325.38
395.109
192.737
58.821
62.6722
38.0235
49.3478
43.6395
55.3203
33.0774
32.7246
32.5163
33.7064
569.451
710.623
846.245
29.4234
31.8265
31.894
31.7032
31.8832
31.2705
30.7313
29.8546
29.9968
29.3025
29.834
30.2369
30.0023
30.1548
29.8793
29.6132
30.037
30.2527
29.6018
29.5959
29.421
29.5311
20.0814
17.2917
18.636
19.3027
18.9233
18.9695