/*--------------------------------*- C++ -*----------------------------------*\
| =========                 |                                                 |
| \\      /  F ield         | OpenFOAM: The Open Source CFD Toolbox           |
|  \\    /   O peration     | Version:  v2012                                 |
|   \\  /    A nd           | Website:  www.openfoam.com                      |
|    \\/     M anipulation  |                                                 |
\*---------------------------------------------------------------------------*/
FoamFile
{
    version     2.0;
    format      ascii;
    class       volScalarField;
    location    "1.6";
    object      p;
}
// * * * * * * * * * * * * * * * * * * * * * * * * * * * * * * * * * * * * * //

dimensions      [1 -1 -2 0 0 0 0];


internalField   nonuniform List<scalar> 
13611
(
48011.3
4896.18
63014.5
13218
94578.8
106997
2540.92
61781.9
48715.2
2439.34
150604
43122.4
2299.99
83845.5
102177
2358.48
144355
151681
58566.1
4311.69
78846.6
123277
129135
130563
147762
118654
55095.4
16101.8
86901.3
94297.7
130751
135009
142234
155083
88234.3
59959.7
34096.3
83624.5
104910
127990
137132
144858
152437
102572
69748.2
54718.7
86571.7
76717.2
117951
93014.9
129279
133980
140942
148910
133767
91079
66847.8
73891.6
83635.5
80233.4
105779
95980
120759
132084
83014.1
136951
134168
138297
123687
100593
74501.5
80621.9
85253.5
79385.7
104611
90016.1
119524
110416
123082
127767
126242
127544
111831
123005
95401.6
78674.6
87425.6
84055.2
81591.2
95535.9
88564.8
110819
106323
117964
82795.9
121085
119753
120262
110123
115123
96806.9
81485.3
88119.2
83997.3
82638.7
90018.4
94258
107123
99550.2
110139
81403.6
77907.9
114412
113757
113989
105242
110057
100847
94139.1
83505.5
85892.7
90919.9
80276.5
85167.9
83485.4
84807.1
88825.2
101545
97954.9
108273
76534.2
109641
109711
109862
105045
97524.5
94795.6
84430.6
86682.5
90179.7
84217
84419
84365.6
82708.4
87828.8
84153.7
98087.7
93399.1
103850
78240.8
73303.9
104439
106073
105810
101393
96932.1
93087.2
85039.1
85948.8
87416.1
91263.8
88784.7
85111.4
86250.7
84462.9
89719.8
83798
80510.6
97169.2
93560.2
102442
99209.8
75889.8
71584.3
101486
102578
102072
98400
100287
94241.9
92942.9
85125.3
86064.2
87080
90220
88423.7
86745.2
84882.5
86158.9
80787.6
83127.8
76837.5
92578
90477.8
97773.8
95997.1
72575.3
68865.7
97669.3
100140
95842.7
96800.3
93778.8
91243.8
85257.2
86053.5
86492.3
87418
88963.4
90347
86530.3
86591.9
85105.9
86620.9
77921.2
80060.8
74104.8
90885
90142.3
95788.8
92410.8
70448.2
67027.9
95669.1
97078.1
95253.3
94985.1
92032.1
89959.9
85832.1
86040.3
86181.4
86905.3
88537.3
89241.4
86307
86163.2
85761.6
84548.9
77757.9
74811.1
78778.5
71074.7
87525.7
86725.4
92113.6
90246.4
67604.2
92792.6
95083.9
92895.3
92524.5
90592.9
91659.6
89719.6
88899.9
85871.7
86022.7
86139.2
86157.8
86394.3
86945.6
87616
86746.6
86058.1
85362.4
81561.3
74909.5
73000
75638.2
79342.9
68540.5
85696.9
86003.5
91066.1
90067.3
87212.3
65948.8
90966
91930.9
91878.9
90754.1
89190.6
89888.7
88366.1
87809.4
86111.5
86159.3
85956.7
85955.2
85819.5
85818
86179.4
87177.3
86281.1
86100.1
86014.1
80650.4
74024.6
70504.1
74452.8
76372.5
68383
66332.2
82679.5
83180.9
88448.9
87225.7
85741
63844.7
62552.7
88559.9
90210.5
88419.6
88073.5
88749.7
89393.5
87488.8
87209
86423.2
86231.8
85946.6
85779.4
85526.9
85657
85789.7
86176.4
87143.2
86488.6
78012.9
71211.9
69511.8
72197
75902.5
66046
64415.3
81639.1
81919.4
86455.3
85951.3
83313.1
62985.7
60350.6
86549.5
88266.7
86802.2
86739.2
87047
87079.5
86296.7
86172.2
86407.4
86065.1
86781
85704.3
85450.7
85017.7
85070.6
84947.9
85664.1
87139.2
83741.1
87975.8
77269.7
70482
67257.5
70931.4
73474.2
63920.4
65887.4
63310.3
78933.8
79457.9
84145.7
83377.5
82179.1
61154.5
59750.8
84125.8
86264
86458.1
85060.8
85905.9
86177.2
86199.3
85995
85644.6
87198.5
86157.9
86821.1
85477.4
85100.1
84590.1
84658.9
84351.6
84729.1
87410.2
86993.5
88058.4
75021.6
68318.6
66007.2
71348.1
68512.8
73356.7
62467
63816
61004
77983.9
78492.8
82349.5
79858.9
57892.2
81847.7
84200.6
84763.7
84090.9
84726.4
84764.4
84526.6
84649.6
84663.3
87212.7
86412.1
85711.3
87148.8
86737.1
85041.2
84821.2
84187.5
83998
83750.2
84283.9
84180.9
87575.5
88587.3
88613.3
87899.7
87527.3
104524
74076.4
66385.7
63722.9
69286.3
66880.1
71318.2
60646.1
59352.9
75436.2
76299.7
80271.8
78925.8
56417.3
57184.2
82328.2
79858.2
83883.8
82210.6
84123.2
84144.7
83973.9
83515.2
83772.4
87733.9
86340.7
85575.4
87413.5
87121.1
84816.4
84297.2
83766.1
84051.6
83599.8
83141.9
83388.8
83179.9
89016.1
88702.4
88260.8
91884.7
85485.6
79457.3
99609.2
105534
71793.1
64390.1
62111.3
67215.4
69434.1
64688.9
59274.3
59631.8
57677
74686.4
75551.7
79340.5
76829.8
55502.7
81226.8
78258.2
82675.8
81103
82952.2
83034.4
82644.6
82061.9
82683.8
87957.2
86820.9
85923.7
85147.3
87860.9
87206.7
84292.7
84089.3
83261.9
83426.3
82868.2
82419.8
82860.7
82498.2
88520.5
89049.5
88480.6
88418.7
93875
81797.3
87687.3
79633.2
97582.4
103737
70371.3
62332.4
60163.6
65293.5
67512.8
63241.7
57309.2
57486.4
55909.4
72537.5
73710.7
77086
75906.4
54662.2
54714.6
79490.8
76598.1
77495.4
81326.2
79454.6
82425.8
82331.5
81669.4
81295.7
81654.4
86747.2
85862.2
84991.6
88172.1
87592.3
84011.5
83579.3
83065.9
82801.9
83227.2
82273.6
81805.6
81975.5
81470.6
88877.1
89081.5
89070.7
88717.3
91634.4
80510.2
85365.2
75086.1
76640.9
71574.8
99575.5
105069
70747.6
68348.8
60662.5
58493.3
63524.2
65452.6
67322.6
61403.2
55641.3
56297
72331.6
72834.2
73781.5
52413.2
53178.2
53315.4
77935.6
75063.3
75487.8
79983.4
78190.2
81417.2
81252.8
80391.2
79729.9
80242.4
87399.8
86478.7
86124.9
85441.2
84484.2
88507.4
88031.9
84051
83481.2
82454.9
82160.3
82653.9
81561.5
81029.2
81297.7
80562.4
89399.5
89634
88875.9
89377.1
88741.8
94002.1
81862.7
77302.7
86168.2
72772.3
75590.4
69315.2
97801.8
103431
68818.2
67026.9
58834.1
60412.8
56787.3
61813.3
63614.8
65609.7
60505.6
53826.3
54546.5
70704.9
71024.3
72893.9
52622.2
52257.5
76324.2
73587.8
74191.1
78445.9
76642.5
80537
80362.9
79347.6
79040.5
79031.1
87572.1
86637.1
85860.8
85425.5
84528.6
88778.4
88395.4
83507.3
83017.5
82172.2
81556
82520.3
80932.9
80368.2
80461.8
79695.2
89771.2
89283.5
89346.7
89658.7
89284.2
93267.9
79606.4
76794.8
82896.3
89975.5
71610.4
72893.7
68143.7
99782.5
105136
68983.4
67130.7
65576.1
57503.1
58423.5
55229.2
61156.9
64020.4
61806.3
58742.8
52262.8
53398.9
53794.3
69693.5
71038.1
50480.6
51157.6
50743.5
74557.5
72266
72507.6
77264.6
75321.6
79367.6
79339.5
78326.3
77653.2
77563.4
88082.3
87135.7
86125.5
85082.7
84090.5
89262.5
88462
82916.9
83561.7
81497.1
80910.5
81929.1
80212.6
79602.5
79782.6
78816.4
89782.4
89650
89817
89932.1
89658.3
97003.4
79745.5
74511
82225.1
90724.1
69265.4
71459.9
64670.8
65889
104177
67612.2
65357.9
64205.1
55870.3
57633.8
54862.2
59161.9
62973.4
60040.1
58013.3
50576.1
51440.2
52176.4
69706.7
68029.2
70795.4
49130.9
49470
73412
71128.2
75737.2
73863.9
78336.2
78313.7
77301.7
76632.7
76653.7
88194.2
87214.6
85951.2
85263.2
84059.2
89454.1
89056.2
82347.1
83117.6
81382.2
80887.7
80176.3
81859.7
79535.9
78892
79002.7
78423.2
78280.8
89911.9
89943.3
90264.6
90268
90020
97661
76918.9
72067
74447.1
83892.4
78945.3
94849.2
87638.9
68012.2
68900.3
62409.7
64805.4
105573
100742
65848.5
64826.1
63894.2
54746
55645.5
52894.9
58460
61510.4
60096.1
56192
50200.2
49274.9
50911.4
51596.1
68062.2
66548.3
69379.2
48157.4
48275.3
71982.1
71089.4
69470.9
74765.4
72756.6
77177.3
77217.9
76249.9
75288.8
75386
88714.7
87789.5
86790.1
86208.3
84896.9
84354.6
83496.8
90011.9
89146.8
82173.6
82661.7
80721.9
80191.9
79368.4
81279.6
78755.3
78159.7
77601
77268.4
90347.4
90349.6
90571.8
90456.6
90466.1
90312.3
90212.2
76847.7
69990.7
72176.8
81653.6
77842.7
95744.2
87979.2
65801.5
67347
61686.6
62858.7
104350
101132
65131.6
62839.2
62171.5
52819.2
54886.1
56696.9
60991.6
58537.9
55514.3
48404.4
47954.9
49161.3
49889.5
67951.7
66532.3
46906.8
46933.1
71277.2
69627
68295.7
73465.9
72682
71538.6
76220.8
76148.3
75221
74586.6
88884
87950.1
87050.5
85826.5
85159.1
83958.2
83433.8
90314.7
89656.2
82346.9
81449.8
82447
80672.5
80157.6
79438.2
78567.2
78123.4
77414.5
77105.5
76405.5
90464.7
90067
90674.1
90903.8
90898.2
90793.5
90751
74653.6
70159.1
67816.6
71496.7
78801.7
82601.7
75326.6
93667.1
99129.1
90549.9
85248.6
64655.6
65296.3
58354.1
59767.8
61762.7
105558
63469.1
62145.5
61592.7
51327.7
53050.9
55885.5
59308
56800.2
53891.3
47831.2
47448.2
46829.8
48724.2
48955.4
66488
65265
45953
45899
69922.8
68502.2
66862
72875.4
71390.2
70449
75125.4
75110.2
74132.3
73442.5
88517.1
89484.5
87594
86715.1
86140.9
84664.9
84050.2
83025
90797.3
90148.4
81991
81115.6
82540.3
80028.9
79467.7
78834.3
77761.4
77382.9
76877.5
76199.9
75663.8
90854
90548.4
91025.6
91205.5
91133
91198.6
91011
72434.8
68232.8
65968.2
68916.8
77069.1
81346.5
73753.1
94561.2
99759.5
89864.5
85236.5
62567
63588.5
58050.8
59828.5
105155
63026.3
60469.7
59665.3
51493.6
49389.6
52761.1
53777.4
58519.2
55674
52995.9
46124.8
46035.2
45760.8
47004.2
47024.9
65327.3
66063.5
63946.4
45056.1
44855.6
69387.3
67237.6
66127.8
71635.8
70379.1
74363.8
74715.2
74161.9
73041.6
72739.9
88606.6
89848.2
87929.3
86981.7
85963.1
84813.1
83485.6
82990
91324.9
90555.3
81504.1
80484.1
82122.7
79339.6
79969.4
77997.7
77205.2
77392.7
76112.2
75762.6
75666.2
74696.1
90948.1
90019.3
91468.2
91487.2
91571.1
91686.6
91499.1
70803.7
66236.5
63779.3
67844.8
77437.6
74492.3
79311.1
83013.9
71432.6
96756
92412.6
102477
87396.2
61789.2
56048
58279
107396
61483.5
59669.7
59195.6
49711.9
47861
51192.1
52807.9
56640.1
53813.7
51294.4
45697.6
44916.2
45049.1
44826
45591.4
63981.1
64408.2
63152.2
43711.7
44340.6
44508.7
44228.2
68236.9
67069
64783.3
70949.5
69228.1
73350.5
73427.5
73111.2
72196.5
71506.5
89080.7
89775.8
90435.9
87649.4
86534.3
85441.8
84301.9
83361.6
82426.2
91884.1
91250.2
81269.9
80344.6
81574.3
78574.5
79254.9
77753.6
77396.1
76469.4
76496.6
75620.2
74999.3
74877.7
74060
91392.1
91346.1
91698.2
91828
91611.4
91804
91759.4
91936.4
68753
64380.3
62069.1
65706.4
75368.5
73173.4
78978.5
82475.2
69932.7
97711.6
92717
101118
86655.8
60030.6
53740.8
56223.3
54068.2
58383.9
105472
61811
60113.7
57972.3
57708.4
49772.3
48078
46006.3
50873.1
55623.4
52800.4
50106.3
44175.4
43382.1
43887.9
43956.6
43807.2
63468.5
63839.1
43153.4
43578.9
43639.3
68112.3
65796.3
64103.3
69735.4
68987.6
72801.2
72825.1
72257.6
71224.6
70846.4
89076.8
90319.2
90795.7
87937
86647.9
85540.8
84427.4
83719.9
82609
82202.5
92340.1
91624.8
80702.1
79829
81240.3
78570.6
79337.5
76746.8
76359.7
75890.1
75876.6
74656
74400.7
74214.1
73176.9
91566.6
92396.5
92134.2
92164.7
91732.5
92128.5
92313
92390.9
67185.8
64300.5
62413.3
59975.6
65308.3
73666.5
75610.4
71240.3
77311.3
80510.4
84003.9
70007.7
67712.3
96441.6
91113.1
94649.7
102635
88322.8
59231.3
54496.2
52288.2
56619
106286
61018.1
58794.5
56891.9
56239.5
48219.9
46571.9
44817.4
50214.2
49865.6
53658.9
51143
48461.9
43078.7
43457.1
42343.7
42730.6
43166.5
42324.1
61897.2
62428
43246.3
43390.5
66979.3
65875.6
64546.1
62691.8
69216.4
67778.5
71872.3
71854.5
71324.3
70641.8
69764.9
89718.5
88550.9
90763.1
90279.6
91334.1
87375
86135.7
84942.9
83876.7
83492.2
82489
81539.3
92546.6
92604.2
92218
80413.7
79897.4
80624.2
77830.4
78923.2
75862.9
76690.6
75532.3
75046.2
74106.2
73519.9
73523.8
72824.5
91631.5
91828.9
92391.2
92567.5
92065.5
92390.2
92625
62225.8
60883
58583.7
63455.2
72043
74418.7
70672.5
77069.9
80016.4
83020.2
68026.1
66637.5
97887.7
92816.4
94672.8
101167
86861.9
57093.7
49981.4
54800.3
52553.7
50312.9
109134
104515
59404
57236.7
55391.7
54991.8
46712.8
45200.7
43200
48590.4
48256
52869.9
50061.9
47430.3
41657.9
41783.8
40720.2
42058.6
42456.8
42266.3
40842.8
61395.2
61999.9
42512.7
43044.5
43028.8
66871.1
64869.2
63477.8
61908.6
68165
67525.8
71366
71487.1
71103.6
70834.2
69663.2
69161.8
89649.2
88931.1
91258.5
91033
91662
87272.6
86315.9
84794.6
83666.9
82966.8
81862.3
81123.8
92839.8
93095.8
92568.4
92328.8
79531.8
80317.8
78331.5
79079.5
74239.4
75730.7
74972.5
75293
73395
72860.1
72660.6
72057.7
91477.6
93490.2
92790.8
92993.7
92255.1
92572.2
93080.8
61782
60835.9
59141.5
56606.9
63228.9
71624.9
75481.6
72790.8
69211
78276.9
81034.2
84195.4
67815.8
64815.9
97422.5
92097.4
96409
102224
87686
55875.4
47940.1
53142.6
51008.6
48688.3
109683
103882
58623
56034.2
54247.9
53597.3
45123.6
43910.4
42570.9
47350.4
48521.1
47263.8
51488.8
50285.2
45959.2
40319
40621.6
39971.8
41009.1
42021.6
40169.1
39466.9
60152.6
60679.3
42917.1
42754.2
65887.4
64997.2
63726.2
62238.6
60606.4
67661.3
66499.2
70562.8
71439.7
70637.5
70286.8
69599.3
69081.7
68106.8
90276.2
88734.7
91551.8
90904.6
92061.5
87611
85973.3
85225.8
84005.4
83065.7
81918
81284.2
80531.3
93189.5
93605
93242.3
92836.5
79447.5
79767.8
78412.8
78867
74504.9
76227.8
75333
74982.2
71446
71891.5
72406.5
71909
92259.2
94743.7
92525.9
93017
92886.7
93211.4
92494.9
93361.8
59839.5
59081.7
58046.6
55378.3
61545.2
69727.7
75091.5
72142.6
68665.2
77986
79758
83205.8
66402.2
64222.9
99845.3
89632.5
93180.4
97050.1
86402.8
53763.2
43823.8
46316.2
51288.8
49121.7
46746.6
106193
102897
59146.9
57197.4
56127.9
54505.6
52733.6
52520.8
43732.4
44821.2
41189.9
45871
47114.4
45685.4
51329.2
49177.4
38870.3
39193.9
38559
40944.5
42196.3
39747.4
38401.4
59882.3
43197.8
43433.4
43045.7
65770.2
64150.4
62918.4
61309.5
59738.9
66603.6
70207.6
70180
70680.1
69431
69007
67952.5
67449.6
90026.8
88370
89372.7
92254.5
91483.3
92696.4
87357
86289.2
84944.8
83889.9
82563.8
81273.7
80701.2
80066.8
93636.2
93930.4
93833.5
93336
93287.9
78937.3
79556.4
78669.3
78472.6
78797.2
74186.2
76106
73050.3
65570.2
70956.2
71580.1
71319
71022
92510.1
94623.8
92910.9
93434.8
93145.4
93599.3
92826.6
93750.4
58522.3
59124.2
56269.8
53580
59941.5
61481.2
69208.2
73417.7
76447.9
70467.6
66987.5
79817.3
81304.6
84560.3
64973.2
62551.8
100507
89392
91166.8
95460.9
99288.4
87700.7
52696.1
42014.1
44550.3
49856.2
47661
45142.1
110430
103403
58114.3
57005
54811.8
53375.7
51592.8
42153.9
43044.6
40932.4
44522
45826
46883.3
44450.9
50064
47864.5
37340.4
38281.1
38710.6
37065.1
40090.4
41595.4
38455.4
37131.8
58573.6
44255.4
43015.7
64700.2
63219.7
61766.3
60106.8
58492.2
66005.9
69390.9
69455.9
70453.3
68962.3
68012.1
67419.9
66429.4
90584.8
88514.1
89233.6
92447.1
92065.8
91232.6
88368.7
86851.9
85343
84282.4
83231.9
82593.9
80707
81454.3
80075.9
93941.8
94579.3
94242.1
93674.6
93495.7
78486
78983.1
78773
82717.4
78343.8
73337
76318.3
73245.2
65631.8
69849.4
69649.7
70741.8
92842.3
92366.5
93314.1
93458
93415.3
93694.8
93255.3
94001.2
56658.3
57132.7
55431
52271.3
58967.3
59955
67678.5
73247.1
76011.2
69808.3
65952.1
78121.4
80509.6
84019
63678.8
62281
90818
95424
99945.3
87280.5
50758.9
41538.3
43025.9
48120.1
49607.4
45637.6
43167.6
112564
106383
101785
55992.9
54894.4
53606.1
52010.3
50098.5
41736
42972.9
39331.7
43329.9
44380
45241.7
49458.7
47152
36531.7
36362.1
37136.6
37547.8
35393.1
40477.9
41966.1
37015.6
36303.8
57893.9
44447.6
44754.5
43747.4
64396.5
62463.8
61434.6
59253.7
57718
65080.1
69021.3
69119.5
69618.5
68131.1
67605.8
66374.4
65816.5
89992.9
89409.4
92834.8
92687.1
91944.8
88451.8
87153.5
85363.3
83998
82851
81929.9
79991.9
80871.8
79504.9
94372.5
94494.2
94621.3
94523.9
94185.3
94102
77627.2
78868.6
79211.6
88806.4
77574.4
93246.3
74169.3
70630.8
53468.2
69459.3
69042.6
69104
69857.1
93347.2
93128.1
93424.3
93816.9
94118.3
93429.9
94395.8
56010.9
56408.4
53784
50466.9
52422.3
57408.6
59536.8
66313.7
67250.9
72078.9
74477.9
76685.3
68088.2
70642.7
64037.3
78625.4
80952.3
82407.1
85500.6
60840.1
88731.6
92701.7
97010.7
98985.1
38826.1
39755.2
46957.6
47804.2
44448.8
41679.5
109030
104907
102585
55779.8
53905
52579
51030
49204.7
40178.3
41654.7
38980.4
43279.2
41992.6
44054.2
45505.6
47858.3
34356.1
34650.8
35842.3
37903
33206.3
39609
40938.3
36246.5
36091.8
34615.4
56500.6
46554.7
46388.6
43255.4
63444.9
62257.2
60682.2
58148.4
59154.6
56490.6
64616.3
68260.1
68386.2
69338.4
67798.3
66748
66097.3
65755.7
64922.3
90592.7
89842.3
93472.8
93178
92481.5
91662.5
88411.7
86732.9
84597.6
86025.7
83190.5
84258.9
82263.3
80194.8
79409.2
80857.3
94792.5
95307
95110.9
94973.1
94842.2
94879.3
76747.4
78127.9
76306.7
77615.2
76242.4
92866.2
69686.4
72363.2
78870.3
54123.9
68708.9
68191.5
68200.2
93819.2
93187.8
93697.2
93346.9
93683.2
94053.2
94255.5
94369.3
94642.3
54118.1
54779.9
53135.6
48919.4
50930.2
56666
57779.5
65060.7
65693.4
72804.5
74137.8
75349.2
67318.7
69837.1
62879.3
77751.7
79609.6
82256.9
85083.2
60365.4
87954.9
92253.2
96779.2
99841.1
37193.9
38949
45323.9
46970.4
42642.9
39870.7
41585.3
110961
105187
101289
54386.7
52794.3
51366.9
49728.1
47801.5
39448.2
40012.4
37646.2
41898
41059.6
42470.7
44710.9
47090.9
33556.7
32881.4
33776.9
34329.8
36003.9
30974
41275
34675.1
36472.5
34440.1
33785.7
55858
48790.9
44610.3
63661.9
62609.8
61150.6
59715.4
57409.5
57971.1
55944
67961.9
67986.5
68657.6
67008.1
66495.1
65302
64803.1
64327
90646.7
90105.3
94155.5
93589.6
93100.6
92337.4
88388.1
87232.5
84907.5
85877.5
83093.4
83198.2
82004.9
79698
78819.7
79902.7
81202.6
95204.9
95469.3
95830.9
95238.3
95215.4
95116.8
77241.2
75784.5
75324.9
77791.3
75893.9
98337.3
69454.7
89515.7
61082.3
68449
68229.1
67350.1
71720.7
93659.8
93572.9
94102.4
93499.5
93873.8
94373.9
94621.6
94703.4
95028.5
53621.7
53995.2
51460.4
47361.4
49241.8
54898.6
57432.8
63526.2
64897.8
72163.2
75186.8
65687.4
68231.3
70638.4
61280
78256.2
76248.7
79722.7
80915.4
83462.7
86094.4
58697.1
88624.6
93375
90232.5
98672.6
95205.3
35695.6
36925.5
44394
45198.1
41809.4
38871.2
39831.2
113732
107258
105452
102272
53856.6
51758.3
50526.8
48836.4
47134.6
37779.5
38913.1
41372.9
39680.2
42044.6
43277.1
45651.1
31207
30344.4
31652.9
31713
35162.9
27963.2
39692
33778.4
35313
33983.9
32195.3
54623.3
53365.9
44057.2
63097.4
61851.9
60694.3
59198
56423.4
57524.1
54844.6
67237.6
67331.2
68140.9
66745.5
65706.5
65186.7
64598.7
64320.7
63462.7
90291.8
89162.1
94863.1
93913.6
94046.7
92752.2
90880.8
88815.3
87187.5
84265.1
85884.5
82522.3
82864.2
79361.5
79124
78663
79801.7
81529.5
95549.5
95935.3
95933
96167
95729.1
95741.8
95224.5
76911.6
75330.6
71910.3
41840.9
74437.9
92045.8
56853.3
83061.2
67944.2
67930.1
68397.9
69187.7
93517.2
93777.8
97376.8
92833.7
93768.3
94131
94521
94876.2
94938.7
95381
52000.9
52263.4
50447.9
45776.2
48079.8
54237.6
56166.2
62565.6
63283.5
72511.8
73687.8
64791.7
67795.9
70217.8
60429.7
77057.2
75856
78577.2
80399.2
83628.9
85240.1
58141.6
87287.7
92131.6
90508.5
98794.6
95605.3
34191.1
35593.3
36404.9
42686
44505.4
40034.7
37406.4
39104.3
111020
107516
104631
101838
52733.9
50687.2
51827.3
49314.7
47630.1
45881.5
36725.2
37330
39795.7
38935.4
40738.8
42451.6
42877.3
45113.6
30088.3
27943.4
30928.9
29114.1
30924.4
36499.3
24622.2
41691.4
32117.8
35455.8
32916.9
54157.7
45543
46589.1
62149.5
61004.2
59771.1
58228.3
55735.4
56520.5
54663.1
67004.2
66916.2
67691.5
66000
65460.4
64407.5
63971.8
63290.6
62883.6
90484.4
89268.4
94745.1
94124.7
93806.5
92870.4
87064.8
84319.2
83274.5
85547.6
81688.3
81891.7
79512.8
78679.9
77889.7
80945.6
80026
95872.3
95579.9
96079.7
96635.7
96637.4
96181.8
95894.1
77311.3
75828.3
73892.5
65520.1
39288.3
56859.5
70685.8
63217.5
76582.1
67751.7
67656.7
70698.2
63071.6
93926.3
93641.1
95667.8
92301.8
93954.5
94147.7
94709
95226.4
95370.9
95656.5
50686.6
51249.6
48762.9
45345.8
46390.6
54978.6
52709.3
56655.8
61099.9
62363.5
71308.1
73603.5
63033.5
65258.6
69005.5
66533.6
58908.2
77266.1
74682.7
78935.6
81100.2
82675.9
85689.7
87774.7
92583.1
89414
97166
100138
94268.4
32661.9
33518.1
34871
41879.9
42901
39229.2
36610.7
37347.7
110858
108110
105785
102992
52392.4
49736.7
50876.8
48837.6
46658.4
45521.8
36523.5
36601.4
39007.1
37418.8
41183.6
39551.3
41498.2
43769.6
27175.3
24474.3
28915.4
24336.5
29329.1
33029.2
21019.6
40622.7
30835
34385.4
33198
31536
53021
39584.1
35575.7
61653.8
60288.9
59497.9
58051
55791.7
56150.7
53922.4
66381.8
67148.9
66365.2
65892.8
64737.5
64170.9
63248.3
62843.9
62045.8
90877.3
89024.7
95118
95359.2
94335.8
93426.4
92802.3
86576.3
83027.9
84893.8
82063.5
85888.7
80570.4
79568.5
78345
77797.5
80316.5
78256.9
78881.9
96110.3
96006.2
96690.9
96826.1
96409.8
97157.1
97086.4
96256.9
95759.1
76945.9
75576.9
71763.7
50037.8
69682.5
73397.8
71252.3
67336.9
67920.4
69107.4
65163.8
93897.8
93733.7
92541.6
92192.8
94028.6
94379.9
94974.9
95600.2
95331.2
96113.8
49044.8
49470.8
51553.2
47928.2
43408.3
45577.7
54015.8
52692.8
56022.4
60341.7
60862.3
71270.7
72404
62286.6
64200.4
68794.5
66399.3
58221.4
76252.3
74213.5
78050.4
80364.7
83191.1
84635.8
86784.4
91342.6
89774.8
97665.7
99397.6
94627.3
32122.1
33412
35032.1
40201.8
42230.6
37337.6
36374.2
112990
110719
108987
104728
102053
51297.8
49327.8
49806.8
47880.5
46838.8
44414.5
34928.4
35131.8
37417.9
36733.7
40635.3
38454.8
41138.1
43408.5
24013.1
26932.3
27983.5
19231.5
25043.8
31428.4
16220.9
35436.6
30648.5
28827.1
32050.2
30828.8
52428.3
29036.3
26608.5
29936.7
60794.8
60165.5
58753.8
57317.9
54859.3
55078.4
56507.9
54053.8
52921.7
66941.1
65860.7
65315.1
64512.4
63455.8
62786.7
62009
61527.9
91844
90195.4
87976.1
95219
94935
93742.9
92495.5
87158.7
82161.7
83915.5
81007.7
85749.8
78685.2
78687.8
77395.2
79235.9
78493.7
79036.7
96580.8
96378.4
97108.1
97355.9
97197.1
97807.2
97751.7
97056.9
96483.4
76219.4
74685.8
73689.5
61756.1
65108
73201.4
72078.8
67147.9
67293.5
68780.9
67083
65119.2
94224.8
94203.1
93025.9
90870.7
92063.5
94259.3
94581.4
94936.9
96077
95741.4
96339.2
48494.8
48745.8
49997.6
46426.2
42987.1
44089.6
54564
51498
56771.7
58936.4
59641
70008.3
72743.8
62967.2
61001.5
64958.3
67448.6
74842.3
76685.5
78165
79091
81141.9
82414.5
84552.2
87265.8
85300.1
91800.8
88670.2
96462.3
100230
93428.4
30404.5
31697.6
33921.3
39482.4
40485.7
36763
34543
117112
113226
108038
105862
102614
50731.2
48071.8
49194.2
45824.8
44083.1
34281.8
34545.9
36606.4
35294.8
39118
37080.1
39993.6
42181.3
19635.9
24204.5
25008.9
12940
18110.1
19614.7
20337.7
12629.5
24864.6
28499.8
27269.5
31875.3
29230.7
51189.6
17637.9
15478.6
18472.6
60703.6
59169.1
58530.7
57620.3
54681.2
55840.3
53282.2
52487.9
66442.3
65301.9
65732.8
64765
63817.7
62853.1
63322.9
61933.2
61468.9
92133.7
90043.1
87324.3
95901.6
95575.2
94868.5
93803.7
94239
86886.8
80930.5
82901.1
85665.6
80353.4
79011.8
77982
77518.5
80221.3
79078.6
79221
79039.7
97070.2
96900.8
97743.7
97742.6
97252.2
98402.1
98329.8
96686
96523.4
96626.4
76240.6
75070.4
67068.8
70650.1
74936.1
74774.1
66986.7
67764.1
67025.8
66471.6
94436
94171.7
91601.5
91257.9
93680.9
95095.2
96282.9
95877.8
96122.3
96825.2
46537
47142.3
49944.4
45593.2
41575
43302.9
53867.7
51405.2
56150.6
58386.6
59731.5
69812.5
72007.6
61872.3
60691.1
64652.9
67266.1
74102.2
75849.9
76984.5
78584
80602.6
83131.4
86397.2
84649.3
90673.3
88641.4
96574.1
99990.6
93793
29136.1
29439.7
29851.5
32098.4
37924
39654.3
35161.4
33319.1
113749
109742
109001
105300
103951
101404
49696.1
47382.1
48186.9
46244.3
44692.4
42808.9
32883.7
33278.9
35267.7
34673.1
38464.7
36005.1
39030.1
39829.3
41939.9
20986.6
12397.7
23190
2633.25
2420.01
13436.6
17623
7209.8
18449
18313.3
27617.4
24690
30366
28912.4
50451.6
2301.5
9559.51
60189.7
58881.9
57099.7
53972.4
55071.5
56124.4
52981.9
51688.6
66521
65956.7
64759.9
65075.3
64329.9
63778.4
62217.8
62668.9
61421.1
60634.6
91355.8
93252.5
88434.8
86965.2
97209.9
96374.1
95559.4
94689.8
94988
85988.2
82287.7
79912
82827.9
85009.5
77820.8
77584.1
76590.5
79691.6
78461.1
79155.9
78014.5
78319.7
97509.1
97336.7
98125.3
99159.2
98301.5
98770.8
99054.3
98328
98198.8
97926.7
75633.5
75039.7
69369.2
73128.2
71198.9
75282.3
74651.8
67150.1
67365.8
66503.2
68422.7
94427.7
94088.9
91177.2
93072.6
94105.9
95580.3
94992.2
96657.7
96353.3
96625.6
97269.7
45926.5
46546
48629.3
43942
41842.3
40215.4
52486.8
54729.9
50130
57019.5
58661.3
70701.8
68446.5
72754.8
61779.9
59469.2
65940.7
63432.2
74678.4
76029.2
77307.4
79300
81366
82648.3
86668.6
85202.9
83386.7
91252.1
89379.9
87585
95171.7
97709.7
99000.9
92739.4
27455.7
27549.1
28095
30911.1
37195.6
37910.2
33649.3
35527
31527.8
111027
107462
106324
104109
101093
48961.1
47494.2
47966.3
45767.7
43822.7
42658.3
32466.6
32816
34654.1
33457.9
37152.3
34871.8
36128.6
38189.9
38603.3
40666.4
18112.6
2531.67
19203.2
2310.13
6790.15
10537.5
12749.8
2306.17
11292.4
10040.1
25234.4
22862.7
30203.4
27136.9
50756.1
49216.9
5487.12
5858.49
2306.61
59454.5
58040.7
57352.5
54352.1
53278.2
55594.4
51915.6
66106.6
65558.4
64637.1
64316.8
65041.9
63387.6
61639
62187.7
62492.2
60728.8
60244.7
91035.3
93019
89517.2
87772.5
97711.2
96423.7
95566.6
95045.7
86687.8
80904.5
79616.4
83962.7
84499.9
77976.2
76349.2
76242.5
77823.5
79939.9
77978.2
77787.9
97994.8
98083
98516.1
98875.6
99044.1
98818.9
98814.1
98955.4
98474.4
99004.7
75534.4
74959.2
72138.9
71141.8
74726.5
73796.5
66644.7
67010.8
67159
68807.3
94780.7
93978.7
92958.4
92943
93583.3
95691.7
95268.1
96981.1
96718.1
96380.8
97752.2
44441.3
44714.6
47240
48865.8
42923.8
40740.2
39110.8
51862.8
53961.8
50448.9
56228.8
57493.9
69948.2
68523.1
72330
60642.7
62405.8
58958
65745.1
63467.2
74082.3
74946
76625.1
78898.5
80972.8
85848.4
84619.1
82942.3
90612.2
88525.8
87509.7
95697.4
97131.7
99751.3
92608.8
25862.2
26106.5
28091.9
26237.5
29236
37095.7
32070.5
34713
30229.9
110379
108099
105473
103247
101853
46525.8
46934.3
44904.5
43979.8
41706.5
31238.4
31744.7
33537.7
32926.4
37156.6
33648.5
34930
37801.9
40524
16584.5
7604.01
2332.65
17691.5
3133.67
2306.45
5446.68
6699.07
3210.28
2308.06
23254.4
23950.2
19504.4
28937.6
27465.7
24836.9
49972.4
48471
2302.31
3977.38
2306.04
59068.8
57884.4
56752.9
54103.9
52495.1
54730.5
56001.6
51365.2
66175.5
65652.4
64035.8
63766.8
64639.7
62841.2
61162
61642.2
61830.5
60284.8
60558.6
59441.9
91692.7
93521.9
89372.9
88867.3
86509.1
98116.8
97596.1
95882.2
94693.6
86985.2
83087.7
81233.8
83572.7
84729.1
77940.8
76359.9
77996.1
75709.8
77092.8
80802.2
79453.1
76938.8
77080.4
98608.8
98480.5
99511.8
99485.2
99491
99630.5
99786.3
99531.8
99541.5
74704.3
71667.4
69893.3
73968.9
74547.9
72351.5
66651.3
67010.6
67951.4
94784.5
94589.6
93908.9
92884.3
94149.1
95977.6
95208.5
97411.8
97255.7
96765.1
98167.1
43237.1
43856.1
44580.6
46076.8
47721.4
41175.3
39360.4
37726.4
52456.4
54586.5
49484
56516.8
56819.8
70249.2
67646.1
73093.7
71303.7
61293.5
59569.3
57460
64508.8
66473.8
62278.5
74670
76810.2
75429.2
77699.9
79770.5
81760.9
84989.5
86424.7
83600
91345.8
89509.7
88515.5
95221.3
97839.5
99128.7
93063.6
24142.3
22283.2
24300.8
26241.9
24594.3
28321.5
35579.5
32025.4
30439.9
33204.7
28679.7
111955
108014
105691
103856
101106
46188.2
46615.5
45104.1
42980.4
41843.2
31013.7
31275.5
31768.5
36250.9
33226.6
33858.3
35103.6
36440.3
38194.7
39492.5
11117.6
2428.93
2301.2
13767.8
4114.29
3656.66
2300.25
4306.22
2300.73
2877.67
19946.7
20075.9
17315.9
29042.6
25960.6
22540.7
48926.3
50393.9
47358.1
2435.65
2300.01
2300.01
2299.9
58296.7
57150.1
53219.1
52537.7
51634.5
54381.2
55633.5
65764.9
65266.7
63848.1
63607.2
64125.6
64785.5
62556.5
61200.5
61473.6
61631.9
59485.6
60106.5
59020.4
91584.6
93494.7
90574.2
88800.8
87599.6
98009.3
99761.6
97171.4
96077
95480.4
85390
83699.4
84364.8
76333.6
75733.5
76335.4
75257.1
76117.2
81155.6
78957.8
75890.8
76837
99108.7
98979.7
99919.6
100127
100359
100176
100300
99441.3
100373
99876.8
100223
74799.6
70243
69540.9
73116.2
74009.9
71626.4
66322.2
66863.3
67840.3
94553.7
93411.4
92695.8
93380.4
94094.3
96128.9
95356.5
97847.1
97205.9
97739.4
96679
98630.7
42041.3
42414.3
43532.3
46313.7
48030.1
40306.8
37973.8
36937.9
51637
53790.9
50065.1
55320.7
55551
69291.4
68101.2
72569.6
71491.6
61109.8
58621.4
57249.7
64657.9
65835.7
62052.9
73472
75831.3
75070.7
77742.1
79478.3
81505.2
84260.7
86024.6
83315.5
91182.8
89465.2
87275.6
94041.1
95964.7
97120.9
99843.5
92065.2
22412.4
22752.6
26619.6
24661.1
22910.5
34988.1
30574
28910.6
32749.1
27329
109882
107402
107187
105115
103010
101672
45439.2
44350.5
43154.7
40895.1
29996.5
30212.8
30989.3
32159.9
32923.4
34161.8
35421.4
37336
39747.5
9165.13
2301.59
2923.08
2974.06
10174
8314.17
3440.6
3646.2
2302.86
2300.12
3139.72
2301.36
2299.96
16969.2
13239.5
27967.2
23576.2
26489.9
18609.9
48265.7
50030.5
46816.4
2300.19
2299.98
2300
58018.3
56867.8
53060.6
51820.1
50877.6
53584.3
54873.6
56103.2
65346.6
65689.9
63307.1
63008
63771.5
64452.6
61999.1
60737.5
60880.1
61098.5
59174.6
59527.3
60248.5
58386.4
92194
94121.9
90151.9
88372
86537.9
99255.8
100115
96668.6
99011.6
96575.5
95354.8
86589.7
82720.7
82379.9
84313.6
75373.6
76089.4
75298.2
75292.9
75271.5
80325.1
77431.1
74538.2
75873
99019.7
99307.2
100432
100774
100463
101056
100144
99879
100784
100951
100932
74123.9
69809.2
68433.5
73174.8
72010.1
70410.7
65906.1
66463.7
67187.2
94872.6
92936.1
92592.8
94023.8
94778.8
95955.4
95446.8
98304.3
97511.2
98163.7
96982.9
99010.3
40861.6
41414.5
43841.5
42054.4
45122.2
46970.1
38857.9
37728.6
35712.6
52343.6
54235.9
49125.7
54440.9
69831.7
67174.7
72639
70917.9
59832.1
58694.6
56362.9
64066.4
66033.7
62957.1
60908.6
73233.5
75410.2
74080.4
78574.2
76830.2
79844.5
80587
82378.7
84156.7
84958.9
86308.5
90257.8
88314.6
87428.6
97934.4
99209.4
20754.3
19078.8
20932
25942.9
22936.9
21485.7
33657.9
30375.9
29113.2
27332.8
31362.1
112036
106967
108242
105533
103118
101171
45252.9
44485
42207.8
41089
29587.9
31212
29860.4
32013.2
33013.2
34275.1
35329.4
36164.9
37773.2
38851.4
5099.23
2307.81
2300.62
2448.63
2312.56
2308.22
2505.41
3797.62
2299.8
2300.39
2660.68
2300.34
11104
10486.6
27811.9
21374.5
25250.2
15592.7
47250.2
48490.2
49251.7
45858.3
2299.97
2300.04
2299.98
57345.8
52301
51787.5
51007
53349.5
54557.1
55773.1
64934.3
65129.4
62897.1
63145
63316.2
63980.7
64544
61727.9
60478.2
60584.8
61170.6
58357.6
59267.4
59803
58011.3
86564.8
100131
101196
98196
99874.2
97721.3
85656.9
82766
81564.2
83992.4
74976.9
74857.9
74533.4
74756.7
73098.4
79752.2
77787.5
75655.7
100038
99923.7
101492
101047
101429
101553
101386
101174
100714
101434
73968.4
68798.4
67785
72465.3
71254.5
69800.7
65551.6
66139.9
66747.4
92256.5
93140.6
94185.5
94819.5
96293
95592.3
98796.6
97497.6
98107
98704.1
96874.4
99411.3
39803.9
41212.3
39975.2
42741.9
41612.5
45455.9
46861.8
38593
36163.8
34728.2
52051.8
53237.5
49763.7
47622.2
53207.9
54275.8
69388.9