/*--------------------------------*- C++ -*----------------------------------*\
| =========                 |                                                 |
| \\      /  F ield         | OpenFOAM: The Open Source CFD Toolbox           |
|  \\    /   O peration     | Version:  v2012                                 |
|   \\  /    A nd           | Website:  www.openfoam.com                      |
|    \\/     M anipulation  |                                                 |
\*---------------------------------------------------------------------------*/
FoamFile
{
    version     2.0;
    format      ascii;
    class       volScalarField;
    location    "1.6";
    object      p_rgh;
}
// * * * * * * * * * * * * * * * * * * * * * * * * * * * * * * * * * * * * * //

dimensions      [1 -1 -2 0 0 0 0];


internalField   nonuniform List<scalar> 
13611
(
57225.4
13536
72556.5
21575.8
102460
113990
11057.4
71118.1
54742.1
9988.91
157337
52007.4
10284.1
93435.7
108165
9926.95
150670
158760
67404.2
12277
88135.9
128813
134767
136599
153958
125506
63545.8
23668.1
96396.4
99594.6
136254
140714
148069
161470
95299.8
68289
41876.2
92924.4
110016
133206
142754
150644
158552
109277
78239
62374.8
96172.6
85585.2
123000
97905.2
134404
139312
146506
154964
140011
97875.8
74922.2
81117.2
92990.9
89156.9
110556
100684
125648
137302
87510.8
142469
139491
143975
129690
106952
82599.4
87813.4
94804
87955.5
109235
94544.2
124350
115100
128029
133027
131396
133070
117858
128666
101730
86320.1
94158.1
93242.3
90229.5
99885.3
92925.8
115425
110840
122800
87011.9
126211
124689
125494
115848
120649
102765
89186.9
94683.9
93162.1
90861.3
94280.3
98458.9
111614
103859
114738
85457
81818.4
119277
118539
119069
110794
115313
106474
100023
90840.6
92718.6
97006.3
89804.7
93829.2
91753.2
88860
92801.6
105845
102161
112834
80272.8
114379
114559
114944
110281
102918
100334
91941.8
93259
96035.6
93481.3
92889.9
92288.5
86596.8
91696.5
88002.7
102249
97423.4
108255
81957.7
76898.1
108954
110820
110673
106401
102072
98468.9
92320.9
92805.2
93577.5
96759.6
94672.9
94643.5
94961.2
92493.3
93615.6
87482
84154.9
101288
97556.2
106831
103419
79430.7
75015.8
105927
107142
106789
103385
105036
99204.2
98002.1
92768.6
92663.5
93018.1
95527.2
93966.4
96029.7
93356.3
89870.5
84375.6
86727.7
80345.2
96496.7
94333.4
101954
100080
75975.1
72174
101917
104656
100582
101335
98509.1
96180.7
92871.6
92793.6
92588.5
92973.8
94285.2
95418
95310.4
96140.3
93106.5
90320.7
81351.7
83506.7
77431.2
94720.7
93963.1
99901.5
96320.2
73684.7
70175.8
99853.4
101408
99802
99311.4
96558.4
94667.6
93007.4
92417.3
92004.9
92192.5
93607.9
94184.9
94866.6
95432.9
93583.7
88130.4
81130.6
78116.5
82127.7
74271
91195.8
90384.4
96035.2
94048.1
70711.9
96803.3
99335.6
97233.8
96676.7
95063.4
95985.2
94261.7
93634.8
93205.4
92340.4
92102.7
91604.9
91648.6
91930.4
92541.9
95531.9
94133
94879.7
84993.3
78135.3
76176.7
78832.6
82684.6
71566.1
89288.2
89587
94949.3
93867.4
90853.6
68923
94891.1
95951.2
96028.7
94725.8
93430.8
94010.2
92711.8
92399.8
93202.1
92750.6
91821.5
91645.1
91055.9
90746.6
90929.8
91831.5
94671.4
94036.9
95180.8
84004.8
77169
73544.5
77554.6
79546.1
71346.7
69264.5
86115.7
86613.1
92180.1
90864.3
89299.3
66697.7
65364.1
92312.6
94180.2
92220.4
92263.6
92841.7
93347.7
91785.1
91599.3
93864.1
92535.9
91574
91118.7
90450.2
90384
90287.8
90637.4
95667.3
95669.1
81223.6
74205.3
72450.4
75178.2
79022.7
68861.8
67219.8
85002.8
85270.4
90056.5
89516
86732.4
65744.4
63011.3
90168.6
92067.8
90468.7
90749.7
90945.6
90851.7
90398.3
90412.6
93593.6
91858.3
93329.6
90910.3
90543.4
89696
89524
89269.4
89911.4
95387.4
93272.1
96601.6
80412.7
73404.9
70071.1
73817.3
76452.9
66626.9
68655.1
66013.9
82147.9
82667.3
87598
86787.5
85523.9
63790.1
62329.9
87574.4
89872.7
90119.4
88584.5
89877.3
90044.5
89945.4
89642.9
89718.1
94563.5
91596.7
93133.6
90405
89845
89014.7
89004.5
88470.6
88780.7
95207.5
96320.6
96552.1
78035.1
71113.5
68721.4
74226.5
71284
76296.6
65060.4
66457
63589.7
81124.8
81629.9
85692
83063.1
60346.9
85142
87666.5
88271.1
87538.1
88525.1
88462.5
88104.1
88165.2
88569.1
94185.9
91891.2
90705.8
93707.1
92585.9
89618.8
89329.5
88384.5
88094.2
87707.7
88292.4
88058.1
95232.5
97431.8
98205.3
95875.5
80196.7
95219.1
77011.9
69088.4
66327.4
72035.7
69544.2
74131.5
63130.2
61818.7
78428.1
79303.6
83478.2
82059.2
58813.8
59561.1
85650.3
83017.6
87314.9
85506.5
87884.4
87813.2
87534.6
86955.7
87207.6
94911
91382.8
90253.3
93619.3
92910.7
89104
88508.6
87788
88157
87541.3
86915.7
87192.3
86870.4
97872.8
98041.7
96008.4
84059.9
78374.9
73020.7
90795.6
95980.3
74603
66961.3
64606.9
69865.1
72157.3
67245.1
61699.3
62023.8
60051.9
77613.5
78489.5
82474.9
79829.8
57770.4
84455.3
81294.2
85988.6
84300.4
86528.6
86556.6
86055
85349.2
85987.2
94850.6
91855.4
90608.7
89468.2
94197.9
92619
88319.7
88109.5
87093.7
87260.4
86590.2
86017.8
86520.7
86032.6
97052.3
98592.6
96482.3
95563.7
85804.6
75104.1
80342
73170.5
89014.3
94427.7
73081.1
64806.4
62557.4
67819.4
70115.9
65701.1
59600.5
59762.1
58156.7
75331.6
76533
80070.3
78829.4
56896.9
56907
82586.1
79534.3
80461.3
84529.9
82529.6
85893.4
85732.9
84943.5
84476.8
84856.9
91423.1
90238.9
89028.4
94161.6
92824.3
87776.2
87356.1
86801.4
86488.5
86923.9
85835.8
85255.6
85457.9
84836.1
97581.3
98314.5
96745.4
95625.9
83823.4
73979.3
78312.3
69106.8
70503.5
65949.6
90760.8
95517.1
73449.8
70952.5
63029.4
60772.2
65967.6
67958
69889
63764.1
57845.8
58486.2
75087
75579.5
76565.3
54517.8
55312
55416.2
80919.5
77888.6
78315.2
83065.8
81155.2
84726.3
84526.1
83533.1
82771
83332.9
92161.9
90836.9
90397.9
89526.5
88203.8
94562.9
93475.5
87675.8
87104.4
85969.5
85647.9
86113.6
84932.9
84306.3
84641.6
83767
97818.7
98854.5
96060
97296.9
95159.9
85927.1
75206.9
71126.5
79081.2
67029.7
69577
63911.2
89220.8
94160.4
71388.9
69536.2
61107.7
62737.1
58977.9
64152
66002
68074.5
62795.7
55904.1
56629.6
73350.9
73661.6
75600.3
54697.3
54270.5
79172.8
76320.1
76911.6
81412
79492.6
83723.5
83513
82370
82028.8
82009.5
92001.2
90658.3
89790.6
89258.2
87994.8
94349.7
93609
86808.3
86417
85548.4
84887.9
85836.4
84167
83517.5
83645.7
82762.9
98453.9
98814.1
96193
97310.8
95666.7
85300.6
73234.3
70705.3
76240.5
82458.5
65989.8
67160.4
62851.7
90987.7
95620.7
71536.4
69614.6
68014.8
59685.9
60634.8
57316.9
63438.2
66403.7
64100.9
60933.9
54254.9
55428.1
55816.1
72232
73620.1
52424
53130.2
52672.2
77281.1
74890.3
75117.9
80123.6
78050.8
82389
82360.2
81229.7
80526.3
80401.7
92491.4
91141.6
89895.6
88613.4
87309.7
94747.5
93228.5
86134
86710.5
84656
84047.3
85025.5
83267.5
82591.9
82851
81749.4
98256.1
98925
96886.1
97874.6
95591.9
88566.6
73407.6
68682.6
75728.9
83217.5
63874.2
65890.6
59700.3
60807.9
94861.6
70067.5
67728.1
66556.7
57961.2
59782.7
56910.2
61332.5
65280.2
62220.1
60142.3
52452.4
53346
54098.6
72217.8
70478.6
73334.1
50986.9
51303.8
76031.5
73626.3
78474.3
76487.4
81213.2
81207
80101.7
79405.9
79412.8
92155.1
90862
89397.2
88567
87069.7
94421.3
93662.5
85346.5
86009
84405
83946
83173.2
84821.8
82473.9
81764.1
81919.2
81266.6
81132.8
98667.7
99483.6
97156
97984.7
95832.2
89203.3
70921.3
66468.7
68676.4
77273.4
72835.1
86871.4
80588.9
62753.2
63575.7
57643.8
59830.7
95977
91881.5
68201.7
67140
66202.7
56753.4
57682.4
54825.5
60570.7
63730.8
62248.8
58219.7
52038.6
51077.1
52771.5
53466.9
70455.2
68892.9
71807.1
49929.3
50032.7
74500.4
73558.9
71872.1
77403.2
75272.7
79914.5
79972.2
78932.8
77948.8
78013.6
92590.6
91411.8
90080.5
89431.1
87889.1
87248.7
86321.5
94896.9
93310.8
84983.2
85427
83541.2
83053.3
82158.1
84029.3
81524.4
80891.3
80312.1
79969
98852.8
99644.2
97820.3
96919.2
98463.6
96367.6
95493.6
70918.1
64624.5
66661.2
75395.4
71925.8
87727.1
80991.9
60748
62190.5
56986.1
58059.8
95018.6
92255.1
67414.5
65033.7
64377
54729
56863.8
58705.9
63153.8
60590.7
57481.8
50125.3
49664.1
50913.7
51662.6
70304.7
68847.8
48595
48585.9
73718.4
71979.2
70600.6
75997.3
75166.1
73973.5
78823.3
78795.5
77810.7
77160.3
92313.7
91211.6
90010.8
88650.7
87894.9
86594.5
86059.9
94730.5
93552.6
85095.8
84105.1
84994.7
83353
82916.2
82170.8
81246
80803.5
80027.8
79707
78996.3
99243.5
99617.2
97698
97466
98637.3
96439.9
95971.1
68997.7
64818
62647.5
66102.1
72859.5
76323.5
69673
85994.2
90615.5
83303.2
78672.6
59721.6
60324.9
53937.3
55236.3
57072.8
96026
65645.1
64272.5
63740.4
53144.5
54925.5
57825.3
61375.9
58763.4
55770.1
49511.8
49114.1
48466
50441
50664.2
68734.7
67489.3
47554.2
47479.1
72268.3
70786.6
69074.6
75326.7
73756.5
72786.2
77601.9
77635.2
76603.4
75913.9
91671
92896.7
90550.4
89381.1
88738.4
87085.3
86469.2
85482.5
95197.4
94118.9
84522.3
83585.4
84967.6
82519.1
82053.7
81399.2
80279.8
79905.1
79359
78670.9
78129.2
99413.3
99877.8
98259.3
97453.3
99160.5
96938.2
95819
66996.2
63108.9
60996.2
63775.4
71397.5
75324.4
68323.6
86831
91236.7
82849.4
78789.1
57820.6
58789.8
53661.5
55303.1
95860.4
65146.6
62497.6
61700.6
53297.2
51108.9
54597
55606.9
60517.9
57552.4
54806
47703
47608.8
47316.6
48622.8
48636.1
67522.8
68249.9
66098.8
46590.3
46339.5
71669.6
69412.9
68257.7
73988.5
72679.7
76722.5
77168.5
76604
75421.3
75123.3
91333.5
92923.6
90547.3
89342.4
88222.1
86956
85685.7
85238.8
95280.5
94111.1
83910.7
82810.1
84326.9
81795.9
82307.4
80410.6
79656.1
79803.5
78470.2
78122
78093.4
77055.4
99802.3
99594.4
98375.9
97870.8
99463.7
97104.3
96173.3
65586.2
61284.7
58992.7
62850.5
71827.4
69070.1
73553.5
76892.5
66221.8
88672.4
85111.9
93628.2
80769.3
57132.4
51827.5
53893.7
97837.2
63501.9
61623.3
61178.6
51413.4
49492.2
52940.2
54565.6
58539
55596.8
53025.3
47249.3
46419.7
46554.2
46306.5
47123.1
66085.7
66485.7
65232.7
45117.5
45795.2
45955.3
45653.5
70425.5
69197.4
66820.1
73219.8
71424.3
75595.1
75741.1
75428.4
74475.2
73787.6
91571.5
92424.3
93580.7
89966
88657.1
87513.3
86204.9
85322.2
84523.9
95991.9
94806.8
83476.2
82496.1
83681.8
80866.2
81413.3
80022.9
79758.3
78767
78767.2
77843.2
77261.2
77177
76314.1
100077
100687
98708.8
97889.1
99866.4
99253.4
96693.4
97539.9
63726.5
59625.5
57457.3
60921.9
70052.3
67955
73382.2
76534.5
64920.1
89555.5
85510.5
92495.6
80290.6
55531.3
49699.6
52000.8
50004.6
54007.8
96208.8
63816.4
62061.8
59842.3
59598.1
51457
49704.7
47547.6
52531.2
57443.1
54506.1
51767.4
45643.4
44793.8
45305
45366.9
45251.7
65515.5
65849.7
44476.3
44923.2
44985.2
70251.4
67817.5
66060.1
71908.7
71130.1
74943.5
75047.7
74502.7
73421.3
73041.7
91160.1
92649
93601.8
89856.9
88478.5
87253.6
86078.5
85578.8
84392.1
84073.9
96267.2
94731.2
82797.1
81841.9
83130.4
80716.6
81345.3
78864.2
78550
78081.9
78032.2
76758.7
76540.9
76446.4
75328.2
100492
101958
98702.2
98307.2
99961.6
99591.8
96984
97745.2
62355.9
59613.8
57813.2
55534.8
60624.1
68492.6
70368.6
66215.6
71936.8
74830.2
77998.9
65057.6
62889.5
88552
84331.1
87163.4
93862
81897.9
54826.8
50423.3
48370.4
52401.9
96948.1
62949.6
60640.9
58681.1
58060.7
49814.6
48115.4
46292.1
51816.8
51491.3
55380.8
52767.7
50050.3
44481.3
44884.2
43680.3
44070.9
44493.8
43694.4
63846.1
64346.6
44538.5
44692.8
69022.3
67860.9
66495.5
64563.2
71309.7
69818.2
73915.6
73971.1
73463.4
72755.8
71869.7
91553.6
90376.8
93181.2
92203.7
94101.2
89046.8
87743.7
86475.1
85388.5
85113.1
84038
83299.8
96777
96082.4
95122.8
82321.5
81758.9
82426
79807.8
80779
77952
78661.7
77566.9
77079.8
76068.5
75587.2
75645.8
74897.4
100277
101051
99050.1
98248.7
99946.1
99505.6
97530.5
57742.4
56440.7
54289.2
58962.9
67083.5
69381.8
65788.5
71824.2
74506.7
77281.1
63293.1
61974.3
89819.2
85985.1
87426.2
92681.9
80799.2
52863
46230
50723.6
48628.6
46543.4
99499.6
95607.3
61246.9
59007.8
57111.7
56724.1
48241.1
46682.2
44594.8
50109.8
49802.6
54529.1
51609.6
48958.5
42987.1
43125.2
41965.4
43330.3
43722.3
43619.4
42140.5
63282.6
63859
43657.3
44265.2
44254.1
68868.5
66761.8
65326.6
63700.6
70173.3
69511.2
73323.8
73526.6
73161
72895.3
71690.4
71181.2
91124.2
90379.4
93391.5
92625.6
94001.3
88602.9
87615.9
86035.5
84959.5
84455.4
83229
82675.1
96816.7
96631.1
95626.6
94740
81251.2
81942.7
80169.3
80798.3
76170.6
77584.5
76897.9
77273.8
75305.5
74731
74614.1
74032.3
100199
102697
99198.7
98589.6
100159
99714.1
97699.2
57392.7
56442.1
54833.7
52469.2
58822.6
66798.8
70429
67929.2
64487.6
72979.7
75529.7
78458.2
63168.8
60324.7
89555.1
85536.4
88960
93678.7
81662.7
51765.2
44341.4
49215
47214.6
45049
100049
94980.2
60393.2
57716.2
55884.9
55265.5
46568.3
45321.4
43929.9
48820.8
50006.1
48750
53075.3
51820.2
47415.3
41565.8
41907.7
41151.2
42211.2
43213.6
41425.9
40696.4
61958.2
62448.8
44079
43916.1
67797.7
66860.4
65554.1
64015.4
62334.3
69593.7
68392
72437.5
73368.6
72586
72236.4
71549
71022.6
70039
91439
89885.6
93264.9
92095.8
94246.6
88709.9
87039
86280.9
85145.8
84336.1
83058.5
82661.2
82035.3
97319.9
96828.5
95851.8
94983.2
81010
81292.6
80096.8
80463
76347.2
77943.1
77126.7
76818.1
73243.3
73642.2
74287.7
73818.9
100588
104290
101240
98994.4
99623
98355.5
100008
98100.9
55626
54846.4
53861
51369.3
57307
65109.5
70176
67462
64074.2
72839.1
74499.4
77760.6
61923.4
59850.2
91695.8
83418.7
86645.3
89790.5
80694.3
49815.8
40521.4
42839.9
47496.1
45465.1
43247.7
96861.2
94420.6
60911.5
58885.6
57778.2
56122.8
54304.9
54111
45121.9
46235.2
42483.1
47261.4
48522
47110.1
52874.5
50640.2
40056.4
40407.2
39660.3
42099
43344.6
40980.2
39580.3
61629.4
44286.7
44467.3
44130
67630.1
65924.9
64665.8
62992.3
61391.6
68463.8
72076.7
71979.9
72506.2
71295.6
70868
69793.1
69289.4
90840.8
89418.9
90201.7
93693.8
92283.8
94401.4
88139.7
87029.1
85702
84794.1
83668.4
82235.5
81880.3
81407.9
97472.6
96648.1
97204.7
95527.7
94974.4
80366.2
80910.1
80248.6
80105.4
80260.3
75890
77864
74743.3
67228.2
72658.5
73259.8
73090
72826.9
100847
103924
101475
99265.7
99826.3
98661.2
100352
98139.7
54373.2
55018.7
52226.1
49705.4
55815.2
57310.1
64731.1
68698.9
71489.4
65963.5
62544.2
74673.1
76104.8
79104.3
60599.8
58331.1
92420.1
83382.2
85020.5
88663.6
91673.1
81969.6
48855.5
38837.1
41199
46186
44125.3
41769.3
101143
94967.5
59795
58642.9
56373.4
54913.7
53086.7
43466.6
44369.8
42200.9
45862.3
47187.9
48254.5
45809.7
51542
49264.1
38450.7
39455.2
39768
38121.6
41178.3
42666
39624.7
38252.9
60243.4
45218.7
44031
66472.6
64943.2
63440.6
61729.5
60085.1
67792.8
71174
71170.2
72220.1
70739.7
69776.4
69172.7
68196
91047.8
89172.3
89774.6
93466.7
92808.3
91653.6
88910
87483
85903.8
84989.1
84059.4
83505.9
81697.1
82206.9
81266.4
97916.6
97000.6
97339.8
95439.1
94937
79745.7
80205.3
80217.1
84182.5
79715.2
74945.8
77950.1
74834
67202.4
71448.9
71207.1
72480.1
100767
101176
102864
101520
99621.4
99062.1
100354
98591.6
52663.6
53186.2
51492
48521.2
54966.9
55922.8
63360
68647.3
71200.8
65468.6
61655
73243.5
75541.2
78814
59470.3
58153.2
84923.4
88882.8
92386.2
81767.8
47068.5
38398.3
39787.5
44569.5
45983.3
42245.2
39930.1
102976
97566.9
93794.5
57562.2
56425.4
55120.3
53490.8
51526
43015.2
44274.4
40527.3
44607.4
45666.6
46526
50882.6
48492.2
37592.2
37441.7
38253
38539.5
36371.1
41525.6
42981.4
38119.2
37385.9
59494.8
45365.1
45684
44698.2
66113.3
64116.8
63055
60800.4
59233.9
66806.6
70724.3
70754
71279.3
69821.3
69286.6
68027.4
67505.8
90131.7
89611.3
93583.6
92971.9
91964.1
88719.3
87455.5
85664.1
84491.6
83473.7
82668.7
80816.1
81458.4
80556.8
97998.8
96402.2
97274.8
97738.3
95789.3
95074.1
78788.8
79939.7
80592.8
90191.4
78813.6
94695.1
75732.6
72121.1
54907.8
71023.3
70568.3
70576.2
71491.2
101941
102390
101260
100011
99278.4
100477
98830.1
52110.6
52564.8
49977.9
46833.4
48694.6
53532
55590.6
62062.8
63062.3
67645.9
69829.4
71920.7
63905.3
66325.9
59869.6
73833.9
76079.7
77455.2
80261.4
56847.9
83191.9
86674.4
90296.5
91819.4
35862.8
36737.4
43508.3
44317.8
41156.2
38552
99759.4
96106.5
94623.5
57297.9
55360.7
54018.6
52439.1
50564
41386.2
42886.7
40149
44531.5
43219.1
45299.6
46774.6
49207.5
35344.9
35661.8
36799.2
38847.8
34134.3
40579.3
41886.8
37320
37144.8
35624.3
58027
47398.5
47244.7
44145.7
65079.4
63859.3
62236.9
59648.3
60651.4
57944.4
66269.2
69877.9
69931.8
70933.1
69409
68340.5
67673.6
67391.5
66558.1
90364.3
89730.3
94153.7
93481.7
92422.7
91356.8
88359.7
86808.8
84766
86112.6
83676.7
84521.9
82839.8
80824.7
80283.8
81242.1
98437.9
97054.9
97591.4
97801.6
95963.4
95691.8
77752.6
79039.9
77543.2
78823.9
77409.5
94216.1
71136.2
73771
80227.6
55511.4
70171.7
69608.8
69562.1
101940
101984
103206
100728
100300
99864.7
99612
99068.1
98642.2
50368.1
51064.3
49423.9
45418.4
47336.6
52899.1
53974.9
60969.4
61635.3
68419
69624.7
70795.5
63301.1
65692.6
58859.7
73147.4
74991.4
77528.3
80056.8
56471.5
82701
86523.8
90332.7
92674.1
34334.5
35991.8
41989.4
43564.4
39477.1
36861.8
38479.2
101686
96795.4
93757.6
55831.6
54206.1
52758.9
51082.4
49099.2
40606.8
41177.9
38751.9
43085
42231.2
43637.9
45923.6
48382.3
34526.5
33816.2
34755
35223.8
36888.8
31839.1
42163
35677.1
37531.7
35418
34757.3
57314.1
49607.1
45446.3
65261.1
64198
62686.3
61213.9
58834.4
59389.3
57334.7
69502
69443.4
70156
68532
68010.2
66794.5
66353.6
65885.9
90147.1
89658.9
94396
93638.5
92605.8
91620.4
88089.1
87027
84780.1
85696.3
83389.1
83341.1
82416.5
80184.4
79597
80135.6
81525.6
98455.7
97557.4
97138.3
98084.2
96045.2
95476
78122.9
76740.9
76468.9
78920.5
76934.6
99544.1
70763.1
90745.6
62351.3
69885.5
69619.1
68688.7
73001.2
101689
102035
103342
100636
100548
100300
99644.3
99135.7
99029.5
49953.4
50385.2
47870.3
43958.5
45758.4
51270.3
53707.8
59536.7
60974.4
67911.7
70761.6
61799
64229.2
66511.7
57378.5
73729.5
71801.4
75236.3
76397.9
78693.8
81080.2
54928.8
83472.6
87638.1
84914.5
91927.5
89186.3
32933.7
34102.7
41145.4
41915
38721.5
35940.6
36848.9
104139
98441.7
97048.9
94719
55242.5
53095.6
51858
50123.1
48378.2
38874.6
40016
42515.9
40794.7
43173.5
44423.6
46877.2
32106.4
31222.9
32559.1
32565.2
35994
28784.6
40512.5
34735.4
36313
34932.9
33104.5
56012.2
54108.4
44832.3
64624.1
63349.1
62172.7
60622.6
57801.3
58877.5
56172.8
68693.9
68709.3
69580.8
68192.8
67137.6
66611.4
66052.1
65795.6
64966.2
89408
88398.6
94799.8
93562.9
93423.1
91924.2
89857
88178.8
86751.9
83986.8
85462.3
82789.5
82818.3
79652.8
79610.4
79272.7
79831.2
81654.1
98704.5
97815.7
96819.1
97548.7
98273.3
96096.2
95181.3
77630.4
76158
72921.3
42809.7
75414.9
93192.9
58085.3
84254.9
69290.3
69221.6
69630.8
70364.6
101182
102231
106903
101598
101017
100497
100128
100034
99498.6
99062.4
48470.6
48770.7
46959.3
42501.9
44708.5
50710.1
52563.7
58718.7
59469.4
68331.1
69454.6
61054.1
63935.3
66222.4
56657.8
72740.9
71584.3
74294.6
76098.8
79016.4
80479.2
54471.1
82498.9
86809.6
85388.8
92220.1
89766
31520.5
32849.2
33627.5
39557.1
41295.8
37070.1
34573.1
36185.5
101713
98668
96636.7
94658.2
54059.6
51991.6
53131.6
50595.5
48867.7
47067.9
37767.4
38367
40872.4
39999
41805.8
43577.3
43975.6
46289
30956.8
28771.3
31803.4
29902.2
31700.6
37301
25388.9
42453.3
33012.6
36449.5
33815.3
55481.7
46264.6
47289.5
63620.6
62458
61194.6
59586.4
57046.9
57811.1
55943.7
68387.1
68194.9
69035
67359.3
66812.3
65754.8
65332.8
64695.5
64308.6
89434
88413.9
94277.3
93039.1
92549.4
91452.2
86355.7
83790.8
83058.7
84876.1
81788.7
81831.9
79712.5
78996
78432.2
80928.6
79905.6
98610.6
98882.4
98180.7
97087.9
97713.2
96152.6
95378.1
77904.5
76541.7
74739.8
66416.8
40226.1
57724.9
71724.3
64341.8
77658.1
69025.8
68869.9
71850.7
64168.7
101611
101682
104847
100805
100852
100625
100462
100045
99588.8
99427
47228.3
47863.2
45383
42131.8
43134.5
51451
49306
53084.7
57352.5
58695
67290.1
69494.8
59406.4
61580.2
65133.6
62803.7
55241.7
73062.2
70557.6
74768.6
76866.8
78291.4
81052.2
83139.7
87408.3
84614.2
91069.9
93384
88858.6
30087.3
30904.7
32197
38829.7
39804.5
36337.8
33842
34545.4
101499
99604.2
97718.7
95732.7
53661.7
50984.9
52114.4
50071.9
47830.8
46663.5
37539.5
37588.9
40029.8
38421.3
42247.3
40573
42532.3
44883.4
27976.9
25245.5
29730.7
25082.8
30050.5
33760.1
21752.5
41319.2
31679
35323.9
34092.1
32380.7
54285.5
40245.5
36215.7
63056
61670.9
60864.5
59355.5
57069.5
57380.6
55148
67683.1
68409.9
67598.1
67179.7
66014.7
65449.8
64560.7
64178.6
63425.2
89492.2
87802
94221.9
94118.1
92949.8
91885.7
91077.2
85652.1
82429.7
84192.3
81642.3
84988.8
80344.7
79614.5
78617.3
78172.8
80109.4
77926.9
78784.9
98739.5
98972
98606.3
97178.5
96422.1
98282.2
97674.5
95759.8
94794.8
77403.6
76156.1
72553.4
50873.7
70393
74401.4
72295.9
68519.1
69035.7
70159.7
66157
101246
101808
101815
100824
101006
100563
100483
99940.9
100354
99497.9
45719.5
46198.2
48202.6
44641.6
40332.8
42415
50613.3
49358.5
52549.9
56716.4
57283.1
67366.4
68461.5
58788
60685.9
65048.4
62793
54671.2
72238.2
70244.8
74064.9
76374.6
78908.2
80248.2
82449.8
86566.5
85171.4
91704.7
93047.4
89396.1
29586.8
30823.1
32361.7
37265.8
39208
34571.3
33651.1
103344
101703
100366
97023.6
95145.3
52518.4
50528.6
51000.1
49062.2
47987.5
45501.3
35875.6
36057.3
38379.2
37687.8
41655.6
39411
42130
44478.6
24769.6
27712.3
28761.5
19920
25713.1
32112.7
16905.9
36086.3
31472.2
29615.2
32889.8
31634.9
53625.9
29642.4
27211.3
30536.9
62134.3
61494.6
60067.9
58559.1
56064.4
56257.4
57717.1
55237.6
54106.7
68113.2
67012.7
66521.6
65722.6
64664.2
64027.2
63273.9
62843.3
90142.7
88728.8
86622.5
93539.8
93089.9
91784.8
90419
85956.6
81373.9
82943.6
80590.5
84611.1
78691.3
78803.8
77732.1
78865.7
78037.8
78795.7
98830.4
99336.7
98585.9
97189.3
96845.4
98448.3
98088.7
96170.4
95083.7
76668.5
75245
74353
62642.1
65827.4
73817
72733.4
68083.1
68395.3
69815.5
68055.8
66031.2
101579
101927
102647
99682.4
100321
100933
100882
100812
100069
100468
99821.8
45249.2
45573.8
46779.9
43241.8
39970.1
41027.7
51185.2
48272.9
53316.2
55402.8
56199.5
66252.3
68887.9
59521.9
57594.9
61481.2
63837.3
70926.7
72774.2
74313.1
75250.4
77220.9
78351.9
80342.7
83072
81133.9
87205
84372.3
90936.9
93806.7
88612.5
27971.9
29218
31329.8
36617.3
37580.2
34053
31932.3
107623
104081
99701.1
98001.9
95760
51896.2
49226.7
50331.1
46907.6
45128.4
35188
35429.1
37516.9
36191.6
40076.1
37986.5
40931.4
43193.7
20328.8
24923.6
25725
13601
18766.3
20233.2
20961.8
13275.2
25463.2
29256.7
28008.4
32691.5
29979.8
52336.3
18196.3
16032.9
19023.2
61992.4
60424.2
59786.4
58829.5
55813.1
56976.9
54416.8
53619.8
67520.7
66442
66812.3
65947.8
64957.4
64049.1
64459.2
63142.1
62729.4
90079.8
88268.7
85613.7
93958.4
93592.4
92734.9
91616.6
91821.7
85553.3
80078
81912.7
84484.9
79784.5
78871.9
78050.5
77704.9
79680.7
78688.3
78581
78795.8
99214.1
99416.8
99107.7
97409.2
96469.4
98967.3
98264.2
95381.1
94678.8
95133.8
76558.8
75502.5
67918.8
71289.9
75405.1
75285.8
67994.8
68705.2
67901.6
67280.3
101355
101951
101222
100134
102025
100908
100265
100796
100357
100050
43426
44081.8
46783.3
42504.7
38664.2
40323.9
50591
48238
52800.4
54971
56356.8
66178
68308.1
58555.1
57388.2
61294.8
63786.2
70363
72102.5
73331.8
74961.2
76893.8
79125.1
82463.7
80738.4
86478.9
84552.7
91249.5
93820.8
89201
26769.6
27071.2
27471.8
29612.6
35159.8
36827.7
32560.9
30797.6
104110
100771
100443
97679.6
96803.6
94972.5
50821.7
48491.4
49276.3
47314.6
45735
43797.7
33728.2
34107
36127.6
35526.5
39376.5
36852.1
39940.5
40727.7
42912.6
21663.6
13042.6
23863.4
3240.44
3022.5
14003.9
18196.6
7803.79
19011.5
18882.8
28338.3
25375.9
31119.5
29632.5
51533.2
2802.32
10062.8
61419.4
60078.7
58249
55054.7
56181.7
57233
54069.3
52770.5
67516
67005.7
65824.6
66068.9
65440.7
64865.6
63344.4
63737.8
62570.9
61837
89310.2
90834.1
86547.3
85156.5
94762.1
93925.2
92915.2
92149.4
92305.7
84405.1
81221.2
79154.2
81670.2
83566
77632.6
77494.3
76767
78983.1
77986.4
78402.5
77291.2
77936.8
99205.1
99742.1
99060.6
98393.4
97132.6
98925.2
98713.4
96658.4
95998.4
95935.8
75954.6
75429.5
70112.2
73650.1
71856.2
75703.3
75110.4
68078.2
68227.6
67296.1
69147.6
101331
101484
100515
101582
102057
100942
101131
100180
100916
100528
100028
42900.1
43567.5
45582.5
40958.3
38950.3
37381.8
49296.6
51464.9
47070.7
53692.6
55410.1
67097.7
64953.2
69118.7
58534.3
56249.7
62584.8
60191.3
71004.4
72406.8
73787.4
75739.8
77713.6
78840.1
82879.3
81384
79630.6
87198.1
85372
83744.6
90365.2
92258.6
93213.7
88507.9
25184
25281.3
25820.6
28506.6
34498.4
35191
31131.8
32930.7
29106.7
101712
99147.9
98470.4
97045.8
94912.3
50026.9
48574.8
49009.6
46795.7
44807.8
43614
33275.4
33605.6
35475.2
34259.2
38008.2
35684
36955.2
39047.7
39453.6
41579.1
18736
3118.28
19817.3
2891.15
7354.4
11054.1
13267.2
2854.27
11811.5
10558.5
25901.3
23508.1
30930.2
27799.5
51810.2
50257.2
5964.59
6338.78
2780.68
60644.5
59180.7
58474.3
55412.6
54339.1
56640.2
52966.3
67014.4
66510
65627.9
65376
65969.6
64408.2
62751.1
63259.3
63490.5
61831.9
61390.5
88719.7
90294.4
87304
85682.4
94940.7
93602
92744.8
92014.4
85036.7
79739.8
78770.2
82604.7
82995.4
77650.8
76189
76298.6
77200
78998.8
77091.1
77372
99535.5
99961
99309.1
98098.7
97894.4
97181.4
99126.4
98695
96390.1
96382.9
75754.9
75220.4
72614.4
71695.3
75014.5
74132.9
67480.8
67780.5
67854.7
69426.3
101340
101459
102214
101656
101635
101172
101164
100444
100757
101097
100369
41519
41854.4
44264
45863
40035.6
37941.2
36370
48768.2
50799.2
47429
53009.7
54314.7
66500.9
65134.9
68831.4
57509.2
59186.7
55830.1
62495.8
60341.7
70567.8
71472.2
73264.1
75533.3
77523.3
82305.9
81011.7
79398.4
86890.8
84855.8
83894.4
91013
92084.8
93987.6
88626.2
23672.5
23920.6
25834.7
24056.2
26924.8
34449.3
29661.7
32185.5
27897
101192
99500.3
97954.5
96574.9
95604.3
47559
47926.4
45888
44941.3
42612.1
31992
32487
34309.5
33684.8
37984.5
34411.4
35698.8
38602.4
41402.7
17179.8
8184.99
2874.24
18269.3
3665.56
2827.69
5919.11
7169.44
3712.8
2783.37
23895.6
24577.6
20100.9
29611
28108.5
25460.1
50959.1
49450.9
2718.46
4417.9
2732.67
60193.5
58972.3
57812
55117.7
53493.3
55733.3
57025.4
52367.8
67004.5
66546.3
64960.3
64765.3
65489.5
63818.9
62217.9
62660.4
62773.7
61386
61603.5
60549.8
89062.7
90417.5
86978.8
86535.1
84395.2
94895
94333.9
92719.6
91444
85084.7
81707.9
80194.6
82091
82968.6
77536.6
76269.4
77658.6
75807
76429.3
79713.1
78461.7
75977.6
76532.7
99675.1
100241
98347.4
97882.3
97452.6
99774
99121
97045.4
96567.4
74889.4
72042.5
70426.7
74225.4
74741.4
72650.9
67408.4
67697.2
68557.2
101420
101654
103447
101404
101840
101167
101398
100435
101001
101231
100313
40366.6
41018.1
41779
43206.4
44821.9
38384.8
36635.3
35065.3
49377.7
51446.5
46561.9
53347.9
53763.4
66887.9
64387.1
69651.5
67913.1
58186.5
56483.5
54423.1
61372.9
63263.4
59259.8
71341.6
73593.4
72146.4
74495.4
76459.6
78367.9
81514.3
82995
80112.8
87667.4
86051.4
85074.9
90872.4
92813.1
93721.6
89200.4
22044.4
20270.8
22202.7
24089.4
22503.7
26074.1
33024.1
29643.1
28115.3
30769.1
26427
102444
99613.7
98154.7
97173.5
95270.3
47179
47561.9
46059.9
43886.8
42723.1
31739.3
31980
32477.5
37032.2
33960.5
34594.6
35855.2
37201.6
38983.1
40318.1
11661
2965.49
2793.11
14292.2
4611.99
4136.84
2724.52
4730.68
2757.93
3314.05
20534.9
20654.1
17880.1
29693
26552.8
23110.4
49880.1
51360.3
48299.5
2817.33
2694.31
2695.51
2648.28
59376.3
58192
54182.2
53497.1
52611.1
55324.4
56599.8
66521.4
66078.3
64702
64545
64944.5
65576.9
63451
62217.6
62433.8
62516.2
60523.2
61102.5
60068.8
88716.8
90131.6
87839.9
86191.2
85227.1
94593.5
96257
93506
92566
91778.4
83441.1
82203.7
82640.4
75788.7
75553.1
75930.5
75268.8
75326.7
79897.3
77818.3
74976.6
75714.9
99946
100270
98786.3
98520.6
98335.9
97703.9
100024
99836.4
99725.8
96957.9
96817.3
74858.4
70586.7
69964.9
73257.4
74078.3
71819.8
66991.4
67460.5
68350.3
101727
102665
101473
101436
101803
101329
101420
100750
101224
100979
101420
100650
39270.3
39662.8
40816.1
43475.9
45171.9
37595
35347.9
34350.5
48663.3
50741.9
47173.3
52264.7
52555.9
66086.8
64939.8
69244.8
68199.8
58088
55640.4
54297.7
61603.2
62741.1
59139.1
70268.3
72744.5
71936.5
74719.8
76318.1
78307.1
80978.3
82799
80018.9
87793.7
86305.9
84157.6
90050
91666.1
92507.3
94431.9
88615.8
20398.3
20737.3
24462.6
22582.2
20898.2
32489.7
28285.6
26685.3
30367.2
25160.4
100628
99481.8
98454.4
98022.6
96730.4
95815.6
46335.3
45259.3
44036.2
41725.3
30672.2
30876.1
31649.3
32847.7
33610.2
34866.9
36134
38075
40550.3
9672.28
2798.87
3401.37
3427.5
10674.7
8811.59
3890.94
4089.57
2692.94
2707.03
3520.18
2719.07
2686.36
17503.9
13761.4
28572.3
24134.7
27067.3
19140.3
49162.7
50942.5
47703.6
2634.07
2659.7
2615
59044.5
57854.6
53970.5
52730.4
51796.8
54485.3
55802.3
57049.6
66099.7
66376.6
64113.8
63884.7
64504.4
65171.2
62855.5
61702.6
61807.6
61934.1
60154.1
60492.5
61203.6
59398.2
88973
90402.5
87297.1
85745.9
84149.3
95361.9
96152.2
92917.6
94963.7
92743.6
91441.8
84411.3
81003
80950.9
82469.2
74694.6
75772.1
75179
74743.9
74462.6
79066.8
76235
73496.2
74707
99936.1
100495
98898.5
98687.5
98055.1
98163.4
99908.3
100046
99669.2
97607.5
97106.1
74115.9
70049.3
68847.2
73222.3
72125.3
70576.2
66555.5
67056.1
67697.7
101768
102447
101033
102027
102011
101502
101869
100675
101328
101202
101560
100542
38151.6
38745.9
41158.5
39417.7
42386.4
44200.4
36233.8
35148.3
33196.9
49377
51220.7
46336.5
51543
66708.8
64146.5
69415.4
67737
56918.9
55793
53491.7
61118.2
63023.6
60072.6
58074.8
70189.8
72461.6
71060.6
75541.9
73965.1
76776.7
77533.8
79220.4
81054.3
81891.1
83239.6
87124.7
85417.2
84554.7
93333.8
94191.6
18825.9
17223.7
19002.5
23834.3
20951.4
19548.8
31241
28120.1
26897.5
25183.2
29066.1
102496
99232.5
99743.5
98308.8
96968.7
95716.8
46111.9
45366.5
43038.6
41895.1
30214
31866.5
30478.7
32675.1
33686.1
34961.2
36014.5
36862.6
38499.7
39604.5
5564.56
2770.17
2732.11
2857.59
2763.07
2752.26
2920.98
4198.41
2645.04
2658.78
3004.16
2679.11
11594.2
10973.4
28389.6
21882.9
25782.2
16081.4
48119.3
49357.1
50123.3
46713.3
2619.08
2600.28
2586.88
58325.1
53168.4
52659
51898.7
54197.4
55430.3
56666
65602.9
65759.8
63713.3
63890.1
64022.5
64671.6
65198.3
62528
61348.7
61411.4
61960.8
59287.4
60174.8
60709.6
58962.5
83946.3
95972.9
97016.9
93972.9
95354.2
93484.8
83381.9
80956.9
80007.4
81926.2
74296
74467.8
74342.9
74178.3
72121.6
78355
76432.1
74333
100475
100660
99448.3
99514.9
98962.2
98709.8
98055.1
100613
99645.1
97615.9
73842.1
69001
68112.9
72417.4
71265.5
69863.1
66120.9
66658.5
67170.9
101558
101597
101816
102026
101690
101817
101014
101597
101450
101253
101760
100790
37177.1
38595.3
37370.4
40139.5
39043.6
42746.9
44144.2
36019.2
33688.9
32289.6
49154.2
50308.6
47010.1
44906.3
50335.3
51451.8
66396.5
64440.9
68492.5
57000.1
54741.8
52321.2
53791.4
62094.6
59725.2
57900.7
69216.3
71368.8
72899.6
75964.2