/*--------------------------------*- C++ -*----------------------------------*\
| =========                 |                                                 |
| \\      /  F ield         | OpenFOAM: The Open Source CFD Toolbox           |
|  \\    /   O peration     | Version:  v2012                                 |
|   \\  /    A nd           | Website:  www.openfoam.com                      |
|    \\/     M anipulation  |                                                 |
\*---------------------------------------------------------------------------*/
FoamFile
{
    version     2.0;
    format      ascii;
    class       surfaceScalarField;
    location    "1.6";
    object      phi;
}
// * * * * * * * * * * * * * * * * * * * * * * * * * * * * * * * * * * * * * //

dimensions      [0 3 -1 0 0 0 0];
oriented        oriented;


internalField   nonuniform List<scalar> 
21399
(
0.189635
0.684906
-0.657344
0.837172
0.716905
-0.0840234
0.665941
0.179988
0.690032
0.500232
0.325928
0.132069
0.585061
0.553317
0.799411
0.176657
0.549285
0.632697
-0.570287
0.889281
0.597755
-0.0141024
0.568532
0.185085
-0.409547
0.594726
0.746261
0.251129
0.381974
0.358554
0.523346
0.849825
0.409774
-0.112649
0.398932
0.160127
0.107771
0.495738
-0.0790601
0.820766
0.74264
-0.162765
0.676613
0.857041
0.249389
0.317955
0.0849644
0.481401
-0.358918
0.468721
0.428057
0.660677
0.0634914
0.680093
0.738232
0.543977
0.313583
0.387869
-0.137891
-0.37045
0.456721
0.126669
0.214686
0.255139
0.644359
-0.117365
0.777436
0.322923
0.357968
0.372169
0.36502
0.553829
0.636887
0.0181653
0.214523
0.292548
0.165387
0.419984
0.365609
-0.110055
0.561143
0.0848491
0.445144
0.386016
0.391295
0.730473
0.751186
-0.125094
0.679133
0.512131
-0.345837
0.364088
-0.1312
0.332232
-0.166611
0.400294
0.020062
0.275959
0.342889
0.0229925
0.290441
0.428077
0.489118
-0.0437236
-0.35004
0.741576
0.294229
0.436692
0.420506
0.33079
0.690365
0.806681
0.405181
-0.0410675
0.144775
0.299308
0.0331339
0.238604
0.319515
-0.313333
0.336344
-0.0229474
0.454238
-0.0258691
0.139373
0.410723
0.432383
0.309398
0.857589
0.763493
-0.299857
0.990642
0.50714
-0.384508
0.343496
-0.166611
0.311424
-0.252679
0.28585
-0.0140647
0.288942
0.0306634
0.112602
0.351781
-0.0153906
0.26606
0.325982
-0.284986
0.424476
0.125857
-0.201263
0.51079
0.279947
0.578009
0.722554
0.0412338
0.724762
0.266308
0.787352
-0.0730335
0.322909
0.0206063
0.303116
-0.0171834
0.308875
0.333839
-0.154634
0.267276
0.142707
-0.357692
0.342354
-0.0915955
-0.0229771
0.349019
0.562068
-0.13748
-0.283087
0.409028
0.36093
0.463489
0.0473973
-0.0580342
0.636361
0.664859
0.504882
0.742333
-0.36172
0.628249
0.425847
0.194285
0.283359
-0.262709
-0.225227
0.208077
0.0836718
0.242312
0.298219
-0.155485
0.289185
0.0532126
0.266246
0.0660023
0.271632
0.370961
-0.00995693
0.418434
0.102981
0.533607
0.545922
0.119198
-0.0926595
0.59767
0.719306
0.0233877
0.746092
-0.117599
0.528998
0.359669
-0.165345
0.278905
0.00447872
0.0970012
0.328423
-0.120308
-0.172212
0.255914
0.302064
-0.0596988
0.132903
0.119752
-0.239732
0.292992
0.212928
0.0533502
0.278968
0.436794
-0.165089
-0.293969
0.284076
0.423819
-0.00531595
0.0833396
0.450499
0.629537
-0.387871
0.507236
0.331241
0.209923
0.730844
0.769818
0.411579
0.106717
-0.213059
0.21756
0.283495
-0.186464
0.283769
0.0447
0.13563
0.062375
0.224111
0.302012
-0.169083
0.278662
-0.158888
0.208317
0.0847131
0.261705
0.419864
-0.140849
0.142885
0.254841
0.411147
-0.127013
0.405901
0.862316
0.706375
-0.0765909
0.646043
-0.138661
0.36643
-0.0351313
0.468089
-0.258073
0.0566751
0.674477
0.633805
0.136317
-0.193688
0.300432
0.0704623
0.0238971
0.115573
0.239659
-0.194928
-0.106916
0.24257
-0.234394
0.296809
-0.010247
0.1096
0.0859915
-0.20329
0.288045
0.120894
0.322172
-0.179245
0.365386
-0.110496
0.195209
0.279418
0.126534
0.461404
0.401174
0.24162
0.46504
0.569651
0.32955
0.108426
0.244329
0.69076
0.684914
0.597948
0.19354
0.207698
-0.137217
-0.195248
0.219172
0.294624
-0.179024
0.231014
0.00867461
0.0476658
0.0935598
0.220804
0.266751
-0.157128
0.272479
0.213656
0.0744273
0.334596
0.186189
-0.293218
0.18276
0.379246
-0.183992
-0.165321
0.291909
0.643045
0.653947
-0.188737
0.579123
-0.00931576
0.517638
-0.18797
-0.264067
0.37255
-0.0196984
0.62882
0.0621787
-0.0751672
0.760389
0.0201069
0.57807
0.18394
0.00962492
0.0124671
0.157428
-0.0378724
0.257067
0.0877517
-0.197069
0.20577
0.231628
0.282004
-0.188401
0.245166
-0.0243356
0.115373
-0.155762
0.230222
0.0414122
0.3419
-0.155676
0.316556
-0.133766
0.305848
0.073435
0.157944
0.140577
0.27226
0.663402
0.584233
0.0698921
0.390515
-0.375069
0.365855
0.142659
-0.447895
0.260008
-0.0752718
0.553891
0.64047
0.770907
-0.20337
0.213025
-0.19201
0.204494
-0.0345636
-0.205937
0.168081
0.0537193
0.278744
-0.190967
0.0345838
0.206404
-0.000609466
0.126273
0.0567955
0.18209
0.197708
-0.0823188
0.260857
-0.0306013
0.302305
0.160915
0.168575
0.273608
-0.200148
0.323301
-0.165342
-0.1706
0.311215
0.320117
-0.0478026
0.0429835
0.620701
0.627476
-0.468494
0.538515
-0.0778669
0.484808
-0.118868
0.422347
-0.279613
0.378024
-0.11796
0.2449
-0.402814
0.956967
0.237914
-0.179149
0.950335
0.176971
0.0360772
-0.00142386
-0.219241
0.1847
0.180476
-0.0123754
0.234214
0.0595251
0.00675689
0.21158
-0.192793
0.192207
0.221813
-0.0955107
-0.16587
0.222689
0.0162389
-0.234256
0.151951
-0.00470568
0.191245
0.289153
-0.128202
0.289544
-0.120926
0.103033
0.123171
0.123843
0.236817
0.0744321
0.189054
0.858923
-0.102143
0.72985
0.62918
-0.0905178
0.407055
0.303562
0.0984814
-0.383067
0.265163
-0.138108
0.778085
0.714613
0.236026
-0.163157
0.199257
-0.207327
0.205925
-0.022607
-0.159341
0.146984
0.0710797
-0.118947
0.178487
-0.150606
0.157374
0.0188091
0.181158
0.0110712
-0.222763
0.127279
-5.0162e-05
0.197419
0.0013538
0.185976
-0.104649
0.295931
0.161378
-0.190278
0.0693779
0.271779
-0.168711
0.278577
-0.155378
0.282907
-0.159009
-0.168646
0.243106
0.302396
-0.113309
-0.00713581
0.866352
0.527227
0.722951
-0.50449
0.414093
-0.0973284
0.460289
-0.156629
-0.292593
0.391138
-0.0273736
0.164337
0.537085
0.241284
0.726558
0.77332
0.179923
0.0193554
0.0465994
-0.158837
0.136244
0.21939
-0.0723885
-0.131816
0.202916
-0.260358
0.141426
0.0196611
-0.102969
0.198754
-0.177788
0.188882
0.26971
-0.142406
-0.180088
0.180057
0.0173528
-0.186899
0.188266
-0.000908811
0.165091
0.105675
0.212231
-0.0508155
-0.16331
0.23271
0.103167
0.109894
0.127583
0.0532617
0.129827
0.395785
0.470806
0.737914
-0.210517
0.552087
0.171062
0.565825
-0.151616
0.363062
-0.334473
0.177911
0.0567237
0.212933
-0.240259
0.332823
-0.168445
0.637301
0.174598
0.55216
0.57509
0.198502
-0.138803
0.158176
0.179998
-0.133382
0.223297
-0.0870396
0.0875941
0.107624
0.0641295
0.163692
-0.0222522
0.183365
0.0853115
0.0209868
0.167603
0.0213004
0.0376735
0.184977
-0.162618
0.161723
0.270888
-0.105759
-0.0576146
-0.240583
0.189803
-0.00783261
0.253156
-0.149959
0.245027
-0.135098
0.255402
-0.127764
-0.117953
0.171253
0.292707
-0.162847
-0.102724
0.57371
0.394191
0.343911
0.355434
0.449533
0.565411
-0.453326
0.301802
-0.0901732
-0.204844
0.382803
0.277625
-0.22086
0.346411
-0.133442
0.0926016
0.124296
0.578986
0.0585079
0.749895
0.557512
0.777737
0.0149448
0.594777
0.00853319
0.583921
0.191149
-0.0329536
0.0899319
0.0963388
-0.108233
0.195844
0.199961
-0.0923197
0.181459
-0.117311
-0.160563
0.138325
0.216285
-0.130956
0.212159
-0.157168
0.17849
-0.170334
0.208033
0.0146646
0.18867
-0.0269348
0.213305
-0.19624
0.0905074
0.0718746
-0.157716
0.149905
0.090341
0.0950996
0.120357
-0.234773
0.107056
-0.0634794
0.632396
0.638947
-0.294895
0.535738
-0.180201
-0.278745
0.728444
0.286823
0.525812
-0.223923
-0.369608
0.279503
0.0728168
0.0132506
0.125594
-0.258347
0.124934
-0.165717
0.283765
-0.159437
0.126863
0.62323
0.684541
0.763448
0.0145268
0.620388
0.0462893
0.547966
0.506237
0.613657
0.578429
0.148525
0.203662
-0.113713
0.195584
-0.0992271
0.0917443
0.0785536
0.11136
0.0557351
0.201082
-0.0627449
0.0577261
0.0550131
0.161292
0.0172169
0.0118142
0.175978
-0.148295
0.121368
0.0556143
-0.108014
0.198539
0.175489
-0.103596
0.221247
-0.0713199
0.287619
-0.197244
0.205662
-0.11054
0.227486
-0.107103
0.24054
-0.133458
0.112025
-0.104045
0.736669
0.325851
0.313219
0.240965
0.345707
0.624633
0.612812
-0.34589
0.122024
-0.0663417
0.254498
-0.181651
-0.278265
0.291556
0.304381
-0.178754
0.286998
-0.162033
0.118082
0.128218
-0.108075
0.731529
0.688305
0.655603
0.75141
0.0221463
0.597643
-0.433254
0.479156
0.0410841
0.506263
0.0727467
0.63517
-0.0128767
0.590524
0.208721
-0.0601733
0.081888
0.10187
-0.114963
0.206726
-0.110406
0.188979
0.149595
-0.0382217
0.195701
-0.139953
0.132969
-0.150672
0.208409
-0.12948
0.184514
-0.121294
0.138526
-0.182885
0.194719
-0.00688624
-0.00342984
-0.0292951
0.17683
-0.121196
0.0867208
0.245295
-0.0467361
0.117674
0.105526
0.00844432
0.11697
0.133468
-0.178424
0.0449801
-0.0663858
0.509235
-0.195917
0.431767
-0.190731
0.478037
-0.13225
0.704547
-0.0797276
-0.0665797
0.679543
0.397886
-0.275815
-0.317937
0.251633
-0.0237367
0.122759
-0.0263413
0.108277
-0.260367
0.0983628
-0.142254
0.245843
-0.117594
0.146272
0.585415
0.834772
-0.0501896
0.705997
0.572987
0.178617
0.638011
0.464401
0.014508
-0.189491
0.695202
0.30033
0.00245872
0.372909
0.281339
-0.00760457
0.621566
0.586025
0.0792608
-0.144617
0.0844571
-0.0819283
0.163829
0.191653
-0.0897687
0.0346448
0.0963347
0.0443757
-0.164079
0.12587
0.0684705
0.155432
-0.0224507
0.0632349
0.187923
-0.0493799
0.181059
0.136757
0.133334
-0.135855
0.106568
0.124125
0.167631
-0.0808926
0.12091
0.185924
-0.0682376
0.190694
-0.0851534
-0.191643
0.200113
-0.0746512
0.204609
-0.0711183
-0.170465
0.215459
0.11955
0.442767
-0.454863
0.259026
-0.0230357
0.287364
-0.426979
0.294797
0.429621
0.275101
0.599978
-0.0290335
-0.024146
-0.288989
0.265284
-0.1662
-0.286939
0.260633
0.276307
-0.168001
0.250716
-0.152326
0.103619
-0.289957
0.172396
-0.011234
0.596808
0.127346
0.707624
0.522959
0.694947
0.608398
-0.0371471
0.674521
0.274615
-0.394939
0.409221
0.247849
0.446673
0.283663
-0.022236
0.263659
0.583818
-0.0954948
0.68053
0.198173
-0.118894
0.168
-0.083532
0.109736
-0.000239329
0.0656747
-0.123629
0.158286
0.185782
-0.0894308
0.11913
-0.0747454
0.00225073
-0.130585
0.199069
-0.163885
0.141445
0.152557
-0.0893077
0.103192
0.16684
0.0142374
-0.00251523
0.195089
-0.088513
0.201669
-0.0775259
0.0859636
0.209575
-0.0886434
0.122471
0.116536
-0.0898116
0.12998
-0.178139
0.107034
-0.0509028
0.037331
0.698432
-0.255548
0.580876
-0.321782
-0.386975
0.363985
-0.0995588
0.438827
-0.143967
-0.428574
0.703804
0.171551
-0.384405
0.355422
-0.292407
0.268299
-0.0216156
0.110144
-0.0317387
0.0827444
-0.23857
0.0862699
-0.134926
0.200585
-0.0281674
0.724297
0.709669
-0.224901
0.748033
0.0471707
0.647943
0.383667
0.351912
0.321941
-0.245306
0.519669
0.163704
-0.375659
0.623042
0.797669
0.317455
-0.0339229
0.295045
0.280463
-0.0169091
0.487595
0.676352
0.108885
0.049121
0.0356063
0.141535
-0.031788
0.141306
-0.111395
0.177081
0.162676
-0.00437705
0.111048
0.073258
-0.14215
0.144413
0.0645143
0.0351965
0.0300582
0.1919
-0.0886901
-0.139639
0.153892
0.154296
-0.0437704
0.151787
0.0632803
0.132071
0.178672
-0.0926939
0.0900474
0.183212
-0.0607264
0.199771
-0.0832158
-0.228185
0.138401
-0.0981826
0.206907
-0.0998586
0.132326
0.171642
-0.134297
0.445022
0.253547
0.32543
0.0422636
0.339335
-0.306007
0.162082
0.446278
0.257674
0.616713
-0.116062
0.0494529
0.243546
-0.265126
0.298828
-0.188651
-0.275375
0.243667
0.258736
-0.175964
0.229164
-0.142871
0.0656777
0.138792
-0.166943
0.0587524
0.665721
0.0311306
0.67873
0.795393
0.706856
0.830117
0.808788
0.143712
-0.239566
0.403046
0.658184
-0.0355545
0.403554
0.39324
0.246427
0.393974
-0.0990919
0.255815
0.0189746
0.238809
0.483383
0.19211
0.14859
-0.0396914
0.170651
-0.121515
-0.105351
0.140968
-0.143418
0.111642
-0.000832692
0.0336726
-0.139567
0.135201
0.00570667
-0.123948
0.197219
0.00485818
0.176622
-0.112102
-0.133327
0.168532
-0.12503
0.155098
0.0522797
0.0599133
0.0612118
0.100593
0.165958
-0.102673
0.167109
-0.0350191
0.186136
-0.0960711
0.139063
0.0839124
0.252717
-0.114292
0.108744
0.0717969
0.182117
-0.0497773
0.0478336
0.588142
-0.334504
0.565457
-0.239942
-0.403911
0.446245
-0.0645144
0.333801
-0.17169
-0.501465
0.759285
0.115391
-0.266106
0.150075
0.305506
-0.25602
-0.0318002
0.0337364
0.0701135
-0.0224154
0.0532251
-0.227522
0.084674
-0.161825
-0.0230182
0.085794
0.697026
0.679126
0.45752
0.338025
0.0945048
0.612519
0.639393
0.190883
0.362348
0.445533
-0.323841
0.467287
0.154241
0.0790021
0.338313
0.319426
-0.326065
0.290297
0.765072
0.73088
0.303813
-0.0574926
0.204608
0.252415
0.258436
-0.0197146
0.479754
0.636806
-0.167183
0.127506
0.00348298
0.0194646
0.164013
-0.05236
0.163194
-0.13289
0.166573
0.0112642
-0.116241
0.12196
0.0809905
-0.127875
0.132746
0.0433012
0.053862
0.0435104
0.02222
0.15679
-0.104496
-0.113138
0.173066
0.182177
-0.120946
0.173229
-0.0726321
0.070559
-0.135215
0.10021
0.0509344
0.0861224
0.166089
-0.0270089
0.17312
-0.089192
-0.233339
0.119071
-0.124571
0.184328
-0.112514
0.116325
0.188323
-0.140475
0.409404
0.178817
0.231035
-0.532491
0.29262
-0.0861761
-0.403537
0.339076
-0.0697001
0.13384
0.413664
0.345769
0.524893
0.324073
-0.173974
-0.270219
0.0142194
0.219836
-0.251612
0.208894
-0.175137
0.306409
-0.236265
0.24998
-0.272372
0.228624
-0.175375
0.189918
-0.105225
-0.192284
0.169287
-0.106472
0.0138492
0.683339
0.0262479
0.653035
0.552146
-0.22742
0.565582
0.626516
0.412111
0.60465
0.141022
0.341584
-0.187473
-0.229332
0.308191
-0.243617
0.562717
0.452054
-0.161942
0.482224
0.282068
0.570379
0.159945
0.200858
0.325289
-0.120786
0.195641
0.0567135
0.175865
-0.16918
0.64811
0.466855
0.0143809
0.146343
-0.142847
-0.128872
0.148349
0.114225
0.0353331
-0.134834
0.146113
-0.0069022
0.130301
-0.0492997
-0.00207588
0.182108
-0.138806
0.135006
-0.0811429
-0.118809
0.162324
-0.107419
0.129646
0.0358612
0.0685856
0.0805431
0.171895
-0.101342
0.141052
-0.0408334
0.154903
-0.103956
0.138297
-0.0521611
-0.135609
0.108615
0.0375248
0.051871
0.203043
-0.0839499
0.0597777
0.0758269
-0.0241353
-0.431368
0.610254
0.487005
-0.255911
0.500405
-0.207727
-0.50123
0.415113
-0.1621
-0.283174
0.213502
-0.149309
0.66044
-0.31455
-0.174943
0.699925
0.0538737
0.076029
-0.243039
0.257275
-0.0525092
-0.0426976
0.131297
-0.00761445
0.0145593
-0.222161
0.116953
-0.052852
0.0965943
0.709738
0.651906
-0.0694934
0.62176
0.496202
-0.02843
0.655111
-0.300685
0.712909
0.304079
0.352896
-0.212037
0.112147
0.137707
0.389535
-0.0814641
0.208176
0.286417
0.276022
0.190809
-0.10919
0.59083
0.748063
0.46067
0.446057
0.247933
-0.0471439
0.127077
0.28748
-0.170535
0.227187
0.2615
-0.0856981
0.641832
-0.150193
0.164591
-0.00383394
0.00551457
0.181316
-0.0670766
-0.109763
0.145109
0.166111
-0.0199838
0.12341
0.116827
-0.104965
0.102898
0.0633024
-0.0037986
0.0907484
0.054911
0.168511
-0.0388562
-0.112578
0.148455
0.122357
-0.0537602
0.153728
-0.0731923
0.0523774
0.11408
0.0343543
-0.162737
0.11059
0.148646
-0.0400189
0.153538
-0.116001
-0.098675
0.150556
0.127088
-0.211018
0.174852
-0.115057
0.17535
-0.0995052
0.124529
0.0557036
0.435389
0.244547
-0.410105
0.20242
0.00505153
-0.419931
0.257879
-0.206394
-0.280696
0.131411
0.344778
0.31575
0.385491
-0.189151
0.262267
-0.186214
-0.0234007
-0.245602
0.193117
-0.214069
0.171388
-0.0827518
-0.162392
0.154796
-0.192289
0.206867
-0.0753178
0.105862
-0.1587
0.187644
-0.0910318
0.104804
0.605073
0.0627616
0.589274
0.593477
-0.167414
0.663734
0.760065
0.545622
0.648954
0.177338
0.313939
-0.201899
0.306401
-0.168796
0.232372
0.431156
-0.223193
-0.0800836
0.355898
0.397678
-0.207037
0.365323
0.224961
0.280955
0.466488
0.484058
-0.0238405
-0.0496176
0.495384
0.214285
0.313115
-0.186114
0.116874
0.141426
0.0488098
0.592089
0.132524
0.0320791
0.1119
-0.115722
-0.148789
0.154318
0.0715662
0.101444
0.0401541
-0.154491
0.134521
-0.0253642
0.148229
-0.0313894
-0.0515822
0.150782
-0.0874841
-0.122494
0.118685
-0.0317556
0.149794
-0.0948788
0.110941
0.00978862
-0.0142677
0.0787725
0.0510843
0.155564
-0.103217
0.0154164
-0.13253
0.1669
-0.0219266
0.113534
0.0345701
0.18601
-0.0589061
-0.0361501
0.060306
-0.175174
0.0756851
-0.0506298
-0.49742
0.553183
-0.138307
0.573768
-0.252826
0.474675
-0.272217
0.379191
-0.374105
0.464288
-0.206366
-0.327578
0.121216
-0.196147
0.652421
-0.336578
-0.225294
0.610868
0.0731383
-0.289769
0.103578
0.251581
-0.274962
-0.0741943
-0.09663
0.161137
-0.243869
0.0444923
0.233129
-0.0783177
-0.195323
0.120024
-0.0894478
0.0289573
0.0949935
0.667961
0.588085
-0.156044
0.74966
0.507802
0.445424
0.314769
-0.0243946
0.570136
0.0648103
0.584234
0.342064
-0.164846
0.104388
0.144224
0.289504
-0.0572287
0.374469
0.0564968
0.174309
0.294176
0.306057
0.13489
0.645685
0.708479
0.514668
0.471103
0.0280937
0.253988
-0.137185
-0.125821
0.26717
0.580949
0.126545
-0.0944551
0.167192
-0.0552808
0.0386077
0.149984
-0.0784078
0.149475
-0.0480224
0.122197
-0.0820343
0.144449
-0.00991572
0.122879
0.113073
0.0706247
0.0559012
-0.16318
0.0756808
-0.0445103
-0.127503
0.0957254
0.156957
-0.0460099
-0.113029
0.122827
-0.137426
0.123171
-0.0342494
0.085798
0.022732
0.136862
0.0280408
0.0336209
-0.124584
0.140017
0.0423322
-0.133991
0.11208
0.149058
-0.0355079
-0.110042
0.144628
0.110202
-0.169093
-0.185579
0.149445
-0.125257
0.139687
-0.0639907
0.0984416
0.558069
-0.00481305
0.419824
0.348544
0.221902
0.10701
0.0902247
0.121519
-0.327863
0.350858
-0.229619
0.055453
0.717315
0.274394
0.279977
-0.206819
0.215917
-0.112325
0.00503814
-0.233457
0.159277
-0.251346
0.154735
-0.0723072
-0.0107235
0.20395
-0.159435
0.125649
0.234712
-0.114665
-0.146922
0.0574863
-0.117955
0.153216
-0.0582128
0.154514
0.513534
-0.0395564
0.627752
0.339812
0.409979
-0.0910944
0.59899
0.60002
0.654701
0.559942
0.479127
0.124568
0.290522
-0.186238
0.269741
-0.125605
-0.285351
0.228035
-0.297815
0.354163
0.285841
-0.111651
-0.0379381
0.331963
-0.103559
0.409384
0.287031
-0.15224
0.126717
0.518423
0.227384
0.48053
0.640847
-0.168803
0.639512
-0.176339
0.204356
0.265377
0.128105
0.12813
0.0907701
-0.169185
0.749226
0.0923047
0.0727512
-0.122411
0.06714
-0.0837919
0.0679585
0.071076
0.108941
0.125373
-0.135276
0.159718
-0.0368248
0.148011
-0.0349258
0.124521
-0.0538868
-0.0687535
0.124649
0.146671
-0.071013
-0.139933
0.0953936
-0.0442313
-0.138156
0.0921414
-0.0145876
-0.0108081
0.142079
0.15178
-0.123787
-0.0791482
0.112733
0.0299881
0.141697
-0.0993498
0.161483
-0.0493891
-0.143161
0.107668
0.00148097
0.171058
-0.0608422
-0.0196304
0.0144438
-0.146535
0.0825556
-0.0480808
0.382526
-0.387302
0.547216
-0.12734
-0.172078
0.520671
0.643521
-0.421571
0.392788
-0.28575
0.447396
-0.357142
0.367317
-0.24578
0.0230151
-0.335699
0.106102
-0.280224
0.454659
0.262736
-0.391221
0.66569
0.00911297
-0.242048
0.129736
0.239257
-0.234201
-0.092052
-0.0872973
-0.210819
0.138504
-0.181347
0.170634
0.0753024
-0.055686
-0.196809
0.0821622
-0.139309
0.0352721
0.112856
0.474065
0.621121
-0.305012
0.71511
0.294081
0.222213
0.377886
0.278328
0.37647
-0.00335418
0.563386
0.47878
0.000436686
-0.202396
0.32687
0.00507686
0.0834219
-0.273032
0.147353
0.0255561
-0.0120861
0.252181
0.10187
-0.299787
0.188039
0.214132
0.228232
0.240316
-0.012847
0.174537
-0.0414024
0.559211
-0.35083
0.577764
0.438621
0.471037
0.288187
-0.06874
0.251154
-0.123111
0.231809
-0.103734
0.221861
-0.131144
0.432776
0.315529
0.137816
-0.0454986
0.151571
-0.0788067
0.141513
-0.0743612
0.0759389
0.144953
-0.0769848
0.128857
-0.0577736
0.111719
-0.00277386
0.110918
0.0144648
-0.0107455
0.111198
0.0760019
0.0910733
0.0779008
-0.013511
-0.148697
0.0776465
-0.0533438
0.107501
0.134776
-0.0426368
0.123241
-0.120618
0.109822
0.0628882
-0.0110998
-0.102223
0.132224
0.0394854
0.0621473
-0.120444
0.0710646
0.141903
-0.0342233
-0.117711
0.119203
0.0855034
-0.146333
0.101028
-0.120647
-0.125451
0.139908
-0.0428856
0.0938348
0.51245
-0.129885
0.256266
0.37518
0.385152
0.129496
-0.0287492
0.161677
0.0102013
-0.234442
-0.0113258
-0.211415
0.315239
-0.209117
-0.0409467
0.451366
0.553041
-0.290234
0.688708
-0.0229395
-0.226748
0.235874
-0.0969991
0.00169148
-0.255403
0.163368
-0.218974
0.131689
-0.0401845
-0.116885
-0.134282
0.209639
-0.173603
0.117935
0.21362
-0.13145
-0.146554
0.00725835
-0.111272
0.00159464
0.696355
-0.28134
0.902583
0.190064
0.525137
0.772958
0.656305
0.566612
0.563916
0.218985
-0.213982
0.208209
-0.124844
0.243815
-0.0965222
-0.24821
0.273659
-0.245091
0.23291
0.258889
-0.157115
-0.0571293
-0.0768342
0.290871
-0.100168
0.328276
-0.259609
0.499667
-0.248906
0.235978
-0.0744636
0.101421
0.45734
0.139807
0.43748
0.577961
0.57202
-0.26692
0.554788
0.153069
0.233681
-0.0990516
0.119954
0.108643
0.129895
0.415868
-0.356636
0.671561
0.106088
0.0627188
-0.132048
0.0576973
-0.0560984
0.051879
0.05395
-0.109865
0.107091
-0.0943234
0.108797
-0.091139
0.0803996
0.106967
0.0042395
-0.0746675
0.15068
-5.96711e-05
0.116591
-0.0387125
0.103058
0.161128
-0.0835491
-0.110791
0.0574045
-0.00333934
0.0249088
-0.116976
0.0743217
0.00263598
-0.0106134
0.115753
0.107932
-0.0451033
0.0967687
0.0145245
0.126217
-0.0867207
0.144494
-0.0823359
0.139301
-0.0682273
-0.115885
0.0816718
0.00332649
-0.049362
0.134874
-0.0452956
-0.191808
0.0711731
-0.051886
-0.147164
0.104292
-0.0533179
-0.455531
0.325675
-0.199233
0.430779
-0.0555631
0.568188
-0.18299
0.56031
-0.405316
0.376594
-0.243615
0.324012
-0.313792
0.276681
-0.287993
0.103838
0.140931
-0.350029
0.221152
-0.262081
-0.105858
0.557284
0.447239
0.398551
-0.439454
0.416549
-0.218167
0.121189
0.184463
-0.182761
-0.0555931
-0.0864601
-0.212896
0.172625
-0.151903
0.0349628
0.0793538
0.0360668
-0.0950123
0.0295154
-0.160955
0.14039
-0.133118
-0.129639
0.131246
0.41511
0.659669
0.243034
0.123121
0.402101
0.484104
0.288973
0.317099
0.339293
0.257126
0.30956
-0.0870878
0.651091
-0.0293048
-0.00582627
0.118922
-0.236232
0.139652
0.248099
0.0254668
0.326568
-0.0937684
0.181963
0.169332
-0.207633
0.150434
0.190597
0.0685105
0.232479
0.0282668
0.173537
0.0327274
0.424128
-0.103221
0.540357
0.610127
0.214922
0.406754
0.147802
-0.083225
0.139745
0.24511
-0.12522
0.20822
-0.0996293
0.225829
-0.095985
0.392396
0.380272
0.290648
0.12448
-0.0183803
0.141491
-0.0787604
0.12952
-0.0718126
0.0508769
-0.0837768
0.135662
-0.0649568
0.11891
0.0421352
-0.136334
0.0420198
0.0341377
-0.0559272
-0.0827735
0.0870195
0.0679154
-0.104081
0.104028
0.12235
-0.0139395
-0.12459
0.0409661
-0.067241
0.0980182
-0.101421
-0.118444
0.143329
-0.0441512
-0.0892592
0.0919048
0.114347
-0.124951
0.0705873
0.148457
-0.0517726
-0.0870797
0.101613
0.0391459
0.0577844
0.056976
0.04613
0.139149
-0.0574685
-0.115539
0.118875
-0.134067
0.0847123
0.0052433
-0.135308
0.0900218
-0.0641264
-0.155314
0.103439
-0.0510102
0.0858431
0.545047
-0.219345
-0.443995
0.244784
0.512668
0.36209
0.120891
0.478147
-0.101532
-0.407438
0.163846
-0.0834078
-0.037095
-0.184143
0.310842
-0.169899
-0.12886
-0.0776077
0.47026
-0.134964
0.582259
0.683898
-0.285287
0.537194
-0.120617
0.259479
-0.138282
0.0767292
0.153879
-0.20947
-0.169461
0.0830155
0.020675
0.20729
-0.172413
0.169834
-0.090348
0.165319
-0.129172
0.0703808
-0.123956
0.153475
-0.0205573
-0.00186236
0.732297
0.644632
-0.39585
0.638953
0.607321
0.659295
-0.275287
0.564333
0.648938
0.375873
-0.214901
0.185526
-0.183889
0.178014
-0.0650111
0.229104
-0.0895134
-0.142899
0.168309
-0.277646
0.183779
-0.0876399
0.269512
0.29929
-0.130061
-0.127286
0.281495
-0.0910041
0.34986
-0.231861
0.464105
0.209777
-0.181582
0.226291
-0.0528184
0.638588
0.303315
0.00909683
0.530911
0.0764207
0.533071
-0.228452
0.376086
0.161823
0.0171989
0.166265
0.213175
-0.0734704
0.0829425
0.126153
0.117148
0.771711
-0.403725
0.693809
0.0352291
-0.114707
0.0963366
0.026795
0.0507694
-0.135385
0.0635824
-0.0844996
0.0351365
0.031587
-0.0643145
0.106446
-0.068318
0.110345
-0.0892939
0.123441
0.0481056
0.00252607
0.09132
-0.0233967
0.103441
0.0188592
0.0894665
-0.0861697
0.12705
0.0307242
0.0469603
0.0789943
-0.0711004
0.0269249
-0.0330372
-0.0702542
0.140765
0.0344202
0.0889098
-0.0139166
0.12705
-0.087894
0.108042
-0.05025
0.14424
-0.0872519
0.117089
-0.0709469
0.0614162
-0.044036
0.116986
-0.0322663
0.122236
-0.152109
0.0879935
-0.0486582
-0.161788
0.110791
-0.0759312
-0.504365
0.285042
0.0341696
-0.259565
0.484362
0.0283617
0.663423
-0.301308
0.605286
0.271658
-0.373179
0.489214
-0.325354
0.301604
-0.384999
0.250952
-0.288033
0.126714
-0.307344
0.137457
0.136824
-0.265671
-0.211279
0.133679
-0.100817
0.571136
0.548991
0.481492
0.251949
0.484699
-0.211809
0.0735517
-0.134543
-0.0155698
-0.00224012
-0.128769
-0.151823
0.0407699
-0.179826
0.0893759
0.223696
-0.15473
-0.117115
-0.00683559
-0.0263969
-0.137661
-0.129677
0.127823
0.33652
0.0111078
0.633621
0.633776
0.00524842
0.457604
0.149816
0.275841
0.383533
0.470579
0.0938173
0.306369
0.342665
-0.146324
0.522258
-0.0369467
0.245211
-0.0597493
0.164033
-0.188608
0.0990457
0.10226
0.200158
-0.0318939
0.262373
-0.078687
0.211548
0.178396
0.132213
0.0824207
0.362812
-0.0130919
0.130787
0.23543
0.0446425
0.147291
0.234301
0.417969
-0.114835
0.426804
0.606783
0.766804
0.261069
-0.0268356
0.144106
0.0927641
-0.0999201
0.182818
0.20623
-0.0801189
0.223646
-0.106543
0.550291
0.220842
0.43655
0.256694
-0.0819781
0.117215
0.0143672
0.109331
-0.0825269
0.1171
-0.0663213
0.11805
-0.0544578
-0.0812146
0.116352
-0.0944802
0.126072
0.025228
-0.112599
0.0442869
0.0210585
0.104988
0.0184609
-0.0644866
0.093854
0.0815993
-0.0835721
0.102357
0.0183455
-0.11247
0.0262378
0.138105
-0.0111341
-0.0818162
0.104142
-0.057242
0.0884958
-0.00952505
-0.0831737
0.110059
0.0841882
-0.0892754
0.123615
0.123494
-0.0346677
0.113145
0.0201584
0.0940004
0.0298491
-0.129233
0.0582982
0.116695
-0.0552669
-0.133657
0.0896306
-0.133413
0.101156
-0.00743224
-0.0456534
-0.14937
0.100724
-0.0385663
0.0407758
0.559877
-0.274823
0.451358
-0.417178
0.191809
-0.413873
0.442259
0.249572
0.258585
-0.145509
0.116049
-0.0237355
-0.134033
-0.261176
-0.0268461
-0.134453
-0.17051
0.315976
-0.178508
-0.131981
0.424876
0.0391197
0.509925
-0.024254
0.505785
-0.384153
0.636134
0.100583
0.249552
-0.176
0.11502
0.15007
-0.165631
0.185493
-0.187746
0.0213109
0.0706588
0.16253
-0.121152
0.144174
-0.0547091
0.00800319
-0.13752
0.130705
-0.149932
0.123469
-0.00982748
0.642964
0.644969
0.624528
0.648286
0.733531
0.620478
0.72628
0.616133
-0.201855
0.164853
-0.204348
0.144548
-0.0378815
-0.124584
0.223583
0.174329
-0.0721084
0.142393
-0.205441
0.126689
-0.00275442
0.214234
-0.103136
0.281445
-0.149851
0.28198
0.236775
-0.15443
-0.304341
0.291135
-0.21437
0.345038
-0.166462
0.401714
-0.185061
0.229642
-0.0378204
-0.221849
0.648328
-0.133167
0.739442
0.411886
0.354341
-0.174407
0.435278
-0.208298
0.181412
0.119186
0.0248963
0.211917
0.106274
-0.0255255
0.143483
0.105328
0.527931
0.656963
0.66807
-0.0794161
0.0937922
0.0299217
0.0345815
0.0517374
-0.125579
0.0711312
0.0218732
0.0615896
0.113709
0.0916818
-0.0473899
-0.0838931
0.104958
-0.0997135
0.118183
-0.0317165
-0.03033
0.111936
0.0544561
0.0648621
0.0374326
0.0965227
-0.0703353
-0.100307
0.0891137
0.0222732
0.066192
-0.103033
0.0934568
0.117342
-0.00732642
-0.0450328
0.0348932
0.103502
0.0200505
0.068772
0.108599
0.00455687
-0.0691948
0.0893609
0.0248133
-0.0707873
0.100646
0.114017
-0.0557096
0.0533414
-0.043773
0.142077
-0.0409115
0.134655
-0.138134
0.0924912
-0.0373986
0.110515
-0.149068
0.110398
-0.069613
-0.511991
0.237177
-0.320175
0.569788
-0.127513
0.577947
-0.328366
0.592952
-0.334363
-0.367853
0.222354
-0.251794
-0.305931
0.282201
-0.268412
0.134386
0.205481
-0.232321
0.181532
0.108551
-0.279049
-0.285674
0.107176
-0.20935
0.0773806
-0.213231
0.63816
-0.583566
0.622728
0.485703
0.29259
0.0526192
-0.514943
0.615553
-0.176804
0.000810705
-0.0943187
0.019824
-0.215279
0.0281112
-0.155456
-0.143307
0.0231565
-0.159031
0.104117
0.152872
-0.149223
-0.121562
-0.0159456
-0.0192797
-0.0356831
-0.131383
0.0653426
0.579686
-0.101572
0.726194
0.567445
0.0809322
0.297173
0.436444
0.624766
-0.00421037
0.461361
0.26499
0.447563
0.168624
-0.0395471
0.201458
-0.0569578
-0.163478
0.125551
0.0567867
0.0600611
0.129302
0.18718
-0.0448319
0.0312715
0.248954
-0.122319
-0.19981
0.196992
0.111042
-0.0229856
0.0990363
0.082089
0.0751446
0.0766647
0.381202
-0.0362972
0.214587
0.227132
0.149304
0.213183
0.51473
0.214821
0.524158
0.56873
0.158239
-0.0598795
0.183103
0.157093
-0.0508518
0.131531
0.174573
-0.0311302
-0.064846
0.17014
-0.299888
0.827192
0.356594
0.375667
0.29185
0.123615
-0.0298148
0.106984
-0.0770544
0.101829
-0.06724
0.107984
-0.0562391
0.106813
-0.0356737
-0.0731737
0.0950434
0.108412
-0.0468176
0.0405263
0.00779385
0.0610251
0.00525314
0.0878606
0.0802276
0.0981084
-0.043714
-0.0780679
0.115411
-0.00383406
-0.131425
0.0610315
0.107314
-0.0182665
-0.109214
-0.043083
0.0142693
0.0995985
-0.0061685
-0.0981426
0.0907562
0.0785925
0.115282
-0.0813735
0.101404
0.116479
-0.0477437
0.101933
-0.0973661
0.131623
-0.0422534
0.0952721
-0.0704499
0.0432379
0.133702
-0.0330465
-0.117749
0.0620477
0.116664
-0.0633136
-0.130521
0.0867583
-0.127492
0.0865907
0.00328064
-0.038021
-0.127851
0.0904633
-0.0173238
-0.0386592
0.0470579
0.564994
-0.327812
-0.552966
0.232798
0.0548677
0.450442
0.264593
0.230637
-0.330609
-0.421742
0.169954
-0.393813
0.0878871
-0.139537
-0.0629246
-0.259422
-0.0507822
-0.177114
-0.201658
-0.199253
0.306436
0.378131
0.260089
0.387559
0.235205
0.355723
0.130017
0.648349
-0.402638
0.455276
0.212935
0.189266
-0.188509
0.174495
-0.268803
0.169325
-0.149694
0.220076
-0.192719
0.0137733
-0.181249
0.0384945
-0.123175
0.146945
-0.0186749
-0.0278883
-0.00457353
-0.129415
0.113477
-0.13836
0.119093
-0.149387
0.113372
0.63285
0.478185
0.713143
0.542364
0.56222
-0.160402
0.596925
0.464439
0.443398
0.546808
-0.204638
0.16504
-0.169884
0.112888
-0.0791303
-0.150181
0.206912
0.17182
-0.111796
0.205732
-0.0764786
0.160849
0.190465
-0.159241
0.0680977
0.126295
0.0706364
0.237279
0.214217
-0.163879
0.262848
-0.146861
0.228889
0.214684
-0.139602
0.248425
-0.171839
-0.280105
0.243716
-0.18279
0.397252
-0.131856
0.358872
0.211291
-0.0620391
-0.277477
0.490456
0.620018
-0.105591
0.476484
0.0472906
0.396629
0.17165
0.095017
0.183101
-3.48672e-05
0.123685