/*--------------------------------*- C++ -*----------------------------------*\
| =========                 |                                                 |
| \\      /  F ield         | OpenFOAM: The Open Source CFD Toolbox           |
|  \\    /   O peration     | Version:  v2012                                 |
|   \\  /    A nd           | Website:  www.openfoam.com                      |
|    \\/     M anipulation  |                                                 |
\*---------------------------------------------------------------------------*/
FoamFile
{
    version     2.0;
    format      ascii;
    class       pointVectorField;
    location    "1.6";
    object      pointDisplacement;
}
// * * * * * * * * * * * * * * * * * * * * * * * * * * * * * * * * * * * * * //

dimensions      [0 1 0 0 0 0 0];


internalField   nonuniform List<vector> 
16294
(
(0 0 0)
(0 0 0)
(0 0 0)
(0 0 0)
(0 0 0)
(0 0 0)
(0 0 0)
(0 0 0)
(0 0 0)
(0 0 0)
(0 0 0)
(0 0 0)
(0 0 0)
(0 0 0)
(0 0 0)
(0 0 0)
(0 0 0)
(0 0 0)
(0 0 0)
(0 0 0)
(0 0 0)
(0 0 0)
(0 0 0)
(0 0 0)
(0 0 0)
(0 0 0)
(0 0 0)
(0 0 0)
(0 0 0)
(0 0 0)
(0 0 0)
(0 0 0)
(0 0 0)
(0 0 0)
(0 0 0)
(0 0 0)
(0 0 0)
(0 0 0)
(0 0 0)
(0 0 0)
(0 0 0)
(0 0 0)
(0 0 0)
(0 0 0)
(0 0 0)
(0 0 0)
(0 0 0)
(0 0 0)
(0 0 0)
(0 0 0)
(0 0 0)
(0 0 0)
(0 0 0)
(0 0 0)
(0 0 0)
(0 0 0)
(0 0 0)
(0 0 0)
(0 0 0)
(0 0 0)
(0 0 0)
(0 0 0)
(0 0 0)
(0 0 0)
(0 0 0)
(0 0 0)
(0 0 0)
(0 0 0)
(0 0 0)
(0 0 0)
(0 0 0)
(0 0 0)
(0 0 0)
(0 0 0)
(0 0 0)
(0 0 0)
(0 0 0)
(0 0 0)
(0 0 0)
(0 0 0)
(0 0 0)
(0 0 0)
(0 0 0)
(0 0 0)
(0 0 0)
(0 0 0)
(0 0 0)
(0 0 0)
(0 0 0)
(0 0 0)
(0 0 0)
(0 0 0)
(0 0 0)
(0 0 0)
(0 0 0)
(0 0 0)
(0 0 0)
(0 0 0)
(0 0 0)
(0 0 0)
(0 0 0)
(0 0 0)
(0 0 0)
(0 0 0)
(0 0 0)
(0 0 0)
(0 0 0)
(-0.00203445 -0.0198805 0)
(-0.00199875 -0.0203484 0)
(-0.00196312 -0.0208067 0)
(-0.00192762 -0.0212552 0)
(-0.00189231 -0.0216937 0)
(-0.00185726 -0.0221221 0)
(-0.0018225 -0.0225403 0)
(-0.0017881 -0.0229482 0)
(-0.0017541 -0.0233456 0)
(-0.00172053 -0.0237325 0)
(-0.00168745 -0.024109 0)
(-0.00165487 -0.024475 0)
(-0.00162284 -0.0248305 0)
(-0.00159138 -0.0251757 0)
(-0.00156052 -0.0255105 0)
(-0.00153027 -0.0258351 0)
(-0.00150066 -0.0261496 0)
(-0.0014717 -0.0264541 0)
(-0.0014434 -0.0267487 0)
(-0.00141578 -0.0270336 0)
(-0.00138884 -0.0273089 0)
(-0.0013626 -0.0275749 0)
(-0.00133705 -0.0278317 0)
(-0.00131219 -0.0280795 0)
(-0.00128803 -0.0283184 0)
(-0.00126457 -0.0285487 0)
(-0.0012418 -0.0287707 0)
(-0.00121971 -0.0289844 0)
(-0.00119831 -0.0291902 0)
(-0.00117758 -0.0293882 0)
(-0.00115751 -0.0295787 0)
(-0.0011381 -0.0297618 0)
(-0.00111934 -0.0299379 0)
(-0.00110121 -0.030107 0)
(-0.0010837 -0.0302695 0)
(-0.00106681 -0.0304255 0)
(-0.00105051 -0.0305752 0)
(-0.00103479 -0.0307189 0)
(-0.00101965 -0.0308567 0)
(-0.00100506 -0.030989 0)
(-0.000991017 -0.0311157 0)
(-0.000977498 -0.0312372 0)
(-0.000964493 -0.0313536 0)
(-0.000951986 -0.0314652 0)
(-0.000939963 -0.0315721 0)
(-0.000928411 -0.0316744 0)
(-0.000917313 -0.0317724 0)
(-0.000906654 -0.0318662 0)
(-0.000896423 -0.031956 0)
(-0.000886603 -0.0320419 0)
(-0.000877183 -0.0321241 0)
(-0.000868146 -0.0322028 0)
(-0.000859482 -0.032278 0)
(-0.000851176 -0.03235 0)
(-0.000843214 -0.0324187 0)
(-0.000835586 -0.0324845 0)
(-0.000828279 -0.0325474 0)
(-0.000821281 -0.0326074 0)
(-0.000814579 -0.0326649 0)
(-0.000808163 -0.0327198 0)
(-0.000802022 -0.0327722 0)
(-0.000796144 -0.0328223 0)
(-0.000790522 -0.0328701 0)
(-0.000785142 -0.0329158 0)
(-0.000779996 -0.0329595 0)
(-0.000758022 -0.03296 0)
(-0.000735785 -0.0329605 0)
(-0.000713459 -0.0329609 0)
(-0.000691222 -0.0329614 0)
(-0.000669248 -0.0329619 0)
(-0.000662189 -0.0329185 0)
(-0.000654805 -0.0328731 0)
(-0.000647084 -0.0328255 0)
(-0.000639011 -0.0327758 0)
(-0.000630573 -0.0327237 0)
(-0.000621751 -0.0326691 0)
(-0.000612531 -0.032612 0)
(-0.0006029 -0.0325523 0)
(-0.000592837 -0.0324898 0)
(-0.000582326 -0.0324245 0)
(-0.00057135 -0.0323561 0)
(-0.00055989 -0.0322846 0)
(-0.000547927 -0.0322098 0)
(-0.000535443 -0.0321316 0)
(-0.000522419 -0.0320499 0)
(-0.000508834 -0.0319645 0)
(-0.000494666 -0.0318753 0)
(-0.000479895 -0.031782 0)
(-0.000464502 -0.0316846 0)
(-0.000448462 -0.0315829 0)
(-0.000431753 -0.0314766 0)
(-0.000414357 -0.0313657 0)
(-0.000396246 -0.03125 0)
(-0.000377402 -0.0311292 0)
(-0.000357799 -0.0310032 0)
(-0.000337415 -0.0308717 0)
(-0.000316227 -0.0307347 0)
(-0.000294213 -0.0305918 0)
(-0.00027135 -0.0304429 0)
(-0.000247614 -0.0302879 0)
(-0.000222985 -0.0301263 0)
(-0.000197441 -0.0299581 0)
(-0.000170958 -0.0297831 0)
(-0.000143518 -0.029601 0)
(-0.000115101 -0.0294116 0)
(-8.56878e-05 -0.0292147 0)
(-5.52609e-05 -0.02901 0)
(-2.38066e-05 -0.0287975 0)
(8.69865e-06 -0.0285767 0)
(4.2262e-05 -0.0283476 0)
(7.69015e-05 -0.02811 0)
(0.000112618 -0.0278636 0)
(0.000149429 -0.0276082 0)
(0.000187338 -0.0273436 0)
(0.00022635 -0.0270697 0)
(0.000266462 -0.0267863 0)
(0.000307681 -0.0264932 0)
(0.000349994 -0.0261903 0)
(0.000393398 -0.0258774 0)
(0.000437884 -0.0255545 0)
(0.000483431 -0.0252213 0)
(0.000530029 -0.0248779 0)
(0.000577657 -0.0245241 0)
(0.000626287 -0.0241598 0)
(0.000675884 -0.0237852 0)
(0.00072642 -0.0234001 0)
(0.000777858 -0.0230046 0)
(0.000830149 -0.0225986 0)
(0.000883246 -0.0221824 0)
(0.000937096 -0.0217559 0)
(0.000991638 -0.0213194 0)
(0.00104682 -0.0208729 0)
(0.00110256 -0.0204166 0)
(0.00115879 -0.0199507 0)
(0.000569599 -0.0111186 0)
(0.000657075 -0.0110059 0)
(0.000599692 -0.00921202 0)
(0.000877545 -0.0127061 0)
(0.000841132 -0.0117059 0)
(0.000797897 -0.012714 0)
(0.000637713 -0.0155793 0)
(0.000724883 -0.0147818 0)
(0.000657379 -0.0145199 0)
(0.000330005 -0.00443783 0)
(0.000305626 -0.00521367 0)
(0.00047666 -0.00645402 0)
(0.00081497 -0.0138216 0)
(0.000881228 -0.0142679 0)
(0.000901523 -0.0134873 0)
(0.000205358 -0.0105498 0)
(0.000161053 -0.0123285 0)
(0.000235223 -0.0131498 0)
(0.00043769 -0.00770236 0)
(0.000325054 -0.00756336 0)
(0.000205588 -0.00295488 0)
(0.000670488 -0.0205648 0)
(0.000632998 -0.0212561 0)
(0.000693992 -0.020784 0)
(0.00116087 -0.0181383 0)
(0.00109794 -0.0188552 0)
(0.00116883 -0.0183863 0)
(0.00027595 -0.0145131 0)
(0.000341376 -0.0145983 0)
(0.00030309 -0.013365 0)
(0.000538437 -0.0164114 0)
(0.000449165 -0.0162279 0)
(0.000455329 -0.0172337 0)
(0.000213884 -0.0168524 0)
(0.000260905 -0.0175028 0)
(0.000280289 -0.015939 0)
(0.000157359 -0.00769249 0)
(0.00025072 -0.00868666 0)
(0.000167665 -0.00614367 0)
(0.000199585 -0.00451012 0)
(0.000139712 -0.00245893 0)
(0.00068807 -0.0229976 0)
(0.000691836 -0.0228493 0)
(0.000632838 -0.0232614 0)
(0.00102319 -0.019357 0)
(0.00100141 -0.019192 0)
(0.000948064 -0.0198854 0)
(0.000262309 -0.0200628 0)
(0.000241013 -0.021015 0)
(0.000296644 -0.0202631 0)
(0.000171106 -0.0230801 0)
(0.000205417 -0.0223886 0)
(0.000143877 -0.0229538 0)
(0.000109853 -0.017083 0)
(9.94583e-05 -0.0156462 0)
(6.99009e-05 -0.0166401 0)
(0.000126456 -0.0140996 0)
(0.000178483 -0.0141246 0)
(0.000212261 -0.00610244 0)
(9.32404e-05 -0.00209233 0)
(0.000705416 -0.0226312 0)
(0.000952047 -0.0207723 0)
(0.000894521 -0.021154 0)
(0.000908492 -0.0212317 0)
(0.00115578 -0.0196767 0)
(0.00117572 -0.019613 0)
(-4.98337e-05 -0.0234454 0)
(-1.01501e-05 -0.0232096 0)
(-2.48479e-05 -0.0227761 0)
(0.000170085 -0.0165048 0)
(0.000215962 -0.0152738 0)
(0.000150538 -0.0155111 0)
(0.00045352 -0.0224186 0)
(0.000449307 -0.0229175 0)
(0.000505223 -0.0222312 0)
(-0.00111664 -0.00971497 0)
(-0.000925867 -0.00892652 0)
(-0.00100632 -0.0109435 0)
(-0.00107812 -0.0105583 0)
(-0.00113531 -0.0119306 0)
(-0.00168501 -0.0155116 0)
(-2.60692e-05 -0.0158362 0)
(-1.14911e-05 -0.0168579 0)
(2.36435e-05 -0.0153524 0)
(9.06123e-05 -0.0122816 0)
(6.11761e-05 -0.00972188 0)
(3.2854e-05 -0.0118186 0)
(0.000104634 -0.00327665 0)
(0.000102384 -0.00474188 0)
(8.96859e-05 -0.00610335 0)
(0.00057041 -0.0244949 0)
(0.000552787 -0.0245732 0)
(0.000511879 -0.0249182 0)
(0.000139275 -0.0264616 0)
(0.000165902 -0.0260795 0)
(0.000111475 -0.0265147 0)
(0.000584309 -0.0241286 0)
(0.000635201 -0.0237252 0)
(0.000604128 -0.0238671 0)
(0.00120416 -0.0191713 0)
(-0.00012001 -0.0212371 0)
(-9.28855e-05 -0.0203479 0)
(-0.000131161 -0.0206728 0)
(-0.000116088 -0.0275325 0)
(-0.000150954 -0.0278807 0)
(-0.000111737 -0.0277118 0)
(-0.00073295 -0.00641253 0)
(-0.000491422 -0.00471771 0)
(-0.000949923 -0.0115054 0)
(-0.00084282 -0.00967111 0)
(-0.00134566 -0.0146517 0)
(-0.00141539 -0.0148168 0)
(-0.00138524 -0.015722 0)
(7.46799e-05 -0.0144946 0)
(5.95828e-05 -0.0157963 0)
(1.42765e-05 -0.00926276 0)
(3.78681e-05 -0.00764268 0)
(1.37928e-05 -0.00596764 0)
(4.91139e-05 -0.00221606 0)
(3.53244e-05 -0.0056658 0)
(4.2024e-05 -0.00421218 0)
(1.67798e-05 -0.00314002 0)
(0.000247768 -0.0264086 0)
(0.000212012 -0.0267568 0)
(0.000270689 -0.0263229 0)
(0.000629473 -0.023863 0)
(0.000244308 -0.025647 0)
(0.000230314 -0.0259676 0)
(0.000290555 -0.0253649 0)
(0.000690066 -0.0234365 0)
(0.000741037 -0.0230885 0)
(0.000747946 -0.0229408 0)
(0.00115709 -0.0199354 0)
(0.0011796 -0.0197201 0)
(-0.000380004 -0.0248847 0)
(-0.000398009 -0.0253776 0)
(-0.000372285 -0.0251346 0)
(-0.00026283 -0.0299317 0)
(-0.000244257 -0.029717 0)
(-0.000274033 -0.029943 0)
(3.19338e-05 -0.0188452 0)
(1.35562e-05 -0.0198129 0)
(5.91217e-05 -0.0192043 0)
(-0.000124035 -0.0289084 0)
(-0.000126136 -0.0290369 0)
(-9.12122e-05 -0.0287612 0)
(-0.00145542 -0.0243114 0)
(-0.00143555 -0.0241161 0)
(-0.00149054 -0.0236681 0)
(-0.00190175 -0.0184315 0)
(-0.000831991 -0.0109615 0)
(-0.00107623 -0.0205772 0)
(-0.00104645 -0.0212838 0)
(-0.001022 -0.0204621 0)
(-0.00122283 -0.0175176 0)
(-0.00126978 -0.0181338 0)
(-0.00122745 -0.0185303 0)
(-1.1257e-05 -0.011811 0)
(4.50016e-05 -0.00289644 0)
(6.57438e-05 -0.0072351 0)
(0.000310107 -0.0264708 0)
(0.00028748 -0.0266175 0)
(0.000269219 -0.0267637 0)
(0.00050845 -0.0250115 0)
(0.000545987 -0.0247348 0)
(0.0005328 -0.0248067 0)
(-5.15799e-05 -0.0288312 0)
(-8.93177e-05 -0.0290601 0)
(-8.36297e-05 -0.0290749 0)
(0.000813199 -0.0224386 0)
(0.000836481 -0.0223315 0)
(0.000879391 -0.0219233 0)
(0.000950335 -0.0216079 0)
(0.000905382 -0.021964 0)
(0.000935329 -0.021747 0)
(0.00106988 -0.020624 0)
(0.00110164 -0.0203944 0)
(0.00112718 -0.0201553 0)
(0.00119439 -0.0195395 0)
(-0.00018774 -0.0230652 0)
(-0.000216898 -0.0229791 0)
(-0.000222217 -0.0234755 0)
(-0.000580915 -0.0286794 0)
(-0.000585856 -0.0290372 0)
(-0.000563247 -0.0287304 0)
(-0.000114672 -0.0165682 0)
(-0.000154063 -0.0174607 0)
(-0.000137245 -0.0179012 0)
(-0.00051658 -0.0318911 0)
(-0.000494997 -0.0317384 0)
(-0.00051131 -0.0318123 0)
(-0.00121309 -0.0282051 0)
(-0.00122531 -0.028262 0)
(-0.00119362 -0.0285478 0)
(-0.00189353 -0.0202024 0)
(-0.00186076 -0.0207818 0)
(-0.00185538 -0.0204998 0)
(-0.000688048 -0.00726733 0)
(-0.000458372 -0.00522847 0)
(-0.000265475 -0.00229665 0)
(-0.00105036 -0.0169703 0)
(-0.000988704 -0.0156483 0)
(-0.00106804 -0.0160666 0)
(-0.00111908 -0.0193309 0)
(-0.0011221 -0.0202034 0)
(-0.00108416 -0.0197467 0)
(-0.0012441 -0.0230036 0)
(-0.00121048 -0.0225593 0)
(-0.00125098 -0.0222812 0)
(-9.06437e-05 -0.0111437 0)
(-5.31182e-05 -0.00908495 0)
(-7.01255e-05 -0.00860009 0)
(-0.00010049 -0.013298 0)
(-0.000128102 -0.0132968 0)
(-0.000136452 -0.0148995 0)
(-6.33856e-06 -0.00757152 0)
(-2.74488e-05 -0.00983539 0)
(-2.5896e-05 -0.00714699 0)
(3.25786e-06 -0.00288388 0)
(0.000318881 -0.0263735 0)
(0.000326662 -0.0263399 0)
(0.000360372 -0.0260827 0)
(0.000184048 -0.0273403 0)
(0.000208729 -0.0271835 0)
(0.000223679 -0.0270584 0)
(0.000459424 -0.0253181 0)
(0.00046979 -0.025194 0)
(0.000487657 -0.0251395 0)
(0.000465774 -0.025327 0)
(-0.000154807 -0.0292896 0)
(-0.000187099 -0.0294916 0)
(-0.000183567 -0.0295486 0)
(0.000780732 -0.0229647 0)
(0.000831027 -0.0225723 0)
(0.000803989 -0.0227675 0)
(0.000883238 -0.0221609 0)
(0.000853552 -0.0223763 0)
(0.000889064 -0.0219423 0)
(0.000937537 -0.0215977 0)
(0.000937905 -0.0215101 0)
(-0.000312895 -0.0203695 0)
(-0.000337935 -0.0211668 0)
(-0.000313293 -0.0208727 0)
(-0.00040385 -0.0233932 0)
(-0.000424698 -0.0237513 0)
(-0.000414467 -0.0240083 0)
(-0.000578608 -0.0311117 0)
(-0.000559247 -0.0310523 0)
(-0.000563877 -0.0309543 0)
(-0.000263699 -0.0185742 0)
(-0.000253928 -0.0177397 0)
(-0.000277644 -0.0182703 0)
(-0.000560425 -0.0317505 0)
(-0.000543792 -0.0316074 0)
(-0.000558023 -0.0316535 0)
(-0.000326109 -0.0303163 0)
(-0.000354817 -0.0305307 0)
(-0.000342657 -0.0305192 0)
(-0.00189124 -0.02161 0)
(-0.00189321 -0.0216348 0)
(-0.00186355 -0.0219646 0)
(-0.00150104 -0.0240031 0)
(-0.000230084 -0.00281685 0)
(-0.000246561 -0.00254831 0)
(-0.000703642 -0.0121197 0)
(-0.000809398 -0.0145111 0)
(-0.000716421 -0.0134072 0)
(-0.0011113 -0.0171809 0)
(-0.00110609 -0.0181925 0)
(-0.00155508 -0.0236433 0)
(-0.00153185 -0.0235083 0)
(-6.46841e-05 -0.0115337 0)
(-0.000156334 -0.0134673 0)
(-0.000172206 -0.0131206 0)
(-0.000184758 -0.0142897 0)
(-6.81611e-06 -0.00523751 0)
(-3.86011e-05 -0.00594362 0)
(-1.87101e-05 -0.00479355 0)
(0.000215303 -0.02699 0)
(0.000188607 -0.0272179 0)
(0.000233833 -0.0268924 0)
(0.000202739 -0.0271833 0)
(0.000629462 -0.0241211 0)
(0.000677247 -0.0237588 0)
(0.00065384 -0.0239164 0)
(0.000593528 -0.0242782 0)
(-0.000405918 -0.0313203 0)
(-0.000424977 -0.0314323 0)
(-0.000431414 -0.0314857 0)
(-0.000135728 -0.0295612 0)
(-0.000114332 -0.0294118 0)
(-0.000133846 -0.0295367 0)
(0.000763534 -0.0230855 0)
(0.00105576 -0.0206918 0)
(0.00102276 -0.0209847 0)
(-0.000366757 -0.0217587 0)
(-0.000396026 -0.0222843 0)
(-0.000376714 -0.0223684 0)
(-0.000667798 -0.0308049 0)
(-0.00068351 -0.0308226 0)
(-0.000680819 -0.0309984 0)
(-0.000644115 -0.0312543 0)
(-0.00065869 -0.0314295 0)
(-0.000645077 -0.0314265 0)
(-0.000217765 -0.0188156 0)
(-0.000237688 -0.0185187 0)
(-0.000244316 -0.0194051 0)
(-0.000611609 -0.0323894 0)
(-0.000619691 -0.0324676 0)
(-0.000605653 -0.0323937 0)
(-0.000457396 -0.0315146 0)
(-0.000452214 -0.0314408 0)
(-0.000473827 -0.0315899 0)
(-0.00204741 -0.0196269 0)
(-0.00159633 -0.0240384 0)
(-0.00162817 -0.0235865 0)
(-0.00164369 -0.0236072 0)
(-0.00117902 -0.0279431 0)
(-0.00117503 -0.0282004 0)
(-0.00115186 -0.0282727 0)
(-0.00115119 -0.0250589 0)
(-0.00117478 -0.0252452 0)
(-0.00113468 -0.0255926 0)
(-0.00041223 -0.00540584 0)
(-0.000636076 -0.00810611 0)
(-0.000699261 -0.0105261 0)
(-0.000477077 -0.00706327 0)
(-0.00089696 -0.0162565 0)
(-0.000904111 -0.0151568 0)
(-0.000866362 -0.0220466 0)
(-0.000861109 -0.0212483 0)
(-0.000896666 -0.0218101 0)
(-0.00093135 -0.0273211 0)
(-0.00091522 -0.0269627 0)
(-0.000932064 -0.0269316 0)
(-0.000205874 -0.0154259 0)
(-0.000180529 -0.0148112 0)
(-6.29455e-06 -0.00263644 0)
(0.000355148 -0.0261451 0)
(0.000152953 -0.0275702 0)
(0.000153553 -0.0275814 0)
(0.00017802 -0.027402 0)
(0.000613786 -0.0241971 0)
(0.000610141 -0.0242528 0)
(0.000403982 -0.0257617 0)
(0.000423814 -0.0256364 0)
(0.000444467 -0.0254622 0)
(-0.000290717 -0.0305921 0)
(-0.000290875 -0.030585 0)
(-0.000310083 -0.0307161 0)
(-0.00010737 -0.0293731 0)
(-7.78103e-05 -0.0291733 0)
(-9.46077e-05 -0.0292816 0)
(-0.000174767 -0.0298176 0)
(-0.000163624 -0.0297488 0)
(-0.00015528 -0.029685 0)
(-0.000561815 -0.0270494 0)
(-0.000561476 -0.0266696 0)
(-0.000580604 -0.027058 0)
(-0.000238916 -0.0177674 0)
(-0.000229052 -0.0167854 0)
(-0.00062332 -0.0278092 0)
(-0.000642514 -0.0279444 0)
(-0.000639055 -0.0282178 0)
(-0.000816214 -0.031483 0)
(-0.000804149 -0.031473 0)
(-0.000815252 -0.0313331 0)
(-0.000696323 -0.0269598 0)
(-0.000696368 -0.0274014 0)
(-0.000678831 -0.0269972 0)
(-0.000609353 -0.0320877 0)
(-0.000617832 -0.0321745 0)
(-0.000606323 -0.0321483 0)
(-0.000194332 -0.0159339 0)
(-0.000599927 -0.0323944 0)
(-0.000610971 -0.0324479 0)
(-0.000586621 -0.0323246 0)
(-0.000594633 -0.032397 0)
(-0.000581459 -0.0323191 0)
(-0.000495072 -0.0318643 0)
(-0.000479244 -0.0317737 0)
(-0.000478018 -0.0317468 0)
(-0.00193777 -0.0209819 0)
(-0.0019795 -0.0204989 0)
(-0.00194463 -0.0209744 0)
(-0.0018412 -0.0222778 0)
(-0.00185485 -0.0221361 0)
(-0.00182149 -0.0225386 0)
(-0.00167189 -0.0240309 0)
(-0.00171023 -0.0236346 0)
(-0.00167882 -0.0240564 0)
(-0.00146692 -0.0261039 0)
(-0.00150151 -0.0257136 0)
(-0.00150241 -0.0257982 0)
(-0.0012684 -0.0281805 0)
(-0.00128496 -0.0279239 0)
(-0.00129556 -0.027903 0)
(-0.00123131 -0.0284332 0)
(-0.00125646 -0.0281942 0)
(-0.00124032 -0.0284312 0)
(-0.000989558 -0.0287612 0)
(-0.000984338 -0.0291304 0)
(-0.000966227 -0.0290311 0)
(-0.000233352 -0.00339347 0)
(-0.000328513 -0.00548143 0)
(-0.000615465 -0.0115976 0)
(-0.000670592 -0.0135558 0)
(-0.000550403 -0.0115326 0)
(-0.000567157 -0.0139904 0)
(-0.000624993 -0.0148833 0)
(-0.000604857 -0.0153686 0)
(-0.00093252 -0.0215438 0)
(-0.000958512 -0.0224083 0)
(-0.000925815 -0.0223091 0)
(-0.000753215 -0.0259786 0)
(-0.000766365 -0.0256475 0)
(-0.000777706 -0.0262062 0)
(-0.000117109 -0.0101623 0)
(-8.40701e-05 -0.00831363 0)
(-9.47363e-05 -0.00790486 0)
(-0.000124464 -0.00958577 0)
(-0.00014301 -0.00999569 0)
(-0.000151843 -0.0113733 0)
(-1.45421e-05 -0.00277905 0)
(-4.17101e-05 -0.00474757 0)
(-2.32606e-05 -0.00319855 0)
(0.000386531 -0.0258612 0)
(6.24058e-05 -0.0281958 0)
(6.60998e-05 -0.0281471 0)
(3.22278e-05 -0.0283944 0)
(0.000422303 -0.0256031 0)
(-0.000234244 -0.0302115 0)
(-0.000216305 -0.030099 0)
(-0.000215114 -0.0300795 0)
(-0.000274528 -0.0304878 0)
(-0.000285916 -0.0305651 0)
(-7.52515e-05 -0.0291456 0)
(-9.56849e-05 -0.0292785 0)
(-0.000194004 -0.0299432 0)
(-0.000188083 -0.0299117 0)
(-0.000344397 -0.0176077 0)
(-0.000355443 -0.0173337 0)
(-0.000372018 -0.018374 0)
(-0.000519359 -0.0214469 0)
(-0.00050439 -0.0206301 0)
(-0.000531971 -0.0212703 0)
(-0.000743459 -0.0310233 0)
(-0.000746779 -0.0312108 0)
(-0.00073175 -0.031072 0)
(-0.000735174 -0.032356 0)
(-0.000742342 -0.0322997 0)
(-0.00074458 -0.0323807 0)
(-0.000783186 -0.0280725 0)
(-0.000770068 -0.0283855 0)
(-0.000761902 -0.0280158 0)
(-0.000722934 -0.0325837 0)
(-0.000730858 -0.0326157 0)
(-0.000722923 -0.032639 0)
(-0.00024631 -0.014813 0)
(-0.00021855 -0.0140569 0)
(-0.00022759 -0.0137542 0)
(-0.000623775 -0.0326813 0)
(-0.000629413 -0.0327174 0)
(-0.000617959 -0.0326574 0)
(-0.000527785 -0.0320749 0)
(-0.000511899 -0.0319738 0)
(-0.00052539 -0.0320426 0)
(-0.000446422 -0.0316058 0)
(-0.000433379 -0.0315239 0)
(-0.000430683 -0.0315038 0)
(-0.000468436 -0.0317441 0)
(-0.000482138 -0.0318298 0)
(-0.000473758 -0.0317804 0)
(-0.00192648 -0.0212411 0)
(-0.00188751 -0.0217351 0)
(-0.00196084 -0.020797 0)
(-0.00178491 -0.0229718 0)
(-0.0017577 -0.0232704 0)
(-0.00178048 -0.022993 0)
(-0.00183263 -0.0223416 0)
(-0.00183912 -0.0222022 0)
(-0.00201391 -0.0200901 0)
(-0.00203107 -0.0198961 0)
(-0.0017621 -0.0231689 0)
(-0.00173021 -0.023552 0)
(-0.00174005 -0.0233648 0)
(-0.00168505 -0.0241329 0)
(-0.00167936 -0.0241644 0)
(-0.00170774 -0.0238502 0)
(-0.00152384 -0.0258821 0)
(-0.00149098 -0.0262282 0)
(-0.00151219 -0.0259775 0)
(-0.00134569 -0.0275699 0)
(-0.00137233 -0.0273274 0)
(-0.0013541 -0.0275411 0)
(-0.00129255 -0.0281408 0)
(-0.00127284 -0.0282892 0)
(-0.00129895 -0.0280241 0)
(-0.00103194 -0.0298853 0)
(-0.00101377 -0.0301815 0)
(-0.00100829 -0.0300949 0)
(-0.000754718 -0.0292766 0)
(-0.000776593 -0.0293149 0)
(-0.000766368 -0.0295481 0)
(-0.000151886 -0.00252787 0)
(-0.000530569 -0.00908392 0)
(-0.000373301 -0.00699163 0)
(-0.00035881 -0.0082402 0)
(-0.000459022 -0.0103236 0)
(-0.000427778 -0.0104735 0)
(-0.000402774 -0.00839732 0)
(-0.00049738 -0.00956638 0)
(-0.000634882 -0.0167492 0)
(-0.00057698 -0.0155372 0)
(-0.000627124 -0.0189696 0)
(-0.00064121 -0.0186065 0)
(-0.000663365 -0.019689 0)
(-0.000752008 -0.0240626 0)
(-0.000738187 -0.0243313 0)
(-0.00072327 -0.0238151 0)
(-5.99222e-05 -0.0068066 0)
(-6.48255e-05 -0.00623381 0)
(-0.000161977 -0.0102712 0)
(-0.000172673 -0.0115422 0)
(-0.000188628 -0.0117253 0)
(-0.0001891 -0.0111806 0)
(-0.000216177 -0.0126997 0)
(-2.0421e-05 -0.00228816 0)
(9.49091e-05 -0.02798 0)
(6.35563e-05 -0.0282019 0)
(-0.000276214 -0.0304614 0)
(-0.000304227 -0.0306404 0)
(-0.000301003 -0.030633 0)
(-0.000332942 -0.0308636 0)
(-0.000342068 -0.0309308 0)
(-0.00032489 -0.0308178 0)
(-5.17776e-05 -0.0289786 0)
(-2.51778e-05 -0.0287886 0)
(-5.15445e-05 -0.0289587 0)
(-0.000254457 -0.0303476 0)
(-0.000239756 -0.0302554 0)
(-0.000580845 -0.0220299 0)
(-0.000589703 -0.0216398 0)
(-0.000603913 -0.0224765 0)
(-0.000432176 -0.0179255 0)
(-0.00045317 -0.0189055 0)
(-0.000422609 -0.0182304 0)
(-0.000334538 -0.0164288 0)
(-0.000322569 -0.01661 0)
(-0.000859186 -0.0317667 0)
(-0.000850423 -0.0318678 0)
(-0.000850712 -0.031777 0)
(-0.000773064 -0.0327803 0)
(-0.000780195 -0.0327647 0)
(-0.000773101 -0.0328023 0)
(-0.000702671 -0.0328503 0)
(-0.000699559 -0.0328694 0)
(-0.000694704 -0.0328413 0)
(-0.000251011 -0.0142073 0)
(-0.00028827 -0.0152675 0)
(-0.000273601 -0.0155132 0)
(-0.000659675 -0.0328044 0)
(-0.000655404 -0.0328142 0)
(-0.000650659 -0.0327771 0)
(-0.00063024 -0.0327109 0)
(-0.000580442 -0.0324169 0)
(-0.0005886 -0.0324565 0)
(-0.000593047 -0.0324923 0)
(-0.00054387 -0.0322133 0)
(-0.000552192 -0.0322685 0)
(-0.000541038 -0.0322006 0)
(-0.000407662 -0.0313593 0)
(-0.000419664 -0.0314356 0)
(-0.000426723 -0.0314819 0)
(-0.000485867 -0.0318569 0)
(-0.000497382 -0.0319284 0)
(-0.00196004 -0.0208266 0)
(-0.00178742 -0.0228729 0)
(-0.00180824 -0.0226638 0)
(-0.00201645 -0.0199989 0)
(-0.00175061 -0.0233794 0)
(-0.00166116 -0.0243923 0)
(-0.00171948 -0.0237412 0)
(-0.00173362 -0.0235604 0)
(-0.00153597 -0.0256511 0)
(-0.0015379 -0.0256944 0)
(-0.00151648 -0.0258974 0)
(-0.00156599 -0.0254088 0)
(-0.00154821 -0.025621 0)
(-0.00133127 -0.0278682 0)
(-0.00133959 -0.0278137 0)
(-0.00132096 -0.0279964 0)
(-0.0012644 -0.0285726 0)
(-0.00124066 -0.0288013 0)
(-0.00126084 -0.0285797 0)
(-0.00113133 -0.0298678 0)
(-0.00114933 -0.0296986 0)
(-0.00113999 -0.0297958 0)
(-0.00122898 -0.0288422 0)
(-0.00120735 -0.0290662 0)
(-0.00121303 -0.0289743 0)
(-0.000979023 -0.0300826 0)
(-0.000992444 -0.0298192 0)
(-0.000998454 -0.0299303 0)
(-0.000183869 -0.00343856 0)
(-0.000542068 -0.0126316 0)
(-0.000507991 -0.0126722 0)
(-0.000309123 -0.00765466 0)
(-0.000147817 -0.00310449 0)
(-0.000278542 -0.00561901 0)
(-0.000655493 -0.0207957 0)
(-0.000623961 -0.0201217 0)
(-0.00064461 -0.0199458 0)
(-0.000763831 -0.0200065 0)
(-0.000752877 -0.0206341 0)
(-0.000723991 -0.0197065 0)
(-9.74916e-05 -0.00672933 0)
(-8.94652e-05 -0.00683171 0)
(-7.01589e-05 -0.00527795 0)
(-6.78584e-05 -0.00568262 0)
(-0.000238025 -0.0130696 0)
(-0.000129902 -0.00866344 0)
(-0.00011936 -0.00765714 0)
(-0.000141845 -0.00878007 0)
(-4.02569e-05 -0.00378674 0)
(3.18657e-05 -0.0283738 0)
(5.83345e-05 -0.0281762 0)
(3.2943e-05 -0.0283391 0)
(-0.000233006 -0.0301935 0)
(-0.000250794 -0.030314 0)
(-0.000351363 -0.0309943 0)
(-0.000329264 -0.0308501 0)
(7.39662e-07 -0.0286334 0)
(1.48107e-05 -0.028544 0)
(3.17662e-05 -0.028417 0)
(-0.000577739 -0.0207202 0)
(-0.000565817 -0.020991 0)
(-0.000408908 -0.0169587 0)
(-0.000408614 -0.0174528 0)
(-0.000318294 -0.0147782 0)
(-0.000332803 -0.0148478 0)
(-0.000349168 -0.0158397 0)
(-0.000845146 -0.0321692 0)
(-0.000843828 -0.0321139 0)
(-0.000854693 -0.0320621 0)
(-0.000761033 -0.0327133 0)
(-0.00076476 -0.0327286 0)
(-0.000756078 -0.0327516 0)
(-0.000754189 -0.0328601 0)
(-0.000759915 -0.0328335 0)
(-0.00076075 -0.0328538 0)
(-0.000674607 -0.032876 0)
(-0.000682039 -0.0328807 0)
(-0.000681403 -0.0329058 0)
(-0.000722483 -0.0328791 0)
(-0.00072987 -0.0328947 0)
(-0.000722244 -0.0329046 0)
(-0.000666102 -0.0328499 0)
(-0.000671496 -0.0328896 0)
(-0.000663795 -0.0328769 0)
(-0.000669339 -0.0329068 0)
(-0.000657621 -0.0328649 0)
(-0.000654644 -0.0328356 0)
(-0.000645248 -0.0327965 0)
(-0.000646021 -0.0327854 0)
(-0.000617562 -0.0326456 0)
(-0.000607584 -0.0326018 0)
(-0.000598664 -0.0325512 0)
(-0.000600493 -0.0325576 0)
(-0.00062967 -0.0326803 0)
(-0.000641061 -0.0327303 0)
(-0.000636362 -0.0327294 0)
(-0.00057967 -0.0324319 0)
(-0.00059142 -0.0325004 0)
(-0.000586096 -0.0324738 0)
(-0.000561053 -0.032324 0)
(-0.000556068 -0.032295 0)
(-0.000441969 -0.031573 0)
(-0.000456552 -0.0316673 0)
(-0.0016115 -0.0247032 0)
(-0.00157657 -0.0251063 0)
(-0.00157996 -0.0249711 0)
(-0.00144476 -0.0267278 0)
(-0.00146858 -0.0264902 0)
(-0.00145131 -0.0266837 0)
(-0.00154105 -0.0257225 0)
(-0.00133738 -0.0278655 0)
(-0.0013238 -0.0279901 0)
(-0.00134562 -0.0277732 0)
(-0.00136333 -0.0276011 0)
(-0.00125344 -0.0285797 0)
(-0.00124567 -0.0287014 0)
(-0.00128834 -0.0283576 0)
(-0.00126694 -0.0285652 0)
(-0.00128538 -0.0283732 0)
(-0.000956264 -0.0313366 0)
(-0.000945132 -0.0313857 0)
(-0.000959588 -0.0312513 0)
(-0.00103684 -0.0307776 0)
(-0.00103343 -0.0308053 0)
(-0.00104693 -0.0306795 0)
(-0.00113215 -0.0298373 0)
(-0.00115574 -0.0296037 0)
(-0.00114601 -0.0297167 0)
(-0.00117534 -0.0294616 0)
(-0.00116198 -0.0295927 0)
(-0.00116546 -0.0295489 0)
(-0.000459194 -0.0121003 0)
(-0.00035253 -0.00939218 0)
(-0.000270556 -0.00591135 0)
(-0.0004722 -0.0153302 0)
(-0.000516191 -0.0167042 0)
(-0.000492849 -0.0164683 0)
(-4.61643e-05 -0.00375241 0)
(-4.70242e-05 -0.00348099 0)
(-6.81077e-05 -0.00474012 0)
(-0.000166186 -0.00980076 0)
(-0.00012425 -0.00749661 0)
(-2.20517e-05 -0.00189143 0)
(-1.68597e-05 -0.00162963 0)
(-0.000371601 -0.0311254 0)
(-0.000373343 -0.0311319 0)
(-0.000386073 -0.0312176 0)
(-0.000628944 -0.0214152 0)
(-0.00065278 -0.0220754 0)
(-0.000632212 -0.0219802 0)
(-0.000352766 -0.0166065 0)
(-0.000325076 -0.0156272 0)
(-0.000522617 -0.020027 0)
(-0.000492681 -0.0190135 0)
(-0.000523764 -0.019479 0)
(-0.000898905 -0.0320018 0)
(-0.00090726 -0.0319171 0)
(-0.000910429 -0.0319041 0)
(-0.00077668 -0.0328936 0)
(-0.000785528 -0.0328716 0)
(-0.000779291 -0.0329087 0)
(-0.000746176 -0.0329264 0)
(-0.000752862 -0.032903 0)
(-0.000756983 -0.0329192 0)
(-0.000698869 -0.0329716 0)
(-0.000710926 -0.0329719 0)
(-0.000716698 -0.0329823 0)
(-0.000708528 -0.0329432 0)
(-0.000716117 -0.032937 0)
(-0.000716928 -0.0329575 0)
(-0.000647668 -0.0328184 0)
(-0.000593289 -0.0325173 0)
(-0.000577585 -0.0324241 0)
(-0.000543109 -0.0322151 0)
(-0.000390506 -0.0312483 0)
(-0.000402556 -0.0313246 0)
(-0.000521544 -0.0320733 0)
(-0.00051144 -0.0320137 0)
(-0.000511905 -0.0320089 0)
(-0.00160233 -0.0250518 0)
(-0.00163216 -0.0247127 0)
(-0.00162088 -0.0248636 0)
(-0.00144125 -0.0267276 0)
(-0.00141985 -0.0269716 0)
(-0.00160721 -0.0249687 0)
(-0.00131361 -0.0281054 0)
(-0.00138206 -0.0273987 0)
(-0.00140041 -0.0271932 0)
(-0.00140278 -0.0271905 0)
(-0.00122155 -0.0289511 0)
(-0.000982891 -0.0312642 0)
(-0.000992531 -0.0311635 0)
(-0.00099977 -0.0311083 0)
(-0.00107676 -0.0303961 0)
(-0.00109549 -0.0302185 0)
(-0.00108843 -0.0302921 0)
(-0.00114122 -0.0297906 0)
(-0.00112627 -0.0299292 0)
(-0.00120112 -0.0292148 0)
(-0.00118817 -0.0293375 0)
(-0.00119962 -0.0292199 0)
(-0.00050725 -0.0141071 0)
(-0.000416111 -0.0117914 0)
(-0.000240151 -0.00632007 0)
(-0.000197274 -0.00487514 0)
(-0.000159732 -0.00366963 0)
(-0.000423173 -0.0135261 0)
(-0.000470789 -0.0144813 0)
(-0.000458381 -0.0157503 0)
(-4.45193e-05 -0.00306217 0)
(-0.00010181 -0.0064707 0)
(-8.29799e-05 -0.00547279 0)
(-0.000188639 -0.0105992 0)
(-0.000211818 -0.0118593 0)
(-0.0001926 -0.0103332 0)
(-0.000207643 -0.0112438 0)
(-0.000165358 -0.00918577 0)
(-0.000146536 -0.00805053 0)
(-0.000159341 -0.00847031 0)
(-0.000412264 -0.031379 0)
(-0.000396018 -0.0312773 0)
(-0.000401567 -0.0313047 0)
(-0.000403009 -0.0150699 0)
(-0.000389933 -0.0152302 0)
(-0.000366792 -0.014099 0)
(-0.00021478 -0.010668 0)
(-0.000241412 -0.0121422 0)
(-0.000214749 -0.0111671 0)
(-0.00089928 -0.0319728 0)
(-0.000889512 -0.0320493 0)
(-0.000897102 -0.0319759 0)
(-0.000806753 -0.0327122 0)
(-0.000804177 -0.0327081 0)
(-0.000811478 -0.0326768 0)
(-0.00074881 -0.0329696 0)
(-0.000766881 -0.0329525 0)
(-0.000752557 -0.0329748 0)
(-0.000742915 -0.0329075 0)
(-0.000690765 -0.0329372 0)
(-0.000697137 -0.0329606 0)
(-0.000683325 -0.0329446 0)
(-0.000557232 -0.0322912 0)
(-0.000529733 -0.0321318 0)
(-0.00051658 -0.0320506 0)
(-0.000518447 -0.0320609 0)
(-0.00142581 -0.0269445 0)
(-0.00120595 -0.0291265 0)
(-0.00120046 -0.0291597 0)
(-0.000924353 -0.031798 0)
(-0.000923709 -0.0318068 0)
(-0.000915722 -0.0318747 0)
(-0.00100657 -0.0310587 0)
(-0.00102138 -0.0309203 0)
(-0.00101588 -0.030974 0)
(-0.00106332 -0.0305313 0)
(-0.00107528 -0.0304178 0)
(-0.00107097 -0.0304599 0)
(-0.00110645 -0.0301215 0)
(-0.00111274 -0.0300517 0)
(-0.00123114 -0.0289138 0)
(-0.00121414 -0.0290823 0)
(-0.00121566 -0.0290523 0)
(-7.97762e-05 -0.00196064 0)
(-0.000265545 -0.00743568 0)
(-0.000173788 -0.00481034 0)
(-0.000309727 -0.0101908 0)
(-0.000315683 -0.00984118 0)
(-0.000368318 -0.0116287 0)
(-2.77805e-05 -0.00217 0)
(-2.36216e-05 -0.00171622 0)
(-0.000116629 -0.00673153 0)
(-0.000101524 -0.0061144 0)
(-6.04211e-05 -0.00372125 0)
(-8.23144e-05 -0.00515449 0)
(-6.3566e-05 -0.00415484 0)
(-0.000240299 -0.0116339 0)
(-0.000138382 -0.00789748 0)
(-0.000280227 -0.0128432 0)
(-0.000308427 -0.0139172 0)
(-0.000290757 -0.0137174 0)
(-0.000334858 -0.0137929 0)
(-0.000328574 -0.014158 0)
(-0.00030782 -0.0129918 0)
(-0.000337897 -0.0115735 0)
(-0.000323707 -0.0115383 0)
(-0.000295252 -0.0102376 0)
(-0.000263182 -0.0126078 0)
(-0.000271663 -0.0134349 0)
(-0.00083325 -0.0325757 0)
(-0.000828866 -0.0326059 0)
(-0.000836127 -0.0325494 0)
(-0.000843891 -0.0324868 0)
(-0.000849397 -0.0324447 0)
(-0.000841659 -0.0325085 0)
(-0.000806578 -0.0327619 0)
(-0.000811148 -0.0327231 0)
(-0.00081367 -0.0327152 0)
(-0.000768894 -0.0329289 0)
(-0.000773827 -0.0329328 0)
(-0.000730496 -0.0329615 0)
(-0.000734294 -0.0329735 0)
(-0.000723011 -0.0329714 0)
(-0.000756608 -0.0329513 0)
(-0.00091391 -0.0318959 0)
(-0.000905574 -0.031969 0)
(-0.000912364 -0.0319095 0)
(-0.000913123 -0.0318987 0)
(-0.000902382 -0.0319932 0)
(-0.000906733 -0.0319582 0)
(-0.00100453 -0.0310785 0)
(-0.000993281 -0.0311815 0)
(-0.00105105 -0.0306455 0)
(-0.001056 -0.0306001 0)
(-0.000128611 -0.00337595 0)
(-8.31691e-05 -0.00229627 0)
(-2.1853e-05 -0.0014761 0)
(-4.1649e-05 -0.00269141 0)
(-9.87888e-05 -0.00572704 0)
(-0.000169108 -0.0082874 0)