/*--------------------------------*- C++ -*----------------------------------*\
| =========                 |                                                 |
| \\      /  F ield         | OpenFOAM: The Open Source CFD Toolbox           |
|  \\    /   O peration     | Version:  v2012                                 |
|   \\  /    A nd           | Website:  www.openfoam.com                      |
|    \\/     M anipulation  |                                                 |
\*---------------------------------------------------------------------------*/
FoamFile
{
    version     2.0;
    format      ascii;
    class       volScalarField;
    location    "1.6";
    object      rAU;
}
// * * * * * * * * * * * * * * * * * * * * * * * * * * * * * * * * * * * * * //

dimensions      [-1 3 1 0 0 0 0];


internalField   nonuniform List<scalar> 
13611
(
2.64752e-08
2.64517e-08
2.65315e-08
2.64636e-08
2.64796e-08
2.6479e-08
2.65107e-08
2.64827e-08
2.6421e-08
2.64861e-08
2.64912e-08
2.65034e-08
2.65124e-08
2.65294e-08
2.63262e-08
2.65123e-08
2.64986e-08
2.6479e-08
2.65318e-08
2.64589e-08
2.64866e-08
2.631e-08
2.63212e-08
2.63869e-08
2.63934e-08
2.64976e-08
2.6507e-08
2.65247e-08
2.65328e-08
2.63499e-08
2.63679e-08
2.63238e-08
2.64009e-08
2.64926e-08
2.65264e-08
2.64708e-08
2.64632e-08
2.64863e-08
2.6296e-08
2.63761e-08
2.63927e-08
2.63643e-08
2.63679e-08
2.64929e-08
2.65118e-08
2.64956e-08
2.65329e-08
2.65278e-08
2.63237e-08
2.62372e-08
2.633e-08
2.6373e-08
2.63693e-08
2.64109e-08
2.64784e-08
2.64859e-08
2.64666e-08
2.65125e-08
2.6489e-08
2.65023e-08
2.63137e-08
2.62659e-08
2.63355e-08
2.63316e-08
2.62294e-08
2.63302e-08
2.63052e-08
2.63986e-08
2.63871e-08
2.64587e-08
2.65017e-08
2.65138e-08
2.6534e-08
2.64988e-08
2.63232e-08
2.62837e-08
2.62823e-08
2.62341e-08
2.63326e-08
2.63215e-08
2.63154e-08
2.63828e-08
2.64233e-08
2.63732e-08
2.64675e-08
2.65048e-08
2.65005e-08
2.6491e-08
2.64892e-08
2.63176e-08
2.6145e-08
2.62692e-08
2.63285e-08
2.6252e-08
2.61636e-08
2.63253e-08
2.63127e-08
2.63838e-08
2.63612e-08
2.63288e-08
2.64436e-08
2.64902e-08
2.65029e-08
2.6498e-08
2.64899e-08
2.6193e-08
2.63504e-08
2.63648e-08
2.63291e-08
2.62638e-08
2.62462e-08
2.62111e-08
2.63263e-08
2.62477e-08
2.62874e-08
2.63405e-08
2.63725e-08
2.63802e-08
2.64098e-08
2.65365e-08
2.65329e-08
2.64999e-08
2.65353e-08
2.64865e-08
2.64504e-08
2.62432e-08
2.63484e-08
2.6366e-08
2.62111e-08
2.63082e-08
2.6153e-08
2.63012e-08
2.62754e-08
2.63395e-08
2.6373e-08
2.64263e-08
2.63978e-08
2.64886e-08
2.65101e-08
2.64241e-08
2.65197e-08
2.64789e-08
2.64892e-08
2.61929e-08
2.61842e-08
2.62137e-08
2.61707e-08
2.62621e-08
2.63234e-08
2.61625e-08
2.61467e-08
2.63177e-08
2.62442e-08
2.6284e-08
2.63587e-08
2.64238e-08
2.63775e-08
2.65281e-08
2.65271e-08
2.65119e-08
2.64141e-08
2.64115e-08
2.6536e-08
2.65257e-08
2.64955e-08
2.61408e-08
2.61836e-08
2.61901e-08
2.62373e-08
2.61566e-08
2.62487e-08
2.62638e-08
2.61442e-08
2.61277e-08
2.6265e-08
2.62672e-08
2.6192e-08
2.62934e-08
2.63222e-08
2.63194e-08
2.63772e-08
2.64542e-08
2.65045e-08
2.64483e-08
2.63609e-08
2.64041e-08
2.65138e-08
2.65085e-08
2.60786e-08
2.61426e-08
2.62452e-08
2.61295e-08
2.62159e-08
2.61245e-08
2.62322e-08
2.62944e-08
2.61417e-08
2.61483e-08
2.62643e-08
2.62838e-08
2.63108e-08
2.63065e-08
2.63667e-08
2.62927e-08
2.64739e-08
2.65269e-08
2.65039e-08
2.64645e-08
2.64044e-08
2.63458e-08
2.65183e-08
2.65362e-08
2.65139e-08
2.60443e-08
2.61198e-08
2.62293e-08
2.61392e-08
2.62057e-08
2.61238e-08
2.62451e-08
2.62967e-08
2.61259e-08
2.61487e-08
2.62425e-08
2.62705e-08
2.62939e-08
2.62633e-08
2.63124e-08
2.63807e-08
2.65231e-08
2.64763e-08
2.64861e-08
2.64421e-08
2.63395e-08
2.63455e-08
2.6499e-08
2.65168e-08
2.65171e-08
2.62544e-08
2.60688e-08
2.59908e-08
2.6058e-08
2.6175e-08
2.62025e-08
2.60935e-08
2.62664e-08
2.6129e-08
2.61232e-08
2.62288e-08
2.61575e-08
2.62582e-08
2.61499e-08
2.61951e-08
2.62549e-08
2.63451e-08
2.63526e-08
2.65179e-08
2.64828e-08
2.64452e-08
2.64838e-08
2.63736e-08
2.64057e-08
2.63731e-08
2.65183e-08
2.65077e-08
2.65363e-08
2.62614e-08
2.60576e-08
2.61796e-08
2.60143e-08
2.60707e-08
2.61502e-08
2.616e-08
2.61704e-08
2.6125e-08
2.61842e-08
2.61028e-08
2.61173e-08
2.62184e-08
2.6175e-08
2.62337e-08
2.62056e-08
2.62105e-08
2.62343e-08
2.62291e-08
2.63741e-08
2.65405e-08
2.65435e-08
2.64712e-08
2.64683e-08
2.64025e-08
2.63957e-08
2.63529e-08
2.63721e-08
2.64734e-08
2.65311e-08
2.64819e-08
2.61389e-08
2.61285e-08
2.61624e-08
2.61545e-08
2.60116e-08
2.60862e-08
2.60885e-08
2.61614e-08
2.61701e-08
2.61974e-08
2.60956e-08
2.61213e-08
2.59562e-08
2.60899e-08
2.62428e-08
2.62172e-08
2.62641e-08
2.62194e-08
2.61935e-08
2.61998e-08
2.61998e-08
2.63543e-08
2.65243e-08
2.65167e-08
2.64807e-08
2.64691e-08
2.64215e-08
2.64153e-08
2.63294e-08
2.63531e-08
2.6477e-08
2.64965e-08
2.61388e-08
2.61273e-08
2.61216e-08
2.61573e-08
2.609e-08
2.60779e-08
2.60723e-08
2.61454e-08
2.61413e-08
2.61492e-08
2.61094e-08
2.61258e-08
2.60158e-08
2.60835e-08
2.61378e-08
2.61992e-08
2.61419e-08
2.62288e-08
2.62089e-08
2.61982e-08
2.62167e-08
2.62063e-08
2.65229e-08
2.65214e-08
2.65269e-08
2.64811e-08
2.64549e-08
2.64476e-08
2.63775e-08
2.64168e-08
2.63566e-08
2.65238e-08
2.65371e-08
2.64838e-08
2.61284e-08
2.59926e-08
2.61113e-08
2.59459e-08
2.61066e-08
2.58642e-08
2.5861e-08
2.58686e-08
2.61462e-08
2.61417e-08
2.60017e-08
2.6109e-08
2.61347e-08
2.60172e-08
2.61297e-08
2.61045e-08
2.57889e-08
2.61738e-08
2.5903e-08
2.62291e-08
2.62096e-08
2.61958e-08
2.6192e-08
2.62524e-08
2.6492e-08
2.64888e-08
2.65062e-08
2.64641e-08
2.64557e-08
2.6437e-08
2.63612e-08
2.64138e-08
2.62807e-08
2.65368e-08
2.6483e-08
2.65274e-08
2.61192e-08
2.60621e-08
2.58545e-08
2.60243e-08
2.59832e-08
2.59622e-08
2.61122e-08
2.58662e-08
2.6042e-08
2.61115e-08
2.61205e-08
2.61693e-08
2.6133e-08
2.61257e-08
2.61961e-08
2.60518e-08
2.61052e-08
2.61679e-08
2.62233e-08
2.61985e-08
2.62024e-08
2.60961e-08
2.62433e-08
2.65237e-08
2.65043e-08
2.64806e-08
2.65259e-08
2.65228e-08
2.64577e-08
2.64559e-08
2.63381e-08
2.63728e-08
2.62416e-08
2.62471e-08
2.6247e-08
2.65126e-08
2.64993e-08
2.65381e-08
2.65252e-08
2.654e-08
2.65411e-08
2.60551e-08
2.59923e-08
2.59806e-08
2.59983e-08
2.60128e-08
2.60354e-08
2.61033e-08
2.60702e-08
2.61113e-08
2.61193e-08
2.61547e-08
2.61174e-08
2.60218e-08
2.59265e-08
2.6086e-08
2.61804e-08
2.59897e-08
2.61657e-08
2.62496e-08
2.62092e-08
2.6163e-08
2.61426e-08
2.60122e-08
2.65134e-08
2.64981e-08
2.64635e-08
2.64928e-08
2.65227e-08
2.64361e-08
2.64429e-08
2.63322e-08
2.63796e-08
2.63009e-08
2.6262e-08
2.62638e-08
2.62435e-08
2.64919e-08
2.64791e-08
2.65233e-08
2.65399e-08
2.65218e-08
2.64458e-08
2.65361e-08
2.65533e-08
2.61038e-08
2.59782e-08
2.60477e-08
2.59893e-08
2.60994e-08
2.59961e-08
2.58602e-08
2.58259e-08
2.59107e-08
2.60841e-08
2.60874e-08
2.60419e-08
2.61146e-08
2.58539e-08
2.60615e-08
2.59655e-08
2.61075e-08
2.60002e-08
2.62424e-08
2.61826e-08
2.61634e-08
2.60952e-08
2.60563e-08
2.65357e-08
2.64751e-08
2.64937e-08
2.64573e-08
2.65449e-08
2.65094e-08
2.64257e-08
2.63718e-08
2.63229e-08
2.63768e-08
2.62868e-08
2.62647e-08
2.62652e-08
2.62599e-08
2.65297e-08
2.65386e-08
2.65302e-08
2.65289e-08
2.65324e-08
2.65227e-08
2.65435e-08
2.6436e-08
2.65308e-08
2.65418e-08
2.60803e-08
2.60119e-08
2.59473e-08
2.59901e-08
2.60318e-08
2.59952e-08
2.59101e-08
2.5884e-08
2.5817e-08
2.61104e-08
2.60778e-08
2.60486e-08
2.61214e-08
2.58457e-08
2.59149e-08
2.61564e-08
2.59031e-08
2.59291e-08
2.60558e-08
2.60338e-08
2.62502e-08
2.61115e-08
2.61535e-08
2.61178e-08
2.60444e-08
2.6497e-08
2.64575e-08
2.64657e-08
2.65333e-08
2.65091e-08
2.63633e-08
2.63543e-08
2.62944e-08
2.62329e-08
2.63636e-08
2.62873e-08
2.62642e-08
2.62686e-08
2.62833e-08
2.64769e-08
2.64897e-08
2.65333e-08
2.65174e-08
2.65425e-08
2.64432e-08
2.64966e-08
2.64346e-08
2.64151e-08
2.63577e-08
2.65369e-08
2.65529e-08
2.59827e-08
2.59785e-08
2.59472e-08
2.59219e-08
2.59618e-08
2.58927e-08
2.5769e-08
2.58995e-08
2.60084e-08
2.59575e-08
2.58918e-08
2.59354e-08
2.6124e-08
2.5922e-08
2.58436e-08
2.59474e-08
2.60772e-08
2.60499e-08
2.59729e-08
2.60608e-08
2.60836e-08
2.62399e-08
2.61858e-08
2.62e-08
2.60467e-08
2.59911e-08
2.65164e-08
2.64779e-08
2.64151e-08
2.63966e-08
2.64498e-08
2.65247e-08
2.65267e-08
2.64152e-08
2.63893e-08
2.63093e-08
2.62864e-08
2.63654e-08
2.62828e-08
2.62575e-08
2.62587e-08
2.62401e-08
2.6522e-08
2.64907e-08
2.65359e-08
2.65281e-08
2.65348e-08
2.6516e-08
2.64782e-08
2.64441e-08
2.65264e-08
2.64333e-08
2.64478e-08
2.63596e-08
2.65119e-08
2.65466e-08
2.59671e-08
2.57367e-08
2.57698e-08
2.58389e-08
2.59178e-08
2.58692e-08
2.59762e-08
2.58123e-08
2.59078e-08
2.59962e-08
2.5897e-08
2.59724e-08
2.6016e-08
2.59914e-08
2.57912e-08
2.56649e-08
2.60424e-08
2.59694e-08
2.60139e-08
2.60612e-08
2.60782e-08
2.62219e-08
2.61956e-08
2.61609e-08
2.61026e-08
2.60685e-08
2.64934e-08
2.64124e-08
2.6417e-08
2.64474e-08
2.64406e-08
2.65034e-08
2.65339e-08
2.6418e-08
2.6394e-08
2.63883e-08
2.63467e-08
2.6363e-08
2.62846e-08
2.62515e-08
2.62474e-08
2.62211e-08
2.64812e-08
2.65408e-08
2.65157e-08
2.65226e-08
2.65423e-08
2.65218e-08
2.64046e-08
2.64315e-08
2.64927e-08
2.65389e-08
2.6392e-08
2.64495e-08
2.63836e-08
2.65432e-08
2.65526e-08
2.5982e-08
2.59756e-08
2.58106e-08
2.5945e-08
2.58363e-08
2.58035e-08
2.58592e-08
2.56404e-08
2.59006e-08
2.59079e-08
2.58806e-08
2.59047e-08
2.58938e-08
2.59537e-08
2.60138e-08
2.57217e-08
2.57866e-08
2.5846e-08
2.60527e-08
2.58489e-08
2.60436e-08
2.60682e-08
2.60873e-08
2.62357e-08
2.61552e-08
2.60198e-08
2.61378e-08
2.61067e-08
2.65159e-08
2.64957e-08
2.64928e-08
2.64524e-08
2.6442e-08
2.65239e-08
2.65408e-08
2.6376e-08
2.63817e-08
2.63851e-08
2.63191e-08
2.63632e-08
2.62757e-08
2.62342e-08
2.61787e-08
2.61746e-08
2.65175e-08
2.65284e-08
2.65291e-08
2.65226e-08
2.6527e-08
2.64904e-08
2.64489e-08
2.64366e-08
2.64639e-08
2.65321e-08
2.63922e-08
2.63713e-08
2.63962e-08
2.63813e-08
2.65235e-08
2.59712e-08
2.58905e-08
2.575e-08
2.5909e-08
2.59158e-08
2.57507e-08
2.585e-08
2.59612e-08
2.57332e-08
2.59566e-08
2.58524e-08
2.59022e-08
2.5904e-08
2.5954e-08
2.59007e-08
2.59585e-08
2.58485e-08
2.59213e-08
2.60719e-08
2.59518e-08
2.60628e-08
2.6088e-08
2.61767e-08
2.61671e-08
2.60863e-08
2.60585e-08
2.60177e-08
2.65068e-08
2.6499e-08
2.64908e-08
2.64696e-08
2.63549e-08
2.65279e-08
2.65432e-08
2.6387e-08
2.64021e-08
2.63277e-08
2.63266e-08
2.62828e-08
2.63044e-08
2.62789e-08
2.62258e-08
2.61216e-08
2.61813e-08
2.60768e-08
2.65296e-08
2.65415e-08
2.64981e-08
2.65301e-08
2.65119e-08
2.65278e-08
2.64337e-08
2.6377e-08
2.64182e-08
2.6473e-08
2.64578e-08
2.65257e-08
2.65221e-08
2.63453e-08
2.63576e-08
2.64022e-08
2.63522e-08
2.65526e-08
2.65368e-08
2.58693e-08
2.59499e-08
2.59088e-08
2.57853e-08
2.59162e-08
2.57922e-08
2.59679e-08
2.59705e-08
2.57139e-08
2.5955e-08
2.58224e-08
2.585e-08
2.58544e-08
2.59688e-08
2.59186e-08
2.58264e-08
2.59774e-08
2.58489e-08
2.58365e-08
2.60137e-08
2.57272e-08
2.59129e-08
2.6124e-08
2.59726e-08
2.61638e-08
2.61393e-08
2.60732e-08
2.59847e-08
2.59575e-08
2.64806e-08
2.64919e-08
2.64793e-08
2.64735e-08
2.64683e-08
2.63691e-08
2.63141e-08
2.65292e-08
2.65365e-08
2.62818e-08
2.62745e-08
2.63268e-08
2.63171e-08
2.62845e-08
2.62976e-08
2.62683e-08
2.6232e-08
2.62156e-08
2.61682e-08
2.65262e-08
2.65238e-08
2.65314e-08
2.65477e-08
2.65323e-08
2.65343e-08
2.6521e-08
2.63615e-08
2.63477e-08
2.63988e-08
2.64392e-08
2.63502e-08
2.65143e-08
2.64893e-08
2.63321e-08
2.63097e-08
2.62583e-08
2.63413e-08
2.65213e-08
2.65344e-08
2.59997e-08
2.59461e-08
2.59048e-08
2.59192e-08
2.59187e-08
2.59599e-08
2.58501e-08
2.59111e-08
2.5927e-08
2.58042e-08
2.58073e-08
2.58568e-08
2.59365e-08
2.60206e-08
2.58963e-08
2.58242e-08
2.58232e-08
2.57114e-08
2.58387e-08
2.59533e-08
2.60884e-08
2.58616e-08
2.58469e-08
2.62005e-08
2.61818e-08
2.60857e-08
2.61202e-08
2.64918e-08
2.64847e-08
2.64727e-08
2.64696e-08
2.64412e-08
2.63908e-08
2.63682e-08
2.65447e-08
2.6491e-08
2.61594e-08
2.63158e-08
2.62492e-08
2.63269e-08
2.6245e-08
2.62153e-08
2.63219e-08
2.61973e-08
2.61219e-08
2.6227e-08
2.62126e-08
2.65255e-08
2.65415e-08
2.65217e-08
2.65272e-08
2.6544e-08
2.65048e-08
2.65357e-08
2.63966e-08
2.62779e-08
2.63225e-08
2.62684e-08
2.64403e-08
2.63984e-08
2.63656e-08
2.6526e-08
2.65242e-08
2.65124e-08
2.64754e-08
2.62771e-08
2.62761e-08
2.62492e-08
2.62823e-08
2.62315e-08
2.65514e-08
2.60033e-08
2.59972e-08
2.58927e-08
2.59423e-08
2.59514e-08
2.58724e-08
2.58618e-08
2.5904e-08
2.59172e-08
2.58391e-08
2.58249e-08
2.56614e-08
2.56887e-08
2.56539e-08
2.59744e-08
2.5883e-08
2.57839e-08
2.58172e-08
2.56992e-08
2.59147e-08
2.58374e-08
2.59124e-08
2.58906e-08
2.5715e-08
2.61603e-08
2.61284e-08
2.61066e-08
2.6142e-08
2.65065e-08
2.65074e-08
2.6454e-08
2.64581e-08
2.64633e-08
2.64605e-08
2.63824e-08
2.63571e-08
2.64988e-08
2.65358e-08
2.62259e-08
2.6345e-08
2.63251e-08
2.63386e-08
2.62627e-08
2.63169e-08
2.63219e-08
2.61859e-08
2.61872e-08
2.61711e-08
2.6154e-08
2.65158e-08
2.65184e-08
2.65498e-08
2.65283e-08
2.65263e-08
2.65274e-08
2.65263e-08
2.63551e-08
2.6299e-08
2.62956e-08
2.62845e-08
2.64005e-08
2.64463e-08
2.63556e-08
2.65112e-08
2.64765e-08
2.65226e-08
2.64539e-08
2.62615e-08
2.61985e-08
2.62892e-08
2.62973e-08
2.65381e-08
2.57178e-08
2.59912e-08
2.58906e-08
2.5798e-08
2.58523e-08
2.56748e-08
2.58702e-08
2.59454e-08
2.58816e-08
2.56105e-08
2.58724e-08
2.5832e-08
2.58407e-08
2.57855e-08
2.57179e-08
2.57606e-08
2.59008e-08
2.56617e-08
2.56681e-08
2.5734e-08
2.60091e-08
2.58618e-08
2.59812e-08
2.59849e-08
2.60171e-08
2.6107e-08
2.59918e-08
2.59606e-08
2.60206e-08
2.60117e-08
2.64973e-08
2.65248e-08
2.64729e-08
2.64297e-08
2.64649e-08
2.644e-08
2.64216e-08
2.62952e-08
2.65313e-08
2.65252e-08
2.63298e-08
2.62868e-08
2.63138e-08
2.62758e-08
2.62696e-08
2.62795e-08
2.61546e-08
2.60857e-08
2.62254e-08
2.60048e-08
2.60218e-08
2.6065e-08
2.6522e-08
2.65408e-08
2.65273e-08
2.65282e-08
2.65052e-08
2.65516e-08
2.65147e-08
2.63052e-08
2.63399e-08
2.62944e-08
2.62985e-08
2.63774e-08
2.63733e-08
2.64348e-08
2.64574e-08
2.63469e-08
2.65061e-08
2.64899e-08
2.65376e-08
2.65239e-08
2.63527e-08
2.63017e-08
2.62768e-08
2.65496e-08
2.58389e-08
2.5693e-08
2.5776e-08
2.57886e-08
2.57509e-08
2.5729e-08
2.58945e-08
2.59585e-08
2.58695e-08
2.57753e-08
2.58515e-08
2.57494e-08
2.57128e-08
2.5794e-08
2.58512e-08
2.5723e-08
2.5897e-08
2.56452e-08
2.56489e-08
2.5499e-08
2.54881e-08
2.56626e-08
2.60347e-08
2.59522e-08
2.60029e-08
2.60671e-08
2.59788e-08
2.60641e-08
2.60221e-08
2.60209e-08
2.59644e-08
2.59819e-08
2.65302e-08
2.65153e-08
2.65253e-08
2.64979e-08
2.64658e-08
2.64364e-08
2.63868e-08
2.63871e-08
2.63486e-08
2.65146e-08
2.65531e-08
2.63179e-08
2.62499e-08
2.63491e-08
2.62708e-08
2.62459e-08
2.62085e-08
2.61431e-08
2.62086e-08
2.60538e-08
2.61466e-08
2.60983e-08
2.60385e-08
2.60153e-08
2.64635e-08
2.65168e-08
2.65227e-08
2.65246e-08
2.64881e-08
2.65332e-08
2.65528e-08
2.65185e-08
2.62687e-08
2.63153e-08
2.62931e-08
2.62556e-08
2.63732e-08
2.63532e-08
2.63938e-08
2.64374e-08
2.62854e-08
2.64933e-08
2.64969e-08
2.64855e-08
2.64678e-08
2.63492e-08
2.61745e-08
2.62438e-08
2.62614e-08
2.6181e-08
2.65213e-08
2.57239e-08
2.58137e-08
2.57475e-08
2.58749e-08
2.56875e-08
2.57261e-08
2.57027e-08
2.58784e-08
2.58218e-08
2.58073e-08
2.56561e-08
2.57357e-08
2.56854e-08
2.57028e-08
2.54989e-08
2.57947e-08
2.58304e-08
2.58941e-08
2.56772e-08
2.55411e-08
2.56019e-08
2.59349e-08
2.59666e-08
2.582e-08
2.60274e-08
2.59591e-08
2.60539e-08
2.61536e-08
2.60818e-08
2.58838e-08
2.59557e-08
2.65298e-08
2.65117e-08
2.65114e-08
2.6479e-08
2.64605e-08
2.64313e-08
2.63159e-08
2.6342e-08
2.63585e-08
2.63473e-08
2.65083e-08
2.65318e-08
2.62597e-08
2.61659e-08
2.63485e-08
2.62218e-08
2.62441e-08
2.62071e-08
2.61509e-08
2.62084e-08
2.62084e-08
2.61731e-08
2.60844e-08
2.60248e-08
2.59283e-08
2.65171e-08
2.6541e-08
2.65327e-08
2.65392e-08
2.64793e-08
2.65038e-08
2.65452e-08
2.65558e-08
2.62178e-08
2.62886e-08
2.62618e-08
2.62324e-08
2.6319e-08
2.63313e-08
2.62809e-08
2.62682e-08
2.63848e-08
2.64257e-08
2.64617e-08
2.62512e-08
2.62092e-08
2.6533e-08
2.65158e-08
2.65308e-08
2.65158e-08
2.65056e-08
2.61767e-08
2.62537e-08
2.62443e-08
2.6218e-08
2.65297e-08
2.58626e-08
2.58146e-08
2.57671e-08
2.57977e-08
2.57162e-08
2.56973e-08
2.56919e-08
2.56323e-08
2.56442e-08
2.57743e-08
2.57707e-08
2.54633e-08
2.54601e-08
2.55345e-08
2.56322e-08
2.56797e-08
2.55815e-08
2.55139e-08
2.5838e-08
2.58854e-08
2.5494e-08
2.57435e-08
2.59345e-08
2.57955e-08
2.57991e-08
2.57498e-08
2.59212e-08
2.5954e-08
2.60567e-08
2.61203e-08
2.60347e-08
2.59419e-08
2.59206e-08
2.64889e-08
2.64609e-08
2.6488e-08
2.65092e-08
2.65003e-08
2.64858e-08
2.64351e-08
2.64445e-08
2.63487e-08
2.63435e-08
2.63819e-08
2.63518e-08
2.6547e-08
2.65488e-08
2.65297e-08
2.62545e-08
2.62367e-08
2.63489e-08
2.62226e-08
2.62352e-08
2.61516e-08
2.61468e-08
2.61818e-08
2.6166e-08
2.61891e-08
2.61885e-08
2.59628e-08
2.6132e-08
2.64568e-08
2.64981e-08
2.65019e-08
2.65142e-08
2.65039e-08
2.65111e-08
2.65573e-08
2.62854e-08
2.62269e-08
2.62049e-08
2.63157e-08
2.63356e-08
2.63374e-08
2.62703e-08
2.62999e-08
2.63605e-08
2.64325e-08
2.62528e-08
2.63222e-08
2.64776e-08
2.65226e-08
2.65032e-08
2.64892e-08
2.64678e-08
2.61977e-08
2.62789e-08
2.6215e-08
2.62369e-08
2.62351e-08
2.65421e-08
2.65152e-08
2.59034e-08
2.58584e-08
2.57402e-08
2.57507e-08
2.57089e-08
2.5603e-08
2.56698e-08
2.56742e-08
2.566e-08
2.56933e-08
2.55113e-08
2.56562e-08
2.56023e-08
2.55537e-08
2.56741e-08
2.56487e-08
2.57528e-08
2.54103e-08
2.53571e-08
2.59182e-08
2.57287e-08
2.55609e-08
2.5719e-08
2.57821e-08
2.58591e-08
2.5803e-08
2.57391e-08
2.55788e-08
2.58863e-08
2.57822e-08
2.58876e-08
2.58721e-08
2.57857e-08
2.59231e-08
2.59574e-08
2.58792e-08
2.6499e-08
2.65034e-08
2.65248e-08
2.65208e-08
2.64871e-08
2.64935e-08
2.6461e-08
2.64413e-08
2.63556e-08
2.62699e-08
2.63391e-08
2.63646e-08
2.65176e-08
2.65241e-08
2.65373e-08
2.65304e-08
2.62815e-08
2.63487e-08
2.62398e-08
2.62149e-08
2.61524e-08
2.61059e-08
2.6132e-08
2.60806e-08
2.60458e-08
2.61094e-08
2.61799e-08
2.61354e-08
2.64939e-08
2.64934e-08
2.65424e-08
2.65407e-08
2.64971e-08
2.65042e-08
2.65345e-08
2.6264e-08
2.61893e-08
2.60941e-08
2.61954e-08
2.6271e-08
2.62897e-08
2.63153e-08
2.63197e-08
2.62645e-08
2.63334e-08
2.64223e-08
2.64399e-08
2.6264e-08
2.63099e-08
2.6524e-08
2.64918e-08
2.65256e-08
2.64983e-08
2.63969e-08
2.62284e-08
2.62335e-08
2.6237e-08
2.62172e-08
2.62289e-08
2.65477e-08
2.65095e-08
2.58243e-08
2.57566e-08
2.56729e-08
2.56447e-08
2.56086e-08
2.53933e-08
2.54592e-08
2.55965e-08
2.56421e-08
2.53591e-08
2.56992e-08
2.53986e-08
2.56568e-08
2.56166e-08
2.56602e-08
2.58274e-08
2.55027e-08
2.57299e-08
2.53502e-08
2.55742e-08
2.59108e-08
2.56976e-08
2.56611e-08
2.56133e-08
2.585e-08
2.56492e-08
2.57155e-08
2.5712e-08
2.57808e-08
2.57026e-08
2.57872e-08
2.57638e-08
2.59025e-08
2.58988e-08
2.58825e-08
2.58779e-08
2.59095e-08
2.59046e-08
2.64958e-08
2.64782e-08
2.65283e-08
2.65346e-08
2.64885e-08
2.64536e-08
2.64508e-08
2.63978e-08
2.64209e-08
2.63225e-08
2.63161e-08
2.62957e-08
2.61958e-08
2.65354e-08
2.65337e-08
2.65271e-08
2.64745e-08
2.62156e-08
2.61855e-08
2.62153e-08
2.61723e-08
2.60344e-08
2.59887e-08
2.61504e-08
2.61111e-08
2.61513e-08
2.60289e-08
2.6018e-08
2.60485e-08
2.64943e-08
2.65434e-08
2.64837e-08
2.65513e-08
2.64874e-08
2.65414e-08
2.65056e-08
2.6508e-08
2.6272e-08
2.61921e-08
2.61651e-08
2.62048e-08
2.62678e-08
2.62986e-08
2.63162e-08
2.63154e-08
2.61829e-08
2.63566e-08
2.63819e-08
2.6445e-08
2.62843e-08
2.6195e-08
2.64762e-08
2.64582e-08
2.6496e-08
2.65475e-08
2.64266e-08
2.62264e-08
2.61275e-08
2.61943e-08
2.62597e-08
2.61926e-08
2.61962e-08
2.65284e-08
2.65061e-08
2.55385e-08
2.5726e-08
2.57017e-08
2.56585e-08
2.5664e-08
2.5461e-08
2.55587e-08
2.56027e-08
2.54499e-08
2.55308e-08
2.56092e-08
2.54715e-08
2.56546e-08
2.56539e-08
2.57493e-08
2.56336e-08
2.56872e-08
2.56219e-08
2.55484e-08
2.53746e-08
2.56256e-08
2.56336e-08
2.54484e-08
2.56175e-08
2.55641e-08
2.57884e-08
2.57397e-08
2.56667e-08
2.57533e-08
2.58401e-08
2.58627e-08
2.59249e-08
2.59076e-08
2.58875e-08
2.58715e-08
2.59293e-08
2.591e-08
2.59075e-08
2.6498e-08
2.64007e-08
2.64198e-08
2.65703e-08
2.65138e-08
2.65109e-08
2.64082e-08
2.64017e-08
2.63877e-08
2.64159e-08
2.63737e-08
2.63196e-08
2.6307e-08
2.62511e-08
2.6527e-08
2.65351e-08
2.65285e-08
2.65403e-08
2.64861e-08
2.61862e-08
2.62104e-08
2.61778e-08
2.62445e-08
2.6068e-08
2.61044e-08
2.61208e-08
2.60703e-08
2.61285e-08
2.60433e-08
2.59914e-08
2.59856e-08
2.60467e-08
2.64574e-08
2.6531e-08
2.64902e-08
2.65548e-08
2.65121e-08
2.6521e-08
2.65258e-08
2.65344e-08
2.62088e-08
2.61736e-08
2.61877e-08
2.62093e-08
2.60552e-08
2.61118e-08
2.63034e-08
2.63074e-08
2.63782e-08
2.632e-08
2.62762e-08
2.63842e-08
2.64247e-08
2.64319e-08
2.62035e-08
2.61318e-08
2.65096e-08
2.64226e-08
2.64937e-08
2.65464e-08
2.65123e-08
2.64437e-08
2.62197e-08
2.61423e-08
2.61684e-08
2.61988e-08
2.61752e-08
2.61693e-08
2.64734e-08
2.65012e-08
2.55276e-08
2.58115e-08
2.56981e-08
2.56514e-08
2.57131e-08
2.55095e-08
2.56186e-08
2.54751e-08
2.54684e-08
2.55598e-08
2.53945e-08
2.55212e-08
2.56463e-08
2.56159e-08
2.58028e-08
2.52303e-08
2.54923e-08
2.55582e-08
2.56018e-08
2.55044e-08
2.58569e-08
2.52503e-08
2.57838e-08
2.5566e-08
2.56605e-08
2.58413e-08
2.58618e-08
2.55579e-08
2.58892e-08
2.57483e-08
2.59386e-08
2.5906e-08
2.59313e-08
2.59674e-08
2.59238e-08
2.59165e-08
2.59876e-08
2.59661e-08
2.64815e-08
2.63972e-08
2.64685e-08
2.65686e-08
2.64874e-08
2.65069e-08
2.64065e-08
2.63969e-08
2.64626e-08
2.6368e-08
2.63237e-08
2.63254e-08
2.62887e-08
2.63269e-08
2.62554e-08
2.65448e-08
2.65558e-08
2.65208e-08
2.65109e-08
2.65549e-08
2.61798e-08
2.62394e-08
2.61642e-08
2.62478e-08
2.62026e-08
2.62299e-08
2.60956e-08
2.59514e-08
2.61624e-08
2.60465e-08
2.59774e-08
2.60161e-08
2.65026e-08
2.65271e-08
2.65463e-08
2.64998e-08
2.65256e-08
2.65511e-08
2.65121e-08
2.65166e-08
2.6209e-08
2.61482e-08
2.62408e-08
2.6114e-08
2.61161e-08
2.6132e-08
2.62612e-08
2.63016e-08
2.63048e-08
2.62619e-08
2.62482e-08
2.63784e-08
2.63554e-08
2.64411e-08
2.61652e-08
2.62073e-08
2.64702e-08
2.6515e-08
2.65146e-08
2.6442e-08
2.61873e-08
2.61593e-08
2.60517e-08
2.60794e-08
2.6156e-08
2.61517e-08
2.62136e-08
2.65438e-08
2.64947e-08
2.65077e-08
2.5788e-08
2.54501e-08
2.56042e-08
2.55777e-08
2.56058e-08
2.57172e-08
2.54987e-08
2.54164e-08
2.54155e-08
2.55461e-08
2.54618e-08
2.55383e-08
2.53508e-08
2.55328e-08
2.56468e-08
2.54407e-08
2.54268e-08
2.55237e-08
2.53531e-08
2.52957e-08
2.5843e-08
2.54881e-08
2.57886e-08
2.55574e-08
2.53355e-08
2.55546e-08
2.58693e-08
2.57376e-08
2.56837e-08
2.58125e-08
2.57028e-08
2.58464e-08
2.59369e-08
2.59663e-08
2.59739e-08
2.59165e-08
2.59593e-08
2.5959e-08
2.58615e-08
2.64831e-08
2.64783e-08
2.64873e-08
2.65074e-08
2.65023e-08
2.64569e-08
2.64307e-08
2.64666e-08
2.63816e-08
2.63283e-08
2.62447e-08
2.63147e-08
2.63451e-08
2.62511e-08
2.65224e-08
2.65592e-08
2.65201e-08
2.65122e-08
2.6562e-08
2.65649e-08
2.62896e-08
2.62654e-08
2.62016e-08
2.61839e-08
2.62058e-08
2.62192e-08
2.60059e-08
2.58333e-08
2.61591e-08
2.59873e-08
2.59934e-08
2.59445e-08
2.60132e-08
2.64758e-08
2.653e-08
2.65378e-08
2.65247e-08
2.65437e-08
2.64845e-08
2.65115e-08
2.61702e-08
2.61396e-08
2.62075e-08
2.61717e-08
2.60749e-08
2.61267e-08
2.61402e-08
2.6182e-08
2.61195e-08
2.62985e-08
2.62276e-08
2.62938e-08
2.62199e-08
2.62504e-08
2.62218e-08
2.63505e-08
2.63745e-08
2.64068e-08
2.64369e-08
2.62383e-08
2.64829e-08
2.65193e-08
2.65007e-08
2.65241e-08
2.61938e-08
2.6134e-08
2.61364e-08
2.61794e-08
2.62043e-08
2.61465e-08
2.64631e-08
2.64843e-08
2.65176e-08
2.54509e-08
2.55322e-08
2.55895e-08
2.55434e-08
2.55203e-08
2.56336e-08
2.56187e-08
2.54189e-08
2.54929e-08
2.5191e-08
2.57351e-08
2.54501e-08
2.55123e-08
2.53529e-08
2.56098e-08
2.53391e-08
2.52113e-08
2.54001e-08
2.52775e-08
2.55077e-08
2.53815e-08
2.54099e-08
2.54315e-08
2.56896e-08
2.56014e-08
2.53848e-08
2.52383e-08
2.58878e-08
2.55522e-08
2.58289e-08
2.54981e-08
2.54395e-08
2.55697e-08
2.57147e-08
2.59455e-08
2.59918e-08
2.60359e-08
2.59116e-08
2.59369e-08
2.59809e-08
2.57167e-08
2.56314e-08
2.64812e-08
2.64833e-08
2.65328e-08
2.64771e-08
2.65237e-08
2.64944e-08
2.64483e-08
2.64354e-08
2.63646e-08
2.63777e-08
2.62998e-08
2.62915e-08
2.63391e-08
2.63189e-08
2.62172e-08
2.63125e-08
2.65405e-08
2.65266e-08
2.65445e-08
2.64955e-08
2.65614e-08
2.65184e-08
2.62916e-08
2.62166e-08
2.62027e-08
2.61831e-08
2.62032e-08
2.60733e-08
2.59537e-08
2.5989e-08
2.59901e-08
2.60182e-08
2.59836e-08
2.59881e-08
2.59324e-08
2.6492e-08
2.6526e-08
2.65484e-08
2.65396e-08
2.6513e-08
2.65522e-08
2.6547e-08
2.65444e-08
2.65347e-08
2.61592e-08
2.61182e-08
2.60634e-08
2.62095e-08
2.61091e-08
2.61418e-08
2.61426e-08
2.61938e-08
2.6203e-08
2.62912e-08
2.62037e-08
2.631e-08
2.61983e-08
2.62435e-08
2.62393e-08
2.63471e-08
2.63726e-08
2.63674e-08
2.63947e-08
2.61669e-08
2.6443e-08
2.64855e-08
2.65333e-08
2.6528e-08
2.61891e-08
2.618e-08
2.61234e-08
2.60914e-08
2.61778e-08
2.60086e-08
2.60772e-08
2.64604e-08
2.65058e-08
2.65242e-08
2.55274e-08
2.56437e-08
2.55189e-08
2.54266e-08
2.54603e-08
2.5424e-08
2.55404e-08
2.55924e-08
2.5453e-08
2.55019e-08
2.57191e-08
2.57096e-08
2.54732e-08
2.53626e-08
2.51343e-08
2.54339e-08
2.53328e-08
2.56292e-08
2.53627e-08
2.56351e-08
2.52902e-08
2.54218e-08
2.5374e-08
2.53017e-08
2.56023e-08
2.54602e-08
2.53849e-08
2.57524e-08
2.57039e-08
2.56108e-08
2.56286e-08
2.55803e-08
2.55043e-08
2.54951e-08
2.59291e-08
2.58847e-08
2.60327e-08
2.59104e-08
2.58774e-08
2.59464e-08
2.58259e-08
2.569e-08
2.64815e-08
2.64822e-08
2.65244e-08
2.65202e-08
2.65224e-08
2.6489e-08
2.64677e-08
2.64243e-08
2.63977e-08
2.6398e-08
2.62807e-08
2.63465e-08
2.63117e-08
2.62581e-08
2.63476e-08
2.63051e-08
2.62186e-08
2.65175e-08
2.65424e-08
2.65504e-08
2.64838e-08
2.65187e-08
2.65466e-08
2.62368e-08
2.60882e-08
2.61643e-08
2.61727e-08
2.6196e-08
2.59995e-08
2.60007e-08
2.59432e-08
2.60285e-08
2.58247e-08
2.59449e-08
2.59692e-08
2.59591e-08
2.64909e-08
2.64665e-08
2.65416e-08
2.65001e-08
2.65093e-08
2.65308e-08
2.65359e-08
2.65063e-08
2.65202e-08
2.61581e-08
2.6038e-08
2.61561e-08
2.61512e-08
2.61287e-08
2.61671e-08
2.61421e-08
2.61818e-08
2.62068e-08
2.62578e-08
2.62966e-08
2.62459e-08
2.62202e-08
2.61226e-08
2.61609e-08
2.62799e-08
2.62021e-08
2.62913e-08
2.63721e-08
2.63481e-08
2.64073e-08
2.61251e-08
2.64657e-08
2.6485e-08
2.64609e-08
2.65112e-08
2.65361e-08
2.6028e-08
2.61778e-08
2.61142e-08
2.60358e-08
2.60827e-08
2.6079e-08
2.60732e-08
2.65433e-08
2.64787e-08
2.65022e-08
2.65277e-08
2.57104e-08
2.55972e-08
2.54105e-08
2.54142e-08
2.53482e-08
2.55146e-08
2.56368e-08
2.56101e-08
2.55246e-08
2.49755e-08
2.56501e-08
2.54455e-08
2.52728e-08
2.54193e-08
2.54266e-08
2.5426e-08
2.55311e-08
2.53388e-08
2.54424e-08
2.53351e-08
2.51831e-08
2.53296e-08
2.53862e-08
2.55393e-08
2.54926e-08
2.54047e-08
2.57752e-08
2.56622e-08
2.55912e-08
2.55748e-08
2.55867e-08
2.56716e-08
2.53909e-08
2.59205e-08
2.57917e-08
2.5668e-08
2.5908e-08
2.5866e-08
2.5707e-08
2.56626e-08
2.57435e-08
2.57675e-08
2.64671e-08
2.64606e-08
2.65001e-08
2.65332e-08
2.65302e-08
2.65136e-08
2.65108e-08
2.64759e-08
2.64013e-08
2.63963e-08
2.64395e-08
2.62214e-08
2.63584e-08
2.6186e-08
2.62162e-08
2.63579e-08
2.63073e-08
2.6239e-08
2.6483e-08
2.65389e-08
2.65544e-08
2.6547e-08
2.65433e-08
2.65339e-08
2.65374e-08
2.62818e-08
2.6189e-08
2.61856e-08
2.61895e-08
2.60249e-08
2.60566e-08
2.60103e-08
2.60184e-08
2.58621e-08
2.59459e-08
2.59694e-08
2.59616e-08
2.65232e-08
2.64658e-08
2.65546e-08
2.65314e-08
2.65112e-08
2.65295e-08
2.65408e-08
2.6542e-08
2.6539e-08
2.65382e-08
2.61516e-08
2.61643e-08
2.61057e-08
2.60938e-08
2.61712e-08
2.61197e-08
2.61439e-08
2.61812e-08
2.62002e-08
2.61518e-08
2.62653e-08
2.62251e-08
2.62545e-08
2.61955e-08
2.6123e-08
2.62922e-08
2.62436e-08
2.62705e-08
2.63047e-08
2.64316e-08
2.63804e-08
2.60135e-08
2.64655e-08
2.64707e-08
2.64826e-08
2.65038e-08
2.65162e-08
2.60182e-08
2.60511e-08
2.59583e-08
2.60945e-08
2.61214e-08
2.60797e-08
2.60648e-08
2.60546e-08
2.64539e-08
2.64689e-08
2.65188e-08
2.65369e-08
2.56157e-08
2.54539e-08
2.5355e-08
2.51824e-08
2.53922e-08
2.52157e-08
2.53564e-08
2.55928e-08
2.56153e-08
2.55464e-08
2.53021e-08
2.49422e-08
2.54431e-08
2.55415e-08
2.54503e-08
2.54776e-08
2.55619e-08
2.54176e-08
2.52625e-08
2.52389e-08
2.52953e-08
2.53955e-08
2.55647e-08
2.51889e-08
2.55506e-08
2.55562e-08
2.54134e-08
2.55349e-08
2.57343e-08
2.56808e-08
2.54332e-08
2.55226e-08
2.54305e-08
2.56176e-08
2.56237e-08
2.58684e-08
2.57266e-08
2.57957e-08
2.58987e-08
2.58695e-08
2.57974e-08
2.57389e-08
2.57372e-08
2.5768e-08
2.64878e-08
2.64921e-08
2.65234e-08
2.65303e-08
2.65178e-08
2.65189e-08
2.64416e-08
2.63785e-08
2.63243e-08
2.6428e-08
2.62596e-08
2.62905e-08
2.62602e-08
2.61876e-08
2.61827e-08
2.62556e-08
2.62953e-08
2.64828e-08
2.65297e-08
2.65441e-08
2.6532e-08
2.65452e-08
2.65408e-08
2.65323e-08
2.61977e-08
2.62428e-08
2.60382e-08
2.60477e-08
2.59482e-08
2.62354e-08
2.60615e-08
2.6017e-08
2.60183e-08
2.59535e-08
2.59376e-08
2.59806e-08
2.59804e-08
2.65042e-08
2.64918e-08
2.65256e-08
2.64677e-08
2.652e-08
2.65254e-08
2.65259e-08
2.6539e-08
2.65262e-08
2.65246e-08
2.61418e-08
2.61527e-08
2.60085e-08
2.61072e-08
2.6102e-08
2.6048e-08
2.60315e-08
2.60668e-08
2.61545e-08
2.61802e-08
2.61679e-08
2.6194e-08
2.62033e-08
2.61372e-08
2.6209e-08
2.61909e-08
2.6092e-08
2.63532e-08
2.62769e-08
2.63469e-08
2.63734e-08
2.6432e-08
2.64331e-08
2.64774e-08
2.64944e-08
2.64837e-08
2.65046e-08
2.65195e-08
2.65141e-08
2.59838e-08
2.60452e-08
2.60071e-08
2.60868e-08
2.6128e-08
2.60463e-08
2.59102e-08
2.60654e-08
2.64506e-08
2.64949e-08
2.65094e-08
2.65354e-08
2.53128e-08
2.54538e-08
2.54462e-08
2.54798e-08
2.5227e-08
2.55774e-08
2.53264e-08
2.54713e-08
2.54424e-08
2.55259e-08
2.50104e-08
2.53422e-08
2.54466e-08
2.5523e-08
2.54982e-08
2.51433e-08
2.54954e-08
2.55201e-08
2.54079e-08
2.532e-08
2.54889e-08
2.54492e-08
2.54981e-08
2.54096e-08
2.54745e-08
2.54118e-08
2.56039e-08
2.54505e-08
2.54123e-08
2.57072e-08
2.56502e-08
2.55953e-08
2.56318e-08
2.53805e-08
2.52302e-08
2.56333e-08
2.58004e-08
2.59054e-08
2.60014e-08
2.59879e-08
2.59071e-08
2.58604e-08
2.58203e-08
2.57712e-08
2.57376e-08
2.65049e-08
2.64933e-08
2.65299e-08
2.65466e-08
2.65216e-08