/*--------------------------------*- C++ -*----------------------------------*\
| =========                 |                                                 |
| \\      /  F ield         | OpenFOAM: The Open Source CFD Toolbox           |
|  \\    /   O peration     | Version:  v2012                                 |
|   \\  /    A nd           | Website:  www.openfoam.com                      |
|    \\/     M anipulation  |                                                 |
\*---------------------------------------------------------------------------*/
FoamFile
{
    version     2.0;
    format      ascii;
    class       volVectorField;
    location    "1.6";
    object      U;
}
// * * * * * * * * * * * * * * * * * * * * * * * * * * * * * * * * * * * * * //

dimensions      [0 1 -1 0 0 0 0];


internalField   nonuniform List<vector> 
13611
(
(8.73046 0.197465 2.38193e-21)
(8.7036 0.00973502 6.66465e-22)
(9.09529 -0.645307 2.30537e-21)
(9.00569 -0.54757 0)
(9.01475 -0.459965 1.02695e-22)
(8.77611 -0.345286 -2.16458e-21)
(8.2892 -0.0933805 -9.79819e-22)
(9.34332 -0.239995 9.30024e-23)
(8.88567 -0.392023 0)
(8.9513 -0.485787 -4.75264e-22)
(8.75621 -0.308701 0)
(8.36315 0.150421 0)
(8.72397 -0.225109 4.03304e-23)
(9.57012 -0.240376 0)
(8.85073 -0.382403 7.47035e-23)
(8.98621 -0.32161 5.78088e-21)
(8.77809 -0.317951 -9.91716e-22)
(8.86855 -0.190169 3.07437e-21)
(8.30121 0.136229 -1.74103e-21)
(8.68185 -0.231878 0)
(9.33306 -0.153553 -1.04645e-21)
(8.89646 -0.422244 -9.55452e-22)
(8.87441 -0.407034 -1.97637e-22)
(8.8511 -0.394141 -1.51653e-21)
(8.7299 -0.301756 0)
(8.75774 -0.227954 -9.19113e-22)
(8.30465 -0.0997421 -1.53187e-21)
(8.75417 -0.176904 0)
(9.13961 -0.136481 -4.60983e-24)
(8.89865 -0.432419 -8.06091e-22)
(8.84451 -0.423459 -4.22342e-23)
(8.83965 -0.408872 1.23115e-22)
(8.77897 -0.376777 0)
(8.6542 -0.300019 8.03404e-22)
(8.71884 -0.168172 -4.49099e-21)
(8.25386 -0.0454721 0)
(8.62469 -0.0995983 0)
(9.32832 -0.192252 -2.03573e-23)
(8.88792 -0.450522 0)
(8.83056 -0.454924 -4.75536e-22)
(8.8221 -0.42266 6.11194e-23)
(8.73518 -0.385219 1.83874e-22)
(8.64932 -0.340733 -4.44241e-22)
(8.63893 -0.223483 -1.67078e-21)
(8.10278 -0.0387988 1.11847e-22)
(8.67189 -0.0925989 0)
(9.09592 -0.196249 1.48516e-22)
(8.70058 -0.219323 4.47668e-22)
(8.8505 -0.469641 -8.28271e-22)
(8.90912 -0.488418 0)
(8.79871 -0.474478 0)
(8.78822 -0.451035 0)
(8.71491 -0.412319 4.63778e-22)
(8.62397 -0.33898 0)
(8.57737 -0.303558 0)
(8.58265 -0.208921 -1.64758e-21)
(8.36353 -0.0489969 1.75705e-22)
(8.61242 -0.150134 -8.33853e-22)
(9.15497 -0.137534 2.30909e-23)
(8.84284 -0.215006 0)
(8.84946 -0.52173 0)
(8.88412 -0.529592 0)
(8.78341 -0.506847 5.63147e-24)
(8.74869 -0.470877 2.00088e-25)
(8.93271 -0.543551 -6.13771e-23)
(8.68628 -0.422196 -1.0352e-22)
(8.72853 -0.453099 3.91832e-22)
(8.64406 -0.388429 2.53648e-24)
(8.54118 -0.319942 0)
(8.49208 -0.271954 -3.97384e-22)
(8.32843 -0.0369132 2.48481e-22)
(8.55432 -0.195893 6.50125e-23)
(8.94037 -0.218899 -8.89406e-23)
(8.60747 -0.132122 2.58183e-22)
(8.8224 -0.546463 -1.20923e-22)
(8.89782 -0.552923 -6.16054e-23)
(8.74789 -0.525125 -1.12711e-22)
(8.79262 -0.53922 0)
(8.72621 -0.511735 -1.09882e-22)
(8.66986 -0.457817 1.98199e-22)
(8.69305 -0.472718 2.47032e-22)
(8.61438 -0.408421 -2.62117e-22)
(8.48789 -0.317145 0)
(8.57407 -0.378309 -3.28481e-22)
(8.42833 -0.277738 1.58801e-23)
(8.38215 -0.103593 -4.00863e-23)
(8.46625 -0.259089 0)
(8.88133 -0.330392 0)
(8.71147 -0.194668 1.12145e-23)
(8.83448 -0.596702 -1.21172e-22)
(8.8868 -0.582068 4.47001e-23)
(8.72748 -0.564693 0)
(8.75866 -0.570592 0)
(8.69446 -0.530258 0)
(8.91553 -0.602663 0)
(8.63547 -0.476833 2.01688e-22)
(8.67115 -0.506073 -1.08548e-22)
(8.61056 -0.454545 3.63233e-22)
(8.49704 -0.361678 -1.40054e-22)
(8.54972 -0.399378 -1.3418e-22)
(8.39389 -0.332383 7.85652e-23)
(8.327 -0.126062 2.7003e-22)
(8.41909 -0.292704 8.76939e-24)
(8.93362 -0.0839115 0)
(8.59366 -0.200701 0)
(8.86139 -0.607097 -4.68178e-23)
(8.80642 -0.627218 1.61181e-22)
(8.69107 -0.586768 -1.69106e-22)
(8.769 -0.615832 1.62086e-22)
(8.66875 -0.573177 -1.2879e-22)
(8.90671 -0.634126 6.89291e-24)
(8.92603 -0.647968 -3.91465e-23)
(8.60514 -0.519163 4.57308e-23)
(8.63121 -0.53394 -1.59682e-22)
(8.57601 -0.474044 4.04322e-22)
(8.46578 -0.394481 0)
(8.52388 -0.44644 1.67448e-23)
(8.43263 -0.386812 0)
(8.35043 -0.342893 1.8008e-22)
(8.26129 -0.143551 3.03237e-22)
(8.37977 -0.24796 0)
(8.31793 -0.319739 1.31224e-22)
(8.92171 -0.353222 0)
(8.73535 -0.0851727 0)
(8.62128 -0.234817 -2.75599e-23)
(8.87042 -0.639687 -8.42239e-23)
(8.79804 -0.665992 3.61384e-23)
(8.69829 -0.618751 -1.13011e-22)
(8.74017 -0.634341 -6.02458e-23)
(8.63355 -0.574904 -1.36311e-23)
(8.92033 -0.686611 -4.29771e-23)
(8.56888 -0.538769 -4.2824e-23)
(8.54798 -0.519701 -1.38253e-22)
(8.53725 -0.474027 -2.79495e-23)
(8.47772 -0.450249 -2.05664e-22)
(8.41235 -0.418434 0)
(8.37657 -0.397327 -1.09051e-22)
(8.26033 -0.195763 1.21068e-23)
(8.33554 -0.253299 0)
(8.29776 -0.335585 1.53954e-23)
(9.0867 -0.220433 0)
(8.56172 -0.101026 0)
(8.45914 -0.24507 -4.1542e-23)
(8.86092 -0.669637 0)
(8.77158 -0.686369 2.58743e-23)
(8.83088 -0.683495 0)
(8.6762 -0.643172 0)
(8.72862 -0.664493 -4.8477e-25)
(8.61133 -0.595299 -6.38856e-24)
(8.891 -0.699796 -5.59813e-23)
(8.94405 -0.708991 1.61466e-23)
(8.55402 -0.57839 3.47648e-23)
(8.50905 -0.539281 -1.37349e-22)
(8.48162 -0.510268 9.52834e-23)
(8.43687 -0.479937 -2.21348e-22)
(8.39601 -0.445758 -7.17538e-24)
(8.35044 -0.403214 -1.07335e-22)
(8.22676 -0.201446 -8.59037e-24)
(8.29206 -0.215681 -4.57655e-24)
(8.26027 -0.279722 3.66742e-23)
(8.32991 -0.378283 7.01262e-23)
(8.27097 -0.320868 1.53105e-23)
(8.92242 -0.234659 0)
(8.65364 -0.0596866 -2.26938e-23)
(8.48092 -0.214848 0)
(8.74195 -0.683431 0)
(8.77764 -0.726291 -9.91453e-24)
(8.83121 -0.72408 -6.82988e-23)
(8.64736 -0.65236 -8.98893e-23)
(8.69713 -0.67339 -8.60802e-25)
(8.577 -0.599527 3.09548e-23)
(8.62267 -0.630644 -4.5749e-23)
(8.88604 -0.736336 2.62101e-23)
(8.94067 -0.742041 0)
(8.52047 -0.58636 0)
(8.4997 -0.571322 4.73655e-23)
(8.45327 -0.534605 1.28173e-22)
(8.41174 -0.477544 -8.06503e-23)
(8.42366 -0.517549 -1.04604e-22)
(8.34772 -0.462923 7.1104e-23)
(8.3269 -0.441836 1.90386e-24)
(8.33837 -0.201552 9.89941e-24)
(8.25618 -0.221596 -5.17294e-25)
(8.2209 -0.289937 2.30997e-24)
(8.3124 -0.386745 6.86494e-23)
(8.26633 -0.344094 -1.59346e-23)
(9.04133 -0.176807 -4.13081e-23)
(8.5643 -0.0460928 6.24394e-25)
(8.7247 -0.725325 1.06143e-24)
(8.80472 -0.741259 -3.10662e-23)
(8.74565 -0.747511 0)
(8.85787 -0.747306 -6.78363e-23)
(8.63898 -0.688324 3.21712e-23)
(8.68713 -0.698764 5.35136e-24)
(8.56143 -0.638603 -1.0042e-23)
(8.58788 -0.65288 4.26235e-23)
(8.91268 -0.758769 6.4327e-23)
(8.96724 -0.756869 0)
(8.51061 -0.620648 0)
(8.46793 -0.573968 1.07161e-22)
(8.37076 -0.507512 0)
(8.40075 -0.543362 -1.04713e-22)
(8.33659 -0.497541 -6.35292e-23)
(8.30205 -0.442311 0)
(8.3176 -0.171335 0)
(8.23321 -0.169949 3.97029e-25)
(8.19481 -0.267191 -7.80608e-23)
(8.23602 -0.329555 7.06541e-23)
(8.28486 -0.370907 -1.90262e-23)
(8.30251 -0.416981 0)
(8.75299 -0.0698626 4.80072e-24)
(8.87836 -0.210277 -1.06623e-22)
(8.40733 -0.110275 1.08662e-23)
(8.70252 -0.727648 9.71719e-25)
(8.80304 -0.773416 -3.07066e-23)
(8.74972 -0.773057 3.19309e-23)
(8.85241 -0.786193 6.10362e-23)
(8.61565 -0.703028 4.13094e-23)
(8.66205 -0.704473 5.12228e-24)
(8.53125 -0.647093 -3.66142e-23)
(8.58611 -0.687884 0)
(8.91122 -0.794267 5.84756e-24)
(8.97046 -0.794803 5.09998e-23)
(8.48054 -0.626125 -6.9438e-23)
(8.4561 -0.599809 9.93296e-23)
(8.36541 -0.531381 7.90886e-23)
(8.41112 -0.581209 -7.71613e-24)
(8.30659 -0.521214 -6.34965e-23)
(8.25818 -0.465246 0)
(8.24812 -0.139238 4.99693e-24)
(8.17341 -0.180077 0)
(8.15638 -0.280872 -4.26769e-23)
(8.20093 -0.356924 8.04589e-23)
(8.2562 -0.392784 0)
(8.2617 -0.421457 -5.24088e-24)
(8.68181 -0.124599 3.55672e-23)
(9.00335 -0.115155 -2.24262e-24)
(8.30677 -0.0650843 2.59454e-23)
(8.68139 -0.751172 4.44678e-23)
(8.78043 -0.787023 0)
(8.82853 -0.795897 0)
(8.72965 -0.791862 6.71529e-23)
(8.88005 -0.811233 4.17416e-23)
(8.60992 -0.73316 9.2375e-24)
(8.65667 -0.736436 6.98345e-23)
(8.51568 -0.680686 -6.00392e-23)
(8.56192 -0.701704 1.68022e-23)
(8.9411 -0.814024 0)
(8.46802 -0.654425 -2.99582e-23)
(8.43409 -0.603694 5.7746e-23)
(8.34619 -0.559069 1.07667e-22)
(8.38845 -0.605601 2.69192e-23)
(8.2848 -0.5157 4.1025e-23)
(8.31779 -0.553384 -6.6074e-23)
(8.26294 -0.491184 5.0938e-23)
(8.22693 -0.447059 -5.4543e-24)
(8.25991 -0.0894701 -1.99756e-23)
(8.11974 -0.168775 0)
(8.12394 -0.247169 0)
(8.15381 -0.321065 0)
(8.16901 -0.352962 1.38514e-23)
(8.19404 -0.395334 -5.12595e-23)
(8.21282 -0.406518 8.63011e-24)
(8.80601 -0.098284 4.62674e-24)
(8.40611 -0.0987212 5.50512e-24)
(8.86426 -0.205901 1.85339e-22)
(8.68164 -0.776024 1.31747e-22)
(8.78309 -0.817056 -2.16789e-23)
(8.81177 -0.826051 0)
(8.73741 -0.827668 5.42039e-23)
(8.70515 -0.796725 1.30844e-22)
(8.87546 -0.845774 -2.5636e-23)
(8.63111 -0.749799 1.67455e-23)
(8.58389 -0.748477 0)
(8.48688 -0.681854 -4.76285e-23)
(8.53485 -0.703469 0)
(8.56253 -0.735496 4.94739e-23)
(8.93433 -0.842917 0)
(8.43718 -0.663631 -3.23264e-23)
(8.42032 -0.644514 -4.4565e-23)
(8.35974 -0.595206 6.06265e-23)
(8.39487 -0.642618 -6.13788e-23)
(8.26396 -0.55001 1.40344e-23)
(8.29865 -0.585098 -5.34484e-23)
(8.22641 -0.515941 1.9469e-23)
(8.1877 -0.45788 0)
(8.19891 -0.0736426 -1.87266e-23)
(8.11779 -0.113837 7.225e-24)
(8.03818 -0.224349 -5.64408e-24)
(8.06949 -0.266676 -6.35644e-24)
(8.11061 -0.334959 1.27167e-24)
(8.11769 -0.384186 0)
(8.14488 -0.417561 -3.52458e-23)
(8.16576 -0.442792 8.54685e-24)
(8.5928 -0.0825191 -1.15028e-23)
(8.3694 -0.0988108 -1.70508e-23)
(8.85642 -0.275849 -1.31277e-23)
(8.64974 -0.790778 7.32675e-24)
(8.7602 -0.836194 -3.12881e-24)
(8.82064 -0.853815 2.09432e-23)
(8.71128 -0.850531 0)
(8.69068 -0.836217 1.29247e-23)
(8.85153 -0.866713 0)
(8.90414 -0.862028 -7.20002e-24)
(8.62392 -0.77737 -8.90275e-24)
(8.57645 -0.777805 -6.59614e-23)
(8.46657 -0.708084 -5.55841e-23)
(8.51837 -0.733163 0)
(8.53659 -0.750442 3.23887e-23)
(8.96217 -0.86906 0)
(8.98971 -0.870928 0)
(8.43427 -0.691559 -8.82207e-23)
(8.33575 -0.625173 9.24493e-24)
(8.37504 -0.667137 -8.7316e-23)
(8.23313 -0.550962 -5.10097e-24)
(8.27089 -0.580932 0)
(8.30693 -0.616979 2.28398e-23)
(8.19818 -0.510388 1.54829e-23)
(8.17658 -0.485164 -3.73096e-23)
(8.27539 -0.0674019 -1.75038e-23)
(8.00239 -0.131085 5.21088e-24)
(7.99634 -0.246229 0)
(8.07948 -0.308908 -1.2281e-25)
(8.08578 -0.374244 0)
(8.11068 -0.410666 -1.10911e-23)
(8.10295 -0.448549 1.5569e-23)
(8.12297 -0.460228 0)
(8.63497 -0.109335 1.73039e-23)
(8.90629 -0.0865798 0)
(8.6432 -0.825264 -7.74517e-25)
(8.76718 -0.867884 0)
(8.79522 -0.876427 -1.10574e-23)
(8.71635 -0.872962 3.86062e-23)
(8.66477 -0.847181 2.69377e-23)
(8.85622 -0.897795 -2.72572e-23)
(8.90993 -0.888477 -7.18461e-24)
(8.59726 -0.793043 -3.92828e-23)
(8.54828 -0.793013 -6.60119e-23)
(8.47231 -0.730283 4.62478e-23)
(8.49591 -0.745652 7.51854e-24)
(8.52765 -0.777115 -6.003e-23)
(8.95054 -0.898626 0)
(9.01 -0.907483 0)
(8.40979 -0.715559 -1.30972e-22)
(8.33985 -0.65953 -3.54622e-23)
(8.38463 -0.693076 0)
(8.21045 -0.577133 0)
(8.24541 -0.60923 -8.49873e-24)
(8.27973 -0.646756 4.79888e-23)
(8.17608 -0.543833 5.45033e-24)
(8.14659 -0.503336 -4.02545e-23)
(8.2143 -0.0788525 0)
(7.94209 -0.20382 0)
(8.01297 -0.110401 0)
(8.00932 -0.303608 -2.6654e-24)
(8.03737 -0.326739 -2.1449e-24)
(8.02875 -0.39314 -2.0429e-24)
(8.05035 -0.437312 -1.11965e-23)
(8.05494 -0.462158 -1.42172e-23)
(8.11438 -0.488886 0)
(8.59697 -0.114509 -2.50581e-23)
(8.85424 -0.240884 0)
(8.73192 -0.0251077 -3.22925e-24)
(8.61319 -0.840276 8.45781e-24)
(8.74778 -0.886552 1.5209e-23)
(8.80509 -0.902064 -3.23408e-23)
(8.69658 -0.895457 7.07125e-23)
(8.65259 -0.875002 -2.67055e-23)
(8.87739 -0.922715 -1.16791e-23)
(8.83822 -0.913105 -9.22625e-25)
(8.89957 -0.921274 0)
(8.58908 -0.825278 0)
(8.54156 -0.821415 -4.32974e-23)
(8.44364 -0.761543 5.49165e-24)
(8.4836 -0.775652 -2.50673e-23)
(8.49942 -0.789115 -5.95639e-23)
(8.96245 -0.932511 -2.00659e-24)
(8.99202 -0.938679 0)
(8.41756 -0.755342 -4.34832e-23)
(8.39272 -0.704708 0)
(8.31561 -0.675673 1.96735e-23)
(8.3519 -0.714648 0)
(8.18177 -0.570783 0)
(8.21683 -0.602922 -8.52595e-24)
(8.24893 -0.640487 0)
(8.28729 -0.672802 4.74333e-23)
(8.14483 -0.535449 -6.30952e-24)
(8.25633 -0.0920301 0)
(7.90318 -0.234507 -2.41961e-23)
(7.93549 -0.14437 2.01264e-23)
(7.96134 -0.32182 2.48044e-24)
(8.00176 -0.370717 -2.23991e-24)
(7.99829 -0.419232 -1.88818e-23)
(8.02191 -0.441335 -6.79952e-24)
(8.04288 -0.480362 -1.33594e-23)
(8.08561 -0.512277 0)
(8.42921 -0.113921 0)
(9.01217 -0.180728 0)
(8.65121 -0.048309 -2.00194e-23)
(8.60533 -0.865835 1.01706e-24)
(8.74357 -0.916366 1.50632e-23)
(8.78886 -0.933178 1.91021e-24)
(8.66949 -0.898407 -5.727e-23)
(8.71389 -0.922136 5.69519e-23)
(8.62773 -0.882957 1.46124e-23)
(8.86097 -0.952238 1.56686e-23)
(8.83755 -0.946748 -3.42585e-24)
(8.93411 -0.95353 -2.64743e-23)
(8.5625 -0.838036 -3.91121e-23)
(8.51506 -0.834463 0)
(8.45107 -0.787913 -4.08709e-23)
(8.49133 -0.818431 -1.90755e-24)
(9.01557 -0.969827 2.67e-23)
(8.39312 -0.782944 4.33326e-23)
(8.36257 -0.731262 2.37185e-23)
(8.30769 -0.709213 3.36167e-23)
(8.32593 -0.725579 1.50459e-23)
(8.15652 -0.594275 0)
(8.19138 -0.627738 0)
(8.22265 -0.664363 0)
(8.26601 -0.69212 0)
(8.11982 -0.555925 0)
(8.08608 -0.127262 1.77672e-23)
(7.84725 -0.215425 2.84262e-23)
(7.93326 -0.305382 6.63793e-24)
(7.94311 -0.14449 2.21876e-23)
(7.86015 -0.196826 1.78119e-23)
(7.92828 -0.359438 2.02398e-23)
(7.95307 -0.380887 0)
(7.96995 -0.434269 -2.65289e-24)
(7.99665 -0.464734 -2.44205e-23)
(8.01699 -0.493843 -1.18253e-23)
(8.06285 -0.507439 0)
(8.092 -0.546707 -2.10068e-23)
(8.34581 -0.130314 0)
(8.75369 -0.0366961 0)
(8.84687 -0.108064 0)
(8.46415 -0.122249 -2.96943e-23)
(8.03797 -0.145092 -1.50112e-23)
(7.81203 -0.0972085 0)
(8.57807 -0.885189 0)
(8.76143 -0.936314 1.76473e-24)
(8.80949 -0.962627 -2.46946e-24)
(8.65722 -0.92788 0)
(8.70426 -0.950544 2.45037e-23)
(8.61137 -0.915691 -4.51248e-23)
(8.88191 -0.977292 6.40618e-24)
(8.93855 -0.981111 -2.41876e-23)
(8.55557 -0.870372 1.75066e-23)
(8.50956 -0.863339 -4.09882e-23)
(8.44158 -0.811802 0)
(8.46562 -0.830111 0)
(9.05285 -0.972793 6.25368e-24)
(8.9961 -0.991876 2.69911e-23)
(8.36695 -0.767962 1.76941e-23)
(8.39592 -0.805465 4.3694e-23)
(8.28459 -0.715158 0)
(8.32427 -0.757675 9.80164e-24)
(8.12603 -0.586267 0)
(8.16303 -0.622028 0)
(8.19519 -0.656198 -3.06685e-23)
(8.22303 -0.692399 0)
(8.24472 -0.702735 0)
(8.15047 -0.138433 0)
(7.83184 -0.257659 2.75727e-23)
(7.88667 -0.324416 2.90199e-23)
(7.85009 -0.182626 -1.10245e-23)
(7.81477 -0.210445 -2.69384e-23)
(7.8796 -0.37612 2.04571e-23)
(7.9273 -0.410042 -1.99862e-23)
(7.97354 -0.465092 2.87189e-24)
(7.94263 -0.43055 -1.90126e-23)
(7.99387 -0.481692 -2.86753e-24)
(8.01566 -0.525207 1.30817e-24)
(8.04106 -0.533572 2.13477e-23)
(8.07051 -0.571781 -4.72269e-23)
(8.78805 -0.0540023 -9.26568e-23)
(8.91696 -0.0816553 -2.56831e-23)
(8.34142 -0.141147 0)
(8.03339 -0.16151 1.05108e-22)
(8.03556 -0.144246 4.59061e-23)
(8.02495 -0.159785 -1.52389e-22)
(8.09344 -0.07405 -2.05863e-22)
(7.79159 -0.103653 0)
(8.58076 -0.912055 -4.38575e-23)
(8.75525 -0.971715 5.77606e-23)
(8.81049 -0.984878 5.68376e-23)
(8.67351 -0.951581 -2.5614e-23)
(8.62771 -0.933336 -3.03141e-23)
(8.72707 -0.977169 0)
(8.91699 -0.99375 2.04083e-23)
(8.86679 -1.00622 -1.42234e-23)
(8.97166 -1.00073 5.16846e-25)
(8.52964 -0.881848 -2.27296e-23)
(8.48115 -0.874641 0)
(8.42189 -0.818136 -3.77441e-24)
(8.46094 -0.858043 0)
(9.00762 -1.01915 -4.98362e-24)
(8.34461 -0.775349 9.67981e-24)
(8.37944 -0.825979 1.8364e-23)
(8.27382 -0.736311 3.62922e-23)
(8.30068 -0.774 0)
(8.10161 -0.61134 0)
(8.14092 -0.642171 1.92569e-23)
(8.16914 -0.677893 -5.56676e-23)
(8.19662 -0.715402 0)
(8.24625 -0.729044 -1.54787e-23)
(8.02374 -0.170493 -6.35271e-23)
(7.79342 -0.257395 0)
(7.85878 -0.309848 -1.5967e-23)
(7.85318 -0.359853 0)
(7.84005 -0.191133 -1.56174e-23)
(7.78258 -0.233621 -2.14095e-23)
(7.86709 -0.404411 1.88581e-24)
(7.89715 -0.418878 1.74822e-24)
(7.94833 -0.477075 -2.1698e-23)
(7.91739 -0.459361 1.43978e-24)
(7.96778 -0.503856 1.40171e-23)
(7.99165 -0.540977 1.62649e-23)
(8.04394 -0.560271 4.31957e-23)
(8.07484 -0.602964 -3.45158e-24)
(8.68371 -0.123826 -9.05205e-23)
(8.75851 -0.0690146 6.93888e-23)
(8.41263 -0.142186 -1.49763e-23)
(8.09244 -0.168611 -6.71058e-23)
(8.05444 -0.157281 1.97271e-22)
(8.03219 -0.150724 5.46483e-23)
(8.03026 -0.130611 1.35602e-22)
(8.03051 -0.156816 5.72788e-23)
(8.14963 -0.106582 0)
(7.86021 -0.0766611 0)
(8.55781 -0.935071 -1.19604e-23)
(8.78277 -0.995215 5.77598e-23)
(8.83845 -1.00668 5.75609e-23)
(8.6602 -0.9851 -2.78598e-23)
(8.61359 -0.960625 2.83153e-23)
(8.71265 -1.0001 0)
(8.91698 -1.03184 0)
(8.89038 -1.04088 2.02477e-23)
(8.96582 -1.0385 0)
(8.51251 -0.910544 0)
(8.46542 -0.896444 0)
(8.41531 -0.851684 7.18935e-24)
(8.43274 -0.870257 0)
(9.03461 -1.02039 6.8749e-24)
(8.98621 -1.04833 -1.90977e-23)
(8.3271 -0.797867 4.28546e-23)
(8.39344 -0.856978 2.56161e-23)
(8.35371 -0.837461 0)
(8.28112 -0.763247 3.79332e-23)
(8.29862 -0.794152 0)
(8.1105 -0.636579 0)
(8.14522 -0.668765 1.72402e-23)
(8.17125 -0.707386 -2.30668e-23)
(8.20111 -0.738857 0)
(8.22925 -0.74557 3.47079e-25)
(7.76536 -0.287109 2.15406e-23)
(7.81167 -0.327978 -1.56356e-23)
(7.8124 -0.370899 -4.1331e-24)
(7.77855 -0.213154 1.73644e-23)
(7.74806 -0.241124 0)
(7.83681 -0.425801 -1.26027e-23)
(7.87726 -0.447613 -5.16732e-24)
(7.92399 -0.47691 3.01547e-24)
(7.94597 -0.496379 -3.22555e-23)
(7.8882 -0.463297 -1.23002e-23)
(7.96764 -0.531807 0)
(7.99189 -0.567258 0)
(8.01928 -0.579247 -1.28845e-23)
(8.05039 -0.620984 4.55906e-23)
(8.71703 -0.119063 0)
(8.80033 -0.103685 5.21924e-24)
(8.24782 -0.148148 6.32698e-24)
(8.00369 -0.188092 0)
(8.03351 -0.139368 -1.13729e-22)
(8.03588 -0.148607 0)
(8.03594 -0.13386 1.16567e-23)
(8.03669 -0.168465 0)
(8.03489 -0.16301 5.69004e-23)
(8.04996 -0.174786 -1.17889e-23)
(8.141 -0.0812599 0)
(7.82789 -0.0821751 -1.40468e-22)
(8.52799 -0.933445 2.4913e-23)
(8.5676 -0.960993 3.39973e-23)
(8.77624 -1.02277 -2.86537e-23)
(8.82635 -1.04433 -2.41624e-25)
(8.68272 -1.00857 0)
(8.63281 -0.987315 -2.58266e-23)
(8.59196 -0.967517 -1.63524e-24)
(8.72808 -1.02778 0)
(8.94048 -1.05412 1.28883e-23)
(8.87727 -1.06232 1.97235e-23)
(8.48633 -0.91509 -1.30133e-23)
(8.44007 -0.91418 0)
(8.41821 -0.899405 0)
(9.07424 -1.04761 -7.40396e-24)
(9.0446 -1.0509 -1.05113e-24)
(9.00013 -1.06863 -2.31038e-24)
(8.3343 -0.824224 4.20237e-23)
(8.37039 -0.879415 0)
(8.34281 -0.871139 0)
(8.25437 -0.781517 0)
(8.27563 -0.814778 -5.63434e-25)
(8.09576 -0.660961 4.16747e-23)
(8.11815 -0.686211 0)
(8.14758 -0.725265 -3.7689e-26)
(8.18711 -0.765825 2.21531e-23)
(8.2332 -0.771283 3.79522e-23)
(7.7361 -0.274574 3.58493e-24)
(7.76408 -0.31245 1.98561e-24)
(7.78098 -0.328642 -1.8363e-23)
(7.79286 -0.360482 -4.01498e-24)
(7.79553 -0.402743 0)
(7.7542 -0.209961 5.37141e-23)
(7.74277 -0.239629 1.91582e-23)
(7.80882 -0.42413 4.68386e-24)
(7.84258 -0.452478 -8.69066e-24)
(7.90322 -0.499726 -2.10164e-23)
(7.91743 -0.513459 -1.31615e-23)
(7.8646 -0.487254 8.76836e-24)
(7.9426 -0.548455 -2.83789e-23)
(7.96901 -0.584769 1.59075e-23)
(8.02309 -0.608158 -3.01167e-23)
(8.04865 -0.651834 2.0074e-23)
(8.58301 -0.121912 3.50756e-23)
(8.79987 -0.0800009 3.96081e-23)
(8.07563 -0.171799 6.06135e-24)
(8.33461 -0.142919 -1.12046e-24)
(7.83113 -0.210402 8.17633e-23)
(8.06715 -0.118433 -2.46198e-22)
(8.03881 -0.146271 7.85915e-23)
(8.03965 -0.155646 0)
(8.03723 -0.131887 1.23817e-23)
(8.04557 -0.170916 0)
(8.04054 -0.161106 0)
(8.0614 -0.178259 -2.51669e-25)
(8.1803 -0.0829659 0)
(7.90483 -0.0461368 -9.37486e-23)
(8.51319 -0.964662 2.38345e-23)
(8.5527 -0.983766 3.89844e-23)
(8.80191 -1.04973 -2.8613e-23)
(8.75319 -1.03788 0)
(8.84734 -1.06864 -1.3488e-23)
(8.68273 -1.0339 1.00633e-23)
(8.61961 -1.01904 6.62003e-24)
(8.58752 -0.994213 7.18223e-24)
(8.71011 -1.04779 1.89363e-24)
(8.94149 -1.08479 1.2827e-23)
(8.88916 -1.09039 -4.11012e-24)
(8.47392 -0.942491 -3.97705e-23)
(8.44495 -0.938831 -2.12624e-23)
(8.39577 -0.910844 1.70816e-24)
(9.0331 -1.07286 -1.72451e-25)
(8.99988 -1.09608 1.79443e-23)
(8.30404 -0.848045 -1.43785e-24)
(8.37336 -0.899033 0)
(8.32163 -0.888231 0)
(8.25098 -0.80633 -1.75972e-23)
(8.27794 -0.839143 -1.43401e-24)
(8.0703 -0.669772 4.30511e-23)
(8.11779 -0.708959 2.6541e-23)
(8.14841 -0.7495 0)
(8.20519 -0.788472 3.84168e-23)
(8.16582 -0.768164 2.36951e-23)
(7.69959 -0.293932 1.36287e-24)
(7.71325 -0.33779 -2.0095e-23)
(7.74567 -0.356821 5.5915e-24)
(7.75206 -0.370949 -1.49538e-23)
(7.75379 -0.41532 0)
(7.72387 -0.219896 -1.21847e-23)
(7.71971 -0.242896 1.2449e-23)
(7.78106 -0.456456 -9.9739e-24)
(7.8245 -0.471652 0)
(7.87486 -0.505226 -1.47531e-23)
(7.91677 -0.535718 0)
(7.83561 -0.491123 8.8174e-24)
(7.94287 -0.572301 -1.1084e-23)
(7.9724 -0.610816 1.59097e-23)
(7.99861 -0.623278 0)
(8.02562 -0.662059 0)
(8.66995 -0.10077 2.7853e-23)
(8.66041 -0.0361368 1.19146e-22)
(7.93194 -0.189867 0)
(8.20421 -0.150105 -1.36846e-24)
(7.80049 -0.211722 0)
(8.06217 -0.121961 -3.25462e-22)
(8.0408 -0.148139 1.79404e-22)
(8.04286 -0.153364 1.00457e-22)
(8.03779 -0.137041 0)
(8.05306 -0.124963 -3.22792e-22)
(8.05264 -0.169953 1.60614e-23)
(8.04884 -0.165252 0)
(8.06909 -0.176913 -2.95533e-23)
(8.22381 -0.0309611 0)
(7.87817 -0.0730139 0)
(8.48738 -0.964432 -2.85733e-23)
(8.52776 -0.989481 1.41137e-23)
(8.56404 -1.00052 2.03595e-23)
(8.78534 -1.07585 -8.16529e-24)
(8.75906 -1.07129 8.00945e-24)
(8.83887 -1.0955 -3.68884e-23)
(8.66438 -1.04879 0)
(8.59638 -1.01649 0)
(8.63962 -1.04519 3.03741e-23)
(8.71657 -1.07525 -7.9976e-24)
(8.97383 -1.10968 1.26588e-23)
(8.9165 -1.10343 0)
(8.8652 -1.11044 -2.37436e-23)
(8.42743 -0.96019 4.33102e-24)
(8.38858 -0.941087 2.49071e-24)
(9.07514 -1.10074 -2.05301e-23)
(9.0514 -1.09924 -1.46771e-23)
(9.03395 -1.12144 -7.05602e-24)
(8.29777 -0.878291 -3.30075e-23)
(8.35357 -0.92038 0)
(8.32743 -0.913614 2.05317e-23)
(8.2254 -0.82312 -1.69195e-23)
(8.24524 -0.862247 0)
(8.06873 -0.703272 -2.47614e-23)
(8.09427 -0.722492 2.68592e-23)
(8.11979 -0.76522 -4.46039e-25)
(8.20146 -0.808717 2.09837e-23)
(8.14595 -0.794417 4.4327e-24)
(7.6686 -0.284614 -7.75665e-23)
(7.68408 -0.334059 7.7939e-24)
(7.70062 -0.365162 -2.49848e-23)
(7.72799 -0.39729 -1.34538e-23)
(7.73902 -0.442311 0)
(7.70448 -0.205297 0)
(7.68015 -0.257534 -5.57265e-23)
(7.79389 -0.47588 -1.4786e-23)
(7.75907 -0.458927 6.79933e-24)
(7.85584 -0.527338 -2.23034e-23)
(7.89339 -0.549996 2.80352e-23)
(7.81617 -0.512143 9.08553e-24)
(7.9205 -0.591514 4.82857e-23)
(7.95188 -0.628351 -2.15215e-23)
(8.00048 -0.647678 0)
(8.01658 -0.687529 0)
(8.58594 -0.100854 5.43321e-24)
(8.77855 -0.0412224 -5.72205e-24)
(7.97757 -0.178242 0)
(8.31615 -0.123744 5.08776e-24)
(7.7457 -0.196404 -1.74149e-23)
(8.1937 -0.0440717 -3.41016e-24)
(8.04282 -0.144228 0)
(8.04993 -0.155939 -1.13477e-22)
(8.04003 -0.135912 0)
(8.04682 -0.12419 -8.65958e-23)
(8.06365 -0.173668 -1.37041e-23)
(8.05711 -0.165325 7.81964e-24)
(8.08647 -0.183122 1.7669e-23)
(8.08371 -0.180548 0)
(7.88422 -0.0653024 0)
(8.46728 -0.986344 0)
(8.50839 -1.01579 3.64429e-23)
(8.55062 -1.02282 -1.83012e-23)
(8.79334 -1.09766 -1.55616e-23)
(8.74088 -1.09035 0)
(8.81915 -1.11095 0)
(8.66823 -1.0817 0)
(8.5734 -1.03565 -3.17414e-24)
(8.62442 -1.07926 2.30894e-23)
(8.6941 -1.09379 0)
(8.97568 -1.14587 1.28114e-23)
(8.92683 -1.14159 0)
(8.87379 -1.14124 3.72877e-24)
(8.40232 -0.960262 -1.24211e-23)
(8.44081 -0.984257 2.63482e-23)
(8.36158 -0.942521 5.40572e-25)
(9.0942 -1.12566 0)
(9.0306 -1.14711 0)
(8.27455 -0.894685 -5.75322e-23)
(8.30783 -0.938803 2.04934e-23)
(8.22093 -0.85072 2.8194e-23)
(8.24273 -0.886094 1.87744e-23)
(8.04446 -0.721799 -2.87778e-23)
(8.0947 -0.75135 -5.91938e-25)
(8.11796 -0.788868 -1.25391e-23)
(8.17711 -0.823626 1.02967e-25)
(8.15195 -0.813872 2.07438e-26)
(7.62254 -0.31263 6.75521e-23)
(7.63884 -0.353342 0)
(7.66944 -0.386202 -1.37875e-23)
(7.68687 -0.407693 -1.12116e-23)
(7.71508 -0.449895 -1.34382e-23)
(7.65153 -0.218651 0)
(7.63311 -0.244338 2.16694e-23)
(7.77989 -0.495731 -1.8371e-24)
(7.73863 -0.477432 0)
(7.82719 -0.529314 9.12951e-24)
(7.8674 -0.546253 -2.03287e-23)
(7.89373 -0.579118 2.79057e-23)
(7.79528 -0.514315 4.49475e-24)
(7.92512 -0.618362 2.75315e-23)
(7.95515 -0.655924 -2.81397e-23)
(7.97776 -0.663912 0)
(7.98603 -0.685674 1.21701e-23)
(8.02353 -0.709258 7.03574e-24)
(8.66621 -0.0679972 0)
(8.6136 -0.00109804 0)
(7.90638 -0.172328 1.0018e-23)
(8.19479 -0.115066 5.27296e-24)
(7.74008 -0.197115 -8.11409e-23)
(8.25733 -0.0590982 -4.08519e-24)
(8.04866 -0.146882 0)
(8.05783 -0.1623 -1.52655e-22)
(8.05361 -0.153394 5.21754e-23)
(8.03892 -0.132083 0)
(8.04533 -0.140078 0)
(8.16267 -0.0898034 -3.55162e-22)
(8.03315 -0.128443 2.78078e-22)
(8.07225 -0.172929 0)
(8.06989 -0.170721 0)
(8.08581 -0.185509 1.75641e-23)
(8.08602 -0.178776 0)
(7.83878 -0.0678036 0)
(8.1575 -0.0690965 -9.07765e-25)
(8.46731 -1.01375 -2.6631e-23)
(8.48714 -1.02771 -1.77589e-23)
(8.52563 -1.03486 2.2571e-23)
(8.77585 -1.12653 0)
(8.74931 -1.11903 0)
(8.82217 -1.14796 2.27835e-23)
(8.6428 -1.10036 2.49347e-23)
(8.58374 -1.05966 3.796e-24)
(8.60551 -1.08284 -1.30964e-23)
(8.70196 -1.12323 0)
(8.95334 -1.16074 0)
(9.00264 -1.16293 -1.27911e-23)
(8.90449 -1.15864 0)
(8.8462 -1.16066 2.31373e-23)
(8.38701 -0.988609 -1.24066e-23)
(8.42399 -1.00897 -2.25927e-23)
(8.34374 -0.96763 6.23374e-25)
(9.08012 -1.1526 -3.08378e-25)
(9.05202 -1.16384 -2.65753e-25)
(8.27589 -0.917917 -2.34785e-23)
(8.28903 -0.935357 1.43713e-23)
(8.3184 -0.966481 4.28314e-25)
(8.19359 -0.863577 2.87429e-23)
(8.2238 -0.903591 1.88414e-23)
(8.04645 -0.75787 -2.51511e-23)
(8.07003 -0.770672 0)
(8.10159 -0.806546 -2.0355e-23)
(8.17208 -0.8522 0)
(8.1326 -0.839296 0)
(7.5881 -0.306324 -4.46095e-23)
(7.61066 -0.345597 4.78493e-23)
(7.61575 -0.380119 0)
(7.63907 -0.3957 0)
(7.67614 -0.435942 0)
(7.69324 -0.452108 -3.19483e-24)
(7.71686 -0.474592 -2.02317e-23)
(7.62874 -0.206548 6.91749e-23)
(7.58594 -0.267469 -4.42076e-23)
(7.75773 -0.506624 -1.20015e-23)
(7.7386 -0.490306 -3.82051e-24)
(7.80749 -0.550614 0)
(7.84234 -0.569589 2.00649e-23)
(7.86228 -0.603736 0)
(7.77538 -0.534266 6.34723e-24)
(7.90073 -0.634669 -1.63082e-23)
(7.93183 -0.671089 -9.13357e-24)
(7.97431 -0.707119 1.22114e-23)
(7.99625 -0.728201 -1.40091e-23)
(8.55573 -0.0393427 4.79519e-25)
(8.72472 0.0145249 0)
(7.99799 -0.137044 5.25266e-24)
(7.81608 -0.189864 -4.26179e-24)
(8.29562 -0.0626381 5.19409e-25)
(7.75937 -0.193267 -1.03981e-22)
(7.67771 -0.203274 7.07395e-23)
(8.0508 -0.144581 0)
(8.07001 -0.163873 -4.91342e-23)
(8.06485 -0.155771 5.35937e-23)
(8.04625 -0.134748 0)
(8.0521 -0.140181 5.49255e-23)
(8.18338 -0.118404 -2.04407e-22)
(8.02982 -0.137024 -1.49554e-22)
(8.08558 -0.176453 0)
(8.07827 -0.170583 1.70367e-24)
(8.0866 -0.182958 1.76648e-23)
(8.08501 -0.180726 0)
(7.95792 -0.10498 0)
(8.17514 -0.104989 -3.26718e-24)
(8.44032 -1.02705 -3.20766e-23)
(8.49214 -1.05947 0)
(8.53364 -1.06091 0)
(8.79638 -1.15553 2.55057e-23)
(8.73031 -1.13714 0)
(8.64946 -1.12583 0)
(8.56272 -1.07461 -3.53834e-24)
(8.59171 -1.10919 -1.22149e-23)
(8.67981 -1.14161 0)
(8.9474 -1.19426 3.35727e-24)
(8.99541 -1.18938 -1.2617e-23)
(8.90139 -1.18903 0)
(8.85086 -1.18604 1.57021e-23)
(8.3587 -0.991462 0)
(8.39993 -1.01276 1.11529e-24)
(9.0992 -1.17163 0)
(9.04055 -1.19852 -1.93169e-23)
(8.25504 -0.931156 -1.34277e-23)
(8.26726 -0.960777 2.29827e-23)
(8.30139 -0.984534 0)
(8.18793 -0.885286 1.18611e-23)
(8.20452 -0.902381 0)
(8.23429 -0.925595 9.53111e-24)
(8.02286 -0.772345 4.77398e-24)
(8.07424 -0.796982 -3.88474e-24)
(8.10999 -0.833168 0)
(8.14487 -0.860884 0)
(7.54223 -0.331509 8.70771e-24)
(7.57086 -0.359348 -2.45058e-23)
(7.5861 -0.396748 -2.12701e-23)
(7.62671 -0.433831 0)
(7.64805 -0.448695 0)
(7.68314 -0.474494 -8.45936e-24)
(7.70084 -0.482772 0)
(7.56133 -0.219301 7.18701e-23)
(7.54146 -0.266414 -3.53789e-23)
(7.74687 -0.499547 -3.78001e-24)
(7.75626 -0.531401 -1.23936e-23)
(7.72013 -0.50342 5.0088e-25)
(7.78139 -0.549577 0)
(7.81736 -0.567689 2.86136e-24)
(7.84016 -0.5942 1.27285e-24)
(7.86828 -0.630507 0)
(7.90479 -0.659891 -1.52899e-23)
(7.92624 -0.696537 0)
(7.94652 -0.713203 -2.57024e-23)
(7.99658 -0.753433 -2.46236e-23)
(8.62763 -0.00353368 -6.47325e-24)
(8.60402 0.0298714 0)
(7.91633 -0.118288 3.10512e-23)
(7.81301 -0.152421 1.90273e-23)
(8.13976 -0.0373928 6.0919e-23)
(7.71038 -0.187764 0)
(7.6673 -0.192707 0)
(8.0612 -0.146216 0)
(8.07365 -0.161267 0)
(8.07953 -0.169042 1.72214e-24)
(8.07111 -0.153703 -1.43969e-23)
(8.05171 -0.140907 0)
(8.04785 -0.137807 3.95877e-23)
(8.06185 -0.145276 2.07407e-23)
(8.13493 -0.133872 -2.39585e-22)
(8.2076 -0.13684 0)
(8.04078 -0.134723 -1.65174e-22)
(8.03782 -0.141634 0)
(8.08648 -0.174495 -1.74482e-23)
(8.08748 -0.172693 0)
(8.08255 -0.189476 3.53199e-23)
(8.08545 -0.183358 8.10986e-23)
(8.0856 -0.178774 -1.72547e-23)
(7.98665 -0.114882 -2.65314e-22)
(8.44219 -1.05668 0)
(8.47054 -1.0757 0)
(8.51572 -1.07699 0)
(8.78524 -1.18101 2.51734e-23)
(8.7316 -1.16517 -2.41827e-24)
(8.63136 -1.14405 8.29184e-24)
(8.56514 -1.10107 0)
(8.60457 -1.13285 2.52847e-23)
(8.67984 -1.1632 0)
(8.92398 -1.20839 1.81903e-23)
(8.96825 -1.20958 6.91653e-24)
(9.01571 -1.20983 0)
(8.88036 -1.20184 0)
(8.8325 -1.209 2.06732e-25)
(8.34394 -1.0141 -2.13923e-23)
(8.38774 -1.03247 -1.41703e-23)
(9.08974 -1.19922 0)
(9.06143 -1.217 -1.87535e-23)
(8.24878 -0.956967 4.23328e-25)
(8.27576 -0.981169 2.77022e-23)
(8.3022 -1.00933 1.71307e-23)
(8.16722 -0.894808 1.59179e-23)
(8.18638 -0.927975 0)
(8.21547 -0.948753 1.14058e-23)
(8.02086 -0.797189 2.92798e-23)
(8.05887 -0.814568 -1.30105e-23)
(8.09504 -0.852291 -1.68646e-23)
(8.14425 -0.878086 3.11556e-23)
(7.53826 -0.353588 -2.90545e-24)
(7.51456 -0.312459 -9.16587e-24)
(7.55564 -0.384192 -1.91224e-23)
(7.58655 -0.425726 -8.84906e-24)
(7.60561 -0.437862 1.33573e-23)
(7.64635 -0.476971 9.09768e-25)
(7.6677 -0.485609 9.07075e-25)
(7.69956 -0.494169 0)
(7.53917 -0.213759 -1.04192e-24)
(7.52001 -0.244562 5.16939e-23)