/*--------------------------------*- C++ -*----------------------------------*\
| =========                 |                                                 |
| \\      /  F ield         | OpenFOAM: The Open Source CFD Toolbox           |
|  \\    /   O peration     | Version:  v2012                                 |
|   \\  /    A nd           | Website:  www.openfoam.com                      |
|    \\/     M anipulation  |                                                 |
\*---------------------------------------------------------------------------*/
FoamFile
{
    version     2.0;
    format      ascii;
    class       volVectorField;
    location    "0.41";
    object      cellDisplacement;
}
// * * * * * * * * * * * * * * * * * * * * * * * * * * * * * * * * * * * * * //

dimensions      [0 1 0 0 0 0 0];


internalField   nonuniform List<vector> 
11961
(
(-9.10749e-05 0.000706736 0)
(-0.000218059 0.00171272 0)
(-0.000203678 0.00155439 0)
(-0.000134311 0.00108754 0)
(-0.000413523 0.00321605 0)
(-0.000108708 0.000821561 0)
(-0.000391091 0.00298718 0)
(-0.000335391 0.00273822 0)
(-0.000602838 0.00471149 0)
(-0.000197703 0.00147113 0)
(-0.000537581 0.00406393 0)
(-0.000624069 0.00498068 0)
(-0.000351744 0.00294126 0)
(-0.000809705 0.00621323 0)
(-0.000394125 0.00292598 0)
(-8.68099e-05 0.000642901 0)
(-0.000541784 0.00404693 0)
(-0.000758598 0.00574697 0)
(-0.000871527 0.00697564 0)
(-0.00064603 0.00542734 0)
(-0.000142298 0.00122418 0)
(-0.00105907 0.00811381 0)
(-0.000431753 0.00317039 0)
(-0.000153779 0.0011275 0)
(-0.000761499 0.00562674 0)
(-0.000904753 0.00672791 0)
(-0.000885787 0.00728948 0)
(-0.00111178 0.00869884 0)
(-0.000634317 0.00551966 0)
(-0.000343138 0.00303554 0)
(-0.0012492 0.00936 0)
(-0.000595033 0.00433887 0)
(-0.00030551 0.00223662 0)
(-6.44731e-05 0.000471342 0)
(-0.000772924 0.00564779 0)
(-0.00113454 0.00838034 0)
(-0.00116657 0.00963979 0)
(-0.00140138 0.0109453 0)
(-0.000863042 0.00760947 0)
(-0.000288148 0.00265109 0)
(-0.00152586 0.011375 0)
(-0.000602164 0.00434922 0)
(-0.000336389 0.00244072 0)
(-0.000121915 0.000885781 0)
(-0.000933729 0.00673793 0)
(-0.00128012 0.00925928 0)
(-0.00115267 0.00988196 0)
(-0.00144145 0.0115819 0)
(-0.00163064 0.0124045 0)
(-0.000810014 0.00748225 0)
(-0.000537835 0.00512566 0)
(-9.73817e-05 0.000910978 0)
(-0.00170227 0.0124057 0)
(-0.000466924 0.00336928 0)
(-0.000735935 0.00526857 0)
(-0.000246329 0.00178609 0)
(-9.42003e-05 0.000683743 0)
(-0.00115213 0.00827239 0)
(-0.000883024 0.00632193 0)
(-0.00156468 0.0112331 0)
(-0.00142746 0.0123633 0)
(-0.00175792 0.0141102 0)
(-0.00197034 0.0148751 0)
(-0.00100975 0.00948919 0)
(-0.000502304 0.00507145 0)
(-8.68823e-05 0.000906164 0)
(-0.00199315 0.014424 0)
(-0.000464726 0.00331994 0)
(-0.000728748 0.0051646 0)
(-0.000246523 0.0017726 0)
(-3.30458e-05 0.000239824 0)
(-0.000162672 0.00117334 0)
(-0.00120653 0.00849354 0)
(-0.00101413 0.00716011 0)
(-0.00172446 0.0121441 0)
(-0.0013252 0.0120663 0)
(-0.00175622 0.0146748 0)
(-0.00206409 0.0159859 0)
(-0.00215386 0.0158231 0)
(-0.000951676 0.00945242 0)
(-0.000714211 0.00741677 0)
(-0.000253188 0.00269448 0)
(-0.00218242 0.0154303 0)
(-0.00032929 0.00235405 0)
(-0.0005885 0.00417018 0)
(-0.000901272 0.00632311 0)
(-5.01227e-05 0.000361453 0)
(-0.0001121 0.000806427 0)
(-0.00140122 0.00973214 0)
(-0.00205324 0.0143563 0)
(-0.00165211 0.0114783 0)
(-0.00144827 0.0135841 0)
(-0.00211396 0.0176887 0)
(-0.00238416 0.0183721 0)
(-0.00249965 0.0180274 0)
(-0.00117228 0.0117498 0)
(-0.000673342 0.00757886 0)
(-0.000257504 0.0029417 0)
(-0.00250734 0.0176244 0)
(-0.000305605 0.00216505 0)
(-0.000566798 0.00397263 0)
(-0.000917111 0.00635077 0)
(-1.35534e-05 9.79781e-05 0)
(-0.000103246 0.000739337 0)
(-0.00137515 0.00938091 0)
(-0.00217746 0.0148966 0)
(-0.00190581 0.0130114 0)
(-0.001707 0.0158488 0)
(-0.00244046 0.0195034 0)
(-0.00205949 0.0181161 0)
(-0.00269708 0.0201352 0)
(-0.00276082 0.0199908 0)
(-0.00114675 0.0122225 0)
(-0.00046003 0.00544034 0)
(-0.000866113 0.0100171 0)
(-9.40675e-05 0.0011554 0)
(-0.00271684 0.0187303 0)
(-0.000413048 0.00289886 0)
(-0.000203556 0.00144337 0)
(-0.000708115 0.00490959 0)
(-0.00111924 0.00764671 0)
(-1.14248e-05 8.22307e-05 0)
(-0.000138373 0.000984881 0)
(-4.42716e-05 0.000317909 0)
(-0.00163098 0.0109361 0)
(-0.00251247 0.0169102 0)
(-0.00191597 0.0128646 0)
(-0.00167678 0.0165734 0)
(-0.00282497 0.0221386 0)
(-0.00229668 0.0205075 0)
(-0.00298951 0.022423 0)
(-0.00317948 0.0223614 0)
(-0.00137541 0.0147002 0)
(-0.000370687 0.00493572 0)
(-0.000824357 0.0104332 0)
(-0.000176257 0.00239766 0)
(-0.00274112 0.0185222 0)
(-0.00302904 0.0206858 0)
(-0.000357106 0.00247976 0)
(-0.000137922 0.000967985 0)
(-0.000658702 0.00451585 0)
(-0.00103712 0.00699005 0)
(-6.7932e-05 0.000482399 0)
(-2.49607e-05 0.000178347 0)
(-0.00163541 0.0107864 0)
(-0.00251265 0.016597 0)
(-0.00218668 0.0144547 0)
(-0.00196046 0.0191043 0)
(-0.00305779 0.024171 0)
(-0.00268778 0.0233483 0)
(-0.00338994 0.0247007 0)
(-0.00351701 0.0248033 0)
(-0.00326356 0.0223573 0)
(-0.00129367 0.0152006 0)
(-0.000437976 0.00635401 0)
(-0.00101009 0.013035 0)
(-0.000621011 0.00875258 0)
(-8.09671e-05 0.00126892 0)
(-0.00305789 0.0204073 0)
(-0.000182881 0.00127346 0)
(-0.000459245 0.00315616 0)
(-4.57594e-05 0.000322616 0)
(-0.000789297 0.00534586 0)
(-0.00115302 0.00764691 0)
(-0.00140722 0.00924932 0)
(-0.00196518 0.0127319 0)
(-0.0027584 0.0178517 0)
(-0.00221518 0.0143828 0)
(-0.00192381 0.0200342 0)
(-0.00303556 0.0248946 0)
(-0.00352972 0.0267749 0)
(-0.00272156 0.0250194 0)
(-0.00368659 0.0269972 0)
(-0.00399506 0.0273505 0)
(-0.00369988 0.0246981 0)
(-0.0015181 0.0178463 0)
(-0.000291826 0.0051246 0)
(-0.000843634 0.0125611 0)
(-0.000626421 0.00993239 0)
(-0.000144903 0.00264306 0)
(-0.00333592 0.0218481 0)
(-8.97455e-05 0.000618279 0)
(-0.000380157 0.0025841 0)
(-0.000689184 0.00462635 0)
(-0.000955144 0.00629331 0)
(-0.00144048 0.00929384 0)
(-0.0019557 0.0124673 0)
(-0.00254106 0.0162801 0)
(-0.00310123 0.0198606 0)
(-0.00225011 0.0229177 0)
(-0.00362568 0.0288202 0)
(-0.00389488 0.0295286 0)
(-0.00320374 0.0285188 0)
(-0.00423355 0.0299854 0)
(-0.00407047 0.027158 0)
(-0.00441368 0.03023 0)
(-0.00373584 0.0244132 0)
(-0.00137248 0.0184354 0)
(-0.000323002 0.00651034 0)
(-0.000835024 0.0136959 0)
(-0.000482005 0.00891979 0)
(-5.7601e-05 0.00135682 0)
(-0.00336934 0.0216657 0)
(-0.000189261 0.0012892 0)
(-0.000486647 0.0032738 0)
(-0.000753937 0.00500195 0)
(-0.000988065 0.00641781 0)
(-0.00120879 0.00777799 0)
(-0.00167359 0.0106679 0)
(-0.00218938 0.0137265 0)
(-0.00268254 0.0168763 0)
(-0.00321896 0.0202115 0)
(-0.00213685 0.0237481 0)
(-0.00377751 0.030793 0)
(-0.00443949 0.0320264 0)
(-0.00313808 0.0297597 0)
(-0.00454708 0.0294915 0)
(-0.00496819 0.0328777 0)
(-0.00414219 0.0264476 0)
(-0.00101694 0.0162128 0)
(-0.00162455 0.0212988 0)
(-0.000231668 0.00605373 0)
(-0.000561168 0.0120257 0)
(-0.000442874 0.00994125 0)
(-7.01003e-05 0.00225794 0)
(-0.00379086 0.0238471 0)
(-9.85351e-05 0.000662281 0)
(-0.000409675 0.00272444 0)
(-0.000563832 0.00371755 0)
(-0.000769181 0.00497067 0)
(-0.00120348 0.00762748 0)
(-0.00164467 0.0103223 0)
(-0.00208738 0.0129212 0)
(-0.0025042 0.015619 0)
(-0.00302118 0.0188367 0)
(-0.00355069 0.0219595 0)
(-0.00251665 0.0269781 0)
(-0.00449345 0.0351193 0)
(-0.00499698 0.0352768 0)
(-0.0036699 0.0335045 0)
(-0.00498395 0.0321591 0)
(-0.00455382 0.0289457 0)
(-0.00548001 0.0359278 0)
(-0.00413578 0.025963 0)
(-0.000767692 0.0159517 0)
(-0.00147077 0.0219808 0)
(-0.000130343 0.00427579 0)
(-0.00027667 0.00817478 0)
(-0.000505567 0.0131849 0)
(-1.57818e-05 0.000938449 0)
(-0.00381904 0.0236169 0)
(-0.000217868 0.00144736 0)
(-0.000561913 0.00366068 0)
(-0.000785982 0.00501434 0)
(-0.000995437 0.00629588 0)
(-0.00140538 0.0088113 0)
(-0.00183525 0.0113756 0)
(-0.00225413 0.0137504 0)
(-0.00265022 0.0162357 0)
(-0.00320942 0.0196601 0)
(-0.00354122 0.0215852 0)
(-0.0023166 0.0275302 0)
(-0.00447412 0.0367219 0)
(-0.00513382 0.0373296 0)
(-0.00555474 0.0372641 0)
(-0.0034049 0.0339313 0)
(-0.005446 0.034142 0)
(-0.00499166 0.0309111 0)
(-0.00598838 0.0378622 0)
(-0.00449795 0.0276538 0)
(-0.000738339 0.0176082 0)
(-0.00103447 0.020301 0)
(-0.00178521 0.0249496 0)
(-6.85767e-05 0.00436355 0)
(-0.000170147 0.00815075 0)
(-0.000282765 0.0121721 0)
(-1.8163e-05 0.00229022 0)
(-0.00414698 0.0252204 0)
(-0.000126168 0.000822405 0)
(-0.000311308 0.0020113 0)
(-0.00059917 0.00379277 0)
(-0.000959787 0.00598277 0)
(-0.00137512 0.00849315 0)
(-0.00177569 0.0108624 0)
(-0.00248966 0.0151405 0)
(-0.00215448 0.0129678 0)
(-0.00291082 0.0176527 0)
(-0.00314953 0.0190888 0)
(-0.00378064 0.0226634 0)
(-0.00266873 0.030669 0)
(-0.00515704 0.0409506 0)
(-0.0060332 0.0418913 0)
(-0.00620919 0.0406886 0)
(-0.00384556 0.0372916 0)
(-0.00541734 0.0333405 0)
(-0.00590122 0.0367112 0)
(-0.00490939 0.0299859 0)
(-0.00657873 0.0409479 0)
(-0.00444461 0.0270125 0)
(-0.000328107 0.0159636 0)
(-0.000967305 0.0219216 0)
(-0.00147141 0.0249069 0)
(-6.38898e-05 0.00590398 0)
(-0.00014389 0.00980485 0)
(-0.000172527 0.0134103 0)
(1.23182e-05 0.00208449 0)
(-0.00423299 0.0253717 0)
(-0.000325544 0.00207587 0)
(-0.000705154 0.0044023 0)
(-0.00113259 0.00698444 0)
(-0.00155436 0.00949823 0)
(-0.00192745 0.011629 0)
(-0.00264837 0.0158598 0)
(-0.00231471 0.0137516 0)
(-0.00289586 0.0173113 0)
(-0.00340763 0.0202981 0)
(-0.00368889 0.0218852 0)
(-0.00409367 0.0243818 0)
(-0.00228622 0.0304278 0)
(-0.00597678 0.0440706 0)
(-0.00475702 0.0410467 0)
(-0.00633881 0.0444028 0)
(-0.00646827 0.0428381 0)
(-0.00669425 0.0422726 0)
(-0.00334589 0.0367764 0)
(-0.00583148 0.0350569 0)
(-0.00630786 0.0382383 0)
(-0.00518964 0.0310801 0)
(-0.00697827 0.0422224 0)
(-0.0047475 0.0283259 0)
(-0.000124245 0.01662 0)
(-0.000571677 0.021344 0)
(-0.00161755 0.0271806 0)
(2.71627e-05 0.00572176 0)
(1.80538e-05 0.00904484 0)
(8.94568e-05 0.0120024 0)
(8.47184e-06 0.000720788 0)
(5.69459e-05 0.00377904 0)
(-0.00461181 0.0273175 0)
(-0.000141879 0.000894563 0)
(-0.000608471 0.00374374 0)
(-0.00108689 0.00660532 0)
(-0.00154176 0.00927212 0)
(-0.00178465 0.0106348 0)
(-0.00256713 0.0152379 0)
(-0.00231326 0.0135505 0)
(-0.00309837 0.0182816 0)
(-0.00335223 0.0197585 0)
(-0.00391155 0.0228298 0)
(-0.00433965 0.0253515 0)
(-0.00252711 0.0331426 0)
(-0.00665461 0.0479268 0)
(-0.00520858 0.0443083 0)
(-0.00731628 0.0486932 0)
(-0.00723632 0.0460838 0)
(-0.00730567 0.0453686 0)
(-0.00370533 0.0399583 0)
(-0.00623816 0.0373177 0)
(-0.00586335 0.0346646 0)
(-0.00677351 0.0406417 0)
(-0.00557546 0.032984 0)
(-0.00505104 0.0299678 0)
(-0.00753968 0.0447883 0)
(-0.000190388 0.0188865 0)
(0.000254923 0.01474 0)
(-0.000611578 0.0235762 0)
(-0.00118058 0.0265003 0)
(8.15635e-05 0.00712637 0)
(0.000130762 0.0100505 0)
(0.000302988 0.0127072 0)
(2.66651e-05 0.000647613 0)
(0.00011758 0.00367481 0)
(-0.00475883 0.0278017 0)
(-0.000313821 0.00193901 0)
(-0.000812211 0.00492725 0)
(-0.00131191 0.0078738 0)
(-0.00186762 0.0109426 0)
(-0.00270098 0.0158001 0)
(-0.00213995 0.0124392 0)
(-0.00254784 0.0147914 0)
(-0.00308172 0.0179742 0)
(-0.00356667 0.0207113 0)
(-0.00382541 0.0221269 0)
(-0.00423104 0.0245185 0)
(-0.0046175 0.0268095 0)
(-0.00193691 0.0320567 0)
(-0.00674091 0.0495859 0)
(-0.00746009 0.0504878 0)
(-0.00464296 0.0436529 0)
(-0.00611959 0.0480879 0)
(-0.007856 0.0502256 0)
(-0.0077377 0.0487573 0)
(-0.00784925 0.0473702 0)
(-0.00298302 0.0387391 0)
(-0.00664244 0.0388868 0)
(-0.00628832 0.0364627 0)
(-0.00708052 0.0416341 0)
(-0.00564911 0.0328786 0)
(-0.00532411 0.0310915 0)
(-0.00790261 0.0468808 0)
(-0.00775074 0.0450971 0)
(0.000255429 0.0179321 0)
(0.000479006 0.0153848 0)
(-0.000234502 0.0235546 0)
(-0.0012823 0.0287118 0)
(0.000199078 0.00690204 0)
(0.000275157 0.00853725 0)
(0.000519955 0.0110056 0)
(7.96867e-05 0.00176503 0)
(0.000207416 0.00525506 0)
(-0.00501479 0.0290182 0)
(-0.000171071 0.00103993 0)
(-0.000786355 0.00470179 0)
(-0.00126483 0.00748539 0)
(-0.00167982 0.00973615 0)
(-0.0029026 0.0168759 0)
(-0.0022629 0.0128827 0)
(-0.00263294 0.0150716 0)
(-0.00330015 0.0189998 0)
(-0.00351759 0.0202114 0)
(-0.00404753 0.0230194 0)
(-0.00441903 0.0251971 0)
(-0.00489771 0.0279804 0)
(-0.00203234 0.0343911 0)
(-0.00785252 0.0541252 0)
(-0.00821919 0.0541854 0)
(-0.00526373 0.047542 0)
(-0.00635352 0.0508247 0)
(-0.00879962 0.0541824 0)
(-0.00845577 0.0512261 0)
(-0.0084641 0.0504691 0)
(-0.00329155 0.0419532 0)
(-0.0066321 0.0383465 0)
(-0.00699917 0.0407679 0)
(-0.00638092 0.0364645 0)
(-0.00749772 0.0435751 0)
(-0.00591008 0.0338765 0)
(-0.00539784 0.0311056 0)
(-0.0085073 0.0491861 0)
(-0.00824205 0.0470869 0)
(0.000500023 0.0186585 0)
(0.000839864 0.0145767 0)
(0.000347735 0.0211287 0)
(-0.000607513 0.0268299 0)
(0.000428579 0.00892684 0)
(0.000781317 0.0110277 0)
(0.000112858 0.00187103 0)
(0.000285025 0.00484722 0)
(-0.00507779 0.0290313 0)
(-0.00526204 0.0302673 0)
(-0.000328539 0.00195414 0)
(-0.00101473 0.00600004 0)
(-0.000596499 0.00353475 0)
(-0.00142496 0.00830577 0)
(-0.00179879 0.0102186 0)
(-0.00301999 0.0172618 0)
(-0.00210196 0.0118408 0)
(-0.00252057 0.0142663 0)
(-0.00289196 0.0164242 0)
(-0.0032538 0.0185047 0)
(-0.00370879 0.0210165 0)
(-0.00430213 0.0243411 0)
(-0.00396014 0.0223398 0)
(-0.00472733 0.0266631 0)
(-0.00494362 0.0279 0)
(-0.00121636 0.0321217 0)
(-0.0083296 0.0571036 0)
(-0.00898878 0.0567628 0)
(-0.00477703 0.047538 0)
(-0.00747888 0.0554767 0)
(-0.00921503 0.0565645 0)
(-0.00905365 0.0541935 0)
(-0.00903169 0.052361 0)
(-0.00239376 0.0400134 0)
(-0.00698767 0.039687 0)
(-0.00739106 0.0422802 0)
(-0.00621613 0.0353668 0)
(-0.00677881 0.0381127 0)
(-0.00768502 0.0439113 0)
(-0.00578074 0.0328747 0)
(-0.00858459 0.0489099 0)
(-0.00895962 0.0514048 0)
(-0.00837542 0.0470979 0)
(0.00101497 0.0161432 0)
(0.000988221 0.0125903 0)
(0.000828027 0.0209673 0)
(-0.000488719 0.0279841 0)
(0.000510445 0.00757743 0)
(0.000864197 0.0093359 0)
(0.000217504 0.00325958 0)
(4.81633e-05 0.000674437 0)
(0.000416807 0.00583999 0)
(-0.00533919 0.0302822 0)
(-0.000155696 0.000911829 0)
(-0.000994254 0.00577923 0)
(-0.000747427 0.00434494 0)
(-0.00122928 0.00707764 0)
(-0.00161937 0.00909965 0)
(-0.0022192 0.0122538 0)
(-0.00271963 0.0151475 0)
(-0.00296766 0.0165714 0)
(-0.00345791 0.0193812 0)
(-0.00368366 0.0206407 0)
(-0.00454568 0.0253092 0)
(-0.00411536 0.0228384 0)
(-0.00479568 0.0266606 0)
(-0.00532625 0.0295064 0)
(-0.000912189 0.0326338 0)
(-0.00945945 0.0612262 0)
(-0.00979165 0.06045 0)
(-0.00554452 0.0519121 0)
(-0.0079846 0.0587958 0)
(-0.0101338 0.0599963 0)
(-0.00976939 0.0567419 0)
(-0.00959549 0.0548309 0)
(-0.00243602 0.0421767 0)
(-0.00129684 0.0354922 0)
(-0.00731244 0.0412397 0)
(-0.00700497 0.0393339 0)
(-0.00747994 0.042292 0)
(-0.0065295 0.0363785 0)
(-0.00685408 0.0379716 0)
(-0.00807036 0.045455 0)
(-0.00602598 0.0336729 0)
(-0.00913245 0.0509084 0)
(-0.00942642 0.0529767 0)
(-0.00880906 0.0487306 0)
(0.00145267 0.0159211 0)
(0.0013701 0.0114662 0)
(0.000743774 0.0232585 0)
(0.00145204 0.0181768 0)
(0.000172487 0.026205 0)
(0.000705696 0.00790427 0)
(0.00108645 0.00905705 0)
(0.000236922 0.00279972 0)
(0.000122005 0.00141215 0)
(0.000447046 0.00502045 0)
(-0.0055787 0.0311968 0)
(-0.000322438 0.0018454 0)
(-0.000645037 0.00368483 0)
(-0.00130384 0.00738563 0)
(-0.00173492 0.00955473 0)
(-0.00251652 0.0137244 0)
(-0.00202338 0.0110569 0)
(-0.00273958 0.0150066 0)
(-0.00322663 0.0177904 0)
(-0.00346579 0.019151 0)
(-0.00392554 0.0217107 0)
(-0.00456484 0.0251248 0)
(-0.00435604 0.0239455 0)
(-0.0050992 0.0279053 0)
(-0.00537578 0.0293558 0)
(-0.00559265 0.0308986 0)
(9.10469e-05 0.0285327 0)
(-0.0100165 0.0622524 0)
(-0.0102095 0.0651182 0)
(-0.010478 0.0622373 0)
(-0.00717037 0.0573732 0)
(-0.00478322 0.0510713 0)
(-0.00977611 0.0649381 0)
(-0.0105342 0.0608739 0)
(-0.00988895 0.0565089 0)
(-0.010365 0.0595114 0)
(-0.0100203 0.0559933 0)
(-0.0010147 0.0376903 0)
(-0.00328694 0.0463333 0)
(-0.000525079 0.0342476 0)
(-0.00760607 0.0421102 0)
(-0.00742968 0.0410214 0)
(-0.00796244 0.0441853 0)
(-0.00644838 0.0356157 0)
(-0.00725591 0.0394889 0)
(-0.00823169 0.0456092 0)
(-0.00592461 0.0328678 0)
(-0.00947659 0.0526296 0)
(-0.00919602 0.0506258 0)
(-0.00989622 0.0550429 0)
(-0.00889636 0.0486185 0)
(0.00187547 0.013535 0)
(0.00132563 0.00985799 0)
(0.00174728 0.011752 0)
(0.00148789 0.0216453 0)
(0.00192408 0.0183052 0)
(0.000726851 0.00663972 0)
(0.00108877 0.0078419 0)
(0.000339046 0.00359034 0)
(7.41643e-05 0.000738173 0)
(0.000582826 0.00545971 0)
(-0.000167574 0.000941852 0)
(-0.000822377 0.00460694 0)
(-0.00112874 0.00630983 0)
(-0.00155659 0.00849705 0)
(-0.00251578 0.0134641 0)
(-0.00219089 0.0117515 0)
(-0.00304155 0.0164268 0)
(-0.00326498 0.0177287 0)
(-0.00377431 0.0205207 0)
(-0.00400125 0.0217988 0)
(-0.00486678 0.0263492 0)
(-0.00451232 0.0243524 0)
(-0.00513184 0.0276998 0)
(-0.00572068 0.0307173 0)
(-0.00602531 0.0326169 0)
(0.000731906 0.0273553 0)
(-0.0111639 0.0666134 0)
(-0.0114904 0.0689506 0)
(-0.0112501 0.0652504 0)
(-0.00808434 0.0619825 0)
(-0.00583691 0.0561621 0)
(-0.0105218 0.0686517 0)
(-0.0113212 0.0638267 0)
(-0.0105802 0.0589551 0)
(-0.0111137 0.0619151 0)
(-0.0105663 0.0582849 0)
(-0.000288477 0.036939 0)
(-0.00270967 0.0464742 0)
(0.000548701 0.0300441 0)
(-0.00798968 0.0438249 0)
(-0.0075948 0.0412727 0)
(-0.00671984 0.0364332 0)
(-0.00738328 0.0395653 0)
(-0.00863419 0.047168 0)
(-0.00624096 0.0338593 0)
(-0.00995475 0.0543671 0)
(-0.00966579 0.0521979 0)
(-0.0102176 0.0558538 0)
(-0.00927979 0.049977 0)
(0.00248244 0.0126516 0)
(0.0015288 0.008694 0)
(0.00199779 0.0100313 0)
(0.00161221 0.0232364 0)
(0.0025193 0.0163156 0)
(0.000899265 0.0067862 0)
(0.00131178 0.00772857 0)
(0.000365922 0.00335601 0)
(0.000144919 0.00125487 0)
(0.000523708 0.0044432 0)
(-0.000350255 0.00192584 0)
(-0.000677844 0.00372891 0)
(-0.00126881 0.00696972 0)
(-0.00159324 0.00854396 0)
(-0.00275329 0.0145063 0)
(-0.00209737 0.0110632 0)
(-0.00318781 0.0169284 0)
(-0.00357901 0.0191286 0)
(-0.00382929 0.0204812 0)
(-0.00433296 0.0232794 0)
(-0.00482435 0.0258179 0)
(-0.00549623 0.0291229 0)
(-0.00607106 0.0324616 0)
(-0.00578981 0.0306274 0)
(-0.0116233 0.0675188 0)
(-0.0126529 0.0732998 0)
(-0.0117975 0.0666769 0)
(-0.00958708 0.0668339 0)
(-0.00737938 0.0610926 0)
(-0.00525314 0.0559219 0)
(-0.0118219 0.0731675 0)
(-0.0115889 0.0640815 0)
(-0.0117799 0.0659361 0)
(-0.0111419 0.0614004 0)
(-0.0110227 0.0597004 0)
(-0.00100529 0.0411622 0)
(0.00115693 0.0315811 0)
(-0.00367257 0.0511058 0)
(0.00139022 0.028454 0)
(-0.00837343 0.0451106 0)
(-0.00807349 0.0430867 0)
(-0.00711882 0.0381277 0)
(-0.00659253 0.0354092 0)
(-0.00786155 0.0413956 0)
(-0.00895564 0.0480214 0)
(-0.0102236 0.0550101 0)
(-0.010122 0.0541471 0)
(-0.0096352 0.0515796 0)
(-0.0107161 0.0576358 0)
(-0.00935417 0.0497577 0)
(0.00276755 0.0137642 0)
(0.00271717 0.010251 0)
(0.00180432 0.0087074 0)
(0.00239932 0.00942743 0)
(0.00237526 0.021656 0)
(0.00310744 0.0162827 0)
(0.000887982 0.00593424 0)
(0.00127713 0.00687839 0)
(0.000284502 0.00242142 0)
(6.65487e-05 0.000528048 0)
(0.000577007 0.0042974 0)
(-0.000185145 0.000997136 0)
(-0.000873572 0.00471804 0)
(-0.00115011 0.00622423 0)
(-0.00180554 0.00953969 0)
(-0.00134088 0.00715987 0)
(-0.00269222 0.0139601 0)
(-0.00308497 0.0162062 0)
(-0.0023594 0.0122282 0)
(-0.0035522 0.018729 0)
(-0.00417791 0.0220039 0)
(-0.00444705 0.0234952 0)
(-0.00510282 0.0268489 0)
(-0.00549923 0.0287596 0)
(-0.00644565 0.0337396 0)
(-0.0062293 0.0324095 0)
(-0.0125324 0.0705747 0)
(-0.0131789 0.0762001 0)
(-0.0134395 0.0750659 0)
(-0.0125565 0.0697654 0)
(-0.0106535 0.0716376 0)
(-0.0083821 0.0656623 0)
(-0.00638957 0.0610613 0)
(-0.0119961 0.0753926 0)
(-0.0127773 0.0758769 0)
(-0.0122893 0.0666144 0)
(-0.0124861 0.0680433 0)
(-0.0117476 0.0632152 0)
(-0.0115738 0.0619872 0)
(-0.0110632 0.0592711 0)
(-0.000236706 0.0407123 0)
(0.00236474 0.0288299 0)
(-0.00308424 0.0509768 0)
(0.00236282 0.0241274 0)
(-0.00887534 0.0472818 0)
(-0.008417 0.0447889 0)
(-0.00819511 0.0430752 0)
(-0.00728658 0.0383668 0)
(-0.00693136 0.0365846 0)
(-0.00802252 0.0415769 0)
(-0.0107584 0.05721 0)
(-0.0106189 0.0555723 0)
(-0.0100419 0.0527614 0)
(-0.00982466 0.0514431 0)
(0.00344356 0.0120472 0)
(0.00326931 0.0089079 0)
(0.00195679 0.00757393 0)
(0.00236897 0.00768535 0)
(0.00311655 0.0182027 0)
(0.00374821 0.0131551 0)
(0.00073248 0.00494171 0)
(0.00105561 0.00609421 0)
(0.00141239 0.00637452 0)
(0.000330518 0.0025211 0)
(0.000135315 0.000987836 0)
(0.000461796 0.00334533 0)
(-0.000411821 0.00217237 0)
(-0.000770287 0.0040751 0)
(-0.00165192 0.00859746 0)
(-0.00134061 0.00704493 0)
(-0.00293618 0.015005 0)
(-0.00336169 0.0172991 0)
(-0.00235178 0.0119655 0)
(-0.00380218 0.0197041 0)
(-0.00429795 0.0222826 0)
(-0.00478493 0.0249283 0)
(-0.0050734 0.026399 0)
(-0.0058354 0.0299544 0)
(-0.00683432 0.0354169 0)
(-0.00640046 0.0327831 0)
(-0.0132359 0.0734538 0)
(-0.0147065 0.0811498 0)
(-0.0145298 0.0789261 0)
(-0.0131928 0.0715921 0)
(-0.010097 0.0711454 0)
(-0.0078868 0.065523 0)
(-0.0058442 0.0610268 0)
(-0.0132458 0.0797507 0)
(-0.0138782 0.080534 0)
(-0.0126281 0.0674673 0)
(-0.013116 0.0705521 0)
(-0.0123843 0.0656437 0)
(-0.011989 0.0630467 0)
(-0.0116716 0.0613719 0)
(0.00133694 0.0358573 0)
(-0.00146084 0.0462644 0)
(0.00248129 0.0305723 0)
(0.00333008 0.0241043 0)
(-0.00419813 0.0559979 0)
(0.00318413 0.0223819 0)
(-0.00932123 0.0485103 0)
(-0.00900064 0.0468684 0)
(-0.00868778 0.0448625 0)
(-0.00769828 0.0399461 0)
(-0.00703472 0.0366365 0)
(-0.00852664 0.0434279 0)
(-0.0112327 0.0586192 0)
(-0.0111586 0.0577221 0)
(-0.0105131 0.0546319 0)
(-0.0101313 0.0521373 0)
(0.00373197 0.00959576 0)
(0.00324875 0.00709589 0)
(0.00169215 0.00658045 0)
(0.00265302 0.0068139 0)
(0.00396773 0.0167396 0)
(0.00451874 0.0115628 0)
(0.000714302 0.00443402 0)
(0.00101838 0.0054707 0)
(0.001176 0.00561729 0)
(0.000257995 0.00186271 0)
(6.5474e-05 0.000460973 0)
(0.000461743 0.00310996 0)
(-0.000232041 0.0011971 0)
(-0.00105165 0.00548026 0)
(-0.00172506 0.00882168 0)
(-0.00293053 0.0147514 0)
(-0.00325637 0.0165888 0)
(-0.00370642 0.0189678 0)
(-0.00206112 0.0104262 0)
(-0.00268058 0.0134434 0)
(-0.00413711 0.0212997 0)
(-0.00470823 0.0240507 0)
(-0.0049053 0.0251307 0)
(-0.00542216 0.027682 0)
(-0.0061997 0.031594 0)
(-0.00576406 0.0292491 0)
(-0.00721337 0.0366163 0)
(-0.00687066 0.0345922 0)
(-0.0140355 0.0755954 0)
(-0.0154904 0.0845564 0)
(-0.0151184 0.0816632 0)
(-0.0150711 0.0800351 0)
(-0.013901 0.0743682 0)
(-0.0108967 0.0751078 0)
(-0.00925949 0.0709733 0)
(-0.00719407 0.0668117 0)
(-0.0140631 0.0834086 0)
(-0.0150117 0.0840505 0)
(-0.0133726 0.0701355 0)
(-0.0126308 0.0669792 0)
(-0.0137136 0.0722834 0)
(-0.0128734 0.0667973 0)
(-0.0126028 0.0652949 0)
(-0.0119519 0.0619361 0)
(0.00227349 0.0350602 0)
(-0.0013231 0.0479016 0)
(0.00394673 0.0265333 0)
(0.00443828 0.0206217 0)
(-0.00330428 0.0548047 0)
(0.00395338 0.018811 0)
(-0.0098788 0.0506401 0)
(-0.00911512 0.0468331 0)
(-0.00883493 0.0449643 0)
(-0.00785635 0.0401164 0)
(-0.00753455 0.0385475 0)
(-0.00871321 0.0436633 0)
(-0.0117681 0.060743 0)
(-0.0117115 0.0593207 0)
(-0.0110343 0.056049 0)
(-0.0108208 0.0547083 0)
(0.00435618 0.00809126 0)
(0.00368341 0.00559687 0)
(0.0016559 0.00563367 0)
(0.00249414 0.00570161 0)
(0.00477669 0.0130889 0)
(0.00486917 0.00885118 0)
(0.000840649 0.00476516 0)
(0.000564556 0.00359104 0)
(0.00105548 0.00502329 0)
(0.000329671 0.00225467 0)
(0.000140161 0.000958349 0)
(-0.000461405 0.00233251 0)
(-0.0010857 0.00555853 0)
(-0.00144739 0.0073395 0)
(-0.00323044 0.0160619 0)
(-0.0034448 0.017239 0)
(-0.00397899 0.0200217 0)
(-0.00212467 0.0105197 0)
(-0.00273791 0.0134808 0)
(-0.00442514 0.0223435 0)
(-0.00477785 0.0240174 0)
(-0.00531079 0.0268561 0)
(-0.00649114 0.0325182 0)
(-0.0061445 0.030549 0)
(-0.00764391 0.0385429 0)
(-0.00723999 0.0362887 0)
(-0.00687507 0.0342105 0)
(-0.0148024 0.0784216 0)
(-0.0167917 0.0886523 0)
(-0.0161626 0.0848975 0)
(-0.015916 0.0828893 0)
(-0.0145318 0.0760456 0)
(-0.0124641 0.0805974 0)
(-0.00914892 0.0723003 0)
(-0.0064796 0.0664359 0)
(-0.015648 0.0879967 0)
(-0.013879 0.0842002 0)
(-0.0159415 0.0878727 0)
(-0.0133648 0.0695699 0)
(-0.0137876 0.0719058 0)
(-0.0143794 0.0748958 0)
(-0.0135403 0.069208 0)
(-0.0129986 0.0661105 0)
(-0.0126144 0.0642829 0)
(0.00172371 0.0388 0)
(0.00394613 0.0288676 0)
(-9.04019e-05 0.0450863 0)
(0.0053564 0.0210212 0)
(0.00538321 0.0188788 0)
(0.0047025 0.017601 0)
(-0.00414135 0.0591395 0)
(-0.0103061 0.0517129 0)
(-0.00963673 0.0484547 0)
(-0.0094189 0.0471073 0)
(-0.00834973 0.0419271 0)
(-0.0092861 0.0457006 0)
(-0.0123797 0.0625205 0)
(-0.0123596 0.0618774 0)
(-0.0116526 0.0584541 0)
(-0.0111955 0.0555737 0)
(0.00459339 0.00614865 0)
(0.00338734 0.00460291 0)
(0.00431761 0.00510601 0)
(0.00195723 0.0053318 0)
(0.00118677 0.00509455 0)
(0.00283463 0.00475805 0)
(0.00567172 0.0115269 0)
(0.0056401 0.00646712 0)
(0.000771256 0.00436227 0)
(0.00051524 0.00324258 0)
(0.000845329 0.00450511 0)
(0.000277609 0.00187254 0)
(7.02137e-05 0.000490848 0)
(-0.000233009 0.00115366 0)
(-0.000851929 0.00430709 0)
(-0.00148246 0.00736607 0)
(-0.00333841 0.0163366 0)
(-0.00376322 0.0186304 0)
(-0.0043502 0.0217658 0)
(-0.00398919 0.0198142 0)
(-0.00247681 0.0121201 0)
(-0.00181444 0.00891476 0)
(-0.0031036 0.0150983 0)
(-0.00511545 0.0253104 0)
(-0.00559617 0.0277948 0)
(-0.00649346 0.0321386 0)
(-0.00607227 0.0298611 0)
(-0.00811989 0.0402264 0)
(-0.00778661 0.0381849 0)
(-0.00715683 0.0350284 0)
(-0.0154605 0.0800377 0)
(-0.0174897 0.0916268 0)
(-0.0173392 0.0896688 0)
(-0.0169749 0.087866 0)
(-0.016311 0.0847252 0)
(-0.0164506 0.0841058 0)
(-0.0152778 0.0787716 0)
(-0.0124932 0.0824426 0)
(-0.010806 0.078258 0)
(-0.00773515 0.0719499 0)
(-0.0168058 0.0922649 0)
(-0.0156302 0.0903641 0)
(-0.0171423 0.0913741 0)
(-0.0137722 0.0706157 0)
(-0.0146048 0.0745772 0)
(-0.0149481 0.0763383 0)
(-0.0141343 0.0708903 0)
(-0.0136771 0.0683935 0)
(-0.012901 0.0646985 0)
(0.00290724 0.0370877 0)
(0.00540112 0.0249865 0)
(-0.000565809 0.049052 0)
(0.00649752 0.0189417 0)
(0.00634709 0.0137247 0)
(0.00556829 0.014242 0)
(-0.00275084 0.0565467 0)
(-0.0109059 0.0539988 0)
(-0.0101543 0.0505303 0)
(-0.00968319 0.0476054 0)
(-0.00850876 0.0420455 0)
(-0.00947569 0.0458845 0)
(-0.0129719 0.0635977 0)
(-0.0122383 0.0601534 0)
(-0.0119242 0.0580622 0)
(0.00537836 0.00488826 0)
(0.0036068 0.00324223 0)
(0.00464344 0.00312857 0)
(0.00173326 0.00470735 0)
(0.000938881 0.00476057 0)
(0.00262525 0.00401092 0)
(0.0065436 0.00775977 0)
(0.00640903 0.00559601 0)
(0.000604244 0.0036676 0)
(0.000362255 0.00239603 0)
(0.000676853 0.00408852 0)
(0.000109181 0.000797588 0)
(-0.000514414 0.00250869 0)
(-0.00111188 0.00551539 0)
(-0.00366675 0.017765 0)
(-0.00386953 0.0188523 0)
(-0.00459366 0.0225626 0)
(-0.00436546 0.0213552 0)
(-0.00259065 0.0124268 0)
(-0.00190211 0.00915708 0)
(-0.00325344 0.0155436 0)
(-0.00549602 0.0270641 0)
(-0.0051898 0.0252912 0)
(-0.00689852 0.0336231 0)
(-0.00646221 0.0311007 0)
(-0.00821614 0.0401277 0)
(-0.00786627 0.038078 0)
(-0.00755327 0.0365701 0)
(-0.0162609 0.0828654 0)
(-0.0187821 0.0956262 0)
(-0.0185801 0.0936452 0)
(-0.0177704 0.089723 0)
(-0.0172676 0.0876231 0)
(-0.0173575 0.087265 0)
(-0.0159201 0.0803794 0)
(-0.0139328 0.0876364 0)
(-0.0112354 0.0812415 0)
(-0.0101324 0.0792667 0)
(-0.00644071 0.0698754 0)
(-0.018162 0.0959791 0)
(-0.0168416 0.0933826 0)
(-0.0160314 0.0927591 0)
(-0.0181953 0.0952382 0)
(-0.0146238 0.0735284 0)
(-0.0150348 0.0754522 0)
(-0.0156956 0.0789684 0)
(-0.0148724 0.0737503 0)
(-0.0141775 0.0705128 0)
(-0.0140627 0.0691006 0)
(-0.0136419 0.0671481 0)
(0.00477247 0.0313593 0)
(0.0013407 0.044151 0)
(0.00592027 0.0255445 0)
(0.00772529 0.0149927 0)
(0.00748975 0.00967311 0)
(-0.00376226 0.0617229 0)
(-0.0114009 0.0553319 0)
(-0.0107068 0.0521251 0)
(-0.0103426 0.0498823 0)
(-0.00905631 0.0439535 0)
(-0.0100709 0.0478952 0)
(-0.0136165 0.0659753 0)
(-0.0128587 0.0625912 0)
(-0.0123459 0.0599009 0)
(-0.012041 0.0578231 0)
(0.00572308 0.00294095 0)
(0.00419074 0.00241676 0)
(0.00303284 0.00309723 0)
(0.00531364 0.00213657 0)
(0.00209063 0.00409791 0)
(0.00120519 0.00460842 0)
(0.000620765 0.00440147 0)
(0.000934027 0.00466434 0)
(0.00756751 0.00628375 0)
(0.00714813 0.0018724 0)
(0.000560011 0.00354547 0)
(0.000306282 0.00213631 0)
(0.000543057 0.00387142 0)
(4.07261e-05 0.000322566 0)
(0.000199974 0.00146685 0)
(-0.000492741 0.00236946 0)
(-0.000993233 0.0048583 0)
(-0.00387627 0.0184553 0)
(-0.0042213 0.0202924 0)
(-0.00495676 0.0240743 0)
(-0.00447569 0.0215553 0)
(-0.00299496 0.0142099 0)
(-0.00231702 0.0110297 0)
(-0.00161571 0.00770956 0)
(-0.003692 0.0174424 0)
(-0.00581784 0.0281119 0)
(-0.00561377 0.0269848 0)
(-0.0070966 0.0340715 0)
(-0.00627466 0.0299782 0)
(-0.00693367 0.0330366 0)
(-0.00875579 0.0419672 0)
(-0.00840566 0.039899 0)
(-0.00782356 0.0371968 0)
(-0.0169846 0.0847136 0)
(-0.0193252 0.0981274 0)
(-0.019273 0.0964933 0)
(-0.0190416 0.0944912 0)
(-0.0185959 0.0923853 0)
(-0.0180187 0.0889512 0)
(-0.0167655 0.0833224 0)
(-0.0134322 0.0877526 0)
(-0.0153589 0.0916669 0)
(-0.0116075 0.0855541 0)
(-0.00775939 0.0754577 0)
(-0.0192329 0.0997112 0)
(-0.0183189 0.098343 0)
(-0.0177391 0.0982169 0)
(-0.0159939 0.0786893 0)
(-0.0162945 0.0804104 0)
(-0.0156708 0.0761039 0)
(-0.0149525 0.0727612 0)
(-0.0148118 0.0716661 0)
(-0.013942 0.0676256 0)
(0.00575601 0.0310118 0)
(0.00175288 0.044903 0)
(0.00790547 0.0192905 0)
(0.00855775 0.0148926 0)
(0.00855266 0.010606 0)
(0.00851874 0.00819452 0)
(-0.00233431 0.059395 0)
(-0.0113269 0.054557 0)
(-0.0107734 0.051799 0)
(-0.0105312 0.0499494 0)
(-0.00919333 0.0439278 0)
(-0.0102319 0.0479046 0)
(-0.0141694 0.0674019 0)
(-0.0134995 0.0643136 0)
(-0.013212 0.0627463 0)
(-0.0126529 0.0595669 0)
(0.00658904 0.0011915 0)
(0.00429033 0.000971256 0)
(0.00289903 0.00225131 0)
(0.00564671 0.000216281 0)
(0.00176247 0.00369174 0)
(0.000856476 0.00452609 0)
(0.000494076 0.00402429 0)
(0.000368705 0.00450066 0)
(0.000447889 0.00470584 0)
(0.008466 0.00226315 0)
(0.00816486 -3.89638e-06 0)
(0.000437949 0.00308333 0)
(0.000346841 0.00252396 0)