/*--------------------------------*- C++ -*----------------------------------*\
| =========                 |                                                 |
| \\      /  F ield         | OpenFOAM: The Open Source CFD Toolbox           |
|  \\    /   O peration     | Version:  v2012                                 |
|   \\  /    A nd           | Website:  www.openfoam.com                      |
|    \\/     M anipulation  |                                                 |
\*---------------------------------------------------------------------------*/
FoamFile
{
    version     2.0;
    format      ascii;
    class       volVectorField;
    location    "0.04";
    object      cellDisplacement;
}
// * * * * * * * * * * * * * * * * * * * * * * * * * * * * * * * * * * * * * //

dimensions      [0 1 0 0 0 0 0];


internalField   nonuniform List<vector> 
11961
(
(1.73713e-10 1.09136e-09 0)
(5.37689e-10 3.36287e-09 0)
(2.79402e-10 1.76995e-09 0)
(4.63597e-10 2.87203e-09 0)
(9.17033e-10 5.75745e-09 0)
(1.00832e-10 6.42656e-10 0)
(5.57427e-10 3.53024e-09 0)
(1.30002e-09 8.03873e-09 0)
(1.51641e-09 9.5071e-09 0)
(1.52635e-10 9.76731e-10 0)
(6.83595e-10 4.34395e-09 0)
(2.0027e-09 1.24802e-08 0)
(1.60193e-09 9.84592e-09 0)
(1.64741e-09 1.04051e-08 0)
(3.05075e-10 1.95339e-09 0)
(4.40959e-11 2.83644e-10 0)
(5.09101e-10 3.25244e-09 0)
(1.08681e-09 6.90381e-09 0)
(3.25378e-09 2.02616e-08 0)
(3.39484e-09 2.08493e-08 0)
(7.16491e-10 4.37464e-09 0)
(2.49879e-09 1.57792e-08 0)
(2.30776e-10 1.48687e-09 0)
(6.14607e-11 3.9692e-10 0)
(7.12742e-10 4.56407e-09 0)
(1.08733e-09 6.94614e-09 0)
(4.20152e-09 2.59878e-08 0)
(3.5395e-09 2.22224e-08 0)
(4.15992e-09 2.53309e-08 0)
(2.16003e-09 1.31086e-08 0)
(2.36977e-09 1.50881e-08 0)
(3.19674e-10 2.06252e-09 0)
(1.21389e-10 7.84527e-10 0)
(1.77552e-11 1.15157e-10 0)
(5.18448e-10 3.33898e-09 0)
(1.45722e-09 9.32619e-09 0)
(6.78024e-09 4.18952e-08 0)
(5.35946e-09 3.3656e-08 0)
(6.78712e-09 4.1219e-08 0)
(2.21138e-09 1.32878e-08 0)
(3.34495e-09 2.13189e-08 0)
(2.34275e-10 1.51911e-09 0)
(1.06054e-10 6.87872e-10 0)
(2.84903e-11 1.85256e-10 0)
(5.92312e-10 3.82667e-09 0)
(1.31125e-09 8.44468e-09 0)
(8.53409e-09 5.22841e-08 0)
(7.40255e-09 4.61764e-08 0)
(5.05242e-09 3.20324e-08 0)
(7.87589e-09 4.73212e-08 0)
(5.18756e-09 3.09571e-08 0)
(6.80224e-10 4.08591e-09 0)
(2.90654e-09 1.8677e-08 0)
(1.41334e-10 9.18395e-10 0)
(2.83535e-10 1.84169e-09 0)
(6.02732e-11 3.91895e-10 0)
(1.73441e-11 1.13099e-10 0)
(8.26186e-10 5.33999e-09 0)
(3.99722e-10 2.59364e-09 0)
(1.74661e-09 1.12779e-08 0)
(1.35332e-08 8.27534e-08 0)
(1.11767e-08 6.97521e-08 0)
(7.26691e-09 4.61692e-08 0)
(1.19102e-08 7.13743e-08 0)
(6.47328e-09 3.81451e-08 0)
(1.11567e-09 6.53768e-09 0)
(3.89269e-09 2.50669e-08 0)
(1.18868e-10 7.74695e-10 0)
(2.25396e-10 1.46936e-09 0)
(5.0751e-11 3.30991e-10 0)
(5.44357e-12 3.55375e-11 0)
(2.82138e-11 1.84253e-10 0)
(6.69431e-10 4.35006e-09 0)
(4.35292e-10 2.83219e-09 0)
(1.64267e-09 1.06598e-08 0)
(1.55749e-08 9.41327e-08 0)
(1.53988e-08 9.52466e-08 0)
(1.07648e-08 6.80234e-08 0)
(5.90579e-09 3.78933e-08 0)
(1.36909e-08 8.10898e-08 0)
(1.06928e-08 6.27451e-08 0)
(3.50819e-09 2.04939e-08 0)
(3.26105e-09 2.11642e-08 0)
(6.6129e-11 4.31833e-10 0)
(1.46078e-10 9.53879e-10 0)
(3.11769e-10 2.03299e-09 0)
(8.06088e-12 5.26786e-11 0)
(1.84452e-11 1.20546e-10 0)
(7.52825e-10 4.908e-09 0)
(2.19616e-09 1.42958e-08 0)
(1.10898e-09 7.22674e-09 0)
(2.24849e-08 1.35203e-07 0)
(2.39468e-08 1.48194e-07 0)
(1.47361e-08 9.33417e-08 0)
(7.13348e-09 4.60267e-08 0)
(1.98305e-08 1.17386e-07 0)
(1.39012e-08 8.038e-08 0)
(4.63247e-09 2.67118e-08 0)
(4.4447e-09 2.88987e-08 0)
(5.45415e-11 3.56954e-10 0)
(1.24199e-10 8.12723e-10 0)
(2.68339e-10 1.75519e-09 0)
(1.77171e-12 1.16033e-11 0)
(1.58063e-11 1.03441e-10 0)
(5.04995e-10 3.31051e-09 0)
(1.90694e-09 1.24723e-08 0)
(1.20632e-09 7.89366e-09 0)
(2.93802e-08 1.77372e-07 0)
(2.1974e-08 1.38118e-07 0)
(3.2027e-08 1.96143e-07 0)
(1.39822e-08 8.9505e-08 0)
(9.82492e-09 6.34078e-08 0)
(2.59344e-08 1.51737e-07 0)
(9.53199e-09 5.47154e-08 0)
(2.128e-08 1.22663e-07 0)
(1.80501e-09 1.03191e-08 0)
(4.43793e-09 2.89862e-08 0)
(7.27814e-11 4.77022e-10 0)
(3.05809e-11 2.00434e-10 0)
(1.55698e-10 1.02024e-09 0)
(3.14992e-10 2.06656e-09 0)
(1.52066e-12 9.9601e-12 0)
(2.00468e-11 1.31375e-10 0)
(5.993e-12 3.9256e-11 0)
(5.86414e-10 3.85596e-09 0)
(2.17724e-09 1.43067e-08 0)
(9.2366e-10 6.06672e-09 0)
(3.87241e-08 2.30723e-07 0)
(2.82199e-08 1.78576e-07 0)
(4.83422e-08 2.958e-07 0)
(1.95461e-08 1.25247e-07 0)
(1.06713e-08 6.94258e-08 0)
(3.59009e-08 2.10329e-07 0)
(1.07938e-08 6.08149e-08 0)
(2.73662e-08 1.55611e-07 0)
(4.65714e-09 2.62701e-08 0)
(3.02468e-09 1.98706e-08 0)
(5.47675e-09 3.58811e-08 0)
(5.61134e-11 3.68468e-10 0)
(1.78425e-11 1.17243e-10 0)
(1.22466e-10 8.04319e-10 0)
(2.23468e-10 1.47025e-09 0)
(9.36902e-12 6.14363e-11 0)
(3.20605e-12 2.10241e-11 0)
(4.08522e-10 2.69985e-09 0)
(1.4268e-09 9.42268e-09 0)
(9.63584e-10 6.35695e-09 0)
(5.07988e-08 3.04266e-07 0)
(3.80251e-08 2.40572e-07 0)
(5.92227e-08 3.65901e-07 0)
(2.13172e-08 1.37792e-07 0)
(1.51729e-08 9.88725e-08 0)
(7.36273e-09 4.82296e-08 0)
(4.9183e-08 2.83779e-07 0)
(1.63163e-08 9.10501e-08 0)
(4.04036e-08 2.29531e-07 0)
(2.3317e-08 1.30809e-07 0)
(2.79552e-09 1.54764e-08 0)
(3.57178e-09 2.35383e-08 0)
(2.37414e-11 1.56116e-10 0)
(6.91735e-11 4.54874e-10 0)
(5.19811e-12 3.41824e-11 0)
(1.35778e-10 8.93757e-10 0)
(2.01786e-10 1.3331e-09 0)
(2.57086e-10 1.70148e-09 0)
(4.7881e-10 3.1758e-09 0)
(1.32151e-09 8.77148e-09 0)
(7.08716e-10 4.69571e-09 0)
(7.23583e-08 4.28642e-07 0)
(5.061e-08 3.17933e-07 0)
(3.74512e-08 2.40511e-07 0)
(9.21151e-08 5.63762e-07 0)
(2.92106e-08 1.89178e-07 0)
(1.651e-08 1.08495e-07 0)
(7.866e-09 5.18806e-08 0)
(6.86428e-08 3.97068e-07 0)
(1.46602e-08 8.00031e-08 0)
(4.81236e-08 2.67963e-07 0)
(3.21829e-08 1.78246e-07 0)
(6.82555e-09 3.72447e-08 0)
(3.53914e-09 2.34224e-08 0)
(1.08725e-11 7.15903e-11 0)
(4.91056e-11 3.23553e-10 0)
(9.49678e-11 6.26459e-10 0)
(1.12337e-10 7.44407e-10 0)
(1.85987e-10 1.23672e-09 0)
(2.96124e-10 1.97643e-09 0)
(7.83715e-10 5.21392e-09 0)
(1.60985e-09 1.07143e-08 0)
(9.41808e-08 5.62659e-07 0)
(7.01897e-08 4.46673e-07 0)
(5.22948e-08 3.36878e-07 0)
(1.19707e-07 7.42338e-07 0)
(3.4412e-08 2.25004e-07 0)
(1.10446e-08 7.29849e-08 0)
(2.40458e-08 1.58468e-07 0)
(5.15765e-09 3.41906e-08 0)
(9.7387e-08 5.53528e-07 0)
(2.21559e-08 1.19488e-07 0)
(6.32483e-08 3.49089e-07 0)
(3.15695e-08 1.71965e-07 0)
(4.18104e-09 2.22405e-08 0)
(2.3694e-09 1.57543e-08 0)
(2.12945e-11 1.40432e-10 0)
(5.67476e-11 3.74615e-10 0)
(8.35949e-11 5.53253e-10 0)
(8.95259e-11 5.95592e-10 0)
(1.10396e-10 7.35787e-10 0)
(1.91134e-10 1.27628e-09 0)
(2.75255e-10 1.84836e-09 0)
(6.10683e-10 4.08567e-09 0)
(1.04764e-09 7.02119e-09 0)
(1.33243e-07 7.85895e-07 0)
(9.97672e-08 6.34193e-07 0)
(5.18122e-08 3.38668e-07 0)
(1.71128e-07 1.05168e-06 0)
(1.06286e-08 7.07881e-08 0)
(2.33517e-08 1.55479e-07 0)
(4.96132e-09 3.30908e-08 0)
(8.64842e-08 4.79711e-07 0)
(1.3196e-07 7.561e-07 0)
(2.31403e-08 1.22271e-07 0)
(5.84661e-08 3.14529e-07 0)
(4.19306e-08 2.25042e-07 0)
(8.33675e-09 4.35451e-08 0)
(2.337e-09 1.56345e-08 0)
(9.31108e-12 6.15542e-11 0)
(4.05962e-11 2.68607e-10 0)
(5.17217e-11 3.4284e-10 0)
(5.12343e-11 3.41753e-10 0)
(8.09813e-11 5.42773e-10 0)
(1.29115e-10 8.67779e-10 0)
(1.58601e-10 1.07492e-09 0)
(3.68646e-10 2.47769e-09 0)
(6.80502e-10 4.57272e-09 0)
(1.05673e-09 7.12063e-09 0)
(1.72758e-07 1.03195e-06 0)
(1.31629e-07 8.49824e-07 0)
(6.39577e-08 4.21588e-07 0)
(2.23962e-07 1.39868e-06 0)
(1.3988e-08 9.35184e-08 0)
(6.65431e-09 4.4502e-08 0)
(3.01372e-08 2.01911e-07 0)
(3.14928e-09 2.10943e-08 0)
(1.12268e-07 6.06801e-07 0)
(1.77216e-07 1.00079e-06 0)
(1.60278e-08 8.37056e-08 0)
(3.69494e-08 1.94018e-07 0)
(7.81441e-08 4.15096e-07 0)
(3.36987e-09 1.72318e-08 0)
(1.43107e-09 9.63688e-09 0)
(1.82256e-11 1.20742e-10 0)
(3.98397e-11 2.64939e-10 0)
(4.0778e-11 2.7341e-10 0)
(5.05487e-11 3.39834e-10 0)
(8.35911e-11 5.63128e-10 0)
(1.1379e-10 7.71152e-10 0)
(1.32065e-10 9.06951e-10 0)
(2.77349e-10 1.884e-09 0)
(5.38531e-10 3.65018e-09 0)
(6.46396e-10 4.3955e-09 0)
(2.33883e-07 1.3787e-06 0)
(1.96094e-07 1.26232e-06 0)
(9.7618e-08 6.42709e-07 0)
(4.52588e-08 3.02627e-07 0)
(3.09992e-07 1.91123e-06 0)
(1.1671e-08 7.8679e-08 0)
(5.72276e-09 3.8565e-08 0)
(2.12805e-08 1.44224e-07 0)
(2.78991e-09 1.88122e-08 0)
(1.55591e-07 8.35693e-07 0)
(1.9087e-07 1.0469e-06 0)
(2.22197e-07 1.27485e-06 0)
(1.91042e-08 9.72749e-08 0)
(4.27173e-08 2.19464e-07 0)
(8.4085e-08 4.34371e-07 0)
(9.22018e-09 4.64987e-08 0)
(1.34612e-09 9.1262e-09 0)
(8.48996e-12 5.64567e-11 0)
(1.86343e-11 1.24207e-10 0)
(2.40306e-11 1.61871e-10 0)
(3.72664e-11 2.52908e-10 0)
(5.84049e-11 3.9821e-10 0)
(7.70001e-11 5.29242e-10 0)
(1.65527e-10 1.13657e-09 0)
(7.30812e-11 5.17023e-10 0)
(2.73146e-10 1.87208e-09 0)
(3.51946e-10 2.40849e-09 0)
(5.45541e-10 3.75675e-09 0)
(3.03847e-07 1.8141e-06 0)
(2.57556e-07 1.6852e-06 0)
(1.09063e-07 7.33077e-07 0)
(5.12617e-08 3.46791e-07 0)
(4.04238e-07 2.53084e-06 0)
(7.06133e-09 4.77789e-08 0)
(1.36767e-08 9.27719e-08 0)
(3.50742e-09 2.37276e-08 0)
(2.43443e-08 1.66494e-07 0)
(1.79598e-09 1.21721e-08 0)
(1.6208e-07 8.35149e-07 0)
(2.73032e-07 1.48508e-06 0)
(2.92248e-07 1.64625e-06 0)
(2.85365e-08 1.44348e-07 0)
(5.93811e-08 3.02795e-07 0)
(1.13735e-07 5.79034e-07 0)
(9.81013e-09 4.8307e-08 0)
(9.02584e-10 6.18615e-09 0)
(1.44051e-11 9.65606e-11 0)
(2.28402e-11 1.55256e-10 0)
(3.74689e-11 2.56699e-10 0)
(5.46959e-11 3.77641e-10 0)
(5.86821e-11 4.13706e-10 0)
(1.28868e-10 9.06708e-10 0)
(5.96801e-11 4.39591e-10 0)
(1.58256e-10 1.11391e-09 0)
(2.88781e-10 2.01888e-09 0)
(3.39981e-10 2.38489e-09 0)
(6.2271e-10 4.30576e-09 0)
(4.05768e-07 2.37821e-06 0)
(2.15117e-07 1.44162e-06 0)
(3.77251e-07 2.4428e-06 0)
(1.46376e-07 9.89899e-07 0)
(7.07951e-08 4.80345e-07 0)
(3.50315e-08 2.39596e-07 0)
(5.47789e-07 3.3646e-06 0)
(5.69437e-09 3.88656e-08 0)
(1.04261e-08 7.12858e-08 0)
(2.73583e-09 1.86601e-08 0)
(1.62318e-08 1.12011e-07 0)
(1.47639e-09 1.01106e-08 0)
(2.16644e-07 1.09684e-06 0)
(3.32751e-07 1.76123e-06 0)
(3.79813e-07 2.15196e-06 0)
(3.2175e-08 1.58564e-07 0)
(6.31548e-08 3.12874e-07 0)
(1.15907e-07 5.69067e-07 0)
(2.98169e-09 1.46522e-08 0)
(1.98246e-08 9.63709e-08 0)
(9.39986e-10 6.50003e-09 0)
(5.31333e-12 3.58282e-11 0)
(1.57026e-11 1.08333e-10 0)
(2.7377e-11 1.91589e-10 0)
(3.83508e-11 2.73957e-10 0)
(3.90312e-11 2.87349e-10 0)
(8.04105e-11 5.85209e-10 0)
(3.78082e-11 3.04562e-10 0)
(1.39543e-10 1.01226e-09 0)
(1.79173e-10 1.29143e-09 0)
(2.69664e-10 1.96374e-09 0)
(4.55584e-10 3.25122e-09 0)
(5.25655e-07 3.11491e-06 0)
(2.7202e-07 1.85675e-06 0)
(4.97221e-07 3.26404e-06 0)
(1.46539e-07 1.01271e-06 0)
(6.41315e-08 4.4219e-07 0)
(3.97807e-08 2.74738e-07 0)
(7.29888e-07 4.5547e-06 0)
(6.69499e-09 4.5916e-08 0)
(3.44822e-09 2.37366e-08 0)
(1.09213e-08 7.5277e-08 0)
(2.64382e-09 1.81863e-08 0)
(1.684e-09 1.1569e-08 0)
(1.58255e-08 1.10356e-07 0)
(2.91957e-07 1.4941e-06 0)
(2.11647e-07 1.02685e-06 0)
(4.59026e-07 2.45017e-06 0)
(4.71027e-07 2.61192e-06 0)
(4.53561e-08 2.21553e-07 0)
(8.22615e-08 4.01519e-07 0)
(1.53504e-07 7.36181e-07 0)
(3.49583e-09 1.63826e-08 0)
(2.22031e-08 1.05026e-07 0)
(7.32906e-10 5.16234e-09 0)
(7.72985e-12 5.31126e-11 0)
(1.6577e-11 1.16984e-10 0)
(2.56744e-11 1.85251e-10 0)
(2.7274e-11 2.20697e-10 0)
(6.06337e-11 4.73184e-10 0)
(2.531e-11 2.2168e-10 0)
(3.61573e-11 3.11233e-10 0)
(8.64606e-11 6.69e-10 0)
(1.46014e-10 1.11157e-09 0)
(1.70001e-10 1.30178e-09 0)
(2.95442e-10 2.18459e-09 0)
(4.82296e-10 3.47166e-09 0)
(6.87586e-07 3.9753e-06 0)
(3.72039e-07 2.54468e-06 0)
(2.00022e-07 1.39096e-06 0)
(6.79674e-07 4.39524e-06 0)
(4.72295e-07 3.18516e-06 0)
(1.0435e-07 7.28773e-07 0)
(7.29464e-08 5.08111e-07 0)
(3.20518e-08 2.23648e-07 0)
(9.92109e-07 6.04723e-06 0)
(5.0863e-09 3.53009e-08 0)
(2.6731e-09 1.87358e-08 0)
(8.11855e-09 5.64077e-08 0)
(1.78952e-09 1.25016e-08 0)
(1.39182e-09 9.70112e-09 0)
(2.05915e-08 1.44112e-07 0)
(9.78149e-09 6.87848e-08 0)
(3.69003e-07 1.81669e-06 0)
(2.79686e-07 1.33354e-06 0)
(5.94557e-07 3.10651e-06 0)
(6.19877e-07 3.46312e-06 0)
(5.22466e-08 2.4795e-07 0)
(7.56614e-08 3.56973e-07 0)
(1.4827e-07 6.82018e-07 0)
(9.85658e-09 4.59648e-08 0)
(3.53888e-08 1.65677e-07 0)
(6.73161e-10 4.82585e-09 0)
(3.27199e-12 2.3139e-11 0)
(1.20897e-11 8.88525e-11 0)
(1.80549e-11 1.3762e-10 0)
(1.53593e-11 1.40166e-10 0)
(6.00995e-11 4.84574e-10 0)
(1.44826e-11 1.8191e-10 0)
(2.58673e-11 2.70286e-10 0)
(7.08515e-11 6.01587e-10 0)
(8.66806e-11 7.26879e-10 0)
(1.23477e-10 1.07037e-09 0)
(2.17243e-10 1.74862e-09 0)
(3.88467e-10 2.9535e-09 0)
(9.10599e-07 5.31228e-06 0)
(3.5877e-07 2.52985e-06 0)
(2.29812e-07 1.62536e-06 0)
(8.95808e-07 5.91679e-06 0)
(6.91525e-07 4.70937e-06 0)
(9.81636e-08 7.00356e-07 0)
(5.43525e-08 3.83812e-07 0)
(3.6341e-08 2.5658e-07 0)
(1.34711e-06 8.35942e-06 0)
(3.24373e-09 2.27696e-08 0)
(5.54084e-09 3.86705e-08 0)
(1.73682e-09 1.24799e-08 0)
(7.5075e-09 5.26781e-08 0)
(1.30584e-09 9.37638e-09 0)
(9.65459e-10 6.89619e-09 0)
(1.61994e-08 1.1488e-07 0)
(8.36462e-09 5.96699e-08 0)
(4.883e-07 2.38123e-06 0)
(3.37903e-07 1.55154e-06 0)
(6.17133e-07 3.08377e-06 0)
(7.4733e-07 4.04246e-06 0)
(9.31711e-08 4.29783e-07 0)
(1.84386e-07 8.20821e-07 0)
(1.13796e-08 5.18737e-08 0)
(3.70199e-08 1.68376e-07 0)
(4.66735e-10 3.49224e-09 0)
(7.41111e-10 5.34552e-09 0)
(4.07392e-12 3.09133e-11 0)
(1.23065e-11 9.48953e-11 0)
(6.83932e-12 5.25488e-11 0)
(1.36502e-11 1.16056e-10 0)
(7.90777e-12 1.12662e-10 0)
(3.85725e-11 3.81772e-10 0)
(6.63009e-12 1.31375e-10 0)
(1.37667e-11 2.01078e-10 0)
(2.41081e-11 2.87167e-10 0)
(3.90043e-11 4.12948e-10 0)
(6.68926e-11 6.56197e-10 0)
(1.32431e-10 1.18545e-09 0)
(7.3753e-11 7.46534e-10 0)
(1.96245e-10 1.70679e-09 0)
(2.51071e-10 2.10432e-09 0)
(1.11809e-06 6.30525e-06 0)
(4.6781e-07 3.33512e-06 0)
(1.89521e-07 1.36076e-06 0)
(1.23875e-06 8.12513e-06 0)
(7.17223e-07 5.03451e-06 0)
(1.21634e-07 8.75702e-07 0)
(5.98182e-08 4.27959e-07 0)
(2.66315e-08 1.90179e-07 0)
(1.72229e-06 1.03998e-05 0)
(2.50267e-09 1.80149e-08 0)
(4.45409e-09 3.15929e-08 0)
(1.29134e-09 9.41344e-09 0)
(1.39834e-09 1.04695e-08 0)
(5.31007e-09 3.77263e-08 0)
(8.48584e-10 6.282e-09 0)
(1.02404e-08 7.32457e-08 0)
(1.7706e-08 1.26608e-07 0)
(5.38989e-09 3.91329e-08 0)
(4.77562e-07 2.19423e-06 0)
(2.70697e-07 1.2003e-06 0)
(8.42422e-07 4.11488e-06 0)
(9.47738e-07 5.12316e-06 0)
(7.96025e-08 3.56449e-07 0)
(1.42747e-07 6.14418e-07 0)
(2.15164e-08 9.72051e-08 0)
(3.73789e-09 1.68313e-08 0)
(5.05783e-08 2.26168e-07 0)
(5.21377e-10 3.99287e-09 0)
(1.15107e-12 1.0048e-11 0)
(8.26868e-12 7.28266e-11 0)
(5.60746e-12 5.00765e-11 0)
(8.14745e-12 8.05861e-11 0)
(3.75614e-12 8.23929e-11 0)
(-5.13047e-13 1.31801e-10 0)
(6.48255e-12 2.11283e-10 0)
(1.13858e-11 2.59356e-10 0)
(2.76427e-11 4.07945e-10 0)
(3.58574e-11 4.783e-10 0)
(9.11573e-11 1.05848e-09 0)
(4.17096e-11 6.48383e-10 0)
(1.08368e-10 1.22791e-09 0)
(2.03109e-10 2.04521e-09 0)
(1.42108e-06 7.98601e-06 0)
(3.94697e-07 2.89458e-06 0)
(2.05465e-07 1.5065e-06 0)
(1.56236e-06 1.05148e-05 0)
(9.26459e-07 6.60643e-06 0)
(1.02796e-07 7.53696e-07 0)
(4.71348e-08 3.41874e-07 0)
(2.53836e-08 1.83756e-07 0)
(2.29346e-06 1.40567e-05 0)
(1.65751e-06 9.55285e-06 0)
(2.51305e-09 1.83211e-08 0)
(1.59529e-09 1.1889e-08 0)
(3.10988e-09 2.24748e-08 0)
(8.76527e-10 6.94954e-09 0)
(8.88129e-10 7.24106e-09 0)
(4.51225e-09 3.2648e-08 0)
(6.18041e-10 4.95704e-09 0)
(7.99554e-09 5.85015e-08 0)
(1.32954e-08 9.64958e-08 0)
(4.36583e-09 3.26674e-08 0)
(6.3473e-07 2.83545e-06 0)
(3.12892e-07 1.31204e-06 0)
(1.07001e-06 5.35924e-06 0)
(8.29867e-07 3.82366e-06 0)
(1.11421e-06 5.83355e-06 0)
(9.53699e-08 4.13602e-07 0)
(1.64979e-07 6.82247e-07 0)
(1.9999e-08 8.76793e-08 0)
(8.61486e-09 3.78964e-08 0)
(4.44978e-08 1.93225e-07 0)
(4.10111e-10 3.41201e-09 0)
(1.57205e-12 1.82729e-11 0)
(3.12244e-12 3.64685e-11 0)
(4.97485e-12 6.90368e-11 0)
(-1.0937e-12 7.93212e-11 0)
(-6.01921e-12 1.60391e-10 0)
(-3.52688e-12 9.93018e-11 0)
(-4.1999e-12 1.87173e-10 0)
(3.42394e-12 2.87525e-10 0)
(8.35984e-12 3.38581e-10 0)
(2.36838e-11 5.02623e-10 0)
(4.53495e-11 8.33421e-10 0)
(2.89303e-11 6.68044e-10 0)
(7.58397e-11 1.25811e-09 0)
(9.87761e-11 1.51022e-09 0)
(2.47304e-10 2.41699e-09 0)
(1.46674e-06 7.7879e-06 0)
(2.66404e-07 1.96785e-06 0)
(5.00208e-07 3.74867e-06 0)
(1.34402e-07 9.96334e-07 0)
(1.26304e-06 8.89052e-06 0)
(2.15857e-06 1.43374e-05 0)
(7.14068e-07 5.33032e-06 0)
(6.92325e-08 5.10899e-07 0)
(3.10604e-08 2.25972e-07 0)
(5.04747e-08 3.71153e-07 0)
(1.62421e-08 1.19362e-07 0)
(2.71071e-06 1.5711e-05 0)
(2.52743e-06 1.60727e-05 0)
(2.17571e-06 1.22332e-05 0)
(1.62074e-09 1.26271e-08 0)
(1.29788e-09 1.03509e-08 0)
(2.57689e-09 1.94257e-08 0)
(5.84836e-10 5.01463e-09 0)
(7.20967e-10 6.69519e-09 0)
(3.02506e-09 2.27096e-08 0)
(4.23503e-10 3.6429e-09 0)
(8.98005e-09 6.6022e-08 0)
(5.09625e-09 3.82866e-08 0)
(1.25647e-08 9.24547e-08 0)
(3.00322e-09 2.34354e-08 0)
(5.99158e-07 2.50637e-06 0)
(2.26622e-07 9.26584e-07 0)
(4.22139e-07 1.72961e-06 0)
(1.33337e-06 6.3982e-06 0)
(1.12047e-06 5.05899e-06 0)
(7.90663e-08 3.31111e-07 0)
(1.32039e-07 5.28796e-07 0)
(2.7604e-08 1.1912e-07 0)
(4.86655e-09 2.07843e-08 0)
(5.34304e-08 2.25707e-07 0)
(2.59919e-13 6.77114e-12 0)
(1.7739e-12 3.92388e-11 0)
(2.21115e-12 5.229e-11 0)
(-2.28426e-12 6.37685e-11 0)
(-1.46375e-11 1.63828e-10 0)
(-9.84096e-12 1.2068e-10 0)
(-1.37377e-11 2.39527e-10 0)
(-1.00794e-11 2.66364e-10 0)
(-5.65426e-12 4.12278e-10 0)
(1.69278e-12 4.80651e-10 0)
(1.15363e-11 8.66317e-10 0)
(-6.56454e-12 6.7048e-10 0)
(1.62173e-11 1.01945e-09 0)
(5.056e-11 1.61665e-09 0)
(1.71468e-10 2.39299e-09 0)
(1.82875e-06 9.48812e-06 0)
(2.46632e-07 1.8709e-06 0)
(3.3315e-07 2.56151e-06 0)
(1.28692e-07 9.70184e-07 0)
(1.50419e-06 1.09279e-05 0)
(2.44925e-06 1.696e-05 0)
(8.43055e-07 6.44023e-06 0)
(5.79882e-08 4.36262e-07 0)
(2.40152e-08 1.78142e-07 0)
(3.56307e-08 2.67106e-07 0)
(1.61875e-08 1.2082e-07 0)
(3.63161e-06 2.07724e-05 0)
(3.62444e-06 2.28672e-05 0)
(2.29047e-06 1.22108e-05 0)
(1.60815e-09 1.29708e-08 0)
(9.07674e-10 8.1695e-09 0)
(3.92357e-10 4.17424e-09 0)
(4.05572e-10 4.96949e-09 0)
(2.50787e-09 1.97452e-08 0)
(2.46678e-10 2.89385e-09 0)
(7.64077e-09 5.77294e-08 0)
(3.86679e-09 3.07792e-08 0)
(9.43281e-09 7.10017e-08 0)
(2.38615e-09 1.99314e-08 0)
(8.02373e-07 3.20466e-06 0)
(2.37119e-07 9.09369e-07 0)
(4.14668e-07 1.58809e-06 0)
(1.72284e-06 8.38694e-06 0)
(1.26505e-06 5.43893e-06 0)
(9.20683e-08 3.71315e-07 0)
(1.62142e-07 6.20657e-07 0)
(2.77155e-08 1.16237e-07 0)
(8.96116e-09 3.72246e-08 0)
(4.20315e-08 1.73289e-07 0)
(-1.98682e-13 1.42383e-11 0)
(-2.93459e-13 2.70945e-11 0)
(-4.37605e-13 5.13487e-11 0)
(-5.9574e-12 7.20494e-11 0)
(-2.49053e-11 2.17224e-10 0)
(-1.45719e-11 1.30498e-10 0)
(-2.63935e-11 2.72792e-10 0)
(-2.56297e-11 3.54214e-10 0)
(-2.63543e-11 4.11271e-10 0)
(-1.75741e-11 5.7768e-10 0)
(-2.24056e-11 7.7315e-10 0)
(-3.01311e-11 1.21438e-09 0)
(6.56765e-11 1.94758e-09 0)
(-2.21327e-11 1.41707e-09 0)
(1.68536e-07 1.28501e-06 0)
(3.18012e-07 2.51747e-06 0)
(8.82492e-08 6.72154e-07 0)
(1.20205e-06 9.06137e-06 0)
(2.00787e-06 1.4486e-05 0)
(3.32658e-06 2.28906e-05 0)
(7.12145e-07 5.61178e-06 0)
(3.77e-08 2.86266e-07 0)
(6.37906e-08 4.85288e-07 0)
(2.49413e-08 1.87744e-07 0)
(1.28971e-08 9.85951e-08 0)
(4.3083e-06 2.57067e-05 0)
(3.80773e-06 2.02948e-05 0)
(3.97597e-06 2.61986e-05 0)
(2.87977e-06 1.49264e-05 0)
(1.21282e-09 1.10833e-08 0)
(6.74461e-10 7.47902e-09 0)
(3.08793e-10 4.05178e-09 0)
(2.21617e-10 3.1062e-09 0)
(2.40741e-10 4.85919e-09 0)
(1.63885e-09 1.46604e-08 0)
(5.267e-09 4.16338e-08 0)
(3.83064e-09 3.14271e-08 0)
(2.56411e-09 2.17831e-08 0)
(7.96251e-09 6.19969e-08 0)
(1.57038e-09 1.47733e-08 0)
(1.06015e-06 4.30685e-06 0)
(6.93554e-07 2.55449e-06 0)
(2.97615e-07 1.10812e-06 0)
(5.02386e-07 1.84148e-06 0)
(2.16781e-06 1.02097e-05 0)
(1.71311e-06 7.2973e-06 0)
(8.23749e-08 3.19936e-07 0)
(1.47698e-07 5.43406e-07 0)
(1.80196e-08 7.46063e-08 0)
(3.32836e-09 1.35389e-08 0)
(4.29857e-08 1.71338e-07 0)
(-5.45935e-13 7.17779e-12 0)
(-2.12161e-12 3.69553e-11 0)
(-2.37907e-12 4.67087e-11 0)
(-1.03411e-11 9.4922e-11 0)
(-4.94031e-12 5.78527e-11 0)
(-3.1918e-11 2.40425e-10 0)
(-3.1201e-11 2.70248e-10 0)
(-2.46012e-11 1.84969e-10 0)
(-3.76881e-11 3.60931e-10 0)
(-5.08126e-11 5.70669e-10 0)
(-4.63752e-11 6.44348e-10 0)
(-6.12146e-11 9.4434e-10 0)
(-7.74226e-11 1.16605e-09 0)
(-3.43853e-11 2.14627e-09 0)
(-8.37758e-11 1.7942e-09 0)
(1.36287e-07 1.06072e-06 0)
(4.0275e-07 3.24852e-06 0)
(1.92772e-07 1.54478e-06 0)
(8.92132e-08 6.92861e-07 0)
(1.40908e-06 1.09946e-05 0)
(2.30056e-06 1.71861e-05 0)
(3.6947e-06 2.65932e-05 0)
(1.01281e-06 8.1239e-06 0)
(5.4871e-07 4.40281e-06 0)
(3.41546e-08 2.65047e-07 0)
(4.70863e-08 3.65727e-07 0)
(1.80187e-08 1.3971e-07 0)
(1.27751e-08 9.98358e-08 0)
(8.76091e-09 6.86223e-08 0)
(6.02846e-06 3.56004e-05 0)
(4.93335e-06 2.53502e-05 0)
(5.38755e-06 3.54024e-05 0)
(2.81526e-06 1.37147e-05 0)
(1.16401e-09 1.15041e-08 0)
(7.61809e-10 8.34443e-09 0)
(3.22109e-10 5.72911e-09 0)
(1.32381e-10 3.5685e-09 0)
(1.05202e-10 2.97501e-09 0)
(2.29367e-11 4.2559e-09 0)
(5.1291e-09 4.20692e-08 0)
(2.58151e-09 2.4838e-08 0)
(1.82321e-09 1.83098e-08 0)
(1.27479e-09 1.43682e-08 0)
(1.31242e-06 5.01081e-06 0)
(8.67693e-07 2.99292e-06 0)
(3.18305e-07 1.10381e-06 0)
(4.33393e-07 1.46714e-06 0)
(2.08779e-06 9.20646e-06 0)
(1.68193e-06 6.57817e-06 0)
(5.66214e-08 2.20006e-07 0)
(1.01091e-07 3.76515e-07 0)
(1.67311e-07 5.77223e-07 0)
(1.96431e-08 7.88488e-08 0)
(6.81308e-09 2.68968e-08 0)
(2.82979e-08 1.12028e-07 0)
(-2.14711e-12 1.97596e-11 0)
(-3.77264e-12 3.60585e-11 0)
(-1.33801e-11 1.05438e-10 0)
(-7.60824e-12 6.75832e-11 0)
(-4.73662e-11 3.3515e-10 0)
(-5.43432e-11 4.05769e-10 0)
(-3.46156e-11 2.4102e-10 0)
(-6.15696e-11 4.98758e-10 0)
(-7.64824e-11 6.59022e-10 0)
(-8.00382e-11 8.3748e-10 0)
(-8.781e-11 9.52014e-10 0)
(-1.45939e-10 1.5237e-09 0)
(-7.49363e-11 2.49525e-09 0)
(-1.6368e-10 2.02598e-09 0)
(1.38332e-07 1.09802e-06 0)
(2.90326e-07 2.44741e-06 0)
(1.62596e-07 1.34948e-06 0)
(6.89396e-08 5.44993e-07 0)
(1.88678e-06 1.47115e-05 0)
(2.9865e-06 2.22814e-05 0)
(5.01835e-06 3.61284e-05 0)
(9.49476e-07 7.89009e-06 0)
(6.18794e-07 5.14161e-06 0)
(2.52098e-08 1.99422e-07 0)
(4.82308e-08 3.81653e-07 0)
(1.60568e-08 1.28714e-07 0)
(9.2379e-09 7.6079e-08 0)
(7.22704e-09 5.99673e-08 0)
(6.97762e-06 3.88641e-05 0)
(6.48566e-06 4.07674e-05 0)
(6.30161e-06 3.29809e-05 0)
(4.36471e-06 2.09414e-05 0)
(5.81938e-06 4.00532e-05 0)
(3.36999e-06 1.58765e-05 0)
(6.35465e-10 9.88303e-09 0)
(4.64545e-10 8.0816e-09 0)
(1.37813e-10 6.16489e-09 0)
(6.93819e-12 3.60797e-09 0)
(-5.72402e-12 2.78831e-09 0)
(-1.53151e-10 4.87737e-09 0)
(3.85022e-09 3.51254e-08 0)
(2.42174e-09 2.53952e-08 0)
(1.66398e-09 1.85733e-08 0)
(7.44035e-10 1.27383e-08 0)
(1.18139e-06 4.14629e-06 0)
(7.26169e-07 2.29982e-06 0)
(2.26937e-07 7.61056e-07 0)
(4.93788e-07 1.57254e-06 0)
(2.7615e-06 1.17229e-05 0)
(2.16671e-06 8.08674e-06 0)
(5.23719e-08 1.95142e-07 0)
(9.27513e-08 3.31437e-07 0)
(1.15333e-07 3.9424e-07 0)
(1.31239e-08 5.1739e-08 0)
(2.93117e-09 1.1286e-08 0)
(2.74688e-08 1.04963e-07 0)
(-1.72195e-12 1.27505e-11 0)
(-7.28777e-12 5.93742e-11 0)
(-1.95075e-11 1.38302e-10 0)
(-5.95556e-11 4.04642e-10 0)
(-5.7779e-11 4.08958e-10 0)
(-7.05549e-11 5.19296e-10 0)
(-2.95846e-11 2.02611e-10 0)
(-5.20504e-11 3.50599e-10 0)
(-7.93542e-11 6.27042e-10 0)
(-1.18957e-10 9.34226e-10 0)
(-1.17339e-10 9.69172e-10 0)
(-1.55597e-10 1.34233e-09 0)
(-1.78289e-10 1.80737e-09 0)
(-1.86816e-10 1.58688e-09 0)
(-2.27474e-10 2.90944e-09 0)
(-2.73036e-10 2.61183e-09 0)
(9.36958e-08 7.60143e-07 0)
(3.41568e-07 2.96526e-06 0)
(1.91603e-07 1.62556e-06 0)
(1.06185e-07 8.96649e-07 0)
(6.63896e-08 5.37174e-07 0)
(2.30313e-06 1.84907e-05 0)
(3.21741e-06 2.50626e-05 0)
(5.64541e-06 4.2707e-05 0)
(1.08526e-06 9.29873e-06 0)
(5.04383e-07 4.32379e-06 0)
(2.22034e-08 1.83091e-07 0)
(1.88199e-08 1.50695e-07 0)
(3.69979e-08 3.01356e-07 0)
(9.99063e-09 8.6713e-08 0)
(7.72541e-09 6.7955e-08 0)
(5.23612e-09 4.7326e-08 0)
(9.69358e-06 5.37082e-05 0)
(8.61607e-06 5.48555e-05 0)
(7.85765e-06 3.87125e-05 0)
(4.97545e-06 2.24626e-05 0)
(7.86802e-06 5.37252e-05 0)
(3.31463e-06 1.46731e-05 0)
(4.05286e-10 1.02195e-08 0)
(1.72097e-10 7.36127e-09 0)
(-1.1037e-10 5.47528e-09 0)
(-1.48758e-10 3.71612e-09 0)
(-1.37811e-10 3.21553e-09 0)
(-3.71569e-10 5.18253e-09 0)
(3.7125e-09 3.59487e-08 0)
(1.46986e-09 2.2596e-08 0)
(8.44631e-10 1.64174e-08 0)
(3.99587e-10 1.33081e-08 0)
(1.46233e-06 4.83271e-06 0)
(8.46395e-07 2.46308e-06 0)
(2.28566e-07 7.0032e-07 0)
(4.3343e-07 1.27995e-06 0)
(2.77261e-06 1.07642e-05 0)
(1.95865e-06 6.67383e-06 0)
(6.52025e-08 2.34238e-07 0)
(3.49772e-08 1.30408e-07 0)
(1.06786e-07 3.45231e-07 0)
(1.70023e-08 6.51885e-08 0)
(6.95687e-09 2.59781e-08 0)
(-4.76662e-12 3.29389e-11 0)
(-1.02296e-11 7.42244e-11 0)
(-1.64756e-11 1.13967e-10 0)
(-8.69405e-11 5.83074e-10 0)
(-8.72091e-11 5.93751e-10 0)
(-1.08291e-10 7.57776e-10 0)
(-4.46733e-11 2.95898e-10 0)
(-7.48596e-11 4.94617e-10 0)
(-1.29907e-10 9.36101e-10 0)
(-1.62642e-10 1.16706e-09 0)
(-1.81271e-10 1.40473e-09 0)
(-2.82981e-10 2.37674e-09 0)
(-3.07594e-10 2.33101e-09 0)
(-2.78886e-10 3.52657e-09 0)
(-3.17601e-10 3.0481e-09 0)
(-3.41367e-10 2.80061e-09 0)
(8.29514e-08 6.92959e-07 0)
(2.56014e-07 2.34648e-06 0)
(1.46242e-07 1.29344e-06 0)
(8.93505e-08 7.86373e-07 0)
(4.83929e-08 4.04373e-07 0)
(2.12046e-06 1.77955e-05 0)
(4.24602e-06 3.35094e-05 0)
(7.83101e-06 5.91953e-05 0)
(7.52989e-07 6.71716e-06 0)
(1.49074e-06 1.28398e-05 0)
(5.42078e-07 4.82413e-06 0)
(1.6286e-08 1.37257e-07 0)
(2.47414e-08 2.06679e-07 0)
(3.58001e-08 3.00353e-07 0)
(9.27705e-09 8.64813e-08 0)
(5.13922e-09 5.24333e-08 0)
(4.07179e-09 4.20233e-08 0)
(1.14933e-05 6.64676e-05 0)
(9.84402e-06 4.9971e-05 0)
(1.05844e-05 6.55557e-05 0)
(7.79954e-06 3.53164e-05 0)
(6.23897e-06 2.7398e-05 0)
(4.04367e-06 1.73982e-05 0)
(9.28667e-06 6.56808e-05 0)
(-9.17178e-11 1.0246e-08 0)
(-1.99613e-10 7.88509e-09 0)
(-3.44973e-10 6.84132e-09 0)
(-3.21121e-10 4.34656e-09 0)
(-6.54326e-10 6.95012e-09 0)
(2.35088e-09 3.07791e-08 0)
(1.29087e-09 2.44389e-08 0)
(6.27146e-10 1.77078e-08 0)
(-1.73698e-10 1.34377e-08 0)
(1.38844e-06 4.22111e-06 0)
(6.77488e-07 1.83236e-06 0)
(1.12138e-06 3.21749e-06 0)
(2.93483e-07 8.52016e-07 0)
(1.37323e-07 4.21455e-07 0)
(5.00993e-07 1.36304e-06 0)
(3.63967e-06 1.35742e-05 0)
(2.37755e-06 7.46024e-06 0)
(5.97426e-08 2.07355e-07 0)
(3.23011e-08 1.16133e-07 0)
(7.19484e-08 2.37465e-07 0)
(1.44965e-08 5.39617e-08 0)
(3.10606e-09 1.13825e-08 0)
(-3.10811e-12 2.04765e-11 0)
(-8.72054e-12 6.03402e-11 0)
(-2.39284e-11 1.5905e-10 0)
(-1.17235e-10 7.75183e-10 0)
(-1.22959e-10 8.28961e-10 0)
(-1.39739e-10 9.73633e-10 0)
(-1.25584e-10 8.54015e-10 0)
(-6.60493e-11 4.33542e-10 0)
(-3.6711e-11 2.40906e-10 0)
(-1.09205e-10 7.17668e-10 0)
(-2.44039e-10 1.70335e-09 0)
(-2.72e-10 1.97089e-09 0)
(-3.47858e-10 2.64306e-09 0)
(-3.6259e-10 2.59878e-09 0)
(-4.76696e-10 4.62388e-09 0)
(-5.62375e-10 4.56806e-09 0)
(-5.0133e-10 3.78232e-09 0)
(5.80919e-08 5.05073e-07 0)
(2.98471e-07 2.83033e-06 0)
(1.70596e-07 1.60848e-06 0)
(1.38468e-07 1.27935e-06 0)
(1.01911e-07 9.10343e-07 0)
(6.35728e-08 5.84575e-07 0)
(4.399e-08 3.82722e-07 0)
(2.9425e-06 2.51446e-05 0)
(4.18402e-06 3.46802e-05 0)
(8.79806e-06 6.99299e-05 0)
(7.45119e-07 6.96667e-06 0)
(1.37688e-06 1.25823e-05 0)
(4.13483e-07 3.84493e-06 0)
(1.28026e-08 1.14946e-07 0)
(2.12779e-08 1.90285e-07 0)
(2.64616e-08 2.35099e-07 0)
(6.20446e-09 6.86682e-08 0)
(3.78465e-09 4.77569e-08 0)
(2.46173e-09 3.38431e-08 0)
(1.5478e-05 8.71983e-05 0)
(1.21338e-05 5.84197e-05 0)
(1.37886e-05 8.8676e-05 0)
(1.00281e-05 4.37306e-05 0)
(5.87778e-06 2.31526e-05 0)
(4.2751e-06 1.71949e-05 0)
(1.27042e-05 8.82557e-05 0)
(-3.52927e-10 1.14984e-08 0)
(-3.57266e-10 8.97079e-09 0)
(-6.65448e-10 7.88894e-09 0)
(-5.13956e-10 5.10993e-09 0)
(-9.38653e-10 8.11781e-09 0)
(2.50736e-10 2.39701e-08 0)
(-1.26756e-10 1.82226e-08 0)
(-7.47075e-10 1.53782e-08 0)
(1.84015e-06 5.35452e-06 0)
(7.58299e-07 1.83817e-06 0)
(1.25053e-06 3.1885e-06 0)
(2.73244e-07 7.24548e-07 0)
(1.20067e-07 3.49884e-07 0)
(4.67317e-07 1.16336e-06 0)
(3.83611e-06 1.28129e-05 0)
(3.05325e-06 9.42582e-06 0)
(4.06855e-08 1.42069e-07 0)
(1.98043e-08 7.16371e-08 0)
(5.79433e-08 1.8875e-07 0)
(5.4385e-09 1.92758e-08 0)
(-8.62449e-12 5.61075e-11 0)
(-1.52371e-11 1.01078e-10 0)
(-1.62982e-10 1.07675e-09 0)
(-1.62602e-10 1.08007e-09 0)
(-2.12619e-10 1.4434e-09 0)
(-1.95541e-10 1.31452e-09 0)
(-9.66642e-11 6.29867e-10 0)
(-5.30163e-11 3.4417e-10 0)
(-1.59572e-10 1.04455e-09 0)
(-2.92161e-10 2.04892e-09 0)
(-3.05457e-10 2.07972e-09 0)
(-5.08103e-10 3.69897e-09 0)
(-5.77072e-10 4.00714e-09 0)
(-6.36415e-10 5.23764e-09 0)
(-6.99986e-10 5.25077e-09 0)
(-6.35198e-10 4.67731e-09 0)
(5.06987e-08 4.65253e-07 0)
(2.31501e-07 2.38082e-06 0)
(1.38043e-07 1.42935e-06 0)
(9.08851e-08 8.97347e-07 0)
(7.88056e-08 7.52574e-07 0)
(6.06245e-08 5.97366e-07 0)
(3.19597e-08 2.98692e-07 0)
(2.77248e-06 2.48449e-05 0)
(5.28707e-06 4.51148e-05 0)
(7.07923e-06 5.98676e-05 0)
(1.24456e-05 9.7457e-05 0)
(5.17943e-07 5.1118e-06 0)
(9.49637e-07 8.95057e-06 0)
(1.66578e-06 1.56166e-05 0)
(4.04256e-07 3.96945e-06 0)
(1.12515e-08 1.12912e-07 0)
(1.39283e-08 1.38545e-07 0)
(2.44343e-08 2.30967e-07 0)
(6.61496e-09 7.97421e-08 0)
(4.18158e-09 5.39867e-08 0)
(1.80047e-09 3.81367e-08 0)
(1.42505e-09 3.2687e-08 0)
(1.76863e-05 9.27984e-05 0)
(1.72467e-05 0.000105652 0)
(1.53145e-05 7.43901e-05 0)
(1.13175e-05 4.60912e-05 0)
(6.57845e-06 2.36702e-05 0)
(1.50912e-05 0.000109651 0)
(-9.54951e-10 1.34424e-08 0)
(-8.75557e-10 1.10181e-08 0)
(-1.1096e-09 1.06013e-08 0)
(-8.0385e-10 6.86325e-09 0)
(-1.40026e-09 1.11388e-08 0)
(-1.75258e-10 2.64451e-08 0)
(-3.68577e-10 2.04252e-08 0)
(-7.81265e-10 1.69649e-08 0)
(-1.31887e-09 1.60227e-08 0)
(1.98132e-06 5.25541e-06 0)
(9.78122e-07 2.29858e-06 0)
(5.73528e-07 1.31825e-06 0)
(1.59522e-06 3.94847e-06 0)
(3.48478e-07 8.5378e-07 0)
(1.90415e-07 4.91874e-07 0)
(7.98277e-08 2.33413e-07 0)