/*--------------------------------*- C++ -*----------------------------------*\
| =========                 |                                                 |
| \\      /  F ield         | OpenFOAM: The Open Source CFD Toolbox           |
|  \\    /   O peration     | Version:  v2012                                 |
|   \\  /    A nd           | Website:  www.openfoam.com                      |
|    \\/     M anipulation  |                                                 |
\*---------------------------------------------------------------------------*/
FoamFile
{
    version     2.0;
    format      ascii;
    class       surfaceScalarField;
    location    "0.04";
    object      meshPhi;
}
// * * * * * * * * * * * * * * * * * * * * * * * * * * * * * * * * * * * * * //

dimensions      [0 3 -1 0 0 0 0];


internalField   nonuniform List<scalar> 
18811
(
1.79944e-07
1.85341e-07
-2.63091e-07
9.57062e-07
-8.64881e-08
5.2674e-07
5.41961e-07
1.37534e-07
1.11611e-06
2.02682e-07
9.98962e-07
1.9366e-06
-1.18778e-07
-2.2569e-07
1.98025e-06
4.20554e-07
-3.94844e-08
3.05928e-07
8.42917e-07
2.29314e-06
2.12382e-06
-1.11684e-06
1.61582e-07
2.11276e-06
2.81565e-07
2.72291e-07
8.71366e-08
7.5981e-07
1.26878e-06
-1.12402e-06
4.48707e-06
4.68604e-06
-1.20551e-06
5.17957e-07
-6.15862e-07
3.31687e-06
4.56027e-07
-9.15986e-08
1.67984e-07
-1.2928e-08
2.62655e-07
6.25813e-07
1.71554e-06
4.54701e-06
4.40533e-06
-3.7885e-06
3.9429e-06
-1.50219e-06
1.62684e-07
3.40124e-06
2.18707e-07
2.77029e-07
1.32276e-07
4.53846e-08
9.54263e-07
2.18072e-06
-2.96534e-06
9.37669e-06
-1.98273e-06
7.54624e-06
9.2003e-06
-2.91241e-06
3.28536e-06
-2.30702e-06
-1.05965e-06
4.90064e-06
-8.85983e-08
4.11483e-07
2.10675e-07
-3.66937e-08
6.70231e-08
1.74888e-09
7.1497e-07
2.5182e-07
1.5889e-07
2.09893e-06
8.01312e-06
8.31813e-06
6.72512e-06
-7.73305e-06
7.21454e-06
-1.7714e-06
-2.58568e-07
7.97131e-07
4.03873e-06
1.47512e-07
1.99258e-07
2.27256e-07
5.35227e-08
-7.55602e-09
2.77534e-08
9.58154e-07
4.87618e-07
3.01191e-06
-9.42439e-06
2.1336e-05
-5.10305e-06
1.55652e-05
-2.02812e-06
9.58333e-06
1.28948e-05
-2.98174e-06
7.45393e-06
-6.43571e-06
1.78417e-06
-6.66084e-07
4.7291e-06
-4.06613e-08
2.13208e-07
-5.05366e-08
3.00471e-07
-3.50498e-08
1.12915e-07
7.02203e-09
2.2613e-09
-3.30908e-07
1.39142e-06
1.74161e-07
1.69662e-06
1.13581e-06
6.84262e-06
1.81559e-05
1.40955e-05
8.77991e-06
-1.38667e-05
1.37092e-05
-2.44497e-06
-1.88683e-07
1.3997e-06
3.10575e-06
9.07574e-08
1.84121e-07
5.18472e-07
1.56906e-08
-1.70489e-09
3.04206e-08
4.84073e-07
8.32351e-07
3.05899e-06
1.61723e-06
-1.67419e-05
2.74406e-05
3.60889e-05
-1.16919e-05
-3.44312e-06
1.88679e-05
4.27856e-06
4.11448e-06
1.22342e-06
-1.49052e-05
1.70273e-05
5.72043e-06
-2.62149e-06
7.52284e-06
1.07983e-07
-6.87708e-09
-2.11337e-08
2.17884e-07
-1.09103e-08
5.34846e-07
6.40345e-09
3.41253e-08
-8.5607e-10
-1.0952e-07
9.25835e-07
3.80789e-08
2.89707e-06
1.54248e-06
3.06431e-05
2.85054e-06
3.32454e-05
2.34436e-05
9.64284e-06
9.04039e-06
1.39436e-05
-2.3444e-05
3.0063e-05
-4.57219e-06
8.00476e-07
1.19342e-06
2.68849e-06
4.26826e-06
9.47784e-08
-3.11484e-08
3.02902e-08
2.08935e-07
3.79737e-07
5.19e-09
3.84366e-09
6.18316e-09
-1.89697e-08
8.20797e-07
-1.01716e-07
2.57251e-06
1.41e-06
-3.61925e-05
4.48303e-05
1.52686e-05
1.83329e-05
-3.93397e-05
7.03891e-05
2.52796e-05
3.52731e-06
9.37034e-06
2.81227e-06
-8.05315e-06
8.61681e-06
2.61172e-05
-1.93591e-05
-3.04982e-06
2.33288e-06
6.49527e-07
3.23297e-06
-8.97932e-09
1.06956e-07
3.93563e-08
-6.95633e-09
-1.25662e-08
2.19956e-07
-5.6159e-08
4.19827e-07
-4.62649e-09
9.32554e-09
1.72846e-07
5.30595e-07
-1.06101e-07
2.46743e-06
1.09374e-06
1.49032e-05
-1.64267e-05
3.67339e-05
6.96192e-05
1.17219e-05
1.67283e-05
7.74686e-06
1.98472e-05
9.51729e-06
-4.87323e-05
6.18226e-05
2.29159e-05
-7.98577e-06
-1.20304e-05
1.04156e-05
2.40985e-06
5.45206e-06
3.11338e-08
8.96322e-08
1.38438e-07
2.50973e-07
1.10489e-07
3.51849e-07
-2.3808e-07
6.10134e-07
6.56227e-07
1.40072e-06
6.82371e-07
-6.46542e-05
9.19396e-05
5.29724e-05
2.29529e-05
1.3238e-05
-8.70118e-05
0.000108914
3.08388e-05
1.33779e-05
4.11344e-06
1.38658e-06
6.63882e-06
1.58718e-05
-1.35374e-05
1.26944e-05
-3.32907e-05
3.17788e-05
-1.6582e-05
-4.56429e-06
4.55045e-07
3.93688e-06
2.57197e-08
1.72304e-09
8.2768e-08
-1.22852e-08
1.41962e-07
-8.58103e-08
1.78392e-07
6.55235e-08
2.34844e-07
4.71437e-08
4.65772e-07
1.16464e-06
-7.81776e-07
1.65054e-06
2.48034e-05
4.7606e-05
7.30957e-06
6.24218e-05
0.000111099
1.48979e-05
3.14708e-05
-1.72758e-06
1.3473e-05
3.38622e-05
6.30511e-06
-9.21386e-05
0.000130108
2.35263e-05
-4.24083e-06
7.05795e-05
-2.61909e-05
1.43362e-05
3.11911e-06
2.47748e-06
2.28089e-08
6.02662e-08
3.95314e-08
1.04538e-07
4.67001e-08
1.38902e-07
2.10804e-07
2.2842e-07
1.08973e-07
4.7032e-07
4.19459e-07
4.78135e-07
8.94392e-07
-9.41142e-05
0.000137331
0.000122198
5.90606e-05
-0.000141804
0.00017297
3.2775e-06
7.51341e-06
1.30197e-05
1.50439e-05
6.97661e-07
4.14743e-06
3.97139e-06
6.68051e-05
-1.88061e-05
2.11429e-05
-5.28652e-05
4.07044e-05
-2.93514e-05
1.18645e-05
-2.80504e-06
-1.09465e-07
1.91549e-06
1.81659e-08
4.49032e-08
9.10243e-09
7.71915e-08
-4.39854e-08
7.81041e-08
2.96853e-08
8.82756e-08
2.88773e-08
1.47058e-07
-2.56561e-09
1.85242e-07
4.43269e-07
7.00346e-07
-2.13408e-07
8.02044e-07
2.41011e-05
-2.44189e-06
0.000131082
-8.22161e-06
6.29143e-05
0.000194041
7.42331e-06
1.41123e-05
6.94506e-06
-1.60165e-05
2.62604e-05
3.31834e-06
-7.7118e-05
0.000102709
-6.61256e-05
0.000159219
4.76062e-07
1.67238e-06
-1.82829e-05
3.30019e-06
1.32492e-06
2.11637e-08
2.11901e-08
3.63239e-08
2.8849e-08
5.43567e-08
8.91157e-08
1.01054e-07
3.92359e-08
9.68859e-08
1.48049e-07
2.11783e-07
4.65024e-08
4.8577e-07
7.03902e-07
-0.000153647
0.000203306
0.000196396
0.000116076
3.82332e-05
-0.000221618
0.000252891
6.4264e-06
4.6566e-06
1.45099e-06
3.6655e-06
9.41411e-06
1.18306e-05
6.34706e-07
1.88563e-06
0.000192622
-4.61564e-05
0.000159597
3.7895e-05
-1.22009e-05
1.91772e-05
-2.80628e-05
4.1091e-05
-6.37362e-05
6.73221e-05
-2.13585e-06
-1.46821e-07
1.08883e-06
1.68692e-08
2.93233e-08
-8.13887e-09
3.08667e-08
5.17651e-09
4.25563e-08
1.66033e-08
5.81635e-08
1.06453e-08
7.34954e-08
1.45733e-07
-1.01755e-08
8.44639e-08
-7.30498e-08
1.97812e-07
3.06451e-07
3.80284e-07
1.27088e-07
2.44824e-05
0.000266376
-5.08556e-05
2.76971e-05
7.07818e-05
-2.93592e-06
3.40476e-05
0.000318202
-2.16877e-05
6.28874e-06
1.12695e-05
3.46645e-06
-1.25934e-05
1.92558e-05
1.39826e-06
-0.00012425
0.000120352
0.000178828
2.53148e-05
0.000248043
6.39139e-07
-7.1521e-06
-3.1218e-05
-5.97e-06
1.32003e-05
5.36943e-07
3.35225e-07
1.17961e-08
2.94416e-08
4.62672e-08
5.23405e-08
4.29877e-08
3.5141e-09
1.01921e-07
3.72628e-10
6.04808e-08
1.61465e-07
1.8293e-08
2.05625e-07
3.12787e-07
4.90078e-07
-0.000242864
0.000306487
7.93708e-05
0.000168373
0.000276074
9.88857e-05
5.99383e-05
1.51849e-05
-0.000361588
0.000375416
9.73299e-07
3.59844e-06
4.83543e-06
4.0764e-06
1.58158e-06
1.23035e-06
5.21552e-06
1.03038e-05
7.42404e-07
2.88589e-07
0.000202936
-4.60499e-05
-0.000224644
0.000302151
6.16736e-05
-2.18591e-05
3.26077e-05
-4.04195e-05
4.66759e-05
-8.74883e-05
8.43132e-05
-1.90544e-07
4.63704e-07
8.72009e-07
9.65466e-09
4.09013e-09
2.00641e-08
1.01573e-08
2.86858e-08
2.57508e-08
1.67484e-08
5.70548e-08
8.12099e-08
2.5329e-08
2.47619e-08
-1.25594e-08
1.23665e-07
1.501e-07
1.84772e-07
5.29151e-08
3.03885e-07
6.16148e-08
1.52404e-05
2.55616e-05
0.000133458
-6.02397e-05
0.000365017
-1.40491e-05
9.90471e-05
2.13157e-05
2.88668e-05
3.12756e-05
0.000471431
-2.17808e-05
4.47383e-06
5.71671e-07
2.1678e-06
7.11806e-06
1.45611e-06
1.17246e-06
-8.76988e-07
7.69078e-06
4.48829e-05
-0.000171455
0.000164882
0.000198355
0.000163027
0.000303675
2.88338e-06
-2.47902e-05
-4.99709e-05
5.64378e-06
-1.36483e-05
2.32642e-05
3.13921e-07
4.1328e-07
8.19658e-09
2.32897e-08
3.49317e-08
2.07485e-08
2.41431e-08
3.0645e-08
3.50991e-08
3.54983e-08
4.71693e-08
3.47031e-08
6.80175e-08
3.26791e-09
1.06808e-07
1.47957e-07
2.77636e-07
2.90017e-07
-0.000354097
0.000429374
-0.000216484
0.000236208
0.000107144
0.000429548
0.000144362
1.87628e-05
6.72488e-05
3.90247e-05
1.54094e-05
8.99525e-06
-0.000591723
0.000640649
2.72908e-06
5.37104e-07
-1.16885e-07
1.57381e-06
2.89926e-06
2.99788e-06
1.25467e-08
1.19598e-06
9.17043e-07
1.10317e-05
1.41229e-06
4.831e-06
-0.000160729
0.00025214
4.79613e-05
-0.000143019
0.000376589
1.82401e-05
4.94777e-05
-3.54234e-05
4.23362e-05
-9.24294e-05
8.10177e-05
1.81145e-06
1.46634e-06
2.85937e-07
3.23851e-08
6.96739e-09
1.05107e-08
9.01323e-09
6.38012e-09
2.34614e-08
-6.79039e-09
2.45778e-08
5.30346e-08
2.30088e-08
7.52016e-09
2.43147e-08
1.70295e-08
-3.33168e-09
5.4345e-08
8.3884e-08
2.15906e-08
9.31434e-08
1.22042e-07
1.08237e-07
-1.45586e-07
3.61481e-07
-4.11408e-05
7.12167e-05
0.000147909
0.000169665
0.00037967
9.3824e-05
0.000546388
1.8836e-05
3.40725e-05
1.86653e-05
1.24372e-05
2.19159e-05
0.000724494
7.82731e-05
1.94522e-06
2.61043e-06
5.6692e-07
7.19271e-07
3.33903e-06
3.95979e-07
5.2664e-07
4.32497e-07
3.01123e-07
6.28621e-06
2.02417e-06
-2.95261e-07
3.62799e-06
0.000384712
-6.26716e-05
0.000266427
-0.00016735
0.00035578
0.000465184
-2.91534e-05
0.000168201
-5.45398e-05
1.29748e-05
-3.69124e-06
-2.10745e-05
3.59807e-05
9.75829e-08
3.57893e-07
4.2383e-10
3.32077e-09
1.35513e-08
7.30671e-09
1.15396e-08
8.10034e-09
1.29594e-08
3.3726e-08
1.11454e-08
2.75857e-08
2.83274e-08
4.46343e-08
5.76162e-08
1.20223e-08
5.72425e-08
1.15636e-07
8.92842e-08
-1.02897e-07
1.63496e-07
1.94767e-07
-0.000421173
0.000469543
-0.000175278
0.000317007
5.2633e-05
9.45358e-05
0.000882232
0.00034649
5.96298e-05
3.91855e-05
8.2143e-06
9.20096e-06
0.000745729
-0.000558301
5.13229e-07
1.02529e-06
-4.4062e-07
2.40704e-06
6.97381e-07
-1.8849e-07
6.87182e-07
2.33043e-06
6.64578e-07
4.55987e-06
7.80836e-06
3.19754e-07
2.6079e-06
0.000277656
7.07794e-05
0.000497651
-5.65497e-05
0.000139303
-5.49165e-05
4.91902e-05
-9.07187e-05
6.67699e-05
-1.01582e-06
2.70223e-06
-6.08723e-06
4.07822e-07
2.84705e-09
3.72894e-09
7.91469e-09
9.00381e-09
1.71866e-08
-5.09107e-09
1.64406e-08
1.51802e-08
1.19438e-08
-8.29687e-09
3.52812e-08
3.43092e-08
-7.25578e-09
5.67551e-08
4.4396e-08
-2.34441e-08
1.18532e-07
2.68323e-08
5.54408e-08
1.2042e-07
2.03694e-07
-6.03575e-08
0.000831615
-0.00025557
0.000133723
0.000145949
-1.43845e-06
7.65818e-05
0.000699263
0.000270474
-8.47825e-05
0.000440298
-1.8743e-06
4.76181e-05
1.8229e-05
1.15646e-05
-2.93552e-06
8.78631e-06
-0.000365594
0.00128083
0.00040843
-8.31419e-07
1.01464e-06
6.37028e-07
1.16125e-06
6.41256e-08
4.92767e-07
6.21266e-07
1.99925e-06
1.75665e-07
3.60496e-07
9.00866e-08
3.18695e-06
3.98611e-06
2.42406e-06
8.08717e-08
1.85875e-06
0.000424036
-4.40421e-05
-0.000124991
0.000250668
0.000348279
0.000262738
0.000459188
0.000575004
-2.37687e-05
0.000125621
-3.73281e-05
-1.18397e-05
1.86096e-05
-3.27657e-06
-2.34307e-05
2.69221e-05
2.82438e-07
3.82462e-08
-4.37425e-10
2.24262e-09
7.48826e-09
9.81353e-09
7.46887e-09
9.25745e-09
-1.10031e-08
2.75448e-08
2.00931e-08
2.5675e-08
-1.35625e-08
4.66007e-08
4.15013e-08
6.72658e-08
2.6724e-08
8.23648e-08
7.39346e-08
-2.11784e-08
1.2539e-07
1.64446e-07
1.79911e-07
0.000427574
0.000113498
-0.00010138
0.000223698
6.28875e-05
0.000612385
-0.000678782
0.00104502
0.000296296
1.18811e-05
2.75811e-05
1.17043e-05
1.74478e-05
3.7529e-06
3.35018e-06
-0.000990402
0.000786121
0.000752591
-0.000450195
4.95427e-07
3.41113e-07
9.34969e-07
-2.72528e-07
1.08941e-06
5.3893e-07
-1.38896e-07
6.21141e-07
1.33113e-06
3.20749e-07
3.10711e-06
2.57507e-06
4.82023e-06
2.34855e-07
1.32321e-06
-0.000279851
0.000346263
3.3087e-05
3.20414e-05
-0.000356561
0.000718909
0.000239046
-5.6033e-05
5.1743e-05
-7.88822e-05
6.01665e-05
2.15317e-06
4.59405e-06
-1.89313e-05
2.11226e-09
6.63092e-10
5.73743e-09
9.56666e-09
-2.92999e-09
1.2583e-08
-2.47708e-09
3.37155e-08
2.13363e-08
-1.46271e-08
4.28881e-08
3.34685e-08
-1.87578e-08
6.26239e-08
5.00965e-08
-3.6591e-09
8.36083e-08
4.40655e-08
3.36015e-08
1.1882e-07
-1.46746e-08
1.68222e-07
-1.28993e-07
2.76745e-07
0.000880288
-0.000322643
5.79235e-06
8.62418e-05
0.000203988
2.27915e-06
4.80212e-05
0.000598297
2.7001e-05
0.000748937
0.000361684
-0.00011422
0.000392209
1.37525e-05
8.5017e-06
5.92392e-06
3.36417e-06
2.36116e-06
1.11427e-05
7.57608e-06
0.00166252
-0.000610287
-0.000615965
0.00156849
0.000617327
1.20425e-06
6.60239e-07
2.62662e-07
2.13814e-07
1.60394e-07
3.84782e-07
1.23637e-06
1.53988e-07
-6.98329e-07
3.14801e-06
8.01754e-07
1.25605e-06
3.46709e-06
2.59457e-07
8.49755e-07
0.000468081
-4.26036e-05
-0.000107775
0.000173597
-0.000142569
0.000219356
0.000570206
-0.000224286
0.000561123
-1.14118e-05
-2.76518e-05
2.22873e-05
-1.34652e-05
1.30173e-05
-2.20275e-06
1.1981e-05
3.22249e-11
2.12434e-09
5.79016e-09
6.55073e-09
1.16026e-08
2.14864e-09
3.73351e-08
4.70881e-09
-2.74432e-09
2.97167e-08
4.15139e-08
9.32356e-09
-1.34135e-08
5.37612e-08
5.65615e-08
1.00022e-07
1.22541e-07
-2.83362e-08
1.55184e-07
2.48682e-07
1.46686e-07
7.62852e-05
5.50155e-05
0.000103667
1.80351e-05
2.219e-05
0.000458203
0.000788118
-0.000772293
0.00122451
4.91198e-05
0.000305246
1.31426e-05
2.09792e-05
1.13067e-05
2.56498e-06
3.76988e-06
0.00129558
-0.0011479
0.000846403
0.000950219
-0.000355381
2.32477e-07
7.5486e-07
-1.04265e-07
6.35351e-07
3.59373e-07
3.25932e-07
-1.04095e-07
4.37613e-07
1.77121e-07
8.7552e-07
1.56932e-06
1.05155e-06
1.84143e-06
1.27785e-06
2.53104e-07
2.38249e-06
8.97114e-07
0.000342128
-0.000282924
0.000321333
6.45957e-05
-2.39423e-05
0.000867922
-0.000144522
0.000666133
8.41026e-06
-4.67004e-05
5.07299e-05
-6.53822e-05
5.97104e-05
6.43262e-06
3.16024e-06
3.90967e-05
-1.79e-05
2.32651e-09
1.12382e-10
6.4902e-09
7.25893e-09
1.30623e-08
1.0703e-08
3.23778e-10
4.54384e-08
5.41717e-08
3.99349e-08
7.13751e-08
-3.09107e-08
1.00636e-07
8.13422e-08
1.57656e-08
1.24689e-07
1.89015e-07
1.19218e-07
1.40851e-07
2.87778e-07
1.92406e-05
4.53473e-05
-0.000124197
0.000146843
1.36711e-05
7.22843e-05
3.5087e-05
0.000510076
-6.86734e-05
0.000631951
0.000176275
0.000816479
0.000481772
0.000532852
0.000142016
-5.98683e-06
1.57009e-05
1.15728e-05
3.42864e-06
5.85873e-06
4.84037e-06
3.18511e-06
-0.00027933
0.00198101
0.00196262
-0.000825312
-0.000432162
0.0015621
0.000710318
9.07998e-07
5.5083e-07
4.78424e-07
4.1844e-08
3.0421e-07
3.51302e-07
8.9174e-08
3.44653e-07
2.9381e-06
7.29627e-07
8.54238e-07
4.39608e-07
6.98739e-07
1.21776e-06
0.000445549
-3.40882e-05
0.000379266
4.61766e-07
0.000197365
-9.89576e-05
0.00022147
0.000682855
0.000553905
2.53714e-06
-3.8187e-06
0.000132923
-5.30655e-05
1.6885e-05
-5.96898e-06
9.49992e-06
-1.72938e-06
4.09482e-06
-9.72515e-11
4.26829e-09
7.89237e-09
-8.84184e-09
2.64233e-08
4.31411e-09
4.95536e-08
6.81866e-09
5.80699e-08
1.42433e-08
1.27071e-08
3.91173e-08
6.54091e-08
2.48076e-08
5.6792e-08
6.02353e-08
-1.03695e-08
1.08215e-07
1.3079e-07
7.93636e-08
1.45844e-07
-1.40547e-07
2.90641e-07
1.12038e-07
2.02746e-07
4.44214e-05
4.70252e-05
7.10851e-05
1.20124e-05
4.39364e-05
1.13561e-05
1.8145e-05
0.000541914
0.00102861
-0.00102276
0.00162207
0.000141162
0.000336889
0.000260714
6.91274e-06
6.62575e-06
1.86502e-05
-1.57942e-06
5.4746e-06
9.58884e-07
3.19325e-06
3.44344e-06
-0.00146625
0.00151119
0.00173773
0.000884448
-0.000939651
0.000334975
0.000708745
-0.000106234
2.3091e-07
6.12173e-07
7.30483e-07
-2.62405e-08
4.87387e-07
3.9205e-07
2.1621e-07
-1.04753e-07
4.76985e-07
1.33075e-06
1.14251e-06
1.77035e-06
1.3559e-06
4.67425e-07
6.70687e-07
0.000438624
-0.000213947
0.000274535
7.32101e-05
3.48124e-05
0.00076758
4.65594e-05
0.000671223
-1.43367e-06
3.74505e-05
-2.58918e-05
5.36264e-05
-4.57277e-05
1.35718e-05
7.63629e-06
2.75401e-06
2.25155e-05
-1.31301e-05
4.99018e-09
1.54748e-08
2.27789e-08
1.11776e-08
1.57171e-08
4.70438e-08
7.65527e-08
9.74694e-08
4.75965e-08
7.1026e-08
9.76416e-08
-5.9709e-08
1.46389e-07
7.68811e-08
4.24328e-08
1.22173e-07
2.20504e-07
2.24008e-07
1.40802e-08
3.27101e-07
5.69919e-10
2.57851e-07
1.0218e-05
2.71316e-05
-9.85932e-05
0.000122407
6.73957e-05
3.79969e-06
3.27983e-05
2.26001e-05
-0.000484837
0.00105072
0.000552398
0.00104424
0.000689564
0.000313912
-2.54557e-05
0.000127018
4.43125e-06
1.03722e-06
3.81171e-06
8.6001e-06
7.36661e-06
1.55725e-06
2.99868e-06
3.78969e-06
1.12392e-06
1.87754e-06
0.0028027
-0.000901791
0.00134896
0.000700305
0.00169285
-0.000565819
0.00118973
-0.000690819
0.00225466
0.000788473
1.00784e-06
6.85351e-07
4.05367e-07
7.27437e-08
3.48119e-07
3.12415e-07
6.66606e-08
4.72357e-07
1.86894e-06
5.99751e-07
1.00639e-06
6.38968e-07
6.27084e-07
1.25601e-06
0.000356445
0.000135689
-1.80283e-05
0.000321834
0.000177048
-7.14049e-05
-0.000121538
0.000188268
0.000867104
0.000450516
6.11093e-07
2.76909e-06
8.59223e-05
-5.27163e-05
-1.84962e-06
8.4682e-06
-1.52518e-06
5.83632e-09
2.57104e-09
9.73247e-09
9.17611e-09
2.59753e-08
-3.51725e-08
1.00295e-07
6.10319e-08
1.25485e-08
1.0964e-07
4.07644e-08
2.11779e-08
3.66363e-08
5.53352e-08
4.82814e-09
1.27679e-07
1.88195e-07
2.34873e-07
6.08433e-08
1.97274e-07
4.1372e-08
2.67085e-07
3.69908e-07
3.93683e-07
3.64062e-07
2.39047e-05
3.30237e-05
6.89991e-05
3.38018e-05
2.38771e-05
4.80011e-06
2.24244e-05
6.86009e-06
1.23866e-05
0.000631525
0.000341884
0.00168829
-0.00160636
0.00247821
7.56532e-05
0.000201952
0.000550282
0.000175134
7.46968e-06
7.83038e-06
1.17992e-05
-2.1571e-06
4.33185e-06
6.13527e-07
2.67851e-06
2.0959e-06
0.00130475
0.0019533
0.00117436
0.00230521
-0.00195631
0.00175885
-0.00049225
0.000219767
0.000953325
5.67938e-07
4.8358e-07
3.09771e-07
4.36268e-07
7.81286e-07
4.83195e-07
-1.49183e-07
7.4107e-07
1.52442e-06
1.34571e-07
1.95147e-06
1.5425e-06
3.89258e-07
8.94784e-07
-0.000172862
0.000352796
-0.00014878
0.00015649
0.000200389
7.65631e-05
3.28167e-05
5.08735e-05
0.000663764
0.000380981
-0.00016991
0.000687773
2.9132e-05
-2.1743e-05
2.51131e-05
-1.60316e-05
-1.58727e-05
1.18474e-05
3.00407e-06
7.06178e-09
1.44829e-08
2.75707e-08
5.18798e-09
6.36959e-08
6.56343e-08
-4.68921e-08
1.3759e-07
1.6509e-07
9.02463e-08
9.92116e-08
6.39222e-08
1.48111e-07
1.35048e-08
2.30118e-07
8.47966e-08
2.28487e-07
3.02127e-07
4.31279e-07
-4.31682e-08
5.0815e-07
-2.15208e-08
5.34583e-07
1.34655e-07
3.12234e-07
5.3238e-06
1.51584e-05
-6.65118e-05
8.5789e-05
5.1906e-06
5.24351e-05
3.0313e-05
2.44255e-05
6.69675e-06
1.28612e-05
1.44545e-05
-0.000611489
0.000938204
0.00102555
0.00196527
0.000707274
0.000184234
-1.40276e-05
0.000306467
0.000181
8.91623e-05
4.35349e-06
-2.15655e-06
8.55786e-06
8.23621e-06
7.37651e-07
3.0159e-06
6.1982e-08
2.19218e-06
2.02893e-06
-2.70184e-05
0.00246855
-0.00111431
0.00259983
0.00226702
0.0005145
0.0010132
-0.00101431
0.000791413
0.00359515
1.00235e-06
9.88951e-07
7.59286e-07
5.30716e-07
5.97242e-08
8.38061e-07
9.95467e-07
9.45316e-07
5.00273e-07
1.07218e-06
-6.13196e-08
1.09075e-06
0.000238689
0.000216262
-4.47406e-05
-6.56116e-05
0.000291402
0.000122964
-3.32511e-05
-2.75858e-05
7.49706e-05
0.000129964
-6.79714e-05
-0.000486139
0.00101589
0.000333291
8.36137e-06
7.22516e-07
-2.15286e-05
1.18953e-05
-8.79887e-07
7.06706e-06
1.22565e-08
-8.13521e-10
2.70868e-08
-6.34121e-08
1.57663e-07
1.03816e-07
8.00049e-08
1.31884e-07
2.08466e-07
6.82157e-08
5.91347e-08
4.19632e-08
4.00408e-08
1.03773e-07
8.80521e-08
2.92386e-07
1.11508e-07
1.837e-07
5.27436e-07
3.97187e-07
2.13889e-07
5.99684e-07
1.19701e-07
5.16048e-07
5.35108e-07
1.82585e-05
6.07481e-06
6.80074e-05
4.94533e-06
3.858e-05
-6.36231e-06
3.28768e-05
1.45726e-05
2.46415e-05
3.83342e-06
8.84821e-06
0.000101503
0.000794164
-0.00012064
0.00116804
0.00185008
-0.00218979
0.00310834
3.52114e-05
0.000128731
0.00026004
-0.00025793
0.000400851
0.00010798
-1.3552e-06
4.68452e-06
5.98595e-06
1.03198e-05
4.9067e-06
2.67977e-06
5.16042e-07
1.55231e-06
2.37258e-06
-0.0024674
0.00296179
0.00341123
0.000729221
0.00176661
-0.000505998
-0.000628014
0.00163767
0.00183173
3.92207e-07
7.66945e-07
2.92854e-07
8.44801e-07
-5.96992e-08
1.04343e-06
7.44911e-07
-1.84068e-11
1.085e-06
-5.92881e-07
1.58484e-06
1.48199e-06
1.13359e-06
1.66771e-06
-0.000113083
0.000385751
0.000182944
0.000100346
0.000212963
6.58374e-05
-8.99841e-05
6.89735e-05
-4.79255e-05
2.76326e-05
-7.82797e-06
0.000562046
-0.000346124
0.000764063
-9.24856e-06
-6.61398e-06
1.15246e-05
3.94734e-05
-1.95992e-05
1.6495e-06
3.0657e-06
8.16125e-09
9.2313e-09
3.00559e-08
1.98224e-07
2.1765e-08
-7.58422e-08
2.2728e-07
3.11332e-07
1.91298e-07
2.12903e-07
1.25863e-07
-1.78837e-08
7.2268e-08
3.51738e-07
1.92962e-07
1.79888e-07
4.5484e-07
3.28668e-07
3.28837e-07
7.09686e-07
6.8692e-07
1.96229e-08
7.66549e-07
5.52229e-08
6.3997e-07
3.16235e-07
3.59933e-07
5.76344e-06
1.03132e-05
0.000103218
6.3668e-05
1.53567e-07
3.43213e-05
2.82292e-05
4.61426e-06
1.77479e-05
1.2583e-05
0.00124493
0.000477288
2.52024e-05
0.00190701
0.00195595
0.00133511
0.000137955
-2.54594e-05
0.000203195
2.71756e-05
0.000288632
8.13715e-05
-3.05028e-06
7.82928e-06
6.14552e-06
1.89149e-06
2.51376e-06
1.30431e-06
1.24538e-06
2.82201e-06
1.75153e-06
0.000340197
0.00338724
0.000274332
0.00374
-0.00161556
0.00274396
0.000464039
-0.00145189
0.00120162
0.000413563
-0.00214571
0.00455065
1.19925e-06
9.70332e-07
1.28511e-06
9.52755e-07
2.09809e-08
1.32894e-06
6.26597e-07
1.1167e-06
8.05095e-07
9.18502e-07
2.21352e-06
9.65154e-07
1.07119e-06
8.92694e-05
-2.89075e-05
0.000223965
0.000157899
-4.74347e-05
0.000276763
-4.54027e-05
0.000107875
-3.38879e-05
7.72315e-05
-4.25964e-06
-2.7788e-06
4.01401e-05
-8.20186e-06
3.81621e-05
-0.000389281
0.00105522
0.00048303
-1.82229e-05
1.33683e-05
-3.62511e-06
-3.10712e-06
-3.86969e-07
3.69726e-06
8.46533e-06
-3.23822e-06
1.04591e-08
-2.09753e-08
3.65371e-08
3.12772e-07
1.61379e-07
2.46411e-07
4.48304e-07
1.28739e-07
1.30049e-07
7.87498e-08
8.7661e-08
4.65127e-08
4.04014e-08
2.12889e-07
2.33099e-07
3.01269e-07
2.86962e-07
7.87118e-07
3.14258e-07
5.42752e-07
-2.26675e-07
1.19657e-06
1.03796e-06
1.19072e-06
1.32864e-05
7.9454e-05
1.25736e-05
3.09447e-05
2.55828e-05
1.37288e-05
1.77147e-05
1.12451e-05
1.45875e-05
5.63641e-06
1.02507e-05
4.17947e-06
7.17871e-06
0.000557923
0.000642284
0.000475377
-3.27568e-05
0.00203611
0.000314677
0.00155045
-0.00156362
0.00314766
9.2635e-05
3.45582e-05
0.000161748
0.000289955
0.000532902
3.60487e-06
3.4961e-06
9.21261e-06
4.9991e-06
3.62191e-06
1.87735e-06
1.12235e-06
1.23012e-06
6.0935e-07
-0.00256427
0.00352716
0.00417455
0.00222321
0.000697273
-0.00138504
0.00211507
7.97226e-06
-0.000676808
0.00122672
0.00338237
5.73098e-07
1.0141e-06
1.93661e-06
-3.10306e-09
1.68377e-06
1.26796e-06
1.70564e-08
1.68813e-06
2.00267e-06
2.28458e-06
9.12273e-07
1.65908e-06
2.24063e-06
2.52282e-06
0.000420806
0.000148692
0.000210482
7.00001e-05
4.89269e-05
-5.56313e-05
5.72936e-05
-1.93471e-05
2.10864e-05
-2.65258e-05
2.25481e-05
-1.22617e-05
0.000501566
-0.000155144
0.000674424
7.49999e-06
1.52148e-05
-1.40195e-05
1.26772e-06
2.38824e-06
7.58907e-09
7.87827e-09
2.1444e-08
2.67898e-08
-1.9569e-07
6.63044e-07
6.79221e-07
3.81607e-07
4.14861e-07
2.54433e-07
1.65893e-07
7.54129e-08
-2.86066e-07
6.41892e-07
7.29293e-07
8.06747e-07
-1.53384e-07
9.19145e-07
1.3473e-06
-1.2759e-07
1.50032e-06
6.52619e-07
8.77631e-07
4.41064e-06
7.78571e-06
3.50881e-05
3.84172e-05
9.64549e-05
4.16122e-05
5.48721e-05
2.75358e-05
1.81882e-05
1.3946e-05
1.39209e-05
0.000865071
0.000575741
-0.000925462
0.00316087
0.000795371
0.000727446
0.00238519
-0.000117174
0.000144432
3.20471e-05
0.000187533
8.03202e-05
0.00025169
0.000245466
-2.91939e-06
5.94555e-06
5.68387e-06
2.37272e-06
2.6165e-06
1.97402e-06
1.66216e-06
2.6496e-06
3.25972e-06
0.00438377
-0.000201296
0.00205452
0.00275496
0.00474458
-0.00176673
0.00284655
0.000695909
-0.000897828
0.00107704
0.000430586
0.00410625
-0.000194661
2.37656e-06
2.08357e-06
1.44295e-06
1.21889e-07
2.06591e-06
-1.32473e-07
2.57919e-06
4.53138e-07
2.22927e-06
-5.57552e-07
2.9416e-06
7.04584e-07
2.02578e-06
4.63262e-07
2.58347e-06
0.000497242
-6.61819e-05
8.63069e-06
0.000138053
0.000237051
-2.39836e-05
0.000106964
-3.02058e-05
-1.93828e-05
7.24989e-05
3.92729e-05
-1.14311e-06
-2.55468e-06
2.68411e-05
-1.80882e-06
1.74781e-05
-0.00033142
0.00089136
0.000403473
0.000411074
-3.95118e-06
2.42899e-06
2.67931e-07
6.60321e-06
4.1701e-08
1.08199e-08
5.0257e-07
4.84784e-07
4.21625e-07
1.08414e-06
1.12908e-07
3.92644e-07
4.74622e-07
-8.32505e-09
2.09217e-07
9.63119e-08
5.38068e-07
2.67861e-07
1.74828e-07
7.84442e-07
1.8029e-06
1.32493e-06
2.39067e-07
1.4986e-06
4.13833e-07
1.37644e-06
1.58892e-06
-5.35459e-05
8.84809e-05
3.73073e-05
1.96479e-05
1.97822e-05
2.72413e-05
2.48444e-05
1.10301e-05
1.51586e-05
7.17264e-06
1.0223e-05
2.06785e-05
1.35482e-06
1.19253e-05
0.000316829
0.000520611
0.000874303
0.000951367
0.00218016
0.00176779
0.00124748
-0.00161239
0.00434287
0.000108202
2.86711e-05
0.000207371
0.000315938
-0.000259237
0.000481322
4.61217e-06
1.26978e-06
6.67585e-06
7.08562e-06
4.39254e-06
2.97168e-06
-4.85403e-07
4.28852e-06
0.00148114
0.00391905
-0.00252995
0.00281435
0.00503516
0.00517646
0.000538777
0.000678806
0.00215108
-0.00120069
0.00143168
-0.000271707
-0.000447516
0.000939891
0.00278952
0.00551624
1.04467e-06
2.04806e-06
4.28873e-07
2.23304e-06
2.10471e-06
-2.10717e-07
2.79561e-06
3.45808e-06
2.37195e-06
4.25781e-06
2.91165e-06
1.68092e-06
1.57906e-06
0.000195098
-6.6694e-05
8.20697e-05
0.000125396
3.8333e-05
4.3882e-05
5.39114e-06
3.6161e-05
1.09814e-05
-9.25206e-06
-1.34825e-05
1.33757e-05
-1.77657e-05
1.84997e-05
-1.2122e-05
3.28029e-05
0.000533204
0.000380304
1.56666e-05
-0.000158433
0.000575921
5.16939e-06
2.33187e-06
1.21191e-08
4.11815e-08
3.4371e-08
-5.19013e-07
1.29252e-06
1.47978e-06
8.87003e-07
1.13947e-06
3.13568e-08
5.01722e-07
3.08819e-07
1.70784e-07
1.81368e-06
1.72824e-06
6.67324e-07
-1.67277e-07
2.01735e-06
2.38821e-06
1.7438e-06
5.96111e-08
1.72015e-06
1.56247e-06
4.60507e-07
4.14952e-05
4.35335e-05
0.000141248
2.98089e-05
4.58807e-05
6.46444e-05
2.48063e-05
8.31377e-06
1.17239e-05
2.99735e-06
8.51726e-06
0.000566534
-3.88542e-06
0.00226269
0.000745002
0.000986158
0.000460515
0.000741699
0.00272679
0.00182617
-0.000133144
0.000156617
6.37067e-05
0.000190404
0.000106814
0.000208403
0.000248504
7.96203e-06
3.03203e-06
4.27659e-06
4.40106e-06
-4.65696e-07
3.9765e-06
4.28716e-06
-0.00150565
0.00615693
0.00472389
-0.00147621
0.00641769
-0.00175118
0.00270839
0.000698584
0.000407557
0.000750882
-0.00248158
0.00583249
0.00388838
3.42886e-06
3.01467e-06
2.44127e-06
2.65911e-06
2.1544e-06
1.26225e-06
1.34678e-06
2.66052e-06
4.32041e-06
2.86014e-06
2.3039e-06
2.07651e-06
1.54255e-06
4.31441e-06
0.000243723
-5.04611e-05
-1.15734e-05
9.21663e-05
0.000147971
-2.52537e-05
5.97423e-05
-2.0013e-05
-1.17761e-05
5.89112e-05
-1.86798e-05
2.66067e-05
2.44827e-05
-8.26039e-07
-8.27265e-06
3.48892e-07
-2.30024e-06
7.45785e-06
3.72083e-05
-1.7916e-06
-0.000267989
0.000826995
0.000244097
-0.000239979
0.000266218
0.00035389
-1.50484e-06
3.23725e-06
1.63896e-07
4.17054e-08
1.82663e-06
2.64871e-07
3.34064e-06
8.61648e-07
5.12982e-07
2.11441e-07
3.52562e-07
1.77665e-07
1.71659e-07
9.91342e-08
8.8475e-08
1.82087e-06
4.79206e-07
2.72042e-06
2.85746e-06
1.67355e-06
1.41128e-06
4.14873e-06
2.60003e-06
-5.10179e-05
9.35122e-05
8.50476e-05
4.64858e-06
2.47215e-05
5.05775e-05
-1.77644e-05
8.23986e-05
1.58681e-05
8.4564e-06
2.44105e-05
1.45365e-05
-4.02662e-07
9.00602e-06
2.32879e-06
0.000537573
0.00278674
0.000580878
0.00167141
0.00119591
0.00158075
0.000718742
-0.0015583
0.00358944
0.000209245
-5.51284e-05
0.000246173
0.000302414
-0.00018231
0.00041576
7.63784e-06
-3.79125e-06
7.33965e-06
2.96772e-07
4.33943e-06
5.20837e-06
1.3273e-06
3.20634e-06
3.23824e-06
1.92808e-06
0.00407463
0.00389042
0.00314265
0.00170024
0.000854243
0.00680793
0.00206146
-0.00117475
-0.00108025
0.00164074
-0.000269361
0.00451253
-0.00264464
0.00750977
1.63368e-06
2.76812e-06
1.05105e-06
2.65976e-06
2.83745e-06
5.17173e-07
7.53214e-07
2.78689e-06
3.62333e-06
4.83886e-06
-3.82648e-07
3.83742e-06
8.8631e-08
5.42857e-06
-1.54457e-06
5.83103e-06
4.58774e-06
3.43217e-06
2.12129e-06
-3.98514e-06
0.000100803
5.00473e-05
7.21396e-05
3.95997e-05
1.82008e-05
9.42992e-06
1.78619e-05
3.84019e-05
-6.47756e-06
7.13272e-06
5.77112e-06
-4.13475e-06
-8.80854e-06
8.03165e-06
1.60393e-05
-6.60547e-06
1.50926e-05
0.000665946
-0.000150069
0.000384225
0.000112039
-0.000210538
0.0005529
2.74199e-06
1.29549e-06
1.62622e-08
3.87204e-08
2.03095e-06
1.86336e-06
1.2234e-06
2.6951e-06
5.93691e-07
3.19781e-07
1.18475e-07
2.95646e-06
3.77644e-06
6.99462e-08
-2.30669e-06
6.71808e-06
6.31791e-06
3.08272e-06
4.80059e-07
2.78594e-06
7.42177e-05
-5.93387e-05
0.000143062
3.33541e-05
2.94724e-05
2.05122e-05
3.5379e-05
4.53855e-05
1.19536e-05
1.24099e-05
5.64206e-06
9.19435e-06
3.66848e-06
5.82728e-06
0.000333326
0.000513577
0.00241349
-3.48648e-05
0.00173489
0.000602587
0.000567486
0.000718063
0.000839424
0.000397186
0.000300312
0.00285916
0.000951412
0.000145023
0.000184406
-8.95569e-06
0.000303563
0.000398563
4.43932e-06
3.53551e-07
7.74728e-06
5.33703e-06
4.64836e-06
1.77337e-06
5.15125e-06
3.53747e-06
7.75806e-06
0.000270659
0.00427648
0.00549343
-0.00198386
0.00575303
-0.0016616
0.00366069
0.00518106
0.000603006
0.000606038
0.00241898
0.00240744
0.00568493
0.00281006
6.15347e-06
4.58366e-06
4.05625e-06
3.91623e-06
-5.02625e-07
5.40586e-06
5.71589e-06
4.78105e-06
5.57625e-06
-1.28994e-06
8.69504e-06
4.76795e-06
8.34341e-06
-0.000131768
0.000136619
-3.8591e-05
5.73361e-05
-9.29568e-06
9.39336e-05
-2.61015e-05
3.51874e-05
4.96141e-06
2.06635e-05
-7.55061e-07
-3.54935e-06
2.29218e-05
1.58377e-05
2.17353e-05
2.23678e-07
-6.5538e-07
-6.20986e-07
1.16219e-05
-2.28263e-06
5.92051e-06
1.54279e-05
1.21959e-06
-0.000290221
0.000942172
0.000179353
-0.000143436
0.000232427
0.000271867
1.6142e-06
4.701e-08
-1.68079e-06
4.2424e-06
8.52186e-08
1.23064e-06
2.95135e-06
1.77749e-07
7.94868e-07
1.87006e-08
3.13124e-07
1.52871e-07
-1.52455e-06
5.32859e-06
3.71673e-06
5.74339e-06
4.27801e-06
3.56392e-06
8.88811e-06
-4.10558e-05
0.000116886
0.000100473
4.77318e-06
2.84931e-05
3.46119e-05
5.64957e-05
-2.2546e-05
6.89171e-05
1.81923e-05
-1.13121e-05
2.464e-05
1.35875e-05
1.10534e-05
0.000722245
0.00351771
0.002405
0.000803755
0.000933645
0.000893135
0.00128498