/*--------------------------------*- C++ -*----------------------------------*\
| =========                 |                                                 |
| \\      /  F ield         | OpenFOAM: The Open Source CFD Toolbox           |
|  \\    /   O peration     | Version:  v2012                                 |
|   \\  /    A nd           | Website:  www.openfoam.com                      |
|    \\/     M anipulation  |                                                 |
\*---------------------------------------------------------------------------*/
FoamFile
{
    version     2.0;
    format      ascii;
    class       pointVectorField;
    location    "0.04";
    object      pointDisplacement;
}
// * * * * * * * * * * * * * * * * * * * * * * * * * * * * * * * * * * * * * //

dimensions      [0 1 0 0 0 0 0];


internalField   nonuniform List<vector> 
14482
(
(0 0 0)
(0 0 0)
(0 0 0)
(0 0 0)
(0 0 0)
(0 0 0)
(0 0 0)
(0 0 0)
(0 0 0)
(0 0 0)
(0 0 0)
(0 0 0)
(0 0 0)
(0 0 0)
(0 0 0)
(0 0 0)
(0 0 0)
(0 0 0)
(0 0 0)
(0 0 0)
(0 0 0)
(0 0 0)
(0 0 0)
(0 0 0)
(0 0 0)
(0 0 0)
(0 0 0)
(0 0 0)
(0 0 0)
(0 0 0)
(0 0 0)
(0 0 0)
(0 0 0)
(0 0 0)
(0 0 0)
(0 0 0)
(0 0 0)
(0 0 0)
(0 0 0)
(0 0 0)
(0 0 0)
(0 0 0)
(0 0 0)
(0 0 0)
(0 0 0)
(0 0 0)
(0 0 0)
(0 0 0)
(0 0 0)
(0 0 0)
(0 0 0)
(0 0 0)
(0 0 0)
(0 0 0)
(0 0 0)
(0 0 0)
(0 0 0)
(0 0 0)
(0 0 0)
(0 0 0)
(0 0 0)
(0 0 0)
(0 0 0)
(0 0 0)
(0 0 0)
(0 0 0)
(0 0 0)
(0 0 0)
(0 0 0)
(0 0 0)
(0 0 0)
(0 0 0)
(0 0 0)
(0 0 0)
(0 0 0)
(0 0 0)
(0 0 0)
(0 0 0)
(0 0 0)
(0 0 0)
(0 0 0)
(0 0 0)
(0 0 0)
(0.000853455 -0.0206397 0)
(0.00087765 -0.0206344 0)
(0.000903709 -0.0206285 0)
(0.000931776 -0.0206223 0)
(0.000962002 -0.0206155 0)
(0.000994553 -0.0206083 0)
(0.0010296 -0.0206005 0)
(0.00106735 -0.0205921 0)
(0.00110798 -0.020583 0)
(0.00115174 -0.0205732 0)
(0.00119884 -0.0205627 0)
(0.00124953 -0.0205514 0)
(0.0013041 -0.0205393 0)
(0.00135845 -0.0205137 0)
(0.00141652 -0.0204851 0)
(0.001479 -0.0204543 0)
(0.00154291 -0.0204152 0)
(0.00161082 -0.0203717 0)
(0.00168087 -0.0203207 0)
(0.00175455 -0.0202635 0)
(0.00183026 -0.0201978 0)
(0.00190847 -0.0201236 0)
(0.00198923 -0.0200406 0)
(0.00207232 -0.0199478 0)
(0.00215763 -0.0198448 0)
(0.00224448 -0.0197303 0)
(0.0023334 -0.0196042 0)
(0.0024239 -0.0194655 0)
(0.00251608 -0.0193134 0)
(0.00260961 -0.0191472 0)
(0.00270437 -0.0189659 0)
(0.00280033 -0.0187686 0)
(0.00289734 -0.0185545 0)
(0.00299523 -0.0183224 0)
(0.00309379 -0.0180714 0)
(0.0031929 -0.0178002 0)
(0.00329238 -0.0175079 0)
(0.00339207 -0.0171931 0)
(0.00349173 -0.0168547 0)
(0.00359114 -0.0164913 0)
(0.00369 -0.0161015 0)
(0.00378807 -0.0156841 0)
(0.00388503 -0.0152376 0)
(0.00398051 -0.0147605 0)
(0.00407417 -0.0142514 0)
(0.00416561 -0.013709 0)
(0.00425439 -0.0131316 0)
(0.00434002 -0.0125178 0)
(0.00442205 -0.0118664 0)
(0.00449994 -0.0111759 0)
(0.00457313 -0.0104449 0)
(0.00464107 -0.0096724 0)
(0.00470315 -0.00885714 0)
(0.00475877 -0.00799823 0)
(0.00480733 -0.00709479 0)
(0.0048482 -0.00614618 0)
(0.00488077 -0.00515186 0)
(0.00490447 -0.00411175 0)
(0.00491872 -0.00302564 0)
(0.00492302 -0.00189387 0)
(0.00491687 -0.000716974 0)
(0.00489987 0.000504217 0)
(0.00487165 0.00176861 0)
(0.00483196 0.00307462 0)
(0.00478061 0.0044206 0)
(0.00471753 0.00580429 0)
(0.00464271 0.00722323 0)
(0.00455627 0.00867476 0)
(0.00445847 0.0101556 0)
(0.00434961 0.0116625 0)
(0.00423014 0.0131918 0)
(0.00410057 0.0147397 0)
(0.00396154 0.0163019 0)
(0.00381373 0.0178745 0)
(0.00365793 0.0194528 0)
(0.00349494 0.0210328 0)
(0.00332565 0.0226097 0)
(0.00315093 0.0241795 0)
(0.0029717 0.0257377 0)
(0.00278889 0.0272801 0)
(0.00260338 0.0288028 0)
(0.00241608 0.030302 0)
(0.00222783 0.0317741 0)
(0.00203946 0.0332159 0)
(0.00185173 0.0346244 0)
(0.00166538 0.0359969 0)
(0.00148106 0.0373312 0)
(0.0012994 0.0386252 0)
(0.00112093 0.0398772 0)
(0.000946167 0.0410859 0)
(0.000775512 0.0422504 0)
(0.000609363 0.0433699 0)
(0.000448009 0.044444 0)
(0.000291727 0.0454727 0)
(0.000140714 0.046456 0)
(-4.86513e-06 0.0473943 0)
(-0.000144906 0.0482882 0)
(-0.000279332 0.0491383 0)
(-0.00040812 0.0499457 0)
(-0.000531272 0.0507113 0)
(-0.000648819 0.0514365 0)
(-0.000760837 0.0521223 0)
(-0.00086741 0.0527702 0)
(-0.000968642 0.0533816 0)
(-0.00106467 0.0539578 0)
(-0.00115564 0.0545004 0)
(-0.00124169 0.0550107 0)
(-0.001323 0.0554905 0)
(-0.00139975 0.0559409 0)
(-0.0014721 0.0563636 0)
(-0.00154023 0.0567598 0)
(-0.00160434 0.0571311 0)
(-0.00166461 0.0574787 0)
(-0.00172121 0.057804 0)
(-0.00177433 0.0581082 0)
(-0.00182415 0.0583926 0)
(-0.00187083 0.0586583 0)
(-0.00191455 0.0589063 0)
(-0.00195546 0.0591378 0)
(-0.00199373 0.0593538 0)
(-0.00202951 0.0595553 0)
(-0.00206293 0.059743 0)
(-0.00209415 0.0599181 0)
(-0.00212329 0.0600812 0)
(-0.00215048 0.0602331 0)
(-0.00217585 0.0603745 0)
(-0.0021995 0.0605063 0)
(-0.00222154 0.0606288 0)
(-0.00224208 0.0607428 0)
(-0.00226121 0.0608489 0)
(-0.00227903 0.0609476 0)
(-0.00229562 0.0610394 0)
(-0.00231106 0.0611247 0)
(-0.00232543 0.0612041 0)
(-0.0023388 0.0612778 0)
(-0.00235124 0.0613464 0)
(-0.00236281 0.0614101 0)
(-0.00237356 0.0614693 0)
(-0.00238356 0.0615243 0)
(-0.00239286 0.0615754 0)
(-0.0024015 0.0616229 0)
(-0.00240953 0.061667 0)
(-0.002417 0.061708 0)
(-0.00242394 0.061746 0)
(-0.00243038 0.0617813 0)
(-0.00243636 0.0618141 0)
(-0.00244192 0.0618446 0)
(-0.00244709 0.0618729 0)
(-0.00245189 0.0618992 0)
(-0.00245634 0.0619235 0)
(-0.00248111 0.0619225 0)
(-0.00250301 0.0619216 0)
(-0.00252306 0.0619208 0)
(-0.00254198 0.06192 0)
(-0.00256036 0.0619192 0)
(-0.00257875 0.0619185 0)
(-0.00259767 0.0619177 0)
(-0.00261772 0.0619169 0)
(-0.00263962 0.061916 0)
(-0.00266439 0.0619149 0)
(-0.00266681 0.0618903 0)
(-0.00266943 0.0618637 0)
(-0.00267224 0.0618351 0)
(-0.00267526 0.0618042 0)
(-0.00267852 0.061771 0)
(-0.00268203 0.0617353 0)
(-0.0026858 0.0616969 0)
(-0.00268985 0.0616554 0)
(-0.00269422 0.0616108 0)
(-0.00269891 0.0615628 0)
(-0.00270396 0.061511 0)
(-0.00270938 0.0614554 0)
(-0.00271521 0.0613955 0)
(-0.00272148 0.0613311 0)
(-0.00272821 0.0612617 0)
(-0.00273545 0.0611871 0)
(-0.00274322 0.0611068 0)
(-0.00275157 0.0610206 0)
(-0.00276052 0.0609277 0)
(-0.00277013 0.0608279 0)
(-0.00278044 0.0607206 0)
(-0.00279149 0.0606052 0)
(-0.00280334 0.0604813 0)
(-0.00281604 0.060348 0)
(-0.00282964 0.060205 0)
(-0.0028442 0.0600514 0)
(-0.00285978 0.0598865 0)
(-0.00287643 0.0597094 0)
(-0.00289425 0.0595195 0)
(-0.00291327 0.0593158 0)
(-0.00293357 0.0590974 0)
(-0.00295523 0.0588633 0)
(-0.00297832 0.0586125 0)
(-0.00300291 0.0583438 0)
(-0.00302908 0.0580564 0)
(-0.00305691 0.0577488 0)
(-0.00308646 0.0574199 0)
(-0.00311782 0.0570686 0)
(-0.00315106 0.0566932 0)
(-0.00318625 0.0562927 0)
(-0.00322346 0.0558655 0)
(-0.00326276 0.0554103 0)
(-0.00330418 0.0549255 0)
(-0.00334781 0.0544098 0)
(-0.00339366 0.0538615 0)
(-0.00344179 0.0532793 0)
(-0.00349221 0.0526617 0)
(-0.00354492 0.0520072 0)
(-0.00359994 0.0513144 0)
(-0.00365722 0.0505821 0)
(-0.00371674 0.0498089 0)
(-0.00377843 0.0489936 0)
(-0.00384221 0.0481353 0)
(-0.00390797 0.0472329 0)
(-0.00397559 0.0462858 0)
(-0.00404491 0.0452934 0)
(-0.00411574 0.0442553 0)
(-0.00418786 0.0431715 0)
(-0.00426102 0.0420421 0)
(-0.00433495 0.0408676 0)
(-0.00440933 0.0396485 0)
(-0.00448382 0.038386 0)
(-0.00455803 0.0370815 0)
(-0.00463156 0.0357366 0)
(-0.00470396 0.0343533 0)
(-0.00477476 0.0329341 0)
(-0.00484346 0.0314817 0)
(-0.00490953 0.0299991 0)
(-0.00497243 0.0284895 0)
(-0.00503158 0.0269567 0)
(-0.00508643 0.0254045 0)
(-0.00513641 0.0238368 0)
(-0.00518093 0.022258 0)
(-0.00521945 0.0206724 0)
(-0.00525144 0.0190844 0)
(-0.00527641 0.0174986 0)
(-0.00529388 0.0159192 0)
(-0.00530346 0.0143508 0)
(-0.0053048 0.0127976 0)
(-0.00529761 0.0112636 0)
(-0.00528169 0.00975284 0)
(-0.0052569 0.00826898 0)
(-0.0052232 0.00681527 0)
(-0.00518062 0.005395 0)
(-0.00512925 0.00401082 0)
(-0.0050693 0.00266521 0)
(-0.00500103 0.00136037 0)
(-0.00492477 9.79679e-05 0)
(-0.00484089 -0.00112046 0)
(-0.00474986 -0.00229385 0)
(-0.00465214 -0.00342139 0)
(-0.00454827 -0.00450262 0)
(-0.00443877 -0.00553722 0)
(-0.00432422 -0.00652546 0)
(-0.00420518 -0.00746746 0)
(-0.0040822 -0.0083638 0)
(-0.00395585 -0.00921519 0)
(-0.00382669 -0.0100225 0)
(-0.0036952 -0.0107868 0)
(-0.00356191 -0.0115092 0)
(-0.00342728 -0.012191 0)
(-0.00329175 -0.0128334 0)
(-0.00315574 -0.013438 0)
(-0.00301959 -0.0140061 0)
(-0.00288368 -0.0145392 0)
(-0.00274831 -0.0150387 0)
(-0.00261377 -0.0155063 0)
(-0.00248027 -0.0159433 0)
(-0.00234808 -0.0163512 0)
(-0.00221738 -0.0167314 0)
(-0.0020883 -0.0170854 0)
(-0.00196104 -0.0174145 0)
(-0.00183571 -0.0177199 0)
(-0.00171243 -0.0180031 0)
(-0.00159128 -0.0182651 0)
(-0.00147233 -0.0185071 0)
(-0.00135562 -0.0187303 0)
(-0.00124126 -0.0189357 0)
(-0.00112934 -0.0191244 0)
(-0.00101993 -0.0192973 0)
(-0.000912992 -0.0194552 0)
(-0.000808579 -0.0195991 0)
(-0.000706932 -0.0197299 0)
(-0.000607901 -0.0198483 0)
(-0.000511898 -0.0199552 0)
(-0.000418371 -0.0200508 0)
(-0.000327915 -0.0201364 0)
(-0.000240571 -0.0202125 0)
(-0.000156504 -0.0202799 0)
(-7.56199e-05 -0.0203392 0)
(2.52669e-06 -0.0203901 0)
(7.6554e-05 -0.0204352 0)
(0.000147819 -0.0204729 0)
(0.000214731 -0.0205065 0)
(0.000279544 -0.0205321 0)
(0.00033978 -0.0205559 0)
(0.000396049 -0.0205768 0)
(0.000451437 -0.0205844 0)
(0.000502896 -0.0205915 0)
(0.000550702 -0.0205981 0)
(0.000595109 -0.0206042 0)
(0.000636356 -0.0206099 0)
(0.000674664 -0.0206151 0)
(0.000710241 -0.02062 0)
(0.00074328 -0.0206246 0)
(0.00077396 -0.0206288 0)
(0.000802447 -0.0206327 0)
(0.000828897 -0.0206364 0)
(2.19949e-05 0.000265995 0)
(2.42629e-05 0.000339165 0)
(1.65404e-05 0.000221076 0)
(8.05071e-06 0.000124552 0)
(7.46285e-06 0.000101349 0)
(1.12918e-05 0.000153589 0)
(-9.00853e-08 1.40323e-05 0)
(2.07373e-07 1.6953e-05 0)
(-2.78361e-07 2.11844e-05 0)
(1.02226e-05 8.55452e-05 0)
(1.69997e-05 0.000131079 0)
(1.47509e-05 0.000128297 0)
(0.000353206 0.00385849 0)
(0.000466822 0.00462058 0)
(0.000443046 0.00533491 0)
(2.93945e-05 0.000266432 0)
(4.96005e-05 0.000425587 0)
(3.51764e-05 0.000344961 0)
(1.18994e-05 0.000413286 0)
(1.56651e-05 0.000546099 0)
(1.01419e-05 0.000439997 0)
(1.34311e-05 0.000347751 0)
(2.13375e-05 0.000525001 0)
(1.33756e-05 0.000391433 0)
(-2.50864e-06 9.97575e-05 0)
(-5.14956e-06 0.000152766 0)
(-4.53744e-06 0.000120588 0)
(8.68518e-07 1.04615e-05 0)
(8.79748e-07 1.25298e-05 0)
(5.82696e-07 8.24329e-06 0)
(2.88526e-05 0.000203748 0)
(5.04312e-05 0.000345218 0)
(3.53515e-05 0.000279282 0)
(0.000390526 0.00345827 0)
(0.000549301 0.00453263 0)
(0.000241726 0.00472749 0)
(0.000194726 0.00349943 0)
(0.000264332 0.0042561 0)
(0.000110268 0.000824361 0)
(0.000137041 0.000843889 0)
(0.000154882 0.00107399 0)
(1.09436e-05 0.000545548 0)
(6.74534e-06 0.00048281 0)
(6.26977e-06 0.000395535 0)
(6.93111e-07 0.000159499 0)
(-6.94662e-07 0.00019945 0)
(-1.2669e-06 0.000169036 0)
(3.16589e-06 7.83964e-05 0)
(1.59857e-06 5.34496e-05 0)
(2.52502e-06 5.47509e-05 0)
(1.1191e-08 1.51908e-07 0)
(3.09246e-09 1.03698e-07 0)
(8.51443e-09 1.06733e-07 0)
(3.18706e-06 1.9227e-05 0)
(3.01129e-06 1.98966e-05 0)
(1.84426e-06 1.17505e-05 0)
(1.82656e-06 1.27064e-05 0)
(8.13658e-06 4.28563e-05 0)
(6.07607e-06 2.90668e-05 0)
(9.53592e-06 4.52434e-05 0)
(0.000535472 0.00251132 0)
(0.000424561 0.00226382 0)
(0.000390312 0.00175911 0)
(0.00110777 0.00710331 0)
(0.0010018 0.00749955 0)
(0.000880101 0.00594815 0)
(0.000452457 0.0126478 0)
(0.000352363 0.0112014 0)
(0.000385073 0.0102474 0)
(1.96266e-05 7.84775e-05 0)
(2.70747e-05 9.27228e-05 0)
(3.01405e-05 0.000127886 0)
(0.000202396 0.000357945 0)
(0.000277922 0.000495836 0)
(0.000229477 0.000527049 0)
(2.96521e-06 0.000779697 0)
(6.79537e-06 0.00101589 0)
(3.58242e-06 0.0009477 0)
(-6.84682e-06 0.00116438 0)
(-9.63325e-06 0.00120466 0)
(-7.2393e-06 0.00108467 0)
(-1.16782e-05 0.000554623 0)
(-8.44546e-06 0.000493751 0)
(-1.43809e-05 0.000698247 0)
(-8.25987e-05 0.00312625 0)
(-5.50308e-05 0.0022099 0)
(-8.19038e-05 0.00330762 0)
(-2.2864e-05 0.000562951 0)
(-2.23007e-05 0.00060488 0)
(-3.21129e-05 0.000820812 0)
(-8.54156e-06 0.000100045 0)
(-5.81936e-06 7.4367e-05 0)
(-9.52454e-06 0.000120886 0)
(-2.2573e-06 3.69427e-05 0)
(-2.43011e-06 3.4194e-05 0)
(-1.57917e-06 2.47709e-05 0)
(-5.86456e-09 1.30654e-06 0)
(5.00173e-08 1.59906e-06 0)
(-4.05463e-09 1.98707e-06 0)
(1.07686e-06 7.88824e-06 0)
(5.44712e-07 4.22105e-06 0)
(6.20087e-07 4.49301e-06 0)
(8.50812e-07 4.39735e-06 0)
(8.404e-07 4.7145e-06 0)
(5.79316e-07 3.13988e-06 0)
(3.47223e-06 1.42443e-05 0)
(2.75719e-06 1.25839e-05 0)
(2.20107e-06 8.95788e-06 0)
(5.90732e-06 1.4624e-05 0)
(4.22353e-06 1.24942e-05 0)
(3.4398e-06 7.76935e-06 0)
(0.000977852 0.00412936 0)
(0.00113582 0.00345434 0)
(0.00130947 0.0047698 0)
(0.000787598 0.0138436 0)
(0.000802474 0.0118443 0)
(0.00095172 0.014609 0)
(0.00125009 0.00577345 0)
(0.00148601 0.00766018 0)
(0.00123545 0.00682718 0)
(0.000478989 0.0107641 0)
(0.000555613 0.00998705 0)
(0.000632946 0.0126089 0)
(0.000130931 0.00691586 0)
(0.000130274 0.0087715 0)
(9.33492e-05 0.00678141 0)
(9.84591e-05 -2.63522e-05 0)
(7.24958e-05 -1.63399e-05 0)
(9.20891e-05 -6.01865e-05 0)
(0.000486001 -0.000379073 0)
(0.000710913 -0.000485977 0)
(0.000578624 -0.000168693 0)
(1.84123e-05 0.00282384 0)
(1.84213e-05 0.00386352 0)
(1.16847e-05 0.0029789 0)
(9.99873e-05 0.00897772 0)
(0.000123713 0.0109974 0)
(-1.99039e-05 0.0012998 0)
(-2.86967e-05 0.00180251 0)
(-2.96507e-05 0.00174551 0)
(-0.000192429 0.00772595 0)
(-0.000126251 0.00548227 0)
(-0.000166623 0.00709917 0)
(-2.51812e-05 0.000495718 0)
(-2.34654e-05 0.00051754 0)
(-3.31943e-05 0.000685429 0)
(-8.35682e-06 0.000125716 0)
(-1.34349e-05 0.000210775 0)
(-1.21142e-05 0.000167871 0)
(-3.20687e-06 2.66988e-05 0)
(-4.14056e-06 3.21327e-05 0)
(-2.14397e-06 1.69992e-05 0)
(-2.51544e-08 2.93858e-07 0)
(-1.36128e-08 2.46689e-07 0)
(-2.76039e-08 3.76206e-07 0)
(1.2302e-08 9.98437e-08 0)
(6.44002e-09 5.76317e-08 0)
(1.0177e-08 8.06042e-08 0)
(1.95807e-07 1.33709e-06 0)
(3.53115e-07 2.35463e-06 0)
(2.86625e-07 1.99047e-06 0)
(3.00379e-07 2.16474e-06 0)
(5.13557e-07 3.55853e-06 0)
(1.80763e-06 9.88286e-06 0)
(2.11224e-06 1.23939e-05 0)
(1.31481e-06 7.73705e-06 0)
(3.48729e-07 1.11144e-06 0)
(6.20461e-07 2.12373e-06 0)
(3.94198e-07 1.42509e-06 0)
(1.21568e-06 6.61862e-06 0)
(0.00143022 0.00396145 0)
(0.00161101 0.00530446 0)
(0.00152849 0.00203636 0)
(0.00154395 0.00302307 0)
(0.00122511 0.00194184 0)
(0.00146897 0.01995 0)
(0.00127435 0.0177529 0)
(0.00137508 0.0165519 0)
(0.00237941 0.0179821 0)
(0.00244473 0.0163428 0)
(0.00262608 0.018971 0)
(0.000921649 0.0168505 0)
(0.000167196 0.0111375 0)
(0.000203231 0.014426 0)
(0.000152218 0.0130326 0)
(0.000324391 -0.000841049 0)
(0.000231001 -0.000606278 0)
(0.000258572 -0.000791772 0)
(0.000264973 -0.000177173 0)
(0.000229159 -0.000251918 0)
(0.000335268 -0.000359797 0)
(0.000391849 -0.000795903 0)
(0.000519455 -0.00119212 0)
(0.000554869 -0.00100123 0)
(-1.9283e-05 0.0114527 0)
(-2.11815e-05 0.00957447 0)
(4.51905e-06 0.00871761 0)
(-8.61528e-07 0.00223037 0)
(-2.12572e-06 0.00310494 0)
(-6.52977e-06 0.00294795 0)
(6.11181e-06 0.0134434 0)
(3.25513e-05 0.0149621 0)
(-2.10338e-05 0.0172027 0)
(-2.19793e-07 0.000661377 0)
(-3.40181e-06 0.000722726 0)
(-2.49087e-06 0.000628023 0)
(-9.6378e-05 0.00556534 0)
(-7.35769e-05 0.00447592 0)
(-0.000114142 0.00633753 0)
(-0.00018209 0.00700608 0)
(-0.000224281 0.00809397 0)
(-0.000167042 0.0061303 0)
(-0.000146652 0.00300476 0)
(-0.000182801 0.00330684 0)
(-0.000117912 0.00220934 0)
(-8.47354e-05 0.000877382 0)
(-7.82921e-05 0.000904209 0)
(-0.000104192 0.0011634 0)
(-1.15723e-05 0.000126561 0)
(-1.86244e-05 0.000197752 0)
(-1.25006e-05 0.000126227 0)
(-1.36965e-05 0.000172406 0)
(-1.28578e-05 0.000150071 0)
(-2.32616e-06 2.05053e-05 0)
(-3.96259e-06 3.49553e-05 0)
(-4.5731e-07 3.54893e-06 0)
(-2.47651e-07 1.89907e-06 0)
(-2.51074e-07 1.9763e-06 0)
(5.98703e-09 5.01813e-08 0)
(1.20023e-08 9.03764e-08 0)
(5.40981e-07 3.43628e-06 0)
(2.96136e-07 1.88018e-06 0)
(3.54791e-08 2.61559e-07 0)
(3.99493e-08 2.861e-07 0)
(7.81621e-08 5.66717e-07 0)
(4.51053e-07 2.30281e-06 0)
(3.90659e-07 1.8561e-06 0)
(6.49825e-07 3.07877e-06 0)
(2.53202e-06 7.15576e-06 0)
(6.15181e-07 1.80677e-06 0)
(4.38339e-07 1.91278e-06 0)
(2.16824e-07 9.2516e-07 0)
(3.19169e-07 1.26436e-06 0)
(6.20792e-06 -6.75387e-06 0)
(4.90825e-06 -8.87972e-06 0)
(8.16032e-06 -1.12292e-05 0)
(0.00192164 0.00356891 0)
(0.00178868 0.00454912 0)
(0.00219555 0.00494599 0)
(0.00223484 0.00386705 0)
(0.00162269 -0.00113918 0)
(0.00130647 -0.000514269 0)
(0.00123317 -0.00121847 0)
(0.00144973 0.0223917 0)
(0.00160569 0.0231127 0)
(0.00160105 0.0249558 0)
(0.00112365 0.017993 0)
(0.00220184 0.0221525 0)
(0.00210538 0.0191777 0)
(0.00235055 0.0211842 0)
(0.00261224 0.0158608 0)
(0.00238178 0.0143187 0)
(0.000932281 0.0210173 0)
(0.000895407 0.0235919 0)
(0.000804641 0.0195705 0)
(0.000657735 0.029901 0)
(0.000766145 0.0297819 0)
(0.000707622 0.0334674 0)
(0.000252064 0.0177421 0)
(0.00018729 0.0182985 0)
(0.000145675 0.022889 0)
(8.83951e-05 0.0231488 0)
(0.000123941 0.0195682 0)
(1.30184e-05 -3.88171e-06 0)
(1.27383e-05 4.30323e-06 0)
(9.30112e-06 -1.71842e-06 0)
(0.000100826 -0.000164158 0)
(8.72777e-05 -0.000190826 0)
(0.000130514 -0.000294427 0)
(0.000157107 -0.000268309 0)
(0.000216644 -0.000344033 0)
(0.000176888 -0.000232505 0)
(0.000340443 -0.000527178 0)
(0.000275985 -0.000392919 0)
(0.000278837 -0.000511106 0)
(2.79988e-05 0.0082439 0)
(4.76226e-05 0.00695502 0)
(5.07518e-05 0.00923577 0)
(-3.07926e-05 0.00681466 0)
(-2.81916e-05 0.00773675 0)
(-5.31514e-05 0.00938849 0)
(-7.98906e-06 0.00370883 0)
(-9.46396e-05 0.0216412 0)
(-5.93229e-05 0.0173527 0)
(-6.46559e-05 0.00398521 0)
(-4.00351e-05 0.0028252 0)
(-6.78295e-05 0.00414037 0)
(-0.0001034 0.00583052 0)
(-0.000167968 0.00854754 0)
(-0.000217404 0.0103512 0)
(-0.000136647 0.00729648 0)
(-0.000154763 0.00533331 0)
(-0.000116233 0.00433876 0)
(-6.60876e-05 0.00180973 0)
(-8.7573e-05 0.00252392 0)
(-0.000100967 0.00262721 0)
(-0.00170307 0.0264975 0)
(-0.00177874 0.025723 0)
(-0.00146964 0.0227657 0)
(-0.000117887 0.00154856 0)
(-0.000147563 0.00171025 0)
(-9.50584e-05 0.00117378 0)
(-1.00571e-05 8.38954e-05 0)
(-1.52787e-05 0.000121574 0)
(-1.15756e-05 8.91765e-05 0)
(-7.96373e-07 5.9802e-06 0)
(-3.72883e-07 2.79899e-06 0)
(-2.77754e-06 1.90611e-05 0)
(-2.07894e-06 1.49163e-05 0)
(-3.42365e-06 2.48038e-05 0)
(-5.26602e-09 4.03339e-08 0)
(-3.37505e-09 2.8348e-08 0)
(-6.03033e-09 4.7188e-08 0)
(-2.71479e-08 2.03526e-07 0)
(-5.09987e-08 3.82434e-07 0)
(-3.23026e-08 2.38978e-07 0)
(3.80047e-09 2.83888e-08 0)
(6.89673e-09 5.01702e-08 0)
(3.54505e-09 2.78009e-08 0)
(9.8158e-07 6.24185e-06 0)
(7.32616e-07 4.39719e-06 0)
(1.65025e-07 1.08847e-06 0)
(1.01784e-07 6.97946e-07 0)
(7.28173e-08 4.86799e-07 0)
(8.08218e-08 5.22901e-07 0)
(1.57581e-07 9.93113e-07 0)
(2.32279e-07 1.22458e-06 0)
(3.68675e-07 2.02129e-06 0)
(2.31033e-07 1.29051e-06 0)
(3.5877e-07 4.11904e-07 0)
(5.4192e-07 7.23703e-07 0)
(3.33352e-07 5.28057e-07 0)
(5.72379e-07 2.23678e-06 0)
(9.06771e-07 3.90385e-06 0)
(8.00364e-07 1.7417e-06 0)
(4.60236e-07 1.02803e-06 0)
(5.99305e-07 1.05286e-06 0)
(2.27147e-07 1.05307e-06 0)
(2.73834e-07 1.35377e-06 0)
(1.62421e-07 8.08105e-07 0)
(9.6841e-07 -1.35595e-06 0)
(1.18109e-06 -2.71829e-07 0)
(4.44945e-07 -5.74297e-07 0)
(0.00302093 0.0124788 0)
(0.00303243 0.011075 0)
(0.00325142 0.0128371 0)
(0.00272868 0.00757741 0)
(0.00259861 0.00607004 0)
(0.00297499 0.00712206 0)
(0.00167787 0.000613579 0)
(0.00162575 -0.000259335 0)
(0.00198581 5.45952e-05 0)
(0.00165122 0.0274911 0)
(0.00150398 0.02831 0)
(0.00147105 0.0251974 0)
(0.00160597 0.0170053 0)
(0.00181604 0.0197771 0)
(0.00161938 0.0193259 0)
(0.00196056 0.0145822 0)
(0.00178747 0.0121449 0)
(0.00212151 0.0136724 0)
(0.00285403 0.0162462 0)
(0.00255919 0.0141619 0)
(0.000868771 0.0301099 0)
(0.00097215 0.0324903 0)
(0.000829699 0.0332855 0)
(0.00101916 0.0263339 0)
(0.00108229 0.0299247 0)
(0.000945965 0.0281525 0)
(0.00081849 0.0262793 0)
(0.000595076 0.0264977 0)
(0.000570205 0.0303862 0)
(0.000266777 0.0294434 0)
(0.000186229 0.0300017 0)
(0.000266054 0.0249663 0)
(0.000189728 0.0329831 0)
(8.79068e-05 0.0355756 0)
(8.89792e-05 0.0283614 0)
(-1.70894e-06 0.0337707 0)
(-2.8907e-05 0.0319507 0)
(-0.000114212 0.0328891 0)
(-0.000183822 0.0375709 0)
(-3.33228e-06 -1.33396e-05 0)
(-8.7538e-07 -1.35995e-05 0)
(-1.27865e-06 -9.39841e-06 0)
(2.37238e-06 -6.42876e-05 0)
(-2.83238e-06 -7.46398e-05 0)
(4.0951e-06 -8.04123e-05 0)
(9.10784e-05 -0.000368335 0)
(6.10502e-05 -0.000243763 0)
(5.75327e-05 -0.000260718 0)
(0.000779785 -0.00264157 0)
(0.000893132 -0.00331057 0)
(0.000985405 -0.00311538 0)
(-0.000343986 0.0275496 0)
(-0.000570199 0.0351025 0)
(-0.000503286 0.0321383 0)
(-6.18611e-05 0.00529205 0)
(-9.54622e-05 0.0067982 0)
(-6.48957e-05 0.00524895 0)
(-0.000289485 0.0391032 0)
(-0.000174571 0.0334632 0)
(-0.000101574 0.00569658 0)
(-0.000179673 0.00889668 0)
(-0.000139368 0.00734331 0)
(-0.000153409 0.00779899 0)
(-0.000298627 0.0129146 0)
(-0.000134477 0.0070507 0)
(-0.000372496 0.0158443 0)
(-0.000503237 0.0198826 0)
(-0.000416015 0.0172609 0)
(-5.67995e-05 0.00364728 0)
(-5.81111e-05 0.00368838 0)
(-7.5043e-05 0.00452297 0)
(-0.000341363 0.0151177 0)
(-0.00033547 0.0151057 0)
(-0.000293853 0.0135527 0)
(-0.000334902 0.0143869 0)
(-0.000413792 0.0166747 0)
(-0.000392884 0.0158291 0)
(-0.000649763 0.00949994 0)
(-0.000911945 0.0125009 0)
(-0.000785716 0.0100671 0)
(-0.000134832 0.00106722 0)
(-0.000150896 0.00102204 0)
(-9.96562e-05 0.000714436 0)
(-3.8249e-06 2.50728e-05 0)
(-6.98028e-06 4.69489e-05 0)
(-5.44095e-06 3.3757e-05 0)
(-4.31173e-06 2.33332e-05 0)
(-2.34961e-06 1.26561e-05 0)
(-2.95197e-06 1.68407e-05 0)
(-1.1835e-06 8.41491e-06 0)
(-6.72585e-07 4.80408e-06 0)
(-4.3551e-09 3.06915e-08 0)
(-3.54454e-09 2.54971e-08 0)
(-5.66301e-09 4.01328e-08 0)
(-2.0665e-09 1.56794e-08 0)
(-2.31162e-09 1.67101e-08 0)
(-1.26589e-09 9.92584e-09 0)
(3.0663e-07 1.77611e-06 0)
(2.36984e-07 1.43741e-06 0)
(1.78446e-07 1.0374e-06 0)
(1.30647e-07 7.90306e-07 0)
(8.17336e-08 5.1058e-07 0)
(6.93519e-08 4.19265e-07 0)
(3.89022e-08 2.57087e-07 0)
(9.97006e-08 5.81111e-07 0)
(6.96525e-07 6.56231e-07 0)
(1.26553e-06 1.20136e-06 0)
(9.20432e-07 1.25469e-06 0)
(7.3295e-08 1.95028e-07 0)
(8.16597e-08 2.02871e-07 0)
(1.37873e-07 3.45897e-07 0)
(8.53096e-08 2.9174e-07 0)
(8.4573e-08 2.61647e-07 0)
(1.63504e-07 5.3277e-07 0)
(1.03225e-07 2.87043e-07 0)
(5.69429e-08 1.64638e-07 0)
(7.50743e-08 2.79642e-07 0)
(1.25028e-07 4.45189e-07 0)
(1.19572e-07 4.60244e-07 0)
(-1.84872e-06 2.07675e-06 0)
(-2.42697e-06 3.99018e-06 0)
(-3.23901e-06 3.56703e-06 0)
(0.00318378 0.0102401 0)
(0.00287446 0.00920816 0)
(0.00343531 0.0103694 0)
(0.00335505 0.0116331 0)
(0.003269 0.00684708 0)
(0.00324701 0.00570987 0)
(0.00359799 0.00664346 0)
(0.00357413 0.00793421 0)
(0.0025227 -0.00200604 0)
(0.00296966 -0.00253378 0)
(0.00283432 -0.00154369 0)
(0.00370533 0.000411107 0)
(0.00352326 0.001011 0)
(0.00328046 -3.531e-05 0)
(0.00139477 0.014226 0)
(0.00163455 0.0150663 0)
(0.00200713 0.0204693 0)
(0.00276296 0.014219 0)
(0.00113339 0.0268094 0)
(0.00117738 0.0241208 0)
(0.00125029 0.0271545 0)
(0.000513884 0.0236207 0)
(0.000611115 0.022616 0)
(-4.33105e-05 0.0380535 0)
(-0.000126612 0.0379657 0)
(0.000346185 0.0225211 0)
(0.000417882 0.0257739 0)
(0.000334005 0.0263996 0)
(1.17048e-05 0.0270506 0)
(-6.11742e-06 1.13975e-05 0)
(-1.02371e-05 1.97062e-05 0)
(-7.35501e-06 9.6411e-06 0)
(6.92466e-06 -6.11825e-05 0)
(8.32937e-06 -5.05369e-05 0)
(2.0792e-06 -4.37159e-05 0)
(-2.64813e-06 -0.000135791 0)
(2.92159e-06 -0.000161641 0)
(9.67139e-06 -0.000155991 0)
(0.000224022 -0.0008907 0)
(0.000204739 -0.000937373 0)
(0.000284035 -0.00124014 0)
(0.00284725 -0.00573769 0)
(0.00252936 -0.00483217 0)
(0.00246265 -0.00570523 0)
(0.00115888 -0.00402185 0)
(0.00104769 -0.0042194 0)
(-0.000171028 0.0234452 0)
(-0.00022123 0.0237711 0)
(-0.000114837 0.0192373 0)
(-9.08874e-05 0.0155208 0)
(-0.000120865 0.0183334 0)
(-0.000184886 0.0205712 0)
(-0.000100375 0.00993468 0)
(-0.000157238 0.0127695 0)
(-0.000153115 0.0120018 0)
(-0.000331836 0.0204089 0)
(-0.000218983 0.0166843 0)
(-0.000330993 0.0212497 0)
(-0.000129528 0.00935392 0)
(-0.000137826 0.00935052 0)
(-9.1093e-05 0.00741484 0)
(-8.84485e-05 0.00696697 0)
(-8.59376e-05 0.00659276 0)
(-6.42982e-05 0.00559936 0)
(-0.000261826 0.0114431 0)
(-0.000121283 0.00644225 0)
(-0.000106342 0.00581797 0)
(-0.000816395 0.0278087 0)
(-0.000521568 0.0205505 0)
(-0.000215514 0.0104229 0)
(-0.000199457 0.0097502 0)
(-0.000167798 0.00845743 0)
(-0.000462642 0.0189499 0)
(-0.000404536 0.0170933 0)
(-0.000482989 0.0194901 0)
(-0.00125249 0.0341279 0)
(-0.00131437 0.0342972 0)
(-0.00113552 0.0315512 0)
(-0.000302824 0.0117002 0)
(-0.000221905 0.00903483 0)
(-0.000254818 0.0104115 0)
(-0.000268603 0.00665688 0)
(-0.000363651 0.00916768 0)
(-0.000374003 0.00859355 0)
(-0.00150697 0.0180109 0)
(-0.00137923 0.0149349 0)
(-0.00120244 0.0152323 0)
(-0.000464359 0.00777206 0)
(-0.000476282 0.00705028 0)
(-0.00115537 0.00636377 0)
(-0.00149414 0.00788405 0)
(-0.00142317 0.00646675 0)
(-9.28217e-05 0.000320078 0)
(-7.61792e-05 0.000326659 0)
(-0.000113524 0.00049134 0)
(-9.84094e-06 6.07097e-05 0)
(-1.74325e-05 0.000110043 0)
(-1.38032e-05 7.97328e-05 0)
(-1.38878e-07 9.45606e-07 0)
(-2.16512e-07 1.52981e-06 0)
(-2.54339e-07 1.73465e-06 0)
(-4.88311e-07 3.11095e-06 0)
(-7.00846e-07 4.61244e-06 0)
(-9.79532e-07 6.16828e-06 0)
(-1.00475e-07 7.15759e-07 0)
(-7.87238e-08 5.72663e-07 0)
(-1.50481e-07 1.08716e-06 0)
(-1.00278e-10 1.56528e-09 0)
(-2.41637e-10 2.04559e-09 0)
(-1.19279e-10 1.25337e-09 0)
(-5.49945e-08 3.85607e-07 0)
(-5.28334e-08 3.64145e-07 0)
(-3.15166e-08 2.1774e-07 0)
(8.66825e-11 2.59382e-09 0)
(2.99536e-10 2.95062e-09 0)
(4.14226e-10 3.96409e-09 0)
(4.38277e-09 2.98051e-08 0)
(2.32178e-09 1.57766e-08 0)
(4.45715e-09 2.99207e-08 0)
(4.96025e-08 3.15804e-07 0)
(4.11282e-08 2.66637e-07 0)
(2.89637e-08 1.85325e-07 0)
(7.02416e-09 4.56688e-08 0)
(5.47509e-09 3.60554e-08 0)
(4.13045e-09 2.70859e-08 0)
(2.87132e-08 1.70503e-07 0)
(5.25683e-08 3.09017e-07 0)
(3.98243e-08 2.40722e-07 0)
(1.17258e-07 6.15655e-07 0)
(5.74359e-08 3.01022e-07 0)
(8.63566e-08 4.32977e-07 0)
(-3.38546e-08 1.401e-07 0)
(-4.37638e-08 1.87786e-07 0)
(-2.51766e-09 1.41515e-07 0)
(9.3139e-08 2.20665e-07 0)
(3.82369e-08 1.5026e-07 0)
(3.30707e-08 1.86312e-07 0)
(6.39667e-08 2.58509e-07 0)
(4.04534e-08 1.55658e-07 0)
(3.69425e-08 1.05567e-07 0)
(1.98592e-07 5.6186e-07 0)
(1.18034e-07 4.91568e-07 0)
(6.68912e-08 2.90201e-07 0)
(4.52168e-08 2.26572e-07 0)
(-7.99172e-07 1.88883e-06 0)
(-1.40848e-06 3.4623e-06 0)
(-9.3837e-07 1.89604e-06 0)
(0.00251465 0.00812558 0)
(0.0033054 0.00796944 0)
(0.00366485 0.00386144 0)
(0.00334908 0.00371567 0)
(0.00347093 0.00296011 0)
(0.003795 -0.00270897 0)
(0.00405864 -0.00349002 0)
(0.00411466 -0.00263757 0)
(0.00374733 -0.00631268 0)
(0.00347499 -0.00648078 0)
(0.00376657 -0.00700097 0)
(0.00251296 0.00254974 0)
(0.00261622 0.00156259 0)
(0.00299207 0.00261567 0)
(0.00126852 0.0221081 0)
(0.00134224 0.0259777 0)
(0.00313802 0.0140179 0)
(0.000486233 0.0333069 0)
(0.00042375 0.0308406 0)
(0.000505333 0.0282546 0)
(-8.02799e-06 1.2074e-06 0)
(-9.97842e-06 -1.59319e-06 0)
(-6.21588e-06 -3.04747e-06 0)
(-2.52793e-05 -4.30529e-05 0)
(-4.07526e-05 -5.60623e-05 0)
(-3.44522e-05 -6.72138e-05 0)
(9.02262e-06 -8.15704e-05 0)
(1.24234e-07 -0.000232235 0)
(-1.43898e-05 -0.000243164 0)
(-5.47905e-06 -0.000259926 0)
(0.000333829 -0.00124615 0)
(0.000275954 -0.000957447 0)
(0.0032959 -0.00967111 0)
(0.00306791 -0.00868076 0)
(0.00285481 -0.00885711 0)
(0.00254324 -0.0100909 0)
(0.00260291 -0.0094653 0)
(0.00231973 -0.00903615 0)
(-0.000795172 0.0420401 0)
(-0.000473183 0.0330791 0)
(-0.000230981 0.0199361 0)
(-0.000282724 0.0228003 0)
(-0.000360621 0.0250879 0)
(-0.000103941 0.0113263 0)
(-0.00015183 0.0142046 0)
(-0.000152522 0.0135409 0)
(-0.000594373 0.027308 0)
(-0.000335921 0.0197925 0)
(-0.000607519 0.0283671 0)
(-0.000147075 0.00948247 0)
(-0.000355207 0.03269 0)
(-0.000546736 0.0378649 0)
(-0.000314428 0.0299713 0)
(-0.000281542 0.012054 0)
(-0.000112444 0.00605126 0)
(-0.000431301 0.0177436 0)
(-0.000511539 0.0190136 0)
(-0.000570613 0.0203308 0)
(-0.000429118 0.0165057 0)
(-0.000102982 0.00560705 0)
(-0.000100405 0.00554235 0)
(-0.000135957 0.00711622 0)
(-0.00196352 0.0478049 0)
(-0.0019787 0.0477744 0)
(-0.00184221 0.0459643 0)
(-0.000416155 0.0178761 0)
(-0.000510583 0.0201456 0)
(-0.000528278 0.0206966 0)
(-0.000670249 0.0245871 0)
(-0.00110317 0.033767 0)
(-0.000683057 0.0250572 0)
(-0.00156719 0.0338472 0)
(-0.0013888 0.0320545 0)
(-0.00166082 0.0365294 0)
(-0.00101931 0.0229682 0)
(-0.00122639 0.0272993 0)
(-0.00127172 0.0260815 0)
(-0.00173704 0.0183996 0)
(-0.00111556 0.0114596 0)
(-0.00140769 0.0130961 0)
(-0.0011778 0.0105539 0)
(-0.000400612 0.00142437 0)
(-0.000424247 0.00184463 0)
(-0.000505454 0.00192977 0)
(-7.01193e-05 0.000405962 0)
(-6.05778e-05 0.000304437 0)
(-4.4235e-05 0.000251871 0)
(-0.000860945 0.000584795 0)
(-0.000620129 0.000109858 0)
(-0.000608896 0.000411419 0)
(-3.7142e-06 1.69978e-05 0)
(-5.25579e-06 2.59252e-05 0)
(-5.8087e-06 2.62412e-05 0)
(-7.60211e-06 3.17313e-05 0)
(-4.62627e-06 1.91726e-05 0)
(-3.97103e-07 2.6435e-06 0)
(-2.60366e-07 1.66402e-06 0)
(-1.77629e-07 1.17133e-06 0)
(-9.72137e-07 5.04765e-06 0)
(-1.37052e-06 7.43163e-06 0)
(-1.6283e-06 8.18351e-06 0)
(-1.15713e-06 6.9172e-06 0)
(-7.30178e-07 4.33665e-06 0)
(-5.37601e-07 3.29664e-06 0)
(-5.4382e-09 3.70724e-08 0)
(-2.92227e-09 1.98731e-08 0)
(-3.70636e-09 2.53889e-08 0)
(-2.76975e-09 1.92576e-08 0)
(-1.61924e-09 1.14156e-08 0)
(-2.5727e-09 1.81459e-08 0)
(-3.59603e-08 2.44554e-07 0)
(-6.80478e-08 4.62104e-07 0)
(-3.99772e-08 2.66744e-07 0)
(1.5547e-10 1.64171e-09 0)
(3.15065e-11 1.33882e-09 0)
(5.80896e-11 1.04438e-09 0)
(3.26597e-10 2.489e-09 0)
(4.21034e-10 2.97174e-09 0)
(6.88519e-10 4.80763e-09 0)
(1.14184e-08 7.4856e-08 0)
(3.76696e-08 2.34403e-07 0)