/*--------------------------------*- C++ -*----------------------------------*\
| =========                 |                                                 |
| \\      /  F ield         | OpenFOAM: The Open Source CFD Toolbox           |
|  \\    /   O peration     | Version:  v2012                                 |
|   \\  /    A nd           | Website:  www.openfoam.com                      |
|    \\/     M anipulation  |                                                 |
\*---------------------------------------------------------------------------*/
FoamFile
{
    version     2.0;
    format      ascii;
    class       volVectorField;
    location    "1.1";
    object      cellDisplacement;
}
// * * * * * * * * * * * * * * * * * * * * * * * * * * * * * * * * * * * * * //

dimensions      [0 1 0 0 0 0 0];


internalField   nonuniform List<vector> 
13611
(
(3.24807e-06 7.11017e-05 0)
(9.11657e-06 0.000196375 0)
(5.95981e-06 0.000137878 0)
(1.52887e-05 0.000344503 0)
(1.08941e-05 0.000226011 0)
(2.8474e-06 6.8128e-05 0)
(1.21684e-05 0.000284768 0)
(2.24763e-05 0.000504135 0)
(5.02607e-06 0.000100108 0)
(1.97626e-05 0.000408122 0)
(4.88865e-06 0.00012292 0)
(1.35975e-05 0.000332517 0)
(2.52509e-05 0.000540563 0)
(2.64484e-05 0.00061943 0)
(1.17413e-05 0.000222865 0)
(2.38195e-05 0.000474109 0)
(9.52206e-06 0.000240809 0)
(2.17093e-06 5.6518e-05 0)
(1.79664e-05 0.000445562 0)
(3.23788e-05 0.000680418 0)
(3.38487e-05 0.00079165 0)
(2.33364e-05 0.000569379 0)
(6.93486e-06 0.000124673 0)
(2.18562e-05 0.000416139 0)
(3.20928e-05 0.000642192 0)
(1.05417e-05 0.000277855 0)
(3.88087e-06 0.000105493 0)
(1.77337e-05 0.000459102 0)
(3.92369e-05 0.000836763 0)
(3.96467e-05 0.000889725 0)
(3.54367e-05 0.000868385 0)
(2.50191e-05 0.000636854 0)
(1.38223e-05 0.000236143 0)
(3.21321e-05 0.000593004 0)
(3.82321e-05 0.000735387 0)
(1.44201e-05 0.00038361 0)
(7.68452e-06 0.000209426 0)
(1.7875e-06 5.02733e-05 0)
(2.13303e-05 0.000559901 0)
(4.81798e-05 0.000986193 0)
(4.6936e-05 0.00107095 0)
(4.05611e-05 0.00100555 0)
(3.2518e-05 0.00082592 0)
(2.84508e-05 0.000733701 0)
(2.61605e-05 0.000445937 0)
(6.86714e-06 0.000110973 0)
(3.46677e-05 0.00061205 0)
(4.79345e-05 0.000925177 0)
(1.468e-05 0.000407442 0)
(8.63472e-06 0.000243787 0)
(3.5841e-06 0.000104689 0)
(2.13091e-05 0.000580958 0)
(5.59515e-05 0.00116568 0)
(4.58333e-05 0.00110413 0)
(5.42809e-05 0.00119772 0)
(3.86819e-05 0.00101427 0)
(3.45939e-05 0.000916566 0)
(2.7921e-05 0.000753712 0)
(3.35679e-05 0.000544637 0)
(1.49531e-05 0.000230181 0)
(4.7435e-05 0.000814671 0)
(5.8119e-05 0.00107527 0)
(1.18705e-05 0.000337457 0)
(1.79091e-05 0.000502483 0)
(6.65613e-06 0.00019438 0)
(1.78677e-06 5.38587e-05 0)
(2.45737e-05 0.000679357 0)
(6.61827e-05 0.00133119 0)
(5.06311e-05 0.00125105 0)
(6.02912e-05 0.00136271 0)
(4.14057e-05 0.00111006 0)
(3.15227e-05 0.000862767 0)
(4.69715e-05 0.00076423 0)
(2.9162e-05 0.000451435 0)
(8.53374e-06 0.000123085 0)
(5.84996e-05 0.00102074 0)
(6.90653e-05 0.00130628 0)
(1.16152e-05 0.000342872 0)
(1.81173e-05 0.000525887 0)
(8.50923e-06 0.000254938 0)
(2.95445e-06 9.24797e-05 0)
(2.399e-05 0.000690932 0)
(7.18801e-05 0.00149117 0)
(5.75728e-05 0.00138162 0)
(4.7857e-05 0.00124635 0)
(6.78984e-05 0.00149195 0)
(4.01571e-05 0.00112036 0)
(3.08469e-05 0.000883014 0)
(5.76106e-05 0.000900514 0)
(3.89633e-05 0.000577767 0)
(2.00784e-05 0.000277218 0)
(7.19872e-05 0.00120299 0)
(8.22104e-05 0.00149179 0)
(1.35183e-05 0.000406189 0)
(2.10116e-05 0.000617071 0)
(1.61779e-05 0.000481942 0)
(8.10785e-06 0.000250556 0)
(5.68663e-06 0.00017912 0)
(1.24884e-06 4.0128e-05 0)
(2.67035e-05 0.000783927 0)
(8.09986e-05 0.00166167 0)
(6.19835e-05 0.00152377 0)
(4.98559e-05 0.00134254 0)
(7.34072e-05 0.00165897 0)
(4.26142e-05 0.00121755 0)
(3.70773e-05 0.00107424 0)
(3.34909e-05 0.000984472 0)
(7.19977e-05 0.00113411 0)
(5.40341e-05 0.000805824 0)
(3.62089e-05 0.000509126 0)
(1.26856e-05 0.000162061 0)
(8.48913e-05 0.00144069 0)
(9.05831e-05 0.00168181 0)
(1.2988e-05 0.00040454 0)
(1.99814e-05 0.000609564 0)
(1.73768e-05 0.000533405 0)
(1.06368e-05 0.000335822 0)
(5.91405e-06 0.000192647 0)
(2.15714e-06 7.15773e-05 0)
(2.5413e-05 0.000778364 0)
(8.8083e-05 0.00173296 0)
(8.123e-05 0.00177065 0)
(7.02248e-05 0.00167278 0)
(6.00324e-05 0.00155858 0)
(5.48166e-05 0.00147569 0)
(4.60986e-05 0.00130559 0)
(3.91563e-05 0.00116245 0)
(3.0896e-05 0.000958868 0)
(8.64163e-05 0.0012957 0)
(6.42429e-05 0.000912145 0)
(5.26159e-05 0.000716593 0)
(3.27582e-05 0.000406162 0)
(9.83471e-05 0.0015957 0)
(0.000104246 0.00188083 0)
(1.5404e-05 0.000485485 0)
(2.17665e-05 0.000678028 0)
(1.01091e-05 0.000328878 0)
(4.19612e-06 0.000139603 0)
(7.82327e-06 0.000257822 0)
(9.50376e-07 3.23319e-05 0)
(2.71434e-05 0.000854512 0)
(9.65267e-05 0.00191562 0)
(8.88308e-05 0.00195138 0)
(7.22875e-05 0.00180649 0)
(6.5334e-05 0.00172491 0)
(5.2921e-05 0.00151133 0)
(4.77427e-05 0.00139818 0)
(3.85882e-05 0.00118954 0)
(3.19677e-05 0.00102962 0)
(9.99799e-05 0.00151893 0)
(8.26755e-05 0.00116732 0)
(5.6488e-05 0.00072886 0)
(3.55697e-05 0.000417129 0)
(0.000112135 0.00183182 0)
(0.000114306 0.00196173 0)
(0.000105835 0.0020039 0)
(1.57026e-05 0.000510512 0)
(2.06726e-05 0.000666406 0)
(1.13351e-05 0.000378951 0)
(4.63571e-06 0.000158297 0)
(7.80108e-06 0.000264262 0)
(1.80791e-06 6.3174e-05 0)
(2.4978e-05 0.000822561 0)
(9.74387e-05 0.00202881 0)
(8.77199e-05 0.00204451 0)
(7.87277e-05 0.00195923 0)
(6.27072e-05 0.00175849 0)
(5.57922e-05 0.00162832 0)
(4.50212e-05 0.0013822 0)
(3.52101e-05 0.00112969 0)
(4.10129e-05 0.00128665 0)
(2.92514e-05 0.000986969 0)
(0.000117056 0.00171838 0)
(9.4961e-05 0.00126462 0)
(8.05347e-05 0.00101861 0)
(6.94608e-05 0.00079365 0)
(1.51342e-05 0.000170873 0)
(0.000125273 0.00192776 0)
(0.000130749 0.00224578 0)
(0.000114076 0.00218564 0)
(1.34965e-05 0.000451985 0)
(1.80212e-05 0.000591959 0)
(2.22055e-05 0.000736189 0)
(9.65493e-06 0.000330323 0)
(3.48826e-06 0.000121808 0)
(6.34261e-06 0.000217971 0)
(8.52929e-07 3.05018e-05 0)
(2.60225e-05 0.00088533 0)
(0.000107376 0.00220298 0)
(9.47508e-05 0.00225194 0)
(7.86858e-05 0.00208451 0)
(6.51414e-05 0.00189595 0)
(5.32338e-05 0.00164196 0)
(4.53571e-05 0.00145405 0)
(3.56975e-05 0.00119892 0)
(3.88493e-05 0.00128942 0)
(2.98031e-05 0.00104461 0)
(0.000127114 0.00175908 0)
(0.000117809 0.0015513 0)
(8.95953e-05 0.00106738 0)
(7.9162e-05 0.000847349 0)
(2.89704e-05 0.000303759 0)
(0.000141656 0.00215927 0)
(0.000145288 0.00235273 0)
(0.000127193 0.00233587 0)
(1.40207e-05 0.000485507 0)
(1.80064e-05 0.000611765 0)
(2.03021e-05 0.000694882 0)
(9.51246e-06 0.000334441 0)
(4.4923e-06 0.000159969 0)
(6.25251e-06 0.000220916 0)
(1.35597e-06 4.9603e-05 0)
(2.44007e-05 0.000862055 0)
(0.000110698 0.00234228 0)
(8.76639e-05 0.00226948 0)
(0.000104288 0.00237547 0)
(7.19294e-05 0.00204941 0)
(5.97542e-05 0.00187822 0)
(5.50681e-05 0.00176001 0)
(4.83761e-05 0.00155404 0)
(4.08098e-05 0.00137691 0)
(3.30236e-05 0.00115691 0)
(2.72596e-05 0.000998896 0)
(0.000148876 0.00203122 0)
(0.000133803 0.0016432 0)
(0.000119958 0.0014023 0)
(5.80013e-05 0.000597253 0)
(0.000112873 0.00117799 0)
(1.34456e-05 0.000132805 0)
(0.000154601 0.00221907 0)
(0.000161748 0.00260076 0)
(0.000134026 0.00254788 0)
(1.62216e-05 0.000564606 0)
(1.2663e-05 0.000449834 0)
(2.03317e-05 0.000719507 0)
(1.07477e-05 0.000383821 0)
(7.52746e-06 0.000268978 0)
(3.97941e-06 0.000144473 0)
(5.1818e-07 1.93607e-05 0)
(2.55736e-06 9.37084e-05 0)
(2.20402e-05 0.000790686 0)
(2.50443e-05 0.00091841 0)
(0.000123421 0.00252895 0)
(8.86121e-05 0.00240563 0)
(0.00011045 0.00257141 0)
(7.09047e-05 0.00215943 0)
(5.9365e-05 0.00198895 0)
(5.07483e-05 0.00172403 0)
(4.7266e-05 0.00160476 0)
(4.00335e-05 0.00141854 0)
(3.2569e-05 0.0011936 0)
(2.73917e-05 0.00104601 0)
(0.000166745 0.00214356 0)
(0.000162288 0.00196928 0)
(0.000133772 0.00146161 0)
(6.44651e-05 0.000615128 0)
(0.000123833 0.00120233 0)
(3.38672e-05 0.00031563 0)
(0.000175066 0.00246943 0)
(0.000164541 0.0028185 0)
(0.000179422 0.00266288 0)
(0.000149942 0.00277953 0)
(1.6371e-05 0.000589408 0)
(1.30317e-05 0.000478374 0)
(1.81884e-05 0.000660673 0)
(1.02323e-05 0.00037599 0)
(7.41412e-06 0.00027165 0)
(4.72705e-06 0.000175442 0)
(1.35415e-06 5.11532e-05 0)
(2.56462e-06 9.592e-05 0)
(2.14031e-05 0.00079719 0)
(2.30272e-05 0.00086989 0)
(0.000123069 0.002666 0)
(9.68456e-05 0.00259971 0)
(8.179e-05 0.0023965 0)
(0.000106714 0.00267891 0)
(6.39442e-05 0.00211703 0)
(7.51291e-05 0.00229862 0)
(5.34449e-05 0.00192876 0)
(4.97881e-05 0.00178835 0)
(4.33566e-05 0.0015459 0)
(3.67703e-05 0.00136939 0)
(2.96659e-05 0.00113147 0)
(3.40551e-05 0.00127828 0)
(2.51729e-05 0.00100546 0)
(0.000187143 0.00244435 0)
(0.00018444 0.00208224 0)
(0.000169807 0.00181085 0)
(9.50009e-05 0.00088082 0)
(0.000158504 0.00150349 0)
(2.26846e-05 0.000194162 0)
(0.000181691 0.00305022 0)
(0.000197144 0.00290104 0)
(0.000148565 0.00296726 0)
(1.45936e-05 0.000539589 0)
(1.15257e-05 0.000430448 0)
(1.80389e-05 0.000677984 0)
(8.83348e-06 0.00032804 0)
(6.04412e-06 0.000225241 0)
(3.64636e-06 0.000137319 0)
(1.35737e-06 5.21031e-05 0)
(1.95803e-05 0.000744606 0)
(2.2373e-05 0.000875237 0)
(0.000132732 0.00286586 0)
(9.04322e-05 0.00268086 0)
(8.25545e-05 0.00255176 0)
(0.000114436 0.00288022 0)
(6.38012e-05 0.00224009 0)
(7.04352e-05 0.00235619 0)
(5.04497e-05 0.00197922 0)
(4.51709e-05 0.00171906 0)
(4.22904e-05 0.00159703 0)
(3.60904e-05 0.00143334 0)
(2.93812e-05 0.00116956 0)
(3.15625e-05 0.00125171 0)
(2.52027e-05 0.00105182 0)
(2.31825e-05 0.00093157 0)
(0.000208188 0.00262957 0)
(0.000213696 0.00239133 0)
(0.000184112 0.00182895 0)
(0.000103569 0.000891099 0)
(0.000173498 0.00153473 0)
(5.94644e-05 0.000489041 0)
(0.000196131 0.00306314 0)
(0.000187711 0.00328567 0)
(0.000219572 0.00304248 0)
(0.00015966 0.00322117 0)
(1.46672e-05 0.000560279 0)
(1.10968e-05 0.000426484 0)
(1.63095e-05 0.000627891 0)
(8.54972e-06 0.000325749 0)
(6.23533e-06 0.000237531 0)
(3.60852e-06 0.000138652 0)
(2.49736e-06 9.67911e-05 0)
(5.2941e-07 2.05264e-05 0)
(1.91428e-05 0.000754686 0)
(2.03325e-05 0.000812839 0)
(0.000127909 0.00297213 0)
(9.19442e-05 0.00283358 0)
(7.42236e-05 0.00250582 0)
(0.000111713 0.0030149 0)
(5.8062e-05 0.00223862 0)
(4.50388e-05 0.0018801 0)
(5.18142e-05 0.00210597 0)
(4.32012e-05 0.00176184 0)
(3.83807e-05 0.00153503 0)
(3.31832e-05 0.00137875 0)
(2.71936e-05 0.00113257 0)
(3.12697e-05 0.00129113 0)
(2.32063e-05 0.00101106 0)
(2.13192e-05 0.000893346 0)
(0.000219982 0.00260059 0)
(0.00022624 0.00294692 0)
(0.00024202 0.00254985 0)
(0.000221591 0.00211081 0)
(0.000147292 0.00123425 0)
(0.000219221 0.00192242 0)
(6.11374e-05 0.000465831 0)
(0.000213242 0.00329427 0)
(0.000209221 0.0034473 0)
(0.000178018 0.00337318 0)
(0.000231026 0.00332236 0)
(0.000148999 0.00332534 0)
(1.33463e-05 0.00052224 0)
(1.18676e-05 0.000465442 0)
(9.57531e-06 0.00037125 0)
(1.6106e-05 0.000642004 0)
(7.39911e-06 0.000284389 0)
(5.51155e-06 0.000213116 0)
(4.46381e-06 0.000173437 0)
(2.39623e-06 9.42574e-05 0)
(8.93147e-07 3.53256e-05 0)
(1.74146e-05 0.000702595 0)
(1.98594e-05 0.000825286 0)
(0.00013459 0.00318252 0)
(8.32927e-05 0.00287872 0)
(0.000101963 0.00299445 0)
(7.07427e-05 0.00258761 0)
(0.000123082 0.00320996 0)
(5.72091e-05 0.00237045 0)
(4.1691e-05 0.00189117 0)
(4.55968e-05 0.00209903 0)
(3.9335e-05 0.00168911 0)
(3.7223e-05 0.0015825 0)
(3.13163e-05 0.00138579 0)
(2.69141e-05 0.00117314 0)
(2.88072e-05 0.00125015 0)
(2.29433e-05 0.00104986 0)
(2.13395e-05 0.000927437 0)
(0.000248952 0.00288846 0)
(0.000253197 0.00310522 0)
(0.000250997 0.00245306 0)
(0.000265742 0.00288826 0)
(0.000164175 0.00127532 0)
(0.000248177 0.00203532 0)
(2.17371e-05 0.000159792 0)
(0.000124164 0.000908217 0)
(0.000223047 0.0036998 0)
(0.000187697 0.00368017 0)
(0.000253134 0.00357787 0)
(0.000152191 0.00355488 0)
(1.33771e-05 0.000540384 0)
(1.10912e-05 0.000448856 0)
(9.09551e-06 0.000361435 0)
(1.45493e-05 0.000593461 0)
(7.0614e-06 0.000277685 0)
(6.03551e-06 0.000237683 0)
(4.34527e-06 0.00017213 0)
(2.91074e-06 0.000115779 0)
(1.63756e-06 6.49832e-05 0)
(3.89087e-07 1.5568e-05 0)
(1.6998e-05 0.000711129 0)
(1.82306e-05 0.000775046 0)
(8.61008e-05 0.0030727 0)
(7.44876e-05 0.00277136 0)
(9.84296e-05 0.0031566 0)
(6.22781e-05 0.00251887 0)
(0.000121539 0.00338204 0)
(5.03936e-05 0.00233183 0)
(3.73688e-05 0.00179479 0)
(4.14245e-05 0.00198633 0)
(4.50052e-05 0.002197 0)
(3.66731e-05 0.00170972 0)
(3.41046e-05 0.00154288 0)
(3.16038e-05 0.00145282 0)
(2.86911e-05 0.00129799 0)
(2.46203e-05 0.00113079 0)
(2.10788e-05 0.0010016 0)
(1.968e-05 0.000890842 0)
(0.000279583 0.00340799 0)
(0.000297028 0.00276506 0)
(0.000297326 0.00315062 0)
(0.000221137 0.00168916 0)
(0.000296844 0.00241882 0)
(2.97861e-05 0.000186003 0)
(0.000139112 0.000941296 0)
(0.000248941 0.00381245 0)
(0.000211648 0.00385492 0)
(0.000171165 0.00375325 0)
(0.000279483 0.00364799 0)
(0.000134727 0.00358076 0)
(1.19369e-05 0.000491552 0)
(9.85066e-06 0.000400285 0)
(7.77354e-06 0.000310372 0)
(1.4298e-05 0.000603787 0)
(5.32803e-06 0.000212775 0)
(3.6855e-06 0.000147088 0)
(2.47929e-06 9.97686e-05 0)
(1.8367e-06 7.38308e-05 0)
(7.45848e-07 3.02895e-05 0)
(1.54431e-05 0.000660974 0)
(1.75792e-05 0.000776754 0)
(7.68175e-05 0.00314548 0)
(6.51263e-05 0.00280205 0)
(0.000105975 0.00334471 0)
(5.88639e-05 0.00264348 0)
(4.75791e-05 0.00242486 0)
(3.45023e-05 0.0018155 0)
(3.63353e-05 0.00193578 0)
(3.9727e-05 0.002203 0)
(3.36266e-05 0.00161703 0)
(2.87207e-05 0.0014221 0)
(2.65967e-05 0.00126999 0)
(2.44364e-05 0.00117771 0)
(1.96215e-05 0.00092605 0)
(2.01402e-05 0.00100881 0)
(1.81499e-05 0.000825057 0)
(0.000308706 0.00346683 0)
(0.000318127 0.00274635 0)
(0.000319138 0.00313043 0)
(0.000248828 0.00175363 0)
(0.000333767 0.00251289 0)
(8.17284e-05 0.000504809 0)
(0.000206014 0.00136502 0)
(0.00026748 0.00410281 0)
(0.00022422 0.0041379 0)
(0.000171065 0.00399688 0)
(0.000309514 0.00401114 0)
(0.000130609 0.00378971 0)
(1.17419e-05 0.000497843 0)
(9.13023e-06 0.000378619 0)
(7.34846e-06 0.000299574 0)
(1.29133e-05 0.000556162 0)
(5.44503e-06 0.000221331 0)
(3.53012e-06 0.000143178 0)
(2.77493e-06 0.000112743 0)
(1.42769e-06 5.80403e-05 0)
(3.51665e-07 1.44183e-05 0)
(1.50015e-05 0.000666759 0)
(1.59388e-05 0.000719506 0)
(8.0271e-05 0.00337387 0)
(6.46516e-05 0.00297347 0)
(9.82296e-05 0.00350073 0)
(5.08924e-05 0.0025839 0)
(4.07295e-05 0.00234215 0)
(3.10573e-05 0.00174857 0)
(3.32746e-05 0.00197779 0)
(3.4395e-05 0.00210525 0)
(3.0636e-05 0.00158893 0)
(2.8254e-05 0.0014839 0)
(2.64597e-05 0.00132786 0)
(2.24937e-05 0.00114842 0)
(1.80527e-05 0.000889809 0)
(1.82475e-05 0.000932368 0)
(2.06091e-05 0.00106708 0)
(1.66536e-05 0.000789699 0)
(0.000341374 0.003775 0)
(0.000374053 0.00310957 0)
(0.000363147 0.00346423 0)
(0.000314193 0.00219181 0)
(0.000389397 0.00295873 0)
(0.000118455 0.000689485 0)
(0.000211156 0.00128639 0)
(0.000300192 0.00423094 0)
(0.000254198 0.00427575 0)
(0.000212358 0.00428127 0)
(0.000189259 0.00421634 0)
(0.000147002 0.00400633 0)
(0.000343261 0.00408384 0)
(0.000108143 0.00374241 0)
(1.06837e-05 0.000460951 0)
(7.9612e-06 0.000329999 0)
(9.08249e-06 0.000386087 0)
(6.32035e-06 0.000259416 0)
(1.25176e-05 0.000559282 0)
(4.63395e-06 0.000190685 0)
(3.84501e-06 0.000157838 0)
(2.43268e-06 9.98498e-05 0)
(1.73318e-06 7.11917e-05 0)
(5.52336e-07 2.29312e-05 0)
(1.34528e-05 0.00061192 0)
(1.54781e-05 0.000727556 0)
(6.87281e-05 0.00345086 0)
(5.33355e-05 0.00297437 0)
(4.51527e-05 0.00265073 0)
(3.59907e-05 0.00238939 0)
(2.76555e-05 0.00176465 0)
(2.94781e-05 0.00164476 0)
(2.79455e-05 0.00186727 0)
(2.93216e-05 0.00213418 0)
(2.53232e-05 0.00144228 0)
(2.41293e-05 0.0012937 0)
(2.23124e-05 0.00120575 0)
(1.66179e-05 0.00081917 0)
(1.71312e-05 0.000918019 0)
(1.89878e-05 0.00104505 0)
(0.000373939 0.00379746 0)
(0.000397517 0.00346355 0)
(0.000358819 0.00231414 0)
(0.000439088 0.00312795 0)
(0.000109864 0.000597412 0)
(0.0002695 0.00157667 0)
(0.000318806 0.00457683 0)
(0.000266101 0.00453495 0)
(0.000225541 0.00458885 0)
(0.000183559 0.00442047 0)
(0.000144385 0.00421111 0)
(0.000374914 0.00439417 0)
(9.80511e-05 0.00391867 0)
(1.05018e-05 0.000467705 0)
(9.60601e-06 0.000414234 0)
(7.4761e-06 0.000316053 0)
(7.97894e-06 0.000342465 0)
(6.13103e-06 0.000256496 0)
(1.12237e-05 0.000508615 0)
(4.72395e-06 0.000197889 0)
(3.3317e-06 0.000138286 0)
(2.68594e-06 0.000111343 0)
(1.51566e-06 6.28148e-05 0)
(2.14571e-07 8.96374e-06 0)
(1.02358e-06 4.2606e-05 0)
(1.30458e-05 0.000615784 0)
(1.41144e-05 0.000678446 0)
(6.83393e-05 0.00366438 0)
(5.49877e-05 0.00333263 0)
(4.93014e-05 0.00314325 0)
(4.51269e-05 0.00280398 0)
(3.71974e-05 0.00253622 0)
(2.97255e-05 0.00227777 0)
(2.47939e-05 0.00165867 0)
(2.60254e-05 0.00159366 0)
(2.41609e-05 0.00188223 0)
(2.44571e-05 0.00202081 0)
(2.42314e-05 0.00149596 0)
(2.35002e-05 0.00134652 0)
(2.03375e-05 0.00117143 0)
(1.51985e-05 0.00078023 0)
(1.74375e-05 0.000972911 0)
(1.57014e-05 0.000858134 0)
(1.88901e-05 0.00109336 0)
(0.00041379 0.00413649 0)
(0.000452174 0.00384073 0)
(0.000431008 0.0028019 0)
(0.000340377 0.00203741 0)
(0.00049643 0.00358256 0)
(0.000205034 0.0010587 0)
(4.50576e-05 0.000232052 0)
(0.00026921 0.00144111 0)
(0.000349965 0.00474185 0)
(0.000295437 0.00469586 0)
(0.000249093 0.00469873 0)
(0.000204871 0.00465471 0)
(0.000164578 0.00441044 0)
(0.000127904 0.0042856 0)
(0.000374264 0.00465677 0)
(0.000412115 0.00442116 0)
(0.000107785 0.00418453 0)
(7.82116e-05 0.00385015 0)
(9.46973e-06 0.000426236 0)
(8.96853e-06 0.000396929 0)
(6.67394e-06 0.000283085 0)
(7.48187e-06 0.000328243 0)
(5.39161e-06 0.000227446 0)
(1.05289e-05 0.000492969 0)
(4.00652e-06 0.000169502 0)
(3.39489e-06 0.00014283 0)
(2.35126e-06 9.84969e-05 0)
(1.85769e-06 7.77768e-05 0)
(3.53314e-07 1.48886e-05 0)
(1.05174e-06 4.41763e-05 0)
(1.17837e-05 0.000570211 0)
(1.35755e-05 0.000677407 0)
(4.91892e-05 0.00366201 0)
(4.35094e-05 0.00347758 0)
(3.62493e-05 0.00308545 0)
(3.43865e-05 0.00277172 0)
(3.11532e-05 0.00259931 0)
(2.3788e-05 0.00231332 0)
(2.13116e-05 0.00160256 0)
(2.00877e-05 0.00177412 0)
(1.97008e-05 0.00203083 0)
(2.11635e-05 0.00143796 0)
(2.1e-05 0.00129832 0)
(1.96751e-05 0.00121234 0)
(1.49403e-05 0.000802231 0)
(1.39906e-05 0.000718538 0)
(1.60859e-05 0.000950901 0)
(1.46589e-05 0.000845511 0)
(1.73008e-05 0.00106011 0)
(0.000455604 0.00418269 0)
(0.000499179 0.00390611 0)
(0.000488429 0.00293935 0)
(0.000399779 0.00219657 0)
(0.000558082 0.00370261 0)
(0.000211361 0.000981771 0)
(0.000112597 0.000520273 0)
(0.000356986 0.00182995 0)
(0.000362065 0.00505978 0)
(0.000295868 0.00493767 0)
(0.000263686 0.00493252 0)
(0.000199183 0.00483944 0)
(0.000158516 0.00459931 0)
(0.000135225 0.00453673 0)
(0.00040629 0.00493323 0)
(0.000445828 0.00472409 0)
(9.11454e-05 0.00434007 0)
(6.47546e-05 0.00400982 0)
(8.99915e-06 0.000414591 0)
(7.96129e-06 0.000354951 0)
(6.17298e-06 0.000266656 0)
(6.48574e-06 0.000285116 0)
(5.425e-06 0.00023315 0)
(1.07361e-05 0.000517079 0)
(9.39368e-06 0.000441688 0)
(4.0373e-06 0.000173481 0)
(2.73388e-06 0.000115543 0)
(1.50188e-06 6.33175e-05 0)
(1.35984e-07 5.74954e-06 0)
(7.13233e-07 3.0101e-05 0)
(1.15234e-05 0.000579517 0)
(1.23129e-05 0.000626553 0)
(4.51263e-05 0.00385121 0)
(3.31575e-05 0.00339546 0)
(2.99907e-05 0.00288937 0)
(3.07155e-05 0.00320148 0)
(2.36119e-05 0.00248645 0)
(1.86829e-05 0.00217674 0)
(1.96158e-05 0.00147869 0)
(1.9204e-05 0.00164588 0)
(1.62182e-05 0.00178656 0)
(1.5693e-05 0.00190524 0)
(1.98225e-05 0.00133704 0)
(1.75999e-05 0.00115959 0)
(1.34865e-05 0.000754201 0)
(1.28578e-05 0.000684983 0)
(1.60356e-05 0.000990805 0)
(1.47866e-05 0.000884921 0)
(1.33947e-05 0.00077996 0)
(1.66779e-05 0.00108744 0)
(0.000496488 0.00453059 0)
(0.000555495 0.00435144 0)
(0.000474865 0.00260028 0)
(0.000556498 0.00337709 0)
(0.000614237 0.00410512 0)
(0.000296184 0.00129873 0)
(6.97248e-05 0.000288047 0)
(0.000377352 0.00176265 0)
(0.000346141 0.00524762 0)
(0.000397328 0.00515769 0)
(0.000314676 0.00516966 0)
(0.000259472 0.00513137 0)
(0.00021012 0.00507087 0)
(0.000171784 0.00479036 0)
(0.000122858 0.00467938 0)
(0.000438624 0.00496537 0)
(0.000486437 0.00478085 0)
(9.81777e-05 0.00458895 0)
(6.88951e-05 0.00423114 0)
(8.07378e-06 0.000373942 0)
(7.54182e-06 0.000343665 0)
(5.92958e-06 0.000265084 0)
(4.78249e-06 0.000207371 0)
(9.57638e-06 0.000475802 0)
(8.71274e-06 0.000419182 0)
(3.48538e-06 0.00015092 0)
(2.52816e-06 0.000108014 0)
(1.50489e-06 6.40558e-05 0)
(1.58856e-07 6.75286e-06 0)
(7.43969e-07 3.16316e-05 0)
(1.04303e-05 0.000538045 0)
(1.19955e-05 0.000633318 0)
(2.74429e-05 0.00392294 0)
(2.01443e-05 0.00338211 0)
(1.93585e-05 0.00285242 0)
(2.00919e-05 0.00318599 0)
(1.66903e-05 0.00252654 0)
(1.31065e-05 0.00216352 0)
(1.63953e-05 0.00139757 0)
(1.60741e-05 0.00155777 0)
(1.31726e-05 0.00167745 0)
(1.1069e-05 0.0019053 0)
(1.73954e-05 0.0012737 0)
(1.65268e-05 0.00118376 0)
(1.26073e-05 0.000699602 0)
(1.46224e-05 0.000967596 0)
(1.36334e-05 0.000862053 0)
(1.24636e-05 0.00075813 0)
(1.4865e-05 0.00102329 0)
(0.000546413 0.00462681 0)
(0.000609372 0.00442578 0)
(0.00053742 0.00271565 0)
(0.000628656 0.0034856 0)
(0.000676267 0.00418282 0)
(0.000329862 0.00129035 0)
(0.000133912 0.000488734 0)
(0.000463637 0.00203975 0)
(0.000366431 0.00554981 0)
(0.000418617 0.00541083 0)
(0.00029111 0.00532459 0)
(0.000234891 0.00519964 0)
(0.000182865 0.00517944 0)
(0.000162578 0.00498773 0)
(0.000135561 0.0049397 0)
(0.00046683 0.00524431 0)
(0.000517847 0.00508122 0)
(8.1244e-05 0.00472947 0)
(4.84681e-05 0.00436987 0)
(7.50939e-06 0.000355406 0)
(6.65426e-06 0.000307122 0)
(6.02784e-06 0.000275996 0)
(5.08103e-06 0.000227382 0)
(4.62782e-06 0.000204423 0)
(8.72839e-06 0.000431398 0)
(9.50202e-06 0.000487021 0)
(7.77165e-06 0.000374358 0)
(3.41729e-06 0.000150318 0)
(2.85313e-06 0.000123218 0)
(1.89902e-06 8.13439e-05 0)
(1.0779e-06 4.60308e-05 0)
(3.26165e-08 1.38823e-06 0)
(2.87887e-07 1.22642e-05 0)
(5.06284e-07 2.15765e-05 0)
(1.01999e-05 0.000545543 0)
(1.09851e-05 0.000594371 0)
(1.03219e-05 0.00374799 0)
(2.52546e-05 0.00421442 0)
(1.03847e-05 0.00348108 0)
(1.44695e-05 0.00269595 0)
(1.39703e-05 0.00303146 0)
(1.02694e-05 0.00240668 0)
(9.69826e-06 0.0020184 0)
(9.53812e-06 0.00226381 0)
(1.5617e-05 0.00129502 0)
(1.48619e-05 0.00143317 0)
(1.36341e-05 0.00157807 0)
(9.31266e-06 0.00166536 0)
(7.82192e-06 0.00177103 0)
(1.46013e-05 0.00111674 0)
(1.13796e-05 0.000650977 0)
(1.35211e-05 0.000903921 0)
(1.25761e-05 0.000800345 0)
(1.12515e-05 0.000695911 0)
(1.39098e-05 0.00103035 0)
(0.000578233 0.004956 0)
(0.000660747 0.00478235 0)
(0.000535415 0.00244158 0)
(0.000621485 0.00315449 0)
(0.000692879 0.00389014 0)
(0.000720921 0.00451523 0)
(0.000264761 0.000952897 0)
(0.000451219 0.00173752 0)
(6.57177e-05 0.000207418 0)
(0.000352335 0.00575687 0)
(0.000405104 0.00561416 0)
(0.000455304 0.00546578 0)
(0.000292257 0.00554682 0)
(0.000235628 0.0054495 0)
(0.000181524 0.00542235 0)
(0.000119541 0.00509521 0)
(0.000504401 0.00529812 0)
(0.000558741 0.00514909 0)
(8.98717e-05 0.0049746 0)
(5.3081e-05 0.00462307 0)
(6.63172e-06 0.000313354 0)
(5.18877e-06 0.000240047 0)
(4.70205e-06 0.000214395 0)
(3.85875e-06 0.000171351 0)
(7.71179e-06 0.000387434 0)
(8.5768e-06 0.000451925 0)
(7.18039e-06 0.00035426 0)
(2.79593e-06 0.000123372 0)
(2.49705e-06 0.000109013 0)
(1.68977e-06 7.31384e-05 0)
(9.74216e-07 4.19509e-05 0)
(3.64552e-08 1.55581e-06 0)
(1.4971e-07 6.39288e-06 0)
(4.59896e-07 1.97269e-05 0)
(9.29859e-06 0.000508816 0)
(1.06472e-05 0.000599274 0)
(-1.12079e-05 0.003821 0)
(-8.53441e-07 0.0043004 0)
(-3.66767e-06 0.00334431 0)
(4.31589e-06 0.00265682 0)
(1.98423e-06 0.00299337 0)
(3.15561e-06 0.00248173 0)
(4.46725e-06 0.00201714 0)
(3.35254e-06 0.00215644 0)
(1.37215e-05 0.00121358 0)
(1.2384e-05 0.00138589 0)
(1.14912e-05 0.00147544 0)
(7.63397e-06 0.001549 0)
(3.83367e-06 0.00176328 0)
(1.34769e-05 0.00112719 0)
(1.08083e-05 0.000649652 0)
(1.21371e-05 0.000863211 0)
(1.16209e-05 0.000775354 0)
(1.05295e-05 0.000684607 0)
(1.21569e-05 0.000960523 0)
(0.000625323 0.00513836 0)
(0.000662162 0.00509559 0)
(0.000711777 0.00478157 0)
(0.000628819 0.00266216 0)
(0.000684537 0.00312053 0)
(0.00076091 0.00400376 0)
(0.000781915 0.00461395 0)
(0.000293206 0.000911044 0)
(0.000546578 0.00190774 0)
(0.000161029 0.000461854 0)
(0.000376201 0.00602258 0)
(0.000318726 0.00574171 0)
(0.000429473 0.00588375 0)
(0.00047681 0.00570071 0)
(0.000261688 0.00559822 0)
(0.00021012 0.00556539 0)
(0.000153902 0.00548937 0)
(0.000127214 0.00532909 0)
(0.000533019 0.00559355 0)
(0.000587104 0.0054265 0)
(7.24303e-05 0.00509483 0)
(3.57598e-05 0.00477338 0)
(5.97228e-06 0.000287929 0)
(4.87748e-06 0.000229966 0)
(3.96099e-06 0.000181291 0)
(3.56163e-06 0.000160848 0)
(7.38246e-06 0.000379974 0)
(8.57708e-06 0.000465947 0)
(7.78168e-06 0.000409676 0)
(6.25428e-06 0.000309164 0)
(2.51876e-06 0.00011248 0)
(1.96686e-06 8.59156e-05 0)
(1.20977e-06 5.24408e-05 0)
(6.128e-07 2.64071e-05 0)
(1.86645e-07 7.99306e-06 0)
(8.99814e-06 0.00051094 0)
(9.55054e-06 0.000550902 0)
(-2.44996e-05 0.00361531 0)
(-1.94767e-05 0.00407761 0)
(-6.54967e-06 0.00454088 0)
(-1.86238e-05 0.00341101 0)
(-5.95133e-06 0.0031263 0)
(-2.09417e-06 0.00277435 0)
(-2.17224e-06 0.00238089 0)
(1.80907e-06 0.0018951 0)
(-1.29465e-06 0.00220002 0)
(1.19593e-05 0.00118314 0)
(1.0705e-05 0.00128891 0)
(9.12263e-06 0.00146137 0)
(4.51103e-06 0.00147648 0)
(1.11027e-06 0.00165093 0)
(1.18575e-05 0.00106185 0)
(9.78508e-06 0.000598082 0)
(1.13442e-05 0.000798613 0)
(1.14487e-05 0.000881679 0)
(1.07818e-05 0.000723926 0)
(9.58033e-06 0.000639766 0)
(1.11973e-05 0.000978256 0)
(0.000629301 0.00544711 0)
(0.000718216 0.00540503 0)
(0.000760539 0.0050495 0)
(0.000655842 0.002425 0)
(0.000775581 0.00343186 0)
(0.000803878 0.00440603 0)
(0.000802595 0.00384573 0)
(0.00080705 0.00494968 0)
(0.000393686 0.00112978 0)
(0.000528882 0.00157697 0)
(0.000183121 0.000460018 0)
(0.000414159 0.0060802 0)
(0.000360594 0.00621513 0)
(0.000306747 0.00596931 0)
(0.000465001 0.00591019 0)
(0.000515595 0.00577156 0)
(0.000254908 0.00579422 0)
(0.000219375 0.00578092 0)
(0.000144621 0.00571488 0)
(0.000101528 0.00544611 0)
(0.000575484 0.00565127 0)
(7.76294e-05 0.00533289 0)
(4.76818e-05 0.00500846 0)
(1.20542e-05 0.00473135 0)
(5.18436e-06 0.000249442 0)
(3.99328e-06 0.000189202 0)
(3.56391e-06 0.00016634 0)
(2.84793e-06 0.000128814 0)
(6.47998e-06 0.000338215 0)
(7.80441e-06 0.000436328 0)
(7.08236e-06 0.000382423 0)
(5.70624e-06 0.000288201 0)
(1.86942e-06 8.34413e-05 0)
(1.63084e-06 7.19913e-05 0)
(9.6512e-07 4.21816e-05 0)
(3.84921e-07 1.67293e-05 0)
(7.5813e-08 3.25472e-06 0)
(8.02491e-06 0.000461135 0)
(9.2448e-06 0.000552324 0)
(-4.51759e-05 0.00362576 0)
(-4.41003e-05 0.00407409 0)
(-3.3161e-05 0.00462269 0)
(-2.73954e-05 0.00321364 0)
(-1.8812e-05 0.00305101 0)
(-1.30137e-05 0.00270192 0)
(-8.63686e-06 0.00239585 0)
(-3.18389e-06 0.00184745 0)
(-6.84025e-06 0.00211617 0)
(1.07533e-05 0.00120468 0)
(1.09881e-05 0.00108479 0)
(8.27802e-06 0.0012746 0)
(7.53652e-06 0.00136005 0)
(1.74701e-06 0.00151339 0)
(5.00565e-06 0.00135378 0)
(-3.00806e-06 0.00168636 0)
(9.06005e-06 0.000576292 0)
(1.01445e-05 0.000741525 0)
(1.00268e-05 0.000809944 0)
(9.91813e-06 0.000701524 0)
(8.96666e-06 0.000592449 0)
(9.25797e-06 0.000652063 0)
(9.67356e-06 0.000918987 0)
(0.000663985 0.00570531 0)
(0.000766232 0.00534871 0)
(0.000714936 0.00571183 0)
(0.000778105 0.00268251 0)
(0.000843198 0.00325086 0)
(0.000861646 0.0044626 0)
(0.000872049 0.00412525 0)
(0.000859923 0.00514165 0)
(0.000354804 0.000843723 0)
(0.000639741 0.00165398 0)
(9.51683e-05 0.000209444 0)
(0.00043239 0.00631473 0)
(0.000326319 0.00617882 0)
(0.00038067 0.00644965 0)
(0.000273956 0.00596288 0)
(0.000494201 0.00611838 0)
(0.000530407 0.00603314 0)
(0.000209183 0.005928 0)
(0.000156485 0.00591645 0)
(0.000108191 0.00566507 0)
(0.000603891 0.00588733 0)
(5.07693e-05 0.00537982 0)
(3.4038e-05 0.00516939 0)
(-1.74499e-06 0.00492476 0)
(4.43651e-06 0.000217138 0)
(3.74588e-06 0.000181087 0)
(2.78441e-06 0.000129851 0)
(2.46316e-06 0.000112941 0)
(5.86112e-06 0.000303702 0)
(6.39398e-06 0.000343014 0)
(7.10254e-06 0.00039504 0)
(4.83766e-06 0.000245546 0)
(1.48255e-06 6.68688e-05 0)
(1.1235e-06 4.95345e-05 0)
(5.02169e-07 2.19741e-05 0)
(1.21846e-07 5.29049e-06 0)
(7.45829e-06 0.000443367 0)
(8.42545e-06 0.000515293 0)
(-5.5532e-05 0.00383172 0)
(-5.31199e-05 0.00338963 0)
(-6.12666e-05 0.0042565 0)
(-2.90447e-05 0.00486822 0)
(-5.83634e-05 0.00450384 0)
(-4.18022e-05 0.00318786 0)
(-2.20395e-05 0.00284478 0)
(-1.40996e-05 0.00251739 0)
(-1.14553e-05 0.0022254 0)
(-7.45071e-06 0.0019428 0)
(8.87137e-06 0.00109557 0)
(9.37525e-06 0.00103767 0)
(6.8549e-06 0.00117682 0)
(-8.85639e-07 0.00140413 0)
(3.66146e-06 0.00125163 0)
(-5.63391e-06 0.0015807 0)
(8.32746e-06 0.00052816 0)
(9.53283e-06 0.000738169 0)
(9.14162e-06 0.000798106 0)
(8.09741e-06 0.00055233 0)
(8.32473e-06 0.000608101 0)
(8.96126e-06 0.000842852 0)
(8.72533e-06 0.000951385 0)
(0.000649767 0.00591999 0)
(0.000815505 0.00555351 0)
(0.000752571 0.0059631 0)
(0.000828257 0.00245309 0)
(0.000936641 0.00352961 0)
(0.000909991 0.00473067 0)
(0.000936748 0.00419891 0)
(0.000911473 0.00504338 0)
(0.000862472 0.0054452 0)
(0.000446996 0.000927713 0)
(0.000592515 0.00128468 0)
(0.000766849 0.00200144 0)
(0.000175018 0.000280921 0)
(0.00041393 0.00648582 0)
(0.000466288 0.00641516 0)
(0.000310863 0.00636101 0)
(0.000362708 0.00664054 0)
(0.000260548 0.0061386 0)
(0.000495182 0.00634067 0)
(0.000565428 0.00618048 0)
(0.000231642 0.00611643 0)
(0.00018407 0.00598676 0)
(0.000130877 0.00608473 0)
(8.7178e-05 0.00581368 0)
(0.000597759 0.00610667 0)
(3.89592e-05 0.00555766 0)
(9.28362e-06 0.00512829 0)
(4.32564e-06 0.000216563 0)
(3.01062e-06 0.000146986 0)
(2.29494e-06 0.000108563 0)
(1.75095e-06 8.00484e-05 0)
(5.01999e-06 0.00026517 0)
(5.70693e-06 0.000311801 0)
(6.38331e-06 0.000361998 0)
(4.45863e-06 0.000232624 0)
(7.4443e-07 3.34012e-05 0)
(6.4112e-07 2.84857e-05 0)
(2.29019e-07 1.01195e-05 0)
(6.46156e-06 0.000387943 0)
(7.67899e-06 0.000470353 0)