/*--------------------------------*- C++ -*----------------------------------*\
| =========                 |                                                 |
| \\      /  F ield         | OpenFOAM: The Open Source CFD Toolbox           |
|  \\    /   O peration     | Version:  v2012                                 |
|   \\  /    A nd           | Website:  www.openfoam.com                      |
|    \\/     M anipulation  |                                                 |
\*---------------------------------------------------------------------------*/
FoamFile
{
    version     2.0;
    format      ascii;
    class       volScalarField;
    location    "1.1";
    object      k;
}
// * * * * * * * * * * * * * * * * * * * * * * * * * * * * * * * * * * * * * //

dimensions      [0 2 -2 0 0 0 0];


internalField   nonuniform List<scalar> 
13611
(
0.000528925
0.000542991
0.000560006
0.000575992
0.000538724
0.000584984
0.000582721
0.000581499
0.000534161
0.000553911
0.000622784
0.000609406
0.000571894
0.000596945
0.000530126
0.000547431
0.000622874
0.00065103
0.000617932
0.000559085
0.000584656
0.000612683
0.000521104
0.000535183
0.000548364
0.000649053
0.000673477
0.000637049
0.000554802
0.00056837
0.00059237
0.000622848
0.000509016
0.000526465
0.000532226
0.000651136
0.000666817
0.000691575
0.000642249
0.00053862
0.000563964
0.000589895
0.000607913
0.000616099
0.000505272
0.000497286
0.000514878
0.000526795
0.000672005
0.000683236
0.000710411
0.000657185
0.000537267
0.000575821
0.000549958
0.00060367
0.000617811
0.000632785
0.000494658
0.000486032
0.000502622
0.000513286
0.000688384
0.00067662
0.000701069
0.000736895
0.000649096
0.000524004
0.000574011
0.000547315
0.00060417
0.000631427
0.000493577
0.000485124
0.000474958
0.000501838
0.000512507
0.000709246
0.000693982
0.000718676
0.000763724
0.000663958
0.000523658
0.00055892
0.000586265
0.000535806
0.0006179
0.000647532
0.000483514
0.000476631
0.000465821
0.00048962
0.000498951
0.000726326
0.000682386
0.000711749
0.000742999
0.000755528
0.000804376
0.000667323
0.000515861
0.000552792
0.000582294
0.000530836
0.000610486
0.000629955
0.000646232
0.000480952
0.000476057
0.000466558
0.00045442
0.000488384
0.000495445
0.000748048
0.000697175
0.000715084
0.0007674
0.000787284
0.000879086
0.00068673
0.000506704
0.000519725
0.000538898
0.000562238
0.000575493
0.000598669
0.000621109
0.000665798
0.000469151
0.000466463
0.00046171
0.000450974
0.000478082
0.000487514
0.000736097
0.000706736
0.000791861
0.000811188
0.00081204
0.00123987
0.000687432
0.00049965
0.000510036
0.000538414
0.000550627
0.000584802
0.000599846
0.000634013
0.000668313
0.000467869
0.000462355
0.000452718
0.000433739
0.00047222
0.000477373
0.000490135
0.000753586
0.000728595
0.000796451
0.000830342
0.000838869
0.000785152
0.000710049
0.000500359
0.000513524
0.000527366
0.000556095
0.000573773
0.000612737
0.000651817
0.000627643
0.000690152
0.0004605
0.000451945
0.000447135
0.000425313
0.000484303
0.00046228
0.000469498
0.000484491
0.000784421
0.000747785
0.000731522
0.000830423
0.000848206
0.000859706
0.000959241
0.000711958
0.000488957
0.000506331
0.000526654
0.000551697
0.000579659
0.000607286
0.000652402
0.000637033
0.00068948
0.000450998
0.000446115
0.000439105
0.00042289
0.000347208
0.000455971
0.000459914
0.000473376
0.000808828
0.000769408
0.000753808
0.00085391
0.000917822
0.00089328
0.000951104
0.000733688
0.000486756
0.00051234
0.000496263
0.000538015
0.000562941
0.000576247
0.000596054
0.000622752
0.000669423
0.000712277
0.000444806
0.000435472
0.000433408
0.0003458
0.000426152
0.00103181
0.000447572
0.000451355
0.000468997
0.000794118
0.000839613
0.000766481
0.000855091
0.000892154
0.000945403
0.000996323
0.000966625
0.000754262
0.000732741
0.000476806
0.000507853
0.000487594
0.00053649
0.000559144
0.000586689
0.000600549
0.000629991
0.000672874
0.000713937
0.000435722
0.000430555
0.000424665
0.00033151
0.00042073
0.000432892
0.000439461
0.000450511
0.000441968
0.000459218
0.000811386
0.000860732
0.000796538
0.00089243
0.000926084
0.000968037
0.00103379
0.00100567
0.000770346
0.000753103
0.000478065
0.000498331
0.000517931
0.000488615
0.000547246
0.000527279
0.00057007
0.00058566
0.000614541
0.000648273
0.000695891
0.000663973
0.000737628
0.000433127
0.000420693
0.000416762
0.000357
0.000418258
0.000943042
0.000442159
0.000435357
0.000459587
0.000845316
0.000894433
0.000812137
0.000921576
0.00096455
0.00101416
0.00107635
0.000794478
0.000764754
0.000469645
0.000500911
0.000510416
0.0004791
0.000536614
0.000526922
0.000567785
0.000598566
0.000614386
0.000645856
0.000695184
0.000676556
0.00073366
0.000759738
0.000426132
0.000415092
0.000410959
0.00033934
0.000419046
0.000515108
0.000435828
0.000437929
0.000427248
0.000452171
0.000867438
0.000927021
0.000843215
0.00095675
0.00100307
0.00105577
0.00109846
0.00111294
0.00080679
0.00079248
0.000469456
0.000491978
0.000514328
0.000475923
0.000541674
0.000581921
0.00055671
0.000595798
0.000629042
0.0006599
0.000712171
0.000675232
0.000753471
0.000781088
0.00041956
0.000422384
0.000408545
0.00039715
0.000361595
0.000404413
0.000389788
0.000429319
0.000430146
0.000443117
0.000424154
0.000454159
0.000902496
0.000931084
0.000963661
0.000854532
0.000990727
0.00104101
0.00106818
0.00114576
0.00117583
0.000837289
0.000806161
0.000463037
0.000491313
0.000482095
0.000510364
0.000465843
0.000532073
0.000582731
0.000560651
0.000608944
0.000622936
0.000662276
0.000709527
0.000691641
0.000751108
0.000779449
0.000413968
0.000414928
0.000399598
0.000408408
0.000351062
0.000399193
0.000927775
0.000316632
0.00042443
0.000435851
0.000417437
0.000448016
0.000909817
0.000971786
0.00100247
0.000891388
0.00102577
0.00106221
0.00112137
0.00116499
0.00118064
0.00123436
0.000855782
0.000832411
0.000479727
0.000499994
0.00047552
0.000520274
0.000460728
0.000537035
0.000597123
0.000573482
0.000550198
0.000609429
0.000634603
0.000651006
0.000681485
0.000727495
0.000771976
0.000805076
0.000408253
0.00039352
0.000402413
0.000373553
0.000392006
0.00110045
0.000258805
0.000416841
0.000427498
0.000438435
0.000409915
0.000451068
0.000951599
0.00101061
0.00103976
0.000914343
0.00110582
0.00116438
0.00122083
0.00123883
0.00130657
0.000889432
0.000842378
0.000479745
0.000501858
0.000465649
0.000512162
0.000531032
0.000594966
0.000579021
0.000550421
0.000622822
0.000659721
0.000691879
0.000715124
0.000797152
0.000771086
0.000832463
0.000401389
0.000387164
0.000395821
0.000376985
0.000384715
0.000557758
0.000284591
0.00041087
0.000420061
0.000432613
0.000402522
0.000445397
0.000978501
0.00105129
0.00108703
0.000953855
0.00114719
0.00121288
0.00125413
0.00129785
0.00138714
0.000901995
0.000877892
0.000467545
0.000490506
0.000460914
0.000517929
0.000537408
0.000606049
0.000575459
0.00056137
0.000629885
0.000649049
0.000680146
0.000728312
0.000818346
0.000799733
0.000754157
0.000855569
0.00039536
0.000378724
0.000389625
0.000385069
0.000376816
0.000449693
0.000289342
0.000402844
0.000412734
0.000418589
0.000425152
0.000436774
0.000396045
0.000450374
0.00102281
0.00108365
0.00107188
0.00113443
0.000976315
0.00121058
0.00124247
0.00131213
0.00136099
0.00147586
0.000943628
0.000888597
0.000462911
0.000490718
0.000512212
0.000532118
0.000603712
0.000620914
0.000588237
0.000555288
0.00065834
0.000690507
0.000712794
0.000848945
0.000813533
0.0007647
0.000388862
0.000382295
0.000383327
0.000369207
0.000359234
0.000283361
0.000398141
0.000407466
0.000412077
0.000420484
0.000429798
0.000389854
0.000442586
0.00104394
0.0010525
0.00113303
0.00112985
0.00118035
0.00102333
0.00125327
0.00131241
0.00133994
0.00143273
0.00157722
0.0014824
0.000958414
0.000921983
0.000454756
0.000471095
0.00048073
0.000502451
0.000520182
0.000540927
0.000616289
0.000630018
0.000581802
0.00056484
0.000646535
0.000678487
0.000721776
0.000878783
0.000790068
0.000841582
0.000745369
0.000383253
0.000376617
0.000371741
0.000360924
0.000366375
0.000280546
0.000854577
0.000281762
0.00039247
0.000401114
0.000406965
0.000413017
0.000422912
0.000427397
0.000387921
0.000384174
0.000433122
0.000445729
0.0010915
0.00109936
0.00117595
0.00117489
0.00123177
0.00105608
0.00132835
0.00135715
0.00141725
0.00147735
0.00169582
0.00158491
0.00100361
0.000929369
0.000455142
0.000462422
0.000482228
0.000502717
0.000512824
0.000534797
0.000623291
0.00059345
0.000560045
0.000655523
0.000688365
0.000710113
0.000867399
0.000914007
0.000792314
0.000840137
0.000750161
0.000376809
0.000370541
0.00036342
0.000366836
0.000360434
0.000264879
4.71603e-05
0.000329392
0.000388116
0.000398464
0.000401623
0.000409149
0.000418051
0.000419652
0.000383199
0.000379214
0.000428986
0.00044148
0.00113013
0.00115225
0.0012247
0.00123817
0.00127622
0.00104606
0.00111264
0.00138228
0.0014355
0.00156566
0.00183374
0.00168615
0.00100493
0.000972085
0.000446394
0.000464894
0.000492626
0.000474448
0.000520033
0.000543989
0.000643948
0.0006117
0.000586464
0.000571017
0.000676556
0.000721776
0.000893773
0.000937339
0.000775286
0.000819817
0.000870692
0.000743866
0.000372522
0.000365628
0.000361241
0.000358263
0.000357687
0.000315714
0.000777323
0.000339768
0.000389118
0.000383568
0.000393638
0.000397161
0.000403902
0.000412502
0.000416586
0.000378746
0.000374259
0.000421271
0.000433524
0.00118234
0.00119652
0.00130117
0.00133882
0.00109682
0.0011494
0.00146217
0.00151556
0.00164937
0.00197228
0.00180471
0.00104905
0.000974169
0.00044028
0.000463482
0.000491112
0.00047126
0.00051219
0.000540016
0.000654197
0.000619588
0.000596042
0.000563977
0.0006875
0.000710702
0.000927248
0.000785038
0.000829318
0.000885201
0.000761801
0.000366636
0.000360491
0.000352441
0.00035185
0.000352785
0.000344563
0.000144644
0.000349703
0.000383869
0.000379635
0.000391978
0.000398874
0.000402564
0.000407107
0.000408953
0.000374765
0.000370209
0.000416879
0.000426805
0.00122521
0.00126068
0.00131194
0.00136467
0.0013845
0.00114969
0.00109586
0.00120593
0.00150545
0.0015144
0.00161875
0.00177375
0.0021308
0.00198508
0.00193192
0.00104956
0.00100769
0.00044528
0.000429468
0.000456781
0.000500582
0.000479353
0.000518882
0.000551484
0.000529713
0.000675158
0.000638967
0.00061221
0.000588319
0.000572574
0.000723897
0.000957869
0.000808954
0.000858824
0.000921847
0.000751112
0.000363531
0.0003561
0.000346785
0.000348272
0.000349257
0.000350255
0.000248737
0.00035255
0.000843592
0.000380802
0.000379946
0.000375329
0.000388465
0.000394325
0.000396531
0.000405715
0.000370529
0.000366273
0.000410311
0.000419495
0.00128541
0.00138909
0.00143402
0.00147713
0.00120532
0.00114972
0.00125157
0.00160295
0.00161741
0.00172531
0.00188252
0.00230935
0.00216606
0.00203978
0.00108997
0.000999877
0.000439933
0.000424575
0.00045962
0.0004988
0.00047831
0.000507543
0.000542255
0.000531042
0.000687076
0.000640243
0.000621776
0.000597828
0.000562962
0.000711365
0.000958352
0.000820998
0.000864257
0.000917725
0.000769209
0.000359988
0.000356266
0.000352221
0.000341252
0.000342663
0.00034512
0.000346412
0.000245798
0.000351142
0.000399636
0.000375967
0.000383594
0.000375504
0.000372294
0.000390096
0.000392579
0.000394736
0.000400185
0.000366943
0.000362974
0.000406475
0.000413119
0.00135194
0.00143886
0.00151881
0.00154941
0.00124224
0.00113387
0.00120235
0.00132373
0.00168551
0.00171375
0.00185297
0.00202841
0.00220599
0.00108379
0.0010375
0.000445014
0.000430047
0.000417312
0.000453952
0.000469475
0.000488256
0.000508659
0.000547496
0.00052138
0.000685968
0.00065633
0.000614993
0.000597373
0.00056832
0.000724016
0.000996382
0.000852228
0.000799915
0.000895178
0.000950791
0.000747861
0.000359803
0.000352425
0.000348885
0.000337646
0.000338917
0.000343881
0.000340393
0.000345817
0.000248986
0.000328063
0.000116308
0.000373092
0.000374842
0.000381584
0.000372447
0.000367986
0.000387437
0.000388536
0.000391178
0.000397851
0.000363119
0.000400801
0.000407865
0.000411937
0.00142862
0.00154109
0.00159803
0.00165804
0.00131334
0.00117115
0.00122894
0.00138572
0.0018092
0.0018291
0.00197693
0.00218702
0.00234346
0.0011277
0.0010289
0.000438847
0.000425942
0.00041134
0.000457384
0.00046679
0.000485035
0.000503213
0.00054403
0.000519691
0.000675506
0.000707692
0.000643176
0.000625689
0.000583045
0.000612796
0.000554332
0.00101328
0.000872561
0.000815195
0.000904253
0.000985845
0.000931248
0.000756202
0.000356402
0.000349011
0.000352807
0.000332416
0.00033336
0.000340476
0.000338159
0.000342972
0.000198749
0.000341163
0.000911563
0.000369607
0.00037772
0.000371045
0.000383843
0.000369045
0.00036654
0.000384999
0.000386849
0.000393149
0.00036017
0.000399082
0.00040271
0.000406411
0.00150714
0.00160026
0.00171678
0.00174833
0.00137455
0.00129394
0.00122459
0.00147415
0.00192836
0.00196511
0.00214277
0.00234516
0.00115608
0.00107333
0.000431015
0.000442403
0.00041909
0.000406174
0.000412502
0.000452277
0.000473538
0.000492954
0.000509618
0.000530299
0.000687941
0.00070935
0.000651898
0.000583799
0.00062103
0.000555712
0.00105515
0.000855884
0.000806453
0.0010033
0.000953091
0.000783033
0.00073043
0.000356227
0.000345896
0.000349867
0.000327665
0.000329852
0.00033826
0.000335139
0.000339607
0.000342947
0.000230979
0.000318584
0.00033106
0.000243279
0.000368707
0.000366325
0.000375689
0.000369691
0.000380848
0.000365963
0.000363316
0.000381325
0.000383868
0.000383936
0.000389565
0.000360485
0.000394512
0.000401989
0.00153406
0.00171357
0.00182067
0.00188752
0.00144565
0.00134729
0.00128125
0.00152878
0.00211149
0.00211871
0.00231002
0.0012281
0.00111512
0.000423905
0.000436614
0.000417845
0.000401704
0.000406492
0.000457333
0.000468492
0.000491112
0.000501703
0.000524274
0.000675394
0.000642021
0.000569864
0.000598473
0.000612849
0.000544978
0.00108063
0.000880333
0.000835391
0.000996551
0.00105407
0.000923255
0.000788824
0.00073525
0.000355104
0.000344684
0.000349843
0.000346724
0.000322219
0.000326614
0.000332051
0.000334799
0.000337142
0.000340838
0.00024058
0.000333147
0.00032275
0.000187343
0.00102799
0.000365306
0.000364096
0.000371926
0.000377372
0.000366383
0.000362156
0.000360981
0.000378802
0.000379789
0.000380041
0.000385251
0.00039035
0.000357486
0.000392946
0.000397099
0.00165463
0.00182063
0.00174663
0.00196534
0.00200867
0.0014303
0.00134718
0.00128773
0.00162034
0.00228917
0.00124138
0.00112791
0.000426436
0.000441224
0.000409837
0.000398273
0.000397254
0.00040448
0.000400859
0.000451856
0.000475124
0.000485792
0.000503003
0.000533786
0.000512995
0.000686263
0.000653264
0.000569541
0.000596336
0.000624191
0.000546196
0.000866527
0.000816757
0.00103256
0.00108173
0.000940587
0.000766944
0.000725173
0.000352324
0.000341605
0.000346997
0.000345233
0.000322595
0.000318794
0.000326545
0.000329192
0.000332872
0.000337821
0.000334256
0.000303599
0.000324642
0.000183847
0.00028724
0.000364165
0.000361576
0.000370047
0.000374729
0.000364107
0.000360186
0.00035823
0.000375502
0.000377906
0.000377602
0.000382231
0.000385727
0.000356435
0.000388865
0.00169182
0.00196575
0.00189219
0.00208585
0.00218354
0.0015121
0.0014162
0.00136331
0.0016698
0.00117876
0.00131127
0.000420694
0.000435777
0.000406673
0.000393355
0.000393317
0.000398283
0.00039674
0.000457591
0.00046876
0.000491445
0.000526296
0.00051514
0.000672303
0.000706428
0.000640235
0.00055691
0.000582583
0.0006095
0.000532109
0.000891615
0.000833962
0.00102067
0.00112852
0.000983886
0.000927291
0.000767554
0.000742371
0.000351686
0.000339737
0.000346706
0.000343035
0.000320099
0.000314689
0.000324244
0.000327999
0.000329816
0.000335946
0.000332055
0.00031323
0.000318314
0.000209819
0.0009942
0.000361471
0.00035891
0.000371939
0.000367534
0.000361155
0.000364944
0.000357569
0.000355562
0.000373052
0.0003742
0.000373826
0.000378699
0.000382488
0.000384713
0.000353725
0.000389325
0.00181832
0.00208416
0.00201107
0.0019361
0.00222524
0.00230538
0.0016207
0.00149456
0.00141083
0.00180764
0.00118964
0.00131314
0.00137722
0.000425434
0.000412748
0.000440766
0.000400227
0.000390165
0.000393079
0.000392181
0.0004515
0.000474471
0.000486592
0.000505185
0.000678624
0.000699483
0.000648749
0.000557666
0.000581177
0.000609805
0.000530717
0.000872495
0.000821295
0.00106869
0.00117787
0.00111885
0.000992811
0.000953017
0.000791274
0.000735547
0.000348983
0.000337068
0.000340652
0.000344082
0.000342381
0.0003178
0.000321882
0.000309675
0.000314645
0.000324615
0.000328292
0.000333802
0.000329559
0.000332006
0.000297965
0.000312085
0.000203503
0.000298032
0.000359939
0.000358944
0.000356812
0.000369606
0.000367246
0.000359326
0.000362401
0.000355254
0.000353304
0.000370032
0.000372005
0.00037217
0.000376941
0.000378736
0.000381341
0.000385174
0.00222103
0.00218364
0.00211581
0.00232855
0.00170649
0.00157524
0.00152085
0.00192926
0.00126493
0.00138235
0.00144653
0.00042149
0.000406265
0.000436386
0.000399956
0.000394257
0.000385014
0.000387482
0.000387434
0.000456549
0.000474494
0.00049391
0.000506931
0.000670678
0.000712468
0.000642548
0.000543492
0.000569866
0.000594974
0.000625049
0.000518337
0.000893851
0.00084519
0.00107074
0.0012251
0.00116897
0.00102912
0.000936419
0.000780756
0.00075386
0.000347681
0.000335981
0.000339146
0.000343546
0.000339997
0.000317891
0.000319771
0.000307413
0.00031248
0.000323673
0.000325878
0.000332647
0.000328525
0.000329946
0.000321876
0.00030362
0.000158357
0.000271635
0.00102646
0.000357006
0.000356561
0.00035446
0.000364979
0.00035715
0.000360044
0.000362442
0.000352555
0.000351
0.000367896
0.000368901
0.000374249
0.000369638
0.000376013
0.000377481
0.00038186
0.0023037
0.00229304
0.00210484
0.00183357
0.00168027
0.00158875
0.00193283
0.00127804
0.00139906
0.00153538
0.000414222
0.000427526
0.00040692
0.000441331
0.000395115
0.000388343
0.000383574
0.000384669
0.000382769
0.000449623
0.000466402
0.00048473
0.000496133
0.000684272
0.000705606
0.000657431
0.000539003
0.000574831
0.000591647
0.000621324
0.000515464
0.0008807
0.000831664
0.00111802
0.00121515
0.00119429
0.00103122
0.0009645
0.000800409
0.000743991
0.000348988
0.000345487
0.000337277
0.00033378
0.000341738
0.000338658
0.000315855
0.000318392
0.000310013
0.000305389
0.000313673
0.000321607
0.000324254
0.000330356
0.000326571
0.000311982
0.00029946
0.000106583
0.000287887
0.000237678
0.000355592
0.000354412
0.000352233
0.000365205
0.000355493
0.000357904
0.000360072
0.000350487
0.000366223
0.000371805
0.000366576
0.000369649
0.000371868
0.000375719
0.000377921
0.0022997
0.00188999
0.00176684
0.00171036
0.00211785
0.00133172
0.00148171
0.00160699
0.000412221
0.000424655
0.000401112
0.00043657
0.000395641
0.00038868
0.00038325
0.000379732
0.000379968
0.000378981
0.00045072
0.000467186
0.00048587
0.000494695
0.000676965
0.000720625
0.000652604
0.000525832
0.000550237
0.000565899
0.000604127
0.000635419
0.000504754
0.000907993
0.000852377
0.00107867
0.00116416
0.00127584
0.0012549
0.00100705
0.00094813
0.000787566
0.000760084
0.000346836
0.000345233
0.000335489
0.000333731
0.000341516
0.00033976
0.000336464
0.000315619
0.000319525
0.000308328
0.000302936
0.000306355
0.000311407
0.000321182
0.000322436
0.000324674
0.00032933
0.000326016
0.000308778
0.000295867
0.0001868
0.000303157
0.000917777
0.000353674
0.000351887
0.000349936
0.000363249
0.000353658
0.000355901
0.000357876
0.000360504
0.000348132
0.000363704
0.000369883
0.000364498
0.000367172
0.000370555
0.000372975
0.000376536
0.00201427
0.00178518
0.00177765
0.00214118
0.00148139
0.00157562
0.00173236
0.000403643
0.000417192
0.000429497
0.000440836
0.000389998
0.000385993
0.000378014
0.000375992
0.000376061
0.000374779
0.000458357
0.000476132
0.000485256
0.000690626
0.000711272
0.000666424
0.000523489
0.000544997
0.000574937
0.000603111
0.000634425
0.000505217
0.000889192
0.000837324
0.00108047
0.00119725
0.00129985
0.00126454
0.00102912
0.000977466
0.000805696
0.000747991
0.000346275
0.000343081
0.000334904
0.000332297
0.000339786
0.000338837
0.000335924
0.000314784
0.000318399
0.000309051
0.000302379
0.0003041
0.00031096
0.000319294
0.000321113
0.000323115
0.000330778
0.000327539
0.000324191
0.000299602
0.000292542
0.00029753
0.000197889
0.000308815
0.000216551
0.000351783
0.000350516
0.000349887
0.000347868
0.000352043
0.000353969
0.000355603
0.000359588
0.000361371
0.000366747
0.000365013
0.000361913
0.00036829
0.000370759
0.000372586
0.00205491
0.00193489
0.0019138
0.00231935
0.00144351
0.00159911
0.00166803
0.00182405
0.000400896
0.000415317
0.000421107
0.00044049
0.000384467
0.000381208
0.000374069
0.000376899
0.000372447
0.000371521
0.000370863
0.000457825
0.000475811
0.000486703
0.000682618
0.000724494
0.00066651
0.00053394
0.000515674
0.00055445
0.000590779
0.000568153
0.000619597
0.000650681
0.0004972
0.000912795
0.000857454
0.00112409
0.00117935
0.00136763
0.00132092
0.00102598
0.00095872
0.00079073
0.000762697
0.000343966
0.00034226
0.000332894
0.000331731
0.000338241
0.000337291
0.000334268
0.000312934
0.000316513
0.000307296
0.000300314
0.000303571
0.000309576
0.000319301
0.000321492
0.000322977
0.000329644
0.000327944
0.000323116
0.000299358
0.000289994
0.000295569
0.000192689
0.000273982
0.000900042
0.000349672
0.000348294
0.000347783
0.000345931
0.000352152
0.000349836
0.000353688
0.000355538
0.000357574
0.000360278
0.000364502
0.000362778
0.000361186
0.000365486
0.00036849
0.000369797
0.00221269
0.00197539
0.0020008
0.00151666
0.00165573
0.00178487
0.00196763
0.000393631
0.000407553
0.000422649
0.000433714
0.000449913
0.000385968
0.000378157
0.000377128
0.000369802
0.000372334
0.000369225
0.000368448
0.000367411
0.000467042
0.000479407
0.000694659
0.000712723
0.000681982
0.000530665
0.000520291
0.000550631
0.000593685
0.000575987
0.000619791
0.000651955
0.000501682
0.00089475
0.000837465
0.00112923
0.00123651
0.00136451
0.00107362
0.000990667
0.000806717
0.000747574
0.000343859
0.000340111
0.000332777
0.000329985
0.000336305
0.000338374
0.000335912
0.00033434
0.000312297
0.000315161
0.000305539
0.000307741
0.000299168
0.000302049
0.000310297
0.000318323
0.000320416
0.0003211
0.000326973
0.000321049
0.000324041
0.000291721
0.000292969
0.000286669
0.000295492
0.000213766
0.000273007
0.000454397
0.000348054
0.0003469
0.000346053
0.000350596
0.000348324
0.00035173
0.000353586
0.000356324
0.000357485
0.000361071
0.000360427
0.000358993
0.000363793
0.000366652
0.000367193
0.00230074
0.00214677
0.00216364
0.00161297
0.00145686
0.00176956
0.00189889
0.00208189
0.000392623
0.000405004
0.00042316
0.000438151
0.000451379
0.000378493
0.000373315
0.000372819
0.00036891
0.000366859
0.000366771
0.000364862
0.000363653
0.000468732
0.000483272
0.000723349
0.000689642
0.000538445
0.000512602
0.000560486
0.000607995
0.000588422
0.000573189
0.000635923
0.000671377
0.00049315
0.000917636
0.000851553
0.00118251
0.00130026
0.00135261
0.00107547
0.00103728
0.000959707
0.000787435
0.000759812
0.000342343
0.000339299
0.000330842
0.000329424
0.000335041
0.000336585
0.000332986
0.000313385
0.000315683
0.000304155
0.000306369
0.000297441
0.000300427
0.00030242
0.000310075
0.00031702
0.000319131
0.000327775
0.000325663
0.000320319
0.000323011
0.000288556
0.000291361
0.000285743
0.000293737
0.000217414
0.000284397
0.000218855
0.000346332
0.000344856
0.000344255
0.000348931
0.000350312
0.000346765
0.000351818
0.000353944
0.000356958
0.000359613
0.000357836
0.00035734
0.000361312
0.000364598
0.00036456
0.00231132
0.00168344
0.00150161
0.00186659
0.00179489
0.00205498
0.00222855
0.000385282
0.000397631
0.000412821
0.000435214
0.00045198
0.00043646
0.000463209
0.000379754
0.000372685
0.00036789
0.000368175
0.000364607
0.000363038
0.000363669
0.000364708
0.000362166
0.000363368
0.000361516
0.00047576
0.000710451
0.000528056
0.000515615
0.000548193
0.000607503
0.000596336
0.000583416
0.000637782
0.000674018
0.000493829
0.000884989
0.000821531
0.00119972
0.00132872
0.00143115
0.00113231
0.00104979
0.000976145
0.000796184
0.000750849
0.000342824
0.000340685
0.000337667
0.000330256
0.000333624
0.000335329
0.000336211
0.000332629
0.000331552
0.000313164
0.000314335
0.000304461
0.000306992
0.000297382
0.000298916
0.000301216
0.000311656
0.000308592
0.000316408
0.000317401
0.000326786
0.000324873
0.000321618
0.000318921
0.000323439
0.000283372
0.000286238
0.000291624
0.000289138
0.000283103
0.000294052
0.000217306
0.00027806
0.000180139
0.00100724
0.000344748
0.000344712
0.000343499
0.000347844
0.000348447
0.000345101
0.000345682
0.000349738
0.000353005
0.000354615
0.000357105
0.000355742
0.000355026
0.000360547
0.000362137
0.000361981
0.00168347
0.00159902
0.0020106
0.0019033
0.00218483
0.00232293
0.000378771
0.000400518
0.00041398
0.00042736
0.000463367
0.000426023
0.000468079
0.000373271
0.000366338
0.000364128
0.000364172
0.000361801
0.000362572
0.000359169
0.000360044
0.000359226
0.000476715
0.000723766
0.000532899
0.000504158
0.000621152
0.000655229
0.000695072
0.000482283
0.000895097
0.000818857
0.00127505
0.00118226
0.00140102
0.00145847
0.001101
0.00102377
0.000939604
0.000768664
0.000341251
0.000340255
0.000337482
0.000328903
0.000333014
0.000333856
0.000335123
0.000331149
0.00033069
0.000314764
0.000303534
0.000305667
0.000295958
0.000299307
0.000301796
0.000310661
0.000308162
0.000317143
0.000325338
0.000327473
0.000320593
0.000318431
0.000323242
0.000280487
0.000284083
0.00028995
0.000287779
0.000285079
0.000293276
0.000281342
0.000158459
0.000377745
0.000343053
0.000342845
0.000341699
0.000346225
0.000348121
0.000343774
0.000344098
0.000349104
0.000350801
0.000353597
0.000356646
0.000355333
0.000353671
0.000353365
0.000358406
0.000359784
0.00181281
0.00163521
0.00217021
0.00194121
0.00227929
0.000393497
0.00037365
0.000422359
0.000427467
0.000411352
0.000456905
0.000457751
0.000368342
0.000365895
0.000363567
0.000359779
0.000360081
0.000358089
0.000360083
0.000358171
0.000355986
0.000358195
0.000355703
0.000357035
0.00045784
0.00071715
0.000875145
0.000791782
0.000845736
0.00128742
0.00122613
0.00142878
0.00154819
0.00112384
0.00104565
0.000948954
0.000766734
0.000340538
0.000338657
0.000335893
0.000328546
0.000331496
0.000333791
0.00033058
0.000329389
0.000313836
0.00030436
0.000305572
0.000295839
0.000298421
0.000301835
0.000311379
0.000309305
0.000306863
0.000316304
0.000324447
0.000326726
0.000320827
0.000319209
0.000317117
0.000322231
0.000281332
0.000280014
0.000290407
0.000288182
0.00028678
0.000283613
0.000292079
0.000294298
0.000288768
0.000196803
0.000236644
0.00110266
0.000341627
0.000341681
0.000345163
0.000346112
0.000342265
0.000342952
0.00034706
0.000350148
0.00035166
0.000354882
0.000352778
0.000352055
0.000351467
0.000356925
0.000357582
0.00182778
0.00173765
0.00229397
0.00211496
0.000402351
0.000396714
0.000346695
0.00034802
0.000304144
0.000546729
0.000362957
0.000363022
0.000357238
0.000357821
0.000354973
0.000357148
0.00035587
0.000356023
0.000354573
0.000355673
0.000354955
0.000512439
0.000739734
0.000902972
0.00134557
0.00122673
0.00152834
0.00141729
0.00108596
0.00117616
0.000997831
0.00033906
0.000337854
0.000334824
0.000327241
0.000330595
0.000332573
0.000329356
0.000328733
0.000312683
0.000314951
0.000303186
0.000304436
0.000297048
0.000299482
0.000300752
0.000310346
0.000309225
0.000306946
0.000325303
0.00032026
0.000318598
0.000316538
0.000322334
0.000279904
0.000277834
0.00028965
0.000287163
0.000285129
0.00028343
0.000291903
0.000294418
0.000282847
0.000147484
0.000248388
0.000511523
0.000339851
0.000340019
0.000343484
0.000345533
0.000340922
0.000341205
0.000346829
0.00034839
0.00035011
0.000352706
0.000353608
0.00035028
0.000349995
0.000349881
0.000354518
0.000355346
0.00196122
0.00177717
0.00211912
0.000424582
0.000384992
0.000431825
0.000282043
0.000387389
0.000964364
0.000357836
0.00035801
0.000396497
0.000353042
0.000353647
0.000352049
0.000353622
0.000352574
0.000353718
0.000352636
0.000353467
0.000352498
0.00129183
0.00160109
0.00150163
0.00107659
0.00118289
0.00101041
0.000338646
0.000336858
0.000335387
0.000333408
0.000326621
0.000331449
0.000329549
0.000332459
0.000328278
0.000327357
0.000313023
0.000314251
0.000303122
0.000304685
0.00029714
0.000298299
0.000300825
0.000310718
0.000308253
0.000305992
0.000324656
0.00031919
0.000321041
0.000317302
0.000315087
0.000323448
0.000278136
0.000280314
0.000277021
0.000274849
0.000290469
0.000288011
0.000285389
0.000281897
0.000292995
0.00029583
0.000277304
0.000196756
0.000246827
0.000265374
0.00119555
0.000338971
0.000339172
0.000342199
0.000344015
0.000339698
0.000340147
0.000344963
0.000348464
0.000351447
0.000352069
0.000348635
0.000348517
0.000348066
0.000353816
0.00191168
0.00170163
0.00229539
0.000477423
0.000393021
0.000488252
0.000429349
0.000315897
0.000360124
0.000352613
0.000377719
0.000347223
0.000351755
0.000348479
0.000351389
0.00035106
0.000352207
0.00035221
0.000350652
0.000351206
0.000350399
0.00130602
0.0016004
0.00145878
0.00106001
0.00111066
0.00126577
0.000337349
0.000334448
0.000332285
0.000325343
0.000330843
0.000329772
0.000328446
0.000331298
0.000327082
0.000312039
0.000302134
0.000303838
0.000298561
0.000300046
0.00030984
0.000308588
0.000306373
0.000318283
0.000320714
0.000317191
0.000314432
0.000322707
0.000277424
0.000278484
0.000274978
0.00027338
0.000289865
0.000287195
0.000284478
0.000282471
0.000292449
0.000295806
0.000270712
0.000275989
0.000206334
0.000159632
0.000267896
0.000591764
0.000337452
0.000337968
0.000340864
0.000342551
0.000343601
0.000338449
0.000339088
0.000345169
0.000347027
0.000349835
0.000350421
0.000347013
0.000348406
0.000347496
0.000347076
0.00034673
0.000351515
0.00200881
0.0017586
0.00218287
0.000471052
0.000484267
0.000455298
0.000354008
0.000346459
0.000332055
0.000343556
0.000348213
0.000346422
0.000345244
0.000348302
0.000348391
0.000350464
0.000349434
0.000348312
0.000349258
0.000347688
0.0013838
0.00168483
0.0015266
0.00116856
0.00135155
0.000336164
0.000333548
0.00033501
0.000331082
0.000332429
0.000324388
0.00032912
0.000327322
0.000330631
0.000326227
0.000312208
0.000302557
0.000304284
0.000298352
0.000300597
0.000310263
0.00030764
0.000305556
0.000318706
0.000319847
0.000321682
0.000316408
0.000313405
0.000315264
0.00032317
0.000276002
0.000278289
0.000274582
0.000288134
0.000290829
0.000285419
0.000281633
0.000293483
0.000297364
0.000294952
0.000269197
0.000271197
0.000240089
0.00016528
0.000274161
0.000541645