/*--------------------------------*- C++ -*----------------------------------*\
| =========                 |                                                 |
| \\      /  F ield         | OpenFOAM: The Open Source CFD Toolbox           |
|  \\    /   O peration     | Version:  v2012                                 |
|   \\  /    A nd           | Website:  www.openfoam.com                      |
|    \\/     M anipulation  |                                                 |
\*---------------------------------------------------------------------------*/
FoamFile
{
    version     2.0;
    format      ascii;
    class       volScalarField;
    location    "1.1";
    object      nut;
}
// * * * * * * * * * * * * * * * * * * * * * * * * * * * * * * * * * * * * * //

dimensions      [0 2 -1 0 0 0 0];


internalField   nonuniform List<scalar> 
13611
(
1.19028e-05
1.19034e-05
1.19618e-05
1.19434e-05
1.18805e-05
1.20166e-05
1.19723e-05
1.19224e-05
1.18686e-05
1.18819e-05
1.20659e-05
1.20062e-05
1.19005e-05
1.1931e-05
1.18502e-05
1.18632e-05
1.20567e-05
1.21051e-05
1.1979e-05
1.18722e-05
1.19097e-05
1.1959e-05
1.18337e-05
1.18438e-05
1.18554e-05
1.20763e-05
1.21237e-05
1.20066e-05
1.18604e-05
1.18824e-05
1.19229e-05
1.19692e-05
1.18072e-05
1.18192e-05
1.18235e-05
1.20391e-05
1.21159e-05
1.2149e-05
1.2e-05
1.18315e-05
1.18756e-05
1.19187e-05
1.19475e-05
1.19604e-05
1.17864e-05
1.17883e-05
1.17962e-05
1.18112e-05
1.20581e-05
1.2121e-05
1.21682e-05
1.20184e-05
1.18296e-05
1.18957e-05
1.18519e-05
1.19407e-05
1.19628e-05
1.19862e-05
1.17624e-05
1.17625e-05
1.1769e-05
1.17862e-05
1.20935e-05
1.20482e-05
1.2156e-05
1.22011e-05
1.20101e-05
1.18062e-05
1.18927e-05
1.18476e-05
1.19414e-05
1.19838e-05
1.17539e-05
1.17482e-05
1.17439e-05
1.17655e-05
1.17851e-05
1.21126e-05
1.20685e-05
1.21524e-05
1.22294e-05
1.20328e-05
1.18059e-05
1.18675e-05
1.19129e-05
1.18274e-05
1.19629e-05
1.20079e-05
1.17325e-05
1.17284e-05
1.17211e-05
1.17419e-05
1.17601e-05
1.21114e-05
1.20583e-05
1.20933e-05
1.21802e-05
1.22172e-05
1.22697e-05
1.20369e-05
1.17916e-05
1.18566e-05
1.19062e-05
1.18183e-05
1.19512e-05
1.19813e-05
1.20059e-05
1.1726e-05
1.1721e-05
1.17128e-05
1.17117e-05
1.17399e-05
1.17539e-05
1.21413e-05
1.20806e-05
1.21039e-05
1.2172e-05
1.22368e-05
1.23328e-05
1.20644e-05
1.17748e-05
1.17984e-05
1.18325e-05
1.18725e-05
1.18946e-05
1.19323e-05
1.19676e-05
1.20345e-05
1.17023e-05
1.1701e-05
1.16972e-05
1.16897e-05
1.17199e-05
1.17385e-05
1.21309e-05
1.20925e-05
1.22002e-05
1.22837e-05
1.22277e-05
1.25369e-05
1.20653e-05
1.17613e-05
1.17804e-05
1.18311e-05
1.18521e-05
1.19094e-05
1.19335e-05
1.1987e-05
1.20378e-05
1.16998e-05
1.16902e-05
1.1682e-05
1.16811e-05
1.17085e-05
1.17189e-05
1.17433e-05
1.21554e-05
1.21218e-05
1.22096e-05
1.22883e-05
1.22574e-05
1.22899e-05
1.20965e-05
1.17623e-05
1.17863e-05
1.18112e-05
1.18611e-05
1.18908e-05
1.19537e-05
1.20134e-05
1.19767e-05
1.20685e-05
1.16849e-05
1.16689e-05
1.16656e-05
1.16465e-05
1.17384e-05
1.16886e-05
1.17031e-05
1.17322e-05
1.21939e-05
1.21473e-05
1.21255e-05
1.2249e-05
1.23241e-05
1.22871e-05
1.24145e-05
1.20989e-05
1.17407e-05
1.17727e-05
1.18097e-05
1.18537e-05
1.19005e-05
1.19449e-05
1.20136e-05
1.19906e-05
1.20668e-05
1.16656e-05
1.16561e-05
1.16499e-05
1.16575e-05
1.1549e-05
1.16758e-05
1.16839e-05
1.17105e-05
1.22231e-05
1.21745e-05
1.21546e-05
1.22766e-05
1.23558e-05
1.23185e-05
1.24217e-05
1.21277e-05
1.1736e-05
1.17837e-05
1.17538e-05
1.183e-05
1.18732e-05
1.18953e-05
1.1927e-05
1.19689e-05
1.20384e-05
1.20982e-05
1.16526e-05
1.16335e-05
1.16325e-05
1.15185e-05
1.16367e-05
1.22872e-05
1.16584e-05
1.16661e-05
1.17014e-05
1.22054e-05
1.22597e-05
1.21711e-05
1.22776e-05
1.23191e-05
1.239e-05
1.24423e-05
1.2421e-05
1.21549e-05
1.21258e-05
1.17166e-05
1.17759e-05
1.17373e-05
1.1828e-05
1.18674e-05
1.19128e-05
1.19347e-05
1.19804e-05
1.20436e-05
1.21007e-05
1.16335e-05
1.16226e-05
1.16124e-05
1.15475e-05
1.16318e-05
1.17768e-05
1.16415e-05
1.16638e-05
1.16467e-05
1.16815e-05
1.22268e-05
1.22845e-05
1.22083e-05
1.23193e-05
1.23556e-05
1.24002e-05
1.2478e-05
1.24461e-05
1.21748e-05
1.21523e-05
1.17188e-05
1.17582e-05
1.17948e-05
1.17396e-05
1.18471e-05
1.18117e-05
1.18862e-05
1.19116e-05
1.1957e-05
1.2008e-05
1.20758e-05
1.2031e-05
1.21324e-05
1.1628e-05
1.16012e-05
1.15917e-05
1.15774e-05
1.16068e-05
1.23491e-05
1.16463e-05
1.16325e-05
1.1682e-05
1.22667e-05
1.2322e-05
1.22271e-05
1.23512e-05
1.23961e-05
1.24499e-05
1.25131e-05
1.22049e-05
1.21671e-05
1.17022e-05
1.17636e-05
1.17814e-05
1.17212e-05
1.18288e-05
1.18114e-05
1.18825e-05
1.19326e-05
1.19573e-05
1.20052e-05
1.20754e-05
1.20495e-05
1.21278e-05
1.2161e-05
1.16129e-05
1.15889e-05
1.15785e-05
1.15866e-05
1.16028e-05
1.19811e-05
1.1633e-05
1.16371e-05
1.16151e-05
1.16669e-05
1.22923e-05
1.23578e-05
1.22636e-05
1.23883e-05
1.2435e-05
1.24889e-05
1.25307e-05
1.2547e-05
1.22194e-05
1.22017e-05
1.17021e-05
1.17468e-05
1.17889e-05
1.17154e-05
1.18379e-05
1.19059e-05
1.18637e-05
1.19283e-05
1.19801e-05
1.20262e-05
1.20992e-05
1.20481e-05
1.21541e-05
1.21883e-05
1.15987e-05
1.16046e-05
1.15745e-05
1.15457e-05
1.15637e-05
1.15621e-05
1.17236e-05
1.16189e-05
1.16204e-05
1.1648e-05
1.16079e-05
1.16714e-05
1.23309e-05
1.23624e-05
1.23958e-05
1.22761e-05
1.24229e-05
1.24719e-05
1.24983e-05
1.25714e-05
1.2599e-05
1.22557e-05
1.22188e-05
1.16895e-05
1.17458e-05
1.17279e-05
1.17817e-05
1.16955e-05
1.1821e-05
1.19073e-05
1.18705e-05
1.19492e-05
1.19709e-05
1.20298e-05
1.20961e-05
1.20715e-05
1.21514e-05
1.21868e-05
1.15861e-05
1.15881e-05
1.15535e-05
1.15739e-05
1.15645e-05
1.15424e-05
1.24645e-05
1.147e-05
1.1608e-05
1.16329e-05
1.15929e-05
1.1659e-05
1.23381e-05
1.24041e-05
1.24351e-05
1.23174e-05
1.24576e-05
1.24922e-05
1.25463e-05
1.25856e-05
1.26038e-05
1.26478e-05
1.22773e-05
1.22503e-05
1.17236e-05
1.17624e-05
1.17152e-05
1.17998e-05
1.16855e-05
1.18298e-05
1.19304e-05
1.18919e-05
1.18526e-05
1.19499e-05
1.19888e-05
1.20132e-05
1.20572e-05
1.21206e-05
1.21784e-05
1.22188e-05
1.15729e-05
1.15405e-05
1.15599e-05
1.15587e-05
1.15233e-05
1.24338e-05
1.12651e-05
1.15913e-05
1.16149e-05
1.16389e-05
1.15762e-05
1.16658e-05
1.23823e-05
1.24431e-05
1.24715e-05
1.23425e-05
1.25324e-05
1.25845e-05
1.26329e-05
1.26495e-05
1.27047e-05
1.23152e-05
1.22623e-05
1.17236e-05
1.17658e-05
1.16957e-05
1.1785e-05
1.18191e-05
1.19268e-05
1.1901e-05
1.1853e-05
1.19707e-05
1.2026e-05
1.2072e-05
1.21038e-05
1.22095e-05
1.21772e-05
1.22513e-05
1.15573e-05
1.15247e-05
1.15453e-05
1.158e-05
1.14931e-05
1.20552e-05
1.13277e-05
1.15779e-05
1.15988e-05
1.16268e-05
1.15591e-05
1.16542e-05
1.24099e-05
1.24825e-05
1.25158e-05
1.23842e-05
1.25698e-05
1.26254e-05
1.26596e-05
1.26968e-05
1.27656e-05
1.23294e-05
1.23027e-05
1.16996e-05
1.17444e-05
1.16861e-05
1.17956e-05
1.18304e-05
1.19445e-05
1.18952e-05
1.18718e-05
1.19815e-05
1.20101e-05
1.20552e-05
1.21216e-05
1.22354e-05
1.22126e-05
1.21553e-05
1.22789e-05
1.15432e-05
1.15127e-05
1.15299e-05
1.15468e-05
1.14936e-05
1.18897e-05
1.13985e-05
1.15596e-05
1.15824e-05
1.1596e-05
1.16107e-05
1.1636e-05
1.15443e-05
1.16647e-05
1.24537e-05
1.25129e-05
1.25018e-05
1.25587e-05
1.24076e-05
1.26236e-05
1.26498e-05
1.27055e-05
1.27437e-05
1.28283e-05
1.23739e-05
1.23156e-05
1.16904e-05
1.1745e-05
1.17852e-05
1.18213e-05
1.1941e-05
1.19676e-05
1.19164e-05
1.18617e-05
1.20238e-05
1.20698e-05
1.21004e-05
1.22713e-05
1.22292e-05
1.21687e-05
1.1528e-05
1.15146e-05
1.15367e-05
1.14749e-05
1.16763e-05
1.13439e-05
1.1549e-05
1.15707e-05
1.15818e-05
1.16007e-05
1.16212e-05
1.15297e-05
1.16484e-05
1.24742e-05
1.24828e-05
1.25572e-05
1.2554e-05
1.25987e-05
1.24542e-05
1.26595e-05
1.27049e-05
1.27266e-05
1.27961e-05
1.28964e-05
1.28319e-05
1.23901e-05
1.23524e-05
1.16738e-05
1.17069e-05
1.17259e-05
1.17672e-05
1.17999e-05
1.18371e-05
1.19608e-05
1.19817e-05
1.19062e-05
1.18783e-05
1.20065e-05
1.20527e-05
1.21125e-05
1.23053e-05
1.22003e-05
1.22621e-05
1.21435e-05
1.15146e-05
1.14994e-05
1.14909e-05
1.15095e-05
1.14707e-05
1.13891e-05
1.26027e-05
1.13872e-05
1.15357e-05
1.15562e-05
1.15701e-05
1.15842e-05
1.16063e-05
1.16159e-05
1.15249e-05
1.15165e-05
1.16284e-05
1.16552e-05
1.25184e-05
1.25254e-05
1.25949e-05
1.25935e-05
1.26417e-05
1.24862e-05
1.2718e-05
1.27395e-05
1.27834e-05
1.2827e-05
1.29707e-05
1.28988e-05
1.2436e-05
1.23608e-05
1.16751e-05
1.169e-05
1.17293e-05
1.17681e-05
1.1787e-05
1.18268e-05
1.1972e-05
1.19255e-05
1.18706e-05
1.202e-05
1.20668e-05
1.20967e-05
1.22921e-05
1.23439e-05
1.2203e-05
1.22603e-05
1.21498e-05
1.14993e-05
1.14849e-05
1.14684e-05
1.15031e-05
1.1456e-05
1.1411e-05
6.4685e-06
1.14686e-05
1.15258e-05
1.15504e-05
1.15581e-05
1.15756e-05
1.15956e-05
1.1599e-05
1.15138e-05
1.15044e-05
1.16196e-05
1.16465e-05
1.25541e-05
1.25729e-05
1.26358e-05
1.26462e-05
1.26777e-05
1.24773e-05
1.25379e-05
1.27595e-05
1.27962e-05
1.28862e-05
1.30517e-05
1.29637e-05
1.24381e-05
1.24047e-05
1.16573e-05
1.16953e-05
1.17494e-05
1.17142e-05
1.18006e-05
1.18434e-05
1.20031e-05
1.19543e-05
1.19147e-05
1.18895e-05
1.20503e-05
1.21128e-05
1.23213e-05
1.23686e-05
1.21817e-05
1.22362e-05
1.22953e-05
1.21418e-05
1.14887e-05
1.14726e-05
1.14695e-05
1.14525e-05
1.1451e-05
1.16876e-05
1.22874e-05
1.15072e-05
1.15286e-05
1.15148e-05
1.15395e-05
1.15481e-05
1.15637e-05
1.15833e-05
1.15922e-05
1.15031e-05
1.14927e-05
1.16028e-05
1.16297e-05
1.25991e-05
1.26105e-05
1.26965e-05
1.27264e-05
1.2525e-05
1.2571e-05
1.28165e-05
1.28525e-05
1.29407e-05
1.31277e-05
1.30333e-05
1.24808e-05
1.24066e-05
1.16451e-05
1.16931e-05
1.17472e-05
1.17087e-05
1.17868e-05
1.1837e-05
1.20188e-05
1.19671e-05
1.19306e-05
1.18782e-05
1.20662e-05
1.2098e-05
1.23576e-05
1.21944e-05
1.22479e-05
1.23118e-05
1.21655e-05
1.14743e-05
1.146e-05
1.14432e-05
1.1438e-05
1.14389e-05
1.15166e-05
1.02803e-05
1.14766e-05
1.15166e-05
1.15057e-05
1.15361e-05
1.15522e-05
1.15607e-05
1.15711e-05
1.15752e-05
1.14936e-05
1.14826e-05
1.15934e-05
1.16158e-05
1.26359e-05
1.26633e-05
1.27042e-05
1.27454e-05
1.27606e-05
1.25719e-05
1.25245e-05
1.26191e-05
1.28468e-05
1.2853e-05
1.292e-05
1.30155e-05
1.32091e-05
1.31326e-05
1.31046e-05
1.24808e-05
1.24403e-05
1.16563e-05
1.16222e-05
1.16799e-05
1.17655e-05
1.17249e-05
1.17996e-05
1.18572e-05
1.18191e-05
1.2049e-05
1.19963e-05
1.19559e-05
1.19185e-05
1.1893e-05
1.21163e-05
1.23898e-05
1.22238e-05
1.22821e-05
1.23517e-05
1.21518e-05
1.14666e-05
1.1449e-05
1.14308e-05
1.14316e-05
1.14311e-05
1.14335e-05
1.17537e-05
1.14524e-05
1.34214e-05
1.15097e-05
1.15069e-05
1.14952e-05
1.1528e-05
1.15418e-05
1.15469e-05
1.1568e-05
1.14832e-05
1.14732e-05
1.15788e-05
1.15998e-05
1.26837e-05
1.27621e-05
1.27955e-05
1.28263e-05
1.26201e-05
1.25727e-05
1.26569e-05
1.29107e-05
1.29199e-05
1.29862e-05
1.30784e-05
1.32926e-05
1.3223e-05
1.31627e-05
1.25186e-05
1.24322e-05
1.16459e-05
1.16126e-05
1.16867e-05
1.17628e-05
1.17236e-05
1.17794e-05
1.18416e-05
1.18219e-05
1.20662e-05
1.19987e-05
1.1971e-05
1.1934e-05
1.18771e-05
1.20994e-05
1.23901e-05
1.22386e-05
1.22886e-05
1.23477e-05
1.21754e-05
1.1458e-05
1.14489e-05
1.14394e-05
1.14123e-05
1.14196e-05
1.14213e-05
1.14239e-05
1.2656e-05
1.14426e-05
1.47374e-05
1.14984e-05
1.15166e-05
1.14967e-05
1.14881e-05
1.1532e-05
1.15377e-05
1.15427e-05
1.15554e-05
1.14747e-05
1.14649e-05
1.15705e-05
1.15862e-05
1.27354e-05
1.27984e-05
1.28544e-05
1.28756e-05
1.26519e-05
1.25582e-05
1.26177e-05
1.27139e-05
1.29635e-05
1.29802e-05
1.30605e-05
1.31561e-05
1.32437e-05
1.25126e-05
1.24691e-05
1.16574e-05
1.16252e-05
1.15969e-05
1.16757e-05
1.17065e-05
1.17432e-05
1.17818e-05
1.1851e-05
1.18049e-05
1.20649e-05
1.20228e-05
1.19607e-05
1.19336e-05
1.18865e-05
1.21168e-05
1.24287e-05
1.2275e-05
1.22133e-05
1.2323e-05
1.23828e-05
1.21481e-05
1.14573e-05
1.14395e-05
1.14313e-05
1.1404e-05
1.14094e-05
1.14176e-05
1.14103e-05
1.14233e-05
1.15717e-05
1.14065e-05
1.49072e-05
1.14915e-05
1.14959e-05
1.15119e-05
1.14891e-05
1.14776e-05
1.15258e-05
1.15283e-05
1.15346e-05
1.15505e-05
1.14652e-05
1.15577e-05
1.15742e-05
1.15845e-05
1.27915e-05
1.28684e-05
1.29069e-05
1.29451e-05
1.27072e-05
1.25908e-05
1.2639e-05
1.27612e-05
1.30366e-05
1.30483e-05
1.31284e-05
1.32353e-05
1.33078e-05
1.25526e-05
1.24607e-05
1.16452e-05
1.16172e-05
1.15844e-05
1.16832e-05
1.17018e-05
1.17376e-05
1.1772e-05
1.18455e-05
1.18025e-05
1.20503e-05
1.20948e-05
1.20036e-05
1.19774e-05
1.19108e-05
1.19579e-05
1.18634e-05
1.24459e-05
1.22986e-05
1.22323e-05
1.23334e-05
1.24189e-05
1.23628e-05
1.21592e-05
1.14487e-05
1.14312e-05
1.14401e-05
1.13919e-05
1.13965e-05
1.14093e-05
1.14042e-05
1.14165e-05
1.09478e-05
1.14188e-05
1.35583e-05
1.14833e-05
1.15029e-05
1.1487e-05
1.15173e-05
1.14811e-05
1.14745e-05
1.15199e-05
1.15245e-05
1.15397e-05
1.14581e-05
1.15543e-05
1.1563e-05
1.15725e-05
1.2847e-05
1.2908e-05
1.29807e-05
1.30004e-05
1.27541e-05
1.26911e-05
1.26357e-05
1.28241e-05
1.31037e-05
1.3123e-05
1.32129e-05
1.33084e-05
1.25773e-05
1.25027e-05
1.16288e-05
1.16532e-05
1.16027e-05
1.15726e-05
1.15879e-05
1.16733e-05
1.17156e-05
1.1753e-05
1.17843e-05
1.18217e-05
1.20682e-05
1.20974e-05
1.20168e-05
1.19124e-05
1.19708e-05
1.18661e-05
1.24862e-05
1.22795e-05
1.22218e-05
1.2437e-05
1.23864e-05
1.2193e-05
1.21259e-05
1.14482e-05
1.14237e-05
1.14328e-05
1.13776e-05
1.13863e-05
1.1404e-05
1.13965e-05
1.1408e-05
1.14166e-05
1.07112e-05
1.13447e-05
1.13948e-05
1.11824e-05
1.14814e-05
1.14756e-05
1.14981e-05
1.14838e-05
1.15102e-05
1.14743e-05
1.14667e-05
1.15113e-05
1.15174e-05
1.1518e-05
1.15318e-05
1.14594e-05
1.15442e-05
1.15622e-05
1.28656e-05
1.29789e-05
1.30426e-05
1.308e-05
1.28057e-05
1.27326e-05
1.26818e-05
1.28627e-05
1.31984e-05
1.32028e-05
1.32928e-05
1.26381e-05
1.25411e-05
1.16143e-05
1.16417e-05
1.16009e-05
1.15628e-05
1.15751e-05
1.16842e-05
1.17063e-05
1.175e-05
1.177e-05
1.18114e-05
1.20505e-05
1.20023e-05
1.18898e-05
1.1936e-05
1.19584e-05
1.1848e-05
1.25112e-05
1.23077e-05
1.22561e-05
1.24305e-05
1.2486e-05
1.23544e-05
1.22001e-05
1.21322e-05
1.14459e-05
1.14206e-05
1.1433e-05
1.14252e-05
1.13631e-05
1.13774e-05
1.13891e-05
1.13954e-05
1.14025e-05
1.14117e-05
1.09183e-05
1.14261e-05
1.13703e-05
1.03049e-05
1.32899e-05
1.14735e-05
1.14705e-05
1.14891e-05
1.15021e-05
1.14761e-05
1.14654e-05
1.14619e-05
1.15053e-05
1.15077e-05
1.15088e-05
1.15216e-05
1.15343e-05
1.14523e-05
1.15416e-05
1.15514e-05
1.2943e-05
1.30425e-05
1.29994e-05
1.3122e-05
1.31456e-05
1.27935e-05
1.27326e-05
1.26862e-05
1.29228e-05
1.32835e-05
1.26503e-05
1.25537e-05
1.16203e-05
1.1652e-05
1.15838e-05
1.15558e-05
1.15523e-05
1.15716e-05
1.15624e-05
1.16737e-05
1.17198e-05
1.17402e-05
1.17729e-05
1.18285e-05
1.17913e-05
1.2066e-05
1.20192e-05
1.18899e-05
1.19331e-05
1.19762e-05
1.18506e-05
1.2292e-05
1.2234e-05
1.24665e-05
1.25126e-05
1.2373e-05
1.21727e-05
1.2119e-05
1.14394e-05
1.14134e-05
1.14264e-05
1.14217e-05
1.13671e-05
1.13545e-05
1.1375e-05
1.13813e-05
1.13912e-05
1.14046e-05
1.13954e-05
1.13422e-05
1.13814e-05
1.02495e-05
1.10693e-05
1.14708e-05
1.14647e-05
1.14846e-05
1.14957e-05
1.14706e-05
1.14612e-05
1.14553e-05
1.14975e-05
1.15034e-05
1.15035e-05
1.1515e-05
1.15242e-05
1.14504e-05
1.15326e-05
1.2968e-05
1.31223e-05
1.30825e-05
1.31851e-05
1.32331e-05
1.28505e-05
1.27836e-05
1.2744e-05
1.29537e-05
1.25988e-05
1.27062e-05
1.16087e-05
1.16412e-05
1.15776e-05
1.15444e-05
1.15437e-05
1.15577e-05
1.15537e-05
1.1686e-05
1.17081e-05
1.17516e-05
1.18158e-05
1.17957e-05
1.20465e-05
1.20937e-05
1.20003e-05
1.18691e-05
1.19114e-05
1.1954e-05
1.18265e-05
1.23202e-05
1.22546e-05
1.24548e-05
1.25555e-05
1.24176e-05
1.23588e-05
1.21738e-05
1.21418e-05
1.14388e-05
1.14088e-05
1.14267e-05
1.14166e-05
1.13598e-05
1.13443e-05
1.13689e-05
1.13787e-05
1.13837e-05
1.14003e-05
1.13907e-05
1.13922e-05
1.13642e-05
1.06281e-05
1.31345e-05
1.14645e-05
1.14585e-05
1.14891e-05
1.14787e-05
1.14637e-05
1.14726e-05
1.14553e-05
1.14497e-05
1.14917e-05
1.14945e-05
1.14946e-05
1.15067e-05
1.15164e-05
1.15228e-05
1.14442e-05
1.15343e-05
1.30419e-05
1.31842e-05
1.31468e-05
1.3108e-05
1.32531e-05
1.32912e-05
1.29221e-05
1.28386e-05
1.27796e-05
1.30351e-05
1.26089e-05
1.2709e-05
1.27563e-05
1.16195e-05
1.15915e-05
1.16523e-05
1.15636e-05
1.15376e-05
1.15466e-05
1.15432e-05
1.16742e-05
1.17198e-05
1.17428e-05
1.17782e-05
1.20558e-05
1.20846e-05
1.20133e-05
1.18707e-05
1.19097e-05
1.19549e-05
1.18248e-05
1.22986e-05
1.22398e-05
1.25007e-05
1.25988e-05
1.2547e-05
1.24268e-05
1.23864e-05
1.22037e-05
1.21332e-05
1.14327e-05
1.14029e-05
1.14108e-05
1.1421e-05
1.14164e-05
1.13543e-05
1.13631e-05
1.13296e-05
1.13462e-05
1.13703e-05
1.13812e-05
1.13956e-05
1.13851e-05
1.13913e-05
1.13346e-05
1.13412e-05
1.07e-05
1.10807e-05
1.14609e-05
1.14587e-05
1.14537e-05
1.14835e-05
1.1478e-05
1.14594e-05
1.14665e-05
1.14497e-05
1.14439e-05
1.14845e-05
1.14897e-05
1.14911e-05
1.15031e-05
1.15079e-05
1.15154e-05
1.15252e-05
1.32513e-05
1.32332e-05
1.32006e-05
1.33015e-05
1.29758e-05
1.28932e-05
1.28559e-05
1.31044e-05
1.26704e-05
1.27616e-05
1.28081e-05
1.16118e-05
1.15779e-05
1.16438e-05
1.15636e-05
1.15501e-05
1.15256e-05
1.15338e-05
1.15326e-05
1.16854e-05
1.17206e-05
1.17572e-05
1.17826e-05
1.20448e-05
1.21027e-05
1.20045e-05
1.18468e-05
1.18911e-05
1.19317e-05
1.19783e-05
1.18027e-05
1.23228e-05
1.22683e-05
1.25028e-05
1.26388e-05
1.25917e-05
1.2463e-05
1.23684e-05
1.2191e-05
1.21573e-05
1.14304e-05
1.14006e-05
1.14079e-05
1.14207e-05
1.1411e-05
1.1354e-05
1.13582e-05
1.13254e-05
1.13413e-05
1.13693e-05
1.13758e-05
1.13933e-05
1.13835e-05
1.1387e-05
1.14753e-05
1.13078e-05
9.85605e-06
1.12567e-05
1.30091e-05
1.14542e-05
1.14531e-05
1.14485e-05
1.14725e-05
1.14545e-05
1.14611e-05
1.14665e-05
1.14439e-05
1.14393e-05
1.14795e-05
1.14822e-05
1.14967e-05
1.14853e-05
1.15023e-05
1.15064e-05
1.15174e-05
1.32904e-05
1.32852e-05
1.31949e-05
1.30502e-05
1.29594e-05
1.29021e-05
1.31066e-05
1.26815e-05
1.27744e-05
1.28694e-05
1.15963e-05
1.16253e-05
1.15801e-05
1.1655e-05
1.15532e-05
1.15371e-05
1.1523e-05
1.15268e-05
1.15235e-05
1.16721e-05
1.17053e-05
1.17406e-05
1.17627e-05
1.20644e-05
1.20936e-05
1.20263e-05
1.1837e-05
1.18991e-05
1.19261e-05
1.19723e-05
1.1795e-05
1.23085e-05
1.22527e-05
1.25461e-05
1.26309e-05
1.26136e-05
1.24647e-05
1.23981e-05
1.22156e-05
1.21447e-05
1.14346e-05
1.14259e-05
1.14037e-05
1.13957e-05
1.14174e-05
1.14091e-05
1.13497e-05
1.13564e-05
1.13355e-05
1.13211e-05
1.13449e-05
1.13652e-05
1.13733e-05
1.1388e-05
1.13795e-05
1.13893e-05
1.12964e-05
8.84659e-06
1.14087e-05
1.07871e-05
1.14509e-05
1.14482e-05
1.14435e-05
1.1473e-05
1.14507e-05
1.14561e-05
1.14609e-05
1.14391e-05
1.14762e-05
1.14913e-05
1.14778e-05
1.1486e-05
1.14928e-05
1.15029e-05
1.15085e-05
1.32883e-05
1.30822e-05
1.30124e-05
1.2978e-05
1.32013e-05
1.2724e-05
1.28338e-05
1.29191e-05
1.15931e-05
1.16203e-05
1.15682e-05
1.16464e-05
1.15557e-05
1.15383e-05
1.15253e-05
1.15141e-05
1.15163e-05
1.15145e-05
1.16758e-05
1.17082e-05
1.17438e-05
1.17577e-05
1.20541e-05
1.21141e-05
1.20188e-05
1.18146e-05
1.18577e-05
1.18844e-05
1.19457e-05
1.19933e-05
1.17773e-05
1.23393e-05
1.22774e-05
1.25094e-05
1.2587e-05
1.26806e-05
1.26632e-05
1.24408e-05
1.23818e-05
1.22001e-05
1.21658e-05
1.14308e-05
1.14266e-05
1.14e-05
1.13958e-05
1.1419e-05
1.14128e-05
1.14047e-05
1.135e-05
1.13602e-05
1.13332e-05
1.13155e-05
1.1328e-05
1.13411e-05
1.1366e-05
1.13694e-05
1.13751e-05
1.13861e-05
1.13792e-05
1.13745e-05
1.12873e-05
1.05311e-05
1.14319e-05
1.28257e-05
1.14466e-05
1.14426e-05
1.14385e-05
1.14685e-05
1.14467e-05
1.14515e-05
1.14558e-05
1.1462e-05
1.14343e-05
1.147e-05
1.14877e-05
1.14734e-05
1.14806e-05
1.14904e-05
1.14965e-05
1.1506e-05
1.31488e-05
1.30223e-05
1.30206e-05
1.32143e-05
1.28344e-05
1.28971e-05
1.29954e-05
1.15746e-05
1.16043e-05
1.16316e-05
1.16562e-05
1.15431e-05
1.15329e-05
1.15135e-05
1.1506e-05
1.1507e-05
1.15051e-05
1.16912e-05
1.17255e-05
1.1742e-05
1.20732e-05
1.21014e-05
1.20384e-05
1.18176e-05
1.18603e-05
1.19015e-05
1.19427e-05
1.19913e-05
1.17863e-05
1.23186e-05
1.22603e-05
1.2511e-05
1.26151e-05
1.27002e-05
1.26701e-05
1.24629e-05
1.2413e-05
1.22228e-05
1.215e-05
1.14303e-05
1.1423e-05
1.14e-05
1.13929e-05
1.14157e-05
1.14122e-05
1.14052e-05
1.13501e-05
1.13597e-05
1.1336e-05
1.13184e-05
1.13245e-05
1.13418e-05
1.13625e-05
1.13675e-05
1.13722e-05
1.13897e-05
1.13828e-05
1.13757e-05
1.13149e-05
1.12785e-05
1.1304e-05
1.06755e-05
1.14726e-05
1.06616e-05
1.14425e-05
1.14395e-05
1.14383e-05
1.14339e-05
1.14432e-05
1.14472e-05
1.14505e-05
1.14601e-05
1.14648e-05
1.14804e-05
1.14754e-05
1.14674e-05
1.14853e-05
1.14917e-05
1.14971e-05
1.31687e-05
1.31056e-05
1.30965e-05
1.32969e-05
1.28074e-05
1.2912e-05
1.29555e-05
1.30507e-05
1.15679e-05
1.15996e-05
1.16127e-05
1.16554e-05
1.15309e-05
1.15218e-05
1.15041e-05
1.15113e-05
1.14975e-05
1.14969e-05
1.14958e-05
1.1689e-05
1.17232e-05
1.17543e-05
1.20615e-05
1.21192e-05
1.20381e-05
1.18437e-05
1.18107e-05
1.18867e-05
1.19295e-05
1.19062e-05
1.19713e-05
1.20168e-05
1.17801e-05
1.2345e-05
1.22845e-05
1.25512e-05
1.25993e-05
1.27514e-05
1.2715e-05
1.24605e-05
1.23933e-05
1.22046e-05
1.21691e-05
1.1426e-05
1.14224e-05
1.13964e-05
1.13929e-05
1.14142e-05
1.14093e-05
1.14029e-05
1.13469e-05
1.13559e-05
1.13342e-05
1.13148e-05
1.13251e-05
1.13411e-05
1.13631e-05
1.1369e-05
1.13728e-05
1.13878e-05
1.13842e-05
1.13752e-05
1.1349e-05
1.12757e-05
1.13022e-05
1.06556e-05
1.12816e-05
1.2643e-05
1.14383e-05
1.14349e-05
1.14339e-05
1.143e-05
1.14433e-05
1.14387e-05
1.14463e-05
1.14506e-05
1.14555e-05
1.14629e-05
1.14757e-05
1.14706e-05
1.14663e-05
1.14787e-05
1.14862e-05
1.14902e-05
1.32462e-05
1.31294e-05
1.31444e-05
1.28581e-05
1.29496e-05
1.30253e-05
1.31271e-05
1.15531e-05
1.15837e-05
1.16195e-05
1.16567e-05
1.16786e-05
1.15345e-05
1.15162e-05
1.1513e-05
1.14944e-05
1.15009e-05
1.14903e-05
1.14895e-05
1.14881e-05
1.17083e-05
1.17497e-05
1.20779e-05
1.21028e-05
1.20606e-05
1.18534e-05
1.18331e-05
1.18916e-05
1.19467e-05
1.19301e-05
1.19806e-05
1.20238e-05
1.18045e-05
1.23263e-05
1.22646e-05
1.25565e-05
1.26472e-05
1.2748e-05
1.2506e-05
1.2427e-05
1.22258e-05
1.21491e-05
1.14258e-05
1.14188e-05
1.13988e-05
1.13892e-05
1.14102e-05
1.14157e-05
1.14081e-05
1.14044e-05
1.1348e-05
1.13544e-05
1.1331e-05
1.1337e-05
1.13147e-05
1.13235e-05
1.13447e-05
1.1362e-05
1.13678e-05
1.13698e-05
1.13839e-05
1.13706e-05
1.13784e-05
1.13056e-05
1.12946e-05
1.12663e-05
1.13065e-05
1.08617e-05
1.12759e-05
1.20211e-05
1.14347e-05
1.14321e-05
1.14303e-05
1.144e-05
1.14356e-05
1.1442e-05
1.14466e-05
1.14533e-05
1.14565e-05
1.14679e-05
1.14659e-05
1.14616e-05
1.14752e-05
1.14822e-05
1.14841e-05
1.3289e-05
1.32154e-05
1.32241e-05
1.29212e-05
1.28147e-05
1.30173e-05
1.30885e-05
1.31854e-05
1.15561e-05
1.15873e-05
1.16693e-05
1.16913e-05
1.16867e-05
1.15181e-05
1.15054e-05
1.15026e-05
1.14927e-05
1.14874e-05
1.14846e-05
1.14814e-05
1.14794e-05
1.17203e-05
1.1771e-05
1.2117e-05
1.20726e-05
1.18754e-05
1.18295e-05
1.19162e-05
1.19685e-05
1.19442e-05
1.19314e-05
1.2008e-05
1.20539e-05
1.17944e-05
1.23541e-05
1.22886e-05
1.26031e-05
1.26983e-05
1.27385e-05
1.25049e-05
1.24742e-05
1.23995e-05
1.22014e-05
1.21654e-05
1.1423e-05
1.14175e-05
1.13958e-05
1.13906e-05
1.14094e-05
1.14136e-05
1.1403e-05
1.13513e-05
1.13573e-05
1.13304e-05
1.13367e-05
1.13126e-05
1.13203e-05
1.13271e-05
1.13469e-05
1.136e-05
1.13654e-05
1.13877e-05
1.13819e-05
1.13714e-05
1.13787e-05
1.12973e-05
1.1295e-05
1.12677e-05
1.13055e-05
1.11241e-05
1.13004e-05
1.13184e-05
1.14315e-05
1.14281e-05
1.1427e-05
1.14368e-05
1.14391e-05
1.14328e-05
1.14425e-05
1.1448e-05
1.14562e-05
1.14653e-05
1.14602e-05
1.14585e-05
1.14697e-05
1.14775e-05
1.14784e-05
1.32936e-05
1.29652e-05
1.28451e-05
1.30734e-05
1.30309e-05
1.31698e-05
1.32551e-05
1.15542e-05
1.15837e-05
1.16338e-05
1.17692e-05
1.1738e-05
1.17559e-05
1.17272e-05
1.15246e-05
1.15042e-05
1.14927e-05
1.14922e-05
1.14828e-05
1.14787e-05
1.1477e-05
1.14799e-05
1.14756e-05
1.14775e-05
1.14749e-05
1.17577e-05
1.21017e-05
1.1872e-05
1.18501e-05
1.1901e-05
1.19749e-05
1.19611e-05
1.1947e-05
1.20155e-05
1.20613e-05
1.18101e-05
1.2331e-05
1.22543e-05
1.26183e-05
1.27215e-05
1.2796e-05
1.25583e-05
1.24965e-05
1.24248e-05
1.22159e-05
1.21546e-05
1.14244e-05
1.14202e-05
1.14151e-05
1.13965e-05
1.14083e-05
1.14119e-05
1.14132e-05
1.14053e-05
1.14006e-05
1.13535e-05
1.13567e-05
1.13324e-05
1.13417e-05
1.13162e-05
1.13203e-05
1.13272e-05
1.13522e-05
1.13462e-05
1.13605e-05
1.13631e-05
1.13884e-05
1.13825e-05
1.13769e-05
1.13699e-05
1.13807e-05
1.12697e-05
1.12925e-05
1.12994e-05
1.12885e-05
1.1261e-05
1.13101e-05
1.11435e-05
1.13e-05
1.11778e-05
1.29115e-05
1.14282e-05
1.14289e-05
1.14255e-05
1.14343e-05
1.14352e-05
1.14298e-05
1.14307e-05
1.14384e-05
1.14466e-05
1.14511e-05
1.14599e-05
1.1456e-05
1.14537e-05
1.14683e-05
1.14722e-05
1.14722e-05
1.29635e-05
1.29098e-05
1.31482e-05
1.30911e-05
1.32348e-05
1.32989e-05
1.15985e-05
1.16616e-05
1.17248e-05
1.18065e-05
1.17732e-05
1.17312e-05
1.17447e-05
1.15309e-05
1.14885e-05
1.14837e-05
1.14825e-05
1.14761e-05
1.14747e-05
1.14688e-05
1.14699e-05
1.14697e-05
1.17756e-05
1.2121e-05
1.18883e-05
1.18325e-05
1.1997e-05
1.20395e-05
1.20893e-05
1.17899e-05
1.23562e-05
1.2267e-05
1.26778e-05
1.26013e-05
1.27748e-05
1.2817e-05
1.25453e-05
1.24743e-05
1.24012e-05
1.21811e-05
1.14221e-05
1.14204e-05
1.14162e-05
1.13955e-05
1.14102e-05
1.14117e-05
1.14122e-05
1.14041e-05
1.14016e-05
1.13582e-05
1.13333e-05
1.13422e-05
1.13155e-05
1.13233e-05
1.13306e-05
1.13532e-05
1.13493e-05
1.1365e-05
1.13856e-05
1.13926e-05
1.13785e-05
1.13725e-05
1.13837e-05
1.1266e-05
1.128e-05
1.12981e-05
1.12891e-05
1.1278e-05
1.13128e-05
1.12875e-05
1.10715e-05
1.29016e-05
1.14256e-05
1.14259e-05
1.14226e-05
1.14314e-05
1.14348e-05
1.14276e-05
1.14281e-05
1.14377e-05
1.14419e-05
1.14497e-05
1.14594e-05
1.14557e-05
1.14516e-05
1.14507e-05
1.14637e-05
1.14676e-05
1.30397e-05
1.29342e-05
1.32277e-05
1.31108e-05
1.32796e-05
1.16787e-05
1.16385e-05
1.18158e-05
1.18043e-05
1.16584e-05
1.17343e-05
1.18527e-05
1.1505e-05
1.15827e-05
1.1485e-05
1.14735e-05
1.1473e-05
1.14676e-05
1.14691e-05
1.1466e-05
1.14621e-05
1.14652e-05
1.14618e-05
1.14648e-05
1.17491e-05
1.21175e-05
1.235e-05
1.22263e-05
1.23124e-05
1.26836e-05
1.26382e-05
1.27942e-05
1.28772e-05
1.2577e-05
1.25013e-05
1.24228e-05
1.2186e-05
1.14208e-05
1.14182e-05
1.14142e-05
1.13977e-05
1.14093e-05
1.14111e-05
1.14065e-05
1.14003e-05
1.13595e-05
1.13391e-05
1.13461e-05
1.13209e-05
1.13259e-05
1.13358e-05
1.13568e-05
1.13525e-05
1.13495e-05
1.1367e-05
1.13878e-05
1.13941e-05
1.13817e-05
1.13764e-05
1.13715e-05
1.13847e-05
1.12714e-05
1.12674e-05
1.1304e-05
1.12927e-05
1.12874e-05
1.12767e-05
1.13115e-05
1.13201e-05
1.12975e-05
1.22749e-05
1.12227e-05
1.28076e-05
1.14229e-05
1.14246e-05
1.14294e-05
1.14311e-05
1.14257e-05
1.14261e-05
1.14341e-05
1.14414e-05
1.14456e-05
1.14559e-05
1.14506e-05
1.14487e-05
1.14471e-05
1.14607e-05
1.14625e-05
1.30507e-05
1.29967e-05
1.32858e-05
1.32003e-05
1.17796e-05
1.17972e-05
1.15676e-05
1.1516e-05
1.12022e-05
1.20209e-05
1.15093e-05
1.16143e-05
1.14686e-05
1.14683e-05
1.14627e-05
1.14658e-05
1.14624e-05
1.14614e-05
1.14588e-05
1.14593e-05
1.14601e-05
1.18937e-05
1.21499e-05
1.23873e-05
1.27331e-05
1.26541e-05
1.28622e-05
1.27863e-05
1.25372e-05
1.26197e-05
1.24648e-05
1.14188e-05
1.14172e-05
1.14137e-05
1.13967e-05
1.14089e-05
1.14102e-05
1.14057e-05
1.14024e-05
1.13599e-05
1.13652e-05
1.1341e-05
1.13476e-05
1.13257e-05
1.13345e-05
1.13371e-05
1.13592e-05
1.13556e-05
1.13535e-05
1.13923e-05
1.13863e-05
1.13798e-05
1.1375e-05
1.13909e-05
1.12697e-05
1.12643e-05
1.13078e-05
1.12948e-05
1.12843e-05
1.12782e-05
1.13198e-05
1.13289e-05
1.1282e-05
1.16385e-05
1.11959e-05
1.30523e-05
1.14205e-05
1.14228e-05
1.14266e-05
1.14306e-05
1.14236e-05
1.14238e-05
1.14347e-05
1.14382e-05
1.14431e-05
1.1451e-05
1.14534e-05
1.14452e-05
1.14444e-05
1.14436e-05
1.14556e-05
1.14579e-05
1.31217e-05
1.30183e-05
1.32028e-05
1.18782e-05
1.17403e-05
1.19124e-05
1.12258e-05
1.15983e-05
1.253e-05
1.15523e-05
1.14811e-05
1.18364e-05
1.14574e-05
1.14588e-05
1.14558e-05
1.14579e-05
1.1455e-05
1.1456e-05
1.14546e-05
1.14549e-05
1.14547e-05
1.27089e-05
1.29107e-05
1.2847e-05
1.25143e-05
1.26254e-05
1.24743e-05
1.14185e-05
1.14162e-05
1.14151e-05
1.14135e-05
1.13996e-05
1.14094e-05
1.14093e-05
1.14119e-05
1.14079e-05
1.14027e-05
1.13657e-05
1.13684e-05
1.13443e-05
1.13526e-05
1.13342e-05
1.13389e-05
1.13435e-05
1.13647e-05
1.13577e-05
1.13564e-05
1.1395e-05
1.13853e-05
1.13914e-05
1.13795e-05
1.13733e-05
1.13952e-05
1.12662e-05
1.1272e-05
1.12641e-05
1.12577e-05
1.1317e-05
1.13025e-05
1.1288e-05
1.12767e-05
1.1328e-05
1.13365e-05
1.12692e-05
1.1154e-05
1.2442e-05
1.12205e-05
1.26898e-05
1.14203e-05
1.14225e-05
1.14247e-05
1.14286e-05
1.14228e-05
1.14221e-05
1.14318e-05
1.14393e-05
1.14487e-05
1.14504e-05
1.14423e-05
1.14419e-05
1.14406e-05
1.14544e-05
1.3093e-05
1.29728e-05
1.32862e-05
1.20215e-05
1.1767e-05
1.2064e-05
1.19465e-05
1.1429e-05
1.16162e-05
1.1471e-05
1.1768e-05
1.14421e-05
1.14541e-05
1.14477e-05
1.14525e-05
1.14516e-05
1.14531e-05
1.14523e-05
1.14507e-05
1.145e-05
1.14502e-05
1.27309e-05
1.29109e-05
1.28284e-05
1.25052e-05
1.25358e-05
1.26777e-05
1.1417e-05
1.14146e-05
1.14142e-05
1.1399e-05
1.14103e-05
1.14103e-05
1.14093e-05
1.14116e-05
1.14055e-05
1.13682e-05
1.13473e-05
1.13567e-05
1.13445e-05
1.13469e-05
1.13694e-05
1.13653e-05
1.13642e-05
1.13899e-05
1.13953e-05
1.13854e-05
1.13778e-05
1.13994e-05
1.12654e-05
1.12685e-05
1.12602e-05
1.12558e-05
1.13232e-05
1.13089e-05
1.12912e-05
1.12837e-05
1.13359e-05
1.13445e-05
1.12485e-05
1.12741e-05
1.09765e-05
1.17148e-05
1.12168e-05
1.2614e-05
1.14196e-05
1.14224e-05
1.1423e-05
1.14262e-05
1.1429e-05
1.1422e-05
1.14214e-05
1.14335e-05
1.14374e-05
1.14457e-05
1.14473e-05
1.14392e-05
1.14427e-05
1.14402e-05
1.14394e-05
1.14378e-05
1.14498e-05
1.31454e-05
1.30073e-05
1.32326e-05
1.1987e-05
1.20749e-05
1.20561e-05
1.15535e-05
1.14407e-05
1.17566e-05
1.14343e-05
1.14461e-05
1.14425e-05
1.14405e-05
1.14457e-05
1.14458e-05
1.14495e-05
1.14466e-05
1.14456e-05
1.14463e-05
1.14446e-05
1.27712e-05
1.2964e-05
1.28713e-05
1.25535e-05
1.2698e-05
1.14165e-05
1.14146e-05
1.14154e-05
1.14151e-05
1.14143e-05
1.14022e-05
1.14126e-05
1.14105e-05
1.14138e-05