/*--------------------------------*- C++ -*----------------------------------*\
| =========                 |                                                 |
| \\      /  F ield         | OpenFOAM: The Open Source CFD Toolbox           |
|  \\    /   O peration     | Version:  v2012                                 |
|   \\  /    A nd           | Website:  www.openfoam.com                      |
|    \\/     M anipulation  |                                                 |
\*---------------------------------------------------------------------------*/
FoamFile
{
    version     2.0;
    format      ascii;
    class       volScalarField;
    location    "1.1";
    object      p;
}
// * * * * * * * * * * * * * * * * * * * * * * * * * * * * * * * * * * * * * //

dimensions      [1 -1 -2 0 0 0 0];


internalField   nonuniform List<scalar> 
13611
(
91557.1
92105.1
91752.8
92614.8
92425.1
91443.3
92484.7
93164.3
93101.9
92900.9
92016.9
92825.6
93419.8
93662.6
92775.6
92780.9
92456.4
91444.6
93318.5
93614.3
94265.1
93643.3
92205.2
92604.3
93401.6
92761.1
92216.1
93524.5
94041.1
94403.4
94677.9
94014
92441.9
93117
93676.4
93261.7
92627.9
91586.3
93946.9
94389.5
95013.1
95194.1
94710.1
94452.5
92687.8
91443.7
93303.7
94086
93464.4
92728.1
92241.9
94186.2
94890.2
95339.9
95205.9
95491.4
95236.9
94763.6
92903.9
92389
93647.4
94349.8
93153.3
93963
92677.1
91800.1
94620.2
95169.9
95877.1
95727
95923.1
95246.5
93521.8
92950.3
91320.9
94139.2
94911
93409.4
94219.8
93022.6
92043.1
94881.6
95632.8
96065.5
96142.5
95908.3
96155.7
95574.6
93723.4
93183.7
92713.8
94388.6
95127.9
93873.9
94703.3
94164.2
92959.1
92633.2
91497
95364.4
95970.3
96528.7
96578.6
96415.3
96611.3
96265.1
96091
94107.5
93470.3
92984.6
92557.2
94848.8
95589.1
94031
94889.3
94568.4
93650
92905.1
91878.3
95613.3
95912.7
96479.3
96715.7
96919.6
96915.7
96795
96690
96371.7
94271.3
93542.6
93024.8
92765.6
94980
95841.8
94491.9
95333.7
93803.7
92571.3
93440.2
91250.9
96116.4
96323.6
96854.6
97237.6
97382.9
97356.8
97254
97025.1
96878.4
94704.4
93926.8
92854.7
92944.4
95431.9
95851.5
96292.8
94802
95519.8
94266
92750.5
93604.1
92242.7
96321.9
96768.4
97318.8
97510
97778.9
97747
97517.2
97159.5
97422.3
97104.6
94927.8
94041.9
93544.8
92656.1
93830.7
95417
96310.3
96673.1
94725.2
95286.1
96036.7
94156.5
92451
93372.9
91978.6
96834.2
96993.7
97779.5
98057
98243
98116.6
97974.7
97692.1
97829.1
97598.7
94880.1
94354.3
93697.8
93148.7
94369.3
95748.1
96268.7
96747.9
95178.4
95674.1
96129.9
94402.7
93296.3
93660.2
93587.5
97081.7
97369.4
98236.7
97773
98396.6
98673.3
98560.9
98190.7
98151.2
97905.7
97841.1
95211.5
94347.3
93878
92133.8
93457.2
91836.4
95637.9
96589.9
97209.2
95652.9
95203.7
96531.7
94838.2
94152.9
93105.5
93386.1
92908.5
96949.2
97607.5
97499
98665.8
98151.9
98904.4
99199.8
98878.4
98664.7
98595.7
98350.9
98345.2
95170.6
94784.7
93695.3
91721.4
93576.7
91734.9
95948.1
97143.9
96357
97437.6
96096.6
95683.1
96526.6
95059.4
94262.1
93664
92748.3
92756.2
97347.1
97740.9
97949.8
98881.9
99039.9
98651.2
99309.2
99130.7
99540.8
99318.6
98875.5
98865.9
98528.5
98725.5
98650.3
95605.3
94718.7
94232.5
93213.5
93621.2
91198.3
97378.7
96629.2
97998.4
96121
95597.8
96961.2
94862.4
93940.5
93411.2
92960.4
97361.2
98095.2
98210.3
99424.9
99488.7
98911.9
99744.1
99643.6
100038
99564.8
99343
99429
98975.3
99105
99157.3
98525.6
95751.9
95038.4
94057.9
93061.4
93369.9
92138.1
97067.2
97814.6
96587.6
98341.1
96598.2
95914.8
97012.4
95091.5
94244.4
93352.3
92735.4
92639.3
97783.1
98127.9
98666.3
99747
99829.5
99363.3
100191
100283
100344
100031
99630.6
99679.6
99289.9
99487.2
99475.3
98844.9
95453.2
96233.8
95010.1
94242.8
93154.1
93888
92259.9
97333.1
97773.6
98273.4
97079.5
98898
96704.9
96405
95631.2
97485.5
94835.2
94212.5
93946.4
92987.7
92583.2
97868
98588
98986.1
100256
99705.2
100250
99418.7
100610
100713
100891
100261
100080
100116
99744.1
99809.2
99978.6
99292.2
95767.2
96227.8
94723.5
95569.7
93127.8
93706.8
91369.9
92205.7
98080.3
98715.5
97318
99297.6
97205.5
96757.7
95933.6
97590.7
95088.3
94725.5
94134.7
93423.3
92779.1
91578.4
98326.7
98709.4
100512
100473
100180
100620
99827.2
101031
100949
101053
101191
100738
100437
100453
100191
100107
100258
99637.5
96558
94907.8
95781.6
93331.9
94153.1
91045.2
92308
97893.5
98618.9
99233.1
97110.9
99809.1
97251.9
96532.6
95594.7
98094.4
94644
93920.4
93336.6
93051
92054.7
98466.8
99150.6
101010
101008
100267
101083
101429
101403
101488
101674
100852
100901
100547
100535
100099
100708
99568.1
96344
94663.4
95512.2
93106.3
94051.8
91587.9
92147.5
98189.5
98923.6
99667
97456.2
100265
97735.7
96759.1
95853.1
98209.6
95042.1
94071
93723.6
92744.7
91769.7
98968.5
99289
101167
101284
100757
101469
101810
101708
101915
102021
101255
101285
100934
100956
100478
100834
101016
99975
96624.1
94972.3
95788.8
93637.6
94589.1
91456
92350.5
98008
98705.7
99370.8
99670.7
100198
97230.6
100781
97870.2
96381.3
97208.5
95594.5
98766.9
94929.2
94488.5
93628.3
93135
92168.4
99164
99802.4
101634
101796
101895
102233
102212
101641
102351
102528
101727
101350
101375
100427
101247
101479
96359.8
95526.8
93424.1
94686
91098.7
92099.9
98381.2
98982.6
99641.1
100077
100520
97462.7
101239
98427
97620.9
96664.5
97154.9
95965.2
98867.1
95411.1
94473.3
94045.6
93102.8
91716.7
92706.2
99688
100009
101820
102022
102101
102056
102280
102610
102438
102077
102830
102900
102135
101759
101797
100822
101579
101423
101833
96649.8
95830.5
94126.9
92744.1
95088.9
91430.5
90504.7
92166.9
98338
98870
99486.3
100056
100383
100947
97923.5
97177.8
101273
101688
98483.8
98026.7
96491.7
97509.2
95887.4
99359.9
95347.7
94860.6
94091.9
93685.2
92259.9
92978.3
99991.8
100464
102374
102479
102609
102575
102698
103089
102876
103239
103366
102587
102189
102201
101256
100807
102019
101873
102224
96432.2
95635.3
94053.2
93022.8
95024.3
91103.4
90527.2
92463.6
98689
99231.3
99625.5
100374
100735
101058
98083
97428.4
101737
102114
98883.5
98013.4
96787.6
97329.9
96394.2
99867.8
99348.1
95831
94610.7
93629.1
91830.8
92689.9
100543
100692
102531
102805
102834
102847
103120
103465
102982
103261
103715
103766
102613
102604
101651
101210
102320
102152
101992
102596
96767.6
96091
93508.5
94532
95475.6
91446.1
90451.4
92306.7
99152.4
98539.5
99362.2
99937.9
100497
100734
101412
97890.4
97233.9
101764
102133
98879.1
98423.3
97626.6
96410.4
100347
99742.3
95837.6
94874
94028.7
92421.6
93219.1
100913
101143
102975
103202
103322
103258
103526
103902
103480
103672
104113
104226
103038
103015
101622
102780
102569
102369
102959
96640.5
95991.8
93445.7
94471.3
95404.4
91595.4
90246.3
92606.6
99369.1
98734.3
99835.6
100326
100988
101077
101413
98106.6
97521.5
102125
102583
99279.6
98576
98247.8
97413.1
96894.3
100276
100866
99704.9
96339.5
95417.1
94579.2
93868.7
91848.9
92667.1
93040.9
101394
101467
103408
103019
103479
103598
103499
103966
104269
104106
103515
103809
104062
104599
104665
103398
101964
102910
102671
102572
103353
96996.2
96341.2
93016.8
94037.9
94972.6
95780.2
91190.5
92211.3
88660.4
99774
99140.1
98540.5
100100
100589
101212
101760
97941.6
97395.4
102104
102558
99156.4
98402.3
97867.5
96825.4
100598
101364
100199
96243.2
95690.6
94930.2
94238.1
92197.5
92694.6
93522.9
101775
101882
103875
103492
103941
104112
103972
104311
104697
104615
103863
104271
104406
104933
105074
103767
102396
103341
103037
102958
103771
97015.7
96814.2
96177.7
93299
93897.9
95033.4
95779.6
90867.4
92138.7
88776.8
99900.5
100062
99309.8
98717.5
100474
101015
101581
101801
98203.4
97660.3
102399
102848
99585
98869.9
97831.1
97285.3
101079
101798
101451
100223
96609
95492.2
94766.2
94046.2
93215.7
102194
102224
104298
103914
103530
104305
104156
104304
104693
105071
104861
104269
104606
104793
105429
105525
104144
102629
103365
103769
103142
103205
104198
97495
97054.1
96440.2
92946
94248.9
95473.2
94725.2
96177
90775.3
91469.4
89756.9
99692.8
100268
100439
99095.4
98564.2
100751
101106
101835
102184
98054.7
102423
102714
103207
99462.1
98882.1
98357.8
97179.8
101427
102329
102015
100724
96414.9
95851.8
95130.6
94472.4
93508.3
102515
102529
104732
104342
103886
104719
104636
104816
105003
105531
105325
104584
104448
105100
105143
105710
105563
105833
102949
103676
104147
103524
103186
103558
104663
97703.1
96823.6
97513.7
93307.7
93977.1
95492.4
95028.8
96312.6
91196.9
92132.5
88171.3
99849.4
100503
100373
100740
99179.3
98844.3
101323
101850
102216
98244.1
102763
102928
103384
99863.8
99454.5
98230
97587.4
101311
102032
102490
100827
96766.9
95663
95051.7
94212.2
102923
102806
104742
105143
104494
103752
104285
105120
104967
105098
105395
105664
105051
104901
105483
106247
105958
106296
103015
104036
104558
103431
103846
104794
105067
98059.2
96981.1
97723.5
93086.6
94348.8
95746.8
95045.9
96098.3
96715.8
91616.1
91463.4
92666.1
89744.4
100188
99733.2
100827
100723
101021
99469.2
98838
101259
101623
102182
102492
98569.5
102935
103233
100448
99675.7
98655.2
97343.7
101852
102567
103057
101553
96460.3
95928.1
95539.8
103430
102976
105142
105568
105012
103882
104540
105516
105448
105526
105675
106135
105458
105937
106519
106494
106367
106581
103230
104336
104885
103731
103398
104240
105306
105488
98305
97308.3
98071.9
97580.9
93486.1
94274.9
94807.2
95546.2
96351.3
96881
91212.9
91846.3
92673.3
91399.9
90947.8
100283
100030
100916
101049
100811
99468.8
99185
101524
101733
102226
102468
102826
98630.4
103270
103403
100743
99311.8
100363
98340.7
97721.7
102524
103158
103635
101789
96813.2
103651
103179
105554
105982
105220
104153
103681
104956
104423
105958
105842
105836
106108
106499
106324
105864
106340
107035
106998
106830
107088
104791
105342
103860
103555
104547
105599
105899
98312.9
97229.1
98166.9
97898.4
93935
93075.6
94648.4
94951.6
95739.3
96721
96179.5
91247.5
92270.8
90432.8
90140.1
100568
100025
101200
101333
101093
99754
99176.6
101563
101991
102499
102722
103072
98888.8
103469
101335
99662.8
100706
98726.7
97455.9
103184
103885
104387
102425
103299
104282
106019
106438
105641
104120
103855
105018
104697
106410
106369
106264
106931
106853
106300
106034
106824
107304
107246
107186
107281
105123
105717
104196
103513
104519
104985
106064
106257
98702.5
97437.1
98468.9
97935.7
94186
93248.4
94786.2
95269.8
95600.8
96949.7
96379.1
91273.8
92056.4
90253.7
90882.1
100650
100257
101380
101360
101123
101332
99823
99402.1
101823
102039
102535
102715
103001
103380
98924.2
103768
101631
99354.5
100352
101358
98514.6
97924.3
103104
104008
105287
102284
103227
103840
105298
106469
106034
106837
105848
104304
105328
104604
106852
106730
106631
107189
106656
106549
107208
107886
107717
107684
107741
105595
106204
104194
103292
103776
104967
105262
106361
106693
98756.4
97294.5
97738.8
98502.8
98260.3
94060.7
94613.6
92967.1
93738.9
95196.1
95912.4
96890.2
96231.7
96675.9
90928.5
92374.4
90052.5
89833.2
100930
100505
100160
101620
101632
101385
101597
99677.3
99257.2
101844
102319
102767
102965
103140
103608
103978
99617.9
100739
101748
99062.4
103753
104874
105940
102573
103306
104374
106470
106931
106434
107276
106296
105720
104246
105279
104738
107340
107221
107059
107748
107088
106835
107714
108136
108089
107932
107926
107979
105942
106606
104616
103012
103489
105032
105752
106896
107025
99023.1
97490.6
97904.3
98824.1
98250.3
94379.4
94668.2
93281.2
93893.4
95402.9
95820.3
97157.8
96518.4
96773.3
91003.4
92084.3
89681.6
90252
91171.4
100988
100736
100323
101832
101416
101606
101826
99872.7
99408
102073
102331
102981
102862
103392
103598
103907
100243
101409
102322
103650
104575
107109
103165
102787
102064
108294
107056
107331
106824
107651
106525
105990
104504
104999
105523
107729
107501
107417
108059
107422
107298
108015
108662
108647
108480
108488
108567
106460
107141
104781
103002
103744
105438
106120
107248
107507
99289.6
99040.5
97773.8
97397.7
98915.8
98462.6
94439.1
94920.1
93710.9
93310.3
94247.4
95364.2
96000
97065.9
96541.1
91461.6
92587.6
89464.5
89790.8
89700.8
101217
100669
100188
102059
101627
101837
102067
99742.4
102537
103139
102785
103085
103491
103867
104038
102727
104218
104791
106824
103144
102245
100954
109962
107534
107756
107172
108105
106994
106358
105843
104513
105116
105410
108142
108030
107877
108635
107854
107619
108496
108851
109137
109113
108743
108709
108832
106861
107516
105355
104451
102368
103159
105944
106719
107765
107866
99490.5
99349.2
97908
97640.5
99234.2
98760
98388.9
94779.2
95178.3
93898.2
93145.3
93674.5
94364.6
95638.1
95861.3
96317.1
97208.9
96874.2
91033.8
92629.1
89111.3
90040.6
89724.4
101333
100829
100357
102248
101615
101829
102074
102250
99917.6
102480
103359
102980
103262
103720
103900
104279
104018
105224
108001
103513
97240.7
102778
113386
107581
107835
108227
108413
107058
106627
106015
104729
104990
105557
108319
108206
108957
108170
108062
108711
109359
109667
109701
109344
109229
109357
107431
108051
105874
104632
102069
103664
106305
107133
108140
108326
99771.5
99443.6
98134
97657.9
99260.4
98958.5
98635.5
94926.9
95356.6
94171.4
93467.5
93748.8
94653
95593.6
95995.9
96401.9
97489.4
97116.3
96866.9
91433.4
92249.1
93226.8
87882.8
89454.4
87069
101285
101090
100648
100216
101797
102025
102274
102481
102615
103446
103224
102978
103855
104080
104399
104154
104353
106217
103608
99991.9
93956.2
95289
115605
108009
108351
108621
108740
107385
106589
105837
106300
104647
105166
105424
108895
108817
109538
108562
108414
109133
109640
109420
109595
109827
110203
109519
109405
109634
107849
108490
106028
105548
101351
102919
106907
107774
108608
108691
99944.9
99774.6
98133
97897.1
99455.4
98887.9
98621.9
94856.8
95249.8
94268.8
93481.2
93994.9
94703
95823.9
96200.4
96606.7
97606.9
97429.3
97042.7
90654.3
92751.7
93447.4
86817.9
88075.4
84517.5
101570
101200
100799
100382
102009
101789
102241
102467
102562
102829
103646
103340
103213
103825
104039
104290
103810
104107
108398
101965
94331.5
96565.3
120892
108150
108473
108961
109092
109209
107867
107209
106853
105964
106409
104796
105057
105574
109182
109912
108880
108844
109219
109883
109760
110034
110235
110225
110031
109890
110036
108379
108961
106801
106212
102962
107243
108232
109006
109149
100241
99911.3
98388.6
97868.6
99331.8
99727
99079.9
98920.3
95066.1
95395.4
94196
94565.8
93811.8
94066.8
94968.4
95890.6
96291.8
96558
97545.1
96768
97238.9
91289.7
93376.4
92664.3
93789
84612.6
86606.1
82446
101534
101074
100667
102185
102041
102427
102675
102782
102913
103711
103570
103288
104013
104177
104339
103487
103230
103677
101624
102245
90736
89170.4
120116
108723
108873
109416
110025
109891
108098
107385
106702
106241
105823
104751
105132
105521
109781
110360
109219
109643
109807
110229
110623
109997
110448
111492
110125
110091
109924
108869
109515
107024
105977
104353
107846
108304
108760
109446
109485
100405
100193
98358.2
98025.8
99506
99897.1
99004.2
95266
95619.1
94337.6
94641.9
93886.6
93991.2
94223.5
95080.8
95798.2
96175.2
97909.3
97452.4
96813.1
97305.4
91071.9
93885.2
93578
94074.8
82318.7
86616.6
78526.4
101651
101221
100816
102197
102388
102119
102663
102857
103147
103946
103656
103498
104059
104166
104464
109539
105510
103008
82655.8
104346
100368
118902
108943
109067
109254
109701
110777
110294
110485
108609
107774
107166
106841
106332
105898
104604
104838
105340
104998
105720
109849
109679
110314
111122
111048
110778
111697
112325
110754
110557
110910
109418
110040
107623
107894
104237
108171
108865
109384
109897
109900
100683
100354
100310
98555.2
99441.3
99777.7
100158
99247.4
98832.3
95407.7
95638.3
94510.6
94831.1
94056.7
94140.4
94319.7
95357.5
95008.5
95989.8
96249.1
98052.8
97658.9
97136
96675
97561.8
93750.3
89024.9
94143.1
94048.8
94153
94229.4
77466.7
83393.5
70811.2
79419.5
101470
101866
101096
102435
102536
102030
102389
102829
103070
103227
104047
103834
103572
104247
104298
104445
106233
104208
88707.8
105203
99180.7
109834
109527
109651
109895
110066
110527
110647
110622
108799
107820
107387
106626
106121
104760
105347
105052
105731
111460
110060
110953
111557
111359
110724
110723
112543
109809
110464
108126
108038
107866
105171
108774
109255
109877
110262
100827
100664
100596
98507
99727.2
99927.8
100329
99280.9
99015.6
95858.4
94561.4
94820.3
94164.7
94278.5
94463.5
95474.4
95161.3
96423
97890.3
98299.9
97239.3
96809.7
97736.4
95079.6
89699.7
94494
94641.4
95011.7
94344.7
86945
62989.3
75323.9
101621
101881
101233
102526
102749
102297
102483
103038
103148
103434
104242
103990
103880
103780
104328
104609
108325
104842
89355.5
106420
93248.1
109829
109843
110216
111078
110060
109942
110674
108486
109467
108049
107226
106652
106188
104762
105205
105468
104914
105605
105824
111444
110552
110406
110603
110631
108475
108442
109301
105433
109296
109657
110357
110715
101092
100768
100627
98741.7
99751.7
100216
99486.5
98963.9
95931.9
94681.3
94937.9
94315.7
94367.3
94521.3
95661.7
95343.6
95095.5
96371.2
97981
98395.7
97480.8
97042.2
96623.6
97713.5
96944.8
93761.7
94584.2
94756.5
94911.1
95952.3
94461.6
94368
86799.8
54386.8
71106.3
82690.3
101524
102107
102780
102894
102340
102713
103196
103355
103498
104338
104129
104095
103882
104486
104603
112401
106580
100599
106926
110274
110414
110024
111007
112057
111253
108558
109513
108040
106881
107299
106398
105994
105273
105413
104885
105736
112636
110676
110823
109125
108838
107467
109902
109674
109358
110128
101204
101034
100845
98670.6
99954.2
100340
99425.2
99155.4
95822.1
96189.9
94662.7
94885.9
94347.7
94452.9
94503.2
95648.4
95428.5
95196.7
98232.8
97496.2
97093.4
96660.6
97922.5
98618.9
95766.6
94726.3
95015.7
95446.4
95980.2
94520.8
94427.7
99847.8
37252.7
48859
74936.8
101656
102119
102881
103128
102607
102800
103415
103470
103656
104277
104496
104171
104063
103814
104564
104730
112602
103190
111818
110301
110427
110392
110971
110733
111293
109093
108365
109719
107637
106818
107011
106405
106033
105217
105431
104973
105778
109024
106345
111091
110512
110027
110712
101454
101177
101118
100813
98824.3
100200
99979.7
100571
99578.1
99093.4
96014.9
96247
94737.1
94960
94392.7
94476.2
94596.1
95757.5
95357.3
95122.8
98338.8
97307.2
97792.4
96902.4
96468.4
98170.3
100561
97621.7
101782
96277.4
94607.1
94895.7
95350.8
96597.4
94453.4
94403.4
117244
11114.7
56513.6
79825.2
76376
101913
102378
103083
103283
102638
103019
103578
103658
104429
104543
104317
104157
103976
104717
105469
103690
110080
111610
111693
111900
110042
112346
109417
108242
109478
107692
106591
106935
106212
105910
105333
105097
105538
104943
105686
109245
111977
109155
110738
111090
109960
101489
101356
101089
98715.7
100376
100295
99817.1
100599
99357.3
95969.2
94697.6
94886.6
94522.8
94570.3
95663.5
95445.1
95191.4
97318.1
97886.3
97009
96490.3
98324
100035
98246.6
104031
99349.1
94639.2
94990.3
95565.9
96151.5
94474.6
94414.5
101973
131193
3297.51
57744.7
39206.7
86953.6
102034
102436
103151
103252
103519
102825
103169
103785
103801
104482
104636
104366
104441
104116
104301
103967
104828
105403
106311
106496
112646
113351
111816
108925
108014
109463
107349
106534
106665
107064
106208
105927
105349
105162
105514
105101
105702
109115
112570
108837
111293
110686
101665
101379
101585
101040
101278
98840.8
100442
99940.3
100791
99425.6
96068.8
94752.7
94933.8
94461.5
94584
95762.3
95363.8
95086.4
97471.8
97732.6
98166.7
96908.9
96285.7
96689.2
98618.9
101293
97578.2
105368
94804.8
94529.4
95273.2
96204.1
94422.4
94425.7
94405.5
98183.2
162766
2309.59
21838.9
26460.6
105022
102321
101908
102714
103347
103495
103651
103035
103178
103385
103980
104631
104795
104538
104555
104275
104381
104115
105922
106647
111481
108803
108034
109383
110372
107239
106341
106574
106872
106057
105805
105429
105269
105621
105105
110139
111733
109066
110415
101656
101764
101269
101520
99059.6
100380
100728
99738
100183
99274.3
95939.1
94685.8
94854.9
94523.2
95676
95417.5
95127.7
97381.5
97963.5
98241.8
97096.9
96369.2
96625.6
98762.7
99864.3
96701.6
97691.4
106258
94765.2
94490.7
95301.2
95671.2
94371.5
94393.7
94382.1
102678
105440
174161
119403
2300.1
58157.6
2332.96
120310
102461
102112
102836
103531
103868
103188
103445
103596
104020
104126
104724
104885
104602
104690
104281
104519
108775
107465
108366
109112
107646
110509
109334
110553
106939
107353
106296
106659
106392
106048
105851
105427
105346
105626
104998
105174
110785
109829
110077
110611
101739
102020
101530
101198
99071.5
100600
100909
99804.3
100254
99561.3
95971.9
94724.8
94865.2
94491.1
95547.8
95281.7
94994.6
97536.3
97963.4
98436.7
96989
96279
96737
98680.3
98409.1
101706
96272.4
96961.6
94850.3
94570
94375.7
95039.5
95503.8
94288.6
94345.1
94419.9
94293
102935
104902
176534
125596
5835.47
49948.5
102356
102699
103094
103692
103963
103436
103651
103532
104259
104330
104856
104715
104803
104403
104616
108429
107950
108232
108960
107823
110344
109771
106763
107134
106152
106517
106299
105945
105771
105457
105339
105678
105552
105084
105271
105189
109063
110363
101980
102166
101776
101326
99272.6
100826
100545
100075
99546
96094.1
94624.3
94754
94516.9
95598.5
95254.5
95044.5
97373
97778.1
98180.6
98390.5
97122.2
96358.7
96601.3
98845.2
97248.5
101065
96384.9
95699.6
96669.2
94651.1
94531
94292.8
94950.8
95144.9
94183.3
94278.2
94365.5
94207
99324.8
103518
177633
157495
100681
102548
102788
103241
103864
104161
103574
103818
103765
104327
104408
104946
104807
104761
104913
104583
109770
108403
109224
107597
110132
106557
106681
107259
106840
106105
106350
106167
105927
105775
105427
105681
105570
105067
105356
105285
109921
102033
102395
101841
101047
101536
99245.3
100714
100152
99720.2
96045.4
94732.4
94464.3
95737.7
95395
94955.4
97478
97871.7
98166.3
98667.6
97007.1
96234.3
96739.1
99073
97138.6
98714.9
95891
95319
95998.6
94530.4
94417.6
94183.1
94309.8
94625.4
94903.4
94074.9
94261.5
94363.6
94115.9
102920
102892
147619
90770.5
102562
102986
103481
103170
104045
104225
103803
104018
103895
104519
104578
104963
104916
105007
104711
110812
107988
109075
107720
109840
106408
106437
107015
106679
105995
106226
106072
105836
105727
105464
105632
105532
105152
105350
105435
105305
102270
102552
101749
102209
101004
101520
99575.8
100644
100408
99961.8
95907.4
94800.1
94579.3
94482.4
95683.2
95343.3
95043.9
97315.4
97736.1
98311.8
98715.1
97087.6
96220.7
96658.2
99188.9
95820.8
99099.5
95400.5
94969.5
95430.9
94362
94065.9
94158
94567.8
93982.5
94174.3
94276
94084.3
103058
80413.4
100512
122035
100221
88988
102804
102999
103600
103393
104095
104399
103990
104208
104114
104566
104667
104679
104682
105022
104955
105137
104868
108185
109065
108600
107407
110334
106248
106294
107047
106754
106457
105959
106095
105983
105837
105730
105644
105561
105259
105406
105484
105421
102513
102831
102061
102348
101209
101753
99666.8
100880
100424
100147
95986.4
94711.4
94556.6
94349.5
95515.8
95857.1
95180.6
94894.6
97345.7
97938.3
98543.9
98218.6
99003.2
96877.9
96301.6
96489.6
99436.4
95293.8
95784.5
97138.3
95003.3
94694.9
94950.7
95151
94198
94044.6
93967.2
94102.1
94418.2
93898.4
94185.1
94224.1
93972.2
98012.2
90005.6
95679.1
96365.7
90763.5
103228
103815
103415
104388
104225
104003
104454
104770
104859
104842
104882
105127
105148
105238
104977
107751
109027
108754
107323
109555
106103
106299
106103
106735
106540
106373
105879
105988
105893
105772
105685
105615
105542
105355
105481
105470
102821
103047
102061
102592
101142
101694
100031
100745
94716.8
94451.6
94330.6
95476
95822.8
95178.2
94985.8
97010.8
97418.7
97946.7
98650.7
98428.3
99111.4
96833.5
96116.8
96582.3
99448.7
94654.3
94790.9
94633.2
94539.8
94469.1
94507.9
94500.8
94115
93925.4
93846.5
93928.6
94248.7
93769.7
93876
94050.6
94106.3
93951.5
96063.1
83591.9
85916.7
94037.8
86707.7
103254
103846
103632
104536
104434
104246
104608
104846
104884
105036
105037
105220
105182
105275
105352
105123
107772
109196
108342
106955
110149
105972
106087
105974
106499
106700
106151
105861
105887
105843
105780
105687
105637
105574
105451
105547
105512
102832
103070
102299
102677
101375
101902
100149
100832
94595.6
94431.2
94199.5
95285.9
95622.2
94918.6
97072.8
97547.9
98350.6
97786
98930.1
96196.4
96481.6
99612.1
94101.3
94534.5
94293.5
94205.8
94208.7
94300.5
94242.4
94040
94141.3
93892.1
93820.3
93763.4
93833.7
94086.3
93654.9
93756.5
94032.2
93849.1
94814.4
82857.6
80174.3
72630.2
89852.2
103467
104073
103654
104745
104463
104589
104288
104789
105072
105086
105171
105164
105338
105353
105241
105423
105445
107371
108767
108451
106754
109072
105831
105941
106012
105853
106210
106347
106042
105811
105792
105778
105742
105665
105701
105650
105612
105577
105590
105537
105560
105573
103086
103378
102570
102208
103036
101359
101754
99915.7
100384
100615
101158
94603.7
94274.7
94054.3
94152.7
95209.9
95577.3
94732.6
95013.4
96970.4
97517.4
98410.8
98084.7
99058.1
96017.6
96522.7
99480.1
93515.7
93569.1
94033.9
94019.1
93840.5
93937.7
93489.2
93852.2
93754.1
93664.2
93604.8
93691.9
93877
93623.8
93537.7
93741.1
93878.2
92822.3
83547.6
79829.3
74839.1
89046.8
103535
104078
103863
104885
104712
104863
104552
104961
105158
105211
105341
105373
105443
105446
105409
105561
105554
106876
107485
109016
107978
106598
106310
109973
105757
105779
105744
105797
105712
106103
105815
105761
105723
105724
105737
105674
105668
105657
105664
105641
105640
105580
105649
105648
103307
103471
102857
102400
103219
101899
100101
100400
100928
101237
94420.9
94267.9
93868.5
93992.6
95317.5
95671.8
94711.1
94911.8
97198.5
96695.9
97712
98655.6
98023.6
98925
96286.1
95811.7
99651.8
92865.4
92702.1
93778.3
93805.4
93776.1
93466.3
93746.9
92954.6
93741.8
93572.6
93559.7
93613.4
93553
93758.2
93459.5
93407.1
93602.3
93753.8
90837.1
81798.6
86286.4
78118.9
103835
104292
105105
104944
104758
104553
105177
105339
105401
105230
105461
105462
105576
105559
105582
105680
105644
106579
106999
108428
107948
106114
106042
109132
105653
105643
105661
105687
105694
105602
105817
105615
105664
105678
105695
105669
105668
105682
105671
105683
105696
105698
103543
103747
103150
102786
102228
103513
101771
100098
100614
100906
101514
94371.4
94117
93750.8
93945.6
95184.2
95464.9
94552.9
94961.4
97103.9
96624.1
97563.1
98704.9
98119.7
99161.9
96254
95826.4
99458.9
99913.9
92073
91804.1
93566.5
93587.8
93519.3
93121.4
93529.8
92504.9
93556.5
93455.8
93412.1
93463.9
93403.2
93561.1
93451
93329.8
93323.3
93593.2
89803.1
83217.9
87642.8
74094.8
80075.2
104023
104291
105154
105032
104768
105385
105580
105484
105661
105661
105619
105659
105741
105840
105758
106163
107028
109005
107469
105714
105700
110207
105590
105492
105531
105456
105490
105615
105635
105380
105591
105613
105663
105646
105678
105739
105708
105783
105758
103813
103983
103465
102991
102354
103698
102082
100492
101103
101493
94195.4
94060.5
93643.4
93714.1
95212.7
95605.7
94611.8
94834.4
96837.6
97298.5
96360.1
97840.8
98550
99066
98310.7
95994
99679.4
99992.9
91554.9
90516
93355
93400.2
93266.9
92742.2
93105.8
93330.9
92507.6
91867.6
93455.5
93459.5
93319.2
93348.5
93252.8
93428.2
93333.3
93181.3
93171.5
93458.5
85452.2
82315
87095.2
80212
104582
105177
105309
105134
104996
105579
105428
105746
105777
105751
105785
105752
105810
105890
105926
105828
105833
105930
105753
106584
108889
107561
105375
105383
109528
105489
105414
105387
105353
105353
105303
105216
105463
105585
105617
105667
105639
105714
105786
105733
105814
105793
104137
104253
103530
103277
102817
102582
103979
102182
100646
100970
101734
94119.5
93851.1
93453.8
93585.2
93571.1
95039.1
95526.9
94460.1
94795
96776.7
97205.4
96240.7
97798.1
98741.4
99203.7
98289.5
95945.4
99567.7
100246
90627.3
89934.9
93268.1
93202.6
93236.4
93133
92559.4
92791.8
92032.7
91624.4
93298.4
93277.4
93203.7
93227.9
93174.5
93111.7
93258.8
93161.3
93329.4
93079.8
93098.5
93090.1
86106.6
83693.8
88591.8
82359.2
104599
105460
105510
105429
105176
105796
105676
105945
105990
105942
105971
106046
106041
105958
105981
105475
106013
105385
106911
107949
104962
105120
110346
105374
105422
105257
105176
105205
105182
105072
105038
105407
105485
105538
105582
105674
105622
105731
105822
105784
105914
105886
104225
103847
103403
103137
102578
104134
102052
100515
101103
101654
94229
93928
93792.5
93256.4
93349.2
93445.8
95103.4
95728.2
95302.4
94586.6
96928.3
96487
97469
96265.2
98030
98582.5
99023.3
99708.1
100269
90430.5
93030.1
93039.3
93104.4
92935.4
92248.4
92767.8
91949.4
91050.8
93190.5
93185.5
93058.7
93092.9
92989.7
93131.1
93046.3
93175.8
92879.8
92905.1
92917.2
85303.3
87583.5
83562
88589.1
83403.4
104832
105592
105744
105516
105190
105851
105997
106122
106058
106097
106034
106153
106152
106057
106057
105994
105153
105511
105055
106704
107785
104663
104831
104769
109144
105253
105320
105138
105008
105097
104954
104795
104866
104949
105337
105439
105534
105590
105691
105646
105781
105894
105808
105922
105922
104506
103929
104059
103729
103168
102822
104560
102243
100826
101409
102011
94185.2
93832.9
93567.8
93128.9
93233.7
93408.6
94888.7
95733.6
95218
94462.4
96819.7
96508.1
97421.4
95998.4
97961.2
98676.1
99143
100019
99482.4
100762
89625.7
92890.6
92931.1
92964.4
92154.8
92565.4
91613.6
91138.8
93043.6
93049.2
92975.1
92972.2
92873.4
93030.3
92885.9
92787.7
92801
92794.5
92821.7
85949.3
88019.7
85077.8
85062.5
104747
105067
105912
105951
105733
105619
106119
106266
106340
106246
106288
106245
106311
106330
106192
106185
106115
104835
105119
105318
106993
106074
108365
104312
104434
104594
109540
105142
105276
104984
104855
104961
104737
104610
104714
105345
105415
105475
105561
105702
105633
105784
105928
105870
106013
105993
104282
104340
103798
103467
102767
104772
102484
101581
102130
94048.8
93845.1
93564.2
92972
93042.3
93169.8
94953.4
94569.5
95470.7
96811.2
96267.6
97077.1
97648.6
95968.1
98228.4
98511.3
98956.5
100149
99593
100850
89645.3
92737.3
92904.4
92801.4
92897.2
91819.2
92300.4
92589.5
91585
90959.8
92918.7
92924.5
92871.7
92816.1
92730.5
92915.2
92802.1
92672.8
92629.4
92601.7
92630.6
87217.3
88900.1
86183.8
105097
105294
106107
106182
106006
105794
106310
106426
106456
106388
106425
106422
106459
106500
106246
106224
106083
106207
104470
104653
104819
105482
106627
105852
107886
104102
104156
104231
104338
109028
105081
105178
104920
104841
104698
104849
104482
104525
105276
105378
105502
105596
105705
105744
105848
106002
105879
106042
104463
104611
104084
103446
103118
105041
102502
101435
101984
94019.1