/*--------------------------------*- C++ -*----------------------------------*\
| =========                 |                                                 |
| \\      /  F ield         | OpenFOAM: The Open Source CFD Toolbox           |
|  \\    /   O peration     | Version:  v2012                                 |
|   \\  /    A nd           | Website:  www.openfoam.com                      |
|    \\/     M anipulation  |                                                 |
\*---------------------------------------------------------------------------*/
FoamFile
{
    version     2.0;
    format      ascii;
    class       volScalarField;
    location    "1.1";
    object      p_rgh;
}
// * * * * * * * * * * * * * * * * * * * * * * * * * * * * * * * * * * * * * //

dimensions      [1 -1 -2 0 0 0 0];


internalField   nonuniform List<scalar> 
13611
(
101142
101330
101106
101344
101604
101007
101343
101413
102641
101585
101359
101448
101669
101443
102033
101350
101353
101019
101513
101524
101521
101456
101720
101386
101527
101440
101562
101549
101485
101528
101515
101453
101738
101523
101664
101497
101525
101155
101549
101585
101578
101566
101521
101506
101536
101021
101738
101608
101474
101408
101526
101558
101584
101571
101588
101560
101553
101536
101607
101752
101699
101652
101390
101533
101521
101312
101550
101617
101587
101602
101581
101564
101780
101887
100903
101719
101640
101503
101544
101503
101308
101560
101605
101602
101583
101619
101561
101578
101790
101931
102046
101716
101627
101594
101579
101564
101367
101385
101046
101572
101631
101607
101585
101631
101591
101577
101589
101715
101792
101909
102104
101668
101636
101593
101589
101574
101512
101479
101194
101590
101618
101649
101638
101618
101595
101593
101577
101594
101705
101756
101628
101948
101657
101629
101580
101606
101561
101425
101564
100814
101614
101651
101645
101644
101638
101608
101604
101583
101603
101715
101711
101502
102141
101672
101689
101669
101577
101610
101586
101396
101556
101544
101607
101673
101653
101655
101629
101612
101600
101607
101599
101608
101696
101785
101761
101330
103392
101701
101682
101690
101616
101590
101619
101621
101298
101567
101513
101624
101681
101676
101655
101633
101613
101609
101601
101602
101616
101748
101669
101925
101808
103768
101698
101709
101711
101636
101624
101633
101676
101770
101711
102926
101634
101695
101683
101694
101655
101647
101627
101603
101602
101606
101623
101704
101677
101648
101154
101698
101470
101697
101703
101712
101642
101658
101644
101667
101771
101619
102986
101831
101645
101638
101694
101690
101704
101655
101652
101629
101617
101606
101610
101633
101669
101673
101493
100758
101865
101150
101708
101710
101680
101727
101660
101675
101660
101690
101681
101789
101999
101592
101663
101655
101711
101717
101689
101715
101669
101680
101650
101635
101610
101611
101611
101605
101641
101640
101622
101604
101937
101563
100776
101735
101673
101745
101691
101704
101681
101739
101597
101794
102155
101680
101660
101737
101731
101718
101746
101667
101691
101647
101621
101616
101608
101613
101608
101639
101661
101642
101561
101526
101846
101357
101398
101691
101736
101663
101756
101715
101738
101709
101711
101595
101587
101366
102182
101690
101682
101754
101746
101704
101764
101665
101640
101664
101629
101613
101608
101624
101606
101646
101672
101568
101629
101471
101437
101549
101424
101563
101727
101760
101784
101703
101803
101748
101752
101723
101729
101691
101637
101719
101539
101885
101723
101692
101784
101752
101770
101711
101799
101677
101630
101642
101621
101609
101597
101623
101607
101632
101665
101578
101624
101460
101554
101528
101200
100991
101038
101783
101802
101718
101822
101770
101802
101787
101776
101735
101706
101700
101607
101652
101133
101733
101717
101787
101745
101792
101703
101820
101660
101629
101653
101658
101621
101607
101601
101607
101616
101634
101675
101629
101372
101525
101283
101222
100666
101140
101779
101832
101843
101707
101840
101817
101815
101767
101799
101680
101675
101599
101693
101316
101780
101722
101799
101749
101828
101718
101680
101624
101642
101647
101604
101588
101594
101594
101658
101610
101705
101589
101280
101461
101047
101110
100890
100537
101801
101859
101877
101715
101866
101857
101873
101806
101849
101736
101654
101679
101522
101272
101792
101769
101817
101764
101841
101710
101670
101619
101627
101644
101599
101586
101585
101586
101657
101615
101585
101721
101589
101260
101441
101110
101159
100576
100853
101796
101855
101893
101897
101891
101684
101868
101911
101847
101906
101781
101887
101731
101706
101613
101562
101414
101859
101771
101827
101758
101716
101681
101606
101600
101613
101637
101572
101571
101563
101693
101593
101561
101527
101366
100818
101158
100319
100306
101817
101892
101932
101939
101916
101679
101891
101958
101927
101902
101952
101844
101959
101804
101716
101682
101529
101256
101467
101870
101808
101855
101807
101776
101740
101699
101657
101589
101584
101613
101618
101572
101562
101544
101694
101559
101605
101534
101526
101336
101008
100461
101089
100187
100082
100526
101823
101890
101951
101978
101931
101932
101741
101615
101930
101882
102020
101984
101908
102001
101864
102016
101817
101763
101690
101631
101524
101500
101945
101803
101861
101827
101766
101724
101705
101665
101561
101586
101616
101546
101539
101530
101644
101747
101520
101555
101506
101460
101212
100838
100599
100991
99935.9
99824.1
100422
101855
101935
101983
102017
101991
101977
101752
101637
101960
101908
102080
102057
101977
102035
101933
102026
102104
101889
101724
101634
101352
101421
101944
101862
101888
101822
101743
101784
101685
101636
101546
101566
101580
101598
101529
101499
101632
101752
101505
101520
101562
101490
101494
101253
100665
100874
101055
99943
99966.7
100326
101949
101854
101964
102023
102053
102025
102020
101730
101581
102006
101951
102143
102112
102098
101954
102128
102183
101903
101787
101713
101748
101613
102023
101833
101902
101820
101732
101795
101685
101632
101509
101526
101561
101591
101502
101479
101689
101452
101463
101503
101448
101431
101191
100482
100735
100967
100054
99543.4
100316
101992
101890
102046
102060
102117
102075
102065
101757
101630
102036
101976
102222
102192
102173
102094
102028
102239
102150
102265
101979
101846
101762
101732
101451
101584
101558
101992
101876
101876
101958
101837
101708
101756
101667
101611
101649
101488
101507
101541
101557
101572
101442
101684
101426
101444
101493
101422
101491
101237
100314
100625
100844
101038
99984.8
100176
98238.2
102076
101973
101861
102097
102113
102159
102112
101723
101588
102083
102027
102273
102249
102176
102047
102377
102269
102380
101986
101902
101816
101763
101473
101560
101669
102076
101795
101897
101978
101808
101710
101756
101674
101605
101629
101453
101491
101507
101536
101570
101428
101573
101364
101378
101379
101364
101434
101368
101150
100322
100488
100799
100977
99646.5
99843
98058.6
102127
102106
102020
101895
102135
102179
102182
102156
101778
101638
102117
102052
102389
102338
102208
102123
102463
102233
102424
102474
102052
101890
101814
101730
101629
101993
101824
101865
101942
102026
101826
101780
101727
101656
101592
101633
101432
101468
101510
101527
101558
101388
101562
101336
101330
101346
101296
101350
101586
101398
101201
100121
100504
100869
100617
101074
99240.5
99416.1
98977.4
102117
102222
102192
101985
101865
102194
102228
102240
102197
101741
102174
102099
102048
102424
102382
102305
102136
102636
102352
102600
102606
102032
101955
101869
101771
101678
102135
101691
101876
101945
102040
101801
101770
101714
101664
101582
101619
101440
101393
101466
101483
101541
101500
101561
101422
101249
101248
101254
101289
101195
101305
101620
101299
101548
100114
100298
100835
100648
101063
99885.5
99817.3
97687.9
102173
102242
102275
102227
102021
101943
102263
102294
102258
101789
102202
102151
102097
102540
102496
102310
102214
102701
102755
102596
102707
102094
101945
101882
101729
102064
101644
101915
101840
101983
102096
102020
101803
101736
101684
101633
101596
101395
101367
101441
101532
101485
101560
101440
101200
101217
101116
101061
101250
101323
101721
101327
101595
99944
100349
100854
100557
100945
101201
100068
99429.9
99901.1
99061.3
102261
102157
102325
102375
102280
102108
101942
102290
102298
102347
102296
101871
102251
102145
102661
102570
102409
102168
102933
102999
102854
102904
102039
101976
101935
102385
101749
101924
101847
101969
102130
102051
101763
101731
101673
101635
101583
101400
101459
101542
101515
101493
101562
101262
101091
101129
100983
101060
101004
101197
101290
101784
101411
101685
101505
99956.7
100230
100445
100726
100985
101219
99736.9
99639
99754
100257
100544
102314
102261
102379
102332
102440
102121
102046
102361
102356
102419
102354
102300
101893
102245
102191
102778
102521
102714
102335
102240
103133
103143
102917
103022
102087
102054
101390
101887
101808
101984
102131
102174
102028
102106
101768
101704
101680
101619
101572
101597
101373
101440
101553
101519
101488
101560
101068
101130
100786
100765
100874
101221
101304
101768
101337
101705
101603
100042
99719.5
100273
100417
100716
101111
100870
99345
99627.5
99313.5
99480.5
102405
102281
102454
102404
102529
102216
102056
102416
102412
102485
102409
102351
101972
102290
102919
102605
102830
102432
102172
103435
103526
103565
103222
101326
102453
101901
101830
101965
102185
102222
102067
102127
101739
101715
101647
101571
101594
101404
101338
101461
101554
101526
101494
101567
100971
101071
100657
100495
100724
100875
101201
101252
101906
101393
101812
101590
100048
99653
100231
100474
100594
101158
100893
99138.7
99412.1
98818.6
100422
102457
102366
102457
102525
102585
102563
102244
102136
102480
102479
102554
102471
102410
102349
101973
102276
103012
102551
102751
102962
102366
102265
103452
103738
104049
103184
100803
101495
103610
101863
101941
101777
101990
102212
102080
102172
101746
101693
101651
101615
101368
101344
101434
101583
101529
101514
101568
100977
101076
100351
100454
100170
100629
100753
101147
101255
101925
101298
101497
101801
101702
99898.6
100145
99477.3
99742.9
100372
100636
101088
100762
100989
98983.7
99340.2
98667.1
99192.5
102555
102439
102370
102518
102579
102687
102668
102215
102100
102541
102564
102602
102519
102467
102398
102305
102635
102901
103061
102492
103698
104200
104761
103236
100742
101816
104293
101863
101937
101800
101967
102035
102273
102128
102208
101756
101713
101638
101633
101386
101299
101458
101597
101586
101506
101481
101601
100896
101015
100297
99860.5
99666.1
100473
100773
101162
101210
102015
101348
101524
101928
101683
99929.7
100056
99466.8
99695
100367
100542
101164
100823
100967
98846.6
99055.1
98630.8
98450.8
100787
102623
102549
102446
102650
102743
102723
102701
102308
102152
102614
102637
102580
102675
102498
102460
102368
102769
103005
103175
103590
104019
105482
103398
99808.5
98957.8
106119
101890
101843
101903
101786
101960
102025
102289
102189
102120
101803
101749
101670
101641
101358
101315
101405
101620
101652
101550
101497
101651
100922
101055
100071
99453.9
99466.7
100440
100708
101106
101230
102105
102013
101446
101268
101958
101749
99840.9
100083
99588.4
99417.9
99734.3
100278
100531
101085
100762
98856.4
99103
98407.5
97935.3
99053.8
102714
102571
102420
102672
102830
102815
102799
102276
102710
102616
102732
102691
102580
102473
102396
103210
103717
103984
105205
103241
98938.3
97598.3
107335
101878
101855
101900
101810
101910
101984
102062
102343
102238
102183
101775
101748
101674
101709
101363
101273
101413
101638
101691
101688
101522
101434
101669
100866
100993
100242
99751.7
98680.9
98758.3
100570
100782
101146
101193
102188
102145
101491
101349
102083
101878
101683
99938.7
100166
99551.3
99325.4
99432.3
99666.4
100336
100417
100641
101102
100857
98391.2
99038.6
97665.5
97792.2
99258.2
102781
102657
102504
102742
102877
102868
102863
102807
102356
102769
102634
102821
102768
102590
102531
102398
103428
104002
105916
103230
93353.2
99663.6
110841
101873
101863
101908
101808
101884
101941
102070
102347
102304
102197
101764
101712
101751
101331
101285
101364
101681
101709
101782
101613
101451
101684
100945
101056
100321
99494.9
97983.5
98757.4
100539
100738
101106
101211
102303
102177
101561
101323
102092
101949
101783
99897.5
100124
99563.5
99324.5
99381.4
99710.7
100224
100399
100609
101229
100980
100800
98450.9
98867.9
99232.9
96355.4
97090.1
96337.1
102792
102750
102611
102471
102971
102962
102956
102890
102852
102731
102830
102885
102666
102554
102473
103170
103042
104161
103058
95689.4
90010.4
91776.8
112659
101855
101894
101936
101693
101869
101967
102137
102019
102436
102333
102267
101863
101830
101823
101340
101265
101339
101622
101528
101199
101801
101824
101515
101372
101688
100912
101054
100261
99973.3
96981.2
97975.6
100647
100871
101140
101196
102390
102325
101523
101400
102172
101900
101743
99791.2
100004
99462.3
99270.1
99392.3
99592.5
100280
100461
100661
101238
101111
100836
97848.1
99094.9
99295.7
95594.5
96022.4
94047.8
102949
102832
102697
102559
103020
103020
103009
102989
102965
102908
102779
102895
102953
102732
102629
102535
102806
102428
106000
97162.2
90014.8
93139.7
118064
101837
101885
101819
101765
101923
101847
101875
101925
102149
102030
102471
102414
102282
101929
101935
101301
101276
101281
101428
101392
101179
101715
101423
101514
101361
101570
100964
101078
100490
100216
97671.7
100652
100854
101131
101234
102515
102392
101620
101364
102093
102293
101979
101887
99778.8
99976.7
99409.9
99500.9
99319.8
99336.9
99655.1
100227
100404
100550
101111
100620
100903
98194
99352.4
99116.7
99331.7
93100.3
94571.8
91635.3
102996
102811
102672
103110
103152
103115
103110
103025
103005
102882
102942
103045
102775
102659
102586
102053
101449
101456
96865.1
97028.1
86323.2
85363.1
116976
101829
101829
101891
102183
102122
101803
101841
101958
102082
102212
102540
102433
102342
102047
101872
101266
101258
100954
101560
101313
101258
101613
102218
101338
101355
101178
100995
101147
100567
99896.3
98577.7
100759
100875
100890
101210
101235
102596
102512
101574
101393
102170
102371
101908
99842.4
100032
99352
99413.9
99306.1
99293.7
99267.4
99591.8
100127
100310
101296
101022
100561
100852
97971.3
99640
99762.7
99434.4
90957
94290.9
87701
103080
102909
102758
103165
103159
103226
103178
103129
103084
102925
103058
103100
102855
102723
102600
107014
100427
97351.2
78410.6
99473.4
96727.9
115885
101812
101875
101793
101678
102732
102139
102489
101785
101773
101865
101934
102077
102212
102566
102540
102411
102530
102294
101136
101269
101006
101913
101422
101518
102390
102735
101462
101309
101642
101039
101271
100764
101243
98243.1
100747
100930
101043
101252
101244
102714
102570
102581
101636
102110
102304
102500
102006
101786
99783.7
99925.8
99341.7
99395.8
99211.9
99230.1
99189.2
99694.2
99467.2
100132
100283
101325
101085
100708
100438
100985
100198
96233.7
99587.1
99903.2
100338
99340.9
85756
91240.8
79371.2
88935.1
103021
103177
102885
103276
103258
103222
103346
103291
103217
103190
103014
103111
103211
102852
102758
102718
100708
98409
84055.6
100174
95337.3
106404
101857
101927
102003
101666
101977
102010
102158
101699
101777
101821
101987
102135
102635
102472
102613
102318
102222
101282
101326
102029
101815
101179
101223
103008
101015
101197
101157
100721
101110
98766.6
100844
100900
101117
101353
102803
102738
102730
101572
102260
102380
102589
102013
101855
99991.2
99254
99274.3
99195
99161.4
99165
99655.6
99423.3
100309
101198
101439
100698
100433
101025
101392
96746
99736.6
100336
100889
99263.6
94393.1
71361.2
84601.8
103122
103243
102976
103361
103334
103388
103441
103350
103315
103254
103014
103089
103216
103280
102923
102772
102584
98515.9
84611.9
100962
88916
101863
101891
101883
102253
101230
101201
101744
101603
101778
101657
101808
101962
102144
102702
102590
102450
102711
102392
102260
102193
101287
101124
101041
101130
101080
100822
102133
98839.3
100941
100850
101110
101387
102933
102806
102755
101674
102258
102533
102102
101798
99930.9
99204.2
99214.2
99115.4
99071.3
99050.4
99686.6
99502.4
99285.9
100170
101192
101443
100801
100537
100269
100957
102876
100363
99585.7
100034
100369
101711
99343.4
99099.5
94170.9
63135.6
78898.6
92248.5
103116
103379
103475
103458
103461
103562
103488
103385
103365
103093
103174
103283
103399
102917
102845
106248
100116
95289.1
101279
101784
101967
101286
101742
102738
101883
101378
101601
101646
101884
101692
102034
102194
102652
102545
102792
102372
103087
101115
101245
101421
100816
100415
102285
100860
100986
100847
103013
102942
102866
101600
102354
102597
102043
101884
99780.2
100026
99085.8
99075.3
99022.5
98965.8
98950.4
99565.4
99424.8
99217.1
101316
100718
100486
100189
101029
104376
102204
99568
100085
100796
101448
99181.5
98952.2
106750
45840.3
56560
84293.6
103218
103421
103588
103548
103612
103666
103562
103500
103441
103173
103084
103382
103439
103463
103006
102859
106212
96314.2
105650
101613
101621
101630
101727
101133
101727
101472
101481
101305
101609
101868
101738
102030
102181
102720
102572
102825
102402
100907
99031.3
103072
101226
101219
101102
103136
103023
103002
102847
101637
102507
102342
102707
102112
101804
99784.8
99956.1
99004.4
98988.5
98847.2
98845.9
98845.3
99531.5
99286.8
99068.1
101317
100566
100894
100308
100024
101166
106365
103043
107819
102859
99257.5
99770.4
100470
101901
98944.2
98775.8
123926
19234.2
65428.9
87079.5
85970.6
103347
103570
103685
103670
103685
103780
103698
103551
103252
103170
103427
103549
103597
102981
98634
96464.6
103596
102389
102380
102631
101269
102767
101521
101211
101079
101555
101938
101714
102105
102282
102701
102786
102558
102975
102489
100749
104144
100620
101128
101825
101123
103188
103144
103015
101541
102599
102542
102233
102728
101950
99663
98872.8
98830.5
98735
98727.7
99352.2
99209.9
98982.6
100503
100892
100288
99939.7
101197
105536
103536
110006
105591
99130.6
99677.2
100530
101183
98781.6
98593.8
108226
137984
11335.1
66554.4
46481.9
96204.8
103451
103635
103790
103721
103751
103812
103897
103758
103662
103334
103195
103544
103406
103620
103596
103693
103050
98131.6
98727
99353.2
103116
103774
102535
101322
101363
100712
101521
101913
101800
101625
102102
102284
102776
102913
102636
103053
102472
100409
104601
99948.7
101704
101393
103288
103165
103260
102985
103110
101575
102613
102290
102837
101956
99611
98765.4
98728.5
98534.6
98567.1
99334.9
99065.4
98811.7
100526
100710
101055
100144
99736.7
99996.1
101383
106765
102616
111080
99299.5
98847.3
99999.6
101043
98558.9
98477.2
98494.8
104173
169185
9949.6
30239.1
33381.7
114143
103613
103408
103801
103903
103877
103891
103916
103946
103984
103896
103322
103175
103617
103504
103749
103729
103805
98251.2
99131.7
101982
101126
101256
100593
101098
101403
102000
101793
101600
102191
102382
102731
102893
102597
103151
100886
103482
100158
101060
103336
103383
103121
103270
101674
102557
102791
102142
102429
101815
99445.4
98598.1
98573.5
98451.4
99147.9
98972.6
98723.5
100385
100818
101046
100187
99682.3
99861.3
101419
105099
101546
102634
111872
99099.4
98640.1
99859.4
100274
98356
98275.6
98302.4
108593
111150
180690
125433
9833.38
66458.3
9417.64
128890
103731
103561
103909
103963
104007
104064
104119
104109
104008
103896
103407
103254
103728
103517
103836
103797
100705
99295.8
101133
101064
101151
101197
100820
100983
101478
101268
101987
101689
101886
102183
102407
102828
102954
102653
103237
103163
101237
101179
100703
101009
103402
103536
103282
103076
101642
102685
102898
102151
102446
101978
99377.5
98492.2
98442.4
98276.6
98995.8
98797.1
98518.4
100412
100755
101142
100032
99542.8
99853.5
101317
103428
107021
100882
101683
99119.6
98732.3
98362.3
99380.4
99921.3
98117.3
98185.8
98180.7
98104.7
108546
110428
182724
131351
13667.3
56730.5
103700
103862
104062
104088
104139
104214
104199
104221
104155
104021
103396
103777
103625
103957
103919
100007
99402.5
101033
101028
101054
100806
101066
101459
101183
102079
101671
101872
102284
102481
102833
103027
102578
102783
103370
103119
103342
100221
100795
103549
103648
103438
103163
101748
102831
102643
102313
101941
99405.7
98271.5
98276.8
98163.9
98916.5
98645.7
98440.4
100213
100573
100857
101031
100043
99484.8
99657.4
101382
102037
106265
100967
100118
101295
98737.6
98565.4
98122.7
99151.5
99377.1
97871
97970.1
97985.2
97881.1
104758
108832
183912
163299
106142
103833
103959
104191
104162
104251
104343
104319
104358
104288
104154
103504
103744
103933
103609
104019
100575
100874
100898
100975
100924
101567
101338
101045
101248
102069
101771
101973
102266
102451
102977
102652
102840
103501
103226
103432
100628
103597
103786
103476
102969
103289
101668
102734
102335
102018
99263.6
98140.1
97970.6
98956.8
98695.9
98257.6
100188
100560
100791
101212
99894.4
99339.7
99688.4
101521
101916
103695
100284
99530.8
100429
98470.7
98298.8
97869.9
98101.7
98608.3
98969.5
97612.3
97853.5
97867.3
97656.7
108110
108049
153139
96007.1
103866
104089
104329
104181
104316
104371
104480
104422
104486
104429
104253
103846
104051
103743
104158
101290
100636
100668
100844
100565
101545
101397
100939
101134
102166
101755
101973
102359
102565
103044
102769
102978
103632
103355
103175
103554
103753
103904
103416
103731
102929
103277
101890
102663
102493
102174
99096.9
98109.1
97923.8
97856.1
98790
98525.9
98232.6
100008
100375
100849
101182
99877.1
99242.6
99539.3
101559
100412
104061
99614.3
99014.1
99701.6
98166.3
97610.4
97795.6
98473.4
97395.3
97634
97663.7
97510.7
108048
86096.2
105710
127549
105229
94112.1
104030
104136
104458
104347
104403
104509
104636
104618
104617
104569
104464
104235
104391
103993
104179
103781
104218
100608
100211
100543
100757
100729
101637
101360
100790
100988
101157
102169
101870
102080
102367
102583
102818
103044
103646
103437
103252
103593
103901
104085
103637
103841
103052
103430
101906
102807
102473
102265
99052.7
97910
97769.3
97603.2
98603.2
98879.7
98323.8
97983.7
99968
100479
101010
100721
101384
99664.3
99216.1
99349.6
101707
99682.3
100406
101928
99038.4
98571.9
99005.4
99403.9
97848.9
97578
97387.9
97675.7
98181.7
97176.7
97556.6
97494.4
97264.9
102797
94974.7
100921
101206
95640.9
104305
104613
104402
104592
104760
104700
104775
104734
104640
104371
104490
104059
104302
103925
104397
100501
100065
100512
100525
100171
101608
101244
101464
100690
100907
101005
102263
101865
102108
102470
102707
102960
103187
103803
103404
103697
104128
104239
103644
104002
102987
103379
102159
102699
97808.8
97573.9
97464.6
98447.4
98729
98205.9
97984.4
99649
99966.2
100415
101025
100830
101411
99539.1
98959.3
99319.5
101675
98961.2
99240.2
98472.8
98332.2
98225.6
98389.3
98524
97660.8
97325.7
97148.8
97352.6
97852.3
96955.1
97105
97302.3
97291.8
97157.9
100650
88292.6
90935.8
98686.4
91399.4
104358
104684
104563
104747
104921
104891
104932
104868
104739
104720
104636
104031
104208
104487
103937
104529
100325
100497
100382
100453
100575
101720
101200
101434
100769
100559
100944
102250
101978
102068
102462
102722
103008
103261
103817
103494
103697
104154
104280
103807
104058
103142
103521
102209
102730
97587.3
97439
97228.1
98236.9
98496.6
97827.3
99636.1
100020
100724
100223
101224
98939.9
99174.2
101748
98232.1
98953.4
97978.1
97808.7
97811.1
98168.2
97949.2
98022.6
97666.5
97263.4
97113.2
96964.8
97160.5
97587.6
96717.9
96839.3
97098.5
96929.3
99350.3
87458
84705.5
77445.5
94400.2
104513
104862
104617
104871
105009
104985
104983
105036
105029
104898
104876
104669
104175
104313
104561
104558
104077
100132
99899.3
100310
100312
99750.9
101707
101274
101041
101513
100683
100443
100774
102329
101959
102190
102528
102822
102619
102924
103115
103410
103208
103928
103634
103859
104340
104503
103987
103744
104327
103101
103403
101983
102351
102525
102948
97486.9
97188.4
97053.1
97075.6
98058.6
98346.9
97590.1
97848.9
99476.1
99905.4
100699
100398
101263
98686.7
99116.6
101600
97602.1
97801.4
97544.3
97495.1
97517
97507.8
97278.3
97176.8
97012.2
96830.2
96694.5
96881.8
97223.9
96633.5
96542.7
96761.5
96884.6
97147.5
87885.6
84135.3
79434.9
93426.8
104584
104913
104779
105046
105214
105213
105204
105226
105014
105183
104996
104846
104203
104458
104767
104734
104133
100052
99973
100424
100077
100076
100269
100430
101839
101602
101198
100978
101423
100497
100733
102294
102079
102192
102430
102798
102666
103000
103128
103483
103360
104059
103726
103949
104486
104591
104208
103876
104466
103499
102086
102333
102744
102988
97214.5
97075.9
96727.6
96812.9
98081.7
98351.8
97468
97662.4
99604.2
99209.3
100018
100865
100290
101103
98865.4
98458.6
101690
96775.3
96891.7
97155.3
97116.3
97329.6
97104.7
97161.2
96715.3
96990.5
96681.2
96623.5
96739.9
96638
97015
96332.1
96298.9
96493.7
96639.4
95107.1
86011.7
90547.8
82286.7
104803
105087
105221
105341
105316
105258
105369
105156
105286
105269
105000
105185
104353
104519
104870
104783
104313
99721.9
99716.1
99831.7
99791.8
99951.5
100128
99777.1
101868
101613
101293
101072
100826
101491
100404
100570
102050
102329
102450
102913
102596
103239
103630
103382
104120
103900
104672
104791
104420
104168
103738
104673
103374
102034
102474
102704
103178
97056.9
96843.4
96556.6
96675.2
97855
98047.5
97227.3
97631.7
99433.7
99039.8
99802.5
100830
100299
101242
98756.9
98365.8
101484
101870
95947.2
95812.1
96783.1
96772.9
96929.9
96594.3
96858.3
96115.1
96635.3
96461.2
96347.3
96451.7
96367.7
96667.3
96267.8
96142.5
96171.3
96423.7
93898.4
87218.1
91723.4
78340.1
84053.7
104952
105130
105520
105544
105463
105553
105480
105485
105165
105349
104480
104672
105048
104959
104430
99569.7
99560.4
100098
99517
99684.2
100074
100600
101747
101246
101043
100758
101411
100457
100204
100594
102110
102347
102930
102647
103217
103682
103513
104242
103993
104870
104949
104663
104322
103829
104825
103608
102346
102819
103138
96802.4
96693.9
96340.1
96336.6
97791.4
98113.2
97205.6
97430.4
99169.7
99544.4
98779.9
100008
100648
101123
100430
98479.2
101617
101885
95260.2
94484.8
96447.9
96437.3
96587.4
96152.9
96440.9
96524.7
95972.9
95458.1
96481.8
96448.3
96199.7
96247.2
96096.9
96440.5
96040
95871.4
95898.6
96172.4
89330.5
86218.9
91014.3
84058.1
105364
105602
105604
105679
105625
105633
105645
105589
105180
105335
105531
104621
104770
105098
104948
104408
104622
99330.5
99551
99314.7
99991
99478.5
99691.4
99855
100181
101746
101117
100865
101421
100320
100126
100499
102026
102258
102528
103080
102795
103374
103825
103517
104183
103956
105121
105172
104720
104526
104171
103992
105033
103666
102436
102684
103309
96620.9
96414.6
96113.7
96200.1
96149.2
97527.3
97943.2
96970.5
97300.9
99033.4
99374.7
98597.2
99894
100749
101181
100326
98342.9
101481
102063
94289.9
93727.3
96358
96141.9
96151.3
96306.7
95789.7
95982.1
95396.1
95065.8
96190.7
96129.9
96008.6
96041.5
95938.1
95843.9
96147.2
95783.3
95994.2
95727.9
95703.8
95769.2
89787.8
87432.7
92349.1
86051
105424
105836
105815
105909
105790
105821
105854
105801
105391
105505
105678
105268
105039
104558
104786
99202.5
99152.6
99324.6
99271.9
99424.9
99452.6
99849.1
100811
101583
101833
101055
100829
101294
100332
99957.2
100494
101932
102214
102322
102570
103101
102832
103384
103824
103669
104311
104108
105204
104966
104630
104422
103987
105160
103555
102290
102753
103207
96691.8
96372.9
96273
95806.9
95871.3
95900.5
97506
98088.7
97676.9
97040
99106.2
98723.8
99560.4
98542.3
100055
100562
100980
101545
102029
93904.3
95957
95877.3
95890.5
95986.9
95392.8
95821.4
95172.2
94418.3
95975.9
95955.8
95749.5
95776.1
95604.4
95915.4
95576.6
95736.5
95402.3
95392.9
95480.4
88941.5
91132.5
87221.2
92173.3
86958.7
105619
105990
105988
106033
105831
105951
105928
105890
105538
105416
105661
105310
105220
104956
104765
104504
99021.6
98883.6
99238.2
99051.2
99236.9
99445.8
99251.8
99635.1
99799.2
101600
101771
101106
100704
101361
100216
99909.2
100302
100554
101995
102242
102456
102722
103237
102982
103544
103987
103679
104245
104109
105414
105040
105115
104888
104448
104170
105499
103697
102512
102987
103495
96541.4
96188.6
95972.1
95629.2
95668.5
95793.3
97214.6
98006.9
97489.4
96823.1
98944.2
98666.6
99444.6
98229.4
99907.4
100590
101024
101787
101308
102438
93056.2
95799.2
95643.4
95633.9
95139
95476.6
94768.5
94360.2
95710.8
95701.7
95595.6
95568.4
95385.5
95700.4
95319.8
95273.3
95248
95202.6
95317.3
89432.9
91388.5
88581.8
88498.9
105581
105772
106238
106193
106229
106189
106204
106192
106074
105744
105596
105835
105523
105338
105099
104919
104626
98987.6
98892.9
98669.8
98872.8
98807
99445.1
99268.7
99073.3
99702.2
99933.7
101524
101873
101024
100737
101255
100003
100173
100454
102115
102355
102479
102760
103225
103026
103563
103994
103833
104355
104254
105329
105352
104948
104680
104107
105683
103876
103096
103570
96344.2
96146.1
95893.4
95367.7
95391.6
95451.4
97201.7
96872.3
97696.7
98856.9
98380.1
99079.3
99597
98112.7
100114
100393
100824
101849
101352
102467
92927.4
95526.3
95547.7
95412
95457.7
94736.1
95180.5
95379
94594.2
94081.7
95467.7
95473.6
95377.1
95299.2
95140.2
95478.1
95161.7
95045.2
94972.9
94907.6
95006.7
90563.8
92155.7
89476.3
105874
106001
106443
106344
106426
106369
106315
106283
106231
106023
105872
105782
105665
105540
105085
104906
104501
104798
98815.1
98664.4
98534.7
98617.1
98453.3
98518.5
98970.9
99267.3
99038.4
98824.4
99595.5
99687.8
101607
101817
101113
100845
100585
101274
99956.2
100244
102149
102356
102639
102930
103304
103458
103737
104139
103843
104332
105476
105565
105178
104655
104386
105885
103882
102942
103428
96228.1
95780.6
95608.8
95241.8
95249.4
95226.9
95384.6
96941
96597.6
97635.9
98510.4
99032.5
99464.5
97873
100078
100568
100808
101602
102141
101043
102684
93280.7
95359.7
95291.9
95310
95196.9
95250.3
94556.1
94872.2
95106.7
94250
93693.7
95255.1
95261.5
95229.6
95119.5
94905.9
95275.5
94856.8
94848.8
94804.9
94824.6
94715.9
94826.8
90921.1
92416.3
90463.3
106007
106267
106636
106560
106642
106561
106564
106537
106386
106154
106114
105899
105697
105545
105225
105100
104543
104877
98640.2
98516.4
98324.2
98430.8
98733.6
98668.9
98419.9
99168.4
99412
98869.6
98604.4
99645.9
99058.9
101520
101868
100987
100821
100502
101372
101086
99803.7
100185
102112
102431
102686
102985
103188
103577
103781
104061
104306
105746
105402
105760
105181