/*--------------------------------*- C++ -*----------------------------------*\
| =========                 |                                                 |
| \\      /  F ield         | OpenFOAM: The Open Source CFD Toolbox           |
|  \\    /   O peration     | Version:  v2012                                 |
|   \\  /    A nd           | Website:  www.openfoam.com                      |
|    \\/     M anipulation  |                                                 |
\*---------------------------------------------------------------------------*/
FoamFile
{
    version     2.0;
    format      ascii;
    class       volScalarField;
    location    "1.1";
    object      rAU;
}
// * * * * * * * * * * * * * * * * * * * * * * * * * * * * * * * * * * * * * //

dimensions      [-1 3 1 0 0 0 0];


internalField   nonuniform List<scalar> 
13611
(
2.49483e-08
2.4892e-08
2.49186e-08
2.49118e-08
2.49136e-08
2.49487e-08
2.49193e-08
2.49338e-08
2.49471e-08
2.49041e-08
2.494e-08
2.49293e-08
2.48753e-08
2.49343e-08
2.49376e-08
2.48913e-08
2.49367e-08
2.49489e-08
2.49304e-08
2.49454e-08
2.49269e-08
2.48827e-08
2.49471e-08
2.49366e-08
2.48902e-08
2.49357e-08
2.49458e-08
2.49161e-08
2.49455e-08
2.49268e-08
2.491e-08
2.493e-08
2.49286e-08
2.4889e-08
2.49335e-08
2.49342e-08
2.49426e-08
2.49491e-08
2.49175e-08
2.49382e-08
2.49234e-08
2.48902e-08
2.48623e-08
2.49255e-08
2.49325e-08
2.49465e-08
2.48889e-08
2.49336e-08
2.49373e-08
2.49177e-08
2.49387e-08
2.49179e-08
2.49382e-08
2.49255e-08
2.49267e-08
2.49411e-08
2.48657e-08
2.48889e-08
2.49048e-08
2.49342e-08
2.49352e-08
2.49382e-08
2.49178e-08
2.49383e-08
2.49375e-08
2.49492e-08
2.49192e-08
2.49402e-08
2.4926e-08
2.49265e-08
2.49456e-08
2.49058e-08
2.4903e-08
2.49345e-08
2.49458e-08
2.49355e-08
2.49379e-08
2.49178e-08
2.49029e-08
2.48929e-08
2.49441e-08
2.49274e-08
2.49401e-08
2.49251e-08
2.49279e-08
2.48915e-08
2.4887e-08
2.49426e-08
2.4925e-08
2.48994e-08
2.49287e-08
2.49343e-08
2.49475e-08
2.49214e-08
2.48984e-08
2.48751e-08
2.49139e-08
2.49423e-08
2.49496e-08
2.4928e-08
2.48768e-08
2.4929e-08
2.49296e-08
2.49026e-08
2.48707e-08
2.48571e-08
2.49407e-08
2.49259e-08
2.49027e-08
2.49271e-08
2.49461e-08
2.49367e-08
2.49445e-08
2.49137e-08
2.49261e-08
2.4866e-08
2.491e-08
2.49164e-08
2.49409e-08
2.49364e-08
2.48804e-08
2.48857e-08
2.49237e-08
2.48991e-08
2.48876e-08
2.49092e-08
2.49067e-08
2.49459e-08
2.4939e-08
2.49089e-08
2.48844e-08
2.49097e-08
2.48996e-08
2.48831e-08
2.49205e-08
2.49251e-08
2.48952e-08
2.49366e-08
2.49157e-08
2.49499e-08
2.49378e-08
2.48882e-08
2.49273e-08
2.49212e-08
2.49124e-08
2.49128e-08
2.49143e-08
2.49163e-08
2.49462e-08
2.49339e-08
2.49153e-08
2.49085e-08
2.49095e-08
2.49253e-08
2.49135e-08
2.48949e-08
2.49308e-08
2.49073e-08
2.49317e-08
2.49123e-08
2.49077e-08
2.49414e-08
2.49416e-08
2.48766e-08
2.49264e-08
2.4931e-08
2.49288e-08
2.49265e-08
2.49197e-08
2.49081e-08
2.48828e-08
2.49326e-08
2.48952e-08
2.49191e-08
2.49068e-08
2.49096e-08
2.49468e-08
2.49007e-08
2.4905e-08
2.48748e-08
2.49371e-08
2.49244e-08
2.49143e-08
2.49076e-08
2.49372e-08
2.49118e-08
2.49495e-08
2.49405e-08
2.49205e-08
2.49017e-08
2.49334e-08
2.49155e-08
2.49105e-08
2.49123e-08
2.4904e-08
2.4883e-08
2.49322e-08
2.49223e-08
2.49328e-08
2.491e-08
2.49158e-08
2.49039e-08
2.49146e-08
2.49175e-08
2.49294e-08
2.49236e-08
2.48871e-08
2.49102e-08
2.49317e-08
2.48913e-08
2.4928e-08
2.4911e-08
2.49102e-08
2.49271e-08
2.49308e-08
2.48904e-08
2.49274e-08
2.49119e-08
2.48816e-08
2.49107e-08
2.49383e-08
2.49319e-08
2.49412e-08
2.4904e-08
2.49206e-08
2.49172e-08
2.49136e-08
2.49193e-08
2.49496e-08
2.48927e-08
2.49337e-08
2.4917e-08
2.49187e-08
2.48978e-08
2.49273e-08
2.49364e-08
2.49253e-08
2.48894e-08
2.49483e-08
2.49207e-08
2.49109e-08
2.491e-08
2.49128e-08
2.49302e-08
2.49293e-08
2.4918e-08
2.49121e-08
2.49179e-08
2.49067e-08
2.49344e-08
2.49352e-08
2.49414e-08
2.49182e-08
2.49193e-08
2.49158e-08
2.49138e-08
2.49131e-08
2.49089e-08
2.49274e-08
2.49325e-08
2.49308e-08
2.49341e-08
2.49147e-08
2.49183e-08
2.49161e-08
2.49119e-08
2.49286e-08
2.49405e-08
2.48871e-08
2.49004e-08
2.48818e-08
2.49022e-08
2.49098e-08
2.48981e-08
2.48825e-08
2.49279e-08
2.48773e-08
2.48808e-08
2.49366e-08
2.49193e-08
2.49278e-08
2.49138e-08
2.49014e-08
2.48823e-08
2.49208e-08
2.4894e-08
2.49336e-08
2.49242e-08
2.49122e-08
2.49072e-08
2.49498e-08
2.48806e-08
2.49039e-08
2.49347e-08
2.49341e-08
2.49151e-08
2.49115e-08
2.49287e-08
2.49418e-08
2.48968e-08
2.49131e-08
2.49083e-08
2.49205e-08
2.49281e-08
2.4909e-08
2.48682e-08
2.48985e-08
2.49264e-08
2.48794e-08
2.49349e-08
2.49295e-08
2.49281e-08
2.49111e-08
2.49055e-08
2.49016e-08
2.4921e-08
2.49004e-08
2.48903e-08
2.49197e-08
2.48971e-08
2.49145e-08
2.49102e-08
2.4918e-08
2.48943e-08
2.49172e-08
2.49129e-08
2.49091e-08
2.49251e-08
2.49463e-08
2.49192e-08
2.49263e-08
2.49105e-08
2.49318e-08
2.49107e-08
2.49474e-08
2.49049e-08
2.49012e-08
2.4927e-08
2.49163e-08
2.49269e-08
2.49166e-08
2.49322e-08
2.49185e-08
2.4914e-08
2.49293e-08
2.49163e-08
2.49015e-08
2.49053e-08
2.48981e-08
2.49211e-08
2.4935e-08
2.48896e-08
2.49124e-08
2.49016e-08
2.49501e-08
2.49107e-08
2.48985e-08
2.49338e-08
2.48867e-08
2.48947e-08
2.4913e-08
2.48919e-08
2.491e-08
2.49051e-08
2.49462e-08
2.49265e-08
2.4918e-08
2.49042e-08
2.4882e-08
2.49314e-08
2.48677e-08
2.49347e-08
2.49168e-08
2.48904e-08
2.48853e-08
2.49089e-08
2.48975e-08
2.4931e-08
2.49018e-08
2.49162e-08
2.49186e-08
2.49154e-08
2.49039e-08
2.49175e-08
2.49113e-08
2.49088e-08
2.4879e-08
2.49225e-08
2.4938e-08
2.48839e-08
2.49006e-08
2.49508e-08
2.48972e-08
2.49107e-08
2.49159e-08
2.49496e-08
2.49185e-08
2.49183e-08
2.49201e-08
2.4916e-08
2.48998e-08
2.49127e-08
2.49107e-08
2.49234e-08
2.49211e-08
2.49273e-08
2.48734e-08
2.49039e-08
2.49043e-08
2.4932e-08
2.49467e-08
2.49112e-08
2.49163e-08
2.49239e-08
2.49124e-08
2.48803e-08
2.48919e-08
2.49059e-08
2.49073e-08
2.48972e-08
2.48841e-08
2.49105e-08
2.49035e-08
2.4873e-08
2.49103e-08
2.49044e-08
2.49091e-08
2.49247e-08
2.49216e-08
2.49284e-08
2.49216e-08
2.49118e-08
2.49076e-08
2.49239e-08
2.49487e-08
2.48883e-08
2.49166e-08
2.49198e-08
2.49294e-08
2.49259e-08
2.49086e-08
2.49331e-08
2.4925e-08
2.49263e-08
2.49181e-08
2.4917e-08
2.4891e-08
2.48915e-08
2.48868e-08
2.49323e-08
2.49217e-08
2.49205e-08
2.49257e-08
2.49143e-08
2.4912e-08
2.49085e-08
2.48885e-08
2.49101e-08
2.491e-08
2.49168e-08
2.49006e-08
2.49084e-08
2.4908e-08
2.49268e-08
2.49145e-08
2.49281e-08
2.48917e-08
2.49126e-08
2.48985e-08
2.49207e-08
2.49174e-08
2.49077e-08
2.49258e-08
2.49046e-08
2.4918e-08
2.49299e-08
2.49128e-08
2.49239e-08
2.49208e-08
2.49208e-08
2.48922e-08
2.49208e-08
2.49194e-08
2.49292e-08
2.48971e-08
2.48674e-08
2.49352e-08
2.49469e-08
2.49214e-08
2.49186e-08
2.49409e-08
2.49532e-08
2.49141e-08
2.49279e-08
2.49092e-08
2.48997e-08
2.49089e-08
2.49129e-08
2.49158e-08
2.49109e-08
2.49135e-08
2.49161e-08
2.48928e-08
2.49274e-08
2.49172e-08
2.49254e-08
2.49159e-08
2.49342e-08
2.49206e-08
2.49144e-08
2.4898e-08
2.48903e-08
2.48861e-08
2.49247e-08
2.49173e-08
2.49304e-08
2.48825e-08
2.49035e-08
2.49155e-08
2.49304e-08
2.4893e-08
2.49197e-08
2.49376e-08
2.4921e-08
2.4926e-08
2.49187e-08
2.49245e-08
2.49007e-08
2.4901e-08
2.49394e-08
2.49393e-08
2.49121e-08
2.49404e-08
2.4953e-08
2.49075e-08
2.49168e-08
2.489e-08
2.48994e-08
2.49237e-08
2.49167e-08
2.49115e-08
2.49111e-08
2.49121e-08
2.49371e-08
2.49239e-08
2.49125e-08
2.49215e-08
2.49389e-08
2.49114e-08
2.49128e-08
2.48896e-08
2.49184e-08
2.48983e-08
2.48857e-08
2.48901e-08
2.48965e-08
2.49073e-08
2.49075e-08
2.49349e-08
2.49067e-08
2.49251e-08
2.49077e-08
2.49114e-08
2.48977e-08
2.49148e-08
2.49141e-08
2.48883e-08
2.4897e-08
2.4887e-08
2.49468e-08
2.49384e-08
2.49313e-08
2.49298e-08
2.48931e-08
2.48902e-08
2.49262e-08
2.49114e-08
2.48873e-08
2.49179e-08
2.4926e-08
2.48844e-08
2.49316e-08
2.49236e-08
2.49148e-08
2.49096e-08
2.49094e-08
2.49323e-08
2.49128e-08
2.48981e-08
2.49029e-08
2.49136e-08
2.49158e-08
2.49098e-08
2.49191e-08
2.49238e-08
2.48994e-08
2.49479e-08
2.4895e-08
2.4845e-08
2.48938e-08
2.48832e-08
2.49079e-08
2.48874e-08
2.49186e-08
2.49109e-08
2.49103e-08
2.49052e-08
2.4916e-08
2.4901e-08
2.48865e-08
2.48915e-08
2.49266e-08
2.49025e-08
2.49374e-08
2.49249e-08
2.49147e-08
2.49176e-08
2.48982e-08
2.49433e-08
2.4903e-08
2.49325e-08
2.49308e-08
2.48931e-08
2.49076e-08
2.49233e-08
2.49094e-08
2.49167e-08
2.49229e-08
2.49362e-08
2.49187e-08
2.49235e-08
2.49177e-08
2.49129e-08
2.48999e-08
2.49171e-08
2.48856e-08
2.49115e-08
2.49014e-08
2.49014e-08
2.49113e-08
2.49019e-08
2.49093e-08
2.49156e-08
2.49046e-08
2.49262e-08
2.49158e-08
2.48807e-08
2.48933e-08
2.48411e-08
2.48408e-08
2.48763e-08
2.48619e-08
2.48778e-08
2.48688e-08
2.48896e-08
2.49083e-08
2.48827e-08
2.49112e-08
2.49333e-08
2.49292e-08
2.49288e-08
2.48746e-08
2.49281e-08
2.49071e-08
2.49122e-08
2.49006e-08
2.49125e-08
2.49464e-08
2.49428e-08
2.49318e-08
2.49107e-08
2.49171e-08
2.49191e-08
2.49328e-08
2.48746e-08
2.49332e-08
2.49354e-08
2.49199e-08
2.49268e-08
2.49145e-08
2.49136e-08
2.49156e-08
2.49074e-08
2.48917e-08
2.49098e-08
2.48981e-08
2.49089e-08
2.49299e-08
2.488e-08
2.48927e-08
2.4895e-08
2.49145e-08
2.49129e-08
2.49012e-08
2.49026e-08
2.49474e-08
2.48937e-08
2.48919e-08
2.48688e-08
2.48737e-08
2.48992e-08
2.48608e-08
2.48513e-08
2.48941e-08
2.48867e-08
2.48852e-08
2.48938e-08
2.49071e-08
2.48927e-08
2.49056e-08
2.49178e-08
2.49095e-08
2.49346e-08
2.49151e-08
2.48824e-08
2.49304e-08
2.49364e-08
2.49036e-08
2.4918e-08
2.49188e-08
2.49119e-08
2.49416e-08
2.48786e-08
2.49361e-08
2.48924e-08
2.4929e-08
2.49237e-08
2.49226e-08
2.49168e-08
2.49118e-08
2.49145e-08
2.49179e-08
2.49147e-08
2.49148e-08
2.48915e-08
2.49068e-08
2.49213e-08
2.49122e-08
2.48933e-08
2.48829e-08
2.48887e-08
2.49218e-08
2.48794e-08
2.49223e-08
2.49096e-08
2.49331e-08
2.48771e-08
2.48725e-08
2.48751e-08
2.48891e-08
2.48602e-08
2.48888e-08
2.49047e-08
2.48618e-08
2.4868e-08
2.48959e-08
2.49159e-08
2.49147e-08
2.49211e-08
2.49257e-08
2.49169e-08
2.49274e-08
2.49103e-08
2.49372e-08
2.49177e-08
2.4908e-08
2.49317e-08
2.49345e-08
2.49143e-08
2.49457e-08
2.49202e-08
2.4883e-08
2.49201e-08
2.49187e-08
2.49339e-08
2.49235e-08
2.49341e-08
2.4911e-08
2.49311e-08
2.49056e-08
2.48844e-08
2.49012e-08
2.49176e-08
2.49302e-08
2.48974e-08
2.4911e-08
2.49144e-08
2.49227e-08
2.4936e-08
2.49157e-08
2.49109e-08
2.49311e-08
2.49311e-08
2.48592e-08
2.48921e-08
2.49322e-08
2.49035e-08
2.49104e-08
2.48663e-08
2.4923e-08
2.49062e-08
2.49452e-08
2.48848e-08
2.48744e-08
2.48609e-08
2.48562e-08
2.48427e-08
2.49104e-08
2.4891e-08
2.48589e-08
2.48227e-08
2.48802e-08
2.48907e-08
2.49144e-08
2.49114e-08
2.48915e-08
2.49107e-08
2.49354e-08
2.49091e-08
2.48985e-08
2.49087e-08
2.4903e-08
2.49262e-08
2.49196e-08
2.48963e-08
2.49139e-08
2.49115e-08
2.49076e-08
2.49179e-08
2.49215e-08
2.49245e-08
2.49283e-08
2.49031e-08
2.49293e-08
2.49246e-08
2.4908e-08
2.49047e-08
2.49347e-08
2.4936e-08
2.49135e-08
2.49249e-08
2.49233e-08
2.49165e-08
2.49348e-08
2.49314e-08
2.49087e-08
2.49312e-08
2.4925e-08
2.48307e-08
2.4877e-08
2.4821e-08
2.48925e-08
2.49067e-08
2.48459e-08
2.48536e-08
2.48749e-08
2.49312e-08
2.4876e-08
2.48331e-08
2.48377e-08
2.48601e-08
2.48087e-08
2.48445e-08
2.48504e-08
2.49076e-08
2.48316e-08
2.48577e-08
2.48465e-08
2.48718e-08
2.4906e-08
2.49239e-08
2.4922e-08
2.49215e-08
2.49183e-08
2.49348e-08
2.49023e-08
2.48888e-08
2.49339e-08
2.49166e-08
2.49245e-08
2.49186e-08
2.49134e-08
2.49009e-08
2.49038e-08
2.49305e-08
2.49168e-08
2.49275e-08
2.48624e-08
2.48892e-08
2.48932e-08
2.49247e-08
2.49294e-08
2.49188e-08
2.49093e-08
2.49226e-08
2.49155e-08
2.49163e-08
2.49178e-08
2.49054e-08
2.48937e-08
2.48939e-08
2.48762e-08
2.4927e-08
2.48749e-08
2.48744e-08
2.49386e-08
2.4835e-08
2.48632e-08
2.48612e-08
2.49347e-08
2.49146e-08
2.4852e-08
2.4897e-08
2.48457e-08
2.49271e-08
2.49252e-08
2.49219e-08
2.48601e-08
2.48369e-08
2.48176e-08
2.48192e-08
2.48573e-08
2.47846e-08
2.48012e-08
2.48253e-08
2.48544e-08
2.48445e-08
2.4867e-08
2.48595e-08
2.49128e-08
2.49051e-08
2.49272e-08
2.49192e-08
2.49175e-08
2.49033e-08
2.48867e-08
2.49022e-08
2.49254e-08
2.49273e-08
2.49243e-08
2.49166e-08
2.49223e-08
2.48388e-08
2.49321e-08
2.4932e-08
2.49147e-08
2.491e-08
2.49231e-08
2.49053e-08
2.49067e-08
2.49284e-08
2.48784e-08
2.49003e-08
2.49209e-08
2.48971e-08
2.49143e-08
2.49196e-08
2.48969e-08
2.49442e-08
2.4919e-08
2.49393e-08
2.49123e-08
2.4926e-08
2.49409e-08
2.48766e-08
2.49097e-08
2.49019e-08
2.49305e-08
2.48444e-08
2.48609e-08
2.48663e-08
2.49155e-08
2.49172e-08
2.48011e-08
2.48197e-08
2.48409e-08
2.49189e-08
2.49194e-08
2.49423e-08
2.47792e-08
2.48122e-08
2.48058e-08
2.48027e-08
2.48116e-08
2.47887e-08
2.48373e-08
2.48239e-08
2.48319e-08
2.47989e-08
2.48369e-08
2.4874e-08
2.48572e-08
2.49334e-08
2.49073e-08
2.49212e-08
2.49187e-08
2.49086e-08
2.4907e-08
2.49091e-08
2.49099e-08
2.49304e-08
2.49141e-08
2.49257e-08
2.48348e-08
2.49351e-08
2.48854e-08
2.48851e-08
2.49192e-08
2.49006e-08
2.4859e-08
2.49225e-08
2.49153e-08
2.49219e-08
2.49207e-08
2.48727e-08
2.49363e-08
2.49148e-08
2.49135e-08
2.49191e-08
2.49436e-08
2.49325e-08
2.49398e-08
2.48856e-08
2.49395e-08
2.49299e-08
2.49091e-08
2.49311e-08
2.49159e-08
2.4941e-08
2.48432e-08
2.47953e-08
2.48178e-08
2.48823e-08
2.48797e-08
2.48549e-08
2.48287e-08
2.48427e-08
2.48378e-08
2.49048e-08
2.49014e-08
2.49238e-08
2.49066e-08
2.47929e-08
2.4802e-08
2.4806e-08
2.4815e-08
2.48011e-08
2.48391e-08
2.47882e-08
2.47879e-08
2.48547e-08
2.4826e-08
2.48665e-08
2.48206e-08
2.48634e-08
2.4877e-08
2.49386e-08
2.49273e-08
2.49368e-08
2.49309e-08
2.49323e-08
2.4919e-08
2.4932e-08
2.49032e-08
2.49482e-08
2.495e-08
2.48956e-08
2.49423e-08
2.49042e-08
2.49202e-08
2.49247e-08
2.48982e-08
2.48204e-08
2.48881e-08
2.49211e-08
2.49306e-08
2.49154e-08
2.49233e-08
2.4933e-08
2.49402e-08
2.49219e-08
2.49253e-08
2.49126e-08
2.4909e-08
2.49064e-08
2.49113e-08
2.49291e-08
2.48997e-08
2.4903e-08
2.49306e-08
2.4936e-08
2.49206e-08
2.49462e-08
2.4755e-08
2.48316e-08
2.48184e-08
2.48134e-08
2.49106e-08
2.48457e-08
2.48398e-08
2.48397e-08
2.48164e-08
2.47817e-08
2.49197e-08
2.48867e-08
2.49228e-08
2.49258e-08
2.49407e-08
2.4787e-08
2.47436e-08
2.48137e-08
2.47845e-08
2.47689e-08
2.48092e-08
2.4801e-08
2.47717e-08
2.47851e-08
2.48084e-08
2.48164e-08
2.48574e-08
2.47656e-08
2.48617e-08
2.48609e-08
2.49243e-08
2.49365e-08
2.4927e-08
2.4917e-08
2.49194e-08
2.49373e-08
2.49199e-08
2.4933e-08
2.48993e-08
2.49232e-08
2.49381e-08
2.48911e-08
2.4935e-08
2.49285e-08
2.49351e-08
2.48887e-08
2.48587e-08
2.48976e-08
2.48793e-08
2.49272e-08
2.49214e-08
2.489e-08
2.49214e-08
2.48867e-08
2.49228e-08
2.4919e-08
2.49177e-08
2.49253e-08
2.49097e-08
2.48844e-08
2.49008e-08
2.49242e-08
2.49212e-08
2.49435e-08
2.49089e-08
2.49184e-08
2.49289e-08
2.49017e-08
2.47789e-08
2.4791e-08
2.477e-08
2.47693e-08
2.49055e-08
2.49201e-08
2.48423e-08
2.4824e-08
2.4821e-08
2.48176e-08
2.48099e-08
2.48909e-08
2.4898e-08
2.49326e-08
2.49177e-08
2.4782e-08
2.47123e-08
2.47875e-08
2.47763e-08
2.48024e-08
2.47732e-08
2.47315e-08
2.4764e-08
2.48109e-08
2.47978e-08
2.48126e-08
2.48705e-08
2.47681e-08
2.48569e-08
2.49217e-08
2.49202e-08
2.49338e-08
2.48978e-08
2.49189e-08
2.49124e-08
2.48959e-08
2.49183e-08
2.49269e-08
2.49308e-08
2.49174e-08
2.4932e-08
2.49287e-08
2.49334e-08
2.48528e-08
2.48516e-08
2.48949e-08
2.48718e-08
2.49285e-08
2.49185e-08
2.49151e-08
2.48836e-08
2.49269e-08
2.48894e-08
2.48871e-08
2.49121e-08
2.49263e-08
2.49271e-08
2.49319e-08
2.49335e-08
2.49225e-08
2.49368e-08
2.49427e-08
2.49253e-08
2.49177e-08
2.48913e-08
2.49329e-08
2.49101e-08
2.47746e-08
2.47988e-08
2.47762e-08
2.47127e-08
2.48157e-08
2.49049e-08
2.47838e-08
2.48402e-08
2.48051e-08
2.47673e-08
2.47867e-08
2.4899e-08
2.49196e-08
2.49234e-08
2.49412e-08
2.4727e-08
2.4807e-08
2.46995e-08
2.47072e-08
2.47374e-08
2.47767e-08
2.47496e-08
2.48186e-08
2.47852e-08
2.4788e-08
2.48153e-08
2.47824e-08
2.48035e-08
2.48712e-08
2.47728e-08
2.48568e-08
2.49171e-08
2.48933e-08
2.49206e-08
2.49337e-08
2.48772e-08
2.4892e-08
2.49319e-08
2.49131e-08
2.49376e-08
2.49227e-08
2.49356e-08
2.49164e-08
2.49207e-08
2.49332e-08
2.48899e-08
2.49266e-08
2.49022e-08
2.48603e-08
2.49196e-08
2.48602e-08
2.49327e-08
2.49318e-08
2.49269e-08
2.49355e-08
2.49124e-08
2.48959e-08
2.49281e-08
2.49272e-08
2.49269e-08
2.493e-08
2.49306e-08
2.49227e-08
2.49283e-08
2.49323e-08
2.48916e-08
2.49242e-08
2.49166e-08
2.49188e-08
2.49183e-08
2.49195e-08
2.47644e-08
2.47373e-08
2.47674e-08
2.47743e-08
2.47331e-08
2.48072e-08
2.47862e-08
2.49113e-08
2.48977e-08
2.48305e-08
2.47928e-08
2.46801e-08
2.47705e-08
2.47544e-08
2.49101e-08
2.49256e-08
2.49121e-08
2.49052e-08
2.47509e-08
2.48041e-08
2.47413e-08
2.47418e-08
2.47204e-08
2.47321e-08
2.47454e-08
2.48185e-08
2.47536e-08
2.47417e-08
2.48031e-08
2.47557e-08
2.47552e-08
2.48161e-08
2.48147e-08
2.48549e-08
2.48808e-08
2.49165e-08
2.49438e-08
2.48428e-08
2.4908e-08
2.49223e-08
2.4931e-08
2.49361e-08
2.49063e-08
2.49311e-08
2.48899e-08
2.49204e-08
2.49302e-08
2.49182e-08
2.49028e-08
2.49099e-08
2.48585e-08
2.4853e-08
2.48745e-08
2.49218e-08
2.49204e-08
2.49058e-08
2.49322e-08
2.49116e-08
2.49059e-08
2.49225e-08
2.49332e-08
2.49022e-08
2.49123e-08
2.49216e-08
2.49316e-08
2.49271e-08
2.49191e-08
2.49331e-08
2.49124e-08
2.4921e-08
2.4912e-08
2.493e-08
2.49232e-08
2.4915e-08
2.47576e-08
2.47151e-08
2.46963e-08
2.47599e-08
2.47435e-08
2.47907e-08
2.47799e-08
2.48531e-08
2.4831e-08
2.4804e-08
2.47542e-08
2.47055e-08
2.47299e-08
2.47108e-08
2.49167e-08
2.49235e-08
2.49242e-08
2.48935e-08
2.4942e-08
2.4777e-08
2.47295e-08
2.47749e-08
2.47513e-08
2.46471e-08
2.47103e-08
2.47403e-08
2.47799e-08
2.47651e-08
2.47626e-08
2.47643e-08
2.47143e-08
2.47458e-08
2.48437e-08
2.48072e-08
2.48085e-08
2.48949e-08
2.4919e-08
2.49484e-08
2.49084e-08
2.48903e-08
2.49238e-08
2.4939e-08
2.4908e-08
2.49288e-08
2.49221e-08
2.4903e-08
2.49103e-08
2.49223e-08
2.48991e-08
2.48935e-08
2.49103e-08
2.48168e-08
2.48869e-08
2.4903e-08
2.49099e-08
2.49216e-08
2.4932e-08
2.4928e-08
2.49144e-08
2.49076e-08
2.49175e-08
2.49384e-08
2.49283e-08
2.49172e-08
2.49207e-08
2.49323e-08
2.4928e-08
2.49209e-08
2.48884e-08
2.49122e-08
2.49247e-08
2.49195e-08
2.49213e-08
2.49197e-08
2.49154e-08
2.46766e-08
2.47058e-08
2.46825e-08
2.4717e-08
2.46461e-08
2.47491e-08
2.47539e-08
2.48186e-08
2.47857e-08
2.47884e-08
2.48281e-08
2.47197e-08
2.47677e-08
2.4754e-08
2.47458e-08
2.49308e-08
2.49052e-08
2.49268e-08
2.49082e-08
2.49127e-08
2.47211e-08
2.47771e-08
2.47812e-08
2.4753e-08
2.46996e-08
2.47127e-08
2.4738e-08
2.47625e-08
2.48199e-08
2.47486e-08
2.4822e-08
2.47221e-08
2.48153e-08
2.47737e-08
2.48325e-08
2.49116e-08
2.48915e-08
2.49154e-08
2.49087e-08
2.49399e-08
2.48841e-08
2.49233e-08
2.49325e-08
2.49048e-08
2.49027e-08
2.48975e-08
2.48819e-08
2.48954e-08
2.49117e-08
2.49032e-08
2.4815e-08
2.48601e-08
2.48538e-08
2.49019e-08
2.49208e-08
2.4933e-08
2.49277e-08
2.49115e-08
2.49049e-08
2.49142e-08
2.49185e-08
2.49129e-08
2.4936e-08
2.4939e-08
2.492e-08
2.49254e-08
2.49262e-08
2.49165e-08
2.49206e-08
2.48888e-08
2.49343e-08
2.48783e-08
2.48901e-08
2.49177e-08
2.49212e-08
2.491e-08
2.47581e-08
2.46924e-08
2.47197e-08
2.46592e-08
2.46712e-08
2.46999e-08
2.4692e-08
2.47911e-08
2.47482e-08
2.48171e-08
2.4849e-08
2.47862e-08
2.48176e-08
2.47228e-08
2.46465e-08
2.47257e-08
2.47137e-08
2.47527e-08
2.48875e-08
2.48736e-08
2.49142e-08
2.49029e-08
2.4943e-08
2.46737e-08
2.47442e-08
2.47457e-08
2.47311e-08
2.46771e-08
2.47018e-08
2.47106e-08
2.47458e-08
2.47613e-08
2.47307e-08
2.48007e-08
2.4712e-08
2.47667e-08
2.47741e-08
2.46956e-08
2.48469e-08
2.48858e-08
2.49276e-08
2.49136e-08
2.49293e-08
2.49345e-08
2.49208e-08
2.49076e-08
2.49346e-08
2.49085e-08
2.48895e-08
2.49423e-08
2.48904e-08
2.48685e-08
2.48854e-08
2.48811e-08
2.48842e-08
2.48658e-08
2.49306e-08
2.49264e-08
2.49212e-08
2.49016e-08
2.4906e-08
2.49016e-08
2.49171e-08
2.49146e-08
2.49187e-08
2.49377e-08
2.49185e-08
2.4925e-08
2.49294e-08
2.49187e-08
2.49111e-08
2.49361e-08
2.49248e-08
2.48827e-08
2.49238e-08
2.49302e-08
2.49158e-08
2.49145e-08
2.47604e-08
2.47615e-08
2.47465e-08
2.45925e-08
2.46498e-08
2.46175e-08
2.46614e-08
2.47636e-08
2.46748e-08
2.48278e-08
2.47909e-08
2.48383e-08
2.48017e-08
2.47192e-08
2.46873e-08
2.46959e-08
2.46433e-08
2.47114e-08
2.46329e-08
2.49206e-08
2.49129e-08
2.48681e-08
2.48837e-08
2.49274e-08
2.49389e-08
2.46704e-08
2.47698e-08
2.47488e-08
2.47623e-08
2.46901e-08
2.47143e-08
2.47565e-08
2.46677e-08
2.47033e-08
2.47873e-08
2.47137e-08
2.47241e-08
2.47308e-08
2.47553e-08
2.48378e-08
2.49012e-08
2.49064e-08
2.48867e-08
2.48805e-08
2.49148e-08
2.49253e-08
2.49041e-08
2.49153e-08
2.4923e-08
2.48988e-08
2.4938e-08
2.49425e-08
2.49449e-08
2.4851e-08
2.4868e-08
2.4895e-08
2.48223e-08
2.4878e-08
2.48749e-08
2.49313e-08
2.49261e-08
2.4921e-08
2.48942e-08
2.48957e-08
2.49001e-08
2.48711e-08
2.48919e-08
2.49073e-08
2.49101e-08
2.49026e-08
2.49173e-08
2.49302e-08
2.49178e-08
2.49253e-08
2.49163e-08
2.49237e-08
2.4943e-08
2.48868e-08
2.49062e-08
2.49284e-08
2.49418e-08
2.49189e-08
2.49113e-08
2.47659e-08
2.47565e-08
2.4676e-08
2.46296e-08
2.47282e-08
2.46042e-08
2.46885e-08
2.47108e-08
2.47363e-08
2.47723e-08
2.48196e-08
2.4831e-08
2.46857e-08
2.4733e-08
2.46616e-08
2.469e-08
2.45787e-08
2.47198e-08
2.47435e-08
2.49215e-08
2.48678e-08
2.48407e-08
2.49349e-08
2.48987e-08
2.49418e-08
2.47253e-08
2.46669e-08
2.47131e-08
2.47082e-08
2.46908e-08
2.47467e-08
2.47117e-08
2.47573e-08
2.46414e-08
2.47626e-08
2.48018e-08
2.47199e-08
2.46588e-08
2.478e-08
2.47253e-08
2.47923e-08
2.48926e-08
2.49074e-08
2.49089e-08
2.49167e-08
2.49141e-08
2.49146e-08
2.49106e-08
2.49343e-08
2.493e-08
2.49435e-08
2.49329e-08
2.49295e-08
2.49412e-08
2.49042e-08
2.49028e-08
2.48589e-08
2.48646e-08
2.48237e-08
2.48341e-08
2.48246e-08
2.49295e-08
2.49204e-08
2.48662e-08
2.48984e-08
2.49008e-08
2.48947e-08
2.48952e-08
2.4907e-08
2.49036e-08
2.4898e-08
2.49164e-08
2.49299e-08
2.49164e-08
2.49255e-08
2.49198e-08
2.49253e-08
2.48991e-08
2.4932e-08
2.49573e-08
2.49299e-08
2.49172e-08
2.49107e-08
2.47657e-08
2.47272e-08
2.46868e-08
2.46378e-08
2.46964e-08
2.47112e-08
2.46828e-08
2.46694e-08
2.47176e-08
2.47424e-08
2.47131e-08
2.47479e-08
2.48102e-08
2.47106e-08
2.47396e-08
2.46283e-08
2.4583e-08
2.47425e-08
2.46244e-08
2.47421e-08
2.47173e-08
2.4892e-08
2.48563e-08
2.4874e-08
2.48385e-08
2.48817e-08
2.48907e-08
2.49051e-08
2.46613e-08
2.47176e-08
2.4714e-08
2.46339e-08
2.46513e-08
2.46986e-08
2.46944e-08
2.46939e-08
2.47117e-08
2.47891e-08
2.47872e-08
2.47113e-08
2.47046e-08
2.47238e-08
2.47379e-08
2.49047e-08
2.49241e-08
2.4917e-08
2.48822e-08
2.49233e-08
2.48829e-08
2.49351e-08
2.48991e-08
2.49332e-08
2.49337e-08
2.49232e-08
2.49343e-08
2.49309e-08
2.4947e-08
2.49006e-08
2.48598e-08
2.4863e-08
2.48327e-08
2.46324e-08
2.48116e-08
2.48373e-08
2.49297e-08
2.49178e-08
2.48995e-08
2.49121e-08
2.49097e-08
2.49177e-08
2.49276e-08
2.4887e-08
2.48547e-08
2.48699e-08
2.49344e-08
2.49438e-08
2.49235e-08
2.49178e-08
2.49157e-08
2.49205e-08
2.49122e-08
2.49224e-08
2.49564e-08
2.49047e-08
2.49247e-08
2.49151e-08
2.491e-08
2.46586e-08
2.47357e-08
2.47021e-08
2.46661e-08
2.46193e-08
2.46738e-08
2.46171e-08
2.4689e-08
2.46619e-08
2.4739e-08
2.47586e-08
2.47606e-08
2.47027e-08
2.47231e-08
2.46999e-08
2.45915e-08
2.45881e-08
2.46089e-08
2.45503e-08
2.46632e-08
2.45677e-08
2.4885e-08
2.48229e-08
2.48258e-08
2.47754e-08
2.48862e-08
2.49191e-08
2.49029e-08
2.46294e-08
2.46802e-08
2.46725e-08
2.46013e-08
2.46375e-08
2.45341e-08
2.47045e-08
2.47199e-08
2.47142e-08
2.47597e-08
2.47289e-08
2.4729e-08
2.47191e-08
2.46876e-08
2.47935e-08
2.48909e-08
2.49338e-08
2.49067e-08
2.49304e-08
2.48822e-08
2.48896e-08
2.48817e-08
2.49375e-08
2.49216e-08
2.48976e-08
2.49182e-08
2.49219e-08
2.4922e-08
2.49212e-08
2.49476e-08
2.49122e-08
2.49075e-08
2.49112e-08
2.48525e-08
2.48281e-08
2.48014e-08
2.47413e-08
2.48536e-08
2.47894e-08
2.47783e-08
2.48925e-08
2.49075e-08
2.49274e-08
2.49191e-08
2.49432e-08
2.48946e-08
2.48611e-08
2.49434e-08
2.49325e-08
2.49394e-08
2.49224e-08
2.49197e-08
2.49404e-08
2.49291e-08
2.49143e-08
2.49219e-08
2.49029e-08
2.49122e-08
2.49239e-08
2.48981e-08
2.48974e-08
2.4655e-08
2.46113e-08
2.45981e-08
2.46942e-08
2.45809e-08
2.45714e-08
2.46616e-08
2.46436e-08
2.46021e-08
2.46562e-08
2.46338e-08
2.47253e-08
2.47422e-08
2.47641e-08
2.47157e-08
2.47149e-08
2.46938e-08
2.47211e-08
2.45894e-08
2.47615e-08
2.46786e-08
2.45648e-08
2.46449e-08
2.45677e-08
2.46126e-08
2.48661e-08
2.49215e-08
2.48254e-08
2.48021e-08
2.48239e-08
2.47727e-08
2.49128e-08
2.49192e-08
2.48806e-08
2.49439e-08
2.4674e-08
2.47332e-08
2.4679e-08
2.45174e-08
2.46256e-08
2.47032e-08
2.45576e-08
2.47013e-08
2.46824e-08
2.46754e-08
2.46918e-08
2.47352e-08
2.47233e-08
2.46559e-08
2.47682e-08
2.47665e-08
2.49333e-08
2.49169e-08
2.48834e-08
2.49214e-08
2.49065e-08
2.48589e-08
2.49356e-08
2.49184e-08
2.49211e-08
2.49079e-08
2.49162e-08
2.49139e-08
2.49172e-08
2.49373e-08
2.49174e-08
2.48963e-08
2.48638e-08
2.48342e-08
2.46562e-08
2.47461e-08
2.48159e-08
2.46483e-08
2.4903e-08
2.49408e-08
2.49441e-08
2.49443e-08
2.49437e-08
2.4944e-08
2.49448e-08
2.49448e-08
2.49293e-08
2.4935e-08
2.49285e-08
2.4897e-08
2.48891e-08
2.49212e-08
2.49176e-08
2.4919e-08
2.49169e-08
2.49405e-08
2.46364e-08
2.45606e-08
2.46225e-08
2.45179e-08
2.45495e-08
2.46796e-08
2.45787e-08
2.45533e-08
2.45096e-08
2.47269e-08
2.46918e-08
2.46958e-08
2.47561e-08
2.47507e-08
2.47128e-08
2.47168e-08
2.4715e-08
2.47619e-08
2.45035e-08
2.46426e-08
2.46466e-08
2.45969e-08
2.45552e-08
2.48685e-08
2.49016e-08
2.47826e-08
2.48272e-08
2.47945e-08
2.46581e-08
2.48796e-08
2.49161e-08
2.49186e-08
2.46948e-08
2.46935e-08
2.46509e-08
2.46011e-08
2.46558e-08
2.4572e-08
2.46186e-08
2.47224e-08
2.46753e-08
2.47175e-08
2.46882e-08
2.47442e-08
2.46757e-08
2.47006e-08
2.46958e-08
2.47733e-08
2.49306e-08
2.49145e-08
2.49181e-08
2.49205e-08
2.49229e-08
2.4934e-08
2.49415e-08
2.4932e-08
2.49003e-08
2.49226e-08
2.48847e-08
2.49059e-08
2.49077e-08
2.49359e-08
2.49263e-08
2.48636e-08
2.48436e-08
2.48236e-08
2.47715e-08
2.47776e-08
2.48432e-08
2.47897e-08
2.48384e-08
2.47923e-08
2.48986e-08
2.49365e-08
2.49137e-08
2.49458e-08
2.49467e-08
2.49246e-08
2.49182e-08
2.4918e-08
2.49181e-08
2.49164e-08
2.49239e-08
2.49051e-08
2.49404e-08
2.46453e-08
2.46743e-08
2.46436e-08
2.45509e-08
2.46536e-08
2.46844e-08
2.45883e-08
2.4581e-08
2.46954e-08
2.46559e-08
2.46899e-08
2.47566e-08
2.47204e-08
2.46467e-08
2.46116e-08
2.46206e-08
2.4686e-08
2.45921e-08
2.46138e-08
2.45143e-08
2.461e-08
2.45937e-08
2.46049e-08
2.4572e-08
2.48628e-08
2.48943e-08
2.47493e-08
2.4717e-08
2.48298e-08
2.4822e-08
2.46417e-08
2.46829e-08
2.49199e-08
2.49096e-08
2.49235e-08
2.49446e-08
2.46572e-08
2.46474e-08
2.46275e-08
2.46788e-08
2.46248e-08
2.4613e-08
2.46487e-08
2.46485e-08
2.46071e-08
2.45999e-08
2.47339e-08
2.46542e-08
2.46488e-08
2.47311e-08
2.46933e-08
2.49273e-08
2.48913e-08
2.49163e-08
2.49497e-08
2.49337e-08
2.49409e-08
2.49029e-08
2.48856e-08
2.49284e-08
2.49075e-08
2.49327e-08
2.49146e-08
2.49024e-08
2.48758e-08
2.49096e-08
2.48359e-08
2.48259e-08
2.46508e-08
2.46755e-08
2.47603e-08
2.46619e-08
2.49464e-08
2.49451e-08
2.4947e-08
2.48933e-08
2.49258e-08
2.49205e-08
2.4918e-08
2.49177e-08
2.49093e-08
2.49357e-08
2.45171e-08
2.46344e-08
2.46668e-08
2.45687e-08
2.4626e-08
2.45135e-08
2.45116e-08
2.45517e-08
2.46189e-08
2.45889e-08
2.47004e-08
2.4676e-08
2.46768e-08
2.46464e-08
2.46783e-08
2.46435e-08
2.46064e-08
2.46844e-08
2.46447e-08
2.45292e-08
2.4564e-08
2.46023e-08
2.46108e-08
2.47902e-08
2.48133e-08
2.4654e-08
2.47412e-08
2.47513e-08
2.48209e-08
2.46636e-08
2.46972e-08
2.49035e-08
2.48879e-08
2.48908e-08
2.49008e-08
2.46739e-08
2.4607e-08
2.46147e-08
2.46662e-08
2.46159e-08
2.46577e-08
2.46542e-08
2.46209e-08
2.46681e-08
2.47126e-08
2.46766e-08
2.46373e-08
2.46498e-08
2.47141e-08
2.47123e-08
2.47512e-08
2.4898e-08
2.49152e-08
2.49481e-08
2.48978e-08
2.49084e-08
2.48769e-08
2.48891e-08
2.49486e-08
2.49478e-08
2.49313e-08
2.48923e-08
2.49269e-08
2.4921e-08
2.48452e-08
2.48495e-08
2.48237e-08
2.47895e-08
2.47816e-08
2.46979e-08
2.46951e-08
2.47785e-08
2.4926e-08
2.49029e-08
2.49399e-08
2.49337e-08
2.49056e-08
2.49476e-08
2.45913e-08
2.45346e-08
2.46433e-08
2.45602e-08
2.45679e-08
2.4472e-08
2.45133e-08
2.4581e-08
2.46319e-08
2.46331e-08
2.46202e-08
2.46285e-08
2.47007e-08
2.46751e-08
2.46593e-08
2.46755e-08
2.46756e-08
2.46445e-08
2.46562e-08
2.46548e-08
2.45761e-08
2.45307e-08
2.46029e-08
2.46149e-08
2.46594e-08
2.45828e-08
2.47721e-08
2.47806e-08
2.483e-08
2.4826e-08
2.46968e-08
2.47467e-08
2.47613e-08
2.4793e-08
2.46978e-08
2.47562e-08
2.48453e-08
2.4893e-08
2.48972e-08
2.49094e-08
2.49376e-08
2.46809e-08
2.45484e-08
2.46496e-08
2.45552e-08
2.45001e-08
2.45458e-08
2.46815e-08
2.45733e-08
2.45437e-08
2.45406e-08
2.46597e-08
2.45443e-08
2.46143e-08
2.46626e-08
2.4908e-08
2.49112e-08
2.49163e-08
2.49097e-08
2.49031e-08
2.48889e-08
2.49329e-08
2.4947e-08
2.49283e-08
2.49098e-08
2.49407e-08
2.49141e-08
2.48463e-08
2.48483e-08
2.48158e-08
2.47688e-08
2.46797e-08
2.4796e-08
2.47661e-08
2.47312e-08
2.47947e-08
2.49132e-08
2.48943e-08
2.49452e-08
2.49474e-08
2.48852e-08
2.48658e-08
2.45565e-08
2.45159e-08
2.46196e-08
2.45901e-08
2.44395e-08
2.45486e-08
2.46262e-08
2.44935e-08
2.4603e-08
2.46618e-08
2.46555e-08
2.46522e-08
2.46965e-08
2.46344e-08
2.46358e-08
2.4654e-08
2.46526e-08
2.46358e-08
2.45509e-08
2.45218e-08
2.46011e-08
2.45779e-08
2.47378e-08
2.48223e-08
2.48357e-08
2.48006e-08
2.47039e-08
2.47295e-08
2.47462e-08
2.48046e-08
2.47343e-08
2.47447e-08
2.48688e-08
2.48898e-08
2.48799e-08
2.48697e-08
2.48516e-08
2.48654e-08
2.45951e-08
2.45178e-08
2.44225e-08
2.46183e-08
2.46097e-08
2.45743e-08
2.44641e-08
2.46491e-08
2.46212e-08
2.46263e-08
2.46772e-08
2.46317e-08
2.46979e-08
2.46129e-08
2.46329e-08
2.46305e-08
2.4761e-08
2.49046e-08
2.48835e-08
2.49161e-08
2.49481e-08
2.49498e-08
2.49172e-08
2.49097e-08
2.49124e-08
2.49319e-08
2.4892e-08
2.48171e-08
2.48423e-08
2.48799e-08
2.47891e-08
2.47675e-08
2.46387e-08
2.4769e-08
2.47667e-08
2.47605e-08
2.47616e-08
2.48874e-08
2.48885e-08
2.49149e-08
2.4947e-08
2.48696e-08
2.46691e-08
2.43595e-08
2.44373e-08
2.45174e-08
2.45639e-08
2.46274e-08
2.44771e-08
2.46053e-08