/*--------------------------------*- C++ -*----------------------------------*\
| =========                 |                                                 |
| \\      /  F ield         | OpenFOAM: The Open Source CFD Toolbox           |
|  \\    /   O peration     | Version:  v2012                                 |
|   \\  /    A nd           | Website:  www.openfoam.com                      |
|    \\/     M anipulation  |                                                 |
\*---------------------------------------------------------------------------*/
FoamFile
{
    version     2.0;
    format      ascii;
    class       volVectorField;
    location    "1.1";
    object      U;
}
// * * * * * * * * * * * * * * * * * * * * * * * * * * * * * * * * * * * * * //

dimensions      [0 1 -1 0 0 0 0];


internalField   nonuniform List<vector> 
13611
(
(7.77757 0.0429511 0)
(7.89625 0.0961298 1.13491e-23)
(7.76797 0.0333973 7.21058e-25)
(8.02894 0.0820372 2.48563e-23)
(7.89067 0.0653197 3.71769e-23)
(7.75513 0.0135328 0)
(7.96876 0.0470772 8.39647e-25)
(8.02084 0.0650435 9.90358e-24)
(7.87827 0.169623 -3.04247e-23)
(7.94222 0.0530135 -1.99594e-24)
(7.73472 0.0202461 0)
(8.02965 0.0389783 0)
(7.99993 0.0631189 0)
(8.02528 0.0274643 1.67036e-26)
(7.87038 0.111643 8.18098e-24)
(7.9479 0.0864095 -3.34789e-24)
(7.94264 0.0216667 0)
(7.73045 0.0129487 0)
(8.07163 0.0377533 5.55608e-25)
(8.01026 0.0455293 0)
(7.98548 0.0275405 -3.62175e-25)
(8.03363 0.0295247 -3.39107e-25)
(7.88173 0.107021 -4.08781e-24)
(7.94509 0.05549 4.61884e-24)
(7.99035 0.0720978 3.42663e-24)
(7.99716 0.0191696 0)
(7.71134 0.018687 0)
(8.06636 0.0281319 2.72438e-26)
(7.98391 0.0410065 0)
(7.97895 0.0303961 9.78628e-25)
(7.96467 0.0272711 0)
(7.99558 0.023024 0)
(7.89286 0.082828 1.6874e-23)
(7.96023 0.0609654 0)
(7.96854 0.077123 2.23912e-24)
(8.06905 0.0249498 1.62082e-24)
(7.92182 0.0187617 -2.34739e-24)
(7.71653 0.0281634 0)
(8.01956 0.0216302 2.26956e-26)
(7.96789 0.0429098 0)
(7.96518 0.0312449 0)
(7.96787 0.0262542 -1.18732e-25)
(7.97027 0.0229521 1.33604e-24)
(7.97326 0.0226105 -3.25861e-25)
(7.93783 0.0506929 3.5727e-25)
(7.92221 0.0434144 8.1263e-24)
(7.96341 0.0578189 0)
(7.96204 0.0551702 -1.32876e-24)
(8.06926 0.0166493 3.86353e-24)
(7.9974 0.0333102 -4.16143e-24)
(7.71042 0.0349279 5.89169e-24)
(8.00423 0.020447 -1.36148e-25)
(7.96053 0.0387406 9.067e-25)
(7.96329 0.0280553 1.13034e-24)
(7.96136 0.0328903 -8.72954e-25)
(7.97238 0.0190487 8.22967e-26)
(7.97169 0.0180171 7.28022e-25)
(7.97072 0.0156954 -2.89361e-24)
(7.93512 0.0489456 -2.8439e-24)
(7.93865 0.0495128 1.12021e-23)
(7.96943 0.0537028 -3.74839e-25)
(7.94766 0.0468367 -2.14982e-24)
(8.06626 0.015898 5.41903e-25)
(8.02499 0.0209971 0)
(7.94432 0.0356277 0)
(7.73004 0.042218 1.04875e-23)
(7.97644 0.0162359 -8.7966e-25)
(7.9554 0.0391599 8.77558e-25)
(7.96411 0.0239644 -3.40378e-25)
(7.95957 0.0299885 0)
(7.97058 0.0188898 -9.43908e-25)
(7.97196 0.016216 1.82846e-24)
(7.96305 0.0555126 3.72193e-25)
(7.92627 0.0579578 2.37795e-24)
(7.99166 0.036011 -1.84894e-23)
(7.9422 0.0497299 -3.27512e-25)
(7.95048 0.0378541 0)
(8.07574 0.0212327 3.94161e-25)
(8.0075 0.0157336 0)
(8.06866 0.0235089 6.62278e-24)
(7.71285 0.0253633 1.28673e-24)
(7.97058 0.0163251 0)
(7.95454 0.0346594 3.43464e-25)
(7.96149 0.0260552 -5.95766e-25)
(7.96752 0.019791 2.98755e-25)
(7.95741 0.0315101 -5.27489e-25)
(7.97239 0.0154575 -1.77656e-24)
(7.9738 0.0151572 1.6956e-24)
(7.96657 0.0551628 -5.92876e-25)
(7.92438 0.0445384 0)
(7.97002 0.00774412 -9.12457e-24)
(7.92611 0.0436769 0)
(7.95253 0.0387929 0)
(8.04648 0.0202697 -3.26291e-25)
(7.97786 0.0153178 0)
(8.01609 0.0154225 -7.62509e-25)
(8.05726 0.0170473 -5.48329e-25)
(8.02106 0.021767 1.79753e-24)
(7.68231 0.0129545 1.92783e-24)
(7.9746 0.0136304 1.44356e-25)
(7.95246 0.032111 0)
(7.96284 0.0258078 -1.8755e-25)
(7.96799 0.0180393 0)
(7.95759 0.0294133 -8.68292e-25)
(7.96995 0.013649 0)
(7.97401 0.0139364 -4.59761e-25)
(7.9752 0.0139699 -5.52373e-26)
(7.93146 0.0435934 8.18282e-25)
(7.96144 0.0389664 1.76987e-24)
(7.90404 0.0316964 4.52823e-26)
(8.01089 0.0650686 -3.45784e-23)
(7.94482 0.0384988 0)
(7.94718 0.0375891 0)
(8.03876 0.0203633 -2.90271e-25)
(7.97042 0.0114166 -7.65636e-25)
(7.98149 0.0108758 -1.43251e-24)
(8.05496 0.0184468 0)
(8.05373 0.0174016 2.75908e-24)
(7.6706 -0.00783857 1.91612e-24)
(7.97748 0.0115143 -1.5384e-25)
(7.94903 0.0335048 0)
(7.95478 0.02878 2.0971e-25)
(7.96015 0.0261059 -5.34336e-25)
(7.96466 0.0214581 1.56294e-24)
(7.96619 0.0183413 6.25477e-25)
(7.96822 0.0148211 2.46962e-25)
(7.97106 0.0116924 4.23468e-26)
(7.9769 0.0103944 1.39471e-25)
(7.91116 0.0383271 4.46454e-24)
(7.98655 0.0358584 0)
(7.94845 0.0296681 2.0848e-25)
(7.98862 0.106676 6.69732e-25)
(7.95003 0.0392456 0)
(7.94369 0.0367767 -1.51841e-25)
(7.99437 0.0125075 1.68709e-24)
(7.97584 0.0106372 -9.29177e-25)
(8.05106 0.0104532 0)
(7.97207 0.0139024 1.04301e-24)
(8.0932 0.0122593 0)
(7.65404 -0.0318534 0)
(7.97955 0.00828538 -3.94777e-25)
(7.94825 0.0307612 0)
(7.95285 0.0258493 1.11362e-25)
(7.95809 0.0225671 1.49614e-24)
(7.96111 0.0201931 1.421e-24)
(7.96475 0.0160627 1.45977e-24)
(7.96695 0.013692 7.99363e-25)
(7.97061 0.0103073 0)
(7.97611 0.00882916 8.18948e-25)
(7.93884 0.0422218 0)
(7.94293 0.0382328 3.57871e-24)
(7.94135 0.0490389 0)
(7.98187 -0.0242569 3.08333e-23)
(7.94374 0.0388901 7.25523e-26)
(7.94045 0.0371935 -8.28905e-26)
(7.94406 0.0325208 0)
(7.98285 0.0114035 -1.54476e-24)
(7.98008 0.00877404 2.61254e-25)
(7.99472 0.00977377 0)
(8.037 -0.00290267 -7.00358e-24)
(8.08077 0.00587788 0)
(7.66701 -0.000552126 0)
(7.98071 0.0044799 2.35702e-25)
(7.95015 0.0267195 0)
(7.95219 0.0236234 0)
(7.95541 0.0217298 6.47998e-25)
(7.96229 0.0173154 1.78253e-25)
(7.96513 0.0162707 7.59509e-25)
(7.96849 0.0111313 6.66541e-26)
(7.97391 0.00776774 0)
(7.97077 0.009495 -2.55827e-25)
(7.97734 0.00524636 1.09107e-24)
(7.9399 0.0372298 0)
(7.93882 0.0134667 8.24042e-24)
(7.91173 0.0432282 3.7006e-24)
(7.94793 -0.0594929 1.53117e-23)
(7.8602 0.22692 0)
(7.9421 0.0356801 1.26607e-24)
(7.93925 0.0346546 -6.37629e-26)
(7.94445 0.0313063 0)
(7.99076 0.0105779 -4.87009e-25)
(7.98298 0.00944366 -1.26129e-24)
(7.98124 0.00463279 6.17126e-25)
(8.01402 0.00631831 -2.96903e-24)
(7.97003 -0.0226703 4.56556e-24)
(8.09204 0.00538225 8.91154e-24)
(7.66624 0.0317633 0)
(7.97861 0.00505977 5.81111e-27)
(7.94804 0.0271395 0)
(7.94978 0.0207511 2.18083e-25)
(7.95484 0.0175186 8.72724e-27)
(7.95975 0.0155249 2.33328e-25)
(7.9671 0.0127835 -7.55786e-25)
(7.96972 0.00827862 -1.90856e-25)
(7.97405 0.00516343 0)
(7.97344 0.00564081 -2.6202e-25)
(7.97669 0.00455978 0)
(7.93883 0.0415378 0)
(7.95101 0.0187525 0)
(7.89136 0.0456759 9.31564e-24)
(8.00475 0.0277147 -4.62322e-23)
(7.8072 -0.0175551 0)
(7.94196 0.0344414 1.23219e-24)
(7.93788 0.0349049 -1.88984e-25)
(7.94139 0.032077 0)
(7.99378 0.00526268 -7.89498e-26)
(7.98618 0.00448207 -1.04561e-24)
(7.98289 0.0043892 -1.08922e-26)
(7.99856 0.00846248 -5.94746e-24)
(8.06997 -0.0316785 0)
(8.0754 -0.0122706 9.17235e-24)
(7.70663 0.050956 0)
(7.97922 0.00340669 0)
(7.9456 0.02496 -5.34071e-25)
(7.95082 0.0171538 9.36298e-25)
(7.94712 0.0215736 6.13195e-25)
(7.9567 0.014861 0)
(7.95926 0.0124842 -6.06719e-25)
(7.9623 0.011466 -1.38202e-24)
(7.96788 0.00979503 -2.72444e-26)
(7.9716 0.00512214 0)
(7.97491 0.00482972 0)
(7.97649 0.00270669 1.0578e-24)
(7.94089 0.0400915 1.07188e-25)
(7.97302 0.023758 0)
(7.94953 0.0359917 1.35308e-23)
(8.10237 -0.129308 1.5145e-23)
(7.95695 0.0514936 0)
(7.50686 -0.0572057 0)
(7.94151 0.034816 -4.12559e-25)
(7.93556 0.0346893 -5.97752e-25)
(7.93946 0.0296854 -4.18868e-25)
(7.98673 0.00392092 0)
(7.99397 0.0048241 1.29827e-24)
(7.98094 0.00362939 0)
(8.00096 0.00656536 0)
(8.0137 0.00792682 -2.51816e-25)
(8.02599 -0.0471079 0)
(7.71901 0.171809 0)
(7.991 -0.0860453 1.69043e-24)
(7.98031 0.00323631 0)
(7.97746 0.0018901 1.04327e-24)
(7.94108 0.0264675 -6.06899e-25)
(7.94791 0.0162335 3.52253e-25)
(7.94471 0.0185505 4.39887e-25)
(7.9515 0.0110805 0)
(7.95532 0.00945533 1.00716e-24)
(7.96119 0.00841321 -4.46456e-25)
(7.96533 0.00771023 5.88631e-26)
(7.96903 0.00415227 0)
(7.97337 0.00397964 0)
(7.97549 0.0017235 -2.99038e-25)
(7.93701 0.0413475 -2.22817e-25)
(7.95436 0.0375048 -2.38313e-24)
(7.94528 0.0188396 0)
(8.20066 -0.116129 1.74776e-23)
(7.95597 0.0415089 0)
(7.6687 -0.0318771 0)
(7.93892 0.0342915 -4.6008e-25)
(7.93383 0.030853 6.92738e-25)
(7.93561 0.0346653 4.87825e-25)
(7.93624 0.0285175 -4.13584e-25)
(7.98267 0.0038707 1.37171e-25)
(7.98619 0.00382294 2.98786e-24)
(7.98251 0.00313202 0)
(7.99952 0.00804057 0)
(8.00927 0.00407652 -3.69223e-24)
(8.01345 0.036541 -2.50154e-24)
(7.8678 -0.019745 0)
(7.97417 -0.00971635 -1.33938e-23)
(7.9804 0.0017328 -2.42937e-25)
(7.97831 0.00118357 -3.05717e-25)
(7.94105 0.0219173 1.52861e-25)
(7.94483 0.0149003 0)
(7.94666 0.0133523 -2.73198e-25)
(7.94332 0.0159334 1.55271e-27)
(7.9523 0.00864082 -2.85262e-25)
(7.94908 0.0107018 0)
(7.95611 0.00625418 9.5947e-25)
(7.95968 0.00664073 -5.33638e-25)
(7.96602 0.0043648 -3.25388e-26)
(7.96936 0.00235235 1.65472e-25)
(7.97404 0.00272145 -3.66959e-25)
(7.97123 0.00282705 4.68022e-26)
(7.9766 -0.000526882 -5.79124e-25)
(7.93609 0.0378766 5.47395e-25)
(7.95938 0.0369462 0)
(7.95057 0.0307239 0)
(8.13659 -0.0461841 5.27678e-24)
(7.95162 0.0210829 3.35613e-24)
(7.5955 -0.00581944 0)
(7.93115 0.029956 5.24872e-25)
(7.93443 0.035775 1.75218e-25)
(7.93559 0.0255884 6.17596e-26)
(7.98461 0.00347459 2.93478e-24)
(7.99042 0.0032267 -2.49688e-24)
(7.98321 0.00146035 0)
(8.00109 0.0100496 -3.68061e-26)
(8.02242 0.00489922 -1.3109e-24)
(8.0009 0.0169823 0)
(7.88864 0.0813796 -1.40991e-23)
(7.98133 0.000946078 -8.82609e-25)
(7.97818 3.56629e-06 8.76175e-26)
(7.93783 0.0234552 0)
(7.94131 0.0119753 -6.32624e-25)
(7.94393 0.0114747 -2.30734e-25)
(7.94106 0.0159042 -4.09542e-25)
(7.95016 0.00610374 -1.2269e-24)
(7.94847 0.00766225 1.27052e-25)
(7.95595 0.00376922 -1.29124e-24)
(7.96078 0.00337968 0)
(7.96332 0.00244507 -2.67967e-25)
(7.96612 0.000386762 6.38856e-26)
(7.97338 0.000938535 0)
(7.97075 0.00130011 0)
(7.97614 -0.00232337 3.57427e-25)
(7.97811 -0.00136545 -1.32508e-24)
(7.93439 0.0372227 -4.92837e-25)
(7.95646 0.0339099 0)
(7.95084 0.021365 1.59972e-24)
(8.24556 -0.0517916 -4.6726e-24)
(7.94066 0.0134934 4.32396e-24)
(7.80523 0.0452193 -2.64955e-23)
(7.92812 0.0334425 0)
(7.93231 0.0282989 0)
(7.93534 0.0373845 2.56642e-24)
(7.93376 0.0246956 3.31316e-25)
(7.98602 0.00159682 1.26003e-24)
(7.98955 0.00266282 -2.07227e-24)
(7.98409 0.000479888 0)
(7.99868 0.00903202 0)
(8.02184 0.00356705 0)
(8.00865 -0.00985455 0)
(8.00712 -0.0101702 -7.8493e-25)
(7.86934 0.064455 -6.48285e-23)
(7.98097 -0.000329632 -6.46837e-25)
(7.98023 -0.00124364 3.99221e-27)
(7.93917 0.0201065 0)
(7.93835 0.0104424 0)
(7.94548 0.00732906 1.43169e-24)
(7.93704 0.0137515 -4.58998e-25)
(7.94964 0.00396811 6.12593e-25)
(7.95862 0.00122627 6.34874e-25)
(7.95277 0.00182035 -7.66998e-26)
(7.96143 0.00186774 2.4379e-25)
(7.96448 0.000162432 -2.88779e-25)
(7.96698 -0.000734756 4.87801e-26)
(7.97423 -0.0015312 -7.75487e-26)
(7.96904 -0.000565718 -1.13306e-25)
(7.97728 -0.00426468 4.89149e-25)
(7.97961 -0.00363946 -6.7288e-25)
(7.93205 0.0381742 -1.40857e-24)
(7.93667 0.0368601 2.09326e-24)
(7.95888 0.0339248 8.28828e-26)
(7.9684 0.0195641 0)
(8.12813 -0.0568582 1.29851e-23)
(7.95636 0.0207567 -3.2835e-24)
(7.71643 -0.000630213 0)
(7.92465 0.0351652 4.4634e-25)
(7.9306 0.0314972 4.68395e-25)
(7.9322 0.0273948 4.62501e-26)
(7.92569 0.0362664 -4.67957e-25)
(7.93268 0.0222458 5.47967e-26)
(7.9871 0.000861686 1.8568e-24)
(7.98911 0.000951187 -1.88491e-24)
(7.99501 0.00261284 1.08624e-24)
(7.98303 -0.000903742 0)
(8.00477 0.00763079 0)
(8.01884 -7.23632e-05 2.81812e-24)
(8.0139 0.00263446 1.63608e-24)
(8.00387 -0.0116875 6.50061e-24)
(7.90031 -0.00964377 5.65625e-25)
(7.98272 -0.00143259 1.61433e-25)
(7.98083 -0.00340416 0)
(7.93503 0.0196305 0)
(7.93509 0.00682556 -1.7864e-24)
(7.93649 0.0116141 0)
(7.94092 0.00521113 1.1412e-24)
(7.93352 0.0158488 1.39528e-24)
(7.94503 0.000958953 0)
(7.95779 -0.00184382 0)
(7.95194 -0.00277402 5.93439e-25)
(7.96332 -0.00104587 -3.60957e-25)
(7.96477 -0.00109094 -7.50532e-25)
(7.9685 -0.00309013 4.19466e-26)
(7.97298 -0.00403301 -4.49534e-25)
(7.97045 -0.00320388 -2.89158e-26)
(7.97677 -0.00564584 2.98142e-25)
(7.9786 -0.00439535 0)
(7.92828 0.0386402 -2.27679e-25)
(7.93726 0.0355768 2.62604e-25)
(7.972 0.0265114 0)
(7.9324 0.0366349 7.98856e-26)
(8.20284 -0.0735282 -1.27482e-23)
(7.9473 0.0245694 -1.11908e-25)
(7.67006 -0.0447513 1.99048e-24)
(8.00661 -0.0540419 -7.09889e-24)
(7.92863 0.0321508 7.74556e-25)
(7.92777 0.0263564 -3.62058e-25)
(7.92448 0.0374935 0)
(7.92763 0.0195971 0)
(7.98636 -0.00173845 1.95335e-24)
(7.99045 -0.000730842 -1.97773e-24)
(7.99528 0.000720411 1.94253e-24)
(7.9852 -0.0024081 -1.4921e-24)
(8.00103 0.00301327 0)
(8.00969 0.00455281 0)
(8.01063 0.00607152 1.88455e-24)
(8.02405 0.0121932 3.83932e-24)
(7.9488 -0.0217323 0)
(7.91804 0.053568 2.3217e-24)
(7.98436 -0.00370259 0)
(7.98211 -0.0044293 2.99884e-25)
(7.92959 0.00607007 -1.06155e-24)
(7.93657 0.00433849 -8.36811e-25)
(7.93043 0.00870334 -1.08627e-24)
(7.94098 0.00184528 0)
(7.92783 0.0128484 6.55713e-25)
(7.94442 -0.00372085 -9.74436e-25)
(7.96122 -0.00456062 5.20793e-25)
(7.95532 -0.00435612 -1.70159e-24)
(7.94942 -0.00527917 1.20387e-24)
(7.9635 -0.0033825 -1.34901e-25)
(7.96661 -0.00282741 -7.19694e-25)
(7.96857 -0.00376817 6.63612e-26)
(7.97133 -0.00469526 4.99683e-25)
(7.97509 -0.00635986 -4.63481e-25)
(7.97807 -0.00705501 -1.20757e-25)
(7.97916 -0.00570477 -1.09198e-24)
(7.93615 0.0369408 -9.82849e-25)
(7.97008 0.0322137 0)
(7.93141 0.0390154 3.22359e-24)
(8.09673 -0.0494749 3.31143e-25)
(7.96103 0.0290898 0)
(7.58634 -0.0688285 2.32911e-24)
(8.02103 -0.0246124 0)
(7.92691 0.0349119 1.5388e-24)
(7.92592 0.0294187 2.92236e-25)
(7.92468 0.0229702 0)
(7.92455 0.0393781 -9.46091e-25)
(7.92375 0.0152945 0)
(7.98831 -0.00320563 0)
(7.99189 0.000233838 2.96376e-25)
(7.99721 0.00289427 0)
(7.98678 -0.00448797 3.0107e-25)
(8.00798 0.00254052 -3.89192e-24)
(8.01637 0.00873885 7.38352e-24)
(8.01239 0.00120403 2.13553e-24)
(7.97563 0.0195501 0)
(7.9075 0.0255465 0)
(7.98509 -0.00512008 2.00184e-24)
(7.98089 -0.00536577 3.11925e-25)
(7.92772 0.00163988 0)
(7.93467 0.000239592 -6.1943e-25)
(7.92647 0.00890225 9.21832e-26)
(7.9378 -0.00143265 -2.39804e-24)
(7.94386 -0.00533433 -1.05084e-24)
(7.96085 -0.00795631 -1.94785e-24)
(7.95743 -0.00824556 -3.6075e-25)
(7.95 -0.00997349 1.20903e-25)
(7.96578 -0.00533821 -9.75277e-25)
(7.9714 -0.00681529 1.40116e-25)
(7.97416 -0.00708487 3.52408e-25)
(7.97533 -0.00784396 2.86061e-27)
(7.97947 -0.00656154 -1.17992e-24)
(7.97912 -0.00856547 3.06141e-24)
(7.98005 -0.00617292 0)
(7.93868 0.0389916 0)
(7.98311 0.0292131 0)
(7.93685 0.0405836 3.13818e-24)
(8.1607 -0.0445136 -2.33985e-23)
(7.94761 0.0455467 -8.44563e-24)
(7.73329 -0.0261538 0)
(8.13287 -0.0164201 -2.03474e-23)
(7.92514 0.0377935 1.6897e-24)
(7.92138 0.0296077 0)
(7.91737 0.0199712 2.60729e-25)
(7.92406 0.0438178 1.28227e-24)
(7.91774 0.0116156 3.72212e-25)
(7.98798 -0.00316377 0)
(7.9924 0.000892838 0)
(7.99664 0.00393024 0)
(7.98745 -0.00480565 -2.2248e-24)
(8.00545 0.00537743 -5.62547e-24)
(8.01339 0.0019231 8.02071e-25)
(8.02547 0.00209949 8.74565e-24)
(7.97981 0.0191143 -8.01456e-24)
(7.91495 0.0195365 8.22402e-24)
(7.98311 -0.00629679 -2.7597e-24)
(7.98185 -0.00601468 -3.08899e-24)
(7.92193 0.00101168 0)
(7.93078 -0.00170702 0)
(7.92162 0.00453825 7.86422e-25)
(7.94005 -0.00451997 -1.5773e-24)
(7.94733 -0.00943969 6.47297e-25)
(7.96256 -0.00993195 -2.09015e-24)
(7.95537 -0.0108914 6.57884e-25)
(7.95236 -0.0114774 1.67613e-25)
(7.96732 -0.0074521 -1.67728e-25)
(7.96947 -0.00805072 -8.78917e-25)
(7.97301 -0.00803862 0)
(7.97648 -0.00892595 0)
(7.98139 -0.00807158 -1.74907e-25)
(7.98088 -0.00941325 -1.12398e-24)
(7.97788 -0.00960444 2.94561e-24)
(7.98059 -0.00724375 -2.36572e-24)
(7.93848 0.045211 -2.77596e-24)
(7.99317 0.0347584 7.7376e-24)
(7.93506 0.0481949 -5.81153e-25)
(8.06135 -0.00060792 -7.84578e-24)
(7.98246 0.0492011 6.65925e-25)
(7.83326 0.0209377 0)
(8.11187 0.0114616 -3.20469e-25)
(7.92575 0.0433223 1.31495e-24)
(7.92105 0.035501 2.73286e-24)
(7.91551 0.0276622 -8.71542e-25)
(7.9136 0.0232408 2.28981e-26)
(7.91338 0.0140803 -3.57396e-24)
(7.92677 0.0474203 0)
(7.91691 0.00552197 3.58146e-25)
(7.98913 -0.00227462 -1.95477e-24)
(7.99458 0.00219603 0)
(7.99195 0.000195401 0)
(8.00003 0.00373013 0)
(7.98708 -0.00542815 1.29525e-24)
(8.00588 0.00392495 0)
(8.00439 0.0028172 -2.42104e-24)
(8.01971 -0.00232817 0)
(8.02555 -0.00516632 -6.33929e-24)
(7.91618 0.00930118 -1.96133e-24)
(7.98437 -0.00724135 2.48674e-24)
(7.98154 -0.00757412 -4.58884e-24)
(7.91987 -0.00257258 1.67237e-24)
(7.93199 -0.00495229 0)
(7.939 -0.00738188 1.27761e-24)
(7.94516 -0.0114635 6.25821e-25)
(7.95973 -0.0132983 6.39005e-25)
(7.96508 -0.00921079 1.20408e-24)
(7.95661 -0.0140226 -6.35352e-25)
(7.95009 -0.0150316 -2.49832e-24)
(7.96923 -0.0104249 -9.55345e-25)
(7.97336 -0.00962014 0)
(7.97506 -0.0104096 0)
(7.98255 -0.00798047 -2.84673e-25)
(7.98137 -0.0110192 -1.68142e-24)
(7.97843 -0.0111566 2.33808e-26)
(7.94299 0.0483128 -3.52794e-24)
(7.94514 0.0488982 1.46383e-24)
(8.09126 0.00826626 3.32555e-23)
(7.97794 0.0614864 -4.60023e-24)
(7.80418 0.0155689 0)
(8.13461 0.00626261 4.00319e-24)
(7.92146 0.0451495 -2.32992e-24)
(7.91616 0.037703 2.3783e-24)
(7.90863 0.0290346 -1.75207e-24)
(7.90629 0.0214487 4.80162e-25)
(7.90838 0.0118375 -3.6202e-24)
(7.92626 0.0550343 0)
(7.91131 0.00168148 -2.14047e-25)
(7.98956 -0.00363234 0)
(7.99029 -0.00113887 1.29666e-24)
(7.99398 0.00121974 7.21972e-25)
(7.99428 0.0011468 7.00025e-25)
(7.99842 0.00211029 6.98949e-26)
(7.98828 -0.00534099 0)
(8.00555 0.00321274 3.7892e-25)
(8.00695 0.0026014 0)
(8.00984 0.00185446 -6.92849e-26)
(8.01779 -0.00446905 -4.30817e-24)
(7.91386 0.0153232 1.39986e-24)
(8.0125 -0.0115982 -1.87355e-24)
(7.98247 -0.00853606 2.46175e-24)
(7.98241 -0.00858467 -1.7922e-24)
(7.91613 -0.00412367 1.5248e-24)
(7.92461 -0.00632717 -2.03823e-24)
(7.92802 -0.00696967 -1.39275e-24)
(7.93571 -0.00764202 1.29531e-24)
(7.94179 -0.0108884 0)
(7.94684 -0.0149192 -2.35575e-25)
(7.96126 -0.0143278 1.90248e-24)
(7.96458 -0.0119452 1.2677e-24)
(7.95502 -0.0168233 -2.14754e-24)
(7.95121 -0.0170522 -1.99044e-24)
(7.967 -0.0124109 1.33307e-25)
(7.9715 -0.0113183 -1.33247e-24)
(7.97536 -0.0119754 0)
(7.98517 -0.0096707 -2.19816e-25)
(7.98022 -0.0116863 3.89342e-26)
(7.98323 -0.0122421 2.07705e-24)
(7.97729 -0.0125562 0)
(7.94374 0.0566581 0)
(7.95028 0.0609539 6.08319e-24)
(8.03018 0.0413874 -3.23738e-24)
(8.12649 0.0124962 1.37901e-23)
(7.96875 0.0673353 -6.59761e-24)
(7.98408 0.0237729 0)
(7.79671 -0.054781 0)
(8.13356 0.00990333 9.16151e-25)
(7.92085 0.053265 0)
(7.91529 0.0437858 -2.4015e-24)
(7.90756 0.0333187 -1.66991e-25)
(7.90204 0.0259991 -3.0357e-24)
(7.90398 0.0168703 0)
(7.90428 0.00714297 -5.75133e-25)
(7.92558 0.0579446 3.49434e-25)
(7.93125 0.0608612 -1.56856e-24)
(7.9062 0.0030391 -1.96386e-25)
(7.91144 -0.00206283 1.2687e-24)
(7.99118 -0.0031926 0)
(7.99085 -0.00197666 4.42869e-24)
(7.99519 0.000462075 0)
(7.99471 -0.0010362 3.02146e-24)
(8.00099 0.00225052 1.02066e-25)
(7.98832 -0.0063142 -2.9927e-24)
(8.00378 0.00141643 3.25595e-25)
(8.00606 -0.00117409 0)
(8.01144 -0.00182892 -3.04399e-24)
(8.01435 7.95308e-05 -1.00084e-23)
(7.93329 0.00195651 9.94228e-24)
(8.02197 -0.0140014 -1.06907e-23)
(7.98401 -0.00886706 3.07199e-24)
(7.9847 -0.00921451 2.96508e-25)
(7.91683 -0.0101577 0)
(7.92072 -0.010855 2.3077e-24)
(7.92717 -0.0129279 0)
(7.93538 -0.0123744 0)
(7.93906 -0.0145339 0)
(7.94471 -0.0172263 -1.39581e-25)
(7.96267 -0.016983 -1.05599e-25)
(7.95722 -0.01896 -2.47298e-24)
(7.95079 -0.0193219 5.11967e-25)
(7.96827 -0.0150144 -2.71175e-25)
(7.97205 -0.0133176 -1.24236e-24)
(7.97453 -0.0137339 -1.67219e-24)
(7.98464 -0.0115866 2.34265e-24)
(7.98623 -0.00969736 0)
(7.98124 -0.0138449 -2.75699e-24)
(7.98368 -0.0142515 1.13687e-25)
(7.97783 -0.0142753 1.24236e-24)
(7.9513 0.064863 0)
(7.95865 0.0682685 -3.60221e-24)
(8.03759 0.0559334 -6.86742e-24)
(8.13019 0.0244821 4.05888e-24)
(7.97054 0.0774145 1.01276e-23)
(7.98625 0.0082044 0)
(7.83906 -0.0136855 0)
(8.15021 0.0139356 -4.12937e-24)
(7.91364 0.0590342 -5.29824e-25)
(7.91053 0.0448816 1.31443e-24)
(7.90369 0.038552 1.04234e-24)
(7.89613 0.0252206 -2.98292e-24)
(7.89802 0.0146949 0)
(7.89865 0.00907388 -3.28738e-25)
(7.92429 0.0646509 -2.15463e-24)
(7.93095 0.0698332 -1.57777e-24)
(7.90247 -0.00130516 -6.3366e-25)
(7.90963 -0.00644463 2.45043e-25)
(7.99227 -0.00512933 0)
(7.99336 -0.0026847 3.9151e-24)
(7.99554 -0.000229339 1.31431e-24)
(7.99534 -0.00136799 6.1458e-25)
(7.99793 0.00105309 1.22582e-24)
(7.98517 -0.00783977 -3.84695e-24)
(7.98996 -0.00564298 -7.76512e-24)
(8.00167 0.00279687 0)
(8.00629 -0.0017213 7.74637e-24)
(8.01291 -0.00496523 -3.52442e-24)
(7.93821 0.0271111 0)
(8.00972 -0.0192783 1.04573e-24)
(7.98542 -0.0104034 -4.51253e-24)
(7.98606 -0.01015 -4.46068e-24)
(7.9131 -0.0113657 -1.19994e-24)
(7.92121 -0.0130022 2.14134e-24)
(7.93146 -0.0144881 0)
(7.92412 -0.0127243 0)
(7.94064 -0.017204 8.44662e-26)
(7.94683 -0.0196363 -4.68551e-25)
(7.96677 -0.0177423 0)
(7.96115 -0.0189836 -7.04959e-25)
(7.95651 -0.0219368 1.12656e-24)
(7.95339 -0.0219614 9.66345e-25)
(7.97133 -0.0155017 -2.62213e-25)
(7.97623 -0.0156384 -2.87839e-24)
(7.98636 -0.0134015 4.11195e-24)
(7.98865 -0.0108939 4.44973e-24)
(7.98055 -0.0151758 -2.6696e-24)
(7.98301 -0.0149903 2.06952e-25)
(7.98533 -0.0148708 4.34157e-24)
(7.97851 -0.0155495 1.17991e-24)
(7.94968 0.0757675 3.27653e-24)
(7.96305 0.0835925 0)
(8.09404 0.0446116 -1.52972e-23)
(8.00451 0.0694876 7.58527e-24)
(7.97521 0.0920785 3.01654e-24)
(8.07698 0.0281781 8.36957e-24)
(7.86405 -0.0856628 0)
(8.16331 0.0379955 7.44264e-24)
(7.90698 0.0565867 -5.11496e-25)
(7.91557 0.0649014 0)
(7.90635 0.0494202 -1.21598e-25)
(7.89415 0.037597 0)
(7.89173 0.0265251 -1.30389e-24)
(7.89341 0.0184564 0)
(7.89489 0.00576661 -8.16235e-25)
(7.9266 0.071181 -4.3284e-24)
(7.9361 0.0785787 3.29913e-24)
(7.89715 0.00108015 -1.14323e-24)
(7.9049 -0.00559117 0)
(7.993 -0.00531775 0)
(7.99451 -0.00489767 0)
(7.9966 -0.00113793 -1.0931e-26)
(7.99901 0.00148422 7.07557e-24)
(7.98566 -0.00844249 3.21753e-24)
(7.98938 -0.00650584 -6.56217e-24)
(8.00183 0.00198745 -2.46197e-24)
(8.00261 -0.00129732 8.5959e-24)
(8.00784 -0.00765136 -9.35814e-25)
(7.95684 0.0114656 -1.22898e-23)
(8.02335 -0.0146844 1.92915e-24)
(7.98794 -0.0103624 0)
(7.98937 -0.0110465 2.11934e-24)
(7.90942 -0.0144145 5.49607e-25)
(7.91942 -0.0151817 -2.40927e-24)
(7.93119 -0.0183102 -2.5421e-24)
(7.92313 -0.0161823 0)
(7.93788 -0.0196705 1.27956e-25)
(7.94506 -0.022235 -8.61131e-25)
(7.96924 -0.0205854 3.13387e-25)
(7.96354 -0.0224322 0)
(7.95866 -0.0242728 1.15174e-24)
(7.95104 -0.0249485 -1.15179e-24)
(7.97359 -0.0177184 0)
(7.97605 -0.0176593 -1.05565e-24)
(7.98811 -0.0130334 0)
(7.98231 -0.0171255 0)
(7.98395 -0.0157265 -9.7316e-25)
(7.98505 -0.0159002 2.3073e-24)
(7.98147 -0.0177698 0)
(7.95797 0.08724 0)
(7.97072 0.0949271 0)
(8.1044 0.0553102 -5.51848e-24)
(8.01145 0.0843894 4.94811e-24)
(7.98496 0.105028 -9.67899e-24)
(8.12219 0.028948 0)
(7.90466 0.0403862 0)
(8.16966 0.0602313 3.54028e-24)
(7.90024 0.0632778 -2.26497e-24)
(7.91201 0.0710145 0)
(7.89305 0.0455209 -1.29918e-25)
(7.88946 0.033093 -1.44041e-24)
(7.88394 0.0212712 -1.25551e-24)
(7.88717 0.0163016 -1.41114e-24)
(7.88887 0.0105226 2.57863e-24)
(7.92299 0.0796212 -3.07016e-24)
(7.93343 0.0875631 8.87722e-25)
(7.89347 -0.00331628 -2.67919e-25)
(7.90113 -0.0107547 -1.46697e-24)
(7.99232 -0.00672839 2.84705e-24)
(7.99642 -0.00508778 -9.46397e-25)
(7.9988 -0.00277954 -2.8583e-25)
(7.99748 -0.000405396 2.2433e-25)
(7.99788 0.000256337 7.38091e-24)
(7.98744 -0.0080638 7.1681e-24)
(7.98866 -0.00999593 0)
(7.99113 -0.00660062 1.28733e-24)
(8.0017 0.000711388 0)
(8.00221 0.000955775 -2.76279e-24)
(8.00115 -0.00507818 -2.79199e-24)
(8.00642 -0.00753412 1.09376e-24)
(7.96501 0.0411586 -2.31164e-23)
(8.01615 -0.025068 0)
(8.01098 -0.0176961 0)
(7.99166 -0.0121069 -6.61984e-24)
(7.99133 -0.0123368 -8.71062e-24)
(7.91097 -0.0174719 -1.94362e-24)
(7.90386 -0.0149302 2.50059e-26)
(7.91616 -0.0174692 -3.87595e-24)
(7.93416 -0.0200904 -2.27174e-24)
(7.92746 -0.0191287 0)
(7.93895 -0.0223371 0)
(7.94773 -0.0249932 0)
(7.94187 -0.0232959 -6.53754e-25)
(7.97219 -0.0204282 1.51885e-25)
(7.9672 -0.0230853 6.60755e-26)
(7.96178 -0.0239627 0)
(7.95604 -0.027158 0)
(7.95269 -0.0276498 -1.12537e-24)
(7.97799 -0.0194783 2.87974e-25)
(7.9894 -0.0145261 5.56276e-24)
(7.9837 -0.0170407 -1.9943e-24)
(7.98499 -0.0159486 2.13872e-24)
(7.98629 -0.0164525 -7.7095e-25)
(7.98069 -0.0193524 -4.92928e-24)
(7.95582 0.0969099 4.15936e-24)
(7.97434 0.109901 1.60922e-24)
(8.14328 0.0487313 0)
(8.0529 0.0789141 -1.20526e-24)
(8.00221 0.101963 -5.66231e-24)
(7.99067 0.117863 0)
(8.02542 0.0532033 5.59219e-25)
(8.17016 0.0491701 0)
(7.92475 -0.158308 0)
(7.88862 0.0617838 -1.28924e-24)
(7.90356 0.0699129 -3.14114e-25)
(7.91473 0.0792287 0)
(7.88599 0.0470025 0)
(7.88219 0.0339088 -1.72699e-25)
(7.87762 0.0214696 0)
(7.88449 0.00753272 2.46981e-24)
(7.92619 0.0877584 5.00723e-25)
(7.93722 0.0972332 4.87752e-24)
(7.88731 -0.000110439 -1.11721e-24)
(7.89581 -0.00939372 1.22952e-24)
(7.99345 -0.00731211 -6.09382e-24)
(7.99984 -0.00275017 2.81262e-24)
(7.99934 -0.00158382 3.01438e-24)
(7.99958 4.92886e-05 0)
(7.98807 -0.00906655 -5.45974e-24)
(7.99262 -0.0111745 4.54941e-24)
(7.99031 -0.00837077 0)
(8.00176 -0.000229946 0)
(8.00159 -0.00162084 0)
(7.99829 -0.00211015 -1.10081e-24)
(7.9969 -0.00257662 0)
(8.00178 -0.00978303 0)
(8.00829 -0.00596433 0)
(7.99842 0.00394383 0)
(7.99388 -0.0130634 -1.27201e-24)
(7.99147 -0.0135863 8.3498e-24)
(7.9076 -0.0214382 0)
(7.89901 -0.0203645 -6.04154e-25)
(7.91748 -0.0212919 0)
(7.93202 -0.0235745 0)
(7.92517 -0.0219171 -1.53615e-24)
(7.93509 -0.025114 0)
(7.9454 -0.027362 0)
(7.94237 -0.0267502 2.15557e-25)
(7.97395 -0.0219819 0)
(7.96667 -0.0253728 -2.67324e-24)
(7.96375 -0.0260329 0)
(7.95739 -0.028967 0)
(7.95044 -0.0299205 -7.36698e-25)
(7.97733 -0.0208482 0)
(7.98701 -0.0160328 -7.9902e-25)
(7.98472 -0.0179687 -3.34394e-24)
(7.98654 -0.0164667 -3.15093e-24)
(7.98707 -0.0168273 0)
(7.98226 -0.0205602 -5.28266e-24)
(7.95689 0.109192 0)
(7.96677 0.115381 0)
(7.98309 0.119799 1.6745e-24)
(8.12468 0.0719482 6.49922e-24)
(8.06934 0.0917196 6.76315e-24)
(8.01249 0.116133 5.38915e-24)
(8.0001 0.132459 0)
(8.06811 0.141172 -2.6692e-23)
(8.18922 0.0682118 -6.1631e-24)
(8.03345 -0.0580401 -3.90593e-23)
(7.88165 0.0689506 4.97917e-25)
(7.88318 0.0547015 0)
(7.89895 0.07956 2.97317e-24)
(7.91102 0.086328 -6.55955e-25)
(7.87848 0.0417849 0)
(7.87499 0.0271448 -1.77654e-25)
(7.87509 0.018126 2.82985e-24)
(7.8787 0.01051 -1.05395e-24)
(7.92219 0.0980866 2.112e-24)
(7.93169 0.107216 -1.06709e-24)
(7.88338 -0.00289621 2.58482e-25)
(7.89114 -0.0129645 2.01612e-24)
(7.99361 -0.00670508 -2.39898e-24)
(8.00041 -0.00330969 3.61414e-24)
(8.00007 -0.00119107 -3.92083e-24)
(7.99868 -0.00102119 -3.87975e-24)
(7.98924 -0.00932421 -5.35007e-24)
(7.99435 -0.0127108 -3.80702e-24)
(7.99305 -0.0101896 8.46617e-24)
(7.99057 -0.00853596 1.43997e-23)
(8.00154 -0.000951868 4.86757e-25)
(8.00069 -0.00243927 5.0729e-24)
(7.998 -0.00243738 3.0325e-24)
(8.00039 -0.00168118 1.39527e-24)
(8.00108 -0.000162057 0)
(7.99366 -0.014181 -1.25309e-24)
(7.992 -0.0150092 2.99422e-24)
(7.91021 -0.0251325 0)
(7.9014 -0.0235947 0)
(7.894 -0.0210879 2.07127e-24)
(7.91503 -0.0242458 0)
(7.92165 -0.0224659 1.45964e-24)
(7.92803 -0.0247918 -3.54108e-24)
(7.93573 -0.0274705 1.83413e-25)
(7.94646 -0.0293446 0)
(7.9397 -0.0282732 0)
(7.97298 -0.0242905 1.52769e-25)
(7.96827 -0.0264508 -2.74128e-24)
(7.9618 -0.0284908 0)
(7.95725 -0.0320806 0)
(7.95088 -0.0321988 -6.45397e-25)
(7.97909 -0.02271 7.45759e-25)
(7.98744 -0.0163933 -7.78052e-24)
(7.98625 -0.0175073 0)
(7.9843 -0.0197715 -3.39908e-24)
(7.98721 -0.016808 -1.05455e-24)
(7.98817 -0.016867 -5.08674e-24)
(7.98137 -0.0227108 9.67692e-25)
(7.93786 0.115813 -1.35125e-24)
(7.96373 0.134588 0)
(7.98538 0.136697 -1.18798e-24)
(8.15567 0.0864096 -6.66796e-24)
(8.05732 0.109114 -5.64338e-24)
(8.00927 0.132534 9.82679e-25)
(8.02868 0.119434 -2.89541e-24)
(7.99764 0.141387 -3.56142e-25)
(8.10322 0.123996 0)
(8.18634 0.0940717 0)
(8.10758 0.142401 1.83641e-22)
(7.88581 0.0785828 -1.30623e-24)
(7.86928 0.0675692 2.79639e-24)
(7.87153 0.0531284 0)
(7.90245 0.086714 1.72841e-24)
(7.91299 0.0974177 -4.20074e-24)
(7.87177 0.0401129 -5.20566e-25)
(7.86969 0.0311061 -3.30869e-25)
(7.86767 0.0142992 1.68402e-24)
(7.87251 0.00388241 -1.4907e-24)
(7.92552 0.106962 2.16724e-24)
(7.87574 -0.00225807 2.82071e-25)
(7.88584 -0.00971095 0)
(7.88983 -0.0167284 3.6725e-24)
(7.99556 -0.00489394 5.41236e-24)
(8.00079 -0.00249963 -5.89876e-24)
(8.00191 -0.00204888 0)
(7.99982 -0.00123816 0)
(7.99165 -0.00921001 -1.36585e-24)
(7.99615 -0.0130871 0)
(7.99742 -0.0108864 5.04521e-24)
(7.98975 -0.00710273 1.44728e-23)
(8.00112 -0.00142284 3.93687e-25)
(8.00127 -0.00216661 4.65284e-24)
(7.99897 -0.00200246 8.17078e-25)
(7.99993 -0.00199753 -1.31735e-24)
(7.99994 -0.00142851 0)
(7.99397 -0.0145679 0)
(7.9883 -0.0159299 -6.9875e-24)
(7.90765 -0.0292391 -5.84811e-25)
(7.89879 -0.0277821 1.10941e-24)
(7.88888 -0.0271704 4.27055e-25)
(7.91724 -0.0271541 1.92953e-25)
(7.92139 -0.0258788 1.85021e-25)
(7.92766 -0.0269904 -2.6119e-24)
(7.93392 -0.0283233 2.9223e-25)
(7.9447 -0.0313434 9.709e-25)
(7.93846 -0.0311135 2.36366e-25)
(7.97146 -0.0262693 1.12764e-24)
(7.97702 -0.025224 -1.58814e-24)
(7.96711 -0.0295324 1.36229e-24)
(7.96377 -0.0303656 -8.25174e-26)
(7.9538 -0.0332916 0)
(7.96079 -0.0336174 -1.27977e-25)
(7.94713 -0.0335733 8.7601e-25)
(7.98825 -0.0163592 1.59829e-23)
(7.98698 -0.0180468 8.18526e-27)
(7.98597 -0.0202913 0)
(7.98806 -0.0173603 1.96527e-26)
(7.98824 -0.0166599 2.57065e-23)
(7.98857 -0.0176377 -5.13251e-24)
(7.98274 -0.0240933 7.12955e-25)
(7.93694 0.128779 1.26719e-24)