/*--------------------------------*- C++ -*----------------------------------*\
| =========                 |                                                 |
| \\      /  F ield         | OpenFOAM: The Open Source CFD Toolbox           |
|  \\    /   O peration     | Version:  v2012                                 |
|   \\  /    A nd           | Website:  www.openfoam.com                      |
|    \\/     M anipulation  |                                                 |
\*---------------------------------------------------------------------------*/
FoamFile
{
    version     2.0;
    format      ascii;
    class       volVectorField;
    location    "1";
    object      ddtCorrDdt0(U);
}
// * * * * * * * * * * * * * * * * * * * * * * * * * * * * * * * * * * * * * //

dimensions      [0 1 -2 0 0 0 0];


internalField   nonuniform List<vector> 
11941
(
(1.51427e-05 2.35654e-05 5.13636e-25)
(6.2412e-06 1.33262e-05 -2.23669e-25)
(1.62443e-05 1.74405e-05 -6.93645e-25)
(3.10879e-05 0.000146794 -6.1196e-26)
(9.20265e-06 2.43733e-05 0)
(4.17845e-05 0.00014882 6.80663e-25)
(2.08723e-05 1.01875e-05 -1.74246e-24)
(4.19516e-05 0.000203603 2.37262e-25)
(7.47416e-05 0.000245646 -6.20773e-25)
(3.64516e-06 1.48847e-05 1.54721e-25)
(8.89569e-05 0.000195103 0)
(3.46081e-05 2.24077e-05 8.4086e-25)
(8.74849e-05 0.00033443 -3.54632e-25)
(2.28327e-05 0.000115051 4.17424e-25)
(0.000106256 0.000299203 0)
(5.42082e-06 2.22603e-05 -4.49553e-25)
(0.000105219 0.000224813 0)
(4.36248e-05 5.40887e-05 0)
(0.000105266 0.000350088 0)
(6.55656e-05 0.000343029 8.4942e-26)
(4.41899e-05 0.000232875 -3.84596e-26)
(0.000139078 0.000328943 0)
(8.06949e-06 3.18363e-05 3.17477e-25)
(9.42456e-05 0.000180806 2.80272e-24)
(0.000166282 0.000303508 0)
(3.05514e-05 -1.23921e-05 0)
(0.000126254 0.000378769 0)
(5.72405e-05 0.000384449 9.01581e-27)
(2.31885e-05 0.000174494 -3.38345e-25)
(0.00015419 0.000344136 0)
(-1.22026e-06 3.5578e-05 -8.17588e-25)
(0.00011547 0.000203196 -9.40441e-25)
(0.000193884 0.000281895 0)
(4.82866e-05 7.72488e-05 1.62483e-24)
(0.000111779 0.000399828 1.61092e-25)
(7.56358e-05 0.000414677 2.97721e-25)
(2.85338e-05 0.000366449 -1.11309e-25)
(2.03917e-05 0.000262275 6.36765e-25)
(0.000172101 0.000352432 -2.93353e-24)
(-9.8765e-06 2.24951e-05 9.41684e-25)
(6.66703e-05 0.000160989 -1.56127e-25)
(0.000159553 0.00024273 -1.27362e-24)
(0.000219065 0.00026275 0)
(8.19553e-05 2.06092e-05 -2.60702e-24)
(0.000134528 0.000405292 -1.66668e-24)
(6.24493e-05 0.000427446 -1.80916e-25)
(1.92706e-05 0.000387299 0)
(5.50829e-06 0.000245056 -1.8031e-25)
(0.000213473 0.000345717 -4.66734e-25)
(0.000163442 0.000404738 0)
(-1.83877e-06 1.68185e-05 1.4555e-24)
(-1.5778e-08 0.000162325 3.18136e-25)
(8.79587e-05 0.000152245 0)
(0.000175486 0.000190976 -1.84523e-25)
(0.000253883 0.000323853 2.02309e-24)
(0.000240407 0.000217457 -8.98197e-25)
(0.000115365 -4.30945e-05 1.75122e-24)
(0.00013418 0.00045372 1.03917e-24)
(8.6727e-05 0.000471285 5.81327e-25)
(2.74782e-05 0.00043391 -1.12023e-25)
(9.86736e-06 0.000373863 0)
(0.000222677 0.000357569 2.5283e-24)
(0.000187602 0.000416037 -5.78938e-24)
(7.44875e-06 3.17116e-05 -2.36443e-24)
(-1.16927e-05 0.000174269 1.15917e-24)
(0.000121082 0.000131998 0)
(0.000212403 0.000165537 1.84371e-25)
(0.000290939 0.000291196 -3.40298e-24)
(0.000247845 0.000208011 8.61046e-25)
(0.000288144 0.000251642 4.46656e-24)
(8.4981e-05 -1.87419e-05 0)
(0.000170148 0.000474824 1.52754e-24)
(5.47316e-05 0.000476707 -2.49871e-25)
(1.78629e-06 0.000481969 0)
(-3.84078e-05 0.000382551 -1.53804e-24)
(0.000289393 0.000448576 -4.51354e-24)
(0.000210826 0.000479546 1.43798e-24)
(2.40991e-07 3.24915e-05 6.98805e-25)
(-1.65456e-05 0.000256807 -1.45064e-24)
(0.0001586 0.00012105 0)
(0.000203028 0.000114294 0)
(0.000385221 0.000396581 7.04105e-24)
(0.000276427 0.000147494 0)
(0.000367703 0.000208151 7.98802e-25)
(0.000112947 5.08403e-05 -5.87129e-25)
(0.000146341 0.00054293 -1.93663e-24)
(1.82667e-05 0.000468791 0)
(5.94845e-05 0.000554267 5.33635e-25)
(-4.66809e-05 0.00045364 3.89209e-24)
(-4.03333e-05 0.000392033 -1.02852e-24)
(0.000266198 0.000494075 5.22985e-24)
(-1.14467e-05 6.05216e-05 0)
(-3.12171e-05 0.000281083 2.14825e-24)
(0.000117424 0.000118128 -1.99523e-24)
(0.000233075 9.18866e-05 -6.18448e-24)
(0.000433937 0.000407918 -8.38482e-25)
(0.000328376 0.000152129 3.99811e-24)
(0.000444363 0.000286038 -9.18987e-24)
(0.000165897 -8.43336e-05 -3.52716e-25)
(0.000202215 0.000583442 1.54743e-24)
(-3.96352e-06 0.00051036 8.23671e-25)
(3.06988e-05 0.000579609 1.81601e-25)
(-8.84749e-05 0.000463903 -3.49956e-24)
(-5.1414e-05 0.000377775 3.30807e-24)
(0.000274078 0.000546271 -2.85701e-24)
(-1.19052e-05 2.4199e-05 0)
(-3.13548e-05 0.000194811 -1.79398e-24)
(0.000137378 4.65215e-05 2.14177e-24)
(0.000260235 2.59403e-05 2.32084e-24)
(0.000457431 0.0003951 -1.80974e-25)
(0.000384961 6.77609e-05 1.04124e-24)
(0.000525694 0.000226118 1.45941e-23)
(0.000138602 2.55778e-06 -1.12513e-24)
(0.000189573 0.000664175 -1.49909e-24)
(-7.86839e-05 0.000504413 -1.88206e-24)
(2.06214e-05 0.000629495 0)
(-0.000106899 0.000462399 9.5684e-25)
(-0.000105636 0.000433843 0)
(-7.09887e-05 0.000388179 -1.88694e-24)
(0.000356368 0.00050968 5.69222e-24)
(-1.9822e-05 3.87139e-05 -9.02209e-25)
(-5.61513e-05 0.000265612 2.47471e-24)
(9.61626e-05 3.13821e-05 1.00259e-24)
(0.00021204 -1.47725e-05 -5.42892e-25)
(0.000310389 8.27212e-06 -7.66507e-25)
(0.000517427 0.000415531 -5.21764e-24)
(0.000388418 0.000474076 -6.97541e-24)
(0.000444156 6.8943e-05 -2.87523e-24)
(0.00051038 0.000111439 0)
(0.000633828 0.00021814 -1.45176e-23)
(0.00018498 -0.000170501 2.08627e-27)
(0.000252686 0.000788555 0)
(7.4538e-05 0.000725672 -7.18902e-25)
(-9.23464e-05 0.000624952 3.53253e-24)
(-6.73226e-05 0.000630766 -2.3416e-24)
(-0.000143462 0.000467471 -3.08837e-24)
(-0.000138597 0.000413102 0)
(-8.08229e-05 0.000335169 3.15843e-25)
(0.000426312 0.000748983 0)
(-4.20824e-05 0.000165674 -6.3766e-24)
(-6.85746e-06 1.62709e-05 8.22775e-25)
(0.000115341 -8.32669e-06 2.98771e-25)
(0.000214893 -3.41155e-05 -1.49389e-24)
(0.000338524 -5.23499e-05 -1.07374e-24)
(0.000612105 0.000286557 4.72726e-24)
(0.000600376 0.000520901 2.97839e-24)
(0.00051688 0.00057249 0)
(0.000444614 -6.83336e-05 -1.36787e-23)
(0.000584432 4.80198e-05 0)
(0.000661821 8.44641e-05 -7.12669e-24)
(0.000111771 -0.000203139 -8.86752e-25)
(0.00023674 0.000894268 -7.65397e-25)
(4.67046e-05 0.000771828 -2.23336e-25)
(-0.000169826 0.000571956 -5.4446e-25)
(-8.46346e-05 0.000745939 3.88051e-24)
(-0.00020356 0.000475873 0)
(-0.000187555 0.000394928 0)
(-0.000134901 0.000353523 -3.88117e-25)
(-0.000102197 0.000344066 3.43355e-24)
(0.000536259 0.00074077 0)
(-6.97088e-05 0.000216705 6.91558e-24)
(-2.28492e-05 6.84827e-05 -3.03487e-24)
(0.000188723 -1.4147e-05 9.51087e-25)
(0.000197569 -9.10708e-05 2.5436e-24)
(0.00026626 -7.61604e-05 0)
(0.000403508 -9.30966e-05 -1.0224e-24)
(0.000785958 0.000297578 8.80899e-24)
(0.000701499 0.000623633 -1.06857e-25)
(0.000566679 -7.76719e-05 1.16299e-23)
(0.000764757 5.16269e-05 -1.05625e-23)
(5.96974e-05 0.000126478 9.91868e-25)
(0.000326089 0.00100509 2.56472e-24)
(0.00010106 0.000895391 -6.73136e-25)
(-0.000243059 0.000628255 3.31923e-24)
(-0.000147388 0.000804927 -1.88266e-24)
(-0.000258048 0.000452749 0)
(-0.000204777 0.000357754 4.54144e-24)
(-0.000183364 0.000329507 3.88988e-24)
(-7.53893e-05 0.000279423 -3.17758e-24)
(0.000651048 0.000839112 -8.72997e-24)
(-6.90376e-05 0.000103676 -3.75863e-24)
(0.000179455 -0.000102209 0)
(0.000160243 -0.000111705 -3.78412e-24)
(0.000270923 -0.000142086 0)
(0.000392686 -0.000159081 7.02804e-24)
(0.00080993 0.000486774 -4.95791e-24)
(0.000861466 0.000230517 -1.45882e-23)
(0.000799035 0.000724345 1.05143e-23)
(0.000665241 -0.000146572 1.84928e-23)
(0.000773446 -0.000104997 -2.06342e-23)
(0.000859597 0.000167621 2.58871e-23)
(0.000344127 -0.000130979 1.02327e-24)
(4.88805e-05 9.59032e-05 -9.72301e-25)
(0.000263882 0.0011238 -2.00572e-24)
(0.000507845 0.000916998 3.09297e-24)
(8.36323e-06 0.00104715 1.18738e-24)
(-0.000344204 0.000565243 2.41736e-25)
(-0.0002455 0.000745952 -6.6908e-24)
(-0.000139941 0.000935669 4.11284e-24)
(-0.000281398 0.000406242 -1.26768e-25)
(-0.000217753 0.000339596 -4.05378e-24)
(-0.00016079 0.000293421 -4.74141e-24)
(-0.000137725 0.000281817 1.11465e-24)
(-7.27052e-05 0.000146202 -3.13651e-25)
(-1.98902e-05 4.3162e-07 8.19186e-27)
(0.000159306 -0.000100025 3.95888e-24)
(0.000196865 -0.000190297 0)
(0.000308455 -0.000256303 0)
(0.000489605 -0.000257982 0)
(0.000971674 0.000515423 6.97616e-24)
(0.00101926 0.000359124 -3.7096e-24)
(0.000904659 0.000794633 9.67475e-24)
(0.000647181 -0.000250523 -1.84557e-23)
(0.000846953 -0.000178528 2.19761e-23)
(0.000927333 -1.98051e-05 -1.63262e-23)
(0.00023787 -0.000484127 -2.92742e-24)
(-8.31286e-05 -8.39207e-05 0)
(0.000406169 0.00121144 -8.33385e-25)
(0.000107272 0.00119723 -1.9995e-25)
(0.000665692 0.00105236 1.47282e-24)
(-7.04631e-05 0.00105333 0)
(-0.000425654 0.000552166 0)
(-0.000361964 0.000712604 8.29309e-24)
(-0.000320786 0.00093255 -4.43363e-24)
(-0.000328453 0.000347285 3.902e-24)
(-0.00023479 0.000311543 0)
(-0.000167861 0.00028313 0)
(-0.000108544 0.000221411 -3.68186e-24)
(-7.06189e-05 0.000137741 3.07577e-24)
(-5.17166e-05 3.74446e-05 -5.37923e-24)
(0.000126759 -0.000240794 -2.28801e-24)
(0.000179981 -0.000235693 -4.02807e-24)
(0.000310657 -0.000313218 0)
(0.000415668 -0.000378433 0)
(0.00108191 0.000451032 1.43072e-23)
(0.00110908 0.000825225 -1.53713e-23)
(0.00114058 0.000191787 2.06554e-23)
(0.000867706 0.00099559 4.88692e-24)
(0.00063833 -0.000478673 1.21335e-23)
(0.000927514 -0.000400258 -2.18857e-23)
(0.00107594 -6.65364e-05 1.64186e-23)
(0.000119496 -0.000203215 1.0899e-24)
(-4.71235e-05 -0.000115654 0)
(0.000603738 0.00121659 1.71825e-24)
(0.000310223 0.00142387 8.52743e-25)
(2.52859e-05 0.00126395 -4.49756e-25)
(-0.000168198 0.00114767 4.49878e-24)
(-0.000497824 0.000462455 1.88383e-24)
(-0.00042896 0.00059993 0)
(-0.000423953 0.000877733 0)
(-0.00036833 0.0010351 0)
(-0.000282927 0.000277797 -4.90641e-24)
(-0.000410216 0.000365629 0)
(-0.000198248 0.000268027 -2.3979e-24)
(-0.000140977 0.000255006 2.77803e-24)
(-0.000100063 0.000193631 2.45812e-24)
(-3.88552e-05 1.90558e-05 0)
(0.000138601 -0.000287009 2.01189e-24)
(0.000182724 -0.000309113 4.74609e-24)
(0.000278999 -0.000317181 0)
(0.000325708 -0.000389809 0)
(0.000439193 -0.000505383 8.10147e-24)
(0.0012474 0.000651334 -1.55365e-23)
(0.00121748 0.000778851 6.50032e-24)
(0.00136507 0.000142452 -2.73271e-23)
(0.00109545 0.00125006 -5.89849e-24)
(0.000831429 -0.000499085 1.69047e-23)
(0.000568107 -0.000534574 -2.17777e-23)
(0.00107076 -0.000334034 0)
(0.0011412 -0.000240887 -2.1635e-23)
(0.000180903 -0.000540273 1.33682e-24)
(9.2238e-05 -0.000151611 -7.22256e-25)
(0.000736188 0.00152733 -2.08834e-24)
(0.000413677 0.00165819 -1.22043e-24)
(9.99797e-05 0.00144401 -2.67409e-25)
(-0.000138693 0.00123418 -4.49732e-24)
(-0.000608829 0.000471038 -3.22761e-24)
(-0.000465388 0.000402623 0)
(-0.000551638 0.000637625 7.37828e-24)
(-0.000620965 0.000777395 0)
(-0.000477716 0.00111463 -4.01925e-24)
(-0.000289161 0.000224554 0)
(-0.00040843 0.000215692 1.13851e-23)
(-0.000207271 0.000239973 2.35161e-24)
(-0.000153449 0.000229968 2.30773e-24)
(-6.9784e-05 0.000142372 0)
(-4.99111e-05 6.79261e-05 0)
(0.000148733 -0.000271274 -1.91823e-24)
(0.000165446 -0.000389577 -6.30115e-25)
(0.000233928 -0.000399888 5.34263e-24)
(0.000274217 -0.000425947 0)
(0.000342193 -0.000633149 1.97222e-23)
(0.00143776 0.000465465 0)
(0.00137876 0.000913682 0)
(0.00150257 -7.46266e-05 0)
(0.000954647 0.0015367 0)
(0.00135184 0.00120529 0)
(0.000837203 -0.000642321 1.30535e-23)
(0.000579608 -0.000549876 -2.85596e-23)
(0.00118889 -0.000514561 -1.96464e-23)
(0.00137201 -0.000122397 2.42613e-23)
(-1.8714e-05 -0.00039288 -1.43744e-24)
(0.00062524 0.00173696 0)
(0.000253453 0.00201276 1.55128e-24)
(-1.66781e-05 0.00157126 8.87621e-25)
(-0.000254683 0.00137728 0)
(-0.00068548 0.000312861 0)
(-0.000643802 0.000581972 -6.84361e-24)
(-0.000531082 0.00028222 -4.87529e-24)
(-0.000696293 0.000812582 -9.90014e-24)
(-0.000677391 0.00112991 2.11118e-23)
(-0.000426312 0.00130814 0)
(-0.000235314 0.000204389 0)
(-0.000329985 0.00019176 -7.31712e-24)
(-0.00049549 0.000189009 0)
(-0.000176802 0.000216795 -2.3117e-24)
(-0.000114472 0.000170093 0)
(-7.52359e-05 5.28734e-06 0)
(0.000123883 -0.00036707 5.06029e-24)
(0.00018229 -0.000401134 -4.11479e-24)
(0.000117876 -0.000375785 -4.48171e-24)
(0.000266762 -0.000579406 -4.72364e-24)
(0.000381764 -0.000639988 -1.15208e-23)
(0.00169736 0.000339199 -1.48896e-23)
(0.00163947 0.00095938 -3.03257e-23)
(0.00173102 0.000185409 0)
(0.0010887 0.001777 1.82192e-24)
(0.00153923 0.00136913 -8.40707e-25)
(0.000668175 -0.000766932 3.525e-25)
(0.00109175 -0.000725978 -1.69387e-23)
(0.00055517 -0.000750724 1.92126e-23)
(0.00141316 -0.000519084 -1.7426e-23)
(0.00149569 -0.000122886 2.22769e-24)
(3.35801e-05 -0.000172446 8.71277e-25)
(0.000767475 0.00201332 0)
(0.000398076 0.00206208 -1.57418e-24)
(6.02455e-05 0.00198466 0)
(-0.000203072 0.00152705 3.22085e-25)
(-0.000824263 0.000399993 9.2283e-24)
(-0.000655504 0.000260986 4.06084e-24)
(-0.000743136 0.000529612 0)
(-0.000820696 0.000894143 -7.06767e-24)
(-0.000767138 0.00120294 -5.79896e-24)
(-0.000575649 0.00164661 0)
(-0.000232376 0.000162511 2.20057e-24)
(-0.000327945 0.000132579 -6.30014e-24)
(-0.000539703 0.000101223 -2.93754e-24)
(-0.000169119 0.000185374 0)
(-9.44528e-05 0.000132703 0)
(-7.83071e-05 6.22076e-05 0)
(-3.14781e-05 -0.000298437 -1.0031e-24)
(0.000182027 -0.000471524 2.63366e-24)
(7.33686e-05 -0.000435366 7.49033e-25)
(0.0001913 -0.000602065 -1.60734e-24)
(0.000390212 -0.000766748 0)
(0.00182287 0.000635485 2.74551e-23)
(0.0017987 0.00107965 2.60083e-23)
(0.00193353 4.60354e-05 -1.80328e-23)
(0.000936349 0.00189411 -2.02445e-24)
(0.00136383 0.00168636 8.29753e-25)
(0.00177254 0.00131893 0)
(0.000696319 -0.0010085 -1.49009e-23)
(0.00111928 -0.000978625 -1.22727e-24)
(0.00045916 -0.000823407 -2.35799e-23)
(0.00152295 -0.000788135 4.17429e-23)
(0.001761 -0.00020422 2.32466e-23)
(0.000182508 -0.000677979 1.02737e-24)
(0.000307235 0.00230977 3.39449e-24)
(-0.000128448 0.00218079 4.41756e-24)
(-0.000272305 0.00180398 -3.56365e-24)
(-0.000962528 0.000276911 -2.57118e-23)
(-0.00072373 9.01404e-05 0)
(-0.000889571 0.000735112 0)
(-0.00090265 0.00108361 7.68803e-24)
(-0.000892635 0.00148479 9.3853e-24)
(-0.000813238 0.00166591 0)
(-0.000454382 0.00188756 3.0116e-24)
(-0.000267963 0.000112517 2.44119e-24)
(-0.000196424 0.000148083 2.18301e-24)
(-0.000373956 6.56816e-05 0)
(-0.000412598 9.55522e-06 0)
(-0.000615685 -2.53344e-05 3.58369e-24)
(-0.00011916 0.000126956 4.15808e-24)
(-0.000108161 -2.8436e-05 3.19535e-24)
(-6.31139e-05 -0.00024032 0)
(7.66507e-05 -0.000509316 -2.34943e-24)
(-7.57819e-05 -0.000337144 -3.04925e-24)
(0.000141488 -0.000638137 8.98206e-24)
(0.000281569 -0.000766419 1.11364e-23)
(0.00227949 0.000481274 5.70985e-24)
(0.0020076 0.00114605 -4.45652e-23)
(0.00210677 -4.43307e-05 5.82997e-24)
(0.0010003 0.00220995 -9.19913e-24)
(0.00158287 0.00191004 8.72765e-24)
(0.00196269 0.00151216 0)
(0.000534256 -0.00114702 1.49779e-23)
(0.000958499 -0.00104196 6.78407e-23)
(0.00131498 -0.00100306 0)
(0.000363883 -0.0010359 1.79192e-23)
(0.0017576 -0.000630168 0)
(0.00153858 -0.000926488 -2.13061e-23)
(8.99704e-05 -0.000373916 -1.12501e-24)
(0.000638576 0.00253114 -5.13723e-24)
(0.000180973 0.00237891 -1.27883e-24)
(-0.000201848 0.00224732 -7.60337e-24)
(-0.00116657 0.000435778 2.39192e-23)
(-0.00101285 0.000159914 1.68558e-23)
(-0.000875329 6.00854e-05 -8.33649e-24)
(-0.0011551 0.000729783 4.98986e-26)
(-0.00109994 0.00103931 2.18968e-23)
(-0.00125643 0.00125816 -2.34721e-23)
(-0.00101248 0.00176443 -1.40474e-23)
(-0.000498949 0.00215658 8.65205e-24)
(-0.000231701 8.25216e-05 0)
(-0.000166469 0.00010706 -6.43123e-24)
(-0.000288141 1.97869e-06 2.28431e-24)
(-0.000416683 -4.35938e-05 3.74002e-25)
(-0.000648901 -4.36149e-05 0)
(-0.0001066 0.000121428 0)
(-0.000104996 4.75511e-05 0)
(5.79989e-05 -0.000534162 9.02946e-25)
(-6.44694e-05 -0.000407738 6.2012e-24)
(7.94795e-05 -0.000593976 9.88216e-24)
(0.000123229 -0.000703828 -8.47725e-24)
(0.000181726 -0.000939911 1.34276e-23)
(0.00241258 0.000158793 2.10268e-23)
(0.00222995 0.000857408 3.66071e-23)
(0.00218375 0.00132029 1.05242e-23)
(0.00221155 -0.000528276 -1.5915e-23)
(0.00132079 0.00247549 1.17626e-23)
(0.00158345 0.00232354 -1.15603e-23)
(0.00189786 0.00178511 0)
(0.000461932 -0.00130012 -5.45668e-24)
(0.000872357 -0.00136698 -7.43088e-23)
(0.00129929 -0.00128071 -5.4968e-23)
(0.000253087 -0.0012059 0)
(0.00205321 -0.00074814 4.80077e-25)
(0.001751 -0.00110242 1.69523e-23)
(9.95461e-05 -0.000913574 -9.87625e-25)
(0.000753632 0.00308206 7.11601e-24)
(-0.00013462 0.00227712 5.69791e-24)
(1.83916e-05 0.00296865 0)
(-0.00138134 0.000315535 1.01793e-23)
(-0.00112216 -3.57883e-05 -1.51309e-23)
(-0.000844328 -0.000211116 0)
(-0.00125416 0.000894411 -2.60097e-23)
(-0.00144024 0.0013597 -9.01771e-24)
(-0.00123849 0.00166817 1.76113e-23)
(-0.000902201 0.00207307 -1.06349e-23)
(-0.000248258 1.69549e-05 0)
(-0.000186316 7.88752e-05 0)
(-0.000315386 -7.74564e-05 -2.20636e-24)
(-0.000461626 -0.000177484 5.59999e-24)
(-0.000684525 -0.000215345 0)
(-0.00058789 -0.000184024 -1.70555e-23)
(-0.000117984 5.22769e-05 0)
(-0.000139928 -7.57122e-05 -2.49834e-24)
(-1.39953e-06 -0.000455357 -5.94079e-24)
(3.81643e-05 -0.000600705 -6.14241e-24)
(2.10229e-05 -0.000592046 1.5031e-24)
(5.53021e-05 -0.000708391 3.1369e-24)
(6.74018e-05 -0.000759699 -1.82509e-23)
(-5.63251e-05 -0.000946043 -2.3796e-23)
(0.00273818 3.8507e-05 -3.27424e-23)
(0.00260791 0.000650193 -2.99108e-24)
(0.00246604 0.00142654 0)
(0.00246947 -0.000552421 1.98911e-23)
(0.00130127 0.00289378 -6.1043e-24)
(0.00192194 0.00255624 1.77288e-24)
(0.00233905 0.00195722 -1.05138e-23)
(0.000340227 -0.00148045 4.61553e-24)
(0.000666124 -0.00148052 1.61199e-23)
(0.00109973 -0.00148157 4.01192e-23)
(0.0016809 -0.00132749 3.70875e-23)
(0.000149155 -0.00116942 0)
(0.00209562 -0.000925665 2.85805e-24)
(0.000385148 0.00330361 8.94727e-25)
(0.00108481 0.0032017 -6.94304e-24)
(-0.000467578 0.00234856 0)
(-0.00054144 0.00290478 2.11238e-24)
(-0.00157815 0.00060454 3.12123e-23)
(-0.00142483 0.000226176 -2.45188e-23)
(-0.00098167 -0.000210517 8.60912e-26)
(-0.00127495 4.87902e-05 1.66594e-23)
(-0.00146071 0.000736349 -1.06684e-23)
(-0.00144875 0.00149034 1.56275e-23)
(-0.00162169 0.00107006 0)
(-0.00129264 0.00193669 -4.87205e-24)
(-0.00100102 0.00206441 1.72997e-23)
(-0.000220447 -1.85385e-05 0)
(-0.000172479 -1.04138e-05 0)
(-0.000273015 -0.000104265 0)
(-0.000402831 -0.000236487 5.06032e-25)
(-0.000620487 -0.000241044 -2.20526e-23)
(-4.45949e-05 5.17352e-05 -3.92084e-24)
(-0.000122857 1.35233e-05 1.64888e-24)
(-4.6961e-05 -0.00050719 2.82784e-24)
(-5.02126e-06 -0.00060956 0)
(-1.44906e-05 -0.000980037 -5.39785e-25)
(-7.5945e-05 -0.000705128 -8.24415e-24)
(3.06789e-05 -0.000786595 2.04511e-23)
(-0.000108622 -0.000913849 -4.10199e-24)
(0.00279059 0.000206263 -5.36488e-23)
(0.00275894 -0.000250006 2.74441e-23)
(0.00273809 0.00110654 5.53606e-24)
(0.00267391 0.00163573 2.52549e-23)
(0.00263501 -0.00084688 6.84907e-24)
(0.0016604 0.00316002 -3.44311e-27)
(0.00197862 0.0029588 -2.21909e-24)
(0.00228377 0.00242878 1.05676e-23)
(0.00040512 -0.00165144 1.29205e-23)
(1.29699e-05 -0.00145673 0)
(0.000530024 -0.00173445 1.22151e-24)
(0.00120934 -0.00175498 -1.72614e-23)
(0.00174786 -0.00171025 -5.90178e-23)
(6.62991e-05 -0.00115442 0)
(0.00236288 -0.00106172 -2.85149e-23)
(0.000205205 0.00362014 -4.50421e-25)
(0.0010963 0.00366657 -1.02368e-23)
(-0.000867715 0.00223337 -1.21926e-23)
(-0.000883164 0.00333422 -6.23617e-24)
(-0.00181342 0.000446265 -6.72187e-24)
(-0.00165844 0.000317418 0)
(-0.00103835 -0.000318731 -2.2584e-23)
(-0.00140988 -2.99338e-05 -1.46795e-23)
(-0.00167351 0.00182902 0)
(-0.00194695 0.00112328 -1.94039e-23)
(-0.00147472 0.00202785 1.06289e-23)
(-0.000194318 -5.0269e-05 -4.25013e-25)
(-0.000198016 -9.93375e-05 4.79118e-25)
(-0.000298392 -0.000222568 4.34423e-25)
(-0.000403095 -0.00038109 0)
(-0.000679935 -0.000360754 1.17187e-23)
(-7.71848e-05 6.74733e-05 3.62525e-24)
(-0.000176763 -0.000143123 -1.53884e-24)
(-7.24101e-05 -0.000481812 -2.41266e-24)
(-2.41816e-05 -0.000596291 -3.45928e-24)
(-7.02047e-06 -0.000548372 1.49286e-24)
(-9.9849e-05 -0.00066024 3.31031e-24)
(-2.50369e-05 -0.000733975 -1.09934e-23)
(-0.000175565 -0.00102338 -1.31897e-23)
(-0.000186668 -0.000788106 8.56278e-24)
(0.00316687 0.000191916 3.11217e-23)
(0.00320001 -0.000287125 -1.5428e-23)
(0.00320283 0.00108767 0)
(0.00308963 0.00192189 -2.80575e-23)
(0.00253677 -0.00115049 4.02329e-23)
(0.00315051 -0.000591587 -7.70772e-24)
(0.00157471 0.00364408 7.78442e-24)
(0.00243772 0.00326027 2.51873e-24)
(0.00269872 0.00242798 -2.83516e-23)
(0.000218969 -0.00189498 0)
(-8.18336e-06 -0.00132437 0)
(0.000980353 -0.00181164 4.0125e-23)
(0.00160123 -0.00177129 3.55693e-23)
(0.00212998 -0.00162596 3.73101e-23)
(0.000533087 0.00380881 -1.38427e-24)
(-0.000801975 0.00374883 1.14379e-23)
(0.000865687 0.003751 6.29969e-24)
(-0.00118176 0.00245995 1.15223e-23)
(-0.00122 0.00314991 5.89477e-24)
(-0.00201388 0.000566201 0)
(-0.00170701 0.000106523 1.67195e-23)
(-0.00102302 -0.000541885 2.10406e-23)
(-0.00126863 -0.000264406 0)
(-0.00170466 -3.66393e-05 1.73249e-23)
(-0.0019854 0.00172702 0)
(-0.00206656 0.00146143 0)
(-0.00214069 0.000768677 2.0751e-23)
(-0.00156516 0.00224335 -1.59629e-23)
(-9.17588e-05 4.13846e-05 0)
(-0.000201289 -0.000223836 0)
(-0.000240078 -0.00024434 3.7488e-25)
(-0.000481556 -0.000453679 1.80211e-24)
(-0.00025943 -0.000406012 -4.4044e-24)
(-0.00075347 -0.000535775 5.35406e-24)
(-0.00013145 -2.8907e-05 0)
(-7.15636e-05 -0.000589022 0)
(-4.19368e-05 -0.000626798 0)
(-6.93315e-05 -0.00116307 -1.70184e-24)
(-0.000142863 -0.000661467 -5.30419e-24)
(-5.4878e-05 -0.000605483 -4.53177e-24)
(-7.88412e-05 -0.000699535 4.68917e-24)
(-0.00035468 -0.00105603 0)
(-0.000228681 -0.000761747 6.00673e-24)
(0.00339097 0.000707453 4.95677e-24)
(0.00340229 -0.000238041 1.87405e-23)
(0.00360707 0.0016275 -4.29113e-24)
(0.00350571 0.00191668 0)
(0.00274297 -0.0014932 -6.67362e-23)
(0.00357153 -0.000860347 -1.86189e-23)
(0.00184406 0.00386495 0)
(0.00235168 0.00365134 0)
(0.00290476 0.0029723 2.50639e-23)
(-9.75411e-05 -0.00200802 0)
(0.000359818 -0.00225712 2.61668e-23)
(-0.0002618 -0.00148214 2.35806e-23)
(0.00101504 -0.00211219 -5.66619e-23)
(0.00142363 -0.00219296 -3.52678e-23)
(0.00229984 -0.00204997 -5.24903e-23)
(0.00023881 0.00386403 1.07017e-24)
(-0.00087029 0.0039351 -3.89676e-24)
(0.00093984 0.00431758 2.59919e-24)
(-0.00148881 0.00243561 -4.64136e-24)
(-0.00166368 0.00335549 -6.14963e-24)
(-0.0022425 0.000272616 0)
(-0.0019697 -5.13028e-05 -1.59979e-23)
(-0.00125115 -0.000665407 0)
(-0.000876234 -0.000562417 0)
(-0.00143172 -0.000405131 0)
(-0.0017031 -0.000251355 -2.08983e-23)
(-0.00211836 0.00193433 0)
(-0.00244767 0.00125175 -4.65632e-24)
(-0.00251688 0.00089301 4.0472e-24)
(-0.00178686 0.00205662 1.71987e-23)
(-7.76882e-05 -0.000112641 0)
(-0.000206288 -0.000243317 4.69252e-24)
(-0.000220844 -0.000304975 0)
(-0.000434494 -0.000541279 6.14399e-24)
(-0.000227827 -0.000474033 8.41716e-24)
(-0.000610865 -0.000579353 0)
(-0.000193146 -0.000241559 0)
(-8.44128e-05 -0.000486978 0)
(-5.15773e-05 -0.000620521 0)
(-0.000130133 -0.000640782 6.88778e-24)
(-5.03321e-05 -0.000628549 4.73325e-24)
(-0.0001398 -0.000702065 5.06885e-24)
(-0.000395402 -0.000903921 -1.2391e-23)
(-0.000467724 -0.00129331 -2.29973e-23)
(-0.000321234 -0.000795998 0)
(0.00400592 0.000691569 -2.27373e-23)
(0.0039637 0.000203817 -5.14333e-24)
(0.00417288 0.00163252 -4.8394e-23)
(0.00380325 0.00247259 2.568e-24)
(0.00331862 -0.00139613 9.83535e-24)
(0.00257755 -0.00192117 0)
(0.00420129 -0.000595796 -4.71194e-23)
(0.00173212 0.00442004 1.17312e-23)
(0.00276804 0.00397115 4.93658e-24)
(0.00345858 0.00296905 1.47371e-23)
(-0.000280267 -0.00169591 2.39557e-23)
(-0.000276421 -0.00229005 0)
(0.000700352 -0.00235811 2.70352e-23)
(9.12866e-05 -0.00252819 -3.74194e-23)
(0.00156035 -0.00250847 -3.96524e-23)
(0.00202661 -0.00248303 7.03805e-24)
(0.000284401 0.00444953 1.18082e-24)
(-0.0004 0.00398099 -4.21037e-24)
(-0.00142404 0.00407027 -8.82134e-24)
(0.00138417 0.00460385 0)
(0.000512685 0.00476376 -3.17101e-24)
(-0.00174745 0.00291584 -1.90821e-23)
(-0.00179175 0.00380844 1.82752e-23)
(-0.0027076 0.000456507 -1.1676e-23)
(-0.00212655 -0.000164274 1.08461e-23)
(-0.00148158 -0.000560145 1.45035e-23)
(-0.00125881 -0.000863677 9.63123e-24)
(-0.000793252 -0.000789808 -9.88447e-24)
(-0.00192912 -0.000490902 4.52877e-23)
(-0.00242294 0.00175946 0)
(-0.00268748 0.00143796 -9.99983e-24)
(-0.00277687 0.000762717 1.68047e-23)
(-0.00206921 0.00237482 -2.0051e-23)
(-9.90058e-06 -0.000120976 4.05983e-24)
(-0.000165794 -0.000263021 0)
(-0.000149877 -0.000318584 0)
(-0.000348568 -0.000579424 2.37329e-24)
(-0.000243116 -0.000566764 -9.63305e-24)
(-0.000117796 -0.000481536 7.08228e-24)
(-0.000571403 -0.000696711 0)
(-0.000164304 -0.000153085 0)
(-8.71319e-05 -0.000567998 -1.60958e-24)
(-7.41333e-05 -0.00121113 2.23973e-24)
(-0.000127541 -0.000604844 2.80124e-24)
(-6.90186e-05 -0.000685714 4.88597e-24)
(-0.000198957 -0.000644909 -3.19134e-24)
(-0.000588258 -0.000766879 1.31882e-23)
(-0.000677995 -0.00113457 0)
(-0.000355216 -0.000670854 0)
(0.00435022 0.00102868 4.7759e-23)
(0.00442081 7.45547e-05 9.37701e-23)
(0.00456733 0.00225192 2.52469e-23)
(0.00427143 0.0025463 -2.21926e-23)
(0.00380578 -0.0017396 2.81372e-23)
(0.00296576 -0.00227579 2.17632e-23)
(0.00472687 -0.00106631 1.54438e-23)
(0.00227404 0.00448978 -1.91195e-23)
(0.00319708 0.00389156 0)
(0.00363938 0.00347932 -1.65511e-23)
(-0.000647485 -0.00159486 -2.85979e-23)
(-0.000282471 -0.00249136 0)
(-0.000602622 -0.0020023 2.39515e-23)
(0.000800234 -0.00288346 0)
(7.19378e-05 -0.00299712 2.43009e-23)
(0.00120281 -0.00293558 0)
(0.00229254 -0.00297484 1.03775e-22)
(-0.000258422 0.00464553 -4.08944e-24)
(-0.000591284 0.00441241 9.58486e-25)
(-0.00143895 0.00430715 1.04238e-23)
(0.00144197 0.00515898 -3.84942e-24)
(0.000464075 0.0055921 1.69164e-25)
(-0.00229823 0.00298233 1.86263e-23)
(-0.00229477 0.00431876 -2.23651e-23)
(-0.0029564 0.000178786 -5.88619e-25)
(-0.00244928 -0.000637235 5.64445e-23)
(-0.00158264 -0.000848974 -1.58404e-23)
(-0.0010098 -0.000991774 -1.61085e-23)
(-0.00151743 -0.000941375 -1.2472e-24)
(-0.000645539 -0.000891356 1.01998e-23)
(-0.00179545 -0.000796586 -1.93766e-23)
(-0.00266585 0.00219658 0)
(-0.00311386 0.0012718 -1.25517e-23)
(-0.00305895 0.0010496 -1.06368e-23)
(-0.0024705 0.0025644 0)
(-6.09635e-05 -0.000104449 -8.29341e-24)
(-0.000102861 -0.000213286 1.95005e-24)
(-0.000105003 -0.000372595 -3.25079e-24)
(-0.000324543 -0.000734223 -7.63938e-25)
(-0.000169354 -0.000599975 -1.83881e-24)
(-9.30132e-05 -0.000500963 4.14995e-25)
(-0.000427507 -0.00077367 6.07261e-24)
(-0.000174105 -0.000382147 -1.4068e-24)
(-0.000138302 -0.000400598 1.45527e-24)
(-9.52522e-05 -0.000624148 -3.36655e-24)
(-0.00014073 -0.000571448 -4.87188e-24)
(-0.00012931 -0.000538612 0)
(-0.000250881 -0.000655917 0)
(-0.000560097 -0.000658766 0)
(-0.000646139 -0.000951484 1.71729e-23)
(-0.000841251 -0.00130163 5.69351e-23)
(-0.000415688 -0.000608076 0)
(0.00498035 0.00095221 -7.82432e-24)
(0.00494688 0.000325183 -5.95817e-23)
(0.00510488 0.00185649 -5.97312e-23)
(0.00453655 0.00290881 3.08156e-23)
(0.00473269 -0.00162129 -7.67263e-23)
(0.00345595 -0.00209745 -5.75098e-23)
(0.00283697 -0.00295191 -9.08259e-23)
(0.00520348 -0.000696289 5.10703e-23)
(0.00248778 0.00479165 -1.82826e-23)
(0.00316079 0.00417036 1.24678e-23)
(0.00425312 0.00353942 0)
(-0.000825905 -0.00148839 -5.01501e-23)
(-0.00049172 -0.00279898 1.05815e-23)
(-0.00100662 -0.0022149 -1.65657e-23)
(0.000428415 -0.00313411 0)
(-0.000264952 -0.00308924 -2.3642e-23)
(0.00159394 -0.00345852 -6.6695e-23)
(0.0020586 -0.00343538 3.54989e-23)
(-0.000445969 0.00560086 0)
(-0.00103693 0.00444551 -9.85885e-24)
(-0.00197934 0.00444747 1.27902e-23)
(0.00210388 0.00543908 6.32398e-24)
(0.000954368 0.0057973 -2.47315e-24)
(-5.97603e-05 0.0060689 0)
(-0.00263077 0.00398899 0)
(-0.00331617 0.0003292 0)
(-0.00297303 -0.000273767 0)
(-0.00268852 -0.000595787 -6.41131e-23)
(-0.00211627 -0.000968315 -2.18887e-23)
(-0.000962002 -0.00122484 6.44439e-24)
(-0.00157554 -0.00120381 1.49003e-23)
(-0.000570445 -0.000996048 1.10488e-24)
(-0.00315887 0.00214903 0)
(-0.0034798 0.00170048 2.74886e-23)
(-0.00334949 0.000758598 1.16942e-23)
(-0.00295034 0.00348108 1.95565e-23)
(-4.30032e-05 -0.000349285 1.90111e-24)
(-3.83466e-05 -0.000223097 0)
(-3.79868e-05 -0.000348659 -2.74593e-24)
(-0.000231334 -0.000773361 -5.99172e-24)
(-8.15069e-05 -0.000577556 -4.0273e-24)
(-0.000138947 -0.000684463 -1.41396e-24)
(-4.33311e-05 -0.000528719 -5.88799e-25)
(-0.000416449 -0.0009544 -1.0372e-24)
(-8.49936e-05 -0.00103583 7.6243e-25)
(-0.000103992 -0.000532648 -3.09636e-24)
(-0.00019967 -0.000523784 -1.6325e-24)
(-0.000144652 -0.00043611 0)
(-0.000253439 -0.000571159 -2.6211e-24)
(-0.000661904 -0.000525614 -9.41387e-24)
(-0.000867771 -0.000757384 -2.85081e-23)
(-0.00118398 -0.00119776 1.01145e-24)
(-0.000413824 -0.000524666 0)
(0.00514564 0.000610231 0)
(0.00524553 -8.64332e-05 0)
(0.00573886 0.00192454 7.47966e-23)
(0.00520243 0.00334245 0)
(0.00508297 -0.00194601 1.03935e-22)
(0.00402664 -0.00257554 -2.04287e-23)
(0.00336171 -0.00324268 1.84959e-22)
(0.00555075 -0.00182269 -3.30705e-23)
(0.00251118 0.00524055 0)
(0.00365455 0.00473497 0)
(0.00444948 0.00424767 0)
(-0.00118497 -0.00172069 0)
(-0.00093165 -0.0025856 -2.40608e-23)
(-0.00125668 -0.00199001 1.48735e-23)
(0.000660428 -0.00365447 -5.7755e-23)
(-0.000307843 -0.00348403 0)
(0.0010734 -0.0039653 6.05321e-23)
(0.00259129 -0.00368009 2.28788e-23)
(-0.00106137 0.0058584 0)
(-0.00124866 0.00507112 7.2771e-24)
(-0.00220072 0.00456701 0)
(0.00204307 0.00619867 1.65102e-24)
(0.00119026 0.00656021 3.55076e-24)
(-5.32267e-05 0.0068402 1.57756e-24)
(-0.00307227 0.00434832 0)
(-0.00368242 -0.00020953 -1.48827e-23)