/*--------------------------------*- C++ -*----------------------------------*\
| =========                 |                                                 |
| \\      /  F ield         | OpenFOAM: The Open Source CFD Toolbox           |
|  \\    /   O peration     | Version:  v2012                                 |
|   \\  /    A nd           | Website:  www.openfoam.com                      |
|    \\/     M anipulation  |                                                 |
\*---------------------------------------------------------------------------*/
FoamFile
{
    version     2.0;
    format      ascii;
    class       volVectorField;
    location    "1";
    object      U;
}
// * * * * * * * * * * * * * * * * * * * * * * * * * * * * * * * * * * * * * //

dimensions      [0 1 -1 0 0 0 0];


internalField   nonuniform List<vector> 
11941
(
(1.00004 8.30883e-05 -4.53033e-24)
(1.00006 0.000192579 1.59231e-24)
(1.0001 0.00017414 6.11803e-24)
(1.0001 0.000345085 -3.09896e-25)
(1.00002 7.4264e-05 0)
(1.00011 0.000334094 -2.41219e-24)
(1.00006 4.58284e-05 1.05723e-23)
(1.00008 0.00037625 -9.84983e-25)
(1.00013 0.000391649 2.19995e-24)
(1.00004 0.000203193 -1.08172e-25)
(1.00018 0.000354946 0)
(1.00012 0.000135274 -4.46416e-24)
(1.00012 0.000483374 1.08902e-24)
(1.00006 0.000309081 -1.41195e-24)
(1.00016 0.000411219 0)
(1.00001 7.98754e-05 9.54297e-25)
(1.0002 0.000343084 0)
(1.00012 0.000190072 0)
(1.00017 0.00046806 0)
(1.00006 0.000490533 -4.51332e-26)
(1.00008 0.00039897 -4.90234e-25)
(1.00018 0.000482546 0)
(1.00003 0.000225851 -9.50805e-25)
(1.00019 0.00031913 -1.00575e-23)
(1.00026 0.000453024 0)
(1.0001 4.50412e-05 0)
(1.00016 0.000538228 0)
(1.00005 0.000501184 -6.16165e-25)
(1.00004 0.000357129 2.2046e-24)
(1.00021 0.000508823 0)
(1 0.000107468 3.2265e-24)
(1.00023 0.000313926 3.52485e-24)
(1.0003 0.000427206 0)
(1.00014 0.000191296 -8.76248e-24)
(1.00013 0.000563437 -2.52396e-25)
(1.00008 0.000542967 5.58517e-25)
(1.00001 0.000505834 1.54427e-24)
(1.00001 0.000401766 -3.62616e-24)
(1.00025 0.000527516 7.4935e-24)
(0.999974 0.000210218 -3.73464e-24)
(1.00016 0.000246329 5.54581e-25)
(1.00027 0.000381265 4.4388e-24)
(1.00036 0.000429089 0)
(1.00016 5.19229e-05 1.58715e-23)
(1.00015 0.00061988 2.20833e-24)
(1.00004 0.000576175 -2.78448e-24)
(1 0.000496517 0)
(1.00002 0.000375964 8.23269e-25)
(1.00032 0.000595519 1.46068e-24)
(1.00021 0.000650788 0)
(0.999994 4.73707e-05 -5.49886e-24)
(0.999996 0.000324079 -1.27561e-24)
(1.00021 0.000220247 0)
(1.00033 0.000311803 7.05546e-25)
(1.00037 0.000596944 -5.355e-24)
(1.00041 0.000410718 2.99321e-24)
(1.00026 -6.9993e-05 -1.60459e-23)
(1.00011 0.000685187 -1.8242e-24)
(1.00003 0.000678783 1.57332e-24)
(0.999981 0.000545819 1.89814e-24)
(0.999999 0.000495718 0)
(1.00032 0.000637443 -5.41511e-24)
(1.00023 0.000701296 1.10633e-23)
(0.999993 0.000209257 8.93172e-24)
(0.999974 0.00032131 -4.8412e-24)
(1.00024 0.000229453 0)
(1.0004 0.000287719 -7.04963e-25)
(1.00041 0.000621318 8.69598e-24)
(1.00044 0.00041523 -2.86941e-24)
(1.00053 0.000569315 -1.30175e-23)
(1.00019 -8.09736e-06 0)
(1.00011 0.000806672 -1.46377e-24)
(0.999949 0.000668962 -2.14506e-24)
(0.999929 0.0005813 0)
(0.999901 0.000485932 6.32546e-24)
(1.0004 0.000882601 1.09588e-23)
(1.00026 0.00084977 -2.59633e-24)
(0.999979 0.000105281 -2.62992e-24)
(0.999938 0.000360892 6.00697e-24)
(1.00028 0.000183612 0)
(1.00038 0.000183259 0)
(1.00054 0.000813136 -1.75765e-23)
(1.00052 0.000322082 0)
(1.00064 0.000513621 -1.5026e-24)
(1.0002 8.126e-05 5.81152e-24)
(1.00007 0.000884751 5.45694e-25)
(0.999924 0.00060138 0)
(0.999956 0.0008781 4.12317e-24)
(0.999871 0.000535317 -1.55343e-23)
(0.999895 0.000452534 3.87093e-24)
(1.0003 0.000879885 -9.41995e-24)
(0.999935 0.000217619 0)
(0.999936 0.000366324 -7.765e-24)
(1.00022 0.000166381 1.20492e-23)
(1.00047 0.000227614 2.62932e-23)
(1.00063 0.000832863 2.05212e-24)
(1.00064 0.000412591 -1.26049e-23)
(1.00075 0.000703805 2.38868e-23)
(1.0003 -0.000165585 9.32815e-24)
(1.0001 0.00101002 -1.0289e-24)
(0.99984 0.00070606 -3.47837e-24)
(0.999831 0.000852397 -3.1267e-24)
(0.999791 0.000498685 1.40168e-23)
(0.999897 0.000449656 -1.31234e-23)
(1.00028 0.000967117 5.15881e-24)
(0.999964 7.34053e-05 0)
(0.999931 0.000311048 6.48445e-24)
(1.0003 7.42262e-05 -1.31453e-23)
(1.00052 0.000153918 -1.14888e-23)
(1.00062 0.000905372 3.64148e-25)
(1.00073 0.000335005 -1.47295e-24)
(1.00095 0.000642223 -3.48517e-23)
(1.00025 -2.50192e-05 7.23203e-24)
(0.999999 0.0011558 9.9676e-25)
(0.999722 0.00067576 7.5853e-24)
(0.999792 0.000879019 0)
(0.999724 0.000502118 -3.83147e-24)
(0.999798 0.000445326 0)
(0.999834 0.000412655 7.47804e-24)
(1.00046 0.00103455 -1.05789e-23)
(0.999918 0.000167038 3.09918e-24)
(0.999899 0.00032087 -8.46701e-24)
(1.00018 3.26056e-05 -1.0354e-23)
(1.00041 6.79695e-05 2.81171e-24)
(1.00064 0.00020304 1.15292e-24)
(1.00084 0.00107259 1.04887e-23)
(1.00057 0.00107683 1.29237e-23)
(1.00086 0.000361962 8.73171e-24)
(1.00094 0.000500472 0)
(1.00101 0.000825837 3.26405e-23)
(1.00035 -0.000352003 -1.90046e-24)
(1.00006 0.00142622 0)
(0.999785 0.00117085 4.76385e-24)
(0.999654 0.000790017 -1.39058e-23)
(0.999669 0.000805079 9.23391e-24)
(0.999672 0.000498655 1.09123e-23)
(0.999726 0.000399165 0)
(0.999864 0.000351663 -1.12854e-24)
(1.0004 0.00148891 0)
(0.999915 0.000266618 2.19987e-23)
(0.999943 3.97108e-05 -2.82631e-24)
(1.00026 -1.28501e-05 -3.73433e-24)
(1.00044 3.31229e-05 1.07173e-23)
(1.00073 9.49356e-05 1.4327e-24)
(1.00104 0.000954172 -1.01993e-23)
(1.00086 0.00135994 -6.15816e-24)
(1.00065 0.00143858 0)
(1.0009 0.00016032 3.50313e-23)
(1.00107 0.000469453 0)
(1.00122 0.000655823 1.58124e-23)
(1.00022 -0.000328481 2.03659e-23)
(0.999902 0.00153366 3.69798e-25)
(0.99967 0.00119756 -7.83017e-25)
(0.999517 0.000669724 1.28095e-24)
(0.999509 0.00106471 -1.53463e-23)
(0.999598 0.000497745 0)
(0.999648 0.000348669 0)
(0.999777 0.000310324 1.45188e-24)
(0.999812 0.000316518 -1.26546e-23)
(1.00053 0.00146565 0)
(0.999884 0.000263668 -2.41436e-23)
(0.999897 0.00015091 1.06533e-23)
(1.00038 -3.6392e-05 -7.8675e-24)
(1.00051 -8.95496e-06 -1.35547e-23)
(1.00059 3.23423e-05 0)
(1.00083 0.000111928 1.55585e-24)
(1.00131 0.00117308 -1.82614e-23)
(1.00103 0.00156429 3.07911e-26)
(1.0012 0.000255567 -2.93431e-23)
(1.00146 0.000623871 2.1766e-23)
(1.00014 0.000164222 -1.99787e-23)
(0.999975 0.00186315 -3.56942e-25)
(0.999638 0.00145298 7.89801e-24)
(0.999382 0.000616276 -1.11628e-23)
(0.999298 0.00104048 7.78566e-24)
(0.999489 0.000348501 0)
(0.999628 0.000257169 -1.64002e-23)
(0.99972 0.00025804 -1.44232e-23)
(0.999857 0.000271011 1.16523e-23)
(1.00052 0.00180323 1.4457e-23)
(0.999868 0.00016768 1.22673e-23)
(1.00035 -9.18807e-05 0)
(1.00047 -0.000115171 2.10481e-23)
(1.00067 -0.000121886 0)
(1.00094 3.16941e-05 -1.92314e-23)
(1.00126 0.00151328 9.5852e-24)
(1.00157 0.00106453 3.02953e-23)
(1.00093 0.00179243 -1.92204e-23)
(1.00134 0.00018858 -4.39391e-23)
(1.0015 0.000230798 4.43837e-23)
(1.00157 0.000870703 -5.49127e-23)
(1.00053 -0.000405292 1.01795e-23)
(1.00016 7.67262e-05 1.64292e-23)
(0.999687 0.00205494 -8.98098e-25)
(1.0003 0.00196169 -4.71569e-24)
(0.99938 0.00156125 -1.53446e-23)
(0.999327 0.000386112 -8.11827e-25)
(0.99927 0.000758465 2.03391e-23)
(0.999176 0.00113917 -1.31091e-23)
(0.999542 0.000281382 4.42179e-25)
(0.999682 0.000229915 1.4656e-23)
(0.999784 0.000233024 1.75806e-23)
(0.999798 0.000249331 -3.84339e-24)
(0.999879 0.000174586 1.0395e-24)
(0.9999 -3.97445e-07 -4.82202e-25)
(1.00035 -0.000141038 -2.968e-23)
(1.00053 -0.000204095 0)
(1.0008 -0.000187286 0)
(1.00108 -0.000120269 0)
(1.00148 0.00174068 -1.34871e-23)
(1.00183 0.0012805 7.44192e-24)
(1.00104 0.00225896 -1.8612e-23)
(1.00131 5.59819e-05 4.39088e-23)
(1.00179 0.000294393 -4.72701e-23)
(1.0018 0.000618386 3.35095e-23)
(1.00041 -0.000921335 -2.55278e-23)
(1.00011 -0.000227376 0)
(0.999725 0.00252575 -2.31003e-25)
(0.999418 0.0019374 8.10506e-24)
(1.00044 0.0024732 -2.05143e-24)
(0.999162 0.00148958 0)
(0.999183 0.000306075 0)
(0.99903 0.000641813 -2.48076e-23)
(0.998947 0.001008 1.41315e-23)
(0.999492 0.000198684 -1.37878e-23)
(0.999658 0.000178913 0)
(0.999769 0.000190795 0)
(0.999855 0.000188636 1.27865e-23)
(0.999883 0.000168109 -1.00983e-23)
(0.999881 8.61444e-05 1.78648e-23)
(1.00035 -0.000291403 1.95367e-23)
(1.0005 -0.000270887 1.64574e-23)
(1.00081 -0.000211821 0)
(1.00105 -0.000272475 0)
(1.00181 0.00152231 -2.87146e-23)
(1.00155 0.00234675 2.9572e-23)
(1.0021 0.00114883 -4.18803e-23)
(1.00083 0.00253038 -8.37364e-24)
(1.00147 -0.000239271 -2.71483e-23)
(1.00196 0.000110133 4.58466e-23)
(1.00209 0.00079824 -3.36992e-23)
(1.00015 -0.000387682 9.51586e-24)
(1.00005 -0.000185843 0)
(1.00007 0.00268065 -1.85243e-24)
(0.999383 0.0027502 1.47946e-24)
(0.999112 0.002034 5.84246e-24)
(0.998922 0.00156041 -1.80546e-23)
(0.999196 0.000158493 -5.29596e-24)
(0.999034 0.000430668 0)
(0.998861 0.000921329 0)
(0.998663 0.00127587 0)
(0.999596 7.54692e-05 1.73369e-23)
(0.999332 9.18873e-05 0)
(0.999723 0.000128173 8.91251e-24)
(0.999827 0.00015898 -9.68051e-24)
(0.999844 0.000131516 -8.26535e-24)
(0.999846 -1.45766e-05 0)
(1.00039 -0.000345526 -1.5451e-23)
(1.00058 -0.000301654 -1.93911e-23)
(1.00068 -0.0002943 0)
(1.00087 -0.000365609 0)
(1.0012 -0.000386584 -1.88233e-23)
(1.00209 0.00199341 3.10221e-23)
(1.00179 0.00233817 -1.27407e-23)
(1.00244 0.00136256 5.54076e-23)
(1.00105 0.00305458 1.01069e-23)
(1.00179 -0.000179523 -3.54123e-23)
(1.00134 -0.000327794 4.93109e-23)
(1.00232 0.000265621 0)
(1.00237 0.000577546 4.46215e-23)
(1.00034 -0.00101622 9.43735e-24)
(1.00024 -0.000234626 8.52351e-24)
(1.00021 0.00332467 2.25141e-24)
(0.999331 0.00319229 -2.11736e-24)
(0.99908 0.00255725 1.90315e-24)
(0.998826 0.001852 1.80487e-23)
(0.998985 5.00563e-05 9.07366e-24)
(0.999303 5.38167e-05 0)
(0.998827 0.000387285 -2.06317e-23)
(0.998623 0.000688743 0)
(0.998346 0.001295 1.22457e-23)
(0.999608 1.63697e-05 0)
(0.999441 -0.000143824 -3.9917e-23)
(0.99973 9.12227e-05 -8.74046e-24)
(0.99981 0.000142603 -8.46163e-24)
(0.999879 0.000137269 0)
(0.999875 8.98957e-05 0)
(1.00036 -0.00037067 1.47318e-23)
(1.00053 -0.000441114 2.55862e-24)
(1.00067 -0.000475816 -1.6502e-23)
(1.00084 -0.000440348 0)
(1.00111 -0.00064359 -4.6193e-23)
(1.00266 0.00193105 0)
(1.00195 0.00271376 0)
(1.00273 0.00107299 0)
(1.0006 0.00339317 0)
(1.00156 0.00318864 0)
(1.00192 -0.000526424 -2.56027e-23)
(1.00144 -0.000504849 6.12524e-23)
(1.0025 -8.99205e-05 3.84399e-23)
(1.0027 0.000780612 -5.00944e-23)
(1.0001 -0.000662618 -2.23375e-23)
(0.999681 0.00344529 0)
(0.998896 0.00348054 9.45052e-24)
(0.998601 0.00257173 -1.14616e-23)
(0.998451 0.00204229 0)
(0.998971 -0.000245622 0)
(0.998746 0.000312578 1.91366e-23)
(0.999205 -0.000192715 1.45592e-23)
(0.998346 0.000627583 2.89688e-23)
(0.998214 0.00113225 -6.25736e-23)
(0.998171 0.00164761 0)
(0.999704 -4.95154e-06 0)
(0.999583 -0.000111995 2.49632e-23)
(0.999386 -0.000240767 0)
(0.999787 7.68654e-05 8.47618e-24)
(0.99985 6.83728e-05 0)
(0.999784 -7.57235e-05 0)
(1.00035 -0.000445603 -2.81437e-23)
(1.0006 -0.000463312 1.27096e-23)
(1.0004 -0.000458102 2.56102e-23)
(1.00087 -0.000641333 1.18031e-23)
(1.00125 -0.00064956 2.66154e-23)
(1.00285 0.00194647 3.01679e-23)
(1.00262 0.00290772 6.12101e-23)
(1.0032 0.00158203 0)
(1.00076 0.0043421 -2.18212e-24)
(1.00172 0.00390021 1.47583e-24)
(1.0018 -0.000681136 -7.11542e-25)
(1.00232 -0.0003921 3.26737e-23)
(1.00147 -0.000819572 -4.10514e-23)
(1.00295 -6.22668e-05 3.40961e-23)
(1.00303 0.000571541 -4.52564e-24)
(1.00012 -0.000270072 -1.47111e-23)
(0.999662 0.00424368 0)
(0.998732 0.00405304 -9.58991e-24)
(0.998558 0.00339314 0)
(0.998406 0.00234786 -2.07531e-24)
(0.998667 -0.000213526 -2.51799e-23)
(0.99907 -0.000290539 -1.2127e-23)
(0.998517 8.05343e-05 0)
(0.99824 0.000426549 1.97634e-23)
(0.997844 0.000988408 1.73276e-23)
(0.99771 0.00180448 0)
(0.99974 -3.77682e-05 -9.04985e-24)
(0.99965 -0.00017804 2.53486e-23)
(0.999414 -0.000371739 9.58057e-24)
(0.999804 4.51277e-05 0)
(0.9999 8.38767e-05 0)
(0.999864 2.84867e-05 0)
(1.00011 -0.000406761 1.69369e-23)
(1.00063 -0.000606028 -9.02354e-24)
(1.00038 -0.000558227 -3.85538e-24)
(1.00074 -0.000659502 4.3482e-24)
(1.00116 -0.000877443 0)
(1.00305 0.00233231 -5.56858e-23)
(1.00276 0.00332344 -5.21697e-23)
(1.00369 0.00118128 3.73244e-23)
(1 0.00460201 2.42469e-24)
(1.00131 0.00446367 -1.4566e-24)
(1.00239 0.00395614 0)
(1.00194 -0.00107117 2.77882e-23)
(1.00256 -0.000765075 1.64335e-24)
(1.00137 -0.000965216 4.59494e-23)
(1.00333 -0.000203964 -8.10333e-23)
(1.00342 0.000750016 -4.8116e-23)
(1.00037 -0.00119234 7.9033e-24)
(0.998242 0.00457233 1.01373e-23)
(0.997724 0.0033625 -3.03884e-23)
(0.998044 0.00247592 1.74065e-23)
(0.998554 -0.000510986 6.87628e-23)
(0.9991 -0.000468632 0)
(0.998266 0.000200859 0)
(0.997902 0.000561918 -2.12316e-23)
(0.997548 0.001167 -2.93468e-23)
(0.997468 0.00149932 0)
(0.997663 0.00211312 -1.471e-23)
(0.999703 -0.000153473 -1.01136e-23)
(0.999784 -3.73114e-05 -8.82027e-24)
(0.999606 -0.000249665 0)
(0.999602 -0.000436684 0)
(0.999364 -0.000589917 -1.16879e-23)
(0.999881 -1.91675e-05 -1.6406e-23)
(0.999725 -0.00019884 -1.40343e-23)
(1.00014 -0.00036892 0)
(1.00043 -0.000656602 8.04972e-24)
(1.00017 -0.00052431 1.66771e-23)
(1.00073 -0.000683106 -2.28039e-23)
(1.00097 -0.000882729 -2.2597e-23)
(1.00383 0.00246281 -1.21447e-23)
(1.00348 0.00368464 9.37981e-23)
(1.00417 0.00137089 -1.23209e-23)
(0.999709 0.00540497 9.6004e-24)
(1.0015 0.0052893 -1.35995e-23)
(1.00265 0.00487284 0)
(1.0017 -0.00132312 -2.79682e-23)
(1.00233 -0.00107431 -1.2523e-22)
(1.00303 -0.0007809 0)
(1.00136 -0.00122866 -3.49187e-23)
(1.00371 0.000198841 0)
(1.00342 -0.000403625 4.10591e-23)
(1.00026 -0.000681001 -8.65436e-24)
(0.998664 0.00538088 -1.40056e-23)
(0.997474 0.00450343 1.62387e-23)
(0.997453 0.00319871 5.21915e-23)
(0.998195 -0.000459894 -6.33816e-23)
(0.998741 -0.000642511 -4.49077e-23)
(0.998938 -0.000638241 2.23291e-23)
(0.998062 -0.000125184 -1.10709e-24)
(0.997611 0.00029855 -6.40941e-23)
(0.997125 0.000676331 7.23849e-23)
(0.996885 0.00149685 5.08294e-23)
(0.997252 0.00265418 -4.18418e-23)
(0.999784 -0.000173858 0)
(0.99983 -6.89936e-05 2.5577e-23)
(0.999717 -0.000315534 -1.01114e-23)
(0.999629 -0.000483641 -1.46332e-24)
(0.999365 -0.000568364 0)
(0.999924 2.18149e-05 0)
(0.999839 -4.35069e-05 0)
(1.00038 -0.000656247 -4.13164e-24)
(1.0002 -0.000565013 -3.40155e-23)
(1.00056 -0.000760838 -3.03941e-23)
(1.0008 -0.000867162 2.12151e-23)
(1.00092 -0.00122618 -2.47062e-23)
(1.00433 0.00196976 -4.49841e-23)
(1.00399 0.00329553 -7.77868e-23)
(1.00354 0.00439772 -2.20811e-23)
(1.00452 0.000558399 3.28612e-23)
(1.00018 0.00619356 -1.16236e-23)
(1.00104 0.00608732 1.81173e-23)
(1.0024 0.00533215 0)
(1.00176 -0.00154778 9.09919e-24)
(1.00235 -0.00155152 1.34565e-22)
(1.00304 -0.00135229 9.77847e-23)
(1.00115 -0.00140271 0)
(1.00421 0.00020155 -5.35866e-25)
(1.00375 -0.000882527 -3.24545e-23)
(1.0003 -0.00139359 -1.23869e-23)
(0.998182 0.0064934 8.85789e-24)
(0.997147 0.00357288 -4.5571e-23)
(0.996952 0.00503637 0)
(0.997967 -0.000706975 -2.49343e-23)
(0.998687 -0.000927365 3.79506e-23)
(0.999162 -0.0010451 0)
(0.997633 6.916e-05 7.15579e-23)
(0.996703 0.000511533 2.955e-23)
(0.996521 0.00127212 -6.37258e-23)
(0.996547 0.00253484 5.08901e-23)
(0.999784 -0.000272017 0)
(0.999821 -0.000135938 0)
(0.999754 -0.00046587 9.76631e-24)
(0.999626 -0.000676314 -1.80698e-23)
(0.999428 -0.00103238 0)
(0.999493 -0.000772195 5.94867e-23)
(0.999917 -0.00015296 0)
(0.999683 -0.000329292 1.42533e-23)
(1.00032 -0.000602142 3.15988e-23)
(1.00043 -0.000745949 1.97617e-23)
(1.00019 -0.000816476 2.24222e-23)
(1.00051 -0.000965637 -8.79455e-24)
(1.00071 -0.00099071 4.35678e-23)
(1.00065 -0.00120777 4.64906e-23)
(1.00507 0.0022002 6.97275e-23)
(1.00487 0.00350899 6.59718e-24)
(1.00439 0.00532932 0)
(1.00528 0.000560283 -3.94026e-23)
(0.999595 0.00695675 4.8966e-24)
(1.00165 0.00707018 -2.90118e-24)
(1.00302 0.00594967 2.12404e-23)
(1.00149 -0.00198092 -7.69655e-24)
(1.00211 -0.00167555 -2.83096e-23)
(1.00287 -0.0015615 -7.13162e-23)
(1.00372 -0.00124287 -6.75842e-23)
(1.00113 -0.00137559 0)
(1.00439 -0.000437124 -5.37464e-24)
(0.996972 0.00615686 -1.83506e-23)
(0.998582 0.00693391 -1.27675e-23)
(0.996313 0.00360646 0)
(0.995874 0.00466694 -1.93393e-23)
(0.997565 -0.00057276 -8.16806e-23)
(0.998163 -0.000999965 6.18e-23)
(0.999044 -0.00117519 -2.11613e-25)
(0.998476 -0.00113261 -4.17153e-23)
(0.997378 -0.000398715 2.81734e-23)
(0.996476 0.000761201 -5.09997e-23)
(0.996756 -0.000136334 0)
(0.995975 0.00202826 1.99202e-23)
(0.996173 0.00243032 -7.8892e-23)
(0.999843 -0.000281287 0)
(0.999833 -0.000219691 0)
(0.999838 -0.000474923 0)
(0.999793 -0.00070031 -1.23492e-24)
(0.999577 -0.000969185 6.52576e-23)
(1.00004 -9.00719e-05 1.53556e-23)
(0.999831 -0.000136118 -1.03316e-23)
(1.00024 -0.00073156 -1.39573e-23)
(1.00037 -0.000810593 0)
(1.00015 -0.0014768 -1.00904e-23)
(1.00033 -0.000961267 2.21523e-23)
(1.00069 -0.00102321 -4.83519e-23)
(1.00065 -0.00127235 9.66404e-24)
(1.00537 0.0029241 1.17266e-22)
(1.00562 0.00170976 -5.71324e-23)
(1.00533 0.00488626 -1.24855e-23)
(1.00391 0.00579219 -5.85079e-23)
(1.00576 -0.000175075 -1.40152e-23)
(1.00001 0.00820978 -7.16417e-25)
(1.00121 0.00805016 3.81929e-24)
(1.00267 0.00706967 -2.13356e-23)
(1.00164 -0.00228061 -2.11281e-23)
(1.0009 -0.00198121 0)
(1.00187 -0.00229418 -2.48357e-24)
(1.00301 -0.00198424 2.96204e-23)
(1.00376 -0.00210841 1.05772e-22)
(1.00084 -0.00148991 0)
(1.00493 -0.00105787 5.51086e-23)
(0.995948 0.00660781 2.17344e-24)
(0.998012 0.0085822 -2.26494e-23)
(0.995846 0.00307278 5.74982e-23)
(0.995011 0.0047314 5.83215e-23)
(0.997375 -0.00111344 1.74597e-23)
(0.997901 -0.00134521 0)
(0.999034 -0.00134319 5.42921e-23)
(0.998541 -0.00136623 3.47073e-23)
(0.995835 0.000708545 0)
(0.996314 -0.000485865 5.31954e-23)
(0.995306 0.00153046 -4.33386e-23)
(0.999884 -0.000294386 2.07665e-24)
(0.999895 -0.000417432 -2.34101e-24)
(0.999843 -0.000604093 -1.33874e-24)
(0.999826 -0.000824428 0)
(0.999596 -0.000949931 -3.4966e-23)
(0.999988 -6.88349e-05 -1.4198e-23)
(0.99962 -0.000512614 9.64205e-24)
(1.00018 -0.000716318 1.19081e-23)
(1.00036 -0.000799981 1.16067e-23)
(1.00018 -0.000837217 1.12357e-23)
(1.00034 -0.00091984 -9.77905e-24)
(1.00051 -0.00100447 2.47143e-23)
(1.00057 -0.00149084 2.32622e-23)
(1.00042 -0.00121274 -1.62999e-23)
(1.00643 0.00327355 -6.82229e-23)
(1.00649 0.00174249 3.41428e-23)
(1.00622 0.00514542 0)
(1.00466 0.00702411 6.50001e-23)
(1.00571 -0.000714325 -7.73385e-23)
(1.00685 0.000759086 1.57722e-23)
(0.999253 0.00917381 -5.70826e-24)
(1.00184 0.00959803 -4.33499e-24)
(1.00343 0.00788831 6.02223e-23)
(1.00148 -0.00261382 0)
(1.00089 -0.00175974 0)
(1.00251 -0.00240919 -6.54926e-23)
(1.00345 -0.00221987 -6.2702e-23)
(1.00458 -0.00188179 -6.64964e-23)
(0.995787 0.00792725 6.18052e-23)
(0.994749 0.00573671 -1.10777e-22)
(0.996817 0.00882812 1.73067e-23)
(0.99497 0.00304921 -5.72731e-23)
(0.994438 0.00430473 -3.5331e-23)
(0.996988 -0.00134874 0)
(0.997913 -0.00160688 -3.98263e-23)
(0.999314 -0.00147771 -5.05776e-23)
(0.998761 -0.0015021 0)
(0.998432 -0.0017582 -4.09619e-23)
(0.995564 0.000151837 0)
(0.99581 -0.000293752 0)
(0.996569 -0.00120332 -5.68882e-23)
(0.9947 0.00175132 6.7012e-23)
(0.99996 -0.000161309 0)
(0.999906 -0.000508193 0)
(0.999955 -0.000606347 -1.1454e-24)
(0.999757 -0.000933321 -5.54007e-24)
(0.999986 -0.000810807 1.68852e-23)
(0.999596 -0.00119926 -1.54937e-23)
(0.999832 -0.000271304 0)
(1.0002 -0.000839756 0)
(1.00031 -0.000881813 0)
(1.00018 -0.00185162 -1.28085e-23)
(1.00039 -0.000951993 1.51782e-23)
(1.00032 -0.000931515 1.94977e-23)
(1.00045 -0.00102527 -1.08794e-23)
(1.00045 -0.00150002 0)
(1.00037 -0.00115554 -1.13819e-23)
(1.00695 0.0044664 -1.12412e-23)
(1.00703 0.00195221 -4.14735e-23)
(1.00653 0.00656429 1.07292e-23)
(1.00585 0.0073002 0)
(1.00642 -0.00145935 1.28693e-22)
(1.00778 0.000176526 3.90865e-23)
(0.999576 0.0100203 0)
(1.00124 0.0103085 0)
(1.00331 0.00919815 -5.31739e-23)
(1.00096 -0.00240244 0)
(1.00165 -0.0031036 -3.73775e-23)
(1.00073 -0.00191212 -3.52105e-23)
(1.00258 -0.00284277 8.8813e-23)
(1.00326 -0.00292388 5.82388e-23)
(1.00507 -0.00260409 9.2914e-23)
(0.994359 0.00813692 -4.08962e-23)
(0.993643 0.00606854 3.37465e-23)
(0.996453 0.0104548 2.62284e-23)
(0.994543 0.00237057 2.66387e-23)
(0.99353 0.00381234 3.68578e-23)
(0.997142 -0.00216236 0)
(0.99775 -0.00233092 3.81074e-23)
(0.999227 -0.00175612 0)
(0.99958 -0.00144135 0)
(0.998799 -0.00184323 0)
(0.998512 -0.0019534 4.80033e-23)
(0.994726 0.000205371 0)
(0.995527 -0.0010426 1.32043e-23)
(0.996047 -0.00145436 -1.14769e-23)
(0.99424 0.00100526 -6.77247e-23)
(0.999979 -0.000413717 0)
(0.999909 -0.000511069 -1.93723e-23)
(0.999952 -0.00065993 0)
(0.999914 -0.00103832 -1.88456e-23)
(1.00004 -0.000823723 -3.18721e-23)
(0.99986 -0.0012236 0)
(0.99972 -0.000639818 0)
(1.0002 -0.000714222 0)
(1.00023 -0.000988079 0)
(1.00031 -0.000981911 -1.67887e-23)
(1.00023 -0.000923687 -2.03645e-23)
(1.00034 -0.00110553 -1.1003e-23)
(1.00031 -0.00133817 1.84685e-23)
(1.00034 -0.0017167 3.43396e-23)
(1.00036 -0.00121142 0)
(1.00811 0.00441104 5.57263e-23)
(1.00857 0.0029517 1.24458e-23)
(1.00802 0.00653604 1.25316e-22)
(1.00629 0.00917345 -6.77975e-24)
(1.00749 -0.000992206 -1.92493e-23)
(1.00618 -0.00237042 0)
(1.009 0.000756063 1.06587e-22)
(0.99877 0.0119362 -7.29871e-24)
(1.00174 0.011413 -7.10653e-24)
(1.00461 0.0101017 -3.542e-23)
(1.00075 -0.00216988 -3.26382e-23)
(1.00069 -0.00287147 0)
(1.0022 -0.00316511 -4.17147e-23)
(1.00137 -0.00336713 5.34509e-23)
(1.00367 -0.00342711 6.5909e-23)
(1.00456 -0.00334521 -1.2591e-23)
(0.993796 0.00982856 -3.35754e-23)
(0.993555 0.00712836 4.33587e-23)
(0.992732 0.005445 5.78788e-23)
(0.997387 0.0119321 0)
(0.994414 0.0106516 -3.41694e-23)
(0.993649 0.00287204 9.18684e-23)
(0.992671 0.0042346 -1.12271e-22)
(0.996688 -0.0026282 3.04424e-23)
(0.997933 -0.00240848 -2.50458e-23)
(0.998975 -0.00192416 -3.28412e-23)
(0.999518 -0.00204608 -2.2046e-23)
(0.999829 -0.00165718 2.41597e-23)
(0.998418 -0.00230469 -1.02741e-22)
(0.994341 -0.00059822 0)
(0.994823 -0.0011836 3.05208e-23)
(0.996013 -0.00215424 -4.36956e-23)
(0.993217 0.00106519 7.89565e-23)
(1.00014 -0.000320658 -1.28807e-23)
(0.999936 -0.000546847 0)
(1.00005 -0.000638556 0)
(1.00005 -0.00103684 -8.8088e-24)
(1.00008 -0.000919996 3.39619e-23)
(1.0001 -0.000777083 -3.29526e-23)
(0.999944 -0.00130431 0)
(0.999881 -0.000401667 0)
(1.00021 -0.00082084 8.35048e-24)
(1.0003 -0.0019686 1.37821e-23)
(1.00028 -0.000975607 -6.1075e-24)
(1.00022 -0.00101578 -1.73562e-23)
(1.00025 -0.00106798 7.35033e-24)
(1.00017 -0.00127595 -1.96567e-23)
(1.00014 -0.00162127 0)
(1.00021 -0.00111819 0)
(1.00867 0.00500255 -1.18719e-22)
(1.00965 0.00210677 -2.21061e-22)
(1.00926 0.00903338 -6.66106e-23)
(1.00792 0.0098425 6.23787e-23)
(1.00831 -0.00200193 -5.45429e-23)
(1.00685 -0.00325281 -4.07694e-23)
(1.00991 -0.000327254 -3.15267e-23)
(0.99993 0.0126174 1.47492e-23)
(1.00302 0.0130478 0)
(1.00441 0.0122245 3.97797e-23)
(1.00028 -0.00225367 3.8963e-23)
(1.00092 -0.00323469 0)
(1.0003 -0.00269279 -2.96244e-23)
(1.00237 -0.00393442 0)
(1.00127 -0.00399051 -3.28866e-23)
(1.00309 -0.00405837 0)
(1.00511 -0.00429654 -1.73035e-22)
(0.992137 0.00912995 8.20618e-23)
(0.992244 0.00784262 -2.11155e-23)
(0.991437 0.00584616 -8.80233e-23)
(0.996509 0.0131599 3.47657e-25)
(0.993381 0.0123984 3.61765e-24)
(0.992766 0.00206839 -8.96741e-23)
(0.991653 0.00306043 1.34203e-22)
(0.996745 -0.00317048 1.41292e-24)
(0.998007 -0.00310078 -1.22842e-22)
(0.999168 -0.00244503 3.58683e-23)
(0.999864 -0.00199098 3.63579e-23)
(0.999407 -0.00242295 1.92436e-24)
(1.00011 -0.00158169 -2.49305e-23)
(0.998827 -0.00257757 4.34371e-23)
(0.993373 -0.000573102 0)
(0.994708 -0.00205865 3.78632e-23)
(0.995306 -0.00249077 2.8135e-23)
(0.992782 0.000305826 0)
(1.00006 -0.000288435 2.74092e-23)
(0.999986 -0.000471455 -7.00478e-24)
(1.00007 -0.00067039 1.48506e-23)
(1.0002 -0.00115594 1.27658e-24)
(1.00016 -0.000918841 8.05045e-24)
(1.00014 -0.000776327 -3.41372e-24)
(1.00008 -0.00127322 -1.71467e-23)
(0.999741 -0.000887851 3.39077e-24)
(1.00023 -0.00068886 -7.54992e-24)
(1.00029 -0.00104835 -2.21276e-23)
(1.00018 -0.000945998 1.35235e-23)
(1.00015 -0.000887476 0)
(1.00023 -0.00106788 0)
(1.00012 -0.00115221 0)
(1.00006 -0.00143605 -2.18777e-23)
(1.00001 -0.00187359 -6.99888e-23)
(1.00016 -0.00109248 0)
(1.01043 0.00558255 2.14821e-23)
(1.01113 0.00281661 1.45621e-22)
(1.01111 0.00817393 1.73993e-22)
(1.00807 0.0112241 -8.72427e-23)
(1.00958 -0.00155743 1.58214e-22)
(1.00788 -0.00306412 1.09607e-22)
(1.00631 -0.00428138 1.53896e-22)
(1.01145 0.000244108 -1.11774e-22)
(1.00015 0.014312 2.58756e-23)
(1.00226 0.0139569 -2.02323e-23)
(1.00612 0.0131538 0)
(0.999971 -0.00207226 6.2167e-23)
(1.00038 -0.00361323 -1.32471e-23)
(0.999858 -0.00297585 2.08497e-23)
(1.00184 -0.00425608 0)
(1.00076 -0.00411184 3.1995e-23)
(1.00341 -0.00491964 1.025e-22)
(1.00448 -0.00516278 -5.36114e-23)
(0.990764 0.0105793 0)
(0.991087 0.00708058 8.32527e-23)
(0.99032 0.00401547 -7.89656e-23)
(0.997203 0.0155607 1.01344e-23)
(0.994443 0.013432 -1.20521e-23)
(0.991287 0.0119669 0)
(0.991682 0.0024915 0)
(0.996147 -0.00360843 0)
(0.997262 -0.00339477 0)
(0.997817 -0.00344922 1.40389e-22)
(0.998823 -0.00307616 4.78311e-23)
(1.00003 -0.00204195 -1.29975e-23)
(0.999526 -0.00266676 -3.22226e-23)
(1.00021 -0.00162123 -2.82222e-24)
(0.993045 -0.00172712 0)
(0.993852 -0.00232899 -8.33696e-23)
(0.995347 -0.00335488 -3.0932e-23)
(0.991671 0.000106598 -7.58248e-23)
(0.99999 -0.000721897 -1.8943e-23)
(1.0001 -0.00044833 0)
(1.00012 -0.000666796 1.67879e-23)
(1.00028 -0.00111978 1.77214e-23)
(1.00019 -0.00085679 2.17177e-23)
(1.00028 -0.000996411 4.76583e-24)
(1.00012 -0.000772252 3.50755e-24)
(1.00028 -0.00145788 2.64935e-24)
(1.0003 -0.00178554 5.83333e-24)
(1.00026 -0.00091554 1.22302e-23)
(1.00017 -0.000929625 5.29286e-24)
(1.00018 -0.000793982 0)
(1.00014 -0.000996053 5.80904e-24)
(1.00004 -0.00104742 1.19701e-23)
(0.999891 -0.00124125 3.58198e-23)
(0.999679 -0.00175729 1.36586e-26)
(1.00009 -0.00101875 0)
(1.01154 0.00433088 0)
(1.01217 0.0015482 0)
(1.01286 0.00887038 -2.17583e-22)
(1.01049 0.0128551 0)
(1.0106 -0.00259132 -2.14319e-22)
(1.00862 -0.00420105 3.68561e-23)
(1.00687 -0.00543682 -3.18254e-22)
(1.01225 -0.00208897 7.3544e-23)
(0.998939 0.0158889 0)
(1.0033 0.0169654 0)
(1.00629 0.0157259 0)
(0.999583 -0.00227954 0)
(0.9999 -0.00337843 2.88223e-23)
(0.999556 -0.00258429 -1.6256e-23)
(1.00165 -0.00527552 7.99946e-23)
(1.00039 -0.00484528 0)
(1.0026 -0.00565362 -8.37875e-23)
(1.00489 -0.00628026 -3.22448e-23)
(0.988794 0.0096737 0)
(0.989466 0.007458 -6.47006e-23)
(0.988953 0.0038956 0)
(0.995465 0.0166739 5.86431e-24)
(0.993408 0.0157361 5.46718e-23)
(0.990019 0.013867 -6.64076e-23)
(0.990797 0.00179751 0)
(0.99637 -0.00456331 3.29618e-23)
(0.997328 -0.00439264 -1.05597e-22)
(0.998316 -0.00413728 -2.08046e-23)
(0.999049 -0.00321687 9.44801e-23)
(1.00025 -0.00189908 -7.59544e-23)
(1.00029 -0.0024532 8.08423e-23)
(0.999436 -0.00304006 -4.24624e-23)
(1.00001 -0.00263236 0)
(1.00027 -0.0017483 4.80901e-25)
(0.991927 -0.001909 3.26458e-23)
(0.993795 -0.00371461 -4.25753e-23)
(0.994762 -0.00433355 3.83146e-23)
(0.991256 -0.00120149 3.88044e-23)
(1.00007 -0.000417253 1.58654e-23)
(1.00013 -0.000520013 -1.46028e-23)
(1.00011 -0.00076966 -1.60403e-23)
(1.00045 -0.00114427 0)
(1.00023 -0.000851077 -2.18068e-23)
(1.00034 -0.000958493 1.36374e-23)
(1.00019 -0.000772664 -4.16998e-24)
(1.00047 -0.00136198 -2.93708e-23)
(1.00011 -0.00130481 0)
(1.00022 -0.000752448 -1.42033e-23)
(1.00015 -0.000964473 -1.27709e-23)
(1.00012 -0.000953393 0)
(1.00002 -0.000953707 -2.24138e-23)
(0.999894 -0.00112588 -2.63226e-23)
(0.999596 -0.0015162 0)
(0.999495 -0.00186478 5.2556e-23)
(1.00006 -0.000913254 0)
(1.01369 0.00510722 -6.39804e-23)
(1.01405 0.001233 -1.39253e-22)
(1.01459 0.00695469 2.30716e-22)
(1.0134 0.0114114 3.54063e-23)
(1.00853 0.0157523 -8.12053e-23)
(1.01222 0.0131104 0)
(1.01207 -0.0023318 0)
(1.00997 -0.00403126 -2.37335e-22)
(1.00791 -0.00542265 2.28553e-22)
(1.00599 -0.00639998 -1.04793e-22)
(1.01484 -0.000545972 -9.05991e-24)
(0.999838 0.0181327 0)
(1.00505 0.0172675 0)
(0.99932 -0.00386368 -2.07269e-23)
(0.998896 -0.00281891 2.16634e-23)
(1.00098 -0.00545215 3.70172e-23)
(0.999453 -0.00446146 -1.33956e-23)
(1.0029 -0.00652978 -1.49715e-22)
(1.00395 -0.00699543 8.58831e-23)
(0.987145 0.00999875 -7.94601e-23)
(0.988432 0.00601832 6.42056e-23)
(0.988086 0.00302615 -3.33961e-23)
(0.995307 0.0182982 1.48068e-23)
(0.991395 0.0157665 -3.38349e-23)
(0.98764 0.0137199 7.89575e-23)
(0.989633 0.000770152 0)
(0.995875 -0.0050337 0)
(0.997748 -0.0045965 5.27269e-23)
(0.9989 -0.00411071 -6.56468e-23)
(0.999272 -0.00378111 -6.02542e-23)
(1.00058 -0.00215946 2.97348e-23)
(1.00054 -0.00237195 2.35775e-23)
(0.999902 -0.00352766 -1.20977e-23)
(1.00046 -0.00312115 1.79518e-23)
(1.00056 -0.00165701 -1.9566e-23)
(0.991621 -0.00312942 -7.47397e-23)
(0.992645 -0.00415436 5.85643e-23)
(0.994887 -0.00484326 -1.05366e-22)
(0.989879 -0.000860531 0)
(0.99984 -0.00103918 -1.38183e-23)
(1.00013 -0.000427792 1.9426e-23)
(1.00018 -0.000687146 -1.54275e-23)
(1.0005 -0.00109148 1.92558e-23)
(1.00024 -0.000849899 -4.79982e-25)
(1.00029 -0.000878469 4.17337e-24)
(1.00044 -0.000991614 1.96491e-24)
(1.00017 -0.000676459 -1.53284e-23)
(1.00064 -0.00139428 1.57814e-23)
(1.00024 -0.000757325 0)
(1.00013 -0.000866717 0)
(1.00015 -0.000921788 0)
(1.00008 -0.000914038 0)
(1.00008 -0.000935712 0)
(1.00003 -0.000856896 6.22976e-24)
(0.999856 -0.000965491 1.76812e-23)
(0.999549 -0.00114647 -1.40046e-23)
(0.999072 -0.00181766 -5.26778e-23)
(1.00008 -0.000899631 2.39389e-24)
(1.01511 0.00235855 -1.30628e-23)
(1.01702 0.00691865 -3.22776e-22)
(1.01646 0.0113512 -1.49826e-23)
(1.00962 0.0186179 7.75585e-23)
(1.01329 0.0152393 1.28232e-24)
(1.01255 -0.00488126 6.11263e-23)
(1.01107 -0.00542107 1.06008e-22)
(1.00884 -0.00647079 0)
(1.00612 -0.00849621 -1.23811e-22)
(1.01638 -0.00306806 -2.71803e-22)
(0.999206 0.0197996 0)
(1.00528 0.0200637 0)