/*--------------------------------*- C++ -*----------------------------------*\
| =========                 |                                                 |
| \\      /  F ield         | OpenFOAM: The Open Source CFD Toolbox           |
|  \\    /   O peration     | Version:  v2012                                 |
|   \\  /    A nd           | Website:  www.openfoam.com                      |
|    \\/     M anipulation  |                                                 |
\*---------------------------------------------------------------------------*/
FoamFile
{
    version     2.0;
    format      ascii;
    class       volVectorField;
    location    "1";
    object      U_0;
}
// * * * * * * * * * * * * * * * * * * * * * * * * * * * * * * * * * * * * * //

dimensions      [0 1 -1 0 0 0 0];


internalField   nonuniform List<vector> 
11941
(
(1.00004 8.30831e-05 -4.53047e-24)
(1.00006 0.000192576 1.59233e-24)
(1.0001 0.000174137 6.11822e-24)
(1.0001 0.000345052 -3.0992e-25)
(1.00002 7.42585e-05 0)
(1.00011 0.000334061 -2.41228e-24)
(1.00006 4.58261e-05 1.05726e-23)
(1.00008 0.000376204 -9.85048e-25)
(1.00013 0.000391594 2.20003e-24)
(1.00004 0.00020319 -1.08328e-25)
(1.00018 0.000354903 0)
(1.00012 0.000135269 -4.46433e-24)
(1.00012 0.000483299 1.08899e-24)
(1.00006 0.000309055 -1.41188e-24)
(1.00016 0.000411152 0)
(1.00001 7.98705e-05 9.54737e-25)
(1.0002 0.000343033 0)
(1.00012 0.00019006 0)
(1.00017 0.000467982 0)
(1.00006 0.000490457 -4.50707e-26)
(1.00008 0.000398918 -4.90476e-25)
(1.00018 0.000482472 0)
(1.00003 0.000225844 -9.51057e-25)
(1.00019 0.000319089 -1.00579e-23)
(1.00026 0.000452957 0)
(1.0001 4.50439e-05 0)
(1.00016 0.000538143 0)
(1.00005 0.000501098 -6.16314e-25)
(1.00004 0.00035709 2.20505e-24)
(1.00021 0.000508746 0)
(1 0.00010746 3.22695e-24)
(1.00023 0.000313881 3.52499e-24)
(1.0003 0.000427143 0)
(1.00014 0.000191279 -8.76282e-24)
(1.00013 0.000563347 -2.52395e-25)
(1.00008 0.000542874 5.5878e-25)
(1.00001 0.000505752 1.5446e-24)
(1.00001 0.000401707 -3.62679e-24)
(1.00025 0.000527437 7.49391e-24)
(0.999974 0.000210213 -3.73517e-24)
(1.00016 0.000246293 5.54609e-25)
(1.00027 0.000381211 4.43904e-24)
(1.00036 0.00042903 0)
(1.00016 5.19183e-05 1.58721e-23)
(1.00015 0.00061979 2.20828e-24)
(1.00004 0.000576079 -2.78516e-24)
(1 0.00049643 0)
(1.00002 0.000375909 8.23397e-25)
(1.00032 0.000595442 1.46084e-24)
(1.00021 0.000650697 0)
(0.999994 4.73669e-05 -5.49952e-24)
(0.999996 0.000324043 -1.27577e-24)
(1.00021 0.000220213 0)
(1.00033 0.000311761 7.05588e-25)
(1.00037 0.000596871 -5.35532e-24)
(1.00041 0.000410669 2.99343e-24)
(1.00026 -6.99834e-05 -1.60464e-23)
(1.00011 0.000685086 -1.82426e-24)
(1.00003 0.000678678 1.57375e-24)
(0.999981 0.000545722 1.89848e-24)
(0.999999 0.000495634 0)
(1.00032 0.000637363 -5.41544e-24)
(1.00023 0.000701203 1.10639e-23)
(0.999993 0.00020925 8.93277e-24)
(0.999974 0.000321271 -4.84176e-24)
(1.00024 0.000229423 0)
(1.0004 0.000287682 -7.05005e-25)
(1.00041 0.000621253 8.69663e-24)
(1.00044 0.000415184 -2.86961e-24)
(1.00053 0.000569259 -1.30185e-23)
(1.00019 -8.09316e-06 0)
(1.00011 0.000806566 -1.46373e-24)
(0.999949 0.000668855 -2.1455e-24)
(0.999929 0.000581193 0)
(0.999901 0.000485847 6.32624e-24)
(1.0004 0.000882501 1.09596e-23)
(1.00026 0.000849662 -2.59646e-24)
(0.999979 0.000105274 -2.63021e-24)
(0.999938 0.000360835 6.00768e-24)
(1.00028 0.000183585 0)
(1.00038 0.000183233 0)
(1.00054 0.000813048 -1.75777e-23)
(1.00052 0.000322049 0)
(1.00064 0.000513574 -1.50274e-24)
(1.0002 8.12486e-05 5.81171e-24)
(1.00007 0.00088463 5.45446e-25)
(0.999923 0.000601275 0)
(0.999956 0.000877976 4.12388e-24)
(0.999871 0.000535216 -1.55361e-23)
(0.999895 0.000452446 3.87139e-24)
(1.0003 0.000879775 -9.42059e-24)
(0.999935 0.000217605 0)
(0.999936 0.000366261 -7.76589e-24)
(1.00022 0.000166355 1.20499e-23)
(1.00047 0.000227594 2.62951e-23)
(1.00063 0.000832772 2.05227e-24)
(1.00064 0.000412557 -1.26059e-23)
(1.00075 0.000703741 2.38888e-23)
(1.0003 -0.000165566 9.32835e-24)
(1.0001 0.00100989 -1.02888e-24)
(0.99984 0.000705946 -3.47878e-24)
(0.999831 0.000852267 -3.12714e-24)
(0.999791 0.000498581 1.40184e-23)
(0.999897 0.000449571 -1.31249e-23)
(1.00028 0.000966994 5.15917e-24)
(0.999964 7.33999e-05 0)
(0.999931 0.000311005 6.4852e-24)
(1.0003 7.42157e-05 -1.31461e-23)
(1.00052 0.000153912 -1.14896e-23)
(1.00062 0.000905284 3.64178e-25)
(1.00073 0.00033499 -1.47313e-24)
(1.00095 0.000642172 -3.48547e-23)
(1.00025 -2.50198e-05 7.23251e-24)
(0.999999 0.00115565 9.96742e-25)
(0.999722 0.000675647 7.58618e-24)
(0.999792 0.000878878 0)
(0.999724 0.000502015 -3.83191e-24)
(0.999798 0.000445229 0)
(0.999834 0.000412568 7.4789e-24)
(1.00046 0.00103444 -1.05798e-23)
(0.999918 0.00016703 3.09947e-24)
(0.999899 0.00032081 -8.46794e-24)
(1.00018 3.25986e-05 -1.03545e-23)
(1.00041 6.79728e-05 2.8119e-24)
(1.00064 0.000203038 1.15306e-24)
(1.00084 0.0010725 1.04896e-23)
(1.00057 0.00107673 1.29248e-23)
(1.00086 0.000361947 8.7324e-24)
(1.00094 0.000500447 0)
(1.00101 0.000825788 3.26434e-23)
(1.00035 -0.000351965 -1.9005e-24)
(1.00006 0.00142604 0)
(0.999785 0.00117068 4.76447e-24)
(0.999654 0.000789877 -1.39074e-23)
(0.999669 0.000804937 9.23494e-24)
(0.999672 0.00049855 1.09136e-23)
(0.999726 0.000399073 0)
(0.999864 0.000351588 -1.12866e-24)
(1.0004 0.00148874 0)
(0.999915 0.000266581 2.20011e-23)
(0.999943 3.97072e-05 -2.82658e-24)
(1.00026 -1.28483e-05 -3.7345e-24)
(1.00044 3.31305e-05 1.07179e-23)
(1.00073 9.49473e-05 1.43288e-24)
(1.00104 0.000954108 -1.02002e-23)
(1.00086 0.00135982 -6.15869e-24)
(1.00065 0.00143845 0)
(1.0009 0.000160335 3.50343e-23)
(1.00107 0.000469442 0)
(1.00122 0.000655804 1.58138e-23)
(1.00022 -0.000328435 2.03665e-23)
(0.999902 0.00153346 3.69827e-25)
(0.99967 0.00119739 -7.83202e-25)
(0.999517 0.000669596 1.28106e-24)
(0.999509 0.00106454 -1.53479e-23)
(0.999598 0.000497639 0)
(0.999648 0.00034858 0)
(0.999777 0.000310245 1.45204e-24)
(0.999812 0.000316441 -1.2656e-23)
(1.00053 0.00146548 0)
(0.999884 0.000263619 -2.4146e-23)
(0.999897 0.000150894 1.06543e-23)
(1.00038 -3.63889e-05 -7.86795e-24)
(1.00051 -8.93459e-06 -1.35556e-23)
(1.00059 3.23593e-05 0)
(1.00083 0.000111949 1.55601e-24)
(1.00131 0.00117302 -1.8263e-23)
(1.00103 0.00156415 3.08003e-26)
(1.0012 0.000255585 -2.93456e-23)
(1.00146 0.000623859 2.17681e-23)
(1.00014 0.000164193 -1.99794e-23)
(0.999975 0.00186293 -3.57008e-25)
(0.999638 0.00145278 7.8987e-24)
(0.999382 0.000616135 -1.1164e-23)
(0.999298 0.0010403 7.78644e-24)
(0.999489 0.0003484 0)
(0.999628 0.000257089 -1.64019e-23)
(0.99972 0.000257966 -1.44248e-23)
(0.999857 0.000270948 1.16535e-23)
(1.00052 0.00180305 1.44583e-23)
(0.999868 0.000167656 1.22684e-23)
(1.00035 -9.18579e-05 0)
(1.00047 -0.000115146 2.10495e-23)
(1.00067 -0.000121854 0)
(1.00094 3.17297e-05 -1.9233e-23)
(1.00126 0.00151317 9.5861e-24)
(1.00157 0.00106448 3.02981e-23)
(1.00093 0.00179227 -1.92221e-23)
(1.00134 0.000188613 -4.39431e-23)
(1.0015 0.000230821 4.43879e-23)
(1.00157 0.000870665 -5.49178e-23)
(1.00053 -0.000405262 1.01794e-23)
(1.00016 7.67048e-05 1.64299e-23)
(0.999687 0.00205468 -8.98132e-25)
(1.0003 0.00196148 -4.71613e-24)
(0.99938 0.00156102 -1.5346e-23)
(0.999327 0.000385986 -8.11914e-25)
(0.99927 0.000758298 2.03413e-23)
(0.999176 0.00113897 -1.31104e-23)
(0.999542 0.000281292 4.42228e-25)
(0.999682 0.000229839 1.46576e-23)
(0.999784 0.000232958 1.75825e-23)
(0.999798 0.000249268 -3.84379e-24)
(0.999879 0.000174553 1.0396e-24)
(0.9999 -3.97541e-07 -4.8226e-25)
(1.00035 -0.000141016 -2.96817e-23)
(1.00053 -0.000204052 0)
(1.0008 -0.000187228 0)
(1.00108 -0.000120211 0)
(1.00148 0.00174057 -1.34884e-23)
(1.00183 0.00128041 7.44262e-24)
(1.00104 0.00225879 -1.86137e-23)
(1.00131 5.60379e-05 4.39127e-23)
(1.00179 0.000294433 -4.72746e-23)
(1.0018 0.000618391 3.35127e-23)
(1.00041 -0.000921227 -2.55273e-23)
(1.00011 -0.000227357 0)
(0.999725 0.00252548 -2.30992e-25)
(0.999418 0.00193713 8.10572e-24)
(1.00044 0.00247297 -2.05163e-24)
(0.999162 0.00148934 0)
(0.999183 0.000305951 0)
(0.99903 0.000641654 -2.48103e-23)
(0.998948 0.00100779 1.4133e-23)
(0.999492 0.000198607 -1.37893e-23)
(0.999658 0.000178844 0)
(0.99977 0.000190732 0)
(0.999855 0.000188587 1.27878e-23)
(0.999883 0.000168079 -1.00992e-23)
(0.999881 8.6136e-05 1.78665e-23)
(1.00035 -0.000291349 1.95378e-23)
(1.0005 -0.000270834 1.64585e-23)
(1.00081 -0.000211751 0)
(1.00105 -0.00027239 0)
(1.00181 0.00152221 -2.87173e-23)
(1.00155 0.00234656 2.95747e-23)
(1.0021 0.00114879 -4.18843e-23)
(1.00083 0.00253016 -8.37441e-24)
(1.00147 -0.000239163 -2.71509e-23)
(1.00196 0.000110223 4.58511e-23)
(1.00209 0.000798255 -3.37024e-23)
(1.00015 -0.000387636 9.5157e-24)
(1.00005 -0.000185817 0)
(1.00007 0.00268038 -1.85263e-24)
(0.999383 0.00274988 1.47952e-24)
(0.999112 0.00203372 5.84294e-24)
(0.998922 0.00156016 -1.80563e-23)
(0.999196 0.00015839 -5.29658e-24)
(0.999034 0.000430534 0)
(0.998861 0.000921132 0)
(0.998663 0.00127564 0)
(0.999597 7.54071e-05 1.73388e-23)
(0.999332 9.18055e-05 0)
(0.999723 0.000128113 8.91343e-24)
(0.999827 0.000158923 -9.68149e-24)
(0.999844 0.000131473 -8.26613e-24)
(0.999846 -1.45809e-05 0)
(1.00039 -0.000345462 -1.54517e-23)
(1.00058 -0.000301585 -1.93924e-23)
(1.00068 -0.000294229 0)
(1.00087 -0.000365522 0)
(1.0012 -0.000386471 -1.88251e-23)
(1.00209 0.00199326 3.1025e-23)
(1.00179 0.00233799 -1.27419e-23)
(1.00244 0.00136252 5.54129e-23)
(1.00105 0.0030543 1.01079e-23)
(1.00179 -0.000179411 -3.54157e-23)
(1.00134 -0.000327675 4.93156e-23)
(1.00232 0.000265696 0)
(1.00237 0.0005776 4.46257e-23)
(1.00034 -0.0010161 9.43711e-24)
(1.00024 -0.000234592 8.52379e-24)
(1.00021 0.00332433 2.25165e-24)
(0.999331 0.00319192 -2.11746e-24)
(0.99908 0.00255693 1.90325e-24)
(0.998826 0.00185172 1.80504e-23)
(0.998985 4.99509e-05 9.07472e-24)
(0.999303 5.37266e-05 0)
(0.998827 0.000387143 -2.0634e-23)
(0.998623 0.00068857 0)
(0.998347 0.00129475 1.22469e-23)
(0.999608 1.63195e-05 0)
(0.999441 -0.000143873 -3.99216e-23)
(0.99973 9.1169e-05 -8.74137e-24)
(0.999811 0.000142552 -8.46245e-24)
(0.999879 0.000137237 0)
(0.999875 8.98805e-05 0)
(1.00036 -0.000370609 1.47324e-23)
(1.00053 -0.000441027 2.55878e-24)
(1.00067 -0.000475727 -1.65033e-23)
(1.00084 -0.000440253 0)
(1.00111 -0.000643449 -4.61974e-23)
(1.00266 0.00193094 0)
(1.00195 0.00271355 0)
(1.00273 0.001073 0)
(1.0006 0.00339283 0)
(1.00156 0.00318837 0)
(1.00192 -0.00052628 -2.56053e-23)
(1.00144 -0.000504726 6.12585e-23)
(1.0025 -8.98054e-05 3.84439e-23)
(1.0027 0.000780639 -5.00992e-23)
(1.0001 -0.00066253 -2.23374e-23)
(0.99968 0.0034449 0)
(0.998896 0.00348009 9.45098e-24)
(0.998601 0.00257138 -1.14624e-23)
(0.998451 0.00204199 0)
(0.998971 -0.000245692 0)
(0.998746 0.000312448 1.91387e-23)
(0.999205 -0.000192778 1.45609e-23)
(0.998346 0.000627401 2.89718e-23)
(0.998214 0.00113199 -6.258e-23)
(0.998171 0.00164732 0)
(0.999704 -4.99728e-06 0)
(0.999583 -0.000112037 2.49661e-23)
(0.999386 -0.000240809 0)
(0.999787 7.68169e-05 8.477e-24)
(0.99985 6.83347e-05 0)
(0.999784 -7.57247e-05 0)
(1.00035 -0.000445521 -2.81451e-23)
(1.0006 -0.000463222 1.27106e-23)
(1.0004 -0.000458018 2.56114e-23)
(1.00087 -0.000641203 1.18042e-23)
(1.00125 -0.000649417 2.6618e-23)
(1.00285 0.0019464 3.01707e-23)
(1.00262 0.00290751 6.12156e-23)
(1.0032 0.00158199 0)
(1.00076 0.0043417 -2.18235e-24)
(1.00172 0.0038999 1.47597e-24)
(1.0018 -0.000680964 -7.11615e-25)
(1.00232 -0.000391937 3.26771e-23)
(1.00147 -0.000819404 -4.10554e-23)
(1.00295 -6.21507e-05 3.40995e-23)
(1.00303 0.000571568 -4.52608e-24)
(1.00012 -0.000270034 -1.47114e-23)
(0.999661 0.00424323 0)
(0.998731 0.00405258 -9.59038e-24)
(0.998558 0.00339269 0)
(0.998406 0.00234752 -2.07547e-24)
(0.998667 -0.000213615 -2.51829e-23)
(0.99907 -0.000290598 -1.21284e-23)
(0.998517 8.04158e-05 0)
(0.99824 0.000426349 1.97656e-23)
(0.997844 0.000988139 1.73294e-23)
(0.99771 0.00180411 0)
(0.99974 -3.78046e-05 -9.0508e-24)
(0.99965 -0.000178069 2.53513e-23)
(0.999414 -0.000371761 9.58173e-24)
(0.999804 4.50862e-05 0)
(0.9999 8.3847e-05 0)
(0.999864 2.84727e-05 0)
(1.00011 -0.000406694 1.69373e-23)
(1.00063 -0.000605923 -9.02419e-24)
(1.00038 -0.000558129 -3.85558e-24)
(1.00074 -0.000659367 4.34858e-24)
(1.00116 -0.000877272 0)
(1.00305 0.00233216 -5.56909e-23)
(1.00276 0.0033232 -5.21743e-23)
(1.00369 0.00118127 3.73279e-23)
(1 0.00460158 2.42496e-24)
(1.00131 0.0044633 -1.45673e-24)
(1.00239 0.00395584 0)
(1.00194 -0.00107095 2.77912e-23)
(1.00256 -0.000764856 1.64355e-24)
(1.00137 -0.000965032 4.59542e-23)
(1.00333 -0.000203788 -8.10415e-23)
(1.00342 0.000750062 -4.81205e-23)
(1.00037 -0.00119218 7.9031e-24)
(0.998242 0.00457181 1.01376e-23)
(0.997724 0.00336202 -3.03906e-23)
(0.998044 0.00247551 1.74079e-23)
(0.998554 -0.000511048 6.87711e-23)
(0.9991 -0.000468653 0)
(0.998266 0.000200695 0)
(0.997902 0.000561675 -2.12339e-23)
(0.997548 0.00116667 -2.93497e-23)
(0.997468 0.00149895 0)
(0.997663 0.0021127 -1.47112e-23)
(0.999704 -0.000153498 -1.01147e-23)
(0.999784 -3.73445e-05 -8.82113e-24)
(0.999606 -0.00024968 0)
(0.999602 -0.000436686 0)
(0.999365 -0.000589912 -1.16894e-23)
(0.999882 -1.91959e-05 -1.64075e-23)
(0.999725 -0.000198833 -1.40351e-23)
(1.00014 -0.000368866 0)
(1.00043 -0.000656488 8.0503e-24)
(1.00017 -0.000524235 1.6678e-23)
(1.00073 -0.000682963 -2.2806e-23)
(1.00097 -0.000882558 -2.25993e-23)
(1.00383 0.0024627 -1.21458e-23)
(1.00348 0.00368439 9.38061e-23)
(1.00417 0.0013709 -1.2322e-23)
(0.999709 0.00540448 9.60143e-24)
(1.0015 0.00528888 -1.36008e-23)
(1.00265 0.00487251 0)
(1.0017 -0.00132286 -2.79712e-23)
(1.00233 -0.00107408 -1.25243e-22)
(1.00303 -0.000780676 0)
(1.00136 -0.00122843 -3.49223e-23)
(1.00371 0.000198982 0)
(1.00342 -0.000403418 4.10632e-23)
(1.00026 -0.000680917 -8.65414e-24)
(0.998664 0.00538031 -1.40059e-23)
(0.997474 0.0045029 1.62397e-23)
(0.997453 0.00319821 5.21952e-23)
(0.998196 -0.000459991 -6.33891e-23)
(0.998741 -0.000642547 -4.49133e-23)
(0.998938 -0.000638255 2.23319e-23)
(0.998062 -0.000125347 -1.10703e-24)
(0.997611 0.000298317 -6.41007e-23)
(0.997125 0.000676049 7.23921e-23)
(0.996886 0.00149645 5.0834e-23)
(0.997252 0.0026537 -4.1845e-23)
(0.999784 -0.000173876 0)
(0.99983 -6.90176e-05 2.55794e-23)
(0.999717 -0.000315534 -1.01125e-23)
(0.999629 -0.000483632 -1.46349e-24)
(0.999365 -0.000568354 0)
(0.999924 2.17877e-05 0)
(0.999839 -4.35176e-05 0)
(1.00038 -0.000656128 -4.13189e-24)
(1.0002 -0.000564922 -3.40173e-23)
(1.00056 -0.000760705 -3.03965e-23)
(1.0008 -0.000867004 2.1217e-23)
(1.00092 -0.00122597 -2.4709e-23)
(1.00433 0.00196973 -4.4988e-23)
(1.00399 0.00329533 -7.77934e-23)
(1.00354 0.00439742 -2.2083e-23)
(1.00452 0.000558517 3.28642e-23)
(1.00018 0.006193 -1.16249e-23)
(1.00104 0.0060868 1.8119e-23)
(1.0024 0.00533175 0)
(1.00176 -0.00154749 9.10025e-24)
(1.00235 -0.00155122 1.3458e-22)
(1.00304 -0.001352 9.77954e-23)
(1.00115 -0.00140244 0)
(1.00421 0.000201717 -5.35961e-25)
(1.00375 -0.00088228 -3.24578e-23)
(1.0003 -0.00139339 -1.23867e-23)
(0.998182 0.00649271 8.85772e-24)
(0.997147 0.00357237 -4.55741e-23)
(0.996952 0.00503571 0)
(0.997967 -0.000707045 -2.49376e-23)
(0.998688 -0.000927357 3.79555e-23)
(0.999162 -0.00104506 0)
(0.997633 6.89599e-05 7.15658e-23)
(0.996704 0.000511229 2.95528e-23)
(0.996521 0.00127175 -6.37315e-23)
(0.996548 0.00253437 5.0894e-23)
(0.999784 -0.000272021 0)
(0.999821 -0.000135956 0)
(0.999754 -0.000465853 9.76741e-24)
(0.999626 -0.000676274 -1.80721e-23)
(0.999428 -0.00103233 0)
(0.999494 -0.000772153 5.94941e-23)
(0.999917 -0.000152972 0)
(0.999683 -0.000329275 1.4254e-23)
(1.00032 -0.00060204 3.16006e-23)
(1.00043 -0.000745815 1.97633e-23)
(1.00019 -0.000816344 2.2422e-23)
(1.00051 -0.000965478 -8.79534e-24)
(1.00071 -0.00099054 4.35719e-23)
(1.00065 -0.00120756 4.64955e-23)
(1.00507 0.0022002 6.97336e-23)
(1.00487 0.00350884 6.59769e-24)
(1.00439 0.005329 0)
(1.00528 0.000560406 -3.94064e-23)
(0.999594 0.0069561 4.89732e-24)
(1.00165 0.00706961 -2.90144e-24)
(1.00301 0.00594924 2.12421e-23)
(1.00148 -0.00198058 -7.69745e-24)
(1.00211 -0.00167522 -2.83127e-23)
(1.00287 -0.00156117 -7.1324e-23)
(1.00372 -0.00124257 -6.75913e-23)
(1.00113 -0.00137532 0)
(1.00439 -0.000436917 -5.37514e-24)
(0.996972 0.00615612 -1.83515e-23)
(0.998582 0.00693319 -1.27676e-23)
(0.996313 0.00360593 0)
(0.995874 0.00466629 -1.93404e-23)
(0.997565 -0.000572895 -8.16902e-23)
(0.998163 -0.00100002 6.18077e-23)
(0.999044 -0.00117514 -2.11642e-25)
(0.998476 -0.00113262 -4.17207e-23)
(0.997379 -0.00039888 2.81767e-23)
(0.996477 0.000760867 -5.10046e-23)
(0.996756 -0.000136574 0)
(0.995975 0.00202783 1.99219e-23)
(0.996173 0.00242985 -7.88981e-23)
(0.999843 -0.000281283 0)
(0.999833 -0.000219689 0)
(0.999838 -0.0004749 0)
(0.999793 -0.000700257 -1.23513e-24)
(0.999577 -0.000969131 6.52663e-23)
(1.00004 -9.00835e-05 1.5357e-23)
(0.999831 -0.000136121 -1.03321e-23)
(1.00024 -0.000731447 -1.39581e-23)
(1.00037 -0.000810457 0)
(1.00015 -0.00147658 -1.00903e-23)
(1.00033 -0.000961109 2.21543e-23)
(1.00069 -0.00102303 -4.83565e-23)
(1.00065 -0.00127214 9.66494e-24)
(1.00536 0.00292406 1.17276e-22)
(1.00562 0.00170981 -5.71375e-23)
(1.00533 0.00488601 -1.24865e-23)
(1.00391 0.00579182 -5.85123e-23)
(1.00576 -0.000174885 -1.40165e-23)
(1.00001 0.00820907 -7.16462e-25)
(1.00121 0.0080495 3.81961e-24)
(1.00267 0.00706913 -2.13374e-23)
(1.00164 -0.00228024 -2.11306e-23)
(1.0009 -0.00198089 0)
(1.00187 -0.0022938 -2.4838e-24)
(1.00301 -0.00198385 2.96237e-23)
(1.00376 -0.00210803 1.05784e-22)
(1.00084 -0.00148965 0)
(1.00493 -0.00105763 5.5114e-23)
(0.995948 0.006607 2.17363e-24)
(0.998011 0.00858138 -2.26493e-23)
(0.995846 0.00307228 5.75026e-23)
(0.995011 0.00473065 5.83248e-23)
(0.997376 -0.00111354 1.74618e-23)
(0.997902 -0.00134528 0)
(0.999034 -0.00134312 5.42999e-23)
(0.998542 -0.00136622 3.47121e-23)
(0.995835 0.000708136 0)
(0.996315 -0.000486116 5.32015e-23)
(0.995307 0.00153001 -4.33422e-23)
(0.999884 -0.000294375 2.07685e-24)
(0.999895 -0.00041741 -2.34124e-24)
(0.999843 -0.000604043 -1.33902e-24)
(0.999826 -0.000824342 0)
(0.999596 -0.00094985 -3.49707e-23)
(0.999988 -6.885e-05 -1.41992e-23)
(0.99962 -0.000512582 9.64251e-24)
(1.00018 -0.000716211 1.19088e-23)
(1.00036 -0.000799847 1.16076e-23)
(1.00018 -0.000837095 1.12354e-23)
(1.00034 -0.000919692 -9.77989e-24)
(1.00051 -0.00100431 2.47167e-23)
(1.00057 -0.00149061 2.32648e-23)
(1.00042 -0.00121256 -1.63017e-23)
(1.00643 0.00327351 -6.82287e-23)
(1.00649 0.00174255 3.41456e-23)
(1.00622 0.00514518 0)
(1.00466 0.00702368 6.50049e-23)
(1.00571 -0.000714068 -7.73461e-23)
(1.00685 0.000759218 1.57737e-23)
(0.999253 0.00917299 -5.70913e-24)
(1.00184 0.0095973 -4.33536e-24)
(1.00343 0.00788777 6.02269e-23)
(1.00148 -0.0026134 0)
(1.00089 -0.00175945 0)
(1.00251 -0.00240879 -6.55002e-23)
(1.00345 -0.00221948 -6.27088e-23)
(1.00457 -0.00188143 -6.65034e-23)
(0.995787 0.0079264 6.18081e-23)
(0.994749 0.00573588 -1.10782e-22)
(0.996817 0.00882728 1.73067e-23)
(0.994971 0.00304866 -5.72773e-23)
(0.994438 0.00430402 -3.53333e-23)
(0.996989 -0.00134886 0)
(0.997913 -0.00160691 -3.98317e-23)
(0.999314 -0.00147759 -5.05848e-23)
(0.998761 -0.00150204 0)
(0.998432 -0.00175819 -4.09675e-23)
(0.995564 0.000151451 0)
(0.99581 -0.000294079 0)
(0.996569 -0.00120349 -5.68947e-23)
(0.9947 0.00175081 6.70174e-23)
(0.999961 -0.000161318 0)
(0.999906 -0.000508143 0)
(0.999955 -0.000606293 -1.14576e-24)
(0.999757 -0.00093322 -5.54082e-24)
(0.999986 -0.000810716 1.68871e-23)
(0.999597 -0.00119914 -1.54958e-23)
(0.999832 -0.000271298 0)
(1.0002 -0.000839624 0)
(1.00031 -0.000881673 0)
(1.00018 -0.00185136 -1.28082e-23)
(1.00039 -0.000951845 1.51795e-23)
(1.00032 -0.000931379 1.94989e-23)
(1.00045 -0.00102512 -1.08805e-23)
(1.00045 -0.00149978 0)
(1.00037 -0.00115537 -1.13831e-23)
(1.00695 0.00446625 -1.12421e-23)
(1.00703 0.00195227 -4.1477e-23)
(1.00653 0.00656393 1.07299e-23)
(1.00585 0.00729977 0)
(1.00642 -0.00145902 1.28706e-22)
(1.00778 0.000176719 3.909e-23)
(0.999575 0.0100194 0)
(1.00124 0.0103077 0)
(1.00331 0.00919748 -5.3178e-23)
(1.00096 -0.002402 0)
(1.00165 -0.0031031 -3.73823e-23)
(1.00073 -0.00191178 -3.52149e-23)
(1.00258 -0.00284229 8.88237e-23)
(1.00326 -0.00292339 5.82454e-23)
(1.00507 -0.00260364 9.29239e-23)
(0.994359 0.00813605 -4.0898e-23)
(0.993644 0.00606766 3.37484e-23)
(0.996453 0.0104538 2.62291e-23)
(0.994544 0.00237003 2.66405e-23)
(0.99353 0.00381159 3.68602e-23)
(0.997142 -0.00216242 0)
(0.997751 -0.00233091 3.81126e-23)
(0.999228 -0.00175597 0)
(0.99958 -0.00144123 0)
(0.9988 -0.00184314 0)
(0.998512 -0.00195334 4.80103e-23)
(0.994726 0.000204938 0)
(0.995527 -0.00104288 1.32058e-23)
(0.996048 -0.00145456 -1.14782e-23)
(0.99424 0.0010048 -6.77305e-23)
(0.999979 -0.000413692 0)
(0.999909 -0.000511014 -1.93742e-23)
(0.999952 -0.000659862 0)
(0.999914 -0.0010382 -1.88482e-23)
(1.00004 -0.000823617 -3.18759e-23)
(0.99986 -0.00122347 0)
(0.99972 -0.000639764 0)
(1.0002 -0.000714113 0)
(1.00023 -0.00098794 0)
(1.00031 -0.000981768 -1.67902e-23)
(1.00023 -0.000923547 -2.03658e-23)
(1.00034 -0.00110538 -1.10041e-23)
(1.00031 -0.00133797 1.84707e-23)
(1.00034 -0.00171641 3.43439e-23)
(1.00036 -0.00121124 0)
(1.00811 0.00441089 5.57305e-23)
(1.00857 0.00295165 1.24468e-23)
(1.00802 0.00653567 1.25325e-22)
(1.00629 0.00917289 -6.7802e-24)
(1.00749 -0.000991893 -1.92511e-23)
(1.00618 -0.00236999 0)
(1.00899 0.000756196 1.06596e-22)
(0.998769 0.0119352 -7.30003e-24)
(1.00174 0.0114121 -7.10717e-24)
(1.00461 0.0101011 -3.54224e-23)
(1.00075 -0.0021695 -3.26426e-23)
(1.00069 -0.00287096 0)
(1.0022 -0.00316458 -4.17197e-23)
(1.00137 -0.00336657 5.34577e-23)
(1.00367 -0.00342655 6.59164e-23)
(1.00456 -0.00334465 -1.25923e-23)
(0.993796 0.00982757 -3.35766e-23)
(0.993555 0.00712747 4.33609e-23)
(0.992733 0.00544409 5.78823e-23)
(0.997387 0.011931 0)
(0.994414 0.0106505 -3.41703e-23)
(0.99365 0.00287139 9.18751e-23)
(0.992671 0.00423374 -1.12278e-22)
(0.996689 -0.00262831 3.04462e-23)
(0.997934 -0.00240844 -2.50494e-23)
(0.998975 -0.00192404 -3.28462e-23)
(0.999518 -0.00204589 -2.20495e-23)
(0.99983 -0.001657 2.41635e-23)
(0.998418 -0.00230458 -1.02756e-22)
(0.994341 -0.000598614 0)
(0.994823 -0.00118392 3.05241e-23)
(0.996014 -0.00215441 -4.3701e-23)
(0.993218 0.00106466 7.89632e-23)
(1.00014 -0.000320631 -1.28818e-23)
(0.999936 -0.000546788 0)
(1.00005 -0.000638485 0)
(1.00005 -0.00103671 -8.80995e-24)
(1.00008 -0.000919869 3.39662e-23)
(1.0001 -0.000776975 -3.29561e-23)
(0.999944 -0.00130416 0)
(0.999881 -0.000401632 0)
(1.00021 -0.000820713 8.35092e-24)
(1.0003 -0.00196833 1.37816e-23)
(1.00028 -0.000975471 -6.10796e-24)
(1.00022 -0.00101563 -1.73574e-23)
(1.00025 -0.00106784 7.35097e-24)
(1.00017 -0.00127578 -1.96591e-23)
(1.00014 -0.00162102 0)
(1.00021 -0.00111804 0)
(1.00867 0.00500232 -1.18728e-22)
(1.00965 0.00210675 -2.21079e-22)
(1.00925 0.00903288 -6.66152e-23)
(1.00791 0.00984193 6.23826e-23)
(1.00831 -0.00200154 -5.45482e-23)
(1.00685 -0.0032523 -4.07734e-23)
(1.00991 -0.000327016 -3.15296e-23)
(0.99993 0.0126164 1.47514e-23)
(1.00302 0.0130469 0)
(1.00441 0.0122237 3.97824e-23)
(1.00028 -0.00225331 3.89682e-23)
(1.00092 -0.00323413 0)
(1.0003 -0.00269235 -2.96287e-23)
(1.00237 -0.00393377 0)
(1.00127 -0.00398984 -3.2891e-23)
(1.00309 -0.00405772 0)
(1.00511 -0.00429587 -1.73054e-22)
(0.992137 0.00912891 8.20651e-23)
(0.992244 0.00784163 -2.11163e-23)
(0.991437 0.0058452 -8.80278e-23)
(0.996509 0.0131588 3.47973e-25)
(0.993381 0.0123972 3.61775e-24)
(0.992766 0.00206773 -8.96806e-23)
(0.991654 0.00305946 1.34211e-22)
(0.996746 -0.00317052 1.41312e-24)
(0.998008 -0.00310064 -1.22861e-22)
(0.999168 -0.00244484 3.58738e-23)
(0.999864 -0.00199076 3.63637e-23)
(0.999408 -0.00242274 1.92479e-24)
(1.00011 -0.00158149 -2.49343e-23)
(0.998828 -0.00257739 4.34436e-23)
(0.993373 -0.000573594 0)
(0.994709 -0.00205893 3.78674e-23)
(0.995306 -0.00249101 2.81385e-23)
(0.992782 0.000305253 0)
(1.00006 -0.000288412 2.74113e-23)
(0.999986 -0.000471408 -7.0053e-24)
(1.00007 -0.000670306 1.48521e-23)
(1.0002 -0.00115577 1.27678e-24)
(1.00016 -0.000918707 8.05141e-24)
(1.00014 -0.000776215 -3.41411e-24)
(1.00008 -0.00127305 -1.71492e-23)
(0.999741 -0.000887765 3.39109e-24)
(1.00023 -0.00068877 -7.55032e-24)
(1.00029 -0.00104821 -2.21268e-23)
(1.00018 -0.00094587 1.35245e-23)
(1.00015 -0.000887355 0)
(1.00023 -0.00106773 0)
(1.00012 -0.00115206 0)
(1.00006 -0.00143584 -2.18805e-23)
(1.00001 -0.0018733 -6.99988e-23)
(1.00016 -0.00109234 0)
(1.01043 0.00558234 2.14836e-23)
(1.01113 0.00281654 1.45632e-22)
(1.0111 0.00817351 1.74003e-22)
(1.00807 0.0112235 -8.7248e-23)
(1.00958 -0.00155707 1.58228e-22)
(1.00788 -0.00306365 1.09618e-22)
(1.00631 -0.00428072 1.53913e-22)
(1.01144 0.000244263 -1.11783e-22)
(1.00015 0.014311 2.5878e-23)
(1.00225 0.013956 -2.02339e-23)
(1.00612 0.013153 0)
(0.999971 -0.00207193 6.21759e-23)
(1.00038 -0.0036126 -1.3249e-23)
(0.999858 -0.00297535 2.08527e-23)
(1.00184 -0.00425538 0)
(1.00076 -0.00411115 3.19992e-23)
(1.00341 -0.00491887 1.02513e-22)
(1.00448 -0.00516202 -5.3618e-23)
(0.990764 0.0105781 0)
(0.991087 0.00707958 8.3257e-23)
(0.99032 0.00401447 -7.89703e-23)
(0.997202 0.0155595 1.01342e-23)
(0.994443 0.0134307 -1.20522e-23)
(0.991287 0.0119655 0)
(0.991683 0.00249061 0)
(0.996148 -0.00360851 0)
(0.997263 -0.00339471 0)
(0.997817 -0.00344909 1.4041e-22)
(0.998824 -0.00307594 4.78385e-23)
(1.00003 -0.00204167 -1.29998e-23)
(0.999526 -0.0026665 -3.22279e-23)
(1.00021 -0.00162101 -2.82266e-24)
(0.993046 -0.0017276 0)
(0.993853 -0.00232937 -8.33786e-23)
(0.995348 -0.00335505 -3.09358e-23)
(0.991671 0.000105819 -7.58313e-23)
(0.99999 -0.000721818 -1.89434e-23)
(1.0001 -0.00044828 0)
(1.00012 -0.000666718 1.67892e-23)
(1.00028 -0.00111961 1.7724e-23)
(1.00019 -0.00085666 2.172e-23)
(1.00028 -0.000996257 4.76648e-24)
(1.00012 -0.000772134 3.50788e-24)
(1.00028 -0.00145766 2.64976e-24)
(1.0003 -0.00178531 5.83314e-24)
(1.00026 -0.000915421 1.22308e-23)
(1.00017 -0.000929508 5.29313e-24)
(1.00018 -0.000793884 0)
(1.00014 -0.000995925 5.8095e-24)
(1.00004 -0.0010473 1.19716e-23)
(0.999892 -0.00124108 3.58245e-23)
(0.999679 -0.00175702 1.35439e-26)
(1.00009 -0.00101863 0)
(1.01154 0.00433075 0)
(1.01217 0.00154822 0)
(1.01286 0.00886995 -2.17596e-22)
(1.01049 0.0128543 0)
(1.0106 -0.00259088 -2.14339e-22)
(1.00862 -0.00420047 3.68599e-23)
(1.00687 -0.00543609 -3.18289e-22)
(1.01225 -0.00208856 7.35501e-23)
(0.998938 0.0158878 0)
(1.0033 0.0169644 0)
(1.00629 0.015725 0)
(0.999584 -0.00227916 0)
(0.9999 -0.00337785 2.88266e-23)
(0.999556 -0.00258385 -1.62586e-23)
(1.00165 -0.0052747 8.00052e-23)
(1.00039 -0.0048445 0)
(1.0026 -0.00565273 -8.37986e-23)
(1.00489 -0.00627943 -3.2249e-23)
(0.988795 0.00967239 0)
(0.989466 0.00745686 -6.47036e-23)
(0.988953 0.00389458 0)
(0.995465 0.0166726 5.86435e-24)
(0.993408 0.0157346 5.46728e-23)
(0.990019 0.0138655 -6.64094e-23)
(0.990797 0.00179654 0)
(0.996371 -0.00456326 3.29667e-23)
(0.997328 -0.00439252 -1.05613e-22)
(0.998317 -0.00413706 -2.08079e-23)
(0.99905 -0.00321662 9.44961e-23)
(1.00025 -0.00189881 -7.59672e-23)
(1.00029 -0.00245286 8.08561e-23)
(0.999436 -0.00303978 -4.24694e-23)
(1.00001 -0.00263203 0)
(1.00027 -0.00174803 4.8098e-25)
(0.991928 -0.00190959 3.26488e-23)
(0.993796 -0.00371496 -4.25803e-23)
(0.994763 -0.00433381 3.83191e-23)
(0.991257 -0.00120224 3.88076e-23)
(1.00007 -0.000417206 1.58656e-23)
(1.00013 -0.000519949 -1.46038e-23)
(1.00011 -0.000769543 -1.60416e-23)
(1.00045 -0.00114407 0)
(1.00023 -0.000850944 -2.18094e-23)
(1.00034 -0.000958336 1.36393e-23)
(1.00019 -0.000772537 -4.17037e-24)
(1.00047 -0.00136176 -2.93755e-23)
(1.00011 -0.00130464 0)
(1.00022 -0.000752349 -1.42039e-23)
(1.00015 -0.000964363 -1.27718e-23)
(1.00012 -0.000953283 0)
(1.00002 -0.000953616 -2.24165e-23)
(0.999895 -0.00112575 -2.63261e-23)
(0.999597 -0.00151598 0)
(0.999495 -0.00186447 5.25639e-23)
(1.00007 -0.000913168 0)
(1.01369 0.00510704 -6.39847e-23)
(1.01405 0.00123305 -1.39263e-22)
(1.01459 0.00695441 2.3073e-22)
(1.0134 0.0114108 3.54084e-23)
(1.00853 0.0157514 -8.12096e-23)
(1.01222 0.0131097 0)
(1.01207 -0.00233135 0)
(1.00997 -0.00403071 -2.37358e-22)
(1.00791 -0.00542196 2.28577e-22)
(1.00599 -0.00639918 -1.04805e-22)
(1.01484 -0.000545686 -9.06063e-24)
(0.999838 0.0181315 0)
(1.00504 0.0172664 0)
(0.99932 -0.00386297 -2.07301e-23)
(0.998896 -0.00281843 2.16667e-23)
(1.00098 -0.00545131 3.70224e-23)
(0.999453 -0.00446065 -1.33977e-23)
(1.0029 -0.00652879 -1.49734e-22)
(1.00395 -0.00699442 8.58937e-23)
(0.987145 0.00999727 -7.94633e-23)
(0.988432 0.00601719 6.42086e-23)
(0.988086 0.00302511 -3.3398e-23)
(0.995306 0.0182968 1.48071e-23)
(0.991394 0.015765 -3.38355e-23)
(0.98764 0.0137184 7.89596e-23)
(0.989633 0.000769153 0)
(0.995876 -0.00503365 0)
(0.997749 -0.00459631 5.27351e-23)
(0.998901 -0.00411041 -6.56583e-23)
(0.999272 -0.00378077 -6.02645e-23)
(1.00058 -0.00215912 2.97399e-23)
(1.00054 -0.00237158 2.35819e-23)
(0.999902 -0.00352723 -1.20998e-23)
(1.00046 -0.0031207 1.79552e-23)
(1.00056 -0.00165672 -1.95694e-23)
(0.991622 -0.00312996 -7.47474e-23)
(0.992646 -0.00415479 5.85703e-23)
(0.994888 -0.0048434 -1.0538e-22)
(0.98988 -0.000861383 0)
(0.99984 -0.00103906 -1.38186e-23)
(1.00013 -0.000427751 1.94273e-23)
(1.00018 -0.00068706 -1.54286e-23)
(1.0005 -0.0010913 1.92587e-23)
(1.00024 -0.000849763 -4.80145e-25)
(1.00029 -0.000878323 4.17384e-24)
(1.00044 -0.000991441 1.96521e-24)
(1.00017 -0.000676365 -1.53295e-23)
(1.00064 -0.001394 1.5784e-23)
(1.00024 -0.000757212 0)
(1.00013 -0.000866617 0)
(1.00015 -0.00092169 0)
(1.00008 -0.00091395 0)
(1.00008 -0.000935631 0)
(1.00003 -0.000856843 6.2305e-24)
(0.999856 -0.000965389 1.76836e-23)
(0.999549 -0.00114629 -1.40067e-23)
(0.999073 -0.00181734 -5.2686e-23)
(1.00008 -0.000899548 2.3941e-24)
(1.0151 0.00235854 -1.3063e-23)
(1.01702 0.00691835 -3.22796e-22)
(1.01646 0.0113506 -1.49833e-23)
(1.00961 0.0186167 7.75625e-23)
(1.01329 0.0152384 1.28239e-24)
(1.01255 -0.00488064 6.11322e-23)
(1.01107 -0.00542045 1.06018e-22)
(1.00884 -0.00647002 0)
(1.00612 -0.00849524 -1.23825e-22)
(1.01638 -0.00306761 -2.71825e-22)
(0.999205 0.0197983 0)