/*--------------------------------*- C++ -*----------------------------------*\
| =========                 |                                                 |
| \\      /  F ield         | OpenFOAM: The Open Source CFD Toolbox           |
|  \\    /   O peration     | Version:  v2012                                 |
|   \\  /    A nd           | Website:  www.openfoam.com                      |
|    \\/     M anipulation  |                                                 |
\*---------------------------------------------------------------------------*/
FoamFile
{
    version     2.0;
    format      ascii;
    class       surfaceVectorField;
    location    "1";
    object      Uf;
}
// * * * * * * * * * * * * * * * * * * * * * * * * * * * * * * * * * * * * * //

dimensions      [0 1 -1 0 0 0 0];


internalField   nonuniform List<vector> 
18781
(
(1.00005 0.000142867 -1.28705e-24)
(1.00006 0.00012991 1.54644e-22)
(1.00008 0.000266191 4.36213e-23)
(1.00004 0.00013641 8.16117e-25)
(1.00009 0.000247621 2.31406e-24)
(1.00008 0.000128835 8.19266e-24)
(1.00009 0.000355454 5.19354e-23)
(1.00011 0.000368383 8.77828e-25)
(1.00003 0.000137878 -5.43742e-26)
(1.00012 0.000352393 -7.02764e-23)
(1.00014 0.000336139 -1.05285e-24)
(1.00007 8.94803e-05 -1.22567e-22)
(1.0001 0.000428616 1.05789e-23)
(1.00007 0.000344432 -6.01932e-23)
(1.00015 0.000401471 9.92823e-25)
(1.00005 0.000261274 -1.18809e-24)
(1.00002 0.000145846 -2.48161e-23)
(1.00014 0.000257434 -2.22611e-24)
(1.00018 0.000348626 0)
(1.00011 0.000144154 -2.50253e-24)
(1.00014 0.000468484 5.49274e-25)
(1.00009 0.000486809 6.33021e-25)
(1.00007 0.000358508 -9.31629e-25)
(1.00016 0.000448437 0)
(1.00017 0.000441905 0)
(1.00002 0.000147796 -4.47254e-23)
(1.00019 0.000336457 -5.40558e-24)
(1.00022 0.000388237 0)
(1.00015 0.000259484 -5.37051e-24)
(1.0001 0.000141196 0)
(1.00017 0.000504018 0)
(1.00007 0.000441964 5.73097e-24)
(1.00006 0.000484874 -2.95273e-25)
(1.00006 0.000375314 6.24152e-23)
(1.00022 0.000454955 0)
(1.0002 0.000495511 0)
(1.00003 0.000294093 6.89642e-25)
(1.00002 0.00016576 1.07005e-24)
(1.0002 0.000310986 1.46262e-22)
(1.00027 0.000438192 0)
(1.00011 0.000108615 -4.25067e-24)
(1.0002 0.000540043 0)
(1.00015 0.000537644 -1.12908e-25)
(1.00006 0.000522336 -2.04602e-26)
(1.00002 0.000500062 3.64537e-23)
(1.00002 0.000378429 -5.53716e-23)
(1.00023 0.000519714 3.93521e-24)
(0.999989 0.000160713 -7.17761e-23)
(1.0002 0.00027675 7.73935e-24)
(1.00025 0.000347384 3.78781e-23)
(1.00028 0.000390394 2.5714e-24)
(1.00031 0.00043413 0)
(1.00015 0.00022347 -3.80979e-24)
(1.00015 0.000144981 -3.76037e-22)
(1.0001 0.000545741 1.5361e-25)
(1.00014 0.000594063 6.86239e-24)
(1.00005 0.000564576 9.33907e-23)
(1.00001 0.000458016 1.49312e-23)
(1 0.000505212 8.61716e-25)
(1.00001 0.000378861 4.07894e-23)
(1.00028 0.000555874 -1.5544e-22)
(1.00023 0.000609158 3.27391e-24)
(0.999986 0.000128702 -4.64442e-24)
(0.999991 0.000265092 -2.51604e-24)
(1.00019 0.000234213 2.70382e-25)
(1.0003 0.000348127 2.53352e-24)
(1.00037 0.000515174 -2.87697e-24)
(1.00039 0.000422598 1.65519e-24)
(1.00023 6.65282e-06 2.30854e-22)
(1.00018 0.000629315 9.40509e-25)
(1.00013 0.000652976 -8.5908e-24)
(1.00003 0.000627392 -6.10679e-25)
(1.00001 0.000568058 -1.04846e-22)
(0.999993 0.000519185 8.71761e-25)
(0.999999 0.000494247 0)
(1 0.000346701 -1.84058e-25)
(0.999998 0.000438842 4.19549e-25)
(1.00033 0.000560745 -5.08698e-22)
(1.00032 0.000625133 -2.65468e-24)
(1.00021 0.000676122 5.60492e-24)
(0.999994 0.00012373 9.58441e-24)
(0.999984 0.000332086 -4.56639e-23)
(1.00027 0.000263631 3.53805e-25)
(1.00022 0.000204747 0)
(1.00034 0.000299301 -1.6034e-23)
(1.0004 0.000610984 3.26153e-23)
(1.00042 0.000402795 -3.69095e-23)
(1.00047 0.00048758 -4.93125e-24)
(1.00012 -2.57518e-05 -9.19632e-24)
(1.00007 0.000674811 6.44405e-23)
(1.00011 0.000745954 -1.64566e-24)
(0.99999 0.000664251 -1.82421e-22)
(0.999963 0.000555204 1.02045e-24)
(0.999953 0.000471187 3.13652e-24)
(1.00029 0.000691257 2.70258e-22)
(1.00036 0.000740289 -2.89155e-24)
(1.00026 0.000758182 3.04655e-22)
(0.99998 0.000264205 2.00856e-24)
(0.999987 0.000163179 1.92182e-24)
(0.99996 0.000339126 5.77906e-23)
(1.00022 0.000135937 0)
(1.00028 0.00020943 0)
(1.00042 0.000350004 -1.78592e-24)
(1.0004 0.000248252 -3.56317e-25)
(1.00047 0.000605753 -1.67507e-24)
(1.00048 0.000682915 3.60536e-22)
(1.00048 0.000368863 -1.38664e-24)
(1.00057 0.000539325 2.02803e-22)
(1.00018 3.31477e-05 3.21482e-24)
(1.00019 0.00082144 -2.08975e-24)
(1.00009 0.000839688 -6.8607e-23)
(0.99994 0.000651093 -1.17246e-24)
(0.999965 0.000765758 -3.15678e-24)
(0.99992 0.00059147 0)
(0.999897 0.000545548 -7.6713e-24)
(0.999924 0.000429621 6.17053e-24)
(0.999902 0.000466968 -7.69815e-23)
(1.00044 0.000822244 -5.3444e-22)
(1.00035 0.000882026 8.78204e-25)
(1.00028 0.000863352 -1.68409e-23)
(0.999963 0.000154883 -1.30317e-24)
(0.99994 0.00035452 -8.51884e-25)
(1.00033 0.000184811 0)
(1.00025 0.000167541 6.1309e-24)
(1.00041 0.000206973 1.2648e-23)
(1.00056 0.000819283 9.0115e-23)
(1.00049 0.000283234 1.20819e-23)
(1.00056 0.000363114 -5.35736e-24)
(1.00064 0.000467981 -6.94669e-24)
(1.0007 0.000603027 -4.20148e-23)
(1.00021 0.000126097 8.99942e-24)
(1.00026 3.78316e-05 5.1256e-22)
(1 0.000870322 1.88416e-22)
(1.00007 0.000945934 -2.58263e-25)
(0.999892 0.000647912 -1.71772e-24)
(0.9999 0.000855165 -1.80978e-22)
(0.999885 0.000488364 -8.12218e-24)
(0.999827 0.000521506 -1.64787e-22)
(0.999897 0.000454954 2.97024e-23)
(1.0003 0.000908632 -2.25886e-22)
(0.999951 0.0001486 0)
(0.999942 0.000265979 3.28665e-24)
(0.999913 0.000410276 -1.05854e-23)
(0.99993 0.000334017 1.13079e-22)
(1.00026 0.000125078 4.47212e-23)
(1.00049 0.000192541 -1.32683e-22)
(1.0007 0.000783491 1.32524e-23)
(1.00061 0.000883575 1.05669e-24)
(1.00068 0.000369634 1.19781e-22)
(1.00084 0.000662107 -3.62057e-22)
(1.0002 -0.00010489 -5.32387e-22)
(1.00019 0.00101732 1.93108e-24)
(1.00006 0.00107168 -2.32176e-22)
(0.999841 0.00078485 -3.30221e-24)
(0.999789 0.000667815 1.75573e-22)
(0.999827 0.000861254 -1.49674e-24)
(0.999765 0.000501857 -6.48708e-23)
(0.999791 0.000461311 6.51394e-24)
(0.999875 0.000424193 1.47594e-22)
(1.00035 0.00100024 -3.75728e-24)
(0.999942 0.000122045 1.76398e-24)
(0.999914 0.000316885 -1.61523e-24)
(1.00023 2.2114e-05 9.52249e-23)
(1.00035 7.20399e-05 -5.45784e-24)
(1.00046 0.000115602 -2.37163e-23)
(1.00058 0.000184405 -1.30274e-22)
(1.00073 0.00100041 6.15058e-24)
(1.00059 0.000995964 1.34582e-23)
(1.00069 0.000267334 -1.55995e-25)
(1.00078 0.000364267 4.17175e-22)
(1.00094 0.000543389 -1.51816e-23)
(1.00097 0.000747373 1.85917e-22)
(1.0002 1.40461e-05 -3.43259e-22)
(1.00033 -7.67621e-05 2.86036e-24)
(1.00004 0.00130353 4.68901e-25)
(0.999881 0.00114293 3.0527e-24)
(0.999719 0.000588937 2.33683e-24)
(0.999679 0.000737002 6.47626e-23)
(0.99978 0.00101913 2.37547e-24)
(0.999719 0.000875081 4.64991e-24)
(0.999694 0.000503153 3.94547e-24)
(0.99982 0.000428611 3.85478e-24)
(0.999763 0.000416878 0)
(0.999848 0.000377694 3.07841e-24)
(1.0005 0.00103259 5.58923e-22)
(1.00042 0.00128099 -4.91817e-24)
(0.99993 0.000216809 1.22319e-23)
(0.999932 0.000122485 7.71761e-23)
(0.999883 0.000336017 -7.27426e-24)
(0.999906 0.000288531 7.67315e-23)
(1.00022 7.993e-06 -6.97144e-24)
(1.00043 4.94518e-05 7.15302e-24)
(1.00068 0.000147945 -4.41481e-23)
(1.00092 0.00100815 1.52827e-24)
(1.00085 0.0012329 -2.24518e-23)
(1.00063 0.00128163 5.50724e-24)
(1.0009 0.00045419 4.00499e-24)
(1.0009 0.000272304 -2.10884e-22)
(1.00102 0.000482043 0)
(1.00103 0.000854794 2.53239e-22)
(1.00114 0.00075362 2.37417e-23)
(1.00013 -0.000331545 3.25386e-22)
(1.00024 0.00142387 0)
(0.999976 0.00148177 2.0245e-25)
(0.999718 0.00118992 1.51319e-22)
(0.999647 0.000780501 -3.64073e-22)
(0.999589 0.000731965 -6.65986e-24)
(0.999593 0.000932889 -2.79633e-25)
(0.999596 0.000588068 -6.61472e-23)
(0.999632 0.000475558 5.35722e-24)
(0.999697 0.000370708 0)
(0.999751 0.00034856 7.74081e-25)
(0.999837 0.000334379 -7.04528e-24)
(1.00045 0.00146718 0)
(0.999899 0.000266289 2.13119e-23)
(0.999939 8.31987e-05 3.48071e-24)
(1.00024 -0.000142138 -1.17118e-22)
(1.00034 -3.16102e-05 -5.74664e-24)
(1.0004 -1.81488e-06 1.68237e-23)
(1.00046 1.2259e-05 -5.99799e-23)
(1.00065 5.10705e-05 6.16416e-25)
(1.00079 0.000101035 6.61622e-23)
(1.00118 0.0010907 -1.49402e-23)
(1.00074 0.00140075 -2.8218e-24)
(1.00093 0.00146121 -4.20865e-23)
(1.0006 0.0014596 0)
(1.00087 0.000155052 2.07542e-23)
(1.00105 0.000209313 3.94236e-24)
(1.00115 0.000528821 7.21626e-24)
(1.00114 0.000404251 -1.26654e-23)
(1.00131 0.00064973 -3.56584e-22)
(1.00015 -0.000167803 -7.58389e-22)
(0.999931 0.00170733 -4.49066e-23)
(0.999779 0.00152372 4.06035e-24)
(0.999602 0.00116265 2.69477e-22)
(0.999628 0.00131711 3.52609e-24)
(0.999476 0.000631145 -3.95739e-22)
(0.999433 0.00102131 5.96205e-22)
(0.999613 0.000415526 0)
(0.999523 0.000438562 0)
(0.999635 0.000309166 -8.7378e-24)
(0.9998 0.000313077 7.14442e-24)
(0.999745 0.000286855 -6.78824e-24)
(0.999833 0.000294734 -1.48038e-24)
(1.00053 0.00162648 6.90773e-24)
(0.999899 0.000223026 -2.75326e-22)
(0.999869 0.000267242 -1.1646e-23)
(0.999889 0.000137268 1.14748e-23)
(1.00038 -5.58241e-05 -3.56422e-24)
(1.00054 2.13541e-05 -6.95676e-24)
(1.00049 -6.5079e-05 -9.00557e-24)
(1.00064 -4.37953e-05 0)
(1.00088 6.58385e-05 -1.33547e-22)
(1.00128 0.00136699 -3.33309e-24)
(1.00144 0.00111414 6.82617e-23)
(1.00113 0.00152061 4.99094e-24)
(1.00097 0.00168811 -1.88758e-23)
(1.00122 0.000229082 2.94884e-23)
(1.0015 0.000448021 3.28894e-23)
(1.0015 0.000769242 -3.98009e-22)
(1.00038 -8.10168e-05 -1.33798e-24)
(1.0002 7.64697e-05 -8.66943e-22)
(0.999805 0.00197684 1.39193e-23)
(1.00013 0.00189944 -2.59944e-24)
(0.999506 0.00150455 -2.77435e-22)
(0.999356 0.00052155 9.12743e-24)
(0.999342 0.000699072 5.34525e-24)
(0.99928 0.000878914 1.07079e-22)
(0.999243 0.00110424 -5.26257e-24)
(0.999424 0.000371944 -3.81375e-25)
(0.999511 0.000304562 2.17385e-25)
(0.999587 0.000268289 -9.67568e-24)
(0.999655 0.000245807 -3.26295e-23)
(0.999703 0.000244277 -2.7818e-25)
(0.999752 0.000238701 1.09614e-22)
(0.999831 0.000248667 2.83035e-24)
(1.00077 0.00181544 2.56799e-22)
(1.00041 0.00185675 2.86835e-22)
(0.999877 0.000170704 5.89986e-24)
(0.999901 0.000113201 5.9548e-22)
(1.00026 -2.97545e-05 8.01413e-24)
(1.00032 -0.000108347 -1.49004e-23)
(1.00041 -0.000127855 -3.33908e-24)
(1.0005 -0.00015868 1.08057e-23)
(1.0006 -0.000172491 0)
(1.00071 -0.00013851 0)
(1.00087 -8.26194e-05 -9.41961e-24)
(1.00099 -3.29032e-05 -9.66229e-24)
(1.00135 0.00165735 -2.28368e-22)
(1.00156 0.000929693 -1.95999e-22)
(1.00172 0.00118875 1.73184e-23)
(1.00099 0.00201957 -1.89216e-23)
(1.00143 0.000243424 1.16837e-23)
(1.00131 0.000108542 5.478e-22)
(1.00163 0.00027792 -4.57597e-22)
(1.00172 0.000733867 -6.01948e-24)
(1.00057 -0.000581717 1.51112e-21)
(1.00013 -7.427e-05 8.31478e-24)
(0.999702 0.00231991 1.87366e-23)
(0.999549 0.00198526 3.38033e-23)
(1.00037 0.00225582 -2.34417e-23)
(0.999403 0.0017776 1.19226e-23)
(0.999263 0.00148178 -6.71493e-24)
(0.999281 0.000334119 -3.8723e-25)
(0.999132 0.000685504 -1.17489e-22)
(0.99916 0.00131418 -6.10652e-24)
(0.999035 0.00109702 -4.09486e-22)
(0.99952 0.000242674 -6.05666e-24)
(0.99967 0.000202466 7.2635e-24)
(0.999788 0.000240674 7.44111e-24)
(0.999776 0.00021385 8.85873e-24)
(0.999827 0.000212211 2.96828e-23)
(0.999868 0.000182491 7.01018e-24)
(0.999881 0.00017011 -6.03344e-24)
(0.999904 3.39776e-05 9.38633e-24)
(1.00036 -0.000202294 -3.278e-22)
(1.00052 -0.000225265 7.01012e-24)
(1.0008 -0.000202571 0)
(1.00119 -3.15278e-05 2.10609e-23)
(1.00107 -0.000194947 0)
(1.00167 0.00163635 -2.13888e-23)
(1.00152 0.00200135 8.19685e-24)
(1.00182 0.00142576 -4.65204e-23)
(1.00196 0.00120682 -1.87626e-23)
(1.00131 0.00228333 3.6534e-22)
(1.00093 0.00241266 -1.3161e-23)
(1.0014 -9.90733e-05 7.0772e-24)
(1.0018 0.000506389 -1.61875e-24)
(1.00184 0.000205848 -4.82879e-24)
(1.00195 0.000708025 7.52054e-24)
(1.00006 -0.000520165 -7.88232e-24)
(1.00024 -0.000276276 1.01532e-23)
(1.00006 -0.000252614 0)
(0.999889 0.00259545 -1.00773e-24)
(0.999532 0.00265581 7.05254e-25)
(0.999257 0.00198349 6.84684e-24)
(1.00064 0.00250868 -5.18257e-24)
(1.00024 0.00257567 -1.94303e-24)
(0.99902 0.00153203 -1.02039e-23)
(0.999198 0.000214544 -2.63362e-24)
(0.999091 0.000387014 0)
(0.999032 0.000532764 -1.21176e-23)
(0.998932 0.000786221 -1.16951e-23)
(0.998902 0.000945319 7.422e-24)
(0.998778 0.00114618 6.45979e-24)
(0.999543 0.00012273 1.63129e-22)
(0.999436 0.000135162 -6.4617e-24)
(0.999634 0.000126841 8.49397e-24)
(0.999693 0.000154156 4.64178e-24)
(0.999751 0.000160942 4.15419e-24)
(0.999799 0.000173584 -5.04071e-24)
(0.999832 0.000176664 9.23751e-23)
(0.999888 0.000131419 -1.15763e-22)
(0.999856 0.000154676 7.96006e-23)
(0.999872 7.65765e-05 1.00532e-23)
(1.00035 -0.000313912 4.38777e-24)
(1.00043 -0.000293722 8.3139e-26)
(1.00053 -0.000284724 -1.42055e-22)
(1.00074 -0.000263018 0)
(1.00084 -0.000292312 0)
(1.00095 -0.000312517 0)
(1.00113 -0.000331748 -1.05678e-23)
(1.002 0.00173496 -4.03471e-22)
(1.00162 0.00233904 -6.97645e-23)
(1.0021 0.000995722 -3.81049e-23)
(1.00226 0.00129739 5.59976e-22)
(1.00095 0.00281633 -1.31382e-23)
(1.00163 -0.00016779 -3.15797e-23)
(1.0014 -0.000288312 1.73071e-23)
(1.0019 7.94098e-06 4.78466e-22)
(1.00217 0.00020703 1.8723e-23)
(1.00224 0.000684125 6.79749e-24)
(1.00012 -0.000325823 5.16535e-24)
(1.00042 -0.000566011 2.5818e-21)
(1.00018 -0.000212786 4.75325e-24)
(1.00015 0.00303388 -2.51433e-24)
(0.999328 0.00300515 9.84462e-23)
(0.999225 0.00263184 1.69102e-24)
(0.999092 0.00232168 2.09652e-23)
(0.99897 0.00195827 1.19136e-23)
(0.998802 0.00145618 -9.71282e-24)
(0.998838 0.00168048 -5.42208e-22)
(0.999082 9.24998e-05 9.58663e-23)
(0.999247 9.71036e-05 -2.6208e-24)
(0.998924 0.000408455 -1.07419e-23)
(0.998724 0.000821863 0)
(0.998548 0.00126828 5.8407e-24)
(0.999602 4.75297e-05 8.73263e-24)
(0.999336 8.31397e-05 0)
(0.999389 -3.05097e-05 -2.10185e-23)
(0.999727 0.000108129 -1.51903e-23)
(0.99982 0.000152846 -9.14535e-24)
(0.99983 0.000138525 -8.36108e-24)
(0.999862 0.0001244 -4.24554e-24)
(0.999921 7.71572e-06 0)
(1.00038 -0.000345962 -2.08726e-22)
(1.00063 -0.000278577 -7.91048e-24)
(1.00055 -0.000377669 -7.94366e-24)
(1.00069 -0.000386683 -8.42397e-24)
(1.00087 -0.000383974 0)
(1.00126 -0.000353121 7.24321e-23)
(1.00116 -0.000502397 -3.14627e-23)
(1.00196 0.00219543 -1.33161e-22)
(1.00235 0.00194459 1.48376e-23)
(1.00189 0.00250394 -6.41235e-24)
(1.00255 0.00159925 2.81845e-23)
(1.0026 0.00121475 2.67664e-23)
(1.00079 0.00326883 4.41993e-24)
(1.00127 0.0030923 4.73586e-24)
(1.00187 -0.000372927 -3.00027e-23)
(1.00141 -0.000429457 5.61646e-23)
(1.00234 0.000424829 2.38993e-23)
(1.0024 9.40388e-05 1.85993e-23)
(1.00255 0.000688829 -1.15579e-23)
(0.999951 -0.000657012 -5.03625e-21)
(1.00031 -0.000321496 1.11001e-23)
(1.00018 -0.000420813 1.32922e-23)
(1.00039 0.00333551 1.09934e-24)
(0.999904 0.00339209 9.45956e-25)
(0.999494 0.00330819 -1.11972e-24)
(0.999095 0.00336646 3.44737e-24)
(0.998793 0.00256491 -1.79471e-23)
(0.99863 0.00195202 7.90188e-24)
(0.998968 -7.38157e-05 4.89368e-24)
(0.998853 0.000162082 1.41536e-23)
(0.99923 -6.68324e-05 8.08182e-24)
(0.998715 0.000520225 -1.02932e-23)
(0.99879 0.000346745 4.57192e-23)
(0.998508 0.000658861 1.64111e-23)
(0.99829 0.00114927 -3.40029e-22)
(0.998236 0.00150296 4.86618e-24)
(0.99966 8.74703e-06 0)
(0.999595 -4.1862e-05 1.1416e-23)
(0.999519 -0.00011495 -5.52786e-22)
(0.999423 -0.000191319 -2.03113e-23)
(0.999719 4.4846e-05 -4.55434e-24)
(0.999761 8.62526e-05 -1.54257e-25)
(0.999802 0.000108577 2.87175e-23)
(0.999872 0.000110081 0)
(0.999854 0.000108263 0)
(0.999833 2.85417e-05 0)
(1.00033 -0.000409557 -6.12984e-24)
(1.00057 -0.000461238 7.8044e-24)
(1.00047 -0.00043272 3.96494e-23)
(1.00074 -0.000454089 -8.83515e-24)
(1.00064 -0.000459763 -1.06302e-22)
(1.00085 -0.000519494 4.67291e-24)
(1.001 -0.000605841 -2.7186e-22)
(1.00116 -0.000626947 4.72594e-22)
(1.00268 0.00196873 1.47016e-23)
(1.00174 0.0029729 0)
(1.00232 0.00282286 3.49359e-23)
(1.00273 0.000965487 -2.19699e-23)
(1.003 0.00127871 0)
(1.00069 0.0038906 -1.15095e-24)
(1.00163 0.0036199 8.72577e-25)
(1.00189 -0.000580839 -1.32777e-23)
(1.00214 -0.000434909 1.7738e-22)
(1.00134 -0.000615671 -2.1744e-22)
(1.00143 -0.000621547 -6.34611e-22)
(1.00243 -0.000215237 2.06094e-22)
(1.00277 -4.75598e-05 3.58197e-23)
(1.00285 0.000666317 -5.06671e-23)
(1.00014 -0.000456174 -1.84028e-23)
(0.999686 0.00387475 0)
(0.998727 0.00372717 7.58092e-22)
(0.998693 0.00336183 4.5937e-24)
(0.99855 0.00296036 -5.93633e-24)
(0.998507 0.00245722 -1.52889e-23)
(0.998313 0.00187295 0)
(0.998424 0.00221667 -1.18762e-24)
(0.998821 -0.000218979 -1.37191e-23)
(0.999015 -0.00025519 -5.09545e-24)
(0.998628 0.000189938 9.05921e-24)
(0.999283 -0.000221458 8.05084e-24)
(0.99916 -0.000231532 -1.38738e-22)
(0.99828 0.000891493 -6.48814e-23)
(0.998305 0.000507122 2.40511e-23)
(0.998001 0.00104628 1.40312e-23)
(0.997923 0.00173214 0)
(0.999722 -2.35122e-05 -4.49553e-24)
(0.999618 -0.000150543 5.82899e-23)
(0.999396 -0.000295971 4.2464e-24)
(0.999795 6.27889e-05 4.36983e-24)
(0.999829 5.81981e-05 0)
(0.999875 6.02372e-05 0)
(0.999919 -5.8621e-05 0)
(1.00036 -0.000435257 6.44211e-22)
(1.00021 -0.000423655 -1.6146e-24)
(1.00061 -0.000524567 3.35412e-24)
(1.0004 -0.000509157 9.63626e-24)
(1.00082 -0.000640601 8.42185e-24)
(1.0012 -0.00074582 1.53683e-23)
(1.00306 0.0017825 1.40042e-23)
(1.00296 0.00210353 1.73303e-22)
(1.00281 0.00263007 -7.97969e-23)
(1.00269 0.00319358 -2.16878e-22)
(1.00338 0.00139315 1.73221e-23)
(1.00036 0.0044985 3.8833e-23)
(1.00102 0.00437722 -1.79764e-24)
(1.00152 0.00417052 5.0787e-24)
(1.00208 0.00391594 6.12298e-25)
(1.00164 -0.000734141 -2.47641e-23)
(1.0019 -0.000908171 1.5126e-23)
(1.00247 -0.000601662 1.54265e-22)
(1.00141 -0.00090014 3.54109e-24)
(1.003 0.000287742 1.30553e-23)
(1.00314 -0.000127343 -1.83421e-22)
(1.00324 0.000667694 -2.78759e-23)
(1.00013 -0.000358364 -3.79765e-22)
(1.00038 -0.000534884 -3.39256e-24)
(0.999219 0.00422706 -4.51651e-24)
(0.999724 0.00433184 1.07323e-24)
(0.998552 0.00428816 3.5142e-25)
(0.998107 0.00334384 -1.69118e-23)
(0.998229 0.00240864 9.22525e-24)
(0.998589 -6.02054e-05 -1.19386e-23)
(0.998629 -0.000354839 1.51584e-22)
(0.999091 -0.000387257 -5.92249e-24)
(0.998405 0.000152736 0)
(0.99825 0.000348665 1.17044e-23)
(0.998051 0.000513502 -9.68405e-23)
(0.997874 0.000770151 -1.14826e-23)
(0.997724 0.0010885 -5.63625e-24)
(0.997615 0.00163545 0)
(0.997685 0.00199012 -8.66484e-24)
(0.999722 -9.58245e-05 -8.58384e-24)
(0.999764 -3.55172e-05 -8.9333e-24)
(0.999682 -0.000162323 7.29722e-23)
(0.99963 -0.000217836 1.18053e-23)
(0.999517 -0.000392196 4.52409e-24)
(0.999386 -0.000491797 1.99074e-24)
(0.999798 2.43765e-06 -4.41179e-24)
(0.999883 5.67888e-05 0)
(0.999872 3.87509e-05 -8.27284e-24)
(0.99979 -2.14322e-05 -6.89021e-24)
(1.00009 -0.000399167 8.88126e-24)
(1.00067 -0.00062557 -3.03593e-24)
(1.00054 -0.000623504 -4.88822e-23)
(1.00039 -0.000594453 1.58573e-24)
(1.00028 -0.000547142 2.83692e-23)
(1.00074 -0.00067128 -8.45907e-24)
(1.00128 -0.000954244 2.65035e-23)
(1.00109 -0.000861653 -1.01109e-23)
(1.00348 0.00241371 -3.05082e-23)
(1.00258 0.00365097 -2.57978e-23)
(1.00315 0.00351486 2.54647e-23)
(1.00352 0.000886842 -4.27892e-22)
(1.00389 0.00135121 1.04012e-23)
(0.999902 0.00501914 6.39088e-24)
(1.00137 0.00494681 -8.42011e-24)
(1.00252 0.00446974 0)
(1.00184 -0.00118555 6.2338e-23)
(1.00215 -0.00106591 -4.65397e-23)
(1.00245 -0.000916157 -2.976e-23)
(1.00282 -0.000717377 6.63785e-25)
(1.00134 -0.00106472 -4.2927e-22)
(1.00354 1.50801e-05 -3.59085e-23)
(1.00336 -0.000307783 8.5674e-23)
(1.00361 0.000472882 -2.3529e-23)
(1.00008 -0.000839353 -2.33389e-21)
(0.998486 0.00503953 -8.01706e-24)
(0.997835 0.00443473 1.36306e-23)
(0.997876 0.00288759 -5.54962e-24)
(0.99767 0.00325717 6.46097e-22)
(0.997862 0.00232766 9.16592e-23)
(0.998355 -0.000477469 -6.68753e-23)
(0.998654 -0.000594257 -1.58546e-22)
(0.999225 -0.000528414 -5.53595e-24)
(0.999031 -0.00055969 1.28589e-23)
(0.998159 1.83755e-05 -6.14779e-25)
(0.997755 0.000437055 -4.19086e-23)
(0.997496 0.0012864 -1.51133e-23)
(0.99729 0.000948774 -4.21486e-22)
(0.99716 0.00151395 3.20838e-23)
(0.997429 0.00238563 -2.83474e-23)
(0.999747 -0.00016749 -4.68812e-24)
(0.999805 -4.77507e-05 -3.53328e-23)
(0.999616 -0.000330601 0)
(0.999661 -0.000285236 -5.02389e-24)
(0.99962 -0.000466678 -7.90243e-25)
(0.999391 -0.000597283 -4.61979e-24)
(0.999856 -4.32774e-05 3.25861e-23)
(0.999906 -2.34664e-05 -8.23612e-24)
(0.999901 -0.000155681 -6.91502e-24)
(1.00019 -0.000467521 7.64133e-24)
(1.0002 -0.000536774 -4.4345e-24)
(1.00042 -0.000651144 1.36177e-24)
(1.00016 -0.000553612 -4.79304e-22)
(1.00063 -0.000735896 -2.71513e-23)
(1.00077 -0.000777148 8.4943e-23)
(1.00088 -0.000852946 5.30097e-25)
(1.00097 -0.00107792 -5.36716e-22)
(1.00406 0.00220553 -2.85008e-23)
(1.00392 0.0029014 -1.19673e-22)
(1.00368 0.00349395 -2.27677e-22)
(1.00352 0.00403084 1.67122e-22)
(1.00425 0.00167308 -4.73721e-23)
(1.00442 0.000971121 1.07873e-23)
(0.999125 0.00543416 2.28631e-23)
(0.999938 0.00582488 -2.79484e-22)
(1.00127 0.00567738 -2.13935e-22)
(1.00206 0.0053816 -6.05286e-24)
(1.00318 0.00467273 -1.17011e-23)
(1.00254 0.00501801 0)
(1.00156 -0.00126995 -3.09063e-23)
(1.00173 -0.00143831 -7.33275e-24)
(1.00235 -0.00134359 -2.52802e-22)
(1.00322 -0.000613122 2.17797e-23)
(1.00304 -0.00109863 5.43241e-23)
(1.00125 -0.00131585 -1.83882e-23)
(1.00391 0.000222738 -2.41483e-25)
(1.0036 -0.000670583 -1.01131e-24)
(1.00044 -0.000858517 -1.02564e-23)
(0.998432 0.00594359 -2.32091e-24)
(0.997316 0.004059 -6.72407e-23)
(0.9972 0.00480454 6.89924e-24)
(0.997353 0.00293781 1.91705e-24)
(0.997311 0.00340488 -1.58854e-22)
(0.998116 -0.000261914 1.32249e-22)
(0.998091 -0.000605164 -4.08703e-23)
(0.998845 -0.000632544 -9.2963e-23)
(0.998704 -0.000810722 4.16669e-24)
(0.999038 -0.000822409 1.20029e-23)
(0.997818 -3.59366e-05 -2.25957e-22)
(0.997343 0.000471364 -2.23387e-22)
(0.997619 0.000204726 -3.7646e-23)
(0.997005 0.000605119 -5.99061e-24)
(0.996729 0.00134452 -5.00276e-22)
(0.996704 0.00200037 5.08605e-23)
(0.996935 0.00253201 6.11182e-22)
(0.99978 -0.000217609 0)
(0.999804 -0.000153773 0)
(0.999833 -0.000107773 1.16169e-23)
(0.999769 -0.000283483 -4.98963e-24)
(0.999737 -0.000389936 1.33912e-23)
(0.999684 -0.000483312 4.02239e-24)
(0.999636 -0.000563003 -1.13912e-24)
(0.999371 -0.000805848 0)
(0.999423 -0.000661577 2.67693e-23)
(0.999885 -7.58297e-06 0)
(0.999893 -5.29544e-05 0)
(0.999745 -8.84798e-05 7.0212e-24)
(1.00035 -0.000642969 7.69125e-23)
(1.0004 -0.000697274 7.78041e-24)
(1.00029 -0.000603234 -7.72119e-22)
(1.00019 -0.00070344 -5.5513e-24)
(1.00048 -0.000724085 -4.51914e-22)
(1.00054 -0.000859488 -4.49876e-23)
(1.00073 -0.00094218 3.26e-23)
(1.00103 -0.00130804 -1.22443e-23)
(1.00078 -0.00120915 -3.07051e-22)
(1.00475 0.00210757 8.8363e-23)
(1.00441 0.00344204 3.7335e-22)
(1.004 0.00479973 -1.19298e-23)
(1.00438 0.000405119 -3.64273e-23)
(1.00492 0.00061485 -5.0056e-22)
(1.00059 0.00606316 3.64587e-24)
(0.99984 0.00664822 -1.45656e-24)
(1.0014 0.00664968 1.53055e-23)
(1.0027 0.00570941 1.23869e-23)
(1.0016 -0.00174937 -9.59391e-23)
(1.00196 -0.00164473 -1.24132e-23)
(1.00223 -0.00161315 7.46817e-23)
(1.00263 -0.00155828 2.38159e-23)
(1.00302 -0.00140731 8.75356e-22)
(1.0034 -0.00132098 2.24919e-23)
(1.00117 -0.00141021 0)
(1.00433 -0.000115027 -1.19435e-22)
(1.00378 -0.00103671 -4.96689e-23)
(1.00403 -0.000726909 -1.90711e-22)
(1.00001 -0.000992182 3.99055e-21)
(0.997558 0.00628533 3.71644e-23)
(0.998364 0.00670792 6.72903e-22)
(0.996664 0.00359623 -1.95611e-23)
(0.996896 0.00549278 -8.42404e-24)
(0.996392 0.0049432 -9.77131e-24)
(0.997739 -0.00064813 7.57928e-23)
(0.998087 -0.000875824 3.36297e-22)
(0.998848 -0.0010583 2.14245e-23)
(0.998603 -0.0010122 -2.62007e-22)
(0.999321 -0.00097881 0)
(0.99913 -0.00109493 -1.18705e-25)
(0.997504 -0.000164784 4.98469e-23)
(0.996566 0.000661957 -1.53811e-23)
(0.996723 0.000203773 1.50516e-23)
(0.996504 0.00105858 -5.85165e-23)
(0.996186 0.00164685 -1.90349e-23)
(0.996409 0.0024759 -7.8477e-23)
(0.999813 -0.000273713 0)
(0.999824 -0.000166969 0)
(0.999787 -0.000457546 5.20624e-24)
(0.999567 -0.00069592 1.24347e-21)
(0.999715 -0.000695581 -1.10823e-22)
(0.999493 -0.000996541 2.96562e-23)
(0.99954 -0.000868832 6.23544e-23)
(0.999875 -0.000185171 0)
(0.999986 -0.000150475 8.0291e-24)
(0.999902 -0.00025186 6.7825e-25)
(1.00027 -0.000669864 7.97605e-24)
(1.00039 -0.000786523 8.7308e-24)
(1.00035 -0.00101995 3.04879e-21)
(1.0006 -0.000970998 1.69088e-23)
(1.00043 -0.000935443 -4.35577e-22)
(1.00069 -0.001004 -1.63768e-22)
(1.00067 -0.00111337 1.05888e-23)
(1.00067 -0.00124323 -1.48156e-22)
(1.00523 0.00260245 1.03538e-22)
(1.00535 0.00192081 -3.85674e-25)
(1.00515 0.00323695 -9.78617e-23)
(1.00512 0.00413722 1.0274e-22)
(1.00478 0.00504885 -6.2044e-24)
(1.00411 0.00562143 -3.37343e-23)
(1.00546 0.00116821 1.73297e-22)
(1.00546 0.000186392 -2.60542e-23)
(0.999103 0.0069839 -1.13207e-23)
(0.999798 0.00762643 -6.19901e-23)
(1.00143 0.0075717 7.16546e-25)
(1.00219 0.00705207 -1.29563e-23)
(1.00349 0.00589952 -1.81403e-23)
(1.00285 0.00649793 1.0576e-22)
(1.00157 -0.00218703 -1.49542e-23)
(1.00123 -0.00189617 -3.52341e-24)
(1.00199 -0.00199172 -1.5253e-23)
(1.00295 -0.00180992 -1.24942e-23)
(1.0037 -0.00160535 3.33504e-22)
(1.00101 -0.00165297 0)
(1.00097 -0.00143647 0)
(1.00463 -0.000723434 4.26771e-22)
(0.996425 0.00639778 2.39718e-22)
(0.998271 0.00781575 1.84758e-24)
(0.996033 0.00415288 -1.05073e-23)
(0.996099 0.00336049 2.63451e-23)
(0.99552 0.00467602 2.03134e-22)
(0.997494 -0.000525282 -2.60584e-22)
(0.997442 -0.00083711 -1.31838e-22)
(0.998292 -0.00103109 5.38715e-23)
(0.998006 -0.0011979 2.75367e-23)
(0.999065 -0.00125802 2.83509e-23)
(0.99853 -0.00128213 5.92141e-24)
(0.997045 -0.000265708 1.32855e-23)
(0.996161 0.000740435 -2.24916e-23)
(0.996549 -0.000337631 3.07892e-23)
(0.99606 0.00220045 -2.03313e-23)
(0.995656 0.00180488 -9.20764e-24)
(0.995965 0.0027097 -5.46943e-22)
(0.999849 -0.000248429 0)
(0.999853 -0.000276967 1.01565e-24)
(0.999874 -0.000435845 -1.27215e-24)
(0.999838 -0.00054042 -6.83196e-25)
(0.999826 -0.000640324 1.54711e-22)
(0.999803 -0.000758542 -6.42174e-25)
(0.999573 -0.000953876 3.80134e-22)
(0.999931 -0.000111749 1.56504e-24)
(1.00001 -7.81134e-05 6.05065e-23)
(0.999689 -0.000186919 -1.20629e-21)
(1.00032 -0.000790457 -6.30604e-24)
(1.0002 -0.000739089 2.79946e-22)
(1.00036 -0.000805124 5.85603e-24)
(0.999977 -0.00104615 1.07558e-24)
(1.00035 -0.000873481 8.87884e-24)
(1.00035 -0.00093549 1.59237e-22)
(1.00059 -0.00101438 -8.35949e-24)
(1.00059 -0.00132056 7.91956e-22)
(1.00053 -0.00122914 1.53403e-22)
(1.00592 0.00316937 -4.19106e-22)
(1.00611 0.001692 -1.07485e-23)
(1.00569 0.00504973 -5.86876e-24)
(1.00436 0.00639781 -4.28281e-22)
(1.00581 -0.000358868 -4.12761e-23)
(1.00635 0.000240541 -1.07224e-22)
(1.00056 0.00812002 1.39735e-24)
(0.999605 0.00872304 -7.0023e-24)
(1.00155 0.00887355 4.91969e-24)
(1.00302 0.0075116 8.35823e-24)
(1.00181 -0.00227544 2.1037e-22)
(1.00154 -0.00243774 -1.03717e-23)
(1.00093 -0.00186034 0)
(1.00223 -0.00230576 2.67672e-22)
(1.00274 -0.00218768 -2.20203e-22)
(1.00323 -0.00212534 -4.31215e-24)
(1.00362 -0.00215344 2.21741e-22)
(1.00418 -0.00196679 1.70314e-23)
(1.00078 -0.00145113 7.80278e-24)
(1.00087 -0.00164554 0)
(1.00535 -0.000876433 -1.63324e-23)
(1.00476 -0.00145452 -3.66064e-24)
(0.995905 0.00734469 3.26731e-22)
(0.995334 0.0062429 1.16073e-23)
(0.998753 0.00901356 -1.33051e-23)
(0.997492 0.0085685 8.83451e-22)
(0.995364 0.0030477 -1.24333e-23)
(0.994874 0.005292 -8.58146e-23)
(0.994689 0.00441156 4.11051e-24)
(0.997657 -0.00127318 8.30827e-24)
(0.997216 -0.00120269 8.42175e-24)
(0.997886 -0.00146074 -1.93104e-23)
(0.999166 -0.00140541 8.01878e-23)
(0.99886 -0.00143638 1.86243e-23)
(0.998646 -0.00143199 1.83915e-23)
(0.998483 -0.00157797 -1.18971e-23)
(0.995548 0.00109046 -2.28436e-23)
(0.995715 0.000437006 0)
(0.996041 -0.000351265 2.23051e-23)
(0.996468 -0.000880865 -2.93649e-22)
(0.995073 0.00167163 3.81353e-22)
(0.999903 -0.000358734 -2.6209e-23)
(0.999919 -0.000241886 1.06853e-24)
(0.999901 -0.000463481 -1.17381e-24)
(0.999903 -0.000605852 -1.00396e-23)
(0.99981 -0.000865843 -3.05239e-24)
(0.99991 -0.000813489 9.01465e-24)
(0.999678 -0.000954776 -2.02519e-23)
(0.9996 -0.00108552 -5.45937e-23)
(0.99994 -0.00012858 -7.30462e-24)
(0.999911 -0.000159839 -6.81635e-24)
(0.999945 -0.000387177 5.00704e-24)
(1.00018 -0.000779738 1.1583e-23)
(1.00022 -0.000796136 5.29972e-24)
(1.00033 -0.00084304 5.8389e-24)
(1.00041 -0.00120777 4.58025e-21)
(1.00036 -0.000929999 1.48621e-24)
(1.00033 -0.000934607 6.22089e-24)
(1.00048 -0.00112618 3.90976e-24)
(1.0005 -0.000990275 4.01486e-22)
(1.00054 -0.00150495 1.14779e-23)
(1.00042 -0.00118158 1.37564e-22)
(1.0067 0.00384995 -7.33334e-24)
(1.0068 0.00268023 -5.54973e-23)
(1.00669 0.0012821 2.52909e-23)
(1.0068 0.00191526 -1.54718e-22)
(1.00665 0.00478354 -6.27602e-24)
(1.0064 0.00586826 5.74035e-24)
(1.00406 0.00764134 6.24206e-23)
(1.00506 0.00712556 3.46282e-23)
(1.00608 -0.0011129 3.87591e-22)
(1.00723 0.000507293 2.74795e-23)
(0.999317 0.00962284 -2.55254e-24)
(1.0015 0.00999147 -1.77843e-24)
(1.00255 0.00942361 -2.7732e-23)
(1.00345 0.0083812 8.92647e-22)
(1.00118 -0.00250016 0)
(1.00158 -0.00287982 -2.26403e-23)
(1.00079 -0.0017883 -1.27365e-23)
(1.00253 -0.00261452 3.54378e-22)
(1.00338 -0.00258421 -1.99406e-24)
(1.0048 -0.00222202 3.95138e-22)
(0.996247 0.00825795 4.03417e-23)
(0.9949 0.00804667 -8.80922e-23)
(0.994161 0.00591589 1.7793e-22)
(0.996684 0.00978818 3.1906e-23)
(0.994674 0.00371194 -4.54972e-23)
(0.994778 0.00267382 2.36083e-22)
(0.99393 0.00407739 -1.74797e-22)
(0.996753 -0.00122224 -3.22612e-23)
(0.997034 -0.00174123 0)
(0.998197 -0.00170605 -4.0443e-23)
(0.997828 -0.00196442 -5.34942e-23)
(0.999253 -0.00166158 -1.8105e-23)
(0.999424 -0.00141957 -2.79794e-23)
(0.998784 -0.0016853 0)
(0.998441 -0.00184013 4.66434e-24)
(0.995693 -0.000112548 0)
(0.995101 0.000198115 0)
(0.99558 -0.000688688 7.348e-24)
(0.996267 -0.00134747 -3.02976e-23)