/*--------------------------------*- C++ -*----------------------------------*\
| =========                 |                                                 |
| \\      /  F ield         | OpenFOAM: The Open Source CFD Toolbox           |
|  \\    /   O peration     | Version:  v2012                                 |
|   \\  /    A nd           | Website:  www.openfoam.com                      |
|    \\/     M anipulation  |                                                 |
\*---------------------------------------------------------------------------*/
FoamFile
{
    version     2.0;
    format      ascii;
    class       surfaceScalarField;
    location    "2";
    object      phi;
}
// * * * * * * * * * * * * * * * * * * * * * * * * * * * * * * * * * * * * * //

dimensions      [0 3 -1 0 0 0 0];
oriented        oriented;


internalField   nonuniform List<scalar> 
18781
(
0.22345
0.70053
0.822119
-0.598669
0.75876
-0.0582302
0.211859
0.610261
0.353281
0.267981
0.490779
0.828912
0.72282
-0.510962
0.878242
0.887283
-0.534002
-0.359804
0.850583
0.469108
0.73463
-0.0118095
0.376321
0.13462
0.743623
0.436727
0.0781173
0.772466
0.686606
-0.217499
0.86925
-0.69647
0.68466
-0.320149
0.109951
0.633671
0.951555
-0.514828
0.764724
0.882417
0.624238
0.387228
0.482021
0.970849
-0.286189
0.631406
1.0209
0.465343
-0.0231641
0.787888
-0.211508
1.09392
0.881289
-0.257051
-0.438469
0.92049
0.53238
-0.729308
0.443119
-0.0979015
0.746514
0.274386
-0.403541
0.868884
0.858125
0.57638
0.398418
0.695507
0.531193
0.443931
0.476559
0.87765
-0.345269
0.978128
-0.535009
-0.786139
0.688237
0.325595
0.420919
0.718317
0.57663
0.0827449
0.422198
0.435926
0.998579
0.724012
0.0830376
0.612469
1.25838
-0.31551
0.79207
0.562139
0.632858
0.153228
-0.260745
0.681664
0.457572
0.821755
-0.245125
0.9045
-0.391988
0.827914
0.629285
0.369294
0.239392
0.48462
0.712323
0.851861
0.866388
0.210916
0.581154
-0.160536
0.722676
0.934031
-0.301173
-0.582346
0.735574
0.551607
0.130057
0.668488
0.725604
0.322155
0.544429
0.283485
0.913723
1.03623
-0.113742
0.826065
0.0673827
0.784478
0.642024
0.224364
-0.333328
0.914482
0.773495
0.389348
-0.952563
0.651391
-0.216989
0.798545
-0.255027
0.980631
0.759233
-0.437079
0.925509
0.799981
0.246153
0.790074
0.893448
1.03063
0.88347
0.198327
0.716155
0.51242
0.261074
0.901768
1.07355
-0.422162
0.542244
0.996872
0.696923
0.543552
0.103299
0.82221
-0.0870005
0.886981
0.778462
0.0116119
0.00082571
0.892622
0.363748
0.666884
0.627056
0.256415
0.786898
-0.0707429
-0.472165
0.733239
0.668964
0.232805
0.601387
-0.89242
0.470258
-0.350176
0.532885
0.463987
0.810926
-0.114003
0.862638
-0.319086
0.730354
0.735209
0.887807
0.563722
0.214741
0.544497
0.285982
0.60664
0.64973
0.135667
0.531216
0.841155
0.188312
0.598586
0.598221
0.577103
0.156136
0.809908
0.69351
-0.0921226
0.936503
-0.466244
0.512461
0.652298
0.49184
0.809976
-0.134317
0.864672
-0.192303
0.927513
0.154883
0.732924
0.699389
-0.478403
0.693144
0.0660935
0.0801142
0.526525
0.289334
0.360396
0.820551
0.706837
0.753515
-0.154929
-0.202331
0.800552
0.849646
0.607576
-0.68923
0.597108
0.247272
-0.874942
0.408697
-0.36248
0.718392
-0.4615
0.95334
0.348476
0.672368
0.509771
0.417742
0.664653
0.813038
0.0557337
0.643656
0.540307
0.152836
0.886921
0.393304
0.427247
-0.0655784
0.772416
0.429418
0.324096
0.645624
0.0209255
0.828721
-0.154635
0.762211
0.918413
-0.321305
0.775565
-0.528293
0.808099
-0.399401
0.590859
0.446211
0.272181
0.725606
-0.37713
-0.0461763
0.718545
-0.285843
0.703584
-0.126718
0.791371
-0.0104738
0.823512
0.596041
0.149341
0.494314
0.599047
0.244103
0.642818
0.637407
0.576588
0.439142
0.726239
0.532364
-0.102946
0.596277
0.547033
0.0985903
0.939338
0.674086
0.378915
0.383296
0.45426
0.279806
-0.68683
0.287428
-0.0959702
0.704323
0.021283
0.510005
0.432702
0.576867
0.780897
0.196297
0.627215
0.465596
0.130445
-0.064187
0.558501
0.400766
0.198281
0.839116
-0.118262
0.75567
0.458326
0.859146
0.402441
0.323798
0.245814
0.28655
0.444088
0.349112
0.247166
0.477506
0.419251
0.520087
0.0857875
0.588298
-0.16006
0.543356
-0.601413
1.05567
0.847322
-0.567516
0.77491
-0.487482
0.608353
-0.663152
0.684435
-0.153147
0.835144
-0.401583
0.978449
0.196191
0.584706
-0.144733
0.771948
0.401409
0.531211
0.144508
0.413994
0.547393
0.358883
0.480233
0.396624
0.359045
0.602833
0.412177
0.446969
0.735975
0.492979
0.431476
-0.144926
0.456298
-0.0122103
0.0133
0.464206
0.746239
-0.326988
0.605875
0.428238
0.556656
0.245909
0.864038
0.191635
0.207394
0.120871
0.644178
0.0402573
0.688572
0.433561
0.374652
0.603797
0.570843
0.439973
0.292785
0.479163
-0.103024
0.504434
0.428186
-0.0563177
0.470311
0.0755281
0.471865
0.755507
0.773018
-0.266801
0.625846
0.336032
0.778079
0.535383
0.200592
0.346654
0.146325
0.222762
0.208714
0.311372
0.451995
0.437281
0.308958
0.537049
0.282767
0.323107
0.711006
0.170795
0.385861
-0.619412
0.865321
-0.696768
0.888403
0.803789
-0.596395
0.765049
-0.683426
0.723684
0.00514535
0.968944
0.542997
0.0608009
0.307045
0.263798
0.747018
-0.211448
0.690611
0.448116
-0.0777059
0.505892
0.200148
0.270163
0.422182
0.394159
0.577324
0.178184
0.184032
0.588987
0.457285
0.168561
0.536181
0.97867
0.369087
0.395989
-0.187276
0.334494
-0.0231217
0.0772441
0.374751
0.630849
-0.193568
0.632066
-0.278829
0.815878
0.294789
0.416217
0.465584
0.463105
0.184377
0.168553
0.609575
0.168654
0.641658
0.0820252
0.793349
0.751226
0.217719
0.806794
0.812026
0.53557
0.874643
0.261064
0.187053
0.263117
0.242775
0.531226
0.038207
0.383975
0.0113649
0.382794
-0.00987412
0.587198
0.635469
0.579112
-0.294813
0.463374
0.241368
0.510598
0.468072
0.0223078
0.34678
0.418297
0.147218
0.35163
-0.0833704
0.71422
0.62231
0.548695
0.0348444
0.381372
0.0411367
0.424447
0.251889
0.211217
0.826017
-0.641639
-0.683325
0.851878
-0.303396
0.91297
0.810312
-0.70379
0.785815
0.089559
0.728317
0.57534
0.231454
0.705255
0.106772
1.11091
0.146307
0.728336
0.45017
-0.0904529
0.333228
0.181922
0.349305
0.384987
0.39534
0.292341
0.549152
0.038046
0.465288
0.170181
0.72542
-0.0900632
0.553437
0.42329
0.707225
0.289659
0.128639
-0.212226
0.359444
0.139404
0.422672
0.291547
-0.196118
0.818428
0.58354
0.422509
0.166057
0.25839
0.417945
0.35062
0.142691
0.168673
0.851032
0.000846126
0.547637
0.716852
0.64917
0.136645
0.816644
0.750739
-0.0224224
0.936709
0.857511
0.425835
0.685075
-0.027142
0.755478
0.378447
0.0717232
0.27515
0.0580777
-0.0449261
0.394231
0.0147477
0.370239
0.1662
0.22914
0.227062
0.0652791
0.0232632
0.525888
0.503334
-0.261629
0.431809
0.748683
0.333226
0.291808
0.684802
0.304406
-0.162614
0.291253
-0.0886895
0.448134
-0.235445
0.658117
-0.372464
0.664011
0.445964
0.348095
0.246842
0.175667
0.505233
0.325842
0.092103
0.261931
0.727553
-0.584861
0.817843
-0.861892
0.862738
-0.439693
0.98733
0.559898
0.156955
-0.648726
0.785371
0.167918
0.0963765
0.840332
0.840602
0.0169091
-0.314715
0.740551
0.657933
-0.00741744
0.762895
0.33352
0.346873
0.28514
0.116773
0.277458
0.128371
0.241868
0.29457
0.294419
0.640268
-0.11438
0.508902
-0.00556769
0.438611
-0.00680197
0.741265
0.449999
0.376701
-0.0848927
0.829748
0.0348593
0.269547
0.28552
0.248116
0.0431371
0.246776
0.411341
0.13196
0.532051
-0.270492
0.716456
0.523762
0.270922
0.23431
0.0985838
0.227259
0.354034
-0.13434
0.232982
0.423045
0.542971
0.444358
0.289405
0.699926
0.633079
0.152292
0.826852
0.936978
0.525617
0.846657
0.21109
0.529461
0.869022
-0.0403101
0.803205
-0.0245491
0.35807
0.302753
0.0441205
0.284035
0.00110461
-0.107251
0.384709
-0.00962287
0.251491
0.137662
0.156909
0.208483
0.0859364
0.127879
0.512389
0.394522
0.433044
0.369899
0.0776356
0.66363
0.365106
0.282975
0.259924
0.24818
0.0373404
0.291317
-0.228438
0.475214
0.0277356
0.383605
0.848417
0.559787
0.295323
0.369506
0.529634
-0.0684734
0.295732
0.28556
-0.866061
0.731721
-0.488555
0.9116
-0.583325
1.02768
0.989331
-0.594336
0.746627
0.232516
0.334447
0.602531
0.860064
0.89596
-0.301666
0.831127
0.828712
0.377254
0.425951
0.278204
0.250819
0.328156
0.209588
0.349521
0.0351882
0.112
0.139491
0.249662
0.242845
-0.515746
0.643625
0.590025
-0.121224
0.418499
0.0145449
0.419332
-0.0494333
0.536016
0.127614
-0.0235792
0.388685
0.267298
0.015677
0.117945
0.141979
0.322901
0.254113
0.0372041
0.0677876
0.407426
0.451393
0.622552
0.225865
0.251477
0.30831
0.0468634
0.322643
0.258473
0.271161
0.342595
0.884343
-0.152622
0.395788
0.328275
0.850352
0.177331
0.0896681
0.899663
1.00417
-0.257547
0.816949
-0.20063
0.803161
0.558398
0.69533
0.857313
-0.0261856
0.387044
0.441668
0.91327
0.812995
0.018103
0.260101
0.319052
-0.0682332
0.236855
0.0913008
-0.0961184
0.305706
0.325942
0.35424
0.257436
0.122629
0.127033
0.146727
0.666401
-0.0227767
0.717639
0.297275
0.433877
0.339252
0.0950022
0.172296
0.26979
0.236981
0.179741
0.14316
0.216945
0.0367001
0.370726
0.0733869
0.378006
0.424326
0.198226
0.477342
0.381697
0.0391634
0.283479
0.297636
0.307861
0.0982867
0.244309
0.851552
-0.585024
0.980812
-0.507943
0.836218
0.94002
-0.765236
0.942568
0.449005
0.450658
0.559403
0.147712
0.65545
0.706109
0.696828
0.28823
0.569083
0.679924
0.729898
0.770473
0.142797
-0.0124376
0.825433
0.254958
0.191868
-0.178199
0.2695
0.127507
-0.031249
0.357191
0.295027
0.0592127
0.0857565
0.17168
0.208386
0.273759
0.390609
0.275793
-0.44451
0.421733
0.654033
0.0636058
-0.263299
0.560574
0.170578
-0.0978311
0.437083
0.18029
-0.00799421
0.180667
0.0891222
0.154597
0.0823844
0.241446
-0.0408624
0.257807
0.0298032
0.340923
0.407809
-0.0782303
0.502556
0.647231
0.0219675
0.455374
0.403664
0.0109292
0.27255
0.0345989
0.263038
0.34246
0.255238
0.266528
0.472869
0.070982
0.374552
0.565468
0.956348
-0.0137808
0.82521
1.06368
-0.0403841
0.695834
0.656444
0.932137
-0.363055
-0.05032
0.730244
0.71746
-0.0512644
0.821737
0.79683
0.774168
0.178447
0.0765108
0.370315
0.171211
0.0982886
-0.123567
0.251074
0.263778
0.25936
-0.219899
0.279112
0.0220812
0.149599
0.0302479
0.178138
0.150192
0.454214
-0.221659
0.497452
0.116064
0.419052
0.00268107
-0.250934
0.421513
0.186149
0.104948
0.0753417
0.172673
-0.102051
0.191173
0.176678
0.187333
0.200584
0.155756
-0.0975771
0.4385
-0.0461497
0.453959
0.377144
0.326714
0.175842
0.353118
0.294113
0.357514
0.0282699
0.24428
0.291307
0.244883
0.0207191
0.234519
-0.575129
0.841658
0.7945
-0.321631
0.865482
-0.260344
0.825812
0.696005
-0.785282
0.771501
0.346601
0.478609
0.488554
0.645514
0.658024
0.156593
0.775544
0.367189
0.874054
0.818798
0.00293976
0.747558
0.0492717
-0.0839724
0.858141
0.247722
0.150416
-0.15287
0.251158
0.0982047
-0.0188303
0.282609
-0.087245
0.346605
0.228199
0.0509128
0.179847
0.0854904
0.0926474
0.235683
-0.238644
0.692859
0.197393
0.258808
-0.321068
0.437132
-0.365138
0.367819
0.100445
-0.181213
0.367362
-0.105747
0.181088
0.0669265
0.118223
0.0729504
0.145215
0.0314631
0.114681
0.0726517
0.221303
0.172811
-0.017055
0.151876
0.286625
0.283109
0.17085
0.391342
-0.0141985
0.679833
0.567184
0.640713
0.343316
-0.0121971
0.256477
0.0887652
0.202542
0.333648
0.222322
0.83505
0.00660737
0.513419
0.0802002
0.180668
0.645144
-0.156943
0.852947
0.841748
-0.0702472
0.659278
0.90778
0.091903
0.553611
0.749927
-0.0682568
0.843801
0.9208
0.790081
-0.0380398
0.856837
0.750498
-0.477333
0.526605
0.820101
-0.0279257
0.275647
-0.106249
0.256665
0.223232
-0.100376
0.198581
0.209369
0.195364
0.165391
-0.148035
0.198948
0.0858605
0.093986
0.178508
0.135306
0.215526
-0.271499
0.468892
-0.330356
0.589164
0.0719943
0.0963198
-0.254276
0.35472
0.113086
0.0993886
0.0816997
0.185149
0.245762
0.0503096
0.0949052
0.146144
0.17204
0.204248
-0.132201
0.284076
0.0758388
0.210786
0.358948
0.514166
0.396214
0.283619
0.137233
0.429951
0.0404597
0.600254
0.0640653
0.192412
0.266608
0.201447
0.0188898
0.203432
0.914387
-0.43116
0.94458
-0.579343
0.659543
-0.118668
0.763812
0.684805
0.734279
-0.848489
0.778242
0.699737
0.751341
-0.741967
0.67371
0.164275
0.679526
0.178833
0.954356
1.03033
-0.173488
0.845502
-0.0950039
0.814678
-0.288073
-0.251519
1.07162
0.169398
0.10863
0.197573
0.0256591
-0.0239884
0.222569
-0.0100642
0.219433
-0.0857549
0.281119
-0.142931
0.308322
0.204966
-0.00601799
0.144296
0.00161944
0.176888
0.159265
-0.0239591
-0.375632
0.591158
0.138535
0.213532
-0.331637
0.403632
-0.2891
0.385419
0.0230829
-0.214489
0.327575
-0.0927305
0.17443
0.0924188
0.0848779
0.160884
-0.0628325
0.157738
0.0833114
0.0572467
0.114794
0.223138
0.0779524
0.206124
0.288738
0.0370333
0.321914
0.21311
0.301056
0.00764822
0.388565
-0.152894
0.436513
0.350343
0.277057
0.607902
-0.05143
0.243842
0.0967496
0.169858
0.298196
0.152002
0.483227
0.365237
-0.188946
0.0438628
0.719949
-0.201449
0.886254
-0.0706106
0.804889
0.700924
0.0773171
0.7436
0.930174
-0.166583
0.840293
-0.193839
0.873366
0.702837
0.453917
0.576408
0.672014
0.719674
0.303085
0.507368
0.564252
-0.0438219
0.21322
0.202349
-0.0937188
0.153751
-0.130712
0.156371
0.135277
0.0918574
0.194902
0.133678
0.138188
0.0938335
0.196331
0.145915
0.152929
-0.324551
0.463086
-0.420232
0.633764
0.114532
0.0608686
-0.246228
0.269311
0.081347
0.0509928
0.123437
0.177297
0.140466
0.0204175
0.0983308
0.059407
0.140558
0.00489451
0.109899
0.0666281
0.15651
-0.083603
0.289727
0.325772
0.00387338
0.318041
0.304929
-0.0200192
0.408585
0.416494
0.262921
0.0874223
0.539978
0.15327
0.454632
0.105016
0.138826
0.274874
0.214593
0.21863
0.813329
0.693436
-0.328199
0.50449
-0.0625358
0.782485
0.499476
0.815644
0.742354
0.746404
-0.669086
0.0397803
0.70382
0.763591
0.646454
0.291222
0.582144
0.994058
0.961285
-0.465084
1.04149
0.938764
-0.26675
0.710933
0.00874133
-0.384415
0.6875
-0.413334
0.977586
0.119502
0.156666
-0.00291456
0.152597
0.00377426
0.160135
-0.024858
-0.0448105
0.136668
0.140384
0.0545172
0.274062
-0.102496
0.240684
-0.217154
0.310988
0.194826
0.00150436
-0.00511341
0.151028
0.132502
0.0204277
0.0428545
0.249349
-0.201939
0.316471
-0.307239
0.368108
0.415154
-0.145843
-0.183298
0.264646
-0.0801964
0.131189
0.128332
0.0971004
0.0316407
0.108826
0.176927
0.0932174
-0.0519776
0.111385
0.0885805
0.0385579
0.0713411
0.0514202
0.238307
0.0313885
0.294383
-0.0181247
0.336166
0.392352
0.561854
-0.127505
0.543999
0.412473
0.494413
-0.0539271
0.192753
0.194391
0.0804833
0.225337
-0.0107435
0.164703
0.48513
0.756723
-0.252233
-0.0316463
0.814131
-0.496379
0.995855
0.683803
0.13184
-0.0923765
0.83473
0.250024
0.0876364
0.672174
0.764825
-0.125065
0.771519
-0.351878
0.934022
0.580724
0.515336
0.445949
0.47368
0.446925
0.594567
0.444182
-0.657384
0.666125
0.0301158
0.503826
0.47376
-0.100153
0.219654
0.0565131
0.149682
-0.118258
0.122032
0.115325
0.107644
0.0184103
0.249343
0.171566
0.0235298
0.127689
-0.14365
0.145154
0.0772021
0.0738264
0.0976298
-0.444536
0.48739
-0.262965
0.512314
0.213215
0.00923177
-0.0764276
0.118803
0.00760853
0.123581
0.0580517
0.0702802
0.128741
-0.0504772
0.159303
0.12645
-0.0224409
0.115658
0.0889437
0.127138
0.129393
0.276757
0.269695
0.276258
0.00987033
0.326296
0.402222
0.236632
0.325223
0.241787
0.302213
0.401501
0.0109712
0.731044
0.138509
0.0542442
0.183647
0.218992
0.029219
0.135484
0.722826
0.470594
0.100218
0.713913
0.634845
0.361009
0.591427
0.766685
0.934948
-0.748167
0.998191
-0.613522
0.701159
-0.0939243
0.766098
0.63976
0.419641
0.383691
0.550331
0.964415
0.962261
0.949776
-0.480287
0.953968
-0.162746
0.757313
-0.419614
0.863796
0.246511
-0.403358
0.433473
-0.449471
0.923231
0.0760045
-0.0874839
0.143997
0.0621985
-0.0219409
0.143973
0.0957271
0.0195976
0.122695
-0.0150512
0.114137
0.0440816
0.205262
0.192079
-0.0205128
0.215608
0.262548
-0.134859
0.239035
-0.0938813
-0.0306701
0.104497
0.101034
-0.0034041
0.513551
-0.0261606
0.250586
0.108956
0.281571
-0.0683566
0.290803
-0.296285
0.219857
-0.154754
0.273557
0.13635
0.0327173
0.0908634
0.102998
0.0684929
0.09081
0.155669
0.0849882
-0.0119564
0.1009
0.115182
0.0974599
0.0319329
0.0838949
0.192862
0.0359404
0.233755
-0.0181222
0.294381
0.238133
0.0881624
0.316881
0.0853408
0.567009
-0.165549
0.467761
0.235953
0.327852
0.63712
0.189728
-0.0941215
0.277769
0.12487
-0.126962
0.840875
-0.486474
0.847483
-0.352694
0.944121
0.413991
0.661247
0.273702
0.511718
0.639136
0.641138
1.06078
-0.3405
0.890831
0.514944
0.486109
0.476152
0.526585
0.423191
0.383509
0.803926
0.150042
0.641179
0.600427
0.156886
-0.319659
0.56617
0.740491
-0.307017
0.513338
0.409893
0.134962
-0.0589577
0.176852
-0.0328547
-0.0637146
0.125913
-0.0965589
0.074618
0.0802582
-0.0852469
0.104844
0.0374479
0.0859827
0.0175784
-0.126025
0.170106
0.184749
0.265118
-0.04951
0.107794
0.13026
0.113011
0.041081
0.101092
0.361339
-0.387499
-0.14988
0.400466
0.422845
-0.313889
-0.330046
0.261689
-0.00548198
0.425756
-0.205899
-0.0564888
0.0385069
0.0978427
0.0145368
0.0763266
0.0689868
0.0340107
0.107
-0.0210739
0.111884
0.134595
-0.0221776
0.107166
0.0787225
0.0437328
0.0714493
0.0405443
0.0569157
0.10092
-0.134709
0.218604
0.228803
0.215633
0.199504
0.0948763
0.323474
0.287667
-0.0592324
0.626242
0.408529
-0.302726
0.538679
0.0251264
-0.0189472
0.656067
-0.00251583
0.192244
0.14306
-0.0469561
0.171826
0.238549
0.602326
0.466578
0.380905
0.586722
0.357399
0.88057
0.899796
0.860424
0.510503
-0.0835348
0.722671
0.720278
0.389043
0.501788
0.903987
1.01269
1.07658
0.936529
-0.274118
0.657627
-0.642952
0.792994
0.503728
0.137451
0.660615
0.420831
0.615747
-0.0495762
0.115828
-0.49743
0.907324
0.117894
0.0930583
-0.0652822
0.1399
-0.043536
0.123794
0.0725077
0.0323368
-0.0820055
0.119453
0.00397718
0.0900861
0.173926
-0.0038199
0.206165
-0.0214164
0.156655
0.248506
-0.140712
0.233355
-0.103095
0.176499
-0.0634888
-0.11249
0.153571
0.085429
0.0156634
0.388413
-0.0270746
0.0382569
0.238533
0.0865771
0.307815
-0.0461258
0.302333
0.0964339
0.192018
0.112379
0.110337
0.0242284
0.0827713
0.136112
0.132079
0.0579218
0.049244
0.00457281
0.0741497
0.0842771
0.0760221
-0.0309584
0.0878741
0.0699613
0.154961
0.0636433
0.0380832
0.190719
0.200004
0.0156291
0.29488
0.303209
0.0202651
0.210398
0.0772684
0.607295
-0.196616
0.605145
0.342063
0.328335
0.572532
0.145288
-0.0327736
0.175834
0.181163
-0.00933644
-0.386536
0.988862
-0.508701
0.889606
-0.497303
0.854701
0.383267
0.632058
0.267737
0.618063
0.242361
0.336135
0.721347
-0.188473
0.690262
0.406557
0.448844
0.56385
0.381707
0.694872
0.544733
0.391796
0.341629
0.0146749
0.51729
0.275704
0.654741
-0.318549
0.979164
0.413263
0.00756793
0.363687
-0.317101
0.432929
0.520876
0.386448
0.00540414
-0.0558256
0.148884
0.0248039
0.0963642
0.0679686
-0.0494346
0.0817714
0.0700187
0.0894062
0.15251
0.17268
0.213856
-0.0572009
0.0926424
0.110761
-0.176351
0.112862
-0.0227799
0.0735852
0.306644
-0.333718
0.339342
-0.301085
0.332693
-0.0941598
0.41927
-0.231205
0.18508
0.301898
-0.205464
0.264713
-0.072695
0.0381766
0.0742029
0.0236079
0.0867294
0.120948
0.0260956
0.110017
0.158175
-0.0323635
0.0816075
0.0417861
0.0262551
0.0580219
0.0417631
0.034259
0.0425794
0.0452947
-0.00417548
0.0741368
0.193044
-0.122629
0.186272
0.206348
0.181007
0.113873
0.230663
0.258275
0.532242
0.0750528
0.427733
0.177411
-0.0493039
0.391367
-0.0791927
0.407528
0.517561
0.0549711
0.106801
0.0384866
0.148389
0.0532046
0.0974648
0.218607
0.770255
0.334741
0.554864
0.591382
0.263319
0.718009
0.850665
0.8858
0.833744
0.853696
0.532874
0.508816
0.181446
0.915373
0.993577
0.945557
-0.0209444
0.715816
0.912672
0.560867
-0.219238
0.575542
0.680093
-0.404389
0.336192
0.711698
0.267466
-0.297509
0.305077
0.421134
-0.057447
0.102169
0.533131
-0.100202
-0.554934
0.941382
-0.106
0.111404
0.0428841
-0.0765886
0.101393
0.0922914
0.00407277
-0.0406305
0.108599
0.00518278
0.0584794
0.0115393
-0.015274
0.10468
0.180024
-0.0275145
0.141393
0.0312867
0.122823
0.245728
-0.153086
0.188814
-0.0780532
-0.0799363
0.192798
-0.116913
0.0941335
-0.0100888
0.0836741
0.236624
0.0700198
0.00562324
0.000813066
0.142464
0.0335071
0.337584
-0.152505
0.13212
-0.22923
0.156535
0.0978108
0.0825539
0.0465314
0.0744166
-0.00206926
0.112086
0.0797497
0.0784251
0.0715187
0.0835492
0.0605141
0.0104016
0.0476204
0.052981
-0.0114589
0.0567536
0.0626779
0.020186
0.172858
0.138732
0.0475406
-0.0161935
0.222542
-0.167637
0.28151
-0.108966
0.339629
0.149309
0.587213
0.502786
-0.280796
0.458207
-0.354617
0.305313
0.110571
0.260437
0.0529114
0.118236
0.1095
0.0388891
0.162705
-0.0506107
0.148076
0.0322873
0.737968
0.553617
-0.576681
0.84
0.141327
0.25213
0.598535
0.551851
0.333948
0.615297
0.218447
0.828882
0.0248135
0.534146
0.715591
0.360439
0.393496
0.600081
0.340298
0.605259
0.690754
-0.0666854
0.782502
0.519475
0.393197
0.201896
0.652408
-0.0768656
0.386492
0.293601
0.248019
0.722684
-0.504791
0.772256
0.235622
0.403618
-0.0985408
0.346171
0.327837
-0.225668
-0.274977
0.174775
0.549724
0.391657
-0.00550936
-0.069592
0.112476
0.113803
-0.0124103
0.0516609
-0.0588026
0.0628754
0.0390072
0.0636622
-0.0591931
0.0707324
0.0684
0.0454871
0.113878
-0.123355
0.154641
0.194079
-0.071256
0.016498
0.0357288
0.116026
-0.138188
0.0582514
0.0694437
-0.0440542
-0.157504
0.227524
0.222006
-0.216383
-0.204867
0.20568
-0.124439
0.266904
0.24842
-0.214913
0.0959154
0.209655
-0.0775349
-0.0583781
0.0364018
0.061409
0.0156997
0.0668542
0.0829332
0.0723473
0.048355
0.0637311
0.12678
-0.000562375
0.072081
0.0564678
0.0270814
0.014394
0.0461201
0.0620144
0.00161068
0.0513703
0.0583643
0.00486618
0.0578117
0.158918
0.156664
-0.126022
0.173563
0.0549053
0.148292
0.133218
0.297601
0.728191
-0.140978
0.46749
0.0352966
0.414128
0.044079
0.270461
0.034852
0.381032
0.304041
-0.0436042
0.356952
0.0676257
-0.111323
0.150212
0.0366827
0.0367529
0.861169
0.0796386
0.65833
0.694944
0.579247
0.260753
0.803981
0.678174
0.949246
0.797693
0.753004
0.716543
1.07698
0.912971
0.940379
-0.163016
0.768275
0.624069
0.619486
0.942921
-0.321064
0.52296
-0.451742
0.374876
0.548533
-0.254932
-0.199002
0.44702
0.217893
0.732302
0.0399538
0.320485
-0.0848621
0.221944
0.0251069
0.0528596
-0.340962
0.115293
0.342551
-0.167776
-0.422102
0.81376
-0.086136
0.0806266
0.02634
0.0550002
-0.100329
0.0879187
-0.0287062
0.0803671
0.0635829
-0.000707559
-0.0483193
0.0873265
-0.0366669
0.0340656
-0.00516934
0.0735694
-0.0375218
0.0830089
-0.0516976
0.165576
0.102944
0.09432
-0.165282
0.18178
-0.158178
0.193907
-0.0421517
0.128996
-0.0707445
0.121019
-0.0515757
-0.110564
0.0665098
-0.26782
0.110316
0.103085
-0.0458142
-0.283343
0.0669606
0.0047884
-0.0776635
-0.0740578
-0.137769
0.233684
-0.218294
0.140759
-0.162488
0.10411
0.0771086
0.0717204
0.0227225
0.0602107
0.0950698
-0.0416592
0.10539
0.0407823
0.0859978
0.0559054
0.0669117
0.0732015
-0.00125342
0.0632678
0.0501169
0.00800992
0.0503544
0.0658216
0.012316
0.146602
0.155105
0.00155934
0.101249
0.0723138
0.21001
0.215969
-0.0827514
0.222381
0.0752205
0.326512
0.449425
-0.33399
0.378069
-0.284199
0.319051
0.0470413
0.178776
0.0727536
0.108408
0.107088
0.0431235
0.143771
-0.0911506
0.127903
0.424692
0.436477
1.08302
0.693801
0.954555
0.276416
0.527565
0.95459
0.363585
0.58566
-0.162997
0.960691
-0.113016
0.86602
0.65488
0.466672
0.446299
0.320889
0.61949
0.62021
0.148065
-0.0881057
0.712174
0.555961
0.0635252
0.413636
0.529285
0.0712181
0.453903
-0.0790267
0.425837
0.122696
-0.520505
0.265573
0.254901
-0.0734853
0.64373
0.644197
-0.531455
0.571409
-0.318849
0.233987
-0.0839416
0.305885
-0.299015
0.324122
0.24593
-0.193071
0.268736
-0.153443
0.0237023
0.078154
0.0303741
0.783386
-0.0299373
-0.0644648
0.0908048
0.0635734
-0.00857313
0.0707226
0.0171962
0.0348767
0.0320478
0.0628658
0.0228617
-0.0358249
0.0698904
0.0360476
0.0471841
-0.0472588
0.150202
-0.0588319
0.153152
0.0286244
0.019292
-0.133341
0.091189
0.123197
0.00579922
-0.105244
0.0344995
0.131208
-0.0101882
0.0716209
-0.0387342
-0.115006
0.225322
0.206579
-0.103494
0.110578
-0.156392
0.194451
-0.127491
-0.154556
0.159345
-0.199154
0.12149
0.132521
0.0780143
-0.215783
0.0153903
-0.0137971
0.177808
-0.0736975
0.0216885
0.0554201
0.0165102
0.0552103
0.0818992
0.0534106
0.0757068
0.0296834
0.0104932
0.0755046
-0.0148225
0.0707279
0.0424161
0.0244955
0.058379
0.0436755
0.0195923
0.0145798
0.0355371
0.0649342
0.00790708
0.0579145
0.113565
0.148161
-0.0373613
0.109675
0.249279
-0.0392686
0.147401
0.0685681
0.166527
0.222622
-0.36482
0.691332
0.0846047
0.45771
-0.0796411
0.274255
0.0447961
0.321296
-0.131915
0.310691
-0.24155
0.314303
0.0172574
0.109646
-0.0665224
0.151213
-0.0074423
0.101283
0.02662
-0.393772
0.830249
0.425356
0.657666
0.791557
0.89115
0.372988
0.581602
-0.265227
0.850887
0.695464
-0.650425
0.537409
0.472249
0.655661
0.787561
0.859935
-0.0737563
0.693246
0.546454
0.704025
0.775699
-0.186352
0.715638
0.3465
-0.275282
-0.352358
0.273331
0.390133
-0.267437
0.450816
-0.185243
0.366846
-0.111945
0.293361
0.112275
0.798719
-0.154523
0.623465
-0.052056
0.272535
-0.038548
0.188593
0.00687028
0.373277
-0.0491554
0.0756654
-0.252891
0.0994485
0.260923
-0.237221
0.223825
-0.145671
0.686035
0.597033
0.0608675
0.0621494
-0.0496414
0.0668376
-0.0373546
0.0722313
-0.0392841
0.071332
0.0255112
-0.0534877
0.0763494
0.0805153
-0.0106249
0.0784637
0.0552733
-0.00808918
0.0839489
0.0913705
0.0198112
0.179448
-0.150823
0.159841
-0.140549
0.164092
-0.072903
0.0828778
-0.0770786
0.0976486
-0.0631492
-0.0902043
0.0800161
-0.0185834
-0.0927344
0.0540002
-0.202543
0.0875377
0.121827
-0.0919658
0.0380594
-0.193382
0.0658908
-0.0398093
-0.071891
-0.12037
0.170162
-0.0921475
-0.0379754
-0.13895
0.154341
-0.142618
0.128821
0.0861431
0.0719303
0.0631173
0.0337519
0.0481473
0.0871625
0.0862
-0.0510474
0.0807308
0.092762
0.0296164
0.0411115
0.054112
0.00908787
0.0492911
0.0527633
0.0551294
0.0372964
0.0276378
0.00235081
0.0555637
-0.0351149
0.14868
0.178073
-0.0299119
0.113852
0.0745602
0.138805
-0.15391
0.222479
0.0126169
0.0907071
0.0409068
0.542315
-0.303034
0.223393
-0.271706
0.316502
0.0182615
0.0691412
0.0425979
0.0895586
0.0200873
0.0347611
0.0821163
-0.0411896
0.0678096
0.868257
-0.0380087
0.798344
-0.0211628
0.678829
0.790662
0.388054
0.503097
0.969656
0.315203
0.535685
-0.103595
0.799059
-0.110146
0.647555
0.739188
-0.266939
0.244171
0.54339
0.44656
0.413374
0.937417
-0.369122
0.915576
0.334903
0.482372
0.293327
0.498607
0.217031
-0.005858
0.0979953
0.356895
-0.0835639
-0.107119
0.497253
0.183379
-0.405858
0.220615
0.24495
-0.112497
-0.309709
0.421984
0.454731
0.343988
0.468942
-0.532025
0.479969
-0.236088
0.19754
0.22631
-0.0377166
0.23318
-0.315326
0.26617
0.25172
-0.176055
0.181934
-0.0824858
0.0248348
-0.0133955
0.106049
0.686803
0.574648
0.0223849
-0.031867
-0.00261928
0.0647687
0.0308739
0.0600895
0.00674812
0.0329471
0.0178443
-0.0244836
0.0499949
0.0810979
-0.00474853
0.0446484
0.0478338
0.0306299
0.0397447
-0.029587
0.113536
0.113243
-0.021873
0.133055
0.0388991
0.0132687
0.0601517
0.0817496
0.00112822
0.0205701
-0.068034
0.00488484
0.106799
-0.0267833
0.0631662
-0.0140338
-0.115568
0.203106
0.167725
-0.0458973
-0.15095
0.0589844
-0.112891
0.158092
-0.0922009
-0.156459
0.116649
-0.152278
0.0803872
0.0473549
0.0312113
0.0643161
-0.156464
-0.138328
0.100352
0.011723
-0.027638
-0.0521847
0.0212577
0.0506726
0.00780479
0.0553125
0.069405
0.0361151
0.0183359
0.0678641
0.0621014
0.0186294
0.0906315
0.00213056
-0.00339491
0.0445064
-0.000849332
0.0549613
0.0458962
0.0382006
0.0145628
0.0178274
0.037302
0.0396472
0.0454652
0.0257576
0.0298061
0.118768
0.0805038
0.0333481
0.155064
0.209899
-0.0710942
0.152596
0.0698825
-0.132409
0.145026
0.243303
-0.483296
0.524202
0.0590194
-0.214554
0.437947
0.268466
0.0480357
0.286727
-0.200468
0.269609
-0.246751
0.289349
-0.0758671
0.0959544
-0.0530826
0.0878438
-0.0574104
0.139527
0.0494418
0.0147269
0.847095
0.701179
0.106726
0.691618
0.785555
0.687066
0.818299
0.277702
0.691954
-0.156249
0.691934
0.64281
-0.553799
0.443653
0.380616
0.989951
0.911981
0.228109
0.709308
0.544527
0.371049
0.817276
0.748058
0.791679
-0.242719
0.236861
-0.211381
0.309377
-0.32461
0.241047
-0.358628
0.251509
0.187544
-0.17525
0.367074
-0.146459
0.333514
-0.0885645
0.221018
-0.110041
0.630418
-0.28643
0.610444
-0.141502
0.509376
-0.029407
0.238822
-0.0412813
0.201105
-0.0821456
0.0547892
0.00587975
0.0964355
-0.178921
0.155814
-0.130979
-0.235203
0.221807
-0.129154
0.709188
0.0492309
0.0574702
0.0402851
-0.0291386
0.0600124
-0.0465917
0.0533398
-0.0230174
0.0559646
-0.035491
0.0533353
0.0464763
0.00351855
-0.0587429
0.0539944
0.0587495
-0.0141011
-0.0193667
0.0499966
0.0517656
-0.0120209
0.0772124
0.0906566
0.0228793
0.0687837
-0.0994393
0.138338
-0.102744
0.116013
0.09911
-0.0389584
0.0531779
-0.0520497
0.0750407
-0.0544706
-0.0476061
0.052491
-0.0872556
0.0604724
-0.0240895
0.043706
-0.0577398
-0.171172
0.0556039
0.152437
0.0506693
0.106539
-0.112188
0.0452009
-0.15282
0.0606195
-0.0356288
-0.0724333
0.201035
-0.15368
-0.118299
0.14951
0.117922
-0.0536061
-0.0561112
-0.0975841
0.109307
-0.135223
0.107585
-0.121364
0.0691798
0.0584774
0.0168208
0.0384917
0.0352846
0.0341204
0.0713997
0.0804372
0.0699947
-0.050611
0.0692404
0.0436571
0.0355946
0.00589925
0.039997
0.0440998
0.0518648
-0.00355242
0.0431996
0.0419128
0.0425784
-0.0157928
0.0455989
-0.0584967
0.177264
-0.0882645
0.121613
0.0965673
0.0774895
0.10617
-0.10205
0.171932
0.194932
-0.0499058
0.0428353
-0.0295968
-0.445256
0.504275
0.0721739
-0.00730909
-0.27779
0.325825
0.0228577
0.0115595
0.0119766
0.0385441
0.0512622
0.0578921
-0.00845031
0.0726191
0.196513
0.650582
-0.134841
0.83602
0.96932
-0.117817
0.903372
0.686124
0.118104
0.700196
-0.173051
0.865005
0.810037
-0.124602
0.767413
0.565946
-0.122293
-0.214437
0.595053
0.249151
0.7408
0.239008
0.672973
0.772636
0.958459
-0.466902
0.83795
0.350374
0.516939
0.23112
0.621094
0.170585
0.0666576
-0.0877496
0.34565
-0.104604
0.398682
-0.147173
0.382746
-0.195202
0.191824
-0.336253
0.189795
0.257086
-0.115236
0.272705
0.473519
0.156898
0.324015
0.367873
0.361336
-0.390743
-0.213782
0.1725
0.228408
-0.0273035
0.146263
-0.224217
0.279006
-0.190821
0.196701
-0.0943856
0.0221137
-0.0579677
-0.22114
0.0901605
0.000667467
-0.226019
0.0968652
0.709846
0.0652194
-0.0159885
0.0516463
0.00582392
0.0442646
-0.00397956
0.0296109
0.0134208
0.055933
-0.00259323
0.0234589
0.0204735
-0.0054076
0.0477832
0.064671
-0.0106766
0.0376645
0.0379757
0.0710803
0.00613209
0.0939596
-0.0535328
0.122317
-0.153233
0.0537932
0.016974
-0.00363432
-0.0372195
-0.107869
0.0689109
0.0759731