/*--------------------------------*- C++ -*----------------------------------*\
| =========                 |                                                 |
| \\      /  F ield         | OpenFOAM: The Open Source CFD Toolbox           |
|  \\    /   O peration     | Version:  v2012                                 |
|   \\  /    A nd           | Website:  www.openfoam.com                      |
|    \\/     M anipulation  |                                                 |
\*---------------------------------------------------------------------------*/
FoamFile
{
    version     2.0;
    format      ascii;
    class       surfaceVectorField;
    location    "2";
    object      Uf;
}
// * * * * * * * * * * * * * * * * * * * * * * * * * * * * * * * * * * * * * //

dimensions      [0 1 -1 0 0 0 0];


internalField   nonuniform List<vector> 
18781
(
(1.00006 0.000173156 -1.7772e-24)
(1.00008 0.000151822 2.2876e-22)
(1.00011 0.000327485 8.11691e-23)
(1.00005 0.000165117 1.3059e-24)
(1.00012 0.000310117 3.39525e-24)
(1.0001 0.000152783 1.17733e-23)
(1.00011 0.00047002 4.19061e-23)
(1.00015 0.000501464 1.31544e-24)
(1.00003 0.000171224 3.07298e-25)
(1.00016 0.000487861 -1.04549e-22)
(1.0002 0.000465457 -1.5462e-24)
(1.00009 0.000104702 -2.3156e-22)
(1.00015 0.000625449 -2.52098e-23)
(1.00009 0.00045019 -1.05204e-22)
(1.00022 0.000620257 1.45804e-24)
(1.00006 0.000323001 5.07284e-24)
(1.00003 0.000179439 -3.81893e-23)
(1.00019 0.000342189 -3.13397e-24)
(1.00025 0.000505065 0)
(1.00014 0.000174506 -3.52311e-24)
(1.00021 0.000761986 9.91752e-25)
(1.00015 0.00076845 -1.69213e-25)
(1.00009 0.000474287 -1.09704e-24)
(1.00025 0.000738055 0)
(1.00027 0.000729414 0)
(1.00002 0.000179138 -3.13348e-23)
(1.00027 0.000498024 -7.42014e-24)
(1.00033 0.000614145 0)
(1.00021 0.000353252 -7.37201e-24)
(1.00014 0.000170776 0)
(1.00027 0.000860265 0)
(1.00011 0.000655221 -7.14795e-24)
(1.00012 0.000794237 -3.56774e-25)
(1.00009 0.000517169 3.09488e-23)
(1.00035 0.000762918 0)
(1.00034 0.000850252 0)
(1.00004 0.000372045 5.8988e-25)
(1.00002 0.000203307 1.35657e-24)
(1.00029 0.000466206 1.19423e-22)
(1.00044 0.000739537 0)
(1.00013 0.000128659 -5.81625e-24)
(1.00033 0.000933441 0)
(1.00027 0.000944628 -1.95691e-25)
(1.00013 0.000909699 -3.05599e-25)
(1.00006 0.000833296 5.40749e-23)
(1.00004 0.000537662 -6.99901e-23)
(1.00039 0.00090805 5.5533e-24)
(0.999987 0.000194842 -7.43739e-23)
(1.00027 0.000419909 1.37047e-23)
(1.00036 0.000552002 7.05996e-23)
(1.00045 0.000655043 3.49993e-24)
(1.00052 0.00074488 0)
(1.00019 0.000321971 -5.2159e-24)
(1.0002 0.000201592 -5.95629e-22)
(1.00019 0.00097296 -3.64695e-25)
(1.00026 0.00103896 9.70518e-24)
(1.00012 0.00101075 1.24474e-22)
(1.00004 0.000722612 3.51427e-23)
(1.00003 0.000852546 5.64951e-25)
(1.00002 0.000561874 5.27119e-23)
(1.00047 0.000952705 -1.8449e-22)
(1.0004 0.00104033 4.62009e-24)
(0.999984 0.000155008 -4.96682e-24)
(0.999991 0.000330367 -2.57676e-24)
(1.00026 0.000372408 3.67292e-25)
(1.00046 0.000580828 3.44238e-24)
(1.0006 0.000860029 -3.99598e-24)
(1.00063 0.000715183 2.20742e-24)
(1.00032 7.59315e-06 3.22584e-22)
(1.00033 0.00107972 1.74029e-24)
(1.00026 0.00113024 1.35243e-23)
(1.0001 0.001118 -5.31472e-25)
(1.00006 0.00102856 -2.21088e-22)
(1.00001 0.000922025 6.92085e-25)
(1.00001 0.000847943 0)
(0.999998 0.000488508 -2.54715e-25)
(0.999991 0.000694449 4.01493e-25)
(1.00056 0.00094076 -6.12872e-22)
(1.00053 0.00103211 -3.91488e-24)
(1.00039 0.00113305 8.24657e-24)
(0.999993 0.000149745 7.47309e-24)
(0.999979 0.000448314 -7.77106e-23)
(1.0004 0.000437387 4.75683e-25)
(1.0003 0.000333395 0)
(1.00053 0.000508697 -1.83083e-23)
(1.00067 0.000968643 4.18027e-23)
(1.00067 0.000666331 -4.36704e-23)
(1.00075 0.000773753 -6.52711e-24)
(1.00016 -4.41889e-05 -1.25058e-23)
(1.00017 0.00118475 5.68533e-23)
(1.00026 0.00125747 -2.96483e-24)
(1.00005 0.00118819 -1.65422e-22)
(0.999981 0.00103056 8.10128e-25)
(0.999942 0.000806211 3.46376e-24)
(1.0005 0.00113705 3.61098e-22)
(1.0006 0.00118672 -5.93025e-24)
(1.00046 0.00124193 4.25446e-22)
(0.999973 0.000334186 2.22271e-24)
(0.999985 0.000199583 2.18735e-23)
(0.999953 0.000489643 1.06034e-22)
(1.0003 0.000204966 0)
(1.00043 0.000342804 0)
(1.00064 0.000582379 -2.3856e-24)
(1.0006 0.000427936 -4.79059e-25)
(1.00077 0.000936997 -2.08625e-24)
(1.00081 0.00105504 5.27638e-22)
(1.00075 0.000596797 -1.84928e-24)
(1.00089 0.000822687 1.42504e-22)
(1.00026 5.04211e-05 4.36734e-24)
(1.00038 0.00134165 -3.55335e-24)
(1.00025 0.00138786 -1.15131e-22)
(0.999979 0.00118043 -7.18601e-25)
(1.00003 0.00132678 -4.01621e-24)
(0.999928 0.00111363 0)
(0.999874 0.00103612 -8.59981e-24)
(0.999907 0.000708122 6.86122e-24)
(0.999874 0.000833857 -9.4656e-23)
(1.00075 0.00128562 -6.03361e-22)
(1.00062 0.00139375 8.40212e-25)
(1.00051 0.00138221 -3.53745e-23)
(0.999958 0.000192744 -1.4804e-24)
(0.999923 0.000559124 -1.09118e-24)
(1.00051 0.000328471 0)
(1.00038 0.000289828 8.1914e-24)
(1.00063 0.000355242 1.66638e-23)
(1.00094 0.00125849 1.27762e-22)
(1.00076 0.000453394 1.59179e-23)
(1.00087 0.000563437 -7.00953e-24)
(1.00099 0.000697611 -9.03055e-24)
(1.0011 0.000895701 -2.43926e-23)
(1.00032 0.000215618 1.20877e-23)
(1.00039 5.60495e-05 6.79362e-22)
(1.0001 0.00146305 1.88755e-22)
(1.00023 0.00155166 9.95404e-26)
(0.999899 0.00119251 -1.87164e-24)
(0.999952 0.00145789 -1.94584e-22)
(0.999845 0.000907215 2.06006e-23)
(0.999752 0.0010145 -4.06041e-22)
(0.999856 0.000829257 7.92272e-23)
(1.00057 0.00145802 -2.75507e-22)
(0.999942 0.000185948 0)
(0.999929 0.000357831 3.79853e-24)
(0.999871 0.000703746 -1.22077e-23)
(0.999908 0.00051737 1.29798e-22)
(1.0004 0.000232268 1.87752e-22)
(1.00074 0.000314663 -4.34539e-23)
(1.00113 0.00117532 1.73557e-23)
(1.00106 0.00134529 1.41953e-24)
(1.00104 0.000536945 9.10726e-23)
(1.00133 0.000974055 -3.45047e-22)
(1.00029 -0.000136482 -8.58782e-22)
(1.00043 0.00163434 2.25706e-24)
(1.00025 0.0017385 -2.4972e-22)
(0.999855 0.00137472 -3.23169e-24)
(0.99975 0.0012295 1.85452e-22)
(0.999859 0.00149294 -1.28071e-24)
(0.999667 0.00101882 -6.65762e-23)
(0.999694 0.000939964 7.37456e-24)
(0.99982 0.000787192 2.16226e-22)
(1.00066 0.00158226 -4.95875e-24)
(0.999928 0.000153525 2.11873e-24)
(0.999877 0.000492104 -2.01697e-24)
(1.00035 6.73388e-05 1.49674e-22)
(1.00054 0.000125301 -7.29645e-24)
(1.0007 0.000181116 -3.28476e-23)
(1.00087 0.000259282 -9.65022e-23)
(1.00123 0.00147923 8.09533e-24)
(1.00101 0.00151556 1.61603e-23)
(1.00104 0.000361693 -1.73493e-25)
(1.00119 0.000488602 4.92118e-22)
(1.00145 0.000765516 -1.96627e-23)
(1.00154 0.00105391 2.31991e-22)
(1.0003 5.27954e-05 -5.24724e-22)
(1.00049 -9.64357e-05 3.69742e-24)
(1.00027 0.00206219 1.15831e-24)
(1 0.00187694 3.44712e-24)
(0.999633 0.00112987 2.50907e-24)
(0.999599 0.00134023 6.09815e-23)
(0.999826 0.00172501 2.12762e-24)
(0.999695 0.00154626 5.1553e-24)
(0.999567 0.00103098 4.59296e-24)
(0.999738 0.000846447 4.46878e-24)
(0.999647 0.00087231 0)
(0.999779 0.00071894 3.55536e-24)
(1.00086 0.001589 7.21063e-22)
(1.0008 0.00196238 -6.73322e-24)
(0.999909 0.000294973 1.46228e-23)
(0.999918 0.000153823 1.03903e-22)
(0.999824 0.000589169 -7.57847e-24)
(0.999865 0.000445971 1.32828e-22)
(1.00034 4.1737e-05 -9.32298e-24)
(1.00065 7.5725e-05 9.50089e-24)
(1.00102 0.000177391 3.60241e-23)
(1.0015 0.00144814 2.1346e-24)
(1.00141 0.00175939 5.38696e-23)
(1.00106 0.00188357 7.54661e-24)
(1.00138 0.000614386 5.22732e-24)
(1.00137 0.000333686 -3.04266e-22)
(1.00159 0.000628704 0)
(1.00165 0.00119429 3.00685e-22)
(1.00181 0.00100691 3.0488e-23)
(1.0002 -0.000479609 4.56891e-22)
(1.00058 0.00220154 0)
(1.00022 0.00233136 5.53503e-25)
(0.999776 0.00197639 5.98603e-23)
(0.999565 0.00143078 -5.01682e-22)
(0.999462 0.00136278 -7.36939e-24)
(0.999513 0.00165804 -2.45094e-24)
(0.999437 0.00115341 -1.1471e-23)
(0.999456 0.00100046 6.20864e-24)
(0.999542 0.000821801 0)
(0.999621 0.000762918 9.25602e-25)
(0.999752 0.000659849 -8.4534e-24)
(1.0009 0.00222857 0)
(0.999854 0.000408314 1.07869e-22)
(0.999928 0.000115962 4.22791e-24)
(1.00035 -0.000202413 -1.76106e-22)
(1.00053 -2.0102e-05 -7.67491e-24)
(1.00062 2.00829e-05 3.35563e-23)
(1.00068 -3.39125e-06 -7.65114e-23)
(1.00096 1.40097e-05 7.55815e-25)
(1.00118 7.19851e-05 1.12732e-22)
(1.00188 0.00147988 -1.90813e-23)
(1.00127 0.00201872 -3.71678e-24)
(1.00154 0.00207347 -8.93697e-23)
(1.00107 0.00214403 0)
(1.00133 0.00013579 2.66442e-23)
(1.00159 0.00019913 1.25518e-22)
(1.0018 0.000667401 9.19476e-24)
(1.00174 0.000481494 -1.62449e-23)
(1.00204 0.000800088 -4.21926e-22)
(1.00022 -0.000229978 -1.02346e-21)
(1.0002 0.00267074 -7.06446e-23)
(0.999939 0.00243665 4.25941e-24)
(0.999578 0.00197771 4.00933e-22)
(0.99967 0.00217542 3.75789e-24)
(0.999285 0.00124777 -5.2997e-22)
(0.999317 0.00181764 7.5236e-22)
(0.99942 0.000902528 0)
(0.999282 0.000952437 0)
(0.999436 0.000740797 -1.05687e-23)
(0.999691 0.000675064 5.95466e-24)
(0.999592 0.000662286 -8.23786e-24)
(0.999753 0.000587436 -3.92886e-23)
(1.00106 0.0024431 9.57919e-24)
(0.999864 0.000333409 -3.21486e-22)
(0.999809 0.000459979 -1.58919e-23)
(0.999855 0.000200028 1.3937e-23)
(1.00059 -7.06741e-05 -4.75189e-24)
(1.00079 -2.3888e-05 -9.16319e-24)
(1.00069 -0.000129308 2.24031e-23)
(1.00093 -0.000120448 0)
(1.00132 -8.07293e-06 -5.22772e-23)
(1.00205 0.00185441 -4.17763e-24)
(1.00225 0.00145666 3.16062e-23)
(1.00185 0.00212636 6.43193e-24)
(1.00169 0.00242333 7.96226e-25)
(1.00184 0.000197922 3.10018e-23)
(1.00228 0.000484323 4.1366e-23)
(1.00232 0.000937244 -5.03847e-22)
(1.0006 -8.06343e-05 -1.60037e-24)
(1.00029 0.000168734 -1.24265e-21)
(1.00007 0.00309264 4.08287e-23)
(1.00054 0.00291132 -4.67378e-24)
(0.99955 0.00248623 -2.10017e-22)
(0.999078 0.00113345 1.41198e-23)
(0.999109 0.00140745 6.23244e-24)
(0.999083 0.00167331 1.14589e-22)
(0.999099 0.00199802 -6.03056e-24)
(0.999122 0.00089359 -4.51357e-25)
(0.999238 0.000772249 2.62698e-25)
(0.999338 0.000696358 -1.39018e-23)
(0.999438 0.000639485 -1.80726e-23)
(0.999504 0.000615864 -3.53627e-25)
(0.999589 0.000569068 1.39908e-22)
(0.999738 0.000502359 3.38016e-24)
(1.00146 0.00267052 3.77863e-22)
(1.00096 0.00280058 3.23644e-22)
(0.999826 0.000267652 7.18924e-24)
(0.999866 0.000153313 6.6975e-22)
(1.0004 -2.39762e-05 1.07463e-23)
(1.0005 -0.000163431 -1.98025e-23)
(1.0006 -0.000207292 -9.82282e-23)
(1.0007 -0.0002701 1.4232e-23)
(1.00085 -0.000310108 0)
(1.00101 -0.000278852 0)
(1.00125 -0.000228954 -1.21394e-23)
(1.00146 -0.000190471 -1.24521e-23)
(1.0022 0.00225276 -2.55953e-22)
(1.00242 0.00117018 -2.36085e-22)
(1.00265 0.00152456 2.19821e-23)
(1.00181 0.00287604 -2.49664e-23)
(1.00218 0.000196292 1.43969e-23)
(1.00198 -1.39005e-05 7.10399e-22)
(1.00245 0.00023663 -5.37429e-22)
(1.00263 0.000871263 -7.88548e-24)
(1.00088 -0.000809418 2.03955e-21)
(1.00015 -5.21228e-05 1.11494e-23)
(0.999994 0.00357051 2.31048e-23)
(0.999711 0.00316796 3.88858e-23)
(1.00094 0.00333185 -2.45967e-23)
(0.999465 0.00290196 3.5216e-23)
(0.999238 0.00251647 -6.4617e-24)
(0.998924 0.000917909 -4.58286e-25)
(0.998828 0.00145464 -1.41517e-22)
(0.999055 0.00230717 -6.89003e-24)
(0.998803 0.00206414 -5.34282e-22)
(0.999216 0.000673693 -7.43804e-24)
(0.999442 0.000572744 8.78573e-24)
(0.999652 0.000530615 9.01389e-24)
(0.999616 0.000519917 1.07358e-23)
(0.999724 0.000431231 5.54501e-23)
(0.999797 0.000334349 8.5564e-24)
(0.999819 0.000287596 -4.69947e-24)
(0.999875 4.97353e-05 1.15546e-23)
(1.00054 -0.000301837 -6.4522e-22)
(1.00073 -0.000386949 9.21731e-24)
(1.00114 -0.000422276 0)
(1.00178 -0.000223925 2.67995e-23)
(1.00155 -0.000463432 0)
(1.00264 0.00218552 -2.7178e-23)
(1.00252 0.00272437 1.06868e-23)
(1.00284 0.00186655 -6.44846e-23)
(1.00302 0.00153611 -2.34114e-23)
(1.0023 0.00314917 4.25646e-22)
(1.00178 0.0033916 -1.73003e-23)
(1.0021 -0.00037581 9.19134e-24)
(1.00271 0.00054019 -2.06501e-24)
(1.00275 8.16413e-05 -6.2033e-24)
(1.00295 0.000808943 -3.00033e-23)
(1.00014 -0.000732405 -1.08583e-23)
(1.0003 -0.000406259 1.35442e-23)
(1.00003 -0.000341061 0)
(1.00033 0.00388126 -1.22575e-24)
(0.999826 0.00404498 5.90292e-25)
(0.99932 0.00323229 6.42816e-24)
(1.00136 0.0036017 -7.10064e-24)
(1.00082 0.0037711 -3.01499e-24)
(0.998922 0.00265688 -1.1016e-23)
(0.998758 0.000773816 -3.18979e-24)
(0.998681 0.00104538 0)
(0.998651 0.00126405 -1.41272e-23)
(0.99856 0.00164542 -1.36346e-23)
(0.998563 0.0018992 8.37427e-24)
(0.99846 0.00219409 7.28861e-24)
(0.999233 0.000477098 2.79196e-22)
(0.999075 0.000530858 -7.93063e-24)
(0.999374 0.000469237 1.04249e-23)
(0.999472 0.000482251 5.72662e-24)
(0.999564 0.00046463 5.12508e-24)
(0.999643 0.000438828 -6.16604e-24)
(0.999708 0.000393438 2.07291e-22)
(0.999837 0.00020297 -1.10603e-22)
(0.999781 0.000284826 1.10405e-22)
(0.999845 0.000104273 1.23671e-23)
(1.00049 -0.000507693 5.71318e-24)
(1.0006 -0.000491162 -2.08297e-25)
(1.00073 -0.000506355 -6.46386e-23)
(1.00104 -0.000527288 0)
(1.00119 -0.000595148 0)
(1.00135 -0.000643788 0)
(1.00161 -0.000714443 -1.33678e-23)
(1.00314 0.00230375 -5.00388e-22)
(1.00274 0.00317691 -8.32684e-23)
(1.00319 0.00120692 -4.76977e-23)
(1.00346 0.00162889 6.74158e-22)
(1.00187 0.00395375 -3.87015e-23)
(1.00242 -0.00055336 -3.95676e-23)
(1.00205 -0.00072087 8.16134e-23)
(1.00282 -0.000285231 6.70318e-22)
(1.00321 -2.48969e-05 2.33804e-23)
(1.00337 0.000712631 8.2131e-24)
(1.0002 -0.000461401 7.19365e-24)
(1.00066 -0.000793782 3.78026e-21)
(1.00027 -0.000322131 6.40289e-24)
(1.00077 0.00439944 -1.43236e-23)
(0.999636 0.00455039 1.00282e-22)
(0.999398 0.00409917 1.40003e-24)
(0.999152 0.00371908 5.50213e-23)
(0.998931 0.00325518 1.24994e-23)
(0.998577 0.00261244 -1.04859e-23)
(0.998705 0.00290862 -6.76354e-22)
(0.998529 0.000630606 1.11219e-22)
(0.998777 0.000576299 -3.17426e-24)
(0.998447 0.00111382 -1.28555e-23)
(0.998245 0.00173532 0)
(0.998173 0.0024041 6.70241e-24)
(0.999313 0.000354242 1.07178e-23)
(0.998914 0.000509956 0)
(0.998987 0.000302434 -2.60893e-23)
(0.999521 0.00040106 -2.07006e-23)
(0.999681 0.00038075 -1.12547e-23)
(0.999717 0.000314014 -1.03432e-23)
(0.999794 0.000255273 -5.23381e-24)
(0.999903 3.21581e-05 0)
(1.00055 -0.00057941 -3.06782e-22)
(1.00088 -0.000546609 -1.04012e-23)
(1.00073 -0.000684008 -1.04389e-23)
(1.00097 -0.000715558 -1.09529e-23)
(1.00122 -0.000748081 0)
(1.00182 -0.00080235 8.17138e-23)
(1.00162 -0.0010047 -3.99207e-23)
(1.00316 0.00293926 -1.52752e-22)
(1.00365 0.00256703 1.87711e-23)
(1.00315 0.0033925 -8.15396e-24)
(1.00387 0.00205663 3.52408e-23)
(1.00395 0.00146153 3.34676e-23)
(1.00172 0.00462499 5.95328e-24)
(1.00237 0.00429828 6.37881e-24)
(1.00278 -0.000884671 -3.73575e-23)
(1.00204 -0.000959351 7.06595e-23)
(1.00348 0.000288257 2.96436e-23)
(1.00356 -0.000222458 2.30193e-23)
(1.00383 0.000647191 2.6967e-23)
(0.999961 -0.00097769 -6.91493e-21)
(1.00046 -0.000528349 1.50005e-23)
(1.00024 -0.000667013 -1.86199e-22)
(1.00117 0.00478425 1.79613e-24)
(1.00051 0.00494109 1.54553e-24)
(0.999939 0.00492283 -5.46989e-25)
(0.999379 0.00509833 3.21252e-24)
(0.998817 0.0040877 2.2054e-23)
(0.998472 0.00330728 8.53079e-24)
(0.998319 0.000416037 5.92715e-24)
(0.998231 0.000767566 1.70033e-23)
(0.998721 0.00033658 9.97596e-24)
(0.998173 0.00130626 -1.23186e-23)
(0.998212 0.00104181 6.76651e-23)
(0.99791 0.00153907 1.91127e-23)
(0.997746 0.00228056 -4.39704e-22)
(0.997808 0.00276125 5.5841e-24)
(0.999392 0.000273619 0)
(0.99928 0.000219331 1.41352e-23)
(0.999146 0.000139822 -5.26645e-22)
(0.99898 7.03805e-05 -2.52115e-23)
(0.999492 0.000313313 -5.61875e-24)
(0.999569 0.000343872 -1.57594e-25)
(0.999647 0.000333396 4.90862e-23)
(0.999817 0.000198649 0)
(0.999773 0.000248406 0)
(0.999775 6.07656e-05 0)
(1.00048 -0.00070257 -8.15281e-24)
(1.00077 -0.000837482 1.01709e-23)
(1.00063 -0.000781839 4.48297e-23)
(1.00105 -0.000840722 -1.14875e-23)
(1.00089 -0.000844088 -1.09702e-22)
(1.00118 -0.000966191 5.97184e-24)
(1.00136 -0.00115739 -3.26351e-22)
(1.00158 -0.00122471 6.02579e-22)
(1.00413 0.00255197 1.83043e-23)
(1.00301 0.00406344 0)
(1.00379 0.00379465 4.38666e-23)
(1.00412 0.00104585 -2.72594e-23)
(1.00456 0.00149454 0)
(1.00166 0.00550512 -1.76026e-24)
(1.00294 0.00496958 1.15475e-24)
(1.00277 -0.00122536 -1.64809e-23)
(1.00319 -0.00102921 1.38359e-22)
(1.00188 -0.00122194 -2.79339e-22)
(1.00207 -0.00125039 -7.1016e-22)
(1.00362 -0.000693092 3.80277e-22)
(1.00409 -0.000426382 4.41255e-23)
(1.00427 0.000584369 -6.11214e-23)
(1.00019 -0.000666043 -2.54492e-23)
(1.00031 0.00566154 0)
(0.998982 0.00567397 8.90456e-22)
(0.998817 0.00522143 3.78849e-24)
(0.998538 0.00465637 -5.78203e-24)
(0.998426 0.00399086 -1.66253e-23)
(0.998002 0.00324758 0)
(0.998242 0.00369175 -1.23374e-24)
(0.998061 0.000222651 -1.68539e-23)
(0.998343 0.000137914 -6.28966e-24)
(0.997939 0.000831278 1.08418e-23)
(0.998767 8.26128e-05 9.93772e-24)
(0.998573 0.000122446 -1.38381e-22)
(0.997642 0.00190644 -9.99999e-23)
(0.997596 0.00138506 2.824e-23)
(0.997297 0.00218775 1.00249e-23)
(0.997424 0.0031348 0)
(0.999482 0.000209255 -5.64283e-24)
(0.999281 5.87075e-05 7.40461e-23)
(0.998883 -7.51213e-05 5.33423e-24)
(0.999629 0.00028107 5.42494e-24)
(0.999704 0.000229434 0)
(0.999792 0.000188352 0)
(0.999881 -4.32588e-05 0)
(1.0005 -0.000765912 1.07035e-21)
(1.00028 -0.00071945 -1.86186e-24)
(1.00083 -0.000945423 4.31381e-24)
(1.00053 -0.000892249 1.29665e-23)
(1.0011 -0.00119087 1.07885e-23)
(1.00164 -0.00141792 1.95147e-23)
(1.00469 0.00222102 1.7436e-23)
(1.00459 0.00273661 2.43349e-22)
(1.00445 0.00349681 -9.21808e-23)
(1.00435 0.00428647 -3.0959e-22)
(1.00513 0.00163031 2.13e-23)
(1.00129 0.00637402 4.91727e-23)
(1.00216 0.00613998 -2.59027e-24)
(1.00285 0.0057635 8.45495e-24)
(1.00362 0.00533476 8.10299e-25)
(1.00237 -0.00143552 -3.07496e-23)
(1.00273 -0.00173937 1.87878e-23)
(1.00367 -0.00131101 2.42774e-22)
(1.002 -0.00165308 4.33659e-24)
(1.00444 5.25802e-05 1.60088e-23)
(1.00463 -0.000547815 -2.32794e-22)
(1.00485 0.000581547 -3.42883e-23)
(1.00018 -0.000558048 -7.45434e-22)
(1.00056 -0.000817929 -4.4361e-24)
(0.999722 0.00622119 -3.72483e-24)
(1.00046 0.00626728 1.6414e-24)
(0.998866 0.00644814 -1.74777e-25)
(0.998042 0.00528463 -1.77078e-23)
(0.998028 0.00401301 1.01364e-23)
(0.997816 0.000497878 -1.46666e-23)
(0.997769 6.93128e-05 2.61291e-22)
(0.998404 -0.000109746 -7.31054e-24)
(0.997616 0.000823408 0)
(0.997454 0.00117921 1.38857e-23)
(0.997214 0.0014756 -5.6692e-24)
(0.997061 0.00187467 -4.61144e-23)
(0.996922 0.00237749 -6.76658e-24)
(0.996993 0.00312216 0)
(0.997191 0.00358305 -9.47581e-24)
(0.999459 9.2085e-05 -4.30893e-23)
(0.999547 0.000161125 -1.12307e-23)
(0.999373 7.2047e-06 2.13118e-23)
(0.999265 -6.13679e-05 1.4822e-23)
(0.999032 -0.000286446 5.68306e-24)
(0.998788 -0.000387053 3.53733e-23)
(0.999623 0.000191791 -5.55505e-24)
(0.999808 0.000139216 0)
(0.99976 0.000166651 -1.0452e-23)
(0.999708 5.3255e-06 -8.75646e-24)
(1.00006 -0.000657838 1.22087e-23)
(1.0009 -0.00113256 -4.02587e-24)
(1.0007 -0.00110338 -1.20967e-23)
(1.00049 -0.00104207 2.01212e-24)
(1.00031 -0.000932542 7.06351e-23)
(1.00096 -0.001268 -8.86643e-24)
(1.00178 -0.00173211 3.31502e-23)
(1.00148 -0.00160731 -1.28551e-23)
(1.00538 0.00315006 -3.8005e-23)
(1.00425 0.00491781 -3.24914e-23)
(1.005 0.00469118 3.13853e-23)
(1.00529 0.000899199 -5.88448e-22)
(1.00586 0.00155075 1.28242e-23)
(1.00081 0.00713719 1.07426e-23)
(1.00272 0.00682734 -1.16544e-23)
(1.00424 0.00599773 0)
(1.00261 -0.00218075 1.93448e-22)
(1.00312 -0.00201378 -6.28386e-23)
(1.00361 -0.00180054 -4.32832e-23)
(1.00417 -0.0015305 7.88326e-25)
(1.00187 -0.00192719 -5.20818e-22)
(1.00525 -0.000370584 -4.40154e-23)
(1.00496 -0.000874433 7.53827e-23)
(1.0054 0.000292096 -2.89322e-23)
(1.00011 -0.00125461 -3.523e-21)
(0.998923 0.00743177 -3.39276e-23)
(0.998009 0.00677317 1.26428e-23)
(0.997669 0.00471301 -5.3899e-24)
(0.997504 0.00529579 8.74777e-22)
(0.99751 0.00399782 1.07768e-22)
(0.997325 -7.77379e-06 -6.30011e-23)
(0.99769 -0.000279652 -2.03891e-22)
(0.998539 -0.000398614 -6.95414e-24)
(0.998227 -0.000391144 1.60301e-23)
(0.997218 0.000762884 -5.1293e-25)
(0.996814 0.00149262 -4.98951e-23)
(0.996695 0.00274358 -1.77185e-23)
(0.996277 0.00234312 -6.17566e-22)
(0.996381 0.00318176 3.6824e-23)
(0.99692 0.00422859 -3.16057e-23)
(0.99949 -2.91662e-05 -5.90963e-24)
(0.999623 0.000112967 -3.58124e-23)
(0.999216 -0.000227904 0)
(0.999316 -0.000194138 -6.40381e-24)
(0.999179 -0.000431147 -1.01168e-24)
(0.998736 -0.000561668 -5.80328e-24)
(0.999715 9.04295e-05 4.47082e-23)
(0.999801 8.72222e-05 -1.04056e-23)
(0.999848 -0.000157409 -8.788e-24)
(1.00018 -0.000768338 1.03357e-23)
(1.00025 -0.000835319 -6.35097e-24)
(1.00052 -0.00115509 1.71915e-24)
(1.00009 -0.000922302 -7.38301e-22)
(1.00078 -0.00136351 -3.53579e-23)
(1.00097 -0.00147268 -4.37308e-24)
(1.00114 -0.0016027 8.39989e-25)
(1.0013 -0.00195218 -7.41098e-22)
(1.0062 0.00279715 -3.49101e-23)
(1.006 0.00380045 -1.34947e-22)
(1.0057 0.00461813 -2.74953e-22)
(1.00555 0.00534351 2.46001e-22)
(1.00642 0.00198853 -8.1732e-23)
(1.00659 0.000984214 1.30024e-23)
(0.999837 0.00780676 3.18666e-23)
(1.00099 0.00815158 -3.62887e-22)
(1.00271 0.00779665 -2.4515e-22)
(1.00368 0.00728345 -8.40714e-24)
(1.00516 0.00621409 -1.46774e-23)
(1.00433 0.0067291 0)
(1.00216 -0.00231219 -3.85069e-23)
(1.00238 -0.00262551 -9.13278e-24)
(1.00344 -0.00244446 -2.06883e-22)
(1.00473 -0.00136692 2.66593e-23)
(1.00449 -0.00208833 6.64139e-23)
(1.0017 -0.00238546 -2.29997e-23)
(1.00583 -0.000100427 -2.79484e-25)
(1.00535 -0.001452 -1.10695e-24)
(1.00065 -0.00132322 -1.46553e-23)
(0.999016 0.00860684 -3.39971e-24)
(0.997273 0.00639138 -1.35745e-22)
(0.997301 0.00739933 7.02233e-24)
(0.99698 0.005036 2.86847e-25)
(0.997086 0.00561873 -4.5758e-23)
(0.997046 0.000402085 2.21424e-22)
(0.996888 -0.000105447 -5.02336e-23)
(0.997914 -0.000432415 -5.86829e-23)
(0.997631 -0.000636474 5.29029e-24)
(0.998162 -0.000788593 1.4963e-23)
(0.99671 0.000820263 -3.69923e-22)
(0.996256 0.00167531 -2.99382e-22)
(0.996533 0.00123943 -4.37047e-23)
(0.995827 0.00198501 -1.79412e-23)
(0.99576 0.00308824 -5.41319e-22)
(0.995913 0.00392078 5.77062e-23)
(0.996324 0.0045811 7.88232e-22)
(0.999526 -0.000114074 0)
(0.999585 -3.23713e-05 0)
(0.999654 1.81542e-05 1.46602e-23)
(0.999488 -0.000219421 -6.36013e-24)
(0.999415 -0.000379475 -3.68576e-24)
(0.999295 -0.00050753 5.12308e-24)
(0.999177 -0.000605986 -5.07126e-24)
(0.998645 -0.000856543 0)
(0.99878 -0.00069938 3.42094e-23)
(0.999787 6.7684e-05 0)
(0.999761 4.64527e-05 0)
(0.999633 -7.7035e-05 9.03557e-24)
(1.00039 -0.00113598 9.09359e-23)
(1.00048 -0.00125271 1.01667e-23)
(1.00028 -0.00105512 -1.44084e-21)
(1.00019 -0.00118314 -6.64922e-24)
(1.00058 -0.00133156 -4.72552e-22)
(1.00063 -0.00153253 -7.59775e-24)
(1.00088 -0.00170636 4.20509e-23)
(1.00136 -0.00238139 -1.55167e-23)
(1.00095 -0.00219511 4.11122e-22)
(1.00718 0.00255056 6.44895e-23)
(1.00667 0.00447993 4.245e-22)
(1.00622 0.00631454 -1.49643e-23)
(1.00652 0.000137979 -3.44577e-23)
(1.0073 0.000420687 -5.57897e-22)
(1.0019 0.00838 3.00814e-24)
(1.00097 0.00925462 -2.2059e-24)
(1.00301 0.00902395 2.2679e-23)
(1.0046 0.00763264 1.61033e-23)
(1.00216 -0.00312328 -1.44577e-22)
(1.00276 -0.00297316 -1.52532e-23)
(1.00324 -0.00290548 1.03067e-22)
(1.00385 -0.00280777 2.96528e-23)
(1.00447 -0.00257133 1.33525e-21)
(1.00505 -0.00243206 2.74203e-23)
(1.00151 -0.00263694 0)
(1.00643 -0.000652974 -1.67036e-22)
(1.00563 -0.00201059 -6.04589e-23)
(1.006 -0.00153377 -2.28565e-22)
(0.999976 -0.00161024 6.00579e-21)
(0.998017 0.0092097 3.42779e-23)
(0.99909 0.0096252 8.42589e-22)
(0.996312 0.00600499 -2.02664e-23)
(0.997063 0.00833314 -8.20021e-24)
(0.996235 0.00774671 -1.04345e-23)
(0.996356 -3.1511e-05 8.89735e-23)
(0.996765 -0.000504313 4.77135e-22)
(0.99778 -0.00106411 2.67173e-23)
(0.997409 -0.000893701 -3.17684e-22)
(0.998526 -0.00109341 0)
(0.998201 -0.00122032 -1.49825e-25)
(0.99625 0.000771311 6.00907e-23)
(0.995263 0.00219535 -1.01767e-23)
(0.995308 0.00152134 1.76359e-23)
(0.99534 0.00273829 -6.76824e-23)
(0.995079 0.00357683 -2.20249e-23)
(0.995653 0.00464435 -1.17461e-22)
(0.999571 -0.000224953 0)
(0.999632 -8.00986e-05 0)
(0.999475 -0.000499479 6.63624e-24)
(0.99902 -0.000807786 1.53935e-21)
(0.999268 -0.000851236 -2.66784e-22)
(0.998782 -0.00114862 3.79837e-23)
(0.998903 -0.00102185 7.97777e-23)
(0.999714 -0.000132529 0)
(0.999894 -9.89478e-05 1.03265e-23)
(0.999834 -0.000277201 8.14185e-25)
(1.00024 -0.00116873 1.07337e-23)
(1.00043 -0.00140186 1.14739e-23)
(1.00051 -0.00169677 4.93497e-21)
(1.00071 -0.00173283 2.17561e-23)
(1.00045 -0.00166366 -4.70973e-22)
(1.0008 -0.00181864 9.41302e-23)
(1.00075 -0.0020086 3.5925e-23)
(1.00074 -0.00223818 -3.82244e-22)
(1.00782 0.00320158 1.31691e-22)
(1.00801 0.00220631 -1.80271e-25)
(1.00765 0.00412005 -9.92799e-23)
(1.00761 0.00534122 1.19932e-22)
(1.00726 0.00654016 -7.65005e-24)
(1.00649 0.00732782 -4.26101e-23)
(1.0081 0.00115232 2.29431e-22)
(1.00803 -0.000191049 -3.15875e-23)
(1.00009 0.00982665 -5.99239e-24)
(1.00109 0.0104647 -6.60425e-23)
(1.00317 0.0102029 1.0359e-24)
(1.00406 0.00945142 -1.69646e-23)
(1.00568 0.00778982 -2.25162e-23)
(1.00485 0.00867473 1.15187e-22)
(1.00215 -0.00383109 -1.84689e-23)
(1.00157 -0.00337581 -4.35385e-24)
(1.00287 -0.00353641 -1.86562e-23)
(1.00433 -0.00324275 -1.52783e-23)
(1.00552 -0.00283802 5.67833e-22)
(1.00124 -0.00300809 0)
(1.0012 -0.00269118 0)
(1.00688 -0.0015046 4.69928e-22)
(0.996676 0.00957253 3.19211e-22)
(0.999128 0.0110423 4.75786e-23)
(0.995611 0.00679763 -1.12204e-23)
(0.995495 0.00581025 2.92173e-23)
(0.995077 0.00757414 2.9756e-22)
(0.996071 0.000299931 -2.40526e-22)
(0.995838 -0.000159139 -2.05e-22)
(0.996961 -0.00080578 6.27416e-23)
(0.996475 -0.000855991 3.3965e-23)
(0.998046 -0.00144425 3.64611e-23)
(0.9972 -0.00122149 7.50612e-24)
(0.995588 0.000775685 1.61123e-23)
(0.994725 0.00244013 -2.63751e-23)
(0.994899 0.000837447 3.72031e-23)
(0.995053 0.00436631 -6.23028e-23)
(0.994407 0.00388896 -1.07958e-23)
(0.995133 0.00501759 -8.65828e-22)
(0.999652 -0.000215892 0)
(0.999628 -0.00026187 1.31487e-24)
(0.999615 -0.00049334 -1.64694e-24)
(0.999531 -0.000646486 -8.3688e-25)
(0.99946 -0.000812236 1.05896e-22)
(0.999369 -0.00100563 -7.99864e-25)
(0.998883 -0.00116018 3.98849e-22)
(0.999844 -7.2058e-05 1.95159e-24)
(0.999926 -5.76472e-06 1.92541e-22)
(0.999547 -0.000201225 -1.5121e-21)
(1.0003 -0.00138339 -8.60872e-24)
(1.00012 -0.00128962 7.13534e-22)
(1.00036 -0.00143629 7.75516e-24)
(0.999895 -0.00173933 1.917e-24)
(1.00032 -0.00154668 -2.33064e-23)
(1.00031 -0.00165388 2.09585e-22)
(1.00062 -0.00184037 -1.06489e-23)
(1.00057 -0.00237402 1.07038e-21)
(1.00045 -0.00217844 4.30784e-23)
(1.00869 0.00389992 -4.8522e-22)
(1.00904 0.00181161 -1.31245e-23)
(1.00841 0.00643609 -7.2362e-24)
(1.00688 0.0083286 -5.81759e-22)
(1.00848 -0.000978285 -4.96291e-23)
(1.00927 -0.000176793 -1.30589e-22)
(1.00215 0.0110047 2.36283e-24)
(1.00101 0.0119108 5.33516e-23)
(1.00348 0.011839 1.25163e-25)
(1.00517 0.00992979 1.08323e-23)
(1.00257 -0.00398557 2.93055e-22)
(1.00211 -0.0042561 -1.28072e-23)
(1.00112 -0.00331282 0)
(1.00325 -0.00404034 2.9662e-22)
(1.00404 -0.00383649 -2.55437e-22)
(1.00483 -0.00369736 -4.57712e-24)
(1.00547 -0.00366269 3.14271e-22)
(1.00628 -0.00332147 2.10224e-23)
(1.00089 -0.0026889 9.92397e-24)
(1.00105 -0.00299705 0)
(1.00786 -0.00169691 -2.11358e-23)
(1.00709 -0.00252079 -4.28818e-24)
(0.996196 0.0108733 3.4822e-22)
(0.995191 0.00961019 1.90219e-23)
(0.999913 0.0124748 -1.27347e-23)
(0.998326 0.0121044 1.01158e-21)
(0.994452 0.00555489 -1.42403e-23)
(0.994354 0.00850336 5.97963e-24)
(0.993857 0.00739565 3.53231e-24)
(0.995982 -0.000793993 1.01826e-23)
(0.995407 -0.00052959 1.03217e-23)
(0.996184 -0.00114339 -2.41349e-23)
(0.998102 -0.00171653 -4.36022e-23)
(0.997661 -0.00161009 2.3652e-23)
(0.997329 -0.00149579 2.30287e-23)
(0.996977 -0.00152585 -6.31379e-23)
(0.99409 0.00304336 -2.62742e-23)
(0.994068 0.00216557 0)
(0.994211 0.00101484 2.69516e-23)
(0.994615 0.000141459 -4.08758e-22)
(0.993636 0.00386951 4.37883e-22)
(0.99969 -0.000390432 -4.30531e-23)
(0.999748 -0.000226727 1.38334e-24)
(0.999678 -0.000560103 -1.51963e-24)
(0.999617 -0.000798928 -1.75021e-22)
(0.999335 -0.00121786 -3.9441e-24)
(0.999549 -0.00116411 1.18206e-23)
(0.999063 -0.00128719 -2.59193e-23)
(0.998832 -0.00144105 2.21999e-23)
(0.999814 -6.88835e-05 -9.39473e-24)
(0.999802 -0.000134384 -8.76676e-24)
(0.999872 -0.000453895 6.49502e-24)
(1.00019 -0.00136185 1.65693e-23)
(1.0002 -0.0013798 7.23492e-24)
(1.00031 -0.00149532 7.73249e-24)
(1.00054 -0.00201159 7.03958e-21)
(1.00028 -0.00165004 2.02267e-24)
(1.00028 -0.00161719 8.6309e-24)
(1.00043 -0.00198913 5.26956e-24)
(1.00048 -0.00178163 5.26216e-22)
(1.00042 -0.00266214 1.45982e-23)
(1.00027 -0.00205733 1.0645e-22)
(1.00968 0.00475339 -1.43132e-23)
(1.00984 0.00316975 -6.74036e-23)
(1.00982 0.00119724 3.05396e-23)
(1.00993 0.00208664 -1.85597e-22)
(1.00963 0.00598968 -7.62746e-24)
(1.00945 0.0074373 7.02218e-24)
(1.00655 0.00996746 8.01862e-23)
(1.00784 0.00919591 4.37394e-23)
(1.00885 -0.00204015 5.70655e-22)
(1.01051 0.000145 3.29203e-23)
(1.00079 0.0131538 -5.19198e-24)
(1.00356 0.0132911 -2.51013e-24)
(1.00483 0.01245 -3.6413e-23)
(1.00586 0.0110196 1.11853e-21)
(1.00153 -0.00444085 0)
(1.00231 -0.00498634 -2.79191e-23)
(1.00088 -0.0032634 -1.60093e-23)
(1.00379 -0.00447532 5.25871e-22)
(1.00517 -0.00434276 -2.3084e-24)
(1.00721 -0.00364332 3.71534e-22)
(0.99681 0.0119185 3.62991e-23)
(0.995107 0.0119062 -4.9442e-23)
(0.993595 0.00946457 2.07236e-22)
(0.997557 0.0137222 2.92947e-23)
(0.993671 0.0064908 -5.06436e-23)
(0.993631 0.00517277 3.37857e-22)
(0.992803 0.00708147 -1.63119e-22)
(0.994805 -0.000392911 -3.89814e-23)
(0.994976 -0.00118115 0)
(0.996516 -0.00157967 -5.05983e-23)
(0.995965 -0.001785 1.13153e-23)
(0.998056 -0.00213034 -2.2993e-23)
(0.998411 -0.00185169 -3.55331e-23)
(0.997432 -0.0019016 0)
(0.996772 -0.0018508 6.09834e-24)
(0.993837 0.00145312 0)
(0.993185 0.00205425 0)
(0.993501 0.000730765 8.88557e-24)
(0.994125 -0.000376828 -3.6615e-23)
(0.993232 0.00454112 -3.75418e-23)
(0.992763 0.0036207 -8.98588e-24)
(0.999872 -0.000295881 0)
(0.999774 -0.000589672 0)
(0.999704 -0.000687007 -1.2722e-23)