/*--------------------------------*- C++ -*----------------------------------*\
| =========                 |                                                 |
| \\      /  F ield         | OpenFOAM: The Open Source CFD Toolbox           |
|  \\    /   O peration     | Version:  v2012                                 |
|   \\  /    A nd           | Website:  www.openfoam.com                      |
|    \\/     M anipulation  |                                                 |
\*---------------------------------------------------------------------------*/
FoamFile
{
    version     2.0;
    format      ascii;
    class       volScalarField;
    location    "0.4";
    object      k;
}
// * * * * * * * * * * * * * * * * * * * * * * * * * * * * * * * * * * * * * //

dimensions      [0 2 -2 0 0 0 0];


internalField   nonuniform List<scalar> 
13611
(
0.000579416
0.000573134
0.000597576
0.000584019
0.000559858
0.000611966
0.000599719
0.000579233
0.000546411
0.000555665
0.000629889
0.000614798
0.000565365
0.000592888
0.000532881
0.000545362
0.00063122
0.000648113
0.000618436
0.000552281
0.000583152
0.000610024
0.000520706
0.000532943
0.00054262
0.000650312
0.000668334
0.000637762
0.000553217
0.000567485
0.000593005
0.00061896
0.000507922
0.000523851
0.000528502
0.000652681
0.000668695
0.000689336
0.000637846
0.000538624
0.000563885
0.000590171
0.000607981
0.000615637
0.000504549
0.000496915
0.000513478
0.000526273
0.00067257
0.000688516
0.000711992
0.000652069
0.00053724
0.000576018
0.00054987
0.000603517
0.000617894
0.000633228
0.000494422
0.000486086
0.000502198
0.000513425
0.000691323
0.000671276
0.000707674
0.000737492
0.000648681
0.000523898
0.00057386
0.000547106
0.000603946
0.000631551
0.000493385
0.000485145
0.000475795
0.000501957
0.000512445
0.000710961
0.000688109
0.000728598
0.000763633
0.000664915
0.000523453
0.00055869
0.000586001
0.000535572
0.000617614
0.000647464
0.000483347
0.000476532
0.000466081
0.000489698
0.000498817
0.0007168
0.000682415
0.000705494
0.000750717
0.00076973
0.00079052
0.000667485
0.000515649
0.00055259
0.000582076
0.000530631
0.000610272
0.000629667
0.000645993
0.000480876
0.000475796
0.000466391
0.000455803
0.000488288
0.000495292
0.000740316
0.000698862
0.000715385
0.000760583
0.000799549
0.000820834
0.000686663
0.000506509
0.000519509
0.000538698
0.000562058
0.000575308
0.00059847
0.000620958
0.000665516
0.000469093
0.000465999
0.000461308
0.000448871
0.000477946
0.000487335
0.000735212
0.000707076
0.000784659
0.000824634
0.000801943
0.000850664
0.000687145
0.000499414
0.000509791
0.000538158
0.000550383
0.000584617
0.000599681
0.000633879
0.000668176
0.000467751
0.00046209
0.000452095
0.000440248
0.000472088
0.000477226
0.000489898
0.000754895
0.00072868
0.000797276
0.000853747
0.000829563
0.000885381
0.000709757
0.00050011
0.000513252
0.000527096
0.00055583
0.000573534
0.00061255
0.000651664
0.000627484
0.000690049
0.000460365
0.000451568
0.000446941
0.000434398
0.000432757
0.000462136
0.000469261
0.00048421
0.000784968
0.000748082
0.000731237
0.000829073
0.000882011
0.000853121
0.000923188
0.000711855
0.000488664
0.000506069
0.000526449
0.0005515
0.000579442
0.000607063
0.000652287
0.000636872
0.000689385
0.000450863
0.000445732
0.000437819
0.000425903
0.000425045
0.000455806
0.000459684
0.000473075
0.000808315
0.000768972
0.000753504
0.000854227
0.000912219
0.000882477
0.000959124
0.000733619
0.000486503
0.000512112
0.000496001
0.000537825
0.000562804
0.000576103
0.000595843
0.000622606
0.00066932
0.000712213
0.000444664
0.000435135
0.000431599
0.000421273
0.000419757
0.000418267
0.000447403
0.000451083
0.000468738
0.000793801
0.000839204
0.00076641
0.000854518
0.000890388
0.000944648
0.000994655
0.000966513
0.000754181
0.000732693
0.000476584
0.000507675
0.000487326
0.000536324
0.000558996
0.000586592
0.000600445
0.000629901
0.000672805
0.000713885
0.000435591
0.000430419
0.000422561
0.000413165
0.00041138
0.000411931
0.000439258
0.000450267
0.000441703
0.000458971
0.000811303
0.000860542
0.000796445
0.000891843
0.000925093
0.000966055
0.00103588
0.00100699
0.000770269
0.000753096
0.000477801
0.000498155
0.000517761
0.000488439
0.000547077
0.000527088
0.000569911
0.000585533
0.000614448
0.000648168
0.000695818
0.000663873
0.000737576
0.000432942
0.00042058
0.000416488
0.000408172
0.000406602
0.000404998
0.000441911
0.00043506
0.000459325
0.000845191
0.000894172
0.000812028
0.000920895
0.000963145
0.00101294
0.00107806
0.000794425
0.000764807
0.000469391
0.00050065
0.000510171
0.000478913
0.00053641
0.000526711
0.000567568
0.00059842
0.000614277
0.000645765
0.000695099
0.000676454
0.000733601
0.000759704
0.000425909
0.00041504
0.000409237
0.000399958
0.000398978
0.000398589
0.000435567
0.000437717
0.000426951
0.000451923
0.00086732
0.000926826
0.000843128
0.000956199
0.00100215
0.00105429
0.00109739
0.00111637
0.000806823
0.000792507
0.000469286
0.000491688
0.000514061
0.00047566
0.000541456
0.000581709
0.000556486
0.000595607
0.000628919
0.000659819
0.000712095
0.00067516
0.000753436
0.000781016
0.000419373
0.000422118
0.000408252
0.000400654
0.000395462
0.000395796
0.000391174
0.000429084
0.000429923
0.000442885
0.000423877
0.000453949
0.000902366
0.000930946
0.000963359
0.000854523
0.000990073
0.00104004
0.00106702
0.0011448
0.00117827
0.000837312
0.000806149
0.000462822
0.000491087
0.000481784
0.000510123
0.000465551
0.000531839
0.000582509
0.000560424
0.000608759
0.000622762
0.000662151
0.000709466
0.000691566
0.000751073
0.000779426
0.000413734
0.00041463
0.0004004
0.000408159
0.000387647
0.000388485
0.000385628
0.000385432
0.000424226
0.000435591
0.000417169
0.000447752
0.000909718
0.000971634
0.00100223
0.00089137
0.00102531
0.00106162
0.00112034
0.0011636
0.00118047
0.00123759
0.000855792
0.000832405
0.000479511
0.000499783
0.000475237
0.00052005
0.00046042
0.000536802
0.000596898
0.000573254
0.000549945
0.000609228
0.000634431
0.000650851
0.000681388
0.000727432
0.000771943
0.000805078
0.00040795
0.000393875
0.000402112
0.000384293
0.000384141
0.00038085
0.000379004
0.000416623
0.000427252
0.000438165
0.000409638
0.000450734
0.000951516
0.00101047
0.00103944
0.000914357
0.00110527
0.0011633
0.0012196
0.0012381
0.00130882
0.000889446
0.000842419
0.000479537
0.000501638
0.00046535
0.000511937
0.000530778
0.000594729
0.00057878
0.000550141
0.000622632
0.00065956
0.00069178
0.000715044
0.000797143
0.000771042
0.00083249
0.000401053
0.000387208
0.000395618
0.000376937
0.000376984
0.000377043
0.000374268
0.000410648
0.000419772
0.000432327
0.000402258
0.000445096
0.000978455
0.00105116
0.00108676
0.000953858
0.00114688
0.00121204
0.00125284
0.00129753
0.00138951
0.000902054
0.000877949
0.000467326
0.000490258
0.000460666
0.000517678
0.000537114
0.000605796
0.000575152
0.000561037
0.000629686
0.000648853
0.000680002
0.000728232
0.000818346
0.000799698
0.000754065
0.000855613
0.00039503
0.000380545
0.00038922
0.000373207
0.000375507
0.000371232
0.000369333
0.000402634
0.000412452
0.000418325
0.000424869
0.000436474
0.000395756
0.000450116
0.00102274
0.00108346
0.00107177
0.00113415
0.000976361
0.00121026
0.00124216
0.00131102
0.0013596
0.00147742
0.000943725
0.000888702
0.000462621
0.000490383
0.000511856
0.000531696
0.000603365
0.000620663
0.000587845
0.000554796
0.000658106
0.00069033
0.000712621
0.000848963
0.000813423
0.000764528
0.000388487
0.000382116
0.00036662
0.000369157
0.000366972
0.000363914
0.000397882
0.000407153
0.000411792
0.000420159
0.000429467
0.000389548
0.000442308
0.00104394
0.00105237
0.00113288
0.00112978
0.00118013
0.0010234
0.00125301
0.00131211
0.00133939
0.00143171
0.00157934
0.00148147
0.000958625
0.000922104
0.000454418
0.000470699
0.00048031
0.000502062
0.00051974
0.000540394
0.000615915
0.000629716
0.000581263
0.000564263
0.000646232
0.000678255
0.000721527
0.000878751
0.000789888
0.000841427
0.000745131
0.000382881
0.000376112
0.00036464
0.000362157
0.000366269
0.000359832
0.000363155
0.000358344
0.000392217
0.000400789
0.000406688
0.000412674
0.000422565
0.000427134
0.000387647
0.000383843
0.000432857
0.000445457
0.0010915
0.00109926
0.00117579
0.00117481
0.00123155
0.0010562
0.00132816
0.00135702
0.00141674
0.00147674
0.00169683
0.00158406
0.0010038
0.000929397
0.000454595
0.000461848
0.000481639
0.000502167
0.000512249
0.000534126
0.000622811
0.000592813
0.000559332
0.000655141
0.00068808
0.00070983
0.000867278
0.00091397
0.00079208
0.00083994
0.000749901
0.000376395
0.000369923
0.000358708
0.000355437
0.000359919
0.000354736
0.000357339
0.00035361
0.000387834
0.000398144
0.000401325
0.000408788
0.000417724
0.000419387
0.000382927
0.000378871
0.000428648
0.000441048
0.00113015
0.00115213
0.00122458
0.00123812
0.00127606
0.00104629
0.00111276
0.0013821
0.00143539
0.00156518
0.00183466
0.00168568
0.00100498
0.000972083
0.000445762
0.000464218
0.000491983
0.000473776
0.000519331
0.000543238
0.000643446
0.000611075
0.000585692
0.000570215
0.000676175
0.000721457
0.00089359
0.000937241
0.000775014
0.00081959
0.000870518
0.00074355
0.000372116
0.000365054
0.000353936
0.000356256
0.000357039
0.000349458
0.000353015
0.000348902
0.000388787
0.000383285
0.000393284
0.000396842
0.000403538
0.000412155
0.000416332
0.000378453
0.000373885
0.000420956
0.000433095
0.00118233
0.0011964
0.00130109
0.00133869
0.0010971
0.00114963
0.00146201
0.00151552
0.00164917
0.00197253
0.00180415
0.00104906
0.000974095
0.000439446
0.000462648
0.000490293
0.000470418
0.000511359
0.000539135
0.000653538
0.000618827
0.000595186
0.000563042
0.000687022
0.00071024
0.000927091
0.000784698
0.000829053
0.000885064
0.0007614
0.000366203
0.000359936
0.000348889
0.000350056
0.000351997
0.000343372
0.000347213
0.000342769
0.000383478
0.000379325
0.000391621
0.00039853
0.000402221
0.0004068
0.00040871
0.000374468
0.000369834
0.000416396
0.000426114
0.00122527
0.00126054
0.00131177
0.0013646
0.00138442
0.00114999
0.0010959
0.00120613
0.00150532
0.00151426
0.00161877
0.00177356
0.00213134
0.00198444
0.00193156
0.00104947
0.00100757
0.000444313
0.000428563
0.000455832
0.000499709
0.000478464
0.000517947
0.000550515
0.000528753
0.00067451
0.000638209
0.000611385
0.000587342
0.000571555
0.000723306
0.00095769
0.000808611
0.000858577
0.000921698
0.000750567
0.000363098
0.000355584
0.000343519
0.000346583
0.000348044
0.000349592
0.000341697
0.000339157
0.000343851
0.000380395
0.000379588
0.000375025
0.000388096
0.000393954
0.000396182
0.0004054
0.000370211
0.000365867
0.000409852
0.000418802
0.00128546
0.00138898
0.00143392
0.00147706
0.00120563
0.00114961
0.00125187
0.00160287
0.00161728
0.00172542
0.00188262
0.00230929
0.0021658
0.00203992
0.00108985
0.000999712
0.000438765
0.000423478
0.000458509
0.000497758
0.000477248
0.000506462
0.000541146
0.000529926
0.000686329
0.000639398
0.000620906
0.000596801
0.000561819
0.000710656
0.000958279
0.000820578
0.000863935
0.000917446
0.00076855
0.000359536
0.000355793
0.00035171
0.000339695
0.000341177
0.00034403
0.00034576
0.000337373
0.000333721
0.000339727
0.000375547
0.000383232
0.000375086
0.000371965
0.000389734
0.000392212
0.000394463
0.000399891
0.000366623
0.000362576
0.000405874
0.00041226
0.00135199
0.00143878
0.00151873
0.00154936
0.00124241
0.00113376
0.00120226
0.00132401
0.00168546
0.00171367
0.00185306
0.00202845
0.00220597
0.0010837
0.00103737
0.000443699
0.000428832
0.000416163
0.000452671
0.000468322
0.000487117
0.000507456
0.00054632
0.000520173
0.000685129
0.000655411
0.000614006
0.000596221
0.000567089
0.000723223
0.000996339
0.000851833
0.000799304
0.000894858
0.000950484
0.000747081
0.000359356
0.000351921
0.000348367
0.000334205
0.000337701
0.000343117
0.000339537
0.000345222
0.000331125
0.000329262
0.0003352
0.000372626
0.000374472
0.000381224
0.000372063
0.000367675
0.000387061
0.000388146
0.000390854
0.000397375
0.000362773
0.000400181
0.000407056
0.000410876
0.00142865
0.00154099
0.00159794
0.00165801
0.00131338
0.00117108
0.00122872
0.00138606
0.00180918
0.00182899
0.00197698
0.00218699
0.00234347
0.00112769
0.00102887
0.00043732
0.000424516
0.000410029
0.000455958
0.000465435
0.000483712
0.000501913
0.000542737
0.000518353
0.000674602
0.000706823
0.000642133
0.000624613
0.00058182
0.000611629
0.000553009
0.00101311
0.000872105
0.000814485
0.000903878
0.000985566
0.000930875
0.000755361
0.000355959
0.000348482
0.00035231
0.000330198
0.000332015
0.00033977
0.000337547
0.000342337
0.000328747
0.00032342
0.000331885
0.000369127
0.000377367
0.000370683
0.000383471
0.000368634
0.000366196
0.000384601
0.000386552
0.000392682
0.00035982
0.000398249
0.000401769
0.000405264
0.00150722
0.00160023
0.00171674
0.00174831
0.00137468
0.00129379
0.00122454
0.00147439
0.00192838
0.00196505
0.00214279
0.00234515
0.00115614
0.00107331
0.000429437
0.000440748
0.000417561
0.000404891
0.00041102
0.00045069
0.000472111
0.00049159
0.000508234
0.000528934
0.000686945
0.000708402
0.000650801
0.000582492
0.000619828
0.000554335
0.00105499
0.00085527
0.000805685
0.00100296
0.000952645
0.000782196
0.000729477
0.000355854
0.000345323
0.000349369
0.000325564
0.000329015
0.000337516
0.000334572
0.000338888
0.000342345
0.000324061
0.000320777
0.000322074
0.000327101
0.000368308
0.000365813
0.000375288
0.000369303
0.000380424
0.000365464
0.000362972
0.000380877
0.000383574
0.000383502
0.000388931
0.000360164
0.000393574
0.000400886
0.00153429
0.00171356
0.00182064
0.00188751
0.00144562
0.00134712
0.00128127
0.00152889
0.00211152
0.00211864
0.00231002
0.00122812
0.00111506
0.000422114
0.000434776
0.000416062
0.000400354
0.000404863
0.000455666
0.000466902
0.000489625
0.000500218
0.000522809
0.000674318
0.000640834
0.000568489
0.000597149
0.00061156
0.000543533
0.00108035
0.000879662
0.000834611
0.000996105
0.00105369
0.000922612
0.000787874
0.000734205
0.000354758
0.000344114
0.000349463
0.000346196
0.000321506
0.000325998
0.000331608
0.000334049
0.000336417
0.000340209
0.000319013
0.000316047
0.000317349
0.000319796
0.000324779
0.000364909
0.000363633
0.000371512
0.000376934
0.000365993
0.000361609
0.00036051
0.000378433
0.00037952
0.000379626
0.000384653
0.00038947
0.000357162
0.0003918
0.000395924
0.00165479
0.00182056
0.00174678
0.00196532
0.00200866
0.00143016
0.00134712
0.00128786
0.00162039
0.00228918
0.00124119
0.00112767
0.000424526
0.000439311
0.000407903
0.000396775
0.000395971
0.000402591
0.000399254
0.00045002
0.000473486
0.000484209
0.00050144
0.000532322
0.000511456
0.000685127
0.000652009
0.000568085
0.000594925
0.000622827
0.000544692
0.000865769
0.000815833
0.00103196
0.00108118
0.000939794
0.000765908
0.000724049
0.00035197
0.000340981
0.000346626
0.000344787
0.000322005
0.000317309
0.000326299
0.000328841
0.000332078
0.000337169
0.000333461
0.000314522
0.000314377
0.000315901
0.000319466
0.000363782
0.000361095
0.000369594
0.000374297
0.000363676
0.000359641
0.000357752
0.000375116
0.000377596
0.000377041
0.000381477
0.000384687
0.000356045
0.000387626
0.00169181
0.00196573
0.00189228
0.00208586
0.00218352
0.00151198
0.00141619
0.00136349
0.00166991
0.00117839
0.0013108
0.000418579
0.000433684
0.000404525
0.000391845
0.000391946
0.000396332
0.000394965
0.000455686
0.000466937
0.000489795
0.000524743
0.000513555
0.000671057
0.000705261
0.000638881
0.000555417
0.00058113
0.000608083
0.000530543
0.00089079
0.000832974
0.00101977
0.00112775
0.00098301
0.000926442
0.000766472
0.000741207
0.000351295
0.000339151
0.000346318
0.000342582
0.000319653
0.00031385
0.000323846
0.000327311
0.00032897
0.000335281
0.000331248
0.000310152
0.000309696
0.000310043
0.000316534
0.000361093
0.000358458
0.000371491
0.000367077
0.000360724
0.000364486
0.000357016
0.000355002
0.000372721
0.000373913
0.00037328
0.000377984
0.000381496
0.000383493
0.000353311
0.000387975
0.00181827
0.00208412
0.00201111
0.00193607
0.00222523
0.00230538
0.0016206
0.00149455
0.00141107
0.00180775
0.00118891
0.00131207
0.00137673
0.000423241
0.000410559
0.000438607
0.000397943
0.000388561
0.000390916
0.000390417
0.000449427
0.000472611
0.000484835
0.000503459
0.0006773
0.000698191
0.000647332
0.000556182
0.000579722
0.000608375
0.000529069
0.000871562
0.000820426
0.00106755
0.00117707
0.00111763
0.000991798
0.000952073
0.000790238
0.000734264
0.000348572
0.000336429
0.000340176
0.000343677
0.000341958
0.000317354
0.000321511
0.000309398
0.0003141
0.000323877
0.000327415
0.00033312
0.000328715
0.000331298
0.000307195
0.00030701
0.000305427
0.000310494
0.000359532
0.00035857
0.000356301
0.000369195
0.000366806
0.000358871
0.000361943
0.000354683
0.000352775
0.00036969
0.000371623
0.000371483
0.000376045
0.000377659
0.000380012
0.0003837
0.00222102
0.00218368
0.00211575
0.00232855
0.00170632
0.00157529
0.00152102
0.00192934
0.00126394
0.00138088
0.00144506
0.000419108
0.000403884
0.000434064
0.00039756
0.000391937
0.000383413
0.000385273
0.000385587
0.000454405
0.000472523
0.000492126
0.000505088
0.000669258
0.000711116
0.000641097
0.000541952
0.000568432
0.000593559
0.000623631
0.000516643
0.000892948
0.000844581
0.00106941
0.00122403
0.0011674
0.00102797
0.000935588
0.000779509
0.000752522
0.00034718
0.000335393
0.000338685
0.000343064
0.000339555
0.000317466
0.000319331
0.000307311
0.000311877
0.000322801
0.000324951
0.000331997
0.000327772
0.000329255
0.000301681
0.000301927
0.000305136
0.000301079
0.000315318
0.000356588
0.00035619
0.000353974
0.000364573
0.000356696
0.000359576
0.000362015
0.000351974
0.000350415
0.000367569
0.000368542
0.000373376
0.000368918
0.000374766
0.00037615
0.000380393
0.00230369
0.00229303
0.00210495
0.00183343
0.0016803
0.00158875
0.00193264
0.00127689
0.0013972
0.00153367
0.000411722
0.000425102
0.0004044
0.000438964
0.000392581
0.000385859
0.000381847
0.000382601
0.00038039
0.000447338
0.000464306
0.000482785
0.000494228
0.00068276
0.000704069
0.000655968
0.000537775
0.000573506
0.000590362
0.000620011
0.000514089
0.000880346
0.000830315
0.00111646
0.00121366
0.00119218
0.00103018
0.000963918
0.00079902
0.000742292
0.0003484
0.000344948
0.000336795
0.000333183
0.000341202
0.000338178
0.000315267
0.000317645
0.000309311
0.000305207
0.000313039
0.0003207
0.000323364
0.000329673
0.000325824
0.000299142
0.000299977
0.000300796
0.00029671
0.000288257
0.000355155
0.00035402
0.000351697
0.000364874
0.00035503
0.00035745
0.000359695
0.000349875
0.0003658
0.000370815
0.00036596
0.000368768
0.000370555
0.000374261
0.000376375
0.0022997
0.00189012
0.00176696
0.00171015
0.00211776
0.00133012
0.00147922
0.00160365
0.000409578
0.000422091
0.000398394
0.000434016
0.0003929
0.000386141
0.000380725
0.000377981
0.000377773
0.000376609
0.000448344
0.000464986
0.000483837
0.000493077
0.00067546
0.000718952
0.000651222
0.000524493
0.000549012
0.000564648
0.00060289
0.000634108
0.000503149
0.000908131
0.000850316
0.00107768
0.00116244
0.00127392
0.00125254
0.00100652
0.000948438
0.000785514
0.000758104
0.000346178
0.000344595
0.000335012
0.000333206
0.000340852
0.000339247
0.000335969
0.000314828
0.000318616
0.000307454
0.000302573
0.000305515
0.000310645
0.000320246
0.000321521
0.000323905
0.000328684
0.00032534
0.000294784
0.000296921
0.00029526
0.000293903
0.000358399
0.000353226
0.000351497
0.000349427
0.000362918
0.000353187
0.000355435
0.000357475
0.000360191
0.000347511
0.000363323
0.000368663
0.000363778
0.000366148
0.000369142
0.000371503
0.000374861
0.00201436
0.0017851
0.00177686
0.00214127
0.00147781
0.00157305
0.00172905
0.000400868
0.000414512
0.000426857
0.000438292
0.000387133
0.000383272
0.000375345
0.000374076
0.000373914
0.000372277
0.000456093
0.000474035
0.000483403
0.000689097
0.00070963
0.00066508
0.000521551
0.000542609
0.000573537
0.000602031
0.000633125
0.000502941
0.000887046
0.000834165
0.0010804
0.00119586
0.0012971
0.00126276
0.00102918
0.000978044
0.000802921
0.000745919
0.000345615
0.000342384
0.000334416
0.000331765
0.000339084
0.000338227
0.000335372
0.000313901
0.000317465
0.000308235
0.000301537
0.000303108
0.000310084
0.000318374
0.000320268
0.000322372
0.000330234
0.00032691
0.000323503
0.000291759
0.000293274
0.000296902
0.000297626
0.000288308
0.000131746
0.000351351
0.000350103
0.00034947
0.000347303
0.000351564
0.00035351
0.000355233
0.00035926
0.000360981
0.000365485
0.000364057
0.000361238
0.000366832
0.000369198
0.000370839
0.00205489
0.00193476
0.00191285
0.00231936
0.00143998
0.00159523
0.00166513
0.00181901
0.000397946
0.000412301
0.000418285
0.000437923
0.000381572
0.000378446
0.000371401
0.000374134
0.000370569
0.000369208
0.000368371
0.000455791
0.000473974
0.000484043
0.000681264
0.000722737
0.000665172
0.000531316
0.000512999
0.000550931
0.000589004
0.000564786
0.000618043
0.000649089
0.000494084
0.000908541
0.000852809
0.00112432
0.00117916
0.00136458
0.00131898
0.00102655
0.000954663
0.000787794
0.000760247
0.000343294
0.000341548
0.000332388
0.000331219
0.000337479
0.000336677
0.00033369
0.000312049
0.000315578
0.000306416
0.000299257
0.000302626
0.000308677
0.000318432
0.000320734
0.00032225
0.000329116
0.000327387
0.000322502
0.000287565
0.000291102
0.000294619
0.000265757
0.000290696
0.00082292
0.000349212
0.000347883
0.000347376
0.000345389
0.000351675
0.000349353
0.000353281
0.000355245
0.000357253
0.000359752
0.000363134
0.000361761
0.000360345
0.000364038
0.000366953
0.000368081
0.0022127
0.00197512
0.00199913
0.00151287
0.00165096
0.00178194
0.00196408
0.000390209
0.000404172
0.000420134
0.000430391
0.000447435
0.000383187
0.000375187
0.000374235
0.000367011
0.000369479
0.000367225
0.000366183
0.000364785
0.000464967
0.000475904
0.000693436
0.000711434
0.000680685
0.000526344
0.000516127
0.000545338
0.000590396
0.000571009
0.000616923
0.000649589
0.000497018
0.000889218
0.000834401
0.00113052
0.00123718
0.00136312
0.00107378
0.000983182
0.000803509
0.000745996
0.000343255
0.000339369
0.00033222
0.000329469
0.000335519
0.000337597
0.000335193
0.000333654
0.000311398
0.000314265
0.000304632
0.000306837
0.000298112
0.000301082
0.00030939
0.000317497
0.000319669
0.000320369
0.000326417
0.00032039
0.000323466
0.000285698
0.000292091
0.000287968
0.000294379
0.000281334
0.000286879
0.000406691
0.00034761
0.000346484
0.000345608
0.000350122
0.000347828
0.000351346
0.000353277
0.000355896
0.000356965
0.000359657
0.000359169
0.000358165
0.000362263
0.000365037
0.000365447
0.00230075
0.0021465
0.00216313
0.00160886
0.00145494
0.00176474
0.00189771
0.00207915
0.000387487
0.000400683
0.000414281
0.000432797
0.000448796
0.000375423
0.000370239
0.000369904
0.000366031
0.000364068
0.000364782
0.000362489
0.000360986
0.000465928
0.000478414
0.000722238
0.000688457
0.000532926
0.000507633
0.000553667
0.000604352
0.00058393
0.000566663
0.000632435
0.000669001
0.0004881
0.000910746
0.000850811
0.00118354
0.00130082
0.0013526
0.00107002
0.00103023
0.000952118
0.000784917
0.000758185
0.000341754
0.000338621
0.000330268
0.000328883
0.000334215
0.000335781
0.000332238
0.000312492
0.000314838
0.000303213
0.000305455
0.000296351
0.00029944
0.000301445
0.000309177
0.00031619
0.000318371
0.00032722
0.000325081
0.000319679
0.000322403
0.000282192
0.000290097
0.000286548
0.000292614
0.00028416
0.000283617
0.00015566
0.000345882
0.000344431
0.000343817
0.00034844
0.000349896
0.00034626
0.000351501
0.000353524
0.000356304
0.000358106
0.00035655
0.000356284
0.000359774
0.000362986
0.000362702
0.00231138
0.00167989
0.00150169
0.00186256
0.00179077
0.00205436
0.0022275
0.000380315
0.0003934
0.000406407
0.000418376
0.000442901
0.00042778
0.000458664
0.000373615
0.00036992
0.000364624
0.000365121
0.000361628
0.000360141
0.000361702
0.000362691
0.000359579
0.000361148
0.000358681
0.000471111
0.000709589
0.00052191
0.000509714
0.00054061
0.00060215
0.000590502
0.000576568
0.000633309
0.000671964
0.000488138
0.000885167
0.000821645
0.00120004
0.00132968
0.00143148
0.00112515
0.00104148
0.000969545
0.000794544
0.000750199
0.000342347
0.00034008
0.000337003
0.000329593
0.00033277
0.000334491
0.000335472
0.000331795
0.000330797
0.000312304
0.00031349
0.000303529
0.000306077
0.000296339
0.000297901
0.000300231
0.000310779
0.000307682
0.000315627
0.000316653
0.000326188
0.000324294
0.000320989
0.000318279
0.000322842
0.000281873
0.000280305
0.000290475
0.000288001
0.000284345
0.000292978
0.000289208
0.000281447
0.00022066
0.000927581
0.000344315
0.000344217
0.000343061
0.000347381
0.000348036
0.000344605
0.00034517
0.00034943
0.000352506
0.000353996
0.000355558
0.000354336
0.00035399
0.000358894
0.000360427
0.000360144
0.001683
0.00159885
0.00200832
0.00190074
0.00218497
0.00232295
0.000380628
0.00039424
0.000401347
0.000415008
0.000447948
0.000432761
0.000461777
0.000367057
0.000363736
0.000360974
0.000361098
0.000358807
0.000360571
0.000356537
0.000357795
0.000356335
0.000469775
0.000723409
0.000525708
0.000498482
0.000615579
0.000651439
0.000694646
0.000477884
0.000901507
0.000825555
0.00127389
0.00117582
0.00140112
0.00145786
0.00109405
0.00101752
0.000943317
0.000767838
0.000340786
0.000339721
0.000336905
0.000328199
0.000332124
0.000332988
0.00033444
0.000330279
0.000329857
0.000313943
0.000302592
0.000304746
0.000294888
0.000298293
0.000300828
0.000309795
0.00030726
0.000316453
0.000324754
0.000326816
0.000319929
0.000317777
0.000322623
0.000279653
0.000276015
0.000288818
0.000286047
0.000284249
0.000292141
0.000275589
0.000225613
0.000235025
0.000342609
0.000342348
0.000341251
0.000345747
0.000347788
0.000343255
0.000343566
0.000348712
0.000350314
0.000352812
0.000355012
0.00035381
0.000352248
0.000352122
0.000356715
0.000357848
0.0018127
0.00163415
0.00216932
0.00194099
0.00227941
0.000388173
0.000374511
0.000405761
0.00041986
0.000441997
0.000456915
0.000427728
0.000361138
0.000367653
0.000359388
0.000356439
0.000356927
0.000354993
0.000358067
0.000355733
0.000353167
0.000356065
0.00035278
0.000354052
0.000461639
0.000717904
0.000891043
0.000795055
0.000859013
0.00128008
0.00121522
0.00142911
0.00154741
0.00112236
0.00104545
0.000960845
0.000768055
0.000340078
0.000338131
0.000335297
0.000327739
0.000330574
0.000333031
0.000329668
0.000328532
0.00031304
0.000303418
0.000304654
0.000294716
0.000297375
0.000300851
0.000310565
0.000308434
0.000305964
0.000315611
0.000323803
0.000325974
0.000320183
0.000318532
0.000316448
0.000321573
0.000280264
0.000276458
0.000289279
0.000287095
0.000285466
0.000282509
0.000290927
0.000293118
0.000274946
0.000195098
0.000255481
0.000981568
0.000341182
0.000341145
0.000344775
0.000345795
0.000341726
0.000342471
0.00034666
0.000349551
0.000350912
0.000353216
0.00035119
0.000350516
0.000350192
0.000355088
0.000355624
0.00182586
0.00173637
0.00229397
0.00211485
0.000389916
0.00037652
0.00040381
0.000417361
0.000444846
0.000429496
0.000355273
0.000362018
0.000353362
0.00035451
0.000351372
0.000353969
0.000352772
0.000353505
0.000351806
0.000353524
0.000351961
0.000453741
0.000741331
0.000922005
0.00133773
0.00121437
0.00152804
0.00141129
0.00109794
0.00118395
0.00100508
0.000338588
0.000337347
0.000334239
0.000326404
0.000329708
0.000331813
0.000328434
0.000327834
0.000311891
0.000314241
0.000302217
0.000303517
0.000295955
0.000298428
0.000299742
0.000309554
0.000308404
0.0003061
0.000324559
0.000319533
0.000317876
0.000315832
0.000321545
0.000278683
0.000274477
0.000288484
0.000286091
0.000283892
0.000282188
0.000290685
0.000293215
0.000272441
0.000176801
0.000259659
0.000297682
0.000339401
0.000339448
0.00034309
0.000345187
0.000340393
0.000340707
0.000346316
0.000347787
0.000349283
0.000351073
0.000351793
0.000348707
0.000348545
0.000348799
0.000352626
0.000353276
0.00196044
0.00177693
0.00211881
0.000384931
0.00039776
0.000374928
0.000411053
0.000421794
0.000436955
0.000355585
0.000351451
0.000362615
0.000349473
0.000350229
0.000348416
0.000350352
0.00034937
0.000351241
0.000349825
0.000351239
0.000349427
0.0012875
0.00160017
0.00149389
0.00113454
0.00122073
0.00102413
0.000338191
0.000336357
0.000334852
0.000332784
0.000325728
0.00033067
0.000328691
0.00033178
0.000327325
0.000326444
0.000312308
0.000313555
0.000302168
0.000303802
0.000296016
0.000297199
0.000299813
0.000309978
0.000307439
0.000305145
0.000323822
0.000318449
0.000320222
0.000316557
0.000314379
0.000322584
0.000276967
0.000279019
0.000275081
0.000271883
0.000289254
0.000286868
0.000284328
0.000280657
0.000291766
0.000294666
0.00026973
0.0002191
0.0001907
0.000265266
0.000980932
0.000338464
0.000338569
0.000341837
0.00034365
0.00033913
0.000339712
0.000344423
0.000347745
0.00034975
0.000350248
0.000346986
0.000347045
0.000346911
0.000351782
0.00191159
0.00170142
0.00229545
0.000386785
0.00039868
0.000381663
0.000369065
0.000405351
0.000351006
0.000346263
0.000354932
0.000343683
0.000348351
0.000344732
0.000348093
0.000347858
0.00034957
0.000349844
0.000347691
0.000348986
0.000347315
0.00131656
0.00159442
0.00146769
0.00108336
0.00119141
0.00127746
0.00033688
0.000333924
0.000331689
0.00032442
0.000330101
0.000328996
0.000327536
0.000330604
0.000326133
0.000311315
0.000301161
0.000302945
0.000297473
0.000299018
0.000309089
0.00030782
0.00030557
0.000317458
0.000319801
0.000316387
0.000313671
0.000321737
0.000276061
0.000277066
0.000272969
0.000271217
0.000288644
0.000286046
0.000283424
0.00028141
0.000291214
0.000294647
0.000268718
0.00026741
0.000227359
0.000134461
0.00026521
0.000395363
0.000336908
0.000337319
0.000340494
0.000342213
0.000343123
0.000337877
0.000338653
0.000344522
0.000346261
0.000348133
0.000348514
0.000345343
0.000346712
0.000346166
0.000345473
0.000345729
0.000349391
0.00200898
0.00175738
0.00218281
0.000393037
0.000377477
0.000370963
0.00034591
0.000342055
0.000352758
0.000339939
0.000344725
0.000342762
0.000341355
0.000344908
0.000345086
0.000347821
0.00034702
0.00034533
0.000346925
0.000344504
0.00138467
0.00167882
0.00155027
0.00122721
0.00129511
0.000335675
0.00033303
0.000334525
0.000330435
0.000331914
0.000323406
0.000328326
0.00032644
0.000329942
0.000325255
0.000311456
0.000301614
0.000303435
0.000297277
0.00029961
0.000309474
0.000306876
0.000304761
0.00031775
0.00031886
0.000320682
0.000315534
0.000312634
0.000314423
0.000322157
0.000274576
0.000277032
0.000272788
0.000286956
0.000289591
0.00028432
0.000280589
0.000292272
0.000296257
0.000293788
0.000267548
0.000264456
0.000248339
0.000170987
0.000264171