/*--------------------------------*- C++ -*----------------------------------*\
| =========                 |                                                 |
| \\      /  F ield         | OpenFOAM: The Open Source CFD Toolbox           |
|  \\    /   O peration     | Version:  v2012                                 |
|   \\  /    A nd           | Website:  www.openfoam.com                      |
|    \\/     M anipulation  |                                                 |
\*---------------------------------------------------------------------------*/
FoamFile
{
    version     2.0;
    format      ascii;
    class       volScalarField;
    location    "0.4";
    object      omega;
}
// * * * * * * * * * * * * * * * * * * * * * * * * * * * * * * * * * * * * * //

dimensions      [0 0 -1 0 0 0 0];


internalField   nonuniform List<scalar> 
13611
(
48.5807
48.1284
50.0182
49.0212
47.1008
51.1131
50.2232
48.6652
46.0366
46.8131
52.51
51.3989
47.5947
49.7261
44.9955
46.0223
52.6455
53.897
51.691
46.5881
48.975
51.0466
44.029
45.042
45.8317
54.122
55.4634
53.1774
46.6581
47.7629
49.7346
51.7348
43.0371
44.3562
44.7395
54.3172
55.5178
57.0598
53.1859
45.5229
47.4827
49.515
50.8894
51.4786
42.8203
42.1434
43.5492
44.5639
55.8426
57.043
58.8019
54.2758
45.4144
48.421
46.3952
50.5435
51.6511
52.8307
42.0422
41.3081
42.6795
43.5617
57.2697
55.7452
58.494
60.7347
54.0156
44.3748
48.2539
46.1799
50.5768
52.7004
41.983
41.2938
40.4643
42.6652
43.4827
58.7677
57.03
60.1007
62.7234
55.2576
44.3392
47.0788
49.1922
45.2836
51.6291
53.92
41.2027
40.6349
39.7302
41.7062
42.4164
59.2138
56.5947
58.3544
61.7769
63.2069
64.7467
55.453
43.7314
46.6072
48.8897
44.9002
51.065
52.5556
53.8076
41.0137
40.6017
39.8252
38.8698
41.5933
42.1394
60.9996
57.8475
59.1056
62.5321
65.4653
67.0414
56.9166
43.0175
44.0335
45.5282
47.3423
48.3685
50.1569
51.8875
55.3024
40.0888
39.837
39.4498
38.3765
40.7814
41.5169
60.6113
58.4719
64.3517
67.3437
65.6537
69.2769
56.9534
42.4641
43.2761
45.4884
46.4389
49.09
50.2527
52.8813
55.5073
39.9814
39.5355
38.7229
37.6842
40.3205
40.7234
41.7187
62.1012
60.1136
65.3012
69.5379
67.7327
71.8863
58.6759
42.5194
43.548
44.6283
46.8629
48.2348
51.2446
54.2459
52.3929
57.1786
39.3996
38.7078
38.3335
37.2937
37.06
39.5376
40.0985
41.2735
64.3745
61.5844
60.3072
67.6958
71.6471
69.498
74.7062
58.8371
41.623
42.9879
44.5788
46.5265
48.6918
50.8232
54.2964
53.1151
57.1311
38.6506
38.2478
37.6194
36.623
36.4457
39.0389
39.3445
40.3991
66.1332
63.1647
61.9948
69.5814
73.9125
71.6967
77.3841
60.4916
41.4553
43.4602
42.2005
45.4636
47.4019
48.4321
49.9585
52.0192
55.5995
58.8697
38.1608
37.4103
37.1332
36.2112
36.1707
35.8308
38.3762
38.6674
40.0598
65.0389
68.4556
62.9705
69.6042
72.2882
76.325
80.0183
77.9443
62.0483
60.4247
40.6773
43.1122
41.5208
45.3444
47.1041
49.2409
50.3112
52.5777
55.8646
58.9957
37.4433
37.0355
36.4205
35.5566
35.5052
35.3658
37.7325
38.6049
37.9261
39.2916
66.3549
70.0522
65.2389
72.3984
74.8766
77.9174
83.0733
80.9484
63.2678
61.9714
40.7735
42.367
43.8979
41.6067
46.1789
44.6251
47.948
49.1572
51.3886
53.9783
57.6209
55.1807
60.7943
37.2332
36.2554
35.9381
35.2035
35.1405
34.7472
37.9456
37.4018
39.3203
68.9021
72.5692
66.4131
74.5639
77.7046
81.3914
86.1833
65.0911
62.8582
40.1125
42.5602
43.3043
40.859
45.3486
44.5943
47.766
50.1505
51.3731
53.7909
57.5635
56.1402
60.4895
62.4707
36.6762
35.8143
35.3624
34.5473
34.5363
34.3114
37.4435
37.6146
36.7595
38.7364
70.5587
75.0008
68.751
77.1899
80.5965
84.4422
87.6115
88.9916
66.0276
64.9505
40.103
41.8584
43.6069
40.602
45.7403
48.8601
46.9077
49.9332
52.4976
54.8655
58.855
56.0391
61.9901
64.0794
36.1578
36.3761
35.2741
34.6811
34.2281
34.2914
33.6974
36.9309
36.9978
38.0231
36.5174
38.8946
73.18
75.3054
77.7188
69.609
79.7021
83.3956
85.3818
91.0902
93.5297
68.3203
65.9762
39.5936
41.8105
41.0815
43.2991
39.807
44.9924
48.9215
47.2128
50.9466
52.0239
55.043
58.6528
57.2893
61.8095
63.9565
35.7102
35.7816
34.652
35.2669
33.6127
33.7104
33.1998
33.3448
36.5463
37.4453
35.9857
38.4049
73.7329
78.3328
80.5986
72.367
82.3072
84.9865
89.3037
92.4683
93.6917
97.8512
69.705
67.9498
40.9021
42.4908
40.567
44.0738
39.4022
45.3785
50.0331
48.2067
46.4005
50.9828
52.9197
54.1787
56.5132
60.0163
63.3866
65.8884
35.2516
34.1304
34.7859
33.3668
33.3603
32.6412
32.8368
35.9431
36.7853
37.6473
35.387
38.6386
76.8455
81.208
83.3477
74.0817
88.1962
92.4473
96.5576
97.899
103.026
72.2235
68.6996
40.9046
42.6363
39.7893
43.4411
44.9107
49.8671
48.6349
46.4168
52.014
54.8453
57.3049
59.0764
65.2888
63.3185
67.9507
34.7023
33.5985
34.2684
32.7843
32.7881
32.4323
32.5356
35.4681
36.1914
37.1846
34.8003
38.193
78.8451
84.2117
86.8326
77.0221
91.2429
96.0052
98.9727
102.211
108.855
73.1625
71.3618
39.9448
41.7455
39.4207
43.8894
45.4042
50.7201
48.355
47.262
52.5563
54.0272
56.408
60.0777
66.8832
65.4818
62.0367
69.6809
34.2229
33.0635
33.7582
32.4887
32.6639
32.0325
32.1111
34.8305
35.6105
36.075
36.5935
37.5115
34.2819
38.5887
82.1238
86.5886
85.7296
90.3102
78.6903
95.8746
98.1971
103.195
106.704
115.175
76.2667
72.1597
39.5752
41.756
43.4358
44.9833
50.5336
51.8644
49.3362
46.7788
54.736
57.196
58.8938
69.1827
66.5158
62.8288
33.7003
33.1901
31.9627
32.1536
31.6475
31.715
34.4513
35.1884
35.5553
36.2193
36.9566
33.7867
37.9728
83.6882
84.3068
90.2181
89.9944
93.6725
82.1724
98.98
103.277
105.246
111.9
122.466
115.469
77.3686
74.649
38.9294
40.2115
40.9665
42.6709
44.0517
45.66
51.4997
52.5605
48.8283
47.5124
53.8275
56.2765
59.5713
71.4126
64.7449
68.6212
61.3628
33.2529
32.7102
31.7968
31.6002
31.9212
31.2409
31.2556
31.2733
33.9995
34.6818
35.1498
35.6246
36.4093
36.7718
33.6348
33.3306
37.225
38.2219
87.1916
87.7633
93.3555
93.2874
97.4211
84.5882
104.433
106.522
110.83
115.132
130.825
122.816
80.7161
75.1886
38.9439
39.5153
41.0713
42.6795
43.4674
45.1728
52.03
49.7197
47.1305
54.51
57.0264
58.6834
70.5567
74.0427
64.9114
68.511
61.725
32.7336
32.2141
31.3193
31.0636
31.4105
30.7966
30.8254
30.9199
33.6486
34.4701
34.7223
35.3152
36.025
36.1571
33.2573
32.9329
36.8924
37.8741
90.0224
91.6373
96.9147
97.9046
100.655
83.854
88.7509
108.32
112.174
121.466
140.571
130.041
80.7979
78.3639
38.2468
39.7022
41.8826
40.4542
44.0198
45.8806
53.6147
51.1275
49.1698
47.9727
56.1186
59.5667
72.5257
75.7767
63.6249
66.9834
70.8029
61.2436
32.3911
31.8239
30.9394
31.1186
31.179
30.4505
30.4252
30.5353
33.7231
33.2853
34.0817
34.3642
34.8972
35.5824
35.9149
32.8993
32.5334
36.2823
37.2448
93.8428
94.874
102.477
105.191
87.5908
91.4492
114.074
117.916
127.442
150.262
138.43
84.0539
78.5151
37.7483
39.5789
41.7502
40.1902
43.3978
45.5614
54.3867
51.7229
49.9017
47.4171
56.9453
58.7144
75.0235
64.3547
67.6935
71.89
62.5934
31.9166
31.4125
30.531
30.6186
30.7727
29.9838
29.9805
30.0711
33.2976
32.9677
33.9476
34.4982
34.7919
35.1565
35.3088
32.5798
32.2084
35.9208
36.6924
96.9673
99.5439
103.256
107.066
108.493
91.4706
87.5002
95.5781
117.175
117.815
125.292
136.266
161.351
151.114
147.399
84.0877
80.9933
38.1328
36.8867
39.0419
42.4871
40.8221
43.9114
46.4455
44.7537
55.9907
53.2124
51.1505
49.2968
48.076
59.706
77.2984
66.1559
69.9089
74.6242
61.7743
31.6673
31.0625
30.1045
30.3409
30.4549
30.5792
29.7378
29.7453
29.5886
33.0498
32.9871
32.6236
33.6656
34.1328
34.3102
35.0457
32.2384
31.8897
35.4004
36.1122
101.347
108.837
112.065
115.159
95.5306
91.4384
98.9061
124.151
125.179
132.865
143.948
173.728
163.793
154.976
87.0599
80.4143
37.6943
36.4836
39.2518
42.3339
40.7261
43.0142
45.7179
44.845
56.8917
53.3032
51.8823
50.0264
47.3228
58.7456
77.3438
67.0551
70.3093
74.3061
63.1333
31.3805
31.0793
30.7503
29.7895
29.905
30.1307
30.2697
29.3728
29.3229
29.3179
32.6607
33.2764
32.6253
32.3776
33.7957
33.9934
34.1734
34.6068
31.9498
31.6249
35.0841
35.5926
106.16
112.419
118.149
120.334
98.1984
90.2814
95.2843
104.137
130.017
132.022
141.882
154.183
166.568
86.6096
83.1964
38.0835
36.9078
35.9031
38.792
40.0247
41.5002
43.0921
46.1199
44.0853
56.8001
54.5293
51.3523
49.982
47.7309
59.6998
80.166
69.4028
65.4546
72.6227
76.7653
61.5096
31.3656
30.7665
30.4801
29.3476
29.622
30.0565
29.7677
30.2263
28.9739
28.9367
28.9543
32.4266
32.574
33.115
32.3835
32.0334
33.5817
33.6682
33.8853
34.4064
31.6405
34.6304
35.1785
35.4829
111.687
119.751
123.806
128.08
103.357
93.0122
97.2182
108.613
138.777
140.172
150.588
165.24
176.097
89.837
82.5698
37.5797
36.5657
35.4155
39.0513
39.7978
41.2336
42.6591
45.8416
43.9432
55.997
58.4537
53.5127
52.1676
48.8703
51.1693
46.6388
81.4062
70.9186
66.5957
73.2948
79.3677
75.305
62.1359
31.0917
30.489
30.7973
29.0191
29.1618
29.7857
29.606
29.9925
28.6907
28.4969
28.6242
32.1452
32.8057
32.2693
33.2943
32.1075
31.9133
33.3847
33.5413
34.0317
31.4024
34.4766
34.7574
35.0364
117.32
123.972
132.254
134.482
107.782
101.946
96.9122
114.968
147.163
149.742
162.175
176.216
91.9217
85.8478
36.9556
37.8509
36.014
35.0067
35.4943
38.6362
40.3225
41.8509
43.153
44.7675
56.9383
58.5736
54.1765
48.9222
51.7999
46.7419
84.4989
69.6599
65.9337
80.6539
76.9211
64.1645
60.174
31.0831
30.2333
30.5594
28.6414
28.9164
29.603
29.3647
29.7135
29.9924
28.357
28.2398
28.3711
28.2284
32.0788
31.8784
32.6382
32.1574
33.0499
31.8512
31.6536
33.0861
33.3027
33.2974
33.7322
31.4287
34.1037
34.6875
119.254
132.026
139.592
144.305
112.889
105.803
101.033
118.862
159.982
160.47
173.779
97.1776
88.9149
36.3753
37.3789
35.8952
34.6452
35.0044
39.0282
39.9132
41.6969
42.5266
44.2905
55.9758
53.4136
47.8391
50.0537
51.1639
45.9034
86.3609
71.4838
68.1101
80.1464
84.4024
74.6905
64.5939
60.5338
30.9938
30.1345
30.5662
30.3025
28.3057
28.6702
29.1244
29.322
29.5118
29.8185
27.9611
27.8891
27.9794
27.8615
27.9309
31.8049
31.7024
32.3344
32.7697
31.8904
31.5401
31.453
32.8905
32.9779
32.9866
33.3898
33.7755
31.1863
33.9625
34.2919
127.851
139.587
134.373
149.773
152.801
111.789
105.802
101.514
125.39
172.332
98.1253
89.8384
36.5669
37.7373
35.2465
34.3597
34.2956
34.8238
34.5573
38.5833
40.4305
41.2726
42.6223
45.0314
43.4047
56.8006
54.2692
47.8072
49.8815
52.0301
45.9931
70.4461
66.7003
82.7941
86.4242
75.9693
62.9366
59.763
30.7681
29.8804
30.3358
30.1877
28.3454
27.9648
28.6917
28.8986
29.1611
29.5717
29.2719
27.7079
27.7445
27.4826
27.5448
31.7132
31.4975
32.1797
32.5581
31.703
31.3806
31.2301
32.6241
32.8237
32.7794
33.1356
33.3931
31.0943
33.629
130.461
149.801
144.641
158.198
165.004
117.66
110.783
106.988
128.913
93.5467
103.179
36.0953
37.2924
34.9782
33.9662
33.9743
34.3247
34.2153
39.0298
39.9158
41.7102
44.4408
43.5681
55.7268
58.3354
53.2627
46.8251
48.8161
50.8953
44.8918
72.317
67.9873
81.8963
89.8431
79.1796
74.977
62.9778
61.0643
30.7108
29.7311
30.3086
30.0081
28.1513
27.6782
28.491
28.7738
28.908
29.4173
29.0905
27.3813
27.3621
27.1233
27.261
31.4956
31.284
32.3324
31.977
31.4643
31.7679
31.168
31.0063
32.4319
32.5278
32.4772
32.8552
33.1374
33.2981
30.8723
33.6569
139.418
158.077
152.973
147.701
167.902
173.452
125.414
116.411
110.413
138.683
94.3148
103.27
107.941
36.4649
35.4584
37.6814
34.4541
33.7038
33.8929
33.8522
38.5362
40.3616
41.3216
42.7793
56.2027
57.7966
53.9097
46.8848
48.7068
50.9178
44.777
70.8814
67.0442
85.4225
93.4515
89.1013
79.8305
76.8818
64.7707
60.5377
30.4894
29.5097
29.8133
30.0929
29.9546
27.9614
28.3
27.3109
27.6951
28.4933
28.7787
29.2409
28.883
29.0926
27.1034
27.1307
26.7524
26.7782
31.3684
31.2922
31.1098
32.1478
31.9552
31.314
31.5624
30.9794
30.8268
32.1881
32.3438
32.3328
32.6998
32.8295
33.0194
33.3149
167.608
165.015
160.277
175.06
131.502
122.18
118.312
147.229
99.7836
108.244
112.862
36.1371
34.9274
37.3221
34.4236
33.9748
33.2918
33.4418
33.4657
38.9282
40.3543
41.8924
42.9059
55.5885
58.7787
53.4324
45.7801
47.8341
49.7762
52.0921
43.8091
72.4776
68.8562
85.5593
96.8758
92.7441
82.5036
75.6576
63.9609
61.9199
30.3742
29.4238
29.6904
30.0401
29.7589
27.9672
28.12
27.1349
27.5092
28.4032
28.5769
29.147
28.8037
28.9241
26.7103
26.7121
26.5557
26.5531
27.03
31.1297
31.0984
30.9203
31.7753
31.1373
31.3707
31.5684
30.7591
30.6343
32.0172
32.0957
32.4851
32.1262
32.5979
32.7095
33.05
173.335
172.601
159.527
140.492
129.659
123.143
147.457
100.72
109.419
119.213
35.5506
36.6122
34.9683
37.7093
34.0266
33.4896
33.1664
33.2274
33.0514
38.371
39.7082
41.16
42.0572
56.6183
58.243
54.5722
45.4587
48.2286
49.5319
51.8162
43.6129
71.5357
67.7861
89.0176
96.119
94.5546
82.6687
77.7603
65.4307
61.146
30.4707
30.1917
29.5364
29.2428
29.8867
29.6435
27.7849
27.9797
27.2977
26.96
27.6011
28.2296
28.4439
28.9573
28.6425
26.4993
26.5386
26.1676
26.2321
25.0684
31.0128
30.9229
30.7359
31.7999
31.0017
31.1982
31.3807
30.5889
31.8746
32.2791
31.8876
32.1139
32.2594
32.5581
32.7278
173.062
144.48
135.791
131.779
160.421
104.575
115.313
124.203
35.3801
36.3735
34.4897
37.3183
34.0518
33.5122
33.0789
32.8564
32.8409
32.7483
38.4506
39.7616
41.2421
41.9703
56.0624
59.3742
54.2114
44.4255
46.3325
47.5448
50.4984
52.8997
42.7591
73.6076
69.2855
86.1707
92.3848
100.502
98.955
80.9186
76.6101
64.4147
62.343
30.2878
30.1602
29.3894
29.2431
29.8537
29.7273
29.4621
27.7474
28.0582
27.1411
26.7424
26.9817
27.4005
28.1885
28.2918
28.4854
28.8744
28.599
26.1492
26.2849
25.9265
26.0517
30.1917
30.8558
30.7171
30.5504
31.6419
30.8518
31.0345
31.2006
31.4211
30.3957
31.6746
32.1066
31.7113
31.9029
32.1459
32.3363
32.6063
153.197
137.082
136.485
162.042
115.209
122.026
133.12
34.6866
35.7719
36.7512
37.6568
33.5912
33.2828
32.6481
32.5432
32.5311
32.401
39.062
40.4737
41.2123
57.1037
58.6676
55.2728
44.1972
45.8294
48.2328
50.4342
52.8259
42.7439
72.0358
68.0776
86.3663
94.8237
102.183
99.6992
82.5873
78.8042
65.7272
61.4235
30.2411
29.9775
29.3376
29.1241
29.7084
29.6413
29.4092
27.6672
27.9591
27.2016
26.6537
26.7809
27.3503
28.0321
28.1852
28.3571
28.9985
28.7265
28.4467
25.8915
25.9919
26.2754
26.1127
25.6292
13.4645
30.7029
30.6022
30.5527
30.3778
30.719
30.8775
31.0187
31.3456
31.4848
31.8504
31.7341
31.5058
31.9599
32.1511
32.2831
156.043
147.631
146.078
174.429
112.497
123.614
128.583
139.478
34.4549
35.598
36.0738
37.6309
33.147
32.8967
32.3315
32.5513
32.2612
32.1534
32.0869
39.041
40.4721
41.2605
56.5085
59.6646
55.2816
44.9509
43.5244
46.4658
49.426
47.5425
51.6659
54.0493
42.0409
73.6394
69.4775
89.5882
93.6009
107.068
103.772
82.3954
77.0739
64.5907
62.5093
30.0501
29.9072
29.1695
29.0756
29.5731
29.5135
29.2682
27.5115
27.802
27.0465
26.4644
26.7358
27.2284
28.0345
28.2212
28.3448
28.9042
28.7622
28.357
25.5608
25.8067
26.0847
23.6138
25.7308
64.5009
30.5268
30.42
30.3805
30.2205
30.7276
30.5378
30.8595
31.0193
31.1825
31.3853
31.6608
31.548
31.4334
31.7342
31.9699
32.0615
167.044
150.44
152.121
117.725
127.57
136.861
149.687
33.8386
34.9519
36.2232
37.033
38.382
33.277
32.6357
32.5593
31.9791
32.178
31.9923
31.9096
31.7988
39.7635
40.6124
57.4382
58.8082
56.4661
44.5381
43.7515
46.0026
49.524
48.0096
51.5723
54.0809
42.2446
72.2027
68.0994
90.0433
97.8282
106.958
85.8753
79.1901
65.776
61.4318
30.0464
29.727
29.1497
28.9314
29.4122
29.5803
29.3884
29.2624
27.4518
27.6891
26.8977
27.076
26.3647
26.6043
27.2832
27.9543
28.1303
28.1867
28.678
28.184
28.4331
25.3929
25.8807
25.5523
26.0577
24.854
25.4193
33.8337
30.3964
30.3058
30.2368
30.6008
30.4123
30.7018
30.8587
31.0724
31.1594
31.3797
31.3391
31.256
31.5911
31.8158
31.8494
173.131
162.429
163.585
124.584
113.575
135.647
145.01
157.735
33.624
34.6759
35.7497
37.2153
38.4861
32.6567
32.2394
32.2121
31.901
31.7421
31.7953
31.6121
31.4927
39.8352
40.7837
59.6296
57.0566
45.0328
43.0547
46.6232
50.5939
49.0115
47.6494
52.7552
55.5594
41.5189
73.8105
69.3287
93.9205
102.449
106.191
85.599
82.6722
76.8903
64.3739
62.3535
29.9222
29.6645
28.9869
28.8775
29.3009
29.4283
29.1431
27.5401
27.7317
26.7748
26.9554
26.2163
26.4685
26.6283
27.2595
27.844
28.0221
28.7392
28.5664
28.1188
28.3397
25.1073
25.7115
25.4304
25.9067
24.9935
25.1884
15.335
30.2532
30.1365
30.0882
30.4622
30.5828
30.2827
30.7139
30.8791
31.1051
31.2541
31.1265
31.1039
31.3894
31.6499
31.6279
173.871
129.632
116.916
142.534
137.494
156.001
168.066
33.0496
34.0942
35.1277
36.0543
38.0018
36.7891
39.2544
32.515
32.215
31.788
31.8279
31.547
31.4259
31.547
31.6263
31.3788
31.5025
31.3076
40.1835
58.6635
44.0962
43.1421
45.6094
50.3947
49.4921
48.398
52.7988
55.7649
41.4445
71.8988
67.1306
95.1259
104.542
111.877
89.6556
83.5068
78.1842
65.0943
61.7434
29.968
29.7838
29.5291
28.927
29.1779
29.32
29.402
29.0998
29.0233
27.5182
27.6151
26.7967
26.9991
26.2078
26.3345
26.5211
27.3878
27.1301
27.7926
27.8761
28.6478
28.4951
28.2204
27.9991
28.3723
25.058
24.9486
25.7336
25.5423
25.2468
25.9286
25.4478
24.9935
20.2951
72.018
30.1256
30.115
30.0242
30.3758
30.4302
30.1462
30.193
30.544
30.7958
30.9168
31.0473
30.9468
30.9164
31.3187
31.4433
31.4211
129.84
123.861
152.781
145.236
165.09
174.673
33.0657
34.1507
34.7055
35.7436
38.3665
37.1474
39.4787
31.9872
31.7184
31.4953
31.5045
31.3194
31.4556
31.1328
31.2311
31.1184
39.9832
59.7074
44.3695
42.235
51.4205
54.1843
57.4939
40.5983
73.1129
67.4089
100.505
93.3614
109.701
113.77
87.3779
81.7371
76.2297
63.0704
29.8366
29.7505
29.516
28.8086
29.1189
29.1912
29.3134
28.9705
28.9394
27.6511
26.7126
26.8814
26.0834
26.3612
26.5647
27.2988
27.0858
27.852
28.5283
28.6937
28.1244
27.9489
28.3463
24.8683
24.5999
25.5913
25.3783
25.2345
25.8512
24.5553
20.6654
21.187
29.9825
29.9591
29.8734
30.2408
30.4095
30.0339
30.0595
30.485
30.6165
30.82
31.0031
30.9047
30.7762
30.7648
31.1418
31.2355
139.021
126.373
164.012
148.051
171.646
33.6476
32.5561
35.0243
36.0793
37.8514
39.0524
36.687
31.5137
32.0238
31.3707
31.1302
31.1687
31.0121
31.2527
31.0655
30.8606
31.0907
30.8306
30.9342
39.3276
59.2689
72.3159
65.1054
69.9167
100.955
96.2366
111.723
120.195
89.4524
83.7902
77.5149
63.0713
29.7763
29.6161
29.3812
28.7635
28.9861
29.195
28.9129
28.8267
27.568
26.7724
26.8642
26.0576
26.2761
26.5561
27.3565
27.1807
26.9711
27.773
28.4408
28.6177
28.1375
28.0068
27.8347
28.2526
24.9071
24.6165
25.6191
25.4504
25.3225
25.087
25.7486
25.9217
24.4888
18.3378
22.971
76.0173
29.8655
29.8582
30.1603
30.2446
29.906
29.9681
30.3154
30.5534
30.6642
30.8565
30.6911
30.6353
30.6063
31.0109
31.0555
139.942
133.632
172.664
160.215
33.7121
32.6598
34.7826
35.7414
37.9744
36.7271
31.0422
31.557
30.8862
30.9743
30.7218
30.93
30.8318
30.8848
30.749
30.8848
30.7651
38.6791
61.0396
74.617
105.13
96.1767
118.824
110.438
87.6548
93.9606
80.7916
29.6509
29.5478
29.2882
28.6499
28.9119
29.0909
28.8062
28.7609
27.4654
27.6574
26.6638
26.7608
26.154
26.3497
26.4571
27.261
27.1689
26.9717
28.4984
28.0715
27.9423
27.7731
28.238
24.7708
24.4468
25.5426
25.3576
25.1884
25.0519
25.7115
25.9122
24.2754
16.9787
23.2681
25.8279
29.7156
29.7161
30.0198
30.1939
29.794
29.8199
30.2864
30.4078
30.5298
30.6814
30.7421
30.4871
30.4727
30.4907
30.8109
30.865
149.421
136.512
160.488
33.2711
34.2755
32.4425
35.2304
36.0238
37.3099
31.067
30.7342
31.4992
30.5709
30.6288
30.4827
30.6378
30.5568
30.7006
30.5877
30.6988
30.56
101.498
123.97
116.365
90.3275
96.6376
82.1903
29.6158
29.4632
29.3353
29.1629
28.5833
28.9934
28.8214
29.0812
28.7057
28.638
27.4855
27.5881
26.6515
26.7731
26.1423
26.2343
26.4492
27.2833
27.0786
26.8808
28.4281
27.9795
28.1216
27.8276
27.6492
28.3202
24.6275
24.7861
24.4804
24.2351
25.5921
25.4112
25.2164
24.9182
25.7884
26.0211
24.0463
20.1853
17.9661
23.6813
76.1402
29.6347
29.641
29.9148
30.0655
29.6874
29.7352
30.1293
30.4035
30.5734
30.6153
30.346
30.3485
30.3348
30.7431
146.01
131.169
172.768
33.2438
34.2194
32.8112
31.9516
34.7045
30.6707
30.3152
30.9087
30.1046
30.4768
30.1848
30.4545
30.4337
30.5655
30.5863
30.4152
30.5147
30.3875
103.599
123.558
114.49
86.5711
94.4901
100.764
29.5054
29.2542
29.0629
28.471
28.9404
28.8444
28.7214
28.9793
28.6052
27.3921
26.5569
26.6887
26.2451
26.3724
27.1936
27.0924
26.8983
27.8836
28.0769
27.8
27.5775
28.2366
24.5416
24.6183
24.3014
24.1673
25.5252
25.325
25.1294
24.9678
25.7233
26.0015
23.9601
23.8543
20.7869
13.7848
23.6581
33.0607
29.5014
29.534
29.8014
29.9452
30.0215
29.5793
29.645
30.1357
30.2799
30.4403
30.4736
30.2105
30.3234
30.2738
30.2199
30.2366
30.5482
152.828
135.125
164.957
33.7023
32.3866
31.9225
30.272
29.9763
30.6286
29.8005
30.1833
30.0249
29.9121
30.1963
30.2089
30.4223
30.3556
30.2218
30.3466
30.159
108.521
129.554
120.403
97.0888
102.034
29.401
29.1753
29.3029
28.9527
29.0783
28.3754
28.7808
28.6218
28.9151
28.5244
27.3878
26.5812
26.7114
26.2141
26.4027
27.2117
27.0011
26.8168
27.8951
27.9862
28.1443
27.7174
27.4817
27.6254
28.265
24.4166
24.6011
24.276
25.3832
25.5877
25.1851
24.8835
25.7934
26.1226
25.9166
23.8534
23.6036
22.3687
16.5412
23.5648
30.0634
29.4538
29.3971
29.5067
29.7338
29.8491
29.8853
29.4952
29.542
29.641
30.0164
30.385
30.409
30.1031
30.156
30.1361
30.1091
30.1175
143.765
173.264
31.4959
29.8281
29.622
30.1827
30.9822
29.4671
30.0515
29.754
29.632
30.0837
30.069
30.2623
30.2714
30.0838
30.1796
106.248
133.86
128.128
117.179
29.1484
29.2064
28.8759
29.0214
28.3646
28.7005
28.8182
28.5401
28.618
28.438
27.3065
26.4986
26.6494
26.3046
27.183
27.0035
26.8229
27.7985
27.9752
28.0622
27.7169
27.4672
27.5471
28.2111
24.2991
24.7504
24.4849
24.1618
25.3316
25.5408
25.0934
24.9565
25.7459
26.124
25.9503
23.7254
24.0276
23.4037
23.5254
23.034
15.8785
23.3706
17.7091
29.3578
29.2734
29.4027
29.7561
29.8042
29.3712
29.4736
29.5817
29.8814
30.0072
30.2513
30.2324
29.9997
30.1245
30.0609
30.0079
143.97
173.224
29.5227
29.534
29.2363
30.1749
29.7273
30.5921
29.4009
29.18
29.8094
29.5567
29.6455
29.8665
29.8717
30.1418
30.1392
29.9112
30.1199
30.0287
110.549
134.745
130.299
122.38
29.0609
29.1877
28.9148
28.7953
28.2618
28.6505
28.7678
28.4553
28.5467
28.3995
27.2409
26.5366
26.6805
26.3116
27.1021
26.9198
26.7612
27.7699
27.9098
28.0569
27.6352
27.4014
27.5555
28.1319
24.3378
24.173
24.6956
24.4851
25.2504
25.4316
25.6261
25.1355
24.8992
25.818
26.0537
26.2194
25.9154
23.7839
23.9279
23.1764
23.4181
20.3764
23.2215
29.2509
29.3334
29.3266
29.6377
29.6804
29.326
29.5006
29.3854
29.7781
29.9092
30.1654
29.8663
29.9968
29.9335
29.8751
152.685
164.675
29.1645
28.9773
29.0015
29.7736
29.3104
29.1697
28.8286
29.7222
29.3006
29.4121
29.769
29.7411
30.0086
29.9727
29.7626
29.8836
29.9316
29.9152
29.8921
144.658
138.779
29.0102
29.0668
28.8669
28.7114
28.2508
28.6835
28.5623
28.4653
28.3272
27.3015
26.5119
26.5875
26.421
27.0825
26.9082
26.8064
27.688
27.8311
27.9236
27.9859
27.6209
27.4036
27.4731
28.0828
24.2911
24.0722
24.5858
24.7757
24.3747
25.2694
25.3756
25.6045
25.0804
24.9676
25.7951
26.06
26.2179
25.9728
23.6936
23.936
22.9664
23.2125
23.5321
29.1936
29.2478
29.2365
29.5857
29.6063
29.2206
29.4061
29.349
29.6595
29.7953
30.0194
29.8623
29.7967
29.939
29.8345
172.512
28.8417
28.9115
28.6632
29.346
29.1269
28.9332
28.5606
28.7403
29.5217
29.2329
29.3535
29.5933
29.5777
29.9094
29.6054
29.7211
29.8945
29.7382
29.7634
148.32
28.9266
29.0209
28.7959
28.6562
28.6704
28.1924
28.5245
28.3968
28.2807
27.2788
26.5829
26.3901
27.1565
26.9829
26.7689
27.6626
27.7977
27.8488
27.997
27.5578
27.3399
27.4731
28.1199
24.1698
24.0635
24.5509
24.7589
24.4147
25.2356
25.416
25.7005
25.5127
25.1459
24.9601
25.8778
26.1347
26.3007
25.9732
23.7348
23.8685
23.11
23.4548
29.109
29.1728
29.1755
29.1657
29.5031
29.5209
29.2031
29.3444
29.2765
29.5665
29.691
29.7514
29.6809
29.8043
29.722
160.458
28.4372
28.5148
28.345
28.9816
28.8896
28.7758
28.2786
28.4925
29.4628
29.0143
29.1595
29.5017
29.5155
29.7624
29.5926
29.6659
29.7495
29.6766
29.665
29.6362
28.8341
28.9484
28.7236
28.7724
28.5777
28.5775
28.2034
28.4534
28.3965
28.3182
27.2267
26.6884
26.5436
26.457
27.1192
26.974
26.8344
27.5888
27.7168
27.8359
27.9636
27.5403
27.2873
27.4394
28.0765
24.0926
23.9347
24.6366
24.8547
24.3659
25.3113
25.686
25.5142
25.0561
25.8593
26.141
26.2897
26.0594
23.6691
22.8444
23.2202
22.9754
23.547
23.3491
29.0579
29.0887
29.0957
29.0932
29.4011
29.4262
29.1334
29.2198
29.1963
29.4496
29.5285
29.6619
29.5934
29.6513
29.5676
29.7125
29.5925
28.0536
28.5573
28.0567
28.0246
28.672
28.8436
28.5758
27.9916
28.2632
28.3281
29.3188
28.9885
29.1507
29.3462
29.3599
29.4345
29.5071
29.6281
29.5376
29.5152
29.5219
28.851
28.9726
28.6628
28.6855
28.5377
28.5441
28.1625
28.4089
28.3244
28.2836
27.2265
26.6821
26.6052
26.4351
27.0541
27.161
26.9133
26.8107
27.5456
27.7135
27.9025
27.7938
28.0106
27.4831
27.3194
27.3872
28.1006
24.1396
23.9657
23.8873
24.5893
24.8256
24.4609
24.2534
25.3415
25.6089
25.7646
25.4598
25.027
25.9478
26.2214
26.3631
26.0848
23.7477
23.1212
22.9313
23.4836
23.3538
29.0231
29.025
29.026
29.3592
29.1265
29.0533
29.187
29.3691
29.4367
29.5566
29.5239
29.5417
29.4534
29.5825
29.5176
27.6448
28.2432
27.6901
27.653
28.307
28.6333
28.385
28.487
27.7781
28.0764
28.1062
29.264
28.7975
29.0536
29.2708
29.3137
29.3939
29.4269
29.4907
29.4537
29.4238
28.7935
28.9198
28.5929
28.6525
28.4498
28.4789
28.2068
28.3327
26.7427
26.5802
26.5005
27.0437
27.1757
26.9221
26.8541
27.4743
27.5569
27.7076
27.8727
27.8177
27.9868
27.4424
27.2457
27.383
28.032
24.0352
23.9477
24.6717
24.7851
24.932
24.4357
24.2376
25.2909
25.6001
25.7652
25.5056
25.1275
25.9237
26.0408
26.2383
26.3168
26.1861
23.7318
23.144
23.001
23.5288
23.3381
28.9462
28.9472
28.9537
29.269
29.0462
28.9807
29.1037
29.2638
29.3648
29.3721
29.418
29.4972
29.4431
29.3452
29.4775
29.4232
27.3153
27.8244
27.3134
27.4126
27.9724
28.6151
28.1806
28.2922
27.847
27.5445
27.9523
29.1201
28.7645
28.9097
29.1426
29.1833
29.2659
29.3047
29.3976
29.3157
29.3124
28.7209
28.8352
28.523
28.5933
28.4199
28.4376
28.1503
28.2804
26.7031
26.6285
26.4817
26.979
27.1043
26.8379
27.485
27.6088
27.7743
27.669
27.9143
27.2461
27.3334
28.0261
24.0321
23.8449
24.6397
24.8699
24.9596
24.3291
24.531
24.133
25.2245
25.3722
25.6758
25.8482
25.4744
25.0518
25.9888
26.0938
26.3564
26.2195
23.634
23.2624
23.0665
22.9198
23.4412
28.891
28.8837
28.8973
29.2093
28.9745
29.0263
28.9069
29.0767
29.2044
29.2924
29.296
29.3682
29.3783
29.3558
29.3264
29.2567
29.3722
26.9744
27.4696
27.0195
27.2089
27.5393
28.4584
28.1397
28.001
28.2026
27.6687
27.3648
27.7221
29.0609
28.6162
28.8395
29.0223
29.1188
29.0414
29.168
29.1603
29.2472
29.1913
29.2995
29.2477
29.2568
28.6692
28.7905
28.5255
28.4557
28.6054
28.3673
28.3778
28.0859
28.1712
28.227
28.3096
26.7383
26.6082
26.4366
26.5469
26.9573
27.0776
26.807
26.9024
27.4662
27.5701
27.7486
27.6871
27.8981
27.2282
27.3468
27.9616
23.9293
23.8339
24.7263
24.8385
24.3321
24.5103
24.127
25.2667
25.3574
25.7065
25.8663
25.5526
25.0839
26.0626
25.945
26.18
26.3086
23.6392
23.3014
23.1109
22.9528
23.4542
28.823
28.8172
28.8279
29.123
28.9042
28.9612
28.8356
28.9892
29.2291
29.1411
29.2116
29.2674
29.3146
29.2655
29.2307
29.1628
29.2596
26.7678
26.6864
27.1001
26.6684
26.9422
27.1918
27.2273
28.4704
28.3157
27.9682
27.8238
28.0761
27.4363
27.5916
28.9294
28.583
28.6899
28.9066
28.9761
28.9402
29.0508
29.0329
29.1295
29.105
29.2052
29.1099
29.1659
28.678
28.7314
28.4801
28.4083
28.5691
28.3422
28.0787
28.1315
28.2189
28.2565
26.725
26.6582
26.47
26.5342
27.007
27.1267
26.8428
26.9023
27.5114
27.4109
27.5918
27.7917
27.6547
27.8548
27.2906
27.187
27.9602
23.9255
23.7381
24.6984
24.9185
24.4245
24.2275
24.603
24.023
25.2089
25.4568
25.8139
25.6573
25.5502
25.0347
26.117
25.9835
26.225
26.3398
23.5617
23.2232
23.4019
23.0377
28.7914
28.7629
29.0561
28.8974
28.8334
28.7727
28.9815
29.1494
29.1091
29.0607
29.1945
29.1383
29.2048
29.1786
29.1502
29.0945
29.1819
26.4123
26.4017
26.7185
26.4525
26.8092
26.9681
26.7339
28.3602
28.1877
27.937
27.8099
27.6702
28.0794
27.2672
27.4349
28.4152
28.6657
28.7969
28.959
28.8182
28.9552
29.054
28.9996
29.1285
29.0823
28.6271
28.6863
28.5091
28.4187
28.3609
28.5828
28.2936
28.0591
28.135
28.1743
28.2487
26.7854
26.6528
26.4247
26.5918
27.0133
27.1232
26.8482
26.9553
27.4959
27.4011
27.5895
27.7923
27.6792
27.8774
27.2951
27.2097
27.924
28.0175
23.8278
23.7367
24.7876
24.8987
24.4452
24.2244
24.557
23.9922
25.2685
25.432
25.8441
25.7037
25.6314
25.1
26.1935
26.0732
25.9321
26.3059
23.5637
23.2518
23.4607
22.9428
23.0737
28.7282
28.7042
28.8339
28.7724
28.705
28.9242
29.0382
29.0041
29.0999
29.0655
29.1403
29.1081
29.0533
29.0031
29.085
26.2148
26.1698
26.5154
26.1773
26.583
26.9156
26.9144
28.2152
27.8506
27.6931
27.4996
27.9308
27.3003
27.0843
27.3825
28.3338
28.5567
28.8487
28.7093
28.8358
28.9351
28.9128
29.0259
28.9871
28.6336
28.6859
28.4918
28.3816
28.3263
28.5293
28.2898
28.0904
28.1598
28.1972
26.783
26.7178
26.4542
26.6329
27.0753
27.1688
26.9072
26.9557
27.4446
27.5419
27.3549
27.6377
27.7672
27.8453
27.7306
27.2598
27.9454
27.9927
23.8161
23.6424
24.7822
24.9829
24.4258
24.1702
24.3438
24.6031
24.0757
23.8995
25.2068
25.3759
25.5206
25.7891
25.6584
25.0767
26.2429
26.1275
25.9801
26.3529
23.3608
23.1853
23.4434
23.0381
28.6655
28.7749
28.8135
28.7209
28.6786
28.9376
28.857
28.9884
29.0269
29.0452
29.0045
29.0359
29.0265
28.9778
28.9721
29.0052
29.0029
25.9847
26.368
25.7949
26.1304
25.8426
26.5219
26.7215
25.1316
28.0806
27.7281
27.5167
27.8617
27.1161
27.0086
27.2465
28.2298
28.4378
28.5808
28.776
28.7314
28.7646
28.8518
28.8058
28.9522
28.8898
28.6021
28.6263
28.4511
28.4077
28.3352
28.3074
28.5165
28.262
28.0821
28.123
28.1879
26.8638
26.7169
26.4336
26.5501
26.6149
27.0727
27.1985
26.9307
27.0167
27.4553
27.5649
27.3418
27.6619
27.8043
27.8678
27.7438
27.2859
27.9205
28.0154
23.7225
23.6348
24.7039
24.8882
24.9749
24.5133
24.248
24.3405
24.0205
23.9209
25.2327
25.4266
25.5156
25.6104
25.837
25.7739
25.1425
26.2808
26.3358
26.0899
26.2408
25.9397
23.3739
23.2174
23.539
23.1026
28.6166
28.734
28.7468
28.673
28.6371
28.8723
28.8067
28.9176
28.933
28.9814
28.942
28.9075
28.9006
28.8954
28.9028
26.0057
25.688
26.1963
25.6539
25.6352
26.3626
26.7028
29.639
27.9499
28.0476
27.5788
27.4614
27.7244
27.0997
26.8552
27.1464
28.1294
28.2489
28.3533
28.4902
28.6736
28.6246
28.6481
28.742
28.7231
28.8619
28.8156
28.5591
28.4311
28.3802
28.343
28.266
28.4834
28.2353
28.0599
28.1078
28.1753
26.9358
26.8623
26.7831
26.52
26.5893
26.7217
27.1299
27.2713
27.1903
27.0085
27.5253
27.4414
27.6289
27.3818
27.7178
27.7853
27.8475
27.9383
28.0146
23.7492
24.7416
24.8398
25.0695
24.5357
24.1965
24.4338
24.0822
23.8542
25.331
25.4159
25.5972
25.6748
25.8431
25.1657