/*--------------------------------*- C++ -*----------------------------------*\
| =========                 |                                                 |
| \\      /  F ield         | OpenFOAM: The Open Source CFD Toolbox           |
|  \\    /   O peration     | Version:  v2012                                 |
|   \\  /    A nd           | Website:  www.openfoam.com                      |
|    \\/     M anipulation  |                                                 |
\*---------------------------------------------------------------------------*/
FoamFile
{
    version     2.0;
    format      ascii;
    class       volScalarField;
    location    "0.4";
    object      p_rgh;
}
// * * * * * * * * * * * * * * * * * * * * * * * * * * * * * * * * * * * * * //

dimensions      [1 -1 -2 0 0 0 0];


internalField   nonuniform List<scalar> 
13611
(
101874
101676
101697
101530
101866
101617
101514
101775
102177
101800
101674
101571
101803
101769
101996
101752
101550
101601
101655
101752
101743
101706
102109
101712
101812
101540
101740
101640
101740
101759
101742
101682
101929
101781
101839
101615
101555
101619
101649
101833
101821
101776
101728
101703
101696
101962
101795
101849
101604
101517
101592
101643
101869
101809
101856
101756
101737
101693
101806
102055
101896
101897
101568
101615
101487
101624
101668
101910
101837
101879
101773
101712
101933
101836
101983
101913
101929
101563
101612
101532
101585
101658
101927
101870
101819
101917
101767
101705
101972
101906
102163
101954
101978
101574
101635
101595
101519
101463
101583
101675
101974
101891
101829
101948
101792
101752
101729
101958
101989
101919
102522
101994
102000
101566
101624
101602
101566
101476
101590
101661
101995
101981
101935
101891
101864
101816
101762
101705
102003
101991
101895
102189
102041
102046
101574
101635
101544
101451
101531
101547
101675
102029
102013
101959
101926
101860
101829
101760
101717
102051
102027
101819
102343
102068
102078
102059
101573
101622
101535
101441
101513
101559
101658
102046
102019
101995
101924
101882
101816
101742
101786
101696
102091
102111
102088
102057
102761
102107
102135
102100
101554
101592
101635
101514
101400
101498
101630
101668
102085
102074
102015
101956
101877
101830
101755
101781
101704
102118
102100
102129
101981
102452
102151
102175
102140
101557
101592
101615
101510
101464
101485
101632
101655
102108
102064
102110
101994
101941
101909
101855
101799
101737
101686
102156
102120
102114
101841
102198
102178
102172
102217
102179
101573
101539
101614
101517
101489
101454
101668
101415
101631
101667
102154
102088
102147
102013
101968
101892
101862
101805
101739
101696
102193
102186
102148
101970
102255
102296
102218
102249
102240
102232
101574
101538
101592
101507
101478
101466
101501
101419
101628
101647
102181
102142
102078
102165
102002
102052
101944
101906
101839
101791
101717
101764
101682
102238
102217
102181
102165
102161
102353
102305
102285
102261
101554
101520
101591
101494
101444
101455
101471
101609
101643
102229
102157
102119
102215
102025
102063
101953
101884
101848
101803
101725
101748
101691
101660
102272
102237
102183
101942
102143
102111
102309
102342
102319
102320
101557
101510
101573
101483
101444
101427
101316
101548
101608
101623
102244
102192
102099
102236
102020
101922
101989
101892
101828
101783
101711
101759
101675
101642
102260
102310
102263
102207
102088
102182
102257
102364
102396
102358
102379
102336
101540
101521
101491
101573
101466
101434
101437
101333
101428
101589
101626
102298
102198
102229
102117
102296
102057
101923
101986
101870
101838
101783
101724
101745
101685
101650
102316
102358
102258
102324
102057
102186
102421
101845
102451
102429
102436
102391
101541
101510
101480
101556
101455
101438
101417
101364
101324
101380
101590
101608
102242
102169
102275
102100
102340
102043
101898
101955
102009
101876
101827
101803
101756
101709
101669
101639
102407
102307
102367
102172
102253
102251
101621
102479
102487
102442
102453
102390
101521
101493
101461
101556
101422
101390
101348
101320
101324
101571
101603
102265
102176
102325
102131
102075
101904
101935
102012
101846
101791
101748
101720
101647
101669
101619
102424
102310
102359
102220
102262
101711
102177
102543
102550
102505
102530
102444
101519
101481
101453
101538
101417
101372
101355
101277
101359
101571
101586
102325
102218
102367
102116
102050
101885
101951
101988
101836
101808
101763
101710
101634
101643
101687
101604
102484
102354
102411
102211
102331
102287
102131
102579
102588
102577
102561
102504
102553
102431
101508
101459
101480
101434
101537
101398
101380
101341
101311
101310
101552
101589
102344
102221
102136
102066
101894
101854
101922
101999
101796
101752
101726
101613
101639
101678
102481
102413
102227
102352
102804
102202
102667
102659
102666
102609
102552
102616
102477
101507
101490
101453
101464
101428
101521
101399
101366
101344
101299
101306
101263
101552
101572
102408
102319
102268
102180
102107
102040
101860
101841
101932
101971
101813
101769
101715
101601
101656
101623
101693
102547
102474
102282
102211
102396
102203
103401
102224
102709
102692
102704
102685
102606
102568
102671
102615
102547
102453
101494
101483
101441
101459
101415
101514
101387
101370
101333
101329
101290
101268
101538
101568
102412
102358
102254
102177
102128
102058
101849
101907
101981
101797
101754
101730
101605
101583
101648
101617
101680
102550
102467
102288
102229
102393
101969
102818
102242
102787
102763
102768
102742
102673
102646
102743
102684
102593
102503
101492
101468
101434
101444
101419
101524
101500
101389
101344
101319
101278
101237
101542
101554
102458
102336
102209
102288
102105
102024
101813
101867
101918
101952
101768
101715
101590
101569
101662
101631
101596
101693
102616
102540
102229
102310
102454
101992
103148
102243
102846
102821
102827
102820
102807
102729
102692
102750
102685
102665
102567
101479
101468
101438
101409
101510
101493
101382
101346
101321
101264
101264
101529
101556
102486
102346
102206
102292
102121
102027
101796
101846
101893
101962
101751
101724
101576
101656
101623
101590
101670
102619
102541
102187
102289
102422
101898
102478
102112
102939
102891
102887
102840
102850
102783
102770
102822
102755
102705
102608
101475
101457
101448
101424
101411
101501
101517
101482
101386
101362
101332
101302
101186
101236
101259
101532
101543
102449
102567
102381
102171
102256
102099
101998
102065
101767
101808
101862
101900
101930
101705
101560
101637
101605
101571
101675
102690
102601
102109
102215
102342
102480
101593
102123
102974
103002
102958
102896
102961
102918
102921
102823
102825
102756
102780
102680
101464
101438
101425
101401
101486
101507
101479
101378
101364
101339
101305
101196
101249
101274
101521
101546
102477
102606
102345
102172
102255
102123
102005
102044
101742
101803
101833
101870
101938
101710
101560
101624
101595
101567
101659
102705
102681
102564
102088
102164
102305
102448
101782
102111
102476
103096
103006
103038
102963
102970
102965
102940
102897
102904
102830
102817
102718
101459
101438
101416
101404
101486
101510
101496
101468
101382
101353
101327
101291
101276
101522
101531
102430
102544
102673
102379
102297
102208
102106
101980
102062
101738
101782
101835
101863
101920
101695
101544
101604
101634
101580
101555
101668
102817
102740
102607
102014
102155
102374
102230
102534
102064
102122
102387
103115
103173
103093
103037
102968
103041
103048
103027
102934
102913
102896
102793
102709
101450
101429
101419
101395
101478
101501
101487
101464
101373
101359
101335
101303
101270
101505
101530
102445
102548
102687
102334
102289
102206
102127
101988
102057
101754
101705
101784
101812
101884
101823
101942
101536
101585
101610
101575
101542
101558
101653
102876
102698
102854
101924
102046
102353
102225
102537
101738
101811
102906
103196
103169
103255
103094
103108
103059
103093
103095
103010
102978
102923
102852
102777
101444
101433
101412
101398
101470
101480
101492
101456
101379
101350
101321
101302
101500
101520
102498
102395
102606
102766
102661
102343
102244
102167
102091
102022
101719
101699
101760
101867
101799
101930
101522
101585
101609
101527
101545
101629
101669
102955
102731
102911
101806
102004
102379
102157
102461
102646
101477
101749
101709
101964
103262
103211
103239
103342
103155
103181
103092
103150
103110
103151
103057
103047
102984
102843
101449
101430
101413
101392
101462
101473
101483
101457
101371
101360
101342
101486
101508
102507
102400
102570
102808
102699
102293
102244
102150
102101
102015
101723
101766
101890
101835
101802
101952
101508
101568
101586
101528
101510
101546
101611
101653
103034
102794
102995
102866
101720
101867
102071
102278
102486
102669
101389
101537
101522
101148
101905
103345
103325
103325
103230
103434
103236
103191
103226
103199
103239
103132
103047
103101
102965
102893
101443
101423
101436
101407
101397
101465
101474
101480
101451
101378
101480
101500
102457
102349
102597
102810
102870
102671
102774
102297
102210
102170
102090
101986
102054
101706
101743
101872
101818
101775
101928
101568
101585
101509
101501
101529
101619
101661
103050
102788
103047
102975
101762
101526
101913
102045
102277
102599
102403
101529
101409
101214
101629
103427
103376
103386
103302
103512
103331
103241
103294
103256
103297
103191
103113
103176
103019
101445
101421
101433
101409
101395
101459
101467
101469
101449
101487
101469
102461
102349
102565
102883
102927
102724
102801
102251
102214
102117
101991
102032
101716
101681
101748
101895
101837
101782
101949
101547
101565
101503
101488
101512
101530
101611
101627
103171
102838
103141
102989
101662
101378
101836
102077
102176
102646
102424
101389
101264
101271
101510
103502
103456
103369
103475
103596
103529
103388
103323
103355
103342
103384
103268
103188
103090
103212
102996
101442
101418
101429
101438
101408
101399
101452
101460
101461
101445
101478
101462
101461
102395
102509
102300
102606
102912
102731
102866
102251
102169
102116
102051
101689
101669
101717
101885
101820
101769
101940
101544
101564
101480
101479
101476
101499
101507
101584
101622
103222
102765
102925
103161
103085
101515
101728
101213
101394
101967
102199
102597
102318
102515
101335
101143
101134
101260
103585
103511
103490
103426
103498
103692
103631
103393
103326
103430
103415
103427
103322
103251
103141
103033
101416
101427
101437
101412
101448
101453
101453
101443
101465
101450
101448
102379
102484
102294
102538
102665
102984
102799
102896
102217
102155
102093
102021
101689
101643
101710
101906
101844
101792
101736
101971
101521
101534
101473
101464
101460
101483
101503
101576
101596
103311
102821
102971
103282
103104
101521
101670
101059
101250
101965
102112
102663
102379
102501
101033
100890
101013
101013
101114
103680
103637
103580
103569
103765
103706
103639
103491
103396
103500
103504
103391
103512
103271
103217
103102
101423
101434
101439
101444
101449
101445
101443
101460
101441
101443
102407
102328
102441
102258
102532
102648
103006
102871
102780
102223
102177
102109
102036
101660
101638
101675
101886
101788
101760
101710
101958
101515
101530
101455
101458
101447
101468
101481
101549
101589
103380
103336
102924
102757
103331
103171
101406
101664
101112
100898
101272
101846
102120
102615
102341
100858
100733
100892
100839
101011
103764
103688
103584
103574
103845
103793
103735
103497
103575
103422
103580
103511
103364
103238
103141
101438
101442
101443
101440
101439
101445
101431
101433
102364
102304
102438
102249
102472
102582
102706
103069
102933
102857
102196
102155
102086
102019
101651
101608
101661
101909
101810
101770
101730
101679
101990
101489
101502
101452
101446
101441
101435
101468
101474
101543
101563
103476
103456
102961
102849
103445
103271
103137
101505
101737
100997
100798
100847
101164
101898
101993
102216
102639
102429
100662
100531
100762
100710
100865
103850
103781
103680
103641
103914
103866
103818
103721
103583
103652
103433
103665
103588
103362
103301
103135
101439
101439
101431
101438
101416
101427
101428
102376
102325
102268
102212
102457
102553
102707
103060
103007
102864
102172
102107
102047
101624
101602
101631
101872
101826
101836
101768
101679
101951
101483
101495
101438
101420
101432
101418
101442
101444
101515
101554
103575
103511
103037
102833
103489
103363
103241
101453
101676
101002
100607
100701
101187
101804
101992
102188
102742
102545
102396
100542
100462
100380
100685
100525
100717
103887
103859
103775
103687
104003
103957
103904
103797
103736
103534
103657
103742
103438
103301
103214
101436
101435
101429
101436
101413
101409
101415
101420
102334
102307
102262
102194
102423
102585
102790
102646
103162
103026
102943
102149
102078
102056
101614
101574
101609
101871
101904
101720
101838
101839
101720
101632
101969
101456
101466
101423
101413
101420
101409
101431
101434
101503
101525
103667
103649
103027
102919
103566
103342
103230
101302
101563
100850
100438
100633
101038
101869
102063
102258
102767
102676
102420
100362
100204
100179
100668
100497
100593
104031
103967
103877
103782
104034
104076
103981
103922
103879
103780
103572
103720
103798
103512
103385
103283
101434
101431
101423
101394
101399
101413
101418
102330
102325
102197
102191
102170
102371
102452
102525
102795
102652
103197
103115
102949
102095
102104
101579
101563
101568
101879
101928
101568
101698
101616
101580
101550
101858
101447
101459
101403
101394
101396
101408
101400
101486
101521
103778
103726
103130
102897
103536
103674
103424
103375
101285
101530
100697
100891
100331
100448
101143
101825
102020
102161
102694
102244
102500
100164
100101
100093
100077
100505
100362
100489
104101
103974
103879
104120
104199
104084
104041
103924
103884
103680
103756
103893
103540
103419
103332
101430
101428
101423
101391
101387
101392
101401
101413
102266
102298
102167
102249
102155
102330
102417
102561
102710
102862
103272
103130
103014
102132
101914
101556
101529
101420
101940
101921
101510
101670
102027
101510
101530
101777
101428
101407
101386
101381
101380
101387
101385
101391
101484
101509
103870
103838
103110
102952
103624
103772
103407
101378
101596
100606
100778
100154
100338
100441
101073
101705
101922
102870
102608
102202
102474
100075
99884.9
99920.1
99876.6
100495
100241
100374
104193
104081
103978
104186
104143
104289
104127
104033
103950
103704
103872
103934
103622
103485
103341
101419
101378
101372
101395
101381
101404
101411
102233
102280
102192
102279
102212
102336
102211
102254
102344
102449
102532
102690
102852
103300
103255
103092
103229
102953
101826
101542
101374
102199
102043
101757
102042
102320
101761
101657
102277
101404
101394
101369
101358
101366
101350
101367
101402
101439
101473
103963
103876
103926
103190
103595
103744
103887
103511
103306
101335
101496
100624
100774
100025
100170
100293
101217
100901
101727
101892
102915
102698
102357
102071
102622
99849
100121
99763.9
99810.2
99839.7
99805.3
100294
100177
100233
100331
104178
104276
104090
104284
104238
104305
104381
104229
104112
104056
103792
103909
104048
103613
103510
103472
101368
101364
101382
101376
101402
101406
102262
102267
102210
102291
102006
102005
102160
102191
102307
102382
102585
102762
103363
103146
103307
102971
102314
101477
101840
102610
102015
101761
101666
102709
101349
101465
101354
101350
101349
101354
101342
101364
101377
101461
104064
104029
104063
103146
103751
103828
103998
103546
103406
101582
100487
100620
99877
100152
100327
101193
100881
101937
102816
103032
102364
102092
102693
99684.6
99904.4
99574
99653.8
99634.1
99606.4
99966.4
100149
100232
104295
104388
104194
104373
104301
104472
104488
104275
104213
104109
103770
103871
104020
104099
103677
103516
101356
101345
101384
101365
101390
102266
102284
102184
102050
101750
102048
101810
102178
102210
102236
102383
102554
102754
103434
103269
103104
103424
103037
102901
102475
101574
101441
101476
101491
101344
101337
101323
101341
101316
101194
101420
101557
104184
104113
104134
103257
103780
103975
103652
103378
101535
100484
100595
99787.1
99993.1
100202
101249
101003
100724
101804
102838
103066
102480
102214
101940
102645
99499.6
99704.1
99497.7
99479.1
99531.4
99494.4
99497.3
99617
99858.3
100247
99914.9
100118
104321
104525
104476
104427
104568
104599
104412
104262
104221
103842
103950
104068
104213
103653
103584
101344
101336
101361
101352
102020
102176
102013
102277
102523
102360
102054
102164
102192
102465
102290
102639
102824
103320
103199
103504
103005
102987
101574
101532
101327
101340
101325
101319
101238
101326
101148
104272
104240
104249
103222
103883
104049
103628
103478
101372
101658
100334
100424
99827.3
99957.1
100048
101142
100969
100695
102967
102442
102191
101888
102731
99367.9
99581.5
99298.3
99303.4
99365.1
99347.1
99338.6
99451.2
99700.5
100113
99819.4
99941.9
104433
104585
104594
104498
104709
104720
104464
104382
104284
103930
103819
104160
104234
104290
103735
103579
101331
101321
101335
101896
101927
102016
102397
102497
102514
102028
102070
101945
102198
102456
102328
102623
102799
103387
103209
103526
103022
101320
101313
101297
101331
101267
101291
104391
104341
104351
104275
103292
103974
103909
104158
103702
103435
101428
101614
100289
100386
99646.2
99771.3
99994
101158
100828
100533
102999
102303
102630
102027
101721
102872
99367.8
99190
99429.4
99623.1
99202.7
99208.9
99220.8
99194.1
99286.3
99467.4
99561.3
99870.4
100193
99689.6
99522.6
104553
104716
104684
104620
104797
104817
104597
104412
103996
103892
104182
104340
104417
103697
101316
101310
101325
102364
102556
102542
101869
102899
101970
101970
101741
102114
102522
102288
102699
102888
103355
103470
103174
103665
103099
101288
101297
101256
101364
101387
101258
104472
104490
104433
103227
104099
104090
103835
104221
103593
101322
100120
100211
99729.6
99843.3
100991
100802
100498
102265
102663
102047
101663
102940
99133.2
99055.1
99323
99423.8
99037
99015.1
99074.1
99035.8
99111
99328.3
99377.3
99579.6
99800.1
100111
99671.8
99707
104676
104808
104791
104685
104672
104921
104943
104630
104519
104078
103912
104304
104150
104421
104369
104527
103750
101294
101292
101289
102880
103064
102567
101962
101994
101467
102108
102490
102377
102195
102682
102870
103413
103564
103249
103713
103065
101241
101281
101206
101431
101329
104575
104533
104586
104467
104518
103284
104183
103919
104340
103632
101307
100068
100171
99524.4
99751.9
101025
100648
100313
102327
102508
102833
101927
101450
101757
103120
99067.1
98898.1
99176.6
98922.1
98959
98928.2
98872.5
99043.1
99366.7
99137.7
99262.6
99422.6
99767.6
99857.4
99556.5
99603.3
104817
104672
104949
104890
104830
104809
105010
105008
104984
104759
104037
103876
104358
104234
104540
104498
104628
101283
101287
102663
101900
101896
101557
102020
101993
102570
102353
102173
102768
102960
103350
103521
103190
103800
101281
101260
101184
101244
104692
104715
104624
104687
103400
104155
104334
103808
104059
103523
101157
99876.7
99991.6
99587.4
100873
100602
100277
102232
102660
102859
102020
101460
101661
103214
98942.1
98805.1
98800.6
99136.4
98756.7
98754.3
98763.5
98729.9
98813.5
99222.2
99039.3
99242.2
99174
99443.6
99295.5
99731.7
99905.4
99600.3
99897.6
104940
104831
105076
104930
104910
105176
105159
105112
104880
104726
104106
103937
104460
104226
104637
104550
101268
101265
101829
101885
101866
101949
101765
102198
102049
101888
102542
102245
102433
102743
102958
103420
103565
103217
103894
103786
101317
101213
101253
101203
104783
104849
104743
104627
103409
104294
104452
103857
104116
103714
101115
99846.5
99924.2
99458.3
100715
100407
100063
102301
102632
102974
101898
101341
101703
103148
98832.9
98944
98618.6
98647.8
98641.5
98658.1
98677.5
98630
98543.7
98731.9
99068.2
99273.4
98835.4
99090
99071
99335.7
99174.9
99783
99540.6
104946
105064
105207
105038
105051
105300
105210
105274
105001
104832
104080
104491
104323
104742
104667
101250
101259
101732
101741
101741
102196
101645
102004
101797
102624
102206
102399
102826
103029
103403
103630
103123
103338
104010
103722
103959
101207
101243
104941
104988
104899
104731
103533
104420
104299
104027
103713
101178
99635.9
99744.6
99454.6
100658
100309
100064
102164
102469
102774
102923
101966
101347
101541
103234
98642.1
98866
98554
98496.4
98551.6
98469.5
98500.5
98480.5
98444.1
98440
98522.8
98922.4
99117.7
98761.8
99011.1
98950.3
99399.5
99200.1
99045.3
105095
105178
105341
105094
105141
105438
105318
105395
105142
104966
104172
104441
104652
104286
104788
101236
101646
101702
101646
101822
102097
101903
101662
101807
102592
102289
102485
102786
102973
103550
103173
103376
104148
103797
104022
101239
105021
105114
104972
104580
104857
103503
104418
104084
103813
101074
99654.7
99299.7
100749
100415
99914
102203
102530
102751
103117
101848
101220
101622
103386
98612.8
98756.6
98405.1
98296.9
98398.1
98258.3
98375.4
98406.6
98344.7
98219.6
98254.3
98424.3
98923.2
99122.2
98568.6
98889.6
98869.3
99123.7
98955.9
105148
105298
105459
105357
105256
105269
105550
105400
105525
105264
105041
104523
104747
104395
104917
101254
101531
101664
101535
101964
102059
101922
101549
101688
102679
102248
102457
102871
103071
103595
103281
103506
104251
103924
103719
104129
105168
105254
104952
105201
104581
104894
103737
104389
104246
103968
100908
99711.8
99407.5
99276.9
100643
100313
99957.8
102069
102398
102849
103147
101886
101163
101514
103469
98498.5
98746.7
98249.4
98192.3
98286.5
98176.7
98203.6
98154.8
98083
98241.1
98753.8
98949.7
98564
98798
99250.3
99004.3
99175.1
98830.7
98951.9
105300
105381
105602
105529
105358
105389
105710
105597
105634
105425
105273
104990
105186
104658
104877
104404
104935
101458
101621
101509
101404
102374
102121
101851
101422
101574
101676
102659
102341
102556
102854
103063
103299
103540
104230
103972
103767
104130
105290
105396
105190
105332
104722
105066
103796
104553
104283
104109
100948
99557
99367.1
99045.1
100460
100804
100107
99744.4
102072
102539
103016
102754
103339
101687
101189
101348
103638
98398.2
98536.2
98654.2
98090.1
98027.7
98100.2
98297.7
98005.3
98087.3
98123.7
98004
97952.9
98141.1
98778.9
98878.9
98379.9
98666.4
98921.5
99079.9
98753.2
98819.2
105548
105747
105614
105505
105788
105800
105723
105574
105432
105115
105244
104701
104958
104529
105107
101243
101470
101431
101254
102070
102064
101736
101921
101290
101455
101515
102743
102305
102562
102936
103164
103430
103678
104362
103911
104216
105525
105552
105246
105492
104719
105062
104057
104516
99544.1
99196.1
99018.1
100375
100728
100056
99835.7
101769
102094
102529
103078
102921
103419
101618
100986
101407
103655
98305.5
98425.3
97944.1
97913.8
97916
97951.1
98099.7
97847.7
97899.6
97927
97814.6
97854.8
97933.7
98190.8
98591.1
98688.9
98407.5
98558.8
98815.2
98991.3
98656.4
98731.1
105628
105849
105767
105655
105935
105981
105884
105718
105545
105472
105374
104642
104847
105130
104505
105213
101100
101333
101232
101122
101818
102150
101655
101857
101329
101169
101433
102708
102393
102496
102899
103149
103445
103722
104341
103970
104182
105598
105632
105412
105603
104892
105222
104136
104592
99364.1
99159.2
98815.5
100158
100519
99736.8
101827
102186
102864
102386
103289
101039
101292
103765
98185.9
98434.3
97774.9
97683
97716.7
97969.2
97787.8
98056.3
97807.4
97660
97811.2
97852.1
97658.9
97639.1
97791.2
98026
98570.7
98258.8
98567.4
98733
98769.3
98943.6
98623.3
105781
106021
105848
105754
106052
105971
106111
105956
105844
105682
105621
105375
104762
104916
105228
105163
104624
100934
101273
101153
100975
101629
102091
101707
101498
101902
101216
101051
101275
102764
102348
102588
102943
103234
103031
103332
103540
103863
103639
104435
104101
104335
105779
105845
105571
105418
105825
104907
105188
103967
104289
104441
104799
99356.5
98944.1
98616.5
98775.3
100050
100434
99504.3
99835.6
101725
102159
102886
102650
103388
100853
101309
103700
98194.7
98326.1
97599.3
97560.1
97797.7
97658.8
97926.5
97491.8
97477.2
97594.4
97632.1
97507.6
97459.3
97826.1
97606.8
98068.5
98338.9
98442.5
98595.4
98668.6
98848.7
98532.2
105885
106109
106007
105937
106250
106181
106318
106151
105802
105998
105711
105528
104758
105045
105413
105320
104630
100852
100852
101079
100960
100872
100911
101465
102220
101976
101600
101406
101786
101056
101201
102702
102431
102552
102817
103175
103041
103376
103511
103901
103762
104543
104150
104388
105901
105963
105820
105594
105985
105315
104146
104346
104701
104901
99131.8
98941.5
98396.8
98558.3
100154
100503
99490.5
99706.9
101909
101462
102318
103067
102598
103279
101094
100643
103837
98089.3
98332.7
97456.4
97395.9
97687.1
97772.3
97507.2
97944.7
97356
97265.7
97517
97475
97302.3
97344.9
97601.2
97425.7
97878.5
98171.2
98437.3
98566.1
98516.6
98662.4
106075
106282
106081
106331
106392
106415
106263
105912
106060
106101
105683
105906
104887
105067
105472
105329
104805
100589
100658
100989
100896
100673
100777
101214
102195
101956
101665
101473
101262
101822
100932
101048
102361
102667
102808
103264
102944
103590
104028
103747
104564
104313
106119
106137
105991
105845
105527
106166
105247
104153
104510
104719
105100
99083
98738.9
98215
98525
99995.8
100268
99291
99761.1
101819
101387
102201
103126
102660
103473
101047
100627
103698
104028
98108.5
98225.9
97268
97230.3
97534.4
97642.6
97413.6
97845.2
97156.7
97105.1
97312.8
97277.7
97146
97152
97647.6
97389.8
97253.5
97933.4
98351.1
98467.4
98380.1
98745.2
98571.4
106235
106363
106488
106599
106619
106439
106233
106296
105802
106041
105010
105209
105630
105478
104876
100441
100572
100906
100696
100462
100695
101049
102049
101578
101394
101159
101717
100954
100769
101008
102390
102651
103246
102958
103527
104036
103850
104656
104370
106261
106269
106249
106023
105651
106329
105501
104448
104886
105149
98873.2
98690.3
98064.2
98251.4
100026
100421
99360
99611.1
101577
101987
101150
102448
103008
103415
102811
100788
103897
104115
98009.5
98239.9
97132.3
97052.7
97475.5
97651.2
97522.7
97298.8
97739.8
97889.7
97026.2
97068
96952.9
97178.2
96932.7
97023.8
97508.9
97179.2
97044.4
97757
98362.1
98469.6
98313.8
98559.4
106592
106602
106541
106756
106756
106456
106549
106315
105772
105983
106216
105102
105259
105626
105418
104819
105067
100291
100379
100375
100747
100589
100383
100497
100870
102002
101442
101232
101698
100803
100651
100900
102265
102525
102807
103374
103088
103654
104153
103810
104555
104292
106513
106502
106358
106216
105955
105817
106512
105617
104574
104827
105345
98791.1
98447.1
97798.7
98014.3
98053.1
99834.9
100335
99206.1
99580.5
101523
101911
101035
102430
103175
103534
102828
100759
103832
104310
98025.6
98145.3
97175.7
96950.8
96912.9
97276.7
97459.7
97405.1
97669
97779.9
96856.3
96836.4
96784.9
96853.5
96928.3
96789.9
96828.3
97255.7
97564
96983.1
97119.2
96872.5
98261.3
98378.3
98174.4
98468.6
106711
106813
106757
106961
106953
106611
106719
106522
105945
106119
106329
105763
105474
104925
105195
100147
100233
100199
100351
100617
100167
100431
100754
101815
102074
101348
101152
101532
100785
100495
100861
102157
102426
102557
102807
103351
103079
103612
104097
103930
104644
104406
106626
106587
106380
106236
105883
106688
105557
104503
104951
105321
98950.8
98570.5
98385.8
97572.8
97718.8
97894.4
99902.1
100546
100116
99369.6
101675
101256
102152
101047
102642
103079
103408
103957
104366
97913.2
96976.5
96844.5
96718.4
97173.4
97417.9
97254.9
97558.9
97789.4
96712.7
96704.4
96567.6
96650.4
96594.2
96689.6
97180
97381.2
96708.1
96864.1
96644.1
98282
98151.7
98395.3
98092
98428
106907
106986
106892
107112
107033
106775
106670
106549
106108
105926
106281
105755
105645
105363
105123
104824
99987.5
99995.9
100092
100185
100503
100092
100059
100229
100556
101810
101970
101371
101011
101544
100624
100403
100665
100897
102167
102413
102671
102940
103455
103211
103739
104221
103893
104546
104357
106820
106721
106698
106632
106321
106099
106966
105739
104779
105181
105607
98934.4
98464.3
98108.9
97377.7
97630
97890.1
99669.4
100546
100040
99226.7
101594
101308
102122
100806
102592
103175
103530
104195
103809
104771
97935.3
96963.9
96697
96567.1
97303.1
97144.6
97549.2
97671.2
96517.3
96521.4
96443.4
96510.2
96448.1
96520.9
96965.5
96532.1
96671.2
96791.2
96458
98230.9
98070.9
98303.6
98310.8
106933
107024
107199
107089
107296
107342
107008
106900
106699
106285
106075
106420
105958
105701
105457
105231
104896
99907.9
99911.7
99890.8
100278
100001
100533
99907.8
99844.1
100223
100447
101693
102020
101250
101000
101412
100457
100521
100749
102270
102506
102648
102932
103392
103207
103705
104183
104017
104617
104489
106991
106940
106767
106563
106106
107164
105921
105370
105740
98774.7
98512.2
98161.6
97172.1
97385.4
97638.8
99785.4
99347
100299
101580
101096
101813
102353
100808
102819
103054
103409
104329
103918
104861
97865.9
96871
96569.2
96601.7
96403.4
97308.4
97161.1
96970.5
97452.9
97643.3
96318.1
96336.5
96279.1
96269.6
96219.1
96380.6
96924.5
96334.8
96450.1
96535.5
96226
98113.9
97948.2
98270.4
107230
107279
107406
107190
107457
107544
107064
106939
106853
106596
106361
106247
106051
105865
105403
105167
104742
105040
99743.7
99734.9
99714.2
99901.8
100110
99853.9
100398
99871.6
99762.6
99688.2
100103
100389
101732
101924
101293
101082
100828
101382
100347
100550
102274
102469
102784
103082
103427
103574
103853
104285
103979
104517
107178
107114
107002
106618
106404
107351
105999
105309
105668
98727.1
98226.2
97945.3
97154
97340.1
97405.4
97690.1
99606.3
99219.8
100344
101321
101900
102300
100615
102899
103299
103473
104172
104627
103715
105087
97781.4
96758.7
96394.5
96643.5
96377.7
96251.9
97194.3
97023
96842.9
97476.3
97697.9
96161
96163.2
96173.2
96144.6
96045.3
96194.7
96661.7
96219.8
96371.4
96256.6
96454.6
96047.1
98070.1
97865.6
98163.5
107413
107514
107556
107394
107687
107708
107293
107178
106959
106683
106592
106305
106038
105812
105512
105350
104735
105050
99643.9
99641.9
99567.8
99659.7
99978.7
100164
99676.1
99689.9
99937.4
99557.5
99481.7
100084
100214
101609
101934
101137
100991
100702
101452
101181
100189
100441
102178
102500
102779
103096
103273
103627
103845
104166
104443
107401
107170
107346
107093
106930
106468
107546
106200
105582
105893
98381.8
98792.5
97965.5
96882.6
97040
97238.5
97463
99672.6
98995.6
100123
101226
101726
102371
100584
103244
102752
104267
104719
103798
105174
97742.8
96696.1
96262.1
96461.9
96270.1
96087
97051.6
97218.9
96862.7
97427.8
97532.6
95994.4