/*--------------------------------*- C++ -*----------------------------------*\
| =========                 |                                                 |
| \\      /  F ield         | OpenFOAM: The Open Source CFD Toolbox           |
|  \\    /   O peration     | Version:  v2012                                 |
|   \\  /    A nd           | Website:  www.openfoam.com                      |
|    \\/     M anipulation  |                                                 |
\*---------------------------------------------------------------------------*/
FoamFile
{
    version     2.0;
    format      ascii;
    class       surfaceScalarField;
    location    "0.4";
    object      phi;
}
// * * * * * * * * * * * * * * * * * * * * * * * * * * * * * * * * * * * * * //

dimensions      [0 3 -1 0 0 0 0];
oriented        oriented;


internalField   nonuniform List<scalar> 
21888
(
0.507473
-0.514381
-0.37004
0.877513
-0.56034
0.0459586
-0.692115
0.322075
0.631053
0.24646
-0.565597
-0.646156
0.807483
-0.485407
0.623407
-0.330092
0.576553
-0.0296405
-0.535956
-0.519242
-0.126914
0.47739
0.328091
-0.813498
0.688981
-0.065574
0.536931
0.0396216
-0.548883
-0.541131
0.397505
-0.524419
0.505223
-0.0278324
0.799135
-0.471044
-0.415993
0.681383
0.471357
0.544844
0.00181316
-0.550696
0.00895144
-0.550083
-0.535447
0.011028
-0.659438
0.631606
0.139696
0.217021
-0.688065
-0.508234
0.0922402
0.143301
0.538081
-0.388021
0.859378
0.156824
-0.533633
-0.541745
-0.555306
-0.497206
0.591559
0.0400469
-0.569893
0.70959
0.667488
-0.450467
-0.528075
-0.15999
-0.435834
-0.413139
0.556441
0.529438
0.446238
0.748382
-0.541257
0.00762396
-0.0261526
-0.515592
0.132597
-0.687903
-0.543697
0.0464913
-0.594119
0.634166
0.097595
0.11547
-0.51701
0.0665435
-0.677001
-0.584662
0.148828
0.0455038
0.510937
0.00279282
0.526645
0.52999
-0.0837515
0.705597
0.0427852
-0.56741
-0.536073
-0.382995
-0.692313
-0.538171
0.651015
-0.0168494
0.701773
-0.604178
-0.53068
0.64615
0.552513
-0.48597
-0.528173
0.575494
0.51373
0.517287
0.621846
0.693801
-0.367936
-0.199474
0.0516577
-0.587731
-0.750931
-0.0957922
-0.596521
-0.560287
0.0221155
-0.523471
0.506622
0.171093
-0.0516643
0.122679
0.057676
-0.543646
-0.614157
0.0859845
0.0513602
0.524133
0.0370306
0.476699
-0.0948931
0.61218
0.545567
0.0762783
0.618549
0.0752514
0.343847
-0.543321
-0.508629
-0.243883
-0.555756
-0.195175
-0.651548
-0.600949
-0.592042
0.74988
-0.243258
0.587279
-0.416186
0.453956
-0.50562
0.685045
-0.562367
0.553557
-0.495881
-0.707036
0.16339
-0.621052
0.596928
0.561164
0.381806
0.602205
0.694828
-0.4088
0.484051
-0.581252
0.0379305
-0.37265
-0.135978
-0.616534
-0.776426
-0.525161
-0.126387
-0.037434
-0.563515
-0.53568
-0.0563617
0.34108
0.441788
0.0249124
-0.751096
0.33491
-0.29714
0.0479364
-0.332491
-0.5791
-0.0419513
0.107358
0.48957
0.314891
0.246273
0.696697
-0.289793
0.891998
0.437012
0.257815
0.717824
-0.233772
-0.578603
-0.671659
-0.446911
-0.329515
-0.562595
-0.573298
-0.567804
-0.635462
0.515121
-0.174042
0.686588
-0.2448
-0.669571
0.694483
-0.334661
-0.587804
0.290664
-0.539868
-0.637951
0.305461
0.59449
-0.636441
0.54437
0.735843
0.406904
0.309932
0.582066
-0.373941
0.631756
0.343883
0.281349
-0.722073
0.14347
-0.576471
-0.0951878
0.290171
-0.619687
-0.540879
-0.0217162
-0.0310429
-0.542255
0.0664657
-0.634269
-0.567203
-0.0682587
0.512547
-0.666147
0.421346
0.0283366
-0.646662
0.312001
-0.355998
-0.599345
0.0594779
-0.0434615
-0.293885
-0.575346
-0.0610947
-0.164692
0.709062
0.363263
0.372579
0.770167
-0.394638
0.70457
0.570344
0.467064
0.768416
-0.424533
-0.362307
0.643656
-0.431902
-0.433001
-0.662391
-0.65073
-0.474413
-0.563971
-0.638401
-0.643605
0.150239
-0.406434
0.82778
0.666354
-0.638018
0.79103
-0.479029
0.248691
-0.604689
0.555105
-0.495627
0.675509
-0.718971
0.381624
0.549337
-0.610432
0.316276
0.392786
0.688855
0.37553
0.361404
0.343166
0.166969
0.403376
-0.190651
0.657715
0.577765
0.219123
0.332052
-0.763954
0.284072
-0.717073
-0.378319
-0.156541
-0.494188
0.3676
-0.842014
-0.196371
-0.476265
-0.162136
-0.643048
-0.000556753
-0.369076
0.519316
0.259921
0.458704
0.153013
-0.694665
0.215635
-0.445974
-0.0495843
-0.114002
-0.169634
-0.631752
0.0213198
-0.21416
0.606946
0.353564
0.335291
0.729094
0.528373
-0.326189
0.669355
0.391065
0.443555
-0.0373389
0.615104
-0.479681
0.698804
-0.385021
-0.436399
-0.327555
0.29045
-0.668769
-0.59294
-0.690559
-0.374222
-0.467791
-0.481277
-0.536358
-0.352598
-0.632309
0.0396346
0.622634
-0.362714
0.534617
-0.0759133
-0.445779
0.598792
0.793621
-0.577986
-0.515559
0.0695849
-0.565143
0.57685
-0.690853
-0.527988
0.358355
0.596214
-0.574894
0.395526
0.21142
0.730817
0.402905
0.143878
0.384495
0.245107
0.424248
0.534942
-0.0822033
0.525759
-0.748773
0.711434
0.532901
-0.0499684
0.320739
-0.70576
0.363918
-0.691473
-0.34803
0.043668
-0.636608
-0.011304
-0.679255
0.103691
-0.571482
0.37074
-0.852018
-0.165618
0.282151
-0.634748
-0.350158
0.574252
0.727157
-0.104523
-0.648205
0.285491
0.651244
0.347842
-0.0494129
-0.614133
0.0361467
-0.544548
0.0117073
-0.757407
0.066554
0.0682255
-0.399052
0.125531
-0.700425
0.737179
0.318869
0.411948
0.721773
0.629603
-0.185674
0.609922
0.524506
0.484562
0.226872
-0.0733983
0.606299
-0.618535
0.568566
-0.341842
-0.647805
0.341257
-0.689287
-0.647912
-0.575564
-0.7371
-0.236781
-0.615236
-0.293491
0.219478
-0.569635
-0.044283
-0.661773
0.55725
-0.376282
0.488515
0.162729
0.621057
-0.273215
0.571644
-0.604459
0.640606
-0.559386
0.0148376
-0.547678
0.691602
-0.625047
0.55798
-0.489754
0.158928
0.669668
-0.544136
-0.480948
0.575969
0.16121
-0.204106
0.616054
0.536099
0.255049
0.374553
0.330416
0.279506
0.779556
0.411164
0.574824
-0.347952
0.469988
0.136311
0.763886
-0.195319
0.40048
-0.742322
-0.00350963
-0.644296
-0.288807
-0.0113788
-0.636533
0.0669121
-0.642476
-0.523503
-0.213597
-0.760284
-0.618595
0.371273
-0.664765
-0.198362
0.444232
-0.0895561
0.646806
0.195362
-0.403918
0.566647
-0.741344
0.46813
-0.572755
-0.0317034
-0.100739
-0.557918
0.143923
-0.539767
-0.0852809
0.179913
-0.380839
0.0864284
-0.630565
-0.529962
0.0490149
0.371862
0.631198
0.580355
0.0356997
0.498245
0.0378541
0.704969
0.777751
0.436089
0.343467
-0.083394
0.494558
0.49143
0.415933
0.630868
-0.665779
0.47046
-0.518062
-0.22426
-0.521572
-0.655674
0.416117
-0.704925
-0.569621
-0.391277
-0.251199
-0.604874
-0.33155
-0.428734
-0.0308069
-0.587788
-0.248647
-0.728325
-0.221547
0.570763
-0.660319
0.242888
0.628346
-0.432984
0.3451
0.718747
-0.250617
-0.496191
0.464488
-0.742049
0.64131
-0.559592
0.00167424
-0.415669
0.467308
-0.552589
0.621535
-0.441621
0.240696
0.720817
-0.634389
-0.58155
-0.174301
0.546164
0.456897
0.618209
0.581864
0.381636
0.323333
0.401231
0.37652
0.426352
0.725103
0.613635
-0.122205
0.690225
-0.274292
-0.0617865
0.692655
0.733454
-0.262994
0.426978
-0.651238
0.219654
-0.741226
-0.0652425
-0.590432
-0.277947
-0.441535
-0.128086
-0.692734
0.113451
-0.718325
0.137513
-0.469064
-0.459541
-0.590816
0.43142
-0.680067
-0.296905
0.454449
0.116314
-0.0319729
0.697336
0.285763
0.719943
-0.374843
-0.592795
0.342178
-0.605942
0.109751
-0.277562
0.0485153
-0.604268
-0.726702
0.311033
-0.259394
-0.311893
0.279196
-0.588963
-0.0454262
0.184256
-0.765806
-0.169797
0.626694
0.717536
-0.0993277
-0.0525193
0.634383
0.724564
-0.265712
0.642232
0.408753
0.364378
0.360725
0.551849
0.56802
0.459162
0.522857
0.456949
-0.431583
-0.806468
-0.718518
0.471771
-0.749718
-0.579283
-0.580812
-0.134209
-0.334855
-0.593749
0.124625
-0.715441
-0.208296
0.336669
-0.633574
0.722795
-0.60648
-0.65835
0.626377
0.322493
-0.372587
0.668158
-0.32598
0.621795
-0.512044
0.344234
0.608199
-0.559683
-0.293235
0.395837
-0.655232
-0.657886
0.345993
-0.37869
-0.404707
-0.567917
0.522491
-0.429137
0.574175
0.451824
0.535055
0.370524
0.35404
0.425901
0.216331
0.773131
0.731249
0.614578
-0.0627295
0.562931
0.00508865
0.700835
-0.241673
-0.141216
0.664073
0.782974
-0.326025
0.433575
-0.865159
-0.474086
-0.332382
-0.0566315
-0.661887
-0.316142
0.142524
-0.721807
-0.280941
-0.299871
-0.615796
-0.469124
-0.717651
0.516376
-0.724672
-0.117198
0.458492
0.264303
0.019897
0.780985
0.295571
0.282218
0.132933
-0.644978
0.797812
-0.453579
0.238129
-0.683764
0.390529
-0.287926
-0.309238
-0.768404
0.389714
0.339893
-0.7446
-0.228024
-0.245913
-0.616073
0.186936
-0.0664016
0.640576
0.553965
-0.102141
-0.103351
0.638406
0.779941
0.770297
-0.105599
0.87873
0.62565
0.473363
0.500202
-0.430191
0.435279
0.270644
0.541301
0.597672
0.45496
-0.240394
-0.624764
-0.530717
0.213612
-0.545995
-0.519362
0.519436
-0.835579
-0.311713
-0.410094
-0.611584
-0.261992
-0.353804
-0.731116
-0.627048
-0.0906024
-0.205236
-0.733271
0.650858
-0.386555
0.649083
-0.629186
0.648822
-0.353251
0.675582
-0.393364
0.746414
-0.613481
-0.254449
0.292836
0.689393
-0.451264
0.42576
-0.713686
-0.699976
0.390737
-0.310261
-0.557663
0.493618
-0.721642
-0.668006
0.422093
0.537226
0.536265
0.212502
0.567439
0.475987
0.29431
0.333313
0.545418
-0.00746881
0.633118
0.72061
-0.247247
0.526944
-0.0267426
0.57358
-0.138301
0.454082
-0.183438
0.483343
0.0579575
0.0731209
0.524551
0.727758
-0.272797
0.381222
-0.621617
-0.411152
0.0832708
-0.613988
-0.462724
0.0908588
-0.610221
-0.454357
0.275943
-0.686037
-0.235851
-0.375733
-0.589655
-0.468054
-0.263062
-0.629029
-0.558657
0.529913
-0.735149
-0.203358
0.64804
0.00281761
-0.71769
0.331136
-0.0686069
0.0196355
0.322331
0.296029
-0.454702
-0.158779
-0.70915
0.713294
-0.420458
0.26203
-0.28339
-0.322949
-0.68398
0.373719
0.217216
-0.77488
-0.174388
-0.626975
-0.0946673
-0.261888
-0.0801817
0.617407
-0.189832
0.726097
0.688489
0.55997
-0.386571
0.680881
-0.273837
0.60715
0.527941
0.359281
0.36857
0.35204
0.279697
0.546838
0.315781
0.299906
-0.449807
0.507764
0.441691
0.444369
0.277951
0.375243
-0.225998
-0.395618
-0.637151
-0.523129
0.199452
-0.662176
-0.334278
0.230129
-0.684486
-0.221021
-0.465016
-0.596755
-0.44468
-0.144975
-0.707742
-0.672301
0.043272
0.115657
-0.674314
-0.764164
0.0290155
0.39118
-0.594538
-0.671841
0.674659
-0.340706
-0.602336
0.53373
-0.646594
0.66623
-0.324263
0.748894
-0.452866
-0.680454
0.521674
-0.764076
0.343617
0.685034
-0.423004
0.452123
-0.735513
-0.709762
0.386813
-0.336043
-0.409759
-0.3837
0.499881
-0.674269
0.499551
-0.594218
-0.599537
0.337649
0.427576
0.339526
0.470016
0.218474
0.357983
0.201987
0.40117
0.279711
0.162135
0.445015
0.690076
0.717264
-0.0620789
0.414119
-0.241612
0.521309
0.305226
0.537455
-0.221674
-0.227258
0.527164
0.280506
-0.00598906
0.44768
-0.0419361
0.486305
0.599765
-0.321814
-0.320396
0.695639
0.208124
-0.603742
-0.437699
-0.0618151
-0.461314
-0.723991
-0.795593
-0.534035
-0.476362
0.32071
-0.785726
-0.74173
-0.592085
-0.673776
-0.631042
0.614721
-0.585706
0.020183
0.354263
-0.465357
0.124651
0.0638931
0.068373
0.424632
0.232168
-0.228331
-0.242402
0.752091
-0.408474
0.329087
-0.3487
-0.684195
0.348152
0.36671
-0.776469
-0.581352
0.197652
-0.0996558
-0.174718
-0.227508
-0.346546
-0.127858
0.555434
-0.294812
0.634338
0.672003
0.619644
-0.271871
0.551582
-0.228832
0.673847
0.676177
0.488432
-0.537944
0.475866
0.40813
-0.0166356
0.420006
-0.11478
0.535951
0.00150392
0.305489
-0.241738
0.522244
0.405744
0.358447
0.358027
0.373825
-0.22934
-0.374401
-0.667039
-0.0906862
-0.633305
-0.474882
-0.691978
0.157943
0.0857784
-0.562141
-0.342183
-0.443543
-0.106926
-0.634804
0.0778572
-0.669942
-0.474874
-0.198902
0.150651
-0.781693
-0.682727
0.0970215
-0.561169
-0.361843
0.716106
-0.500682
0.625333
-0.542309
0.606202
-0.432309
0.659641
-0.23501
-0.384238
0.616407
-0.850606
0.622275
-0.577151
0.334749
-0.669917
0.261443
0.710665
-0.381578
-0.71488
0.366181
-0.366728
-0.578817
0.650452
-0.750108
0.482659
-0.657377
0.471158
-0.698666
0.303907
0.260621
0.362467
0.516201
0.155802
0.433631
0.186013
0.345166
0.206415
0.560094
0.113753
0.141857
0.53432
-0.0541436
0.542575
0.106357
0.369508
0.0173094
0.39082
0.40337
0.421172
-0.488958
0.490462
-0.183469
0.338776
-0.0230635
0.428808
-0.103488
0.461935
0.55446
-0.196433
-0.329082
0.702907
0.181731
-0.556133
-0.613685
-0.053354
-0.704371
-0.207795
-0.42551
-0.682677
-0.6062
-0.524784
-0.380409
0.255899
-0.598082
-0.550469
-0.556947
-0.519291
-0.476004
0.328364
-0.527266
-0.453329
0.666985
-0.569964
0.105816
-0.751014
0.389171
0.387024
-0.125681
0.117332
0.173893
-0.685206
0.450196
0.326427
-0.0687993
-0.484425
0.045124
-0.335167
0.782316
-0.520873
0.400738
-0.678206
0.311477
-0.650766
0.0719492
-0.267449
-0.186219
-0.748633
0.049967
-0.374299
-0.171791
0.432412
-0.117493
0.47996
0.462057
0.589433
0.531179
-0.197707
0.404123
0.701951
0.656328
0.518825
0.406558
-0.3002
0.386818
0.367757
0.505602
-0.102232
0.398109
0.0230621
0.445135
0.0453267
-0.200497
0.539273
0.325319
0.290145
0.353963
0.506474
-0.609487
-0.278846
-0.425526
-0.704355
-0.426779
-0.365159
-0.241041
0.241129
-0.765914
-0.745568
-0.087543
-0.510539
-0.638012
0.0930867
-0.650033
0.158556
-0.677847
0.323996
-0.20327
0.127469
-0.580798
-0.62753
0.0575662
-0.54495
-0.32241
0.711581
-0.376403
0.763427
0.432965
-0.558646
-0.580129
0.697461
0.712118
-0.538225
-0.129933
0.665163
-0.338737
0.596364
-0.567368
0.0829432
0.58447
-0.539346
0.249303
-0.598912
0.0780388
0.614366
-0.213628
-0.255891
-0.676684
-0.720529
0.45308
0.394581
-0.580801
0.523633
-0.473666
-0.858581
0.484282
0.464166
-0.0317542
0.346673
0.282253
-0.173822
0.635879
0.415611
0.0658016
0.465377
0.375247
0.0288763
0.199392
0.50256
-0.112547
0.768875
0.718216
0.300732
0.105825
0.205402
0.0591701
0.327648
0.0353446
0.332412
0.295877
0.468197
-0.340078
0.385405
0.199195
-0.08546
0.410779
0.359865
-0.0697207
0.427039
-0.0730759
0.443274
0.0632
0.206116
-0.815603
0.222776
-0.648302
-0.256304
-0.448051
-0.683082
0.360069
-0.60111
-0.386401
-0.405844
-0.539452
0.136254
-0.646793
-0.544925
-0.491477
-0.550378
-0.784068
0.657898
-0.600331
0.112947
-0.706737
0.384326
0.335178
0.363012
0.400415
-0.273772
0.153472
0.159237
-0.518168
0.388236
0.275629
0.0781957
0.55634
-0.473397
-0.827296
0.287949
-0.349609
0.707013
-0.628974
-0.72289
0.509262
-0.703405
0.447515
-0.526647
-0.150036
-0.325947
-0.405502
-0.0571674
-0.757247
0.283581
-0.219123
0.328111
0.409929
-0.0632563
0.328707
-0.0464537
0.523332
-0.243268
0.65888
0.441048
0.222109
0.357583
-0.0823889
0.584949
0.686486
0.0348118
0.683405
0.359903
-0.250481
0.356306
0.402748
-0.197346
0.362992
0.246952
-0.131278
0.427155
0.336919
0.520796
-0.135392
-0.281221
0.480415
0.341059
0.145818
0.370198
0.426212
-0.592827
-0.345262
-0.30304
-0.793313
-0.546828
-0.668041
0.0669312
0.38085
-0.76725
-0.587453
0.181609
0.156783
-0.696235
-0.0828201
-0.563973
-0.627745
0.105451
-0.596928
0.265554
-0.815932
0.0159324
-0.219482
-0.4137
0.695623
-0.311296
-0.310042
0.64522
0.456624
-0.0562089
-0.624744
0.350972
-0.471272
0.728605
-0.569368
0.598112
-0.209876
-0.523811
0.79944
0.638156
-0.55996
-0.270956
-0.0258823
0.666906
-0.378957
0.317297
-0.0158769
-0.311677
-0.0145486
0.445416
-0.595452
-0.578713
0.252766
-0.670244
0.264742
-0.635881
-0.311831
-0.3523
-0.758804
0.53968
0.403702
-0.0755909
0.363475
0.340446
-0.283138
0.806471
0.375741
0.21322
0.227828
0.435329
0.400331
-0.0427479
0.619761
0.574737
0.111749
0.673155
0.0465388
0.313364
0.152267
0.243479
0.112828
0.229809
0.164833
0.198159
0.411785
0.309728
0.0271904
0.297842
0.222955
0.345024
0.285214
0.0558443
-0.32004
0.465859
0.0501578
0.0553675
0.370844
-0.474197
-0.11863
-0.777237
-0.123021
-0.670292
-0.669849
-0.511258
-0.520522
-0.585642
-0.543692
-0.152543
0.0612773
-0.625251
-0.522294
-0.331374
-0.791311
0.571829
0.266761
-0.68046
0.38558
-0.689329
0.378032
0.604945
0.0402753
0.511992
0.548736
-0.338357
0.257333
0.0287438
0.42828
0.239479
-0.692399
0.421443
-0.718281
-0.707197
0.32824
0.604555
-0.620432
-0.681071
0.369394
-0.616046
0.601497
-0.328691
-0.417478
0.672865
-0.408123
0.264026
-0.575857
-0.748511
0.396211
-0.0859388
-0.178601
0.209624
0.285204
0.0782711
-0.00326859
0.343714
0.419894
0.386577
0.515027
-0.139286
-0.142615
0.370443
0.505103
-0.0697741
0.257716
0.242456
-0.00937541
0.629136
0.565362
0.531643
0.187207
0.485949
0.290018
0.131528
0.181836
0.331016
-0.178749
-0.243099
0.355926
-0.12611
0.355919
0.329687
0.24681
0.164976
0.183619
0.325032
0.374116
-0.151161
0.437396
-0.0923727
0.302654
0.441063
0.0247952
0.421002
-0.662322
-0.663861
-0.113376
0.00293829
-0.67323
-0.608572
-0.597998
0.0867404
-0.645462
0.12494
-0.574999
-0.0106422
-0.750541
0.0536678
-0.678918
-0.468626
-0.674058
-0.117253
-0.108631
0.627731
-0.24215
0.69233
-0.314298
0.668006
0.227968
0.284024
0.0725297
0.476206
-0.699075
0.360719
-0.441742
-0.46198
0.490723
-0.0336998
-0.372716
0.612195
-0.285754
-0.352831
-0.0114908
-0.660129
0.0396978
-0.290735
0.667273
-0.0657762
0.366579
-0.69527
-0.74876
0.331282
-0.749758
0.341635
-0.484485
-0.209279
-0.352549
-0.705643
0.619704
-0.570004
0.391403
-0.165743
0.375366
-0.231503
0.309774
-0.282615
0.279347
0.112211
-0.159194
0.545771
0.506295
0.00873254
0.365817
0.300669
-0.134386
0.392102
-0.08574
0.328196
0.455457
0.173679
0.428924
0.136437
0.0208678
0.510775
0.642664
0.47652
0.156596
0.133422
0.338431
0.0879176
0.17717
0.179299
0.176627
0.180489
0.149198
0.345465
-0.156759
0.340378
0.168272
0.15901
0.215106
0.286235
0.348691
0.136911
-0.350315
0.37511
0.0706866
-0.552144
-0.110178
-0.660922
-0.66552
-0.0793304
-0.5939
-0.687902
-0.558722
-0.450059
-0.6847
-0.440087
-0.310454
0.121082
0.558666
-0.675919
-0.803901
0.450179
-0.713502
0.399204
0.500078
0.167928
-0.135642
0.36361
0.354711
0.572608
0.340564
-0.352783
-0.759146
0.317403
-0.268423
-0.655886
0.622187
0.294557
-0.043691
0.3484
-0.634154
-0.698938
0.346107
0.607862
-0.619353
0.593843
-0.554145
-0.771404
0.480669
-0.63325
0.567474
-0.418476
-0.364008
-0.531893
0.0474082
-0.741172
-0.670811
0.318262
0.0497
0.786297
-0.394894
0.0927513
0.224034
0.19599
0.0833563
0.308202
0.347101
0.566639
-0.299853
0.308585
0.0659644
-0.139218
0.439888
0.19381
0.252884
0.602603
0.647212
0.143091
0.499574
0.619611
0.312721
0.133514
0.204917
-0.171252
0.25917
-0.154167
0.331337
0.285642
-0.109015
0.282712
0.134748
0.210717
0.186211
0.327282
0.339256
-0.12415
0.327585
-0.04135
0.373823
-0.0251323
0.271659
0.391121
-0.0160108
-0.550265
-0.651015
-0.00990719
-0.669779
0.00425914
0.0360662
-0.629966
-0.566821
-0.788616
0.229895
0.265804
-0.715862
-0.418896
0.320212
-0.630667
-0.245235
0.00914765
-0.685067
-0.385329
0.835509
0.726559
-0.327355
-0.38547
0.553398
0.0173209
0.346289
0.372032
0.125292
0.447316
0.465856
-0.8009
0.448117
-0.483497
0.353764
0.673531
-0.378974
0.62984
-0.350538
0.152143
-0.425297
-0.025388
-0.0255099
-0.0734763
0.1885
-0.716523
0.298047
-0.719228
0.355221
0.653841
-0.606432
-0.766516
0.0253436
-0.01697
-0.398261
0.612943
-0.563243
0.218049
-0.235114
0.327866
0.293867
-0.0698325
-0.194909
0.278265
0.250614
0.057588
0.458166
-0.111065
0.626598
-0.0599589
0.463974
-0.155389
-0.279941
0.345905
0.159946
-0.126106
0.319916
0.305007
-0.0521235
-0.153609
0.756212
0.493603
-0.142471
0.642045
0.614461
0.0990836
0.213637
-0.0192265
0.224143
0.160085
0.309166
-0.0499965
0.126904
0.158738
0.200152
0.0233462
0.259366
-0.0148122
0.225529
-0.130628
0.316839
0.196654
0.138908
0.200348
0.203435
0.332473
0.365989
0.0365447
0.356021
-0.606242
0.0559766
-0.614949
-0.679686
-0.601983
-0.233179
-0.396787
-0.468404
-0.485968
0.331065
-0.749961
-0.57469
0.301151
-0.546386
0.587765
-0.578618
-0.354002
0.34123
0.450038
-0.688312
0.360957
-0.0416171
0.595015
-0.0104245
0.356714
-0.132988
0.580304
0.455432
-0.240195
-0.607784
0.124288
-0.25402
0.714341
-0.0845009
-0.605166
0.254628
-0.453022
-0.654865
0.229569
0.707045
-0.732433
0.515404
-0.540914
0.609557
-0.683033
-0.541082
0.729582
-0.421181
0.809799
-0.454578
-0.697573
0.0911406
-0.465365
-0.672229
0.657785
-0.674755
0.259524
0.246555
0.658388
-0.440338
0.132957
0.167761
0.180781
0.209879
0.0683865
0.267467
0.422118
0.0360486
0.352909
0.323447
0.303151
0.362159
0.190516
-0.231136
0.391082
0.234678
0.0852377
0.073871
0.182555
0.613741
0.817049
0.383684
0.25836
0.178207
0.436254
0.225987
0.194411
0.24749
0.256277
-0.0961921
0.20628
0.257828
-0.0990901
0.278214
-0.0780622
0.244554
0.262074
0.220647
0.335562
-0.098544
0.298892
-0.156838
0.360273
0.175635
0.402119
-0.0361298
-0.0602987
0.416319
-0.403213
-0.211736
-0.588264
-0.0914222
-0.708578
0.106595
-0.66498
0.196576
0.274477
-0.760445
-0.475484
-0.524507
-0.0501831
0.0413795
-0.511391
-0.0672262
-0.865393
0.719824
-0.378593
0.573692
-0.123654
0.670775
-0.309818
0.532075
0.462027
0.296415
0.208065
0.372239
0.218597
0.236835
0.465909
-0.706104
0.652686
-0.528398
0.460321
-0.67808
0.593579
-0.400238
0.205365
0.745275
-0.515707
0.165963
-0.21703
0.068643
0.062242
0.0515015
-0.748861
0.32768
-0.778662
0.324084
0.556519
-0.465379
-0.466393
0.00102844
-0.505564
-0.166666
-0.118236
-0.489338
0.703194
-0.456639
0.262856
-0.103643
0.236599
-0.0689396
0.2367
-0.0973124
0.278094
-0.194564
0.262951
0.170154
-0.255378
0.291426
0.0975315
-0.185797
0.488948
0.45596
-0.0938007
-0.182722
0.373239
0.20836
-0.15491
0.240148
-0.252817
0.326688
-0.0702624
0.387369
0.226372
0.495251
0.321799
0.561891
0.645729
0.433231
0.0862432
0.139744
0.280654
0.00684236
0.240647
0.262128
-0.0558482
0.108305
0.149524
0.179124
0.184066
0.00264075
0.241913
0.284463
-0.022389
-0.0582689
0.278916
0.277293
0.261729
0.256904
0.0419877
-0.194176
0.369812
0.207942
0.38019
-0.417912
-0.479454
-0.185526
-0.563869
0.34972
-0.825204
-0.529637
-0.425014
0.764071
-0.831297
-0.515674
0.566607
0.153216
0.292181
0.442954
-0.575727
0.265909
0.0168107
0.515264
-0.0662411
0.528268
0.515012
0.4449
-0.0155414
0.38778
-0.109819
-0.0534178
-0.0680771
0.640935
-0.0473559
-0.631904
0.231666
-0.426538
-0.636822
0.121115
0.673253
-0.50729
-0.682785
0.465755
-0.614142
0.643999
-0.581757
-0.572057
0.623559
-0.450982
0.752003
-0.427919
0.401452
-0.86683
-0.504535
0.439715
-0.60638
-0.517612
0.399376
-0.801643
0.312305
0.295364
0.684798
-0.421942
0.18082
0.042035
0.209154
0.0817903
0.0325107
0.23044
-0.0934796
0.263634
0.414961
-0.123535
0.303542
-0.206011
0.270163
0.507774
-0.018826
0.321161
0.328776
0.0444625
0.296651
-0.0882909
0.169885
0.293996
0.0326925
0.721623
-0.317114
0.638912
0.199557
0.362334
0.39508
0.250649
0.632789
0.248049
0.287496
0.243288
0.223068
0.190533
-0.0410091
0.23456
-0.0554362
0.264504
-0.0804372
0.219524
0.0154589
0.261834
0.19251
0.0692192
0.272363
0.234497
0.216984
0.152827
-0.205855
0.413798
0.174334
0.382088
0.418045
-0.603571
-0.145824
-0.452659
-0.372545
-0.147549
0.339057
-0.153155
-0.678142
0.241425
-0.757098
0.605405
-0.452189
0.609476
-0.317295
0.707889
-0.264936
0.720308
-0.454399
0.7247
0.449023
0.512727
0.186932
0.32808
0.053218
0.391682
0.440998
0.487749
-0.597567
0.571867
-0.625285
0.572858
-0.636669
0.589313
-0.405156
0.25826
0.632791
-0.511675
0.101196
-0.820725
0.313435
-0.354969
0.0298575
0.0510333
-0.0131101
-0.792695
0.341713
-0.745214
0.317295
-0.11616
-0.427115
-0.165478
-0.470156
-0.136225
-0.402267
-0.48039
0.705057
-0.409693
0.283115
0.191285
-0.010465
0.23332
0.161499
0.0476549
0.243289
-0.204474
0.236985
0.136961
0.170769
0.0928652
0.180007
0.122765
0.381296
-0.111133
0.19066
0.36247
0.3771
-0.0559391
-0.162795
0.207258
0.133856
0.205705
-0.0754375
0.245323
-0.259994
0.292687
0.325272
0.396352
0.593427
0.0454859
0.757414
0.57592
0.631738
-0.0158211
0.26387
0.0923488
0.195147
0.0236668
0.219621
0.229552
-0.00648404
0.174712
0.193551
0.209067
0.149115
0.21693
0.00259418
0.25535
0.286204
0.0011776
0.271186
-0.0457926
0.28029
-0.148974
0.301801
0.264824
0.361267
-0.40019
-0.203382
-0.598483
0.314976
-0.687521
-0.547738
0.471893
-0.625048
-0.436718
-0.442122
0.34047
0.157287
0.403013
0.0333502
0.223721
0.500979
0.672744
0.365168
0.147559
0.0147
0.31338
0.406382
0.0786606
0.362337
-0.0257006
-0.0524266
0.617542
-0.028229
-0.620363
0.215207
-0.362103
-0.526333
0.0146577
-0.4508
0.551996
0.727616
-0.414181
-0.73727
0.3823
0.621735
-0.591877
0.640071
-0.589037
-0.609156
0.596046
-0.403501
0.719835
-0.40254
0.557999
-0.674159
-0.632071
0.204956
-0.635634
-0.768296
0.155731
-0.806362
0.325973
0.310142
0.653525
-0.37041
0.206465
0.0288456
0.218424
0.198038
0.0452517
0.0887519
0.148233
0.225712
-0.0978774
0.190743
0.351318
-0.171311
-0.224971
0.347736
0.265967
-0.302272
0.492932
0.0601978
-0.284094
0.228154
-0.0177129
0.222132
-0.0882764
0.214332
-0.00862731
0.1226
-0.0146714
0.16956
0.123127
-0.120458
0.51681
0.472968
-0.367761
0.413247
0.563884
0.19353
0.0389942
0.536926
-0.00842364
0.640162
0.115079
0.148791
0.207428
0.218814
0.222215
-0.0257941
0.200506
0.207395
-0.0138439
0.204677
0.00439024
-0.122442
0.271557
0.132908
0.240411
0.281467
0.118264
0.152922
0.292166
0.00963521
0.220942
0.0438823
0.081716
0.279551
0.361168
-0.564549
-0.237316
-0.303264
-0.384256
0.252262
0.862627
-0.390734
-0.295743
-0.329305
-0.732461
0.22435
-0.666473
0.79989
-0.459421
-0.553324
0.710612
-0.150311
0.608369
-0.575018
-0.0851807
0.58616
0.286808
0.385936
0.443828
0.434367
0.395096
0.0502865
0.356096
0.412624
0.552088
-0.577789
0.565115
-0.637118
0.608889
-0.311126
0.291422
0.576222
-0.561564
0.276816
-0.0571596
-0.75558
0.341399
-0.115535
-0.37328
0.0481935
-0.0128155
-0.041072
-0.762521
0.359021
-0.763196
0.360657
-0.642452
-0.0317064
-0.437497
0.226994
-0.541302
-0.650631
-0.436549
0.646498
-0.336356
0.276088
0.208735
-0.00226968
0.23758
0.153625
0.0647988
0.198877
0.198055
-0.0498221
0.127835
0.171585
0.0191572
0.0672247
0.176425
0.391561
-0.125594
0.125171
-0.226236
0.286434
0.374399
-0.146245
0.204419
0.126056
0.160932
0.201079
-0.0784785
0.186407
0.183847
-0.0607205
0.555804
-0.095445
0.568413
0.444319
-0.0310723
0.555461
0.730456
0.64081
-0.0487882
0.197579
0.0384517
0.168976
0.0308665
0.187948
0.201487
0.0207282
0.181601
0.151718
0.190833
-0.169116
0.173506
0.102441
0.251172
-0.0751406
0.315552
0.12702
0.154447
0.279942
0.217025
0.230577
0.323433
-0.312288
-0.54058
0.150878
-0.535135
-0.752343
0.361609
0.283526
-0.612831
-0.50811
-0.515594
0.705665
0.0942252
0.251191
-0.695173
0.544862
-0.0868045
-0.0229298
0.620484
0.0486285
0.537531
0.434565
0.100043
0.343785
0.0642902
0.370077
0.048403
0.346693
0.404499
0.0482387
0.364385
-0.012674
0.592955
0.0159336
-0.65448
0.343354
-0.363058
-0.21821
0.602405
-0.325589
0.545245
0.697768
-0.356369
-0.577205
0.46167
-0.64833
0.27505
0.657684
-0.609491
0.618237
-0.631053
-0.66254
0.621468
-0.404176
0.686634
-0.325977
0.656052
-0.687758
0.389844
-0.82734
-0.622824
0.0815222
0.00542091
-0.835421
0.398872
0.350278
0.650203
-0.374116
0.199218
0.209116
0.0284642
0.236384
0.120398
0.0574754
0.14058
0.159294
0.18531
0.204468
0.27168
-0.204455
0.264428
-0.0880029
0.165325
0.248805
0.336587
-0.211416
0.387387
-0.100953
0.125435
0.287894
-0.0834748
-0.160552
0.286608
0.000380139
-0.0897089
0.276116
0.184228
-0.19175
0.131029
-0.199572
0.755376
0.348874
0.368842
-0.352718
0.321646
-0.143572
0.699033
0.586884
-0.180741
0.82155
0.236031
0.199843
0.208676
0.181855
-0.000254728
-0.0877882
0.239506
0.180349
0.0104837
0.213204
-0.0396972
-0.107725
0.210166
0.143447
0.149675
0.165877
0.304123
0.115824
0.164118
0.26684
-0.0498148
-0.0354207
0.265997
0.288012
0.487712
-0.0528676
-0.588002
-0.468817
-0.261216
-0.564719
-0.048112
0.202146
-0.710257
0.0994245
-0.615019
0.68367
-0.589445
0.630884
-0.379693
0.757258
-0.212397
-0.630607
0.543803
0.586414
-0.609344
0.0665076
0.553977
0.0966189
0.440913
0.498855
0.470119
0.392024
0.123084
0.223609
0.229894
0.174605
0.135511
0.228875
0.580281
-0.630094
0.646028
0.287145
0.526534
-0.744744
0.372179
-0.117295
-0.774875
0.418506
0.0804788
-0.18666
-0.499825
0.00874687
-0.104519
-0.00862612
-0.763754
0.359578
-0.826173
0.500196
-0.297915
-0.646155
-0.181185
-0.564633
0.564125
-0.558704
-0.271296
-0.364882
0.541929
-0.19165
0.167813
-0.00760136
0.206819
-0.152891
0.181356
0.121278
0.115106
0.241676
0.186507
-0.0459269
0.183974
-0.0246802
0.0214734
0.182994
0.0599726
-0.236661
0.148658
0.278037
-0.112712
0.290556
-0.0417506
-0.0161312
0.17597
0.177084
-0.170831
0.296266
0.0512337
0.203133
0.151967
0.0843663
-0.0842667
0.268494
0.240015
-0.108986
0.192724
0.562652
-0.109492
0.458366
-0.0978252
0.466667
0.431475
-0.109829
0.518292
0.0166145
0.570269
0.151095
0.670456
0.126273
0.109758
0.0428117
0.157031
0.178865
0.0298106
0.0940671
0.180095
0.16967
0.0698358
0.223687
0.170468
0.259271
-0.137776
0.303653
0.084039
0.220084
0.248157
0.129064
0.216183
0.0633663
0.224646
0.211998
-0.512532
0.0437151
0.454532
-0.715748
-0.362572
-0.560644
-0.610832
-0.403021
0.644811
0.0388591
0.0414387
0.377565
-0.655848
0.443452
-0.0441933
-0.112045
-0.0290626
0.711319
0.650596
-0.0592974
0.50021
0.439558
0.152869
0.317251
0.214225
0.177799
0.18645
0.146077
0.077532
0.365405
0.320682
0.4431
0.548604
0.0974242
-0.457599
0.772106
-0.399928
0.654812
0.411522
0.694648
-0.614169
0.507988
0.620822
-0.612075
0.618306
-0.722825
-0.644861
0.636234
-0.466595
0.646387
-0.146191
-0.595573
0.297658
0.569007
-0.750193
-0.110101
-0.82018
0.261476
-0.675996
0.4047
-0.752799
0.387918
0.454737
0.614701
-0.446888
0.171264
0.0539276
0.154007
0.0273481
-0.0993407
0.214447
0.145391
0.0411159
0.138047
0.129327
0.166864
0.0836535
-0.237774
0.297747
-0.0891165
0.177844
-0.269173
0.227423
-0.327306
0.311175
-0.151336
0.342286
-0.165202
0.126916
0.0270925
-0.179034
0.230268
0.0240992
0.200499
-0.0485323
0.16519
-0.0808234
0.155748
0.16278
0.105715
0.056204
-0.364238
0.556962
0.579266
0.321984
0.360541
0.102429
-0.301806
0.191977
-0.15024
0.668532
0.420029
0.819627
0.673593
0.169084
-0.0480656
0.157824
0.186842
-0.119039
0.213106
0.061056
0.121605
-0.116046
0.185882
0.143884
0.0798034
-0.0867115
0.25718
0.172559
0.109342
0.194311
0.00773082
0.212353
0.0777858
0.170371
-0.178693
0.307757
0.0374893
0.262136
0.610581
-0.566865
-0.105167
0.432158
-0.794731
-0.128486
-0.396979
-0.213853
-0.610191
0.64905
-0.645271
0.68671
-0.267706
0.689152
-0.245701
0.593002
-0.637196
-0.627887
0.515841
0.519541
0.710902
0.000416618
0.178837
0.471758
0.679047
0.592426
0.495049
0.263982
0.0923215
0.273083
0.250415
0.0702668
0.188998
0.254101
-0.625187
0.722612
0.157102
-0.727625
-0.657023
0.190428
0.57205
-0.718241
-0.0265653
-0.522522
-0.439735
-0.310458
-0.549836
-0.41452
-0.3481
-0.269106