/*--------------------------------*- C++ -*----------------------------------*\
| =========                 |                                                 |
| \\      /  F ield         | OpenFOAM: The Open Source CFD Toolbox           |
|  \\    /   O peration     | Version:  v2012                                 |
|   \\  /    A nd           | Website:  www.openfoam.com                      |
|    \\/     M anipulation  |                                                 |
\*---------------------------------------------------------------------------*/
FoamFile
{
    version     2.0;
    format      ascii;
    class       surfaceVectorField;
    location    "0.4";
    object      Uf;
}
// * * * * * * * * * * * * * * * * * * * * * * * * * * * * * * * * * * * * * //

dimensions      [0 1 -1 0 0 0 0];


internalField   nonuniform List<vector> 
21888
(
(7.96594 0.106644 -4.87775e-25)
(7.91178 0.0959295 -1.21705e-23)
(7.94166 0.0833873 -4.88938e-25)
(7.94228 0.0963804 -1.45773e-21)
(7.93483 0.07901 3.06044e-23)
(7.92909 0.0651166 5.5196e-22)
(7.94116 0.0552197 -1.09301e-23)
(7.93396 0.0691509 0)
(7.91249 0.0964841 -6.97825e-23)
(7.93552 0.0646177 1.759e-23)
(7.89748 0.0793613 2.73169e-20)
(7.95069 0.0577407 -5.54841e-21)
(7.93345 0.0726958 -4.41883e-24)
(7.94459 0.0607818 -8.45513e-25)
(7.94659 0.113455 -3.46958e-20)
(7.93361 0.0677232 -3.42102e-21)
(7.93588 0.0618005 -1.48399e-23)
(7.92076 0.0557784 -3.47824e-23)
(7.92646 0.0762291 2.70083e-20)
(7.93867 0.0518515 2.04443e-23)
(7.95723 0.0619522 1.05298e-23)
(7.93542 0.0702384 3.79924e-24)
(7.95585 0.0523505 1.91948e-21)
(7.95672 0.0588055 2.10196e-22)
(7.89621 0.11256 1.89877e-23)
(7.92831 0.0691237 3.5745e-23)
(7.94322 0.0622626 6.27189e-21)
(7.93429 0.0694247 -1.46686e-23)
(7.94665 0.0464688 6.06332e-21)
(7.89061 0.0761027 1.11529e-23)
(7.96193 0.0608255 -8.10617e-24)
(7.96387 0.0576899 4.56916e-24)
(7.93004 0.0678159 -4.72713e-21)
(7.94187 0.0657811 3.53209e-24)
(7.95421 0.0526775 8.8984e-24)
(7.95348 0.0518871 -1.38939e-24)
(7.95918 0.0543274 4.66054e-22)
(7.94246 0.120248 0)
(7.93356 0.0617531 1.85593e-23)
(7.93047 0.072096 -7.70233e-22)
(7.95744 0.0520019 9.76299e-24)
(7.93886 0.0454645 -6.36949e-21)
(7.91873 0.0530657 -2.08517e-23)
(7.92385 0.0765072 2.56428e-20)
(7.96759 0.0533599 2.12806e-21)
(7.96603 0.0518552 -5.30782e-24)
(7.95365 0.0578548 -3.37242e-21)
(7.94588 0.0621767 -3.26816e-24)
(7.95014 0.0551841 9.74006e-24)
(7.95133 0.0502697 0)
(7.95411 0.0501493 0)
(7.96286 0.0501515 -6.60889e-24)
(7.95838 0.0501062 -1.92999e-24)
(7.92441 0.0862668 0)
(7.89688 0.124913 0)
(7.93199 0.0703789 6.82165e-24)
(7.9375 0.0685613 0)
(7.93208 0.0719484 1.75009e-21)
(7.96729 0.0510534 1.64672e-23)
(7.94949 0.0466087 5.77739e-21)
(7.89132 0.0734626 4.53088e-23)
(7.96585 0.048833 -3.55759e-22)
(7.94263 0.0662453 -1.01093e-24)
(7.94336 0.0620191 3.36963e-23)
(7.94584 0.0517588 0)
(7.9446 0.0552183 -2.37893e-24)
(7.94862 0.0489214 0)
(7.95113 0.0461688 0)
(7.95578 0.0492082 1.7081e-24)
(7.95528 0.046625 1.44742e-24)
(7.95789 0.0474911 1.30404e-22)
(7.93897 0.0770597 0)
(7.92313 0.0781665 0)
(7.95549 0.126896 -4.91978e-24)
(7.93444 0.0776772 9.9874e-24)
(7.93601 0.0700419 2.53612e-22)
(7.97159 0.048484 6.16343e-22)
(7.97065 0.046555 7.93832e-24)
(7.96174 0.0489759 1.471e-23)
(7.94564 0.0456895 -3.32258e-21)
(7.92821 0.0482411 -2.04525e-24)
(7.92509 0.0691326 6.3829e-23)
(7.96751 0.0462078 1.6381e-24)
(7.96394 0.0460682 -4.54685e-23)
(7.94093 0.0585691 -7.0423e-25)
(7.93837 0.0614095 1.71993e-24)
(7.94493 0.0479191 0)
(7.93994 0.0535054 -8.99179e-23)
(7.95434 0.0438963 1.65287e-24)
(7.95191 0.0428762 0)
(7.95626 0.0437647 -5.96613e-23)
(7.96006 0.0453301 -7.71376e-25)
(7.95827 0.0443228 1.28056e-22)
(7.92679 0.0874973 -1.90766e-23)
(7.9297 0.0828632 -1.85062e-24)
(7.92212 0.0979666 1.05654e-22)
(7.91103 0.136485 -1.25639e-22)
(7.928 0.0842221 -2.26015e-21)
(7.93234 0.0762508 2.31472e-23)
(7.93325 0.0723863 -4.60737e-23)
(7.93374 0.0687273 4.14693e-23)
(7.97275 0.045898 9.01786e-24)
(7.96999 0.0437222 1.46489e-22)
(7.96045 0.0435695 -1.83294e-24)
(7.89746 0.0672929 3.44191e-20)
(7.96225 0.0428642 8.82082e-24)
(7.93394 0.0639815 -1.449e-24)
(7.93345 0.0592187 -4.10379e-24)
(7.94223 0.0464125 0)
(7.94535 0.0439393 -7.91684e-25)
(7.93938 0.0494576 -2.83987e-24)
(7.9361 0.0522421 -5.68814e-24)
(7.9488 0.0421683 -7.70641e-25)
(7.9529 0.0393074 1.54846e-24)
(7.95866 0.0413586 -4.28688e-23)
(7.92689 0.0894715 -2.21671e-21)
(7.91096 0.0864424 -1.02813e-20)
(7.96893 0.128667 -8.0807e-20)
(7.93019 0.0754857 2.82399e-22)
(7.93015 0.0671043 -4.20674e-24)
(7.97311 0.0410022 0)
(7.97544 0.0415672 1.10745e-24)
(7.96791 0.0415379 4.64014e-23)
(7.9714 0.0413418 -1.5209e-25)
(7.96906 0.0365926 0)
(7.93553 0.0433126 1.34897e-21)
(7.92301 0.0659898 2.08139e-20)
(7.96471 0.0406826 -3.66567e-24)
(7.96305 0.0398509 0)
(7.93374 0.0551798 -4.72546e-22)
(7.92988 0.0576464 -3.50265e-24)
(7.93979 0.0456936 6.84817e-25)
(7.94651 0.040497 -9.34465e-23)
(7.93368 0.051157 2.90201e-24)
(7.95279 0.0371043 -1.89383e-24)
(7.95516 0.0372341 1.31477e-22)
(7.96176 0.0387997 -2.32782e-24)
(7.95928 0.0381503 -2.64706e-24)
(7.92547 0.0842896 -8.34841e-24)
(7.91935 0.0905983 1.98942e-21)
(7.91587 0.0909741 7.99491e-23)
(7.91714 0.083967 -5.30491e-21)
(7.91715 0.0885967 4.59034e-23)
(7.91075 0.139826 1.03096e-22)
(7.9281 0.0796923 1.48668e-23)
(7.92662 0.0760123 1.91217e-23)
(7.92579 0.0709605 8.71791e-24)
(7.92456 0.0658337 -1.56423e-22)
(7.97384 0.0408504 1.98447e-24)
(7.97575 0.0395116 -1.49506e-22)
(7.96615 0.0389823 1.17626e-22)
(7.97093 0.0389456 -4.09995e-23)
(7.96527 0.0340426 4.63008e-24)
(7.9732 0.0364452 1.08371e-25)
(7.97303 0.0330481 4.03315e-21)
(7.89608 0.063278 2.62819e-23)
(7.96423 0.0368269 0)
(7.92732 0.0582995 0)
(7.92884 0.0542224 0)
(7.9371 0.0452563 6.53178e-24)
(7.94041 0.0426444 2.15832e-22)
(7.94525 0.0389066 -4.39762e-24)
(7.94821 0.0377056 -5.02038e-22)
(7.93068 0.0505319 6.07947e-24)
(7.93355 0.047392 -5.15916e-22)
(7.95091 0.03558 -5.54999e-24)
(7.95253 0.0343677 3.76354e-22)
(7.95673 0.03638 3.67827e-24)
(7.95515 0.034383 3.08943e-22)
(7.96011 0.0339229 0)
(7.92355 0.0819213 -7.77695e-22)
(7.92036 0.0976413 -7.00803e-22)
(7.91052 0.0855003 -7.78091e-21)
(7.97935 0.157571 0)
(7.92182 0.0753928 -2.38685e-22)
(7.92448 0.0623891 -2.92615e-24)
(7.92063 0.0653347 -2.88154e-24)
(7.97658 0.0373356 1.75158e-25)
(7.97421 0.0370291 2.7267e-24)
(7.96826 0.0372214 -1.63847e-24)
(7.9672 0.0365407 -7.01078e-25)
(7.9704 0.0365848 2.90858e-24)
(7.9751 0.0369236 -4.93708e-22)
(7.96496 0.031112 -4.38402e-24)
(7.97754 0.0373921 -3.24667e-24)
(7.93569 0.0375037 -1.41225e-23)
(7.92685 0.061826 2.19256e-20)
(7.96696 0.035284 2.39644e-24)
(7.9655 0.0340594 0)
(7.92451 0.058121 -1.48206e-24)
(7.92757 0.0504229 5.34533e-24)
(7.93414 0.0437888 7.03124e-23)
(7.94295 0.0389796 7.49795e-25)
(7.93915 0.0385919 1.14944e-24)
(7.94527 0.0356573 -1.31608e-22)
(7.94942 0.0341327 3.43422e-23)
(7.95525 0.0323649 -2.00637e-22)
(7.96349 0.0322383 0)
(7.96165 0.0305063 0)
(7.91932 0.0837359 4.78805e-22)
(7.91972 0.0889199 -2.71808e-24)
(7.92151 0.0979065 -5.48123e-24)
(7.92049 0.0984644 -1.82887e-21)
(7.92405 0.0916411 -8.579e-24)
(7.92321 0.120057 -1.734e-23)
(7.93734 0.13757 1.91264e-22)
(7.91892 0.0796929 -8.27368e-24)
(7.9181 0.0746099 7.60536e-24)
(7.91767 0.0671757 -4.47044e-24)
(7.91935 0.0627339 0)
(7.97259 0.0345944 3.1925e-22)
(7.96915 0.0338533 -4.00443e-23)
(7.97916 0.0371999 2.98495e-24)
(7.97576 0.0337128 2.39157e-24)
(7.97255 0.0298149 0)
(7.97929 0.0365288 1.48843e-21)
(7.90246 0.059024 4.55493e-23)
(7.96656 0.0307431 5.70703e-25)
(7.92129 0.0592547 -1.30403e-24)
(7.92269 0.0556759 3.15843e-22)
(7.92285 0.0511585 -3.5447e-22)
(7.92517 0.0470743 -1.65895e-22)
(7.93498 0.0389545 1.74678e-23)
(7.93158 0.0406746 2.56124e-22)
(7.93742 0.0354245 2.0659e-23)
(7.94785 0.0331326 6.83201e-24)
(7.94481 0.0326681 -8.43426e-25)
(7.95063 0.0311572 8.27264e-25)
(7.95805 0.0296409 1.84062e-25)
(7.95573 0.029924 -4.74556e-25)
(7.96025 0.0286871 0)
(7.96334 0.0274008 0)
(7.91571 0.0833152 -2.63381e-22)
(7.91261 0.0953114 -1.79645e-23)
(7.90018 0.1036 1.35642e-20)
(7.92705 0.0894797 -1.12769e-21)
(7.89406 0.138543 -9.0458e-20)
(7.91547 0.0717662 2.57907e-22)
(7.91324 0.0757496 2.53056e-25)
(7.91241 0.068379 -5.0014e-24)
(7.91757 0.0601009 0)
(7.97403 0.0321684 -4.58709e-25)
(7.97256 0.0326484 6.79477e-24)
(7.9713 0.0323843 -8.54501e-23)
(7.97025 0.0310665 1.14721e-23)
(7.97481 0.0317704 0)
(7.977 0.031227 0)
(7.96749 0.0290143 0)
(7.97917 0.0337531 7.47995e-25)
(7.9797 0.0327305 -4.23095e-24)
(7.98207 0.0345391 -3.28114e-24)
(7.94432 0.0329895 0)
(7.93822 0.0586353 0)
(7.9692 0.0291804 2.77352e-24)
(7.96771 0.0277936 -6.75348e-25)
(7.91929 0.0528525 8.03819e-24)
(7.92772 0.0430276 3.30046e-24)
(7.923 0.0438035 4.96739e-22)
(7.9291 0.0377249 1.13264e-23)
(7.94061 0.0323604 7.15878e-24)
(7.93713 0.0322644 7.00447e-25)
(7.94372 0.0291699 8.47849e-24)
(7.95378 0.0293805 -6.27968e-25)
(7.95107 0.0278277 3.2107e-24)
(7.95913 0.0265105 0)
(7.95594 0.0271301 -4.59663e-23)
(7.96621 0.0262955 5.64269e-25)
(7.96496 0.0244007 1.01432e-23)
(7.91248 0.0802597 7.252e-23)
(7.91189 0.0857848 -8.69806e-24)
(7.90421 0.0950515 2.33492e-21)
(7.91234 0.0904662 -7.5293e-24)
(7.89566 0.10531 -3.44293e-23)
(7.90718 0.0980584 5.20306e-21)
(7.92326 0.0889595 1.66331e-23)
(7.9367 0.177056 -8.35723e-23)
(7.90955 0.0771747 1.59726e-24)
(7.90744 0.0691791 0)
(7.91001 0.0641501 0)
(7.91574 0.0558879 2.9954e-24)
(7.91372 0.0596007 0)
(7.976 0.03 0)
(7.97353 0.0303098 6.14132e-24)
(7.97131 0.0282671 -3.82628e-23)
(7.97901 0.0303958 3.97556e-24)
(7.97748 0.0289463 -6.58743e-24)
(7.98187 0.032749 1.3916e-21)
(7.91615 0.0593019 0)
(7.969 0.025001 5.0528e-25)
(7.91545 0.0520447 5.16489e-23)
(7.92194 0.0386672 -7.4933e-24)
(7.91894 0.0431792 1.42997e-23)
(7.92578 0.0354155 2.48407e-23)
(7.93017 0.033061 1.52464e-22)
(7.93443 0.0308047 -1.06096e-23)
(7.93774 0.0279312 0)
(7.94345 0.0265671 6.48908e-24)
(7.94646 0.0267047 2.49622e-22)
(7.94907 0.0258773 5.73415e-24)
(7.95184 0.0246483 -1.30841e-22)
(7.95773 0.0245312 -6.23849e-24)
(7.96018 0.023162 5.50389e-24)
(7.95539 0.0239155 -1.7151e-22)
(7.96343 0.022503 -1.1636e-22)
(7.96635 0.0216331 5.48923e-23)
(7.91101 0.0900439 0)
(7.90778 0.0879585 2.85757e-24)
(7.91122 0.0916844 -1.62655e-23)
(7.897 0.106605 -3.34589e-24)
(7.94872 0.10767 4.72451e-23)
(7.90827 0.114266 5.71036e-24)
(7.92606 0.11559 -7.66883e-21)
(7.86024 0.164858 8.70878e-23)
(7.90641 0.0747368 0)
(7.90568 0.0794526 -8.89906e-24)
(7.90314 0.0709687 7.30008e-25)
(7.90812 0.0597185 1.13955e-23)
(7.97664 0.0278753 3.41402e-25)
(7.97807 0.0281148 -5.09136e-24)
(7.9735 0.0278557 2.11008e-24)
(7.9751 0.0279658 2.88718e-25)
(7.97283 0.0261277 2.61546e-24)
(7.9794 0.0287818 -6.07204e-25)
(7.98016 0.0287699 7.86388e-24)
(7.98305 0.0289687 -4.80039e-22)
(7.97976 0.0243792 -6.8513e-24)
(7.98259 0.0293822 -5.16583e-24)
(7.9507 0.0678419 9.17701e-23)
(7.95019 0.029975 0)
(7.97101 0.023738 -8.53881e-25)
(7.96998 0.0223727 1.05373e-23)
(7.91592 0.0482202 5.37172e-22)
(7.9116 0.0513623 1.67069e-23)
(7.92169 0.0344362 4.50903e-24)
(7.91515 0.0428546 -1.79478e-24)
(7.93139 0.0279776 -1.734e-22)
(7.94131 0.0252139 3.95027e-24)
(7.93794 0.0235327 -9.40507e-24)
(7.94385 0.0228331 -2.95683e-22)
(7.94826 0.0235019 8.14611e-24)
(7.95436 0.0219958 -3.01143e-24)
(7.9618 0.020225 5.32841e-24)
(7.96912 0.0204986 3.36085e-22)
(7.96771 0.0187827 2.34811e-23)
(7.90515 0.0846718 7.07494e-24)
(7.90369 0.0899482 2.07274e-24)
(7.90569 0.10045 6.4621e-22)
(7.90657 0.0953384 1.46377e-21)
(7.89575 0.105442 -8.54879e-24)
(7.93251 0.0772989 6.23089e-23)
(7.89268 0.106857 5.25752e-21)
(7.89345 0.119025 1.92243e-24)
(7.93223 0.153263 -2.7163e-23)
(7.90121 0.0815852 -1.04385e-22)
(7.89877 0.0680165 -2.37513e-23)
(7.89845 0.0740388 -9.24709e-25)
(7.90752 0.0541586 1.54391e-23)
(7.90363 0.0578731 2.49886e-22)
(7.97661 0.0260088 7.47338e-23)
(7.97931 0.0279738 8.06813e-23)
(7.97971 0.0259395 -4.76299e-24)
(7.97264 0.0242264 -6.59954e-25)
(7.97463 0.0241816 2.69495e-24)
(7.98081 0.0270383 -1.09601e-24)
(7.98228 0.0273683 4.73408e-24)
(7.97117 0.0207213 0)
(7.97941 0.0273462 -1.81806e-24)
(7.93789 0.0538658 4.41991e-20)
(7.97657 0.021266 0)
(7.97296 0.0220211 -6.14708e-23)
(7.97099 0.0199664 8.83251e-24)
(7.90885 0.049914 4.27205e-23)
(7.91775 0.0328299 0)
(7.92235 0.0302844 4.48453e-24)
(7.91043 0.0446489 -1.47754e-24)
(7.91231 0.0401889 1.08798e-22)
(7.9323 0.0241011 -8.27361e-24)
(7.92858 0.0260859 1.85422e-24)
(7.93465 0.0211245 -1.53464e-23)
(7.93809 0.0186964 3.74953e-22)
(7.94703 0.0213543 9.07564e-24)
(7.94469 0.0198534 8.36237e-24)
(7.94986 0.0206179 -1.96728e-22)
(7.95319 0.0197643 6.01667e-24)
(7.95657 0.0187466 0)
(7.964 0.0181399 5.61526e-24)
(7.961 0.0184926 0)
(7.96629 0.017253 -1.16436e-22)
(7.96902 0.0162467 2.01023e-22)
(7.90181 0.0933157 1.24129e-21)
(7.8984 0.0903886 5.23883e-22)
(7.90213 0.0981977 -7.36717e-24)
(7.89405 0.104064 4.24103e-22)
(7.91169 0.10707 -7.44017e-24)
(7.91546 0.0917324 -1.53659e-20)
(7.90089 0.107772 2.92989e-21)
(7.89554 0.111626 -3.26777e-24)
(7.87362 0.154101 5.59491e-20)
(7.89737 0.079739 2.80046e-23)
(7.89655 0.0842895 -1.21083e-23)
(7.89859 0.0612567 1.16173e-24)
(7.89332 0.065336 2.92236e-22)
(7.8942 0.0773709 -1.41956e-24)
(7.89937 0.0550794 9.47212e-24)
(7.97641 0.0241183 5.85183e-26)
(7.97809 0.024033 -7.01655e-26)
(7.97996 0.0238728 0)
(7.98146 0.0239871 -4.32341e-24)
(7.97635 0.0221747 4.30354e-23)
(7.98206 0.0248595 -7.17487e-25)
(7.98233 0.025848 2.65275e-22)
(7.9828 0.0262612 1.88827e-24)
(7.98313 0.026815 -8.02142e-24)
(7.98327 0.0286034 9.2526e-22)
(7.98069 0.0315729 8.28156e-22)
(7.97154 0.0306402 -5.34742e-23)
(7.96539 0.0481726 -5.14173e-23)
(7.97814 0.0308285 6.62792e-24)
(7.97293 0.0199094 -1.6558e-24)
(7.97455 0.020139 -7.60162e-25)
(7.97281 0.0180591 9.31626e-23)
(7.90626 0.0469974 -8.82823e-25)
(7.91367 0.0343152 8.74061e-24)
(7.9151 0.0293147 0)
(7.92561 0.0269012 1.01592e-22)
(7.92131 0.0258034 8.41454e-24)
(7.90852 0.0366721 -9.09606e-24)
(7.93141 0.0192029 -5.21134e-22)
(7.92634 0.0226848 -1.43647e-23)
(7.94221 0.0174063 -4.90542e-24)
(7.9391 0.01489 -4.23511e-24)
(7.94568 0.0162764 -1.58538e-23)
(7.95147 0.0174092 -7.11252e-24)
(7.95925 0.0172375 0)
(7.9573 0.0151121 0)
(7.96533 0.0154416 2.32783e-24)
(7.96141 0.0152654 -3.25766e-24)
(7.96973 0.0133993 6.18594e-23)
(7.97144 0.0149836 7.85868e-24)
(7.89397 0.0889483 -2.41184e-24)
(7.89836 0.103131 -6.93213e-24)
(7.89944 0.100001 1.54028e-24)
(7.89468 0.105415 7.0302e-25)
(7.92544 0.0998828 7.10542e-23)
(7.89463 0.110462 6.02707e-24)
(7.89418 0.113941 -1.04433e-23)
(7.95274 0.159126 1.12097e-22)
(7.89063 0.0694727 -8.71941e-24)
(7.88922 0.0635442 -1.04584e-23)
(7.89066 0.0738927 0)
(7.89032 0.0800412 5.44281e-24)
(7.90109 0.0495291 1.27743e-24)
(7.89567 0.0516349 1.3184e-24)
(7.97976 0.0220721 -3.69792e-24)
(7.98307 0.0227573 9.38825e-23)
(7.97625 0.0202333 -6.70988e-26)
(7.978 0.0202912 -3.68104e-24)
(7.98318 0.0249836 3.69032e-24)
(7.98687 0.0254245 -1.20193e-21)
(7.98096 0.0277472 8.79813e-24)
(7.97769 0.0392643 -3.06297e-21)
(7.97538 0.0551644 2.12769e-23)
(7.97633 0.0183248 7.42859e-26)
(7.97305 0.0162572 -1.86601e-22)
(7.97492 0.0164814 2.7421e-24)
(7.9023 0.0437579 7.92137e-24)
(7.91711 0.0245523 5.09897e-24)
(7.91272 0.0248405 -3.47852e-25)
(7.91946 0.0213553 -1.93626e-22)
(7.90405 0.0394181 2.9481e-22)
(7.90505 0.0335714 2.35535e-22)
(7.92664 0.0186553 4.6209e-22)
(7.92969 0.0157582 -3.48942e-23)
(7.92346 0.0192045 -4.71702e-22)
(7.94072 0.0110769 3.98848e-23)
(7.93667 0.0117407 -9.99205e-25)
(7.94909 0.0151171 1.80317e-22)
(7.94664 0.0130489 6.24679e-24)
(7.95263 0.0140955 -1.43286e-22)
(7.95552 0.0128327 -4.19987e-24)
(7.95805 0.0119518 0)
(7.96378 0.0139615 7.88502e-24)
(7.96598 0.0131436 -1.91741e-24)
(7.96211 0.0128329 -6.308e-24)
(7.9681 0.0119959 5.18472e-24)
(7.97021 0.0110923 -4.99149e-23)
(7.97336 0.0136544 3.55691e-24)
(7.89238 0.0936268 8.47285e-22)
(7.8896 0.0883656 8.65418e-24)
(7.89408 0.0975888 1.79241e-24)
(7.89578 0.102832 -3.65396e-23)
(7.893 0.110204 -1.61546e-22)
(7.91401 0.129587 3.10723e-25)
(7.90494 0.112471 0)
(7.901 0.112969 -1.147e-23)
(7.89633 0.117842 -3.28548e-22)
(7.91799 0.146498 -3.32179e-21)
(7.88623 0.0720184 1.86404e-24)
(7.88316 0.0647726 1.7821e-24)
(7.88726 0.0596793 0)
(7.88712 0.0850181 1.4571e-22)
(7.88414 0.0814368 5.34617e-24)
(7.89046 0.0532832 0)
(7.8919 0.0470138 1.27118e-23)
(7.97965 0.0202173 -3.41845e-23)
(7.98145 0.0201776 -3.6888e-24)
(7.98391 0.0208501 2.98145e-24)
(7.98487 0.0217911 2.36576e-23)
(7.97972 0.0184112 -3.65331e-24)
(7.98478 0.0228271 9.948e-24)
(7.98484 0.0239376 1.1476e-24)
(7.9863 0.024378 -1.10766e-22)
(7.98751 0.0236229 2.5015e-24)
(7.98339 0.0277051 3.59429e-24)
(7.98601 0.0247115 1.40133e-24)
(7.99187 0.0238512 2.8986e-24)
(7.95244 0.0452367 8.20181e-24)
(7.97649 0.0164389 0)
(7.97806 0.0165588 0)
(7.97637 0.0148573 0)
(7.89873 0.0408597 6.95345e-24)
(7.90961 0.0207215 1.10124e-23)
(7.90826 0.0251712 -3.29491e-25)
(7.91892 0.0174381 8.26737e-23)
(7.90475 0.0287895 3.10176e-24)
(7.89971 0.03253 2.70387e-24)
(7.93313 0.0118486 -2.78465e-22)
(7.92816 0.0113436 3.09461e-22)
(7.94428 0.0105471 6.10792e-23)
(7.9423 0.00751532 1.22259e-23)
(7.93544 0.00775101 2.09219e-23)
(7.94772 0.00991211 6.39258e-24)
(7.95307 0.0106884 -1.64469e-25)
(7.9605 0.011466 -3.57546e-24)
(7.95897 0.00938776 4.10803e-25)
(7.96651 0.0105906 -1.87714e-23)
(7.96276 0.010689 -9.30419e-23)
(7.97093 0.00878403 3.49513e-24)
(7.97242 0.0102016 3.4979e-24)
(7.97574 0.0127734 0)
(7.97419 0.011579 0)
(7.88804 0.09698 3.42636e-24)
(7.88419 0.0903184 9.28586e-25)
(7.89405 0.107826 4.27836e-24)
(7.88951 0.104785 2.92987e-24)
(7.893 0.116453 2.46437e-22)
(7.89292 0.113507 -3.09502e-23)
(7.90409 0.124069 3.61733e-23)
(7.89394 0.121203 -4.25017e-22)
(7.85406 0.119173 -1.21894e-24)
(7.95695 0.0959096 8.72239e-24)
(7.88244 0.0703726 -1.39114e-22)
(7.88212 0.0750588 2.10239e-24)
(7.87891 0.0668257 1.84013e-24)
(7.88359 0.0541573 1.10276e-23)
(7.87897 0.0797264 -1.92932e-24)
(7.89411 0.0415426 1.07856e-23)
(7.88818 0.0419793 -6.1284e-23)
(7.98297 0.0199343 2.00796e-24)
(7.98281 0.0181171 -1.5609e-22)
(7.98493 0.0189634 1.72528e-22)
(7.98634 0.0208981 -4.04739e-23)
(7.97973 0.0165673 0)
(7.9814 0.0165876 0)
(7.98561 0.0228054 2.23e-25)
(7.98813 0.0235655 8.46617e-22)
(7.98787 0.0228056 6.02807e-25)
(7.98836 0.0249123 1.24739e-24)
(7.99237 0.0266636 0)
(7.98546 0.020739 0)
(7.97554 0.023299 6.54656e-24)
(7.97649 0.0428448 -1.22706e-20)
(7.97977 0.0147768 5.94703e-24)
(7.97749 0.0127658 3.39062e-24)
(7.89646 0.0363512 1.05496e-22)
(7.9058 0.0166535 8.6284e-24)
(7.91056 0.0159572 1.02661e-23)
(7.90277 0.0240196 6.52022e-24)
(7.91478 0.0149163 -1.40301e-22)
(7.91977 0.012931 4.88878e-24)
(7.89446 0.031695 -6.48641e-25)
(7.92356 0.00999087 -1.33516e-23)
(7.92746 0.00621867 -1.03734e-23)
(7.94423 0.0048249 -7.03139e-25)
(7.9408 0.00495471 3.94516e-24)
(7.93807 0.00396295 9.25466e-23)
(7.93446 0.00351059 5.86339e-22)
(7.95044 0.00914138 3.18588e-24)
(7.94884 0.00692367 0)
(7.95323 0.00808566 2.30392e-22)
(7.95791 0.00716899 -2.46964e-25)
(7.96045 0.0073881 -4.9298e-24)
(7.96475 0.00932899 -3.01455e-24)
(7.96706 0.00813748 4.05732e-23)
(7.96289 0.00802326 -1.05838e-22)
(7.96936 0.00689237 3.39876e-24)
(7.97185 0.00590739 0)
(7.97491 0.00924991 -4.15559e-24)
(7.8842 0.0961819 2.91103e-24)
(7.88457 0.100313 -7.21657e-22)
(7.88019 0.0932058 0)
(7.89076 0.115167 5.56359e-24)
(7.88317 0.104912 1.45488e-24)
(7.93266 0.125808 -1.01482e-20)
(7.89751 0.139443 3.04567e-23)
(7.89121 0.131976 -2.06923e-21)
(7.89016 0.12619 -8.04679e-24)
(7.91824 0.261137 0)
(7.96906 0.101018 3.00044e-23)
(7.87302 0.0704111 -2.12512e-24)
(7.87429 0.0635737 2.39254e-23)
(7.87594 0.0557285 -4.62203e-22)
(7.87902 0.0490812 -1.31679e-23)
(7.87314 0.0771199 -1.38828e-23)
(7.87385 0.0844857 -1.65589e-23)
(7.88239 0.0421722 -9.32195e-24)
(7.88509 0.0360882 -1.11422e-22)
(7.98286 0.0165818 -2.78402e-26)
(7.98423 0.0165721 -2.2493e-24)
(7.9857 0.0167297 -1.56666e-22)
(7.98657 0.0176402 -5.09629e-26)
(7.98726 0.0191526 6.37042e-24)
(7.98765 0.0199851 1.2041e-22)
(7.9831 0.0149048 -8.77596e-25)
(7.98706 0.0217742 -7.68511e-25)
(7.98706 0.0209834 1.88393e-23)
(7.98802 0.0216595 0)
(7.98922 0.0224193 0)
(7.99053 0.0246538 2.19895e-24)
(7.99275 0.0265525 1.75843e-24)
(7.99255 0.026269 0)
(7.98821 0.0216236 0)
(7.96042 0.0414194 -3.36294e-23)
(7.97948 0.0128972 -8.27376e-24)
(7.98131 0.0129978 -1.26379e-23)
(7.97899 0.0109397 6.8053e-24)
(7.90062 0.0182571 -7.56814e-22)
(7.90172 0.0136385 -3.1177e-22)
(7.91282 0.0110864 -7.56534e-24)
(7.8975 0.0215707 -1.82552e-23)
(7.91981 0.00770097 3.29818e-24)
(7.8885 0.0306241 2.34261e-23)
(7.89247 0.0254623 -7.43183e-25)
(7.93081 0.00335393 -9.82338e-23)
(7.92707 0.00268106 -5.05066e-22)
(7.94735 0.00404093 -7.36805e-25)
(7.94604 0.00152846 -1.09762e-23)
(7.94075 0.000961687 4.29285e-24)
(7.9333 -8.01728e-05 2.01388e-23)
(7.95004 0.00396994 0)
(7.95521 0.00617522 -1.80895e-24)
(7.95287 0.00472481 2.14997e-24)
(7.95763 0.00393994 6.32328e-24)
(7.96265 0.00578404 2.55462e-25)
(7.96741 0.00538115 8.02868e-24)
(7.97412 0.00549876 0)
(7.97281 0.00375614 1.13974e-23)
(7.97554 0.00674755 -3.5926e-24)
(7.97704 0.00813373 -3.51942e-23)
(7.87425 0.091743 -1.42948e-23)
(7.87502 0.0982587 0)
(7.8878 0.120801 2.39649e-24)
(7.88395 0.115225 4.45884e-23)
(7.87724 0.104694 0)
(7.88008 0.110232 -7.19544e-24)
(7.88896 0.14414 -1.27373e-24)
(7.88866 0.125418 0)
(7.88906 0.131119 0)
(8.03027 0.238692 1.31059e-22)
(7.98826 0.154334 8.45047e-21)
(7.93433 0.135268 -1.98407e-20)
(7.86783 0.0739711 -2.12378e-24)
(7.86905 0.0582724 3.53356e-22)
(7.87421 0.0426089 3.71262e-22)
(7.86753 0.0895253 -1.56336e-22)
(7.88217 0.0294721 1.44801e-23)
(7.98595 0.0151966 -2.63798e-24)
(7.98821 0.0166637 0)
(7.98896 0.0191529 6.69431e-24)
(7.98314 0.0130416 8.27158e-25)
(7.98472 0.0132745 1.40444e-23)
(7.98985 0.020434 0)
(7.99285 0.0219578 -1.13879e-22)
(7.9911 0.0237363 0)
(7.99406 0.0225548 0)
(7.98719 0.0224134 1.70126e-25)
(7.97985 0.0244179 -7.97351e-22)
(7.97845 0.0348979 1.82857e-20)
(7.98281 0.0112847 -2.63799e-23)
(7.97863 0.00922733 -1.56477e-22)
(7.98058 0.009534 3.24894e-24)
(7.89791 0.00872113 -1.24702e-24)
(7.90413 0.0069061 2.33502e-24)
(7.91551 0.00643559 1.16778e-22)
(7.91098 0.00617524 -5.5034e-24)
(7.89136 0.0188284 -6.94496e-25)
(7.91942 0.00337868 1.75782e-22)
(7.92413 0.000841873 -4.50693e-24)
(7.92742 -0.00147237 5.9959e-24)
(7.94424 -0.000596723 9.53671e-24)
(7.94735 -0.00162578 1.19128e-23)
(7.94143 -0.00230974 2.48792e-24)
(7.93121 -0.00294892 0)
(7.93494 -0.00376978 6.94283e-24)
(7.95253 0.00196972 1.41894e-24)
(7.95777 0.00116166 -5.70201e-23)
(7.96016 0.00222115 4.74988e-24)
(7.96485 0.00428668 8.37223e-24)
(7.96263 0.00326847 1.97503e-24)
(7.96746 0.00282609 1.07987e-22)
(7.97618 0.00495434 -1.78891e-25)
(7.97416 0.0021434 -6.77634e-23)
(7.97196 0.00195543 -1.12614e-22)
(7.97845 0.00695453 2.19204e-22)
(7.87132 0.10328 0)
(7.88577 0.126943 0)
(7.87728 0.116029 -1.78656e-22)
(7.89596 0.139916 8.27225e-23)
(7.88635 0.142723 1.82073e-21)
(7.88769 0.138294 4.31443e-24)
(7.88653 0.135907 0)
(7.9547 0.225777 -4.1819e-20)
(7.91783 0.154672 6.99276e-23)
(7.86131 0.0787667 -4.80714e-24)
(7.8618 0.0701923 1.97013e-23)
(7.86211 0.0622525 3.32558e-23)
(7.8622 0.0540708 2.22639e-23)
(7.86705 0.0420728 -2.38332e-23)
(7.87121 0.0352512 -2.70706e-23)
(7.86078 0.0870084 -2.31261e-23)
(7.86114 0.0946599 -1.91711e-23)
(7.87466 0.0279773 2.22233e-23)
(7.87995 0.0215439 2.47905e-23)
(7.98611 0.0133351 -1.2671e-24)
(7.98751 0.01343 0)
(7.98965 0.016428 0)
(7.98914 0.0149399 -2.48573e-24)
(7.99008 0.0172492 3.31185e-24)
(7.99029 0.0181405 -6.27541e-23)
(7.98633 0.0116544 -7.92361e-23)
(7.99072 0.0185722 4.6164e-24)
(7.99154 0.0185973 0)
(7.99493 0.0203154 1.55375e-24)
(7.99356 0.0195718 1.86611e-24)
(7.99612 0.0204013 0)
(7.99499 0.0203216 2.0139e-25)
(7.96612 0.0315969 -1.72464e-20)
(7.98234 0.00949728 -2.16224e-26)
(7.98412 0.00957209 -2.32965e-25)
(7.98156 0.00790868 -6.06751e-23)
(7.89092 0.0114284 -3.44898e-24)
(7.89171 0.00485862 -2.40518e-22)
(7.90755 0.00167549 -1.72792e-23)
(7.8855 0.0155066 1.22774e-24)
(7.91942 -0.00132725 6.41142e-24)
(7.92768 -0.00526563 -2.23024e-24)
(7.94816 -0.00492064 1.74504e-23)
(7.95027 -0.00251096 1.01964e-23)
(7.93859 -0.00514463 -8.28833e-23)
(7.94228 -0.0068431 5.54586e-23)
(7.93512 -0.00857939 1.19508e-23)
(7.95536 4.56337e-05 2.21211e-23)
(7.95269 -0.00108237 1.46533e-24)
(7.958 -0.00174225 8.02392e-24)
(7.9627 0.00055008 -2.94884e-23)
(7.96975 0.00118655 1.09995e-22)
(7.96748 -2.01478e-06 1.0054e-23)
(7.97647 0.00258288 -1.59593e-22)
(7.97795 0.0037839 -6.63059e-24)
(7.97637 0.000728368 -6.81752e-24)
(7.97185 -0.00072637 -5.54887e-23)
(7.98045 0.00607843 -2.68069e-24)
(7.97918 0.00512971 3.12826e-24)
(7.86393 0.102291 0)
(7.86716 0.109469 0)
(7.88339 0.133336 0)
(7.87899 0.129474 2.1892e-23)
(7.87054 0.116692 -1.40057e-23)
(7.87395 0.122595 -2.99017e-22)
(7.88418 0.14415 1.46336e-23)
(7.8838 0.140048 8.81481e-24)
(7.92458 0.183631 1.99904e-22)
(7.93253 0.180432 2.93917e-22)
(7.89763 0.160123 0)
(7.85341 0.0831332 -4.85781e-24)
(7.85507 0.066323 -1.7825e-22)
(7.86233 0.0482859 9.348e-24)
(7.85471 0.0512783 -1.97124e-22)
(7.86 0.0399819 0)
(7.8678 0.0273115 0)
(7.85627 0.100865 -4.01232e-24)
(7.8775 0.0134716 -5.04634e-24)
(7.98886 0.0115878 0)
(7.98842 0.01315 -4.39113e-24)
(7.99107 0.0158126 3.17094e-24)
(7.98913 0.0137126 5.78793e-24)
(7.99054 0.0137232 -3.43675e-24)
(7.99187 0.0166513 2.54466e-24)
(7.98615 0.0095633 -2.75118e-25)
(7.98788 0.0097973 -2.66089e-25)
(7.99283 0.0184323 0)
(7.99298 0.0166272 0)
(7.99432 0.0175438 0)
(7.99721 0.0187395 0)
(7.99655 0.0179897 0)
(7.99708 0.0155246 -6.51012e-24)
(7.98133 0.0296499 -9.09928e-21)
(7.98587 0.0164069 1.47393e-23)
(7.98538 0.0078823 3.00091e-24)
(7.98226 0.00600408 3.77962e-27)
(7.88605 0.00121947 4.70285e-22)
(7.89359 -0.00102635 -2.41751e-23)
(7.90426 -0.00325399 -1.6159e-23)
(7.91112 -0.00355088 -4.63405e-22)
(7.91559 -0.00421685 -1.75935e-23)
(7.91981 -0.0057598 -2.4924e-24)
(7.92341 -0.00797288 6.55257e-24)
(7.92742 -0.00980935 -1.48136e-24)
(7.94621 -0.00819581 -1.85416e-22)
(7.94893 -0.00856287 -5.49537e-22)
(7.953 -0.00408885 -3.20196e-24)
(7.94262 -0.011092 -2.2669e-23)
(7.93134 -0.0114506 2.83067e-23)
(7.93496 -0.0126994 6.38242e-24)
(7.95794 -0.00489731 -8.10734e-24)
(7.96057 -0.00353576 -8.69251e-24)
(7.96518 -0.0010837 3.15812e-24)
(7.96286 -0.00228524 -5.22505e-25)
(7.96744 -0.00268103 -1.77867e-24)
(7.98049 0.00281032 5.6495e-23)
(7.97595 -0.00158686 3.02173e-23)
(7.97826 -0.00110103 -1.16291e-22)
(7.97381 -0.00224106 -4.75128e-24)
(7.9716 -0.00309236 6.07218e-23)
(7.86309 0.116637 0)
(7.8705 0.130715 -1.57514e-22)
(7.88412 0.148065 -9.29866e-23)
(7.88427 0.148846 8.35899e-24)
(7.88472 0.14702 -7.80344e-22)
(7.88038 0.144328 8.71255e-24)
(7.93783 0.125365 -1.26032e-20)
(7.85922 0.202634 7.49343e-23)
(7.88864 0.149851 0)
(7.88792 0.158138 -1.86067e-23)
(7.84547 0.0861624 -1.80362e-23)
(7.84687 0.0766185 0)
(7.84943 0.0700181 1.8037e-23)
(7.84842 0.0615798 2.76798e-23)
(7.84711 0.0533843 -2.87454e-22)
(7.84866 0.0466107 -2.3576e-23)
(7.8521 0.0403784 1.59589e-24)
(7.85708 0.0344709 8.33974e-24)
(7.86076 0.0288499 9.42572e-24)
(7.86288 0.0217262 -2.13557e-24)
(7.8484 0.0997497 -2.17633e-22)
(7.85221 0.108081 -2.3286e-23)
(7.86937 0.0108312 5.91374e-24)
(7.87551 0.00581673 5.32401e-22)
(7.98917 0.0102326 0)
(7.99027 0.0103453 -7.39174e-25)
(7.99013 0.012086 -8.46696e-23)
(7.99153 0.0141232 1.92954e-24)
(7.99224 0.0146568 4.36315e-23)
(7.99179 0.0127717 4.83433e-23)
(7.99264 0.015117 -1.20336e-25)
(7.99304 0.0153832 3.44922e-23)
(7.98922 0.00842501 0)
(7.9936 0.0152403 -5.41193e-25)
(7.99433 0.0149198 3.72634e-24)
(7.99579 0.0170678 0)
(7.99512 0.0156809 4.25611e-24)
(7.99716 0.0163412 0)
(7.99537 0.0131087 -1.19258e-23)
(7.99713 0.0147305 4.66651e-22)
(7.97157 0.0255467 1.70856e-20)
(7.99943 0.0114748 -1.97259e-21)
(7.98435 0.00618843 2.89338e-24)
(7.98644 0.00616948 9.71453e-23)
(7.98369 0.00429554 -3.71696e-24)
(7.88105 0.00174143 -2.6918e-23)
(7.88376 -0.00481625 -1.33424e-23)
(7.89823 -0.00458702 -8.44606e-24)
(7.89282 -0.00805454 -3.42782e-22)
(7.90191 -0.00984141 9.34027e-24)
(7.91289 -0.0086233 -1.79794e-23)
(7.9195 -0.0108385 -2.56535e-24)
(7.92727 -0.0142371 2.03319e-22)
(7.95252 -0.00775269 8.82572e-24)
(7.95105 -0.0107553 -5.32176e-23)
(7.9552 -0.00623426 2.54456e-23)
(7.93868 -0.0139287 -7.96268e-24)
(7.94247 -0.0149503 -1.72016e-22)
(7.93529 -0.01663 -2.77685e-23)
(7.95765 -0.00799035 1.16492e-23)
(7.96297 -0.00515389 3.01754e-23)
(7.96956 -0.00409751 -6.04312e-24)
(7.96734 -0.00523432 8.89995e-23)
(7.98131 0.000413098 -1.39337e-22)
(7.98288 0.00202162 6.95592e-23)
(7.97516 -0.00376988 8.60542e-25)
(7.9799 -0.000897518 -1.81031e-22)
(7.97897 -0.00290489 -3.32614e-23)
(7.97115 -0.00540611 -4.09331e-24)
(7.85509 0.11551 -2.03753e-23)
(7.85855 0.124007 0)
(7.86213 0.131162 2.22606e-23)
(7.86698 0.138904 3.89426e-23)
(7.88475 0.153116 -4.29435e-22)
(7.88318 0.14888 0)
(7.8714 0.145255 1.51793e-23)
(7.8766 0.152252 -8.20046e-23)
(7.91705 0.149683 8.69674e-21)
(7.95988 0.099369 2.5175e-22)
(7.91475 0.235745 3.94919e-22)
(7.88286 0.159639 -1.62822e-23)
(7.84461 0.094587 9.56831e-22)
(7.83798 0.08882 -4.85626e-22)
(7.84176 0.0722438 5.23868e-24)
(7.84071 0.0581147 -1.11564e-23)
(7.84393 0.0415105 -4.39898e-24)
(7.85305 0.0291016 -4.77125e-22)
(7.86318 0.0152524 5.69394e-24)
(7.85553 0.0184049 1.65657e-23)
(7.84057 0.101354 -8.08318e-24)
(7.84693 0.115412 2.15212e-22)
(7.86277 0.0069814 9.43891e-23)
(7.87433 -0.000819244 4.78419e-22)
(7.991 0.0105266 -2.26127e-24)
(7.99143 0.00933009 -4.51913e-23)
(7.9915 0.0110135 -2.65788e-24)
(7.99304 0.0138412 -6.91747e-23)
(7.99243 0.0112943 -2.40509e-24)
(7.9932 0.0117653 -3.59438e-24)
(7.99403 0.0141344 -1.53293e-22)
(7.9894 0.00688664 0)
(7.99083 0.00751694 0)
(7.99512 0.0143535 1.18702e-22)
(7.9953 0.0132494 3.95963e-24)
(7.99604 0.0139125 4.88411e-24)
(7.99792 0.0150163 -3.62496e-24)
(7.99766 0.0144425 0)
(7.99735 0.0144307 1.80741e-23)