/*--------------------------------*- C++ -*----------------------------------*\
| =========                 |                                                 |
| \\      /  F ield         | OpenFOAM: The Open Source CFD Toolbox           |
|  \\    /   O peration     | Version:  v2012                                 |
|   \\  /    A nd           | Website:  www.openfoam.com                      |
|    \\/     M anipulation  |                                                 |
\*---------------------------------------------------------------------------*/
FoamFile
{
    version     2.0;
    format      ascii;
    class       volScalarField;
    location    "100";
    object      k;
}
// * * * * * * * * * * * * * * * * * * * * * * * * * * * * * * * * * * * * * //

dimensions      [0 2 -2 0 0 0 0];


internalField   nonuniform List<scalar> 
12639
(
6.93664e-05
6.65964e-05
8.17684e-05
7.08403e-05
6.70735e-05
9.53972e-05
8.2535e-05
6.96059e-05
7.03129e-05
0.000107138
9.04106e-05
7.42455e-05
7.10263e-05
7.16207e-05
9.66554e-05
0.000106561
8.50745e-05
0.000110521
7.39198e-05
7.42933e-05
7.41754e-05
8.94805e-05
9.7015e-05
9.63869e-05
0.000115025
7.78242e-05
7.60912e-05
7.61137e-05
7.5551e-05
6.78878e-05
9.595e-05
0.000116488
9.16365e-05
0.000108743
7.73235e-05
7.89918e-05
7.89788e-05
7.8213e-05
7.39322e-05
6.75648e-05
8.13931e-05
0.000123862
0.000100996
0.000104544
7.88717e-05
8.00731e-05
8.20343e-05
8.14294e-05
7.99512e-05
7.77706e-05
7.10932e-05
6.66479e-05
8.6337e-05
0.000125833
0.000110346
8.6132e-05
0.000126104
8.15671e-05
8.04319e-05
8.47344e-05
8.33984e-05
8.25952e-05
7.95308e-05
7.81734e-05
6.65764e-05
6.53694e-05
6.86966e-05
8.14738e-05
0.000123622
9.78893e-05
9.26867e-05
0.000132274
8.51929e-05
8.46814e-05
8.67269e-05
8.59127e-05
8.46449e-05
8.20664e-05
8.17372e-05
7.03455e-05
7.27748e-05
7.54368e-05
6.79118e-05
9.88543e-05
0.000123723
0.00010546
0.000162328
8.8255e-05
8.60703e-05
8.92039e-05
8.77777e-05
8.46494e-05
8.78614e-05
8.44229e-05
7.90797e-05
7.42108e-05
7.72634e-05
7.18968e-05
7.20603e-05
8.14174e-05
0.000113092
0.000153847
8.95839e-05
9.05897e-05
8.75418e-05
9.03651e-05
8.78164e-05
9.13829e-05
8.80272e-05
8.07981e-05
7.44662e-05
7.66868e-05
8.1672e-05
7.76391e-05
9.67453e-05
8.63598e-05
0.000148172
0.0001692
9.26993e-05
9.38972e-05
9.24845e-05
9.28229e-05
9.09605e-05
9.47467e-05
9.15839e-05
8.08856e-05
7.69282e-05
7.4132e-05
7.94743e-05
8.41384e-05
8.54798e-05
8.61415e-05
9.70813e-05
0.000149952
0.000170455
9.5302e-05
9.67146e-05
9.36452e-05
9.56437e-05
9.39538e-05
9.58573e-05
9.83561e-05
9.51961e-05
8.33019e-05
7.92092e-05
7.79268e-05
8.11018e-05
8.41169e-05
8.80737e-05
0.000102608
9.0109e-05
0.000116557
8.90434e-05
0.000197133
9.7108e-05
9.79682e-05
0.000100576
9.85646e-05
9.98317e-05
9.78889e-05
0.000100578
0.00010175
9.92109e-05
8.52607e-05
7.91952e-05
7.88959e-05
8.37961e-05
8.71315e-05
8.91063e-05
9.00844e-05
9.76403e-05
9.34053e-05
0.00013116
9.21462e-05
0.000197317
0.000101003
0.000100875
0.000104221
0.000100608
0.000103722
0.000101571
0.000103625
0.00010555
0.00010031
0.000102138
8.60273e-05
8.791e-05
8.1723e-05
8.20472e-05
8.401e-05
9.19931e-05
9.32281e-05
0.000109598
9.41643e-05
7.59999e-05
0.000214196
0.000102643
0.000173382
0.000101512
0.000103818
0.000103361
0.000107633
0.000102315
0.000108636
0.000106007
0.000108197
0.000108266
0.000106142
0.000106548
8.89992e-05
9.08235e-05
8.42082e-05
8.70339e-05
9.45279e-05
9.58688e-05
8.26319e-05
9.48206e-05
9.58404e-05
9.40395e-05
0.000213428
0.000102117
0.000190858
0.000105184
0.000106908
0.000105796
0.000104065
0.000110423
0.000109541
0.000103758
0.000114097
0.000109631
0.000112643
0.000114683
0.000109868
9.08722e-05
9.38413e-05
8.68736e-05
8.45462e-05
9.01386e-05
9.84087e-05
9.55053e-05
9.89256e-05
9.40808e-05
0.000100976
9.89259e-05
8.13825e-05
0.000128408
0.000296513
0.000101166
0.000110097
0.000106953
0.000110304
0.000108122
0.000106798
0.000114128
0.000114319
0.000106087
0.000120195
0.000114623
0.000117889
0.000118677
0.000115596
9.52148e-05
9.67143e-05
8.98711e-05
8.89868e-05
9.34981e-05
0.000101766
0.000100403
0.000101701
9.32169e-05
0.000100961
0.000100059
8.57211e-05
0.000145676
0.000287807
0.000101099
0.000156852
0.000109679
0.000113166
0.000110665
0.000108722
0.000107369
0.000117435
0.000118313
0.000107165
0.000121675
0.000126096
0.000124833
0.000125885
0.000121268
9.81651e-05
0.000100712
9.28856e-05
9.11849e-05
9.7038e-05
0.000103434
0.000105216
0.000104403
9.63766e-05
0.000106456
0.000103241
9.09986e-05
0.000207173
0.000331663
9.1364e-05
0.000111763
0.00011738
0.00011347
0.00011114
0.00010977
0.000121611
0.000122358
0.00010836
0.000127808
0.000133934
0.000132406
0.000124513
0.00013236
0.000129144
0.000102958
0.000105025
9.58897e-05
9.54947e-05
9.98275e-05
0.000108037
0.000108554
0.000105713
0.000105938
9.24322e-05
0.000106053
0.000104801
9.1873e-05
0.000227166
0.000332078
0.000146031
0.000114887
0.000120059
0.000115354
0.000113253
0.000110751
0.000125551
0.000128439
0.000108858
0.00010978
0.000132863
0.000144365
0.000142175
0.000132864
0.000141618
0.000138902
0.00010606
0.000103967
0.000109592
9.96643e-05
9.89233e-05
0.000110433
0.000110992
0.000111726
0.000108931
0.000108548
9.65712e-05
0.000108495
0.000106739
8.6435e-05
0.000204687
0.000335523
0.000106747
0.000118142
0.000123618
0.000118066
0.000114699
0.000114541
0.000113425
0.000109538
0.000129582
0.000134066
0.000102684
0.000112161
0.000139147
0.000153351
0.000150604
0.000140495
0.000150031
0.000154069
0.000111416
0.000108867
0.000114326
0.000103335
0.000102993
0.00011457
0.000116756
0.000112543
0.000115394
0.000111125
0.000110361
0.000111288
8.9949e-05
0.00010635
0.000109465
0.0001206
0.000309542
0.000376193
0.000162949
0.000120856
0.00012525
0.000120362
0.000118748
0.000117213
0.000116836
0.00011452
0.000112122
0.000133191
0.000131204
0.000137264
0.000114733
7.55185e-05
0.000146897
0.00016565
0.00015087
0.000162807
0.000150478
0.000161364
0.000163748
0.000116198
0.000113768
0.000107194
0.000119196
0.000106276
0.000118494
0.000120295
0.000115864
0.000119193
0.000112967
0.000112936
0.000109381
9.50653e-05
0.000109316
0.000110877
0.000262263
0.000367108
0.00012402
0.000121515
0.000128369
0.000123197
0.000120836
0.000118023
0.000117814
0.000116635
0.000113758
0.000137808
0.000134618
0.000144678
0.000108774
0.000112071
0.000153185
0.000168792
0.000173115
0.000164294
0.0001726
0.000164934
0.000187874
0.000123744
0.00011769
0.000109539
0.000124032
0.000110314
0.000123294
0.000126352
0.000115486
0.000118512
0.000123473
0.000119742
0.000114869
0.000113984
9.71924e-05
0.0001103
0.000112899
0.000313322
0.000419245
0.000191107
0.000126138
0.000128861
0.000122378
0.000125816
0.000121523
0.00012023
0.000119803
0.000117573
0.000115086
0.000138203
0.000142268
0.000133288
0.000151646
0.000145212
7.79344e-05
0.000116817
0.000257409
0.000164063
0.000181654
0.000186789
0.000170084
0.000187869
0.000194825
0.000127982
0.00012596
0.000114119
0.000123331
0.000129634
0.000118721
0.000127607
0.000129422
0.000117578
0.000121146
0.000127559
0.000124208
0.000114271
0.00011728
0.000110322
0.000114501
9.70541e-05
0.000113616
0.000411023
0.0001714
0.000127555
0.000124477
0.000127342
0.000123436
0.000120819
0.000120667
0.000116708
0.000119776
0.000115782
0.000141791
0.000146242
0.000135958
0.00015888
0.000153242
9.0207e-05
0.000113926
0.000332959
0.000172082
0.000192976
0.000196735
0.000185125
0.000204495
0.000195488
0.000217511
0.000137847
0.000133076
0.000115868
0.000128622
0.000136957
0.000132714
0.00013246
0.000135617
0.000120109
0.000124278
0.000126749
0.000132733
0.000125978
0.000116828
0.00011905
0.000113428
0.000117142
9.02443e-05
0.000115159
0.000487347
0.000349004
5.39248e-05
0.000130701
0.000126482
0.000129841
0.000127957
0.000124315
0.000122742
0.000122739
0.000118099
0.000120956
0.000117853
0.000141014
0.00015078
0.000134452
0.000167935
0.000157257
0.000109877
9.55676e-05
0.00011842
0.000297645
0.000185356
0.000214358
0.000216549
0.000193857
0.000233588
0.00023825
0.000221935
0.000143825
0.000138572
0.000135448
0.000126105
0.000141494
0.000139509
0.000137751
0.000121913
0.000126309
0.000131627
0.000136372
0.000130042
0.000117187
0.000121271
0.000115227
0.000114339
0.000119027
0.00011259
0.000493199
0.000341859
8.38121e-05
0.000127403
0.000131939
0.000130402
0.000126258
0.000124286
0.00011954
0.000122693
0.00012071
0.000144583
0.000149973
0.000156559
0.000137961
0.000175059
0.000166153
0.000155037
0.000100284
0.000119137
0.000562053
0.000194531
0.00024386
0.00022355
0.000229536
0.000212977
0.000285724
0.000303448
0.000155753
0.000147049
0.00014508
0.000149637
0.000157007
0.000143774
0.000124495
0.000129679
0.000132894
0.000141165
0.000131717
0.000118944
0.000123004
0.000117249
0.000116342
0.000119914
9.87212e-05
0.000102518
0.000551472
0.000129679
0.000134397
0.000131333
0.000127185
0.000126104
0.000124098
0.000119615
0.00012316
0.000121977
0.00014305
0.000154057
0.000162379
0.000136839
0.000188156
0.000170043
0.000235904
0.000102232
0.00012091
0.000559277
0.000211355
0.000306703
0.000252993
0.000256054
0.000223539
0.000375353
0.000155872
0.000163643
0.000149777
0.00016293
0.000150935
0.000158098
0.000170683
0.000144513
0.000125705
0.000131305
0.000138171
0.000143391
0.000135656
0.000120646
0.000123339
0.000117801
0.000116709
0.000117583
0.000121769
0.000103131
0.000122457
0.000555623
0.00013027
0.000135583
0.000133798
0.000129039
0.000127331
0.000125849
0.000120771
0.000124446
0.000122136
0.000146538
0.000160432
0.000151485
0.000140124
0.000197331
0.000177296
0.000552731
0.000262185
8.08753e-05
0.000129368
0.000119484
0.00022257
0.000289747
0.000535605
0.000268072
0.00027258
0.000248819
0.000168396
0.000176747
0.000166294
0.000183358
0.000158917
0.000169171
0.000202801
0.000150989
0.000127959
0.000130262
0.000134412
0.000139159
0.000149563
0.000136737
0.00012234
0.000120809
0.000125918
0.000119614
0.000118679
0.000118892
0.000121594
9.29431e-05
0.000171394
0.000476705
0.000701419
0.000131983
0.000138234
0.000134601
0.000129366
0.00012739
0.000126084
0.000124102
0.000125589
0.000123185
0.000145467
0.000164704
0.00015441
0.000142846
0.000140071
0.000214937
0.000194139
0.000186079
0.000177659
0.000125947
0.000641873
8.83082e-05
0.000124868
0.000122002
0.000245403
0.000389887
0.00140788
0.000312269
0.000309981
0.000262158
0.000177915
0.000184133
0.000185968
0.000183093
0.000224279
0.000169112
0.000158244
0.000219207
0.000127771
0.000132425
0.000135279
0.000144203
0.000153977
0.0001402
0.000123915
0.000122512
0.000125898
0.000120162
0.000119307
0.00012657
0.000117625
9.77153e-05
0.000116774
0.000569465
0.000133613
0.000130878
0.000139173
0.000137107
0.000129084
0.000127528
0.000125198
0.000126537
0.000123583
0.000150084
0.000170872
0.000159166
0.000144706
0.000142851
0.000226275
0.000211536
0.000194179
0.000185073
0.000236227
0.000709127
0.000124557
8.70806e-05
0.000123096
0.000259563
0.000383678
0.000664351
0.00033179
0.000333172
0.000297506
0.000201583
0.000213088
0.000204911
0.000198079
0.000243375
0.000179599
0.000165972
0.000129756
0.000131772
0.000137774
0.000143549
0.000149963
0.000161478
0.000140436
0.000123715
0.000123036
0.000127486
0.000121512
0.00012084
0.000123889
0.00012019
7.70707e-05
0.000237938
0.000847872
0.000134765
0.000131863
0.000141831
0.000136961
0.000130611
0.000128451
0.000127698
0.000126345
0.000124864
0.00012385
0.00015082
0.000170918
0.000160244
0.000147911
0.000144046
0.000246142
0.000218784
0.000203024
0.000183372
0.000544174
0.000123707
0.000106934
0.000292337
0.000541281
0.00175265
0.000416777
0.000387746
0.000317814
0.000247848
0.000222698
0.000207029
0.000199473
0.000288459
0.000194172
0.000176135
0.000165762
0.000129556
0.000133531
0.000138186
0.000147314
0.000155012
0.000165038
0.000143199
0.000125333
0.000122817
0.00012459
0.00012671
0.000121342
0.000121449
0.000126858
0.000119623
8.97035e-05
0.000254888
0.000832068
0.000133846
0.000131626
0.00014278
0.000138474
0.000131517
0.000129415
0.000128662
0.000127372
0.000125606
0.000125056
0.000155483
0.000177292
0.000165814
0.000149142
0.000147052
0.000259015
0.000215337
0.000238668
0.000198521
0.000190075
0.000671118
0.000125605
0.000128583
9.19744e-05
0.000314025
0.000567316
0.00097069
0.000448606
0.000414976
0.000376037
0.000267083
0.000306349
0.000240481
0.000245988
0.000225392
0.000206609
0.000185844
0.000174579
0.000131172
0.000135185
0.000137108
0.00014104
0.00014565
0.000151312
0.000161543
0.000154673
0.000173713
0.000143305
0.000125534
0.000123876
0.000125013
0.000128122
0.00012261
0.000122373
0.000124605
0.000122071
8.06261e-05
0.000433406
0.00087846
0.000134904
0.000133525
0.000142065
0.000145824
0.000140353
0.000136685
0.000132948
0.00013062
0.000129258
0.000128369
0.000127064
0.000126531
0.000125684
0.000155908
0.000178173
0.000167605
0.000152604
0.000148202
0.000289102
0.000226711
0.000244791
0.000205434
0.000185612
0.000687173
0.000124742
0.000126036
0.000128001
0.00011648
0.000358151
0.00109823
0.0020587
0.000594971
0.000518707
0.000423158
0.000401364
0.000365677
0.000273306
0.000279189
0.000241871
0.000198938
0.000226942
0.000183
0.000131162
0.000134763
0.000138496
0.000140639
0.000147942
0.000153515
0.0001663
0.000160429
0.000179412
0.000145908
0.000127025
0.000124077
0.000126135
0.000129725
0.000123541
0.000123206
0.000126979
0.000122309
9.50073e-05
0.000359277
0.00100814
0.000133991
0.000143969
0.00014611
0.000140414
0.000137328
0.000133472
0.000131171
0.00013044
0.000128966
0.000128793
0.000127979
0.000126984
0.000126809
0.000160135
0.000174438
0.000164693
0.00015318
0.000151138
0.000307986
0.000218471
0.000262219
0.000198277
0.00018953
0.000552203
0.000125704
0.000126471
0.000142581
0.0004119
0.000371246
0.00200984
0.00113989
0.000602027
0.000519592
0.00055772
0.00030167
0.000379347
0.000275016
0.000208931
0.000240162
0.00019238
0.000133306
0.000136785
0.0001423
0.00015102
0.000157938
0.000173434
0.000165258
0.000161106
0.000190334
0.000146853
0.000127456
0.000125565
0.000130469
0.000124325
0.00012344
0.000123359
0.000129851
0.00012303
8.63685e-05
0.000636294
0.000995696
0.000135615
0.00014252
0.000148248
0.000139247
0.000137054
0.000135145
0.000133413
0.000132365
0.00013077
0.000129938
0.000129825
0.000128779
0.000127908
0.000127653
0.000159053
0.000177932
0.000168485
0.000156286
0.000152514
0.00035131
0.000301134
0.000226794
0.000285404
0.000258432
0.0002018
0.000185518
0.00089617
0.000126157
0.000124317
0.00022127
0.000490441
0.000443534
0.00213884
0.000805715
0.000622016
0.0014609
0.000302819
0.000354371
0.000678543
0.000295139
0.000223961
0.000203381
0.000264669
0.000133697
0.000137158
0.000141241
0.000144695
0.000152576
0.000159817
0.000177838
0.000170882
0.00016669
0.000198107
0.000149605
0.00012883
0.00012633
0.000132246
0.00012995
0.000125379
0.000124496
0.000125092
0.000123655
0.000123818
0.000167687
0.000513314
0.00113474
0.000143234
0.000147087
0.000151429
0.000139896
0.000138466
0.000136088
0.000134613
0.000132311
0.000131615
0.00013063
0.000129742
0.000128603
0.000127914
0.000128553
0.000162071
0.000174728
0.000166126
0.000156068
0.000381266
0.000342852
0.000242297
0.000212666
0.000304628
0.000278413
0.000190924
0.000748907
0.000125431
0.000142227
0.000644939
0.000489772
0.00138904
0.000802272
0.000360105
0.000413333
0.00170584
0.00028494
0.000343848
0.000229988
0.000213681
0.000276687
0.000135526
0.00013909
0.000143126
0.000145254
0.000156247
0.000164484
0.000185198
0.000171301
0.000168456
0.000194634
0.000211533
0.000147931
0.000129153
0.000127579
0.000132544
0.000131248
0.00012574
0.000125268
0.000124601
0.000126214
0.000120717
8.58187e-05
0.000670552
0.00113336
0.000141555
0.000145194
0.000149095
0.000153669
0.000138913
0.000137247
0.000135608
0.000134236
0.000133305
0.000131964
0.000130618
0.000131625
0.000129493
0.0001291
0.000129264
0.000158809
0.000179296
0.000169049
0.000437009
0.000359553
0.000245296
0.00021594
0.000331926
0.000269376
0.000191375
0.000989672
0.000135139
0.000111282
0.000236772
0.000875598
0.000572107
0.00244505
0.00129891
0.000391965
0.000551888
0.000941168
0.000326233
0.000374843
0.000248744
0.000307474
0.000135958
0.000138279
0.0001437
0.000157192
0.000165733
0.000185475
0.000177972
0.000174103
0.000205648
0.000220855
0.000149229
0.000128548
0.000130367
0.000127606
0.000133847
0.000131435
0.000126796
0.00012594
0.000125795
0.000127026
0.000120235
0.000152221
0.000457362
0.00120339
0.000141844
0.000145454
0.000147732
0.000151363
0.000156477
0.000140538
0.000138219
0.000137313
0.000136285
0.000135037
0.000133036
0.000131422
0.000132384
0.000130112
0.000129346
0.000129912
0.000159855
0.000174035
0.000185876
0.000166871
0.000479808
0.000407735
0.000234705
0.000210656
0.000344797
0.000286595
0.00020076
0.000649558
0.00148018
0.000132721
0.000118194
0.000117386
0.000896257
0.00152585
0.000721928
0.000572521
0.000497259
0.000618922
0.00206503
0.000340532
0.000453222
0.000248748
0.000320802
0.000135104
0.000139483
0.000146131
0.000141499
0.000155126
0.000161728
0.000170982
0.000193435
0.000177769
0.000177048
0.00020463
0.000234727
0.000151701
0.000129408
0.000128504
0.000134141
0.000132723
0.000126869
0.000126221
0.000126321
0.000130708
0.000126213
0.000105989
0.000758151
0.000143418
0.000145002
0.000148483
0.000152507
0.000155972
0.000140369
0.000139099
0.000138238
0.000136047
0.000135138
0.000133704
0.000131413
0.000132191
0.00013328
0.000130855
0.000130211
0.000130372
0.000163348
0.000173271
0.000188733
0.000169027
0.000480261
0.000396907
0.000246804
0.000219892
0.00030927
0.000294313
0.000196797
0.000873023
0.0015167
0.000133116
0.00019598
0.00156408
0.00244873
0.00092787
0.000707988
0.000567416
0.00114626
0.000387869
0.000504313
0.000268926
0.000293039
0.000368408
0.000136395
0.000138922
0.000145395
0.000141837
0.000157114
0.000161353
0.000170062
0.000191758
0.000184451
0.000183114
0.000216126
0.000241812
0.000149792
0.000130067
0.000128339
0.000129317
0.000135359
0.000132328
0.000127677
0.000127263
0.00012726
0.000129708
0.000127707
0.000122008
0.000786482
0.000142799
0.000146518
0.000150438
0.000152413
0.000158765
0.000141481
0.000139333
0.000137931
0.000136885
0.000136097
0.000134581
0.000133704
0.000132065
0.000132831
0.000133697
0.000130924
0.000130488
0.000131157
0.00016195
0.000177167
0.000183007
0.00016538
0.000581535
0.000441986
0.000265179
0.000231718
0.000210783
0.000323954
0.000286239
0.000201686
0.000516831
0.00148496
0.0014814
0.000134565
0.000104196
0.0024457
0.00155592
0.000773753
0.000789723
0.00206364
0.000457
0.000386345
0.000680447
0.000264891
0.000310494
0.000403937
0.000137854
0.000140614
0.000147647
0.000143778
0.000154779
0.00016474
0.00017463
0.000200763
0.00018752
0.000210437
0.000233771
0.000152035
0.000131239
0.000129096
0.000129743
0.000135843
0.00013335
0.000127925
0.00012756
0.000127796
0.000127822
0.000132974
0.000128345
0.000132593
0.000340772
0.000144008
0.000145766
0.000151025
0.000155251
0.000159399
0.000141636
0.000140515
0.000138797
0.000136745
0.000136295
0.000135056
0.000134546
0.000132564
0.000132343
0.000133491
0.000134434
0.000131491
0.000131192
0.000133457
0.000174862
0.000184457
0.00016611
0.000589929
0.000515213
0.00043808
0.00026164
0.000230877
0.000210805
0.000350077
0.000308657
0.000196634
0.000712872
0.00158597
0.0014946
0.000140088
0.000121058
0.000175627
0.0024046
0.00105458
0.000859586
0.00131654
0.000531321
0.000455789
0.000856551
0.000281587
0.000343166
0.000390982
0.000480676
0.00013857
0.000141333
0.000148136
0.000144538
0.000156809
0.000164506
0.000170013
0.000180651
0.000204414
0.000194596
0.000223299
0.000249014
0.000152305
0.000131288
0.000129269
0.000130543
0.000134925
0.000137372
0.000132907
0.000134128
0.000128805
0.000128421
0.000128532
0.000128762
0.000132911
0.000129423
0.000116033
0.000602183
0.00014381
0.000147015
0.000150112
0.000153517
0.000157733
0.000162967
0.000142724
0.000140486
0.000139816
0.000138441
0.000137584
0.000137121
0.000135839
0.000134907
0.00013306
0.000132931
0.000132097
0.000133882
0.000134466
0.000131844
0.000170396
0.000178617
0.000190229
0.000786397
0.00057206
0.000393956
0.000510874
0.000283862
0.000246253
0.000220461
0.000201635
0.00033839
0.000432391
0.00129337
0.00191123
0.0011334
0.000136467
0.000122549
0.00016316
0.0016752
0.00106033
0.00149487
0.00240163
0.000692564
0.00147748
0.000277263
0.000345157
0.000455345
0.000572709
0.000139991
0.000142843
0.000150105
0.000146168
0.000154467
0.000159236
0.000162179
0.000171409
0.00018355
0.000213456
0.000191684
0.000238768
0.000226468
0.000132155
0.000130083
0.000130671
0.00013563
0.000137422
0.000133516
0.000134225
0.000129103
0.000128914
0.000128801
0.00012967
0.000130426
0.000135457
0.000152
0.000374591
0.000144916
0.000146095
0.000148595
0.000151538
0.00015374
0.000159469
0.000162757
0.000142643
0.000141687
0.000140247
0.000139098
0.000137533
0.000136241
0.000135699
0.000133621
0.00013329
0.000132644
0.000133998
0.000134975
0.000133086
0.000169536
0.000178892
0.000189491
0.00085957
0.000678932
0.000418994
0.000559165
0.000290226
0.000250151
0.000224874
0.000201604
0.000369972
0.000764198
0.00136738
0.00193888
0.00125326
0.000137917
0.000122916
0.00026929
0.00265555
0.00171666
0.00236589
0.000885256
0.00236757
0.000302833
0.000384662
0.000555718
0.000451007
0.000760342
0.000139936
0.000142324
0.000149931
0.000145199
0.000154271
0.000159008
0.000164679
0.000175503
0.000167708
0.000185831
0.000205925
0.000198528
0.000255075
0.000237295
0.000132085
0.000130321
0.000131475
0.000136565
0.000134949
0.000138661
0.000133625
0.000129792
0.000129743
0.00012956
0.000130857
0.00013268
0.000134046
0.000163866
0.000707447
0.000143685
0.000146779
0.000148424
0.000151472
0.000155805
0.000158036
0.000165527
0.000141383
0.000140504
0.000139942
0.000138918
0.000138351
0.000136994
0.000135777
0.000133779
0.00013353
0.000133532
0.000134591
0.000135471
0.000134233
0.000173158
0.000177445
0.00018504
0.000195395
0.00115961
0.000683456
0.000479633
0.000559641
0.000319837
0.000267504
0.00023749
0.000217869
0.000209874
0.000381805
0.000702133
0.00174328
0.00210761
0.00169401
0.000142858
0.000135138
0.00013032
0.000269047
0.00250105
0.00152723
0.000297623
0.000371319
0.000703944
0.000508982
0.0010214
0.000141145
0.000143599
0.00014809
0.000152043
0.000146299
0.000156452
0.000161384
0.000171584
0.000180456
0.000167733
0.000193405
0.000213682
0.000200936
0.000275174
0.000252316
0.00022545
0.000132902
0.000131102
0.000131701
0.000136867
0.000135166
0.000138566
0.000134438
0.00013003
0.000130559
0.000129817
0.000129931
0.000131232
0.000132708
0.000132807
0.000114009
0.000298675
0.000709861
0.000143974
0.000146239
0.000149705
0.00015323
0.000156445
0.000160106
0.000164541
0.000142155
0.000141523
0.000140154
0.000139509
0.000138359
0.000137168
0.000136452
0.00013433
0.000134279
0.000134553
0.000134795
0.000135774
0.000135006
0.000170599
0.000181556
0.000186406
0.000196724
0.00117191
0.00177885
0.000858908
0.00048733
0.000677073
0.000307149
0.000358203
0.000263003
0.000234913
0.000222247
0.000202903
0.00044493
0.00118542
0.00166711
0.00222703
0.00169303
0.000141356
0.00013809
0.000131781
0.000377456
0.00245416
0.000336741
0.000432158
0.000772425
0.00089931
0.000613466
0.00168692
0.000141372
0.000142809
0.000148247
0.000151743
0.000144958
0.000155499
0.000161208
0.000173156
0.000182096
0.000164576
0.000189889
0.000209147
0.000286384
0.000264645
0.000232946
0.000133017
0.000131218
0.000132454
0.00013604
0.000137738
0.000139513
0.000134658
0.000130773
0.000131425
0.0001305
0.000130554
0.000132987
0.000134841
0.000137329
0.000135003
0.00037478
0.00122456
0.000143971
0.000145381
0.000147614
0.000149694
0.000152489
0.000154882
0.000158658
0.00016267
0.000167613
0.000143094
0.000141395
0.000140772
0.000139443
0.000138935
0.000137859
0.000136912
0.000136305
0.000134776
0.000134859
0.000135567
0.000135442
0.000135751
0.000136649
0.000172077
0.000179627
0.000191274
0.00181269
0.00273961
0.000856034
0.000574495
0.000678848
0.000331292
0.000279968
0.000393912
0.000245294
0.000216325
0.000200208
0.000483897
0.00117698
0.00224274
0.00214927
0.000142318
0.000138541
0.000152671
0.000695544
0.000229607
0.00035575
0.000463672
0.00101303
0.00142669
0.000654666
0.00262081
0.000140567
0.000143464
0.000146891
0.000150016
0.000153549
0.00014535
0.000157264
0.000159521
0.000169943
0.000178079
0.00018241
0.000164069
0.000194646
0.000216135
0.000313466
0.000250281
0.000229878
0.000133794
0.000131959
0.000132763
0.000136108
0.000137856
0.000138809
0.000134334
0.000135612
0.00013102
0.000131113
0.000132565
0.00013376
0.000135031
0.000136002
0.000164135
0.000127788
0.00066536
0.00121964
0.000145053
0.000145905
0.000146864
0.000148756
0.000151206
0.000153359
0.000154952
0.00015978
0.000164262
0.000166735
0.000142768
0.000142017
0.000140829
0.000140037
0.000139059
0.000137842
0.000137303
0.000136627
0.000135327
0.000135736
0.000135452
0.000137296
0.000135737
0.000136275
0.000138156
0.000175395
0.000168708
0.000182786
0.000188011
0.00254966
0.00114653
0.000590433
0.000823689
0.000373463
0.000315212
0.000265775
0.0004532
0.000236675
0.000206205
0.000222941
0.000191905
0.000564732
0.00159896
0.00230442
0.00219343
0.00014454
0.000123437
0.000141509
0.000888647
0.000327519
0.000400311
0.000454647
0.000570089
0.000891911
0.00158859
0.000141162
0.000142471
0.000147173
0.000150074
0.000153584
0.000144412
0.000155477
0.000160918
0.000171037
0.00016659
0.000178326
0.000188461
0.000201982
0.000209854
0.000310476
0.00025878
0.000240779
0.000133965
0.000132521
0.000132051
0.000133571
0.000137107
0.000139295
0.00013494
0.000136082
0.000131616
0.000131877
0.000133308
0.000135958
0.000137776
0.000137252
0.000239961
0.000132048
0.000711323
0.0016752
0.000145087
0.000147055
0.000149198
0.000150411
0.000153522
0.000156362
0.000162114
0.000157987
0.00014338
0.000141534
0.000140563
0.000139615
0.000138724
0.000138275
0.000137132
0.000136626
0.000135829
0.000137168
0.00013692
0.000138413
0.00013628
0.000136508
0.000141088
0.000174343
0.000166019
0.00017847
0.00180907
0.00102283
0.000719811
0.000845201
0.000411902
0.000341311
0.000282069
0.00024544
0.000502216
0.000200322
0.000215134
0.000188816
0.000647172
0.00207881
0.00131833
0.00238377
0.00216432
0.000145379
0.000131899
0.000141879
0.000697144
0.000229007
0.000405169
0.00051913
0.000651533
0.00116495
0.00254732
0.000140397
0.000143033
0.000146211
0.000148693
0.000151858
0.000144922
0.000156436
0.000159341
0.000167973
0.000174501
0.000165588
0.000182856
0.000187752
0.000204639
0.000219419
0.000279507
0.00034533
0.000233205
0.000134586
0.000133064
0.000132706
0.000133886
0.000137307
0.00013925
0.000135526
0.000136789
0.000131908
0.000132699
0.000134479
0.000136909
0.000138083
0.000161144
0.000434722
0.000137013
0.00109629
0.00152731
0.000146019
0.000144216
0.000148052
0.000151018
0.000152206
0.000154744
0.000161107
0.000158328
0.000142683
0.000141575
0.000140909
0.000139682
0.000138848
0.000138159
0.000137482
0.000137053
0.000136996
0.000138266
0.000140377
0.000136778
0.000137009
0.00014274
0.000170873
0.000162747
0.000167087
0.000179011
0.00270954
0.00131579
0.000770554
0.00107737
0.000479882
0.000387217
0.000597944
0.000193356
0.000183564
0.00221696
0.00164025
0.00270682
0.00236838
0.000143786
0.000125012
0.000142952
0.000866358
0.000352785
0.000385853
0.000476382
0.000607387
0.000824313
0.00113142
0.00179943
0.000140834
0.000142641
0.000146563
0.000148858
0.000151854
0.000144583
0.00015558
0.000160686
0.000168095
0.000174846
0.000163274
0.000134836
0.0001332
0.000133688
0.00013288
0.000134559
0.000138047
0.00013863
0.00014007
0.000135539
0.00013704
0.000132685
0.000133583
0.000135809
0.00013475
0.000139729
0.000139984
0.000233955
0.000598427
0.000135297
0.00106587
0.00201188
0.000145608
0.000143995
0.000147607
0.000149547
0.000151032
0.000153316
0.000156997
0.000142728
0.000142037
0.000140633
0.000140126
0.000139239
0.000138482
0.00013788
0.000137369
0.000137049
0.000137404
0.000138068
0.00014044
0.00014132
0.00014272
0.000137892
0.000137598
0.000143332
0.000171188
0.000160522
0.000164421
0.00195941
0.000959016
0.00132465
0.000560774
0.00042913
0.000680992
0.0026504
0.00160059
0.00278584
0.000141005
0.000156454
0.00125662
0.000612576
0.000262153
0.000527062
0.000690231
0.000860282
0.0017795
0.00272539
0.000141714
0.000143549
0.000147744
0.000145419
0.000150383
0.000153652
0.000157313
0.000159406
0.00016507
0.000162947
0.000134843
0.000133816
0.000134186
0.000133747
0.000134897
0.000137717
0.000138764
0.000140075
0.000136082
0.00013672
0.000133505
0.000138044
0.000136012
0.000140344
0.000140241
0.000138073
0.00020031
0.000469002
0.00013866
0.00135396
0.00198369
0.000144607
0.00014633
0.000143283
0.000148398
0.000149476
0.000151645
0.000153926
0.000155332
0.000158365
0.000142173
0.000141497
0.000140953
0.00013989
0.000139259
0.000138473
0.000137918
0.000137611
0.00013749
0.000138833
0.000139897
0.000141362
0.000144567
0.000145225
0.000139158
0.000138159
0.000138066
0.00014615
0.000161361
0.00277765
0.000849169
0.00126257
0.00200475
0.000683214
0.000581611
0.00049863
0.00271655
0.00195234
0.00290757
0.000118375
0.000143295
0.000139155
0.00138613
0.00069998
0.000381338
0.000636924
0.00110952
0.00254215
0.000141558
0.000143243
0.000148288
0.000145188
0.000150534
0.000153176
0.000156005
0.000160479
0.000135547
0.000134454
0.000134171
0.000134735
0.000134157
0.000134398
0.000135466
0.000134883
0.000138082
0.000139402
0.00014082
0.000136038
0.000137202
0.000138267
0.000136206
0.000141033
0.000142687
0.00013809
0.000330011
0.00060054
0.000180906
0.00128947
0.00241868
0.000143993
0.000145815
0.000142834
0.000147538
0.00014918
0.000151407
0.000152419
0.000155266
0.000156638
0.00014219
0.000141634
0.000140567
0.000139608
0.000140194
0.000139157
0.000138918
0.000138281
0.000137801
0.000140063
0.000140461
0.00014266
0.000146111
0.000149721
0.0001406
0.000139398
0.000138663
0.000144684
0.0001595
0.00103882
0.00181786
0.00282186
0.000863253
0.000727425
0.00310486
0.00253976
0.00176162
0.000132017
0.000126787
0.000194248
0.00125336
0.000899833
0.000339283
0.000742441
0.00176804
0.000940518
0.00014233
0.000144044
0.000147443
0.000149709
0.000146193
0.000151962
0.000154367
0.000157034
0.000135094
0.000134737
0.000135268
0.000135012
0.000135468
0.000135855
0.000135527