/*--------------------------------*- C++ -*----------------------------------*\
| =========                 |                                                 |
| \\      /  F ield         | OpenFOAM: The Open Source CFD Toolbox           |
|  \\    /   O peration     | Version:  v2012                                 |
|   \\  /    A nd           | Website:  www.openfoam.com                      |
|    \\/     M anipulation  |                                                 |
\*---------------------------------------------------------------------------*/
FoamFile
{
    version     2.0;
    format      ascii;
    class       volScalarField;
    location    "100";
    object      nut;
}
// * * * * * * * * * * * * * * * * * * * * * * * * * * * * * * * * * * * * * //

dimensions      [0 2 -1 0 0 0 0];


internalField   nonuniform List<scalar> 
12639
(
0.000228464
0.000224281
0.000238026
0.000227551
0.000225107
0.000248476
0.000237186
0.000225148
0.000226592
0.000252534
0.000241363
0.000228273
0.000226444
0.000227572
0.000249346
0.000250947
0.00023648
0.000251359
0.00022672
0.000228092
0.000228156
0.000243463
0.000246568
0.000242175
0.00025207
0.000228969
0.000228122
0.000228418
0.000228434
0.000227465
0.00024473
0.000251087
0.000238024
0.000250075
0.000227508
0.000228926
0.000229378
0.000229042
0.000227787
0.00022497
0.000235116
0.000252686
0.000241964
0.00024688
0.000228465
0.000228876
0.000230109
0.000229864
0.000229223
0.000228554
0.000227474
0.000223394
0.000237142
0.000251903
0.000248449
0.000232809
0.000251149
0.000229253
0.000228194
0.000230626
0.000230094
0.00022983
0.000229008
0.000228525
0.000221917
0.000223203
0.000224217
0.000232945
0.000250449
0.000241898
0.000235643
0.000251565
0.000230795
0.000230316
0.000230853
0.000230645
0.0002302
0.000229463
0.000229313
0.000224286
0.000228482
0.000229165
0.000221978
0.000241149
0.000249155
0.000241131
0.000258304
0.000231317
0.000230184
0.000231378
0.000231021
0.000230024
0.000230876
0.000229812
0.000229945
0.000228475
0.000229325
0.000224047
0.000224026
0.000229451
0.000243014
0.000255231
0.00023158
0.000231702
0.000230569
0.00023156
0.00023054
0.000231451
0.000230591
0.000230061
0.000227931
0.000228468
0.000230102
0.000226964
0.000236921
0.000230064
0.000252718
0.000257601
0.000232252
0.000232331
0.000232219
0.000232054
0.000231203
0.000232092
0.000231365
0.000229555
0.000228629
0.000228085
0.000229197
0.000230612
0.000230795
0.000230387
0.000234784
0.000251961
0.000256891
0.000232737
0.000232893
0.000232241
0.000232553
0.000231685
0.000232462
0.00023251
0.00023202
0.000230078
0.000229276
0.000229116
0.000229676
0.000230275
0.00023132
0.00023811
0.000232159
0.000241653
0.000230493
0.000260216
0.000233023
0.000233315
0.000233559
0.000233639
0.000233357
0.000232481
0.00023318
0.000233172
0.000232674
0.000230543
0.000229366
0.000229426
0.000230322
0.000230916
0.000231355
0.000231841
0.00023484
0.000232917
0.000245291
0.000231604
0.000259117
0.000233739
0.000233809
0.000234234
0.000234019
0.000233978
0.000233291
0.000233751
0.000233771
0.000231307
0.00023347
0.000230787
0.000231101
0.000230008
0.000230122
0.000230494
0.000231927
0.000232209
0.000239617
0.000232647
0.000224001
0.000257822
0.000235082
0.000258092
0.000233874
0.000234218
0.000234303
0.000234816
0.000234196
0.000234793
0.000234027
0.00023429
0.000234454
0.000232398
0.000233919
0.000231464
0.000231739
0.000230583
0.000231219
0.00023244
0.000232756
0.000223883
0.000232568
0.000232679
0.000233082
0.000257558
0.000234596
0.00025854
0.000234514
0.000234773
0.000234703
0.000234478
0.000235291
0.000235192
0.000234641
0.000235309
0.000234362
0.000235063
0.000235491
0.000231493
0.000231994
0.000232375
0.00023117
0.000230343
0.000231846
0.0002332
0.000232639
0.000233429
0.000231255
0.000235203
0.000233468
0.000224702
0.000246775
0.000262042
0.000234179
0.00024844
0.000234854
0.000235336
0.000235138
0.000234974
0.000235896
0.000235928
0.000235102
0.00023629
0.000234808
0.00023606
0.000235765
0.000232892
0.000232864
0.00023309
0.00023169
0.000231172
0.000232485
0.000233773
0.00023362
0.000233869
0.000224889
0.000234138
0.000233197
0.000227953
0.0002489
0.00026175
0.000233714
0.000254548
0.000235313
0.000235837
0.000235533
0.000235288
0.000235131
0.000236449
0.000236553
0.00023549
0.000236647
0.000237121
0.000237125
0.000236366
0.000232451
0.00023352
0.00023385
0.000232227
0.000231021
0.000233122
0.000234164
0.000234416
0.000234457
0.000227985
0.000238449
0.000234557
0.000229872
0.000257804
0.000262812
0.000241291
0.000235636
0.000236493
0.000235998
0.000235724
0.000235571
0.000237096
0.000237262
0.0002356
0.000237481
0.000238299
0.000238403
0.000234963
0.000237398
0.000229463
0.000234276
0.000234736
0.000232594
0.000231899
0.000233348
0.00023504
0.000234971
0.000234585
0.000234709
0.000225083
0.000236524
0.000234117
0.000230151
0.000258323
0.000262995
0.000255714
0.000236168
0.000236937
0.000236334
0.000236073
0.000235768
0.000237711
0.000238053
0.000235932
0.000235789
0.000237832
0.000240107
0.000239469
0.000233982
0.000237125
0.00023117
0.00023486
0.000234097
0.000235511
0.000233201
0.00023175
0.00023538
0.000235733
0.000235519
0.000235165
0.0002352
0.00022661
0.000237168
0.000234585
0.000228392
0.00025626
0.000263352
0.000245688
0.000236675
0.000237468
0.000236757
0.000236275
0.000236337
0.000236204
0.000235565
0.00023831
0.000238754
0.000233679
0.000236421
0.000238865
0.000241184
0.000239781
0.000234932
0.000237905
0.000229882
0.000235666
0.000234672
0.000236294
0.000233717
0.000232635
0.000236122
0.000236702
0.000235668
0.000236151
0.000235516
0.000235548
0.000239291
0.000220905
0.000233753
0.000235566
0.000240622
0.000263138
0.000264127
0.000259399
0.000237115
0.000237752
0.000237102
0.000236913
0.000236698
0.000236708
0.000236438
0.000236125
0.000238813
0.000238593
0.000239391
0.000237272
0.000221236
0.000239815
0.000242876
0.000240534
0.000240338
0.000233654
0.00023665
0.000231652
0.000235971
0.000235495
0.000234295
0.000237035
0.000232212
0.000236925
0.000237308
0.00023623
0.000236787
0.000235888
0.000235928
0.000236441
0.000224046
0.000234839
0.000235587
0.000260081
0.000264122
0.000251224
0.000237239
0.000238209
0.000237564
0.000237253
0.000236866
0.000236908
0.000236769
0.000236413
0.000239474
0.000239087
0.000240317
0.000235215
0.000237451
0.000240703
0.000241922
0.000243669
0.000242337
0.000237856
0.000234637
0.000231354
0.000237075
0.000236041
0.000234472
0.000237632
0.000229544
0.000237682
0.000238183
0.000236268
0.000236636
0.000237575
0.000236799
0.000236273
0.000239034
0.000226423
0.000234798
0.000236012
0.000262366
0.000264651
0.000262163
0.000237928
0.000238315
0.000237475
0.000237951
0.000237396
0.000237223
0.000237224
0.000236975
0.000236693
0.000239571
0.000240075
0.00023894
0.000241145
0.000240429
0.00022206
0.000237382
0.000259228
0.000241771
0.000242453
0.000244897
0.000242907
0.000238167
0.000233379
0.000237757
0.000237595
0.000234526
0.000236276
0.000238481
0.000230904
0.000238437
0.000238694
0.00023665
0.000237093
0.000238198
0.000237512
0.000236139
0.000236667
0.000234677
0.000239143
0.000225305
0.000236107
0.000264943
0.000259077
0.000238167
0.000237824
0.000238205
0.0002377
0.000237354
0.000237394
0.000236893
0.000237316
0.000236993
0.000240077
0.000240641
0.000239335
0.000242045
0.000241441
0.000229327
0.000236046
0.000262537
0.000242842
0.000241694
0.000245764
0.000244712
0.00023701
0.000240108
0.000234443
0.000238831
0.000237723
0.000232479
0.000234152
0.000239388
0.000229901
0.000239119
0.000239534
0.000237023
0.000237562
0.000237954
0.000239086
0.000237768
0.000236575
0.000236961
0.000235657
0.0002396
0.000222193
0.000236272
0.000265132
0.000265148
0.000229126
0.000238629
0.00023813
0.000238553
0.000238323
0.000237872
0.000237658
0.000237703
0.00023723
0.000237553
0.000237375
0.000240006
0.000241237
0.000239152
0.000242996
0.000241987
0.000244951
0.000226447
0.000237547
0.000260842
0.000244187
0.000243194
0.000247169
0.000245546
0.000236236
0.000238826
0.000240159
0.000239759
0.000238707
0.000234723
0.000232699
0.000240143
0.000231552
0.000239915
0.000237359
0.000237927
0.000238709
0.000239562
0.000238379
0.00023659
0.000237302
0.000236302
0.000235909
0.000239731
0.000225662
0.000265585
0.000264481
0.00024257
0.000238308
0.000238881
0.000238693
0.000238171
0.000237958
0.000237487
0.000237816
0.000237598
0.000240498
0.000241178
0.000241939
0.000239656
0.000243951
0.000243019
0.000251206
0.000231139
0.000237526
0.000265261
0.000245222
0.000242753
0.000245028
0.000248793
0.000247513
0.000237588
0.000240656
0.000240854
0.000238946
0.000234325
0.000241138
0.000232133
0.000240709
0.000237736
0.000238415
0.000238826
0.000240262
0.000238629
0.000236876
0.000237584
0.000236607
0.000236443
0.000239511
0.000219981
0.000269599
0.000263459
0.00023865
0.000239235
0.000238864
0.000238341
0.000238209
0.000237993
0.000237627
0.00023798
0.00023786
0.00024032
0.000241709
0.000242664
0.000239544
0.000245195
0.000243526
0.000260698
0.000231547
0.000237942
0.000265358
0.00024679
0.000248571
0.000246068
0.000250242
0.000248415
0.000247222
0.000240115
0.000241913
0.000235945
0.000234045
0.000241576
0.000241892
0.000233959
0.000240826
0.000237986
0.000238715
0.000239601
0.000240462
0.000239193
0.000237145
0.000237622
0.000236722
0.000236521
0.000236768
0.000240155
0.000224113
0.000261207
0.000264355
0.000238772
0.000239448
0.000239224
0.000238613
0.00023842
0.000238282
0.00023776
0.000238211
0.000237997
0.000240793
0.000242473
0.000241408
0.00024001
0.000246281
0.000244351
0.000266197
0.000260818
0.00022284
0.000240371
0.000237341
0.000247875
0.000246189
0.000264197
0.00024845
0.00025205
0.000250586
0.000240069
0.000242924
0.000235207
0.000235531
0.000242533
0.000243172
0.000235794
0.000241642
0.000238319
0.000238642
0.000239139
0.000239657
0.000241317
0.000239397
0.000237421
0.000237162
0.000238014
0.000236997
0.000237081
0.000236968
0.000239108
0.000215431
0.00027817
0.000263748
0.000266628
0.000239032
0.000239824
0.000239371
0.000238693
0.000238468
0.000238379
0.000238222
0.000238363
0.000238173
0.000240681
0.000243007
0.000241796
0.000240363
0.000240049
0.000247749
0.000246066
0.000245278
0.00024445
0.000250169
0.000266554
0.000225098
0.000239084
0.000237947
0.000249744
0.000254346
0.000295451
0.000250464
0.000253899
0.000251632
0.000236686
0.00024064
0.000242678
0.000244206
0.0002382
0.000243535
0.000242601
0.000237467
0.000238313
0.000238983
0.000239356
0.000240359
0.000241839
0.000239886
0.000237645
0.000237434
0.000237969
0.000237146
0.000237093
0.000241383
0.000236518
0.000220101
0.000277002
0.000263471
0.000239259
0.000238915
0.000239996
0.000239727
0.000238752
0.00023861
0.000238455
0.000238566
0.000238327
0.000241279
0.000243715
0.000242376
0.000240649
0.000240436
0.000248912
0.000247721
0.000246164
0.000245254
0.000264171
0.000266283
0.000239114
0.0002273
0.00023821
0.000250942
0.000253927
0.000270154
0.000252765
0.000256086
0.000254197
0.000236074
0.00023833
0.000243354
0.000245781
0.000239657
0.000244668
0.0002435
0.000238597
0.000238907
0.000239712
0.000240287
0.000241138
0.000242836
0.000240011
0.000237601
0.00023754
0.0002382
0.000237375
0.000237412
0.000239297
0.000237448
0.000204272
0.000295153
0.000256306
0.00023945
0.000239077
0.000240364
0.000239747
0.000238968
0.000238723
0.000238713
0.000238603
0.000238495
0.000238265
0.000241405
0.000243755
0.00024254
0.000241069
0.000240629
0.000250448
0.000248478
0.000247051
0.000245108
0.000277731
0.000238672
0.000235999
0.000253369
0.000264003
0.000298959
0.000257504
0.000258616
0.000255615
0.000240262
0.000249264
0.000236732
0.000245325
0.000242922
0.000245844
0.000244596
0.000243486
0.000238526
0.000239146
0.00023983
0.000240817
0.000241762
0.000243169
0.000240406
0.000237854
0.000237543
0.000237776
0.000238055
0.000237422
0.000237579
0.00024055
0.000237185
0.000217344
0.000281885
0.000259135
0.000239345
0.000239073
0.00024052
0.000239979
0.000239166
0.000238915
0.000238873
0.000238807
0.000238645
0.000238469
0.000241994
0.000244466
0.000243201
0.00024127
0.000241027
0.000251743
0.000248198
0.000250164
0.000246659
0.000245815
0.00027125
0.00023901
0.000238652
0.000233236
0.000254892
0.000265557
0.000282148
0.00025978
0.00026079
0.000259076
0.000242695
0.000244306
0.000249666
0.00024116
0.000247721
0.000247258
0.000245641
0.000244472
0.000238757
0.000239377
0.000239675
0.000240208
0.000240687
0.000241323
0.000242608
0.000241697
0.000244251
0.000240509
0.000237905
0.000237734
0.000237869
0.000238271
0.000237648
0.000237725
0.000239304
0.000237931
0.000209458
0.000286624
0.000256921
0.000239522
0.000239362
0.00024045
0.000240922
0.000240235
0.000239771
0.000239378
0.00023909
0.000239005
0.000238946
0.000238817
0.000238778
0.000238678
0.000242098
0.000244591
0.000243451
0.000241714
0.000241212
0.000253805
0.000249249
0.000250737
0.00024736
0.000245383
0.000269794
0.000239342
0.000239036
0.000238724
0.000250445
0.000257614
0.000285379
0.000301522
0.000268019
0.00026509
0.000261699
0.000252026
0.000247968
0.000251518
0.000240099
0.00024932
0.000246869
0.000248819
0.000245452
0.000238721
0.000239264
0.000239839
0.000240138
0.000241055
0.000241688
0.000243146
0.000242415
0.000244841
0.000240857
0.000238135
0.000237808
0.000238058
0.000238511
0.000237771
0.000237881
0.000240328
0.000237859
0.000220896
0.000289069
0.000255596
0.000239469
0.00024073
0.000241004
0.000240281
0.000239889
0.000239508
0.000239239
0.00023917
0.000239006
0.000239063
0.000239007
0.000238941
0.000239028
0.000242628
0.000244217
0.000243163
0.000241823
0.000241592
0.000255306
0.000248564
0.000252145
0.000246695
0.000245822
0.000278204
0.000239637
0.000242292
0.000255059
0.000261363
0.000258065
0.000301436
0.000286637
0.000268874
0.000265796
0.000266316
0.000252657
0.000252401
0.000251711
0.000247916
0.000250217
0.000246404
0.000239036
0.000239551
0.000240352
0.000241449
0.000242246
0.000244016
0.000242983
0.000242539
0.00024607
0.000241027
0.000238235
0.000238034
0.000238628
0.000237953
0.000237989
0.0002384
0.000241719
0.000237879
0.000212428
0.000290457
0.000258428
0.00023972
0.000240568
0.000241299
0.000240145
0.000239901
0.000239729
0.000239553
0.000239426
0.00023928
0.00023918
0.000239211
0.000239116
0.000239084
0.000239302
0.000242544
0.000244656
0.00024365
0.000242217
0.000241795
0.000257723
0.000254912
0.000249359
0.000253834
0.000251934
0.000247095
0.000245459
0.000273247
0.000239226
0.000237905
0.000264947
0.000265009
0.000261878
0.000302095
0.000276308
0.000270074
0.000295566
0.000254056
0.000253901
0.000270251
0.00025322
0.000249198
0.000247533
0.000252045
0.000239079
0.00023957
0.000240147
0.00024069
0.000241737
0.000242594
0.000244462
0.000243639
0.000243223
0.000246829
0.000241358
0.000238449
0.000238189
0.000238883
0.000238582
0.000238116
0.000238139
0.000238965
0.000238661
0.000238031
0.000252866
0.000290863
0.000254016
0.000240698
0.000241181
0.000241694
0.000240274
0.000240124
0.000239906
0.000239763
0.000239478
0.000239414
0.000239366
0.000239323
0.000239262
0.000240122
0.000239412
0.000242938
0.000244353
0.000243418
0.000242227
0.000259671
0.000257523
0.000250671
0.000248139
0.000255224
0.000253441
0.000246063
0.000276818
0.000240094
0.000256649
0.00027168
0.000264134
0.000291221
0.000275845
0.00025676
0.000257567
0.000298702
0.000253038
0.000256061
0.000249958
0.000248508
0.00025345
0.000239342
0.000239844
0.000240395
0.000240702
0.000242191
0.000243151
0.000245268
0.000243672
0.000243551
0.00024634
0.000248213
0.000241068
0.00023854
0.000238381
0.000238956
0.000238794
0.000238231
0.00023825
0.000238261
0.000239868
0.000236787
0.000213544
0.000284334
0.00025503
0.000240513
0.000240968
0.000241475
0.00024201
0.000240234
0.000240071
0.000239889
0.000239767
0.00023965
0.000239514
0.000239448
0.000239506
0.000239387
0.000240352
0.000239713
0.000242578
0.000244914
0.000243796
0.000262367
0.000258603
0.000250985
0.000248501
0.000256992
0.000252836
0.00024616
0.000272219
0.000242632
0.000236104
0.000275566
0.000279574
0.00026757
0.000304305
0.000289351
0.000258979
0.000265217
0.000281235
0.000255739
0.000258117
0.000251491
0.000255488
0.000239412
0.000239732
0.000240466
0.000242313
0.000243362
0.000245216
0.000244439
0.000244204
0.000247417
0.000249019
0.000241202
0.000238491
0.000238722
0.000238459
0.000239154
0.000238866
0.000238384
0.000238401
0.000238581
0.000240005
0.000236361
0.000251004
0.00030537
0.000254811
0.000240616
0.000241055
0.000241355
0.000241762
0.000242359
0.000240467
0.000240194
0.000240147
0.000240021
0.000239914
0.000239669
0.000239633
0.000239667
0.000239589
0.000240309
0.00023973
0.000242745
0.000244362
0.000245626
0.000243576
0.000264625
0.000261218
0.000250148
0.000248076
0.00025786
0.000254136
0.000247127
0.000301421
0.000247131
0.000243523
0.000239879
0.000242908
0.000279513
0.000293305
0.000273154
0.000268188
0.00026399
0.00026855
0.000301428
0.000256988
0.000262239
0.000251569
0.000256766
0.000239314
0.000239904
0.000240791
0.000240173
0.000241964
0.000242848
0.000243945
0.000246064
0.000244498
0.00024467
0.000247163
0.000250256
0.000241523
0.000238643
0.000238612
0.000239243
0.000239071
0.000238474
0.000238547
0.000238841
0.000242092
0.000239406
0.000226384
0.000286967
0.000240854
0.000241047
0.000241528
0.000241945
0.000242348
0.000240511
0.000240361
0.000240313
0.000240032
0.000239971
0.000239795
0.000239767
0.000239723
0.000239805
0.000239735
0.000240667
0.000239986
0.000243178
0.000244341
0.000245989
0.000243865
0.000264738
0.000260708
0.000251256
0.000249001
0.000255658
0.000254745
0.000246811
0.000283857
0.000249639
0.000243662
0.000279987
0.000293298
0.000304266
0.000279713
0.000273256
0.000267549
0.000286216
0.000259611
0.000264811
0.000253092
0.000254928
0.000259409
0.000239525
0.00023985
0.000240697
0.000240233
0.000242162
0.000242706
0.000243733
0.000245975
0.000245261
0.00024529
0.000248265
0.000250748
0.000241267
0.000238775
0.00023865
0.000238707
0.000239427
0.000239074
0.000238611
0.000238755
0.000239068
0.00024185
0.000240183
0.000237634
0.000281289
0.000240843
0.000241298
0.000241797
0.000242009
0.000242712
0.000240691
0.000240447
0.000240314
0.000240182
0.000240122
0.000239912
0.000239834
0.000239954
0.000239909
0.000239929
0.000239969
0.000240379
0.000241492
0.000243061
0.000244808
0.000245428
0.000243488
0.000269032
0.00026306
0.000252719
0.000250054
0.000248224
0.000256648
0.000254241
0.000247361
0.000345729
0.000247543
0.000256643
0.00024529
0.000223124
0.00030437
0.000293588
0.00027555
0.000276125
0.000301621
0.000262746
0.000259993
0.000271827
0.000252647
0.000256031
0.000261582
0.000239731
0.000240095
0.000241004
0.000240502
0.000241898
0.000243101
0.000244252
0.000246927
0.000245796
0.000247736
0.000249863
0.000241563
0.000238951
0.00023878
0.000238826
0.000239534
0.000239246
0.000238715
0.00023898
0.000238772
0.000239393
0.000244075
0.000240253
0.0002543
0.000370336
0.000241048
0.000241266
0.000241931
0.000242421
0.000242849
0.000240768
0.000240639
0.000240466
0.000240197
0.000240179
0.000240021
0.000239981
0.000239958
0.000240214
0.000239998
0.000240069
0.000240306
0.000240704
0.000242668
0.000244652
0.000245668
0.00024364
0.000269294
0.000266319
0.000262963
0.000252574
0.000250082
0.000248346
0.000258308
0.000255864
0.000246936
0.000311857
0.000247517
0.000256797
0.000246656
0.000239978
0.000273676
0.000304027
0.000283275
0.000278349
0.000289781
0.000266292
0.000263292
0.000278156
0.000253875
0.000258095
0.000261041
0.000264912
0.000239875
0.000240229
0.000241113
0.000240644
0.000242188
0.000243092
0.000243736
0.00024493
0.000247504
0.000246502
0.000248981
0.000251113
0.000241637
0.000239015
0.000238863
0.000238951
0.000239445
0.000239743
0.000239237
0.00023935
0.000238845
0.000239199
0.000238957
0.000239804
0.000244327
0.000241068
0.000233528
0.000325421
0.000241068
0.000241483
0.000241881
0.000242261
0.000242731
0.000243313
0.00024094
0.000240672
0.000240602
0.000240455
0.000240338
0.000240308
0.000240146
0.000240094
0.00024017
0.000240395
0.000240474
0.000240146
0.000240185
0.000241446
0.000244182
0.000245126
0.000246325
0.000275894
0.000268698
0.000260766
0.000266214
0.000254293
0.000251437
0.000249287
0.000247517
0.000257747
0.000373957
0.000270353
0.000232353
0.000301633
0.000245886
0.000239861
0.0002642
0.000295092
0.000283437
0.000292414
0.000303816
0.00027277
0.000292371
0.00025332
0.000257923
0.000264225
0.000268992
0.000240078
0.000240444
0.000241385
0.000240878
0.000241927
0.000242498
0.000242838
0.000243923
0.000245183
0.000248338
0.000246095
0.000250248
0.000249495
0.000239159
0.000239
0.000239035
0.000239584
0.000239797
0.000239349
0.000239415
0.000238977
0.000239517
0.000239147
0.000240821
0.000241535
0.000247329
0.000264522
0.00034937
0.000241253
0.000241406
0.000241695
0.000242124
0.000242376
0.00024304
0.000243412
0.00024097
0.000240852
0.000240685
0.000240573
0.000240403
0.000240258
0.000240239
0.000240307
0.000240629
0.000241114
0.000240277
0.000240346
0.000241992
0.000244229
0.000245288
0.000246417
0.000278112
0.000272468
0.000262197
0.000268279
0.000254983
0.000251994
0.000249894
0.00024767
0.000259686
0.000332718
0.000265309
0.000237565
0.000287614
0.000246223
0.000241734
0.000295119
0.000305641
0.000295458
0.000303826
0.000279407
0.000303775
0.00025514
0.000260184
0.000268709
0.000263778
0.000275418
0.000240119
0.000240417
0.000241413
0.000240807
0.000241946
0.000242529
0.00024318
0.000244419
0.000243548
0.000245401
0.000247546
0.000246776
0.000251639
0.000250446
0.000239212
0.000239113
0.000239172
0.000239719
0.000239529
0.00023998
0.000239414
0.000239108
0.000239822
0.000239361
0.000241493
0.000243478
0.000246086
0.000265775
0.000335502
0.000241122
0.000241531
0.000241734
0.000242144
0.000242658
0.000242916
0.000243793
0.000240833
0.000240742
0.000240681
0.000240578
0.000240532
0.000240385
0.00024033
0.000240608
0.000241058
0.000241535
0.000240438
0.000240417
0.000243406
0.00024473
0.000245203
0.000245985
0.00024709
0.000285413
0.000272545
0.000265076
0.000268441
0.000257016
0.000253392
0.000250994
0.000249312
0.000248573
0.000260421
0.000331567
0.000248601
0.000226087
0.000269663
0.000246844
0.000246132
0.000245593
0.000294354
0.000304713
0.000293044
0.000254684
0.000259128
0.000274152
0.000266344
0.000282821
0.000240295
0.00024061
0.000241224
0.000241706
0.00024099
0.000242247
0.000242841
0.000244096
0.00024496
0.000243635
0.00024624
0.00024825
0.000246965
0.000253169
0.000251646
0.000249344
0.000239355
0.000239262
0.00023929
0.000239811
0.000239602
0.00024002
0.000239546
0.00023924
0.000240339
0.000239622
0.000239345
0.000241476
0.000243049
0.000247253
0.000245835
0.000291919
0.000328768
0.000241187
0.000241482
0.00024193
0.000242387
0.000242782
0.000243217
0.000243737
0.000240962
0.000240892
0.000240741
0.000240677
0.000240594
0.00024047
0.000240483
0.000240942
0.000241481
0.000242747
0.000240649
0.000240595
0.000243747
0.000244473
0.000245726
0.000246221
0.000247298
0.000285589
0.000296436
0.000278079
0.00026542
0.000272649
0.000256206
0.000259357
0.000253075
0.000250815
0.000249735
0.000247931
0.000263624
0.000316624
0.000254082
0.000227025
0.000268568
0.000247473
0.000247672
0.000252718
0.000303354
0.000304263
0.000257239
0.000262446
0.000276858
0.000279738
0.000270652
0.000295017
0.00024037
0.00024056
0.000241323
0.000241746
0.000240877
0.000242209
0.000242886
0.000244384
0.00024528
0.000243313
0.000246044
0.000247776
0.000254208
0.000252689
0.000249966
0.000239439
0.0002394
0.000239426
0.000239732
0.000239939
0.000240173
0.000239623
0.000239398
0.000240738
0.000239826
0.000239613
0.000243085
0.00024465
0.0002463
0.000257729
0.000300877
0.000327235
0.000241206
0.000241375
0.000241679
0.000241943
0.000242308
0.000242596
0.000243067
0.000243532
0.000244131
0.000241096
0.000240892
0.000240832
0.000240711
0.000240688
0.000240572
0.000240515
0.000240619
0.000241026
0.000242209
0.000243492
0.000240886
0.000240792
0.000245525
0.000244672
0.000245517
0.000246763
0.000296671
0.00030624
0.000278065
0.000268939
0.000272768
0.000257759
0.00025433
0.000261602
0.000251691
0.000249115
0.000247613
0.000265757
0.000310175
0.000222937
0.0002403
0.000246633
0.000247557
0.000262096
0.00030364
0.000296611
0.000258713
0.000263935
0.000282952
0.000291602
0.00027157
0.000305489
0.000240307
0.000240685
0.000241188
0.000241566
0.000242002
0.000240984
0.00024248
0.000242753
0.000244092
0.000244955
0.00024538
0.00024337
0.000246644
0.000248448
0.000256068
0.00025143
0.00024965
0.000239577
0.000239599
0.000239558
0.000239784
0.000240001
0.000240135
0.000239622
0.000239758
0.000239661
0.000240199
0.00024165
0.000243345
0.000244629
0.000246722
0.000296337
0.000239213
0.00030119
0.00031706
0.00024136
0.000241461
0.000241591
0.000241829
0.000242146
0.000242428
0.000242623
0.000243227
0.000243759
0.000244053
0.000241078
0.000240986
0.000240868
0.000240822
0.000240768
0.000240694
0.000240656
0.000240768
0.000241533
0.000242679
0.000243019
0.000245414
0.000241469
0.000241066
0.000246387
0.000245047
0.000244297
0.000245843
0.000246395
0.000305069
0.000285229
0.000269423
0.000277037
0.000260232
0.000256375
0.000253036
0.000264476
0.000250823
0.00024816
0.000249627
0.000246771
0.000269017
0.000311168
0.000226531
0.000240816
0.000247873
0.00023989
0.000249585
0.000308918
0.000300076
0.000261133
0.000263873
0.000268317
0.000278941
0.00029399
0.000240437
0.00024061
0.000241286
0.000241644
0.000242082
0.000240907
0.00024234
0.000243009
0.000244324
0.000243718
0.000245121
0.000246074
0.000247391
0.000248055
0.000255687
0.000252044
0.000250629
0.000239668
0.000239651
0.000239836
0.000239695
0.000239935
0.000240234
0.00023976
0.000239883
0.000239866
0.000240485
0.00024205
0.000245612
0.00024661
0.0002471
0.000301308
0.000244828
0.000303779
0.000312228
0.000241376
0.000241626
0.000241899
0.000242057
0.000242457
0.00024281
0.000243508
0.000243009
0.000241174
0.000240953
0.000240875
0.000240844
0.000240818
0.000240817
0.000240785
0.000240989
0.000242419
0.000244271
0.000244332
0.000246106
0.000241837
0.000241586
0.00024868
0.000244899
0.000243959
0.000245338
0.000296737
0.00028227
0.000273913
0.000277529
0.000262089
0.000257836
0.000254082
0.000251426
0.000266805
0.000247475
0.000248796
0.000246381
0.000272615
0.000283689
0.000318085
0.000225173
0.000250202
0.000246733
0.00024794
0.000249264
0.000305074
0.000295054
0.000261292
0.000266671
0.000271409
0.000285731
0.000304881
0.000240372
0.00024073
0.000241193
0.000241502
0.000241899
0.00024102
0.000242526
0.000242883
0.000244011
0.000244738
0.000243691
0.000245654
0.000246129
0.000247804
0.00024906
0.000253658
0.000257904
0.000250231
0.000239771
0.000239894
0.000240129
0.000239865
0.000240018
0.000240274
0.000239846
0.000239989
0.00024021
0.000241179
0.000243165
0.000245955
0.000246793
0.000282002
0.000319345
0.000250708
0.000297749
0.000321734
0.0002415
0.000241274
0.000241757
0.000242143
0.00024229
0.000242611
0.000243383
0.000243047
0.000241112
0.000240985
0.000240936
0.000240916
0.000240953
0.000240955
0.000240978
0.000241248
0.000243425
0.000245168
0.000247804
0.000242551
0.000241921
0.000249512
0.000244477
0.000243574
0.000244051
0.000245334
0.00030609
0.000288285
0.000276216
0.000283334
0.000265366
0.000260499
0.000270546
0.000246779
0.0002458
0.000264574
0.000303905
0.000196978
0.000236537
0.00024762
0.000251627
0.000249855
0.000306186
0.000306884
0.000260184
0.000264672
0.00027005
0.000276922
0.000284963
0.000296462
0.000240484
0.000240726
0.0002413
0.000241587
0.00024197
0.000241018
0.000242468
0.000243113
0.000244068
0.000244841
0.000243433
0.000239849
0.00024017
0.000239989
0.000240444
0.000239991
0.000240142
0.000240214
0.000240409
0.000239909
0.000240069
0.000240579
0.000241718
0.000244829
0.000243036
0.000248188
0.000247224
0.000301216
0.000309948
0.0002484
0.000301846
0.000310615
0.000241451
0.000241257
0.000241702
0.000241948
0.000242129
0.000242417
0.000242867
0.000241133
0.000241055
0.000240959
0.000240986
0.000241022
0.000241074
0.00024105
0.000241216
0.000241604
0.000243502
0.000244666
0.000247254
0.000247979
0.000249813
0.000243415
0.000242555
0.000248977
0.00024445
0.000243272
0.000243699
0.000298252
0.000281432
0.000288626
0.000268565
0.000262456
0.000273284
0.00024395
0.000305541
0.000203426
0.000243978
0.000265372
0.000301498
0.00031134
0.00029979
0.000266912
0.00027299
0.000277928
0.000296222
0.000306156
0.000240618
0.000240888
0.000241469
0.000241165
0.000241804
0.000242232
0.000242732
0.000242989
0.000243727
0.000243444
0.000239937
0.00024048
0.000240266
0.000241003
0.000240147
0.00024015
0.000240284
0.00024045
0.000240018
0.000240081
0.000241348
0.000246552
0.000244073
0.000247542
0.000248083
0.000243822
0.000292929
0.000313515
0.000262897
0.00029898
0.000296142
0.000241333
0.000241543
0.000241184
0.000241802
0.000241929
0.000242202
0.000242481
0.000242653
0.000243013
0.000241093
0.000241034
0.000241023
0.000241075
0.000241196
0.000241325
0.000241429
0.000241484
0.000242
0.000244933
0.000246274
0.000247714
0.000249509
0.00025003
0.000244894
0.000243381
0.000242739
0.000246493
0.000243338
0.000306583
0.000278363
0.000287868
0.000298498
0.000273026
0.000269153
0.000265683
0.00023534
0.000303131
0.000189676
0.000222477
0.000245119
0.000254673
0.000304422
0.000309589
0.000307437
0.000271013
0.000284443
0.000305007
0.000240646
0.000240883
0.000241576
0.000241162
0.00024186
0.00024221
0.000242602
0.00024315
0.0002401
0.000241131
0.000240467
0.000240404
0.00024171
0.000241371
0.000240217
0.000240289
0.000240222
0.000240384
0.000240569
0.000240137
0.000240212
0.000246377
0.000243909
0.000246318
0.00024931
0.00024532
0.000310984
0.000311711
0.000277828
0.000300265
0.000273525
0.000241261
0.00024147
0.000241148
0.000241679
0.00024188
0.000242156
0.000242277
0.000242627
0.000242783
0.000241103
0.000241069
0.000241063
0.000241184
0.00024114
0.000241413
0.000241546
0.000241623
0.000241987
0.000245997
0.000246516
0.000248511
0.00024919
0.000249444
0.000246146
0.00024455
0.000243177
0.000245146
0.000243071
0.000283222
0.000296891
0.000306735
0.000278526
0.000273989
0.000186648
0.000273515
0.000310239
0.000233769
0.000236006
0.000284408
0.000303136
0.000309312
0.000303892
0.000274523
0.00029622
0.000280109
0.000240774
0.000241018
0.000241481
0.000241769