/*--------------------------------*- C++ -*----------------------------------*\
| =========                 |                                                 |
| \\      /  F ield         | OpenFOAM: The Open Source CFD Toolbox           |
|  \\    /   O peration     | Version:  v2012                                 |
|   \\  /    A nd           | Website:  www.openfoam.com                      |
|    \\/     M anipulation  |                                                 |
\*---------------------------------------------------------------------------*/
FoamFile
{
    version     2.0;
    format      ascii;
    class       volScalarField;
    location    "100";
    object      omega;
}
// * * * * * * * * * * * * * * * * * * * * * * * * * * * * * * * * * * * * * //

dimensions      [0 0 -1 0 0 0 0];


internalField   nonuniform List<scalar> 
12639
(
0.303621
0.296932
0.343527
0.311316
0.297962
0.38393
0.347975
0.309156
0.310306
0.424252
0.374584
0.325249
0.313659
0.314717
0.387635
0.424636
0.359753
0.439692
0.32604
0.325716
0.325108
0.367533
0.393462
0.398004
0.456323
0.339889
0.333554
0.333221
0.330735
0.298454
0.392065
0.463934
0.384989
0.434842
0.339871
0.345054
0.344317
0.341479
0.324568
0.300329
0.346183
0.49018
0.417399
0.42346
0.345225
0.349854
0.356502
0.354251
0.348792
0.340273
0.312533
0.298342
0.364073
0.499531
0.444139
0.369968
0.50211
0.355796
0.352471
0.367411
0.362454
0.359375
0.347284
0.342079
0.300006
0.29287
0.306385
0.349756
0.493601
0.404672
0.393335
0.525803
0.369129
0.367674
0.37568
0.372489
0.367701
0.357645
0.356445
0.313642
0.318514
0.329181
0.305939
0.40993
0.49657
0.437356
0.628437
0.381533
0.37392
0.385533
0.379955
0.368002
0.380557
0.367357
0.343907
0.324809
0.336916
0.320901
0.321661
0.354836
0.465371
0.602774
0.386838
0.390975
0.379677
0.390245
0.380916
0.394827
0.381746
0.351204
0.326706
0.335656
0.354938
0.342077
0.408344
0.375373
0.586315
0.656829
0.399133
0.404153
0.398264
0.400005
0.393422
0.40823
0.395842
0.352358
0.336476
0.325019
0.346751
0.364848
0.370371
0.373899
0.413492
0.59514
0.663531
0.409484
0.415275
0.403225
0.411278
0.405524
0.412356
0.42302
0.410293
0.362059
0.345476
0.34012
0.353114
0.365289
0.380744
0.430927
0.388135
0.482331
0.386317
0.757574
0.416732
0.419896
0.430623
0.421867
0.427808
0.421063
0.431334
0.436375
0.426394
0.369826
0.345278
0.343884
0.363821
0.37733
0.38515
0.388561
0.415773
0.401025
0.534711
0.397861
0.761497
0.432118
0.431439
0.444943
0.429913
0.443295
0.435382
0.443316
0.45151
0.433665
0.43748
0.372756
0.380396
0.355305
0.356538
0.364477
0.396647
0.401483
0.457388
0.404752
0.339284
0.830788
0.436627
0.671783
0.434047
0.443254
0.441142
0.458372
0.436876
0.462686
0.452969
0.46181
0.461777
0.456725
0.455491
0.384506
0.391922
0.365197
0.376414
0.406677
0.411886
0.369084
0.407711
0.4119
0.403461
0.828659
0.435288
0.738215
0.448519
0.455367
0.450765
0.443818
0.469302
0.465753
0.442196
0.484883
0.467787
0.479201
0.486996
0.474605
0.3917
0.403835
0.3758
0.367045
0.388787
0.421992
0.410531
0.423794
0.406827
0.429316
0.423723
0.36218
0.520344
1.13155
0.432004
0.443152
0.455403
0.468709
0.459823
0.454511
0.483809
0.484549
0.451238
0.508676
0.488159
0.499402
0.503372
0.49635
0.408886
0.414923
0.387893
0.384937
0.402168
0.435318
0.429769
0.434862
0.414502
0.431201
0.429076
0.376046
0.585279
1.09955
0.432574
0.616196
0.466099
0.47985
0.469851
0.462078
0.456638
0.496663
0.500155
0.455072
0.514164
0.531778
0.526444
0.532587
0.521694
0.420371
0.430669
0.399977
0.394704
0.416254
0.441714
0.448842
0.445296
0.422732
0.446451
0.440152
0.395867
0.803607
1.26198
0.378647
0.474303
0.496335
0.48081
0.471486
0.465974
0.512917
0.515708
0.459931
0.538182
0.562041
0.55539
0.529926
0.557544
0.562809
0.439473
0.447419
0.412262
0.411794
0.427806
0.459653
0.461991
0.45064
0.451361
0.410659
0.448381
0.447644
0.399185
0.879385
1.26268
0.571072
0.486464
0.506716
0.488095
0.479736
0.469745
0.528167
0.539541
0.461394
0.465586
0.558642
0.601252
0.59371
0.56784
0.59723
0.600865
0.451587
0.444122
0.465338
0.427375
0.426854
0.469171
0.470838
0.474381
0.46321
0.461512
0.426157
0.457458
0.455012
0.37845
0.798746
1.27404
0.434481
0.499174
0.52057
0.498681
0.485448
0.484652
0.480197
0.465
0.543754
0.561526
0.439425
0.474411
0.582534
0.635824
0.628089
0.598026
0.630636
0.670208
0.472773
0.46391
0.483828
0.442134
0.442723
0.485217
0.493262
0.477549
0.488645
0.471836
0.468528
0.465072
0.407183
0.454967
0.464688
0.501203
1.17635
1.42429
0.628176
0.509694
0.526811
0.507639
0.501227
0.495203
0.493589
0.484356
0.474841
0.55772
0.549905
0.573389
0.48355
0.341348
0.612542
0.682036
0.627227
0.677408
0.64402
0.681867
0.70687
0.492428
0.483102
0.45752
0.502864
0.457667
0.500134
0.506918
0.490471
0.503379
0.478902
0.478688
0.462613
0.424312
0.465495
0.470643
1.00839
1.38992
0.493664
0.512205
0.53889
0.518584
0.509313
0.498268
0.4973
0.492611
0.481183
0.575463
0.56305
0.60203
0.462445
0.471975
0.636408
0.697713
0.710452
0.677956
0.725651
0.702931
0.81206
0.521962
0.4986
0.467172
0.521949
0.480579
0.518734
0.530484
0.488792
0.50082
0.51972
0.505668
0.486173
0.476853
0.42925
0.469764
0.478361
1.19422
1.58414
0.728961
0.530151
0.540717
0.515331
0.528745
0.511901
0.506826
0.505021
0.496142
0.486225
0.576878
0.592598
0.55783
0.628858
0.603971
0.35096
0.492106
0.992985
0.678586
0.749233
0.762725
0.7002
0.788811
0.834802
0.538291
0.530144
0.486594
0.521981
0.543582
0.514155
0.535181
0.542208
0.496843
0.510962
0.535516
0.522956
0.483917
0.495549
0.470102
0.478795
0.430768
0.481207
1.55137
0.661579
0.535567
0.5234
0.534589
0.519293
0.509025
0.5083
0.492664
0.504712
0.488545
0.590605
0.607719
0.568065
0.656405
0.634698
0.393356
0.482645
1.26823
0.708618
0.798432
0.800503
0.756502
0.862813
0.814167
0.927775
0.577174
0.559796
0.498402
0.549312
0.572112
0.577266
0.553949
0.566171
0.506739
0.52314
0.53266
0.555167
0.529836
0.493831
0.502405
0.481328
0.488909
0.406152
0.487402
1.83813
1.31626
0.23535
0.547716
0.531148
0.544286
0.536905
0.522611
0.516464
0.516353
0.497826
0.509173
0.496484
0.587542
0.625031
0.562204
0.691103
0.649857
0.448566
0.422031
0.498513
1.14109
0.759072
0.88143
0.876115
0.789491
0.988791
0.99759
0.924116
0.599873
0.580512
0.577055
0.541924
0.589209
0.602497
0.574165
0.513624
0.530873
0.551411
0.569253
0.545525
0.495317
0.511039
0.487628
0.484673
0.4965
0.498934
1.85703
1.29256
0.345517
0.534612
0.552322
0.546319
0.530114
0.522302
0.503352
0.515918
0.508044
0.601181
0.621836
0.647104
0.575663
0.717601
0.683703
0.61717
0.433869
0.501575
2.11886
0.793288
1.00456
0.912343
0.922597
0.860469
1.2026
1.26092
0.64667
0.615407
0.61914
0.620546
0.676365
0.597293
0.523668
0.543924
0.556445
0.587546
0.551974
0.502138
0.517727
0.495545
0.49205
0.500661
0.448771
0.380262
2.0932
0.543385
0.561778
0.54982
0.533626
0.529384
0.521438
0.503374
0.517525
0.51281
0.595251
0.637367
0.669154
0.571249
0.767375
0.698255
0.90489
0.441517
0.508149
2.10764
0.856417
1.23387
1.02814
1.02323
0.899861
1.51829
0.649158
0.676454
0.634798
0.69615
0.624794
0.653591
0.729546
0.60007
0.528205
0.550048
0.576672
0.596316
0.56714
0.508744
0.519056
0.497634
0.49344
0.496619
0.507042
0.460173
0.468813
2.10181
0.545584
0.56623
0.559299
0.540788
0.534064
0.528152
0.507956
0.522417
0.513184
0.608564
0.66165
0.627508
0.583825
0.801241
0.725582
2.0764
1.00524
0.36293
0.538203
0.503429
0.897913
1.17693
2.02729
1.07898
1.08145
0.992948
0.70145
0.727581
0.707009
0.778487
0.655238
0.695686
0.860078
0.624846
0.536922
0.545848
0.562069
0.580657
0.619781
0.571173
0.515289
0.509392
0.529036
0.504706
0.500586
0.50172
0.508532
0.431428
0.616148
1.80743
2.6307
0.552157
0.576397
0.562314
0.541977
0.534203
0.528922
0.520951
0.526882
0.517206
0.604396
0.677775
0.638596
0.594292
0.583508
0.86756
0.788972
0.758644
0.726771
0.503449
2.40804
0.39231
0.522278
0.512729
0.982619
1.5329
4.7652
1.24676
1.22089
1.04183
0.751692
0.765178
0.766318
0.749746
0.941559
0.694405
0.652279
0.923105
0.536147
0.554119
0.565178
0.599948
0.636693
0.584447
0.521428
0.515984
0.529054
0.506701
0.503208
0.524356
0.497322
0.443958
0.421563
2.1614
0.558445
0.547802
0.579898
0.57193
0.540662
0.534464
0.52504
0.530406
0.518546
0.622033
0.701113
0.65669
0.601316
0.594134
0.909055
0.853929
0.788818
0.754618
0.894222
2.66306
0.520912
0.383109
0.516752
1.03436
1.51098
2.45916
1.31264
1.30102
1.17037
0.853896
0.894088
0.842029
0.805918
1.01551
0.734049
0.68161
0.54383
0.551563
0.574749
0.597405
0.621896
0.664967
0.585123
0.520683
0.517959
0.535207
0.5119
0.50899
0.51772
0.506174
0.377295
0.80615
3.30804
0.562813
0.551552
0.590068
0.571273
0.546564
0.538078
0.534944
0.529517
0.523551
0.519799
0.624758
0.701189
0.660691
0.613561
0.598624
0.982809
0.880494
0.82179
0.748127
1.95935
0.518317
0.453113
1.1538
2.05028
5.86249
1.61852
1.49931
1.24333
1.03157
0.893421
0.874529
0.813099
1.18746
0.789818
0.720107
0.680786
0.543153
0.558366
0.576184
0.611726
0.641179
0.678699
0.595655
0.526932
0.517032
0.52398
0.532272
0.511082
0.511195
0.527367
0.504347
0.412726
0.904227
3.21094
0.55922
0.550568
0.593631
0.577024
0.549896
0.541681
0.538622
0.533367
0.526331
0.524413
0.642509
0.725221
0.681799
0.618155
0.610105
1.02889
0.867601
0.954046
0.80484
0.773245
2.47417
0.525523
0.538791
0.394341
1.232
2.13632
3.44036
1.72687
1.59123
1.45146
1.10049
1.25396
0.96321
1.02002
0.909862
0.835602
0.756565
0.714105
0.549397
0.564737
0.572057
0.58716
0.605142
0.627009
0.665862
0.639947
0.711208
0.595839
0.527664
0.521068
0.525553
0.537715
0.515932
0.514765
0.520695
0.513054
0.384928
1.51211
3.41919
0.563221
0.557838
0.590831
0.605273
0.58423
0.570066
0.555388
0.546321
0.540816
0.53723
0.532058
0.52991
0.526585
0.643986
0.728452
0.688453
0.631342
0.614404
1.13907
0.909574
0.976286
0.830505
0.756416
2.54703
0.521188
0.527266
0.536189
0.46509
1.39026
3.84831
6.82768
2.21988
1.95672
1.61696
1.59255
1.47469
1.08663
1.1628
0.970126
0.805845
0.912075
0.745563
0.549437
0.563238
0.577454
0.585658
0.613729
0.635177
0.68395
0.661793
0.732768
0.605785
0.533415
0.521755
0.529851
0.543895
0.519579
0.517931
0.528357
0.51421
0.4301
1.24288
3.94428
0.559535
0.598053
0.606257
0.584377
0.572463
0.557274
0.548285
0.545384
0.539595
0.538743
0.53546
0.531447
0.530521
0.660003
0.714273
0.677294
0.633436
0.625591
1.20634
0.878935
1.03996
0.803732
0.771004
1.98488
0.524561
0.521977
0.559012
1.57597
1.43857
6.66755
3.97677
2.23907
1.95486
2.09421
1.19399
1.50295
1.09258
0.84275
0.959813
0.780752
0.55768
0.571004
0.592048
0.625473
0.651971
0.710749
0.680119
0.664248
0.773494
0.609279
0.535003
0.527508
0.546746
0.522478
0.518678
0.517446
0.537199
0.517195
0.406579
2.19067
3.8529
0.565723
0.592433
0.614375
0.579844
0.571292
0.563742
0.556924
0.552843
0.546517
0.543264
0.54272
0.538563
0.534992
0.533438
0.655768
0.727272
0.691506
0.645234
0.630757
1.36313
1.18133
0.909507
1.12437
1.02579
0.816689
0.755803
3.27971
0.527358
0.522549
0.835148
1.85066
1.69366
7.08004
2.91601
2.30313
4.94272
1.19194
1.39571
2.51078
1.16555
0.898727
0.821632
1.05008
0.559216
0.572519
0.588143
0.601167
0.631168
0.658783
0.727467
0.701374
0.685338
0.802608
0.619847
0.540284
0.530379
0.553604
0.544677
0.526545
0.522786
0.523474
0.518118
0.520177
0.663146
1.7648
4.46719
0.595079
0.609863
0.626532
0.582236
0.576643
0.567257
0.561443
0.552498
0.549737
0.545732
0.54212
0.5375
0.532702
0.536953
0.66713
0.715066
0.682472
0.644304
1.46827
1.33134
0.966594
0.857041
1.19357
1.09853
0.775916
2.70541
0.522425
0.554172
2.37389
1.85426
4.76971
2.90842
1.40249
1.60476
5.71085
1.12607
1.34284
0.920104
0.859853
1.09168
0.566244
0.579919
0.595377
0.60346
0.645141
0.676467
0.755086
0.703
0.691667
0.790104
0.852224
0.613648
0.54143
0.535191
0.554679
0.549627
0.527808
0.525783
0.522961
0.52618
0.509811
0.401878
2.35832
4.44405
0.588554
0.602544
0.617434
0.63497
0.57824
0.571695
0.565295
0.559863
0.556249
0.550964
0.545498
0.549567
0.540938
0.537129
0.539246
0.65467
0.732079
0.693404
1.66564
1.39037
0.977337
0.868972
1.29158
1.06542
0.777439
3.63558
0.55697
0.471328
0.859221
3.1319
2.13816
8.03485
4.48907
1.5135
2.08089
3.34656
1.27565
1.45222
0.989076
1.20348
0.567882
0.576804
0.597591
0.648713
0.681012
0.756374
0.728083
0.712942
0.831179
0.886902
0.618688
0.539006
0.546103
0.535128
0.559669
0.550245
0.531897
0.528269
0.527262
0.529265
0.508692
0.606448
1.49773
4.72266
0.589503
0.603404
0.612093
0.626083
0.645641
0.584437
0.575445
0.571785
0.567803
0.562857
0.555083
0.54843
0.552366
0.543062
0.538247
0.54191
0.65853
0.712203
0.756745
0.685086
1.81316
1.5609
0.938267
0.849159
1.33715
1.12772
0.812376
2.15498
5.98946
0.545002
0.492722
0.483252
3.20649
5.20227
2.64293
2.13477
1.88363
2.30468
6.85082
1.32509
1.72828
0.988787
1.24939
0.564546
0.581409
0.606877
0.589155
0.641112
0.665962
0.700905
0.786116
0.727077
0.723618
0.827916
0.937947
0.628099
0.542264
0.538549
0.560691
0.555161
0.532005
0.529125
0.52889
0.539909
0.527193
0.468183
2.64194
0.595456
0.601551
0.614767
0.630338
0.643588
0.583631
0.578706
0.575243
0.566786
0.563143
0.557574
0.548085
0.551433
0.555784
0.545835
0.541044
0.543249
0.671723
0.709137
0.767244
0.693117
1.8141
1.52242
0.982283
0.883097
1.2097
1.15532
0.797358
3.07557
6.07556
0.546313
0.699961
5.33271
8.04797
3.31721
2.59093
2.12079
4.00486
1.49404
1.90443
1.06256
1.1495
1.42018
0.569442
0.579202
0.604056
0.590411
0.648797
0.664807
0.697742
0.779585
0.75206
0.74652
0.870545
0.964362
0.620857
0.544726
0.537771
0.541737
0.565344
0.553502
0.535084
0.533028
0.532316
0.536315
0.531707
0.51343
2.79599
0.592913
0.607205
0.622165
0.629784
0.65413
0.587811
0.579476
0.573961
0.569921
0.566784
0.560961
0.557487
0.550379
0.553672
0.557234
0.545589
0.54284
0.543113
0.666296
0.723699
0.745665
0.67921
2.16158
1.68017
1.0493
0.926675
0.849162
1.26225
1.12586
0.815352
1.4949
5.99879
5.77222
0.548594
0.466986
8.03528
5.29966
2.80803
2.86002
6.84182
1.73932
1.48598
2.50324
1.04846
1.21272
1.54421
0.575037
0.585662
0.612633
0.597825
0.639852
0.677661
0.71496
0.813047
0.762908
0.849439
0.935599
0.62938
0.549231
0.540646
0.543254
0.567115
0.557374
0.535892
0.53377
0.53522
0.533943
0.544807
0.534206
0.521402
0.920168
0.597425
0.60417
0.624248
0.64042
0.656371
0.588265
0.583923
0.577201
0.569304
0.567471
0.562683
0.560652
0.552446
0.550938
0.556215
0.559984
0.54718
0.545034
0.549958
0.714736
0.750836
0.681782
2.19065
1.93457
1.66594
1.0359
0.923205
0.848837
1.35527
1.20633
0.796295
2.28589
6.40755
5.82017
0.567949
0.504457
0.641735
7.90915
3.72281
3.08816
4.54323
1.99525
1.73112
3.07939
1.10915
1.32961
1.49778
1.81448
0.577674
0.588327
0.614382
0.600629
0.647467
0.676723
0.697529
0.737564
0.825901
0.789432
0.896853
0.991641
0.630304
0.549288
0.541184
0.546319
0.563489
0.572996
0.555545
0.560383
0.539284
0.536878
0.537887
0.536947
0.543987
0.536873
0.496867
1.85047
0.596551
0.6088
0.620604
0.633682
0.649826
0.669784
0.592363
0.583723
0.581111
0.575749
0.572459
0.570605
0.565654
0.561893
0.554024
0.552968
0.549321
0.557501
0.559841
0.546059
0.697823
0.728676
0.772268
2.85036
2.12901
1.51076
1.91903
1.11628
0.979384
0.884367
0.814629
1.31288
1.15626
4.78402
8.22555
3.75756
0.555001
0.510914
0.617563
5.67687
3.74097
5.11218
7.90486
2.53901
5.05343
1.09451
1.33822
1.72332
2.12909
0.583106
0.594078
0.621847
0.606811
0.638486
0.656648
0.667849
0.702717
0.748622
0.859538
0.778902
0.954127
0.907705
0.552581
0.54428
0.546658
0.566105
0.573077
0.55783
0.560638
0.54023
0.538227
0.538583
0.538448
0.539988
0.547677
0.574621
1.07219
0.600681
0.605185
0.614804
0.625867
0.634303
0.656144
0.668648
0.591954
0.588274
0.582699
0.578195
0.572095
0.567062
0.564851
0.556041
0.553921
0.550128
0.55768
0.561586
0.549959
0.694171
0.729314
0.768986
3.09074
2.49179
1.59801
2.08426
1.13822
0.992688
0.899879
0.814002
1.42469
2.29683
5.1539
8.16145
4.35744
0.560129
0.508474
0.912478
8.68846
5.81017
7.78698
3.16835
7.79383
1.18693
1.47842
2.0681
1.7098
2.76068
0.582778
0.591987
0.621056
0.60297
0.637624
0.655623
0.677192
0.718045
0.688604
0.757254
0.831864
0.804485
1.01366
0.94749
0.55217
0.545021
0.54971
0.569689
0.563394
0.577805
0.558132
0.542817
0.540996
0.541273
0.541866
0.544938
0.544715
0.616557
2.10862
0.595899
0.607705
0.613997
0.625545
0.642077
0.650579
0.678965
0.587058
0.583627
0.581443
0.577435
0.575187
0.569893
0.564961
0.556004
0.553934
0.552846
0.559775
0.563482
0.551478
0.707546
0.723665
0.752239
0.790786
4.06291
2.50768
1.80942
2.08478
1.24442
1.05569
0.946198
0.873882
0.844313
1.4661
2.11762
7.01235
9.32212
6.28197
0.578736
0.549046
0.530634
0.914027
8.2079
5.21161
1.1686
1.43296
2.56772
1.911
3.61147
0.587382
0.596812
0.613909
0.62904
0.607075
0.645836
0.664568
0.702937
0.736677
0.688458
0.785434
0.860752
0.813619
1.08692
1.00266
0.904174
0.555252
0.54794
0.550385
0.57073
0.564128
0.577311
0.561221
0.543513
0.543227
0.541757
0.542859
0.543458
0.546011
0.53713
0.463763
1.02314
2.15916
0.596941
0.605589
0.618797
0.63217
0.644385
0.658285
0.675077
0.589947
0.587493
0.582178
0.579653
0.575072
0.570415
0.567409
0.557518
0.556065
0.554293
0.560129
0.564326
0.553879
0.697824
0.738858
0.757066
0.795495
4.10347
6.00079
3.08872
1.83607
2.48331
1.19884
1.38112
1.03923
0.936599
0.889935
0.818384
1.68775
3.74392
6.5613
9.80959
6.30391
0.571197
0.55755
0.521456
1.24427
8.06594
1.30906
1.64666
2.78997
3.21483
2.26663
5.71805
0.588144
0.593654
0.61431
0.627697
0.601791
0.642005
0.663721
0.708543
0.742401
0.676394
0.77177
0.844097
1.12657
1.04731
0.931911
0.555538
0.548114
0.553217
0.567469
0.574056
0.580885
0.561959
0.546258
0.545926
0.544144
0.544855
0.547081
0.551157
0.557568
0.523816
1.24562
3.74216
0.596879
0.602305
0.610788
0.618714
0.629319
0.638438
0.652733
0.667962
0.686569
0.593513
0.586964
0.584525
0.579295
0.577241
0.573047
0.569248
0.566475
0.559177
0.556788
0.556763
0.562266
0.563769
0.556557
0.703297
0.731626
0.775135
6.11011
8.94596
3.07854
2.13616
2.48873
1.28528
1.10081
1.50577
0.974584
0.868373
0.80855
1.82083
3.79455
10.06
8.94408
0.577044
0.559634
0.582501
2.29069
0.774103
1.37507
1.75677
3.58021
4.89259
2.41067
8.57904
0.584946
0.596065
0.609032
0.621012
0.634496
0.603153
0.648564
0.657132
0.696222
0.726988
0.743377
0.674156
0.789179
0.869942
1.22415
0.995431
0.920799
0.55846
0.550748
0.554198
0.567628
0.574399
0.578044
0.560609
0.565619
0.546689
0.545852
0.548584
0.549672
0.55198
0.551237
0.553879
0.534202
2.2091
3.8467
0.600984
0.60426
0.607904
0.615127
0.62444
0.632597
0.638652
0.656914
0.673872
0.68319
0.592205
0.589315
0.584672
0.581496
0.577565
0.572688
0.570535
0.567464
0.560284
0.559322
0.557374
0.559448
0.562131
0.565303
0.560725
0.71576
0.690585
0.743507
0.763049
8.35766
4.01969
2.19147
2.97321
1.43512
1.2295
1.05035
1.71358
0.943596
0.830933
0.893093
0.777665
2.09924
5.13859
10.1726
9.10833
0.58312
0.514557
0.566975
2.87665
1.09145
1.53298
1.72298
2.12469
3.19749
5.40356
0.587104
0.592124
0.609954
0.621055
0.634429
0.599453
0.641566
0.662191
0.700043
0.683537
0.727502
0.765871
0.816447
0.846
1.21428
1.02673
0.9607
0.558961
0.552976
0.55059
0.557252
0.571436
0.579832
0.562813
0.567285
0.548708
0.54838
0.550746
0.553549
0.558682
0.555451
0.796399
0.539348
2.34158
5.36531
0.601084
0.608604
0.616779
0.621387
0.633191
0.643969
0.665742
0.650125
0.594507
0.587393
0.583552
0.579689
0.576052
0.574189
0.569521
0.566941
0.560308
0.56154
0.560384
0.56241
0.563519
0.565049
0.567346
0.711895
0.680519
0.727444
6.09654
3.62359
2.62789
3.04545
1.57161
1.32375
1.11015
0.976192
1.88233
0.809463
0.864699
0.766358
2.37394
7.32779
4.14457
10.5864
8.65028
0.589216
0.531981
0.569193
2.28517
0.776154
1.55063
1.9467
2.40056
4.07707
8.35513
0.584084
0.594167
0.606201
0.615701
0.627773
0.601289
0.64503
0.65604
0.688382
0.713013
0.6795
0.744363
0.762817
0.825812
0.880988
1.10191
1.33899
0.931961
0.56131
0.554678
0.552646
0.558171
0.572067
0.579548
0.565052
0.569981
0.549135
0.550212
0.553035
0.556641
0.559511
0.571428
1.36129
0.546506
3.68193
4.74711
0.604631
0.597725
0.6124
0.623671
0.628197
0.637828
0.661948
0.651429
0.591773
0.587484
0.584841
0.579793
0.576246
0.573382
0.570518
0.568101
0.562786
0.563963
0.566483
0.563914
0.566337
0.572075
0.698934
0.668162
0.684642
0.729661
8.85209
4.56419
2.78968
3.80248
1.80838
1.48644
2.21014
0.783519
0.746803
8.37935
5.39726
13.7418
10.0127
0.580671
0.496813
0.57214
2.82952
1.14957
1.483
1.7999
2.24916
2.9767
3.97041
6.06968
0.585626
0.592545
0.60739
0.61617
0.627573
0.599885
0.641649
0.660952
0.688723
0.71412
0.670715
0.562168
0.554607
0.557058
0.552644
0.560685
0.574856
0.577108
0.582632
0.564959
0.570837
0.551524
0.55264
0.554711
0.554446
0.562996
0.566224
0.776701
1.93073
0.544673
3.53118
6.47708
0.603054
0.596855
0.610699
0.618096
0.623768
0.632447
0.646432
0.591904
0.589232
0.58364
0.581468
0.577702
0.574439
0.572
0.569485
0.567248
0.564285
0.564313
0.568001
0.569885
0.571308
0.566487
0.567286
0.575686
0.7003
0.659843
0.674688
6.56963
3.40763
4.58949
2.08804
1.63505
2.49189
10.8645
5.23854
13.6946
0.577942
0.589565
4.16791
1.96754
0.874455
1.97466
2.52841
3.09534
6.00732
8.90197
0.588958
0.595917
0.611856
0.602985
0.62192
0.634316
0.648094
0.656019
0.677275
0.669342
0.561991
0.556453
0.55849
0.554958
0.561724
0.573461
0.577501
0.582554
0.566967
0.569472
0.553165
0.559901
0.55726
0.566951
0.565298
0.566285
0.683817
1.49595
0.527433
4.52858
6.69844
0.599199
0.605816
0.59408
0.613718
0.61785
0.626112
0.634797
0.640139
0.651675
0.589699
0.587042
0.584811
0.580275
0.577368
0.573804
0.571258
0.569854
0.568138
0.566819
0.568055
0.570668
0.579406
0.580832
0.568238
0.567664
0.568783
0.592916
0.663117
9.06005
3.05058
4.38594
6.71614
2.50238
2.16089
1.87679
11.5431
6.44058
15.3292
0.511675
0.584592
0.546409
4.55331
2.261
1.24037
2.35017
3.90066
8.33471
0.588241
0.594657
0.613836
0.602035
0.622401
0.632412
0.643048
0.659998
0.564544
0.557599
0.55796
0.560452
0.555032
0.55681
0.563929
0.561338
0.57481
0.579913
0.585362
0.566501
0.57117
0.561201
0.558429
0.572565
0.572326
0.562897
1.06118
1.92659
0.651145
4.29445
8.84261
0.596832
0.603863
0.592307
0.610471
0.616753
0.625245
0.629109
0.639938
0.645178
0.58975
0.587522
0.583113
0.578845
0.581382
0.576428
0.575123
0.5723
0.569455
0.569368
0.569785
0.57406
0.586345
0.600219
0.571205
0.570016
0.570213
0.590193
0.656185
3.66788
6.12297
9.19968
3.09936
2.65494
16.6349
9.28561
5.67826
0.541818
0.537219
0.682991
4.13465
2.90915
1.11646
2.70447
5.96866
3.35768
0.591134
0.597647
0.610579
0.619224
0.605812
0.627786
0.636843
0.646855
0.559409
0.559384
0.561684
0.556623
0.558352
0.565164
0.563297
0.575221
0.580184
0.585469
0.568317
0.573627
0.570256
0.565639
0.561488
0.57304
0.575255
0.560602
1.10996
3.0012
0.584618
5.53584
7.40549
0.598073
0.593619
0.600606
0.606502
0.612235
0.620487
0.629201
0.634567
0.641409
0.588115
0.585629
0.583712
0.578382
0.580586
0.577057
0.575026
0.572679
0.570935
0.574202
0.574286
0.581043
0.58583
0.601696
0.599805
0.572369
0.575495
0.571442
0.571216
0.568448
5.38461
3.85591
3.28357
17.1823
11.4996
6.37211
0.668428
0.571447
4.96227
2.68337
1.63025
8.66983
4.10374
0.59059
0.596689
0.612806
0.621863
0.603571
0.626406
0.630458
0.560873
0.561057
0.563261
0.561042
0.564708
0.566998
0.577996
0.582872
0.588109
0.568266
0.574466
0.571546
0.57116
0.566745
0.564599
0.562336
0.577577
0.590702
0.571397
1.48356
3.38145
0.706165
4.90129
9.13498
0.595969
0.592386
0.599288
0.604304
0.610097
0.617045
0.623
0.634435
0.588771
0.586016
0.582815
0.5794
0.58151
0.577504
0.574247
0.576513
0.572677
0.572341
0.576449
0.5917
0.601596
0.590501
0.602722
0.569893
0.575275
0.581218
0.574379
0.57383
0.553016
8.52884
5.97384
15.3381
18.0754
7.92016
5.79696
0.831247
0.739041
4.64909
3.54128
1.47279
6.118
0.593484
0.599736
0.609403
0.617585
0.605516
0.628524
0.562533
0.562278
0.564763
0.562927
0.56579
0.567303
0.577936
0.582353
0.588974
0.570051
0.576555
0.573367
0.57802
0.575066
0.568085
0.566503
0.578843
0.585239
0.574501
1.18742
2.84986
0.697457
5.55923
6.15192
0.596555
0.593813
0.590354
0.600947
0.606171
0.612475
0.618419
0.621904
0.587257
0.585122
0.583706
0.579686
0.581503
0.577474
0.579074
0.575316
0.577354
0.574399
0.573818
0.581339
0.593149
0.605583
0.56242
0.611439
0.550693
0.58074
0.583012
0.585426
0.576094
0.575036
0.583833
8.57701
15.8419
18.9189
9.98612
6.38695
0.883502
5.36127
3.51673
1.96555
0.592003
0.597172
0.608136
0.616743
0.603354
0.56582
0.564241
0.565324
0.566358
0.565883
0.568923
0.58018
0.58444
0.58702
0.570545
0.577245
0.574544
0.59409
0.579335
0.572061
0.569213
0.56103
0.559844
0.618706
1.54343
3.76497
0.965036
5.22321
8.88792
0.595068
0.592166
0.589404
0.599366
0.604229
0.611953
0.61476
0.587098
0.585973
0.583492
0.580835
0.582574
0.578704
0.579673
0.576908
0.579162
0.575481
0.587614
0.605638
0.624728
0.580592
0.570812
0.578854
0.599547
0.59779
0.586159
0.59261
0.592818
0.579512
0.579092
0.738939
20.8323
17.0533
7.06642
6.07904
1.29929
4.91623
3.00434
1.77523
0.593863
0.59789
0.604772
0.611455
0.60064
0.566279
0.568159
0.567893
0.568216
0.568811
0.568557
0.569311
0.570269
0.579391
0.583515
0.587604
0.57273
0.576667
0.574447
0.593945
0.594043
0.577992
0.574246
0.580174
0.576603
0.747714
2.39739
3.49516
1.17413
5.93017
8.84265
0.596418
0.592772
0.590386
0.588105
0.601007
0.606001
0.608759
0.610464
0.586278
0.58526
0.584292
0.581616
0.582553
0.580048
0.581065
0.578905
0.58149
0.578004
0.601408
0.622277
0.604432
0.618169
0.626279
0.602672
0.539963
0.570426
0.693578
0.592987
0.585325
0.597113
0.60581
0.581356
0.581079
1.02312
20.5845
19.1602
9.07882
6.58315
1.53988
5.293
3.53695
2.79407
0.591465
0.594878
0.602165
0.599414
0.568584
0.571684
0.569298
0.568935
0.569015
0.573848
0.573913
0.570868
0.571892
0.580567
0.582205
0.584752
0.58615
0.589589
0.573717
0.572881
0.578003
0.576216
0.576265
0.596045
0.595753
0.588743
0.579815
0.607474
0.601689
0.880761
2.69144
4.76473
1.93625
6.46064
5.64742
13.2055
0.595394
0.591196
0.58905
0.587096
0.599404
0.602723
0.60731
0.585525
0.58624
0.583809
0.582693
0.58189
0.583589
0.582868
0.583203
0.581568
0.580067
0.584643
0.609068
0.623182
0.617576
0.589054
0.602059
0.690317
0.717979
0.707902
0.610757
0.630054
1.03884
0.601465
0.590682
0.607989
0.620627
0.587563
0.585817
26.0832
15.1946
7.30204
6.5178
2.14903
4.57992
6.22349
2.94967
0.591411
0.592979
0.594514
0.603677
0.597213
0.570059
0.572254
0.576627
0.571743
0.571868
0.571241
0.577853
0.577381
0.571823
0.571862
0.579522
0.582217
0.583456
0.586378
0.587966
0.574607
0.573886
0.577343
0.575641
0.58075
0.597971
0.60834
0.595109
0.592634
0.642232
0.638086
1.28289
3.75496
4.676
2.36403
7.27329
6.50464
13.9115
0.593347
0.597079
0.591676
0.589458
0.587686
0.600531
0.601294
0.584923
0.585516
0.583902
0.584463
0.583937
0.583889
0.584663
0.584083
0.584917
0.585003
0.584729
0.584252
0.588939
0.623033
0.602058
0.597298
0.646291
0.602124
0.940034
0.889928
0.880117
0.796124
0.863788
1.40529
0.614511
0.603097
0.59764
0.617695
0.62201
0.621826
0.627186
0.592586
0.587325
0.592957
26.1415
19.1234
8.97064
7.19691
2.49012
4.99189
6.39674
3.72068
0.589563
0.590798
0.592704
0.598103
0.572788
0.577183
0.58147
0.573297
0.573646
0.585846
0.582103
0.572899
0.573247
0.579901
0.581085
0.583604
0.585095
0.588018
0.574547
0.577985
0.576313
0.625933
0.589618
0.600858
0.607914
0.598007
0.838054
0.785038
1.30585
1.98605
4.06409
5.59365
3.55635
8.72327
6.44805
20.8125
0.592926
0.595758
0.590236
0.588541
0.586912
0.597882
0.584788
0.585571
0.584662
0.585048
0.586338
0.585973
0.585892
0.587573
0.587667
0.587766
0.588586
0.586697
0.594103
0.60691
0.626324
0.777974
0.663332
1.2996
1.33474
1.12996
0.933419
1.17634
2.21506
0.626461
0.621589
0.602304
0.639367
0.640464
0.634682
0.632634
0.592717
0.600641
29.3935
14.6389
7.86485
3.54989
5.88222
4.57929
6.97527
0.589237
0.590514
0.593617
0.596386
0.577876
0.5812
0.589691
0.57614
0.57814
0.589623
0.590929
0.574478
0.57533
0.579103
0.580428
0.582405
0.585105
0.586372
0.575142
0.576256
0.577772
0.577647
0.576827
0.710944
0.594372
0.591717
0.616167
0.61077
0.90831
1.76787
2.71875
5.31141
4.14499
10.4994
6.98382
22.0633
0.594341
0.591951
0.596385
0.589926
0.589103
0.587613
0.586284
0.585317
0.585413
0.586101
0.585551
0.589255
0.589246
0.588611
0.589867
0.594885
0.594616
0.592475
0.601104
0.643437
0.656205
0.740919
1.24099
0.891533
0.86936
1.48442
1.88143
1.85776
1.45545
1.26897
1.53575
2.80472
0.651909
0.632774
0.613202
0.654584
0.647423
0.645312
0.641297
0.599541
0.595931
0.611429
29.8758
19.1201
7.3992
9.43772
4.1924
6.2455
5.26182
7.00694
0.58764
0.589182
0.592678
0.581403
0.588926
0.595512
0.580303
0.577284
0.581289
0.581365
0.607063
0.608343
0.576546
0.579323
0.581113
0.581984
0.582948
0.583847
0.586248
0.577112
0.577713
0.578819
0.57885
0.578533
0.766796
0.665741
0.596055
0.585033
0.610994
0.610639
0.615079
1.33978
1.86419
2.53357
3.70193
5.72985
5.25444
7.35634
18.7655
6.88076
0.593607
0.5909
0.59251
0.594362
0.588819
0.588561
0.587947
0.586522
0.586098
0.586043
0.586075
0.58795
0.58808
0.595875
0.59463
0.590965
0.597136
0.602947
0.600638
0.612357
0.802552
0.694104
1.012
1.76431
1.36666
1.28738
2.25859
2.66178
2.5006
2.14073
2.49189
3.71301
0.666579
0.659237
0.627862
0.617598
0.667924
0.659723
0.656383
0.658153
0.608987
0.607657
0.62119
30.4177
17.0073
7.8218
10.3976
5.01357
4.16529
6.74632
5.99732
7.5592
0.58753
0.590433
0.587906
0.592734
0.608446
0.586149
0.581531
0.588778
0.588476
0.621387
0.579032
0.579449
0.580621
0.582294
0.583763
0.584909
0.579301
0.579814
0.579322
0.579792
0.579519
0.580565
1.04878
0.895216
0.58586
0.697615
0.590231
0.617199
0.615405
1.68857
2.72697
3.4838
4.2611
6.39895
5.83242
9.02412
21.8902
7.38348
0.58998
0.590994
0.589092
0.588166
0.587513
0.587225
0.586498
0.589109
0.586921
0.587055
0.590503
0.589683
0.60046
0.59826
0.602169
0.595927
0.603464
0.603523
0.614064
0.611447
0.618327
0.619635
1.08252
0.773761
1.04351
1.16521
1.82384
2.38652
1.61393
1.74736
2.78747
2.52662
3.33294
3.28798
2.71529
2.89346
4.04608
0.666065
0.672084
0.674705
0.64946
0.632178
0.682585
0.679195
0.677791
0.639997
0.618071
0.614924
0.637084
33.3661
28.5129
8.199
12.7027
5.57301
5.25704
7.08974
6.39609
7.64409
0.586401
0.589601
0.593518
0.605454
0.622144
0.617249
0.58681
0.59241
0.584679
0.592613
0.594124
0.620046
0.583552
0.580141
0.58084
0.581875
0.58299
0.585007
0.582523
0.583102
0.580664
0.581401
0.581842
0.583834
1.5018
1.21339
1.04286
0.609918