/*--------------------------------*- C++ -*----------------------------------*\
| =========                 |                                                 |
| \\      /  F ield         | OpenFOAM: The Open Source CFD Toolbox           |
|  \\    /   O peration     | Version:  v2012                                 |
|   \\  /    A nd           | Website:  www.openfoam.com                      |
|    \\/     M anipulation  |                                                 |
\*---------------------------------------------------------------------------*/
FoamFile
{
    version     2.0;
    format      ascii;
    class       surfaceScalarField;
    location    "100";
    object      phi;
}
// * * * * * * * * * * * * * * * * * * * * * * * * * * * * * * * * * * * * * //

dimensions      [0 3 -1 0 0 0 0];
oriented        oriented;


internalField   nonuniform List<scalar> 
20094
(
-1.12877
-0.842513
-1.48994
0.361176
0.890061
-1.73257
0.00188439
-1.49183
-1.57159
-1.09743
-1.73069
-1.83732
0.345493
-1.5675
-0.00409324
0.755167
-1.8526
-1.67623
-0.0544591
0.11221
-1.94953
-1.222
-1.87809
-1.23249
-1.55502
-0.297578
-1.56402
-1.60948
-1.4663
-0.483225
0.823727
-2.04573
-1.05436
-1.55463
0.322143
-1.85221
0.179105
-1.74312
-1.49557
-0.113908
0.0474714
-1.51377
1.23464
-1.71787
-0.811089
-1.71055
0.656192
-1.64923
-1.13348
-0.718725
-1.31646
-1.69565
-1.24739
-0.250762
-1.26301
-1.09994
-0.617926
0.860868
-1.67196
-0.849683
-1.14052
-1.64368
-0.00554175
0.760457
-1.47918
-1.91328
0.596813
-1.09579
-0.599859
0.163561
-1.41095
-1.3507
-0.340626
-0.922386
0.946649
-1.56458
-0.725308
-1.68266
0.832979
-1.47699
0.336466
-0.883228
1.59182
-1.59736
-1.31562
-1.12282
-0.790453
-0.814139
-1.43642
-1.72268
-0.502011
-0.848692
-1.4244
-0.855503
-0.709072
0.904663
-1.62997
-0.777999
-0.644008
-1.36514
0.960343
-1.84357
-0.341111
-0.63702
-0.866386
-0.449236
1.01865
-1.8091
-1.68052
-0.462294
-0.974126
-1.07071
-0.651971
-1.70419
-1.88669
0.783798
-1.49287
-0.846174
0.890108
-1.66811
1.09277
-1.73678
-0.272368
-1.15648
-0.687092
-2.21508
1.05614
-1.69316
-1.60571
-0.661876
-0.959884
-0.849217
-2.04484
-1.61186
-1.42182
-0.282373
-0.413367
-1.47332
-1.22654
-0.266335
0.643805
-1.48998
-0.846668
-1.0243
-1.862
0.981886
-1.66898
-1.15894
-0.711272
-1.02801
-0.577707
-1.68988
0.897041
-1.74626
-1.13041
-0.914425
0.000410645
-1.61227
-1.83519
-1.50891
-0.315373
-1.15795
-1.75631
1.08917
-1.93584
0.990468
-2.01477
-0.77283
-1.11029
-0.558685
-1.60179
0.442853
0.656579
-1.36785
-1.688
-0.792843
-1.74585
-1.44579
0.400849
-1.31527
-1.21142
-0.252494
-1.58269
0.56483
-2.07374
-1.41045
-1.19148
-0.945369
-1.51177
-0.503001
-2.23451
1.23933
-1.79801
-0.945213
-1.35391
-0.128523
-1.15622
-0.531782
-1.94906
-0.986023
-0.759824
-0.479921
-0.965865
-0.811259
-0.504014
-0.254008
-0.95741
-0.421007
-1.16169
-1.065
-1.00874
-0.212193
-1.19825
0.5059
-1.69738
0.837422
-1.78279
-1.00587
1.08038
-1.58338
-1.39709
-0.905812
-0.8922
-1.26509
0.319873
-1.36897
0.0150654
-1.39361
-1.43759
-0.250002
-1.69906
-1.24003
0.594847
-1.35467
-1.29118
-1.17806
-1.46142
-1.48601
0.11579
-1.27748
0.813466
-1.82221
-1.08246
-0.883917
-0.702407
0.472086
-1.47795
-1.1113
-0.00260039
-1.39449
0.372859
-1.26506
-1.0491
-1.68658
-1.86301
0.469404
-1.68033
0.242733
-1.93033
-1.10421
0.0234779
-1.26351
-1.33119
-0.837864
-0.453317
-0.231377
-0.946681
-0.643644
-0.81778
-0.817018
-0.668988
-0.133499
-1.14398
-0.458574
-1.36363
-0.0396614
-1.0428
0.946152
-1.83007
0.6626
-1.36501
-0.531802
-1.12421
0.0129145
-1.32204
-0.731885
-1.49016
-1.02233
0.53652
-1.58562
-1.15006
-1.11621
-0.696482
-1.23385
-1.80069
-0.340277
-0.923231
-0.961626
-0.369567
-1.06924
-1.09696
-0.986342
-1.15806
-0.950517
-1.12756
-0.870423
-0.273555
-1.15144
-0.212194
-0.672053
-0.37075
-1.26215
-0.567916
-1.42653
0.0615216
-1.65602
-1.41361
-0.656985
-0.665055
-1.38887
-1.0146
-0.475559
-2.03692
-1.41154
0.261485
0.756072
-1.87229
-1.57465
0.340806
-0.760297
-1.0404
0.10078
-1.02401
-0.860846
-1.12986
-0.821155
-0.248085
-0.543233
-0.553728
-0.573335
-0.413008
-0.422464
-0.735593
0.0647836
-1.0153
-1.06278
-0.0563163
-0.814107
-0.945607
-0.167494
-0.983944
-1.47435
-0.944084
1.27337
-1.84129
-1.32735
-0.382645
-1.55607
0.142457
-1.82907
1.1918
-1.66736
-1.64094
-0.395981
-0.655473
-1.32819
-0.680482
-0.345366
-1.22929
-1.30013
-1.38576
-0.247743
-0.776269
0.17732
-1.03817
-0.952544
-0.338737
-0.482418
-0.791318
-0.976192
-0.751745
-0.983336
-1.07162
-1.23027
-0.617655
-0.196451
-0.634633
-0.310975
0.297548
-1.28149
-1.1768
-0.678861
-0.265223
-1.35393
-0.487355
-1.5931
0.265753
-1.93872
-1.45064
-1.56331
-1.37404
-0.29332
-1.77002
1.01289
-1.66836
-0.315302
1.04571
-1.72619
0.355668
-1.58496
0.62377
-1.92391
-0.0427755
-1.34299
0.224546
-1.00081
-0.813621
-0.99532
0.320891
-0.803309
-0.470426
-0.376542
-0.59965
-0.640506
-0.111239
-0.112113
-0.871223
-0.451196
-0.620421
-0.30751
-0.922762
-1.06885
-0.831084
-0.989836
-0.253474
-1.02802
-0.0621978
-1.1146
-0.905729
-1.41613
1.24737
-1.73473
-0.691346
0.362582
-1.81323
-1.28383
-0.279487
1.19745
-1.49077
-1.14625
-0.622653
-1.77703
-0.528746
-1.56824
-1.05801
-0.526943
-0.572716
-0.77027
-0.688882
-0.311932
-0.0948882
-0.718732
-1.09021
-0.914549
-0.846968
-0.711763
-0.181043
-0.690181
-0.927932
-1.17624
-0.021553
-1.0473
0.247538
-1.07862
-0.742297
0.251619
-1.27964
-0.862983
-0.0616331
-0.844096
-0.743334
-0.672793
-0.918268
-0.816459
1.03549
-1.72684
-0.921246
-0.777733
-1.27648
-2.15823
0.667466
0.682389
-1.82864
1.05239
-1.67504
-0.724643
-1.44523
0.916486
-1.38996
-0.178274
0.122413
-1.18043
-1.09966
0.126504
-0.896774
-0.869925
-1.03066
-0.963704
-0.614919
-0.29963
0.00167335
-0.848642
-0.71009
0.0327088
-0.722889
-0.949485
-0.174866
-1.00137
-0.925735
-0.121564
-0.607819
-0.470803
-0.783824
0.0415272
0.170673
-1.45031
-1.60632
-0.676552
-0.418713
-0.425383
-1.59106
1.22756
-2.04402
-0.499275
0.65979
-1.58104
0.890438
-1.66817
-0.616693
-1.47584
-0.777765
-1.4218
-0.406837
-0.758553
-2.04413
-1.26755
-1.60008
-0.605915
-0.574511
0.0332134
-1.13287
-0.863561
-0.354331
-0.515593
-0.431512
-0.599152
-0.266296
-0.697408
0.344913
-0.644543
-0.503728
-0.677381
-0.135706
-0.587183
-1.12435
-0.830697
-0.690467
-0.235267
-0.729383
0.287545
-0.758348
-0.496279
-0.377186
-0.967876
-0.482434
-0.0687198
-1.5376
-0.625058
-0.0514937
-0.370952
-0.0544308
-1.65978
-0.896657
-1.14737
1.03707
-1.53635
-0.690598
-0.631099
-1.43688
-1.44993
-0.0259183
-1.80745
1.02969
-1.85676
0.732131
-1.49068
-1.312
-0.832439
-0.435111
-1.18105
-0.419031
0.375588
-0.981503
-1.40695
-0.757285
0.00696883
-0.87053
-0.785844
-0.6513
-0.865448
-0.69044
-0.568974
-0.0755688
0.0591319
-0.56286
-0.618249
0.0512652
-0.638448
-0.307362
-0.816989
-1.13806
-0.0152043
-0.675263
0.476446
-0.711713
-0.252938
-0.4125
-0.345848
-0.676173
0.179894
-0.748138
0.0385982
-1.00647
0.498971
-0.981406
-1.499
-0.679489
-0.620468
-0.0696834
-1.5901
0.281633
-1.17829
-1.21705
-1.71025
0.173904
0.685695
-1.37629
-1.86396
1.23286
-0.751189
1.54839
-1.57431
-0.259065
-0.460997
-1.04127
-0.815495
-1.03355
-0.278449
-1.61616
-1.4603
0.00368204
-0.985185
-0.545004
-0.861946
0.0491304
-0.806415
-0.821399
0.0532373
-0.839081
-0.598062
-0.115629
-0.749819
-0.806069
-0.638429
-0.566984
-0.113396
-0.525052
-0.832193
-0.639088
0.103365
-0.778627
-0.55461
-0.157103
-0.665437
0.29828
-0.644128
-0.377893
-0.568244
-0.033072
-0.973402
-0.841852
-0.139554
-0.748613
-0.750386
0.0165492
-0.696038
-0.617276
-0.00319222
-0.399669
-1.19043
-1.42862
-0.290255
-0.888035
-1.5073
-1.69006
-0.14343
-1.38628
-1.74812
0.173812
1.32831
-1.58737
-1.49455
0.561798
-1.37729
-1.44251
-0.690406
-0.925752
0.0766995
-1.537
-0.802733
-0.20392
-0.781265
-1.23541
-1.06587
-0.158012
-0.663387
-0.338145
-0.500936
-0.711459
-0.330911
-0.418908
-0.494211
-0.311858
-0.0573501
-0.581079
-0.624334
0.127752
-0.652804
-0.202453
-0.62974
-0.841541
-0.451245
-0.176272
-0.602356
0.418883
-0.575986
-0.246555
-0.303154
-0.340974
0.211583
-0.589476
-0.493193
-0.0750507
-0.874924
-0.423169
-0.550232
-0.981095
-1.14828
-1.17356
-0.600727
-0.344243
-0.351795
-0.584271
0.239507
-1.42994
-0.735489
-0.69313
-1.62352
-1.2678
-0.207927
-1.48213
-1.52971
-1.18632
1.41433
-1.24051
-0.166239
-0.173049
-1.30059
-1.03165
-0.410862
0.279851
-1.2056
-1.25715
0.0873385
-0.890072
0.199475
-0.98074
-0.61813
-0.61728
-0.332251
-0.733616
-0.652223
-0.576049
-0.669056
0.131666
-0.632602
-0.579793
-0.730766
-0.496581
-0.295333
-0.357471
-0.806011
0.312562
-0.763807
-0.497732
-0.104624
-0.263425
-0.549709
0.170043
-0.511017
-0.28161
-0.419433
-0.419294
-0.606927
-0.267997
-1.15716
-0.766873
-0.214222
0.0662992
-1.21458
-1.10726
-0.156512
-0.444215
0.0658991
-0.417694
-0.0245825
-0.559689
-0.0853459
-1.34459
0.76215
-1.45528
-0.263981
-1.35954
-1.53178
0.932421
-1.14035
-0.719981
-1.9735
-1.6893
0.502982
-1.67104
0.430527
-1.19789
-1.71206
1.53902
0.297586
-1.59818
-1.40791
-0.559052
-0.646551
-0.237932
-1.01922
-0.690597
-0.311302
-0.669438
-0.950381
-1.17633
-1.04492
-0.36103
-0.291193
-0.937078
-0.307753
-0.361303
-0.277268
-0.355334
-0.106044
-0.473749
-0.381363
-0.349402
-0.521164
0.208424
-0.503757
-0.463515
-0.0607835
-0.745228
-0.489699
-0.274107
-0.558515
-0.594324
0.430294
-0.693719
-0.119415
-0.630431
0.277796
-0.559406
-0.503399
0.0839658
-0.141498
-1.03487
-0.235147
-0.922012
-0.95945
-1.29993
-0.035475
-1.07178
0.340635
-0.497146
-0.378316
-0.559192
-0.219054
0.207723
-1.55231
0.0954084
-1.55069
0.118461
-1.478
-1.32405
-1.04108
-0.869534
-0.270814
-1.58952
-1.39172
-1.16806
-1.28154
0.341126
-1.83611
-1.06678
-1.66577
0.104548
-0.795145
0.335368
-1.00481
-0.130952
-0.819428
-1.30728
-0.308531
-0.736386
-0.672557
-0.83253
-0.657155
-0.638571
0.1728
-0.528134
-0.300949
-0.31274
-0.232653
-0.271104
-0.206227
-0.257288
0.341526
-0.615634
0.316799
-0.875314
-0.277525
-0.352192
-0.546104
-0.0843271
-0.45531
-0.104096
-0.418668
-0.0847308
-0.371344
-0.749158
-0.285712
-0.984305
-0.957487
-0.683875
-0.275575
0.325264
-1.62519
-0.746518
-0.208211
-0.288935
-0.586527
-0.263861
-0.295331
-0.531794
-0.110056
-1.44226
-1.49411
-1.43223
-0.129581
-1.34842
-1.45364
-1.28908
-1.55989
0.732926
-2.12464
-1.65311
0.48505
-1.34055
0.0590121
-0.936312
-0.8998
-1.88701
-0.755222
-0.910545
-0.459777
-0.30041
-0.704396
-1.12796
-0.447426
-0.859858
-1.0368
0.183813
-0.85637
-0.388081
-0.444449
-0.473342
-0.216319
-0.422252
-0.25709
-0.271044
-0.507176
-0.489941
0.142038
-0.413142
-0.432935
-0.182699
-0.575623
-0.29969
-0.71046
0.158752
-0.510945
-0.387352
-0.502995
-0.367957
0.338901
-0.423632
-0.0324434
-0.969587
-0.89665
-0.0876547
-0.879571
-0.0779157
-0.851198
-1.73525
-1.62609
0.117634
-0.406569
-0.284397
-0.30213
-0.0317712
-0.26356
-0.389756
0.0644159
-1.50667
-1.50092
0.00681187
0.078429
-1.51066
0.15516
-1.50358
-1.38922
-1.60969
-0.920183
-0.656235
-1.46841
-0.855499
1.4316
-1.37259
-1.69153
-1.55604
-0.455407
-1.35797
-0.847859
0.083228
-0.787624
-0.350249
-0.77771
-1.21011
-0.486005
-0.550791
-0.612624
-0.243746
0.117992
-0.562441
0.0565533
-0.529896
-0.473409
-0.365698
0.23191
-0.502954
-0.275267
-0.144622
-0.345319
-0.366232
-0.0469101
0.316118
-0.498817
0.433536
-0.733227
-0.276923
-0.194826
-0.335294
-0.0520581
-0.349934
-0.153061
-0.411087
0.0431299
0.0116789
-0.435311
-0.44353
-0.612886
-0.356701
-0.974566
-0.700541
-0.723484
-0.127714
-1.07228
-0.662965
-1.28723
-0.33886
-0.272122
-0.340157
-0.0664116
0.0588523
-0.343249
-0.333902
-0.22043
-0.141869
-1.3648
-1.42249
-1.60288
-1.3555
-0.0753781
-1.4282
-1.4646
0.768857
-1.68904
-0.232069
-1.23634
0.880146
-1.73565
-0.492443
-0.870497
-0.821037
-0.541107
-1.01493
-1.09056
-0.327112
-1.03086
-0.649853
-0.198005
-0.566625
-0.454959
-0.332665
-1.26372
-1.53722
-1.00575
-0.494631
0.382439
-0.626185
-0.404238
-0.158203
-0.147456
-0.0505156
-0.422893
-0.416214
-0.174918
-0.328036
-0.419889
0.00422265
-0.349541
-0.362009
-0.319032
-0.576907
0.0780895
-0.520779
-0.212448
0.237317
-0.51424
-0.53012
-0.401992
0.197482
-0.350543
0.274746
-0.263067
-0.237829
-0.168784
0.319869
-0.67657
-1.29282
0.318251
0.220789
-0.921331
-0.403615
-0.648493
-1.21415
0.670186
-1.33315
-0.617043
0.729567
-1.06843
-0.281305
-0.385444
-0.147268
-0.195981
-0.154094
-0.179808
-0.374524
0.0156057
-1.38041
-1.3446
-0.0778917
-1.45398
0.0192278
-1.37472
0.0646497
-1.49285
-1.44899
-0.966789
-1.69256
0.00351599
-1.92462
-1.77744
1.53436
-2.0268
-1.88543
-1.8519
-0.602243
-0.56795
0.00132427
-0.900615
-0.225983
-1.03773
-0.218499
-1.31872
-0.717142
-0.288608
-0.364368
-0.130263
-0.341479
-0.284707
-0.522571
-0.56367
0.00289552
-0.425789
0.212119
-0.387038
-0.32514
-0.207769
-0.159744
-0.189797
-0.18518
-0.17683
-0.33959
-0.452031
0.50625
-0.718698
-0.00799001
-0.493623
0.0916311
-0.327624
-0.0229188
-0.36043
0.0973631
-0.32376
0.0859312
-0.252927
0.0841423
-0.45578
-0.56325
-0.60308
0.324036
-0.727651
-0.324457
0.224581
-1.43873
-1.10857
0.708437
-1.32548
-0.35999
-0.241389
-0.0399157
-0.147052
-0.238392
-0.327076
-0.43737
-0.37966
0.0051364
0.137769
-1.51818
-1.32537
-1.53187
-1.31007
-0.0676662
-1.42519
-1.51666
-1.50472
0.537932
-1.5012
-1.26252
-0.662099
-0.335288
-1.44216
-1.48887
-1.21721
-0.668213
-0.925705
-0.926191
-0.484907
-0.117336
-0.483583
-0.536671
-0.363944
-0.943125
-1.25623
-0.322933
-0.995786
-0.825279
-0.471742
0.106273
-0.39098
-0.482486
-0.0400858
-0.467008
-0.0966619
-0.265758
-0.16003
-0.167452
-0.219586
-0.236582
-0.0885578
-0.367514
-0.374977
-0.323882
-0.446228
0.106638
-0.392253
-0.0597778
-0.352744
-0.365954
-0.454218
-0.303
-0.190623
-0.235993
-0.346679
-0.274499
-0.155563
-0.295518
0.364013
-0.819793
-1.02898
0.465729
0.515637
-1.11872
-0.363638
-0.6772
-1.30096
0.194688
-1.30326
-1.28819
-0.0372916
0.532694
-0.892684
-0.278307
-0.32194
-0.176245
-0.261125
0.112814
-1.63099
-1.17967
-0.145702
-1.18577
0.180537
-1.49061
-0.0423896
-1.3828
-1.40384
-1.82322
0.322013
-1.59781
1.10498
-1.76708
-0.30096
-1.1412
-1.73689
-1.51817
-1.59392
-1.24912
-0.599822
0.262219
-0.745802
0.196727
-0.560671
0.17405
-1.11718
-0.891712
-0.364519
-0.143202
-0.852584
-0.666698
-0.158581
-0.353568
-0.118174
-0.360735
-0.294802
-0.0961775
-0.393653
-0.36242
-0.396613
0.168142
-0.335594
-0.308144
-0.199372
-0.136837
-0.23814
-0.0603269
-0.263555
-0.285615
-0.362778
0.135063
-0.501017
-0.612228
0.158011
-0.43579
0.245167
0.137206
-0.373199
-0.209473
-0.346034
0.0715348
0.175959
-0.331522
-0.119559
-0.304157
-0.496284
-0.652988
0.385324
-0.748962
-0.291876
0.606257
-1.90722
-1.0935
-0.697001
0.945158
-0.98245
0.0524742
-0.338634
-0.043655
-0.278285
-0.2199
-0.1498
-0.111325
0.0897947
-1.72079
-0.99913
-1.33147
-1.533
-0.351548
-1.03125
-1.75539
-0.718237
-1.41488
-0.649712
-0.9481
-0.95976
-0.80732
-1.79091
-0.242865
-1.27531
-1.17431
-0.419608
-0.321765
-0.927359
-0.337603
-0.53916
-0.206642
-0.342433
-0.499989
-0.0606814
-0.492647
-0.636354
-0.480822
-1.03491
-1.00087
-1.17435
-0.658571
-0.412977
-0.22706
-0.133675
-0.323238
0.235816
-0.629469
0.0331971
-0.395617
-0.363416
-0.0479448
-0.287649
-0.356089
-0.336209
0.0525015
-0.290641
-0.211053
0.214296
-0.499911
-0.148482
0.431731
-0.296668
-0.41261
-0.0884075
-0.180497
-0.341901
-0.21847
-0.21732
-0.128032
-0.268015
0.0585424
-0.234172
-0.111862
0.242035
-0.1705
-0.0894877
0.181605
-0.301164
0.475039
-0.779195
-0.849876
0.353592
-0.979869
0.326881
-0.273923
-0.704486
-1.81743
-1.20729
0.113786
-1.90429
-1.26674
0.284293
-0.797402
-0.0433001
-0.295334
-0.0966801
-0.0545432
-0.165357
-0.204343
0.0888848
-0.20021
-0.497958
-1.22283
0.791479
-1.79061
-0.741905
-0.791097
-1.77316
-0.807271
-0.94812
1.46471
-2.18294
-1.90786
0.739107
-1.54643
-0.165243
-1.62567
-1.41718
-1.44055
-1.34697
0.232933
-0.570536
0.302457
-0.509098
-0.545255
0.202822
-0.605936
0.343503
-0.836151
0.508608
-0.98943
-0.79059
-0.244324
-0.656844
-0.344029
-0.0667842
-1.10756
-0.315067
-0.177161
0.190264
-0.323939
-0.378537
0.0552991
-0.396536
-0.205354
-0.193567
-0.169848
-0.211717
-0.0759324
-0.0801259
-0.275963
-0.216109
-0.120099
-0.11963
-0.171011
-0.254353
-0.366952
-0.470047
0.173379
-0.558455
-0.426149
0.245651
-0.405253
0.0633519
-0.2996
0.0822799
0.197444
-0.325476
-0.0705714
-0.175629
-0.224684
0.112822
-0.254861
0.0843615
0.137529
-0.227016
-0.163635
-0.889525
0.11033
-0.626277
-0.562644
0.329873
-0.603796
-0.374613
-1.19838
-0.619051
-1.15296
-1.58077
-0.323519
0.982361
-0.698068
0.184959
-0.206449
-0.262037
0.00797442
-0.212318
-0.192235
-1.30523
-0.064671
-1.15816
-1.06229
-1.85339
-0.479296
-1.29386
-1.42742
-1.44383
-1.32865
-0.579213
-1.04473
-0.501694
0.140979
-1.76664
-1.28444
-0.132738
0.360095
-1.80064
-0.246247
-1.10072
-0.268079
-0.306277
-0.0538547
-0.552081
-0.327543
-0.612919
-0.376511
-0.857374
-0.901168
-0.956948
-1.35381
0.264821
-0.579888
-0.555698
-0.26864
-0.438785
0.0422493
-0.398921
0.0652594
-0.235108
-0.291843
-0.292042
-0.210703
-0.23973
0.0402445
-0.211255
-0.214109
-0.429351
0.0623994
-0.25277
0.0119811
-0.570436
-0.159601
-0.365999
-0.2372
0.315997
-0.233717
-0.00947916
0.226924
-0.297496
0.051295
-0.173389
-0.142039
-0.142655
0.0735462
-0.237181
0.564269
-0.453939
-1.04904
0.422767
-0.920078
0.357434
-0.0395275
0.163271
-0.537884
-1.26305
0.720024
-1.33908
-1.74396
0.591003
-0.860745
0.94808
-1.2716
-1.40102
0.702952
-0.864085
0.0228386
-0.229288
-0.0138562
-0.248181
-0.226174
0.0218549
-0.21409
-0.460734
-0.844496
-1.61889
-0.943872
-0.400812
-0.893048
-1.0084
-0.41902
-1.29495
-1.18767
-1.62395
-1.79665
-0.691901
-1.07474
-0.924343
-1.23346
-0.782724
-1.01792
0.291625
-0.559705
0.217246
-0.523523
0.487365
-0.54122
-0.287261
0.664406
-0.99195
0.520086
-0.896597
0.4307
-1.28807
-0.470468
-0.59923
-0.357718
-0.440484
-0.913327
0.0845184
-0.381097
-0.1746
0.17583
-0.44447
-0.14716
-0.338848
-0.223091
0.0965985
-0.331706
-0.207598
-0.0842449
-0.169594
-0.122448
-0.114105
0.00151132
-0.241241
-0.209744
-0.19127
0.304021
-0.556791
0.364235
-0.352253
-0.407165
0.223356
-0.382958
-0.142643
-0.333841
0.0966412
-0.295164
0.0614471
0.210912
-0.220391
-0.0865836
0.0991263
-0.272515
-0.25988
0.117841
0.0798473
-0.222502
-0.174634
-0.157334
-0.827532
0.373593
-0.497311
-0.470098
-0.577411
0.314653
-1.5777
-1.02442
-0.79588
-0.810017
0.959706
-1.82045
-0.311893
-0.161132
-0.207433
-0.166356
-0.0598183
-0.0786589
-0.135431
-1.85289
0.0518922
-1.67078
-1.34468
-1.31207
0.369622
-1.55729
-1.25432
-1.45056
-1.47462
0.268556
-1.3433
0.870994
-1.79534
-0.362465
0.77651
-1.79443
-0.342458
-0.0361578
-0.243142
-0.298078
-0.530402
-0.471864
-0.587395
-0.309203
-0.781378
-0.506695
-1.0697
-0.945113
-1.22186
-1.27579
-0.445884
0.0828061
-0.257407
-0.350838
-0.0936317
0.302108
-0.449269
-0.0367395
0.090071
-0.313162
-0.241635
-0.321702
-0.253839
0.0861553
-0.208604
-0.155086
-0.0271235
-0.18262
-0.218394
-0.0789367
-0.192556
0.213699
-0.565952
0.173046
-0.580211
-0.294906
0.152263
-0.377753
0.0439113
-0.198523
0.294046
-0.232599
0.0736544
0.156317
-0.242901
-0.160754
-0.116198
-0.104661
0.0382846
-0.212919
0.041057
-0.198391
-0.203818
0.642868
-1.14018
-0.713032
0.242934
-1.52581
0.703266
-1.72769
-1.48835
0.692468
-1.35236
0.542344
-1.11719
-1.80024
0.737246
-0.898379
-0.157753
-0.0496797
-0.128071
-0.138477
-0.00932474
-0.126107
-1.61255
-0.240338
-0.970921
-0.699863
-0.263069
-1.57514
-1.28874
0.0432095
-1.29753
-1.40735
-0.167239
-1.30739
-1.51054
-1.01883
-0.528934
-1.2655
-0.452412
0.109954
-0.48857
-0.513102
0.215024
0.237178
-0.709042
0.551069
-0.860271
0.72102
-1.22772
-0.348678
-0.592084
-0.353029
-0.584322
-0.63754
-1.86011
0.327786
-0.77367
-0.268032
-0.341488
0.0840813
0.224684
-0.318316
-0.387295
-0.0619733
-0.378227
-0.0884779
-0.202561
-0.039074
-0.202907
-0.118796
-0.0363084
-0.21753
-0.158442
-0.0501616
0.0317261
-0.186812
-0.150894
-0.12897
-0.0894239
0.284165
-0.363102
-0.34925
0.156693
-0.135551
-0.392906
-0.443367
-0.136844
-0.0107403
-0.22549
0.261521
-0.217609
0.0629975
-0.246567
0.0139679
-0.169246
0.0542548
-0.215009
0.113638
-0.229837
0.0787014
-0.183362
-0.171862
-0.119689
-0.647185
-0.0701643
-0.402933
0.59104
-0.348106
-0.880325
-0.645482
-1.30392
-0.423772
-0.659893
1.20004
-0.6577
-1.68971
0.572529
-1.17664
-0.623598
0.301666
-0.167078
-0.178649
0.0956724
-0.223743
-0.0428047
-0.168911
-0.424702
-1.18785
-1.81548
-1.39562
-1.58019
0.356524
-1.64526
-0.941009
-0.867363
-1.83632
0.102928
-1.61347
0.607946
-1.62677
0.337353
-1.60285
-0.277341
-0.434571
-0.0539996
-0.185316
-0.219546
0.717335
-0.480157
-0.157973
-0.596588
-0.263683
-0.90037
-0.327346
-0.940762
-0.949617
-1.53791
-1.25217
-0.0563347
-0.183951
-0.0430781
-0.275237
0.344594
-0.406567
-0.0336338
-0.291039
-0.241981
0.110903
-0.229698
-0.19475
-0.106628
-0.236974
-0.240318
-0.414374
0.051272
-0.257681
0.375219
-0.51077
-0.452802
0.0598961
-0.589646
0.279619
-0.290359
0.0541289
-0.302958
0.0853485
-0.183569
-0.179606
0.193574
-0.219587
0.0503409
0.217575
-0.16332
-0.10137
-0.194878
-0.034959
0.0342126
-0.142422
-0.0294402
-0.131111
0.0114215
-0.0561454
0.687205
-0.757369
-0.972011
0.569078
0.339099
-1.9494
-2.11349
-1.60245
0.942555
-1.30616
0.64846
-0.604114
-1.15697
0.533371
-0.670345
-0.129391
-0.0376872
-0.102426
-0.0762236
-0.096722
-0.127021
-0.0070828
-0.161829
0.572341
-1.76019
0.226122
-1.62174
-1.35407
-1.54233
-1.80837
-0.860294
-0.976025
-0.395252
-1.21821
-1.3328
-0.293975
-0.995447
-0.201451
-1.4014
0.177139
-0.45448
0.312228
-0.366227
-0.551968
0.366652
0.242184
-0.46173
-0.665812
0.185655
-0.823785
0.541058
-0.804742
1.02541
-1.35276
0.0846487
-0.864968
-0.284729
-1.25318
-1.14988
-0.102288
0.47576
-0.532094
0.151044
-0.334995
0.17282
-0.215898
-0.124193
-0.229428
0.261336
-0.29497
-0.118219
-0.0167638
-0.225217
-0.171907
-0.0577913
-0.109246
-0.0855043
-0.215874
-0.110752
-0.126221
-0.080716
-0.159602
0.305292
-0.25402
0.117538
-0.369921
-0.140849
-0.310024
-0.443581
-0.146065
0.0149331
-0.248829
0.253802
-0.168454
0.0702333
-0.186264
0.00665785
-0.026013
-0.144537
-0.159037
-0.00428369
0.0962836
-0.197654
0.108157
-0.143116
-0.0968984
-0.131
-0.126162
-0.499727
-0.843706
0.0863367
-0.274628
-0.160628
-0.691639
-1.25776
-1.55602
-0.557463
-1.48307
-0.119381
-0.363605
0.940153
-0.291693
-1.76108
-0.949696
0.269808
-0.136474
-0.140113
-0.15694
-0.0946783
-0.0323431
-0.0813687
-0.08046
-0.368152
-1.9899
-2.04571
-1.25023
-0.292098
-1.08007
-1.25555
-1.17748
0.21771
-1.43592
-1.44385
0.879997
-1.87544
-0.502487
-0.898911
-0.142252
-0.124043
-0.0762084
-0.0950786
0.484985
-0.29933
-0.282727
0.344237
-1.14898
-1.00749
-0.345268
0.256843
-1.12181
-1.29222
-1.35547
-0.0471094
-0.0736589
-0.147366
-0.0685323
-0.271559
0.11633
-0.345758
0.0220916
-0.317061
0.0747192
-0.192938
-0.188671
-0.150498
0.099775
-0.157566
-0.196256
-0.116099
0.024335
-0.150556
-0.135267
-0.341956
0.0879359
-0.224418
0.202556
-0.343405
0.263903
-0.573928
0.317523
-0.463588
0.264995
-0.250062
0.0161658
-0.293159
0.124706
-0.116031
-0.1641
0.170758
0.158295
-0.184308
0.0137584
-0.0627529
-0.148026
0.143742
-0.0894967
-0.175961
0.0328447
0.0924909
-0.189389
-0.0385094
0.00267511
-0.128837
0.788834
-0.702498
0.567162
-0.84179
0.482299
-0.642926
0.498292
-1.75605
-1.05773
1.10022
-1.65768
-1.30429
1.18491
-1.26624
0.902631
-1.16733
0.875637
-1.92693
0.165843
1.01363
-1.96333
0.917934
-0.648126
-0.109121
-0.0273531
-0.0882989
-0.0518141
-0.0678041
-0.0891355
-0.0920032
-0.113712
0.0346073
-0.115067
-0.462542
-1.10824
-0.937461
-1.03252
-1.37217
0.218673
-1.47422
-0.958804
-0.227504
-1.20842
-0.563857
-1.11471
-0.760732
-1.6172
-1.85771
0.213864
-0.356116
0.25146
-0.375503
-0.515601
0.439393
0.30684
-0.401919
0.369952
-0.669282
-0.63272
0.349993
-0.288483
-0.892135
0.783724
-1.12899
-0.338088
-1.15712
-0.135099
-1.19655
-0.158914
0.408362
-0.455471
0.202169
-0.275828
0.148303
-0.216835
-0.0693902
0.257716
-0.141385
-0.131894
0.247551
-0.22546
-0.0593458
-0.044635
-0.00940519
-0.179265
-0.160698
0.0102004
-0.166709
0.00914285
-0.125624
-0.0706323
-0.134515
0.0184159
-0.0647868
-0.0857697
-0.01942
-0.115847
0.263876
-0.175941
0.149903
-0.374321
0.436173
-0.233617
-0.0795021
-0.256405
0.0187107
0.0138148
0.190196
-0.17403
-0.102963
0.249282
-0.124577
0.133251
-0.0308484
-0.0135504
-0.162203
0.0686426
-0.131395
-0.0793836
-0.0456469
-0.120887
0.0313906
-0.0880426
-0.167347
0.145908
-0.135336
0.0761449
-0.781242
-0.974808
0.402252
-1.45998
-0.826706
-1.25543
-0.290662
-0.0813222
-0.264699
0.22751
-1.79749
-0.0745132
-0.115652
-0.119618
-0.108556
0.0511004
-0.143104
-0.0626113
-0.0540035
-0.0610639
-1.57079
-1.7187
0.462667
-1.49519
-1.70172
0.413578
-1.622
-1.76041
1.0208
-1.78153
-1.08152
-0.535678
-0.751015
-1.1067
-0.104656
-0.0686631
-0.107239
0.0374739
-0.0855195
-0.627112
-0.0421695
-0.277119
-0.74856
0.460077
-0.674522
-0.217613
-1.01181
-0.117186
-1.01261
-1.31603
-1.14691
-0.0282767
-0.178933
-0.0379027
-0.248323
-0.290822
0.149436
0.189901
-0.321796
-0.184193
-0.0412664
-0.243539
-0.205333
-0.176114
-0.169065
-0.125372
-0.107208
-0.135419
0.0481697
-0.133939
-0.0676774
-0.346297
0.170356
-0.196394
0.0618521
-0.354792
0.121175
-0.434294
-0.47996
0.223555
-0.461249
0.281759
-0.267944
0.107729
-0.166124
0.063161
-0.195302
0.0707251
-0.177842
0.146994
0.161064
-0.174614
-0.00113882
-0.156336
0.0249404
-0.103312
0.023928
0.103262
-0.148909
-0.124945
0.0976243
-0.185667
-0.064085
0.586739
-0.440831
0.484295
-0.619631
0.709322
-0.633178
0.945701
-1.92051
-0.514283
1.06107
-1.88778
-1.08807
-0.167364
-1.69708
1.40642
-1.25307
1.17174
-1.00646
0.741761
0.76103
-0.53352
-0.736414
0.0355455
-0.110059
-0.0801065
-0.0807285
-0.0388898
-0.0492573
-0.0592982
-0.0346066
-0.108497
-0.116615
0.0498935
-0.110957
0.0765705
-1.64213
-0.493101
-1.20862
-0.378873
-0.739609
-0.980951
-0.800583
-1.83254
-1.51663
-1.5998
0.271279
-0.375935
0.225966
-0.29463
0.335771
-0.44301
0.36635
-0.328876
0.377896
-0.463416
0.49163
-0.5338
-0.630362
0.353243
0.320727
-1.06929
-0.170285
0.534136
-0.751749
0.788386
-0.905572
-0.224224
-1.57822
0.262188
-1.26483
0.117923
0.21018
-0.238456
0.155424
-0.193327
-0.0381433
-0.10092
-0.0941027
-0.0505165
0.20671
-0.247976
-0.0499094
-0.0448717
-0.131243
-0.000117003
-0.168948
-0.168202
0.0428303
0.0258362
-0.133044
-0.109583
-0.0949762
-0.0389632
-0.116935
-0.0975876
-0.322617
0.126223
-0.260765
0.325192
-0.204017
-0.444837
0.010543
-0.221282
0.12549
-0.0583959
0.1954
-0.132239
9.86388e-05
0.192637
-0.121912
0.0147946
-0.0276204
0.116466
-0.117605
-0.0783711
0.132222
-0.108294
-0.0166867
-0.0273211
-0.0692004
0.0553259
-0.119411
-0.842292
0.401461
-0.357996
0.0896912
0.127852
-0.515646
-1.40486
-1.60235
-1.36271
-0.525067
-1.53007
0.49572
-2.1928
0.153351
0.165284
1.273
-0.531243
0.739484
1.08226
-1.81867
-0.0601652
0.00311895
-0.0832255
-0.0776095
-0.098188
0.0694692
-0.104076
-0.0531711
-0.0471456
-0.0407136
-0.0702438
0.108866
-1.58749
1.007
-1.74661
0.8623
-1.66288
-1.02392
-0.808621
0.157681
-1.67431
-0.567465
-1.03233
-0.149969
0.07172
0.482231
-0.14646
-0.065114
0.153355
0.0282145
-0.180556
0.671312
-0.350586
-0.535151
0.501027
-0.847285
0.0955363
-1.11882
0.213248
-1.07151
-0.571219
-1.00264
-1.0009
-0.0317469
-0.20232
0.00899338
-0.240463
0.167999
-0.268919
0.154176
-0.248278
0.190118
-0.240635
-0.0938004
0.0951129
-0.145022
0.103219
-0.148091
-0.13136
-0.0738351
-0.0649832
-0.0902139
-0.00252264
-0.10706
-0.0974988
0.0662304
-0.105194
-0.0507043
0.138631
-0.236218
0.237615
-0.111393
0.0644272
0.13478
-0.338797
0.402431
-0.391888
0.286975
-0.508257
0.436416
-0.310926
0.161627
-0.220023
0.0293875
0.167021
-0.166922
0.0451088
-0.142633
0.157428
-0.124992
0.0973716
-0.16384
0.0462349
0.0797452
-0.158116
-0.0285488
0.0922266
-0.108913
0.0879174
-0.115238
-0.120638
0.0514376
-0.0271843
0.538193
-0.136732
-0.647645
0.289649
-0.557954
-0.653596
0.781449
1.28448
-1.80013
-1.296
-0.317869
1.08714
-1.61221
-1.27903
-0.251046
-1.29601
1.79173
-1.11054
-1.21199
1.36534
1.05296
-0.887674
0.521715
0.085888
-0.73153
0.0520499
-0.112215
-0.0311756
-0.043524
-0.0340856
-0.0503245
-0.0478635
-0.0418751
-0.0622008
-0.0950462
-0.0878592
-0.00988989
-0.0603539
-0.195461
-0.88431
-1.5052
0.470109
-1.49402
-1.37609
-1.2042
-1.2278
-0.302159
0.15219
-0.230439
0.264476
-0.410936
0.347425
-0.412539
0.35094
-0.197585
0.373803
-0.345588
-0.491125
0.310568
0.431298
-0.781883
-0.659671
0.12452
0.00990231
-0.564134
-0.85826
1.30725
-1.87847
0.304607
-1.12412
0.12322
0.178132
-0.209879
0.167375
-0.158382
-0.0623309
-0.0802794
-0.0788008
-0.319803
0.0791677
0.112508
-0.206308
0.022353
-0.102417
-0.0456738
-0.0867466
-0.044613
-0.160582
-0.135246
0.0702628
0.0346103
-0.124824
-0.07245
-0.020727
-0.0767718
-0.0665063
-0.0386873
-0.101029
0.320678
-0.182047
0.00139706
0.174764
-0.286157
0.257271
-0.192844
0.33947
-0.20469
0.0636343
-0.104914
-0.0718408
0.227267
0.100655
0.140133
-0.110746
-0.0267889
0.13292
-0.0878109
-0.00971385
0.0324361
-0.0664685
-0.0744031
-0.0701989
-0.0933484
0.0647996
-0.113206
0.00429265
-0.139859
0.0246203
-0.0884212
0.0604501
-0.0876344
-0.655532
0.5188
0.637009
-0.34736
0.223495
-0.541253
-1.25887
-1.5969
-1.15866
-0.453551
-1.40971
-1.88431
0.588303
0.579739
0.809883
-1.92042
0.477667
1.18818
-0.666461
-0.757284
0.843172
0.85122
-1.58275
-0.0525458
-0.0596692
-0.0746995
-0.0819491
-0.0736043
0.0114035
-0.0345961
-0.00909716
-0.078762
-0.0624357
-0.0694511
1.19953
-2.08384
-0.102151
-1.40305
-0.589372
-0.904652
-0.299548
-1.07654
0.0793316
-1.28353
-0.167612
0.120501
0.354603
-0.0901273
-0.0635105
-0.0387363
0.157018
-0.551573
0.205985
-0.241005
-0.172893
0.604191
-0.741033
-0.0408504
-0.616513
0.509617
-0.499714
0.670802
-1.23494
-1.0034
0.145141
-0.678937
-0.81951
-0.880182
-0.191383
-0.0184962
-0.218629
0.0602468
0.135358
-0.197689
0.149283
-0.229562
-0.274507
0.195706
-0.195339
-0.0788749
-0.0570257
-0.138229
-0.14703
0.0904632
-0.136137
-0.0447827
-0.0545614
0.00426155
-0.0767116
-0.0872334
-0.0725102
0.0430863
-0.0817736
-0.0579425
-0.20611
0.0240625
-0.204713
-0.0299483
-0.028886
0.146626
-0.265789
0.0610987
-0.202154
-0.360112
0.255199
-0.484485
0.412644
-0.257217
0.220442
-0.119787
0.109696
-0.117901
0.0911126
-0.178877
0.0910659
-0.118152
0.108438
0.135068
-0.102632
0.0685996
-0.121072
0.0466693
-0.12146
0.051261
-0.115739
0.0223906
-0.0484063
0.0966401