/*--------------------------------*- C++ -*----------------------------------*\
| =========                 |                                                 |
| \\      /  F ield         | OpenFOAM: The Open Source CFD Toolbox           |
|  \\    /   O peration     | Version:  v2012                                 |
|   \\  /    A nd           | Website:  www.openfoam.com                      |
|    \\/     M anipulation  |                                                 |
\*---------------------------------------------------------------------------*/
FoamFile
{
    version     2.0;
    format      ascii;
    class       volVectorField;
    location    "0.18";
    object      cellDisplacement;
}
// * * * * * * * * * * * * * * * * * * * * * * * * * * * * * * * * * * * * * //

dimensions      [0 1 0 0 0 0 0];


internalField   nonuniform List<vector> 
11961
(
(2.8612e-06 3.75847e-05 0)
(7.45014e-06 9.52455e-05 0)
(5.69603e-06 7.8161e-05 0)
(5.39213e-06 6.44725e-05 0)
(1.33548e-05 0.000175052 0)
(2.77689e-06 3.90721e-05 0)
(1.10346e-05 0.000151197 0)
(1.41193e-05 0.000166367 0)
(2.02207e-05 0.000262544 0)
(4.52467e-06 6.69242e-05 0)
(1.41694e-05 0.00020021 0)
(2.3325e-05 0.000289044 0)
(1.64077e-05 0.000184865 0)
(2.42926e-05 0.000331313 0)
(8.90018e-06 0.00013278 0)
(1.84896e-06 2.77247e-05 0)
(1.29682e-05 0.00018992 0)
(2.05463e-05 0.000289425 0)
(3.36596e-05 0.000416613 0)
(3.122e-05 0.000350487 0)
(7.48448e-06 8.00418e-05 0)
(3.20406e-05 0.000441196 0)
(8.81301e-06 0.00013661 0)
(3.00361e-06 4.67291e-05 0)
(1.7106e-05 0.000260505 0)
(2.17453e-05 0.000325248 0)
(3.92548e-05 0.000459821 0)
(3.83491e-05 0.00050221 0)
(3.55989e-05 0.000376875 0)
(2.03683e-05 0.000209132 0)
(3.30805e-05 0.00048742 0)
(1.16469e-05 0.000185731 0)
(5.91782e-06 9.26426e-05 0)
(1.18827e-06 1.86792e-05 0)
(1.57496e-05 0.000249635 0)
(2.66072e-05 0.000408635 0)
(5.37748e-05 0.000629879 0)
(4.90852e-05 0.000650799 0)
(5.14495e-05 0.000536504 0)
(1.94632e-05 0.000189137 0)
(4.00981e-05 0.000604501 0)
(1.06913e-05 0.000177229 0)
(5.99254e-06 9.72676e-05 0)
(2.11902e-06 3.41773e-05 0)
(1.749e-05 0.000292064 0)
(2.58535e-05 0.000430137 0)
(6.21774e-05 0.000682979 0)
(5.88497e-05 0.000734621 0)
(4.94759e-05 0.000706306 0)
(5.68758e-05 0.000554826 0)
(4.11811e-05 0.000383779 0)
(6.85746e-06 6.50274e-05 0)
(3.84787e-05 0.000629053 0)
(8.00433e-06 0.00013312 0)
(1.23116e-05 0.000212527 0)
(4.24144e-06 6.90176e-05 0)
(1.59095e-06 2.57704e-05 0)
(2.12529e-05 0.000363439 0)
(1.50958e-05 0.000260727 0)
(3.0652e-05 0.000528791 0)
(8.17831e-05 0.000892522 0)
(7.33233e-05 0.000928102 0)
(5.89821e-05 0.000870242 0)
(7.59895e-05 0.000729609 0)
(4.6594e-05 0.000406727 0)
(8.79606e-06 7.38704e-05 0)
(4.41024e-05 0.000746673 0)
(7.30707e-06 0.000127266 0)
(1.10839e-05 0.000200969 0)
(3.96331e-06 6.69476e-05 0)
(5.51231e-07 8.93512e-06 0)
(2.62239e-06 4.36806e-05 0)
(1.88281e-05 0.000353718 0)
(1.5639e-05 0.000289182 0)
(2.91867e-05 0.000550915 0)
(9.07087e-05 0.000916723 0)
(8.82095e-05 0.00103567 0)
(7.25953e-05 0.00100791 0)
(5.43881e-05 0.000878061 0)
(8.45897e-05 0.000759882 0)
(7.15686e-05 0.000609381 0)
(2.70339e-05 0.000222943 0)
(4.06037e-05 0.000761119 0)
(5.06637e-06 8.79715e-05 0)
(8.71594e-06 0.000158114 0)
(1.28884e-05 0.000246419 0)
(7.99496e-07 1.33303e-05 0)
(1.7625e-06 2.97141e-05 0)
(1.97014e-05 0.000399171 0)
(3.3793e-05 0.000665643 0)
(2.41319e-05 0.000488774 0)
(0.000110793 0.00108609 0)
(0.000109753 0.00130635 0)
(8.39385e-05 0.00119722 0)
(5.72374e-05 0.00100048 0)
(0.000108112 0.000969555 0)
(8.33858e-05 0.000660007 0)
(3.26116e-05 0.000252771 0)
(4.60698e-05 0.000895734 0)
(4.34637e-06 7.89946e-05 0)
(7.60118e-06 0.000146318 0)
(1.15582e-05 0.000238621 0)
(2.15475e-07 3.55456e-06 0)
(1.56446e-06 2.69557e-05 0)
(1.57968e-05 0.000359746 0)
(2.93904e-05 0.000657178 0)
(2.40308e-05 0.000543153 0)
(0.000128015 0.00128633 0)
(0.000104411 0.00137754 0)
(0.000130275 0.00143154 0)
(8.02585e-05 0.00126361 0)
(6.67876e-05 0.00116288 0)
(0.000125831 0.00106322 0)
(6.35848e-05 0.000480805 0)
(0.000114985 0.000895667 0)
(1.39055e-05 0.000101592 0)
(4.28321e-05 0.000925278 0)
(5.45663e-06 0.000104392 0)
(2.8607e-06 5.1791e-05 0)
(8.69082e-06 0.000178474 0)
(1.2517e-05 0.000282867 0)
(1.76809e-07 2.97528e-06 0)
(1.99262e-06 3.53903e-05 0)
(6.7445e-07 1.1473e-05 0)
(1.5769e-05 0.000410683 0)
(2.93871e-05 0.000739463 0)
(1.97859e-05 0.000507116 0)
(0.000152658 0.00142602 0)
(0.000112843 0.00158702 0)
(0.000157149 0.00171959 0)
(9.38321e-05 0.00148126 0)
(6.40503e-05 0.00127505 0)
(0.000153556 0.00130843 0)
(6.56567e-05 0.000456389 0)
(0.000134213 0.000979311 0)
(3.23011e-05 0.000221018 0)
(3.4631e-05 0.000849627 0)
(4.51434e-05 0.00103992 0)
(4.26275e-06 8.69631e-05 0)
(1.76014e-06 3.37484e-05 0)
(7.15689e-06 0.000158707 0)
(9.74762e-06 0.000245878 0)
(9.56912e-07 1.71987e-05 0)
(3.65471e-07 6.37035e-06 0)
(1.23989e-05 0.000382993 0)
(2.27349e-05 0.000674006 0)
(1.89349e-05 0.000559783 0)
(0.000173291 0.00167084 0)
(0.000129649 0.0018149 0)
(0.000169138 0.00197047 0)
(9.14096e-05 0.00161103 0)
(7.48669e-05 0.00149771 0)
(5.1778e-05 0.00117913 0)
(0.000182932 0.00144249 0)
(9.22049e-05 0.000611419 0)
(0.000172848 0.00125788 0)
(0.000124441 0.000843731 0)
(1.93581e-05 0.000122215 0)
(3.49599e-05 0.000944978 0)
(2.18663e-06 4.39388e-05 0)
(4.97001e-06 0.00010868 0)
(5.97718e-07 1.11807e-05 0)
(7.53783e-06 0.000183626 0)
(8.74482e-06 0.000258545 0)
(9.6003e-06 0.000312888 0)
(1.14884e-05 0.000443743 0)
(1.85962e-05 0.000699413 0)
(1.4235e-05 0.000524311 0)
(0.000207625 0.0018796 0)
(0.000153 0.00199539 0)
(0.000123771 0.00196349 0)
(0.000210721 0.00229521 0)
(0.00010519 0.00185899 0)
(6.90481e-05 0.00162962 0)
(4.69219e-05 0.00128161 0)
(0.000217819 0.001744 0)
(8.54697e-05 0.000515078 0)
(0.000190854 0.0012739 0)
(0.000156412 0.00100046 0)
(4.47768e-05 0.00026508 0)
(3.08241e-05 0.000989001 0)
(9.68322e-07 2.08843e-05 0)
(3.62527e-06 8.62969e-05 0)
(5.79061e-06 0.00015327 0)
(6.22579e-06 0.000201616 0)
(6.82413e-06 0.000296199 0)
(7.62391e-06 0.000406729 0)
(1.32002e-05 0.000591891 0)
(1.81132e-05 0.000787914 0)
(0.000232798 0.00220283 0)
(0.000164586 0.0023794 0)
(0.000139821 0.00228052 0)
(0.000227878 0.00268427 0)
(0.00010031 0.00206147 0)
(5.36853e-05 0.00149005 0)
(7.97745e-05 0.00192238 0)
(3.55195e-05 0.00116794 0)
(0.000263054 0.00193075 0)
(0.000118202 0.000678109 0)
(0.000225216 0.00144365 0)
(0.000155274 0.000925637 0)
(2.62075e-05 0.000141776 0)
(2.26308e-05 0.000910816 0)
(1.81115e-06 4.25284e-05 0)
(4.09304e-06 0.000106791 0)
(5.32611e-06 0.000159979 0)
(4.90662e-06 0.000196887 0)
(5.02099e-06 0.000237022 0)
(5.99209e-06 0.000333718 0)
(5.01063e-06 0.000435161 0)
(8.57735e-06 0.00058428 0)
(1.12166e-05 0.000749644 0)
(0.000278929 0.0024501 0)
(0.000194465 0.00272715 0)
(0.000121992 0.00239396 0)
(0.000276178 0.00302946 0)
(4.38931e-05 0.00157854 0)
(6.62582e-05 0.00203898 0)
(2.84079e-05 0.00123844 0)
(0.000264342 0.00174112 0)
(0.000300722 0.00229067 0)
(0.000122989 0.000652572 0)
(0.0002288 0.00131319 0)
(0.000191585 0.00107451 0)
(4.87202e-05 0.000245444 0)
(1.68149e-05 0.000985847 0)
(7.97508e-07 2.10996e-05 0)
(2.93827e-06 8.64363e-05 0)
(3.56538e-06 0.000116238 0)
(3.26369e-06 0.000146794 0)
(3.14037e-06 0.000222311 0)
(3.19869e-06 0.000306188 0)
(1.76946e-06 0.000384799 0)
(5.03822e-06 0.000507135 0)
(7.38807e-06 0.000657554 0)
(7.23976e-06 0.000807994 0)
(0.00030555 0.00285486 0)
(0.000198222 0.00319651 0)
(0.000122559 0.00270606 0)
(0.000293011 0.00352336 0)
(4.6915e-05 0.00180481 0)
(3.06168e-05 0.00142109 0)
(6.8309e-05 0.00232847 0)
(1.87772e-05 0.00112376 0)
(0.000305426 0.00181348 0)
(0.000351756 0.00250283 0)
(9.28758e-05 0.000467136 0)
(0.000174303 0.00090437 0)
(0.000273357 0.00149473 0)
(2.25558e-05 0.000103921 0)
(8.74786e-06 0.000906933 0)
(1.5e-06 4.49258e-05 0)
(2.7721e-06 0.000108381 0)
(2.31773e-06 0.000142386 0)
(2.21742e-06 0.000177848 0)
(2.30585e-06 0.000252762 0)
(1.44417e-06 0.000329277 0)
(-1.08599e-06 0.00039889 0)
(6.70902e-07 0.000504527 0)
(2.19115e-06 0.000661498 0)
(1.36163e-06 0.000745527 0)
(0.000360568 0.00311795 0)
(0.000246557 0.00366889 0)
(0.000155497 0.00315436 0)
(9.02888e-05 0.00264318 0)
(0.000354048 0.003858 0)
(3.16506e-05 0.00184152 0)
(1.86092e-05 0.001468 0)
(4.46408e-05 0.00230242 0)
(1.04483e-05 0.00116818 0)
(0.000361792 0.00209156 0)
(0.000385431 0.002418 0)
(0.00038185 0.00289707 0)
(0.000106614 0.000490256 0)
(0.000193634 0.000928027 0)
(0.000288533 0.00143037 0)
(5.91056e-05 0.000259038 0)
(2.87896e-06 0.00095767 0)
(6.25003e-07 2.43017e-05 0)
(1.26816e-06 5.803e-05 0)
(1.28117e-06 0.000104805 0)
(8.6046e-07 0.000163963 0)
(3.31072e-07 0.000234971 0)
(-8.23562e-07 0.000302955 0)
(-1.57706e-06 0.000446815 0)
(-3.82871e-06 0.000359129 0)
(-1.74808e-06 0.000547849 0)
(-1.57486e-06 0.000610052 0)
(-4.37465e-06 0.000767991 0)
(0.000390754 0.00359087 0)
(0.000252777 0.00426781 0)
(0.000137598 0.00357496 0)
(8.13966e-05 0.00294853 0)
(0.000376145 0.00441995 0)
(1.7767e-05 0.00164728 0)
(3.00565e-05 0.00205136 0)
(9.2482e-06 0.00131664 0)
(3.71575e-05 0.00256066 0)
(3.80291e-06 0.0010694 0)
(0.000394399 0.00197947 0)
(0.000451123 0.00275372 0)
(0.000443159 0.00307845 0)
(0.000150455 0.000674901 0)
(0.000246469 0.00114844 0)
(0.000347819 0.00164073 0)
(5.98916e-05 0.000243003 0)
(-3.65021e-06 0.000918406 0)
(9.06394e-07 5.80545e-05 0)
(6.4649e-07 0.000118838 0)
(-1.91689e-08 0.000188691 0)
(-1.04081e-06 0.000258988 0)
(-3.20977e-06 0.00031663 0)
(-5.21394e-06 0.000458462 0)
(-6.59147e-06 0.00037663 0)
(-5.83621e-06 0.000511304 0)
(-6.89807e-06 0.000638819 0)
(-8.35654e-06 0.000704916 0)
(-6.65936e-06 0.000843651 0)
(0.000458412 0.00381602 0)
(0.000204286 0.00438515 0)
(0.000324205 0.00470481 0)
(0.000155989 0.00405573 0)
(9.70762e-05 0.00333786 0)
(5.18945e-05 0.00285235 0)
(0.000454527 0.00470584 0)
(3.95952e-06 0.00167871 0)
(1.2523e-05 0.00204317 0)
(-1.10124e-06 0.00131475 0)
(1.43362e-05 0.0024832 0)
(-4.59385e-06 0.00109582 0)
(0.000457967 0.00216204 0)
(0.000514203 0.00282827 0)
(0.000486944 0.00348239 0)
(0.000164858 0.000678296 0)
(0.0002583 0.00109332 0)
(0.000361462 0.00151626 0)
(2.13371e-05 8.38325e-05 0)
(0.000116094 0.000449796 0)
(-8.59125e-06 0.00100143 0)
(2.50919e-07 2.45345e-05 0)
(-1.93361e-07 9.90334e-05 0)
(-1.35815e-06 0.000174709 0)
(-3.09871e-06 0.000247315 0)
(-4.84543e-06 0.000283622 0)
(-7.23725e-06 0.000425793 0)
(-9.23964e-06 0.000363741 0)
(-9.54197e-06 0.000538099 0)
(-1.02757e-05 0.000596675 0)
(-1.43638e-05 0.000727336 0)
(-1.46637e-05 0.000855513 0)
(0.000497553 0.00433136 0)
(0.000200044 0.00498049 0)
(0.00034164 0.00535036 0)
(0.000119532 0.00440944 0)
(6.75875e-05 0.00352167 0)
(4.17914e-05 0.00315974 0)
(0.000486736 0.00537769 0)
(1.79341e-06 0.00185487 0)
(-7.4637e-06 0.00154837 0)
(6.07659e-06 0.00222225 0)
(-7.65318e-06 0.00140761 0)
(-7.00632e-06 0.00118658 0)
(-3.78373e-07 0.00265786 0)
(0.00051556 0.00252782 0)
(0.000481103 0.00197843 0)
(0.000578231 0.00326159 0)
(0.000554267 0.00359017 0)
(0.000215794 0.000861447 0)
(0.00031132 0.00125315 0)
(0.000428763 0.00167419 0)
(2.34796e-05 7.91755e-05 0)
(0.000126864 0.000450159 0)
(-1.50173e-05 0.000994547 0)
(-9.23874e-09 5.10574e-05 0)
(-1.19417e-06 0.000128236 0)
(-2.95073e-06 0.000206023 0)
(-7.5504e-06 0.00028866 0)
(-1.07811e-05 0.000437669 0)
(-9.91446e-06 0.000328947 0)
(-1.18771e-05 0.000399835 0)
(-1.26644e-05 0.000514202 0)
(-1.52819e-05 0.000623696 0)
(-1.7337e-05 0.000680656 0)
(-1.77558e-05 0.000797261 0)
(-1.7765e-05 0.000919162 0)
(0.000582269 0.00448689 0)
(0.000231238 0.00552392 0)
(0.000142291 0.00492622 0)
(0.000424329 0.00570932 0)
(0.000292579 0.0056962 0)
(7.9457e-05 0.00427221 0)
(6.11536e-05 0.00384982 0)
(1.61202e-05 0.00318759 0)
(0.000589836 0.00564602 0)
(-1.34287e-05 0.0018808 0)
(-2.01718e-05 0.0016078 0)
(-9.75656e-06 0.00218964 0)
(-1.73141e-05 0.0013409 0)
(-1.53228e-05 0.00121447 0)
(-9.17516e-07 0.0029286 0)
(-1.88713e-05 0.00251301 0)
(0.000583491 0.00253293 0)
(0.000550994 0.00215238 0)
(0.000659343 0.00345084 0)
(0.000606256 0.00405403 0)
(0.00023573 0.000860225 0)
(0.00029956 0.00108428 0)
(0.000427923 0.0014774 0)
(6.56228e-05 0.000217229 0)
(0.000190128 0.000652924 0)
(-1.99478e-05 0.00104413 0)
(-2.31833e-07 2.69754e-05 0)
(-2.06174e-06 0.000120778 0)
(-4.2514e-06 0.000193319 0)
(-8.2515e-06 0.000252227 0)
(-1.2899e-05 0.000470717 0)
(-1.40039e-05 0.000342743 0)
(-1.50891e-05 0.000408753 0)
(-1.69071e-05 0.000545462 0)
(-1.83551e-05 0.000591747 0)
(-2.38692e-05 0.000708948 0)
(-2.45583e-05 0.000815273 0)
(-2.55187e-05 0.000960787 0)
(0.000639625 0.00507165 0)
(0.000175051 0.00598095 0)
(0.000122203 0.00546073 0)
(0.000430091 0.00651591 0)
(0.000331614 0.00655022 0)
(4.17313e-05 0.00460065 0)
(2.17757e-05 0.00385861 0)
(4.76529e-06 0.00353764 0)
(0.000633317 0.0064756 0)
(-2.25286e-05 0.0017555 0)
(-1.74171e-05 0.00202735 0)
(-2.98526e-05 0.0015473 0)
(-1.96435e-05 0.00231316 0)
(-2.67599e-05 0.0013602 0)
(-2.26486e-05 0.00117759 0)
(-2.59099e-05 0.00301585 0)
(-3.60954e-05 0.00261949 0)
(0.000661169 0.00276582 0)
(0.000609023 0.00212547 0)
(0.000707126 0.00320128 0)
(0.00068735 0.0040156 0)
(0.000345432 0.00116587 0)
(0.000488272 0.00153417 0)
(7.58838e-05 0.000233084 0)
(0.000197656 0.000617186 0)
(-2.59332e-05 0.00102029 0)
(-2.33217e-05 0.0011103 0)
(-1.00918e-06 4.97272e-05 0)
(-3.52714e-06 0.000153068 0)
(-1.99847e-06 8.95849e-05 0)
(-6.44017e-06 0.000212878 0)
(-1.14909e-05 0.00026598 0)
(-1.7424e-05 0.00048087 0)
(-1.46763e-05 0.000312484 0)
(-1.6643e-05 0.000383749 0)
(-1.82061e-05 0.000451034 0)
(-1.99237e-05 0.000522448 0)
(-2.33211e-05 0.000620268 0)
(-2.69734e-05 0.000764552 0)
(-2.61199e-05 0.000672394 0)
(-3.03191e-05 0.000877119 0)
(-3.12696e-05 0.000942458 0)
(0.000736334 0.00503196 0)
(0.000177428 0.00668355 0)
(7.37431e-05 0.00551336 0)
(0.000520132 0.00707083 0)
(0.000271161 0.00714062 0)
(3.86425e-05 0.00505396 0)
(8.3951e-06 0.00423828 0)
(-2.50765e-05 0.00353056 0)
(0.000752333 0.00662183 0)
(-3.58387e-05 0.00180033 0)
(-3.18006e-05 0.00208087 0)
(-3.21207e-05 0.00144589 0)
(-4.17099e-05 0.00162413 0)
(-3.37769e-05 0.00224204 0)
(-3.08741e-05 0.00126375 0)
(-4.00293e-05 0.00283136 0)
(-3.52024e-05 0.00325344 0)
(-5.0145e-05 0.00250577 0)
(0.000697266 0.00246071 0)
(0.000582329 0.00182411 0)
(0.000811237 0.00339263 0)
(0.000752441 0.00437962 0)
(0.000325928 0.000996376 0)
(0.000458401 0.00129056 0)
(0.000137678 0.000411716 0)
(2.89269e-05 8.40228e-05 0)
(0.00025493 0.000756077 0)
(-3.06743e-05 0.00109399 0)
(-6.67397e-07 2.2916e-05 0)
(-4.72545e-06 0.000147174 0)
(-3.56737e-06 0.000109923 0)
(-6.68365e-06 0.000180795 0)
(-1.16102e-05 0.000236117 0)
(-1.86523e-05 0.000330558 0)
(-2.11128e-05 0.000416101 0)
(-2.24027e-05 0.000460309 0)
(-2.48992e-05 0.000556284 0)
(-2.64673e-05 0.000601583 0)
(-3.42791e-05 0.000806162 0)
(-3.23543e-05 0.000693947 0)
(-3.66361e-05 0.000869268 0)
(-4.1555e-05 0.0010231 0)
(0.000818015 0.00541208 0)
(0.000107826 0.00701479 0)
(4.53424e-05 0.00606085 0)
(0.000510709 0.00804516 0)
(0.000277443 0.00802856 0)
(-7.24911e-06 0.00529228 0)
(-2.72522e-05 0.00433075 0)
(-4.32863e-05 0.00376494 0)
(0.000815133 0.00741996 0)
(0.000831129 0.00601225 0)
(-4.22995e-05 0.00190842 0)
(-4.37323e-05 0.00171694 0)
(-4.12399e-05 0.00201726 0)
(-4.61012e-05 0.00147715 0)
(-5.17194e-05 0.00158072 0)
(-4.69891e-05 0.00232731 0)
(-4.14639e-05 0.00129055 0)
(-6.31081e-05 0.00293137 0)
(-5.80306e-05 0.00329204 0)
(-6.70648e-05 0.00259732 0)
(0.000793471 0.0025687 0)
(0.000640757 0.00172118 0)
(0.000867575 0.00389035 0)
(0.00086187 0.00303552 0)
(0.000838136 0.00431786 0)
(0.000380088 0.00106293 0)
(0.000504642 0.00127882 0)
(0.000130294 0.000356355 0)
(6.58111e-05 0.000178024 0)
(0.000240339 0.000651805 0)
(-3.86162e-05 0.00113207 0)
(-1.90859e-06 4.70607e-05 0)
(-3.89177e-06 9.40318e-05 0)
(-8.60687e-06 0.000189621 0)
(-1.4876e-05 0.000252569 0)
(-2.33392e-05 0.000378908 0)
(-1.84677e-05 0.000297422 0)
(-2.4541e-05 0.00041611 0)
(-2.72957e-05 0.000505453 0)
(-2.86726e-05 0.000550372 0)
(-3.19898e-05 0.000646704 0)
(-3.85919e-05 0.00079466 0)
(-3.73394e-05 0.000740828 0)
(-4.51323e-05 0.000932944 0)
(-4.83056e-05 0.00100771 0)
(-4.4604e-05 0.00109937 0)
(0.000899526 0.00490038 0)
(5.34709e-05 0.00662413 0)
(8.70691e-05 0.00791122 0)
(-6.38218e-06 0.00585626 0)
(0.000375624 0.00845744 0)
(0.000629332 0.00858089 0)
(0.00014916 0.0084921 0)
(-3.87166e-05 0.00508675 0)
(-4.54942e-05 0.00405306 0)
(-4.47409e-05 0.00469694 0)
(-6.92993e-05 0.00369559 0)
(0.000969816 0.00704071 0)
(0.000774597 0.00822714 0)
(0.000958184 0.00623183 0)
(-5.71046e-05 0.0019177 0)
(-5.76766e-05 0.00181644 0)
(-5.79053e-05 0.00212913 0)
(-5.0603e-05 0.00140386 0)
(-6.58493e-05 0.00167433 0)
(-6.10088e-05 0.00226302 0)
(-4.46805e-05 0.00122376 0)
(-6.95777e-05 0.00312765 0)
(-7.4646e-05 0.00279518 0)
(-7.23581e-05 0.0034894 0)
(-7.77354e-05 0.00251754 0)
(0.000820271 0.0022229 0)
(0.000584641 0.00144111 0)
(0.000738347 0.00185369 0)
(0.000983146 0.00386771 0)
(0.000975976 0.00325496 0)
(0.000352276 0.000887956 0)
(0.000474307 0.0010907 0)
(0.000175878 0.0004605 0)
(3.72288e-05 9.31602e-05 0)
(0.000284916 0.000716724 0)
(-1.21184e-06 2.40455e-05 0)
(-6.08973e-06 0.000119122 0)
(-8.502e-06 0.000163191 0)
(-1.42484e-05 0.000224822 0)
(-2.66588e-05 0.000379883 0)
(-2.2842e-05 0.00032655 0)
(-3.03099e-05 0.000469999 0)
(-3.125e-05 0.000508861 0)
(-3.5643e-05 0.000609965 0)
(-3.71192e-05 0.00065726 0)
(-4.72436e-05 0.000855647 0)
(-4.49584e-05 0.000768812 0)
(-5.09425e-05 0.00092176 0)
(-5.89456e-05 0.00108742 0)
(-5.78426e-05 0.00119733 0)
(0.00100432 0.00498861 0)
(-8.18546e-06 0.00712376 0)
(-6.36668e-06 0.00792251 0)
(-4.3585e-05 0.0062059 0)
(0.000343775 0.00951771 0)
(0.000582771 0.00966139 0)
(0.000121064 0.00941698 0)
(-7.63623e-05 0.00533341 0)
(-7.88211e-05 0.00419671 0)
(-8.67133e-05 0.0047645 0)
(-8.85453e-05 0.00394036 0)
(0.00110639 0.00742829 0)
(0.000907869 0.00891543 0)
(0.00105437 0.00567856 0)
(-6.67374e-05 0.00204476 0)
(-6.97517e-05 0.00181081 0)
(-6.32693e-05 0.00144567 0)
(-7.67459e-05 0.00165772 0)
(-7.54694e-05 0.00236408 0)
(-5.86222e-05 0.00127257 0)
(-9.00084e-05 0.00325255 0)
(-9.64129e-05 0.00288712 0)
(-9.2448e-05 0.00347 0)
(-9.39382e-05 0.0026034 0)
(0.000938141 0.00222021 0)
(0.000608278 0.00127752 0)
(0.000756141 0.00158916 0)
(0.00106393 0.00434684 0)
(0.00105343 0.00303825 0)
(0.000399836 0.000917563 0)
(0.000530768 0.00109146 0)
(0.000177533 0.00043084 0)
(6.8453e-05 0.000158661 0)
(0.000245764 0.000576409 0)
(-3.05959e-06 5.05737e-05 0)
(-5.88728e-06 9.7694e-05 0)
(-1.10875e-05 0.000182931 0)
(-1.67081e-05 0.000234949 0)
(-3.21755e-05 0.000422936 0)
(-2.4301e-05 0.000316137 0)
(-3.55747e-05 0.000496791 0)
(-3.8347e-05 0.000569923 0)
(-4.08309e-05 0.000618479 0)
(-4.46474e-05 0.000725767 0)
(-5.10888e-05 0.000836502 0)
(-6.23319e-05 0.00100694 0)
(-6.44731e-05 0.00118616 0)
(-6.63712e-05 0.00108556 0)
(-4.74021e-05 0.00682006 0)
(-7.31195e-05 0.0085258 0)
(-8.19305e-05 0.00606327 0)
(0.00022039 0.00986433 0)
(0.000441129 0.0100519 0)
(0.00069005 0.0103105 0)
(3.06248e-05 0.00990907 0)
(-0.000102853 0.00509081 0)
(-9.21761e-05 0.00569258 0)
(-9.81041e-05 0.00450242 0)
(-0.000113095 0.00400488 0)
(0.00109379 0.008439 0)
(0.001248 0.00666106 0)
(0.000856502 0.00993623 0)
(0.00119156 0.0057722 0)
(-8.34957e-05 0.00212404 0)
(-8.69166e-05 0.00193394 0)
(-7.42295e-05 0.00155016 0)
(-6.72652e-05 0.00136977 0)
(-9.34098e-05 0.00178297 0)
(-9.35333e-05 0.00238978 0)
(-0.000106998 0.00322902 0)
(-0.000110671 0.00307547 0)
(-0.000103353 0.0027604 0)
(-0.000114753 0.00361127 0)
(-0.000104885 0.0025351 0)
(0.00103449 0.00254711 0)
(0.000932063 0.00178417 0)
(0.000678103 0.0013157 0)
(0.000837649 0.00155234 0)
(0.00118959 0.00434235 0)
(0.001188 0.00327691 0)
(0.000380225 0.000790149 0)
(0.000508681 0.000948453 0)
(0.000133373 0.000307327 0)
(3.03417e-05 6.57193e-05 0)
(0.000257894 0.000554591 0)
(-1.88103e-06 2.68229e-05 0)
(-8.69223e-06 0.000127301 0)
(-1.12676e-05 0.000167144 0)
(-2.06994e-05 0.000269439 0)
(-1.4397e-05 0.00019705 0)
(-3.44395e-05 0.000418057 0)
(-3.67218e-05 0.00048046 0)
(-3.01795e-05 0.000362743 0)
(-4.1484e-05 0.000564882 0)
(-4.92388e-05 0.000692629 0)
(-5.13417e-05 0.000749277 0)
(-6.05262e-05 0.000900229 0)
(-6.78104e-05 0.000997151 0)
(-7.93399e-05 0.00127521 0)
(-7.94898e-05 0.00119944 0)
(-0.000101608 0.00704161 0)
(-8.91013e-05 0.00939724 0)
(-0.000135148 0.00817178 0)
(-0.000116565 0.00652236 0)
(0.000165435 0.011 0)
(0.000389132 0.0111185 0)
(0.000625363 0.0114821 0)
(4.63779e-05 0.0110567 0)
(-4.43842e-05 0.00989844 0)
(-0.000136935 0.00535163 0)
(-0.000135736 0.00575367 0)
(-0.000132687 0.00456909 0)
(-0.000133636 0.00427672 0)
(-0.000124029 0.00382332 0)
(0.00125278 0.00906876 0)
(0.00143269 0.00663817 0)
(0.000977087 0.0106407 0)
(0.00126861 0.00505752 0)
(-9.75655e-05 0.00229653 0)
(-9.28596e-05 0.0020677 0)
(-9.87743e-05 0.00191181 0)
(-8.62441e-05 0.00156624 0)
(-8.05433e-05 0.00144518 0)
(-0.000105802 0.00179249 0)
(-0.00012576 0.00345622 0)
(-0.000137805 0.00316558 0)
(-0.000124975 0.00284059 0)
(-0.000124408 0.0026823 0)
(0.00114634 0.00238268 0)
(0.00103161 0.00163561 0)
(0.000700208 0.00112981 0)
(0.000801973 0.00120505 0)
(0.00124881 0.00377521 0)
(0.00124477 0.002751 0)
(0.000315985 0.000642234 0)
(0.000431984 0.000814199 0)
(0.000542165 0.00086472 0)
(0.000149274 0.000317408 0)
(6.05659e-05 0.000121892 0)
(0.000204772 0.000422817 0)
(-4.76492e-06 6.10482e-05 0)
(-8.76169e-06 0.000113899 0)
(-2.06526e-05 0.000250644 0)
(-1.58528e-05 0.000200148 0)
(-4.05556e-05 0.000466305 0)
(-4.49597e-05 0.000539276 0)
(-3.30843e-05 0.000370641 0)
(-4.91344e-05 0.000619451 0)
(-5.55324e-05 0.000718569 0)
(-6.02332e-05 0.000824819 0)
(-6.44306e-05 0.000890588 0)
(-8.0294e-05 0.00108173 0)
(-8.95897e-05 0.00138203 0)
(-8.94466e-05 0.00123836 0)
(-0.000135502 0.00751445 0)
(-0.000193846 0.00985319 0)
(-0.000201102 0.00867376 0)
(-0.000157927 0.00656578 0)
(0.000239353 0.0116283 0)
(0.000473153 0.011778 0)
(0.000728456 0.0123072 0)
(-4.64042e-05 0.0117514 0)
(-0.000105806 0.0109933 0)
(-0.000158986 0.00530799 0)
(-0.000164756 0.00613843 0)
(-0.00016104 0.00484077 0)
(-0.000159668 0.00429675 0)
(-0.000152893 0.0040137 0)
(0.00144359 0.00852843 0)
(0.00116963 0.0102924 0)
(0.00152219 0.00739843 0)
(0.00149512 0.0056728 0)
(0.000905903 0.0118092 0)
(0.00140122 0.00502372 0)
(-0.000121731 0.00238636 0)
(-0.000116369 0.00223055 0)
(-0.000118054 0.00205731 0)
(-0.000100383 0.00167301 0)
(-8.93382e-05 0.00145347 0)
(-0.000124978 0.00193905 0)
(-0.000151376 0.00355603 0)
(-0.000157746 0.00338521 0)
(-0.000141972 0.00301779 0)
(-0.000143791 0.0027311 0)
(0.00115038 0.00190769 0)
(0.000995993 0.0012381 0)
(0.000623032 0.000913533 0)
(0.000859444 0.00107171 0)
(0.00140454 0.00379406 0)
(0.00138238 0.00265097 0)
(0.000306119 0.000561311 0)
(0.000417179 0.000708047 0)
(0.000471598 0.000720588 0)
(0.000114935 0.000230366 0)
(2.93559e-05 5.54767e-05 0)
(0.000203277 0.000385646 0)
(-3.02742e-06 3.50697e-05 0)
(-1.30498e-05 0.000158661 0)
(-2.36391e-05 0.000267536 0)
(-4.35348e-05 0.000474098 0)
(-4.57571e-05 0.000523917 0)
(-5.1117e-05 0.000605368 0)
(-2.97883e-05 0.000325628 0)
(-4.03536e-05 0.000432372 0)
(-5.54692e-05 0.000687189 0)
(-6.59583e-05 0.000810007 0)
(-6.78012e-05 0.000852392 0)
(-7.67003e-05 0.000977938 0)
(-8.88048e-05 0.00117558 0)
(-8.42242e-05 0.00106096 0)
(-0.000106534 0.00147639 0)
(-0.0001053 0.00136296 0)
(-0.000191469 0.00749475 0)
(-0.000238953 0.0107615 0)
(-0.000229837 0.00939492 0)
(-0.000242487 0.00842932 0)
(-0.000193124 0.00699348 0)
(0.000201758 0.0128671 0)
(0.00037535 0.012935 0)
(0.000639234 0.0137354 0)
(-9.39466e-05 0.0127723 0)
(-0.000192129 0.0113174 0)
(-0.000196795 0.00562568 0)
(-0.000166264 0.00509384 0)
(-0.000202023 0.00621712 0)
(-0.000193472 0.00482726 0)
(-0.000187743 0.00453697 0)
(-0.000172459 0.0040021 0)
(0.00163925 0.00913643 0)
(0.00126063 0.011307 0)
(0.00173398 0.00704464 0)
(0.00164134 0.00522647 0)
(0.00105855 0.0124303 0)
(0.00146512 0.00438515 0)
(-0.000142545 0.00257049 0)
(-0.000128322 0.00222513 0)
(-0.000130414 0.00205821 0)
(-0.000112684 0.00169847 0)
(-0.000106512 0.0015886 0)
(-0.000139224 0.00197117 0)
(-0.000172044 0.00379034 0)
(-0.000188214 0.00352681 0)
(-0.000171565 0.00313543 0)
(-0.000171237 0.00297177 0)
(0.0012606 0.00173778 0)
(0.00107134 0.000996457 0)
(0.000621879 0.000713653 0)
(0.00082025 0.000809798 0)
(0.00148295 0.00315663 0)
(0.00139215 0.00208232 0)
(0.000354574 0.000598221 0)
(0.000246416 0.000442778 0)
(0.00044874 0.000597858 0)
(0.000146528 0.000275113 0)
(6.41761e-05 0.000113189 0)
(-6.67086e-06 7.21615e-05 0)
(-1.47773e-05 0.000167461 0)
(-2.0641e-05 0.000226153 0)
(-5.09812e-05 0.000537406 0)
(-5.28547e-05 0.000571562 0)
(-5.98392e-05 0.000670222 0)
(-3.39784e-05 0.000349116 0)
(-4.51456e-05 0.000459758 0)
(-6.57765e-05 0.000758654 0)
(-7.28456e-05 0.000836011 0)
(-7.88361e-05 0.000953533 0)
(-0.000101647 0.0012549 0)
(-9.95346e-05 0.00116633 0)
(-0.000117226 0.0016091 0)
(-0.00011356 0.00146835 0)
(-0.000111236 0.00135709 0)
(-0.000233675 0.00788941 0)
(-0.000332853 0.0112397 0)
(-0.000301259 0.00971132 0)
(-0.000295497 0.00881208 0)
(-0.000235903 0.00702838 0)
(7.71351e-05 0.0137796 0)
(0.000428384 0.0140117 0)
(0.000769941 0.0146899 0)
(-0.000221932 0.0130188 0)
(-5.83861e-05 0.0137062 0)
(-0.000253635 0.0123176 0)
(-0.00020351 0.00539957 0)
(-0.000214444 0.00594045 0)
(-0.000234436 0.00663181 0)
(-0.000226145 0.00513373 0)
(-0.000215456 0.00454168 0)
(-0.000203285 0.00424387 0)
(0.00164512 0.0103178 0)
(0.00181831 0.0079851 0)
(0.00144362 0.0113615 0)
(0.00188152 0.00601288 0)
(0.00181057 0.00527495 0)
(0.00160325 0.00442637 0)
(0.00102577 0.0137613 0)
(-0.000167782 0.00266948 0)
(-0.000153586 0.00236979 0)
(-0.000153351 0.00224993 0)
(-0.000131346 0.00183857 0)
(-0.000162864 0.00215748 0)
(-0.000206234 0.00394827 0)
(-0.000213614 0.00381698 0)
(-0.000195364 0.00338449 0)
(-0.000195092 0.00305552 0)
(0.00127499 0.00134035 0)
(0.00100293 0.000709461 0)
(0.00119858 0.00102585 0)
(0.000702222 0.000662905 0)
(0.000506026 0.000581675 0)
(0.00089096 0.000647892 0)
(0.00165052 0.00311769 0)
(0.00151396 0.00173177 0)
(0.000338321 0.000524467 0)
(0.00023325 0.000384912 0)
(0.000378127 0.000520984 0)
(0.00012678 0.000222302 0)
(3.33973e-05 5.58316e-05 0)
(-3.70622e-06 3.76683e-05 0)
(-1.22971e-05 0.000133113 0)
(-2.32226e-05 0.000239726 0)
(-5.65972e-05 0.00057175 0)
(-6.08477e-05 0.000641451 0)
(-6.74009e-05 0.000748199 0)
(-6.36158e-05 0.000681018 0)
(-4.17629e-05 0.000417401 0)
(-2.9889e-05 0.000300071 0)
(-5.38708e-05 0.000534398 0)
(-8.42329e-05 0.000925357 0)
(-9.08312e-05 0.00103336 0)
(-0.000107496 0.00125554 0)
(-0.000103386 0.00115458 0)
(-0.000136246 0.00175008 0)
(-0.000136073 0.00163323 0)
(-0.000125421 0.00144491 0)
(-0.000281482 0.00788524 0)
(-0.000379478 0.0121237 0)
(-0.000376105 0.0109287 0)
(-0.000353693 0.0102823 0)
(-0.000315683 0.00930231 0)
(-0.000335129 0.0087514 0)
(-0.000277041 0.00744416 0)
(0.000105426 0.01511 0)
(0.000290255 0.0151497 0)
(0.000685134 0.0162864 0)
(-0.000307653 0.0139786 0)
(-0.000194781 0.0149217 0)
(-0.000347368 0.0126044 0)
(-0.000230136 0.00545096 0)
(-0.000261554 0.00628043 0)
(-0.000273466 0.0066865 0)
(-0.000261694 0.00527111 0)
(-0.000250277 0.00479993 0)
(-0.000225698 0.00422611 0)
(0.00187573 0.0107563 0)
(0.00204024 0.00763059 0)
(0.00148277 0.0129296 0)
(0.00209096 0.00605519 0)
(0.00187895 0.00412129 0)
(0.00170292 0.00387002 0)
(0.00124641 0.0142787 0)
(-0.000190877 0.0028857 0)
(-0.000171428 0.0025543 0)
(-0.00017148 0.00231345 0)
(-0.000144931 0.00187654 0)
(-0.000178674 0.00220274 0)
(-0.000249034 0.00399529 0)
(-0.000227495 0.0035578 0)
(-0.000228848 0.00331201 0)
(0.00142321 0.00124831 0)
(0.001045 0.000428062 0)
(0.0012486 0.000624968 0)
(0.000676936 0.000474389 0)
(0.000470301 0.000474007 0)
(0.000859649 0.000431327 0)
(0.00175114 0.00241303 0)
(0.00166673 0.00176313 0)
(0.000276286 0.000427786 0)
(0.000169159 0.000277939 0)
(0.000334324 0.000447162 0)
(5.60356e-05 8.70808e-05 0)
(-8.73559e-06 8.57312e-05 0)
(-1.74903e-05 0.000179216 0)
(-6.5026e-05 0.000644636 0)
(-6.71075e-05 0.00067719 0)
(-7.76524e-05 0.000818164 0)
(-7.48098e-05 0.000773403 0)
(-4.74851e-05 0.000454919 0)
(-3.41319e-05 0.000327736 0)
(-6.0958e-05 0.000582962 0)
(-9.26065e-05 0.00101503 0)
(-9.13076e-05 0.000956349 0)
(-0.000122867 0.00137554 0)
(-0.000121295 0.00127801 0)
(-0.000146866 0.00176756 0)
(-0.000145692 0.00165785 0)
(-0.000139146 0.00156176 0)
(-0.000328733 0.00832187 0)
(-0.000477706 0.0127147 0)
(-0.000466674 0.0115873 0)
(-0.00041407 0.0102306 0)
(-0.000381617 0.00964473 0)
(-0.000393364 0.00933335 0)
(-0.00032213 0.00751309 0)
(-1.07777e-05 0.0161868 0)
(0.000285771 0.0165734 0)
(0.00043111 0.0171866 0)
(0.000890064 0.0170763 0)
(-0.000419431 0.0141822 0)
(-0.000301546 0.0147795 0)
(-0.000214898 0.015969 0)
(-0.000425608 0.0135247 0)
(-0.000276418 0.00585036 0)
(-0.000292805 0.00624021 0)
(-0.00031551 0.00709502 0)
(-0.000297108 0.00572737 0)
(-0.000270461 0.00512315 0)
(-0.000278112 0.00480676 0)
(-0.000263614 0.00450739 0)
(0.00212684 0.0099075 0)
(0.00175872 0.0126266 0)
(0.00219344 0.00831661 0)
(0.00226564 0.00539778 0)
(0.0020297 0.00342071 0)
(0.00120255 0.0159865 0)
(-0.000219425 0.00303097 0)
(-0.000201085 0.00272316 0)
(-0.000200534 0.0025385 0)
(-0.000168089 0.00205143 0)
(-0.000205806 0.0024064 0)
(-0.000278183 0.00428525 0)
(-0.000252302 0.00383732 0)
(-0.000242559 0.00351339 0)
(-0.000244363 0.00328826 0)
(0.00146888 0.000850958 0)
(0.00115512 0.000347789 0)
(0.000942127 0.000276905 0)
(0.00137327 0.000540849 0)
(0.000762071 0.000362225 0)
(0.000581468 0.000379845 0)
(0.000389922 0.000403578 0)
(0.000506443 0.00039701 0)
(0.00195084 0.00240639 0)
(0.00175831 0.000989087 0)
(0.000273437 0.000394818 0)
(0.000153162 0.000237592 0)
(0.000312834 0.000389567 0)
(2.24182e-05 3.36661e-05 0)
(0.000104306 0.000159055 0)
(-8.77865e-06 8.35017e-05 0)
(-1.65936e-05 0.000164205 0)
(-7.39739e-05 0.000708031 0)
(-7.78257e-05 0.000766608 0)
(-8.81997e-05 0.000908028 0)
(-8.21115e-05 0.000817048 0)