/*--------------------------------*- C++ -*----------------------------------*\
| =========                 |                                                 |
| \\      /  F ield         | OpenFOAM: The Open Source CFD Toolbox           |
|  \\    /   O peration     | Version:  v2012                                 |
|   \\  /    A nd           | Website:  www.openfoam.com                      |
|    \\/     M anipulation  |                                                 |
\*---------------------------------------------------------------------------*/
FoamFile
{
    version     2.0;
    format      ascii;
    class       surfaceScalarField;
    location    "0.18";
    object      meshPhi;
}
// * * * * * * * * * * * * * * * * * * * * * * * * * * * * * * * * * * * * * //

dimensions      [0 3 -1 0 0 0 0];


internalField   nonuniform List<scalar> 
18811
(
0.000789167
0.000601002
-0.00049465
0.00282346
-0.000671165
0.00254267
0.0016723
0.00011855
0.00398258
0.000976798
0.00404069
0.00409782
0.000288765
0.000212179
0.00565388
0.00284249
-0.000490037
0.00107474
0.00415272
0.0060693
0.0043703
-0.00167633
-0.000338687
0.0074409
0.00236224
0.00174845
0.000676026
0.00459872
0.00502911
-0.000904809
0.00927266
0.00753291
-0.00101109
0.00114514
-0.000175238
0.00951756
0.00402679
-0.00130411
0.0018449
-0.00028588
0.00244589
0.00322787
0.00862054
0.00881424
0.0110081
-0.00538843
0.00653244
-0.00153206
-0.000839102
0.0119004
0.00247295
0.00236092
0.00137373
0.000576081
0.00674417
0.00944778
-0.00243812
0.0138437
-0.00154199
0.0149742
0.0114462
-0.00219844
0.00463973
-0.00258688
-0.000822128
0.0146443
-0.00164327
0.00471573
0.00290841
-0.000856871
0.00117097
-5.62647e-05
0.00589335
0.00156975
-0.00063322
0.0115387
0.0115209
0.0145916
0.0159646
-0.00857061
0.00906679
-0.00108827
-0.000165545
0.00138768
0.0146466
0.00189476
0.00277045
0.00246979
0.000786418
-0.000220242
0.00056768
0.00633953
0.00485959
0.0145133
-0.00695738
0.0218319
-0.00373344
0.0211966
-0.000601357
0.0190075
0.0128301
-0.00147743
0.00788328
-0.0060388
0.00224903
0.000370119
0.015628
-0.00111344
0.00352891
-0.00138138
0.00429387
-0.000920086
0.00217343
0.000140956
-9.95686e-05
-0.00426317
0.0114981
0.00107978
0.00983077
0.00555951
0.00849851
0.0211973
0.0231546
0.0208136
-0.0117184
0.0126184
-0.000832553
0.000290378
0.00345518
0.0132802
0.00160182
0.00268445
0.00595972
0.000410983
-6.97879e-05
0.00062283
0.00553031
0.00705666
0.0143636
0.012051
-0.0121167
0.0231813
0.0310189
-0.00518304
-0.00115858
0.0268259
0.00959942
0.0127672
0.00297248
-0.0107532
0.0133789
0.00522422
-0.00193012
0.0243155
0.00239953
-0.000430673
-0.000910657
0.00400184
-0.000955308
0.00744447
0.000148907
0.000829936
-7.59494e-05
-0.00297105
0.0108902
-0.00170142
0.0168227
0.0110518
0.0217413
0.00452719
0.0324094
0.02005
0.0130243
0.0158772
0.027961
-0.0147218
0.0207627
-0.00248265
0.00227016
0.00114018
0.00956976
0.0154647
0.00186729
-0.00088076
0.000685135
0.0034733
0.00521195
0.000146027
3.98882e-05
0.00015321
0.00178265
0.00981605
0.00315335
0.0147915
0.013493
-0.020038
0.0273681
0.0141383
0.0209005
-0.0195725
0.0430444
0.0320112
0.0108795
0.0187907
0.00420372
-0.00571061
0.00650153
0.0154455
-0.0102573
-0.00178108
0.0133999
0.00599647
0.0102528
-0.00049034
0.00258221
0.00102666
-0.000247453
-0.000800229
0.00457566
-0.00193515
0.00756699
-0.000149787
0.000251706
0.00136106
0.00881615
-0.00304409
0.0185095
0.0109461
0.0111601
-0.00712578
0.0309139
0.037302
0.0109831
0.0201822
0.0139402
0.0328692
0.0261658
-0.0220268
0.0300299
0.0138987
-0.00395775
-0.00347816
0.00664838
0.00178283
0.0243941
0.000756516
0.00204658
0.0028901
0.00588156
0.00198552
0.00766345
-0.00108987
0.0102757
0.00525578
0.013567
0.0101601
-0.0252191
0.0402141
0.0331221
0.0178552
0.0147482
-0.031602
0.0466541
0.0337053
0.0227347
0.0116528
0.00805821
0.0190965
0.00948007
-0.00769767
0.00737862
-0.0157616
0.0152779
-0.00675123
-0.00214567
0.00560593
0.0195665
0.000755063
-0.000219658
0.00240977
-0.000757552
0.00379905
-0.00300072
0.00526606
0.000972804
0.00688254
-0.000427274
0.0109571
0.0157917
-0.0021116
0.0161519
0.0136043
0.0249861
0.0114887
0.0420855
0.0399421
0.0121775
0.0314182
0.00463586
0.0319801
0.0450847
0.0254739
-0.0275142
0.0419723
0.0115366
-0.00137399
0.0268278
-0.00855884
0.00726369
0.00182336
0.0178574
0.000671808
0.00177798
0.000939827
0.00406325
0.00132501
0.00522261
0.00666342
0.00667684
0.00439925
0.00726814
0.00871154
0.00436324
0.0119191
-0.0254245
0.0429504
0.0558095
0.0493201
-0.0359653
0.0526694
0.0131537
0.0197129
0.0198405
0.0268201
0.00715974
0.0188297
0.00359212
0.021772
-0.00815858
0.00951415
-0.0205817
0.0151623
-0.010673
0.00592012
-0.00121896
0.0028972
0.0152653
0.000675472
0.00180044
5.37998e-05
0.00287252
-0.0022669
0.00372722
0.000807788
0.00450465
0.00020637
0.00656189
-0.00148112
0.00827093
0.0118762
0.0132722
0.00081644
0.0113237
0.0119473
0.00905291
0.0536268
0.00384631
0.0501714
0.0490154
0.00954951
0.0341066
0.0275094
-0.0112334
0.040086
0.0220908
-0.0220611
0.0291148
-0.0124567
0.0377944
0.000526902
0.00151463
-0.00379773
0.00159929
0.0163401
0.000818887
0.000700494
0.00235121
0.00142003
0.00324025
0.00481466
0.00516971
0.00324613
0.0051171
0.00436358
0.00755317
0.00300894
0.0103658
0.0144792
-0.030068
0.0459153
0.0636218
0.0619716
0.0410289
-0.0404778
0.054592
0.0177675
0.0169153
0.0109314
0.0169521
0.0151615
0.0256676
0.00775091
0.014552
0.0413368
-0.0075349
0.0331123
0.0113916
-0.00504766
0.0079885
-0.00993525
0.0144771
-0.0187474
0.0184976
-0.000738793
0.00118345
0.0152814
0.000830556
0.00162156
-0.000887449
0.00236146
-8.76228e-05
0.00340342
0.000414287
0.00448493
-0.000213592
0.0054583
0.007699
-0.00214366
0.00739325
2.80596e-05
0.00759258
0.0104688
0.00931205
0.0052468
0.0101733
0.0732732
-0.00249728
0.0249122
0.0414225
0.00534366
0.0374909
0.0562607
0.00389575
0.0292185
0.0328335
0.0250673
-0.012326
0.0391791
0.0158571
-0.0277474
0.0244539
0.0294206
0.00735496
0.0439438
0.00055945
-0.00144134
-0.0061234
-0.0022612
0.00518855
0.0077346
0.00762865
0.00083956
0.00235917
0.00391591
0.00434871
0.00342244
0.00168536
0.00610416
0.00115886
0.00630097
0.00938056
0.00260126
0.00797476
0.0120389
0.0130958
-0.0350388
0.0490932
0.0224513
0.0548975
0.0590543
0.0506888
0.0487296
0.026134
-0.0461747
0.0545146
0.00934035
0.0201942
0.01564
0.017518
0.0150662
0.0100853
0.0104234
0.0291206
0.0092103
0.006764
0.0340224
-0.00695696
-0.0300849
0.0412301
0.0129832
-0.00757344
0.0107739
-0.0118154
0.0127741
-0.0205992
0.0177614
-7.14607e-05
0.000186545
0.0169909
0.000870712
4.53559e-05
0.00236194
0.000574901
0.00340807
0.00345559
0.000972903
0.00700458
0.00733509
0.00232559
0.00410874
0.00100792
0.00848872
0.00909007
0.00806717
0.00410009
0.0089547
0.00427191
0.00764953
0.0162784
0.0418838
-0.00198992
0.0658781
0.00319985
0.0504799
0.0181212
0.0320472
0.0454883
0.0546872
0.00534219
0.0253086
-9.54236e-05
0.0205265
0.0283606
0.0151823
0.0169892
0.00447512
0.0251752
0.00736526
-0.0292132
0.0250479
0.0232705
0.0210915
0.0389205
0.000949582
-0.00567798
-0.00848845
0.002139
-0.00470889
0.00747096
0.00641206
0.0106442
0.000967711
0.00301887
0.00448872
0.00398312
0.00320898
0.0028615
0.0045729
0.00647729
0.00710001
0.0018796
0.00669912
0.00192615
0.00726453
0.0101069
0.0132272
0.0107826
-0.036538
0.0478168
-0.037823
0.0576126
0.0473197
0.0565747
0.032642
0.00531216
0.0470238
0.0390624
0.0260114
0.0203354
-0.0504521
0.0607288
0.0179128
0.00761851
0.00289618
0.0178291
0.0119424
0.0165842
-0.00232358
0.0176767
0.0148295
0.0310503
0.0016997
0.0237882
-0.0206212
0.0301398
0.00630233
-0.011138
0.0347491
0.00535642
0.0128937
-0.00989312
0.00950988
-0.0183165
0.0127469
0.000476288
0.000124528
0.00787601
0.00280526
0.00101276
0.00197492
0.00113276
0.000491094
0.00406415
-0.00206897
0.00544565
0.00654939
0.00422607
0.00245124
0.00370105
0.00352929
0.00117143
0.00564178
0.00857243
0.00339157
0.00689948
0.00624322
0.00712629
-0.00294357
0.0139128
0.00202127
0.014257
0.0468187
0.0650661
0.0420002
0.0203315
0.0791635
0.023084
0.0257937
0.0186867
0.021405
0.0400745
0.0537453
0.0137838
0.0210129
0.0197437
0.00521737
0.0127775
0.0185466
0.0096609
0.00821825
0.00646288
0.00850639
0.0200817
0.0113987
0.00406128
0.0200779
0.0376734
-0.00568638
0.0279221
-0.0196799
0.030243
0.0429151
-0.00650369
0.0238538
-0.0091816
0.00413777
-0.0013152
-0.00645185
0.00911851
0.0050386
0.00934878
0.00042528
0.000669963
0.00252355
0.00161881
0.00211264
0.00263185
0.00297854
0.00403807
0.00265941
0.00706659
0.00630541
0.00774262
0.00845809
0.002412
0.00629336
0.00979636
0.00947587
-0.00302485
0.0103414
0.0111005
-0.0324744
0.0377129
-0.0245718
0.0762711
0.0215377
0.0456588
0.0801336
0.0604659
0.0465197
0.0485744
0.0160395
0.024534
0.0490552
-0.0313587
0.00885979
0.0123489
0.000358674
0.0196214
0.0150909
0.00042259
0.0125723
0.019113
0.016896
0.0245003
0.0278795
-0.00163212
0.0220254
0.0242562
0.0064682
0.035169
-0.00370318
0.0131635
-0.0131591
0.00912018
-0.0162453
0.00879792
-0.000644239
0.000806327
-0.00214332
0.0145702
0.000720421
0.000396117
0.00220785
0.00209574
0.00445477
-0.00193549
0.00508296
0.00416985
0.0030869
-0.00102684
0.00754835
0.00691702
0.000134891
0.00855442
0.00658305
-0.000384012
0.010384
0.00248734
0.00719189
0.0101413
0.0121345
-0.000724245
0.0531766
-0.0130845
0.0359951
0.0437156
0.00942307
0.0383443
0.0584268
0.0292108
0.00176987
0.0646808
0.00680506
0.0413065
0.0270619
0.022504
0.000504376
0.0245303
-0.0127958
0.0653376
0.0253171
-0.00537506
0.0144137
0.0129681
0.0144205
0.00469493
0.0107179
0.0175852
0.0177817
0.00777137
0.00945113
0.00580099
0.0191506
0.0150454
0.0131325
0.00473449
0.0176126
0.0299275
-0.00466852
-0.0154644
0.0234623
0.0212107
0.016095
0.0276451
0.0363377
-0.00558606
0.0166307
-0.00690034
-0.00380687
0.00503632
-0.00120438
-0.00650474
0.00582529
0.0109635
0.00388269
0.000140627
0.000676183
0.00233664
0.00268114
0.00251516
0.00277785
-0.00211705
0.0065612
0.00580158
0.00572348
-0.00155367
0.00877169
0.00725008
0.00927351
0.00162342
0.00898974
0.00905041
8.89658e-05
0.0103841
0.0125793
0.0104912
0.0255344
0.047482
-0.00857641
0.0565114
0.04652
0.0656174
-0.0314343
0.0655017
0.0611993
0.00688778
0.0353113
0.0280914
0.0301829
0.00887262
0.0160794
-0.044799
0.0351372
0.0392891
-0.0173825
0.00582355
0.00885437
0.0191149
0.000941954
0.0137907
0.0188683
-0.00045331
0.0185224
0.0190951
0.0136143
0.0211873
0.0242645
0.022402
-0.000512966
0.0184105
-0.0235809
0.0201752
0.00186114
9.06877e-05
-0.0183031
0.0354635
0.0103636
-0.0123308
0.00853847
-0.013332
0.00728728
-2.67171e-05
0.00116088
-0.00519346
0.000742888
0.000586035
0.0018828
0.00339045
-0.00121383
0.0041305
-0.000578751
0.00739754
0.00548494
-0.00268285
0.0086591
0.00628722
-0.00219549
0.00975469
0.00735131
0.000652781
0.00861612
0.0049158
0.00441442
0.0113507
0.00035505
0.012582
-0.00445407
0.0153758
0.0408836
-0.0137788
0.0117502
0.0378774
0.0710171
0.00862857
0.0392413
0.0584577
0.0122597
0.0433273
0.0269674
-0.00556294
0.0710698
0.0187616
0.0172256
0.0143463
0.0142269
0.011494
0.0194878
0.0309316
0.0535794
-0.0160204
-0.0171545
0.0599367
0.0261664
0.0230555
0.0191174
0.0119431
0.0072983
0.00327271
0.0156874
0.0189059
0.00959231
-0.000577016
0.0221027
0.0121913
0.0125122
0.0221445
0.00677787
0.0119052
0.0250782
-0.00555375
-0.0137865
0.0163679
-0.013746
0.0141623
0.0236701
-0.0126024
0.0229976
-0.00377727
-0.00611503
0.00557498
-0.00417186
0.0038461
-0.000856567
0.00157604
0.000131199
0.000740996
0.00213094
0.00228771
0.00352537
0.000711409
0.00705813
0.000664673
-0.000503683
0.00629142
0.00749936
0.001458
-0.00200097
0.00860412
0.00809189
0.0126628
0.0133604
-0.00151633
0.0133248
0.0161305
0.0114717
0.0479233
0.029397
0.0449907
0.0129425
0.0272666
0.0563473
0.0594818
-0.0263221
0.0566554
0.0151833
0.05888
0.030899
0.0310024
0.0345042
0.0153223
0.016097
0.0404517
-0.0380952
0.0246267
0.0378126
-0.0108904
0.00787546
0.0156354
0.000681225
0.0190096
0.0156391
0.017334
-0.00140485
0.0175746
0.00674629
0.0126251
0.00993888
0.0125949
0.0226209
0.0196412
0.00718481
0.015476
0.0189953
0.0125718
-0.0184193
0.0127067
0.00247711
-0.00487909
0.0301421
-0.00607463
0.0248694
-0.00213292
-0.00992002
0.00725121
-0.010337
0.00477778
0.00116195
0.000761835
0.00797137
-0.00503936
0.000828134
0.000118951
0.00218303
0.00252863
0.00324658
0.00335309
0.000343431
0.00700286
0.0084714
0.0069733
0.0103612
-0.00382706
0.0123299
0.00920962
0.00166439
0.0121642
0.0154675
0.00728422
0.00940258
0.0193507
0.0111119
0.03806
-0.0224984
0.0548133
-0.000491117
0.0472445
0.039351
0.0557248
0.00545815
0.0439613
0.0190058
0.0339999
0.0265464
0.0737196
0.0391157
-0.00636466
0.0381341
0.0253271
0.00953643
0.0256062
0.0253737
0.0238007
-0.00239883
0.0457901
0.0440003
-0.0185679
-0.00746364
0.0477787
0.0204575
0.0209913
0.016763
0.0180844
0.000574352
0.0154435
0.0183915
0.00253699
0.0154994
0.0285725
0.0138106
0.00938593
0.00522462
0.0148738
0.0247821
0.0169114
-0.00516415
0.01634
-0.00552611
0.0141503
-0.0117955
0.00892922
0.0194144
0.0146546
-0.00100656
-0.0026846
0.0135372
-0.00837425
0.0042929
-0.00212798
0.00286769
-0.000738675
9.42372e-05
-7.82665e-05
0.00111907
0.00228112
-0.00225043
0.00573301
0.00126083
0.00665461
0.00061017
0.00752494
0.00134861
0.00223969
0.0050722
0.00818548
0.00259479
0.00667688
0.0059767
-0.00111241
0.010693
0.0114227
0.00538292
0.0106286
-0.00679431
0.016766
0.00758517
0.0122162
0.0391967
0.0281714
0.0288117
0.0154973
0.0331387
0.0115855
0.0286436
0.0531084
0.0560739
-0.0266995
0.0563686
0.0207644
0.0561483
0.0621626
0.0218055
0.0167011
0.0378092
0.000854247
0.0254427
0.00226664
0.0236013
0.026605
-0.0295648
0.0292476
0.0409386
0.0159896
-0.0240748
0.00596453
0.0242151
-0.00381423
0.00345022
0.0181579
0.0208237
0.000996279
0.0175853
0.0185178
0.0120465
-0.00291336
0.0189995
0.012695
0.0165564
0.0271666
0.0249195
0.00813665
0.017348
0.0104774
-0.0116866
0.00505345
0.00127734
-0.0044968
0.0204486
-0.00164405
0.018361
-0.00542628
0.00635743
-0.0064062
0.00684678
-0.00894914
-0.00140098
0.00171906
0.000612856
0.00483883
-0.00382432
0.00124944
0.00374815
0.00379496
0.00221632
0.00220226
0.00471823
0.00841088
0.00992657
0.00639936
0.00761157
0.00962119
-0.00543368
0.0118086
0.0056405
0.00269791
0.00914417
0.0134147
0.0137911
0.000788443
0.0165388
-0.000237803
0.0130064
0.00583281
0.0343753
-0.0242807
0.0545326
0.0458437
-0.00331733
0.0374999
0.0354365
-0.0233484
0.0803466
0.036158
0.0320347
0.0288536
0.0520274
0.00790643
0.0402206
0.012696
0.00963932
0.0179948
0.0178834
0.020643
0.00396703
0.0221633
0.0283805
0.00658997
0.0205689
0.0422538
-0.0120257
0.0258429
0.0177632
0.0256868
-0.00937081
0.020645
-0.0145551
0.0522865
0.0166168
0.0271549
0.0223784
0.0151824
0.00285821
0.0161726
0.0153494
0.00238849
0.0172173
0.0237384
0.0128221
0.0150413
0.0104661
0.0152437
0.0286906
0.0111464
-0.00236954
-0.00690257
0.0101687
0.0109134
-0.00965036
-0.0106556
0.00533483
0.0160822
0.00464978
-0.00207189
-0.000768264
0.00825646
-0.00905648
-0.00130339
0.002645
-0.000804829
0.00106788
0.000413775
0.00191177
0.00202995
0.00432643
-0.00361876
0.00863717
0.00509246
0.000673103
0.00960618
0.0040401
0.00268337
0.00364084
0.00430164
-0.000119975
0.0101713
0.0121433
0.0152267
0.00291467
0.0108435
0.00135217
0.0130919
0.0166175
0.0169525
0.0163271
0.0320952
0.0223899
0.0339853
0.0297474
0.0170481
0.0108605
0.027442
0.00854466
0.0276782
0.0524682
0.0333827
0.0724407
-0.0320613
0.0645988
0.00889971
0.0452237
0.0643307
0.0512694
0.0312322
0.0281963
0.0298767
-0.00713795
0.0299625
0.00118151
0.0278968
0.0223298
0.0180275
0.0264774
0.0145982
0.0375799
-0.0292834
0.0204973
-0.00945346
0.00172678
0.0239895
0.0159598
0.0120635
0.00902802
0.0141566
0.0249473
0.0192255
-0.00460543
0.0225525
0.0187352
0.00564335
0.0324027
0.0311589
0.00817246
0.0211692
-0.00984054
0.00622114
-0.007707
-9.6889e-05
-0.00114471
-0.00125298
-0.00195164
-0.00352968
0.0140353
0.00063088
-0.00805227
0.0110212
0.00372029
-0.00529229
0.00479493
-0.00462615
-0.00496794
0.00254528
0.000549525
0.00121614
0.00261295
0.00357699
0.000960321
0.00491381
0.00405791
-0.00408531
0.00956966
0.0111917
0.0058557
0.00805789
0.00662002
0.00958884
0.00022316
0.0124273
0.00368807
0.0121683
0.0126949
0.0174239
-0.00186139
0.0191484
-0.00128244
0.0189454
0.00568697
0.0111523
0.00318481
0.0297773
-0.0187482
0.0424655
-0.00451147
0.0398279
0.0262679
0.0285666
0.00441751
0.0236948
0.0317564
-0.0276121
0.0642462
0.0485719
0.0474467
0.021866
0.0407808
0.00644431
0.0387559
0.028497
0.0339644
0.0247047
-0.00174473
0.0306871
0.0288379
0.00962572
0.0210254
0.00520421
0.0233525
0.0286215
0.000828077
0.0268041
-0.0131665
0.027602
0.0297526
0.0102108
0.00684394
-0.0151031
0.00503241
0.0565243
0.0248281
0.0272357
0.0210953
0.0179897
0.00220516
0.0211168
0.0183448
0.0149014
0.0112402
0.0207285
0.000121422
0.021934
-0.00315198
0.00555951
-0.00672483
-0.00771901
0.00523835
0.00567795
-0.00729652
-0.00617148
0.00460506
0.00365982
-0.00776778
-0.0120097
0.010777
-0.00297669
-1.28619e-05
-0.00111707
-0.00400936
-0.000665414
-0.000486848
0.00205369
0.00162135
-0.000229179
0.00380007
-0.00426732
0.00863055
0.0055992
0.00498205
0.00663278
0.0112026
0.00404553
0.00439757
0.0031829
0.00378683
0.00592898
0.00407469
0.0128505
0.00571066
0.00721118
0.0189577
0.0126222
0.00565452
0.0185335
0.00468241
0.0148232
0.0164316
0.0351103
0.0100939
0.0338936
0.010185
0.0307866
-0.0143975
0.0416925
0.0150224
0.0396486
0.00509003
0.0275075
0.0131709
0.0543399
0.00569281
0.046983
0.0573334
-0.0314702
0.0565835
0.0022901
0.0401863
0.0471252
-0.0157634
0.0464266
0.037853
5.6483e-05
0.0256027
0.0318335
0.0349036
0.0360136
0.0268852
0.00252124
0.021548
0.0321811
-0.0235286
0.0252767
0.0387265
0.00420785
0.0139856
-0.00832688
-0.01077
0.0139759
0.0292194
0.0086975
0.0168384
0.00716949
0.0208031
-0.00164618
0.0236912
0.0209571
-0.000638484
0.0226633
-0.00675068
0.025794
0.0268639
0.0216489
0.0314669
-0.00749564
0.00302592
-0.00347728
-0.00396971
-0.00346962
-0.0030454
-0.00882083
0.00106951
-0.00753066
0.00148477
-0.00417424
-0.00206645
-0.00958254
0.00452676
-0.00352282
-0.00240964
0.00221047
0.00442831
-0.00454096
0.000366019
0.00034878
0.00086602
0.000971271
0.00373178
0.00863699
0.000437899
-0.00398933
0.00997099
0.0129052
0.00765433
0.0104183
0.00794426
-0.00167656
0.00578687
0.0132549
0.0075098
0.00581926
0.015227
0.0105897
0.00897989
0.0191796
0.0169492
-0.000154759
0.0194938
0.00048932
0.014988
0.00874753
0.00823244
0.00802776
0.0280102
0.0494398
0.0453705
-0.00531161
0.0370115
0.0374369
0.00452407
0.0360617
0.0365178
0.0629345
0.0407712
0.00952937
0.0521638
0.0335317
0.0260746
0.0414248
0.0001269
0.037044
0.0118635
0.0325064
0.0157192
-0.0075952
0.040552
0.0282164
0.0184926
0.0185416
0.0116856
0.0159113
0.0340814
0.0261248
0.00126775
0.0246172
0.00392365
0.0362564
-0.0139046
0.017683
-0.000579141
-0.0148786
0.00562332
-0.00312073
-0.0174442
0.0495209
0.0246696
0.0199274
0.0239394
0.0216141
0.00116663
0.0223097
0.0101347
0.0163368
0.0126208
0.0151006
0.035234
0.0149767
0.0175166
-0.00850192
-0.00801414
0.00313655
0.00312512
-0.00796565
0.00401529
-0.00893253
0.00314478
-0.00642265
0.00483217
-0.00372981
-0.0025492
0.00565994
-0.00370364
0.0016608
-0.00928724
0.00486122
-0.00737479
-0.0047467
0.00179675
-0.00190488
-0.0022854
-0.000259904
0.00122688
0.0024889
-0.00150426
0.00103351
-0.00230648
0.00345901
0.0108608
0.00607085
0.00738133
0.0143182
0.00483095
0.00600435
0.00346167
0.00490255
0.00293698
0.00310202
0.00734304
0.0064801
0.00888883
0.00694327
0.0183294
0.00811216
0.0116605
-0.00501603
0.0228507
0.0207798
0.0239313
0.033377
0.0393888
0.0115473
0.021984
0.0248319
0.0199032
0.0180869
0.0208422
0.0176102
0.0161713
0.020753
0.00962213
0.027815
0.032441
0.0332733
0.0366349
0.00638611
0.0459368
0.00446837
0.0504885
-0.0148992
0.0431498
0.0266237
0.0160325
0.0383715
0.0460354
0.054236
0.0180414
0.0236502
0.0388757
0.0376999
0.0354257
0.0206466
0.0144883
0.0167103
0.0100098
-0.0167003
0.0180256
0.0294419
0.021366
0.000190309
-0.0105815
0.00902001
-0.00643431
-0.00867173
0.00397001
0.0377283
0.0100442
0.0156529
0.0310523
-0.000798413
0.0257229
0.0236911
-0.000528801
0.0237178
0.027453
0.0323745
0.0137673
0.0223243
0.0297192
0.0343732
-0.00593312
-0.00610046
-0.00723089
-0.00580734
-0.00200024
-0.00698437
0.00362475
-0.00465605
0.00258975
-0.00531526
0.0020422
-0.00428872
-0.00587656
-0.0107539
0.000634456
0.0011589
0.00218105
-0.00381548
0.000343541
0.000310352
0.000571843
0.000624298
0.00150491
0.00218361
-0.00589492
0.0175358
0.0169271
0.00902068
0.012695
0.00988121
0.00821365
0.00483356
-0.00767581
0.0147869
0.0156112
0.0140625
-0.003561
0.0159508
0.0202515
-0.002923
0.0245659
0.0114132
0.0134383
0.0175232
0.0170033
0.0145128
0.0261932
0.0394164
0.0431485
0.0407908
0.039837
0.034834
0.039194
0.0462215
0.0390064
0.0416544
-0.00871346
0.057749
0.0309333
0.0220291
0.0372463
-0.0261971
0.0433318
0.0134383
0.0290322
0.0186871
0.0257249
0.0306944
-0.0107949
0.03531
0.0289197
0.0203749
0.018467
0.0185827
0.017644
0.0315538
0.0339529
0.0211155
-0.00391897
0.0132674
0.0172677
0.0356454
-0.0109543
0.0100919
-0.00341102
-0.0072044
-0.000370409
-0.00467093
0.0374346
0.00250945
0.0313502
0.026087
0.0215304
0.00235824
0.0222992
-0.00103638
0.0294574
0.00561316
0.0275456
-0.00636303
0.0298335
0.00722008
0.0232727
0.0049052
0.0303881
0.00289882
-0.011838
-0.00983099
0.00263145
0.00152162
-0.010326
6.87104e-05
-0.00578266
-0.00422595
0.00263526
-0.000305682
-0.00171763
-0.00202718
0.00447635
-0.0017014
0.000796093
-0.00897574
0.00102342
-0.0103067
-0.0105188
-0.00196529
0.00102844
-0.000135371
0.00193334
0.0029326
0.00079273
0.0104643
0.0103061
0.00741157
0.0201631
0.00368081
0.00950411
0.0141199
-0.000129408
0.00869955
0.00500997
0.0110727
0.00435956
0.00232826
0.01397
0.0264631
0.0189697
0.00234416
0.0187561
0.00696269
0.0183361
0.0211841
-0.0199791
0.047423
0.0205907
0.0196185
0.0245538
0.0171465
0.0253042
0.0205885
0.0203667
0.0114399
0.0243398
0.0519908
0.00112987
0.0464347
0.0104554
0.0303575
0.0543631
0.0155269
0.0456784
0.0491988
0.0543673
-0.0119107
0.0517495
0.0300096
0.0150612
0.0438819
0.0460345
-0.0141521
0.0469146
0.0256042
0.0107568
0.0309947
0.0473464
0.0371389
0.0315278
-0.00291465
0.0379952
0.00760429
0.013954
-0.0115029
0.00705384
0.0252334
0.0325105
0.00517234
-0.00247271
0.00363271
-0.00874512
0.00417585
-0.00590379
-0.00796659
0.00187215
0.0276145
0.0371014
0.0103437
0.0221687
0.00369752
0.0233378
0.0249174
-0.00281712
0.0258993
0.0359194
0.0222289
0.0380195
0.0289166
0.0175594
0.0137599
-0.0120117
-0.0051839
-0.0048878
-0.00861315
-0.00557064
-0.00332849
-0.00143594
0.0027159
0.00217355
-0.00320318
-0.00394034
0.00248797
-0.00494237
0.00393373
-0.0030547
0.0047055
-0.00880691
0.000590606
-0.0129843
-0.0114478
-0.00122397
0.000694693
0.00064192
0.000829397
0.00231755
0.00183045
-0.00896445
0.0203327
0.0222854
0.0121677
0.0214843
0.00149183
0.0130809
0.0106914
0.00773995
0.0255982
0.0206875
0.00683113
-0.00262043
0.0227122
0.0239429
0.0170054
-2.69614e-05
0.0190934
0.017621
0.00432125
0.0211791
0.0275122
0.0522489
0.0412561
0.0431924
0.0479577
0.0459568
0.0245315
0.0290452
0.0154931
0.0324257
0.0425659
0.00701655
0.0413735
0.0187275
0.0327042
0.0251011
0.031633
0.0305678
0.023898
-0.0271954
0.0436864
0.0179758
0.0258886
0.022046
0.0193365
0.0289473
0.0427893
0.0201015
0.028173
0.0353006
-0.003852
0.0364578
0.035112
-0.00740132
0.0207693
0.0136558
-0.00792168
0.0318304
-0.0089062
0.00516594
-0.0070237
-0.00605234
-0.00512518
-0.0131125
0.04278
0.0267376
0.0290262
0.0267679
0.0211419
0.0257858
0.0175861
0.00898618
0.0128352
0.0238065
0.0358692
0.0205827
0.0183889
0.0178482
0.0119015
0.0324208
-0.00348899
-0.00971592
-0.00739613
0.00231307
0.00112325
-0.0105496
0.000721426
-0.00591
-0.00409032
0.0020578
-0.0036218
0.00372177
-0.000568458
-0.00106674
-0.00222589
-0.000439958
-0.00144828
0.00172605
0.00690969
-0.000397498
-0.0104773
-0.000491432
-0.0124844
-0.00881008
-0.00546029
-0.0136721
-0.000905047
0.0012081
-3.23588e-05
0.00213296
0.0213811
0.00219484
0.0351011
0.0151189
0.00705766
0.00434629
0.0089967
0.00485407
0.006046
0.00394164
0.00403405
0.0221934
0.0045932
0.0253322
0.0261229
0.0143678
0.010562
0.0325236
0.0241466
-0.0169156
0.045871
0.0371135
0.0102202
0.0321568
0.0547625
-0.0057577
0.0553158
0.0278901
0.0195711
0.0540106
0.0461371
-0.00492912
0.038298
0.00705419
0.0372159
0.0397879
0.00726884
0.0360039
0.0457111
0.0418495
0.040298
-0.0102579
0.0356199
0.0518291
-0.00643468
0.0453292
0.042821
-0.00839257
0.0389049
0.038965
-0.017361
0.0385076
0.000670573
0.0282791
0.0370443
0.0103997
0.0267418
0.0226681
0.013336
0.00584067
0.0139591
0.00706915
-0.00391328
0.0034443
0.0294152
-0.00224769
-0.00670151
-0.00353957
-0.00401154
-0.0106607
0.0343289
-0.00976703
0.0383306
0.0101767
0.0197685
0.00725046
0.0202869
0.0193366
0.00267339
0.00512195
0.0216999
0.0235647
0.0290686
-0.00331215
0.0280438
0.000135757
0.036812
-0.00997814
0.0318312
0.0311588
0.021629
0.0118134
-0.0139544
-0.00932588
-0.00661846
-0.00849611
-0.00334944
0.00511859
0.00146721
0.00407219
0.00314473
-0.00255477
0.00206376
0.00167287
-0.00164119
-0.00338777
0.00269473
0.00547571
-0.00251073
0.00622129
-0.0131946
-0.0108861
-0.00315487
-0.0178168
-0.012018
-0.00370185
0.000752818
0.000493111
0.000645575
0.001761
0.0205928
0.0156874
0.0200004
0.030183
0.0140912
0.0103062
0.00491612
0.0262555
0.0269047
-0.000280581
-0.0161732
0.0443427
0.0390066
0.0178848
0.00314276
0.0218703
0.0414445
-0.0109344
0.0501463
0.053216
0.0312003
0.0253272
0.0227842
0.0342881
0.0263565
0.0289913
0.0193771
0.0279868
0.0165883
0.0227129
0.0303948
0.011944
0.0299495
0.0044239
0.0329294
0.0208989
0.0266911
0.0165031
0.027071
0.019706
0.02213
0.0249445
0.0121683
0.0430246
0.0404682
0.0040346
0.0400828
0.0441766
0.0226839
0.00108318
0.0382946
0.0300733
0.0276129
0.0105278
0.0337085
0.0242421
0.0421785
-0.00516998
0.00968994
0.0177221
-0.00762981
0.0142134
-0.00743023
0.0010973
0.0212767
-0.0121536
-0.013416
0.015952
0.0196937
0.0259455
0.014535
0.0328137
0.0278446
0.0238181
0.0256894
-0.00319741
0.0278012
0.0269763
0.0289551
0.028225
-0.00613606
0.0392028
0.0261551
0.0391491
-0.00237564
-0.0121475
-0.0123938
0.00110345
-0.00705601
0.00143746
-0.0100016
0.00171025
-0.00341952
0.00641921
0.000692986
-0.000262628
0.00623727
0.00189172
0.0030374
-0.000277561
-0.000603584
-0.000483665
0.0047708
-0.00116372
0.00352442
0.00648398
0.00169279
-0.0112693
-0.0045083
-0.0169117
-0.016536
-0.00278441
-0.0169484
0.000523639
0.00206311
-0.0129529
0.0297817
0.00207141
0.0181375
0.0297444
0.000938654
0.0164364
0.000899395
0.00940751
0.00584489
-0.0111157
0.038418
0.022581
0.0325391
0.0232696
0.0172211
0.042868
-0.0109958
0.0545219
0.0411135
0.0104077
0.0441372
0.0426911
0.0499706
-0.00846005
0.0440262
0.0469909
-0.015821
0.0461475
0.0458072
0.0464258
0.0517276
0.0386404
0.0357243
0.0122286
0.0219214
0.0447014
0.0449379
0.0408035
0.0290328
-0.0085297
0.0536278
-0.0111698
0.0540346
0.0306787
0.0250023
0.0208722
0.0346045
0.00490466
0.0415737
0.0107706
0.0237563
0.0358263
0.0181752
0.0253017
-0.00792616
0.00145067
0.0016613
-0.00188505
0.0199847
0.0125408
-0.00903976
-0.00193378
0.0240272
-0.00580468
-0.00817952
-0.00958548
-0.0066433
4.14354e-05
0.0207492
0.0274766
-0.013477
0.0293152
0.0138198
0.0203408
0.0107053
0.0180625
0.0356047
0.00742738
0.0193301
0.0365875
-0.011959
0.0408315
-0.00706783
0.0371131
-0.00953532
0.0388298
0.0363253
0.00412157
0.0200242
0.0202069
0.00182059
-0.0149659
-0.0110723
-0.00848398
-0.00427431
0.000102005
0.00787986
0.0089212
0.00277365
0.00595331
0.00401119
0.00175211
-0.00121123
0.00142412
-0.00201112
0.0019443
-0.00263022
0.00203764
-0.00138026
0.00573895
-0.0051373
0.00822623
-0.0166622
-0.0139808
-0.00460573
-0.015513
-0.018016
-0.0137546
-0.00533514
-5.32351e-05
-0.000476515
0.00259821
0.019385
-0.00514173
0.0234239
0.0245733
0.0399174
0.000358777
0.0159535
0.00965867
0.00540765
0.0432797
0.0326172
0.00125202
-0.0274728
0.046625
0.0584682
-0.013383
0.047553
-0.0160293
0.0593289
0.0294473
0.0229729
0.0210573
0.0254211
0.025759
0.0236477
0.021772
0.0294648
0.0186867
0.0196088
0.0274281
0.0151723
0.0318293
0.0350133
0.0126433
0.0269983
0.0268531
0.00844718
0.0316202
0.0139486
0.0229122
0.0368816
0.0253656
0.021397
0.0220429
0.0244212
0.0173761
0.025316
0.00199388
0.0285447
0.0475664
0.0395533
0.0573524
0.0498363
3.48715e-05
0.0354185
0.0411355
0.0427095
0.0432118
0.0297565
-0.0213585
0.048018
0.00743293
-0.00727269
0.00773001
0.01876
-0.00130891
0.0136665
-0.00994187
-0.00128105
0.0117795
-0.0144347
0.000253527
-0.0104958
0.0238518
0.0146216
0.0141747
0.0127458
0.0176851
0.0350306
0.039857
0.0252739
-0.00690906
0.0456995
0.0358302
0.0284461
0.0293381
0.0105676
0.0138251
0.023597
0.0345067
0.0352121
-0.00287138
-0.0119182
-0.0138752
0.00103159
-0.00845778
0.00114954
-0.00359404
0.00176893
0.000917201
0.00509592
0.00518078
0.00675919
0.00421965
0.00930992
0.0131116
0.00582021
-1.89689e-05
-0.000160588
0.00413195
-0.00151776
0.00356942
0.00180704
0.00592326
0.00387174
-0.00874582
-0.00951456
-0.0200393
-0.0169942
0.00098896
-0.0187162
-0.000526821
-0.0155274
0.000514602
0.00132156
0.00129745
0.0534391
0.00804232
0.0149213
0.0198103
0.00418547
0.0342113
0.00579786
0.00265742
0.0125915
-0.000623445
0.0102025
0.00469296
0.0176434
0.061785
0.0349453
0.0348429
0.0143439
0.0294157
0.0316152
0.0537406
0.0478217
0.0509223
0.0580942
0.0457991
0.0392296
-0.0123122
0.0407608
0.0455945
0.0543456
0.0384014
0.00646971
0.0268642
0.030905
0.0227414
0.0155031
0.0450968
0.043473
0.0498386
0.0047822
0.04461
-0.013733
0.0553033
0.0396678
0.0199067
0.0303646
0.0214198
0.0346352
0.00206772
0.0319159
0.0101532
0.0222792
0.00878045
0.0357359
0.039763
0.0185071
0.0303376
-0.00613914
-0.0024845
0.0089583
-0.00174674
0.0116154
0.00782702
0.00728081
0.00827087
0.00567471
-0.0114539
-0.00862789
0.0240342
-0.00229791
-0.0141306
-0.014158
0.0399018
0.027969
-0.00311789
0.0219248
-0.00571187
0.0421042
0.0148206
0.0262938
0.0415919
0.0658588
-0.0409682
0.07993
0.0366607
-0.00703071
0.0484121
-0.0207393
0.0456536
0.0149566
0.0306272
0.00334225
-0.0152866
-0.011933
-0.00579224
-0.000214559
0.0142175
0.0117939
0.0101204
0.00267494
0.00194259
0.0141569
0.00794447