/*--------------------------------*- C++ -*----------------------------------*\
| =========                 |                                                 |
| \\      /  F ield         | OpenFOAM: The Open Source CFD Toolbox           |
|  \\    /   O peration     | Version:  v2012                                 |
|   \\  /    A nd           | Website:  www.openfoam.com                      |
|    \\/     M anipulation  |                                                 |
\*---------------------------------------------------------------------------*/
FoamFile
{
    version     2.0;
    format      ascii;
    class       pointVectorField;
    location    "0.18";
    object      pointDisplacement;
}
// * * * * * * * * * * * * * * * * * * * * * * * * * * * * * * * * * * * * * //

dimensions      [0 1 0 0 0 0 0];


internalField   nonuniform List<vector> 
14482
(
(0 0 0)
(0 0 0)
(0 0 0)
(0 0 0)
(0 0 0)
(0 0 0)
(0 0 0)
(0 0 0)
(0 0 0)
(0 0 0)
(0 0 0)
(0 0 0)
(0 0 0)
(0 0 0)
(0 0 0)
(0 0 0)
(0 0 0)
(0 0 0)
(0 0 0)
(0 0 0)
(0 0 0)
(0 0 0)
(0 0 0)
(0 0 0)
(0 0 0)
(0 0 0)
(0 0 0)
(0 0 0)
(0 0 0)
(0 0 0)
(0 0 0)
(0 0 0)
(0 0 0)
(0 0 0)
(0 0 0)
(0 0 0)
(0 0 0)
(0 0 0)
(0 0 0)
(0 0 0)
(0 0 0)
(0 0 0)
(0 0 0)
(0 0 0)
(0 0 0)
(0 0 0)
(0 0 0)
(0 0 0)
(0 0 0)
(0 0 0)
(0 0 0)
(0 0 0)
(0 0 0)
(0 0 0)
(0 0 0)
(0 0 0)
(0 0 0)
(0 0 0)
(0 0 0)
(0 0 0)
(0 0 0)
(0 0 0)
(0 0 0)
(0 0 0)
(0 0 0)
(0 0 0)
(0 0 0)
(0 0 0)
(0 0 0)
(0 0 0)
(0 0 0)
(0 0 0)
(0 0 0)
(0 0 0)
(0 0 0)
(0 0 0)
(0 0 0)
(0 0 0)
(0 0 0)
(0 0 0)
(0 0 0)
(0 0 0)
(0 0 0)
(0.0193816 -0.0965151 0)
(0.0194915 -0.0964717 0)
(0.0196098 -0.0964249 0)
(0.0197373 -0.0963746 0)
(0.0198745 -0.0963204 0)
(0.0200223 -0.096262 0)
(0.0201815 -0.0961991 0)
(0.0203529 -0.0961314 0)
(0.0205374 -0.0960585 0)
(0.0207361 -0.09598 0)
(0.02095 -0.0958955 0)
(0.0211802 -0.0958046 0)
(0.021428 -0.0957067 0)
(0.0216648 -0.0955461 0)
(0.0219168 -0.095368 0)
(0.022188 -0.0951763 0)
(0.0224597 -0.094945 0)
(0.022747 -0.0946898 0)
(0.0230387 -0.0943974 0)
(0.023343 -0.0940735 0)
(0.0236504 -0.0937077 0)
(0.0239633 -0.0933003 0)
(0.0242816 -0.0928492 0)
(0.0246037 -0.0923509 0)
(0.0249285 -0.0918024 0)
(0.0252521 -0.0911989 0)
(0.0255768 -0.0905392 0)
(0.0258995 -0.0898187 0)
(0.0262202 -0.0890345 0)
(0.0265367 -0.0881824 0)
(0.0268477 -0.0872583 0)
(0.0271526 -0.0862584 0)
(0.0274498 -0.0851782 0)
(0.0277378 -0.084013 0)
(0.0280149 -0.082758 0)
(0.0282795 -0.0814081 0)
(0.0285301 -0.079958 0)
(0.028765 -0.0784022 0)
(0.0289822 -0.076735 0)
(0.0291796 -0.0749504 0)
(0.0293548 -0.0730423 0)
(0.0295057 -0.0710045 0)
(0.0296297 -0.0688305 0)
(0.029724 -0.0665139 0)
(0.0297859 -0.0640481 0)
(0.0298124 -0.0614265 0)
(0.0298005 -0.0586427 0)
(0.0297467 -0.0556902 0)
(0.0296479 -0.0525628 0)
(0.0295004 -0.0492544 0)
(0.0293008 -0.0457594 0)
(0.0290456 -0.0420727 0)
(0.0287308 -0.0381891 0)
(0.0283533 -0.0341048 0)
(0.0279093 -0.0298162 0)
(0.0273955 -0.0253208 0)
(0.0268086 -0.0206163 0)
(0.026146 -0.0157029 0)
(0.0254045 -0.01058 0)
(0.0245823 -0.00524964 0)
(0.0236772 0.0002854 0)
(0.0226881 0.00602084 0)
(0.0216141 0.0119513 0)
(0.0204551 0.0180691 0)
(0.0192114 0.0243663 0)
(0.0178844 0.0308323 0)
(0.016476 0.0374555 0)
(0.0149886 0.0442235 0)
(0.0134259 0.0511209 0)
(0.0117917 0.0581329 0)
(0.0100909 0.0652424 0)
(0.00832884 0.0724315 0)
(0.00651148 0.0796814 0)
(0.00464513 0.0869733 0)
(0.00273684 0.0942865 0)
(0.000793553 0.101602 0)
(-0.00117721 0.108899 0)
(-0.00316817 0.116157 0)
(-0.00517171 0.123358 0)
(-0.00718041 0.130482 0)
(-0.00918706 0.137511 0)
(-0.0111847 0.144429 0)
(-0.0131667 0.151218 0)
(-0.0151266 0.157864 0)
(-0.0170587 0.164354 0)
(-0.0189576 0.170676 0)
(-0.0208185 0.176819 0)
(-0.0226367 0.182774 0)
(-0.0244088 0.188535 0)
(-0.0261312 0.194094 0)
(-0.0278013 0.199448 0)
(-0.0294168 0.204594 0)
(-0.0309758 0.20953 0)
(-0.0324772 0.214255 0)
(-0.03392 0.218771 0)
(-0.0353037 0.223079 0)
(-0.0366283 0.227182 0)
(-0.0378938 0.231084 0)
(-0.0391011 0.234788 0)
(-0.0402507 0.238301 0)
(-0.0413438 0.241626 0)
(-0.0423816 0.244771 0)
(-0.0433656 0.247742 0)
(-0.0442971 0.250544 0)
(-0.0451781 0.253184 0)
(-0.0460102 0.255671 0)
(-0.0467951 0.258009 0)
(-0.047535 0.260207 0)
(-0.0482316 0.26227 0)
(-0.0488867 0.264205 0)
(-0.0495024 0.266019 0)
(-0.0500806 0.26772 0)
(-0.050623 0.269311 0)
(-0.0511316 0.2708 0)
(-0.0516081 0.272192 0)
(-0.0520542 0.273493 0)
(-0.0524717 0.274709 0)
(-0.0528621 0.275844 0)
(-0.0532271 0.276903 0)
(-0.053568 0.277892 0)
(-0.0538864 0.278813 0)
(-0.0541834 0.279672 0)
(-0.0544608 0.280473 0)
(-0.0547193 0.281219 0)
(-0.0549603 0.281914 0)
(-0.055185 0.28256 0)
(-0.0553944 0.283163 0)
(-0.0555894 0.283723 0)
(-0.055771 0.284245 0)
(-0.05594 0.28473 0)
(-0.0560974 0.285181 0)
(-0.0562438 0.285601 0)
(-0.0563799 0.285991 0)
(-0.0565066 0.286354 0)
(-0.0566244 0.286691 0)
(-0.0567341 0.287005 0)
(-0.0568359 0.287296 0)
(-0.0569306 0.287566 0)
(-0.0570186 0.287818 0)
(-0.0571005 0.288052 0)
(-0.0571765 0.288268 0)
(-0.0572471 0.28847 0)
(-0.0573128 0.288658 0)
(-0.0573737 0.288831 0)
(-0.0574303 0.288993 0)
(-0.0574829 0.289143 0)
(-0.0575317 0.289282 0)
(-0.0575772 0.289411 0)
(-0.0576193 0.289531 0)
(-0.0576584 0.289643 0)
(-0.0577742 0.28962 0)
(-0.0578766 0.289599 0)
(-0.0579704 0.28958 0)
(-0.0580588 0.289562 0)
(-0.0581448 0.289545 0)
(-0.0582308 0.289528 0)
(-0.0583193 0.28951 0)
(-0.058413 0.289491 0)
(-0.0585154 0.289471 0)
(-0.0586313 0.289448 0)
(-0.0586243 0.28933 0)
(-0.0586168 0.289203 0)
(-0.0586087 0.289066 0)
(-0.0586001 0.288918 0)
(-0.0585907 0.28876 0)
(-0.0585806 0.288589 0)
(-0.0585697 0.288405 0)
(-0.0585579 0.288207 0)
(-0.0585452 0.287994 0)
(-0.0585316 0.287764 0)
(-0.0585168 0.287517 0)
(-0.058501 0.287251 0)
(-0.0584839 0.286965 0)
(-0.0584654 0.286657 0)
(-0.0584454 0.286325 0)
(-0.058424 0.285969 0)
(-0.0584008 0.285585 0)
(-0.0583758 0.285173 0)
(-0.0583489 0.284729 0)
(-0.0583197 0.284252 0)
(-0.0582884 0.283739 0)
(-0.0582546 0.283188 0)
(-0.0582181 0.282596 0)
(-0.0581786 0.281959 0)
(-0.0581362 0.281276 0)
(-0.0580904 0.280542 0)
(-0.058041 0.279754 0)
(-0.0579875 0.278908 0)
(-0.05793 0.278001 0)
(-0.0578679 0.277028 0)
(-0.0578009 0.275985 0)
(-0.0577286 0.274867 0)
(-0.0576505 0.273669 0)
(-0.0575663 0.272387 0)
(-0.0574755 0.271014 0)
(-0.0573775 0.269546 0)
(-0.0572718 0.267976 0)
(-0.0571579 0.266298 0)
(-0.0570349 0.264507 0)
(-0.0569024 0.262596 0)
(-0.0567595 0.260557 0)
(-0.0566056 0.258385 0)
(-0.0564397 0.256072 0)
(-0.0562612 0.253612 0)
(-0.0560688 0.250997 0)
(-0.055862 0.248221 0)
(-0.0556396 0.245277 0)
(-0.0554005 0.242157 0)
(-0.0551437 0.238855 0)
(-0.0548682 0.235365 0)
(-0.0545727 0.231681 0)
(-0.0542562 0.227798 0)
(-0.0539175 0.22371 0)
(-0.0535553 0.219414 0)
(-0.0531686 0.214906 0)
(-0.0527561 0.210183 0)
(-0.0523167 0.205244 0)
(-0.0518494 0.200089 0)
(-0.051353 0.194719 0)
(-0.0508266 0.189135 0)
(-0.0502693 0.183342 0)
(-0.0496801 0.177344 0)
(-0.0490583 0.171148 0)
(-0.0484032 0.164763 0)
(-0.0477143 0.158198 0)
(-0.0469911 0.151465 0)
(-0.0462333 0.144578 0)
(-0.0454406 0.13755 0)
(-0.0446129 0.130397 0)
(-0.0437503 0.123138 0)
(-0.042853 0.115791 0)
(-0.0419212 0.108375 0)
(-0.0409555 0.100911 0)
(-0.0399565 0.0934187 0)
(-0.0389249 0.0859202 0)
(-0.037862 0.0784373 0)
(-0.0367685 0.0709902 0)
(-0.0356461 0.0636007 0)
(-0.0344961 0.0562886 0)
(-0.0333203 0.0490737 0)
(-0.0321208 0.0419745 0)
(-0.0308995 0.0350085 0)
(-0.0296587 0.028191 0)
(-0.028401 0.0215375 0)
(-0.0271289 0.0150605 0)
(-0.025845 0.00877137 0)
(-0.0245523 0.0026804 0)
(-0.0232536 -0.00320492 0)
(-0.0219518 -0.00887756 0)
(-0.0206498 -0.0143329 0)
(-0.0193505 -0.0195674 0)
(-0.0180567 -0.0245794 0)
(-0.0167711 -0.0293677 0)
(-0.0154963 -0.0339341 0)
(-0.0142347 -0.0382794 0)
(-0.0129887 -0.0424069 0)
(-0.0117602 -0.0463203 0)
(-0.0105512 -0.0500243 0)
(-0.00936335 -0.0535237 0)
(-0.00819819 -0.0568249 0)
(-0.00705697 -0.0599336 0)
(-0.00594078 -0.0628567 0)
(-0.00485056 -0.0656011 0)
(-0.00378685 -0.0681737 0)
(-0.00275027 -0.0705818 0)
(-0.00174119 -0.0728325 0)
(-0.00075985 -0.0749332 0)
(0.000193811 -0.0768907 0)
(0.00111969 -0.0787123 0)
(0.00201795 -0.0804048 0)
(0.00288901 -0.0819749 0)
(0.00373298 -0.083429 0)
(0.00455031 -0.0847735 0)
(0.00534134 -0.0860144 0)
(0.00610663 -0.0871575 0)
(0.0068467 -0.0882083 0)
(0.00756221 -0.0891719 0)
(0.0082534 -0.0900537 0)
(0.00892065 -0.0908584 0)
(0.00956432 -0.0915907 0)
(0.0101853 -0.0922546 0)
(0.0107838 -0.0928542 0)
(0.0113597 -0.0933942 0)
(0.0119139 -0.0938774 0)
(0.0124453 -0.0943092 0)
(0.0129568 -0.0946898 0)
(0.0134462 -0.0950252 0)
(0.013914 -0.0953184 0)
(0.0143599 -0.0955733 0)
(0.0147848 -0.0957922 0)
(0.0151905 -0.0959735 0)
(0.0155725 -0.0961305 0)
(0.015936 -0.0962551 0)
(0.016276 -0.0963635 0)
(0.0166001 -0.0964356 0)
(0.0169013 -0.0965026 0)
(0.0171818 -0.0965594 0)
(0.0174482 -0.096554 0)
(0.0176956 -0.096549 0)
(0.0179256 -0.0965444 0)
(0.0181391 -0.0965401 0)
(0.0183375 -0.0965361 0)
(0.0185217 -0.0965324 0)
(0.0186928 -0.0965289 0)
(0.0188517 -0.0965257 0)
(0.0189993 -0.0965228 0)
(0.0191363 -0.09652 0)
(0.0192635 -0.0965174 0)
(-7.69333e-05 0.0300854 0)
(-0.000576036 0.0344375 0)
(-0.000556281 0.0316959 0)
(-0.00131881 0.0330741 0)
(-0.000882129 0.0293105 0)
(-0.000758976 0.0307835 0)
(-0.00241344 0.0300083 0)
(-0.00224936 0.030088 0)
(-0.00288246 0.0339984 0)
(0.000603968 0.0180615 0)
(0.00109988 0.017814 0)
(0.000688299 0.0202778 0)
(0.000909324 0.0551375 0)
(0.0013739 0.057662 0)
(-0.000121424 0.0649644 0)
(0.00098502 0.0240303 0)
(0.00152846 0.02513 0)
(0.00087613 0.0268106 0)
(-0.00317963 0.050377 0)
(-0.00304994 0.0507517 0)
(-0.00343781 0.0518777 0)
(-0.00269851 0.04699 0)
(-0.00241313 0.0473068 0)
(-0.0029171 0.0487262 0)
(-0.00537793 0.0543894 0)
(-0.00668133 0.0626837 0)
(-0.00628073 0.0588976 0)
(-0.000733085 0.0189046 0)
(-0.00100212 0.0214347 0)
(-0.000928918 0.0196022 0)
(0.00170888 0.0177079 0)
(0.00225993 0.0194913 0)
(0.00152701 0.0213935 0)
(0.00230051 0.0489856 0)
(0.00263448 0.0537285 0)
(-0.00249962 0.0688307 0)
(-0.00165264 0.0610141 0)
(-0.0014057 0.0638183 0)
(0.00269099 0.0269172 0)
(0.00364746 0.0234538 0)
(0.00328963 0.0279093 0)
(-0.00347845 0.0525988 0)
(-0.00380949 0.053696 0)
(-0.00384747 0.0535947 0)
(-0.00470365 0.0551877 0)
(-0.00527154 0.0590175 0)
(-0.00540938 0.0589173 0)
(-0.00249905 0.0382923 0)
(-0.00266206 0.0375201 0)
(-0.00208368 0.034065 0)
(-0.000401958 0.00728188 0)
(-0.000449775 0.00713555 0)
(-0.000334679 0.0062798 0)
(0.000944996 0.00791598 0)
(0.000740047 0.00927527 0)
(0.000663465 0.00750309 0)
(0.00048031 0.00906141 0)
(0.0016316 0.00801881 0)
(0.00164604 0.00618329 0)
(0.00191331 0.0069454 0)
(0.00631823 0.0309188 0)
(0.00540407 0.0318636 0)
(0.00612039 0.0254468 0)
(0.00417126 0.0616857 0)
(0.00271595 0.0671978 0)
(0.00392355 0.0572685 0)
(-0.00837138 0.110352 0)
(-0.00797069 0.104968 0)
(-0.00674679 0.0995013 0)
(0.00271526 0.00612725 0)
(0.0032417 0.00478931 0)
(0.00299707 0.00793922 0)
(0.00742221 0.0017002 0)
(0.00810573 0.00309609 0)
(0.00725822 0.00582967 0)
(-0.00385512 0.0530818 0)
(-0.00374938 0.0534048 0)
(-0.00377162 0.0526372 0)
(-0.0035804 0.048072 0)
(-0.00372474 0.0488091 0)
(-0.0037225 0.0492518 0)
(-0.00874946 0.0803939 0)
(-0.0075763 0.0739572 0)
(-0.00923773 0.0838058 0)
(-0.0190154 0.13735 0)
(-0.0159385 0.1216 0)
(-0.0185176 0.135582 0)
(-0.0114968 0.0915112 0)
(-0.0115244 0.0927344 0)
(-0.0131174 0.10124 0)
(-0.00702351 0.0538375 0)
(-0.00631014 0.0507861 0)
(-0.00745398 0.0576502 0)
(-0.00464646 0.0425923 0)
(-0.00472688 0.041602 0)
(-0.00409629 0.0382061 0)
(-0.00116008 0.0161323 0)
(-0.000987442 0.0156583 0)
(-0.00129408 0.0179437 0)
(0.000247746 0.00897018 0)
(2.0411e-05 0.00894113 0)
(0.000177849 0.00755117 0)
(0.000761443 0.00381301 0)
(0.00066775 0.00451079 0)
(0.000617513 0.0036764 0)
(0.00155198 0.00379603 0)
(0.00133069 0.00439635 0)
(0.00132608 0.00323532 0)
(0.00215593 0.000676693 0)
(0.00185639 0.00165162 0)
(0.00179346 0.000189329 0)
(0.00766085 0.0377531 0)
(0.00991862 0.0283575 0)
(0.00899718 0.0386504 0)
(-0.00661748 0.109785 0)
(-0.00444591 0.0993354 0)
(-0.00612749 0.11065 0)
(0.00713442 0.0482053 0)
(0.00603074 0.0591339 0)
(0.00552311 0.057078 0)
(-0.00627296 0.100015 0)
(-0.00467822 0.093964 0)
(-0.00668435 0.10653 0)
(-0.00634544 0.0846199 0)
(-0.00784956 0.093791 0)
(-0.00658417 0.0833252 0)
(0.00701246 -0.0112196 0)
(0.00621711 -0.0103795 0)
(0.00692979 -0.0130799 0)
(0.0119124 -0.0189986 0)
(0.0135109 -0.0188813 0)
(0.012232 -0.0143044 0)
(-0.00443085 0.0608579 0)
(-0.00507565 0.0656249 0)
(-0.00457764 0.060823 0)
(-0.00825146 0.0944763 0)
(-0.00965303 0.10457 0)
(-0.00816632 0.0795071 0)
(-0.00907752 0.0857145 0)
(-0.0100477 0.0912677 0)
(-0.025019 0.168118 0)
(-0.0207594 0.148567 0)
(-0.0228134 0.15875 0)
(-0.0113538 0.0876601 0)
(-0.011353 0.0892983 0)
(-0.0127427 0.0963358 0)
(-0.00727574 0.0590214 0)
(-0.00861322 0.067819 0)
(-0.00818657 0.0633222 0)
(-0.00408135 0.0298876 0)
(-0.00435415 0.0300053 0)
(-0.00341397 0.0248514 0)
(-0.000912468 0.0107492 0)
(-0.000810863 0.0103996 0)
(-0.000983882 0.0118261 0)
(-0.000161369 0.00455802 0)
(-0.0001819 0.00427232 0)
(-0.0001367 0.00408329 0)
(0.00016419 0.00455156 0)
(0.000263623 0.00499978 0)
(0.000173953 0.00537748 0)
(0.00010694 0.00619069 0)
(0.000246494 0.00626458 0)
(0.000927585 0.00553935 0)
(0.000865176 0.00666687 0)
(0.000715736 0.00575837 0)
(0.000734386 0.000932091 0)
(0.000910459 0.00141412 0)
(0.000755561 0.00135975 0)
(0.000809319 0.00481148 0)
(0.0108703 0.0302723 0)
(0.00988434 0.0402198 0)
(0.0140796 0.0119723 0)
(0.012776 0.0210225 0)
(0.0127386 0.0122398 0)
(-0.00766738 0.124799 0)
(-0.00696483 0.119559 0)
(-0.00510016 0.112179 0)
(-0.000561058 0.101147 0)
(0.00129031 0.0934593 0)
(-0.000335962 0.101766 0)
(-0.008482 0.121309 0)
(-0.00942922 0.10536 0)
(-0.0118629 0.120935 0)
(-0.0110647 0.114388 0)
(0.0109724 -0.0325472 0)
(0.00966698 -0.0300662 0)
(0.0101171 -0.0338671 0)
(0.00976523 -0.0162115 0)
(0.00946977 -0.0190891 0)
(0.0107055 -0.0204258 0)
(0.0116543 -0.0294923 0)
(0.0130523 -0.0337885 0)
(0.013183 -0.029711 0)
(-0.0109615 0.105246 0)
(-0.00948759 0.0949763 0)
(-0.00891392 0.0925907 0)
(-0.00411131 0.0543868 0)
(-0.00469169 0.0592775 0)
(-0.0045455 0.0571997 0)
(-0.0123533 0.115566 0)
(-0.0134934 0.123769 0)
(-0.0152164 0.132 0)
(-0.00411237 0.0539942 0)
(-0.00436741 0.0550538 0)
(-0.004448 0.0557752 0)
(-0.00761596 0.0779683 0)
(-0.00689292 0.0721776 0)
(-0.00782293 0.0791883 0)
(-0.0253922 0.169009 0)
(-0.0279847 0.179935 0)
(-0.0250598 0.166735 0)
(-0.021368 0.141004 0)
(-0.0219672 0.140954 0)
(-0.0192756 0.128924 0)
(-0.0142218 0.0880226 0)
(-0.0144369 0.0924998 0)
(-0.0156121 0.0969294 0)
(-0.00751468 0.0554128 0)
(-0.00861443 0.0607257 0)
(-0.00735371 0.0527906 0)
(-0.00840097 0.0630441 0)
(-0.00800577 0.0594333 0)
(-0.00378067 0.0292796 0)
(-0.00458735 0.0341368 0)
(-0.00183734 0.0146369 0)
(-0.00144071 0.0118463 0)
(-0.00149604 0.0126561 0)
(-0.000144738 0.00375076 0)
(-9.63818e-05 0.00371918 0)
(0.000401634 0.00505186 0)
(0.000308316 0.00408119 0)
(-6.37236e-05 0.00442454 0)
(-1.55386e-05 0.00390173 0)
(-4.68124e-06 0.00475748 0)
(0.000603069 0.00294071 0)
(0.000620549 0.00240742 0)
(0.000756115 0.00290532 0)
(0.00157631 0.00120187 0)
(0.000941675 0.000911379 0)
(0.000698568 0.00211531 0)
(0.000542982 0.00151464 0)
(0.000668363 0.00153291 0)
(0.0023126 -0.00716176 0)
(0.00199112 -0.00770594 0)
(0.00258258 -0.00852129 0)
(0.0135873 0.0243277 0)
(0.0117538 0.0327505 0)
(0.0128281 0.0335869 0)
(0.0142815 0.0258608 0)
(0.0183417 -0.0186849 0)
(0.0164598 -0.0146946 0)
(0.016979 -0.0230854 0)
(-0.00984975 0.134021 0)
(-0.00940884 0.133412 0)
(-0.0108685 0.139391 0)
(-0.00815987 0.122924 0)
(-0.00508888 0.119208 0)
(-0.00298834 0.109661 0)
(-0.00357667 0.113829 0)
(0.00253335 0.0891395 0)
(0.00292155 0.0857184 0)
(-0.0121432 0.138396 0)
(-0.0144277 0.148061 0)
(-0.0118117 0.135017 0)
(-0.0204061 0.171075 0)
(-0.0195566 0.168546 0)
(-0.0223067 0.179074 0)
(-0.0142557 0.135632 0)
(-0.0150057 0.137803 0)
(-0.01834 0.154343 0)
(-0.0187308 0.155191 0)
(-0.0162585 0.142815 0)
(0.00322622 -0.00704104 0)
(0.00314849 -0.00526017 0)
(0.0028054 -0.00609426 0)
(0.0071326 -0.018574 0)
(0.0067427 -0.0208858 0)
(0.00779982 -0.0236375 0)
(0.00836907 -0.0214218 0)
(0.00938067 -0.0224597 0)
(0.00873615 -0.0194963 0)
(0.0109754 -0.0246101 0)
(0.0101739 -0.0225101 0)
(0.0102876 -0.0257414 0)
(-0.00844903 0.0910403 0)
(-0.00717769 0.0837382 0)
(-0.0090084 0.0963648 0)
(-0.00720907 0.0775691 0)
(-0.00784331 0.0826821 0)
(-0.00904732 0.0903968 0)
(-0.00510662 0.0620345 0)
(-0.0179743 0.145921 0)
(-0.0152662 0.130815 0)
(-0.00530896 0.0591615 0)
(-0.00431293 0.0510518 0)
(-0.0051726 0.0576034 0)
(-0.00750978 0.07703 0)
(-0.00878743 0.0862819 0)
(-0.00954769 0.0916559 0)
(-0.00839279 0.0836753 0)
(-0.0245458 0.16357 0)
(-0.0217236 0.150887 0)
(-0.017404 0.125472 0)
(-0.0195019 0.136945 0)
(-0.0201648 0.139089 0)
(-0.0431595 0.207951 0)
(-0.042752 0.201588 0)
(-0.0408752 0.201 0)
(-0.0170774 0.108883 0)
(-0.0175791 0.106983 0)
(-0.0156591 0.1003 0)
(-0.00624636 0.0421699 0)
(-0.00714844 0.0458162 0)
(-0.00638269 0.0409798 0)
(-0.00225206 0.0167356 0)
(-0.00164802 0.0128466 0)
(-0.00365164 0.023706 0)
(-0.00330963 0.0224963 0)
(-0.00400419 0.0266709 0)
(-0.00036201 0.00394093 0)
(-0.000316896 0.00372874 0)
(-0.000390548 0.00430977 0)
(-0.000649433 0.00617846 0)
(-0.00079697 0.00720752 0)
(-0.000670626 0.00615875 0)
(-6.3079e-05 0.00242931 0)
(-5.52879e-05 0.00271359 0)
(-8.55516e-05 0.0026935 0)
(0.000513686 0.00613973 0)
(0.000541777 0.00493816 0)
(0.000192615 0.00376674 0)
(0.000101801 0.00386529 0)
(0.000113634 0.00306266 0)
(0.000156687 0.00268706 0)
(0.000239817 0.00314173 0)
(0.000440363 0.0023967 0)
(0.000505147 0.00316701 0)
(0.000402527 0.00273032 0)
(0.00062591 -0.000558577 0)
(0.000826658 -0.000590995 0)
(0.000657256 -0.000249069 0)
(0.000837194 0.00186901 0)
(0.000927464 0.00270384 0)
(0.00105103 0.000149248 0)
(0.00084029 0.000213389 0)
(0.000902943 -0.000244435 0)
(0.000510278 0.00182683 0)
(0.000517823 0.00227035 0)
(0.000411959 0.00182597 0)
(0.00088712 -0.0033231 0)
(0.0010325 -0.00263927 0)
(0.000566538 -0.00214259 0)
(0.00743495 0.0697262 0)
(0.00884727 0.0631423 0)
(0.00780964 0.0695951 0)
(0.0115793 0.0469356 0)
(0.0128635 0.0387943 0)
(0.0128314 0.0429496 0)
(0.0165226 -0.00170768 0)
(0.0173846 -0.0102598 0)
(0.0181566 -0.0056014 0)
(-0.0125107 0.14627 0)
(-0.0139826 0.151261 0)
(-0.0118847 0.142634 0)
(-0.00399247 0.109751 0)
(-0.00526609 0.117349 0)
(-0.00613827 0.119506 0)
(0.000573479 0.0925533 0)
(0.00229695 0.08243 0)
(0.00233286 0.0860209 0)
(0.0031687 0.087898 0)
(0.00390349 0.0826095 0)
(-0.0190302 0.167251 0)
(-0.0200006 0.171738 0)
(-0.0213715 0.176216 0)
(-0.0156294 0.154488 0)
(-0.0176486 0.163173 0)
(-0.0172975 0.160755 0)
(-0.0168496 0.157715 0)
(-0.018645 0.162931 0)
(-0.0212678 0.173841 0)
(-0.022384 0.1753 0)
(-0.0228043 0.176185 0)
(-0.019432 0.161855 0)
(-0.0247205 0.18444 0)
(-0.0263602 0.190278 0)
(-0.0217818 0.170312 0)
(-0.0250113 0.183879 0)
(-0.0240415 0.179144 0)
(-0.024445 0.179951 0)
(-0.0278031 0.1938 0)
(-0.000109956 -0.00690735 0)
(0.000527459 -0.00823363 0)
(0.000256939 -0.00649063 0)
(0.00168126 -0.0177627 0)
(0.00119035 -0.0178527 0)
(0.00195335 -0.0194671 0)
(0.00669382 -0.0298434 0)
(0.00571961 -0.026575 0)
(0.00549408 -0.0277406 0)
(0.0157331 -0.0468982 0)
(0.0166945 -0.05084 0)
(0.0171986 -0.0471142 0)
(-0.0206642 0.155318 0)
(-0.0242845 0.170683 0)
(-0.0226171 0.164052 0)
(-0.00489214 0.0579394 0)
(-0.00471639 0.0608374 0)
(-0.00475098 0.0564962 0)
(-0.028886 0.197233 0)
(-0.0246492 0.180214 0)
(-0.00735643 0.0750315 0)
(-0.00895021 0.0863333 0)
(-0.00830483 0.0824603 0)
(-0.00761732 0.0759168 0)
(-0.0107554 0.0969314 0)
(-0.00763008 0.0761962 0)
(-0.0116428 0.105039 0)
(-0.0125746 0.112661 0)
(-0.0125077 0.111594 0)
(-0.00624766 0.0671162 0)
(-0.00598197 0.0650374 0)
(-0.00674917 0.0710994 0)
(-0.016414 0.134005 0)
(-0.0190588 0.146897 0)
(-0.0188192 0.145243 0)
(-0.0277971 0.183697 0)
(-0.0305463 0.194872 0)
(-0.0300171 0.192502 0)
(-0.0302397 0.165757 0)
(-0.0332109 0.171386 0)
(-0.0308698 0.160486 0)
(-0.0150549 0.0816399 0)
(-0.0149051 0.0745976 0)
(-0.0131928 0.0703326 0)
(-0.00403819 0.0250002 0)
(-0.00504505 0.0308313 0)
(-0.00451274 0.0264857 0)
(-0.00401968 0.021753 0)
(-0.0032601 0.0179618 0)
(-0.00359743 0.0204718 0)
(-0.00263508 0.0182944 0)
(-0.00208567 0.0149421 0)
(-0.000291801 0.00284452 0)
(-0.000283933 0.00291118 0)
(-0.000330955 0.00320509 0)
(-0.00023612 0.00263247 0)
(-0.000237582 0.00250481 0)
(-0.000194179 0.00224845 0)
(0.000420378 0.00333232 0)
(0.000330693 0.00333488 0)
(0.000329878 0.00268446 0)
(0.000255637 0.00258584 0)
(0.000186372 0.00234087 0)
(0.000191609 0.00195404 0)
(9.25571e-05 0.00229954 0)
(0.000250194 0.00208348 0)
(0.000881077 -0.0010404 0)
(0.00118696 -0.00146818 0)
(0.00106253 -0.000796179 0)
(0.000355717 0.000316412 0)
(0.00033436 0.000270416 0)
(0.000487541 0.000314064 0)
(0.000401468 0.000611774 0)
(0.000395291 0.000472992 0)
(0.000535305 0.000732484 0)
(0.000433711 0.000393195 0)
(0.000324113 0.00034319 0)
(0.000367621 0.000686018 0)
(0.000474616 0.000811468 0)
(0.000454355 0.000942696 0)
(-0.00135952 0.00301134 0)
(-0.00184595 0.00501646 0)
(-0.00184453 0.00397881 0)
(0.0101553 0.0580368 0)
(0.0102614 0.0549564 0)
(0.0107357 0.0571061 0)
(0.00927604 0.0634648 0)
(0.0138915 0.0402413 0)
(0.015007 0.0343312 0)
(0.0148185 0.0383234 0)
(0.0134815 0.0448087 0)
(0.0214554 -0.0178752 0)
(0.022706 -0.017612 0)
(0.0216211 -0.0121934 0)
(0.0210814 0.00430804 0)
(0.020272 0.00726655 0)
(0.0209361 -6.59168e-05 0)
(-0.00252823 0.100365 0)
(-0.00181995 0.100077 0)
(-0.00467622 0.116218 0)
(0.00476414 0.0801499 0)
(-0.0151525 0.153475 0)
(-0.0128718 0.144351 0)
(-0.0146487 0.15234 0)
(-0.017065 0.154741 0)
(-0.015649 0.149727 0)
(-0.0281124 0.196303 0)
(-0.0279961 0.195161 0)
(-0.0173202 0.15318 0)
(-0.0192122 0.163132 0)
(-0.0201935 0.166445 0)
(-0.0210407 0.165519 0)
(-0.00296277 0.00836468 0)
(-0.00375078 0.0106848 0)
(-0.00291654 0.00685698 0)
(0.00217696 -0.0176571 0)
(0.00232806 -0.0161885 0)
(0.0014891 -0.0150819 0)
(0.00157795 -0.0221013 0)
(0.00210086 -0.0241171 0)
(0.0025822 -0.0243643 0)
(0.00956423 -0.0377119 0)
(0.00925251 -0.0396713 0)
(0.0105234 -0.042175 0)
(0.0246635 -0.0387334 0)
(0.0235227 -0.0366983 0)
(0.0238464 -0.0429273 0)
(0.0184852 -0.0514551 0)
(0.0178772 -0.0550366 0)
(-0.0191883 0.150293 0)
(-0.0193135 0.149574 0)
(-0.0165492 0.136698 0)
(-0.0141784 0.12293 0)
(-0.016178 0.134063 0)
(-0.0172165 0.138861 0)
(-0.00882716 0.0876491 0)
(-0.010464 0.0970528 0)
(-0.00989088 0.0933348 0)
(-0.0140826 0.11726 0)
(-0.0124889 0.112746 0)
(-0.01333 0.121815 0)
(-0.0066124 0.0742319 0)
(-0.00592946 0.0719417 0)
(-0.00612902 0.0683159 0)
(-0.00568001 0.0648676 0)
(-0.00514622 0.0620967 0)
(-0.00510268 0.0600374 0)
(-0.00893874 0.0846721 0)
(-0.00646389 0.068466 0)
(-0.00595202 0.0634467 0)
(-0.0154795 0.128284 0)
(-0.0138272 0.119615 0)
(-0.0156757 0.128832 0)
(-0.0184148 0.142027 0)
(-0.0155183 0.127258 0)
(-0.0154413 0.128948 0)
(-0.0144245 0.123013 0)
(-0.0147592 0.124925 0)
(-0.0459452 0.246962 0)
(-0.04621 0.247047 0)
(-0.0449121 0.243707 0)
(-0.029101 0.186392 0)
(-0.0257711 0.172144 0)
(-0.0265091 0.175899 0)
(-0.027598 0.17352 0)
(-0.0306337 0.187091 0)
(-0.0297331 0.18134 0)
(-0.0377727 0.174617 0)
(-0.0353624 0.161528 0)
(-0.0356023 0.173097 0)
(-0.0285064 0.165909 0)
(-0.0274472 0.156732 0)
(-0.0269715 0.0973599 0)
(-0.0290434 0.0981295 0)
(-0.0273637 0.0864341 0)
(-0.0104857 0.0376682 0)
(-0.0102662 0.0419154 0)
(-0.0119423 0.0478563 0)
(-0.00556426 0.0316625 0)
(-0.00688538 0.0385942 0)
(-0.00617804 0.0332487 0)
(-0.00106364 0.007803 0)
(-0.00127106 0.00954896 0)
(-0.00137595 0.00986154 0)
(-0.00183146 0.0120252 0)
(-0.00212226 0.0141448 0)
(-0.00241812 0.0153584 0)
(-0.00092718 0.00735452 0)
(-0.0008685 0.00724791 0)
(-0.00111185 0.0087844 0)
(-7.63934e-05 0.00111247 0)
(-9.36875e-05 0.00116616 0)
(-7.23571e-05 0.000984947 0)
(-0.000720057 0.00576879 0)
(-0.000715055 0.00557116 0)
(-0.000568829 0.00457884 0)
(-7.34272e-05 0.00132315 0)
(-4.89021e-05 0.0011852 0)
(-5.43514e-05 0.00133466 0)
(4.57196e-06 0.00148306 0)
(1.70769e-06 0.00119116 0)
(1.92261e-05 0.00129003 0)
(0.00014204 0.00208528 0)
(0.000118352 0.00211339 0)
(0.000109467 0.00171934 0)
(5.3312e-05 0.00106706 0)
(4.07856e-05 0.00109898 0)
(3.94132e-05 0.000939926 0)
(0.000129791 0.0011903 0)
(0.000181122 0.00157863 0)
(0.000148133 0.00150684 0)
(0.000327999 0.00173907 0)
(0.000228175 0.00118502 0)
(0.000302128 0.00134647 0)
(-0.000117773 0.000961262 0)
(-8.28436e-05 0.000844056 0)
(3.61925e-05 0.000622103 0)
(0.000317674 0.000191564 0)
(0.000178307 0.000395942 0)
(0.000149284 0.000366047 0)
(0.000319227 0.000725867 0)
(0.000255702 0.000501601 0)
(0.00025211 0.000293042 0)
(0.000582217 0.000525776 0)
(0.000428858 0.00108971 0)
(0.000305846 0.000843862 0)
(0.000204856 0.000897095 0)
(-0.00128424 0.00449065 0)
(-0.00172003 0.00594444 0)
(-0.00124772 0.00399752 0)
(0.0102456 0.0515255 0)
(0.0128195 0.0459583 0)
(0.0176972 0.0236314 0)
(0.0172684 0.0230273 0)
(0.0182569 0.01863 0)
(0.0239146 -0.0129849 0)
(0.0247625 -0.0156078 0)
(0.0241676 -0.0106995 0)
(0.0263212 -0.032455 0)
(0.0260775 -0.0360793 0)
(0.0267304 -0.0359067 0)
(0.0166706 0.0157687 0)
(0.0180228 0.0088086 0)
(0.0176989 0.0164046 0)
(-0.0107507 0.136138 0)
(-0.0132454 0.147266 0)
(0.00631986 0.0756307 0)
(-0.0234963 0.182142 0)
(-0.0223955 0.177109 0)
(-0.0203571 0.169302 0)
(-0.00231532 0.00235134 0)
(-0.00239091 0.0014619 0)
(-0.00160456 -0.000425038 0)
(-0.00251228 -0.00472255 0)
(-0.00367402 -0.00239753 0)
(-0.00275656 -0.00602346 0)
(0.00244166 -0.019801 0)
(0.00205113 -0.0261154 0)
(0.0011702 -0.0242161 0)
(0.00175067 -0.025972 0)
(0.0111666 -0.0404238 0)
(0.0103825 -0.0369917 0)
(0.02726 -0.0534815 0)
(0.0264814 -0.0514368 0)
(0.0261119 -0.054775 0)
(0.0254883 -0.0639783 0)
(0.025592 -0.0605894 0)
(0.0246067 -0.0623105 0)
(-0.0291087 0.191667 0)
(-0.0239439 0.170431 0)
(-0.0149988 0.127053 0)
(-0.0178368 0.138409 0)
(-0.0182925 0.141156 0)
(-0.0103558 0.0979463 0)
(-0.0119617 0.108085 0)
(-0.0114992 0.10496 0)
(-0.0164383 0.12565 0)
(-0.0140683 0.115592 0)
(-0.0169834 0.12798 0)
(-0.00529114 0.0711927 0)
(-0.023993 0.17417 0)
(-0.0278259 0.188777 0)
(-0.022866 0.167976 0)
(-0.00895863 0.0840534 0)
(-0.00587784 0.0621845 0)
(-0.0119848 0.106845 0)
(-0.0329063 0.203601 0)
(-0.0350932 0.21141 0)
(-0.0310128 0.195848 0)
(-0.013322 0.11405 0)
(-0.0118275 0.105454 0)
(-0.0133969 0.115248 0)
(-0.0518822 0.264527 0)
(-0.0514315 0.262696 0)
(-0.0510657 0.262395 0)
(-0.021102 0.157683 0)
(-0.0201369 0.153347 0)
(-0.0212834 0.158443 0)
(-0.0261782 0.179082 0)
(-0.0282935 0.187173 0)
(-0.0280957 0.186581 0)
(-0.0458768 0.238512 0)
(-0.0449839 0.238583 0)
(-0.0473012 0.244062 0)
(-0.0402535 0.220934 0)
(-0.0428072 0.229377 0)
(-0.04191 0.221884 0)
(-0.0380505 0.166339 0)
(-0.0323174 0.150265 0)
(-0.0338476 0.146831 0)
(-0.0315045 0.138901 0)
(-0.017497 0.0573534 0)
(-0.0186221 0.067385 0)
(-0.0190371 0.0632236 0)
(-0.0109067 0.0533875 0)
(-0.00988682 0.0449227 0)
(-0.00923997 0.0462268 0)
(-0.0164173 0.0224859 0)
(-0.0138209 0.0151443 0)
(-0.0148635 0.0223046 0)
(-0.00356497 0.0172326 0)
(-0.00416001 0.0209283 0)
(-0.00412536 0.019444 0)
(-0.0043519 0.0192516 0)
(-0.0036319 0.0162842 0)
(-0.00166779 0.0114687 0)
(-0.00140009 0.00939831 0)
(-0.00118252 0.00829691 0)
(-0.00231161 0.0126892 0)
(-0.00267958 0.0150506 0)
(-0.00277013 0.0146663 0)
(-0.00258863 0.0157105 0)
(-0.00214103 0.0131036 0)
(-0.00190326 0.0120627 0)
(-0.000274119 0.00239829 0)
(-0.000219134 0.00199439 0)
(-0.000245137 0.00224392 0)
(-0.00023621 0.00229875 0)
(-0.000194917 0.00201084 0)
(-0.000236896 0.00238683 0)
(-0.000598491 0.0046475 0)
(-0.000791797 0.0059649 0)
(-0.00062489 0.00469249 0)
(-3.88833e-05 0.000942163 0)
(-5.53292e-05 0.0010069 0)
(-4.21501e-05 0.000863596 0)
(-2.3156e-05 0.000881443 0)
(-1.10644e-05 0.000782926 0)
(-1.10959e-05 0.000922191 0)
(5.99761e-05 0.00139189 0)
(0.000133054 0.00164957 0)
(0.000105846 0.00113732 0)
(7.85291e-05 0.00138122 0)
(8.67779e-05 0.00176307 0)
(0.000319215 0.00211354 0)
(0.000122175 0.000763348 0)
(0.00015246 0.000847081 0)
(0.000191135 0.00117062 0)
(0.000148409 0.000418775 0)
(0.000105536 0.000381163 0)
(3.41239e-05 0.000549298 0)
(-0.00110342 0.00410566 0)
(-0.00148358 0.00562168 0)
(0.000224777 0.000566914 0)
(0.000197875 0.000268739 0)
(0.000264109 0.000322094 0)
(0.000280737 0.000376945 0)
(0.000101657 0.000162914 0)
(0.000114449 0.000220056 0)
(0.000168507 0.000237134 0)
(0.000189279 0.000541194 0)
(0.000264133 0.000876666 0)
(0.000264184 0.00102984 0)
(0.000174783 0.000658396 0)
(-0.00420582 0.0141689 0)
(-0.00347886 0.0111568 0)
(-0.00365145 0.0133775 0)
(-0.000949275 0.00212811 0)
(-0.00142377 0.00407984 0)
(0.0169653 0.0274651 0)
(0.0160819 0.0334232 0)
(0.0161564 0.0292807 0)
(0.0261158 -0.0249876 0)
(0.025414 -0.0248934 0)
(0.0258419 -0.0284935 0)
(0.0233745 -0.0149886 0)
(0.0228861 -0.00953206 0)
(0.0254654 -0.0322291 0)
(0.0197928 0.00581957 0)
(0.0218795 -0.000205435 0)
(0.0227698 -0.0047339 0)
(0.0225578 -0.000185806 0)
(-0.00236093 0.00651301 0)
(-0.00244144 0.00588271 0)
(-0.00200673 -0.00104066 0)
(-0.00139648 -0.00227719 0)
(-0.00367154 -0.00471101 0)
(-0.00369836 -0.00682123 0)
(-0.00291857 -0.00732599 0)
(-0.0018224 -0.0187606 0)
(-0.00233693 -0.0171057 0)
(-0.00290476 -0.017596 0)
(0.00613337 -0.0412907 0)
(0.00754446 -0.0468448 0)
(0.00721555 -0.0443931 0)
(0.023859 -0.07027 0)
(0.0238917 -0.0725322 0)
(0.0250919 -0.0723107 0)
(0.026794 -0.0398833 0)
(0.0262634 -0.0438151 0)
(0.0272838 -0.0433625 0)
(0.0272357 -0.0465164 0)
(0.0279312 -0.0450362 0)
(0.0201496 -0.0731685 0)
(0.0206686 -0.0709266 0)
(0.0190712 -0.070464 0)
(-0.0303624 0.197688 0)
(-0.0212938 0.15261 0)
(-0.0221945 0.159542 0)
(-0.0133033 0.11333 0)
(-0.0106154 0.0966834 0)
(-0.0114359 0.1068 0)
(-0.0136053 0.118359 0)
(-0.00761875 0.079203 0)
(-0.00762164 0.0862623 0)
(-0.00722466 0.0811341 0)
(-0.0040304 0.0487633 0)
(-0.00391711 0.0474513 0)