/*--------------------------------*- C++ -*----------------------------------*\
| =========                 |                                                 |
| \\      /  F ield         | OpenFOAM: The Open Source CFD Toolbox           |
|  \\    /   O peration     | Version:  v2012                                 |
|   \\  /    A nd           | Website:  www.openfoam.com                      |
|    \\/     M anipulation  |                                                 |
\*---------------------------------------------------------------------------*/
FoamFile
{
    version     2.0;
    format      ascii;
    class       volVectorField;
    location    "0.23";
    object      cellDisplacement;
}
// * * * * * * * * * * * * * * * * * * * * * * * * * * * * * * * * * * * * * //

dimensions      [0 1 0 0 0 0 0];


internalField   nonuniform List<vector> 
11961
(
(1.89679e-06 0.000108702 0)
(5.31105e-06 0.000270708 0)
(3.29578e-06 0.000231086 0)
(4.44916e-06 0.000178709 0)
(8.92965e-06 0.000501793 0)
(1.4556e-06 0.000118181 0)
(6.4311e-06 0.000446021 0)
(1.19804e-05 0.000457091 0)
(1.39013e-05 0.000746162 0)
(1.88309e-06 0.000206586 0)
(7.39326e-06 0.000597442 0)
(1.80211e-05 0.000808814 0)
(1.50635e-05 0.000501402 0)
(1.45553e-05 0.000958826 0)
(3.54404e-06 0.000410608 0)
(7.00038e-07 8.74763e-05 0)
(5.74646e-06 0.00057915 0)
(1.09265e-05 0.00085694 0)
(2.60922e-05 0.00115303 0)
(2.87835e-05 0.000940774 0)
(7.39351e-06 0.000213988 0)
(1.8753e-05 0.0012678 0)
(2.67799e-06 0.000431522 0)
(8.64806e-07 0.000149915 0)
(6.13346e-06 0.000798024 0)
(8.81942e-06 0.000979425 0)
(3.38435e-05 0.00124617 0)
(2.61359e-05 0.00140941 0)
(3.55997e-05 0.000991709 0)
(2.11331e-05 0.000548552 0)
(1.49219e-05 0.00142582 0)
(2.76561e-06 0.000588622 0)
(1.61842e-06 0.00029734 0)
(3.03635e-07 6.10793e-05 0)
(4.08574e-06 0.000780633 0)
(9.3685e-06 0.00122681 0)
(4.64187e-05 0.00168492 0)
(3.2588e-05 0.0018069 0)
(5.23981e-05 0.00139429 0)
(2.1539e-05 0.000489559 0)
(1.64697e-05 0.001755 0)
(1.42368e-06 0.000572268 0)
(1.07146e-06 0.000317147 0)
(3.98023e-07 0.000113103 0)
(2.31475e-06 0.000919883 0)
(4.19742e-06 0.00131719 0)
(5.92829e-05 0.00178843 0)
(4.52385e-05 0.00198905 0)
(2.62069e-05 0.00199625 0)
(6.2354e-05 0.00141482 0)
(4.73258e-05 0.000975629 0)
(7.80231e-06 0.000168293 0)
(8.87262e-06 0.00186169 0)
(9.3327e-07 0.000435417 0)
(3.45754e-07 0.000689284 0)
(7.05836e-07 0.000228033 0)
(2.73263e-07 8.61229e-05 0)
(1.68203e-06 0.00113791 0)
(5.10732e-07 0.000838099 0)
(2.54042e-06 0.00161159 0)
(7.86816e-05 0.0022992 0)
(5.50622e-05 0.00247958 0)
(2.80043e-05 0.00243592 0)
(8.44562e-05 0.00183537 0)
(5.5942e-05 0.00100362 0)
(1.08584e-05 0.000181116 0)
(7.11443e-06 0.00219333 0)
(-9.02974e-08 0.000421523 0)
(-1.27445e-06 0.000661666 0)
(2.49638e-07 0.000223247 0)
(9.22913e-08 3.00066e-05 0)
(2.52724e-07 0.000146594 0)
(-3.47388e-06 0.00113297 0)
(-2.41049e-06 0.000937925 0)
(-4.59278e-06 0.0017048 0)
(9.57154e-05 0.00231617 0)
(7.64634e-05 0.00269296 0)
(4.34754e-05 0.00274063 0)
(1.55429e-05 0.00250812 0)
(9.95816e-05 0.00187605 0)
(8.77273e-05 0.00149123 0)
(3.38148e-05 0.000543592 0)
(-4.0057e-06 0.00227956 0)
(-6.30612e-08 0.000294513 0)
(-1.10171e-06 0.000526094 0)
(-3.39747e-06 0.000811076 0)
(7.33274e-08 4.49455e-05 0)
(1.09659e-07 0.000100137 0)
(-7.97806e-06 0.00128635 0)
(-8.74144e-06 0.0020439 0)
(-9.24933e-06 0.0015517 0)
(0.000120564 0.00269199 0)
(9.34576e-05 0.00334139 0)
(4.70097e-05 0.00321697 0)
(6.73654e-06 0.00286173 0)
(0.000127359 0.00237257 0)
(0.000107073 0.00157955 0)
(4.2531e-05 0.000607574 0)
(-8.09136e-06 0.00265475 0)
(-6.37698e-07 0.000267069 0)
(-2.34578e-06 0.000492672 0)
(-5.90206e-06 0.00079675 0)
(2.50252e-08 1.20952e-05 0)
(-3.22639e-10 9.12204e-05 0)
(-1.28781e-05 0.001192 0)
(-1.93515e-05 0.00206129 0)
(-1.75883e-05 0.00174025 0)
(0.000135947 0.00317217 0)
(7.32104e-05 0.00358865 0)
(0.00012488 0.00356766 0)
(3.01468e-05 0.00344852 0)
(9.79191e-06 0.00326922 0)
(0.00015467 0.00254991 0)
(8.3893e-05 0.00114313 0)
(0.000149004 0.00212333 0)
(1.88306e-05 0.00024237 0)
(-2.0469e-05 0.00277734 0)
(-1.63911e-06 0.000354814 0)
(-4.05976e-07 0.000176313 0)
(-4.45233e-06 0.000604187 0)
(-1.01977e-05 0.000951183 0)
(1.09574e-08 1.01182e-05 0)
(-1.74465e-07 0.000120431 0)
(2.16001e-08 3.89966e-05 0)
(-2.07656e-05 0.00137356 0)
(-3.10137e-05 0.00233212 0)
(-2.40353e-05 0.00166433 0)
(0.000173702 0.00344066 0)
(6.83413e-05 0.00411501 0)
(0.000151693 0.00419185 0)
(3.64151e-05 0.003967 0)
(-1.10863e-05 0.00361951 0)
(0.000187517 0.00311419 0)
(9.06807e-05 0.00106725 0)
(0.000179898 0.00227763 0)
(4.5091e-05 0.000517683 0)
(-3.20799e-05 0.00263009 0)
(-2.95408e-05 0.00310471 0)
(-2.17984e-06 0.000298871 0)
(-5.65849e-07 0.000116268 0)
(-5.62147e-06 0.000545004 0)
(-1.22167e-05 0.000844801 0)
(-1.18724e-07 5.87117e-05 0)
(-1.37984e-08 2.17392e-05 0)
(-2.61452e-05 0.00131598 0)
(-4.00736e-05 0.00219297 0)
(-3.41874e-05 0.00185431 0)
(0.000191998 0.00401077 0)
(8.09192e-05 0.00462711 0)
(0.000151256 0.0047997 0)
(1.54942e-05 0.00434299 0)
(-1.1346e-05 0.00416491 0)
(-3.03303e-05 0.00345726 0)
(0.00023413 0.00334752 0)
(0.000129618 0.00140705 0)
(0.000231558 0.0028972 0)
(0.000173015 0.00194095 0)
(2.78638e-05 0.000280944 0)
(-4.39642e-05 0.00291951 0)
(-1.03141e-06 0.000152038 0)
(-3.73099e-06 0.000376384 0)
(-1.49507e-07 3.85999e-05 0)
(-8.5891e-06 0.000636891 0)
(-1.71311e-05 0.000904407 0)
(-2.33165e-05 0.00109653 0)
(-3.79061e-05 0.00153809 0)
(-5.48899e-05 0.00231464 0)
(-4.21063e-05 0.00178436 0)
(0.000241762 0.00439214 0)
(0.000113498 0.00496296 0)
(5.12984e-05 0.0050625 0)
(0.000206641 0.00542172 0)
(1.98341e-05 0.00491343 0)
(-4.12327e-05 0.00456666 0)
(-5.54761e-05 0.00379165 0)
(0.000275707 0.00400769 0)
(0.000124609 0.00116411 0)
(0.000265486 0.00287567 0)
(0.000222258 0.00226246 0)
(6.5921e-05 0.000599826 0)
(-6.06841e-05 0.00308929 0)
(-6.93539e-07 7.29239e-05 0)
(-3.89902e-06 0.000302817 0)
(-8.67556e-06 0.000539732 0)
(-1.53047e-05 0.000720308 0)
(-2.86902e-05 0.00106677 0)
(-4.33765e-05 0.00145284 0)
(-5.47426e-05 0.00202054 0)
(-6.83144e-05 0.00259898 0)
(0.000261571 0.00510634 0)
(9.88116e-05 0.00586607 0)
(5.37622e-05 0.00577426 0)
(0.000204295 0.00629277 0)
(-1.41345e-05 0.00546485 0)
(-6.34168e-05 0.00431875 0)
(-4.82256e-05 0.00526178 0)
(-7.10799e-05 0.00357386 0)
(0.000347927 0.0043163 0)
(0.000174696 0.00151025 0)
(0.000317725 0.00321088 0)
(0.000226322 0.00206701 0)
(3.96492e-05 0.000315475 0)
(-7.25062e-05 0.00293571 0)
(-1.87262e-06 0.000149994 0)
(-5.95051e-06 0.000378593 0)
(-1.11484e-05 0.000571973 0)
(-1.8482e-05 0.000721951 0)
(-2.46062e-05 0.00087112 0)
(-3.69571e-05 0.00121303 0)
(-5.49559e-05 0.00157568 0)
(-6.64802e-05 0.00203966 0)
(-8.21136e-05 0.00254864 0)
(0.00033119 0.00552902 0)
(0.000129254 0.00655546 0)
(1.45484e-06 0.00615286 0)
(0.000271461 0.00690019 0)
(-9.83384e-05 0.00463535 0)
(-9.35984e-05 0.00565486 0)
(-9.82192e-05 0.00383378 0)
(0.00036756 0.00384807 0)
(0.000389409 0.00507904 0)
(0.000185939 0.00143209 0)
(0.000336185 0.00287707 0)
(0.000284289 0.00236047 0)
(7.49448e-05 0.000536873 0)
(-9.76486e-05 0.00320942 0)
(-1.22266e-06 7.5508e-05 0)
(-5.8975e-06 0.000310194 0)
(-9.02076e-06 0.000420048 0)
(-1.50274e-05 0.000545837 0)
(-2.76206e-05 0.000833671 0)
(-4.06285e-05 0.00114006 0)
(-5.66648e-05 0.00143289 0)
(-6.5387e-05 0.00181897 0)
(-8.01202e-05 0.00229275 0)
(-0.000100661 0.00276373 0)
(0.000347053 0.00639449 0)
(9.17381e-05 0.00762846 0)
(-2.93904e-05 0.00690416 0)
(0.000260584 0.00794766 0)
(-0.000116244 0.00521299 0)
(-0.000114274 0.00432549 0)
(-0.000118973 0.00636341 0)
(-0.000109744 0.00359664 0)
(0.000440431 0.00391906 0)
(0.000469546 0.00542837 0)
(0.000142668 0.00101878 0)
(0.000264239 0.00196411 0)
(0.00040665 0.00322703 0)
(3.56098e-05 0.000225165 0)
(-0.000109447 0.00305146 0)
(-3.17409e-06 0.000162665 0)
(-1.01294e-05 0.000402228 0)
(-1.71218e-05 0.000541086 0)
(-2.31589e-05 0.000676527 0)
(-3.48589e-05 0.000954893 0)
(-4.92185e-05 0.00124066 0)
(-6.6732e-05 0.00150496 0)
(-7.7238e-05 0.00185021 0)
(-9.48713e-05 0.00234794 0)
(-0.000108483 0.00262201 0)
(0.000432379 0.00680717 0)
(0.000151854 0.00845961 0)
(1.60903e-06 0.00776335 0)
(-9.83278e-05 0.00697326 0)
(0.000354364 0.00845171 0)
(-0.000158462 0.00542423 0)
(-0.000150502 0.0045457 0)
(-0.000173961 0.0064785 0)
(-0.000137007 0.0037891 0)
(0.000524158 0.00444602 0)
(0.000541591 0.00514646 0)
(0.000493638 0.00625244 0)
(0.000167661 0.00105545 0)
(0.000300021 0.00199202 0)
(0.000440102 0.00303879 0)
(9.41834e-05 0.000555567 0)
(-0.000131487 0.00324656 0)
(-2.2665e-06 9.02827e-05 0)
(-6.07286e-06 0.000218235 0)
(-1.38522e-05 0.000403006 0)
(-2.46717e-05 0.000632345 0)
(-3.75274e-05 0.000902654 0)
(-5.14192e-05 0.00116105 0)
(-7.52036e-05 0.00167513 0)
(-6.83146e-05 0.0013836 0)
(-9.00287e-05 0.00201289 0)
(-9.82283e-05 0.00221513 0)
(-0.00012672 0.00272923 0)
(0.000450268 0.00776171 0)
(0.0001124 0.00971342 0)
(-7.71229e-05 0.00879969 0)
(-0.00014845 0.00774026 0)
(0.000350661 0.00955687 0)
(-0.000172778 0.00503369 0)
(-0.000184685 0.00597395 0)
(-0.00015761 0.00421204 0)
(-0.000217487 0.00714958 0)
(-0.000142926 0.00356796 0)
(0.000594357 0.00412617 0)
(0.000636844 0.00574868 0)
(0.000595214 0.00648672 0)
(0.000237425 0.00144218 0)
(0.000383263 0.0024382 0)
(0.000534868 0.00342968 0)
(9.66437e-05 0.000513867 0)
(-0.000144093 0.00318228 0)
(-7.12683e-06 0.000221895 0)
(-1.79323e-05 0.000461523 0)
(-3.11359e-05 0.000732516 0)
(-4.51736e-05 0.00100211 0)
(-6.01722e-05 0.00122791 0)
(-8.67435e-05 0.00173674 0)
(-7.8393e-05 0.00145999 0)
(-9.60609e-05 0.00192093 0)
(-0.000116392 0.00234052 0)
(-0.0001292 0.0025614 0)
(-0.000142597 0.00297718 0)
(0.000561835 0.0080343 0)
(-5.88296e-07 0.0101868 0)
(0.000223349 0.0103303 0)
(-7.82642e-05 0.00974418 0)
(-0.00014816 0.008528 0)
(-0.000209435 0.00772663 0)
(0.000481062 0.00988269 0)
(-0.000211349 0.00521607 0)
(-0.000227658 0.00608068 0)
(-0.000184551 0.00429135 0)
(-0.00026604 0.00713168 0)
(-0.000168198 0.00370453 0)
(0.000697406 0.00442067 0)
(0.000748304 0.00577772 0)
(0.000643945 0.00725219 0)
(0.00026413 0.00142713 0)
(0.000409237 0.00228569 0)
(0.000569042 0.00311766 0)
(3.47955e-05 0.000177298 0)
(0.00018849 0.000942023 0)
(-0.00016755 0.00346448 0)
(-3.38229e-06 9.46741e-05 0)
(-1.6944e-05 0.00038821 0)
(-3.24806e-05 0.000685035 0)
(-4.88168e-05 0.000967059 0)
(-5.92357e-05 0.00111004 0)
(-8.7509e-05 0.00163734 0)
(-8.33604e-05 0.00142213 0)
(-0.000109635 0.00202772 0)
(-0.000119786 0.00222646 0)
(-0.000147847 0.00266133 0)
(-0.000165227 0.00306256 0)
(0.000594369 0.00900052 0)
(-5.7773e-05 0.0114123 0)
(0.00020701 0.0115451 0)
(-0.000188598 0.0106738 0)
(-0.000231835 0.00909967 0)
(-0.000261137 0.00847911 0)
(0.000490049 0.0111111 0)
(-0.00023557 0.00569043 0)
(-0.000226693 0.00496027 0)
(-0.000261686 0.00657232 0)
(-0.00021191 0.00458982 0)
(-0.000185286 0.00398077 0)
(-0.000318067 0.00763308 0)
(0.000774799 0.00512642 0)
(0.000753474 0.00397777 0)
(0.000831417 0.00656725 0)
(0.000761222 0.00731397 0)
(0.000346874 0.00179683 0)
(0.000496227 0.00258408 0)
(0.000681015 0.00338044 0)
(3.88175e-05 0.000162386 0)
(0.000208239 0.000928675 0)
(-0.0001832 0.00347661 0)
(-8.52408e-06 0.000200615 0)
(-2.44806e-05 0.000506423 0)
(-4.18767e-05 0.000812242 0)
(-6.70774e-05 0.00113606 0)
(-9.85176e-05 0.00169112 0)
(-7.96494e-05 0.00129433 0)
(-9.57358e-05 0.0015606 0)
(-0.000114554 0.00196264 0)
(-0.000136459 0.00233418 0)
(-0.000149513 0.00252812 0)
(-0.00016585 0.00289861 0)
(-0.00018129 0.00327255 0)
(0.000741064 0.00908061 0)
(-3.38927e-05 0.0123382 0)
(-0.000178659 0.011595 0)
(0.000343488 0.0119546 0)
(8.0746e-05 0.0124154 0)
(-0.000266615 0.0106067 0)
(-0.0002743 0.00984237 0)
(-0.000324557 0.00870063 0)
(0.000665851 0.0113177 0)
(-0.000276551 0.00585623 0)
(-0.000265313 0.00519706 0)
(-0.000297958 0.00659852 0)
(-0.00022903 0.00446215 0)
(-0.000209901 0.0041067 0)
(-0.000343562 0.00824978 0)
(-0.000350662 0.00742438 0)
(0.000896265 0.00501497 0)
(0.000866452 0.00425436 0)
(0.000963667 0.00679772 0)
(0.000820312 0.00815378 0)
(0.000383112 0.00176498 0)
(0.000485512 0.00220826 0)
(0.000691762 0.00294212 0)
(0.000108783 0.000444351 0)
(0.000313296 0.00133796 0)
(-0.000202007 0.00365028 0)
(-5.10726e-06 0.00010673 0)
(-2.55463e-05 0.000479963 0)
(-4.32208e-05 0.000766891 0)
(-6.31035e-05 0.00100039 0)
(-0.000108966 0.00181531 0)
(-9.19344e-05 0.00134601 0)
(-0.000105051 0.00159405 0)
(-0.000129912 0.00208166 0)
(-0.000140121 0.00224183 0)
(-0.000169738 0.00263592 0)
(-0.00018529 0.00297462 0)
(-0.000205958 0.00342467 0)
(0.000802307 0.0100881 0)
(-0.000185773 0.0134443 0)
(-0.000262609 0.0127268 0)
(0.00029418 0.0134406 0)
(9.72224e-05 0.0138547 0)
(-0.00037717 0.0114759 0)
(-0.000366328 0.0100913 0)
(-0.000380737 0.00952684 0)
(0.000685802 0.0127439 0)
(-0.000286821 0.00559781 0)
(-0.000301401 0.00625457 0)
(-0.000283331 0.00509061 0)
(-0.000334428 0.00696523 0)
(-0.000255173 0.00456736 0)
(-0.000224382 0.00404121 0)
(-0.000411546 0.00859603 0)
(-0.000402323 0.00776966 0)
(0.00101787 0.00537798 0)
(0.000970817 0.00411872 0)
(0.00106796 0.00620009 0)
(0.000971375 0.00787899 0)
(0.000563577 0.00234037 0)
(0.000796199 0.00299876 0)
(0.000126986 0.0004722 0)
(0.000327282 0.00123999 0)
(-0.00021431 0.00360612 0)
(-0.000218579 0.00385841 0)
(-1.09572e-05 0.000198487 0)
(-3.47697e-05 0.00061039 0)
(-2.02258e-05 0.000358197 0)
(-5.21443e-05 0.000847858 0)
(-7.33731e-05 0.00105311 0)
(-0.000121798 0.00185683 0)
(-8.87541e-05 0.00123074 0)
(-0.000104993 0.00150136 0)
(-0.00011933 0.00175144 0)
(-0.000134224 0.00200792 0)
(-0.00015642 0.00234424 0)
(-0.000184903 0.00282326 0)
(-0.000170599 0.00252349 0)
(-0.000207675 0.00318428 0)
(-0.000218172 0.00338803 0)
(0.000982093 0.00976605 0)
(-0.000230204 0.0147245 0)
(-0.000372213 0.0130628 0)
(0.000429469 0.0141579 0)
(-6.67835e-05 0.0151516 0)
(-0.000417585 0.0123808 0)
(-0.00042719 0.0109575 0)
(-0.0004519 0.0097062 0)
(0.000895455 0.0126925 0)
(-0.000324412 0.00577855 0)
(-0.000342239 0.00646508 0)
(-0.000278117 0.00482881 0)
(-0.000320879 0.00534708 0)
(-0.000362606 0.00687261 0)
(-0.000254853 0.00432042 0)
(-0.000430424 0.00827494 0)
(-0.00045398 0.00917793 0)
(-0.000426693 0.00758155 0)
(0.0011029 0.00469974 0)
(0.000944343 0.00351683 0)
(0.00123658 0.00640525 0)
(0.00106068 0.00846419 0)
(0.000538587 0.00198007 0)
(0.000759074 0.00250603 0)
(0.000230278 0.000827348 0)
(4.8836e-05 0.000169458 0)
(0.000424459 0.00150599 0)
(-0.00023434 0.00382728 0)
(-5.57958e-06 9.19913e-05 0)
(-3.68022e-05 0.000587543 0)
(-2.7639e-05 0.000440017 0)
(-4.73682e-05 0.000720991 0)
(-6.87212e-05 0.000935646 0)
(-0.00010094 0.00128938 0)
(-0.000120634 0.00161408 0)
(-0.000130685 0.00177867 0)
(-0.000151146 0.00212436 0)
(-0.000161654 0.00228521 0)
(-0.000208015 0.00296226 0)
(-0.000188501 0.0025948 0)
(-0.000221921 0.00316744 0)
(-0.000252744 0.00364304 0)
(0.00110242 0.0102955 0)
(-0.000399025 0.0156291 0)
(-0.000471824 0.0142217 0)
(0.000343261 0.0159121 0)
(-0.000113357 0.0166912 0)
(-0.000538073 0.0130781 0)
(-0.000517077 0.011344 0)
(-0.000513434 0.0103028 0)
(0.000954625 0.0139446 0)
(0.00108329 0.0113826 0)
(-0.000351274 0.00608712 0)
(-0.000335723 0.00560433 0)
(-0.000359579 0.00636021 0)
(-0.000315662 0.00495736 0)
(-0.00034063 0.00526102 0)
(-0.000402945 0.00714427 0)
(-0.000283738 0.00442395 0)
(-0.00049446 0.00861128 0)
(-0.000511682 0.00937961 0)
(-0.000475749 0.00787173 0)
(0.00126193 0.00478726 0)
(0.00105213 0.00323875 0)
(0.00130037 0.00728508 0)
(0.00135014 0.00562535 0)
(0.00121792 0.00816808 0)
(0.000633057 0.00208107 0)
(0.000841439 0.00244152 0)
(0.000219872 0.000708618 0)
(0.000111658 0.000354996 0)
(0.000403949 0.00128643 0)
(-0.000258433 0.00395931 0)
(-1.27516e-05 0.00018775 0)
(-2.56749e-05 0.000375021 0)
(-5.35964e-05 0.000754592 0)
(-7.91876e-05 0.000992604 0)
(-0.000119715 0.0014639 0)
(-9.50995e-05 0.00116058 0)
(-0.000128636 0.00160606 0)
(-0.000149076 0.00193542 0)
(-0.000159267 0.00209954 0)
(-0.000181145 0.00243569 0)
(-0.000216976 0.00292785 0)
(-0.000206882 0.00275169 0)
(-0.000250138 0.00336715 0)
(-0.000267112 0.00360261 0)
(-0.000269389 0.00387809 0)
(0.00128349 0.00916282 0)
(-0.000491164 0.0152031 0)
(-0.00049873 0.017272 0)
(-0.00057328 0.0141199 0)
(5.39185e-05 0.0170884 0)
(0.000532604 0.0164802 0)
(-0.000402732 0.0179853 0)
(-0.000596598 0.0128744 0)
(-0.000540135 0.0109027 0)
(-0.00058388 0.0121652 0)
(-0.000569579 0.0102929 0)
(0.00125715 0.0129055 0)
(0.000826062 0.0154603 0)
(0.00129284 0.0114989 0)
(-0.000388551 0.00617205 0)
(-0.000379685 0.00590852 0)
(-0.00041073 0.00670206 0)
(-0.000318707 0.00476778 0)
(-0.00038405 0.0055381 0)
(-0.000430986 0.00704648 0)
(-0.000284149 0.0042435 0)
(-0.000526299 0.00908263 0)
(-0.000511128 0.00836229 0)
(-0.000561642 0.00988172 0)
(-0.000494491 0.00772568 0)
(0.00133028 0.00406631 0)
(0.000971975 0.00271324 0)
(0.00121287 0.00341223 0)
(0.00150249 0.00705081 0)
(0.00153129 0.0058934 0)
(0.000593015 0.00172364 0)
(0.000798395 0.00207038 0)
(0.000297644 0.000909454 0)
(6.34758e-05 0.000184086 0)
(0.000481648 0.00139898 0)
(-7.10386e-06 9.5858e-05 0)
(-3.52852e-05 0.000472364 0)
(-4.87541e-05 0.00064718 0)
(-7.30108e-05 0.000882614 0)
(-0.000127232 0.00145267 0)
(-0.000109697 0.00125602 0)
(-0.000150256 0.00179074 0)
(-0.000158791 0.00193883 0)
(-0.000184001 0.0022945 0)
(-0.000194447 0.00246124 0)
(-0.000245299 0.00311989 0)
(-0.00022813 0.00282999 0)
(-0.000262529 0.00333107 0)
(-0.000301522 0.00384058 0)
(-0.000312163 0.00417411 0)
(0.0014604 0.00911593 0)
(-0.000656196 0.0163663 0)
(-0.000698517 0.0177182 0)
(-0.000678385 0.0149297 0)
(-7.62092e-05 0.0189984 0)
(0.000376195 0.0184435 0)
(-0.000513311 0.0196236 0)
(-0.00069939 0.0135391 0)
(-0.00062842 0.0113548 0)
(-0.000685871 0.0125073 0)
(-0.000633348 0.0108924 0)
(0.00147152 0.0132545 0)
(0.00102163 0.0162602 0)
(0.00149962 0.0102878 0)
(-0.000424218 0.00652655 0)
(-0.000407662 0.00591524 0)
(-0.00035332 0.00489985 0)
(-0.000408217 0.00551058 0)
(-0.000475155 0.00734511 0)
(-0.000322952 0.00439972 0)
(-0.000584694 0.00943674 0)
(-0.000570517 0.00864683 0)
(-0.000607439 0.00991996 0)
(-0.000540694 0.00798222 0)
(0.00153071 0.00393192 0)
(0.00102004 0.00235797 0)
(0.00125667 0.00286676 0)
(0.00160871 0.00781996 0)
(0.00167633 0.00537022 0)
(0.000676414 0.00175663 0)
(0.000896079 0.00203331 0)
(0.000301976 0.000843288 0)
(0.000117217 0.000310413 0)
(0.000417932 0.0011196 0)
(-1.60793e-05 0.000199062 0)
(-3.10362e-05 0.000384987 0)
(-5.82999e-05 0.000720784 0)
(-7.9882e-05 0.000907643 0)
(-0.000146426 0.00159454 0)
(-0.000110674 0.00120009 0)
(-0.00016626 0.00187156 0)
(-0.000183972 0.00213803 0)
(-0.000197035 0.00231001 0)
(-0.000221349 0.00268169 0)
(-0.00025159 0.00304937 0)
(-0.000299255 0.0035825 0)
(-0.000326394 0.00414169 0)
(-0.000318523 0.00382868 0)
(-0.000725231 0.0160484 0)
(-0.000875818 0.0190169 0)
(-0.000758567 0.0149077 0)
(-0.000344764 0.0200446 0)
(8.24187e-05 0.0195504 0)
(0.000536004 0.0191861 0)
(-0.000729176 0.0208108 0)
(-0.000744922 0.0132173 0)
(-0.000758879 0.0142889 0)
(-0.000695086 0.0120594 0)
(-0.000695555 0.0111236 0)
(0.00138341 0.0149982 0)
(0.00176691 0.0116387 0)
(0.000864613 0.0180954 0)
(0.00173061 0.0101832 0)
(-0.000471468 0.00676282 0)
(-0.000460565 0.00626845 0)
(-0.000390902 0.00521027 0)
(-0.000354302 0.00468603 0)
(-0.000460224 0.00586715 0)
(-0.000520311 0.0074553 0)
(-0.000623388 0.00945448 0)
(-0.00061996 0.00912592 0)
(-0.000576629 0.00838093 0)
(-0.000670775 0.010307 0)
(-0.000560534 0.00784519 0)
(0.00167514 0.00445618 0)
(0.00154424 0.00309544 0)
(0.00113777 0.00238329 0)
(0.00139728 0.00272451 0)
(0.00182232 0.00760131 0)
(0.00188854 0.00563868 0)
(0.000646812 0.00149985 0)
(0.000862677 0.00175447 0)
(0.000228294 0.000600103 0)
(5.2332e-05 0.000128095 0)
(0.000440548 0.0010669 0)
(-9.09891e-06 0.000104309 0)
(-4.26188e-05 0.000495208 0)
(-5.57347e-05 0.000652172 0)
(-9.46596e-05 0.00102783 0)
(-6.80415e-05 0.00076129 0)
(-0.000149938 0.0015553 0)
(-0.000165977 0.00180015 0)
(-0.00013123 0.00135403 0)
(-0.000190098 0.00210555 0)
(-0.000226342 0.00254214 0)
(-0.00023943 0.00273932 0)
(-0.000281214 0.00323499 0)
(-0.00031038 0.00353887 0)
(-0.000370541 0.00439025 0)
(-0.000361877 0.00415776 0)
(-0.000859076 0.0166985 0)
(-0.000955513 0.0205033 0)
(-0.000994246 0.0187499 0)
(-0.000863652 0.0158844 0)
(-0.000516633 0.0220513 0)
(-8.03036e-05 0.0214351 0)
(0.000346295 0.0212582 0)
(-0.000757485 0.022564 0)
(-0.000886437 0.0211184 0)
(-0.000839816 0.0138533 0)
(-0.000861546 0.0145911 0)
(-0.000779881 0.0123332 0)
(-0.0007629 0.0117638 0)
(-0.000708527 0.0107959 0)
(0.0016196 0.0156617 0)
(0.0020833 0.0112301 0)
(0.00103728 0.0188981 0)
(0.00190974 0.00876545 0)
(-0.00052129 0.00723321 0)
(-0.000488212 0.00663596 0)
(-0.000486137 0.00622389 0)
(-0.000420194 0.00525239 0)
(-0.000393603 0.00490388 0)
(-0.00048964 0.00589269 0)
(-0.000685342 0.0100178 0)
(-0.000690295 0.00939169 0)
(-0.00063359 0.00860977 0)
(-0.000618697 0.00823038 0)
(0.00187075 0.00402139 0)
(0.0017175 0.00272326 0)
(0.00118083 0.00199799 0)
(0.00135012 0.00207791 0)
(0.00195984 0.00647574 0)
(0.00201479 0.00459882 0)
(0.000540146 0.00122352 0)
(0.000736083 0.00152227 0)
(0.000922013 0.00156739 0)
(0.00025661 0.000614638 0)
(0.000104624 0.000235504 0)
(0.000351973 0.000814248 0)
(-2.1635e-05 0.00023279 0)
(-4.01279e-05 0.000435639 0)
(-9.06212e-05 0.000941707 0)
(-7.12569e-05 0.000759621 0)
(-0.000170741 0.00170726 0)
(-0.000192663 0.00197661 0)
(-0.000137913 0.00135652 0)
(-0.00021475 0.00226791 0)
(-0.000243826 0.00260809 0)
(-0.000269539 0.00296956 0)
(-0.000288093 0.00318534 0)
(-0.000348498 0.00377311 0)
(-0.000406366 0.0047008 0)
(-0.000388468 0.00425206 0)
(-0.000961569 0.0176786 0)
(-0.00120282 0.0216874 0)
(-0.00116411 0.0198658 0)
(-0.000958839 0.0161341 0)
(-0.000401394 0.0227614 0)
(4.32204e-05 0.0222135 0)
(0.00048857 0.0222322 0)
(-0.000980558 0.0239774 0)
(-0.00106898 0.0230767 0)
(-0.000888266 0.0138722 0)
(-0.000950199 0.0154088 0)
(-0.000863621 0.0129828 0)
(-0.000824633 0.0118902 0)
(-0.000789586 0.0112881 0)
(0.00198043 0.0143625 0)
(0.0013996 0.0178416 0)
(0.0021853 0.012341 0)
(0.00225054 0.0094684 0)
(0.000839761 0.0209508 0)
(0.00213548 0.00848691 0)
(-0.000585092 0.00747943 0)
(-0.000558269 0.00707772 0)
(-0.000544584 0.00661273 0)
(-0.000464513 0.00555694 0)
(-0.000414455 0.00491909 0)
(-0.000548237 0.0062873 0)
(-0.000752389 0.0102997 0)
(-0.000754328 0.00993817 0)
(-0.000688188 0.00906257 0)
(-0.000667109 0.00836337 0)
(0.00190346 0.00312898 0)
(0.00167378 0.0020053 0)
(0.00105721 0.00162108 0)
(0.00145042 0.00178482 0)
(0.00221644 0.00629336 0)
(0.00224611 0.00425653 0)
(0.000525133 0.00106035 0)
(0.000712964 0.00131296 0)
(0.000805488 0.00131517 0)
(0.000198498 0.000444507 0)
(5.09264e-05 0.000106882 0)
(0.000350195 0.000736816 0)
(-1.29953e-05 0.00013114 0)
(-5.73977e-05 0.000597324 0)
(-9.95988e-05 0.000987843 0)
(-0.000177554 0.00170918 0)
(-0.000191525 0.00190711 0)
(-0.000216506 0.00219925 0)
(-0.00012274 0.00118731 0)
(-0.000163469 0.00155631 0)
(-0.00023885 0.00249067 0)
(-0.000279468 0.00288729 0)
(-0.000289861 0.0030346 0)
(-0.00032631 0.00343098 0)
(-0.000379381 0.00405495 0)
(-0.000354075 0.00368675 0)
(-0.000454826 0.00495183 0)
(-0.000438448 0.00460077 0)
(-0.00108351 0.0178685 0)
(-0.00134027 0.0232746 0)
(-0.00126129 0.0211469 0)
(-0.00124469 0.0196603 0)
(-0.00106196 0.0170387 0)
(-0.000538644 0.0247739 0)
(-0.000207811 0.0243215 0)
(0.00024468 0.024674 0)
(-0.00112441 0.0256947 0)
(-0.00126543 0.0239273 0)
(-0.000993728 0.0146076 0)
(-0.000892088 0.0135002 0)
(-0.00103921 0.0156971 0)
(-0.00093771 0.0130679 0)
(-0.000906189 0.0124748 0)
(-0.000834072 0.0113163 0)
(0.0022714 0.0149196 0)
(0.00149448 0.0192133 0)
(0.0025576 0.0113494 0)
(0.00251989 0.00846851 0)
(0.00107561 0.0214749 0)
(0.0022818 0.00725922 0)
(-0.00064995 0.00796361 0)
(-0.000584509 0.00705973 0)
(-0.000573048 0.00661636 0)
(-0.000494503 0.00560957 0)
(-0.00046843 0.00529632 0)
(-0.000582989 0.00635516 0)
(-0.000818136 0.0108669 0)
(-0.000834888 0.0103004 0)
(-0.000765335 0.00936903 0)
(-0.000750981 0.00897808 0)
(0.00209231 0.00271592 0)
(0.00180783 0.00150269 0)
(0.00105632 0.00123715 0)
(0.00138977 0.00131551 0)
(0.00238385 0.00505282 0)
(0.00229283 0.00321944 0)
(0.00060831 0.0011171 0)
(0.000424517 0.000839684 0)
(0.000765933 0.00108427 0)
(0.000253224 0.000527044 0)
(0.000111081 0.000216311 0)
(-2.7455e-05 0.000263876 0)
(-6.24164e-05 0.00061975 0)
(-8.55036e-05 0.000829236 0)
(-0.000203018 0.00190538 0)
(-0.000213142 0.00203644 0)
(-0.000244347 0.00238607 0)
(-0.000134416 0.0012403 0)
(-0.000176705 0.00161705 0)
(-0.000270696 0.00268977 0)
(-0.0002972 0.00293734 0)
(-0.000327135 0.00333229 0)
(-0.000416663 0.0042604 0)
(-0.000399912 0.00396556 0)
(-0.000493927 0.00532988 0)
(-0.000469703 0.00491147 0)
(-0.000450842 0.00456323 0)
(-0.00119949 0.0187389 0)
(-0.00156207 0.0243875 0)
(-0.00143161 0.0219417 0)
(-0.00137987 0.0205012 0)
(-0.00115894 0.0172529 0)
(-0.000829518 0.0265919 0)
(-0.000162938 0.0257635 0)
(0.000432334 0.0256881 0)
(-0.00139986 0.0265768 0)
(-0.00109313 0.0269336 0)
(-0.00143769 0.0256763 0)
(-0.000996183 0.0142118 0)
(-0.00105216 0.0152512 0)
(-0.0011359 0.0165691 0)
(-0.00103172 0.0137647 0)
(-0.000969983 0.0125501 0)
(-0.000922664 0.0119119 0)
(0.0022097 0.0167694 0)
(0.00263858 0.012737 0)
(0.00180627 0.0188574 0)
(0.00286282 0.00940659 0)
(0.00279441 0.00827881 0)
(0.00250696 0.0071369 0)
(0.000940243 0.023587 0)
(-0.000715487 0.00820962 0)
(-0.000655117 0.00742997 0)
(-0.000643108 0.00711188 0)
(-0.00055149 0.00598919 0)
(-0.000653747 0.00683109 0)
(-0.000907886 0.0112709 0)
(-0.00091538 0.0109961 0)
(-0.000840269 0.00998445 0)
(-0.000811315 0.00918052 0)
(0.00213359 0.0019803 0)
(0.00170103 0.00101962 0)
(0.00201962 0.00146507 0)
(0.00119237 0.00110303 0)
(0.000861102 0.00103498 0)
(0.00151339 0.000973253 0)
(0.00265765 0.00478643 0)
(0.0025069 0.00247782 0)
(0.000580707 0.00097552 0)
(0.000402036 0.000726257 0)
(0.000647749 0.000957376 0)
(0.000219125 0.000423752 0)
(5.80142e-05 0.000106799 0)
(-1.46765e-05 0.000134578 0)
(-5.06586e-05 0.000487139 0)
(-9.25596e-05 0.000858102 0)
(-0.000219082 0.00198848 0)
(-0.000240341 0.00224967 0)
(-0.000272116 0.00263572 0)
(-0.000252893 0.00239213 0)
(-0.000161928 0.00146066 0)
(-0.000116847 0.00105924 0)
(-0.000206618 0.00184938 0)
(-0.000332869 0.00318367 0)
(-0.000362624 0.00354028 0)
(-0.000429068 0.00423546 0)
(-0.000405531 0.00389688 0)
(-0.00055099 0.00569921 0)
(-0.000536656 0.00533753 0)
(-0.000490632 0.00477533 0)
(-0.0013034 0.0188858 0)
(-0.00169631 0.025884 0)
(-0.00164424 0.0241054 0)
(-0.00157051 0.0230455 0)
(-0.00144676 0.0213763 0)
(-0.00146467 0.0205463 0)
(-0.00127292 0.0181328 0)
(-0.000830863 0.0283951 0)
(-0.000483079 0.0279037 0)
(0.000195865 0.0282617 0)
(-0.00161588 0.0283052 0)
(-0.00142106 0.0292106 0)
(-0.00164691 0.0264695 0)
(-0.00105969 0.0143852 0)
(-0.00117728 0.0160124 0)
(-0.00122605 0.016786 0)
(-0.00112164 0.0141301 0)
(-0.00106666 0.0131613 0)
(-0.000972495 0.0119123 0)
(0.00256334 0.01698 0)
(0.00302077 0.0117657 0)
(0.0017773 0.0211603 0)
(0.00319963 0.00914189 0)
(0.00297014 0.00623919 0)
(0.00270285 0.00603062 0)
(0.00129708 0.0237572 0)
(-0.00078721 0.00876005 0)
(-0.000712904 0.00791037 0)
(-0.00068876 0.00725204 0)
(-0.000584484 0.00605883 0)
(-0.000692029 0.00691627 0)
(-0.00100832 0.0114248 0)
(-0.000926304 0.0104045 0)
(-0.000908583 0.00980879 0)
(0.00238089 0.00169442 0)
(0.00177636 0.000482694 0)
(0.00211264 0.000707058 0)
(0.00114671 0.00077002 0)
(0.000796446 0.000849804 0)
(0.00146029 0.000596781 0)
(0.00285784 0.00344506 0)
(0.00275377 0.00239209 0)
(0.000475713 0.000801499 0)
(0.000292349 0.000526962 0)
(0.000572032 0.000828122 0)
(9.7055e-05 0.000165888 0)
(-3.37408e-05 0.00030052 0)
(-6.96026e-05 0.000641949 0)
(-0.000247469 0.00220862 0)
(-0.000257761 0.00233178 0)
(-0.000302381 0.00281532 0)
(-0.000289252 0.00265877 0)
(-0.00017834 0.00155091 0)
(-0.00012919 0.00112742 0)
(-0.000227108 0.00196823 0)
(-0.000363237 0.0034596 0)
(-0.000350809 0.00323977 0)
(-0.000475796 0.00455174 0)
(-0.000457151 0.00420198 0)
(-0.000575508 0.00571691 0)
(-0.000559112 0.00537009 0)
(-0.000533698 0.00509099 0)
(-0.0014308 0.01981 0)
(-0.00192798 0.0271214 0)
(-0.00186505 0.0254307 0)
(-0.00170046 0.0231854 0)
(-0.00160645 0.022162 0)
(-0.00161871 0.0216912 0)
(-0.0013773 0.0183959 0)
(-0.00110665 0.0303637 0)
(-0.000556939 0.0299324 0)
(-0.000312931 0.030331 0)
(0.000521591 0.0287995 0)
(-0.00185646 0.0290243 0)
(-0.00163435 0.0294329 0)
(-0.00150417 0.0307866 0)
(-0.00184642 0.0281081 0)
(-0.00118753 0.0152631 0)
(-0.00124611 0.0160355 0)
(-0.00134236 0.0176488 0)
(-0.0012286 0.0150963 0)
(-0.00113322 0.0138627 0)
(-0.00113075 0.0132281 0)
(-0.00107824 0.0125747 0)
(0.00302255 0.0151922 0)
(0.00226004 0.0200722 0)
(0.00322597 0.0125979 0)
(0.0035146 0.00782777 0)
(0.00325143 0.00486412 0)
(0.00112653 0.0263782 0)
(-0.000862808 0.00910336 0)
(-0.000793452 0.00831496 0)
(-0.000773875 0.00781079 0)
(-0.000652988 0.00650402 0)
(-0.000770564 0.00741685 0)
(-0.00109518 0.0120992 0)
(-0.0010043 0.0110732 0)
(-0.000956288 0.0103018 0)
(-0.000940744 0.00973957 0)
(0.0024687 0.000953217 0)
(0.00196362 0.000270021 0)
(0.00160269 0.00027197 0)
(0.00232239 0.000469955 0)
(0.00129257 0.000524431 0)
(0.00098037 0.000642949 0)
(0.00065863 0.000743287 0)
(0.000853693 0.000701072 0)
(0.00317986 0.00322719 0)
(0.00293305 0.000971055 0)
(0.000470105 0.000738493 0)
(0.000264524 0.000450347 0)
(0.000533315 0.000726465 0)
(3.88601e-05 6.43136e-05 0)
(0.000180477 0.000302465 0)
(-3.33392e-05 0.000289162 0)
(-6.45218e-05 0.000578486 0)
(-0.00027384 0.00236949 0)
(-0.000292157 0.00258526 0)
(-0.000336835 0.00307511 0)
(-0.00030913 0.00275435 0)
(-0.000212209 0.0018138 0)
(-0.000162102 0.00138878 0)
(-0.000111892 0.000960043 0)
(-0.000265586 0.00226329 0)
(-0.000404609 0.003708 0)
(-0.00039418 0.00355614 0)
(-0.000508523 0.00470555 0)
(-0.000450419 0.0040563 0)
(-0.000504558 0.00457022 0)
(-0.000644608 0.00615901 0)
(-0.000628209 0.00580384 0)
(-0.000578134 0.00530048 0)