/*--------------------------------*- C++ -*----------------------------------*\
| =========                 |                                                 |
| \\      /  F ield         | OpenFOAM: The Open Source CFD Toolbox           |
|  \\    /   O peration     | Version:  v2012                                 |
|   \\  /    A nd           | Website:  www.openfoam.com                      |
|    \\/     M anipulation  |                                                 |
\*---------------------------------------------------------------------------*/
FoamFile
{
    version     2.0;
    format      ascii;
    class       surfaceScalarField;
    location    "0.23";
    object      meshPhi;
}
// * * * * * * * * * * * * * * * * * * * * * * * * * * * * * * * * * * * * * //

dimensions      [0 3 -1 0 0 0 0];


internalField   nonuniform List<scalar> 
18811
(
0.00165058
0.0010815
-0.000760501
0.00543546
-0.00154104
0.00519474
0.00345829
-0.00015151
0.00816822
0.00182106
0.00782754
0.00754146
0.00105309
0.00118261
0.0106692
0.00592901
-0.00117804
0.00163623
0.00872329
0.0121786
0.00842369
-0.00281042
-0.00157651
0.0152766
0.00538542
0.00331225
0.00133176
0.00951445
0.00968175
-0.000444599
0.0170058
0.0133138
-0.000933577
0.00233529
0.00101943
0.0180777
0.00862806
-0.00315843
0.00403011
-0.000729732
0.00594411
0.00595163
0.0181373
0.0170325
0.0218805
-0.00942714
0.0124485
-0.00220431
-0.00304606
0.0244967
0.00585894
0.00462629
0.00274326
0.0011864
0.0141529
0.018732
-0.0026879
0.0245158
-0.000911329
0.027551
0.0197993
-0.00252063
0.0085565
-0.00430659
0.00020937
0.0283543
-0.00409506
0.0103723
0.00648445
-0.00217475
0.00265869
-0.000220544
0.0131969
0.00268282
-0.00281672
0.0249726
0.0217633
0.0281244
0.0316271
-0.0144808
0.016755
-0.000993684
-0.000136553
0.0011516
0.030442
0.00387112
0.006627
0.00501805
0.00157923
-0.00053683
0.00124809
0.0129032
0.0105396
0.0297497
-0.00974848
0.0374437
-0.00419361
0.0377455
0.00155014
0.0350898
0.0218017
-0.00108471
0.0138721
-0.00979473
0.00402185
0.00265921
0.0308132
-0.00287123
0.00800029
-0.00367373
0.00977927
-0.00223975
0.00493045
0.000288556
-0.000381569
-0.0102139
0.0252474
0.00153934
0.0216271
0.010409
0.0166584
0.0391228
0.0445956
0.0409971
-0.0189782
0.0219986
-5.86762e-05
0.000996319
0.00494865
0.0286342
0.00338905
0.00565499
0.0127675
0.000951486
-0.000184579
0.00131245
0.0135189
0.014588
0.0291872
0.0263363
-0.0191078
0.0401999
0.0523773
-0.00499573
0.000496087
0.0490065
0.0170182
0.0276229
0.0070282
-0.0169227
0.022686
0.008919
-0.00291997
0.0490042
0.00562704
-0.00125561
-0.00253851
0.00925796
-0.00286966
0.0170688
0.000318389
0.00189122
-0.000227566
-0.00802379
0.0249493
-0.00524541
0.0364957
0.0230356
0.0354316
0.00995765
0.057894
0.0366488
0.0216779
0.0317102
0.0540049
-0.0228647
0.0350319
-0.00306245
0.00566562
0.00207484
0.0184264
0.0325931
0.00409363
-0.00212954
0.0015107
0.0075567
0.0111402
0.00034196
2.46828e-05
0.000332317
0.00558086
0.0215228
0.00945466
0.030241
0.0305746
-0.0311473
0.0457883
0.0229115
0.0400145
-0.0299288
0.072419
0.0585206
0.023914
0.0341917
0.00950296
-0.00909789
0.0113198
0.0253612
-0.0149842
-0.00253145
0.0297853
0.0150244
0.0195958
-0.00140674
0.00616972
0.00245244
-0.000628451
-0.00232602
0.0107626
-0.00518918
0.0176047
-0.000364964
0.000576634
0.00180697
0.0210943
-0.00835147
0.0406373
0.023852
0.0213531
-0.00803096
0.0534402
0.0591167
0.0221533
0.0343474
0.0287094
0.0623234
0.0526405
-0.0330975
0.0486816
0.022011
-0.00525745
-0.00298948
0.0117727
0.0031183
0.0513021
0.00174873
0.00463066
0.00640958
0.0146461
0.00405538
0.01791
-0.000777184
0.0233144
0.0104211
0.0316669
0.0243351
-0.0376204
0.0651218
0.0566855
0.0283462
0.0285021
-0.0473969
0.0763032
0.0610059
0.0408569
0.025366
0.0190119
0.0365303
0.0182187
-0.0119258
0.0123206
-0.024229
0.0257989
-0.00879533
-0.00292108
0.0141886
0.039753
0.00187674
-0.000769529
0.00586085
-0.00215742
0.00907422
-0.00766272
0.0126326
0.00154881
0.0171967
-0.00220893
0.026648
0.0361292
-0.00203134
0.0355975
0.0255215
0.0381969
0.0245728
0.0711029
0.0604668
0.0246078
0.0533905
0.0125282
0.0630664
0.0835098
0.0530822
-0.0390696
0.0648484
0.0174808
-0.000957224
0.041462
-0.0111638
0.0124688
0.00319413
0.0395429
0.0015574
0.0041453
0.00193342
0.0103879
0.00280667
0.0126824
0.0159047
0.015664
0.011814
0.01567
0.0216986
0.00851474
0.0279406
-0.0357912
0.0672943
0.0928461
0.0890267
-0.0515584
0.0832842
0.0291133
0.0368515
0.0344521
0.0534323
0.0175305
0.0376212
0.00847445
0.0365738
-0.0117631
0.0149151
-0.03129
0.0247139
-0.014773
0.00920949
-0.00162642
0.0085715
0.0323844
0.00170038
0.00456247
-0.000104382
0.00697059
-0.00592016
0.00927393
0.00148995
0.0116461
-0.000233776
0.0166843
-0.00457908
0.0208341
0.0285433
0.0311781
0.00394861
0.0250349
0.0230312
0.0210193
0.0830556
0.0124875
0.0854549
0.0718066
0.0200818
0.0666689
0.0565457
-0.0154483
0.0736626
0.0477548
-0.0319517
0.0452999
-0.0147707
0.0562948
0.00161178
0.00415163
-0.00289228
0.00262186
0.0375614
0.0019702
0.00149293
0.00622247
0.00333605
0.00808126
0.0119223
0.0126247
0.00898659
0.0123638
0.00992867
0.0190879
0.00832074
0.0235564
0.0340839
-0.0408572
0.0695025
0.101765
0.104022
0.0751673
-0.0563552
0.0830168
0.0330027
0.0359021
0.0252208
0.0332045
0.0255479
0.0506955
0.0186484
0.0303242
0.0585683
-0.00719708
0.0495376
0.0204058
-0.00724308
0.0124876
-0.014168
0.0228525
-0.0269315
0.0289736
-0.000613606
0.0042695
0.0341011
0.00215312
0.00409782
-0.0025272
0.00612548
-0.000563419
0.00894943
0.000531864
0.011775
-0.00114146
0.0141164
0.0193743
-0.00626941
0.019156
0.00141635
0.0181623
0.0255534
0.02106
0.0136644
0.0195623
0.110275
0.00240235
0.0470098
0.0653181
0.0138486
0.0652988
0.0796476
0.0109937
0.0601878
0.0638132
0.0533912
-0.0182216
0.0720955
0.0353226
-0.0392315
0.0374767
0.0395564
0.0146086
0.0641455
0.0021167
-0.000122024
-0.00617718
-0.00303512
0.00786296
0.0163066
0.0183911
0.00205693
0.00590448
0.00989988
0.0109909
0.00828719
0.00505805
0.014737
0.00358771
0.0158943
0.0236634
0.00736267
0.0187159
0.0289948
0.0306226
-0.0467956
0.0715303
0.0303063
0.087163
0.09011
0.0833115
0.0834165
0.0498513
-0.0619651
0.0789254
0.0215314
0.0402115
0.0288464
0.0364861
0.0336179
0.0205795
0.0171605
0.0566533
0.0193047
0.0167623
0.0476552
-0.00701228
-0.038131
0.0574547
0.0224977
-0.0104975
0.0166267
-0.0167406
0.0199938
-0.0292537
0.027332
6.3429e-05
0.00117679
0.038388
0.00228574
-0.000133392
0.00629716
0.00114333
0.00904974
0.00933571
0.00197779
0.0180672
0.0186427
0.00532109
0.0109884
0.00342048
0.0207372
0.0225783
0.0186837
0.0108233
0.0199588
0.0112378
0.0154702
0.0298952
0.0625769
0.00189482
0.094908
0.0102311
0.0784252
0.0283132
0.0585057
0.0810623
0.0730001
0.0128187
0.0517085
-0.00275999
0.0441509
0.0551585
0.031856
0.0380865
0.0117312
0.0467167
0.0135838
-0.0397133
0.0360679
0.0291426
0.0320224
0.054933
0.0028408
-0.0063217
-0.00881036
0.00317651
-0.00620691
0.0111939
0.0138193
0.0250001
0.0024423
0.00778177
0.0114369
0.0108647
0.00780025
0.00677462
0.0122058
0.0166997
0.0181349
0.00399937
0.0170725
0.00562693
0.0173369
0.0247241
0.0313937
0.0254701
-0.0472229
0.0671247
-0.050538
0.0858915
0.0767795
0.0801921
0.0509943
0.00404638
0.0783011
0.066082
0.0444123
0.0392717
-0.0646036
0.0833985
0.0351705
0.0176176
0.00805671
0.0369916
0.0220273
0.0339728
-0.00640617
0.0388854
0.0323162
0.0579743
0.000898885
0.0469281
-0.0264357
0.0425579
0.0117599
-0.0103329
0.0452027
0.0111178
0.018994
-0.0131066
0.0158349
-0.0256874
0.0203789
0.00121889
0.00182259
0.0177899
0.00744476
0.00269061
0.00535282
0.00275215
0.000959417
0.0107389
-0.00587408
0.0141831
0.0165348
0.0102811
0.00692488
0.00901339
0.00946415
0.00372175
0.0136948
0.0214674
0.00918513
0.0160499
0.0141987
0.0176349
-0.00566801
0.0316475
0.00753042
0.0170923
0.0741541
0.0992501
0.0539206
0.0335626
0.110971
0.0425069
0.0396258
0.0287157
0.0399916
0.0706291
0.0674933
0.0236121
0.0440996
0.0404241
0.00955784
0.0280376
0.0357669
0.0226686
0.0169082
0.0128872
0.0199792
0.0357321
0.0236156
0.0103394
0.0376995
0.0488444
-0.00445334
0.0366975
-0.0229731
0.0426499
0.0595315
-0.00674236
0.0325356
-0.010089
0.00604716
-0.0015734
-0.00841605
0.0139577
0.0124125
0.0206699
0.00132444
0.00169964
0.00652178
0.00431212
0.00523512
0.00729084
0.00733189
0.00954641
0.0073703
0.0181012
0.0163197
0.0194476
0.0214619
0.00662178
0.0152002
0.0238271
0.0230962
-0.00586562
0.0240091
0.0263748
-0.0411391
0.0520886
-0.0301232
0.111296
0.0302092
0.0731005
0.108443
0.0890747
0.0763286
0.0826476
0.0263957
0.0458701
0.0648739
-0.0370051
0.0198572
0.0248963
0.00249028
0.0387009
0.0329138
0.00259689
0.0260399
0.0389315
0.0374314
0.0471664
0.0513008
-0.00513869
0.043719
0.0342531
0.0117614
0.045283
-0.0016799
0.021086
-0.0180621
0.0146166
-0.0223178
0.0141028
-3.33641e-05
0.00132303
-0.0014347
0.0335266
0.00192708
0.00076142
0.00601202
0.00533559
0.011632
-0.00537199
0.0131416
0.0110322
0.0075008
-0.00204655
0.0188509
0.0178588
0.00106306
0.0209341
0.0166239
-3.1692e-05
0.0243319
0.00540876
0.0181374
0.0244097
0.0274726
-0.00039371
0.0680855
-0.0138328
0.0497238
0.0670936
0.0191407
0.0576345
0.0742849
0.0432021
0.00865444
0.0882694
0.0146778
0.0647905
0.0439395
0.0412428
0.00398879
0.0432075
-0.0124527
0.0808164
0.0346
-0.00927795
0.0296871
0.02804
0.0300156
0.011684
0.0219934
0.0384658
0.034633
0.0184578
0.0197815
0.0133375
0.0349877
0.0263928
0.0257401
0.0110411
0.0335152
0.036794
-0.00227602
-0.0184744
0.031652
0.0240958
0.0231422
0.0362806
0.0469844
-0.00574479
0.0224978
-0.00740423
-0.00498658
0.00754601
-0.00125599
-0.00853534
0.00914758
0.0241753
0.0100331
0.000533123
0.00171101
0.00619701
0.00670371
0.00686627
0.00674993
-0.00465405
0.0162769
0.0148093
0.0148233
-0.00313365
0.0216389
0.0183425
0.0224681
0.00306103
0.0217776
0.0217114
0.00129401
0.0238105
0.0295144
0.024358
0.0351699
0.0723919
-0.0058404
0.0790088
0.0749604
0.0899233
-0.0353127
0.0840136
0.0896638
0.00785107
0.0590054
0.0493185
0.0508802
0.0135799
0.0306518
-0.0546476
0.0452539
0.0512486
-0.0182083
0.0105641
0.0197341
0.0393431
0.00388238
0.0268901
0.0413379
0.000649583
0.0388374
0.0394165
0.0304878
0.0406005
0.0469711
0.040264
-0.00259452
0.0367729
-0.0287003
0.0271624
0.00458128
0.00260132
-0.0205964
0.0442678
0.0159622
-0.0168031
0.0133296
-0.0176505
0.0111838
0.000977632
0.0019201
-0.00586618
0.00196948
0.00180827
0.00475541
0.00884947
-0.00338574
0.0104528
-0.00189043
0.0186956
0.013453
-0.00614852
0.0214844
0.0159002
-0.00463827
0.0235998
0.0183817
0.00247545
0.0198565
0.0109967
0.0112544
0.0269168
0.00183637
0.028376
-0.00863121
0.0338479
0.050295
-0.0142247
0.0217362
0.0542567
0.105224
0.0166063
0.0608305
0.0753086
0.021009
0.0519703
0.0377221
-0.00279929
0.0981933
0.0293879
0.0310384
0.023264
0.0271791
0.02231
0.0302267
0.0550378
0.0627327
-0.0158311
-0.017209
0.0717319
0.0343667
0.0475194
0.0409634
0.0270832
0.0150429
0.00550685
0.0342369
0.0375735
0.0227299
0.000554952
0.0408004
0.0251831
0.0227404
0.0415401
0.0147597
0.0225908
0.0302722
-0.00458434
-0.017216
0.0224347
-0.0164739
0.0191341
0.0312708
-0.0132746
0.028513
-0.00307538
-0.00568772
0.00792538
-0.00501905
0.00526889
-0.000924928
0.00362834
0.000488294
0.00184775
0.00557477
0.00572907
0.00909274
0.00157496
0.0170843
0.00221486
-0.00172435
0.0157755
0.0179502
0.0040903
-0.00413889
0.0206455
0.0201128
0.0301402
0.0317353
-0.00236767
0.0301279
0.036475
0.026759
0.0733946
0.0470878
0.0635199
0.0174546
0.045259
0.0770418
0.0777466
-0.028377
0.0698936
0.0236828
0.0786169
0.0529947
0.0501291
0.0590815
0.0288353
0.0272356
0.0492155
-0.0449391
0.0308492
0.0479129
-0.0103419
0.0175808
0.0308998
0.00323563
0.0388598
0.0334482
0.0386659
-0.00143354
0.0365918
0.0151293
0.0233621
0.0166895
0.0250004
0.0428919
0.0382168
0.0155304
0.0270633
0.0383869
0.0163477
-0.0222795
0.0169679
0.00548508
-0.00423204
0.0354827
-0.00475987
0.0283574
-0.000948613
-0.0126702
0.0109848
-0.0132466
0.00813135
0.00232006
0.00125574
0.0116086
-0.00618696
0.00214772
0.000540386
0.00544065
0.00655755
0.00781382
0.00836073
0.000397788
0.0172173
0.0207398
0.0167949
0.0252959
-0.00845943
0.0293269
0.0223722
0.00473313
0.0278437
0.0357272
0.0152571
0.0222278
0.0430747
0.0144962
0.0611079
-0.0264851
0.0780302
-0.00478707
0.0712485
0.0614607
0.0702205
0.012803
0.0539943
0.0278667
0.0385371
0.0357468
0.0976541
0.0561658
-0.0080126
0.0626141
0.0434275
0.0144617
0.0459585
0.0443173
0.043821
0.000427622
0.0508934
0.0499219
-0.0193249
-0.0057795
0.0561079
0.0255811
0.0419362
0.0350218
0.0383484
0.000118684
0.0340409
0.0396864
0.00396869
0.0334642
0.0530242
0.0279121
0.016037
0.0086679
0.0303829
0.0480513
0.019302
-0.00454004
0.0190829
-0.00479635
0.0181686
-0.013067
0.0132079
0.0233983
0.017604
0.000106861
-0.00178738
0.0183128
-0.00976507
0.00617561
-0.0024583
0.00385725
-0.000780288
0.0010874
-3.51048e-05
0.0027063
0.00583705
-0.00577768
0.0140736
0.00290979
0.0157728
0.00189325
0.0175879
0.00383768
0.00496498
0.0124325
0.0191627
0.00687373
0.0153015
0.0145939
-0.00182568
0.0248632
0.026689
0.0131762
0.0234935
-0.0136946
0.0369524
0.0161653
0.0276977
0.0590407
0.0436231
0.0377628
0.0260947
0.0474456
0.015921
0.0471189
0.0712672
0.0699487
-0.0283656
0.067366
0.0247208
0.0772387
0.0840165
0.0370828
0.0263684
0.0609458
0.00424328
0.0430476
0.00216482
0.0430872
0.0469928
-0.0316588
0.0334448
0.0475894
0.0187023
-0.0275719
0.00798988
0.0308641
-0.00282414
0.00511935
0.0379284
0.0412255
0.00352213
0.0357105
0.0389719
0.0268144
-0.00448679
0.0389545
0.0217811
0.0324998
0.0508802
0.0475985
0.0140982
0.0351938
0.0130503
-0.0139244
0.00749561
0.00444353
-0.00308364
0.0226172
-0.000646563
0.0199791
-0.00518878
0.00946369
-0.00814661
0.0100578
-0.0111282
0.000430882
0.00283584
0.00103913
0.00729984
-0.00500845
0.0031125
0.00917909
0.00949538
0.00509637
0.00477132
0.011445
0.0199603
0.0236762
0.0151223
0.0177661
0.022792
-0.011806
0.0270747
0.0136904
0.0070571
0.0203322
0.0301123
0.0313378
0.00287775
0.0350142
0.000877013
0.0277327
0.00617633
0.0545617
-0.0299553
0.0766747
0.0662906
-0.00810655
0.0572212
0.0548981
-0.0257268
0.101583
0.0481964
0.0345456
0.0375837
0.0668611
0.0151421
0.0574331
0.0193449
0.0186704
0.0314555
0.0272126
0.0349965
0.00432866
0.0399476
0.048846
0.00992509
0.0380843
0.0449649
-0.011421
0.027314
0.022542
0.0272361
-0.00905728
0.0231837
-0.0156615
0.0601718
0.0192026
0.0535284
0.0457467
0.0321002
0.00481845
0.0350355
0.0323953
0.00356075
0.0363925
0.0434924
0.0256752
0.0264082
0.0179558
0.0309996
0.0546252
0.0123776
-0.00169444
-0.00682019
0.0120097
0.0154745
-0.011029
-0.0121388
0.00792296
0.0178775
0.00546102
-0.000989155
0.000212001
0.0127452
-0.011531
-0.00102768
0.00348196
-0.000782247
0.00248537
0.00115515
0.00482013
0.00475881
0.0103001
-0.00806949
0.0200044
0.0123701
0.00210894
0.0221207
0.00975173
0.00592044
0.00800468
0.0102794
0.00040436
0.0230715
0.0282095
0.0347472
0.00719881
0.023476
0.00409663
0.0282737
0.0360807
0.0369732
0.0355989
0.0481246
0.0341989
0.0451336
0.0450131
0.0227942
0.0185417
0.0399444
0.0110768
0.0451666
0.0626013
0.0454231
0.0873423
-0.0339322
0.0750828
0.00807753
0.0616682
0.0826577
0.0684602
0.051693
0.047063
0.047234
-0.010034
0.0511166
-0.000144049
0.05022
0.0389493
0.0175855
0.0288982
0.016001
0.0413643
-0.0306804
0.021044
-0.00957468
0.00269928
0.0296905
0.0328014
0.0221771
0.0167456
0.0303349
0.0500517
0.0396802
-0.00780145
0.0453362
0.0322811
0.0122962
0.0593754
0.0588778
0.0141729
0.0415469
-0.0106279
0.00715835
-0.00898429
0.00099336
-0.000597498
0.00144144
0.00116141
-0.00252274
0.0147287
0.000690006
-0.00867133
0.011706
0.00612208
-0.00645496
0.00729556
-0.00585268
-0.00486817
0.00413169
0.00105992
0.00291473
0.00629238
0.0086602
0.00202104
0.0108158
0.009691
-0.00885806
0.0218406
0.025732
0.0137729
0.0183671
0.0152096
0.0216632
0.00123662
0.0277581
0.00906765
0.0266525
0.0283622
0.03835
-0.00255118
0.0396848
-0.00141994
0.0394847
0.0115043
0.0248774
0.00222912
0.0472863
-0.0226651
0.0587454
-0.00994732
0.0570708
0.0366147
0.0423508
0.00397406
0.0370211
0.0488308
-0.030821
0.0799265
0.0607766
0.0519089
0.0278142
0.0520997
0.012246
0.0468098
0.039614
0.0478213
0.0427264
-0.000547239
0.0488274
0.0478376
0.0183235
0.0339402
0.0113329
0.0400109
0.0523356
0.002175
0.0270708
-0.0129666
0.0279042
0.0300929
0.013026
0.00646702
-0.0161285
0.00482965
0.0619873
0.0481115
0.0541911
0.0434473
0.0381192
0.00297962
0.043534
0.0352477
0.0255059
0.0227237
0.0374712
0.00274426
0.0401996
-0.00339532
0.00676194
-0.00695803
-0.00825091
0.00600231
0.00809485
-0.00683217
-0.00644237
0.00832134
0.00507897
-0.00818604
-0.0127086
0.0105713
-0.00390543
0.00150881
-0.000371859
-0.00577946
0.00135159
-0.000486994
0.00293445
0.0036949
-0.000409253
0.00872627
-0.00927406
0.0194311
0.0130188
0.0107557
0.0156124
0.0250784
0.0094843
0.00946918
0.00753467
0.00824483
0.0127476
0.00950404
0.0286072
0.0120023
0.0165021
0.0407404
0.0263168
0.0132591
0.0392976
0.00881804
0.0315213
0.0346026
0.0526921
0.0168445
0.043957
0.0171383
0.0415865
-0.0239276
0.0620146
0.0196688
0.0580466
0.00549081
0.0446702
0.0191587
0.0644754
0.011376
0.0538147
0.0676191
-0.0321265
0.0630108
-0.000632269
0.0549775
0.0616223
-0.0159086
0.0582375
0.049319
0.00313371
0.0411165
0.0537066
0.0548549
0.0607027
0.0463786
0.00193687
0.0392256
0.0559288
-0.0229821
0.0251192
0.0411271
0.00393811
0.0129183
-0.00863245
-0.0111543
0.0129974
0.0336647
0.0184107
0.0308003
0.0157009
0.0396542
-0.0011657
0.046073
0.0422566
0.000424381
0.0444716
-0.0101003
0.0464679
0.0493849
0.0414833
0.0599
-0.00821819
0.00306851
-0.00307168
-0.00284163
-0.00379021
-0.00101545
-0.0115791
0.00448405
-0.0105881
0.00451732
-0.00288096
-0.00370096
-0.0104792
0.00380818
-0.00358217
-0.00289359
0.00376877
0.00815992
-0.00600707
0.000670937
0.00102176
0.00186441
0.00230191
0.00865395
0.0185161
0.00154888
-0.00828954
0.0218826
0.0284703
0.0174368
0.0228921
0.0175769
-0.00406433
0.0128863
0.0288106
0.0158337
0.0134792
0.0330907
0.0218115
0.0198226
0.0408889
0.0360913
0.00108522
0.0394228
0.002402
0.0300718
0.0173464
0.0180431
0.00955854
0.0445719
0.0681653
0.0629389
-0.0100342
0.0529161
0.0534905
0.00446202
0.0549771
0.0557548
0.0760444
0.0512944
0.0148798
0.0572809
0.0351414
0.0308245
0.0537893
0.00294827
0.0455571
0.018309
0.0380273
0.0223895
-0.00966613
0.0651179
0.0466175
0.0333554
0.0289583
0.0181576
0.0293293
0.0586745
0.0469691
0.00128415
0.0234337
0.00505268
0.0367466
-0.0132845
0.0159419
-0.00174048
-0.014418
0.00397374
-0.00480828
-0.0157331
0.0516057
0.04754
0.0396728
0.0478348
0.0445658
0.000789874
0.0448822
0.0199189
0.0275798
0.0210366
0.0296494
0.0639666
0.0299432
0.031487
-0.00988894
-0.00838331
0.00380914
0.00437417
-0.0079373
0.00440494
-0.009883
0.00506801
-0.00597741
0.00710024
-0.00219366
-0.00147515
0.00783931
-0.0024665
0.0054282
-0.010182
0.0033393
-0.00976957
-0.00644271
0.0036635
-0.00178935
-0.00166248
-0.000233481
0.00172382
0.00352294
-0.00162784
0.00231232
-0.00504874
0.00771306
0.0240828
0.0125667
0.016683
0.0308662
0.0109138
0.0125736
0.00802001
0.0101531
0.00673066
0.0065634
0.0150526
0.0144919
0.0183273
0.0156046
0.0380416
0.0164985
0.0252175
-0.00930358
0.0466141
0.0429939
0.049146
0.0502775
0.051924
0.0181944
0.0277864
0.0370986
0.0305771
0.0236546
0.0321087
0.0228054
0.026571
0.0296415
0.0123403
0.0448304
0.0414058
0.037766
0.0423672
0.0115894
0.0529299
0.00163169
0.0585537
-0.0134583
0.0462774
0.0321256
0.0232153
0.050046
0.0584078
0.0670028
0.0266449
0.0402304
0.0605385
0.0618002
0.0597733
0.0331655
0.0271061
0.0281677
0.0197271
-0.015447
0.0158408
0.0286418
0.0229319
-0.0012441
-0.00991
0.00650612
-0.00809466
-0.00893894
0.0018762
0.0409247
0.0172044
0.031833
0.0584445
0.000306495
0.0489413
0.0466847
0.000599311
0.0455382
0.0489994
0.0586413
0.0234187
0.0418397
0.0548012
0.0650788
-0.00724846
-0.00520208
-0.0076819
-0.00363515
0.00101277
-0.00937648
0.00810873
-0.00651658
0.00582585
-0.00769569
0.00605092
-0.00203522
-0.00838702
-0.0125688
-0.000452458
0.0025405
0.00473639
-0.00545119
0.000584818
0.000910749
0.00136388
0.0013028
0.00354055
0.00458002
-0.0118707
0.0370363
0.0359344
0.0198063
0.0266974
0.0211881
0.01746
0.0104967
-0.0154636
0.0307849
0.0328863
0.0297727
-0.00613774
0.0323624
0.0418096
-0.00447646
0.048692
0.0221526
0.0282561
0.0292585
0.0226568
0.0162669
0.0373666
0.0519235
0.0600343
0.0552761
0.0569871
0.0508584
0.0601871
0.0695071
0.045267
0.0516869
-0.00659478
0.0626928
0.0383932
0.0229534
0.0425154
-0.031616
0.056198
0.0199644
0.0341609
0.0262391
0.0292227
0.040326
-0.0148993
0.0564236
0.0469077
0.0358396
0.0276787
0.0295285
0.0314693
0.0542691
0.0579497
0.0187585
-0.00473036
0.0122395
0.016949
0.0357114
-0.0101322
0.00706202
-0.00589406
-0.00681464
-0.00294241
-0.00686041
0.0380728
0.00461542
0.0603439
0.0508209
0.0432882
0.00284605
0.0439884
0.000525257
0.0498613
0.0117932
0.047998
-0.00841158
0.0518787
0.014877
0.0410155
0.0107874
0.0555999
0.00293002
-0.0135286
-0.00941413
0.00332157
0.0018918
-0.0111597
0.00206598
-0.00501733
-0.0031724
0.00517139
0.00592556
-0.000627637
-0.000729114
0.00703021
0.000246911
0.0062389
-0.0103643
-0.000575212
-0.0124629
-0.0134397
-0.00192184
0.00125767
9.42562e-05
0.0029824
0.00630917
0.0017377
0.0223466
0.0206663
0.0163157
0.0416042
0.00693376
0.0203518
0.0287849
-0.000700717
0.0187025
0.0102542
0.0217906
0.00978868
0.00578354
0.0280238
0.0532922
0.0390842
0.00596193
0.0369837
0.0128088
0.0369129
0.0421559
-0.0238503
0.0627981
0.0295219
0.0251915
0.036187
0.0196908
0.0377064
0.0318135
0.0266822
0.0143492
0.0378051
0.076378
-0.00103254
0.0724855
0.00927589
0.0380158
0.0634968
0.0139156
0.0526323
0.0553894
0.0632548
-0.0101049
0.0550916
0.0357951
0.0224821
0.0558222
0.0573745
-0.0137369
0.0564326
0.0382587
0.0196824
0.0472354
0.0761003
0.0606711
0.0562673
-0.00232656
0.0618833
0.00683874
0.0114232
-0.0099542
0.00405195
0.0233601
0.0308477
0.00614971
-0.0045711
0.000391971
-0.0087672
0.00221857
-0.00693765
-0.00906689
0.000406639
0.0299214
0.0370149
0.0215898
0.0403586
0.00888458
0.0432468
0.0475424
-0.00382356
0.0488578
0.0628933
0.0410717
0.0681236
0.0528522
0.0302937
0.026578
-0.0133975
-0.00549269
-0.00382753
-0.00861338
-0.0035397
0.000485945
0.00368611
0.00495956
0.00470494
-0.00431268
-0.00573014
0.0059346
-0.00724676
0.0086606
-0.00379914
0.011499
-0.0119358
0.000465635
-0.0151728
-0.0136677
-0.00215484
0.00210988
0.00114877
0.00157717
0.00515078
0.00374326
-0.0170722
0.0405546
0.0455615
0.0257078
0.0433119
0.00247862
0.0269117
0.0218382
0.0161336
0.051491
0.0398838
0.0147635
-0.00380788
0.0443676
0.0470711
0.0343254
0.00135395
0.0365281
0.0334501
0.00967639
0.0257665
0.0386206
0.0673444
0.0583892
0.0577843
0.0653406
0.0661613
0.0386573
0.0399243
0.0269649
0.047633
0.0524582
0.0109641
0.0445236
0.0184292
0.0394847
0.0317457
0.0341846
0.0304184
0.027384
-0.0323796
0.0565567
0.024958
0.0292414
0.0302959
0.0211293
0.0368594
0.0684014
0.033999
0.0434998
0.0599023
-0.0041517
0.0619797
0.0591586
-0.00739257
0.0173508
0.0101244
-0.00809883
0.0301902
-0.00848094
0.00209605
-0.0104086
-0.00864417
-0.00796
-0.0111803
0.0428984
0.0281525
0.0534445
0.0505048
0.0402622
0.0500933
0.031777
0.0179208
0.0209678
0.0429644
0.0631572
0.0382827
0.0311367
0.0306828
0.0232937
0.0583493
-0.00368261
-0.010769
-0.00657603
0.00295254
0.00169082
-0.0108222
0.00172572
-0.00429469
-0.00112633
0.00401029
-0.00233363
0.00859755
0.00548104
4.77256e-05
-0.00380693
0.000287134
0.000261909
0.00625644
0.012091
0.00225512
-0.0126573
-0.00177054
-0.0149632
-0.0103314
-0.00602709
-0.017011
-0.000818804
0.00178074
0.00012365
0.00449786
0.0412791
0.00582328
0.0689126
0.0287705
0.0151894
0.00958457
0.0175495
0.0104322
0.011612
0.00846678
0.00803825
0.0421703
0.0106295
0.0493668
0.0516917
0.0264806
0.0218149
0.0622493
0.0471495
-0.0188704
0.059252
0.0506515
0.0168246
0.0430503
0.0763822
-0.00474217
0.0720555
0.0372115
0.0309732
0.0780072
0.0691366
-0.0102046
0.0591772
0.0113671
0.043045
0.0436495
0.00520626
0.0413739
0.0523127
0.0467636
0.0473963
-0.0088715
0.0377025
0.0636586
-0.00513542
0.0558993
0.0530521
-0.00660554
0.0452159
0.0597709
-0.0238164
0.0593253
-0.0015859
0.0462113
0.0598601
0.0191643
0.0437953
0.035695
0.0247279
0.00146961
0.0122544
0.00455973
-0.00780199
0.00331876
0.0269583
-0.00592097
-0.00684878
-0.00269817
-0.00799448
-0.0131696
0.0358004
-0.00787167
0.0370836
0.0203977
0.0342283
0.0150662
0.0364458
0.0342973
0.00705348
0.0114523
0.0399454
0.044316
0.0531499
-0.00294517
0.0472001
0.00230089
0.0622771
-0.0141234
0.0540998
0.0556015
0.0367388
0.0229187
-0.0155642
-0.0096041
-0.00431022
-0.00770441
0.00102827
0.0128578
-0.00122135
0.0127558
0.00783434
-0.00376208
0.00467557
0.00346119
-0.00248852
-0.00521603
0.00665404
0.00978516
-0.00164056
0.0138546
-0.0174602
-0.0128719
-0.00366567
-0.0202842
-0.0144523
-0.00469208
0.00160856
0.000821647
0.0015541
0.00349617
0.0386997
0.0315274
0.0389442
0.0583843
0.0282258
0.0205018
0.0100657
0.0506008
0.0495787
0.0013466
-0.0285466
0.0825385
0.0733423
0.0354311
0.00745834
0.0407801
0.0561524
-0.00990766
0.0630595
0.0759919
0.0405946
0.0380534
0.0266469
0.0476376
0.0354942
0.0443562
0.0315457
0.0392937
0.0281012
0.0324714
0.0381748
0.0154895
0.0303051
0.00720238
0.0355733
0.0213252
0.0329872
0.0159327
0.0325712
0.0206564
0.028453
0.0246053
0.0146143
0.0562506
0.052573
0.00722962
0.0472391
0.0537903
0.037508
-0.000781049
0.0613389
0.0464245
0.0418392
0.0195222
0.0557571
0.0419865
0.0682998
-0.00739617
0.00688967
0.0151429
-0.00769685
0.0111082
-0.00756177
-0.00333485
0.0199877
-0.0164462
-0.0180793
0.0152729
0.0218115
0.0239075
0.0150516
0.0584429
0.0503823
0.0445863
0.0484838
-0.00403276
0.0496156
0.0504742
0.0505325
0.0499983
-0.0130313
0.0687432
0.0440307
0.068471
-0.00303572
-0.0127612
-0.0130124
0.00165297
-0.00446712
0.00203058
-0.0092147
0.00196129
0.00190322
0.0114985
0.00436645
0.00235758
0.013296
0.000194842
0.0105943
0.000590029
0.000525283
-0.000307292
0.00837284
-0.000376321
0.00866328
0.0109154
0.00584913
-0.0137969
-0.00643058
-0.0198821
-0.0188997
-0.00264195
-0.0205252
0.00121249
0.00422928
-0.0225943
0.0553776
0.00305435
0.0360039
0.0548902
0.00359373
0.0314438
0.00143394
0.0190148
0.0114858
-0.0185114
0.0701016
0.0433379
0.0611208
0.0415156
0.0335387
0.0789509
-0.0102985
0.0689378
0.0551109
0.0172301
0.060508
0.0592337
0.0670597
-0.00792324
0.057132
0.068757
-0.0188435
0.0649653
0.0690903
0.0714071
0.0606478
0.0418851
0.0388973
0.0109192
0.0258426
0.0516091
0.0506911
0.0449666
0.0307757
-0.00704847
0.0656787
-0.00964642
0.0649062
0.0395375
0.0275953
0.028017
0.0518957
0.0111068
0.0672714
0.0157184
0.0411329
0.0587772
0.0266352
0.0434083
-0.00715851
-0.00207334
-0.00184996
-0.00217064
0.0170387
0.00846658
-0.0134635
-0.00132378
0.0216565
-0.00661706
-0.0118941
-0.0114954
-0.00967404
0.00220634
0.0206443
0.0274744
-0.0113598
0.0274371
0.0266509
0.0334201
0.0174109
0.0340935
0.0633185
0.0156779
0.0340769
0.0669483
-0.0187208
0.0714761
-0.00927819
0.0612165
-0.0138115
0.0651772
0.0607337
0.00958382
0.033016
0.0368227
0.00267343
-0.0159857
-0.0105491
-0.00643012
-0.000520558
0.00477586
0.0164813
0.0179276
0.00345137
0.013504
0.0119498
0.00268065
-0.00180123
0.00309419
-0.00312694
0.00444787
-0.00445764
0.00493842
-0.00113359
0.01102
-0.00783237
0.0157469
-0.0206835
-0.0164862
-0.00499726
-0.0165902
-0.0201964
-0.0165709
-0.0061022
0.000262259
-0.000749501
0.00511131
0.0375311
-0.00840459
0.0442006
0.046131
0.0739967
-5.86661e-05
0.0311097
0.0185643
0.0108338
0.079057
0.0571323
0.00527987
-0.0472233
0.0830249
0.101931
-0.0206333
0.0628575
-0.0162327
0.0739073
0.0431594
0.0284381
0.0325022
0.031532
0.0370508
0.0271954
0.031652
0.0403141
0.0300057
0.0254749
0.0406852
0.0256508
0.0450726
0.0509821
0.0221198
0.0288045
0.0341123
0.010868
0.0325172
0.0135019
0.0265977
0.0403874
0.0261284
0.0276982
0.0226404
0.0296593
0.0162305
0.030707
0.00421285
0.0280929
0.060212
0.051718
0.068947
0.0589325
-0.00258904
0.055633
0.0637653
0.0661469
0.0694578
0.0508008
-0.0308212
0.0760326
0.00714285
-0.0108633
0.00344954
0.0158742
-0.00283322
0.0105465
-0.0119952
-0.00415394
0.0112204
-0.0185049
-0.00110239
-0.0130803
0.0259576
0.0131087
0.0156711
0.0110881
0.0173492
0.0611285
0.0692977
0.0465556
-0.00890908
0.0783223
0.0647338
0.0485317
0.0467376
0.0197822
0.0207001
0.0413835
0.0576624
0.0589792
-0.00351458
-0.0115969
-0.0132107
0.00135756
-0.00575513
0.00096468
0.00152752
0.0090597
-0.000352155
0.00777689
0.0121544
0.0108577
0.0100132
0.0191975
0.0242907
0.0152263
0.000801446
0.000753723
0.00756821
-0.001817
0.00762961
0.00492331
0.00920327
0.00875384
-0.0107092
-0.0116174
-0.0231764
-0.018483
0.00187249
-0.0213214
0.000207165
-0.0182193
0.000981279
0.00276059
0.0024493
0.0962552
0.0159658
0.0272259
0.034972
0.0097529
0.0601202
0.0132067
0.006233
0.023342
-0.00165669
0.020035
0.0089666
0.0338688
0.109382
0.064231
0.0423466
0.0224827
0.033804
0.0421101
0.0732577
0.0657378
0.0661167
0.0757959
0.067534
0.0567218
-0.0137105
0.0557224
0.0687245
0.0625175
0.0404169
0.0037004
0.0306604
0.0319515
0.0226503
0.0191778
0.052092
0.0476524
0.0552382
0.00927545
0.0530041
-0.0128823
0.066886
0.0445498
0.026847
0.0327988
0.0282067
0.0500851
0.00720635
0.0467957
0.0182129
0.0365657
0.0113951
0.0597479
0.0637548
0.0310218
0.0461061
-0.00644486
-0.00614667
0.0076494
-0.00534749
0.00980965
0.00636737
0.00401524
0.00707196
0.0033692
-0.0152595
-0.012173
0.0213504
-0.00328733
-0.0173442
-0.0178143
0.0405019
0.0277305
-0.00166278
0.0199855
-0.00693171
0.0695746
0.0235298
0.0472326
0.0718479
0.115072
-0.0662503
0.134514
0.058266
-0.00827202
0.0795212
-0.0314148
0.0743895
0.0276906
0.0533187
0.00405537
-0.0151163
-0.00996211
-0.00220252
0.00501179
0.026278
0.021554
0.0205638
0.00356667
0.00184354
0.0266107
0.0175826
0.00349085
-0.00112443
0.00248475
0.00401234
-0.00263842
0.00304836
0.00632647
0.00240906
0.0123774
-0.00880395
0.0193994
0.00252065
-0.015585
-0.0153507
-0.00881078
-0.0138339
-0.0193987
-0.0156655
0.00510496
-0.025006
0.000402343
0.0117323
0.00304071
0.0773094
0.0187377
0.0500934
0.0322942
0.0685589
0.0903006
-0.00248332
0.0250991
0.0167138
0.0900159
0.0200885
-0.061881
0.129447
0.0581578
-0.0182138
0.0624872
0.0613367
0.00333181
0.0642105
0.0712441
0.0613497
0.0167311
0.0518765
0.0171611