/*--------------------------------*- C++ -*----------------------------------*\
| =========                 |                                                 |
| \\      /  F ield         | OpenFOAM: The Open Source CFD Toolbox           |
|  \\    /   O peration     | Version:  v2012                                 |
|   \\  /    A nd           | Website:  www.openfoam.com                      |
|    \\/     M anipulation  |                                                 |
\*---------------------------------------------------------------------------*/
FoamFile
{
    version     2.0;
    format      ascii;
    class       pointVectorField;
    location    "0.23";
    object      pointDisplacement;
}
// * * * * * * * * * * * * * * * * * * * * * * * * * * * * * * * * * * * * * //

dimensions      [0 1 0 0 0 0 0];


internalField   nonuniform List<vector> 
14482
(
(0 0 0)
(0 0 0)
(0 0 0)
(0 0 0)
(0 0 0)
(0 0 0)
(0 0 0)
(0 0 0)
(0 0 0)
(0 0 0)
(0 0 0)
(0 0 0)
(0 0 0)
(0 0 0)
(0 0 0)
(0 0 0)
(0 0 0)
(0 0 0)
(0 0 0)
(0 0 0)
(0 0 0)
(0 0 0)
(0 0 0)
(0 0 0)
(0 0 0)
(0 0 0)
(0 0 0)
(0 0 0)
(0 0 0)
(0 0 0)
(0 0 0)
(0 0 0)
(0 0 0)
(0 0 0)
(0 0 0)
(0 0 0)
(0 0 0)
(0 0 0)
(0 0 0)
(0 0 0)
(0 0 0)
(0 0 0)
(0 0 0)
(0 0 0)
(0 0 0)
(0 0 0)
(0 0 0)
(0 0 0)
(0 0 0)
(0 0 0)
(0 0 0)
(0 0 0)
(0 0 0)
(0 0 0)
(0 0 0)
(0 0 0)
(0 0 0)
(0 0 0)
(0 0 0)
(0 0 0)
(0 0 0)
(0 0 0)
(0 0 0)
(0 0 0)
(0 0 0)
(0 0 0)
(0 0 0)
(0 0 0)
(0 0 0)
(0 0 0)
(0 0 0)
(0 0 0)
(0 0 0)
(0 0 0)
(0 0 0)
(0 0 0)
(0 0 0)
(0 0 0)
(0 0 0)
(0 0 0)
(0 0 0)
(0 0 0)
(0 0 0)
(0.0317451 -0.121921 0)
(0.0318824 -0.121858 0)
(0.0320302 -0.12179 0)
(0.0321894 -0.121716 0)
(0.0323609 -0.121637 0)
(0.0325455 -0.121552 0)
(0.0327444 -0.12146 0)
(0.0329585 -0.121361 0)
(0.033189 -0.121254 0)
(0.0334372 -0.12114 0)
(0.0337043 -0.121016 0)
(0.0339919 -0.120883 0)
(0.0343015 -0.12074 0)
(0.0345925 -0.120518 0)
(0.0349016 -0.120272 0)
(0.0352342 -0.120008 0)
(0.0355647 -0.119693 0)
(0.0359133 -0.119346 0)
(0.0362649 -0.118951 0)
(0.0366302 -0.118515 0)
(0.0369966 -0.118025 0)
(0.037367 -0.117482 0)
(0.0377411 -0.116883 0)
(0.0381165 -0.116223 0)
(0.038492 -0.115499 0)
(0.0388618 -0.114704 0)
(0.0392289 -0.113838 0)
(0.0395892 -0.112894 0)
(0.0399422 -0.111868 0)
(0.040285 -0.110757 0)
(0.0406156 -0.109554 0)
(0.0409328 -0.108254 0)
(0.0412345 -0.106852 0)
(0.0415182 -0.105342 0)
(0.0417814 -0.103719 0)
(0.0420219 -0.101975 0)
(0.0422373 -0.100104 0)
(0.042425 -0.0980989 0)
(0.0425819 -0.0959528 0)
(0.042705 -0.0936583 0)
(0.0427909 -0.0912076 0)
(0.0428363 -0.0885928 0)
(0.0428375 -0.085806 0)
(0.0427905 -0.0828391 0)
(0.0426912 -0.0796839 0)
(0.0425356 -0.0763323 0)
(0.042319 -0.0727761 0)
(0.0420367 -0.0690073 0)
(0.0416843 -0.0650184 0)
(0.0412566 -0.0608018 0)
(0.0407488 -0.0563504 0)
(0.040156 -0.0516582 0)
(0.039473 -0.0467186 0)
(0.0386952 -0.0415272 0)
(0.0378177 -0.0360796 0)
(0.0368361 -0.0303726 0)
(0.035746 -0.0244038 0)
(0.0345439 -0.0181736 0)
(0.0332261 -0.0116814 0)
(0.0317899 -0.00492995 0)
(0.0302332 0.00207704 0)
(0.0285545 0.00933402 0)
(0.0267533 0.016834 0)
(0.0248299 0.0245673 0)
(0.0227854 0.0325237 0)
(0.0206222 0.0406897 0)
(0.0183435 0.0490507 0)
(0.0159535 0.057591 0)
(0.0134579 0.0662912 0)
(0.0108627 0.0751327 0)
(0.00817536 0.0840939 0)
(0.0054039 0.0931524 0)
(0.00255744 0.102285 0)
(-0.00035467 0.111467 0)
(-0.00332192 0.120673 0)
(-0.00633403 0.12988 0)
(-0.00937989 0.139061 0)
(-0.0124488 0.148192 0)
(-0.0155297 0.157248 0)
(-0.0186115 0.166206 0)
(-0.0216839 0.175042 0)
(-0.0247367 0.183736 0)
(-0.0277602 0.192268 0)
(-0.0307452 0.200618 0)
(-0.0336833 0.208771 0)
(-0.0365668 0.216712 0)
(-0.0393888 0.224427 0)
(-0.0421428 0.231904 0)
(-0.0448237 0.239137 0)
(-0.0474266 0.246116 0)
(-0.0499478 0.252836 0)
(-0.0523841 0.259294 0)
(-0.0547332 0.265488 0)
(-0.0569933 0.271418 0)
(-0.0591634 0.277084 0)
(-0.061243 0.282488 0)
(-0.0632323 0.287636 0)
(-0.0651316 0.292529 0)
(-0.066942 0.297175 0)
(-0.068665 0.30158 0)
(-0.0703022 0.30575 0)
(-0.0718557 0.309694 0)
(-0.0733278 0.313418 0)
(-0.0747208 0.316931 0)
(-0.0760374 0.320241 0)
(-0.0772804 0.323358 0)
(-0.0784525 0.326289 0)
(-0.0795568 0.329044 0)
(-0.0805961 0.331629 0)
(-0.0815732 0.334055 0)
(-0.0824911 0.336329 0)
(-0.0833528 0.338459 0)
(-0.0841609 0.340453 0)
(-0.0849185 0.342319 0)
(-0.0856281 0.344064 0)
(-0.0862922 0.345694 0)
(-0.0869136 0.347218 0)
(-0.0874946 0.34864 0)
(-0.0880374 0.349967 0)
(-0.0885445 0.351205 0)
(-0.089018 0.352359 0)
(-0.0894597 0.353435 0)
(-0.089872 0.354439 0)
(-0.0902563 0.355373 0)
(-0.0906145 0.356243 0)
(-0.0909483 0.357053 0)
(-0.0912595 0.357808 0)
(-0.0915492 0.35851 0)
(-0.0918189 0.359163 0)
(-0.0920699 0.359771 0)
(-0.0923037 0.360336 0)
(-0.0925211 0.360862 0)
(-0.0927233 0.36135 0)
(-0.0929114 0.361805 0)
(-0.0930863 0.362227 0)
(-0.0932491 0.36262 0)
(-0.0934003 0.362985 0)
(-0.0935409 0.363323 0)
(-0.0936715 0.363638 0)
(-0.093793 0.363931 0)
(-0.0939058 0.364203 0)
(-0.0940106 0.364455 0)
(-0.0941081 0.36469 0)
(-0.0941985 0.364908 0)
(-0.0942825 0.36511 0)
(-0.0943606 0.365298 0)
(-0.094433 0.365472 0)
(-0.0945004 0.365634 0)
(-0.0945629 0.365785 0)
(-0.094621 0.365924 0)
(-0.0947673 0.365886 0)
(-0.0948967 0.365852 0)
(-0.0950151 0.365821 0)
(-0.0951268 0.365792 0)
(-0.0952354 0.365764 0)
(-0.0953441 0.365736 0)
(-0.0954558 0.365707 0)
(-0.0955742 0.365676 0)
(-0.0957036 0.365642 0)
(-0.0958499 0.365604 0)
(-0.0958325 0.365454 0)
(-0.0958138 0.365292 0)
(-0.0957935 0.365118 0)
(-0.0957718 0.36493 0)
(-0.0957483 0.364728 0)
(-0.0957231 0.364511 0)
(-0.0956959 0.364277 0)
(-0.0956664 0.364024 0)
(-0.0956349 0.363753 0)
(-0.0956008 0.36346 0)
(-0.0955641 0.363146 0)
(-0.0955246 0.362807 0)
(-0.095482 0.362443 0)
(-0.0954362 0.36205 0)
(-0.0953866 0.361628 0)
(-0.0953335 0.361174 0)
(-0.0952761 0.360686 0)
(-0.0952144 0.360161 0)
(-0.0951479 0.359596 0)
(-0.0950761 0.358988 0)
(-0.094999 0.358335 0)
(-0.094916 0.357634 0)
(-0.0948265 0.356879 0)
(-0.09473 0.356069 0)
(-0.0946263 0.355198 0)
(-0.0945147 0.354264 0)
(-0.0943946 0.353261 0)
(-0.0942652 0.352184 0)
(-0.0941261 0.351029 0)
(-0.0939763 0.34979 0)
(-0.0938153 0.348462 0)
(-0.093642 0.347039 0)
(-0.0934557 0.345514 0)
(-0.0932553 0.343881 0)
(-0.09304 0.342134 0)
(-0.0928086 0.340265 0)
(-0.09256 0.338266 0)
(-0.0922931 0.336132 0)
(-0.0920064 0.333851 0)
(-0.0916989 0.331419 0)
(-0.0913689 0.328824 0)
(-0.0910152 0.32606 0)
(-0.0906359 0.323117 0)
(-0.0902298 0.319987 0)
(-0.089795 0.316659 0)
(-0.08933 0.313127 0)
(-0.0888328 0.309381 0)
(-0.0883016 0.305411 0)
(-0.0877348 0.301211 0)
(-0.0871303 0.296772 0)
(-0.0864864 0.292086 0)
(-0.0858011 0.287147 0)
(-0.0850727 0.281949 0)
(-0.0842991 0.276485 0)
(-0.0834789 0.270753 0)
(-0.0826104 0.264748 0)
(-0.0816917 0.258469 0)
(-0.0807218 0.251916 0)
(-0.0796991 0.24509 0)
(-0.0786227 0.237993 0)
(-0.0774916 0.230631 0)
(-0.076305 0.22301 0)
(-0.0750624 0.215138 0)
(-0.0737636 0.207027 0)
(-0.0724085 0.198688 0)
(-0.0709975 0.190138 0)
(-0.0695311 0.181392 0)
(-0.0680099 0.172469 0)
(-0.0664351 0.16339 0)
(-0.0648079 0.154177 0)
(-0.06313 0.144854 0)
(-0.0614031 0.135446 0)
(-0.0596292 0.125977 0)
(-0.057811 0.116477 0)
(-0.0559506 0.10697 0)
(-0.0540512 0.0974858 0)
(-0.0521154 0.0880492 0)
(-0.0501468 0.0786884 0)
(-0.0481486 0.0694286 0)
(-0.0461245 0.0602947 0)
(-0.0440783 0.0513103 0)
(-0.042014 0.0424977 0)
(-0.0399356 0.0338763 0)
(-0.0378473 0.0254658 0)
(-0.0357534 0.0172817 0)
(-0.0336581 0.00933856 0)
(-0.0315658 0.00164925 0)
(-0.0294807 -0.00577685 0)
(-0.0274071 -0.012931 0)
(-0.0253489 -0.0198074 0)
(-0.0233101 -0.026402 0)
(-0.0212945 -0.0327125 0)
(-0.0193056 -0.0387378 0)
(-0.0173464 -0.0444803 0)
(-0.0154201 -0.0499413 0)
(-0.0135295 -0.0551252 0)
(-0.0116767 -0.0600367 0)
(-0.00986403 -0.0646821 0)
(-0.0080932 -0.0690676 0)
(-0.00636566 -0.0732014 0)
(-0.00468263 -0.0770912 0)
(-0.00304501 -0.0807455 0)
(-0.00145349 -0.0841733 0)
(9.17411e-05 -0.0873835 0)
(0.00159039 -0.0903855 0)
(0.00304253 -0.0931884 0)
(0.00444837 -0.0958015 0)
(0.00580849 -0.0982339 0)
(0.00712328 -0.100494 0)
(0.00839344 -0.102592 0)
(0.00962 -0.104535 0)
(0.0108036 -0.106332 0)
(0.0119451 -0.107991 0)
(0.0130456 -0.109519 0)
(0.0141062 -0.110925 0)
(0.0151278 -0.112214 0)
(0.0161117 -0.113393 0)
(0.0170587 -0.11447 0)
(0.0179694 -0.11545 0)
(0.0188449 -0.116339 0)
(0.0196863 -0.117143 0)
(0.0204945 -0.117865 0)
(0.0212693 -0.118514 0)
(0.0220124 -0.119091 0)
(0.0227227 -0.119604 0)
(0.0234037 -0.120054 0)
(0.0240534 -0.120447 0)
(0.0246723 -0.120788 0)
(0.0252605 -0.121081 0)
(0.0258192 -0.12133 0)
(0.0263507 -0.121532 0)
(0.0268502 -0.121706 0)
(0.0273237 -0.121838 0)
(0.027766 -0.121952 0)
(0.0281853 -0.122021 0)
(0.028575 -0.122085 0)
(0.0289375 -0.122137 0)
(0.0292775 -0.122111 0)
(0.0295933 -0.122087 0)
(0.0298868 -0.122064 0)
(0.0301594 -0.122043 0)
(0.0304126 -0.122024 0)
(0.0306477 -0.122006 0)
(0.0308661 -0.121989 0)
(0.0310689 -0.121973 0)
(0.0312572 -0.121959 0)
(0.0314321 -0.121945 0)
(0.0315944 -0.121933 0)
(-0.0017772 0.0487926 0)
(-0.00282747 0.0554827 0)
(-0.00269329 0.0521332 0)
(-0.00413679 0.0558807 0)
(-0.00321823 0.0501292 0)
(-0.00303239 0.0515885 0)
(-0.00626418 0.0550775 0)
(-0.00592085 0.0547485 0)
(-0.00723236 0.0609397 0)
(-4.04959e-05 0.0310206 0)
(0.000848838 0.0292714 0)
(4.35038e-06 0.0338489 0)
(-0.00133865 0.0747296 0)
(-0.000838901 0.0768812 0)
(-0.00342771 0.0873101 0)
(0.000340636 0.0380772 0)
(0.00119818 0.03811 0)
(2.35902e-05 0.0419984 0)
(-0.00790242 0.080714 0)
(-0.00768597 0.0808485 0)
(-0.0083725 0.0829261 0)
(-0.00698809 0.07578 0)
(-0.00649308 0.0754078 0)
(-0.00741076 0.0782541 0)
(-0.0120788 0.089199 0)
(-0.0145412 0.100679 0)
(-0.0138356 0.0959293 0)
(-0.00265012 0.0365445 0)
(-0.0032583 0.0406536 0)
(-0.0030675 0.0380635 0)
(0.00188641 0.0275888 0)
(0.00268599 0.0288516 0)
(0.00138837 0.0331374 0)
(0.00104523 0.0654661 0)
(0.00116076 0.0707412 0)
(-0.00717931 0.0959111 0)
(-0.00553052 0.0862412 0)
(-0.00525554 0.0884307 0)
(0.00295434 0.0378902 0)
(0.00459765 0.0317177 0)
(0.00380023 0.0381296 0)
(-0.00844813 0.0837977 0)
(-0.00902347 0.0856325 0)
(-0.00909766 0.0855843 0)
(-0.0106918 0.0887357 0)
(-0.0117189 0.0938395 0)
(-0.0120014 0.0940125 0)
(-0.00646366 0.0649694 0)
(-0.00677527 0.0644573 0)
(-0.00561305 0.0590157 0)
(-0.00154512 0.0182016 0)
(-0.00164572 0.0180424 0)
(-0.00134268 0.0162076 0)
(0.00115285 0.0144766 0)
(0.000692401 0.0173269 0)
(0.000668296 0.0145012 0)
(0.000217664 0.0177615 0)
(0.00232688 0.0131419 0)
(0.00246588 0.0100796 0)
(0.0028564 0.0108791 0)
(0.00775495 0.0390263 0)
(0.00649058 0.040856 0)
(0.00789944 0.031961 0)
(0.00243941 0.0794295 0)
(0.000145185 0.0870118 0)
(0.00255352 0.0739671 0)
(-0.0177966 0.146873 0)
(-0.0169387 0.141089 0)
(-0.0149165 0.133842 0)
(0.00417684 0.00839126 0)
(0.00506173 0.00569369 0)
(0.00450837 0.0108048 0)
(0.0112477 -0.00151635 0)
(0.012077 0.000286228 0)
(0.0107738 0.00432656 0)
(-0.00897474 0.0846861 0)
(-0.00877758 0.0846534 0)
(-0.0087662 0.0837881 0)
(-0.00803889 0.0774361 0)
(-0.00831806 0.0785037 0)
(-0.00839709 0.0792899 0)
(-0.0179903 0.12196 0)
(-0.0158926 0.113502 0)
(-0.0188682 0.126305 0)
(-0.0352314 0.1916 0)
(-0.0302335 0.172858 0)
(-0.0344121 0.189352 0)
(-0.0233014 0.138823 0)
(-0.0232281 0.139747 0)
(-0.0260801 0.150861 0)
(-0.0155526 0.0919729 0)
(-0.0141994 0.0875198 0)
(-0.0163838 0.0971975 0)
(-0.0108853 0.0750225 0)
(-0.0110828 0.0740578 0)
(-0.00979735 0.068801 0)
(-0.00349231 0.0340366 0)
(-0.00310554 0.0329028 0)
(-0.0038125 0.0369083 0)
(-0.000233532 0.0184183 0)
(-0.000698485 0.0192738 0)
(-0.000286539 0.0162547 0)
(0.00111823 0.00732458 0)
(0.00089666 0.0089126 0)
(0.000870218 0.00734542 0)
(0.00245872 0.00610034 0)
(0.00205603 0.00747876 0)
(0.00211958 0.00538701 0)
(0.00358192 0.000126809 0)
(0.00306188 0.00202946 0)
(0.00301636 -0.000424263 0)
(0.00890077 0.0472935 0)
(0.0124632 0.0345338 0)
(0.0103818 0.0485445 0)
(-0.0155355 0.144337 0)
(-0.0118741 0.13077 0)
(-0.0149014 0.144364 0)
(0.00725471 0.0613658 0)
(0.00483605 0.0758558 0)
(0.00448673 0.0731895 0)
(-0.0142745 0.133527 0)
(-0.0117369 0.125233 0)
(-0.0153162 0.140863 0)
(-0.0137171 0.119077 0)
(-0.0163664 0.130663 0)
(-0.0140192 0.118217 0)
(0.0113661 -0.0197147 0)
(0.0101822 -0.018385 0)
(0.0113252 -0.0223133 0)
(0.018282 -0.0298541 0)
(0.0203185 -0.0291636 0)
(0.0184381 -0.0233857 0)
(-0.00989487 0.0924089 0)
(-0.010969 0.0978955 0)
(-0.0100486 0.0923381 0)
(-0.0169552 0.131874 0)
(-0.0194825 0.144023 0)
(-0.017104 0.120691 0)
(-0.0189262 0.12913 0)
(-0.0205597 0.135991 0)
(-0.0445269 0.226646 0)
(-0.0380855 0.204613 0)
(-0.0412659 0.216277 0)
(-0.0232749 0.135213 0)
(-0.0231587 0.136624 0)
(-0.0256893 0.146072 0)
(-0.0159962 0.0984748 0)
(-0.0184652 0.110247 0)
(-0.0177356 0.10472 0)
(-0.00956463 0.0563291 0)
(-0.0100307 0.0562007 0)
(-0.00814912 0.0482043 0)
(-0.00281795 0.025163 0)
(-0.0025832 0.0244349 0)
(-0.00300982 0.0270932 0)
(-0.000845815 0.0124189 0)
(-0.000874467 0.0119048 0)
(-0.000756339 0.0113729 0)
(-0.000101308 0.0107239 0)
(7.44407e-05 0.0111612 0)
(-0.000144421 0.0123101 0)
(-0.000346644 0.0141482 0)
(-5.66298e-05 0.0136586 0)
(0.00128686 0.0102943 0)
(0.00109632 0.0124879 0)
(0.000890303 0.0111902 0)
(0.00124235 0.00159509 0)
(0.00152337 0.00240069 0)
(0.00126575 0.00241215 0)
(0.00112986 0.00917639 0)
(0.0133686 0.037458 0)
(0.0111747 0.0511275 0)
(0.0187916 0.0131969 0)
(0.016449 0.0252785 0)
(0.0171985 0.0131218 0)
(-0.017972 0.160048 0)
(-0.0165755 0.153896 0)
(-0.0136681 0.144494 0)
(-0.0074702 0.129622 0)
(-0.00460075 0.120221 0)
(-0.00743305 0.130554 0)
(-0.0188009 0.158058 0)
(-0.019219 0.144521 0)
(-0.0233893 0.162862 0)
(-0.0219902 0.155697 0)
(0.0176333 -0.0481238 0)
(0.0157599 -0.0451139 0)
(0.0165162 -0.049991 0)
(0.0153504 -0.0265392 0)
(0.0150807 -0.0304978 0)
(0.016782 -0.0320852 0)
(0.0184262 -0.0439624 0)
(0.0204578 -0.0492235 0)
(0.0204508 -0.0438221 0)
(-0.0213276 0.146214 0)
(-0.0185893 0.13341 0)
(-0.0178928 0.131328 0)
(-0.0090002 0.0847569 0)
(-0.010068 0.0909696 0)
(-0.00970052 0.0885416 0)
(-0.023814 0.158249 0)
(-0.0256107 0.166949 0)
(-0.0283703 0.176785 0)
(-0.00946131 0.0862736 0)
(-0.00992022 0.0878513 0)
(-0.0101114 0.0889378 0)
(-0.0162208 0.117618 0)
(-0.0144795 0.10885 0)
(-0.0164186 0.118435 0)
(-0.0451526 0.227883 0)
(-0.0492022 0.240549 0)
(-0.0448167 0.225885 0)
(-0.0403438 0.201396 0)
(-0.0413426 0.201844 0)
(-0.0369363 0.18725 0)
(-0.0281621 0.137267 0)
(-0.0286869 0.14322 0)
(-0.030587 0.14868 0)
(-0.0164375 0.0941645 0)
(-0.0184253 0.101389 0)
(-0.0160673 0.0903787 0)
(-0.0181489 0.104636 0)
(-0.0173901 0.0997496 0)
(-0.00902222 0.0556474 0)
(-0.0106388 0.0630296 0)
(-0.00477185 0.031262 0)
(-0.00387383 0.0263539 0)
(-0.00403705 0.0280165 0)
(-0.000751235 0.0106994 0)
(-0.000635309 0.010459 0)
(0.000349434 0.0107431 0)
(0.000242643 0.00909021 0)
(-0.000608918 0.0117242 0)
(-0.000457549 0.0104063 0)
(-0.00049514 0.0120431 0)
(0.000900475 0.0058417 0)
(0.000971152 0.00469283 0)
(0.00117414 0.00551715 0)
(0.00262966 0.00148814 0)
(0.00159196 0.00143099 0)
(0.00112687 0.00398465 0)
(0.000893882 0.002902 0)
(0.0011097 0.00282781 0)
(0.00404391 -0.0125064 0)
(0.00350892 -0.0131708 0)
(0.00452309 -0.014682 0)
(0.0169802 0.0304341 0)
(0.0140542 0.0414231 0)
(0.0150909 0.0431653 0)
(0.0175451 0.0330133 0)
(0.0263159 -0.0270542 0)
(0.0237376 -0.0224434 0)
(0.0249303 -0.0335363 0)
(-0.0214463 0.171389 0)
(-0.0209025 0.170355 0)
(-0.0232357 0.177703 0)
(-0.0183875 0.158742 0)
(-0.014523 0.152002 0)
(-0.0110298 0.140164 0)
(-0.0122947 0.145393 0)
(-0.00279208 0.114889 0)
(-0.0019103 0.110649 0)
(-0.0247374 0.178853 0)
(-0.028375 0.190652 0)
(-0.0241115 0.175501 0)
(-0.0375418 0.218393 0)
(-0.0363123 0.215066 0)
(-0.0406006 0.227507 0)
(-0.0273811 0.179698 0)
(-0.0285078 0.182707 0)
(-0.0336655 0.201427 0)
(-0.0341606 0.202488 0)
(-0.0303496 0.18854 0)
(0.00553747 -0.0126907 0)
(0.00536021 -0.00993049 0)
(0.00483446 -0.0110811 0)
(0.0118051 -0.0299225 0)
(0.0113156 -0.0330915 0)
(0.0129236 -0.0367754 0)
(0.0136535 -0.0337587 0)
(0.0150913 -0.0350582 0)
(0.0140986 -0.0311328 0)
(0.0173238 -0.0376524 0)
(0.0161677 -0.0350072 0)
(0.0164489 -0.0393015 0)
(-0.0172107 0.129375 0)
(-0.0149601 0.119842 0)
(-0.0182118 0.135218 0)
(-0.0143777 0.112773 0)
(-0.0155136 0.118511 0)
(-0.0176981 0.128162 0)
(-0.0107699 0.094655 0)
(-0.032675 0.192734 0)
(-0.028443 0.175821 0)
(-0.0106259 0.088776 0)
(-0.00870685 0.0789465 0)
(-0.0102668 0.0866865 0)
(-0.0155174 0.113748 0)
(-0.0187443 0.129067 0)
(-0.0214293 0.140641 0)
(-0.0181741 0.126623 0)
(-0.0442484 0.223031 0)
(-0.0395726 0.207524 0)
(-0.033253 0.180191 0)
(-0.036619 0.193542 0)
(-0.0379437 0.197075 0)
(-0.0716945 0.271585 0)
(-0.0708823 0.263683 0)
(-0.0686248 0.265194 0)
(-0.0331997 0.163666 0)
(-0.0338298 0.161085 0)
(-0.0307968 0.153045 0)
(-0.013783 0.0746945 0)
(-0.0154146 0.0797946 0)
(-0.0139441 0.0726678 0)
(-0.00563107 0.0345454 0)
(-0.00430308 0.027857 0)
(-0.00848604 0.045722 0)
(-0.00783253 0.0439607 0)
(-0.00925939 0.0507154 0)
(-0.00124405 0.0111475 0)
(-0.00113261 0.01072 0)
(-0.00133564 0.0120243 0)
(-0.002 0.0158601 0)
(-0.00235818 0.0178189 0)
(-0.00203442 0.0156956 0)
(-0.00045104 0.00745284 0)
(-0.000457069 0.00807948 0)
(-0.000528265 0.00816172 0)
(0.000483532 0.0124689 0)
(0.00062903 0.0100832 0)
(2.71753e-05 0.00892121 0)
(-0.000182995 0.00962893 0)
(-8.44827e-05 0.00779176 0)
(4.99081e-05 0.00665407 0)
(0.000185443 0.00730342 0)
(0.000645718 0.00497473 0)
(0.000703643 0.00652591 0)
(0.000547085 0.00581351 0)
(0.00100254 -0.000936796 0)
(0.00138005 -0.00114556 0)
(0.00107677 -0.000453282 0)
(0.00137891 0.00334661 0)
(0.00148262 0.00488423 0)
(0.00178702 -1.5001e-05 0)
(0.00142453 0.000219935 0)
(0.00152564 -0.000609616 0)
(0.000815563 0.00360447 0)
(0.000797705 0.00455796 0)
(0.000638374 0.00374364 0)
(0.00148209 -0.00564775 0)
(0.00173832 -0.0046443 0)
(0.00087356 -0.00348711 0)
(0.00473524 0.0906171 0)
(0.00704039 0.0823441 0)
(0.00507194 0.0906096 0)
(0.0120775 0.0611614 0)
(0.0144762 0.0503928 0)
(0.0138633 0.056158 0)
(0.0228354 -0.00478959 0)
(0.0245413 -0.0161124 0)
(0.0250662 -0.00937764 0)
(-0.0259675 0.186194 0)
(-0.0281537 0.192441 0)
(-0.0247214 0.18187 0)
(-0.012149 0.141014 0)
(-0.0144507 0.150183 0)
(-0.0156907 0.153298 0)
(-0.00516405 0.11915 0)
(-0.00201756 0.106183 0)
(-0.0025216 0.110977 0)
(-0.00205953 0.113462 0)
(-0.000521506 0.106768 0)
(-0.0355187 0.213016 0)
(-0.0371908 0.218085 0)
(-0.0392362 0.223782 0)
(-0.0303323 0.197619 0)
(-0.0335362 0.207566 0)
(-0.032879 0.205205 0)
(-0.0321341 0.202337 0)
(-0.0347212 0.209262 0)
(-0.0387438 0.221714 0)
(-0.0400626 0.224239 0)
(-0.0406101 0.22547 0)
(-0.0354989 0.209221 0)
(-0.0435411 0.234541 0)
(-0.0459421 0.241238 0)
(-0.0388469 0.219064 0)
(-0.0436342 0.233996 0)
(-0.0422106 0.229188 0)
(-0.0428427 0.230581 0)
(-0.0480258 0.246234 0)
(-0.000162667 -0.0106795 0)
(0.000999392 -0.013148 0)
(0.000455946 -0.0102637 0)
(0.00332827 -0.0277907 0)
(0.00253606 -0.0276953 0)
(0.00383896 -0.0302794 0)
(0.0115178 -0.0450196 0)
(0.00996836 -0.0407064 0)
(0.00966153 -0.042205 0)
(0.0245367 -0.0651727 0)
(0.0259578 -0.0697622 0)
(0.0264754 -0.0648633 0)
(-0.0366919 0.203982 0)
(-0.0418158 0.220537 0)
(-0.039609 0.213751 0)
(-0.00959134 0.0892837 0)
(-0.00982506 0.0924794 0)
(-0.00937329 0.0880088 0)
(-0.0495375 0.250136 0)
(-0.0431231 0.231086 0)
(-0.0148569 0.109919 0)
(-0.0177728 0.123391 0)
(-0.0168176 0.119449 0)
(-0.0148899 0.109311 0)
(-0.0208363 0.136007 0)
(-0.0150417 0.110274 0)
(-0.0255467 0.159035 0)
(-0.0282186 0.169873 0)
(-0.0275427 0.167396 0)
(-0.0130531 0.1015 0)
(-0.0123449 0.0978309 0)
(-0.0139862 0.106102 0)
(-0.0334706 0.192414 0)
(-0.0371225 0.205912 0)
(-0.0366515 0.203904 0)
(-0.0488276 0.244286 0)
(-0.0525894 0.255939 0)
(-0.0518696 0.25347 0)
(-0.0534769 0.229283 0)
(-0.0574659 0.234105 0)
(-0.0539055 0.22179 0)
(-0.0289472 0.127759 0)
(-0.0282986 0.117665 0)
(-0.0256987 0.11266 0)
(-0.00920871 0.0475804 0)
(-0.0112135 0.0568329 0)
(-0.0100807 0.0497113 0)
(-0.00895927 0.0415878 0)
(-0.00743146 0.0352237 0)
(-0.00817909 0.0396743 0)
(-0.00639962 0.0368871 0)
(-0.00521157 0.0311277 0)
(-0.000986019 0.0082854 0)
(-0.000981714 0.00855739 0)
(-0.00110259 0.00916949 0)
(-0.000856649 0.00795528 0)
(-0.000844278 0.00755997 0)
(-0.000728502 0.00698736 0)
(0.000529576 0.00710283 0)
(0.000353515 0.00738777 0)
(0.000410605 0.00591253 0)
(0.000271003 0.0059389 0)
(0.000150172 0.00564854 0)
(0.000200713 0.0046484 0)
(-5.78856e-05 0.00611316 0)
(0.000307965 0.00473924 0)
(0.00146937 -0.00192744 0)
(0.00201892 -0.00284524 0)
(0.00180216 -0.00164626 0)
(0.000581056 0.000624859 0)
(0.000511414 0.000609884 0)
(0.000810101 0.000573881 0)
(0.000686937 0.00112719 0)
(0.000672622 0.000864487 0)
(0.000910908 0.00131105 0)
(0.000728754 0.000718842 0)
(0.000541997 0.000653761 0)
(0.000628135 0.00129001 0)
(0.000808337 0.00149483 0)
(0.000769487 0.00177405 0)
(-0.00293268 0.00677776 0)
(-0.00394048 0.0106046 0)
(-0.00385451 0.00866345 0)
(0.0090325 0.0759288 0)
(0.00961772 0.0717455 0)
(0.00973612 0.0747583 0)
(0.00738294 0.0828788 0)
(0.0152775 0.0528491 0)
(0.017215 0.0451246 0)
(0.0164511 0.0505621 0)
(0.0142017 0.0589812 0)
(0.029864 -0.0240408 0)
(0.0312039 -0.0225389 0)
(0.0295016 -0.0158463 0)
(0.027142 0.00657545 0)
(0.0259762 0.010227 0)
(0.0275216 0.000400327 0)
(-0.00947169 0.129591 0)
(-0.00861182 0.128743 0)
(-0.0136333 0.148352 0)
(0.000667216 0.103644 0)
(-0.0295992 0.195788 0)
(-0.0259708 0.184564 0)
(-0.0288609 0.193954 0)
(-0.0320812 0.199934 0)
(-0.0300146 0.193857 0)
(-0.0485214 0.248297 0)
(-0.0482444 0.247199 0)
(-0.0322542 0.198865 0)
(-0.0352975 0.209853 0)
(-0.0367398 0.214021 0)
(-0.0376693 0.214223 0)
(-0.00610089 0.0167778 0)
(-0.00757571 0.0208811 0)
(-0.00589234 0.0139989 0)
(0.00412698 -0.0278258 0)
(0.00431749 -0.0257865 0)
(0.00289968 -0.0238638 0)
(0.00335665 -0.0337411 0)
(0.00427529 -0.0366586 0)
(0.00503844 -0.0371242 0)
(0.0158878 -0.0549802 0)
(0.0155396 -0.0575201 0)
(0.0173857 -0.0604976 0)
(0.0351986 -0.0501072 0)
(0.0337358 -0.0481667 0)
(0.0345712 -0.0560634 0)
(0.0283424 -0.0698366 0)
(0.0276871 -0.0745543 0)
(-0.0345401 0.198029 0)
(-0.0346999 0.197462 0)
(-0.030398 0.182556 0)
(-0.0264537 0.166609 0)
(-0.0298143 0.179866 0)
(-0.0314135 0.185456 0)
(-0.0172027 0.125187 0)
(-0.0199074 0.136479 0)
(-0.0186514 0.131429 0)
(-0.0262915 0.159379 0)
(-0.0239947 0.155111 0)
(-0.0257435 0.164488 0)
(-0.012814 0.106622 0)
(-0.0121279 0.104248 0)
(-0.0116808 0.100249 0)
(-0.0109112 0.0966475 0)
(-0.0102051 0.0937352 0)
(-0.00994913 0.0913515 0)
(-0.017198 0.119501 0)
(-0.012879 0.0999195 0)
(-0.0116678 0.0936253 0)
(-0.0339104 0.191034 0)
(-0.0298995 0.177342 0)
(-0.0318357 0.185571 0)
(-0.0357779 0.200041 0)
(-0.0314263 0.183621 0)
(-0.0321916 0.187207 0)
(-0.0305565 0.180538 0)
(-0.0312965 0.183023 0)
(-0.0755597 0.313597 0)
(-0.0763882 0.314747 0)
(-0.0745232 0.311077 0)
(-0.050361 0.246256 0)
(-0.0456246 0.231036 0)
(-0.046584 0.234761 0)
(-0.0500656 0.238111 0)
(-0.0549583 0.254031 0)
(-0.0534982 0.24759 0)
(-0.0631582 0.233629 0)
(-0.059391 0.218675 0)
(-0.0604744 0.234117 0)
(-0.0513149 0.23043 0)
(-0.0494573 0.219625 0)
(-0.044601 0.13717 0)
(-0.0469849 0.135569 0)
(-0.0440912 0.12075 0)
(-0.0197102 0.063854 0)
(-0.0197083 0.0707933 0)
(-0.0224658 0.079114 0)
(-0.0120936 0.0577316 0)
(-0.0145847 0.0682336 0)
(-0.0131567 0.0598885 0)
(-0.00282972 0.0176939 0)
(-0.00335925 0.0213248 0)
(-0.00356126 0.0216149 0)
(-0.00452594 0.0252057 0)
(-0.00520787 0.0292487 0)
(-0.00580411 0.0311748 0)
(-0.00256633 0.0173161 0)
(-0.00246885 0.0174446 0)
(-0.00302419 0.0201741 0)
(-0.00034388 0.00388507 0)
(-0.000388019 0.00399702 0)
(-0.000318176 0.00347552 0)
(-0.0020454 0.0140694 0)
(-0.00200881 0.0134685 0)
(-0.00165005 0.0115019 0)
(-0.000362764 0.00454071 0)
(-0.000289509 0.00413152 0)
(-0.000319643 0.00457104 0)
(-0.000188419 0.00469426 0)
(-0.000162754 0.00392297 0)
(-0.000128302 0.00405339 0)
(7.95265e-05 0.00525575 0)
(2.25685e-05 0.00547711 0)
(4.54413e-05 0.0045042 0)
(-1.19479e-05 0.00310341 0)
(-4.85154e-05 0.00331912 0)
(-3.14528e-05 0.00285761 0)
(0.000149849 0.00289138 0)
(0.000217076 0.00371962 0)
(0.000155336 0.00367704 0)
(0.000489268 0.00369264 0)
(0.000345088 0.00255711 0)
(0.000471813 0.00281459 0)
(-0.000419961 0.00228017 0)
(-0.000368782 0.00207189 0)
(-0.000108943 0.00153888 0)
(0.000448883 0.000539469 0)
(0.000187708 0.000991019 0)
(0.000100811 0.00101643 0)
(0.000541806 0.00139726 0)
(0.000438677 0.000957012 0)
(0.000406255 0.000599725 0)
(0.000986322 0.000904181 0)
(0.000717873 0.00209956 0)
(0.00051151 0.00165994 0)
(0.000323395 0.00189633 0)
(-0.0029031 0.00960048 0)
(-0.00379715 0.0124131 0)
(-0.00279977 0.00862443 0)
(0.0101307 0.0669458 0)
(0.0133897 0.0603667 0)
(0.0212664 0.0317732 0)
(0.020953 0.030638 0)
(0.0224938 0.0250936 0)
(0.0319856 -0.0152957 0)
(0.0331212 -0.0183782 0)
(0.0319704 -0.0120217 0)
(0.0364455 -0.0401734 0)
(0.0365263 -0.0453577 0)
(0.0371949 -0.0445173 0)
(0.0212807 0.0198754 0)
(0.0234756 0.0109802 0)
(0.0222547 0.0215162 0)
(-0.0226806 0.174366 0)
(-0.0267303 0.187662 0)
(0.00275675 0.09817 0)
(-0.0421038 0.23135 0)
(-0.0402754 0.225727 0)
(-0.0372405 0.216727 0)
(-0.00452247 0.00585087 0)
(-0.00457755 0.00433079 0)
(-0.00311585 0.000784933 0)
(-0.00429773 -0.00585637 0)
(-0.00632454 -0.00156583 0)
(-0.00458025 -0.00782069 0)
(0.00463666 -0.0309174 0)
(0.00430403 -0.0393577 0)
(0.00285366 -0.0365711 0)
(0.00384769 -0.03915 0)
(0.0181841 -0.0581688 0)
(0.016991 -0.0539549 0)
(0.0392518 -0.0674932 0)
(0.0382338 -0.0652975 0)
(0.0380455 -0.0699289 0)
(0.0378526 -0.0820856 0)
(0.0377926 -0.0777223 0)
(0.0366886 -0.0804921 0)
(-0.0487085 0.242686 0)
(-0.0414293 0.220223 0)
(-0.0278746 0.171484 0)
(-0.0318314 0.184956 0)
(-0.0324692 0.187699 0)
(-0.0201538 0.138184 0)
(-0.0229943 0.150238 0)
(-0.0221278 0.146602 0)
(-0.0290422 0.167119 0)
(-0.0262951 0.157892 0)
(-0.0294634 0.16929 0)
(-0.0115716 0.103114 0)
(-0.0417429 0.224352 0)
(-0.0472623 0.240189 0)
(-0.040086 0.217746 0)
(-0.0170119 0.118568 0)
(-0.0114025 0.0920763 0)
(-0.0262052 0.161841 0)
(-0.0557825 0.264889 0)
(-0.0587763 0.272899 0)
(-0.0530203 0.256299 0)
(-0.0273708 0.166838 0)
(-0.0249551 0.156739 0)
(-0.0278962 0.169334 0)
(-0.082636 0.330725 0)
(-0.0824005 0.329022 0)
(-0.0810448 0.327544 0)
(-0.043913 0.230638 0)
(-0.0431574 0.228056 0)
(-0.0475416 0.241156 0)
(-0.055774 0.265637 0)
(-0.0596436 0.275047 0)
(-0.0569848 0.268509 0)
(-0.0748423 0.303197 0)
(-0.0752321 0.307953 0)
(-0.0786751 0.314883 0)
(-0.0686878 0.290123 0)
(-0.0720784 0.298102 0)
(-0.0709485 0.291004 0)
(-0.0628339 0.22156 0)
(-0.0549543 0.206439 0)
(-0.0565111 0.199963 0)
(-0.0531591 0.19149 0)
(-0.0303338 0.0891145 0)
(-0.0325253 0.103352 0)
(-0.0326525 0.0964014 0)
(-0.0214182 0.0886436 0)
(-0.0193926 0.0759636 0)
(-0.0185709 0.0786613 0)
(-0.0255844 0.0360176 0)
(-0.0217409 0.026031 0)
(-0.023767 0.0366146 0)
(-0.00787004 0.033472 0)
(-0.00912016 0.0398828 0)
(-0.0089448 0.0371184 0)
(-0.00927802 0.0365056 0)
(-0.00789427 0.0315608 0)
(-0.00420216 0.0244309 0)
(-0.00354383 0.0202619 0)
(-0.00307141 0.0183665 0)
(-0.00540333 0.0257541 0)
(-0.00622681 0.0301376 0)
(-0.00634876 0.0292596 0)
(-0.00612433 0.0316173 0)
(-0.00514418 0.0268759 0)
(-0.00464859 0.0250899 0)
(-0.000880163 0.00680107 0)
(-0.000732353 0.00590157 0)
(-0.000815112 0.00657284 0)
(-0.000813256 0.00688755 0)
(-0.000699544 0.0062252 0)
(-0.000826963 0.00717972 0)
(-0.00170053 0.0114325 0)
(-0.00217558 0.014079 0)
(-0.0017414 0.011309 0)
(-0.000236334 0.0033923 0)
(-0.000283139 0.00359161 0)
(-0.000234201 0.00314655 0)
(-0.000190057 0.00317342 0)
(-0.000146353 0.0028157 0)
(-0.000164103 0.00323975 0)
(-3.56547e-05 0.00398636 0)
(0.000106744 0.00414868 0)
(0.000104011 0.00287008 0)
(1.16423e-05 0.00380006 0)
(-1.31941e-05 0.00478456 0)
(0.000440566 0.00459873 0)
(0.000175348 0.00172729 0)
(0.000227073 0.00186691 0)
(0.000275057 0.0026062 0)
(0.000157176 0.000998361 0)
(0.000105609 0.000890932 0)
(-6.11445e-05 0.00130604 0)
(-0.00254107 0.00884618 0)
(-0.00335388 0.0118431 0)
(0.00038045 0.00111088 0)
(0.000339087 0.000509522 0)
(0.000447819 0.000610142 0)
(0.00048075 0.000704583 0)
(0.000159099 0.000347173 0)
(0.000167508 0.000486142 0)
(0.000267246 0.000497499 0)
(0.000316978 0.00107739 0)
(0.000433555 0.0017696 0)
(0.000424316 0.0021264 0)
(0.00028381 0.00136543 0)
(-0.00860416 0.0271199 0)
(-0.00718509 0.0218434 0)
(-0.00765832 0.0259314 0)
(-0.00213132 0.00500661 0)
(-0.00312354 0.00879511 0)
(0.0200477 0.0366322 0)
(0.0183679 0.0443462 0)
(0.019023 0.0387246 0)
(0.035497 -0.0303527 0)
(0.0347835 -0.0307203 0)
(0.035571 -0.0352299 0)
(0.0316537 -0.0183973 0)
(0.0305692 -0.0112465 0)
(0.0355336 -0.040648 0)
(0.0256677 0.00793267 0)
(0.0284853 0.000841954 0)
(0.0298987 -0.0047219 0)
(0.0291345 0.00136371 0)
(-0.00494344 0.0134041 0)
(-0.00502405 0.0122221 0)
(-0.00374901 -6.99316e-05 0)
(-0.00263665 -0.00243806 0)
(-0.00611385 -0.00529748 0)
(-0.00595748 -0.00862358 0)
(-0.00472144 -0.00980462 0)
(-0.00205085 -0.0275243 0)
(-0.00296402 -0.0248528 0)
(-0.00374957 -0.0251833 0)
(0.0111945 -0.0594498 0)
(0.013442 -0.066168 0)
(0.012854 -0.0632125 0)
(0.0361926 -0.0905756 0)
(0.0363432 -0.0932671 0)
(0.037858 -0.0924284 0)
(0.0376215 -0.0498744 0)
(0.0373879 -0.0554958 0)
(0.0384471 -0.0541072 0)
(0.0386651 -0.0583568 0)
(0.0392647 -0.0559133 0)
(0.0315342 -0.0956298 0)
(0.0321103 -0.0927567 0)
(0.0299619 -0.0927813 0)
(-0.0506366 0.249269 0)
(-0.0368778 0.201277 0)
(-0.0383914 0.207592 0)
(-0.0232751 0.154177 0)
(-0.0193485 0.13448 0)
(-0.0212586 0.148378 0)
(-0.0255963 0.161259 0)
(-0.0141638 0.112011 0)
(-0.0152909 0.119815 0)
(-0.0142558 0.114468 0)
(-0.00805931 0.0785356 0)
(-0.00791932 0.0766004 0)
(-0.00823267 0.0799271 0)
(-0.0385877 0.212093 0)
(-0.00816258 0.0756326 0)
(-0.00982174 0.083857 0)
(-0.00995507 0.0848516 0)
(-0.0420643 0.223797 0)
(-0.0465272 0.2374 0)
(-0.0430854 0.227613 0)
(-0.0870176 0.337848 0)
(-0.0856001 0.33602 0)
(-0.0879312 0.339939 0)
(-0.0811951 0.328448 0)
(-0.0824103 0.331196 0)
(-0.0833668 0.332325 0)
(-0.0475939 0.241877 0)
(-0.0504379 0.249888 0)