/*--------------------------------*- C++ -*----------------------------------*\
| =========                 |                                                 |
| \\      /  F ield         | OpenFOAM: The Open Source CFD Toolbox           |
|  \\    /   O peration     | Version:  v2012                                 |
|   \\  /    A nd           | Website:  www.openfoam.com                      |
|    \\/     M anipulation  |                                                 |
\*---------------------------------------------------------------------------*/
FoamFile
{
    version     2.0;
    format      ascii;
    class       surfaceScalarField;
    location    "500";
    object      phi;
}
// * * * * * * * * * * * * * * * * * * * * * * * * * * * * * * * * * * * * * //

dimensions      [0 3 -1 0 0 0 0];
oriented        oriented;


internalField   nonuniform List<scalar> 
95859
(
-0.511266
0.342661
0.326951
0.26644
0.17701
0.194543
-0.131347
-0.308129
-0.270688
0.159021
-0.176728
0.12256
-0.0259542
-0.0336014
-0.0688658
-0.0253494
0.0334109
-0.0724591
-0.0129582
0.0356523
0.032225
-0.0562724
0.0796904
-0.0643067
-0.0489611
0.0604425
-0.0452806
0.048716
-0.0492541
0.0450474
0.0163019
0.0490221
-0.0365073
0.0043717
0.00770254
0.00971994
-0.0132743
-0.0345046
-0.0307808
-0.0212483
0.0260665
0.0178271
0.0295716
-0.015909
-0.0114121
0.0182281
0.0232107
-0.0169213
-0.0171445
-0.00771122
-0.0200399
0.000672401
-0.0143308
0.00281888
0.0072997
0.0104447
0.00645181
0.00193947
-0.0106187
0.0120016
0.00523878
0.0080498
-0.0104834
-0.00632827
0.000352423
0.00136295
-0.0025378
-0.0029915
-0.00421482
0.00401646
1.53575e-05
-0.000138385
-1.80468e-05
-8.18858e-06
-0.00418614
-0.00959361
0.010111
-0.000757516
-0.00328963
-0.0161028
-0.0293491
-0.00208139
-0.602808
-0.872329
0.851095
0.320262
-0.0197472
-0.389944
-0.329629
-0.0222733
-0.300335
-0.137714
0.20865
-0.257788
-0.266848
-0.134528
0.110019
-0.274943
-0.258239
-0.0374612
0.251055
-0.153699
-0.191793
-0.00635152
-0.0857712
-0.149866
0.149097
-0.14525
-0.139045
0.101731
0.0825502
0.0840395
0.129214
0.127488
0.012513
0.123233
-0.0749016
0.00488743
-0.0859178
0.132215
-0.00958376
0.0496205
-0.0281367
-0.0289257
0.131733
-0.0964281
-0.0848328
-0.0884078
0.000708553
-0.0866615
0.0721265
0.0803142
-0.0782328
-0.0776966
-0.101965
0.0581284
-0.0132751
-0.0495784
-0.0731382
-0.104358
-0.0670655
0.0691411
0.0777223
0.04838
-0.0289098
-0.0669481
-0.0646396
0.0355564
0.076842
0.0331204
-0.0144769
-0.0918554
-0.00868018
0.053843
0.0679823
-0.0710688
-0.0582571
0.0751532
0.0380395
-0.0689292
0.0386133
0.0398927
-0.0296959
0.0591368
0.0051971
0.0504665
0.00370404
0.0168578
0.0497382
0.0538667
-0.0404118
-0.00162344
0.0442892
-0.0419983
0.0342887
-0.055301
-0.0331756
0.00793128
-0.0399367
-0.0283529
0.0533001
-0.0320738
0.0472455
-0.0436543
0.0449415
0.0436307
-0.0251831
0.0502661
0.0397403
-0.00723823
0.00601003
0.0473859
-0.0153279
-0.0194987
0.0247671
-0.0378037
0.0286381
-0.000206231
0.0367492
0.00173512
0.0151644
0.0289218
0.00940575
0.00714916
-0.0349889
-0.0226187
-0.00411081
0.00762992
-0.0131594
-0.0236712
-0.0270126
0.019977
0.016903
0.0164949
-0.0219872
-0.0178115
-0.0282779
0.0379027
-0.000821685
-0.0201738
0.00786051
-0.0302583
0.00426683
0.0145235
0.0239129
0.0174231
0.00783132
0.0224381
0.0135784
0.025571
0.024356
-0.0148789
0.0218648
0.0142839
0.0177038
-0.0221121
0.0026792
-0.0141425
0.0219603
-0.00934989
-0.0251553
0.0224502
0.0201814
-0.0138948
-0.022574
-0.00366696
0.00761903
-0.00121471
-0.0190147
-0.00770356
-0.0142134
-0.0168679
-0.00528756
0.00882276
0.0163006
0.0175341
-0.0128416
0.0175631
0.0182501
-0.00769965
-0.0114879
0.00378845
-0.00615119
0.00598052
-0.00708705
-0.0145804
-0.0170723
-0.0129278
-0.00105888
-0.0106529
-0.0112844
0.00772657
-0.00631321
-0.0024881
-0.0162679
-0.0130643
-0.0108414
0.00128349
-0.004679
0.0151278
0.0132301
0.0147617
-0.0188752
-0.00622563
-0.0139839
-0.00850005
-0.0150181
-0.0138303
0.00445138
0.0131921
-0.0108867
-0.00954361
0.0128332
-0.00803066
-0.0124927
0.0140579
-0.0136045
0.00175404
0.0152662
-0.00665256
-0.00600884
-0.0112293
-0.0028009
-0.00685229
-0.00929635
-0.0114396
-0.00878582
0.00322021
-0.0128295
-0.00956402
-0.00589589
0.00419542
-0.0123625
-0.00709303
0.00526108
-0.00115151
0.00879904
-0.0105371
0.00826845
0.00336212
0.00592586
0.0117401
0.00945952
0.000120739
-0.00748378
-0.0114725
0.0109398
0.00868915
0.00535023
0.00295327
0.0112119
-0.00449751
-0.00922481
-0.00301691
0.0103065
-0.00706739
-0.0104945
-0.00484815
-0.00177851
0.000118699
0.00815399
-0.0116485
-0.00985452
-0.00794013
-0.00571081
0.0105945
-0.00431809
0.00918141
0.00417091
-0.00360954
0.00880153
-0.0052693
-0.0101142
0.00947376
0.00876234
0.00668194
-0.00469821
0.00500348
-0.00699447
-0.00796229
0.00508633
0.00155455
-0.00370173
-0.00180434
-0.00396027
0.00160854
0.00423715
0.00474136
-0.00359272
-0.000463009
-0.002647
-0.00198122
-9.75772e-05
0.000546611
0.000118239
0.000881952
-8.84719e-05
-0.000257395
-2.26085e-05
-2.45532e-05
-4.80931e-05
0.000109305
5.66323e-05
-1.53917e-05
9.39475e-06
-5.14786e-06
-9.85823e-06
-1.77101e-05
6.35281e-05
-9.64619e-05
-0.00210111
0.00168091
0.00386427
-0.00215111
0.00378303
-0.00478216
0.00171316
0.00240793
0.00514065
0.00614045
-0.00615516
0.00888789
0.00646413
-0.00771385
-0.00461094
-0.00836348
0.0093648
0.000265837
0.00313222
-0.00943534
-0.0096538
-0.00781466
0.0108514
0.00950658
-0.0116633
0.00313231
0.00807532
0.0117134
-0.00986459
-0.003865
0.0102405
0.00174802
-0.0122806
-0.00825478
0.0129889
0.0108708
0.0155343
0.010004
-0.0132902
0.0103739
-0.0050293
0.00838301
-0.00100286
-0.0181181
-0.0175509
-0.00822584
-0.0107533
-0.00122994
0.0170446
0.0133975
-0.0145397
-0.0160676
-0.0229868
-0.00355033
-0.0183677
-0.0189959
-0.0207588
-0.0193102
-0.0088002
0.0221463
-0.0251915
0.0218354
0.0254158
-0.0231883
0.0253149
-0.0248277
0.0114411
-0.0164262
-0.034427
0.0057889
-0.0169819
0.0326364
0.0202068
0.000628059
0.0327482
0.00775787
-0.0525905
0.0408134
-0.0440694
-0.0416997
-0.0284634
0.0661737
-0.0473384
-0.0248209
-0.0412856
0.0534707
-0.068673
0.0495298
0.0423185
0.0783629
0.0117472
0.00865497
0.0124417
-0.115049
0.119779
-0.00497631
-0.0420051
0.0958729
-0.0345117
-0.179204
0.359054
-0.277764
-0.0246779
0.666401
0.989515
0.803551
0.69369
0.351941
-0.0546644
-0.464691
0.567702
0.503434
0.0441213
-0.484437
0.499123
-0.385142
0.367386
-0.325408
-0.00502644
0.242239
-0.0655833
0.181021
-0.0496296
0.31791
-0.239558
-0.00482131
0.202239
0.172325
0.168923
-0.0247756
0.135267
-0.0918233
-0.0920694
-0.159379
-0.164172
0.0808675
-0.164163
0.0305141
0.118211
-0.00861352
0.101032
-0.00466946
-0.0844703
-0.0641055
-0.123803
0.118004
-0.0967722
0.0703169
-0.0133729
-0.0578613
0.119948
0.0799369
0.0514379
0.124653
-0.0851587
0.100475
0.0497145
0.0969842
-0.000314691
0.0709761
-0.0825644
-0.0135757
-0.0595625
-0.116201
-0.0640455
-0.0973317
-0.0419603
0.0362141
0.045958
0.0886834
-0.101995
-0.0563379
0.12354
0.0181232
-0.0743053
-0.0862722
-0.0580544
0.0456913
-0.0815465
0.0358552
0.017073
-0.0587603
-0.0416873
-0.00530607
0.0125607
-0.0472885
-0.0831894
-0.0222975
0.108314
0.0504624
-0.0572716
0.0978669
0.0701755
-0.0447634
-0.0469018
-0.0888104
-0.0493809
-0.0595261
0.0219658
0.0123912
-0.0685899
0.0115596
0.00490168
0.0439849
-0.0345754
0.0215202
0.041824
-0.0292426
0.0113428
-0.0201241
0.0191647
0.0545442
-0.0629757
-0.0519322
-0.0605872
-0.0776222
-0.0690715
0.0546862
0.0663707
-0.054875
-0.0443102
-0.00573309
-0.0554579
-0.0303599
0.0277816
0.0600016
0.0315184
0.00447834
0.0413017
0.043427
-0.0434491
-0.0417114
0.0483625
0.0326656
-0.0273831
0.0527324
0.0227926
-0.057055
0.0100418
-0.0290924
0.0171727
-0.0170781
-0.0367559
-0.0140203
0.0237786
-0.0495722
0.00535944
0.0336265
0.00409719
0.0222676
0.018263
0.0430237
0.0411301
0.00706491
0.0383981
0.0100119
-0.0461995
-0.0487241
0.0313322
-0.049396
0.0330043
0.0360889
-0.0361333
0.0376839
-0.0359558
0.0292444
-0.0305387
0.0538736
0.00689339
-0.0378694
0.0395912
0.022181
0.0075948
-0.0354477
0.0370279
-0.0343229
-0.0378121
-0.0273627
-0.0226994
0.019027
0.0318312
0.0222405
0.00207647
-0.0104814
0.0262437
-0.000957242
-0.0257217
-0.0299918
-0.014944
0.0248914
0.0176307
-0.0211043
-0.026503
-0.00614268
-0.00875267
0.0212894
0.0120304
-0.00743314
0.0146896
-0.0128848
-0.0100127
-0.0099941
0.0245612
0.0295552
-0.00697497
-0.000245176
-0.0129192
-0.0139871
-0.0283457
-0.021207
0.00690833
0.00381827
-0.024407
0.0211312
0.0133682
-0.0169661
-0.000756188
0.0152184
0.00408379
0.0226471
0.0193945
0.0136794
0.020024
0.00783539
0.0175201
0.0132658
-0.00293955
0.0170225
-0.0177334
-0.0119216
0.00732522
0.020779
-0.0265162
0.00875262
-0.00341987
-0.0030392
-0.0139317
-0.00123035
-0.0121168
-0.0133315
-0.00820975
-0.0148963
-0.0138286
0.0119348
0.00652894
-0.0134175
-0.0147124
0.0215119
0.015625
0.0144431
-0.00170176
-0.0135358
-0.0138807
-0.022761
0.0158867
0.00871265
0.0148097
-0.00273892
0.0111558
-0.00692041
-0.0139566
0.012948
0.00823791
-0.00108006
0.0159844
0.00577838
-0.00970503
0.00298129
-0.00987477
0.00887289
0.0170847
0.0144474
-0.0125646
-0.00475702
-0.000916954
0.0156595
0.0123406
-0.00869773
-0.0104157
-0.00447213
-0.00213505
0.0106334
-0.0127271
-0.00905754
-0.0141419
0.0152465
-0.0128257
-0.00885847
-0.017361
-0.0162426
-0.0106219
0.00899649
0.0104459
0.0100817
-0.000346353
-0.0129721
0.0144437
-0.00434544
-0.00709056
0.00025836
0.0151902
0.00798337
0.00397066
0.00602048
-0.011935
0.00197872
0.0107439
0.011189
-0.00697978
-0.00871261
-0.0111772
-0.00731111
-0.00758872
-0.0111731
-0.0118897
-0.000183199
-0.0105094
-0.00900618
0.000423544
-0.00846689
-0.00384924
-0.00897023
0.00841613
-0.00379073
-0.0097888
-0.00357795
0.00286808
-0.0108489
-0.00534543
0.000483628
0.010428
-0.000123235
0.000718315
-0.00971892
0.00728745
-0.001962
0.00628176
-0.00414378
-0.00967529
0.00754622
-0.00378427
0.00750738
-0.0020125
-0.00767228
0.00325785
0.00537388
-0.000196302
0.00266836
-0.00555334
0.00323087
0.00194123
-0.0021457
0.00311837
0.000538075
0.00470532
-0.0010335
0.00379108
-0.00207329
-0.00299565
0.00187084
-0.000132998
0.00128489
-0.000462815
-0.000467505
9.12415e-05
0.000100139
0.000232871
-0.000232055
-0.000104225
-7.61112e-05
-9.91819e-05
2.51069e-05
-6.58758e-05
-5.86132e-05
1.62267e-05
-1.65441e-05
1.68424e-05
-0.000105137
3.24408e-05
-0.000158194
4.39732e-05
-0.000132732
-0.000356694
0.000956927
0.00285952
-0.00630482
-0.00868675
-0.00885678
-0.0028886
0.00488532
0.00369966
0.00342413
0.00781362
-0.00318184
0.00456404
0.0031217
0.0117927
-0.00229153
-0.00537572
-0.00564808
-0.00609461
-0.00863001
0.00066595
0.00866275
-0.00312651
0.00648527
-0.00924116
0.00663123
-0.00396256
-0.0127387
-0.000964218
0.00974363
-0.00189591
0.0136932
0.00376903
-0.000458673
0.00850379
-0.0117861
-0.0137184
-0.0146285
0.0107735
-0.0101448
-0.00164541
0.00463746
0.00070298
-0.0171667
-0.000419812
0.00527853
-0.0120088
0.0011296
0.00636255
-0.000876246
-0.0129407
-0.0161634
-0.0165023
0.00383925
0.00325081
0.00940961
-0.0147683
0.00268958
-0.0162695
0.0130094
-0.00705574
0.00406965
0.0115049
-0.0175622
0.00414647
0.0175714
0.00130508
-0.0197596
0.0146954
-0.0123267
-0.0110982
-0.0145932
-0.0163019
-0.000737002
-0.0137171
0.0221893
0.0189223
0.000674701
0.00531257
-0.017533
-0.0131801
0.0223142
-0.014595
-0.00960285
-0.00589682
0.0248785
-0.0230601
0.0171989
0.0256504
-0.0101658
0.0211434
0.00801866
0.0112134
-0.019612
-0.0185813
-0.0326044
0.00101816
-0.0163922
-0.00657545
-0.0213272
0.038565
0.0309369
-0.031734
-0.0209483
0.0350677
-0.0403708
0.0276329
-0.0353362
-0.0363682
-0.00428303
-0.0182945
-0.0323214
0.00437782
-0.0181772
-0.0313332
-0.03407
0.0447657
0.0421736
-0.0354986
-0.0118232
-0.0473218
0.00323674
0.0380217
-0.0465958
0.0491797
-0.0314817
-0.011541
0.00696495
-0.0201403
0.00748287
0.013343
0.0324707
0.0302538
0.0627244
-0.0609991
0.0169081
-0.0496177
0.0139235
0.078344
0.0747152
0.0678204
0.0103743
-0.0622652
0.0760439
-0.0725431
-0.0503097
-0.00916868
0.0966753
0.00706368
-0.092394
-0.0193635
-0.0612737
0.0555771
0.0514341
-0.090519
0.0620704
0.0520556
-0.105348
-0.105368
-0.0717664
0.078188
-0.121707
-0.0119129
-0.0875579
-0.0547907
-0.11183
-0.102088
0.144828
0.250602
0.53822
0.730954
0.826956
0.202515
-0.375205
-0.112547
-0.466968
-0.0138149
0.324438
0.0127422
-0.0445774
-0.131987
-0.147975
0.202603
-0.0794754
0.123127
-0.0953759
0.0936556
-0.00172037
-0.0440323
-0.121459
0.0652021
0.159794
-0.0853661
0.0497752
0.135662
0.0614479
-0.0188214
0.0407106
0.113129
0.0181792
-0.0664808
-0.0312579
-0.087525
0.00726209
0.0571561
-0.0670005
0.0785041
-0.018124
0.0650257
-0.0613503
0.0593261
-0.0267896
-0.0324275
0.0420792
-0.044364
0.0272583
0.0243373
-0.0353596
-0.0299202
0.0207517
-0.0385398
0.0345263
0.0345039
-0.00278685
0.0118463
-0.0430475
0.0281738
0.0392884
-0.003172
-0.0122223
-0.0337136
0.00162829
-0.000732633
-0.0319037
-0.0287305
-0.0186654
-0.0243957
-0.0242793
-0.0253529
-0.0205641
0.0201753
0.0106238
-0.0192807
0.000463999
0.00534692
0.0249141
0.00748362
-0.0144187
-0.0106867
-0.015359
0.00252519
0.000169715
-0.00832469
-0.013528
0.00991349
0.0151564
-0.00373197
0.0106402
-0.0113301
0.00626598
-0.00242456
-0.00415362
0.00208605
0.00116617
0.00324103
0.0011134
0.00232746
-0.00168033
-0.00164378
-0.000991022
-0.00123116
-5.439e-05
9.34675e-05
5.61951e-05
9.68066e-06
5.71661e-05
-8.20008e-05
-2.96364e-05
4.52055e-05
-3.3277e-05
2.8913e-05
1.55726e-05
-6.17991e-06
9.29274e-06
3.11284e-06
1.33404e-05
-2.47864e-05
-1.65366e-05
-3.36229e-07
1.44332e-05
3.40873e-05
7.27251e-05
-6.68888e-06
4.78774e-06
4.55346e-06
1.14453e-05
-1.18155e-05
-4.10396e-06
-5.58108e-06
1.11617e-05
-9.2058e-06
-6.57714e-06
1.55289e-05
-7.5809e-07
-2.50247e-05
9.64589e-06
-1.67307e-05
-4.58451e-06
1.80874e-05
5.94567e-05
7.85183e-06
-4.35423e-05
5.20375e-05
3.43443e-05
-9.02106e-05
-1.97395e-05
3.08211e-05
6.163e-05
-6.36547e-05
-1.42713e-05
-1.68728e-05
1.19305e-05
-1.94541e-05
7.49625e-06
-7.99644e-06
2.13821e-05
-3.70177e-07
7.45932e-06
1.96433e-06
-1.1183e-05
1.14956e-05
-2.08626e-05
8.93603e-05
-3.16013e-05
2.64492e-05
2.85089e-05
-4.02588e-05
-2.62666e-05
7.21741e-06
-9.62483e-06
-1.69476e-06
1.35029e-05
-3.73095e-06
1.14509e-05
8.34454e-06
2.7505e-05
-3.99482e-06
-9.87461e-06
2.02556e-05
-1.0381e-05
-1.12375e-05
7.24938e-06
-2.26786e-05
-1.24512e-05
-1.95698e-05
3.2021e-05
-8.05618e-05
-2.17426e-05
-2.12396e-05
6.57667e-06
7.61012e-05
3.05343e-05
2.96522e-05
-2.97762e-05
-2.81004e-05
2.13143e-06
1.52098e-05
7.32229e-05
-4.59068e-05
3.16355e-05
-2.49649e-05
8.63819e-05
-3.29769e-05
-5.3405e-05
9.43047e-05
1.21439e-05
-1.33868e-06
5.84571e-05
-8.66671e-06
-4.97905e-05
-9.41856e-06
4.61166e-05
2.20607e-05
1.43019e-06
-3.23041e-09
4.33063e-05
-2.23698e-06
-3.46035e-06
2.31028e-05
-1.31189e-05
-2.56416e-05
-1.95513e-05
-1.0515e-05
3.00686e-05
2.73798e-05
-1.40395e-05
-3.30387e-05
3.60973e-05
-4.08272e-05
-9.1168e-05
-5.14654e-05
8.49015e-05
6.7436e-05
1.56059e-05
-2.81377e-05
1.00807e-05
-6.25232e-05
9.35334e-05
2.34101e-05
-3.21426e-05
5.96015e-05
-6.6412e-05
-1.73738e-05
-1.06516e-05
2.80254e-05
6.04981e-06
-1.44507e-05
8.40092e-06
-2.37743e-05
-1.19337e-05
-1.10141e-05
4.63677e-06
-1.10646e-05
6.42784e-06
1.64219e-05
-2.197e-05
1.50386e-05
3.13273e-05
-3.27192e-05
-2.11903e-05
9.69545e-06
-1.59864e-05
1.0867e-05
1.22198e-06
3.01373e-05
-8.9453e-06
2.33286e-06
-5.54347e-05
5.73522e-05
-1.91748e-06
-0.0001045
5.90105e-05
4.08403e-05
4.6127e-05
-2.79085e-05
-7.28211e-05
2.37293e-06
3.01824e-05
-4.24649e-05
7.99436e-05
5.73114e-05
2.41354e-06
3.99412e-05
-6.72468e-05
4.14893e-05
7.50399e-05
4.62998e-05
5.9085e-05
-3.5681e-05
3.44502e-05
-4.13031e-06
-4.48589e-05
-9.36987e-06
1.75826e-05
-8.21278e-06
9.77196e-06
-8.69429e-08
-9.68502e-06
4.31246e-05
-8.73249e-06
-3.43921e-05
-3.60289e-05
-2.51484e-05
-0.000129985
2.20433e-05
2.46575e-05
-6.0378e-05
-7.26965e-05
-2.76861e-06
1.45637e-05
-0.000106774
4.4783e-05
-5.63908e-05
-9.9945e-05
3.08686e-05
1.95389e-05
-3.59519e-05
2.70317e-06
4.63054e-05
-1.4976e-05
3.8207e-05
9.80382e-06
-4.8011e-05
-6.63796e-05
-1.38429e-05
9.81831e-05
-0.00016529
-2.9557e-05
1.9573e-05
9.98393e-06
-4.7005e-05
5.31193e-05
-6.1144e-06
-5.54807e-06
-2.03577e-05
2.59057e-05
3.57204e-05
-4.42178e-05
-1.01646e-05
-5.36574e-05
6.38219e-05
-9.36285e-05
6.89216e-05
-0.000117181
5.27589e-05
3.44541e-05
-2.02574e-05
1.95537e-05
-1.47016e-05
-2.96692e-05
4.07856e-05
7.57309e-05
0.000107471
-0.000122031
3.08663e-05
-9.25624e-06
-4.06819e-05
4.13198e-05
6.80332e-05
-3.1374e-05
4.08796e-05
-1.16077e-05
9.53443e-06
5.17545e-05
3.73138e-05
-2.73834e-05
4.64617e-06
-1.5427e-05
-4.88367e-05
1.93822e-05
0.000100783
5.02204e-05
-5.11899e-05
-5.15327e-05
3.1341e-05
-4.29822e-05
3.08644e-05
4.94542e-05
8.3042e-05
-5.92259e-05
-7.35952e-06
-6.99279e-05
-1.80385e-05
-1.22825e-05
-3.22038e-05
6.68468e-05
-6.96917e-05
5.37138e-05
-9.35246e-05
-1.39509e-06
9.49196e-05
-3.26705e-05
6.30271e-06
-5.11937e-06
-2.09329e-05
9.32804e-05
-6.37026e-05
-5.94182e-05
-2.83364e-05
-3.13338e-05
4.44195e-05
-3.91055e-05
4.84483e-05
-9.34318e-06
2.1012e-05
-1.44994e-05
-7.08484e-06
-1.38859e-05
2.09707e-05
-4.93908e-05
-3.23593e-05
1.30118e-05
1.83394e-05
2.83568e-05
-4.67265e-05
3.48082e-05
3.60532e-06
-2.60523e-05
1.62486e-05
9.8036e-06
-1.31119e-05
-5.88482e-05
7.19597e-05
-4.99379e-05
3.7638e-05
-2.44473e-05
0.000126703
-4.07341e-05
-8.59691e-05
-0.00012544
5.26117e-05
7.28287e-05
-7.76028e-05
5.4579e-05
-1.66619e-05
1.20956e-05
-0.000116394
-4.17466e-05
5.65949e-05
-1.48484e-05
6.82221e-06
-4.69541e-05
9.50558e-06
-3.42279e-05
-0.000120968
3.70749e-06
-0.000121905
9.82656e-05
6.80036e-05
1.80584e-05
-5.65572e-05
-2.45051e-05
-8.49723e-06
-4.84486e-05
5.69455e-05
-2.01915e-05
4.22824e-05
-5.1642e-05
-1.65367e-05
-3.61818e-05
-2.5466e-05
-1.00877e-05
2.10228e-05
-7.80387e-06
4.6701e-05
-2.92669e-05
-1.10899e-05
4.03566e-05
0.000127116
-0.000133848
9.02502e-05
0.000166307
3.96743e-05
-3.94331e-05
-2.41464e-07
4.4313e-05
-4.10693e-05
4.62267e-05
-4.8989e-05
2.76198e-06
2.7429e-05
-7.07317e-05
1.56676e-05
-6.56285e-06
-1.19366e-05
-9.367e-06
2.13036e-05
7.47019e-05
-3.62208e-05
4.16518e-05
-5.36947e-05
-3.17216e-05
2.93343e-05
6.33515e-05
6.04627e-06
-6.93978e-05
-1.75679e-06
5.35192e-05
-9.19e-05
3.83808e-05
0.000116516
-6.03948e-05
8.84619e-05
4.8121e-05
-8.1339e-05
3.3218e-05
-4.33025e-05
9.38613e-06
-5.7618e-05
4.82312e-05
1.06772e-05
-6.31164e-05
-5.72045e-05
6.44829e-05
-1.18862e-05
-5.25968e-05
-2.83011e-05
-6.33326e-05
-6.94862e-05
2.99738e-06
4.82389e-05
2.15728e-05
-6.90255e-06
3.26427e-05
-8.90682e-05
-7.90758e-07
-4.5519e-05
6.78378e-05
1.828e-05
2.42317e-05
-6.75193e-05
-4.16978e-05
5.90135e-05
3.53129e-05
1.2479e-05
9.14431e-05
-4.96223e-06
3.78723e-06
-0.000114141
-0.000182129
4.91481e-05
-4.85128e-05
-1.9792e-05
6.13768e-05
2.02374e-05
-3.11705e-05
1.0933e-05
-2.47223e-05
-3.76908e-05
-8.92505e-05
0.00017158
0.000150708
-0.000115249
9.18737e-05
0.000104362
0.000109353
-2.98375e-05
5.04075e-05
-2.05701e-05
-3.12132e-05
-1.14766e-05
1.95587e-06
-1.44243e-05
3.32127e-06
1.1103e-05
8.74913e-05
-1.98299e-05
-3.84402e-05
8.19145e-05
-3.07462e-05
-5.11687e-05
3.81677e-05
-3.84986e-05
-5.31717e-05
8.39318e-05
5.87726e-07
-8.06606e-05
-0.000107433
5.08473e-05
-7.15791e-05
3.30738e-05
-0.000102007
-4.64966e-05
5.20217e-05
-8.50478e-06
-6.45236e-05
-0.000147422
-1.97314e-05
-4.1467e-05
6.11983e-05
-3.34611e-05
-2.58952e-05
-7.53611e-05
1.4689e-05
2.52687e-05
3.59486e-05
-3.07645e-05
9.669e-05
-6.7107e-05
0.00013049
-0.000109934
-7.51018e-05
4.05318e-06
7.10486e-05
-0.000139493
3.4643e-05
-9.58004e-05
6.11573e-05
8.98171e-05
6.29579e-07
0.000125613
6.19205e-05
-1.85114e-05
-5.84596e-05
-1.70577e-06
-3.11323e-05
1.85568e-05
0.000141066
-7.67482e-06
-4.15946e-05
-3.81521e-05
3.95438e-05
-1.39185e-06
2.23188e-05
-7.10576e-06
-7.83548e-05
-2.57574e-05
0.000107327
8.84635e-06
-0.000116174
2.63993e-05
-0.000194071
0.000121538
7.25331e-05
0.000142543
-2.77996e-05
-0.000158507
2.07967e-05
-0.000190599
-2.2001e-05
-6.09438e-05
7.95799e-05
-8.20605e-05
-3.59457e-05
-0.000111135
0.000140939
-1.06505e-05
2.33199e-05
2.97563e-05
-1.82615e-05
-1.14948e-05
-8.27229e-05
-4.5489e-05
7.45685e-05
-0.000165996
-0.000146566
-5.64655e-05
-7.89641e-05
-2.63677e-05
2.60316e-05
3.36061e-07
6.1053e-06
2.71757e-05
-0.000133362
-4.60295e-05
-1.2864e-05
-6.28449e-05
-8.21834e-05
0.000127368
-0.000104182
6.40268e-05
3.10102e-05
-9.5037e-05
-0.00019971
1.84948e-05
0.000181215
0.000200856
-7.84615e-05
7.97596e-05
-1.29808e-06
-8.67472e-05
-0.00013771
2.18781e-06
4.68202e-05
-4.90086e-05
-4.84307e-05
2.99527e-05
1.84778e-05
0.000159393
3.58772e-05
0.000130707
4.69301e-05
-7.28535e-05
2.59232e-05
5.64457e-05
-0.000108485
3.53161e-05
2.33592e-05
-3.0077e-05
6.71777e-06
6.96329e-05
-6.721e-05
2.42332e-06
6.66046e-05
-2.82162e-05
-1.18758e-05
4.0092e-05
-2.80085e-05
-3.14846e-05
5.94931e-05
8.69674e-05
-6.65854e-05
-0.000119786
2.24988e-05
9.72867e-05
-3.79814e-05
0.000146298
-0.000147834
4.78762e-05
-0.00013543
0.000174469
-0.000132106
-3.44513e-05
-9.59331e-05
-9.48081e-06
-7.37651e-05
-2.35927e-06
9.22919e-05
-0.000203771
-0.000179136
2.24527e-05
-8.73326e-05
-2.63033e-05
-0.000138505
0.000108928
2.95778e-05
4.98693e-05
8.64809e-05
1.01948e-05
5.63699e-05
-0.000145673
8.93028e-05
-6.33567e-05
-0.000171679
0.000255122
-6.00008e-05
-0.000217039
0.000260857
-2.40454e-05
-0.000130102
0.000138518
-0.000107022
-7.25738e-05
-0.00018263
0.000208506
-0.000201562
-0.00015788
-8.93364e-05
2.50421e-05
2.02121e-05
-2.11205e-05
3.13846e-05
-0.00012783
-5.32695e-05
-8.21226e-06
6.14817e-05
-4.36084e-05
-1.62033e-05
-0.000166303
8.233e-05
8.39734e-05
-1.03938e-05
-5.24389e-05
-0.000118321
-4.33813e-05
-2.86677e-05
5.52528e-06
-6.24789e-05
5.69533e-05
4.16156e-06
2.97259e-05
0.00013635
-5.88263e-05
-7.7524e-05
-0.000159241
1.50203e-05
-7.10659e-05
-2.9246e-05
-8.83109e-05
6.76615e-05
0.000126046
-1.28385e-06
5.87975e-05
7.66778e-05
9.39411e-06
-6.227e-05
5.28758e-05
-1.00738e-05
0.000147444
-0.000199319
0.000164408
-0.000105073
0.000324521
0.000140848
9.12631e-05
3.03018e-05
0.000105776
-6.95505e-05
5.68451e-05
4.94235e-05
3.79172e-05
6.33833e-05
4.80307e-05
1.66398e-05
0.000124762
1.20945e-05
-9.66427e-05
8.62889e-06
8.80138e-05
-4.21819e-06
-0.000128057
0.000159623
-0.000230297
8.2844e-05
-0.000147453
0.000347446
-0.000199993
-6.28841e-05
-3.10126e-05
0.000173819
0.000119437
-7.97543e-06
-0.000111462
0.000149276
-0.000110844
-8.88809e-05
0.00012134
-3.24589e-05
5.2662e-05
-4.82821e-05
-4.3804e-06
2.36825e-06
-6.4871e-05
-1.57734e-07
-5.22296e-05
5.23869e-05
4.67908e-05
-1.85146e-05
-2.82762e-05
4.09587e-05
5.18421e-06
-9.21982e-05
4.34873e-06
0.000110751
-1.45828e-05
-0.000179249
-0.000147843
-4.35975e-05
0.00019144
3.15659e-05
-0.000185016
0.000205793
-9.7946e-05
5.8202e-05
-3.68231e-05
-2.13793e-05
2.64291e-05
-8.16163e-05
5.51871e-05
-5.62269e-05
-4.6304e-06
6.08573e-05
3.8815e-05
7.61323e-05
8.99329e-05
-4.80132e-05
-8.36564e-05
-4.06588e-05
6.16554e-05
6.89214e-05
-6.25023e-05
4.5951e-05
8.09855e-06
-5.40497e-05
-5.9284e-05
3.50331e-06
5.29095e-05
-0.000100419
-0.000130507
8.912e-05
7.24382e-06
-0.000175068
4.57645e-05
-8.5233e-05
6.85344e-05
0.000142441
-0.000177891
5.07137e-06
6.03841e-06
-3.7187e-05
3.11485e-05
0.000232061
4.99549e-05
-8.32457e-05
8.73408e-05
-4.04843e-05
-4.68566e-05
-0.000204268
-0.000215833
0.000124276
9.15575e-05
-1.80459e-05
-9.00185e-05
0.000211258
2.55112e-05
-2.80704e-05
-3.64189e-05
6.97096e-05
-3.32907e-05
5.07563e-06
-0.000264795
-0.000148803
5.12363e-05
-4.50511e-06
1.88247e-05
-5.98117e-05
4.0987e-05
2.67728e-05
-0.000138309
7.68917e-05
7.6024e-05
-5.18126e-05
-3.52035e-05
-3.85933e-05
7.37968e-05
3.32361e-05
6.25958e-05
4.19197e-05
0.000104516
-3.94684e-05
-6.50473e-05
-6.27853e-06
0.000105971
-9.96921e-05
4.76602e-05
-0.000126476
7.88158e-05
-3.56067e-05
-6.01652e-05
6.90281e-05
-8.86301e-06
-4.25171e-05
-8.34695e-05
-4.86401e-05
-0.000251585
0.000300225
-5.12559e-05
5.74211e-05
-6.16521e-06
0.000136078
-3.09672e-06
-0.000132981
-5.34341e-05
-8.3936e-05
0.00013737
0.000283449
-0.000139114
7.32194e-05
6.58943e-05
5.40619e-05
-0.000202945
0.00010422
7.77671e-05
0.000129093
-9.16634e-05
0.000152999
1.50185e-05
-8.54197e-05
7.04013e-05
-2.36396e-05
0.000120918
-9.72786e-05
-8.38737e-05
-0.000102152
2.4789e-05
7.73628e-05
-5.7337e-05
-2.81688e-05
8.55051e-05
4.887e-05
-5.57805e-05
-0.000105049
4.2534e-05
6.25143e-05
-6.31602e-05
9.98974e-05
-0.000233832
5.8554e-05
-0.00020683
9.654e-05
-3.65589e-05
-5.1683e-05
8.82412e-05
6.41929e-06
-5.84242e-05
-0.000252397
0.000259306
-0.000142307
0.000285032
-0.000142725
8.39848e-06
0.000166683
-0.000209658
9.10942e-05
1.43195e-05
-0.000191842
-0.000166676
-4.21187e-05
-0.000172807
0.000167626
0.000268142
-0.000155436
-3.73053e-05
-9.80218e-05
0.000113499
-3.49099e-05
-0.000131675
3.15208e-05
-9.17067e-05
-2.29474e-05
0.000124729
-0.000101781
-0.000153027
-2.40061e-06
5.00284e-05
-9.2835e-05
2.09967e-05
-7.6968e-05
-2.41769e-05
-3.75047e-05
6.16815e-05
0.000145927
-0.000149227
0.000253613
-3.94798e-05
5.81943e-05
7.20079e-05
-0.000130202
3.84451e-05
-5.47052e-05
-7.80926e-05
-0.000207953
-0.000172429
0.000122501
9.42714e-07
-0.000113913
0.000184696
-0.000118273
7.61337e-05
-8.65865e-05
0.000109982
-2.33956e-05
9.39336e-05
4.38178e-05
-0.000137752
0.000112706
0.000185462
0.000181068
-3.29607e-05
9.08538e-05
-5.78931e-05
7.35545e-05
0.000137981
-9.26528e-05
-0.000144221
-9.85048e-05
-4.93217e-05
0.000202731
6.61089e-05
-9.36729e-05
2.42113e-05
-6.24131e-05
3.82018e-05
-4.01319e-05
-2.62079e-05
-0.000205589
-0.000149224
-4.88448e-05
-0.000108876
2.98034e-05
-1.79567e-05
0.000109639
-9.16819e-05
-3.14036e-05
1.90015e-05
2.81557e-05
-4.71576e-05
1.80482e-06
9.61684e-05
-1.2948e-05
-0.00022144
-5.81113e-05
0.000147756
0.000135518
7.21262e-05
-0.00025811
-0.000210295
0.000194226
6.23075e-05
8.47603e-05
-0.000107943
-0.000150951
4.63703e-05
6.34523e-05
-4.07525e-05
0.000444069
-0.000322799
-5.99062e-05
-0.000209665
-0.000199258
0.000109525
8.97329e-05
-0.000150439
-1.43589e-05
-9.59836e-05
-0.000113691
0.000123822
-1.01305e-05
6.79992e-05
-0.000142029
7.40301e-05
-7.62789e-05
3.79901e-05
-6.11773e-05
5.18272e-05
9.35005e-06
-0.000185501
5.63596e-05
-2.44485e-05
-3.19117e-05
-5.48072e-05
6.17174e-05
-6.91049e-06
-0.000169341
-0.000152072
-8.11799e-05
-7.41916e-05
0.000155371
8.9537e-05
-5.84424e-05
0.000238874
0.000169687
-0.000366293
5.13498e-05
9.13348e-05
-0.000149937
-0.000187382
-0.000154123
-6.41583e-05
4.86068e-05
1.55511e-05
7.12626e-05
-8.11668e-05
0.000275406
4.50261e-05
0.000216671
-0.000261697
-0.000279551
9.574e-05
1.96819e-05
-9.54252e-05
7.57431e-05
1.52965e-05
5.79428e-05
0.000196852
-0.000245463
4.86103e-05
-0.000176562
-9.8562e-05
0.000181472
-0.000269571
-0.000334471
-0.000136858
0.00014547
-0.000507346
-9.29766e-05
5.85275e-05
6.32587e-05
0.000124438
-0.000129542
5.10389e-06
0.000163156
2.50539e-05
-0.00018821
-0.000187061
-0.000351594
5.36571e-05
7.55554e-05
-5.09122e-05
-4.9129e-05
0.000100041
-3.80527e-06
-0.000252538
-0.000242304
0.000298168
-0.000164089
5.89507e-05
-0.000238153
-0.000178607
0.000208908
-3.03008e-05
-2.86309e-05
3.82319e-06
-4.28062e-05
-8.85834e-05
6.05783e-05
0.000347149
-9.45418e-05
0.000258171
-0.000259155
0.000524015
-0.000660641
-0.000254299
1.62084e-05
0.00022287
-0.000223732
8.62082e-07
-7.23422e-05
-7.50384e-05
-2.70079e-05
-2.13647e-05
-3.93797e-05
5.25668e-05
-1.31875e-05
-0.000121039
8.56453e-05
0.000137292
-0.000192638
0.000213112
0.000148769
-0.000150093
1.32382e-06
-0.000179202
-5.05985e-05
-0.0002298
7.86663e-05
-2.59673e-05
-0.000371031
0.000239079
4.2592e-05
-2.91102e-05
0.000281672
-0.000252561
-0.000311517
0.00028722
-0.000275123
-3.34732e-06
0.000278471
-9.48337e-05
-0.000159164
0.000253998
-4.62379e-05
0.000240303
-0.000167824
0.000221059
-0.000261585
4.0526e-05
-0.000515026
2.90989e-05
3.81454e-05
3.67379e-05
-8.78489e-05
-0.000173432
4.88905e-05
0.000135113
-2.1876e-05
0.000190279
4.23637e-05
-0.000232643
-0.00023809
0.000270443
-0.000150215
0.00019127
7.00579e-05
-2.71744e-05
8.78705e-05
-7.93582e-07
0.000129397
-8.68161e-05
-4.25821e-05
-6.6863e-05
-2.73154e-05
0.000192863
5.92079e-05
6.57069e-05
0.000236083
-0.00015964
-9.5845e-05
3.10946e-05
0.000107085
-0.000177808
0.000355793
-9.95296e-05
-0.000151632
-0.000132586
0.000306035
0.000537849
0.000767753
-0.000632195
6.37722e-05
0.000102964
-0.0003217
0.000104386
0.000217314
-7.00335e-06
-0.00025857
-0.000132943
0.000112921
-7.95553e-05
7.01301e-05
9.42465e-06
3.63505e-06
-6.51175e-05
6.1482e-05
-2.61248e-05
-3.66426e-05
6.88385e-05
-9.15492e-05
-7.30349e-05
-0.000131235
-0.000215226
-1.01361e-05
-0.000137974
0.000132171
1.30858e-05
-2.94697e-05
-2.06494e-05
-8.673e-05
5.69318e-06
-0.000247216
0.000241523
-0.000248996
0.000307107
2.4541e-05
-0.000668966
-0.00029857
3.23531e-05
7.10375e-05
0.000194534
-0.000265572
0.000211536
-3.54477e-05
-0.000176088
-0.00026896
-0.000166509
-8.16716e-05
0.000380946
-0.000224345
-9.89092e-05
0.000323254
-7.29363e-05
0.000269234
0.000596169
0.000293436
-0.00022459
0.000125547
-0.000246774
-0.000378737
0.000136857
-7.21062e-05
-6.47503e-05
4.10548e-05
0.0001673
0.000276008
-0.000285206
-9.03293e-05
-3.58168e-05
0.000524908
-0.000371537
-0.000153371
0.000454612
1.22582e-06
0.000129664
5.9558e-05
-3.72143e-05
-2.23446e-05
6.63178e-05
-3.61876e-05
-7.38525e-05
7.74963e-05
0.000231254
-0.000201928
-2.93262e-05
-6.63397e-05
2.49616e-05
4.13781e-05
-7.20489e-05
9.43994e-05
-2.23504e-05
-0.000580402
0.000113237
-2.07318e-05
-9.25048e-05
-4.50142e-06
0.000251238
0.000187591
-9.39684e-05
0.000125776
0.000134079
-0.000259855
0.000142806
2.46594e-05
-0.000167466
-0.000219882
0.000145458
0.00027953
-5.46587e-05
-9.68104e-05
-4.75906e-05
4.51852e-05
-8.82217e-05
4.30365e-05
-0.000638632
-5.72748e-06
-6.31223e-05
4.15442e-05
-0.000260204
4.58048e-05
0.000214398
0.00015724
-0.000438376
-0.000109436
-2.14544e-05
0.00013089
-5.05555e-05
0.000113646
-0.00016489
2.14004e-05
0.000302719
-0.000208533
-9.41853e-05
-8.43277e-05
6.31603e-05
-8.91911e-05
4.35979e-05
-6.85389e-05
0.000386995
0.00070152
0.000122569
-0.000131122
-0.000245115
-6.41916e-05
-8.0663e-05
0.00013923
-0.000244056