/*--------------------------------*- C++ -*----------------------------------*\
| =========                 |                                                 |
| \\      /  F ield         | OpenFOAM: The Open Source CFD Toolbox           |
|  \\    /   O peration     | Version:  v2012                                 |
|   \\  /    A nd           | Website:  www.openfoam.com                      |
|    \\/     M anipulation  |                                                 |
\*---------------------------------------------------------------------------*/
FoamFile
{
    version     2.0;
    format      ascii;
    class       volVectorField;
    location    "500";
    object      U;
}
// * * * * * * * * * * * * * * * * * * * * * * * * * * * * * * * * * * * * * //

dimensions      [0 1 -1 0 0 0 0];


internalField   nonuniform List<vector> 
61389
(
(0.95081 -0.440607 -4.36801e-21)
(0.0998908 -0.249786 8.39694e-21)
(0.126397 -0.293653 -1.12096e-20)
(-0.1329 -0.0820011 -1.83465e-21)
(-0.191934 0.0106414 0)
(-0.375017 -0.036982 6.35725e-22)
(0.081044 0.147743 -4.3815e-21)
(-0.396897 -0.0413123 0)
(-0.0904691 0.00830222 0)
(-0.210238 0.0100042 -4.07925e-22)
(-0.222826 0.0133211 -1.1213e-20)
(0.108049 0.196402 -1.66163e-20)
(0.172376 -0.348999 0)
(0.241798 -0.406437 -1.00656e-20)
(-0.421256 -0.0447283 2.54712e-21)
(-0.225092 0.0138423 9.10353e-21)
(0.149663 0.251559 -4.45297e-21)
(0.315302 -0.455363 -1.24549e-23)
(-0.437966 -0.0532498 -2.01786e-21)
(-0.225942 0.0141287 1.65853e-20)
(0.209454 0.309472 -1.59622e-20)
(0.395442 -0.495785 -1.70291e-20)
(-0.439228 -0.0643282 2.88513e-21)
(-0.22376 0.0117996 0)
(-0.234511 0.0127391 0)
(0.274201 0.359375 1.63569e-20)
(0.481252 -0.520316 5.44627e-21)
(-0.419593 -0.0771611 0)
(0.353367 0.405401 1.11106e-20)
(0.571225 -0.534923 1.29776e-20)
(-0.351605 -0.0865877 0)
(-0.25598 -0.0985467 -2.01075e-22)
(-0.25306 -0.0120502 2.77592e-20)
(0.437077 0.437886 0)
(0.660841 -0.536958 0)
(0.748573 -0.525315 0)
(-0.249861 -0.0164852 -2.26153e-20)
(0.522686 0.46753 0)
(0.204143 0.0111304 7.30448e-21)
(-0.0869754 -0.0913805 0)
(0.10277 -0.0246122 4.35333e-21)
(0.695701 0.474902 0)
(0.608826 0.476815 -2.65043e-21)
(0.830395 -0.499549 4.3561e-22)
(0.0286498 -0.0753532 -4.6324e-21)
(0.121278 -0.0394997 -7.04365e-20)
(0.894844 -0.470747 0)
(0.434562 -0.127338 2.92326e-20)
(0.219129 -0.141098 0)
(0.773055 0.46124 -1.53598e-21)
(0.388101 0.0611616 0)
(0.842258 0.439445 0)
(0.999213 -0.404025 -1.53582e-21)
(1.05808 -0.348064 1.88442e-21)
(0.781968 0.0731941 0)
(0.646776 0.0107839 -1.14424e-21)
(0.627425 0.117771 -1.08495e-21)
(0.902308 0.410784 -3.57947e-22)
(0.861857 0.0064226 6.31177e-21)
(0.955 0.378681 0)
(1.08703 -0.307266 0)
(0.867418 0.132123 1.55994e-20)
(0.930743 -0.0696491 0)
(1.04774 0.29378 9.51106e-21)
(1.017 0.329434 1.72731e-20)
(1.10736 -0.271705 0)
(1.12467 -0.23434 4.44735e-20)
(0.913589 0.159812 -1.27396e-20)
(0.966521 -0.103546 -6.88889e-22)
(0.979559 -0.0966608 0)
(1.15365 -0.138124 0)
(0.955533 0.186788 5.68443e-22)
(1.07268 0.258709 1.01006e-20)
(1.01771 0.194524 1.71983e-20)
(0.977119 -0.092776 -5.70025e-22)
(1.09223 0.223132 9.27287e-21)
(1.14352 -0.183376 -2.03522e-20)
(1.08156 0.122483 -1.14395e-21)
(0.990065 -0.112127 4.64013e-22)
(1.11365 0.175583 5.10468e-20)
(1.15483 -0.0962814 1.43282e-20)
(1.00553 0.0610317 -1.54067e-21)
(1.04646 0.0429913 -1.60643e-21)
(1.03406 -0.117411 0)
(1.12607 0.131571 -3.78659e-21)
(1.15094 -0.0586127 7.12526e-21)
(1.03977 -0.0738294 0)
(1.13151 0.0914798 5.05188e-20)
(1.13826 -0.0164808 0)
(1.02493 0.0882946 0)
(1.04511 -0.080731 1.98074e-20)
(1.12958 0.0553013 0)
(1.05377 0.0735148 2.9108e-20)
(1.12098 0.0139351 6.40927e-20)
(1.0003 0.000619531 1.18808e-21)
(1.00033 0.00068888 -5.33616e-22)
(1.00022 0.00133808 -9.91256e-22)
(1.00024 0.00132654 8.16063e-22)
(0.999014 0.000547454 0)
(0.999073 0.000645817 0)
(0.999163 0.000752018 -3.7643e-21)
(0.999256 0.000792621 -5.21987e-21)
(1.00514 0.00115588 -2.16204e-21)
(1.0054 0.00207144 2.13673e-20)
(0.996378 0.000457426 -1.01214e-20)
(0.996778 0.000750268 7.55982e-21)
(0.997156 0.000480716 0)
(1.00057 0.00100009 -1.59661e-22)
(1.00056 0.00100086 -7.45258e-24)
(1.0079 0.00404478 1.70921e-20)
(1.00705 0.00389176 -1.15801e-20)
(1.00064 0.000967656 0)
(1.00063 0.00096693 0)
(1.00059 0.00100561 1.40999e-22)
(1.00058 0.00100609 1.93976e-22)
(1.00647 -0.0026886 -1.72135e-20)
(1.0075 -0.000781668 -1.8971e-20)
(1.00106 0.00105438 -3.16601e-23)
(1.0012 0.00106475 6.24926e-25)
(1.00117 0.00105927 3.58981e-24)
(1.01403 -0.00624485 -2.17507e-20)
(1.0006 0.000997571 -1.41546e-22)
(1.0006 0.000995788 -1.4408e-23)
(1.00053 0.00114842 5.18588e-24)
(1.00056 0.00116022 2.04373e-23)
(1.00021 0.00142185 3.3211e-23)
(1.0002 0.00141798 7.20587e-23)
(1.00022 0.00143129 -7.53845e-23)
(1.00026 0.00141659 6.76766e-23)
(1.00051 0.000965769 -2.62301e-22)
(1.00052 0.000900396 4.68496e-22)
(1.00017 0.00151781 -3.83929e-23)
(1.00025 0.00152009 3.61145e-22)
(0.999957 0.00157181 -2.38636e-23)
(1.00059 0.0010461 0)
(1.00054 0.00105885 1.64601e-22)
(1.00089 0.00109102 0)
(1.00098 0.00108691 2.84856e-22)
(1.00038 0.00117055 0)
(1.00035 0.00118141 1.69672e-22)
(1.00803 0.00130618 0)
(1.00827 0.00128622 -3.32085e-22)
(0.982844 0.00279177 3.55198e-22)
(0.983022 0.00289443 3.65692e-23)
(1.00041 0.0014224 0)
(1.00039 0.001426 8.56444e-22)
(0.99762 0.0174745 2.22351e-21)
(1.00019 0.016353 -4.61312e-22)
(1.00055 0.00154685 0)
(1.00055 0.00153919 0)
(0.995728 -0.00415283 0)
(0.996029 -0.00433128 0)
(1.00007 0.00168211 1.86678e-21)
(1.00007 0.00173573 -2.11388e-21)
(0.983875 0.00261781 2.56985e-22)
(0.99208 0.00346161 -3.26013e-22)
(0.986787 0.00369008 1.69173e-22)
(0.983747 0.00121229 -1.95418e-22)
(0.983826 0.000975158 -7.79443e-22)
(1.00011 0.00125425 3.32646e-22)
(0.999969 0.00118547 0)
(1.00259 0.00300584 -6.31267e-22)
(0.996954 0.00170108 -9.1719e-22)
(0.99737 0.00181083 -3.77409e-22)
(0.999977 0.00168054 0)
(0.999966 0.00166686 -5.79821e-22)
(0.999811 0.00187077 -9.05943e-22)
(0.999867 0.00188728 -8.19833e-22)
(0.987812 0.00448501 7.59489e-22)
(0.989066 0.00425101 0)
(0.995858 0.00439898 -4.37062e-23)
(0.9959 0.00433951 1.59027e-22)
(0.935049 -0.0191583 4.13899e-20)
(0.934685 -0.01094 0)
(0.958862 0.00310049 -1.01699e-21)
(0.95872 0.00340264 1.26194e-21)
(0.958373 0.00406484 1.35551e-21)
(1.00179 0.0031565 -1.49105e-21)
(1.00176 0.00319063 -1.45812e-21)
(1.0013 0.00288405 4.1606e-22)
(1.0013 0.00290667 0)
(0.995093 0.00601301 -1.43157e-22)
(0.994824 0.00603528 2.83854e-22)
(0.960033 0.00627291 -9.34529e-22)
(0.957492 0.00584548 1.15775e-21)
(1.00167 0.00445501 2.09093e-21)
(1.00163 0.0042749 -3.11596e-21)
(1.00144 0.0108848 0)
(1.00146 0.0106851 -4.04144e-22)
(0.994344 0.0451929 1.01089e-21)
(0.992069 0.0456163 0)
(0.984039 0.000804267 2.23195e-21)
(0.983349 0.000856996 -5.67004e-21)
(0.994992 0.0115763 1.36667e-21)
(0.995015 0.0114725 0)
(0.978729 0.00468976 5.54522e-21)
(0.97916 0.00499795 -5.35594e-21)
(0.991365 0.020379 5.21791e-21)
(0.990871 0.0214236 -1.06703e-21)
(1.01779 -0.0724259 5.37683e-21)
(1.01548 -0.0732803 -1.10428e-20)
(1.0132 -0.071742 2.66442e-21)
(1.03001 -0.0241253 -3.40851e-23)
(1.02906 -0.0247879 0)
(0.973021 -0.0330392 -2.09334e-21)
(0.974875 -0.0330227 -4.83177e-22)
(0.980447 -0.0552232 9.98848e-23)
(0.983196 -0.0537598 0)
(1.00197 0.0372541 0)
(1.00079 0.0371756 -8.14976e-22)
(1.01968 0.0246391 5.62943e-21)
(1.01945 0.0253788 2.48608e-21)
(0.995177 -0.0105813 0)
(1.02485 -0.0357471 3.07135e-21)
(1.02575 -0.035456 0)
(1.01262 -0.0211085 3.55376e-21)
(1.01347 -0.0216977 0)
(1.00472 -0.0467775 -4.79976e-21)
(1.00465 -0.0483535 0)
(1.01544 -0.0301978 2.08792e-21)
(1.01514 -0.0310669 0)
(1.00691 -0.0202336 -2.07196e-21)
(1.01262 -0.0238915 -2.83497e-21)
(1.0131 0.0243054 0)
(1.01338 0.0242096 0)
(1.01356 0.0237496 -4.45387e-21)
(1.02552 -0.00590721 0)
(1.02615 -0.00611057 0)
(1.02378 -0.00233935 -3.57361e-21)
(1.02401 -0.00184827 -6.72315e-21)
(1.05923 -0.00545302 -1.96508e-20)
(1.05969 -0.00675231 1.48719e-20)
(1.0586 0.047224 -2.69213e-20)
(1.03341 0.0198124 4.70982e-21)
(1.03411 0.0199354 -1.29072e-20)
(1.1072 -0.10086 -1.87926e-22)
(1.11055 -0.0994546 1.43202e-20)
(1.06659 -0.00288921 2.48087e-20)
(1.00493 0.0422166 1.31088e-21)
(1.00411 0.0420093 7.21153e-22)
(1.04458 -0.0584704 0)
(1.04418 -0.0601472 0)
(1.06707 -0.0538815 5.93803e-21)
(1.06609 -0.0528106 0)
(1.09192 -0.255473 0)
(1.08741 -0.24823 0)
(1.10722 -0.250977 -2.08041e-20)
(1.03108 0.0684602 0)
(1.03326 0.0660552 0)
(0.998508 0.156586 0)
(1.00702 0.14545 5.5771e-21)
(1.04488 -0.0298367 -6.28316e-21)
(0.706075 0.174795 2.37023e-20)
(0.696214 0.159067 -4.58547e-20)
(0.971217 0.0464162 -5.90298e-21)
(0.877884 0.0601243 0)
(1.01353 0.0740075 2.90711e-21)
(1.00728 0.0738065 -2.54131e-21)
(0.915104 0.356429 1.65696e-22)
(0.930684 0.347569 8.76413e-22)
(0.013993 -0.0782977 0)
(0.0569783 -0.0821699 -2.24898e-21)
(-0.355911 -0.0672123 1.36772e-21)
(-0.314984 -0.060341 0)
(-0.338445 -0.0998388 0)
(-0.330647 -0.0968238 -1.38756e-21)
(-0.390716 -0.0812458 -3.82562e-21)
(-0.397287 -0.0714294 5.91233e-22)
(0.142989 -0.0413108 -4.42525e-24)
(0.0811072 -0.0790834 -3.45678e-21)
(0.0839767 -0.0753149 3.50171e-21)
(0.0731229 -0.0818416 4.26896e-21)
(0.0658444 -0.0398438 0)
(0.0734236 -0.0332475 5.56727e-21)
(0.0808899 -0.0682163 0)
(0.330299 0.380538 -1.91475e-20)
(0.342055 0.341687 1.55701e-20)
(0.361197 0.253847 -1.27941e-20)
(0.315851 0.246045 0)
(0.321086 -0.0316064 -3.13035e-21)
(0.599588 0.0185278 1.2074e-21)
(0.449492 0.000289008 4.09653e-21)
(0.537819 -0.0246752 1.00358e-21)
(1.02657 -0.104323 7.09643e-21)
(1.0228 -0.10777 -5.15663e-21)
(1.01838 -0.137561 5.05509e-21)
(1.01705 -0.132658 -4.83859e-21)
(1.04893 -0.0703196 -5.56529e-21)
(1.04689 -0.067564 6.6093e-21)
(1.02757 -0.0574333 5.80572e-21)
(1.02628 -0.055515 -9.12578e-22)
(1.02949 0.06938 0)
(1.05878 0.0980326 -7.70024e-21)
(1.05409 0.120372 0)
(1.14285 -0.0654098 0)
(1.142 -0.0611086 0)
(1.03104 -0.00110276 6.82003e-21)
(1.03025 -0.000573297 7.0217e-21)
(1.09669 0.0424961 2.42645e-20)
(1.09298 0.0439752 -4.36355e-21)
(1.05614 -0.020694 0)
(1.05652 -0.0229281 1.22209e-20)
(0.984575 0.0779332 0)
(0.978086 0.077929 -5.96484e-21)
(1.03897 -0.0237214 5.1243e-21)
(1.03959 -0.0245462 -9.6006e-21)
(1.0365 -0.0284511 -2.30173e-21)
(1.03724 -0.0292245 0)
(1.04165 -0.0226557 0)
(1.04232 -0.024435 1.24062e-20)
(1.0517 -0.0665029 1.23876e-20)
(1.05362 -0.0643715 1.3485e-20)
(0.960227 -0.00302708 1.88068e-21)
(0.962458 -0.00288554 0)
(1.02629 -0.0239797 0)
(1.02795 -0.024774 0)
(1.00049 -0.0138181 -2.96239e-21)
(0.999953 -0.0134422 -1.3864e-21)
(0.991992 0.0107508 -2.51741e-21)
(0.991913 0.0121311 -3.49835e-21)
(1.00092 0.00481883 1.79989e-21)
(1.00047 0.00497103 -4.05131e-21)
(1.00521 0.00327108 -1.89407e-23)
(1.0048 0.00345769 0)
(0.999466 0.00215517 -1.48117e-21)
(0.999809 0.00222979 4.66717e-22)
(0.999742 0.00285301 -1.96352e-22)
(0.999797 0.00296344 0)
(1.00005 0.00285344 0)
(1.00001 0.0029709 2.42579e-21)
(1.00125 0.00201112 1.39648e-21)
(1.00113 0.00207968 0)
(0.949771 -0.00256596 -3.23611e-20)
(0.939105 -0.00810182 0)
(1.00545 0.00292816 0)
(1.00498 0.00270719 9.45896e-22)
(0.999649 0.00154281 6.93032e-22)
(0.999993 0.00148481 -6.27628e-22)
(0.958368 0.00966783 -1.3134e-21)
(0.952072 0.00440105 0)
(0.998903 0.001725 -5.86186e-22)
(0.999063 0.00179054 1.37799e-21)
(1.01587 0.00543856 0)
(1.01432 0.00719527 -1.48675e-20)
(1.00861 -0.0209053 -1.06645e-21)
(1.00473 -0.0215424 6.85047e-21)
(1.00059 0.00112082 1.52272e-22)
(1.00066 0.00114372 -1.81842e-22)
(1.00047 0.0010176 1.09647e-22)
(1.00047 0.00101591 0)
(0.991569 0.0144664 -1.96861e-20)
(0.990486 0.0104531 3.28162e-21)
(1.00063 0.000985029 1.03819e-23)
(1.00064 0.000982214 1.20135e-23)
(1.0006 0.000943622 -6.27815e-23)
(1.00059 0.000933478 -1.62862e-23)
(0.999997 -1.68857e-05 -1.39393e-21)
(1.00001 -8.82588e-05 0)
(1.00004 -0.000159302 -2.97952e-21)
(1.00003 -0.000136496 -2.14499e-21)
(1.00002 -0.000103558 2.23849e-21)
(1.00031 0.000828582 0)
(1.00034 0.000827121 7.56988e-23)
(1.00043 0.000848881 -6.4996e-23)
(0.999929 0.000240633 -7.154e-21)
(0.999928 0.000321728 -7.09236e-21)
(1.00045 0.00102941 -6.96351e-21)
(1.00061 0.0011353 -6.91843e-21)
(1.00008 -0.000122728 1.57667e-21)
(1.00007 -0.000158405 -1.76601e-21)
(1.0004 0.00166468 2.54699e-21)
(1.00054 0.000928463 -1.21751e-22)
(1.00051 0.000918759 2.99824e-23)
(0.999876 0.000636577 -1.04505e-20)
(1.00045 -0.00263214 -2.13805e-21)
(1.0001 -0.00254925 1.51193e-21)
(1.00033 0.00114772 2.47501e-21)
(1.00032 0.00111836 -2.30662e-21)
(1.00028 0.00121686 -6.60315e-23)
(1.0003 0.00121788 1.48574e-22)
(1.00037 0.00110446 0)
(0.999788 0.00123078 4.44067e-21)
(0.999763 0.00114868 -2.47625e-21)
(1.00655 0.00469144 0)
(1.0083 0.00352439 0)
(0.998678 -9.51772e-06 6.1445e-21)
(0.998837 -0.000259965 0)
(1.00343 -0.000235529 8.95937e-21)
(1.00427 0.000169736 4.9966e-23)
(1.00517 -0.000632046 -2.09353e-20)
(1.0043 0.00533355 -8.00167e-21)
(1.0048 0.00519729 -1.51558e-20)
(1.00385 -0.0059565 -1.20834e-20)
(1.00286 -0.00590476 3.43521e-21)
(1.00004 0.00130485 0)
(1.00001 0.00124914 -2.94426e-21)
(0.999976 0.00150071 -1.07724e-21)
(0.999963 0.00147229 1.32491e-22)
(1.00008 0.00129047 2.56914e-23)
(1.0001 0.00129515 -1.68663e-21)
(0.999316 0.00130778 5.3168e-21)
(0.999115 0.00134848 1.75275e-22)
(0.999021 -0.00314758 2.10596e-21)
(0.999187 -0.0034108 0)
(0.999709 -0.00370559 0)
(1.00058 0.00100966 1.85753e-22)
(1.00057 0.0010089 -3.65194e-22)
(0.999706 0.00184043 0)
(0.99992 0.00186713 3.75299e-22)
(1.00058 0.00103408 -1.61067e-22)
(1.00058 0.00103683 2.90766e-23)
(1.0006 0.00106077 0)
(1.00061 0.00105583 0)
(1.00064 0.000979045 2.19205e-23)
(1.00064 0.000980136 2.55326e-23)
(1.00059 0.000992236 -2.23912e-23)
(1.00058 0.000993532 8.61166e-23)
(0.990012 0.00146083 5.53471e-24)
(0.990907 0.00146 6.09117e-24)
(1.00034 0.00123534 -5.85847e-22)
(1.00026 0.00124181 1.02898e-21)
(1.00203 0.00109304 0)
(1.00237 0.0011148 -1.78507e-22)
(1.0037 0.00780444 6.6964e-21)
(1.00331 0.00742609 4.42857e-21)
(1.00258 0.00132914 8.18653e-23)
(1.00289 0.00126725 -1.27304e-22)
(1.00061 0.000994306 1.38959e-22)
(1.00061 0.000992959 -7.01206e-23)
(0.994228 0.00147115 1.69678e-23)
(0.994034 0.00147403 0)
(0.995452 0.00114696 3.59364e-22)
(0.993573 0.00115447 -2.88047e-22)
(0.991075 0.00122116 -3.50059e-22)
(0.990641 0.00111424 0)
(1.00169 0.00116882 1.27439e-22)
(1.00171 0.00117151 -1.37116e-22)
(0.995313 0.00139405 0)
(1.00055 0.00100372 0)
(1.00057 0.00100383 1.68259e-22)
(1.0036 0.00173605 2.56687e-23)
(1.00124 0.00174449 9.61164e-23)
(1.00063 0.00100694 2.62632e-23)
(1.00167 0.00121546 0)
(1.00163 0.00124729 -2.20311e-23)
(1.00268 0.00752683 0)
(1.00287 0.00736665 -4.42856e-21)
(1.00052 0.00103814 0)
(1.00053 0.00103754 -1.13343e-22)
(1.00926 -0.0153698 -6.66471e-21)
(1.00757 -0.0150766 7.38588e-21)
(0.991116 0.000563021 0)
(0.991581 0.000536075 -1.35363e-23)
(0.991405 0.000478694 0)
(0.997957 0.00112036 0)
(0.997936 0.00101643 5.29808e-21)
(0.997908 0.000864006 -4.19859e-21)
(1.0007 0.00118655 -2.22486e-23)
(1.00061 0.00118051 2.68129e-23)
(1.00055 0.00112375 -1.19074e-22)
(1.00029 0.00121463 -1.91619e-22)
(1.00028 0.0012014 1.0631e-22)
(1.00318 0.00137213 -9.42081e-23)
(1.00422 0.00144134 -8.23379e-23)
(0.998445 0.00238086 -2.51028e-21)
(0.998556 0.002444 9.90777e-22)
(1.0007 0.00105369 -1.28396e-22)
(0.999295 0.00171127 5.22421e-22)
(0.999376 0.00175143 -4.19979e-22)
(1.00953 -0.00498487 -6.3098e-21)
(1.0087 -0.00412808 -3.3013e-20)
(0.998437 0.00207212 -5.26683e-22)
(0.998585 0.00213601 5.25144e-22)
(0.990157 4.88565e-05 -2.20727e-22)
(0.99054 -1.48656e-06 2.46686e-22)
(0.991303 0.000616103 0)
(0.991283 0.000623079 0)
(0.999986 0.00189311 3.08049e-23)
(0.999813 0.00181842 2.33535e-21)
(1.00027 0.00100807 2.9084e-22)
(1.00029 0.00100732 -2.27215e-22)
(0.997377 0.0012922 -5.00829e-22)
(0.99753 0.00128406 7.39005e-22)
(0.999579 0.00137614 6.56906e-22)
(0.998934 0.00136872 -2.14996e-22)
(1.00207 0.000969897 8.8999e-25)
(1.00218 0.000914432 1.62669e-22)
(0.998687 0.00176449 2.22642e-21)
(0.99863 0.00164861 -5.42156e-21)
(0.986311 0.009393 0)
(0.989785 0.00150744 -2.28454e-22)
(1.00044 0.001338 -3.02684e-23)
(1.00045 0.00134356 3.11296e-23)
(1.00043 0.00134805 -2.61709e-22)
(1.00361 0.00119705 2.00747e-22)
(1.00662 0.000908706 0)
(1.00597 0.000913697 0)
(1.00586 0.000873795 0)
(0.991996 0.000798726 -2.11889e-22)
(0.99271 0.000842418 -1.18478e-22)
(1.01402 -4.31218e-05 2.54219e-20)
(1.01301 -0.00196997 0)
(0.997235 0.00326497 1.21719e-21)
(0.997654 0.0033048 1.52301e-21)
(1.00039 0.00146233 0)
(1.00038 0.00146402 -5.89136e-22)
(0.991736 0.00211901 -2.22015e-23)
(0.992344 0.00214393 2.15506e-23)
(1.00063 0.00129985 3.47797e-22)
(1.00062 0.00129382 -5.18632e-22)
(1.0003 0.00127019 -3.85169e-22)
(1.0003 0.00126128 -3.78355e-22)
(1.00121 0.00142176 -2.26974e-22)
(1.00124 0.00144576 -7.13218e-22)
(1.00049 0.00114836 7.95571e-23)
(1.00047 0.00115619 -1.47283e-22)
(1.00025 0.00137083 0)
(1.00025 0.00136603 0)
(0.996377 0.00236191 1.4211e-22)
(0.991665 0.00232107 -4.16934e-22)
(1.00033 0.00136378 3.50502e-22)
(1.00033 0.00136762 -7.49531e-22)
(0.99947 0.0016379 3.28169e-23)
(0.99962 0.00162887 0)
(0.999511 0.00165322 0)
(1.00065 0.00142135 1.42283e-22)
(1.00064 0.00143325 -7.96167e-22)
(0.999364 0.00169448 0)
(1.00045 0.00158955 0)
(1.00037 0.00160881 0)
(1.00233 0.00185363 -3.08916e-22)
(1.00247 0.00184187 2.45503e-22)
(0.992343 -7.41685e-05 1.95802e-26)
(1.00059 0.00129528 4.80301e-23)
(1.00088 0.00174321 1.92655e-22)
(1.00087 0.00170581 0)
(1.00175 0.00162964 0)
(1.0005 0.00185801 0)
(1.0046 0.0155561 0)
(1.00476 0.0143963 0)
(1.0196 -0.0184085 2.19971e-20)
(1.01904 -0.0168836 1.14575e-20)
(0.996029 0.00133457 -5.40653e-23)
(0.981999 0.00370317 -4.22044e-23)
(0.982171 0.00385441 -1.12203e-21)
(0.999889 0.00159484 1.26444e-21)
(0.999743 0.00159437 -4.70124e-22)
(0.999025 0.0017678 3.63894e-22)
(0.999144 0.0017993 -3.38712e-22)
(1.00013 0.00147136 -1.46594e-22)
(1.00012 0.00147014 0)
(1.00021 0.00156925 -3.15626e-22)
(1.00023 0.00156763 0)
(1.01468 -0.0246085 -4.29307e-22)
(1.01365 -0.0258759 0)
(0.996503 0.00374414 -3.92423e-23)
(0.996854 0.00374424 -4.15415e-22)
(0.965619 0.00516414 -3.35871e-20)
(0.963168 0.00928283 3.43903e-20)
(0.99913 0.00141073 -1.08668e-21)
(0.998958 0.00138231 7.05692e-22)
(1.0097 -0.0337515 -1.1297e-20)
(1.00688 -0.0326412 1.25375e-20)
(0.996043 0.0236911 -7.9298e-21)
(0.997589 0.0205087 8.27223e-22)
(0.996362 -0.000451003 0)
(0.996267 -0.000600567 0)
(0.996357 -0.000668834 0)
(1.00019 0.00149431 2.39054e-22)
(0.996826 0.00177413 -3.10829e-22)
(0.996415 0.00183317 0)
(0.996122 0.0017545 9.19448e-24)
(1.00194 0.00115004 1.16814e-21)
(1.00197 0.00110546 7.6891e-22)
(0.996441 0.00436574 -3.89863e-22)
(0.996415 0.00433316 1.03525e-23)
(0.999756 0.00148924 5.18026e-22)
(0.999699 0.00149085 -8.64862e-22)
(1.00167 0.00274336 -1.20118e-21)
(0.996909 0.00230431 0)
(0.996975 0.00224931 0)
(0.983347 -0.00116928 4.0964e-23)
(0.980089 -0.000984749 8.38003e-22)
(1.00047 0.00137102 0)
(1.00009 0.00161379 0)
(1.0001 0.00162109 -6.45654e-22)
(0.999383 0.00241024 -8.24868e-22)
(0.999433 0.00242909 -1.20958e-23)
(0.994799 0.00143917 -4.97369e-22)
(0.994983 0.00139285 9.97718e-22)
(0.999918 0.00113184 9.71983e-22)
(1.0002 0.00112471 -5.64685e-22)
(0.970925 0.00334004 6.20538e-23)
(0.973101 0.00346297 -3.19402e-22)
(1.00391 0.000950774 -1.0055e-21)
(1.00386 0.000922048 -1.00016e-21)
(0.980499 -0.00169806 0)
(0.999653 0.0018199 0)
(0.999623 0.00178988 0)
(0.996621 0.00620397 1.00915e-22)
(0.997652 0.00606632 -1.49797e-22)
(0.993791 0.00296976 2.29517e-22)
(0.993575 0.00288935 2.32632e-22)
(0.999264 0.0021483 0)
(0.999299 0.00219143 -1.72344e-23)
(1.00232 0.00144366 0)
(1.00183 0.00146054 1.4543e-21)
(0.996412 0.00375012 2.16428e-22)
(0.99627 0.00383388 -3.78771e-22)
(1.00432 0.00223518 1.03344e-21)
(1.00447 0.00223184 -7.62635e-22)
(0.981946 0.00409054 -1.06714e-21)
(0.981348 0.00432465 3.38221e-22)
(1.00586 -0.00053534 0)
(1.00612 -0.000454407 -8.01435e-22)
(0.993389 0.00500214 0)
(0.993304 0.00496246 0)
(0.993147 0.00494087 0)
(1.00673 0.00275738 0)
(1.00688 0.00263876 0)
(0.999749 0.00144714 2.48925e-22)
(0.996623 -0.000505423 0)
(0.994572 0.00242818 -4.2212e-22)
(1.00662 0.00212921 0)
(0.997304 -0.00998971 -1.50868e-22)
(0.997632 -0.00956426 0)
(1.0023 0.00334408 -2.25835e-21)
(1.00255 0.00347076 1.4388e-21)
(0.99998 0.00260839 -1.21151e-21)
(1.00005 0.00264381 0)
(0.990301 0.00469209 0)
(0.990482 0.0047114 -4.41606e-22)
(1.00067 0.00897822 0)
(1.00135 0.00883103 2.30818e-22)
(1.00026 0.00253329 0)
(1.00153 0.00213542 -1.55388e-21)
(0.993808 0.00587941 -8.1254e-22)
(0.993963 0.00593177 4.8703e-22)
(0.996876 0.00354378 0)
(1.00378 0.00353286 1.11542e-21)
(1.00383 0.00348387 1.51495e-21)
(0.999938 0.00230474 3.97347e-24)
(0.999876 0.0023304 4.3141e-22)
(0.99982 0.00238046 -3.88003e-22)
(0.999005 0.00810735 -2.32589e-22)
(0.999854 0.00790354 0)
(0.969655 0.00244442 1.46256e-21)
(0.964864 0.0026354 -2.41376e-21)
(0.99873 0.00149923 -1.80204e-21)
(0.998635 0.0014185 1.59247e-21)
(0.998582 0.00140513 0)
(1.00569 0.00343426 1.37564e-21)
(1.0053 0.00326739 -1.08734e-21)
(0.998967 0.00174473 0)
(0.999096 0.00185583 0)
(0.996662 0.00759157 -1.8996e-23)
(0.997481 0.00743922 1.05108e-22)
(0.988829 0.00679506 -8.98752e-24)
(0.989051 0.00692396 -7.44726e-22)
(1.02218 -0.0256893 -1.25784e-20)
(1.02169 -0.0270148 -3.93433e-21)
(1.02086 -0.0271097 -3.71204e-21)
(0.999937 0.00784298 0)
(1.00168 0.00324427 1.38796e-21)
(0.996962 0.000557279 -4.15953e-21)
(0.996959 0.000643459 0)
(0.996868 0.000597211 0)
(0.993635 0.00690077 0)
(0.993478 0.00687209 3.11862e-22)
(0.999798 -0.0125777 5.34825e-22)
(1.00022 -0.0125743 1.21777e-21)
(1.01416 -0.0113164 4.16378e-21)
(1.01348 -0.0108006 -1.41755e-20)
(0.996431 -0.000464398 0)
(0.998093 0.000669909 -7.88693e-23)
(0.992749 0.00957021 1.85304e-21)
(0.992682 0.00944526 -9.55686e-22)
(1.00111 0.00332041 -1.37955e-22)
(1.03805 0.00255048 1.23286e-20)
(1.03736 0.00341692 -1.52492e-20)
(0.996601 0.00307972 2.31386e-21)
(0.996759 0.00297907 -4.78893e-21)
(1.00488 0.00335897 -1.30047e-22)
(0.996306 -0.000447445 -1.14285e-21)
(0.996207 -0.000286528 -2.29421e-21)
(0.997155 0.000246109 8.25523e-22)
(0.997218 0.00033019 -2.49163e-21)
(1.00381 0.00338843 0)
(0.996056 0.00425523 3.24557e-22)
(0.996379 0.00431669 -3.23424e-22)
(0.991384 0.00748133 6.28241e-22)
(0.99158 0.00809961 1.74275e-21)
(0.99266 0.0110806 8.954e-22)
(0.992873 0.0109802 9.62483e-22)
(0.993436 0.0054098 0)
(0.98506 0.00762975 0)
(0.98478 0.00849643 -1.87686e-21)
(0.992431 0.00759986 9.99816e-24)
(1.01467 -0.0535802 9.1276e-21)
(1.0171 -0.0527809 -1.27797e-20)
(0.99264 0.0180232 4.83829e-21)
(0.992784 0.0178683 -2.96543e-21)
(0.992807 0.0172855 4.92075e-22)
(0.972131 0.0126952 2.37323e-22)
(0.971434 0.0123937 0)
(0.960416 -0.000326573 0)
(0.962865 -0.0014114 0)
(0.963344 -0.00213675 5.61175e-21)
(0.998478 0.00208129 0)
(0.992533 0.013411 -3.39454e-21)
(0.992752 0.013731 7.48315e-22)
(1.00232 0.0130859 8.674e-23)
(1.00176 0.012801 -2.52759e-22)
(0.975806 0.00760913 2.42504e-21)
(0.973411 0.0072498 -2.42506e-21)
(0.99493 0.0114835 -1.55357e-21)
(0.994899 0.0114381 5.37066e-23)
(0.995 0.0118698 2.05414e-22)
(0.99496 0.0117108 0)
(0.994901 0.00859659 0)
(0.985791 0.000644434 0)
(0.985288 0.000575657 -2.00939e-21)
(0.969426 0.00635355 0)
(0.970195 0.00653138 -4.34751e-21)
(0.99781 0.00438914 -2.15486e-21)
(0.992214 0.00661805 0)
(0.997459 0.0125336 3.44943e-22)
(0.996931 0.0126604 -2.07708e-21)
(0.955766 -0.0155989 4.46048e-21)
(0.957621 -0.0155993 -4.70899e-21)
(0.952735 -0.0112326 1.12893e-20)
(0.951346 -0.00988445 -6.13797e-21)
(0.999348 0.0180462 1.17718e-21)
(0.999609 0.018381 0)
(0.99381 -0.0200456 1.73338e-22)
(0.993547 -0.0204198 8.47206e-23)
(0.947931 0.0957744 4.71737e-21)
(0.949738 0.0870505 -6.48295e-21)
(0.915424 -0.00104781 5.96903e-23)
(0.921507 -0.00230351 4.34122e-21)
(0.985481 -0.044558 1.16036e-21)
(0.985074 -0.0452424 0)
(0.983437 -0.0458246 -1.14057e-21)
(0.989089 0.00525516 0)
(0.995665 -0.0168325 0)
(0.995573 -0.0165695 -4.31968e-24)
(0.992987 0.0201998 3.92148e-21)
(0.992773 0.0198569 -1.64978e-21)
(0.997258 -0.0143496 -2.24042e-22)
(0.997313 -0.014687 1.91659e-22)
(1.00899 0.0227509 0)
(1.00818 0.0224918 0)
(0.986149 0.0263668 0)
(0.986368 0.0252988 0)
(1.01395 0.0212198 4.50705e-21)
(1.01451 0.0206916 7.30082e-21)
(0.997443 -0.0182556 8.29934e-22)
(0.997664 -0.0181061 3.02228e-22)
(0.996695 -0.0157288 2.36605e-24)
(0.996696 -0.0159681 0)
(0.994604 0.0128759 2.13434e-21)
(1.00188 0.0264737 -8.09691e-22)
(1.00131 0.0268363 -7.12247e-22)
(0.986068 -0.0178985 1.24654e-21)
(0.9868 -0.0180081 -9.24761e-22)
(0.980517 0.00497184 0)
(1.01385 -0.0273308 2.62395e-21)
(1.01372 -0.0278661 -8.45649e-21)
(1.01424 -0.0284173 3.59087e-21)
(0.838809 -0.0209989 -3.2721e-21)
(0.834808 -0.0260208 3.0708e-20)
(1.00585 -0.0467541 -1.35037e-21)
(1.0069 -0.0461975 0)
(1.00695 -0.0453962 0)
(1.00203 -0.0226667 3.61199e-21)
(1.00223 -0.0230571 -2.39413e-21)
(1.00801 0.0236403 -1.00502e-21)
(1.00827 0.0241983 -4.73825e-22)
(1.01848 -0.0157601 0)
(1.01867 -0.0162992 -3.56148e-21)
(1.01928 -0.0163846 4.76765e-21)
(1.00113 -0.017845 1.10804e-21)
(1.00115 -0.0174353 1.00734e-21)
(0.995509 0.0334688 0)
(0.996114 0.0343774 3.58431e-21)
(1.05445 -0.0636092 -2.72735e-20)
(1.05645 -0.0630526 1.48574e-20)
(1.05706 -0.0646714 0)
(1.02254 0.00212121 -6.79798e-21)
(1.01119 0.0259924 2.42683e-21)
(1.0115 0.0254201 0)
(1.02009 0.0157381 0)
(1.0202 0.014988 0)
(1.0148 -0.0234671 -4.23538e-21)
(1.0142 -0.0234751 0)
(0.980381 0.0108867 2.25492e-20)
(0.997072 -0.0291677 -2.2631e-21)
(0.996297 -0.0292076 8.62223e-22)
(1.01403 -0.070016 4.07306e-21)
(1.0159 -0.0694386 1.27489e-20)
(1.02008 -0.0525985 2.60158e-21)
(1.02104 -0.0537309 0)
(0.995845 -0.00167079 1.22061e-21)
(1.02807 0.038525 7.97078e-21)
(1.02902 0.038291 -2.13815e-21)
(0.998654 0.0185469 -1.04066e-21)
(1.02055 0.0513589 0)
(1.02129 0.049978 0)
(0.999767 -0.0168116 0)
(1.00316 -0.0877596 -7.14104e-21)
(1.00671 -0.0896979 4.56508e-21)
(1.0023 0.101531 -1.96926e-22)
(1.00993 0.100969 2.65682e-22)
(1.04524 -0.0200884 0)
(1.04412 -0.0199173 5.25228e-21)
(1.0434 -0.0202691 0)
(1.04292 -0.0275683 2.54991e-23)
(1.04143 -0.0286297 5.65907e-21)
(0.934122 0.12153 2.13374e-20)
(0.934526 0.112247 -2.40178e-20)
(1.03652 -0.0276356 0)
(1.03568 -0.0292848 2.3016e-21)
(1.03409 0.0199341 0)
(1.03466 0.0201698 -6.61011e-21)
(1.02043 -0.0107842 1.23894e-21)
(1.02085 -0.0105986 0)
(0.976863 -0.0317688 5.80866e-21)
(1.02734 -0.0115853 0)
(1.02718 -0.012131 0)
(1.06387 0.0380114 0)
(1.06482 0.0376311 0)
(1.05779 -0.00537069 0)
(1.05585 -0.00460211 1.79281e-20)
(1.08595 0.039846 -1.46298e-20)
(1.08461 0.0406784 -7.09677e-21)
(1.02273 -0.00401612 -2.45674e-21)
(1.02318 -0.00386141 2.84672e-21)
(1.04573 0.00831441 0)
(1.04491 0.00876281 0)
(1.04487 0.00957729 1.2073e-20)
(1.04698 -0.0126095 1.11718e-20)
(1.04803 -0.0129354 0)
(1.09523 0.0391955 -6.19724e-21)
(1.09699 0.0393911 0)
(1.01701 0.0207235 3.93282e-24)
(1.01642 0.0208131 -4.76752e-21)
(1.08171 0.0485155 1.74961e-20)
(1.082 0.0470336 -1.79672e-20)
(1.04261 -0.0129463 0)
(1.04189 -0.0124219 -8.50505e-21)
(1.07549 -0.00578353 0)
(1.07637 -0.00386806 1.76143e-20)
(1.07157 -0.0404717 6.28799e-23)
(1.07136 -0.0390046 0)
(1.03819 -0.0634273 1.68832e-20)
(1.03347 -0.0571154 -1.08451e-20)
(1.02966 0.00363503 4.89001e-21)
(1.03014 0.00400019 7.93681e-21)
(1.04454 0.00314816 -1.96198e-21)
(1.04502 0.00360285 4.91671e-21)
(1.0203 0.02909 0)
(1.05179 0.0432862 4.63332e-21)
(1.06554 0.00525093 6.92988e-21)
(1.0656 0.00672848 8.49691e-23)
(1.06772 0.0275557 -1.2466e-20)
(0.825191 0.0337499 -5.96756e-21)
(0.829398 0.0262134 0)
(1.0153 0.0229724 -1.87756e-21)
(1.01544 0.0223773 4.48271e-21)
(1.00946 0.025214 -7.45051e-22)
(1.0094 0.0247123 5.47282e-22)
(1.12672 -0.010992 0)
(1.12818 -0.0146399 3.01089e-22)
(1.06467 -0.0254769 6.70554e-21)
(1.06282 -0.0245489 6.60564e-21)
(1.0959 -3.90469e-05 0)
(1.0943 0.000569603 -5.67176e-21)
(1.12322 -0.00381922 3.25811e-20)
(1.12508 -0.00699408 -8.12829e-21)
(1.0254 0.0377755 6.4459e-23)
(1.02574 0.0372526 -2.34579e-21)
(1.02582 0.0363375 -1.82758e-21)
(1.0504 0.00682156 0)
(1.05084 0.00722331 6.45111e-23)
(1.05282 -0.00905187 0)
(1.05279 -0.00829655 -5.67049e-21)
(1.04362 0.0113405 -2.73644e-21)
(1.04432 0.0108309 0)
(1.08875 -0.105223 1.16922e-20)
(1.09088 -0.107769 2.17441e-20)
(1.09016 -0.112456 1.46048e-20)
(1.07563 0.0425036 1.43898e-20)
(1.07602 0.0437526 -1.94811e-20)
(1.11134 -0.0959868 0)
(1.11525 -0.0938035 7.37909e-21)
(1.03058 0.0177246 -2.28074e-21)
(1.03022 0.0172364 -5.68737e-21)
(1.07064 -0.0172725 -8.08204e-21)
(1.06939 -0.017029 0)
(1.07366 0.0522287 2.20967e-20)
(1.1015 -0.0276009 -1.97913e-20)
(1.09924 -0.0251608 0)
(1.09776 0.0524068 6.58995e-21)
(1.0971 0.0505624 -1.20332e-20)
(0.991728 0.076648 0)
(0.989835 0.0779565 0)
(1.02784 0.0852414 1.358e-22)
(1.02556 0.0851113 -2.11355e-21)
(1.02502 0.0828844 4.49902e-21)
(1.03032 0.0367252 2.42975e-21)
(1.02944 0.0381097 -5.51579e-22)
(1.03849 -0.0214474 -1.16995e-21)
(1.03874 -0.020845 -4.70776e-21)
(1.06101 -0.0459492 -2.72388e-21)
(1.06126 -0.0473494 0)
(1.03498 0.172039 -3.28999e-21)
(1.02796 0.17417 -5.21775e-21)
(1.02174 0.168083 9.72867e-21)
(1.05089 0.0559168 0)
(1.04888 0.0548133 0)
(1.04069 0.029444 0)
(1.04155 0.0302548 0)
(1.05263 -0.0176836 0)
(1.05234 -0.0167746 -8.19609e-21)
(1.13628 -0.0612125 3.31457e-20)
(1.13669 -0.0643584 -1.64933e-20)
(1.01916 0.0192699 5.46657e-23)
(1.02483 -0.0856223 -3.95436e-21)
(1.02264 -0.0855097 1.96747e-22)
(1.03201 -0.0417262 2.37598e-21)
(1.03201 -0.0403089 4.06857e-21)
(1.03416 -0.032974 -4.99454e-21)
(1.03396 -0.0334578 3.63283e-21)
(1.05791 -0.062773 5.1998e-21)
(1.05793 -0.0644792 0)
(1.04441 -0.0177353 5.2098e-21)
(1.04455 -0.0172837 0)
(1.05424 0.10366 -1.65001e-20)
(1.05489 0.106861 4.28737e-21)
(1.02764 0.0165116 3.98572e-21)
(0.922228 0.0693936 1.16683e-20)
(0.921854 0.0635884 0)
(1.02045 0.0283805 3.34593e-21)
(1.0209 0.0287387 0)
(1.05821 -0.0080616 8.75374e-21)
(1.04234 0.0550989 -5.93599e-21)
(1.04234 0.0570224 -7.68859e-21)
(1.01214 0.0296883 -2.17357e-21)