/*--------------------------------*- C++ -*----------------------------------*\
| =========                 |                                                 |
| \\      /  F ield         | OpenFOAM: The Open Source CFD Toolbox           |
|  \\    /   O peration     | Version:  v2012                                 |
|   \\  /    A nd           | Website:  www.openfoam.com                      |
|    \\/     M anipulation  |                                                 |
\*---------------------------------------------------------------------------*/
FoamFile
{
    version     2.0;
    format      ascii;
    class       surfaceScalarField;
    location    "1.13";
    object      meshPhi;
}
// * * * * * * * * * * * * * * * * * * * * * * * * * * * * * * * * * * * * * //

dimensions      [0 3 -1 0 0 0 0];


internalField   nonuniform List<scalar> 
18811
(
0.00117996
0.00119231
-0.00120195
0.00479875
-0.000869685
0.00424039
0.00227204
0.00094054
0.00578326
0.00201657
0.00728462
0.00686089
-0.000662649
-0.00145209
0.00964742
0.00507362
-0.000659784
0.00299285
0.00600791
0.00777816
0.00573482
-0.00291151
0.00167751
0.00962912
0.00308857
0.00391793
0.00146679
0.00770285
0.00906086
-0.0043826
0.0147191
0.0122157
-0.00333791
0.00108727
-0.00410149
0.0153708
0.00698884
-0.00164896
0.00343472
-0.000381118
0.00147203
0.0073946
0.0116541
0.0105824
0.0124258
-0.00784674
0.00757411
-0.00322621
0.00294906
0.0135962
0.00274878
0.00531598
0.00308898
0.00127166
0.0111596
0.0159626
-0.00738751
0.0211157
-0.00817335
0.0220584
0.0176109
-0.00579027
0.00483346
-0.00341541
-0.00728965
0.0220035
-0.00162921
0.00777847
0.00512354
-0.00106788
0.00225725
2.24678e-05
0.00727956
0.00462198
0.00399966
0.0130249
0.0133964
0.0149235
0.0158011
-0.0116012
0.00977925
-0.00359396
-0.000590656
0.00798341
0.0148451
0.00421251
0.00319015
0.00544738
0.00187437
-0.000427008
0.00123175
0.0119422
0.00829746
0.0220253
-0.0148557
0.0290034
-0.0130425
0.0269237
-0.0111161
0.0276041
0.0175853
-0.00548073
0.00743879
-0.00764445
0.00222621
-0.00708924
0.0224367
-0.00104499
0.00573529
-0.000682734
0.00678556
-0.00160742
0.00406293
0.000339805
4.99458e-05
-0.00426497
0.0165042
0.00434003
0.00951746
0.0132829
0.00339518
0.01509
0.0160864
0.0208031
-0.0151327
0.0124285
-0.00459759
-0.00112017
0.0133258
0.00953054
0.0035321
0.00577926
0.0115966
0.000857619
-0.000114937
0.00144479
0.00272584
0.0146647
0.0232075
0.0167802
-0.0171213
0.0216524
0.0360702
-0.0208254
-0.0125686
0.0289702
0.0197757
0.00131433
-0.00303825
-0.0128501
0.0119709
0.00465516
-0.00259022
0.0293543
0.00383013
-0.000181687
-0.000268293
0.00647862
0.000428636
0.0115665
0.000344583
0.00168901
-8.63236e-05
-0.00067652
0.0156838
0.00364881
0.0196944
0.0209432
0.0264624
-0.00401229
0.0240709
0.0059603
0.0260111
0.0029961
0.0268269
-0.0186055
0.0182702
-0.00510854
-0.00345028
0.000591498
0.0178616
0.0114641
0.00398895
-0.00157611
0.00150394
0.00737296
0.0116263
0.000299338
0.000196863
0.000350839
-0.00303866
0.0193346
-0.00818125
0.0278097
0.0182482
-0.0250186
0.0220976
0.0240463
0.00024288
-0.0261536
0.0329658
0.0268495
-0.00570146
0.0319027
-0.00480129
-0.00603314
0.00426489
0.0132307
-0.0138368
-0.00254265
0.00943728
-0.00752699
0.0186767
-0.000178056
0.00425576
0.00168341
-0.000408192
-7.75751e-05
0.00763164
-0.00131819
0.0130922
-0.000285687
0.000530454
0.00709839
0.0122549
0.00201519
0.0254401
0.0203808
-0.00284392
-0.0262248
0.0269601
0.0458492
-0.00957278
0.0333311
-0.00735153
0.0263513
0.0233845
-0.0259469
0.0238382
0.0141445
-0.00632935
-0.0105165
0.00309902
0.0010935
0.0275847
0.00161151
0.00440075
0.00649514
0.00754658
0.00579995
0.0148725
-0.00857146
0.0206681
0.0141806
0.0107755
0.0115433
-0.0300883
0.0284423
0.0208228
0.0309427
-0.00487105
-0.0374564
0.0290986
0.022292
0.036011
-0.0110753
-0.009073
0.0313708
-0.00436049
-0.00808174
0.00547956
-0.0160866
0.00789201
-0.0107375
-0.00300908
-0.00683253
0.0335209
0.00121951
0.000287835
0.00404089
-0.000341137
0.00684781
-0.0041216
0.0101606
0.00456221
0.0102742
0.00363097
0.0167414
0.0253211
-0.0153898
0.0254067
-0.0079185
0.0405577
-0.0211783
0.0341017
0.0476743
-0.0192717
0.0437268
-0.0232017
0.0251782
0.0300384
0.023293
-0.0324478
0.0312391
0.0123158
-0.00382786
0.0232315
-0.0130198
0.00393377
0.00105558
0.0169776
0.00146252
0.00374375
0.00282281
0.00616874
0.00400642
0.0107665
0.0138553
0.0145216
0.00191264
0.0183977
0.00629638
0.0135554
0.0112406
-0.0316052
0.0249495
0.0239889
0.00941465
-0.0413279
0.0223532
-0.0105877
0.0339436
0.0360634
-0.0084567
-0.00967746
0.0316129
-0.00652464
0.00141026
-0.00965528
0.00875834
-0.0202629
0.00964823
-0.0137144
0.00579219
-0.001637
-0.00979968
0.0257707
0.00108889
0.0028553
0.00078419
0.00573197
-0.00350492
0.00753023
0.00340565
0.00722078
0.00314411
0.0105066
0.00100612
0.0131895
0.0197355
0.0192836
-0.0105186
0.0209508
-0.0159951
-0.0371563
0.0559005
-0.0377947
0.0413006
0.0478571
-0.0271897
0.023056
0.0224225
-0.0398181
0.0282738
0.020484
-0.0225159
0.0186392
-0.0223922
0.0257907
-0.000903723
-0.00230866
-0.0103291
0.00132076
0.0140933
0.0017411
0.00217134
0.00368684
0.00374142
0.00700543
0.010244
0.0113159
0.00129034
0.0115683
0.0111014
0.00817625
-0.00253519
0.0211774
0.0176156
-0.0355707
0.0210246
0.00734021
0.0129775
-0.00183689
-0.0401525
0.0134137
0.0304417
-0.00937217
-0.0101895
0.030772
0.0336094
-0.00770153
-0.00558265
0.0249028
0.0396233
-0.016755
0.0198024
-0.00838915
-0.00579607
0.00752721
-0.0119003
0.0130046
-0.020908
0.0136639
-0.00145864
-0.00870659
0.0219311
0.00131675
0.00327061
-0.00097021
0.00457139
0.00101234
0.00585489
0.00283277
0.00719898
0.00207738
0.00901211
0.0120409
-1.63534e-05
0.0111667
-0.00694926
0.0145838
0.0134872
0.0187552
-0.00208394
-0.0181301
0.0467776
-0.0424654
-0.0394429
0.0481943
-0.0323988
0.0279474
0.0423549
-0.0298734
0.0181223
0.0219335
0.0235377
-0.0389461
0.0280638
0.0152696
-0.0280137
0.015262
0.030517
-0.00855649
0.0239791
-0.00124482
-0.00490945
-0.0111349
-0.00270428
0.00534462
0.0189428
0.00217332
0.00209823
0.00546292
0.00849974
0.00908457
0.0086578
-0.001861
0.0134564
-0.00141506
0.0121771
0.0122125
-0.00299146
0.0158308
0.0149986
0.0158891
-0.0355858
0.0193549
0.0470699
-0.00299695
-0.00133058
0.00407966
0.0128785
-0.0135941
-0.0406533
0.011272
-0.012786
0.0290087
0.0279516
-0.00776805
0.00289321
0.0194796
0.0283762
-0.00257479
0.0196368
-0.00543985
0.0308068
-0.0119945
-0.0355794
0.0308057
-0.00966766
-0.00918465
0.0114064
-0.014337
0.0121029
-0.0230934
0.0152555
-0.000200228
-0.000454211
0.0208661
0.00166908
0.0010316
0.00409646
0.00257913
0.00566953
0.00445471
0.00432272
0.0127147
0.0115913
0.00773786
0.00401491
-0.0040728
0.0156706
0.0111452
0.0161046
-0.00189305
0.0190235
-0.00413046
-0.0205949
-0.0363131
0.0295679
-0.0324407
0.0304
-0.041943
0.0415938
0.0334177
-0.0234549
0.0169108
0.041701
-0.0315773
0.0134446
0.0190723
0.0081391
0.0187983
0.020588
0.0129712
-0.0272055
0.0224032
-0.00147217
-0.0316965
0.023267
0.027731
0.00550143
0.0203125
-0.000165373
-0.00830918
-0.0121317
0.00233681
-0.00583263
0.0087954
0.0142888
0.00580511
0.00231316
0.00637936
0.009629
0.00349931
0.00861018
0.00778558
0.00334251
0.0106589
0.0113931
0.00740099
0.00776653
-0.00361865
0.0140978
0.0117483
0.0161798
0.0094305
-0.0345234
0.0157226
-0.0499696
0.0098671
-0.0155306
0.0091083
-0.0230136
0.0417346
-0.00380159
0.0149315
0.0352583
-0.0212423
-0.0405208
0.00963385
0.0256913
-0.0138333
-0.0144408
0.0211544
0.0214704
-0.00385374
0.00777151
0.0118773
0.0198501
0.00556117
0.0216778
-0.000906476
-0.0229952
0.024288
0.00304824
-0.0220672
0.030253
-0.0126739
0.0154427
-0.0125536
0.00984344
-0.0219759
0.0137193
0.00059771
4.34738e-05
0.0105802
-0.0052443
0.00186306
0.0029291
0.00322538
0.00253239
0.00674153
-0.000898694
0.00894787
0.0102898
0.010719
-0.000837717
0.00885338
0.00207549
-0.00389108
0.0111418
0.00957209
-0.00364205
0.0145101
0.013225
0.00220269
-0.0119102
0.0204579
-0.023869
0.0420239
-0.0369865
0.0205611
0.0432646
-0.0388177
0.0150674
-0.0420296
0.034441
0.0387868
-0.0265887
0.0144202
0.040543
-0.0328951
0.00981841
0.00646553
0.0179699
0.00209703
0.016621
-0.00617146
0.0168606
0.019215
-0.000436573
0.0247849
-0.0211159
-0.0223796
0.0198472
0.0374189
-0.00987065
0.0303172
-0.0234022
0.0191511
0.0197947
-0.00812214
0.02835
-0.0106126
0.00541364
-0.00163098
-0.00829874
0.0121205
-0.00180368
0.0132816
-0.000158827
0.0015836
0.00521855
0.00275562
0.00543735
0.000733463
0.0075551
0.0107247
-0.00100273
0.0105957
0.00741511
0.0121939
0.00952504
-0.00220237
0.0112007
0.00882965
0.0116192
-0.013293
0.0146246
0.00603866
-0.0270535
0.00469238
-0.0470774
0.00211796
0.0388203
-0.0222186
-0.000542224
-0.0393936
-0.00729904
0.00434479
0.0291119
-0.0169622
-0.000861414
-0.0310289
-0.00827046
0.0170141
-0.0155678
0.0208761
0.0106604
-0.0150466
0.0160994
-2.99942e-05
0.0154114
0.000674759
0.00614864
0.0173192
0.00117481
0.0235719
0.00912955
0.0307166
-0.00829338
-0.00543955
-0.0172742
0.0128638
-0.0217394
0.0142444
-0.000292501
0.00122411
-0.00170717
0.0107787
0.00116374
0.00230983
0.00260134
0.0046631
0.00764727
-0.000732919
0.00768682
0.0021293
0.00769052
-0.00591018
0.0126021
0.00558781
-0.00567974
0.0143803
0.00493376
-0.00803853
0.0160204
0.00879515
0.00204924
0.00576849
0.0168877
-0.0120786
0.0267446
-0.020179
0.0369461
-0.0398535
-0.0462783
0.0202062
0.0333345
-0.0391769
-0.0551971
0.00881655
-0.0373434
0.0266241
0.0311823
-0.0299965
-0.0298113
0.0110285
-0.0257983
0.0251219
-0.00344882
-0.0188313
0.00965142
0.00101759
0.00100168
-0.0110405
0.0204313
0.00379121
0.0160259
-0.00573587
0.0197705
-0.0224092
0.0212892
0.0189601
-0.0140419
-0.0169079
0.0167595
0.0325069
-0.00423106
-0.0181978
0.0309682
0.0261936
0.00680413
0.027342
0.0232449
-0.00561179
0.0234312
-0.00663393
-0.00520333
0.0076805
-0.00127895
-0.00882148
0.00949259
0.0174047
-0.00777815
-0.000800535
0.00146566
0.00332952
0.00632509
-0.000290164
0.00717426
-0.00903998
0.0101538
0.00662113
0.00250272
-0.00841677
0.0130139
0.005056
0.0130229
0.00938653
0.00579273
0.0105957
-0.0101699
0.0148202
0.00547959
0.00429084
0.00459358
-0.0131475
-0.0614107
0.015508
-0.0202731
-0.0267469
-0.0386789
-0.00201177
-0.0583371
0.0357777
-0.0118687
-0.000636231
0.0034293
0.0264195
-0.0168784
-0.022609
-0.00272595
-0.0145831
-0.0244755
0.0181456
-0.00949495
0.0179306
-0.0186446
0.0184418
0.013168
-0.0162661
0.0183619
-0.00407866
0.0108278
-0.0048039
0.00279946
0.0109669
0.0156052
7.41273e-05
-0.0280555
0.0281747
0.00744519
0.0063465
-0.0201974
0.0298785
0.0102003
-0.0178012
0.0154121
-0.0193558
0.0147546
0.00135833
0.00219143
-0.0057267
0.000955244
-0.00116985
0.00386087
0.00452987
0.000505426
0.00605499
0.00387033
0.00535906
0.00960749
-0.00842571
0.00997802
0.0037829
-0.00947893
0.0135381
0.00262352
-0.00866245
0.0135117
0.0129735
-0.00331937
0.00499837
-0.0102407
0.0144903
-0.0168651
0.0197416
0.0262416
-0.018873
-0.0454332
0.028536
-0.0344413
-0.0337334
0.0107429
0.0157886
-0.0470302
0.0294678
-0.0342281
-0.0455257
-0.0180333
0.0175155
-0.0312295
0.0220408
-0.0243046
-0.0308324
0.0320394
0.00349206
0.0232828
-0.0241244
-0.0282448
0.0136468
0.0034641
0.00749532
6.95653e-06
-0.00342297
0.0152619
0.01782
-0.00112144
0.0103157
-0.0075334
-0.0167772
0.010834
-0.0173938
0.0185841
-0.00694746
-0.0138793
0.0130106
0.0312247
0.000819819
-0.0189424
0.0284704
-0.0171339
0.0257528
0.0138211
-0.0118428
0.0257458
-0.00107225
-0.00214577
0.00901979
-0.00529059
0.00608155
-0.000893862
0.0054978
-0.001085
0.00139463
0.00218925
0.00455207
0.00228914
0.00321671
0.0099605
-0.0058928
0.00470209
0.00370173
0.0132115
-0.00429693
-0.0100046
0.012682
0.00227424
0.0143367
0.00907622
-0.0132587
0.0166573
0.00799201
-0.0002145
-0.00822871
-0.0602666
0.0199496
0.0336616
-0.0252787
-0.0330574
-0.0200738
-0.033082
-0.00224116
-0.036823
0.0146787
-0.0151079
0.000193175
0.0052062
-0.0173719
0.0193244
-0.00448288
-0.0224348
-5.39239e-05
-0.0205359
-0.0160523
-0.0135424
0.0193695
-0.0189846
0.0170618
0.012944
0.00623497
-0.0172882
0.0145356
-0.0162449
0.0250184
0.0235687
-0.0141467
0.00445286
0.00350334
-0.0255773
0.0169865
-0.00437036
0.0221913
-0.0257011
0.0294235
0.0137437
0.0024421
0.0249767
-0.00759045
0.0259558
0.00272483
-0.0141187
0.0154744
-0.0155233
0.0151479
0.00344249
0.00175371
0.014496
-0.00654574
0.000754818
-0.00211722
0.00363361
0.00197544
0.00610252
0.00469054
0.00582176
0.00306488
0.00604699
0.00827123
0.00726451
-0.0113542
0.012204
0.00162719
-0.00851019
0.0160909
0.00651386
0.0162911
-0.0101963
0.0142382
0.0280652
-0.0390692
-0.0480505
-0.0175425
0.043819
-0.0274208
0.000515269
0.0203321
-0.0594106
0.016568
-0.0395626
0.0300397
-0.034502
-0.0203987
-0.0374086
-0.0259749
0.00862984
-0.027658
0.0241285
-0.0210501
0.00520949
-0.00791021
-0.0234877
0.0203349
0.0215636
-0.018051
-0.0251322
0.00446661
0.0113229
0.00973449
-0.0011831
-0.00188697
0.0126707
-0.000989612
0.0173573
0.017404
-0.00449402
0.00130958
-0.0194304
0.0221109
0.0178924
-0.0157738
0.011929
0.0208516
0.00389534
0.0233128
0.00909484
0.0262064
-0.0103433
0.0305974
0.0214873
0.0258192
0.00262017
0.00151
0.0264137
-0.00978996
0.00769399
-0.0024198
0.00485733
-0.000685943
0.00278723
-0.00189508
0.00168516
0.000988812
-0.000151975
0.00549418
0.00397674
0.0072837
-0.00515354
0.0114784
-0.00681111
0.00751985
-0.000466111
0.0120247
-0.00623537
0.0126145
-0.00167752
-0.0100412
0.0104537
0.00477553
-0.00953893
0.0143056
-0.0178593
0.00575163
0.0147295
-0.00212435
0.00135985
-0.0531816
0.0315915
-0.0425179
0.0122667
0.0263906
-0.0280869
-0.046344
-0.0116735
-0.0288734
-0.00683263
0.028967
-0.0538509
-0.0121308
-0.011615
0.0189413
-0.0036336
-0.0306161
0.00748514
0.020774
-0.0170609
0.0112887
-0.0210252
-0.000651001
-0.00431165
0.00230051
-0.0181752
0.00195938
-0.0255511
-0.00440995
0.0218655
-0.0141457
0.0188269
-0.0166302
0.0132015
0.0147333
-0.0020921
-0.0194514
0.0131373
0.0218066
-0.0225924
0.000372126
0.00440627
0.0238547
-0.0140785
0.029826
-0.018752
0.0295276
0.0183328
0.013816
0.0201438
0.00397797
0.0205167
0.00846424
0.0137979
-0.00938515
0.015647
-0.0127364
0.00702435
0.00428284
0.0017035
0.0102744
-0.0058873
0.000745642
0.00402331
-0.000905378
0.00530505
0.00797856
-0.00159311
0.0052712
0.00379907
0.00527602
0.00634601
0.00512668
-0.0143396
0.0112507
-0.00521998
-0.00983221
0.0132491
0.00373738
0.00291647
-0.0143386
0.0183001
-0.0179768
0.0140077
0.0303074
-0.031351
-0.0317179
-0.0255866
-0.0141536
0.035555
-0.0255726
-3.29192e-05
-0.0302079
-0.0205504
-0.0450651
0.0326022
-0.0422567
-0.00266535
-0.0570093
-0.0477664
0.0189863
-0.0320468
-0.012944
0.0190745
-0.0245639
0.0287563
-0.0232444
0.00948036
0.0232761
-0.0136625
0.015973
-0.0145244
0.018516
-0.0232753
0.0138966
-0.00971338
0.0169612
-0.0131845
-0.00735058
0.017771
0.0070936
0.000378733
-0.00784095
0.0168085
-0.00378885
0.0132658
0.0184546
-0.00723053
-0.00108079
-0.0228002
0.0210922
0.0258472
-0.0238017
0.00928813
0.014477
0.0174762
0.00893959
0.0220297
0.0299734
-0.0109284
-0.011438
0.0258842
0.0272463
0.0248993
0.00257969
0.00262815
0.022748
-0.0145897
-5.50869e-05
0.00444731
-0.000497031
0.00131673
-0.00179658
-0.000661438
0.00382629
0.00377892
-0.00805901
0.00554092
-0.00377394
-0.00707312
0.00959928
-0.00266301
0.00673164
0.00840393
-0.00318666
-0.0094356
0.0131661
0.000246352
0.00652242
-0.00904237
0.0116696
-0.0145942
0.0155167
-0.00266367
-0.00195409
0.00361879
0.00187955
-0.0464388
0.0173342
-0.0352484
0.0190672
-0.0316606
0.00436994
0.0259917
-0.0280178
0.0265124
-0.0540353
-0.0160382
-0.0221409
-0.021815
0.0393468
-0.0455802
-0.0361898
-0.0122526
0.0046863
-0.014864
-0.000312787
-0.0227646
-0.00230989
0.0257505
-0.0183895
0.0104412
0.0204584
-0.00349559
0.000719557
-0.001736
-0.0249901
0.0176017
-0.00509395
0.00627981
-0.0313998
-0.0178882
0.022511
0.0200039
-0.0219347
0.0100985
0.0127248
-0.0206823
0.0112296
0.0219513
-0.0248905
-0.00331487
-0.00528197
0.0206749
-0.0134262
-0.00104794
0.0200492
-0.0119894
0.0213165
0.0221715
0.0192941
0.0124871
0.0143665
0.012146
0.017902
0.00150139
0.02552
0.0107851
-0.00724966
0.0111047
-0.00687225
-0.00311065
0.00653824
0.00196121
0.000259508
0.00111657
-0.00140928
0.00412518
0.0091285
-0.00470744
-0.0109516
0.00582625
0.00477621
-0.00249457
0.00439413
0.00386198
0.00467656
-0.0102872
0.00889126
-0.010097
0.0146708
-0.00447064
0.00341319
-0.0180702
0.0133523
-0.0176516
0.0135059
0.0124895
-0.0103805
0.0296763
-0.0298229
-0.025374
-0.0236886
0.0419434
-0.027434
0.00453891
-0.0140252
0.0293715
-0.0265392
-0.000441864
-0.0235126
-0.0345343
-0.0436261
0.0153415
-0.0404641
-0.00167116
-0.0475465
0.0146698
-0.0554797
-0.0402644
-0.0197861
-0.0255767
0.00880382
-0.0276716
-0.0254496
0.021252
-0.0277615
0.00747085
-0.0163544
-0.0131774
0.0111234
-0.00981491
0.0130196
0.0199155
-0.0218119
0.0102171
-0.020666
0.0177578
-0.0113876
0.000826769
-0.0022923
-0.0131031
-0.00738088
0.0205741
-0.0117827
-0.0267587
0.0210194
-0.0237827
0.0162569
-0.0312934
0.015347
0.0227982
0.0167724
0.00457846
0.00653299
0.0162551
0.0187578
-0.00051343
-0.00610112
0.0181097
0.0155827
-0.00166913
-0.00563932
0.0266488
0.0221419
0.00491382
0.00149224
-0.00844615
0.00591089
-0.000410709
0.00412432
0.00110567
-0.0020228
0.00411351
-0.00837312
0.00262477
-0.00353946
0.0101817
-0.00677772
0.00653814
-0.00522505
0.0079972
-0.00421103
0.00638974
0.00908899
-0.0060618
0.0028092
0.0134841
-0.00608062
0.00642454
0.0162089
-0.0152552
-0.00644519
0.0167555
-0.00502738
0.00463693
-0.00254933
-0.0413312
0.0147859
-0.0385796
0.00879945
0.0388599
-0.0365065
0.0230683
-0.00549464
0.0277168
-0.0301858
-0.0421456
0.00278446
-0.053614
0.00454974
-0.0419051
-0.0183197
-0.0239879
0.0415136
-0.0462871
-0.0362548
-0.0353767
-0.0237915
-0.00179234
-0.035254
0.0131076
-0.0292462
-0.0022581
-0.0144927
-0.00843797
0.0295954
-0.0240902
0.010495
-0.0145058
0.00371455
-0.00964717
0.000980924
0.0141562
-0.00105973
-0.00566004
0.0269026
-0.0321578
-0.0227697
0.021502
-0.0218863
0.0172263
-0.0272156
0.0112042
0.0108886
-0.0228865
0.00854011
-0.0234867
-0.00522645
-0.00477112
-0.0174343
-0.0098914
0.00455698
0.0192094
0.0234219
0.0197965
0.0213088
0.0164182
-0.0175187
0.0158096
-0.0149545
0.00864439
-0.000619432
0.0234779
-0.0010333
0.0250636
-0.00285017
-0.00323838
0.00620684
0.0142452
-0.00781987
0.00112412
0.00210421
0.00127523
-0.00132543
0.00110059
0.0103215
-0.0092217
-0.0107505
0.00598726
0.00495014
-0.00563527
0.00197351
0.00205879
0.00338669
0.00143708
0.00216989
0.0114604
-0.0100471
0.00395811
0.0146218
-0.0099321
0.00400047
-0.00269827
-0.0193755
0.0106373
-0.0198355
0.0128612
0.0156014
-0.0124801
0.0293227
-0.0340301
-0.0460471
-0.02656
0.0306623
-0.0237647
-0.00802712
0.0253635
-0.032947
-0.00317583
-0.0415588
-0.0359381
-0.0513073
0.00393324
0.0103706
-0.0370281
-0.0162152
-0.0326873
0.00466104
-0.0441183
0.015578
-0.0424353
-0.0272613
-0.00473433
-0.0317984
-0.038074
0.0208578
0.0206269
-0.0309119
-0.00561632
-0.0150624
-0.00632123
0.0119394
-0.0129444
0.00416441
-0.00917391
0.0126714
0.00684019
-0.0146563
0.0157843
0.0153514
-0.0233585
-0.00929367
-0.00250617
-0.0123709
-0.0143025
-0.0108638
0.0214016
-0.0153249
-0.0257037
0.0186711
0.0240304
-0.0311865
0.0039038
-0.0290261
0.0163649
0.019372
0.00990447
0.0132117
0.0143423
0.00401306
0.0096428
0.0120725
0.0151889
-0.000652665
0.0138746
9.8075e-05
-0.00103005
0.0112746
-0.0037695
0.00958076
0.00213373
0.0238005
0.0290621
-0.00846979
0.00651701
-0.00138522
-0.000943305
-0.000224223
0.00230711
0.00473028
-0.00172343
6.71489e-05
-0.00323571
0.000879019
-0.00484358
0.0122891
-0.00897529
0.00492974
-0.0074655
0.00761967
-0.00830424
0.00824894
-0.00429344
0.00436458
0.0108397
-0.0111158
0.0133977
-0.0111581
0.00402348
0.0119214
-0.00968429
-0.016131
0.0110423
-0.0116843
-0.0016244
-0.0105372
-0.0090762
-0.0398457
0.0202238
-0.0496583
-0.040468
0.0147871
-0.0349387
0.0247746
-0.0396041
0.00483115
0.0280298
-0.0334499
-0.0535357
0.00759928
0.00946392
-0.0491882
-0.0438622
0.0399057
-0.0398681
-0.0221695
-0.0169027
0.0186684
-0.0371998
-0.0302613
-0.031622
-0.036274
0.0272728
-0.0348798
-0.00627262
-0.0138609
-0.0125453
0.0251893
-0.0336058
0.0126394
-0.029383
-0.00983216
0.00599356
0.000449768
-0.0197018
0.00510972
-0.00803356
0.0169885
0.00986279
-0.00324165
0.0206765
-0.0337277
0.0253933
-0.0306506
0.0101881
-0.0250355
0.00798764
0.00798395
-0.0226244
0.00481802
-0.0146694
-0.0150834
0.0229486
-0.0216409
-0.00871453
-0.0174871
0.0294359
0.0230724
0.0250484
0.0173706
0.0114955
-0.0146005
0.0120212
-0.00842198
0.00731182
-0.00992752
0.00518781
-0.0086117
0.0225244
0.0136144
0.0171709
0.00420894
0.00677929
-0.00709609
0.000826122
0.00151156
-0.00177599
0.000731878
-0.00379723
0.00320697
-0.0127348
0.00547369
0.00255249
-0.00982214
0.00126408
-0.0027991
0.00204696
-0.000821227
-0.0121315
-0.00139872
-0.000832764
-0.0141747
-0.0189548
0.00707733
-0.0109776
-0.0194417
0.00517976
0.0143176
-0.0184789
-0.0424133
0.0293806
0.0311034
-0.0427468
-0.0235925
-0.0227845
-0.021541
-0.0220571
-0.0170889
-0.0396066
-0.00722697
-0.0176111
-0.0448421
-0.0295332
-0.0185824
-0.0586904
0.015249
-0.0500568
-0.00901294
-0.0303624
-0.0415835
0.0116707
-0.0463255
0.0145415
-0.0546465
-0.0224418
-0.0145395
-0.0307564
-0.0419426
0.0251241
0.0163762
-0.031032
-0.00672149
-0.0195489
0.00861384
-3.18969e-05
0.00954053
-0.00888641
-0.00965707
-0.00634781
0.013761
0.0128772
-0.00612002
0.0176102
0.0160983
-0.00876776
-0.0260927
-0.0181439
-0.0172199
-0.0137944
0.0243502
-0.0222202
-0.0287887
0.0117818
-0.0250706
0.00786891
-0.0361551
0.0114786
-0.0252698
0.0144767
-0.02422
0.00427075
0.0133823
0.0168911
0.0143761
0.00699759
0.00989159
0.014596
0.0147949
-0.000687137
-0.00414775
0.0128095
0.00452509
-0.00170428
-0.00347881
0.00860601
-0.00506643
-0.00237127
0.00769622
0.016578
0.0275891
0.0261764
-0.00230133
0.00157291
6.48778e-06
0.003859
0.000162938
-0.000500575
-0.00893017
0.0143871
-0.014251
0.00191714
0.0116423
-0.0126021
0.00641459
0.00720388
-0.00732349
0.00459719
0.0117165
-0.0154508
-0.0154764
0.0125393
-0.00253416
-0.010603
-0.01951
0.00584102
0.0159496
-0.0128194
-0.00461766
-0.0175662
-0.0276563
-0.0432937
0.0153276
-0.0401282
0.0325019
-0.0572795
-0.0423396
0.0179976
0.0225297
-0.0415818
-0.019933
0.0323452
-0.0427266
0.0310901
-0.0519637
-0.0181353
0.0328761
-0.056386
-0.0301801
-0.0398579
-0.0224783
-0.0301182
0.0148628
-0.0484146
-0.0326192
-0.0349105
-0.0312834
-0.0273214
0.0199979
-0.0369948
-0.000540868
-0.0253949
-0.00850902
-0.0381679
-0.0295396
0.00726214
0.0104562
-4.03865e-06
-0.00718894
0.00883839
0.00325607
0.00795051
-0.0180055
0.00847118
0.0161301
-0.000911023
0.0134983
0.00560238
0.00537635
0.0121111
-0.0329426
-0.0184907
-0.0334195
0.0119866
-0.0273252
0.0075039
0.00777168
-0.0208737
-0.00355737
-0.0156192
-0.031144
-0.0164217
-0.0117721
0.0251103
-0.0233969
0.0262313
-0.00179973
0.0139391
0.0201898
0.0107412
0.0092731
-0.00881144
0.00835024
0.00403158
-0.00542585
-0.00673875
0.00282245
-0.00843902
0.00205673
-0.00700397
0.00242046
0.0233727
0.00695655
0.0211682
0.0160729
0.0112536
0.0023824
0.00131565
0.00280286
-0.0041645
0.000674677
-0.0181454
0.00621653
-0.00455025
-0.0197434
-0.0041718
0.0102024
-0.00650823
0.000173677
-0.00211631
-0.012652
0.0149261
-0.020737
-0.0211575
0.00732006
-0.00754322
-0.0179782
-0.0204578
0.00569921
0.0126032
-0.0192919
0.0153671
-0.0453987
-0.0316595
-0.029175
-0.0105781
-0.0448757
-0.0261798
-0.0456834
0.0223325
-0.0505092
0.00447242
-0.0536499
-0.0458879
-0.0149418
0.0229039
-0.0569339
-0.0543865
0.0104056
0.00926934
-0.042926
-0.0061819
-0.0449722
-0.0411564
0.0161746
-0.0546065
0.0155718
-0.0453855
-0.0399956
-0.0358103
0.00800884
-0.0407946
-0.0279703
-0.0129572
-0.0233134
-0.00199068
0.00433795
0.0101243
0.000823672
-0.0142318
-0.00205766
0.0124716
0.0161147
0.0141349
0.0187205
-0.0178866
-0.0169326
-0.03887
-0.0115
-0.017916
-0.0152366
-0.0151873
0.0137541
-0.0190943
0.0141716
-0.0317337
-0.0190336
-0.0338004
0.0147555
0.0154729
-0.0294304
-0.0100933
0.0127038
0.012649
0.00715127
0.00472769
0.00557169
0.0129525
0.00746948
0.000373645
-0.00643862
0.0106477
-0.0156716
0.00231915
-0.0019255
-0.00310395
-0.00428827
-0.000930001
-0.00697555
-0.00678244
0.00965837
-0.0112563
0.0136944
0.0112141
0.0234047
0.00826236
0.0123014
0.0259118
-0.00138565
0.00206567
-0.000113179
-0.00151636
0.0147166
-0.0232994
-0.0104091
0.0137355
-0.022679
-0.0147871
0.00589774
-0.0118177
0.00920937
-0.00693557
0.00256439
0.00962302
-0.0274685
-0.010808
-0.0200436
0.0155333
-0.025834
-0.00559349
-0.0156122
-0.0252674
-0.0228805
-0.0602619
-0.0364892
0.00511702
-0.0498357
-0.0287066
-0.0191603
0.0183889
-0.0475972
-0.0306866
-0.0318315
0.0332925
-0.0310255
-0.0434213
-0.013409
-0.0395096
0.0312762
-0.0499639
-0.0350303
-0.0299285
-0.035961
-0.015438
-0.0293739
-0.0184433
-0.0297286
-0.0278272
-0.0418189
-0.0354905
-0.0129551
-0.0092073
-0.0300346
-0.00833219
0.0319628
-0.0259198
-0.0114715
-0.0252751
0.0104445
0.0143086
-0.0399818
0.00983889
0.00544235
7.23798e-05
0.0148636
-0.0114217
-0.00161198
0.0168099
0.00143084
-0.00586896
0.0214982
0.0145327
-0.0344018
-0.0159548
-0.022957
-0.0308977
0.0168228
-0.0265683
0.00654376
0.0129854
-0.0305285
-0.0270641
0.00915626
-0.0156004
-0.00804041
-0.0327655
-0.00131172
-0.026313
0.00469687
-0.0368858
-9.16136e-05
-0.0168924
0.017973
-0.0307378
0.0203021
0.0168919
0.0121203
0.0152929
0.00700252
-0.0109723
0.014862
-0.0171405
0.00717129
-0.00407734
0.0010166
0.00214436
-0.00264137
-0.00491308
-0.00266147
0.00318962
-0.0120167
-0.0103419
0.0271581
0.0149666
0.00870008
0.0268696
0.0169332
0.0099635
0.00120711
0.000771633
-0.00407775
0.000262686
0.012051
-0.0271988
-0.00496591
-0.0186977
-0.00841883
-0.000508501
-0.00346383
-0.0202276
0.0131172
-0.0274009
-0.0253311
-0.00101445
-0.0169207
-0.0360635
-0.0226092
0.00470245
-0.054051
-0.0381287
-0.0261561
-0.0455316
0.00561703
-0.0587797
0.0284689
-0.050954
0.0165056
-0.0500943
-0.0463321
0.0118166
-0.0453078
0.0120432
-0.0517876
-0.0450694
0.00144647
-0.034229
-0.0188022
0.0169928
-0.0558008
0.0207976
-0.054677
0.014169
-0.0531754
0.00175964
-0.0338483
-0.0604828
-0.0604704
-0.0317434
-0.0125274
-0.0470612
-0.041891
0.029157
-0.0397101
0.00151526
0.0228407
-0.0369408
-0.012645
-0.0244474
-0.0203784
0.00674401
0.00508673
-0.00465358
-0.00102431
0.00253008
0.00188324
0.015843
-0.0179349
0.0209406
0.025071
0.002025
-0.038393
0.00159325
-0.0267247
-0.015721
-0.0120142
-0.0263473
-0.0157649
-0.0239377
0.00590023
-0.0346971
-0.0295639
-0.0357577
0.0330126
-0.0361202
0.0134334
-0.0203045
-0.000214176
0.0188416
0.0151964
0.00534076
0.00301305
0.0030701
0.00948187
0.00735667
-0.00562865
0.00377063
-0.0186133
-0.016783
-0.00449308
0.0115625
-0.00926613
-0.00190886
-0.0042916
-0.00107964
0.00321917
-0.00667668
-0.0105573
0.00451055
-0.0180024
0.015676
0.0132211
0.0258816
0.0219821
0.0042586
0.0264818
0.000377476
-0.00190989
-0.0234394
-0.008107
0.0148166
-0.0236152
0.00317391
-0.0278805
0.00289957
0.00575051
-0.00844415
0.000463169
-0.0259083
4.50393e-05
-0.0255139
-0.0300876
0.0136552
-0.0349336
-0.0276373
-0.0353702
-0.0224083
-0.0650758
-0.0381358
-0.00997607
-0.0347133
-0.0338903
-0.0288145
-0.0244822
-0.032575
-0.0299155
-0.0229595
-0.0362639
-0.0322619
-0.0410016
-0.0464743
-0.0356498
0.0231354
-0.0445611
-0.0397751
-0.0392015
-0.035024
-0.0331896
-0.0340283
-0.0302723
-0.0387124
-0.0263701
-0.0544857
0.00687471
-0.0571209
0.00177238
-0.0442819
-0.0377447
0.0220504
-0.0366754
-0.00429703
0.0249059
-0.0484381
-0.000485001
0.0090756
0.00525133
-0.00531085
0.0012098
-0.00207271
0.0177115
-0.00959885
-0.00844033
0.0051848
0.0175018
0.0110638
0.016319
-0.0271575
-0.0125075
-0.0271144
-0.0084273
-0.0191635
-0.0402496
0.0213138
0.0197709
-0.0341126
-0.00930705
-0.0319573
0.0134491
-0.0296471
-0.0288983
-0.0100841
-0.0284537
-0.00364835
-0.0239201
-0.0143742
-0.00432749
-0.0348924
0.0134207
-0.0363648
-0.00105528
0.0181934
0.0155381
0.011362
0.00615393
0.00133377
-0.0164203
-0.0171444
0.0148764
-0.0239659
-0.0250541
0.0104355
-0.00177542
0.000227096
-0.00264957
-0.00164086
-0.00205709
-0.00500212
-0.0068515
-0.00449485
-0.00682253
-0.0128111
0.0258355
0.0193177
0.00677167
0.0191206
0.0230288
0.0193019
0.00813584
-0.000839214
-0.00312218
-0.000725162
-0.0386384
-0.018756
-0.00920309
-0.0198559
-0.0347625
0.0121123
-0.0128516
0.000921578
-0.00426586
-0.0155356
0.00763089
-0.0436336
-0.0206024
-0.0197074
0.000394806
-0.0354554
-0.0539685
-0.030431
-0.0385858
-0.0422304
0.0195491
-0.0568237
0.0124183
-0.0485488
0.0252382
-0.0522266
0.0115224
-0.0465467
0.0157041
-0.0404986
-0.0467352
0.00784961
0.00776032
-0.0428202
0.0135496
-0.0587263
-0.0334009
-0.0157596
0.00903444
-0.0470279
-0.0377084
0.016879
-0.0610017
0.0102236
-0.0528348
0.0241656
-0.0633517
-0.0291199
-0.00665631
-0.0641371
-0.0641533
-0.0509034
-0.0476393
0.0311754
-0.0314216
-0.0394372
-0.00904448
-0.0146733
-0.0351934
-0.022881
-0.0287171
-0.00125067
0.0118715
0.00604562
-0.00828808
-0.000572031
-0.000620313
0.0109643
0.00903626
-0.0180141
0.0229965
0.00511338
0.0141665
-0.0432691
0.00522318
-0.0344079
0.00446879
-0.0250273
-0.0296278
-0.0162584
-0.042075
-0.0398833
0.00471297
-0.0552669
-0.0297308
0.016265
-0.0332605
0.0283959
-0.03548
-0.0213294
-0.0107908
0.00108725
0.0138042
0.0131414
0.00359714
0.00340263
0.00705225
-0.00598189
-0.0178817
0.013617
0.00987317
-0.0302123
0.00544023
-0.025517
-0.0152349
-0.0175097
-0.0122897
-0.00233131
-0.00383251
-0.000852642
-0.00430888
-0.00839025
-0.0126528
0.00586108
-0.0202945
0.0120989
0.0147365
0.0262319
0.0203334
-0.00264781
0.0239014
-0.00152458
0.0208214
0.000213012
-0.0032272
0.00073878
-0.0377288
-0.0184744
0.00685095
0.00941367
-0.032874
0.00175697
-0.043034
-0.0194369
0.00352737
0.00725674
-0.00863661
0.00128754
-0.0414136
-0.0529907
-0.0617458
8.85713e-05
-0.056832
0.0135481
-0.0549815
-0.0252108
-0.0470444
-0.0260651
-0.0548049
-0.0377858
-0.0328082
-0.0295895
-0.0128834
-0.0375324
-0.0465135
-0.0424948
0.0364011
-0.0554221
-0.0137869
0.00668287
-0.047345
-0.0546127
-0.0326987
-0.0605936
-0.0447034
-0.0227349
-0.0320311
-0.0356866
0.000894846
-0.0558226
0.00737454
-0.0587218
0.0133276
-0.0475209
-0.00160585
-0.0398781
-0.0341015
0.0305189
-0.0483485
-0.00745989
-0.0352574
0.0045651
0.00361202