/*--------------------------------*- C++ -*----------------------------------*\
| =========                 |                                                 |
| \\      /  F ield         | OpenFOAM: The Open Source CFD Toolbox           |
|  \\    /   O peration     | Version:  v2012                                 |
|   \\  /    A nd           | Website:  www.openfoam.com                      |
|    \\/     M anipulation  |                                                 |
\*---------------------------------------------------------------------------*/
FoamFile
{
    version     2.0;
    format      ascii;
    class       volVectorField;
    location    "0.33";
    object      cellDisplacement;
}
// * * * * * * * * * * * * * * * * * * * * * * * * * * * * * * * * * * * * * //

dimensions      [0 1 0 0 0 0 0];


internalField   nonuniform List<vector> 
11961
(
(-2.69692e-05 0.000390211 0)
(-6.41552e-05 0.000952972 0)
(-6.08926e-05 0.000849994 0)
(-3.85186e-05 0.000611429 0)
(-0.00012263 0.00178326 0)
(-3.25838e-05 0.000445171 0)
(-0.000116931 0.00163541 0)
(-9.57333e-05 0.00154777 0)
(-0.000178548 0.0026242 0)
(-5.98879e-05 0.000792 0)
(-0.00016185 0.002215 0)
(-0.000181741 0.00279473 0)
(-9.80544e-05 0.00167289 0)
(-0.000243042 0.00343539 0)
(-0.000119658 0.0015751 0)
(-2.62303e-05 0.000343016 0)
(-0.000164286 0.00219139 0)
(-0.000228807 0.00314642 0)
(-0.000254219 0.0039342 0)
(-0.000179866 0.00310085 0)
(-3.85106e-05 0.000701864 0)
(-0.000319488 0.00450301 0)
(-0.000131545 0.00169139 0)
(-4.66777e-05 0.000597606 0)
(-0.000232881 0.00303902 0)
(-0.000276595 0.00365977 0)
(-0.000252393 0.0041515 0)
(-0.000331057 0.00487883 0)
(-0.000170719 0.00319388 0)
(-9.03032e-05 0.00175873 0)
(-0.000383262 0.00515821 0)
(-0.000182389 0.00231254 0)
(-9.28646e-05 0.0011854 0)
(-1.95136e-05 0.000248011 0)
(-0.000237398 0.00302565 0)
(-0.000349646 0.00456645 0)
(-0.000333103 0.00552884 0)
(-0.000420361 0.00617375 0)
(-0.000229338 0.00442577 0)
(-7.19538e-05 0.00154558 0)
(-0.000472199 0.00629326 0)
(-0.000184973 0.00229857 0)
(-0.000102615 0.00128541 0)
(-3.69969e-05 0.000464117 0)
(-0.000289525 0.00359906 0)
(-0.00039996 0.00500578 0)
(-0.000317356 0.00572607 0)
(-0.000423685 0.00660969 0)
(-0.000499857 0.00694696 0)
(-0.000202681 0.00439119 0)
(-0.000128111 0.00301622 0)
(-2.36876e-05 0.00053125 0)
(-0.000535112 0.00681151 0)
(-0.000143016 0.00177194 0)
(-0.000227712 0.00278066 0)
(-7.49031e-05 0.000936044 0)
(-2.85381e-05 0.000356969 0)
(-0.000359647 0.00442983 0)
(-0.000274041 0.00334935 0)
(-0.000493475 0.00608936 0)
(-0.000391199 0.00722174 0)
(-0.000520967 0.00810776 0)
(-0.000611854 0.00837572 0)
(-0.000247689 0.00560416 0)
(-0.000108577 0.00301067 0)
(-1.75604e-05 0.000539448 0)
(-0.000633098 0.00795229 0)
(-0.000143176 0.00173796 0)
(-0.000226579 0.00271021 0)
(-7.53736e-05 0.000925755 0)
(-9.99854e-06 0.000124973 0)
(-4.95109e-05 0.000611456 0)
(-0.000380845 0.0045092 0)
(-0.000317969 0.00378144 0)
(-0.000550868 0.00654484 0)
(-0.000341486 0.00711373 0)
(-0.000502781 0.00853999 0)
(-0.000632344 0.00912252 0)
(-0.000681675 0.00882912 0)
(-0.000213843 0.00562995 0)
(-0.000146823 0.00443058 0)
(-4.90503e-05 0.001609 0)
(-0.000703592 0.0084408 0)
(-0.000101088 0.00122743 0)
(-0.000182442 0.00217963 0)
(-0.000282802 0.00331881 0)
(-1.52413e-05 0.000188091 0)
(-3.41617e-05 0.000419601 0)
(-0.000446867 0.00515562 0)
(-0.000662618 0.00777089 0)
(-0.000529605 0.00612161 0)
(-0.000360719 0.00808713 0)
(-0.000610345 0.0103852 0)
(-0.00073924 0.010553 0)
(-0.000805912 0.0100681 0)
(-0.000260981 0.00703499 0)
(-0.00011462 0.00457566 0)
(-4.15654e-05 0.00176971 0)
(-0.000816875 0.00969882 0)
(-9.43506e-05 0.00112495 0)
(-0.000176912 0.00206783 0)
(-0.00029029 0.00331983 0)
(-4.10364e-06 5.08499e-05 0)
(-3.15654e-05 0.000384091 0)
(-0.000441639 0.00491646 0)
(-0.000711483 0.00800045 0)
(-0.000618834 0.00692023 0)
(-0.000434489 0.00946573 0)
(-0.000738524 0.0113664 0)
(-0.000564971 0.0107658 0)
(-0.000858994 0.0114979 0)
(-0.000894186 0.0112646 0)
(-0.000226794 0.00738815 0)
(-6.68031e-05 0.00328978 0)
(-0.000137228 0.00607932 0)
(-1.1722e-05 0.000698885 0)
(-0.00089725 0.0102661 0)
(-0.000128411 0.00150332 0)
(-6.26842e-05 0.000748126 0)
(-0.000222913 0.00255178 0)
(-0.000357592 0.00398616 0)
(-3.47323e-06 4.26685e-05 0)
(-4.24722e-05 0.000510565 0)
(-1.34833e-05 0.000164886 0)
(-0.000529913 0.00571256 0)
(-0.000831919 0.00907671 0)
(-0.000626085 0.00677796 0)
(-0.000389616 0.0100131 0)
(-0.000876897 0.0129431 0)
(-0.000626057 0.0123211 0)
(-0.000957599 0.0129341 0)
(-0.00105507 0.0125687 0)
(-0.00027335 0.00893265 0)
(-3.00407e-05 0.00301142 0)
(-9.27201e-05 0.00638338 0)
(-1.20096e-05 0.0014627 0)
(-0.000911237 0.0100278 0)
(-0.00101206 0.0113833 0)
(-0.000111734 0.00128083 0)
(-4.27302e-05 0.000499576 0)
(-0.000208573 0.00233487 0)
(-0.000333198 0.00361535 0)
(-2.08774e-05 0.000249786 0)
(-7.62917e-06 9.23624e-05 0)
(-0.000536091 0.00559511 0)
(-0.000836651 0.00880337 0)
(-0.000722472 0.00759923 0)
(-0.000471157 0.0115879 0)
(-0.000950385 0.0142621 0)
(-0.000764611 0.0140673 0)
(-0.00111497 0.0142258 0)
(-0.00117668 0.0140983 0)
(-0.00109608 0.0124129 0)
(-0.00020089 0.0093278 0)
(-1.30278e-05 0.00390167 0)
(-0.000104963 0.00801515 0)
(-3.0542e-05 0.0053773 0)
(1.90872e-06 0.000779039 0)
(-0.00102912 0.0110775 0)
(-5.69952e-05 0.000656293 0)
(-0.000144681 0.00162559 0)
(-1.41086e-05 0.000166318 0)
(-0.000251843 0.00275434 0)
(-0.000373776 0.00393216 0)
(-0.000459879 0.00476044 0)
(-0.00065175 0.00658502 0)
(-0.000930228 0.00942586 0)
(-0.0007381 0.00749974 0)
(-0.000415221 0.0123015 0)
(-0.000918455 0.0148712 0)
(-0.00114199 0.0157519 0)
(-0.000732112 0.015319 0)
(-0.00121999 0.0157111 0)
(-0.00137043 0.0155359 0)
(-0.00126743 0.0136909 0)
(-0.000240705 0.0110287 0)
(3.11592e-05 0.00316755 0)
(-1.47989e-05 0.00778618 0)
(1.71772e-05 0.00614672 0)
(1.99678e-05 0.00163329 0)
(-0.00113676 0.0118252 0)
(-2.81913e-05 0.000317905 0)
(-0.000120472 0.00132467 0)
(-0.00022055 0.00236949 0)
(-0.000309193 0.00320716 0)
(-0.000474891 0.00474358 0)
(-0.000653397 0.00639609 0)
(-0.000855884 0.00849383 0)
(-0.00105704 0.0105203 0)
(-0.000514306 0.0141432 0)
(-0.00114754 0.0173457 0)
(-0.00127579 0.0175528 0)
(-0.000912184 0.0175713 0)
(-0.00144537 0.017468 0)
(-0.00140814 0.0152151 0)
(-0.00153248 0.0173979 0)
(-0.00128646 0.0133529 0)
(-0.000121486 0.0115141 0)
(7.20471e-05 0.00404659 0)
(3.9401e-05 0.00854687 0)
(7.0613e-05 0.00554496 0)
(2.19735e-05 0.000844175 0)
(-0.0011534 0.0115882 0)
(-5.98217e-05 0.000659982 0)
(-0.000155184 0.00167253 0)
(-0.000242646 0.00254798 0)
(-0.000322665 0.00325614 0)
(-0.000397405 0.0039428 0)
(-0.000556213 0.00543394 0)
(-0.000738376 0.00701256 0)
(-0.000911586 0.00874532 0)
(-0.00110528 0.0106001 0)
(-0.000413392 0.0148444 0)
(-0.0011837 0.0187876 0)
(-0.00151684 0.0189572 0)
(-0.000836167 0.0186149 0)
(-0.00160424 0.0164825 0)
(-0.00176834 0.0188711 0)
(-0.00144935 0.0144374 0)
(2.39061e-05 0.0101536 0)
(-0.000174729 0.0133948 0)
(0.00011479 0.00378113 0)
(0.000153535 0.00754787 0)
(0.000142801 0.00622166 0)
(5.45126e-05 0.00141247 0)
(-0.00131776 0.0127381 0)
(-3.13376e-05 0.000336867 0)
(-0.000131502 0.00138608 0)
(-0.000181991 0.00188725 0)
(-0.000250871 0.00250443 0)
(-0.000398511 0.00384201 0)
(-0.000549936 0.00521646 0)
(-0.000706053 0.00654091 0)
(-0.000850289 0.00801256 0)
(-0.00103533 0.0097836 0)
(-0.00123354 0.0115227 0)
(-0.000540215 0.0169693 0)
(-0.00148628 0.0215775 0)
(-0.00175216 0.0210198 0)
(-0.00104984 0.0211213 0)
(-0.00178006 0.0181464 0)
(-0.00161128 0.0159499 0)
(-0.00198149 0.0208132 0)
(-0.00145057 0.0139959 0)
(0.000181177 0.0101083 0)
(-4.63858e-05 0.0139616 0)
(0.000104676 0.00267492 0)
(0.000179613 0.0051276 0)
(0.000242779 0.00833262 0)
(3.21337e-05 0.00058785 0)
(-0.00133487 0.0124899 0)
(-6.98003e-05 0.000733705 0)
(-0.000182108 0.00184511 0)
(-0.000258452 0.00251804 0)
(-0.000329125 0.003157 0)
(-0.000468513 0.00442905 0)
(-0.000618081 0.0057311 0)
(-0.000768806 0.00693746 0)
(-0.000908198 0.00828336 0)
(-0.00111034 0.0101646 0)
(-0.00123415 0.0112184 0)
(-0.000395099 0.017533 0)
(-0.00144159 0.0229707 0)
(-0.00179146 0.0226581 0)
(-0.00200497 0.0219377 0)
(-0.000878485 0.021706 0)
(-0.00197804 0.0191757 0)
(-0.00179466 0.0169745 0)
(-0.00220505 0.0217414 0)
(-0.00159905 0.0148775 0)
(0.000270687 0.0112448 0)
(0.00017861 0.01299 0)
(-0.000142458 0.0159373 0)
(0.00015256 0.00273923 0)
(0.000253656 0.0051373 0)
(0.000354174 0.00772721 0)
(9.30301e-05 0.00143782 0)
(-0.00146595 0.0133318 0)
(-4.08875e-05 0.000414561 0)
(-0.000101386 0.00101093 0)
(-0.000197607 0.00189624 0)
(-0.000319836 0.00298662 0)
(-0.000461882 0.00424693 0)
(-0.000601484 0.00544258 0)
(-0.000852827 0.00766262 0)
(-0.0007384 0.00649814 0)
(-0.00100509 0.00901122 0)
(-0.00109185 0.00979357 0)
(-0.0013313 0.0117583 0)
(-0.000516294 0.0196893 0)
(-0.00174566 0.025876 0)
(-0.00219933 0.0255366 0)
(-0.00229475 0.024097 0)
(-0.00105926 0.024088 0)
(-0.00196958 0.0184611 0)
(-0.00216977 0.0207804 0)
(-0.00176397 0.0162578 0)
(-0.00246429 0.0236762 0)
(-0.00158068 0.0143872 0)
(0.000486226 0.0102494 0)
(0.00028736 0.0141739 0)
(6.13952e-05 0.0160911 0)
(0.000226832 0.00371548 0)
(0.000347106 0.00621034 0)
(0.000486403 0.00857118 0)
(0.000105922 0.00131248 0)
(-0.0015036 0.01332 0)
(-0.000106806 0.00103864 0)
(-0.000234443 0.00219342 0)
(-0.00037984 0.00347915 0)
(-0.000525552 0.00474136 0)
(-0.000658022 0.00580908 0)
(-0.000915444 0.00800626 0)
(-0.000800091 0.00688399 0)
(-0.00100494 0.00877334 0)
(-0.00119463 0.0104018 0)
(-0.0013009 0.0112657 0)
(-0.00145257 0.0127064 0)
(-0.00028155 0.0197825 0)
(-0.00214647 0.0276557 0)
(-0.00151643 0.0264051 0)
(-0.0023308 0.0274386 0)
(-0.00240557 0.0257228 0)
(-0.00251407 0.0247708 0)
(-0.000767361 0.0240909 0)
(-0.00214829 0.0193514 0)
(-0.00234884 0.0215245 0)
(-0.00188356 0.016783 0)
(-0.00264344 0.0242085 0)
(-0.00170689 0.0150556 0)
(0.000657125 0.0107577 0)
(0.000533637 0.0139251 0)
(4.51944e-05 0.017705 0)
(0.000285084 0.00361443 0)
(0.000430281 0.00574552 0)
(0.000614373 0.00768903 0)
(3.96994e-05 0.000453158 0)
(0.000217587 0.00238388 0)
(-0.00165524 0.0143918 0)
(-4.68958e-05 0.000446629 0)
(-0.000204125 0.00186019 0)
(-0.000367608 0.00328014 0)
(-0.000526121 0.00461393 0)
(-0.000613186 0.00529485 0)
(-0.000889711 0.00765318 0)
(-0.000804882 0.00675755 0)
(-0.00108502 0.00926719 0)
(-0.00117853 0.0100625 0)
(-0.00139398 0.0117452 0)
(-0.00155709 0.0131814 0)
(-0.000353606 0.0217536 0)
(-0.00246818 0.0303708 0)
(-0.00172061 0.0288331 0)
(-0.00279774 0.0301159 0)
(-0.00276373 0.0276416 0)
(-0.00279465 0.0267887 0)
(-0.000913775 0.0264799 0)
(-0.00232001 0.0207585 0)
(-0.00216496 0.0189315 0)
(-0.0025516 0.0230089 0)
(-0.00204448 0.0178642 0)
(-0.00182949 0.0160078 0)
(-0.00289867 0.0257734 0)
(0.000702246 0.012313 0)
(0.000851649 0.00955664 0)
(0.000588567 0.0155268 0)
(0.000309155 0.0174331 0)
(0.000389705 0.00451522 0)
(0.00055815 0.00641149 0)
(0.000801636 0.00818693 0)
(5.00815e-05 0.000405729 0)
(0.000259079 0.00231996 0)
(-0.00172011 0.0146079 0)
(-0.000104909 0.000962721 0)
(-0.000274744 0.00244191 0)
(-0.000447251 0.00390482 0)
(-0.000648487 0.00544007 0)
(-0.000944704 0.00792761 0)
(-0.000747282 0.00618843 0)
(-0.000893044 0.00738995 0)
(-0.00108445 0.00907262 0)
(-0.00126679 0.0105519 0)
(-0.00136606 0.01132 0)
(-0.00151963 0.0126704 0)
(-0.00166741 0.0139882 0)
(-1.03528e-05 0.0213075 0)
(-0.00250199 0.0318543 0)
(-0.0028658 0.0316775 0)
(-0.00140166 0.0288222 0)
(-0.00217908 0.0312274 0)
(-0.00305615 0.0307584 0)
(-0.00299845 0.0294602 0)
(-0.00304679 0.0278584 0)
(-0.000500203 0.0260629 0)
(-0.00249888 0.0215755 0)
(-0.00234975 0.0199092 0)
(-0.00268955 0.0234523 0)
(-0.00208307 0.0176922 0)
(-0.00194675 0.0165935 0)
(-0.00306639 0.0272392 0)
(-0.00299331 0.0257117 0)
(0.000979832 0.0117744 0)
(0.00104063 0.0100394 0)
(0.000843547 0.0156841 0)
(0.000313527 0.0190733 0)
(0.000468442 0.0043803 0)
(0.000599914 0.00543863 0)
(0.000892917 0.00707457 0)
(0.000142199 0.00110813 0)
(0.000400501 0.0033238 0)
(-0.00182624 0.0152764 0)
(-5.78197e-05 0.000515486 0)
(-0.000268383 0.00232571 0)
(-0.000434925 0.00370552 0)
(-0.000586259 0.00482523 0)
(-0.00102056 0.00848138 0)
(-0.000801763 0.0064164 0)
(-0.000932004 0.00753555 0)
(-0.00117228 0.00960188 0)
(-0.00125423 0.0102518 0)
(-0.00146206 0.0117874 0)
(-0.0016036 0.0130199 0)
(-0.00178819 0.0146164 0)
(-8.19529e-06 0.0231335 0)
(-0.00306476 0.0347929 0)
(-0.00324385 0.0342641 0)
(-0.00170633 0.0317359 0)
(-0.00228444 0.0335706 0)
(-0.00351259 0.0332435 0)
(-0.00334198 0.0307796 0)
(-0.00333802 0.0299521 0)
(-0.000627172 0.0286065 0)
(-0.00249692 0.0210931 0)
(-0.0026538 0.0227532 0)
(-0.00239643 0.0198071 0)
(-0.00287623 0.0246267 0)
(-0.00219814 0.0182072 0)
(-0.00198489 0.0165328 0)
(-0.00334829 0.0285519 0)
(-0.00322123 0.0268882 0)
(0.00117983 0.0123625 0)
(0.00127291 0.00954699 0)
(0.00116056 0.0141064 0)
(0.00069897 0.0179932 0)
(0.000734389 0.00569869 0)
(0.00109136 0.00710575 0)
(0.00017358 0.00117421 0)
(0.000443398 0.00306012 0)
(-0.00185908 0.0152325 0)
(-0.00192939 0.0160005 0)
(-0.000112511 0.00096572 0)
(-0.000348711 0.00296462 0)
(-0.000204607 0.00174505 0)
(-0.00049479 0.00410825 0)
(-0.000636351 0.0050678 0)
(-0.00107382 0.0086758 0)
(-0.000748944 0.00588748 0)
(-0.00089782 0.00712149 0)
(-0.00103073 0.00823308 0)
(-0.00116281 0.00932556 0)
(-0.00133573 0.0106786 0)
(-0.0015633 0.0125133 0)
(-0.00143396 0.0113944 0)
(-0.00173165 0.0138287 0)
(-0.00181662 0.0145425 0)
(0.000454113 0.0218329 0)
(-0.00331071 0.0371427 0)
(-0.00362752 0.0357129 0)
(-0.00142878 0.0322658 0)
(-0.00286824 0.0366889 0)
(-0.0037265 0.0350743 0)
(-0.00363676 0.0328557 0)
(-0.00360562 0.0309389 0)
(-0.000114411 0.0276523 0)
(-0.0026589 0.0218306 0)
(-0.00283142 0.0235901 0)
(-0.00232956 0.0190871 0)
(-0.00257323 0.0207401 0)
(-0.00296363 0.0246778 0)
(-0.00214892 0.0175402 0)
(-0.00338206 0.0281443 0)
(-0.00356341 0.0300478 0)
(-0.00328366 0.0267129 0)
(0.00145638 0.0106828 0)
(0.00130789 0.00818493 0)
(0.00148799 0.0141576 0)
(0.000813305 0.0189514 0)
(0.000740461 0.00481417 0)
(0.00108921 0.00596347 0)
(0.000319161 0.00204869 0)
(6.86569e-05 0.000421814 0)
(0.000591451 0.00368951 0)
(-0.00197128 0.015967 0)
(-5.38061e-05 0.000449595 0)
(-0.000345595 0.00285477 0)
(-0.000259622 0.00214401 0)
(-0.000430086 0.0034978 0)
(-0.000576432 0.00450835 0)
(-0.000802334 0.00611235 0)
(-0.000980829 0.00758735 0)
(-0.00107024 0.00832048 0)
(-0.00124954 0.00979554 0)
(-0.00133406 0.0104646 0)
(-0.0016713 0.0130459 0)
(-0.00150687 0.0116673 0)
(-0.00177041 0.0138051 0)
(-0.00198585 0.0154566 0)
(0.000661289 0.0224509 0)
(-0.00389504 0.0397534 0)
(-0.00403992 0.038325 0)
(-0.00183149 0.0356082 0)
(-0.00312977 0.0393526 0)
(-0.00418507 0.0372099 0)
(-0.00398002 0.0343096 0)
(-0.00387779 0.0325501 0)
(-0.000109568 0.0295725 0)
(0.000481306 0.024577 0)
(-0.00280367 0.0227863 0)
(-0.0026707 0.0215066 0)
(-0.00287652 0.0234998 0)
(-0.00247737 0.0196311 0)
(-0.00261922 0.0205989 0)
(-0.00314254 0.0255942 0)
(-0.002264 0.0179696 0)
(-0.00364245 0.0293144 0)
(-0.00378576 0.0309154 0)
(-0.00348947 0.0276857 0)
(0.00176425 0.0106189 0)
(0.00155507 0.0074337 0)
(0.00150142 0.0158593 0)
(0.00183336 0.0122723 0)
(0.00120236 0.0178879 0)
(0.000907872 0.00501555 0)
(0.00125393 0.00576468 0)
(0.000315821 0.00175104 0)
(0.00016137 0.000880731 0)
(0.000582538 0.00315211 0)
(-0.0020792 0.0164726 0)
(-0.000113266 0.000911625 0)
(-0.000226821 0.00182031 0)
(-0.000461141 0.00365206 0)
(-0.00062647 0.00474685 0)
(-0.000918962 0.00687217 0)
(-0.000735592 0.00550952 0)
(-0.000998643 0.00752392 0)
(-0.00117568 0.00896694 0)
(-0.00126324 0.00967761 0)
(-0.00143664 0.0110487 0)
(-0.00168835 0.0129331 0)
(-0.0016077 0.012274 0)
(-0.00190592 0.014516 0)
(-0.00201895 0.0153508 0)
(-0.00209588 0.0162689 0)
(0.00121282 0.0196924 0)
(-0.00416755 0.0399202 0)
(-0.00430259 0.0428041 0)
(-0.004374 0.039078 0)
(-0.0027267 0.0391311 0)
(-0.0014155 0.0356817 0)
(-0.00407571 0.0432195 0)
(-0.00437245 0.0374445 0)
(-0.00402577 0.0338206 0)
(-0.00427642 0.0362389 0)
(-0.00407733 0.033059 0)
(0.000706153 0.02666 0)
(-0.000575613 0.0326511 0)
(0.000947702 0.0240436 0)
(-0.00294314 0.0232311 0)
(-0.00286787 0.0225122 0)
(-0.00310121 0.0246256 0)
(-0.00244946 0.0191191 0)
(-0.00280758 0.0215012 0)
(-0.00322262 0.0255619 0)
(-0.00222714 0.01745 0)
(-0.0038065 0.0304925 0)
(-0.00367207 0.0289594 0)
(-0.00401197 0.0322713 0)
(-0.00353259 0.0274898 0)
(0.00199465 0.00896235 0)
(0.00146808 0.00630869 0)
(0.0018463 0.00766357 0)
(0.00196084 0.0149134 0)
(0.00216761 0.0125035 0)
(0.000877586 0.00417162 0)
(0.00121678 0.00493061 0)
(0.000434183 0.00224153 0)
(9.36387e-05 0.000457265 0)
(0.000712719 0.00341495 0)
(-5.95388e-05 0.000465102 0)
(-0.000293086 0.00227961 0)
(-0.000402775 0.00312265 0)
(-0.000564873 0.00422011 0)
(-0.000930478 0.00675987 0)
(-0.00080777 0.00588341 0)
(-0.00112177 0.00827794 0)
(-0.0012014 0.00894572 0)
(-0.00139413 0.0104279 0)
(-0.00147904 0.0111107 0)
(-0.00182294 0.0136253 0)
(-0.00168655 0.0125184 0)
(-0.00193166 0.0143915 0)
(-0.0021768 0.0161486 0)
(-0.00229295 0.0172707 0)
(0.00160655 0.0190827 0)
(-0.00476728 0.0428517 0)
(-0.00496516 0.0449718 0)
(-0.00477247 0.0411136 0)
(-0.0032329 0.0427154 0)
(-0.00198755 0.0394857 0)
(-0.00448836 0.0461497 0)
(-0.00476791 0.0393364 0)
(-0.00436415 0.0352921 0)
(-0.00464325 0.0375918 0)
(-0.00434736 0.0345927 0)
(0.00114554 0.0265603 0)
(-0.000211326 0.0332391 0)
(0.00155026 0.0211799 0)
(-0.00311932 0.0242993 0)
(-0.00295477 0.0226205 0)
(-0.00258189 0.019586 0)
(-0.00287658 0.0214994 0)
(-0.00341317 0.0265086 0)
(-0.00237961 0.0180128 0)
(-0.00404038 0.0315681 0)
(-0.00390199 0.0298968 0)
(-0.00416919 0.0326576 0)
(-0.00371888 0.0283131 0)
(0.00240668 0.00841628 0)
(0.0015947 0.00548647 0)
(0.00198827 0.00644345 0)
(0.00208746 0.0162047 0)
(0.0025277 0.0111671 0)
(0.00102702 0.00423777 0)
(0.00139784 0.00482104 0)
(0.000449169 0.00208095 0)
(0.000176048 0.000771849 0)
(0.000627186 0.00275246 0)
(-0.000126413 0.00095443 0)
(-0.000244504 0.00184753 0)
(-0.00045832 0.0034567 0)
(-0.000586919 0.00426835 0)
(-0.00103062 0.00731927 0)
(-0.000782485 0.00555874 0)
(-0.00118989 0.00856139 0)
(-0.00133426 0.00970985 0)
(-0.00142957 0.0104259 0)
(-0.00162054 0.0119324 0)
(-0.00181759 0.0133357 0)
(-0.00209913 0.0152283 0)
(-0.00232504 0.0171711 0)
(-0.00222056 0.0160953 0)
(-0.00498434 0.0430336 0)
(-0.00558875 0.0480007 0)
(-0.00503563 0.0417295 0)
(-0.0040561 0.0458209 0)
(-0.00284332 0.0426472 0)
(-0.00164859 0.0398517 0)
(-0.00520362 0.0492307 0)
(-0.00488771 0.0391534 0)
(-0.00500874 0.0408988 0)
(-0.0046462 0.0369828 0)
(-0.00457399 0.0354158 0)
(0.000765442 0.0297781 0)
(0.00197697 0.0228374 0)
(-0.000750739 0.0367545 0)
(0.00206508 0.0203316 0)
(-0.00330625 0.0250678 0)
(-0.00318224 0.0237254 0)
(-0.00276293 0.0205987 0)
(-0.00253731 0.0189418 0)
(-0.00310273 0.0226127 0)
(-0.00357331 0.0269725 0)
(-0.00417198 0.0318611 0)
(-0.0041233 0.0311823 0)
(-0.00388938 0.0293777 0)
(-0.00441672 0.0337805 0)
(-0.0037616 0.028085 0)
(0.00263531 0.00930169 0)
(0.00251999 0.0066717 0)
(0.00181079 0.00548491 0)
(0.00227211 0.00603088 0)
(0.00256225 0.0152795 0)
(0.00293119 0.0113207 0)
(0.000996182 0.00365362 0)
(0.00135592 0.00421906 0)
(0.000343513 0.00148989 0)
(7.95773e-05 0.000321277 0)
(0.0006716 0.00263456 0)
(-6.77258e-05 0.000495224 0)
(-0.000319526 0.00234787 0)
(-0.000420188 0.00309715 0)
(-0.000672195 0.00478378 0)
(-0.000495141 0.003577 0)
(-0.00101855 0.00706598 0)
(-0.00115904 0.00820314 0)
(-0.000891667 0.00617695 0)
(-0.0013354 0.00951825 0)
(-0.00158015 0.0112776 0)
(-0.00168206 0.0120782 0)
(-0.00194761 0.0139445 0)
(-0.00211466 0.0150331 0)
(-0.00250599 0.017945 0)
(-0.00242225 0.0171596 0)
(-0.00545224 0.0449523 0)
(-0.00590071 0.0504909 0)
(-0.0059696 0.0486273 0)
(-0.00543483 0.0439285 0)
(-0.00463767 0.0494519 0)
(-0.00340298 0.0461421 0)
(-0.00228148 0.0437302 0)
(-0.00534583 0.0515604 0)
(-0.00571209 0.0507955 0)
(-0.00524686 0.0408307 0)
(-0.0053631 0.0420938 0)
(-0.00494868 0.038023 0)
(-0.00485236 0.0369858 0)
(-0.00458983 0.0349352 0)
(0.0012313 0.0300097 0)
(0.00270781 0.0212013 0)
(-0.000404576 0.0372134 0)
(0.00261082 0.0172665 0)
(-0.00354141 0.0264415 0)
(-0.00333629 0.0248033 0)
(-0.00325084 0.0236701 0)
(-0.00285433 0.0207343 0)
(-0.0026997 0.0196438 0)
(-0.00319146 0.0227073 0)
(-0.00443642 0.0333301 0)
(-0.00437534 0.0320359 0)
(-0.00409563 0.0300935 0)
(-0.00399529 0.0291669 0)
(0.00306973 0.00815355 0)
(0.00288982 0.00574376 0)
(0.00191455 0.00465216 0)
(0.00222719 0.00473422 0)
(0.00298135 0.0128251 0)
(0.00330152 0.00908068 0)
(0.000832157 0.00301623 0)
(0.00115019 0.00371383 0)
(0.00146873 0.00382037 0)
(0.000390935 0.00153476 0)
(0.000160225 0.000594493 0)
(0.000539107 0.00203166 0)
(-0.000153076 0.00108585 0)
(-0.000286002 0.00203751 0)
(-0.0006218 0.0043294 0)
(-0.000500515 0.00353237 0)
(-0.00112339 0.00763761 0)
(-0.00128328 0.00882228 0)
(-0.000900767 0.00608023 0)
(-0.00144877 0.0100775 0)
(-0.00164311 0.0114594 0)
(-0.0018305 0.012891 0)
(-0.00194776 0.0137097 0)
(-0.00227559 0.0157594 0)
(-0.0026814 0.0189486 0)
(-0.00251366 0.0174063 0)
(-0.00583025 0.0470525 0)
(-0.00671818 0.0537209 0)
(-0.00655209 0.0512783 0)
(-0.0057573 0.044961 0)
(-0.00435164 0.0497092 0)
(-0.00312768 0.0465801 0)
(-0.00199376 0.044408 0)
(-0.00603333 0.0545959 0)
(-0.00635552 0.0545219 0)
(-0.00541259 0.041232 0)
(-0.00569706 0.0439003 0)
(-0.00527394 0.0396616 0)
(-0.00506248 0.03756 0)
(-0.00489789 0.0362907 0)
(0.00216226 0.0267228 0)
(0.000534828 0.0341844 0)
(0.00281301 0.0227802 0)
(0.00324892 0.0177173 0)
(-0.00104152 0.0410494 0)
(0.0031172 0.0162218 0)
(-0.00376964 0.0271913 0)
(-0.00362193 0.026105 0)
(-0.00349169 0.0247975 0)
(-0.00304835 0.0216917 0)
(-0.00275972 0.0196762 0)
(-0.00343599 0.023866 0)
(-0.00467782 0.0341928 0)
(-0.00464352 0.033468 0)
(-0.00432735 0.0313199 0)
(-0.00415667 0.0295815 0)
(0.00322215 0.00634696 0)
(0.00285544 0.00436095 0)
(0.00170506 0.00392146 0)
(0.00243244 0.00408587 0)
(0.00352606 0.0119723 0)
(0.00379753 0.00806251 0)
(0.000813289 0.00265636 0)
(0.00111703 0.00326509 0)
(0.00127088 0.00330024 0)
(0.000304357 0.00112112 0)
(7.81728e-05 0.000273518 0)
(0.000538918 0.00186047 0)
(-8.74913e-05 0.000600934 0)
(-0.000395169 0.00275519 0)
(-0.000657918 0.00446853 0)
(-0.00113301 0.00754231 0)
(-0.00125054 0.00847083 0)
(-0.00142291 0.00971481 0)
(-0.000792596 0.0053047 0)
(-0.0010373 0.00686731 0)
(-0.00158664 0.010945 0)
(-0.00182267 0.012461 0)
(-0.00189901 0.013049 0)
(-0.002113 0.0144845 0)
(-0.00243545 0.0167164 0)
(-0.00226049 0.0153826 0)
(-0.00286951 0.0196903 0)
(-0.00273441 0.0185005 0)
(-0.00623159 0.0481741 0)
(-0.00717833 0.0565048 0)
(-0.00689434 0.0535266 0)
(-0.00681163 0.051632 0)
(-0.00613541 0.0469568 0)
(-0.00482021 0.0529928 0)
(-0.00391297 0.0506697 0)
(-0.00276596 0.0488474 0)
(-0.00651797 0.0575944 0)
(-0.00696141 0.056761 0)
(-0.00580102 0.0430469 0)
(-0.00540479 0.0407009 0)
(-0.00600214 0.0449182 0)
(-0.00552089 0.040244 0)
(-0.00537602 0.0390627 0)
(-0.00504124 0.0365578 0)
(0.00274853 0.0266521 0)
(0.000634588 0.0358609 0)
(0.00369915 0.0201178 0)
(0.00391442 0.0153352 0)
(-0.000517722 0.0407641 0)
(0.0035567 0.0136406 0)
(-0.00404215 0.0285573 0)
(-0.00369042 0.0260651 0)
(-0.00357401 0.0248365 0)
(-0.00313858 0.0218093 0)
(-0.00299616 0.0208441 0)
(-0.00354141 0.0240237 0)
(-0.0049474 0.0356303 0)
(-0.00492986 0.0344831 0)
(-0.00459774 0.0322046 0)
(-0.00449907 0.0312576 0)
(0.0036298 0.0053201 0)
(0.00314909 0.00326326 0)
(0.00169992 0.0031713 0)
(0.00232692 0.00320808 0)
(0.00399877 0.00934017 0)
(0.00398901 0.00603109 0)
(0.000947354 0.00281955 0)
(0.000655597 0.00213108 0)
(0.00119267 0.00284444 0)
(0.000389308 0.0013413 0)
(0.000169898 0.000560468 0)
(-0.000177188 0.00118354 0)
(-0.000413498 0.00281183 0)
(-0.000555443 0.00372741 0)
(-0.00126231 0.00826793 0)
(-0.00134113 0.00886714 0)
(-0.0015481 0.0103304 0)
(-0.000830995 0.00540347 0)
(-0.00107815 0.00696377 0)
(-0.00172295 0.0115711 0)
(-0.0018704 0.0124978 0)
(-0.00207965 0.0140504 0)
(-0.00258114 0.017302 0)
(-0.00244696 0.0161967 0)
(-0.00306447 0.0208671 0)
(-0.00289813 0.0195155 0)
(-0.0027523 0.0183028 0)
(-0.00664188 0.0501651 0)
(-0.00788191 0.0592348 0)
(-0.00745151 0.0556361 0)
(-0.00726693 0.0536035 0)
(-0.00645773 0.0478912 0)
(-0.0057001 0.0568815 0)
(-0.00387193 0.0522803 0)
(-0.00236206 0.049285 0)
(-0.00737852 0.060458 0)
(-0.00646176 0.0588535 0)
(-0.00749984 0.0597941 0)
(-0.00578805 0.0424619 0)
(-0.00602547 0.044381 0)
(-0.00635881 0.0468162 0)
(-0.00587014 0.041911 0)
(-0.00558115 0.0394803 0)
(-0.00537955 0.0381135 0)
(0.00244483 0.0297006 0)
(0.00373754 0.0221534 0)
(0.00137105 0.0342031 0)
(0.00452941 0.016115 0)
(0.00450867 0.0143137 0)
(0.00403321 0.0129545 0)
(-0.000998037 0.0442697 0)
(-0.00426709 0.0292378 0)
(-0.00395544 0.0271 0)
(-0.00386188 0.0262166 0)
(-0.00337696 0.0229353 0)
(-0.00382596 0.025338 0)
(-0.00526467 0.03676 0)
(-0.00525785 0.036226 0)
(-0.00490675 0.03381 0)
(-0.00469936 0.0318079 0)
(0.00376998 0.00385688 0)
(0.00295268 0.00243489 0)
(0.00357638 0.00298922 0)
(0.00194719 0.00289352 0)
(0.00134097 0.00279881 0)
(0.00257684 0.00248543 0)
(0.00457351 0.00838838 0)
(0.00447817 0.00434767 0)
(0.000896852 0.0025248 0)
(0.000616716 0.00188534 0)
(0.000996678 0.00254263 0)
(0.0003354 0.00109643 0)
(8.81632e-05 0.000282473 0)
(-9.08977e-05 0.00059025 0)
(-0.000327246 0.00218637 0)
(-0.000577143 0.0037684 0)
(-0.00132064 0.00846909 0)
(-0.00147873 0.00964246 0)
(-0.00170262 0.0112852 0)
(-0.00156524 0.0102585 0)
(-0.000978298 0.00626537 0)
(-0.000712943 0.00458719 0)
(-0.00123274 0.00784099 0)
(-0.00202826 0.0132744 0)
(-0.00222103 0.0146441 0)
(-0.00259915 0.0171195 0)
(-0.00243249 0.0158464 0)
(-0.00329813 0.0219318 0)
(-0.00316862 0.0207247 0)
(-0.00289859 0.0188493 0)
(-0.00697857 0.0510187 0)
(-0.00830201 0.0617189 0)
(-0.00814252 0.0594936 0)
(-0.00790764 0.0578557 0)
(-0.00749928 0.0551288 0)
(-0.00753842 0.0541954 0)
(-0.00685981 0.0498417 0)
(-0.0057532 0.0589477 0)
(-0.00482329 0.0566354 0)
(-0.00309579 0.0536604 0)
(-0.00804848 0.0637278 0)
(-0.00746721 0.0634283 0)
(-0.00814887 0.0620209 0)
(-0.00600008 0.0430735 0)
(-0.00646143 0.0462113 0)
(-0.00665477 0.0476434 0)
(-0.00617913 0.0429628 0)
(-0.00593463 0.0410167 0)
(-0.00553094 0.0382869 0)
(0.00318194 0.0289417 0)
(0.00462677 0.0195724 0)
(0.00111211 0.0376257 0)
(0.00525191 0.0148708 0)
(0.00506324 0.0104201 0)
(0.004549 0.0105516 0)
(-0.00017595 0.0430359 0)
(-0.00456402 0.0307327 0)
(-0.00420632 0.0284402 0)
(-0.00400764 0.0265525 0)
(-0.00347222 0.0230464 0)
(-0.00393769 0.0254894 0)
(-0.00558073 0.0373515 0)
(-0.0052126 0.03492 0)
(-0.00507142 0.0334554 0)
(0.00428657 0.00303668 0)
(0.00311396 0.00138281 0)
(0.00379464 0.00148981 0)
(0.00183154 0.00233125 0)
(0.00119339 0.00249364 0)
(0.00245939 0.00184193 0)
(0.00509902 0.00563274 0)
(0.00498148 0.00385874 0)
(0.000728305 0.00210541 0)
(0.000445841 0.00138394 0)
(0.000860067 0.0022664 0)
(0.000145256 0.000450256 0)
(-0.00020307 0.00129307 0)
(-0.000433166 0.00282109 0)
(-0.00146273 0.00926416 0)
(-0.0015384 0.00981983 0)
(-0.00182351 0.0117932 0)
(-0.00173465 0.0111493 0)
(-0.00103872 0.00648452 0)
(-0.00075922 0.00475854 0)
(-0.00131034 0.00814508 0)
(-0.00219095 0.0142658 0)
(-0.00207865 0.0133264 0)
(-0.00279495 0.0180464 0)
(-0.00263094 0.0166622 0)
(-0.00336195 0.021905 0)
(-0.00322263 0.0206976 0)
(-0.00308621 0.0197981 0)
(-0.00741462 0.0530472 0)
(-0.00901764 0.0644927 0)
(-0.0088341 0.0623283 0)
(-0.00831762 0.0588178 0)
(-0.00801638 0.0570687 0)
(-0.00804507 0.0565357 0)
(-0.00719746 0.0507806 0)
(-0.00657927 0.0628047 0)
(-0.00509736 0.0594057 0)
(-0.00448142 0.0586506 0)
(-0.00234114 0.0529024 0)
(-0.00878377 0.066017 0)
(-0.00810986 0.065049 0)
(-0.00773616 0.0656812 0)
(-0.00876059 0.0650195 0)
(-0.00645604 0.0451181 0)
(-0.00668218 0.0466233 0)
(-0.00706041 0.0495358 0)
(-0.00657412 0.0450495 0)
(-0.00619811 0.0425629 0)
(-0.00613739 0.0413786 0)
(-0.00591771 0.0399421 0)
(0.00431086 0.0249106 0)
(0.00226158 0.0344402 0)
(0.00497255 0.0203682 0)
(0.00600606 0.0120452 0)
(0.00575971 0.0075049 0)
(-0.000763566 0.0472601 0)
(-0.00482635 0.0316152 0)
(-0.00449486 0.0294922 0)
(-0.00434035 0.0280455 0)
(-0.00374488 0.0242756 0)
(-0.00423996 0.026813 0)
(-0.00591457 0.0389919 0)
(-0.00552808 0.0365885 0)
(-0.00528064 0.0347083 0)
(-0.00514677 0.0332787 0)
(0.00450546 0.00157276 0)
(0.00350294 0.000830446 0)
(0.00274912 0.00115417 0)
(0.004234 0.000842716 0)
(0.00210885 0.00183156 0)
(0.00148367 0.00219297 0)
(0.000941092 0.00227338 0)
(0.00125769 0.00229357 0)
(0.0057631 0.00475002 0)
(0.00543911 0.00106745 0)
(0.000709189 0.00199306 0)
(0.000397612 0.00121173 0)
(0.000776021 0.00208497 0)
(5.73822e-05 0.00017864 0)
(0.000269291 0.00082552 0)
(-0.00019641 0.00122818 0)
(-0.000391103 0.00250061 0)
(-0.0015673 0.00970927 0)
(-0.00169772 0.0106581 0)
(-0.00198665 0.0126688 0)
(-0.00180015 0.011336 0)
(-0.00121142 0.0074617 0)
(-0.000933291 0.0057685 0)
(-0.000648592 0.00401865 0)
(-0.00150075 0.0092029 0)
(-0.00235285 0.0149457 0)
(-0.00227446 0.014335 0)
(-0.00290516 0.0183845 0)
(-0.00256281 0.0160581 0)
(-0.00284817 0.0178243 0)
(-0.00363308 0.0231022 0)
(-0.00349399 0.0218815 0)
(-0.00323609 0.0202641 0)
(-0.00779945 0.0541674 0)
(-0.00936557 0.0667314 0)
(-0.00925748 0.0647342 0)
(-0.00906112 0.0626081 0)
(-0.00877693 0.0607264 0)
(-0.00840032 0.0575776 0)
(-0.00765984 0.0529072 0)
(-0.00634826 0.0637399 0)
(-0.0073614 0.0653137 0)
(-0.00536216 0.0637673 0)
(-0.0031154 0.0573262 0)
(-0.00940861 0.0688843 0)
(-0.00896293 0.0687421 0)
(-0.00870315 0.0695484 0)
(-0.007203 0.0489419 0)
(-0.00737637 0.050381 0)
(-0.00700505 0.0466582 0)
(-0.00661212 0.0440721 0)
(-0.00653398 0.0431663 0)
(-0.00607971 0.0401954 0)
(0.00494865 0.0252003 0)
(0.00252907 0.0354874 0)
(0.00618939 0.0158801 0)
(0.00655112 0.012364 0)
(0.00648492 0.00868425 0)
(0.00642413 0.00665219 0)
(9.21409e-05 0.0462673 0)
(-0.00480113 0.0310914 0)
(-0.00454419 0.029283 0)
(-0.00445587 0.0281252 0)
(-0.00383354 0.0243162 0)