/*--------------------------------*- C++ -*----------------------------------*\
| =========                 |                                                 |
| \\      /  F ield         | OpenFOAM: The Open Source CFD Toolbox           |
|  \\    /   O peration     | Version:  v2012                                 |
|   \\  /    A nd           | Website:  www.openfoam.com                      |
|    \\/     M anipulation  |                                                 |
\*---------------------------------------------------------------------------*/
FoamFile
{
    version     2.0;
    format      ascii;
    class       surfaceScalarField;
    location    "0.33";
    object      meshPhi;
}
// * * * * * * * * * * * * * * * * * * * * * * * * * * * * * * * * * * * * * //

dimensions      [0 3 -1 0 0 0 0];


internalField   nonuniform List<scalar> 
18811
(
0.00345092
0.00173343
-0.000759549
0.00986452
-0.00359155
0.0103505
0.00700298
-0.00153018
0.0163864
0.00300579
0.0141915
0.0128239
0.00343871
0.00461789
0.01869
0.011793
-0.00281432
0.00134119
0.0179943
0.0239525
0.0158222
-0.0041521
-0.00594195
0.0306334
0.012244
0.00526481
0.00227457
0.0186902
0.0170675
0.00302622
0.0289422
0.0217259
0.0010482
0.00478269
0.00621184
0.0317939
0.0174353
-0.00759345
0.00828885
-0.0018572
0.0146656
0.00898536
0.0368986
0.0323165
0.0425817
-0.0153252
0.0233174
-0.00221573
-0.0103321
0.0490073
0.0138276
0.00770298
0.00468881
0.00214195
0.0278493
0.0340429
0.000467949
0.0401966
0.0044667
0.0469252
0.0319695
-0.000349155
0.015343
-0.00658884
0.00624921
0.0508792
-0.0102133
0.0216658
0.0136345
-0.00547822
0.00571762
-0.000805159
0.028715
0.00291868
-0.0107556
0.0522256
0.040494
0.0530121
0.0608865
-0.0226314
0.030512
0.000805462
0.000188525
-0.00353017
0.0614687
0.00685631
0.0157815
0.00891796
0.00263732
-0.00128439
0.00252094
0.0234358
0.0214353
0.0565864
-0.00934068
0.0593735
0.000410761
0.0621473
0.0112069
0.0592556
0.0349061
0.00223609
0.0236889
-0.014611
0.00694697
0.0113347
0.0563486
-0.00732902
0.0171582
-0.0099747
0.021573
-0.00529125
0.0104588
0.000502687
-0.00137902
-0.0241395
0.0524582
8.77776e-05
0.0466018
0.0157632
0.0328535
0.0700284
0.0834584
0.0772726
-0.0282598
0.0373121
0.00346875
0.00293841
0.00196882
0.0605124
0.0062102
0.0105682
0.0249758
0.00209994
-0.000489508
0.00238657
0.0330746
0.0265315
0.0543482
0.0548151
-0.0268416
0.0664365
0.0804725
0.00318695
0.0086691
0.083711
0.0250798
0.0600008
0.016674
-0.0244525
0.0371974
0.0147294
-0.00391489
0.0928155
0.012319
-0.00362865
-0.00711724
0.0205785
-0.00892572
0.0376905
0.000603936
0.00401513
-0.000692018
-0.0220316
0.0546387
-0.0165115
0.0758223
0.0431526
0.0521091
0.0220991
0.0982281
0.0654872
0.0293141
0.0624946
0.0984853
-0.0321113
0.0565338
-0.00220467
0.0138306
0.00375977
0.0309491
0.0667118
0.00790778
-0.00497851
0.00291337
0.0149372
0.0210925
0.000765825
-0.000201055
0.000651473
0.0178507
0.0427204
0.0288538
0.0547069
0.066306
-0.0432203
0.0723108
0.0312595
0.0759689
-0.0394339
0.114262
0.100744
0.052894
0.0538844
0.0215598
-0.0136006
0.0193944
0.0398424
-0.0189875
-0.00304109
0.0644455
0.0387889
0.0326946
-0.0039752
0.013894
0.00539975
-0.00159277
-0.00689855
0.0245186
-0.0142796
0.0387593
-0.000873915
0.00124331
-0.00157238
0.0485061
-0.023625
0.0836523
0.0472487
0.0409892
-0.000568499
0.0855904
0.0824525
0.0451409
0.0497885
0.0595363
0.110769
0.100168
-0.0447337
0.0750562
0.0328128
-0.0053868
0.00184702
0.0207294
0.00539066
0.101722
0.00354779
0.00938632
0.0127209
0.0356875
0.00633648
0.0384361
0.00540845
0.047735
0.0162421
0.0721077
0.056729
-0.0493603
0.0990925
0.091185
0.0370681
0.0546449
-0.0617176
0.116782
0.103683
0.0633749
0.055948
0.0457936
0.0616042
0.0353621
-0.0172988
0.0201437
-0.0346617
0.0429513
-0.00871103
-0.00329898
0.0370708
0.0718187
0.00434899
-0.00267296
0.0136703
-0.00628187
0.0206308
-0.0193129
0.0282459
2.14907e-05
0.0411864
-0.0100227
0.0616326
0.0770811
0.00597945
0.0719148
0.0480297
0.0473786
0.0533745
0.109435
0.0788357
0.0503365
0.0786133
0.0340525
0.116882
0.144197
0.104603
-0.0487671
0.0942112
0.024728
0.00139392
0.0604588
-0.0113161
0.0213201
0.00557019
0.0834687
0.0032475
0.00883963
0.002988
0.0256956
0.00449398
0.0281435
0.0343285
0.032677
0.0321446
0.028065
0.0534049
0.0119704
0.0629678
-0.0427605
0.0986749
0.14427
0.153084
-0.0630076
0.122983
0.0650695
0.0590351
0.0494319
0.104564
0.0443151
0.0664495
0.0195639
0.0607886
-0.0153178
0.0225883
-0.0446491
0.039477
-0.0177023
0.0137159
-0.00182915
0.0265274
0.0613469
0.00411372
0.0112074
-0.0012124
0.0157472
-0.0149925
0.0213056
0.0010366
0.0288014
-0.00394705
0.0403782
-0.0147674
0.0497074
0.0638466
0.0685362
0.0172159
0.0491845
0.0448059
0.0493616
0.111157
0.0373454
0.1303
0.0914185
0.0428543
0.121718
0.109249
-0.00988771
0.123888
0.097679
-0.0423109
0.0681143
-0.0114749
0.0781682
0.00426961
0.0104408
0.0027315
0.00427342
0.0826329
0.00432686
0.00233703
0.0159481
0.00661794
0.0183394
0.0268053
0.0276439
0.0252309
0.0263525
0.0189658
0.0467493
0.0238082
0.047073
0.0753053
-0.046779
0.0983073
0.153318
0.162168
0.130647
-0.0674257
0.118494
0.0517924
0.075589
0.0588961
0.0555904
0.0330089
0.0970948
0.0456562
0.0556348
0.0760211
-0.000796494
0.0712494
0.0369643
-0.00962994
0.0190307
-0.0182073
0.0349501
-0.0354752
0.0444841
0.000303183
0.0157994
0.069404
0.00539566
0.00954696
-0.00720481
0.0150132
-0.00297195
0.0225339
-0.00128819
0.0295346
-0.00561788
0.0345452
0.0457981
-0.0189335
0.047036
0.00947629
0.0390376
0.0586534
0.0414802
0.0361911
0.038001
0.146388
0.0200911
0.0886606
0.086337
0.0364799
0.101717
0.0989966
0.0280784
0.115856
0.114135
0.105358
-0.0158099
0.120203
0.0737087
-0.0513128
0.0568251
0.046665
0.0294888
0.0881733
0.00613721
0.00477622
-0.00200515
-0.00398426
0.0119373
0.0280479
0.0434206
0.00447611
0.0134303
0.02279
0.0252264
0.0171168
0.0159969
0.0312681
0.011802
0.0364556
0.0565121
0.021723
0.0386909
0.0651059
0.0664384
-0.0536627
0.0971138
0.0282215
0.128146
0.128433
0.125467
0.130578
0.0923615
-0.0714529
0.105878
0.0503702
0.0697712
0.043925
0.074192
0.0723527
0.0355525
0.0195903
0.104907
0.0338471
0.0421578
0.0629584
-0.00279047
-0.0410173
0.0751553
0.0394633
-0.0133263
0.0250274
-0.0216289
0.0308955
-0.0386887
0.041707
0.000487748
0.00383381
0.079342
0.00574101
-0.00159486
0.0163668
0.000986945
0.0229037
0.0244697
0.00191334
0.043057
0.0442008
0.00906179
0.0287062
0.0125414
0.0456595
0.0527165
0.0376206
0.0290776
0.0378137
0.0303984
0.0312038
0.0551656
0.0799867
0.0146682
0.120688
0.0299489
0.104469
0.034048
0.10323
0.132341
0.0832021
0.0291049
0.0977756
-0.0161044
0.0892438
0.097425
0.0590757
0.0798733
0.0324843
0.0763611
0.0257117
-0.0502382
0.0510131
0.0301664
0.0481497
0.0724955
0.00743691
-0.00420883
-0.00457061
0.00494516
-0.00789739
0.0169266
0.0247799
0.05596
0.00569276
0.0186304
0.0262706
0.029279
0.015778
0.0131721
0.0321154
0.039982
0.042959
0.00543134
0.0413367
0.0175024
0.0364899
0.0564652
0.068664
0.0564057
-0.0523367
0.0873787
-0.0523606
0.114492
0.116346
0.103008
0.0762549
-0.00911232
0.120497
0.100439
0.0634392
0.0745965
-0.0708619
0.105116
0.0591783
0.0415271
0.0238798
0.0678526
0.0331261
0.0665402
-0.0187248
0.0794708
0.0628919
0.0998384
-0.00777264
0.0867377
-0.0302496
0.0581686
0.0225917
-0.00240649
0.0523855
0.0227825
0.0270837
-0.0155429
0.0267485
-0.0339987
0.0333874
0.003038
0.00633534
0.0361208
0.0206002
0.00701006
0.0141074
0.005653
0.000546238
0.0266586
-0.0169309
0.0344177
0.0385993
0.0210386
0.0203934
0.0187567
0.0251639
0.012982
0.0293673
0.050667
0.0258731
0.0319822
0.0274261
0.0424675
-0.00648137
0.0641734
0.0202724
0.010096
0.1121
0.134406
0.0551286
0.055262
0.138107
0.0785287
0.0488207
0.0321858
0.073165
0.111905
0.0704138
0.0405057
0.0854354
0.076693
0.0113513
0.0581062
0.0608426
0.0527024
0.0285819
0.018859
0.0456023
0.0534202
0.0493057
0.0279777
0.0612127
0.0577188
0.00142347
0.0457848
-0.0217374
0.0581169
0.0774282
-0.00352654
0.0430221
-0.00746084
0.00934458
-0.00173163
-0.0106581
0.0219445
0.0303643
0.0404506
0.00447076
0.00385545
0.0153758
0.0109914
0.0109956
0.0205414
0.0152434
0.0185406
0.0210976
0.0431311
0.0402122
0.0448593
0.0515166
0.0189279
0.0326981
0.0544891
0.0520228
-0.00627186
0.0500112
0.0594367
-0.0452631
0.0679141
-0.0244837
0.145676
0.0313226
0.110223
0.132218
0.123612
0.116046
0.127794
0.0336324
0.081775
0.078524
-0.0353589
0.0439653
0.0430791
0.0117967
0.0666912
0.0658122
0.0126557
0.0468418
0.0742121
0.0755963
0.0837712
0.085514
-0.0170295
0.0801589
0.0484443
0.0229344
0.0529376
0.00488197
0.0335956
-0.0237669
0.0242527
-0.0296552
0.0242909
0.00194126
0.00241655
0.00164869
0.0718331
0.00497163
0.000237467
0.0159593
0.0121293
0.0282029
-0.015117
0.0316898
0.0289887
0.0153277
-0.00138456
0.0427946
0.0446133
0.00671288
0.0461185
0.0403005
0.00479727
0.0508121
0.00829248
0.0447731
0.0558398
0.0551984
0.0058155
0.0784345
-0.00965467
0.0549832
0.0978084
0.0405642
0.0748588
0.0783414
0.0616092
0.0266035
0.105296
0.0334905
0.0871779
0.0583401
0.0740009
0.0173354
0.0671462
-0.00621109
0.086553
0.0450861
-0.00981721
0.0550909
0.0570071
0.0583185
0.0302934
0.0371732
0.0787179
0.0590232
0.0435803
0.0338705
0.0321704
0.0539254
0.0382744
0.0489438
0.0269624
0.0549401
0.0412154
0.00610349
-0.0192472
0.0433509
0.0209811
0.0324769
0.0461322
0.0550446
-0.00302242
0.0305236
-0.00507873
-0.00681997
0.0123438
-0.000958075
-0.0111627
0.0154962
0.0463286
0.0271018
0.00232251
0.00383981
0.0156662
0.0144974
0.0193548
0.0136627
-0.00641969
0.0368753
0.0358711
0.0379241
-0.00266543
0.048768
0.0447297
0.0495714
0.00192183
0.0500462
0.0478569
0.00880441
0.0484963
0.0655778
0.053443
0.0462676
0.100534
0.0102853
0.0948922
0.112022
0.111808
-0.0290577
0.0948196
0.12394
-0.000338605
0.0909387
0.0785051
0.0766239
0.0128155
0.0562892
-0.0586148
0.053954
0.0615935
-0.0132464
0.0129249
0.0434281
0.0714571
0.0156149
0.0442686
0.0826897
0.00887553
0.0718579
0.0765045
0.0625136
0.072175
0.0828014
0.0635538
-0.0113716
0.0676367
-0.0323006
0.0381243
0.0117289
0.00994131
-0.0187513
0.0502808
0.0259673
-0.0229476
0.0227596
-0.0231362
0.0192028
0.00392658
0.00367909
-0.00506763
0.00501721
0.00622265
0.0106995
0.0218633
-0.00992442
0.02451
-0.00756745
0.0457123
0.0295846
-0.0107427
0.0498333
0.0389815
-0.00596256
0.0519933
0.044783
0.0108771
0.0402964
0.0195661
0.029374
0.0606818
0.00955469
0.0573916
-0.0105721
0.0656962
0.0553897
-0.0098852
0.0415323
0.0638423
0.142398
0.0331971
0.082335
0.0816397
0.0361337
0.0493584
0.0499081
0.00911443
0.120926
0.0378044
0.0553825
0.0294047
0.0512139
0.0439687
0.0354232
0.0877719
0.0635102
-0.0101002
-0.0107749
0.074013
0.0425865
0.089469
0.0822561
0.0592657
0.0250299
0.00310553
0.0705683
0.0666446
0.0536763
0.00728658
0.0662571
0.0511742
0.0334171
0.0721512
0.032453
0.0362669
0.0349218
0.000700577
-0.0206863
0.0331204
-0.0183015
0.0280602
0.0397946
-0.0103552
0.0343049
0.0013225
-0.000965859
0.0121959
-0.00558922
0.00804472
-0.000762292
0.00927665
0.00220616
0.00413192
0.0140942
0.0127504
0.023022
0.00210725
0.0377414
0.00927447
-0.00752187
0.0385809
0.0379842
0.0129906
-0.00445652
0.0446809
0.0488933
0.0658594
0.0708819
0.00151053
0.0607592
0.0768302
0.060318
0.100575
0.0746016
0.0748559
0.0141914
0.0709268
0.0953795
0.0896342
-0.0214856
0.0738245
0.0367718
0.0888591
0.0838652
0.0720217
0.0896279
0.0521517
0.0374318
0.0544724
-0.0466206
0.0361723
0.0552883
-0.00574349
0.0394955
0.0518374
0.0146777
0.0696843
0.0640546
0.0804676
0.00480103
0.0674675
0.0347611
0.0335513
0.0199099
0.0479383
0.0729392
0.0671787
0.0349537
0.0390342
0.0722202
0.0229227
-0.0263665
0.0257896
0.0142181
0.000320781
0.0371995
0.000117842
0.0289646
0.00303072
-0.0158736
0.019126
-0.0170611
0.0169452
0.00546576
0.00252076
0.0186683
-0.00691533
0.00541053
0.00298099
0.0123482
0.0165987
0.0166048
0.0193346
-0.00240178
0.0412976
0.0485041
0.0375372
0.0588153
-0.0142762
0.0646284
0.0529482
0.0155542
0.056855
0.0778983
0.0255281
0.0531421
0.087712
0.0111915
0.0925818
-0.0186736
0.098878
-0.0189099
0.0978593
0.0846108
0.0725339
0.0289327
0.0537903
0.0393364
0.0324238
0.0446228
0.113403
0.0750384
-0.00328912
0.0896655
0.0708059
0.0143574
0.0776168
0.0682496
0.0741994
0.00688002
0.0471235
0.0495161
-0.0158917
0.00052704
0.0556281
0.0301499
0.0749031
0.0681747
0.0761935
-0.00572721
0.0711002
0.0764055
0.000266022
0.0687196
0.0886148
0.0551818
0.0195202
0.00853348
0.0600387
0.082384
0.020982
-0.000391787
0.0217632
0.000735195
0.0253361
-0.0112869
0.0248545
0.0272792
0.0223913
0.00457778
0.00288885
0.0277315
-0.0099396
0.00978093
-0.00227429
0.00587876
-0.000536562
0.00450328
0.00112357
0.0059718
0.0148459
-0.0150387
0.0328193
0.00515663
0.0346641
0.0075127
0.0366889
0.013106
0.00811493
0.030678
0.0400538
0.0201261
0.0300631
0.0356324
0.00107276
0.0531008
0.0591797
0.0339451
0.0455837
-0.0208081
0.0758179
0.0284479
0.060685
0.0775225
0.0659369
0.0372304
0.0442729
0.0567139
0.0140667
0.0729624
0.0869555
0.0745522
-0.0212821
0.0678725
0.0204169
0.0975891
0.0989208
0.0579794
0.0331864
0.0873314
0.0165694
0.0632773
-0.0038222
0.0736182
0.0720361
-0.0280315
0.0342181
0.0483155
0.0200931
-0.0277701
0.0102494
0.0361567
0.000165038
0.000611952
0.076187
0.0706102
0.0138209
0.0638798
0.0730564
0.0571158
-0.000487608
0.0708779
0.028683
0.0620237
0.0858146
0.0814902
0.0161758
0.0682585
0.019274
-0.0170888
0.0160605
0.0160583
0.00556565
0.0220827
0.00237562
0.0202612
-0.0020335
0.0166148
-0.0102394
0.0175806
-0.0135429
0.00821863
0.00570223
0.00228628
0.0128358
-0.00657535
0.00758613
0.0212183
0.0242837
0.00973484
0.00729336
0.0281873
0.0451553
0.0544327
0.0338068
0.039007
0.0513249
-0.0200842
0.0568743
0.0340884
0.0208218
0.0395164
0.0637213
0.0677404
0.0124232
0.0649371
0.0100681
0.052114
-0.00076197
0.0808209
-0.026298
0.095998
0.0847277
-0.0207049
0.0797551
0.0745951
-0.0191072
0.110341
0.0589491
0.026153
0.0453242
0.0727811
0.0298785
0.0765756
0.022166
0.0372472
0.0511614
0.0327745
0.0564682
-0.00305242
0.0682611
0.0728028
0.00788806
0.0658092
0.0401604
-0.00787515
0.0219959
0.026942
0.0249899
-0.00664259
0.0230585
-0.0143082
0.0588043
0.0204857
0.0948399
0.0861471
0.0648503
0.00233011
0.0722302
0.0607401
-0.00086456
0.0733452
0.0716513
0.0509125
0.0368186
0.0215231
0.0621357
0.0921001
0.0133447
0.0027984
-0.00202443
0.0159521
0.027727
-0.0105911
-0.0122134
0.0173164
0.0197417
0.00873856
0.00432842
0.00433588
0.0251498
-0.0153145
0.000836643
0.00505854
-0.00015116
0.0053105
0.00390108
0.0125442
0.00976617
0.0232135
-0.0149496
0.0439887
0.0310521
0.00853572
0.0468433
0.0243694
0.0105448
0.0144429
0.0254381
0.00567501
0.0467274
0.0637289
0.0747824
0.0195517
0.0450667
0.0155282
0.053791
0.074499
0.0768092
0.0727302
0.0624852
0.0510991
0.0481579
0.0639346
0.0228193
0.0320476
0.0494176
0.00728415
0.069282
0.0585829
0.0580697
0.0888415
-0.0267916
0.0743039
-0.000979715
0.0770452
0.0935257
0.0790342
0.0746489
0.0718389
0.0654608
-0.00747373
0.0774741
-0.00911887
0.0838694
0.0582739
0.0121786
0.0273872
0.0156904
0.0385618
-0.027843
0.0190738
-0.00818954
0.00435771
0.0339612
0.0655844
0.0315389
0.0232835
0.0649566
0.0900096
0.0730736
-0.0063159
0.0813845
0.0448035
0.0285322
0.097917
0.101263
0.0170743
0.0767651
-0.00913534
0.0100709
-0.0109717
0.00810426
0.00482671
0.0145362
0.0152564
0.00533379
0.0136536
0.00234115
-0.00783658
0.0139274
0.0128961
-0.00743589
0.0135931
-0.00732341
-0.00118329
0.00836109
0.00267649
0.00691168
0.014818
0.0214669
0.00267586
0.0203452
0.0244196
-0.0150702
0.0471572
0.0562188
0.0326277
0.0399071
0.0333444
0.0466671
0.00765221
0.0572601
0.0245022
0.0517316
0.0618009
0.0798221
0.0026686
0.0734583
0.00473902
0.0737299
0.0183215
0.055566
-0.00580737
0.0702111
-0.0189133
0.0723008
-0.0231295
0.0737939
0.0427809
0.0562225
-0.00336028
0.0541938
0.0654674
-0.0249725
0.0865534
0.0678045
0.0442661
0.0334077
0.0558372
0.0242416
0.0447041
0.0526353
0.0625449
0.0688135
0.00717429
0.0664077
0.0742688
0.0353159
0.043856
0.0265354
0.0590635
0.0884847
0.004084
0.0218985
-0.010828
0.023995
0.0229231
0.0156958
0.00516856
-0.0156682
0.0046936
0.0571817
0.0844091
0.0991254
0.0855533
0.0772998
-0.00273266
0.0858803
0.0658805
0.0341125
0.0461973
0.0570618
0.0161577
0.0626781
0.000375401
0.0108362
-0.0034628
-0.00558755
0.00906304
0.0156172
5.29067e-05
-0.00332978
0.0206899
0.0103194
-0.00488663
-0.0124414
0.0111192
-0.00194947
0.00741792
0.00328308
-0.0100308
0.0098584
-0.000152781
0.00501022
0.00797266
6.86054e-05
0.0185002
-0.0169794
0.0421208
0.0308849
0.0192594
0.0379343
0.0527288
0.0235758
0.0173528
0.0190018
0.0155234
0.0238514
0.023659
0.0604874
0.0200399
0.0383311
0.081381
0.0475042
0.0339526
0.0797855
0.0106123
0.0644156
0.0675179
0.0687948
0.0291461
0.0455377
0.029783
0.0460582
-0.039959
0.084568
0.0178288
0.07375
-0.000941676
0.0682111
0.0276317
0.0623769
0.0220975
0.049572
0.0698075
-0.0244444
0.0597103
-0.0109503
0.0693471
0.0717465
-0.00768507
0.0629868
0.0540828
0.0156828
0.0552843
0.0845556
0.0754021
0.0924206
0.0720722
-0.00706702
0.0678171
0.0838335
-0.0184023
0.0204921
0.0369316
0.00274921
0.0101157
-0.00827082
-0.0107591
0.0115317
0.0349199
0.0403173
0.0457192
0.0362666
0.064652
0.0084978
0.0792343
0.0762804
0.00973798
0.0780837
-0.00782198
0.0753665
0.082027
0.0751239
0.104889
-0.00704505
0.00588422
0.0041186
0.00643127
0.000738668
0.0106669
-0.0170782
0.018233
-0.0176324
0.0157426
0.00534065
-0.00337537
-0.0109716
0.00629606
-0.00139634
-0.0031347
0.00835225
0.0201199
-0.00868825
0.00164258
0.00346247
0.00351553
0.00582954
0.0195628
0.0354252
0.00752954
-0.0132548
0.0449747
0.0592768
0.0404099
0.0484845
0.0374264
-0.010869
0.0276923
0.0602002
0.0285258
0.0329504
0.0679227
0.0383373
0.0442784
0.0819728
0.0736757
0.0100088
0.0715197
0.0127832
0.0529422
0.0279136
0.0406585
0.00383195
0.0668538
0.085533
0.0775745
-0.020146
0.0677858
0.066291
-0.00163779
0.0771542
0.0740603
0.0799555
0.0572488
0.0235327
0.0499569
0.0283395
0.0334882
0.0603445
0.010884
0.045492
0.028617
0.03395
0.0311943
-0.00489272
0.0918493
0.0724796
0.0595296
0.0351762
0.0203013
0.05333
0.0899098
0.0777366
0.000439777
0.0175848
0.00593676
0.0299449
-0.0111702
0.0113044
-0.00339408
-0.0130014
0.00200643
-0.00578096
-0.00891587
0.0442065
0.0835664
0.0749161
0.090898
0.0880599
-0.00697029
0.0867504
0.0398355
0.0369752
0.0255223
0.0583471
0.102682
0.0601317
0.046896
-0.00733027
-0.00388373
0.00724198
0.00898646
-0.0020661
0.00649957
-0.00706307
0.0115891
0.000467048
0.0131983
0.00672808
0.00469873
0.0124301
0.00523488
0.0192436
-0.0106352
0.00384193
-0.00775785
-0.00981807
0.00985691
3.04887e-05
0.00248668
6.14301e-05
0.00286546
0.00589396
-0.0010605
0.005054
-0.00979732
0.0165962
0.0533764
0.0212707
0.0390545
0.0628643
0.0261987
0.0231894
0.0205922
0.0178429
0.0164063
0.0121494
0.0265133
0.0345975
0.0321717
0.0368245
0.0733701
0.0284267
0.0546048
-0.0114945
0.08664
0.085944
0.0949752
0.0668022
0.0584434
0.0292708
0.0259379
0.0538784
0.0458424
0.0234741
0.0474873
0.0205237
0.0434946
0.0351862
0.00791139
0.0680447
0.0490061
0.0334873
0.0381156
0.0215464
0.0540288
-0.00676665
0.0589893
-0.00691709
0.0416896
0.02909
0.0329042
0.0579943
0.064722
0.0714752
0.028592
0.0656689
0.082513
0.0906306
0.0905719
0.0412194
0.0509097
0.0390564
0.0400107
-0.012019
0.00992857
0.0220361
0.0213275
-0.00359592
-0.00886733
0.00301582
-0.00967375
-0.00939473
0.000930205
0.0389585
0.0201421
0.0654742
0.0971906
0.00999681
0.0827985
0.0829211
0.00967457
0.0787564
0.080152
0.0973051
0.0300321
0.0745018
0.0921542
0.114783
-0.0021876
0.00496035
-0.000743658
0.0100418
0.0147378
-0.0130317
0.0222339
-0.0105244
0.0168441
-0.0130229
0.020138
0.0101717
-0.00865247
-0.0124362
0.00160669
0.00726416
0.0134418
-0.0092193
0.00131489
0.00311396
0.00371702
0.00240797
0.00930262
0.00833343
-0.019119
0.0737789
0.0724179
0.0447103
0.0537311
0.0447423
0.0353198
0.0223744
-0.0263166
0.0618834
0.0662588
0.0631359
-0.00419105
0.0600312
0.0841221
-0.000596837
0.0881801
0.0362482
0.0602943
0.0487114
0.0201229
0.00969042
0.0506686
0.0600942
0.0736966
0.0657629
0.0724031
0.0658288
0.0854721
0.0907151
0.0441043
0.0570197
0.000319862
0.0560082
0.0445807
0.0168072
0.0439618
-0.02989
0.0642395
0.0297024
0.0309116
0.0358458
0.0245237
0.0494178
-0.0131519
0.0805538
0.0710588
0.0623116
0.0306596
0.0374568
0.0548192
0.0831929
0.0901691
0.0132624
-0.00604061
0.00833337
0.01276
0.0288534
-0.00877619
0.00249152
-0.00878819
-0.0067529
-0.00505492
-0.00808219
0.0317404
0.00801036
0.109385
0.0941955
0.0837832
-0.00425873
0.0846849
0.0104888
0.0714814
0.0267828
0.0721006
-0.000502856
0.077172
0.0326483
0.0609537
0.0263421
0.0902059
0.00629046
-0.0111004
2.46551e-05
0.00539156
0.00489019
-0.00628943
0.0101563
0.00236579
0.00424298
0.0129304
0.0291702
0.00505666
0.00600564
0.0131957
0.00921968
0.0260404
-0.0114605
0.000226216
-0.00843929
-0.0123374
-0.000286195
0.0014015
0.00113151
0.00577745
0.0131044
0.00384222
0.048326
0.0353567
0.0382694
0.0814011
0.00902087
0.0454318
0.0545369
-0.00445991
0.0408846
0.0188396
0.0376284
0.0251996
0.0176019
0.049729
0.101053
0.078758
0.0188389
0.066577
0.0174503
0.0720503
0.0791234
-0.0205566
0.0729638
0.041103
0.0243457
0.0508948
0.0128368
0.055239
0.0480349
0.0261103
0.0108938
0.0564547
0.0985416
-0.0110115
0.104206
0.00190487
0.0440594
0.0613075
0.00517044
0.0535758
0.0520509
0.06292
-0.00383223
0.0493631
0.0325133
0.0338857
0.0623662
0.0623105
-0.00588629
0.05762
0.0451584
0.037352
0.061783
0.110126
0.0875402
0.0956582
0.00626971
0.0859928
0.00561901
0.00514107
-0.00753389
-0.000308919
0.0160122
0.0222796
0.00640174
-0.00731672
-0.00227144
-0.00942858
0.001024
-0.00804524
-0.0103317
0.000332604
0.029049
0.0305955
0.0481573
0.0633108
0.0251441
0.0707215
0.0812957
0.00125818
0.0847357
0.0999551
0.0735854
0.111641
0.0887048
0.0406256
0.0512006
-0.00706347
-0.00301177
0.00441208
-0.000599664
0.00836906
0.0171811
0.0238428
0.0102318
0.0130818
-0.00624545
-0.00958717
0.0173188
-0.0117353
0.0230645
-0.00365616
0.0323154
-0.0124351
0.00283442
-0.0129091
-0.0141934
-0.000168418
0.00728837
0.00269111
0.00202618
0.0122595
0.00713168
-0.0256756
0.0752157
0.0894393
0.0569788
0.0845173
0.000732203
0.0548028
0.0426323
0.032846
0.101825
0.0676107
0.0349287
0.00127843
0.0791008
0.0878671
0.0691504
0.0102661
0.0629024
0.0554623
0.024734
0.0232021
0.0514581
0.0757857
0.0739675
0.065848
0.080469
0.0845041
0.0590906
0.042143
0.0482724
0.0585948
0.0579893
0.0173687
0.0383654
0.0108609
0.0433185
0.0379172
0.0275167
0.022156
0.0290513
-0.0303185
0.0659472
0.0336029
0.0240662
0.0404446
0.0160197
0.0431464
0.101032
0.0559904
0.0560416
0.0958695
0.00321513
0.0945361
0.0911446
-0.00750298
0.0100578
0.0058809
-0.00867687
0.0216336
-0.00851658
-0.0011502
-0.013663
-0.0106393
-0.00921942
-0.00537965
0.0354956
0.0265788
0.090824
0.0901041
0.0730556
0.092979
0.0486836
0.0369755
0.0267815
0.0745582
0.101814
0.0702006
0.0431053
0.0431531
0.0469482
0.0956947
0.000346145
-0.00748228
0.00201804
0.00376111
0.00394811
-0.00385661
0.0044416
0.0063147
0.0132832
0.00854845
0.00658519
0.0217031
0.0268414
0.00533744
-0.00844715
0.00355608
0.00821687
0.0217797
0.0239762
0.0128813
-0.0141912
-0.000546807
-0.012639
-0.0108486
-0.00228138
-0.0162355
0.00025743
0.00314351
0.000780748
0.00951394
0.0710382
0.0199273
0.130068
0.0480119
0.0368876
0.024093
0.030845
0.0245116
0.0185417
0.0193059
0.0145105
0.0729564
0.030008
0.0916962
0.100644
0.0409966
0.0481342
0.111665
0.0886964
-0.0128212
0.0661315
0.0652405
0.0285872
0.0470337
0.0963789
0.00255644
0.0800093
0.0381175
0.048718
0.0997457
0.0932157
-0.023053
0.0833442
0.0189231
0.0409567
0.0411063
-0.00174658
0.041827
0.0506419
0.04335
0.0482173
-0.00393668
0.0339226
0.0658614
0.00207586
0.0594103
0.0581199
0.00170981
0.0431603
0.0799883
-0.0215289
0.0794969
-0.0122899
0.0698205
0.0856079
0.0357386
0.0601129
0.0454642
0.0473499
-0.00396721
0.00845409
-3.60977e-05
-0.0119984
0.00140825
0.0186775
-0.00805229
-0.0083281
-0.00361675
-0.00903996
-0.0152317
0.0326352
-0.00363325
0.0301806
0.0434054
0.0488297
0.0341029
0.0572209
0.0516028
0.0226853
0.0295887
0.064798
0.0794646
0.0896006
0.00671447
0.0695191
0.0123437
0.0912185
-0.0083536
0.0806613
0.0915115
0.0510071
0.046192
-0.0110322
-0.003109
0.0082504
0.0014003
0.0180315
0.0357345
-0.0132787
0.0396155
0.0192563
-0.00637899
0.0131129
0.00925873
-0.00458536
-0.00921638
0.0192958
0.0200562
0.00454581
0.035694
-0.01803
-0.0128204
-0.00076597
-0.0156208
-0.0154832
-0.00243696
0.00446043
0.00176387
0.00462706
0.00648152
0.0650994
0.0662933
0.072713
0.110769
0.055682
0.0386813
0.0204797
0.0964822
0.0807028
0.0126124
-0.0397673
0.142599
0.130941
0.073589
0.0213286
0.0685595
0.0704173
-0.000326158
0.0681661
0.0979934
0.0424684
0.0564328
0.0202741
0.062186
0.0367786
0.0652469
0.0511906
0.0441296
0.0482221
0.0368634
0.0443173
0.020158
0.0230195
0.0119626
0.031292
0.0144347
0.0380838
0.00887737
0.0362058
0.014846
0.0349981
0.0181152
0.0169826
0.0680571
0.0632983
0.013528
0.0460012
0.0580161
0.0604782
-0.0102074
0.0912959
0.0608852
0.0495522
0.0379434
0.0823755
0.0683097
0.09918
-0.010302
0.00355869
0.0085431
-0.00812861
0.00602572
-0.00882054
-0.00664792
0.0150274
-0.0200653
-0.0206652
0.0108246
0.0226323
0.0167772
0.0143531
0.0959736
0.0842561
0.0811748
0.0873382
0.00221045
0.0785215
0.0931984
0.0831477
0.0851509
-0.031093
0.113653
0.0621004
0.110062
-0.00403188
-0.00607117
-0.00643544
0.00185459
0.00963384
0.0027771
0.000621525
0.00017071
0.0229055
0.0218233
0.0182555
0.0134614
0.0304151
-0.00873648
0.0328025
0.00425576
0.00550292
0.000779861
0.0172668
0.00394686
0.0245894
0.0193591
0.0203903
-0.0156041
-0.00488856
-0.0173519
-0.0162328
0.000517491
-0.0196657
0.00356052
0.00871046
-0.0303363
0.097824
-0.000203101
0.0729677
0.0932023
0.0167183
0.0554293
0.000431852
0.038459
0.021091
-0.0215083
0.118427
0.0824728
0.113459
0.0643302
0.0682708
0.139981
-0.00111091
0.0741022
0.0694671
0.0295487
0.0704553
0.0736277
0.0793213
-0.00033378
0.0641966
0.0900714
-0.0126429
0.0800176
0.0944494
0.0991375
0.0609136
0.0397925
0.0363789
0.0042126
0.0283475
0.0511511
0.0487349
0.0420364
0.0284001
0.00157286
0.0688869
1.03321e-05
0.0660036
0.0479167
0.0228766
0.0369269
0.0655245
0.0278406
0.100486
0.0147384
0.0689887
0.0843527
0.0278886
0.0734601
-0.00742653
-0.00530569
-0.00651897
-0.00315596
0.0108122
0.00179661
-0.0175413
-0.000622781
0.0156491
-0.00855995
-0.013619
-0.0142173
-0.00944077
0.00632974
0.0169211
0.0237618
-0.00669427
0.021296
0.0543536
0.0434153
0.0202896
0.065195
0.102916
0.0374533
0.0511971
0.117742
-0.0187792
0.11432
-0.00356558
0.0883896
-0.0116215
0.0983921
0.0895685
0.0258768
0.0446034
0.0669765
0.00454808
-0.00973502
-0.00176731
0.0052238
0.0135581
0.0186336
0.0390185
0.0412908
0.000234241
0.0352826
0.03702
0.00158312
-0.00325753
0.0085134
-0.00562983
0.0122939
-0.00884998
0.0140196
0.00159128
0.0246045
-0.0115577
0.0345851
-0.0215458
-0.0162905
-0.00188062
-0.0106256
-0.0159036
-0.0179235
-0.00329079
0.00154833
-0.000179265
0.00959841
0.0766146
-0.00750253
0.0795433
0.0848775
0.134866
-0.00478147
0.0597462
0.0330371
0.0214869
0.13535
0.0897073
0.0246153
-0.0685662
0.139068
0.161302
-0.0193982
0.0757317
-0.00763687
0.0797334
0.0595963
0.0250734
0.0504543
0.0295396
0.0514421
0.0204376
0.0455783
0.0436819
0.0482611
0.0243079
0.0571218
0.0445202
0.0519355
0.0610254
0.0402085
0.0219083
0.0411866
0.0141057
0.0270903
0.00866451
0.0289192
0.038094
0.0182436
0.0350241
0.0163112
0.0339328
0.00813082
0.035768
0.00825885
0.0213622
0.0699064
0.0635421
0.0725915
0.0609176
-0.0132481
0.0802054
0.0909708
0.0890329
0.0989302
0.0823623
-0.0328002
0.108493
0.00759128
-0.0150441
-0.00145638
0.00993889
-0.005395
0.00565512
-0.0150043
-0.00524811
0.00917514
-0.0200737
-0.000200146
-0.0155995
0.0259957
0.00803066
0.0165375
0.0067028
0.0149889
0.100584
0.110587
0.086188
0.000730468
0.119398
0.117266
0.078131
0.060855
0.0390609
0.0200349
0.071007
0.0882925
0.0885837
-0.00303392
-0.00417666
-0.00214067
0.00033182
0.0088067
-0.00244746
0.021027
0.0326805
-0.00812223
0.00951769
0.0340908
0.0166091
0.0283565
0.0425995
0.0487498
0.0393043
0.00403708
0.00451172
0.0161832
-0.00118867
0.0193232
0.0152726
0.0133268
0.023776
-0.0125568
-0.010338
-0.0206393
-0.0132122
0.00383667
-0.0188845
0.00314523
-0.0168891
0.00247892
0.00622234
0.00409414
0.167552
0.0338328
0.0439911
0.0540095
0.0282231
0.0958082
0.0369921
0.0181298
0.0390249
-0.00577601
0.0388439
0.0156017
0.0687344
0.187852
0.121316
0.0411112
0.0366753
0.0284682
0.0532914
0.0865267
0.0818941
0.0738867
0.0885917
0.0901079
0.0740436
-0.00634427
0.0649856
0.0940268
0.0616304
0.0367798
-0.00406477
0.0328866
0.0264998
0.0161052
0.0234106
0.0530014
0.0437853
0.0537154
0.0187936
0.0531525
-0.00368382
0.0695015
0.0390409
0.0359244
0.0263474
0.0365731
0.0580989
0.0240874
0.0579088
0.0345729
0.0577688
0.00532139
0.0956258
0.0895016
0.0512854
0.0585605
-0.00792088
-0.00908674
0.00652806
-0.00979583
0.0063944
0.00323299
-0.000198346
0.00542805
-0.000545694
-0.0172574
-0.014804
0.0152653
-0.0017996
-0.0201331
-0.0187123
0.0349537
0.0236344
0.000915036
0.014445
0.000996628
0.101161
0.0277248
0.0844242
0.115736
0.190984
-0.0903196
0.211077
0.0791079
0.000676696
0.119831
-0.0355521
0.108221
0.0542583
0.0909379
0.00370497
-0.00605212
0.00207289
0.0108652
0.0188836
0.0546956
0.0443178
0.0489984
-3.05063e-05
-0.0036853
0.0576061
0.0449595
0.00216801
-0.00172788
0.00644305
0.00991134
-0.00460886
0.00974715
0.0109777
0.009533
0.0274983
-0.0133818
0.0389098
0.00493896
-0.0164545
-0.0152848
-0.00570183
-0.00780215
-0.0137139
-0.0119129
0.00757904
-0.0255466
0.00144861
0.0221861
0.00582624
0.119189
0.0468893
0.0862021
0.0601726
0.121613
0.154917
-0.00785746
0.0458043
0.0296757
0.133499
0.0540375
-0.0859137
0.210372
0.0670893
-0.00784387
0.0633026
0.0822564
0.0136344
0.0701938
0.0894346
0.0615611
0.0293892
0.0597039
0.0321888
0.0188818
0.0565764
0.0853333
0.0582627
0.0377151
0.0170617
0.0464819
0.00783238
0.0303891
0.042082
0.05138
0.0117954
0.0430494
0.0573344
0.027711
0.0281127
0.0597328
0.0512071
0.0641124
0.06422
0.0553288
0.117789
0.0837683
0.0945817
0.0105433
0.0870316
0.0920197
-0.0211779
0.0734996
0.0704696
0.00105892
-0.0119763
-0.0100888
-0.00142754
0.00777079
0.0053845
-0.00633337
0.00406889
-0.0168319
-0.00230344
-0.00265736
-0.0136844
0.0100721
0.00503083