/*--------------------------------*- C++ -*----------------------------------*\
| =========                 |                                                 |
| \\      /  F ield         | OpenFOAM: The Open Source CFD Toolbox           |
|  \\    /   O peration     | Version:  v2012                                 |
|   \\  /    A nd           | Website:  www.openfoam.com                      |
|    \\/     M anipulation  |                                                 |
\*---------------------------------------------------------------------------*/
FoamFile
{
    version     2.0;
    format      ascii;
    class       pointVectorField;
    location    "0.33";
    object      pointDisplacement;
}
// * * * * * * * * * * * * * * * * * * * * * * * * * * * * * * * * * * * * * //

dimensions      [0 1 0 0 0 0 0];


internalField   nonuniform List<vector> 
14482
(
(0 0 0)
(0 0 0)
(0 0 0)
(0 0 0)
(0 0 0)
(0 0 0)
(0 0 0)
(0 0 0)
(0 0 0)
(0 0 0)
(0 0 0)
(0 0 0)
(0 0 0)
(0 0 0)
(0 0 0)
(0 0 0)
(0 0 0)
(0 0 0)
(0 0 0)
(0 0 0)
(0 0 0)
(0 0 0)
(0 0 0)
(0 0 0)
(0 0 0)
(0 0 0)
(0 0 0)
(0 0 0)
(0 0 0)
(0 0 0)
(0 0 0)
(0 0 0)
(0 0 0)
(0 0 0)
(0 0 0)
(0 0 0)
(0 0 0)
(0 0 0)
(0 0 0)
(0 0 0)
(0 0 0)
(0 0 0)
(0 0 0)
(0 0 0)
(0 0 0)
(0 0 0)
(0 0 0)
(0 0 0)
(0 0 0)
(0 0 0)
(0 0 0)
(0 0 0)
(0 0 0)
(0 0 0)
(0 0 0)
(0 0 0)
(0 0 0)
(0 0 0)
(0 0 0)
(0 0 0)
(0 0 0)
(0 0 0)
(0 0 0)
(0 0 0)
(0 0 0)
(0 0 0)
(0 0 0)
(0 0 0)
(0 0 0)
(0 0 0)
(0 0 0)
(0 0 0)
(0 0 0)
(0 0 0)
(0 0 0)
(0 0 0)
(0 0 0)
(0 0 0)
(0 0 0)
(0 0 0)
(0 0 0)
(0 0 0)
(0 0 0)
(0.0622038 -0.165023 0)
(0.0623855 -0.164914 0)
(0.0625812 -0.164798 0)
(0.0627919 -0.164672 0)
(0.0630189 -0.164536 0)
(0.0632633 -0.16439 0)
(0.0635265 -0.164233 0)
(0.0638099 -0.164064 0)
(0.0641151 -0.163881 0)
(0.0644436 -0.163685 0)
(0.0647973 -0.163474 0)
(0.065178 -0.163246 0)
(0.0655877 -0.163001 0)
(0.0659599 -0.162649 0)
(0.0663538 -0.162261 0)
(0.0667778 -0.161844 0)
(0.0671912 -0.161356 0)
(0.0676252 -0.160822 0)
(0.0680564 -0.160221 0)
(0.0685005 -0.15956 0)
(0.0689381 -0.158824 0)
(0.0693735 -0.158013 0)
(0.0698056 -0.157124 0)
(0.0702307 -0.156149 0)
(0.0706463 -0.155086 0)
(0.0710437 -0.153925 0)
(0.0714267 -0.152665 0)
(0.0717887 -0.151298 0)
(0.0721287 -0.149818 0)
(0.0724415 -0.14822 0)
(0.072724 -0.146496 0)
(0.0729735 -0.14464 0)
(0.0731863 -0.142645 0)
(0.0733582 -0.140501 0)
(0.0734847 -0.138202 0)
(0.0735618 -0.135739 0)
(0.0735851 -0.133103 0)
(0.0735501 -0.130284 0)
(0.0734514 -0.127274 0)
(0.0732838 -0.124062 0)
(0.0730413 -0.120638 0)
(0.0727181 -0.116991 0)
(0.072308 -0.113112 0)
(0.0718041 -0.108989 0)
(0.0711998 -0.104611 0)
(0.0704879 -0.099969 0)
(0.069661 -0.0950508 0)
(0.0687112 -0.0898464 0)
(0.0676311 -0.084346 0)
(0.0664128 -0.0785397 0)
(0.0650482 -0.0724184 0)
(0.0635297 -0.0659744 0)
(0.0618492 -0.0591995 0)
(0.0599994 -0.0520881 0)
(0.057973 -0.0446346 0)
(0.0557634 -0.0368356 0)
(0.053364 -0.0286882 0)
(0.0507702 -0.0201934 0)
(0.0479764 -0.011351 0)
(0.0449797 -0.00216526 0)
(0.0417774 0.00735841 0)
(0.0383685 0.017212 0)
(0.034753 0.0273858 0)
(0.030933 0.0378663 0)
(0.0269114 0.0486394 0)
(0.0226937 0.0596869 0)
(0.0182864 0.0709886 0)
(0.0136977 0.0825234 0)
(0.00893833 0.0942653 0)
(0.00401942 0.106189 0)
(-0.00104546 0.118266 0)
(-0.00624178 0.130466 0)
(-0.0115534 0.142757 0)
(-0.0169638 0.155109 0)
(-0.0224545 0.167486 0)
(-0.0280077 0.179856 0)
(-0.0336041 0.192186 0)
(-0.0392252 0.204443 0)
(-0.0448518 0.216594 0)
(-0.0504652 0.228607 0)
(-0.0560476 0.240453 0)
(-0.0615817 0.252105 0)
(-0.067051 0.263534 0)
(-0.0724399 0.274716 0)
(-0.0777344 0.285631 0)
(-0.0829215 0.296258 0)
(-0.0879896 0.30658 0)
(-0.0929281 0.316582 0)
(-0.0977286 0.326254 0)
(-0.102383 0.335584 0)
(-0.106885 0.344566 0)
(-0.111231 0.353196 0)
(-0.115416 0.361471 0)
(-0.119438 0.369391 0)
(-0.123296 0.376957 0)
(-0.12699 0.384172 0)
(-0.130519 0.391043 0)
(-0.133886 0.397575 0)
(-0.137093 0.403774 0)
(-0.140142 0.409651 0)
(-0.143037 0.415214 0)
(-0.145782 0.420474 0)
(-0.148382 0.425441 0)
(-0.15084 0.430125 0)
(-0.153162 0.434538 0)
(-0.155352 0.438693 0)
(-0.157417 0.4426 0)
(-0.159361 0.446271 0)
(-0.16119 0.449717 0)
(-0.162908 0.452949 0)
(-0.164522 0.455979 0)
(-0.166036 0.458817 0)
(-0.167456 0.461473 0)
(-0.168786 0.463958 0)
(-0.170032 0.466282 0)
(-0.171197 0.468453 0)
(-0.172287 0.470482 0)
(-0.173306 0.472376 0)
(-0.174258 0.474143 0)
(-0.175146 0.475791 0)
(-0.175976 0.477328 0)
(-0.17675 0.478761 0)
(-0.177472 0.480097 0)
(-0.178145 0.48134 0)
(-0.178772 0.482498 0)
(-0.179357 0.483577 0)
(-0.179901 0.484582 0)
(-0.180408 0.485516 0)
(-0.18088 0.486385 0)
(-0.181319 0.487194 0)
(-0.181728 0.487947 0)
(-0.182109 0.488646 0)
(-0.182462 0.489296 0)
(-0.182791 0.489901 0)
(-0.183097 0.490463 0)
(-0.183382 0.490986 0)
(-0.183646 0.491471 0)
(-0.183892 0.491922 0)
(-0.18412 0.492341 0)
(-0.184333 0.492731 0)
(-0.18453 0.493092 0)
(-0.184713 0.493428 0)
(-0.184883 0.493741 0)
(-0.185041 0.49403 0)
(-0.185188 0.494299 0)
(-0.185325 0.494549 0)
(-0.185451 0.494781 0)
(-0.185569 0.494997 0)
(-0.185678 0.495197 0)
(-0.18578 0.495383 0)
(-0.185978 0.495308 0)
(-0.186153 0.495242 0)
(-0.186313 0.495181 0)
(-0.186464 0.495124 0)
(-0.186611 0.495069 0)
(-0.186758 0.495014 0)
(-0.18691 0.494957 0)
(-0.18707 0.494896 0)
(-0.187245 0.49483 0)
(-0.187443 0.494755 0)
(-0.187397 0.494549 0)
(-0.187347 0.494327 0)
(-0.187293 0.494087 0)
(-0.187235 0.493829 0)
(-0.187172 0.493551 0)
(-0.187105 0.493252 0)
(-0.187033 0.492931 0)
(-0.186954 0.492583 0)
(-0.18687 0.49221 0)
(-0.18678 0.491808 0)
(-0.186682 0.491376 0)
(-0.186577 0.49091 0)
(-0.186464 0.490409 0)
(-0.186342 0.48987 0)
(-0.186211 0.489289 0)
(-0.18607 0.488665 0)
(-0.185918 0.487994 0)
(-0.185754 0.487272 0)
(-0.185578 0.486496 0)
(-0.185388 0.48566 0)
(-0.185185 0.484763 0)
(-0.184965 0.483799 0)
(-0.184729 0.482762 0)
(-0.184475 0.481648 0)
(-0.184202 0.480452 0)
(-0.183909 0.479168 0)
(-0.183594 0.477789 0)
(-0.183254 0.476309 0)
(-0.18289 0.474722 0)
(-0.182499 0.47302 0)
(-0.182078 0.471195 0)
(-0.181627 0.469239 0)
(-0.181142 0.467144 0)
(-0.180622 0.464901 0)
(-0.180064 0.4625 0)
(-0.179466 0.459933 0)
(-0.178824 0.457188 0)
(-0.178137 0.454255 0)
(-0.177401 0.451124 0)
(-0.176614 0.447783 0)
(-0.175771 0.444221 0)
(-0.17487 0.440425 0)
(-0.173907 0.436384 0)
(-0.17288 0.432087 0)
(-0.171783 0.427519 0)
(-0.170614 0.422672 0)
(-0.169368 0.41753 0)
(-0.168042 0.412083 0)
(-0.166632 0.40632 0)
(-0.165135 0.40023 0)
(-0.163546 0.393803 0)
(-0.161863 0.387029 0)
(-0.160081 0.379901 0)
(-0.158196 0.372409 0)
(-0.156208 0.364551 0)
(-0.154112 0.356321 0)
(-0.151905 0.347716 0)
(-0.149587 0.338738 0)
(-0.147154 0.329387 0)
(-0.144608 0.319667 0)
(-0.141945 0.309587 0)
(-0.139167 0.299153 0)
(-0.136275 0.288379 0)
(-0.133268 0.27728 0)
(-0.13015 0.265873 0)
(-0.126922 0.25418 0)
(-0.123589 0.242222 0)
(-0.120153 0.230027 0)
(-0.116619 0.217621 0)
(-0.112993 0.205038 0)
(-0.10928 0.192308 0)
(-0.105486 0.179467 0)
(-0.101618 0.166549 0)
(-0.0976828 0.153593 0)
(-0.0936885 0.140635 0)
(-0.0896431 0.127713 0)
(-0.0855542 0.114863 0)
(-0.0814308 0.102124 0)
(-0.0772811 0.0895297 0)
(-0.0731139 0.0771145 0)
(-0.0689381 0.0649106 0)
(-0.0647626 0.0529486 0)
(-0.0605955 0.0412548 0)
(-0.056446 0.0298559 0)
(-0.0523219 0.0187732 0)
(-0.0482316 0.00802596 0)
(-0.0441831 -0.00236834 0)
(-0.0401834 -0.0123973 0)
(-0.0362398 -0.0220494 0)
(-0.0323588 -0.0313172 0)
(-0.0285464 -0.0401956 0)
(-0.0248083 -0.0486819 0)
(-0.0211494 -0.0567753 0)
(-0.0175737 -0.0644793 0)
(-0.0140855 -0.0717964 0)
(-0.0106877 -0.0787329 0)
(-0.00738301 -0.0852959 0)
(-0.00417338 -0.0914945 0)
(-0.0010604 -0.0973374 0)
(0.00195512 -0.102836 0)
(0.00487263 -0.108002 0)
(0.00769213 -0.112847 0)
(0.010414 -0.117383 0)
(0.0130393 -0.121624 0)
(0.015569 -0.125581 0)
(0.0180045 -0.129268 0)
(0.0203475 -0.132698 0)
(0.0226002 -0.135883 0)
(0.0247644 -0.138835 0)
(0.0268424 -0.141567 0)
(0.0288368 -0.144091 0)
(0.0307499 -0.146417 0)
(0.032584 -0.148558 0)
(0.0343417 -0.150523 0)
(0.0360256 -0.152322 0)
(0.0376382 -0.153966 0)
(0.0391821 -0.155462 0)
(0.0406594 -0.156821 0)
(0.042072 -0.15805 0)
(0.0434219 -0.159159 0)
(0.0447119 -0.160153 0)
(0.0459437 -0.16104 0)
(0.047118 -0.161828 0)
(0.0482378 -0.162521 0)
(0.0493023 -0.163131 0)
(0.0503167 -0.163656 0)
(0.0512791 -0.164107 0)
(0.052191 -0.16449 0)
(0.0530532 -0.164812 0)
(0.0538676 -0.165076 0)
(0.0546374 -0.165279 0)
(0.0553582 -0.165446 0)
(0.0560369 -0.165561 0)
(0.0566694 -0.165654 0)
(0.0572633 -0.165688 0)
(0.0578152 -0.165719 0)
(0.0583275 -0.165738 0)
(0.0587969 -0.165652 0)
(0.059233 -0.165571 0)
(0.0596381 -0.165496 0)
(0.0600144 -0.165427 0)
(0.060364 -0.165362 0)
(0.0606886 -0.165303 0)
(0.0609901 -0.165247 0)
(0.0612701 -0.165195 0)
(0.0615301 -0.165147 0)
(0.0617715 -0.165103 0)
(0.0619957 -0.165061 0)
(-0.00893893 0.0862725 0)
(-0.0117748 0.0978736 0)
(-0.0112814 0.0937121 0)
(-0.014877 0.103257 0)
(-0.0124926 0.0937247 0)
(-0.0120758 0.0945066 0)
(-0.0206909 0.111173 0)
(-0.0197145 0.109475 0)
(-0.02304 0.119932 0)
(-0.00383777 0.0581794 0)
(-0.00161685 0.0521858 0)
(-0.00389023 0.0614488 0)
(-0.00956319 0.109573 0)
(-0.00886926 0.11041 0)
(-0.0147716 0.127898 0)
(-0.00338443 0.0652545 0)
(-0.00148125 0.0620417 0)
(-0.00437183 0.0712329 0)
(-0.0250968 0.144692 0)
(-0.0247837 0.144752 0)
(-0.0263857 0.149034 0)
(-0.022593 0.135652 0)
(-0.0215489 0.133891 0)
(-0.0237613 0.140037 0)
(-0.0339804 0.15961 0)
(-0.0394389 0.175968 0)
(-0.0380872 0.170189 0)
(-0.0110426 0.0779352 0)
(-0.0127123 0.0849422 0)
(-0.0122336 0.0815877 0)
(0.000829441 0.0461133 0)
(0.00241887 0.0452173 0)
(-0.000685789 0.0551203 0)
(-0.00415015 0.0932728 0)
(-0.00476125 0.0995428 0)
(-0.0229147 0.148078 0)
(-0.019064 0.135055 0)
(-0.0184428 0.134985 0)
(0.00213037 0.0563111 0)
(0.00586319 0.0442277 0)
(0.00371438 0.0544982 0)
(-0.0268273 0.151084 0)
(-0.0282444 0.154967 0)
(-0.0281303 0.154037 0)
(-0.0307889 0.157118 0)
(-0.0330982 0.164579 0)
(-0.0336362 0.16482 0)
(-0.0207178 0.12073 0)
(-0.0215493 0.121337 0)
(-0.0186694 0.11208 0)
(-0.00771309 0.0513119 0)
(-0.00801413 0.0514746 0)
(-0.00698883 0.047314 0)
(0.000287218 0.0297516 0)
(-0.00109975 0.0362881 0)
(-0.000869692 0.0317411 0)
(-0.00234363 0.0392415 0)
(0.00303261 0.0236844 0)
(0.00363372 0.0182261 0)
(0.00437016 0.0185626 0)
(0.00997394 0.0504285 0)
(0.00781543 0.0540901 0)
(0.0112316 0.0403431 0)
(-0.00457035 0.10949 0)
(-0.00899594 0.120836 0)
(-0.00324123 0.101839 0)
(-0.0462686 0.215993 0)
(-0.044501 0.210529 0)
(-0.0403942 0.199991 0)
(0.00726538 0.0116254 0)
(0.00921643 0.00582046 0)
(0.00768505 0.0147506 0)
(0.0206696 -0.0109687 0)
(0.0217351 -0.00850026 0)
(0.0192773 -0.00214498 0)
(-0.029094 0.157703 0)
(-0.0286101 0.156907 0)
(-0.0287632 0.156898 0)
(-0.0279814 0.15273 0)
(-0.0289155 0.155004 0)
(-0.0287853 0.155021 0)
(-0.0463968 0.202773 0)
(-0.0422203 0.191992 0)
(-0.0482507 0.208451 0)
(-0.0784891 0.286167 0)
(-0.0694095 0.263989 0)
(-0.0767935 0.28296 0)
(-0.0577823 0.226903 0)
(-0.0573003 0.227107 0)
(-0.0631317 0.241619 0)
(-0.0435998 0.171592 0)
(-0.0404678 0.164785 0)
(-0.0453852 0.178585 0)
(-0.0323985 0.14475 0)
(-0.0331175 0.144528 0)
(-0.0299235 0.136001 0)
(-0.0136774 0.0798212 0)
(-0.0125203 0.0768101 0)
(-0.0145374 0.0842137 0)
(-0.00362143 0.0427556 0)
(-0.00504117 0.0470062 0)
(-0.00360204 0.0398546 0)
(0.00110248 0.0163959 0)
(0.000376678 0.0203957 0)
(0.000551662 0.017147 0)
(0.00403978 0.0111533 0)
(0.0030629 0.0145274 0)
(0.00342532 0.010433 0)
(0.00679292 -0.00120772 0)
(0.00561836 0.00280115 0)
(0.00568304 -0.00149647 0)
(0.010206 0.0613824 0)
(0.0170725 0.0426273 0)
(0.0115374 0.0640772 0)
(-0.0418904 0.207043 0)
(-0.0344518 0.188028 0)
(-0.0406379 0.204797 0)
(0.00507302 0.0829181 0)
(-0.00125764 0.104757 0)
(-0.00080878 0.100336 0)
(-0.0390153 0.197165 0)
(-0.0337716 0.18392 0)
(-0.0413538 0.20463 0)
(-0.0383993 0.190535 0)
(-0.0440908 0.206254 0)
(-0.0392354 0.191946 0)
(0.0225783 -0.037767 0)
(0.0204277 -0.0353821 0)
(0.0227013 -0.0415235 0)
(0.034093 -0.0516628 0)
(0.0368864 -0.0497686 0)
(0.0336203 -0.0422425 0)
(-0.0309249 0.165118 0)
(-0.0333205 0.172248 0)
(-0.0315119 0.166402 0)
(-0.0453027 0.209036 0)
(-0.0503035 0.222955 0)
(-0.046226 0.204616 0)
(-0.0503575 0.216154 0)
(-0.052524 0.221964 0)
(-0.0932875 0.323717 0)
(-0.0828607 0.29965 0)
(-0.0879542 0.312333 0)
(-0.0585601 0.22474 0)
(-0.0578876 0.225242 0)
(-0.0632793 0.238152 0)
(-0.0441571 0.178905 0)
(-0.0493635 0.194507 0)
(-0.0481808 0.188349 0)
(-0.0294071 0.118391 0)
(-0.0303993 0.117733 0)
(-0.0257702 0.104923 0)
(-0.0117502 0.0661347 0)
(-0.0110452 0.0644087 0)
(-0.0123477 0.0695266 0)
(-0.00517238 0.0385897 0)
(-0.00522284 0.0378431 0)
(-0.00479568 0.0362391 0)
(-0.00252364 0.0294589 0)
(-0.00204735 0.0289495 0)
(-0.00283168 0.0326086 0)
(-0.00362782 0.0371513 0)
(-0.00270244 0.0342205 0)
(0.0010759 0.0218451 0)
(0.000381104 0.0265077 0)
(5.3815e-05 0.024906 0)
(0.00204132 0.00381633 0)
(0.00253518 0.00526798 0)
(0.00204474 0.00547262 0)
(0.000869294 0.0201716 0)
(0.0173677 0.0480964 0)
(0.0115605 0.0692858 0)
(0.0286242 0.012988 0)
(0.0234722 0.0306074 0)
(0.0267558 0.0118934 0)
(-0.0473635 0.2225 0)
(-0.044231 0.214842 0)
(-0.0388173 0.202008 0)
(-0.0290444 0.181164 0)
(-0.0238502 0.169117 0)
(-0.0297191 0.183036 0)
(-0.0482801 0.223463 0)
(-0.049763 0.22216 0)
(-0.0577586 0.243242 0)
(-0.0552105 0.236239 0)
(0.0347396 -0.0774047 0)
(0.0315661 -0.0736154 0)
(0.0331366 -0.080129 0)
(0.0294838 -0.0477377 0)
(0.0294068 -0.0534069 0)
(0.0321264 -0.0553421 0)
(0.0356144 -0.0715247 0)
(0.039108 -0.0781365 0)
(0.0386037 -0.0706894 0)
(-0.0541893 0.230661 0)
(-0.0489731 0.21632 0)
(-0.0476147 0.213199 0)
(-0.0297484 0.159693 0)
(-0.0322008 0.167416 0)
(-0.031664 0.165345 0)
(-0.0587168 0.243027 0)
(-0.0618463 0.251554 0)
(-0.0669764 0.263635 0)
(-0.0301894 0.160312 0)
(-0.031417 0.16336 0)
(-0.0315994 0.164001 0)
(-0.0505751 0.216881 0)
(-0.0467995 0.205239 0)
(-0.0524954 0.221016 0)
(-0.0948161 0.325952 0)
(-0.10228 0.341293 0)
(-0.0949913 0.325079 0)
(-0.0920186 0.30706 0)
(-0.0945647 0.309416 0)
(-0.0859212 0.291014 0)
(-0.0699227 0.233072 0)
(-0.0710997 0.240622 0)
(-0.0747594 0.247604 0)
(-0.0455742 0.174892 0)
(-0.0498708 0.184953 0)
(-0.0447139 0.169616 0)
(-0.0492742 0.189 0)
(-0.0476584 0.182528 0)
(-0.0281976 0.117673 0)
(-0.0321105 0.129105 0)
(-0.0168231 0.0759 0)
(-0.0142854 0.0669782 0)
(-0.0148826 0.0705732 0)
(-0.00471531 0.0349607 0)
(-0.00431248 0.0338162 0)
(-0.00123113 0.0264775 0)
(-0.0012827 0.0237205 0)
(-0.00432453 0.0357135 0)
(-0.00368978 0.0321838 0)
(-0.00396007 0.0352132 0)
(0.000855743 0.0136788 0)
(0.00118657 0.0108799 0)
(0.00148285 0.0123667 0)
(0.00479418 0.0023704 0)
(0.00272076 0.00329978 0)
(0.00160222 0.00902812 0)
(0.00129371 0.0067927 0)
(0.0017128 0.00646717 0)
(0.00826106 -0.0225125 0)
(0.00710269 -0.0229962 0)
(0.00936138 -0.0263597 0)
(0.0226478 0.0400435 0)
(0.0169602 0.0555728 0)
(0.0172905 0.0599542 0)
(0.0223507 0.0454607 0)
(0.0446186 -0.0433953 0)
(0.040661 -0.0384132 0)
(0.0437074 -0.053917 0)
(-0.0538302 0.237202 0)
(-0.0531403 0.235627 0)
(-0.0574821 0.245127 0)
(-0.0475526 0.222296 0)
(-0.0420817 0.210731 0)
(-0.0350632 0.194679 0)
(-0.0382208 0.202134 0)
(-0.0208113 0.162312 0)
(-0.0185076 0.156264 0)
(-0.0595259 0.25 0)
(-0.0662909 0.265148 0)
(-0.0582956 0.246993 0)
(-0.0824902 0.30007 0)
(-0.0804677 0.295516 0)
(-0.0880613 0.310563 0)
(-0.0651238 0.261882 0)
(-0.0673069 0.266781 0)
(-0.0764311 0.288187 0)
(-0.0773546 0.290225 0)
(-0.0706645 0.27448 0)
(0.0114019 -0.0241202 0)
(0.0109117 -0.0196081 0)
(0.0098936 -0.0209988 0)
(0.0239952 -0.0524617 0)
(0.0233393 -0.0568991 0)
(0.0263254 -0.0622068 0)
(0.0273535 -0.0580285 0)
(0.0297716 -0.0598106 0)
(0.0279061 -0.0543727 0)
(0.0334294 -0.0630594 0)
(0.0314504 -0.0596074 0)
(0.0322215 -0.0655347 0)
(-0.0461313 0.209674 0)
(-0.041486 0.19711 0)
(-0.0478697 0.215063 0)
(-0.041289 0.194447 0)
(-0.0433006 0.20038 0)
(-0.0476022 0.211932 0)
(-0.0339762 0.172703 0)
(-0.0748126 0.282164 0)
(-0.0671637 0.263423 0)
(-0.039308 0.183447 0)
(-0.0316749 0.161708 0)
(-0.0386601 0.181539 0)
(-0.0515486 0.218562 0)
(-0.0589053 0.238128 0)
(-0.0639803 0.251673 0)
(-0.0557321 0.230722 0)
(-0.0947864 0.323273 0)
(-0.0860409 0.304359 0)
(-0.0765801 0.276683 0)
(-0.0825703 0.291968 0)
(-0.0857618 0.297798 0)
(-0.14338 0.383703 0)
(-0.141935 0.374139 0)
(-0.139141 0.378571 0)
(-0.0798357 0.265792 0)
(-0.0809563 0.263001 0)
(-0.0752166 0.252809 0)
(-0.0393691 0.146565 0)
(-0.0429859 0.154021 0)
(-0.0396137 0.143295 0)
(-0.0190018 0.0809542 0)
(-0.0153513 0.0690308 0)
(-0.0262863 0.0995566 0)
(-0.0247237 0.0969282 0)
(-0.0283667 0.108397 0)
(-0.00615252 0.0365234 0)
(-0.00580512 0.0356141 0)
(-0.00653433 0.0387162 0)
(-0.0087117 0.0469446 0)
(-0.00980049 0.0507559 0)
(-0.0087369 0.0462521 0)
(-0.00334752 0.0265933 0)
(-0.00344955 0.0279548 0)
(-0.00370095 0.028621 0)
(-0.00110131 0.0290281 0)
(-0.000426213 0.0238112 0)
(-0.00188562 0.0248752 0)
(-0.00265986 0.0281474 0)
(-0.00207979 0.0235223 0)
(-0.00144789 0.0196749 0)
(-0.00115103 0.0201175 0)
(0.000445182 0.0122459 0)
(0.000305864 0.0158099 0)
(6.68948e-05 0.014634 0)
(0.00118316 6.12071e-06 0)
(0.00212694 -0.00092129 0)
(0.00145367 0.000587666 0)
(0.00217212 0.00735807 0)
(0.00219534 0.010476 0)
(0.00312688 0.000491607 0)
(0.00236157 0.00122083 0)
(0.00252027 -0.000250812 0)
(0.00103748 0.00854162 0)
(0.000846514 0.0108858 0)
(0.000649372 0.00917203 0)
(0.00222972 -0.00835499 0)
(0.00284596 -0.00706945 0)
(0.000706964 -0.00385379 0)
(-0.00681868 0.129462 0)
(-0.00224557 0.11812 0)
(-0.00658265 0.129505 0)
(0.00906519 0.0873599 0)
(0.0145489 0.0714761 0)
(0.0120685 0.0807116 0)
(0.0367512 -0.0123653 0)
(0.0407343 -0.0284223 0)
(0.0401437 -0.017493 0)
(-0.0628835 0.256413 0)
(-0.0666169 0.264518 0)
(-0.0599674 0.250639 0)
(-0.0362867 0.196568 0)
(-0.041196 0.208566 0)
(-0.0433631 0.213408 0)
(-0.0235692 0.166959 0)
(-0.0167652 0.149009 0)
(-0.0189671 0.156345 0)
(-0.0198625 0.160467 0)
(-0.0162341 0.151233 0)
(-0.0791094 0.292334 0)
(-0.0824096 0.298231 0)
(-0.0858784 0.305697 0)
(-0.0699325 0.272829 0)
(-0.0757212 0.284501 0)
(-0.0744844 0.282548 0)
(-0.0731379 0.280153 0)
(-0.077548 0.290105 0)
(-0.0843503 0.304194 0)
(-0.0869069 0.310546 0)
(-0.0880725 0.313149 0)
(-0.0792085 0.294342 0)
(-0.0927943 0.322394 0)
(-0.0969517 0.330619 0)
(-0.0851645 0.307449 0)
(-0.0930425 0.323615 0)
(-0.0908911 0.31935 0)
(-0.0922329 0.322123 0)
(-0.100878 0.338958 0)
(-0.00132441 -0.0148933 0)
(0.00146732 -0.0202953 0)
(2.38428e-05 -0.0148203 0)
(0.00762572 -0.0461379 0)
(0.00606011 -0.0456758 0)
(0.00886442 -0.0503268 0)
(0.0243614 -0.0734773 0)
(0.0213342 -0.0673835 0)
(0.020862 -0.069431 0)
(0.0465794 -0.0980836 0)
(0.0490739 -0.103607 0)
(0.0493445 -0.096771 0)
(-0.0815181 0.295712 0)
(-0.0894759 0.31255 0)
(-0.0858919 0.305165 0)
(-0.0345109 0.173256 0)
(-0.0364849 0.180148 0)
(-0.0343691 0.17258 0)
(-0.103426 0.343887 0)
(-0.0928359 0.323399 0)
(-0.0517362 0.218436 0)
(-0.0621916 0.245055 0)
(-0.0572281 0.233449 0)
(-0.0542143 0.223733 0)
(-0.0715433 0.266103 0)
(-0.0539469 0.223536 0)
(-0.0775075 0.285313 0)
(-0.0858674 0.305088 0)
(-0.0826888 0.298537 0)
(-0.0434886 0.196002 0)
(-0.0434381 0.195467 0)
(-0.0470709 0.20611 0)
(-0.0884055 0.316517 0)
(-0.0905619 0.322523 0)
(-0.0878642 0.315676 0)
(-0.0980492 0.33947 0)
(-0.103469 0.351366 0)
(-0.102687 0.349253 0)
(-0.115989 0.342838 0)
(-0.12166 0.346905 0)
(-0.115604 0.332817 0)
(-0.07067 0.220202 0)
(-0.0687021 0.206043 0)
(-0.0640694 0.199868 0)
(-0.027985 0.102358 0)
(-0.0329355 0.117852 0)
(-0.0300068 0.105644 0)
(-0.0269212 0.0910007 0)
(-0.0229795 0.0792931 0)
(-0.0250668 0.0877701 0)
(-0.0208977 0.0843331 0)
(-0.0176516 0.0738897 0)
(-0.00491171 0.0285291 0)
(-0.00498468 0.029565 0)
(-0.0053824 0.0308921 0)
(-0.00456497 0.0281967 0)
(-0.00443744 0.0269194 0)
(-0.00403726 0.0255593 0)
(-0.000205342 0.0177981 0)
(-0.000702351 0.0192927 0)
(-0.000284704 0.0154333 0)
(-0.000655937 0.016235 0)
(-0.00094429 0.0163282 0)
(-0.000586307 0.0132757 0)
(-0.00171697 0.0195071 0)
(-0.000313281 0.0128723 0)
(0.00228119 -0.00228422 0)
(0.00356263 -0.00453821 0)
(0.00310035 -0.00229007 0)
(0.000672099 0.00229792 0)
(0.000331705 0.00270354 0)
(0.0011035 0.00219988 0)
(0.00107038 0.00288301 0)
(0.00100867 0.00242367 0)
(0.00144573 0.00331131 0)
(0.00103192 0.00231138 0)
(0.000711473 0.00211226 0)
(0.000975849 0.00318878 0)
(0.00127338 0.00366453 0)
(0.00119069 0.00426547 0)
(-0.0094149 0.0201879 0)
(-0.0122237 0.0286423 0)
(-0.011779 0.0246459 0)
(0.00140764 0.109446 0)
(0.00341868 0.10303 0)
(0.00240284 0.107754 0)
(-0.00216147 0.118915 0)
(0.0141825 0.0766251 0)
(0.0182799 0.0655594 0)
(0.0157582 0.0740185 0)
(0.011164 0.0859102 0)
(0.0480573 -0.0346334 0)
(0.0489504 -0.0300254 0)
(0.0457932 -0.0212985 0)
(0.0379346 0.0122166 0)
(0.0359717 0.0169077 0)
(0.0400529 0.00235965 0)
(-0.0305575 0.181662 0)
(-0.0293447 0.179739 0)
(-0.0398419 0.205605 0)
(-0.0143118 0.147068 0)
(-0.068549 0.269601 0)
(-0.0618255 0.255093 0)
(-0.0672051 0.266505 0)
(-0.0728685 0.280071 0)
(-0.0691981 0.271827 0)
(-0.101358 0.339332 0)
(-0.100945 0.338892 0)
(-0.0733623 0.281315 0)
(-0.0784556 0.292408 0)
(-0.0810587 0.298252 0)
(-0.0834453 0.303722 0)
(-0.0177926 0.0419293 0)
(-0.0214379 0.0503729 0)
(-0.0169459 0.0362704 0)
(0.00922903 -0.0465359 0)
(0.00946593 -0.0434186 0)
(0.00639785 -0.0395227 0)
(0.0083689 -0.0559954 0)
(0.0104181 -0.060845 0)
(0.0118285 -0.0614333 0)
(0.0325183 -0.0869145 0)
(0.0321839 -0.0903722 0)
(0.0354131 -0.0940704 0)
(0.0586516 -0.069531 0)
(0.0567113 -0.0683359 0)
(0.0589344 -0.0788279 0)
(0.0524587 -0.102682 0)
(0.0520033 -0.109242 0)
(-0.0780353 0.288708 0)
(-0.078213 0.288434 0)
(-0.0706571 0.271448 0)
(-0.0633642 0.253751 0)
(-0.0696513 0.268934 0)
(-0.0723527 0.27515 0)
(-0.0474279 0.210909 0)
(-0.0523623 0.221561 0)
(-0.0506228 0.217737 0)
(-0.0618242 0.245511 0)
(-0.058926 0.242509 0)
(-0.0618381 0.250844 0)
(-0.0412566 0.196891 0)
(-0.0404208 0.196872 0)
(-0.0383186 0.186606 0)
(-0.0373866 0.183226 0)
(-0.0367139 0.180832 0)
(-0.0349511 0.174822 0)
(-0.0614718 0.239934 0)
(-0.0484693 0.208257 0)
(-0.0453299 0.200242 0)
(-0.103364 0.342883 0)
(-0.089646 0.315258 0)
(-0.0800076 0.294839 0)
(-0.0820619 0.30056 0)
(-0.0768082 0.286596 0)
(-0.0911937 0.322059 0)
(-0.0860097 0.309177 0)
(-0.0906004 0.319276 0)
(-0.145524 0.422002 0)
(-0.148304 0.423858 0)
(-0.144013 0.419159 0)
(-0.102129 0.344234 0)
(-0.0947268 0.327986 0)
(-0.0957972 0.33122 0)
(-0.108861 0.347604 0)
(-0.117635 0.365573 0)
(-0.116024 0.360497 0)
(-0.128393 0.33995 0)
(-0.122092 0.323345 0)
(-0.125241 0.344106 0)
(-0.112891 0.344096 0)
(-0.10936 0.33198 0)
(-0.0919498 0.216034 0)
(-0.0939344 0.208096 0)
(-0.0881481 0.188937 0)
(-0.0489711 0.125614 0)
(-0.0498784 0.137343 0)
(-0.0553154 0.149658 0)
(-0.0348058 0.118862 0)
(-0.0405678 0.135558 0)
(-0.0371113 0.122094 0)
(-0.0104507 0.0464671 0)
(-0.0122716 0.0549588 0)
(-0.0126763 0.054522 0)
(-0.015239 0.0604432 0)
(-0.0173378 0.0690036 0)
(-0.0188679 0.0721781 0)
(-0.00996836 0.0474488 0)
(-0.00987083 0.0487414 0)
(-0.0114523 0.0536197 0)
(-0.00229792 0.0162034 0)
(-0.00243364 0.0164162 0)
(-0.0021102 0.0147206 0)
(-0.00824062 0.0402207 0)
(-0.00798421 0.0381644 0)
(-0.00685395 0.034104 0)
(-0.00252349 0.0184554 0)
(-0.00221538 0.0170971 0)
(-0.00240713 0.0185163 0)
(-0.00196933 0.0178134 0)
(-0.00172765 0.0155601 0)
(-0.00161372 0.0154289 0)
(-0.00108674 0.0159512 0)
(-0.00132028 0.017096 0)
(-0.00104331 0.0143025 0)
(-0.00093929 0.0110872 0)
(-0.00113719 0.0122803 0)
(-0.000962092 0.0106868 0)
(-0.000324895 0.00849112 0)
(-0.000333016 0.0105361 0)
(-0.000498206 0.0108335 0)
(0.00033608 0.00936061 0)
(0.000239321 0.0066153 0)
(0.000464644 0.00705662 0)
(-0.00225582 0.00748822 0)
(-0.00224852 0.00728338 0)
(-0.00144511 0.00567336 0)
(-1.03136e-06 0.00302155 0)
(-0.000599141 0.00407529 0)
(-0.000987435 0.00458256 0)
(0.000819767 0.00340886 0)
(0.000674991 0.00238853 0)
(0.000394109 0.00212361 0)
(0.00154071 0.00259387 0)
(0.00106352 0.00502073 0)
(0.000734036 0.00403657 0)
(0.000322045 0.00482139 0)
(-0.00956873 0.0257646 0)
(-0.0120668 0.0322005 0)
(-0.00923397 0.0236999 0)
(0.00567615 0.0951337 0)
(0.0100946 0.0875834 0)
(0.0254664 0.0481257 0)
(0.025725 0.0456075 0)
(0.0285944 0.0381949 0)
(0.0478039 -0.0172878 0)
(0.0495187 -0.0209794 0)
(0.0468652 -0.0120311 0)
(0.0576801 -0.0515925 0)
(0.0589467 -0.0599048 0)
(0.0593007 -0.057393 0)
(0.0294351 0.0270981 0)
(0.0337022 0.0150285 0)
(0.0296923 0.0314095 0)
(-0.0557919 0.241584 0)
(-0.0633866 0.258191 0)
(-0.0109577 0.139823 0)
(-0.0900693 0.315607 0)
(-0.0869334 0.309911 0)
(-0.0817812 0.299213 0)
(-0.0128547 0.0194866 0)
(-0.0127606 0.0166027 0)
(-0.00912455 0.00873074 0)
(-0.0105256 -0.00304769 0)
(-0.0150844 0.00597787 0)
(-0.0106666 -0.00670372 0)
(0.0104946 -0.0516082 0)
(0.011009 -0.0658678 0)
(0.0081921 -0.0618405 0)
(0.0103658 -0.0661904 0)
(0.0364135 -0.0907728 0)
(0.0342005 -0.085386 0)
(0.065874 -0.0900208 0)
(0.0644586 -0.0878078 0)
(0.065024 -0.0949952 0)
(0.0664978 -0.112536 0)
(0.0658477 -0.106528 0)
(0.0648743 -0.111469 0)
(-0.0996246 0.333655 0)
(-0.0890968 0.312341 0)
(-0.0655752 0.258804 0)
(-0.0721571 0.273725 0)
(-0.0726369 0.275005 0)
(-0.0523936 0.223633 0)
(-0.0571987 0.2367 0)
(-0.055932 0.232916 0)
(-0.0680081 0.251709 0)
(-0.0616547 0.24418 0)
(-0.0686223 0.254491 0)
(-0.0401447 0.197327 0)
(-0.0906933 0.317938 0)
(-0.0989242 0.333708 0)
(-0.0876038 0.310507 0)
(-0.0607639 0.237909 0)
(-0.044808 0.199142 0)
(-0.0793071 0.289321 0)
(-0.109094 0.362364 0)
(-0.114408 0.372016 0)
(-0.104872 0.352967 0)
(-0.0684886 0.264964 0)
(-0.0654255 0.256766 0)
(-0.0714228 0.272415 0)
(-0.155327 0.439286 0)
(-0.156168 0.439165 0)
(-0.152611 0.435549 0)
(-0.108053 0.361781 0)
(-0.1085 0.362223 0)
(-0.118732 0.381012 0)
(-0.125082 0.393507 0)
(-0.14018 0.418227 0)
(-0.124277 0.392598 0)
(-0.151164 0.420743 0)
(-0.149577 0.420959 0)
(-0.154763 0.428156 0)
(-0.142143 0.408195 0)
(-0.146635 0.415414 0)
(-0.14443 0.408026 0)
(-0.126433 0.321688 0)
(-0.115015 0.310782 0)
(-0.116036 0.299202 0)
(-0.110744 0.290693 0)
(-0.0674761 0.158246 0)
(-0.0727091 0.180091 0)
(-0.0715759 0.167805 0)
(-0.054684 0.165336 0)
(-0.0499365 0.145948 0)
(-0.0488169 0.150753 0)
(-0.0500643 0.0676924 0)
(-0.0433038 0.0531049 0)
(-0.048318 0.0709026 0)
(-0.0237694 0.0756742 0)
(-0.0270931 0.0876568 0)
(-0.0264364 0.0824268 0)
(-0.0270333 0.081073 0)
(-0.0236016 0.0718776 0)
(-0.0144597 0.0596208 0)
(-0.0122967 0.0501609 0)
(-0.011 0.0468723 0)
(-0.0173111 0.0603917 0)
(-0.0197182 0.069402 0)
(-0.019908 0.0675193 0)
(-0.0196454 0.0727107 0)
(-0.0168305 0.0631365 0)
(-0.0154741 0.0597423 0)
(-0.00419195 0.0231718 0)
(-0.00366711 0.0210343 0)
(-0.00403993 0.0230833 0)
(-0.00417032 0.0245751 0)
(-0.0037584 0.0229471 0)
(-0.00429202 0.0256293 0)
(-0.00687305 0.0331099 0)
(-0.00839628 0.0387966 0)
(-0.00685811 0.0319718 0)
(-0.00187174 0.0145841 0)
(-0.00205859 0.0152868 0)
(-0.00179876 0.0137217 0)
(-0.00166994 0.0136974 0)
(-0.00142649 0.0122243 0)
(-0.0015932 0.0137018 0)
(-0.00122965 0.0139227 0)
(-0.000757494 0.0126254 0)
(-0.000457253 0.00879789 0)
(-0.00100886 0.0127583 0)
(-0.00130952 0.0157359 0)
(4.55785e-05 0.0119098 0)
(2.47646e-05 0.00470237 0)
(0.000115897 0.00494479 0)
(6.79727e-05 0.00695874 0)
(-0.000505073 0.0037676 0)
(-0.000431674 0.00318811 0)
(-0.00100286 0.0045005 0)
(-0.00854956 0.0238473 0)
(-0.0109062 0.0307351 0)
(0.000560903 0.00272685 0)
(0.000485982 0.00145612 0)
(0.000619893 0.00183032 0)
(0.000710672 0.00196268 0)
(9.46925e-05 0.00120621 0)
(1.30411e-06 0.0017262 0)
(0.000205357 0.00173795 0)
(0.00044756 0.00265167 0)
(0.000567866 0.00434742 0)
(0.00048983 0.00529389 0)
(0.000336456 0.00342091 0)
(-0.0244267 0.0627913 0)
(-0.0208006 0.0523335 0)
(-0.0223599 0.0605665 0)
(-0.0072803 0.0158731 0)
(-0.0100683 0.0243557 0)
(0.023041 0.0546966 0)
(0.0192655 0.0655505 0)
(0.0216743 0.0569422 0)
(0.0545483 -0.037456 0)
(0.054108 -0.0390473 0)
(0.0558119 -0.0450773 0)
(0.0483582 -0.0226959 0)
(0.0456194 -0.0125474 0)
(0.0570677 -0.0540211 0)
(0.0364658 0.0125147 0)
(0.040628 0.00444842 0)
(0.0432641 -0.00276237 0)
(0.040876 0.00629433 0)
(-0.014838 0.0347893 0)
(-0.0148453 0.0324069 0)
(-0.0103738 0.00761633 0)
(-0.00766948 0.00227117 0)
(-0.0139143 -0.00133821 0)
(-0.0128766 -0.00784837 0)
(-0.0105017 -0.0104661 0)
(-0.00183744 -0.0448916 0)
(-0.00400759 -0.0395323 0)
(-0.00518271 -0.0397633 0)
(0.0254065 -0.094041 0)
(0.0297907 -0.102343 0)
(0.0284014 -0.0983964 0)
(0.0655576 -0.125084 0)
(0.0660545 -0.12834 0)
(0.067912 -0.126268 0)
(0.0608719 -0.0654267 0)
(0.0618198 -0.0744709 0)
(0.0624954 -0.0708557 0)
(0.0635724 -0.0770923 0)
(0.0635776 -0.0726086 0)
(0.0603243 -0.13406 0)
(0.0605705 -0.130245 0)
(0.0576936 -0.13144 0)
(-0.103147 0.341247 0)
(-0.079881 0.289936 0)
(-0.0811817 0.293445 0)
(-0.0616013 0.239981 0)
(-0.0532558 0.221299 0)
(-0.0561423 0.236842 0)
(-0.0613274 0.247794 0)
(-0.0436999 0.200053 0)
(-0.0463528 0.214353 0)
(-0.0443427 0.207128 0)
(-0.0294973 0.156825 0)
(-0.0285007 0.15327 0)
(-0.0298746 0.158054 0)
(-0.0850377 0.3045 0)
(-0.0305839 0.158169 0)
(-0.0380204 0.179789 0)
(-0.038276 0.180453 0)
(-0.10936 0.362928 0)
(-0.122651 0.386074 0)
(-0.110269 0.365148 0)
(-0.163316 0.449001 0)
(-0.160783 0.446121 0)
(-0.167783 0.45526 0)
(-0.152621 0.43671 0)
(-0.155022 0.43997 0)
(-0.156773 0.441602 0)
(-0.112215 0.370417 0)
(-0.115358 0.376543 0)
(-0.113871 0.373864 0)
(-0.125899 0.396115 0)
(-0.140583 0.419573 0)
(-0.127607 0.399622 0)
(-0.169617 0.452203 0)
(-0.172412 0.456098 0)
(-0.172618 0.454645 0)
(-0.143618 0.412207 0)
(-0.139061 0.404633 0)
(-0.13912 0.406537 0)
(-0.153273 0.408892 0)
(-0.151885 0.405778 0)
(-0.154861 0.406688 0)
(-0.146191 0.38712 0)
(-0.149646 0.39839 0)
(-0.150501 0.392376 0)
(-0.139421 0.335674 0)
(-0.140428 0.330245 0)
(-0.137394 0.324198 0)
(-0.124345 0.301856 0)
(-0.118142 0.280941 0)
(-0.120897 0.303893 0)
(-0.110083 0.233558 0)
(-0.10996 0.24386 0)
(-0.113241 0.250244 0)
(-0.0824769 0.138919 0)
(-0.0855608 0.142594 0)
(-0.0808435 0.124776 0)
(-0.0473473 0.101888 0)