/*--------------------------------*- C++ -*----------------------------------*\
| =========                 |                                                 |
| \\      /  F ield         | OpenFOAM: The Open Source CFD Toolbox           |
|  \\    /   O peration     | Version:  v2012                                 |
|   \\  /    A nd           | Website:  www.openfoam.com                      |
|    \\/     M anipulation  |                                                 |
\*---------------------------------------------------------------------------*/
FoamFile
{
    version     2.0;
    format      ascii;
    class       volVectorField;
    location    "7";
    object      ddtCorrDdt0(U);
}
// * * * * * * * * * * * * * * * * * * * * * * * * * * * * * * * * * * * * * //

dimensions      [0 1 -2 0 0 0 0];


internalField   nonuniform List<vector> 
11941
(
(1.26481e-05 2.12066e-05 1.14302e-23)
(1.44265e-05 3.87401e-05 -5.50555e-24)
(2.03133e-05 3.31571e-05 -1.54361e-23)
(1.46471e-05 4.96655e-05 1.20341e-25)
(6.27211e-06 2.12412e-05 0)
(1.58496e-05 5.05583e-05 8.2577e-24)
(1.6534e-05 1.1318e-05 -2.43805e-23)
(1.01496e-05 5.18377e-05 2.77961e-24)
(1.89369e-05 5.51857e-05 -7.53114e-24)
(8.15673e-06 4.37554e-05 -2.14028e-24)
(2.95137e-05 5.22978e-05 0)
(2.34932e-05 2.60868e-05 1.06546e-23)
(2.56612e-05 8.37068e-05 -5.79478e-24)
(9.78889e-06 4.56095e-05 7.7511e-24)
(2.94251e-05 7.4592e-05 0)
(2.40295e-06 2.38438e-05 3.82418e-24)
(3.05144e-05 5.22163e-05 0)
(1.91964e-05 2.9969e-05 0)
(3.348e-05 8.81278e-05 0)
(1.09471e-05 8.59504e-05 1.8584e-24)
(1.43859e-05 5.82255e-05 -3.5341e-24)
(3.63985e-05 8.95842e-05 0)
(4.0081e-06 4.21744e-05 -5.85452e-25)
(3.24711e-05 5.12802e-05 2.97743e-23)
(4.72429e-05 8.61081e-05 0)
(2.44725e-05 6.95931e-06 0)
(2.92102e-05 0.000110034 0)
(1.49008e-05 9.68128e-05 -1.13242e-24)
(4.84019e-06 5.2336e-05 6.76318e-25)
(4.67389e-05 9.82462e-05 0)
(4.01854e-07 3.12049e-05 -4.79483e-24)
(3.95974e-05 4.85725e-05 -9.56126e-24)
(5.52128e-05 7.75786e-05 0)
(2.25292e-05 3.6718e-05 1.86341e-23)
(2.8367e-05 0.000113895 1.87133e-24)
(2.33788e-05 0.000112238 5.7383e-24)
(9.22315e-06 9.84965e-05 1.42002e-24)
(1.65e-06 6.63059e-05 1.68525e-24)
(5.28911e-05 9.56921e-05 -3.39251e-23)
(-4.04967e-06 3.93628e-05 5.6225e-24)
(2.20261e-05 3.85693e-05 -1.59981e-24)
(4.53787e-05 7.01334e-05 -1.39822e-23)
(6.14969e-05 7.69525e-05 0)
(4.1851e-05 7.22262e-06 -3.22728e-23)
(3.51539e-05 0.00011543 -1.96984e-23)
(1.67599e-05 0.000120929 -7.32126e-24)
(5.984e-06 9.99448e-05 0)
(4.63929e-06 6.39606e-05 -9.1683e-25)
(6.73074e-05 0.000104703 -5.30852e-24)
(4.40364e-05 0.000113986 0)
(-1.53258e-06 1.85672e-05 1.1026e-23)
(1.88601e-07 5.09903e-05 2.37098e-24)
(3.05282e-05 4.02495e-05 0)
(6.47082e-05 6.24993e-05 -2.31314e-24)
(6.06262e-05 9.77918e-05 2.34586e-23)
(7.23188e-05 7.19188e-05 -1.0968e-23)
(5.43763e-05 -2.48863e-05 2.88854e-23)
(3.48781e-05 0.000127369 1.14722e-23)
(1.82094e-05 0.000134976 1.02635e-23)
(2.62715e-06 0.000115661 1.14699e-24)
(9.6948e-07 9.89855e-05 0)
(6.64028e-05 0.00011259 2.82701e-23)
(4.96519e-05 0.000124065 -6.41249e-23)
(-2.07897e-06 4.06514e-05 -1.81936e-23)
(-4.02254e-06 5.18754e-05 9.84729e-24)
(3.61848e-05 3.50341e-05 0)
(6.68012e-05 5.25087e-05 2.31123e-24)
(7.14705e-05 0.000117635 -3.93813e-23)
(8.46433e-05 7.42869e-05 1.05143e-23)
(9.93946e-05 0.000112152 5.2875e-23)
(2.75504e-05 -6.85799e-06 0)
(3.84795e-05 0.000152637 1.94192e-23)
(1.1348e-05 0.000135835 -6.37374e-24)
(-2.99313e-06 0.000127265 0)
(-1.11772e-05 0.000100573 -1.21382e-23)
(9.64483e-05 0.000173503 -5.25411e-23)
(6.24349e-05 0.000165475 1.56591e-23)
(-7.2384e-06 2.91245e-05 5.54429e-24)
(-9.39053e-06 6.72886e-05 -1.20012e-23)
(5.4689e-05 3.68464e-05 0)
(6.31033e-05 3.77019e-05 0)
(0.000102959 0.000156923 8.13866e-23)
(8.99869e-05 5.76202e-05 0)
(0.000114878 0.000104484 7.3237e-24)
(3.79931e-05 2.17679e-05 -1.09302e-23)
(4.07638e-05 0.000184617 -2.74537e-23)
(1.86966e-06 0.000130935 0)
(2.33731e-05 0.000193082 1.66713e-23)
(-1.42494e-05 0.000123117 3.1467e-23)
(-1.20725e-05 9.76148e-05 -8.33678e-24)
(7.50342e-05 0.000172188 5.82855e-23)
(-1.15217e-05 3.7545e-05 0)
(-9.89096e-06 7.13787e-05 1.73491e-23)
(4.91361e-05 3.55361e-05 -3.28324e-23)
(7.11472e-05 5.18014e-05 -8.72403e-23)
(0.000121972 0.000185262 -9.52088e-24)
(0.000113574 8.38149e-05 4.80703e-23)
(0.000160065 0.000169655 -1.01089e-22)
(6.36872e-05 -3.79061e-05 -1.54216e-23)
(5.41306e-05 0.000227203 2.10211e-23)
(-8.98113e-06 0.000171731 5.55171e-24)
(7.36724e-06 0.0001876 -3.92675e-24)
(-2.76044e-05 0.000115921 -2.91377e-23)
(-2.08968e-05 0.000102279 2.88237e-23)
(8.98122e-05 0.000220191 -3.18259e-23)
(-8.78482e-06 2.23922e-05 0)
(-1.36905e-05 5.4352e-05 -1.44881e-23)
(6.2405e-05 1.456e-05 3.54484e-23)
(8.09403e-05 3.90515e-05 3.616e-23)
(0.000137101 0.000230033 -1.88639e-24)
(0.000127215 8.7109e-05 8.26029e-24)
(0.000193842 0.000177218 1.52462e-22)
(4.35297e-05 9.05132e-06 -1.83117e-23)
(5.18422e-05 0.000294092 -2.03642e-23)
(-2.25183e-05 0.000171946 -1.3396e-23)
(6.53897e-06 0.000231223 0)
(-3.22927e-05 0.000134706 8.30135e-24)
(-3.1333e-05 0.000115277 0)
(-2.92438e-05 9.77749e-05 -1.67221e-23)
(0.000125942 0.000248592 5.95794e-23)
(-1.76997e-05 3.47472e-05 -7.21081e-24)
(-1.98674e-05 6.08373e-05 2.0153e-23)
(3.54892e-05 1.19076e-05 2.08886e-23)
(6.7463e-05 2.38935e-05 -8.79706e-24)
(0.000105162 6.83297e-05 -5.80232e-24)
(0.000192246 0.000297348 -5.30696e-23)
(0.000132076 0.00027622 -7.302e-23)
(0.000154399 0.000115774 -3.36077e-23)
(0.000177574 0.000158451 0)
(0.000215168 0.000249257 -1.47122e-22)
(7.92304e-05 -7.34501e-05 3.10064e-24)
(8.31584e-05 0.00036114 0)
(2.51941e-05 0.000312384 4.7402e-24)
(-2.35682e-05 0.00022663 2.47207e-23)
(-1.70012e-05 0.000245151 -1.60284e-23)
(-5.01367e-05 0.000164028 -2.6216e-23)
(-4.78919e-05 0.000114274 0)
(-2.59171e-05 8.39148e-05 2.67553e-24)
(0.000144086 0.000388317 0)
(-1.69571e-05 4.99577e-05 -5.25935e-23)
(-1.42685e-05 1.32074e-05 6.57594e-24)
(5.42513e-05 2.85427e-06 7.98929e-24)
(9.24651e-05 2.5241e-05 -3.03868e-23)
(0.000124652 6.20443e-05 -7.01492e-24)
(0.000225674 0.00029151 4.71344e-23)
(0.000200515 0.000355029 3.02804e-23)
(0.000162048 0.000371078 0)
(0.000170962 0.000110753 -1.45783e-22)
(0.00021693 0.000195207 0)
(0.000278406 0.000251922 -7.03085e-23)
(2.3002e-05 -6.2316e-05 -3.83848e-23)
(7.42927e-05 0.000443386 -1.0251e-23)
(1.5726e-05 0.000356604 -8.68138e-24)
(-6.24046e-05 0.000215697 -3.93109e-24)
(-4.03395e-05 0.000342184 2.26905e-23)
(-7.31066e-05 0.000167774 0)
(-5.3304e-05 0.000111089 0)
(-3.64979e-05 9.58201e-05 -3.59479e-24)
(-3.25314e-05 8.7476e-05 3.08661e-23)
(0.00016345 0.0003847 0)
(-2.08576e-05 4.66818e-05 5.76123e-23)
(-1.74562e-05 3.45387e-05 -2.52227e-23)
(8.13961e-05 3.88543e-06 2.14234e-23)
(9.93072e-05 2.00869e-05 4.14938e-23)
(0.00011311 4.44123e-05 0)
(0.00015404 0.000102161 -8.01995e-24)
(0.000286703 0.00036947 8.58077e-23)
(0.000246425 0.000432892 -1.38139e-24)
(0.000239263 0.000168177 1.2275e-22)
(0.00032052 0.000278715 -1.0097e-22)
(2.54737e-05 6.33034e-05 3.9363e-23)
(0.000110587 0.000546983 3.52612e-23)
(2.52709e-05 0.000440461 4.31865e-24)
(-7.96574e-05 0.000245772 2.738e-23)
(-5.96039e-05 0.000369671 -1.14131e-23)
(-8.75351e-05 0.000162439 0)
(-6.4636e-05 0.000107687 4.44683e-23)
(-5.0343e-05 8.73882e-05 3.68204e-23)
(-2.5978e-05 6.63052e-05 -2.8352e-23)
(0.000193598 0.000490541 -9.42891e-23)
(-2.15016e-05 3.55666e-05 -2.85802e-23)
(7.80816e-05 -3.77957e-06 0)
(9.60649e-05 7.46831e-06 -6.26153e-23)
(0.000148031 3.68653e-05 0)
(0.00019309 0.00010142 7.37769e-23)
(0.000281281 0.000456179 -4.87471e-23)
(0.000341613 0.000386171 -1.41692e-22)
(0.000272723 0.000518098 1.09995e-22)
(0.000281617 0.00020527 1.86761e-22)
(0.000304865 0.000245105 -1.96674e-22)
(0.000345915 0.000357916 2.50803e-22)
(0.000148233 -8.1062e-05 -1.04861e-23)
(4.82156e-05 2.41443e-05 -3.42637e-23)
(8.464e-05 0.000648193 -2.96019e-23)
(0.000177458 0.000570817 3.41583e-23)
(1.04351e-06 0.000523631 -1.05062e-23)
(-0.000112041 0.000217394 2.17642e-24)
(-8.59141e-05 0.0003289 -5.31197e-23)
(-5.67904e-05 0.000451747 2.88678e-23)
(-7.47196e-05 0.000154972 -1.24101e-24)
(-5.85071e-05 9.45236e-05 -3.96935e-23)
(-3.92929e-05 7.91255e-05 -4.48808e-23)
(-3.88724e-05 7.57692e-05 9.4719e-24)
(-2.17632e-05 3.92037e-05 -2.47722e-24)
(-2.51459e-05 5.50975e-06 1.23048e-24)
(7.74843e-05 -3.12019e-06 8.08969e-23)
(0.000116445 1.55187e-05 0)
(0.000176575 5.61804e-05 0)
(0.000225049 0.000119709 0)
(0.000341245 0.00053921 6.85925e-23)
(0.000397503 0.000481341 -3.58762e-23)
(0.000313813 0.000647423 9.8066e-23)
(0.000292914 0.000194019 -1.86588e-22)
(0.000409156 0.000310919 2.09467e-22)
(0.000410276 0.000369508 -1.54231e-22)
(8.84234e-05 -0.000184429 2.45528e-23)
(3.10371e-05 -2.05408e-05 0)
(0.000123954 0.000764396 -1.18398e-23)
(3.77962e-05 0.000638716 1.1991e-23)
(0.000233499 0.000706411 1.65511e-23)
(-2.62326e-05 0.00054148 0)
(-0.000141648 0.000271414 0)
(-0.000135538 0.000371899 6.65092e-23)
(-0.000107283 0.000512043 -3.11187e-23)
(-0.000111899 0.000153174 4.02627e-23)
(-7.12835e-05 9.06913e-05 0)
(-5.27129e-05 7.53255e-05 0)
(-3.21431e-05 5.18306e-05 -3.16593e-23)
(-2.31722e-05 3.74175e-05 2.31196e-23)
(-1.81758e-05 2.14164e-05 -4.14319e-23)
(7.32767e-05 -1.3979e-05 -5.17073e-23)
(0.0001154 1.40678e-05 -5.24916e-23)
(0.000185842 6.3821e-05 0)
(0.000248966 0.000121185 0)
(0.000399713 0.000538691 1.38493e-22)
(0.000405851 0.000692495 -1.55327e-22)
(0.000458711 0.000501606 1.96466e-22)
(0.000301705 0.000729757 5.14106e-23)
(0.00036706 0.000208578 1.17583e-22)
(0.000442412 0.000324318 -2.05491e-22)
(0.000471999 0.000434328 1.55104e-22)
(4.30556e-05 -2.03124e-05 -9.59366e-24)
(3.69758e-05 -1.58246e-05 0)
(0.000193006 0.000782964 2.0351e-23)
(9.14536e-05 0.000855069 1.39957e-23)
(1.24507e-05 0.000725114 5.02653e-24)
(-4.49716e-05 0.000644929 2.47083e-23)
(-0.000161714 0.00026907 1.77646e-23)
(-0.000148576 0.000341234 0)
(-0.000148492 0.000495288 0)
(-0.000144057 0.000623087 0)
(-8.09522e-05 9.50545e-05 -5.06267e-23)
(-0.000125143 0.000153655 0)
(-5.84451e-05 7.02298e-05 -2.35104e-23)
(-4.41699e-05 6.45827e-05 2.40215e-23)
(-3.6096e-05 3.90618e-05 1.94991e-23)
(-2.97761e-05 2.94351e-07 0)
(8.58604e-05 -9.23533e-06 3.9286e-23)
(0.000138145 2.15757e-05 6.18491e-23)
(0.000163133 3.81442e-05 0)
(0.000223455 7.0624e-05 0)
(0.000303178 0.00013493 7.98184e-23)
(0.000471711 0.000668916 -1.50736e-22)
(0.00042746 0.000700839 6.36064e-23)
(0.000527928 0.000561362 -2.59927e-22)
(0.000370212 0.000844418 -6.20533e-23)
(0.00043126 0.000266148 1.5872e-22)
(0.000357728 0.000202059 -2.12141e-22)
(0.000520828 0.000388867 0)
(0.000534673 0.000437954 -2.0304e-22)
(0.000110645 -0.000181604 -9.05719e-24)
(7.7816e-05 -4.9658e-05 -1.60616e-23)
(0.000245712 0.000916774 -2.47347e-23)
(0.000123156 0.000950338 -2.00311e-23)
(4.41807e-05 0.000845233 -1.88769e-24)
(-3.8293e-05 0.000721069 -2.47e-23)
(-0.000216422 0.000328573 -3.04374e-23)
(-0.000147166 0.000215954 0)
(-0.000174185 0.000429315 6.60564e-23)
(-0.000190224 0.000499606 0)
(-0.000176841 0.000698519 -3.11962e-23)
(-9.48117e-05 8.61676e-05 0)
(-0.000137531 0.000122204 1.25924e-22)
(-6.63139e-05 6.67784e-05 2.30566e-23)
(-5.11583e-05 5.87014e-05 2.09627e-23)
(-2.50284e-05 3.55339e-05 0)
(-2.0915e-05 2.32403e-05 0)
(0.000118964 -5.617e-05 -3.74573e-23)
(0.000137793 -3.33345e-06 -7.99763e-24)
(0.000186755 3.19677e-05 5.9044e-23)
(0.000234824 7.01087e-05 0)
(0.000316912 9.71265e-05 1.93691e-22)
(0.000565515 0.000684156 0)
(0.000480885 0.000782233 0)
(0.000588879 0.000537211 0)
(0.000318209 0.000935199 0)
(0.000448667 0.000885817 0)
(0.000507223 0.00026244 1.18453e-22)
(0.000420536 0.00018349 -2.68852e-22)
(0.000568221 0.000378014 -1.77709e-22)
(0.00058903 0.000499971 2.27925e-22)
(7.18852e-06 -8.48423e-05 2.79971e-23)
(0.000181625 0.000980278 0)
(0.00010403 0.00111042 3.247e-23)
(-1.51269e-05 0.000900859 -7.63744e-24)
(-8.3037e-05 0.000821349 0)
(-0.000250953 0.00032844 0)
(-0.000250541 0.000437262 -6.12695e-23)
(-0.000200631 0.000212936 -5.12925e-23)
(-0.000236055 0.0005438 -8.14643e-23)
(-0.000240767 0.000715367 1.71528e-22)
(-0.000155183 0.000790629 0)
(-7.38246e-05 5.87554e-05 0)
(-0.000113208 9.14705e-05 -7.96232e-23)
(-0.000175163 0.000172339 0)
(-5.52871e-05 5.58523e-05 -2.09988e-23)
(-3.53337e-05 3.57361e-05 0)
(-4.35188e-05 -8.82231e-06 0)
(0.000128006 -4.63918e-05 7.66884e-23)
(0.000176225 2.8233e-05 -4.54749e-23)
(0.000134149 -2.14036e-05 -6.90421e-23)
(0.000275842 7.09835e-05 -4.79462e-23)
(0.000377675 0.000123435 -1.12345e-22)
(0.000571579 0.000678158 -1.41653e-22)
(0.000595743 0.000843502 -2.95458e-22)
(0.000669822 0.000635846 0)
(0.000369149 0.00110988 2.04421e-23)
(0.000499811 0.000991303 -8.71131e-24)
(0.000517686 0.000223343 3.22505e-24)
(0.000571046 0.000323395 -1.5282e-22)
(0.000459333 0.000180859 1.80541e-22)
(0.000657017 0.000398711 -1.55937e-22)
(0.000653861 0.000495181 2.06165e-23)
(6.02811e-05 2.59194e-05 2.70373e-23)
(0.00024085 0.00115997 0)
(0.000122854 0.00115568 -3.29494e-23)
(2.42611e-05 0.00109866 0)
(-5.37013e-05 0.000898602 1.05417e-24)
(-0.000326286 0.000420264 9.39954e-23)
(-0.000243371 0.000286247 4.27233e-23)
(-0.000276522 0.000465184 0)
(-0.000269923 0.000602977 -6.20684e-23)
(-0.000291295 0.000756 -4.68397e-23)
(-0.000216023 0.000899938 0)
(-7.37325e-05 5.34448e-05 2.49022e-23)
(-0.000105148 7.69853e-05 -7.494e-23)
(-0.000190068 0.000153997 -3.50629e-23)
(-5.43192e-05 4.8582e-05 0)
(-2.55834e-05 2.9772e-05 0)
(-2.16339e-05 1.93406e-05 0)
(8.66138e-05 -2.18624e-05 -3.11278e-23)
(0.000205846 1.49087e-05 3.09486e-23)
(0.000154881 -1.61364e-05 1.06186e-23)
(0.000260396 6.47674e-05 -1.70076e-23)
(0.000390525 8.52393e-05 0)
(0.000632743 0.000756759 2.6346e-22)
(0.000637697 0.00089839 2.5499e-22)
(0.000731484 0.00060203 -1.67518e-22)
(0.000302598 0.00117601 -2.27147e-23)
(0.000475046 0.00111743 8.59778e-24)
(0.000607989 0.00100367 0)
(0.000575014 0.00018393 -1.3281e-22)
(0.000639154 0.000288902 -9.15756e-24)
(0.000482884 0.000122876 -2.13429e-22)
(0.000717811 0.000410339 3.7139e-22)
(0.000700266 0.000546814 2.15952e-22)
(0.000114307 -0.000230306 -8.48685e-24)
(8.02372e-05 0.00125632 5.2812e-23)
(-8.65862e-05 0.00114394 2.45459e-23)
(-9.56232e-05 0.00099325 -2.60232e-23)
(-0.000375412 0.00045419 -2.62593e-22)
(-0.000285538 0.000284001 0)
(-0.000308013 0.000550392 0)
(-0.000326475 0.000700873 6.78516e-23)
(-0.000306393 0.0008754 8.39131e-23)
(-0.000257547 0.000928059 0)
(-0.000176682 0.000984611 2.19914e-23)
(-8.54102e-05 4.23659e-05 3.08736e-23)
(-6.14792e-05 4.03376e-05 2.17978e-23)
(-0.000133875 8.60183e-05 0)
(-0.000147163 0.000108641 0)
(-0.000247439 0.000199238 4.27758e-23)
(-4.09447e-05 2.36992e-05 3.85062e-23)
(-5.53413e-05 -2.87283e-05 2.41396e-23)
(6.61742e-05 -4.99883e-05 0)
(0.000169786 1.04125e-07 -2.76087e-23)
(0.000125094 -9.03061e-06 -4.33056e-23)
(0.000281442 4.7295e-05 9.29506e-23)
(0.000393632 5.77754e-05 1.04301e-22)
(0.000765217 0.000774136 5.49312e-23)
(0.000726009 0.000954635 -4.35386e-22)
(0.000791453 0.000635495 5.4649e-23)
(0.000323515 0.00129345 -1.16819e-22)
(0.000526518 0.00120679 9.50501e-23)
(0.000649334 0.00111048 0)
(0.000580486 0.000113112 1.33479e-22)
(0.000626283 0.000217264 5.96348e-22)
(0.000704841 0.000302633 0)
(0.000523157 9.75351e-05 1.62191e-22)
(0.000763488 0.000458431 0)
(0.000746833 0.000392515 -1.88549e-22)
(0.000101313 -5.89827e-05 9.29346e-24)
(0.000181254 0.00135738 -7.89936e-23)
(-3.76375e-07 0.00127507 -3.09104e-24)
(-9.07444e-05 0.00119779 -4.34759e-23)
(-0.00043216 0.000557511 2.36235e-22)
(-0.000381456 0.000426841 1.78215e-22)
(-0.000348892 0.000325064 -8.96577e-23)
(-0.000394718 0.000608961 -3.39792e-24)
(-0.000380117 0.000778493 2.03204e-22)
(-0.000427828 0.000870453 -2.14177e-22)
(-0.000336655 0.00100033 -1.26671e-22)
(-0.000203373 0.00116568 7.56974e-23)
(-7.3052e-05 3.92003e-05 0)
(-5.50868e-05 3.25157e-05 -6.11005e-23)
(-0.000108473 4.99763e-05 3.17227e-23)
(-0.000175229 9.78714e-05 5.23419e-24)
(-0.000268043 0.000227598 0)
(-2.78776e-05 2.33602e-05 0)
(-2.57708e-05 1.6024e-05 0)
(0.000178431 -2.29178e-06 1.25908e-23)
(0.000126645 -6.65097e-05 8.98772e-23)
(0.000259626 -2.35963e-06 1.14487e-22)
(0.000331575 1.11658e-05 -8.72957e-23)
(0.000441863 -4.26054e-05 1.21097e-22)
(0.000826931 0.00072497 1.96448e-22)
(0.000793961 0.000907036 3.56116e-22)
(0.000763234 0.00104075 1.04018e-22)
(0.000838088 0.000539809 -1.43321e-22)
(0.000399939 0.00136334 1.49853e-22)
(0.00049995 0.00132106 -1.26381e-22)
(0.000629224 0.00117367 0)
(0.000643783 9.28335e-05 -4.66018e-23)
(0.000676572 0.000178702 -6.47224e-22)
(0.000738627 0.000233273 -4.71504e-22)
(0.000546929 4.52543e-07 0)
(0.000812172 0.000473207 3.08029e-24)
(0.000795442 0.000366446 1.48553e-22)
(0.000145939 -0.000243245 1.50484e-23)
(0.000180908 0.00156307 1.04492e-22)
(-6.28975e-05 0.00121854 2.95422e-23)
(9.91032e-06 0.00150084 0)
(-0.000514303 0.000578933 1.05589e-22)
(-0.000465887 0.000440819 -1.60768e-22)
(-0.000360268 0.000282773 0)
(-0.000439091 0.000733845 -2.44251e-22)
(-0.00047434 0.000924885 -8.49342e-23)
(-0.000420006 0.00104694 1.58811e-22)
(-0.000318712 0.00120446 -9.30734e-23)
(-8.34384e-05 2.73701e-05 0)
(-6.26725e-05 2.68876e-05 0)
(-0.000113478 5.27181e-05 -3.06401e-23)
(-0.000194435 0.000111041 7.25213e-23)
(-0.000296063 0.000230705 0)
(-0.000274175 0.000146121 -2.29709e-22)
(-4.4409e-05 7.79293e-06 0)
(-6.86643e-05 -5.21751e-05 -2.1167e-23)
(0.00016583 -6.24776e-05 -8.63153e-23)
(0.000219055 -2.14362e-05 -7.27034e-23)
(0.00013362 -6.7178e-05 -2.86553e-23)
(0.000268276 -5.35837e-05 3.55462e-23)
(0.000324559 -3.65214e-05 -1.89967e-22)
(0.000411885 -4.57647e-05 -2.19146e-22)
(0.000911341 0.000745361 -3.06009e-22)
(0.000909016 0.000918998 -3.23037e-23)
(0.000855512 0.00112614 0)
(0.000962013 0.000502254 1.77332e-22)
(0.000385247 0.00148534 -7.47028e-23)
(0.000604107 0.00140264 1.99535e-23)
(0.00073393 0.0012245 -1.1283e-22)
(0.000613261 -1.6066e-05 3.94177e-23)
(0.000676402 0.00012106 1.38642e-22)
(0.000742169 0.000206758 3.44058e-22)
(0.00082432 0.000277292 3.1843e-22)
(0.000598312 -2.13134e-05 0)
(0.000864013 0.000400231 2.23421e-23)
(7.2315e-05 0.00161803 -7.94191e-24)
(0.000316536 0.00160046 -1.08429e-22)
(-0.000148236 0.00131018 0)
(-0.000173756 0.00150538 1.52726e-23)
(-0.000548952 0.00073452 3.10401e-22)
(-0.000537807 0.000555952 -2.50838e-22)
(-0.000471996 0.000343505 9.64312e-25)
(-0.000509033 0.000492602 1.7651e-22)
(-0.00050818 0.000749315 -1.04038e-22)
(-0.000458852 0.000992324 1.4708e-22)
(-0.000564041 0.000858588 0)
(-0.000479005 0.00123724 -4.35991e-23)
(-0.000323693 0.00123976 1.50614e-22)
(-6.57894e-05 1.74084e-05 0)
(-6.07203e-05 1.15333e-05 0)
(-0.00010973 4.57627e-05 0)
(-0.000183504 9.73065e-05 7.461e-24)
(-0.000312013 0.000244123 -2.81942e-22)
(-2.55584e-05 6.0889e-06 -3.25782e-23)
(-2.96998e-05 1.20701e-05 1.4844e-23)
(0.000178628 -8.96281e-05 4.00797e-23)
(0.000216168 -3.15268e-05 0)
(0.00017531 -0.00026953 1.35748e-23)
(0.000268117 -6.32966e-05 -9.06424e-23)
(0.000355621 -6.50384e-05 2.1169e-22)
(0.00045917 -0.000153637 -4.31754e-23)
(0.000954529 0.000833382 -5.07382e-22)
(0.00100082 0.00067803 2.47922e-22)
(0.000970735 0.00106669 5.43354e-23)
(0.000815474 0.00117237 2.68557e-22)
(0.00100455 0.000463717 6.04518e-23)
(0.00048507 0.00161328 -3.4554e-24)
(0.000623273 0.00155921 -2.61244e-23)
(0.000726732 0.00138558 1.13332e-22)
(0.000728179 2.61663e-05 1.09578e-22)
(0.000645802 -4.30665e-05 0)
(0.000716077 8.85785e-05 1.03483e-23)
(0.000791228 0.000167674 -1.4715e-22)
(0.000859409 0.000196293 -5.03136e-22)
(0.000562222 -0.000118765 0)
(0.000909007 0.000369949 -2.48616e-22)
(2.10775e-05 0.00172873 -5.74938e-24)
(0.000318191 0.00180435 -1.50116e-22)
(-0.000266614 0.00131225 -1.05161e-22)
(-0.000240782 0.00163109 -4.24115e-23)
(-0.000629403 0.000687551 -6.79355e-23)
(-0.000610749 0.00064338 0)
(-0.000505712 0.00036998 -2.58143e-22)
(-0.000567177 0.00049671 -1.57355e-22)
(-0.00056319 0.00110953 0)
(-0.000666476 0.000883168 -1.94502e-22)
(-0.000542871 0.0012411 1.02765e-22)
(-7.22799e-05 9.63846e-06 -5.51086e-24)
(-8.65096e-05 8.27935e-06 6.21243e-24)
(-0.000140213 4.32264e-05 8.43238e-24)
(-0.000221501 0.000101152 0)
(-0.000352536 0.000240622 1.48633e-22)
(-3.76406e-05 1.6306e-05 3.01224e-23)
(-8.2484e-05 -9.04582e-05 -1.38532e-23)
(0.000198105 -0.000109824 -3.41948e-23)
(0.000226126 -4.69152e-05 -4.28486e-23)
(0.000212835 -6.66752e-05 -1.33622e-23)
(0.00027078 -9.75145e-05 3.8465e-23)
(0.000323554 -0.00013027 -1.12811e-22)
(0.000535046 -0.000138269 -1.18403e-22)
(0.000392122 -0.000215176 8.02271e-23)
(0.00108575 0.000845381 2.92331e-22)
(0.00106756 0.000682069 -1.42334e-22)
(0.00105111 0.00106177 0)
(0.000959403 0.00131995 -2.98376e-22)
(0.00100515 0.000420703 3.44004e-22)
(0.00113873 0.000564136 -6.80305e-23)
(0.000503071 0.00181902 9.8847e-23)
(0.000744416 0.00170872 2.96524e-23)
(0.00083754 0.00144968 -3.131e-22)
(0.000777812 1.25605e-05 0)
(0.000680597 -6.43809e-05 0)
(0.000780419 7.92015e-05 3.34969e-22)
(0.000846097 0.0002094 3.01389e-22)
(0.000922379 0.000256461 3.10706e-22)
(8.63608e-05 0.00186008 4.56047e-23)
(-0.000152339 0.00173481 7.15005e-23)
(0.000225422 0.00187273 9.40692e-23)
(-0.000361651 0.00137253 1.09056e-22)
(-0.000405453 0.00161872 5.32791e-23)
(-0.000700764 0.000747131 0)
(-0.000692164 0.000573982 1.78079e-22)
(-0.000504181 0.000330445 2.40514e-22)
(-0.000559142 0.000426526 0)
(-0.000620249 0.000519189 1.85708e-22)
(-0.000664158 0.0011049 0)
(-0.000697191 0.00103023 0)
(-0.000697525 0.000815836 2.07993e-22)
(-0.000572707 0.00132464 -1.54293e-22)
(-5.02827e-05 8.98543e-06 0)
(-8.40793e-05 4.00018e-06 0)
(-0.000123127 3.21857e-05 8.36049e-24)
(-0.000283989 0.000121871 2.4241e-23)
(-0.000188133 6.36981e-05 -6.47871e-23)
(-0.00041553 0.000231577 6.98943e-23)
(-2.83571e-05 -1.14362e-05 0)
(0.000214947 -0.000108065 0)
(0.000219643 -6.68107e-05 0)
(0.000238138 -0.000389532 1.52325e-23)
(0.000288457 -0.00016565 -6.20951e-23)
(0.000218008 -0.000117805 -6.77343e-23)
(0.000299881 -0.0001764 4.89011e-23)
(0.000585861 -0.000249222 0)
(0.000391638 -0.000254868 5.64912e-23)
(0.00113518 0.000976703 4.69595e-23)
(0.00112992 0.000691672 1.72894e-22)
(0.00112188 0.00121123 -4.33951e-23)
(0.00109136 0.0013194 0)
(0.0010792 0.000368656 -5.71319e-22)
(0.00122304 0.000507222 -1.60983e-22)
(0.000581325 0.00187781 0)
(0.000720773 0.00179818 0)
(0.000912276 0.00162841 2.76628e-22)
(0.000727534 -1.74713e-05 0)
(0.000779827 6.61201e-06 2.12468e-22)
(0.000753957 -0.000125416 2.02486e-22)
(0.000825714 7.90094e-05 -4.69015e-22)
(0.000862547 0.000119189 -2.95529e-22)
(0.00099888 0.000194838 -4.37304e-22)
(-3.47157e-05 0.00194673 -2.25751e-23)
(-0.000254535 0.00185902 -2.69338e-23)
(0.000281332 0.00203555 5.66732e-23)
(-0.000467705 0.00137209 -4.25721e-23)
(-0.000486342 0.00166136 -5.55826e-23)
(-0.000776305 0.00064466 0)
(-0.000750642 0.000604815 -1.70391e-22)
(-0.000596984 0.000327199 0)
(-0.000476518 0.000284239 0)
(-0.000609574 0.000429929 0)
(-0.000672898 0.000473553 -2.30671e-22)
(-0.000723454 0.00121424 0)
(-0.000802664 0.000965657 -4.84913e-23)
(-0.000815898 0.000865425 4.21479e-23)
(-0.000678989 0.00129767 1.69704e-22)
(-4.45432e-05 -2.15624e-05 0)
(-0.000100415 4.60956e-06 6.00601e-23)
(-0.000152496 2.38399e-05 0)
(-0.000306173 0.000129735 8.57794e-23)
(-0.000203736 6.05977e-05 1.26059e-22)
(-0.000383162 0.000201955 0)
(-7.71452e-05 -9.29301e-05 0)
(0.000243503 -0.000131453 0)
(0.000289786 -9.70784e-05 0)
(0.000244616 -0.000215706 7.29394e-23)
(0.000218656 -0.000118893 7.07461e-23)
(0.000308642 -0.00027019 5.11046e-23)
(0.000499204 -0.000329728 -1.05503e-22)
(0.000685173 -0.000237302 -1.97479e-22)
(0.000430141 -0.000343003 0)
(0.00123978 0.000936206 -2.19532e-22)
(0.00130117 0.000778154 -4.84639e-23)
(0.00129586 0.00118353 -4.88216e-22)
(0.00121877 0.00149251 2.75836e-23)
(0.00117082 0.000376697 8.39109e-23)
(0.00106939 0.000251871 0)
(0.00132436 0.000568552 -4.21705e-22)
(0.00054866 0.00204664 1.56242e-22)
(0.000839257 0.00184976 6.3925e-23)
(0.00105463 0.00162963 1.69685e-22)
(0.000765073 -0.000117259 1.95402e-22)
(0.000742911 -8.67659e-05 0)
(0.000843144 4.71114e-05 2.22104e-22)
(0.000796461 -4.97446e-06 -3.03842e-22)
(0.000887355 9.00276e-05 -3.31626e-22)
(0.000985149 0.000133827 6.34106e-23)
(2.15794e-05 0.0021357 -3.10858e-24)
(-0.00016666 0.00195882 -2.3077e-23)
(-0.000414979 0.00184658 -7.58417e-23)
(0.000428267 0.00210532 0)
(0.000122012 0.00217104 -7.029e-23)
(-0.000542844 0.00156389 -1.87332e-22)
(-0.000524416 0.00175672 1.63869e-22)
(-0.000916759 0.000666025 -1.25606e-22)
(-0.000801896 0.000576062 1.22455e-22)
(-0.000628946 0.000401211 1.68515e-22)
(-0.000626158 0.000273555 1.17721e-22)
(-0.000546102 0.000234707 -1.25315e-22)
(-0.000737454 0.000461903 5.03449e-22)
(-0.000840218 0.00117884 0)
(-0.000887791 0.00106311 -1.07943e-22)
(-0.000919706 0.000812256 1.80749e-22)
(-0.000767431 0.00138505 -1.97853e-22)
(-2.90569e-05 -1.95709e-05 3.03857e-23)
(-0.000103561 -3.00814e-05 0)
(-0.000117647 6.70289e-07 0)
(-0.000305642 0.000108171 3.90892e-23)
(-0.000259994 6.18397e-05 -1.43806e-22)
(-0.000164979 1.27596e-05 1.17086e-22)
(-0.000436511 0.000185639 0)
(-4.6121e-05 -1.70712e-05 0)
(0.000237112 -0.000137384 -2.44218e-23)
(0.00037128 -0.000433786 -1.51195e-23)
(0.000236392 -0.000288821 2.73447e-23)
(0.000217596 -0.00019055 6.58059e-23)
(0.000281471 -0.00030899 -3.27627e-23)
(0.000577985 -0.000449214 1.12292e-22)
(0.000773296 -0.000308572 0)
(0.000354952 -0.000416486 0)
(0.00133505 0.00099611 4.67662e-22)
(0.00140006 0.000698351 8.58912e-22)
(0.00143797 0.00141306 2.58834e-22)
(0.00136016 0.00148968 -2.43949e-22)
(0.00125466 0.000279217 2.38024e-22)
(0.00114136 0.000160965 1.83565e-22)
(0.00142716 0.000455148 1.32234e-22)
(0.000717186 0.00206487 -2.5234e-22)
(0.000962978 0.00195305 0)
(0.00109278 0.00182518 -1.90569e-22)
(0.000765238 -0.00013969 -2.33276e-22)
(0.00081624 -5.49024e-05 0)
(0.000801331 -0.00012417 1.87774e-22)
(0.000836342 2.5143e-05 0)
(0.000762716 -1.0787e-05 1.93862e-22)
(0.000861436 2.34414e-05 0)
(0.0010123 5.96478e-05 8.54863e-22)
(-0.000135688 0.00215236 -1.1264e-23)
(-0.000247007 0.00213646 4.60383e-24)
(-0.000500773 0.00198245 9.08457e-23)
(0.000458081 0.00225752 -6.0997e-23)
(0.000131756 0.00238383 4.5249e-24)
(-0.000732203 0.00153112 1.82854e-22)
(-0.000639332 0.00184274 -2.11087e-22)
(-0.000989699 0.00061478 -6.30046e-24)
(-0.000867071 0.000453357 6.29378e-22)
(-0.000669988 0.000365085 -1.84048e-22)
(-0.000607158 0.000259421 -1.95869e-22)
(-0.000690172 0.000314944 -1.48808e-23)
(-0.000485784 0.000211045 1.29313e-22)
(-0.000750984 0.00035961 -2.16846e-22)
(-0.000956708 0.00128832 0)
(-0.00098315 0.00100053 -1.34785e-22)
(-0.00100438 0.000918404 -1.14251e-22)
(-0.00086362 0.00140992 0)
(-5.92621e-05 -2.67065e-05 -6.5191e-23)
(-8.73741e-05 -3.18155e-05 1.69208e-23)
(-0.000124977 4.09222e-06 -5.14639e-23)
(-0.000367495 9.72711e-05 -5.84257e-24)
(-0.00025479 3.60116e-05 -3.31259e-23)
(-0.000171271 4.38566e-06 1.45515e-23)
(-0.000420064 0.000126425 8.43185e-23)
(-8.04795e-05 -0.00015919 -8.32784e-24)
(0.000256694 -0.000163124 2.20803e-23)
(0.000350047 -0.000137795 2.48284e-23)
(0.000178745 -0.000297017 -5.51468e-23)
(0.000199161 -0.000220007 0)
(0.00029663 -0.000390392 0)
(0.000514006 -0.000553027 0)
(0.000691413 -0.000404443 1.39318e-22)
(0.00081447 -0.000296571 4.51285e-22)
(0.000366889 -0.000547674 0)
(0.00153821 0.00101451 -7.86541e-23)
(0.00155151 0.000772298 -5.5413e-22)
(0.00163797 0.00128894 -6.13332e-22)
(0.00139622 0.00158401 3.3967e-22)
(0.00140063 0.000335725 -6.55625e-22)
(0.00122897 0.000184852 -4.85788e-22)
(0.00110624 7.13005e-05 -7.41888e-22)
(0.00158151 0.000524775 4.40625e-22)
(0.000800433 0.00218282 -2.46319e-22)
(0.000982357 0.00205174 1.68545e-22)
(0.00128603 0.00185847 0)
(0.000788797 -0.000181543 -3.97668e-22)
(0.000786176 -5.77153e-05 8.34272e-23)
(0.000809738 -8.44844e-05 -1.30309e-22)
(0.000827076 -8.82111e-06 0)
(0.000797572 -4.98977e-05 -1.88605e-22)
(0.000899501 -7.94383e-06 -5.35787e-22)
(0.00095022 -1.62553e-05 2.8487e-22)
(-0.000166248 0.00244112 0)
(-0.00042896 0.00211939 -8.59206e-23)
(-0.000668597 0.0019338 1.229e-22)
(0.000593731 0.00241488 1.04606e-22)
(0.000303852 0.00244149 -4.42944e-23)
(-1.32975e-05 0.00250375 0)
(-0.000795714 0.00177701 0)
(-0.00110592 0.000730322 0)
(-0.000992288 0.000586854 0)
(-0.000942618 0.000452953 -7.12849e-22)
(-0.000818497 0.000383624 -2.47609e-22)
(-0.000637884 0.00022765 7.59778e-23)
(-0.000754996 0.000296758 1.77702e-22)
(-0.000546987 0.000142232 1.49868e-23)
(-0.00109859 0.00121028 0)
(-0.00110629 0.00108108 2.95896e-22)
(-0.00110914 0.000797131 1.25611e-22)
(-0.000962283 0.00149266 2.00252e-22)
(-1.60004e-05 -0.000105212 2.53028e-23)
(-5.77855e-05 -2.45031e-05 0)
(-9.39747e-05 -2.00382e-05 -4.94259e-23)
(-0.000360268 5.6984e-05 -8.5933e-23)
(-0.000211323 -6.33464e-06 -8.26903e-23)
(-0.000304067 2.36242e-05 -2.23674e-23)
(-0.000136666 -2.3426e-05 -1.21551e-23)
(-0.000460875 8.88293e-05 -1.40687e-23)
(0.000414399 -0.000438504 -6.84695e-24)
(0.000216531 -0.000311663 -3.91404e-23)
(0.000196983 -0.000369124 -1.87364e-23)
(0.000219174 -0.000256621 0)
(0.000246794 -0.000432905 -2.57805e-23)
(0.000546343 -0.000703464 -7.56988e-23)
(0.000806707 -0.000571117 -2.30187e-22)
(0.000932208 -0.000351902 6.88562e-24)
(0.000287429 -0.000602829 0)
(0.00162722 0.000888273 0)
(0.00164515 0.000660892 0)
(0.00177472 0.00131319 7.67655e-22)
(0.00166915 0.0016651 0)
(0.00150613 0.00026199 8.88155e-22)
(0.00133388 0.000109977 -1.67514e-22)
(0.00116465 1.02162e-05 1.50671e-21)
(0.0016781 0.000266768 -2.85682e-22)
(0.000768097 0.00239779 0)
(0.00115578 0.0022883 0)
(0.00135805 0.00205346 0)
(0.000862501 -0.000165591 0)
(0.000843749 -5.20921e-05 -1.88044e-22)
(0.000897373 -0.000113615 1.15633e-22)
(0.000797472 -8.68656e-05 -4.57419e-22)
(0.000771067 -4.80595e-05 0)
(0.000871821 -9.79975e-05 4.79481e-22)
(0.000995845 -0.000104204 1.81067e-22)
(-0.000377986 0.00241847 0)
(-0.000521852 0.00230079 6.64885e-23)
(-0.00078753 0.00209018 0)
(0.000548849 0.00256004 3.59505e-23)
(0.000324099 0.00263654 8.81635e-23)
(-4.97947e-05 0.00275042 -8.40359e-24)
(-0.00103608 0.00175411 0)