/*--------------------------------*- C++ -*----------------------------------*\
| =========                 |                                                 |
| \\      /  F ield         | OpenFOAM: The Open Source CFD Toolbox           |
|  \\    /   O peration     | Version:  v2012                                 |
|   \\  /    A nd           | Website:  www.openfoam.com                      |
|    \\/     M anipulation  |                                                 |
\*---------------------------------------------------------------------------*/
FoamFile
{
    version     2.0;
    format      ascii;
    class       volScalarField;
    location    "7";
    object      p;
}
// * * * * * * * * * * * * * * * * * * * * * * * * * * * * * * * * * * * * * //

dimensions      [0 2 -2 0 0 0 0];


internalField   nonuniform List<scalar> 
11941
(
-0.00175632
-0.00141232
-0.00203304
-0.00139764
-0.00106299
-0.00199583
-0.00238749
-0.00108409
-0.00173087
-0.000743868
-0.00230328
-0.0025335
-0.00106499
-0.000764065
-0.00178538
-0.000398022
-0.00249213
-0.00279786
-0.00137432
-0.000639775
-0.00050594
-0.00212226
-7.42773e-05
-0.00280354
-0.00247602
-0.00309644
-0.00137531
-0.000440967
-0.000129553
-0.00200032
0.000279136
-0.00305557
-0.00290847
-0.00333514
-0.00107868
-0.000634322
-9.96911e-06
0.000127199
-0.00218088
0.000610011
-0.00320747
-0.00315664
-0.00304269
-0.00375339
-0.00120798
-0.000246452
0.000351966
0.000469096
-0.00254902
-0.00167488
0.000929505
0.000653262
-0.00342387
-0.00355076
-0.00284305
-0.00354714
-0.00423752
-0.000898013
-0.00036132
0.000352445
0.00069349
-0.00240916
-0.0017912
0.00120283
0.00109279
-0.00363473
-0.00380357
-0.00322119
-0.00381453
-0.0037173
-0.00397504
-0.00114651
3.1037e-05
0.000721035
0.00102021
-0.00271103
-0.00168313
0.00156775
0.00125009
-0.00404902
-0.00414065
-0.00331705
-0.00428125
-0.00430643
-0.00418112
-0.00078554
0.000617961
-0.000122775
0.00119576
0.00125654
-0.00213507
0.00187437
0.00159526
-0.00416032
-0.00438178
-0.00384837
-0.00460301
-0.00458498
-0.00476244
-0.00111125
0.000917908
0.000422181
0.0018021
0.00167792
-0.00215104
0.00219275
0.00187056
-0.00441502
-0.00474183
-0.00385753
-0.00509559
-0.00522537
-0.00453631
-0.000754448
0.00146549
0.000527088
0.00190224
0.00217759
0.00201906
-0.00260667
0.00247818
0.0022062
-0.00412442
-0.00482638
-0.00508596
-0.00464179
-0.00324703
-0.00540906
-0.00542672
-0.00553336
-0.00547768
-0.00134852
5.94579e-05
0.00174192
0.00146622
0.00245172
0.00263616
0.00226936
-0.00217306
0.00243727
0.0028394
-0.00441924
-0.00509013
-0.00550525
-0.00545372
-0.00443717
-0.00353192
-0.00599141
-0.00608734
-0.00647698
-0.00479232
-0.0008525
0.00060163
0.00243697
0.00172495
0.00284028
0.00289117
0.00281173
0.00266007
-0.00289462
0.00276375
0.00301611
-0.00499472
-0.00522793
-0.00541965
-0.00601921
-0.0062122
-0.00494973
-0.00662418
-0.00712372
-0.00457174
-0.00137739
0.000415649
0.00299437
0.00239226
0.00363456
0.00344377
0.00323795
0.0028881
-0.00316188
0.00321738
-0.00515058
-0.00524087
-0.00585746
-0.00648233
-0.00580439
-0.00715178
-0.00454312
-0.00734663
-0.00768659
-0.00735375
-0.00602155
-0.00470986
-0.000549836
-0.00251688
0.00108508
0.00392244
0.00301793
0.00243744
0.00387019
0.00354417
0.00331407
0.00315618
0.00333058
0.00334316
-0.00504465
-0.00556398
-0.00625671
-0.00702831
-0.0063929
-0.00779928
-0.0052464
-0.00758787
-0.00846324
-0.00831996
-0.00654757
-0.00453337
-0.00103109
0.000569981
-0.00310099
0.00186897
0.00451168
0.00383803
0.00346328
0.00442542
0.00394178
0.00363097
0.00330271
0.00358475
0.00364534
-0.00523647
-0.0056762
-0.00644117
-0.00720054
-0.00741066
-0.0063732
-0.00876775
-0.00458518
-0.00846903
-0.00918559
-0.00907878
-0.00462827
-0.00398945
-0.00228716
-0.000159195
0.00126281
0.00249649
0.00500902
0.00443709
0.0040355
0.00378724
0.00429677
0.00488142
0.00390886
0.00363725
0.00384288
0.00400274
-0.00558881
-0.00589039
-0.00622755
-0.00682809
-0.00777061
-0.00839941
-0.00735772
-0.00945763
-0.00535616
-0.00921971
-0.00833928
-0.0101236
-0.0100306
-0.00710818
-0.00463473
-0.00282057
-0.000419605
0.000942948
0.00240125
0.00573527
0.00506216
0.00515084
0.00512697
0.00463269
0.00461141
0.00524683
0.00417922
0.00390489
0.00395299
0.00405299
-0.00557164
-0.00576713
-0.00644271
-0.00687978
-0.00771433
-0.00960847
-0.00786921
-0.010474
-0.00421522
-0.00676702
-0.0101083
-0.00889709
-0.0110263
-0.0108292
-0.00463303
-0.00164919
0.000710549
0.00192522
0.00323055
0.00652997
0.00583166
0.00590445
0.00565156
0.00536851
0.00448069
0.00448347
0.00504004
0.00577711
0.00412821
0.00417544
0.00454122
-0.00560882
-0.00622074
-0.00554325
-0.00728612
-0.00811698
-0.0104734
-0.00964416
-0.0116438
-0.00465042
-0.00729304
-0.0101219
-0.0110297
-0.00947586
-0.0120092
-0.011766
-0.00487077
-0.00182755
0.000570585
0.00182557
0.00290384
0.00724338
0.00653602
0.0066826
0.00647273
0.00634959
0.00543399
0.00467441
0.00527458
0.00623725
0.00431922
0.00425432
0.00440602
-0.00519237
-0.00641379
-0.00570445
-0.0069401
-0.0083118
-0.0109177
-0.0100247
-0.0130931
-0.00300044
-0.00630576
-0.00895825
-0.0109497
-0.0121032
-0.00933087
-0.0131453
-0.0127439
-0.00680506
0.0012673
0.00323167
0.0036255
0.00807016
0.00712773
0.00708941
0.00705884
0.00683602
0.00653237
0.00485694
0.004996
0.00457049
0.00564991
0.00594618
0.00686992
0.00454475
0.00500065
-0.004806
-0.00598896
-0.00514037
-0.00705161
-0.00806687
-0.0128847
-0.0116916
-0.0141272
-0.00295577
-0.00682707
-0.00959166
-0.0107281
-0.0119485
-0.0131028
-0.00986226
-0.0138186
-0.0136707
-0.0049791
-0.000387154
0.00280141
0.00397914
0.00871986
0.00828661
0.00784992
0.00815173
0.00809494
0.00851725
0.00729674
0.00565287
0.00499698
0.00471588
0.00550603
0.00622961
0.00709972
0.0045034
0.00471517
-0.0059031
-0.00491724
-0.00649416
-0.0075519
-0.00853672
-0.014314
-0.0131613
-0.0117685
-0.0156121
-0.00434526
-0.00605726
-0.00911814
-0.0112013
-0.0127718
-0.0138955
-0.00954167
-0.0151951
-0.0150103
-0.00704731
0.000253274
0.00404394
0.00329584
0.00965399
0.00912413
0.00830072
0.0087848
0.00959119
0.00853848
0.00685045
0.00525925
0.00488789
0.00576135
0.00676049
0.00784094
0.00706168
0.00476646
0.00547411
-0.00539932
-0.00613295
-0.0045355
-0.00656111
-0.00725631
-0.00786874
-0.0161894
-0.014804
-0.0137236
-0.0172372
-0.00334925
-0.00779778
-0.0104886
-0.0107589
-0.012464
-0.0138765
-0.0154767
-0.0100251
-0.0162289
0.00248997
-0.00111563
0.00601477
0.00600973
0.0102673
0.0100095
0.00896344
0.00985497
0.00991003
0.00968699
0.0106957
0.0089936
0.00755383
0.00522828
0.00503056
0.00573323
0.00653832
0.00764388
0.00456771
0.00501001
-0.00538416
-0.00582906
-0.00702672
-0.00617801
-0.00744035
-0.00798374
-0.0163446
-0.0175918
-0.0155589
-0.0127317
-0.0185149
-0.00480305
-0.00719253
-0.00992872
-0.0125236
-0.0102506
-0.0131195
-0.0147536
-0.0165463
-0.00926315
-0.0178211
0.00399507
-0.000549442
0.00769635
0.00752198
0.0115245
0.0111324
0.00942596
0.0103789
0.0109775
0.0119547
0.010648
0.00535396
0.00548397
0.00604643
0.00687515
0.00795751
0.00468357
0.00599627
-0.00486124
-0.00592496
-0.00458235
-0.00613256
-0.00702617
-0.00836553
-0.00732035
-0.0182851
-0.0196591
-0.0173665
-0.0143211
-0.0190861
-0.020786
-0.00372498
-0.00900953
-0.0115834
-0.0127324
-0.0103529
-0.0141874
-0.0162444
-0.0179944
0.0032838
0.00710925
0.00123583
0.00933446
0.00921802
0.0125439
0.0119219
0.00960212
0.0101962
0.0112677
0.0122161
0.012422
0.0126006
0.0115083
0.00497546
0.0054944
0.00583318
0.00732433
0.00640112
0.0087411
0.00513741
-0.005092
-0.00551448
-0.00845747
-0.00627233
-0.00568483
-0.00656717
-0.00823887
-0.00701031
-0.0189485
-0.0202389
-0.0181764
-0.0165742
-0.0209681
-0.0228124
-0.00468994
-0.00800908
-0.0119446
-0.0117747
-0.0138445
-0.0103212
-0.0150746
-0.0168778
-0.0195541
0.00584194
0.00903681
0.000827058
0.0108017
0.0112625
0.013714
0.0130827
0.0105715
0.00933033
0.0110029
0.0118301
0.0134545
0.0141043
0.0140454
0.0131735
0.00492935
0.00568492
0.00600989
0.00745336
0.00641291
0.00817283
0.00593103
-0.0048421
-0.00477976
-0.00576468
-0.00542531
-0.00647018
-0.00744054
-0.00864527
-0.00703995
-0.0215494
-0.0230074
-0.0209054
-0.0173728
-0.0230025
-0.0213158
-0.024551
-0.00335126
-0.00965499
-0.0144366
-0.010964
-0.012197
-0.01503
-0.0141596
-0.0179706
-0.0194825
0.00576297
0.00813416
0.0110654
-0.00148448
0.00426648
0.012322
0.0121218
0.0151566
0.0135915
0.0111903
0.0109247
0.00971688
0.0126566
0.0152041
0.0154005
0.0152538
0.0145773
0.00455734
0.00562805
0.00563782
0.00724717
0.00678247
0.00596152
0.00852863
0.00521842
-0.00499985
-0.0098475
-0.00579403
-0.00548529
-0.00606308
-0.00715174
-0.00830265
-0.00621358
-0.0228698
-0.0252425
-0.0228736
-0.0207042
-0.0251546
-0.0232571
-0.0268203
-0.00620424
-0.0121498
-0.0146778
-0.0103083
-0.013194
-0.0114628
-0.016563
-0.0151399
-0.0180924
-0.0212863
0.00926152
0.0102184
0.0129419
-0.000663797
0.00520948
0.0144077
0.0149931
0.0159688
0.014621
0.0120528
0.0105757
0.012005
0.00914932
0.0128017
0.0166523
0.0168075
0.0166592
0.0162613
0.00466772
0.00530577
0.00563699
0.00755992
0.0064909
0.00583277
0.00818068
0.00643131
-0.00471794
-0.00499446
-0.00546684
-0.00490719
-0.00605864
-0.00615335
-0.00751868
-0.008722
-0.0059446
-0.0258134
-0.0276889
-0.0265914
-0.0216047
-0.0271883
-0.0252751
-0.0232646
-0.0293201
-0.00671922
-0.0115336
-0.0176864
-0.0095008
-0.0133089
-0.0114156
-0.0165401
-0.0148868
-0.0195032
-0.0212705
0.0108849
0.0127561
0.016375
-0.00280578
0.00280126
0.00878478
0.0162136
0.0171758
0.0158603
0.0155011
0.013737
0.010866
0.0124898
0.00934657
0.0184202
0.0182857
0.0178598
0.0176078
0.00496544
0.00493065
0.00530398
0.00727613
0.0060434
0.00674774
0.00542488
0.00847255
-0.00935886
-0.00554921
-0.00536149
-0.00467365
-0.0056258
-0.00580267
-0.0070737
-0.00807786
-0.00538097
-0.0281274
-0.0302968
-0.0292169
-0.0254456
-0.0296159
-0.0271892
-0.0252661
-0.0319131
-0.00563793
-0.0133642
-0.0179874
-0.00979064
-0.0124742
-0.0105732
-0.0175969
-0.0152698
-0.0192154
-0.0229843
0.014314
0.0147416
0.0183476
-0.000408514
0.00364446
0.0100293
0.0181529
0.0183654
0.0173219
0.0160165
0.0140805
0.0102526
0.011517
0.0133909
0.0121102
0.00974234
0.020103
0.019903
0.0195634
0.0195333
0.00497829
0.00497042
0.00525759
0.00753742
0.00573845
0.00645312
0.00538163
0.00817431
-0.0049718
-0.00515202
-0.00506664
-0.00537776
-0.00520418
-0.00622378
-0.00719846
-0.00886438
-0.00506398
-0.0316238
-0.0335761
-0.0327854
-0.0301853
-0.0220898
-0.028539
-0.0319793
-0.0295433
-0.0271448
-0.0251996
-0.0359304
-0.0075112
-0.0163753
-0.0127258
-0.0103991
-0.0171591
-0.014135
-0.0207664
-0.0228216
0.0164021
0.0174183
0.020192
-0.00119388
0.0065951
0.0132747
0.0200397
0.0196769
0.017677
0.0158335
0.0149555
0.0106287
0.0115158
0.0137646
0.0129241
0.0094765
0.0216893
0.0218097
0.0206898
0.0214928
0.00631671
0.00454739
0.00468993
0.00715604
0.00554124
0.00584309
0.00665848
0.00474249
0.00845747
-0.00530171
-0.00453372
-0.00511174
-0.00495084
-0.00503747
-0.00485796
-0.00580828
-0.00683277
-0.0084065
-0.00473428
-0.0350868
-0.0368022
-0.0356576
-0.0245032
-0.0299791
-0.0342067
-0.0322415
-0.0292548
-0.027026
-0.0393836
-0.00769998
-0.0173843
-0.0117506
-0.00932631
-0.0177992
-0.0142865
-0.0203811
-0.0241333
0.0195386
0.0158236
0.0194756
0.022445
0.0210872
-0.00412734
0.00276506
0.00675808
0.0136664
0.0202929
0.0187564
0.0168849
0.0148725
0.0101533
0.0119237
0.0129888
0.00904122
0.0234097
0.0233459
0.0222553
0.0238436
0.00475976
0.00422844
0.00734798
0.00555272
0.00551056
0.00628521
0.00398366
0.00424504
0.00800263
-0.00827477
-0.00383434
-0.00506606
-0.00463626
-0.0043862
-0.00507852
-0.00422865
-0.00613783
-0.0066809
-0.00723311
-0.00431775
-0.0398559
-0.0396125
-0.0385219
-0.0382541
-0.0289533
-0.021972
-0.0344517
-0.0377462
-0.032572
-0.0290097
-0.0267399
-0.0422176
-0.0112711
-0.0146713
-0.0116223
-0.00902669
-0.0190426
-0.0162422
-0.013055
-0.0228425
0.0225656
0.0192677
0.0222402
0.0252883
0.0240346
-0.0030801
0.00237813
0.0103932
0.0181642
0.0223338
0.0200273
0.018212
0.0164975
0.0153244
0.0101993
0.0114285
0.0135736
0.00925305
0.0251083
0.0234639
0.0253559
0.0254528
0.00698934
0.00477173
0.00689931
0.00584341
0.0060213
0.00512661
0.00633527
0.00388493
0.00455249
0.00816397
-0.00495822
-0.00379719
-0.00476512
-0.00427035
-0.00416476
-0.00415151
-0.00456763
-0.00400501
-0.00539623
-0.00603556
-0.00712467
-0.004111
-0.043035
-0.0441745
-0.0431029
-0.0443252
-0.0316037
-0.0241247
-0.0360055
-0.0396741
-0.0343654
-0.0323527
-0.0279893
-0.0470459
-0.00960726
-0.0173226
-0.0105926
-0.00943386
-0.0077211
-0.0194117
-0.0171151
-0.013979
-0.0234974
0.0248596
0.0238131
0.0227728
0.028017
0.0261899
-0.00518465
0.00462234
0.0107125
0.0202753
0.0236474
0.0209905
0.0191287
0.0171142
0.014852
0.0106091
0.0118516
0.0127967
0.0142259
0.00886531
0.0272776
0.0256469
0.0273849
0.00786353
0.00701264
0.00454671
0.00562417
0.00499739
0.00596514
0.0074448
0.00463536
0.00759382
-0.00928194
-0.00371106
-0.00452508
-0.00408753
-0.00364969
-0.00370469
-0.00466921
-0.00411656
-0.00398622
-0.00359695
-0.00563721
-0.00582057
-0.00370064
-0.0471566
-0.0487704
-0.0467119
-0.0440764
-0.0478579
-0.0320151
-0.0281985
-0.0214666
-0.0401685
-0.0439317
-0.0371585
-0.0328904
-0.0263005
-0.0306133
-0.0481813
-0.0497454
-0.0128767
-0.0106906
-0.00857149
-0.00714947
-0.0195704
-0.016087
-0.0130171
-0.021852
0.0281189
0.0272592
0.0253257
0.0291299
0.02974
0.0291564
-0.00265991
0.00234026
0.0139835
0.0197149
0.0251713
0.0251813
0.0224888
0.0203808
0.0188375
0.0160397
0.0180082
0.0102809
0.0114283
0.0132851
0.0145049
0.00903639
0.0296142
0.0265576
0.0294307
0.00656206
0.00280205
0.00543529
0.00540001
0.00613506
0.00562219
0.00786799
0.00769098
-0.00437634
-0.0037976
-0.00393422
-0.00351733
-0.0033841
-0.00358744
-0.00442609
-0.00383393
-0.00354511
-0.00324788
-0.00537872
-0.00480791
-0.00618909
-0.00359808
-0.0504535
-0.0516487
-0.0502166
-0.0531181
-0.0368991
-0.0291658
-0.0235201
-0.041394
-0.0454017
-0.0389673
-0.036593
-0.0267218
-0.0314036
-0.0527431
-0.0551779
-0.0137307
-0.00947669
-0.0114508
-0.0086003
-0.00743429
-0.0182203
-0.016263
-0.0147149
-0.0242431
0.029588
0.0295993
0.0324594
0.0331295
0.031095
-0.00511588
0.00506845
0.0176279
0.00994118
0.0266445
0.0291255
0.0258519
0.0232297
0.0211946
0.0201684
0.0161972
0.0181077
0.00956709
0.0115491
0.0128415
0.0153418
0.00827253
0.0305235
0.0286451
0.0303971
0.00655814
0.00042763
0.00494571
0.00606698
0.00576648
0.00538614
0.00838878
0.00714781
-0.00739587
-0.00335091
-0.00376153
-0.00311218
-0.0028191
-0.00326227
-0.00437711
-0.00408193
-0.00318777
-0.00330511
-0.00297612
-0.00505183
-0.00459165
-0.00552812
-0.0033152
-0.0552419
-0.0571263
-0.047122
-0.055543
-0.057643
-0.0369444
-0.0328105
-0.0201996
-0.0427192
-0.0517539
-0.0376861
-0.0291326
-0.0347527
-0.0579959
-0.0591572
-0.00979315
-0.00875378
-0.0110569
-0.00739084
-0.00656007
-0.0188949
-0.0141023
-0.0234662
0.0330719
0.0338337
0.0348775
0.0359917
0.0343056
-0.00138786
0.00310188
0.0202786
0.0122243
0.0294267
0.0339616
0.0247667
0.027594
0.0224433
0.0203116
0.0172313
0.0190434
0.00958619
0.0108189
0.0132785
0.015424
0.00820181
0.0328425
0.0303068
0.0287535
0.0328614
0.00612434
0.00544256
0.0049932
0.0060103
0.0057555
0.00540405
0.00518255
0.00718936
-0.00418369
-0.00300298
-0.00343708
-0.00310171
-0.00293529
-0.00261241
-0.00316245
-0.00386782
-0.00334481
-0.00302143
-0.00282969
-0.00269539
-0.00482088
-0.00387488
-0.00567568
-0.00474998
-0.00333919
-0.0595756
-0.0608579
-0.0506153
-0.0602102
-0.0635677
-0.0435491
-0.033806
-0.0225707
-0.0438304
-0.0539298
-0.0414207
-0.0293286
-0.0358546
-0.0632507
-0.0652092
-0.0111608
-0.00741502
-0.00941589
-0.0120161
-0.00700601
-0.0210044
-0.0169555
-0.0147453
-0.0245072
0.035297
0.035793
0.0380041
0.038978
0.0359251
-0.00342298
0.0077169
0.0167418
0.0247449
0.0280755
0.0342772
0.0371175
0.0253724
0.0281754
0.0230035
0.0212078
0.0172883
0.0188291
0.00853208
0.0100349
0.0112758
0.0139239
0.0123164
0.0166288
0.014796
0.0347682
0.0325409
0.0307526
0.0353153
0.00612031
0.00879819
0.00437556
0.00385929
0.00531792
0.00510596
0.00484642
0.00677177
-0.00858143
-0.00371055
-0.00279277
-0.00277234
-0.00264072
-0.00270058
-0.00271717
-0.00288525
-0.00374722
-0.00311546
-0.0024984
-0.0030089
-0.00269778
-0.00230806
-0.00454144
-0.00384716
-0.00350137
-0.00525262
-0.00456215
-0.00327177
-0.065216
-0.0673895
-0.0561453
-0.0651889
-0.0606386
-0.0687023
-0.0418401
-0.0337647
-0.0155751
-0.0285977
-0.0483509
-0.0566503
-0.0417092
-0.027008
-0.0332188
-0.0386117
-0.0703259
-0.0623411
-0.0705391
-0.00696996
-0.00867057
-0.0111347
-0.00608735
-0.0203759
-0.0180851
-0.0139728
-0.0228214
0.039044
0.0406666
0.0397148
0.0394434
0.0408095
0.0393031
-0.00212197
0.008167
0.0182135
0.024257
0.031935
0.0373092
0.0426796
0.0268067
0.024424
0.0297905
0.0223554
0.0209599
0.0194778
0.00805162
0.00963543
0.0107885
0.0139282
0.0127165
0.0169608
0.0158415
0.0370027
0.0346926
0.0312435
0.0362363
0.00619384
0.00539879
0.00472868
0.00408358
0.0051067
0.0052357
0.00473536
0.0049345
0.00713498
-0.00721345
-0.00301555
-0.0027236
-0.00259899
-0.00241921
-0.0021115
-0.0025402
-0.002824
-0.00303149
-0.00292794
-0.00222125
-0.00260357
-0.00238407
-0.00187281
-0.00401106
-0.00355902
-0.00326443
-0.00458818
-0.0051447
-0.00378169
-0.00313843
-0.0704358
-0.0719696
-0.0603876
-0.0557281
-0.0723207
-0.0685578
-0.0754727
-0.0483737
-0.0402955
-0.0143914
-0.0273298
-0.0494999
-0.0559896
-0.0461792
-0.0284212
-0.0338428
-0.0381307
-0.0768091
-0.0683372
-0.0768053
-0.00671714
-0.00614945
-0.00728252
-0.00880839
-0.0122114
-0.00961287
-0.00544283
-0.0167642
-0.0139207
-0.0235337
0.0419814
0.0445802
0.043757
0.0434058
0.0453558
0.0417927
0.00348707
-0.00766983
0.0152079
0.0284228
0.0329799
0.0433797
0.0471569
0.0271245
0.0249349
0.030031
0.0236979
0.0217799
0.0188863
0.00869784
0.0100393
0.0111178
0.0144111
0.0121116
0.0178793
0.0155518
0.0395264
0.0354029
0.0332302
0.0390993
0.00585241
0.00506642
0.00881873
0.00406645
0.00483754
0.00476533
0.00446866
0.00466767
0.00678033
-0.00324055
-0.00246121
-0.00235154
-0.00223337
-0.00181343
-0.0019837
-0.00251103
-0.00279261
-0.00256623
-0.00210377
-0.002225
-0.00252879
-0.0023736
-0.00213024
-0.00180666
-0.00178374
-0.00364311
-0.00306938
-0.00295876
-0.00412514
-0.00441938
-0.00347462
-0.00370431
-0.00228439
-0.0760262
-0.0785769
-0.0654505
-0.0603106
-0.0729994
-0.0768723
-0.0724742
-0.0807781
-0.0410031
-0.0197969
-0.0329162
-0.0572839
-0.0475571
-0.0317459
-0.0263945
-0.0406668
-0.0772915
-0.0829098
-0.0661541
-0.0732384
-0.0827205
-0.00572303
-0.00550947
-0.00679935
-0.00776599
-0.0112935
-0.00929287
-0.00513487
-0.0175976
-0.0146906
-0.0122982
-0.0214947
0.046773
0.0503659
0.0473282
0.0463502
0.0480658
0.0445601
0.00588503
-0.00742986
0.016669
0.0287681
0.0385915
0.0452916
0.0540502
0.0284526
0.0260453
0.0310574
0.0236937
0.0209421
0.0227412
0.0196925
0.00836651
0.00947401
0.01053
0.0137312
0.0125628
0.0178589
0.0159866
0.0403141
0.0371277
0.0334204
0.0402096
0.00577533
0.00457911
0.00464941
0.00455127
0.00451269
0.00418324
0.00411136
0.00714793
0.00609798
-0.00524687
-0.00228124
-0.00237992
-0.00207681
-0.00207207
-0.00203815
-0.00190082
-0.00249906
-0.00269832
-0.00230225
-0.00183394
-0.00195384
-0.00221644
-0.00204984
-0.00176711
-0.00161443
-0.00149361
-0.00307459
-0.00290522
-0.00291481
-0.00258552
-0.00395733
-0.00411312
-0.00295972
-0.00325197
-0.00310066
-0.00236081
-0.0826319
-0.0678222
-0.0619154
-0.0801379
-0.0829134
-0.0793432
-0.0875828
-0.0493401
-0.0174651
-0.0332816
-0.0617799
-0.0517993
-0.0447899
-0.0319736
-0.0261285
-0.0391493
-0.0850356
-0.0897316
-0.0724613
-0.0768236
-0.0891883
-0.00526627
-0.00517222
-0.00577437
-0.00683462
-0.00743898
-0.00988858
-0.00815508
-0.00447041
-0.0161133
-0.0192905
-0.0138303
-0.0114406
-0.0231739
0.050726
0.0552467
0.0511146
0.05052
0.0472773
0.0522544
0.0438004
0.00353832
-0.00211809
0.0213888
0.0265633
0.0380596
0.0501277
0.0587565
0.0285209
0.0262789
0.0319979
0.0300257
0.0252494
0.0216108
0.0230972
0.0192102
0.00776197
0.00948514
0.0110842
0.0141821
0.012051
0.0170666
0.015329
0.0373661
0.038741
0.0356638
0.0425182
0.00503834
0.00452167
0.00462738
0.00686327
0.00422368
0.00412794
0.00400613
0.0037813
0.00665006
0.00571636
-0.00205401
-0.00205496
-0.00190574
-0.00182958
-0.0017551
-0.00160581
-0.0021678
-0.00235183
-0.00260663
-0.00196825
-0.00180092
-0.00175773
-0.00185898
-0.00192078
-0.00186852
-0.00164562
-0.00155571
-0.00146411
-0.00149707
-0.00272405
-0.00259465
-0.00248891
-0.00226452
-0.00335097
-0.00358314
-0.00264392
-0.00287323
-0.00303873
-0.00493922
-0.00200375
-0.0882505
-0.0775917
-0.0570202
-0.0721533
-0.0851404
-0.0873884
-0.0832505
-0.0929684
-0.0414164
-0.0208301
-0.0279258
-0.0629672
-0.0517387
-0.0465225
-0.0288666
-0.0349756
-0.0439525
-0.0863826
-0.0913753
-0.0943641
-0.0721427
-0.0817971
-0.094718
-0.00443344
-0.00457415
-0.00536354
-0.00604406
-0.00638843
-0.00929615
-0.00768274
-0.004223
-0.0141305
-0.016245
-0.019749
-0.0119897
-0.00990781
-0.0221157
0.0552164
0.0610514
0.0549652
0.0536348
0.0501289
0.0555827
0.0454838
0.00922878
-0.00395033
0.0174102
0.0322222
0.0430133
0.0546189
0.0489815
0.0668116
0.0275263
0.0323225
0.0302874
0.0256731
0.0210046
0.0239156
0.0196868
0.0081392
0.00894973
0.0105622
0.0134605
0.0124342
0.017775
0.015732
0.0389863
0.0408837
0.0358707
0.0443699
0.0428978
0.00445988
0.00488714
0.00413641
0.00403639
0.00389323
0.0040064
0.00379003
0.00383231
0.00368258
0.00675363
0.00587504
-0.00192266
-0.00198068
-0.00162276
-0.00163668
-0.00164662
-0.00151841
-0.00203176
-0.0021376
-0.00209237
-0.00178599
-0.00139082
-0.00168523
-0.00169166
-0.00173353
-0.00178308
-0.00174533
-0.001598
-0.00123294
-0.00118618
-0.00115056
-0.00228691
-0.00228634
-0.0022047
-0.00214134
-0.00320352
-0.00329554
-0.00236185
-0.00246855
-0.00250846
-0.00225232
-0.0934955
-0.079079
-0.0836699
-0.0600726
-0.076725
-0.0907319
-0.0933669
-0.0889285
-0.0989424
-0.0448548
-0.0162924
-0.030438
-0.067566
-0.0593925
-0.0547588
-0.0278832
-0.0353148
-0.0438477
-0.092324
-0.0971622
-0.101256
-0.0780781
-0.082443
-0.0987522
-0.00404313
-0.00405693
-0.00427872
-0.00453414
-0.00574625
-0.00599826
-0.00813582
-0.00660009
-0.00356693
-0.0124328
-0.0145125
-0.0178767
-0.0109
-0.00912064
-0.0223043
0.0596565
0.0659219
0.058982
0.0585262
0.0540801
0.048465
0.0608071
0.0055347
-0.00946832
0.0211872
0.0295063
0.0416374
0.0601042
0.054956
0.0690091
0.0712366
0.0278813
0.0330816
0.029244
0.0249405
0.0270846
0.0216598
0.0236018
0.0190576
0.00746683
0.00892014
0.0116987
0.00962186
0.0135035
0.0171054
0.0147918
0.0408174
0.0385951
0.0346373
0.0462121
0.0451701
0.00410734
0.00450235
0.00373621
0.00373731
0.00721434
0.00369491
0.00357934
0.00370542
0.00326241
0.00611379
0.00538086
-0.00166949
-0.00179096
-0.00152398
-0.001553
-0.00144708
-0.00144861
-0.00130131
-0.00166042
-0.00189193
-0.00185843
-0.00162888
-0.00140954
-0.00137619
-0.00158181
-0.00146873
-0.00151646
-0.00163922
-0.000934122
-0.00113929
-0.00117704
-0.00120149
-0.00123063
-0.00191202
-0.00201854
-0.00202274
-0.00180696
-0.00265616
-0.00271864
-0.00312741
-0.00198003
-0.00215297
-0.00216408
-0.0021648
-0.00450569
-0.0999445
-0.0890521
-0.0901095
-0.0533957
-0.0699325
-0.0886624
-0.0913314
-0.0950071
-0.0984187
-0.0940022
-0.104693
-0.0381516
-0.0218859
-0.0676163
-0.0616796
-0.0527545
-0.0294709
-0.0242713
-0.0393603
-0.0323693
-0.0460893
-0.0925876
-0.0977786
-0.101859
-0.103498
-0.103888
-0.0788962
-0.0881833
-0.100785
-0.00320006
-0.00345216
-0.0036237
-0.00432998
-0.00489342
-0.00502589
-0.00739142
-0.0060903
-0.0127938
-0.0107783
-0.0141486
-0.0172945
-0.00957381
-0.00776143
-0.0196574
0.0639838
0.0704051
0.0634402
0.0622747
0.0564766
0.0503791
0.0640891
0.00783151
-0.00675007
0.0163578
0.0354898
0.0469334
0.0667631
0.0570236
0.0782132
0.0785562
0.032218
0.0296254
0.025659
0.0276349
0.0226996
0.0209535
0.0249187
0.0196124
0.00742936
0.00813858
0.0117234
0.00975907
0.0126492
0.0175107
0.0150724
0.0428641
0.0395334
0.0353894
0.0484964
0.0453952
0.00410726
0.00386709
0.00437863
0.00415623
0.00334803
0.0033556
0.00366211
0.00357031
0.00328287
0.00353475
0.00299698
0.00563608
0.00600248
0.00476161
-0.00155365
-0.00169336
-0.00157035
-0.00135918
-0.00130277
-0.00124867
-0.00133247
-0.00113513
-0.00195633
-0.00165742
-0.00149979
-0.00149006
-0.00122293
-0.00130002
-0.00149014
-0.0013687
-0.00143787
-0.00160026
-0.00101502
-0.000982853
-0.000950276
-0.00095084
-0.000791227
-0.0013655
-0.00163907
-0.0016394
-0.0015386
-0.0014813
-0.00169897
-0.00212502
-0.0023609
-0.00269607
-0.00163905
-0.00175749
-0.00176481
-0.00165671
-0.105213
-0.0944987
-0.0953952
-0.0565281
-0.0718044
-0.0934178
-0.0978917
-0.102006
-0.10625
-0.100317
-0.110668
-0.0400757
-0.0226415
-0.0698246
-0.0585898
-0.0492594
-0.027505
-0.0233439
-0.0401081
-0.0334688
-0.044761
-0.0995438
-0.101395
-0.108917
-0.109159
-0.110619
-0.0743277
-0.0852433
-0.0899327
-0.108199
-0.00278486
-0.00292767
-0.00315498
-0.00354697
-0.00455456
-0.00440641
-0.00631031
-0.00490649
-0.0109527
-0.00965898
-0.0121313
-0.0155712
-0.00858857
-0.00683727
-0.0202824
0.0689061
0.0771284
0.0674673
0.0679086
0.0535036
0.0598062
0.0630875
0.0696099
0.00218996
-0.0134281
0.0187127
0.0327105
0.0434644
0.0539503
0.0700686
0.0651177
0.0851026
0.0800124
0.0831748
0.0307773
0.0329851
0.0287807
0.026702
0.0231045
0.0220216
0.0251247
0.0189207
0.00656633
0.00793398
0.0108739
0.00906048
0.012451
0.0164628
0.0142665
0.0427771
0.0412805
0.0383054
0.0367354
0.0342544
0.0499571
0.0471222
0.00326927
0.00351628
0.00393876
0.00373006
0.00327569
0.003197
0.0031581
0.0079742
0.00331519
0.00307531
0.00333346
0.00324571
0.00518703
0.00525338
0.00467071
-0.00132408
-0.00151595
-0.0014425
-0.00121269
-0.00115153
-0.00122668
-0.00103147
-0.00113405
-0.00097932
-0.00305118
-0.00137615
-0.00129523
-0.00147126
-0.00125933
-0.00130317
-0.00117414
-0.00145611
-0.00122055
-0.000920759
-0.000941849
-0.000847568
-0.00100722
-0.000986223
-0.000746022
-0.0011025
-0.00139289
-0.00155482
-0.00108245
-0.0014319
-0.00162149
-0.0019112
-0.00244101
-0.00123113
-0.00180846
-0.0015042
-0.00121148
-0.110823
-0.10383
-0.1048
-0.0500097
-0.0653039
-0.0826666
-0.106081
-0.102852
-0.111799
-0.105315
-0.11832
-0.032076
-0.0664573
-0.0590251
-0.0509558
-0.0288704
-0.0238895
-0.0368666
-0.0321206
-0.0445255
-0.10103
-0.106062
-0.109759
-0.115607
-0.112548
-0.111559
-0.115812
-0.0756315
-0.0859373
-0.096535
-0.00224458
-0.00229784
-0.00267315
-0.00332995
-0.00375737
-0.00347313
-0.00535381
-0.00438073
-0.00937827
-0.00888534
-0.0114515
-0.0149192
-0.00721224
-0.00562549
-0.0181399
0.0732122
0.0826088
0.0720016
0.0544785
0.0593468
0.0664582
0.0742462
0.00747314
-0.0122675
0.0250131
0.0400362
0.0491842
0.0595095
0.0768216
0.0682616
0.0921703
0.0884952
0.0915504
0.0308718
0.0321141
0.028966
0.0269691
0.0241633
0.0217342
0.0262778
0.0195255
0.00648258
0.00824149
0.00692069
0.0110653
0.00932806
0.0130628
0.0170503
0.0143351
0.0448775
0.0419394
0.0401558
0.0369349
0.0344161
0.0489114
0.0526393
0.0465396
0.00294906
0.00315231
0.00391511
0.00363556
0.00305382
0.00300315
0.00285707
0.00263004
0.00304469
0.00281047
0.00297506
0.00573687
0.00485878
0.00533568
0.00425159
-0.00120649
-0.00127579
-0.00124663
-0.000957441
-0.000973002
-0.00106099
-0.000944778
-0.00107156
-0.00096023
-0.000865752
-0.00165698
-0.00113369
-0.00106503
-0.00139529
-0.00135007
-0.000957776
-0.00150048
-0.000978308
-0.00121756
-0.000446852
-0.000796661
-0.00067466
-0.000683857
-0.000710284
-0.000726487
-0.000501384
-0.00106165
-0.00121461
-0.00104504
-0.00110496
-0.00110184
-0.00149876
-0.00164419
-0.00194939
-0.000937479
-0.00141124
-0.000710378
-0.000680082
-0.116307
-0.106957
-0.10924
-0.110832
-0.0529123
-0.0700534
-0.0818223
-0.104614
-0.116694
-0.109092
-0.116918
-0.120798
-0.1232
-0.0327143
-0.0618131
-0.0710652
-0.0550199
-0.0477689
-0.0260256
-0.021265
-0.040271
-0.0320601
-0.108385
-0.111149
-0.118929
-0.120624
-0.11844
-0.117401
-0.121903
-0.0802267
-0.0921501
-0.0977285
-0.00228476
-0.00184055
-0.00158665
-0.00204649
-0.00249282
-0.00320921
-0.00258626
-0.00331805
-0.00850666
-0.00712089
-0.0126815
-0.00936682
-0.0158657
-0.00643364
-0.00469709
-0.01849
0.0788931
0.0882997
0.0768873
0.056735
0.0629948
0.0699549
0.0742456
0.0798289
0.00564328
-0.0220022
-0.00297362
0.0238182
0.0471173
0.0355796
0.0579452
0.0808499
0.0756635
0.0996972
0.0928114
0.094355
0.0990712
0.0303241
0.0324057
0.0296289
0.0279495
0.0243349
0.0232205
0.0206209
0.0265619
0.0186404
0.00580421
0.00776083
0.00650894
0.0103145
0.00880974
0.0122634
0.0163242
0.0150936
0.0132251
0.0452348
0.0434053
0.0398228
0.0355921
0.0381907
0.033361
0.0504021
0.0537401
0.0491403
0.00262314
0.00285183
0.0039302
0.00324562
0.0030486
0.00269942
0.00277085
0.00270501
0.00243286
0.00292593
0.00264978
0.00261789
0.00328094
0.00450532
0.00467115
0.00425828
-0.00104562
-0.00112111
-0.00112497
-0.00081185
-0.000796936
-0.000916995
-0.000870682
-0.000849443
-0.000783977
-0.000717259
-0.00247547
-0.00112687
-0.00112347
-0.000956139
-0.000485454
-0.00174138
-0.000793373
-0.00133022
-0.00109892
-0.00142608
-0.000688749
-0.000686916
-0.000811019
-0.00051887
-0.000885103
-0.000714584
-0.000785812
-0.00101816
-0.000752222
-0.00101114
-0.000804954
-0.00121317
-0.00118087
-0.00152395
-0.000816872
-0.00105652
-0.000350396
-0.000887844
-0.000690207
-0.120347
-0.117177
-0.11773
-0.122754
-0.0635756
-0.0436903
-0.0911861
-0.118071
-0.129589
-0.115733
-0.119102
-0.129518
-0.132119
-0.0299646
-0.0610873
-0.0693685
-0.0561104
-0.0474669
-0.0223194
-0.0286319
-0.0381944
-0.0343628
-0.113468
-0.120378
-0.128112
-0.120612
-0.127501
-0.0799868
-0.0923124
-0.104405
-0.00176436
-0.00134286
-0.00137626
-0.000782736
-0.00122557
-0.00246331
-0.00167826
-0.00296644
-0.00656401
-0.00813591
-0.00598129
-0.0113655
-0.00944207
-0.0139386
-0.0050411
-0.00340733
-0.0166956
0.0808906
0.0906972
0.0570549
0.0632426
0.0703648
0.078724
0.0854628
0.0156404
-0.0143755
-0.00226677
0.0558947
0.0380771
0.0640968
0.0897521
0.0780295
0.108569
0.101089
0.103102
0.105277
0.030691
0.0316995
0.029559
0.0282361
0.0255395
0.0234968
0.0208091
0.0274168
0.0194106
0.00549457
0.00805154
0.00684903
0.0056975
0.0104522
0.00872981
0.0111296
0.0173321