/*--------------------------------*- C++ -*----------------------------------*\
| =========                 |                                                 |
| \\      /  F ield         | OpenFOAM: The Open Source CFD Toolbox           |
|  \\    /   O peration     | Version:  v2012                                 |
|   \\  /    A nd           | Website:  www.openfoam.com                      |
|    \\/     M anipulation  |                                                 |
\*---------------------------------------------------------------------------*/
FoamFile
{
    version     2.0;
    format      ascii;
    class       surfaceScalarField;
    location    "7";
    object      phi;
}
// * * * * * * * * * * * * * * * * * * * * * * * * * * * * * * * * * * * * * //

dimensions      [0 3 -1 0 0 0 0];
oriented        oriented;


internalField   nonuniform List<scalar> 
18781
(
0.223395
0.700586
0.822114
-0.598719
0.758779
-0.0581932
0.211673
0.610441
0.353231
0.267786
0.490993
0.82895
0.722773
-0.5111
0.878227
0.88729
-0.534059
-0.35976
0.850753
0.469191
0.734925
-0.0121525
0.37619
0.134318
0.743909
0.43667
0.0783525
0.7724
0.686631
-0.217441
0.869243
-0.696539
0.684387
-0.320349
0.110561
0.633349
0.951572
-0.514902
0.764984
0.882961
0.624299
0.387719
0.481525
0.970988
-0.286602
0.631223
1.02107
0.465269
-0.0229613
0.787945
-0.211067
1.09403
0.881245
-0.256946
-0.439125
0.92065
0.531863
-0.729364
0.442763
-0.0981412
0.747252
0.273816
-0.403584
0.868853
0.858283
0.576878
0.397759
0.69627
0.531308
0.444778
0.475872
0.877901
-0.346037
0.978167
-0.535404
-0.786264
0.688123
0.326837
0.420415
0.718593
0.576587
0.0825895
0.422056
0.436227
0.998934
0.724595
0.0839101
0.61236
1.25851
-0.316659
0.792531
0.561242
0.632129
0.152719
-0.261724
0.682139
0.456869
0.8218
-0.245214
0.90439
-0.391932
0.828159
0.62914
0.369794
0.240699
0.483896
0.71305
0.853058
0.866581
0.212391
0.580139
-0.161576
0.722818
0.934409
-0.30228
-0.582522
0.73524
0.553511
0.128628
0.66926
0.725515
0.321868
0.544263
0.283896
0.914057
1.03741
-0.113191
0.826241
0.0686241
0.784434
0.642101
0.224481
-0.335033
0.915172
0.772833
0.387785
-0.952732
0.650451
-0.217491
0.797888
-0.255088
0.980604
0.759169
-0.437301
0.925997
0.800866
0.248109
0.789299
0.894865
1.03254
0.883632
0.20022
0.714952
0.513484
0.25935
0.901269
1.07353
-0.423076
0.541677
0.998109
0.696861
0.543303
0.103551
0.822446
-0.0864444
0.88731
0.779627
0.00967201
0.00174831
0.893117
0.365491
0.667053
0.627126
0.256506
0.788219
-0.0732674
-0.473397
0.732747
0.6702
0.231069
0.600129
-0.892294
0.469219
-0.350617
0.535031
0.463078
0.810908
-0.114047
0.86258
-0.319277
0.730677
0.736001
0.889059
0.566192
0.213434
0.544703
0.285185
0.607932
0.650675
0.133804
0.533249
0.841322
0.191112
0.597107
0.596933
0.578601
0.154146
0.80967
0.694039
-0.0939101
0.936033
-0.466814
0.511963
0.65419
0.491631
0.809932
-0.134377
0.865054
-0.192132
0.928134
0.155703
0.733356
0.699996
-0.480411
0.693846
0.0642918
0.0812938
0.526638
0.288695
0.36198
0.821944
0.706945
0.754587
-0.15748
-0.20451
0.801443
0.848186
0.60516
-0.689891
0.595981
0.246142
-0.874762
0.407948
-0.362799
0.718481
-0.461613
0.953243
0.348319
0.672921
0.509831
0.418303
0.665534
0.814649
0.0539625
0.646033
0.542836
0.15101
0.888618
0.395002
0.426942
-0.0655239
0.772469
0.427593
0.326994
0.643962
0.0189539
0.829232
-0.157053
0.762213
0.918734
-0.322753
0.775148
-0.529006
0.807783
-0.399836
0.590445
0.448758
0.269723
0.725489
-0.37717
-0.0460041
0.718925
-0.285815
0.704118
-0.126555
0.792089
-0.00995875
0.824608
0.596798
0.151423
0.49461
0.599768
0.243429
0.645189
0.638432
0.578365
0.439337
0.726465
0.533204
-0.105611
0.596718
0.548141
0.0958216
0.937687
0.672179
0.380779
0.381434
0.452395
0.278778
-0.686705
0.286869
-0.0962603
0.704372
0.0211165
0.509962
0.43311
0.577564
0.78213
0.195884
0.628725
0.467808
0.12899
-0.0661176
0.560728
0.40381
0.195958
0.841072
-0.119694
0.758125
0.458672
0.859591
0.40254
0.323924
0.248449
0.284755
0.442529
0.351826
0.244892
0.4766
0.416578
0.521109
0.0836375
0.588542
-0.162529
0.543962
-0.601842
1.05424
0.846582
-0.567804
0.774494
-0.487624
0.608112
-0.663144
0.68426
-0.153181
0.83565
-0.40175
0.979314
0.196635
0.585495
-0.144747
0.773472
0.40169
0.532801
0.146342
0.414386
0.547784
0.359185
0.481887
0.398751
0.359374
0.605014
0.412402
0.447189
0.736327
0.493341
0.432274
-0.147519
0.457262
-0.0147326
0.0110435
0.465557
0.745387
-0.328809
0.604747
0.426013
0.555006
0.244739
0.864046
0.190191
0.20669
0.120488
0.644221
0.0400394
0.688537
0.4339
0.374939
0.604375
0.571574
0.440748
0.293293
0.480179
-0.105295
0.506985
0.427506
-0.057966
0.472352
0.0730705
0.474713
0.757936
0.77518
-0.268739
0.628114
0.336274
0.778596
0.535859
0.200467
0.34935
0.143991
0.225057
0.207217
0.309743
0.450824
0.435187
0.3102
0.535237
0.284322
0.320425
0.710335
0.167666
0.38734
-0.619627
0.864366
-0.697127
0.887319
0.803196
-0.596506
0.764708
-0.683449
0.723488
0.00508764
0.96976
0.54365
0.0607252
0.307521
0.264053
0.748269
-0.212172
0.692352
0.449019
-0.08052
0.508026
0.202111
0.270241
0.42242
0.394193
0.579575
0.178361
0.184372
0.590808
0.459739
0.168375
0.538385
0.979063
0.369048
0.397401
-0.190184
0.335015
-0.0252721
0.074873
0.375951
0.630593
-0.195406
0.630625
-0.279903
0.81514
0.296204
0.41413
0.46387
0.462213
0.183569
0.167239
0.607416
0.168202
0.641717
0.0817712
0.793283
0.752016
0.217744
0.807702
0.812741
0.536097
0.876723
0.263462
0.185557
0.266081
0.241945
0.533702
0.0354974
0.386923
0.00901216
0.385181
-0.010024
0.589599
0.6381
0.580784
-0.296827
0.465202
0.241559
0.510913
0.46815
0.0200214
0.349027
0.417422
0.144832
0.350679
-0.0813381
0.711931
0.619734
0.549287
0.0323578
0.381773
0.0391557
0.424714
0.249269
0.212944
0.825285
-0.641716
-0.683308
0.850547
-0.304367
0.911783
0.809919
-0.7038
0.785571
0.0894827
0.728657
0.576488
0.231214
0.706215
0.106526
1.11258
0.14746
0.729264
0.451638
-0.0925973
0.334543
0.183946
0.349756
0.384524
0.395935
0.292584
0.551112
0.0384869
0.46746
0.170641
0.728244
-0.0912659
0.556467
0.425505
0.70779
0.291575
0.125847
-0.213407
0.358239
0.137272
0.423204
0.288727
-0.197282
0.817016
0.581645
0.420928
0.168599
0.256115
0.417868
0.350216
0.141977
0.168204
0.850451
9.59546e-05
0.546084
0.714501
0.649207
0.136364
0.816551
0.751356
-0.0226992
0.937429
0.857882
0.425547
0.687038
-0.0286063
0.75787
0.381443
0.0701948
0.277916
0.0566264
-0.0469349
0.396691
0.0121862
0.372338
0.164327
0.231607
0.229239
0.0633447
0.0223052
0.528807
0.505947
-0.263393
0.434034
0.750549
0.334239
0.293075
0.68509
0.303762
-0.164983
0.29083
-0.0908601
0.449099
-0.232814
0.656018
-0.373113
0.66184
0.443903
0.348831
0.247914
0.173015
0.504029
0.323987
0.0938806
0.259356
0.726843
-0.584866
0.817411
-0.861583
0.861679
-0.439713
0.985797
0.558901
0.1556
-0.648729
0.785093
0.167822
0.0958546
0.841575
0.84162
0.0162622
-0.316086
0.741633
0.658431
-0.00541904
0.763289
0.334508
0.348111
0.285866
0.118709
0.277982
0.131309
0.241028
0.295637
0.294952
0.642843
-0.114036
0.511268
-0.00532195
0.441057
-0.0070239
0.74513
0.452948
0.379122
-0.0860473
0.830764
0.0320004
0.271761
0.284116
0.249976
0.0408535
0.247362
0.408656
0.130449
0.531391
-0.271225
0.715128
0.521845
0.272583
0.231446
0.0962611
0.227726
0.353237
-0.134741
0.232545
0.421967
0.542929
0.442868
0.287676
0.698529
0.633083
0.15201
0.82672
0.937475
0.525488
0.847026
0.213128
0.528506
0.871559
-0.0422411
0.80553
-0.0263384
0.360846
0.305472
0.0426392
0.28698
-0.00111432
-0.10909
0.387072
-0.0119095
0.252938
0.13608
0.159557
0.210569
0.0843836
0.13043
0.512413
0.397232
0.435735
0.372098
0.0796615
0.665468
0.3669
0.281976
0.259852
0.249364
0.0347526
0.290217
-0.225552
0.472914
0.0258638
0.382792
0.845577
0.557255
0.296293
0.368844
0.527739
-0.0661731
0.293899
0.287064
-0.865628
0.730887
-0.488517
0.910484
-0.582958
1.02583
0.986204
-0.594299
0.746308
0.232421
0.335402
0.602073
0.86089
0.897378
-0.302936
0.831442
0.829318
0.381333
0.424198
0.279133
0.251757
0.329619
0.209454
0.352643
0.0344293
0.114654
0.138284
0.250734
0.24394
-0.5182
0.648631
0.592074
-0.120968
0.420878
0.014857
0.422165
-0.050067
0.535462
0.130006
-0.0246857
0.391586
0.268608
0.0133689
0.120229
0.139622
0.321816
0.255626
0.0345915
0.0658282
0.407086
0.44862
0.6196
0.225978
0.249527
0.307728
0.0487145
0.32013
0.259159
0.26858
0.342614
0.883737
-0.152849
0.395219
0.327526
0.849036
0.176791
0.088907
0.897297
1.00394
-0.257631
0.816788
-0.20199
0.804063
0.557954
0.695388
0.859126
-0.0276844
0.389234
0.440084
0.916795
0.813431
0.0167054
0.262428
0.32199
-0.070233
0.239658
0.0899611
-0.0983405
0.307795
0.327957
0.356419
0.258513
0.121004
0.12973
0.1456
0.669765
-0.0211347
0.72208
0.29991
0.437022
0.341519
0.0976596
0.170948
0.268995
0.237282
0.18088
0.140936
0.215471
0.0388938
0.368192
0.0716624
0.376958
0.423036
0.196563
0.475505
0.37939
0.0366279
0.283502
0.295786
0.307474
0.10042
0.242194
0.85109
-0.584814
0.980033
-0.507656
0.835182
0.937943
-0.764364
0.941155
0.448179
0.449118
0.559157
0.148999
0.655064
0.706953
0.698495
0.291069
0.568057
0.679268
0.731153
0.769648
0.147147
-0.0150777
0.828509
0.256363
0.192195
-0.181259
0.27122
0.126536
-0.0324081
0.360365
0.298016
0.0584034
0.087715
0.170798
0.208719
0.27533
0.390476
0.279289
-0.446656
0.425521
0.654175
0.0679052
-0.264751
0.564662
0.172271
-0.0990972
0.440616
0.180903
-0.00995465
0.182109
0.0868852
0.156845
0.0804364
0.241356
-0.0428854
0.258357
0.0276877
0.340504
0.404645
-0.0771722
0.500209
0.644742
0.0227251
0.45278
0.402115
0.0130753
0.270427
0.0326806
0.263106
0.340155
0.25527
0.266276
0.472377
0.0708174
0.373643
0.5643
0.954702
-0.0135465
0.822761
1.06334
-0.0418719
0.696936
0.656623
0.93349
-0.365433
-0.0517313
0.730999
0.716075
-0.0556759
0.825324
0.801321
0.772833
0.18106
0.075303
0.373256
0.173717
0.0975024
-0.126259
0.252795
0.265608
0.261268
-0.222806
0.281209
0.0194784
0.15132
0.0288796
0.179839
0.149071
0.458381
-0.220842
0.500132
0.118006
0.421315
0.00420642
-0.252816
0.425087
0.1878
0.107173
0.0737298
0.172155
-0.104054
0.190939
0.176324
0.187609
0.198471
0.154303
-0.0953033
0.435808
-0.0469459
0.451591
0.375608
0.324882
0.175326
0.351729
0.293013
0.355169
0.02604
0.244387
0.289146
0.244851
0.0228521
0.232417
-0.574937
0.841213
0.793849
-0.321472
0.864667
-0.25948
0.82378
0.695221
-0.784381
0.770834
0.345305
0.477456
0.488399
0.645205
0.660047
0.159467
0.774024
0.365566
0.875542
0.817084
0.00823984
0.746549
0.054773
-0.0874862
0.860319
0.24902
0.15045
-0.156062
0.253564
0.0967334
-0.0199291
0.285537
-0.0886332
0.349901
0.230924
0.0502853
0.1802
0.0883314
0.0915079
0.237402
-0.237115
0.695497
0.200472
0.263016
-0.323101
0.441107
-0.367194
0.371401
0.101987
-0.183035
0.370835
-0.107358
0.181087
0.0647972
0.119885
0.0710544
0.146628
0.0296962
0.116649
0.0709602
0.221323
0.173922
-0.0196189
0.152006
0.283802
0.282674
0.168917
0.388912
-0.0133042
0.676612
0.564238
0.638318
0.341865
-0.0100489
0.254435
0.0863512
0.202795
0.331203
0.222369
0.834529
0.00668457
0.513057
0.0802861
0.179567
0.644214
-0.155877
0.851099
0.840484
-0.0696502
0.657022
0.907435
0.0903071
0.554898
0.750354
-0.0707548
0.844778
0.920464
0.788056
-0.0434248
0.860509
0.754788
-0.475684
0.530457
0.816895
-0.0296275
0.278648
-0.108767
0.259217
0.223937
-0.102582
0.199315
0.210995
0.196903
0.166866
-0.150441
0.200726
0.0875304
0.0926692
0.179038
0.134821
0.219813
-0.272066
0.472538
-0.32999
0.593006
0.0739122
0.0993351
-0.256342
0.358329
0.114493
0.101466
0.0796214
0.184682
0.244976
0.0527964
0.0938313
0.146345
0.172426
0.201704
-0.129812
0.281818
0.0739392
0.209863
0.356613
0.510782
0.394643
0.281969
0.136781
0.427457
0.0410882
0.59723
0.0616741
0.192761
0.264469
0.20139
0.0207215
0.201647
0.91412
-0.430913
0.943969
-0.578869
0.659155
-0.117283
0.761497
0.684607
0.733815
-0.847617
0.777967
0.698111
0.753588
-0.743505
0.67275
0.167173
0.677605
0.176959
0.955229
1.02816
-0.167646
0.844171
-0.0893822
0.814448
-0.283991
-0.255059
1.07195
0.169881
0.108776
0.2002
0.0237368
-0.0257454
0.22506
-0.0109638
0.221959
-0.0872372
0.284141
-0.144747
0.311613
0.207789
-0.00706248
0.145466
-0.000210539
0.179249
0.161025
-0.0262045
-0.374194
0.594007
0.142548
0.218812
-0.334064
0.407977
-0.290474
0.389809
0.0242647
-0.216706
0.331198
-0.0942627
0.173884
0.0904191
0.0863691
0.158607
-0.0645254
0.158357
0.0818199
0.0592687
0.113157
0.222425
0.0760812
0.205737
0.285944
0.0377338
0.318879
0.211301
0.299481
0.00818777
0.386455
-0.152206
0.434175
0.348083
0.275251
0.605418
-0.0492319
0.241993
0.0941129
0.170356
0.295503
0.152415
0.483207
0.3651
-0.188462
0.0422902
0.719207
-0.200179
0.884786
-0.0690423
0.802858
0.699924
0.0780425
0.740401
0.930548
-0.168131
0.840881
-0.196214
0.873819
0.700171
0.448291
0.579864
0.676524
0.725066
0.310015
0.511201
0.560752
-0.0458863
0.215767
0.205035
-0.0962598
0.154313
-0.133679
0.157416
0.13528
0.091381
0.196825
0.134722
0.139393
0.0949071
0.197973
0.145255
0.153044
-0.325385
0.467933
-0.420089
0.638902
0.117503
0.0644236
-0.248522
0.272787
0.0826765
0.0488319
0.125052
0.176788
0.140496
0.0181117
0.10002
0.0583369
0.141089
0.00278312
0.110374
0.0644368
0.157989
-0.081708
0.287445
0.323678
0.00299901
0.31588
0.30248
-0.0207579
0.407213
0.413417
0.261114
0.0869685
0.536365
0.151716
0.453702
0.102585
0.139409
0.27294
0.213795
0.216852
0.812991
0.692941
-0.327841
0.504479
-0.0604845
0.779692
0.499745
0.815744
0.742373
0.746287
-0.668245
0.0379085
0.702492
0.762417
0.644667
0.293671
0.580148
0.993841
0.959492
-0.458236
1.0381
0.936737
-0.260213
0.709633
0.0154326
-0.381966
0.691981
-0.415899
0.976651
0.119507
0.158614
-0.0043005
0.155333
0.0020827
0.162252
-0.0269725
-0.0465706
0.137952
0.142568
0.0542572
0.27729
-0.104065
0.243458
-0.219871
0.314778
0.19783
0.000142593
-0.00716437
0.152419
0.134434
0.0186106
0.0478439
0.256936
-0.202869
0.320372
-0.309062
0.373486
0.419637
-0.14685
-0.185251
0.267927
-0.0813887
0.130221
0.127835
0.0953996
0.0336388
0.106857
0.1761
0.0928553
-0.0537714
0.112108
0.0873171
0.040878
0.0694963
0.0521372
0.235308
0.0323011
0.291377
-0.0171493
0.33303
0.389448
0.558928
-0.127352
0.540769
0.409013
0.491611
-0.051951
0.19136
0.191654
0.081286
0.222464
-0.00866942
0.164901
0.48515
0.756243
-0.251764
-0.0337313
0.813423
-0.495039
0.994784
0.682333
0.133411
-0.0898493
0.832223
0.251248
0.087998
0.668761
0.765516
-0.126707
0.771375
-0.353864
0.934012
0.577943
0.518014
0.441478
0.478501
0.441216
0.596884
0.44942
-0.653779
0.669212
0.038202
0.506183
0.470467
-0.102662
0.222169
0.0559518
0.151033
-0.120644
0.122726
0.115682
0.107461
0.0173079
0.252088
0.173224
0.0235873
0.129527
-0.146252
0.146394
0.0791901
0.0732293
0.0978007
-0.447507
0.49535
-0.259526
0.516461
0.216767
0.0113099
-0.0740205
0.121078
0.00595565
0.124265
0.0594355
0.0683999
0.129038
-0.0519605
0.158817
0.12414
-0.0240181
0.116873
0.0880902
0.128195
0.128932
0.274602
0.267609
0.274228
0.00952486
0.323505
0.398973
0.237218
0.32171
0.241559
0.299211
0.398699
0.0103133
0.728829
0.135833
0.0555269
0.182985
0.217119
0.0313145
0.133586
0.722334
0.470571
0.102804
0.710619
0.632958
0.361827
0.592483
0.766369
0.935027
-0.746622
0.99787
-0.612658
0.700656
-0.0960039
0.764765
0.638809
0.417511
0.385714
0.548298
0.963656
0.95923
0.947662
-0.47371
0.952211
-0.157109
0.753992
-0.413721
0.863141
0.255491
-0.400856
0.439058
-0.451297
0.921765
0.0759178
-0.0893315
0.145283
0.0617015
-0.0235473
0.146274
0.0975289
0.0181529
0.124112
-0.0166504
0.114837
0.0437319
0.208356
0.19466
-0.0214358
0.218248
0.266153
-0.136626
0.242506
-0.0961121
-0.0327139
0.105943
0.102789
-0.00498836
0.516982
-0.0216318
0.257456
0.115605
0.284497
-0.0677293
0.295806
-0.299254
0.225233
-0.156454
0.277531
0.134994
0.034365
0.0898998
0.102765
0.0697296
0.0890877
0.155454
0.0841595
-0.0136837
0.101774
0.114511
0.098477
0.0304548
0.0845051
0.190097
0.0367157
0.230893
-0.0171643
0.291392
0.235901
0.0876038
0.314487
0.0844859
0.563269
-0.165615
0.464825
0.233085
0.324801
0.632825
0.189113
-0.0917076
0.274693
0.125411
-0.129779
0.840398
-0.486055
0.847882
-0.350822
0.943305
0.415547
0.658402
0.276624
0.511815
0.634986
0.642239
1.05975
-0.341782
0.89008
0.512359
0.481477
0.477754
0.527947
0.419715
0.389431
0.797327
0.154885
0.640218
0.593896
0.160096
-0.31353
0.569021
0.740419
-0.301361
0.514709
0.407056
0.136726
-0.0608078
0.179718
-0.0344347
-0.0659359
0.127637
-0.0983255
0.0747783
0.0803378
-0.0874752
0.105628
0.0366364
0.0861386
0.0165112
-0.128519
0.172251
0.18692
0.26876
-0.0505123
0.1097
0.132134
0.113987
0.0406136
0.100955
0.368222
-0.389854
-0.146215
0.403672
0.42644
-0.310835
-0.333951
0.266221
-0.00344755
0.432265
-0.207032
-0.0564195
0.0364287
0.0985653
0.0127959
0.077104
0.070492
0.032273
0.106158
-0.0228669
0.111955
0.132587
-0.0238085
0.107968
0.0779654
0.0418585
0.072653
0.0427849
0.0556921
0.100947
-0.131919
0.216424
0.226812
0.213729
0.197108
0.0942835
0.320387
0.284712
-0.0610738
0.624343
0.403751
-0.300839
0.533924
0.0239615
-0.0220228
0.654848
-0.000505254
0.189618
0.142773
-0.0449516
0.170363
0.241544
0.598855
0.464516
0.383366
0.583809
0.359496
0.880062
0.899946
0.860433
0.509538
-0.0863587
0.721344
0.717968
0.390547
0.499533
0.902907
1.00942
1.07165
0.934424
-0.266695
0.656126
-0.634831
0.789716
0.4992
0.141018
0.659296
0.426889
0.611669
-0.042648
0.125079
-0.498666
0.905722
0.11891
0.0932027
-0.0672176
0.141996
-0.0453078
0.125646
0.0743373
0.0312908
-0.0840142
0.120651
0.00212439
0.0908485
0.176765
-0.00451397
0.209221
-0.0223009
0.158708
0.25217
-0.14247
0.236817
-0.104684
0.179539
-0.0655518
-0.114664
0.155278
0.0869647
0.0139902
0.390582
-0.0223604
0.0424118
0.244367
0.0928366
0.3112
-0.0449788
0.307752
0.100721
0.19575
0.111361
0.109377
0.022363
0.0837953
0.134318
0.132082
0.059482
0.048486
0.00313428
0.0748312
0.0846434
0.0757873
-0.0324497
0.0881418
0.0684971
0.152364
0.06406
0.0387599
0.188052
0.197362
0.0163666
0.291646
0.300503
0.0198845
0.208149
0.0765632
0.60232
-0.196696
0.600447
0.337228
0.324464
0.568489
0.144667
-0.0309954
0.173769
0.178071
-0.00770821
-0.38985
0.988705
-0.505442
0.888808
-0.495263
0.85476
0.384799
0.629288
0.270657
0.615357
0.245077
0.331494
0.720808
-0.189626
0.689158
0.404241
0.44535
0.564074
0.377736
0.693914
0.545333
0.38909
0.344975
0.0212947
0.51018
0.279536
0.651198
-0.313767
0.973063
0.410311
0.0165785
0.367663
-0.314669
0.439748
0.521537
0.384185
0.00424572
-0.0576942
0.150897
0.0236309
0.0966881
0.0679514
-0.0509505
0.0822414
0.0697001
0.0890891
0.154464
0.175025
0.217114
-0.0584056
0.0943471
0.112431
-0.179478
0.113926
-0.0241996
0.0734721
0.31356
-0.335921
0.346164
-0.303752
0.332749
-0.0883823
0.425586
-0.234162
0.189184
0.307662
-0.206941
0.268995
-0.0732447
0.0363931
0.0749682
0.0218347
0.0875423
0.120188
0.0241363
0.110181
0.156218
-0.0341202
0.0826062
0.040711
0.0276719
0.0569715
0.0429858
0.0328015
0.0438543
0.0442875
-0.00613071
0.0746278
0.191124
-0.120109
0.184169
0.204419
0.178713
0.112933
0.228033
0.255276
0.531791
0.0705287
0.42716
0.173288
-0.0504463
0.387674
-0.0788227
0.403287
0.518541
0.0499483
0.105045
0.0396214
0.147076
0.0536598
0.0973371
0.222169
0.766536
0.333407
0.555401
0.58918
0.26558
0.718206
0.851457
0.886014
0.834257
0.850035
0.531183
0.509387
0.179771
0.913628
0.990683
0.94181
-0.0188297
0.712744
0.910627
0.555621
-0.210646
0.576915
0.674231
-0.394695
0.337431
0.705107
0.267957
-0.291605
0.308184
0.418112
-0.0504492
0.110917
0.532835
-0.0930869
-0.555573
0.939758
-0.108351
0.112597
0.042546
-0.0783146
0.101945
0.093895
0.00279308
-0.0422682
0.11022
0.00392679
0.0596578
0.0100423
-0.0169931
0.106082
0.182954
-0.0284892
0.143885
0.0311395
0.124548
0.249837
-0.15549
0.191875
-0.079444
-0.0821416
0.196067
-0.119188
0.094988
-0.0115027
0.0849748
0.23783
0.07573
0.0102428
0.00391013
0.149448
0.0348326
0.343255
-0.154071
0.136314
-0.232746
0.159501
0.0968028
0.0814116
0.0473841
0.0728042
-0.000271794
0.110453
0.0773581
0.0788603
0.0711035
0.0836968
0.0604733
0.00864593
0.0483256
0.0525002
-0.0130847
0.0573722
0.0615431
0.0208725
0.170252
0.13628
0.0478891
-0.0152774
0.219696
-0.164972
0.277904
-0.107823
0.335856
0.147453
0.581739
0.497688
-0.280332
0.453619
-0.351881
0.301435
0.107343
0.257034
0.0514054
0.11698
0.107229
0.0398463
0.160889
-0.0488879
0.146225
0.0270964
0.739439
0.551898
-0.57531
0.84089
0.142896
0.255052
0.596406
0.549331
0.336683
0.613074
0.221183
0.831634
0.0184015
0.534507
0.714278
0.358055
0.39103
0.599653
0.337549
0.60426
0.686277
-0.0652295
0.777973
0.519633
0.390994
0.207466
0.646035
-0.0691193
0.379377
0.294853
0.25134
0.716808
-0.498547
0.766504
0.24123
0.399272
-0.0910878
0.348822
0.333015
-0.222098
-0.27406
0.180973
0.550146
0.389612
-0.00659096
-0.0714649
0.114011
0.115698
-0.0137525
0.0516268
-0.060566
0.0633591
0.0387547
0.0635846
-0.0613133
0.0713556
0.0679817
0.0447689
0.115396
-0.126155
0.157294
0.197337
-0.072789
0.017091
0.0363846
0.117893
-0.14059
0.0584487
0.0699129
-0.0456022
-0.155946
0.231676
0.228143
-0.217901
-0.207486
0.211396
-0.123193
0.272641
0.253055
-0.218222
0.0989837
0.213982
-0.0776679
-0.058721
0.0346533
0.0621496
0.0138942
0.0675173
0.0820374
0.0725325
0.0460586
0.0643944
0.124919
-0.00228742
0.0733909
0.0577165
0.0259803
0.0127807
0.0476926
0.0611063
0.000271599
0.0522286
0.0576438
0.00303423
0.0585089
0.157152
0.154974
-0.12346
0.171349
0.0547248
0.146279
0.131625
0.293732
0.727919
-0.14618
0.466434
0.0312543
0.413252
0.0403672
0.268807
0.0326281
0.37615
0.30074
-0.043706
0.352145
0.0680916
-0.108656
0.148503
0.0374297
0.0375688
0.85873
0.0843915
0.655048
0.694793
0.577902
0.262988
0.804383
0.680797
0.949757
0.799084
0.746321
0.716734
1.07479
0.910663
0.937202
-0.161091
0.765351
0.621047
0.616882
0.94114
-0.315189
0.522655
-0.444916
0.375796
0.542699
-0.247845
-0.192698
0.444037
0.218261
0.726102
0.0404016
0.318504
-0.0772746
0.227416
0.0336336
0.0589553
-0.343647
0.121549
0.345428
-0.164455
-0.422065
0.811676
-0.0880259
0.0814349
0.025985
0.0551319
-0.102065
0.0883123
-0.0300633
0.0816901
0.0648682
-0.00150908
-0.049889
0.0886437
-0.0384802
0.0328754
-0.0065
0.0744816
-0.0392361
0.084005
-0.0530165
0.168413
0.104277
0.0956236
-0.168137
0.185228
-0.160975
0.19736
-0.0430822
0.131047
-0.072598
0.123024
-0.0531113
-0.112561
0.0669588
-0.271423
0.115477
0.108483
-0.0432796
-0.288639
0.0707382
0.00649568
-0.0772428
-0.0710055
-0.139707
0.238691
-0.22204
0.144372
-0.165325
0.106604
0.0760438
0.0705516
0.0211886
0.0608487
0.0937211
-0.0397205
0.104115
0.0391233
0.0857957
0.0554291
0.0668909
0.0736729
-0.0025362
0.0636425
0.0496924
0.0062491
0.0513947
0.064758
0.013016
0.144136
0.152668
0.00230659
0.0993221
0.0720266
0.207393
0.212918
-0.0812925
0.219663
0.0740697
0.320254
0.444506
-0.332296
0.372663
-0.281662
0.31429
0.043854
0.175957
0.070483
0.107215
0.104715
0.0437873
0.142145
-0.0890108
0.12658
0.42952
0.42921
1.08457
0.691609
0.954597
0.273655
0.530728
0.954452
0.361269
0.588488
-0.161395
0.960479
-0.119965
0.866286
0.652724
0.466457
0.444206
0.319014
0.618188
0.617393
0.147959
-0.0866775
0.707725
0.553125
0.0637572
0.41383
0.52731
0.0777393
0.448082
-0.0722852
0.418819
0.12388
-0.512857
0.265012
0.255384
-0.0688199
0.637079
0.639425
-0.525292
0.565694
-0.31531
0.238035
-0.0783688
0.305785
-0.29319
0.326824
0.249297
-0.190341
0.272149
-0.1506
0.0301184
0.0848415
0.029317
0.782359
-0.0311261
-0.0662903
0.0922753
0.0650615
-0.00992954
0.0723889
0.0159234
0.0348049
0.0318011
0.0635524
0.0223534
-0.0372869
0.0701623
0.0352456
0.046718
-0.0487111
0.152989
-0.0601898
0.155813
0.0292228
0.0199033
-0.135834
0.0927521
0.125742
0.00530453
-0.107054
0.0344563
0.133859
-0.0108348
0.0726309
-0.0400955
-0.113541
0.229017
0.209523
-0.10104
0.114822
-0.158102
0.199244
-0.128506
-0.15721
0.163706
-0.202969
0.125726
0.138518
0.0802128
-0.21992
0.0166513
-0.0128383
0.181523
-0.0749197
0.0200015
0.0560422
0.0147899
0.0557617
0.0808503
0.0540006
0.0735023
0.0306126
0.0119425
0.0738532
-0.0160753
0.0715043
0.0437467
0.0231442
0.0575976
0.0451826
0.0184599
0.0132453
0.0364471
0.06464
0.00602091
0.0587371
0.112338
0.146443
-0.0358591
0.107886
0.24551
-0.0381173
0.14534
0.067578
0.164217
0.219409
-0.365313
0.685567
0.0791931
0.455743
-0.0830795
0.272185
0.0421054
0.316039
-0.130344
0.306301
-0.238977
0.30946
0.0182041
0.108263
-0.0644754
0.148292
-0.00614671
0.0994565
0.0271231
-0.399656
0.828865
0.429708
0.65486
0.793203
0.891997
0.369193
0.585259
-0.262794
0.851282
0.697685
-0.650949
0.530984
0.46663
0.654831
0.785471
0.858036
-0.0725771
0.690765
0.544815
0.701084
0.771482
-0.186974
0.714284
0.345968
-0.268228
-0.345854
0.273569
0.385797
-0.261917
0.444408
-0.179396
0.361161
-0.105777
0.292342
0.111787
0.793447
-0.154022
0.617941
-0.0522471
0.270024
-0.0319886
0.191655
0.012595
0.370264
-0.0434402
0.0818073
-0.256498
0.105897
0.264763
-0.234644
0.227211
-0.142369
0.684148
0.595385
0.0611492
0.0624594
-0.0516156
0.067539
-0.0385917
0.0733965
-0.0405493
0.0723504
0.0249607
-0.0549047
0.0772581
0.081959
-0.0117966
0.0789923
0.0561921
-0.00947409
0.0851478
0.0927989
0.0199791
0.182934
-0.153711
0.163054
-0.143151
0.167151
-0.0743989
0.0841962
-0.0788917
0.0992842
-0.064828
-0.0920849
0.08125
-0.019454
-0.0944056
0.0543101
-0.206531
0.0929906
0.127977
-0.0917092
0.0411425
-0.197728
0.0692224
-0.0392633
-0.072002
-0.11798
0.1739
-0.093687
-0.0383969
-0.141379
0.15803
-0.145227
0.132389
0.0881341
0.0708321
0.0617826
0.0320563
0.048794
0.0860569
0.0854447
-0.0491258
0.0797384
0.0920573
0.030953
0.0405513
0.0540972
0.00736213
0.0502355
0.0525447
0.054907
0.0361366
0.0285033
0.00395583
0.0547813
-0.0338927
0.146231
0.175247
-0.0288042
0.112433
0.073993
0.13713
-0.151486
0.219064
0.0127318
0.0890654
0.0346182
0.534936
-0.300656
0.217577
-0.269016
0.311121
0.0153824
0.0673238
0.0404436
0.0876294
0.0206333
0.034981
0.0814827
-0.0397298
0.066853
0.874148
-0.0452826
0.798901
-0.0272149
0.682075
0.790465
0.385491
0.506506
0.97075
0.313538
0.537743
-0.10155
0.799235
-0.117352
0.648336
0.741985
-0.275355
0.244158
0.541313
0.446406
0.41163
0.934923
-0.367558
0.912374
0.333526
0.480242
0.291241
0.498481
0.215802
0.000113199
0.102036
0.350792
-0.0772225
-0.104179
0.489976
0.182491
-0.399199
0.219803
0.245014
-0.106857
-0.30492
0.416707
0.452853
0.340594
0.463919
-0.525878
0.473631
-0.232962
0.200974
0.222932
-0.0312774
0.235527
-0.31057
0.26713
0.254793
-0.172985
0.184545
-0.0786478
0.0318003
-0.00743331
0.112423
0.686268
0.574105
0.02128
-0.0332564
-0.00375264
0.066212
0.0303434
0.0617793
0.00575962
0.0328472
0.0174458
-0.0256379
0.0505987
0.082756
-0.00549794
0.0443955
0.0490664
0.0299259
0.0395923
-0.0304898
0.115638
0.115509
-0.0227102
0.135488
0.0397832
0.0134402
0.0610892
0.0835448
0.000651352
0.0203926
-0.0692375
0.00440957
0.108994
-0.0277437
0.0640908
-0.0149274
-0.115613
0.208603
0.170508
-0.0425312
-0.15473
0.0630205
-0.113587
0.162056
-0.092834
-0.1596
0.120336
-0.155626
0.0836244
0.0525285
0.0325207
0.0661276
-0.159815
-0.141165
0.102768
0.012803
-0.0272107
-0.0530311
0.0196906
0.0511415
0.00633326
0.0554494
0.0684847
0.036931
0.0192741
0.0661706
0.0600298
0.0197086
0.088871
0.00318627
-0.00472916
0.0452805
-0.00195999
0.0560572
0.0455064
0.0393231
0.0132216
0.0164424
0.0384646
0.0400925
0.0449457
0.0239404
0.0308409
0.117427
0.078603
0.0338297
0.152596
0.20663
-0.0694997
0.150352
0.0687117
-0.130075
0.142807
0.239417
-0.482819
0.517437
0.0521169
-0.213934
0.431511
0.26628
0.0448413
0.281662
-0.19771
0.265034
-0.243608
0.284052
-0.0739064
0.0945397
-0.0515846
0.0865656
-0.0557379
0.137221
0.0491412
0.0152684
0.846933
0.696702
0.102727
0.696174
0.784802
0.688916
0.820044
0.275033
0.695717
-0.153845
0.691588
0.64539
-0.554058
0.436706
0.372982
0.987719
0.910112
0.227744
0.707179
0.542697
0.369677
0.813768
0.744093
0.789908
-0.237262
0.237376
-0.205986
0.308022
-0.318759
0.241536
-0.352486
0.248307
0.185056
-0.169995
0.360297
-0.140494
0.327395
-0.0823804
0.220537
-0.109171
0.626677
-0.286083
0.605987
-0.142068
0.504995
-0.0313642
0.235626
-0.0346518
0.204348
-0.0750427
0.061144
0.0115597
0.101057
-0.179705
0.158249
-0.126449
-0.235423
0.22799
-0.123
0.707548
0.0494996
0.0580267
0.0405741
-0.0305467
0.06089
-0.0482004
0.0539601
-0.0241034
0.0569506
-0.0365724
0.0540182
0.0475446
0.00305403
-0.0600804
0.0545825
0.0597461
-0.0153506
-0.0209148
0.0508407
0.0527854
-0.0131931
0.078504
0.0925712
0.0230663
0.0698611
-0.101439
0.141222
-0.104843
0.118283
0.10101
-0.0399205
0.0539769
-0.0533256
0.0763796
-0.055987
-0.0486943
0.0531038
-0.0890729
0.0613292
-0.0249821
0.0442304
-0.0591578
-0.175939
0.0603262
0.1533
0.0553037
0.110768
-0.112918
0.0484691
-0.156617
0.063783
-0.0352899
-0.0729926
0.207074
-0.154546
-0.12058
0.153101
0.120641
-0.0545139
-0.0570463
-0.0994085
0.112211
-0.138071
0.11086
-0.123818
0.0707866
0.0574747
0.0180335
0.0374159
0.0336193
0.0348654
0.0705503
0.079304
0.0693569
-0.0488676
0.0685762
0.0433205
0.0351424
0.0043935
0.0411129
0.0437166
0.0516863
-0.00241381
0.0425063
0.0425319
0.0419739
-0.014432
0.0452728
-0.0569554
0.174382
-0.0860896
0.119919
0.0956405
0.0765548
0.104882
-0.100318
0.16903
0.191687
-0.0488803
0.0417072
-0.0366214
-0.444069
0.496186
0.0677287
-0.0125581
-0.274715
0.319556
0.0214254
0.00933692
0.0126592
0.0388018
0.051131
0.0564738
-0.00733258
0.0717422
0.191763
0.65517
-0.143997
0.840699
0.971207
-0.122829
0.907631
0.685968
0.120054
0.69999
-0.170457
0.866174
0.811642
-0.122944
0.768335
0.566385
-0.129679
-0.220818
0.5938
0.249007
0.738713
0.237974
0.672138
0.770441
0.956186
-0.465557
0.835234
0.348211
0.515531
0.228563
0.620702
0.169206
0.0707592
-0.081383
0.338598
-0.097062
0.391495
-0.143188
0.37685
-0.191794
0.190302
-0.329267
0.188773
0.256218
-0.10873
0.267678
0.472762
0.153915
0.319904
0.362927
0.355399
-0.386763
-0.210658
0.176006
0.225314
-0.0209661
0.150272
-0.216673
0.277817
-0.19164
0.2032
-0.0905831
0.0273696
-0.0524093
-0.221075
0.0946264
0.00691489
-0.226635
0.103635
0.709365
0.0663014
-0.0168018
0.0530221
0.00500459
0.0454753
-0.00490117
0.0291994
0.0126896
0.0576139
-0.00365382
0.0234413
0.0203782
-0.00606221
0.0485293
0.0660708
-0.0114883
0.0374349
0.0376476
0.0726569
0.00584713
0.0957232
-0.0547707
0.124632
-0.156321
0.0548818
0.0174042
-0.00383336
-0.0380374
-0.110099
0.070179
0.0775979
-0.0236209
0.0230541