/*--------------------------------*- C++ -*----------------------------------*\
| =========                 |                                                 |
| \\      /  F ield         | OpenFOAM: The Open Source CFD Toolbox           |
|  \\    /   O peration     | Version:  v2012                                 |
|   \\  /    A nd           | Website:  www.openfoam.com                      |
|    \\/     M anipulation  |                                                 |
\*---------------------------------------------------------------------------*/
FoamFile
{
    version     2.0;
    format      ascii;
    class       volVectorField;
    location    "7";
    object      U;
}
// * * * * * * * * * * * * * * * * * * * * * * * * * * * * * * * * * * * * * //

dimensions      [0 1 -1 0 0 0 0];


internalField   nonuniform List<vector> 
11941
(
(1.00008 0.000156544 -9.96195e-24)
(1.00011 0.000311131 4.11578e-24)
(1.00017 0.000276412 1.34533e-23)
(1.00019 0.000672469 -5.04551e-25)
(1.00004 0.000143543 0)
(1.00021 0.000659372 -5.28475e-24)
(1.00011 7.45709e-05 2.1472e-23)
(1.00015 0.00074633 -1.53265e-24)
(1.00026 0.000835667 4.81977e-24)
(1.00006 0.000341772 2.20187e-24)
(1.00037 0.00075192 0)
(1.00022 0.000221304 -8.95385e-24)
(1.0003 0.00119396 3.52709e-24)
(1.00011 0.000585123 -5.01794e-24)
(1.00038 0.0010659 0)
(1.00002 0.000156824 -4.17882e-24)
(1.00042 0.000809009 0)
(1.00022 0.000320277 0)
(1.00039 0.00126956 0)
(1.00018 0.0011994 -1.10384e-24)
(1.00016 0.000815345 2.37045e-24)
(1.00053 0.00137639 0)
(1.00004 0.000362128 1.14797e-24)
(1.00041 0.000749339 -1.90581e-23)
(1.00065 0.00128601 0)
(1.00019 5.11499e-05 0)
(1.00046 0.00164925 0)
(1.00018 0.00139915 4.88111e-25)
(1.00008 0.000711713 -8.57015e-25)
(1.00064 0.00163306 0)
(1.00001 0.000230049 2.22293e-24)
(1.00047 0.000755918 6.85277e-24)
(1.00079 0.00134693 0)
(1.00027 0.000410928 -1.64915e-23)
(1.00042 0.00185276 -7.51699e-25)
(1.00029 0.00173729 -2.29017e-24)
(1.00007 0.00136488 -5.77802e-25)
(1.00003 0.000901445 -5.90747e-25)
(1.00078 0.00187146 1.51698e-23)
(0.999967 0.0003407 -2.63648e-24)
(1.00029 0.000625323 1.02762e-24)
(1.00067 0.00111111 8.27606e-24)
(1.00101 0.00158063 0)
(1.0004 0.000139515 2.98542e-23)
(1.00055 0.00218158 7.3532e-24)
(1.00023 0.00199678 2.22196e-24)
(1.00003 0.00147668 0)
(1.00003 0.000825364 4.49663e-25)
(1.00103 0.00212517 1.9963e-24)
(1.00071 0.00230732 0)
(0.999992 9.66604e-05 -5.69706e-24)
(0.999995 0.000634574 -1.21473e-24)
(1.00041 0.000660253 0)
(1.00082 0.00101084 1.27728e-24)
(1.00112 0.00209575 -1.04494e-23)
(1.00125 0.00158971 5.31467e-24)
(1.00055 -0.000151561 -3.00185e-23)
(1.0005 0.0025709 -4.49329e-24)
(1.00028 0.0025343 -2.51387e-24)
(1.00005 0.00185314 1.45782e-25)
(0.999997 0.00134718 0)
(1.00106 0.00243792 -1.10342e-23)
(1.00084 0.00261093 2.37846e-23)
(0.999986 0.000362572 9.47235e-24)
(0.999969 0.000626175 -5.24063e-24)
(1.00051 0.000624338 0)
(1.001 0.0010495 -1.27623e-24)
(1.00141 0.00232813 1.54881e-23)
(1.00127 0.00151982 -5.09484e-24)
(1.00165 0.00214375 -2.25414e-23)
(1.00042 -2.41781e-05 0)
(1.00066 0.00303092 -5.91522e-24)
(1.00014 0.00271292 9.90599e-25)
(0.999925 0.00226135 0)
(0.99985 0.00139285 6.47836e-24)
(1.00141 0.00319193 2.04106e-23)
(1.00099 0.00316333 -5.93335e-24)
(0.999953 0.000226027 -2.92425e-24)
(0.999892 0.000839165 6.3412e-24)
(1.00075 0.000690699 0)
(1.00098 0.000830256 0)
(1.00173 0.00300831 -3.18567e-23)
(1.00147 0.0013852 0)
(1.00199 0.00209313 -2.09851e-24)
(1.00052 0.000273863 1.08483e-23)
(1.00053 0.00349939 7.35044e-24)
(0.999965 0.00255816 0)
(1.00024 0.00347562 -1.75632e-24)
(0.999763 0.00200909 -1.67718e-23)
(0.999815 0.00149816 4.37086e-24)
(1.00123 0.00335503 -1.98016e-23)
(0.999887 0.000362695 0)
(0.999867 0.000912084 -9.24578e-24)
(1.00065 0.000646774 2.17786e-23)
(1.00127 0.00102638 4.57061e-23)
(1.00216 0.0032775 3.59343e-24)
(1.0019 0.00174145 -2.12352e-23)
(1.00246 0.00276743 3.98201e-23)
(1.00074 -0.00034484 1.77313e-23)
(1.00077 0.00400579 -5.10631e-24)
(0.999795 0.00308098 -3.46668e-24)
(1 0.00355905 -8.33585e-25)
(0.999526 0.0022257 1.55975e-23)
(0.999759 0.0014392 -1.53584e-23)
(1.0013 0.00385266 1.07202e-23)
(0.999928 0.00015896 0)
(0.99984 0.000701278 7.72106e-24)
(1.00081 0.000442394 -2.36812e-23)
(1.00143 0.000894723 -2.043e-23)
(1.00231 0.00368517 6.32769e-25)
(1.00219 0.00158649 -1.86703e-24)
(1.00295 0.00271271 -5.66515e-23)
(1.00062 8.96464e-05 1.24779e-23)
(1.00062 0.00463949 4.94675e-24)
(0.999527 0.00310414 7.87586e-24)
(0.99992 0.00395881 0)
(0.999409 0.00259245 -4.44995e-24)
(0.999511 0.00189979 0)
(0.999644 0.00145466 8.91284e-24)
(1.00174 0.00411907 -1.93928e-23)
(0.999865 0.000285093 4.10568e-24)
(0.999778 0.000813034 -1.086e-23)
(1.00052 0.000316831 -1.86272e-23)
(1.00122 0.000539055 4.93087e-24)
(1.00187 0.00113595 1.61278e-24)
(1.00295 0.004105 1.74849e-23)
(1.00206 0.0041707 2.37407e-23)
(1.0026 0.0017607 1.45961e-23)
(1.00293 0.00226312 0)
(1.00342 0.00327662 5.22358e-23)
(1.00088 -0.000697308 -3.63128e-24)
(1.00101 0.00538381 0)
(1.00015 0.00476804 2.18621e-24)
(0.999364 0.00377543 -1.47152e-23)
(0.999477 0.00399594 9.72029e-24)
(0.999119 0.00284301 1.30785e-23)
(0.99929 0.00199681 0)
(0.999668 0.00115889 -1.42347e-24)
(1.00184 0.00542322 0)
(0.999809 0.00065571 2.85249e-23)
(0.999912 8.23935e-05 -3.7442e-24)
(1.00073 0.000168273 -6.83837e-24)
(1.00141 0.000484512 1.91296e-23)
(1.00211 0.000846492 2.04829e-24)
(1.00352 0.00375318 -1.62113e-23)
(1.00297 0.00487791 -1.03455e-23)
(1.00239 0.00505735 0)
(1.0029 0.00127195 5.61692e-23)
(1.00349 0.00222469 0)
(1.00401 0.0028074 2.45864e-23)
(1.00053 -0.000762011 3.7777e-23)
(1.00071 0.00599672 2.03763e-24)
(0.99982 0.00519441 1.55929e-24)
(0.998955 0.00354478 1.47785e-24)
(0.999211 0.00487855 -1.58264e-23)
(0.998895 0.00281532 0)
(0.99912 0.00214287 0)
(0.99943 0.00150549 1.89063e-24)
(0.999576 0.0012239 -1.67061e-23)
(1.00222 0.00545211 0)
(0.999782 0.000648258 -3.21019e-23)
(0.99984 0.000344508 1.43283e-23)
(1.00117 0.000263668 -1.42056e-23)
(1.00148 0.000403003 -2.35026e-23)
(1.00185 0.000591859 0)
(1.0027 0.000982343 2.24352e-24)
(1.00426 0.0042947 -2.82034e-23)
(1.00349 0.00545752 1.0044e-25)
(1.00366 0.00158708 -4.68048e-23)
(1.00458 0.00274528 3.27161e-23)
(1.0004 0.000671309 -3.68707e-23)
(1.00107 0.0068678 -5.98178e-24)
(0.999954 0.00596264 5.47503e-24)
(0.99856 0.00377416 -1.32637e-23)
(0.998778 0.00506184 8.17243e-24)
(0.998558 0.0027642 0)
(0.998948 0.00201722 -2.20732e-23)
(0.999266 0.00147862 -1.95609e-23)
(0.999677 0.000904056 1.54286e-23)
(1.00257 0.00636144 2.64453e-23)
(0.999725 0.000378751 1.69222e-23)
(1.00119 2.30011e-05 0)
(1.00142 0.000167119 3.65861e-23)
(1.00207 0.000235917 0)
(1.00295 0.000696717 -3.14097e-23)
(1.00411 0.0052401 1.49587e-23)
(1.00499 0.00395728 4.65598e-23)
(1.0035 0.00628142 -3.29073e-23)
(1.00424 0.00140641 -6.83562e-23)
(1.00481 0.0017534 6.68719e-23)
(1.00503 0.00340217 -8.38105e-23)
(1.00174 -0.000665644 2.0042e-23)
(1.00055 0.000540205 3.01914e-23)
(1.00053 0.0076363 3.98466e-24)
(1.00206 0.00697916 -9.17359e-24)
(0.999493 0.00654099 -1.04652e-23)
(0.998209 0.00326613 -1.02739e-24)
(0.998403 0.00449501 2.44808e-23)
(0.998644 0.00568858 -1.46866e-23)
(0.998609 0.00250259 5.9436e-25)
(0.999034 0.0017333 1.97264e-23)
(0.999394 0.00119425 2.3843e-23)
(0.99953 0.000972124 -5.27789e-24)
(0.999701 0.000513083 1.45987e-24)
(0.999817 1.89046e-05 -6.18501e-25)
(1.00122 7.07997e-05 -5.29237e-23)
(1.0017 -6.69946e-05 0)
(1.00249 7.88922e-05 0)
(1.00351 0.000388167 0)
(1.00476 0.00578737 -2.10485e-23)
(1.00567 0.0045467 1.12326e-23)
(1.0041 0.00723932 -2.96629e-23)
(1.00428 0.000904233 6.83543e-23)
(1.00553 0.00192873 -7.12218e-23)
(1.0057 0.00282531 4.97882e-23)
(1.00123 -0.00202998 -5.10013e-23)
(1.0002 -0.000175712 0)
(1.00086 0.00868724 1.55927e-24)
(0.999791 0.00750641 4.71517e-24)
(1.00257 0.00811465 -4.15873e-24)
(0.998955 0.00649751 0)
(0.997751 0.00347248 0)
(0.997792 0.00457819 -3.01399e-23)
(0.997883 0.00581387 1.58318e-23)
(0.998239 0.00228735 -1.91215e-23)
(0.998854 0.00162701 0)
(0.999262 0.00115217 0)
(0.999603 0.000695311 1.7768e-23)
(0.999689 0.000495335 -1.42048e-23)
(0.999795 0.000171502 2.53751e-23)
(1.00108 -0.000379839 3.51835e-23)
(1.00159 -0.000219148 2.87204e-23)
(1.00255 -0.000137813 0)
(1.00344 -0.000197336 0)
(1.00556 0.00526107 -4.32517e-23)
(1.00514 0.00721639 4.69398e-23)
(1.00643 0.00420324 -6.15164e-23)
(1.00372 0.00807071 -1.43307e-23)
(1.0049 6.43848e-05 -4.13797e-23)
(1.00612 0.00129997 6.7866e-23)
(1.00646 0.00326531 -5.00702e-23)
(1.00075 -0.00055092 1.94383e-23)
(1.00031 -0.000147591 0)
(1.00191 0.00882033 -4.5014e-24)
(1.00022 0.00946279 -7.17073e-25)
(0.999261 0.00806258 4.04514e-24)
(0.998438 0.00715934 -1.80521e-23)
(0.997443 0.00317205 -7.09757e-24)
(0.997571 0.00409166 0)
(0.997491 0.00553862 0)
(0.997528 0.00667434 0)
(0.998617 0.00164855 2.40435e-23)
(0.997928 0.00230086 0)
(0.99909 0.00123051 1.2631e-23)
(0.999443 0.000839506 -1.35267e-23)
(0.999601 0.000530717 -1.18479e-23)
(0.999796 2.62518e-06 0)
(1.00125 -0.000466342 -2.91686e-23)
(1.00176 -0.000384131 -3.38403e-23)
(1.0022 -0.000376411 0)
(1.00288 -0.000508427 0)
(1.00392 -0.000628821 -2.91539e-23)
(1.00643 0.00633051 4.67263e-23)
(1.00592 0.00726187 -1.93603e-23)
(1.00722 0.00473885 8.13868e-23)
(1.0044 0.00924194 1.72973e-23)
(1.00585 0.000317246 -5.24195e-23)
(1.00463 -0.000487348 7.55485e-23)
(1.00706 0.00169691 0)
(1.00722 0.00266003 6.44911e-23)
(1.00125 -0.00218534 2.04949e-23)
(1.00091 -0.00045312 1.62753e-23)
(1.0024 0.0102014 5.47101e-24)
(1.00039 0.0104715 1.0263e-24)
(0.999446 0.00923373 2.04894e-24)
(0.998482 0.0078546 1.80461e-23)
(0.996785 0.0033546 1.21608e-23)
(0.997589 0.00268006 0)
(0.997011 0.00442618 -2.67863e-23)
(0.996771 0.00530164 0)
(0.996815 0.00705846 1.45281e-23)
(0.998583 0.00145132 0)
(0.997962 0.00171659 -5.70757e-23)
(0.999065 0.00111131 -1.23872e-23)
(0.999401 0.000774366 -1.22235e-23)
(0.999695 0.000522803 0)
(0.999755 0.000254071 0)
(1.0014 -0.00080061 2.78109e-23)
(1.00162 -0.000869128 4.51666e-24)
(1.00226 -0.000911624 -2.8059e-23)
(1.00275 -0.000839942 0)
(1.00359 -0.00152566 -7.28562e-23)
(1.00751 0.00608818 0)
(1.00648 0.00818474 0)
(1.00806 0.0039985 0)
(1.00352 0.0102993 0)
(1.00565 0.00939256 0)
(1.00652 -0.000601014 -3.71613e-23)
(1.0049 -0.00113511 9.25849e-23)
(1.00779 0.000877883 5.52324e-23)
(1.00805 0.00315128 -7.24677e-23)
(1.00033 -0.00146185 -4.57376e-23)
(1.00142 0.0108101 0)
(0.999516 0.0115907 3.89738e-24)
(0.998649 0.00958662 -8.5426e-24)
(0.997782 0.00859744 0)
(0.996336 0.00281089 0)
(0.996479 0.00423603 2.48452e-23)
(0.997153 0.00227506 2.04695e-23)
(0.996236 0.0055354 3.53227e-23)
(0.996137 0.0068312 -7.55955e-23)
(0.996819 0.00799288 0)
(0.998891 0.00112516 0)
(0.998309 0.00141695 3.54271e-23)
(0.997488 0.00176128 0)
(0.999295 0.000817577 1.22445e-23)
(0.999618 0.000507774 0)
(0.9996 -6.56452e-05 0)
(1.00141 -0.00108067 -5.26737e-23)
(1.00199 -0.00104032 2.16106e-23)
(1.00144 -0.00100846 4.81283e-23)
(1.00296 -0.00150883 1.89185e-23)
(1.00405 -0.00169325 4.19451e-23)
(1.00834 0.00623509 4.36012e-23)
(1.00802 0.0085132 9.0094e-23)
(1.00918 0.00516276 0)
(1.00402 0.0122189 -4.69076e-24)
(1.00623 0.0108774 2.40933e-24)
(1.00627 -0.00141694 -1.05194e-24)
(1.00757 -0.000150834 4.71297e-23)
(1.00542 -0.00174543 -6.18273e-23)
(1.00887 0.00118946 4.80268e-23)
(1.00889 0.00268666 -6.45968e-24)
(1.00071 -0.000181891 -2.95823e-23)
(1.0016 0.0125671 0)
(0.999686 0.0126668 -3.95492e-24)
(0.998768 0.0114016 0)
(0.997974 0.00934294 -1.89291e-24)
(0.99565 0.00326035 -3.46835e-23)
(0.996555 0.00245022 -1.70498e-23)
(0.99583 0.00407424 0)
(0.99562 0.00534702 2.50936e-23)
(0.995401 0.00685032 2.06615e-23)
(0.995993 0.00871695 0)
(0.998963 0.000963338 -1.34434e-23)
(0.998394 0.00113032 3.75619e-23)
(0.997336 0.00139693 1.4012e-23)
(0.999358 0.000680635 0)
(0.999679 0.000463523 0)
(0.999692 0.000197496 0)
(1.00073 -0.000759342 3.40578e-23)
(1.00205 -0.00153206 -1.59942e-23)
(1.00141 -0.00138011 -7.40606e-24)
(1.00254 -0.00177721 7.30086e-24)
(1.004 -0.00256101 0)
(1.00897 0.00721472 -8.09571e-23)
(1.00847 0.00953352 -7.72809e-23)
(1.01024 0.00437334 5.25731e-23)
(1.00266 0.0130757 5.21223e-24)
(1.00534 0.012371 -2.37793e-24)
(1.00766 0.0109117 0)
(1.00689 -0.00252472 4.04309e-23)
(1.0084 -0.00110558 2.0901e-24)
(1.00502 -0.00270114 6.8994e-23)
(1.0099 0.000862258 -1.13707e-22)
(1.00992 0.00322849 -6.77736e-23)
(1.00132 -0.00297251 1.71974e-23)
(0.999039 0.0139789 1.95776e-24)
(0.997447 0.0116876 -2.87963e-23)
(0.997316 0.00999893 1.83077e-23)
(0.994976 0.00282625 9.48306e-23)
(0.996255 0.00189713 0)
(0.995356 0.00471738 0)
(0.995066 0.00600571 -2.71484e-23)
(0.994792 0.00786493 -3.62761e-23)
(0.995091 0.00852342 0)
(0.9963 0.00958855 -1.54713e-23)
(0.998767 0.000833352 -1.51411e-23)
(0.999219 0.000666883 -1.33084e-23)
(0.998118 0.00100658 0)
(0.997808 0.000929991 0)
(0.996748 0.00111675 -1.70943e-23)
(0.999541 0.000416804 -2.50505e-23)
(0.999456 -0.000239483 -2.18331e-23)
(1.00064 -0.000854809 0)
(1.00162 -0.00176527 1.42681e-23)
(1.00076 -0.00119329 3.31289e-23)
(1.0025 -0.00224522 -3.7829e-23)
(1.00361 -0.00285297 -3.5662e-23)
(1.01073 0.00754649 -1.72918e-23)
(1.00999 0.0101499 1.35586e-22)
(1.01152 0.00493841 -1.71786e-23)
(1.00249 0.0148439 2.4697e-23)
(1.006 0.0139184 -2.41011e-23)
(1.00843 0.0125929 0)
(1.00637 -0.00353861 -4.06179e-23)
(1.00797 -0.00228576 -1.77748e-22)
(1.0095 -0.000971583 0)
(1.00536 -0.00342845 -5.24306e-23)
(1.01066 0.00203088 0)
(1.01025 0.000133897 5.74072e-23)
(1.00115 -0.00135198 -1.88319e-23)
(1.0003 0.0153876 -1.85863e-24)
(0.997728 0.0141695 1.42126e-23)
(0.996826 0.01198 4.92296e-23)
(0.99424 0.003526 -8.57956e-23)
(0.994981 0.00230042 -6.30402e-23)
(0.995561 0.00175989 3.15964e-23)
(0.994429 0.00449263 -5.54607e-25)
(0.994165 0.00595733 -8.22598e-23)
(0.993558 0.00714882 9.08057e-23)
(0.99418 0.00916341 6.04258e-23)
(0.995649 0.011091 -4.67991e-23)
(0.998938 0.000673408 0)
(0.99929 0.00050957 3.88984e-23)
(0.99851 0.000590159 -1.55477e-23)
(0.997763 0.000534912 -2.25026e-24)
(0.99656 0.00105566 0)
(0.999628 0.000414214 0)
(0.9996 0.000148545 0)
(1.00146 -0.00198849 -7.9058e-24)
(1.0007 -0.00165205 -6.84457e-23)
(1.00193 -0.00253631 -5.35659e-23)
(1.00282 -0.0029035 3.50921e-23)
(1.0037 -0.00422681 -3.89845e-23)
(1.01196 0.00636182 -6.23406e-23)
(1.01107 0.00930418 -1.11381e-22)
(1.01018 0.0116811 -3.23885e-23)
(1.01258 0.0032592 4.47115e-23)
(1.00367 0.0161127 -3.10741e-23)
(1.00539 0.0156392 3.2136e-23)
(1.00791 0.0137225 0)
(1.00674 -0.00433829 1.29292e-23)
(1.00861 -0.00338485 1.90859e-22)
(1.01009 -0.00230397 1.35984e-22)
(1.00488 -0.00467691 0)
(1.01201 0.00215595 -6.90006e-25)
(1.01153 -0.000577245 -4.45754e-23)
(1.00136 -0.00384162 -2.82422e-23)
(0.999787 0.0176789 -6.49217e-24)
(0.99664 0.0129334 -4.19004e-23)
(0.997108 0.0158525 0)
(0.993397 0.00323411 -3.48463e-23)
(0.994346 0.0017237 5.34512e-23)
(0.995517 0.000552043 0)
(0.993781 0.00536983 9.37421e-23)
(0.992567 0.00744076 3.66946e-23)
(0.993169 0.00907745 -7.57571e-23)
(0.994403 0.011197 5.69078e-23)
(0.998838 0.000497522 0)
(0.999177 0.00049318 0)
(0.998373 0.000260028 1.50171e-23)
(0.997463 0.000209535 -2.6689e-23)
(0.996161 0.000291406 0)
(0.996838 0.000181987 9.03269e-23)
(0.999498 0.000194718 0)
(0.999303 -0.00046999 2.29358e-23)
(1.00102 -0.00193169 6.329e-23)
(1.00161 -0.00241442 3.50989e-23)
(1.00116 -0.00199078 5.23267e-23)
(1.00188 -0.00337631 -1.5953e-23)
(1.0024 -0.00361742 7.31565e-23)
(1.003 -0.00450743 7.33092e-23)
(1.01364 0.00689228 9.68271e-23)
(1.01282 0.0097652 1.02917e-23)
(1.01193 0.0132967 0)
(1.01421 0.00346606 -5.39728e-23)
(1.00287 0.0178468 1.42854e-23)
(1.00687 0.0172922 -5.18022e-24)
(1.00921 0.0148892 3.34276e-23)
(1.00612 -0.00606235 -1.0936e-23)
(1.00803 -0.00441202 -4.01356e-23)
(1.00979 -0.00320777 -9.91844e-23)
(1.01159 -0.00171758 -9.2933e-23)
(1.0049 -0.00506814 0)
(1.01268 0.000616005 -6.64169e-24)
(0.997794 0.017643 -1.44856e-23)
(1.00092 0.0184962 3.8992e-24)
(0.994983 0.0135515 0)
(0.994836 0.0155907 -1.95805e-23)
(0.992609 0.0042803 -1.09606e-22)
(0.993196 0.00242733 8.50142e-23)
(0.994808 0.00042127 -3.09132e-25)
(0.993657 0.00175656 -5.86634e-23)
(0.992799 0.00490731 3.7382e-23)
(0.992374 0.00821627 -6.34349e-23)
(0.991819 0.0060817 0)
(0.992522 0.0108727 2.27785e-23)
(0.993684 0.0115747 -8.72965e-23)
(0.999008 0.000220057 0)
(0.999189 0.000195331 0)
(0.998519 0.000122656 0)
(0.997781 -0.000189454 -1.54759e-24)
(0.99643 0.000105241 9.98349e-23)
(0.999748 0.000216642 2.46532e-23)
(0.999525 4.69909e-05 -1.6954e-23)
(1.00072 -0.00238643 -2.9771e-23)
(1.00118 -0.00264983 0)
(1.00122 -0.00467309 -2.41257e-23)
(1.00131 -0.00356663 3.90427e-23)
(1.00242 -0.00404061 -8.10193e-23)
(1.00278 -0.00525248 1.65976e-23)
(1.014 0.00851358 1.62168e-22)
(1.01489 0.00579929 -7.80246e-23)
(1.01357 0.0123398 -1.76205e-23)
(1.01122 0.0143685 -8.68009e-23)
(1.01548 0.00209962 -1.88334e-23)
(1.00415 0.0197973 3.73777e-25)
(1.00632 0.0192949 6.9878e-24)
(1.0087 0.0170963 -3.35736e-23)
(1.00761 -0.00690885 -3.00852e-23)
(1.00528 -0.00648977 0)
(1.00853 -0.00579314 -2.71392e-24)
(1.01051 -0.00425299 4.09935e-23)
(1.01245 -0.00333729 1.45068e-22)
(1.00405 -0.00589564 0)
(1.01419 -0.000189478 7.51281e-23)
(0.996361 0.0190598 2.85938e-24)
(1.00043 0.0214888 4.95193e-25)
(0.993566 0.0128915 6.29973e-23)
(0.993405 0.0164116 5.78922e-23)
(0.991705 0.00349274 2.36119e-23)
(0.992155 0.00251536 0)
(0.994462 2.63016e-05 8.00394e-23)
(0.993281 0.00121123 4.91267e-23)
(0.991172 0.00882767 0)
(0.990715 0.00590313 7.00012e-23)
(0.991212 0.010456 -5.14569e-23)
(0.99899 0.000113367 3.34305e-24)
(0.998872 -1.3618e-05 -3.76865e-24)
(0.998323 -0.000222662 -1.65862e-24)
(0.997668 -0.000706961 0)
(0.99626 -0.000214796 -5.33192e-23)
(0.9996 0.000337651 -2.27948e-23)
(0.999136 -0.000815569 1.58223e-23)
(1.0009 -0.00249079 2.53997e-23)
(1.0011 -0.00289314 2.16013e-23)
(1.00152 -0.00222973 3.07225e-23)
(1.00118 -0.00370704 -1.79416e-23)
(1.00188 -0.00433999 4.26623e-23)
(1.00317 -0.00600746 3.67144e-23)
(1.00188 -0.00525798 -2.58674e-23)
(1.01596 0.00918954 -9.37776e-23)
(1.01678 0.0060739 4.61834e-23)
(1.01541 0.0128597 0)
(1.0126 0.0165756 9.64386e-23)
(1.0156 0.000753163 -1.03059e-22)
(1.01761 0.00410497 2.11945e-23)
(1.00303 0.0220801 -1.88429e-23)
(1.00791 0.0217775 -7.93149e-24)
(1.01041 0.0183645 9.51873e-23)
(1.00763 -0.00790975 0)
(1.00502 -0.00650826 0)
(1.00973 -0.00579825 -9.00888e-23)
(1.01201 -0.00413716 -8.5852e-23)
(1.01405 -0.00229197 -8.9651e-23)
(0.996713 0.021416 4.65996e-23)
(0.9937 0.0183711 -1.08235e-22)
(0.998825 0.0223498 2.31208e-24)
(0.992068 0.01342 -6.48433e-23)
(0.99164 0.0158964 -3.8284e-23)
(0.9906 0.00378292 0)
(0.991693 0.00178574 -5.61056e-23)
(0.994474 -0.000693835 -7.4564e-23)
(0.993638 0.000360505 0)
(0.992393 0.0010618 -5.79786e-23)
(0.990079 0.00814114 0)
(0.989907 0.00708142 0)
(0.990205 0.0045561 -7.48567e-23)
(0.990283 0.0114615 7.90055e-23)
(0.999419 0.000246349 0)
(0.998955 -0.0004018 0)
(0.998595 -0.000426987 -9.72881e-25)
(0.997123 -0.000939247 -8.67838e-24)
(0.998196 -0.00101141 2.80781e-23)
(0.995724 -0.000896161 -2.39128e-23)
(0.999449 -0.000145687 0)
(1.00075 -0.00303422 0)
(1.00086 -0.0031212 0)
(1.00136 -0.00634916 -3.50229e-23)
(1.00113 -0.00408381 2.88339e-23)
(1.00078 -0.00355333 3.90035e-23)
(1.00142 -0.00438396 -1.83478e-23)
(1.0026 -0.00672116 0)
(1.00152 -0.00531927 -1.9122e-23)
(1.01673 0.0114672 -1.53962e-23)
(1.01746 0.00677705 -5.60993e-23)
(1.01614 0.0154442 1.49004e-23)
(1.01482 0.0169654 0)
(1.01745 -0.000388554 1.71566e-22)
(1.01954 0.00336977 5.15593e-23)
(1.00397 0.0235245 0)
(1.00699 0.0233453 0)
(1.01048 0.0208699 -8.40387e-23)
(1.00654 -0.00843979 0)
(1.00898 -0.00845979 -5.22505e-23)
(1.00462 -0.00766263 -5.31975e-23)
(1.0106 -0.00649492 1.23206e-22)
(1.01227 -0.00577364 7.99536e-23)
(1.01554 -0.0034005 1.25161e-22)
(0.994571 0.0224499 -3.25243e-23)
(0.99197 0.0196514 3.37375e-23)
(0.998885 0.025305 1.42311e-23)
(0.990686 0.0126164 2.92159e-23)
(0.990081 0.0157816 3.99392e-23)
(0.989836 0.00222023 0)
(0.990513 0.00116205 5.36834e-23)
(0.993685 -0.00113753 0)
(0.995033 -0.00104918 0)
(0.993004 -0.000222036 0)
(0.992142 0.000276011 6.88705e-23)
(0.988804 0.00908381 0)
(0.988664 0.0061176 1.74182e-23)
(0.988921 0.00480561 -1.51397e-23)
(0.988857 0.0107257 -8.17894e-23)
(0.999496 -0.000249891 0)
(0.998859 -0.000480227 -3.20827e-23)
(0.998552 -0.000700049 0)
(0.997152 -0.00154944 -3.04118e-23)
(0.998297 -0.00136067 -5.33438e-23)
(0.996368 -0.00163625 0)
(0.999087 -0.001069 0)
(1.00088 -0.00298586 0)
(1.00163 -0.00296012 0)
(1.00067 -0.00429629 -3.12784e-23)
(1.0006 -0.00364046 -4.07378e-23)
(1.00107 -0.00493432 -1.94954e-23)
(1.00169 -0.00654885 3.03121e-23)
(1.00293 -0.00789434 5.18819e-23)
(1.00122 -0.00594886 0)
(1.01911 0.0115342 7.54354e-23)
(1.02014 0.00870632 1.66151e-23)
(1.01889 0.015533 1.71918e-22)
(1.01561 0.0202629 -9.70094e-24)
(1.01949 0.0009968 -2.55115e-23)
(1.01742 -0.00241212 0)
(1.0215 0.0048348 1.40353e-22)
(1.00304 0.0268193 -2.93167e-23)
(1.00827 0.0252869 -1.59049e-23)
(1.01299 0.0221864 -5.5446e-23)
(1.00527 -0.00834097 -4.79705e-23)
(1.0068 -0.00992225 0)
(1.01025 -0.007805 -5.75061e-23)
(1.00899 -0.00966052 7.47212e-23)
(1.01357 -0.00636896 8.85301e-23)
(1.01523 -0.00541381 -1.75505e-23)
(0.994379 0.0253916 -2.89195e-23)
(0.99249 0.0214671 4.17585e-23)
(0.989816 0.0190506 6.13321e-23)
(1.0009 0.027246 0)
(0.99581 0.0264697 -1.91189e-23)
(0.989364 0.0142345 1.07228e-22)
(0.98897 0.0170354 -1.2169e-22)
(0.988348 0.00211959 4.17557e-23)
(0.990316 0.000622804 -3.59736e-23)
(0.992992 -0.000726578 -4.84305e-23)
(0.993563 -0.00214846 -3.38326e-23)
(0.995 -0.00217008 3.72431e-23)
(0.991341 -0.000127355 -1.48009e-22)
(0.987341 0.00812299 0)
(0.987373 0.00669995 4.00602e-23)
(0.987947 0.00376066 -5.99727e-23)
(0.987376 0.0115506 9.53558e-23)
(0.999709 -0.000291866 -2.21847e-23)
(0.998973 -0.000712479 0)
(0.99895 -0.000894912 0)
(0.997515 -0.00189514 -1.55351e-23)
(0.998051 -0.00184481 5.66966e-23)
(0.998824 -0.00155944 -5.85524e-23)
(0.996205 -0.00219654 0)
(0.999306 -0.000449361 0)
(1.00058 -0.00343845 1.91097e-23)
(1.00174 -0.00699595 4.08851e-23)
(1.00048 -0.00457416 -1.24793e-23)
(1.00047 -0.00418758 -3.48193e-23)
(1.00069 -0.00493041 1.39976e-23)
(1.00093 -0.00723492 -3.22624e-23)
(1.00212 -0.00864354 0)
(1.00039 -0.0058047 0)
(1.02022 0.0128512 -1.61554e-22)
(1.02212 0.00745013 -2.91787e-22)
(1.02085 0.0196394 -9.18777e-23)
(1.01867 0.0212009 8.89294e-23)
(1.02152 -0.000432923 -7.16257e-23)
(1.01928 -0.00359339 -5.36111e-23)
(1.02359 0.00329455 -4.16091e-23)
(1.00536 0.0277998 5.00215e-23)
(1.01057 0.0273257 0)
(1.01301 0.025745 6.22701e-23)
(1.00454 -0.00952173 5.72685e-23)
(1.00783 -0.0103246 0)
(1.00576 -0.0105837 -4.30749e-23)
(1.01172 -0.00893449 0)
(1.00996 -0.010793 -4.57797e-23)
(1.01334 -0.00828088 0)
(1.01697 -0.00677821 -2.30543e-22)
(0.99145 0.0251592 7.41543e-23)
(0.990627 0.0234175 -1.94902e-23)
(0.987885 0.0206605 -9.12175e-23)
(1.00012 0.0296655 1.07242e-23)
(0.994789 0.0295418 2.51271e-24)
(0.98737 0.0133631 -1.04665e-22)
(0.986602 0.0165398 1.49448e-22)
(0.987709 0.00131846 1.97714e-24)
(0.989553 -0.000576848 -1.77414e-22)
(0.992318 -0.00159455 5.28943e-23)
(0.994132 -0.00262545 5.52704e-23)
(0.992612 -0.00229201 2.81065e-24)
(0.995625 -0.00258816 -3.84313e-23)
(0.991456 -0.00134634 6.28229e-23)
(0.985882 0.00908538 0)
(0.986175 0.00554245 5.03321e-23)
(0.986515 0.00425874 3.81895e-23)
(0.986014 0.0108046 0)
(0.999404 -0.00017469 4.76191e-23)
(0.999118 -0.000577352 -1.2371e-23)
(0.999002 -0.0011073 2.62269e-23)
(0.997402 -0.0026123 1.31109e-24)
(0.998443 -0.0023186 1.42185e-23)
(0.998933 -0.00178697 -6.7785e-24)
(0.996726 -0.00269453 -2.77402e-23)
(0.999086 -0.00174315 5.5494e-24)
(1.00059 -0.00320581 -1.72775e-23)
(1.00139 -0.00346459 -6.52255e-23)
(1.00023 -0.00440031 2.74817e-23)
(1.00006 -0.00389825 0)
(1.00039 -0.00522786 0)
(0.999908 -0.00679946 0)
(1.00115 -0.00828687 -3.52737e-23)
(1.00244 -0.00955666 -1.0428e-22)
(0.999789 -0.00608764 0)
(1.02321 0.0138163 2.88929e-23)
(1.02477 0.00905173 1.91852e-22)
(1.024 0.0183558 2.3358e-22)
(1.01924 0.0237314 -1.24331e-22)
(1.02363 0.000871996 2.0585e-22)
(1.02132 -0.00259276 1.44033e-22)
(1.01898 -0.00589693 2.03503e-22)
(1.02608 0.00479627 -1.45363e-22)
(1.00616 0.0305069 6.09647e-23)
(1.00974 0.0293182 -4.43006e-23)
(1.01603 0.027151 0)
(1.00344 -0.00992679 9.22262e-23)
(1.00779 -0.0118297 -1.87697e-23)
(1.0056 -0.0119949 3.02748e-23)
(1.01135 -0.0104942 0)
(1.00929 -0.0121901 4.45383e-23)
(1.0148 -0.00952163 1.37515e-22)
(1.01662 -0.0089357 -7.26479e-23)
(0.989893 0.028159 0)
(0.988222 0.0227151 8.62723e-23)
(0.98507 0.0185703 -8.85202e-23)
(1.00182 0.0330209 -8.55647e-24)
(0.996906 0.0310363 -3.48392e-24)
(0.991515 0.0299706 0)
(0.985819 0.0152597 0)
(0.986334 0.00174062 0)
(0.987844 0.000340562 0)
(0.988606 -0.000628406 2.01886e-22)
(0.990498 -0.00178378 6.9634e-23)
(0.994127 -0.00342853 -1.95707e-23)
(0.992209 -0.00297125 -4.82249e-23)
(0.995712 -0.0035356 -4.47973e-24)
(0.984333 0.00776175 0)
(0.984622 0.0061574 -1.10182e-22)
(0.985595 0.00287394 -4.19866e-23)
(0.98439 0.0115571 -9.32166e-23)
(0.99967 -0.00148173 -3.48397e-23)
(0.999405 -0.000589548 0)
(0.99929 -0.00116172 3.1391e-23)
(0.997814 -0.00301385 2.91541e-23)
(0.998941 -0.00234108 4.01915e-23)
(0.998355 -0.00290282 8.11823e-24)
(0.999178 -0.00181907 6.51541e-24)
(0.996635 -0.00356745 4.20532e-24)
(1.00123 -0.0066052 1.69672e-23)
(1.00046 -0.00430787 3.02957e-23)
(0.999916 -0.00445473 1.21847e-23)
(1.00026 -0.00389454 0)
(0.999984 -0.00499598 1.1787e-23)
(0.999029 -0.00726563 2.07389e-23)
(1.00015 -0.0088625 5.79868e-23)
(1.00138 -0.0107745 -4.29083e-25)
(0.999203 -0.00566804 0)
(1.02521 0.0118441 0)
(1.02689 0.00722062 0)
(1.02694 0.0196378 -2.92084e-22)
(1.02316 0.0261965 0)
(1.02579 -0.000435991 -2.78859e-22)
(1.02325 -0.00411995 4.80078e-23)
(1.0209 -0.00731126 -4.17297e-22)
(1.02819 0.00139525 9.52898e-23)
(1.00458 0.0332858 0)
(1.01176 0.0338145 0)
(1.01649 0.0311438 0)
(1.00352 -0.0116781 0)
(1.00671 -0.0125962 4.10537e-23)
(1.00444 -0.0123723 -2.39206e-23)
(1.01251 -0.0120837 1.08847e-22)
(1.0098 -0.0135808 0)
(1.01416 -0.0117803 -1.14076e-22)
(1.01835 -0.0104145 -4.36489e-23)
(0.986516 0.0273895 0)
(0.98605 0.0241684 -6.75638e-23)
(0.983128 0.0193583 0)
(0.999674 0.0356369 -1.34692e-24)
(0.996088 0.0348662 3.36666e-23)
(0.990244 0.0334406 -5.77122e-23)
(0.983647 0.0146924 0)
(0.9856 8.14429e-05 4.69609e-23)
(0.986641 -0.000375858 -1.51918e-22)
(0.988286 -0.00208223 -3.00801e-23)
(0.990407 -0.00250824 1.39914e-22)
(0.994707 -0.00381332 -1.16626e-22)
(0.993519 -0.00420406 1.23421e-22)
(0.991199 -0.00304184 -6.29711e-23)
(0.992797 -0.00399414 0)
(0.995432 -0.00394667 7.41462e-25)
(0.982696 0.00860456 4.11658e-23)
(0.983279 0.00445326 -5.78655e-23)
(0.983799 0.00296057 5.20747e-23)
(0.982742 0.0100991 4.63842e-23)
(0.999516 -0.000542642 3.13201e-23)
(0.999437 -0.000883012 -2.78355e-23)
(0.999272 -0.0017103 -2.99935e-23)
(0.997794 -0.00375457 0)
(0.999178 -0.00248556 -3.97438e-23)
(0.998759 -0.00327373 2.44724e-23)
(0.999272 -0.0024472 -8.28348e-24)
(0.9971 -0.00395282 -4.84166e-23)
(0.99956 -0.00516538 0)
(1.00024 -0.00356714 -3.51837e-23)
(0.999692 -0.00461635 -2.74554e-23)
(0.999509 -0.00507615 0)
(0.998271 -0.00670502 -3.92496e-23)
(0.999133 -0.00830773 -4.35078e-23)
(1.00029 -0.0104212 0)
(1.0022 -0.0118011 7.9851e-23)
(0.998718 -0.00547504 0)
(1.02876 0.013339 -8.36447e-23)
(1.0302 0.00734558 -1.79917e-22)
(1.02995 0.0166722 3.01115e-22)
(1.02784 0.0236861 4.7439e-23)
(1.02029 0.0310262 -1.19704e-22)
(1.02584 0.0264823 0)
(1.02816 0.000630173 0)
(1.02555 -0.00313421 -3.0751e-22)
(1.0229 -0.0064658 2.99083e-22)
(1.02055 -0.00949096 -1.38428e-22)
(1.03189 0.00434349 -1.16702e-23)
(1.00676 0.0362076 0)
(1.0145 0.033917 0)
(1.00694 -0.0140552 -2.96038e-23)
(1.00414 -0.0141547 3.18138e-23)
(1.01173 -0.0135985 5.08356e-23)
(1.00842 -0.0145278 -1.87547e-23)
(1.01578 -0.0127494 -2.01361e-22)
(1.01785 -0.0121997 1.15171e-22)
(0.984307 0.0293219 -8.08549e-23)
(0.983676 0.0228351 6.70461e-23)
(0.981166 0.0184632 -3.83841e-23)
(1.00003 0.0382021 5.67311e-24)
(0.993178 0.0358309 -2.02166e-23)
(0.98694 0.034028 6.80223e-23)
(0.981851 0.0146056 0)
(0.984202 4.90724e-05 0)
(0.986587 -0.00167399 7.62341e-23)
(0.988625 -0.00295427 -9.78948e-23)
(0.989639 -0.00334674 -8.89114e-23)
(0.99478 -0.00516257 4.58445e-23)
(0.993868 -0.00514615 3.73434e-23)
(0.991191 -0.00474028 -1.81131e-23)
(0.992078 -0.00501578 2.77031e-23)
(0.99586 -0.00462999 -3.086e-23)
(0.981162 0.00742061 -9.82939e-23)
(0.981365 0.00498877 7.70189e-23)
(0.983003 0.00183416 -1.47717e-22)
(0.9808 0.0120315 0)
(0.999124 -0.0023422 -2.72786e-23)
(0.999472 -0.000725734 3.71658e-23)
(0.999496 -0.00140488 -3.17101e-23)
(0.998282 -0.0040529 3.30093e-23)
(0.999299 -0.00249514 -4.70233e-25)
(0.999315 -0.00301715 7.41086e-24)
(0.998779 -0.00390561 3.96298e-24)
(0.999676 -0.00178307 -3.241e-23)
(0.997038 -0.0047161 2.58268e-23)
(1.00058 -0.00294973 0)
(0.999605 -0.00413252 0)
(0.999673 -0.00438511 0)
(0.999234 -0.00459375 0)
(0.998184 -0.00589447 0)
(0.997171 -0.00709749 1.09486e-23)
(0.998184 -0.00894616 2.9422e-23)
(0.999385 -0.0109428 -2.29838e-23)
(1.00171 -0.013088 -7.9569e-23)
(0.998563 -0.00495307 5.00535e-24)
(1.03149 0.00933298 -1.57324e-23)
(1.03377 0.0168388 -4.2004e-22)
(1.0328 0.0237227 -1.98438e-23)
(1.02223 0.0352829 1.14326e-22)
(1.02768 0.0298498 1.74698e-24)
(1.02965 -0.0031469 7.9449e-23)
(1.02798 -0.00454607 1.38412e-22)
(1.02505 -0.00762943 0)
(1.02237 -0.0118811 -1.6202e-22)
(1.03496 0.0013432 -3.45544e-22)
(1.00643 0.0391467 0)
(1.01541 0.0381424 0)
(1.00563 -0.0149539 0)
(1.00274 -0.0144785 4.72193e-23)
(1.01228 -0.015186 -1.3855e-22)
(1.00873 -0.016269 2.01598e-23)
(1.01509 -0.0153962 1.76065e-22)
(1.01912 -0.0143606 7.48234e-23)
(0.981229 0.0279594 5.84591e-23)
(0.984437 0.0318502 3.65597e-23)
(0.981375 0.0238459 2.3376e-22)
(0.978984 0.0205169 0)
(0.980642 0.0155816 3.14228e-23)
(1.00284 0.0406359 0)
(0.996503 0.0408918 1.32901e-24)
(0.993017 0.0397384 -7.63689e-23)
(0.986297 0.0399275 0)
(0.983772 -0.00159162 3.47094e-23)