/*--------------------------------*- C++ -*----------------------------------*\
| =========                 |                                                 |
| \\      /  F ield         | OpenFOAM: The Open Source CFD Toolbox           |
|  \\    /   O peration     | Version:  v2012                                 |
|   \\  /    A nd           | Website:  www.openfoam.com                      |
|    \\/     M anipulation  |                                                 |
\*---------------------------------------------------------------------------*/
FoamFile
{
    version     2.0;
    format      ascii;
    class       volVectorField;
    location    "7";
    object      U_0;
}
// * * * * * * * * * * * * * * * * * * * * * * * * * * * * * * * * * * * * * //

dimensions      [0 1 -1 0 0 0 0];


internalField   nonuniform List<vector> 
11941
(
(1.00008 0.00015654 -9.96499e-24)
(1.00011 0.000311124 4.11717e-24)
(1.00017 0.000276405 1.34574e-23)
(1.00019 0.000672459 -5.04667e-25)
(1.00004 0.000143539 0)
(1.00021 0.000659362 -5.28654e-24)
(1.00011 7.45687e-05 2.14781e-23)
(1.00015 0.00074632 -1.53316e-24)
(1.00026 0.000835656 4.82141e-24)
(1.00006 0.000341764 2.2027e-24)
(1.00037 0.00075191 0)
(1.00022 0.000221299 -8.95644e-24)
(1.0003 0.00119395 3.52839e-24)
(1.00011 0.000585114 -5.01979e-24)
(1.00038 0.00106589 0)
(1.00002 0.00015682 -4.18045e-24)
(1.00042 0.000808999 0)
(1.00022 0.000320271 0)
(1.00039 0.00126954 0)
(1.00018 0.00119938 -1.10429e-24)
(1.00016 0.000815333 2.37145e-24)
(1.00053 0.00137637 0)
(1.00004 0.00036212 1.14847e-24)
(1.00041 0.000749329 -1.90641e-23)
(1.00065 0.001286 0)
(1.00019 5.11486e-05 0)
(1.00046 0.00164923 0)
(1.00018 0.00139913 4.88408e-25)
(1.00008 0.000711703 -8.57569e-25)
(1.00064 0.00163304 0)
(1.00001 0.000230043 2.22357e-24)
(1.00047 0.000755909 6.85479e-24)
(1.00079 0.00134692 0)
(1.00027 0.000410921 -1.64957e-23)
(1.00042 0.00185274 -7.52045e-25)
(1.00029 0.00173727 -2.2913e-24)
(1.00007 0.00136486 -5.78254e-25)
(1.00003 0.000901433 -5.90626e-25)
(1.00078 0.00187144 1.5176e-23)
(0.999967 0.000340693 -2.63725e-24)
(1.00029 0.000625316 1.02795e-24)
(1.00067 0.00111109 8.27881e-24)
(1.00101 0.00158061 0)
(1.0004 0.000139514 2.98617e-23)
(1.00055 0.00218155 7.35678e-24)
(1.00023 0.00199676 2.22346e-24)
(1.00003 0.00147667 0)
(1.00003 0.000825352 4.49774e-25)
(1.00103 0.00212515 1.99727e-24)
(1.00071 0.00230729 0)
(0.999992 9.66568e-05 -5.69897e-24)
(0.999995 0.000634565 -1.21513e-24)
(1.00041 0.000660245 0)
(1.00082 0.00101083 1.27773e-24)
(1.00112 0.00209573 -1.04536e-23)
(1.00125 0.00158969 5.31673e-24)
(1.00055 -0.000151557 -3.00253e-23)
(1.0005 0.00257088 -4.49538e-24)
(1.00028 0.00253427 -2.51569e-24)
(1.00005 0.00185311 1.45512e-25)
(0.999997 0.00134717 0)
(1.00106 0.0024379 -1.10393e-23)
(1.00084 0.0026109 2.37961e-23)
(0.999986 0.000362564 9.47553e-24)
(0.999969 0.000626165 -5.24243e-24)
(1.00051 0.000624331 0)
(1.001 0.00104949 -1.27667e-24)
(1.00141 0.0023281 1.54951e-23)
(1.00127 0.00151981 -5.09681e-24)
(1.00165 0.00214373 -2.2551e-23)
(1.00042 -2.41768e-05 0)
(1.00066 0.00303089 -5.91857e-24)
(1.00014 0.00271289 9.9172e-25)
(0.999925 0.00226132 0)
(0.99985 0.00139283 6.4806e-24)
(1.00141 0.0031919 2.04199e-23)
(1.00099 0.0031633 -5.93619e-24)
(0.999953 0.000226021 -2.92524e-24)
(0.999892 0.000839152 6.34336e-24)
(1.00075 0.000690692 0)
(1.00098 0.000830248 0)
(1.00173 0.00300828 -3.18712e-23)
(1.00147 0.00138519 0)
(1.00199 0.00209311 -2.09971e-24)
(1.00052 0.000273859 1.08507e-23)
(1.00053 0.00349935 7.35511e-24)
(0.999965 0.00255814 0)
(1.00024 0.00347558 -1.75897e-24)
(0.999763 0.00200907 -1.67778e-23)
(0.999815 0.00149814 4.37248e-24)
(1.00123 0.003355 -1.98117e-23)
(0.999887 0.000362688 0)
(0.999867 0.000912071 -9.24909e-24)
(1.00065 0.000646767 2.17852e-23)
(1.00127 0.00102637 4.57226e-23)
(1.00216 0.00327747 3.59511e-24)
(1.0019 0.00174143 -2.1244e-23)
(1.00246 0.0027674 3.98381e-23)
(1.00074 -0.000344832 1.77348e-23)
(1.00077 0.00400574 -5.10975e-24)
(0.999795 0.00308094 -3.46778e-24)
(1 0.00355901 -8.33046e-25)
(0.999526 0.00222568 1.56031e-23)
(0.999759 0.00143918 -1.53639e-23)
(1.0013 0.00385262 1.07257e-23)
(0.999928 0.000158955 0)
(0.99984 0.000701268 7.72383e-24)
(1.00081 0.000442391 -2.36883e-23)
(1.00142 0.000894715 -2.04369e-23)
(1.00231 0.00368513 6.33092e-25)
(1.00219 0.00158647 -1.86838e-24)
(1.00295 0.00271268 -5.66782e-23)
(1.00062 8.96446e-05 1.24816e-23)
(1.00062 0.00463944 4.95008e-24)
(0.999527 0.00310411 7.8785e-24)
(0.99992 0.00395877 0)
(0.999409 0.00259243 -4.45156e-24)
(0.999511 0.00189977 0)
(0.999644 0.00145464 8.91609e-24)
(1.00174 0.00411902 -1.94029e-23)
(0.999865 0.000285086 4.10707e-24)
(0.999778 0.000813022 -1.08639e-23)
(1.00052 0.000316829 -1.86317e-23)
(1.00122 0.000539051 4.93254e-24)
(1.00187 0.00113593 1.61376e-24)
(1.00295 0.00410494 1.74938e-23)
(1.00206 0.00417064 2.37531e-23)
(1.0026 0.00176068 1.46022e-23)
(1.00293 0.00226309 0)
(1.00342 0.00327657 5.22613e-23)
(1.00088 -0.000697293 -3.63194e-24)
(1.00101 0.00538374 0)
(1.00015 0.00476798 2.18587e-24)
(0.999364 0.00377538 -1.47201e-23)
(0.999477 0.00399589 9.72353e-24)
(0.999119 0.00284298 1.30836e-23)
(0.99929 0.00199679 0)
(0.999668 0.00115888 -1.424e-24)
(1.00184 0.00542314 0)
(0.999809 0.0006557 2.85354e-23)
(0.999912 8.23909e-05 -3.74547e-24)
(1.00073 0.000168273 -6.84e-24)
(1.00141 0.000484507 1.91354e-23)
(1.00211 0.00084648 2.04951e-24)
(1.00352 0.00375313 -1.62193e-23)
(1.00297 0.00487784 -1.03507e-23)
(1.00239 0.00505728 0)
(1.0029 0.00127193 5.61951e-23)
(1.00349 0.00222465 0)
(1.00401 0.00280735 2.45985e-23)
(1.00053 -0.000761999 3.7785e-23)
(1.00071 0.00599663 2.03916e-24)
(0.99982 0.00519434 1.56059e-24)
(0.998955 0.00354474 1.47858e-24)
(0.999211 0.00487848 -1.58313e-23)
(0.998895 0.00281529 0)
(0.99912 0.00214285 0)
(0.99943 0.00150547 1.89135e-24)
(0.999576 0.00122389 -1.67124e-23)
(1.00222 0.00545204 0)
(0.999782 0.000648249 -3.21134e-23)
(0.99984 0.000344502 1.43334e-23)
(1.00117 0.000263668 -1.42097e-23)
(1.00148 0.000402999 -2.35103e-23)
(1.00185 0.00059185 0)
(1.0027 0.000982323 2.24486e-24)
(1.00426 0.00429463 -2.82177e-23)
(1.00349 0.00545743 1.00578e-25)
(1.00366 0.00158705 -4.68265e-23)
(1.00458 0.00274523 3.2733e-23)
(1.0004 0.000671296 -3.68788e-23)
(1.00107 0.0068677 -5.98686e-24)
(0.999954 0.00596256 5.4752e-24)
(0.99856 0.00377411 -1.32691e-23)
(0.998778 0.00506177 8.17488e-24)
(0.998558 0.00276417 0)
(0.998948 0.0020172 -2.2082e-23)
(0.999266 0.0014786 -1.95684e-23)
(0.999677 0.000904044 1.54343e-23)
(1.00257 0.00636134 2.64603e-23)
(0.999725 0.000378744 1.6928e-23)
(1.00119 2.30018e-05 0)
(1.00142 0.000167117 3.65979e-23)
(1.00207 0.00023591 0)
(1.00295 0.000696697 -3.1423e-23)
(1.00411 0.00524001 1.49666e-23)
(1.00499 0.0039572 4.65834e-23)
(1.0035 0.00628132 -3.29251e-23)
(1.00424 0.00140637 -6.83886e-23)
(1.00481 0.00175335 6.69052e-23)
(1.00503 0.0034021 -8.38527e-23)
(1.00174 -0.000665628 2.00444e-23)
(1.00055 0.0005402 3.01983e-23)
(1.00053 0.00763617 3.98879e-24)
(1.00206 0.00697905 -9.17904e-24)
(0.999493 0.00654089 -1.04653e-23)
(0.99821 0.00326608 -1.0278e-24)
(0.998403 0.00449494 2.4491e-23)
(0.998644 0.00568849 -1.46923e-23)
(0.998609 0.00250256 5.94603e-25)
(0.999034 0.00173328 1.97343e-23)
(0.999394 0.00119423 2.38521e-23)
(0.99953 0.00097211 -5.27984e-24)
(0.999701 0.000513076 1.46038e-24)
(0.999817 1.89035e-05 -6.18744e-25)
(1.00122 7.08003e-05 -5.29392e-23)
(1.0017 -6.69977e-05 0)
(1.00249 7.88813e-05 0)
(1.00351 0.000388144 0)
(1.00476 0.00578727 -2.10597e-23)
(1.00567 0.00454661 1.12384e-23)
(1.0041 0.00723919 -2.96786e-23)
(1.00428 0.000904195 6.83867e-23)
(1.00553 0.00192867 -7.12573e-23)
(1.0057 0.00282524 4.98138e-23)
(1.00123 -0.00202995 -5.10068e-23)
(1.0002 -0.000175709 0)
(1.00086 0.00868709 1.56089e-24)
(0.999791 0.00750628 4.71438e-24)
(1.00257 0.00811451 -4.16128e-24)
(0.998955 0.00649741 0)
(0.997751 0.00347243 0)
(0.997792 0.00457812 -3.01527e-23)
(0.997883 0.00581377 1.5838e-23)
(0.998239 0.00228732 -1.91294e-23)
(0.998854 0.001627 0)
(0.999262 0.00115215 0)
(0.999603 0.000695301 1.77745e-23)
(0.999689 0.000495328 -1.42096e-23)
(0.999795 0.000171498 2.53837e-23)
(1.00108 -0.000379836 3.51935e-23)
(1.00159 -0.000219151 2.87302e-23)
(1.00255 -0.000137825 0)
(1.00344 -0.000197359 0)
(1.00556 0.00526097 -4.32741e-23)
(1.00514 0.00721626 4.69647e-23)
(1.00643 0.00420314 -6.15483e-23)
(1.00372 0.00807057 -1.43387e-23)
(1.0049 6.43441e-05 -4.13999e-23)
(1.00612 0.00129991 6.79006e-23)
(1.00646 0.00326523 -5.00959e-23)
(1.00075 -0.000550916 1.94405e-23)
(1.00031 -0.000147588 0)
(1.00191 0.00882017 -4.50438e-24)
(1.00022 0.00946262 -7.18787e-25)
(0.999261 0.00806244 4.0452e-24)
(0.998438 0.00715922 -1.80579e-23)
(0.997443 0.003172 -7.1009e-24)
(0.997571 0.0040916 0)
(0.997491 0.00553853 0)
(0.997529 0.00667422 0)
(0.998617 0.00164853 2.40535e-23)
(0.997928 0.00230083 0)
(0.99909 0.00123049 1.26359e-23)
(0.999443 0.000839494 -1.35317e-23)
(0.999601 0.000530709 -1.1852e-23)
(0.999796 2.62511e-06 0)
(1.00125 -0.00046634 -2.91763e-23)
(1.00176 -0.000384136 -3.38519e-23)
(1.0022 -0.000376419 0)
(1.00288 -0.000508441 0)
(1.00392 -0.000628847 -2.91677e-23)
(1.00643 0.00633038 4.67506e-23)
(1.00592 0.00726174 -1.93704e-23)
(1.00722 0.00473874 8.14291e-23)
(1.0044 0.00924178 1.73069e-23)
(1.00585 0.000317194 -5.24462e-23)
(1.00463 -0.000487387 7.55851e-23)
(1.00706 0.00169684 0)
(1.00722 0.00265995 6.45244e-23)
(1.00125 -0.00218531 2.04969e-23)
(1.00091 -0.00045311 1.62787e-23)
(1.0024 0.0102012 5.47464e-24)
(1.00039 0.0104713 1.02875e-24)
(0.999446 0.00923357 2.04946e-24)
(0.998482 0.00785446 1.80519e-23)
(0.996785 0.00335453 1.21665e-23)
(0.997589 0.00268001 0)
(0.997011 0.00442609 -2.67987e-23)
(0.996771 0.00530154 0)
(0.996815 0.00705832 1.45341e-23)
(0.998583 0.0014513 0)
(0.997962 0.00171656 -5.71006e-23)
(0.999065 0.00111129 -1.2392e-23)
(0.999401 0.000774354 -1.22278e-23)
(0.999695 0.000522797 0)
(0.999755 0.000254067 0)
(1.0014 -0.0008006 2.78182e-23)
(1.00162 -0.000869127 4.51815e-24)
(1.00226 -0.00091163 -2.80697e-23)
(1.00275 -0.000839956 0)
(1.00359 -0.00152568 -7.28899e-23)
(1.00751 0.00608804 0)
(1.00648 0.00818459 0)
(1.00806 0.00399839 0)
(1.00352 0.0102991 0)
(1.00565 0.00939239 0)
(1.00652 -0.000601065 -3.7181e-23)
(1.0049 -0.00113514 9.26306e-23)
(1.00779 0.000877809 5.52617e-23)
(1.00805 0.00315119 -7.25051e-23)
(1.00033 -0.00146183 -4.57438e-23)
(1.00142 0.0108099 0)
(0.999516 0.0115905 3.89413e-24)
(0.998649 0.00958644 -8.54304e-24)
(0.997782 0.00859728 0)
(0.996336 0.00281082 0)
(0.996479 0.00423595 2.48567e-23)
(0.997153 0.00227501 2.04793e-23)
(0.996236 0.00553529 3.53381e-23)
(0.996137 0.00683106 -7.56281e-23)
(0.996819 0.00799272 0)
(0.998891 0.00112515 0)
(0.998309 0.00141694 3.54428e-23)
(0.997488 0.00176124 0)
(0.999295 0.000817566 1.22489e-23)
(0.999618 0.000507767 0)
(0.9996 -6.56435e-05 0)
(1.0014 -0.00108066 -5.26884e-23)
(1.00199 -0.00104033 2.16188e-23)
(1.00144 -0.00100845 4.81416e-23)
(1.00296 -0.00150884 1.8927e-23)
(1.00405 -0.00169328 4.19647e-23)
(1.00834 0.00623496 4.36237e-23)
(1.00802 0.00851303 9.01403e-23)
(1.00918 0.00516263 0)
(1.00402 0.0122187 -4.69372e-24)
(1.00623 0.0108772 2.41065e-24)
(1.00627 -0.00141698 -1.05248e-24)
(1.00757 -0.000150897 4.71549e-23)
(1.00542 -0.00174546 -6.18579e-23)
(1.00887 0.00118938 4.80521e-23)
(1.00889 0.00268656 -6.46303e-24)
(1.00071 -0.000181896 -2.95879e-23)
(1.0016 0.0125669 0)
(0.999686 0.0126666 -3.95162e-24)
(0.998768 0.0114014 0)
(0.997974 0.00934277 -1.89333e-24)
(0.99565 0.00326027 -3.47008e-23)
(0.996555 0.00245016 -1.70579e-23)
(0.99583 0.00407415 0)
(0.99562 0.0053469 2.51051e-23)
(0.995402 0.00685017 2.06704e-23)
(0.995994 0.00871677 0)
(0.998963 0.000963328 -1.34486e-23)
(0.998394 0.0011303 3.75773e-23)
(0.997336 0.0013969 1.40188e-23)
(0.999359 0.000680625 0)
(0.999679 0.000463518 0)
(0.999692 0.000197492 0)
(1.00073 -0.000759338 3.40643e-23)
(1.00205 -0.00153206 -1.59998e-23)
(1.00141 -0.0013801 -7.4081e-24)
(1.00254 -0.00177722 7.30386e-24)
(1.004 -0.00256102 0)
(1.00897 0.00721457 -8.09988e-23)
(1.00847 0.00953334 -7.73207e-23)
(1.01024 0.00437323 5.26e-23)
(1.00266 0.0130755 5.21552e-24)
(1.00534 0.0123708 -2.37923e-24)
(1.00766 0.0109115 0)
(1.00689 -0.00252475 4.04528e-23)
(1.0084 -0.00110564 2.09141e-24)
(1.00502 -0.00270117 6.90295e-23)
(1.0099 0.000862179 -1.13767e-22)
(1.00991 0.00322838 -6.78083e-23)
(1.00132 -0.00297247 1.71994e-23)
(0.999039 0.0139786 1.95193e-24)
(0.997447 0.0116874 -2.88036e-23)
(0.997316 0.00999874 1.83136e-23)
(0.994976 0.00282616 9.48789e-23)
(0.996255 0.00189708 0)
(0.995357 0.00471727 0)
(0.995066 0.00600558 -2.7161e-23)
(0.994792 0.00786476 -3.62919e-23)
(0.995091 0.00852324 0)
(0.9963 0.00958836 -1.54762e-23)
(0.998767 0.000833344 -1.51475e-23)
(0.999219 0.000666875 -1.33132e-23)
(0.998118 0.00100656 0)
(0.997808 0.00092997 0)
(0.996748 0.00111671 -1.71025e-23)
(0.999541 0.000416799 -2.5059e-23)
(0.999456 -0.000239478 -2.18386e-23)
(1.00064 -0.0008548 0)
(1.00162 -0.00176527 1.42731e-23)
(1.00076 -0.00119329 3.31374e-23)
(1.0025 -0.00224523 -3.78452e-23)
(1.00361 -0.00285298 -3.56795e-23)
(1.01073 0.00754634 -1.73004e-23)
(1.00999 0.0101497 1.35654e-22)
(1.01152 0.00493828 -1.71872e-23)
(1.00249 0.0148436 2.47132e-23)
(1.006 0.0139182 -2.41151e-23)
(1.00843 0.0125927 0)
(1.00637 -0.00353864 -4.06399e-23)
(1.00797 -0.0022858 -1.77845e-22)
(1.0095 -0.000971643 0)
(1.00536 -0.00342847 -5.24576e-23)
(1.01066 0.00203079 0)
(1.01025 0.000133821 5.74376e-23)
(1.00115 -0.00135197 -1.8834e-23)
(1.0003 0.0153873 -1.84978e-24)
(0.997728 0.0141692 1.42151e-23)
(0.996826 0.0119798 4.92423e-23)
(0.99424 0.00352589 -8.58389e-23)
(0.994981 0.00230034 -6.3073e-23)
(0.995561 0.00175983 3.1613e-23)
(0.994429 0.00449252 -5.54048e-25)
(0.994166 0.00595718 -8.22975e-23)
(0.993558 0.00714865 9.08458e-23)
(0.99418 0.00916322 6.04503e-23)
(0.995649 0.0110908 -4.6815e-23)
(0.998938 0.0006734 0)
(0.99929 0.000509564 3.89118e-23)
(0.99851 0.000590149 -1.55543e-23)
(0.997763 0.000534893 -2.2513e-24)
(0.99656 0.00105561 0)
(0.999628 0.00041421 0)
(0.9996 0.000148541 0)
(1.00146 -0.00198849 -7.90819e-24)
(1.0007 -0.00165203 -6.84634e-23)
(1.00193 -0.00253631 -5.35864e-23)
(1.00282 -0.0029035 3.51072e-23)
(1.0037 -0.00422681 -3.90043e-23)
(1.01196 0.00636168 -6.23714e-23)
(1.01107 0.009304 -1.11437e-22)
(1.01018 0.0116809 -3.24046e-23)
(1.01258 0.00325909 4.4734e-23)
(1.00367 0.0161124 -3.10948e-23)
(1.00539 0.015639 3.21546e-23)
(1.00791 0.0137223 0)
(1.00674 -0.00433831 1.29367e-23)
(1.00861 -0.00338488 1.90964e-22)
(1.01009 -0.00230401 1.36059e-22)
(1.00488 -0.00467691 0)
(1.01201 0.00215586 -6.90524e-25)
(1.01153 -0.000577316 -4.45991e-23)
(1.00136 -0.00384157 -2.82456e-23)
(0.999787 0.0176786 -6.50491e-24)
(0.99664 0.0129332 -4.19103e-23)
(0.997108 0.0158522 0)
(0.993397 0.003234 -3.48654e-23)
(0.994346 0.00172361 5.34805e-23)
(0.995517 0.000551987 0)
(0.993782 0.00536969 9.3787e-23)
(0.992567 0.00744058 3.67106e-23)
(0.993169 0.00907724 -7.57879e-23)
(0.994403 0.0111967 5.69272e-23)
(0.998838 0.000497517 0)
(0.999177 0.000493175 0)
(0.998373 0.000260018 1.50235e-23)
(0.997463 0.000209513 -2.67028e-23)
(0.996161 0.000291361 0)
(0.996838 0.000181959 9.03714e-23)
(0.999498 0.000194716 0)
(0.999303 -0.00046998 2.29409e-23)
(1.00102 -0.00193168 6.33069e-23)
(1.00161 -0.00241441 3.5112e-23)
(1.00116 -0.00199076 5.23331e-23)
(1.00188 -0.0033763 -1.59591e-23)
(1.0024 -0.00361742 7.31886e-23)
(1.003 -0.00450742 7.33456e-23)
(1.01364 0.00689214 9.68752e-23)
(1.01282 0.00976503 1.02967e-23)
(1.01193 0.0132965 0)
(1.01421 0.00346596 -5.40009e-23)
(1.00287 0.0178466 1.42957e-23)
(1.00687 0.0172919 -5.18313e-24)
(1.00921 0.0148889 3.34444e-23)
(1.00612 -0.00606235 -1.09424e-23)
(1.00803 -0.00441205 -4.0158e-23)
(1.00979 -0.00320781 -9.92396e-23)
(1.01159 -0.00171763 -9.29836e-23)
(1.0049 -0.00506814 0)
(1.01268 0.000615927 -6.64499e-24)
(0.997794 0.0176427 -1.44867e-23)
(1.00092 0.0184959 3.91194e-24)
(0.994983 0.0135512 0)
(0.994836 0.0155904 -1.95848e-23)
(0.99261 0.00428016 -1.09663e-22)
(0.993196 0.00242722 8.50597e-23)
(0.994808 0.000421203 -3.09308e-25)
(0.993658 0.00175646 -5.86955e-23)
(0.992799 0.00490716 3.7401e-23)
(0.992374 0.00821607 -6.34625e-23)
(0.991819 0.00608154 0)
(0.992522 0.0108725 2.27872e-23)
(0.993684 0.0115744 -8.73274e-23)
(0.999008 0.000220053 0)
(0.999189 0.000195328 0)
(0.998519 0.000122647 0)
(0.997781 -0.000189473 -1.54887e-24)
(0.99643 0.000105194 9.98881e-23)
(0.999748 0.00021664 2.46609e-23)
(0.999525 4.69885e-05 -1.69576e-23)
(1.00072 -0.00238641 -2.97787e-23)
(1.00118 -0.00264983 0)
(1.00122 -0.00467304 -2.41288e-23)
(1.00131 -0.00356662 3.90584e-23)
(1.00242 -0.0040406 -8.1055e-23)
(1.00278 -0.00525245 1.66048e-23)
(1.014 0.00851342 1.62247e-22)
(1.01489 0.00579916 -7.80635e-23)
(1.01357 0.0123395 -1.76289e-23)
(1.01122 0.0143683 -8.68415e-23)
(1.01548 0.00209953 -1.88429e-23)
(1.00415 0.019797 3.74132e-25)
(1.00632 0.0192946 6.99156e-24)
(1.0087 0.017096 -3.35905e-23)
(1.00761 -0.00690886 -3.01026e-23)
(1.00528 -0.00648976 0)
(1.00853 -0.00579316 -2.71555e-24)
(1.01051 -0.00425302 4.10169e-23)
(1.01245 -0.00333733 1.45147e-22)
(1.00405 -0.00589562 0)
(1.01419 -0.00018955 7.51675e-23)
(0.996361 0.0190595 2.86051e-24)
(1.00043 0.0214884 5.12779e-25)
(0.993566 0.0128912 6.30191e-23)
(0.993405 0.0164113 5.79044e-23)
(0.991705 0.00349261 2.36242e-23)
(0.992155 0.00251524 0)
(0.994462 2.62295e-05 8.00866e-23)
(0.993281 0.00121114 4.91552e-23)
(0.991172 0.00882746 0)
(0.990715 0.00590295 7.00366e-23)
(0.991212 0.0104558 -5.14767e-23)
(0.99899 0.000113365 3.34426e-24)
(0.998872 -1.36197e-05 -3.77001e-24)
(0.998323 -0.00022267 -1.66014e-24)
(0.997668 -0.000706981 0)
(0.99626 -0.000214843 -5.33474e-23)
(0.9996 0.000337648 -2.28019e-23)
(0.999136 -0.000815551 1.58257e-23)
(1.0009 -0.00249077 2.54063e-23)
(1.0011 -0.00289313 2.16089e-23)
(1.00152 -0.00222972 3.07254e-23)
(1.00118 -0.00370702 -1.79482e-23)
(1.00188 -0.00433997 4.26808e-23)
(1.00317 -0.00600743 3.67335e-23)
(1.00188 -0.00525794 -2.58805e-23)
(1.01596 0.00918937 -9.3823e-23)
(1.01678 0.00607377 4.62056e-23)
(1.01541 0.0128595 0)
(1.0126 0.0165753 9.64838e-23)
(1.0156 0.000753081 -1.03113e-22)
(1.01761 0.00410486 2.12052e-23)
(1.00303 0.0220798 -1.88563e-23)
(1.00791 0.0217772 -7.93575e-24)
(1.01041 0.0183642 9.52337e-23)
(1.00763 -0.00790975 0)
(1.00502 -0.00650825 0)
(1.00973 -0.00579826 -9.01416e-23)
(1.01201 -0.00413721 -8.58996e-23)
(1.01405 -0.00229202 -8.96998e-23)
(0.996712 0.0214157 4.66001e-23)
(0.9937 0.0183707 -1.08257e-22)
(0.998825 0.0223494 2.30134e-24)
(0.992068 0.0134198 -6.48654e-23)
(0.99164 0.0158961 -3.82954e-23)
(0.9906 0.00378277 0)
(0.991693 0.00178562 -5.61376e-23)
(0.994474 -0.000693899 -7.4608e-23)
(0.993638 0.000360422 0)
(0.992393 0.0010617 -5.80121e-23)
(0.99008 0.00814093 0)
(0.989907 0.00708122 0)
(0.990205 0.00455594 -7.48946e-23)
(0.990284 0.0114612 7.90355e-23)
(0.999419 0.000246347 0)
(0.998955 -0.000401801 0)
(0.998595 -0.000426993 -9.74456e-25)
(0.997123 -0.000939271 -8.683e-24)
(0.998196 -0.00101142 2.80908e-23)
(0.995724 -0.000896206 -2.39258e-23)
(0.999449 -0.000145685 0)
(1.00075 -0.0030342 0)
(1.00086 -0.00312118 0)
(1.00136 -0.00634909 -3.50262e-23)
(1.00113 -0.00408378 2.88441e-23)
(1.00078 -0.00355331 3.90151e-23)
(1.00142 -0.00438392 -1.83559e-23)
(1.0026 -0.00672111 0)
(1.00152 -0.00531922 -1.9131e-23)
(1.01673 0.011467 -1.54034e-23)
(1.01746 0.00677691 -5.61262e-23)
(1.01614 0.0154439 1.4907e-23)
(1.01482 0.0169652 0)
(1.01745 -0.000388626 1.71655e-22)
(1.01954 0.00336967 5.15843e-23)
(1.00397 0.0235241 0)
(1.00699 0.0233449 0)
(1.01048 0.0208696 -8.40797e-23)
(1.00654 -0.00843979 0)
(1.00898 -0.00845979 -5.22834e-23)
(1.00462 -0.0076626 -5.32289e-23)
(1.0106 -0.00649494 1.2328e-22)
(1.01227 -0.00577367 8e-23)
(1.01554 -0.00340053 1.25229e-22)
(0.994571 0.0224495 -3.25255e-23)
(0.99197 0.019651 3.37448e-23)
(0.998885 0.0253046 1.42259e-23)
(0.990686 0.0126162 2.9225e-23)
(0.990081 0.0157813 3.99511e-23)
(0.989836 0.00222011 0)
(0.990513 0.00116193 5.3714e-23)
(0.993685 -0.0011376 0)
(0.995033 -0.00104923 0)
(0.993004 -0.000222119 0)
(0.992142 0.000275919 6.8912e-23)
(0.988804 0.00908358 0)
(0.988665 0.00611742 1.74271e-23)
(0.988921 0.00480545 -1.51474e-23)
(0.988857 0.0107255 -8.18217e-23)
(0.999496 -0.000249887 0)
(0.998859 -0.000480227 -3.2095e-23)
(0.998552 -0.000700053 0)
(0.997153 -0.00154947 -3.04281e-23)
(0.998297 -0.00136069 -5.33684e-23)
(0.996368 -0.00163628 0)
(0.999087 -0.00106898 0)
(1.00088 -0.00298584 0)
(1.00163 -0.0029601 0)
(1.00067 -0.00429625 -3.12903e-23)
(1.0006 -0.00364044 -4.075e-23)
(1.00107 -0.00493427 -1.95037e-23)
(1.00169 -0.00654879 3.03282e-23)
(1.00293 -0.0078943 5.19125e-23)
(1.00122 -0.0059488 0)
(1.01911 0.011534 7.54692e-23)
(1.02014 0.00870617 1.66226e-23)
(1.01889 0.0155328 1.71992e-22)
(1.01561 0.0202626 -9.70509e-24)
(1.01949 0.000996726 -2.55246e-23)
(1.01742 -0.00241217 0)
(1.0215 0.00483469 1.40418e-22)
(1.00304 0.026819 -2.93379e-23)
(1.00827 0.0252866 -1.59138e-23)
(1.01299 0.0221861 -5.5471e-23)
(1.00527 -0.00834095 -4.80005e-23)
(1.0068 -0.00992223 0)
(1.01025 -0.00780501 -5.75408e-23)
(1.00899 -0.00966052 7.47683e-23)
(1.01357 -0.00636898 8.85818e-23)
(1.01523 -0.00541384 -1.75606e-23)
(0.994379 0.0253912 -2.89221e-23)
(0.99249 0.0214668 4.17661e-23)
(0.989817 0.0190503 6.13487e-23)
(1.0009 0.0272456 0)
(0.99581 0.0264693 -1.91127e-23)
(0.989365 0.0142342 1.07265e-22)
(0.98897 0.0170351 -1.21724e-22)
(0.988348 0.00211946 4.17784e-23)
(0.990316 0.000622692 -3.59955e-23)
(0.992992 -0.000726656 -4.84608e-23)
(0.993563 -0.00214852 -3.38539e-23)
(0.995 -0.00217012 3.72661e-23)
(0.991341 -0.000127445 -1.48099e-22)
(0.987342 0.00812276 0)
(0.987373 0.00669974 4.00799e-23)
(0.987947 0.0037605 -6.00053e-23)
(0.987376 0.0115503 9.53934e-23)
(0.999709 -0.000291862 -2.21914e-23)
(0.998973 -0.000712473 0)
(0.99895 -0.000894912 0)
(0.997515 -0.00189516 -1.55427e-23)
(0.998051 -0.00184482 5.67244e-23)
(0.998824 -0.00155944 -5.85758e-23)
(0.996205 -0.00219657 0)
(0.999306 -0.000449358 0)
(1.00058 -0.00343842 1.91139e-23)
(1.00174 -0.00699587 4.08882e-23)
(1.00048 -0.00457411 -1.24835e-23)
(1.00047 -0.00418754 -3.48301e-23)
(1.00069 -0.00493035 1.40028e-23)
(1.00093 -0.00723483 -3.22795e-23)
(1.00212 -0.00864348 0)
(1.00039 -0.00580462 0)
(1.02022 0.012851 -1.61626e-22)
(1.02212 0.00745 -2.9192e-22)
(1.02085 0.0196391 -9.19171e-23)
(1.01867 0.0212006 8.8966e-23)
(1.02152 -0.000432978 -7.16627e-23)
(1.01928 -0.00359342 -5.36396e-23)
(1.02359 0.00329446 -4.16296e-23)
(1.00536 0.0277994 5.0056e-23)
(1.01057 0.0273254 0)
(1.01301 0.0257447 6.22982e-23)
(1.00454 -0.0095217 5.73044e-23)
(1.00783 -0.0103246 0)
(1.00576 -0.0105837 -4.31034e-23)
(1.01172 -0.0089345 0)
(1.00996 -0.010793 -4.58094e-23)
(1.01334 -0.00828089 0)
(1.01697 -0.00677822 -2.30675e-22)
(0.99145 0.0251588 7.41632e-23)
(0.990627 0.0234171 -1.94927e-23)
(0.987885 0.0206601 -9.12385e-23)
(1.00012 0.0296651 1.07322e-23)
(0.994789 0.0295413 2.5124e-24)
(0.98737 0.0133629 -1.04701e-22)
(0.986602 0.0165395 1.49491e-22)
(0.98771 0.00131834 1.97827e-24)
(0.989553 -0.000576936 -1.77526e-22)
(0.992318 -0.00159462 5.29275e-23)
(0.994132 -0.0026255 5.53058e-23)
(0.992612 -0.00229207 2.81321e-24)
(0.995625 -0.0025882 -3.8455e-23)
(0.991457 -0.00134641 6.28618e-23)
(0.985882 0.00908513 0)
(0.986175 0.00554225 5.03567e-23)
(0.986515 0.00425856 3.82101e-23)
(0.986014 0.0108044 0)
(0.999404 -0.000174685 4.76333e-23)
(0.999118 -0.000577346 -1.23746e-23)
(0.999002 -0.0011073 2.62372e-23)
(0.997402 -0.00261232 1.3121e-24)
(0.998443 -0.0023186 1.4225e-23)
(0.998933 -0.00178698 -6.78132e-24)
(0.996726 -0.00269455 -2.7756e-23)
(0.999086 -0.00174312 5.55121e-24)
(1.00059 -0.00320578 -1.72813e-23)
(1.00139 -0.00346456 -6.52305e-23)
(1.00023 -0.00440025 2.74905e-23)
(1.00006 -0.00389821 0)
(1.00039 -0.00522779 0)
(0.999908 -0.00679935 0)
(1.00115 -0.00828679 -3.52943e-23)
(1.00244 -0.0095566 -1.04348e-22)
(0.999788 -0.00608753 0)
(1.02321 0.0138161 2.89049e-23)
(1.02477 0.00905158 1.91937e-22)
(1.024 0.0183556 2.33673e-22)
(1.01924 0.0237311 -1.24382e-22)
(1.02363 0.00087193 2.05952e-22)
(1.02132 -0.00259279 1.44108e-22)
(1.01898 -0.00589694 2.03618e-22)
(1.02608 0.00479617 -1.45431e-22)
(1.00616 0.0305065 6.09991e-23)
(1.00974 0.0293178 -4.43242e-23)
(1.01603 0.0271506 0)
(1.00344 -0.00992675 9.22862e-23)
(1.00779 -0.0118297 -1.87824e-23)
(1.0056 -0.0119949 3.02946e-23)
(1.01135 -0.0104942 0)
(1.00929 -0.0121901 4.45673e-23)
(1.0148 -0.00952163 1.37598e-22)
(1.01662 -0.0089357 -7.2692e-23)
(0.989893 0.0281585 0)
(0.988222 0.0227147 8.62922e-23)
(0.98507 0.0185699 -8.85452e-23)
(1.00182 0.0330204 -8.56949e-24)
(0.996906 0.0310358 -3.47896e-24)
(0.991515 0.0299701 0)
(0.985819 0.0152594 0)
(0.986335 0.00174048 0)
(0.987844 0.000340448 0)
(0.988607 -0.000628494 2.02014e-22)
(0.990498 -0.00178385 6.96783e-23)
(0.994127 -0.00342858 -1.95842e-23)
(0.992209 -0.00297131 -4.82568e-23)
(0.995712 -0.00353562 -4.48249e-24)
(0.984333 0.00776151 0)
(0.984622 0.00615719 -1.10236e-22)
(0.985595 0.00287378 -4.20093e-23)
(0.98439 0.0115568 -9.32541e-23)
(0.99967 -0.00148171 -3.48457e-23)
(0.999405 -0.000589544 0)
(0.99929 -0.00116172 3.1401e-23)
(0.997814 -0.00301386 2.91703e-23)
(0.998941 -0.00234108 4.02079e-23)
(0.998355 -0.00290282 8.12251e-24)
(0.999178 -0.00181907 6.51782e-24)
(0.996635 -0.00356747 4.20791e-24)
(1.00123 -0.00660512 1.69686e-23)
(1.00046 -0.00430781 3.0302e-23)
(0.999916 -0.00445466 1.21876e-23)
(1.00026 -0.00389449 0)
(0.999984 -0.0049959 1.1791e-23)
(0.999029 -0.00726549 2.07497e-23)
(1.00015 -0.00886239 5.80207e-23)
(1.00138 -0.0107744 -4.29854e-25)
(0.999203 -0.00566792 0)
(1.02521 0.0118439 0)
(1.02689 0.00722049 0)
(1.02694 0.0196376 -2.92201e-22)
(1.02316 0.0261961 0)
(1.02579 -0.000436043 -2.78997e-22)
(1.02325 -0.00411998 4.80337e-23)
(1.0209 -0.00731126 -4.1753e-22)
(1.02819 0.0013952 9.53339e-23)
(1.00458 0.0332853 0)
(1.01176 0.0338141 0)
(1.01649 0.0311434 0)
(1.00352 -0.0116781 0)
(1.0067 -0.0125962 4.10822e-23)
(1.00444 -0.0123723 -2.39377e-23)
(1.01251 -0.0120837 1.08917e-22)
(1.0098 -0.0135808 0)
(1.01416 -0.0117803 -1.1415e-22)
(1.01835 -0.0104145 -4.36768e-23)
(0.986516 0.027389 0)
(0.98605 0.0241679 -6.75787e-23)
(0.983128 0.0193579 0)
(0.999674 0.0356364 -1.35133e-24)
(0.996088 0.0348657 3.36584e-23)
(0.990244 0.03344 -5.77155e-23)
(0.983648 0.014692 0)
(0.9856 8.1327e-05 4.69898e-23)
(0.986641 -0.000375968 -1.52014e-22)
(0.988286 -0.00208231 -3.00999e-23)
(0.990407 -0.00250831 1.4001e-22)
(0.994707 -0.00381335 -1.16704e-22)
(0.993519 -0.00420409 1.23505e-22)
(0.991199 -0.0030419 -6.30134e-23)
(0.992797 -0.00399418 0)
(0.995433 -0.0039467 7.41954e-25)
(0.982696 0.0086043 4.11831e-23)
(0.983279 0.00445307 -5.78958e-23)
(0.9838 0.0029604 5.2102e-23)
(0.982742 0.0100988 4.64019e-23)
(0.999516 -0.000542639 3.13252e-23)
(0.999437 -0.000883008 -2.78429e-23)
(0.999272 -0.00171029 -3.0003e-23)
(0.997794 -0.00375457 0)
(0.999178 -0.00248555 -3.97613e-23)
(0.998759 -0.00327373 2.44849e-23)
(0.999272 -0.00244719 -8.28659e-24)
(0.9971 -0.00395283 -4.84465e-23)
(0.999559 -0.00516532 0)
(1.00024 -0.00356708 -3.5191e-23)
(0.999692 -0.00461627 -2.74633e-23)
(0.999508 -0.00507604 0)
(0.998271 -0.00670486 -3.927e-23)
(0.999133 -0.0083076 -4.35331e-23)
(1.00029 -0.0104211 0)
(1.0022 -0.011801 7.99049e-23)
(0.998718 -0.00547491 0)
(1.02876 0.0133388 -8.36787e-23)
(1.0302 0.00734546 -1.79994e-22)
(1.02995 0.0166719 3.01234e-22)
(1.02784 0.0236858 4.74574e-23)
(1.02029 0.0310258 -1.1975e-22)
(1.02584 0.0264819 0)
(1.02816 0.000630113 0)
(1.02555 -0.00313424 -3.07666e-22)
(1.0229 -0.00646581 2.9925e-22)
(1.02055 -0.00949094 -1.3851e-22)
(1.03188 0.0043434 -1.16754e-23)
(1.00676 0.0362072 0)
(1.0145 0.0339166 0)
(1.00694 -0.0140552 -2.96246e-23)
(1.00414 -0.0141547 3.18362e-23)
(1.01173 -0.0135985 5.08702e-23)
(1.00842 -0.0145278 -1.87685e-23)
(1.01578 -0.0127493 -2.01492e-22)
(1.01785 -0.0121997 1.15242e-22)
(0.984307 0.0293214 -8.08701e-23)
(0.983677 0.0228347 6.70608e-23)
(0.981166 0.0184628 -3.83959e-23)
(1.00003 0.0382016 5.66878e-24)
(0.993178 0.0358304 -2.02109e-23)
(0.98694 0.0340275 6.80258e-23)
(0.981851 0.0146053 0)
(0.984202 4.89681e-05 0)
(0.986587 -0.00167408 7.62829e-23)
(0.988625 -0.00295433 -9.79645e-23)
(0.989639 -0.00334679 -8.89725e-23)
(0.99478 -0.00516259 4.58759e-23)
(0.993868 -0.00514617 3.73706e-23)
(0.991192 -0.0047403 -1.81258e-23)
(0.992078 -0.00501581 2.77233e-23)
(0.99586 -0.00463 -3.0881e-23)
(0.981163 0.00742036 -9.83401e-23)
(0.981366 0.00498856 7.70551e-23)
(0.983003 0.00183401 -1.47801e-22)
(0.9808 0.0120312 0)
(0.999124 -0.00234216 -2.7283e-23)
(0.999472 -0.000725726 3.71757e-23)
(0.999496 -0.00140487 -3.17183e-23)
(0.998282 -0.00405289 3.30282e-23)
(0.999299 -0.00249513 -4.71088e-25)
(0.999315 -0.00301715 7.41421e-24)
(0.998779 -0.0039056 3.96514e-24)
(0.999676 -0.00178305 -3.24186e-23)
(0.997038 -0.0047161 2.58427e-23)
(1.00058 -0.00294969 0)
(0.999605 -0.00413245 0)
(0.999673 -0.00438502 0)
(0.999234 -0.00459365 0)
(0.998184 -0.00589431 0)
(0.997171 -0.00709729 1.09542e-23)
(0.998184 -0.00894599 2.94391e-23)
(0.999385 -0.0109427 -2.29983e-23)
(1.00171 -0.013088 -7.96251e-23)
(0.998563 -0.00495294 5.00712e-24)
(1.03149 0.00933285 -1.57358e-23)
(1.03377 0.0168386 -4.20202e-22)
(1.0328 0.0237224 -1.98507e-23)
(1.02223 0.0352825 1.1437e-22)
(1.02768 0.0298495 1.74761e-24)
(1.02965 -0.00314692 7.94897e-23)
(1.02798 -0.00454608 1.38484e-22)
(1.02505 -0.00762942 0)
(1.02237 -0.011881 -1.62114e-22)
(1.03496 0.00134314 -3.457e-22)
(1.00643 0.0391462 0)
(1.01541 0.038142 0)
(1.00563 -0.0149539 0)
(1.00274 -0.0144785 4.72534e-23)
(1.01228 -0.0151859 -1.38645e-22)
(1.00873 -0.016269 2.01747e-23)
(1.01509 -0.0153962 1.76185e-22)
(1.01912 -0.0143605 7.48705e-23)
(0.981229 0.0279589 5.84679e-23)
(0.984437 0.0318496 3.65642e-23)
(0.981375 0.0238455 2.33812e-22)
(0.978984 0.0205164 0)
(0.980643 0.0155813 3.14324e-23)
(1.00284 0.0406353 0)
(0.996503 0.0408912 1.33541e-24)
(0.993017 0.0397378 -7.6361e-23)
(0.986297 0.0399269 0)
(0.983772 -0.00159171 3.4731e-23)
(0.985668 -0.00267415 -2.11748e-23)