/*--------------------------------*- C++ -*----------------------------------*\
| =========                 |                                                 |
| \\      /  F ield         | OpenFOAM: The Open Source CFD Toolbox           |
|  \\    /   O peration     | Version:  v2012                                 |
|   \\  /    A nd           | Website:  www.openfoam.com                      |
|    \\/     M anipulation  |                                                 |
\*---------------------------------------------------------------------------*/
FoamFile
{
    version     2.0;
    format      ascii;
    class       surfaceVectorField;
    location    "7";
    object      Uf;
}
// * * * * * * * * * * * * * * * * * * * * * * * * * * * * * * * * * * * * * //

dimensions      [0 1 -1 0 0 0 0];


internalField   nonuniform List<vector> 
18781
(
(1.00009 0.000248649 -2.5047e-24)
(1.00011 0.000212303 3.68841e-22)
(1.00016 0.000486084 9.11539e-23)
(1.00008 0.000231152 2.10949e-24)
(1.00018 0.000450372 5.09726e-24)
(1.00014 0.000210286 1.71881e-23)
(1.00017 0.000705522 5.35797e-23)
(1.00022 0.000749971 2.01506e-24)
(1.00005 0.000244252 1.1068e-24)
(1.00024 0.000726508 -1.30235e-22)
(1.00029 0.000699442 -2.30664e-24)
(1.00012 0.000138029 -4.09364e-22)
(1.00023 0.000960164 -6.4711e-23)
(1.00013 0.000669559 -1.34075e-22)
(1.00034 0.000956114 2.17513e-24)
(1.00009 0.000475652 9.15261e-24)
(1.00004 0.000256392 -5.20654e-23)
(1.00028 0.000504198 -4.46496e-24)
(1.00038 0.00077401 0)
(1.00021 0.000243961 -5.01936e-24)
(1.00032 0.00121683 1.77897e-24)
(1.00024 0.001201 -1.17758e-24)
(1.00014 0.000703497 -1.16774e-24)
(1.00038 0.00118791 0)
(1.00044 0.00119908 0)
(1.00003 0.000255764 -4.85578e-24)
(1.00041 0.000787294 -1.02431e-23)
(1.00052 0.00100469 0)
(1.00032 0.000549402 -1.01767e-23)
(1.0002 0.000241927 0)
(1.00042 0.001465 0)
(1.00016 0.000994014 -3.47162e-23)
(1.0002 0.00126616 -4.06487e-25)
(1.00013 0.000771323 1.70155e-23)
(1.00058 0.00131108 0)
(1.00059 0.00151683 0)
(1.00006 0.000543839 1.05609e-25)
(1.00002 0.000292657 1.668e-24)
(1.00043 0.000747874 1.13656e-22)
(1.00072 0.00131396 0)
(1.00018 0.000190258 -7.99999e-24)
(1.00057 0.00167762 0)
(1.00046 0.00171077 -3.36268e-25)
(1.00024 0.00157088 -9.20809e-25)
(1.00011 0.0013722 6.65378e-23)
(1.00006 0.000806439 -1.52528e-22)
(1.00071 0.00175863 7.96643e-24)
(0.999989 0.000283183 -1.45915e-22)
(1.00039 0.000679696 1.97766e-23)
(1.00056 0.000928797 9.20138e-23)
(1.00073 0.00119282 4.79433e-24)
(1.00088 0.0014842 0)
(1.00027 0.000531681 -7.1788e-24)
(1.00032 0.000333481 -9.02602e-22)
(1.00035 0.00178086 -1.52197e-24)
(1.00048 0.00203091 2.70373e-23)
(1.00026 0.00187522 1.09742e-22)
(1.00006 0.00115103 3.63787e-23)
(1.00005 0.00142041 -3.22417e-25)
(1.00003 0.000851278 5.1311e-23)
(1.00089 0.00198706 -2.5778e-22)
(1.00073 0.00214574 6.62769e-24)
(0.999985 0.000223715 -4.21477e-24)
(0.999995 0.000482737 -1.93191e-24)
(1.00037 0.000647888 5.01011e-25)
(1.00076 0.00107311 4.70421e-24)
(1.00107 0.00185367 -5.61391e-24)
(1.00116 0.00159623 2.9389e-24)
(1.00052 2.98345e-05 5.26905e-22)
(1.00063 0.00224074 3.13167e-24)
(1.00053 0.00236901 1.56734e-22)
(1.00025 0.00226393 -1.40413e-25)
(1.00016 0.00195848 -4.93853e-22)
(1.00003 0.00164906 6.69535e-26)
(1.00002 0.00142024 0)
(0.999995 0.00072219 -3.49136e-25)
(0.999987 0.00109178 2.29155e-25)
(1.00105 0.0020555 -8.02149e-22)
(1.00105 0.0023198 -5.80286e-24)
(1.00074 0.00246039 1.20499e-23)
(0.99999 0.000221974 1.77416e-23)
(0.99998 0.000651856 -1.00663e-22)
(1.00063 0.000813457 6.4051e-25)
(1.00044 0.000606727 0)
(1.00087 0.00102922 -3.26996e-23)
(1.00127 0.00221972 5.82577e-24)
(1.00126 0.00153433 -7.71758e-23)
(1.00146 0.00185866 -8.47263e-24)
(1.00027 -6.08884e-05 -1.72044e-23)
(1.00039 0.00254849 4.21916e-23)
(1.00058 0.00279985 -5.19764e-24)
(1.00021 0.0026285 -1.53806e-22)
(1.00001 0.00202048 7.83732e-26)
(0.99993 0.00133411 3.21234e-24)
(1.00098 0.00257247 5.99815e-22)
(1.00122 0.00275413 -8.69176e-24)
(1.00094 0.00283351 8.63746e-22)
(0.999966 0.000490647 2.07665e-24)
(0.999971 0.000301567 -2.3069e-24)
(0.999946 0.000724513 2.30925e-22)
(1.00046 0.000354193 0)
(1.00069 0.000663517 0)
(1.00113 0.00129391 -3.18331e-24)
(1.001 0.000963161 -6.45057e-25)
(1.00153 0.00227179 -2.67602e-24)
(1.00157 0.00256845 8.61964e-22)
(1.00139 0.00145686 -2.46209e-24)
(1.00178 0.00211317 3.13219e-22)
(1.00044 0.000117173 6.00106e-24)
(1.00084 0.00309528 -5.92524e-24)
(1.0006 0.00324693 -2.8805e-23)
(1.00007 0.00266323 5.41447e-25)
(1.0002 0.00306551 -5.44372e-24)
(0.999933 0.00243321 0)
(0.999838 0.00211271 -8.28242e-24)
(0.999882 0.00113261 6.41164e-24)
(0.999841 0.00143773 -1.39633e-22)
(1.00151 0.0030659 -8.55376e-22)
(1.00132 0.00329608 5.1907e-25)
(1.00108 0.00324769 -1.52711e-22)
(0.999931 0.000283198 -1.44902e-24)
(0.999883 0.000865928 -1.42159e-24)
(1.00087 0.000765117 0)
(1.00069 0.00064395 1.10815e-23)
(1.0011 0.00092913 2.19864e-23)
(1.00188 0.00312956 1.75786e-22)
(1.00138 0.00122855 2.10022e-23)
(1.00166 0.00153446 -9.02543e-24)
(1.00195 0.00192957 -1.14823e-23)
(1.00223 0.00241109 -1.47153e-22)
(1.0006 0.00045952 1.64345e-23)
(1.00065 0.000113428 9.23974e-22)
(1.00036 0.00346667 3.4303e-22)
(1.00062 0.00375271 9.90268e-25)
(0.999897 0.00280769 -1.71195e-24)
(1.00013 0.00350336 -2.24252e-22)
(0.999789 0.00171766 5.62883e-23)
(0.999628 0.00213696 -7.07703e-22)
(0.99979 0.00148559 1.60608e-22)
(1.0013 0.00354801 -5.9699e-22)
(0.999911 0.000265606 0)
(0.999881 0.000536341 3.91343e-24)
(0.999801 0.00118981 -1.24632e-23)
(0.999848 0.000803108 2.07035e-22)
(1.00075 0.000565652 3.90533e-22)
(1.00133 0.000962452 -2.92965e-22)
(1.00232 0.00304619 2.21763e-23)
(1.00223 0.00353422 1.84748e-24)
(1.00204 0.00166029 1.04281e-22)
(1.00271 0.00273142 -2.75505e-22)
(1.00048 -0.0001505 -1.488e-21)
(1.00104 0.00398516 2.46453e-24)
(1.00072 0.004298 -4.52088e-22)
(0.999917 0.00333829 -2.14767e-24)
(0.999674 0.00305422 2.8536e-22)
(0.99999 0.00375847 -3.99034e-25)
(0.999472 0.00242748 -6.08298e-23)
(0.999515 0.00204542 7.24853e-24)
(0.999724 0.00142182 4.11878e-22)
(1.0015 0.00399548 -6.34014e-24)
(0.999902 0.000222167 2.33686e-24)
(0.999802 0.000767799 -2.34487e-24)
(1.00064 0.000305477 2.25894e-22)
(1.00102 0.000483866 -9.89701e-24)
(1.00132 0.000731091 -7.26839e-23)
(1.00165 0.00102909 -1.72489e-22)
(1.00266 0.00392476 1.02642e-23)
(1.00216 0.00396182 1.94481e-23)
(1.00203 0.00135667 -1.21803e-25)
(1.00238 0.00171182 7.4232e-22)
(1.00291 0.00241427 -2.46777e-23)
(1.00317 0.00303921 6.7592e-22)
(1.00054 0.000222602 -7.20207e-22)
(1.00082 -8.5406e-05 4.76651e-24)
(1.00085 0.00504278 2.32707e-24)
(1.00036 0.00468172 3.44014e-24)
(0.999468 0.00286177 2.20949e-24)
(0.999441 0.00345405 1.1396e-23)
(1.00002 0.00435027 1.09014e-24)
(0.999677 0.00403737 4.89484e-24)
(0.999248 0.00273333 4.79582e-24)
(0.99957 0.00167003 4.59439e-24)
(0.999403 0.00193999 0)
(0.999653 0.00129628 3.62898e-24)
(1.00188 0.0041011 1.02207e-21)
(1.00178 0.00483066 -9.0158e-24)
(0.999867 0.000467665 1.59057e-23)
(0.999892 0.000217986 1.40951e-22)
(0.999735 0.000983017 -2.80144e-23)
(0.999788 0.000714647 2.90146e-22)
(1.00064 0.000250845 -1.26033e-23)
(1.00133 0.000513104 1.27281e-23)
(1.00201 0.00100146 2.76473e-22)
(1.00318 0.00392928 2.89038e-24)
(1.00296 0.00452381 8.29727e-23)
(1.00226 0.00467567 1.01167e-23)
(1.00276 0.00207372 6.69481e-24)
(1.00279 0.00153662 -3.98355e-22)
(1.00325 0.00223976 0)
(1.00348 0.00345302 4.04049e-22)
(1.00378 0.00307843 3.76147e-23)
(1.00039 -0.00071265 6.62801e-22)
(1.00146 0.00534781 0)
(1.00085 0.00571523 1.11552e-24)
(0.999981 0.00498816 -1.10136e-22)
(0.999388 0.00384918 -8.33769e-22)
(0.999167 0.00367768 -6.98909e-24)
(0.999334 0.00443127 -1.58435e-23)
(0.999033 0.00320005 5.36598e-23)
(0.999002 0.00279034 6.42067e-24)
(0.999232 0.00206884 0)
(0.999357 0.00172258 1.008e-24)
(0.999615 0.00120165 -9.2686e-24)
(1.00202 0.00542912 0)
(0.99979 0.000660304 1.6068e-22)
(0.99991 0.000189262 4.71184e-24)
(1.00062 -0.000233336 -2.58158e-22)
(1.00104 0.000186138 -1.04252e-23)
(1.00128 0.000391558 2.08742e-22)
(1.00141 0.000445119 -1.43818e-22)
(1.00196 0.000665586 8.81273e-25)
(1.00242 0.000911852 1.11916e-22)
(1.00394 0.00407887 -2.32633e-23)
(1.00267 0.00499046 -4.74055e-24)
(1.0032 0.00516636 -1.45515e-22)
(1.00231 0.00523324 0)
(1.00282 0.00117858 3.31702e-23)
(1.00332 0.0014067 5.87086e-22)
(1.00375 0.00242912 1.12205e-23)
(1.0036 0.00200897 -2.02024e-23)
(1.00424 0.00279297 -6.14869e-22)
(1.0004 -0.000258425 -1.48971e-21)
(1.00089 0.00645931 -3.81914e-23)
(1.00035 0.00602706 3.72274e-24)
(0.999551 0.00510882 6.26393e-22)
(0.999816 0.00555558 3.50299e-24)
(0.998812 0.00363108 -8.05697e-22)
(0.999054 0.00490404 1.20336e-21)
(0.998991 0.0024715 0)
(0.998685 0.00282016 0)
(0.99902 0.00210401 -1.17603e-23)
(0.999518 0.00136597 2.4431e-23)
(0.999336 0.00150752 -9.244e-24)
(0.999626 0.00107415 -6.68008e-23)
(1.00238 0.00588942 1.26359e-23)
(0.999827 0.000529024 -5.28122e-22)
(0.999721 0.000769746 -3.05677e-23)
(0.999793 0.000327274 1.56486e-23)
(1.00122 0.000167629 -6.43556e-24)
(1.00165 0.000506778 -1.20624e-23)
(1.00145 0.000282207 -6.77155e-23)
(1.00201 0.000426038 0)
(1.00284 0.000835313 6.61163e-23)
(1.00418 0.00482224 -5.06463e-24)
(1.00464 0.00411983 1.8769e-23)
(1.00379 0.0053209 7.81405e-24)
(1.0035 0.00588481 6.47556e-23)
(1.00385 0.001514 6.94176e-23)
(1.00471 0.00227607 4.9514e-23)
(1.00479 0.00312167 -8.05156e-22)
(1.00122 -3.1311e-06 -1.69307e-24)
(1.0006 0.000515394 -1.9356e-21)
(1.00074 0.0073318 1.75593e-22)
(1.00157 0.0068999 -7.62391e-24)
(0.999705 0.00628026 -1.98188e-22)
(0.998393 0.00355901 1.9974e-23)
(0.998517 0.00416918 6.51567e-24)
(0.998588 0.00475753 1.15663e-22)
(0.998748 0.00545865 -6.10246e-24)
(0.998376 0.00299032 -4.82639e-25)
(0.998581 0.00263053 2.92201e-25)
(0.998775 0.00224045 -2.10173e-23)
(0.998989 0.00188012 1.32792e-23)
(0.999155 0.0016024 -4.50301e-25)
(0.999328 0.00130721 2.93236e-22)
(0.999604 0.000927994 3.64005e-24)
(1.00314 0.00636055 6.30832e-22)
(1.00232 0.00664243 4.27203e-22)
(0.999719 0.000452696 8.15332e-24)
(0.999796 0.000231665 7.74167e-22)
(1.00088 0.000234926 1.47273e-23)
(1.0011 7.86148e-05 -2.65696e-23)
(1.00134 8.04125e-05 -3.39507e-22)
(1.00156 5.07452e-05 1.87827e-23)
(1.00188 5.32993e-05 0)
(1.00222 0.000190844 0)
(1.00272 0.000374987 -1.53846e-23)
(1.00319 0.000565574 -1.5781e-23)
(1.00443 0.00557741 -3.56332e-22)
(1.005 0.00361636 -3.18042e-22)
(1.00537 0.00429524 2.64998e-23)
(1.0038 0.00675162 -3.13139e-23)
(1.00459 0.00167761 1.6806e-23)
(1.00424 0.00113948 8.13587e-22)
(1.00517 0.00185088 -2.28308e-22)
(1.00545 0.00308875 -9.93683e-24)
(1.00166 -0.00119964 2.78665e-21)
(1.00039 0.000190928 1.52798e-23)
(1.00071 0.00822978 9.96478e-24)
(1.00015 0.0075541 5.27876e-23)
(1.00234 0.00763145 -3.92898e-23)
(0.999667 0.00709658 4.27457e-23)
(0.999199 0.00645533 -4.57964e-24)
(0.998016 0.00335799 -4.90048e-25)
(0.998043 0.00454203 -8.47491e-23)
(0.998802 0.00610899 -6.84136e-24)
(0.99821 0.005798 -7.03209e-22)
(0.998445 0.0023945 -8.40986e-24)
(0.998942 0.00168336 9.77642e-24)
(0.999458 0.00108912 1.00607e-23)
(0.999324 0.0011851 1.20143e-23)
(0.999566 0.00081083 8.58282e-23)
(0.99966 0.000611998 9.74886e-24)
(0.999695 0.000508672 -1.06973e-24)
(0.999823 8.59506e-05 1.3363e-23)
(1.00119 -9.5285e-05 -1.38428e-21)
(1.00167 -0.000118684 1.22336e-23)
(1.00253 -4.37968e-05 0)
(1.00388 0.000617465 3.27862e-23)
(1.00348 8.24059e-05 0)
(1.0052 0.00552754 -3.25698e-23)
(1.00497 0.00643115 1.31895e-23)
(1.00561 0.00496427 -8.38009e-23)
(1.00606 0.00435981 -2.74183e-23)
(1.00468 0.00719751 3.96807e-22)
(1.0039 0.00769422 -2.14998e-23)
(1.00462 0.000465139 1.1475e-23)
(1.00564 0.00247639 -2.83486e-24)
(1.00575 0.00163322 -7.82747e-24)
(1.00609 0.00303522 1.51805e-22)
(1.0005 -0.000999968 -1.5533e-23)
(1.00068 -0.000325213 1.82849e-23)
(1.00021 -0.000266814 0)
(1.00136 0.00874333 -1.34403e-24)
(1.0005 0.00912027 3.13265e-25)
(0.999513 0.00780197 4.34257e-24)
(1.00316 0.00811282 -9.1965e-24)
(1.00222 0.00848513 -4.34538e-24)
(0.998673 0.00686755 -1.02024e-23)
(0.997618 0.0032812 -3.52954e-24)
(0.997655 0.00388287 0)
(0.99768 0.00431658 -1.47223e-23)
(0.997625 0.00508275 -1.42089e-23)
(0.997688 0.00564417 8.31498e-24)
(0.997642 0.00625784 7.23701e-24)
(0.99843 0.00191078 4.57007e-22)
(0.99812 0.00228393 -8.96135e-24)
(0.998755 0.00163377 1.17798e-23)
(0.998971 0.00141397 6.57845e-24)
(0.999191 0.0011866 5.88743e-24)
(0.999343 0.000975202 -7.04346e-24)
(0.999491 0.000784125 3.20951e-22)
(0.999737 0.000332608 8.83807e-23)
(0.999627 0.000520896 1.949e-22)
(0.999804 0.000149682 1.42795e-23)
(1.00111 -0.000413268 7.32046e-24)
(1.0014 -0.000313076 -9.86163e-25)
(1.00168 -0.00030706 -7.12168e-23)
(1.00236 -0.00027848 0)
(1.00271 -0.000325482 0)
(1.00311 -0.000371491 0)
(1.00371 -0.000440322 -1.63676e-23)
(1.00608 0.00576376 -6.50851e-22)
(1.00544 0.00723292 -1.22024e-22)
(1.00645 0.00378764 -5.62341e-23)
(1.00682 0.00455408 9.52123e-22)
(1.00411 0.00870671 -8.78419e-23)
(1.00539 0.000244119 -4.72996e-23)
(1.00475 -0.000249471 1.85843e-22)
(1.00603 0.00091909 9.37859e-22)
(1.00668 0.00152454 2.77154e-23)
(1.00685 0.00295188 9.16518e-24)
(1.00062 -0.000522217 1.05514e-23)
(1.00137 -0.00106158 5.83508e-21)
(1.00075 -0.000316947 9.07612e-24)
(1.00219 0.0095759 -5.56886e-23)
(1.0003 0.0100514 9.76651e-23)
(0.999826 0.0093158 6.64117e-25)
(0.999364 0.00870876 -4.07627e-24)
(0.998874 0.00798259 1.1009e-23)
(0.998017 0.0069726 -9.71147e-24)
(0.998392 0.00745836 -1.02422e-21)
(0.997055 0.00329076 1.32297e-22)
(0.997504 0.00288604 -3.51236e-24)
(0.997257 0.00427042 -1.39463e-23)
(0.997095 0.0054547 0)
(0.997254 0.00682739 6.92932e-24)
(0.998597 0.00156261 1.21108e-23)
(0.997796 0.00252059 0)
(0.997942 0.00201012 -3.00534e-23)
(0.999077 0.00117541 3.47027e-23)
(0.999424 0.000812073 -1.29545e-23)
(0.999501 0.000648108 -1.2031e-23)
(0.999648 0.000507802 -6.08571e-24)
(0.999878 7.82387e-05 0)
(1.00135 -0.000587653 -7.3668e-22)
(1.00201 -0.000363226 -1.3805e-23)
(1.00166 -0.000653483 -1.3836e-23)
(1.00225 -0.000649311 -1.43236e-23)
(1.00285 -0.000632773 0)
(1.00423 -0.000544194 2.0051e-22)
(1.00377 -0.00103928 -4.93357e-23)
(1.00621 0.0068261 -2.00257e-22)
(1.00696 0.00619212 2.23489e-23)
(1.00623 0.0076826 -9.74391e-24)
(1.00735 0.00533267 4.13995e-23)
(1.00767 0.00435855 3.93164e-23)
(1.0039 0.00987127 7.56441e-24)
(1.00499 0.00927188 8.1051e-24)
(1.00623 -0.000192749 -4.40053e-23)
(1.00484 -0.000859323 8.53262e-23)
(1.00714 0.002206 3.45415e-23)
(1.0074 0.00130257 2.67243e-23)
(1.00769 0.00291705 1.61647e-22)
(1.00028 -0.00146565 -9.91962e-21)
(1.00117 -0.000672219 2.10628e-23)
(1.00064 -0.000960713 -6.51292e-22)
(1.00294 0.010211 2.67144e-24)
(1.00183 0.0105652 2.29871e-24)
(1.00088 0.0106376 5.42732e-25)
(0.999948 0.0110391 2.40743e-24)
(0.998956 0.00945639 1.10194e-22)
(0.998124 0.00825645 7.90073e-24)
(0.996554 0.00313149 6.55864e-24)
(0.996615 0.00377049 1.85641e-23)
(0.997297 0.00249993 1.13626e-23)
(0.99687 0.00482501 -1.33638e-23)
(0.996762 0.00431917 1.57502e-22)
(0.996524 0.00544048 2.00106e-23)
(0.996471 0.00684376 -5.30516e-22)
(0.996833 0.00763655 5.77316e-24)
(0.998736 0.00128208 0)
(0.998466 0.00143353 1.62013e-23)
(0.998125 0.00158712 -2.49628e-22)
(0.997737 0.00173864 -2.90423e-23)
(0.998986 0.00111679 -6.45454e-24)
(0.999177 0.000961976 -1.03018e-25)
(0.999365 0.000789886 1.55224e-22)
(0.999714 0.00038168 0)
(0.999631 0.000527556 0)
(0.999683 0.0001258 0)
(1.00135 -0.000942562 -1.13499e-23)
(1.00183 -0.000981347 1.33504e-23)
(1.00154 -0.000915698 4.38717e-23)
(1.00249 -0.000887093 -1.50227e-23)
(1.00215 -0.000952672 -1.50813e-22)
(1.00282 -0.00110226 7.48993e-24)
(1.0033 -0.00147024 -3.59846e-22)
(1.0038 -0.00158757 6.68674e-22)
(1.00778 0.00621679 2.1248e-23)
(1.00603 0.0088414 0)
(1.00735 0.00837079 5.14214e-23)
(1.00808 0.00367033 -3.17822e-23)
(1.00868 0.00449783 0)
(1.00382 0.0113024 -2.47412e-24)
(1.00594 0.0102979 1.4245e-24)
(1.00645 -0.00096249 -1.92815e-23)
(1.00709 -0.000336123 1.89523e-22)
(1.00448 -0.0014677 -3.64301e-22)
(1.00507 -0.00134973 -1.52075e-21)
(1.00772 0.000443101 5.21126e-22)
(1.00843 0.00110095 5.08859e-23)
(1.00846 0.00289676 -7.81759e-23)
(1.00061 -0.000789099 -3.74026e-23)
(1.0016 0.0117441 0)
(0.999465 0.0120669 1.19587e-21)
(0.999091 0.0113936 1.89444e-24)
(0.998671 0.0104528 -4.4245e-24)
(0.998326 0.00945655 -2.03902e-23)
(0.997314 0.00834051 0)
(0.997886 0.00902014 -1.08324e-24)
(0.995958 0.0030532 -1.88971e-23)
(0.996435 0.00268891 -7.16388e-24)
(0.996162 0.00414708 1.17616e-23)
(0.997298 0.00203342 1.13191e-23)
(0.996909 0.00236413 -2.33925e-22)
(0.996195 0.00621973 -2.50352e-22)
(0.995936 0.00541086 2.98581e-23)
(0.995723 0.00683518 9.93485e-23)
(0.996345 0.00838876 0)
(0.998927 0.00104163 -6.67804e-24)
(0.998351 0.00128167 -5.44418e-23)
(0.997412 0.00160976 6.21055e-24)
(0.999324 0.000762134 6.31254e-24)
(0.999483 0.000587795 0)
(0.99965 0.000460555 0)
(0.999816 3.37886e-06 0)
(1.00135 -0.000977164 2.6494e-21)
(1.00101 -0.000885772 -1.63382e-24)
(1.00203 -0.00124964 5.42289e-24)
(1.00151 -0.00118136 1.80219e-23)
(1.00276 -0.00163748 1.36492e-23)
(1.00402 -0.0020599 2.422e-23)
(1.00883 0.00572479 2.02401e-23)
(1.00867 0.00665259 3.39871e-22)
(1.00845 0.00789029 -1.56252e-22)
(1.00828 0.00920576 -4.35579e-22)
(1.00961 0.00479284 2.4399e-23)
(1.0033 0.0127091 7.7818e-23)
(1.00468 0.0122659 -3.4651e-24)
(1.00579 0.0115979 1.13629e-23)
(1.00705 0.0108889 9.9959e-25)
(1.00585 -0.00156884 -3.43752e-23)
(1.00663 -0.00204 2.20004e-23)
(1.00805 -0.000685367 3.18197e-22)
(1.00522 -0.0022297 5.22549e-24)
(1.00889 0.00201319 1.8343e-23)
(1.0094 0.00102589 -2.03898e-22)
(1.00943 0.00299581 -3.9304e-23)
(1.00079 -0.000564105 -1.84183e-21)
(1.00128 -0.00118821 -6.16899e-24)
(1.00069 0.0127058 -1.86263e-24)
(1.00192 0.0126769 2.30706e-24)
(0.999474 0.0132832 -9.75291e-25)
(0.998036 0.0115524 -1.60258e-23)
(0.997649 0.00970034 9.82459e-24)
(0.995739 0.00372655 -1.64446e-23)
(0.995389 0.00304574 5.1598e-22)
(0.996411 0.00215783 -8.32665e-24)
(0.995579 0.00438454 0)
(0.995511 0.00511236 1.48611e-23)
(0.995276 0.005723 1.53155e-22)
(0.995222 0.00645147 -9.11028e-23)
(0.99514 0.0073678 -7.35186e-24)
(0.995611 0.00857194 0)
(0.996188 0.00925405 -9.11324e-24)
(0.998856 0.000901063 -8.41469e-23)
(0.999096 0.000815459 -1.33749e-23)
(0.998589 0.000968196 -7.94744e-23)
(0.998241 0.00106692 1.74933e-23)
(0.997573 0.00111061 6.61669e-24)
(0.997018 0.00124455 -4.49957e-23)
(0.999299 0.000670416 -6.65671e-24)
(0.999668 0.000317115 0)
(0.999555 0.000459528 -1.26319e-23)
(0.999567 7.5721e-05 -1.07191e-23)
(1.00059 -0.000837347 1.7859e-23)
(1.00226 -0.00163178 -5.5631e-24)
(1.00185 -0.00165292 8.03148e-23)
(1.00146 -0.00152009 2.49989e-24)
(1.00109 -0.00132097 1.42611e-22)
(1.00253 -0.00201017 2.17411e-23)
(1.00459 -0.00268847 3.97955e-23)
(1.00386 -0.00265179 -1.59567e-23)
(1.00998 0.00740837 -4.41427e-23)
(1.00806 0.0102187 -3.82152e-23)
(1.0093 0.00985975 3.59343e-23)
(1.01001 0.00363143 -8.01255e-22)
(1.01084 0.00479119 1.47459e-23)
(1.00263 0.0140264 1.59819e-23)
(1.00563 0.0132778 -1.48354e-23)
(1.00802 0.0118701 0)
(1.00667 -0.0029808 3.32461e-22)
(1.00747 -0.00239483 -7.586e-23)
(1.00819 -0.00168477 -1.37304e-23)
(1.00903 -0.000943818 8.44238e-25)
(1.00512 -0.00298749 -8.39527e-22)
(1.01032 0.00149932 -5.03872e-23)
(1.01005 0.000495648 1.00873e-22)
(1.01037 0.0026264 -3.31418e-23)
(1.00066 -0.001922 -5.54029e-21)
(0.999762 0.0147893 4.61011e-23)
(0.998324 0.0139821 8.97403e-24)
(0.997357 0.0107885 -4.31662e-24)
(0.997302 0.0117541 1.26955e-21)
(0.99684 0.00983608 1.27619e-22)
(0.994563 0.00322696 -7.19871e-23)
(0.994991 0.00253272 -2.87991e-22)
(0.996488 0.00152521 -8.09665e-24)
(0.995892 0.00182831 1.81957e-23)
(0.994857 0.00458887 -3.07979e-25)
(0.994644 0.00597782 -5.37344e-23)
(0.99491 0.00809508 -1.86818e-23)
(0.994065 0.00757729 -9.49443e-22)
(0.994626 0.00895744 3.8141e-23)
(0.995894 0.0103453 -3.12177e-23)
(0.998863 0.0007254 -7.01859e-24)
(0.999251 0.000601667 -9.17347e-23)
(0.998032 0.000994684 0)
(0.998312 0.000798326 -7.72497e-24)
(0.997764 0.000740132 -1.21522e-24)
(0.996687 0.00103894 -6.75671e-24)
(0.999416 0.000466079 5.50076e-23)
(0.999592 0.000368848 -1.25758e-23)
(0.999748 -0.000108494 -1.07577e-23)
(1.00078 -0.00107287 1.51794e-23)
(1.0009 -0.00116401 -9.64948e-24)
(1.00156 -0.00187912 2.09392e-24)
(1.0007 -0.00141686 -5.41507e-22)
(1.00216 -0.00244329 -4.68427e-23)
(1.00266 -0.00258899 1.59363e-22)
(1.00319 -0.00285819 1.68698e-24)
(1.0037 -0.00360369 -9.04287e-22)
(1.0113 0.00693055 -3.97289e-23)
(1.01093 0.00850586 -1.46434e-22)
(1.01044 0.0097541 -2.82891e-22)
(1.01011 0.0109156 2.75477e-22)
(1.01175 0.00564706 -1.00709e-22)
(1.01216 0.00410106 1.44748e-23)
(1.00126 0.0152019 4.39244e-23)
(1.00308 0.0155123 -5.9097e-22)
(1.0057 0.0147956 -2.5671e-22)
(1.00715 0.0139088 -1.07269e-23)
(1.00947 0.0122064 -1.71632e-23)
(1.0082 0.0130334 0)
(1.00594 -0.00349384 -4.56113e-23)
(1.00655 -0.00395891 -1.08082e-23)
(1.00834 -0.00289956 -3.46361e-22)
(1.00986 -0.000440078 3.04515e-23)
(1.0098 -0.00170322 7.55455e-23)
(1.00515 -0.00400995 -2.761e-23)
(1.01123 0.00212864 -3.10945e-25)
(1.01095 -0.000240334 -9.55457e-25)
(1.00167 -0.00208251 -2.28708e-23)
(1.00008 0.0165428 -4.22667e-24)
(0.997202 0.0135555 -2.08159e-22)
(0.997459 0.0151193 6.03841e-24)
(0.996221 0.0116003 -2.11166e-24)
(0.996707 0.0124787 1.53338e-22)
(0.994333 0.00408782 2.99035e-22)
(0.99378 0.00335441 -5.59643e-23)
(0.995274 0.00203203 -4.83304e-23)
(0.9946 0.00195928 5.9541e-24)
(0.995516 0.00122522 1.69845e-23)
(0.994046 0.00492562 -6.25504e-22)
(0.99382 0.00653059 -4.34049e-22)
(0.993996 0.00571777 -9.31577e-23)
(0.993246 0.00728498 -4.62161e-23)
(0.993662 0.00908949 -4.80937e-22)
(0.994283 0.0101682 5.86248e-23)
(0.995086 0.0110417 1.04334e-21)
(0.998873 0.000599566 0)
(0.999065 0.000586093 0)
(0.999252 0.000494511 1.76674e-23)
(0.998696 0.000554642 -7.67228e-24)
(0.998443 0.000427887 1.3225e-24)
(0.998046 0.00037849 6.1849e-24)
(0.997647 0.000401015 -5.46022e-24)
(0.996322 0.000664517 0)
(0.996684 0.000665685 4.06476e-23)
(0.999593 0.000262499 0)
(0.999493 0.000331952 0)
(0.999427 -9.04039e-06 1.12983e-23)
(1.00124 -0.00197263 8.44575e-23)
(1.00153 -0.00219835 1.35342e-23)
(1.0009 -0.00182679 -9.33671e-22)
(1.00093 -0.00187773 -7.53451e-24)
(1.00176 -0.00243028 -6.98591e-22)
(1.00191 -0.00293954 -4.06075e-23)
(1.0026 -0.00326986 5.44795e-23)
(1.0043 -0.00444787 -1.93205e-23)
(1.00329 -0.00440877 1.47331e-21)
(1.01294 0.00666313 -6.20823e-23)
(1.01194 0.00960147 5.36327e-22)
(1.01107 0.0123905 -1.74986e-23)
(1.01232 0.00276645 -7.42199e-23)
(1.01348 0.00343761 -5.36987e-22)
(1.00452 0.0157634 1.37911e-24)
(1.00317 0.017191 -3.15839e-24)
(1.00627 0.0165858 3.85843e-23)
(1.00859 0.0144262 1.94943e-23)
(1.00636 -0.00513598 -2.38563e-22)
(1.00747 -0.00443539 -1.75864e-23)
(1.00834 -0.00389598 2.53022e-22)
(1.00925 -0.00329775 3.4837e-23)
(1.01008 -0.00261106 2.01593e-21)
(1.01089 -0.00203066 3.36207e-23)
(1.00501 -0.00501082 0)
(1.01242 0.00139083 -2.60978e-22)
(1.01169 -0.00107928 -6.82717e-23)
(1.01203 -0.000123746 -3.44534e-22)
(1.00067 -0.00264155 9.95819e-21)
(0.998758 0.0176234 3.5977e-23)
(1.00037 0.0180925 1.01017e-21)
(0.995665 0.0133031 -1.79855e-23)
(0.997302 0.0165676 -6.6498e-24)
(0.995936 0.0158667 -9.89315e-24)
(0.99296 0.00379016 4.59964e-23)
(0.993336 0.0027777 7.4553e-22)
(0.99455 0.00114557 3.01704e-23)
(0.994028 0.00175669 -2.7179e-22)
(0.995877 0.000469075 0)
(0.995165 0.000509913 -1.7341e-25)
(0.993322 0.00513303 6.55377e-23)
(0.992461 0.00792606 -1.60544e-22)
(0.992182 0.00680502 1.86908e-23)
(0.992853 0.00869034 -7.07132e-23)
(0.992784 0.0100099 -2.3111e-23)
(0.99416 0.0113756 -1.66066e-22)
(0.998921 0.000377035 0)
(0.999174 0.000380976 0)
(0.998439 0.000200466 8.00534e-24)
(0.997117 0.000268211 2.32901e-21)
(0.997645 -3.55061e-05 -5.92807e-22)
(0.996274 0.000230211 4.53697e-23)
(0.996625 0.000141384 9.50516e-23)
(0.999331 0.000195729 0)
(0.999638 0.000147139 1.28905e-23)
(0.999683 -0.000239448 9.09853e-25)
(1.00085 -0.00216816 1.50339e-23)
(1.00136 -0.00255645 1.55068e-23)
(1.00172 -0.00295118 8.82268e-21)
(1.00214 -0.00352527 2.77886e-23)
(1.00159 -0.00345254 -4.13107e-22)
(1.00241 -0.00383245 -3.93006e-23)
(1.00272 -0.0042517 5.95942e-23)
(1.00298 -0.00487932 -6.95532e-22)
(1.01384 0.00780271 1.61601e-22)
(1.0143 0.00627611 1.8977e-25)
(1.01344 0.00916815 -1.22355e-22)
(1.01322 0.0109783 1.39376e-22)
(1.01265 0.0127417 -8.75614e-24)
(1.01152 0.0139412 -5.00474e-23)
(1.01457 0.00471989 2.77946e-22)
(1.01475 0.0027699 -3.5497e-23)
(1.00192 0.0181981 2.10543e-24)
(1.00355 0.0188962 -3.2045e-23)
(1.0066 0.0183263 1.37e-24)
(1.00785 0.0171587 -2.06674e-23)
(1.01023 0.0146598 -2.59426e-23)
(1.00896 0.0159908 1.38475e-22)
(1.00694 -0.00663289 -2.12832e-23)
(1.00574 -0.00618848 -5.00642e-24)
(1.00827 -0.00509854 -2.12168e-23)
(1.0102 -0.00380974 -1.74941e-23)
(1.01187 -0.00236447 1.00889e-21)
(1.00509 -0.00575263 0)
(1.00437 -0.00550669 0)
(1.0134 0.000253852 6.56869e-22)
(0.997037 0.0184272 3.88856e-22)
(1.00061 0.0201044 1.60965e-22)
(0.994835 0.0146116 -1.06384e-23)
(0.994337 0.0132223 2.88648e-23)
(0.994279 0.0159401 4.13354e-22)
(0.992714 0.00453275 -3.04315e-22)
(0.992093 0.00390103 -2.67671e-22)
(0.993386 0.00218046 7.23444e-23)
(0.992583 0.00245715 3.78804e-23)
(0.994703 0.000226551 4.35129e-23)
(0.993448 0.00140954 8.52571e-24)
(0.992263 0.00550341 1.7628e-23)
(0.991723 0.0085622 -2.79757e-23)
(0.991233 0.00597944 4.05163e-23)
(0.993014 0.0112099 -1.21081e-22)
(0.991929 0.0106753 -1.14036e-23)
(0.993523 0.0121367 -1.24501e-21)
(0.999136 0.000208318 0)
(0.998974 0.000194842 1.63502e-24)
(0.998705 4.01261e-05 -2.04796e-24)
(0.998406 -5.13639e-05 -8.46441e-25)
(0.998082 -0.00019775 1.85964e-22)
(0.997692 -0.000430048 -8.04768e-25)
(0.99636 -3.10312e-05 -1.97826e-23)
(0.999608 0.000106258 2.31568e-24)
(0.999659 0.000284921 3.44746e-22)
(0.999272 -0.000159883 -1.93004e-21)
(1.00097 -0.00253318 -1.34508e-23)
(1.00077 -0.00247511 7.8348e-22)
(1.00117 -0.00277571 1.08987e-23)
(1.00079 -0.00309334 4.59179e-24)
(1.00119 -0.00317659 -2.64591e-22)
(1.00129 -0.00362304 3.50508e-22)
(1.0021 -0.00421447 -1.33228e-23)
(1.00293 -0.00552912 1.19733e-21)
(1.00226 -0.00528118 -4.43644e-22)
(1.01506 0.00896441 -5.65292e-22)
(1.01591 0.0058911 -1.4905e-23)
(1.01438 0.0126551 -8.28246e-24)
(1.01205 0.0154406 -9.00014e-22)
(1.01565 0.00160261 -5.50928e-23)
(1.01662 0.00304992 -1.51462e-22)
(1.00516 0.0195649 3.4561e-24)
(1.00358 0.0209812 1.394e-22)
(1.00716 0.0206141 -9.16564e-24)
(1.0095 0.0177803 8.64644e-24)
(1.00823 -0.00622632 5.48257e-22)
(1.00755 -0.00736475 -1.47687e-23)
(1.00524 -0.00647893 0)
(1.0092 -0.00572909 3.45375e-22)
(1.0101 -0.00495753 -3.10368e-22)
(1.01126 -0.00423304 -3.05578e-24)
(1.01228 -0.00372007 5.83039e-22)
(1.01328 -0.00277299 2.41567e-23)
(1.00385 -0.00581405 1.2315e-23)
(1.00457 -0.00629106 0)
(1.01494 0.000310053 -2.08835e-23)
(1.01411 -0.00120989 -4.50634e-24)
(0.996606 0.0203635 3.81018e-22)
(0.995004 0.0187977 2.21104e-23)
(1.00195 0.0219809 -1.01711e-23)
(0.999734 0.0217288 1.22711e-21)
(0.992697 0.0132044 -1.48974e-23)
(0.993521 0.0174575 2.8872e-22)
(0.992395 0.0160252 2.22034e-24)
(0.991948 0.00292954 1.12358e-23)
(0.991204 0.0036992 1.13893e-23)
(0.991872 0.00219331 -2.72037e-23)
(0.994481 -0.000332293 -2.87664e-22)
(0.993939 0.000287081 2.74566e-23)
(0.99346 0.000792541 2.60324e-23)
(0.992815 0.00114281 -1.72191e-22)
(0.991189 0.00966397 -2.71227e-23)
(0.99071 0.00845921 0)
(0.9903 0.00665023 2.93519e-23)
(0.9905 0.00515531 -6.23249e-22)
(0.99082 0.0109956 4.04349e-22)
(0.998976 4.92149e-05 -9.54638e-23)
(0.999192 0.000146948 1.72016e-24)
(0.998903 -0.000188907 -1.88965e-24)
(0.99848 -0.000362637 -4.8732e-22)
(0.997424 -0.00078746 -4.78149e-24)
(0.997954 -0.000892302 1.49904e-23)
(0.996696 -0.000618696 -3.09971e-23)
(0.995955 -0.000591654 4.43082e-23)
(0.99944 0.000262823 -1.17275e-23)
(0.999512 5.59733e-05 -1.09436e-23)
(0.999676 -0.000477069 8.21641e-24)
(1.00124 -0.00254663 2.79732e-23)
(1.00087 -0.00280844 1.13042e-23)
(1.00095 -0.00303369 1.08668e-23)
(1.00206 -0.00396118 1.24865e-20)
(1.00115 -0.00387186 3.172e-24)
(1.00096 -0.00363341 1.31793e-23)
(1.0019 -0.0048242 7.90049e-24)
(1.00169 -0.00432585 5.81271e-22)
(1.00295 -0.00639374 1.81154e-23)
(1.00176 -0.00527253 3.57222e-22)
(1.01636 0.0103204 -1.72023e-23)
(1.01678 0.00808776 -7.58528e-23)
(1.01724 0.00515346 3.41425e-23)
(1.01717 0.00654771 -2.34929e-22)
(1.01618 0.0121064 -8.59579e-24)
(1.01582 0.0141931 7.97207e-24)
(1.01151 0.0177683 9.5763e-23)
(1.01339 0.0167134 5.13767e-23)
(1.01658 0.000150856 7.20582e-22)
(1.01843 0.00380321 3.64423e-23)
(1.00338 0.0228501 -8.42589e-24)
(1.00737 0.022699 -3.25389e-24)
(1.00917 0.0214055 -4.43917e-23)
(1.01056 0.0193408 1.4393e-21)
(1.00697 -0.00820605 0)
(1.00845 -0.00819854 -3.16492e-23)
(1.00474 -0.00683541 -1.92428e-23)
(1.01018 -0.00614631 2.88981e-22)
(1.01218 -0.00497654 -2.62349e-24)
(1.01482 -0.00285689 1.94531e-22)
(0.997684 0.0217306 2.52378e-23)
(0.99533 0.0220915 1.29992e-22)
(0.992733 0.0190885 -5.94223e-24)
(0.998976 0.0240944 2.25511e-23)
(0.991845 0.0147556 -5.05894e-23)
(0.991419 0.0129443 5.01298e-22)
(0.990822 0.0158495 -8.41701e-23)
(0.990382 0.0043048 -4.24511e-23)
(0.990155 0.00303128 0)
(0.992083 0.00133003 -5.71227e-23)
(0.991162 0.00150921 4.16076e-22)
(0.993968 -0.000978262 -2.66914e-23)
(0.994714 -0.00080789 -4.12486e-23)
(0.993276 4.3648e-05 0)
(0.992189 0.000701182 7.07656e-24)
(0.989999 0.0075239 0)
(0.989374 0.00871352 0)
(0.989095 0.0065815 9.69303e-24)
(0.989428 0.00468517 -3.98893e-23)
(0.990528 0.0121697 -6.67865e-23)
(0.989486 0.0110609 -9.88197e-24)
(0.999467 -9.65001e-06 0)
(0.999179 -0.000358833 0)
(0.998936 -0.000444337 -1.61024e-23)
(0.998749 -0.000426486 6.03101e-22)
(0.998538 -0.00055355 -4.82512e-25)
(0.997156 -0.00127073 4.06302e-23)
(0.998423 -0.000817755 1.21635e-23)
(0.998241 -0.00117883 3.34647e-23)
(0.995398 -0.000906071 -1.13308e-23)
(0.996125 -0.00136218 -1.06544e-23)
(0.999148 -0.000341837 0)
(1.0008 -0.0030604 0)
(1.00077 -0.00304362 0)
(1.00084 -0.00334417 1.94465e-23)
(1.00084 -0.00410958 -1.64765e-23)