/*--------------------------------*- C++ -*----------------------------------*\
| =========                 |                                                 |
| \\      /  F ield         | OpenFOAM: The Open Source CFD Toolbox           |
|  \\    /   O peration     | Version:  v2012                                 |
|   \\  /    A nd           | Website:  www.openfoam.com                      |
|    \\/     M anipulation  |                                                 |
\*---------------------------------------------------------------------------*/
FoamFile
{
    version     2.0;
    format      ascii;
    class       surfaceVectorField;
    location    "7";
    object      Uf_0;
}
// * * * * * * * * * * * * * * * * * * * * * * * * * * * * * * * * * * * * * //

dimensions      [0 1 -1 0 0 0 0];


internalField   nonuniform List<vector> 
18781
(
(1.00009 0.000248642 -2.50539e-24)
(1.00011 0.000212298 3.68831e-22)
(1.00016 0.000486075 9.11525e-23)
(1.00008 0.000231146 2.1102e-24)
(1.00018 0.000450364 5.09873e-24)
(1.00014 0.000210281 1.71932e-23)
(1.00017 0.000705513 5.35777e-23)
(1.00022 0.000749961 2.01577e-24)
(1.00005 0.000244245 1.10721e-24)
(1.00024 0.000726499 -1.30232e-22)
(1.00029 0.000699432 -2.30743e-24)
(1.00012 0.000138025 -4.09354e-22)
(1.00023 0.000960151 -6.47093e-23)
(1.00013 0.000669549 -1.34073e-22)
(1.00034 0.000956101 2.17587e-24)
(1.00009 0.000475643 9.15179e-24)
(1.00004 0.000256386 -5.20655e-23)
(1.00028 0.00050419 -4.46625e-24)
(1.00038 0.000774 0)
(1.00021 0.000243956 -5.02081e-24)
(1.00032 0.00121681 1.77963e-24)
(1.00024 0.00120099 -1.17715e-24)
(1.00014 0.000703487 -1.16811e-24)
(1.00038 0.00118789 0)
(1.00044 0.00119906 0)
(1.00003 0.000255757 -4.85864e-24)
(1.00041 0.000787283 -1.02464e-23)
(1.00052 0.00100468 0)
(1.00032 0.000549394 -1.01799e-23)
(1.0002 0.000241923 0)
(1.00042 0.00146498 0)
(1.00016 0.000994 -3.47158e-23)
(1.0002 0.00126614 -4.0661e-25)
(1.00013 0.000771312 1.70156e-23)
(1.00058 0.00131106 0)
(1.00059 0.00151681 0)
(1.00006 0.00054383 1.0556e-25)
(1.00002 0.00029265 1.66857e-24)
(1.00043 0.000747864 1.13648e-22)
(1.00072 0.00131394 0)
(1.00018 0.000190255 -8.00207e-24)
(1.00057 0.00167759 0)
(1.00046 0.00171075 -3.36422e-25)
(1.00024 0.00157086 -9.21237e-25)
(1.00011 0.00137218 6.65357e-23)
(1.00006 0.000806427 -1.52523e-22)
(1.00071 0.00175861 7.96967e-24)
(0.999989 0.000283176 -1.45909e-22)
(1.00039 0.000679688 1.97777e-23)
(1.00056 0.000928785 9.20168e-23)
(1.00073 0.00119281 4.79592e-24)
(1.00088 0.00148419 0)
(1.00027 0.000531673 -7.18063e-24)
(1.00032 0.000333475 -9.02582e-22)
(1.00035 0.00178084 -1.52271e-24)
(1.00048 0.00203089 2.70387e-23)
(1.00026 0.0018752 1.09739e-22)
(1.00006 0.00115102 3.63772e-23)
(1.00005 0.00142039 -3.22669e-25)
(1.00003 0.000851266 5.13105e-23)
(1.00089 0.00198704 -2.57768e-22)
(1.00073 0.00214572 6.6304e-24)
(0.999985 0.000223709 -4.21613e-24)
(0.999995 0.000482728 -1.9325e-24)
(1.00037 0.00064788 5.01169e-25)
(1.00076 0.0010731 4.70578e-24)
(1.00107 0.00185365 -5.6162e-24)
(1.00116 0.00159622 2.94004e-24)
(1.00052 2.98358e-05 5.26899e-22)
(1.00063 0.00224072 3.13319e-24)
(1.00053 0.00236899 1.56733e-22)
(1.00025 0.00226391 -1.40574e-25)
(1.00016 0.00195846 -4.93847e-22)
(1.00003 0.00164904 6.68297e-26)
(1.00002 0.00142022 0)
(0.999995 0.000722179 -3.49273e-25)
(0.999987 0.00109176 2.29211e-25)
(1.00105 0.00205549 -8.02137e-22)
(1.00105 0.00231978 -5.80551e-24)
(1.00074 0.00246037 1.20557e-23)
(0.99999 0.000221968 1.77445e-23)
(0.99998 0.000651845 -1.00662e-22)
(1.00063 0.000813447 6.40732e-25)
(1.00044 0.00060672 0)
(1.00087 0.0010292 -3.2699e-23)
(1.00127 0.0022197 5.8247e-24)
(1.00126 0.00153431 -7.71747e-23)
(1.00146 0.00185864 -8.47635e-24)
(1.00027 -6.08857e-05 -1.72083e-23)
(1.00039 0.00254847 4.2188e-23)
(1.00058 0.00279982 -5.20035e-24)
(1.00021 0.00262847 -1.53798e-22)
(1.00001 0.00202045 7.82282e-26)
(0.99993 0.00133409 3.21345e-24)
(1.00098 0.00257245 5.99807e-22)
(1.00122 0.0027541 -8.69084e-24)
(1.00094 0.00283348 8.63738e-22)
(0.999966 0.000490638 2.07733e-24)
(0.999971 0.00030156 -2.30383e-24)
(0.999946 0.000724502 2.30919e-22)
(1.00046 0.00035419 0)
(1.00069 0.000663509 0)
(1.00113 0.0012939 -3.18451e-24)
(1.001 0.000963152 -6.4528e-25)
(1.00153 0.00227176 -2.67694e-24)
(1.00157 0.00256843 8.61958e-22)
(1.00139 0.00145685 -2.46304e-24)
(1.00178 0.00211315 3.13206e-22)
(1.00044 0.000117172 6.00239e-24)
(1.00084 0.00309525 -5.92831e-24)
(1.0006 0.0032469 -2.88066e-23)
(1.00007 0.00266321 5.4206e-25)
(1.0002 0.00306547 -5.4443e-24)
(0.999933 0.00243319 0)
(0.999838 0.00211268 -8.28538e-24)
(0.999882 0.00113259 6.41384e-24)
(0.999841 0.00143771 -1.3963e-22)
(1.00151 0.00306587 -8.55357e-22)
(1.00132 0.00329605 5.18762e-25)
(1.00108 0.00324766 -1.52717e-22)
(0.999931 0.000283192 -1.44951e-24)
(0.999883 0.000865915 -1.42215e-24)
(1.00087 0.00076511 0)
(1.00069 0.000643943 1.10848e-23)
(1.0011 0.000929121 2.19943e-23)
(1.00188 0.00312953 1.75777e-22)
(1.00138 0.00122854 2.10098e-23)
(1.00166 0.00153444 -9.02917e-24)
(1.00195 0.00192955 -1.14872e-23)
(1.00223 0.00241106 -1.47135e-22)
(1.0006 0.000459514 1.6439e-23)
(1.00065 0.000113427 9.23963e-22)
(1.00036 0.00346663 3.43017e-22)
(1.00062 0.00375267 9.90797e-25)
(0.999897 0.00280766 -1.71249e-24)
(1.00013 0.00350332 -2.24251e-22)
(0.999789 0.00171763 5.62865e-23)
(0.999628 0.00213694 -7.07693e-22)
(0.99979 0.00148557 1.60603e-22)
(1.0013 0.00354798 -5.96988e-22)
(0.999911 0.0002656 0)
(0.999881 0.000536332 3.91483e-24)
(0.999801 0.00118979 -1.24677e-23)
(0.999848 0.000803096 2.07031e-22)
(1.00075 0.000565647 3.90539e-22)
(1.00133 0.000962444 -2.92951e-22)
(1.00232 0.00304615 2.21863e-23)
(1.00223 0.00353418 1.84836e-24)
(1.00204 0.00166028 1.04273e-22)
(1.00271 0.00273139 -2.75492e-22)
(1.00048 -0.000150497 -1.48797e-21)
(1.00104 0.00398511 2.46536e-24)
(1.00072 0.00429795 -4.5208e-22)
(0.999917 0.00333826 -2.14795e-24)
(0.999674 0.00305419 2.85353e-22)
(0.99999 0.00375843 -3.98776e-25)
(0.999472 0.00242746 -6.0828e-23)
(0.999515 0.0020454 7.25113e-24)
(0.999724 0.0014218 4.11868e-22)
(1.0015 0.00399543 -6.3435e-24)
(0.999902 0.000222162 2.33766e-24)
(0.999802 0.000767788 -2.34576e-24)
(1.00064 0.000305475 2.25887e-22)
(1.00102 0.000483862 -9.89989e-24)
(1.00132 0.000731084 -7.26856e-23)
(1.00165 0.00102908 -1.72495e-22)
(1.00266 0.00392471 1.02694e-23)
(1.00216 0.00396177 1.94555e-23)
(1.00203 0.00135666 -1.21985e-25)
(1.00238 0.0017118 7.42308e-22)
(1.00291 0.00241423 -2.46894e-23)
(1.00317 0.00303917 6.75919e-22)
(1.00054 0.0002226 -7.20213e-22)
(1.00082 -8.5403e-05 4.76814e-24)
(1.00085 0.00504272 2.32864e-24)
(1.00036 0.00468166 3.44147e-24)
(0.999468 0.00286174 2.21018e-24)
(0.999441 0.00345401 1.13907e-23)
(1.00002 0.00435021 1.08998e-24)
(0.999677 0.00403732 4.89647e-24)
(0.999248 0.0027333 4.79776e-24)
(0.99957 0.00167001 4.59606e-24)
(0.999403 0.00193997 0)
(0.999653 0.00129627 3.6303e-24)
(1.00188 0.00410105 1.02205e-21)
(1.00178 0.0048306 -9.02051e-24)
(0.999867 0.000467657 1.59115e-23)
(0.999892 0.000217981 1.40948e-22)
(0.999735 0.000983003 -2.80166e-23)
(0.999788 0.000714636 2.90147e-22)
(1.00064 0.000250843 -1.26063e-23)
(1.00133 0.000513099 1.2732e-23)
(1.00201 0.00100144 2.76477e-22)
(1.00318 0.00392922 2.89194e-24)
(1.00296 0.00452375 8.29764e-23)
(1.00226 0.00467561 1.0122e-23)
(1.00276 0.00207369 6.69761e-24)
(1.00279 0.0015366 -3.98328e-22)
(1.00325 0.00223972 0)
(1.00348 0.00345297 4.04054e-22)
(1.00378 0.00307838 3.7633e-23)
(1.00039 -0.000712637 6.62796e-22)
(1.00146 0.00534774 0)
(1.00085 0.00571515 1.11636e-24)
(0.999981 0.0049881 -1.10139e-22)
(0.999388 0.00384913 -8.33749e-22)
(0.999167 0.00367764 -6.99134e-24)
(0.999334 0.00443121 -1.58441e-23)
(0.999033 0.00320001 5.36736e-23)
(0.999002 0.0027903 6.42319e-24)
(0.999232 0.00206882 0)
(0.999357 0.00172256 1.00839e-24)
(0.999615 0.00120163 -9.27204e-24)
(1.00202 0.00542904 0)
(0.99979 0.000660294 1.60676e-22)
(0.99991 0.000189258 4.71353e-24)
(1.00062 -0.000233331 -2.58152e-22)
(1.00104 0.000186138 -1.04281e-23)
(1.00128 0.000391555 2.08742e-22)
(1.00141 0.000445115 -1.43816e-22)
(1.00196 0.000665576 8.81794e-25)
(1.00242 0.000911836 1.11904e-22)
(1.00394 0.0040788 -2.3275e-23)
(1.00267 0.00499039 -4.74293e-24)
(1.0032 0.00516628 -1.45515e-22)
(1.00231 0.00523316 0)
(1.00282 0.00117856 3.31856e-23)
(1.00332 0.00140667 5.87083e-22)
(1.00375 0.00242908 1.1226e-23)
(1.0036 0.00200893 -2.02118e-23)
(1.00424 0.00279291 -6.14832e-22)
(1.0004 -0.000258422 -1.48968e-21)
(1.00089 0.00645921 -3.81922e-23)
(1.00035 0.00602698 3.72361e-24)
(0.999551 0.00510875 6.2638e-22)
(0.999816 0.0055555 3.50374e-24)
(0.998812 0.00363104 -8.05675e-22)
(0.999054 0.00490397 1.20332e-21)
(0.998991 0.00247147 0)
(0.998685 0.00282013 0)
(0.99902 0.00210398 -1.1765e-23)
(0.999518 0.00136596 2.44281e-23)
(0.999336 0.0015075 -9.24752e-24)
(0.999626 0.00107413 -6.67959e-23)
(1.00238 0.00588934 1.26431e-23)
(0.999827 0.000529016 -5.2812e-22)
(0.999721 0.000769735 -3.0571e-23)
(0.999793 0.000327268 1.5654e-23)
(1.00122 0.000167628 -6.43743e-24)
(1.00165 0.000506772 -1.20664e-23)
(1.00145 0.000282204 -6.77095e-23)
(1.00201 0.00042603 0)
(1.00284 0.000835293 6.61161e-23)
(1.00418 0.00482216 -5.06699e-24)
(1.00464 0.00411976 1.87753e-23)
(1.00379 0.00532081 7.81824e-24)
(1.0035 0.00588472 6.47449e-23)
(1.00385 0.00151397 6.93891e-23)
(1.00471 0.00227602 4.95389e-23)
(1.00479 0.00312161 -8.05168e-22)
(1.00122 -3.12849e-06 -1.69472e-24)
(1.0006 0.000515388 -1.93555e-21)
(1.00074 0.00733168 1.75591e-22)
(1.00157 0.00689979 -7.62918e-24)
(0.999705 0.00628017 -1.98185e-22)
(0.998393 0.00355897 1.99704e-23)
(0.998517 0.00416912 6.51849e-24)
(0.998588 0.00475746 1.1567e-22)
(0.998748 0.00545857 -6.10512e-24)
(0.998376 0.00299029 -4.82835e-25)
(0.998581 0.0026305 2.9232e-25)
(0.998775 0.00224042 -2.10216e-23)
(0.998989 0.0018801 1.32785e-23)
(0.999155 0.00160238 -4.50302e-25)
(0.999328 0.0013072 2.93235e-22)
(0.999604 0.000927981 3.64141e-24)
(1.00314 0.00636045 6.30816e-22)
(1.00232 0.00664233 4.27201e-22)
(0.999719 0.000452689 8.15613e-24)
(0.999796 0.00023166 7.74149e-22)
(1.00088 0.000234925 1.47306e-23)
(1.0011 7.86151e-05 -2.65774e-23)
(1.00134 8.04121e-05 -3.39508e-22)
(1.00156 5.0743e-05 1.87887e-23)
(1.00188 5.32945e-05 0)
(1.00222 0.000190834 0)
(1.00272 0.000374972 -1.53911e-23)
(1.00319 0.000565552 -1.57877e-23)
(1.00443 0.00557731 -3.56327e-22)
(1.005 0.00361629 -3.18047e-22)
(1.00537 0.00429516 2.65133e-23)
(1.0038 0.00675151 -3.13307e-23)
(1.00459 0.00167756 1.6815e-23)
(1.00424 0.00113944 8.13574e-22)
(1.00517 0.00185083 -2.28318e-22)
(1.00545 0.00308868 -9.94159e-24)
(1.00166 -0.00119962 2.78661e-21)
(1.00039 0.000190928 1.52833e-23)
(1.00071 0.00822965 9.9677e-24)
(1.00015 0.00755398 5.27881e-23)
(1.00234 0.00763132 -3.92937e-23)
(0.999667 0.00709647 4.27403e-23)
(0.999199 0.00645523 -4.57969e-24)
(0.998016 0.00335794 -4.90248e-25)
(0.998043 0.00454196 -8.4749e-23)
(0.998802 0.00610889 -6.84404e-24)
(0.99821 0.0057979 -7.03187e-22)
(0.998445 0.00239447 -8.41336e-24)
(0.998942 0.00168334 9.78032e-24)
(0.999458 0.0010891 1.00646e-23)
(0.999324 0.00118509 1.20189e-23)
(0.999566 0.000810818 8.58298e-23)
(0.99966 0.000611989 9.75243e-24)
(0.999695 0.000508664 -1.07202e-24)
(0.999823 8.59482e-05 1.33675e-23)
(1.00119 -9.52838e-05 -1.38427e-21)
(1.00167 -0.000118687 1.22378e-23)
(1.00253 -4.38087e-05 0)
(1.00388 0.000617435 3.28017e-23)
(1.00348 8.23819e-05 0)
(1.0052 0.00552744 -3.25869e-23)
(1.00497 0.00643103 1.31964e-23)
(1.00561 0.00496417 -8.38103e-23)
(1.00606 0.00435971 -2.74326e-23)
(1.00468 0.00719738 3.96793e-22)
(1.0039 0.00769408 -2.15114e-23)
(1.00462 0.0004651 1.14801e-23)
(1.00564 0.00247632 -2.83585e-24)
(1.00575 0.00163315 -7.83101e-24)
(1.00609 0.00303514 1.51805e-22)
(1.0005 -0.000999952 -1.55346e-23)
(1.00068 -0.000325209 1.829e-23)
(1.00021 -0.00026681 0)
(1.00136 0.00874318 -1.34462e-24)
(1.0005 0.00912012 3.13061e-25)
(0.999513 0.00780184 4.34225e-24)
(1.00316 0.00811268 -9.20174e-24)
(1.00222 0.00848498 -4.34817e-24)
(0.998673 0.00686743 -1.02057e-23)
(0.997618 0.00328114 -3.5312e-24)
(0.997655 0.00388281 0)
(0.99768 0.00431651 -1.47285e-23)
(0.997625 0.00508266 -1.42149e-23)
(0.997688 0.00564408 8.31823e-24)
(0.997642 0.00625773 7.23984e-24)
(0.99843 0.00191076 4.57001e-22)
(0.99812 0.0022839 -8.96507e-24)
(0.998755 0.00163376 1.17847e-23)
(0.998971 0.00141396 6.58096e-24)
(0.999191 0.00118658 5.88967e-24)
(0.999343 0.000975189 -7.04604e-24)
(0.999491 0.000784113 3.20944e-22)
(0.999737 0.000332602 8.83706e-23)
(0.999627 0.000520889 1.94892e-22)
(0.999804 0.000149679 1.42844e-23)
(1.00111 -0.000413265 7.32279e-24)
(1.0014 -0.000313076 -9.85338e-25)
(1.00168 -0.000307064 -7.121e-23)
(1.00236 -0.00027849 0)
(1.00271 -0.000325495 0)
(1.00311 -0.000371509 0)
(1.00371 -0.000440347 -1.63754e-23)
(1.00608 0.00576365 -6.50832e-22)
(1.00544 0.00723279 -1.22015e-22)
(1.00645 0.00378755 -5.62632e-23)
(1.00682 0.00455397 9.52108e-22)
(1.00411 0.00870655 -8.78411e-23)
(1.00539 0.000244071 -4.73233e-23)
(1.00475 -0.000249511 1.85871e-22)
(1.00603 0.000919031 9.37845e-22)
(1.00668 0.00152447 2.77295e-23)
(1.00685 0.00295179 9.16996e-24)
(1.00062 -0.000522211 1.05526e-23)
(1.00137 -0.00106157 5.83501e-21)
(1.00075 -0.000316941 9.07802e-24)
(1.00219 0.00957573 -5.56874e-23)
(1.0003 0.0100512 9.76647e-23)
(0.999826 0.00931564 6.63514e-25)
(0.999364 0.00870861 -4.07655e-24)
(0.998874 0.00798245 1.10119e-23)
(0.998017 0.00697248 -9.71458e-24)
(0.998392 0.00745822 -1.0242e-21)
(0.997055 0.0032907 1.32297e-22)
(0.997504 0.00288599 -3.51401e-24)
(0.997257 0.00427035 -1.39527e-23)
(0.997095 0.00545461 0)
(0.997254 0.00682727 6.9322e-24)
(0.998597 0.00156259 1.21158e-23)
(0.997796 0.00252056 0)
(0.997942 0.00201009 -3.00666e-23)
(0.999077 0.0011754 3.47019e-23)
(0.999424 0.000812061 -1.29592e-23)
(0.999502 0.000648098 -1.20353e-23)
(0.999648 0.000507795 -6.08781e-24)
(0.999878 7.82373e-05 0)
(1.00135 -0.000587648 -7.36665e-22)
(1.00201 -0.000363232 -1.38097e-23)
(1.00166 -0.000653485 -1.38408e-23)
(1.00225 -0.000649318 -1.4329e-23)
(1.00285 -0.000632788 0)
(1.00423 -0.000544226 2.00519e-22)
(1.00377 -0.0010393 -4.93587e-23)
(1.00621 0.00682597 -2.00243e-22)
(1.00696 0.00619199 2.23605e-23)
(1.00623 0.00768246 -9.74903e-24)
(1.00735 0.00533255 4.1421e-23)
(1.00767 0.00435845 3.93369e-23)
(1.0039 0.00987109 7.56861e-24)
(1.00499 0.00927172 8.1096e-24)
(1.00623 -0.0001928 -4.40281e-23)
(1.00484 -0.000859361 8.53681e-23)
(1.00714 0.00220592 3.45593e-23)
(1.0074 0.00130249 2.67385e-23)
(1.00768 0.00291696 1.61637e-22)
(1.00028 -0.00146562 -9.91949e-21)
(1.00117 -0.000672208 2.10679e-23)
(1.00064 -0.000960698 -6.51269e-22)
(1.00294 0.0102108 2.67321e-24)
(1.00183 0.010565 2.30023e-24)
(1.00088 0.0106374 5.44029e-25)
(0.999947 0.0110389 2.40714e-24)
(0.998956 0.00945622 1.10198e-22)
(0.998124 0.0082563 7.90327e-24)
(0.996554 0.00313143 6.56172e-24)
(0.996615 0.00377042 1.85727e-23)
(0.997297 0.00249989 1.13681e-23)
(0.99687 0.00482492 -1.337e-23)
(0.996762 0.00431909 1.57488e-22)
(0.996524 0.00544037 2.00193e-23)
(0.996471 0.00684363 -5.30519e-22)
(0.996833 0.00763641 5.77555e-24)
(0.998736 0.00128207 0)
(0.998466 0.00143351 1.62084e-23)
(0.998125 0.0015871 -2.49632e-22)
(0.997737 0.00173862 -2.9055e-23)
(0.998986 0.00111677 -6.45701e-24)
(0.999177 0.000961964 -1.03195e-25)
(0.999365 0.000789875 1.55223e-22)
(0.999714 0.000381674 0)
(0.999631 0.000527549 0)
(0.999683 0.000125798 0)
(1.00135 -0.000942552 -1.13533e-23)
(1.00183 -0.000981348 1.33554e-23)
(1.00154 -0.000915697 4.38767e-23)
(1.00249 -0.000887103 -1.50284e-23)
(1.00215 -0.000952679 -1.5081e-22)
(1.00282 -0.00110228 7.49326e-24)
(1.0033 -0.00147026 -3.59854e-22)
(1.0038 -0.0015876 6.68654e-22)
(1.00778 0.00621666 2.12589e-23)
(1.00603 0.00884123 0)
(1.00735 0.00837063 5.14479e-23)
(1.00808 0.00367023 -3.17986e-23)
(1.00868 0.00449771 0)
(1.00382 0.0113022 -2.47568e-24)
(1.00594 0.0102977 1.42528e-24)
(1.00645 -0.000962538 -1.92917e-23)
(1.00709 -0.000336181 1.89524e-22)
(1.00448 -0.00146773 -3.64261e-22)
(1.00507 -0.00134976 -1.52071e-21)
(1.00772 0.000443032 5.21148e-22)
(1.00843 0.00110087 5.09129e-23)
(1.00846 0.00289666 -7.81934e-23)
(1.00061 -0.000789094 -3.74085e-23)
(1.0016 0.0117439 0)
(0.999465 0.0120667 1.19586e-21)
(0.999091 0.0113934 1.89286e-24)
(0.998671 0.0104526 -4.42472e-24)
(0.998326 0.00945637 -2.03908e-23)
(0.997314 0.00834036 0)
(0.997886 0.00901997 -1.08348e-24)
(0.995958 0.00305312 -1.89065e-23)
(0.996435 0.00268885 -7.16729e-24)
(0.996162 0.00414699 1.17671e-23)
(0.997298 0.00203338 1.13245e-23)
(0.996909 0.00236408 -2.33919e-22)
(0.996195 0.00621961 -2.50353e-22)
(0.995936 0.00541075 2.98714e-23)
(0.995723 0.00683504 9.93318e-23)
(0.996345 0.0083886 0)
(0.998927 0.00104162 -6.68064e-24)
(0.998351 0.00128165 -5.44248e-23)
(0.997412 0.00160972 6.21354e-24)
(0.999324 0.000762124 6.31481e-24)
(0.999483 0.000587787 0)
(0.99965 0.000460549 0)
(0.999816 3.37895e-06 0)
(1.00135 -0.000977158 2.64936e-21)
(1.00101 -0.000885766 -1.63608e-24)
(1.00203 -0.00124964 5.42515e-24)
(1.00151 -0.00118136 1.80269e-23)
(1.00276 -0.00163749 1.36551e-23)
(1.00402 -0.00205992 2.42313e-23)
(1.00883 0.00572466 2.02505e-23)
(1.00867 0.00665245 3.39859e-22)
(1.00845 0.00789014 -1.56239e-22)
(1.00828 0.00920559 -4.35576e-22)
(1.00961 0.00479272 2.44115e-23)
(1.0033 0.0127089 7.78168e-23)
(1.00468 0.0122657 -3.46718e-24)
(1.00579 0.0115977 1.13627e-23)
(1.00705 0.0108887 1.00014e-24)
(1.00584 -0.00156888 -3.43908e-23)
(1.00663 -0.00204004 2.20123e-23)
(1.00805 -0.000685427 3.18202e-22)
(1.00522 -0.00222973 5.22876e-24)
(1.00889 0.0020131 1.83527e-23)
(1.0094 0.00102581 -2.03917e-22)
(1.00943 0.00299571 -3.93242e-23)
(1.00079 -0.000564104 -1.84179e-21)
(1.00128 -0.00118819 -6.17082e-24)
(1.00069 0.0127056 -1.86107e-24)
(1.00192 0.0126767 2.30852e-24)
(0.999474 0.013283 -9.76595e-25)
(0.998036 0.0115522 -1.60298e-23)
(0.997649 0.00970016 9.82784e-24)
(0.995739 0.00372646 -1.64528e-23)
(0.995389 0.00304566 5.15975e-22)
(0.996411 0.00215777 -8.33062e-24)
(0.995579 0.00438445 0)
(0.995511 0.00511224 1.48679e-23)
(0.995276 0.00572287 1.5315e-22)
(0.995222 0.00645132 -9.11021e-23)
(0.99514 0.00736764 -7.3551e-24)
(0.995611 0.00857176 0)
(0.996188 0.00925387 -9.11618e-24)
(0.998856 0.000901054 -8.41534e-23)
(0.999096 0.00081545 -1.33799e-23)
(0.998589 0.000968185 -7.94649e-23)
(0.998241 0.0010669 1.75004e-23)
(0.997573 0.00111058 6.61988e-24)
(0.997018 0.00124451 -4.49951e-23)
(0.999299 0.000670408 -6.65907e-24)
(0.999668 0.000317111 0)
(0.999555 0.000459522 -1.26362e-23)
(0.999567 7.57203e-05 -1.07218e-23)
(1.00059 -0.00083734 1.78624e-23)
(1.00226 -0.00163178 -5.56488e-24)
(1.00185 -0.00165292 8.03132e-23)
(1.00146 -0.00152009 2.50109e-24)
(1.00109 -0.00132097 1.42613e-22)
(1.00253 -0.00201018 2.17338e-23)
(1.00459 -0.00268849 3.9816e-23)
(1.00386 -0.0026518 -1.59645e-23)
(1.00998 0.00740822 -4.41653e-23)
(1.00806 0.0102185 -3.82349e-23)
(1.0093 0.00985957 3.59517e-23)
(1.01001 0.00363132 -8.01253e-22)
(1.01084 0.00479107 1.47536e-23)
(1.00262 0.0140261 1.59923e-23)
(1.00563 0.0132776 -1.4844e-23)
(1.00802 0.0118699 0)
(1.00667 -0.00298083 3.32441e-22)
(1.00747 -0.00239487 -7.59036e-23)
(1.00819 -0.00168482 -1.37813e-23)
(1.00903 -0.000943878 8.44766e-25)
(1.00512 -0.00298751 -8.39505e-22)
(1.01032 0.00149923 -5.04138e-23)
(1.01005 0.00049557 1.00846e-22)
(1.01037 0.0026263 -3.31587e-23)
(1.00066 -0.00192197 -5.54023e-21)
(0.999762 0.0147891 4.61042e-23)
(0.998324 0.0139818 8.97296e-24)
(0.997357 0.0107883 -4.31704e-24)
(0.997302 0.0117539 1.26953e-21)
(0.99684 0.00983589 1.27621e-22)
(0.994563 0.00322686 -7.19928e-23)
(0.994992 0.00253264 -2.87973e-22)
(0.996488 0.00152516 -8.10055e-24)
(0.995892 0.00182825 1.82053e-23)
(0.994857 0.00458875 -3.07668e-25)
(0.994645 0.00597768 -5.37591e-23)
(0.99491 0.00809491 -1.86899e-23)
(0.994065 0.00757712 -9.4941e-22)
(0.994627 0.00895725 3.81565e-23)
(0.995894 0.0103451 -3.12282e-23)
(0.998863 0.000725392 -7.02152e-24)
(0.999252 0.000601659 -9.17297e-23)
(0.998032 0.000994665 0)
(0.998312 0.000798313 -7.72825e-24)
(0.997764 0.000740111 -1.21578e-24)
(0.996687 0.0010389 -6.75997e-24)
(0.999416 0.000466073 5.50065e-23)
(0.999592 0.000368844 -1.25801e-23)
(0.999748 -0.000108491 -1.07604e-23)
(1.00078 -0.00107287 1.51833e-23)
(1.0009 -0.001164 -9.65056e-24)
(1.00156 -0.00187912 2.09489e-24)
(1.0007 -0.00141685 -5.41504e-22)
(1.00216 -0.00244329 -4.68613e-23)
(1.00266 -0.002589 1.59342e-22)
(1.00319 -0.00285819 1.68673e-24)
(1.0037 -0.00360369 -9.04293e-22)
(1.0113 0.00693041 -3.97486e-23)
(1.01093 0.0085057 -1.46468e-22)
(1.01044 0.00975392 -2.82865e-22)
(1.01011 0.0109154 2.75494e-22)
(1.01175 0.00564693 -1.00729e-22)
(1.01216 0.00410095 1.44821e-23)
(1.00126 0.0152016 4.39361e-23)
(1.00308 0.015512 -5.90955e-22)
(1.0057 0.0147953 -2.56702e-22)
(1.00715 0.0139085 -1.07332e-23)
(1.00947 0.0122062 -1.71717e-23)
(1.0082 0.0130332 0)
(1.00594 -0.00349386 -4.56354e-23)
(1.00655 -0.00395893 -1.08138e-23)
(1.00834 -0.0028996 -3.46331e-22)
(1.00986 -0.000440145 3.04677e-23)
(1.0098 -0.00170327 7.55875e-23)
(1.00515 -0.00400996 -2.76242e-23)
(1.01123 0.00212855 -3.11179e-25)
(1.01095 -0.000240407 -9.55958e-25)
(1.00167 -0.00208248 -2.28735e-23)
(1.00008 0.0165425 -4.22885e-24)
(0.997202 0.0135552 -2.08156e-22)
(0.997459 0.015119 6.03946e-24)
(0.996221 0.0116 -2.11423e-24)
(0.996707 0.0124785 1.53328e-22)
(0.994333 0.00408771 2.9901e-22)
(0.99378 0.00335429 -5.59934e-23)
(0.995274 0.00203196 -4.8342e-23)
(0.9946 0.0019592 5.95804e-24)
(0.995516 0.00122516 1.69934e-23)
(0.994046 0.00492549 -6.25477e-22)
(0.99382 0.00653043 -4.34043e-22)
(0.993997 0.00571762 -9.31686e-23)
(0.993246 0.0072848 -4.61839e-23)
(0.993662 0.00908929 -4.80937e-22)
(0.994283 0.010168 5.86467e-23)
(0.995086 0.0110415 1.04331e-21)
(0.998873 0.000599559 0)
(0.999065 0.000586087 0)
(0.999252 0.000494505 1.76735e-23)
(0.998696 0.000554634 -7.67554e-24)
(0.998443 0.000427877 1.32518e-24)
(0.998046 0.000378476 6.18749e-24)
(0.997647 0.000400995 -5.46747e-24)
(0.996322 0.000664473 0)
(0.996684 0.000665649 4.06676e-23)
(0.999593 0.000262497 0)
(0.999493 0.000331949 0)
(0.999427 -9.03932e-06 1.13008e-23)
(1.00124 -0.00197262 8.44619e-23)
(1.00153 -0.00219834 1.35395e-23)
(1.0009 -0.00182678 -9.33701e-22)
(1.00093 -0.00187772 -7.54004e-24)
(1.00176 -0.00243028 -6.98572e-22)
(1.00191 -0.00293953 -4.061e-23)
(1.0026 -0.00326986 5.45033e-23)
(1.0043 -0.00444786 -1.93303e-23)
(1.00329 -0.00440877 1.47335e-21)
(1.01294 0.00666299 -6.20666e-23)
(1.01194 0.00960129 5.36297e-22)
(1.01107 0.0123903 -1.75073e-23)
(1.01232 0.00276635 -7.42104e-23)
(1.01348 0.00343751 -5.36973e-22)
(1.00452 0.0157631 1.37855e-24)
(1.00316 0.0171907 -3.16006e-24)
(1.00627 0.0165855 3.859e-23)
(1.00859 0.014426 1.95041e-23)
(1.00636 -0.00513599 -2.3856e-22)
(1.00747 -0.00443541 -1.75961e-23)
(1.00834 -0.00389601 2.5306e-22)
(1.00925 -0.00329779 3.48558e-23)
(1.01008 -0.0026111 2.01592e-21)
(1.01089 -0.00203071 3.36284e-23)
(1.00501 -0.00501082 0)
(1.01242 0.00139074 -2.60977e-22)
(1.01169 -0.00107934 -6.83085e-23)
(1.01203 -0.00012382 -3.44546e-22)
(1.00067 -0.00264153 9.95807e-21)
(0.998758 0.0176231 3.59691e-23)
(1.00037 0.0180922 1.01015e-21)
(0.995665 0.0133029 -1.79897e-23)
(0.997302 0.0165673 -6.65027e-24)
(0.995936 0.0158664 -9.89532e-24)
(0.99296 0.00379003 4.59503e-23)
(0.993336 0.00277759 7.45527e-22)
(0.99455 0.00114549 3.01869e-23)
(0.994028 0.0017566 -2.71778e-22)
(0.995877 0.000469024 0)
(0.995165 0.000509851 -1.73509e-25)
(0.993322 0.00513288 6.55696e-23)
(0.992461 0.00792588 -1.60544e-22)
(0.992182 0.00680484 1.86989e-23)
(0.992854 0.00869014 -7.07426e-23)
(0.992784 0.0100097 -2.31207e-23)
(0.99416 0.0113753 -1.66071e-22)
(0.998921 0.000377031 0)
(0.999174 0.000380972 0)
(0.998439 0.000200456 8.00874e-24)
(0.997117 0.000268183 2.32895e-21)
(0.997645 -3.55266e-05 -5.92818e-22)
(0.996274 0.000230163 4.53939e-23)
(0.996625 0.000141346 9.51005e-23)
(0.999331 0.000195727 0)
(0.999638 0.000147138 1.28946e-23)
(0.999683 -0.000239444 9.1012e-25)
(1.00085 -0.00216814 1.50381e-23)
(1.00136 -0.00255645 1.55126e-23)
(1.00172 -0.00295115 8.82258e-21)
(1.00214 -0.00352526 2.78012e-23)
(1.00159 -0.00345253 -4.13085e-22)
(1.00241 -0.00383244 -3.92676e-23)
(1.00272 -0.00425169 5.95964e-23)
(1.00298 -0.0048793 -6.95515e-22)
(1.01384 0.00780255 1.61666e-22)
(1.0143 0.00627597 1.8978e-25)
(1.01344 0.00916797 -1.2231e-22)
(1.01322 0.0109781 1.39372e-22)
(1.01265 0.0127415 -8.76032e-24)
(1.01152 0.013941 -5.00708e-23)
(1.01457 0.00471977 2.77909e-22)
(1.01475 0.00276981 -3.55153e-23)
(1.00192 0.0181978 2.11685e-24)
(1.00355 0.0188959 -3.20418e-23)
(1.0066 0.018326 1.37068e-24)
(1.00785 0.0171584 -2.0678e-23)
(1.01023 0.0146596 -2.59542e-23)
(1.00896 0.0159905 1.38472e-22)
(1.00694 -0.00663289 -2.12955e-23)
(1.00574 -0.00618847 -5.00932e-24)
(1.00827 -0.00509856 -2.12287e-23)
(1.0102 -0.00380977 -1.75035e-23)
(1.01187 -0.00236452 1.00889e-21)
(1.00509 -0.00575262 0)
(1.00437 -0.00550668 0)
(1.0134 0.000253775 6.56873e-22)
(0.997037 0.0184269 3.88848e-22)
(1.00061 0.0201041 1.6098e-22)
(0.994836 0.0146113 -1.06407e-23)
(0.994337 0.0132221 2.88748e-23)
(0.994279 0.0159398 4.13348e-22)
(0.992714 0.00453261 -3.04326e-22)
(0.992093 0.00390089 -2.6769e-22)
(0.993387 0.00218036 7.2357e-23)
(0.992583 0.00245703 3.79007e-23)
(0.994703 0.000226482 4.35359e-23)
(0.993448 0.00140944 8.53131e-24)
(0.992263 0.00550325 1.76369e-23)
(0.991723 0.00856199 -2.79879e-23)
(0.991233 0.00597927 4.05368e-23)
(0.993014 0.0112096 -1.21087e-22)
(0.991929 0.010675 -1.1408e-23)
(0.993523 0.0121364 -1.24498e-21)
(0.999136 0.000208315 0)
(0.998974 0.000194839 1.63561e-24)
(0.998705 4.01211e-05 -2.04869e-24)
(0.998406 -5.13727e-05 -8.47218e-25)
(0.998082 -0.000197763 1.85969e-22)
(0.997692 -0.000430067 -8.05432e-25)
(0.99636 -3.10772e-05 -1.97056e-23)
(0.999608 0.000106257 2.31728e-24)
(0.999659 0.000284919 3.44747e-22)
(0.999272 -0.000159879 -1.93001e-21)
(1.00097 -0.00253316 -1.34543e-23)
(1.00077 -0.00247509 7.83498e-22)
(1.00117 -0.0027757 1.09025e-23)
(1.00079 -0.00309331 4.59187e-24)
(1.00119 -0.00317658 -2.64585e-22)
(1.00129 -0.00362302 3.50508e-22)
(1.0021 -0.00421445 -1.33288e-23)
(1.00293 -0.00552909 1.19734e-21)
(1.00226 -0.00528114 -4.43658e-22)
(1.01506 0.00896424 -5.65277e-22)
(1.01591 0.00589097 -1.49129e-23)
(1.01437 0.0126549 -8.2864e-24)
(1.01205 0.0154404 -9.00003e-22)
(1.01565 0.00160252 -5.51214e-23)
(1.01662 0.00304982 -1.51459e-22)
(1.00516 0.0195646 3.45804e-24)
(1.00358 0.0209809 1.3939e-22)
(1.00716 0.0206138 -9.16698e-24)
(1.0095 0.01778 8.6641e-24)
(1.00823 -0.00622634 5.48247e-22)
(1.00755 -0.00736476 -1.47772e-23)
(1.00524 -0.00647892 0)
(1.0092 -0.00572911 3.45335e-22)
(1.0101 -0.00495755 -3.10375e-22)
(1.01126 -0.00423308 -3.06813e-24)
(1.01228 -0.00372011 5.83049e-22)
(1.01328 -0.00277304 2.41702e-23)
(1.00385 -0.00581403 1.23214e-23)
(1.00457 -0.00629105 0)
(1.01494 0.000309975 -2.08938e-23)
(1.01411 -0.00120995 -4.50957e-24)
(0.996606 0.0203631 3.8102e-22)
(0.995004 0.0187974 2.20992e-23)
(1.00195 0.0219806 -1.01707e-23)
(0.999734 0.0217284 1.2271e-21)
(0.992697 0.0132041 -1.49023e-23)
(0.993521 0.0174571 2.88708e-22)
(0.992395 0.0160248 2.21892e-24)
(0.991948 0.00292941 1.12417e-23)
(0.991204 0.00369906 1.13952e-23)
(0.991873 0.00219319 -2.72192e-23)
(0.994481 -0.000332361 -2.87646e-22)
(0.993939 0.000287001 2.74728e-23)
(0.99346 0.000792453 2.60474e-23)
(0.992815 0.00114272 -1.722e-22)
(0.991189 0.00966374 -2.71332e-23)
(0.990711 0.008459 0)
(0.9903 0.00665004 2.93667e-23)
(0.9905 0.00515514 -6.23249e-22)
(0.99082 0.0109954 4.04356e-22)
(0.998976 4.9213e-05 -9.54624e-23)
(0.999192 0.000146947 1.72078e-24)
(0.998903 -0.000188908 -1.89033e-24)
(0.99848 -0.000362645 -4.87323e-22)
(0.997424 -0.000787483 -4.78404e-24)
(0.997954 -0.000892318 1.49971e-23)
(0.996696 -0.00061873 -3.10135e-23)
(0.995955 -0.000591701 4.43044e-23)
(0.99944 0.000262821 -1.17312e-23)
(0.999512 5.5974e-05 -1.0947e-23)
(0.999676 -0.000477059 8.21818e-24)
(1.00124 -0.00254661 2.7978e-23)
(1.00087 -0.00280842 1.13071e-23)
(1.00095 -0.00303368 1.08706e-23)
(1.00206 -0.00396114 1.24864e-20)
(1.00115 -0.00387184 3.17297e-24)
(1.00096 -0.00363339 1.31827e-23)
(1.0019 -0.00482417 7.90298e-24)
(1.00169 -0.00432582 5.81274e-22)
(1.00295 -0.00639371 1.81249e-23)
(1.00176 -0.00527248 3.57196e-22)
(1.01636 0.0103203 -1.72283e-23)
(1.01678 0.00808761 -7.58894e-23)
(1.01724 0.00515334 3.41591e-23)
(1.01717 0.00654758 -2.34931e-22)
(1.01618 0.0121062 -8.59984e-24)
(1.01582 0.0141929 7.97561e-24)
(1.01151 0.017768 9.58088e-23)
(1.01339 0.0167132 5.14008e-23)
(1.01658 0.00015078 7.20614e-22)
(1.01843 0.0038031 3.64601e-23)
(1.00338 0.0228497 -8.4319e-24)
(1.00737 0.0226986 -3.25564e-24)
(1.00917 0.0214051 -4.44136e-23)
(1.01056 0.0193405 1.43929e-21)
(1.00697 -0.00820605 0)
(1.00845 -0.00819854 -3.16692e-23)
(1.00474 -0.0068354 -1.92542e-23)
(1.01018 -0.00614632 2.88972e-22)
(1.01218 -0.00497658 -2.62391e-24)
(1.01482 -0.00285693 1.9453e-22)
(0.997684 0.0217302 2.52329e-23)
(0.99533 0.0220912 1.29995e-22)
(0.992733 0.0190882 -5.94636e-24)
(0.998976 0.024094 2.25437e-23)
(0.991845 0.0147553 -5.06057e-23)
(0.991419 0.012944 5.01284e-22)
(0.990822 0.0158492 -8.41704e-23)
(0.990382 0.00430465 -4.24726e-23)
(0.990155 0.00303115 0)
(0.992083 0.00132993 -5.71556e-23)
(0.991162 0.0015091 4.16078e-22)
(0.993968 -0.000978327 -2.67071e-23)
(0.994714 -0.000807952 -4.12729e-23)
(0.993277 4.35646e-05 0)
(0.99219 0.000701084 7.08148e-24)
(0.989999 0.00752369 0)
(0.989374 0.0087133 0)
(0.989095 0.00658131 9.69794e-24)
(0.989429 0.00468501 -3.99095e-23)
(0.990529 0.0121694 -6.67716e-23)
(0.989486 0.0110606 -9.88642e-24)
(0.999467 -9.64869e-06 0)
(0.999179 -0.000358831 0)
(0.998936 -0.000444338 -1.61086e-23)
(0.998749 -0.000426489 6.031e-22)
(0.998538 -0.000553555 -4.83293e-25)
(0.997156 -0.00127075 4.06198e-23)
(0.998424 -0.000817764 1.2169e-23)
(0.998241 -0.00117884 3.34518e-23)
(0.995398 -0.000906124 -1.1337e-23)
(0.996125 -0.00136222 -1.06602e-23)
(0.999148 -0.000341831 0)
(1.0008 -0.00306039 0)
(1.00077 -0.00304359 0)
(1.00084 -0.00334416 1.94523e-23)
(1.00084 -0.00410954 -1.64781e-23)