/*--------------------------------*- C++ -*----------------------------------*\
| =========                 |                                                 |
| \\      /  F ield         | OpenFOAM: The Open Source CFD Toolbox           |
|  \\    /   O peration     | Version:  v2012                                 |
|   \\  /    A nd           | Website:  www.openfoam.com                      |
|    \\/     M anipulation  |                                                 |
\*---------------------------------------------------------------------------*/
FoamFile
{
    version     2.0;
    format      ascii;
    class       volVectorField;
    location    "0.1";
    object      cellDisplacement;
}
// * * * * * * * * * * * * * * * * * * * * * * * * * * * * * * * * * * * * * //

dimensions      [0 1 0 0 0 0 0];


internalField   nonuniform List<vector> 
11961
(
(3.05242e-07 1.76853e-06 0)
(8.20727e-07 4.72195e-06 0)
(5.85695e-07 3.4322e-06 0)
(6.09424e-07 3.44325e-06 0)
(1.45947e-06 8.45547e-06 0)
(2.70821e-07 1.5969e-06 0)
(1.14403e-06 6.70276e-06 0)
(1.61894e-06 9.11229e-06 0)
(2.25069e-06 1.30134e-05 0)
(4.37851e-07 2.61105e-06 0)
(1.46238e-06 8.6329e-06 0)
(2.63595e-06 1.50598e-05 0)
(1.88522e-06 1.04782e-05 0)
(2.66914e-06 1.56393e-05 0)
(8.65815e-07 5.17384e-06 0)
(1.68234e-07 1.00665e-06 0)
(1.29362e-06 7.70095e-06 0)
(2.16406e-06 1.27747e-05 0)
(3.91186e-06 2.23572e-05 0)
(3.67869e-06 2.04386e-05 0)
(8.60634e-07 4.70789e-06 0)
(3.6282e-06 2.13256e-05 0)
(8.23566e-07 4.96367e-06 0)
(2.6755e-07 1.61369e-06 0)
(1.74165e-06 1.04604e-05 0)
(2.28985e-06 1.37084e-05 0)
(4.63389e-06 2.60987e-05 0)
(4.46229e-06 2.59233e-05 0)
(4.24168e-06 2.31559e-05 0)
(2.39496e-06 1.29425e-05 0)
(3.74262e-06 2.23736e-05 0)
(1.10754e-06 6.71604e-06 0)
(5.29042e-07 3.19538e-06 0)
(1.00306e-07 6.06604e-07 0)
(1.55418e-06 9.41518e-06 0)
(2.88314e-06 1.73725e-05 0)
(6.57797e-06 3.70856e-05 0)
(5.94927e-06 3.4718e-05 0)
(6.27153e-06 3.40967e-05 0)
(2.29491e-06 1.21767e-05 0)
(4.7096e-06 2.83465e-05 0)
(9.88541e-07 6.04223e-06 0)
(5.27915e-07 3.21243e-06 0)
(1.76626e-07 1.07388e-06 0)
(1.76613e-06 1.08175e-05 0)
(2.84515e-06 1.74412e-05 0)
(7.68198e-06 4.25205e-05 0)
(7.27996e-06 4.18653e-05 0)
(6.02362e-06 3.58609e-05 0)
(6.96587e-06 3.70576e-05 0)
(4.95323e-06 2.59242e-05 0)
(7.89562e-07 4.15951e-06 0)
(4.61101e-06 2.82711e-05 0)
(7.10913e-07 4.34778e-06 0)
(1.16296e-06 7.16668e-06 0)
(3.58584e-07 2.18385e-06 0)
(1.28186e-07 7.80381e-07 0)
(2.23062e-06 1.37355e-05 0)
(1.46897e-06 9.0551e-06 0)
(3.50797e-06 2.17e-05 0)
(1.05083e-05 5.81326e-05 0)
(9.49992e-06 5.49572e-05 0)
(7.57546e-06 4.55739e-05 0)
(9.52368e-06 5.04487e-05 0)
(5.69105e-06 2.90879e-05 0)
(1.06154e-06 5.34787e-06 0)
(5.51107e-06 3.41277e-05 0)
(6.47988e-07 3.99816e-06 0)
(1.03899e-06 6.46267e-06 0)
(3.33156e-07 2.04393e-06 0)
(4.36393e-08 2.6577e-07 0)
(2.12754e-07 1.30218e-06 0)
(1.99594e-06 1.25151e-05 0)
(1.57049e-06 9.80956e-06 0)
(3.44144e-06 2.16754e-05 0)
(1.16337e-05 6.28019e-05 0)
(1.16069e-05 6.58307e-05 0)
(9.56623e-06 5.68568e-05 0)
(7.00783e-06 4.30733e-05 0)
(1.0627e-05 5.49916e-05 0)
(8.84658e-06 4.48453e-05 0)
(3.26924e-06 1.63613e-05 0)
(5.15307e-06 3.25998e-05 0)
(4.30961e-07 2.65788e-06 0)
(7.88455e-07 4.90315e-06 0)
(1.26892e-06 7.97203e-06 0)
(6.39949e-08 3.91795e-07 0)
(1.42445e-07 8.73807e-07 0)
(2.17622e-06 1.38511e-05 0)
(4.17817e-06 2.66132e-05 0)
(2.78616e-06 1.77583e-05 0)
(1.46576e-05 7.84499e-05 0)
(1.52309e-05 8.69992e-05 0)
(1.15841e-05 6.95572e-05 0)
(7.81001e-06 4.89966e-05 0)
(1.39033e-05 7.19978e-05 0)
(1.04648e-05 5.15746e-05 0)
(3.98295e-06 1.94524e-05 0)
(6.16414e-06 3.94204e-05 0)
(3.72347e-07 2.31573e-06 0)
(6.95974e-07 4.37458e-06 0)
(1.15842e-06 7.37929e-06 0)
(1.66292e-08 1.01655e-07 0)
(1.26938e-07 7.81849e-07 0)
(1.75773e-06 1.14175e-05 0)
(3.79203e-06 2.47279e-05 0)
(2.94461e-06 1.91685e-05 0)
(1.74506e-05 9.43883e-05 0)
(1.47988e-05 8.7305e-05 0)
(1.8297e-05 0.000102171 0)
(1.15184e-05 7.09778e-05 0)
(9.50654e-06 5.98167e-05 0)
(1.64477e-05 8.33315e-05 0)
(7.85682e-06 3.80204e-05 0)
(1.46618e-05 7.18852e-05 0)
(1.66188e-06 7.93616e-06 0)
(6.06979e-06 3.96531e-05 0)
(4.80492e-07 3.01637e-06 0)
(2.3795e-07 1.47885e-06 0)
(8.26771e-07 5.25822e-06 0)
(1.32082e-06 8.55543e-06 0)
(1.38425e-08 8.49201e-08 0)
(1.62938e-07 1.00924e-06 0)
(5.32273e-08 3.27158e-07 0)
(1.90264e-06 1.2665e-05 0)
(4.08943e-06 2.73133e-05 0)
(2.4975e-06 1.66072e-05 0)
(2.10588e-05 0.000111123 0)
(1.68901e-05 0.000101851 0)
(2.32415e-05 0.000130132 0)
(1.40152e-05 8.68885e-05 0)
(9.78813e-06 6.35912e-05 0)
(2.05946e-05 0.000104876 0)
(8.08569e-06 3.77657e-05 0)
(1.73164e-05 8.26812e-05 0)
(3.89629e-06 1.81072e-05 0)
(4.96458e-06 3.31292e-05 0)
(6.78021e-06 4.50152e-05 0)
(3.82001e-07 2.42536e-06 0)
(1.47673e-07 9.27433e-07 0)
(6.92425e-07 4.46278e-06 0)
(1.05021e-06 6.9294e-06 0)
(7.81615e-08 4.85133e-07 0)
(2.90361e-08 1.79273e-07 0)
(1.57503e-06 1.07844e-05 0)
(3.28141e-06 2.24845e-05 0)
(2.59637e-06 1.77138e-05 0)
(2.47936e-05 0.000132679 0)
(2.01172e-05 0.000121684 0)
(2.61339e-05 0.000149944 0)
(1.44769e-05 9.24676e-05 0)
(1.20144e-05 7.86701e-05 0)
(8.04398e-06 5.35105e-05 0)
(2.49588e-05 0.000123406 0)
(1.15195e-05 5.27667e-05 0)
(2.28676e-05 0.000109245 0)
(1.57587e-05 7.29593e-05 0)
(2.33685e-06 1.04797e-05 0)
(5.41471e-06 3.68659e-05 0)
(1.88495e-07 1.19351e-06 0)
(4.60426e-07 2.95918e-06 0)
(4.84533e-08 3.02955e-07 0)
(7.62687e-07 4.99791e-06 0)
(1.00894e-06 6.84422e-06 0)
(1.19488e-06 8.24215e-06 0)
(1.698e-06 1.20672e-05 0)
(3.06799e-06 2.18723e-05 0)
(2.1414e-06 1.51261e-05 0)
(3.05659e-05 0.000160189 0)
(2.40291e-05 0.000142911 0)
(2.01797e-05 0.000126769 0)
(3.38006e-05 0.000190679 0)
(1.73837e-05 0.000111897 0)
(1.22125e-05 8.31021e-05 0)
(8.13176e-06 5.61516e-05 0)
(3.07173e-05 0.000153211 0)
(1.0586e-05 4.64662e-05 0)
(2.54135e-05 0.000116948 0)
(2.00861e-05 9.07149e-05 0)
(5.454e-06 2.37787e-05 0)
(5.25733e-06 3.69035e-05 0)
(8.59691e-08 5.51059e-07 0)
(3.44436e-07 2.24631e-06 0)
(5.94121e-07 3.9479e-06 0)
(7.15129e-07 4.92224e-06 0)
(9.79324e-07 7.06955e-06 0)
(1.32362e-06 9.86055e-06 0)
(2.29043e-06 1.66972e-05 0)
(3.37333e-06 2.46455e-05 0)
(3.56089e-05 0.000190553 0)
(2.81029e-05 0.000173802 0)
(2.41382e-05 0.000153887 0)
(3.87047e-05 0.000225839 0)
(1.82488e-05 0.000122345 0)
(9.83841e-06 6.86398e-05 0)
(1.50359e-05 0.000103756 0)
(6.49261e-06 4.60546e-05 0)
(3.80729e-05 0.000183504 0)
(1.4825e-05 6.36284e-05 0)
(3.05078e-05 0.000138104 0)
(1.98192e-05 8.66734e-05 0)
(3.21564e-06 1.34152e-05 0)
(4.216e-06 3.05612e-05 0)
(1.66953e-07 1.08597e-06 0)
(4.04412e-07 2.67996e-06 0)
(5.73892e-07 3.8976e-06 0)
(6.22981e-07 4.44454e-06 0)
(7.2065e-07 5.27036e-06 0)
(1.01941e-06 7.63237e-06 0)
(1.2481e-06 9.87423e-06 0)
(1.95328e-06 1.5046e-05 0)
(2.69775e-06 2.08342e-05 0)
(4.38082e-05 0.000228647 0)
(3.44118e-05 0.000212667 0)
(2.2946e-05 0.000153883 0)
(4.79462e-05 0.000274763 0)
(9.32123e-06 6.82383e-05 0)
(1.42753e-05 0.000103715 0)
(6.15591e-06 4.57663e-05 0)
(3.70091e-05 0.00016984 0)
(4.54476e-05 0.000223384 0)
(1.54984e-05 6.40997e-05 0)
(3.03113e-05 0.000130374 0)
(2.47377e-05 0.000105255 0)
(6.04697e-06 2.43881e-05 0)
(4.07587e-06 3.12211e-05 0)
(7.6994e-08 5.11366e-07 0)
(3.05504e-07 2.06696e-06 0)
(3.92225e-07 2.7008e-06 0)
(4.28365e-07 3.11268e-06 0)
(5.86824e-07 4.54267e-06 0)
(7.92319e-07 6.33426e-06 0)
(9.14481e-07 7.78054e-06 0)
(1.46752e-06 1.17737e-05 0)
(2.10574e-06 1.67357e-05 0)
(2.63857e-06 2.15059e-05 0)
(5.0509e-05 0.000271689 0)
(3.87956e-05 0.000252286 0)
(2.52827e-05 0.000175746 0)
(5.45701e-05 0.00032609 0)
(1.08356e-05 8.08978e-05 0)
(7.22781e-06 5.46058e-05 0)
(1.62994e-05 0.000121926 0)
(4.8111e-06 3.7126e-05 0)
(4.32797e-05 0.00018949 0)
(5.43612e-05 0.000260045 0)
(1.15549e-05 4.65943e-05 0)
(2.23334e-05 9.14e-05 0)
(3.68019e-05 0.000154817 0)
(2.72484e-06 1.05325e-05 0)
(3.12058e-06 2.53309e-05 0)
(1.53751e-07 1.04327e-06 0)
(3.3184e-07 2.35534e-06 0)
(3.70442e-07 2.82212e-06 0)
(4.37703e-07 3.44644e-06 0)
(6.10106e-07 4.95232e-06 0)
(7.49156e-07 6.39549e-06 0)
(8.00367e-07 7.50852e-06 0)
(1.21006e-06 1.0675e-05 0)
(1.79382e-06 1.54584e-05 0)
(2.01194e-06 1.768e-05 0)
(6.06902e-05 0.000317954 0)
(4.92082e-05 0.000316556 0)
(3.26249e-05 0.000225243 0)
(2.08177e-05 0.000153193 0)
(6.65702e-05 0.000386655 0)
(9.57645e-06 7.59339e-05 0)
(6.43708e-06 5.20075e-05 0)
(1.34913e-05 0.000107538 0)
(4.34961e-06 3.58608e-05 0)
(5.28982e-05 0.000229249 0)
(5.85259e-05 0.000264456 0)
(6.16459e-05 0.000304838 0)
(1.32054e-05 5.09018e-05 0)
(2.47918e-05 9.75514e-05 0)
(3.89922e-05 0.000156218 0)
(7.16359e-06 2.69969e-05 0)
(2.916e-06 2.53682e-05 0)
(7.41076e-08 5.2582e-07 0)
(1.65933e-07 1.20843e-06 0)
(2.47406e-07 1.95788e-06 0)
(3.46721e-07 2.95502e-06 0)
(4.74597e-07 4.23061e-06 0)
(5.73113e-07 5.40341e-06 0)
(9.06235e-07 8.57582e-06 0)
(5.58285e-07 6.06455e-06 0)
(1.19567e-06 1.12248e-05 0)
(1.39365e-06 1.2955e-05 0)
(1.7439e-06 1.70107e-05 0)
(6.93206e-05 0.000374959 0)
(5.56452e-05 0.000376811 0)
(3.36088e-05 0.000249522 0)
(2.1887e-05 0.000169582 0)
(7.55223e-05 0.000456027 0)
(7.23395e-06 5.98339e-05 0)
(1.05272e-05 8.58902e-05 0)
(4.90854e-06 4.14372e-05 0)
(1.42695e-05 0.000119429 0)
(3.41577e-06 2.96158e-05 0)
(5.67343e-05 0.000229062 0)
(7.13348e-05 0.000319047 0)
(7.26621e-05 0.000346688 0)
(1.88282e-05 7.17077e-05 0)
(3.20375e-05 0.000124449 0)
(4.79049e-05 0.000187426 0)
(7.2916e-06 2.63876e-05 0)
(2.31419e-06 2.20051e-05 0)
(1.45158e-07 1.11175e-06 0)
(2.45016e-07 2.08891e-06 0)
(3.55955e-07 3.25301e-06 0)
(4.60164e-07 4.44501e-06 0)
(4.87243e-07 5.24537e-06 0)
(7.52673e-07 8.19524e-06 0)
(4.74327e-07 6.05315e-06 0)
(8.60596e-07 9.35853e-06 0)
(1.18541e-06 1.26579e-05 0)
(1.30172e-06 1.41848e-05 0)
(1.85442e-06 1.875e-05 0)
(8.23262e-05 0.000429147 0)
(4.94918e-05 0.00035964 0)
(7.03174e-05 0.000459887 0)
(3.97755e-05 0.000300055 0)
(2.64668e-05 0.000206014 0)
(1.7694e-05 0.000145761 0)
(9.1119e-05 0.000527465 0)
(6.21371e-06 5.59064e-05 0)
(8.81876e-06 7.75036e-05 0)
(4.12659e-06 3.79989e-05 0)
(1.13778e-05 0.000102614 0)
(2.94054e-06 2.81448e-05 0)
(6.74404e-05 0.000264452 0)
(8.17116e-05 0.000348072 0)
(8.33216e-05 0.000404608 0)
(2.06084e-05 7.50439e-05 0)
(3.37677e-05 0.000124801 0)
(4.93507e-05 0.000181495 0)
(2.53335e-06 9.04582e-06 0)
(1.42092e-05 5.02126e-05 0)
(2.29579e-06 2.35034e-05 0)
(5.55027e-08 4.48337e-07 0)
(1.73474e-07 1.6395e-06 0)
(2.71603e-07 2.82369e-06 0)
(3.46477e-07 3.95484e-06 0)
(3.47089e-07 4.43031e-06 0)
(5.63653e-07 7.03703e-06 0)
(3.28521e-07 5.47585e-06 0)
(7.50945e-07 9.453e-06 0)
(8.73741e-07 1.08041e-05 0)
(1.04703e-06 1.37826e-05 0)
(1.43444e-06 1.75368e-05 0)
(9.3898e-05 0.000502988 0)
(5.44541e-05 0.000418721 0)
(7.99582e-05 0.00054376 0)
(3.79987e-05 0.000312112 0)
(2.42426e-05 0.000204002 0)
(1.86226e-05 0.000161756 0)
(0.000104194 0.0006267 0)
(6.84833e-06 6.30685e-05 0)
(4.64377e-06 4.55481e-05 0)
(9.10459e-06 8.36484e-05 0)
(4.00583e-06 3.9436e-05 0)
(3.12767e-06 3.07839e-05 0)
(1.09275e-05 0.000106201 0)
(7.9083e-05 0.000317081 0)
(6.95209e-05 0.000253388 0)
(9.62805e-05 0.000417592 0)
(9.54259e-05 0.000444045 0)
(2.73689e-05 9.81878e-05 0)
(4.10898e-05 0.000148071 0)
(5.95942e-05 0.000211207 0)
(2.81268e-06 9.24651e-06 0)
(1.54801e-05 5.21735e-05 0)
(1.88586e-06 2.19213e-05 0)
(9.15878e-08 8.43232e-07 0)
(1.86333e-07 2.00571e-06 0)
(2.65448e-07 3.17339e-06 0)
(2.45584e-07 4.25637e-06 0)
(4.31935e-07 6.86718e-06 0)
(2.28062e-07 4.75641e-06 0)
(2.94716e-07 5.9291e-06 0)
(5.32622e-07 8.37196e-06 0)
(6.9967e-07 1.07932e-05 0)
(7.51652e-07 1.19647e-05 0)
(1.07065e-06 1.51635e-05 0)
(1.45206e-06 1.87792e-05 0)
(0.000110411 0.000562935 0)
(6.44752e-05 0.000497609 0)
(4.54167e-05 0.000375564 0)
(9.72279e-05 0.000633639 0)
(7.56733e-05 0.000554571 0)
(3.1371e-05 0.00027332 0)
(2.57803e-05 0.000225844 0)
(1.59796e-05 0.000150114 0)
(0.000125784 0.000718357 0)
(5.68206e-06 5.84484e-05 0)
(3.90508e-06 4.37946e-05 0)
(7.496e-06 7.51336e-05 0)
(3.04525e-06 3.40686e-05 0)
(2.67339e-06 2.961e-05 0)
(1.24836e-05 0.00012303 0)
(8.31269e-06 8.86905e-05 0)
(9.06367e-05 0.000341066 0)
(8.16585e-05 0.000289869 0)
(0.000112241 0.000470014 0)
(0.000109373 0.000519739 0)
(2.99599e-05 0.000102396 0)
(3.89982e-05 0.000132621 0)
(5.87944e-05 0.000194522 0)
(7.86183e-06 2.55974e-05 0)
(2.33983e-05 7.75126e-05 0)
(1.72175e-06 2.22392e-05 0)
(3.94286e-08 4.20934e-07 0)
(1.38438e-07 1.79074e-06 0)
(1.89321e-07 2.82448e-06 0)
(1.44372e-07 3.52415e-06 0)
(4.13311e-07 7.3177e-06 0)
(9.45457e-08 4.79848e-06 0)
(1.83037e-07 5.91619e-06 0)
(4.13601e-07 8.61339e-06 0)
(4.62372e-07 9.54316e-06 0)
(5.06408e-07 1.19533e-05 0)
(7.65784e-07 1.47488e-05 0)
(1.13998e-06 1.87377e-05 0)
(0.000127314 0.000663724 0)
(6.04611e-05 0.000515809 0)
(4.75139e-05 0.000419579 0)
(0.000108374 0.000747895 0)
(9.16802e-05 0.000688823 0)
(2.9064e-05 0.000280219 0)
(2.11423e-05 0.000203883 0)
(1.69271e-05 0.000168493 0)
(0.000144757 0.000862311 0)
(4.35332e-06 4.92735e-05 0)
(6.00177e-06 6.35953e-05 0)
(2.94549e-06 3.8477e-05 0)
(7.18649e-06 7.70599e-05 0)
(2.4508e-06 3.21863e-05 0)
(2.05206e-06 2.64803e-05 0)
(1.05107e-05 0.000116808 0)
(7.31992e-06 8.77185e-05 0)
(0.000105918 0.000392222 0)
(9.14726e-05 0.000305388 0)
(0.000118181 0.000458262 0)
(0.000123425 0.00055061 0)
(4.54585e-05 0.000148863 0)
(6.79888e-05 0.000213677 0)
(9.04892e-06 2.82978e-05 0)
(2.45622e-05 7.73079e-05 0)
(1.29441e-06 2.0372e-05 0)
(1.75654e-06 2.38124e-05 0)
(4.99815e-08 7.15903e-07 0)
(1.40341e-07 2.18355e-06 0)
(8.32492e-08 1.27011e-06 0)
(1.39797e-07 2.95814e-06 0)
(4.58196e-08 3.60106e-06 0)
(2.40929e-07 7.17979e-06 0)
(1.07153e-08 4.25033e-06 0)
(6.99921e-08 5.37718e-06 0)
(1.42599e-07 6.51477e-06 0)
(2.23838e-07 7.83409e-06 0)
(3.06057e-07 9.80623e-06 0)
(4.98222e-07 1.30196e-05 0)
(3.0289e-07 1.07738e-05 0)
(6.35666e-07 1.56842e-05 0)
(7.68146e-07 1.73504e-05 0)
(0.000145305 0.000708353 0)
(6.81728e-05 0.000604552 0)
(4.12031e-05 0.000394101 0)
(0.000131191 0.000883363 0)
(8.86064e-05 0.000731373 0)
(3.22344e-05 0.000320986 0)
(2.21413e-05 0.000226383 0)
(1.37248e-05 0.000152879 0)
(0.000169842 0.000953451 0)
(3.55138e-06 4.73832e-05 0)
(5.08851e-06 6.12885e-05 0)
(2.40164e-06 3.40037e-05 0)
(2.4228e-06 3.86371e-05 0)
(5.6587e-06 6.82901e-05 0)
(1.82641e-06 2.77111e-05 0)
(8.0826e-06 9.83796e-05 0)
(1.09341e-05 0.00012758 0)
(5.54681e-06 7.6186e-05 0)
(0.0001093 0.000368082 0)
(8.44969e-05 0.000265361 0)
(0.000140047 0.000522751 0)
(0.00013984 0.000625894 0)
(4.20957e-05 0.000130625 0)
(6.17155e-05 0.000182582 0)
(1.65903e-05 5.1149e-05 0)
(3.37862e-06 1.02779e-05 0)
(3.18562e-05 9.75151e-05 0)
(1.27616e-06 2.2241e-05 0)
(1.50267e-08 3.11454e-07 0)
(8.53173e-08 2.02009e-06 0)
(6.11903e-08 1.49166e-06 0)
(7.28919e-08 2.44424e-06 0)
(-1.10681e-08 3.13179e-06 0)
(-1.06624e-07 4.54667e-06 0)
(-4.22174e-08 5.88094e-06 0)
(-7.40442e-09 6.60386e-06 0)
(8.78713e-08 8.33108e-06 0)
(1.20241e-07 9.13745e-06 0)
(2.50098e-07 1.35405e-05 0)
(6.95246e-08 1.09677e-05 0)
(2.91876e-07 1.48865e-05 0)
(4.64335e-07 1.87736e-05 0)
(0.000165938 0.000803394 0)
(6.06398e-05 0.000598331 0)
(4.20503e-05 0.000435825 0)
(0.000142827 0.00103063 0)
(0.000100073 0.000863096 0)
(2.84895e-05 0.000317802 0)
(1.86894e-05 0.000214037 0)
(1.31824e-05 0.000159947 0)
(0.000194251 0.00112382 0)
(0.000176441 0.000899338 0)
(3.50985e-06 5.00838e-05 0)
(2.63219e-06 4.16516e-05 0)
(4.04419e-06 5.50802e-05 0)
(1.62963e-06 3.26734e-05 0)
(1.6184e-06 3.52368e-05 0)
(4.98162e-06 6.81176e-05 0)
(1.28848e-06 2.70176e-05 0)
(6.57638e-06 9.56348e-05 0)
(8.95192e-06 0.00011987 0)
(4.59822e-06 7.55543e-05 0)
(0.000128143 0.000412258 0)
(9.3489e-05 0.000269161 0)
(0.000156461 0.000610513 0)
(0.000145445 0.000493538 0)
(0.000155621 0.000655924 0)
(4.93067e-05 0.000145696 0)
(6.84026e-05 0.000190709 0)
(1.5632e-05 4.58758e-05 0)
(7.71083e-06 2.25651e-05 0)
(2.96508e-05 8.63873e-05 0)
(9.49397e-07 2.23539e-05 0)
(1.2334e-08 6.29662e-07 0)
(2.22692e-08 1.25558e-06 0)
(1.85148e-08 2.50882e-06 0)
(-1.01866e-07 3.36745e-06 0)
(-1.98566e-07 5.32136e-06 0)
(-1.56288e-07 4.02957e-06 0)
(-1.77601e-07 5.87659e-06 0)
(-1.16983e-07 7.36582e-06 0)
(-8.3802e-08 8.11438e-06 0)
(-2.0364e-08 9.93086e-06 0)
(1.56538e-08 1.29933e-05 0)
(-5.03928e-08 1.17847e-05 0)
(4.06643e-08 1.61331e-05 0)
(7.44142e-08 1.78485e-05 0)
(5.21091e-07 2.06132e-05 0)
(0.000175764 0.000767922 0)
(4.83846e-05 0.000507506 0)
(6.66571e-05 0.000704381 0)
(3.29832e-05 0.000375506 0)
(0.000122537 0.000997621 0)
(0.000173287 0.001201 0)
(8.29275e-05 0.00083453 0)
(2.27662e-05 0.000275247 0)
(1.4739e-05 0.000180355 0)
(1.91519e-05 0.000234929 0)
(1.00758e-05 0.000141521 0)
(0.00022165 0.00115137 0)
(0.000197822 0.00123787 0)
(0.000206416 0.00100544 0)
(2.48802e-06 4.69639e-05 0)
(2.07827e-06 4.29309e-05 0)
(3.30004e-06 5.60405e-05 0)
(1.10887e-06 2.94184e-05 0)
(1.08035e-06 3.69198e-05 0)
(3.62785e-06 6.11947e-05 0)
(8.89125e-07 2.4335e-05 0)
(6.98285e-06 0.000104485 0)
(4.90783e-06 8.36166e-05 0)
(8.6233e-06 0.00012588 0)
(3.42853e-06 6.86884e-05 0)
(0.000129658 0.00037673 0)
(8.17806e-05 0.000224566 0)
(0.000111181 0.000309035 0)
(0.000179677 0.00065525 0)
(0.000170889 0.000564592 0)
(4.47925e-05 0.000124901 0)
(6.26094e-05 0.00016542 0)
(2.11439e-05 6.05636e-05 0)
(4.35703e-06 1.21928e-05 0)
(3.51894e-05 9.83472e-05 0)
(-2.33467e-09 3.11705e-07 0)
(-1.3108e-08 1.57481e-06 0)
(-2.31781e-08 2.14645e-06 0)
(-1.25118e-07 2.9855e-06 0)
(-3.25605e-07 5.46173e-06 0)
(-2.7037e-07 4.59519e-06 0)
(-3.07255e-07 6.86934e-06 0)
(-2.7071e-07 7.4322e-06 0)
(-2.56214e-07 9.29934e-06 0)
(-2.20203e-07 1.01492e-05 0)
(-2.46977e-07 1.42002e-05 0)
(-3.32959e-07 1.24224e-05 0)
(-2.67881e-07 1.56428e-05 0)
(-2.5502e-07 1.96744e-05 0)
(9.78658e-08 2.26491e-05 0)
(0.000199302 0.000834148 0)
(4.41317e-05 0.00052658 0)
(5.1851e-05 0.000632384 0)
(3.09868e-05 0.000389411 0)
(0.000130257 0.00114893 0)
(0.000179078 0.00135893 0)
(8.83518e-05 0.000953329 0)
(1.99306e-05 0.000275019 0)
(1.21552e-05 0.000175104 0)
(1.49173e-05 0.000217828 0)
(9.61021e-06 0.000150441 0)
(0.000258771 0.00130741 0)
(0.000238814 0.00146588 0)
(0.000219668 0.000968739 0)
(2.31455e-06 5.02267e-05 0)
(1.29867e-06 4.11797e-05 0)
(5.15351e-07 2.96243e-05 0)
(3.70797e-07 3.51673e-05 0)
(2.97951e-06 6.22991e-05 0)
(2.68502e-07 2.46473e-05 0)
(5.89125e-06 0.000105459 0)
(3.63153e-06 8.28813e-05 0)
(6.75529e-06 0.000117629 0)
(2.59102e-06 6.9123e-05 0)
(0.000152649 0.000412661 0)
(8.50405e-05 0.00021288 0)
(0.000112772 0.000282932 0)
(0.000202861 0.000760893 0)
(0.000184964 0.000564133 0)
(5.10867e-05 0.000135101 0)
(7.11797e-05 0.000176381 0)
(2.12788e-05 5.83813e-05 0)
(7.99973e-06 2.14526e-05 0)
(2.98661e-05 8.02615e-05 0)
(-2.28228e-08 6.69492e-07 0)
(-4.29725e-08 1.28736e-06 0)
(-8.18717e-08 2.40843e-06 0)
(-1.98408e-07 3.22583e-06 0)
(-4.65717e-07 6.3491e-06 0)
(-3.44406e-07 4.60572e-06 0)
(-4.68819e-07 7.47495e-06 0)
(-4.48254e-07 8.70309e-06 0)
(-4.58954e-07 9.55785e-06 0)
(-4.08884e-07 1.15798e-05 0)
(-4.6709e-07 1.38182e-05 0)
(-6.16135e-07 1.77567e-05 0)
(-2.83234e-07 2.20358e-05 0)
(-6.27592e-07 1.95288e-05 0)
(3.56244e-05 0.000457386 0)
(4.77549e-05 0.000667743 0)
(2.47356e-05 0.000346108 0)
(0.000111251 0.00110581 0)
(0.000155726 0.00131705 0)
(0.000211693 0.00156766 0)
(7.87986e-05 0.000961606 0)
(1.51932e-05 0.000236769 0)
(2.06211e-05 0.000300153 0)
(1.20095e-05 0.000189439 0)
(7.72245e-06 0.000145868 0)
(0.000272204 0.00149142 0)
(0.00027983 0.00125013 0)
(0.000242722 0.00162335 0)
(0.000251978 0.00105803 0)
(1.50614e-06 5.09841e-05 0)
(6.42955e-07 4.37184e-05 0)
(1.9748e-07 3.18546e-05 0)
(7.23016e-08 2.70025e-05 0)
(-2.30025e-07 3.81471e-05 0)
(1.81094e-06 6.01538e-05 0)
(4.34111e-06 9.85228e-05 0)
(3.35004e-06 8.90165e-05 0)
(2.55183e-06 7.46134e-05 0)
(5.55015e-06 0.000119289 0)
(1.55336e-06 6.41433e-05 0)
(0.00017518 0.000487283 0)
(0.000147537 0.00035295 0)
(9.69703e-05 0.000232334 0)
(0.000127272 0.000298578 0)
(0.000231088 0.000819024 0)
(0.000216619 0.000650572 0)
(4.80314e-05 0.000120036 0)
(6.75398e-05 0.000158083 0)
(1.56525e-05 4.18245e-05 0)
(3.45582e-06 8.94726e-06 0)
(3.12061e-05 7.98506e-05 0)
(-2.14039e-08 3.62022e-07 0)
(-9.30902e-08 1.7281e-06 0)
(-1.15995e-07 2.24498e-06 0)
(-2.87157e-07 3.84309e-06 0)
(-1.78074e-07 2.7116e-06 0)
(-5.64501e-07 6.515e-06 0)
(-5.42796e-07 7.34205e-06 0)
(-4.91784e-07 5.57534e-06 0)
(-5.86764e-07 8.77863e-06 0)
(-6.80639e-07 1.12973e-05 0)
(-6.57606e-07 1.23175e-05 0)
(-7.66331e-07 1.54897e-05 0)
(-9.00723e-07 1.76933e-05 0)
(-8.27489e-07 2.44559e-05 0)
(-1.01752e-06 2.25995e-05 0)
(3.01488e-05 0.000446632 0)
(5.37397e-05 0.000782444 0)
(3.52014e-05 0.000566847 0)
(2.38955e-05 0.000373488 0)
(0.000115734 0.00126511 0)
(0.000160619 0.00147911 0)
(0.000215651 0.00175428 0)
(9.41142e-05 0.00116582 0)
(6.59307e-05 0.000894659 0)
(1.32919e-05 0.000243839 0)
(1.60711e-05 0.00028222 0)
(9.01315e-06 0.00018014 0)
(7.274e-06 0.000157042 0)
(5.78574e-06 0.000129323 0)
(0.000323441 0.00174099 0)
(0.000325219 0.00136024 0)
(0.000283278 0.00187003 0)
(0.000259185 0.000975129 0)
(1.19124e-06 5.56507e-05 0)
(7.10435e-07 4.7611e-05 0)
(-1.54971e-07 4.19268e-05 0)
(-4.29371e-07 3.20162e-05 0)
(-4.39588e-07 2.87004e-05 0)
(-9.19487e-07 3.81106e-05 0)
(3.87154e-06 0.000106365 0)
(1.71546e-06 8.89098e-05 0)
(1.34083e-06 7.53068e-05 0)
(7.82108e-07 6.83554e-05 0)
(0.000197892 0.000501692 0)
(0.000166945 0.000361478 0)
(0.00010071 0.000217356 0)
(0.000119348 0.000248483 0)
(0.000236266 0.000752252 0)
(0.000222922 0.000589355 0)
(3.86978e-05 9.58263e-05 0)
(5.52971e-05 0.000130616 0)
(7.27626e-05 0.000155824 0)
(1.74462e-05 4.45527e-05 0)
(6.91856e-06 1.71714e-05 0)
(2.41069e-05 6.05124e-05 0)
(-6.70661e-08 8.71687e-07 0)
(-1.19988e-07 1.60994e-06 0)
(-3.22897e-07 3.74746e-06 0)
(-2.28211e-07 2.87506e-06 0)
(-7.30606e-07 7.67772e-06 0)
(-7.81071e-07 8.86615e-06 0)
(-6.03486e-07 6.09343e-06 0)
(-8.12706e-07 1.02137e-05 0)
(-9.06386e-07 1.2135e-05 0)
(-9.09846e-07 1.41847e-05 0)
(-9.6627e-07 1.5524e-05 0)
(-1.32545e-06 2.02521e-05 0)
(-1.09384e-06 2.72411e-05 0)
(-1.43543e-06 2.40693e-05 0)
(2.94663e-05 0.000480228 0)
(4.17487e-05 0.000765415 0)
(3.01364e-05 0.000584563 0)
(1.92558e-05 0.000353874 0)
(0.000137676 0.00144668 0)
(0.000187049 0.00168047 0)
(0.000252735 0.002028 0)
(8.58861e-05 0.00121384 0)
(6.71957e-05 0.00102393 0)
(1.06596e-05 0.000228436 0)
(1.54453e-05 0.000304866 0)
(7.77352e-06 0.000189404 0)
(5.08961e-06 0.000150425 0)
(4.29385e-06 0.000133392 0)
(0.000362594 0.00176017 0)
(0.000323895 0.00194542 0)
(0.000361594 0.00157002 0)
(0.000323832 0.0012046 0)
(0.000285716 0.00206615 0)
(0.000290054 0.00103513 0)
(-5.95854e-08 5.74053e-05 0)
(-2.23868e-07 5.19114e-05 0)
(-8.69663e-07 4.62917e-05 0)
(-9.30607e-07 3.4687e-05 0)
(-8.90906e-07 2.89415e-05 0)
(-1.62132e-06 4.26127e-05 0)
(2.3341e-06 0.000106851 0)
(1.13313e-06 9.64318e-05 0)
(8.2351e-07 8.09284e-05 0)
(-3.34551e-07 6.91714e-05 0)
(0.000194033 0.000433294 0)
(0.000157143 0.000298586 0)
(8.63075e-05 0.000176634 0)
(0.000129744 0.000245571 0)
(0.000273905 0.000823867 0)
(0.000254527 0.000625483 0)
(3.72413e-05 8.69294e-05 0)
(5.29969e-05 0.000117928 0)
(6.10114e-05 0.000127868 0)
(1.31592e-05 3.25868e-05 0)
(3.29751e-06 7.90856e-06 0)
(2.38622e-05 5.70487e-05 0)
(-4.9638e-08 5.29704e-07 0)
(-2.01246e-07 2.35167e-06 0)
(-4.13167e-07 4.24136e-06 0)
(-8.48537e-07 8.22444e-06 0)
(-8.40164e-07 8.79078e-06 0)
(-9.21675e-07 1.02462e-05 0)
(-5.53719e-07 5.39513e-06 0)
(-7.93203e-07 7.51983e-06 0)
(-9.59829e-07 1.16765e-05 0)
(-1.20284e-06 1.44857e-05 0)
(-1.19971e-06 1.52128e-05 0)
(-1.37198e-06 1.81579e-05 0)
(-1.5368e-06 2.26316e-05 0)
(-1.56193e-06 2.02246e-05 0)
(-1.76563e-06 3.02512e-05 0)
(-1.9697e-06 2.7805e-05 0)
(2.20002e-05 0.000438137 0)
(4.34629e-05 0.000874918 0)
(3.22285e-05 0.000664056 0)
(2.2526e-05 0.000520188 0)
(1.80487e-05 0.000378382 0)
(0.000147383 0.00166568 0)
(0.000184332 0.00184492 0)
(0.000256568 0.00228493 0)
(8.90799e-05 0.00136211 0)
(5.63506e-05 0.00100627 0)
(8.72026e-06 0.000240325 0)
(8.65309e-06 0.000206669 0)
(1.18975e-05 0.000294297 0)
(4.71788e-06 0.000177311 0)
(3.80783e-06 0.000158025 0)
(2.65295e-06 0.00012821 0)
(0.000427758 0.0020475 0)
(0.000367507 0.00226089 0)
(0.000413422 0.00163293 0)
(0.00035459 0.0011994 0)
(0.000335464 0.00235438 0)
(0.000296304 0.000953237 0)
(-7.92534e-07 6.29675e-05 0)
(-9.83532e-07 5.16174e-05 0)
(-1.59919e-06 4.60297e-05 0)
(-1.54999e-06 3.58626e-05 0)
(-1.4826e-06 3.2793e-05 0)
(-2.36536e-06 4.42527e-05 0)
(1.74225e-06 0.000115535 0)
(-5.18166e-07 0.000100357 0)
(-7.91467e-07 8.39744e-05 0)
(-1.33905e-06 7.70393e-05 0)
(0.00021756 0.000442604 0)
(0.000171541 0.000284909 0)
(8.6486e-05 0.000155059 0)
(0.000122033 0.000205251 0)
(0.000284285 0.000746774 0)
(0.000250329 0.000536163 0)
(4.36925e-05 9.71946e-05 0)
(2.91518e-05 6.7519e-05 0)
(5.78787e-05 0.000112204 0)
(1.68276e-05 4.01203e-05 0)
(7.29841e-06 1.67915e-05 0)
(-1.21335e-07 1.16917e-06 0)
(-2.53883e-07 2.6223e-06 0)
(-3.72977e-07 3.6503e-06 0)
(-1.06112e-06 9.88372e-06 0)
(-1.07131e-06 1.03306e-05 0)
(-1.19686e-06 1.21864e-05 0)
(-7.00442e-07 6.32028e-06 0)
(-9.68758e-07 8.66123e-06 0)
(-1.30008e-06 1.39229e-05 0)
(-1.48088e-06 1.57689e-05 0)
(-1.53488e-06 1.81102e-05 0)
(-2.02815e-06 2.55341e-05 0)
(-2.12487e-06 2.40057e-05 0)
(-2.02557e-06 3.40826e-05 0)
(-2.16752e-06 3.06927e-05 0)
(-2.30125e-06 2.83777e-05 0)
(1.95489e-05 0.00045736 0)
(3.36076e-05 0.000877818 0)
(2.49643e-05 0.000657788 0)
(1.86022e-05 0.000534912 0)
(1.34012e-05 0.00035955 0)
(0.000134527 0.00173675 0)
(0.000212445 0.00214282 0)
(0.000305478 0.00265738 0)
(6.89655e-05 0.00128928 0)
(0.000106724 0.00157735 0)
(5.63186e-05 0.00112904 0)
(6.79254e-06 0.000218059 0)
(8.81525e-06 0.000261359 0)
(1.0976e-05 0.000318531 0)
(3.36542e-06 0.000190949 0)
(1.55475e-06 0.000152632 0)
(1.2368e-06 0.00013574 0)
(0.000453296 0.00233903 0)
(0.000454738 0.00189778 0)
(0.000417407 0.00242839 0)
(0.000434534 0.00149638 0)
(0.000400616 0.00129795 0)
(0.000331445 0.00102552 0)
(0.000352737 0.00265858 0)
(-2.09688e-06 6.65498e-05 0)
(-2.11181e-06 5.65686e-05 0)
(-2.43743e-06 5.27358e-05 0)
(-2.24005e-06 4.02387e-05 0)
(-3.27906e-06 5.12646e-05 0)
(-1.96842e-07 0.000119589 0)
(-1.26122e-06 0.000111743 0)
(-1.54947e-06 9.29922e-05 0)
(-2.65766e-06 8.0438e-05 0)
(0.000217403 0.000387325 0)
(0.000156471 0.000230195 0)
(0.000198426 0.000320791 0)
(0.000100295 0.000164158 0)
(6.6976e-05 0.000120007 0)
(0.000134493 0.000198675 0)
(0.00032684 0.000808982 0)
(0.000277344 0.000521574 0)
(4.14849e-05 8.79021e-05 0)
(2.75099e-05 6.06541e-05 0)
(4.70705e-05 9.32531e-05 0)
(1.45323e-05 3.32945e-05 0)
(3.72582e-06 8.33521e-06 0)
(-7.34578e-08 6.53996e-07 0)
(-2.22946e-07 2.14982e-06 0)
(-4.62382e-07 4.19458e-06 0)
(-1.26421e-06 1.12283e-05 0)
(-1.30808e-06 1.22424e-05 0)
(-1.39456e-06 1.40511e-05 0)
(-1.34875e-06 1.28867e-05 0)
(-9.07935e-07 7.95593e-06 0)
(-6.26082e-07 5.50649e-06 0)
(-1.22172e-06 1.0644e-05 0)
(-1.87567e-06 1.87882e-05 0)
(-1.97141e-06 2.10048e-05 0)
(-2.33606e-06 2.63518e-05 0)
(-2.35705e-06 2.45337e-05 0)
(-2.75408e-06 3.91573e-05 0)
(-3.0378e-06 3.69287e-05 0)
(-2.8863e-06 3.21365e-05 0)
(1.38778e-05 0.000430355 0)
(3.46341e-05 0.000992956 0)
(2.46454e-05 0.000791551 0)
(2.23848e-05 0.000704314 0)
(1.96718e-05 0.000585841 0)
(1.33637e-05 0.000504878 0)
(1.14529e-05 0.000382402 0)
(0.000158532 0.00205636 0)
(0.000199796 0.00228145 0)
(0.000313116 0.00299509 0)
(6.4435e-05 0.0014004 0)
(9.58637e-05 0.00170978 0)
(4.40924e-05 0.00110254 0)
(4.62607e-06 0.000214545 0)
(6.17974e-06 0.000276297 0)
(7.29597e-06 0.000308766 0)
(9.56927e-07 0.000191992 0)
(-1.5874e-07 0.00016231 0)
(-5.64601e-07 0.000131811 0)
(0.000530853 0.00263897 0)
(0.000513871 0.0019701 0)
(0.000461857 0.00287681 0)
(0.000496177 0.00162245 0)
(0.000402383 0.0011001 0)
(0.000349184 0.000968558 0)
(0.000422211 0.00301597 0)
(-2.91071e-06 7.40568e-05 0)
(-2.67388e-06 6.269e-05 0)
(-3.37365e-06 5.60942e-05 0)
(-2.92759e-06 4.26562e-05 0)
(-4.11886e-06 5.43165e-05 0)
(-3.17973e-06 0.00011882 0)
(-3.1809e-06 9.98586e-05 0)
(-4.0972e-06 9.04464e-05 0)
(0.000250854 0.000415521 0)
(0.000165008 0.000201471 0)
(0.000208832 0.000275658 0)
(9.65679e-05 0.000137775 0)
(6.19147e-05 0.000103142 0)
(0.000129223 0.000165436 0)
(0.000344428 0.000721363 0)
(0.000315278 0.000577069 0)
(3.29219e-05 6.99315e-05 0)
(1.9481e-05 4.29827e-05 0)
(4.10273e-05 7.98562e-05 0)
(6.28879e-06 1.34706e-05 0)
(-1.83636e-07 1.57847e-06 0)
(-3.44768e-07 3.10075e-06 0)
(-1.52505e-06 1.33308e-05 0)
(-1.54504e-06 1.37646e-05 0)
(-1.77068e-06 1.66887e-05 0)
(-1.72002e-06 1.58114e-05 0)
(-1.11962e-06 9.4542e-06 0)
(-7.74313e-07 6.5376e-06 0)
(-1.49402e-06 1.2631e-05 0)
(-2.11013e-06 2.11701e-05 0)
(-2.1774e-06 2.04957e-05 0)
(-2.91343e-06 3.08058e-05 0)
(-3.08274e-06 2.9767e-05 0)
(-3.31642e-06 4.08191e-05 0)
(-3.52407e-06 3.88461e-05 0)
(-3.37364e-06 3.61615e-05 0)
(1.12636e-05 0.000455815 0)
(2.52871e-05 0.00102213 0)
(1.75237e-05 0.000836269 0)
(1.42029e-05 0.000659572 0)
(1.40018e-05 0.000594634 0)
(1.05044e-05 0.000550148 0)
(7.10811e-06 0.000372556 0)
(0.000148869 0.00218995 0)
(0.00022134 0.00263265 0)
(0.000265286 0.00295435 0)
(0.000382588 0.00345232 0)
(4.76649e-05 0.00134037 0)
(7.42321e-05 0.00156908 0)
(0.000104695 0.00192379 0)
(4.04076e-05 0.00120742 0)
(2.48259e-06 0.000234591 0)
(2.95127e-06 0.000262334 0)
(5.40076e-06 0.000332665 0)
(3.44603e-08 0.000218397 0)
(-4.14426e-07 0.000179455 0)
(-2.31764e-06 0.00015869 0)
(-2.34399e-06 0.000143138 0)
(0.00058905 0.00261515 0)
(0.000535724 0.00304835 0)
(0.00057415 0.00224525 0)
(0.000537203 0.00157699 0)
(0.000434219 0.00103044 0)
(0.000444817 0.00344967 0)
(-4.35131e-06 8.07493e-05 0)
(-4.07169e-06 7.00835e-05 0)
(-4.57253e-06 6.52981e-05 0)
(-3.85194e-06 4.94546e-05 0)
(-5.27582e-06 6.31605e-05 0)
(-4.26411e-06 0.000131515 0)
(-3.95876e-06 0.000111091 0)
(-4.37053e-06 9.80444e-05 0)
(-5.23199e-06 9.07669e-05 0)
(0.000260262 0.000366751 0)
(0.000187686 0.000213903 0)
(0.000144714 0.000160723 0)
(0.000236307 0.000293446 0)
(0.000111487 0.000138987 0)
(8.05675e-05 0.000110701 0)
(4.96305e-05 8.35126e-05 0)