/*--------------------------------*- C++ -*----------------------------------*\
| =========                 |                                                 |
| \\      /  F ield         | OpenFOAM: The Open Source CFD Toolbox           |
|  \\    /   O peration     | Version:  v2012                                 |
|   \\  /    A nd           | Website:  www.openfoam.com                      |
|    \\/     M anipulation  |                                                 |
\*---------------------------------------------------------------------------*/
FoamFile
{
    version     2.0;
    format      ascii;
    class       volVectorField;
    location    "4";
    object      ddt0(U);
}
// * * * * * * * * * * * * * * * * * * * * * * * * * * * * * * * * * * * * * //

dimensions      [0 1 -2 0 0 0 0];


internalField   nonuniform List<vector> 
11941
(
(-8.4638e-06 -1.65285e-05 -4.35359e-24)
(-5.94307e-06 -2.28801e-05 2.58454e-24)
(-1.12245e-05 -1.88074e-05 5.87939e-24)
(-1.62363e-06 4.62323e-06 1.0619e-25)
(-4.64841e-06 -1.9587e-05 -1.4822e-323)
(1.03198e-06 7.88235e-06 -3.09411e-24)
(-1.47233e-05 -1.0326e-05 7.51656e-24)
(-8.7735e-07 8.2498e-06 -6.31669e-25)
(2.95257e-06 2.82221e-05 2.82187e-24)
(-6.43978e-06 -2.58878e-05 2.82766e-24)
(7.06338e-07 2.04831e-05 0)
(-7.64072e-06 -1.65043e-05 -3.26894e-24)
(3.75462e-06 5.83887e-05 3.17396e-24)
(-2.91944e-06 -8.8804e-07 -4.47536e-24)
(9.45329e-06 6.18357e-05 -1.4822e-323)
(-2.05657e-06 -2.19763e-05 -6.66374e-24)
(7.88018e-06 4.79868e-05 -1.4822e-323)
(-2.95672e-06 -8.74089e-06 1.4822e-323)
(7.69653e-06 8.2034e-05 -1.4822e-323)
(1.48065e-05 5.57032e-05 -1.51266e-24)
(-3.17965e-06 1.06029e-05 4.12114e-24)
(3.38511e-05 9.36077e-05 1.4822e-323)
(-6.07141e-06 -2.80498e-05 2.93824e-24)
(5.06131e-06 3.68843e-05 -9.0553e-24)
(3.02148e-05 8.95685e-05 0)
(-1.65611e-05 -8.82159e-06 1.4822e-323)
(2.91075e-05 0.000124612 1.97626e-323)
(6.1571e-06 8.75949e-05 1.90076e-24)
(1.50714e-06 6.31022e-06 -4.91743e-24)
(3.22156e-05 0.000130634 1.4822e-323)
(-8.81061e-07 -1.91533e-05 -2.36912e-24)
(4.38646e-06 4.59572e-05 2.71544e-24)
(2.74737e-05 0.000119931 0)
(-3.25852e-06 1.37203e-05 -4.15655e-24)
(1.59117e-05 0.000132472 -9.20437e-25)
(1.53456e-05 0.000127363 -4.94171e-24)
(2.49093e-06 7.01747e-05 -3.72226e-24)
(4.52419e-06 2.1212e-05 5.42511e-24)
(4.08823e-05 0.000172424 1.34128e-23)
(5.02065e-06 -2.95662e-05 2.66149e-24)
(-5.865e-06 4.47419e-05 4.70151e-25)
(3.30926e-05 9.25729e-05 4.44505e-24)
(6.04266e-05 0.000172416 1.4822e-323)
(1.59729e-06 2.14435e-05 6.79216e-24)
(3.3595e-05 0.000190826 1.00856e-23)
(1.52593e-05 0.000152534 9.22466e-24)
(-1.26595e-06 9.58106e-05 1.4822e-323)
(-3.40343e-06 1.93207e-05 -7.93653e-25)
(6.9552e-05 0.000210795 1.56025e-24)
(3.17266e-05 0.000207295 0)
(2.65915e-06 -2.08027e-05 1.93272e-24)
(-2.0779e-06 3.25774e-06 5.16294e-25)
(3.16322e-06 6.44228e-05 1.4822e-323)
(3.00167e-05 0.000102447 7.40308e-25)
(7.26793e-05 0.000224469 -9.0372e-24)
(8.99988e-05 0.000198636 3.72705e-24)
(-1.10417e-05 2.71541e-05 -5.03416e-24)
(4.12826e-05 0.000258622 -5.19778e-24)
(3.19293e-05 0.000239064 -8.52916e-24)
(7.14766e-06 0.000139874 -3.50531e-24)
(1.59775e-06 6.1639e-05 1.4822e-323)
(7.48055e-05 0.000299623 -1.17888e-23)
(6.20516e-05 0.000298729 2.75601e-23)
(1.02238e-06 -2.3339e-05 -2.94716e-24)
(6.85396e-06 3.17428e-06 1.1108e-24)
(1.18018e-05 5.19781e-05 1.4822e-323)
(5.00898e-05 0.00012449 -7.39696e-25)
(0.000121869 0.000312745 1.48224e-23)
(9.15286e-05 0.000180811 -3.57289e-24)
(0.000137229 0.000290897 -1.87841e-23)
(1.63569e-05 7.27967e-06 0)
(7.64652e-05 0.000353871 -1.01967e-23)
(2.42307e-05 0.000296922 6.69278e-24)
(-4.47425e-06 0.000196606 0)
(7.07838e-06 6.9626e-05 -1.3922e-24)
(0.000123048 0.000408342 2.06771e-23)
(7.88905e-05 0.000393478 -6.99371e-24)
(5.35569e-06 -1.59183e-05 7.45263e-25)
(5.093e-06 2.48173e-05 -1.5955e-24)
(4.92307e-05 9.75675e-05 -1.4822e-323)
(5.28099e-05 0.000124527 -1.4822e-323)
(0.000123371 0.000429451 -3.11976e-23)
(0.000101295 0.00021879 1.4822e-323)
(0.000179138 0.000348769 -2.71594e-24)
(2.35693e-05 3.72459e-05 1.86974e-24)
(4.7072e-05 0.00045834 1.58988e-23)
(4.81797e-06 0.000281392 -1.4822e-323)
(4.11503e-05 0.000412779 -1.40861e-23)
(-1.63963e-06 0.000162045 9.01313e-25)
(-2.5528e-06 0.000106213 6.13475e-27)
(0.000126565 0.000476253 -2.47426e-23)
(6.20281e-06 -2.22605e-05 0)
(-5.7965e-06 2.9325e-05 8.64644e-25)
(4.29404e-05 9.22438e-05 8.15109e-24)
(8.65111e-05 0.00016018 2.67389e-23)
(0.000210222 0.000504394 3.62476e-24)
(0.00016334 0.000292257 -1.62769e-23)
(0.000221684 0.000434369 3.62606e-23)
(1.03102e-05 2.39071e-05 2.18523e-24)
(8.20281e-05 0.000550204 -1.08829e-23)
(8.84956e-07 0.000362989 5.51401e-25)
(4.15036e-05 0.00047676 5.48952e-24)
(-1.24927e-05 0.000232716 1.22464e-25)
(-6.0881e-06 9.03638e-05 5.92134e-25)
(0.000129912 0.000551258 1.34634e-23)
(6.13492e-06 -1.61337e-05 -1.4822e-323)
(-4.47437e-06 1.38604e-05 -7.22055e-25)
(4.94067e-05 9.33403e-05 -8.62979e-24)
(9.7093e-05 0.000187866 -1.06124e-23)
(0.00023384 0.00056009 7.40325e-25)
(0.000200192 0.000326602 -2.88883e-24)
(0.000251525 0.000457649 -5.48785e-23)
(3.22414e-05 3.77374e-05 3.71865e-24)
(7.32472e-05 0.000614768 1.05429e-23)
(-7.24847e-06 0.000394966 -2.67787e-25)
(2.96871e-05 0.000555738 -1.97626e-323)
(-2.43946e-05 0.000325806 -3.99976e-25)
(-2.4405e-05 0.000166074 1.4822e-323)
(-9.39459e-06 0.000105451 -1.53263e-25)
(0.00014757 0.000592081 -2.42186e-23)
(1.60834e-05 -2.6008e-05 -6.5599e-25)
(-3.16214e-06 3.32067e-05 6.35323e-25)
(4.22075e-05 8.00882e-05 -3.49841e-24)
(0.000117263 0.000132247 2.55662e-24)
(0.000167403 0.000251661 2.39204e-24)
(0.000260214 0.000565361 2.024e-23)
(0.000192281 0.000568353 2.97202e-23)
(0.000241259 0.000374329 1.15891e-23)
(0.00027593 0.000415748 1.97626e-323)
(0.000347261 0.00050666 5.3232e-23)
(1.51512e-05 4.77187e-05 -4.91368e-25)
(0.00012107 0.000666047 -1.4822e-323)
(6.92626e-05 0.000609913 -6.4103e-24)
(-3.41557e-05 0.000523216 -4.82038e-25)
(-2.08429e-05 0.000579558 2.33183e-25)
(-6.93139e-05 0.000390132 3.49784e-24)
(-3.21509e-05 0.00021771 1.4822e-323)
(-1.3207e-05 7.44471e-05 1.45172e-26)
(0.000165448 0.000640863 0)
(-3.95393e-08 2.13578e-05 -1.53026e-24)
(1.77895e-05 -1.29971e-05 5.98234e-25)
(5.26877e-05 6.53393e-05 -1.58451e-24)
(0.000133212 0.000135414 8.09653e-24)
(0.000196977 0.000251763 2.97509e-24)
(0.000329156 0.000549834 -1.71987e-23)
(0.000243568 0.000635254 -1.15398e-23)
(0.00021495 0.000611459 0)
(0.000311292 0.000340833 4.90703e-23)
(0.000344425 0.000417468 0)
(0.000352246 0.000472802 2.47983e-23)
(4.40482e-05 -8.29368e-06 7.09027e-24)
(8.86964e-05 0.000721001 4.77675e-24)
(1.39183e-05 0.000686588 5.51715e-24)
(-4.91215e-05 0.000509567 1.75216e-24)
(-1.27483e-05 0.000640544 -5.09856e-25)
(-7.373e-05 0.000378477 1.4822e-323)
(-4.69954e-05 0.000286706 1.4822e-323)
(-2.4771e-05 0.000143295 1.96009e-25)
(-1.5604e-06 9.0617e-05 -8.48366e-25)
(0.00018764 0.000687889 0)
(9.4049e-06 2.73047e-05 2.08309e-24)
(1.55106e-05 -3.49472e-06 -1.15595e-24)
(0.000111523 0.000110212 -5.52301e-24)
(0.000129155 0.000170351 -1.19995e-23)
(0.000204921 0.000212256 1.4822e-323)
(0.000295365 0.000276673 2.88958e-24)
(0.00035805 0.000594491 -3.10855e-23)
(0.00027757 0.000658016 5.36001e-25)
(0.000328642 0.00036099 -4.13645e-23)
(0.000399568 0.000484184 3.57117e-23)
(4.29105e-05 4.54109e-05 -7.81737e-24)
(0.000111834 0.000753995 -1.63726e-23)
(4.77418e-05 0.000727985 -6.67152e-24)
(-9.29189e-05 0.000579308 -4.64563e-24)
(-4.11314e-05 0.000669089 3.34256e-25)
(-0.000105003 0.000465709 -1.4822e-323)
(-6.25244e-05 0.000306721 -6.42717e-24)
(-1.36094e-05 0.000159142 -3.01817e-24)
(-2.49496e-06 6.60763e-05 5.83985e-25)
(0.000246333 0.000714361 3.72985e-23)
(7.67896e-07 -3.37358e-06 -2.27681e-24)
(0.000134509 8.94287e-05 1.97626e-323)
(0.00014698 0.000155472 1.81972e-23)
(0.000210023 0.000199073 1.4822e-323)
(0.00031168 0.000245751 -2.51988e-23)
(0.000322372 0.00063921 1.79574e-23)
(0.000430509 0.000563463 5.10719e-23)
(0.000267136 0.000714568 -4.25184e-23)
(0.00042341 0.000330732 -6.31296e-23)
(0.000463082 0.000419209 6.74052e-23)
(0.000460009 0.000517744 -8.87902e-23)
(0.000142375 7.19517e-05 2.03896e-24)
(4.93447e-05 0.000128952 7.25373e-24)
(9.68015e-05 0.000796802 1.42194e-23)
(0.00019076 0.000751926 -1.382e-23)
(3.47475e-05 0.000754621 1.34194e-23)
(-0.000116071 0.00054475 -4.49492e-25)
(-9.43707e-05 0.000650535 1.17976e-23)
(-5.08131e-05 0.000729041 -5.92083e-24)
(-0.000112727 0.00040962 2.11846e-25)
(-5.64745e-05 0.000237854 5.70193e-24)
(-3.0585e-05 0.000124665 3.67887e-24)
(-5.18359e-06 7.08845e-05 -1.97838e-25)
(-1.07637e-05 3.08997e-05 -6.6526e-26)
(2.08811e-05 -2.0652e-06 -3.44338e-25)
(0.000140809 0.000132536 -2.25288e-23)
(0.000212527 0.000142656 -1.97626e-323)
(0.000278586 0.000183515 1.4822e-323)
(0.000389706 0.000234022 -1.4822e-323)
(0.000345991 0.000700424 -2.5268e-23)
(0.000461332 0.000614965 1.29134e-23)
(0.000339947 0.000752421 -3.65068e-23)
(0.00044851 0.0002684 6.30935e-23)
(0.000493594 0.000411996 -7.17896e-23)
(0.000518717 0.000521299 5.38561e-23)
(0.000105938 3.56473e-05 -4.92787e-24)
(1.94327e-05 9.22985e-05 -1.97626e-323)
(9.71568e-05 0.000838694 5.35343e-24)
(4.51478e-05 0.000786164 -9.45613e-24)
(0.000219191 0.000795526 -6.63526e-24)
(-4.06321e-06 0.000733605 0)
(-0.000157879 0.000588676 1.4822e-323)
(-0.00011393 0.000677948 -1.5222e-23)
(-0.000121936 0.000741179 6.38253e-24)
(-0.000161034 0.000396226 -7.60548e-24)
(-8.47514e-05 0.000233898 1.4822e-323)
(-3.98526e-05 0.000129931 1.97626e-323)
(-1.72945e-05 5.55393e-05 9.87639e-25)
(-8.94585e-06 2.1019e-05 1.7184e-24)
(6.53599e-06 -9.5121e-06 -1.8761e-24)
(0.000120425 8.24196e-05 1.41287e-23)
(0.000189438 0.000136194 1.63462e-23)
(0.000291275 0.000131772 -1.97626e-323)
(0.000386994 0.000138523 -1.4822e-323)
(0.00041642 0.000684595 -4.98465e-23)
(0.000329197 0.000737618 5.77023e-23)
(0.000531309 0.000613085 -6.92846e-23)
(0.000311982 0.000827565 -1.93917e-23)
(0.000539125 0.00022226 -3.88233e-23)
(0.000597688 0.000374032 6.90818e-23)
(0.000559523 0.000562525 -5.4161e-23)
(0.000128174 3.50242e-05 1.98956e-24)
(7.07503e-05 7.54512e-05 -1.4822e-323)
(0.00018894 0.000853793 -8.11488e-24)
(8.12254e-05 0.000888931 -6.30026e-24)
(3.17039e-05 0.000828458 -4.19203e-24)
(-4.87165e-05 0.000805595 -3.12233e-24)
(-0.000217188 0.000577734 -4.78044e-24)
(-0.00015376 0.000654715 0)
(-0.000147903 0.000713158 0)
(-7.37896e-05 0.000790479 -3.45846e-323)
(-0.000111069 0.000295417 9.5632e-24)
(-0.000159779 0.000460219 -1.4822e-323)
(-5.64667e-05 0.000168816 2.7309e-24)
(-3.65025e-05 8.28493e-05 -8.65609e-25)
(-1.30664e-05 4.42558e-05 2.41911e-25)
(3.99966e-05 1.5467e-06 -1.4822e-323)
(0.000152143 0.000117786 -1.13348e-23)
(0.000196376 0.000116645 -1.92602e-23)
(0.000259925 0.000123858 0)
(0.000343031 0.000121365 0)
(0.000441107 0.000102641 -2.62053e-23)
(0.000460044 0.000712476 5.42888e-23)
(0.000440895 0.00083053 -2.30473e-23)
(0.000542387 0.000688928 9.16641e-23)
(0.000298055 0.000882609 2.3406e-23)
(0.000625473 0.000283451 -5.33588e-23)
(0.000558994 0.000111226 6.99193e-23)
(0.000650785 0.000439916 2.96439e-323)
(0.000644407 0.000534526 6.98599e-23)
(0.000116649 3.81325e-05 2.41031e-24)
(0.000124642 5.59669e-05 3.93983e-24)
(0.000180081 0.000900017 9.86282e-24)
(8.40934e-05 0.00092877 9.01705e-24)
(3.80817e-05 0.00086957 7.55172e-25)
(-8.43356e-06 0.000837098 3.12129e-24)
(-0.000252635 0.000616752 8.19062e-24)
(-0.000232231 0.000537326 -1.4822e-323)
(-0.000202865 0.000663738 -1.85272e-23)
(-0.000174057 0.00074696 0)
(-0.000135643 0.000820772 8.55895e-24)
(-0.000109404 0.000273993 -1.4822e-323)
(-0.000181229 0.000444634 -2.69645e-23)
(-6.24935e-05 0.000158502 -2.67819e-24)
(-2.853e-05 8.59239e-05 -1.38421e-24)
(-8.82195e-06 5.54282e-05 1.4822e-323)
(6.85542e-06 3.34373e-06 1.4822e-323)
(0.000195266 3.01554e-05 1.08072e-23)
(0.000191965 7.67006e-05 2.43374e-24)
(0.000272932 7.08179e-05 -1.89287e-23)
(0.000307108 5.07572e-05 0)
(0.000416281 1.16517e-05 -6.29836e-23)
(0.000451429 0.00073304 -4.94066e-323)
(0.000445146 0.000881518 -3.45846e-323)
(0.000639752 0.000653559 -5.43472e-323)
(0.000263553 0.000921947 0)
(0.000369046 0.000872666 0)
(0.000739201 0.000223243 -3.92057e-23)
(0.000558922 5.49099e-05 8.76943e-23)
(0.000784615 0.000407647 5.93006e-23)
(0.00068029 0.000581092 -7.84534e-23)
(7.26973e-05 -3.93523e-05 -6.71963e-24)
(0.000175682 0.000930897 0)
(-1.03254e-05 0.000955522 -1.4551e-23)
(5.99783e-05 0.000915458 6.50052e-24)
(-3.26389e-05 0.000869472 5.43472e-323)
(-0.000333883 0.000608959 0)
(-0.000234444 0.000658276 1.71846e-23)
(-0.000250761 0.000539525 1.37916e-23)
(-0.000168593 0.000803997 2.29412e-23)
(-0.000192473 0.000779987 -4.84796e-23)
(-0.000108515 0.000883356 4.94066e-323)
(-8.16836e-05 0.000205835 -1.4822e-323)
(-0.000169749 0.000348734 1.74859e-23)
(-0.000264049 0.000448287 1.4822e-323)
(-3.90304e-05 0.000117391 1.38659e-24)
(-1.18136e-06 6.70245e-05 -1.4822e-323)
(2.92349e-05 2.01201e-05 1.4822e-323)
(0.000196813 9.61608e-06 -2.26194e-23)
(0.000246027 1.68758e-05 1.45786e-23)
(0.000201705 3.47592e-05 2.03101e-23)
(0.000367175 -1.27733e-06 1.5558e-23)
(0.000463172 -3.22186e-05 3.65319e-23)
(0.000621028 0.000837274 5.00345e-23)
(0.000492187 0.000876946 1.0559e-22)
(0.000639959 0.000702195 0)
(0.000255462 0.000952602 -7.71666e-24)
(0.000381477 0.000968861 3.18837e-24)
(0.000768232 9.15292e-05 -1.05504e-24)
(0.000808858 0.000294723 5.003e-23)
(0.000715494 6.70225e-05 -5.88828e-23)
(0.000817837 0.000503113 5.25054e-23)
(0.000728186 0.000579017 -7.05516e-24)
(0.000116252 8.98118e-05 -7.18945e-24)
(9.89139e-05 0.000933446 7.41098e-323)
(7.85597e-05 0.00106917 1.47657e-23)
(1.3619e-05 0.00090973 0)
(-3.02348e-05 0.000919955 1.33538e-25)
(-0.000316889 0.000637595 -2.80265e-23)
(-0.00032698 0.000561591 -1.14875e-23)
(-0.00029955 0.000712565 -2.96439e-323)
(-0.000258578 0.000750125 1.86424e-23)
(-0.0001737 0.000853297 1.34508e-23)
(-0.000108038 0.000905295 5.43472e-323)
(-7.89206e-05 0.0001901 -3.67016e-24)
(-0.000167391 0.000306416 1.36978e-23)
(-0.000285398 0.000434432 9.18952e-24)
(-3.05559e-05 9.88377e-05 1.4822e-323)
(-1.35406e-05 6.1188e-05 1.4822e-323)
(-6.74605e-06 1.94007e-05 1.4822e-323)
(0.000148097 6.34444e-05 8.27717e-24)
(0.000240638 -3.48236e-05 -9.55658e-24)
(0.000193955 2.64298e-07 -3.06973e-24)
(0.000320337 -8.24487e-05 5.34624e-24)
(0.000522759 -0.0001414 1.4822e-323)
(0.000602666 0.000875075 -9.34421e-23)
(0.000495477 0.00100811 -9.14381e-23)
(0.000692579 0.000731062 5.74221e-23)
(0.000200575 0.00103989 8.57451e-24)
(0.000265767 0.00100633 -3.14682e-24)
(0.000382446 0.000986705 -8.89318e-323)
(0.000870858 2.28271e-05 4.27967e-23)
(0.000917371 0.000263719 2.53922e-24)
(0.000651907 -0.000131232 6.83119e-23)
(0.000906788 0.000455937 -1.24698e-22)
(0.000793222 0.000636905 -7.40246e-23)
(0.000133895 -6.15617e-05 2.01889e-24)
(9.36835e-05 0.00111397 -2.09185e-23)
(0.00010234 0.000933109 -3.77706e-24)
(-3.6735e-05 0.000934439 6.28892e-24)
(-0.000415205 0.000638622 7.96507e-23)
(-0.000355343 0.000517244 1.4822e-323)
(-0.00029373 0.000749788 -2.96439e-323)
(-0.000224983 0.000821345 -2.03778e-23)
(-0.00024769 0.000928964 -2.60208e-23)
(-0.000214664 0.000934273 -4.94066e-323)
(-8.28185e-05 0.00094819 -5.31457e-24)
(-9.35535e-05 0.000225256 -6.11915e-24)
(-4.59808e-05 0.000130337 -2.03942e-24)
(-0.000203517 0.000320193 1.4822e-323)
(-0.000274076 0.00039452 -1.4822e-323)
(-0.000364558 0.000441141 -1.1211e-23)
(-3.03959e-05 8.78935e-05 -2.70879e-24)
(2.75177e-05 4.72618e-05 1.32148e-24)
(0.000120571 2.55693e-05 -1.4822e-323)
(0.000236362 -7.40117e-05 8.52525e-24)
(0.000155868 9.62677e-06 1.19319e-23)
(0.000315433 -0.000180468 -2.89866e-23)
(0.000500966 -0.000219927 -3.27951e-23)
(0.000633618 0.000948454 -1.93333e-23)
(0.000564508 0.000999319 1.54496e-22)
(0.000814239 0.000834285 -1.89251e-23)
(0.000183269 0.00113043 4.29511e-23)
(0.000312463 0.00110514 -3.45006e-23)
(0.000450982 0.00104924 -1.08694e-322)
(0.000876083 -0.000125331 -4.30733e-23)
(0.000954518 0.000105981 -1.94261e-22)
(0.000995056 0.00034874 0)
(0.000776873 -0.000194725 -5.19124e-23)
(0.000844485 0.000660361 0)
(0.00096391 0.000383775 6.31407e-23)
(0.000183987 6.00082e-06 -2.21076e-24)
(8.52574e-05 0.00108958 3.11642e-23)
(8.88761e-05 0.00107103 -9.23534e-25)
(-1.95289e-05 0.00110549 7.68975e-24)
(-0.000413916 0.000732874 -7.28971e-23)
(-0.000462892 0.000586041 -5.3828e-23)
(-0.000412946 0.000540836 2.69267e-23)
(-0.000360078 0.000780705 7.12672e-25)
(-0.000323343 0.000839821 -6.36312e-23)
(-0.00023704 0.000958761 6.68471e-23)
(-0.000149698 0.00105529 3.98689e-23)
(-0.00011373 0.000947966 -2.18752e-23)
(-0.000101024 0.000200782 -1.97626e-323)
(-5.62848e-05 0.000118397 4.79198e-24)
(-0.00015507 0.000262226 -6.36038e-24)
(-0.000269617 0.000311895 -1.29201e-24)
(-0.000390786 0.000384639 0)
(-2.90266e-05 7.77076e-05 -1.4822e-323)
(-1.65661e-05 4.19206e-05 -1.4822e-323)
(0.000210673 -0.000148889 -3.62052e-24)
(0.000120623 -7.92687e-05 -2.44378e-23)
(0.000263446 -0.000218591 -3.43328e-23)
(0.00040062 -0.000220524 2.71744e-23)
(0.000552387 -0.000392071 -3.68965e-23)
(0.000764299 0.000891207 -6.82274e-23)
(0.000606195 0.000995501 -1.25956e-22)
(0.000513081 0.00111485 -3.70959e-23)
(0.000957785 0.000832328 4.91084e-23)
(0.000190701 0.00113994 -5.51635e-23)
(0.000285173 0.00114351 4.58436e-23)
(0.000420638 0.00113998 0)
(0.0009609 -0.000217798 1.46443e-23)
(0.00113074 6.33107e-05 2.09763e-22)
(0.00115369 0.000284716 1.53985e-22)
(0.00077203 -0.000427987 1.4822e-323)
(0.000998077 0.000700225 -7.08869e-25)
(0.00115169 0.000492942 -4.96103e-23)
(0.000206478 -0.000186678 -3.4892e-24)
(5.723e-05 0.00109285 -3.88931e-23)
(-4.91671e-05 0.00119491 -4.45398e-24)
(1.59214e-05 0.000997331 0)
(-0.000450494 0.000771054 -3.36585e-23)
(-0.000520319 0.000615927 5.05609e-23)
(-0.000497832 0.000458365 -1.97626e-323)
(-0.000332296 0.00084331 7.63148e-23)
(-0.00030824 0.00104628 2.74495e-23)
(-0.000185452 0.00100981 -4.99846e-23)
(-1.50684e-05 0.000996519 2.71082e-23)
(-0.000111537 0.000220209 -1.4822e-323)
(-6.72362e-05 0.000147006 -1.97626e-323)
(-0.000214167 0.000260715 6.14331e-24)
(-0.000340498 0.000323839 -2.01537e-23)
(-0.000510649 0.000427156 0)
(-0.000389879 0.00034121 6.16743e-23)
(-4.63679e-05 0.000100175 1.4822e-323)
(1.60025e-05 6.55592e-05 -8.24241e-25)
(0.000128587 -0.000151499 2.36756e-23)
(0.000218237 -0.00019571 2.17923e-23)
(0.000228321 -5.4083e-05 6.69377e-24)
(0.000282337 -0.000327511 -1.01077e-23)
(0.000333019 -0.000385011 5.74794e-23)
(0.000530133 -0.000517034 6.80888e-23)
(0.000864272 0.00103051 1.06182e-22)
(0.000656817 0.00112991 1.17752e-23)
(0.000574023 0.00116193 0)
(0.000973817 0.00099034 -6.01391e-23)
(0.00016285 0.0011822 2.72265e-23)
(0.000313238 0.00120759 -7.20336e-24)
(0.000365996 0.00122827 4.03501e-23)
(0.000984584 -0.000437626 -1.23868e-23)
(0.00111827 -0.000140917 -4.4549e-23)
(0.00118994 0.000132362 -1.12337e-22)
(0.00116503 0.000428795 -1.04767e-22)
(0.000767102 -0.000502506 0)
(0.00108743 0.000611469 -7.40048e-24)
(4.29017e-05 0.00112455 3.70593e-24)
(-1.69664e-05 0.0011943 4.07855e-23)
(-4.8147e-05 0.00108807 -1.08694e-322)
(0.00013324 0.0010528 -5.40127e-24)
(-0.000488536 0.00082538 -9.98767e-23)
(-0.000568981 0.000729807 8.01632e-23)
(-0.000547792 0.000447292 -2.99885e-25)
(-0.000588222 0.000676127 -5.56151e-23)
(-0.000433407 0.000916649 3.34412e-23)
(-0.000326082 0.00107496 -4.74441e-23)
(-0.000382625 0.000999211 0)
(-0.000155265 0.00100658 1.38208e-23)
(-0.00015908 0.00115068 -4.68777e-23)
(-0.00012015 0.000157616 -1.4822e-323)
(-7.23324e-05 0.000128162 -1.4822e-323)
(-0.000218059 0.000229892 -1.4822e-323)
(-0.000340407 0.000227033 -2.49672e-24)
(-0.000490341 0.00030501 8.29157e-23)
(-4.95234e-05 8.9678e-05 2.22479e-24)
(-3.2962e-05 5.56589e-05 8.81752e-26)
(0.000103397 -0.000215314 -1.06378e-23)
(0.000146634 -0.000237503 1.97626e-323)
(0.000250555 -0.000346995 -3.19364e-24)
(0.000230548 -0.000391619 2.65538e-23)
(0.000350012 -0.000469018 -6.40824e-23)
(0.00046756 -0.00063048 1.28219e-23)
(0.000788191 0.00112534 1.76824e-22)
(0.000909694 0.00102024 -8.51158e-23)
(0.000569501 0.00118581 -1.90815e-23)
(0.000558156 0.00123574 -9.53134e-23)
(0.00115092 0.000889291 -2.05791e-23)
(0.000220463 0.00115751 1.06461e-24)
(0.000196229 0.00120419 9.34402e-24)
(0.000287216 0.00119354 -4.05356e-23)
(0.00127047 -0.000557514 -3.43649e-23)
(0.0010771 -0.000599946 0)
(0.00143338 -0.00017904 -3.78607e-24)
(0.00130185 0.000132431 4.71763e-23)
(0.00140976 0.000427317 1.64678e-22)
(0.000739573 -0.000623544 0)
(0.00125685 0.00071577 8.32716e-23)
(7.83764e-05 0.00127865 1.51152e-24)
(6.73121e-05 0.0012301 5.53558e-23)
(-0.000156738 0.00115464 3.26117e-23)
(9.59954e-06 0.00119159 1.38931e-23)
(-0.000535305 0.000937038 2.20657e-23)
(-0.000629329 0.000783654 -5.43472e-323)
(-0.000615652 0.00041947 8.13754e-23)
(-0.000641416 0.000654357 5.11552e-23)
(-0.00023979 0.001116 -9.38725e-323)
(-0.000368644 0.00105387 6.46905e-23)
(-0.000194593 0.00113275 -3.39612e-23)
(-0.000134365 0.000145825 9.76802e-25)
(-0.000159922 0.000193174 -1.10116e-24)
(-0.000249148 0.000223302 -2.66095e-24)
(-0.00034134 0.000181629 0)
(-0.000512958 0.000256902 -4.31231e-23)
(-5.49406e-05 0.000111704 -2.05708e-24)
(1.38396e-05 8.95682e-05 -8.22897e-26)
(0.00017178 -0.000235753 9.07587e-24)
(0.000134531 -0.000303657 1.22026e-23)
(0.000309622 -0.000111686 4.13036e-24)
(0.000165593 -0.00045838 -1.10188e-23)
(0.000308119 -0.0005559 3.31457e-23)
(0.000615401 -0.00072976 3.58353e-23)
(0.000380349 -0.00067818 -2.42492e-23)
(0.000769682 0.00123885 -1.01644e-22)
(0.0010938 0.00110708 4.90492e-23)
(0.000662939 0.00134771 1.13635e-322)
(0.000393251 0.00129781 1.05895e-22)
(0.00126024 0.000809963 -1.15422e-22)
(0.0011038 0.00110142 2.3159e-23)
(0.00013392 0.0011843 -3.57888e-23)
(0.000244764 0.00127206 -1.06059e-23)
(0.000366202 0.00125395 1.11497e-22)
(0.00136535 -0.000617292 0)
(0.000924685 -0.000733338 0)
(0.00138344 -7.27403e-05 -1.0677e-22)
(0.00145986 0.00021428 -9.81076e-23)
(0.00138543 0.000616872 -1.02942e-22)
(5.12853e-05 0.00130347 -1.80821e-23)
(-7.59086e-05 0.00131678 -2.15619e-23)
(0.00015832 0.00129003 -3.47269e-23)
(-5.62496e-05 0.00122522 -3.64339e-23)
(3.55804e-05 0.00112123 -1.77625e-23)
(-0.000612617 0.00100533 0)
(-0.000664166 0.000809067 -5.90301e-23)
(-0.000752029 0.00036966 -7.58221e-23)
(-0.000669827 0.000579853 0)
(-0.000766663 0.000724346 -6.03728e-23)
(-0.000296654 0.00112283 0)
(-0.000401551 0.00108723 8.89318e-323)
(-0.000572517 0.00105886 -6.91784e-23)
(-0.000205345 0.0012515 5.11718e-23)
(-8.40962e-05 0.000132158 1.4822e-323)
(-0.000154441 0.000136348 1.4822e-323)
(-0.000239076 0.000169761 -2.31416e-24)
(-0.000413995 0.000164927 -7.17405e-24)
(-0.000324732 0.000126697 1.79201e-23)
(-0.000601803 0.000268665 -2.12696e-23)
(-5.92345e-05 8.03995e-05 -1.4822e-323)
(7.13964e-05 -0.000300803 1.4822e-323)
(7.51014e-05 -0.00029301 -1.97626e-323)
(0.000288223 -0.00058704 -4.70851e-24)
(0.000145173 -0.000508807 1.76248e-23)
(6.85432e-05 -0.000387262 1.83235e-23)
(0.000202196 -0.000543769 -1.44703e-23)
(0.00056157 -0.000912505 1.4822e-323)
(0.000290732 -0.000746204 -1.67425e-23)
(0.000700452 0.00130437 -1.6344e-23)
(0.00101424 0.0012685 -5.95804e-23)
(0.000612027 0.00136363 1.52247e-23)
(0.000428973 0.00139094 -1.38338e-322)
(0.00143478 0.000926003 1.91752e-22)
(0.001252 0.00122175 5.48275e-23)
(7.90678e-05 0.00136102 0)
(0.000206526 0.001417 -2.47033e-322)
(0.000301111 0.0013277 -9.85155e-23)
(0.00144801 -0.000878629 0)
(0.00167921 -0.00045039 -6.50734e-23)
(0.000948327 -0.000925495 -5.91291e-23)
(0.00153156 -5.27221e-05 1.47944e-22)
(0.00162256 0.000236594 9.4134e-23)
(0.00154675 0.000696705 1.44382e-22)
(8.9094e-05 0.00132405 8.55392e-24)
(3.40263e-05 0.00130297 7.6965e-24)
(0.000120682 0.00129929 -2.12952e-23)
(-0.00018322 0.00122769 1.42172e-23)
(-5.86622e-07 0.00119188 1.85304e-23)
(-0.0007536 0.00102055 0)
(-0.000851654 0.000853181 5.64818e-23)
(-0.000797653 0.000413546 3.95253e-323)
(-0.00074729 0.000300442 1.97626e-323)
(-0.000793023 0.000553151 0)
(-0.000789417 0.000678186 7.6256e-23)
(-0.000326626 0.00120133 1.18576e-322)
(-0.000484607 0.00120434 1.64524e-23)
(-0.000530316 0.00114101 -1.43002e-23)
(-0.000272286 0.00129484 -5.72726e-23)
(-8.32846e-05 0.000121641 -1.4822e-323)
(-0.000165697 0.000128085 -1.40769e-23)
(-0.000233109 0.000147138 -1.4822e-323)
(-0.000470215 7.44761e-05 -2.5964e-23)
(-0.000311819 4.61388e-05 -3.5927e-23)
(-0.000573397 0.000105128 -1.97626e-323)
(-5.0148e-05 7.78982e-05 0)
(0.000163855 -0.000357416 1.4822e-323)
(0.000324326 -0.00025061 -1.4822e-323)
(6.63054e-05 -0.000567065 -2.11688e-23)
(4.98538e-05 -0.000449024 -1.91382e-23)
(0.000168355 -0.000641878 -1.48965e-23)
(0.000411133 -0.000948207 3.05109e-23)
(0.000699837 -0.00109754 5.76668e-23)
(0.000231354 -0.000863053 0)
(0.000861928 0.00144179 7.64727e-23)
(0.000976367 0.00138472 1.67114e-23)
(0.000568306 0.00149844 1.70892e-22)
(0.00027734 0.00147981 -9.73231e-24)
(0.00148215 0.00118395 -2.82086e-23)
(0.00159366 0.000886135 7.90505e-323)
(0.00119385 0.00137009 1.44537e-22)
(0.000102296 0.00140745 -5.58768e-23)
(0.000211543 0.00153073 -2.28223e-23)
(0.000318327 0.00150273 -6.01018e-23)
(0.00116409 -0.000934477 -5.72803e-23)
(0.00166763 -0.000947407 0)
(0.00164072 -0.000238134 -6.98835e-23)
(0.00181253 -0.000626493 9.30582e-23)
(0.00182101 0.00032511 1.06167e-22)
(0.00175256 0.000540732 -2.00702e-23)
(0.000106312 0.00122632 2.06514e-24)
(3.43702e-05 0.00130597 7.00373e-24)
(3.21485e-05 0.00138784 2.55645e-23)
(8.99767e-05 0.00132447 -2.37152e-322)
(6.4556e-05 0.00124424 2.64181e-23)
(-0.000112117 0.00117616 6.5147e-23)
(-3.85988e-05 0.001401 -5.64007e-23)
(-0.000766947 0.00111796 4.28888e-23)
(-0.000872443 0.000773595 -4.13183e-23)
(-0.000835787 0.000496776 -5.53523e-23)
(-0.000947759 0.000331867 -3.88505e-23)
(-0.000821079 0.000188163 4.06611e-23)
(-0.000865604 0.000728018 -1.67176e-22)
(-0.000418927 0.0012552 0)
(-0.000463477 0.00124854 3.73391e-23)
(-0.000615881 0.00115338 -6.17251e-23)
(-0.000212002 0.00129697 6.67721e-23)
(-0.00010353 0.000100894 -5.15072e-24)
(-0.000165604 0.000109223 -1.4822e-323)
(-0.000217896 9.25518e-05 -1.4822e-323)
(-0.000450654 6.34111e-06 -1.23045e-23)
(-0.000359197 -1.39696e-05 4.27871e-23)
(-0.000248112 9.92721e-06 -3.15625e-23)
(-0.000627848 3.76681e-05 0)
(-9.52549e-05 7.18905e-05 1.4822e-323)
(6.47216e-05 -0.000445206 6.29992e-24)
(0.000312133 -0.00071755 5.83582e-24)
(5.73535e-05 -0.000642685 -8.27616e-24)
(2.62546e-05 -0.00053439 -1.83072e-23)
(0.000116184 -0.00068451 9.53025e-24)
(0.000267278 -0.00118027 -3.2474e-23)
(0.000579186 -0.0013528 -1.4822e-323)
(9.15565e-05 -0.000877382 -1.4822e-323)
(0.000753056 0.0015735 -1.63211e-22)
(0.000977305 0.00139382 -2.95249e-22)
(0.000519182 0.00146252 -9.07483e-23)
(0.000457172 0.00154785 8.6076e-23)
(0.00159122 0.00128262 -7.95037e-23)
(0.00175753 0.00103903 -6.07445e-23)
(0.00132499 0.00150584 -4.49638e-23)
(0.000122105 0.00129623 9.03291e-23)
(0.000151806 0.00141194 0)
(0.000302888 0.00146912 6.74991e-23)
(0.00127447 -0.00128367 6.83825e-23)
(0.00178474 -0.000872445 -5.92879e-323)
(0.00157891 -0.00127803 -5.49436e-23)
(0.0020127 -0.000139115 -5.43472e-323)
(0.00220351 -0.000580164 -5.87352e-23)
(0.00209785 0.000161226 0)
(0.0020251 0.000694483 -2.76355e-22)
(5.71583e-05 0.00128776 2.33722e-24)
(-2.51859e-05 0.00130015 -1.35332e-24)
(3.53994e-05 0.00117445 -3.18339e-23)
(3.5106e-05 0.00140878 2.18921e-23)
(7.37713e-05 0.0013028 -1.69604e-24)
(-6.14007e-05 0.0012457 -6.359e-23)
(-0.000262023 0.00138143 7.47273e-23)
(-0.000786624 0.0011082 2.15917e-24)
(-0.000997252 0.000939794 -2.14929e-22)
(-0.00104245 0.000550611 6.04542e-23)
(-0.000980058 0.000213331 6.5001e-23)
(-0.00102536 0.000387951 5.43091e-24)
(-0.00083662 9.17408e-05 -4.19583e-23)
(-0.000994476 0.000658178 7.23061e-23)
(-0.000314214 0.00132771 0)
(-0.000597964 0.00129053 4.79944e-23)
(-0.000652613 0.00122064 3.97646e-23)
(-0.000267822 0.00128839 0)
(-0.000123459 0.000105294 1.17032e-23)
(-0.000169919 0.000107587 -3.35505e-24)
(-0.000206551 6.11978e-05 1.35445e-23)
(-0.000522894 -9.38326e-05 1.42436e-24)
(-0.000316954 -0.00012547 9.87236e-24)
(-0.000235754 -5.53305e-05 -4.55566e-24)
(-0.000598162 -5.5784e-05 -2.69454e-23)
(-5.89998e-05 7.06884e-05 1.42237e-24)
(4.55379e-05 -0.000462046 -5.69592e-24)
(0.000233134 -0.000361908 -9.36949e-24)
(2.86345e-05 -0.00060245 1.61379e-23)
(-3.66105e-05 -0.000523578 -1.4822e-323)
(6.15241e-05 -0.000748215 0)
(7.60021e-06 -0.00110179 0)
(0.00038272 -0.00137188 -3.91181e-23)
(0.000765282 -0.00145374 -1.27925e-22)
(-5.18702e-05 -0.000936476 0)
(0.000692261 0.00163449 2.74641e-23)
(0.00101125 0.00154433 1.91022e-22)
(0.000497877 0.00157562 2.14554e-22)
(0.000411955 0.00165955 -1.1985e-22)
(0.00152843 0.00142084 2.20749e-22)
(0.00173794 0.00123973 1.61509e-22)
(0.00196649 0.000938972 2.42436e-22)
(0.00120269 0.00173098 -1.5073e-22)
(-4.89486e-07 0.00137593 8.76313e-23)
(0.000109115 0.00147944 -5.99631e-23)
(0.000217418 0.00150735 0)
(0.00111583 -0.00150577 1.1335e-22)
(0.00209503 -0.00106268 -2.46622e-23)
(0.00185378 -0.00152436 3.83127e-23)
(0.00223122 -0.000348203 0)
(0.00229907 -0.000830641 5.71425e-23)
(0.0023188 0.000287015 1.71332e-22)
(0.00230335 0.000567417 -9.04836e-23)
(9.98795e-05 0.00124672 -3.31024e-322)
(7.34272e-06 0.00118161 3.01082e-23)
(-0.000128866 0.00131734 -4.40183e-23)
(9.28228e-05 0.00140082 -3.76159e-23)
(-3.35822e-05 0.00137105 1.5973e-23)
(3.47611e-05 0.00124592 0)
(-0.000191208 0.00129545 0)
(-0.000786542 0.00117929 0)
(-0.000944081 0.00102423 0)
(-0.00105809 0.00104213 2.43959e-22)
(-0.00110723 0.000674785 8.39449e-23)
(-0.00102143 9.18015e-05 -2.57935e-23)
(-0.00109487 0.000367222 -5.96443e-23)
(-0.000824629 -9.28559e-05 -4.94869e-24)
(-0.000407256 0.00144966 1.4822e-322)
(-0.000541552 0.00139249 -1.03981e-22)
(-0.000730524 0.00134631 -4.37182e-23)
(-0.000174541 0.0014457 -7.13203e-23)
(-7.44714e-05 -1.7292e-05 -2.40558e-24)
(-0.000160885 8.87991e-05 -1.4822e-323)
(-0.00018235 6.07303e-05 1.18809e-23)
(-0.000477059 -0.000200354 2.7404e-23)
(-0.000236572 -0.000146976 2.3707e-23)
(-0.000380741 -0.000216859 7.15631e-24)