/*--------------------------------*- C++ -*----------------------------------*\
| =========                 |                                                 |
| \\      /  F ield         | OpenFOAM: The Open Source CFD Toolbox           |
|  \\    /   O peration     | Version:  v2012                                 |
|   \\  /    A nd           | Website:  www.openfoam.com                      |
|    \\/     M anipulation  |                                                 |
\*---------------------------------------------------------------------------*/
FoamFile
{
    version     2.0;
    format      ascii;
    class       volScalarField;
    location    "4";
    object      p;
}
// * * * * * * * * * * * * * * * * * * * * * * * * * * * * * * * * * * * * * //

dimensions      [0 2 -2 0 0 0 0];


internalField   nonuniform List<scalar> 
11941
(
-0.00140736
-0.00111516
-0.00164346
-0.00110285
-0.000818775
-0.00160716
-0.00194312
-0.000836659
-0.0013816
-0.000550168
-0.00186931
-0.00206883
-0.000822025
-0.000566987
-0.00142594
-0.000259188
-0.00202768
-0.00229241
-0.0010858
-0.000459682
-0.000349119
-0.00170708
1.32024e-05
-0.00229092
-0.00202063
-0.0025415
-0.00108297
-0.000292045
-3.13642e-05
-0.00160127
0.000314166
-0.00250395
-0.00238771
-0.00275177
-0.000830993
-0.000454234
6.98169e-05
0.000184742
-0.00175043
0.000593579
-0.00263677
-0.00258095
-0.00249011
-0.00310256
-0.00094272
-0.000123595
0.000373703
0.00046753
-0.00206766
-0.00133897
0.000856988
0.000625245
-0.00281849
-0.00291796
-0.00232285
-0.00290457
-0.00352486
-0.000667419
-0.000218709
0.000374579
0.000662387
-0.00193741
-0.00143744
0.00108673
0.000996069
-0.00299249
-0.00313125
-0.00265329
-0.00313943
-0.00305694
-0.00330075
-0.000872503
0.000118461
0.000684977
0.000939208
-0.00220603
-0.00132963
0.00140021
0.00113036
-0.00333156
-0.00341479
-0.00275329
-0.00354487
-0.00356668
-0.00347164
-0.000579501
0.0006003
-3.84728e-06
0.00108761
0.00113589
-0.00171258
0.00165543
0.00141416
-0.0034257
-0.00361612
-0.00319802
-0.00381369
-0.00378839
-0.00396061
-0.000854163
0.000862231
0.000465509
0.00159932
0.00148493
-0.0017097
0.00192331
0.00164147
-0.00364837
-0.00392581
-0.00319936
-0.00423047
-0.00433712
-0.00377897
-0.000535873
0.00132742
0.000559285
0.00167938
0.00190279
0.00177277
-0.00209789
0.00216563
0.00192471
-0.00340495
-0.00398763
-0.00421851
-0.00383264
-0.00265219
-0.00450654
-0.00451871
-0.00461401
-0.00456144
-0.00102289
0.000168446
0.00156947
0.00133295
0.00214041
0.0022932
0.00198431
-0.00174781
0.00212176
0.00246576
-0.00364358
-0.00421738
-0.00456196
-0.00454221
-0.00366573
-0.00289734
-0.00498217
-0.00505646
-0.00539192
-0.00398143
-0.000605915
0.000626558
0.00215042
0.00155343
0.00247661
0.00251429
0.00243855
0.00231045
-0.00237289
0.00239323
0.00261173
-0.00411985
-0.00435552
-0.00450106
-0.00497494
-0.00518725
-0.00410527
-0.00551062
-0.00596846
-0.00381939
-0.00102842
0.000476278
0.00263751
0.00215516
0.00315182
0.00295997
0.00278536
0.00249351
-0.00258683
0.00278016
-0.00426044
-0.00433522
-0.00483538
-0.00536253
-0.00484271
-0.00598823
-0.00375039
-0.00612791
-0.00642535
-0.0061678
-0.00500722
-0.00389384
-0.000309901
-0.00201501
0.00106359
0.00338562
0.00266628
0.00221087
0.00331151
0.00303955
0.00284409
0.00271231
0.00286133
0.00288459
-0.00417676
-0.00457863
-0.00517914
-0.00584794
-0.0053463
-0.00654979
-0.00434882
-0.00631692
-0.0070632
-0.00698235
-0.00544592
-0.00370733
-0.000701396
0.000645247
-0.00249657
0.00174626
0.00386126
0.00334953
0.00306353
0.00379989
0.00337855
0.00311017
0.00283267
0.00307266
0.00313468
-0.00432067
-0.00466952
-0.00532256
-0.00597073
-0.00621704
-0.00533237
-0.00737594
-0.00376687
-0.00706717
-0.00770274
-0.00763689
-0.00385952
-0.0032257
-0.00178908
6.46836e-05
0.00124767
0.00228608
0.0042889
0.00385123
0.00354244
0.00335629
0.00368806
0.00419084
0.00334641
0.00311663
0.00328406
0.00345093
-0.00461963
-0.00485358
-0.00513981
-0.00566155
-0.00644122
-0.00707681
-0.00618246
-0.00798304
-0.00443156
-0.00771641
-0.00693731
-0.00851962
-0.00846258
-0.00586259
-0.00377889
-0.00222771
-0.000141465
0.00100547
0.0022252
0.00490033
0.00434253
0.00445103
0.00447906
0.00409667
0.00392718
0.00444627
0.00356493
0.00334072
0.00337341
0.00347665
-0.00456897
-0.00474842
-0.00529786
-0.00565861
-0.00637202
-0.008138
-0.00662893
-0.00884772
-0.00342806
-0.0056582
-0.00845308
-0.00740483
-0.00927726
-0.00914937
-0.00381332
-0.00120014
0.000852481
0.00187341
0.00295029
0.00554889
0.00502857
0.00499387
0.0049437
0.00472852
0.00401425
0.00381986
0.00428232
0.00485569
0.00352276
0.00355549
0.00388768
-0.00458454
-0.00509548
-0.00454009
-0.00599762
-0.00669693
-0.00887228
-0.00815574
-0.00988424
-0.00379123
-0.00610292
-0.00844171
-0.00926514
-0.00793135
-0.0101553
-0.00996033
-0.0040009
-0.00132863
0.000768999
0.00181714
0.00270017
0.00615976
0.00553257
0.00577293
0.00561428
0.00559228
0.00486025
0.0039658
0.00444773
0.00524768
0.00367603
0.00361277
0.00376599
-0.00423152
-0.0052305
-0.00460806
-0.0056751
-0.00685103
-0.00926777
-0.00849398
-0.0111605
-0.00233735
-0.00523808
-0.00755364
-0.00915675
-0.0101921
-0.00773838
-0.0111179
-0.0108195
-0.0056004
0.00143418
0.00305045
0.00333392
0.00685586
0.0060201
0.00612842
0.00613339
0.00602848
0.00579366
0.00440074
0.00422465
0.00388013
0.00476722
0.00504012
0.00577457
0.00384866
0.00427889
-0.0038716
-0.00485472
-0.00411984
-0.00574803
-0.00660344
-0.0109856
-0.0099415
-0.0120594
-0.00224674
-0.00566513
-0.00810599
-0.00892921
-0.0100477
-0.0110639
-0.00815841
-0.0117326
-0.0115775
-0.00407533
2.68877e-05
0.00277797
0.00373322
0.00743479
0.00701687
0.00663287
0.00699494
0.00701698
0.00744552
0.00648268
0.00513093
0.00421511
0.00398847
0.00463374
0.00522337
0.00594079
0.00380466
0.00401997
-0.00476439
-0.00391511
-0.00527746
-0.00618576
-0.00697812
-0.0122388
-0.0112382
-0.0100278
-0.0133147
-0.0034472
-0.00496209
-0.00767397
-0.00933137
-0.0107167
-0.0117011
-0.00782872
-0.0129227
-0.0127378
-0.00561713
0.000636314
0.00383682
0.00324811
0.00822091
0.00770382
0.00696426
0.00757626
0.00838621
0.00753904
0.00618508
0.00443235
0.00412511
0.00482507
0.00565786
0.00658359
0.00591265
0.00402028
0.00468046
-0.00432496
-0.00494302
-0.00366836
-0.00528729
-0.00587372
-0.00638416
-0.0138789
-0.0126762
-0.0117676
-0.0147544
-0.00253074
-0.00646404
-0.00886322
-0.00888326
-0.0104133
-0.0116754
-0.0131011
-0.00825905
-0.0138224
0.00260898
-0.000532076
0.00556692
0.00563016
0.00878995
0.00848886
0.00747277
0.00833713
0.0085357
0.00850695
0.00926349
0.00802669
0.00682501
0.00438939
0.00423874
0.00479794
0.00542525
0.00632005
0.00383034
0.00425707
-0.00423992
-0.00467386
-0.0054791
-0.00493171
-0.00603429
-0.00649197
-0.0140298
-0.0151007
-0.0133821
-0.0108455
-0.0158479
-0.00377325
-0.00590537
-0.00835982
-0.0103956
-0.00842375
-0.0109375
-0.0124285
-0.0140176
-0.00768452
-0.0152174
0.00401518
4.58515e-05
0.00701261
0.00701216
0.00984239
0.00940797
0.00784342
0.00873426
0.00962786
0.0103353
0.00949349
0.00449545
0.00460447
0.00503361
0.0056834
0.00656028
0.0039279
0.00512717
-0.00374243
-0.00473127
-0.00365667
-0.00484862
-0.00565129
-0.0067618
-0.00589382
-0.0157434
-0.0169236
-0.0149734
-0.0122714
-0.0163506
-0.0178975
-0.00276294
-0.00748483
-0.00980974
-0.010554
-0.00842199
-0.0118855
-0.0137219
-0.0153019
0.00345682
0.00674813
0.00168179
0.00846376
0.00846024
0.0107174
0.0100382
0.00797719
0.00854461
0.00945508
0.0106782
0.0107977
0.0108093
0.0102781
0.0041779
0.00458883
0.00484647
0.00607203
0.00529261
0.00724636
0.00435254
-0.00397327
-0.00441304
-0.00648006
-0.00495621
-0.00451731
-0.00525165
-0.00663984
-0.00554359
-0.0163571
-0.0174683
-0.0157035
-0.0142826
-0.0179576
-0.019696
-0.00357346
-0.00655511
-0.010116
-0.00969521
-0.0115395
-0.00842267
-0.0126288
-0.0142622
-0.016621
0.00577846
0.00850382
0.00138969
0.00971734
0.0103021
0.0116206
0.0110301
0.00877015
0.00773254
0.00918256
0.0099067
0.0118111
0.0121866
0.0120401
0.0116704
0.00412097
0.00474264
0.00497216
0.0061447
0.00526016
0.00673013
0.0050186
-0.00368423
-0.00377934
-0.00448483
-0.00427182
-0.00514574
-0.00597722
-0.00695048
-0.00560624
-0.0186654
-0.0199498
-0.0181197
-0.0149892
-0.0198121
-0.0182151
-0.0212582
-0.00232006
-0.00800795
-0.012328
-0.00899828
-0.010028
-0.012555
-0.0117339
-0.0151547
-0.016497
0.00578227
0.00779107
0.0102673
-0.000621533
0.00451927
0.0111004
0.0111288
0.0128564
0.011407
0.00931095
0.0090092
0.0079916
0.0105966
0.013304
0.0133434
0.0130245
0.0129571
0.00375257
0.00468402
0.00465064
0.00592046
0.00555812
0.00488602
0.00699485
0.0043869
-0.00384442
-0.00732827
-0.00450621
-0.00429238
-0.00474853
-0.00573675
-0.00666686
-0.00488761
-0.0198663
-0.0219556
-0.0199102
-0.0179526
-0.0216588
-0.0198852
-0.0231989
-0.00484166
-0.0102243
-0.0125173
-0.00840271
-0.0108803
-0.00935116
-0.0138275
-0.012556
-0.0152186
-0.0180215
0.00897124
0.00971182
0.0119863
0.000201314
0.00548747
0.0129209
0.0136386
0.0134733
0.0122302
0.00999216
0.00866662
0.00991001
0.00749567
0.0106442
0.0145963
0.0145036
0.0142708
0.0143779
0.0038579
0.00441506
0.00462595
0.0061589
0.00529316
0.00474238
0.00667816
0.00548982
-0.00354585
-0.00389798
-0.00419522
-0.00377676
-0.00470343
-0.00485682
-0.00597296
-0.00704363
-0.00467468
-0.0224913
-0.0241588
-0.0232723
-0.018758
-0.0235109
-0.0217032
-0.0198142
-0.0254614
-0.00524519
-0.00961973
-0.0151962
-0.00773914
-0.0108952
-0.00924463
-0.0137857
-0.0123521
-0.0163677
-0.0179448
0.0105524
0.0119872
0.0149996
-0.00165599
0.0033628
0.00876826
0.0146095
0.0145124
0.0133277
0.0129618
0.0113742
0.00889968
0.0102849
0.00763403
0.016059
0.0158131
0.0152178
0.0156223
0.00417527
0.00406008
0.00435641
0.00590132
0.00491131
0.00547311
0.00443827
0.00690097
-0.00685392
-0.00408532
-0.00409465
-0.00345954
-0.00431291
-0.0045607
-0.00565802
-0.00647933
-0.00415578
-0.0245646
-0.0264395
-0.0256389
-0.022248
-0.0256493
-0.0233289
-0.0215284
-0.0277393
-0.00421634
-0.0112261
-0.0154494
-0.00792727
-0.0101835
-0.0085217
-0.0146239
-0.0125414
-0.0160534
-0.0194163
0.0136129
0.0138273
0.0168146
0.000607759
0.00424087
0.0100285
0.0162835
0.015432
0.0144639
0.0132464
0.0116258
0.00839552
0.00942842
0.0110334
0.00992942
0.00795659
0.0176032
0.0171022
0.0166782
0.0172368
0.00415122
0.00407109
0.00431175
0.00610229
0.00462382
0.0051773
0.00436789
0.00659787
-0.00378904
-0.00379066
-0.00381384
-0.00407005
-0.00401909
-0.004933
-0.00559653
-0.00708663
-0.00379455
-0.0277087
-0.0293515
-0.0287929
-0.0265522
-0.0191503
-0.0250602
-0.0277736
-0.0255011
-0.0232242
-0.0214175
-0.0314503
-0.00581991
-0.0139724
-0.0103389
-0.00835088
-0.0142524
-0.0115145
-0.0173561
-0.0192016
0.0155954
0.0161826
0.0183957
-2.44481e-05
0.0069975
0.0130056
0.018013
0.0165376
0.0146886
0.0130558
0.0123206
0.00864793
0.00940761
0.0112562
0.0104911
0.00771376
0.018893
0.0188156
0.0175444
0.0190653
0.00529552
0.00372396
0.00379375
0.0057525
0.00444722
0.00470404
0.00533122
0.00385634
0.00682394
-0.00398421
-0.00339001
-0.00376656
-0.00371061
-0.00382543
-0.00377259
-0.00464424
-0.00530131
-0.00674975
-0.00354217
-0.0307958
-0.0324701
-0.0314982
-0.0213184
-0.0263444
-0.0297108
-0.0278283
-0.0250418
-0.0228621
-0.0345146
-0.00592713
-0.0148104
-0.00959005
-0.00742208
-0.0147613
-0.0115518
-0.0168419
-0.0202719
0.0183274
0.0152595
0.018117
0.0205289
0.019059
-0.0026671
0.00367441
0.00728764
0.0135616
0.0169236
0.0155528
0.0138359
0.0121812
0.00817991
0.00968697
0.0105514
0.00732097
0.0204884
0.0200506
0.018836
0.0211052
0.00398367
0.00336022
0.00589364
0.00437531
0.0043997
0.00496722
0.00321066
0.00339775
0.00642289
-0.00584749
-0.0027817
-0.00364545
-0.00344876
-0.00328921
-0.00389194
-0.00321481
-0.00485709
-0.00529838
-0.00583981
-0.00319809
-0.0351531
-0.0349781
-0.0340905
-0.0339154
-0.0253994
-0.0189727
-0.0304187
-0.0328869
-0.0280628
-0.0246911
-0.0225848
-0.0371679
-0.00913001
-0.0122614
-0.0092149
-0.00726542
-0.0156836
-0.0133152
-0.0104383
-0.0190518
0.021176
0.0184896
0.0205038
0.0229912
0.0215988
-0.00158602
0.00344798
0.0107001
0.0177304
0.0186974
0.0165999
0.0149628
0.0134367
0.0124943
0.00822825
0.00923014
0.0110224
0.00745273
0.0218401
0.0199556
0.0219308
0.022574
0.00579693
0.00395229
0.00547402
0.00454281
0.00470075
0.0040976
0.00500824
0.00313563
0.00369673
0.00655215
-0.00370251
-0.00272104
-0.00336871
-0.00314931
-0.00311305
-0.00311803
-0.00357992
-0.00294984
-0.00433417
-0.00453129
-0.00566263
-0.00297521
-0.0379668
-0.0392062
-0.0382913
-0.0395221
-0.0278211
-0.0209104
-0.0318589
-0.0344495
-0.0295925
-0.0276588
-0.0235408
-0.0413523
-0.00751893
-0.0146188
-0.00846188
-0.00764237
-0.00615926
-0.0160257
-0.0139438
-0.0112941
-0.0195063
0.0230108
0.0224519
0.0216404
0.0255148
0.0233789
-0.00341614
0.00559433
0.0111909
0.0198215
0.0196905
0.0172558
0.0156078
0.0139004
0.0120259
0.00855314
0.00957209
0.0103474
0.011485
0.00709094
0.0239559
0.0217112
0.0235451
0.00643686
0.00556551
0.00355175
0.00435092
0.00391752
0.00466707
0.00585423
0.00363724
0.00605557
-0.00634126
-0.00275118
-0.00311801
-0.0029391
-0.00273308
-0.00274041
-0.00362605
-0.00315792
-0.00301905
-0.00267975
-0.00431623
-0.00456701
-0.00266916
-0.0417608
-0.0433744
-0.0416337
-0.0392988
-0.0427462
-0.0281741
-0.024638
-0.0184137
-0.0356991
-0.0383515
-0.032056
-0.0279458
-0.0219426
-0.0258148
-0.0422846
-0.0439723
-0.0104374
-0.00843026
-0.00683234
-0.00561371
-0.0159159
-0.0130398
-0.0102791
-0.0179231
0.0259613
0.0255337
0.024113
0.0267183
0.0268373
0.0260796
-0.000947285
0.00364052
0.0143261
0.019486
0.0241961
0.0209627
0.0185057
0.0166256
0.015254
0.0129544
0.0145535
0.00826526
0.00923612
0.0106032
0.0116852
0.00727606
0.0260044
0.0223042
0.02536
0.0051365
0.00213977
0.00421799
0.00405337
0.00478079
0.00436012
0.00617727
0.00614598
-0.00314961
-0.00262179
-0.00279604
-0.00259993
-0.00255422
-0.00258802
-0.00347047
-0.00302891
-0.00252367
-0.00244394
-0.00398175
-0.00394128
-0.00490689
-0.00253921
-0.0448596
-0.0461056
-0.0449989
-0.047617
-0.0326505
-0.0254625
-0.0202281
-0.036846
-0.0394887
-0.033503
-0.0312507
-0.0221737
-0.0263323
-0.0463715
-0.0490231
-0.0111181
-0.00751844
-0.00898038
-0.00683422
-0.00585568
-0.0146975
-0.013013
-0.0117493
-0.01997
0.0274643
0.0279253
0.0296941
0.029926
0.0276304
-0.00311432
0.00626194
0.0177105
0.0107495
0.0259407
0.0279792
0.0212526
0.0189244
0.01716
0.0162263
0.0130179
0.0145604
0.00762742
0.00926361
0.0102795
0.0123466
0.00661881
0.026564
0.0240847
0.0258843
0.00513368
0.000495363
0.00384445
0.00447849
0.00444681
0.00407812
0.00638235
0.00570328
-0.00491334
-0.00225284
-0.00266333
-0.00228859
-0.00213585
-0.00231899
-0.00356632
-0.00313715
-0.00233085
-0.00240642
-0.00225201
-0.00373015
-0.00349121
-0.00435747
-0.00230924
-0.0491801
-0.0511992
-0.0421396
-0.0499379
-0.0517692
-0.032666
-0.0287967
-0.0170609
-0.0368517
-0.0453204
-0.0320752
-0.0242113
-0.0293117
-0.0512357
-0.0525133
-0.00741756
-0.00678965
-0.00859597
-0.00592108
-0.00488376
-0.0152541
-0.0111131
-0.019155
0.0306279
0.031884
0.0320335
0.0323927
0.0305481
0.000469549
0.00460539
0.020408
0.0130364
0.0287114
0.032435
0.0201682
0.0226456
0.0181386
0.0162528
0.0138219
0.0152348
0.00769134
0.00866312
0.0106404
0.0123539
0.00662581
0.0285935
0.0255884
0.0238268
0.0282786
0.00467265
0.00401277
0.00374054
0.0044357
0.0044743
0.00411273
0.00386555
0.00572219
-0.0029858
-0.00200104
-0.00239334
-0.00220296
-0.00210424
-0.00189555
-0.00221053
-0.00301152
-0.00251976
-0.00215697
-0.00212248
-0.00198247
-0.00369392
-0.00298575
-0.00430094
-0.00382665
-0.00220415
-0.0532353
-0.054566
-0.0454101
-0.0542672
-0.0572879
-0.0387906
-0.0296765
-0.0191775
-0.0376375
-0.0471098
-0.0353416
-0.024179
-0.0301097
-0.0558002
-0.0582086
-0.0085768
-0.00562842
-0.00724641
-0.00938551
-0.0055213
-0.016961
-0.01334
-0.0114831
-0.019843
0.0329186
0.0339246
0.0348222
0.0352012
0.0317636
-0.0012763
0.00899785
0.0172716
0.02465
0.0276624
0.033163
0.0356005
0.0204606
0.0228831
0.0184246
0.0168198
0.0137305
0.0150182
0.00681786
0.00803561
0.00902362
0.0111588
0.00989663
0.0132149
0.0118421
0.0304213
0.0273551
0.0254644
0.0303407
0.00470851
0.00624083
0.00327111
0.00295814
0.0041282
0.00382698
0.00356892
0.00542995
-0.00542125
-0.00254709
-0.00188686
-0.00196989
-0.00187975
-0.00192124
-0.00188238
-0.00199127
-0.00281913
-0.00218429
-0.00188795
-0.0021622
-0.0019407
-0.00166865
-0.00354481
-0.00309872
-0.0027987
-0.00408887
-0.003709
-0.00210793
-0.0583427
-0.060697
-0.0505649
-0.0588743
-0.0547066
-0.0620168
-0.0371624
-0.0295943
-0.0125832
-0.0247339
-0.0417581
-0.0493589
-0.0353469
-0.0219785
-0.0276013
-0.0324039
-0.0625881
-0.0546896
-0.0630104
-0.00546884
-0.00669239
-0.00853308
-0.00467621
-0.0161234
-0.0142055
-0.0108913
-0.0182858
0.0363354
0.0383596
0.036672
0.0359126
0.0365965
0.0348819
0.000123063
0.00958297
0.0188554
0.0244554
0.0313972
0.0362366
0.0407842
0.0215668
0.0195508
0.0241002
0.017729
0.0165665
0.015422
0.00640497
0.00775245
0.00861994
0.0112019
0.0101019
0.0134725
0.0125579
0.0322132
0.0291863
0.0255247
0.030844
0.0049302
0.00424516
0.00356236
0.00291946
0.00386749
0.00405833
0.00351054
0.00349305
0.00549876
-0.00451321
-0.00207584
-0.00187766
-0.00181944
-0.00169002
-0.00168405
-0.00175572
-0.00190167
-0.00247538
-0.00216729
-0.00156175
-0.00181136
-0.00172099
-0.00140818
-0.00309774
-0.00259854
-0.00232643
-0.00356684
-0.00412561
-0.00289493
-0.00199036
-0.063305
-0.0648901
-0.0545057
-0.0501403
-0.0655847
-0.0621034
-0.0683888
-0.0432358
-0.0356049
-0.0113339
-0.0233966
-0.0425549
-0.048537
-0.0393025
-0.0230588
-0.02784
-0.0316983
-0.0684793
-0.0600494
-0.0690141
-0.00514701
-0.00475526
-0.00548275
-0.00669921
-0.00934379
-0.00722612
-0.00429148
-0.0128944
-0.0107049
-0.0187714
0.03929
0.0422396
0.0403286
0.0396285
0.0408825
0.036892
0.00535074
-0.00495925
0.016264
0.02855
0.0325644
0.0420582
0.0453184
0.0215799
0.0197693
0.0240472
0.0186424
0.017089
0.014852
0.00700862
0.0080096
0.00883049
0.0115012
0.00962732
0.0141622
0.0123494
0.0345011
0.0294055
0.0271245
0.0333878
0.00453573
0.00398812
0.00585571
0.00298608
0.00362032
0.00358589
0.0032666
0.00323867
0.00537352
-0.00217121
-0.0016814
-0.00163853
-0.00154703
-0.0013636
-0.00145134
-0.00169713
-0.00218435
-0.00181949
-0.00145827
-0.00158285
-0.00182
-0.00172641
-0.0015093
-0.00130454
-0.00127695
-0.00288532
-0.00227721
-0.00209697
-0.00320888
-0.00342
-0.00276606
-0.0029337
-0.00147942
-0.068452
-0.0711004
-0.0592215
-0.0544006
-0.0662505
-0.0697921
-0.0658504
-0.0732815
-0.0361849
-0.016297
-0.0285386
-0.0493409
-0.0402707
-0.0258425
-0.0211513
-0.0338213
-0.0684946
-0.0743683
-0.0576348
-0.0645995
-0.0744414
-0.0042787
-0.0041947
-0.00518956
-0.00584146
-0.00846105
-0.00695736
-0.00393005
-0.0134296
-0.011151
-0.00930823
-0.0167421
0.0437035
0.0475603
0.0438056
0.0421763
0.0431327
0.0393821
0.00778937
-0.00449561
0.0178907
0.0291604
0.0379416
0.0441676
0.0518093
0.0225902
0.0205162
0.0246879
0.0184097
0.0163356
0.0176535
0.0153955
0.00661605
0.00761638
0.00840869
0.0109711
0.0100298
0.0139608
0.0125933
0.0348718
0.0308258
0.02681
0.0341348
0.00458723
0.00350216
0.00329897
0.00335639
0.00328742
0.00302228
0.00288433
0.0056934
0.00483992
-0.00324822
-0.00156639
-0.00158458
-0.00142459
-0.00141081
-0.00144391
-0.00138688
-0.00163402
-0.00200747
-0.00169736
-0.0012546
-0.00128954
-0.00142953
-0.00148746
-0.0013021
-0.00115292
-0.00110274
-0.00239539
-0.00222774
-0.00238697
-0.001831
-0.00302927
-0.00318337
-0.00247065
-0.00260271
-0.00202695
-0.00152045
-0.0748045
-0.0614606
-0.0558694
-0.0730006
-0.0755129
-0.0722955
-0.0797279
-0.0440069
-0.0139187
-0.0287881
-0.053373
-0.0440258
-0.0375283
-0.025695
-0.0206222
-0.0321025
-0.0757546
-0.0806478
-0.0633025
-0.067669
-0.080731
-0.0039151
-0.00382708
-0.00424323
-0.00505927
-0.00547734
-0.00727931
-0.00598794
-0.00339528
-0.0121
-0.0147353
-0.0103348
-0.0084608
-0.0180047
0.0475959
0.052455
0.0471616
0.0462273
0.0420205
0.047203
0.0382003
0.00577346
0.000539533
0.0224943
0.0273338
0.0378911
0.048812
0.056557
0.0222266
0.0204132
0.02531
0.0234632
0.0195106
0.0166833
0.0178291
0.015039
0.00628358
0.00745016
0.0089113
0.0112671
0.00965102
0.0133743
0.0121548
0.0306038
0.032476
0.0287182
0.0363148
0.0040713
0.00337377
0.00343498
0.00454693
0.00307431
0.00307418
0.00286802
0.00253685
0.00537551
0.00462926
-0.00139611
-0.00136772
-0.00131767
-0.00128359
-0.00127877
-0.00121534
-0.001413
-0.00161726
-0.00193365
-0.00136808
-0.00117428
-0.001283
-0.00122437
-0.00133045
-0.0012605
-0.00107209
-0.00108315
-0.00101723
-0.000994634
-0.00217852
-0.00197248
-0.00193042
-0.00169983
-0.00261614
-0.00286761
-0.00228421
-0.00258458
-0.00227402
-0.00293557
-0.00122361
-0.0800359
-0.0706897
-0.0512258
-0.0654979
-0.0776919
-0.0796653
-0.0760065
-0.0847504
-0.0363864
-0.0169756
-0.0236675
-0.0540895
-0.043562
-0.0388078
-0.0228722
-0.0281214
-0.0363325
-0.0767569
-0.0819421
-0.0852243
-0.0626607
-0.0722395
-0.0858554
-0.00325365
-0.00347235
-0.00393651
-0.00445273
-0.00460205
-0.00674618
-0.00556283
-0.00326028
-0.0104218
-0.0120169
-0.0150419
-0.0088117
-0.00713631
-0.0169845
0.0516287
0.057776
0.050953
0.0489178
0.0444114
0.0500252
0.0394877
0.011283
-0.00101136
0.0189927
0.0328644
0.0427101
0.052925
0.0482501
0.0640771
0.0212641
0.0251215
0.0232977
0.019576
0.0161663
0.018289
0.0152759
0.00650311
0.00715345
0.00831597
0.0107511
0.00994966
0.0139315
0.0124292
0.0318448
0.0341566
0.0284124
0.0381284
0.0362584
0.00356738
0.00378645
0.0031555
0.00311544
0.00276176
0.00288907
0.00283199
0.00268952
0.00247836
0.00532544
0.0047243
-0.00129011
-0.00129119
-0.00112794
-0.00115564
-0.00115453
-0.0010719
-0.0012857
-0.00131167
-0.00155514
-0.00132475
-0.00101404
-0.00108915
-0.00100894
-0.000999996
-0.00106714
-0.00111687
-0.00100564
-0.000883684
-0.000860668
-0.000820472
-0.00182184
-0.00164174
-0.00187865
-0.00108577
-0.00264594
-0.00274425
-0.00228089
-0.00171533
-0.00204955
-0.00144307
-0.0851037
-0.0720797
-0.076429
-0.0539882
-0.0697809
-0.0829812
-0.0853489
-0.0813544
-0.0904976
-0.0395013
-0.0125602
-0.0258657
-0.05814
-0.0504967
-0.046174
-0.0217281
-0.0281593
-0.035914
-0.0822577
-0.0873038
-0.091761
-0.0680559
-0.0724435
-0.0897367
-0.00290344
-0.00307463
-0.0033701
-0.00321328
-0.00416113
-0.00425811
-0.0058157
-0.00465377
-0.0025008
-0.00883341
-0.0104493
-0.0132977
-0.00787306
-0.00643178
-0.0169047
0.0560384
0.0625729
0.0545279
0.0537085
0.0481965
0.0424516
0.0550628
0.00803912
-0.00605609
0.0228021
0.0306667
0.0416798
0.0584608
0.0539934
0.0658049
0.068716
0.0212233
0.0254354
0.0221059
0.0188974
0.0204583
0.0165519
0.0178145
0.0148125
0.00602289
0.00706724
0.00946214
0.00770915
0.0107244
0.013487
0.0117502
0.0337897
0.0309833
0.0268719
0.0396334
0.0382988
0.00308444
0.00346876
0.00283241
0.00289683
0.00458294
0.00264478
0.00257889
0.00259553
0.00202463
0.0048846
0.00434526
-0.00112146
-0.00117074
-0.001066
-0.00103278
-0.000998696
-0.00102305
-0.00094323
-0.00101622
-0.00136438
-0.00127118
-0.000994736
-0.000862148
-0.000864849
-0.000963534
-0.000955036
-0.00109791
-0.000876717
-0.00084465
-0.000807357
-0.000819243
-0.000807274
-0.00067749
-0.00152482
-0.0014861
-0.00169281
-0.00114054
-0.00186927
-0.00211268
-0.0023636
-0.00180129
-0.00216914
-0.00173016
-0.0020545
-0.00256408
-0.0911585
-0.0815107
-0.0825163
-0.0475597
-0.0632825
-0.0810928
-0.0835743
-0.0869922
-0.0900768
-0.086195
-0.0958923
-0.0330656
-0.0176384
-0.0578475
-0.052283
-0.0439137
-0.0227966
-0.0184402
-0.0315971
-0.025258
-0.0376916
-0.0822231
-0.0876217
-0.0918535
-0.094072
-0.0940707
-0.0683782
-0.0777435
-0.0918241
-0.00218582
-0.00266157
-0.00274043
-0.00303625
-0.00343876
-0.00346494
-0.00513018
-0.00419417
-0.00902794
-0.00752571
-0.00991646
-0.0125116
-0.00669663
-0.00533196
-0.0144342
0.0598671
0.066496
0.0589242
0.0569894
0.0500927
0.0439912
0.0578403
0.0103883
-0.00318872
0.0184959
0.0366481
0.0469771
0.064786
0.056207
0.0745144
0.0757572
0.0241746
0.021961
0.0191898
0.020504
0.0171617
0.0160292
0.018655
0.0151201
0.0059366
0.00650928
0.00945489
0.00781132
0.0101369
0.0137187
0.0119296
0.0355278
0.0315673
0.0271046
0.0418138
0.0381744
0.00315159
0.00302567
0.00356895
0.00325639
0.00246711
0.0025658
0.00254093
0.00251421
0.002333
0.00244934
0.00186844
0.00435629
0.00480716
0.00407798
-0.00101818
-0.0010613
-0.00102713
-0.000924631
-0.00088582
-0.00090495
-0.000910115
-0.000813665
-0.00125308
-0.00135623
-0.00108091
-0.000844686
-0.000819401
-0.000788408
-0.000799674
-0.000748678
-0.000803333
-0.000806098
-0.000729125
-0.000696403
-0.000706101
-0.000684646
-0.000572413
-0.000671185
-0.00147055
-0.00124944
-0.00154578
-0.00102319
-0.0008143
-0.00177374
-0.00186898
-0.00217399
-0.00134854
-0.00166638
-0.00185177
-0.00147414
-0.0962884
-0.0866973
-0.0875273
-0.0504011
-0.0649327
-0.0855344
-0.0898239
-0.093652
-0.0976329
-0.0921771
-0.101675
-0.0347375
-0.0181721
-0.0595782
-0.0491242
-0.0404519
-0.0207945
-0.0173934
-0.0320557
-0.0258404
-0.0362799
-0.0888186
-0.0908608
-0.098527
-0.0994942
-0.10061
-0.0637626
-0.0742675
-0.0790089
-0.0988869
-0.00199735
-0.00202819
-0.00233103
-0.00242184
-0.00317587
-0.00287029
-0.00426933
-0.00316815
-0.00732189
-0.00664753
-0.00817121
-0.0110208
-0.00578983
-0.00447056
-0.0148229
0.0646657
0.0730073
0.0625255
0.0625772
0.0469463
0.0532386
0.056516
0.0634139
0.00526317
-0.00930748
0.0210027
0.0343131
0.0441166
0.0535417
0.0683759
0.0639276
0.081429
0.0775947
0.0799316
0.0226846
0.0244789
0.0210814
0.0197143
0.0174123
0.0167787
0.0186
0.0147146
0.00530899
0.00641254
0.00877159
0.00728132
0.0100719
0.0128999
0.0113997
0.0350323
0.0333251
0.0300338
0.0282745
0.0256261
0.0428703
0.0397071
0.00268056
0.00274186
0.00302658
0.0029511
0.00241364
0.00231993
0.00237792
0.0047818
0.00231131
0.00216964
0.00226444
0.00217162
0.00406845
0.00426166
0.00374801
-0.000884357
-0.000926254
-0.000916676
-0.000802325
-0.000779081
-0.000823617
-0.000769238
-0.000787633
-0.000724015
-0.0017494
-0.000647532
-0.000658838
-0.000689227
-0.000622746
-0.000753537
-0.000702408
-0.00059338
-0.000741368
-0.000671063
-0.000649394
-0.000594588
-0.000683814
-0.000598046
-0.000478388
-0.000577056
-0.0010645
-0.000807227
-0.00181875
-0.000680465
-0.00154621
-0.00151078
-0.0019205
-0.0013133
-0.00136287
-0.001451
-0.00137417
-0.10154
-0.0955709
-0.0964574
-0.0441201
-0.0586774
-0.0752088
-0.0975467
-0.0945072
-0.102872
-0.0969291
-0.108948
-0.0269639
-0.0559543
-0.0491237
-0.0415949
-0.0216782
-0.0176177
-0.0287724
-0.0244331
-0.0356552
-0.0898587
-0.0953333
-0.0990223
-0.105062
-0.102629
-0.101959
-0.105449
-0.0645679
-0.0744479
-0.085199
-0.00173547
-0.00148768
-0.00197305
-0.00225537
-0.00255305
-0.00212103
-0.00341401
-0.0027758
-0.00604672
-0.00585275
-0.00744603
-0.0102819
-0.00463874
-0.00353545
-0.0127115
0.0683826
0.0778173
0.0661904
0.0475216
0.0523418
0.0595076
0.0675898
0.0105006
-0.00795326
0.0271255
0.041467
0.0498579
0.0591785
0.0748891
0.0673692
0.0879512
0.0857589
0.0881826
0.0221621
0.0232031
0.0207876
0.0195581
0.0180252
0.0164819
0.0191639
0.0151953
0.00518253
0.00673529
0.00557741
0.00883572
0.00753619
0.0105848
0.013424
0.0115346
0.0369455
0.033591
0.0316367
0.0280003
0.0253494
0.0415601
0.0455154
0.0388159
0.00247553
0.00240597
0.00294334
0.0029456
0.00247283
0.0022174
0.00209517
0.00210163
0.00210582
0.00195957
0.00192158
0.00341548
0.00371881
0.00429537
0.00346721
-0.000779154
-0.000741068
-0.000796928
-0.000644765
-0.000653684
-0.000706401
-0.000654115
-0.000724103
-0.000674833
-0.000605672
-0.00102273
-0.000988317
-0.000755606
-0.000596043
-0.000578816
-0.000530966
-0.000547665
-0.000488521
-0.000585893
-0.000506255
-0.000614483
-0.000550803
-0.000538236
-0.000493961
-0.000510985
-0.000393358
-0.000911016
-0.00169206
-0.00122021
-0.00076532
-0.00100707
-0.00145986
-0.00136384
-0.00153417
-0.000984022
-0.00119705
-0.00139003
-0.0012285
-0.106789
-0.0985307
-0.100715
-0.102199
-0.0466937
-0.0630592
-0.0742343
-0.0959857
-0.107748
-0.100488
-0.107792
-0.111191
-0.11372
-0.0274118
-0.0514592
-0.0600171
-0.0452114
-0.0384604
-0.0188311
-0.0150323
-0.0315917
-0.0239944
-0.0969622
-0.0999901
-0.107889
-0.109676
-0.108272
-0.107583
-0.111435
-0.0687051
-0.08018
-0.0858897
-0.00172494
-0.00143168
-0.000826915
-0.00120072
-0.00147669
-0.00199806
-0.00140529
-0.00188535
-0.0052224
-0.0043451
-0.00838373
-0.00559623
-0.0107868
-0.00389349
-0.00265782
-0.012744
0.0737687
0.0833616
0.0710019
0.0495688
0.0557172
0.0628444
0.0671951
0.0733926
0.00905296
-0.0170346
0.000935998
0.0263538
0.0483911
0.0377652
0.0580508
0.079149
0.0746452
0.0955237
0.0879698
0.0917633
0.0953189
0.0213099
0.0230527
0.0208361
0.0199401
0.018062
0.0174234
0.0157966
0.0191701
0.0145396
0.00464695
0.00634354
0.00505895
0.00827149
0.00715106
0.00988493
0.0129393
0.012076
0.0107771
0.0369155
0.0349007
0.0309211
0.0264129
0.0290738
0.0239821
0.0428096
0.0462636
0.0413205
0.00226315
0.00219542
0.00307999
0.00273133
0.00256694
0.00223908
0.0020481
0.00192559
0.00187012
0.00194758
0.00178264
0.00160837
0.00213761
0.00333055
0.00351859
0.00343197
-0.000671332
-0.000670815
-0.000711694
-0.000552717
-0.000554897
-0.000608196
-0.000586248
-0.000629677
-0.000595346
-0.000550044
-0.00138815
-0.000642497
-0.000317051
-0.000491427
-0.000485307
-0.000441581
-0.000456513
-0.000327655
-0.000429183
-0.000400425
-0.000538012
-0.000461973
-0.000539525
-0.000368969
-0.000415151
-0.000298841
-0.000780143
-0.000839104
-0.000899854
-8.22052e-05
-0.000828391
-0.000990944
-0.00108421
-0.00117407
-0.000783301
-0.00166047
-0.00139992
-0.00136312
-0.000532222
-0.110534
-0.108302
-0.108812
-0.113627
-0.0567666
-0.0378126
-0.0830692
-0.108736
-0.120041
-0.106813
-0.109961
-0.119537
-0.122265
-0.0246038
-0.0503931
-0.057904
-0.0457993
-0.0376376
-0.0156106
-0.0208711
-0.0292663
-0.0256827
-0.101576
-0.109062
-0.116948
-0.110497
-0.116744
-0.0679322
-0.0797634
-0.0921999
-0.00118611
-0.000964684
-0.000853942
-0.000490252
-0.000672464
-0.00148882
-0.000762048
-0.00147757
-0.00357082
-0.00466116
-0.00326308
-0.00704295
-0.00545896
-0.00883438
-0.00279128
-0.00163292
-0.0111122
0.0752796
0.0852273
0.0494809
0.0555224
0.0627133
0.0712579
0.078827
0.0187762
-0.0094686
0.00199406
0.0568546
0.0405985
0.0642113
0.0877324
0.0773612
0.103854
0.0958731