/*--------------------------------*- C++ -*----------------------------------*\
| =========                 |                                                 |
| \\      /  F ield         | OpenFOAM: The Open Source CFD Toolbox           |
|  \\    /   O peration     | Version:  v2012                                 |
|   \\  /    A nd           | Website:  www.openfoam.com                      |
|    \\/     M anipulation  |                                                 |
\*---------------------------------------------------------------------------*/
FoamFile
{
    version     2.0;
    format      ascii;
    class       surfaceVectorField;
    location    "4";
    object      Uf_0;
}
// * * * * * * * * * * * * * * * * * * * * * * * * * * * * * * * * * * * * * //

dimensions      [0 1 -1 0 0 0 0];


internalField   nonuniform List<vector> 
18781
(
(1.00008 0.00022692 -2.11605e-24)
(1.0001 0.000195128 3.17544e-22)
(1.00014 0.000443373 8.72514e-23)
(1.00007 0.000212131 1.71582e-24)
(1.00016 0.000412115 4.24017e-24)
(1.00013 0.000193086 1.43603e-23)
(1.00015 0.00064346 4.72612e-23)
(1.0002 0.00068408 1.65294e-24)
(1.00005 0.000223232 7.93844e-25)
(1.00022 0.000663422 -1.22494e-22)
(1.00027 0.000637397 -1.90669e-24)
(1.00011 0.000128376 -3.50716e-22)
(1.00021 0.000869957 -6.12589e-23)
(1.00012 0.00061355 -1.17798e-22)
(1.00031 0.000865171 1.79799e-24)
(1.00008 0.000437701 7.32221e-24)
(1.00004 0.000235006 -4.7406e-23)
(1.00026 0.000460927 -3.75184e-24)
(1.00034 0.000701079 0)
(1.00019 0.000225083 -4.2177e-24)
(1.0003 0.00109339 1.413e-24)
(1.00022 0.00108466 -1.19614e-24)
(1.00013 0.000644586 -1.05255e-24)
(1.00034 0.00106363 0)
(1.00039 0.00107075 0)
(1.00003 0.000233965 -1.04369e-23)
(1.00037 0.000704382 -8.63791e-24)
(1.00047 0.000893912 0)
(1.00029 0.00049345 -8.58188e-24)
(1.00018 0.00022261 0)
(1.00038 0.0012949 0)
(1.00015 0.000903927 -2.93687e-23)
(1.00018 0.00114046 -3.60407e-25)
(1.00012 0.000705595 1.66329e-23)
(1.00052 0.00116192 0)
(1.00052 0.00133443 0)
(1.00005 0.000499848 2.34077e-25)
(1.00002 0.000267275 1.4543e-24)
(1.00039 0.000666387 1.06916e-22)
(1.00065 0.00115429 0)
(1.00017 0.000172255 -6.80955e-24)
(1.0005 0.00146789 0)
(1.00041 0.00149586 -2.68901e-25)
(1.00021 0.00139331 -6.75913e-25)
(1.0001 0.0012284 5.93013e-23)
(1.00005 0.000738175 -1.36322e-22)
(1.00062 0.00151972 6.62577e-24)
(0.999989 0.000258699 -1.24416e-22)
(1.00035 0.000604661 1.77522e-23)
(1.0005 0.000817313 1.036e-22)
(1.00066 0.00103469 4.04436e-24)
(1.00079 0.00126719 0)
(1.00025 0.000469161 -6.11349e-24)
(1.00028 0.000292276 -7.98949e-22)
(1.00031 0.00156119 -1.07277e-24)
(1.00043 0.00175389 1.7376e-23)
(1.00022 0.00164324 1.32028e-22)
(1.00005 0.00103792 3.37646e-23)
(1.00004 0.00127031 -4.17562e-26)
(1.00003 0.000776359 5.15582e-23)
(1.00077 0.00167962 -2.12609e-22)
(1.00065 0.00182977 5.51233e-24)
(0.999985 0.000203906 -4.09188e-24)
(0.999994 0.000442566 -1.96552e-24)
(1.00034 0.000564598 4.23759e-25)
(1.00068 0.000921131 3.971e-24)
(1.00096 0.00154456 -4.6942e-24)
(1.00101 0.00131253 2.48638e-24)
(1.00045 2.46241e-05 4.74402e-22)
(1.00057 0.00191422 2.47145e-24)
(1.00046 0.00201912 5.09059e-23)
(1.00021 0.00193881 -2.10524e-25)
(1.00014 0.00170598 -3.97882e-22)
(1.00003 0.00145601 2.39844e-25)
(1.00002 0.00127215 0)
(0.999996 0.000660107 -2.94242e-25)
(0.999987 0.00098746 2.58533e-25)
(1.00092 0.00171075 -7.56787e-22)
(1.00089 0.00191575 -4.75868e-24)
(1.00067 0.00206107 9.92528e-24)
(0.99999 0.000200207 1.14393e-23)
(0.999979 0.000597886 -9.31675e-23)
(1.00056 0.000694539 5.42931e-25)
(1.0004 0.000521331 0)
(1.00077 0.000861612 -2.83444e-23)
(1.00112 0.00178308 3.73471e-23)
(1.00108 0.00124248 -6.40667e-23)
(1.00123 0.00146394 -7.2164e-24)
(1.00024 -5.69003e-05 -1.47332e-23)
(1.00033 0.00214971 7.08082e-23)
(1.00049 0.00231716 -4.1171e-24)
(1.00016 0.00219723 -1.19018e-22)
(1.00001 0.00175378 2.80752e-25)
(0.99993 0.00119791 3.01898e-24)
(1.00085 0.00210746 4.65214e-22)
(1.00102 0.00220618 -1.2623e-23)
(1.00081 0.00230174 6.38878e-22)
(0.999967 0.000448683 1.95091e-24)
(0.999975 0.000271811 8.67777e-24)
(0.999946 0.000662099 1.94327e-22)
(1.00042 0.000308366 0)
(1.00061 0.000558893 0)
(1.00098 0.00105385 -2.69419e-24)
(1.00089 0.000785012 -5.46785e-25)
(1.0013 0.00175911 -2.25122e-24)
(1.00137 0.00197855 7.67994e-22)
(1.0012 0.0011498 -2.08298e-24)
(1.00149 0.00159035 1.7377e-22)
(1.00038 9.36085e-05 5.1393e-24)
(1.00071 0.00248866 -4.74571e-24)
(1.0005 0.00259819 -1.30195e-22)
(1.00004 0.00221486 1.11761e-25)
(1.00015 0.00248823 -5.12233e-24)
(0.999938 0.0020557 0)
(0.999849 0.00181911 -7.67602e-24)
(0.999886 0.00102186 6.01246e-24)
(0.999847 0.00128296 -1.35683e-22)
(1.00127 0.00238176 -7.15236e-22)
(1.00108 0.00256842 6.65358e-25)
(1.00092 0.00256047 -8.2016e-23)
(0.99994 0.000258004 -1.34151e-24)
(0.999895 0.000785495 -1.20826e-24)
(1.00077 0.000613341 0)
(1.0006 0.000520348 9.41962e-24)
(1.00096 0.000716015 1.87257e-23)
(1.0016 0.00233244 1.74556e-22)
(1.0012 0.000930818 1.78875e-23)
(1.00141 0.00115175 -7.71427e-24)
(1.00163 0.00140227 -9.83144e-24)
(1.00182 0.00172683 -2.69173e-24)
(1.0005 0.000375066 1.40036e-23)
(1.00057 9.30486e-05 8.4313e-22)
(1.00028 0.00275139 2.67268e-22)
(1.0005 0.00290819 6.45275e-25)
(0.9999 0.00229509 -1.62158e-24)
(1.00006 0.00277045 -2.11234e-22)
(0.9998 0.00150004 5.3647e-23)
(0.999654 0.0018283 -6.55683e-22)
(0.999809 0.00131181 1.36111e-22)
(1.00105 0.0027126 -3.76555e-22)
(0.99992 0.000245497 0)
(0.999897 0.000493024 3.55768e-24)
(0.999825 0.00106053 -1.13522e-23)
(0.999868 0.000730287 2.05378e-22)
(1.00064 0.000446924 3.62835e-22)
(1.00116 0.000694037 -1.28485e-22)
(1.00191 0.00217657 1.89246e-23)
(1.00185 0.00249752 1.57808e-24)
(1.0017 0.00114326 1.02737e-22)
(1.0022 0.00185072 -3.10159e-22)
(1.00042 -0.000149868 -1.30404e-21)
(1.00083 0.00301695 2.17585e-24)
(1.00056 0.00322247 -3.71972e-22)
(0.999893 0.00265317 -2.31841e-24)
(0.999693 0.00243445 2.55434e-22)
(0.999936 0.00289169 -6.49458e-25)
(0.999522 0.00200504 -8.50821e-23)
(0.999562 0.00173897 6.67577e-24)
(0.999754 0.00125314 3.52425e-22)
(1.0012 0.00293121 -5.36952e-24)
(0.999908 0.000204801 2.09798e-24)
(0.999825 0.000697391 -2.0653e-24)
(1.00054 0.000209253 2.10397e-22)
(1.00086 0.000328271 -8.41022e-24)
(1.00113 0.000477701 -5.81971e-23)
(1.0014 0.000652752 -1.38704e-22)
(1.00214 0.00269547 8.73486e-24)
(1.00175 0.00278677 1.64198e-23)
(1.00169 0.000853592 -1.31348e-25)
(1.00196 0.0010637 6.1207e-22)
(1.00237 0.00151685 -2.11172e-23)
(1.00255 0.00197245 4.56014e-22)
(1.00046 0.000158232 -6.96071e-22)
(1.00071 -9.38198e-05 4.04975e-24)
(1.00063 0.00370085 1.7873e-24)
(1.00022 0.00346908 3.18776e-24)
(0.999504 0.00228375 2.12466e-24)
(0.999473 0.00266731 5.50875e-23)
(0.999931 0.00325403 1.33575e-24)
(0.999674 0.00301955 4.56486e-24)
(0.999344 0.00215712 4.32331e-24)
(0.999624 0.0014478 4.17425e-24)
(0.999471 0.00163553 0)
(0.999691 0.00114714 3.30323e-24)
(1.00151 0.00291973 9.66753e-22)
(1.00143 0.0034851 -7.54525e-24)
(0.999876 0.000422184 1.42598e-23)
(0.999899 0.000199982 1.27369e-22)
(0.999758 0.000879376 -1.78088e-23)
(0.999809 0.000643662 2.34673e-22)
(1.00054 0.000160868 -1.07803e-23)
(1.00108 0.000297033 1.08599e-23)
(1.00167 0.000541324 1.66194e-22)
(1.00255 0.00262179 2.40596e-24)
(1.00238 0.00309538 1.06518e-22)
(1.00183 0.00330818 8.4625e-24)
(1.00225 0.00126356 5.73704e-24)
(1.00225 0.00080684 -3.70664e-22)
(1.00261 0.00128153 0)
(1.00277 0.00221344 3.60208e-22)
(1.003 0.00188635 3.23109e-23)
(1.00033 -0.000649825 6.01485e-22)
(1.00114 0.00386916 0)
(1.00062 0.00411837 8.4356e-25)
(0.999889 0.00365127 -7.79637e-23)
(0.999436 0.00286832 -6.92144e-22)
(0.999254 0.00275956 -6.50503e-24)
(0.99939 0.00322993 -6.47106e-24)
(0.999158 0.00242216 1.1209e-22)
(0.999162 0.0021501 5.80866e-24)
(0.999313 0.00168667 0)
(0.999424 0.00144977 9.01623e-25)
(0.999647 0.00106205 -8.27927e-24)
(1.00162 0.00387866 0)
(0.999804 0.000594652 1.35325e-22)
(0.999914 0.000166702 4.19451e-24)
(1.00053 -0.00024413 -2.35678e-22)
(1.00086 8.42437e-05 -8.88498e-24)
(1.00103 0.000208078 1.34845e-22)
(1.00113 0.000198053 -9.84659e-23)
(1.00158 0.000250186 7.35999e-25)
(1.00195 0.00035566 6.92856e-23)
(1.00314 0.00263078 -2.00277e-23)
(1.00215 0.0034913 -4.0248e-24)
(1.00258 0.00355238 -1.30154e-22)
(1.00186 0.00370106 0)
(1.00223 0.000468432 2.84249e-23)
(1.00262 0.000575994 3.61929e-22)
(1.00297 0.00134403 9.66066e-24)
(1.00286 0.00102585 -1.73186e-23)
(1.00336 0.00155721 -5.06188e-22)
(1.00034 -0.000269807 -1.33878e-21)
(1.00063 0.00463246 -7.66317e-23)
(1.00019 0.0043294 3.60338e-24)
(0.999543 0.00369831 5.25378e-22)
(0.999745 0.00399366 3.30206e-24)
(0.998959 0.00264472 -6.91699e-22)
(0.999127 0.00349971 9.83398e-22)
(0.999132 0.00193312 0)
(0.998882 0.00211526 0)
(0.999127 0.00165977 -1.04058e-23)
(0.999554 0.00118214 1.73779e-23)
(0.999394 0.0012704 -8.17624e-24)
(0.999652 0.000944264 -4.44718e-23)
(1.0019 0.00418308 1.06445e-23)
(0.999833 0.000477359 -4.7056e-22)
(0.99974 0.000685772 -2.51091e-23)
(0.999805 0.000289944 1.39433e-23)
(1.001 3.09524e-05 -5.48221e-24)
(1.00132 0.000182536 -1.03213e-23)
(1.00115 1.06586e-05 6.40012e-23)
(1.00156 2.45355e-05 0)
(1.00221 0.00019006 1.69131e-23)
(1.00336 0.00317486 -4.37094e-24)
(1.00369 0.0025717 4.21378e-23)
(1.00306 0.00360031 6.72506e-24)
(1.00283 0.00407798 3.93672e-23)
(1.00302 0.000558478 5.72248e-23)
(1.00373 0.00105106 4.27106e-23)
(1.0038 0.00175246 -7.3003e-22)
(1.00099 -4.29704e-05 -1.44564e-24)
(1.00048 0.000373974 -1.73463e-21)
(1.00049 0.0052744 1.0642e-22)
(1.0012 0.00494249 -6.04711e-24)
(0.999628 0.00447868 -2.40117e-22)
(0.998608 0.00251186 1.78688e-23)
(0.99871 0.00294035 5.87814e-24)
(0.998747 0.00333749 1.17484e-22)
(0.998845 0.00382834 -5.58107e-24)
(0.998612 0.00212064 -4.33365e-25)
(0.998764 0.00188238 2.58262e-25)
(0.998924 0.0016723 -1.58771e-23)
(0.999098 0.00147486 1.43914e-23)
(0.999235 0.00130544 -4.03755e-25)
(0.999388 0.00109558 2.58748e-22)
(0.999634 0.000811185 3.27094e-24)
(1.00252 0.00448214 5.21101e-22)
(1.00183 0.00473075 3.87655e-22)
(0.999746 0.000400151 7.25072e-24)
(0.999812 0.000208136 7.44802e-22)
(1.00069 9.78415e-05 1.2597e-23)
(1.00087 -8.57273e-05 -2.26408e-23)
(1.00105 -0.00012921 -2.45335e-22)
(1.00119 -0.000223414 1.60418e-23)
(1.00142 -0.000289975 0)
(1.00168 -0.000246966 0)
(1.00208 -0.000177475 -1.311e-23)
(1.00244 -0.000121547 -1.34478e-23)
(1.00358 0.00374936 -3.29022e-22)
(1.00396 0.00211991 -2.79988e-22)
(1.0043 0.00263639 2.28696e-23)
(1.00307 0.00475098 -2.67464e-23)
(1.0036 0.000566224 1.45122e-23)
(1.00327 0.000185063 8.71685e-22)
(1.00404 0.0006358 -4.91545e-22)
(1.0043 0.00163145 -8.52691e-24)
(1.00138 -0.00108939 2.54653e-21)
(1.00027 6.55865e-05 1.30695e-23)
(1.00044 0.00598038 2.11256e-23)
(0.999974 0.00543651 4.38041e-23)
(1.00183 0.00550899 -3.83137e-23)
(0.999565 0.00508335 1.36118e-23)
(0.999182 0.00457076 -4.84683e-24)
(0.99832 0.00224592 -4.40018e-25)
(0.99832 0.00308224 -1.99236e-22)
(0.998861 0.00429276 -6.29949e-24)
(0.998405 0.00400185 -6.10698e-22)
(0.998678 0.00169946 -7.4407e-24)
(0.999075 0.00132115 8.65073e-24)
(0.999505 0.000931593 8.9092e-24)
(0.999399 0.00099115 1.06373e-23)
(0.999605 0.000706605 7.86934e-23)
(0.999698 0.000535425 8.61712e-24)
(0.999729 0.000450379 -1.62354e-24)
(0.99984 7.30997e-05 1.18171e-23)
(1.00093 -0.00026783 -1.12075e-21)
(1.00124 -0.000412426 1.03806e-23)
(1.00188 -0.000509666 0)
(1.00296 -0.000182097 2.81548e-23)
(1.00259 -0.000580658 0)
(1.00423 0.00363684 -2.81547e-23)
(1.00406 0.00442917 1.13284e-23)
(1.00454 0.00314537 -7.99127e-23)
(1.00485 0.00262419 -2.38354e-23)
(1.00381 0.0050839 3.90639e-22)
(1.00313 0.00550538 -1.84028e-23)
(1.00349 -0.000416192 9.85999e-24)
(1.00442 0.00109617 -2.29336e-24)
(1.00449 0.000382694 -6.65175e-24)
(1.0048 0.00151529 4.37388e-23)
(1.00034 -0.000949189 -1.3348e-23)
(1.0005 -0.000440028 1.55745e-23)
(1.00009 -0.000353863 0)
(1.00099 0.00639557 -1.20733e-24)
(1.00025 0.0066971 3.96891e-25)
(0.999419 0.00560435 4.73496e-24)
(1.00251 0.00586909 -7.77093e-24)
(1.00172 0.0061795 -3.5551e-24)
(0.998737 0.00484781 -9.68535e-24)
(0.998019 0.00207114 -3.11008e-24)
(0.997998 0.00250275 0)
(0.998017 0.00283812 -1.32983e-23)
(0.997951 0.00341996 -1.28346e-23)
(0.997994 0.00382702 7.65643e-24)
(0.997927 0.00428308 6.66383e-24)
(0.998685 0.00135068 3.46249e-22)
(0.998432 0.00152591 -7.92833e-24)
(0.998929 0.00122572 1.04219e-23)
(0.999115 0.00111151 5.79341e-24)
(0.999292 0.000968788 5.18485e-24)
(0.999426 0.000819512 -6.22268e-24)
(0.99955 0.000674537 3.07454e-22)
(0.999767 0.000299282 2.21766e-23)
(0.999672 0.000460594 1.68347e-22)
(0.99982 0.000136352 1.26347e-23)
(1.00083 -0.000578824 6.2758e-24)
(1.00103 -0.000552723 -8.37292e-25)
(1.00122 -0.000609743 -4.47185e-23)
(1.00173 -0.000691727 0)
(1.00199 -0.000802161 0)
(1.00226 -0.000893418 0)
(1.0027 -0.00102274 -1.4005e-23)
(1.00497 0.00378254 -5.95187e-22)
(1.00447 0.00507859 -1.10477e-22)
(1.00513 0.00211394 -4.87822e-23)
(1.00549 0.00273179 8.58112e-22)
(1.00331 0.00633207 -7.75624e-23)
(1.00406 -0.000693855 -4.0744e-23)
(1.00348 -0.00101839 2.04343e-22)
(1.00464 -0.000217247 9.14313e-22)
(1.00522 0.000203919 2.39297e-23)
(1.00542 0.00136572 8.07695e-24)
(1.00043 -0.000551295 9.00769e-24)
(1.00109 -0.00101031 5.21594e-21)
(1.00052 -0.000384441 7.65825e-24)
(1.00169 0.00708774 -3.69194e-23)
(1.00005 0.00746077 1.09879e-22)
(0.999652 0.00684188 9.07736e-25)
(0.999259 0.00633287 2.71922e-23)
(0.998869 0.00571583 1.06701e-23)
(0.998201 0.00487023 -9.21927e-24)
(0.998478 0.00527258 -9.37808e-22)
(0.997601 0.00192998 1.397e-22)
(0.997964 0.00175356 -3.09494e-24)
(0.997668 0.00269621 -1.24061e-23)
(0.997501 0.00362801 0)
(0.997573 0.00467621 6.30041e-24)
(0.998811 0.00110896 1.07147e-23)
(0.998176 0.00158373 0)
(0.998286 0.0012217 -2.62769e-23)
(0.999206 0.000929608 9.80845e-24)
(0.999497 0.000688329 -1.14292e-23)
(0.999561 0.000554454 -1.06033e-23)
(0.999692 0.000436905 -5.36821e-24)
(0.999888 6.99765e-05 0)
(1.00098 -0.000731069 -5.27468e-22)
(1.00145 -0.000722144 -1.1714e-23)
(1.00118 -0.000928823 -1.17447e-23)
(1.00159 -0.00100703 -1.21178e-23)
(1.00203 -0.00107732 0)
(1.00307 -0.00117721 1.47611e-22)
(1.00268 -0.00151837 -4.20385e-23)
(1.00509 0.00468915 -1.78859e-22)
(1.00574 0.00411846 1.9371e-23)
(1.00514 0.00540979 -8.44091e-24)
(1.00603 0.00336176 3.596e-23)
(1.00621 0.00249309 3.41507e-23)
(1.00314 0.00731007 6.43023e-24)
(1.00407 0.006783 6.88985e-24)
(1.00466 -0.00117139 -3.80056e-23)
(1.00348 -0.00147638 7.32432e-23)
(1.00561 0.000714647 3.00545e-23)
(1.00576 -7.05861e-05 2.31535e-23)
(1.00611 0.00126844 9.49011e-23)
(1.0001 -0.00134769 -8.9849e-21)
(1.00084 -0.000719128 1.78276e-23)
(1.00042 -0.000931689 -5.06686e-22)
(1.00232 0.00760504 2.16561e-24)
(1.00137 0.00790397 1.86346e-24)
(1.00055 0.00795817 1.00818e-25)
(0.999739 0.00829259 2.54657e-24)
(0.998878 0.00692301 8.64642e-23)
(0.998229 0.00589836 7.50032e-24)
(0.997219 0.001675 5.77915e-24)
(0.997212 0.00221221 1.64632e-23)
(0.99783 0.0013964 9.90769e-24)
(0.997318 0.00305311 -1.18879e-23)
(0.997275 0.00265001 9.01224e-23)
(0.997004 0.00348742 1.8102e-23)
(0.996915 0.00461314 -4.82761e-22)
(0.997159 0.00528915 5.24918e-24)
(0.998937 0.000915368 0)
(0.998723 0.000939785 1.41773e-23)
(0.998472 0.000922506 -4.49107e-22)
(0.998188 0.000891569 -2.53928e-23)
(0.999134 0.00084726 -5.68429e-24)
(0.999292 0.000767712 -9.14536e-26)
(0.999444 0.000654862 1.33463e-22)
(0.999744 0.000334542 0)
(0.999672 0.000443565 0)
(0.999705 0.000110438 0)
(1.00092 -0.00101064 -9.49357e-24)
(1.00126 -0.00123251 1.1296e-23)
(1.00105 -0.00112627 3.87708e-23)
(1.00174 -0.00124016 -1.27093e-23)
(1.00148 -0.00125696 -1.25032e-22)
(1.00197 -0.0014653 6.36598e-24)
(1.00227 -0.00181197 -3.38227e-22)
(1.00263 -0.00194849 7.08378e-22)
(1.00644 0.00408735 1.85673e-23)
(1.00497 0.00640006 0)
(1.0061 0.00595674 4.48808e-23)
(1.0065 0.00187645 -2.76501e-23)
(1.00709 0.00255181 0)
(1.00308 0.00854686 -2.03972e-24)
(1.0049 0.0076656 1.22419e-24)
(1.00471 -0.00180204 -1.66566e-23)
(1.00533 -0.00140011 1.5425e-22)
(1.00316 -0.00192724 -3.52315e-22)
(1.00357 -0.00194108 -1.13905e-21)
(1.00594 -0.00082019 5.05653e-22)
(1.00659 -0.000345583 4.42345e-23)
(1.00676 0.00118797 -6.89696e-23)
(1.00039 -0.000818984 -3.16355e-23)
(1.00116 0.00892226 0)
(0.999291 0.00916765 1.13002e-21)
(0.99897 0.00857884 2.47322e-24)
(0.998591 0.00775986 -4.5948e-24)
(0.998336 0.00688381 -1.94187e-23)
(0.997537 0.00591792 0)
(0.997991 0.00650878 -1.05843e-24)
(0.996766 0.00146709 -1.65524e-23)
(0.997171 0.00126404 -6.24658e-24)
(0.996807 0.00240803 1.04627e-23)
(0.997853 0.000989121 9.86971e-24)
(0.997547 0.00113745 -1.87337e-22)
(0.996697 0.00407979 -1.85105e-22)
(0.99651 0.00336151 2.6879e-23)
(0.996261 0.00454897 4.8717e-23)
(0.996703 0.00588606 0)
(0.99909 0.000743673 -5.82894e-24)
(0.998657 0.000729376 4.33237e-23)
(0.997964 0.00068383 5.38189e-24)
(0.99941 0.000614717 5.55848e-24)
(0.999547 0.000476536 0)
(0.999688 0.000375847 0)
(0.999829 -1.34736e-05 0)
(1.00089 -0.00110572 2.13613e-21)
(1.00061 -0.000982536 -1.38425e-24)
(1.00136 -0.00147425 4.64208e-24)
(1.00095 -0.00131877 1.5246e-23)
(1.00185 -0.00189294 1.15725e-23)
(1.00275 -0.0023303 2.05702e-23)
(1.00729 0.0036063 1.76866e-23)
(1.00721 0.00440371 3.19866e-22)
(1.00705 0.00550152 -1.16499e-22)
(1.00693 0.00664574 -3.6028e-22)
(1.00793 0.00276267 2.1384e-23)
(1.00264 0.00977823 6.88843e-23)
(1.00384 0.00938675 -2.90075e-24)
(1.00479 0.00879411 1.17034e-23)
(1.00588 0.00815153 8.59028e-25)
(1.00413 -0.00221796 -3.09995e-23)
(1.00473 -0.00268963 1.89017e-23)
(1.0061 -0.00179932 2.95257e-22)
(1.00354 -0.00265812 4.27138e-24)
(1.00705 0.000405299 1.59852e-23)
(1.0074 -0.000493776 -2.53108e-22)
(1.00761 0.00120651 -3.44328e-23)
(1.00046 -0.000679666 -1.54753e-21)
(1.00093 -0.00112766 -5.17167e-24)
(1.00037 0.00975608 -2.43169e-24)
(1.00144 0.00973925 1.90199e-24)
(0.999273 0.0102282 -5.3362e-25)
(0.998004 0.00870995 -1.55434e-23)
(0.99777 0.00704518 9.20907e-24)
(0.99651 0.00196715 -1.44042e-23)
(0.996297 0.00133091 4.1363e-22)
(0.997191 0.000822927 -7.26046e-24)
(0.996311 0.0024996 0)
(0.996193 0.00307715 1.32981e-23)
(0.995944 0.00355806 1.0101e-22)
(0.99585 0.00416566 -7.10654e-23)
(0.995737 0.00494197 -6.58303e-24)
(0.996069 0.00598042 0)
(0.996512 0.00658961 -8.56945e-24)
(0.999034 0.000589976 -8.01108e-23)
(0.999226 0.000585061 -1.16771e-23)
(0.998838 0.000554125 3.09193e-23)
(0.99859 0.000517199 1.5235e-23)
(0.998122 0.000292667 5.73384e-24)
(0.997715 0.000229245 1.92195e-24)
(0.99939 0.000514348 -5.81309e-24)
(0.999702 0.000263337 0)
(0.99961 0.000366454 -1.10171e-23)
(0.999602 5.19576e-05 -9.45291e-24)
(1.00025 -0.00091261 1.50528e-23)
(1.00149 -0.00182004 -4.65202e-24)
(1.00117 -0.00177703 3.79573e-23)
(1.00087 -0.00162695 2.12996e-24)
(1.00057 -0.00141034 1.1891e-22)
(1.00163 -0.00212452 6.0513e-24)
(1.00307 -0.00288972 3.39718e-23)
(1.00253 -0.00273958 -1.345e-23)
(1.00838 0.0050117 -3.8616e-23)
(1.00675 0.00754189 -3.33437e-23)
(1.00784 0.00718528 3.17346e-23)
(1.00821 0.0017135 -7.55378e-22)
(1.009 0.00269607 1.28868e-23)
(1.00204 0.0109246 1.29647e-23)
(1.00468 0.0102735 -1.26123e-23)
(1.00675 0.0090133 0)
(1.00461 -0.00345005 2.1675e-22)
(1.00539 -0.00309635 -7.10013e-23)
(1.0061 -0.0026226 2.7207e-23)
(1.00688 -0.00210618 7.39828e-25)
(1.00336 -0.00320165 -7.34523e-22)
(1.00828 -0.000173547 -4.39282e-23)
(1.00792 -0.000999435 5.31286e-23)
(1.00843 0.000815516 -2.90465e-23)
(1.00033 -0.00177026 -4.94471e-21)
(0.999488 0.0115526 4.18727e-23)
(0.99821 0.0107972 9.83599e-24)
(0.997442 0.00800197 -4.4681e-24)
(0.997339 0.00884708 1.16452e-21)
(0.997053 0.00711933 1.33658e-22)
(0.995602 0.00135192 -6.20698e-23)
(0.996026 0.000828969 -2.53121e-22)
(0.997306 0.000303406 -7.01631e-24)
(0.996813 0.000422258 1.58613e-23)
(0.995708 0.00254437 -4.23758e-25)
(0.995385 0.00368952 -4.80331e-23)
(0.9955 0.00553282 -1.68917e-23)
(0.994796 0.00503268 -8.47172e-22)
(0.995209 0.00623552 3.47929e-23)
(0.996222 0.00751936 -2.91742e-23)
(0.999056 0.000407963 -6.09208e-24)
(0.999358 0.000428641 -6.18219e-23)
(0.998458 0.000318801 0)
(0.998667 0.000276821 -6.68341e-24)
(0.998314 6.81165e-06 -1.0492e-24)
(0.997525 -5.45992e-05 -5.85516e-24)
(0.999504 0.000335099 8.20881e-23)
(0.999652 0.000274759 -1.09682e-23)
(0.999776 -0.000130574 -9.48695e-24)
(1.00037 -0.00112816 1.25198e-23)
(1.00052 -0.00116565 -8.16455e-24)
(1.0009 -0.00191216 1.7953e-24)
(1.00022 -0.00143157 -5.8528e-22)
(1.00132 -0.00236604 -3.9201e-23)
(1.00166 -0.00255608 -5.4441e-23)
(1.00198 -0.00279802 1.4102e-24)
(1.00229 -0.00339285 -9.14808e-22)
(1.00953 0.00453191 -3.50533e-23)
(1.00924 0.00593704 -1.41031e-22)
(1.00884 0.00706161 -2.01974e-22)
(1.00859 0.00809953 2.50562e-22)
(1.00985 0.00338366 -9.79607e-23)
(1.01012 0.00198375 1.28135e-23)
(1.00081 0.0119447 3.94064e-23)
(1.00242 0.0122485 -5.28312e-22)
(1.00475 0.011616 -2.46124e-22)
(1.00603 0.0108244 -9.11223e-24)
(1.00805 0.00928444 -1.50562e-23)
(1.00693 0.0100403 0)
(1.00392 -0.00374445 -3.90826e-23)
(1.00431 -0.00423928 -9.32878e-24)
(1.00601 -0.00366984 -1.67081e-22)
(1.00766 -0.00176843 2.65576e-23)
(1.00744 -0.00286709 6.55376e-23)
(1.00319 -0.00397048 -2.35696e-23)
(1.00913 0.000303518 -2.62807e-25)
(1.00862 -0.001743 -9.31519e-25)
(1.00114 -0.00190977 -1.91076e-23)
(0.999744 0.0131275 -3.62347e-24)
(0.997201 0.0103868 -1.83098e-22)
(0.997391 0.0117737 6.02274e-24)
(0.996451 0.00863494 -1.08118e-24)
(0.996791 0.00942714 1.09404e-22)
(0.995324 0.00205152 3.06983e-22)
(0.99493 0.00134258 -4.90473e-23)
(0.996302 0.000473374 -5.14893e-23)
(0.995778 0.000280666 5.13662e-24)
(0.996583 -0.000172272 1.48054e-23)
(0.994983 0.00273541 -5.84708e-22)
(0.994632 0.00408664 -4.20886e-22)
(0.994862 0.00340179 -1.08583e-22)
(0.994087 0.00468138 -4.23045e-23)
(0.99435 0.00625956 -5.02731e-22)
(0.994808 0.00728278 5.4067e-23)
(0.995474 0.00810141 9.06247e-22)
(0.99908 0.000274601 0)
(0.999228 0.000329039 0)
(0.999372 0.00031036 1.54154e-23)
(0.998966 0.000156022 -6.63782e-24)
(0.998793 -5.48436e-05 1.43694e-23)
(0.998529 -0.000210992 5.35305e-24)
(0.998261 -0.000316097 -9.19966e-24)
(0.997276 -0.000469911 0)
(0.997564 -0.000342637 3.50667e-23)
(0.999648 0.00019639 0)
(0.999569 0.000229532 0)
(0.999486 -3.90537e-05 9.95612e-24)
(1.00064 -0.00191334 7.56347e-23)
(1.00084 -0.00212832 1.13103e-23)
(1.0004 -0.00174655 -1.31095e-21)
(1.00041 -0.00180342 -6.26824e-24)
(1.001 -0.00231364 -5.35967e-22)
(1.00107 -0.00268244 5.10973e-23)
(1.00152 -0.00301168 4.56153e-23)
(1.00255 -0.00410745 -1.61378e-23)
(1.00182 -0.00393163 1.28452e-21)
(1.01096 0.00422165 -2.73124e-23)
(1.01017 0.00686895 5.25671e-22)
(1.0095 0.00941214 -1.53505e-23)
(1.01015 0.000770093 -6.26778e-23)
(1.01123 0.00128609 -4.98109e-22)
(1.0037 0.0124772 1.84312e-24)
(1.00249 0.0137461 -2.63279e-24)
(1.00526 0.0132234 3.1306e-23)
(1.0073 0.0112675 1.6944e-23)
(1.00402 -0.00516987 -2.33364e-22)
(1.00502 -0.00476615 -1.5216e-23)
(1.00585 -0.0044857 2.15054e-22)
(1.00672 -0.00414391 2.99988e-23)
(1.00756 -0.00365697 1.89903e-21)
(1.00837 -0.00328008 3.00282e-23)
(1.0029 -0.00462888 0)
(1.01012 -0.000433369 -2.49314e-22)
(1.00918 -0.00253372 -5.96461e-23)
(1.00962 -0.00174784 -3.11435e-22)
(1.00019 -0.00240257 8.66987e-21)
(0.998527 0.0140786 3.59129e-23)
(0.999983 0.014523 9.05948e-22)
(0.995836 0.0100871 -1.76269e-23)
(0.997209 0.0130783 -6.85559e-24)
(0.995997 0.0124062 -9.52657e-24)
(0.994176 0.0016134 8.1437e-23)
(0.994611 0.000781194 6.56169e-22)
(0.995854 -0.000426073 2.62789e-23)
(0.995333 2.92215e-06 -2.75467e-22)
(0.996984 -0.000760651 0)
(0.996436 -0.000846934 -1.48836e-25)
(0.994332 0.00281302 5.81478e-23)
(0.993353 0.00515169 -8.38355e-23)
(0.993204 0.00416271 1.68926e-23)
(0.993654 0.00585432 -6.42782e-23)
(0.993521 0.00702159 -2.09367e-23)
(0.99462 0.00833736 -1.56313e-22)
(0.999138 7.25786e-05 0)
(0.999317 0.000187611 0)
(0.998832 -0.000273699 6.92598e-24)
(0.997933 -0.000607599 1.94987e-21)
(0.998344 -0.000751776 -5.55318e-22)
(0.997354 -0.000918979 3.86082e-23)
(0.997627 -0.000855445 8.14191e-23)
(0.999451 5.44124e-05 0)
(0.999729 4.53503e-05 1.11409e-23)
(0.999733 -0.000266579 8.25789e-25)
(1.00032 -0.00199492 1.2703e-23)
(1.00069 -0.00239589 1.29347e-23)
(1.00102 -0.00264487 7.56734e-21)
(1.0012 -0.00310162 2.33399e-23)
(1.00076 -0.00298776 -4.74042e-22)
(1.00134 -0.00332219 2.52086e-22)
(1.00142 -0.00368097 5.83256e-23)
(1.00149 -0.00412887 -6.88451e-22)
(1.0118 0.00517547 1.41457e-22)
(1.01214 0.00379837 1.1527e-25)
(1.01151 0.0064151 -1.44145e-22)
(1.01138 0.00806785 1.36239e-22)
(1.0109 0.00968989 -7.7442e-24)
(1.00992 0.0107717 -4.40765e-23)
(1.01229 0.00237939 2.62584e-22)
(1.01232 0.000562629 -3.12289e-23)
(1.00137 0.0146348 -1.1482e-24)
(1.00282 0.0152917 -4.96578e-23)
(1.00556 0.0147864 1.17054e-24)
(1.00668 0.013731 -1.7918e-23)
(1.00878 0.0114454 -2.30424e-23)
(1.00766 0.0126627 1.36306e-22)
(1.00428 -0.00644509 -1.82393e-23)
(1.00321 -0.00584077 -4.28066e-24)
(1.00551 -0.005537 -1.83861e-23)
(1.0075 -0.00471771 -1.51999e-23)
(1.00918 -0.00372774 8.93696e-22)
(1.00265 -0.00531026 0)
(1.00231 -0.00488127 0)
(1.0109 -0.00154682 5.93497e-22)
(0.996915 0.0147624 3.59894e-22)
(1.00018 0.0163526 1.33922e-22)
(0.995035 0.011226 -1.02442e-23)
(0.994669 0.00995822 2.69923e-23)
(0.994476 0.0124075 3.83027e-22)
(0.993877 0.00221667 -2.69997e-22)
(0.9934 0.00161176 -2.56019e-22)
(0.994737 0.000277371 6.80607e-23)
(0.994026 0.00040684 3.31594e-23)
(0.996104 -0.00116527 3.71601e-23)
(0.994898 -0.000397747 7.26219e-24)
(0.993383 0.00302412 1.55951e-23)
(0.992676 0.0056475 -2.52749e-23)
(0.992436 0.00333617 3.59485e-23)
(0.99365 0.00810996 -1.04828e-22)
(0.992702 0.00757885 -1.04315e-23)
(0.994001 0.0089658 -1.13539e-21)
(0.999307 -4.1926e-07 0)
(0.999206 -4.87964e-05 1.41479e-24)
(0.999064 -0.000324345 -1.7721e-24)
(0.998873 -0.000522446 -7.18249e-25)
(0.998689 -0.000763225 1.88058e-22)
(0.998459 -0.0010755 -7.20221e-25)
(0.997475 -0.00106721 3.63458e-22)
(0.999691 3.41078e-05 1.87055e-24)
(0.999757 0.000167777 3.46811e-22)
(0.999356 -0.000185603 -1.81617e-21)
(1.00039 -0.00234595 -1.08096e-23)
(1.00018 -0.00221766 8.40245e-22)
(1.00052 -0.00251091 8.96728e-24)
(1.00011 -0.00275824 3.49408e-24)
(1.00048 -0.00275819 -1.77916e-22)
(1.0005 -0.00302312 2.71212e-22)
(1.00102 -0.00346979 -1.13182e-23)
(1.00124 -0.00451499 1.32469e-21)
(1.00088 -0.00416863 -2.85382e-22)
(1.01295 0.00616334 -5.47682e-22)
(1.01357 0.00335058 -1.30531e-23)
(1.01247 0.00955262 -7.32526e-24)
(1.01044 0.0121266 -8.69228e-22)
(1.01306 -0.000541936 -4.86588e-23)
(1.01404 0.00069422 -1.46782e-22)
(1.00427 0.0159141 2.84786e-24)
(1.00284 0.0171958 1.29079e-22)
(1.00608 0.0168797 -9.65685e-24)
(1.00818 0.0142798 5.86641e-24)
(1.00523 -0.00642362 5.01699e-22)
(1.0045 -0.00716523 -1.26653e-23)
(1.00257 -0.00587021 0)
(1.00621 -0.00623738 3.19954e-22)
(1.00722 -0.00569719 -3.00919e-22)
(1.00839 -0.00526028 -2.27723e-24)
(1.00937 -0.00498207 4.98851e-22)
(1.01042 -0.00426192 2.08865e-23)
(1.00181 -0.00498096 1.0289e-23)
(1.00222 -0.00547165 0)
(1.0123 -0.00164943 -2.34986e-23)
(1.01138 -0.00294039 -3.85405e-24)
(0.996467 0.0165078 3.75117e-22)
(0.995034 0.0150294 2.09528e-23)
(1.00138 0.0180887 -1.0699e-23)
(0.99935 0.0178206 1.13333e-21)
(0.993219 0.00985905 -1.37477e-23)
(0.993717 0.0137545 2.39327e-22)
(0.992772 0.012405 2.67663e-24)
(0.993394 0.000716741 9.89987e-24)
(0.992654 0.00130703 1.00351e-23)
(0.99345 9.12833e-05 -2.36198e-23)
(0.996021 -0.00165531 -1.45511e-22)
(0.995454 -0.00125973 2.35252e-23)
(0.994986 -0.000910866 2.25389e-23)
(0.994407 -0.00073375 -1.80494e-22)
(0.992094 0.00659205 -2.49432e-23)
(0.991759 0.00546268 0)
(0.991544 0.00382768 2.60427e-23)
(0.991854 0.00250368 -5.85311e-22)
(0.991676 0.00778907 4.13166e-22)
(0.999245 -0.000223255 -7.09422e-23)
(0.999398 -5.40524e-05 1.48846e-24)
(0.999217 -0.000474327 -1.63512e-24)
(0.998985 -0.000803049 -3.99409e-22)
(0.998327 -0.00145003 -4.07256e-24)
(0.998725 -0.00142828 1.27236e-23)
(0.997788 -0.00143826 -2.63682e-23)
(0.997252 -0.00156715 1.12357e-22)
(0.999572 0.000108366 -1.01357e-23)
(0.999612 -4.01505e-05 -9.45824e-24)
(0.999746 -0.000492598 7.21931e-24)
(1.00049 -0.00229351 2.24293e-23)
(1.00028 -0.00243756 9.08451e-24)
(1.0004 -0.00264759 8.94106e-24)
(1.0011 -0.00336074 1.06733e-20)
(1.00041 -0.00309409 2.45808e-24)
(1.00037 -0.002967 1.07139e-23)
(1.00074 -0.00379731 6.3244e-24)
(1.00074 -0.00341337 6.65025e-22)
(1.00101 -0.00511194 1.51352e-23)
(1.0005 -0.00400126 1.63048e-22)
(1.01419 0.00734746 -1.19602e-23)
(1.01449 0.00527841 -6.72617e-23)
(1.01472 0.00258947 3.02969e-23)
(1.01476 0.00384319 -2.17337e-22)
(1.01409 0.00898643 -7.63698e-24)
(1.01384 0.0109035 7.11191e-24)
(1.00999 0.014259 8.39291e-23)
(1.01169 0.0132539 4.52466e-23)
(1.01376 -0.0019461 7.35544e-22)
(1.01573 0.00126378 3.24112e-23)
(1.00265 0.0189048 -6.64162e-24)
(1.00629 0.0187927 -2.77201e-24)
(1.00791 0.0176038 -3.86542e-23)
(1.00917 0.0156991 1.35017e-21)
(1.00374 -0.00774283 0)
(1.00511 -0.00816838 -2.70901e-23)
(1.00211 -0.00598443 -1.6074e-23)
(1.00707 -0.00676799 3.86556e-22)
(1.0091 -0.0060898 -2.44919e-24)
(1.01183 -0.00451237 2.50455e-22)
(0.99743 0.0177764 2.83124e-23)
(0.995245 0.0180373 1.10467e-22)
(0.992938 0.015196 1.45807e-23)
(0.998588 0.0199748 2.53536e-23)
(0.992363 0.0112261 -4.73522e-23)
(0.992078 0.00954367 4.50736e-22)
(0.991359 0.0121756 -1.03601e-22)
(0.991863 0.00173204 -3.76656e-23)
(0.991816 0.000576791 0)
(0.993736 -0.000664059 -4.95201e-23)
(0.992903 -0.000660001 2.9462e-22)
(0.995721 -0.0022789 -2.28695e-23)
(0.996344 -0.0020003 -3.53424e-23)
(0.994949 -0.00158204 0)
(0.993939 -0.00117988 6.02223e-24)
(0.991194 0.00456912 0)
(0.990539 0.00558165 0)
(0.990477 0.00366398 8.59908e-24)
(0.990963 0.00197833 -3.53914e-23)
(0.991337 0.0088056 -7.27382e-23)
(0.990474 0.00773119 -8.81045e-24)
(0.999626 -0.000176339 0)
(0.999437 -0.000566684 0)
(0.999266 -0.000715663 -1.38151e-23)
(0.999174 -0.000779537 5.10212e-22)
(0.999068 -0.000959392 -3.98583e-25)
(0.99822 -0.00188309 3.97061e-23)
(0.999046 -0.00125277 1.03242e-23)
(0.998995 -0.00161071 5.50322e-23)
(0.996917 -0.00194146 -9.6568e-24)
(0.997499 -0.00218801 -9.08037e-24)