/*--------------------------------*- C++ -*----------------------------------*\
| =========                 |                                                 |
| \\      /  F ield         | OpenFOAM: The Open Source CFD Toolbox           |
|  \\    /   O peration     | Version:  v2012                                 |
|   \\  /    A nd           | Website:  www.openfoam.com                      |
|    \\/     M anipulation  |                                                 |
\*---------------------------------------------------------------------------*/
FoamFile
{
    version     2.0;
    format      ascii;
    class       volScalarField;
    location    "4";
    object      yPlus;
}
// * * * * * * * * * * * * * * * * * * * * * * * * * * * * * * * * * * * * * //

dimensions      [0 0 0 0 0 0 0];


internalField   uniform 0;

boundaryField
{
    airfoil
    {
        type            calculated;
        value           nonuniform List<scalar> 
308
(
1.05098e-05
1.04304e-05
1.04129e-05
1.02752e-05
1.02687e-05
1.0209e-05
1.02078e-05
1.02294e-05
1.02314e-05
1.02803e-05
1.02893e-05
1.0296e-05
1.03355e-05
1.03018e-05
1.03161e-05
1.0287e-05
1.03073e-05
1.03157e-05
1.04234e-05
1.98704
1.9852
1.98437
1.98318
1.98227
1.98128
1.9804
1.97964
1.9789
1.97818
1.97758
1.97705
1.97663
1.97617
1.97581
1.97546
1.97512
1.97492
1.97479
1.97456
1.97437
1.97425
1.97412
1.97398
1.97389
1.97383
1.97369
1.97363
1.97357
1.97353
1.97366
1.97351
1.97339
1.9734
1.97326
1.97323
1.97337
1.97325
1.97309
1.97327
1.97323
8.46388e-05
6.49982e-05
1.01901e-05
1.01896e-05
1.01888e-05
1.01889e-05
1.01893e-05
1.01894e-05
1.01888e-05
1.01886e-05
1.01889e-05
1.01888e-05
1.01886e-05
1.01887e-05
1.01888e-05
1.01886e-05
1.01886e-05
1.01885e-05
1.01885e-05
1.0189e-05
1.01893e-05
1.01891e-05
1.01887e-05
1.01883e-05
1.01884e-05
1.01886e-05
1.01888e-05
1.01885e-05
1.01885e-05
1.01888e-05
1.01887e-05
1.01881e-05
1.01885e-05
1.01889e-05
1.01885e-05
1.01883e-05
1.01884e-05
1.01881e-05
1.01887e-05
1.01889e-05
1.01882e-05
1.01881e-05
1.01888e-05
1.01891e-05
1.01886e-05
1.01886e-05
1.01884e-05
1.01887e-05
1.01891e-05
1.01891e-05
1.01885e-05
1.01891e-05
1.0189e-05
1.01884e-05
1.0189e-05
1.0189e-05
1.0189e-05
1.01879e-05
1.01891e-05
1.01891e-05
1.01882e-05
1.01892e-05
1.01882e-05
1.01889e-05
1.01882e-05
1.01869e-05
1.01891e-05
1.01896e-05
1.01871e-05
1.01898e-05
1.01886e-05
1.01905e-05
1.01867e-05
1.01898e-05
1.01886e-05
1.01886e-05
1.01882e-05
1.01882e-05
1.01911e-05
1.01855e-05
1.01915e-05
1.0185e-05
1.02384e-05
1.02384e-05
1.0495e-05
1.05169e-05
1.09726e-05
1.10944e-05
1.1027e-05
1.10222e-05
1.12309e-05
1.12095e-05
1.07665e-05
1.07718e-05
1.07712e-05
1.07608e-05
1.12168e-05
1.12314e-05
1.10215e-05
1.05099e-05
1.04299e-05
1.04129e-05
1.02746e-05
1.02695e-05
1.02084e-05
1.0208e-05
1.02293e-05
1.02315e-05
1.028e-05
1.02899e-05
1.02957e-05
1.03356e-05
1.03018e-05
1.03161e-05
1.02867e-05
1.02851e-05
1.02729e-05
1.02636e-05
1.02613e-05
1.02517e-05
1.02474e-05
1.02409e-05
1.02363e-05
1.02313e-05
1.02267e-05
1.02226e-05
1.02186e-05
1.02148e-05
1.02121e-05
1.02093e-05
1.02067e-05
1.02047e-05
1.02031e-05
1.02017e-05
1.02004e-05
1.01991e-05
1.01979e-05
1.01972e-05
1.01957e-05
1.01944e-05
1.0194e-05
1.01937e-05
1.01937e-05
1.0193e-05
1.01922e-05
1.01918e-05
1.01918e-05
1.01916e-05
1.0191e-05
1.0191e-05
1.01908e-05
1.01906e-05
1.01907e-05
1.01906e-05
1.019e-05
1.01896e-05
1.01896e-05
1.01896e-05
7.8171e-05
0.000100552
1.97314
1.97317
1.97312
1.97318
1.97326
1.97321
1.97313
1.97306
1.97306
1.97309
1.97309
1.973
1.97307
1.97316
1.97303
1.9729
1.97295
1.97299
1.97287
1.97296
1.97302
1.97309
1.97306
1.97299
1.97291
1.97291
1.97309
1.97315
1.97313
1.97304
1.97294
1.97302
1.97311
1.46087e-05
1.01888e-05
1.01893e-05
1.01888e-05
1.0188e-05
1.01879e-05
1.01878e-05
1.01875e-05
1.01879e-05
1.01883e-05
1.01884e-05
1.01886e-05
1.01883e-05
1.01881e-05
1.01887e-05
1.01893e-05
1.01882e-05
1.01878e-05
1.01884e-05
1.01891e-05
1.01883e-05
1.0187e-05
1.01872e-05
1.01883e-05
1.01894e-05
1.01889e-05
1.01881e-05
1.01876e-05
1.01886e-05
1.01897e-05
1.01894e-05
1.01885e-05
1.01897e-05
1.0187e-05
1.01895e-05
1.01884e-05
1.01899e-05
1.01894e-05
1.01867e-05
1.01899e-05
1.01882e-05
1.01877e-05
1.0191e-05
1.01862e-05
1.01874e-05
1.01869e-05
1.01909e-05
1.01888e-05
1.02365e-05
1.024e-05
1.04916e-05
1.05145e-05
1.09735e-05
1.10924e-05
1.10223e-05
)
;
    }
    freestream
    {
        type            calculated;
        value           uniform 0;
    }
    BaseAndTop
    {
        type            empty;
    }
}


// ************************************************************************* //
