/*--------------------------------*- C++ -*----------------------------------*\
| =========                 |                                                 |
| \\      /  F ield         | OpenFOAM: The Open Source CFD Toolbox           |
|  \\    /   O peration     | Version:  v2012                                 |
|   \\  /    A nd           | Website:  www.openfoam.com                      |
|    \\/     M anipulation  |                                                 |
\*---------------------------------------------------------------------------*/
FoamFile
{
    version     2.0;
    format      ascii;
    class       volVectorField;
    location    "0.22";
    object      cellDisplacement;
}
// * * * * * * * * * * * * * * * * * * * * * * * * * * * * * * * * * * * * * //

dimensions      [0 1 0 0 0 0 0];


internalField   nonuniform List<vector> 
11961
(
(2.53695e-06 9.06154e-05 0)
(6.83206e-06 0.000226354 0)
(4.7508e-06 0.000191898 0)
(5.33368e-06 0.000150079 0)
(1.1866e-05 0.000418963 0)
(2.22867e-06 9.77514e-05 0)
(9.23087e-06 0.000370583 0)
(1.41691e-05 0.000384457 0)
(1.81906e-05 0.000623982 0)
(3.32427e-06 0.000170369 0)
(1.13045e-05 0.000495526 0)
(2.22784e-05 0.00067818 0)
(1.72158e-05 0.00042266 0)
(2.0485e-05 0.000799496 0)
(6.43512e-06 0.000338554 0)
(1.32354e-06 7.19034e-05 0)
(9.72507e-06 0.000478678 0)
(1.64944e-05 0.000711763 0)
(3.21256e-05 0.000968654 0)
(3.27762e-05 0.000794462 0)
(8.19454e-06 0.000180834 0)
(2.66592e-05 0.00105854 0)
(5.8576e-06 0.000354344 0)
(1.98174e-06 0.000122996 0)
(1.18618e-05 0.00065915 0)
(1.56748e-05 0.000811366 0)
(3.96594e-05 0.00105066 0)
(3.42405e-05 0.00118142 0)
(3.91722e-05 0.000840337 0)
(2.29327e-05 0.000465081 0)
(2.46231e-05 0.00118709 0)
(7.22854e-06 0.000483158 0)
(3.84386e-06 0.000243701 0)
(7.64627e-07 4.99267e-05 0)
(9.95027e-06 0.000642519 0)
(1.8184e-05 0.00101696 0)
(5.42237e-05 0.0014238 0)
(4.31072e-05 0.00151764 0)
(5.7157e-05 0.00118397 0)
(2.28084e-05 0.000415985 0)
(2.86578e-05 0.00146313 0)
(5.94213e-06 0.000468388 0)
(3.53604e-06 0.000259142 0)
(1.27336e-06 9.2162e-05 0)
(9.5753e-06 0.000756458 0)
(1.44612e-05 0.00108851 0)
(6.63482e-05 0.00151674 0)
(5.56297e-05 0.00167759 0)
(3.90818e-05 0.001672 0)
(6.60916e-05 0.0012053 0)
(4.93578e-05 0.000831538 0)
(8.18615e-06 0.00014301 0)
(2.29438e-05 0.00154717 0)
(4.39328e-06 0.000355614 0)
(5.98386e-06 0.00056388 0)
(2.4848e-06 0.000185843 0)
(9.43879e-07 7.00625e-05 0)
(1.08277e-05 0.000937014 0)
(7.35152e-06 0.00068674 0)
(1.54369e-05 0.00133284 0)
(8.75102e-05 0.00195541 0)
(6.81915e-05 0.00209642 0)
(4.42257e-05 0.00204403 0)
(8.89339e-05 0.00156723 0)
(5.7307e-05 0.000859892 0)
(1.10193e-05 0.000155345 0)
(2.41123e-05 0.00182521 0)
(3.40354e-06 0.000343584 0)
(4.37075e-06 0.000539968 0)
(2.05647e-06 0.000181689 0)
(3.27206e-07 2.44574e-05 0)
(1.4254e-06 0.000119147 0)
(6.35685e-06 0.000928916 0)
(5.66678e-06 0.000767408 0)
(1.00521e-05 0.00140642 0)
(0.000102658 0.00197636 0)
(8.86885e-05 0.00228694 0)
(6.01405e-05 0.00231047 0)
(3.3965e-05 0.00209683 0)
(0.000102653 0.00160713 0)
(8.92027e-05 0.00127942 0)
(3.41575e-05 0.000466687 0)
(1.51901e-05 0.00189043 0)
(2.37825e-06 0.000239598 0)
(3.40218e-06 0.000428566 0)
(3.78417e-06 0.000661984 0)
(4.33589e-07 3.65167e-05 0)
(9.20047e-07 8.13444e-05 0)
(3.7544e-06 0.00105403 0)
(9.21517e-06 0.00168828 0)
(4.81362e-06 0.00127492 0)
(0.000127594 0.00230458 0)
(0.000108826 0.00284581 0)
(6.70446e-05 0.00271724 0)
(2.91515e-05 0.00239248 0)
(0.000131111 0.00203553 0)
(0.000107091 0.00136025 0)
(4.23664e-05 0.000522846 0)
(1.46625e-05 0.00220629 0)
(1.66177e-06 0.000216945 0)
(2.06479e-06 0.000400586 0)
(1.52852e-06 0.000648787 0)
(1.20837e-07 9.79141e-06 0)
(7.52971e-07 7.40568e-05 0)
(-1.201e-06 0.000972354 0)
(2.55169e-07 0.00169675 0)
(-7.94504e-07 0.00142788 0)
(0.000144968 0.0027181 0)
(9.29499e-05 0.00304749 0)
(0.000138326 0.00305169 0)
(5.41643e-05 0.00290583 0)
(3.50207e-05 0.00274144 0)
(0.000156754 0.00219507 0)
(8.31936e-05 0.000985558 0)
(0.000148486 0.00183143 0)
(1.85399e-05 0.000208767 0)
(4.96438e-06 0.00230361 0)
(1.53214e-06 0.000288018 0)
(1.11034e-06 0.000143048 0)
(1.18519e-06 0.000490901 0)
(-8.70758e-07 0.00077367 0)
(9.2733e-08 8.19991e-06 0)
(8.45952e-07 9.77025e-05 0)
(3.40276e-07 3.16336e-05 0)
(-6.46196e-06 0.00111926 0)
(-7.58158e-06 0.00191813 0)
(-6.9079e-06 0.0013605 0)
(0.000180482 0.00295906 0)
(9.28435e-05 0.00349781 0)
(0.000166966 0.00359918 0)
(6.37198e-05 0.0033536 0)
(1.96874e-05 0.00303065 0)
(0.000190247 0.00268429 0)
(8.86449e-05 0.000922555 0)
(0.00017722 0.00197076 0)
(4.39193e-05 0.000446949 0)
(-6.15842e-06 0.00217055 0)
(-2.73688e-07 0.00257761 0)
(6.09733e-07 0.000242194 0)
(4.78372e-07 9.41586e-05 0)
(-2.95339e-07 0.000441773 0)
(-3.45469e-06 0.000684809 0)
(3.83814e-07 4.76068e-05 0)
(1.67743e-07 1.7626e-05 0)
(-1.14958e-05 0.00106763 0)
(-1.64004e-05 0.00179467 0)
(-1.40479e-05 0.00151349 0)
(0.000201097 0.00345252 0)
(0.000107867 0.00394389 0)
(0.000171239 0.0041221 0)
(4.83686e-05 0.0036675 0)
(2.36692e-05 0.00349914 0)
(1.80282e-06 0.00287929 0)
(0.000233594 0.00289753 0)
(0.000125968 0.00121994 0)
(0.000227919 0.0025109 0)
(0.000168594 0.00168262 0)
(2.68878e-05 0.000243423 0)
(-1.4087e-05 0.00241043 0)
(3.77376e-07 0.000123055 0)
(-7.28718e-08 0.000304671 0)
(1.91594e-07 3.1241e-05 0)
(-2.06444e-06 0.000515417 0)
(-7.14796e-06 0.000731179 0)
(-1.08485e-05 0.000886553 0)
(-1.97225e-05 0.00124618 0)
(-2.80988e-05 0.00188941 0)
(-2.13433e-05 0.00145006 0)
(0.000248353 0.00379797 0)
(0.000139093 0.00424795 0)
(8.52613e-05 0.0043072 0)
(0.0002251 0.00468057 0)
(5.6525e-05 0.00416349 0)
(8.41214e-07 0.00383221 0)
(-1.73173e-05 0.0031535 0)
(0.000275648 0.00347468 0)
(0.000119732 0.00101204 0)
(0.000258183 0.00250046 0)
(0.000214983 0.00196671 0)
(6.31986e-05 0.000521385 0)
(-2.71006e-05 0.00254614 0)
(1.16125e-08 5.89479e-05 0)
(-8.20189e-07 0.000244582 0)
(-2.93169e-06 0.000435665 0)
(-7.08384e-06 0.000580099 0)
(-1.56475e-05 0.000858869 0)
(-2.50432e-05 0.00117152 0)
(-3.02586e-05 0.00164128 0)
(-3.73778e-05 0.00212311 0)
(0.000271495 0.00442222 0)
(0.000133097 0.00502859 0)
(9.28413e-05 0.00492836 0)
(0.000229611 0.00544007 0)
(3.10891e-05 0.00462885 0)
(-2.02024e-05 0.00360443 0)
(-4.81292e-08 0.00443409 0)
(-3.2365e-05 0.00295609 0)
(0.000342685 0.00375953 0)
(0.000167055 0.00131588 0)
(0.000307452 0.00279876 0)
(0.00021725 0.00180037 0)
(3.77006e-05 0.000274887 0)
(-3.83895e-05 0.00240747 0)
(-3.56154e-07 0.000121082 0)
(-1.93881e-06 0.000305232 0)
(-4.76427e-06 0.00046054 0)
(-9.76571e-06 0.000579754 0)
(-1.37504e-05 0.000699159 0)
(-2.14897e-05 0.000975298 0)
(-3.39214e-05 0.00126805 0)
(-4.01158e-05 0.00165119 0)
(-4.95353e-05 0.00207229 0)
(0.00033685 0.00481046 0)
(0.000165043 0.00564354 0)
(4.9744e-05 0.00523871 0)
(0.000293871 0.00599503 0)
(-4.80123e-05 0.00386145 0)
(-3.65965e-05 0.00475613 0)
(-5.37507e-05 0.00316586 0)
(0.000356864 0.00335805 0)
(0.000385611 0.00443197 0)
(0.000176629 0.00125055 0)
(0.00032152 0.00251329 0)
(0.000271328 0.00206126 0)
(7.08691e-05 0.000468896 0)
(-5.78666e-05 0.00262851 0)
(-4.1678e-07 6.08321e-05 0)
(-2.4549e-06 0.000249625 0)
(-4.20199e-06 0.000337602 0)
(-8.26683e-06 0.000437179 0)
(-1.66095e-05 0.000666954 0)
(-2.5189e-05 0.000913193 0)
(-3.6485e-05 0.001148 0)
(-4.08959e-05 0.00146634 0)
(-4.97811e-05 0.00185669 0)
(-6.37511e-05 0.00224558 0)
(0.000357503 0.00557061 0)
(0.000139867 0.00657772 0)
(2.82222e-05 0.0058872 0)
(0.000291866 0.00691753 0)
(-5.9304e-05 0.0043555 0)
(-6.39533e-05 0.00358248 0)
(-5.36112e-05 0.0053662 0)
(-6.53586e-05 0.00295427 0)
(0.000422737 0.00343139 0)
(0.000460193 0.00475413 0)
(0.000134896 0.000890003 0)
(0.000250738 0.00171853 0)
(0.000387375 0.00282581 0)
(3.34695e-05 0.000197046 0)
(-6.91126e-05 0.00248631 0)
(-1.35601e-06 0.000130838 0)
(-5.28201e-06 0.000322136 0)
(-1.00712e-05 0.000431865 0)
(-1.40921e-05 0.000539968 0)
(-2.17716e-05 0.000763092 0)
(-3.16757e-05 0.00099204 0)
(-4.4474e-05 0.00120335 0)
(-5.07105e-05 0.00148593 0)
(-6.19365e-05 0.00189631 0)
(-7.14761e-05 0.00212119 0)
(0.000436895 0.00595546 0)
(0.000198893 0.00733767 0)
(6.14862e-05 0.00666066 0)
(-3.14435e-05 0.00591494 0)
(0.000379099 0.00739246 0)
(-9.42551e-05 0.00451899 0)
(-9.35338e-05 0.00375559 0)
(-0.000100454 0.00543899 0)
(-8.73317e-05 0.00310657 0)
(0.000502025 0.00390467 0)
(0.000522831 0.00452071 0)
(0.00048777 0.00548031 0)
(0.000157582 0.000924197 0)
(0.000282982 0.00174594 0)
(0.000416367 0.00266793 0)
(8.82626e-05 0.000486855 0)
(-8.65307e-05 0.00264293 0)
(-1.17896e-06 7.22829e-05 0)
(-3.35151e-06 0.000174327 0)
(-8.42691e-06 0.000320914 0)
(-1.57423e-05 0.00050364 0)
(-2.44664e-05 0.000719513 0)
(-3.41894e-05 0.000925972 0)
(-5.0339e-05 0.00134079 0)
(-4.67848e-05 0.00110279 0)
(-6.03546e-05 0.0016166 0)
(-6.57957e-05 0.00178267 0)
(-8.62591e-05 0.0022048 0)
(0.000459804 0.00680258 0)
(0.000172629 0.008446 0)
(-4.79318e-07 0.00755245 0)
(-6.98977e-05 0.00657311 0)
(0.000383649 0.0083797 0)
(-0.000109266 0.00416903 0)
(-0.000113099 0.00498758 0)
(-0.000101969 0.0034615 0)
(-0.000133668 0.00601179 0)
(-9.39741e-05 0.00291252 0)
(0.000563152 0.00363463 0)
(0.000613089 0.00506577 0)
(0.000580878 0.00570803 0)
(0.000222889 0.00126444 0)
(0.000360957 0.00214075 0)
(0.000504559 0.00301944 0)
(9.02412e-05 0.000451304 0)
(-9.77686e-05 0.00258206 0)
(-4.21212e-06 0.000176747 0)
(-1.1415e-05 0.00036711 0)
(-2.04166e-05 0.000582904 0)
(-3.01587e-05 0.000797981 0)
(-4.10954e-05 0.00097762 0)
(-5.96979e-05 0.00138817 0)
(-5.47697e-05 0.00116275 0)
(-6.62028e-05 0.00153759 0)
(-8.03547e-05 0.00188147 0)
(-8.96226e-05 0.00206213 0)
(-9.79855e-05 0.00240817 0)
(0.000562068 0.00707231 0)
(7.59754e-05 0.00882904 0)
(0.000275419 0.00903638 0)
(4.833e-06 0.00839827 0)
(-6.44229e-05 0.00727564 0)
(-0.000122961 0.00652961 0)
(0.000502618 0.00870856 0)
(-0.000141196 0.00431019 0)
(-0.000149445 0.00506066 0)
(-0.000124528 0.00351796 0)
(-0.000175773 0.00597212 0)
(-0.000114647 0.003019 0)
(0.000658318 0.00390642 0)
(0.000713868 0.00510917 0)
(0.000630383 0.00639429 0)
(0.000246948 0.00125454 0)
(0.00038337 0.00201141 0)
(0.00053351 0.00275217 0)
(3.24188e-05 0.000155703 0)
(0.000175675 0.000828596 0)
(-0.000115803 0.00281333 0)
(-2.08641e-06 7.52944e-05 0)
(-1.11864e-05 0.000308383 0)
(-2.19589e-05 0.000544334 0)
(-3.35601e-05 0.000768908 0)
(-4.12754e-05 0.000882573 0)
(-6.11281e-05 0.00130574 0)
(-5.93294e-05 0.00113122 0)
(-7.69757e-05 0.00162268 0)
(-8.41113e-05 0.00178476 0)
(-0.000104838 0.00214089 0)
(-0.000116734 0.00247314 0)
(0.000598307 0.00794375 0)
(3.33791e-05 0.00991435 0)
(0.00026907 0.01013 0)
(-8.59148e-05 0.00918972 0)
(-0.000133792 0.00775251 0)
(-0.000163077 0.00717919 0)
(0.000519151 0.00981878 0)
(-0.000158826 0.00471302 0)
(-0.000156102 0.0040796 0)
(-0.00017556 0.0054772 0)
(-0.000145929 0.00376393 0)
(-0.000127319 0.00324882 0)
(-0.000217584 0.0063941 0)
(0.000733158 0.0045374 0)
(0.000706144 0.00352372 0)
(0.000794655 0.00582231 0)
(0.000736585 0.0064731 0)
(0.000323895 0.00158157 0)
(0.000463999 0.00227945 0)
(0.000636541 0.00299247 0)
(3.6005e-05 0.000143301 0)
(0.000193534 0.000819013 0)
(-0.000129096 0.00281779 0)
(-5.57764e-06 0.000159234 0)
(-1.66233e-05 0.000401936 0)
(-2.89137e-05 0.000644966 0)
(-4.77715e-05 0.000902619 0)
(-7.01193e-05 0.00134787 0)
(-5.7212e-05 0.00102854 0)
(-6.87915e-05 0.00124188 0)
(-8.16842e-05 0.00156759 0)
(-9.75654e-05 0.0018707 0)
(-0.000107261 0.00202894 0)
(-0.000118477 0.00233484 0)
(-0.00012894 0.00264514 0)
(0.000731265 0.00804931 0)
(6.02947e-05 0.0107659 0)
(-7.1696e-05 0.0100306 0)
(0.00039358 0.0105429 0)
(0.000162371 0.0108778 0)
(-0.000154994 0.00910089 0)
(-0.000166241 0.00840266 0)
(-0.000216717 0.00734849 0)
(0.000678815 0.0100515 0)
(-0.000193006 0.00484056 0)
(-0.000187704 0.00426974 0)
(-0.000206649 0.00548391 0)
(-0.000161527 0.00364781 0)
(-0.00014755 0.00334807 0)
(-0.000235844 0.00693333 0)
(-0.000246953 0.00619242 0)
(0.000842753 0.00445507 0)
(0.000810478 0.00377856 0)
(0.000916081 0.00604885 0)
(0.000796056 0.00723422 0)
(0.000356687 0.00155798 0)
(0.000452071 0.00195139 0)
(0.000643725 0.00260987 0)
(0.000100833 0.000392286 0)
(0.00029086 0.00118129 0)
(-0.000143979 0.00295953 0)
(-3.45706e-06 8.46546e-05 0)
(-1.77579e-05 0.00038062 0)
(-3.04453e-05 0.000608432 0)
(-4.55021e-05 0.00079389 0)
(-7.80619e-05 0.00144749 0)
(-6.73457e-05 0.0010701 0)
(-7.65288e-05 0.00126882 0)
(-9.39099e-05 0.00166303 0)
(-0.000101407 0.0017933 0)
(-0.000123815 0.00211556 0)
(-0.000134615 0.00239509 0)
(-0.00014903 0.00276822 0)
(0.000793568 0.00896871 0)
(-6.71847e-05 0.0117233 0)
(-0.000138781 0.0110311 0)
(0.000359291 0.0118865 0)
(0.000185937 0.012204 0)
(-0.000246409 0.00984078 0)
(-0.000244794 0.00858516 0)
(-0.00026051 0.00806583 0)
(0.000706505 0.0113584 0)
(-0.000203521 0.00460983 0)
(-0.000211796 0.00517866 0)
(-0.000203913 0.00417119 0)
(-0.000235754 0.00579115 0)
(-0.000183266 0.00372934 0)
(-0.000160439 0.00328725 0)
(-0.000292569 0.00721394 0)
(-0.000289449 0.00647844 0)
(0.000955745 0.0047922 0)
(0.000904714 0.00367008 0)
(0.00100664 0.00553039 0)
(0.000930738 0.00701783 0)
(0.000523672 0.00207303 0)
(0.000738985 0.002668 0)
(0.000117408 0.000417385 0)
(0.000303102 0.00109747 0)
(-0.00015488 0.0029191 0)
(-0.000156713 0.00313204 0)
(-7.67754e-06 0.000157292 0)
(-2.45359e-05 0.00048386 0)
(-1.42411e-05 0.000283804 0)
(-3.73951e-05 0.000672352 0)
(-5.38809e-05 0.000836061 0)
(-8.87552e-05 0.00148053 0)
(-6.5591e-05 0.000977993 0)
(-7.72613e-05 0.00119446 0)
(-8.74946e-05 0.00139523 0)
(-9.82024e-05 0.0016024 0)
(-0.000114623 0.00187623 0)
(-0.000135417 0.00226877 0)
(-0.00012541 0.00202227 0)
(-0.000152284 0.00256645 0)
(-0.000159806 0.00273523 0)
(0.000953897 0.00871875 0)
(-9.89942e-05 0.0128863 0)
(-0.000233112 0.0112954 0)
(0.000484991 0.0125846 0)
(4.80322e-05 0.0133414 0)
(-0.000276595 0.0106491 0)
(-0.00029275 0.00934254 0)
(-0.000321118 0.00819596 0)
(0.000895455 0.0113625 0)
(-0.000234721 0.004755 0)
(-0.000245647 0.0053485 0)
(-0.000201203 0.00394704 0)
(-0.000234535 0.0043821 0)
(-0.000260628 0.00569885 0)
(-0.000184692 0.00351753 0)
(-0.000310707 0.00691732 0)
(-0.00032588 0.00771748 0)
(-0.000311585 0.00630239 0)
(0.00102875 0.00419876 0)
(0.000876832 0.00313586 0)
(0.00116192 0.0057378 0)
(0.00101592 0.00755983 0)
(0.000498959 0.00175639 0)
(0.000702111 0.00223104 0)
(0.000212834 0.00073214 0)
(4.50612e-05 0.000149854 0)
(0.000392601 0.00133494 0)
(-0.000170582 0.00310369 0)
(-3.98718e-06 7.2846e-05 0)
(-2.64795e-05 0.000465729 0)
(-1.9892e-05 0.000348633 0)
(-3.43943e-05 0.000571657 0)
(-5.0896e-05 0.000742712 0)
(-7.56221e-05 0.00102621 0)
(-8.98143e-05 0.00128603 0)
(-9.70799e-05 0.00141811 0)
(-0.000111851 0.00169724 0)
(-0.000119589 0.00182753 0)
(-0.000154296 0.00238267 0)
(-0.000140308 0.00208081 0)
(-0.000164723 0.00255148 0)
(-0.00018778 0.00294621 0)
(0.00106645 0.00922472 0)
(-0.000243024 0.0136568 0)
(-0.000314225 0.0123212 0)
(0.000418961 0.014174 0)
(1.55638e-05 0.0147488 0)
(-0.000377949 0.0112367 0)
(-0.000368695 0.00965469 0)
(-0.000371056 0.0087076 0)
(0.000957033 0.0125257 0)
(0.00105634 0.0102104 0)
(-0.000255852 0.00501483 0)
(-0.000245592 0.00459981 0)
(-0.00026124 0.00525005 0)
(-0.00023272 0.00404987 0)
(-0.000252177 0.00430448 0)
(-0.000293741 0.00592431 0)
(-0.000208889 0.00360089 0)
(-0.000364087 0.00719473 0)
(-0.000374673 0.00787665 0)
(-0.000352212 0.00654346 0)
(0.00117464 0.0042939 0)
(0.000973528 0.00289868 0)
(0.00122578 0.00653895 0)
(0.00126044 0.00505213 0)
(0.0011567 0.00732171 0)
(0.000585157 0.00185033 0)
(0.00077681 0.00217901 0)
(0.000202766 0.000627909 0)
(0.00010287 0.00031439 0)
(0.000372758 0.00114157 0)
(-0.000190391 0.00321152 0)
(-9.31437e-06 0.000148849 0)
(-1.87802e-05 0.00029734 0)
(-3.94582e-05 0.000598556 0)
(-5.94313e-05 0.000788984 0)
(-9.0336e-05 0.00116697 0)
(-7.17009e-05 0.00092362 0)
(-9.6799e-05 0.00128054 0)
(-0.000111656 0.00154545 0)
(-0.000119071 0.00167769 0)
(-0.000135218 0.00195075 0)
(-0.000162292 0.00235399 0)
(-0.00015494 0.00220925 0)
(-0.000187608 0.00271686 0)
(-0.000200496 0.00291171 0)
(-0.000200411 0.00314145 0)
(0.00122339 0.00823125 0)
(-0.000326088 0.013221 0)
(-0.000322526 0.0151466 0)
(-0.000403425 0.0121821 0)
(0.000167067 0.0151699 0)
(0.000592552 0.0147529 0)
(-0.000234554 0.0158526 0)
(-0.000429827 0.0110207 0)
(-0.000390964 0.0092406 0)
(-0.000422372 0.0103747 0)
(-0.000419826 0.00867752 0)
(0.00122488 0.0116379 0)
(0.000850618 0.0138894 0)
(0.00124806 0.0103532 0)
(-0.000287476 0.00507915 0)
(-0.00028155 0.00485351 0)
(-0.000303249 0.00553537 0)
(-0.000236652 0.0038875 0)
(-0.000287871 0.00453653 0)
(-0.000318567 0.00583071 0)
(-0.000210508 0.00344753 0)
(-0.000388907 0.00760383 0)
(-0.000379883 0.00696685 0)
(-0.000415149 0.00830907 0)
(-0.000369271 0.0064097 0)
(0.00123262 0.00365702 0)
(0.000897326 0.00242723 0)
(0.00112135 0.00306478 0)
(0.00140894 0.00635473 0)
(0.00142778 0.00531364 0)
(0.000546898 0.00153402 0)
(0.000735689 0.00184862 0)
(0.000274264 0.000806638 0)
(5.8407e-05 0.000163196 0)
(0.000443803 0.00124347 0)
(-5.26573e-06 7.60139e-05 0)
(-2.61986e-05 0.000374903 0)
(-3.62446e-05 0.000513655 0)
(-5.50692e-05 0.000701635 0)
(-9.6977e-05 0.00115991 0)
(-8.35271e-05 0.00100191 0)
(-0.000113946 0.00143085 0)
(-0.000120035 0.00154935 0)
(-0.000138888 0.00183773 0)
(-0.000146543 0.00197298 0)
(-0.000185316 0.00251286 0)
(-0.000172753 0.00227539 0)
(-0.000198599 0.00268713 0)
(-0.000228549 0.00311043 0)
(-0.000235273 0.00338821 0)
(0.00138436 0.00822087 0)
(-0.000464975 0.0142342 0)
(-0.000495857 0.0154798 0)
(-0.000491239 0.0128887 0)
(6.184e-05 0.0169029 0)
(0.000463812 0.0165297 0)
(-0.000324488 0.0173465 0)
(-0.000515851 0.0115872 0)
(-0.000465152 0.00961751 0)
(-0.000509153 0.0106464 0)
(-0.000471775 0.00919492 0)
(0.00142224 0.0120088 0)
(0.00103282 0.0146831 0)
(0.00142809 0.00929176 0)
(-0.000315999 0.00537888 0)
(-0.00030574 0.004856 0)
(-0.000265691 0.00399692 0)
(-0.000308973 0.00451054 0)
(-0.000354885 0.00608122 0)
(-0.000242954 0.00357663 0)
(-0.000437429 0.00790244 0)
(-0.00042962 0.00720395 0)
(-0.000454387 0.00832655 0)
(-0.000407695 0.00662454 0)
(0.00141527 0.00355499 0)
(0.000939677 0.00211464 0)
(0.00115874 0.00258168 0)
(0.00151126 0.00706719 0)
(0.00155723 0.00486123 0)
(0.000623018 0.00156617 0)
(0.000824759 0.00182004 0)
(0.000277851 0.000748574 0)
(0.000107738 0.000275501 0)
(0.000384599 0.000995228 0)
(-1.20878e-05 0.000158185 0)
(-2.33223e-05 0.00030588 0)
(-4.38249e-05 0.000572694 0)
(-6.08717e-05 0.000723631 0)
(-0.000112406 0.00127612 0)
(-8.49357e-05 0.000959262 0)
(-0.000127143 0.00149811 0)
(-0.000140205 0.00171285 0)
(-0.000150071 0.00185215 0)
(-0.000168077 0.00215451 0)
(-0.000191336 0.00245597 0)
(-0.000228558 0.00289742 0)
(-0.000247856 0.00336107 0)
(-0.000243381 0.00310134 0)
(-0.000526672 0.013905 0)
(-0.000645451 0.0166248 0)
(-0.000560712 0.0128255 0)
(-0.000171042 0.0177819 0)
(0.000206654 0.0174693 0)
(0.000612033 0.0172701 0)
(-0.000508911 0.0183725 0)
(-0.000556911 0.0112725 0)
(-0.000563908 0.0122527 0)
(-0.000519313 0.0102327 0)
(-0.000524443 0.00938402 0)
(0.00135302 0.0136012 0)
(0.00168105 0.01058 0)
(0.000902088 0.0163464 0)
(0.00163809 0.00923973 0)
(-0.0003554 0.00557663 0)
(-0.000349219 0.00515333 0)
(-0.000296037 0.00425663 0)
(-0.000268058 0.00381642 0)
(-0.000351636 0.00481095 0)
(-0.000393299 0.00616923 0)
(-0.000470777 0.00790665 0)
(-0.000469642 0.00761557 0)
(-0.000436422 0.00696727 0)
(-0.000507186 0.00865588 0)
(-0.000425704 0.00650131 0)
(0.00155044 0.00403899 0)
(0.00142323 0.0028057 0)
(0.00104753 0.00214335 0)
(0.00128677 0.00246385 0)
(0.00170543 0.00689955 0)
(0.00175314 0.00512938 0)
(0.000594972 0.00133798 0)
(0.000793298 0.00157086 0)
(0.000209832 0.00053277 0)
(4.80333e-05 0.00011369 0)
(0.000405048 0.000949349 0)
(-6.91897e-06 8.30453e-05 0)
(-3.23519e-05 0.000394288 0)
(-4.22588e-05 0.000519069 0)
(-7.26007e-05 0.000820961 0)
(-5.19424e-05 0.000606997 0)
(-0.000115869 0.00124714 0)
(-0.000127552 0.00144214 0)
(-0.000101433 0.00108517 0)
(-0.000145816 0.0016884 0)
(-0.000173629 0.00204407 0)
(-0.000183341 0.00220436 0)
(-0.000215631 0.0026116 0)
(-0.000238572 0.002863 0)
(-0.000284399 0.00357095 0)
(-0.000278604 0.00337757 0)
(-0.000640393 0.0144529 0)
(-0.000709113 0.0179909 0)
(-0.000749777 0.0163185 0)
(-0.000647873 0.0136903 0)
(-0.000314329 0.0196127 0)
(7.12432e-05 0.019185 0)
(0.000452899 0.0191549 0)
(-0.000525869 0.0200127 0)
(-0.000645892 0.018598 0)
(-0.000636312 0.0118228 0)
(-0.00065184 0.0124941 0)
(-0.0005915 0.0104539 0)
(-0.000579513 0.00994112 0)
(-0.000537297 0.00908355 0)
(0.00157211 0.0142744 0)
(0.00196753 0.0102643 0)
(0.0010633 0.0171431 0)
(0.00179282 0.00797357 0)
(-0.000395528 0.00597607 0)
(-0.000370713 0.00546504 0)
(-0.000371681 0.00511308 0)
(-0.000321194 0.0042925 0)
(-0.000300592 0.00399941 0)
(-0.00037702 0.0048325 0)
(-0.000521321 0.00839278 0)
(-0.000529152 0.00783853 0)
(-0.000484501 0.00716011 0)
(-0.000473844 0.00683058 0)
(0.00172738 0.00366601 0)
(0.00158035 0.00248348 0)
(0.00108574 0.00180151 0)
(0.00124119 0.001881 0)
(0.00182377 0.00589646 0)
(0.00186244 0.00420202 0)
(0.000496457 0.00109028 0)
(0.000676603 0.0013604 0)
(0.000847089 0.00140603 0)
(0.000235691 0.000546184 0)
(9.6e-05 0.000209207 0)
(0.000323295 0.000724181 0)
(-1.66087e-05 0.00018591 0)
(-3.07643e-05 0.000347743 0)
(-6.99423e-05 0.00075388 0)
(-5.47797e-05 0.000607022 0)
(-0.000132666 0.00137256 0)
(-0.000149288 0.00158898 0)
(-0.000107329 0.00109057 0)
(-0.000165917 0.00182376 0)
(-0.00018831 0.00210071 0)
(-0.000207665 0.00239559 0)
(-0.000222026 0.00257264 0)
(-0.000269974 0.00306094 0)
(-0.000313238 0.00383143 0)
(-0.000301082 0.00345921 0)
(-0.000725385 0.0153227 0)
(-0.000921125 0.0190077 0)
(-0.00089377 0.017299 0)
(-0.000729757 0.0138882 0)
(-0.00020866 0.0203239 0)
(0.000185958 0.0199561 0)
(0.000586247 0.0201169 0)
(-0.000717307 0.0212729 0)
(-0.000798571 0.0203801 0)
(-0.000678223 0.0118221 0)
(-0.000725306 0.0132182 0)
(-0.000660969 0.0110178 0)
(-0.000632418 0.0100392 0)
(-0.000605011 0.00950538 0)
(0.00189378 0.013144 0)
(0.00138536 0.0162531 0)
(0.00206803 0.0113098 0)
(0.00210928 0.00867038 0)
(0.000896539 0.0190119 0)
(0.00199777 0.00775341 0)
(-0.000449412 0.00618472 0)
(-0.000428664 0.00584028 0)
(-0.000419907 0.00544413 0)
(-0.000357521 0.00454892 0)
(-0.000318624 0.00401327 0)
(-0.000425297 0.00516795 0)
(-0.000577964 0.00863102 0)
(-0.000581595 0.00830986 0)
(-0.000529183 0.00754885 0)
(-0.000515143 0.00694323 0)
(0.00175262 0.00286312 0)
(0.00153743 0.00183333 0)
(0.000971322 0.00145854 0)
(0.0013323 0.00162227 0)
(0.00205822 0.00576389 0)
(0.00207331 0.00391556 0)
(0.000482327 0.000945242 0)
(0.00065498 0.00117353 0)
(0.00073987 0.00117734 0)
(0.000182131 0.000394941 0)
(4.67079e-05 9.49475e-05 0)
(0.000321501 0.000655643 0)
(-1.00649e-05 0.000105057 0)
(-4.42796e-05 0.000477976 0)
(-7.73746e-05 0.000793012 0)
(-0.000138682 0.0013775 0)
(-0.000148967 0.00153478 0)
(-0.000168074 0.00177048 0)
(-9.57037e-05 0.000955083 0)
(-0.000127824 0.00125457 0)
(-0.000184991 0.00200633 0)
(-0.000217057 0.00233249 0)
(-0.000224851 0.00245229 0)
(-0.00025341 0.00277977 0)
(-0.000294673 0.00329597 0)
(-0.000275542 0.00299208 0)
(-0.000353622 0.00404501 0)
(-0.000342009 0.0037534 0)
(-0.000831363 0.0154601 0)
(-0.0010359 0.0204593 0)
(-0.000973927 0.0184684 0)
(-0.000964654 0.0170721 0)
(-0.00081576 0.0146909 0)
(-0.000321595 0.0221845 0)
(-2.81118e-05 0.0218655 0)
(0.000379888 0.0223498 0)
(-0.000837885 0.0228546 0)
(-0.000968011 0.02111 0)
(-0.000766536 0.0124638 0)
(-0.000683203 0.0114795 0)
(-0.000801453 0.0134547 0)
(-0.000724827 0.0110747 0)
(-0.000700236 0.0105452 0)
(-0.000643458 0.00952143 0)
(0.00216423 0.0137266 0)
(0.00148064 0.0175631 0)
(0.00240384 0.0104622 0)
(0.00235059 0.00778961 0)
(0.0011133 0.0195769 0)
(0.0021241 0.00665269 0)
(-0.000502698 0.00659824 0)
(-0.000451661 0.00582517 0)
(-0.000444609 0.00544679 0)
(-0.000383309 0.00459579 0)
(-0.00036286 0.00433192 0)
(-0.000455159 0.00522804 0)
(-0.000631932 0.00912257 0)
(-0.00064961 0.00862042 0)
(-0.000594481 0.00781065 0)
(-0.000584298 0.00747082 0)
(0.00192411 0.00250436 0)
(0.00165845 0.00138745 0)
(0.000970354 0.00111304 0)
(0.00127574 0.00119642 0)
(0.0022044 0.00465498 0)
(0.00211054 0.00297704 0)
(0.000558606 0.000996957 0)
(0.000389705 0.000747752 0)
(0.000703868 0.000969425 0)
(0.000232352 0.000468614 0)
(0.000101913 0.000192243 0)
(-2.14121e-05 0.000212155 0)
(-4.84685e-05 0.000497305 0)
(-6.66112e-05 0.000666424 0)
(-0.000159211 0.0015398 0)
(-0.000166811 0.00164457 0)
(-0.000190791 0.00192688 0)
(-0.000105528 0.00100187 0)
(-0.000138977 0.00130836 0)
(-0.000211171 0.0021743 0)
(-0.0002322 0.00237816 0)
(-0.000254988 0.00270108 0)
(-0.000325693 0.00347174 0)
(-0.000313439 0.00322949 0)
(-0.000384906 0.00436337 0)
(-0.000366833 0.00401321 0)
(-0.000353088 0.00372469 0)
(-0.000928597 0.016224 0)
(-0.00122633 0.02143 0)
(-0.00111986 0.019154 0)
(-0.00107947 0.0178122 0)
(-0.000899302 0.0148572 0)
(-0.000572365 0.0238082 0)
(1.9149e-05 0.0232482 0)
(0.000554323 0.0233742 0)
(-0.00107721 0.0235855 0)
(-0.000805942 0.0240533 0)
(-0.00111332 0.0227087 0)
(-0.000770344 0.0120998 0)
(-0.000814515 0.0130376 0)
(-0.000881864 0.0142285 0)
(-0.000803226 0.0116845 0)
(-0.000755274 0.0106008 0)
(-0.000717248 0.0100359 0)
(0.00211922 0.0154437 0)
(0.00248714 0.0117673 0)
(0.00176287 0.0173071 0)
(0.00267253 0.00871103 0)
(0.00260173 0.00766263 0)
(0.00233011 0.00656981 0)
(0.00100254 0.0215328 0)
(-0.000558257 0.00680994 0)
(-0.000510744 0.0061425 0)
(-0.000502364 0.005871 0)
(-0.000430256 0.00491808 0)
(-0.000513685 0.00563614 0)
(-0.000707781 0.00946899 0)
(-0.000715717 0.00922417 0)
(-0.000656027 0.00834193 0)
(-0.000635684 0.00764571 0)
(0.00195864 0.00184108 0)
(0.00155946 0.000944241 0)
(0.00185213 0.00136657 0)
(0.0010949 0.000996576 0)
(0.000791508 0.000925982 0)
(0.00138787 0.00089289 0)
(0.00245477 0.00444224 0)
(0.00230374 0.00232216 0)
(0.00053326 0.000870023 0)
(0.000369073 0.000646505 0)
(0.000595022 0.000854006 0)
(0.000201072 0.000376742 0)
(5.32148e-05 9.48377e-05 0)
(-1.15212e-05 0.000108609 0)
(-3.95025e-05 0.000391611 0)
(-7.25771e-05 0.000692298 0)
(-0.000172635 0.00161191 0)
(-0.000188766 0.00182154 0)
(-0.000212924 0.0021326 0)
(-0.000198441 0.00193672 0)
(-0.000127564 0.00118277 0)
(-9.19243e-05 0.000856508 0)
(-0.00016307 0.00150029 0)
(-0.000261438 0.00258633 0)
(-0.000284405 0.00287872 0)
(-0.000336702 0.00345414 0)
(-0.00031902 0.00317674 0)
(-0.000432074 0.00467864 0)
(-0.000422204 0.00437722 0)
(-0.000386412 0.00390845 0)
(-0.00101902 0.016332 0)
(-0.00133937 0.0228064 0)
(-0.0012988 0.0211274 0)
(-0.00123749 0.0201459 0)
(-0.00113474 0.0186105 0)
(-0.00115324 0.0178266 0)
(-0.000995059 0.0156372 0)
(-0.000567137 0.02554 0)
(-0.000257405 0.0251734 0)
(0.000354104 0.0257518 0)
(-0.00126165 0.025155 0)
(-0.00108697 0.0261011 0)
(-0.00129435 0.0233846 0)
(-0.000824777 0.0122428 0)
(-0.000920138 0.0137048 0)
(-0.000959402 0.0144034 0)
(-0.000879621 0.011996 0)
(-0.000836284 0.011132 0)
(-0.000760559 0.0100294 0)
(0.0024455 0.0157174 0)
(0.00283247 0.0109362 0)
(0.00175139 0.0194658 0)
(0.00298015 0.00853053 0)
(0.00275113 0.00581048 0)
(0.00250334 0.00558512 0)
(0.00132804 0.0217981 0)
(-0.000617241 0.00728256 0)
(-0.000557932 0.00655341 0)
(-0.000541338 0.00599412 0)
(-0.000458671 0.0049817 0)
(-0.000546648 0.00571341 0)
(-0.000794327 0.00959533 0)
(-0.000728549 0.00870511 0)
(-0.000716677 0.00818844 0)
(0.0021843 0.00159946 0)
(0.00162749 0.000461009 0)
(0.00193527 0.00068379 0)
(0.00105374 0.000692723 0)
(0.000733148 0.000756349 0)
(0.0013393 0.000548844 0)
(0.00263144 0.00323786 0)
(0.00253018 0.00226581 0)
(0.000436765 0.000713715 0)
(0.000268315 0.000468575 0)
(0.000525744 0.000736816 0)
(8.90878e-05 0.000147212 0)
(-2.66014e-05 0.000243284 0)
(-5.45937e-05 0.000517865 0)
(-0.000195573 0.00179475 0)
(-0.000203394 0.00189346 0)
(-0.000238043 0.00228658 0)
(-0.000227993 0.00215978 0)
(-0.000141267 0.00126117 0)
(-0.000102205 0.000915473 0)
(-0.000180138 0.00160307 0)
(-0.000285677 0.0028151 0)
(-0.000276811 0.00263827 0)
(-0.000375236 0.00372378 0)
(-0.000362003 0.00343973 0)
(-0.000453418 0.00469763 0)
(-0.00044191 0.00441108 0)
(-0.000421736 0.00417654 0)
(-0.00112633 0.0171494 0)
(-0.00153863 0.0239028 0)
(-0.0014879 0.0223094 0)
(-0.0013504 0.0202334 0)
(-0.00127141 0.0192967 0)
(-0.00128365 0.018852 0)
(-0.00108486 0.0158514 0)
(-0.000804414 0.0273204 0)
(-0.000314925 0.0270956 0)
(-9.42109e-05 0.0275618 0)
(0.000651599 0.026368 0)
(-0.00147095 0.0257522 0)
(-0.00127431 0.0262285 0)
(-0.00115449 0.0275755 0)
(-0.00146457 0.0248768 0)
(-0.000932109 0.0130151 0)
(-0.00097983 0.0137078 0)
(-0.00105716 0.0151684 0)
(-0.000968363 0.0128522 0)
(-0.00089082 0.0117513 0)
(-0.000891621 0.0111821 0)
(-0.000849129 0.0106055 0)
(0.00285634 0.0141355 0)
(0.00218627 0.0185568 0)
(0.00302682 0.0117475 0)
(0.00326277 0.007357 0)
(0.00300205 0.00458225 0)
(0.00118746 0.0242411 0)
(-0.000681126 0.00758063 0)
(-0.000625698 0.00690394 0)
(-0.000612002 0.00647553 0)
(-0.000515449 0.00536367 0)
(-0.000611976 0.00614529 0)
(-0.000866353 0.0101834 0)
(-0.000792675 0.0092857 0)
(-0.000755312 0.00861493 0)
(-0.000745182 0.00812963 0)
(0.00226226 0.000930816 0)
(0.00179794 0.000277759 0)
(0.0014689 0.000260083 0)
(0.00212643 0.000481176 0)
(0.00118676 0.000475299 0)
(0.000902631 0.000571076 0)
(0.000607124 0.00065793 0)
(0.000786554 0.000621125 0)
(0.00292664 0.00307182 0)
(0.00268889 0.000980971 0)
(0.000431824 0.000656876 0)
(0.000242879 0.000400034 0)
(0.000490785 0.000644348 0)
(3.56849e-05 5.70087e-05 0)
(0.00016569 0.000268395 0)
(-2.63644e-05 0.000234562 0)
(-5.08115e-05 0.000467933 0)
(-0.000217443 0.00193277 0)
(-0.000231431 0.00210633 0)
(-0.000266044 0.00250411 0)
(-0.000244757 0.00224434 0)
(-0.000168586 0.00147877 0)
(-0.000128623 0.00113057 0)
(-8.86959e-05 0.0007806 0)
(-0.000211289 0.00184853 0)
(-0.000320059 0.00302863 0)
(-0.000312265 0.00290518 0)
(-0.00040289 0.00385934 0)
(-0.000357416 0.00332225 0)
(-0.000400636 0.00375047 0)
(-0.000510889 0.00507879 0)