/*--------------------------------*- C++ -*----------------------------------*\
| =========                 |                                                 |
| \\      /  F ield         | OpenFOAM: The Open Source CFD Toolbox           |
|  \\    /   O peration     | Version:  v2012                                 |
|   \\  /    A nd           | Website:  www.openfoam.com                      |
|    \\/     M anipulation  |                                                 |
\*---------------------------------------------------------------------------*/
FoamFile
{
    version     2.0;
    format      ascii;
    class       surfaceScalarField;
    location    "0.22";
    object      meshPhi;
}
// * * * * * * * * * * * * * * * * * * * * * * * * * * * * * * * * * * * * * //

dimensions      [0 3 -1 0 0 0 0];


internalField   nonuniform List<scalar> 
18811
(
0.00146543
0.000987072
-0.000716757
0.00489641
-0.00136036
0.00465855
0.00307515
-7.29354e-05
0.00729161
0.00167074
0.00709169
0.00683386
0.000865922
0.000940587
0.0096925
0.00535891
-0.00104625
0.00157314
0.00780951
0.010904
0.00755754
-0.00258643
-0.00127383
0.0137211
0.00476493
0.00305184
0.00122967
0.00857936
0.00884027
-0.000607653
0.0155158
0.0121312
-0.000995722
0.00207439
0.000700258
0.0165255
0.00771335
-0.00277364
0.00366189
-0.000647348
0.00520632
0.00548362
0.0162728
0.0153281
0.0197504
-0.00860696
0.0111882
-0.00209369
-0.00252192
0.022024
0.00512892
0.00418348
0.00250471
0.00109911
0.0126641
0.0169558
-0.00273066
0.0224598
-0.00115526
0.025307
0.0180969
-0.00252375
0.00773848
-0.00396692
-0.00011163
0.0256798
-0.00354797
0.00916008
0.00574218
-0.00190082
0.00239289
-0.000180635
0.011681
0.00249428
-0.00226864
0.0221662
0.0196348
0.0254819
0.0285647
-0.0132989
0.01513
-0.00105559
-0.000149687
0.00130382
0.0270671
0.00347268
0.00576921
0.00449602
0.00143186
-0.000477554
0.0011238
0.0115768
0.00934596
0.0264974
-0.00929945
0.0343719
-0.00425086
0.0347611
0.000963635
0.0319469
0.0199775
-0.00123541
0.0126338
-0.00905289
0.00365689
0.00206327
0.0275054
-0.00247767
0.00703867
-0.00314468
0.00858619
-0.00195718
0.0043465
0.000266076
-0.000312296
-0.00887276
0.0222505
0.00148715
0.0189649
0.0094524
0.0148946
0.0355582
0.0403207
0.0366957
-0.0175415
0.0200526
-0.000275515
0.000830729
0.00474117
0.0251513
0.00302505
0.00504488
0.0112941
0.000850023
-0.000159469
0.00117327
0.0116776
0.0129504
0.0259685
0.0231304
-0.0177474
0.036707
0.048407
-0.00521973
2.96376e-05
0.044765
0.0154732
0.0242911
0.00610657
-0.0156994
0.0207655
0.00815878
-0.00272944
0.0435231
0.00493773
-0.00106272
-0.00216493
0.00812642
-0.00239616
0.0148371
0.000286073
0.00166135
-0.00019168
-0.00680153
0.0217247
-0.0043655
0.0321192
0.0204481
0.0327346
0.00873782
0.0530202
0.0332377
0.0201096
0.0284535
0.0484266
-0.0212665
0.0320921
-0.00298498
0.00489024
0.00187667
0.0165743
0.0287626
0.00364127
-0.00185234
0.00134131
0.0066544
0.0098088
0.000301892
3.23189e-05
0.000294139
0.00463752
0.0189695
0.00792297
0.0270331
0.0267966
-0.0290022
0.0420531
0.0213723
0.0360594
-0.0279755
0.0666346
0.0531519
0.0209758
0.030968
0.00831112
-0.00842414
0.0103114
0.0233162
-0.0140782
-0.00239657
0.0261893
0.0128899
0.0176622
-0.00119687
0.00540642
0.00214909
-0.00054209
-0.00195429
0.00928009
-0.00438109
0.0152716
-0.000316335
0.000506479
0.00179577
0.0183702
-0.00708902
0.0358954
0.0211019
0.0191689
-0.00800922
0.0488186
0.054856
0.0197186
0.0316226
0.0254519
0.0560492
0.0469114
-0.0309566
0.0449302
0.0203622
-0.00503376
-0.00319441
0.0106762
0.00284079
0.045527
0.00154547
0.0040488
0.00559265
0.012636
0.00363268
0.0157105
-0.000963561
0.0205175
0.00939971
0.027668
0.021166
-0.0353122
0.0601962
0.0517133
0.026305
0.0253893
-0.0444853
0.0703335
0.0550757
0.0372309
0.0222937
0.0165026
0.0329345
0.0163431
-0.0110215
0.011246
-0.0225331
0.0236106
-0.00845012
-0.0027437
0.012201
0.0355923
0.00163679
-0.000627361
0.00500421
-0.00180155
0.00781169
-0.00655827
0.0110264
0.00148229
0.0148954
-0.00173286
0.0231415
0.0316992
-0.00222383
0.0314408
0.0230083
0.0355676
0.0216373
0.0648894
0.0565683
0.0219614
0.0490501
0.0105999
0.0565655
0.0755838
0.0471922
-0.0369721
0.0604428
0.0162733
-0.00107225
0.0385822
-0.0107377
0.011364
0.00287661
0.0348447
0.00133065
0.00356611
0.00172549
0.00898015
0.00251369
0.0110624
0.0138891
0.0137157
0.010081
0.0139262
0.0187528
0.00771535
0.0243993
-0.0339991
0.0626441
0.0853358
0.0805833
-0.0488816
0.0775195
0.0256124
0.0334378
0.0317012
0.0477828
0.0151617
0.0337661
0.00739532
0.0336129
-0.0109268
0.0137308
-0.0292327
0.0228131
-0.0140428
0.00841712
-0.00151568
0.00720313
0.0287994
0.00143278
0.00387284
-5.43141e-05
0.00602015
-0.00506229
0.00802737
0.00137901
0.0100296
-8.05358e-05
0.014391
-0.0038191
0.0180019
0.0248616
0.0272425
0.00311977
0.0221223
0.0207289
0.0184225
0.0775706
0.0104286
0.0785401
0.0678872
0.0178926
0.0600269
0.0504516
-0.0149055
0.0670336
0.0422575
-0.030138
0.0421838
-0.0145244
0.0529023
0.00135817
0.00355544
-0.00320445
0.00236427
0.0329119
0.00168073
0.00131276
0.00534242
0.00291072
0.00700361
0.0103441
0.0109783
0.0076334
0.0107777
0.00875641
0.016479
0.00706106
0.0207326
0.0297709
-0.0391019
0.0652135
0.0948143
0.0960064
0.0682927
-0.0537437
0.077947
0.0300308
0.0318558
0.0220507
0.0299395
0.0236909
0.0455222
0.0161884
0.0270585
0.0554465
-0.00743391
0.0464749
0.0185957
-0.00672091
0.011457
-0.0133298
0.0212698
-0.0255955
0.0270588
-0.000644257
0.00348735
0.0300725
0.0018133
0.00350779
-0.00212402
0.00525954
-0.00043101
0.00767954
0.000545149
0.0101008
-0.000886167
0.0121417
0.0167588
-0.00527269
0.0164745
0.00100583
0.015858
0.0221923
0.0185542
0.0117131
0.0176401
0.103809
0.00116764
0.042513
0.0610836
0.011902
0.0599702
0.0757842
0.00944518
0.0537245
0.0575475
0.0474067
-0.0173525
0.0656473
0.0311322
-0.037172
0.034974
0.0378916
0.0131309
0.0605455
0.00176739
-0.000474285
-0.00632109
-0.00290835
0.00730206
0.0145555
0.015982
0.00177998
0.00510416
0.008555
0.00949768
0.00722372
0.00423641
0.0128509
0.00298763
0.0137417
0.0204418
0.00622208
0.0163893
0.0252366
0.0267845
-0.0449264
0.0675707
0.0292272
0.0811356
0.084454
0.0771791
0.0768177
0.0450248
-0.0594545
0.0746387
0.0188313
0.0361651
0.026313
0.0324879
0.0295938
0.01845
0.0160165
0.0510582
0.0172389
0.0144846
0.0451386
-0.00710756
-0.0368432
0.0545976
0.0206515
-0.00992266
0.0155228
-0.0159754
0.0187704
-0.027855
0.0255005
3.06938e-05
0.0009485
0.0337785
0.00195284
-7.39807e-05
0.00538468
0.0010408
0.00774738
0.00796451
0.00179216
0.0155523
0.0160899
0.00469706
0.00938939
0.0028062
0.0180308
0.0195503
0.0163986
0.00925511
0.0176372
0.00961129
0.0138727
0.0270889
0.0589077
0.000941099
0.0899243
0.00857303
0.0734987
0.0265832
0.0532262
0.0741706
0.0701074
0.0112303
0.0462497
-0.00200849
0.0391368
0.0497799
0.0284032
0.0335358
0.0100511
0.042529
0.0123108
-0.0377736
0.0339008
0.0282942
0.0299958
0.0521836
0.00242459
-0.00635031
-0.00890756
0.00298618
-0.00596376
0.0104786
0.0122833
0.0218287
0.00210909
0.00669784
0.00987037
0.00924902
0.00679812
0.00593453
0.0104319
0.0143741
0.0156362
0.00358494
0.0147169
0.00472602
0.015138
0.0214632
0.0273968
0.0222283
-0.0455954
0.0638086
-0.048625
0.0807765
0.0711268
0.0761321
0.047561
0.00462891
0.072365
0.0610001
0.041038
0.0353893
-0.0625859
0.079698
0.031732
0.0153996
0.00682645
0.0330472
0.0201079
0.0303561
-0.00543469
0.0343552
0.0286261
0.0526496
0.0012432
0.0422127
-0.0253929
0.0402069
0.0105829
-0.0107007
0.0435061
0.00996435
0.0179545
-0.0125788
0.0145578
-0.0243247
0.0187338
0.00105159
0.00140471
0.0156583
0.00635494
0.00230047
0.00456432
0.00239756
0.000879152
0.0092013
-0.00496255
0.0121847
0.0142862
0.00895767
0.00584917
0.00784975
0.00807795
0.0030802
0.0119241
0.01856
0.0078138
0.0140832
0.0125075
0.0152592
-0.00516873
0.0278371
0.0063749
0.0168682
0.0689416
0.0930714
0.0522035
0.0309808
0.105551
0.0385374
0.0372777
0.0270816
0.0362266
0.0647929
0.0655556
0.0217315
0.0392781
0.0361497
0.00877801
0.0247724
0.0323491
0.0197782
0.0151558
0.0116397
0.0174384
0.0327944
0.0210235
0.00888794
0.0342665
0.0469389
-0.00481195
0.0349271
-0.0224362
0.04034
0.0566161
-0.00684976
0.0307599
-0.0100516
0.00568783
-0.00154395
-0.00809625
0.0129963
0.0107399
0.0182694
0.00110046
0.00146833
0.00561351
0.00368884
0.00454572
0.00618283
0.00637457
0.00836389
0.00624833
0.0155929
0.0140259
0.0168169
0.0185122
0.00562048
0.0132417
0.0206985
0.0200673
-0.00535096
0.0210472
0.022993
-0.039818
0.0496959
-0.0294887
0.105033
0.0288812
0.0678759
0.103762
0.0838432
0.0706998
0.0762025
0.0245923
0.0415975
0.0624594
-0.0364792
0.0174599
0.0223688
0.00191636
0.0348814
0.0291354
0.00200132
0.0232856
0.0348351
0.0330516
0.0426138
0.0467245
-0.0042761
0.0392994
0.0321922
0.0104419
0.0436621
-0.00219515
0.0195375
-0.0171764
0.0134198
-0.0211146
0.0128543
-0.000203663
0.00121792
-0.00167188
0.0293978
0.00164692
0.000702012
0.00512018
0.00460667
0.00998945
-0.00455454
0.0113026
0.00943196
0.00653599
-0.00186915
0.0163184
0.0153468
0.000787351
0.0181907
0.0143425
-0.000189778
0.0213006
0.00482148
0.0156409
0.0212335
0.0241911
-0.000579178
0.0660138
-0.0139151
0.0475089
0.0626854
0.0170367
0.0542167
0.0719495
0.0406245
0.00707691
0.0843163
0.0129475
0.0606267
0.040959
0.0374726
0.00308445
0.0396659
-0.0127777
0.0787145
0.0331756
-0.00861623
0.0265446
0.0248391
0.0267634
0.0100781
0.0197248
0.0340137
0.0312807
0.0160687
0.0176841
0.0116528
0.0319653
0.0242869
0.0231471
0.00962454
0.0304009
0.0356655
-0.00296408
-0.017928
0.0297807
0.0237864
0.0218346
0.0347932
0.0451859
-0.00584619
0.0212454
-0.00742449
-0.00481097
0.00705959
-0.00128703
-0.00819866
0.0084478
0.0213907
0.00859855
0.000428042
0.001479
0.00530427
0.00581026
0.00583179
0.00588352
-0.00414969
0.0141005
0.012754
0.0127192
-0.00285068
0.018767
0.0158163
0.0195483
0.00282256
0.0189231
0.0189149
0.000929303
0.0209203
0.0257831
0.0213177
0.0335193
0.0678029
-0.00675147
0.0752079
0.0695947
0.085758
-0.035116
0.0811868
0.0844597
0.00794409
0.0545294
0.0452524
0.0470143
0.012865
0.0276904
-0.0534784
0.043771
0.0494014
-0.0183669
0.00971516
0.0173663
0.0352043
0.00311712
0.0243078
0.0365691
0.00027737
0.0346443
0.035185
0.0268691
0.0366936
0.0424109
0.0368331
-0.00204035
0.0330241
-0.0276023
0.0255964
0.00387049
0.00187337
-0.020403
0.0428006
0.0147916
-0.0159658
0.0122735
-0.0168164
0.0103025
0.000717346
0.00176796
-0.00583681
0.00168538
0.00150134
0.00411163
0.00759623
-0.00286423
0.00902323
-0.00154605
0.0161149
0.011682
-0.0054235
0.0185982
0.0137063
-0.00416618
0.0205351
0.0158739
0.00198398
0.017435
0.00972995
0.00967011
0.0234673
0.00141761
0.0249923
-0.00786
0.0299475
0.0490108
-0.0143454
0.0196516
0.0515198
0.0990628
0.014917
0.0569785
0.0727178
0.0192406
0.0508622
0.0357872
-0.00359437
0.0935718
0.0275562
0.0282649
0.02172
0.0245227
0.0200544
0.0284485
0.0503997
0.0616616
-0.0161081
-0.0174951
0.0703273
0.0330612
0.0424673
0.0363437
0.0237802
0.0134887
0.00517747
0.0302737
0.0338052
0.0197897
0.00019986
0.0371591
0.0224371
0.0208202
0.0376679
0.0130259
0.0205126
0.0292959
-0.00496674
-0.0165449
0.0210339
-0.0159207
0.0178873
0.0299307
-0.0133075
0.0275214
-0.0033475
-0.00590825
0.00750343
-0.00496396
0.00505117
-0.000943212
0.00313818
0.000391393
0.0016001
0.00477963
0.0049612
0.00780752
0.00140373
0.014858
0.0018021
-0.00139557
0.0136094
0.0156568
0.00344401
-0.00373987
0.0179913
0.0173806
0.0262891
0.0276684
-0.00229363
0.0265246
0.0320733
0.0233779
0.068801
0.0436571
0.0604758
0.016888
0.0418298
0.0734989
0.07473
-0.0283884
0.0678008
0.0220415
0.0754623
0.0487828
0.0466545
0.0544677
0.0261035
0.0252202
0.0480499
-0.0440929
0.0298644
0.0463006
-0.010623
0.0154551
0.0278673
0.00254386
0.0348166
0.0297243
0.034077
-0.00156913
0.0326737
0.01328
0.0213504
0.0155278
0.0224296
0.038876
0.0344876
0.0137017
0.0249138
0.0343937
0.0154822
-0.021394
0.0158854
0.00469661
-0.00449729
0.034714
-0.00515896
0.0278565
-0.00129836
-0.0121743
0.010155
-0.0126801
0.0073198
0.00206292
0.00115916
0.0108797
-0.00606309
0.00184319
0.000419121
0.00470936
0.00562804
0.0068078
0.0072318
0.000436706
0.0149013
0.0179773
0.0146084
0.0219411
-0.00750671
0.0255714
0.019408
0.00397213
0.0244625
0.0312844
0.013646
0.019344
0.0379887
0.0140966
0.0567553
-0.0261712
0.0740487
-0.00371997
0.0669422
0.0575154
0.0680991
0.0112018
0.0525834
0.0261789
0.0380969
0.0340499
0.0937395
0.0531288
-0.00790791
0.0581506
0.0399337
0.0137066
0.0419593
0.0407294
0.0398708
-0.000141254
0.0505416
0.0491425
-0.0193385
-0.0062208
0.0548807
0.0246925
0.0376946
0.0312065
0.0340783
0.000323086
0.0300439
0.0352158
0.00380608
0.0296308
0.0482173
0.024959
0.0148798
0.00811197
0.0271352
0.043417
0.0188693
-0.00482278
0.018512
-0.0051335
0.0172306
-0.0128949
0.0120688
0.0226522
0.0169328
-0.000206087
-0.00206744
0.0172315
-0.00952602
0.00585218
-0.00245699
0.00373492
-0.000810128
0.000829492
-6.30738e-05
0.00235258
0.00501463
-0.00495688
0.0121909
0.00256169
0.0137555
0.00155658
0.015393
0.00321309
0.00440461
0.0107509
0.0167697
0.005848
0.0134545
0.0126354
-0.0017521
0.021766
0.0233204
0.0113802
0.0207673
-0.0123451
0.0326249
0.0144021
0.024306
0.0555717
0.040702
0.0365102
0.0239908
0.0450878
0.0153418
0.0436161
0.0681375
0.0677644
-0.0283361
0.0656681
0.0243102
0.0735634
0.0804333
0.0341822
0.024712
0.05673
0.00337675
0.039788
0.00234332
0.039235
0.0431297
-0.0316131
0.0330261
0.0467194
0.018341
-0.0270599
0.00758389
0.0297039
-0.00310598
0.00494926
0.0337579
0.037146
0.0028622
0.0320229
0.0347261
0.023616
-0.00431203
0.0348637
0.0201575
0.0292042
0.0462013
0.043092
0.0130727
0.0314791
0.0123635
-0.0134187
0.00677359
0.00356249
-0.0035953
0.0223323
-0.000936637
0.0197116
-0.00537774
0.00875999
-0.00783889
0.00931268
-0.0107001
-9.40842e-05
0.00261674
0.000959615
0.00678937
-0.00481986
0.00268633
0.00795405
0.00817794
0.00447942
0.00425336
0.00991011
0.0173871
0.0206017
0.0131817
0.0155214
0.0198659
-0.0104978
0.0237532
0.0118518
0.00600964
0.0179564
0.0264886
0.0275007
0.00231381
0.031176
0.000492041
0.0246557
0.00633958
0.0508038
-0.0292819
0.0729182
0.0627817
-0.00701553
0.0536623
0.0514414
-0.0256311
0.0982866
0.0460762
0.0344958
0.0360581
0.064542
0.0136043
0.0543664
0.0182635
0.0167737
0.0288528
0.0256607
0.0322289
0.00447903
0.0364333
0.045025
0.00945493
0.0346025
0.0449467
-0.0116582
0.0272881
0.0218125
0.0272901
-0.00920106
0.0226829
-0.0154752
0.0590706
0.0187268
0.048206
0.0409189
0.0285148
0.0045353
0.0309987
0.0288501
0.00345984
0.0323258
0.0396356
0.0229797
0.024327
0.0166573
0.0276818
0.0494965
0.0121294
-0.00200777
-0.00701697
0.0115655
0.0143093
-0.010793
-0.0118555
0.00719678
0.0174997
0.00515658
-0.00131471
-6.48998e-05
0.0116237
-0.010994
-0.00114786
0.00337082
-0.000812673
0.00217344
0.000969422
0.00414353
0.00416311
0.00896632
-0.00713036
0.0174935
0.0107012
0.00172923
0.0193869
0.00844222
0.00524285
0.00709006
0.0089137
0.000210751
0.0202913
0.0246418
0.0304781
0.006195
0.020814
0.00338305
0.0250787
0.0319066
0.0326653
0.0314679
0.0453451
0.0319762
0.0434696
0.0422274
0.021973
0.0170053
0.0378407
0.0108198
0.0418632
0.0613038
0.0432723
0.0852415
-0.0339137
0.0737489
0.00850368
0.0588081
0.0796552
0.0656972
0.0479422
0.0435161
0.0441204
-0.00966796
0.0471449
0.000306347
0.045846
0.0358354
0.0178554
0.0287458
0.0159479
0.0410194
-0.0305021
0.0211168
-0.00958929
0.00243471
0.0288052
0.0292542
0.0202898
0.0153093
0.0268418
0.0449401
0.0354613
-0.00729983
0.0406899
0.0298157
0.0108198
0.0541052
0.0533643
0.0131263
0.0373787
-0.0105661
0.00686426
-0.00870511
0.000570617
-0.000917424
0.00062243
0.000226712
-0.00291025
0.0146536
0.000569621
-0.00861562
0.0114706
0.00552581
-0.00623029
0.00670776
-0.00562499
-0.00497925
0.00377897
0.000939074
0.00253025
0.00546067
0.00749634
0.0018136
0.00956789
0.00839815
-0.00787508
0.0191466
0.0225319
0.0119887
0.0160971
0.0133117
0.0190143
0.000931772
0.0244435
0.00780789
0.0235792
0.024932
0.0338266
-0.00254686
0.0354332
-0.00152788
0.0352139
0.0103479
0.0218528
0.00261754
0.0440255
-0.0222492
0.0560196
-0.00874263
0.0540907
0.0349456
0.0399312
0.00427043
0.0345543
0.0458196
-0.0305982
0.0775064
0.0588628
0.051657
0.026861
0.0503836
0.0110102
0.0456855
0.0375455
0.0453868
0.0392539
-0.000956189
0.0456021
0.0442332
0.0165172
0.0316878
0.00996755
0.0369131
0.0476612
0.00197575
0.0272743
-0.0131523
0.0281869
0.0303482
0.0126138
0.00659899
-0.0158524
0.00479791
0.0615572
0.0434334
0.0486832
0.038752
0.0338343
0.00297693
0.0388135
0.031779
0.0236032
0.0202914
0.0342936
0.00198462
0.0366948
-0.00354714
0.00639587
-0.00704908
-0.00829051
0.00573701
0.00744023
-0.00708627
-0.00647013
0.0073127
0.00464125
-0.00816733
-0.0126103
0.0105253
-0.00387488
0.00108996
-0.000599346
-0.00535425
0.000770811
-0.000496497
0.00274817
0.00323859
-0.000384555
0.00764624
-0.00822473
0.0170603
0.0113466
0.00955462
0.0135748
0.0220594
0.00824035
0.00840522
0.00653458
0.0073014
0.0113113
0.00826264
0.0251801
0.0107213
0.0144226
0.0360999
0.0234803
0.0115054
0.0348698
0.00806445
0.0279493
0.0307676
0.0496366
0.0154859
0.0425076
0.0157386
0.0399204
-0.0220466
0.0583894
0.0190636
0.0549017
0.00562868
0.0414337
0.0180183
0.0631185
0.0102012
0.0530569
0.0662268
-0.0323912
0.0624434
0.000131396
0.0524226
0.05917
-0.0161644
0.0563111
0.0475735
0.00230452
0.0383673
0.0495304
0.0512893
0.0560575
0.0426746
0.00227387
0.0357094
0.0514758
-0.0233233
0.0254598
0.0410959
0.00411983
0.013261
-0.00860373
-0.0110957
0.0131403
0.0331434
0.0162962
0.0281628
0.0138089
0.0359565
-0.0014728
0.0415894
0.0378951
3.22394e-05
0.0400608
-0.00963733
0.0424568
0.0449685
0.037457
0.0541955
-0.00815969
0.00290972
-0.0034751
-0.00341316
-0.00396385
-0.00174271
-0.0109143
0.00348165
-0.00984917
0.00367437
-0.00332559
-0.00348913
-0.0103171
0.0037803
-0.0036278
-0.00281729
0.00337941
0.00717861
-0.00567233
0.000593591
0.000841336
0.0016532
0.00199553
0.00755648
0.0164266
0.00123692
-0.0074233
0.0193114
0.0250976
0.0152492
0.020173
0.0154717
-0.00350579
0.0113293
0.0254378
0.0141067
0.0117379
0.0292392
0.0195117
0.0174304
0.0362465
0.031981
0.00067823
0.0353283
0.00185052
0.026998
0.0156372
0.015874
0.00951477
0.0414704
0.0649837
0.0599982
-0.00903145
0.0501831
0.050791
0.00466545
0.0515503
0.0523786
0.0740983
0.0495672
0.0138672
0.0569203
0.0352603
0.0301807
0.0518597
0.00227853
0.044358
0.0170236
0.0373368
0.0211138
-0.0095033
0.0606648
0.0431197
0.0303566
0.027202
0.0171062
0.0266035
0.0540256
0.0428944
0.00138791
0.0238491
0.00492081
0.0370504
-0.0134975
0.0165059
-0.00146651
-0.0145175
0.00431287
-0.0045175
-0.0162537
0.0518365
0.0429387
0.0355907
0.0428767
0.039722
0.00102917
0.0401614
0.0178562
0.0255667
0.0195864
0.0266013
0.0584016
0.0267817
0.0288517
-0.00981189
-0.00851853
0.00352881
0.00391745
-0.00811418
0.00423164
-0.0098665
0.00445413
-0.00621458
0.00649257
-0.00269965
-0.0018228
0.00731313
-0.00287688
0.00437745
-0.0100306
0.0035198
-0.00953118
-0.00605857
0.00317111
-0.00185646
-0.00187843
-0.000245671
0.00160889
0.00328014
-0.00162182
0.0020303
-0.00446347
0.00677923
0.0211668
0.0112421
0.0145962
0.0273084
0.00953805
0.0111991
0.00696697
0.00906829
0.00586757
0.00583633
0.013464
0.012684
0.0163851
0.0136549
0.0338913
0.0147845
0.0222466
-0.0085165
0.0416603
0.0382807
0.0438454
0.04731
0.0499765
0.0168947
0.0270417
0.0348218
0.0285665
0.0228769
0.0300048
0.0221413
0.024535
0.0281871
0.0120786
0.0416267
0.0398593
0.0372684
0.0416457
0.0104911
0.0520574
0.00233498
0.0575346
-0.0139338
0.0461805
0.0314852
0.0218902
0.0481395
0.0564111
0.0649565
0.025302
0.0370067
0.056681
0.0573409
0.055197
0.0310159
0.0245067
0.0260912
0.0176671
-0.0158207
0.0164885
0.0291046
0.0229338
-0.000859926
-0.0100457
0.00704407
-0.00777484
-0.00886998
0.00221967
0.0407932
0.0159677
0.0283844
0.0530393
-0.000105896
0.0443219
0.0420052
0.000200274
0.041148
0.0448047
0.0534929
0.0217107
0.0379013
0.0498473
0.0588951
-0.00730714
-0.00582759
-0.00794827
-0.00453521
5.42209e-05
-0.00881398
0.0069036
-0.00607387
0.00495961
-0.00712061
0.00496902
-0.00272204
-0.00802023
-0.0123182
-0.000404389
0.00217384
0.0040555
-0.00506176
0.000523574
0.000748198
0.0011774
0.0011605
0.00306664
0.00407914
-0.0106732
0.0328775
0.0318606
0.0174157
0.0236982
0.0187282
0.0154718
0.00925871
-0.0138792
0.0273643
0.0291825
0.0263606
-0.0057301
0.0289342
0.0371952
-0.00430146
0.043741
0.0200117
0.0250354
0.0269456
0.0219183
0.0162554
0.0353697
0.0499344
0.0572127
0.0529138
0.0540533
0.0480858
0.056357
0.0654578
0.0444475
0.0500084
-0.00715196
0.0623774
0.0371868
0.0230735
0.0418711
-0.0309351
0.0541628
0.0187153
0.0335613
0.0248359
0.0288654
0.0385979
-0.0143466
0.0525687
0.0435249
0.0327458
0.0262078
0.0276381
0.0287053
0.0499704
0.0533805
0.0193738
-0.00450409
0.0125358
0.0171827
0.0360906
-0.0103053
0.00775871
-0.00539859
-0.00685868
-0.00249889
-0.00650061
0.0384467
0.00428335
0.0544389
0.0457318
0.0387277
0.00292907
0.0394514
1.0061e-05
0.0461075
0.010426
0.0441503
-0.00829869
0.0477406
0.0132029
0.0376784
0.00945237
0.050681
0.00275252
-0.0133843
-0.00985805
0.00308631
0.00167702
-0.0112366
0.00135878
-0.00534491
-0.00353527
0.00443808
0.00419075
-0.000961902
-0.00112271
0.00639912
-0.000312758
0.00477659
-0.0101137
-0.000393691
-0.0123539
-0.0130875
-0.00197003
0.00121333
2.7551e-05
0.00272554
0.00557655
0.00152881
0.0197494
0.0185568
0.0143144
0.0370601
0.00632138
0.0179536
0.0257019
-0.000526708
0.0165016
0.00915865
0.0196071
0.00853322
0.00493698
0.0251237
0.0476738
0.0347639
0.00506489
0.0332189
0.0117168
0.0330015
0.037789
-0.0234412
0.0603411
0.0278971
0.0244398
0.0340641
0.0195755
0.0353865
0.0296897
0.0258082
0.0140464
0.0352774
0.0721644
-0.000406877
0.0677044
0.00970953
0.0367919
0.0622873
0.0144499
0.0515411
0.054541
0.062092
-0.0106054
0.05499
0.035133
0.0210643
0.0539549
0.0555968
-0.0140586
0.0550158
0.0361753
0.017828
0.0444051
0.0708081
0.0563459
0.0513699
-0.00266364
0.0575655
0.00698538
0.0119981
-0.0102942
0.00472272
0.0238194
0.0315457
0.00605851
-0.00413653
0.00109107
-0.00875018
0.00254154
-0.0067267
-0.00882938
0.000590963
0.029831
0.0375443
0.0191178
0.036849
0.00764634
0.0393295
0.0429984
-0.00377865
0.0442262
0.0577013
0.0372572
0.0622391
0.0481241
0.0279882
0.0239054
-0.0134878
-0.00548183
-0.00434662
-0.00897345
-0.00430211
-0.000698755
0.00229284
0.00438226
0.00404151
-0.00406357
-0.00530506
0.00503272
-0.00670723
0.00745673
-0.00365079
0.00975793
-0.0114673
0.000369493
-0.0149576
-0.0133397
-0.00212615
0.00172716
0.00102008
0.00143599
0.00451038
0.00333965
-0.0154951
0.0363543
0.0406082
0.0227258
0.0386932
0.00233954
0.0239397
0.0194711
0.0143263
0.0460033
0.0360101
0.0129742
-0.00371149
0.0398794
0.042248
0.0305983
0.000920308
0.0330109
0.0302878
0.00843768
0.0252296
0.0366514
0.0649984
0.0554589
0.0554796
0.0624215
0.0626899
0.0359731
0.0382892
0.0246291
0.0450779
0.0509027
0.0101899
0.0442249
0.0187041
0.0382483
0.0306569
0.0341301
0.0308129
0.0269486
-0.0317498
0.0544771
0.0236948
0.0289675
0.0287766
0.0210436
0.0355168
0.0636376
0.0312773
0.040843
0.0551533
-0.00431381
0.057157
0.0545951
-0.00737278
0.0180974
0.0108786
-0.00803608
0.0307648
-0.0085221
0.00264878
-0.00971549
-0.00809973
-0.00748855
-0.0117029
0.0434086
0.0283003
0.0485902
0.0456902
0.0363473
0.0450648
0.0290415
0.0159999
0.0195468
0.0391369
0.0578665
0.0346602
0.0288129
0.0283219
0.0208763
0.053269
-0.00385424
-0.0107403
-0.00700227
0.00276812
0.00147261
-0.0110439
0.00141346
-0.00487068
-0.00199936
0.00347133
-0.00273094
0.00738534
0.0038536
-0.000276301
-0.0034091
7.83255e-05
-0.000223139
0.00508579
0.0108392
0.00155557
-0.0122428
-0.00166846
-0.0147287
-0.010065
-0.00611891
-0.0165632
-0.000860823
0.00165041
8.03709e-05
0.00398253
0.0372441
0.00490049
0.0618633
0.0260262
0.0133413
0.00838016
0.0157957
0.00917622
0.0105024
0.00745745
0.00720827
0.038126
0.0091913
0.0443729
0.0462611
0.0241082
0.0193292
0.0560977
0.0423587
-0.0188227
0.0571868
0.0482944
0.0155008
0.0413854
0.0726869
-0.00514
0.0694764
0.0358585
0.0287702
0.0738778
0.0650532
-0.00903424
0.0553821
0.0105129
0.0423299
0.0432849
0.00575509
0.040546
0.0514309
0.0460589
0.0464752
-0.00926095
0.0376811
0.0619842
-0.00557343
0.0543329
0.0514469
-0.00714811
0.0444047
0.0560946
-0.022937
0.0556402
-0.000931607
0.0428372
0.0556806
0.0173586
0.0407242
0.0334388
0.0223529
0.00242301
0.0126111
0.00516304
-0.00705952
0.00337375
0.0277005
-0.0052441
-0.00682451
-0.00281655
-0.00710916
-0.012627
0.0359448
-0.00830505
0.0379085
0.0181821
0.0315446
0.0133347
0.0333202
0.0314389
0.00596007
0.00998141
0.0363477
0.0400742
0.048344
-0.00326996
0.0436323
0.00169069
0.0575362
-0.0136332
0.0499128
0.050808
0.0339729
0.020558
-0.0155153
-0.00985387
-0.00515561
-0.00821075
-0.00025664
0.0109502
-0.000502017
0.0106077
0.00666758
-0.00348277
0.00400566
0.00301086
-0.0022971
-0.00478516
0.00564687
0.00875665
-0.00191585
0.011992
-0.0166506
-0.012585
-0.0037243
-0.0201206
-0.0140615
-0.00467088
0.00139046
0.000745825
0.0013335
0.00313408
0.0350911
0.0281135
0.034994
0.0524956
0.0252189
0.0183621
0.00895822
0.0455383
0.0450838
0.000816708
-0.0262089
0.0748174
0.0663006
0.0316357
0.00642095
0.0369937
0.0536418
-0.0103945
0.0611316
0.0720462
0.0392199
0.0356528
0.0263371
0.0452936
0.0341486
0.0414845
0.0291645
0.0375089
0.0257957
0.0309135
0.0369058
0.0148969
0.0305844
0.00664252
0.035367
0.0215276
0.0319163
0.0162514
0.0316844
0.0207627
0.0274029
0.0249644
0.014251
0.0540399
0.0505403
0.0065622
0.0463015
0.0523154
0.0346261
-0.00021995
0.0570277
0.0435609
0.0394783
0.0176324
0.0516489
0.0385327
0.0634728
-0.00692242
0.00748939
0.0157831
-0.0076571
0.0117823
-0.00745859
-0.00260618
0.0205297
-0.0156719
-0.0170983
0.0155771
0.02166
0.0245927
0.0151764
0.053411
0.0459198
0.0403276
0.0438123
-0.00404895
0.0453604
0.045618
0.0463089
0.0456678
-0.0114709
0.0629339
0.0407448
0.0627691
-0.0028608
-0.0129709
-0.013168
0.00149628
-0.00533556
0.0018541
-0.00968053
0.00191207
0.000426096
0.0103295
0.00343567
0.00167717
0.0116344
0.000665996
0.00873062
0.000348843
0.000210014
-0.000368767
0.00750982
-0.000607105
0.00739094
0.00991001
0.00480859
-0.013279
-0.00617169
-0.0195672
-0.0186407
-0.00279484
-0.020047
0.00104251
0.00376175
-0.0208326
0.0502404
0.00295635
0.0321757
0.0498359
0.00285648
0.0283706
0.00136223
0.0169539
0.0103134
-0.0172341
0.0637833
0.0389939
0.0552435
0.0379609
0.0300367
0.071588
-0.0107244
0.0667943
0.0527021
0.0158557
0.0578689
0.056432
0.0642696
-0.00826681
0.0550862
0.0649508
-0.0186248
0.0618012
0.0649195
0.066897
0.0594515
0.0416686
0.0386744
0.0113964
0.0253058
0.0507307
0.0500739
0.044714
0.0307405
-0.00756337
0.0639454
-0.010203
0.0634024
0.0380299
0.0274132
0.0267202
0.0489327
0.00967978
0.0624562
0.014994
0.0377012
0.0545545
0.0253265
0.039812
-0.00727808
-0.00136143
-0.00110586
-0.00206384
0.0177579
0.00942232
-0.0126481
-0.00142813
0.0224444
-0.00645778
-0.0113363
-0.0110784
-0.00914884
0.00181803
0.0208767
0.0277588
-0.011892
0.0280782
0.0239038
0.0310911
0.0162646
0.030746
0.0578752
0.0138068
0.0312522
0.060782
-0.0176345
0.0654846
-0.00910118
0.0567622
-0.013215
0.0601995
0.056163
0.00829256
0.0306713
0.0334213
0.00243852
-0.0160634
-0.0110081
-0.00721554
-0.00162678
0.00356734
0.0144625
0.015821
0.00335509
0.0117273
0.0100328
0.00249607
-0.00169259
0.00269127
-0.00286947
0.0038173
-0.00402396
0.00421573
-0.00122646
0.00976313
-0.00724501
0.0139961
-0.0200443
-0.0161167
-0.00506882
-0.0166642
-0.0200189
-0.0160753
-0.00614508
0.000175207
-0.000714366
0.00458595
0.0336808
-0.00787634
0.0399282
0.0416747
0.0670049
0.000112987
0.0279182
0.0167352
0.00967805
0.0718556
0.0524227
0.00416377
-0.043492
0.0757597
0.0934523
-0.019491
0.0603164
-0.0165203
0.0717349
0.0406774
0.027789
0.0302902
0.0307539
0.0349892
0.0269463
0.0298047
0.0386519
0.0277931
0.0246812
0.0382627
0.0235357
0.0429407
0.0483379
0.0201727
0.0288138
0.0328963
0.0104587
0.0327131
0.0137849
0.026105
0.0401775
0.0263388
0.0266178
0.0228145
0.0289067
0.0167601
0.0299574
0.0037965
0.0284923
0.0581603
0.0496564
0.067252
0.0576445
-0.00187731
0.0519058
0.0596133
0.0619806
0.0646472
0.0467028
-0.0293556
0.0708929
0.00717595
-0.0101241
0.00431353
0.0166688
-0.00247029
0.0112814
-0.0115643
-0.00365153
0.0114749
-0.0178491
-0.00107308
-0.0126673
0.025793
0.0135314
0.0155263
0.0115147
0.0175694
0.0559933
0.0635686
0.0421546
-0.00883118
0.0720593
0.0587952
0.0446292
0.0436685
0.017831
0.0196508
0.0378231
0.0532542
0.054487
-0.00336052
-0.0119706
-0.0136897
0.00126936
-0.00667305
0.00103454
0.000112084
0.00723864
1.64633e-06
0.00723231
0.0104977
0.00997971
0.00861925
0.0169539
0.0218102
0.0130048
0.000579972
0.000506057
0.00675951
-0.00177237
0.00665259
0.00415494
0.00851008
0.00758392
-0.0102986
-0.0114164
-0.0227704
-0.0184221
0.00164763
-0.0209811
-5.55748e-06
-0.0179206
0.000885851
0.00244125
0.00221832
0.0876425
0.0142418
0.0247897
0.032031
0.00840762
0.0550536
0.011437
0.00536778
0.0211853
-0.00139251
0.0179592
0.00809682
0.0303912
0.0998288
0.0581168
0.0413697
0.0208676
0.0334077
0.0402939
0.0700713
0.0626896
0.0637498
0.0729225
0.0636865
0.0536629
-0.0137624
0.0533001
0.0645738
0.0614906
0.0404288
0.0043584
0.0301603
0.0320936
0.0230254
0.0185825
0.0512345
0.047464
0.0548325
0.00832395
0.0518808
-0.0133366
0.0652481
0.0441016
0.0255844
0.0327159
0.0269977
0.0475712
0.00592957
0.0442779
0.0165254
0.0338103
0.0111759
0.0550916
0.0593822
0.0285556
0.0433855
-0.00636352
-0.00539579
0.00789247
-0.00461591
0.0102528
0.00679373
0.00471583
0.00732026
0.00393217
-0.0147284
-0.0114748
0.0220994
-0.00318006
-0.0167916
-0.0173831
0.040762
0.0280089
-0.00195434
0.0205197
-0.00695657
0.0644425
0.0220424
0.0429622
0.0659246
0.105299
-0.0616433
0.123931
0.0543859
-0.00833954
0.073644
-0.0296631
0.0690377
0.0249965
0.0487795
0.00392282
-0.0154617
-0.0107667
-0.00327773
0.00368307
0.0235678
0.019346
0.0181817
0.0034465
0.00194474
0.0238172
0.0153362
0.00320215
-0.00107949
0.00216788
0.00350885
-0.00242132
0.0025479
0.00577662
0.00193203
0.0110046
-0.00813097
0.0174861
0.00234548
-0.0152484
-0.0149839
-0.00879723
-0.0140012
-0.0193736
-0.0155478
0.00479214
-0.0243581
0.00032775
0.0105356
0.00272724
0.0711035
0.0164633
0.0455416
0.029124
0.0623125
0.0824369
-0.00211529
0.022649
0.0150933
0.0832034
0.0174713
-0.0574487
0.118864
0.0561006