/*--------------------------------*- C++ -*----------------------------------*\
| =========                 |                                                 |
| \\      /  F ield         | OpenFOAM: The Open Source CFD Toolbox           |
|  \\    /   O peration     | Version:  v2012                                 |
|   \\  /    A nd           | Website:  www.openfoam.com                      |
|    \\/     M anipulation  |                                                 |
\*---------------------------------------------------------------------------*/
FoamFile
{
    version     2.0;
    format      ascii;
    class       volVectorField;
    location    "0.66";
    object      cellDisplacement;
}
// * * * * * * * * * * * * * * * * * * * * * * * * * * * * * * * * * * * * * //

dimensions      [0 1 0 0 0 0 0];


internalField   nonuniform List<vector> 
11961
(
(-0.000517441 0.00168658 0)
(-0.0012393 0.00405476 0)
(-0.00115584 0.00374756 0)
(-0.000769334 0.00254159 0)
(-0.0023442 0.0076456 0)
(-0.000619596 0.00200296 0)
(-0.00221786 0.00719262 0)
(-0.0019254 0.00637712 0)
(-0.00341397 0.0111517 0)
(-0.00112388 0.00361454 0)
(-0.00304016 0.00982587 0)
(-0.00355657 0.0116957 0)
(-0.00203761 0.00679973 0)
(-0.00456158 0.0148116 0)
(-0.00223847 0.00719346 0)
(-0.000496367 0.00159442 0)
(-0.00306833 0.00987923 0)
(-0.00428091 0.0138442 0)
(-0.00494648 0.0162796 0)
(-0.00373898 0.0124949 0)
(-0.00083327 0.0028051 0)
(-0.00593536 0.019259 0)
(-0.00246133 0.00788206 0)
(-0.000880268 0.00281835 0)
(-0.00428628 0.0137483 0)
(-0.00507847 0.016321 0)
(-0.00507091 0.0168377 0)
(-0.00624774 0.0204121 0)
(-0.00370046 0.0125009 0)
(-0.00202292 0.00686774 0)
(-0.0069485 0.0223789 0)
(-0.00338498 0.0108129 0)
(-0.00174901 0.00559675 0)
(-0.000371195 0.00118767 0)
(-0.0043782 0.0139923 0)
(-0.0063292 0.0202902 0)
(-0.00664616 0.0220949 0)
(-0.00781292 0.0255064 0)
(-0.00505045 0.0171296 0)
(-0.00173468 0.00595726 0)
(-0.00841973 0.0270655 0)
(-0.00342296 0.0109005 0)
(-0.00192608 0.00614525 0)
(-0.000702185 0.00224215 0)
(-0.00525233 0.0167119 0)
(-0.0071058 0.0226158 0)
(-0.00663281 0.0223077 0)
(-0.00808686 0.0266464 0)
(-0.00899696 0.0291163 0)
(-0.00485447 0.0166933 0)
(-0.00328751 0.011405 0)
(-0.000593565 0.00204839 0)
(-0.00933028 0.0297598 0)
(-0.00266718 0.00849321 0)
(-0.00416817 0.0132316 0)
(-0.00141696 0.00452099 0)
(-0.00054416 0.00173734 0)
(-0.00643543 0.0204359 0)
(-0.0049831 0.0158158 0)
(-0.00861527 0.0273425 0)
(-0.00819811 0.0276596 0)
(-0.00976442 0.0321612 0)
(-0.0107438 0.0346737 0)
(-0.00608481 0.0210307 0)
(-0.00317454 0.0111883 0)
(-0.000561589 0.00199598 0)
(-0.0108225 0.0344282 0)
(-0.00265045 0.00841096 0)
(-0.00412584 0.0130522 0)
(-0.00141521 0.00450266 0)
(-0.000191223 0.000610553 0)
(-0.000937836 0.00298769 0)
(-0.00671439 0.0211752 0)
(-0.00568903 0.0179661 0)
(-0.00943559 0.0297414 0)
(-0.00780078 0.0267207 0)
(-0.00987663 0.0329575 0)
(-0.0112711 0.0366911 0)
(-0.0116482 0.0372442 0)
(-0.00589533 0.0206954 0)
(-0.00457657 0.0162542 0)
(-0.0016545 0.00591135 0)
(-0.011772 0.0371418 0)
(-0.00188648 0.00598966 0)
(-0.00334505 0.0105842 0)
(-0.00506959 0.0159769 0)
(-0.000289219 0.000921374 0)
(-0.000646076 0.00205638 0)
(-0.00774501 0.0243055 0)
(-0.0111252 0.0349692 0)
(-0.00906438 0.028441 0)
(-0.00859478 0.0297047 0)
(-0.0117687 0.0392954 0)
(-0.0128666 0.0418136 0)
(-0.0133307 0.0423436 0)
(-0.0072591 0.0255535 0)
(-0.00451733 0.0163725 0)
(-0.00175782 0.00639112 0)
(-0.0133801 0.0421176 0)
(-0.0017467 0.00552839 0)
(-0.00321238 0.0101254 0)
(-0.00513481 0.0161081 0)
(-7.85281e-05 0.000250436 0)
(-0.00059419 0.00188827 0)
(-0.00760104 0.0237045 0)
(-0.0117273 0.0365729 0)
(-0.0103614 0.0323008 0)
(-0.00999998 0.0344732 0)
(-0.0132711 0.0436621 0)
(-0.0116735 0.0396074 0)
(-0.0143357 0.0460874 0)
(-0.0145969 0.0464282 0)
(-0.00737075 0.0263715 0)
(-0.00320545 0.0117524 0)
(-0.00590432 0.0215468 0)
(-0.000676945 0.00250268 0)
(-0.0143827 0.0449525 0)
(-0.00235154 0.00741743 0)
(-0.00116712 0.00369585 0)
(-0.00399198 0.0125329 0)
(-0.00623017 0.0194472 0)
(-6.60029e-05 0.000210162 0)
(-0.000794985 0.00252098 0)
(-0.000255571 0.000813091 0)
(-0.00894592 0.0277194 0)
(-0.0133888 0.0414986 0)
(-0.0104189 0.0322876 0)
(-0.0101659 0.035681 0)
(-0.015089 0.0493288 0)
(-0.0129664 0.0442246 0)
(-0.0157453 0.0507073 0)
(-0.0165179 0.0519869 0)
(-0.00879258 0.0315014 0)
(-0.00281576 0.0105907 0)
(-0.00598076 0.0222773 0)
(-0.00136424 0.00515404 0)
(-0.0144988 0.0449944 0)
(-0.015859 0.0493863 0)
(-0.00202727 0.00637062 0)
(-0.000788943 0.00248939 0)
(-0.00370697 0.0115922 0)
(-0.0057698 0.0179254 0)
(-0.000390058 0.00123595 0)
(-0.000143849 0.000456853 0)
(-0.00894008 0.0275413 0)
(-0.0134001 0.041255 0)
(-0.011785 0.0363068 0)
(-0.0116691 0.0408289 0)
(-0.0162505 0.0532938 0)
(-0.0148083 0.0501117 0)
(-0.0175137 0.0558326 0)
(-0.0180536 0.0568765 0)
(-0.0169352 0.05279 0)
(-0.00879695 0.0322663 0)
(-0.00354383 0.0135595 0)
(-0.0073914 0.0276693 0)
(-0.00489839 0.0186493 0)
(-0.000700506 0.0027164 0)
(-0.0159932 0.0493898 0)
(-0.0010424 0.00327973 0)
(-0.00259749 0.00813197 0)
(-0.000262761 0.000830578 0)
(-0.0044234 0.0137716 0)
(-0.00638557 0.0197232 0)
(-0.0077402 0.0238235 0)
(-0.0106522 0.0325898 0)
(-0.0145882 0.0445664 0)
(-0.0119205 0.036487 0)
(-0.0118837 0.0423537 0)
(-0.0162003 0.0538301 0)
(-0.0182386 0.0590016 0)
(-0.0153118 0.0527685 0)
(-0.0188448 0.0602004 0)
(-0.0201109 0.0626607 0)
(-0.0188804 0.0582775 0)
(-0.010224 0.0375506 0)
(-0.0027581 0.0109005 0)
(-0.00688089 0.0265004 0)
(-0.00540465 0.021034 0)
(-0.00141687 0.00563185 0)
(-0.0172924 0.0530173 0)
(-0.000509586 0.00159718 0)
(-0.0021456 0.00669125 0)
(-0.00386324 0.0119908 0)
(-0.00531962 0.0163974 0)
(-0.00789686 0.0241426 0)
(-0.0105755 0.0321704 0)
(-0.013537 0.0412159 0)
(-0.0162296 0.0493678 0)
(-0.0135439 0.0480493 0)
(-0.0187692 0.0617636 0)
(-0.0198068 0.0641021 0)
(-0.0174363 0.0595821 0)
(-0.0211017 0.0666049 0)
(-0.0204842 0.0632048 0)
(-0.0218588 0.0681249 0)
(-0.0190893 0.0584571 0)
(-0.0101433 0.0384032 0)
(-0.00341969 0.0137896 0)
(-0.00732236 0.0287136 0)
(-0.00472758 0.0188527 0)
(-0.00070383 0.00288918 0)
(-0.0174779 0.0532258 0)
(-0.00107116 0.00334366 0)
(-0.00273919 0.00851052 0)
(-0.00421888 0.01304 0)
(-0.00547441 0.0167874 0)
(-0.00666296 0.0203575 0)
(-0.00912187 0.0277589 0)
(-0.0117649 0.0355589 0)
(-0.0142258 0.0430168 0)
(-0.016811 0.0507582 0)
(-0.0135186 0.0491273 0)
(-0.0195357 0.0649006 0)
(-0.0219347 0.0697433 0)
(-0.0175221 0.061132 0)
(-0.0225117 0.0686984 0)
(-0.0241074 0.0741449 0)
(-0.0208804 0.0633595 0)
(-0.00865021 0.0338063 0)
(-0.0116291 0.0439106 0)
(-0.00308115 0.0128064 0)
(-0.00617666 0.0251814 0)
(-0.00510487 0.0209077 0)
(-0.00113415 0.00479959 0)
(-0.0194182 0.058615 0)
(-0.000555057 0.00172437 0)
(-0.00229895 0.00711321 0)
(-0.00315465 0.00972993 0)
(-0.00427909 0.0131006 0)
(-0.00661256 0.0200915 0)
(-0.00895158 0.0270866 0)
(-0.0112397 0.0338188 0)
(-0.0133541 0.0402665 0)
(-0.0158798 0.0478378 0)
(-0.0183566 0.0550854 0)
(-0.015314 0.0552587 0)
(-0.02232 0.0731808 0)
(-0.0241091 0.0760764 0)
(-0.0196656 0.0679792 0)
(-0.024284 0.0739478 0)
(-0.0226218 0.0685017 0)
(-0.0260965 0.0799805 0)
(-0.0209258 0.0630915 0)
(-0.00809461 0.0329764 0)
(-0.0115755 0.0449385 0)
(-0.00213917 0.00907117 0)
(-0.00409122 0.0172194 0)
(-0.00657546 0.0274586 0)
(-0.00045749 0.00200817 0)
(-0.0195548 0.0586571 0)
(-0.00122429 0.00378732 0)
(-0.00313971 0.00964205 0)
(-0.00434946 0.0132532 0)
(-0.00548706 0.0166633 0)
(-0.00768576 0.0232551 0)
(-0.00994247 0.0299414 0)
(-0.0120673 0.0361033 0)
(-0.0140535 0.0420847 0)
(-0.016759 0.0501407 0)
(-0.0183105 0.054654 0)
(-0.01499 0.055632 0)
(-0.0224168 0.0748951 0)
(-0.0246424 0.0787046 0)
(-0.0262957 0.0813538 0)
(-0.0190405 0.0677232 0)
(-0.0261779 0.0787923 0)
(-0.0244719 0.0733227 0)
(-0.0281419 0.0849935 0)
(-0.0224969 0.0672573 0)
(-0.00869318 0.0361269 0)
(-0.0101791 0.0413649 0)
(-0.0131309 0.0504788 0)
(-0.00210207 0.00925713 0)
(-0.00394194 0.0171698 0)
(-0.00583586 0.0253712 0)
(-0.001088 0.00488372 0)
(-0.0210197 0.0626158 0)
(-0.000704768 0.00216503 0)
(-0.00173489 0.00531202 0)
(-0.00331564 0.0100751 0)
(-0.00526585 0.0159046 0)
(-0.00748846 0.0225313 0)
(-0.00959332 0.0287489 0)
(-0.0132559 0.0396005 0)
(-0.0115217 0.0343023 0)
(-0.0153229 0.0456956 0)
(-0.0164769 0.0491074 0)
(-0.0193912 0.0574859 0)
(-0.0165763 0.0612194 0)
(-0.0248495 0.0822557 0)
(-0.0278687 0.0875492 0)
(-0.0286951 0.0879864 0)
(-0.0207234 0.0733636 0)
(-0.026181 0.0782226 0)
(-0.0279425 0.0838296 0)
(-0.0242196 0.0721853 0)
(-0.0303194 0.0909853 0)
(-0.0223232 0.0664508 0)
(-0.00744544 0.0328314 0)
(-0.0106158 0.04417 0)
(-0.0124824 0.0498814 0)
(-0.00280131 0.0125009 0)
(-0.00464051 0.0205839 0)
(-0.00620903 0.0278419 0)
(-0.000959691 0.00445118 0)
(-0.0214265 0.0634645 0)
(-0.00180793 0.00550932 0)
(-0.00388211 0.0117347 0)
(-0.00618455 0.018602 0)
(-0.00842374 0.0252403 0)
(-0.0103558 0.0308682 0)
(-0.0140005 0.0415713 0)
(-0.0122905 0.0364015 0)
(-0.0152268 0.0451658 0)
(-0.0176558 0.0522491 0)
(-0.0189689 0.056021 0)
(-0.0208138 0.0615159 0)
(-0.0156432 0.0599843 0)
(-0.0275947 0.0889299 0)
(-0.023662 0.0808004 0)
(-0.0288774 0.0911539 0)
(-0.02954 0.0910217 0)
(-0.0306061 0.0924208 0)
(-0.0193644 0.0712717 0)
(-0.0278605 0.0824236 0)
(-0.0295693 0.0877513 0)
(-0.0253944 0.0750735 0)
(-0.0319122 0.0946167 0)
(-0.0236167 0.0697651 0)
(-0.00740494 0.034017 0)
(-0.00975447 0.0428205 0)
(-0.0134214 0.0538014 0)
(-0.00262109 0.01215 0)
(-0.00412352 0.0190701 0)
(-0.00531158 0.0250908 0)
(-0.000328741 0.00154614 0)
(-0.00170372 0.00807707 0)
(-0.0230758 0.0679921 0)
(-0.000784614 0.0023809 0)
(-0.00332859 0.0100058 0)
(-0.00589781 0.0176403 0)
(-0.00829833 0.0247114 0)
(-0.00954641 0.0283213 0)
(-0.0135706 0.0401654 0)
(-0.0122139 0.0359748 0)
(-0.0161549 0.0476604 0)
(-0.0173766 0.051222 0)
(-0.0199273 0.0584527 0)
(-0.0218592 0.0640899 0)
(-0.0167797 0.0644413 0)
(-0.029765 0.095257 0)
(-0.0251561 0.0857655 0)
(-0.0321409 0.0994669 0)
(-0.03224 0.0977788 0)
(-0.0327011 0.0980794 0)
(-0.0206897 0.076136 0)
(-0.0294209 0.0868367 0)
(-0.028067 0.0824731 0)
(-0.0313056 0.0924898 0)
(-0.0269659 0.0792901 0)
(-0.0248808 0.0733033 0)
(-0.0339169 0.0997619 0)
(-0.00832387 0.0382301 0)
(-0.00620137 0.0304587 0)
(-0.0105155 0.0466627 0)
(-0.0123867 0.0520942 0)
(-0.00320555 0.015132 0)
(-0.00444211 0.0211847 0)
(-0.00536217 0.0265691 0)
(-0.000281562 0.00140598 0)
(-0.00161449 0.0079349 0)
(-0.0236809 0.069378 0)
(-0.0017235 0.00519016 0)
(-0.00441313 0.0131932 0)
(-0.00707294 0.0210505 0)
(-0.00989745 0.0291653 0)
(-0.0141624 0.0416697 0)
(-0.0112756 0.0331152 0)
(-0.0133552 0.0391861 0)
(-0.0160279 0.0470758 0)
(-0.0183118 0.0536427 0)
(-0.0195027 0.0570168 0)
(-0.0213532 0.0624232 0)
(-0.0230777 0.0674659 0)
(-0.0152522 0.0616932 0)
(-0.029963 0.096865 0)
(-0.0324539 0.101278 0)
(-0.0235131 0.0831159 0)
(-0.0279937 0.0928935 0)
(-0.0340613 0.10362 0)
(-0.0338884 0.102372 0)
(-0.0346759 0.102726 0)
(-0.0187488 0.0727646 0)
(-0.030994 0.0906282 0)
(-0.0297375 0.0866442 0)
(-0.0325041 0.0951917 0)
(-0.0272719 0.0796516 0)
(-0.0259814 0.0760308 0)
(-0.0350751 0.10311 0)
(-0.0348195 0.101478 0)
(-0.00734361 0.0363419 0)
(-0.00616571 0.0317021 0)
(-0.00986115 0.0462858 0)
(-0.0131545 0.0556865 0)
(-0.00300591 0.0147635 0)
(-0.00366295 0.0182096 0)
(-0.00448253 0.0233804 0)
(-0.000763866 0.00384536 0)
(-0.0022703 0.0113591 0)
(-0.0247471 0.072195 0)
(-0.000931952 0.00278893 0)
(-0.00424109 0.0126073 0)
(-0.00677095 0.0200412 0)
(-0.00886875 0.0260258 0)
(-0.0151371 0.0444179 0)
(-0.0117604 0.0342417 0)
(-0.013675 0.0398898 0)
(-0.0170062 0.0496749 0)
(-0.0180315 0.0526081 0)
(-0.0204035 0.0592229 0)
(-0.0220849 0.0641233 0)
(-0.0242099 0.0702798 0)
(-0.0159099 0.0651229 0)
(-0.0333709 0.105243 0)
(-0.0347485 0.10739 0)
(-0.0254054 0.0890177 0)
(-0.0286123 0.0959524 0)
(-0.0370845 0.111072 0)
(-0.0364573 0.108238 0)
(-0.036671 0.108091 0)
(-0.0198502 0.0772902 0)
(-0.0310324 0.0902706 0)
(-0.0323017 0.0942254 0)
(-0.0301227 0.0872254 0)
(-0.0340232 0.0991193 0)
(-0.0283078 0.0821334 0)
(-0.0262989 0.0765349 0)
(-0.0371964 0.10809 0)
(-0.0365415 0.105617 0)
(-0.00722537 0.0375463 0)
(-0.00545181 0.0302605 0)
(-0.00820123 0.0418393 0)
(-0.011385 0.0518725 0)
(-0.00370816 0.0191486 0)
(-0.00424748 0.0235595 0)
(-0.000796651 0.0041129 0)
(-0.00204877 0.0106147 0)
(-0.0249958 0.0725591 0)
(-0.0257561 0.0749226 0)
(-0.0017689 0.00524846 0)
(-0.00543981 0.0160988 0)
(-0.00320572 0.0094971 0)
(-0.00756373 0.0222512 0)
(-0.00937387 0.0272804 0)
(-0.0155867 0.0454154 0)
(-0.010874 0.0315279 0)
(-0.0130256 0.0378247 0)
(-0.0149104 0.0433397 0)
(-0.0166942 0.0485273 0)
(-0.0188165 0.0545711 0)
(-0.0215242 0.0623166 0)
(-0.0199523 0.0577334 0)
(-0.0233704 0.0675197 0)
(-0.0243153 0.0702385 0)
(-0.0137462 0.0605181 0)
(-0.034636 0.109211 0)
(-0.0372339 0.11295 0)
(-0.0240275 0.0873447 0)
(-0.0318747 0.10404 0)
(-0.0382396 0.114455 0)
(-0.038323 0.113217 0)
(-0.0386764 0.112553 0)
(-0.0175103 0.0729372 0)
(-0.0323433 0.0933379 0)
(-0.0337207 0.0975771 0)
(-0.029491 0.0852654 0)
(-0.0315926 0.09081 0)
(-0.034744 0.100461 0)
(-0.0277975 0.0804115 0)
(-0.037632 0.108623 0)
(-0.0386501 0.111923 0)
(-0.037085 0.106424 0)
(-0.00573417 0.0330898 0)
(-0.00461987 0.0266781 0)
(-0.00738143 0.0412673 0)
(-0.0114295 0.0534702 0)
(-0.00309996 0.0165253 0)
(-0.00357558 0.0204317 0)
(-0.00137835 0.00720544 0)
(-0.00028669 0.00150187 0)
(-0.00241897 0.0128658 0)
(-0.0260106 0.0752159 0)
(-0.000831514 0.00245237 0)
(-0.00527448 0.0155021 0)
(-0.00397005 0.0116704 0)
(-0.00647892 0.0189664 0)
(-0.00838865 0.0243051 0)
(-0.0113087 0.0325054 0)
(-0.0138718 0.0400005 0)
(-0.0151201 0.0436344 0)
(-0.0175318 0.0506383 0)
(-0.0186084 0.0537227 0)
(-0.0224582 0.0645618 0)
(-0.0204966 0.0588889 0)
(-0.0235504 0.0676292 0)
(-0.0257598 0.0737822 0)
(-0.0131846 0.0606771 0)
(-0.0380366 0.117059 0)
(-0.0395615 0.118936 0)
(-0.0261768 0.0937855 0)
(-0.0331279 0.108206 0)
(-0.0411417 0.121158 0)
(-0.0406643 0.118512 0)
(-0.0404806 0.117035 0)
(-0.0178015 0.0754771 0)
(-0.0144518 0.0651169 0)
(-0.0335198 0.0964071 0)
(-0.0324258 0.0931269 0)
(-0.0341181 0.0982128 0)
(-0.0305857 0.0876158 0)
(-0.0317908 0.0908078 0)
(-0.0360894 0.103662 0)
(-0.02866 0.0822701 0)
(-0.0394671 0.112773 0)
(-0.0402441 0.115423 0)
(-0.038549 0.109779 0)
(-0.00509181 0.0326926 0)
(-0.00388401 0.0248651 0)
(-0.00808857 0.0449557 0)
(-0.00567956 0.03644 0)
(-0.0097849 0.0500061 0)
(-0.00312997 0.0174499 0)
(-0.00334941 0.0201918 0)
(-0.00118238 0.0062997 0)
(-0.000599318 0.00319264 0)
(-0.00208152 0.011265 0)
(-0.0268898 0.0772732 0)
(-0.00169361 0.00494726 0)
(-0.00338431 0.00987738 0)
(-0.00679654 0.0197618 0)
(-0.0088607 0.0254507 0)
(-0.0126829 0.0362498 0)
(-0.0102594 0.0293625 0)
(-0.0138234 0.0395771 0)
(-0.0162496 0.0466253 0)
(-0.017428 0.0500377 0)
(-0.0195955 0.0562388 0)
(-0.0224337 0.0641796 0)
(-0.0214937 0.0614812 0)
(-0.0246755 0.0703499 0)
(-0.0258221 0.0735134 0)
(-0.0268414 0.0767545 0)
(-0.0104166 0.0534996 0)
(-0.0399828 0.120707 0)
(-0.0399949 0.122505 0)
(-0.0419068 0.123712 0)
(-0.0307057 0.103946 0)
(-0.0241074 0.0906828 0)
(-0.0382023 0.11957 0)
(-0.0426222 0.124062 0)
(-0.0412831 0.119377 0)
(-0.0423946 0.122947 0)
(-0.0419902 0.120121 0)
(-0.0140681 0.0672074 0)
(-0.020174 0.0820826 0)
(-0.0125928 0.0620967 0)
(-0.0345303 0.0984935 0)
(-0.0338921 0.0965803 0)
(-0.0357594 0.102052 0)
(-0.0302361 0.086308 0)
(-0.0331486 0.0939005 0)
(-0.0366657 0.104541 0)
(-0.0282276 0.0808001 0)
(-0.0405327 0.115608 0)
(-0.0397765 0.112999 0)
(-0.0417282 0.119098 0)
(-0.038856 0.110041 0)
(-0.0038961 0.0286808 0)
(-0.00344138 0.0219367 0)
(-0.00357621 0.0255843 0)
(-0.00643298 0.0418827 0)
(-0.00497993 0.0364617 0)
(-0.00266528 0.0150263 0)
(-0.00298007 0.0179705 0)
(-0.00151115 0.00814615 0)
(-0.000319278 0.00170084 0)
(-0.00224282 0.0124242 0)
(-0.000870457 0.00252398 0)
(-0.00425414 0.0123136 0)
(-0.00583158 0.0168629 0)
(-0.00791194 0.0226404 0)
(-0.0125083 0.0354545 0)
(-0.010938 0.0310428 0)
(-0.0151407 0.0430651 0)
(-0.01628 0.0464034 0)
(-0.0186856 0.0532485 0)
(-0.0197666 0.0563576 0)
(-0.0235643 0.0669046 0)
(-0.0219568 0.0622923 0)
(-0.0246674 0.0699105 0)
(-0.0270413 0.0763758 0)
(-0.0283795 0.080382 0)
(-0.00894359 0.0509828 0)
(-0.0432803 0.128326 0)
(-0.0438107 0.130463 0)
(-0.0441446 0.128921 0)
(-0.0330581 0.110504 0)
(-0.026838 0.0981941 0)
(-0.0400416 0.124603 0)
(-0.0449775 0.129439 0)
(-0.043468 0.124219 0)
(-0.0448525 0.12819 0)
(-0.0436335 0.124063 0)
(-0.0123229 0.0648022 0)
(-0.0185325 0.0802449 0)
(-0.00973922 0.0548904 0)
(-0.0358432 0.101776 0)
(-0.0343833 0.0972837 0)
(-0.0311108 0.0880602 0)
(-0.0335083 0.0942608 0)
(-0.0379999 0.107622 0)
(-0.0292696 0.0829469 0)
(-0.0420453 0.118966 0)
(-0.0412725 0.116179 0)
(-0.0427983 0.121142 0)
(-0.0400988 0.112768 0)
(-0.00286983 0.0272501 0)
(-0.00299639 0.0200973 0)
(-0.0029075 0.0228032 0)
(-0.00652866 0.0441424 0)
(-0.00359213 0.0330684 0)
(-0.00270341 0.0156647 0)
(-0.00289077 0.018128 0)
(-0.00143447 0.00775043 0)
(-0.000553347 0.00294772 0)
(-0.00188738 0.0103145 0)
(-0.0017879 0.00513479 0)
(-0.00346124 0.00994187 0)
(-0.00647692 0.0185874 0)
(-0.0079687 0.0226229 0)
(-0.0134974 0.0379792 0)
(-0.0103332 0.0291058 0)
(-0.0156573 0.0441937 0)
(-0.0175706 0.0497111 0)
(-0.0187475 0.0530397 0)
(-0.0210997 0.0597616 0)
(-0.0232314 0.0656337 0)
(-0.0259445 0.0728868 0)
(-0.0284215 0.0800721 0)
(-0.027144 0.0761584 0)
(-0.0449209 0.131412 0)
(-0.0469407 0.137579 0)
(-0.0460094 0.13266 0)
(-0.0372146 0.119525 0)
(-0.0309893 0.10722 0)
(-0.0251847 0.0960421 0)
(-0.0436392 0.132577 0)
(-0.0461575 0.131486 0)
(-0.0461988 0.13254 0)
(-0.045084 0.128181 0)
(-0.0450702 0.12701 0)
(-0.0142384 0.0709116 0)
(-0.00864546 0.0558675 0)
(-0.021071 0.0872787 0)
(-0.00778228 0.0515538 0)
(-0.037075 0.104385 0)
(-0.0359622 0.10087 0)
(-0.0325261 0.0915163 0)
(-0.030534 0.0860985 0)
(-0.0350964 0.0978888 0)
(-0.0390211 0.109555 0)
(-0.0429489 0.120655 0)
(-0.04269 0.119604 0)
(-0.0412187 0.11556 0)
(-0.0443354 0.124506 0)
(-0.0403202 0.112743 0)
(-0.00267624 0.0289887 0)
(-0.00208893 0.0234371 0)
(-0.00281233 0.0204384 0)
(-0.00234503 0.0220249 0)
(-0.00483746 0.041115 0)
(-0.00258821 0.0326838 0)
(-0.0024878 0.0140977 0)
(-0.00276333 0.0166549 0)
(-0.00106257 0.00568468 0)
(-0.000242237 0.00126719 0)
(-0.00188245 0.0102055 0)
(-0.000930167 0.00264746 0)
(-0.00439599 0.0125233 0)
(-0.00580175 0.0165415 0)
(-0.00892251 0.0251564 0)
(-0.00669019 0.0189585 0)
(-0.0130361 0.0364139 0)
(-0.0150477 0.0422702 0)
(-0.0114455 0.0319718 0)
(-0.0172845 0.0486079 0)
(-0.0201183 0.0564964 0)
(-0.0213774 0.0600898 0)
(-0.0241809 0.0677711 0)
(-0.0257757 0.0719944 0)
(-0.0296181 0.0826058 0)
(-0.0286779 0.0798017 0)
(-0.0476095 0.137209 0)
(-0.0479655 0.140698 0)
(-0.0495959 0.142605 0)
(-0.0480471 0.137464 0)
(-0.0398711 0.126371 0)
(-0.0334943 0.11379 0)
(-0.0280166 0.103523 0)
(-0.0436987 0.134071 0)
(-0.0464541 0.138273 0)
(-0.0481462 0.13585 0)
(-0.0484336 0.137094 0)
(-0.0469999 0.132055 0)
(-0.0466719 0.130803 0)
(-0.0453359 0.127069 0)
(-0.0124401 0.068831 0)
(-0.00579735 0.0505868 0)
(-0.0195773 0.0856095 0)
(-0.00523881 0.0445492 0)
(-0.0387376 0.108449 0)
(-0.0371631 0.104051 0)
(-0.036283 0.101063 0)
(-0.0329587 0.0920122 0)
(-0.03164 0.0884822 0)
(-0.0355062 0.0983007 0)
(-0.0445627 0.124457 0)
(-0.0441836 0.122469 0)
(-0.0424362 0.117902 0)
(-0.0417467 0.115826 0)
(-0.00131373 0.0261598 0)
(-0.00111566 0.0214077 0)
(-0.00254768 0.0187842 0)
(-0.00216769 0.0192983 0)
(-0.00289963 0.035508 0)
(-0.000975554 0.0277011 0)
(-0.00217252 0.0118847 0)
(-0.00259926 0.0148363 0)
(-0.00272838 0.016163 0)
(-0.00114982 0.00604896 0)
(-0.000474233 0.00241882 0)
(-0.00153041 0.00807535 0)
(-0.0020314 0.00572634 0)
(-0.00381418 0.0107651 0)
(-0.00806008 0.0225679 0)
(-0.0066023 0.0185723 0)
(-0.0140175 0.0388795 0)
(-0.0160781 0.044721 0)
(-0.0112195 0.0310656 0)
(-0.0181937 0.0507449 0)
(-0.0204313 0.0569594 0)
(-0.0226652 0.0632733 0)
(-0.0238938 0.0666368 0)
(-0.0268632 0.0743558 0)
(-0.0310081 0.0860323 0)
(-0.0291125 0.0804155 0)
(-0.049447 0.141564 0)
(-0.0522554 0.149725 0)
(-0.0525638 0.149086 0)
(-0.0500097 0.141377 0)
(-0.0380977 0.123674 0)
(-0.0319876 0.11181 0)
(-0.0265765 0.101934 0)
(-0.0470126 0.141353 0)
(-0.0489971 0.144499 0)
(-0.0492488 0.137948 0)
(-0.0501114 0.14096 0)
(-0.0488559 0.13624 0)
(-0.0479604 0.133186 0)
(-0.0471386 0.130897 0)
(-0.00859952 0.0605186 0)
(-0.0155241 0.0771865 0)
(-0.00570555 0.0524967 0)
(-0.00331227 0.043335 0)
(-0.0223748 0.0930518 0)
(-0.00338715 0.0412485 0)
(-0.0400429 0.110853 0)
(-0.0389826 0.107991 0)
(-0.0378159 0.104411 0)
(-0.0343334 0.0951583 0)
(-0.0318599 0.0885542 0)
(-0.0370978 0.101812 0)
(-0.0459748 0.127212 0)
(-0.0457966 0.126186 0)
(-0.0438751 0.121217 0)
(-0.0426076 0.117223 0)
(-0.000485925 0.022394 0)
(-0.000976945 0.0187163 0)
(-0.00269865 0.0170103 0)
(-0.00179861 0.0181753 0)
(-0.00112824 0.0327356 0)
(0.000575074 0.0249813 0)
(-0.00212516 0.0110277 0)
(-0.0025707 0.0137982 0)
(-0.00275411 0.0145894 0)
(-0.000891455 0.00455984 0)
(-0.00023601 0.00115332 0)
(-0.00152293 0.00770969 0)
(-0.00112109 0.00312782 0)
(-0.00513998 0.0144036 0)
(-0.0082867 0.0230092 0)
(-0.0138021 0.038005 0)
(-0.0154676 0.0428242 0)
(-0.0175875 0.0487741 0)
(-0.00979577 0.0270523 0)
(-0.0126038 0.0346488 0)
(-0.0196159 0.0545228 0)
(-0.0219971 0.0608714 0)
(-0.0228986 0.0634332 0)
(-0.025046 0.0692048 0)
(-0.0282363 0.0778447 0)
(-0.0263781 0.0726381 0)
(-0.0321579 0.0883299 0)
(-0.0306915 0.084039 0)
(-0.0519331 0.146399 0)
(-0.0539803 0.154001 0)
(-0.0538311 0.152384 0)
(-0.0543949 0.152383 0)
(-0.0519004 0.14571 0)
(-0.0398766 0.128612 0)
(-0.0354256 0.120081 0)
(-0.0298413 0.110248 0)
(-0.0488103 0.145979 0)
(-0.0521978 0.151105 0)
(-0.0513501 0.142498 0)
(-0.0494728 0.138001 0)
(-0.0519148 0.144515 0)
(-0.0503821 0.138976 0)
(-0.0497343 0.137073 0)
(-0.0480002 0.13232 0)
(-0.00647783 0.0579603 0)
(-0.0152202 0.0784588 0)
(-0.00230462 0.0455332 0)
(-0.000714371 0.0375282 0)
(-0.0200799 0.0895701 0)
(-0.00143398 0.035618 0)
(-0.0417734 0.114753 0)
(-0.0392339 0.108006 0)
(-0.038184 0.104702 0)
(-0.0346816 0.0953998 0)
(-0.033511 0.0923141 0)
(-0.0375257 0.102184 0)
(-0.0475369 0.130796 0)
(-0.0473739 0.129153 0)
(-0.0453602 0.123907 0)
(-0.0446864 0.121818 0)
(0.000709338 0.0200174 0)
(-0.000229731 0.0165684 0)
(-0.00289767 0.0158104 0)
(-0.00205701 0.0166078 0)
(0.000850032 0.0269886 0)
(0.00151782 0.0209188 0)
(-0.00238515 0.0121347 0)
(-0.00181747 0.00904472 0)
(-0.0029511 0.0136952 0)
(-0.00113779 0.00562965 0)
(-0.000526775 0.00244821 0)
(-0.00219247 0.00605621 0)
(-0.0052227 0.0145129 0)
(-0.00690691 0.0191022 0)
(-0.015006 0.0410626 0)
(-0.0160738 0.0441144 0)
(-0.018554 0.0510263 0)
(-0.00987832 0.0269919 0)
(-0.0126342 0.0344159 0)
(-0.02058 0.0566597 0)
(-0.022047 0.0605426 0)
(-0.0244064 0.0671547 0)
(-0.0290958 0.0795396 0)
(-0.0275466 0.0750829 0)
(-0.0336817 0.0921559 0)
(-0.0320493 0.0875167 0)
(-0.030504 0.0830687 0)
(-0.0539849 0.150942 0)
(-0.0575162 0.161229 0)
(-0.0567298 0.158249 0)
(-0.0566644 0.157154 0)
(-0.0538082 0.14933 0)
(-0.0438562 0.137448 0)
(-0.0348781 0.120351 0)
(-0.0278555 0.107666 0)
(-0.0531756 0.154686 0)
(-0.0478552 0.145108 0)
(-0.0543735 0.156307 0)
(-0.0515017 0.142337 0)
(-0.052384 0.144979 0)
(-0.0536567 0.148483 0)
(-0.0522181 0.142936 0)
(-0.050908 0.138988 0)
(-0.0499153 0.136419 0)
(-0.00787164 0.0629546 0)
(-0.00249824 0.0483238 0)
(-0.0122316 0.0729944 0)
(0.0010762 0.0369434 0)
(0.00134418 0.0342047 0)
(0.000150717 0.0332611 0)
(-0.022075 0.0953853 0)
(-0.0429495 0.11674 0)
(-0.0407507 0.110977 0)
(-0.039959 0.108583 0)
(-0.0362528 0.0988712 0)
(-0.0392454 0.105864 0)
(-0.0492816 0.134098 0)
(-0.0492437 0.133415 0)
(-0.0471892 0.128047 0)
(-0.0456891 0.12341 0)
(0.00128424 0.0171519 0)
(-0.00075184 0.0152672 0)
(0.000865731 0.0157567 0)
(-0.00278356 0.0158759 0)
(-0.00327122 0.0144895 0)
(-0.00165543 0.0154906 0)
(0.0026727 0.0241824 0)
(0.00313313 0.017146 0)
(-0.00244892 0.0114623 0)
(-0.00182901 0.00842694 0)
(-0.0027882 0.0122638 0)
(-0.00102769 0.00478993 0)
(-0.000293717 0.00128237 0)
(-0.00108631 0.00297014 0)
(-0.00405222 0.0111927 0)
(-0.00692365 0.0189568 0)
(-0.0152475 0.0413919 0)
(-0.0173372 0.0473156 0)
(-0.020107 0.055122 0)
(-0.0184011 0.0502873 0)
(-0.0113722 0.0308857 0)
(-0.00837956 0.0228106 0)
(-0.0141308 0.038251 0)
(-0.0231823 0.0631466 0)
(-0.0252635 0.0688911 0)
(-0.0288785 0.0784974 0)
(-0.0270362 0.0733177 0)
(-0.0351415 0.0952821 0)
(-0.0336921 0.0909755 0)
(-0.0312586 0.0844164 0)
(-0.0559808 0.154599 0)
(-0.0589908 0.16484 0)
(-0.0593496 0.164396 0)
(-0.0587412 0.16266 0)
(-0.0574927 0.159313 0)
(-0.0583038 0.160068 0)
(-0.0557676 0.153605 0)
(-0.0435725 0.138322 0)
(-0.0389915 0.129659 0)
(-0.0308076 0.11531 0)
(-0.0559832 0.160959 0)
(-0.0521877 0.154607 0)
(-0.0576855 0.162856 0)
(-0.0527013 0.144516 0)
(-0.054601 0.149477 0)
(-0.0553394 0.151548 0)
(-0.0539229 0.14614 0)
(-0.052799 0.142884 0)
(-0.0507474 0.137562 0)
(-0.00519311 0.0590554 0)
(0.000795935 0.0417578 0)
(-0.0134232 0.0778594 0)
(0.00353546 0.0330528 0)
(0.00371728 0.0265793 0)
(0.0021949 0.0279433 0)
(-0.0186201 0.0895985 0)
(-0.0447598 0.120796 0)
(-0.0423679 0.114732 0)
(-0.0406008 0.109394 0)
(-0.0365413 0.0988874 0)
(-0.0396186 0.106015 0)
(-0.0509232 0.136472 0)
(-0.0488137 0.131062 0)
(-0.0477757 0.127737 0)
(0.00277219 0.0150696 0)
(-0.000465615 0.0134706 0)
(0.00146413 0.0129548 0)
(-0.00342544 0.0153073 0)
(-0.00381946 0.0141411 0)
(-0.00217685 0.0146552 0)
(0.00468476 0.0184003 0)
(0.00462766 0.0155019 0)
(-0.00218391 0.0097277 0)
(-0.00141068 0.00626737 0)
(-0.00282789 0.0113114 0)
(-0.000531536 0.00214081 0)
(-0.00236071 0.00640413 0)
(-0.00519068 0.0142015 0)
(-0.0165238 0.0446199 0)
(-0.0175026 0.0473882 0)
(-0.0208274 0.0565662 0)
(-0.0197873 0.053646 0)
(-0.0116045 0.0311927 0)
(-0.00858136 0.0231151 0)
(-0.0144512 0.0387523 0)
(-0.0246891 0.0670575 0)
(-0.0232017 0.0627246 0)
(-0.0301575 0.0813167 0)
(-0.0281287 0.0754354 0)
(-0.035233 0.094876 0)
(-0.0337492 0.0905458 0)
(-0.0325653 0.0874266 0)
(-0.0580605 0.159043 0)
(-0.06235 0.171557 0)
(-0.0625245 0.170825 0)
(-0.0611106 0.166879 0)
(-0.060073 0.164394 0)
(-0.0605541 0.164805 0)
(-0.0576285 0.156947 0)
(-0.0470739 0.146183 0)
(-0.0397847 0.132726 0)
(-0.0367827 0.127723 0)
(-0.0274728 0.110021 0)
(-0.0597097 0.168101 0)
(-0.0556462 0.16109 0)
(-0.0528499 0.156915 0)
(-0.0601716 0.168349 0)
(-0.0549779 0.149234 0)
(-0.05593 0.151695 0)
(-0.0572718 0.155625 0)
(-0.0558236 0.150392 0)
(-0.0541148 0.146022 0)
(-0.0539115 0.144554 0)
(-0.0527979 0.141713 0)
(-0.000876843 0.049781 0)
(-0.00894483 0.0692561 0)
(0.00189057 0.0415403 0)
(0.00629796 0.0267999 0)
(0.006306 0.0202424 0)
(-0.0209664 0.0964374 0)
(-0.0460814 0.123093 0)
(-0.0438777 0.117492 0)
(-0.0425163 0.113391 0)
(-0.0381785 0.102341 0)
(-0.0413304 0.109528 0)
(-0.0527131 0.140361 0)
(-0.0505897 0.135099 0)
(-0.0490296 0.1308 0)
(-0.047969 0.127372 0)
(0.00349498 0.0122237 0)
(0.000579915 0.0122034 0)
(-0.00160666 0.0135206 0)
(0.00273675 0.0113266 0)
(-0.00314017 0.0148566 0)
(-0.00434233 0.0151706 0)
(-0.00397843 0.0131027 0)
(-0.00441149 0.014741 0)
(0.00675608 0.0156714 0)
(0.00625804 0.00998359 0)
(-0.00233729 0.00960756 0)
(-0.00138843 0.00571612 0)
(-0.00308517 0.011014 0)
(-0.00023176 0.000879295 0)
(-0.001 0.00396473 0)
(-0.0022274 0.00599836 0)
(-0.00457047 0.0124161 0)
(-0.0171189 0.0458053 0)
(-0.0187748 0.0504704 0)
(-0.0221577 0.0598194 0)
(-0.0199053 0.0535444 0)
(-0.0132348 0.0353641 0)
(-0.0103123 0.0276095 0)
(-0.00723359 0.0193944 0)
(-0.0161877 0.0431419 0)
(-0.0256142 0.0688956 0)
(-0.0246741 0.0662139 0)
(-0.0305854 0.0818417 0)
(-0.027217 0.0727465 0)
(-0.0297716 0.0793865 0)
(-0.0368048 0.0981256 0)
(-0.0353112 0.0937542 0)
(-0.0331607 0.0882009 0)
(-0.0601076 0.162728 0)
(-0.063303 0.174105 0)
(-0.063947 0.174209 0)
(-0.0639939 0.173254 0)
(-0.0632133 0.171126 0)
(-0.0623908 0.168094 0)
(-0.0597979 0.161504 0)
(-0.0454129 0.14415 0)
(-0.0508241 0.153583 0)
(-0.0401903 0.136271 0)
(-0.030545 0.117799 0)
(-0.0622537 0.173545 0)
(-0.0592815 0.168748 0)
(-0.0571318 0.165766 0)
(-0.0583998 0.156736 0)
(-0.0589895 0.158612 0)
(-0.0579504 0.154383 0)
(-0.0562027 0.149904 0)
(-0.0559218 0.148698 0)
(-0.0536156 0.142805 0)
(0.00120713 0.0479395 0)
(-0.00791073 0.0689444 0)
(0.00631075 0.0318125 0)
(0.00793634 0.0258298 0)
(0.00828337 0.0204797 0)
(0.00842978 0.0174153 0)
(-0.0174951 0.0910159 0)
(-0.0457504 0.121767 0)
(-0.0439148 0.116869 0)
(-0.0428448 0.113312 0)
(-0.038328 0.101953 0)
(-0.0415214 0.109169 0)
(-0.0541805 0.142864 0)
(-0.0522632 0.137998 0)
(-0.0513861 0.135508 0)
(-0.0495542 0.130197 0)
(0.0052117 0.00938591 0)
(0.000639012 0.0103417 0)
(-0.00209471 0.012663 0)
(0.00335171 0.00861831 0)
(-0.00407168 0.0147404 0)
(-0.00544066 0.0156647 0)
(-0.0035918 0.0117718 0)
(-0.00483334 0.0137552 0)
(-0.00528769 0.0148094 0)
(0.00876515 0.00966829 0)
(0.00832253 0.00682998 0)
(-0.00221527 0.00848836 0)
(-0.00180475 0.00692271 0)
(-0.00263708 0.00921807 0)
(-0.000446251 0.0015597 0)
(-0.00117539 0.0042616 0)
(-0.000961663 0.00257748 0)
(-0.00420835 0.0112617 0)
(-0.00549538 0.0147923 0)
(-0.018595 0.0496007 0)
(-0.0225501 0.060265 0)
(-0.0213588 0.0570014 0)
(-0.0136018 0.0359878 0)
(-0.0107049 0.0283292 0)
(-0.00762688 0.0202426 0)
(-0.0166826 0.0439749 0)
(-0.0251818 0.0669697 0)
(-0.0322441 0.0856588 0)
(-0.0278123 0.0736431 0)
(-0.0311101 0.082057 0)
(-0.0367574 0.0973062 0)
(-0.0348179 0.0920171 0)
(-0.0621469 0.166994 0)
(-0.065965 0.179483 0)
(-0.0673499 0.18076 0)
(-0.0666141 0.17831 0)
(-0.0653505 0.174909 0)
(-0.064535 0.172367 0)
(-0.0617992 0.165018 0)
(-0.0486276 0.151338 0)
(-0.0542553 0.161372 0)
(-0.0368473 0.13076 0)
(-0.0460311 0.148045 0)
(-0.0280828 0.114252 0)
(-0.0654004 0.179555 0)
(-0.0619106 0.173575 0)
(-0.0597467 0.170477 0)
(-0.0579264 0.168265 0)
(-0.0602287 0.159926 0)
(-0.0612932 0.163377 0)
(-0.0600279 0.158842 0)
(-0.0580024 0.153778 0)
(-0.0577101 0.151803 0)
(-0.0556825 0.146822 0)
(0.00619909 0.0371925 0)