/*--------------------------------*- C++ -*----------------------------------*\
| =========                 |                                                 |
| \\      /  F ield         | OpenFOAM: The Open Source CFD Toolbox           |
|  \\    /   O peration     | Version:  v2012                                 |
|   \\  /    A nd           | Website:  www.openfoam.com                      |
|    \\/     M anipulation  |                                                 |
\*---------------------------------------------------------------------------*/
FoamFile
{
    version     2.0;
    format      ascii;
    class       surfaceScalarField;
    location    "0.66";
    object      meshPhi;
}
// * * * * * * * * * * * * * * * * * * * * * * * * * * * * * * * * * * * * * //

dimensions      [0 3 -1 0 0 0 0];


internalField   nonuniform List<scalar> 
18811
(
0.00453272
0.000277302
0.00192196
0.0080057
-0.00582077
0.0110011
0.00902833
-0.00661456
0.0195125
0.000408993
0.00960391
0.00838463
0.00935231
0.0142176
0.0120923
0.0112158
-0.00459273
-0.00671486
0.0216452
0.0290689
0.0179505
-0.000829703
-0.0178427
0.0361941
0.0183247
-0.00107491
0.000322666
0.0171263
0.0090121
0.0180492
0.0189195
0.0129197
0.0113861
0.00710577
0.0234722
0.0203434
0.0164176
-0.0123139
0.00811539
-0.0033219
0.0265708
-0.00395767
0.0414126
0.0381652
0.0499931
-0.010734
0.0284315
0.00375304
-0.0285768
0.056423
0.0217901
-0.000689705
0.000100898
0.000595269
0.023743
0.0210663
0.0203543
0.0257213
0.0284393
0.0303981
0.0212669
0.0145841
0.0178172
-0.00420749
0.0299453
0.0351618
-0.0173528
0.021374
0.0139285
-0.00954211
0.00614957
-0.00232277
0.0371618
-0.00866765
-0.0328869
0.0629658
0.0491388
0.0623508
0.0684081
-0.0151429
0.0370464
0.00984391
0.00172107
-0.0279798
0.0711102
0.000735677
0.0241046
0.0010231
-0.0005833
-0.00181663
0.00178925
0.0110101
0.0189971
0.0441561
0.0174584
0.0405947
0.0299149
0.0417564
0.0440094
0.0341301
0.0258159
0.0169681
0.0260196
-0.00903188
0.00763308
0.0369516
0.0412
-0.0131006
0.0179554
-0.0193076
0.0239685
-0.00760863
0.0104846
-6.4629e-05
-0.00394521
-0.0371228
0.0546233
-0.0142594
0.0592295
-0.00816597
0.0500452
0.0799698
0.095866
0.0785674
-0.016546
0.0392377
0.0161922
0.00766554
-0.0314429
0.0800622
0.00163217
0.00304157
0.0144297
0.0022284
-0.000886142
0.000403981
0.056295
0.00778872
0.0350309
0.0556096
-0.00955764
0.0658873
0.0466877
0.0453611
0.0381764
0.0663422
-0.00566267
0.0925688
0.0350979
-0.0150974
0.0391168
0.0158191
-0.0012612
0.0825941
0.0140498
-0.00805957
-0.0148273
0.022335
-0.0207711
0.0410707
0.000189453
0.00370747
-0.00156685
-0.044437
0.0614043
-0.0414094
0.0831964
0.0206792
0.0294679
0.0432671
0.0932971
0.0835475
-0.010434
0.085109
0.0920517
-0.0154485
0.0573192
0.00719601
0.0310129
0.00536217
0.00748065
0.0809314
0.00345125
-0.00652437
0.00121447
0.00643949
0.00506419
0.000855748
-0.00137805
0.000264345
0.0453349
0.0250026
0.0718062
0.0217344
0.0737091
-0.0197179
0.0690221
-0.00220011
0.10349
-0.00944212
0.100596
0.0896828
0.0890056
0.0121142
0.0444868
-0.0111824
0.0252308
0.0405186
-0.00368489
7.25761e-05
0.0853529
0.0785122
0.00773649
-0.00836911
0.0157772
0.00621473
-0.00240232
-0.0151688
0.026356
-0.0265598
0.0382793
-0.00117427
0.000983298
-0.0280872
0.0606841
-0.0507976
0.0802972
0.0294771
0.0660861
0.0458463
0.0654261
0.0317945
0.0791835
0.00453783
0.093353
0.101849
0.0992647
-0.0214047
0.0728697
0.0280758
0.00410332
0.0244727
0.0302291
0.00741372
0.0986403
0.00212821
0.00496608
0.00453818
0.0518301
-0.0072568
0.0315439
0.0389814
0.0293574
-0.0119484
0.099089
0.0750038
-0.0184154
0.0914774
0.0852608
-0.00697002
0.0775433
-0.0200955
0.106855
0.0928302
0.0158018
0.0944373
0.0852418
0.0219287
0.0618848
-0.0143459
0.0254633
-0.0269435
0.0564976
0.00756687
0.000539788
0.0740948
0.0334051
0.00539707
-0.00728861
0.0161432
-0.013108
0.0211299
-0.0285999
0.0265822
-0.0173511
0.0543963
-0.0350607
0.0713862
0.0694518
0.0515022
0.0557426
0.0792616
-0.00793078
0.10066
0.0757916
0.0230997
0.0924119
0.0211665
0.079563
0.109047
0.124783
0.10334
-0.0153556
0.084781
0.0188927
0.0115322
0.053948
0.00749139
0.030748
0.00842262
0.0928548
0.0020018
0.00622399
-0.00400953
0.0361059
-0.00532212
0.0236993
0.025131
0.0176077
0.0594559
-0.00451798
0.0813276
-0.0182037
0.0785908
-0.00576526
0.090549
0.132832
0.16356
-0.0146193
0.11321
0.105771
0.0111089
-0.0040083
0.138029
0.0845007
0.0259276
0.0446187
0.0854088
-0.0078628
0.0243657
-0.0381551
0.0504418
-0.00283752
0.01386
0.000216854
0.065389
0.0333118
0.00551194
0.0152581
-0.00601634
0.0147284
-0.021837
0.0206735
-0.0113729
0.0389702
-0.0213682
0.0507461
-0.036301
0.058193
0.061361
0.0681753
0.0576593
0.0257711
0.0817729
0.104741
0.0393148
0.0963788
0.0793081
0.0339222
0.0857673
0.109276
0.102348
0.0526792
0.0941135
0.0974036
-0.0270437
0.07612
0.0230361
0.0661481
0.0111646
0.0261362
0.0276208
0.00579437
0.0965628
0.00341791
-0.00325552
0.0233279
0.000428736
0.015139
0.0216257
0.0184171
0.0482221
0.0136868
0.000181968
0.0648357
0.0504217
0.0218666
0.0800596
-0.00505164
0.0906291
0.146268
0.14605
0.140991
-0.0216829
0.111639
0.00727606
0.108232
0.0983867
0.0104187
-0.0194066
0.119621
0.0784481
0.0238682
0.047899
0.0330315
0.0750555
0.0643347
-0.00628916
0.0219906
-0.00933788
0.0407556
-0.0221245
0.054498
0.00465276
0.0464133
0.054064
0.00772505
0.00972429
-0.0134434
0.0170361
-0.0114251
0.0294533
-0.0145978
0.039624
-0.0210173
0.0423018
0.0515316
-0.0412598
0.0586472
0.0405917
0.0276551
0.066511
0.0173669
0.0665768
0.0727181
0.0814179
0.0726051
0.136343
0.0193227
0.0830066
0.0640829
0.0471573
0.0686344
0.111693
0.0946008
0.0943805
0.0430148
0.0829606
0.0736639
-0.0350603
0.0722872
0.0155487
0.0622245
0.0823042
0.0173932
0.0229751
0.0229207
-0.00240527
0.0140025
-0.0052883
0.0624648
0.00176917
0.00888202
0.0185183
0.0215775
0.00426741
0.0383522
0.0160082
0.0297873
0.0315085
0.0688455
0.0480604
0.021495
0.068589
0.0648707
-0.0149829
0.0901232
-0.0326352
0.120036
0.124535
0.109618
0.108417
0.112294
-0.0261186
0.0971076
0.0857739
0.0309846
0.0013903
0.0975313
0.0918146
0.00607708
-0.0253637
0.112817
0.0026252
0.0743772
0.0512484
0.0230052
4.66442e-05
0.0641855
0.0697299
-0.00683083
0.0290484
-0.0123462
0.0389196
-0.0278967
0.0543806
0.00198685
0.0119486
0.0680572
0.00669965
-0.00821349
0.0210835
-0.00847284
0.0300754
0.037452
-0.0129719
0.0450919
0.0481977
-0.00981537
0.0439382
0.0367839
0.035063
0.0609159
0.0171264
0.0540949
0.00895531
0.0588268
0.0662009
0.0894167
0.0345596
0.051912
0.0758944
0.0746893
0.0403041
-0.0133468
0.126787
0.103662
0.0314227
0.0678846
0.0911702
-0.0607774
0.0960576
0.0759947
0.0346351
0.0835687
0.0733328
0.0433779
0.0532934
-0.032118
0.0572419
-0.00302949
0.0683452
0.0676258
0.0201774
0.0138169
0.0248575
0.00622977
-0.00394661
0.0205119
0.00136114
0.0689095
0.00318577
0.0163277
0.0207011
0.0486481
0.000761108
-0.00131208
0.0516589
0.0422758
0.0447037
-0.0146887
0.0518786
0.0418743
0.0212583
0.0612853
0.065936
0.062221
-0.0160942
0.0831985
0.0104081
0.0826127
0.112792
0.0852008
0.089885
-0.0606357
0.1057
0.0707522
0.0102296
0.0980339
-0.0262421
0.0949895
0.0220774
0.0724002
0.0569405
0.0421093
-0.000134334
0.0784983
-0.0430932
0.0799306
0.042785
0.087323
-0.0433148
0.0893016
-0.00907145
0.0632832
0.0490938
0.0399652
0.0285495
0.0521979
0.0273277
-0.00380907
0.0442139
-0.0273795
0.0549776
0.008096
0.0210567
0.0272378
0.0428458
0.00816183
0.0202201
-0.000644259
-0.00908756
0.0326785
-0.0332079
0.0378659
0.0390257
0.00292663
0.0425797
0.00537554
0.0412326
0.0360892
0.0175801
0.0594541
0.0527412
0.0107882
0.00727632
0.060595
0.020201
0.0439115
0.0574925
-0.0364906
0.122784
0.080485
0.000744172
0.086981
0.0931414
0.110837
-0.000831169
-0.0218328
0.0962876
0.0803026
0.019346
0.0766136
0.0818421
0.0745209
-0.0225662
0.0666851
0.0372758
0.081198
0.00102943
-0.0185338
0.0635696
0.0146671
0.075314
0.0613823
0.0303115
0.0326202
0.0307528
0.0346768
0.0148082
0.0731067
0.0810476
0.0197131
0.0379638
0.0182568
0.0119812
0.000406554
-0.00513665
0.0304049
0.0484556
0.0257464
0.0107844
0.00206411
0.0133061
0.0133436
0.00250649
0.0383516
0.00279521
-0.00134228
0.0423215
0.0448553
0.0502599
0.0420495
0.0618336
0.0389868
0.0220535
0.0619235
0.0515624
0.0252102
0.0372617
0.0714533
-0.0196969
0.0772288
0.0281885
0.0986662
-0.0187878
0.103006
0.10746
0.125188
0.0957913
0.0992472
-0.00950833
0.0927713
0.0756455
0.00046854
0.0653929
0.0182464
0.0393074
0.0370866
0.0608382
0.0439496
0.02431
0.0782228
0.0664846
0.07834
0.0682043
-0.0452398
0.0773585
0.0656868
0.053648
0.0373364
0.034702
0.0611325
-0.0170513
0.0399992
-0.0247276
0.0445755
0.00986321
0.00443104
0.0163593
0.0755198
0.00625913
-0.00869983
0.0244986
0.00765931
0.0300462
-0.0279274
0.0338725
0.0456986
0.0019168
0.0171
0.035484
0.0612971
0.0291639
0.0349005
0.052723
0.0288818
0.0347293
-0.0121254
0.0653222
0.0676811
0.0363459
0.0371496
0.0583644
0.0180726
0.00153302
0.100662
0.0743868
0.0316998
0.0254886
0.0837394
0.068476
0.0596505
0.0637222
0.0352841
0.00958916
0.0931576
0.0522594
0.0426183
0.0238639
0.0509838
0.0585068
0.0227197
0.0441119
0.0636512
0.0613853
0.058944
0.00377722
0.0850432
0.0347627
0.0680624
0.000665249
0.0613654
0.0190391
0.00792192
0.0617519
0.0515328
0.0273905
0.0178062
0.0465165
0.00464409
0.0494608
-0.0146781
0.0513299
0.0517402
0.0455513
0.0171529
0.0293909
0.0159817
-0.00490085
0.0178903
0.0026427
-0.0065665
0.0252268
0.0229588
0.0545825
0.00806451
0.00229201
0.0199387
0.00569626
0.0367483
0.000443082
0.0181602
0.0305865
0.0414867
0.0568388
0.0217811
0.0421058
0.0589608
0.0421362
-0.0229261
0.0593507
0.044139
0.0378054
0.0317648
0.0761717
0.0617964
0.0631203
0.078569
0.0604345
0.0436531
0.097933
0.0955886
0.0145833
0.0691138
0.123297
-0.0408887
0.0786826
0.0640066
0.0545214
-0.0238329
0.0680117
-0.0384746
0.0616466
0.0655017
0.0187948
-0.0185814
0.0639549
0.0466347
0.0476981
0.0151877
0.0741007
0.0405485
0.0465911
0.0842913
0.0571716
0.070834
0.0722838
0.0394131
-0.0360698
0.0646695
-0.010053
0.0558879
0.0344533
0.0386536
0.00945429
0.0403479
0.0596014
-0.0188074
0.0382415
-0.0160507
0.0329143
0.0138051
0.00697223
0.00836834
0.00661212
0.0168868
0.00686836
0.0260332
-0.0205021
0.0234284
-0.0251066
0.0584027
0.0191447
0.00814218
0.050965
0.0521151
0.0180398
0.0430048
0.0620458
0.037838
0.0230114
-0.00594035
0.0516636
0.0713986
0.0360897
0.0417227
0.0237101
0.040009
0.0411276
0.020294
0.0675424
0.0135875
0.114094
0.0552693
0.0448677
0.0356241
0.0617414
0.00693298
0.0628741
0.042907
0.0826543
0.00799405
0.0722539
-0.0036961
0.0692548
0.0668174
-0.0103824
0.0658896
0.0381429
0.0212688
0.0199488
0.0445737
0.0586988
0.0808658
0.089171
0.0771878
-0.00131274
-0.031265
0.0798202
0.0496444
0.0828651
0.0291086
0.0428565
0.0707728
0.00300454
0.0695986
0.0514357
0.0141653
0.0215878
0.0323984
-0.00665394
0.0414941
-0.00109208
0.0395496
0.0591254
0.019234
0.0383758
0.0235344
0.0266088
0.0142523
0.00180032
0.00839658
0.00177066
0.0244806
0.00811336
0.0027329
0.0187887
0.00782884
0.0322823
-0.00696852
0.0290011
0.0321272
-0.0271229
0.0498987
0.0204842
0.0326246
0.0219189
0.0322849
0.0672546
0.0582829
0.0763524
0.0331081
0.040275
0.0780427
0.0765779
0.0709385
0.0924384
0.0252162
-0.0252091
0.0718946
0.0799719
0.0693299
0.0140856
0.0483603
0.0484505
0.0361754
0.0762546
0.0487795
0.0610318
0.0617525
0.00547041
0.056928
-0.0334059
0.0528216
0.0582313
0.0229641
0.0624165
0.0202179
0.0484581
0.0427308
0.0477053
0.0835542
0.0364215
0.0450925
0.0587528
-0.00760306
-0.0156565
0.0597723
0.056658
0.0555588
0.0613575
0.00964771
0.0739703
0.0394325
-0.0125821
0.0440939
0.040134
0.0261037
0.0255576
0.0311308
0.00822946
0.028245
-0.00535762
0.0304433
-0.00828384
0.0354954
0.0129145
0.00471713
0.0242913
0.00207137
0.00724276
0.0126364
0.00960491
0.0228707
0.00789676
0.0176957
-0.0206925
0.0521014
0.0551881
0.0321367
0.0669613
0.00977763
0.0596627
0.0700922
0.04147
0.0368229
0.0837422
-0.00440961
0.0845334
0.0742443
-0.0200867
0.0928373
0.0292241
0.0659541
-0.0506182
0.0780172
0.053316
0.0218924
0.0603273
0.0169576
0.0531397
-0.00463214
0.0532622
0.0719189
0.0674587
0.0253374
0.0525898
0.075473
-0.017946
0.0806446
0.0450654
0.0682177
0.035172
0.0195324
0.0408169
0.00898701
0.023705
0.0336352
0.0467339
0.0565216
0.0702912
0.0808388
-0.031847
0.0809419
0.0534823
-0.0322017
0.078865
0.0706901
0.0726363
-0.0146132
-0.0190234
0.0756888
0.0562606
0.00900766
0.0288042
0.00877899
0.0334146
0.0222479
0.0177398
0.0479789
0.0374838
0.0359291
0.0204346
0.0227182
0.0285838
0.00734107
0.0112794
0.00332415
0.00505537
0.00203125
0.0147366
0.00793659
0.0042982
0.0215883
-0.0239257
0.0344752
-0.00400049
0.0288962
0.0249361
0.0205763
0.0369178
-0.00930979
0.0443891
0.024218
0.0450046
0.00876553
0.052656
0.0266692
0.0450795
0.0651685
0.0623009
0.023389
0.0125424
0.0740777
0.00181133
0.0741327
0.0444434
0.074999
-0.00692544
0.0595785
0.0201407
-0.0174151
0.0721797
0.0782573
0.0487941
0.0100617
0.0427485
-0.011955
0.0858363
0.0571364
0.0513455
0.00227042
0.0596308
0.045934
0.0362382
-0.02834
0.0745075
0.0410657
-0.00538611
0.0386206
0.0420401
0.0334359
-0.0223419
0.0296729
0.0433419
0.022467
-0.0350087
0.0932023
0.0368764
0.0417574
0.0404506
0.0504246
0.0677258
0.0333151
0.0471289
-0.00596345
0.0782169
0.0681718
0.0626031
-0.0218674
0.0798068
0.0361619
-0.0059696
0.0384878
0.0462973
0.0407592
0.00817915
0.0272719
0.0044925
0.0289128
0.0238118
-0.00201822
0.0245836
-0.00113083
0.0323003
0.0101526
0.00438395
0.0182289
-0.00218333
0.00968876
0.0210575
0.0384417
-0.000820412
-0.0112944
0.0418953
0.0473614
0.0633453
0.0323709
0.035321
0.055582
0.00903242
0.0452945
0.0556717
0.0483785
0.0182318
0.0656639
0.0734514
0.0412265
0.03447
0.0472551
0.0284779
-0.0289827
0.0748972
0.0119238
0.0649984
0.0543605
-0.0430998
0.0645343
0.0446148
0.0122099
0.0671352
0.0617667
-0.00994298
0.052974
0.0340701
0.0538673
0.070863
-0.00570889
0.0579295
0.0491641
0.0013682
0.0594267
-0.0354435
0.072986
0.0405925
-0.0234568
0.065727
0.0235047
0.0128774
-0.00102147
0.0421056
0.0189354
0.0128256
0.0310344
-0.00279669
0.0414328
0.029108
0.0734225
0.0802062
0.0751166
-0.0295788
0.0815527
0.0394762
-0.0336282
0.0822723
0.0560637
0.0689709
0.000610191
-0.018905
0.0831834
0.0626994
0.0031455
0.03136
0.0265873
0.0106769
0.0339634
0.0127858
0.0109653
0.0296305
0.0297506
0.0306176
0.0234907
0.0176151
0.0364097
-0.003323
0.00926757
0.00285825
0.00343684
0.00371959
0.0108729
0.0207419
0.00346604
0.022411
0.00103388
0.042348
0.0499247
0.0286508
0.0362379
0.0386358
-0.0035868
-0.00274379
0.0399866
0.0300287
0.027116
0.0770491
0.0754624
0.0405264
0.0261528
0.0479792
0.0272876
0.0820981
0.0837317
0.0701717
0.0331594
0.0579581
0.0086127
0.0598497
-0.00444977
0.0434604
0.022002
-0.020927
0.0666919
0.00749106
0.0616482
0.052287
0.00198567
0.0504445
-0.0289961
0.0644326
0.0631212
0.0434206
0.0442723
0.0604627
0.0395382
0.0200506
0.0540915
-0.0374935
0.0794536
0.0293306
-0.0109429
0.0327569
0.0302531
0.0295127
-0.016902
0.0276922
0.0116304
0.0249238
0.0429675
0.0822285
-0.00695863
-0.0110989
0.0930333
0.0655928
0.0495013
0.0284159
0.0553408
0.0054811
0.0517765
0.0760485
0.0855567
-0.0159115
0.0799979
0.015817
0.0144179
0.000831552
0.0254414
0.0255422
0.0444555
0.0494164
0.0299996
-0.00261671
0.0300497
0.0125595
0.0163614
0.0220653
0.00209974
0.0192864
-0.000344403
0.0192825
0.0139214
0.00552926
0.00876488
0.0178151
0.0325302
-0.00734699
0.0027932
0.0409864
0.0079891
0.043611
0.0572753
0.0456234
0.038238
0.0321934
0.0444191
0.0321905
0.0464064
0.0498812
0.0273245
0.0755038
0.0789708
0.0353287
0.048303
0.0373154
0.0480296
-0.00557933
0.0769173
-0.0306321
0.0648733
0.0106498
0.0484021
-0.0443706
0.0542608
0.0165056
0.0397402
-0.0276111
0.05039
0.0372117
0.00482777
0.0577599
0.0580506
0.0089754
0.0416331
0.0234149
0.0423339
0.00766514
0.0569047
0.05515
0.0653723
0.029897
0.0316207
0.0703993
0.0501726
0.00500655
0.0493949
0.0312235
0.0822864
0.0236381
0.00736691
0.00218026
0.02596
-0.00216343
0.0304412
0.027671
-0.0205681
0.0302541
0.039235
0.0676852
0.0882574
0.0956659
0.0863425
-0.0371341
0.0940278
0.0796898
-0.00219049
0.0654605
0.0215538
0.0548948
0.0266056
0.025912
0.00623261
0.0188464
0.0180604
0.00676094
0.0140855
0.0308047
0.0187969
0.0316529
0.00989685
0.0201544
0.00808031
0.0196173
0.0225935
0.0221337
0.0151597
-0.0104372
0.030175
0.00185996
0.0050366
0.00707546
0.00529968
0.0134321
-0.000447675
0.0426129
0.0442831
-0.000872741
0.0595242
0.0459264
0.0391737
0.00133335
0.0323367
0.00299017
0.00611951
0.0399557
0.060953
-0.00716207
0.0549863
0.0711752
0.0162646
0.0644833
0.0871642
-0.0210163
0.0703763
0.0572221
0.0383612
0.0418535
0.00767517
0.0421565
0.0131457
-0.051285
0.0687368
-0.0107379
0.0405822
-0.0268795
0.065112
0.0371298
0.0217158
0.042998
0.0160686
0.0521762
0.00135693
0.0398168
-0.033651
0.0581524
0.0510895
0.0200021
0.0379061
0.0226408
0.0463055
0.0203646
0.0794166
0.044735
0.0716861
0.055527
-0.0394859
0.0718244
0.0443976
-0.00294319
0.0243847
0.0362053
0.0206905
0.0143495
0.0110968
0.004822
0.0227369
0.0400848
0.0636228
0.00530909
0.0620259
0.0277245
0.0488349
0.0486166
0.0507194
0.0440333
0.0515244
0.0232254
0.0576212
0.064502
0.0779014
0.0916632
0.0130328
0.011972
0.0239099
0.0286309
0.0191895
0.0342531
-0.0022648
0.0335821
-0.0112191
0.0306161
0.0299104
0.0223183
0.00785506
0.0131471
0.0122869
0.00220338
0.0141199
0.0333603
-0.00249709
0.00293619
0.00823913
0.000962284
0.00998534
0.0217855
0.0157581
0.028226
0.00921352
0.0362365
0.0540524
0.0564838
0.0473123
0.0361562
-0.0211012
0.0273119
0.0575993
0.00649855
0.055609
0.0626937
0.0101712
0.0622629
0.0735379
0.0761175
0.0422405
0.0463989
0.0461598
0.025332
-0.00218573
0.0604033
-0.02455
0.0639553
0.0655819
0.0509704
-0.0333359
0.0472991
0.0363924
-0.0227959
0.0643167
0.0417029
0.0539231
0.0425631
0.0390282
0.0138509
0.00394028
0.0358859
0.032985
0.0260565
0.0131575
0.0389434
0.00163651
0.037095
0.0239537
0.0568839
0.0698421
0.0741924
-0.00113144
-0.0102086
0.0666908
0.0627402
0.06881
0.0192489
0.00302184
0.0189478
0.0156889
0.000627466
0.0180707
0.0134392
-0.0045009
0.0138354
0.0157285
0.0131447
0.0254664
0.0686214
0.0780205
0.0941912
0.0944819
-0.0399928
0.0928523
0.0567469
0.00182176
-0.0129322
0.0786752
0.0663791
0.0814167
0.0117229
0.0186808
0.0204516
0.00314781
0.00361289
0.0252846
0.00102206
0.017552
0.00836616
0.0265232
0.00524101
0.0289578
0.0230006
0.00268281
0.0283939
0.0329712
0.00746022
0.0129009
0.018953
-0.00594037
0.0189281
0.0089059
0.0169649
0.00137438
0.002153
0.00474654
0.00411566
0.00539498
-0.00368529
0.0163363
0.06585
-0.00350773
0.0589283
0.0544526
0.0419054
0.00738096
0.0383746
0.000568945
0.0265822
0.00315186
0.00382952
0.0558749
0.00542195
0.0585288
0.0611772
0.00450229
0.0701928
0.0186189
0.0587845
0.0940304
0.0869129
0.0420413
0.028077
0.0385498
-0.00507748
0.0571378
0.0498865
-0.00183241
0.048409
-0.0111256
0.0529513
0.0121653
-0.0219625
0.0647163
0.0483871
0.00642488
0.00645134
0.0370444
0.0429814
-0.0256908
0.0400495
0.0115379
0.024008
-0.0025788
0.0363313
0.0399234
0.0414436
0.0443804
-0.0113921
0.0696789
0.0490997
0.0643321
0.0668226
-0.00311234
0.0672055
0.0102049
0.0594629
-0.00213269
0.0192569
0.0203298
0.0276869
0.0140008
-0.0012711
0.0131029
0.0109379
0.00242357
0.0117437
0.0364391
-0.020962
0.0910171
0.0585633
0.0442886
0.0512532
0.0558606
0.0413166
0.0527472
0.0677609
0.0818477
-0.00907539
0.0767611
0.0736978
0.10444
0.0191148
0.0242534
0.0204587
0.0340303
0.0322541
0.0066857
0.0230881
-0.00444149
0.0278589
-0.00519975
0.0339332
0.0406799
0.0137694
0.0110639
0.00641424
0.0142616
0.023999
-0.00647023
0.00189301
0.00686159
0.00772875
0.000824579
0.0179828
0.00160209
0.00686339
0.0607263
0.0657377
0.0627481
0.0476871
0.0480957
0.0298141
0.0237365
-0.00103723
0.0586363
0.0641149
0.0808944
0.0307925
0.0405834
0.0912807
0.031066
0.0642035
0.00666702
0.0815116
0.0593898
-0.0162741
-0.0189442
0.0479374
0.0367905
0.0457788
0.0392903
0.0473301
0.0427817
0.0723958
0.0498292
0.0233767
0.044145
0.0173722
0.0259774
0.0450204
-0.00424913
0.0415522
-0.00387312
0.0408836
0.036764
0.00223854
0.0400647
-0.00170042
0.0471471
0.0145886
0.0561038
0.0646557
0.0746748
-0.00899514
0.00421242
0.063628
0.057624
0.0725213
0.0073142
0.00976611
-0.00348546
0.0227056
0.0230007
-0.000350304
0.0125887
0.0110041
-0.000948444
0.0106645
0.00962932
0.0153728
0.0203135
0.104506
0.093792
0.0880456
-0.0400916
0.0940713
0.0391785
0.0296383
0.0465672
0.0362928
0.0438641
0.034261
0.0530874
0.0215528
0.04964
0.0560077
0.00238627
0.0155801
0.0277178
-0.00315488
0.00087138
0.01938
0.00918611
0.0260608
0.0259082
0.00730854
0.0496685
0.0201226
0.023109
0.00640671
0.0279658
0.0474637
0.00601689
0.00642199
0.0126827
0.011338
0.00836076
-0.00120498
0.00346639
0.00605023
0.0123977
0.004767
0.0612831
0.00539087
0.0617308
0.0697126
-0.0142277
0.0638164
0.0359798
-0.0184879
0.0516168
0.00812376
0.0107638
0.0495404
0.0436874
0.0215099
0.0888852
0.0854021
0.0482023
0.0442117
-0.0118312
0.0770659
0.0707464
0.00538557
0.0434171
0.0428924
-0.00248093
0.0490147
-0.0195415
0.059927
0.0519938
-0.00379539
-0.0140234
0.0575586
0.0595051
-0.0349781
0.0861648
-0.0175297
0.0416072
0.0276263
-0.017217
0.0438453
0.0285214
0.0380088
0.0121868
0.0291195
2.76828e-05
0.0418649
0.0397774
0.0392652
0.0169508
0.031308
0.00359248
0.0535898
0.0306382
0.0798017
0.0558425
0.0979878
0.0342726
0.0394272
-0.0119383
0.0171765
-0.00275301
0.0111367
0.00885988
0.00371996
0.0180475
0.00841622
0.00812407
0.00120384
0.00602912
0.00357366
0.0039263
0.00469772
0.0272876
0.0229174
0.0787388
0.0271974
0.0560791
0.0388407
0.0492187
0.030913
0.0640814
0.0772685
0.0814508
0.0885348
0.072134
-0.00634693
0.0634261
0.0163597
0.0148792
0.0137076
0.0166336
0.0247446
0.0341698
0.0503649
0.000995877
0.0204301
-1.70563e-05
-0.00321134
0.0264421
-0.00102234
0.0290483
0.00829642
0.0395969
0.00925695
0.00114314
0.0109043
0.00709427
0.00328035
0.0149628
0.00372954
-0.00364663
0.0196356
0.004884
0.0108996
0.0519869
0.0847227
0.0824856
0.0770602
-0.018812
0.0577091
0.0357402
0.0325387
0.10362
0.0294426
0.0606468
0.0364127
0.0503757
0.0788356
0.0817874
0.039315
0.0385529
0.0227231
0.0488677
-0.00338855
0.0476102
0.0439703
0.0503266
0.0305195
0.0575583
0.0547529
0.0619984
-0.0011172
0.0653814
0.0221856
0.0456744
0.0289403
0.015775
-0.0103581
0.0396343
0.0385613
0.000415793
-0.000401886
0.0299013
-0.0048722
0.0475584
0.0356191
-0.00359367
0.0439175
-0.00530461
0.0373157
0.085284
0.0610526
0.0198049
0.091282
0.0322559
0.0669876
0.0728295
0.00494292
0.0103208
0.00726624
0.00228995
0.0254906
0.00022154
0.0068292
0.00685361
0.0060721
0.00751886
0.00944575
0.0174604
0.031924
0.073784
0.0844276
0.0705284
0.0896429
0.0134784
0.0512206
-0.000773546
0.0788756
0.0815605
0.0817257
0.00781199
0.00730723
0.065654
0.0715426
0.00362315
0.0128315
0.021728
-0.00731644
-0.00294674
0.0200465
-0.00339187
0.0292703
0.0393426
-0.00329796
0.0338523
0.0178476
0.0414632
0.0173946
-0.0103293
0.010521
0.025574
0.0376007
0.010242
0.0302142
0.00466058
0.00347137
0.00779063
0.00788948
0.00309372
0.00715057
0.0049076
0.00199012
0.00202464
0.011068
0.0314096
0.0547773
0.116108
0.0132425
0.0661452
0.0453754
0.0139429
0.0403167
-0.00156995
0.028932
0.00723121
0.0382601
0.0674516
0.0844111
0.10674
0.0056088
0.074132
0.0884549
0.0882242
0.0135565
0.0349755
0.0586061
0.0380106
0.0131236
0.0694754
0.020972
0.037611
-0.000154732
0.056032
0.0631436
0.0657758
-0.0408444
0.0639482
0.0292598
0.0172576
0.0288305
-0.017181
0.0336383
0.0289418
0.0233169
0.0303959
0.0078889
0.0220886
0.0290512
0.0194815
0.0328985
0.039402
0.0211379
0.0170446
0.0455346
0.018358
0.0437508
-0.0380278
0.0586805
0.0544067
0.0462949
0.0214701
0.00826354
0.0654868
0.0106197
-0.00100736
0.0100448
0.00783172
0.0143728
0.00928393
0.00562054
-0.000188654
-0.0020521
0.0070632
0.00430645
0.0253644
0.0100359
0.0204121
0.0662567
0.00839608
0.0572073
0.0279708
0.0153344
0.0559181
0.0593273
0.031251
0.0736139
0.0671635
0.0402786
0.039559
0.0367224
0.0458096
0.0384841
0.0444147
0.0743218
0.00763604
0.0647364
0.0115387
0.0103424
0.0193153
0.0137225
0.0274494
0.0448676
-0.0354315
0.0544863
0.00808563
-0.00219873
0.0194126
0.0135735
-0.00296817
-0.00345226
0.0286004
0.0130619
0.024294
0.0430672
0.006738
0.00543036
0.00196833
0.00852059
0.00382443
0.00254082
0.00711418
0.0018423
0.0111653
0.00452606
0.0281795
0.0898574
0.0608842
0.106762
0.0562919
0.0305941
0.0221917
0.0977277
0.036246
0.0492381
0.0113045
0.0970501
0.11184
0.101116
0.0481862
0.0408468
0.0567739
0.0250772
0.0348362
0.0702778
0.00943358
0.061252
-0.0147397
0.0535015
0.000146502
0.0641334
0.0592669
0.00757259
0.0600378
0.00478551
0.0391289
0.0270862
0.00243304
0.0200506
0.0142058
-0.00686158
0.0366559
-0.00986166
0.0340341
-0.00516093
0.0363267
0.00159083
0.0208298
0.0553185
0.0532429
0.0220235
0.0180785
0.0397404
0.0649774
-0.0327458
0.0773499
0.0266122
0.000944325
0.0544732
0.0552168
0.062623
0.0677295
0.00489473
0.00429618
0.0120128
0.00395896
0.00482741
-0.000369354
0.00637248
0.0182159
0.00376914
0.00539175
0.000306473
0.0251224
0.00147528
0.0185561
0.0748139
0.066404
0.0846895
0.0802866
0.0337622
0.0405253
0.101681
0.0770004
0.0856043
-0.0564772
0.1019
0.0186928
0.0843728
0.00503286
0.00721765
0.0158591
-0.00894321
0.0297224
-0.00702175
0.0217887
-0.0137962
0.043295
0.00728696
0.0382005
0.0325866
0.022893
-0.0279789
0.0375807
0.0112042
0.0156503
0.00419692
0.012598
0.0154698
0.0361595
0.00469929
0.03831
0.0021745
0.00337049
0.00546141
0.00831088
0.000286097
0.00405872
0.00575509
0.0100091
0.0153597
0.0757775
-0.0243482
0.0875967
0.0548151
0.0529495
0.0340167
-0.00958451
0.0428118
0.0148053
0.0248148
0.0739682
0.0909599
0.114171
0.0213412
0.0915811
0.123854
0.0238876
0.0341547
0.0598807
0.0392673
0.0319823
0.0495025
0.0477864
0.0202777
0.0340449
0.0604958
0.0195402
0.0456557
0.0687105
0.070706
0.0348487
0.0290464
0.0229541
-0.0118135
0.0265612
0.0303103
0.0277426
0.0229806
0.0211711
0.0220832
0.0344346
0.0238753
0.0307599
0.0428581
0.000179711
0.0404613
0.0258134
0.0525772
0.0819599
-0.0161407
0.0720539
0.0471578
-0.0125073
0.0813457
-0.000826367
0.0045043
0.00711559
0.00714968
0.00383224
0.0108864
0.00398133
0.00783649
0.00961242
-0.000477312
0.0031967
0.000356255
0.00356544
0.0163914
0.00856249
0.0175726
0.0044908
0.0134273
0.0780941
-0.00235141
-0.0135438
0.0805887
0.0719179
0.0675499
0.0134904
0.109135
0.026431
0.0763911
0.02919
0.0486577
0.0207002
0.0657286
0.0501665
0.052597
0.00766494
0.0774656
-0.00390648
0.0117351
0.0100386
0.0143679
0.0176992
0.0171831
0.0402934
0.0427367
-0.0212422
0.0453318
0.0537235
-0.0142572
-0.00148822
0.0122767
-0.00242503
0.017631
-0.00588292
0.0209074
0.0119323
0.0234702
0.00372542
0.0334492
0.0026862
0.0036427
0.00149369
0.00525266
0.00409017
0.00133911
0.00200687
0.00386143
0.00515133
0.00799571
0.101537
0.0241759
0.0643759
0.0802272
0.128374
-0.0233836
0.0600086
0.0213386
0.0225456
0.105394
0.0405631
0.0745124
-0.0123675
0.105136
0.08847
0.0365485
0.0553898
0.0185653
0.0426279
0.0524004
-0.00752214
0.0579138
-0.000945158
0.0494998
-0.0132676
0.0481592
0.00600953
0.0553809
-0.00461021
0.0509332
0.0567229
0.0129671
0.0177161
0.0540373
-0.00411365
0.0400573
0.0190427
0.0103947
-0.00402939
0.0274219
0.0229582
-0.00699586
0.0383553
-0.00363604
0.032159
-0.0123151
0.0362482
0.0165537
0.00493203
0.0539646
0.0541121
0.0439819
0.0374602
-0.0354653
0.0620094
0.0713936
0.0473925
0.0605846
0.077159
0.00830462
0.0741626
-4.58475e-05
0.00352705
0.00577754
0.0108543
0.00530288
0.00460753
-0.000150586
0.00286809
0.0136176
0.00217757
0.00244008
-0.000232774
0.025184
-0.00273441
0.0203786
-0.00239729
0.015583
0.0865847
0.0792555
0.0993943
0.0513073
0.058904
0.128876
0.0700602
0.0116488
0.0548081
-0.0227314
0.0736174
0.0650182
0.0554529
0.00862039
0.00462668
0.0200285
-0.0106493
0.0268428
-0.0161773
0.0359857
0.0459424
-0.0265887
-0.0112626
0.0521206
-0.00253445
0.0449154
0.0336936
0.0343722
0.0332929
0.00942921
0.0113643
0.0139614
0.00603591
0.0250683
0.0263708
-0.00401385
0.0363069
-6.06579e-05
0.00210015
0.00260962
0.00819507
-0.00223182
0.00426543
-1.93839e-05
0.00153877
0.00306499
0.00956748
0.00155407
0.143364
0.0476965
0.0169787
0.0172208
0.0627127
0.0493349
0.078935
0.0413492
0.0192136
-0.0158808
0.0396745
0.00855548
0.0941142
0.164818
0.142842
0.00898831
0.0473594
-0.0034613
0.0470385
0.0457626
0.0578898
0.0371978
0.0580645
0.0636776
0.0515009
0.0215918
0.0300375
0.0679563
0.0342399
0.0242648
-0.019612
0.0304611
0.00834063
-0.00265788
0.0262442
0.0356154
0.0208274
0.0344352
0.0312205
0.0237622
0.0201206
0.0351554
0.00586881
0.0393057
-0.000747646
0.0392781
0.00981761
0.053073
0.0234187
0.0487044
0.056453
-0.0293235
0.0909084
0.0486988
0.0549229
0.0198983
-0.00062447
0.00318757
0.000158438
0.00457677
-0.000416014
0.010672
0.00464896
-0.00268536
0.0066414
0.0013208
0.0014986
0.0125853
0.00182347
-0.000510919
0.000977832
0.0224593
0.0177079
0.00919445
0.00607183
0.0363856
0.0509203
-0.0119589
0.0920204
0.0883024
0.154376
-0.0224488
0.152906
0.032904
0.0378821
0.0884542
0.00926498
0.0650673
0.0749527
0.092487
-0.00531587
0.0109795
0.0114979
0.0128756
0.0119435
0.049043
0.0396192
0.0572909
-0.0220625
-0.0234863
0.0584424
0.0537955
-0.0179764
0.000311345
0.00849841
0.0120929
-0.00138688
0.0171881
0.00319599
0.0203828
0.0282327
0.00124775
0.0328354
0.00159227
-6.44382e-06
0.00114858
0.00131734
0.00389535
0.00293036
0.00135533
0.00145984
-0.000402283
0.00278803
0.0202728
0.00556876
0.0554644
0.0875801
0.0648952
0.0588463
0.112317
0.134543
-0.0195646
0.0396101
0.0207689
0.0574132
0.10764
-0.0191424
0.163522
0.0448641
0.0210401
0.0270483
0.0683154
0.0303909
0.0283752
0.0684563
0.0188265
0.0402864
0.0190559
0.0454364
0.0345234
0.0176253
0.0652306
0.0165987
0.0522626
-0.00564955
0.0408867
-0.00301439
0.027638
0.0278116
0.035068
0.0234261
0.01326
0.0452743
0.0314814
0.00414707
0.0380703
0.0447499
0.0573536
0.0396308
0.034572
0.0671263
0.0773417
0.06616
0.0419106
0.0499178
0.0874643
0.00953061
0.0458562
0.0624683
0.00234998
1.07124e-05
0.000796888
0.0029173
0.00718321
-0.00116479
0.00519053
0.0048139
-0.00156788
0.00205151
0.00175931
-0.000943742
0.0028542
0.00924042
0.000524492
0.00195427
-0.00176552
0.0200772
0.0025521
0.0098827
0.00778389
0.0116335
0.0158113
-0.0402897
0.0920524
0.0524381