/*--------------------------------*- C++ -*----------------------------------*\
| =========                 |                                                 |
| \\      /  F ield         | OpenFOAM: The Open Source CFD Toolbox           |
|  \\    /   O peration     | Version:  v2012                                 |
|   \\  /    A nd           | Website:  www.openfoam.com                      |
|    \\/     M anipulation  |                                                 |
\*---------------------------------------------------------------------------*/
FoamFile
{
    version     2.0;
    format      ascii;
    class       pointVectorField;
    location    "0.66";
    object      pointDisplacement;
}
// * * * * * * * * * * * * * * * * * * * * * * * * * * * * * * * * * * * * * //

dimensions      [0 1 0 0 0 0 0];


internalField   nonuniform List<vector> 
14482
(
(0 0 0)
(0 0 0)
(0 0 0)
(0 0 0)
(0 0 0)
(0 0 0)
(0 0 0)
(0 0 0)
(0 0 0)
(0 0 0)
(0 0 0)
(0 0 0)
(0 0 0)
(0 0 0)
(0 0 0)
(0 0 0)
(0 0 0)
(0 0 0)
(0 0 0)
(0 0 0)
(0 0 0)
(0 0 0)
(0 0 0)
(0 0 0)
(0 0 0)
(0 0 0)
(0 0 0)
(0 0 0)
(0 0 0)
(0 0 0)
(0 0 0)
(0 0 0)
(0 0 0)
(0 0 0)
(0 0 0)
(0 0 0)
(0 0 0)
(0 0 0)
(0 0 0)
(0 0 0)
(0 0 0)
(0 0 0)
(0 0 0)
(0 0 0)
(0 0 0)
(0 0 0)
(0 0 0)
(0 0 0)
(0 0 0)
(0 0 0)
(0 0 0)
(0 0 0)
(0 0 0)
(0 0 0)
(0 0 0)
(0 0 0)
(0 0 0)
(0 0 0)
(0 0 0)
(0 0 0)
(0 0 0)
(0 0 0)
(0 0 0)
(0 0 0)
(0 0 0)
(0 0 0)
(0 0 0)
(0 0 0)
(0 0 0)
(0 0 0)
(0 0 0)
(0 0 0)
(0 0 0)
(0 0 0)
(0 0 0)
(0 0 0)
(0 0 0)
(0 0 0)
(0 0 0)
(0 0 0)
(0 0 0)
(0 0 0)
(0 0 0)
(0.130689 -0.219693 0)
(0.130921 -0.219492 0)
(0.13117 -0.219275 0)
(0.131439 -0.219042 0)
(0.131729 -0.218791 0)
(0.13204 -0.21852 0)
(0.132376 -0.218229 0)
(0.132737 -0.217916 0)
(0.133126 -0.217578 0)
(0.133545 -0.217214 0)
(0.133996 -0.216823 0)
(0.134482 -0.216402 0)
(0.135005 -0.215948 0)
(0.135446 -0.215351 0)
(0.13591 -0.214697 0)
(0.136409 -0.213994 0)
(0.136875 -0.213193 0)
(0.137358 -0.21232 0)
(0.137821 -0.211353 0)
(0.138287 -0.210297 0)
(0.138724 -0.209136 0)
(0.13914 -0.207868 0)
(0.139531 -0.206489 0)
(0.13989 -0.204991 0)
(0.140212 -0.203367 0)
(0.140485 -0.20161 0)
(0.140711 -0.199714 0)
(0.14088 -0.197671 0)
(0.14099 -0.195474 0)
(0.14103 -0.193114 0)
(0.140995 -0.190582 0)
(0.14088 -0.18787 0)
(0.140677 -0.184968 0)
(0.140377 -0.181866 0)
(0.139974 -0.178553 0)
(0.139458 -0.175018 0)
(0.138822 -0.17125 0)
(0.138056 -0.167237 0)
(0.13715 -0.162966 0)
(0.136095 -0.158424 0)
(0.134879 -0.1536 0)
(0.133492 -0.148478 0)
(0.131921 -0.143046 0)
(0.130154 -0.137291 0)
(0.12818 -0.131198 0)
(0.125985 -0.124753 0)
(0.123555 -0.117945 0)
(0.120878 -0.11076 0)
(0.117939 -0.103185 0)
(0.114726 -0.0952082 0)
(0.111223 -0.0868196 0)
(0.107419 -0.0780095 0)
(0.1033 -0.0687683 0)
(0.0988539 -0.0590899 0)
(0.0940687 -0.0489683 0)
(0.0889342 -0.0384 0)
(0.0834405 -0.0273829 0)
(0.077581 -0.0159194 0)
(0.0713479 -0.00401067 0)
(0.064738 0.00833652 0)
(0.0577488 0.0211137 0)
(0.050381 0.0343092 0)
(0.042637 0.0479092 0)
(0.0345233 0.0618948 0)
(0.0260476 0.0762469 0)
(0.0172222 0.0909406 0)
(0.00806191 0.105949 0)
(-0.00141667 0.121244 0)
(-0.0111913 0.136791 0)
(-0.0212399 0.152557 0)
(-0.0315356 0.168505 0)
(-0.0420502 0.184595 0)
(-0.0527526 0.200786 0)
(-0.0636111 0.217037 0)
(-0.0745908 0.233305 0)
(-0.085658 0.249548 0)
(-0.0967764 0.265721 0)
(-0.107912 0.281784 0)
(-0.119028 0.297694 0)
(-0.13009 0.313412 0)
(-0.141066 0.328899 0)
(-0.151923 0.34412 0)
(-0.162631 0.35904 0)
(-0.173162 0.373629 0)
(-0.183491 0.38786 0)
(-0.193592 0.401707 0)
(-0.203447 0.41515 0)
(-0.213035 0.428169 0)
(-0.222343 0.440751 0)
(-0.231355 0.452883 0)
(-0.240062 0.464557 0)
(-0.248455 0.475768 0)
(-0.25653 0.486514 0)
(-0.264282 0.496794 0)
(-0.271709 0.506611 0)
(-0.278813 0.51597 0)
(-0.285595 0.524879 0)
(-0.292059 0.533344 0)
(-0.29821 0.541377 0)
(-0.304054 0.548988 0)
(-0.309599 0.556192 0)
(-0.314852 0.563 0)
(-0.319824 0.569427 0)
(-0.324522 0.575488 0)
(-0.328956 0.581196 0)
(-0.333138 0.586569 0)
(-0.337077 0.591619 0)
(-0.340784 0.596364 0)
(-0.344269 0.600817 0)
(-0.347542 0.604993 0)
(-0.350615 0.608906 0)
(-0.353497 0.612572 0)
(-0.356197 0.616001 0)
(-0.358727 0.61921 0)
(-0.361094 0.62221 0)
(-0.363309 0.625012 0)
(-0.36538 0.627631 0)
(-0.367315 0.630074 0)
(-0.369122 0.632354 0)
(-0.370809 0.63448 0)
(-0.372384 0.636463 0)
(-0.373852 0.638311 0)
(-0.375222 0.640034 0)
(-0.376498 0.641637 0)
(-0.377687 0.643131 0)
(-0.378795 0.644522 0)
(-0.379828 0.645817 0)
(-0.380789 0.647022 0)
(-0.381683 0.648142 0)
(-0.382515 0.649185 0)
(-0.38329 0.650155 0)
(-0.38401 0.651057 0)
(-0.38468 0.651894 0)
(-0.385303 0.652674 0)
(-0.385882 0.653398 0)
(-0.386421 0.654072 0)
(-0.386922 0.654697 0)
(-0.387387 0.655278 0)
(-0.387819 0.655818 0)
(-0.388221 0.65632 0)
(-0.388595 0.656786 0)
(-0.388941 0.657219 0)
(-0.389264 0.657622 0)
(-0.389563 0.657995 0)
(-0.389841 0.658341 0)
(-0.390099 0.658663 0)
(-0.390339 0.658962 0)
(-0.390561 0.65924 0)
(-0.390768 0.659498 0)
(-0.39096 0.659737 0)
(-0.391224 0.65958 0)
(-0.391457 0.659441 0)
(-0.39167 0.659315 0)
(-0.391872 0.659195 0)
(-0.392067 0.659078 0)
(-0.392263 0.658962 0)
(-0.392464 0.658842 0)
(-0.392678 0.658715 0)
(-0.392911 0.658576 0)
(-0.393175 0.65842 0)
(-0.393056 0.658137 0)
(-0.392928 0.657832 0)
(-0.39279 0.657504 0)
(-0.392642 0.657151 0)
(-0.392482 0.65677 0)
(-0.39231 0.65636 0)
(-0.392125 0.65592 0)
(-0.391925 0.655444 0)
(-0.39171 0.654933 0)
(-0.391479 0.654382 0)
(-0.39123 0.65379 0)
(-0.390962 0.653152 0)
(-0.390673 0.652466 0)
(-0.390362 0.651727 0)
(-0.390027 0.650932 0)
(-0.389667 0.650078 0)
(-0.38928 0.649158 0)
(-0.388863 0.64817 0)
(-0.388415 0.647106 0)
(-0.387932 0.645962 0)
(-0.387413 0.644734 0)
(-0.386855 0.643413 0)
(-0.386255 0.641994 0)
(-0.38561 0.640468 0)
(-0.384916 0.638831 0)
(-0.384171 0.637073 0)
(-0.383371 0.635186 0)
(-0.382511 0.63316 0)
(-0.381588 0.630988 0)
(-0.380597 0.628658 0)
(-0.379533 0.626161 0)
(-0.378392 0.623484 0)
(-0.377168 0.620618 0)
(-0.375856 0.617549 0)
(-0.37445 0.614265 0)
(-0.372944 0.610753 0)
(-0.371331 0.606998 0)
(-0.369606 0.602988 0)
(-0.36776 0.598706 0)
(-0.365788 0.594139 0)
(-0.363681 0.589269 0)
(-0.361431 0.584082 0)
(-0.35903 0.57856 0)
(-0.356472 0.572688 0)
(-0.353746 0.566449 0)
(-0.350846 0.559828 0)
(-0.347762 0.552807 0)
(-0.344487 0.545371 0)
(-0.341011 0.537506 0)
(-0.337327 0.529195 0)
(-0.333427 0.520427 0)
(-0.329304 0.511188 0)
(-0.32495 0.501468 0)
(-0.320358 0.491256 0)
(-0.315524 0.480547 0)
(-0.310442 0.469335 0)
(-0.305107 0.457617 0)
(-0.299518 0.445393 0)
(-0.293671 0.432666 0)
(-0.287568 0.419443 0)
(-0.281208 0.405734 0)
(-0.274593 0.39155 0)
(-0.267728 0.376911 0)
(-0.260618 0.361836 0)
(-0.25327 0.34635 0)
(-0.245694 0.330482 0)
(-0.237899 0.314265 0)
(-0.229898 0.297735 0)
(-0.221704 0.28093 0)
(-0.213333 0.263893 0)
(-0.2048 0.246671 0)
(-0.196123 0.229309 0)
(-0.187322 0.211858 0)
(-0.178415 0.194369 0)
(-0.169424 0.176891 0)
(-0.160368 0.159479 0)
(-0.151269 0.142181 0)
(-0.142148 0.125049 0)
(-0.133027 0.10813 0)
(-0.123926 0.0914721 0)
(-0.114867 0.0751174 0)
(-0.10587 0.0591079 0)
(-0.0969525 0.0434789 0)
(-0.0881352 0.0282664 0)
(-0.0794346 0.0134985 0)
(-0.0708674 -0.000799144 0)
(-0.0624494 -0.0146038 0)
(-0.054194 -0.0278995 0)
(-0.0461144 -0.0406716 0)
(-0.0382217 -0.0529113 0)
(-0.0305259 -0.0646126 0)
(-0.0230355 -0.0757733 0)
(-0.0157582 -0.0863934 0)
(-0.00869845 -0.096479 0)
(-0.0018618 -0.106035 0)
(0.00474911 -0.11507 0)
(0.0111323 -0.123596 0)
(0.0172872 -0.131627 0)
(0.0232139 -0.139174 0)
(0.0289141 -0.146255 0)
(0.0343898 -0.152886 0)
(0.0396441 -0.159083 0)
(0.0446807 -0.164865 0)
(0.0495043 -0.17025 0)
(0.0541195 -0.175254 0)
(0.0585318 -0.179897 0)
(0.0627466 -0.184196 0)
(0.0667703 -0.188169 0)
(0.0706088 -0.191832 0)
(0.0742683 -0.195203 0)
(0.0777555 -0.198298 0)
(0.0810765 -0.201132 0)
(0.0842377 -0.203721 0)
(0.0872451 -0.206078 0)
(0.0901053 -0.208218 0)
(0.092824 -0.210154 0)
(0.0954074 -0.211897 0)
(0.0978606 -0.213461 0)
(0.100189 -0.214857 0)
(0.102397 -0.216095 0)
(0.10449 -0.217186 0)
(0.106473 -0.218139 0)
(0.108349 -0.218965 0)
(0.110123 -0.219671 0)
(0.111798 -0.22027 0)
(0.113378 -0.220761 0)
(0.114866 -0.221161 0)
(0.116265 -0.221476 0)
(0.117577 -0.221716 0)
(0.118806 -0.221885 0)
(0.119956 -0.22198 0)
(0.121028 -0.222035 0)
(0.122025 -0.222027 0)
(0.122952 -0.221999 0)
(0.123808 -0.221896 0)
(0.124603 -0.221801 0)
(0.125339 -0.221698 0)
(0.125987 -0.221455 0)
(0.126589 -0.22123 0)
(0.127148 -0.22102 0)
(0.127667 -0.220825 0)
(0.12815 -0.220645 0)
(0.128598 -0.220477 0)
(0.129014 -0.220321 0)
(0.1294 -0.220176 0)
(0.129759 -0.220041 0)
(0.130092 -0.219916 0)
(0.130402 -0.2198 0)
(-0.0543295 0.172156 0)
(-0.0659995 0.195944 0)
(-0.0641727 0.190675 0)
(-0.0790095 0.216612 0)
(-0.0693237 0.197363 0)
(-0.0675588 0.195688 0)
(-0.103958 0.251706 0)
(-0.0997383 0.245822 0)
(-0.111316 0.265245 0)
(-0.0337723 0.12298 0)
(-0.0244036 0.10524 0)
(-0.0336283 0.125244 0)
(-0.0513709 0.180852 0)
(-0.0471371 0.175159 0)
(-0.0675772 0.210614 0)
(-0.0311834 0.124936 0)
(-0.0236815 0.112692 0)
(-0.0351956 0.135112 0)
(-0.12889 0.313656 0)
(-0.129507 0.315401 0)
(-0.136372 0.327397 0)
(-0.114875 0.287605 0)
(-0.11155 0.282588 0)
(-0.121324 0.299694 0)
(-0.144673 0.326605 0)
(-0.160208 0.351609 0)
(-0.156135 0.342719 0)
(-0.0673287 0.185595 0)
(-0.0735938 0.198243 0)
(-0.0726977 0.195332 0)
(-0.0146976 0.0874196 0)
(-0.00891072 0.0797608 0)
(-0.0205326 0.102721 0)
(-0.0322469 0.146679 0)
(-0.034232 0.153337 0)
(-0.104323 0.271767 0)
(-0.0920749 0.25068 0)
(-0.0857477 0.240262 0)
(-0.0107379 0.0926378 0)
(0.00201204 0.0677331 0)
(-0.00549739 0.0853928 0)
(-0.140975 0.336195 0)
(-0.147844 0.348486 0)
(-0.144234 0.34137 0)
(-0.140837 0.329518 0)
(-0.149256 0.344515 0)
(-0.148546 0.341376 0)
(-0.101383 0.255807 0)
(-0.104447 0.259356 0)
(-0.0939617 0.240897 0)
(-0.0607404 0.161607 0)
(-0.0624825 0.163902 0)
(-0.0576171 0.154453 0)
(-0.0161874 0.0734587 0)
(-0.0226572 0.0891052 0)
(-0.02137 0.0828095 0)
(-0.0286642 0.100776 0)
(-0.00511518 0.0529631 0)
(-0.00219455 0.042939 0)
(0.000125397 0.0411133 0)
(0.010048 0.0695156 0)
(0.0044143 0.0775551 0)
(0.0153761 0.0541889 0)
(-0.0369308 0.165275 0)
(-0.0483565 0.183627 0)
(-0.0315595 0.153413 0)
(-0.165295 0.365672 0)
(-0.166123 0.367869 0)
(-0.152692 0.347624 0)
(0.0101532 0.0230297 0)
(0.0166267 0.0103727 0)
(0.0109524 0.0263857 0)
(0.0466513 -0.0266572 0)
(0.0479723 -0.0232782 0)
(0.04198 -0.0131976 0)
(-0.162045 0.375756 0)
(-0.160961 0.373472 0)
(-0.163485 0.378629 0)
(-0.169172 0.392353 0)
(-0.169781 0.39359 0)
(-0.169115 0.391873 0)
(-0.186195 0.403326 0)
(-0.178402 0.39375 0)
(-0.192254 0.413501 0)
(-0.255623 0.495785 0)
(-0.237595 0.47383 0)
(-0.255196 0.496862 0)
(-0.205082 0.41798 0)
(-0.205091 0.420353 0)
(-0.21699 0.43554 0)
(-0.17164 0.346446 0)
(-0.16393 0.338014 0)
(-0.176037 0.355525 0)
(-0.141767 0.309481 0)
(-0.144424 0.310522 0)
(-0.135102 0.297623 0)
(-0.0831057 0.208743 0)
(-0.0778222 0.200251 0)
(-0.0856213 0.21443 0)
(-0.0354045 0.114431 0)
(-0.043442 0.130918 0)
(-0.0360043 0.113495 0)
(-0.00945223 0.0471377 0)
(-0.0134855 0.0580881 0)
(-0.0114603 0.0505287 0)
(0.000549187 0.0301418 0)
(-0.00314087 0.0384399 0)
(-0.00102042 0.0300935 0)
(0.010482 0.00400136 0)
(0.00657917 0.0126535 0)
(0.00712344 0.00534005 0)
(0.00706291 0.084489 0)
(0.0230859 0.0571041 0)
(0.00633474 0.0915243 0)
(-0.142179 0.330398 0)
(-0.123431 0.302327 0)
(-0.136431 0.321796 0)
(-0.0108263 0.121356 0)
(-0.0312809 0.159052 0)
(-0.0277056 0.150803 0)
(-0.144521 0.334667 0)
(-0.1263 0.306681 0)
(-0.14492 0.33474 0)
(-0.168439 0.37566 0)
(-0.184959 0.399731 0)
(-0.177245 0.3903 0)
(0.0559004 -0.0671389 0)
(0.050757 -0.0629251 0)
(0.0567682 -0.0727978 0)
(0.0780017 -0.0847212 0)
(0.0811763 -0.0804236 0)
(0.0747756 -0.0708146 0)
(-0.170216 0.386816 0)
(-0.177981 0.39828 0)
(-0.174506 0.394558 0)
(-0.192108 0.411047 0)
(-0.200918 0.422059 0)
(-0.19721 0.427851 0)
(-0.208353 0.443819 0)
(-0.210577 0.445585 0)
(-0.297282 0.549482 0)
(-0.276999 0.526377 0)
(-0.291437 0.544009 0)
(-0.205518 0.412257 0)
(-0.204414 0.414083 0)
(-0.215809 0.428043 0)
(-0.1727 0.355878 0)
(-0.18494 0.375225 0)
(-0.182547 0.367703 0)
(-0.132251 0.270995 0)
(-0.133845 0.267605 0)
(-0.120943 0.249736 0)
(-0.0782935 0.193268 0)
(-0.0752915 0.188962 0)
(-0.0804106 0.198397 0)
(-0.0484339 0.134722 0)
(-0.0489415 0.134811 0)
(-0.0464376 0.129798 0)
(-0.0301788 0.0952464 0)
(-0.0270486 0.089113 0)
(-0.0320776 0.101251 0)
(-0.0368366 0.113159 0)
(-0.0310798 0.100716 0)
(-0.0115592 0.0578925 0)
(-0.0152902 0.0685815 0)
(-0.0161837 0.0677576 0)
(-0.00241386 0.0173836 0)
(-0.00174344 0.0205035 0)
(-0.00255367 0.0206789 0)
(-0.0117137 0.0556489 0)
(0.0200186 0.0680597 0)
(0.00246769 0.102809 0)
(0.0489292 0.0142164 0)
(0.0368466 0.0385035 0)
(0.0478081 0.0103642 0)
(-0.145876 0.335369 0)
(-0.140808 0.328128 0)
(-0.127754 0.309129 0)
(-0.100794 0.270688 0)
(-0.0891804 0.253664 0)
(-0.100331 0.270255 0)
(-0.154875 0.348673 0)
(-0.194799 0.412285 0)
(-0.208208 0.4294 0)
(-0.208711 0.431535 0)
(0.0852628 -0.122878 0)
(0.0793179 -0.119123 0)
(0.0834407 -0.128088 0)
(0.0703547 -0.0810005 0)
(0.0714827 -0.0895931 0)
(0.0761238 -0.091185 0)
(0.0851125 -0.113464 0)
(0.0917538 -0.121058 0)
(0.089153 -0.110519 0)
(-0.225131 0.459883 0)
(-0.218085 0.452281 0)
(-0.210523 0.441396 0)
(-0.175005 0.398847 0)
(-0.181175 0.407216 0)
(-0.181648 0.409049 0)
(-0.227709 0.460973 0)
(-0.229551 0.461694 0)
(-0.241049 0.476981 0)
(-0.164105 0.379439 0)
(-0.168198 0.38694 0)
(-0.166568 0.383453 0)
(-0.220957 0.463834 0)
(-0.206784 0.446593 0)
(-0.225634 0.471063 0)
(-0.295001 0.545343 0)
(-0.306977 0.558151 0)
(-0.291317 0.53953 0)
(-0.272153 0.500364 0)
(-0.275382 0.499752 0)
(-0.260495 0.482958 0)
(-0.226737 0.413635 0)
(-0.230252 0.424037 0)
(-0.236505 0.429934 0)
(-0.176085 0.349914 0)
(-0.185535 0.361218 0)
(-0.173395 0.342174 0)
(-0.185117 0.368128 0)
(-0.18121 0.359801 0)
(-0.129871 0.271934 0)
(-0.1405 0.287484 0)
(-0.092801 0.204783 0)
(-0.0841225 0.190142 0)
(-0.0873111 0.19827 0)
(-0.046126 0.12818 0)
(-0.0435571 0.123289 0)
(-0.0221963 0.0784542 0)
(-0.0217378 0.0745523 0)
(-0.0429706 0.123599 0)
(-0.0389608 0.113914 0)
(-0.0400977 0.117985 0)
(-0.00875031 0.0414091 0)
(-0.00638201 0.0337842 0)
(-0.00654607 0.0371412 0)
(0.00425409 0.0132037 0)
(-0.00123419 0.0167927 0)
(-0.00461149 0.0288738 0)
(-0.00385347 0.0229417 0)
(-0.00326524 0.0226152 0)
(0.0156738 -0.0319848 0)
(0.0117339 -0.0309298 0)
(0.0195285 -0.0397624 0)
(0.030946 0.0554304 0)
(0.0147016 0.0825463 0)
(0.0121509 0.0915134 0)
(0.0251116 0.0693222 0)
(0.0880721 -0.0661211 0)
(0.0822588 -0.0615208 0)
(0.0906973 -0.0827989 0)
(-0.15901 0.35399 0)
(-0.156217 0.350005 0)
(-0.1652 0.362583 0)
(-0.149619 0.340857 0)
(-0.12886 0.311221 0)
(-0.115049 0.291183 0)
(-0.11997 0.298535 0)
(-0.0822941 0.243686 0)
(-0.0765904 0.234871 0)
(-0.176619 0.379401 0)
(-0.190573 0.398706 0)
(-0.178011 0.381743 0)
(-0.221922 0.441543 0)
(-0.21694 0.434523 0)
(-0.227457 0.448435 0)
(-0.217802 0.44089 0)
(-0.225194 0.451555 0)
(-0.240331 0.470754 0)
(-0.244931 0.477441 0)
(-0.23404 0.463848 0)
(0.0258793 -0.0388896 0)
(0.0241202 -0.0312219 0)
(0.0210121 -0.0320231 0)
(0.0610388 -0.0892823 0)
(0.0603699 -0.0962365 0)
(0.0673807 -0.10382 0)
(0.0686677 -0.0971848 0)
(0.073389 -0.0990757 0)
(0.0690948 -0.0915757 0)
(0.0799103 -0.102102 0)
(0.0761085 -0.098008 0)
(0.0786092 -0.106509 0)
(-0.203756 0.431095 0)
(-0.191533 0.413606 0)
(-0.204217 0.429981 0)
(-0.205755 0.439742 0)
(-0.20935 0.443286 0)
(-0.219652 0.456681 0)
(-0.18648 0.415061 0)
(-0.253993 0.492969 0)
(-0.244073 0.481848 0)
(-0.217919 0.46028 0)
(-0.192541 0.427832 0)
(-0.219561 0.462187 0)
(-0.223233 0.466918 0)
(-0.244043 0.493336 0)
(-0.253799 0.504185 0)
(-0.234381 0.480428 0)
(-0.286977 0.532593 0)
(-0.272146 0.516301 0)
(-0.24521 0.474801 0)
(-0.257955 0.492349 0)
(-0.262781 0.495858 0)
(-0.334077 0.542528 0)
(-0.318639 0.516477 0)
(-0.328362 0.539418 0)
(-0.24719 0.451451 0)
(-0.247828 0.445637 0)
(-0.238348 0.437457 0)
(-0.158442 0.309002 0)
(-0.166752 0.317481 0)
(-0.158116 0.302729 0)
(-0.0984765 0.209738 0)
(-0.0864328 0.190692 0)
(-0.119755 0.235716 0)
(-0.115799 0.233267 0)
(-0.126973 0.251527 0)
(-0.0524731 0.13455 0)
(-0.0510935 0.132797 0)
(-0.0547112 0.139935 0)
(-0.0639374 0.156217 0)
(-0.0679442 0.16265 0)
(-0.0633361 0.153589 0)
(-0.0375421 0.107015 0)
(-0.0381829 0.109386 0)
(-0.0399634 0.112891 0)
(-0.0220676 0.0810229 0)
(-0.0177952 0.0685862 0)
(-0.0255734 0.0825573 0)
(-0.0313023 0.0963164 0)
(-0.0269006 0.0838895 0)
(-0.0215635 0.069708 0)
(-0.0198165 0.0669585 0)
(-0.0089226 0.038534 0)
(-0.0115245 0.0482343 0)
(-0.011601 0.0461774 0)
(-0.00902675 0.0163251 0)
(-0.00516035 0.0125583 0)
(-0.00713693 0.0157449 0)
(-0.00294317 0.0249478 0)
(-0.00410582 0.0319643 0)
(-0.000660798 0.0121707 0)
(-0.00279426 0.0140372 0)
(-0.00310734 0.0122615 0)
(-0.00522683 0.0275542 0)
(-0.00708557 0.0341422 0)
(-0.00632468 0.0294773 0)
(-0.00661347 0.00220743 0)
(-0.00401064 0.00273538 0)
(-0.0125437 0.0128797 0)
(-0.05032 0.195998 0)
(-0.0400142 0.180152 0)
(-0.0488795 0.194079 0)
(-0.0115741 0.134225 0)
(0.00330977 0.109164 0)
(-0.00540549 0.124959 0)
(0.068711 -0.0235145 0)
(0.078657 -0.0454153 0)
(0.0746893 -0.0291885 0)
(-0.173661 0.374306 0)
(-0.181122 0.384677 0)
(-0.170642 0.370233 0)
(-0.120449 0.298607 0)
(-0.130677 0.313637 0)
(-0.136766 0.322337 0)
(-0.0883759 0.251571 0)
(-0.0723364 0.226613 0)
(-0.0776946 0.235902 0)
(-0.0789924 0.239012 0)
(-0.0718345 0.227959 0)
(-0.212977 0.428907 0)
(-0.213941 0.429853 0)
(-0.222077 0.440978 0)
(-0.193863 0.402835 0)
(-0.201326 0.412747 0)
(-0.203524 0.416066 0)
(-0.205477 0.419144 0)
(-0.217211 0.435787 0)
(-0.226685 0.448166 0)
(-0.244178 0.473004 0)
(-0.248888 0.479634 0)
(-0.236232 0.463552 0)
(-0.252184 0.483223 0)
(-0.259127 0.4923 0)
(-0.252101 0.48515 0)
(-0.261123 0.496102 0)
(-0.261421 0.497308 0)
(-0.265906 0.503729 0)
(-0.272495 0.511062 0)
(-0.0173213 -0.00448696 0)
(-0.0071137 -0.0184494 0)
(-0.0134338 -0.00564721 0)
(0.0216741 -0.0781039 0)
(0.0187428 -0.0783076 0)
(0.026888 -0.0874656 0)
(0.0665259 -0.123423 0)
(0.0589074 -0.114652 0)
(0.058833 -0.118847 0)
(0.107144 -0.144185 0)
(0.111844 -0.150206 0)
(0.109942 -0.140496 0)
(-0.271689 0.517049 0)
(-0.281717 0.528965 0)
(-0.278491 0.52554 0)
(-0.207323 0.447787 0)
(-0.212497 0.454095 0)
(-0.207298 0.448135 0)
(-0.278547 0.519074 0)
(-0.268826 0.507988 0)
(-0.226019 0.46995 0)
(-0.256693 0.507889 0)
(-0.240314 0.488107 0)
(-0.263385 0.515344 0)
(-0.278918 0.533106 0)
(-0.252118 0.502054 0)
(-0.2869 0.543532 0)
(-0.310574 0.570325 0)
(-0.306864 0.566236 0)
(-0.196427 0.432357 0)
(-0.198261 0.434594 0)
(-0.207248 0.44602 0)
(-0.316294 0.577815 0)
(-0.32552 0.587965 0)
(-0.313463 0.574437 0)
(-0.331209 0.592769 0)
(-0.344131 0.606038 0)
(-0.338478 0.599705 0)
(-0.304869 0.52076 0)
(-0.309975 0.520863 0)
(-0.29906 0.504452 0)
(-0.224011 0.392925 0)
(-0.217483 0.373606 0)
(-0.210168 0.368791 0)
(-0.124136 0.23877 0)
(-0.138742 0.263448 0)
(-0.129421 0.242874 0)
(-0.1188 0.216799 0)
(-0.10581 0.19523 0)
(-0.113384 0.211456 0)
(-0.103082 0.211775 0)
(-0.0920514 0.193947 0)
(-0.0436043 0.111647 0)
(-0.0448372 0.115659 0)
(-0.0464689 0.118126 0)
(-0.0430523 0.112952 0)
(-0.0416208 0.108597 0)
(-0.0398258 0.105721 0)
(-0.01438 0.0551872 0)
(-0.0171929 0.0615329 0)
(-0.0133527 0.0498695 0)
(-0.0154258 0.0542815 0)
(-0.0170186 0.0571772 0)
(-0.0133487 0.0463399 0)
(-0.0236652 0.073774 0)
(-0.0118232 0.043232 0)
(-0.00517267 0.0106538 0)
(-0.000548554 0.00455393 0)
(-0.00171562 0.00858182 0)
(-0.00586544 0.014714 0)
(-0.00881716 0.0181884 0)
(-0.00550997 0.0154858 0)
(-0.0026497 0.0129915 0)
(-0.00328577 0.0127053 0)
(-0.00288139 0.0152922 0)
(-0.00446558 0.0141076 0)
(-0.0042975 0.0124362 0)
(-0.00238958 0.0129646 0)
(-0.00268355 0.0152129 0)
(-0.00273871 0.0162329 0)
(-0.0537728 0.0762841 0)
(-0.0650836 0.0964271 0)
(-0.0625641 0.0880265 0)
(-0.0317291 0.167562 0)
(-0.0262933 0.158323 0)
(-0.0293335 0.164112 0)
(-0.0389605 0.179011 0)
(-0.0014201 0.119209 0)
(0.00883227 0.102286 0)
(0.00177418 0.114726 0)
(-0.00950244 0.132939 0)
(0.0854332 -0.0445368 0)
(0.0838373 -0.0347685 0)
(0.0765694 -0.0223551 0)
(0.0528429 0.0275023 0)
(0.0492801 0.0333462 0)
(0.0608476 0.0111147 0)
(-0.107647 0.279325 0)
(-0.10345 0.273467 0)
(-0.126478 0.30768 0)
(-0.0677884 0.222126 0)
(-0.189503 0.396645 0)
(-0.177607 0.380244 0)
(-0.185405 0.390847 0)
(-0.214267 0.432631 0)
(-0.205217 0.419917 0)
(-0.267441 0.503258 0)
(-0.2703 0.507602 0)
(-0.224471 0.447795 0)
(-0.226686 0.449594 0)
(-0.234186 0.459997 0)
(-0.254659 0.489817 0)
(-0.084545 0.126308 0)
(-0.0959966 0.143631 0)
(-0.0803448 0.114574 0)
(0.025013 -0.078133 0)
(0.0238725 -0.0711441 0)
(0.0148703 -0.0627545 0)
(0.0319347 -0.104123 0)
(0.0392776 -0.114491 0)
(0.0406795 -0.112664 0)
(0.0844833 -0.139306 0)
(0.085246 -0.145329 0)
(0.0911749 -0.148046 0)
(0.108945 -0.091365 0)
(0.107719 -0.0934097 0)
(0.113509 -0.10706 0)
(0.115259 -0.147035 0)
(0.116891 -0.156268 0)
(-0.261228 0.50285 0)
(-0.26453 0.507856 0)
(-0.252483 0.492927 0)
(-0.245285 0.48552 0)
(-0.252693 0.493895 0)
(-0.259495 0.50264 0)
(-0.222672 0.462963 0)
(-0.233709 0.476195 0)
(-0.232201 0.474788 0)
(-0.251983 0.500021 0)
(-0.247916 0.491755 0)
(-0.255624 0.499473 0)
(-0.222197 0.464698 0)
(-0.219681 0.463124 0)
(-0.215784 0.457782 0)
(-0.213378 0.455381 0)
(-0.212806 0.454328 0)
(-0.20812 0.448451 0)
(-0.257412 0.507852 0)
(-0.247757 0.49703 0)
(-0.238559 0.485598 0)
(-0.338468 0.601132 0)
(-0.327225 0.58915 0)
(-0.292871 0.550151 0)
(-0.293953 0.55111 0)
(-0.281069 0.535899 0)
(-0.334296 0.597423 0)
(-0.317081 0.578483 0)
(-0.330418 0.592975 0)
(-0.372238 0.627604 0)
(-0.368102 0.619469 0)
(-0.369132 0.623283 0)
(-0.318136 0.574487 0)
(-0.304662 0.559132 0)
(-0.30816 0.564103 0)
(-0.304363 0.544894 0)
(-0.317867 0.561207 0)
(-0.314034 0.553393 0)
(-0.309061 0.49966 0)
(-0.291191 0.475719 0)
(-0.309329 0.510852 0)
(-0.30318 0.527058 0)
(-0.296402 0.513606 0)
(-0.235071 0.359076 0)
(-0.226977 0.336191 0)
(-0.219278 0.317092 0)
(-0.168273 0.266379 0)
(-0.173073 0.283805 0)
(-0.184222 0.29988 0)
(-0.142779 0.2632 0)
(-0.157855 0.287537 0)
(-0.148177 0.267056 0)
(-0.0622365 0.136944 0)
(-0.0718991 0.158777 0)
(-0.0713306 0.153318 0)
(-0.0787257 0.159654 0)
(-0.0880563 0.179116 0)
(-0.0925916 0.183138 0)
(-0.0641004 0.147184 0)
(-0.0658602 0.154177 0)
(-0.0707761 0.160596 0)
(-0.0273987 0.0762216 0)
(-0.027838 0.0763397 0)
(-0.0253588 0.0704392 0)
(-0.0560241 0.130879 0)
(-0.0532274 0.122916 0)
(-0.04885 0.115685 0)
(-0.0300973 0.084411 0)
(-0.027925 0.0796394 0)
(-0.0296776 0.0844252 0)
(-0.026188 0.077625 0)
(-0.0238261 0.07068 0)
(-0.0226266 0.0680166 0)
(-0.0178509 0.0583882 0)
(-0.0199899 0.0639483 0)
(-0.0169431 0.0547166 0)
(-0.0149946 0.0471231 0)
(-0.0173312 0.0535197 0)
(-0.0151795 0.04717 0)
(-0.00870303 0.0305647 0)
(-0.0102631 0.0367157 0)
(-0.0113015 0.0389783 0)
(-0.00713534 0.0304007 0)
(-0.00519491 0.0219853 0)
(-0.00509239 0.0231823 0)
(-0.0205135 0.0335327 0)
(-0.0217618 0.0348591 0)
(-0.0175034 0.0290565 0)
(-0.0117985 0.021572 0)
(-0.0134742 0.0236994 0)
(-0.0165256 0.0273316 0)
(-0.00229015 0.0127924 0)
(-0.00184143 0.0096573 0)
(-0.00535252 0.0127565 0)
(-0.00356355 0.0150841 0)
(-0.00307038 0.0178112 0)
(-0.00260285 0.0142374 0)
(-0.00355436 0.0160958 0)
(-0.054628 0.0860823 0)
(-0.0648461 0.102248 0)
(-0.0533458 0.0820271 0)
(-0.0191542 0.145589 0)
(-0.012229 0.136808 0)
(0.0233324 0.07925 0)
(0.0257031 0.0742819 0)
(0.0311683 0.0652881 0)
(0.0747611 -0.0124655 0)
(0.07726 -0.0166466 0)
(0.0708486 -0.00429471 0)
(0.0981382 -0.0597217 0)
(0.103771 -0.0735442 0)
(0.101622 -0.0672207 0)
(0.0407828 0.0428046 0)
(0.0491086 0.0278006 0)
(0.037373 0.0522657 0)
(-0.164606 0.361996 0)
(-0.17769 0.380117 0)
(-0.0588968 0.209178 0)
(-0.236609 0.461308 0)
(-0.236519 0.461802 0)
(-0.226426 0.448354 0)
(-0.0634478 0.0780424 0)
(-0.0619227 0.0718926 0)
(-0.049123 0.0527569 0)
(-0.044479 0.0244922 0)
(-0.0585115 0.044938 0)
(-0.0412437 0.014072 0)
(0.0306163 -0.0891892 0)
(0.0473562 -0.13057 0)
(0.0415832 -0.126154 0)
(0.048845 -0.135107 0)
(0.0914004 -0.14192 0)
(0.0865404 -0.135431 0)
(0.120566 -0.113422 0)
(0.119327 -0.111871 0)
(0.1226 -0.122862 0)
(0.130573 -0.148979 0)
(0.128742 -0.141794 0)
(0.129733 -0.149716 0)
(-0.295041 0.543892 0)
(-0.28006 0.526267 0)
(-0.255237 0.498952 0)
(-0.262644 0.50806 0)
(-0.265596 0.511679 0)
(-0.231846 0.472997 0)
(-0.241712 0.484763 0)
(-0.240351 0.483566 0)
(-0.258117 0.510832 0)
(-0.251621 0.500395 0)
(-0.259879 0.512432 0)
(-0.218083 0.462272 0)
(-0.277035 0.52092 0)
(-0.288042 0.534214 0)
(-0.274415 0.518443 0)
(-0.252267 0.501657 0)
(-0.237301 0.483863 0)
(-0.291389 0.548568 0)
(-0.351205 0.612339 0)
(-0.349886 0.609916 0)
(-0.336579 0.596903 0)
(-0.255163 0.504679 0)
(-0.251888 0.501061 0)
(-0.26699 0.519233 0)
(-0.3806 0.635908 0)
(-0.37907 0.633604 0)
(-0.380222 0.636708 0)
(-0.375229 0.638902 0)
(-0.375349 0.639177 0)
(-0.382554 0.645925 0)
(-0.385071 0.64759 0)
(-0.387174 0.649552 0)
(-0.384827 0.647235 0)
(-0.360312 0.599982 0)
(-0.365059 0.612515 0)
(-0.362883 0.604036 0)
(-0.347912 0.587943 0)
(-0.350415 0.588995 0)
(-0.348048 0.582576 0)
(-0.289352 0.462868 0)
(-0.286708 0.471392 0)
(-0.282914 0.455413 0)
(-0.278135 0.451728 0)
(-0.198144 0.301275 0)
(-0.21164 0.331393 0)
(-0.204814 0.311792 0)
(-0.187837 0.323683 0)
(-0.175526 0.296775 0)
(-0.175312 0.305339 0)
(-0.130758 0.142326 0)
(-0.117882 0.122206 0)
(-0.134409 0.155897 0)
(-0.10769 0.189124 0)
(-0.118617 0.210723 0)
(-0.116005 0.201605 0)
(-0.117191 0.199352 0)
(-0.106667 0.18263 0)
(-0.0772019 0.161042 0)
(-0.0663721 0.137316 0)
(-0.0624005 0.13328 0)
(-0.0843222 0.156178 0)
(-0.0939436 0.175305 0)
(-0.0943389 0.171819 0)
(-0.0946855 0.182933 0)
(-0.0834592 0.1626 0)
(-0.0785917 0.156262 0)
(-0.0361632 0.0910473 0)
(-0.0336679 0.0863593 0)
(-0.0364446 0.0931553 0)
(-0.0386729 0.1 0)
(-0.0366514 0.0962739 0)
(-0.04004 0.103971 0)
(-0.0470627 0.109376 0)
(-0.0534781 0.12086 0)
(-0.04496 0.102332 0)
(-0.0245836 0.0705085 0)
(-0.0258802 0.073193 0)
(-0.0235616 0.0672649 0)
(-0.0229037 0.0666125 0)
(-0.0203916 0.0600137 0)
(-0.0223278 0.0656649 0)
(-0.0185046 0.057652 0)
(-0.0140142 0.0466949 0)
(-0.00969715 0.0329087 0)
(-0.0161184 0.0512938 0)
(-0.0195761 0.0617041 0)
(-0.00984778 0.0387833 0)
(-0.0041289 0.0161463 0)
(-0.00408542 0.0167167 0)
(-0.00593066 0.0235092 0)
(-0.0114391 0.020764 0)
(-0.00913961 0.0168778 0)
(-0.0126887 0.0220278 0)
(-0.0498418 0.0797568 0)
(-0.059894 0.0969223 0)
(-0.00183071 0.00997516 0)
(-0.00214414 0.00751986 0)
(-0.00312573 0.010028 0)
(-0.00262166 0.00993215 0)
(-0.00307966 0.00687296 0)
(-0.0046764 0.00968625 0)
(-0.00440492 0.0100841 0)
(-0.00176671 0.00938273 0)
(-0.00289137 0.0147956 0)
(-0.00368396 0.0176588 0)
(-0.00240219 0.0115627 0)
(-0.106895 0.167608 0)
(-0.0953685 0.14754 0)
(-0.101422 0.163033 0)
(-0.0453249 0.0645622 0)
(-0.0567316 0.084987 0)
(0.0184013 0.0874727 0)
(0.00929073 0.102793 0)
(0.0162719 0.0902746 0)
(0.088481 -0.0389457 0)
(0.0889411 -0.0414165 0)
(0.0935543 -0.0504227 0)
(0.0794075 -0.0225987 0)
(0.0712533 -0.00700486 0)
(0.100081 -0.0662097 0)
(0.0534247 0.0243687 0)
(0.0590017 0.0165556 0)
(0.0641824 0.00737232 0)
(0.0573843 0.0205723 0)
(-0.0745381 0.11079 0)
(-0.073754 0.10601 0)
(-0.0516647 0.0509725 0)
(-0.0423289 0.0376887 0)
(-0.0504555 0.0261622 0)
(-0.0425969 0.00847966 0)
(-0.0372002 0.00331632 0)
(0.010193 -0.0878544 0)
(0.0011318 -0.073577 0)
(-0.000166276 -0.0747157 0)
(0.0830272 -0.166234 0)
(0.0924535 -0.173819 0)
(0.0879397 -0.168281 0)
(0.134695 -0.168345 0)
(0.13567 -0.171408 0)
(0.136792 -0.169041 0)
(0.106785 -0.0795467 0)
(0.112186 -0.0942758 0)
(0.10978 -0.0859977 0)
(0.113484 -0.0951261 0)
(0.110799 -0.0873557 0)
(0.132172 -0.181354 0)
(0.131582 -0.177139 0)
(0.129584 -0.181181 0)
(-0.297042 0.545347 0)
(-0.273092 0.521107 0)
(-0.278601 0.527269 0)
(-0.251677 0.50081 0)
(-0.239989 0.485607 0)
(-0.248511 0.493053 0)
(-0.250916 0.495069 0)
(-0.225553 0.468226 0)
(-0.232906 0.474532 0)
(-0.230125 0.471709 0)
(-0.191056 0.426143 0)
(-0.185571 0.418914 0)
(-0.191327 0.42631 0)
(-0.272817 0.517184 0)
(-0.194823 0.430851 0)
(-0.217972 0.460198 0)
(-0.218541 0.460938 0)
(-0.375865 0.639901 0)
(-0.383268 0.647046 0)
(-0.3768 0.640696 0)
(-0.381207 0.63333 0)
(-0.381654 0.635142 0)
(-0.382043 0.634461 0)
(-0.38161 0.638795 0)
(-0.382141 0.63791 0)
(-0.381512 0.63652 0)
(-0.379403 0.642575 0)
(-0.383421 0.646334 0)
(-0.381302 0.644216 0)
(-0.386092 0.648039 0)
(-0.386635 0.648572 0)
(-0.386069 0.647926 0)
(-0.373663 0.618081 0)
(-0.375577 0.619987 0)
(-0.374224 0.617194 0)
(-0.353298 0.597537 0)
(-0.346548 0.590869 0)
(-0.35382 0.605156 0)
(-0.342335 0.556672 0)
(-0.34171 0.554593 0)
(-0.34412 0.555093 0)
(-0.333113 0.537637 0)
(-0.336592 0.545294 0)
(-0.331528 0.530849 0)
(-0.284671 0.44344 0)
(-0.289292 0.440758 0)
(-0.279487 0.428826 0)
(-0.266726 0.419967 0)
(-0.260604 0.399837 0)
(-0.277047 0.442059 0)
(-0.223495 0.322745 0)
(-0.227119 0.343693 0)
(-0.230371 0.343931 0)
(-0.178172 0.212461 0)
(-0.178495 0.21087 0)
(-0.166561 0.183368 0)
(-0.156668 0.227054 0)
(-0.153449 0.214422 0)
(-0.141128 0.191656 0)
(-0.183288 0.253615 0)
(-0.18863 0.270219 0)
(-0.196542 0.282769 0)
(-0.0875013 0.156569 0)
(-0.0874862 0.153299 0)
(-0.0777224 0.137944 0)
(-0.0778071 0.173539 0)
(-0.0848962 0.183761 0)
(-0.0703307 0.131536 0)
(-0.0740057 0.142084 0)
(-0.0826155 0.155535 0)
(-0.0548607 0.109888 0)
(-0.0698047 0.137602 0)
(-0.0592408 0.11567 0)
(-0.0397075 0.0931059 0)
(-0.0360708 0.083028 0)
(-0.033007 0.086067 0)
(-0.0307382 0.0798347 0)
(-0.0217325 0.0592352 0)
(-0.0235004 0.0644486 0)
(-0.0242763 0.065618 0)
(-0.0445615 0.0974484 0)
(-0.0512358 0.110333 0)
(-0.0422396 0.0904602 0)
(-0.0354965 0.0782275 0)
(-0.0412954 0.0923858 0)
(-0.0225966 0.0652279 0)
(-0.021254 0.0612036 0)
(-0.0207358 0.0591732 0)
(-0.019492 0.0562259 0)
(-0.0179927 0.054334 0)
(-0.0153707 0.0471998 0)
(-0.0192006 0.058349 0)
(-0.00735958 0.0268957 0)
(-0.0101879 0.0322434 0)
(-0.0100019 0.0320736 0)