/*--------------------------------*- C++ -*----------------------------------*\
| =========                 |                                                 |
| \\      /  F ield         | OpenFOAM: The Open Source CFD Toolbox           |
|  \\    /   O peration     | Version:  v2012                                 |
|   \\  /    A nd           | Website:  www.openfoam.com                      |
|    \\/     M anipulation  |                                                 |
\*---------------------------------------------------------------------------*/
FoamFile
{
    version     2.0;
    format      ascii;
    class       surfaceScalarField;
    location    "0.54";
    object      meshPhi;
}
// * * * * * * * * * * * * * * * * * * * * * * * * * * * * * * * * * * * * * //

dimensions      [0 3 -1 0 0 0 0];


internalField   nonuniform List<scalar> 
18811
(
0.00477154
0.000987611
0.00100975
0.0100984
-0.00578734
0.0125497
0.00949552
-0.00536379
0.0211884
0.00169235
0.0133178
0.0115936
0.00808043
0.0120853
0.0169903
0.013504
-0.00460133
-0.0041193
0.0235875
0.031138
0.019495
-0.0023704
-0.0153241
0.0394749
0.0187514
0.00175941
0.00132205
0.0209038
0.014248
0.0140147
0.0261848
0.0184792
0.00841451
0.00702627
0.019357
0.0288082
0.0200099
-0.012393
0.00975957
-0.00326077
0.0256952
0.00146832
0.0465099
0.0408451
0.0542184
-0.0139984
0.0297709
0.00167622
-0.0249922
0.0622772
0.0220754
0.00324201
0.00235631
0.00146979
0.0301287
0.0308148
0.0144609
0.0354595
0.0219981
0.0422719
0.0282921
0.0100151
0.0188122
-0.00566734
0.0240118
0.0480833
-0.0172709
0.0256594
0.0165436
-0.00945625
0.00716332
-0.0020423
0.0401122
-0.00473187
-0.0284561
0.0692255
0.0514215
0.066815
0.0754416
-0.0199369
0.0383743
0.00713676
0.00126688
-0.0215093
0.078506
0.00388043
0.0247217
0.00504569
0.000890445
-0.00191734
0.00250841
0.0190966
0.0238574
0.0578969
0.00830324
0.0533323
0.0211927
0.0561898
0.0360558
0.0504593
0.0322369
0.012667
0.0277109
-0.0122593
0.00818174
0.0313813
0.0550512
-0.012934
0.0211929
-0.0185553
0.0274544
-0.00801868
0.0126209
0.000200455
-0.00348067
-0.038113
0.0641401
-0.0100893
0.063814
0.00162585
0.0483094
0.0854515
0.103743
0.0902305
-0.02294
0.0421962
0.0125325
0.00646502
-0.0215163
0.0848248
0.0042689
0.00734262
0.0224102
0.00261072
-0.000869297
0.00147556
0.0559593
0.0184232
0.0502691
0.0656501
-0.0174679
0.072936
0.0662605
0.0330682
0.030622
0.082988
0.00723158
0.0924901
0.0309225
-0.0202751
0.0418127
0.0168471
-0.00245045
0.101175
0.0161699
-0.00754291
-0.0140737
0.0259492
-0.0191004
0.0475401
0.000431393
0.00462316
-0.00145113
-0.0424688
0.0704539
-0.0373356
0.0949329
0.0353702
0.0418898
0.0389251
0.106605
0.0850605
0.00532986
0.0872167
0.108979
-0.0234763
0.062094
0.00399962
0.0267004
0.00517841
0.0195972
0.0880927
0.00641737
-0.00708761
0.00232192
0.0118795
0.0139528
0.000983702
-0.00107703
0.000505932
0.0410272
0.0388477
0.0648893
0.0413673
0.0845405
-0.0308567
0.0767193
0.0115159
0.104395
-0.0223278
0.11607
0.106447
0.0867217
0.0325263
0.039052
-0.0131004
0.0249758
0.0435121
-0.0101636
-0.00118802
0.0911044
0.0736842
0.0203697
-0.00795012
0.0181539
0.00715379
-0.00247904
-0.0142118
0.0307456
-0.0259114
0.0464899
-0.00126079
0.00130077
-0.0208233
0.0673783
-0.0476148
0.0972684
0.0439476
0.0618306
0.0321024
0.0812657
0.0551701
0.0729494
0.0244431
0.0914862
0.12058
0.11577
-0.0323217
0.0794
0.0322833
0.000568148
0.0172735
0.0287433
0.00718614
0.11754
0.00330284
0.00822335
0.00955083
0.0547895
-0.00199184
0.0418842
0.0305404
0.0446903
-0.000783237
0.105371
0.0812574
-0.0319975
0.101799
0.0961665
0.0101609
0.0771216
-0.0378646
0.119533
0.109068
0.0386782
0.0915606
0.0814946
0.0431869
0.055911
-0.0166485
0.0252254
-0.0320592
0.0551229
0.00154738
-0.000992215
0.0701901
0.0572628
0.00602745
-0.00652786
0.0183218
-0.0124679
0.0253457
-0.0300323
0.0332236
-0.0123796
0.0598676
-0.0301404
0.0818875
0.0871876
0.0398445
0.0743203
0.0729518
0.013066
0.0919745
0.0973557
0.0463116
0.083349
0.0474824
0.0708678
0.129195
0.149571
0.121484
-0.0294967
0.0940443
0.0226746
0.00822648
0.060172
0.000466741
0.0291252
0.0078708
0.105712
0.00306945
0.00889255
-0.00134132
0.0386973
-0.00151277
0.0313361
0.0355854
0.0291049
0.0585604
0.0105437
0.0843567
-0.00735109
0.0866112
-0.0204047
0.099658
0.148957
0.177899
-0.0337958
0.124408
0.104452
0.0337736
0.0177706
0.142726
0.0808231
0.0486956
0.0374533
0.0809336
-0.0114859
0.0253648
-0.0433731
0.049254
-0.0090811
0.0147997
-0.000617084
0.059462
0.052682
0.00600243
0.0165312
-0.00489402
0.018472
-0.0231091
0.0254584
-0.00757228
0.0427626
-0.0173947
0.0573656
-0.0335453
0.0668931
0.0757053
0.0823307
0.0497719
0.0420745
0.0726091
0.0924207
0.0699404
0.0836824
0.108626
0.0571287
0.0749237
0.130841
0.122207
0.0342794
0.11876
0.114864
-0.0347399
0.077331
0.0108968
0.0742957
0.00909765
0.0214632
0.0192398
0.00557323
0.10852
0.0046396
-0.00112946
0.0244242
0.00355316
0.0199831
0.0295983
0.0276308
0.0473389
0.0232736
0.00963491
0.0697992
0.0478902
0.0387954
0.0940632
-0.0210603
0.0981079
0.158806
0.166043
0.153632
-0.0394741
0.1194
0.0274812
0.110656
0.0973941
0.0322142
-0.000599377
0.126627
0.0775997
0.0427998
0.0614334
0.0212607
0.0770743
0.0569324
-0.00813613
0.022312
-0.0136641
0.0410679
-0.0289916
0.0536035
0.00315844
0.040994
0.0718257
0.0082495
0.0117289
-0.0131254
0.0193042
-0.0095191
0.0323008
-0.0111223
0.0441447
-0.0180648
0.0482671
0.0601366
-0.0393541
0.0662283
0.0339103
0.0394116
0.076885
0.0326878
0.0655328
0.0630083
0.110122
0.0581179
0.131258
0.046754
0.0744564
0.086567
0.0674886
0.0568284
0.131783
0.116823
0.116002
0.0253125
0.10892
0.0875143
-0.043521
0.0695767
0.0280769
0.0519974
0.0877559
0.013894
0.0169064
0.0139842
-0.00328234
0.0141724
0.00944935
0.0657969
0.00342926
0.0128014
0.0248748
0.0288051
0.0119927
0.0356544
0.0273713
0.0274354
0.0414137
0.0779677
0.0453868
0.0346968
0.0814182
0.0788381
-0.0298755
0.095754
-0.0132797
0.130945
0.131594
0.125216
0.128609
0.118209
-0.0431227
0.102875
0.0845102
0.0531625
0.0195521
0.102384
0.0994514
0.0205567
-0.0106763
0.125055
0.017656
0.0736169
0.0581784
0.0136028
-0.0161454
0.0704958
0.0605526
-0.0101056
0.0294307
-0.0171233
0.0381179
-0.0342087
0.0522923
0.00149724
0.00937992
0.0867593
0.00754597
-0.00662811
0.0229107
-0.00554641
0.0334748
0.0397253
-0.00829685
0.0547723
0.0571943
-0.00238283
0.0463835
0.0328108
0.0482706
0.0702299
0.0308383
0.0533482
0.0246648
0.0572952
0.0551424
0.0830655
0.0528611
0.0409573
0.0946586
0.0649651
0.0670567
0.00318036
0.131757
0.127207
0.0499157
0.0556381
0.108704
-0.0517014
0.109783
0.0963066
0.0519046
0.0976744
0.0670466
0.062796
0.0441955
-0.0413919
0.0574782
0.00949463
0.0622738
0.0711233
0.0162116
0.00709638
0.0139031
0.00617382
-0.00602669
0.0206293
0.0126968
0.0765022
0.00503259
0.0209923
0.0284323
0.050135
0.00876573
0.00578827
0.0535588
0.0511015
0.0542524
-0.00785088
0.0582822
0.0389801
0.0335453
0.0721826
0.0810861
0.0721808
-0.0297429
0.0860026
-0.0103648
0.0979663
0.122412
0.0933276
0.0889256
-0.0478613
0.120971
0.0896685
0.032043
0.101003
-0.0421904
0.098999
0.0416303
0.0709931
0.0523721
0.0609299
0.0137158
0.085465
-0.0400915
0.0945192
0.0602433
0.103765
-0.035313
0.10132
-0.0181184
0.0634214
0.0403827
0.0241795
0.0381505
0.042044
0.0293113
-0.00921685
0.0399296
-0.0322729
0.0493802
0.00658155
0.016369
0.036887
0.040937
0.00922873
0.0216606
0.00236383
-0.00622762
0.0373881
-0.0326984
0.0451207
0.0477806
0.0129432
0.0412224
0.0135041
0.0426416
0.0326311
0.0275124
0.0683523
0.05099
0.0235434
0.018588
0.0646117
0.0117403
0.0625201
0.0442842
-0.0231777
0.125942
0.104563
0.0186762
0.077983
0.110873
0.109574
0.0169548
-0.00412641
0.0985422
0.10203
0.036419
0.0637658
0.0973124
0.0874003
-0.0116193
0.0748678
0.052746
0.0834551
0.0137111
-0.00486242
0.0676428
0.0318879
0.0752719
0.0569462
0.0473527
0.0436898
0.019703
0.0410457
-4.60533e-05
0.0684579
0.0805084
0.0110987
0.0427653
0.0083293
0.0119495
-0.000525839
-0.00811454
0.0293942
0.04976
0.0377
0.00994063
0.00344394
0.0174927
0.015175
0.00753332
0.0382406
0.00989404
0.00843697
0.0412956
0.0545347
0.0569364
0.0532413
0.0707594
0.0377221
0.0323477
0.0716148
0.0631677
0.0154561
0.0512663
0.0805716
-0.0291998
0.07349
0.0123281
0.118769
-0.00319245
0.112682
0.116077
0.128291
0.111193
0.120288
0.00568234
0.100186
0.0752085
-0.0120186
0.0673011
0.0321603
0.034123
0.0555705
0.0743784
0.0381289
0.0385964
0.0888766
0.0834881
0.0917104
0.0840096
-0.040763
0.0903409
0.061088
0.0438045
0.0439328
0.023132
0.05083
-0.0216292
0.0365838
-0.0293045
0.0396082
0.00728629
0.00398057
0.0113588
0.0889417
0.00702338
-0.00612522
0.0259014
0.0117605
0.0362784
-0.0279665
0.0407727
0.0477222
0.00914663
0.0117
0.0475733
0.0671131
0.0245662
0.0485397
0.0584966
0.0234696
0.0500481
-0.00475563
0.0696359
0.0764707
0.0527833
0.0300807
0.0647763
0.0075948
0.0189108
0.104561
0.0683663
0.0484111
0.042557
0.0764593
0.0565807
0.0753733
0.058911
0.0564688
0.0285645
0.0962391
0.0456203
0.0572076
0.0127607
0.0612699
0.0522368
0.0127342
0.0562933
0.0719923
0.0702019
0.057159
0.0193979
0.0978279
0.0503148
0.0700662
0.0159835
0.0586997
0.035582
0.0207216
0.0651469
0.0495107
0.0427822
0.0283335
0.0310632
-0.00582105
0.0505251
-0.000812493
0.0438246
0.0505683
0.0488466
0.00972581
0.0328061
0.00799313
-0.0063471
0.0173129
0.00129345
-0.00938869
0.0235174
0.03848
0.0527607
0.00699136
0.00363545
0.0224685
0.0116134
0.0364482
0.00730159
0.00992162
0.0408744
0.0480545
0.0607307
0.0145071
0.055223
0.0653406
0.0553394
-0.0158431
0.0677612
0.0556936
0.0320289
0.0465592
0.0870774
0.0704596
0.0557125
0.0908015
0.0473407
0.0615439
0.110633
0.101608
0.000304839
0.0761666
0.126962
-0.0308016
0.0905274
0.0769137
0.0683359
-0.0131611
0.0723327
-0.0441326
0.0559537
0.0614998
0.00648383
-0.00836028
0.0661668
0.0654954
0.0421697
0.0298627
0.092063
0.0341351
0.0661637
0.0947024
0.0709146
0.0813489
0.0872181
0.0538528
-0.0317521
0.0759959
-0.0207991
0.051308
0.0276069
0.0289714
-0.00222005
0.0441785
0.0462751
-0.0229151
0.0355983
-0.0213988
0.0306534
0.0108791
0.00629661
0.00315372
0.00735707
0.0153935
0.0104793
0.0300928
-0.0199376
0.0294527
-0.0219543
0.0654954
0.0286282
0.000498899
0.0625568
0.0576575
0.0102374
0.0572141
0.0674795
0.0330946
0.0363174
0.00516166
0.0522045
0.081595
0.0311812
0.0577341
0.0127611
0.0598672
0.0454115
0.00809981
0.0635781
0.0307158
0.129009
0.0523707
0.0611912
0.0502123
0.0545087
0.0200995
0.0579433
0.0334049
0.0959134
0.0191216
0.073415
0.00797998
0.0709365
0.066099
0.0047425
0.0823287
0.0443229
0.0087049
0.00876753
0.0513144
0.0502702
0.0981147
0.101969
0.0838343
0.0102685
-0.0220024
0.0904538
0.0646611
0.0859176
0.0248095
0.0579582
0.0736127
0.0154899
0.0800087
0.0518568
0.0252996
0.0290074
0.0202441
-0.0142533
0.0427452
-0.00941998
0.0385165
0.0503136
0.00672927
0.0372884
0.016229
0.0172418
0.015073
-0.00140732
0.00937067
0.00082768
0.0206039
0.00699741
0.00409381
0.0208383
0.0122187
0.035092
-0.00398922
0.039993
0.0282504
-0.0235188
0.0554167
0.0343395
0.0305402
0.0138521
0.0459412
0.0734367
0.0749337
0.0903709
0.0252732
0.0584586
0.0932159
0.0848918
0.0858605
0.091687
0.0421374
-0.0143117
0.077869
0.0855214
0.0762281
0.00269796
0.0547762
0.0457828
0.0525579
0.0870717
0.0613203
0.0784508
0.0660493
0.0180144
0.0515145
-0.0365847
0.042862
0.0534565
0.0107079
0.0633503
0.0369061
0.0426437
0.0617711
0.0639234
0.0984507
0.0294697
0.0629998
0.058522
0.00797528
-0.00419708
0.0637618
0.0713606
0.0687333
0.0597617
0.0220577
0.0851114
0.0341598
-0.0207552
0.0403047
0.0333624
0.0170891
0.0295857
0.0176057
0.0174495
0.0174981
-0.0112112
0.0297065
-0.0138877
0.0323077
0.0112186
0.00438759
0.0251063
-0.00186168
0.00801621
0.0106835
0.0132612
0.0250693
0.0140674
0.022668
-0.0163112
0.0587694
0.065129
0.0419877
0.0786274
0.000247697
0.0754492
0.0772879
0.0381036
0.0543333
0.0986876
0.00834893
0.0872011
0.0955668
-0.0116043
0.0999001
0.01633
0.0789687
-0.0443656
0.0894201
0.0682506
0.0358009
0.05132
0.0282071
0.0493918
0.006373
0.0487117
0.0833729
0.0716705
0.0182007
0.0710805
0.081321
-0.00851822
0.0891812
0.0591928
0.0795457
0.0220774
0.0265481
0.0406805
-0.00161058
0.014609
0.037718
0.0379895
0.073409
0.0814897
0.0932513
-0.0263817
0.0919147
0.0741186
-0.0241508
0.0889829
0.0874383
0.076688
-0.0036021
-0.0111001
0.0812327
0.0756599
0.0152599
0.0170341
0.0165066
0.0219131
0.0276762
0.00637628
0.044845
0.0328064
0.031267
0.0161472
0.0169694
0.0335092
0.000115823
0.0122087
0.00117126
0.00628917
0.00114784
0.0121883
0.00635043
0.00614027
0.023235
-0.0250271
0.0415526
-0.000321125
0.0382139
0.0221168
0.0333973
0.0338259
-0.00287056
0.0476255
0.0377705
0.0430626
0.0210891
0.0561492
0.0202481
0.0587979
0.0763718
0.0621991
0.0386168
7.07471e-05
0.0894954
0.0143911
0.083046
0.058495
0.0761691
0.00571623
0.058896
0.0328428
-0.00866937
0.0788968
0.0803577
0.0560251
0.000413583
0.0477705
-0.00317841
0.0892969
0.0706787
0.0591787
0.0132872
0.0747596
0.0410116
0.0502077
-0.0231165
0.0837539
0.0579828
-0.0130714
0.0327209
0.0397464
0.0250132
-0.023417
0.0196719
0.0376438
0.0121487
-0.0263212
0.101787
0.0571381
0.0374268
0.0574945
0.0697494
0.0761207
0.0250865
0.0657779
0.00627331
0.083162
0.0848586
0.079547
-0.0102273
0.0879988
0.0321607
-0.012983
0.0344622
0.0407964
0.0312605
0.0143252
0.0159801
0.0125296
0.0157531
0.0246606
-0.00638007
0.025938
-0.00752269
0.0271499
0.00970226
0.00414912
0.0187464
-0.00468789
0.0108946
0.0260356
0.0401951
0.00420904
-0.00481118
0.0447234
0.0571797
0.0735398
0.0403712
0.0450402
0.0660287
-0.00285321
0.060741
0.0575502
0.0458067
0.0321094
0.0782945
0.0862269
0.0365813
0.0547601
0.0401061
0.0447563
-0.0224563
0.0829322
0.00158933
0.0771996
0.0669155
-0.0395862
0.0741551
0.0583442
0.00348765
0.0765641
0.0591525
0.000243858
0.0473466
0.0448225
0.0472904
0.0748034
0.0031546
0.0572053
0.055568
0.0119976
0.0643304
-0.0284109
0.0803264
0.0573516
-0.0151029
0.074653
0.0263496
0.00348437
0.00593821
0.0325499
0.0192495
0.0035524
0.0257551
-0.00785156
0.0424689
0.0245944
0.0941657
0.0964745
0.0841991
-0.021298
0.0928417
0.0563655
-0.0259307
0.0935011
0.0697372
0.0722904
0.0143805
-0.00619061
0.0878714
0.0840917
0.00890188
0.0214534
0.0175874
0.0162325
0.0393882
0.00379011
0.00126164
0.0310322
0.0262051
0.0231291
0.0187963
0.014517
0.0396746
-0.0103399
0.00687804
0.0045163
0.00239786
0.00535688
0.00993691
0.0214708
0.0073986
0.0279306
-0.00646724
0.0526592
0.0521747
0.025418
0.0496418
0.0404347
0.00243379
0.00488397
0.041974
0.0250597
0.0425656
0.0875758
0.0912977
0.0393234
0.0400925
0.0431708
0.0450282
0.094545
0.097113
0.0853847
0.045161
0.0589648
0.0203992
0.0649764
0.00336873
0.0432907
0.0321234
-0.0137916
0.0737035
0.0202348
0.0587626
0.0591893
-0.00601494
0.0526166
-0.0221658
0.0689761
0.0699922
0.0548612
0.0598055
0.0707544
0.0519395
0.0129398
0.0689023
-0.0322885
0.0914565
0.04384
-0.00195344
0.0260817
0.0206763
0.0284454
-0.0207054
0.0215915
0.00171736
0.0149824
0.0357153
0.0891834
0.0072992
0.00104139
0.0975767
0.0871804
0.068791
0.0191812
0.0761341
0.0207605
0.0505685
0.0951583
0.104492
-0.00560253
0.0914517
0.00527928
0.0152438
-0.00567626
0.023511
0.0208428
0.0415718
0.0455909
0.0255429
0.00548638
0.0178514
0.0035235
0.017846
0.022427
-0.00224793
0.0206126
-0.00390657
0.0136958
0.0139735
0.00532058
0.00987782
0.0204522
0.0345408
-0.00414489
0.0117679
0.042251
-0.00130452
0.0550314
0.0694911
0.0496232
0.0475852
0.0400141
0.055324
0.0276856
0.061504
0.0487322
0.0444228
0.0847577
0.0957002
0.0280312
0.0683196
0.0304562
0.0685216
0.00388383
0.0828228
-0.0255653
0.0721794
0.0029614
0.0575074
-0.04106
0.0631949
0.0253159
0.0476397
-0.0225159
0.0556905
0.0496824
-0.00281331
0.0628844
0.0577455
0.0170982
0.0355446
0.0326239
0.0382505
0.0171286
0.0552473
0.0593349
0.0741383
0.0255697
0.0465982
0.0788125
0.0512702
0.0191074
0.0477597
0.0452083
0.0959774
0.0126767
0.0110678
-0.00378995
0.0217215
0.00547881
0.0212447
0.0148733
-0.0183489
0.0174769
0.0391021
0.08532
0.10759
0.108373
0.098587
-0.0296465
0.107646
0.0862133
0.010835
0.068133
0.0382509
0.0488455
0.0445704
0.0177088
0.0114841
0.0123886
0.00995887
0.010655
0.0199497
0.0240574
0.0127482
0.0358663
0.0139719
0.01266
-0.00234687
0.0174942
0.0133516
0.0199139
0.0126633
-0.0128845
0.0278589
0.00131142
0.00622111
0.00912087
0.00397971
0.0189535
-0.00835722
0.0517255
0.0477286
0.00843172
0.0624178
0.0591966
0.0405297
0.00916252
0.0332679
0.00960171
0.0157157
0.0411126
0.0736203
0.00391196
0.0590516
0.0900549
0.0335345
0.0640743
0.100568
-0.0113866
0.0814201
0.0729489
0.0511461
0.0405237
0.0185308
0.0412754
0.0233487
-0.0518335
0.07842
-0.00309046
0.0538539
-0.0212682
0.0723419
0.033714
0.0310157
0.0355569
0.0235167
0.0529278
-0.00545482
0.0403993
-0.0288253
0.0629389
0.0570873
0.0129161
0.0441428
0.0320718
0.0413383
0.0345449
0.0899256
0.059193
0.0873383
0.0683552
-0.0333905
0.0800692
0.0647162
-0.00874458
0.0185097
0.0302313
0.00983221
0.0112573
0.000698876
-0.00354342
0.0176888
0.0329191
0.0650148
0.0218955
0.0623154
0.0471397
0.041188
0.0694197
0.0707519
0.0380452
0.071509
0.0153682
0.0723649
0.0805772
0.0889477
0.111421
0.00490211
0.0121462
0.0216602
0.026994
0.0152619
0.033857
-0.0113291
0.0377231
-0.0181232
0.0329213
0.0270371
0.0112574
-0.00150191
0.013438
0.00838112
2.06801e-05
0.01465
0.0361307
-0.00646123
0.00304073
0.00792296
0.00237509
0.01027
0.0256735
0.0282074
0.0247889
0.000779665
0.0480608
0.0680688
0.061236
0.0581512
0.0447537
-0.0209928
0.0335996
0.0710745
0.0178671
0.0569705
0.0782043
0.0246355
0.0668204
0.0923061
0.0903102
0.0366543
0.0656887
0.0409011
0.0418527
0.0103558
0.0637248
-0.0180554
0.0706166
0.0740721
0.0613562
-0.0319178
0.0563683
0.0478344
-0.0184172
0.0735625
0.0558252
0.0583496
0.0455721
0.0324536
0.0214382
0.0092917
0.0311129
0.041289
0.022859
0.0216675
0.0368575
0.00966649
0.0357249
0.0172196
0.0746512
0.0779924
0.0782815
0.0109539
-0.00104025
0.0707116
0.0805776
0.0816492
0.00770582
0.00791089
0.0108608
0.0171867
-0.00535523
0.0125277
0.00380715
-0.00933426
0.00778088
0.00507613
0.00466498
0.0263191
0.0858289
0.0901407
0.109375
0.109225
-0.0338678
0.107029
0.0589543
0.0146708
-0.000831163
0.0830729
0.0899871
0.0864806
0.0268944
0.00957578
0.0144294
0.00780208
0.00921124
0.0196278
0.00547595
0.00961697
0.014229
0.0220607
0.0121703
0.0279052
0.0206788
0.00904365
0.0259686
0.0379009
-0.00192683
0.0109868
0.00972398
-0.00947591
0.019407
0.00672495
0.0143795
0.0010902
0.00311466
0.00664068
0.00257902
0.00644297
-0.0074146
0.0201218
0.0741567
0.00704603
0.0623693
0.0697377
0.0437376
0.0161607
0.0385778
0.00858106
0.0277414
0.00800805
0.0147965
0.0580584
0.0185186
0.060964
0.0784355
0.0159599
0.0775633
0.00943182
0.0823327
0.108321
0.106968
0.0534023
0.0376275
0.0378513
0.00310995
0.0597346
0.0522325
0.00515808
0.0518859
-0.0028486
0.054611
0.0200612
-0.0148624
0.0721408
0.0468482
0.0127577
0.0140792
0.0328144
0.0418851
-0.0201714
0.0423509
0.00551865
0.0251558
0.00554723
0.0367761
0.0455241
0.0478185
0.0510127
0.00031597
0.0762361
0.064808
0.0806625
0.0833688
0.0117412
0.0706878
0.0218212
0.0609857
-0.00652025
0.0113286
0.0165444
0.0202926
0.00329657
-0.00595544
0.00767495
-0.000322938
-0.00465122
0.00782229
0.0310972
-0.0086688
0.0963664
0.0834288
0.0385884
0.0725378
0.0770796
0.0361847
0.0723931
0.081849
0.0995425
0.00392067
0.0877983
0.0922066
0.125479
0.0149563
0.0250154
0.0179228
0.03579
0.0362256
-0.00178649
0.0326027
-0.00913444
0.031472
-0.0113083
0.0391776
0.0401598
0.00441352
0.00102899
0.00739016
0.0146714
0.0259083
-0.00984995
0.00214368
0.00689875
0.00758038
0.00172516
0.0179399
0.00505068
-0.00330886
0.0791269
0.0822982
0.0677462
0.0602923
0.056785
0.0387055
0.028285
-0.012419
0.072033
0.0780711
0.089117
0.0219081
0.0569535
0.106092
0.0239089
0.0859628
0.0202837
0.0881952
0.0617497
-0.00685245
-0.0123955
0.051264
0.0444875
0.056639
0.0488159
0.0580489
0.0530522
0.0829548
0.0672143
0.0275321
0.0465573
0.0118556
0.030561
0.0426598
0.000677776
0.0373078
-0.0105622
0.0482488
0.0359281
0.00936269
0.0396176
0.00461964
0.0477514
0.00742178
0.0701965
0.0735607
0.0797366
0.00281249
0.0159391
0.0688544
0.0744384
0.0881512
0.00860488
0.00010115
0.00114901
0.0138138
0.0198026
-0.00538035
0.00624668
-0.000155129
-0.00502989
0.00317146
0.00129662
0.0167408
0.0133945
0.124119
0.110297
0.102377
-0.0331894
0.107138
0.0348894
0.0484414
0.0464825
0.0544619
0.0348171
0.0548673
0.0540998
0.0393835
0.0491144
0.0779751
0.00755821
0.0069574
0.0252724
0.00158253
0.00513307
0.0136075
0.0152893
0.0239901
0.0247062
0.0144318
0.0602823
0.0188288
0.022223
0.0126551
0.0285766
0.0552539
-0.00304167
0.00604726
0.0083675
0.00329105
0.00638251
-0.000207628
0.00333771
0.0077279
0.0154165
0.00538354
0.0681313
0.0195815
0.0640586
0.0888401
-0.00700966
0.0689154
0.0515416
-0.0161689
0.0577766
0.0146156
0.0244348
0.0491347
0.0412451
0.0379496
0.110973
0.0993966
0.0453489
0.0620297
-0.00206585
0.0893002
0.0874393
-0.00104175
0.0534478
0.0444084
0.00469448
0.052963
-0.0122702
0.0625763
0.0549209
0.00430945
-0.00805678
0.062151
0.0764389
-0.0313226
0.100414
-0.0126268
0.0410253
0.0351513
-0.0112665
0.0428014
0.0323911
0.0425681
0.00690218
0.0301656
0.00818636
0.0413889
0.0463385
0.0453689
0.0115137
0.0375109
0.0171004
0.0546192
0.0435796
0.0990022
0.0733384
0.110964
0.0296204
0.0601906
-0.00196008
0.00786283
-0.00532163
0.00362162
0.00928378
0.0080505
0.0100489
-0.00106997
0.00350509
-0.00584141
0.00483595
-0.00300593
-0.00419049
0.00430516
0.0233398
0.0199795
0.0805275
0.0454799
0.0540019
0.0577765
0.070791
0.0249862
0.083347
0.0964133
0.0910387
0.110571
0.0897633
0.0100087
0.0693906
0.0128994
0.0108914
0.01671
0.0167677
0.0283547
0.0410849
0.0579722
0.00703183
0.0236205
-0.0033368
-0.0077948
0.0313955
-0.00719547
0.0373501
0.00517803
0.0522257
0.000627888
0.0044269
0.00374696
-0.00202686
0.00460446
0.0156809
0.00436766
-0.0019006
0.0205397
0.00689305
-0.0024761
0.0721341
0.103527
0.0880713
0.0957006
-0.0141897
0.0682778
0.0461334
0.0395018
0.123286
0.0506824
0.0616652
0.0289756
0.0719423
0.0974099
0.0922785
0.034985
0.0553213
0.0401358
0.0483025
0.00329331
0.0512335
0.053959
0.0607021
0.0421022
0.0672127
0.0678019
0.0670252
0.0113847
0.066987
0.0354433
0.0479622
0.0242523
0.0196961
-0.00538275
0.0387955
0.0373429
0.00647392
0.0044251
0.0263097
-0.0112591
0.0537015
0.0359922
0.00294636
0.0437083
-0.00036862
0.0387278
0.0996777
0.0668294
0.0337096
0.104595
0.0269848
0.0857331
0.0887809
-0.00239116
0.00856928
0.00620658
-0.0046649
0.0174578
-0.00581238
0.00279135
-0.00446983
-0.00251784
0.000391302
0.0043037
0.0185777
0.023689
0.0923864
0.100984
0.0837631
0.10713
0.0292708
0.0548611
0.00863101
0.0889523
0.100898
0.0904539
0.0215216
0.0213988
0.0695136
0.0919028
0.00590472
0.00815139
0.0221812
-0.00341235
0.00116442
0.0174366
0.000551076
0.0306953
0.0431039
0.00282943
0.0336525
0.0281686
0.0534283
0.0172663
-0.0127083
0.01045
0.0261392
0.0443246
0.0220581
0.0336458
-0.00475758
0.00426139
0.00232704
0.000403314
0.00443534
-0.000765554
0.00406387
0.00325164
0.00205429
0.012711
0.0539018
0.0510596
0.144166
0.030267
0.0672008
0.0455939
0.023886
0.0418595
0.00666134
0.0307865
0.0118533
0.0597845
0.0653559
0.103019
0.124629
0.0207448
0.0776957
0.114238
0.104594
0.00764868
0.0447853
0.0630272
0.0384016
0.0234231
0.0818104
0.0176321
0.0509598
0.0105726
0.0588323
0.0794166
0.0805001
-0.0399873
0.076741
0.0264824
0.0224653
0.0291807
-0.0130843
0.0336739
0.0329236
0.0267791
0.0338542
0.00433985
0.0221291
0.0389834
0.0159259
0.0399917
0.0442791
0.0167189
0.0230134
0.0612696
0.00837704
0.0600043
-0.0346984
0.069613
0.0715441
0.0493381
0.0374965
0.0215459
0.0685754
0.00224565
0.00352835
0.00325759
-0.00356518
0.00526288
0.00956956
-2.50053e-06
-0.00632497
-0.00507088
0.00130588
-0.00607064
0.0229986
0.00370184
0.018046
0.0690479
0.0245223
0.0584201
0.0435856
0.0314708
0.0532714
0.0585481
0.0497608
0.0888411
0.0871441
0.0348369
0.0554897
0.0339813
0.0683083
0.0283988
0.0637499
0.0922334
0.0243267
0.0687485
0.00724019
0.0107623
0.0251277
0.0164954
0.0372039
0.0595272
-0.0397244
0.0715409
0.0186744
-0.00523558
0.0232875
0.0160768
-0.00485755
-0.0078464
0.0348645
0.0220916
0.0237344
0.0572009
-0.00285935
-0.00142162
0.00387346
0.00374588
-0.00461188
0.00335951
0.00811264
0.0024281
0.010668
0.00627279
0.048416
0.0975538
0.0777694
0.12903
0.0673706
0.0401944
0.0260138
0.115813
0.0602114
0.0440831
-0.00647391
0.132799
0.139653
0.109207
0.0465442
0.0590566
0.0635244
0.0200326
0.0446668
0.0838207
0.0188917
0.0646189
-0.00685143
0.0593981
0.0104639
0.0706044
0.0630845
0.0189502
0.0632046
0.0148177
0.0400656
0.0235772
0.00652633
0.0172888
0.0171867
-0.00213822
0.0361133
-0.00560582
0.0333974
-0.000713669
0.0355092
0.00481724
0.0177711
0.060538
0.0569914
0.0203207
0.0247924
0.0441065
0.0712256
-0.0299424
0.0911932
0.0406731
0.0165113
0.056499
0.0718332
0.0735621
0.0869459
-0.00408199
0.00454669
0.00697062
-0.0034129
0.00495686
-0.00674256
0.000168362
0.0117347
-0.00919194
-0.00694569
0.00241206
0.0206998
0.00447996
0.0130511
0.0946609
0.084043
0.0979232
0.0973609
0.0280718
0.0616715
0.116227
0.0905013
0.0985603
-0.0567283
0.121936
0.036758
0.106874
0.00140359
0.0078115
0.0137993
-0.00641717
0.0351421
-0.00390559
0.0231648
-0.0122814
0.054389
0.0179554
0.0443318
0.0371393
0.0373472
-0.0308684
0.0535221
0.0116097
0.0162242
0.00385031
0.0200755
0.0155189
0.0448427
0.0141089
0.0451651
-0.00667923
0.00269043
-0.000590323
0.0020126
0.00291516
-0.00374281
0.00663968
0.0115051
0.000437241
0.098363
-0.0193894
0.0988861
0.0802049
0.0490225
0.0493807
-0.00734482
0.0496342
0.0204025
0.0118258
0.104866
0.104196
0.134877
0.0414958
0.0994249
0.15235
0.0191654
0.0460252
0.0653499
0.0399799
0.0452418
0.0600025
0.0595177
0.0165662
0.0439401
0.075091
0.012639
0.0595041
0.0837244
0.0874018
0.0404102
0.0289547
0.0244656
-0.00805206
0.0259417
0.0343909
0.0316076
0.0263098
0.0202769
0.0181147
0.0439463
0.0189063
0.0397515
0.0447974
0.00524169
0.0399583
0.0410183
0.0517403
0.0984482
-0.00841344
0.0812761
0.0661447
-0.00152535
0.0901218
-0.00572785
-0.000621299
-0.00059182
0.000169821
0.00522347
0.00362942
-0.00887625
0.00239138
0.00825515
-0.00624215
-0.00421989
-0.00857866
4.52392e-05
0.011519
0.00901738
0.0156519
0.000402668
0.0118032
0.0827755
0.0132178
-0.00372467
0.0886763
0.0952906
0.0683635
0.0299723
0.131413
0.0148966
0.102961
0.0227771
0.0689899
0.0131747
0.086617
0.0712742
0.0519858
0.0215666
0.0864307
7.36786e-05
0.00979382
0.0127082
0.0201052
0.0267329
0.0276104
0.0573062
0.0601643
-0.0200418
0.0607505
0.0705525
-0.0126684
-0.00297667
0.0148656
-0.00505209
0.0216178
-0.00973751
0.0256107
0.0114379
0.0336082
-0.00239305
0.0478344
-0.00691084
-0.00341653
0.00311572
0.0043727
0.000472061
-0.00709892
0.00299578
0.00407746
0.00398229
0.0102572
0.110999
0.0164269
0.0826185
0.0971596
0.154817
-0.0204644
0.0716324
0.0302946
0.0266404
0.13538
0.0660301
0.0698249
-0.0351377
0.13611
0.130595
0.0231185
0.0638745
0.0133601
0.0536716
0.0591485
0.000304567
0.0610031
0.00673199
0.0538961
-0.00600969
0.0511446
0.0171742
0.0592349
0.00280012
0.0576841
0.0595726
0.025604
0.032582
0.0563714
0.00156154
0.0401751
0.0165299
0.01298
-0.00126631
0.0263332
0.0252415
-0.0015733
0.0372628
0.000619072
0.0319481
-0.00783111
0.0353353
0.013066
0.00765333
0.0592844
0.0587313
0.0511613
0.0428502
-0.0333713
0.0754829
0.0859456
0.0664478
0.0813019
0.0901222
-0.00312173
0.0949464
0.00537009
-0.00786188
0.00253115
0.00643662
-0.00178433
0.00363642
-0.00996327
-0.000521374
0.0079492
-0.00728613
0.00357343
-0.00882726
0.0222175
-0.000231892
0.0159676
1.18958e-06
0.0114869
0.105552
0.103361
0.111663
0.0424482
0.0905071
0.147023
0.0832117
0.0295699
0.0581525
-0.0121501
0.0845107
0.0827275
0.0753963
0.00626944
0.00690873
0.0224294
-0.00949567
0.033747
-0.0166242
0.0480496
0.0623642
-0.0298822
-0.00619158
0.0659575
0.00557036
0.0558382
0.0539063
0.0564327
0.0533738
0.0101624
0.0121805
0.02069
0.00469923
0.0322503
0.0315957
0.00260309
0.045244
-0.00667636
-0.000752947
-0.00365834
0.00566757
0.000776838
-0.00154908
0.00319596
-0.00385882
0.00390377
0.010122
0.00288475
0.178552
0.0514734
0.0306304
0.0340658
0.0616697
0.0752936
0.0783248
0.0402977
0.0306285
-0.0149462
0.0471579
0.0130991
0.101609
0.202572
0.160604
0.0172814
0.047922
0.00379134
0.0511541
0.0607427
0.0690534
0.0492504
0.0696867
0.0781268
0.0630897
0.0163763
0.0423526
0.0833691
0.0400264
0.0246261
-0.0155564
0.0291984
0.0115054
0.00121217
0.0248299
0.0389619
0.0253037
0.0376169
0.0293486
0.0312307
0.0156243
0.0445772
0.0133507
0.0393136
0.00509267
0.0390459
0.0252792
0.0516108
0.0363796
0.0506839
0.0644768
-0.0226499
0.105459
0.0687925
0.0614984
0.0344628
-0.00609196
-0.00293792
0.00458046
-0.00366914
0.00187637
0.00367332
0.00141505
0.00194146
0.000715303
-0.00752845
-0.00745664
0.0089548
0.00258219
-0.0106553
-0.00679926
0.022054
0.015657
0.00477799
0.00635317
0.0306432
0.0760039
-0.0002964
0.104814
0.112639
0.194019
-0.048964
0.198365
0.0525879
0.0317815
0.111912
-0.00360206
0.0892434
0.0801733
0.107017
-0.00350733
0.0128784
0.017328
0.0216135
0.0233414
0.0726262
0.0583128
0.0795341
-0.0218067
-0.0248225
0.0836497
0.0753928
-0.0166206
-0.000654256
0.0106778
0.0156648
-0.00360768
0.0201532
0.00834265
0.0231809
0.0393375
-0.00516399
0.0490491
0.00557796
-0.00677988
-0.00463264
0.0013716
0.0044321
0.00145788
-0.000495845
0.00609411
-0.0101422
0.00315048
0.025055
0.00678052
0.0881987
0.0893081
0.0847812
0.0705028
0.136145
0.165981
-0.0187708
0.0496073
0.028343
0.0936999
0.108761
-0.045237
0.207996
0.0529944
0.0157281
0.0368217
0.0785438
0.0288899
0.0414538
0.079404
0.0303931
0.0408182
0.0324599
0.0469254
0.0340388
0.0300309
0.077395
0.0303865
0.0543904
-0.000868668
0.0421192
-0.00079214
0.0259518
0.0289562
0.0369866
0.0208333
0.0193849
0.0473297
0.0300947
0.00891918
0.0439312
0.0479448
0.0618328
0.0456857
0.0393139
0.0910959
0.0892936
0.0823831
0.0383579
0.0685297
0.101927
0.00177221
0.060472
0.0738254
0.00339065
-0.00769047
-0.00628559
0.0014187
0.00445949
0.0030336
-0.00255579
0.00275329
-0.0105525
0.00220344
0.000777787
-0.00911753
0.00373415
0.00454709
-0.00550099
0.00318428
-0.0106174
0.0176433
0.0047354
0.00708049
0.00853555
0.00797457
0.0132648
-0.032575
0.109836
0.0733088
0.0650293
0.150495
0.0497927
0.150168
0.0277015
0.0852746
-0.0257448
0.116208