/*--------------------------------*- C++ -*----------------------------------*\
| =========                 |                                                 |
| \\      /  F ield         | OpenFOAM: The Open Source CFD Toolbox           |
|  \\    /   O peration     | Version:  v2012                                 |
|   \\  /    A nd           | Website:  www.openfoam.com                      |
|    \\/     M anipulation  |                                                 |
\*---------------------------------------------------------------------------*/
FoamFile
{
    version     2.0;
    format      ascii;
    class       volVectorField;
    location    "0";
    object      ddtCorrDdt0(U);
}
// * * * * * * * * * * * * * * * * * * * * * * * * * * * * * * * * * * * * * //

dimensions      [0 1 -2 0 0 0 0];


internalField   nonuniform List<vector> 
61389
(
(526.235 2937.27 -1.13682e-13)
(1989.64 -3676.82 -8.04577e-14)
(406.036 -2855.77 1.07551e-13)
(684.577 1649.75 1.06334e-13)
(2186.18 390.024 0)
(2441.47 -403.835 -2.28553e-14)
(1053.25 2939.53 3.01528e-14)
(2357.33 -781.847 0)
(3527.86 -751.033 0)
(2951.38 913.106 5.27513e-15)
(1883.99 80.1634 1.16397e-13)
(1403.13 1861.63 1.21156e-13)
(499.607 -1753.94 0)
(953.265 -2184.95 9.16077e-14)
(2764.52 -459.205 -8.0004e-14)
(2663.11 921.029 -7.59134e-14)
(1518.02 1533.18 3.50876e-14)
(919.331 -1743.63 1.25295e-16)
(2556.28 -796.369 6.02173e-14)
(2751.48 1385.95 -1.11756e-13)
(3516.54 2221.07 1.14385e-13)
(5140.31 -1674.05 1.77424e-13)
(3354.51 -1319.43 -8.35852e-14)
(1904.43 424.701 0)
(2118.61 801.123 0)
(4662.86 2520.5 -1.27744e-13)
(2433.07 -1094.7 -6.16085e-14)
(2007.37 -659.094 0)
(2712.89 1080.85 -8.81986e-14)
(1607.61 -92.9205 -1.71325e-13)
(2524.73 -1048.12 0)
(2804.12 -1566.15 -4.71541e-15)
(2447.46 986.268 -1.46031e-13)
(4712.12 -793.551 0)
(281.623 357.407 0)
(-80.041 1436.07 0)
(2156.72 1310.73 1.05376e-13)
(3526.08 -95.0025 0)
(1563.78 873.42 -1.82021e-14)
(3120.85 -2202.81 0)
(2623.39 1221.93 -4.61303e-15)
(1386.3 -1342.4 0)
(1347.21 -510.012 2.96338e-14)
(871.968 1958.27 -7.50159e-17)
(2339.46 -793.287 -1.84193e-14)
(2145.76 1103.5 1.03617e-13)
(-1546.18 902.419 0)
(1776.18 -1046.34 1.45775e-13)
(2311.52 -1270.65 0)
(1890.36 -1411.83 2.903e-14)
(1496.86 1162.25 0)
(2732.21 -2510.01 0)
(-442.973 1686.5 -1.98937e-14)
(-1835.19 2043.49 1.26536e-14)
(2282.73 -2304.86 0)
(1279.06 -1111.84 -6.41499e-15)
(1106 995.242 -1.80652e-14)
(600.987 -1625.45 1.14332e-13)
(1708.83 1590.79 6.48645e-14)
(-2977.55 -987.62 0)
(-3683.42 375.546 0)
(1429.97 -1518.19 1.18173e-13)
(945.438 1005.59 0)
(-641.427 -2024.79 7.07052e-14)
(169.091 -2998.16 1.90674e-13)
(-605.238 3118.78 0)
(-2252.03 1574.74 1.33991e-13)
(2211.68 -2624.12 -1.42626e-13)
(1048.15 1378.78 2.38851e-14)
(1352.33 1983.1 0)
(-3380.47 623.02 0)
(1959.72 -1947.53 9.6079e-14)
(-2819.71 -800.721 4.88836e-14)
(1406.94 -1837.36 -1.37749e-13)
(771.917 1381.96 -2.263e-14)
(-3824.71 -809.189 3.33617e-14)
(-3882.05 426.149 -4.12479e-14)
(1125.65 -1954.94 5.75381e-15)
(643.653 2252.15 -7.51577e-15)
(-2982.98 -1343.12 1.22203e-13)
(-3627.37 -760.936 1.42529e-14)
(-928.632 -623.543 -7.79022e-14)
(70.2099 -754.744 3.8837e-14)
(111.509 1183.67 0)
(-4033.37 126.993 -5.94246e-15)
(-3675.23 -429.571 4.72263e-15)
(117.428 2298.08 0)
(-3633.1 139.084 5.48963e-14)
(-2671.2 298.32 0)
(-602.398 -1535.94 0)
(-1392.65 157.853 -5.00214e-14)
(-4343.03 1749.23 0)
(-1299.3 -458.235 -8.09589e-14)
(-3703.05 1462.45 1.94402e-14)
(-37.3576 -13.7949 -1.5973e-18)
(-68.6969 -3.52675 6.97967e-16)
(11.767 -2.6361 -1.47925e-15)
(9.23366 -3.58844 9.21915e-16)
(-28.1362 52.8078 0)
(34.22 29.9226 0)
(66.5454 96.9063 -4.15284e-15)
(22.8716 99.3735 -3.88372e-15)
(-149.329 -36.1103 2.2564e-16)
(-98.0016 -47.7205 -2.81692e-15)
(166.857 -76.5113 8.77317e-15)
(142.23 -85.8912 -7.39104e-15)
(132.384 -45.4088 0)
(7.87575 3.26694 -2.45449e-16)
(7.10628 3.33207 -1.16198e-17)
(-289.646 -149.392 -6.566e-15)
(-141.78 -159.508 3.22126e-15)
(7.22352 3.47652 0)
(3.95613 1.89552 0)
(10.4275 5.03336 3.28247e-16)
(5.55348 3.30728 3.07443e-16)
(-472.417 101.018 6.03045e-15)
(-556.207 161.81 1.16408e-15)
(9.79182 -0.675556 4.198e-16)
(4.67188 -0.985335 -3.70238e-17)
(-0.324769 -0.549484 -3.17902e-16)
(-438.088 266.959 -3.07002e-15)
(7.41545 0.334812 -1.04322e-16)
(11.781 4.64837 -1.16891e-17)
(6.36669 5.3787 1.58542e-17)
(13.9509 11.9182 3.36476e-15)
(33.2363 14.3416 1.53339e-16)
(19.3763 7.43435 2.75735e-15)
(13.2875 28.5326 -7.69566e-15)
(32.4469 24.8331 3.23746e-15)
(7.39095 1.38823 -8.48027e-16)
(15.7566 1.33771 2.41796e-15)
(7.5458 -7.17552 -2.73001e-16)
(10.0774 3.45762 2.79944e-15)
(22.4709 -3.92705 -1.83082e-16)
(10.6273 7.35534 0)
(12.1177 6.11212 1.8481e-15)
(13.5618 -2.18372 0)
(10.3442 4.41777 2.28125e-15)
(15.579 5.28074 0)
(12.4716 10.371 9.84467e-16)
(21.9183 5.95041 0)
(21.194 -4.24388 -2.85899e-15)
(14.4417 -4.76417 4.63405e-15)
(15.1995 1.15187 3.99211e-16)
(17.0916 5.49684 0)
(13.0203 12.3775 4.71599e-15)
(-49.9407 -575.439 -2.04817e-14)
(155.201 -1050.42 -2.23172e-14)
(26.1301 15.9553 0)
(29.4747 8.58506 0)
(44.3226 255.195 0)
(90.9388 325.928 0)
(38.6534 20.1588 1.19418e-14)
(32.9331 47.3066 -1.05591e-14)
(19.5306 3.66132 2.48172e-15)
(29.3223 3.5184 -1.83199e-15)
(36.3712 -6.73491 1.07934e-15)
(36.2519 -0.913279 -1.42563e-15)
(37.0239 -1.82534 -4.52483e-15)
(37.7424 -3.55632 3.52236e-15)
(41.0098 -9.87736 0)
(32.3903 5.50344 -3.25105e-15)
(36.5887 -5.92117 -8.80627e-15)
(58.3091 -23.6079 -4.50445e-15)
(62.6331 26.8687 0)
(48.9334 33.3684 -3.86514e-15)
(62.3232 52.1559 -7.69486e-15)
(80.12 7.92422 -7.821e-15)
(59.6133 20.8599 9.38381e-15)
(79.4976 -35.3616 0)
(67.8205 -41.4272 -1.13533e-15)
(92.3509 -15.8865 4.10814e-15)
(2030.36 1384.63 -4.55502e-14)
(1912.72 -1281.61 0)
(189.989 -60.452 -1.19829e-14)
(108.361 34.1003 1.20717e-14)
(183.754 30.1081 1.39537e-14)
(111.241 76.8909 -1.36377e-14)
(118.418 6.44369 -1.12638e-14)
(152.634 72.0514 3.32147e-15)
(131.939 53.6476 0)
(118.324 -20.5232 -7.89844e-15)
(75.4706 -46.2235 1.10679e-14)
(252.474 -4.99623 -1.14421e-14)
(147.977 35.4611 1.0501e-14)
(128.339 99.435 1.43465e-14)
(244.968 86.2792 -2.90332e-14)
(247.748 -255.755 0)
(231.079 -342.533 -1.50026e-14)
(-255.073 -2231.53 -2.28669e-14)
(121.55 -2039.83 0)
(519.837 148.498 1.74076e-14)
(312.992 161.452 -3.43299e-14)
(523.196 -48.4802 1.4886e-14)
(315.763 -218.387 0)
(622.059 192.746 3.73125e-14)
(609.01 66.6999 -3.03681e-14)
(934.245 -739.213 2.73271e-14)
(541.148 -354.25 -7.24575e-15)
(-933.874 2185.84 5.18914e-14)
(-412.358 1216.42 -9.87966e-14)
(148.796 1248.44 2.28745e-14)
(-1862.37 1582.48 6.89502e-16)
(-893.666 399.972 0)
(1175.38 559.944 -1.80852e-14)
(1153.74 1176.07 -4.4214e-15)
(1236.71 1854.81 2.70895e-15)
(1041.85 1062.68 0)
(-948.309 -1648.7 0)
(-208.512 -1332.76 -5.35307e-14)
(-111.373 -805.266 -3.70573e-14)
(-591.49 -922.706 -1.64032e-14)
(114.016 655.243 0)
(-1384.38 1806.87 -1.11166e-14)
(-654.843 1541.81 0)
(-644.629 611.069 -1.5756e-14)
(-1094.13 983.241 0)
(127.821 1624.91 5.01001e-14)
(-357.769 1393.54 0)
(-434.021 1473.78 -1.08181e-14)
(-907.287 1094.17 0)
(-286.542 1093.34 1.08274e-14)
(-1171.84 1141.35 1.45257e-14)
(-941.208 -638.834 0)
(-1435.61 -1227.72 0)
(-410.955 -1744.57 -2.80159e-14)
(-1162.74 -104.41 0)
(-1566.69 846.935 0)
(-922.851 -113.227 1.32585e-15)
(-1489.97 316.854 1.87954e-15)
(-4214.57 525.561 4.13917e-15)
(-2501.75 1055.82 -2.90666e-15)
(-2473.19 -2068.49 6.50737e-14)
(-1726.15 -165.791 1.19454e-14)
(-1413.12 -843.916 -2.87776e-14)
(-2895.06 2085.71 5.59054e-16)
(-4313.05 2399.3 3.97071e-14)
(-2456.29 551.498 8.65698e-16)
(-678.595 -952.265 5.248e-14)
(-654.358 -2380.09 2.15787e-14)
(-772.903 2002.73 0)
(-1418.42 1134.96 0)
(-1573.14 1354.73 1.4639e-14)
(-2202.48 1125.71 0)
(-399.252 4265.38 0)
(-3348.53 2877.51 0)
(-5424.22 5174.19 -7.51443e-14)
(-1815.86 -2984.25 0)
(-2216.82 -2470.9 0)
(-18.7772 -3151.08 0)
(1569.25 -3323.26 -7.94307e-14)
(-1540.67 1081.33 -1.31295e-14)
(3701.46 -1023.87 -6.21914e-14)
(4428.41 -1558.02 1.03783e-13)
(1265.72 2162.28 -5.49441e-14)
(1569.24 1618.34 0)
(537.444 2180.12 5.9867e-14)
(2565.44 1223.55 -5.33886e-14)
(-225.832 -5107.15 4.17061e-14)
(271.086 -5633.3 -6.60368e-14)
(3503.35 -1607.85 0)
(2167.04 -1104.95 -3.85426e-17)
(3968.6 -1651.63 -2.62994e-14)
(5319.17 195.023 0)
(3065.77 -1916.12 0)
(2939.54 -2617.83 5.18267e-14)
(2376.29 -2595.51 1.33768e-13)
(2076.23 -2289.77 -2.27138e-14)
(-1074.18 -1190.22 -5.95289e-18)
(3490.37 -315.999 3.87711e-14)
(2610.79 -682.281 -3.889e-14)
(-963.193 -1233.76 -4.75669e-14)
(2123.6 1526.99 0)
(3359.44 -117.159 -4.50778e-14)
(2687.84 -1093.85 0)
(1508.62 2417.87 1.32088e-13)
(5425.17 3761.05 -1.223e-13)
(3286.75 623.09 5.60535e-14)
(1900.73 -301.412 0)
(3282.17 -1538.68 3.37151e-14)
(3027.52 -1293.25 -1.39976e-14)
(1162.6 1132.29 -1.67943e-14)
(2751.63 3240.56 -5.94826e-15)
(-2550.96 3466.26 7.89583e-14)
(-1071.72 3795.8 -6.33655e-14)
(-2099.52 4950.16 8.77065e-14)
(-1097.63 2718.33 -9.26357e-14)
(-3336.91 1848.28 -3.68837e-14)
(-1854.3 3391.77 3.17942e-14)
(-116.261 2475.77 4.75896e-14)
(79.8192 2512.99 -6.07478e-15)
(-802.873 -2288.88 0)
(1487.16 -4662.02 5.17367e-14)
(-337.261 -3261.59 0)
(-4326.54 176.022 0)
(-3631.16 2498.2 0)
(-1531.21 -253.478 -1.09794e-15)
(-1995.92 452.533 -1.23907e-16)
(-1637.07 -1944.54 -1.80322e-14)
(-4518.55 -1506.23 5.64046e-15)
(-2732.88 915.265 0)
(-2994.85 1133.88 -1.41858e-14)
(235.269 -3431.22 0)
(793.445 -2861.04 5.87779e-14)
(-2109.52 1291.02 -9.32345e-15)
(-2326.73 148.984 1.70397e-14)
(-1876.13 1688.72 5.88597e-15)
(-2741.53 784.415 0)
(-2959.21 838.646 0)
(-2536.37 1211.92 -2.25105e-14)
(-3545.24 2744.85 -3.88343e-14)
(-2026.03 2449.1 -3.82821e-14)
(1119.01 403.766 7.28736e-15)
(1120.96 199.125 0)
(-1225.01 979.503 0)
(-585.1 1097.72 0)
(-214.536 725.681 3.7737e-14)
(-122.195 517.454 1.87805e-14)
(373.069 25.5566 -1.91999e-14)
(316.364 30.857 -2.72961e-14)
(194.682 99.6124 1.09765e-14)
(224.204 59.5184 -2.75919e-14)
(211.363 33.86 -7.89024e-17)
(158.043 45.3656 0)
(66.0613 50.1331 -9.23122e-15)
(33.2604 65.3982 3.05937e-15)
(45.7887 67.1376 -7.95068e-15)
(106.515 74.8786 0)
(54.2239 55.5207 0)
(63.887 74.2586 1.42345e-14)
(77.9301 44.5909 9.48844e-15)
(74.3549 28.9863 0)
(1039.89 536.038 3.4821e-14)
(3381.01 6.15752 0)
(85.1888 12.7307 0)
(104.355 21.3164 8.15231e-15)
(65.3469 16.8169 6.40635e-15)
(52.4453 28.6618 -4.67018e-15)
(1869.61 -681.715 1.53705e-15)
(1666.12 -1071 0)
(30.5785 20.437 -3.73517e-15)
(36.4976 3.63997 8.09187e-15)
(-1076.8 -571.584 0)
(-948.466 -278.932 -5.177e-15)
(11.9882 841.907 8.81193e-16)
(-15.0035 599.907 3.58696e-14)
(9.67984 -0.476971 1.84974e-15)
(10.5664 6.38185 -2.04511e-15)
(9.66735 4.56403 7.04432e-16)
(13.7575 3.80074 0)
(67.7037 -971.741 2.97333e-14)
(286.355 -499.418 -4.30667e-15)
(5.66996 0.770715 -8.92117e-17)
(4.40478 2.12372 -9.58313e-17)
(6.77906 1.00707 4.81369e-16)
(-28.9894 0.329528 5.93176e-16)
(19.1583 12.2233 4.80795e-16)
(12.3891 6.54989 0)
(5.88414 12.8981 1.47147e-15)
(10.2458 5.7753 1.31894e-15)
(14.3489 14.4949 -9.29777e-16)
(3.4878 0.181956 0)
(1.79915 -1.02121 -3.26697e-16)
(-11.4175 -0.0947287 2.71092e-16)
(9.5754 -18.5206 1.56545e-15)
(-5.09961 -17.5991 1.96229e-15)
(-2.14666 -9.36009 2.9374e-16)
(-5.46064 -8.59555 5.53315e-16)
(8.90241 19.2779 -8.25983e-16)
(8.47047 19.7397 1.48389e-15)
(12.782 -16.6087 -3.93372e-15)
(5.01378 1.81605 3.40228e-16)
(8.44086 2.7828 9.60057e-17)
(-12.8242 -35.7965 4.77888e-15)
(18.389 103.611 1.09824e-14)
(38.5943 78.4802 -7.17904e-15)
(10.5998 14.0253 2.17174e-15)
(5.95245 12.367 -1.90111e-15)
(8.88319 -1.71036 9.81144e-17)
(7.95164 -1.74503 -1.37138e-16)
(11.6747 7.12586 0)
(18.5831 30.4318 5.52618e-15)
(28.4192 34.8827 -2.68038e-15)
(-111.642 -114.927 0)
(-251.627 -125.593 0)
(-1.24541 84.3176 7.36977e-15)
(25.655 136.522 0)
(-303.846 48.9899 -8.8362e-16)
(-327.561 22.3072 -3.1459e-19)
(-425.854 -9.06793 1.44899e-15)
(-106.729 -159.986 6.64468e-15)
(-66.6602 -106.859 9.01081e-15)
(-92.6553 238.322 -9.6001e-15)
(-60.35 266.862 2.75169e-15)
(19.0564 21.3769 0)
(23.738 17.5631 -4.49577e-15)
(13.662 -2.12039 -2.49208e-15)
(15.4797 -7.05024 4.64871e-16)
(24.5314 22.5636 6.32677e-17)
(20.2097 18.4831 -2.59675e-15)
(20.6222 67.2133 6.9745e-15)
(46.472 50.5856 2.5278e-16)
(8.07761 182.934 8.95388e-15)
(-73.1582 175.11 0)
(-161.462 275.444 0)
(7.28906 3.54375 3.70268e-16)
(5.17095 3.63751 -7.04046e-16)
(19.5034 -10.6881 0)
(31.8836 1.97139 2.35127e-15)
(10.0004 1.49918 -6.95708e-16)
(7.80329 4.25031 8.78304e-17)
(15.4419 4.11309 0)
(9.01463 8.83906 0)
(5.89065 1.46506 -1.53e-16)
(5.97207 0.789505 -1.34141e-16)
(5.81444 2.65024 1.84024e-16)
(8.49344 0.0217134 -7.43066e-16)
(6.66105 -2.82042 -7.90834e-17)
(9.57618 -1.29154 -6.314e-17)
(12.3197 -7.33722 -1.51364e-15)
(10.1115 -3.26081 1.98492e-15)
(9.10291 0.44849 0)
(6.51004 1.92533 5.13557e-17)
(165.252 -340.836 -1.65878e-14)
(73.349 -127.672 -1.54604e-14)
(7.08368 -0.0851517 -1.64251e-16)
(6.81121 -0.607594 1.80395e-16)
(6.68013 3.22856 4.08401e-18)
(5.0657 2.20735 1.80204e-17)
(8.04602 0.589825 -1.07483e-16)
(8.21149 -0.603506 0)
(14.7192 1.58281 1.98545e-15)
(9.35003 -0.933694 -1.09299e-15)
(11.1685 0.57281 -9.45168e-16)
(12.6527 3.45827 0)
(12.946 -2.76922 4.14554e-16)
(11.3253 -2.61931 -4.19276e-16)
(6.82052 -1.22131 0)
(6.44691 2.98037 0)
(6.98335 1.22979 2.21599e-16)
(10.2252 -0.346011 3.75391e-17)
(8.01009 2.07118 5.9291e-17)
(7.15593 0.496256 -3.22772e-16)
(5.90469 0.713327 0)
(10.5605 -1.48876 -8.33819e-17)
(113.888 -342.861 0)
(-8.99569 -187.349 1.88201e-14)
(11.4606 1.72386 0)
(5.96728 0.0528037 -3.19197e-16)
(-167.846 804.844 -7.3764e-15)
(-376.931 629.75 7.69201e-15)
(10.9019 -3.58018 0)
(15.4935 -1.12421 -7.06545e-17)
(11.3155 1.95359 0)
(73.4104 113.639 0)
(38.1563 57.9895 1.14971e-14)
(74.3031 78.6561 -7.90579e-15)
(7.99826 3.62255 -2.34869e-16)
(8.4548 3.52574 2.01289e-15)
(13.9809 0.0350141 -1.60674e-15)
(6.80659 -5.54688 -7.16333e-17)
(10.0406 -2.98522 4.79012e-17)
(15.6772 -3.48678 -5.22382e-16)
(8.42265 4.15 -2.81002e-16)
(28.4001 -8.27215 -1.34704e-14)
(41.9988 -15.5515 4.55331e-15)
(10.9637 4.45879 -1.86627e-16)
(25.9203 -13.7736 4.18682e-15)
(27.2852 -10.2015 -3.18751e-15)
(-474 242.52 2.93629e-15)
(-660.493 283.093 1.26261e-14)
(36.1338 -21.1747 -2.99156e-15)
(31.3907 -12.0942 2.86966e-15)
(16.7096 -1.00234 -1.17516e-15)
(9.91167 -2.48883 1.11632e-15)
(18.4513 -2.31832 0)
(16.9493 0.610273 0)
(35.2539 31.1274 3.25717e-17)
(44.6605 58.0831 6.88797e-15)
(7.71999 2.52699 2.06268e-15)
(12.3889 -1.46943 -2.49827e-15)
(9.3685 -2.55475 -2.59692e-15)
(12.8272 -0.530196 3.74653e-15)
(8.54181 -3.00987 3.06229e-15)
(15.2583 -2.77884 -1.13867e-15)
(9.90322 3.00466 6.33429e-18)
(23.4822 -1.07508 1.35412e-15)
(37.9817 37.8629 6.7964e-15)
(63.665 94.6682 -1.3415e-14)
(615.148 -493.755 0)
(13.2335 2.80195 -8.57917e-16)
(18.8649 6.58708 -1.97125e-16)
(19.0272 6.02226 1.99563e-16)
(17.9044 6.26095 -1.75123e-15)
(11.7429 1.43375 1.25102e-15)
(11.6378 5.28655 0)
(15.9744 7.08492 0)
(20.1344 -3.71857 0)
(9.94475 -0.580848 -1.68509e-15)
(16.9168 -7.93792 -1.71932e-15)
(-1171.56 -34.3032 -1.05348e-15)
(-665.815 -3.78889 0)
(34.4521 -3.41277 9.85262e-15)
(24.7397 -37.9006 1.23609e-14)
(26.944 5.35698 0)
(30.0269 15.9337 -3.03108e-15)
(12.0089 -2.8905 -6.27077e-16)
(12.5964 -0.507429 6.12598e-16)
(20.8518 1.52375 2.80054e-15)
(6.1945 4.52352 -3.40146e-15)
(13.6022 11.2838 -2.51999e-15)
(14.3808 2.60882 -2.93753e-15)
(18.5053 3.53809 -1.54892e-15)
(18.0726 4.57749 -4.54662e-15)
(12.7943 0.563571 5.84692e-16)
(13.6942 3.27503 -1.02949e-15)
(20.8549 0.78676 0)
(23.2695 7.57894 0)
(23.9777 2.36947 1.69e-15)
(13.1683 1.71447 -3.89048e-15)
(16.648 1.15746 2.68788e-15)
(22.5382 13.8242 -5.66348e-15)
(40.8 14.5184 2.64317e-16)
(20.0806 22.2221 0)
(20.2642 19.2654 0)
(23.3746 12.1849 9.99794e-16)
(20.8873 4.87224 -5.00717e-15)
(13.9181 -2.84863 0)
(19.3275 13.9339 0)
(30.6793 14.3358 0)
(18.8685 2.58807 -1.87263e-15)
(18.0627 -0.950439 1.54929e-15)
(15.0873 2.42812 9.03013e-20)
(16.354 17.6046 2.93791e-16)
(24.1264 11.489 1.21247e-15)
(29.1916 8.11583 0)
(33.2861 -3.68322 0)
(21.4819 -8.99483 0)
(-165.932 -661.898 0)
(-438.343 -677.113 0)
(-688.182 778.739 1.88283e-14)
(-546.346 739.948 1.01805e-14)
(19.6141 2.02028 -2.23877e-15)
(37.1086 -7.96173 -2.15402e-16)
(27.0736 1.97646 -5.96898e-15)
(28.9455 22.349 7.2587e-15)
(32.4263 5.74402 -3.11209e-15)
(32.2126 13.9894 2.38689e-15)
(25.6577 13.243 -2.02775e-15)
(40.9532 17.5721 -9.19267e-16)
(31.9873 24.2091 0)
(33.4144 21.6002 -1.99432e-15)
(25.558 5.26111 0)
(-289.681 799.161 -6.96415e-16)
(-363.995 803.871 0)
(49.1729 -24.7212 -5.34207e-16)
(69.313 -23.2428 -5.74534e-15)
(972.639 0.37379 3.58928e-14)
(1482.58 -736.382 -2.9442e-14)
(20.9179 19.6852 -6.19366e-15)
(51.7626 8.07383 5.44596e-15)
(-230.998 954.453 -4.65752e-14)
(-226.087 1504.94 5.20655e-14)
(-77.2548 -1403.15 4.47102e-14)
(303.377 -731.65 -2.13414e-14)
(57.3949 145.232 0)
(58.3219 153.681 0)
(68.5856 134.552 0)
(26.0089 11.3415 1.66902e-15)
(44.0079 -20.2783 -3.39582e-15)
(54.2888 -12.3421 0)
(49.4748 -19.0145 1.0837e-16)
(27.9246 -0.699023 9.36471e-15)
(55.4544 18.5991 6.38913e-15)
(105.987 -21.3268 -8.59628e-15)
(87.735 -58.7853 9.50196e-17)
(31.8799 34.5254 3.39534e-15)
(48.2994 25.6837 -5.88506e-15)
(39.5686 1.43341 -6.9561e-15)
(66.6692 0.860961 0)
(61.0539 -22.4457 0)
(70.5977 7.45005 5.62735e-16)
(40.7837 0.0368716 9.42657e-15)
(38.7286 2.89014 0)
(57.4197 51.9321 0)
(57.3992 34.3243 -3.88957e-15)
(84.7736 59.1674 -4.70857e-15)
(78.6265 85.4445 -2.99157e-17)
(63.1729 -27.8293 -5.09409e-15)
(68.0382 -13.5277 1.16511e-14)
(43.9591 32.845 8.76363e-15)
(47.8833 20.6631 -4.50202e-15)
(96.2851 -6.25201 5.82028e-17)
(62.7489 -22.9925 -3.57887e-15)
(67.8599 27.9269 -7.98433e-15)
(63.6032 6.75855 -9.86622e-15)
(43.0524 -10.6234 0)
(56.6172 35.4757 0)
(55.313 29.0097 0)
(72.6138 -73.5253 6.09805e-15)
(151.88 -73.1165 -9.80615e-15)
(66.9096 -11.7531 3.04117e-15)
(60.0241 -6.85103 3.02971e-15)
(110.807 47.273 0)
(109.879 48.451 -1.02484e-17)
(63.53 30.0181 0)
(70.9388 34.0114 1.19696e-14)
(37.8288 -31.4036 3.84766e-15)
(63.922 -11.433 -7.94662e-15)
(47.8685 5.12862 8.65117e-15)
(78.1309 7.48212 -6.54906e-15)
(96.9578 15.6555 -1.22039e-14)
(67.7617 -22.0839 3.66127e-15)
(63.771 -7.95334 0)
(47.5065 28.1252 -1.08031e-14)
(111.124 -20.3477 0)
(78.4048 -10.4911 0)
(63.8165 -41.4218 0)
(64.5967 15.253 0)
(63.1026 9.43558 0)
(37.8706 22.8604 1.69502e-15)
(69.3323 9.46822 0)
(76.4531 -1.87197 -4.72331e-15)
(65.6742 16.9718 0)
(51.1876 504.884 -1.0644e-14)
(-36.2954 402.183 0)
(108.38 42.2858 -1.75676e-14)
(139.287 0.367976 1.31969e-14)
(92.5141 42.0215 -9.90191e-15)
(75.6595 48.2539 0)
(96.1526 -49.3048 0)
(123.12 -33.636 -5.10534e-15)
(199.485 -257.437 0)
(187.528 -203.73 1.52778e-14)
(76.8802 46.3047 0)
(73.9423 27.2338 -1.24206e-14)
(115.589 -37.1873 -2.07088e-14)
(165.369 -34.018 1.40265e-14)
(66.8604 -21.7239 0)
(166.279 13.123 1.12836e-14)
(141.379 30.8394 1.22367e-14)
(184.042 75.0734 1.50533e-17)
(127.327 146.038 3.43694e-15)
(95.5452 82.983 -2.84654e-15)
(151.49 -187.631 -1.12513e-14)
(191.363 -160.124 0)
(105.699 42.664 1.46594e-14)
(113.392 23.995 -2.24327e-14)
(64.7636 113.656 -1.50279e-14)
(176.258 78.7651 1.51089e-14)
(177.045 156.187 0)
(107.205 23.6801 1.24858e-14)
(171.396 13.1418 -1.24168e-14)
(77.0468 87.1053 0)
(81.2153 94.6599 0)
(173.776 -93.2561 -1.40218e-15)
(139.69 -95.4091 1.05994e-14)
(126.599 26.8143 -9.50614e-18)
(201.73 14.1275 -9.84048e-15)
(-449.721 1202.21 -1.91483e-14)
(-1309.6 1030.28 -1.2827e-14)
(-1051.45 809.995 -1.02047e-14)
(184.945 -155.276 0)
(97.2295 57.4125 1.06902e-14)
(84.5766 190.009 -3.12571e-14)
(223.944 299.2 0)
(263.659 242.588 0)
(96.0575 -122.447 0)
(97.1352 -21.6632 1.09616e-14)
(-248.055 506.077 -8.44585e-15)
(-180.647 661.744 -1.20713e-14)
(-839.512 657.492 -6.02777e-15)
(-1095.23 655.505 1.95199e-14)
(148.203 230.477 0)
(77.1921 102.22 -7.03046e-15)
(179.091 -68.1786 2.94627e-14)
(306.079 -56.8223 -1.85945e-14)
(151.821 78.8538 -9.34577e-16)
(-2337.96 -224.624 -6.75136e-15)
(-1213.04 129.633 6.13285e-15)
(219.75 143.243 1.76676e-14)
(205.739 149.472 -3.65183e-14)
(149.217 -28.3342 -1.14308e-15)
(125.212 151.05 -9.66981e-15)
(182.266 279.06 -1.66801e-14)
(129.184 185.622 8.11299e-15)
(140.21 170.89 -2.54006e-14)
(146.501 47.9646 0)
(215.001 164.534 2.33421e-15)
(217.08 182.411 -2.05188e-15)
(198.775 -83.8976 9.91549e-15)
(211.806 -42.1536 2.59073e-14)
(266.386 -57.6174 1.02606e-14)
(157.381 -1.39814 1.18257e-14)
(115.14 -70.0088 0)
(410.409 234.961 0)
(450.837 -5.29294 -1.35981e-14)
(157.802 -75.8295 8.08126e-17)
(-1217.92 2638.05 5.09463e-14)
(-1258.92 2245.13 -5.47485e-14)
(481.425 -594.543 3.32077e-14)
(591.069 -285.25 -2.40324e-14)
(775.728 -573.903 2.80103e-15)
(517.9 84.0046 1.61801e-15)
(424.802 76.5336 0)
(896.835 453.53 0)
(573.49 -90.336 0)
(1169.78 -4.41266 2.215e-14)
(198.047 183.322 0)
(604.451 -264.868 -2.30908e-14)
(754.443 -414.656 4.7841e-15)
(272.28 -453.617 5.97132e-15)
(306.647 -431.539 -1.56417e-14)
(649.342 175.569 1.45193e-14)
(697.885 49.2359 -1.33359e-14)
(358.939 -129.616 -1.31264e-14)
(349.923 -119.643 9.30046e-17)
(361.136 -95.1512 2.15887e-15)
(402.68 -358.697 0)
(201.388 -168.732 0)
(335.668 460.712 0)
(519.924 346.113 -1.25624e-14)
(1188.91 -0.340059 0)
(875.682 -306.398 -1.93854e-14)
(232.158 143.287 -1.51824e-14)
(281.468 169.094 0)
(258.282 -311.066 7.90026e-15)
(268.993 -298.777 -3.69197e-14)
(1300.1 236.151 1.96648e-14)
(850.634 185.992 -1.82426e-14)
(872.965 -60.9282 3.44112e-14)
(1377.37 837.61 -1.82522e-14)
(230.006 -326.849 3.13824e-14)
(611.969 -833.46 0)
(586.462 814.536 2.64213e-14)
(131.491 1146.12 -1.34158e-15)
(1696.62 -2465.56 -1.28357e-14)
(2289.14 -2801.53 2.12199e-14)
(938.884 90.643 -1.00915e-16)
(1003.99 382.473 1.35646e-14)
(1486.03 2191.48 5.37875e-14)
(257.024 2395.91 0)
(395.5 1704.97 -3.75229e-14)
(363.051 28.2069 0)
(381.525 634.681 0)
(513.582 607.602 -6.14742e-15)
(367.665 -383.876 2.90371e-14)
(791.575 -462.264 -1.15017e-14)
(-4.00364 768.57 9.99071e-15)
(37.8743 630.449 -1.0583e-14)
(443.347 -1009.46 0)
(-128.401 -1155.77 0)
(997.925 -307.509 0)
(936.43 -643.702 0)
(-987.891 -1230.92 2.00212e-14)
(-735.882 -524.863 2.84432e-14)
(-67.0321 1169.57 -2.51088e-14)
(-137.164 991.62 -1.04744e-14)
(246.666 807.85 -1.84426e-16)
(245.082 674.426 0)
(498.05 -388.437 1.53859e-14)
(501.162 -919.294 -2.53168e-14)
(526.582 -885.143 -1.7748e-14)
(576.161 785.96 1.69173e-14)
(484.293 410.478 -1.70721e-14)
(485.368 146.046 0)
(-571.109 1590.47 -1.30762e-14)
(-540.731 1560.57 4.23963e-14)
(-724.445 933.103 -2.08792e-14)
(1893.95 230.96 -5.44679e-15)
(1943.69 129.298 5.78457e-14)
(-1286.33 1584.09 1.64547e-14)
(-705.628 2346.64 0)
(162.623 2043.65 0)
(287.346 1185.19 -4.35185e-14)
(6.30342 1489.46 2.53531e-14)
(26.354 -507.556 2.92987e-14)
(40.0251 -912.176 1.06552e-14)
(-990.821 673.55 0)
(-1050.26 680.879 9.95546e-15)
(-1068.41 774.596 -1.29505e-14)
(-103.36 666.365 -1.4815e-14)
(-368.477 624.358 -1.39351e-14)
(855.949 -1218.11 0)
(215.025 -937.457 4.71564e-14)
(-1937.93 2281.98 6.25069e-14)
(-1294.82 2123.82 -3.29618e-14)
(-1901.03 2772.12 0)
(-1224.71 31.2932 -7.62826e-16)
(353.954 -1534.77 -3.80271e-14)
(-366.465 -977.568 0)
(-1465.44 -781.856 0)
(-1267.8 -779.936 0)
(-157.58 1148.83 1.7848e-14)
(-746.508 512.81 0)
(1043.24 -103.751 6.49511e-14)
(138.069 823.048 5.19605e-14)
(-182.735 998.294 -2.05897e-14)
(-795.755 2529.46 -2.90451e-14)
(-348.914 1876.91 -9.37576e-14)
(-755.904 2129.51 -1.46894e-14)
(-1257.39 2365.07 0)
(210.225 273.154 1.12509e-14)
(-206.237 -1910.37 -4.98049e-14)
(-1332.25 -2232.18 1.33317e-14)
(499.003 -625.932 -1.78855e-14)
(-677.916 -1304.14 0)
(-143.689 -1906.1 0)
(-122.217 1062.2 0)
(-1128.04 2422.17 7.13041e-14)
(393.954 2390.47 -3.92922e-14)
(1630.18 -2891.83 3.46292e-14)
(1802.1 -3865.64 -1.78374e-14)
(-1622.21 1627.14 0)
(-2064.07 155.899 -6.92157e-15)
(-3071.96 756.095 0)
(-3271.98 1766.97 -7.74021e-16)
(-1595.45 1809.35 -9.1773e-15)
(2934.97 -4881.99 -8.12649e-14)
(2867.25 -4585.5 8.35829e-14)
(-1901.42 1484.54 0)
(-1090.34 1789.23 -4.85358e-15)
(-1045.75 -972.055 0)
(-1385.57 -1357.86 1.87592e-14)
(-1416.75 178.01 -2.22741e-15)
(-1164.35 287.267 0)
(335.457 945.811 5.31341e-14)
(-1812.4 66.8423 0)
(-1786.95 995.903 0)
(-3319.56 -1588.07 0)
(-1673.78 -627.853 0)
(-3415.86 1260.86 0)
(-1863.09 -409.097 -2.04127e-15)
(-4183.29 -586.298 2.09009e-14)
(-4725.71 -1959.59 1.0309e-14)
(-1518.94 -164.645 1.46997e-15)
(-1234.91 -96.0202 -1.38323e-15)
(-2766.13 -174.54 0)
(-2565.28 -80.6108 0)
(-2669.49 63.3953 1.35661e-14)
(-2501.5 -96.2409 -9.75177e-15)
(-2878.31 1076.77 0)
(-1542.24 -2143.31 5.9127e-15)
(-4844.57 -1384.9 0)
(-946.177 -460.434 2.05016e-17)
(-750.525 -1057.06 -1.7487e-14)
(-2820.3 -2692.98 -2.50434e-14)
(-3435.01 -3471.73 3.2579e-14)
(-1808.07 1281.91 0)
(-1393.79 287.931 -7.06535e-15)
(-3011.32 -373.699 0)
(-2898.83 775.988 1.2848e-16)
(-3705.41 2167.29 -8.90719e-17)
(-3695.74 1987.02 0)
(-2452.55 1899.59 -5.29669e-14)
(-1630.17 2009.67 4.30708e-14)
(-1262.36 -508.17 2.32324e-15)
(-2164.37 -16.4774 3.78123e-15)
(-1964.47 -146.913 1.70528e-15)
(-1222.18 -11.0974 -3.45562e-15)
(-309.274 -1841.22 0)
(-1252.26 -891.545 -1.45328e-14)
(-4271.61 -493.582 3.17993e-15)
(-2891.91 759.304 3.53711e-16)
(-3444.4 -1133.62 1.67035e-14)
(4227.38 1105.18 1.16991e-14)
(2207.46 -135.543 0)
(-1670.25 -1156.62 -1.44394e-14)
(-490.141 -1251.63 2.51133e-14)
(-726.957 -1319.82 -7.75675e-15)
(-700.739 -1034.05 5.60142e-15)
(-5952.49 -714.235 0)
(-3956.59 1881.91 5.15916e-17)
(-2937.83 1429.36 8.97683e-15)
(-2647.18 432.473 8.38477e-15)
(-4944.93 473.338 0)
(-3212.77 763.595 -4.25753e-16)
(-3888.61 -363.227 1.01398e-14)
(-4546.81 -747.873 -3.6034e-15)
(-2026.79 -991.981 -3.71837e-16)
(-1801.22 -2043.16 -1.67238e-14)
(-592.493 -1879.14 -9.82487e-15)
(-968.963 -841.782 0)
(-2325.89 -1159.69 2.32167e-16)
(-2311.58 -138.293 0)
(-2394.35 124.654 -2.69856e-15)
(-2965.85 -454.572 -2.74711e-15)
(-2344.39 147.367 0)
(-3454.54 3169.41 2.92556e-14)
(-2209.38 1824.58 5.34631e-14)
(-3367.18 2099.13 5.30546e-14)
(-5175.71 -1630.25 2.79566e-14)
(-4434.66 -2237.34 -3.13463e-14)
(-3481.53 2125.22 0)
(-3946.7 2301.68 1.55067e-14)
(-1733.87 -1124.82 -5.78496e-15)
(-2084.79 -983.546 -1.34164e-14)
(-3352.82 1223.7 -7.38458e-15)
(-1752.41 407.218 0)
(-4842.81 -2901.06 -4.8264e-14)
(-3140.92 1394.75 -1.90756e-14)
(-4439.69 -15.7141 0)
(-5487.05 -2559.15 1.04532e-14)
(-5848.53 -1607.08 -1.84342e-14)
(75.9829 -3675.53 0)
(329.317 -3036.44 0)
(-1702.7 -2415.74 3.13847e-17)
(-1290.09 -2181.53 -2.18204e-14)
(-1245.92 -2277.57 4.45406e-14)
(-2514.12 -2037.71 1.07199e-14)
(-1449.08 -1281.08 -2.59328e-15)
(-1823.31 829.027 -3.10097e-15)
(-1721.89 1033.42 -9.52908e-15)
(-1943.01 2149.06 -6.30638e-15)
(-4395.63 2095.1 0)
(-2602.62 -3375.41 -2.71688e-14)
(-3838.96 -4046.72 -6.28578e-14)
(-2207.96 -5346.82 9.77965e-14)
(-2604.78 -1018.76 0)
(-3244.76 -4186.51 0)
(-2354.7 -1304.47 0)
(-2137.3 -885.197 0)
(-2430.37 -16.8933 0)
(-1579.63 422.456 -8.74694e-15)
(-5599.05 2050.19 4.74202e-14)
(-5153.79 1302.9 -2.34301e-14)
(-1111.43 -940.489 1.00849e-18)
(-1366.55 1940.77 -5.74015e-14)
(-2016.18 3262.47 -5.76275e-16)
(-1014.26 1660.03 1.27556e-14)
(-1330.58 1018.4 2.841e-14)
(-1634.07 1880.24 -1.95324e-14)
(-2006.95 1720.47 1.69786e-14)
(-1253.79 2490.5 1.79539e-14)
(-2996.14 2030.19 0)
(-2073.68 852.145 9.21451e-15)
(-1961.12 710.757 0)
(-3622.89 -2586.48 -9.47203e-14)
(-2008.34 -2924.18 2.09367e-14)
(-1787.74 -1333.53 8.12774e-15)
(2870.07 -1023.17 4.60066e-14)
(2500.27 -817.885 0)
(-723.528 -1039.74 2.12395e-14)
(-1179.87 -1536.35 0)
(-2505.09 195.675 2.98016e-15)
(-2810.72 -1680.98 -3.14822e-14)
(-1047.97 -1982.09 -3.4639e-14)
(-1077.62 -1655.49 -2.40682e-14)
(-589.488 -1022.42 0)
(-2605.7 5558.86 -1.64791e-14)
(-2506.39 5011.73 -1.27672e-14)
(-3435.63 1240.45 2.55116e-14)
(-1666.69 976.615 2.67899e-14)
(-1373.8 1230.14 -2.32023e-14)
(-1640.12 -3302.62 -1.85721e-14)
(-1109.99 -3176.99 -6.19491e-14)
(-830.662 4104.51 -2.12505e-14)
(-1248.15 3778.9 -8.81773e-14)
(-1666.35 4437.92 -2.61448e-14)
(-1808.1 4082 5.19013e-14)
(3.60134 4216.82 7.56652e-14)
(184.28 3155.71 -4.20133e-14)
(-1368.29 -2085.37 0)
(-1319.04 -2323.6 0)
(-958.202 4015.59 6.67303e-14)
(686.179 -2388.58 0)
(-772.927 -1619.09 1.57562e-14)
(-323.984 2797.84 0)
(-782.66 2624.97 3.17665e-14)
(-1478.61 -4617.96 -2.93633e-14)
(-501.147 -3571.29 -1.06338e-13)
(-1202.63 2788.05 0)
(-662.427 2775.32 0)
(-1372.13 -1380.45 -1.91135e-14)
(-2608.87 -2547.02 -1.27386e-15)
(-4571.48 -3611.76 2.57315e-14)
(-1179.06 1677.45 1.66934e-14)
(-2219.91 2254.77 -3.27785e-15)
(-2738.56 -4051.39 -3.37397e-14)
(-2494.46 3486.63 -2.79241e-14)
(-2078.21 3453.2 0)
(-676.64 -4630.46 -5.32445e-14)
(-1486.88 2819.92 3.96435e-14)
(-88.6849 -1872.2 -1.91324e-14)
(4486.43 2364.8 3.2383e-14)
(4869.92 500.131 0)
(1433.75 3310.99 6.06897e-14)
(3915.61 1575.36 -4.42148e-14)
(-1939.39 -6122.03 -3.43878e-14)
(-4575.02 -4041.95 6.13574e-14)
(-4229.34 -4698.82 -3.46675e-14)
(847.216 -2335.67 -4.62316e-14)
(1499.02 -3009.31 0)
(4622.09 -1879.71 4.62336e-14)
(5659 239.789 0)
(3659.59 1309.93 -6.673e-17)
(3207.27 1585.39 -4.7901e-14)
(5175.65 -63.7679 0)
(6122.32 -350.299 -1.55388e-13)
(4458.59 270.661 -2.73774e-14)
(3973.14 -434.204 -2.52391e-14)
(3196.78 -2771.68 3.29978e-14)
(3750.48 -2047.61 1.62531e-14)
(2926.75 -2071.04 0)
(1115.28 1248.52 -3.70046e-14)
(1164.17 1286.16 2.66976e-14)
(2611.48 772.383 -2.10396e-14)
(1917.8 -2392.34 0)
(2942.48 -1173.3 2.47838e-14)
(3784.92 -1018.72 -5.25484e-14)
(5109.12 -871.659 7.67718e-14)
(4304.52 -1608.97 0)
(2954.28 -1959 0)
(4159.39 2005.97 6.66734e-14)
(3773.47 2714.91 -3.1421e-15)
(1907.15 1870.81 0)
(2179.54 874.77 0)
(1452.83 2008.82 0)
(1834.99 1244.14 2.24469e-14)
(1623.13 -2034.09 -3.3515e-14)
(1384.82 -2580.25 5.20008e-14)
(2557.13 839.935 3.21244e-14)
(2622.66 824.957 0)
(3064.56 693.096 2.56689e-14)
(1767.47 1378.3 3.81884e-14)
(2765.91 332.606 0)
(-473.808 -332.827 -3.5989e-14)
(137.694 416.288 0)
(1472.37 -711.171 -7.06358e-14)
(-512.816 -406.732 -1.46101e-14)
(1920.68 -456.31 -2.35464e-14)
(1468.65 -824.732 0)