/*--------------------------------*- C++ -*----------------------------------*\
| =========                 |                                                 |
| \\      /  F ield         | OpenFOAM: The Open Source CFD Toolbox           |
|  \\    /   O peration     | Version:  v2012                                 |
|   \\  /    A nd           | Website:  www.openfoam.com                      |
|    \\/     M anipulation  |                                                 |
\*---------------------------------------------------------------------------*/
FoamFile
{
    version     2.0;
    format      ascii;
    class       volVectorField;
    location    "0";
    object      U;
}
// * * * * * * * * * * * * * * * * * * * * * * * * * * * * * * * * * * * * * //

dimensions      [0 1 -1 0 0 0 0];


internalField   nonuniform List<vector> 
61389
(
(0.881603 -0.380009 8.43022e-22)
(0.119796 -0.189236 1.20005e-21)
(0.0984257 -0.198786 -1.68176e-21)
(0.37856 0.18653 -3.06432e-21)
(0.936097 -0.125988 0)
(0.937046 0.127369 7.5995e-22)
(0.125564 0.20375 -4.5524e-22)
(0.920514 0.131842 0)
(0.366749 -0.205572 0)
(0.933168 -0.124376 -1.65783e-22)
(0.911011 -0.133511 -3.71436e-21)
(0.161854 0.225815 -1.97218e-21)
(0.144407 -0.277852 0)
(0.204179 -0.291002 -1.5785e-21)
(0.916651 0.128438 2.7277e-21)
(0.919133 -0.120193 2.36059e-21)
(0.131185 0.267103 -5.6329e-22)
(0.271524 -0.351956 -2.0039e-24)
(0.907085 0.128958 -2.15878e-21)
(0.912805 -0.118607 3.46549e-21)
(0.260871 0.292274 -2.14215e-21)
(0.38841 -0.390874 -2.92798e-21)
(0.915972 0.120373 3.05659e-21)
(0.899979 -0.130128 0)
(0.903533 -0.128053 0)
(0.285085 0.339493 2.52583e-21)
(0.412984 -0.418165 1.02856e-21)
(0.899355 0.128718 0)
(0.361485 0.390177 1.8944e-21)
(0.520514 -0.443092 3.23232e-21)
(0.907429 0.122016 0)
(0.909381 0.119509 1.70189e-22)
(0.904624 -0.12456 4.6193e-21)
(0.472118 0.398817 0)
(0.602177 -0.466335 0)
(0.687245 -0.439612 0)
(0.906261 -0.123785 -3.17059e-21)
(0.542703 0.439312 0)
(0.919396 -0.121136 5.41731e-22)
(0.915612 0.112959 0)
(0.917082 -0.117421 1.44689e-22)
(0.689168 0.457097 0)
(0.620156 0.451241 -8.06314e-22)
(0.732346 -0.448049 -4.98363e-24)
(0.91395 0.121137 7.31301e-22)
(0.918375 -0.119344 -3.12668e-21)
(0.797148 -0.431098 0)
(0.922495 0.11893 -5.67729e-21)
(0.917706 0.118795 0)
(0.736446 0.442449 -8.34309e-22)
(0.928735 -0.11728 0)
(0.84764 0.402922 0)
(0.925408 -0.355664 3.96564e-23)
(0.988019 -0.301898 1.41174e-24)
(0.93926 0.110244 0)
(0.924128 0.118966 2.4801e-22)
(0.929301 -0.117165 5.04549e-22)
(0.89947 0.381131 -4.4209e-21)
(0.946644 -0.111724 -1.30122e-21)
(0.924255 0.364684 0)
(1.00637 -0.292001 0)
(0.945252 0.111859 -3.29846e-21)
(0.948282 -0.116004 0)
(1.01476 0.281633 -1.38369e-21)
(0.983475 0.311469 -4.10539e-21)
(1.05057 -0.234924 0)
(1.06424 -0.209634 9.77607e-22)
(0.95799 0.103299 2.74134e-21)
(0.962043 -0.110673 -6.12452e-22)
(0.962883 -0.104835 0)
(1.09865 -0.123169 0)
(0.959522 0.107169 -2.04241e-21)
(1.04445 0.246285 -1.06525e-21)
(0.967869 0.103892 2.8903e-21)
(0.975856 -0.103932 6.73547e-22)
(1.05856 0.212837 -5.62077e-22)
(1.07363 -0.167932 3.63413e-22)
(0.972973 0.103422 -1.71658e-22)
(0.988979 -0.0946529 1.07413e-22)
(1.08619 0.159711 -5.70218e-22)
(1.10502 -0.088866 -3.02533e-22)
(0.997441 0.0987254 2.27351e-21)
(0.985256 0.10098 -1.4773e-21)
(0.999898 -0.0984253 0)
(1.09896 0.127368 -2.19989e-22)
(1.10448 -0.0467955 -4.06892e-23)
(1.01459 -0.080721 0)
(1.10236 0.0866152 4.80059e-21)
(1.10766 0.00680741 0)
(1.01427 0.0854828 0)
(1.03151 -0.0819006 2.28319e-21)
(1.1006 0.0585077 0)
(1.03217 0.0805639 3.79085e-21)
(1.09703 0.0101044 -4.09213e-22)
(1.00084 0.000126723 1.30897e-22)
(1.00082 0.000200565 -4.7651e-22)
(0.999849 4.84189e-05 -1.578e-21)
(0.999871 4.10552e-05 9.93759e-22)
(0.999869 -0.00129614 0)
(1.00001 -0.00110998 0)
(0.999896 -0.000985608 -1.94798e-22)
(1.00002 -0.000805578 -3.59848e-22)
(1.00226 0.000960976 7.5653e-25)
(1.00193 0.00104855 1.03929e-22)
(0.997454 0.00155076 -1.79939e-21)
(0.998023 0.00171947 1.51591e-21)
(0.997915 0.00144273 0)
(0.99989 -3.80633e-05 -4.31789e-22)
(0.999908 -3.59928e-05 7.43733e-24)
(1.00354 0.00346495 6.16328e-22)
(1.00255 0.0030957 -2.5964e-22)
(0.9999 -3.97613e-06 0)
(0.999918 -2.4939e-06 0)
(0.999902 -2.72956e-05 7.90713e-22)
(0.999914 -3.43852e-05 6.30207e-22)
(1.00699 -0.00200586 2.30212e-22)
(1.00769 -0.000430272 3.6988e-22)
(0.999907 3.53942e-06 -1.28891e-21)
(0.999883 4.09401e-06 1.0297e-22)
(0.99983 -3.06867e-07 8.77178e-22)
(1.00803 -0.00308361 -6.33937e-22)
(0.999891 -1.49211e-05 -1.92965e-21)
(0.999923 -2.25991e-05 -1.73563e-22)
(0.999849 -9.29278e-05 -2.18396e-24)
(0.999851 -7.45001e-05 1.08172e-21)
(0.99963 -0.000280875 1.79418e-23)
(0.999593 -0.0003257 3.32701e-22)
(0.999549 -0.000344681 -9.33852e-22)
(0.999606 -0.000216433 3.93979e-22)
(0.999857 -4.25373e-05 -5.76521e-22)
(0.999844 -4.12115e-05 1.66761e-21)
(0.999795 1.62096e-05 -1.18603e-22)
(0.999796 4.38038e-05 1.20412e-21)
(0.999831 3.77342e-06 -9.18417e-23)
(0.999851 -8.07026e-05 0)
(0.999851 -5.66541e-05 7.70646e-22)
(0.999831 -4.66632e-05 0)
(0.999829 -4.2728e-05 1.17674e-21)
(0.999776 -7.56058e-05 0)
(0.999813 -6.6242e-05 2.7922e-22)
(0.999771 -2.17963e-05 0)
(0.999769 -1.76582e-05 -7.6957e-22)
(0.999709 1.5689e-05 1.15599e-21)
(0.999727 -1.62863e-05 9.96725e-23)
(0.999706 -0.000171344 0)
(0.999734 -0.000175127 8.02498e-22)
(1.00092 0.0173383 -5.88379e-22)
(1.00188 0.0144237 -7.38576e-22)
(0.99966 -0.000151819 0)
(0.999718 -0.000117277 0)
(0.999857 -0.00480628 0)
(0.999453 -0.00503239 0)
(0.999413 -0.000474561 1.36078e-21)
(0.999476 -0.000531135 -1.22528e-21)
(0.999767 -2.34915e-06 6.1148e-22)
(0.999564 1.67792e-05 -2.12163e-22)
(0.999539 7.62057e-06 1.20882e-22)
(0.999473 -5.31691e-06 -1.31419e-22)
(0.999472 -5.96518e-05 -4.06944e-22)
(0.999351 0.000143336 2.68285e-22)
(0.999424 0.000175738 0)
(0.999592 -6.4672e-05 -3.64566e-22)
(0.999266 0.000127555 -4.41404e-22)
(0.99919 0.000144231 -2.16298e-22)
(0.999464 -0.000373279 0)
(0.999463 -0.000507775 -3.94744e-22)
(0.999071 -0.000486962 -5.32357e-22)
(0.999107 -0.000406243 -5.38832e-22)
(0.998583 0.000130261 4.19326e-22)
(0.998643 0.000156535 0)
(0.998811 0.000483022 -5.091e-23)
(0.998868 0.000397349 1.87279e-22)
(0.945478 -0.00425879 1.02799e-22)
(0.943835 -0.00146059 0)
(0.997113 1.08564e-05 -5.25909e-22)
(0.997284 -0.000174747 5.29808e-22)
(0.997257 0.00018207 6.19347e-22)
(0.998236 -0.000650993 -7.45687e-22)
(0.998482 -0.000593619 -5.93215e-22)
(0.998599 -0.00103353 1.88635e-22)
(0.998443 -0.000731212 0)
(0.998137 0.00101256 -1.80734e-22)
(0.998261 0.00113194 2.68005e-22)
(0.996984 0.000147064 -4.40193e-22)
(0.99721 -3.85008e-05 4.38894e-22)
(0.996804 -0.00118512 6.0117e-22)
(0.996604 -0.00118373 -1.2236e-21)
(0.996261 0.00643031 0)
(0.995981 0.00662357 -5.39445e-22)
(1.00418 0.0409938 -1.3331e-21)
(0.998241 0.0398611 0)
(0.990939 -0.00532878 8.6954e-22)
(0.992161 -0.00519444 -1.68672e-21)
(0.993056 0.00282753 3.82566e-22)
(0.992978 0.00356324 0)
(0.989232 -0.00255063 1.70654e-21)
(0.991107 -0.00292501 -1.34004e-21)
(0.988184 0.0119324 3.76638e-22)
(0.987387 0.0135431 -7.65067e-23)
(1.00939 -0.0581409 1.375e-21)
(1.00593 -0.0619562 -2.51993e-21)
(1.007 -0.061775 5.87735e-22)
(1.01673 -0.016086 -1.63902e-22)
(1.01633 -0.0164635 0)
(0.980644 -0.0265538 -9.83076e-22)
(0.982419 -0.0262168 -2.23696e-22)
(0.9775 -0.0402513 6.3805e-23)
(0.983179 -0.0411561 0)
(1.0067 0.0293992 0)
(1.00439 0.0337329 -2.24344e-21)
(1.00774 0.0232277 -1.74977e-21)
(1.01018 0.0220145 -7.53411e-22)
(0.999346 -0.00839272 0)
(1.02799 -0.0352712 -3.63096e-22)
(1.02263 -0.0324136 0)
(1.01522 -0.0192015 -6.21359e-22)
(1.01487 -0.0198013 0)
(1.00154 -0.0397587 1.31714e-21)
(1.00524 -0.0474972 0)
(1.01432 -0.0274793 -3.38794e-22)
(1.0167 -0.0265134 0)
(1.00828 -0.0160217 7.50173e-22)
(1.01068 -0.0204531 5.72306e-22)
(1.01376 0.0195875 0)
(1.01742 0.0236714 0)
(1.01311 0.0185416 -2.35655e-21)
(1.02557 -0.00440864 0)
(1.02878 -0.00435401 0)
(1.02604 -0.00310005 -1.58e-22)
(1.02519 -0.00313713 -3.66013e-22)
(1.05311 -0.00359384 1.34196e-21)
(1.05376 -0.00637999 -8.46358e-22)
(1.0363 0.0463575 1.63589e-21)
(1.03141 0.0191596 -1.1696e-22)
(1.03234 0.0165796 2.92402e-22)
(1.0805 -0.0887528 -3.41861e-24)
(1.09406 -0.0899889 5.51642e-22)
(1.05763 -0.00740483 -1.09515e-21)
(1.00897 0.0381404 3.06655e-21)
(1.00584 0.0359293 1.17081e-21)
(1.03527 -0.0493093 0)
(1.0292 -0.0450387 0)
(1.05438 -0.0443249 -1.01189e-22)
(1.05149 -0.0434937 0)
(1.07891 -0.23514 0)
(1.07336 -0.223355 0)
(1.09006 -0.21599 -1.32259e-21)
(1.03893 0.0645955 0)
(1.03654 0.0609956 0)
(0.97273 0.0972222 0)
(0.968618 0.0834244 1.61655e-21)
(1.03065 -0.0199894 1.8874e-22)
(0.757373 0.181549 4.8349e-22)
(0.743693 0.171924 -7.07189e-22)
(0.954359 -0.0955348 1.11957e-21)
(0.963126 -0.102905 0)
(0.947114 -0.103897 -1.27073e-21)
(0.937492 -0.104143 1.13322e-21)
(0.940846 0.333556 -9.58066e-22)
(0.965006 0.328084 1.56097e-21)
(0.907225 0.110308 0)
(0.915888 0.11279 4.35381e-25)
(0.900439 0.131924 9.74627e-22)
(0.9152 0.098641 0)
(0.858416 0.176701 0)
(0.838988 0.17815 -1.51508e-21)
(0.920534 0.132796 -4.10447e-21)
(0.927029 0.138089 6.9649e-22)
(0.273511 -0.0306604 2.46218e-24)
(0.284168 -0.094652 -5.36449e-22)
(0.306632 -0.0917469 5.44149e-22)
(0.329697 -0.0654109 6.70182e-22)
(0.27824 -0.0105591 0)
(0.295262 0.0130131 6.13838e-22)
(0.209532 -0.0216357 0)
(0.387997 0.480452 -2.75605e-21)
(0.375153 0.399984 2.37015e-21)
(0.378834 0.276545 -9.21671e-22)
(0.389357 0.286701 0)
(0.911037 0.10683 -1.05811e-21)
(0.909994 0.102537 3.68033e-22)
(0.9426 -0.109159 4.70728e-22)
(0.932139 -0.117039 1.64162e-22)
(1.01853 -0.0856639 2.28272e-21)
(1.02426 -0.094088 -1.9673e-21)
(1.01176 -0.111509 5.8083e-22)
(1.00522 -0.11333 -5.83314e-22)
(1.0344 -0.0504793 -1.15968e-21)
(1.0299 -0.0478686 7.4154e-22)
(1.01275 -0.0411053 2.40561e-22)
(1.01398 -0.0431019 -2.89925e-23)
(1.03255 0.0637953 0)
(0.980702 0.0895318 -1.34364e-21)
(0.980141 0.0913731 0)
(1.10906 -0.0636571 0)
(1.12388 -0.039932 0)
(1.03303 -0.000460442 2.47727e-22)
(1.02731 -0.000365066 1.56597e-22)
(1.07421 0.0400983 -4.04516e-22)
(1.08462 0.0650432 5.19456e-23)
(1.05233 -0.0213724 0)
(1.0531 -0.021988 -6.43034e-22)
(0.992728 0.0657178 0)
(0.984643 0.0679825 2.52732e-21)
(1.03776 -0.0274944 -2.3592e-22)
(1.03627 -0.0221534 6.19619e-22)
(1.03715 -0.0297189 1.74695e-22)
(1.03367 -0.0257022 0)
(1.03586 -0.0217419 0)
(1.04385 -0.0245332 -9.61732e-22)
(1.047 -0.0699818 1.1832e-21)
(1.05657 -0.0743 1.23142e-21)
(0.977332 -0.00591268 3.15711e-22)
(0.979215 -0.00544566 0)
(1.01837 -0.0182633 0)
(1.02093 -0.0159413 0)
(1.00514 -0.010512 2.96756e-21)
(1.00363 -0.0111805 1.40946e-21)
(0.994576 -0.0014078 -7.59261e-22)
(0.994409 -0.00126606 -1.12434e-21)
(0.996508 -0.00129224 4.18404e-22)
(0.996548 -0.00162985 -1.00913e-21)
(0.997334 -0.000690102 -6.68572e-24)
(0.997484 -0.000476625 0)
(0.999037 -0.00112544 -5.06709e-22)
(0.999101 -0.000936338 1.63868e-22)
(0.999107 -0.00089887 -5.32947e-22)
(0.999276 -0.000980622 0)
(0.999089 -0.00091993 0)
(0.999151 -0.000932218 1.01752e-21)
(0.998958 -0.00050935 5.73598e-22)
(0.998872 -0.000573665 0)
(0.957753 0.00582586 -5.77358e-22)
(0.954456 -0.00230365 0)
(0.998689 -0.000245175 0)
(0.998839 -0.000218692 4.27101e-22)
(0.999048 -0.000441451 4.4761e-22)
(0.999121 -0.000358894 -3.19043e-22)
(0.963126 0.0145438 -2.13243e-23)
(0.96026 0.00919843 0)
(0.999635 -0.00017084 -4.11796e-22)
(0.999655 -0.000167519 9.70423e-22)
(1.0146 0.00402488 0)
(1.01328 0.00612928 -2.06543e-23)
(1.00286 -0.0159124 -4.48524e-23)
(1.00246 -0.0141544 1.81764e-21)
(0.999842 -3.05881e-05 1.10762e-21)
(0.999831 -3.98745e-05 -1.22563e-21)
(0.999857 -6.01581e-05 5.3624e-22)
(0.999872 -3.90086e-05 0)
(0.994862 0.0134043 -1.82177e-22)
(0.994889 0.0111424 3.27116e-22)
(0.9999 -7.61641e-06 3.38086e-22)
(0.999904 -3.63723e-06 3.6141e-22)
(0.999916 -1.67532e-06 -1.28196e-21)
(0.999977 -2.65116e-06 -1.44273e-21)
(0.999849 -0.000232478 -8.39271e-22)
(1.00009 -0.000139035 0)
(0.999982 -0.000167047 -1.53907e-21)
(1.00003 -0.000137475 -1.20122e-21)
(1.00004 -9.70469e-05 8.00661e-22)
(0.999962 -1.20626e-05 0)
(0.999952 1.0601e-06 6.91761e-22)
(0.999972 -8.72425e-06 -5.74021e-22)
(1.00008 0.000273778 -2.21636e-21)
(1.00008 0.0003975 -2.1888e-21)
(1.0001 6.42806e-05 2.70407e-22)
(1.00012 0.000103012 4.36495e-22)
(1.00009 -0.000178461 2.66885e-21)
(1.00004 -0.000184324 -2.31084e-21)
(0.999881 0.000146048 -1.00077e-21)
(0.999926 -1.0103e-05 -9.25723e-22)
(0.99993 -1.69622e-05 -7.84171e-23)
(1.00024 0.000619516 -3.09535e-21)
(0.99965 -0.00123058 -2.99577e-21)
(0.999536 -0.00129597 1.99222e-21)
(0.999858 -0.000159323 5.95412e-22)
(0.999857 -0.000164756 -5.36692e-22)
(0.99989 3.85636e-06 -5.22349e-22)
(0.999894 1.41987e-05 9.10605e-22)
(0.999884 -0.00012725 0)
(0.999775 -0.000539443 6.06714e-22)
(0.999773 -0.00048656 -2.9687e-22)
(1.00216 0.00353895 0)
(1.00339 0.00247551 0)
(1.00007 -0.00167005 5.18694e-22)
(1.00031 -0.00152317 0)
(1.0043 -4.77543e-05 -3.92646e-22)
(1.00531 -0.000504076 -1.02127e-24)
(1.00564 -0.000373699 2.54293e-22)
(1.00068 0.00307124 -6.05844e-23)
(1.00099 0.00314531 -2.64294e-22)
(1.00136 -0.00339858 2.58487e-22)
(1.00092 -0.00353398 -1.06211e-22)
(0.99974 -0.000409141 0)
(0.999742 -0.000283775 -6.22401e-22)
(0.999836 4.09872e-05 -1.22856e-21)
(0.999812 6.49583e-05 2.44851e-22)
(0.999786 -0.000258932 8.56693e-24)
(0.999748 -0.000289974 -4.13627e-22)
(0.99966 -0.000880136 8.6429e-22)
(0.999621 -0.000783928 2.4277e-23)
(1.0009 -0.0033555 7.5605e-23)
(1.00145 -0.00382884 0)
(1.00181 -0.00384866 0)
(0.999896 -3.55208e-05 5.4514e-22)
(0.999883 -4.16691e-05 -1.05278e-21)
(0.999685 0.000153792 0)
(0.999634 0.000144733 3.36556e-22)
(0.999877 -5.48145e-05 -4.9223e-22)
(0.999876 -7.71102e-05 5.93962e-23)
(0.999868 -7.50881e-05 0)
(0.999887 -7.49196e-05 0)
(0.999905 -1.02926e-05 5.93579e-22)
(0.999904 -3.99876e-06 5.66716e-22)
(0.999904 -2.49004e-06 -6.87221e-22)
(0.999903 -1.72648e-06 2.7367e-21)
(0.99989 7.27707e-06 2.53245e-22)
(0.999898 -1.63607e-06 1.90148e-22)
(0.999862 2.66301e-05 -1.38377e-21)
(0.999863 1.26811e-05 1.85389e-21)
(0.999878 -7.50599e-06 0)
(0.999893 -5.68871e-06 -8.13862e-22)
(0.999605 0.00429173 -1.90473e-22)
(0.998833 0.00437988 -2.69591e-22)
(0.999885 2.42744e-06 8.66849e-22)
(0.999888 1.22166e-06 -8.54454e-22)
(0.999905 -1.29534e-05 1.44725e-21)
(0.999902 -1.38672e-05 -7.58974e-22)
(0.999875 3.79949e-06 5.88893e-22)
(0.99989 7.71802e-06 0)
(0.999855 4.27116e-06 2.02893e-21)
(0.999875 -3.18349e-06 -1.11596e-21)
(0.99987 4.6926e-06 -9.77376e-22)
(0.999853 -3.95532e-06 0)
(0.999901 -1.30171e-05 1.32299e-21)
(0.999895 -1.02938e-05 -1.33257e-21)
(0.999894 2.36036e-06 0)
(0.999908 -1.35476e-05 0)
(0.999895 -2.11626e-05 1.40659e-21)
(0.999871 3.33446e-06 2.82733e-22)
(0.999886 -4.63772e-06 5.64972e-22)
(0.999917 -3.31213e-06 1.02558e-21)
(0.999864 -1.83675e-05 0)
(0.999882 -1.99027e-05 -2.04583e-22)
(0.998253 0.00396534 0)
(0.998798 0.0034098 3.28176e-22)
(0.999894 -1.03048e-05 0)
(0.999879 -1.52727e-05 -1.03592e-21)
(1.00353 -0.0106197 -4.93556e-22)
(1.00473 -0.00966713 4.90201e-22)
(0.99986 -4.14164e-06 0)
(0.99983 -1.15431e-05 -5.30312e-23)
(0.999864 -1.23171e-05 0)
(0.999153 -0.00161879 0)
(0.999412 -0.00135787 5.76885e-22)
(0.999336 -0.00178421 -3.96686e-22)
(0.99984 -2.89343e-05 -1.44962e-22)
(0.999832 -4.93223e-05 1.25331e-21)
(0.999859 -4.05066e-05 -9.61787e-22)
(0.999869 4.25502e-06 -1.76649e-21)
(0.999886 -3.79328e-06 1.11084e-21)
(0.999875 -2.85025e-05 -4.91445e-22)
(0.999848 -1.72033e-05 -2.79535e-22)
(0.999439 0.000216586 -1.09793e-21)
(0.999502 0.000333332 3.71863e-22)
(0.999896 -1.03994e-05 -1.35311e-21)
(0.999681 0.000102511 6.48155e-22)
(0.999681 7.70844e-05 -4.93454e-22)
(1.01008 -0.00448042 3.73763e-22)
(1.00922 -0.00360327 1.0988e-21)
(0.99954 9.25543e-05 -2.74828e-22)
(0.999467 0.000257531 2.63629e-22)
(0.999829 -7.38919e-06 -7.07165e-22)
(0.999842 -9.85725e-06 6.76557e-22)
(0.999833 -2.83771e-08 0)
(0.999852 9.60089e-06 0)
(0.999469 -0.000563551 2.00618e-24)
(0.999471 -0.000658603 7.88007e-22)
(0.999853 -5.67263e-05 1.18202e-21)
(0.999837 -5.92149e-05 -1.43161e-21)
(0.999815 2.20892e-05 -1.32636e-21)
(0.999809 -4.1524e-06 1.94784e-21)
(0.999806 2.70709e-05 1.68509e-21)
(0.99982 2.22507e-05 -6.2746e-22)
(0.999795 -3.27572e-05 2.15461e-24)
(0.999819 -6.29843e-05 4.961e-22)
(0.999259 -0.0010811 4.20282e-22)
(0.999231 -0.00111828 -8.54657e-22)
(0.991004 0.0116443 0)
(0.999857 8.51834e-06 -1.10068e-21)
(0.999762 -0.000115454 -3.8329e-23)
(0.999758 -0.000113855 3.8543e-23)
(0.999757 -0.000104899 -3.27616e-22)
(0.999842 -1.79343e-05 9.21276e-22)
(0.999767 -2.59995e-05 0)
(0.999782 -2.53739e-05 0)
(0.999792 -2.59167e-05 0)
(0.999805 3.63265e-06 -6.98153e-22)
(0.999803 -7.4317e-06 -7.17597e-22)
(1.01558 -0.00206007 3.56191e-22)
(1.0127 -0.00188027 0)
(0.999213 0.000335471 4.3112e-22)
(0.99913 0.000347122 5.79072e-22)
(0.999663 -0.000233652 0)
(0.999765 -0.000198812 -4.68441e-22)
(0.999775 1.10578e-05 -1.88845e-22)
(0.999773 3.05538e-05 1.84484e-22)
(0.999811 -0.000129404 6.6064e-22)
(0.999778 -0.00011532 -8.04872e-22)
(0.999803 -0.000111607 -5.91912e-22)
(0.999772 -0.000106154 -7.11754e-22)
(0.99974 -7.19359e-05 -3.47577e-22)
(0.999746 -8.416e-05 -9.92588e-22)
(0.999808 -5.60616e-05 1.74859e-22)
(0.999793 -7.76718e-05 -3.03212e-22)
(0.999738 -0.000137743 0)
(0.999775 -0.000133241 0)
(0.999728 -5.90172e-06 4.09799e-22)
(0.999722 -1.56398e-05 -9.46951e-22)
(0.999753 -0.000126063 4.84853e-22)
(0.999762 -0.000129748 -1.00447e-21)
(0.999607 -0.000120101 3.02646e-23)
(0.999587 -0.000170501 0)
(0.999561 -0.000181249 0)
(0.999723 -0.00011565 1.78702e-22)
(0.999742 -0.000108362 -8.67662e-22)
(0.999782 3.62155e-05 0)
(0.999674 -0.000125857 0)
(0.99971 -0.00013125 0)
(0.999714 -7.15606e-05 -3.81094e-22)
(0.999691 -8.6377e-05 3.1085e-22)
(0.999795 -5.35586e-07 3.2683e-26)
(0.9998 -8.79691e-05 6.95727e-23)
(0.999731 -0.000121107 2.13913e-22)
(0.999732 -7.52648e-05 0)
(0.999676 6.59462e-05 0)
(0.999648 6.91219e-05 0)
(1.00685 0.0140152 0)
(1.00829 0.0133857 0)
(1.01457 -0.013305 1.15819e-21)
(1.01341 -0.0113976 6.77452e-22)
(0.999786 -1.3834e-05 -5.95002e-22)
(0.999584 -4.86693e-05 -2.34606e-23)
(0.999576 -4.65098e-05 -6.60119e-22)
(0.999606 -0.000178416 7.83151e-22)
(0.999578 -0.000170261 -3.28984e-22)
(0.999567 -0.00015752 2.59556e-22)
(0.999618 -0.000158736 -2.20578e-22)
(0.999666 -0.000260551 -1.01894e-22)
(0.999632 -0.000243813 0)
(0.999626 -0.000210574 -2.36099e-22)
(0.999633 -0.000177301 0)
(1.00942 -0.0176227 -4.20352e-23)
(1.00761 -0.0174146 0)
(0.999144 0.000378047 -1.59183e-23)
(0.999192 0.000347169 -1.65913e-22)
(0.96919 0.00758331 -7.07632e-22)
(0.974139 0.012931 5.80454e-22)
(0.999451 -0.000258936 -5.98414e-22)
(0.999499 -0.000237439 5.2617e-22)
(1.00356 -0.0246098 -7.58365e-22)
(1.0034 -0.0218235 1.10779e-21)
(1.00235 0.0184497 1.36352e-21)
(1.00197 0.0181645 -1.07658e-21)
(0.998794 -0.00279742 0)
(0.998265 -0.0034278 0)
(0.998997 -0.00289467 0)
(0.999634 -0.000227089 2.24149e-22)
(0.999173 0.000190661 -1.63883e-22)
(0.999236 0.000115651 0)
(0.999217 0.000255966 5.28363e-24)
(0.999342 -0.000152245 7.65024e-22)
(0.999418 -0.000149497 5.05278e-22)
(0.999076 0.000427403 -3.4327e-22)
(0.999072 0.000442185 1.57113e-24)
(0.999407 -0.000296173 3.58048e-22)
(0.999533 -0.000277985 -6.18427e-22)
(0.999546 -9.11833e-05 -6.3574e-22)
(0.999244 0.000184913 0)
(0.999246 0.000211524 0)
(0.999257 1.33378e-05 3.38497e-23)
(0.999219 3.6294e-05 5.64314e-22)
(0.999415 -5.23081e-05 0)
(0.999229 -0.000327728 0)
(0.999361 -0.000377601 -3.3964e-22)
(0.999226 -0.000793268 -3.08871e-22)
(0.99929 -0.000814723 -2.98797e-24)
(0.999275 8.75854e-05 -2.62939e-22)
(0.999143 0.000135835 6.01921e-22)
(0.999203 -0.000329242 6.14437e-22)
(0.999249 -0.000215414 -3.14478e-22)
(0.998993 7.02046e-06 2.14373e-24)
(0.998946 5.61723e-05 -2.07839e-22)
(0.99925 -0.000158214 -5.33393e-22)
(0.999098 -0.000217468 -6.80087e-22)
(0.999375 9.23806e-06 0)
(0.999117 -0.000475098 0)
(0.999114 -0.000408067 0)
(0.998368 0.001294 1.16139e-22)
(0.998166 0.000993727 -1.92687e-22)
(0.999063 0.000199502 1.29353e-22)
(0.998923 0.000263876 1.33145e-22)
(0.999158 -0.00105316 0)
(0.999182 -0.00116884 -8.05065e-24)
(0.999128 -0.000239497 0)
(0.999053 -0.000310995 7.90764e-22)
(0.999004 0.000421002 1.36608e-22)
(0.999012 0.000341978 -2.72653e-22)
(0.998739 -0.000268451 4.7272e-22)
(0.998861 -0.00032556 -3.58429e-22)
(0.998797 0.000124819 -6.35815e-22)
(0.998856 0.000105448 1.88431e-22)
(0.999185 -2.18726e-05 0)
(0.9991 -5.97541e-05 -7.09338e-22)
(0.998388 0.000464051 0)
(0.998308 0.000586982 0)
(0.998432 0.000601364 0)
(0.998813 -0.000154572 0)
(0.99871 -0.000218857 0)
(0.999383 -0.000306178 1.68475e-22)
(0.999116 -3.12456e-05 0)
(0.999209 0.000193857 -2.1004e-22)
(0.998889 -0.000208841 0)
(1.00162 -0.0088172 -7.31361e-22)
(1.00182 -0.00769077 0)
(0.998345 -0.000485044 -8.51992e-22)
(0.998312 -0.000545926 6.23533e-22)
(0.998969 -0.000846668 -6.17478e-22)
(0.998844 -0.00104172 0)
(0.998138 0.000292882 0)
(0.998271 0.000154045 -1.99822e-22)
(0.996635 0.00454669 0)
(0.996929 0.00392884 3.29503e-22)
(0.999079 -0.000665973 0)
(0.99882 -0.000591951 -7.62144e-22)
(0.998132 0.000915336 -4.85903e-22)
(0.998257 0.000938202 2.907e-22)
(0.999033 0.00030976 0)
(0.997877 -0.00061554 4.3403e-22)
(0.998032 -0.000293756 4.86624e-22)
(0.998032 -0.00172145 -1.98449e-24)
(0.997769 -0.00190313 1.55625e-22)
(0.997779 -0.00171952 -1.28892e-22)
(0.996715 0.00351261 -1.90916e-22)
(0.997017 0.00260431 0)
(0.998004 -0.000155979 5.57327e-22)
(0.997861 -4.94472e-05 -8.42658e-22)
(0.997715 -0.00259879 -8.28998e-22)
(0.997696 -0.00285158 8.33461e-22)
(0.997944 -0.00258241 0)
(0.99706 -0.000562713 5.15003e-22)
(0.996881 -0.000556103 -5.12152e-22)
(0.998682 -0.00179245 0)
(0.998609 -0.00174357 0)
(0.997316 0.00206526 -3.74354e-23)
(0.997608 0.0022435 2.34475e-22)
(0.997006 0.00052312 -1.43082e-24)
(0.997224 0.000795732 -3.62729e-22)
(1.01188 -0.0173595 -6.67316e-22)
(1.0161 -0.0209155 -4.27651e-22)
(1.01131 -0.0188326 -2.73874e-22)
(0.997045 0.00345552 0)
(0.998238 -0.000655182 5.4965e-22)
(0.996671 -0.00359572 -1.96975e-21)
(0.996122 -0.0035877 0)
(0.996836 -0.00353071 0)
(0.997563 0.00122633 0)
(0.99754 0.00135372 2.22948e-22)
(1.00323 -0.00928778 -5.98116e-22)
(1.00367 -0.0106406 -8.88682e-22)
(1.01307 -0.00887079 -9.04838e-22)
(1.0152 -0.00773938 3.37517e-21)
(0.998565 -0.0030902 0)
(0.998089 -0.00344823 -5.47431e-22)
(0.995935 0.00220915 7.63024e-22)
(0.995631 0.00174062 -4.85452e-22)
(0.997928 -0.000899634 -3.88157e-23)
(1.0254 0.00502686 1.05951e-22)
(1.02196 0.00445822 -9.62449e-23)
(0.996003 -0.00248036 8.35222e-22)
(0.996164 -0.00279216 -1.73959e-21)
(0.997497 -0.000311083 -4.80422e-23)
(0.996721 -0.00497665 -5.97617e-22)
(0.996576 -0.00432376 -1.03537e-21)
(0.99773 -0.0035245 5.82944e-22)
(0.997723 -0.00385637 -1.84566e-21)
(0.997995 -0.000380071 0)
(0.994981 -0.00214892 1.11239e-22)
(0.995346 -0.0023257 -9.77854e-23)
(0.99704 0.00137761 3.76539e-22)
(0.996736 0.00136301 1.00598e-21)
(0.995353 0.00160513 2.47103e-22)
(0.994667 0.00190329 2.67054e-22)
(0.998148 0.00071611 0)
(0.993105 -0.00192275 0)
(0.992222 -0.00239925 -5.2531e-22)
(0.99723 0.00149733 1.08363e-23)
(1.01398 -0.0369625 -6.45618e-22)
(1.01028 -0.0330529 6.16306e-22)
(0.988282 0.0116799 5.23105e-22)
(0.987507 0.00984735 -3.77104e-22)
(0.989979 0.00987622 4.57322e-23)
(0.993832 -0.00219426 7.00004e-23)
(0.993539 -0.000399238 0)
(0.980252 -0.00462865 0)
(0.980973 -0.00276853 0)
(0.98271 -0.00512181 9.43021e-22)
(0.997253 -0.00229812 0)
(0.988484 0.00538837 -5.82829e-22)
(0.989425 0.00555665 1.19327e-22)
(0.996438 0.00896446 2.12438e-22)
(0.995066 0.00982341 -5.76324e-22)
(0.990382 -0.00197829 6.49891e-22)
(0.991018 -0.00102776 -5.96926e-22)
(0.993162 0.0033234 -3.16583e-22)
(0.993075 0.00279579 -8.94126e-24)
(0.993322 0.00432859 5.96671e-23)
(0.993539 0.00509032 0)
(0.996312 0.00308722 0)
(0.991499 -0.00534511 0)
(0.992129 -0.00432813 -6.23488e-22)
(0.98705 0.00277952 0)
(0.986567 -3.84748e-05 -5.81302e-22)
(0.995704 -0.00209316 -6.83853e-22)
(0.994858 -0.00165525 0)
(0.994766 0.00796571 3.47484e-22)
(0.994236 0.00731758 -1.7291e-21)
(0.972 -0.011311 8.85854e-22)
(0.976354 -0.0106143 -8.21793e-22)
(0.973746 -0.0065177 1.44749e-21)
(0.973745 -0.00728501 -7.27832e-22)
(0.99549 0.0128421 4.17053e-22)
(0.994217 0.0134023 0)
(0.99797 -0.0162262 1.20108e-21)
(0.998011 -0.0172583 -1.16862e-22)
(0.960591 0.0872477 -7.71969e-22)
(0.95662 0.0764665 1.02336e-21)
(0.978377 -0.00140771 -2.78269e-23)
(0.979532 -0.00202832 4.71655e-22)
(0.989783 -0.035703 2.15989e-21)
(0.991327 -0.0313475 0)
(0.989684 -0.0350102 -1.02302e-21)
(0.99426 -0.0027199 0)
(0.999203 -0.0141481 0)
(0.998085 -0.0147243 -3.93073e-22)
(0.987818 0.0115203 4.6174e-22)
(0.989408 0.0115969 -1.81782e-22)
(1.00078 -0.0112333 6.16282e-22)
(1.00166 -0.0114724 -6.60878e-22)
(1.00041 0.0153715 0)
(1.00123 0.0184489 0)
(0.979722 0.0183497 0)
(0.982734 0.0160188 0)
(1.01486 0.0170434 1.58407e-21)
(1.01601 0.0190061 1.98329e-21)
(1.00198 -0.0145336 -1.66036e-21)
(1.00104 -0.0139163 -7.41655e-22)
(0.999566 -0.0140755 -1.19177e-23)
(1.0008 -0.0127805 0)
(0.991047 0.00528178 5.2286e-22)
(0.994502 0.019965 -4.11776e-22)
(0.993803 0.0204533 -2.76591e-22)
(0.989887 -0.0174942 1.09729e-21)
(0.992629 -0.0156543 -1.00634e-21)
(0.990416 -0.00331594 0)
(1.01453 -0.0220665 -4.63797e-22)
(1.01715 -0.0257898 1.44919e-21)
(1.01588 -0.0246633 -7.0263e-22)
(0.955395 -0.00393077 -5.68576e-23)
(0.95191 -0.00523164 5.37443e-22)
(1.00576 -0.0445825 4.309e-22)
(1.00306 -0.0380473 0)
(1.00772 -0.0368746 0)
(1.00373 -0.0193668 -2.12105e-21)
(1.00456 -0.0156956 1.20855e-21)
(0.999403 0.0181532 9.60404e-22)
(0.999336 0.0227879 3.65933e-22)
(1.02071 -0.0148693 0)
(1.01833 -0.0142041 4.45881e-22)
(1.02058 -0.0157083 -6.02436e-22)
(1.0036 -0.0149366 -1.28399e-21)
(1.00491 -0.0149418 -1.19781e-21)
(0.985356 0.0252402 0)
(0.987305 0.0275447 6.01642e-22)
(1.04799 -0.0591908 -1.69272e-21)
(1.05595 -0.0606893 7.22684e-22)
(1.07381 -0.0653015 0)
(1.01966 0.00124966 -4.30465e-22)
(0.999668 0.0205854 -1.44786e-21)
(1.00202 0.0217335 0)
(1.02226 0.0135961 0)
(1.01874 0.0130254 0)
(1.01657 -0.021079 6.8324e-22)
(1.0158 -0.0210147 0)
(0.977182 0.0035634 6.90921e-22)
(0.999379 -0.0244338 2.30726e-21)
(0.998118 -0.0265121 -9.50132e-22)
(1.00881 -0.0614381 2.4359e-22)
(1.00944 -0.0630561 -1.46112e-22)
(1.0118 -0.0473926 -2.48711e-22)
(1.0189 -0.0497402 0)
(0.996714 -0.00483481 7.88323e-22)
(1.00969 0.0333445 -1.516e-21)
(1.01704 0.034196 4.10607e-22)
(0.995083 0.0110736 -1.75238e-22)
(1.001 0.0490452 0)
(1.00089 0.0464563 0)
(1.00359 -0.0125615 0)
(1.00142 -0.080133 -1.39465e-21)
(0.993201 -0.0831324 7.73401e-22)
(0.973931 0.0751796 -3.17645e-22)
(0.981945 0.0722101 1.54549e-22)
(1.04626 -0.0195046 0)
(1.04043 -0.0182975 -2.36269e-22)
(1.03962 -0.0175759 0)
(1.03227 -0.022177 -5.95986e-23)
(1.03365 -0.0258993 -3.49476e-22)
(0.954924 0.109198 -2.05847e-21)
(0.947338 0.100125 2.09753e-21)
(1.03341 -0.0226865 0)
(1.03299 -0.0250395 -1.44056e-22)
(1.02042 0.0182628 0)
(1.01875 0.0186274 7.25066e-22)
(1.02057 -0.00742436 -1.44765e-22)
(1.02159 -0.00971645 0)
(0.985927 -0.0257143 2.71099e-21)
(1.02612 -0.00991776 0)
(1.02472 -0.0147961 0)
(1.04969 0.0409243 0)
(1.04575 0.0405565 0)
(1.05609 -0.00481557 0)
(1.05201 -0.00733048 -1.20753e-21)
(1.06637 0.0391368 5.59574e-22)
(1.05941 0.0370755 2.6321e-22)
(1.01999 -0.00456461 -6.54104e-23)
(1.02161 -0.0027916 9.65193e-23)
(1.04036 0.0067393 0)
(1.04079 0.0086366 0)
(1.04716 0.0115796 1.96355e-22)
(1.04841 -0.0129121 -4.26274e-22)
(1.04495 -0.0149327 0)
(1.08184 0.0356454 2.89045e-23)
(1.08126 0.0397202 0)
(1.01645 0.0166023 1.19562e-24)
(1.0187 0.0166922 -1.21706e-21)
(1.05988 0.0420069 -7.10451e-22)
(1.06466 0.0525872 9.24245e-22)
(1.03137 -0.00537252 0)
(1.02625 -0.00332762 -8.76716e-22)
(1.07476 -0.00553956 0)
(1.07148 -0.012904 8.12072e-23)
(1.06591 -0.0379593 -4.61699e-24)
(1.06292 -0.0371276 0)
(1.02805 -0.0591419 -1.39545e-21)
(1.02581 -0.0558393 1.45688e-21)
(1.03237 0.00402967 2.72984e-22)
(1.02814 0.00319052 4.93161e-22)
(1.03127 0.00606106 2.31625e-22)
(1.03332 0.00681035 -5.15753e-22)
(1.00688 0.0225327 0)
(1.03561 0.0463608 -7.32429e-22)
(1.05648 0.0020791 -5.09664e-23)
(1.06147 0.00479885 9.77966e-23)
(1.04714 0.0274266 6.87588e-22)
(0.837869 0.0469829 -2.69703e-26)
(0.859607 0.0435689 0)
(1.01634 0.0196632 -1.16864e-21)
(1.01482 0.020445 2.02157e-21)
(1.01061 0.0219214 -6.50767e-22)
(1.01389 0.0208299 4.69946e-22)
(1.10228 0.0190921 0)
(1.11401 -0.0249597 1.89535e-22)
(1.04908 -0.015292 -3.33464e-23)
(1.04251 -0.0145873 -1.09182e-22)
(1.06328 0.00900829 0)
(1.07326 -0.00171644 -1.28652e-22)
(1.092 0.00158464 2.52128e-21)
(1.11041 0.00292431 -6.88615e-22)
(1.02451 0.0294218 -3.24286e-23)
(1.03024 0.0363105 -6.81388e-22)
(1.0224 0.0297866 -3.62701e-22)
(1.03795 0.00899302 0)
(1.03736 0.00449489 7.85407e-23)
(1.03867 -0.00643023 0)
(1.03459 -0.0034154 1.31178e-22)
(1.03747 0.0103842 -3.63905e-23)
(1.04306 0.00756688 0)
(1.05767 -0.0822152 7.81733e-22)
(1.06577 -0.0943834 7.39224e-22)
(1.07257 -0.102068 1.38789e-21)
(1.07175 0.0413411 2.03294e-21)
(1.06598 0.0325952 -2.32642e-21)
(1.08514 -0.0827132 0)
(1.08433 -0.0802624 2.57534e-22)
(1.02951 0.0177331 5.57865e-23)
(1.03018 0.0126311 5.41678e-23)
(1.05484 -0.00580188 2.1375e-22)
(1.05641 -0.0105503 0)
(1.04764 0.0503592 -1.09173e-21)
(1.07936 -0.020029 6.84653e-22)
(1.07858 -0.0135994 0)
(1.08216 0.0431651 7.23075e-22)
(1.09064 0.0431245 -1.74494e-21)
(1.00138 0.0723558 0)
(0.994122 0.0685484 0)
(1.03468 0.0744119 -4.02756e-23)
(1.03042 0.0820082 -9.35799e-22)
(1.03054 0.0812408 1.92884e-21)
(1.02373 0.0338294 4.88309e-22)
(1.02656 0.0306504 -1.07485e-22)
(1.02763 -0.0151043 -4.15303e-22)
(1.02358 -0.0118856 -1.24956e-21)
(1.04064 -0.0326803 2.61856e-22)
(1.04086 -0.0308582 0)
(1.03491 0.151929 -9.89334e-23)
(1.03731 0.154537 -2.14532e-22)
(1.0362 0.172287 3.27441e-22)
(1.04908 0.0505848 0)
(1.04835 0.0427426 0)
(1.03689 0.0245762 0)
(1.04115 0.025222 0)
(1.03967 -0.00962536 0)
(1.03681 -0.0119639 -5.67328e-23)
(1.1075 -0.0374947 4.01421e-22)
(1.10409 -0.0595347 -4.13663e-22)