/*--------------------------------*- C++ -*----------------------------------*\
| =========                 |                                                 |
| \\      /  F ield         | OpenFOAM: The Open Source CFD Toolbox           |
|  \\    /   O peration     | Version:  v2012                                 |
|   \\  /    A nd           | Website:  www.openfoam.com                      |
|    \\/     M anipulation  |                                                 |
\*---------------------------------------------------------------------------*/
FoamFile
{
    version     2.0;
    format      ascii;
    class       volVectorField;
    location    "100";
    object      U;
}
// * * * * * * * * * * * * * * * * * * * * * * * * * * * * * * * * * * * * * //

dimensions      [0 1 -1 0 0 0 0];


internalField   nonuniform List<vector> 
12639
(
(0.99989 -6.45491e-05 -3.98174e-22)
(1.00039 -5.14022e-05 2.86502e-22)
(0.998912 -4.3979e-05 2.2257e-22)
(1.0002 -5.1288e-05 -2.6569e-22)
(1.00031 4.51663e-07 2.60205e-22)
(0.998004 -6.36641e-05 0)
(0.998978 -6.99025e-05 -7.89449e-23)
(1.00035 -3.10195e-05 0)
(1.00027 -1.72102e-05 5.71303e-23)
(0.997581 5.91882e-06 0)
(0.998919 -7.06838e-05 0)
(1.00027 -3.98911e-05 0)
(1.0003 -1.15552e-05 -5.72772e-23)
(1.00022 -2.45219e-05 0)
(0.998109 2.96715e-05 -2.66174e-22)
(0.997707 1.24954e-06 0)
(0.999067 -5.26244e-05 0)
(0.997534 -3.21983e-05 0)
(1.00029 -2.4356e-05 0)
(1.00025 -1.78976e-05 0)
(1.00021 -2.19309e-05 -1.46433e-23)
(0.998673 -4.18309e-06 2.2703e-22)
(0.998415 2.08751e-05 1.54412e-22)
(0.998759 -6.31976e-05 0)
(0.997569 -3.63903e-05 0)
(1.0003 -2.47488e-05 -3.03574e-23)
(1.00028 -2.1915e-05 0)
(1.00026 -1.62652e-05 -1.32382e-22)
(1.0002 -2.04429e-05 2.2881e-23)
(0.99991 -1.02516e-05 -5.54037e-23)
(0.998493 1.06436e-05 -8.19123e-22)
(0.997513 -4.00799e-05 0)
(0.998948 -8.09694e-05 2.63647e-23)
(0.997937 2.11229e-05 5.37781e-22)
(1.0003 -2.09238e-05 0)
(1.00027 -2.41903e-05 -3.8537e-23)
(1.00022 -2.11066e-05 3.16392e-22)
(1.00021 -2.06286e-05 -1.03073e-23)
(1.0002 -1.9398e-05 -1.58648e-23)
(1.00016 -1.0717e-05 4.30205e-22)
(0.999463 -1.23837e-05 9.51633e-22)
(0.997396 -3.86303e-05 0)
(0.998802 -8.87457e-05 0)
(0.99822 1.10459e-05 -7.04081e-22)
(1.0003 -2.43431e-05 6.15991e-23)
(1.00029 -1.31031e-05 6.5587e-23)
(1.00022 -2.33202e-05 -1.75433e-22)
(1.00022 -2.03864e-05 1.56527e-22)
(1.0002 -1.74841e-05 -2.59559e-22)
(1.00019 -1.65383e-05 -1.2133e-23)
(1.00002 -1.42107e-05 -5.05506e-22)
(1.0004 -4.17636e-05 -7.79697e-23)
(0.999375 3.17411e-05 -1.34695e-21)
(0.997442 -4.6728e-05 0)
(0.998084 3.68442e-05 4.57891e-22)
(0.999754 -1.48194e-05 0)
(0.997372 -0.000168073 0)
(1.0003 -1.35898e-05 -3.12474e-24)
(1.00037 -4.09622e-05 4.78445e-22)
(1.00024 -2.9565e-05 4.57593e-23)
(1.00022 -1.97166e-05 0)
(1.00021 -1.70356e-05 2.34889e-22)
(1.00019 -1.55052e-05 7.95447e-23)
(1.00019 -1.63168e-05 1.27386e-23)
(1.00047 -3.03428e-05 -7.47326e-23)
(1.00038 -3.72213e-05 7.31408e-23)
(1.0004 -4.9863e-05 -1.42681e-22)
(0.999608 6.30399e-05 1.35132e-21)
(0.99773 0.000174228 -1.63946e-21)
(0.998805 0.000107358 2.22376e-22)
(0.999547 -3.27122e-05 6.98458e-22)
(0.997483 -0.000282002 -8.08489e-21)
(1.00025 -2.82312e-05 -3.61589e-22)
(1.00031 -4.43962e-05 -4.05174e-22)
(1.00023 -2.33754e-05 3.64765e-22)
(1.00022 -1.97847e-05 1.85044e-22)
(1.0002 -1.45537e-05 -1.17187e-23)
(1.00018 -1.28485e-05 5.51344e-23)
(1.00017 -1.28434e-05 0)
(1.00037 -4.40875e-05 3.94333e-23)
(1.0002 -1.50852e-05 0)
(1.0002 -1.64318e-05 2.60073e-23)
(1.00052 -4.22119e-05 -2.92754e-23)
(0.998935 0.000136078 1.54612e-21)
(0.99796 0.00023186 2.73848e-21)
(0.998999 -0.000104643 6.46848e-21)
(0.996044 6.8679e-05 -3.36533e-21)
(1.00026 -2.49579e-05 0)
(1.00025 -2.47154e-05 0)
(1.00023 -2.49887e-05 1.33253e-22)
(1.00021 -1.67473e-05 -6.2646e-22)
(1.00018 -1.26582e-05 -2.16313e-22)
(1.0002 -1.3838e-05 3.78805e-22)
(1.00017 -1.1608e-05 -2.60124e-23)
(1.00022 -2.39301e-05 2.59874e-22)
(1.00021 -1.67367e-05 -2.881e-23)
(1.00023 -2.02554e-05 -9.32333e-23)
(1.00037 -7.03416e-05 -5.18671e-22)
(1.00048 -6.60066e-05 7.22275e-22)
(1.00026 5.96803e-05 -1.45509e-21)
(0.998855 -0.00020542 0)
(0.99662 0.000138062 2.88785e-21)
(1.00025 -2.91826e-05 0)
(1.00024 -2.70751e-05 0)
(1.0003 -4.6119e-05 -2.2779e-24)
(1.00022 -1.64483e-05 1.45563e-22)
(1.00017 -8.74634e-06 -1.45724e-22)
(1.00019 -1.08612e-05 0)
(1.00015 -8.03992e-06 1.77512e-22)
(1.00024 -2.22525e-05 4.65621e-23)
(1.00021 -2.1582e-05 5.4873e-23)
(1.00022 -2.0524e-05 -2.47214e-23)
(1.00024 -1.81154e-05 -2.01804e-22)
(1.00019 -5.10697e-05 0)
(0.999641 0.000102128 0)
(1.00027 -9.44578e-05 2.32122e-24)
(0.997237 -0.000190419 0)
(0.996275 0.000100733 -1.10323e-21)
(1.00025 -3.53965e-05 1.15315e-23)
(1.00024 -2.72865e-05 2.41975e-22)
(1.00028 -2.01143e-05 -1.50027e-23)
(1.00022 -1.8211e-05 -1.81342e-21)
(1.00017 -8.16473e-06 -2.54851e-22)
(1.00019 -1.07087e-05 -4.54528e-22)
(1.00014 -4.7641e-06 0)
(1.00022 -2.06566e-05 0)
(1.00021 -2.1528e-05 -1.50389e-23)
(1.00021 -2.35016e-05 2.857e-23)
(1.00022 -2.05669e-05 2.47212e-23)
(1.00025 -2.05058e-05 -8.90192e-23)
(1.00026 -2.14904e-05 0)
(1.00003 1.10418e-05 -1.87385e-21)
(0.999847 -9.16211e-05 2.39379e-22)
(0.997293 -0.000229413 0)
(0.996081 0.000161361 4.34876e-22)
(1.00025 -4.84703e-05 0)
(1.00024 -2.92765e-05 0)
(1.00027 -3.0811e-05 4.08981e-22)
(1.00022 -1.54519e-05 1.31292e-21)
(1.00016 -3.29216e-06 2.76726e-22)
(1.0002 -1.09791e-05 6.05624e-22)
(1.00018 -2.20072e-06 0)
(1.00014 -3.22254e-06 -2.38618e-22)
(1.00022 -2.02453e-05 0)
(1.00021 -2.13303e-05 0)
(1.00019 -2.21748e-05 -3.85364e-23)
(1.00021 -2.08842e-05 0)
(1.00022 -1.55571e-05 1.04457e-22)
(1.00025 -2.74329e-05 1.0383e-22)
(0.99951 6.08088e-05 3.71191e-22)
(1.00024 7.67284e-06 2.41438e-21)
(0.998743 -0.000258841 -2.67993e-22)
(1.00044 -6.05847e-05 -4.89607e-22)
(0.995476 8.39906e-05 -2.83952e-23)
(1.00025 -3.97277e-05 2.60643e-22)
(1.00025 -6.21231e-05 -3.46392e-22)
(1.00024 -2.60874e-05 -1.44273e-21)
(1.00022 -7.99492e-05 -2.49754e-22)
(1.00023 -1.55758e-05 9.75181e-22)
(1.00016 -7.46322e-07 0)
(1.0002 -4.58033e-06 0)
(1.00018 -1.53921e-07 0)
(1.00013 7.16299e-07 3.81514e-22)
(1.00022 -1.71261e-05 6.99172e-23)
(1.0002 -2.33328e-05 1.08875e-22)
(1.00019 -2.58299e-05 -3.86048e-24)
(1.00021 -1.9991e-05 6.30641e-23)
(1.00023 -5.50334e-06 -3.41582e-23)
(1.00022 -7.17513e-07 -1.0673e-23)
(1.00025 -2.89779e-05 -1.19091e-22)
(0.999492 4.21529e-05 -8.86058e-22)
(1.0002 4.63827e-05 0)
(0.998725 -0.000372237 -3.33038e-21)
(1.00027 -3.05933e-05 -6.45254e-22)
(0.995569 0.000103172 3.69209e-21)
(1.00026 -5.04445e-05 -1.88503e-22)
(1.00027 -7.83023e-05 3.62223e-22)
(1.00025 -2.78487e-05 -1.45626e-21)
(1.00023 -8.98769e-05 2.57753e-22)
(1.00022 -7.31995e-06 -8.94308e-22)
(1.00015 2.7145e-06 -2.43699e-22)
(1.0002 -3.39882e-06 1.10723e-21)
(1.00018 3.94131e-06 1.50259e-23)
(1.00012 2.95897e-06 0)
(1.00013 5.09209e-06 -1.49175e-22)
(1.00021 -1.96366e-05 0)
(1.00022 -1.57328e-05 -8.19858e-24)
(1.00019 -2.41329e-05 -6.32551e-23)
(1.00017 -2.29874e-05 1.40811e-22)
(1.00019 -2.34665e-05 1.26395e-22)
(1.00022 -4.00159e-07 -1.06673e-23)
(1.00022 1.75248e-05 1.14354e-23)
(0.999635 2.61643e-05 -1.3508e-21)
(1.00024 2.26591e-05 0)
(1.00075 -3.36917e-05 1.56044e-21)
(0.995012 -0.000393043 2.09849e-21)
(1.00016 -6.93007e-05 7.7057e-22)
(0.996512 0.000322727 -5.34238e-21)
(1.00027 -6.38327e-05 9.85947e-22)
(1.00027 -4.17025e-05 9.26221e-23)
(1.00027 -9.48743e-05 0)
(1.00026 -1.96601e-05 2.98644e-21)
(1.00024 -0.000101139 3.3076e-22)
(1.00023 -4.24059e-06 -1.86476e-21)
(1.00015 4.29276e-06 2.03467e-22)
(1.00019 6.41068e-06 4.745e-22)
(1.00016 8.11921e-06 -1.18441e-23)
(1.0001 7.51048e-06 0)
(1.00012 9.04523e-06 1.94983e-22)
(1.00021 -1.84634e-05 -1.70306e-22)
(1.00022 -1.37015e-05 0)
(1.00017 -2.22041e-05 -2.28048e-22)
(1.00019 -2.35217e-05 -1.57246e-22)
(1.00024 2.3631e-06 0)
(1.00023 1.52982e-05 0)
(1.00043 -1.30616e-06 1.08577e-21)
(1.00022 5.07075e-05 1.50209e-21)
(1.00022 2.01238e-05 0)
(0.999988 -6.04601e-05 0)
(0.995577 -0.00057389 1.58621e-22)
(1.00017 -7.18986e-05 0)
(0.996418 0.000545568 1.29938e-21)
(1.00029 -7.10822e-05 0)
(1.00028 -4.82992e-05 0)
(1.0003 -0.000110132 0)
(1.00026 -0.00011613 -4.85714e-23)
(1.00028 -2.42662e-05 -1.77148e-21)
(1.00024 -5.10287e-06 1.48546e-21)
(1.00021 -0.000147038 -3.16698e-22)
(1.00021 1.1378e-05 -1.72855e-23)
(1.00013 1.12418e-05 -1.46674e-23)
(1.00019 9.02723e-06 -4.74475e-22)
(1.00016 1.48357e-05 7.76653e-22)
(1.0001 1.20588e-05 0)
(1.0002 -2.13922e-05 4.54875e-22)
(1.00022 -1.31002e-05 -3.97767e-22)
(1.00017 -2.6179e-05 0)
(1.00017 -2.80443e-05 7.65757e-24)
(1.00019 -2.3382e-05 -5.09007e-22)
(1.00024 1.45934e-05 -2.34933e-22)
(1.00023 -7.24931e-06 4.93683e-22)
(1.00024 2.99495e-05 2.66924e-22)
(1.00014 -4.80554e-05 -1.44223e-21)
(1.00019 4.98046e-05 -1.25895e-21)
(1.00022 4.50815e-05 -2.95614e-22)
(1.00053 -0.000114199 -3.32434e-21)
(0.998877 -0.000185755 3.80003e-21)
(0.992432 -0.000262794 -3.23814e-21)
(1.00008 -7.41245e-05 2.77231e-21)
(0.999394 0.000320808 3.82386e-21)
(1.0003 -7.78382e-05 -9.27463e-22)
(1.00029 -4.70179e-05 3.61765e-22)
(1.00032 -0.000130598 5.69048e-22)
(1.00027 -0.000137278 0)
(1.00028 -8.52261e-06 2.33683e-21)
(1.00026 3.06864e-06 -4.78757e-22)
(1.0002 -0.000158018 -1.41967e-21)
(1.00021 1.61725e-05 5.80951e-22)
(1.00012 1.45881e-05 2.78476e-22)
(1.00017 1.91041e-05 1.43717e-22)
(1.00013 1.86914e-05 7.87188e-22)
(1.00009 1.21441e-05 -6.14891e-23)
(1.0002 -2.0722e-05 -2.64491e-22)
(1.00021 -1.88121e-05 5.44128e-22)
(1.00016 -2.74631e-05 0)
(1.00015 -2.6564e-05 0)
(1.00018 -2.6876e-05 2.59699e-22)
(1.00025 1.62147e-05 0)
(1.00023 -5.70297e-06 -7.79813e-22)
(1.00024 4.31253e-05 -3.47598e-22)
(1.00036 4.4298e-05 -3.0026e-22)
(1.0002 6.72074e-05 2.92301e-22)
(1.00023 6.03427e-05 3.35521e-22)
(1.00056 -0.000128064 4.68527e-22)
(0.998412 -0.000301829 -7.56674e-22)
(0.993173 -0.000314194 -2.06462e-23)
(1.00017 -0.000191344 -4.30664e-22)
(0.998522 0.000499754 -2.05723e-21)
(1.00033 -8.58847e-05 2.1249e-21)
(1.00031 -4.9106e-05 -9.36565e-22)
(1.00035 -0.000124453 1.12045e-21)
(1.00031 -0.00016177 -5.57425e-22)
(1.00025 -0.00019425 6.75923e-22)
(1.0003 -4.14848e-06 -2.59107e-21)
(1.00026 1.40308e-05 0)
(1.00014 -0.000190105 1.76598e-21)
(1.00023 2.13928e-05 0)
(1.00019 3.13309e-05 2.88789e-22)
(1.00017 2.69383e-05 -7.6714e-22)
(1.00012 2.35216e-05 -8.74337e-22)
(1.00009 1.74979e-05 -3.36115e-23)
(1.00019 -2.61244e-05 -7.20667e-22)
(1.00022 -1.72706e-05 1.4683e-21)
(1.00016 -2.79226e-05 0)
(1.00015 -3.21044e-05 0)
(1.00018 -2.72229e-05 3.98679e-22)
(1.00024 -3.79194e-06 7.79776e-22)
(1.00027 2.38747e-05 0)
(1.00026 5.65084e-05 6.00912e-22)
(1.00025 4.09716e-06 -1.89577e-22)
(1.00015 8.39044e-05 7.49664e-22)
(1.00023 7.28074e-05 1.31783e-24)
(1.00023 -6.05225e-05 1.30259e-21)
(0.996805 -0.000327483 0)
(0.991273 -7.8149e-05 0)
(1.0001 0.000113215 1.33897e-21)
(1.00034 -6.16246e-05 -4.01517e-21)
(1.00032 -2.35901e-05 3.0725e-21)
(1.00037 -0.000123724 -9.79054e-23)
(1.00031 -0.000200114 -2.47319e-22)
(1.00028 -0.000230076 2.69489e-22)
(1.0003 1.77492e-05 4.1435e-21)
(1.00028 2.62368e-05 0)
(1.00015 -0.000238323 -1.02476e-21)
(1.00023 3.8567e-05 0)
(1.00019 4.08618e-05 1.0146e-21)
(1.00015 3.14926e-05 -3.75596e-22)
(1.0001 2.31636e-05 8.9455e-23)
(1.00012 2.8222e-05 4.76364e-22)
(1.00008 2.45575e-05 -3.77969e-23)
(1.00019 -2.79572e-05 4.50929e-22)
(1.00021 -2.24304e-05 -7.9791e-22)
(1.00015 -3.00811e-05 1.56867e-22)
(1.00013 -3.03577e-05 -1.22263e-22)
(1.00016 -3.13101e-05 0)
(1.00025 -7.48132e-06 -1.69992e-21)
(1.00028 1.92421e-05 -1.06955e-21)
(1.00028 4.04698e-05 -5.94221e-22)
(1.00026 8.43309e-05 5.62598e-23)
(1.00028 1.01969e-05 -1.34095e-21)
(1.00015 0.000121984 -5.50013e-22)
(1.00024 9.33563e-05 6.00593e-23)
(1.00033 -7.77683e-05 -3.30595e-21)
(0.99622 -0.000407544 0)
(0.991714 3.22103e-05 0)
(0.999151 0.000245967 0)
(1.00037 -6.70444e-05 -3.64222e-21)
(1.00035 -2.21617e-05 -2.17109e-21)
(1.00041 -0.000132973 -1.33124e-22)
(1.00035 -0.000216646 0)
(1.00028 -0.000259692 -3.97575e-22)
(1.00032 2.43937e-05 -3.65654e-21)
(1.00027 4.64278e-05 1.23562e-21)
(1.0001 -0.000212564 -1.73333e-21)
(1.00016 -0.000258378 0)
(1.00021 4.90531e-05 -1.42098e-21)
(1.00017 4.74357e-05 1.44345e-21)
(1.00014 4.19412e-05 -1.33287e-21)
(1.00009 2.77515e-05 -1.20539e-22)
(1.0001 3.59898e-05 -5.17752e-22)
(1.00007 2.64037e-05 1.36787e-22)
(1.00019 -2.89709e-05 -1.04207e-21)
(1.00017 -3.25481e-05 -5.53297e-22)
(1.00022 -2.53264e-05 -1.51866e-21)
(1.00015 -3.12494e-05 2.37503e-22)
(1.00012 -3.75512e-05 -2.22672e-23)
(1.00027 -4.38363e-06 2.18495e-21)
(1.00024 -2.36299e-05 1.95362e-21)
(1.0003 2.28283e-05 7.54961e-22)
(1.00029 5.49729e-05 -9.51791e-22)
(1.00028 9.51589e-05 -1.3106e-21)
(1.00023 0.000137103 8.65316e-22)
(1.00014 0.000138019 0)
(1.00024 0.000108617 0)
(1.00042 -0.0003209 5.79819e-21)
(0.996581 -0.000320057 -1.41305e-21)
(0.991309 0.000184038 0)
(0.999581 0.000147834 0)
(1.00038 -5.91479e-05 3.94468e-21)
(1.00036 9.90537e-06 1.6792e-21)
(1.00045 -0.000116016 1.50618e-22)
(1.00041 -0.000187453 0)
(1.00037 -0.000285723 0)
(1.00033 -0.000327748 -4.57508e-22)
(1.00021 -0.000275838 5.93488e-23)
(1.00033 4.91227e-05 0)
(1.00026 6.07079e-05 -1.23556e-21)
(1.00007 -0.00023007 1.06167e-21)
(1.00014 -0.000306776 6.30983e-22)
(1.00023 6.46142e-05 1.75989e-21)
(1.00016 5.48576e-05 0)
(1.00012 4.50335e-05 2.92131e-22)
(1.00009 3.26427e-05 1.00841e-23)
(1.0001 4.08425e-05 0)
(1.00007 3.61606e-05 0)
(1.00019 -3.78713e-05 0)
(1.00015 -3.61596e-05 -1.20425e-22)
(1.0002 -3.83938e-05 4.53507e-22)
(1.00013 -3.43539e-05 -3.63664e-22)
(1.00011 -3.41464e-05 1.71796e-22)
(1.00028 -1.4554e-05 -1.96591e-22)
(1.00024 -3.11426e-05 -1.52279e-21)
(1.00032 3.30026e-05 0)
(1.0003 -7.2617e-06 1.39764e-21)
(1.00032 5.87594e-05 5.09603e-22)
(1.00029 0.000115193 1.86986e-21)
(1.00008 0.000156091 -1.84069e-21)
(1.00032 0.000141569 1.88118e-21)
(1.00021 0.00015986 0)
(1.00027 0.000151306 0)
(0.999438 -0.000367096 -3.31568e-21)
(0.993523 -0.000202376 2.12944e-21)
(0.991 0.000160423 0)
(0.998951 0.000173796 2.2226e-21)
(1.0004 -4.91354e-05 -4.14839e-21)
(1.00039 1.39732e-05 9.25811e-22)
(1.00048 -8.29919e-05 0)
(1.0005 -0.000172216 5.93908e-21)
(1.00046 -0.000223724 -5.36463e-21)
(1.00043 -0.000312241 0)
(1.00031 -0.000399365 9.54339e-22)
(1.00019 -0.000374775 -5.97673e-22)
(1.00031 7.2526e-05 0)
(1.00038 5.43023e-05 2.06477e-21)
(1.00027 7.20504e-05 1.33502e-21)
(1 -0.000400329 2.62452e-22)
(1.00051 -0.000249582 3.02286e-21)
(1.00021 7.44708e-05 -3.49155e-22)
(1.00014 5.91479e-05 1.9376e-23)
(1.00018 6.50398e-05 2.31301e-22)
(1.00011 5.24199e-05 -8.21919e-22)
(1.00007 3.33606e-05 4.03371e-23)
(1.00008 4.3525e-05 1.55774e-22)
(1.00006 3.45171e-05 0)
(1.00016 -4.16543e-05 9.16607e-23)
(1.00015 -3.88335e-05 8.49294e-22)
(1.00013 -3.64612e-05 4.15255e-22)
(1.0002 -4.24194e-05 -9.50985e-22)
(1.00011 -3.62135e-05 -1.24998e-22)
(1.00026 -3.15987e-05 -7.86824e-22)
(1.00022 -4.46067e-05 3.48416e-23)
(1.00035 3.51413e-05 0)
(1.00031 -1.16135e-05 -2.0407e-21)
(1.00034 8.54025e-05 1.43109e-21)
(1.00033 0.000129232 -1.07806e-21)
(1.00011 0.000205983 8.27068e-22)
(1.00022 0.000171256 1.7638e-22)
(1.00023 0.000214102 -5.34875e-23)
(1.00027 0.000177487 -1.35121e-22)
(0.995139 -0.000288707 3.61661e-21)
(0.990822 0.000196626 -2.88315e-21)
(0.998951 0.000170713 -9.47078e-21)
(1.00046 -4.34847e-05 5.60175e-21)
(1.0004 2.79561e-05 -2.70642e-21)
(1.00055 -7.51863e-05 0)
(1.00055 -0.000172868 -2.21761e-21)
(1.00047 -0.000273936 1.89891e-21)
(1.00044 -0.000393225 -1.31804e-21)
(1.00037 -0.000455837 1.2557e-21)
(1.00021 -0.000392587 0)
(1.00033 9.72905e-05 0)
(1.00039 8.38453e-05 0)
(1.00026 0.000102643 1.08624e-22)
(0.999999 -0.000471372 0)
(1.00023 -0.000181227 0)
(1.00021 9.41949e-05 -2.55833e-21)
(1.00011 5.44273e-05 6.04328e-22)
(1.00014 7.19087e-05 -2.34566e-22)
(1.00016 8.09528e-05 9.32273e-22)
(1.00008 4.69455e-05 -6.08949e-23)
(1.00007 3.85154e-05 -4.0333e-23)
(1.00005 4.78336e-05 5.62405e-23)
(1.00016 -4.77062e-05 -1.30207e-21)
(1.00013 -4.33386e-05 -1.20903e-22)
(1.00012 -4.00367e-05 0)
(1.00019 -5.06384e-05 3.04472e-21)
(1.00011 -4.68507e-05 2.39036e-23)
(1.00027 -4.28457e-05 -2.75772e-22)
(1.00022 -5.32484e-05 -8.2496e-22)
(1.00037 7.72041e-05 0)
(1.00037 2.09187e-05 8.4323e-22)
(1.0003 -4.20256e-05 -6.36419e-23)
(1.00035 -1.04378e-05 3.17518e-22)
(1.00036 0.000150297 2.17116e-21)
(1.00008 0.000261457 -1.2127e-21)
(1.00025 0.000200733 -1.88357e-21)
(1.00024 0.000241676 0)
(1.0003 0.000207776 1.92506e-22)
(0.993719 -0.000328944 -2.50308e-21)
(0.990251 0.000257088 6.32567e-21)
(0.998307 0.00030057 7.0881e-21)
(1.00048 1.22569e-05 -7.59103e-21)
(1.00044 4.51891e-05 0)
(1.00059 -0.000122177 0)
(1.00057 -2.71405e-05 -2.67234e-21)
(1.00058 -0.000231002 0)
(1.00054 -0.000295427 0)
(1.00054 -0.000438462 2.85215e-21)
(1.00038 -0.000574797 0)
(1.0002 -0.000466705 -8.19149e-23)
(1.00037 0.000106382 1.10324e-21)
(1.00032 0.000128444 0)
(1.00043 8.41691e-05 0)
(1.00024 0.000101535 1.25807e-21)
(1.00029 0.000126298 -1.88753e-21)
(1.00048 -0.000158172 0)
(0.999958 -0.000426075 1.38321e-21)
(0.99584 -0.00057249 0)
(1.00019 0.000102527 -2.76071e-22)
(1.00011 6.44765e-05 6.89651e-22)
(1.00012 7.2822e-05 0)
(1.00016 8.81655e-05 -1.35266e-21)
(1.00007 5.01624e-05 -3.90228e-23)
(1.00004 4.27016e-05 -9.47501e-23)
(1.00016 -5.08941e-05 -1.76587e-22)
(1.00014 -5.05179e-05 0)
(1.00012 -4.07388e-05 0)
(1.00013 -4.59367e-05 0)
(1.0002 -5.99324e-05 6.025e-22)
(1.00009 -4.20647e-05 -2.90184e-22)
(1.00026 -5.70256e-05 6.73272e-22)
(1.00023 -5.97347e-05 1.16293e-21)
(1.00041 8.61343e-05 -5.73324e-22)
(1.00041 2.22521e-05 -1.16059e-21)
(1.00031 -5.27289e-05 2.04612e-21)
(1.00037 -3.66413e-05 -6.21353e-22)
(1.00035 0.000198551 3.53297e-22)
(1.00041 0.000141716 -1.91879e-21)
(1.00019 0.000289805 1.52028e-21)
(1.00003 0.000345612 8.44253e-22)
(1.00007 0.000251182 3.10811e-21)
(1.00029 0.000286187 6.11406e-22)
(0.990182 0.000346695 -4.60917e-21)
(0.998237 0.000471021 0)
(1.00053 2.45305e-05 7.83785e-21)
(1.00065 -0.000124747 0)
(1.00062 -1.70044e-05 1.43662e-21)
(1.00066 -0.000235208 0)
(1.00059 -0.000349313 0)
(1.00061 -0.000526303 -3.59322e-21)
(1.00026 -0.000603345 9.43523e-23)
(1.00054 -0.000649148 0)
(1.00005 -0.000508759 0)
(1.00038 0.000140701 -1.10337e-21)
(1.00034 0.00015574 -1.3781e-21)
(1.00045 0.000103985 1.03883e-21)
(1.00023 0.000129661 2.04125e-21)
(1.00026 0.000153069 0)
(1.00008 -0.000200453 -2.31242e-21)
(0.99989 -0.000590253 -2.30245e-21)
(0.994237 -0.000739746 1.06536e-21)
(1.00018 0.000117217 6.61297e-22)
(1.00008 6.21154e-05 -6.77009e-22)
(1.00012 7.75017e-05 -1.68527e-22)
(1.00014 9.49105e-05 6.71464e-22)
(1.00005 4.24488e-05 5.78187e-23)
(1.00007 5.8343e-05 0)
(1.00004 5.18969e-05 7.34684e-23)
(1.00015 -6.12243e-05 -7.36152e-22)
(1.00013 -5.45081e-05 0)
(1.0001 -4.36733e-05 2.99293e-22)
(1.0001 -5.29871e-05 -3.7211e-22)
(1.00018 -6.87104e-05 -1.18854e-21)
(1.00009 -5.59155e-05 -2.98029e-23)
(1.00027 -7.21631e-05 0)
(1.00022 -7.84093e-05 0)
(1.00044 6.36688e-05 4.35081e-21)
(1.00044 -5.9543e-06 5.28811e-21)
(1.00034 -6.07048e-05 -9.4363e-22)
(1.00029 -7.92038e-05 -2.08168e-21)
(1.00041 -4.79515e-05 1.61443e-21)
(1.00042 0.000236674 -3.53227e-22)
(1.00044 0.000179112 0)
(1.00022 0.000387531 -3.79256e-22)
(1.00004 0.000434681 1.10549e-21)
(1.00006 0.000286885 -1.90853e-21)
(1.00034 0.000305296 -6.11349e-22)
(0.988752 0.000345332 4.86073e-21)
(0.992943 0.000709276 7.45948e-21)
(1.00125 0.000251295 -2.13675e-22)
(1.00056 8.29033e-05 0)
(1.00073 -9.48891e-05 0)
(1.00063 8.23214e-05 8.47588e-21)
(1.0007 -1.87599e-05 2.04341e-21)
(1.00073 -0.000288197 0)
(1.00069 -0.000376723 2.34926e-21)
(1.0007 -0.000528514 2.5166e-21)
(1.00018 -0.000711975 0)
(1.00059 -0.000753756 0)
(1.00006 -0.000672906 0)
(1.00042 0.000165182 -2.03546e-22)
(1.00033 0.000175386 3.68595e-21)
(1.00052 0.000131511 1.59313e-21)
(1.00021 0.000140492 -2.51625e-21)
(1.00026 0.000163785 -5.96074e-22)
(0.999793 -0.000234967 0)
(0.999941 -0.000596302 3.12451e-21)
(0.999947 -0.000759792 0)
(0.994931 -0.000948993 -1.11196e-21)
(1.00016 0.000121151 -6.77827e-22)
(1.00008 6.95068e-05 0)
(1.0001 8.03663e-05 1.92015e-22)
(1.00014 0.000103189 5.25879e-23)
(1.00004 4.83025e-05 0)
(1.00005 5.29704e-05 9.20262e-24)
(1.00006 5.52894e-05 0)
(1.00016 -6.57775e-05 4.42376e-23)
(1.00013 -5.81926e-05 0)
(1.0001 -5.74281e-05 0)
(1.00009 -4.88244e-05 4.139e-22)
(1.00019 -7.7369e-05 0)
(1.00007 -4.69834e-05 0)
(1.00025 -8.75976e-05 0)
(1.00049 6.90274e-05 -4.36973e-21)
(1.0005 -1.31989e-05 -2.80474e-21)
(1.00034 -8.9292e-05 2.80063e-21)
(1.00031 -9.84733e-05 0)
(1.00042 -8.36417e-05 6.90004e-21)
(1.00043 0.000283545 0)
(1.00048 0.000171914 7.89598e-22)
(1.00032 0.000403443 0)
(1.00016 0.000456228 3.97236e-22)
(0.999961 0.000513382 -3.02348e-21)
(0.999713 0.000439808 -4.94286e-21)
(0.988536 0.000123475 -6.50779e-21)
(0.993403 0.00109709 -6.00705e-21)
(1.00021 8.66541e-05 2.13711e-22)
(1.00082 -0.0001242 -6.58562e-21)
(1.00069 0.000115365 -5.41177e-21)
(1.00075 3.68938e-05 0)
(1.0008 -0.000268135 4.61763e-21)
(1.00083 -0.000548632 -4.56439e-21)
(1.00023 -0.000788783 0)
(1.00073 -0.000855493 0)
(1.00041 -0.000871907 0)
(1.00042 0.000193728 2.83201e-22)
(1.00036 0.000223366 0)
(1.00029 0.000194836 -2.78874e-21)
(1.00053 0.000188137 0)
(1.0002 0.000163874 4.87191e-22)
(1.00022 0.000188507 6.15743e-22)
(0.998531 -0.000538828 3.81494e-21)
(0.999877 -0.000610787 -4.9125e-21)
(0.99995 -0.000841633 0)
(0.987511 -0.000420597 -2.94577e-21)
(1.00015 0.000132939 0)
(1.00005 5.53129e-05 1.04918e-22)
(1.00007 7.03222e-05 -6.59022e-24)
(1.0001 8.97723e-05 0)
(1.00012 0.000101484 2.02256e-22)
(1.00003 6.69908e-05 2.53131e-22)
(1.00003 5.45061e-05 5.21033e-23)
(1.00014 -7.46993e-05 1.60751e-22)
(1.00012 -6.22706e-05 0)
(1.00009 -5.89969e-05 0)
(1.00019 -9.01431e-05 0)
(1.00007 -5.76119e-05 0)
(1.00024 -9.91209e-05 0)
(1.00053 3.89648e-05 0)
(1.00051 -5.86692e-05 0)
(1.00037 -0.000106403 -3.31226e-21)
(1.0003 -0.000115401 0)
(1.00046 -0.000107953 -4.92535e-21)
(1.00046 0.000334647 -4.32068e-22)
(1.00055 0.000181029 2.26959e-21)
(1.00041 0.000450087 -1.58529e-21)
(1.00018 0.000543135 2.13212e-22)
(0.999936 0.000624428 2.50486e-21)
(0.999733 0.000517725 1.68608e-21)
(1.00067 0.000262601 0)
(0.987315 0.000529425 8.9571e-21)
(1.00088 -8.28932e-05 -7.53381e-21)
(1.00069 0.000170269 0)
(1.00084 5.73454e-05 4.91585e-21)
(1.00094 -0.000296091 -3.8635e-21)
(1.00097 -0.000457057 3.61601e-21)
(1.00089 -0.000782567 0)
(1.0001 -0.000992137 0)
(1.00066 -0.00109809 1.08844e-21)
(1.00045 -0.00105574 2.40075e-21)
(1.00047 0.000242191 -2.71272e-21)
(1.00035 0.000250961 -4.53027e-22)
(1.00027 0.000230683 2.36162e-22)
(1.00061 0.000220382 -4.97614e-21)
(1.00017 0.000165579 0)
(1.00023 0.000219593 0)
(0.998019 -0.000714321 4.09614e-21)
(0.9996 -0.000705538 1.67716e-21)
(0.999854 -0.000891762 5.88203e-22)
(0.988256 -0.000739284 -6.8716e-21)
(1.00012 0.000129354 0)
(1.00005 5.59295e-05 -1.13218e-22)
(1.00006 7.49812e-05 -4.71525e-22)
(1.00008 8.5973e-05 -1.36611e-22)
(1.00011 0.00010918 -1.84399e-22)
(1.00002 6.5949e-05 -2.9725e-22)
(1.00012 -6.70914e-05 5.00448e-22)
(1.00014 -7.91566e-05 -8.11965e-22)
(1.0001 -5.8379e-05 0)
(1.00008 -5.22836e-05 -4.14155e-23)
(1.00021 -0.000103345 0)
(1.00016 -8.97113e-05 6.91401e-22)
(1.00007 -4.92487e-05 0)
(1.00026 -0.00011592 0)
(1.00057 4.93935e-05 2.24299e-22)
(1.00056 -7.88368e-05 0)
(1.00036 -0.000145948 -2.23551e-21)
(1.00032 -0.000143354 -2.60918e-21)
(1.00045 -0.000152091 2.86285e-21)
(1.00054 0.000354774 4.93288e-21)
(1.00062 0.000215934 -5.4786e-22)
(1.00043 0.000504531 2.13166e-21)
(1.00005 0.000704809 -2.65454e-22)
(1.00033 0.000579323 -3.22156e-22)
(0.999813 0.000740781 -2.50669e-21)
(0.999739 0.000599103 -3.07737e-21)
(0.999334 0.000333859 -6.0195e-21)
(0.987694 0.000969129 3.40637e-21)
(1.00102 -6.99228e-05 4.00186e-21)
(1.00079 0.000241191 -2.13402e-21)
(1.00086 0.000113468 0)
(1.00106 -0.00020703 0)
(1.00119 -0.000481233 0)
(1.00112 -0.000811601 0)
(1.00009 -0.00115578 0)
(1.00075 -0.00118004 -3.10631e-21)
(1.00028 -0.00127043 5.65721e-22)
(1.00045 0.000282393 0)
(1.00029 0.00026574 1.14251e-21)
(1.00038 0.000290646 -3.88287e-21)
(1.00061 0.000294225 4.97677e-21)
(1.00015 0.000174571 0)
(1.00021 0.000227944 0)
(0.98802 -0.000870706 7.74142e-21)
(0.996569 -0.000966212 -6.71924e-21)
(0.999623 -0.00076201 4.6094e-21)
(0.999618 -0.000881766 -5.20443e-22)
(0.999919 -0.00119847 -4.08913e-21)
(1.00011 0.000137225 0)
(1.00005 6.19057e-05 -4.29895e-22)
(1.00002 5.94477e-05 1.9738e-24)
(1.00006 7.57345e-05 -9.61871e-23)
(1.00008 9.1691e-05 9.78565e-22)
(1.00009 0.000103711 0)
(1.0001 -7.11957e-05 1.27581e-22)
(1.00012 -8.3794e-05 4.95139e-22)
(1.00008 -6.14462e-05 0)
(1.00006 -5.07945e-05 4.32029e-23)
(1.0002 -0.000117385 -4.2554e-22)
(1.00015 -0.000102738 2.15063e-22)
(1.00007 -8.92871e-05 -6.11904e-23)
(1.00026 -0.000143202 -1.56216e-21)
(1.00063 3.74231e-05 4.85937e-22)
(1.00063 -4.65816e-05 0)
(1.00058 -0.000160001 0)
(1.00039 -0.000176667 3.05016e-21)
(1.00029 -0.000165182 -6.63028e-22)
(1.00051 -0.000190411 -2.95086e-21)
(1.00061 0.00027907 -6.28828e-21)
(1.00062 0.000525601 -5.99658e-23)
(1.0007 0.000166526 -1.6472e-21)
(1.00053 0.000598202 -1.66985e-22)
(1.00017 0.000827242 3.18022e-22)
(1.00032 0.000743876 9.21568e-22)
(0.999793 0.000890037 3.70011e-21)
(0.999545 0.000736184 7.30294e-21)
(1.00002 5.20184e-05 5.21751e-21)
(0.987627 0.00129619 -1.46414e-20)
(0.984544 -0.000608546 8.06357e-21)
(1.00114 1.28719e-05 1.15557e-21)
(1.0008 0.000304629 -1.00082e-21)
(1.001 0.000185565 4.55554e-21)
(1.00121 -0.000270198 0)
(1.00129 -0.000588281 0)
(1.00123 -0.000987471 0)
(1.00066 -0.00151226 0)
(1.00104 -0.00123261 0)
(1.00036 -0.00144296 -6.74361e-22)
(1.00049 0.000324335 0)
(1.00028 0.00030081 7.95231e-22)
(1.00037 0.000342052 1.98347e-21)
(1.00055 0.000339389 5.22472e-21)
(1.0007 0.000367063 7.0369e-21)
(1.00012 0.000148951 -9.35374e-22)
(1.00015 0.000196464 0)
(1.00016 0.000209137 0)
(1.00021 0.000274451 -5.21518e-23)
(0.9994 -0.00080288 8.02583e-21)
(0.985691 -0.00103509 -1.33545e-20)
(0.999358 -0.00104661 -9.79773e-21)
(0.999577 -0.0011068 5.79422e-21)
(0.999788 -0.00135832 7.19611e-22)
(1.00009 0.000125009 9.40385e-22)
(1.00003 5.75544e-05 4.53559e-22)
(1.00001 7.04003e-05 0)
(1.00004 7.45532e-05 -2.92397e-22)
(1.00006 8.52666e-05 -2.36145e-21)
(1.00008 0.000108611 0)
(1.00008 -6.25788e-05 -1.57342e-22)
(1.00009 -7.46272e-05 3.38563e-23)
(1.00009 -7.60164e-05 -4.05708e-23)
(1.00013 -9.61954e-05 -1.88287e-22)
(1.00004 -5.83366e-05 -7.5777e-23)
(1.00017 -0.000112042 -7.6304e-22)
(1.00023 -0.000143457 2.70984e-21)
(1.00003 -6.02773e-05 7.14018e-24)
(1.00071 7.49646e-05 3.03063e-22)
(1.0007 -8.25671e-05 -8.9996e-21)
(1.00066 -0.000188252 5.67962e-21)
(1.00039 -0.000223585 5.63457e-21)
(1.00029 -0.000180225 -3.25412e-22)
(1.0005 -0.000247592 -3.85684e-21)
(1.00073 0.000339128 0)
(1.00073 0.000540115 -4.52029e-21)
(1.00077 0.000230743 -2.75203e-21)
(1.00047 0.000783967 -7.2499e-22)
(1.00016 0.000909672 2.01918e-22)
(0.999572 0.00101414 -3.43409e-21)
(0.999975 0.00104901 0)
(0.999471 0.000842875 0)
(0.999695 0.000284997 0)
(0.987654 0.00182202 -6.62283e-22)
(1.00115 0.000107357 -4.06093e-21)
(1.00124 -0.000220495 -1.25351e-20)
(1.00092 0.000443512 -4.90135e-21)
(1.00104 0.000378647 2.9493e-22)
(1.00153 -0.000593627 0)
(1.00149 -0.00103196 6.19901e-22)
(1.00075 -0.00175146 0)
(1.00121 -0.00150817 0)
(1.00022 -0.0015586 1.9008e-22)
(1.00043 0.000392796 0)
(1.00024 0.000307357 0)
(1.00031 0.000356524 -1.1156e-21)
(1.00057 0.00042984 -5.19618e-21)
(1.00066 0.000451182 -5.79735e-21)
(1.0001 0.000158385 7.89465e-22)
(1.00012 0.000196229 2.3962e-21)
(1.00015 0.000244142 -6.02861e-22)
(1.00017 0.000286507 7.99868e-22)
(0.997608 -0.000771006 0)
(0.985671 -0.00125051 7.6621e-21)
(0.999313 -0.00126694 -3.43673e-21)
(0.999439 -0.00101947 4.07216e-21)
(0.999697 -0.00156974 0)
(1.00008 0.00013032 -8.55114e-22)
(1.00003 6.3489e-05 0)
(1.00001 6.03738e-05 0)
(1.00004 7.53047e-05 -1.05613e-22)
(1.00005 8.87877e-05 1.4005e-21)
(1.00007 9.86975e-05 -9.32477e-23)
(1.00006 -5.99206e-05 0)
(1.00006 -6.54597e-05 1.81942e-23)
(1.00008 -8.26558e-05 2.84545e-22)
(1.00012 -9.934e-05 0)
(1.00004 -7.07137e-05 7.57897e-23)
(1.00016 -0.000124086 1.1528e-22)
(1.00021 -0.000158421 -6.03058e-22)
(1.00079 3.03012e-05 0)
(1.00079 -8.46881e-05 0)
(1.00065 -0.000223017 -4.80312e-21)
(1.00044 -0.000270563 8.61574e-21)
(1.00033 -0.000234907 -7.79647e-21)
(1.00025 -0.000199548 1.3558e-21)
(1.00057 -0.000290934 -1.58057e-21)
(1.00081 0.000420612 6.07636e-21)
(1.00079 0.000639028 1.77063e-21)
(1.0009 0.00020624 0)
(1.00054 0.000873764 0)
(1.00028 0.00110876 1.02564e-21)
(0.999561 0.00120262 -5.92564e-22)
(0.999961 0.00132664 -1.59345e-21)
(0.999398 0.000972707 0)
(0.998439 0.000586417 -4.66498e-22)
(0.978155 1.50378e-05 1.06638e-21)
(1.00125 0.00021415 3.41824e-21)
(1.0014 -0.000132923 1.3219e-20)
(1.00085 0.000553389 8.50332e-21)
(1.00119 0.000401521 -3.33751e-22)
(1.00176 -0.000386637 0)
(1.00168 -0.000855214 0)
(1.00143 -0.00147595 -6.2658e-22)
(1.0011 -0.00184295 0)
(1.00046 -0.0019616 -1.16176e-21)
(0.999878 -0.00170043 1.17063e-21)
(1.00043 0.000430326 0)
(1.00021 0.000344625 0)
(1.0003 0.00040887 -2.91642e-22)
(1.0005 0.000472158 -4.26764e-21)
(1.0007 0.000533321 -1.61611e-21)
(1.00008 0.000148183 2.75636e-21)
(1.00009 0.000195184 -2.45103e-21)
(1.00011 0.000241999 -3.11287e-21)
(1.00015 0.000301121 -9.12289e-22)
(0.992386 -0.000773025 0)
(0.999448 -0.00162762 0)
(0.998714 -0.000985535 -1.4718e-21)
(1.00006 0.000112636 2.39749e-21)
(1.00002 5.64856e-05 0)
(1 7.14935e-05 0)
(1.00003 6.76481e-05 1.15029e-21)
(1.00004 8.05255e-05 0)
(1.00006 0.000100675 -2.12433e-21)
(1.00005 -6.43007e-05 -1.48611e-23)
(1.00009 -8.74321e-05 -3.4272e-22)
(1.00006 -7.57079e-05 8.97314e-23)
(1.00011 -0.000108307 0)
(1.00003 -8.10147e-05 5.53548e-23)
(1.00013 -0.000119374 9.1144e-23)
(1.00018 -0.000145856 6.53807e-22)
(1.00022 -0.000172424 -5.10821e-22)
(1.00089 7.67944e-05 1.64191e-21)
(1.00086 -0.000135578 2.4405e-21)
(1.00072 -0.00026602 -2.79704e-21)
(1.00044 -0.000321407 -2.88769e-21)
(1.00031 -0.000277432 1.0741e-21)