/*--------------------------------*- C++ -*----------------------------------*\
| =========                 |                                                 |
| \\      /  F ield         | OpenFOAM: The Open Source CFD Toolbox           |
|  \\    /   O peration     | Version:  v2012                                 |
|   \\  /    A nd           | Website:  www.openfoam.com                      |
|    \\/     M anipulation  |                                                 |
\*---------------------------------------------------------------------------*/
FoamFile
{
    version     2.0;
    format      ascii;
    class       volScalarField;
    location    "100";
    object      yPlus;
}
// * * * * * * * * * * * * * * * * * * * * * * * * * * * * * * * * * * * * * //

dimensions      [0 0 0 0 0 0 0];


internalField   uniform 0;

boundaryField
{
    flap
    {
        type            calculated;
        value           nonuniform List<scalar> 
202
(
12.0288
11.1117
11.0812
11.9754
12.1508
13.5411
13.1446
13.12
13.1739
13.2972
13.437
13.5823
13.7277
13.869
14.0116
14.1489
14.2939
14.4331
14.5803
14.7239
14.8693
15.0159
15.1644
15.3099
15.4558
15.6038
15.7502
15.8999
16.0459
16.1964
16.3411
16.4823
16.6243
16.7621
16.8963
17.0297
17.1572
17.2837
17.4055
17.5227
17.6372
17.7461
17.8533
17.956
18.0541
18.1488
18.2422
18.3346
18.4254
18.512
18.5967
18.6764
18.7529
18.824
18.8912
18.9581
19.0243
19.0919
19.1558
19.2238
19.2946
19.3684
19.4489
19.5442
19.6576
19.7935
19.9568
20.1563
20.3963
20.6901
21.0537
21.4975
22.023
22.6248
23.2863
23.9205
24.2337
24.0771
23.6002
22.9948
22.3439
21.6564
20.96
20.2305
19.4421
18.8813
19.4279
20.9717
22.4032
23.6477
24.7004
25.5536
26.2515
26.8216
27.2638
27.5664
27.7289
27.6963
27.4034
26.6187
24.6886
17.5668
6.76687
12.2
13.5958
13.2017
13.1785
13.2356
13.362
13.5052
13.6538
13.8028
13.9477
14.0938
14.2348
14.3834
14.5259
14.6762
14.8229
14.9714
15.1206
15.2697
15.4125
15.5532
15.6962
15.8369
15.9815
16.1224
16.2681
16.4077
16.5436
16.6801
16.8123
16.9411
17.0694
17.1915
17.3123
17.4283
17.5401
17.6494
17.753
17.8549
17.9525
18.0457
18.1357
18.2243
18.3119
18.3977
18.4796
18.5599
18.6351
18.7069
18.7733
18.8359
18.898
18.9594
19.0222
19.0819
19.146
19.2131
19.2836
19.361
19.4534
19.5643
19.698
19.8595
20.0573
20.2957
20.5875
20.9487
21.3885
21.9074
22.4989
23.1466
23.7643
24.0618
23.8944
23.413
22.8107
22.1817
21.5654
21.0317
20.5918
20.1982
20.1757
21.5589
22.981
24.0891
24.9679
25.6706
26.262
26.7754
27.194
27.4967
27.6618
27.6816
27.4982
27.0366
26.0547
23.8291
16.9276
8.43109
)
;
    }
    freestream
    {
        type            calculated;
        value           uniform 0;
    }
    main
    {
        type            calculated;
        value           nonuniform List<scalar> 
231
(
16.1654
10.7111
13.5949
16.3129
18.0652
19.2565
19.9694
20.3531
20.4873
20.4392
20.2477
19.8955
19.4402
18.8211
18.1067
17.4152
17.0089
17.862
18.7946
19.6677
20.3616
20.8399
21.176
21.332
21.3332
21.1423
20.6907
19.8962
18.608
16.7429
13.8826
10.9582
16.3269
4.82419
5.32488
6.10061
7.02138
8.03245
9.10815
10.237
11.3686
12.6109
14.003
15.5399
17.1709
18.8428
20.5069
22.1099
23.5992
24.9308
26.0697
26.9923
27.6893
28.1685
28.4424
28.5362
28.4791
28.3006
28.0331
27.7026
27.3348
26.9465
26.5508
26.157
25.7741
25.4103
25.0697
24.762
24.4904
24.2552
24.0597
23.9045
23.7858
23.702
23.6485
23.623
23.6204
23.6343
23.6633
23.7027
23.7465
23.7874
23.8226
23.8502
23.8678
23.8785
23.8783
23.8693
23.8556
23.8365
23.8165
23.7971
23.7853
23.7774
23.7729
23.7723
23.7748
23.7757
23.7804
23.781
23.7792
23.7792
23.7764
23.7701
23.7607
23.7512
23.7382
23.7247
23.7094
23.6959
23.6819
23.6666
23.651
23.6375
23.6207
23.6031
23.5832
23.5609
23.5345
23.5056
23.4702
23.4345
23.3931
23.3459
23.2918
23.2352
23.1641
23.1155
23.0602
23.1964
23.1172
20.778
20.6703
23.0107
23.0939
22.966
23.0282
23.0824
23.1588
23.2201
23.2784
23.3296
23.3746
23.4135
23.4516
23.4831
23.5116
23.5357
23.5569
23.576
23.5941
23.6091
23.6257
23.6419
23.6568
23.6712
23.6877
23.7022
23.7163
23.727
23.7376
23.7451
23.7494
23.7509
23.7541
23.755
23.7518
23.7524
23.7501
23.7525
23.7601
23.769
23.7824
23.8042
23.8253
23.8454
23.8601
23.8704
23.8711
23.8609
23.8428
23.8175
23.7845
23.743
23.7028
23.6635
23.6325
23.6178
23.6212
23.6475
23.7025
23.7845
23.8978
24.0481
24.245
24.4949
24.7925
25.1254
25.487
25.8582
26.2267
26.5928
26.9482
27.296
27.6298
27.9379
28.2016
28.3921
28.4778
28.4221
28.1869
27.7387
27.0573
26.1367
24.987
23.635
22.1214
20.5003
18.8266
17.151
15.5288
14.0086
12.6288
11.3874
10.256
9.12228
8.04377
7.03387
6.11778
5.34397
4.83375
)
;
    }
    BaseAndTop
    {
        type            empty;
    }
}


// ************************************************************************* //
