/*--------------------------------*- C++ -*----------------------------------*\
| =========                 |                                                 |
| \\      /  F ield         | OpenFOAM: The Open Source CFD Toolbox           |
|  \\    /   O peration     | Version:  v2012                                 |
|   \\  /    A nd           | Website:  www.openfoam.com                      |
|    \\/     M anipulation  |                                                 |
\*---------------------------------------------------------------------------*/
FoamFile
{
    version     2.0;
    format      ascii;
    class       volScalarField;
    location    "0.1";
    object      k;
}
// * * * * * * * * * * * * * * * * * * * * * * * * * * * * * * * * * * * * * //

dimensions      [0 2 -2 0 0 0 0];


internalField   nonuniform List<scalar> 
13611
(
0.000210579
0.000169176
0.00101309
0.000197303
0.000223286
0.000254424
0.000151439
0.000352356
0.000253927
0.000232724
0.000256477
0.000173226
0.000197071
0.00108568
0.000252595
0.0002366
0.000251453
0.000250665
0.000134601
0.000194362
0.000330338
0.000254776
0.00025344
0.000250454
0.000249068
0.000250192
0.000137922
0.000221476
0.000992126
0.000255322
0.000252219
0.000250586
0.000247927
0.000247434
0.000245455
0.000138481
0.000198
0.000363431
0.000254703
0.00025217
0.000248958
0.000246104
0.000245674
0.000245383
0.00011865
0.000205317
0.00113817
0.000126689
0.000253477
0.000255774
0.000250737
0.000249047
0.000245311
0.000243956
0.000242512
0.000245782
0.000158621
0.000227877
0.000402814
0.000109487
0.000253797
0.0002552
0.000250507
0.000247927
0.000257357
0.000243987
0.000246552
0.000242855
0.000240711
0.000241859
0.000153526
0.00023057
0.0010135
0.000101724
0.000253148
0.000255962
0.000249477
0.000251809
0.000248185
0.000244443
0.000245749
0.000241583
0.000238347
0.000240318
0.000240579
0.000195272
0.000237324
0.00048927
8.40224e-05
0.000254298
0.000256121
0.000249867
0.000251154
0.000247354
0.000257641
0.000243692
0.00024605
0.000242206
0.000237503
0.000239004
0.000237298
0.000190165
0.000236361
0.00027317
9.48197e-05
0.000255677
0.00025355
0.000248988
0.000252006
0.000247788
0.000257964
0.000259244
0.000244351
0.000245582
0.000241476
0.000236655
0.000239087
0.000235281
0.00023529
0.000219191
0.000232254
0.000234646
0.00108927
8.0941e-05
7.30258e-05
0.000256613
0.000254417
0.000249642
0.000251252
0.000246565
0.000259581
0.000243496
0.000242278
0.000240266
0.00023753
0.000233475
0.000232604
0.000200939
0.000230899
0.000231951
0.000393744
4.82822e-05
0.000116107
0.000256955
0.000253863
0.000256088
0.000249436
0.0002517
0.000246152
0.000258628
0.000260938
0.000243871
0.000241551
0.000240285
0.00023724
0.00023443
0.000231437
0.000233573
0.000232124
0.000229737
0.000229951
0.00023057
0.00109482
0.000110626
8.99281e-05
0.000252879
0.000254864
0.000256794
0.00024867
0.000250673
0.000245114
0.000247401
0.000259168
0.00026155
0.0002429
0.000241807
0.000239874
0.000236099
0.000238663
0.000233842
0.000232499
0.000163787
0.000229237
0.000227033
0.000229087
0.00022772
0.000400047
5.43363e-05
0.000253223
0.000256143
0.000254305
0.000258352
0.000249221
0.000251026
0.000245652
0.000246823
0.000260697
0.000263115
0.000243462
0.00024067
0.000236081
0.00023839
0.000234685
0.000231644
0.000168706
0.0002272
0.000226023
0.000225922
0.000227332
0.000230336
0.000109738
0.00109912
0.000117915
0.000252443
0.00025699
0.000255267
0.000259366
0.000248701
0.000250408
0.000244849
0.000247456
0.000261832
0.000264536
0.000242693
0.000241149
0.000237148
0.000239379
0.000234776
0.000231597
0.000202941
0.000226566
0.000223197
0.000224828
0.00022809
0.000229773
6.13929e-05
0.00036955
0.000137106
0.000252187
0.000256681
0.000258577
0.000255152
0.000261145
0.000249359
0.000250997
0.00024517
0.000247085
0.000263814
0.000243057
0.000240586
0.000237297
0.000239491
0.000233975
0.000236274
0.000232749
0.000230204
0.000185851
0.000225926
0.000222005
0.000221948
0.000223371
0.000225925
0.000227439
7.94475e-05
0.000110494
0.0010054
0.000253165
0.000257675
0.000259022
0.00025657
0.000254511
0.000262743
0.000250566
0.00024903
0.000244312
0.000246278
0.000248021
0.000264887
0.000242535
0.000241489
0.000238543
0.000240661
0.000234619
0.000236601
0.00023279
0.000229769
0.000202832
0.000220742
0.000219325
0.000218917
0.000220901
0.0002232
0.000225609
0.000228209
6.20621e-05
0.000123409
0.000503385
0.000252709
0.000257783
0.000260761
0.000256645
0.000255407
0.000262518
0.000264707
0.000251423
0.000249923
0.000244422
0.000246643
0.000247706
0.000267323
0.000268614
0.000243196
0.000238715
0.000240926
0.00023386
0.000235787
0.000237834
0.000232105
0.00023081
0.0001731
0.000221183
0.000216842
0.000219253
0.000221696
0.000224337
0.000226832
0.000228112
9.97888e-05
0.000282158
0.000253522
0.00025972
0.000261224
0.000258133
0.000254983
0.000264485
0.000266311
0.000251073
0.000249647
0.000245352
0.000246345
0.000248526
0.000267956
0.000271032
0.000243462
0.000239891
0.000242039
0.000234188
0.000236109
0.000238095
0.000232405
0.000230621
0.000184671
0.000215447
0.000214331
0.000216502
0.000218308
0.000221169
0.000224722
0.000226256
0.000229485
2.31522e-05
0.00107959
5.59965e-05
0.000253258
0.000259724
0.000263091
0.000258811
0.000256306
0.000266644
0.000264466
0.00026737
0.000251961
0.000250514
0.00024572
0.000247228
0.000248208
0.000269996
0.000271539
0.000244925
0.000242773
0.000239883
0.000242207
0.000233371
0.000235313
0.000237253
0.00023911
0.000231476
0.000181836
0.000213226
0.000216318
0.00021569
0.000219323
0.000222315
0.000223967
0.000227257
0.000229587
9.83687e-05
0.000441222
5.03734e-06
0.000254385
0.000261467
0.000263808
0.000258154
0.000260762
0.000255921
0.000267431
0.000266143
0.000269674
0.000251777
0.000250305
0.000246744
0.000249045
0.000274103
0.000245183
0.000242974
0.000241015
0.000241956
0.0002337
0.000235608
0.000237553
0.000239491
0.000231724
0.000209302
0.00021081
0.000213703
0.000215751
0.000211828
0.000216948
0.000218854
0.000222531
0.000224874
0.000227213
0.000228836
0.000230835
0.000124195
9.1938e-05
0.00116131
6.73298e-05
0.000268233
0.000269131
0.000254625
0.000263221
0.000265662
0.000259461
0.000261991
0.000257276
0.000269649
0.000271775
0.000253301
0.000251585
0.000247523
0.000248873
0.000276376
0.000275128
0.000244171
0.000246357
0.00024064
0.000242799
0.000232901
0.000234829
0.000236723
0.00023867
0.000239438
0.000188695
0.000209924
0.000213394
0.000212341
0.000208891
0.000217021
0.000220242
0.000224051
0.000221864
0.000226336
0.000228375
0.000229276
0.000231295
8.59735e-05
0.000429275
9.4509e-05
0.000255066
0.00026429
0.000252179
0.000157942
0.00101874
0.000256227
0.000264835
0.000267529
0.00026136
0.000258878
0.00026412
0.000271718
0.000271115
0.00027454
0.000253105
0.000251519
0.000247387
0.000250125
0.000278522
0.000244006
0.000247084
0.000241157
0.000243031
0.000233476
0.000235128
0.000237085
0.0002391
0.000240395
0.000205658
0.000207968
0.000211504
0.000215277
0.000210379
0.000206921
0.000218581
0.000219875
0.000224505
0.000222799
0.000226673
0.000228754
0.000230443
0.000232642
2.05512e-05
0.00102741
6.52474e-05
0.000182169
0.000230252
0.000251475
0.000261078
0.000249733
0.000152054
0.000299644
0.00025701
0.00026694
0.000270298
0.000262915
0.000260311
0.000265164
0.000274964
0.000274179
0.000277622
0.000254542
0.000252649
0.000249038
0.000250281
0.000280122
0.000279928
0.000244989
0.000248756
0.000247268
0.00024227
0.000244243
0.000234615
0.000236335
0.000238304
0.000240157
0.000240691
0.000207524
0.000211493
0.000215174
0.000207605
0.000204902
0.000219069
0.000221079
0.000224112
0.000225897
0.000222364
0.0002279
0.000230034
0.000230867
0.000233088
4.78432e-05
0.000516886
0.000107925
0.000198637
0.000249319
0.000248369
0.000254077
0.000252466
0.000250473
0.000255868
0.000172483
0.00103057
0.000256332
0.000259024
0.000268772
0.000272436
0.000264815
0.000262354
0.000260084
0.000267778
0.000277779
0.000275936
0.000254228
0.00025319
0.000251963
0.000285086
0.000283004
0.000282592
0.000246427
0.00024975
0.000248842
0.000242762
0.000244938
0.000235371
0.000236591
0.000238709
0.000241249
0.000241977
0.000205279
0.000209031
0.000210761
0.000213631
0.000216948
0.000206181
0.000203927
0.000218673
0.000220658
0.000225074
0.000226231
0.000223355
0.000228435
0.000230566
0.000232195
0.000234593
7.88612e-06
0.00028053
0.000183447
7.52173e-05
0.000204027
0.00022393
0.000246261
0.000248166
0.00025299
0.000253886
0.000249492
0.000256753
0.000163023
0.000284802
0.000258008
0.000260051
0.000271663
0.000269159
0.000275124
0.000266828
0.000264182
0.000261733
0.000268681
0.000281784
0.000280093
0.000255657
0.00025487
0.000252163
0.000284623
0.000285843
0.000247273
0.000251223
0.000249849
0.00024409
0.000246459
0.000235662
0.000237668
0.000240033
0.000242435
0.000241102
0.000205271
0.000209407
0.000212014
0.000213474
0.000216797
0.000201828
0.00020059
0.00022028
0.000221649
0.000224911
0.000227473
0.000223315
0.000229825
0.000231989
0.000232736
0.000234851
5.58125e-05
0.00104459
0.000201807
0.00010606
0.000202743
0.000231561
0.000245134
0.000246439
0.000245591
0.000245411
0.000253078
0.000250987
0.000255621
0.000147089
0.00100928
0.000257391
0.000259795
0.000261577
0.000273522
0.000271809
0.000278033
0.00026741
0.000263508
0.000266564
0.000271128
0.000285872
0.000282544
0.000281195
0.000255936
0.000254154
0.000291604
0.000289668
0.000290416
0.000248986
0.000252343
0.000251754
0.000244755
0.000247317
0.000237321
0.000238343
0.000240694
0.00024377
0.000242507
0.000203444
0.000207783
0.00021109
0.000215005
0.000218214
0.00019936
0.000200946
0.000221943
0.000219995
0.000226381
0.000228499
0.000224966
0.000230951
0.000233117
0.000234091
0.000236474
1.48136e-05
0.000334846
0.000179242
7.12874e-05
0.000199939
0.000166505
0.00024241
0.000246787
0.000242625
0.000252215
0.000254043
0.000250359
0.000256817
0.000255424
0.000340852
0.000258392
0.000261281
0.000262809
0.000276483
0.000273056
0.00027862
0.000270346
0.000264329
0.000268991
0.000272193
0.000290402
0.000287565
0.00028509
0.000255656
0.000257846
0.000253952
0.00029542
0.000294131
0.000249791
0.000253125
0.00024637
0.000248921
0.000238323
0.000239943
0.000242041
0.000244294
0.000243872
0.000203972
0.000208165
0.0002124
0.00021495
0.000219086
0.000197709
0.000198783
0.000223844
0.0002223
0.000226597
0.000228171
0.000230495
0.000225261
0.000232686
0.000234881
0.000235339
0.000236649
0.000237774
6.80292e-05
0.00104917
0.000194055
9.60917e-05
0.0001978
0.000148884
0.000242895
0.000248869
0.000245341
0.000240284
0.000239264
0.000201128
0.00025055
0.000252961
0.000251528
0.000257086
0.000254343
0.00110538
0.000143857
0.000260519
0.000261842
0.000263168
0.000278912
0.000277049
0.00028339
0.000271338
0.000266682
0.000268854
0.000275568
0.000291114
0.000294526
0.000288379
0.000286215
0.000257291
0.000259406
0.000255512
0.000298399
0.000298083
0.000251739
0.00025291
0.000255116
0.000247053
0.000250279
0.000240382
0.000241111
0.000243281
0.000246044
0.000245358
0.000202681
0.000206447
0.000210669
0.000212751
0.000216985
0.000219207
0.000221646
0.000195334
0.000199739
0.000225113
0.000224148
0.000228527
0.000229744
0.000232238
0.000227533
0.000233959
0.000235755
0.000237945
0.000239087
1.39075e-05
0.000326705
0.000164932
0.000198353
6.22045e-05
0.000196521
0.000195127
0.000241303
0.000248442
0.000245744
0.000236378
0.000238613
0.000199366
0.000250697
0.000253009
0.000250693
0.000256037
0.000254607
0.000337239
0.000111926
0.000261123
0.000264847
0.000265754
0.000282722
0.000278128
0.000274552
0.000267638
0.000271481
0.000277051
0.000295976
0.000297848
0.000292883
0.000290124
0.000257263
0.00025918
0.000302659
0.000302014
0.000252454
0.000254679
0.00025644
0.000248889
0.000250115
0.000252106
0.00024163
0.000242895
0.000245074
0.000246679
0.000204346
0.000207737
0.000211818
0.000216257
0.000218457
0.00022141
0.000223112
0.000194825
0.000199359
0.000224665
0.000227372
0.000225926
0.00022903
0.000230006
0.000231739
0.000234057
0.000235664
0.00023766
0.00023863
0.000240818
6.90597e-05
0.00103298
0.000181368
0.000196104
9.38999e-05
0.000193491
0.000192807
0.000241992
0.000247345
0.000249402
0.000245049
0.000236402
0.000233693
0.000240381
0.00022227
0.000125466
0.000247946
0.00023994
0.000252353
0.000251095
0.000258752
0.000256395
0.000254133
0.00101531
0.000263887
0.000265856
0.000266703
0.000286064
0.000282264
0.000276447
0.000269992
0.000274822
0.000280385
0.000296488
0.000299045
0.000301595
0.000293343
0.000292074
0.00025918
0.000260833
0.000305676
0.000305616
0.000254123
0.000256296
0.000258901
0.000249537
0.000251808
0.000253214
0.000243905
0.000244333
0.000246638
0.000248443
0.000205804
0.000201981
0.000210248
0.000214664
0.000216459
0.000222266
0.000223885
0.000225449
0.000192788
0.000197102
0.000227225
0.000229545
0.000226852
0.000231246
0.00023172
0.000233158
0.000235864
0.000237532
0.000238907
0.000240691
0.000242084
1.31581e-05
0.000328531
0.000164044
0.000195438
6.23619e-05
0.000192248
0.000191642
0.000243856
0.000246919
0.000248989
0.000245768
0.000236812
0.000231345
0.000240661
0.000227647
0.000109654
0.000248145
0.000235301
0.000253051
0.000251003
0.000257642
0.000255135
0.000322746
0.000264474
0.000268417
0.00026988
0.000285718
0.00029095
0.000282835
0.000281063
0.000271756
0.000277318
0.00028271
0.000300148
0.000302293
0.000304297
0.0002971
0.000296188
0.000261123
0.000260105
0.000263345
0.000309194
0.000309187
0.000254633
0.000258544
0.0002603
0.000251103
0.00025323
0.000245083
0.000244944
0.000246404
0.00024864
0.000249228
0.000203075
0.000205992
0.000211333
0.000215728
0.000219715
0.000224279
0.000227884
0.000228359
0.000191923
0.000197915
0.000229303
0.000232315
0.000231016
0.000232965
0.000233056
0.000235584
0.000237713
0.000236832
0.000241028
0.000241953
0.000241964
0.000244309
7.1615e-05
0.00104329
0.000178563
0.00019353
6.85556e-05
0.000189309
0.00018992
0.000243383
0.000247695
0.000249876
0.000245145
0.000235724
0.000239391
0.000233581
0.000229701
0.000242248
0.000173209
0.000242202
0.000126407
0.000237127
0.000252035
0.000257647
0.000255095
0.00100123
0.000267613
0.000270504
0.000270629
0.00028947
0.000293589
0.00028637
0.000283064
0.000275519
0.000281303
0.000286003
0.00030008
0.000303733
0.000304488
0.000307813
0.000298602
0.000263456
0.000263167
0.000264876
0.000314865
0.00031203
0.000309808
0.000312434
0.00025689
0.000258908
0.000262894
0.000252211
0.000255298
0.000247327
0.000247392
0.000248296
0.000249794
0.000251191
0.000224413
0.000214023
0.000202371
0.000213055
0.000221716
0.000225578
0.000230789
0.000231523
0.000231677
0.000189866
0.000195239
0.00023235
0.000234842
0.000233575
0.000235792
0.000236888
0.000237244
0.000237092
0.000240337
0.000239743
0.000242936
0.000243819
0.000244009
0.000245755
1.80111e-05
0.000311867
0.000179132
0.000192599
4.17645e-05
0.000126497
0.000188646
0.000188591
0.000244007
0.000247502
0.000249805
0.000245573
0.00023676
0.000239143
0.000233215
0.000228854
0.000241934
0.000161087
0.000243558
0.0001078
0.000231103
0.000252511
0.000260077
0.000256425
0.000258893
0.000254155
0.000478722
0.000266939
0.000269993
0.00027401
0.000274242
0.000289219
0.000293083
0.000297387
0.000287228
0.000277912
0.000283569
0.000288221
0.000302654
0.000306803
0.000308874
0.000310048
0.000302306
0.000264662
0.000264413
0.000318992
0.000314452
0.000315389
0.000257363
0.000261743
0.000264702
0.000254614
0.000255984
0.000249105
0.000248563
0.000249849
0.000251846
0.000252578
0.000287661
0.000205499
0.000210216
0.000229055
0.000251261
0.000241756
0.000245577
0.000231962
0.000236914
0.000235932
0.000188884
0.000206034
0.000235524
0.000238602
0.000238805
0.000238144
0.000239597
0.000240246
0.000239915
0.00024268
0.000241666
0.000245895
0.000246064
0.000245618
0.000248229
5.13557e-05
0.000951442
0.000190055
0.00019188
3.6401e-05
0.000126023
0.000186179
0.000184939
0.000243767
0.000246636
0.000248703
0.000251072
0.000244612
0.000238218
0.000235879
0.000240192
0.000234459
0.000231356
0.000226368
0.000241155
0.000242801
0.000188185
0.000234851
0.000231709
0.000125166
0.000228755
0.000252191
0.000256563
0.000259036
0.000254347
0.000374124
0.000269049
0.000273232
0.000276564
0.000277203
0.000292245
0.000295392
0.000298943
0.000288245
0.000289041
0.000282238
0.000286927
0.000291639
0.000306137
0.000303787
0.000310442
0.000311363
0.000313706
0.000304579
0.000267698
0.00026726
0.000319164
0.000317044
0.00025984
0.000262029
0.000264336
0.000267807
0.000256047
0.000258757
0.000251804
0.000251271
0.000251886
0.000253575
0.000255032
0.000184457
0.000221367
0.000213109
0.000197257
0.00020743
0.000225491
0.000236798
0.000246026
0.00025816
0.00023825
0.000249266
0.000239235
0.000184155
0.000197587
0.000198669
0.00023966
0.000241994
0.000241699
0.000242036
0.00024375
0.000241702
0.000243281
0.000245866
0.000244511
0.000249223
0.000248229
0.000247515
0.000249336
2.54233e-05
0.000410231
0.000186627
0.000187041
7.42368e-05
0.000153504
0.000184773
0.000247153
0.000248883
0.000251025
0.000245275
0.000238364
0.000235643
0.000239388
0.000233904
0.000231227
0.000227124
0.00024128
0.000242333
0.000165079
0.000233726
0.000238209
9.97218e-05
0.00022506
0.000253251
0.000261816
0.00025544
0.00025786
0.000260494
0.000998457
0.000149944
0.00027232
0.000276389
0.000279548
0.000279858
0.000295155
0.000298124
0.000302707
0.000291382
0.000291734
0.000283587
0.000289202
0.000293224
0.000309308
0.000307721
0.000315359
0.000315045
0.000316617
0.000304752
0.000308371
0.000269001
0.000268765
0.000334176
0.000324922
0.000322004
0.000260503
0.000264731
0.000267269
0.000270172
0.000258546
0.000259734
0.000253416
0.000252573
0.000253057
0.000253606
0.000255946
0.000256984
1.49336e-05
5.66503e-06
0.000165238
0.000160671
0.000179703
0.00013052
0.000134586
0.000243856
0.000308239
0.000253655
0.00026107
0.000241911
0.000187035
0.000196573
0.000202721
0.000180344
0.000245983
0.000247617
0.000245166
0.000247093
0.000245811
0.00024655
0.000249218
0.000246315
0.00024712
0.000252357
0.000251218
0.000252015
9.38813e-06
0.000186189
0.000195189
0.000184175
7.3501e-05
0.000154322
0.000183224
0.000246637
0.000248322
0.000250139
0.000252114
0.000244625
0.000237648
0.000234457
0.0002365
0.000239413
0.00023272
0.000230037
0.000225014
0.000240602
0.000243284
0.000193017
0.000228859
0.000224865
6.83267e-05
0.000223197
0.000253238
0.000263619
0.000255709
0.000258185
0.000260994
0.00119444
8.5115e-05
0.000274287
0.000279506
0.000282555
0.00028285
0.000297898
0.000300457
0.000303096
0.000293606
0.000291789
0.000293618
0.000286902
0.000288933
0.000296348
0.000313847
0.000309608
0.000320598
0.000319981
0.000323768
0.000308929
0.00031097
0.000271922
0.000272417
0.000331279
0.000328222
0.000262955
0.000265044
0.000267256
0.000270143
0.000272996
0.000260435
0.000262861
0.000256259
0.000253875
0.000255008
0.000255772
0.000257201
0.00025816
0.000259746
0.00041881
5.33138e-05
9.23389e-05
0.000258373
0.000175866
7.89016e-05
0.000178951
0.000187992
0.000219148
0.000284511
0.000269086
0.000260605
0.000247291
0.000183503
0.000193925
0.000182154
0.000160522
0.000250213
0.000249962
0.000250255
0.000251194
0.000246901
0.000250556
0.000252542
0.000250222
0.000250293
0.00025556
0.000252353
0.000253187
2.59037e-06
0.00100272
3.10724e-06
0.000187904
0.000178767
0.000181454
0.000116877
0.000181571
0.000247462
0.000249021
0.000250067
0.000252119
0.000245182
0.000238052
0.000233936
0.000235784
0.000239163
0.000232048
0.000230633
0.000225772
0.000241082
0.000242968
0.000132933
0.000222476
0.000225376
0.000236596
0.000222649
0.000254494
0.000266759
0.000263943
0.000257064
0.000259769
0.000262723
0.000572302
8.11673e-05
0.000274084
0.000278243
0.00027993
0.000282607
0.000285582
0.000285628
0.000300649
0.000298259
0.000305685
0.000296345
0.000294441
0.000296566
0.000287767
0.000290899
0.000316626
0.000313702
0.000328544
0.000325503
0.00032836
0.000308883
0.00031396
0.00027367
0.000339631
0.000346979
0.000338585
0.000264227
0.000268279
0.000269972
0.000273412
0.000275648
0.000262943
0.000257056
0.000258281
0.000256714
0.000258718
0.000259433
0.000261521
0.000262398
0.000993435
0.000331157
0.00102115
0.000291554
0.001377
0.000188604
0.000495096
0.000750749
0.000257195
5.39398e-05
0.000270069
0.000236787
0.000279564
0.000248219
0.000185693
0.000186119
0.00019317
0.00015778
0.000145488
0.000254691
0.000252527
0.000252155
0.000252232
0.000254476
0.000252318
0.000252915
0.000256335
0.000254558
0.000257962
0.000257218
0.000256214
0.000256319
1.26469e-06
0.000277529
1.61154e-06
0.000184634
0.000182925
0.000179194
0.000117849
0.000180393
0.000248724
0.000247283
0.000250983
0.000253246
0.000246452
0.000244807
0.00023768
0.000234626
0.000232599
0.000236322
0.000240052
0.000229747
0.000228374
0.000223905
0.00024215
0.000243887
0.000138346
0.000220065
0.000219663
0.000229851
0.000196735
0.000220883
0.000254501
0.000268302
0.000265441
0.000257597
0.000260429
0.000263483
0.000356387
5.2856e-05
0.000277262
0.000279248
0.000282969
0.000284955
0.000287659
0.00030359
0.000301713
0.000306172
0.000298941
0.000296824
0.000295102
0.000298932
0.00028944
0.000293555
0.000325425
0.000314964
0.000335586
0.000332614
0.000333119
0.000337109
0.000312435
0.000319621
0.000276727
0.000352798
0.000345437
0.000267426
0.000270301
0.000273055
0.000276093
0.000278446
0.000265147
0.000260093
0.000261164
0.000258164
0.000260978
0.000262856
0.000263929
0.000265149
0.00237583
0.00163252
0.00201129
0.00101521
0.00145954
0.00254149
0.00208515
0.00123995
0.00150552
0.00058604
7.51521e-05
7.15607e-05
0.000238929
6.78354e-06
0.000274516
0.000182197
0.000172272
0.000190748
0.000117321
0.000266755
0.000259574
0.000258814
0.000256463
0.000257418
0.000257595
0.000254913
0.000256591
0.000259019
0.000257938
0.000261381
0.000261607
0.000257878
5.85487e-05
5.60612e-05
0.000992464
4.41521e-05
0.000184693
0.000179839
0.000154616
0.000178872
0.000249545
0.000248396
0.000250847
0.000253903
0.00024652
0.000245543
0.000238629
0.000233992
0.000232084
0.000236447
0.000240433
0.000230161
0.000228069
0.00022396
0.000242557
0.000243522
0.00021757
0.000224347
0.000207022
0.000220567
0.000256054
0.000267913
0.000266312
0.000259474
0.000257316
0.000262374
0.000265342
0.00109661
0.000127797
0.000124881
0.000281406
0.000283343
0.000285122
0.000287408
0.000290227
0.000304111
0.000301649
0.00030965
0.000300975
0.000299455
0.000298595
0.000291044
0.000295268
0.000331334
0.000326633
0.000322738
0.000343712
0.000343629
0.000338815
0.000344874
0.00031899
0.000322597
0.000278786
0.000355107
0.000352856
0.000353095
0.000268566
0.00027221
0.000274127
0.000278356
0.000280679
0.000267869
0.000262306
0.000263454
0.000261791
0.000264034
0.000265046
0.000267687
0.000267365
0.00356001
0.00335457
0.00151323
0.00241856
0.00297627
0.00401949
0.00364335
0.00398536
0.00138405
0.000293874
3.09907e-05
0.000203116
0.00018398
0.000291133
0.000185256
0.000130342
0.000182489
0.000190988
0.000244268
0.00119153
0.000263708
0.000286904
0.000258668
0.000260296
0.000260506
0.000259269
0.000259475
0.000262703
0.000261636
0.000263276
0.000263235
0.000263647
0.000261421
2.08264e-05
0.00022519
6.33512e-05
0.00018437
0.000177277
0.000160417
0.000177608
0.000249571
0.000248546
0.000251924
0.000255539
0.000253339
0.000247456
0.000245526
0.000239818
0.000238619
0.000234437
0.000232964
0.00023123
0.000237761
0.000235512
0.000241829
0.000229033
0.000227118
0.00022576
0.000222137
0.000244344
0.000218513
0.000216359
0.000223956
0.000221674
0.000271333
0.000269441
0.000259897
0.000258642
0.000262617
0.000265985
0.000516831
8.09733e-05
0.000124324
0.00028269
0.000285821
0.000287297
0.000289463
0.00029222
0.000306644
0.000304353
0.000310336
0.000301561
0.000303677
0.000300521
0.000298095
0.000294329
0.000338701
0.000334325
0.000345728
0.000348125
0.00034568
0.000346708
0.000349857
0.000323261
0.000323254
0.000332924
0.000281858
0.000351797
0.000351166
0.000352092
0.00027186
0.000273738
0.000276863
0.000280618
0.000279574
0.00028314
0.000269983
0.000265317
0.000266545
0.000263375
0.000266244
0.000268318
0.000269552
0.000268888
0.000269987
0.00322831
0.00414653
0.00169912
0.00242149
0.00299084
0.00312796
0.00415473
0.00485958
0.00437924
0.00478005
0.00143467
0.00400712
0.000693535
0.000175427
0.000216852
0.00192304
0.000183149
9.8112e-05
0.000169904
0.000190272
0.00097147
0.00139598
0.000274213
0.00029321
0.000262551
0.000265487
0.000263981
0.000262998
0.000262568
0.00026451
0.000262992
0.000263778
0.000266701
0.000266736
0.00026705
4.44496e-05
2.89218e-05
0.000935549
0.000129342
0.000175335
0.000181502
0.000176381
0.000175913
0.000179246
0.000251043
0.000249844
0.000252151
0.000256601
0.000254287
0.000247802
0.000246722
0.000240354
0.000239551
0.000233434
0.000232715
0.000231634
0.000238066
0.000235892
0.000242189
0.000229036
0.00022719
0.000224925
0.000222048
0.00024432
0.000218723
0.000214172
0.000219342
0.000228976
0.00027374
0.0002698
0.000261331
0.000258822
0.00026417
0.00026824
0.000265679
0.000371195
6.7271e-05
0.00018343
0.000285306
0.000287585
0.000289377
0.000291779
0.00029504
0.000309809
0.000308177
0.000316258
0.000304267
0.000306217
0.000304224
0.000299911
0.000295871
0.000340004
0.000345555
0.000336736
0.000348505
0.000348813
0.000347719
0.000352238
0.000331229
0.00032176
0.000333138
0.000335934
0.000283646
0.000351201
0.000350378
0.000272227
0.000273744
0.000276786
0.000279051
0.000282866
0.000282316
0.000284693
0.000267488
0.000268947
0.000266782
0.000269529
0.000270515
0.000272719
0.000272028
0.000272549
0.00287233
0.00308054
0.0023718
0.00246409
0.00217847
0.00185055
0.00412095
0.00452833
0.0053557
0.00541198
0.00359691
0.00545395
0.00176045
0.000544613
0.000168716
0.00362254
0.00262215
0.000191143
3.28218e-06
0.000775749
0.000195149
0.00137819
0.00195282
0.000270567
0.000275521
0.000266284
0.000268686
0.000268428
0.000266485
0.000267185
0.000267056
0.000266937
0.000268053
0.000268138
0.000268257
0.000268625
4.24341e-05
1.86702e-05
0.000203892
0.000146634
0.000172521
0.000180984
0.000173305
0.000174912
0.000176344
0.000251017
0.000250311
0.000253398
0.000258157
0.000255782
0.000249336
0.000246621
0.000241425
0.00024002
0.000233729
0.000231298
0.000239242
0.000237175
0.000235135
0.000243425
0.000228401
0.000230297
0.000226675
0.000225346
0.000223698
0.00022082
0.000245524
0.000217619
0.000211609
0.000215671
0.000225298
0.000212452
0.000275447
0.000272808
0.000261652
0.000260542
0.000264488
0.000268931
0.000267261
0.00112484
0.000123916
3.86218e-05
0.000181447
0.00028691
0.000290079
0.000291234
0.000294035
0.000296543
0.000315568
0.000312568
0.000306409
0.000310175
0.00030498
0.000303361
0.000298509
0.000345085
0.000347022
0.00034339
0.000347997
0.000348494
0.000347243
0.000349618
0.000335701
0.00032818
0.000334469
0.000342008
0.000286136
0.000352254
0.000349572
0.000274649
0.000276779
0.000278244
0.000280918
0.000284666
0.000283958
0.000287155
0.000270524
0.00027175
0.000268807
0.000271428
0.000273515
0.000274288
0.000274303
0.000274217
0.000274765
0.00143764
0.00186131
0.00226775
0.00215143
0.00194752
0.00155221
0.00101296
0.00259887
0.00402242
0.00572681
0.00406588
0.00387151
0.0065555
0.00283608
0.000529501
1.15967e-05
0.00636814
0.00548243
0.000189612
0.00014686
0.00135382
0.000657377
0.00017373
0.00198926
0.00228096
0.000246515
0.000281494
0.000272075
0.000275319
0.000272917
0.000269326
0.000268875
0.000268895
0.000270389
0.000270652
0.000271058
0.00027148
8.82979e-05
8.36524e-06
0.00089592
2.38111e-05
0.000142848
0.000177375
0.000177405
0.000172416
0.000172939
0.00018148
0.000252345
0.000251665
0.000253889
0.000259273
0.000256449
0.000249558
0.000247778
0.000242038
0.000241359
0.000233407
0.000232303
0.000240135
0.000237408
0.000235287
0.000243941
0.00022919
0.000230272
0.000227507
0.000225626
0.000222931
0.000221415
0.000245951
0.000218758
0.000212507
0.000214753
0.00022168
0.00020836
0.000278259
0.000275222
0.000273011
0.000263198
0.000260751
0.000266334
0.000271073
0.000267936
0.000545764
0.000110535
9.00315e-05
0.000207514
0.000289364
0.000291772
0.000290423
0.000293576
0.000296291
0.000299133
0.000320737
0.000320028
0.000311604
0.000314421
0.000311303
0.000305439
0.000306049
0.000300329
0.000345861
0.000346832
0.000344428
0.000347158
0.000348261
0.000349323
0.000346667
0.000348766
0.000342311
0.000327941
0.000338087
0.000287903
0.000351806
0.000355934
0.000276888
0.00027869
0.000280412
0.000283218
0.000286519
0.000286269
0.000288182
0.000272019
0.000274159
0.000271221
0.000274278
0.000275175
0.000276657
0.00027706
0.000276989
0.000277063
0.00084645
0.0016632
0.00207331
0.000891069
0.000607373
0.000346061
0.00217302
0.00409631
0.00611666
0.00257692
0.00620803
0.0065691
0.00430437
0.00191667
0.000248966
0.00681129
0.00753766
0.000182216
0.000189188
0.000106226
0.00166159
0.000942798
0.00188318
0.00165065
1.74313e-05
0.000230735
0.000275904
0.00027764
0.000277976
0.000279198
0.000273335
0.00027217
0.000273264
0.000271925
0.000272465
0.00027323
0.000274264
8.64017e-05
4.61254e-05
0.000338014
9.77671e-06
0.000160577
0.000175385
0.000176977
0.00016866
0.000173125
0.000176397
0.000253531
0.000252389
0.00025556
0.000259337
0.000258147
0.000248939
0.0002511
0.000247203
0.000243303
0.000242341
0.000234279
0.000232237
0.000241772
0.000239847
0.0002363
0.000238699
0.000245252
0.000228712
0.000231211
0.000226949
0.000224733
0.000223221
0.00022047
0.000217698
0.000211407
0.000215776
0.000210643
0.000222667
0.000208983
0.000280878
0.000278663
0.000275729
0.000263667
0.000262205
0.000267199
0.000272208
0.000270609
0.000463625
4.53554e-05
7.02048e-05
0.000205671
0.000290746
0.000293556
0.00029279
0.000294814
0.00029868
0.000300775
0.000323218
0.000324423
0.000316663
0.00032162
0.000309901
0.000315706
0.000311694
0.00030406
0.000345188
0.000346408
0.000344115
0.000348228
0.000349528
0.000350721
0.000347333
0.000355013
0.000342997
0.00033356
0.000337984
0.000342198
0.000290228
0.000362498
0.000367731
0.000278701
0.000280544
0.000281776
0.000284323
0.000287135
0.00028796
0.000290231
0.000274636
0.000273794
0.000275902
0.000275667
0.000277443
0.000278146
0.000278925
0.000278758
0.000278887
8.02275e-05
0.000244669
0.00117753
0.000576799
0.000359521
0.000140175
4.3233e-05
0.00104058
0.00329479
0.00247913
0.00544638
0.00131585
0.00657912
0.00732021
0.00265334