/*--------------------------------*- C++ -*----------------------------------*\
| =========                 |                                                 |
| \\      /  F ield         | OpenFOAM: The Open Source CFD Toolbox           |
|  \\    /   O peration     | Version:  v2012                                 |
|   \\  /    A nd           | Website:  www.openfoam.com                      |
|    \\/     M anipulation  |                                                 |
\*---------------------------------------------------------------------------*/
FoamFile
{
    version     2.0;
    format      ascii;
    class       volScalarField;
    location    "0.1";
    object      nut;
}
// * * * * * * * * * * * * * * * * * * * * * * * * * * * * * * * * * * * * * //

dimensions      [0 2 -1 0 0 0 0];


internalField   nonuniform List<scalar> 
13611
(
1.08512e-05
1.0492e-05
1.30152e-05
1.08867e-05
1.09981e-05
1.11641e-05
1.03188e-05
1.18294e-05
1.11664e-05
1.10514e-05
1.11721e-05
1.06191e-05
1.08328e-05
1.30942e-05
1.11631e-05
1.10911e-05
1.11531e-05
1.11563e-05
1.01276e-05
1.08569e-05
1.18467e-05
1.11877e-05
1.11798e-05
1.11536e-05
1.11445e-05
1.11544e-05
1.01822e-05
1.107e-05
1.30501e-05
1.11935e-05
1.11797e-05
1.11661e-05
1.11521e-05
1.11349e-05
1.11457e-05
1.019e-05
1.08943e-05
1.19853e-05
1.11964e-05
1.1186e-05
1.11625e-05
1.11462e-05
1.11336e-05
1.11381e-05
9.77466e-06
1.09523e-05
1.30489e-05
9.82868e-06
1.1195e-05
1.12092e-05
1.11827e-05
1.117e-05
1.11486e-05
1.11283e-05
1.11201e-05
1.11418e-05
1.04295e-05
1.10695e-05
1.20533e-05
9.31055e-06
1.12081e-05
1.12182e-05
1.11919e-05
1.11698e-05
1.12369e-05
1.11462e-05
1.11614e-05
1.11358e-05
1.1117e-05
1.11239e-05
1.03385e-05
1.10893e-05
1.28954e-05
9.11893e-06
1.12152e-05
1.12308e-05
1.1192e-05
1.12076e-05
1.11815e-05
1.11552e-05
1.11642e-05
1.11361e-05
1.11065e-05
1.11275e-05
1.11194e-05
1.08177e-05
1.11172e-05
1.22496e-05
8.5406e-06
1.12395e-05
1.12419e-05
1.12045e-05
1.12153e-05
1.11838e-05
1.12599e-05
1.11576e-05
1.1174e-05
1.11482e-05
1.11126e-05
1.11266e-05
1.11102e-05
1.07838e-05
1.1111e-05
1.1355e-05
8.9652e-06
1.12504e-05
1.12477e-05
1.12091e-05
1.1235e-05
1.11995e-05
1.12771e-05
1.12931e-05
1.11718e-05
1.11803e-05
1.11503e-05
1.11156e-05
1.11366e-05
1.11085e-05
1.11037e-05
1.10656e-05
1.11043e-05
1.10998e-05
1.29792e-05
8.4048e-06
8.22222e-06
1.12717e-05
1.12714e-05
1.12263e-05
1.12388e-05
1.11951e-05
1.13088e-05
1.11745e-05
1.11649e-05
1.11466e-05
1.11303e-05
1.11079e-05
1.10998e-05
1.09324e-05
1.10825e-05
1.10917e-05
1.19765e-05
6.81464e-06
9.66096e-06
1.12864e-05
1.12771e-05
1.12872e-05
1.12367e-05
1.12579e-05
1.1204e-05
1.13071e-05
1.13268e-05
1.119e-05
1.11671e-05
1.11553e-05
1.11382e-05
1.11222e-05
1.11005e-05
1.12185e-05
1.11302e-05
1.10767e-05
1.10915e-05
1.10857e-05
1.29717e-05
9.44514e-06
8.97838e-06
1.12733e-05
1.12983e-05
1.13087e-05
1.12384e-05
1.12561e-05
1.1203e-05
1.12271e-05
1.13284e-05
1.13506e-05
1.11905e-05
1.11793e-05
1.11622e-05
1.11349e-05
1.11556e-05
1.11279e-05
1.11186e-05
1.05405e-05
1.11005e-05
1.10688e-05
1.10933e-05
1.10826e-05
1.20308e-05
7.28636e-06
1.12908e-05
1.13117e-05
1.13048e-05
1.13288e-05
1.12587e-05
1.12697e-05
1.1223e-05
1.12363e-05
1.13514e-05
1.13748e-05
1.12088e-05
1.11773e-05
1.1147e-05
1.11677e-05
1.11408e-05
1.11192e-05
1.06248e-05
1.10951e-05
1.10651e-05
1.10743e-05
1.10869e-05
1.11091e-05
9.48471e-06
1.29579e-05
9.74557e-06
1.12884e-05
1.13333e-05
1.13253e-05
1.13574e-05
1.12636e-05
1.12716e-05
1.12256e-05
1.12538e-05
1.13801e-05
1.1408e-05
1.12115e-05
1.11931e-05
1.11616e-05
1.11875e-05
1.11544e-05
1.11323e-05
1.09544e-05
1.10854e-05
1.10548e-05
1.10791e-05
1.10999e-05
1.1113e-05
7.73733e-06
1.19748e-05
1.01331e-05
1.12984e-05
1.13399e-05
1.13552e-05
1.1336e-05
1.13841e-05
1.12794e-05
1.12863e-05
1.12446e-05
1.12599e-05
1.14106e-05
1.12281e-05
1.11969e-05
1.1178e-05
1.1202e-05
1.1154e-05
1.11747e-05
1.11463e-05
1.11236e-05
1.07927e-05
1.1085e-05
1.10466e-05
1.10625e-05
1.10751e-05
1.10957e-05
1.11038e-05
8.60904e-06
9.56456e-06
1.29344e-05
1.13204e-05
1.13634e-05
1.13797e-05
1.13655e-05
1.13364e-05
1.14287e-05
1.12913e-05
1.1287e-05
1.12444e-05
1.12593e-05
1.12779e-05
1.14481e-05
1.12344e-05
1.12225e-05
1.11986e-05
1.12219e-05
1.11757e-05
1.11933e-05
1.11599e-05
1.11308e-05
1.09533e-05
1.10635e-05
1.10393e-05
1.10362e-05
1.10671e-05
1.10892e-05
1.11052e-05
1.11201e-05
7.82037e-06
9.86113e-06
1.24145e-05
1.13277e-05
1.13797e-05
1.14167e-05
1.13836e-05
1.1365e-05
1.14417e-05
1.1462e-05
1.13125e-05
1.13078e-05
1.12578e-05
1.12729e-05
1.12848e-05
1.1498e-05
1.15137e-05
1.12494e-05
1.1215e-05
1.12391e-05
1.11762e-05
1.11927e-05
1.12135e-05
1.11603e-05
1.11488e-05
1.06473e-05
1.10704e-05
1.10342e-05
1.10556e-05
1.1082e-05
1.11027e-05
1.11252e-05
1.11332e-05
9.33051e-06
1.16757e-05
1.13501e-05
1.14243e-05
1.1445e-05
1.14176e-05
1.13712e-05
1.14956e-05
1.15026e-05
1.13201e-05
1.13165e-05
1.12719e-05
1.12787e-05
1.1304e-05
1.15275e-05
1.15745e-05
1.12637e-05
1.12353e-05
1.12566e-05
1.1194e-05
1.12111e-05
1.12303e-05
1.11794e-05
1.11599e-05
1.0773e-05
1.10254e-05
1.10281e-05
1.10506e-05
1.10628e-05
1.10937e-05
1.11201e-05
1.11358e-05
1.11547e-05
4.59456e-06
1.30437e-05
7.53125e-06
1.13607e-05
1.14389e-05
1.14907e-05
1.14447e-05
1.14105e-05
1.15363e-05
1.15086e-05
1.15404e-05
1.13435e-05
1.13384e-05
1.12897e-05
1.13004e-05
1.13113e-05
1.158e-05
1.16038e-05
1.12861e-05
1.12605e-05
1.12458e-05
1.12665e-05
1.11942e-05
1.12111e-05
1.12294e-05
1.12454e-05
1.11773e-05
1.07616e-05
1.10265e-05
1.10504e-05
1.106e-05
1.10818e-05
1.11131e-05
1.11233e-05
1.11576e-05
1.1172e-05
9.22152e-06
1.2306e-05
1.34995e-06
1.13923e-05
1.14867e-05
1.15183e-05
1.14446e-05
1.14865e-05
1.1417e-05
1.15734e-05
1.1553e-05
1.15916e-05
1.13549e-05
1.1349e-05
1.13063e-05
1.13326e-05
1.16625e-05
1.13054e-05
1.12756e-05
1.12645e-05
1.12724e-05
1.12101e-05
1.1226e-05
1.12439e-05
1.12552e-05
1.11932e-05
1.10396e-05
1.10116e-05
1.10492e-05
1.10628e-05
1.102e-05
1.10825e-05
1.10951e-05
1.11313e-05
1.11498e-05
1.11703e-05
1.1172e-05
1.11923e-05
9.91574e-06
9.02794e-06
1.30799e-05
8.09525e-06
1.13005e-05
1.10778e-05
1.14133e-05
1.15193e-05
1.15572e-05
1.14869e-05
1.15253e-05
1.14599e-05
1.16286e-05
1.16478e-05
1.13941e-05
1.13822e-05
1.13261e-05
1.13434e-05
1.16981e-05
1.1699e-05
1.12974e-05
1.13283e-05
1.12675e-05
1.12919e-05
1.12107e-05
1.12257e-05
1.12418e-05
1.126e-05
1.12633e-05
1.08702e-05
1.10288e-05
1.10646e-05
1.10358e-05
1.10041e-05
1.11049e-05
1.11229e-05
1.11532e-05
1.11363e-05
1.11688e-05
1.11903e-05
1.11918e-05
1.121e-05
8.66816e-06
1.22282e-05
9.11221e-06
1.127e-05
1.12591e-05
1.11362e-05
1.00356e-05
1.304e-05
1.14511e-05
1.15709e-05
1.16116e-05
1.15268e-05
1.14906e-05
1.15699e-05
1.16615e-05
1.16738e-05
1.17e-05
1.14062e-05
1.13966e-05
1.13355e-05
1.13752e-05
1.1775e-05
1.13063e-05
1.1352e-05
1.1285e-05
1.13078e-05
1.12292e-05
1.12386e-05
1.1258e-05
1.12804e-05
1.12819e-05
1.10484e-05
1.10191e-05
1.1058e-05
1.10944e-05
1.10355e-05
1.10003e-05
1.11315e-05
1.11352e-05
1.11704e-05
1.11642e-05
1.11891e-05
1.12084e-05
1.12094e-05
1.12292e-05
4.27047e-06
1.29791e-05
8.02762e-06
1.08195e-05
1.11788e-05
1.11365e-05
1.12658e-05
1.11212e-05
1.01226e-05
1.11747e-05
1.1484e-05
1.16161e-05
1.16696e-05
1.15754e-05
1.15358e-05
1.16075e-05
1.17415e-05
1.17394e-05
1.17748e-05
1.14496e-05
1.14297e-05
1.13762e-05
1.13947e-05
1.17968e-05
1.18156e-05
1.13358e-05
1.13825e-05
1.13686e-05
1.13034e-05
1.13336e-05
1.12431e-05
1.12556e-05
1.12775e-05
1.12991e-05
1.12963e-05
1.10406e-05
1.10764e-05
1.11164e-05
1.10165e-05
1.09983e-05
1.11547e-05
1.11629e-05
1.11785e-05
1.11888e-05
1.11745e-05
1.12087e-05
1.12283e-05
1.1228e-05
1.12489e-05
6.54027e-06
1.23586e-05
9.45602e-06
1.10291e-05
1.13549e-05
1.1118e-05
1.1175e-05
1.11661e-05
1.11463e-05
1.11995e-05
1.04773e-05
1.3041e-05
1.14839e-05
1.15306e-05
1.16673e-05
1.17279e-05
1.16151e-05
1.15772e-05
1.15435e-05
1.1667e-05
1.17924e-05
1.17824e-05
1.14569e-05
1.14564e-05
1.14389e-05
1.18752e-05
1.18503e-05
1.18602e-05
1.13614e-05
1.14168e-05
1.1409e-05
1.13263e-05
1.13601e-05
1.12612e-05
1.1273e-05
1.12996e-05
1.1328e-05
1.13204e-05
1.10231e-05
1.10695e-05
1.10813e-05
1.1106e-05
1.11523e-05
1.10019e-05
1.09909e-05
1.11674e-05
1.1176e-05
1.1201e-05
1.12104e-05
1.11998e-05
1.12302e-05
1.1249e-05
1.1248e-05
1.12735e-05
4.09983e-06
1.15872e-05
1.08746e-05
8.84863e-06
1.10211e-05
1.13212e-05
1.10942e-05
1.1143e-05
1.11158e-05
1.1187e-05
1.11556e-05
1.12117e-05
1.07892e-05
1.1238e-05
1.15362e-05
1.15659e-05
1.1724e-05
1.16875e-05
1.17808e-05
1.1667e-05
1.16324e-05
1.15905e-05
1.16992e-05
1.18658e-05
1.18565e-05
1.15003e-05
1.14965e-05
1.14582e-05
1.18811e-05
1.19122e-05
1.13968e-05
1.14484e-05
1.14446e-05
1.13546e-05
1.13915e-05
1.12805e-05
1.12926e-05
1.13269e-05
1.13448e-05
1.13377e-05
1.10451e-05
1.10952e-05
1.11116e-05
1.11262e-05
1.11776e-05
1.09776e-05
1.09771e-05
1.12098e-05
1.11995e-05
1.12162e-05
1.12303e-05
1.12182e-05
1.12515e-05
1.12714e-05
1.12697e-05
1.12941e-05
1.05744e-05
1.29305e-05
1.10654e-05
9.28894e-06
1.10098e-05
1.14656e-05
1.11101e-05
1.11467e-05
1.10715e-05
1.12939e-05
1.11907e-05
1.11796e-05
1.12105e-05
1.07547e-05
1.30827e-05
1.15364e-05
1.15743e-05
1.15999e-05
1.17727e-05
1.17476e-05
1.18382e-05
1.16898e-05
1.16287e-05
1.1684e-05
1.17521e-05
1.19212e-05
1.18869e-05
1.18845e-05
1.15326e-05
1.15124e-05
1.1971e-05
1.19517e-05
1.197e-05
1.14387e-05
1.14867e-05
1.14871e-05
1.13831e-05
1.14288e-05
1.13144e-05
1.13203e-05
1.13551e-05
1.13747e-05
1.13789e-05
1.10393e-05
1.1088e-05
1.11209e-05
1.11614e-05
1.1211e-05
1.09649e-05
1.10054e-05
1.12283e-05
1.12262e-05
1.12507e-05
1.12619e-05
1.12567e-05
1.12859e-05
1.13059e-05
1.12926e-05
1.13324e-05
6.22085e-06
1.16569e-05
1.07574e-05
8.40729e-06
1.09753e-05
1.10492e-05
1.11021e-05
1.11635e-05
1.10671e-05
1.13999e-05
1.12029e-05
1.11839e-05
1.1221e-05
1.12121e-05
1.14703e-05
1.15729e-05
1.16178e-05
1.16331e-05
1.18291e-05
1.17809e-05
1.18554e-05
1.17548e-05
1.166e-05
1.17438e-05
1.17832e-05
1.19784e-05
1.19575e-05
1.19408e-05
1.15405e-05
1.15739e-05
1.1523e-05
1.20051e-05
1.20033e-05
1.14719e-05
1.15301e-05
1.14204e-05
1.14675e-05
1.13508e-05
1.13532e-05
1.13844e-05
1.14001e-05
1.14043e-05
1.10752e-05
1.11238e-05
1.11567e-05
1.1191e-05
1.1247e-05
1.09815e-05
1.10052e-05
1.12716e-05
1.12936e-05
1.12777e-05
1.12753e-05
1.12956e-05
1.12833e-05
1.13158e-05
1.13381e-05
1.13312e-05
1.13545e-05
1.13533e-05
9.97713e-06
1.28722e-05
1.09437e-05
8.92353e-06
1.09671e-05
1.09672e-05
1.11367e-05
1.11804e-05
1.11654e-05
1.10159e-05
1.11031e-05
1.1334e-05
1.12449e-05
1.12019e-05
1.11957e-05
1.12367e-05
1.12137e-05
1.30063e-05
1.01555e-05
1.16229e-05
1.16432e-05
1.16536e-05
1.18764e-05
1.1853e-05
1.19292e-05
1.17868e-05
1.17145e-05
1.17512e-05
1.18455e-05
1.19895e-05
1.20124e-05
1.19729e-05
1.19626e-05
1.15877e-05
1.1618e-05
1.15678e-05
1.20168e-05
1.20197e-05
1.15185e-05
1.15365e-05
1.15725e-05
1.1453e-05
1.151e-05
1.13942e-05
1.13941e-05
1.14221e-05
1.14412e-05
1.1449e-05
1.10763e-05
1.11185e-05
1.11768e-05
1.11968e-05
1.12438e-05
1.12779e-05
1.13012e-05
1.09719e-05
1.10384e-05
1.13181e-05
1.13286e-05
1.13296e-05
1.13232e-05
1.13524e-05
1.13456e-05
1.13594e-05
1.13748e-05
1.13894e-05
1.14018e-05
5.14481e-06
1.14674e-05
1.05275e-05
1.10009e-05
7.88862e-06
1.097e-05
1.09647e-05
1.1134e-05
1.11844e-05
1.11738e-05
1.1027e-05
1.11145e-05
1.15156e-05
1.12293e-05
1.12055e-05
1.1197e-05
1.12378e-05
1.12268e-05
1.13351e-05
9.34298e-06
1.16514e-05
1.1714e-05
1.17139e-05
1.19304e-05
1.188e-05
1.18468e-05
1.1745e-05
1.18104e-05
1.18802e-05
1.20036e-05
1.20126e-05
1.20011e-05
1.2001e-05
1.1602e-05
1.16261e-05
1.20173e-05
1.19849e-05
1.15459e-05
1.15902e-05
1.16143e-05
1.15e-05
1.15186e-05
1.15485e-05
1.144e-05
1.14313e-05
1.14576e-05
1.14731e-05
1.11438e-05
1.11766e-05
1.12426e-05
1.12915e-05
1.13232e-05
1.13483e-05
1.1367e-05
1.09937e-05
1.10532e-05
1.13255e-05
1.13661e-05
1.13934e-05
1.1368e-05
1.13509e-05
1.13604e-05
1.13867e-05
1.13921e-05
1.14176e-05
1.14252e-05
1.14401e-05
9.57612e-06
1.28163e-05
1.07979e-05
1.10007e-05
8.96692e-06
1.09595e-05
1.0957e-05
1.11536e-05
1.11819e-05
1.11922e-05
1.11747e-05
1.11012e-05
1.09871e-05
1.11465e-05
1.16306e-05
1.01644e-05
1.1348e-05
1.10662e-05
1.12102e-05
1.12038e-05
1.12675e-05
1.12525e-05
1.12339e-05
1.28845e-05
1.17156e-05
1.17474e-05
1.17442e-05
1.19706e-05
1.19434e-05
1.18839e-05
1.17922e-05
1.18681e-05
1.19361e-05
1.2002e-05
1.20024e-05
1.19902e-05
1.20042e-05
1.19993e-05
1.16542e-05
1.16728e-05
1.19517e-05
1.19398e-05
1.15867e-05
1.16246e-05
1.1669e-05
1.15283e-05
1.15697e-05
1.15839e-05
1.14927e-05
1.14751e-05
1.15061e-05
1.15155e-05
1.11564e-05
1.11132e-05
1.12318e-05
1.13207e-05
1.13417e-05
1.14336e-05
1.14424e-05
1.14275e-05
1.09845e-05
1.10351e-05
1.14143e-05
1.14386e-05
1.14399e-05
1.14303e-05
1.14008e-05
1.14179e-05
1.14395e-05
1.14469e-05
1.14688e-05
1.14795e-05
1.14856e-05
5.23336e-06
1.14137e-05
1.06201e-05
1.10087e-05
8.37455e-06
1.09598e-05
1.09704e-05
1.1172e-05
1.11877e-05
1.12e-05
1.11828e-05
1.11269e-05
1.10038e-05
1.11592e-05
1.18593e-05
1.01212e-05
1.11578e-05
1.10236e-05
1.12268e-05
1.1216e-05
1.12656e-05
1.12481e-05
1.12096e-05
1.17382e-05
1.18001e-05
1.18076e-05
1.19755e-05
1.20063e-05
1.19562e-05
1.19511e-05
1.18331e-05
1.19111e-05
1.19617e-05
1.1936e-05
1.19571e-05
1.19099e-05
1.19663e-05
1.19822e-05
1.16896e-05
1.16853e-05
1.17238e-05
1.18672e-05
1.17784e-05
1.16126e-05
1.1681e-05
1.1712e-05
1.15659e-05
1.15978e-05
1.15382e-05
1.15033e-05
1.15153e-05
1.15483e-05
1.15479e-05
1.1056e-05
1.12973e-05
1.1338e-05
1.14118e-05
1.14763e-05
1.15294e-05
1.15456e-05
1.15245e-05
1.09621e-05
1.10764e-05
1.14587e-05
1.15003e-05
1.15603e-05
1.14527e-05
1.14966e-05
1.14784e-05
1.14687e-05
1.14783e-05
1.15206e-05
1.15262e-05
1.14978e-05
1.15346e-05
9.72169e-06
1.27635e-05
1.08718e-05
1.10116e-05
8.64823e-06
1.09458e-05
1.0958e-05
1.11758e-05
1.11962e-05
1.12129e-05
1.11869e-05
1.11298e-05
1.11568e-05
1.1102e-05
1.0972e-05
1.11742e-05
1.14702e-05
1.14335e-05
9.95475e-06
1.10394e-05
1.12301e-05
1.12809e-05
1.12588e-05
1.27695e-05
1.1804e-05
1.18417e-05
1.18293e-05
1.19851e-05
1.19735e-05
1.1981e-05
1.19667e-05
1.18953e-05
1.19608e-05
1.19843e-05
1.19261e-05
1.18491e-05
1.18353e-05
1.17984e-05
1.18859e-05
1.17411e-05
1.17515e-05
1.17626e-05
1.15578e-05
1.16974e-05
1.17057e-05
1.16331e-05
1.16661e-05
1.17008e-05
1.17659e-05
1.16044e-05
1.16516e-05
1.1593e-05
1.15643e-05
1.15726e-05
1.15874e-05
1.15947e-05
1.19731e-05
1.15823e-05
1.12047e-05
1.13816e-05
1.15769e-05
1.16027e-05
1.16376e-05
1.16663e-05
1.15977e-05
1.09358e-05
1.10417e-05
1.15485e-05
1.15819e-05
1.16128e-05
1.15249e-05
1.15916e-05
1.15429e-05
1.15011e-05
1.15464e-05
1.15484e-05
1.15822e-05
1.15714e-05
1.1559e-05
1.15815e-05
6.34626e-06
1.14268e-05
1.09203e-05
1.09978e-05
7.87296e-06
1.02572e-05
1.09618e-05
1.0939e-05
1.11819e-05
1.12072e-05
1.1225e-05
1.12001e-05
1.11519e-05
1.11637e-05
1.11237e-05
1.10108e-05
1.11786e-05
1.14485e-05
1.13757e-05
1.00393e-05
1.10009e-05
1.12423e-05
1.13056e-05
1.12763e-05
1.12998e-05
1.12569e-05
1.20475e-05
1.18013e-05
1.18421e-05
1.18962e-05
1.18903e-05
1.19884e-05
1.19801e-05
1.19131e-05
1.19781e-05
1.19286e-05
1.19732e-05
1.19827e-05
1.17902e-05
1.16311e-05
1.16338e-05
1.15999e-05
1.17443e-05
1.17724e-05
1.17846e-05
1.13179e-05
1.13846e-05
1.13958e-05
1.16889e-05
1.17653e-05
1.18066e-05
1.16591e-05
1.1678e-05
1.1647e-05
1.16072e-05
1.16041e-05
1.1633e-05
1.16374e-05
1.42476e-05
1.15558e-05
1.16766e-05
1.19294e-05
1.22641e-05
1.19545e-05
1.16813e-05
1.15495e-05
1.16728e-05
1.16595e-05
1.09474e-05
1.15677e-05
1.16189e-05
1.16685e-05
1.17776e-05
1.16029e-05
1.16732e-05
1.16218e-05
1.15826e-05
1.1595e-05
1.16112e-05
1.16482e-05
1.16339e-05
1.15925e-05
1.1639e-05
9.70819e-06
1.26863e-05
1.09993e-05
1.09877e-05
7.68066e-06
1.02957e-05
1.09193e-05
1.09071e-05
1.11907e-05
1.12092e-05
1.12228e-05
1.12433e-05
1.12017e-05
1.1164e-05
1.11517e-05
1.11739e-05
1.11428e-05
1.11108e-05
1.09804e-05
1.11785e-05
1.11867e-05
1.16412e-05
1.11269e-05
1.14641e-05
1.03232e-05
1.09727e-05
1.12491e-05
1.12938e-05
1.1321e-05
1.12725e-05
1.15517e-05
1.18443e-05
1.18979e-05
1.19323e-05
1.19283e-05
1.19556e-05
1.19206e-05
1.18276e-05
1.19643e-05
1.19721e-05
1.19717e-05
1.19763e-05
1.19633e-05
1.16316e-05
1.1698e-05
1.14444e-05
1.14489e-05
1.13574e-05
1.15939e-05
1.18293e-05
1.18378e-05
1.12553e-05
1.12697e-05
1.17449e-05
1.17815e-05
1.18095e-05
1.1859e-05
1.17013e-05
1.17409e-05
1.17057e-05
1.16733e-05
1.16566e-05
1.16823e-05
1.16908e-05
1.07942e-05
1.16553e-05
1.19166e-05
1.15706e-05
1.16341e-05
1.17699e-05
1.17528e-05
1.22679e-05
1.21853e-05
1.11666e-05
1.17346e-05
1.16694e-05
1.08026e-05
1.1379e-05
1.13672e-05
1.17217e-05
1.176e-05
1.17933e-05
1.16963e-05
1.17633e-05
1.16394e-05
1.17057e-05
1.16806e-05
1.16777e-05
1.17295e-05
1.16761e-05
1.16448e-05
1.16782e-05
7.70771e-06
1.2157e-05
1.09643e-05
1.0929e-05
9.40403e-06
1.06452e-05
1.09285e-05
1.12266e-05
1.12351e-05
1.12551e-05
1.12197e-05
1.11688e-05
1.11571e-05
1.11747e-05
1.1145e-05
1.11255e-05
1.10554e-05
1.11867e-05
1.11947e-05
1.1518e-05
1.11343e-05
1.13175e-05
1.01121e-05
1.09881e-05
1.12664e-05
1.13561e-05
1.12893e-05
1.13163e-05
1.13494e-05
1.29847e-05
1.02365e-05
1.18943e-05
1.19385e-05
1.19608e-05
1.19576e-05
1.19162e-05
1.18473e-05
1.16396e-05
1.1913e-05
1.19409e-05
1.19735e-05
1.19381e-05
1.19146e-05
1.14433e-05
1.1485e-05
1.12798e-05
1.12714e-05
1.12939e-05
1.15578e-05
1.13996e-05
1.18582e-05
1.18657e-05
1.15345e-05
1.12116e-05
1.11318e-05
1.17681e-05
1.18342e-05
1.1863e-05
1.18963e-05
1.17539e-05
1.17677e-05
1.17467e-05
1.17094e-05
1.17001e-05
1.17018e-05
1.17306e-05
1.17401e-05
1.1092e-06
3.45775e-07
9.8322e-06
9.25759e-06
1.05346e-05
8.48037e-06
7.77061e-06
1.49336e-05
1.5475e-05
1.1947e-05
1.22311e-05
1.14705e-05
1.09812e-05
1.13979e-05
1.15816e-05
1.06948e-05
1.18263e-05
1.19616e-05
1.17706e-05
1.1822e-05
1.17355e-05
1.17743e-05
1.17463e-05
1.17045e-05
1.17496e-05
1.1787e-05
1.17426e-05
1.17366e-05
5.75392e-06
1.08625e-05
1.102e-05
1.09031e-05
9.45316e-06
1.06191e-05
1.09098e-05
1.12331e-05
1.12384e-05
1.12512e-05
1.1273e-05
1.12235e-05
1.11711e-05
1.11517e-05
1.11655e-05
1.11789e-05
1.114e-05
1.11334e-05
1.10479e-05
1.11885e-05
1.12129e-05
1.17495e-05
1.106e-05
1.14276e-05
9.211e-06
1.09769e-05
1.12798e-05
1.13891e-05
1.13112e-05
1.13383e-05
1.13748e-05
1.2992e-05
8.5953e-06
1.19212e-05
1.19612e-05
1.19668e-05
1.19772e-05
1.17907e-05
1.17148e-05
1.15883e-05
1.18626e-05
1.18907e-05
1.18791e-05
1.1963e-05
1.19381e-05
1.18102e-05
1.12639e-05
1.13787e-05
1.12129e-05
1.12293e-05
1.1265e-05
1.13319e-05
1.12605e-05
1.19033e-05
1.19165e-05
1.13101e-05
1.14019e-05
1.18181e-05
1.18464e-05
1.18704e-05
1.19026e-05
1.19299e-05
1.17956e-05
1.18265e-05
1.1798e-05
1.17649e-05
1.17565e-05
1.17616e-05
1.1772e-05
1.17797e-05
1.1793e-05
1.66526e-05
2.92809e-06
5.94863e-06
1.20895e-05
1.03918e-05
3.96437e-06
9.1927e-06
9.09399e-06
1.26119e-05
1.47233e-05
1.42891e-05
1.2184e-05
1.15943e-05
1.08859e-05
1.1363e-05
1.08067e-05
9.73763e-06
1.18441e-05
1.17941e-05
1.18543e-05
1.18622e-05
1.17659e-05
1.18475e-05
1.18187e-05
1.17946e-05
1.18118e-05
1.18487e-05
1.1774e-05
1.17705e-05
1.23918e-06
1.28658e-05
2.60495e-06
1.09389e-05
1.08604e-05
1.0896e-05
1.02782e-05
1.09061e-05
1.12506e-05
1.12537e-05
1.12627e-05
1.12886e-05
1.12409e-05
1.11816e-05
1.11544e-05
1.11711e-05
1.11884e-05
1.11405e-05
1.11374e-05
1.10913e-05
1.12059e-05
1.12204e-05
1.10942e-05
1.0963e-05
1.10222e-05
1.13589e-05
1.10335e-05
1.13034e-05
1.1462e-05
1.14151e-05
1.13354e-05
1.13676e-05
1.14065e-05
1.24323e-05
9.3211e-06
1.19239e-05
1.19582e-05
1.19614e-05
1.19681e-05
1.196e-05
1.19611e-05
1.16755e-05
1.17443e-05
1.14202e-05
1.172e-05
1.17657e-05
1.17865e-05
1.19463e-05
1.18608e-05
1.12677e-05
1.12345e-05
1.14661e-05
1.12807e-05
1.14092e-05
1.1294e-05
1.11941e-05
1.19277e-05
1.20634e-05
1.28142e-05
1.1968e-05
1.18444e-05
1.18933e-05
1.19065e-05
1.1936e-05
1.19492e-05
1.18377e-05
1.18036e-05
1.18412e-05
1.1822e-05
1.1816e-05
1.18184e-05
1.18373e-05
1.1842e-05
2.34949e-05
1.29836e-05
2.38666e-05
1.44427e-05
2.93986e-05
1.0756e-05
1.27356e-05
1.72037e-05
7.50453e-06
3.59139e-06
1.49674e-05
1.26149e-05
1.29662e-05
1.1175e-05
1.10419e-05
1.1049e-05
1.13859e-05
9.69189e-06
8.83245e-06
1.17974e-05
1.14339e-05
1.18495e-05
1.18492e-05
1.18089e-05
1.18563e-05
1.18367e-05
1.18728e-05
1.18624e-05
1.18744e-05
1.18712e-05
1.18435e-05
1.18297e-05
3.05269e-06
1.15529e-05
2.02471e-06
1.09196e-05
1.08852e-05
1.08851e-05
1.02068e-05
1.09066e-05
1.12616e-05
1.1261e-05
1.12799e-05
1.13103e-05
1.12564e-05
1.12463e-05
1.11912e-05
1.11644e-05
1.1148e-05
1.11832e-05
1.12044e-05
1.11353e-05
1.11324e-05
1.10855e-05
1.12189e-05
1.12386e-05
1.13024e-05
1.09654e-05
1.09574e-05
1.11336e-05
1.13879e-05
1.10184e-05
1.13193e-05
1.15051e-05
1.14491e-05
1.13586e-05
1.13952e-05
1.1441e-05
1.18427e-05
8.13363e-06
1.1953e-05
1.19656e-05
1.19487e-05
1.19382e-05
1.19008e-05
1.14816e-05
1.15223e-05
1.13663e-05
1.15977e-05
1.16606e-05
1.16997e-05
1.16303e-05
1.18987e-05
1.17651e-05
1.14733e-05
1.12262e-05
1.20065e-05
1.20101e-05
1.17357e-05
1.20026e-05
1.12351e-05
1.12411e-05
1.19549e-05
1.38285e-05
1.29006e-05
1.18884e-05
1.19164e-05
1.19382e-05
1.19542e-05
1.19554e-05
1.18719e-05
1.18566e-05
1.18855e-05
1.18507e-05
1.18603e-05
1.18731e-05
1.18785e-05
1.18815e-05
3.31394e-05
2.7506e-05
2.96908e-05
2.72975e-05
3.03015e-05
3.42297e-05
2.94628e-05
2.28436e-05
2.27032e-05
1.34626e-05
3.11208e-06
4.73917e-06
1.20825e-05
2.29635e-07
1.27332e-05
1.09503e-05
1.04739e-05
1.13445e-05
7.50216e-06
1.38786e-05
1.16053e-05
1.15158e-05
1.18065e-05
1.18189e-05
1.1735e-05
1.18666e-05
1.1879e-05
1.18876e-05
1.18792e-05
1.19075e-05
1.19051e-05
1.18598e-05
1.04167e-05
1.16274e-05
1.28411e-05
1.04408e-05
1.09114e-05
1.08935e-05
1.05919e-05
1.08896e-05
1.12807e-05
1.12841e-05
1.12935e-05
1.13338e-05
1.1271e-05
1.12623e-05
1.1211e-05
1.11676e-05
1.11499e-05
1.11987e-05
1.12189e-05
1.11423e-05
1.11339e-05
1.11054e-05
1.12354e-05
1.12467e-05
1.09766e-05
1.10549e-05
1.14768e-05
1.1051e-05
1.13543e-05
1.15157e-05
1.14835e-05
1.139e-05
1.1369e-05
1.14328e-05
1.14806e-05
1.29869e-05
1.02163e-05
1.05534e-05
1.19595e-05
1.19368e-05
1.1927e-05
1.18972e-05
1.18266e-05
1.14084e-05
1.14885e-05
1.12557e-05
1.14365e-05
1.14695e-05
1.14672e-05
1.18101e-05
1.16338e-05
1.18471e-05
1.15306e-05
1.13535e-05
1.33594e-05
1.36479e-05
1.22437e-05
1.27913e-05
1.12959e-05
1.14883e-05
1.1953e-05
1.35349e-05
1.36712e-05
1.40717e-05
1.19051e-05
1.19391e-05
1.1945e-05
1.19486e-05
1.19253e-05
1.19038e-05
1.18898e-05
1.19053e-05
1.18981e-05
1.19028e-05
1.19038e-05
1.19239e-05
1.1915e-05
3.61085e-05
3.50178e-05
3.13243e-05
3.41147e-05
3.45132e-05
3.68673e-05
3.4831e-05
3.21899e-05
1.72175e-05
6.13632e-06
1.22732e-06
9.48803e-06
4.02832e-06
1.38329e-05
1.11497e-05
8.32607e-06
1.10038e-05
1.14124e-05
1.33509e-05
2.98116e-05
1.15889e-05
1.34709e-05
1.17364e-05
1.17543e-05
1.14602e-05
1.18081e-05
1.18868e-05
1.18786e-05
1.18358e-05
1.19034e-05
1.18896e-05
1.1858e-05
1.19033e-05
1.19047e-05
1.13741e-05
1.04262e-05
1.09167e-05
1.08784e-05
1.05781e-05
1.08906e-05
1.12952e-05
1.13004e-05
1.13186e-05
1.1361e-05
1.13355e-05
1.12908e-05
1.12746e-05
1.12206e-05
1.12225e-05
1.11838e-05
1.11605e-05
1.11494e-05
1.12198e-05
1.11964e-05
1.1236e-05
1.1139e-05
1.11332e-05
1.1126e-05
1.10977e-05
1.12639e-05
1.10403e-05
1.09656e-05
1.11007e-05
1.13931e-05
1.1584e-05
1.15554e-05
1.14128e-05
1.14001e-05
1.14573e-05
1.15114e-05
1.24198e-05
8.97194e-06
1.06063e-05
1.19277e-05
1.1864e-05
1.18504e-05
1.17985e-05
1.17013e-05
1.12548e-05
1.1325e-05
1.1237e-05
1.13775e-05
1.13065e-05
1.13882e-05
1.14585e-05
1.16644e-05
1.30339e-05
1.24964e-05
1.40879e-05
1.43306e-05
1.42295e-05
1.39082e-05
1.4497e-05
1.15546e-05
1.16801e-05
1.24501e-05
1.19383e-05
1.05873e-05
1.19502e-05
1.41069e-05
1.19368e-05
1.19424e-05
1.19372e-05
1.19192e-05
1.19127e-05
1.1884e-05
1.19288e-05
1.19175e-05
1.19124e-05
1.19065e-05
1.19141e-05
1.19309e-05
1.19238e-05
1.19253e-05
1.19326e-05
3.3786e-05
3.606e-05
3.27329e-05
3.46784e-05
3.47679e-05
3.37452e-05
3.56322e-05
3.65699e-05
3.28753e-05
3.60421e-05
1.80242e-05
3.11028e-05
1.13792e-05
4.19158e-06
1.01792e-05
1.74706e-05
1.11208e-05
6.54105e-06
1.05001e-05
1.14555e-05
2.86661e-05
3.16199e-05
1.23857e-05
1.42369e-05
1.14669e-05
1.15399e-05
1.15153e-05
1.17231e-05
1.18522e-05
1.18079e-05
1.17432e-05
1.1778e-05
1.18821e-05
1.1838e-05
1.17647e-05
1.05207e-05
1.20385e-05
1.28669e-05
1.04735e-05
1.0762e-05
1.09235e-05
1.08825e-05
1.08648e-05
1.09871e-05
1.13262e-05
1.13277e-05
1.13373e-05
1.13935e-05
1.1366e-05
1.13117e-05
1.13012e-05
1.12391e-05
1.12385e-05
1.11821e-05
1.11699e-05
1.11616e-05
1.12388e-05
1.12153e-05
1.12535e-05
1.11482e-05
1.11412e-05
1.11302e-05
1.11081e-05
1.12766e-05
1.10741e-05
1.09741e-05
1.09739e-05
1.1469e-05
1.16345e-05
1.15806e-05
1.1443e-05
1.1417e-05
1.14986e-05
1.15587e-05
1.15203e-05
1.19754e-05
8.69892e-06
1.12504e-05
1.18701e-05
1.18171e-05
1.17804e-05
1.17004e-05
1.15561e-05
1.12496e-05
1.12148e-05
1.13412e-05
1.1263e-05
1.12511e-05
1.12595e-05
1.13461e-05
1.15358e-05
1.33081e-05
1.42992e-05
1.29277e-05
1.55456e-05
1.47177e-05
1.46689e-05
1.507e-05
1.22896e-05
1.15366e-05
1.27467e-05
1.28906e-05
1.18779e-05
9.50597e-06
1.25452e-05
1.19428e-05
1.19395e-05
1.19391e-05
1.19187e-05
1.18376e-05
1.18444e-05
1.18019e-05
1.19051e-05
1.18685e-05
1.19028e-05
1.19144e-05
1.19034e-05
1.19076e-05
1.19339e-05
1.19289e-05
3.14079e-05
3.1757e-05
3.5141e-05
3.42591e-05
3.03677e-05
2.77422e-05
3.38811e-05
3.49094e-05
3.70356e-05
3.86436e-05
2.67515e-05
3.50783e-05
1.59579e-05
8.05375e-06
7.285e-06
2.32413e-05
2.14429e-05
1.15284e-05
2.57965e-07
2.64514e-05
1.17028e-05
3.18228e-05
3.34748e-05
1.26574e-05
1.25299e-05
1.15504e-05
1.1543e-05
1.19279e-05
1.14918e-05
1.16828e-05
1.15325e-05
1.15986e-05
1.18524e-05
1.17963e-05
1.17227e-05
1.16297e-05
1.03816e-05
1.08986e-05
1.11193e-05
1.05577e-05
1.07322e-05
1.09256e-05
1.08468e-05
1.08663e-05
1.09151e-05
1.13401e-05
1.13501e-05
1.13625e-05
1.14189e-05
1.13931e-05
1.13428e-05
1.13127e-05
1.1254e-05
1.12572e-05
1.11947e-05
1.117e-05
1.12587e-05
1.12358e-05
1.12132e-05
1.1273e-05
1.11514e-05
1.11643e-05
1.11468e-05
1.11394e-05
1.11237e-05
1.11075e-05
1.13019e-05
1.10787e-05
1.09607e-05
1.10548e-05
1.11808e-05
1.09438e-05
1.16874e-05
1.16554e-05
1.14675e-05
1.14548e-05
1.15234e-05
1.15904e-05
1.15627e-05
1.30347e-05
1.00482e-05
6.89485e-06
1.12944e-05
1.178e-05
1.16765e-05
1.16623e-05
1.15446e-05
1.14446e-05
1.1296e-05
1.13388e-05
1.12544e-05
1.12581e-05
1.12554e-05
1.12274e-05
1.13694e-05
1.44208e-05
1.4551e-05
1.43276e-05
1.35118e-05
1.3352e-05
1.24313e-05
1.0706e-05
1.30346e-05
1.21928e-05
1.29314e-05
1.42069e-05
1.17968e-05
4.60398e-06
6.90074e-06
1.19233e-05
1.19061e-05
1.19051e-05
1.18459e-05
1.17821e-05
1.1747e-05
1.16881e-05
1.18771e-05
1.18054e-05
1.18617e-05
1.18628e-05
1.18566e-05
1.18425e-05
1.18738e-05
1.18909e-05
1.1917e-05
2.42774e-05
2.46515e-05
3.33463e-05
3.10955e-05
2.94892e-05
2.60288e-05
2.07601e-05
2.69764e-05
3.24133e-05
3.71625e-05
3.21619e-05
2.79773e-05
4.10523e-05
2.03236e-05
7.93517e-06
3.33578e-07
3.51311e-05
3.42563e-05
1.15175e-05
9.5636e-06
3.21905e-05
2.48984e-05
1.08282e-05
3.40243e-05
3.36783e-05
1.1207e-05
1.28873e-05
1.20881e-05
1.186e-05
1.22102e-05
1.14553e-05
1.15402e-05
1.15013e-05
1.17572e-05
1.16555e-05
1.15471e-05
1.14456e-05
1.0431e-05
1.10442e-05
1.2795e-05
9.9333e-06
1.05043e-05
1.08151e-05
1.09167e-05
1.08572e-05
1.08347e-05
1.12062e-05
1.13752e-05
1.13776e-05
1.13843e-05
1.14524e-05
1.14213e-05
1.13623e-05
1.13441e-05
1.12765e-05
1.12784e-05
1.12009e-05
1.11914e-05
1.12867e-05
1.12559e-05
1.12291e-05
1.12955e-05
1.11707e-05
1.118e-05
1.11669e-05
1.11575e-05
1.11261e-05
1.11152e-05
1.13216e-05
1.11023e-05
1.10327e-05
1.10748e-05
1.11205e-05
1.09203e-05
1.17468e-05
1.16979e-05
1.16751e-05
1.15071e-05
1.14763e-05
1.1569e-05
1.1643e-05
1.15931e-05
1.24651e-05
9.67047e-06
9.68519e-06
1.13296e-05
1.16647e-05
1.16034e-05
1.16259e-05
1.15438e-05
1.14284e-05
1.13101e-05
1.16068e-05
1.16352e-05
1.1328e-05
1.14472e-05
1.13963e-05
1.12492e-05
1.12856e-05
1.13013e-05
1.44181e-05
1.35409e-05
1.47512e-05
9.83547e-06
8.43699e-06
9.71522e-06
9.09014e-06
6.78214e-06
1.436e-05
1.21758e-05
1.37123e-05
1.16695e-05
4.13632e-06
3.31272e-06
1.18965e-05
1.18828e-05
1.18521e-05
1.17637e-05
1.16707e-05
1.16328e-05
1.15929e-05
1.18096e-05
1.16356e-05
1.17348e-05
1.17823e-05
1.17611e-05
1.17537e-05
1.17576e-05
1.18286e-05
1.18426e-05
1.84938e-05
2.39671e-05
3.05409e-05
2.29804e-05
1.89646e-05
1.39186e-05
2.47778e-05
2.75485e-05
3.83832e-05
2.34735e-05
3.77127e-05
3.93307e-05
2.38897e-05
1.43717e-05
4.79828e-06
3.76442e-05
3.86653e-05
1.12271e-05
1.15502e-05
7.45268e-06
3.32165e-05
2.88334e-05
3.27179e-05
3.02013e-05
5.13676e-07
9.30464e-06
1.23395e-05
1.24527e-05
1.19993e-05
1.23213e-05
1.14596e-05
1.13667e-05
1.13983e-05
1.16182e-05
1.15169e-05
1.14304e-05
1.14011e-05
1.03947e-05
1.04327e-05
1.2132e-05
8.33296e-06
1.06193e-05
1.07864e-05
1.09125e-05
1.07768e-05
1.08965e-05
1.1036e-05
1.13918e-05
1.1404e-05
1.14163e-05
1.14691e-05
1.14557e-05
1.13623e-05
1.13991e-05
1.13464e-05
1.12972e-05
1.1309e-05
1.12206e-05
1.12032e-05
1.13133e-05
1.1295e-05
1.12485e-05
1.12826e-05
1.132e-05
1.11785e-05
1.11981e-05
1.11759e-05
1.1159e-05
1.11417e-05
1.11172e-05
1.11055e-05
1.10473e-05
1.10901e-05
1.09598e-05
1.11639e-05
1.09989e-05
1.18058e-05
1.17825e-05
1.17438e-05
1.15343e-05
1.15137e-05
1.16039e-05
1.16812e-05
1.16575e-05
1.22336e-05
7.13403e-06
8.96507e-06
1.13854e-05
1.15438e-05
1.14946e-05
1.14586e-05
1.1449e-05
1.13083e-05
1.12566e-05
1.18689e-05
1.20705e-05
1.16401e-05
1.18323e-05
1.13235e-05
1.15753e-05
1.14756e-05
1.12453e-05
1.2213e-05
9.81047e-06
1.48395e-05
7.39561e-06
5.35302e-06
5.12637e-06
7.44673e-06
3.71874e-06
1.46237e-05
1.30157e-05
1.37719e-05
1.45771e-05
1.15409e-05
2.54049e-06
1.94475e-06
1.18221e-05
1.18135e-05
1.17758e-05
1.16738e-05
1.16082e-05
1.14983e-05
1.14466e-05
1.16992e-05
1.16231e-05
1.15493e-05
1.1663e-05
1.16523e-05
1.16486e-05
1.16966e-05
1.17316e-05
1.17954e-05
4.65542e-06
9.82267e-06
2.59571e-05
1.90876e-05
1.44035e-05
7.71948e-06
3.23514e-06
1.63572e-05
2.41419e-05