/*--------------------------------*- C++ -*----------------------------------*\
| =========                 |                                                 |
| \\      /  F ield         | OpenFOAM: The Open Source CFD Toolbox           |
|  \\    /   O peration     | Version:  v2012                                 |
|   \\  /    A nd           | Website:  www.openfoam.com                      |
|    \\/     M anipulation  |                                                 |
\*---------------------------------------------------------------------------*/
FoamFile
{
    version     2.0;
    format      ascii;
    class       volScalarField;
    location    "0.1";
    object      omega;
}
// * * * * * * * * * * * * * * * * * * * * * * * * * * * * * * * * * * * * * //

dimensions      [0 0 -1 0 0 0 0];


internalField   nonuniform List<scalar> 
13611
(
19.406
16.1242
77.839
18.1234
20.3022
22.7894
14.676
29.7864
22.7404
21.0583
22.957
16.3127
18.192
82.9128
22.6277
21.3323
22.5456
22.4686
13.2905
17.9023
27.8845
22.7728
22.6696
22.4551
22.3488
22.4298
13.5454
20.0069
76.0242
22.8099
22.5604
22.4417
22.2313
22.2214
22.0224
13.5899
18.1747
30.3231
22.7486
22.5434
22.303
22.0796
22.066
22.0309
12.1386
18.7464
87.223
12.8898
22.6421
22.8182
22.4219
22.2961
22.0039
21.9221
21.8086
22.0594
15.2088
20.5861
33.4194
11.7594
22.6441
22.7487
22.383
22.1962
22.9028
21.8897
22.0897
21.8084
21.6525
21.7423
14.8499
20.7921
78.5935
11.1552
22.5719
22.791
22.2908
22.4678
22.1961
21.913
22.0123
21.6936
21.4601
21.5968
21.636
18.0512
21.3475
39.9418
9.838
22.6255
22.7828
22.3006
22.3939
22.1172
22.8813
21.8409
22.0199
21.7259
21.3724
21.4805
21.3586
17.6344
21.2728
24.0572
10.5764
22.7261
22.5423
22.213
22.4303
22.1248
22.875
22.9559
21.872
21.9656
21.6564
21.2903
21.4686
21.1803
21.1902
19.8082
20.9157
21.1398
83.9243
9.63032
8.88152
22.766
22.5719
22.2372
22.3558
22.0243
22.954
21.7903
21.6999
21.555
21.3409
21.0188
20.9556
18.3802
20.8345
20.9121
32.8763
7.08507
12.0182
22.7669
22.5113
22.6884
22.1983
22.3576
21.97
22.873
23.0372
21.7937
21.6307
21.5399
21.2996
21.0776
20.8493
20.8204
20.8554
20.7405
20.7322
20.7988
84.4007
11.7125
10.0161
22.4317
22.5578
22.7077
22.1268
22.27
21.8793
22.0359
22.8777
23.0429
21.7059
21.6299
21.4898
21.2034
21.394
21.0141
20.9109
15.5389
20.6509
20.5112
20.651
20.5475
33.2519
7.45727
22.4273
22.6442
22.4952
22.8049
22.1359
22.2746
21.8882
21.9666
22.9661
23.1315
21.7207
21.5321
21.179
21.3464
21.0654
20.8328
15.8785
20.4775
20.4266
20.4006
20.5046
20.7339
11.57
84.822
12.0993
22.3631
22.6756
22.5396
22.8368
22.0799
22.2159
21.8117
21.9888
23.0078
23.1887
21.6468
21.5443
21.2468
21.3969
21.0479
20.804
18.526
20.4382
20.1901
20.2929
20.5489
20.6761
7.93463
30.8605
13.5305
22.3206
22.6352
22.7716
22.5081
22.9395
22.1074
22.2391
21.8033
21.9439
23.1202
21.6472
21.4869
21.2288
21.3793
20.9767
21.1437
20.8813
20.695
17.2201
20.3812
20.0971
20.063
20.1686
20.3615
20.4829
9.22838
11.5525
77.7311
22.3636
22.6758
22.7618
22.5744
22.4509
22.9899
22.191
22.0635
21.7275
21.8734
21.9917
23.1382
21.5886
21.5184
21.3012
21.4457
20.9937
21.1378
20.8595
20.6427
18.518
19.9523
19.8677
19.8361
19.9602
20.1277
20.3156
20.5222
7.93596
12.5147
40.5482
22.3089
22.653
22.8403
22.5452
22.4731
22.9439
23.0943
22.2253
22.1019
21.7113
21.8793
21.9505
23.2496
23.33
21.6185
21.2853
21.4365
20.9249
21.0661
21.2097
20.7973
20.7027
16.2576
19.9797
19.6518
19.8319
20.0051
20.2057
20.389
20.4893
10.6949
24.1663
22.3365
22.734
22.8244
22.6084
22.4235
23.0074
23.1522
22.1793
22.0604
21.7667
21.8415
21.9857
23.245
23.4163
21.6146
21.3516
21.502
20.9209
21.0602
21.2011
20.7887
20.6652
17.142
19.541
19.435
19.5918
19.7335
19.9364
20.2086
20.318
20.573
5.03906
82.7671
7.43521
22.2924
22.7053
22.896
22.6141
22.4623
23.1134
22.98
23.1681
22.212
22.0942
21.765
21.8778
21.9433
23.3157
23.4009
21.7015
21.5597
21.3309
21.4979
20.8475
20.9893
21.1278
21.2629
20.7095
16.8967
19.3376
19.5756
19.5018
19.7913
20.0047
20.1349
20.3679
20.5502
10.6673
35.8543
3.7315
22.3296
22.7626
22.9034
22.5569
22.7017
22.4158
23.1074
23.0367
23.2646
22.1735
22.0552
21.8235
21.9759
23.5029
21.6873
21.5487
21.396
21.4644
20.8474
20.9878
21.1272
21.2783
20.7023
18.9592
19.1443
19.3411
19.5024
19.222
19.5756
19.7252
19.9914
20.1684
20.3408
20.4831
20.6245
12.5251
10.1837
88.7863
8.3172
23.7363
24.2947
22.3095
22.8505
22.9868
22.5876
22.7317
22.4501
23.1884
23.3328
22.2309
22.1034
21.8543
21.94
23.6258
23.5171
21.613
21.7471
21.3569
21.502
20.7749
20.919
21.0574
21.1963
21.2583
17.3589
19.0341
19.2862
19.2412
18.9829
19.5428
19.8008
20.0885
19.9225
20.2651
20.4084
20.486
20.6329
9.91831
35.1054
10.3717
22.6322
23.4734
22.645
15.7381
78.1247
22.3757
22.888
23.0398
22.6742
22.5295
22.8281
23.3004
23.2242
23.465
22.1901
22.0697
21.8241
21.9885
23.6538
21.5814
21.7656
21.3696
21.4923
20.7919
20.9214
21.0592
21.196
21.308
18.6142
18.8734
19.1268
19.404
19.0638
18.8105
19.6363
19.746
20.0982
19.9565
20.2584
20.4092
20.5581
20.7176
4.8124
79.1589
8.12787
16.8371
20.5971
22.5811
23.1744
22.4555
15.0213
26.8145
22.3799
22.9802
23.1627
22.7132
22.5655
22.8443
23.4182
23.3555
23.5777
22.2315
22.1046
21.8911
21.9646
23.7456
23.6915
21.6121
21.8542
21.75
21.4334
21.5504
20.8674
20.9971
21.131
21.2546
21.3071
18.7965
19.0941
19.3565
18.8449
18.6303
19.6392
19.8048
20.0485
20.1895
19.8993
20.3325
20.487
20.5618
20.721
7.31517
41.8241
11.4134
18.0103
21.9569
22.3393
22.7361
22.6101
22.4713
22.8464
16.4625
79.0255
22.321
22.4641
23.0364
23.2297
22.7992
22.6613
22.5308
22.9518
23.5558
23.4194
22.1898
22.1004
22.0269
24.0068
23.8816
23.8269
21.6898
21.8756
21.811
21.4335
21.5613
20.9012
20.9874
21.1256
21.2966
21.3752
18.6226
18.8836
19.0195
19.2356
19.4532
18.7405
18.5542
19.5814
19.7439
20.0942
20.1805
19.9427
20.3411
20.4965
20.6433
20.8093
1.92352
24.2102
16.8693
8.50044
18.5124
19.7797
22.1973
22.2711
22.7596
22.6947
22.3648
22.9005
15.1099
25.3428
22.365
22.4842
23.1716
23.0296
23.3536
22.8703
22.7108
22.5816
22.9658
23.7476
23.6236
22.2303
22.1694
22.0072
23.9559
23.9959
21.6967
21.9439
21.8312
21.497
21.6353
20.8911
21.0463
21.1915
21.3698
21.2656
18.5848
18.8736
19.0804
19.1866
19.3955
18.3854
18.2735
19.6507
19.7909
20.0523
20.2552
19.9066
20.4261
20.5822
20.6514
20.7941
5.27806
80.7854
18.2376
11.4179
18.4148
20.1962
22.0641
22.1086
22.1824
21.7295
22.6152
22.4505
22.802
13.6768
77.1457
22.3111
22.4458
22.55
23.2335
23.1374
23.4862
22.8755
22.6602
22.8144
23.0705
23.9801
23.7693
23.6606
22.1924
22.0766
24.3593
24.2365
24.2619
21.7671
21.9682
21.9163
21.5016
21.6398
20.9751
21.0545
21.197
21.4309
21.312
18.429
18.7393
18.9814
19.2632
19.4644
18.1816
18.2588
19.7664
19.5966
20.1214
20.2896
19.985
20.4637
20.6191
20.7296
20.8671
2.38129
28.7252
16.6622
8.47924
18.2173
15.0695
21.8346
22.1066
21.9231
22.1242
22.6766
22.3856
22.8872
22.7811
29.716
22.3274
22.4896
22.5915
23.3732
23.1778
23.5016
22.9987
22.6697
22.9049
23.1002
24.2437
24.0489
23.8753
22.153
22.2781
22.0387
24.608
24.5041
21.7742
21.9535
21.5729
21.7067
20.9962
21.1343
21.2608
21.4292
21.3842
18.417
18.7135
19.0379
19.2075
19.4795
18.0039
18.0626
19.8591
19.6837
20.0925
20.2363
20.4058
19.9641
20.5629
20.7161
20.7691
20.8419
20.9432
6.81851
81.5068
17.7322
10.7684
18.0358
13.5754
21.8104
22.2595
21.9732
21.8125
21.5493
17.7454
22.2812
22.582
22.4666
22.879
22.6815
84.9884
14.1655
22.4143
22.4889
22.5826
23.4844
23.3737
23.756
23.0205
22.7651
22.8788
23.2634
24.2808
24.5185
24.0859
23.9258
22.2038
22.3279
22.0883
24.8318
24.7995
21.8552
21.9226
22.045
21.571
21.7445
21.0968
21.1611
21.2991
21.505
21.4306
18.2985
18.5678
18.8488
19.001
19.2981
19.4369
19.6127
17.8032
18.0949
19.8897
19.7861
20.1707
20.2897
20.4571
20.0548
20.5961
20.726
20.8918
20.9693
2.70321
28.49
15.6668
18.0307
7.88535
17.9144
17.7959
21.6727
22.2134
21.9928
21.4363
21.4687
17.3126
22.3254
22.5791
22.3894
22.7836
22.6786
29.7517
11.9797
22.4113
22.6095
22.6871
23.6976
23.4116
23.1752
22.7873
22.9866
23.3203
24.6573
24.7946
24.4046
24.1751
22.174
22.2929
25.1854
25.1996
21.8652
21.9737
22.0797
21.6425
21.714
21.8303
21.1215
21.2483
21.3897
21.5007
18.3372
18.5869
18.8406
19.1522
19.2928
19.5104
19.628
17.7216
18.0363
19.8371
20.0043
19.8295
20.147
20.2632
20.3988
20.5552
20.6866
20.8152
20.8862
21.0504
7.21166
80.5983
16.7965
17.8265
10.4718
17.6551
17.5967
21.6964
22.1201
22.2837
21.9289
21.2952
21.2698
21.5657
19.1107
12.3437
21.8493
21.6823
22.511
22.4116
22.9645
22.7856
22.6221
78.8008
22.5243
22.6311
22.7094
23.8973
23.6335
23.2622
22.8958
23.1563
23.4905
24.7031
24.9154
25.1534
24.4367
24.3409
22.2392
22.3454
25.5759
25.5964
21.9323
22.0477
22.1871
21.6457
21.7645
21.8591
21.2225
21.2925
21.4355
21.5748
18.4471
18.1748
18.7191
18.9621
19.0852
19.4397
19.5663
19.7287
17.5509
17.8614
19.907
20.0676
19.8298
20.2309
20.325
20.4204
20.6184
20.7507
20.8311
20.967
21.0772
2.51427
28.784
15.4466
17.7531
7.4466
17.5411
17.469
21.8274
22.0706
22.2312
21.9773
21.2829
21.0242
21.5662
19.1957
10.8341
22.2396
21.3452
22.5398
22.3791
22.8697
22.6824
28.792
22.531
22.747
22.8565
23.8585
24.2332
23.6559
23.5178
22.9658
23.2824
23.6346
25.1465
25.2814
25.5499
24.828
24.719
22.338
22.2591
22.4624
26.0544
26.2505
21.9273
22.1337
22.2251
21.7106
21.8343
21.2411
21.2933
21.3979
21.5304
21.5821
18.3679
18.2337
18.6394
18.9039
19.145
19.4528
19.7376
19.8152
17.5079
17.8682
20.0112
20.2009
19.9836
20.3415
20.2718
20.5241
20.7271
20.633
20.9215
20.9916
21.0443
21.1804
7.36651
81.7402
16.4244
17.5751
7.92713
17.2952
17.3316
21.7777
22.123
22.2848
21.9136
21.1796
21.457
21.0396
20.9351
21.6792
15.1007
21.1835
12.6981
21.48
22.4428
22.8392
22.6573
78.4084
22.6713
22.8433
22.8778
24.1524
24.5199
23.9021
23.6543
23.162
23.5187
23.8647
25.1615
25.6335
25.7271
26.0895
25.1222
22.4389
22.3943
22.5185
27.2426
26.6751
26.4665
26.8574
22.0202
22.1274
22.3437
21.734
21.911
21.3341
21.3928
21.4555
21.5574
21.6643
18.7431
18.4785
18.0612
18.7192
19.1517
19.4419
19.8314
19.8455
19.9762
17.3618
17.6819
20.1195
20.2767
20.1136
20.4594
20.4362
20.5532
20.6147
20.8149
20.7597
20.975
21.0708
21.1098
21.2196
2.83807
27.2925
16.4035
17.5126
5.30481
12.3325
17.2094
17.2402
21.8215
22.0842
22.2544
21.926
21.2305
21.4214
20.9657
20.7845
21.6427
14.0706
21.4103
10.7378
21.0077
22.4607
23.0042
22.7402
22.9112
22.5777
39.7361
22.6195
22.7994
23.0334
23.0644
24.1248
24.4642
24.963
23.9794
23.2979
23.6836
24.0531
25.6701
26.3778
26.5498
26.7286
25.7406
22.4815
22.4372
28.1848
27.6208
27.6758
22.0177
22.247
22.4198
21.8382
21.9202
21.3879
21.4146
21.5312
21.6493
21.7039
20.1902
17.7832
18.0032
19.2009
20.4875
20.223
21.0231
20.0841
20.2962
20.2352
17.2539
17.8111
20.2708
20.4484
20.2762
20.5245
20.5254
20.672
20.7134
20.9297
20.8131
21.1101
21.1506
21.1876
21.3273
5.28993
74.9978
17.2788
17.4631
4.73931
12.2404
17.0505
16.9558
21.783
22.0031
22.1606
22.3308
21.837
21.338
21.1518
21.4959
21.0414
20.8227
20.6155
21.573
21.7045
16.1654
21.1066
20.2116
12.1247
20.8477
22.4187
22.7172
22.8809
22.5635
32.387
22.7154
22.9648
23.1777
23.239
24.4442
24.7799
25.2751
24.0921
24.1429
23.5755
23.9579
24.3778
26.3194
25.9692
27.1261
27.1959
27.6211
26.2707
22.63
22.5768
28.3568
28.1323
22.1237
22.2408
22.3832
22.5827
21.882
22.039
21.5112
21.5253
21.6089
21.7059
21.8147
17.0886
18.9928
17.8834
17.0481
17.8295
19.1584
20.1482
20.0544
21.1862
21.336
21.2419
20.501
17.0474
17.3641
17.4774
20.4459
20.5777
20.4946
20.6934
20.7212
20.7659
20.7832
21.0491
20.9383
21.2476
21.2595
21.2553
21.3505
3.29842
33.7445
17.0213
17.1142
7.89415
14.42
16.9074
22.0149
22.1522
22.3033
21.8612
21.342
21.1206
21.4224
20.9873
20.7835
20.5442
21.5684
21.6472
14.3323
20.9916
21.0478
9.86162
20.4823
22.4785
23.0551
22.6268
22.7867
22.9523
76.895
14.648
22.895
23.1511
23.3719
23.4042
24.7693
25.1639
26.0067
24.4592
24.4315
23.6846
24.2252
24.6105
27.0297
26.7933
27.9578
27.9508
28.0342
26.3677
27.051
22.6849
22.6506
28.9719
28.9808
28.9265
22.1365
22.3699
22.5297
22.7106
21.9965
22.0719
21.5734
21.5702
21.6286
21.6724
21.8188
21.8893
13.4634
16.3836
16.8058
17.3556
17.0584
15.3909
17.3199
16.3294
19.9185
21.2316
21.3448
21.0898
17.0322
17.2464
17.5036
16.8628
20.7997
20.7009
20.8288
20.9011
20.946
20.9398
21.2168
21.0444
21.0322
21.4097
21.3937
21.4726
1.63161
17.1405
17.7124
16.892
7.77528
14.5324
16.7945
21.9562
22.0959
22.2322
22.3643
21.7959
21.2735
21.0243
21.1814
21.4165
20.8905
20.6619
20.3671
21.5045
21.6967
16.4276
20.6925
19.6773
7.41795
20.3333
22.4507
23.1466
22.6068
22.771
22.9449
91.937
9.9025
23.0083
23.3676
23.6115
23.6157
25.2655
25.6477
26.1553
24.7505
24.5394
24.7173
23.9824
24.2026
25.0926
27.8632
27.2094
28.592
28.4951
28.741
27.2619
27.6161
22.8443
22.8605
29.2907
28.7867
22.2501
22.3734
22.5144
22.6961
22.8834
22.079
22.2265
21.7205
21.579
21.6907
21.7463
21.8485
21.9157
22.0254
25.1499
18.2077
15.5227
21.3717
16.9236
19.9027
19.4667
20.6722
17.3763
19.3238
18.8315
21.3892
21.3287
16.857
17.0663
16.8556
16.4847
21.1255
21.1938
21.111
21.176
20.9845
21.1484
21.368
21.2149
21.19
21.5685
21.433
21.5104
2.09038
77.9369
1.19282
17.1776
16.4604
16.6533
11.3714
16.6486
21.9954
22.1279
22.203
22.3341
21.8116
21.2897
20.9724
21.1066
21.376
20.8292
20.7081
20.3558
21.5138
21.6541
11.9822
20.2933
20.4476
20.8292
20.1794
22.5148
23.2734
23.1224
22.678
22.8518
23.0327
46.0334
8.70791
22.9862
23.2679
23.4028
23.6133
23.8781
23.8799
25.7504
25.396
26.767
25.2855
25.0253
25.1615
24.0883
24.5261
28.1004
27.9231
28.6535
28.8548
28.7803
27.3493
28.0469
22.9441
28.1539
27.0778
28.2909
22.3082
22.5571
22.6742
22.9064
23.0683
22.2124
21.7778
21.8121
21.715
21.8956
21.9515
22.0929
22.1583
42.283
25.5059
42.7856
20.1869
46.8388
17.5348
38.875
43.6388
34.272
15.0192
18.0438
18.7704
21.561
22.2121
16.8171
16.8449
16.9658
16.2796
16.472
21.5888
22.0859
21.2798
21.2868
21.5495
21.2814
21.3669
21.5901
21.4592
21.7242
21.6673
21.6333
21.6674
0.414289
24.0226
0.795936
16.9085
16.8049
16.4623
11.5461
16.5398
22.086
21.9592
22.2504
22.3908
21.8943
21.7678
21.2381
21.0157
20.8646
21.1319
21.4248
20.6324
20.5144
20.198
21.5842
21.7009
12.2405
20.0691
20.047
20.6448
17.2758
20.0467
22.4839
23.3203
23.1844
22.6786
22.8543
23.0298
30.0935
6.49845
23.196
23.3376
23.682
23.8692
24.1713
26.4414
26.1851
26.9368
25.7758
25.4553
25.223
25.7028
24.3252
24.9513
28.3638
28.0563
27.9504
27.6945
28.385
28.0863
27.8089
28.4332
23.1475
25.5124
26.7768
22.4947
22.683
22.8725
23.0958
23.2903
22.3339
21.9366
21.9734
21.7846
22.0043
22.1389
22.2191
22.3161
71.6921
59.3513
67.7413
37.1904
48.167
74.2479
70.7723
54.2798
66.313
43.5309
24.1485
15.0998
19.7748
29.5405
21.5591
16.6386
16.4477
16.8141
15.6383
19.2206
22.3668
22.4748
21.7222
21.7802
21.951
21.4816
21.6003
21.789
21.7134
21.9509
21.9743
21.7438
5.62065
4.82147
77.2878
4.2288
16.9265
16.5088
14.5976
16.4259
22.1214
22.0129
22.2116
22.4024
21.872
21.8022
21.2852
20.9528
20.8148
21.1138
21.431
20.6565
20.4842
20.1668
21.5887
21.6527
19.8212
20.2939
18.0382
19.959
22.5513
23.2651
23.1909
22.7809
22.6331
22.9492
23.1122
84.4399
12.5092
11.8332
23.5299
23.737
23.9055
24.1577
24.5403
26.6568
26.2566
27.5104
26.317
26.1089
26.039
24.6436
25.3803
27.9676
28.3276
28.4264
25.7281
25.1781
27.6727
26.9616
28.2396
28.0804
23.3234
26.2363
25.8101
25.0925
22.5589
22.7998
22.9491
23.2961
23.5364
22.5028
22.0614
22.1291
22.0028
22.1824
22.2656
22.4496
22.4394
98.5919
95.7961
48.3085
70.8949
86.2358
109.026
104.601
123.808
80.3861
47.8909
25.2508
21.4076
45.6717
21.0464
16.6154
15.6547
16.5842
16.7351
18.2959
39.9685
22.7552
21.298
22.0398
22.1447
22.7315
21.9568
21.8289
22.1157
22.1055
22.1176
22.1399
22.2336
21.9621
1.74943
19.7985
6.07616
16.8888
16.2962
15.165
16.3083
22.0954
21.9944
22.2576
22.4926
22.3492
21.9166
21.7768
21.373
21.2625
20.9621
20.874
20.7393
21.1912
21.0347
21.5227
20.5615
20.4001
20.2913
20.0164
21.6927
19.7923
19.7307
20.1749
19.4568
23.4231
23.3173
22.7724
22.6876
22.9214
23.1063
41.6135
9.02517
11.7217
23.7003
24.0914
24.2437
24.5339
24.9733
27.2455
26.8745
27.6174
26.505
26.8586
26.3888
26.0151
25.2331
25.9862
26.7538
24.5408
24.2925
24.2931
24.9284
24.133
27.9768
27.6757
26.7406
23.6095
33.2281
29.3857
24.9589
22.7749
22.9216
23.1933
23.5433
23.4686
23.8253
22.6328
22.2628
22.3753
22.1202
22.347
22.4894
22.6062
22.5477
22.626
95.5518
114.99
51.9085
69.8269
86.0232
92.6934
116.601
132.885
133.207
132.624
79.5966
128.835
60.9477
41.8523
21.3034
110.073
16.469
14.9994
16.1811
16.6096
33.8892
44.1488
22.1396
20.5952
22.8964
23.0059
22.9245
22.4341
22.1535
22.4011
22.3953
22.3957
22.4455
22.5322
22.6993
4.22498
2.40243
72.7095
12.3495
16.292
16.6158
16.2078
16.1911
16.3143
22.1647
22.0559
22.2409
22.5218
22.3726
21.9067
21.8314
21.3855
21.3152
20.8756
20.8342
20.7529
21.1826
21.0331
21.5212
20.5448
20.3918
20.2085
19.9898
21.666
19.7509
19.5162
19.9876
19.9648
23.5282
23.2975
22.8376
22.6698
22.974
23.2067
23.0618
30.9965
7.73326
16.3043
24.0356
24.3363
24.5643
24.9376
25.5311
27.5394
27.4796
27.8857
27.0147
27.2167
27.0193
26.4329
25.648
25.5487
24.166
26.0477
22.4183
23.7002
23.7045
23.3735
26.952
27.8904
26.1352
26.0605
23.8801
36.9453
27.9293
22.7943
22.9275
23.1831
23.4129
23.8956
23.8354
24.1226
22.4684
22.6605
22.4133
22.622
22.7259
22.9029
22.7947
22.8478
91.4526
97.0036
67.4937
71.9252
71.7365
66.7053
121.63
129.717
144.609
140.049
134.457
155.479
110.318
67.6223
23.1593
155.867
122.285
16.5802
12.7234
29.3273
16.6754
43.3083
58.3371
21.3762
21.989
23.054
23.277
22.5042
23.1892
22.8699
23.1568
23.0146
22.6159
22.7306
22.8836
23.0983
4.08742
1.71309
18.3367
13.8889
16.0752
16.5652
15.9775
16.0967
16.1559
22.1354
22.0536
22.3011
22.608
22.4506
21.9819
21.8004
21.4525
21.3215
20.8786
20.7071
21.2495
21.1089
20.9695
21.5937
20.4818
20.6279
20.3355
20.2295
20.1101
19.8802
21.7241
19.643
19.3062
19.5092
20.1504
19.4131
23.5678
23.4063
22.8169
22.7453
22.9523
23.2029
23.1141
86.2961
12.3322
5.60155
16.0652
24.3557
24.8431
24.9723
25.4695
25.9111
27.9363
27.5662
27.2258
27.5512
27.0964
27.0196
26.2556
23.9297
23.8486
23.9671
25.755
26.1005
27.9329
32.6562
25.7547
26.9158
25.8649
24.0734
24.2554
76.5109
50.6572
23.0347
23.2468
23.3719
23.7144
24.1609
24.1728
24.5682
22.7769
23.0191
22.6618
22.8805
23.0687
23.1613
23.1016
23.061
23.0565
59.2174
75.5048
68.0061
69.1878
66.0418
59.6342
48.7935
96.3385
124.098
154.102
126.419
138.38
159.686
139.546
66.7283
34.7644
181.268
160.041
16.463
15.3561
42.0567
26.4024
16.0442
58.4659
67.7278
21.9966
21.8427
22.5076
23.2142
22.3515
23.5109
23.299
23.3794
22.9978
23.2211
23.4742
23.7192
8.46492
0.757432
70.0211
2.3971
13.599
16.4007
16.2507
15.8803
15.9616
16.1945
22.1839
22.1194
22.3017
22.6391
22.4537
21.9637
21.842
21.464
21.4002
20.8383
20.7572
21.276
21.0918
20.9533
21.5963
20.5171
20.5967
20.3734
20.2218
20.0367
19.9199
21.7241
19.7039
19.2615
19.3911
19.9343
19.08
23.6881
23.5275
23.384
22.8727
22.7207
23.0214
23.2821
23.1118
43.7833
11.4301
9.2958
18.3161
24.8068
25.1453
24.9807
25.4315
25.9258
26.4484
27.6334
27.5051
27.5074
27.467
27.3163
27.1521
27.1185
26.5747
23.988
25.6137
23.3491
35.2966
41.2779
35.9563
38.1367
50.6638
23.8378
26.9338
24.6558
24.6713
79.8658
107.244
23.2748
23.4532
23.6593
24.0755
24.5504
24.6089
24.8584
23.0338
23.562
23.1125
23.2788
23.3971
23.5379
23.5643
23.4169
23.3954
45.7695
69.3954
67.8863
38.7752
32.0267
24.8631
87.7003
148.694
159.358
109.78
164.614
167.022
180.177
133.364
51.8866
180.939
194.946
16.23
16.3796
14.2534
50.0231
32.6981
57.5581
54.6548
33.9343
24.7978
22.3594
22.2956
23.1661
22.6599
23.8521
23.9444
23.9742
23.4052
23.6578
23.9038
24.056
8.31211
4.42124
27.8613
1.17326
15.1212
16.2598
16.2179
15.6502
15.8881
15.9838
22.2556
22.1316
22.3855
22.6117
22.5344
21.9092
22.0281
21.787
21.5367
21.4291
20.8794
20.7295
21.3706
21.2347
21.0073
21.1564
21.6654
20.4599
20.6473
20.307
20.1391
20.0347
19.8314
19.6027
19.1365
19.4566
19.2196
19.9454
19.0004
23.7914
23.6506
23.4786
22.8593
22.7734
23.0266
23.3031
23.2134
37.8976
6.35761
7.83092
18.0644
25.1863
25.5386
25.5519
25.7503
26.4125
26.72
27.2324
26.8773
27.2044
27.1815
27.3678
27.2741
27.1614
27.039
28.2639
35.31
23.1891
47.0857
65.2955
68.4152
46.6423
95.466
23.4549
25.6275
24.5415
23.475
25.1477
135.421
171.062
23.5745
23.7477
23.9284
24.3556
24.7355
25.0436
25.3553
23.4747
23.556
23.8891
23.636
23.8102
23.8781
23.8467
23.7613
23.6437
17.2331
24.9086
45.3644
30.2186
24.9607
18.1586
13.3636
63.6164
136.476
106.046
166.263
70.3471
172.46
223.021
150.389
108.266
181.685
194.145
202.288
16.1328
16.3377
13.7157
50.2438
57.3402
32.4751
46.501
54.6809
42.0373
67.9713
34.7827
22.856
22.5688
22.9992
23.6965
23.9774
23.9962
24.2556
24.4626
24.43
11.4519
3.64981
20.9683
1.40938
14.9456
16.316
15.9547
15.6959
15.6018
16.2669
22.3039
22.2294
22.0953
22.3858
22.6771
22.5208
21.9298
21.9926
21.8004
21.5489
21.5068
20.8573
20.7859
21.3768
21.2749
21.0076
21.1522
21.6742
20.4975
20.6527
20.3438
20.1519
19.9572
19.8327
19.6031
19.2026
19.3536
18.8511
19.4371
18.8488
23.7841
23.6024
23.4083
22.935
22.7607
23.1495
23.2448
97.5705
14.8686
5.94671
12.1337
18.9526
25.5969
25.9235
25.9271
26.2626
26.4952
27.0343
25.9933
25.6284
26.6312
26.3865
27.0927
26.3509
26.8997
27.0908
36.4449
29.3738
29.7057
81.3452
100.858
96.5583
72.0317
140.409
24.684
26.2449
23.6081
24.2194
25.6425
206.813
229.473
224.042
23.9337
24.0394
24.2307
24.9016
25.3886
25.5056
25.1538
25.5956
25.6566
24.1275
24.4534
24.181
24.2471
24.3516
24.1902
24.2052
23.8963
16.3096
18.5205
21.6822
18.0799
17.0054
15.5671
15.0963
27.8099
100.524
45.8922
166.834
27.7666
218.524
218.936
127.269
188.328
199.063
181.444
13.6486
16.4094
23.5512
52.4245
53.135
43.1451
50.0193
42.2832
27.8038
76.0111
42.3498
26.9194
22.8812
23.1884
34.7039
28.7079
23.8496
24.3574
24.4993
24.3219
23.6659
11.6857
7.57986
68.5935
5.27408
0.680563
16.1123
16.2321
16.0363
15.8041
15.4272
16.2247
22.296
22.2249
22.1532
22.4494
22.6523
22.5735
21.8749
22.0425
21.7433
21.6213
21.5546
20.9231
20.7345
21.3401
21.4588
21.2146
21.0851
20.597
20.4492
20.32
20.2465
20.0713
19.9816
19.8078
19.5164
19.7232
19.0887
19.377
18.6955
19.3389
18.9174
23.92
23.7452
23.4744
22.9408
22.8437
23.1419
23.3778
50.5611
23.0361
5.26731
10.2205
19.4703
25.9961
26.396
26.291
26.8294
26.9899
25.0972
24.6926
25.5121
25.0698
26.4874
25.4859
26.2833
27.0548
64.6866
50.337
45.6422
96.1011
106.541
150.193
155.394
100.729
194.907
30.9785
36.273
24.104
31.1312
26.0738
270.541
308.678
305.427
24.1647
24.5736
24.6617
25.0524
25.8028
25.7021
25.8683
25.949
24.7713
24.6102
24.8085
24.3875
24.8114
24.5175
24.8835
24.513
24.2917
19.1983
18.6013
19.2534
16.8323
15.1101
14.6105
15.5904
18.9801
15.4064
88.6688
47.1899
29.1339
161.664
191.404
220.138
202.207
166.27
203.897
166.719
194.408
13.135
13.879
25.6473
50.8632
44.8824
44.0833
52.2734
27.754
16.1594
25.4203
125.745
70.0717
22.807
28.234
64.1276
46.0119
24.7515
24.6954
24.0257
22.6874
14.6482
6.8625
82.2614
3.07101
0.129463
15.9277
15.7358
15.2656
15.4293
16.0076
22.3783
22.2909
22.1265
22.4519
22.7185
22.5888
21.8862
22.019
21.7546
21.6254
21.5227
20.9148
20.7731
21.3951
21.4613
21.2169
21.0744
20.6255
20.4893
20.4029
20.2691
20.0981
19.8973
19.5524
19.7342
19.1042
19.3166
18.5713
19.1641
18.7884
24.1401
24.0543
23.9609
23.6456
23.0403
22.8694
23.2542
23.4551
93.6804
8.41869
4.79143
12.2467
17.2724
19.3898
26.3336
26.6654
26.6707
26.8485
26.9973
26.8467
23.407
23.2982
24.1543
24.1323
25.8437
24.4587
25.8122
25.6493
26.7178
67.9595
96.8514
65.706
148.81
156.7
210.99
219.733
149.688
257.775
232.265
38.1206
55.3075
28.5062
35.2963
26.4491
387.967
390.98
24.6516
24.9678
25.5008
26.1782
25.9372
25.8219
26.1934
26.3687
24.7633
24.8629
25.1263
25.2148
24.8376
25.0511
25.1627
25.415
25.0948
24.7937
19.0154
18.9446
18.9397
18.9783
17.0226
17.035
17.8776
19.1439
19.4671
17.8855
29.8057
115.193
11.251
18.8302
200.83
210.27
203.639
133.245
213.283
121.855
139.573
215.604
19.3417
13.5906
36.4407
40.0111
32.9563
46.9345
47.3748
20.3327
13.8507
16.4951
127.258
88.5374
22.0919
43.5099
26.2875
81.9761
65.1091
24.616
23.9418
23.066
23.4359
14.7573
10.6774
38.9688
0.00374487
4.11752
15.5327
15.8813
16.0323
15.2805
15.7565
13.8734
22.3751
22.3023
22.1766
22.523
22.6669
22.8106
21.9587
21.8262
22.0776
21.6907
21.5734
20.8606
21.0029
20.713
21.374
21.5168
21.1375
21.297
20.5796
20.4738
20.3543
20.1995
20.0231
19.9175
19.5113
19.6681
19.8404
18.9917
19.232
19.4105
18.6397
18.3662
18.5706
18.817
24.4413
24.3679
24.223
23.7623
23.0688
22.9956
23.3965
23.1828
23.6534
44.4594
3.92856
9.55247
17.9802
18.94
26.6248
26.7167
26.7622
26.8284
26.8208
26.62
23.8102
23.8085
24.1116
23.0702
24.6042
23.8663
24.2251
24.7889
24.7998
25.9372
103.254
147.924
107.305
176.352
206.614
288.6
301.338
198.603
325.259
313.346
57.8768
74.0669
31.937
57.4427
26.4941
26.6644
439.834
400.069
480.488
24.9807
25.4916
25.6094
26.1751
26.2647
26.1799
26.4885
24.6732
25.1176
25.2066
25.1756
25.0256
25.4804
25.2982
25.4182
25.6099
25.4261
25.1904
19.5751
18.6514
19.5192
20.3437
17.2691
18.4632
18.9639
18.4061
18.7009
18.3049
89.2688
17.2649
19.0443
218.642
214.154
265.731
181.414
51.7277
72.3656
219.263
21.7743
17.6541
38.8744
39.8489
32.5576
19.6863
44.6707
47.8032
14.5927
16.787
187.002
165.18
58.5187
37.7052
149.133
118.482
24.4079
23.3067
23.1507
27.2068
15.5556
10.0827
16.1207
2.96122
2.81238
15.4696
15.6889
16.1454
15.6647
15.1402
13.1565
22.4476
22.4139
22.2604
22.1477
22.5652
22.7306
22.8608
21.9773
21.8555
22.0431
21.7212
21.6458
20.8965
20.9817
20.7248
21.4649
21.3601
21.552
21.1467
21.3057
20.6127
20.5404
20.4017
20.2308
20.0556
19.5842
19.7026
19.8743
19.0069
19.2931
19.4098
18.5008
18.3323
18.3525
18.7657
24.7402
24.6131
24.2128
24.5689
24.0237
23.0276
23.5849
23.2412
23.8615
24.2985
7.38354
13.2022
18.709
18.8848
26.8119
26.7531
26.7656
26.6604
25.9501
26.7248
26.1152
24.3419
24.9886
24.1728
23.6041
23.6138
23.5507
25.3384
125.326
145.432
199.504
129.028
233.34
262.881
356.952
391.275
264.491
392.657
75.3265
78.2306
111.721
48.5267
62.363
77.6956
26.5514
26.6434
598.226
488.67
603.793
25.4641
25.8013
26.0376
26.345
26.4981
26.3548
26.2288
26.5872
24.3773
24.6355
25.2301
25.5576
24.6096
25.5703
25.6012
25.6847
25.6476
25.4686
25.6967
25.5316
18.9463
18.4868
19.6836
19.8143
20.2767
17.6706
17.9883
17.8397
18.2319
20.827
19.2348
34.403
20.3076
21.1509
225.683
228.814
225.477
246.957
167.175
27.8054
44.5834
55.3283
208.562
33.1025
18.1124
30.69
22.831
16.4043
44.8246
39.8015
15.3893
17.1991
207.702
95.4711
44.1841
168.551
197.462
145.761
23.8156
24.8833
31.5279
15.7515
13.2818
73.7641
0.837044
6.42222
15.2832
15.7708
14.3113
15.4138
15.0529
14.8028
22.5322
22.4725
22.4018
22.3166
22.2086
22.6803
22.8295
22.9684
21.9348
21.8131
22.0986
21.6957
21.6858
20.8751
21.0367
20.6787
20.808
21.4243
21.525
21.6464
21.247
21.1174
21.3773
20.5636
20.4147
20.5137
20.3418
20.158
19.9821
19.6664
19.4982
19.8094
18.8914
19.1353
19.2643
18.4472
18.1614
18.1411
18.6964
25.0468
25.5135
24.9711
24.5905
24.9249
24.188
23.1432
23.5844
23.8238
23.4281
24.1374
80.4178
3.81691
13.2769
18.8125
18.3584
26.7434
26.5038
26.6614
26.0554
25.4655
30.4654
34.0194
30.6498
23.1452
26.3132
25.2883
23.847
23.1692
23.2906
23.5453
172.103
188.68
262.037
184.026
279.704
330.112
464.526
485.245
330.238
491.312
112.118
112.249
132.993
54.7863
91.6417
113
26.5072
26.5301
26.4697
651.166
663.991
616.142
728.735
25.8233
26.0906
26.4495
26.4108
26.4994
26.1478
26.2106
24.1445
23.8713
24.7602
25.2875
24.3748
23.9603
25.0575
25.7046
25.6917
25.1326
25.8945
26
25.8755
18.6626
18.5181
18.9788
19.1189
19.4676
17.7431
17.4371
17.5487
17.8029
18.1912
20.7279
20.06
21.0432
202.255
203.17
240.055
277.562
126.468
15.8688
17.0955
71.3088
22.5917
35.9982
27.5085
30.6382
21.9341
15.1775
14.8592
42.1083
43.3926
39.8262
17.2699
17.3985
270.121
117.477
74.2597
252.02
276.619
223.228
24.2312
29.2926
45.2292
12.5541
17.1965
1.73146
3.68898
6.27368
15.1239
15.6986
13.9443
15.4079
14.309
14.957
15.3395
22.5929
22.551
22.4668
22.2942
22.1847
22.7155
22.9149
23.0098
21.9732
21.8472
22.0578
21.7637
21.7495
20.9499
21.0255
20.716
20.7948
21.4387
21.5705
21.6493
21.238
21.1664
21.3997
20.6674
20.5048
20.5553
20.3561
20.1761
20.008
19.7349
19.5243
19.8335
18.908
19.1447
19.3919
18.5611
18.2917
18.1454
17.9316
18.7954
25.4321
25.3592
24.5176
24.9199
25.3184
23.1941
23.8222
24.1038
23.4988
24.3755
30.4933
8.50797
8.93998
16.6657
18.6679
18.2357
26.0083
26.1706
25.5555
23.7191
46.04
46.0538
46.0317
36.317
35.1741
29.9079
27.4302
25.238
23.2512
208.825
243.945
271.87
327.223
203.43
219.978
366.421
392.606
522.235
512.323
601.581
410.5
605.063
151.005
172.381
76.0143
117.397
96.7473
149.497
25.943
26.0149
25.7362
720.9
684.771
735.301
26.041
26.1554
25.9175
26.1743
26.1583
25.8585
26.0741
26.1408
24.361
23.712
24.337
24.9664
23.5689
23.2612
24.8302
25.8539
25.6586
24.6293
25.9636
25.9266
25.8241
26.0561
18.6824
18.4604
18.8727
19.2662
19.622
17.2814
17.0281
17.7126
17.3314
18.0613
18.3153
19.8712
21.4334
19.6296
21.2326
175.087
218.799
228.247
253.162
124.712
18.0455
18.3204
28.5441
18.1227
35.5944
29.2366
24.083
16.4316
14.6275
15.8425
42.368
43.9981
30.4671
17.1009
16.9578
291.71
191.866
84.1399
282.92
262.936
240.699
26.2866
32.1037
48.767
14.6067
71.6018
1.29541
3.51374
11.3542
15.291
15.4494
13.7374
15.2624
13.8337
14.8819
23.1627
22.6755
22.6067
22.4527
22.5798
22.3706
22.2469
22.8333
22.9253
23.109
21.9301
21.8268
22.1203
21.8103
20.9168
21.1011
20.7237
20.8451
21.5213
21.5856
21.7079
21.2894
21.1703
21.3614
21.4809
20.7036
20.5489
20.6452
20.29
20.4638
20.173
20.11
19.9255
19.755
19.6816
19.5206
19.0233
19.2781
19.4022
17.9726
17.8222
25.9381
26.4936
25.8517
24.6282
25.2888
25.6131
23.3784
23.8776
24.0713
24.3881
23.7275
79.7543
10.3209
3.91545
15.3223
18.5546
17.7561
25.127
25.6234
23.8288
23.3612
61.556
45.1228
63.8207
42.1155
36.5667
32.6987
32.0003
29.0937
25.9448
24.5006
274.87
287.073
347.478
400.829
275.792
294.873
423.319
487.234
627.263
624.584
667.351
479.041
201.884
211.948
92.7636
164.858
136.127
189.974
25.4071
25.4138
25.5112
25.038
715.062
726.861
777.315
26.1762
25.3344
25.3724
25.8638
24.9719
25.3385
25.603
25.6992
26.2671
24.5152
23.8425
24.0203
24.6649
26.325
24.372
25.11
24.6157
24.3382
25.904
25.4625
25.4898
25.9754
19.5563
17.0786
16.739
17.784
17.4326