/*--------------------------------*- C++ -*----------------------------------*\
| =========                 |                                                 |
| \\      /  F ield         | OpenFOAM: The Open Source CFD Toolbox           |
|  \\    /   O peration     | Version:  v2012                                 |
|   \\  /    A nd           | Website:  www.openfoam.com                      |
|    \\/     M anipulation  |                                                 |
\*---------------------------------------------------------------------------*/
FoamFile
{
    version     2.0;
    format      ascii;
    class       volScalarField;
    location    "0.1";
    object      p;
}
// * * * * * * * * * * * * * * * * * * * * * * * * * * * * * * * * * * * * * //

dimensions      [1 -1 -2 0 0 0 0];


internalField   nonuniform List<scalar> 
13611
(
89991
91138.8
89320.3
91359.1
91714.6
92453.3
91356.5
90092.4
93139.4
91959.1
92658.1
91280.5
91556.2
89845.2
93211.8
91999.6
93009.6
92458.4
91125.5
91635.9
90501.9
93500.2
93470.5
93210.3
93150.3
92689.8
91254.3
92133.6
90251.6
93640.5
93580.3
93473.2
93439.1
93055.7
92576.5
91570.4
91997.5
90568.1
93798.6
93811.4
93575.6
93537.5
93317.6
92907.4
91572.8
92164
90299.6
91293
93894.9
93926.3
93916.7
93816.7
93732
93423.9
93302
92899.9
91808.7
92541.2
90514.6
91218.5
94079.9
94078
94104.4
93959.8
94132.3
93838.9
93921.3
93750.9
93558.7
93345.5
91769.5
92704.6
89986
91409.5
94225.7
94172.8
94222.6
94243.9
94173.4
94060
94087
93925.6
93596.4
93857.8
93441.4
92288.5
93123.6
90792.2
91573
94414.4
94298.9
94392.3
94393.3
94299.4
94327.2
94213.7
94263.2
94179
93902.4
94023.8
93810.3
92266.8
93341.3
90566
91753.5
94424.5
94554.2
94541
94549.2
94506.4
94446.3
94506.7
94435
94442.1
94351.7
94114
94283.7
94101.4
93950.2
92648.9
93132.4
93821.9
89832.5
91375.2
91754
94511.2
94713.4
94683.2
94683.4
94586.2
94631.7
94584.4
94538.5
94408.4
94372.5
94348.7
94286.4
92574.9
93464.8
94099.1
90561.6
91762.1
92162.6
94647.4
94850.5
94748.4
94847.8
94827.6
94749.4
94711.1
94676.1
94785.2
94672.9
94630.2
94616.1
94590.5
94485.3
92839.1
93264.8
93884.8
94423.2
94117.7
90254.2
91702.3
92131.4
94899.4
94974
94882.9
94949.3
94909.6
94849.2
94911.8
94833.6
94784.5
94904.2
94844
94809.5
94701.2
94833
94835.8
94806
92504.7
93588.5
94188.9
94647.4
94503.3
90853.4
91768.6
95071.5
94982.8
95098.6
94924.8
95108.4
95031.5
95051.1
95068.6
94868.1
94795.3
95088.7
94948
94957.6
95063.4
95037.9
94961.9
92561.7
93510
94095.3
94568.1
94695.8
94868.1
91674.3
90450.1
92116.2
95129.9
95090.5
95209.6
95056.2
95220.8
95136.9
95164.5
95215.9
94978.5
94893.8
95213.3
95134.7
95113.6
95234.1
95271.4
95200.4
93071.4
93922.4
94414.6
94884.2
94978.6
95046.8
91819.7
90866.6
92428.3
95248.5
95200.7
95132.2
95329.4
95086.9
95362.1
95263.3
95362.4
95365.5
94986.5
95380.9
95260.5
95350
95438.6
95380.5
95422
95345.8
95255.6
92968.3
94027.5
94329.7
94800.5
94974.2
95164.2
95173.3
91672
92229
90231.6
95372.4
95287.1
95235.6
95422.5
95402.6
95201.2
95376
95488.4
95458.4
95433.9
95492.9
95078.5
95526.9
95482.1
95502.2
95569.7
95615.7
95647
95597.3
95446.6
93276.2
93785
94531.1
94657.8
95085.4
95342.6
95446.9
95438.3
92064.4
92433
91027.9
95500.6
95397.4
95322
95535.4
95546.6
95300.1
95195.6
95502.8
95614.3
95618.6
95593.4
95607.8
95129.7
95088
95674.3
95705.5
95756.9
95717
95732.2
95781.2
95700
95639.2
92967.1
94147.2
94822
95028.4
95413.7
95527.1
95700.7
95687.1
92063.8
90972.8
95619.9
95490.2
95459.4
95615.9
95642.9
95391.8
95267.6
95617.3
95736.6
95722.9
95705.8
95733.7
95214.3
95146
95838.4
95840.6
95865.3
95922.3
95948.1
95988.6
95911.7
95843.2
93251.9
94696.2
93934.6
95267.6
95332.3
95712.1
95856.1
95929.2
95891.6
92159.2
90378.8
91890.4
95747.9
95585.7
95525.9
95745.2
95774.9
95446.1
95492.5
95385.7
95747.4
95860.8
95906.8
95845.4
95853.5
95284.2
95242.8
95968.2
95897.5
96000.6
96040.4
96017.2
96038.3
96073.7
96075.5
95994.2
93083.2
95115.1
94229.7
95605.3
95703.4
95970.2
96020.8
96140.5
96129.9
92610
90977.3
92160.2
95859.3
95685.2
95645.6
95817.7
95770.8
95869.9
95533.8
95575.3
95381.1
95867.5
95979.2
95956.8
95979.2
95298.6
96137.1
96031.6
96146.1
96160.9
96220.8
96234.8
96271
96224.4
96198.6
93552.4
95111.3
95580.1
93986.2
94732.9
95978.1
96007.9
96264.6
96289.1
96369.3
96224
96280.9
92872.1
91924.4
90745
92554.2
106760
108692
95989.5
95720.9
95659.5
95936.3
95882.1
95992.4
95594.6
95474.2
96001.8
96099.3
96090.2
96099
95231.7
95406.9
96173.6
96236.8
96256.5
96299.1
96318.7
96322.8
96347.4
96392.3
96354.1
93395.1
95622.4
95962.1
94417.2
94855.2
96338.8
96326.5
96420.1
96411.7
96433.7
96545.6
96460.3
96501
91842.9
91184.4
92793.3
107330
106529
105617
108796
108793
96072.1
95842.1
95760.5
95974.8
96023.3
95924.1
95571.3
95723.2
95487.8
96109.4
96220.5
96206.4
96220.7
95447.8
96306.7
96386.3
96383.3
96440.3
96537.8
96496.3
96530.1
96580.6
96457.8
93745.2
95677.2
95991.3
96347.1
94325.2
95283.8
96611.5
96578.7
96643.9
96716.9
96698.6
96762.5
96589.4
96638
92010.7
90816.7
92523.3
93497.3
107611
106002
106878
105678
108423
108799
96199.8
95854.5
95801.4
96101.7
96144.6
96023.9
95665
95747.7
95576.4
96235.1
96322.8
96340.5
96346.7
95397.7
95537
96443.2
96430.6
96506.1
96479.7
96531.3
96613.4
96596
96648.3
96660.4
96584.4
96086.2
96356.5
96692.1
94712.2
95498.5
96937
96849.8
96793.6
96784.9
96906.3
96851.1
96900.2
96808.1
96840.6
91978.7
91336.8
92970.6
93769.5
107351
105838
106573
105031
105281
104528
108874
108907
96279.6
96263
95947.7
95910.5
96118.1
96183.9
96239.9
96083.5
95667.6
95839.1
96333.4
96452.4
96473.6
95371.4
95431.6
95573.6
96534.2
96548.8
96613.6
96635
96671.6
96788.4
96760.6
96817
96827
96680.4
96027.6
96424.7
96501.1
96672.9
97038.4
94652.9
95293.1
97125.4
97061.2
97051.3
97029.5
97181.4
97087.6
97115.7
96928.5
96996.4
92226.5
91256.8
93499.2
92737.8
94266.6
107623
106034
105408
106671
104721
105160
104215
108397
108877
96422.3
96385.4
95982.8
96058.6
95927
96212.3
96303.3
96320.2
96180.9
95767.4
95904.2
96448.1
96526.7
96585.7
95520.2
95674
96702.2
96614.6
96749.8
96729.6
96765.3
96962.9
96878.2
96925
96820.1
96932.6
96422.5
96833.8
96895.5
96982.5
97358.9
95216.9
95583.8
97509.4
97320.5
97239.4
97185.5
97382.2
97215.3
97228.9
97133.1
97176.9
91981.6
90792.6
93884.5
93044.4
94376.6
107636
105733
105339
106181
107216
104604
104801
104105
108732
108936
96499.6
96464.1
96402.6
96078.4
96131.7
96029.2
96307.6
96370.1
96354.1
96249.7
95764.5
95876
96001.6
96648.1
96700.8
95524.5
95575.2
95645.3
96801.8
96757.5
96828.7
96872.7
96927
97115.9
97057.1
97099
96919.5
97075.7
96456.9
96878.4
97100.5
97330.4
97644
95337.3
96077.4
97565.2
97711
97487.6
97429.2
97640.2
97443.5
97431.7
97235
97317.8
92248
91264.5
93667.8
92751
94872.3
108259
105749
105042
106054
107273
104290
104637
103578
103805
109008
96612.2
96580.4
96491
96135.3
96227.4
96117.6
96387.5
96458
96489.5
96355.8
95849.2
95952.7
96077.4
96731.5
96689
96798.7
95528.6
95718.8
96939
96964
96982
97006.4
97304.9
97167.9
97171.5
97056.5
97127.3
96966.7
97285.2
97479.2
97616.1
97913.2
95898.5
96276.1
97810.8
97995
97689.6
97565
97561
97828
97544.5
97533.8
97439.5
97476.9
97385.5
92040.3
91018.6
93878.6
93009.1
95010.4
108409
105370
104732
105042
106242
105605
107757
106775
104159
104303
103308
103714
109273
108981
96694.2
96682
96585.1
96262.3
96311.9
96212.7
96489.2
96533.6
96565.6
96431.1
95946.2
95826.5
96054.2
96195.4
96855.9
96806.9
96929
95617.7
95713
97021.6
97042.4
97014.4
97122.1
97150.8
97424.7
97346.7
97317.7
97157
97290.4
97082.6
97334.6
97679.5
97751.1
97972.5
98068.9
98118.6
96006.5
96768.4
98063.9
98128.4
97928.7
97802.5
97827.9
98078.5
97754.3
97709.2
97628.3
97573
92285.4
91413.7
93522.7
94328.8
92730.7
94753.4
95578.4
105344
104469
104741
105912
105435
107832
106788
103871
104116
103269
103465
109287
109027
96805.5
96779.6
96675.8
96295.2
96403.6
96576.6
96653.7
96667.5
96544
96038.7
95895.4
96144.1
96266.5
96956.5
96886
95607.3
95803.9
97142.9
97166.3
97122.6
97218.3
97231.1
97199.2
97598.8
97417.7
97379
97294.7
97583
97751.3
98069.7
98214.4
98294.7
98382.9
98365.3
96525.5
97075.8
98155.6
98222.3
98437.4
98128.4
97965.1
97942.1
97911.2
97822.8
97831.7
97795.2
97677.4
92074.8
91177.4
93778.5
94262.7
93037.8
95212.3
95665
105036
104494
104191
104656
105525
105994
105102
107580
108411
107116
106360
103747
103853
102815
103051
103372
109332
96909.8
96890.7
96770.6
96405.3
96487.9
96689.4
96725.4
96730.1
96610.8
96131
96008.4
95890.2
96244.7
96382.2
97067.9
96980.3
95688.2
95785.7
97222.4
97203.9
97199.1
97355.1
97365
97314.2
97715.1
97562.3
97521.7
97394.7
97891.7
97621.5
98097.7
98401.4
98487.5
98669.4
98656.1
98562.2
96547.7
96998.4
98415.2
98447.6
98597.5
98356.3
98178
98151.4
98104.5
98034.9
98027.1
97930
97855.3
92252.1
91436.6
93582.5
94601.7
92745.6
95138
96115.4
104765
104249
103967
104326
105260
105748
104880
107749
108653
106940
106285
103493
103664
102817
103114
109191
97012
96974.2
96867.9
96499.1
96442.8
96589.9
96769.7
96839.5
96850.2
96726
96214.5
96051.7
95966.3
96330.5
96414.6
97070.3
97177.8
97026.8
95675.2
95859.6
97315.5
97337.2
97321.1
97435.1
97401.4
97881.1
97693.5
97612.3
97587
97526.8
98387.7
97990
98480.9
98749.7
98865.9
99008.7
98914.5
98834.1
97026.8
97449.3
98555.8
98610.5
98856.6
98366.9
98567.4
98322.3
98153.4
98268.2
98160
98107.8
97952.4
97941
91980.4
91228.4
93922.7
94463.5
92911.7
95484.4
96260
104535
104008
103705
104188
105259
104946
105459
105936
104593
108142
107319
109057
106545
103415
102615
102960
109157
97107.5
97095.2
96958
96600.6
96542.1
96668.4
96872.9
96910.2
96915.2
96751.8
96321.3
96222.8
96149.5
95986.2
96512.7
97158.2
97267.5
97130.2
95699.4
95743.7
95949.1
95828.3
97414.3
97432.2
97404.3
97554.4
97518.7
97996
97830.2
97768.5
97718.5
97606.6
98622.7
98452.2
97922.6
98807.9
99042.5
99101.6
99285.4
99215.4
99011.8
96875.4
97452.7
98816.4
98842.9
98961
98565
98780.5
98544.4
98356.7
98336.5
98422.2
98355.8
98204.4
98109.5
98088.2
92118.5
91433.5
93843.2
94808
92550.3
93394.2
95985.7
95288.8
104293
103797
103506
103943
104968
104742
105355
105807
104388
108244
107283
108853
106341
103216
102280
102692
102373
103012
109303
97178.6
97154.2
97133.3
97048.1
96685.9
96620.7
96582.8
96952.2
97022.3
97034.5
96830.8
96397.6
96314.7
96164.5
96085.9
96551
97248.8
97370.6
95757.4
96015.7
95876.6
97521
97546.7
97528.6
97636.7
97621.6
98162.4
97959.6
97814.6
97781.1
97731.9
99114.8
98875.3
98290.9
99295.6
99396.7
99558.8
99616.9
99344.5
99436.2
99306
97073.8
97923.9
98937.6
99009.8
99238.3
98769.6
98989.8
98724.7
98586.2
98441.7
98582.8
98471.8
98377.8
98160.6
98198.3
91906.6
91143.2
94291.2
94734.8
92587.5
93389.9
96273.8
95557.4
104100
103782
103555
103267
103874
104768
104939
104510
105118
105517
105936
104380
104145
107979
106855
107604
109116
106466
103160
102518
102204
102815
109294
97284.1
97275.5
97235.1
97083.4
96788.3
96717.4
96670
97046.4
96928
97084.3
97084.7
96856.7
96394
96503.1
96329.8
96249
96085.1
96643.9
97330.3
97451.5
95845.2
95978.6
97622.8
97639.4
97590
97584.5
97765
97722.4
98255.6
98066
97939
97903
97809
99471.3
99437.8
98746.9
99248
98304
99541.9
99687.8
99791.1
99772
99636.8
99721.5
99419.8
96737.5
97541.5
98141.3
99188.9
99219.9
99336.1
98976.5
99177.4
98741.5
98936.9
98660.1
98729.5
98663.2
98428.3
98312.8
98321
92186.1
91569.4
94207.6
95220.9
92961
93734.8
96027.8
103541
103379
103109
103658
104550
104744
104399
105049
105392
105720
104135
103983
108190
106992
107408
108629
106154
102895
101838
102599
102284
101956
109387
109305
97344.6
97313.8
97266.7
97191.4
96800.9
96732.3
96722.5
97118
96979.5
97171.8
97200.4
96928
96468.5
96535.4
96436.6
96246.5
96157
96721.5
96675.4
97426
97551.6
95828.5
95905.1
95991.9
97721.5
97747
97709.1
97694.1
97835.3
97818.9
98379.7
98207
98107.7
98059.9
97979.1
97935.1
100012
99931.2
99104.5
99558.6
98761
99736.8
99949.1
100165
100049
99817
99910.5
99682.7
96994.1
97468.5
97974.6
98672
99402.9
99559.8
99172.8
99376.6
98951.9
99079.3
98768.2
98773
98934.1
98744
98569.4
98437.8
92142.5
91539.9
94481.2
95315.1
92931.8
93719.9
96327.3
103479
103385
103185
102886
103619
104455
104831
104547
104219
105157
105449
105783
104087
103779
108085
106765
107661
108828
106177
102777
101605
102440
102138
101815
109678
109602
97444.4
97423.1
97369.1
97221.4
96894.6
96822.7
96800.7
97129.4
97207.7
97065.9
97231.5
97260.1
96984.7
96509.4
96619.2
96424
96329.8
96198.9
96821.2
96776
97499.3
97635.7
95898.5
96082.5
97811
97827.3
97780.2
97757.6
97714.3
97956
97916.5
98460.7
98457.4
98296.8
98239.6
98149.5
98103.7
98009
100147
100347
99487.1
100341
98857.6
100040
100355
100429
100291
100112
100263
99904
99725
96838.1
97801.1
98487.4
98969.4
99623.5
99685.5
99370.2
99533.2
99086.9
99300.2
98952.3
98967.4
99067.3
98922.1
98692.6
98567.3
92504.5
91158.5
92103.9
94917.5
94140.2
95781.7
93341
96194.4
103271
103186
103060
102765
103424
104225
104733
104411
104134
105049
105232
105535
103911
103698
108396
106404
106782
107520
105884
102540
101125
101476
102217
101915
101590
110072
108643
97507.4
97509.4
97508.9
97442.7
97397
97331.3
96898.1
96978.8
96866.2
97212.2
97292.6
97064.4
97325.3
97336.7
96592.6
96654.5
96485.9
96286.5
96176
96886.7
96788.1
97614.4
95992.6
95942.6
96069.7
97911.7
97936.6
97875.7
97879.1
97802.9
97994.2
98422
98575.9
98592.6
98322.2
98273.8
98193.3
98138.5
100753
100263
100429
99517
100350
99285.5
100639
100878
100934
100578
100329
100502
100136
99929.4
97150.2
98354.8
97619.7
98851.7
99507.9
99797.3
99906.1
99535.5
99427.9
99734.4
99256
99047.1
99061.7
99269.6
98938.1
99047.9
98815.7
98690
92500.3
91474.4
92294
95070.5
94208.4
95865.6
93337.6
96559.6
103128
103193
102872
102562
103273
103414
104115
104524
104842
104209
103937
105167
105274
105619
103761
103517
108349
106246
106427
107083
107935
105974
102439
100946
101272
102089
101793
101471
108994
108698
97609.7
97606.3
97599.3
97534
97485.8
96971
97067.3
96955
97211.5
97292
97374.2
97134.3
97386.3
97384.3
96654
96727.2
96434
96588.2
96342.3
96226.3
96962.7
96840.1
97673.2
95994.8
96146.9
97997.6
97954.9
97935.9
97898.7
97829.4
98089.8
98506.4
98672.4
98698.8
98458.4
98365.6
98321.7
98180.7
100641
100698
101538
100025
100584
100712
100404
101040
100631
100478
100725
100644
100413
100642
100134
97001.3
98671.3
97896.5
99319.7
99718.4
100034
100099
99713
99640.3
99839.3
99371.3
99235.2
99226.1
99355.4
99068
99196.4
98810.7
92935.5
92077.4
91229.2
92783.4
94684.3
95548
93774.3
96353
102931
102981
102787
102442
103152
103249
103935
104443
104732
104094
103805
104900
105096
105424
103608
103463
106237
106893
107932
105804
102252
100968
101171
101890
102113
101576
101237
108957
109048
108271
97676.6
97676.9
97610.8
97556
97524.2
97054.1
97148.2
97026
97279.1
97369.7
97461.5
97479.8
97485.6
96651.8
96755.9
96776.4
96472.7
96608.5
96309.3
96221.2
97007.6
96908.4
97767.7
95956.1
96094
96158.3
98083
98037.8
98012.8
97986.2
97929.3
98125.2
98633.8
98806.3
98826.1
98543.7
98497.3
98418.5
98281.3
101190
101777
100419
100981
101644
100965
100904
101044
101360
101206
100739
100578
101084
100329
97357.7
99153.5
98373.9
97786.4
99599.5
100036
100155
100319
99782.6
99730.3
100029
99601
99298.8
99346.2
99541.1
99071.4
99197.4
99337.8
98938.5
92271.8
91574.2
93022.6
94708.7
95764
93834.8
96510.6
102867
102899
102616
102229
102478
102998
103198
103819
103857
104276
104544
104750
103908
104131
103621
104870
105063
105177
105528
103310
105887
106419
107096
107549
100619
100793
101788
101916
101483
101112
109209
109193
108249
97778.8
97765.6
97699.9
97646.1
97615.7
97115.6
97230.8
97100.7
97358.6
97296.1
97459.5
97524.8
97529.2
96719.7
96822.4
96576.3
96400
96680.1
96353
96322.9
96989.7
97103
96948.6
97816.5
95997.2
96133.7
96253.1
98160
98133.3
98082
97998
98085.2
97964.1
98239.6
98720.2
98900.8
98941.7
98674.7
98585.6
98541.5
98389.3
98304.2
102353
101323
100283
100803
101153
101343
102242
101279
102179
101431
101266
101716
100716
100708
100543
101272
97316
99381.6
98529.4
98194.6
100073
100599
100386
100523
99992.8
99996.2
100110
99707
99471.7
99487.3
99680.9
99584.2
99196.9
99333
99482.4
92731.4
92088.8
91302.3
93497.8
94269.3
95100.9
95561
96235.6
96949.9
102677
102735
102568
102090
102324
102925
103031
103659
103686
104296
104455
104557
103775
103985
103483
104703
104823
105024
105361
103251
105654
106181
106891
107557
100448
100775
101619
101858
101310
100926
101172
109168
108650
107888
97825.7
97778.4
97713.8
97674.3
97651.4
97218.1
97269.3
97161
97418.8
97370.6
97541.4
97605.4
97608.2
96798.7
96741.1
96915.4
96584.5
96466
96695.3
96324.9
97045.4
97158.5
97174.6
97017.6
97911
96117.9
96262.6
98252
98186.4
98161.6
98121.5
98089.9
98146.5
98050.1
98849.6
99045.9
99057.5
98763.2
98721.4
98624.1
98462.1
98399.8
102166
102296
100617
101393
102133
101933
101833
102331
102339
101289
101416
100984
101128
101220
100704
101912
101419
97709.2
98988.1
99578
98138.5
100070
101025
100589
100439
100122
100073
100289
99934.3
99624.4
99848
99746.7
99185.1
99325.5
99473.3
99623.6
92840.5
92415
91609.6
93756.9
94219.6
94986.9
95901.8
96506.2
96957.2
102620
102665
102390
101927
102147
102754
102979
103517
103577
104184
104469
103605
103819
104029
103324
104692
104537
104741
104816
105119
105400
103087
105609
106215
105792
107210
106501
100372
100579
101566
101681
101271
100862
101007
109236
109183
108746
107985
97909.5
97868.5
97786.1
97764.5
97733.6
97227.3
97358.5
97505.1
97407.6
97611.8
97662.6
97656.8
96853.5
96819.2
96966.9
96647.4
96508.4
96750.2
96359
97142.4
97239.2
97228.8
97084.6
97961.3
96115.4
96263.1
98347.4
98299.5
98237.8
98221.8
98109.1
98236.4
98100.1
98935
99116
99111.5
98890.4
98803.1
98757
98641.1
98570.9
98427.6
101864
102597
101054
101962
102063
102296
102157
101488
101840
101945
102809
100961
101297
101487
101164
100993
101673
101121
97799.6
99122.4
100109
99840.2
98472.8
100667
100839
100853
100644
100305
100297
100367
99990.6
99760.9
99875.2
99297.2
99450.8
99611.6
99764.4
93228.2
92442.2
91266
92147.2
93654.1
94532.9
95310.2
95765.8
96369.8
97281.5
102466
102481
102303
101788
102042
102676
102848
103396
103429
104170
104265
103481
103713
103928
103218
104507
104403
104555
104667
105014
105192
103027
105298
105870
105657
107068
106377
100168
100421
100574
101397
101632
101101
100719
100980
109401
109302
108317
107635
97954.4
97860
97942
97814
97787.5
97778.3
97293.4
97407.4
97548.8
97499.7
97661.8
97654.8
97763.7
97746.7
96929.1
96852.6
97058.3
96692.9
96610.3
96455.6
96786.2
96388.7
97145.3
97304.6
97302.1
98062.9
96343.7
96131.1
98374.5
98311.4
98271.3
98279.8
98195.4
98281.6
98174.3
99059.6
99275.4
99247.1
98983.4
98932.6
98828
98754.7
98604.2
98530.3
102545
101792
101372
102234
102483
102495
102128
101671
101955
103072
101321
101909
101125
101328
100947
101599
101567
98251.1
97656.1
98834.1
100867
100188
101528
101852
101062
100838
100575
100432
100317
100475
100144
99910.3
100045
99424.7
99592.3
99756.5
99911.3
93216.7
92859.2
91676
92420.1
94000.8
94429.6
95164.2
96111.5
96715
97180.4
102341
102384
102133
101772
101883
102737
102527
102878
103252
103303
104009
104183
103320
103482
103792
103570
103078
104445
104247
104500
104656
104817
105128
105209
105778
105387
106633
107223
106010
100045
100253
100451
101350
101483
101063
100701
100816
109531
108759
108379
107756
98052.8
97914.9
98010.7
97877.4
97874.9
97856.2
97380.1
97499.7
97640.4
97538.1
97711.2
97690.6
97824.3
97794.6
96983.3
96907.4
97127.3
96747.7
96639.7
96437.5
96904.2
96330.1
97212.6
97389.5
97383
97354.2
98105.7
96259.2
96178.4
98462.8
98394.7
98357.6
98367.8
98266.9
98373.7
98230.8
99148.9
99345.1
99282.6
99112.7
98997.1
98936.5
98773.5
98694.1
98540.7
103028
102638
102039
102473
102648
102847
103078
102626
102130
101895
101688
102262
101892
101755
101146
101241
102703
102912
102296
98318.7
97996.8
99037.8
100770
100969
99766.2
100495
101693
102085
101418
101118
100597
100458
100757
100181
100062
99539.6
99718.6
99890.7
100055
93548.4
92823.3
91607.8
92297.6
93928.5
94726.7
95411.1
96589
95907.2
97564.2
102182
102230
102423
102061
101591
101821
102634
102499
102801
103150
103167
103945
104028
103204
103336
103716
103505
102985
104271
104140
104345
104453
104779
104911
104954
105444
105259
106547
106902
105887
100072
100290
100530
101192
101454
100897
100766
109622
109373
108917
108146
107454
98075.7
97995.7
98039.1
97927.6
97937.2
97906.9
97424.8
97545.2
97669.5
97626.6
97789
97786.4
97904.8
97873.1
96970.8
97103.9
97210.5
96744.3
96652.8
96524.8
96993.2
96263.2
97320.6
97244.2
97445.4
97421.1
98200.7
96351.7
96273.9
96028.7
98514.8
98488.3
98400.5
98432
98340.1
98396.3
98438.7
98323.8
98254.8
99487.8
99378.3
99199.6
99104.1
99000.4
98871.7
98758.9
98620.4
103068
102754
102767
102772
102945
103082
103399
102710
102828
102720
102607
102956
101672
101489
101177
102076
102282
101409
98736.3
97981.1
99361.2
101270
101485
100339
100640
101961
102199
101130
100861
100735
100360
100635
100856
100758
100219
99691.5
99867.5
100045
100217
93553.6
93174.7
91242.8
92139.6
92663.3
94237.5
94614.6
95043.4
96935.3
96203.1
97449.6
102138
102152
102275
101924
101565
101680
102668
102384
102848
103024
103036
103788
103991
103230
103089
103352
103570
104143
104230
104270
104294
104446
104593
104791
104879
104784
105321
104999
106186
107005
105527
99923.2
100172
100473
101160
101290
100873
100588
109322
109521
108647
108334
107390
98154.2
97999.3
98111.9
98014.9
97984
97500.9
97631.3
97750.8
97668.3
97828.7
97809.1
97957.1
97924.8
96978.2
97119.5
97265.1
96908.4
96678
96798.4
96520.2
97031.1
96417.7
97343.6
97271.9
97531.4
97467.5
98217.7
96396.5
96198.7
96280.5
98594.8
98546
98498.1
98509.7
98453.5
98527.1
98364.7
98319.4
99595.9
99333
99505.4
99185.3
99171.2
98971.1
99124.1
98845.8
98724.8
103222
102915
103041
102963
103119
103279
103375
103575
102918
102206
102688
102591
102541
101348
101872
101987
102209
101743
102113
101906
98927.1
98481.9
99756.2
101342
101772
100507
101097
102540
102929
102503
101818
101337
100386
100773
101139
100972
99806.3
99985
100170
100359
93991.7
93120.6
91301.4
92088.7
92574.1
95107.4
96949.8
96003.3
96699.7
97730.5
101958
102010
102262
101863
101445
101639
102585
102380
102768
102940
103008
103707
103862
103115
103035
103270
103486
103996
104086
104093
104147
104286
104593
104664
104583
104980
104850
106022
106801
105361
99741.8
99906.5
100001
100280
101012
101247
100751
100521
109627
109340
108836
108133
107662
107046
98166.8
98052.7
98148.6
98068.2
98028.7
98028.3
97559
97670.9
97781.5
97746.5
97900.9
97897.3
97957.5
98043.8
98007.9
97172.7
97018.7
97278.8
96813.3
96735.6
96763.3
96585.9
97059.5
96493.4
96477.4
97420.5
97339.2
97587.1
97575.6
98297.9
95919
96441.3
98662.4
98627.6
98583.2
98505.5
98522.4
98593.9
98440.1
98364.7
99768.9
99591.3
99415.8
99591.4
99274.8
99260.2
99033.9
99178.6
98908.9
98752.3
103232
103569
103113
103180
103507
103550
103758
103662
103784
103006
102677
101998
102809
102832
102122
101928
101322
102891
102046
102235
102246
101915
99277.8
98590.9
100172
101886
102032
100964
101411
102713
103267
103027
101511
101287
100540
101015
100696
100992
101068
99957.1
100146
100334
100523
94010.8
93514.8
91631.2
92401.9
92959.1
95557.8
94774.7
97426.3
96356.5
97027.5
98226.3
101898
101965
102142
101710
101495
101321
102463
102640
102261
102816
102879
103736
103559
103864
103072
102914
103344
103147
103987
104024
104015
104143
104283
104439
104571
104541
104431
104902
104799
104630
105568
106142
106453
105059
99620.7
99704
99897.2
100211
100990
101086
100605
100826
100343
109556
108814
108407
107670
106842
98245.1
98127.1
98225.9
98123.7
98101.5
98089.5
97640
97748
97835.7
97791.4
97962.9
97902.3
97953.9
98030.1
98071.1
98065.2
97252.6
96980.2
97257.5
96835
96767.9
96744.1
96525.5
97004.5
96594
96494.3
97501.4
97451.4
97676.3
97605.8
98366.5
98306.6
96099.1
96831.6
96226.6
98680.8
98665
98652.9
98559.9
98507.1
98668
98434.3
99872.3
99724.3
99548.1
99378.3
99706.4
99343
99003.9
99131
99295.5
98945
98824.7
103484
103837
103401
103370
103779
103866
103890
104081
103030
102747
102486
102780
102934
101900
102442
101779
102231
102657
102568
102110
99408.3
98978.5
100159
101693
102221
102754
100758
101184
103152
103612
101729
100968
100913
100817
101538
101384
100076
100268
100465
100722
94349.9
93439.4
91640.8
92199.7
92856.4
95445.2
95022
97443.4
96892.1
96210.6
98366.2
101771
101823
102022
102154
101633
101419
101235
102398
102554
102273
102727
102784
103615
103502
103754
102948
103092
102844
103278
103097
103862
103879
103884
103999
104134
104368
104373
104274
104617
104544
104468
105501
105812
106464
104862
99463.8
99626.6
99949.4
99711
100062
101032
100493
100782
100274
109527
109135
108096
107329
106926
98161.3
98268.9
98169.9
98164.3
98145.6
97701.3
97809.1
97900.4
97873.2
98027.2
97925.8
98018.9
98149.4
98130.4
97209.7
97198.4
97097.9
97383.2
97075.7
96785.2
96727.9
96847.6
97005.2
96432
97503.8
97606.3
97398.7
97716.2
97731.7
97636
98448.8
98377.3
96374.3
96642.2
96283.6
98770.6
98748.7
98718.7
98625.6
98565.1
98688.2
98729.7
98488.4
100032
99847.6
99593
99420.9
99798.9
99367.7
99060.7
99172.9
99327.9
98914.7
99021.7
98830.1
103746
104156
103567
103517
103369
104207
104266
104189
104281
103190
102859
102639
102870
103109
102048
102075
102439
101786
102257
102565
102517
102603
102355
99931.7
99222.8
102037
102513
103008
100894
101680
103450
103943
101221
101217
100804
101345
101649
101259
100234
100419
100611
94286.6
93851.4
91323.9
92404.1
93221.1
95736.6
94731.2
97925
97219
96469.4
98787.2
101675
101743
101790
101923
102050
101472
101289
101114
102435
102589
102189
102731
102701
103583
103384
103767
103644
102969
102864
102729
103161
103296
102974
103778
103819
103786
103853
103998
104134
104293
104309
104261
104607
104389
104370
105213
105815
106168
104765
99362.3
99108.6
99449.1
99828.9
99614.8
100043
100897
100537
100336
100661
100126
109665
109000
108155
107352
106565
98233.1
98343.2
98234.9
98223.4
98213.4
97782.9
97877.9
97916.7
98088.8
97965
98046
98089
98160.7
98204.1
98195.2
97436.1
97234.5
97221.3
97334.4
97061.8
96920.7
96575.4
96893.1
97043.7
96540.4
97527.8
97688.8
97504.2
97799.6
97787
97648.9
98449.7
98505.6
98391.6
96523.8
96303.8
96404
96345.7
98792.3
98775.2
98658.3
98631.3
98553.7
98767.2
98804.5
100099
99951.7
99705
99519.4
99806.2
99921
99498.2
99139.2
99267.7
99411.5
98951.6
99070.2
98899.9
103944
104373
103841
103749
103563
104383
104461
104654
104496
104673
103227
102945
103086
102588
101989
102372
101957
102347
102759
102687
102406
102658
100217
99602.5
102156
102570
103115
103485
101387
100533
101606
103838
104357
101840
101086
101082
101529
101713
101631
100343
100590
100840
93747.1
91639.8
92150.7
92871.9
93216
95719.4
94854.8
98057.1
96923
97742.6
96186.6
98955.8
101572
101612
101705
101946
102065
101398
101186
101070
102350
102501
102223
102609
102595
103442
103354
103675
103593
102913
102766
102665
103115
103201
102913
103653
103687
103676
103730
103889
103990
104143
104150
104116
104374
104166
104103
104883
105177
105445
106177
104436
99197.6
99366.3
99902.9
99685.3
99450.9
100874
100423
100239
100664
100041
109693
108488
109455
107730
107010
106600
98376.4
98289.9
98284.3
98268.3
97809.6
97908.5
97934.6
97990.6
98097.8
98141.4
98214.5
98258.1
98266.2
97562.1
97262.3
97321.8
97252.5
97595.7
97358.3
97115.8
97015.9
96920
96464.2
97046.1
97021.3
96625.7
97642.8
97659.9
97887.5
97763.1
97926.8
97738.4
98515.2
98581.8
98462.9
96513.4
96480.5
96382.5
98862.7
98856
98744.7
98672.7
98609.5
98787.1
98818.6
98867.4
100064
100235
99727.5
99567.2
99930.3
100020
99504.9
99190.4
99263.6
99449.4
99032.9
99086.8
99164.2
98914.4
104251
104674
103943
103760
103565
104820
104892
104726
104974
104772
104857
103411
103071
102905
103162
102638
102119
101990
102578
101926
102722
102685
102531
102519
99859.6
99814.9
102383
102990
103403
103899
101044
100598
102016
104283
104739
101969
101178
100848
101305
101513
101307
100341
100466
100689
94023.5
91381.4
92493
92913.5
93685.4
95368.9
94492.9
98557.6
97102.3
97915.5
96347.3
99340.2
101466
101540
101742
101606
101853
101974
101287
101185
100961
102395
102524
102131
102499
103414
103233
103629
103502
102796
102741
102580
103027
103170
102942
102808
103549
103596
103577
103781
103590
103851
103864
103997
104018
104011
104044
104163
103958
103925
105463
105833
99120.5
98853.4
99202.4
99884.5
99590.6
99370.7
100768
100454
100298
100090
100560
109841
108360
109238
107906
106891
106244
98434.3
98356.1
98340.1
98331.1
97946.5
98006.6
98013.3
98082.6
98150.8
98205.9
98272.5
98301.2
98324.7
98323.6
97437.9
97347.7
97169.7
97263.8
97437.3
97533.2
97123.1
96994.8
96926.6
96757.2
96940.4
97108.6
97666.5
97671.7
97931.2
97725.1
97866.4
97833.7
98515.3
98579.4
98608.6
98474.6
96604.3
96544.2
96411.6
98898.3
98770.7
98742.7
98660.6
98862.1
98891.3
98935.2
100181
100261
99662.9
99821.9
99933.7
100010
100158
99563.5
99328
99415.8
99526.8
99049.4
99163
99205.7
98993.6
103717
105074
105088
105133
105403
105144
103471
103103
102914
103305
102476
102319
102055
102494
102547
102773
102825
102614
100477
100355
103012
102568
103465
103828
104269
101469
101831
104729
102071
101068
101167
101404
101694
101653
100528
100634
100788
91617.1
92477.6
93284.6
93714.1
95522.5
94694
98767.1
96826.6
97590.1
98395.7
96034.9
99556.7
101395
101540
101421
101657
101557
101869
101972
101277
101062
100907
102345
102433
102159
102020
102419
102461
103316
103191
103511
102749
102632
102507
102577
103059
102855
102757
103430
103499
103553
103741
103504
103745
103865
103865
103853
103865
105864
98953.8
99132.3
99785.7
99634.6
99438.6
99233
100772
100349
100234
99998.6
100561
109816
108592
109546
107677
107162
106401
98469.3
98407.3
98404.7
98380
97947.9
98022.1
98103.3
98172.9
98183.6
98248.1
98333.5
98361.3
98383.5
98374.9
97263.5
97588
97273.2
97363.2
97752.2
97691.1
97147.1
97052.9
96881.1
97028.7
96864.9
97119
97597.7
97990
97759.8
97971.7
97811.4
98578.3
98636.8
98683.9
98533.8
96657.8
96570
96435.6
98972.3
98835.9
98759.1
98714.1
98910.6
98880.3
98940.3
98996.6
100333
99737.2
99818.4
100009
100099
100227
99646.6
99295.3
99487.5
99591.2
99101
99207.6
103665
105519
105519
105475
105706
103418
103016
103222
102868
103328
103119
102484
102323
102460
102701
102850
102658
100607
100349
103268
102924
103862
104086
104687
101569
102164
105078
101998
101652
101370
100772
101799
102005
101823
101717
100631
100689