/*--------------------------------*- C++ -*----------------------------------*\
| =========                 |                                                 |
| \\      /  F ield         | OpenFOAM: The Open Source CFD Toolbox           |
|  \\    /   O peration     | Version:  v2012                                 |
|   \\  /    A nd           | Website:  www.openfoam.com                      |
|    \\/     M anipulation  |                                                 |
\*---------------------------------------------------------------------------*/
FoamFile
{
    version     2.0;
    format      ascii;
    class       volScalarField;
    location    "0.1";
    object      p_rgh;
}
// * * * * * * * * * * * * * * * * * * * * * * * * * * * * * * * * * * * * * //

dimensions      [1 -1 -2 0 0 0 0];


internalField   nonuniform List<scalar> 
13611
(
99222.7
99813.3
98870.3
99758
99648
99522.3
99912.7
99443.5
99261
99572
99478.7
100195
99597.2
99442.2
99300.3
99635
99422.2
99618.8
99995.8
99660.6
99808.8
99143.3
99211.1
99348.8
99450.8
99632.7
99749.9
99772.9
99757.4
99049.2
99198.1
99290
99389.3
99546.5
99729.7
99950.4
99845.7
99886
99023
99149.1
99316.2
99442.8
99545.7
99713.5
100110
99893.5
99907.7
100194
99067.6
98937.9
99171.3
99275.3
99423.2
99595.7
99660.3
99797.2
99943.8
99854.8
99886.7
100174
98987.6
98910.1
99130.2
99310.8
98756
99488.2
99377.1
99557.8
99685.6
99819.6
99927.9
99986.8
99546
100024
98986.7
98831.6
99189.7
99067.2
99261.7
99459.9
99380.8
99587.1
99747.8
99652.7
99887.8
100010
99961.8
100003
100254
98906.8
98795.7
99145.3
99056.7
99280.7
98678.8
99484.8
99345.2
99554.1
99762.3
99688.4
99897.6
100043
100017
99754.8
100033
98827.7
98905.6
99185.1
99009.3
99257.7
98639.9
98558.3
99451.9
99375.9
99581.2
99807
99687.2
99867.1
99966
100070
100061
100035
99371
100079
100078
98709
98845.6
99141.6
99047.3
99303.8
98516.8
99479.9
99542.7
99641.9
99758.6
99889.2
99968.1
100166
100152
100089
99845.5
100281
100153
98686
98880
98752.5
99173.2
99014.5
99316.8
98579
98417.2
99464.1
99580.8
99651.8
99781.3
99884.8
100015
100208
100222
100169
100063
100138
99795.7
100452
100225
98959.5
98824.1
98688
99236.2
99072.2
99404.6
99288.6
98530.7
98367.3
99513.8
99573.9
99690.8
99845
99745.8
99958.5
100023
100223
100295
100256
100105
100188
100156
100288
98953.9
98736.4
98869.9
98593.3
99201.3
99058.4
99404.5
99325.3
98424.1
98254.4
99511
99633.4
99864
99769
99935.5
100060
100251
100351
100314
100264
100167
100096
100489
100007
100178
99003.3
98690.7
98830.7
98548.5
99235.2
99132.5
99454.1
99304.2
98375.7
98196.7
99575.5
99639.8
99834.3
99737.8
99971.4
100076
100334
100410
100367
100319
100206
100151
100421
100154
100316
99008.6
98747.3
98607.7
98858.5
98449
99215.6
99101.6
99467.3
99350.9
98254.5
99575.2
99690.9
99867.1
99774
100027
99927.1
100061
100157
100382
100455
100416
100387
100375
100306
100259
100491
100360
99757.9
98987
98690
98587
98799.8
98927.4
98397
99150.7
99259.7
99527.9
99419.7
99322.2
98216.9
99639.6
99688
99836
99729.6
100038
99954.2
100122
100208
100452
100476
100517
100476
100465
100426
100360
100260
100499
100428
100214
99042.7
98723.1
98539.6
98824.8
98908.4
98439.2
98296.9
99126.8
99238.6
99541.3
99423.1
99358
98147.5
98061.4
99619.6
99864.8
99751.5
100091
100011
99926
100176
100206
100480
100555
100575
100506
100490
100416
100369
100321
100627
100171
99022.7
98668.1
98580.5
98787.4
98955.3
98386.6
98243.9
99173.1
99283.9
99519
99465.1
99349
98142.2
97970.8
99654.8
99836.2
99729.4
100122
100039
99957.1
100199
100264
100515
100607
100577
100610
100568
100548
100478
100425
100318
100453
99917.3
100550
99087.3
98697.3
98524.4
98825.7
98950.4
98331.7
98443.1
98265.4
99157.9
99270.7
99559.4
99454.6
99398.1
98091.3
97991.2
99618.5
99704.7
99861
99766.3
100178
100099
100017
99923.3
100253
100518
100677
100639
100674
100601
100560
100536
100439
100366
100464
100317
100689
99073
98672.2
98548.9
98893.7
98738
99010.2
98311.1
98402.2
98142.8
99209.1
99320.7
99501.9
99387.5
97924.4
99638.5
99700.7
99857.3
99813
100214
100131
100051
99944.2
100295
100603
100709
100710
100632
100689
100707
100672
100631
100562
100510
100417
100348
100587
100794
100342
100578
99503.1
99402.9
99129.6
98616
98453.5
98887.9
98745.8
99010.5
98264.4
98119.3
99198.6
99311.7
99503.5
99440
97796
97959
99703
99607.2
99894
99804.4
100275
100190
100111
100039
99996
100642
100790
100780
100716
100749
100782
100702
100618
100687
100557
100508
100453
100386
100723
100535
100592
99565
99502.9
99275.4
100013
99247.5
99089.6
98610.3
98449.3
98827.6
98952.3
98680.9
98180.1
98305.6
98041.4
99245.5
99370.5
99551
99432.4
97891.8
99746.1
99637.4
99906.2
99850.7
100314
100221
100147
100079
99971.9
100712
100833
100812
100818
100748
100807
100801
100765
100656
100727
100607
100553
100444
100372
100573
100366
100568
100707
99596.3
99405.3
99614.5
99314.9
99895.9
99507.5
99121.4
98525.7
98388.6
98834.9
98957.6
98687.6
98143.8
98214.6
98006
99242.3
99360.8
99539.5
99485.1
97806.7
97910
99753.7
99584.1
99690
99896.6
99822.8
100285
100204
100133
100056
100001
100888
100874
100883
100792
100840
100869
100799
100710
100657
100780
100605
100548
100489
100410
100708
100583
100693
100745
99607.4
99412.2
99614.2
99162.2
99252.8
99018.3
100094
99364.4
99196.3
99080.7
98515.3
98387.1
98769.3
98900
99019.3
98650.2
98058.7
98222.9
99305
99417
99476.9
97649
97741
97856.1
99736.4
99595.1
99663.1
99934.3
99856.8
100306
100244
100174
100087
99987.9
100909
100916
100913
100907
100919
100793
100838
100918
100858
100752
100706
100824
100655
100594
100476
100411
100676
100490
100741
100699
100760
99609.2
99483.5
99346.4
99680.3
99094.8
99262.7
98931.3
99860.3
99626.5
99212.2
99112.6
98457.4
98587.3
98315.7
98761.9
98905.5
99001.2
98680.7
98035
98183.5
99314.1
99386
99515.1
97774.3
97872.1
99773.8
99570.4
99696.2
99916.2
99839
100361
100242
100166
100029
100131
100974
100992
100971
100966
100988
100879
100899
100985
100899
100803
100712
100882
100650
100584
100524
100457
100688
100329
100792
100741
100831
99736.3
99476.3
99370.9
99636.8
99782.5
99106
99191.6
98939.7
99975
99431.8
99274.4
99168.6
99060
98466
98549.9
98318.3
98803.1
98970.8
98865.1
98652.7
97945.4
98099.7
98223.7
99412.3
99509.6
97646
97728.2
97758.2
99752
99609.2
99667.8
99955.8
99883.9
100354
100295
100224
100016
100138
100983
101017
101015
101018
101032
100910
100951
100962
101034
100839
100764
100925
100703
100631
100514
100467
100749
100550
100792
100730
100883
99874.4
99530.3
99343.5
99677.4
99853.9
99026.9
99199.9
98736.8
98854.9
99711.8
99293
99174.9
99064
98432.6
98586.8
98370.4
98774.9
98985.6
98890.1
98700.5
97917.5
98055.8
98202.3
99470.7
99365.9
99566.7
97563
97739.2
99788.8
99694.7
99946.8
99860.8
100402
100283
100197
100056
100113
101049
101068
101075
101077
101094
100960
100986
100995
101066
100906
100821
100762
100979
100692
100620
100570
100538
100457
100817
100564
100825
100765
100898
100003
99503.2
99268.9
99407.1
99740.8
99626.6
99849.9
99828.6
99035.1
99115.2
98676.7
98876.4
99685.6
100159
99275.4
99223.5
99118
98480.5
98561.5
98351.3
98820.5
98977.2
98941.7
98676.8
97980.6
97819.5
98115.7
98273.2
99480.9
99382.6
99590
97571.2
97655.9
99773.3
99746.2
99650.7
99990.8
99901.4
100387
100326
100229
100047
100149
101076
101087
101113
101124
101128
101132
101120
100982
101042
101061
101077
100946
100866
100826
101022
100736
100658
100561
100497
100814
100717
100818
100852
100761
100877
100942
99550
99246.2
99369.3
99783.8
99657.8
99885.4
99908.1
98957.2
99104.1
98708.9
98807.3
99974.5
100188
99320
99205.1
99108.5
98416.7
98597.9
98808.8
99042.6
98947.6
98733.3
97958.3
97797.9
98100.6
98248.9
99544.1
99434.9
97476.4
97645.4
99820.3
99756.7
99665.9
99983.8
99950.8
99870.9
100429
100294
100200
100101
101134
101145
101174
101195
101194
101193
101170
101035
101081
101091
101071
101172
101007
100926
100882
100803
100719
100666
100620
100495
100871
100732
100851
100881
100811
100929
100963
99525.3
99299.9
99169.3
99411.9
99722.9
99846.4
99595.2
99990.7
99948.9
99968.3
99905.1
98958.3
99029.4
98539.1
98665.4
98829.3
99811.4
99320.7
99252.3
99148.9
98437.3
98581.7
98856.3
99022.4
98922.3
98713.6
98014.4
97871.4
97718.8
98169.2
98304
99552.8
99441.2
97473.1
97553.5
99806.8
99728.2
99652.8
100043
99970.6
99891.2
100424
100320
100228
100102
101174
101150
101193
101217
101241
101259
101250
101202
101037
101071
101136
101114
101211
101050
100970
100926
100839
100777
100732
100628
100551
100832
100773
100859
100908
100801
100943
101005
99477.7
99279.5
99149.4
99341.2
99738.7
99866.3
99605.6
100100
100183
100031
99964
98896.1
99018.9
98573.7
98738.6
99917.3
99370.1
99239.4
99136.9
98521.5
98377.8
98648.7
98828.6
99070.9
98961.6
98763.6
97998.3
97823.8
97717.4
98159.6
98239.6
99504.6
99605.1
99417.3
97392.4
97533.6
99838.9
99756.1
99695.4
100028
99943.2
100475
100381
100290
100205
100149
101247
101182
101239
101261
101285
101322
101295
101267
101073
101108
101156
101138
101251
101030
101109
100949
100825
100897
100745
100696
100609
100534
100849
100807
100876
100900
100833
100969
101013
99476.2
99214.6
99075.8
99356
99802.2
99681.5
99850.1
99951.3
99543.4
100127
100115
100248
100038
98913.5
98547.3
98730.2
99607.8
99367.2
99289.6
99177.8
98524.5
98392.8
98642
98863.7
99044.1
98933.3
98711.2
98082.7
97931.2
97856.3
97662.4
98261.5
99504.3
99589.2
99451.8
97288.9
97383.5
97589.1
97442
99847
99806.1
99688.2
100067
99959.5
100479
100382
100325
100238
100129
101244
101224
101177
101270
101322
101339
101364
101359
101298
101067
101106
101219
101197
101263
101068
101148
101028
100936
100858
100915
100808
100698
100641
100578
100820
100781
100895
100924
100828
100878
100992
100953
99430.3
99207.1
99058.1
99326.8
99814.6
99687.9
99913.6
100009
99543.8
100153
100175
100278
100104
98875.7
98389.4
98626.5
98463.2
98795.6
100061
99426.9
99344.7
99245.6
99177.6
98596.1
98469.8
98344.2
98845.6
99080.7
98978.9
98722.9
98077.6
97934.5
97783.3
97695
98213.3
99539.8
99628.3
97265.5
97555.2
97412.5
99906.2
99817.1
99735.6
100055
100011
100545
100422
100301
100222
100172
101333
101326
101207
101362
101385
101440
101445
101384
101408
101369
101083
101129
101234
101230
101326
101128
101207
101060
100997
100861
100962
100808
100752
100628
100589
100845
100708
100904
100928
100838
100885
101016
100972
99441.1
99264.8
99122.8
98993.5
99363.4
99761.1
99863.3
99655.5
99905.2
99989.1
100071
99601.8
99495.6
100163
100186
100206
100384
100166
98920.7
98608.5
98446.8
98763.2
99974.4
99461.6
99368.3
99269.7
99145.3
98611.6
98486.4
98367.9
98887.6
98787.7
99046.6
98949.6
98676.2
98007.7
98145.5
97874.1
97793.8
97610.8
98235
99526.1
99619.7
97325.7
97474.4
99915
99875.4
99790.5
99708.5
100106
100012
100543
100426
100323
100263
100161
101438
101406
101280
101298
101176
101367
101460
101497
101465
101441
101461
101377
101043
101104
101141
101300
101289
101340
101170
101247
101052
101127
100925
100990
100862
100733
100672
100634
100847
100799
100907
100956
100867
100885
100998
99233.9
99109.3
98987.2
99346.1
99764.1
99879.1
99690.4
99969.6
100039
100130
99580.4
99498.3
100187
100270
100256
100195
100227
98832.9
98244.1
98689.2
98523.5
98348.1
99759.8
100432
99435.6
99332.6
99233.2
99168
98557.8
98439.4
98341.7
98878
98761.7
99074.6
98991.5
98690
98011.4
98093.1
97892.5
97722.2
97623.3
98298.2
98194.1
99563
99662.9
97160.2
97316.3
97411.3
99969.8
99893.4
99812.4
99741.5
100094
100056
100583
100491
100411
100368
100255
100204
101623
101522
101350
101274
101207
101224
101413
101581
101525
101493
101473
101434
101045
101082
101121
101181
101333
101390
101228
101310
101108
101156
100928
100983
101072
100854
100763
100655
100878
100754
100930
100962
100860
100894
101010
99270.6
99167.7
99052.4
98924.5
99397
99808.1
99950.6
99863.9
99676.5
100024
100102
100193
99622.1
99471.6
100290
100321
100298
100331
100289
98840.6
98165.7
98685.5
98514
98342.9
100051
100734
99465.8
99356.1
99255.7
99134.8
98570.7
98461.8
98387.1
98840.3
98936.4
98790.2
99063.4
99040.5
98676.1
97970.1
98124.2
97813.2
97738.2
97592.2
98303.9
98229.7
99557
99660
97250.3
97440.8
99974.8
99945.5
99863.6
99790.9
99699.1
100141
100063
100584
100631
100493
100438
100349
100296
100194
101444
101643
101316
101659
101147
101295
101589
101658
101613
101570
101599
101481
101433
101037
101102
101184
101212
101398
101419
101275
101346
101154
101240
100983
101035
101095
100915
100815
100720
100851
100708
100831
100940
100913
100980
100882
100993
99243.9
99131.7
99055
98937.4
99376.3
99792.1
99994.1
99914.5
99728.5
100071
100137
100246
99620.2
99514.9
100307
100319
100362
100350
100320
98768.5
97986.7
98164.6
98598.6
98430.4
98260.6
100757
100214
99524.6
99451
99412.6
99311.6
99218.5
99169.6
98518.4
98627.2
98388.6
98845.6
98946.3
98727
99118.7
99047.9
97995.7
98087.2
97798.5
97645.8
97524
98347.9
98191.5
99616.3
97274
97167.7
97349.5
100027
99969
99881.5
99821.6
99715.1
100110
100541
100625
100666
100438
100387
100289
100233
101705
101463
101402
101067
101275
101095
101581
101786
101869
101667
101626
101664
101519
101478
101055
101154
101063
101134
101295
101442
101470
101335
101285
101415
101187
101040
100995
101160
100885
100970
100831
100741
100854
100780
100871
100945
100924
100979
100889
101008
99164.8
99278.5
99012
98871.2
99339.6
99436.5
99828.5
99988.3
100059
99895.1
99683.4
100190
100239
100317
99577.8
99490.2
100324
100369
100408
100390
100396
100384
98780.3
97934.9
98087.2
98598.1
98434.7
98272.9
99726.3
100310
99545.9
99500.3
99417.3
99326.7
99232.9
98516.5
98629.3
98455.4
98794.4
98899.5
98994.1
98733.1
99114.3
99033.6
97982.5
98123.2
97700.4
97859.1
97636.3
97498.6
98363.3
98186.9
99599.8
97150.4
97360.2
100028
99937.9
99870.7
99782.7
99683.1
100134
100542
100639
100714
100489
100386
100331
100205
101240
101508
102227
101157
101445
101263
101101
101836
101366
101367
101741
101748
101607
101595
101532
101039
101171
101065
101175
101257
101510
101535
101380
101332
101432
101210
101104
101056
101162
100915
100999
100796
100881
100898
100781
100864
100928
100962
100902
100998
99125.7
99230.1
99036.7
98881
99348.8
99415.3
99811.8
100030
100101
99949.2
99702.9
100198
100298
100378
99595.9
99532.9
100474
100461
100448
100438
98746.4
97999.7
98103.8
98519.7
98673.6
98362.2
98176
99376.3
100267
100342
99504.1
99466.3
99381.9
99291.9
99205.9
98569.2
98689.3
98455.1
98801.2
98904.1
98997.1
99156.2
99078.4
97929.5
98057.5
98115.9
97674.3
97801
97561.6
97437.3
98343.2
98218.2
99628.2
97063.7
97218.7
97306.7
100060
99952.5
99895.6
99796.9
99708.9
100111
100590
100694
100738
100490
100436
100332
100231
101469
102126
101276
101383
101791
101391
101370
101521
102039
102019
101674
101611
101874
101592
101047
101142
101101
101068
101290
101106
101537
101604
101389
101346
101491
101282
101102
101080
101219
100885
100971
101056
100822
100877
100842
100878
100939
100969
100910
100998
99161.3
99255.4
99002
98785.1
98942.7
99322.4
99453.9
99765.5
99868.3
100035
100080
100166
99925.3
100010
99651.7
100255
100363
100393
100444
99519.5
100490
100516
100482
100470
97826.2
97948.9
98523.4
98617.7
98374
98164.8
99956.3
100427
100346
99557.6
99482.5
99399.1
99313.2
99232.1
98560.9
98705
98505.2
98858
98767.1
98955.8
99047.3
99132.4
97927.9
98056.9
97745.6
97553
97825
97529
97474.8
98293.5
98391.3
98185.7
99604.4
97032.3
97186
97343.2
100057
99998.9
99901.3
99762.9
99847.9
99683.2
100154
100594
100702
100788
100543
100438
100380
100286
100202
102263
101362
101067
101219
101216
101169
102347
101523
102529
101691
101941
102163
101487
101546
101629
101861
101020
101206
101080
101090
101282
101504
101613
101652
101457
101438
101503
101293
101163
101139
101276
101213
100912
101001
101093
100868
100894
100814
100903
100918
100950
100959
100983
101005
99125.4
99223
99053.6
98783.1
98927.2
99363.7
99432.3
99770.4
99832.2
100104
100130
100190
99962.5
100042
99666.7
100281
100384
100468
100495
99563.1
100549
100582
100549
100472
97760
97996.8
98471
98643.4
98330.6
98098.4
98250.6
99909.3
100304
100427
99533.2
99451.9
99365.8
99287.4
99207.3
98616.9
98677.4
98504.3
98854.3
98789.2
98961.4
99074.3
99156.2
97990.8
97895
98120.1
97691
97560.7
97777.3
97415.8
98279.5
98455
98388.8
98219.9
99631.4
97128.6
97297.7
100115
100039
99962.7
99886.2
99782.4
99833
99708.5
100647
100760
100810
100548
100498
100381
100277
100223
101808
101998
100961
101551
101757
101346
101694
102292
102393
101284
101903
101316
101737
101919
101697
102353
101943
101019
101148
100961
101048
100983
101476
101692
101622
101497
101438
101557
101379
101179
101319
101259
100876
100968
101063
101153
100886
100889
100854
100918
100923
100947
100966
100986
101010
99154.2
99263.4
98999.6
98719.7
98862.3
99335
99463.2
99732.5
99862.5
100130
100234
99926.3
100023
100104
99629.5
100349
100278
100436
100477
100518
100543
99528.1
100605
100603
100615
100558
100597
97786.5
97938.2
98508.9
98591.9
98374.6
98117.2
98213
99649.2
100397
100386
100498
99560.4
99470.1
99379.6
99312.7
99237.7
98562.9
98706.8
98899.3
98769.7
98995.9
99066.7
99140.8
97976.3
97919.2
98100.8
97714.1
97549.1
97790.7
97384.4
98334.2
98478.8
98416.8
98225.7
99616.2
97053.8
97238.7
100140
100064
99983.6
99915.2
99755.6
99860.5
99697.6
100652
100754
100808
100599
100499
100447
100361
100312
100197
101120
101984
101090
101720
101552
101592
101268
101012
101574
101851
102561
101423
101442
101990
101866
101820
101911
101446
101012
101071
101073
101292
101079
101108
100890
101796
101700
101548
101505
101574
101378
101239
101312
100900
100998
101098
101192
100911
100906
100794
100920
100925
100929
100951
100961
100974
101014
99142.2
99198.2
99018
98713.3
98873.9
99361.6
99458.6
99759.6
99826.3
100187
100228
99958.1
100062
100138
99657.2
100380
100324
100460
100550
100572
100595
99570.1
100667
100682
100679
100587
100652
97672.9
97857.6
97982.8
98462.5
98620.6
98331
98073.5
98253.7
100108
100482
100375
100529
99546.7
99428.7
99512.6
99357.7
99287.2
99226.3
98578
98690.7
98877.8
98813.5
98985.5
99037.4
99122.6
99182.5
98023.7
97902
98163.5
97695.6
97598.9
97465
97772.1
97353.9
98275
98540.1
98441.3
99655.6
97264.1
97025.6
100113
100034
99963.9
99908.8
99777.9
99844.8
99726.3
100704
100816
100849
100607
100551
100443
100384
100278
100224
101640
101094
101006
101259
101346
101207
101585
101328
101928
102577
101618
102045
101541
101862
101711
101786
101657
101048
101012
100999
101396
101331
101583
101427
101879
101780
101653
101564
101497
101579
101425
101283
101366
100956
101061
101162
101259
100919
100914
100860
100933
100923
100934
100948
100967
100977
100998
99090.4
99211.7
98958.6
98761.7
98832.3
99424.4
99341.1
99523
99717.9
99850.7
100195
100273
99910.8
100020
100129
100054
99626.1
100433
100319
100522
100605
100609
100654
100731
100736
100737
100642
100555
100724
97648.8
97824.3
97966.2
98498.8
98587.2
98370.7
98124.7
98208.7
100184
100290
100361
100565
99591.2
99429
99516.8
99376.7
99311.7
99262
98640.8
98736.4
98918.1
98791.6
99033.3
98969.1
99120.4
99170.2
98012.3
97901.9
98174.4
97711.2
97572.9
97377.4
97858.9
97231.6
98293.3
98571.8
98520.7
98439.9
99640.5
97121.1
97013.2
100135
100047
99995.1
99945.1
99817.2
99878.5
99729.6
100714
100867
100780
100665
100543
100485
100356
100299
100190
101788
101572
101243
101336
101376
101431
101487
101870
101722
101376
101459
101536
101865
102018
101639
101839
102699
102792
102414
101004
101016
101014
101195
101060
100955
101152
101282
101214
102103
101929
101621
101539
101708
101429
101354
100982
101092
101199
101302
100916
100911
100885
100937
100928
100938
100951
100971
100964
100995
99068.2
99173.8
99289.4
98983.9
98722.5
98868.5
99451.6
99385.6
99547.7
99742.3
99807
100247
100290
99928
100043
100183
100116
99653.7
100454
100372
100554
100651
100673
100695
100783
100809
100805
100690
100644
100779
97719
97889.7
98052.6
98457
98636.5
98332.6
98242.6
99980.4
100379
100328
100497
100621
99566.6
99464.5
99501.7
99375.8
99352.3
99259.1
98617.8
98720.8
98886.3
98834.3
99069.9
99002.2
99161.2
99207.4
97953.3
98114
98222.7
97650.6
97535.5
97416.9
97900.6
97116.4
98383.7
98268.6
98530.3
98471.1
99671.1
97157.3
97069.5
96826
100126
100090
99987.2
99948
99820.1
99851.6
99923.7
99782.7
99713.8
100922
100797
100674
100584
100481
100385
100297
100208
101506
101439
101575
101194
101211
101244
101452
101674
102232
101931
102386
101993
101899
101828
101740
101911
102039
101386
101042
100989
100899
101175
101209
101042
101042
101156
100890
101809
101655
101635
101493
101601
101711
101657
101404
101053
101160
101274
101382
100926
100914
100865
100958
100932
100934
100941
100945
100968
100963
100976
99107.5
99200.7
99278.9
98951.8
98758.9
98830.8
99510.9
99383.6
99613.3
99710.5
99817.7
100243
100340
100008
99907.5
100097
100176
100429
100517
100614
100647
100712
100712
100755
100848
100789
100866
100858
100772
100668
100843
97675.7
97886
98078.3
98500.4
98592.9
98368.7
98178.2
99841.2
100394
100348
100524
100607
99591.6
99422.8
99520.4
99366.5
99297
98655.3
98766.9
98919.1
98819.3
99048.4
98975.4
99160.8
99202.8
97898.9
98070.3
98215.4
97789.7
97550.4
97629.3
97353.8
97901.3
97220.9
98341.1
98249.5
98595.4
98461.6
99638.2
97156.1
96946.9
97027.4
100157
100076
100028
99995
99863.3
99941.8
99776
99727.5
100939
100742
100852
100638
100583
100440
100534
100329
100259
101309
101291
101491
101115
101241
101259
101311
101288
101755
101549
101888
101591
102172
101431
102167
102402
101872
101569
101686
101883
101125
101048
101177
101076
101065
101131
101096
101317
101176
101095
102369
102005
101486
101662
101850
101730
101077
101186
101303
101423
100931
100914
100923
100970
100927
100946
100971
100952
100971
100998
99065.2
99173.3
99325.5
98991.6
98748.9
98876.4
99533.5
99440.6
99642.3
99748.4
99859.6
100286
100373
100025
99960.5
100137
100227
100463
100541
100643
100722
100769
100766
100899
100848
100934
100920
100809
100721
100899
97557.7
97727.1
97814.3
97991.8
98455.6
98632
98359.1
98204.6
99992
100390
100309
100566
100577
100695
99565.3
99432.2
99510.7
99408.8
99340.4
99285.9
98652.7
98752.3
98899.5
98856.4
99076.5
99006.3
99133.5
99210.5
99248.5
98080.6
97890.5
98188.4
97641.7
97555.4
97544.7
97368.4
97877.2
97259.3
97253.6
98384.6
98263.8
98589.7
98543.3
99655.7
96622.3
97141.8
100167
100101
100011
99867.1
99911.4
99981.8
99805.9
99724.2
101028
100907
100751
100855
100657
100621
100436
100523
100335
100230
101332
101286
101381
101536
101155
101201
101224
101242
101227
101594
101806
101439
101841
101569
102160
102067
101730
102389
101791
101691
101739
101754
101027
101043
101164
101187
100935
101175
101132
101121
101153
101119
102068
101917
101535
101787
101605
101658
101776
101148
101268
101385
101503
100934
100925
100972
100918
100921
100947
100937
100989
100949
100965
101029
99094.1
99214.3
99323.7
98945
98820.9
98702.5
99500.8
99602.1
99431.9
99715.1
99857.3
100346
100285
100439
100056
99925.6
100213
100136
100520
100607
100698
100780
100820
100814
100951
100897
100857
100994
100947
100955
100883
100796
100762
100964
97534.1
97625.5
97819.9
98008.1
98504.3
98580.5
98296.2
98442.1
98126.8
100253
100535
100598
100668
100743
99586
99479.6
99544
99423.9
99357.8
99315.9
98700.6
98793.2
98916.7
98849.8
99083.7
98976.2
99044.7
99155.3
99190.5
99247.2
98108.3
97795.6
98108.1
97635.8
97548.5
97474
97253.8
97777.8
97317.6
97219.1
98412.2
98337.5
98654.5
98517.5
99698.5
99623.6
96776
97515.3
96896
100147
100083
100054
99900.9
99847.8
99995.2
99764.2
101047
100945
100811
100710
100905
100638
100393
100479
100571
100326
100248
101316
101248
101341
101446
101099
101147
101182
101171
101555
101780
101842
101611
101614
101802
102513
102070
101828
101926
101898
101919
100999
100904
101006
100979
101140
101190
101124
100982
101146
101075
102187
101470
101642
101625
102072
101971
101177
101300
101421
101598
100930
100934
100899
100919
100918
100950
100941
100944
100964
100955
101024
99074.3
99193.8
99275.7
99382.5
98967.3
98840.9
98712.7
99535.1
99622.2
99486.4
99737.9
99836.7
100386
100335
100470
100048
100103
99949.7
100257
100204
100558
100614
100730
100835
100878
101000
100945
100916
101046
101035
101019
100935
100874
100791
101017
97458.5
97633.1
97893
97726
97953.5
98603.4
98297.7
98470.3
98150.2
100354
100564
100628
100724
100754
99467.6
99537.1
99426.8
99398.8
99323.4
98707.8
98807.6
98932.8
98891.1
99122.3
98951.1
99053.6
99220.9
99280.7
98039.7
98010.4
97867.3
98199.9
97827.8
97524.5
97415.7
97528
97732.1
97115.1
98387.6
98479.9
98235.8
98642.2
98626.1
98507.5
99715.7
99636.1
96990.3
97287.2
96905.6
100174
100117
100059
99921.5
99845.1
99973.7
100036
99771.8
101128
101010
100792
100694
100921
100622
100395
100470
100550
100294
100346
100217
101259
101182
101328
101346
101425
101073
101102
101140
101155
101465
101676
101802
101581
101533
101874
102219
102334
102122
101817
101682
101739
101862
102033
101049
101027
100933
100974
101039
101089
101070
101038
101048
101649
101847
101594
101852
102088
101813
101256
101368
101477
100940
100931
100863
100930
100923
100952
100941
100986
100996
100962
100975
99029.4
99134.4
99222
99285.8
99385.2
98905.7
98785.2
98672.6
99589.2
99680.8
99503.1
99794.5
99880.9
100442
100350
100538
100472
100097
100013
99929.6
100256
100314
100192
100662
100811
100715
100855
100886
100932
100996
101051
100957
101075
101088
101091
100986
100893
100856
101037
97452.5
97279.9
97542.9
97880.4
97723.7
98001.6
98560.7
98371.3
98223.5
98443.8
98082.5
100160
100630
100665
100732
100810
99498.9
99567.7
99466
99404.4
99367.5
98763.4
98840.6
98885.8
99138.8
98962.7
99047.9
99108.7
99192.9
99265.4
99294.1
98214.6
98003.9
97942.6
98098.4
97781.5
97618.6
97215.5
97528.7
97727.1
97183.5
98359.9
98512.8
98311.3
98705.2
98632.2
98468.7
99684.2
99753.5
99612.4
97107.5
96895.9
97004.3
96892.2
100152
100099
99905.1
99874.2
99812.4
99995.1
100055
101125
101034
100834
100732
100900
100985
100671
100435
100508
100576
100270
100347
100229
101221
101143
101258
101300
101361
101058
101038
101086
101094
101089
101459
101649
101551
102272
102047
102203
102210
101781
101708
101762
101715
101755
101103
100936
101079
101024
101157
101082
101161
100977
101010
100993
101029
102142
101688
101765
101922
102029
102080
101279
101452
101612
100935
100896
100933
100936
100935
100943
100937
100996
100970
101015
100953
101014
99030
99091.6
99225.2
99344
99444.5
98913.4
98785.1
98705.4
99613.2
99687.7
99569.7
99788.5
99838.2
100462
100420
100567
100520
100128
100024
99953.3
100294
100337
100238
100667
100813
100757
100916
100930
100986
101044
101100
101006
101132
101165
101154
101021
100994
100939
100856
101128
97371
97546.1
97952.8
97809.9
97637.3
98597.3
98354.2
98229.4
98504.5
98084.2
100450
100607
100745
100691
100798
100821
99551.8
99475.6
99442.2
99374.2
98741.4
98829.9
98856.6
98942.8
99051.9
99116
99199.4
99272
99344.4
98305.8
97992.4
98031.5
97934.2
98338.2
98094.3
97787.9
97678.9
97527.4
97084.8
97636.3
97664.6
97220.8
98424.9
98425
98748.6
98573.8
98759.2
98518.3
99694.9
99777.4
99631.6
97049.7
97046.7
96895.5
100171
100126
99940.2
99868
99812.7
99974.2
100033
100099
101088
101192
100812
100721
100940
101013
100641
100436
100472
100567
100295
100334
100401
100208
101170
101083
101243
101299
101351
101014
101008
101076
101017
101051
101064
101413
101551
101680
101510
102190
102040
102112
102265
101346
101674
101705
101714
101575
100822
101044
100904
100960
101058
101072
100856
100812
100951
101009
100986
102207
101678
101524
101603
101883
101731
101260
101325
101463
100933
100894
100940
100925
100930
100937
100932
100964
100947
100985
100949
100911
98985.9
99105.3
99298.4
99208.1
99355.8
99444.6
98891.7
98832.6
98669.3
99666.2
99746.1
99584
99842.4
100517
100436
100624
100543
100123
100081
99950.8
100315
100393
100297
100216
100725
100863
100776
100954
100938
100985
101009
101029
101100
101125
101150
101183
101225
101220
100964
100909
97382.7
97184.3
97467.4
97986.2
97811.4
97635.1
98574.8
98421
98301.9
98155.4
98487.8
100306
100666
100764
100731
100807
100869
99574.2
99516.2
99448.9
99414.8
98832.1
98924.8
98893.2
99011
99092.7
99163.5
99232
99274.2
99327.9
99353.6
98139.4
98044.7
97833.9
97902.4
98130.7
98216.8
97762.2
97614.9
97489.4
97329.1
97495
97714.7
98403.7
98403.7
98767
98487.2
98654.9
98573.3
99667.2
99730.6
99764.9
99611.5
97130.4
97047
96896.5
100161
99925
99900.7
99837.5
99997.9
100052
100115
101122
101163
100758
100845
100918
100977
101087
100645
100481
100526
100600
100263
100354
100395
100229
101273
100997
100982
101008
100969
101012
101379
101494
101563
101430
102029
102170
102109
102154
101799
101588
101686
101514
100959
101132
101022
101086
101056
101047
101003
100953
100808
100979
102191
101533
101759
101608
101961
101975
101367
101421
101478
100921
100940
100925
100933
100939
100935
101019
100952
100962
100976
100942
100972
99000.8
99160.8
99050.3
99296.4
99230
99401.6
99497.4
98935
98818.4
98695.7
99686.9
99743.2
99649.6
99547.6
99788
99880.6
100552
100483
100610
100161
100066
99930.8
100012
100382
100335
100253
100709
100820
100922
101007
101010
101081
101094
101133
101182
101211
100911
97289
97475.9
97979.9
97890.1
97721.8
97569.6
98622.1
98402.3
98312.9
98158.1
98544.9
100561
100645
100820
100776
100801
100870
99571
99513.8
99487.6
99420.6
98793.4
98895.1
98935.3
99058.6
99085.5
99161.1
99242.5
99301.6
99342.2
99389.6
97929.8
98247.7
97905.9
97966.3
98437.9
98353.7
97746
97641.9
97427.8
97564.2
97381
97692.1
98291
98780
98490.7
98724.2
98509.3
99679.6
99738
99790.8
99625.7
97150.4
97044.7
96897.3
100187
99944.2
99882.6
99847.4
100034
99978.6
100085
100152
101171
100766
100807
100932
100994
101095
100681
100439
100533
100615
100270
100353
101293
100957
100949
100956
100939
101373
101506
101426
101553
101398
102551
102219
102243
102011
101898
101631
101517
101009
100944
100971
100963
101030
101016
100974
101110
100784
100957
102057
102021
101876
101376
101906
102201
102068
102019
101417
101393
100926
100954
100931
100937
100930
100934
100937
100950
100950
100962
101016
100937
101019
99116
99054.6
99342.4
99225.9
99409
99469.3
98934
98875.4
98757.5
99693.8
99662.3
99564.9
99756.6
99848.9
100536
100627
100490
100648
100166
100098
99951.4
100004
100427
100394
100306
100221
100749
100841
100975
101050
101063
101039
101122
101100
101194
101223
101272
97276.2
97147.9
97418.3
98057.8
97857.4
97698.7
97596.4
98620.2
98446.3
98288.9
98227.6
98513.9
100521
100681
100676
100769
100833