/*--------------------------------*- C++ -*----------------------------------*\
| =========                 |                                                 |
| \\      /  F ield         | OpenFOAM: The Open Source CFD Toolbox           |
|  \\    /   O peration     | Version:  v2012                                 |
|   \\  /    A nd           | Website:  www.openfoam.com                      |
|    \\/     M anipulation  |                                                 |
\*---------------------------------------------------------------------------*/
FoamFile
{
    version     2.0;
    format      ascii;
    class       surfaceScalarField;
    location    "0.1";
    object      phi;
}
// * * * * * * * * * * * * * * * * * * * * * * * * * * * * * * * * * * * * * //

dimensions      [0 3 -1 0 0 0 0];
oriented        oriented;


internalField   nonuniform List<scalar> 
21399
(
0.181713
0.598308
-0.592961
0.774673
0.608728
-0.082562
0.578161
0.139617
0.656993
0.464972
0.309701
0.122648
0.48608
0.504087
0.717779
0.182452
0.474541
0.587621
-0.505335
0.815036
0.49747
-0.0115358
0.515622
0.212444
-0.368662
0.551114
0.686984
0.217468
0.370153
0.336789
0.478247
0.714937
0.37361
-0.10955
0.362075
0.146961
0.0988531
0.452261
-0.0589759
0.74596
0.706942
-0.140698
0.618945
0.72348
0.221079
0.290443
0.0716313
0.437404
-0.328373
0.427226
0.393285
0.605262
0.0600859
0.646856
0.67903
0.459316
0.264164
0.352095
-0.131017
-0.342735
0.414367
0.109031
0.200431
0.226795
0.593716
-0.112551
0.717813
0.301568
0.345289
0.342619
0.336412
0.469409
0.565731
0.00936015
0.190217
0.271292
0.143074
0.380323
0.333947
-0.107152
0.522513
0.0712034
0.409962
0.357227
0.360586
0.687908
0.693639
-0.109439
0.578848
0.456292
-0.317367
0.326727
-0.12715
0.302792
-0.159718
0.369996
0.0103269
0.251837
0.320626
0.0133216
0.262844
0.391829
0.456593
-0.0466314
-0.334001
0.694587
0.270311
0.417596
0.393309
0.30033
0.589049
0.726603
0.37298
-0.0462526
0.124688
0.280411
0.022381
0.213262
0.290738
-0.291814
0.305135
-0.0289695
0.424533
-0.0327044
0.122592
0.377902
0.412138
0.282449
0.810905
0.712468
-0.270757
0.859805
0.455847
-0.354841
0.308589
-0.155946
0.280633
-0.236045
0.258426
-0.0227825
0.270475
0.0202627
0.09468
0.327894
-0.0227583
0.241506
0.295189
-0.269402
0.391995
0.1085
-0.197772
0.480221
0.262941
0.547964
0.686121
0.0263475
0.625019
0.234787
0.718787
-0.0742084
0.301046
0.00754274
0.286369
-0.0279431
0.278264
0.306631
-0.148834
0.243514
0.122712
-0.334649
0.311891
-0.0931433
-0.0290883
0.324278
0.529525
-0.13753
-0.272572
0.381072
0.331753
0.445484
0.0347371
-0.0626298
0.610594
0.623491
0.471831
0.635103
-0.330082
0.564869
0.388705
0.169305
0.2546
-0.247057
-0.210925
0.182982
0.0673385
0.213488
0.271248
-0.148537
0.272584
0.0393068
0.243496
0.0517053
0.243541
0.353799
-0.0220455
0.388536
0.104817
0.505777
0.522883
0.100607
-0.0986475
0.570479
0.618377
0.0167265
0.67826
-0.11339
0.493522
0.326916
-0.157611
0.258803
-0.00420237
0.0798585
0.300884
-0.117902
-0.167421
0.23476
0.278932
-0.0654443
0.113637
0.101566
-0.230736
0.270042
0.203328
0.0401682
0.255033
0.408295
-0.164753
-0.283625
0.261579
0.403932
-0.0153956
0.0700993
0.435677
0.592983
-0.379951
0.480558
0.305284
0.190528
0.627556
0.694986
0.380132
0.0913816
-0.201175
0.196972
0.25697
-0.177112
0.269492
0.0313921
0.116857
0.0481969
0.204048
0.274844
-0.161207
0.252877
-0.151311
0.201509
0.0685333
0.241677
0.395005
-0.139972
0.12467
0.230252
0.393574
-0.131995
0.378178
0.815809
0.678616
-0.0856331
0.625967
-0.145409
0.348497
-0.0432131
0.447024
-0.256496
0.046919
0.580637
0.569234
0.125752
-0.185779
0.277161
0.0557958
0.0111931
0.0977324
0.217749
-0.186357
-0.105268
0.222125
-0.225175
0.273372
-0.0211276
0.0916707
0.0697021
-0.197321
0.265854
0.101705
0.304143
-0.179473
0.345367
-0.115115
0.172148
0.269495
0.108684
0.43763
0.37818
0.238546
0.440069
0.540334
0.301615
0.0920013
0.226282
0.616153
0.589246
0.563382
0.171893
0.187506
-0.13171
-0.18372
0.194913
0.268771
-0.171039
0.219648
-0.00189852
0.0357681
0.0760513
0.19852
0.241555
-0.149885
0.245997
0.207328
0.0585262
0.309033
0.165895
-0.279046
0.163931
0.355747
-0.183599
-0.171597
0.28028
0.616726
0.632126
-0.192056
0.563966
-0.0236313
0.495532
-0.193917
-0.255688
0.347689
-0.0294064
0.562601
0.0535519
-0.0688445
0.65809
0.0177501
0.545632
0.174505
-0.00261274
0.00378626
0.137061
-0.0427731
0.237686
0.0705168
-0.187872
0.185973
0.210274
0.26236
-0.186309
0.229717
-0.0311966
0.0961119
-0.153342
0.211868
0.0299864
0.322806
-0.156911
0.298638
-0.134707
0.295314
0.0604323
0.139208
0.123718
0.250874
0.634476
0.573105
0.059021
0.371909
-0.370057
0.346426
0.125474
-0.43298
0.239063
-0.0852906
0.493757
0.599184
0.665222
-0.196032
0.193419
-0.178942
0.182728
-0.0418815
-0.193003
0.15023
0.0416545
0.251454
-0.180938
0.0224018
0.196512
-0.0105384
0.109018
0.0434081
0.165315
0.178727
-0.0826156
0.251903
-0.0400343
0.281889
0.141726
0.147183
0.259176
-0.198744
0.305581
-0.166374
-0.171717
0.295435
0.310735
-0.0598619
0.0370056
0.597471
0.61011
-0.462109
0.52113
-0.0902001
0.475953
-0.129526
0.410747
-0.285273
0.365237
-0.126174
0.225445
-0.376163
0.869919
0.223021
-0.167174
0.832396
0.169892
0.0235267
-0.0102749
-0.206024
0.164143
0.172095
-0.0218652
0.21375
0.0454301
-0.00221015
0.192294
-0.184964
0.174426
0.209662
-0.100645
-0.15959
0.202998
0.00572493
-0.216941
0.134326
-0.0125471
0.169628
0.273269
-0.131542
0.273695
-0.126512
0.0874589
0.106837
0.106895
0.234005
0.0614299
0.174143
0.820491
-0.113687
0.723797
0.625903
-0.104772
0.385753
0.281221
0.079964
-0.373403
0.247228
-0.147958
0.702745
0.626831
0.205565
-0.157601
0.181127
-0.1946
0.184326
-0.0304577
-0.150322
0.128457
0.0561492
-0.115483
0.160913
-0.140894
0.138684
0.00732983
0.174422
3.56839e-06
-0.212446
0.111802
-0.00944827
0.180147
-0.00656805
0.165127
-0.107565
0.277193
0.142152
-0.183831
0.0573193
0.258904
-0.171445
0.265114
-0.158277
0.268551
-0.161656
-0.171623
0.233053
0.29373
-0.119587
-0.0120201
0.832511
0.512216
0.711777
-0.498173
0.393401
-0.11242
0.454591
-0.17337
-0.292121
0.372085
-0.0448925
0.145772
0.48794
0.214805
0.632701
0.693506
0.17368
0.00744759
0.0340036
-0.149673
0.119215
0.202701
-0.0742442
-0.130082
0.186231
-0.239391
0.123908
0.0112407
-0.100707
0.18101
-0.171576
0.171579
0.253411
-0.141609
-0.174449
0.165001
0.00569798
-0.175559
0.168991
-0.0104326
0.145846
0.0933615
0.200903
-0.0587507
-0.157944
0.215264
0.0872806
0.0936689
0.110274
0.0392473
0.113467
0.381228
0.451284
0.738466
-0.22625
0.554035
0.157742
0.56209
-0.16869
0.34217
-0.33248
0.15911
0.0396047
0.196718
-0.241611
0.319425
-0.173653
0.596032
0.148089
0.484612
0.518603
0.174903
-0.135271
0.142719
0.165008
-0.131005
0.205925
-0.0867098
0.0726191
0.0907641
0.0509597
0.154518
-0.0306103
0.165759
0.0682841
0.00943402
0.162562
0.00901665
0.0233917
0.16826
-0.150942
0.140509
0.258788
-0.112942
-0.0645828
-0.234078
0.175327
-0.0188144
0.241753
-0.154472
0.233546
-0.139877
0.244253
-0.133979
-0.117052
0.1563
0.281451
-0.167984
-0.112199
0.563483
0.409263
0.329203
0.33584
0.441837
0.567005
-0.452135
0.283445
-0.109964
-0.211839
0.370949
0.268075
-0.228471
0.338441
-0.141723
0.0778142
0.107799
0.549249
0.0467833
0.666692
0.490128
0.724152
-0.00188243
0.638324
0.0211986
0.622416
0.18369
-0.0409715
0.0749201
0.0790487
-0.108065
0.180684
0.184302
-0.0935374
0.169509
-0.118549
-0.151851
0.121241
0.195422
-0.127138
0.193124
-0.152935
0.161952
-0.165443
0.188835
0.00281707
0.172657
-0.0321484
0.194206
-0.187305
0.0743631
0.0582748
-0.15315
0.134335
0.0737681
0.0790736
0.104376
-0.226211
0.0922317
-0.0699108
0.610266
0.643365
-0.314163
0.53428
-0.19844
-0.296243
0.738079
0.270762
0.526422
-0.242977
-0.374261
0.264296
0.0562364
-0.00331162
0.10997
-0.25051
0.108787
-0.172696
0.273782
-0.165984
0.114346
0.552346
0.604474
0.723374
0.000777669
0.649282
0.0651179
0.573206
0.532476
0.648708
0.633098
0.128537
0.187401
-0.112481
0.178505
-0.0994562
0.0762367
0.0621347
0.0938635
0.0435709
0.185807
-0.0645659
0.0455194
0.040189
0.156704
0.00524817
0.00152999
0.159521
-0.139201
0.107053
0.041056
-0.107426
0.181789
0.166969
-0.108694
0.211624
-0.0772886
0.275083
-0.201315
0.195536
-0.116462
0.218634
-0.114258
0.230623
-0.138391
0.097058
-0.121158
0.731423
0.344509
0.298856
0.220117
0.327982
0.616922
0.615272
-0.34661
0.103634
-0.0823138
0.245391
-0.189155
-0.283139
0.279827
0.297957
-0.187986
0.279648
-0.170861
0.101087
0.1091
-0.109641
0.661987
0.609241
0.613733
0.732201
0.00502936
0.644253
-0.445796
0.510914
0.0234308
0.549775
0.0866796
0.653737
0.00143842
0.63166
0.194901
-0.0663639
0.0660241
0.0863507
-0.114775
0.191012
-0.109571
0.171706
0.138052
-0.0441885
0.178498
-0.134928
0.113933
-0.142573
0.188092
-0.129721
0.16991
-0.11962
0.124868
-0.177627
0.179157
-0.0181061
-0.0100499
-0.0355201
0.167467
-0.126411
0.0717313
0.235065
-0.0532764
0.10293
0.0901788
-0.00577911
0.102172
0.116365
-0.169909
0.0315175
-0.072851
0.520349
-0.221493
0.427949
-0.207832
0.484385
-0.156403
0.719597
-0.102675
-0.089595
0.704867
0.388072
-0.284438
-0.323467
0.241154
-0.0377474
0.108802
-0.0436405
0.0916623
-0.252613
0.0817515
-0.151526
0.23776
-0.128661
0.134586
0.527401
0.743827
-0.0639377
0.677671
0.57239
0.159811
0.667684
0.484129
0.0267846
-0.183535
0.73331
0.309852
0.012661
0.396532
0.291242
-0.00073918
0.655175
0.642542
0.06518
-0.138203
0.0718388
-0.0823702
0.148394
0.176996
-0.0906458
0.0232766
0.0814406
0.0335035
-0.156043
0.111855
0.0531647
0.142972
-0.029039
0.0502906
0.181112
-0.0562445
0.163006
0.12736
0.11731
-0.126299
0.0907788
0.108654
0.158453
-0.0867216
0.105177
0.178716
-0.0757859
0.182794
-0.0926154
-0.187809
0.18203
-0.0856371
0.199031
-0.0826655
-0.167435
0.198952
0.105865
0.430754
-0.468364
0.246872
-0.0404151
0.276553
-0.437914
0.281512
0.456175
0.263422
0.602192
-0.0498428
-0.0432844
-0.288172
0.250424
-0.17937
-0.292114
0.248473
0.269883
-0.178221
0.243598
-0.161846
0.0862338
-0.283557
0.154896
-0.0202632
0.547664
0.109423
0.634404
0.508452
0.657407
0.615986
-0.0537724
0.721456
0.300594
-0.407911
0.434695
0.281395
0.451915
0.303903
-0.0113789
0.282493
0.601403
-0.0863209
0.728863
0.185116
-0.119936
0.156367
-0.0845285
0.0946263
-0.0076491
0.0523258
-0.118052
0.141329
0.17406
-0.092619
0.109622
-0.0761185
-0.00619747
-0.126013
0.179178
-0.155638
0.126599
0.14315
-0.0928596
0.0869057
0.159759
0.00324759
-0.00898904
0.176835
-0.0860563
0.193201
-0.0845467
0.073037
0.199662
-0.0944851
0.107008
0.100585
-0.101527
0.113393
-0.175341
0.0926751
-0.0615698
0.0236115
0.71473
-0.283976
0.591405
-0.344534
-0.400536
0.360121
-0.123983
0.452432
-0.17092
-0.453906
0.717328
0.148285
-0.393344
0.343501
-0.298897
0.255613
-0.0416897
0.0905137
-0.0504236
0.0653765
-0.231203
0.0693571
-0.144969
0.196638
-0.0417424
0.657088
0.638577
-0.246215
0.754667
0.0321827
0.625225
0.369771
0.395314
0.326142
-0.248833
0.549428
0.185862
-0.383459
0.664854
0.847229
0.330264
-0.026361
0.318885
0.291995
-0.0095014
0.515082
0.73886
0.0922567
0.0364311
0.0250936
0.133373
-0.0387463
0.125723
-0.107971
0.160297
0.153411
-0.0120816
0.0979411
0.0607915
-0.134944
0.128746
0.0508217
0.0235398
0.018628
0.178663
-0.0917575
-0.139568
0.142815
0.14379
-0.0469806
0.1348
0.0487441
0.115115
0.168774
-0.0957369
0.0742888
0.176633
-0.0696242
0.192501
-0.0919153
-0.221133
0.119606
-0.10774
0.199164
-0.106489
0.115063
0.162583
-0.138972
0.479664
0.235066
0.307429
0.0155869
0.328449
-0.314855
0.143935
0.473551
0.243777
0.627949
-0.137731
0.0286464
0.232126
-0.273815
0.289193
-0.198679
-0.282094
0.231671
0.251241
-0.185864
0.221227
-0.15187
0.0516692
0.129755
-0.171497
0.0465488
0.610539
0.0252032
0.613374
0.78685
0.671774
0.843322
0.841224
0.165968
-0.241766
0.427628
0.685501
-0.0206467
0.405897
0.441332
0.265634
0.413869
-0.094984
0.26561
0.0281284
0.256109
0.516034
0.222826
0.138934
-0.0466769
0.155162
-0.118731
-0.102352
0.127446
-0.136707
0.0979606
-0.00922022
0.0235902
-0.133953
0.121871
-0.00441115
-0.121434
0.182225
-0.00520671
0.159771
-0.108949
-0.128057
0.151597
-0.120419
0.139047
0.0390955
0.0471761
0.0470784
0.0837651
0.149482
-0.100738
0.160295
-0.0451799
0.173212
-0.0989229
0.122876
0.0683795
0.242827
-0.123221
0.0914244
0.0560939
0.173971
-0.0589084
0.0349995
0.604718
-0.369652
0.582787
-0.275358
-0.422534
0.438121
-0.0940855
0.331619
-0.187685
-0.537901
0.781678
0.0900481
-0.270423
0.132692
0.305687
-0.277041
-0.0499685
0.0153774
0.0525616
-0.0387523
0.0353624
-0.218859
0.0669891
-0.167189
-0.0374346
0.0713296
0.635742
0.616757
0.463121
0.323729
0.080788
0.590986
0.665731
0.177591
0.396238
0.444987
-0.331221
0.497189
0.172104
0.0964069
0.335439
0.350061
-0.336338
0.315692
0.802135
0.776771
0.317615
-0.0519816
0.222631
0.26703
0.268588
-0.0124785
0.527177
0.667813
-0.161596
0.11492
-0.00643469
0.00871518
0.15476
-0.0567997
0.14554
-0.128821
0.152411
0.000437671
-0.114372
0.109961
0.067853
-0.122955
0.117748
0.0317139
0.0405326
0.0311782
0.0102257
0.144682
-0.105587
-0.112521
0.159697
0.169825
-0.122747
0.157216
-0.0734512
0.0564787
-0.133233
0.0880532
0.0399786
0.0709025
0.162596
-0.0397195
0.1624
-0.0940201
-0.223544
0.100324
-0.13212
0.17389
-0.117796
0.103687
0.17649
-0.141491
0.442738
0.16198
0.213135
-0.554794
0.279436
-0.116672
-0.423624
0.329538
-0.0920042
0.118003
0.445347
0.336331
0.532786
0.31843
-0.185738
-0.276731
-0.00030987
0.208744
-0.258712
0.200069
-0.184691
0.299238
-0.246676
0.242249
-0.281001
0.219558
-0.184196
0.184063
-0.117074
-0.190173
0.152739
-0.118844
0.00891024
0.626832
0.0258124
0.590945
0.543909
-0.254626
0.578355
0.599896
0.411105
0.622938
0.160851
0.359827
-0.187724
-0.233252
0.329659
-0.239089
0.58915
0.473785
-0.158093
0.527259
0.274876
0.58669
0.190081
0.216606
0.341354
-0.118723
0.200962
0.0660683
0.188484
-0.157299
0.684476
0.510514
0.00239861
0.131508
-0.137942
-0.125216
0.133931
0.0956115
0.0225849
-0.129334
0.129772
-0.0152551
0.123715
-0.0558622
-0.0115855
0.164054
-0.13234
0.12076
-0.080227
-0.115039
0.146218
-0.10368
0.113906
0.021935
0.0541104
0.0656047
0.155983
-0.0995041
0.134668
-0.0466149
0.148072
-0.108094
0.130239
-0.0593361
-0.136381
0.0966617
0.0260184
0.040648
0.197285
-0.0969617
0.0417704
0.058694
-0.0378033
-0.476755
0.638735
0.504048
-0.290913
0.523917
-0.244482
-0.524781
0.408108
-0.195243
-0.290562
0.198558
-0.172559
0.693729
-0.357397
-0.208254
0.74104
0.0416983
0.0565113
-0.247505
0.247195
-0.0722574
-0.0586438
0.114547
-0.027118
-0.000132788
-0.221496
0.104421
-0.0687567
0.0784414
0.652644
0.593571
-0.0825194
0.626429
0.495836
-0.033865
0.633761
-0.329223
0.740327
0.293715
0.370647
-0.209796
0.126575
0.15363
0.406316
-0.0766568
0.234696
0.286032
0.303118
0.212553
-0.0889759
0.616235
0.78539
0.497714
0.476113
0.258592
-0.0419864
0.13987
0.302743
-0.173005
0.239073
0.271494
-0.0830102
0.693992
-0.146051
0.14845
-0.0145438
-0.00401118
0.166401
-0.0707897
-0.108606
0.131191
0.157477
-0.0277053
0.10846
0.101615
-0.102128
0.0905427
0.0490141
-0.0115801
0.0757559
0.0425372
0.156729
-0.0428233
-0.1121
0.134035
0.112991
-0.0588803
0.139326
-0.0737218
0.0398223
0.101457
0.022145
-0.157785
0.0984486
0.145698
-0.0490359
0.145843
-0.119825
-0.0994174
0.140065
0.110795
-0.207757
0.161181
-0.119411
0.165849
-0.107155
0.107894
0.0272936
0.43048
0.233004
-0.431524
0.187043
-0.0234158
-0.431392
0.236149
-0.232834
-0.288901
0.116342
0.378797
0.314931
0.383643
-0.205807
0.260276
-0.203765
-0.0417059
-0.250593
0.178336
-0.217002
0.158358
-0.102456
-0.167063
0.139945
-0.195726
0.195593
-0.0913047
0.094548
-0.163305
0.17957
-0.101128
0.0993711
0.553273
0.0624964
0.531074
0.592564
-0.187572
0.683407
0.733132
0.552756
0.672512
0.19652
0.329015
-0.20244
0.323011
-0.16938
0.252358
0.45628
-0.221584
-0.0636902
0.366809
0.418525
-0.205972
0.354542
0.261693
0.316351
0.469039
0.492492
0.00522285
-0.0305904
0.506703
0.229507
0.329723
-0.189853
0.129738
0.156063
0.0845361
0.609455
0.127278
0.0211717
0.0977896
-0.112333
-0.142721
0.13871
0.0577947
0.0859398
0.0290631
-0.145973
0.118268
-0.0342609
0.140638
-0.0390236
-0.0554307
0.136847
-0.0878333
-0.113553
0.101973
-0.0377968
0.137234
-0.0946966
0.0944105
0.000890882
-0.0237498
0.0683981
0.0400573
0.139128
-0.0993055
0.00203994
-0.131551
0.153696
-0.0331028
0.0968076
0.0202403
0.18182
-0.071025
-0.0465757
0.0464374
-0.168046
0.0608914
-0.0601516
-0.529952
0.557245
-0.180427
0.610907
-0.296948
0.494621
-0.307579
0.386664
-0.410079
0.474453
-0.238304
-0.329814
0.0969803
-0.213472
0.703628
-0.388697
-0.267622
0.651265
0.0544691
-0.291807
0.088042
0.248845
-0.290551
-0.0922347
-0.113471
0.150114
-0.25257
0.0285299
0.228299
-0.0883539
-0.194805
0.103501
-0.100257
0.0162648
0.0806923
0.615769
0.533377
-0.166924
0.759487
0.516484
0.425049
0.308083
-0.0447025
0.597458
0.0498792
0.622633
0.35932
-0.162801
0.12057
0.160343
0.302286
-0.0499281
0.381918
0.0743624
0.196941
0.318228
0.336218
0.153349
0.670893
0.754185
0.553575
0.511926
0.0396542
0.267212
-0.137475
-0.126184
0.282247
0.619983
0.119197
-0.0980254
0.157427
-0.0596373
0.0263765
0.1378
-0.0800052
0.137855
-0.0519155
0.111731
-0.0826677
0.137141
-0.0188727
0.106377
0.0981172
0.0563002
0.0421508
-0.149928
0.0620944
-0.0479551
-0.119647
0.0818502
0.145729
-0.0513182
-0.108755
0.109646
-0.132966
0.109216
-0.0403572
0.082602
0.0133977
0.122659
0.0194807
0.0233538
-0.125718
0.127758
0.0279788
-0.129862
0.0967594
0.144077
-0.0472698
-0.111148
0.131388
0.09649
-0.167515
-0.179097
0.132521
-0.132659
0.132812
-0.0719201
0.0839258
0.602004
-0.0447589
0.421578
0.343285
0.197674
0.0790847
0.0643741
0.103442
-0.341746
0.344433
-0.247452
0.0353729
0.753507
0.262568
0.275962
-0.221492
0.215053
-0.127011
-0.0145894
-0.239063
0.146828
-0.255741
0.14227
-0.0889489
-0.0242703
0.200904
-0.172374
0.11255
0.229951
-0.126451
-0.142858
0.042601
-0.126593
0.148972
-0.0682799
0.146179
0.469591
-0.031259
0.564636
0.343007
0.41648
-0.103869
0.620353
0.571227
0.65109
0.577931
0.493589
0.139486
0.308109
-0.187539
0.284318
-0.123975
-0.292723
0.242795
-0.300611
0.374973
0.30177
-0.104828
-0.0220587
0.340286
-0.0870547
0.423273
0.305288
-0.151939
0.104063
0.56683
0.268773
0.485411
0.657638
-0.151157
0.663083
-0.180239
0.219893
0.278179
0.141028
0.140704
0.102008
-0.139186
0.759169
0.0788399
0.0594015
-0.113588
0.0539508
-0.0872116
0.0551322
0.05785
0.0938132
0.110995
-0.129868
0.149544
-0.0431661
0.139838
-0.0417209
0.112149
-0.0558491
-0.0686743
0.110825
0.13408
-0.0719857
-0.128289
0.0803336
-0.0464385
-0.129826
0.0785075
-0.02332
-0.0206459
0.126517
0.137368
-0.117888
-0.076289
0.0996428
0.0166095
0.13151
-0.103532
0.153095
-0.0563359
-0.141387
0.0941175
-0.00999898
0.169928
-0.0734383
-0.0349938
0.000152086
-0.141581
0.0696609
-0.0576553
0.38262
-0.427379
0.595777
-0.1742
-0.213212
0.556497
0.663249
-0.465575
0.398218
-0.319133
0.455157
-0.390783
0.368623
-0.265182
0.00268661
-0.331151
0.0836983
-0.295778
0.493393
0.260115
-0.443895
0.706463
-0.00643972
-0.246805
0.119794
0.232485
-0.247075
-0.108913
-0.104535
-0.216348
0.127399
-0.185493
0.161222
0.0575775
-0.0729431
-0.190341
0.0638906
-0.14774
0.0223788
0.101648
0.438332
0.566821
-0.320416
0.736896
0.299937
0.207251
0.363976
0.274507
0.376583
-0.0207999
0.598731
0.505713
-0.0121238
-0.204533
0.344019
0.0153863
0.0967793
-0.285276
0.161301
0.0382617
0.00115917
0.25528
0.119693
-0.308692
0.203864
0.233221
0.253232
0.272116
-0.00340456
0.19208
-0.00808971
0.57492
-0.334309
0.603083
0.477322
0.518452
0.328773
-0.0653828
0.263506
-0.122478
0.243392
-0.102688
0.232858
-0.13085
0.407518
0.351651
0.131969
-0.0531295
0.142677
-0.0832753
0.131918
-0.0779674
0.0623319
0.133847
-0.0787149
0.118801
-0.060951
0.104054
-0.010241
0.105497
0.00549823
-0.0177187
0.096672
0.0637762
0.077998
0.0654059
-0.0190006
-0.136535
0.064549
-0.0562011
0.0909299
0.124016
-0.0455082
0.108649
-0.117225
0.0965789
0.0502277
-0.0182449
-0.104236
0.120846
0.0272743
0.0495637
-0.115629
0.059293
0.138453
-0.0443356
-0.117884
0.107885
0.0712587
-0.144697
0.0896015
-0.124595
-0.12292
0.123072
-0.0532592
0.0807978
0.561438
-0.178818
0.23587
0.382565
0.387239
0.112603
-0.0673577
0.136024
-0.0221597
-0.231247
-0.033935
-0.22856
0.315307
-0.231608
-0.0632924
0.472593
0.600381
-0.340266
0.75915
-0.0526874
-0.235377
0.228937
-0.115582
-0.0181377
-0.26029
0.151377
-0.224575
0.12004
-0.0551253
-0.132891
-0.146222
0.203799
-0.18186
0.108917
0.208909
-0.145018
-0.137826
-0.0099138
-0.115448
-0.0137991
0.645583
-0.253097
0.819918
0.196185
0.540711
0.80565
0.638483
0.572768
0.586607
0.234528
-0.219141
0.221006
-0.124226
0.254905
-0.093604
-0.255074
0.293336
-0.251599
0.252759
0.268434
-0.14874
-0.0477355
-0.0658657
0.299087
-0.0880573
0.341289
-0.248838
0.520954
-0.257562
0.254157
-0.0654819
0.0785739
0.496346
0.112212
0.490871
0.589533
0.597026
-0.25554
0.584313
0.167476
0.245511
-0.0977443
0.132656
0.120914
0.142823
0.416496
-0.338905
0.690556
0.0895473
0.0486429
-0.1231
0.0451328
-0.0607683
0.0400861
0.0431033
-0.107041
0.0967995
-0.0937867
0.0992849
-0.0856348
0.0679161
0.100994
-0.00432246
-0.0758599
0.139636
-0.00763678
0.107927
-0.0425215
0.0889267
0.148753
-0.0842039
-0.101657
0.0454562
-0.0107275
0.0169751
-0.109447
0.0639391
-0.00857532
-0.01905
0.107019
0.0990545
-0.0488268
0.0808096
0.00296127
0.117733
-0.0904589
0.135972
-0.0864078
0.130985
-0.0716921
-0.114333
0.0699976
-0.0064479
-0.0577091
0.128968
-0.0550955
-0.183729
0.059134
-0.060657
-0.143118
0.0898588
-0.0623202
-0.492956
0.314137
-0.257085
0.485913
-0.103349
0.644845
-0.257606
0.598516
-0.428617
0.361259
-0.292593
0.311195
-0.333355
0.262033
-0.295968
0.0867466
0.122928
-0.354536
0.207685
-0.270977
-0.127724
0.600317
0.472657
0.418884
-0.494532
0.441845
-0.222962
0.107379
0.177924
-0.196062
-0.0731981
-0.102921
-0.219172
0.164046
-0.155958
0.0230668
0.0626869
0.0219394
-0.110255
0.0144478
-0.159466
0.126553
-0.136467
-0.134926
0.121127
0.392486
0.602289
0.217629
0.122507
0.418204
0.511025
0.294625
0.306533
0.331951
0.260073
0.312695
-0.103861
0.690468
-0.0205461
0.00186404
0.130679
-0.247035
0.153431
0.255898
0.0374375
0.337439
-0.0846808
0.202568
0.188699
-0.213003
0.165267
0.211029
0.0924511
0.265414
0.0411544
0.190416
0.0702024
0.426143
-0.0798219
0.570693
0.659736
0.258121
0.40924
0.175073
-0.0795595
0.15214
0.256542
-0.123887
0.219356
-0.0984423
0.237098
-0.0942753
0.428965
0.347282
0.343274
0.116394
-0.0268463
0.129241
-0.0805977
0.119307
-0.0741745
0.0402261
-0.0829966
0.123083
-0.0649816
0.108085
0.0318179
-0.124971
0.031184
0.0234251
-0.0570546
-0.0829095
0.0785871
0.0567265
-0.10172
0.0940836
0.106231
-0.0205205
-0.112495
0.0282914
-0.0670392
0.0872159
-0.0979433
-0.113168
0.130144
-0.0492294
-0.090802
0.0822266
0.10386
-0.12291
0.0581925
0.134048
-0.0532383
-0.089584
0.0925453
0.0281492
0.0455127
0.0445772
0.0321682
0.133918
-0.0639205
-0.116395
0.109947
-0.132104
0.0743945
-0.00595817
-0.132454
0.0773589
-0.0733204
-0.150265
0.0896078
-0.060406
0.0715979
0.587748
-0.273611
-0.486839
0.229753
0.541496
0.330142
0.103984
0.498661
-0.137402
-0.429604
0.137011
-0.118409
-0.0713218
-0.209221
0.311802
-0.188874
-0.146852
-0.0930531
0.496455
-0.16294
0.635597
0.75848
-0.339596
0.599376
-0.157531
0.260547
-0.153168
0.0644858
0.145943
-0.219142
-0.175974
0.0730527
0.00808838
0.19972
-0.176653
0.167958
-0.105271
0.164876
-0.142936
0.0546206
-0.127984
0.142432
-0.0329131
-0.0153397
0.699019
0.604113
-0.371399
0.589029
0.633533
0.678277
-0.297351
0.591976
0.644645
0.393117
-0.222509
0.201963
-0.190899
0.192763
-0.0602206
0.23939
-0.0859587
-0.142646
0.180084
-0.287957
0.203276
-0.0763951
0.278963
0.308729
-0.12003
-0.12269
0.287248
-0.0762189
0.379699
-0.21627
0.481684
0.221246
-0.180091
0.23652
-0.0461034
0.684264
0.329418
0.0410442
0.529649
0.126716
0.53302
-0.213842
0.388915
0.176983
0.0232844
0.173881
0.223135
-0.070995
0.0954699
0.138656
0.12886
0.776246
-0.399651
0.742925
0.0255917
-0.113429
0.0865828
0.0158115
0.0387097
-0.1246
0.0504255
-0.084374
0.0250883
0.0213623
-0.0642257
0.0960436
-0.0687378
0.0999218
-0.0881794
0.111604
0.0370289
-0.0057869
0.0870408
-0.0303144
0.0977916
0.00843989
0.077271
-0.0824311
0.110723
0.0201767
0.0361045
0.0659179
-0.0668059
0.0175765
-0.0406836
-0.0695681
0.127761
0.0239391
0.0745224
-0.0238498
0.121338
-0.0931893
0.100909
-0.0553964
0.136658
-0.0920812
0.107894
-0.0757259
0.0460267
-0.0547447
0.118339
-0.0439445
0.112381
-0.148751
0.0754302
-0.0591428
-0.155986
0.0955803
-0.0843884
-0.512946
0.239335
0.0118224
-0.283193
0.580442
-0.0389459
0.655363
-0.325221
0.684426
0.260698
-0.3981
0.483166
-0.346155
0.28579
-0.404199
0.237068
-0.30839
0.102581
-0.307194
0.11832
0.121121
-0.267973
-0.213862
0.120809
-0.119242
0.615698
0.59554
0.516354
0.25978
0.526895
-0.214656
0.0614879
-0.149376
-0.0300307
-0.0194212
-0.141603
-0.168565
0.0250218
-0.18165
0.0763788
0.222336
-0.167715
-0.107228
-0.0207558
-0.0392185
-0.140141
-0.132236
0.116896
0.327619
0.00780012
0.596313
0.582426
0.00660214
0.483597
0.149936
0.281157
0.397119
0.499147
0.092829
0.302899
0.341746
-0.165215
0.558332
-0.0297454
0.256273
-0.05431
0.179169
-0.197419
0.11146
0.113626
0.204952
-0.024868
0.271475
-0.0681986
0.232334
0.202744
0.151446
0.0985553
0.373659
0.00603999
0.15739
0.267842
0.0564285
0.158848
0.284613
0.424009
-0.0945909
0.465053
0.656364
0.817633
0.294324
-0.020436
0.153531
0.102886
-0.0992347
0.194705
0.216642
-0.0779858
0.23473
-0.10587
0.526334
0.249912
0.427513
0.315412
-0.0838357
0.109427
0.0027471
0.100002
-0.0841901
0.107988
-0.069278
0.109611
-0.0591851
-0.0797936
0.104882
-0.0935533
0.114916
0.01625
-0.102432
0.0336938
0.0117424
0.101327
0.0102779
-0.0654027
0.0812539
0.0710122
-0.0837852
0.0922251
0.0104651
-0.0994751
0.017044
0.12763
-0.0169072
-0.0792984
0.0939906
-0.057886
0.0847142
-0.0187962
-0.0765869
0.0941634
0.0687438
-0.0851454
0.109084
0.113501
-0.0389782
0.0974887
0.00771981
0.0812621
0.0158128
-0.120584
0.0448582
0.110075
-0.0640486
-0.132285
0.0775406
-0.133336
0.0893912
-0.019855
-0.0568551
-0.146337
0.0871944
-0.0507569
0.0256869
0.49951
-0.260175
0.426079
-0.414257
0.142886
-0.460365
0.42142
0.194998
0.174289
-0.153559
0.0850659
-0.0603642
-0.167131
-0.255315
-0.0530747
-0.152734
-0.186073
0.315108
-0.196788
-0.147164
0.450483
0.0282912
0.567249
-0.0349693
0.551323
-0.451989
0.711769
0.0749056
0.251997
-0.190509
0.102621
0.148567
-0.178597
0.183223
-0.202644
0.00696339
0.0537707
0.158369
-0.133348
0.1425
-0.0661208
-0.0093458
-0.140715
0.119959
-0.152596
0.113378
-0.023245
0.630518
0.590227
0.597874
0.63712
0.764755
0.649082
0.738865
0.651161
-0.209055
0.17931
-0.212328
0.158018
-0.029886
-0.125268
0.236727
0.180448
-0.0668222
0.15558
-0.209015
0.140816
0.0116356
0.220698
-0.0940674
0.296812
-0.144277
0.295722
0.252307
-0.153752
-0.304871
0.310911
-0.21123
0.36862
-0.145921
0.413763
-0.187311
0.243739
-0.0284624
-0.197522
0.662576
-0.0978747
0.754239
0.403532
0.414101
-0.155365
0.449689
-0.213909
0.193473
0.121203
0.0323281
0.224088
0.117407
-0.0192044
0.156744
0.118219
0.535925
0.677425
0.718944
-0.0796932
0.0824403
0.0203084
0.0237976
0.0403325
-0.118501
0.0593163
0.0113286
0.0495129
0.100964
0.0830008
-0.049307
-0.0831069
0.0948494
-0.0991449
0.109423
-0.0372474
-0.0349599
0.105972
0.0438445
0.0661218
0.0261033
0.0844995
-0.0674555
-0.0936646
0.0767574
0.0146922
0.0556145
-0.100303
0.0815071
0.1073
-0.013137
-0.0518404
0.0242684
0.0967414
0.0123431
0.0577632
0.104763
-0.00727422
-0.0690201
0.0767399
0.012242
-0.0735509
0.0893637
0.105969
-0.0611111
0.0407142
-0.0557951
0.143161
-0.0537699
0.123306
-0.136821
0.0799655
-0.0496263
0.0966957
-0.147453
0.0997
-0.0740131
-0.410353
0.150178
-0.267467
0.57736
-0.155941
0.525985
-0.330988
0.48433
-0.310041
-0.308439
0.15488
-0.223373
-0.266882
0.206517
-0.262783
0.0956515
0.183136
-0.236211
0.162373
0.0922469
-0.27832
-0.27801
0.0812225
-0.212215
0.0650506
-0.237398
0.687881
-0.665341
0.693632
0.53228
0.313925
0.046428
-0.574339
0.649244
-0.175149
-0.0153599
-0.109594
0.0046256
-0.214127
0.0114832
-0.168185
-0.160357
0.00915209
-0.161887
0.0957665
0.146431
-0.155777
-0.111306
-0.0294089
-0.0326371
-0.0485094
-0.134551
0.0570465
0.53318
-0.0979309
0.695805
0.55934
0.0777801
0.312347
0.452407
0.659051
-0.00996903
0.47036
0.268506
0.477034
0.174127
-0.0330178
0.209044
-0.0510264
-0.166652
0.136766
0.0682054
0.0700755
0.142222
0.193473
-0.0378929
0.0432921
0.258913
-0.118097
-0.196773
0.208408
0.126631
-0.00805944
0.114636
0.0989493
0.0899876
0.0996807
0.385406
-0.0167861
0.239485
0.258398
0.165011
0.252167
0.564701
0.186857
0.567382
0.600958
0.165632
-0.0567197
0.19796
0.163984
-0.046577
0.14478
0.181932
-0.0251883
-0.063067
0.181286
-0.27366
0.809585
0.403765
0.366245
0.352699
0.118034
-0.0355938
0.0999142
-0.0796059
0.0936679
-0.0698702
0.0999763
-0.0596437
0.100084
-0.0407681
-0.0713492
0.0826779
0.10046
-0.0509467
0.0296149
-0.000106133
0.0511526
-0.00429554
0.074463
0.0687246
0.089339
-0.0454945
-0.0770274
0.103131
-0.00916513
-0.116727
0.0492711
0.0996651
-0.0229077
-0.102034
-0.0464199
0.00699709
0.0936669
-0.0121598
-0.0938873
0.0807503
0.0661937
0.102416
-0.0785201
0.0908632
0.106431
-0.0486677
0.0946214
-0.101896
0.124798
-0.0480584
0.0888818
-0.0766398
0.0324184
0.128641
-0.0392772
-0.111717
0.0506061
0.109574
-0.06886
-0.129577
0.0737816
-0.126393
0.0726229
-0.011245
-0.0496111
-0.127513
0.0778871
-0.0308176
-0.0477526
0.0355611
0.445468
-0.29529
-0.430361
0.162894
0.00302159
0.370044
0.153342
0.135427
-0.27548
-0.323191
0.0998182
-0.304219
0.0373377
-0.116674
-0.0796467
-0.208568
-0.0738375
-0.185763
-0.21327
-0.177467
0.258689
0.410145
0.277737
0.434808
0.258824
0.393469
0.138811
0.707394
-0.448036
0.494464
0.201208
0.183828
-0.199187
0.169706
-0.2793
0.167812
-0.163186
0.219584
-0.208101
-0.000373945
-0.185496
0.0251393
-0.129158
0.13831
-0.0333913
-0.0390647
-0.0174673
-0.132599
0.10319
-0.141264
0.108627
-0.152666
0.104156
0.616387
0.435249
0.69715
0.54814
0.580853
-0.173265
0.625672
0.485786
0.467065
0.584271
-0.211805
0.178787
-0.175368
0.124341
-0.0750393
-0.150297
0.218503
0.180657
-0.110581
0.212864
-0.0706426
0.174971
0.200957
-0.157665
0.08286
0.119002
0.0894061
0.245633
0.237574
-0.16037
0.275007
-0.141352
0.240302
0.226187
-0.136199
0.265419
-0.165739
-0.282094
0.265308
-0.166338
0.405822
-0.116416