/*--------------------------------*- C++ -*----------------------------------*\
| =========                 |                                                 |
| \\      /  F ield         | OpenFOAM: The Open Source CFD Toolbox           |
|  \\    /   O peration     | Version:  v2012                                 |
|   \\  /    A nd           | Website:  www.openfoam.com                      |
|    \\/     M anipulation  |                                                 |
\*---------------------------------------------------------------------------*/
FoamFile
{
    version     2.0;
    format      ascii;
    class       pointVectorField;
    location    "0.1";
    object      pointDisplacement;
}
// * * * * * * * * * * * * * * * * * * * * * * * * * * * * * * * * * * * * * //

dimensions      [0 1 0 0 0 0 0];


internalField   uniform (0 0 0);

boundaryField
{
    airfoil
    {
        type            PIDangularDisplacement;
        axis            (0 0 1);
        origin          (0.25 0 0);
        angle0          0;
        angle           0;
        amplitude       0.261799;
        omega           0;
        omegamin        -0.7;
        p0              nonuniform List<vector> 
268
(
(0.703168 -0.0363301 0)
(0.713791 -0.0352842 0)
(0.713791 -0.0352842 -1)
(0.703168 -0.0363301 -1)
(0.724196 -0.0342446 0)
(0.724196 -0.0342446 -1)
(0.734379 -0.0332129 0)
(0.734379 -0.0332129 -1)
(0.744335 -0.0321907 0)
(0.744335 -0.0321907 -1)
(0.754061 -0.0311792 0)
(0.754061 -0.0311792 -1)
(0.763554 -0.0301797 0)
(0.763554 -0.0301797 -1)
(0.772813 -0.0291934 0)
(0.772813 -0.0291934 -1)
(0.781834 -0.0282213 0)
(0.781834 -0.0282213 -1)
(0.790618 -0.0272645 0)
(0.790618 -0.0272645 -1)
(0.799163 -0.0263238 0)
(0.799163 -0.0263238 -1)
(0.807471 -0.0253999 0)
(0.807471 -0.0253999 -1)
(0.815542 -0.0244936 0)
(0.815542 -0.0244936 -1)
(0.823376 -0.0236055 0)
(0.823376 -0.0236055 -1)
(0.830976 -0.0227362 0)
(0.830976 -0.0227362 -1)
(0.838343 -0.0218859 0)
(0.838343 -0.0218859 -1)
(0.845481 -0.0210552 0)
(0.845481 -0.0210552 -1)
(0.852391 -0.0202443 0)
(0.852391 -0.0202443 -1)
(0.859078 -0.0194534 0)
(0.859078 -0.0194534 -1)
(0.865543 -0.0186828 0)
(0.865543 -0.0186828 -1)
(0.871792 -0.0179325 0)
(0.871792 -0.0179325 -1)
(0.877828 -0.0172026 0)
(0.877828 -0.0172026 -1)
(0.883655 -0.0164931 0)
(0.883655 -0.0164931 -1)
(0.889278 -0.015804 0)
(0.889278 -0.015804 -1)
(0.8947 -0.015135 0)
(0.8947 -0.015135 -1)
(0.899927 -0.0144862 0)
(0.899927 -0.0144862 -1)
(0.904964 -0.0138573 0)
(0.904964 -0.0138573 -1)
(0.909814 -0.0132482 0)
(0.909814 -0.0132482 -1)
(0.914483 -0.0126585 0)
(0.914483 -0.0126585 -1)
(0.918976 -0.012088 0)
(0.918976 -0.012088 -1)
(0.923298 -0.0115364 0)
(0.923298 -0.0115364 -1)
(0.927454 -0.0110034 0)
(0.927454 -0.0110034 -1)
(0.931448 -0.0104886 0)
(0.931448 -0.0104886 -1)
(0.935286 -0.00999172 0)
(0.935286 -0.00999172 -1)
(0.938972 -0.00951235 0)
(0.938972 -0.00951235 -1)
(0.942511 -0.00905006 0)
(0.942511 -0.00905006 -1)
(0.945909 -0.00860452 0)
(0.945909 -0.00860452 -1)
(0.949169 -0.00817527 0)
(0.949169 -0.00817527 -1)
(0.952296 -0.00776191 0)
(0.952296 -0.00776191 -1)
(0.955296 -0.00736403 0)
(0.955296 -0.00736403 -1)
(0.958172 -0.00698121 0)
(0.958172 -0.00698121 -1)
(0.960928 -0.00661301 0)
(0.960928 -0.00661301 -1)
(0.96357 -0.006259 0)
(0.96357 -0.006259 -1)
(0.966101 -0.00591879 0)
(0.966101 -0.00591879 -1)
(0.968526 -0.0055919 0)
(0.968526 -0.0055919 -1)
(0.970848 -0.00527798 0)
(0.970848 -0.00527798 -1)
(0.973071 -0.00497658 0)
(0.973071 -0.00497658 -1)
(0.975199 -0.00468727 0)
(0.975199 -0.00468727 -1)
(0.977236 -0.00440967 0)
(0.977236 -0.00440967 -1)
(0.979185 -0.00414339 0)
(0.979185 -0.00414339 -1)
(0.98105 -0.00388803 0)
(0.98105 -0.00388803 -1)
(0.982834 -0.00364319 0)
(0.982834 -0.00364319 -1)
(0.984541 -0.00340851 0)
(0.984541 -0.00340851 -1)
(0.986173 -0.00318363 0)
(0.986173 -0.00318363 -1)
(0.987733 -0.00296818 0)
(0.987733 -0.00296818 -1)
(0.989225 -0.00276181 0)
(0.989225 -0.00276181 -1)
(0.990651 -0.00256418 0)
(0.990651 -0.00256418 -1)
(0.992014 -0.00237498 0)
(0.992014 -0.00237498 -1)
(0.993317 -0.00219384 0)
(0.993317 -0.00219384 -1)
(0.994562 -0.00202048 0)
(0.994562 -0.00202048 -1)
(0.995751 -0.0018546 0)
(0.995751 -0.0018546 -1)
(0.996887 -0.00169589 0)
(0.996887 -0.00169589 -1)
(0.997973 -0.00154407 0)
(0.997973 -0.00154407 -1)
(0.99901 -0.00139886 0)
(0.99901 -0.00139886 -1)
(1 -0.00126 0)
(1 -0.00126 -1)
(1 0.00076 0)
(1 0.00126 0)
(1 0.00126 -1)
(1 0.00076 -1)
(1 0.000254006 0)
(1 0.000254006 -1)
(1 -0.000254006 0)
(1 -0.000254006 -1)
(1 -0.00076 0)
(1 -0.00076 -1)
(0.713791 0.0352842 0)
(0.703168 0.0363301 0)
(0.703168 0.0363301 -1)
(0.713791 0.0352842 -1)
(0.724196 0.0342446 0)
(0.724196 0.0342446 -1)
(0.734379 0.0332129 0)
(0.734379 0.0332129 -1)
(0.744335 0.0321907 0)
(0.744335 0.0321907 -1)
(0.754061 0.0311792 0)
(0.754061 0.0311792 -1)
(0.763554 0.0301797 0)
(0.763554 0.0301797 -1)
(0.772813 0.0291934 0)
(0.772813 0.0291934 -1)
(0.781834 0.0282213 0)
(0.781834 0.0282213 -1)
(0.790618 0.0272645 0)
(0.790618 0.0272645 -1)
(0.799163 0.0263238 0)
(0.799163 0.0263238 -1)
(0.807471 0.0253999 0)
(0.807471 0.0253999 -1)
(0.815542 0.0244936 0)
(0.815542 0.0244936 -1)
(0.823376 0.0236055 0)
(0.823376 0.0236055 -1)
(0.830976 0.0227362 0)
(0.830976 0.0227362 -1)
(0.838343 0.0218859 0)
(0.838343 0.0218859 -1)
(0.845481 0.0210552 0)
(0.845481 0.0210552 -1)
(0.852391 0.0202443 0)
(0.852391 0.0202443 -1)
(0.859078 0.0194534 0)
(0.859078 0.0194534 -1)
(0.865543 0.0186828 0)
(0.865543 0.0186828 -1)
(0.871792 0.0179325 0)
(0.871792 0.0179325 -1)
(0.877828 0.0172026 0)
(0.877828 0.0172026 -1)
(0.883655 0.0164931 0)
(0.883655 0.0164931 -1)
(0.889278 0.015804 0)
(0.889278 0.015804 -1)
(0.8947 0.015135 0)
(0.8947 0.015135 -1)
(0.899927 0.0144862 0)
(0.899927 0.0144862 -1)
(0.904964 0.0138573 0)
(0.904964 0.0138573 -1)
(0.909814 0.0132482 0)
(0.909814 0.0132482 -1)
(0.914483 0.0126585 0)
(0.914483 0.0126585 -1)
(0.918976 0.012088 0)
(0.918976 0.012088 -1)
(0.923298 0.0115364 0)
(0.923298 0.0115364 -1)
(0.927454 0.0110034 0)
(0.927454 0.0110034 -1)
(0.931448 0.0104886 0)
(0.931448 0.0104886 -1)
(0.935286 0.00999172 0)
(0.935286 0.00999172 -1)
(0.938972 0.00951235 0)
(0.938972 0.00951235 -1)
(0.942511 0.00905006 0)
(0.942511 0.00905006 -1)
(0.945909 0.00860452 0)
(0.945909 0.00860452 -1)
(0.949169 0.00817527 0)
(0.949169 0.00817527 -1)
(0.952296 0.00776191 0)
(0.952296 0.00776191 -1)
(0.955296 0.00736403 0)
(0.955296 0.00736403 -1)
(0.958172 0.00698121 0)
(0.958172 0.00698121 -1)
(0.960928 0.00661301 0)
(0.960928 0.00661301 -1)
(0.96357 0.006259 0)
(0.96357 0.006259 -1)
(0.966101 0.00591879 0)
(0.966101 0.00591879 -1)
(0.968526 0.0055919 0)
(0.968526 0.0055919 -1)
(0.970848 0.00527798 0)
(0.970848 0.00527798 -1)
(0.973071 0.00497658 0)
(0.973071 0.00497658 -1)
(0.975199 0.00468727 0)
(0.975199 0.00468727 -1)
(0.977236 0.00440967 0)
(0.977236 0.00440967 -1)
(0.979185 0.00414339 0)
(0.979185 0.00414339 -1)
(0.98105 0.00388803 0)
(0.98105 0.00388803 -1)
(0.982834 0.00364319 0)
(0.982834 0.00364319 -1)
(0.984541 0.00340851 0)
(0.984541 0.00340851 -1)
(0.986173 0.00318363 0)
(0.986173 0.00318363 -1)
(0.987733 0.00296818 0)
(0.987733 0.00296818 -1)
(0.989225 0.00276181 0)
(0.989225 0.00276181 -1)
(0.990651 0.00256418 0)
(0.990651 0.00256418 -1)
(0.992014 0.00237498 0)
(0.992014 0.00237498 -1)
(0.993317 0.00219384 0)
(0.993317 0.00219384 -1)
(0.994562 0.00202048 0)
(0.994562 0.00202048 -1)
(0.995751 0.0018546 0)
(0.995751 0.0018546 -1)
(0.996887 0.00169589 0)
(0.996887 0.00169589 -1)
(0.997973 0.00154407 0)
(0.997973 0.00154407 -1)
(0.99901 0.00139886 0)
(0.99901 0.00139886 -1)
)
;
        t0              0;
        P               -0.3097;
        I               -0.4533;
        D               0;
        value           uniform (0 0 0);
    }
    freestream
    {
        type            fixedValue;
        value           uniform (0 0 0);
    }
    outlet
    {
        type            fixedValue;
        value           uniform (0 0 0);
    }
    BaseAndTop
    {
        type            empty;
    }
    procBoundary1to0
    {
        type            processor;
    }
}


// ************************************************************************* //
