/*--------------------------------*- C++ -*----------------------------------*\
| =========                 |                                                 |
| \\      /  F ield         | OpenFOAM: The Open Source CFD Toolbox           |
|  \\    /   O peration     | Version:  v2012                                 |
|   \\  /    A nd           | Website:  www.openfoam.com                      |
|    \\/     M anipulation  |                                                 |
\*---------------------------------------------------------------------------*/
FoamFile
{
    version     2.0;
    format      ascii;
    class       volScalarField;
    location    "0.1";
    object      rAU;
}
// * * * * * * * * * * * * * * * * * * * * * * * * * * * * * * * * * * * * * //

dimensions      [-1 3 1 0 0 0 0];


internalField   nonuniform List<scalar> 
13611
(
1.93098e-07
1.91623e-07
1.96264e-07
1.92512e-07
1.93457e-07
1.93085e-07
1.94471e-07
1.93862e-07
1.90325e-07
1.93687e-07
1.93432e-07
1.94115e-07
1.94698e-07
1.9619e-07
1.85875e-07
1.94522e-07
1.93947e-07
1.93e-07
1.95593e-07
1.91967e-07
1.94092e-07
1.85082e-07
1.857e-07
1.8874e-07
1.88829e-07
1.9406e-07
1.94104e-07
1.95392e-07
1.96239e-07
1.86938e-07
1.87899e-07
1.85693e-07
1.89212e-07
1.9396e-07
1.95505e-07
1.92222e-07
1.92195e-07
1.94042e-07
1.84476e-07
1.88187e-07
1.88964e-07
1.87551e-07
1.87536e-07
1.93655e-07
1.9436e-07
1.93814e-07
1.96208e-07
1.9567e-07
1.85787e-07
1.81787e-07
1.86064e-07
1.88034e-07
1.87701e-07
1.89655e-07
1.92874e-07
1.93289e-07
1.9209e-07
1.94631e-07
1.9406e-07
1.94402e-07
1.85479e-07
1.8294e-07
1.86209e-07
1.86118e-07
1.81412e-07
1.85883e-07
1.84558e-07
1.89094e-07
1.88262e-07
1.91786e-07
1.93912e-07
1.94699e-07
1.96215e-07
1.94116e-07
1.85505e-07
1.83848e-07
1.8377e-07
1.81399e-07
1.86081e-07
1.85581e-07
1.84914e-07
1.88059e-07
1.90047e-07
1.87581e-07
1.92234e-07
1.94042e-07
1.93937e-07
1.94015e-07
1.93641e-07
1.85218e-07
1.77974e-07
1.83264e-07
1.85491e-07
1.82394e-07
1.78876e-07
1.85322e-07
1.84699e-07
1.88128e-07
1.87146e-07
1.85689e-07
1.90972e-07
1.93279e-07
1.94068e-07
1.94356e-07
1.93571e-07
1.79561e-07
1.87133e-07
1.87056e-07
1.85554e-07
1.82716e-07
1.82173e-07
1.80606e-07
1.85323e-07
1.81665e-07
1.83564e-07
1.85859e-07
1.87572e-07
1.87789e-07
1.89286e-07
1.95619e-07
1.95499e-07
1.939e-07
1.96296e-07
1.93519e-07
1.91595e-07
1.82047e-07
1.87022e-07
1.87217e-07
1.80757e-07
1.84761e-07
1.78148e-07
1.84568e-07
1.8277e-07
1.86017e-07
1.876e-07
1.89944e-07
1.88846e-07
1.93071e-07
1.94399e-07
1.89811e-07
1.95519e-07
1.93049e-07
1.93356e-07
1.79847e-07
1.7934e-07
1.80771e-07
1.78597e-07
1.82709e-07
1.85352e-07
1.78557e-07
1.77947e-07
1.85136e-07
1.81895e-07
1.8369e-07
1.86841e-07
1.89648e-07
1.87501e-07
1.95267e-07
1.95245e-07
1.94431e-07
1.89327e-07
1.89169e-07
1.96301e-07
1.95466e-07
1.93677e-07
1.77093e-07
1.79057e-07
1.79774e-07
1.81568e-07
1.78015e-07
1.81898e-07
1.82128e-07
1.77753e-07
1.77134e-07
1.82696e-07
1.82719e-07
1.78942e-07
1.83725e-07
1.84999e-07
1.8457e-07
1.87415e-07
1.91428e-07
1.93913e-07
1.90913e-07
1.86713e-07
1.8879e-07
1.95224e-07
1.94598e-07
1.74524e-07
1.77719e-07
1.82199e-07
1.7713e-07
1.80757e-07
1.76631e-07
1.81203e-07
1.83382e-07
1.77737e-07
1.78145e-07
1.82612e-07
1.8349e-07
1.84392e-07
1.84186e-07
1.87095e-07
1.8377e-07
1.92443e-07
1.95107e-07
1.93832e-07
1.91875e-07
1.8887e-07
1.85763e-07
1.95187e-07
1.96304e-07
1.94554e-07
1.73077e-07
1.76813e-07
1.81791e-07
1.77456e-07
1.80141e-07
1.76616e-07
1.8179e-07
1.83638e-07
1.77065e-07
1.7813e-07
1.81628e-07
1.82886e-07
1.83585e-07
1.82e-07
1.8456e-07
1.87539e-07
1.94919e-07
1.92397e-07
1.92846e-07
1.90705e-07
1.85955e-07
1.85693e-07
1.94239e-07
1.9532e-07
1.94734e-07
1.82644e-07
1.74674e-07
1.71276e-07
1.73616e-07
1.79177e-07
1.80041e-07
1.7551e-07
1.82568e-07
1.76254e-07
1.77041e-07
1.81025e-07
1.7781e-07
1.81917e-07
1.7699e-07
1.79125e-07
1.81764e-07
1.85669e-07
1.86145e-07
1.9466e-07
1.92742e-07
1.90699e-07
1.92595e-07
1.87251e-07
1.88745e-07
1.87105e-07
1.95181e-07
1.94302e-07
1.96309e-07
1.8258e-07
1.74463e-07
1.78741e-07
1.71468e-07
1.74156e-07
1.78183e-07
1.78344e-07
1.77752e-07
1.76226e-07
1.78695e-07
1.74744e-07
1.76733e-07
1.79616e-07
1.78352e-07
1.80789e-07
1.79737e-07
1.79659e-07
1.8079e-07
1.80468e-07
1.87082e-07
1.95882e-07
1.95936e-07
1.92134e-07
1.91784e-07
1.884e-07
1.88166e-07
1.86124e-07
1.86979e-07
1.92822e-07
1.95523e-07
1.93563e-07
1.77417e-07
1.76357e-07
1.77804e-07
1.77091e-07
1.7201e-07
1.75482e-07
1.75259e-07
1.78349e-07
1.77572e-07
1.79093e-07
1.75413e-07
1.76625e-07
1.69583e-07
1.7511e-07
1.8117e-07
1.79981e-07
1.8215e-07
1.80079e-07
1.78927e-07
1.79187e-07
1.79122e-07
1.8581e-07
1.95027e-07
1.94347e-07
1.92384e-07
1.91878e-07
1.89485e-07
1.89255e-07
1.84804e-07
1.85981e-07
1.93002e-07
1.94276e-07
1.77371e-07
1.76251e-07
1.76015e-07
1.77423e-07
1.75259e-07
1.75122e-07
1.75132e-07
1.77679e-07
1.77488e-07
1.76739e-07
1.74975e-07
1.76693e-07
1.71972e-07
1.74709e-07
1.76609e-07
1.79152e-07
1.76069e-07
1.8038e-07
1.79477e-07
1.79013e-07
1.79701e-07
1.78959e-07
1.9492e-07
1.94593e-07
1.94913e-07
1.92467e-07
1.91076e-07
1.90672e-07
1.87559e-07
1.88916e-07
1.86201e-07
1.95405e-07
1.96337e-07
1.93477e-07
1.76941e-07
1.71753e-07
1.75528e-07
1.68986e-07
1.758e-07
1.66106e-07
1.66507e-07
1.66277e-07
1.77658e-07
1.77466e-07
1.70713e-07
1.74572e-07
1.77089e-07
1.71857e-07
1.76497e-07
1.75094e-07
1.62301e-07
1.77966e-07
1.67147e-07
1.804e-07
1.7951e-07
1.7891e-07
1.78789e-07
1.81371e-07
1.93286e-07
1.92775e-07
1.9385e-07
1.91521e-07
1.91104e-07
1.90044e-07
1.86772e-07
1.88654e-07
1.82712e-07
1.95852e-07
1.93695e-07
1.95648e-07
1.76678e-07
1.74013e-07
1.65575e-07
1.72198e-07
1.70759e-07
1.69831e-07
1.75553e-07
1.66611e-07
1.73797e-07
1.76167e-07
1.76559e-07
1.7846e-07
1.77039e-07
1.76535e-07
1.78813e-07
1.72117e-07
1.74285e-07
1.77142e-07
1.80072e-07
1.78959e-07
1.79079e-07
1.75329e-07
1.80904e-07
1.94814e-07
1.93621e-07
1.92404e-07
1.9478e-07
1.9462e-07
1.91127e-07
1.91029e-07
1.85389e-07
1.87137e-07
1.80556e-07
1.81121e-07
1.81084e-07
1.94594e-07
1.94325e-07
1.96312e-07
1.95283e-07
1.95627e-07
1.95455e-07
1.72451e-07
1.7105e-07
1.71078e-07
1.71152e-07
1.71807e-07
1.72334e-07
1.75122e-07
1.74811e-07
1.76142e-07
1.76505e-07
1.78009e-07
1.76381e-07
1.73507e-07
1.6869e-07
1.73861e-07
1.78066e-07
1.70627e-07
1.77008e-07
1.81307e-07
1.79452e-07
1.77284e-07
1.76175e-07
1.70462e-07
1.94404e-07
1.93248e-07
1.91461e-07
1.92885e-07
1.94618e-07
1.89964e-07
1.90174e-07
1.85144e-07
1.87333e-07
1.83407e-07
1.81665e-07
1.8174e-07
1.8086e-07
1.93964e-07
1.93404e-07
1.95195e-07
1.95607e-07
1.94435e-07
1.90442e-07
1.95363e-07
1.96142e-07
1.75239e-07
1.7046e-07
1.73523e-07
1.70855e-07
1.75382e-07
1.71181e-07
1.6648e-07
1.64455e-07
1.68095e-07
1.74996e-07
1.75156e-07
1.73225e-07
1.76309e-07
1.65195e-07
1.73944e-07
1.69875e-07
1.74905e-07
1.70146e-07
1.80949e-07
1.78298e-07
1.77198e-07
1.74175e-07
1.72682e-07
1.9541e-07
1.92e-07
1.93085e-07
1.91093e-07
1.95789e-07
1.93899e-07
1.89395e-07
1.86597e-07
1.84719e-07
1.87292e-07
1.82716e-07
1.81714e-07
1.81887e-07
1.81779e-07
1.95723e-07
1.96308e-07
1.9544e-07
1.95178e-07
1.95218e-07
1.94523e-07
1.95844e-07
1.89914e-07
1.95264e-07
1.95619e-07
1.74214e-07
1.72059e-07
1.69207e-07
1.70801e-07
1.72846e-07
1.71026e-07
1.6811e-07
1.67076e-07
1.64932e-07
1.75811e-07
1.74881e-07
1.7319e-07
1.75057e-07
1.64903e-07
1.67354e-07
1.77156e-07
1.67286e-07
1.67149e-07
1.7252e-07
1.71807e-07
1.80879e-07
1.74868e-07
1.76777e-07
1.7534e-07
1.72134e-07
1.93071e-07
1.91236e-07
1.91442e-07
1.9509e-07
1.93606e-07
1.86591e-07
1.85482e-07
1.8241e-07
1.80143e-07
1.85959e-07
1.82805e-07
1.81753e-07
1.81956e-07
1.82685e-07
1.93102e-07
1.9386e-07
1.95524e-07
1.94565e-07
1.95791e-07
1.90165e-07
1.93218e-07
1.89688e-07
1.88694e-07
1.86066e-07
1.95586e-07
1.96122e-07
1.70126e-07
1.69319e-07
1.69671e-07
1.68191e-07
1.69688e-07
1.66906e-07
1.62567e-07
1.66405e-07
1.72357e-07
1.69694e-07
1.66833e-07
1.67271e-07
1.75345e-07
1.68126e-07
1.65044e-07
1.69133e-07
1.73402e-07
1.72538e-07
1.6931e-07
1.72609e-07
1.73647e-07
1.81181e-07
1.77814e-07
1.786e-07
1.7301e-07
1.69615e-07
1.94155e-07
1.91945e-07
1.88536e-07
1.87775e-07
1.90438e-07
1.94609e-07
1.94608e-07
1.8858e-07
1.8712e-07
1.83516e-07
1.82385e-07
1.86046e-07
1.82552e-07
1.81414e-07
1.81513e-07
1.80423e-07
1.95251e-07
1.93908e-07
1.95391e-07
1.95258e-07
1.95244e-07
1.94175e-07
1.92294e-07
1.90278e-07
1.94845e-07
1.89564e-07
1.9077e-07
1.86026e-07
1.94067e-07
1.95913e-07
1.69471e-07
1.60629e-07
1.62326e-07
1.64036e-07
1.68133e-07
1.66939e-07
1.69857e-07
1.63809e-07
1.67094e-07
1.71912e-07
1.66474e-07
1.69528e-07
1.71336e-07
1.71353e-07
1.63079e-07
1.59225e-07
1.71908e-07
1.68788e-07
1.70803e-07
1.72673e-07
1.73442e-07
1.79562e-07
1.78391e-07
1.76512e-07
1.73939e-07
1.73934e-07
1.9288e-07
1.88564e-07
1.88599e-07
1.9024e-07
1.89895e-07
1.93465e-07
1.95264e-07
1.88772e-07
1.87494e-07
1.87236e-07
1.85685e-07
1.8587e-07
1.82717e-07
1.81181e-07
1.80982e-07
1.795e-07
1.93309e-07
1.96343e-07
1.94208e-07
1.95079e-07
1.95663e-07
1.94494e-07
1.88271e-07
1.89602e-07
1.92897e-07
1.95515e-07
1.87783e-07
1.90786e-07
1.87318e-07
1.95957e-07
1.96141e-07
1.7007e-07
1.69958e-07
1.63745e-07
1.68521e-07
1.64203e-07
1.64242e-07
1.64972e-07
1.5694e-07
1.66623e-07
1.67196e-07
1.67203e-07
1.68322e-07
1.68016e-07
1.68953e-07
1.71511e-07
1.60447e-07
1.62832e-07
1.66481e-07
1.72458e-07
1.64338e-07
1.72304e-07
1.72854e-07
1.73688e-07
1.80379e-07
1.76649e-07
1.70854e-07
1.75926e-07
1.7499e-07
1.94126e-07
1.9305e-07
1.9316e-07
1.90539e-07
1.90005e-07
1.94603e-07
1.95565e-07
1.86552e-07
1.87677e-07
1.86858e-07
1.84493e-07
1.85865e-07
1.82318e-07
1.80443e-07
1.77521e-07
1.76293e-07
1.95119e-07
1.95719e-07
1.95107e-07
1.95053e-07
1.94805e-07
1.93055e-07
1.906e-07
1.89914e-07
1.91578e-07
1.95126e-07
1.8777e-07
1.86616e-07
1.87584e-07
1.87233e-07
1.94476e-07
1.69543e-07
1.67138e-07
1.61974e-07
1.66753e-07
1.67099e-07
1.62287e-07
1.64133e-07
1.69601e-07
1.60824e-07
1.69374e-07
1.66235e-07
1.68234e-07
1.68319e-07
1.68983e-07
1.66702e-07
1.69246e-07
1.66042e-07
1.68973e-07
1.73092e-07
1.68844e-07
1.72608e-07
1.73788e-07
1.77856e-07
1.77345e-07
1.7412e-07
1.72659e-07
1.70921e-07
1.93601e-07
1.93148e-07
1.93124e-07
1.91337e-07
1.85974e-07
1.94764e-07
1.95701e-07
1.87236e-07
1.88265e-07
1.84027e-07
1.84871e-07
1.82666e-07
1.83019e-07
1.82569e-07
1.80111e-07
1.75365e-07
1.76509e-07
1.73407e-07
1.95696e-07
1.96341e-07
1.93433e-07
1.95451e-07
1.93965e-07
1.95063e-07
1.89745e-07
1.86906e-07
1.88928e-07
1.92066e-07
1.91378e-07
1.94904e-07
1.94562e-07
1.85333e-07
1.8596e-07
1.88031e-07
1.8575e-07
1.96121e-07
1.9551e-07
1.64513e-07
1.68403e-07
1.68003e-07
1.62197e-07
1.67307e-07
1.63488e-07
1.70565e-07
1.69534e-07
1.60112e-07
1.69292e-07
1.65104e-07
1.66247e-07
1.66394e-07
1.70855e-07
1.67742e-07
1.64165e-07
1.69833e-07
1.66021e-07
1.65566e-07
1.69881e-07
1.60134e-07
1.67225e-07
1.74964e-07
1.6947e-07
1.77293e-07
1.76174e-07
1.73597e-07
1.68844e-07
1.6892e-07
1.92156e-07
1.92755e-07
1.91946e-07
1.91625e-07
1.91255e-07
1.85872e-07
1.8381e-07
1.94841e-07
1.95362e-07
1.82527e-07
1.81379e-07
1.83934e-07
1.84593e-07
1.82685e-07
1.82407e-07
1.82179e-07
1.80272e-07
1.79053e-07
1.7683e-07
1.95533e-07
1.95441e-07
1.95273e-07
1.95923e-07
1.95511e-07
1.95039e-07
1.9438e-07
1.85968e-07
1.85374e-07
1.87804e-07
1.90244e-07
1.8564e-07
1.9428e-07
1.92756e-07
1.84744e-07
1.83503e-07
1.80718e-07
1.85361e-07
1.94638e-07
1.95372e-07
1.71687e-07
1.68346e-07
1.67941e-07
1.68351e-07
1.68958e-07
1.70591e-07
1.63671e-07
1.66804e-07
1.67189e-07
1.64521e-07
1.64818e-07
1.66447e-07
1.70117e-07
1.71899e-07
1.66888e-07
1.65092e-07
1.65056e-07
1.58725e-07
1.63586e-07
1.68543e-07
1.72675e-07
1.65018e-07
1.63942e-07
1.78684e-07
1.78397e-07
1.7431e-07
1.74129e-07
1.92632e-07
1.92335e-07
1.91545e-07
1.91372e-07
1.89803e-07
1.87346e-07
1.86167e-07
1.95596e-07
1.92459e-07
1.76784e-07
1.84393e-07
1.81411e-07
1.83888e-07
1.79826e-07
1.79408e-07
1.8338e-07
1.78656e-07
1.74563e-07
1.79474e-07
1.79244e-07
1.95451e-07
1.96341e-07
1.9458e-07
1.94774e-07
1.96074e-07
1.93404e-07
1.95206e-07
1.87949e-07
1.81879e-07
1.84134e-07
1.8163e-07
1.90274e-07
1.8812e-07
1.86355e-07
1.9494e-07
1.94822e-07
1.94305e-07
1.91965e-07
1.81974e-07
1.81921e-07
1.80345e-07
1.8203e-07
1.7983e-07
1.9617e-07
1.71793e-07
1.69622e-07
1.66629e-07
1.69141e-07
1.69857e-07
1.65325e-07
1.64798e-07
1.6656e-07
1.66442e-07
1.65825e-07
1.63582e-07
1.59142e-07
1.60258e-07
1.57878e-07
1.70544e-07
1.66298e-07
1.63671e-07
1.64923e-07
1.58228e-07
1.66992e-07
1.63063e-07
1.65761e-07
1.658e-07
1.59671e-07
1.76556e-07
1.76555e-07
1.74995e-07
1.75719e-07
1.93547e-07
1.93507e-07
1.90518e-07
1.90698e-07
1.91117e-07
1.91074e-07
1.86914e-07
1.85556e-07
1.92976e-07
1.95025e-07
1.79185e-07
1.85471e-07
1.83917e-07
1.84676e-07
1.80972e-07
1.83664e-07
1.83631e-07
1.78659e-07
1.77172e-07
1.76107e-07
1.76902e-07
1.94965e-07
1.95163e-07
1.96144e-07
1.94798e-07
1.95159e-07
1.94683e-07
1.94649e-07
1.85927e-07
1.83042e-07
1.82752e-07
1.82327e-07
1.88085e-07
1.90795e-07
1.85852e-07
1.94128e-07
1.92241e-07
1.94854e-07
1.91255e-07
1.81292e-07
1.78024e-07
1.82309e-07
1.8277e-07
1.95392e-07
1.60839e-07
1.69414e-07
1.66658e-07
1.63569e-07
1.65273e-07
1.59479e-07
1.65377e-07
1.67853e-07
1.65633e-07
1.55636e-07
1.6685e-07
1.64712e-07
1.65047e-07
1.63232e-07
1.60727e-07
1.61634e-07
1.65627e-07
1.56672e-07
1.59157e-07
1.62284e-07
1.72305e-07
1.65538e-07
1.68327e-07
1.69653e-07
1.71566e-07
1.74321e-07
1.69085e-07
1.68828e-07
1.70908e-07
1.70527e-07
1.933e-07
1.94369e-07
1.914e-07
1.89273e-07
1.90785e-07
1.90052e-07
1.89243e-07
1.82824e-07
1.94638e-07
1.94374e-07
1.84717e-07
1.82331e-07
1.82891e-07
1.81508e-07
1.81489e-07
1.8138e-07
1.77292e-07
1.73453e-07
1.79399e-07
1.6936e-07
1.71151e-07
1.7246e-07
1.95262e-07
1.96341e-07
1.94856e-07
1.94794e-07
1.94049e-07
1.96005e-07
1.93998e-07
1.83331e-07
1.84963e-07
1.82665e-07
1.83077e-07
1.86878e-07
1.86747e-07
1.90317e-07
1.91378e-07
1.85414e-07
1.93891e-07
1.92791e-07
1.95387e-07
1.94866e-07
1.85333e-07
1.82986e-07
1.81731e-07
1.96185e-07
1.64064e-07
1.58563e-07
1.63134e-07
1.63179e-07
1.61656e-07
1.60997e-07
1.66179e-07
1.68733e-07
1.65154e-07
1.62683e-07
1.66044e-07
1.61892e-07
1.60543e-07
1.62929e-07
1.65288e-07
1.61302e-07
1.65533e-07
1.56006e-07
1.59634e-07
1.5408e-07
1.53793e-07
1.59649e-07
1.727e-07
1.69119e-07
1.69837e-07
1.72711e-07
1.70514e-07
1.72047e-07
1.70864e-07
1.70805e-07
1.6881e-07
1.69051e-07
1.94578e-07
1.93712e-07
1.94394e-07
1.93019e-07
1.91472e-07
1.89861e-07
1.86977e-07
1.87835e-07
1.85746e-07
1.93893e-07
1.96e-07
1.84266e-07
1.80766e-07
1.85014e-07
1.81193e-07
1.80141e-07
1.78138e-07
1.74734e-07
1.7891e-07
1.71902e-07
1.7614e-07
1.74088e-07
1.71462e-07
1.70494e-07
1.92342e-07
1.95187e-07
1.94606e-07
1.94556e-07
1.93289e-07
1.95324e-07
1.9598e-07
1.94117e-07
1.81624e-07
1.83644e-07
1.82628e-07
1.81323e-07
1.86647e-07
1.85686e-07
1.88165e-07
1.90308e-07
1.82146e-07
1.93202e-07
1.93167e-07
1.92925e-07
1.91841e-07
1.85105e-07
1.76868e-07
1.80138e-07
1.81029e-07
1.77095e-07
1.94945e-07
1.59655e-07
1.63118e-07
1.61031e-07
1.65906e-07
1.59456e-07
1.6074e-07
1.59697e-07
1.65218e-07
1.63641e-07
1.6283e-07
1.58805e-07
1.62324e-07
1.5973e-07
1.60266e-07
1.5317e-07
1.62843e-07
1.62884e-07
1.65331e-07
1.60397e-07
1.55173e-07
1.57961e-07
1.68664e-07
1.69468e-07
1.63026e-07
1.70395e-07
1.67765e-07
1.71562e-07
1.76096e-07
1.738e-07
1.65035e-07
1.67991e-07
1.94397e-07
1.93433e-07
1.93579e-07
1.92103e-07
1.91271e-07
1.89679e-07
1.8397e-07
1.85592e-07
1.86323e-07
1.85759e-07
1.93536e-07
1.94806e-07
1.80682e-07
1.76288e-07
1.85075e-07
1.7897e-07
1.80031e-07
1.78038e-07
1.75439e-07
1.78994e-07
1.78164e-07
1.77605e-07
1.73625e-07
1.70899e-07
1.66156e-07
1.95084e-07
1.96346e-07
1.95047e-07
1.95382e-07
1.92835e-07
1.9373e-07
1.95554e-07
1.96214e-07
1.79047e-07
1.82294e-07
1.81079e-07
1.79804e-07
1.83762e-07
1.85227e-07
1.81994e-07
1.81889e-07
1.87873e-07
1.89785e-07
1.91574e-07
1.8107e-07
1.78634e-07
1.95424e-07
1.94353e-07
1.95425e-07
1.94518e-07
1.93855e-07
1.77176e-07
1.80672e-07
1.80196e-07
1.7899e-07
1.9538e-07
1.64427e-07
1.63083e-07
1.61628e-07
1.62709e-07
1.60299e-07
1.597e-07
1.59173e-07
1.58548e-07
1.5628e-07
1.61551e-07
1.61247e-07
1.51436e-07
1.51954e-07
1.5341e-07
1.57774e-07
1.59447e-07
1.56501e-07
1.53494e-07
1.63434e-07
1.64874e-07
1.54121e-07
1.60619e-07
1.68585e-07
1.62735e-07
1.62223e-07
1.59957e-07
1.66272e-07
1.67249e-07
1.71788e-07
1.73557e-07
1.73647e-07
1.67025e-07
1.66244e-07
1.92059e-07
1.91119e-07
1.92065e-07
1.93239e-07
1.92944e-07
1.91786e-07
1.89877e-07
1.89855e-07
1.84459e-07
1.85608e-07
1.87317e-07
1.84916e-07
1.95529e-07
1.95637e-07
1.94387e-07
1.80988e-07
1.79345e-07
1.84872e-07
1.78982e-07
1.79481e-07
1.75406e-07
1.75382e-07
1.77966e-07
1.75573e-07
1.78143e-07
1.77426e-07
1.69154e-07
1.744e-07
1.91967e-07
1.94199e-07
1.93336e-07
1.9393e-07
1.93932e-07
1.94004e-07
1.96273e-07
1.81986e-07
1.79262e-07
1.78475e-07
1.83521e-07
1.85148e-07
1.85163e-07
1.8204e-07
1.83454e-07
1.86263e-07
1.89933e-07
1.81069e-07
1.84432e-07
1.92468e-07
1.94719e-07
1.93883e-07
1.92945e-07
1.91672e-07
1.78027e-07
1.81843e-07
1.78804e-07
1.79839e-07
1.79705e-07
1.96273e-07
1.94465e-07
1.66568e-07
1.6514e-07
1.60648e-07
1.61032e-07
1.60134e-07
1.55996e-07
1.56975e-07
1.5908e-07
1.57581e-07
1.59751e-07
1.52811e-07
1.5745e-07
1.56312e-07
1.54591e-07
1.59076e-07
1.58307e-07
1.62058e-07
1.50076e-07
1.47695e-07
1.66841e-07
1.59158e-07
1.5718e-07
1.60942e-07
1.63231e-07
1.65668e-07
1.62856e-07
1.60205e-07
1.54369e-07
1.64512e-07
1.61254e-07
1.65585e-07
1.6396e-07
1.61497e-07
1.66947e-07
1.67886e-07
1.64671e-07
1.92776e-07
1.93027e-07
1.93926e-07
1.93625e-07
1.92217e-07
1.9268e-07
1.90862e-07
1.90097e-07
1.85609e-07
1.81759e-07
1.84955e-07
1.85934e-07
1.93864e-07
1.94183e-07
1.94843e-07
1.94291e-07
1.81851e-07
1.84656e-07
1.79705e-07
1.78599e-07
1.75385e-07
1.73298e-07
1.75546e-07
1.7343e-07
1.70476e-07
1.7418e-07
1.77795e-07
1.74457e-07
1.93817e-07
1.9397e-07
1.9561e-07
1.9543e-07
1.93576e-07
1.9363e-07
1.94957e-07
1.81708e-07
1.78044e-07
1.73369e-07
1.7802e-07
1.81278e-07
1.82879e-07
1.84068e-07
1.84352e-07
1.81808e-07
1.85095e-07
1.89421e-07
1.90315e-07
1.80853e-07
1.83903e-07
1.94505e-07
1.92942e-07
1.94634e-07
1.93428e-07
1.87928e-07
1.79585e-07
1.79678e-07
1.79951e-07
1.78874e-07
1.79432e-07
1.96057e-07
1.94154e-07
1.63625e-07
1.61813e-07
1.58501e-07
1.56708e-07
1.57056e-07
1.49772e-07
1.52206e-07
1.56203e-07
1.57933e-07
1.48234e-07
1.58484e-07
1.49046e-07
1.56239e-07
1.57001e-07
1.57991e-07
1.65358e-07
1.53905e-07
1.59663e-07
1.48622e-07
1.54241e-07
1.6546e-07
1.57169e-07
1.58603e-07
1.5767e-07
1.65352e-07
1.5715e-07
1.59318e-07
1.59215e-07
1.62837e-07
1.58113e-07
1.60753e-07
1.59779e-07
1.64893e-07
1.65372e-07
1.64709e-07
1.64798e-07
1.66077e-07
1.66006e-07
1.92634e-07
1.91455e-07
1.94089e-07
1.94876e-07
1.92296e-07
1.90628e-07
1.90331e-07
1.87459e-07
1.88603e-07
1.83915e-07
1.84014e-07
1.82793e-07
1.77502e-07
1.94906e-07
1.94715e-07
1.94196e-07
1.91046e-07
1.79051e-07
1.77626e-07
1.78121e-07
1.76198e-07
1.72085e-07
1.6986e-07
1.76131e-07
1.74187e-07
1.7604e-07
1.72326e-07
1.70141e-07
1.70563e-07
1.93603e-07
1.96359e-07
1.93374e-07
1.96037e-07
1.9256e-07
1.95439e-07
1.93852e-07
1.93445e-07
1.81942e-07
1.77879e-07
1.7682e-07
1.78526e-07
1.81162e-07
1.83253e-07
1.84141e-07
1.84158e-07
1.77746e-07
1.86358e-07
1.86749e-07
1.90625e-07
1.82239e-07
1.78139e-07
1.91976e-07
1.91629e-07
1.9316e-07
1.95861e-07
1.89693e-07
1.7945e-07
1.74032e-07
1.77796e-07
1.8093e-07
1.77696e-07
1.77888e-07
1.9534e-07
1.93617e-07
1.53179e-07
1.58094e-07
1.59824e-07
1.57982e-07
1.58286e-07
1.51252e-07
1.55271e-07
1.56865e-07
1.51931e-07
1.54274e-07
1.57024e-07
1.52441e-07
1.56263e-07
1.5675e-07
1.63588e-07
1.5666e-07
1.61325e-07
1.58441e-07
1.55446e-07
1.49364e-07
1.56555e-07
1.54805e-07
1.52011e-07
1.58299e-07
1.55852e-07
1.59896e-07
1.5968e-07
1.57701e-07
1.60455e-07
1.64561e-07
1.65438e-07
1.66253e-07
1.64815e-07
1.65283e-07
1.64233e-07
1.66608e-07
1.6618e-07
1.66069e-07
1.93302e-07
1.87781e-07
1.89132e-07
1.96696e-07
1.94407e-07
1.93077e-07
1.87894e-07
1.8858e-07
1.87005e-07
1.88237e-07
1.86895e-07
1.84257e-07
1.8344e-07
1.80625e-07
1.94409e-07
1.94681e-07
1.94411e-07
1.94958e-07
1.91597e-07
1.77455e-07
1.78672e-07
1.76466e-07
1.79564e-07
1.72029e-07
1.73338e-07
1.74799e-07
1.72002e-07
1.75173e-07
1.70227e-07
1.68546e-07
1.68022e-07
1.70626e-07
1.91714e-07
1.95635e-07
1.93701e-07
1.96237e-07
1.93926e-07
1.94274e-07
1.94944e-07
1.94899e-07
1.78928e-07
1.77106e-07
1.7773e-07
1.78678e-07
1.71745e-07
1.74754e-07
1.83532e-07
1.8377e-07
1.8723e-07
1.84351e-07
1.81832e-07
1.87365e-07
1.89651e-07
1.89938e-07
1.78534e-07
1.75658e-07
1.93807e-07
1.89705e-07
1.92731e-07
1.95783e-07
1.93977e-07
1.90578e-07
1.79172e-07
1.7491e-07
1.76609e-07
1.77779e-07
1.76884e-07
1.76599e-07
1.92481e-07
1.93337e-07
1.52838e-07
1.64313e-07
1.5961e-07
1.57679e-07
1.59728e-07
1.53939e-07
1.57256e-07
1.52773e-07
1.52072e-07
1.55279e-07
1.49842e-07
1.53838e-07
1.5736e-07
1.55015e-07
1.64491e-07
1.46691e-07
1.54213e-07
1.54933e-07
1.57927e-07
1.54074e-07
1.64616e-07
1.47648e-07
1.62114e-07
1.56904e-07
1.58853e-07
1.6361e-07
1.65089e-07
1.53299e-07
1.66519e-07
1.60712e-07
1.67837e-07
1.65296e-07
1.66129e-07
1.67137e-07
1.66038e-07
1.66008e-07
1.68994e-07
1.68998e-07
1.93635e-07
1.8895e-07
1.92474e-07
1.97087e-07
1.93008e-07
1.94851e-07
1.88757e-07
1.88335e-07
1.90909e-07
1.85962e-07
1.83307e-07
1.84914e-07
1.82743e-07
1.8467e-07
1.80918e-07
1.95459e-07
1.96077e-07
1.9397e-07
1.93179e-07
1.9602e-07
1.77262e-07
1.80086e-07
1.74983e-07
1.79095e-07
1.7871e-07
1.79758e-07
1.74066e-07
1.67509e-07
1.75829e-07
1.70606e-07
1.67729e-07
1.69343e-07
1.9381e-07
1.95611e-07
1.96354e-07
1.93645e-07
1.94585e-07
1.96016e-07
1.94023e-07
1.93977e-07
1.78921e-07
1.76062e-07
1.8042e-07
1.73968e-07
1.74706e-07
1.75435e-07
1.81802e-07
1.82611e-07
1.83246e-07
1.81258e-07
1.80317e-07
1.874e-07
1.85578e-07
1.90479e-07
1.76411e-07
1.79347e-07
1.9206e-07
1.9447e-07
1.94096e-07
1.9049e-07
1.78005e-07
1.75707e-07
1.71015e-07
1.72486e-07
1.76557e-07
1.75787e-07
1.7852e-07
1.96229e-07
1.9331e-07
1.93639e-07
1.64029e-07
1.50998e-07
1.56017e-07
1.54871e-07
1.55362e-07
1.61153e-07
1.53115e-07
1.51392e-07
1.50487e-07
1.54947e-07
1.51161e-07
1.52985e-07
1.46642e-07
1.5407e-07
1.58838e-07
1.50991e-07
1.52449e-07
1.53376e-07
1.49156e-07
1.467e-07
1.63597e-07
1.52682e-07
1.62224e-07
1.56683e-07
1.49445e-07
1.54526e-07
1.65594e-07
1.62782e-07
1.60709e-07
1.64595e-07
1.59178e-07
1.63474e-07
1.66367e-07
1.67403e-07
1.67738e-07
1.65711e-07
1.67509e-07
1.67453e-07
1.66029e-07
1.94607e-07
1.94406e-07
1.92768e-07
1.94731e-07
1.95301e-07
1.9304e-07
1.91858e-07
1.93119e-07
1.87683e-07
1.84444e-07
1.8069e-07
1.84044e-07
1.85943e-07
1.80603e-07
1.94152e-07
1.96126e-07
1.93767e-07
1.93471e-07
1.96272e-07
1.96813e-07
1.81351e-07
1.81304e-07
1.78664e-07
1.77738e-07
1.7887e-07
1.79331e-07
1.69839e-07
1.61735e-07
1.76302e-07
1.67975e-07
1.68439e-07
1.66386e-07
1.69054e-07
1.93063e-07
1.9544e-07
1.9568e-07
1.94534e-07
1.95538e-07
1.92514e-07
1.93685e-07
1.77064e-07
1.757e-07
1.79175e-07
1.76452e-07
1.72184e-07
1.75124e-07
1.75853e-07
1.77112e-07
1.74751e-07
1.83132e-07
1.79965e-07
1.83585e-07
1.7939e-07
1.80694e-07
1.79092e-07
1.85329e-07
1.87339e-07
1.8896e-07
1.90254e-07
1.80419e-07
1.92642e-07
1.9466e-07
1.937e-07
1.94691e-07
1.77759e-07
1.74223e-07
1.75286e-07
1.77292e-07
1.7844e-07
1.75226e-07
1.92198e-07
1.92753e-07
1.94187e-07
1.49381e-07
1.52966e-07
1.55519e-07
1.53744e-07
1.52558e-07
1.59262e-07
1.56652e-07
1.51449e-07
1.53038e-07
1.42638e-07
1.6021e-07
1.50736e-07
1.52023e-07
1.48704e-07
1.57832e-07
1.47289e-07
1.45278e-07
1.49474e-07
1.47318e-07
1.52887e-07
1.49266e-07
1.49184e-07
1.49315e-07
1.57846e-07
1.57938e-07
1.50491e-07
1.45154e-07
1.64154e-07
1.53064e-07
1.63785e-07
1.5195e-07
1.48656e-07
1.53731e-07
1.59343e-07
1.66884e-07
1.68909e-07
1.70705e-07
1.65473e-07
1.66312e-07
1.68191e-07
1.57701e-07
1.56314e-07
1.94667e-07
1.94871e-07
1.95256e-07
1.93253e-07
1.96251e-07
1.95221e-07
1.93402e-07
1.92947e-07
1.89969e-07
1.90597e-07
1.83687e-07
1.87056e-07
1.84981e-07
1.84677e-07
1.79349e-07
1.86601e-07
1.95213e-07
1.94155e-07
1.95341e-07
1.92496e-07
1.96448e-07
1.94161e-07
1.81906e-07
1.78448e-07
1.78719e-07
1.77692e-07
1.7868e-07
1.72017e-07
1.68982e-07
1.67486e-07
1.68263e-07
1.69156e-07
1.6778e-07
1.68113e-07
1.657e-07
1.93324e-07
1.95527e-07
1.96358e-07
1.95592e-07
1.93952e-07
1.96068e-07
1.95734e-07
1.95517e-07
1.94934e-07
1.7663e-07
1.74838e-07
1.72321e-07
1.78506e-07
1.73934e-07
1.75891e-07
1.75938e-07
1.7788e-07
1.78307e-07
1.82526e-07
1.78741e-07
1.83823e-07
1.78266e-07
1.80332e-07
1.80079e-07
1.85137e-07
1.87274e-07
1.86814e-07
1.87866e-07
1.76895e-07
1.90236e-07
1.92742e-07
1.95002e-07
1.94902e-07
1.77491e-07
1.76419e-07
1.74703e-07
1.73102e-07
1.77412e-07
1.69395e-07
1.72003e-07
1.92059e-07
1.93708e-07
1.94629e-07
1.52792e-07
1.57445e-07
1.529e-07
1.49394e-07
1.50238e-07
1.49633e-07
1.53577e-07
1.56101e-07
1.5303e-07
1.51463e-07
1.60613e-07
1.58889e-07
1.50694e-07
1.49005e-07
1.41216e-07
1.5191e-07
1.47331e-07
1.57291e-07
1.48026e-07
1.58118e-07
1.47437e-07
1.49554e-07
1.47129e-07
1.47879e-07
1.54899e-07
1.53236e-07
1.50455e-07
1.61104e-07
1.58577e-07
1.55697e-07
1.55286e-07
1.54114e-07
1.51467e-07
1.51316e-07
1.66255e-07
1.65063e-07
1.69812e-07
1.65469e-07
1.64105e-07
1.6581e-07
1.63174e-07
1.57985e-07
1.94255e-07
1.94293e-07
1.95975e-07
1.96055e-07
1.95537e-07
1.93892e-07
1.94191e-07
1.92543e-07
1.92759e-07
1.92784e-07
1.85275e-07
1.88728e-07
1.8487e-07
1.81681e-07
1.84744e-07
1.86879e-07
1.82653e-07
1.93853e-07
1.95142e-07
1.95867e-07
1.91826e-07
1.94086e-07
1.95932e-07
1.7943e-07
1.71941e-07
1.76783e-07
1.75393e-07
1.78575e-07
1.69954e-07
1.6855e-07
1.65844e-07
1.69357e-07
1.61088e-07
1.66237e-07
1.67335e-07
1.66647e-07
1.93267e-07
1.92415e-07
1.9593e-07
1.93372e-07
1.9375e-07
1.94845e-07
1.95119e-07
1.93368e-07
1.94098e-07
1.76207e-07
1.71097e-07
1.76096e-07
1.75823e-07
1.74716e-07
1.76902e-07
1.74756e-07
1.7733e-07
1.78515e-07
1.80569e-07
1.83125e-07
1.80369e-07
1.79293e-07
1.74665e-07
1.76617e-07
1.82788e-07
1.78609e-07
1.83031e-07
1.87015e-07
1.85847e-07
1.88512e-07
1.75224e-07
1.91445e-07
1.92713e-07
1.91825e-07
1.9384e-07
1.95315e-07
1.69745e-07
1.76489e-07
1.74349e-07
1.70868e-07
1.72984e-07
1.72754e-07
1.7147e-07
1.96265e-07
1.92878e-07
1.93508e-07
1.94823e-07
1.58501e-07
1.56369e-07
1.4977e-07
1.48926e-07
1.46785e-07
1.53413e-07
1.56519e-07
1.55036e-07
1.52526e-07
1.38595e-07
1.55481e-07
1.49545e-07
1.46984e-07
1.4921e-07
1.51639e-07
1.50114e-07
1.53156e-07
1.47241e-07
1.52352e-07
1.45944e-07
1.42856e-07
1.47996e-07
1.49693e-07
1.523e-07
1.54644e-07
1.51338e-07
1.61708e-07
1.57417e-07
1.55009e-07
1.53467e-07
1.54518e-07
1.56648e-07
1.46995e-07
1.65857e-07
1.60859e-07
1.56668e-07
1.65335e-07
1.63564e-07
1.57296e-07
1.57479e-07
1.60429e-07
1.61447e-07
1.92325e-07
1.91412e-07
1.93819e-07
1.95876e-07
1.95916e-07
1.95077e-07
1.94539e-07
1.92453e-07
1.90712e-07
1.93168e-07
1.92358e-07
1.82794e-07
1.93116e-07
1.82073e-07
1.7972e-07
1.8548e-07
1.91541e-07
1.87917e-07
1.91868e-07
1.94924e-07
1.96145e-07
1.95668e-07
1.95311e-07
1.95229e-07
1.95796e-07
1.81615e-07
1.77378e-07
1.77458e-07
1.76713e-07
1.70174e-07
1.69979e-07
1.68886e-07
1.69015e-07
1.63358e-07
1.66343e-07
1.67327e-07
1.66885e-07
1.94817e-07
1.92378e-07
1.96353e-07
1.95893e-07
1.93978e-07
1.94857e-07
1.95433e-07
1.95477e-07
1.95246e-07
1.95134e-07
1.76376e-07
1.76343e-07
1.73649e-07
1.72603e-07
1.76916e-07
1.74659e-07
1.75572e-07
1.77325e-07
1.7821e-07
1.76588e-07
1.8186e-07
1.79131e-07
1.81127e-07
1.78416e-07
1.74708e-07
1.83094e-07
1.80776e-07
1.82321e-07
1.83127e-07
1.89311e-07
1.86763e-07
1.6994e-07
1.91287e-07
1.91684e-07
1.92873e-07
1.93411e-07
1.94201e-07
1.69266e-07
1.70766e-07
1.66479e-07
1.73539e-07
1.74957e-07
1.72827e-07
1.72238e-07
1.71694e-07
1.9195e-07
1.92375e-07
1.94326e-07
1.95391e-07
1.54034e-07
1.47696e-07
1.48293e-07
1.41544e-07
1.48242e-07
1.41578e-07
1.48845e-07
1.5435e-07
1.5556e-07
1.53111e-07
1.45281e-07
1.3247e-07
1.48764e-07
1.52363e-07
1.52508e-07
1.51772e-07
1.56062e-07
1.50112e-07
1.45214e-07
1.46e-07
1.45393e-07
1.51056e-07
1.55505e-07
1.43008e-07
1.54263e-07
1.52696e-07
1.52067e-07
1.56342e-07
1.60075e-07
1.56707e-07
1.48547e-07
1.51251e-07
1.50974e-07
1.54314e-07
1.5693e-07
1.63929e-07
1.58894e-07
1.60686e-07
1.64843e-07
1.63648e-07
1.61714e-07
1.59453e-07
1.60296e-07
1.6143e-07
1.92673e-07
1.93085e-07
1.95394e-07
1.94994e-07
1.94264e-07
1.94243e-07
1.90014e-07
1.90848e-07
1.91783e-07
1.90377e-07
1.8857e-07
1.91117e-07
1.85101e-07
1.80025e-07
1.76717e-07
1.89966e-07
1.91981e-07
1.91807e-07
1.9456e-07
1.95239e-07
1.95101e-07
1.95658e-07
1.95638e-07
1.95195e-07
1.78039e-07
1.79678e-07
1.70452e-07
1.69921e-07
1.6622e-07
1.78891e-07
1.7071e-07
1.69015e-07
1.69014e-07
1.66667e-07
1.65972e-07
1.67682e-07
1.67486e-07
1.93797e-07
1.93451e-07
1.94688e-07
1.92606e-07
1.94425e-07
1.9463e-07
1.94593e-07
1.95326e-07
1.94515e-07
1.94349e-07
1.754e-07
1.75804e-07
1.69606e-07
1.74213e-07
1.74003e-07
1.71454e-07
1.71414e-07
1.72067e-07
1.76149e-07
1.77076e-07
1.77142e-07
1.78259e-07
1.78153e-07
1.74941e-07
1.7897e-07
1.78522e-07
1.73388e-07
1.86299e-07
1.82196e-07
1.86309e-07
1.86604e-07
1.8952e-07
1.9042e-07
1.91931e-07
1.92965e-07
1.9287e-07
1.93612e-07
1.94712e-07
1.93997e-07
1.67513e-07
1.70468e-07
1.69006e-07
1.73259e-07
1.75137e-07
1.71344e-07
1.65319e-07
1.72017e-07
1.91778e-07
1.93462e-07
1.93801e-07
1.95305e-07
1.44984e-07
1.4898e-07
1.50087e-07
1.49898e-07
1.43994e-07
1.52266e-07
1.45325e-07
1.50376e-07
1.50068e-07
1.52219e-07
1.36427e-07
1.4678e-07
1.49052e-07
1.51459e-07
1.53762e-07
1.42599e-07
1.54484e-07
1.56021e-07
1.51201e-07
1.48479e-07
1.54612e-07
1.53168e-07
1.53479e-07
1.49036e-07
1.5167e-07
1.47978e-07
1.54865e-07
1.53758e-07
1.54582e-07
1.59104e-07
1.57506e-07
1.53281e-07
1.54546e-07
1.48018e-07
1.43197e-07
1.56301e-07
1.60216e-07
1.65935e-07
1.67518e-07
1.68052e-07
1.65669e-07
1.63768e-07
1.63128e-07
1.61222e-07
1.60256e-07
1.93082e-07
1.9182e-07
1.9505e-07
1.95915e-07
1.94472e-07
1.94004e-07
1.92566e-07