/*--------------------------------*- C++ -*----------------------------------*\
| =========                 |                                                 |
| \\      /  F ield         | OpenFOAM: The Open Source CFD Toolbox           |
|  \\    /   O peration     | Version:  v2012                                 |
|   \\  /    A nd           | Website:  www.openfoam.com                      |
|    \\/     M anipulation  |                                                 |
\*---------------------------------------------------------------------------*/
FoamFile
{
    version     2.0;
    format      ascii;
    class       surfaceVectorField;
    location    "0.1";
    object      Uf;
}
// * * * * * * * * * * * * * * * * * * * * * * * * * * * * * * * * * * * * * //

dimensions      [0 1 -1 0 0 0 0];


internalField   nonuniform List<vector> 
21399
(
(8.07548 -0.049906 0)
(8.06269 -0.103625 0)
(8.15875 -0.0832965 7.02317e-24)
(8.12062 -0.0616152 9.97212e-23)
(8.05371 -0.160756 -9.02528e-23)
(8.20757 -0.105237 -3.59589e-22)
(8.22938 -0.104466 -4.66372e-22)
(8.22912 -0.102389 -1.15032e-23)
(8.22488 -0.106642 -2.28242e-21)
(8.06979 -0.0812372 -4.01311e-20)
(8.15582 -0.0998733 1.05994e-20)
(8.0729 -0.0857706 1.13072e-20)
(8.1309 -0.151092 -2.17087e-22)
(8.23913 -0.103084 -5.24575e-22)
(8.2311 -0.107658 -1.33685e-23)
(8.22247 -0.111415 -4.72471e-24)
(8.22168 -0.110599 -2.4296e-21)
(8.07558 -0.0548111 6.41449e-22)
(8.22295 -0.102879 -1.54174e-20)
(8.19549 -0.113354 -8.47269e-23)
(8.06524 -0.158386 -8.08543e-20)
(8.24383 -0.111647 2.31855e-24)
(8.23639 -0.110501 -1.95113e-23)
(8.23117 -0.109222 2.29764e-23)
(8.23094 -0.114217 -7.99101e-22)
(8.22262 -0.120735 -1.9841e-24)
(8.22125 -0.114624 4.58865e-24)
(8.08756 -0.0963117 1.04047e-22)
(8.10001 -0.0799227 -2.91513e-20)
(8.16497 -0.100013 6.34065e-21)
(8.2023 -0.115043 -1.24584e-23)
(8.12645 -0.14388 -4.37393e-24)
(8.25035 -0.112265 0)
(8.25613 -0.11221 3.70325e-24)
(8.24722 -0.120236 -1.63433e-23)
(8.23672 -0.122035 -4.04118e-23)
(8.22366 -0.129824 -4.93034e-24)
(8.21644 -0.125173 -1.84518e-24)
(8.21265 -0.125334 1.31895e-24)
(8.2144 -0.122087 -1.58142e-22)
(8.11308 -0.0926041 1.44671e-22)
(8.2109 -0.122703 7.20513e-22)
(8.19569 -0.117247 -2.04129e-21)
(8.06142 -0.14253 -6.17652e-20)
(8.2587 -0.118175 2.2731e-22)
(8.24161 -0.126324 4.00659e-22)
(8.2456 -0.128866 -2.82565e-22)
(8.236 -0.130454 -2.74607e-23)
(8.22982 -0.1349 -1.38685e-22)
(8.22291 -0.138335 -1.50854e-23)
(8.20964 -0.132354 1.10942e-23)
(8.20827 -0.131601 -1.03703e-23)
(8.15032 -0.109196 -2.13924e-22)
(8.10236 -0.106336 -1.40593e-21)
(8.18538 -0.119147 -1.20029e-21)
(8.09387 -0.149285 4.67218e-23)
(8.07753 -0.119642 5.92716e-21)
(8.25534 -0.127745 5.86366e-23)
(8.26372 -0.123849 -1.97729e-24)
(8.25023 -0.133677 -2.74244e-22)
(8.2435 -0.139829 -2.15761e-23)
(8.23284 -0.139943 5.14158e-23)
(8.21545 -0.139887 -2.73601e-24)
(8.21854 -0.145959 4.00026e-22)
(8.20639 -0.139734 0)
(8.1997 -0.140079 1.31406e-22)
(8.20066 -0.13772 2.06015e-23)
(8.07663 -0.117478 7.41134e-21)
(8.1212 -0.126801 -1.32454e-23)
(8.16724 -0.125828 7.06962e-24)
(8.1936 -0.129147 2.95017e-23)
(8.01433 -0.144798 0)
(8.07984 -0.100926 -1.86957e-23)
(8.25656 -0.138775 -1.47839e-23)
(8.26844 -0.131525 -3.07914e-24)
(8.23605 -0.144252 -7.64021e-25)
(8.24035 -0.150071 1.4215e-22)
(8.22869 -0.148783 2.96128e-24)
(8.21265 -0.152249 -1.85023e-22)
(8.21864 -0.150804 4.70285e-22)
(8.20058 -0.142686 5.38261e-24)
(8.20326 -0.14977 0)
(8.19317 -0.147742 7.61258e-24)
(8.19721 -0.135274 1.37047e-21)
(8.19084 -0.144096 -4.41874e-24)
(8.14522 -0.134005 0)
(8.18946 -0.134437 -8.14612e-22)
(8.06389 -0.122583 4.40507e-26)
(8.05242 -0.161466 -9.86509e-23)
(8.09737 -0.113031 4.9227e-26)
(8.2654 -0.140075 1.47041e-22)
(8.2589 -0.14775 4.75001e-24)
(8.27406 -0.139939 5.77826e-24)
(8.23618 -0.158429 1.59556e-23)
(8.24541 -0.155536 6.18145e-22)
(8.22241 -0.153596 8.20632e-24)
(8.22584 -0.158621 9.55167e-24)
(8.28265 -0.137046 -1.34218e-24)
(8.20746 -0.154708 3.3993e-24)
(8.20888 -0.159793 2.7018e-24)
(8.21692 -0.15908 3.84113e-22)
(8.20009 -0.15809 -1.26171e-23)
(8.18683 -0.151675 3.25058e-23)
(8.19102 -0.156069 -1.08025e-23)
(8.18242 -0.152122 1.05211e-21)
(8.18098 -0.150362 9.14606e-23)
(8.12696 -0.128783 0)
(8.15127 -0.133268 0)
(8.17785 -0.135439 8.00585e-24)
(8.18561 -0.143652 2.0268e-21)
(7.96689 -0.164359 -7.67999e-20)
(8.0956 -0.120936 -8.36006e-24)
(8.25255 -0.156578 1.06851e-23)
(8.26407 -0.158952 1.91629e-24)
(8.27989 -0.146151 0)
(8.23017 -0.162496 1.07235e-22)
(8.23588 -0.16772 8.75991e-24)
(8.24896 -0.16557 8.12663e-22)
(8.22395 -0.167622 7.41105e-24)
(8.21073 -0.163214 4.41992e-24)
(8.2049 -0.167105 -7.52507e-24)
(8.21373 -0.166551 -1.14609e-23)
(8.19374 -0.161762 1.21361e-23)
(8.19569 -0.167004 -1.10885e-23)
(8.17932 -0.158197 -1.32323e-23)
(8.18736 -0.164732 -1.0979e-23)
(8.17843 -0.14956 4.05609e-24)
(8.17033 -0.157295 1.58205e-23)
(8.16282 -0.132635 1.70322e-23)
(8.17575 -0.14893 -9.05881e-25)
(8.06347 -0.145412 1.14859e-22)
(8.01225 -0.148655 2.49264e-21)
(8.12909 -0.134122 2.44544e-20)
(8.27651 -0.162163 -5.02143e-24)
(8.26976 -0.17124 4.94912e-22)
(8.2894 -0.150216 0)
(8.27988 -0.154206 -4.84067e-24)
(8.24194 -0.17126 1.02513e-24)
(8.23511 -0.175936 -1.25556e-24)
(8.25117 -0.173503 1.17674e-24)
(8.21776 -0.17059 -4.36484e-24)
(8.22272 -0.17601 -3.15453e-23)
(8.30135 -0.15366 4.27704e-25)
(8.19868 -0.17072 -3.99091e-23)
(8.20144 -0.175056 -8.51262e-23)
(8.21085 -0.174358 4.06424e-22)
(8.19151 -0.174137 -8.85499e-23)
(8.18116 -0.164867 0)
(8.17379 -0.164938 0)
(8.18148 -0.171438 9.60284e-24)
(8.16544 -0.164094 6.77399e-22)
(8.16153 -0.16159 -6.06281e-23)
(8.15211 -0.12648 5.47723e-21)
(8.16219 -0.132289 3.32548e-21)
(8.17041 -0.14758 0)
(8.16119 -0.154423 -3.40894e-23)
(8.03885 -0.134411 7.4518e-20)
(8.04659 -0.0978486 -3.77305e-22)
(8.14386 -0.131074 -3.31955e-23)
(8.28873 -0.166106 5.78294e-22)
(8.26129 -0.178695 2.24974e-24)
(8.27487 -0.182168 -2.60764e-24)
(8.22711 -0.182349 -1.63545e-24)
(8.23487 -0.186309 5.19563e-23)
(8.25324 -0.184134 -5.94028e-24)
(8.22119 -0.184833 -2.66196e-25)
(8.31199 -0.15939 1.52499e-24)
(8.30169 -0.163423 2.90066e-23)
(8.32087 -0.167085 8.41019e-24)
(8.2054 -0.179828 -6.66123e-24)
(8.19862 -0.183985 -8.11099e-24)
(8.21217 -0.184008 -5.41693e-24)
(8.18923 -0.181775 -1.65939e-24)
(8.1853 -0.178196 1.79223e-23)
(8.16729 -0.168857 5.31254e-24)
(8.16949 -0.174918 -6.78476e-24)
(8.17985 -0.178212 6.48344e-23)
(8.17418 -0.177479 -6.64197e-24)
(8.15948 -0.172926 4.64389e-24)
(8.15605 -0.160929 2.59241e-22)
(8.15345 -0.167991 -3.58604e-24)
(8.16447 -0.138069 2.34026e-24)
(8.15536 -0.132586 2.9742e-21)
(8.16129 -0.14435 1.54774e-23)
(8.14839 -0.159907 2.73145e-22)
(7.98698 -0.156284 1.58528e-22)
(8.10815 -0.111038 -5.17713e-23)
(8.07368 -0.0952721 -5.40372e-23)
(8.15262 -0.130546 0)
(8.29795 -0.172208 -3.95574e-24)
(8.27783 -0.19266 -1.1961e-22)
(8.28778 -0.186432 -8.08708e-24)
(8.24491 -0.187996 -1.32438e-22)
(8.23667 -0.192967 4.26204e-22)
(8.25468 -0.191971 -4.90801e-24)
(8.21492 -0.191008 1.11834e-24)
(8.31954 -0.177056 1.34693e-23)
(8.33001 -0.17438 9.48242e-23)
(8.192 -0.186126 2.14791e-23)
(8.19589 -0.191123 -2.86079e-24)
(8.18612 -0.188572 -1.0693e-23)
(8.17788 -0.18434 1.16533e-23)
(8.16598 -0.182495 6.47427e-23)
(8.15195 -0.174132 -3.43952e-25)
(8.15238 -0.179317 2.57135e-23)
(8.14603 -0.173742 0)
(8.15632 -0.1305 -1.25943e-23)
(8.15445 -0.130159 -1.518e-23)
(8.15543 -0.140704 3.02578e-22)
(8.14748 -0.148914 2.35476e-23)
(8.14027 -0.168469 -3.76034e-22)
(8.14089 -0.161096 -5.31226e-24)
(8.03849 -0.145961 0)
(8.03238 -0.104326 0)
(8.0572 -0.0963702 0)
(8.11714 -0.123835 0)
(8.15402 -0.133098 0)
(8.2968 -0.182342 1.75197e-22)
(8.30925 -0.179926 4.74231e-23)
(8.27124 -0.198088 8.66267e-23)
(8.28102 -0.201966 -6.70467e-24)
(8.29807 -0.193858 7.98318e-24)
(8.23352 -0.200358 4.85261e-23)
(8.24427 -0.200657 -6.59122e-24)
(8.26342 -0.197648 -2.9398e-24)
(8.25425 -0.199574 -8.43842e-25)
(8.20793 -0.196718 -6.76706e-23)
(8.21814 -0.197971 4.04232e-24)
(8.3183 -0.187332 1.37446e-23)
(8.33834 -0.181411 1.11323e-23)
(8.20087 -0.197237 4.29532e-24)
(8.19298 -0.198384 1.57681e-22)
(8.17972 -0.189309 1.65182e-23)
(8.18304 -0.194276 6.53423e-23)
(8.17283 -0.190071 -4.21065e-22)
(8.15821 -0.18715 7.15838e-24)
(8.16301 -0.190542 -9.79282e-24)
(8.15346 -0.184637 7.1634e-22)
(8.14501 -0.184673 7.15327e-24)
(8.14075 -0.173339 7.82364e-24)
(8.13873 -0.179471 1.17523e-23)
(8.15261 -0.131833 -5.25384e-23)
(8.15218 -0.13056 2.64101e-24)
(8.14657 -0.136881 1.32231e-23)
(8.13846 -0.156474 1.08689e-22)
(8.13182 -0.151909 1.06504e-23)
(8.13401 -0.173618 -2.29749e-22)
(8.13026 -0.163832 1.21417e-23)
(7.97169 -0.141207 1.28976e-23)
(8.0688 -0.0885313 2.06612e-23)
(8.14933 -0.134498 3.07121e-24)
(8.26839 -0.206559 -8.78881e-24)
(8.28927 -0.207069 3.30373e-24)
(8.28198 -0.211464 -6.11733e-24)
(8.29795 -0.20301 6.80309e-24)
(8.30753 -0.199484 1.18577e-22)
(8.22596 -0.20261 -5.78389e-25)
(8.23347 -0.21043 -2.95656e-24)
(8.25193 -0.207077 8.90319e-23)
(8.20607 -0.204246 -9.42804e-24)
(8.21971 -0.206987 2.52789e-22)
(8.31688 -0.197103 1.36063e-23)
(8.32723 -0.194955 -4.49745e-23)
(8.33737 -0.191574 6.94288e-23)
(8.34684 -0.187439 2.19752e-25)
(8.18572 -0.199563 3.06555e-24)
(8.1907 -0.205186 -5.11177e-25)
(8.17932 -0.200115 -2.2986e-25)
(8.16793 -0.194281 3.3374e-24)
(8.17215 -0.199188 4.16701e-24)
(8.15202 -0.192628 2.25895e-22)
(8.16116 -0.198961 -1.29578e-22)
(8.13792 -0.186366 7.46476e-24)
(8.14019 -0.192043 2.59697e-22)
(8.13194 -0.18581 3.11334e-22)
(8.15325 -0.131154 -3.96009e-22)
(8.13927 -0.134025 0)
(8.13121 -0.141781 0)
(8.12395 -0.149933 1.10677e-24)
(8.1205 -0.157718 -6.11772e-23)
(8.12774 -0.174027 1.26116e-23)
(8.12896 -0.179729 7.45169e-24)
(8.12117 -0.16456 2.16955e-23)
(8.12372 -0.170119 -2.40628e-22)
(8.01598 -0.0999534 -5.5448e-22)
(8.01621 -0.137636 1.25232e-23)
(8.03816 -0.0869001 -1.50884e-20)
(8.10042 -0.107893 1.74335e-23)
(8.27338 -0.215303 1.89841e-22)
(8.26623 -0.215424 -7.05334e-24)
(8.29746 -0.213481 2.99972e-24)
(8.28062 -0.22036 -6.48659e-24)
(8.31498 -0.207416 1.32707e-23)
(8.23412 -0.217866 -1.23295e-25)
(8.2416 -0.214762 2.60769e-25)
(8.25832 -0.213567 -3.86826e-25)
(8.24865 -0.21315 9.55532e-25)
(8.21201 -0.210785 4.90307e-22)
(8.20475 -0.21218 -1.72989e-23)
(8.21981 -0.215619 -1.12197e-23)
(8.33511 -0.202479 8.79539e-24)
(8.355 -0.193262 -1.81374e-24)
(8.1967 -0.212128 -9.65046e-23)
(8.1882 -0.211782 -1.57983e-23)
(8.17446 -0.204509 1.85438e-22)
(8.14523 -0.195661 4.99118e-24)
(8.15005 -0.198839 4.16138e-23)
(8.15492 -0.202268 -7.13814e-25)
(8.16091 -0.206821 -3.23131e-24)
(8.13756 -0.198062 -2.50523e-24)
(8.1284 -0.184048 5.84162e-24)
(8.1252 -0.190282 -3.0899e-22)
(8.1454 -0.118919 -1.36071e-23)
(8.1539 -0.12707 -5.03258e-22)
(8.14479 -0.127856 -1.07587e-23)
(8.12874 -0.131488 -7.39657e-24)
(8.11572 -0.146747 0)
(8.11126 -0.163936 -6.41255e-23)
(8.11899 -0.174935 2.99414e-24)
(8.12269 -0.183392 0)
(8.05285 -0.0850597 1.30559e-20)
(7.9594 -0.12002 -3.00278e-23)
(8.12547 -0.111765 0)
(8.26233 -0.222619 -3.71468e-22)
(8.29547 -0.220697 0)
(8.30435 -0.21838 0)
(8.28934 -0.223982 0)
(8.28025 -0.228445 0)
(8.31261 -0.217483 6.02979e-24)
(8.32238 -0.21591 4.09357e-23)
(8.22784 -0.22072 -5.61054e-25)
(8.23423 -0.225578 -8.69812e-24)
(8.24819 -0.221014 -3.68365e-23)
(8.20156 -0.219212 -7.02478e-24)
(8.2194 -0.223345 1.17107e-24)
(8.33247 -0.212922 6.9997e-24)
(8.34283 -0.209577 -2.78717e-24)
(8.35344 -0.205341 -2.88221e-24)
(8.18054 -0.211756 -7.02719e-24)
(8.18593 -0.218538 -7.79364e-23)
(8.17208 -0.210745 -7.61215e-24)
(8.14938 -0.20567 2.92327e-24)
(8.16691 -0.210671 -1.41229e-25)
(8.16158 -0.213365 3.15978e-24)
(8.132 -0.201737 0)
(8.1385 -0.205983 0)
(8.12255 -0.195664 -9.17904e-25)
(8.11679 -0.191528 -1.19605e-22)
(8.14717 -0.120515 -3.84165e-22)
(8.11945 -0.130697 -4.01567e-22)
(8.11426 -0.138025 -5.3613e-24)
(8.10895 -0.14396 0)
(8.10302 -0.152563 -4.64929e-24)
(8.1018 -0.164235 2.87449e-23)
(8.10363 -0.171719 1.17818e-23)
(8.1171 -0.181947 0)
(8.11244 -0.178725 0)
(8.1164 -0.186791 1.32384e-23)
(8.03451 -0.0731783 -1.36116e-23)
(8.08049 -0.0939103 -1.07856e-22)
(8.01194 -0.0733666 -2.69034e-23)
(8.01205 -0.110786 3.79276e-20)
(8.13775 -0.111553 3.27176e-24)
(8.12065 -0.105308 -9.47738e-25)
(8.25428 -0.226242 -1.12402e-24)
(8.26154 -0.229341 2.12412e-24)
(8.29527 -0.228667 -1.93418e-24)
(8.30904 -0.226949 -1.75563e-24)
(8.28123 -0.23724 0)
(8.27419 -0.234277 0)
(8.32949 -0.22329 1.51303e-23)
(8.24029 -0.230368 -1.36728e-22)
(8.23314 -0.232756 -5.08569e-24)
(8.24729 -0.228214 -4.4307e-24)
(8.19803 -0.225711 0)
(8.20685 -0.226764 1.38543e-24)
(8.21393 -0.22734 -1.48234e-23)
(8.22067 -0.230777 1.20324e-24)
(8.34999 -0.216845 2.38876e-22)
(8.19115 -0.223979 -2.13735e-25)
(8.18329 -0.223724 3.83761e-25)
(8.17203 -0.217701 8.40842e-24)
(8.14476 -0.209074 0)
(8.1512 -0.213185 0)
(8.15789 -0.217048 3.1654e-24)
(8.16445 -0.221338 -1.8117e-22)
(8.12769 -0.199826 0)
(8.12966 -0.20706 -2.09195e-24)
(8.14055 -0.213346 3.99264e-24)
(8.12095 -0.200697 -2.39008e-24)
(8.11111 -0.191308 2.52819e-22)
(8.1423 -0.114151 -2.60229e-24)
(8.11699 -0.125504 -8.72015e-24)
(8.10435 -0.13075 -5.91553e-24)
(8.10061 -0.141745 0)
(8.09943 -0.158774 -6.63795e-22)
(8.09258 -0.154583 -1.26766e-23)
(8.09318 -0.165422 -7.96568e-24)
(8.1055 -0.177476 0)
(8.09773 -0.177096 0)
(8.10379 -0.184951 3.24341e-24)
(8.04665 -0.0633796 8.52768e-24)
(8.1067 -0.101714 -9.16164e-24)
(7.96303 -0.112283 7.00565e-23)
(8.26758 -0.234993 3.70197e-24)
(8.25889 -0.237808 1.14123e-22)
(8.30133 -0.232398 8.73104e-23)
(8.29466 -0.236308 -2.03231e-24)
(8.3103 -0.234489 -1.76355e-24)
(8.2872 -0.241097 0)
(8.28106 -0.245943 -6.47543e-24)
(8.27048 -0.243459 -7.58657e-24)
(8.32801 -0.234287 8.24082e-24)
(8.33818 -0.22938 1.51274e-22)
(8.24544 -0.235553 1.38442e-24)
(8.2265 -0.235393 0)
(8.23171 -0.240223 0)
(8.19479 -0.231445 -4.10105e-24)
(8.21051 -0.23404 3.2242e-23)
(8.22082 -0.237983 0)
(8.34531 -0.22521 7.29717e-24)
(8.35677 -0.22247 -1.45331e-24)
(8.17734 -0.22483 6.85308e-25)
(8.18246 -0.230629 -9.93552e-23)
(8.17172 -0.224181 2.54217e-24)
(8.15284 -0.221045 -1.14257e-24)
(8.16753 -0.228527 2.41912e-24)
(8.12636 -0.210533 2.44696e-25)
(8.13151 -0.213175 -5.79262e-25)
(8.13649 -0.216755 -4.56266e-23)
(8.1428 -0.220701 7.23972e-24)
(8.12128 -0.207623 1.01292e-22)
(8.1163 -0.203341 -2.01517e-24)
(8.10476 -0.190214 1.35242e-22)
(8.10789 -0.196323 1.07503e-23)
(8.1298 -0.118237 -1.60819e-22)
(8.13411 -0.108143 -2.98573e-22)
(8.11193 -0.119182 -8.67086e-25)
(8.0944 -0.138303 0)
(8.09105 -0.133607 3.63581e-24)
(8.08952 -0.144269 -2.5351e-23)
(8.08651 -0.151826 5.58112e-23)
(8.08472 -0.158305 1.68503e-22)
(8.08435 -0.164788 -4.25283e-24)
(8.08721 -0.170639 2.64315e-22)
(8.09149 -0.176362 1.43142e-24)
(8.09224 -0.182442 3.42064e-24)
(8.09819 -0.189285 3.68649e-25)
(8.08177 -0.0859089 1.90778e-21)
(8.04706 -0.0640299 -5.67697e-21)
(8.11531 -0.099801 5.10705e-24)
(8.02135 -0.0841589 -1.40935e-23)
(7.99342 -0.0896696 7.32566e-23)
(8.25071 -0.240366 4.63299e-24)
(8.25556 -0.246359 4.16808e-24)
(8.29467 -0.245237 0)
(8.31834 -0.239212 8.43364e-25)
(8.30995 -0.244504 0)
(8.27358 -0.249992 2.07252e-22)
(8.27963 -0.253909 -9.86727e-24)
(8.26711 -0.251743 -7.38573e-24)
(8.32757 -0.246672 -1.00139e-22)
(8.34544 -0.23524 1.03397e-23)
(8.24344 -0.242869 2.29831e-25)
(8.23621 -0.245074 -1.30336e-26)
(8.22945 -0.247509 -5.66599e-24)
(8.18922 -0.234284 1.5527e-23)
(8.19638 -0.237786 -5.97004e-23)
(8.21462 -0.239259 -1.20146e-25)
(8.20815 -0.239965 -1.31563e-25)
(8.21869 -0.243789 -9.727e-24)
(8.36605 -0.224457 -2.41884e-24)
(8.36229 -0.23328 2.38547e-24)
(8.37783 -0.228884 -4.90412e-24)
(8.18255 -0.236779 -7.60756e-25)
(8.14834 -0.224252 -3.77774e-24)
(8.15499 -0.228088 -1.83916e-22)
(8.16107 -0.232253 1.37571e-23)
(8.16992 -0.237083 1.80986e-24)
(8.12202 -0.213626 -7.84255e-24)
(8.13242 -0.220418 -4.40327e-23)
(8.1436 -0.227657 -2.12642e-23)
(8.1117 -0.200528 0)
(8.11255 -0.207344 0)
(8.10559 -0.199884 0)
(8.12481 -0.101475 8.10067e-22)
(8.09444 -0.120705 4.01836e-24)
(8.10539 -0.113656 -5.7363e-25)
(8.08467 -0.128698 5.21087e-23)
(8.07698 -0.13685 -1.7138e-23)
(8.07945 -0.147998 -6.46543e-22)
(8.07688 -0.163377 -1.13176e-24)
(8.08186 -0.176071 -2.34858e-22)
(8.09235 -0.188699 1.60187e-23)
(8.08608 -0.187471 2.51108e-22)
(8.09605 -0.195055 -8.70309e-24)
(8.06913 -0.0645521 -1.53045e-23)
(8.01749 -0.0705876 4.77301e-20)
(8.01233 -0.038288 2.38144e-21)
(8.25952 -0.252734 0)
(8.25102 -0.254187 6.51719e-24)
(8.30241 -0.249544 0)
(8.29517 -0.254443 0)
(8.31037 -0.253844 0)
(8.28708 -0.25731 -3.12292e-24)
(8.27904 -0.260569 3.57588e-22)
(8.26268 -0.259612 0)
(8.33471 -0.251463 4.38889e-22)
(8.32572 -0.25384 -1.89089e-22)
(8.3548 -0.237929 -3.94132e-23)
(8.34659 -0.243149 2.99789e-24)
(8.23979 -0.250715 5.64e-24)
(8.22253 -0.249385 9.00927e-23)
(8.22612 -0.254539 -1.00742e-23)
(8.20252 -0.241546 -1.87183e-24)
(8.19604 -0.244906 -6.53439e-24)
(8.20622 -0.247142 0)
(8.2158 -0.250543 -6.11484e-23)
(8.36455 -0.241466 2.26287e-24)
(8.38135 -0.240473 -2.9569e-22)
(8.18456 -0.245736 0)
(8.17726 -0.240483 7.35063e-25)
(8.15566 -0.235624 -3.46872e-24)
(8.17461 -0.239392 2.17016e-22)
(8.16922 -0.241621 -4.44027e-24)
(8.11757 -0.21613 -3.6787e-24)
(8.12276 -0.219789 -6.59672e-23)
(8.12779 -0.223238 -6.41845e-24)
(8.13337 -0.227174 -2.48142e-24)
(8.13875 -0.23112 2.23334e-24)
(8.1447 -0.234968 8.11683e-25)
(8.11282 -0.212525 0)
(8.1083 -0.209227 0)
(8.10108 -0.200283 -4.52306e-24)
(8.10427 -0.205373 0)
(8.11313 -0.105052 -2.82884e-24)
(8.11965 -0.0928542 1.6528e-24)
(8.07753 -0.12308 3.64433e-24)
(8.10087 -0.106537 -5.51035e-25)
(8.07233 -0.144218 -3.81752e-23)
(8.0657 -0.139969 -7.32229e-23)
(8.0692 -0.15225 -1.85588e-23)
(8.06756 -0.160448 0)
(8.06748 -0.168416 0)
(8.07912 -0.184468 7.82476e-24)
(8.07452 -0.178892 2.39863e-24)
(8.08157 -0.191003 -1.02643e-22)
(8.0944 -0.200456 6.19791e-23)
(8.04492 -0.047469 -5.58383e-23)
(8.08442 -0.0661612 -7.57611e-25)
(7.99688 -0.0884492 1.52997e-22)
(8.03082 -0.0333562 -1.41928e-21)
(8.2437 -0.256451 7.41972e-23)
(8.24724 -0.262098 4.74566e-24)
(8.29391 -0.262396 1.37342e-24)
(8.31953 -0.256665 2.89663e-24)
(8.31145 -0.261874 0)
(8.27387 -0.266716 -2.63365e-24)
(8.2818 -0.269172 -5.90761e-25)
(8.26606 -0.2661 0)
(8.25808 -0.266269 -3.21759e-24)
(8.3425 -0.252705 1.90691e-24)
(8.33874 -0.262152 1.56653e-24)
(8.32632 -0.261998 2.59425e-24)
(8.35254 -0.255451 -1.27197e-24)
(8.23616 -0.258393 2.6998e-25)
(8.22937 -0.259778 -9.61144e-24)
(8.22247 -0.261302 -1.1053e-23)
(8.19116 -0.249908 -4.88354e-24)
(8.19616 -0.253333 3.51422e-22)
(8.20908 -0.251939 -4.10766e-24)
(8.20335 -0.253438 -4.27731e-24)
(8.21193 -0.257314 -1.26406e-23)
(8.37279 -0.247779 -2.45285e-24)
(8.36475 -0.253328 -1.44337e-24)
(8.3844 -0.251729 6.1301e-24)
(8.18513 -0.254722 -2.88431e-24)
(8.17411 -0.245948 -4.05208e-22)
(8.15025 -0.237258 6.7966e-24)
(8.15491 -0.240832 -1.19659e-22)
(8.16873 -0.247203 -7.43461e-24)
(8.16516 -0.246253 -5.06192e-23)
(8.11274 -0.218473 0)
(8.12303 -0.226182 -3.62454e-24)
(8.13348 -0.234272 -1.55729e-24)
(8.14547 -0.240354 7.2913e-24)
(8.10322 -0.210137 2.20197e-24)
(8.10828 -0.0781786 2.98413e-21)
(8.11443 -0.086988 -9.91647e-24)
(8.06886 -0.119008 -3.55132e-24)
(8.06186 -0.128427 -5.93736e-26)
(8.10053 -0.0990403 -1.52704e-23)
(8.08701 -0.106726 -2.90394e-24)
(8.05815 -0.136059 -1.90182e-23)
(8.05497 -0.144627 -1.59433e-23)
(8.06042 -0.15628 0)
(8.07012 -0.174228 0)
(8.06292 -0.171223 7.2223e-24)
(8.07056 -0.182229 -1.37581e-24)
(8.07864 -0.193527 4.25699e-22)
(8.08536 -0.196896 4.62782e-22)
(8.08964 -0.201705 -2.39749e-24)
(8.09376 -0.207095 -1.7799e-24)
(8.08705 -0.0663295 -6.59093e-25)
(8.00877 -0.0485548 -5.36131e-21)
(8.03557 -0.0797311 8.01393e-23)
(8.00501 -0.0405235 -2.04291e-20)
(8.04291 -0.0539537 4.83096e-23)
(8.25121 -0.266506 -5.79649e-23)
(8.24366 -0.268588 -8.81629e-23)
(8.29066 -0.269636 5.61982e-23)
(8.29883 -0.268896 1.63436e-24)
(8.307 -0.269169 1.94303e-25)
(8.31521 -0.271424 0)
(8.26921 -0.274438 1.47532e-24)
(8.28582 -0.275736 1.73368e-24)
(8.25437 -0.273489 -2.88318e-24)
(8.33152 -0.267743 -1.38405e-24)
(8.34095 -0.270184 -4.70723e-23)
(8.32522 -0.270946 0)
(8.36095 -0.262182 -1.36993e-22)
(8.23283 -0.265392 2.68238e-25)
(8.2152 -0.262683 6.55193e-23)
(8.21886 -0.268252 -8.04133e-24)
(8.19808 -0.258606 3.15147e-23)
(8.20813 -0.263815 -1.94392e-23)
(8.39543 -0.255125 -7.37776e-23)
(8.38537 -0.26116 -9.61013e-23)
(8.1777 -0.258287 -3.33942e-24)
(8.18289 -0.262766 1.21108e-22)
(8.17322 -0.250796 -3.28232e-22)
(8.15842 -0.24671 2.20171e-23)
(8.1531 -0.246849 2.53416e-24)
(8.16212 -0.254098 -1.13339e-25)
(8.10798 -0.220488 2.60052e-24)
(8.11322 -0.224621 0)
(8.11827 -0.228286 0)
(8.12336 -0.232125 -3.06699e-24)
(8.12795 -0.236147 -4.57533e-24)
(8.13299 -0.240609 -8.18751e-23)
(8.14781 -0.245159 4.19021e-24)
(8.14199 -0.243624 -2.32039e-22)
(8.09836 -0.211649 5.15231e-24)
(8.10286 -0.216503 -9.32271e-23)
(8.10583 -0.0913694 -1.44642e-23)
(8.10415 -0.0808202 1.57444e-23)
(8.0725 -0.110412 -2.98425e-24)
(8.05708 -0.114485 3.03452e-24)
(8.0501 -0.131492 -6.44529e-25)
(8.09247 -0.0930194 1.00475e-21)
(8.07336 -0.102837 1.91348e-22)
(8.05401 -0.151932 0)
(8.04699 -0.147712 0)
(8.05365 -0.16016 0)
(8.06248 -0.178322 5.40333e-24)
(8.05866 -0.171749 4.77062e-23)
(8.06636 -0.182664 -1.11963e-24)
(8.07069 -0.187039 -2.53486e-22)
(8.0744 -0.193 -8.52826e-24)
(8.07732 -0.199747 -2.86108e-24)
(8.08557 -0.204188 4.23282e-24)
(8.09345 -0.21345 2.74861e-23)
(8.07786 -0.059871 -6.3455e-24)
(8.09241 -0.0692589 1.59581e-23)
(8.01326 -0.0258021 2.61135e-23)
(7.99953 -0.0742979 3.43946e-20)
(8.06308 -0.0604332 -1.09752e-21)
(8.28055 0.0850257 1.34673e-23)
(8.2595 0.0928352 -1.12911e-21)
(8.21917 0.0674217 -5.46806e-23)
(8.2197 0.13934 0)
(8.23701 -0.271797 -3.47977e-23)
(8.24213 -0.2767 1.16383e-23)
(8.3027 -0.277775 2.57429e-23)
(8.32084 -0.277826 -2.72433e-24)
(8.27258 -0.281191 2.11033e-24)
(8.26521 -0.280699 1.47694e-23)
(8.28052 -0.282545 7.5124e-25)
(8.29029 -0.284233 0)
(8.24924 -0.279517 2.49786e-24)
(8.25676 -0.280771 1.38947e-24)
(8.35092 -0.274148 -1.11652e-24)
(8.34187 -0.279567 -1.04941e-24)
(8.35885 -0.271861 -7.37493e-24)
(8.37009 -0.269369 -3.22723e-22)
(8.22964 -0.273445 5.8823e-24)
(8.22211 -0.274016 -2.6571e-24)
(8.21456 -0.274724 5.40755e-23)
(8.20129 -0.264671 1.67445e-24)
(8.19409 -0.264359 -4.73848e-23)
(8.2044 -0.270248 -2.234e-24)
(8.37819 -0.268277 -4.12186e-24)
(8.38543 -0.269829 7.10308e-23)
(8.17167 -0.259243 -3.87666e-25)
(8.18849 -0.26522 6.7685e-23)
(8.18131 -0.268497 5.78638e-24)
(8.15003 -0.250495 2.3382e-24)
(8.16593 -0.258646 0)
(8.15932 -0.258997 -3.9895e-25)
(8.10267 -0.222431 6.63902e-24)
(8.11327 -0.230535 0)
(8.1226 -0.238539 -8.20338e-23)
(8.13752 -0.244822 -4.96004e-23)
(8.13114 -0.246928 -2.12976e-24)
(8.14053 -0.249743 5.01658e-24)
(8.09469 -0.0748605 -6.60378e-23)
(8.04631 -0.111299 -7.81091e-23)
(8.04383 -0.119967 -7.84862e-24)
(8.0432 -0.127875 -5.45735e-23)
(8.04161 -0.136127 -5.87314e-25)
(8.07702 -0.0954247 -9.71135e-23)
(8.08335 -0.0888436 9.01122e-23)
(8.06293 -0.0989231 -2.4086e-22)
(8.04069 -0.144358 0)
(8.04156 -0.152513 -1.06925e-24)
(8.05448 -0.166561 6.05646e-24)
(8.04876 -0.161915 -8.61428e-25)
(8.06187 -0.183353 -3.3131e-24)
(8.05362 -0.173749 4.70758e-24)
(8.06853 -0.193429 -7.46243e-25)
(8.08078 -0.20475 4.80657e-24)
(8.07545 -0.204909 -9.69881e-24)
(8.0848 -0.209416 1.74442e-22)
(8.08865 -0.214679 4.31894e-24)
(8.09314 -0.219796 2.98352e-24)
(8.0163 -0.0503124 -2.70669e-23)
(8.02761 -0.0359234 -1.69107e-20)
(8.02658 -0.0773303 -4.57029e-23)
(8.06137 -0.0582229 6.37081e-24)
(8.0739 -0.0611126 2.51399e-23)
(8.29682 0.0969145 -7.00847e-24)
(8.24441 0.103553 1.49259e-22)
(8.25247 0.101239 -1.13076e-24)
(8.24473 0.0968167 7.5996e-23)
(8.25297 0.0605698 -1.70202e-20)
(8.16832 0.156885 1.57985e-22)
(8.24153 -0.283846 -7.29706e-23)
(8.2988 -0.285516 -4.08503e-24)
(8.30744 -0.285899 7.89551e-23)
(8.31697 -0.285319 -6.85514e-24)
(8.327 -0.28486 -2.04249e-22)
(8.27508 -0.289228 -1.71468e-23)
(8.25968 -0.287813 -4.91756e-24)
(8.29267 -0.292728 -5.01619e-25)
(8.35647 -0.282233 8.96749e-25)
(8.33575 -0.286388 -3.67722e-24)
(8.34357 -0.290011 9.38824e-25)
(8.37384 -0.278221 -8.07895e-24)
(8.22483 -0.280519 5.11584e-24)
(8.20768 -0.2756 -2.51982e-24)
(8.20987 -0.281164 -3.60171e-24)
(8.19135 -0.270908 5.19886e-24)
(8.20062 -0.276579 -2.19761e-25)
(8.39168 -0.272768 1.84546e-24)
(8.38465 -0.279816 1.94422e-24)
(8.16703 -0.264421 3.33158e-25)
(8.1824 -0.275181 5.38638e-24)
(8.17622 -0.273083 -2.22748e-22)
(8.14464 -0.252819 -2.77174e-23)
(8.1502 -0.255864 3.0237e-22)
(8.15412 -0.260774 1.50704e-23)
(8.15651 -0.265011 7.98888e-23)
(8.09773 -0.224885 4.11491e-24)
(8.10283 -0.22957 -1.8103e-22)
(8.10843 -0.232271 3.65432e-24)
(8.11329 -0.235687 -3.29931e-24)
(8.11697 -0.240026 -6.36126e-24)
(8.1214 -0.244432 -3.17669e-24)
(8.12549 -0.249122 0)
(8.12935 -0.253314 7.43677e-25)
(8.13957 -0.25462 2.30808e-23)
(8.08631 -0.0799547 1.55652e-22)
(8.08494 -0.069404 7.79454e-22)
(8.04948 -0.10419 -1.41563e-24)
(8.03741 -0.107921 -4.00088e-22)
(8.03449 -0.123405 1.72471e-22)
(8.03473 -0.13992 0)
(8.07664 -0.0837283 -5.5196e-24)
(8.05212 -0.0970948 1.87286e-23)
(8.04455 -0.158513 -5.15707e-23)
(8.03818 -0.155712 -1.20102e-23)
(8.04504 -0.165179 -6.83938e-25)
(8.05719 -0.18376 -5.15433e-24)
(8.06072 -0.188263 -6.34756e-24)
(8.05323 -0.179949 -5.24489e-24)
(8.04914 -0.175431 1.08999e-24)
(8.06295 -0.193501 -3.42427e-24)
(8.06638 -0.199406 2.04241e-25)
(8.06977 -0.205143 1.90774e-23)
(8.07296 -0.210656 6.14101e-24)
(8.0827 -0.215487 1.31953e-24)
(8.09145 -0.226668 0)
(8.04395 -0.0456736 3.32582e-23)
(8.02113 -0.0430775 2.71664e-23)
(7.98838 -0.0762883 3.53336e-20)
(8.05198 -0.0535022 -7.75802e-24)
(8.07986 -0.0628258 6.09063e-22)
(8.26813 0.094748 -1.15628e-23)
(8.28841 0.108616 -6.32323e-21)
(8.24095 0.104286 2.60373e-24)
(8.23528 0.11457 5.74458e-24)
(8.27463 0.104334 2.69031e-22)
(8.24761 0.109897 -2.74597e-21)
(8.24458 0.109136 1.9759e-23)
(8.22378 0.073126 6.607e-24)
(8.22858 0.0959476 1.54075e-22)
(8.2413 0.157295 -8.65919e-20)
(8.234 -0.288933 6.07372e-24)
(8.242 -0.29245 2.70187e-23)
(8.31154 -0.294063 -3.34347e-24)
(8.32884 -0.295263 -1.68981e-22)
(8.27854 -0.298167 3.60354e-23)
(8.26981 -0.296532 -5.66935e-24)
(8.26297 -0.294853 -1.41726e-22)
(8.25435 -0.293839 1.35118e-22)
(8.28583 -0.297982 1.38059e-23)
(8.29336 -0.298699 1.64835e-24)
(8.3522 -0.291848 1.34209e-23)
(8.36026 -0.290885 5.66371e-25)
(8.34517 -0.299325 9.03918e-25)
(8.37702 -0.285659 0)
(8.3698 -0.288569 -3.9602e-25)
(8.2274 -0.287078 2.19692e-22)
(8.21943 -0.286307 4.06636e-24)
(8.21305 -0.285519 -2.5509e-24)
(8.20588 -0.286453 1.3166e-22)
(8.19376 -0.277386 -2.1806e-25)
(8.18777 -0.277369 0)
(8.19644 -0.283064 -2.56889e-23)
(8.39846 -0.277584 -8.34326e-25)
(8.38273 -0.289309 9.23756e-25)
(8.16004 -0.267394 -1.37788e-23)
(8.16617 -0.269951 3.60912e-25)
(8.18283 -0.281855 -1.49606e-24)
(8.17078 -0.274706 5.41199e-24)
(8.17249 -0.281218 4.09732e-24)
(8.14746 -0.262714 2.86484e-24)
(8.15423 -0.270068 -1.06011e-24)
(8.10303 -0.235035 1.46056e-23)
(8.11112 -0.241765 -1.99178e-22)
(8.11891 -0.251065 0)
(8.13431 -0.256189 1.47356e-23)
(8.12815 -0.258486 5.74647e-24)
(8.1382 -0.259747 7.51411e-23)
(8.03053 -0.103075 -3.01655e-23)
(8.02753 -0.109828 -2.18672e-23)
(8.02901 -0.121055 -8.8959e-24)
(8.02973 -0.128534 1.18034e-24)
(8.02966 -0.135584 1.06104e-23)
(8.03016 -0.143339 0)
(8.07193 -0.0785228 -1.74276e-22)
(8.06022 -0.0855075 -2.61092e-22)
(8.03736 -0.0958292 -1.39482e-23)
(8.04794 -0.090831 5.78023e-22)
(8.03348 -0.156341 -3.87479e-22)
(8.03568 -0.162547 -9.24074e-24)
(8.04463 -0.171333 1.09563e-24)
(8.03999 -0.167023 0)
(8.05217 -0.185428 9.30658e-23)
(8.05748 -0.193834 -1.71224e-22)
(8.04322 -0.177725 -1.7907e-23)
(8.06328 -0.205225 -7.16926e-24)
(8.07652 -0.215838 0)
(8.06993 -0.21625 0)
(8.08071 -0.221498 0)
(8.0846 -0.226758 0)
(8.08884 -0.23234 3.60622e-24)
(8.01619 -0.0578978 -7.05369e-23)
(8.03511 -0.0474053 1.22973e-25)
(8.00815 -0.066496 -7.86689e-23)
(8.06319 -0.0557281 -8.26385e-23)
(8.05011 -0.0524438 -8.68954e-22)
(8.07394 -0.0595718 -1.95262e-22)
(8.07675 -0.0665343 -9.71216e-22)
(8.29503 0.11193 1.27371e-20)
(8.22936 0.121648 1.31338e-24)
(8.23374 0.124302 7.29431e-23)
(8.22844 0.123576 7.12927e-24)
(8.23296 0.121137 1.04197e-23)
(8.25093 0.111742 -1.8485e-22)
(8.26042 0.113249 7.08623e-24)
(8.2441 0.119439 1.92702e-23)
(8.2716 0.113602 -3.12636e-22)
(8.28137 0.11525 -9.51295e-24)
(8.24781 0.0778448 -2.84222e-23)
(8.17464 0.164163 -2.72735e-22)
(8.22881 -0.295214 3.84579e-24)
(8.24821 -0.295148 -4.50755e-24)
(8.24158 -0.298902 -1.65866e-24)
(8.31518 -0.300709 1.09098e-24)
(8.30574 -0.30079 0)
(8.32175 -0.303038 4.675e-24)
(8.32948 -0.304641 -2.01632e-23)
(8.28161 -0.304448 -7.68783e-24)
(8.26455 -0.303359 -2.35684e-24)
(8.25195 -0.301549 -3.03248e-24)
(8.29951 -0.303346 1.95145e-24)
(8.29266 -0.307477 2.24739e-22)
(8.36461 -0.298827 -1.27756e-23)
(8.33714 -0.305411 3.98311e-24)
(8.34515 -0.306985 -5.73919e-24)
(8.21584 -0.292242 2.67725e-24)
(8.20018 -0.288836 7.38451e-25)
(8.20455 -0.293785 -3.27317e-24)
(8.19289 -0.290239 1.11894e-22)
(8.40494 -0.280848 6.62127e-23)
(8.3979 -0.286252 -1.45346e-22)
(8.39143 -0.291121 2.88956e-24)
(8.38393 -0.297008 -2.38763e-22)
(8.16339 -0.278133 -1.45062e-24)
(8.1762 -0.284866 -1.4561e-24)
(8.18201 -0.287945 -1.454e-23)
(8.1703 -0.28692 0)
(8.14111 -0.264011 -4.73248e-24)
(8.14422 -0.268162 9.24205e-24)
(8.14752 -0.272224 -1.00926e-24)
(8.1521 -0.276179 0)
(8.10447 -0.24126 4.32931e-23)
(8.0985 -0.239467 -1.51549e-24)
(8.10775 -0.246254 -4.5673e-24)
(8.11124 -0.251369 0)
(8.11511 -0.256783 -1.98792e-24)
(8.12811 -0.265612 4.30359e-24)
(8.12308 -0.263248 2.30881e-23)
(8.13509 -0.265604 4.64772e-25)
(8.02625 -0.097196 2.10178e-22)
(8.02659 -0.115357 -7.31404e-24)
(8.0214 -0.110075 4.52593e-22)
(8.0244 -0.120927 0)
(8.02546 -0.131403 2.43521e-22)
(8.0298 -0.150141 -7.14525e-24)
(8.02484 -0.144509 0)
(8.07373 -0.070185 -5.12344e-24)
(8.05989 -0.0729688 -6.20165e-25)
(8.04337 -0.0837277 -6.42667e-24)
(8.02528 -0.157152 -9.94715e-23)