/*--------------------------------*- C++ -*----------------------------------*\
| =========                 |                                                 |
| \\      /  F ield         | OpenFOAM: The Open Source CFD Toolbox           |
|  \\    /   O peration     | Version:  v2012                                 |
|   \\  /    A nd           | Website:  www.openfoam.com                      |
|    \\/     M anipulation  |                                                 |
\*---------------------------------------------------------------------------*/
FoamFile
{
    version     2.0;
    format      ascii;
    class       volScalarField;
    location    "0.8";
    object      k;
}
// * * * * * * * * * * * * * * * * * * * * * * * * * * * * * * * * * * * * * //

dimensions      [0 2 -2 0 0 0 0];


internalField   nonuniform List<scalar> 
13611
(
0.000196669
0.000156541
0.00100854
0.000187494
0.000218425
0.000254356
0.000138074
0.000335158
0.000254163
0.000229335
0.000257227
0.000156803
0.00018923
0.00107915
0.000252816
0.000233487
0.000252039
0.000250113
0.000120476
0.000187342
0.000314608
0.000254556
0.000253287
0.000250738
0.000249635
0.000250021
0.000128915
0.000217401
0.000989087
0.000255211
0.000251984
0.00025053
0.000248048
0.000247994
0.000244751
0.000133074
0.000194695
0.000354473
0.000254637
0.000252069
0.000248861
0.000246187
0.000246072
0.000245375
0.000115568
0.000203571
0.00114296
0.000122288
0.000253428
0.000255729
0.000250657
0.000248964
0.000245322
0.00024432
0.000242866
0.000245718
0.000157345
0.000227196
0.000398844
0.000104066
0.000253708
0.000255087
0.000250418
0.000247847
0.000257187
0.000243972
0.000246491
0.000242944
0.000240995
0.000241997
0.000151365
0.000230125
0.00101797
9.66303e-05
0.000253018
0.000255777
0.000249378
0.000251691
0.000248102
0.000244389
0.000245673
0.00024161
0.000238658
0.000240392
0.000240742
0.000193691
0.000237316
0.000483583
7.29145e-05
0.000254086
0.000255922
0.000249729
0.000250989
0.000247253
0.000257453
0.000243622
0.000245968
0.000242159
0.000237626
0.000239009
0.000237454
0.000186804
0.000236593
0.000258173
8.40274e-05
0.000255466
0.000253311
0.000248802
0.000251765
0.000247624
0.000257784
0.000259076
0.000244251
0.000245467
0.00024141
0.00023671
0.000239044
0.000235344
0.000235433
0.000217749
0.000232306
0.0002349
0.00108624
6.10904e-05
5.85176e-05
0.000256417
0.000254208
0.000249365
0.000250986
0.000246399
0.00025942
0.000243368
0.000242175
0.000240202
0.000237485
0.00023347
0.000232628
0.000197644
0.000231318
0.000232143
0.000373359
2.83035e-05
0.000105404
0.000256773
0.000253659
0.000255905
0.000249156
0.00025146
0.000245931
0.000258468
0.000260782
0.000243667
0.000241426
0.000240196
0.000237162
0.000234375
0.000231418
0.000233782
0.000232817
0.000230124
0.000229933
0.000230791
0.00108807
8.83278e-05
7.63908e-05
0.000252667
0.000254689
0.00025663
0.000248381
0.000250423
0.000244873
0.000247102
0.000259014
0.000261395
0.00024267
0.000241614
0.000239739
0.000236017
0.000238545
0.000233758
0.000232431
0.000157499
0.00022996
0.000227276
0.00022903
0.000227726
0.000379049
3.27822e-05
0.000253032
0.00025598
0.000254131
0.0002582
0.000248961
0.000250797
0.000245343
0.000246501
0.000260544
0.000262959
0.00024316
0.000240465
0.000235945
0.000238195
0.000234559
0.000231564
0.000163444
0.000227956
0.000226373
0.000225915
0.000227228
0.000230271
8.69635e-05
0.00109418
0.000106606
0.000252246
0.00025683
0.000255099
0.000259212
0.000248444
0.000250176
0.000244518
0.000247173
0.000261677
0.000264381
0.000242369
0.000240869
0.000236963
0.00023909
0.000234579
0.000231452
0.000201562
0.000227316
0.000223378
0.000224758
0.000228007
0.0002297
4.07282e-05
0.000354245
0.000128728
0.000251996
0.000256521
0.000258422
0.000254982
0.000260989
0.00024913
0.000250788
0.000244864
0.000246811
0.000263658
0.000242734
0.000240296
0.000237039
0.000239182
0.000233769
0.000236009
0.000232555
0.00023008
0.000182779
0.000226771
0.000222252
0.000221894
0.000223272
0.000225823
0.000227336
5.93607e-05
9.87708e-05
0.00100435
0.000252982
0.000257516
0.000258866
0.000256406
0.000254339
0.000262593
0.000250357
0.000248806
0.000244004
0.000246
0.000247781
0.000264743
0.00024222
0.000241178
0.000238225
0.000240345
0.000234342
0.000236303
0.000232541
0.000229603
0.000201682
0.000221194
0.000219568
0.000218942
0.000220788
0.000223056
0.000225465
0.000228064
4.58094e-05
0.000113196
0.000496116
0.000252526
0.000257624
0.000260604
0.000256482
0.000255239
0.00026237
0.000264565
0.000251226
0.000249717
0.000244148
0.000246393
0.000247477
0.000267199
0.000268501
0.000242914
0.000238411
0.00024065
0.00023357
0.000235479
0.000237524
0.000231847
0.000230574
0.000168252
0.000221938
0.00021691
0.000219156
0.000221547
0.000224178
0.000226637
0.000227909
8.44618e-05
0.000275223
0.000253347
0.000259564
0.000261075
0.000257973
0.000254817
0.00026436
0.000266186
0.00025088
0.00024945
0.000245108
0.000246106
0.000248316
0.000267848
0.000270955
0.000243217
0.000239614
0.000241798
0.000233883
0.000235812
0.000237822
0.000232107
0.000230351
0.000181086
0.000215618
0.000214328
0.000216368
0.000218157
0.000220967
0.000224504
0.000226013
0.000229215
8.52357e-06
0.00108252
3.40989e-05
0.000253089
0.000259572
0.000262963
0.000258666
0.000256151
0.000266542
0.000264349
0.000267272
0.000251782
0.000250336
0.000245511
0.000247021
0.000248012
0.00026992
0.000271476
0.00024472
0.00024253
0.000239635
0.00024199
0.000233058
0.00023501
0.000236978
0.000238869
0.000231172
0.000177123
0.000213197
0.000216839
0.000215491
0.000219127
0.00022207
0.000223724
0.000226956
0.000229287
8.96725e-05
0.000444848
6.77633e-07
0.000254225
0.000261343
0.0002637
0.00025801
0.000260641
0.000255771
0.000267356
0.000266055
0.000269608
0.000251608
0.000250142
0.000246556
0.000248873
0.000274059
0.000245016
0.000242769
0.000240809
0.000241759
0.000233404
0.000235338
0.00023732
0.000239278
0.000231418
0.000207278
0.000210756
0.000213488
0.000216147
0.000212031
0.0002167
0.000218602
0.000222229
0.000224568
0.000226903
0.000228533
0.000230522
0.000113674
0.00010418
0.00116346
6.31282e-05
0.000266188
0.000259073
0.000254482
0.000263116
0.000265581
0.000259351
0.000261902
0.000257155
0.000269609
0.000271732
0.000253152
0.000251443
0.000247361
0.00024872
0.000276336
0.00027509
0.000244003
0.000246219
0.000240449
0.00024264
0.000232602
0.000234557
0.000236489
0.000238477
0.000239246
0.000183809
0.000209719
0.000213117
0.000212953
0.000209061
0.000216709
0.000219922
0.000223722
0.000221546
0.000226015
0.000228068
0.000228974
0.000231006
0.000105722
0.000435815
9.09047e-05
0.000255094
0.000262914
0.000252311
0.000149488
0.0010042
0.000256107
0.000264773
0.000267485
0.000261277
0.000258775
0.000264063
0.000271684
0.000271095
0.000274509
0.000252971
0.000251396
0.000247243
0.000249996
0.000278491
0.000243859
0.000246972
0.000240999
0.000242898
0.000233219
0.000234891
0.00023689
0.000238944
0.000240237
0.000202621
0.000207735
0.000211202
0.000214961
0.000210767
0.000206874
0.000218226
0.000219535
0.000224173
0.000222459
0.000226363
0.000228468
0.00023015
0.000232384
3.4571e-05
0.00103088
6.28067e-05
0.000178437
0.000228805
0.000250819
0.00026224
0.000249475
0.000142635
0.000264872
0.000256915
0.000266909
0.000270287
0.000262871
0.000260245
0.000265137
0.000274952
0.000274177
0.000277601
0.000254438
0.000252552
0.00024893
0.000250178
0.000280088
0.000279906
0.00024488
0.000248664
0.000247179
0.000242136
0.000244138
0.00023439
0.000236138
0.000238148
0.000240028
0.000240554
0.000207219
0.000211159
0.000214831
0.000208241
0.000204735
0.000218713
0.000220732
0.000223782
0.000225581
0.00022203
0.000227611
0.000229775
0.00023061
0.000232873
6.20062e-05
0.000522495
0.000101256
0.000195332
0.000251733
0.000247514
0.000254943
0.000252475
0.000250141
0.000255959
0.000149168
0.000993545
0.000256242
0.000258958
0.000268773
0.000272446
0.000264797
0.000262313
0.000260022
0.000267786
0.00027777
0.000275945
0.000254136
0.000253115
0.00025189
0.000285045
0.000282968
0.000282567
0.00024634
0.00024969
0.000248788
0.000242656
0.000244862
0.000235188
0.000236427
0.000238582
0.00024115
0.000241868
0.000204982
0.000208695
0.000210423
0.000213286
0.000216587
0.000207347
0.000203924
0.00021833
0.000220319
0.000224775
0.000225945
0.000223056
0.000228179
0.000230344
0.000231977
0.000234426
1.58207e-05
0.000284909
0.000178302
6.87161e-05
0.000203812
0.000222538
0.000245083
0.000247304
0.000254097
0.000253916
0.000249002
0.000256805
0.000142456
0.000238381
0.000257945
0.000260002
0.000271681
0.00026917
0.000275143
0.000266839
0.000264171
0.000261698
0.000268703
0.000281776
0.000280102
0.000255587
0.000254809
0.000252109
0.00028459
0.000285821
0.000247222
0.000251177
0.000249822
0.000244012
0.000246409
0.000235506
0.000237534
0.000239934
0.000242351
0.000241012
0.000204946
0.00020907
0.000211669
0.000213126
0.000216462
0.000202241
0.000200293
0.000219994
0.000221351
0.000224632
0.000227216
0.000223039
0.000229604
0.000231805
0.000232554
0.000234709
5.83953e-05
0.00104824
0.000199131
9.79185e-05
0.000202977
0.000234838
0.000243678
0.000245359
0.000244949
0.000248175
0.000253188
0.00025092
0.000255696
0.000126524
0.000973484
0.000257332
0.000259749
0.000261544
0.000273551
0.000271838
0.000278055
0.000267426
0.000263493
0.000266577
0.00027116
0.000285859
0.000282549
0.000281214
0.00025589
0.000254119
0.000291574
0.000289638
0.000290394
0.000248965
0.000252318
0.000251741
0.000244704
0.000247298
0.000237209
0.000238236
0.000240617
0.000243713
0.00024245
0.000203118
0.000207447
0.000210751
0.000214656
0.000217929
0.000199744
0.000200614
0.000221675
0.000219723
0.000226146
0.000228282
0.00022473
0.000230773
0.000232975
0.000233945
0.000236376
1.45462e-05
0.000341825
0.000175296
6.49861e-05
0.000200535
0.000162642
0.000240766
0.000246291
0.000242041
0.000251306
0.000254206
0.000250406
0.000256846
0.00025545
0.000302278
0.000258345
0.000261248
0.000262788
0.000276515
0.000273089
0.000278649
0.000270375
0.000264319
0.000269009
0.000272226
0.00029042
0.000287587
0.000285118
0.00025562
0.000257804
0.000253933
0.00029542
0.000294154
0.000249789
0.000253124
0.000246348
0.000248925
0.000238241
0.000239865
0.000241988
0.000244256
0.000243835
0.000203637
0.000207833
0.000212061
0.000214626
0.000218834
0.000197594
0.000198364
0.000223615
0.00022208
0.000226379
0.000227961
0.000230319
0.00022504
0.000232547
0.000234779
0.000235234
0.00023657
0.000237694
7.20236e-05
0.00105511
0.000191069
8.89156e-05
0.000198423
0.00015293
0.000242033
0.000248943
0.000244987
0.000240182
0.000238781
0.000203754
0.000248517
0.000253087
0.000251739
0.000257096
0.000254329
0.00108084
0.000134977
0.000260483
0.00026181
0.000263146
0.000278945
0.000277082
0.000283426
0.000271363
0.000266685
0.000268868
0.000275599
0.000291149
0.000294566
0.000288415
0.000286254
0.000257263
0.000259371
0.000255498
0.000298451
0.000298146
0.00025175
0.000252915
0.000255112
0.000247048
0.000250293
0.000240333
0.000241061
0.00024325
0.000246033
0.000245345
0.000202354
0.000206114
0.000210345
0.000212434
0.000216722
0.000218966
0.000221431
0.000195137
0.000199375
0.000224911
0.00022395
0.000228347
0.000229576
0.00023211
0.00022735
0.00023386
0.000235684
0.000237892
0.000239042
1.54725e-05
0.000336664
0.000160198
0.000197534
5.64712e-05
0.000197305
0.000195238
0.000240614
0.000248571
0.000245736
0.000236642
0.000238361
0.000198597
0.000248112
0.000252977
0.000250773
0.000256035
0.0002546
0.000319722
0.000106593
0.000261089
0.000264823
0.000265742
0.000282757
0.000278163
0.000274575
0.000267636
0.000271491
0.000277081
0.000296078
0.000297949
0.000292968
0.000290192
0.000257243
0.000259149
0.000302772
0.000302162
0.000252467
0.000254682
0.000256434
0.000248903
0.000250129
0.000252121
0.000241601
0.000242868
0.000245063
0.00024668
0.000204029
0.000207433
0.000211526
0.000215992
0.000218205
0.000221204
0.000222917
0.00019456
0.000199026
0.000224464
0.000227194
0.000225755
0.000228865
0.000229848
0.000231607
0.000233967
0.000235598
0.000237623
0.000238597
0.000240793
7.42621e-05
0.00104065
0.000177941
0.000194883
8.6562e-05
0.000194055
0.000192815
0.000241705
0.000247485
0.000249509
0.000245057
0.000236349
0.00023446
0.000240166
0.000218539
0.000121854
0.000244048
0.000239535
0.000252288
0.000250977
0.000258711
0.000256359
0.000254111
0.0010054
0.000263855
0.000265828
0.000266688
0.000286121
0.000282306
0.000276474
0.000269991
0.000274838
0.000280418
0.000296608
0.000299182
0.000301751
0.00029344
0.000292174
0.000259157
0.000260803
0.000305863
0.000305824
0.00025413
0.000256292
0.000258882
0.000249549
0.000251816
0.000253222
0.000243891
0.00024432
0.000246633
0.000248454
0.000205489
0.000201687
0.000209958
0.000214404
0.000216196
0.000222033
0.00022367
0.000225272
0.000192526
0.00019679
0.000227058
0.000229392
0.00022668
0.000231115
0.000231595
0.000233052
0.00023581
0.000237499
0.000238888
0.000240682
0.000242068
1.61041e-05
0.000341067
0.000159461
0.000195098
5.76869e-05
0.000192801
0.000191498
0.000243844
0.000246965
0.000248977
0.0002458
0.00023676
0.000232189
0.00024054
0.000221453
0.000102713
0.000246128
0.000235506
0.000253014
0.000250918
0.00025759
0.000255093
0.000312331
0.000264442
0.000268392
0.00026987
0.000285774
0.000291041
0.000282882
0.000281108
0.000271757
0.000277349
0.000282765
0.000300347
0.000302497
0.000304525
0.000297265
0.000296345
0.000261092
0.00026008
0.00026331
0.000309443
0.000309476
0.000254634
0.000258525
0.000260272
0.00025111
0.000253234
0.000245061
0.000244928
0.000246396
0.000248638
0.00024923
0.000202669
0.000205551
0.000211036
0.000215463
0.000219443
0.000224014
0.000227671
0.000228168
0.000191478
0.000197445
0.000229151
0.000232181
0.000230843
0.000232851
0.000232928
0.000235513
0.00023768
0.000236783
0.000241018
0.000241939
0.00024195
0.000244292
7.89705e-05
0.00105271
0.0001755
0.000192918
6.17439e-05
0.000189826
0.000189688
0.000243372
0.000247664
0.000249765
0.00024513
0.000235652
0.000239251
0.000233671
0.000230765
0.000242201
0.000165074
0.000238411
0.000116387
0.000237078
0.000252007
0.000257579
0.000255036
0.000994853
0.000267588
0.000270495
0.000270619
0.000289568
0.000293726
0.000286448
0.000283135
0.000275537
0.000281362
0.000286084
0.00030029
0.000303993
0.000304748
0.00030811
0.000298814
0.000263421
0.000263134
0.000264841
0.000315204
0.000312338
0.000310119
0.000312767
0.000256874
0.000258883
0.00026286
0.000252202
0.000255282
0.00024729
0.00024737
0.000248273
0.000249776
0.000251181
0.00022454
0.000213409
0.000201843
0.000212777
0.000221421
0.000225288
0.000230473
0.000231276
0.000231481
0.000189452
0.000194725
0.000232196
0.000234701
0.000233401
0.000235701
0.00023677
0.000237161
0.000237033
0.000240301
0.000239704
0.0002429
0.000243792
0.000243984
0.00024572
2.37119e-05
0.000326613
0.000175754
0.000192583
3.91827e-05
0.00012075
0.000188587
0.000189149
0.000243986
0.000247409
0.000249702
0.000245482
0.0002366
0.000238991
0.00023311
0.000229601
0.000241858
0.000150722
0.000240636
9.63245e-05
0.000231657
0.000252457
0.000260001
0.000256354
0.000258815
0.000254091
0.000469005
0.00026691
0.000269981
0.000274029
0.00027426
0.00028932
0.000293219
0.000297586
0.000287348
0.000277956
0.000283666
0.000288334
0.000302927
0.000307131
0.000309213
0.00031039
0.00030259
0.00026463
0.000264384
0.00031935
0.000314824
0.000315756
0.000257337
0.000261709
0.000264677
0.000254587
0.000255956
0.00024904
0.00024852
0.00024982
0.000251812
0.000252547
0.000288291
0.000206269
0.000210527
0.000229098
0.000250846
0.000241326
0.000245048
0.000231642
0.000236628
0.00023569
0.000188452
0.000205903
0.000235368
0.000238454
0.000238599
0.000238031
0.000239455
0.000240152
0.000239848
0.000242638
0.000241598
0.000245828
0.000246004
0.000245581
0.000248167
6.19145e-05
0.000963633
0.000188637
0.000192001
3.28716e-05
0.000119556
0.000185909
0.000185482
0.000243694
0.000246536
0.000248585
0.000251007
0.000244508
0.000238046
0.000235697
0.000240082
0.000234264
0.000231268
0.000227273
0.000241069
0.000242726
0.000178917
0.000234356
0.000227051
0.000112418
0.000229513
0.000252128
0.000256485
0.00025895
0.000254276
0.000364553
0.00026904
0.000273259
0.000276619
0.000277245
0.000292395
0.000295575
0.000299179
0.000288392
0.000289175
0.000282328
0.000287068
0.00029179
0.000306467
0.000304087
0.000310824
0.000311739
0.000314088
0.000304906
0.000267681
0.000267245
0.000319537
0.000317431
0.0002598
0.000261989
0.000264306
0.000267804
0.000256001
0.000258708
0.000251712
0.000251198
0.000251831
0.000253517
0.000254982
0.00018718
0.0002214
0.000214303
0.000198353
0.000207808
0.000225592
0.000236368
0.000245813
0.000257659
0.000237729
0.00024889
0.000238984
0.00018367
0.000197484
0.000199072
0.000239479
0.000241814
0.000241489
0.000241903
0.000243587
0.000241609
0.000243153
0.00024577
0.00024441
0.000249107
0.000248145
0.00024745
0.000249253
3.03578e-05
0.000423173
0.000184839
0.000187533
6.85467e-05
0.00014862
0.000184698
0.000247056
0.00024879
0.00025096
0.000245178
0.00023824
0.000235494
0.000239293
0.000233705
0.000231014
0.000227375
0.000241201
0.000242253
0.000154561
0.000233166
0.000235839
8.72213e-05
0.000225675
0.00025318
0.000261721
0.000255364
0.000257776
0.000260401
0.000992488
0.000138737
0.000272342
0.000276452
0.000279639
0.000279942
0.000295345
0.000298354
0.000303015
0.00029158
0.000291906
0.000283707
0.000289388
0.000293408
0.000309681
0.000308082
0.000315768
0.000315449
0.00031701
0.000305087
0.000308751
0.000269002
0.000268773
0.000334447
0.000325283
0.000322391
0.000260457
0.000264706
0.000267268
0.000270204
0.000258486
0.000259682
0.000253311
0.000252486
0.00025298
0.000253534
0.000255874
0.000256919
6.58943e-05
4.48586e-05
0.000165261
0.000154245
0.000180376
0.00013073
0.00013273
0.000247149
0.000308103
0.000253247
0.000260853
0.000241635
0.000186614
0.000196382
0.000202924
0.000181988
0.000245788
0.000247379
0.000245011
0.000246911
0.000245677
0.000246398
0.00024909
0.000246206
0.000246986
0.000252216
0.000251098
0.000251906
1.58884e-05
0.000201101
0.000194712
0.000184782
6.66139e-05
0.000149173
0.000182969
0.000246547
0.000248232
0.000250076
0.000252043
0.000244533
0.000237542
0.000234292
0.000236386
0.000239341
0.000232496
0.000229694
0.000225235
0.000240525
0.000243189
0.000183414
0.000228856
0.000220269
5.58266e-05
0.00022384
0.000253166
0.00026351
0.000255629
0.000258094
0.000260888
0.00119087
7.53447e-05
0.000274347
0.000279627
0.000282703
0.000282971
0.000298145
0.000300737
0.00030342
0.000293828
0.000292009
0.000293829
0.000287075
0.000289128
0.000296587
0.000314259
0.000309994
0.000321011
0.000320386
0.000324153
0.00030932
0.000311381
0.000271958
0.000272475
0.000331596
0.000328566
0.000262911
0.00026502
0.000267254
0.000270176
0.000273068
0.000260376
0.00026282
0.000256151
0.000253763
0.000254912
0.000255683
0.000257115
0.000258085
0.000259677
0.000407771
4.49789e-05
8.83613e-05
0.000240376
0.000175557
7.28279e-05
0.000176461
0.000186265
0.000212248
0.000284701
0.000269694
0.000260402
0.000247058
0.000183037
0.000194081
0.00018253
0.000159678
0.000250014
0.000249754
0.000250083
0.000251009
0.000246757
0.000250395
0.000252395
0.000250076
0.000250137
0.000255417
0.000252224
0.000253065
1.87691e-06
0.00101486
6.5792e-06
0.000188256
0.000176242
0.000181683
0.000110164
0.000181326
0.000247394
0.000248955
0.000250007
0.000252048
0.000245108
0.000237978
0.0002338
0.0002357
0.000239084
0.000231861
0.000230363
0.000225695
0.000240992
0.000242879
0.000122023
0.00022317
0.000225618
0.000233621
0.000222866
0.000254418
0.000266625
0.000263822
0.000256977
0.000259667
0.000262604
0.000567014
7.03524e-05
0.000274149
0.000278366
0.000280073
0.000282773
0.000285772
0.000285804
0.000300941
0.000298522
0.000306048
0.000296617
0.000294704
0.000296821
0.00028797
0.000291135
0.000317041
0.000314121
0.00032891
0.000325892
0.000328712
0.000309279
0.000314386
0.000273742
0.000339846
0.000347086
0.000338828
0.000264197
0.000268304
0.000270017
0.000273511
0.000275778
0.000262897
0.000256958
0.000258181
0.000256601
0.000258629
0.000259357
0.00026146
0.000262352
0.000971629
0.000324977
0.00100726
0.000278845
0.00135722
0.000180752
0.000482831
0.000745967
0.000252428
5.23862e-06
0.000271308
0.00023744
0.000279547
0.000248038
0.000185388
0.000186745
0.000193254
0.000157717
0.000138397
0.000254521
0.000252385
0.000251985
0.000252074
0.000254313
0.000252164
0.000252761
0.000256195
0.000254417
0.000257843
0.000257096
0.000256083
0.000256197
7.10534e-06
0.000294035
1.69233e-05
0.000185336
0.00018095
0.000179329
0.000110263
0.000179984
0.000248661
0.000247218
0.000250914
0.000253172
0.000246388
0.000244738
0.000237606
0.000234537
0.000232448
0.000236259
0.000239959
0.000229506
0.000228091
0.000223799
0.000242058
0.000243814
0.00012696
0.000220698
0.000220321
0.000229082
0.000189947
0.000221153
0.000254422
0.000268164
0.000265308
0.000257502
0.000260317
0.000263356
0.000354297
4.17056e-05
0.000277388
0.000279403
0.000283175
0.000285169
0.000287891
0.000303932
0.000302036
0.000306545
0.000299244
0.000297111
0.00029538
0.000299227
0.000289668
0.000293825
0.000325811
0.000315386
0.000335878
0.000332929
0.000333433
0.000337367
0.000312846
0.00032004
0.000276852
0.000352754
0.000345556
0.00026744
0.000270355
0.000273153
0.000276242
0.000278626
0.000265132
0.000260009
0.000261093
0.000258059
0.000260911
0.000262812
0.000263905
0.000265134
0.00236944
0.00163039
0.00200144
0.000984824
0.00143548
0.00252887
0.0020895
0.00124101
0.00150616
0.00056581
8.66246e-05
7.6297e-05
0.00023938
3.73571e-06
0.000274515
0.000181802
0.000172182
0.000190937
0.000112727
0.000255337
0.000259523
0.000258759
0.000256321
0.000257292
0.000257469
0.000254769
0.000256463
0.000258921
0.00025782
0.000261319
0.000261554
0.000257765
5.43748e-05
5.96967e-05
0.00100503
4.08064e-05
0.000184448
0.000180273
0.000149589
0.000178598
0.000249478
0.000248329
0.000250776
0.000253822
0.000246456
0.00024548
0.000238545
0.00023392
0.000231962
0.000236386
0.000240347
0.000230019
0.000227859
0.000223762
0.00024248
0.000243453
0.000218046
0.000224256
0.000199996
0.000220605
0.000255963
0.000267779
0.000266179
0.000259365
0.000257219
0.000262248
0.000265209
0.00109501
0.000121081
0.000115378
0.000281607
0.000283568
0.000285354
0.000287652
0.000290488
0.000304465
0.000301978
0.000310048
0.000301305
0.000299774
0.000298913
0.000291301
0.000295563
0.000331674
0.000327018
0.000323146
0.000343872
0.000343792
0.000339054
0.00034502
0.000319406
0.000322994
0.000278961
0.00035498
0.000352788
0.000353045
0.000268605
0.0002723
0.000274253
0.000278558
0.000280911
0.000267898
0.000262256
0.000263429
0.000261734
0.00026401
0.000265044
0.000267731
0.000267392
0.00357767
0.0033738
0.00148445
0.00240839
0.00298112
0.00405841
0.00368285
0.0040085
0.0013786
0.000290327
5.13676e-05
0.000203789
0.00018343
0.000291342
0.000185102
0.000126727
0.000182827
0.000191185
0.000235777
0.00116485
0.000263747
0.000287072
0.000258563
0.000260219
0.000260487
0.00025917
0.000259379
0.000262675
0.000261577
0.000263257
0.00026322
0.000263645
0.000261357
2.19932e-05
0.000239633
5.90815e-05
0.000184346
0.000177535
0.000155413
0.000177263
0.000249499
0.000248471
0.000251848
0.000255447
0.000253256
0.000247387
0.000245459
0.000239734
0.000238546
0.000234384
0.000232891
0.000231124
0.000237692
0.000235461
0.000241752
0.000228919
0.000226935
0.000225544
0.000221915
0.000244279
0.000218557
0.000216861
0.000223233
0.000217036
0.000271213
0.000269318
0.000259782
0.000258533
0.000262492
0.00026586
0.000515981
7.58669e-05
0.000114162
0.000282925
0.000286091
0.000287567
0.00028974
0.00029251
0.000307026
0.000304711
0.000310737
0.000301899
0.000304032
0.000300854
0.000298415
0.000294624
0.000338936
0.000334623
0.000345835
0.000348179
0.000345772
0.000346786
0.000349865
0.000323658
0.000323642
0.00033324
0.000282091
0.000351681
0.00035106
0.000351997
0.000271964
0.000273869
0.000277053
0.00028086
0.000279809
0.000283415
0.000270057
0.000265325
0.000266592
0.000263354
0.000266273
0.000268385
0.000269647
0.000268955
0.000270066
0.00325277
0.0041938
0.00166987
0.00240798
0.00299445
0.00314972
0.00420233
0.00491925
0.00441665
0.00483855
0.00143347
0.00403289
0.000689941
0.000174966
0.000217461
0.00192338
0.000182963
9.24198e-05
0.000170583
0.000189947
0.000944452
0.00136799
0.000274419
0.000293681
0.000262554
0.000265561
0.000264052
0.000262965
0.000262534
0.000264522
0.000262966
0.000263769
0.000266777
0.000266819
0.000267142
4.16597e-05
3.23199e-05
0.000946388
0.00012384
0.000172991
0.000181961
0.000176768
0.000175661
0.000178952
0.000250959
0.000249754
0.000252063
0.000256497
0.00025419
0.000247717
0.000246642
0.000240283
0.000239486
0.00023339
0.000232663
0.000231574
0.00023801
0.000235848
0.000242118
0.000228964
0.000227107
0.000224777
0.000221823
0.000244249
0.000218574
0.000214585
0.000220027
0.000224112
0.000273635
0.000269687
0.000261208
0.00025871
0.000264049
0.000268125
0.000265559
0.000373265
5.96614e-05
0.00017558
0.000285582
0.000287872
0.000289666
0.000292076
0.000295354
0.000310203
0.000308565
0.000316666
0.000304627
0.000306589
0.000304584
0.000300248
0.000296184
0.000340218
0.000345667
0.000336998
0.0003485
0.000348785
0.000347703
0.000352136
0.000331572
0.000322162
0.000333445
0.000336215
0.000283917
0.000351107
0.000350269
0.000272345
0.000273883
0.000276986
0.000279284
0.000283155
0.000282605
0.000284998
0.000267556
0.000269063
0.000266851
0.000269638
0.000270645
0.000272897
0.00027217
0.000272695
0.00290288
0.00311355
0.00235789
0.00245684
0.00218605
0.00186305
0.0041741
0.00458597
0.00544208
0.00550992
0.0036066
0.00550404
0.00175158
0.000544962
0.000169561
0.00363628
0.00262952
0.000191349
8.19773e-06
0.000758683
0.000195037
0.00135703
0.00194015
0.000271125
0.000275862
0.000266395
0.000268858
0.000268692
0.000266557
0.000267276
0.00026714
0.000267017
0.000268162
0.000268256
0.000268383
0.000268763
3.91164e-05
1.87461e-05
0.000218282
0.000141979
0.000169913
0.000181418
0.000173449
0.000174579
0.000176025
0.000250922
0.000250202
0.000253298
0.000258044
0.000255675
0.000249228
0.000246531
0.000241358
0.000239957
0.000233693
0.000231253
0.000239187
0.000237126
0.000235097
0.000243357
0.000228341
0.000230252
0.000226606
0.000225278
0.000223532
0.000220562
0.000245442
0.000217426
0.000212033
0.000215552
0.000223916
0.00021309
0.000275354
0.000272714
0.000261532
0.000260423
0.000264376
0.000268828
0.000267154
0.00112359
0.000122051
3.13849e-05
0.000172779
0.000287214
0.000290396
0.000291545
0.000294356
0.000296873
0.000315978
0.000312964
0.000306781
0.000310566
0.000305346
0.000303722
0.000298842
0.000345169
0.00034705
0.000343509
0.000347972
0.000348417
0.000347219
0.000349545
0.00033598
0.00032854
0.000334772
0.000342156
0.000286443
0.000352299
0.000349551
0.000274831
0.000276995
0.000278479
0.000281196
0.00028498
0.000284281
0.000287491
0.000270672
0.00027194
0.000268925
0.000271592
0.000273725
0.00027451
0.000274513
0.000274418
0.000274961
0.00145002
0.0018773
0.00226371
0.00215545
0.00195541
0.00156242
0.00102127
0.00262228
0.00407362
0.00582691
0.00411948
0.00389152
0.00665732
0.00284403
0.000529592
1.29016e-05
0.00643467
0.00553594
0.000189921
0.00014939
0.00133095
0.000641034
0.000173753
0.00197849
0.00227864
0.000247648
0.000281966
0.000272392
0.000275779
0.000273279
0.000269498
0.000269021
0.000269045
0.00027056
0.000270836
0.00027126
0.000271704
8.38825e-05
7.99546e-06
0.000907975
2.80871e-05
0.000137801
0.000176103
0.00017802
0.000172664
0.000172652
0.000181324
0.00025223
0.00025154
0.000253778
0.000259155
0.000256334
0.000249433
0.000247659
0.000241965
0.00024129
0.000233376
0.000232273
0.000240068
0.000237359
0.00023525
0.000243858
0.000229148
0.000230235
0.000227456
0.00022557
0.000222803
0.000221224
0.000245849
0.00021857
0.000212436
0.000214477
0.000220898
0.000209075
0.000278172
0.000275132
0.000272923
0.000263085
0.000260634
0.000266236
0.000270983
0.00026784
0.000547633
0.000110529
8.15015e-05
0.000201769
0.000289693
0.000292097
0.000290752
0.000293902
0.000296627
0.000299479
0.000321137
0.000320427
0.000311998
0.000314818
0.0003117
0.00030581
0.000306429
0.000300679
0.000345911
0.000346803
0.000344508
0.000347127
0.000348243
0.00034927
0.000346656
0.000348759
0.000342461
0.000328309
0.000338303
0.000288238
0.000351874
0.000356067
0.000277119
0.000278945
0.000280688
0.000283538
0.000286862
0.000286625
0.00028854
0.000272209
0.00027441
0.000271408
0.000274516
0.000275428
0.000276934
0.000277338
0.000277253
0.000277317
0.000850859
0.00167414
0.00208025
0.000895318
0.000609457
0.000345754
0.00219038
0.00413838
0.00622226
0.00258733
0.00626998
0.00666605
0.00432016
0.00191686
0.00024982
0.00689042
0.00763363
0.00018278
0.000189271
0.000105972
0.00164744
0.000924996
0.00188147
0.00165544
1.92002e-05
0.000231924
0.000276446
0.000278141
0.000278494
0.00027974
0.000273668
0.000272431
0.00027358
0.00027214
0.000272707
0.000273511
0.000274597
8.16782e-05
4.30773e-05
0.000349008
1.06111e-05
0.0001568
0.000173787
0.000177454
0.00016867
0.000172742
0.000176124
0.000253411
0.000252252
0.00025544
0.000259221
0.000258027
0.000248808
0.000250955
0.000247078
0.000243221
0.000242251
0.000234248
0.000232208
0.000241684
0.000239778
0.000236258
0.00023864
0.000245151
0.000228668
0.00023118
0.000226898
0.000224684
0.000223153
0.000220312
0.000217521
0.000211204
0.000215543
0.000211055
0.00022141
0.000209064
0.000280791
0.000278572
0.000275644
0.000263562
0.000262097
0.00026711
0.000272125
0.000270528
0.000467489
4.22107e-05
6.2057e-05
0.00019899
0.000291096
0.000293897
0.000293144
0.000295157
0.000299036
0.000301142
0.000323605
0.000324802
0.000317059
0.000322016
0.000310296
0.000316109
0.000312102
0.000304434
0.000345187
0.000346401
0.000344121
0.000348243
0.000349593
0.000350774
0.000347362
0.000355122
0.000343077
0.00033386
0.00033821
0.000342287
0.000290584
0.000362676
0.000367989
0.000278976
0.000280839
0.000282087
0.000284668
0.000287494
0.000288343
0.000290612
0.000274891
0.000274043
0.000276188
0.000275938
0.000277741
0.000278453
0.000279239
0.000279061
0.000279177
7.31881e-05
0.00023668
0.00118377
0.000580844
0.000360897
0.000138131
3.91254e-05
0.0010357
0.00331984
0.00249468
0.00553112
0.00131757
0.00670131
0.00736429
0.00265777
0.00106855
0.0068997