/*--------------------------------*- C++ -*----------------------------------*\
| =========                 |                                                 |
| \\      /  F ield         | OpenFOAM: The Open Source CFD Toolbox           |
|  \\    /   O peration     | Version:  v2012                                 |
|   \\  /    A nd           | Website:  www.openfoam.com                      |
|    \\/     M anipulation  |                                                 |
\*---------------------------------------------------------------------------*/
FoamFile
{
    version     2.0;
    format      ascii;
    class       volScalarField;
    location    "0.8";
    object      nut;
}
// * * * * * * * * * * * * * * * * * * * * * * * * * * * * * * * * * * * * * //

dimensions      [0 2 -1 0 0 0 0];


internalField   nonuniform List<scalar> 
13611
(
1.0572e-05
1.00819e-05
1.30872e-05
1.05907e-05
1.08788e-05
1.11715e-05
9.76951e-06
1.16823e-05
1.11727e-05
1.09774e-05
1.12018e-05
1.0058e-05
1.05796e-05
1.31747e-05
1.11696e-05
1.1027e-05
1.11721e-05
1.11592e-05
9.32398e-06
1.05733e-05
1.16242e-05
1.11873e-05
1.11805e-05
1.116e-05
1.11636e-05
1.11687e-05
9.56036e-06
1.09222e-05
1.30959e-05
1.11943e-05
1.11795e-05
1.11681e-05
1.11591e-05
1.11582e-05
1.11403e-05
9.6671e-06
1.06785e-05
1.18363e-05
1.11978e-05
1.11873e-05
1.11634e-05
1.11523e-05
1.11512e-05
1.11552e-05
9.267e-06
1.08007e-05
1.31427e-05
9.37388e-06
1.11966e-05
1.12104e-05
1.11845e-05
1.11716e-05
1.11526e-05
1.11454e-05
1.11399e-05
1.11663e-05
1.01672e-05
1.10291e-05
1.20305e-05
8.86862e-06
1.12088e-05
1.12184e-05
1.11932e-05
1.11715e-05
1.12362e-05
1.11493e-05
1.11636e-05
1.1143e-05
1.11341e-05
1.11481e-05
1.00833e-05
1.10712e-05
1.30178e-05
8.69262e-06
1.12151e-05
1.12299e-05
1.11931e-05
1.12078e-05
1.11832e-05
1.11576e-05
1.11661e-05
1.11412e-05
1.11234e-05
1.11348e-05
1.11465e-05
1.07069e-05
1.11311e-05
1.2292e-05
7.76766e-06
1.1238e-05
1.12407e-05
1.12044e-05
1.12145e-05
1.11851e-05
1.12589e-05
1.11597e-05
1.11759e-05
1.1151e-05
1.11218e-05
1.11315e-05
1.113e-05
1.06362e-05
1.11344e-05
1.1234e-05
8.29022e-06
1.1249e-05
1.12458e-05
1.12081e-05
1.1233e-05
1.11992e-05
1.12763e-05
1.12925e-05
1.11734e-05
1.11814e-05
1.11526e-05
1.11224e-05
1.11397e-05
1.1116e-05
1.11217e-05
1.10005e-05
1.11133e-05
1.11227e-05
1.30847e-05
7.13599e-06
7.0801e-06
1.12707e-05
1.12702e-05
1.12236e-05
1.12363e-05
1.11948e-05
1.13083e-05
1.11755e-05
1.11665e-05
1.1149e-05
1.11335e-05
1.11117e-05
1.11067e-05
1.07957e-05
1.11101e-05
1.11098e-05
1.19008e-05
4.62744e-06
9.06933e-06
1.12856e-05
1.12762e-05
1.12865e-05
1.12341e-05
1.12562e-05
1.12026e-05
1.13068e-05
1.13264e-05
1.1189e-05
1.11682e-05
1.11574e-05
1.11407e-05
1.11254e-05
1.11053e-05
1.11832e-05
1.11473e-05
1.11038e-05
1.10971e-05
1.11052e-05
1.30658e-05
8.39285e-06
8.03465e-06
1.12722e-05
1.12981e-05
1.13086e-05
1.12357e-05
1.12543e-05
1.12011e-05
1.12241e-05
1.13283e-05
1.13503e-05
1.1189e-05
1.11787e-05
1.11632e-05
1.11375e-05
1.11571e-05
1.11306e-05
1.11219e-05
1.02512e-05
1.11271e-05
1.10902e-05
1.10972e-05
1.10913e-05
1.1912e-05
5.10367e-06
1.12905e-05
1.13117e-05
1.13049e-05
1.13289e-05
1.12569e-05
1.12685e-05
1.12198e-05
1.12329e-05
1.13513e-05
1.13745e-05
1.12056e-05
1.11765e-05
1.11483e-05
1.11674e-05
1.11425e-05
1.11223e-05
1.0366e-05
1.11226e-05
1.10903e-05
1.10832e-05
1.10893e-05
1.11127e-05
8.33609e-06
1.30346e-05
9.13141e-06
1.1288e-05
1.13336e-05
1.13255e-05
1.13576e-05
1.1262e-05
1.12705e-05
1.12219e-05
1.12514e-05
1.13802e-05
1.1408e-05
1.12079e-05
1.11906e-05
1.11617e-05
1.11849e-05
1.11544e-05
1.11339e-05
1.08767e-05
1.11222e-05
1.1075e-05
1.10846e-05
1.1103e-05
1.11166e-05
5.82128e-06
1.17801e-05
9.72614e-06
1.12983e-05
1.13403e-05
1.13556e-05
1.13363e-05
1.13843e-05
1.12785e-05
1.12858e-05
1.12417e-05
1.12578e-05
1.14107e-05
1.12246e-05
1.11942e-05
1.11764e-05
1.1199e-05
1.11539e-05
1.11729e-05
1.11465e-05
1.11259e-05
1.06602e-05
1.11261e-05
1.1071e-05
1.10699e-05
1.10796e-05
1.10987e-05
1.11067e-05
7.05001e-06
8.90774e-06
1.29569e-05
1.13205e-05
1.13639e-05
1.13802e-05
1.1366e-05
1.13367e-05
1.14293e-05
1.12909e-05
1.12862e-05
1.12414e-05
1.12571e-05
1.12767e-05
1.14487e-05
1.12312e-05
1.12194e-05
1.11955e-05
1.12188e-05
1.11739e-05
1.1191e-05
1.11588e-05
1.1132e-05
1.09036e-05
1.10888e-05
1.10631e-05
1.10519e-05
1.10713e-05
1.10917e-05
1.11073e-05
1.11221e-05
6.29469e-06
9.36688e-06
1.22708e-05
1.13279e-05
1.13803e-05
1.14173e-05
1.13842e-05
1.13655e-05
1.14425e-05
1.14628e-05
1.13123e-05
1.13074e-05
1.12558e-05
1.12715e-05
1.12839e-05
1.14992e-05
1.15151e-05
1.12472e-05
1.12126e-05
1.12372e-05
1.11742e-05
1.11903e-05
1.1211e-05
1.11592e-05
1.11482e-05
1.04832e-05
1.11061e-05
1.10504e-05
1.10612e-05
1.10843e-05
1.11044e-05
1.11263e-05
1.11339e-05
8.30779e-06
1.12876e-05
1.13505e-05
1.1425e-05
1.14458e-05
1.14183e-05
1.13719e-05
1.1497e-05
1.1504e-05
1.13201e-05
1.13164e-05
1.12706e-05
1.12776e-05
1.13035e-05
1.15291e-05
1.15767e-05
1.12626e-05
1.12336e-05
1.12557e-05
1.11919e-05
1.12093e-05
1.12291e-05
1.11774e-05
1.11586e-05
1.06758e-05
1.1046e-05
1.10443e-05
1.10546e-05
1.10657e-05
1.10948e-05
1.11209e-05
1.1136e-05
1.11536e-05
1.95746e-06
1.30151e-05
4.78066e-06
1.13613e-05
1.14398e-05
1.14921e-05
1.14458e-05
1.14114e-05
1.15382e-05
1.15101e-05
1.15424e-05
1.13438e-05
1.13388e-05
1.12894e-05
1.13e-05
1.13112e-05
1.15823e-05
1.16062e-05
1.1286e-05
1.12595e-05
1.12451e-05
1.12665e-05
1.1192e-05
1.12092e-05
1.12284e-05
1.12451e-05
1.11753e-05
1.06346e-05
1.1038e-05
1.10797e-05
1.10615e-05
1.10831e-05
1.11134e-05
1.11236e-05
1.11562e-05
1.11704e-05
8.85448e-06
1.21574e-05
2.03058e-07
1.13931e-05
1.14883e-05
1.15201e-05
1.14458e-05
1.14882e-05
1.14181e-05
1.15758e-05
1.15552e-05
1.15941e-05
1.13555e-05
1.13498e-05
1.13065e-05
1.13332e-05
1.16651e-05
1.13065e-05
1.12758e-05
1.1265e-05
1.1273e-05
1.12086e-05
1.12253e-05
1.12442e-05
1.12557e-05
1.11914e-05
1.09912e-05
1.10237e-05
1.105e-05
1.10832e-05
1.10401e-05
1.10826e-05
1.10951e-05
1.11303e-05
1.11486e-05
1.1169e-05
1.11704e-05
1.11905e-05
9.46861e-06
1.02085e-05
1.30031e-05
8.14011e-06
1.12454e-05
1.11602e-05
1.14147e-05
1.15212e-05
1.15596e-05
1.1489e-05
1.15279e-05
1.14619e-05
1.16316e-05
1.16505e-05
1.13953e-05
1.13836e-05
1.1327e-05
1.13446e-05
1.17006e-05
1.17016e-05
1.12986e-05
1.13302e-05
1.12686e-05
1.12937e-05
1.12093e-05
1.1225e-05
1.12422e-05
1.12613e-05
1.12645e-05
1.0729e-05
1.10328e-05
1.10636e-05
1.10641e-05
1.10238e-05
1.11036e-05
1.11214e-05
1.11515e-05
1.1135e-05
1.11673e-05
1.11891e-05
1.11906e-05
1.12091e-05
1.05646e-05
1.21674e-05
9.21122e-06
1.11846e-05
1.12314e-05
1.11539e-05
9.98349e-06
1.31031e-05
1.14531e-05
1.15739e-05
1.16147e-05
1.15296e-05
1.14931e-05
1.15732e-05
1.16645e-05
1.16771e-05
1.17027e-05
1.14079e-05
1.13986e-05
1.13371e-05
1.13771e-05
1.17773e-05
1.13083e-05
1.13548e-05
1.12871e-05
1.13105e-05
1.12292e-05
1.12391e-05
1.12596e-05
1.1283e-05
1.12841e-05
1.09465e-05
1.10226e-05
1.10555e-05
1.1093e-05
1.10513e-05
1.10123e-05
1.11293e-05
1.11334e-05
1.11689e-05
1.11626e-05
1.11882e-05
1.12081e-05
1.12085e-05
1.12293e-05
7.60669e-06
1.29274e-05
8.31896e-06
1.0722e-05
1.09893e-05
1.1154e-05
1.12386e-05
1.11407e-05
9.89132e-06
1.12124e-05
1.14867e-05
1.16196e-05
1.16731e-05
1.15793e-05
1.15393e-05
1.16115e-05
1.17446e-05
1.17428e-05
1.17774e-05
1.14521e-05
1.14325e-05
1.13789e-05
1.13974e-05
1.1799e-05
1.18179e-05
1.1339e-05
1.13858e-05
1.13722e-05
1.13061e-05
1.13371e-05
1.12441e-05
1.12572e-05
1.12802e-05
1.13024e-05
1.12993e-05
1.10397e-05
1.10733e-05
1.11145e-05
1.10426e-05
1.10061e-05
1.11528e-05
1.11612e-05
1.11772e-05
1.11879e-05
1.11732e-05
1.12085e-05
1.12289e-05
1.12284e-05
1.12505e-05
8.73643e-06
1.23651e-05
9.33365e-06
1.09037e-05
1.11829e-05
1.11398e-05
1.11972e-05
1.11717e-05
1.11554e-05
1.12005e-05
1.00013e-05
1.31059e-05
1.14868e-05
1.15342e-05
1.16715e-05
1.1732e-05
1.16196e-05
1.15813e-05
1.15472e-05
1.16718e-05
1.17953e-05
1.1786e-05
1.14598e-05
1.14597e-05
1.14424e-05
1.18768e-05
1.18521e-05
1.18622e-05
1.13652e-05
1.1421e-05
1.14135e-05
1.133e-05
1.13645e-05
1.12634e-05
1.12757e-05
1.13032e-05
1.13323e-05
1.13242e-05
1.10231e-05
1.10662e-05
1.10785e-05
1.11041e-05
1.11505e-05
1.10479e-05
1.1004e-05
1.11662e-05
1.11749e-05
1.12007e-05
1.12105e-05
1.11998e-05
1.12312e-05
1.12509e-05
1.12496e-05
1.12765e-05
1.24752e-05
1.16064e-05
1.07175e-05
8.89453e-06
1.10113e-05
1.09536e-05
1.11282e-05
1.11469e-05
1.11999e-05
1.11885e-05
1.11572e-05
1.1212e-05
9.91183e-06
1.10159e-05
1.15399e-05
1.15701e-05
1.17284e-05
1.16922e-05
1.17849e-05
1.16722e-05
1.16374e-05
1.15951e-05
1.17045e-05
1.18683e-05
1.18598e-05
1.15038e-05
1.15002e-05
1.14623e-05
1.18828e-05
1.19139e-05
1.14017e-05
1.14529e-05
1.14499e-05
1.13592e-05
1.13966e-05
1.12837e-05
1.12962e-05
1.13313e-05
1.13494e-05
1.13423e-05
1.10438e-05
1.10934e-05
1.111e-05
1.11248e-05
1.11771e-05
1.10053e-05
1.09823e-05
1.12107e-05
1.11998e-05
1.12168e-05
1.12314e-05
1.12191e-05
1.12536e-05
1.12744e-05
1.12727e-05
1.1298e-05
1.21811e-05
1.29226e-05
1.09636e-05
9.24839e-06
1.10181e-05
1.10778e-05
1.11265e-05
1.11413e-05
1.11431e-05
1.1176e-05
1.11921e-05
1.11792e-05
1.12119e-05
9.59708e-06
1.30963e-05
1.15402e-05
1.15785e-05
1.16045e-05
1.17775e-05
1.17527e-05
1.18422e-05
1.16953e-05
1.16337e-05
1.16896e-05
1.17576e-05
1.19232e-05
1.18898e-05
1.18881e-05
1.15367e-05
1.15169e-05
1.1972e-05
1.19529e-05
1.19713e-05
1.14443e-05
1.14917e-05
1.14926e-05
1.13885e-05
1.14349e-05
1.13188e-05
1.13247e-05
1.13603e-05
1.13801e-05
1.13845e-05
1.10378e-05
1.10863e-05
1.11203e-05
1.11604e-05
1.12122e-05
1.09922e-05
1.10057e-05
1.12297e-05
1.12278e-05
1.12528e-05
1.12644e-05
1.1259e-05
1.12895e-05
1.13103e-05
1.12966e-05
1.13376e-05
9.68828e-06
1.18164e-05
1.0708e-05
8.76768e-06
1.10036e-05
1.0272e-05
1.11129e-05
1.1158e-05
1.11325e-05
1.12125e-05
1.12046e-05
1.11844e-05
1.12244e-05
1.12158e-05
1.15196e-05
1.15769e-05
1.16224e-05
1.1638e-05
1.18338e-05
1.17861e-05
1.18596e-05
1.17605e-05
1.16652e-05
1.17495e-05
1.17887e-05
1.19806e-05
1.19603e-05
1.19443e-05
1.15449e-05
1.15781e-05
1.1528e-05
1.20062e-05
1.2005e-05
1.14781e-05
1.15359e-05
1.14266e-05
1.14741e-05
1.13562e-05
1.13585e-05
1.13902e-05
1.14061e-05
1.14105e-05
1.10738e-05
1.1123e-05
1.11563e-05
1.1191e-05
1.12495e-05
1.09901e-05
1.10026e-05
1.12743e-05
1.12969e-05
1.12805e-05
1.12782e-05
1.12994e-05
1.12862e-05
1.13206e-05
1.13437e-05
1.13365e-05
1.13604e-05
1.13589e-05
1.18597e-05
1.29033e-05
1.08909e-05
9.16433e-06
1.09946e-05
1.01517e-05
1.11341e-05
1.11798e-05
1.11574e-05
1.11232e-05
1.11189e-05
1.08219e-05
1.11941e-05
1.12047e-05
1.1199e-05
1.1238e-05
1.12168e-05
1.31281e-05
9.69865e-06
1.16273e-05
1.16476e-05
1.16584e-05
1.1881e-05
1.18579e-05
1.19332e-05
1.17924e-05
1.172e-05
1.17568e-05
1.18508e-05
1.1992e-05
1.20144e-05
1.19761e-05
1.19663e-05
1.15923e-05
1.16223e-05
1.15729e-05
1.20182e-05
1.20214e-05
1.15249e-05
1.15426e-05
1.15781e-05
1.14597e-05
1.15169e-05
1.14004e-05
1.14001e-05
1.14286e-05
1.1448e-05
1.14558e-05
1.10752e-05
1.11178e-05
1.11772e-05
1.11973e-05
1.12463e-05
1.1281e-05
1.13048e-05
1.0978e-05
1.10365e-05
1.13217e-05
1.13325e-05
1.13338e-05
1.13276e-05
1.13579e-05
1.13497e-05
1.13654e-05
1.13814e-05
1.1396e-05
1.14083e-05
9.66242e-06
1.17244e-05
1.0539e-05
1.09796e-05
8.46493e-06
1.09915e-05
1.09771e-05
1.11307e-05
1.11863e-05
1.11708e-05
1.11102e-05
1.11246e-05
1.07845e-05
1.11998e-05
1.1209e-05
1.12004e-05
1.12385e-05
1.1228e-05
1.16618e-05
8.99623e-06
1.16557e-05
1.17186e-05
1.1719e-05
1.19345e-05
1.18848e-05
1.18521e-05
1.17503e-05
1.18157e-05
1.18853e-05
1.20065e-05
1.20151e-05
1.20044e-05
1.20046e-05
1.16069e-05
1.16305e-05
1.20188e-05
1.1987e-05
1.15525e-05
1.15962e-05
1.16198e-05
1.15071e-05
1.15256e-05
1.15552e-05
1.14467e-05
1.14379e-05
1.14645e-05
1.14802e-05
1.1144e-05
1.11776e-05
1.12444e-05
1.12941e-05
1.13263e-05
1.13527e-05
1.13715e-05
1.09973e-05
1.10527e-05
1.13292e-05
1.13705e-05
1.13982e-05
1.13726e-05
1.13557e-05
1.13658e-05
1.13933e-05
1.13991e-05
1.1425e-05
1.14325e-05
1.14471e-05
1.15677e-05
1.28652e-05
1.07604e-05
1.09593e-05
9.09602e-06
1.09736e-05
1.09637e-05
1.11492e-05
1.1184e-05
1.11962e-05
1.11732e-05
1.11157e-05
1.10982e-05
1.11433e-05
1.09956e-05
9.45378e-06
1.11825e-05
1.11401e-05
1.12128e-05
1.12065e-05
1.12671e-05
1.12523e-05
1.12342e-05
1.3038e-05
1.172e-05
1.17518e-05
1.1749e-05
1.19745e-05
1.19477e-05
1.18889e-05
1.17973e-05
1.1873e-05
1.19406e-05
1.20052e-05
1.20052e-05
1.19926e-05
1.20076e-05
1.20029e-05
1.16589e-05
1.16772e-05
1.19535e-05
1.19419e-05
1.1593e-05
1.16303e-05
1.16741e-05
1.15354e-05
1.15765e-05
1.15905e-05
1.14997e-05
1.14821e-05
1.15131e-05
1.15227e-05
1.11571e-05
1.11145e-05
1.12338e-05
1.13237e-05
1.13445e-05
1.14373e-05
1.14466e-05
1.14325e-05
1.09896e-05
1.10357e-05
1.14192e-05
1.14436e-05
1.14448e-05
1.1436e-05
1.14065e-05
1.14241e-05
1.1447e-05
1.14547e-05
1.14766e-05
1.14872e-05
1.14927e-05
1.01094e-05
1.16764e-05
1.0546e-05
1.09787e-05
8.79405e-06
1.09669e-05
1.09769e-05
1.11684e-05
1.11904e-05
1.12024e-05
1.1185e-05
1.11292e-05
1.10924e-05
1.11553e-05
1.10509e-05
8.95163e-06
1.11994e-05
1.11173e-05
1.12274e-05
1.12169e-05
1.1265e-05
1.12478e-05
1.16296e-05
1.17425e-05
1.18044e-05
1.18122e-05
1.19794e-05
1.20099e-05
1.19604e-05
1.19554e-05
1.18379e-05
1.19157e-05
1.19659e-05
1.19392e-05
1.196e-05
1.19125e-05
1.19696e-05
1.19855e-05
1.16941e-05
1.16901e-05
1.1728e-05
1.18689e-05
1.17804e-05
1.16189e-05
1.16863e-05
1.17169e-05
1.15728e-05
1.16043e-05
1.15448e-05
1.15102e-05
1.15223e-05
1.15553e-05
1.15549e-05
1.10519e-05
1.1292e-05
1.13398e-05
1.14149e-05
1.1479e-05
1.15321e-05
1.15498e-05
1.15291e-05
1.09567e-05
1.1069e-05
1.14639e-05
1.15058e-05
1.15652e-05
1.14588e-05
1.15022e-05
1.14855e-05
1.14765e-05
1.14859e-05
1.15284e-05
1.15336e-05
1.15051e-05
1.15415e-05
1.13894e-05
1.28046e-05
1.07592e-05
1.09638e-05
8.55364e-06
1.09591e-05
1.09619e-05
1.11747e-05
1.11989e-05
1.12135e-05
1.11889e-05
1.11282e-05
1.11514e-05
1.11144e-05
1.10843e-05
1.11713e-05
1.03514e-05
1.11682e-05
9.30481e-06
1.11355e-05
1.12299e-05
1.12802e-05
1.12582e-05
1.29662e-05
1.18082e-05
1.1846e-05
1.18338e-05
1.19886e-05
1.19767e-05
1.19847e-05
1.19708e-05
1.18999e-05
1.1965e-05
1.19881e-05
1.19293e-05
1.18521e-05
1.18382e-05
1.18009e-05
1.18889e-05
1.17453e-05
1.1756e-05
1.17668e-05
1.15595e-05
1.16991e-05
1.17081e-05
1.1635e-05
1.16717e-05
1.1706e-05
1.17705e-05
1.16109e-05
1.16575e-05
1.15991e-05
1.15708e-05
1.15791e-05
1.15939e-05
1.16012e-05
1.19983e-05
1.15694e-05
1.11947e-05
1.13843e-05
1.15791e-05
1.16048e-05
1.16381e-05
1.16692e-05
1.16019e-05
1.09315e-05
1.10314e-05
1.15536e-05
1.15872e-05
1.16175e-05
1.15315e-05
1.15974e-05
1.15496e-05
1.15084e-05
1.15538e-05
1.15559e-05
1.15891e-05
1.15782e-05
1.15658e-05
1.15878e-05
9.85836e-06
1.16816e-05
1.07598e-05
1.0976e-05
8.20864e-06
1.00592e-05
1.09706e-05
1.09548e-05
1.11841e-05
1.1208e-05
1.12247e-05
1.12012e-05
1.11462e-05
1.11582e-05
1.11198e-05
1.10864e-05
1.11776e-05
1.0125e-05
1.11947e-05
8.76289e-06
1.11038e-05
1.12417e-05
1.13048e-05
1.12756e-05
1.1299e-05
1.12563e-05
1.22366e-05
1.18054e-05
1.18463e-05
1.19006e-05
1.18947e-05
1.19919e-05
1.19832e-05
1.1916e-05
1.19819e-05
1.19331e-05
1.19774e-05
1.19862e-05
1.17928e-05
1.16341e-05
1.16366e-05
1.16027e-05
1.1747e-05
1.17767e-05
1.17891e-05
1.13208e-05
1.13879e-05
1.1398e-05
1.16944e-05
1.17702e-05
1.18113e-05
1.16649e-05
1.16836e-05
1.16523e-05
1.16131e-05
1.16103e-05
1.16389e-05
1.16434e-05
1.42958e-05
1.1612e-05
1.17105e-05
1.19492e-05
1.22644e-05
1.19513e-05
1.16736e-05
1.15492e-05
1.16736e-05
1.16616e-05
1.0942e-05
1.15784e-05
1.16238e-05
1.16734e-05
1.17813e-05
1.16087e-05
1.16781e-05
1.16279e-05
1.15893e-05
1.16019e-05
1.16177e-05
1.16539e-05
1.16396e-05
1.15988e-05
1.16444e-05
1.17005e-05
1.27201e-05
1.09185e-05
1.0982e-05
7.5689e-06
1.00032e-05
1.09223e-05
1.09353e-05
1.11925e-05
1.12098e-05
1.12222e-05
1.12426e-05
1.12029e-05
1.11582e-05
1.11453e-05
1.11718e-05
1.11353e-05
1.11092e-05
1.10729e-05
1.1178e-05
1.11889e-05
1.05763e-05
1.11441e-05
1.10924e-05
9.23244e-06
1.10943e-05
1.12485e-05
1.12931e-05
1.13202e-05
1.1272e-05
1.18301e-05
1.18487e-05
1.19024e-05
1.19369e-05
1.19328e-05
1.19587e-05
1.19235e-05
1.18304e-05
1.19681e-05
1.19756e-05
1.1976e-05
1.19804e-05
1.19665e-05
1.16345e-05
1.17009e-05
1.14479e-05
1.14525e-05
1.13606e-05
1.15972e-05
1.18337e-05
1.18423e-05
1.12586e-05
1.12734e-05
1.17499e-05
1.17862e-05
1.18142e-05
1.18637e-05
1.17066e-05
1.17459e-05
1.17102e-05
1.16783e-05
1.16621e-05
1.16876e-05
1.16961e-05
1.09667e-05
1.16735e-05
1.19961e-05
1.16392e-05
1.16721e-05
1.17915e-05
1.17485e-05
1.22745e-05
1.21797e-05
1.11567e-05
1.17317e-05
1.16706e-05
1.07934e-05
1.13924e-05
1.14073e-05
1.17257e-05
1.17637e-05
1.17961e-05
1.17011e-05
1.17672e-05
1.16453e-05
1.17105e-05
1.16857e-05
1.16829e-05
1.17336e-05
1.1681e-05
1.16502e-05
1.1683e-05
9.47954e-06
1.22794e-05
1.08819e-05
1.09544e-05
9.05014e-06
1.04453e-05
1.09403e-05
1.12262e-05
1.12345e-05
1.12546e-05
1.12196e-05
1.11672e-05
1.11541e-05
1.11749e-05
1.11385e-05
1.11155e-05
1.10879e-05
1.1189e-05
1.11969e-05
1.02181e-05
1.11462e-05
1.1175e-05
8.48106e-06
1.10754e-05
1.12659e-05
1.13551e-05
1.12887e-05
1.13155e-05
1.13484e-05
1.30893e-05
9.74879e-06
1.18989e-05
1.19432e-05
1.19655e-05
1.19621e-05
1.1919e-05
1.185e-05
1.16427e-05
1.19166e-05
1.19442e-05
1.19779e-05
1.1942e-05
1.19177e-05
1.14475e-05
1.14888e-05
1.12864e-05
1.12761e-05
1.12991e-05
1.15613e-05
1.14042e-05
1.18627e-05
1.18705e-05
1.15447e-05
1.12192e-05
1.11388e-05
1.17729e-05
1.18391e-05
1.18679e-05
1.19014e-05
1.17587e-05
1.17725e-05
1.17508e-05
1.1714e-05
1.17049e-05
1.17067e-05
1.17353e-05
1.1745e-05
4.90413e-06
2.7443e-06
9.84785e-06
8.91944e-06
1.05881e-05
8.49919e-06
7.66869e-06
1.51486e-05
1.54978e-05
1.19435e-05
1.22352e-05
1.14688e-05
1.09756e-05
1.1406e-05
1.16115e-05
1.08057e-05
1.18289e-05
1.19622e-05
1.17744e-05
1.18247e-05
1.17399e-05
1.17781e-05
1.17502e-05
1.17093e-05
1.17538e-05
1.17904e-05
1.17465e-05
1.17406e-05
9.11676e-06
1.1086e-05
1.09966e-05
1.09406e-05
8.94504e-06
1.04283e-05
1.09136e-05
1.12325e-05
1.12376e-05
1.12507e-05
1.12729e-05
1.12234e-05
1.11712e-05
1.11481e-05
1.11654e-05
1.11821e-05
1.1132e-05
1.11127e-05
1.10776e-05
1.1191e-05
1.12131e-05
1.06667e-05
1.11171e-05
1.10526e-05
7.00904e-06
1.10669e-05
1.12795e-05
1.13878e-05
1.13107e-05
1.13375e-05
1.13737e-05
1.30656e-05
7.82109e-06
1.19261e-05
1.19663e-05
1.19717e-05
1.19817e-05
1.17935e-05
1.17176e-05
1.15915e-05
1.1866e-05
1.18944e-05
1.18823e-05
1.19674e-05
1.19422e-05
1.18132e-05
1.127e-05
1.13837e-05
1.12221e-05
1.12374e-05
1.12742e-05
1.13376e-05
1.12668e-05
1.19082e-05
1.19218e-05
1.13207e-05
1.14118e-05
1.18228e-05
1.18512e-05
1.18754e-05
1.19078e-05
1.19353e-05
1.18003e-05
1.18313e-05
1.1802e-05
1.17688e-05
1.17608e-05
1.17661e-05
1.17764e-05
1.17842e-05
1.17976e-05
1.62915e-05
2.47634e-06
5.70939e-06
1.13226e-05
1.03901e-05
3.65988e-06
9.06397e-06
9.00787e-06
1.22146e-05
1.47553e-05
1.43347e-05
1.21882e-05
1.15942e-05
1.08767e-05
1.13924e-05
1.08483e-05
9.70557e-06
1.18451e-05
1.17948e-05
1.18569e-05
1.1864e-05
1.17698e-05
1.18506e-05
1.1822e-05
1.17982e-05
1.18152e-05
1.18519e-05
1.17777e-05
1.17742e-05
9.29965e-07
1.28821e-05
3.67979e-06
1.09651e-05
1.0784e-05
1.09197e-05
9.96503e-06
1.09103e-05
1.12503e-05
1.12533e-05
1.12625e-05
1.12886e-05
1.12409e-05
1.11843e-05
1.11531e-05
1.11729e-05
1.11906e-05
1.11365e-05
1.11257e-05
1.10953e-05
1.12067e-05
1.12205e-05
9.58594e-06
1.10646e-05
1.1098e-05
1.1183e-05
1.1073e-05
1.13031e-05
1.14603e-05
1.14136e-05
1.13348e-05
1.13666e-05
1.14052e-05
1.2448e-05
7.75929e-06
1.19289e-05
1.19636e-05
1.19667e-05
1.19732e-05
1.19648e-05
1.19657e-05
1.16785e-05
1.17473e-05
1.14244e-05
1.17233e-05
1.17693e-05
1.17896e-05
1.19508e-05
1.18648e-05
1.12762e-05
1.12415e-05
1.14808e-05
1.12917e-05
1.14201e-05
1.12998e-05
1.12024e-05
1.1933e-05
1.20756e-05
1.28258e-05
1.19814e-05
1.18492e-05
1.18987e-05
1.19119e-05
1.19418e-05
1.19551e-05
1.18424e-05
1.18077e-05
1.18452e-05
1.18258e-05
1.18202e-05
1.18229e-05
1.18419e-05
1.18468e-05
2.30899e-05
1.27568e-05
2.36185e-05
1.38849e-05
2.91099e-05
1.03468e-05
1.24238e-05
1.70922e-05
7.35708e-06
3.46984e-07
1.50488e-05
1.26429e-05
1.2979e-05
1.11757e-05
1.10425e-05
1.1107e-05
1.1411e-05
9.70698e-06
8.43218e-06
1.1798e-05
1.14362e-05
1.18514e-05
1.18518e-05
1.18098e-05
1.18592e-05
1.18398e-05
1.18759e-05
1.18655e-05
1.1878e-05
1.18747e-05
1.1847e-05
1.18334e-05
1.66693e-05
1.17052e-05
1.19168e-05
1.09596e-05
1.08409e-05
1.09043e-05
9.87542e-06
1.09018e-05
1.12615e-05
1.12611e-05
1.128e-05
1.13103e-05
1.12565e-05
1.12465e-05
1.11932e-05
1.11661e-05
1.1146e-05
1.1186e-05
1.12049e-05
1.11262e-05
1.11204e-05
1.10863e-05
1.12188e-05
1.12387e-05
9.73453e-06
1.1053e-05
1.10541e-05
1.1141e-05
1.0758e-05
1.10638e-05
1.13191e-05
1.15034e-05
1.14475e-05
1.13579e-05
1.13941e-05
1.14396e-05
1.18513e-05
5.99332e-06
1.19586e-05
1.19712e-05
1.1954e-05
1.19432e-05
1.19054e-05
1.14855e-05
1.15262e-05
1.13712e-05
1.16013e-05
1.16642e-05
1.17036e-05
1.16337e-05
1.19029e-05
1.17688e-05
1.14883e-05
1.12346e-05
1.20236e-05
1.20265e-05
1.17509e-05
1.20181e-05
1.12448e-05
1.12547e-05
1.19606e-05
1.38251e-05
1.29124e-05
1.18937e-05
1.1922e-05
1.1944e-05
1.19603e-05
1.19614e-05
1.1877e-05
1.18609e-05
1.189e-05
1.18547e-05
1.18649e-05
1.18779e-05
1.18836e-05
1.18866e-05
3.31458e-05
2.75104e-05
2.96201e-05
2.66517e-05
2.9941e-05
3.41641e-05
2.9555e-05
2.28656e-05
2.27165e-05
1.29859e-05
3.57418e-06
5.02664e-06
1.20976e-05
1.25868e-07
1.27445e-05
1.09448e-05
1.04889e-05
1.13769e-05
7.22876e-06
1.33279e-05
1.16104e-05
1.15208e-05
1.18075e-05
1.18204e-05
1.1736e-05
1.18693e-05
1.18823e-05
1.18912e-05
1.18822e-05
1.1912e-05
1.19095e-05
1.18636e-05
1.03093e-05
1.18777e-05
1.28482e-05
1.04273e-05
1.09241e-05
1.09225e-05
1.04389e-05
1.08902e-05
1.12811e-05
1.12847e-05
1.12938e-05
1.13337e-05
1.12715e-05
1.12628e-05
1.12112e-05
1.11702e-05
1.115e-05
1.12005e-05
1.1219e-05
1.1141e-05
1.11279e-05
1.10987e-05
1.12355e-05
1.1247e-05
1.10475e-05
1.11092e-05
1.08941e-05
1.10709e-05
1.13539e-05
1.15142e-05
1.1482e-05
1.1389e-05
1.13684e-05
1.14315e-05
1.14792e-05
1.29747e-05
9.47923e-06
9.42379e-06
1.19652e-05
1.19422e-05
1.19321e-05
1.19018e-05
1.18308e-05
1.14129e-05
1.14925e-05
1.12636e-05
1.14411e-05
1.14739e-05
1.1472e-05
1.18142e-05
1.16378e-05
1.18643e-05
1.15476e-05
1.13686e-05
1.33776e-05
1.36669e-05
1.22597e-05
1.28068e-05
1.1311e-05
1.15038e-05
1.19589e-05
1.35033e-05
1.36519e-05
1.40728e-05
1.19107e-05
1.1945e-05
1.1951e-05
1.19548e-05
1.19312e-05
1.19094e-05
1.18946e-05
1.19104e-05
1.19027e-05
1.1908e-05
1.19093e-05
1.193e-05
1.19207e-05
3.63428e-05
3.52755e-05
3.0859e-05
3.40258e-05
3.4608e-05
3.72601e-05
3.5232e-05
3.24145e-05
1.71515e-05
6.04775e-06
2.02272e-06
9.491e-06
3.99638e-06
1.38512e-05
1.11597e-05
8.10913e-06
1.10462e-05
1.14455e-05
1.29089e-05
2.9233e-05
1.15974e-05
1.34864e-05
1.17382e-05
1.1757e-05
1.14646e-05
1.18103e-05
1.18902e-05
1.1883e-05
1.1839e-05
1.19085e-05
1.18944e-05
1.18628e-05
1.19078e-05
1.22098e-05
1.15195e-05
1.03825e-05
1.09357e-05
1.0899e-05
1.04348e-05
1.08879e-05
1.12956e-05
1.13009e-05
1.13188e-05
1.13607e-05
1.13355e-05
1.12916e-05
1.12753e-05
1.12207e-05
1.12229e-05
1.11864e-05
1.11634e-05
1.11505e-05
1.12202e-05
1.11986e-05
1.12361e-05
1.114e-05
1.11292e-05
1.11202e-05
1.1089e-05
1.12646e-05
1.1061e-05
1.1044e-05
1.11125e-05
1.10764e-05
1.15829e-05
1.15543e-05
1.14118e-05
1.13993e-05
1.14561e-05
1.15103e-05
1.23246e-05
8.03275e-06
9.4095e-06
1.19332e-05
1.18689e-05
1.18551e-05
1.18028e-05
1.17054e-05
1.12614e-05
1.13312e-05
1.1246e-05
1.13828e-05
1.13126e-05
1.13936e-05
1.14632e-05
1.16684e-05
1.30512e-05
1.25155e-05
1.40979e-05
1.43357e-05
1.42309e-05
1.39142e-05
1.44946e-05
1.15712e-05
1.16973e-05
1.24703e-05
1.19441e-05
1.05159e-05
1.18769e-05
1.40587e-05
1.1943e-05
1.19485e-05
1.19434e-05
1.19252e-05
1.19187e-05
1.18896e-05
1.19349e-05
1.19231e-05
1.19183e-05
1.19116e-05
1.19198e-05
1.19372e-05
1.19303e-05
1.19315e-05
1.19388e-05
3.40536e-05
3.65024e-05
3.22652e-05
3.45356e-05
3.48272e-05
3.39769e-05
3.60799e-05
3.70539e-05
3.32021e-05
3.65214e-05
1.80051e-05
3.13449e-05
1.12985e-05
4.1589e-06
1.01823e-05
1.74565e-05
1.11288e-05
6.17187e-06
1.05653e-05
1.1459e-05
2.78969e-05
3.1024e-05
1.24055e-05
1.42524e-05
1.14719e-05
1.15474e-05
1.15234e-05
1.17264e-05
1.18562e-05
1.18125e-05
1.17468e-05
1.17821e-05
1.1888e-05
1.18436e-05
1.17702e-05
1.05944e-05
1.23983e-05
1.28723e-05
1.0324e-05
1.07105e-05
1.09524e-05
1.09066e-05
1.08653e-05
1.0988e-05
1.13264e-05
1.13278e-05
1.13373e-05
1.1393e-05
1.13658e-05
1.13121e-05
1.13018e-05
1.12396e-05
1.12392e-05
1.1185e-05
1.11732e-05
1.11648e-05
1.12398e-05
1.12171e-05
1.12541e-05
1.11513e-05
1.11441e-05
1.11294e-05
1.10994e-05
1.12774e-05
1.10742e-05
1.10368e-05
1.10888e-05
1.11642e-05
1.16338e-05
1.15798e-05
1.14419e-05
1.14163e-05
1.14978e-05
1.15579e-05
1.15194e-05
1.18997e-05
7.2887e-06
1.06067e-05
1.18752e-05
1.18218e-05
1.17847e-05
1.17045e-05
1.15603e-05
1.12593e-05
1.12237e-05
1.13552e-05
1.12704e-05
1.12596e-05
1.12678e-05
1.13522e-05
1.15402e-05
1.33244e-05
1.43091e-05
1.29457e-05
1.55202e-05
1.46755e-05
1.46282e-05
1.50272e-05
1.23111e-05
1.1554e-05
1.27673e-05
1.29107e-05
1.18834e-05
9.43771e-06
1.24586e-05
1.19492e-05
1.19458e-05
1.19455e-05
1.19249e-05
1.18431e-05
1.18501e-05
1.18071e-05
1.19111e-05
1.18748e-05
1.19089e-05
1.1921e-05
1.19101e-05
1.19147e-05
1.19407e-05
1.19356e-05
3.17337e-05
3.21111e-05
3.49461e-05
3.41573e-05
3.04354e-05
2.78889e-05
3.4358e-05
3.53964e-05
3.76799e-05
3.93849e-05
2.68489e-05
3.54575e-05
1.5866e-05
8.0245e-06
7.28786e-06
2.33312e-05
2.14981e-05
1.15628e-05
6.46531e-07
2.58305e-05
1.17199e-05
3.12851e-05
3.31975e-05
1.26633e-05
1.25464e-05
1.15593e-05
1.15537e-05
1.1945e-05
1.14979e-05
1.16883e-05
1.15387e-05
1.1604e-05
1.18585e-05
1.18022e-05
1.17288e-05
1.16363e-05
1.05332e-05
1.1613e-05
1.13056e-05
1.04427e-05
1.06734e-05
1.09521e-05
1.08624e-05
1.08638e-05
1.09141e-05
1.134e-05
1.13498e-05
1.13624e-05
1.14182e-05
1.13927e-05
1.13426e-05
1.13131e-05
1.12547e-05
1.12582e-05
1.11973e-05
1.11735e-05
1.12601e-05
1.12371e-05
1.12153e-05
1.12738e-05
1.11552e-05
1.11681e-05
1.11502e-05
1.11435e-05
1.11217e-05
1.1096e-05
1.13026e-05
1.10749e-05
1.10225e-05
1.10597e-05
1.11471e-05
1.10343e-05
1.16871e-05
1.16551e-05
1.14666e-05
1.1454e-05
1.15229e-05
1.159e-05
1.15622e-05
1.29745e-05
9.5207e-06
5.14357e-06
1.0585e-05
1.17847e-05
1.16808e-05
1.16665e-05
1.15489e-05
1.14495e-05
1.13103e-05
1.13519e-05
1.1264e-05
1.12699e-05
1.12646e-05
1.12359e-05
1.13747e-05
1.44165e-05
1.4532e-05
1.43318e-05
1.34617e-05
1.32679e-05
1.23776e-05
1.06394e-05
1.30549e-05
1.22141e-05
1.29542e-05
1.42147e-05
1.18017e-05
4.57792e-06
6.85494e-06
1.19299e-05
1.19126e-05
1.19113e-05
1.18518e-05
1.17873e-05
1.17524e-05
1.16927e-05
1.18837e-05
1.1812e-05
1.18679e-05
1.18695e-05
1.18637e-05
1.18497e-05
1.18809e-05
1.18979e-05
1.19239e-05
2.4461e-05
2.48788e-05
3.32289e-05
3.10904e-05
2.95434e-05
2.61421e-05
2.08824e-05
2.72648e-05
3.28727e-05
3.78629e-05
3.26289e-05
2.81468e-05
4.17722e-05
2.03698e-05
7.90312e-06
3.68064e-07
3.55709e-05
3.46514e-05
1.15591e-05
9.74516e-06
3.15762e-05
2.42508e-05
1.08533e-05
3.37497e-05
3.35619e-05
1.11929e-05
1.28954e-05
1.21047e-05
1.18832e-05
1.22268e-05
1.1465e-05
1.15476e-05
1.15098e-05
1.17631e-05
1.16614e-05
1.15542e-05
1.14544e-05
1.03747e-05
1.33478e-05
1.28013e-05
1.08965e-05
1.03742e-05
1.07925e-05
1.09473e-05
1.08762e-05
1.08344e-05
1.12172e-05
1.13747e-05
1.1377e-05
1.1384e-05
1.14518e-05
1.14208e-05
1.13617e-05
1.13437e-05
1.12773e-05
1.12794e-05
1.12036e-05
1.11945e-05
1.12879e-05
1.12576e-05
1.12312e-05
1.12961e-05
1.11744e-05
1.11836e-05
1.11703e-05
1.11612e-05
1.11276e-05
1.11112e-05
1.13217e-05
1.10992e-05
1.10437e-05
1.10648e-05
1.1128e-05
1.10094e-05
1.17467e-05
1.16977e-05
1.1675e-05
1.15066e-05
1.14758e-05
1.15689e-05
1.16429e-05
1.1593e-05
1.23714e-05
9.23437e-06
8.40669e-06
1.09549e-05
1.1669e-05
1.16076e-05
1.16302e-05
1.1548e-05
1.14333e-05
1.13163e-05
1.16257e-05
1.16544e-05
1.1342e-05
1.14626e-05
1.1411e-05
1.12592e-05
1.12968e-05
1.13082e-05
1.4403e-05
1.3489e-05
1.47461e-05
9.77412e-06
8.38471e-06
9.65575e-06
9.03587e-06
6.70805e-06
1.4371e-05
1.21983e-05
1.37222e-05
1.16741e-05
4.10514e-06
3.29255e-06
1.19031e-05
1.18891e-05
1.18581e-05
1.17692e-05
1.16754e-05
1.16378e-05
1.15976e-05
1.18161e-05
1.16422e-05
1.17409e-05
1.17892e-05
1.17681e-05
1.17608e-05
1.17647e-05
1.18356e-05
1.18494e-05
1.85798e-05
2.41592e-05
3.05402e-05
2.30131e-05
1.89795e-05
1.38776e-05
2.50206e-05
2.78781e-05
3.91047e-05
2.36071e-05
3.81698e-05
3.9988e-05
2.39862e-05
1.43511e-05
4.78694e-06
3.81722e-05
3.92679e-05
1.12861e-05
1.15782e-05
7.45277e-06
3.28211e-05
2.82225e-05
3.2553e-05
3.01465e-05
5.61105e-07
9.30006e-06
1.2345e-05
1.24692e-05
1.20198e-05
1.23307e-05
1.14753e-05
1.13782e-05
1.14134e-05
1.16247e-05
1.15251e-05
1.14411e-05
1.14149e-05
1.03343e-05
1.0525e-05
1.21815e-05
9.67353e-06
1.05245e-05
1.07524e-05
1.09382e-05
1.07897e-05
1.08923e-05
1.10389e-05
1.13913e-05
1.14032e-05
1.14158e-05
1.14687e-05
1.14552e-05
1.13615e-05
1.13981e-05
1.13458e-05
1.12978e-05
1.13095e-05
1.1223e-05
1.12062e-05
1.13139e-05
1.12964e-05
1.12504e-05
1.12843e-05
1.13202e-05
1.11819e-05
1.12011e-05
1.11789e-05
1.11629e-05
1.11453e-05
1.11158e-05
1.11039e-05
1.10459e-05
1.10851e-05
1.10355e-05
1.11451e-05
1.10249e-05
1.18058e-05
1.17824e-05
1.17439e-05
1.15342e-05
1.15135e-05
1.16042e-05
1.16814e-05
1.16578e-05
1.2174e-05
6.14515e-06
7.50625e-06
1.09414e-05
1.15482e-05
1.1499e-05
1.14633e-05
1.14538e-05
1.13148e-05
1.12644e-05
1.18887e-05
1.20908e-05
1.16574e-05
1.18528e-05
1.13377e-05
1.15926e-05
1.14916e-05
1.12551e-05
1.21595e-05
9.7577e-06
1.47887e-05
7.35311e-06
5.32392e-06
5.0996e-06
7.38632e-06
3.7022e-06
1.46054e-05
1.30345e-05
1.37835e-05
1.45597e-05
1.15453e-05
2.53142e-06
1.94134e-06
1.18286e-05
1.18197e-05
1.17817e-05
1.16794e-05
1.16133e-05
1.15037e-05
1.14516e-05
1.17059e-05
1.16295e-05
1.15561e-05
1.16699e-05
1.16591e-05
1.16556e-05
1.17036e-05
1.17385e-05
1.1802e-05
4.244e-06
9.50932e-06
2.59676e-05
1.91301e-05
1.4415e-05
7.59211e-06
2.92953e-06