/*--------------------------------*- C++ -*----------------------------------*\
| =========                 |                                                 |
| \\      /  F ield         | OpenFOAM: The Open Source CFD Toolbox           |
|  \\    /   O peration     | Version:  v2012                                 |
|   \\  /    A nd           | Website:  www.openfoam.com                      |
|    \\/     M anipulation  |                                                 |
\*---------------------------------------------------------------------------*/
FoamFile
{
    version     2.0;
    format      ascii;
    class       volScalarField;
    location    "0.8";
    object      p_rgh;
}
// * * * * * * * * * * * * * * * * * * * * * * * * * * * * * * * * * * * * * //

dimensions      [1 -1 -2 0 0 0 0];


internalField   nonuniform List<scalar> 
13611
(
99228.7
99774.9
98864.2
99705.8
99612.6
99511
99853.5
99417.3
99252.3
99563.3
99456.7
100093
99592.6
99468.9
99293.6
99604.2
99400.4
99584.3
99927.7
99629.7
99728.5
99139
99205.9
99338.4
99427.3
99603.3
99721
99723.4
99696.5
99045.5
99187
99276.3
99366.1
99519.4
99691.8
99881.6
99789.6
99813.4
99019
99138.8
99298.7
99416.8
99513.9
99673.7
100001
99828.1
99890.4
100081
99062.1
98938
99157.7
99258
99396
99564.6
99621.5
99759.4
99875.9
99807.2
99809
100107
98983.4
98907.9
99115
99291.4
98758.9
99461.5
99354.3
99528.2
99643.4
99763.8
99863.4
99915.4
99498.9
99965.5
98978.6
98831.8
99173.9
99056.2
99243.7
99433.4
99355.6
99553.3
99707.1
99616.1
99831.4
99943.9
99899
99902.2
100158
98901.5
98796.4
99130.4
99043.9
99259.5
98681.2
99455.4
99322
99521.3
99720.5
99647.6
99836.3
99969.9
99960.8
99695.6
99968
98825.1
98897.6
99167.6
98998.3
99237.2
98642.3
98562.8
99424.5
99351.1
99546.5
99759.9
99646.7
99815.8
99910.6
100013
100002
99975.4
99266.6
100008
99998.9
98709.1
98838.6
99125.5
99035
99281.7
98520.3
99450.8
99511
99605.7
99713.7
99837.9
99913.8
100097
100086
100028
99741.4
100192
100090
98684.4
98871.6
98748.9
99157
99001.3
99293.8
98580.6
98422.9
99435.1
99548.4
99617.4
99737.9
99836.7
99960.1
100126
100145
100104
100008
100080
99744.9
100353
100153
98947.9
98815.9
98683.1
99216.6
99057.4
99379
99266.4
98530.7
98371.9
99483.8
99541.4
99653.1
99800.2
99705.6
99909.5
99970.6
100166
100222
100190
100047
100128
100085
100222
98942.6
98730.3
98860
98591.8
99182.3
99043.1
99377.9
99300.1
98426.8
98260.6
99480.9
99600.2
99818.8
99728.9
99888.8
100005
100180
100281
100246
100199
100111
100040
100411
99953.2
100118
98990.6
98684
98821.3
98545.9
99214.6
99115.2
99425.8
99281.6
98377.5
98202.7
99543.6
99606.3
99793.2
99699.8
99923.7
100021
100269
100336
100297
100253
100149
100096
100345
100075
100234
98993.7
98740.1
98603.7
98847.8
98449
99195.7
99084.8
99439.3
99327.2
98258.6
99543.5
99656.1
99824.7
99735
99978
99883.4
100009
100102
100312
100388
100351
100321
100312
100246
100201
100410
100266
99696.1
98972
98682.7
98581.2
98789.9
98914.5
98396.5
99132.9
99238.1
99498.2
99392.6
99298.9
98220
99605.3
99652.5
99795.5
99693
99988.9
99908.8
100071
100152
100380
100405
100449
100409
100399
100363
100299
100204
100393
100336
100130
99026.2
98715.3
98534.8
98813.5
98895.9
98436.9
98298.5
99109.1
99217.9
99511.1
99397.3
99333.7
98152.2
98068.4
99587.7
99823.2
99713.7
100041
99964.1
99882.6
100125
100152
100410
100488
100505
100440
100423
100354
100310
100263
100523
100100
99006.6
98660.7
98574.8
98776.6
98941.4
98383.8
98246.2
99154
99261.8
99490.1
99438.3
99325.4
98145.6
97978.1
99622.6
99796
99692.4
100072
99993
99913.7
100146
100210
100440
100539
100513
100542
100501
100482
100417
100364
100263
100398
99769.2
100473
99070
98688.8
98519.1
98815
98936.6
98331.3
98439.5
98266.3
99139.3
99248.8
99529.6
99428
99373
98094.9
97996.7
99587.3
99671.2
99820.9
99730.2
100127
100051
99971.8
99880.7
100200
100452
100607
100568
100605
100535
100496
100475
100380
100310
100418
100222
100602
99056.2
98663.4
98543.2
98881.4
98727.7
98995
98308.8
98398.8
98144.4
99189.1
99297.5
99473.6
99362.8
97930.4
99606.6
99664.7
99818.2
99775.7
100163
100083
100005
99902.1
100241
100533
100643
100643
100568
100618
100640
100606
100568
100500
100451
100361
100294
100508
100707
100285
100489
99482.1
99385.7
99111.6
98609
98449
98874.8
98735.5
98994.6
98263
98122.2
99179.2
99288.9
99476
99414.3
97804
97964.8
99668.8
99576.3
99853.4
99767.3
100222
100140
100063
99995
99953.6
100571
100721
100711
100646
100676
100714
100637
100555
100623
100497
100449
100395
100331
100664
100475
100517
99540.7
99479.7
99265.5
99945.6
99264.3
99072
98602.7
98444.5
98816
98937.3
98671.8
98181.1
98303.6
98045.9
99224.5
99346.6
99522.6
99406.9
97898
99711
99606.4
99865.3
99812.8
100262
100171
100100
100034
99929.8
100632
100764
100745
100751
100678
100733
100735
100700
100594
100663
100546
100494
100386
100318
100508
100292
100489
100638
99566.4
99389.6
99575.8
99308.9
99833.6
99455.9
99103.4
98519.2
98385.5
98823.1
98942.7
98678
98144.2
98213.7
98009.7
99221.2
99337
99511.3
99458.5
97813.5
97914.5
99718.4
99554.9
99658.1
99857.2
99785.6
100233
100155
100087
100012
99958.5
100819
100806
100814
100725
100772
100803
100734
100647
100595
100716
100545
100490
100432
100356
100633
100513
100625
100677
99573
99390.2
99579.9
99158.4
99248.3
99020
100014
99357.4
99176.7
99063.2
98508.3
98383
98758.3
98887.1
99003.5
98641.4
98060.7
98221
99282.6
99392.4
99450.9
97656.8
97748
97861.2
99702.7
99565.4
99632
99894.4
99819.3
100255
100195
100127
100043
99946.5
100842
100849
100844
100839
100851
100727
100770
100850
100792
100689
100644
100759
100594
100536
100420
100358
100608
100422
100674
100625
100700
99574.5
99466.2
99327.2
99646.7
99092.4
99250.1
98934
99795.7
99559.3
99192
99094.9
98452
98579.7
98312.5
98751.1
98890.9
98984.8
98670.9
98036.6
98182.4
99291.5
99362.1
99487.8
97780.6
97876.5
99738.9
99541.6
99664.1
99877
99802.5
100309
100194
100120
99986.7
100087
100904
100923
100902
100897
100920
100809
100830
100918
100833
100740
100650
100817
100590
100527
100468
100403
100618
100249
100716
100675
100756
99677.1
99451.4
99351
99596.5
99729.2
99102.4
99183.3
98941.3
99879.8
99393.2
99252.7
99149.6
99042.9
98459.6
98542.7
98315.1
98791.3
98955.3
98852
98643.1
97948.5
98100
98221.3
99387.9
99482.7
97652.8
97734.7
97763.8
99718.3
99580.1
99637.2
99916
99846.8
100303
100246
100178
99974.7
100094
100914
100949
100945
100950
100964
100842
100881
100895
100967
100776
100702
100860
100643
100573
100459
100413
100680
100475
100727
100660
100816
99810.5
99505.9
99324.3
99633.2
99788.9
99024.6
99190
98741.6
98857
99651.3
99270.7
99155.8
99046.8
98427
98578.6
98366.1
98763.6
98968.8
98876.6
98690.1
97919.9
98055.7
98199.8
99445
99342.6
99538.5
97569.4
97743
99754.3
99663.6
99907.9
99824.5
100350
100235
100151
100014
100070
100981
101000
101006
101009
101025
100890
100920
100929
100998
100841
100758
100701
100914
100633
100563
100515
100483
100405
100747
100508
100766
100697
100833
99909.8
99476
99253
99383.4
99701.6
99588.1
99795.8
99761.1
99031.8
99107.7
98683.8
98878.8
99663
100065
99254.1
99203.3
99100.3
98473.8
98553.8
98346.8
98808
98961
98927.1
98666.6
97981.9
97822.4
98114.4
98269.6
99455.2
99359
99561.9
97577.2
97660.7
99739.5
99714
99621.7
99951.1
99864.8
100337
100278
100183
100006
100105
101008
101017
101043
101054
101060
101063
101051
100915
100976
100994
101009
100882
100803
100764
100957
100677
100601
100506
100444
100751
100658
100751
100794
100691
100814
100876
99519.8
99231.4
99346.9
99732.7
99616.5
99827.3
99850.1
98955.8
99095.6
98713.6
98810.9
99891
100103
99297.4
99185.2
99090.9
98410.8
98589
98796.6
99025.8
98932.2
98722.3
97959.7
97800.7
98099.3
98245.4
99517.2
99410.4
97482.2
97650.6
99785.7
99723.8
99634.9
99944.7
99912.9
99835.6
100379
100247
100156
100059
101066
101077
101105
101125
101125
101124
101101
100967
101012
101023
101005
101104
100942
100862
100819
100742
100661
100610
100565
100443
100814
100688
100781
100813
100741
100866
100900
99495.5
99280.9
99157.5
99387.4
99678.6
99795.1
99560.4
99919.4
99899.3
99907.2
99840.9
98955.2
99025
98550.9
98671.1
98831.1
99767.3
99298.4
99231.2
99130.3
98431
98572.9
98843.2
99005.9
98907.9
98702.9
98014.4
97873.7
97722.7
98166.9
98299.9
99525.7
99416.1
97480.6
97559.4
99772.5
99696.4
99623.1
100003
99932.6
99855.2
100374
100272
100183
100061
101104
101083
101122
101147
101171
101190
101180
101133
100972
101002
101069
101047
101143
100984
100906
100863
100779
100718
100674
100573
100497
100771
100710
100791
100843
100734
100876
100938
99450.1
99260.7
99136.4
99318.2
99694.8
99811.5
99568.6
100017
100098
99968.3
99900.3
98894.8
99012.6
98582
98741.6
99843.6
99347.1
99218.6
99118.6
98513.9
98372.4
98638.9
98816
99053.9
98946.3
98752.1
97998.1
97825.8
97720.9
98157.3
98236
99478.7
99576.9
99393
97399.8
97539
99804
99724.2
99664.8
99987.8
99906.3
100424
100332
100244
100162
100107
101178
101116
101169
101189
101215
101251
101225
101198
101008
101041
101089
101071
101183
100965
101044
100887
100765
100836
100688
100640
100554
100482
100788
100765
100816
100835
100778
100903
100948
99446.9
99198.9
99067.7
99331.9
99754.8
99641.2
99799
99891.4
99509.5
100053
100035
100160
99970.1
98910.8
98555.6
98733
99532.7
99343.7
99268.4
99158.5
98516.4
98386.7
98632
98850.3
99027.5
98918.5
98700
98081.1
97931.8
97857.8
97666
98257.3
99478.6
99561.5
99427
97295.1
97389.9
97593.6
97448.2
99812.3
99773.1
99658.2
100027
99922.5
100429
100334
100278
100195
100088
101175
101155
101109
101199
101251
101268
101294
101288
101229
101005
101041
101151
101130
101195
101003
101082
100964
100875
100798
100854
100750
100642
100587
100525
100760
100709
100825
100860
100763
100816
100927
100888
99405.2
99190.9
99047.9
99305.7
99768.8
99647.6
99860.3
99950.2
99509.9
100070
100091
100183
100031
98872.9
98403.2
98631.6
98474
98795.7
99963.2
99402.4
99322.5
99225
99158.1
98586.8
98462.6
98338.9
98832.6
99063.4
98963.5
98711.5
98075.7
97934.7
97785.8
97698.1
98209.9
99513.4
99599.8
97274.1
97560.3
97418.6
99870.5
99784.2
99705.4
100016
99972.8
100494
100374
100256
100179
100130
101264
101257
101140
101291
101314
101369
101373
101313
101339
101299
101021
101065
101166
101163
101258
101062
101141
100997
100935
100802
100900
100750
100696
100574
100536
100788
100618
100840
100861
100779
100823
100952
100908
99414
99246.4
99110.3
98986.5
99339.6
99717.2
99814.1
99620
99853
99931.7
100009
99567.8
99466.2
100080
100103
100121
100268
100092
98916.7
98612.7
98457
98762.5
99909.2
99436.7
99345.4
99248.9
99126.9
98601.9
98478.9
98361.5
98873.7
98776
99030
98934.6
98665.2
98007
98143.2
97875.2
97795.8
97614
98230.6
99500.1
99591.6
97332.9
97480.4
99880
99841.5
99759.1
99679
100067
99974.4
100492
100378
100277
100220
100120
101364
101333
101213
101224
101109
101295
101388
101426
101393
101370
101392
101308
100980
101041
101077
101232
101221
101272
101105
101180
100989
101062
100865
100928
100803
100678
100618
100580
100788
100730
100845
100890
100799
100829
100935
99216.4
99096.6
98978.8
99322.4
99720.8
99829.8
99648
99916.5
99981.5
100066
99546.2
99466.5
100099
100184
100180
100109
100151
98830.3
98260.3
98690
98530.1
98361.5
99674
100331
99411.4
99310.6
99213
99149
98549
98432.2
98336.1
98864.4
98750
99057.1
98976.2
98679.3
98009.1
98090.5
97892.6
97724.5
97625.6
98293.4
98190.8
99536.3
99634.5
97167.8
97323
97416.7
99933.8
99859.4
99780.5
99711.7
100055
100018
100532
100442
100364
100322
100212
100162
101545
101452
101283
101200
101141
101151
101344
101507
101453
101422
101402
101363
100981
101020
101058
101117
101265
101321
101161
101242
101045
101091
100869
100922
101009
100796
100707
100602
100826
100670
100866
100898
100795
100830
100946
99250.2
99152.9
99042
98918
99371.3
99763.1
99898.1
99816.5
99636.7
99968.9
100039
100128
99586
99441.9
100185
100231
100209
100208
100214
98836.9
98183.2
98687.4
98520.4
98353.2
99968.6
100640
99441.2
99334
99235.4
99116.3
98561.6
98454.4
98379.8
98827.4
98921.6
98777.8
99046.1
99024.4
98665.7
97968.7
98121
97814.3
97740.3
97595.2
98298.6
98225.7
99530.6
99632.2
97257.1
97445.5
99938.8
99910.6
99830.7
99760.3
99670.3
100101
100025
100533
100579
100444
100389
100304
100252
100153
101366
101570
101250
101587
101082
101221
101522
101586
101540
101501
101530
101410
101364
100975
101042
101124
101148
101329
101351
101208
101279
101090
101175
100922
100974
101033
100856
100758
100666
100781
100616
100752
100878
100850
100915
100817
100931
99225.2
99117.5
99043.1
98929.7
99351
99750.1
99941
99865.9
99688.9
100012
100076
100179
99585.1
99484.3
100198
100239
100286
100262
100246
98766.9
98005.3
98180
98601.8
98438.3
98273
100695
100125
99499
99426.9
99389.6
99290.5
99199.2
99151.2
98510.6
98617.2
98381.1
98832.4
98931.3
98715.2
99100.9
99031.2
97993.2
98084.4
97799
97648
97528
98341.4
98187.5
99589.3
97280.4
97174.1
97355.1
99990
99934.1
99848.3
99790.9
99686.4
100071
100491
100573
100613
100390
100341
100245
100192
101631
101391
101318
101015
101198
101038
101517
101712
101801
101598
101557
101592
101448
101408
100993
101094
101002
101070
101230
101373
101402
101268
101219
101347
101123
100979
100934
101097
100828
100910
100775
100686
100792
100695
100803
100883
100856
100917
100828
100946
99149.1
99258.3
99001.5
98865.4
99317
99409.4
99785
99936.9
100002
99848.7
99645.7
100128
100173
100246
99544.7
99461.1
100205
100292
100332
100300
100295
100307
98777.4
97954
98103.6
98601.2
98441.4
98284.3
99605.2
100182
99520.4
99475.1
99394.4
99305.4
99213.3
98508.2
98619.4
98448
98781.9
98885.6
98978.5
98721
99096.2
99017.1
97980.4
98119.9
97702
97859.1
97638.2
97502
98356.4
98182.4
99573.2
97156.4
97364.8
99991.6
99903.8
99838.8
99753
99655.2
100095
100491
100587
100660
100440
100340
100287
100164
101159
101433
102166
101103
101371
101186
101027
101755
101282
101296
101669
101679
101535
101521
101462
100977
101115
101005
101110
101194
101442
101465
101312
101266
101365
101147
101042
100995
101099
100857
100939
100740
100815
100834
100699
100795
100869
100900
100843
100936
99111.1
99211.5
99024.7
98874.6
99324.9
99389.2
99769.7
99977.3
100045
99902.5
99665.1
100137
100233
100308
99563.3
99502.2
100390
100371
100343
100362
98744.7
98017
98119.4
98524.1
98673.9
98370.7
98189
99229.4
100186
100260
99479.5
99442.5
99359.8
99271.3
99186.9
98559.9
98678.2
98447.2
98788.8
98890.2
98981.5
99137.7
99061.3
97928.3
98054.5
98113
97675.1
97800.9
97564.3
97441.6
98336.6
98213.1
99601.6
97071
97224.3
97311.5
100023
99918.5
99863.2
99767.2
99681.1
100073
100540
100641
100684
100442
100389
100288
100190
101389
102066
101215
101306
101729
101316
101292
101433
101980
101947
101602
101540
101803
101522
100985
101084
101040
101005
101226
101038
101469
101534
101322
101280
101423
101217
101040
101019
101155
100828
100912
100995
100766
100810
100771
100813
100877
100908
100847
100937
99145.4
99235.3
98991
98780.7
98934.4
99300.1
99426.8
99726.2
99825.9
99983.5
100025
100108
99880.8
99960.4
99616.9
100193
100296
100324
100370
99489.7
100411
100430
100395
100361
97846.4
97966.3
98527
98618.9
98381.2
98177.3
99850.9
100348
100257
99532.8
99459.2
99377.1
99292.5
99212.6
98551.4
98693.7
98496.6
98844.9
98755.2
98940.9
99030.3
99114.8
97926.1
98053.6
97746.3
97555
97824.1
97531.5
97478.1
98287.8
98383.6
98181.1
99578.7
97039
97190.8
97347.6
100021
99964.8
99869.1
99734.3
99817.7
99656.1
100116
100544
100649
100733
100494
100392
100336
100245
100163
102213
101261
101009
101143
101138
101082
102293
101441
102470
101610
101868
102098
101410
101472
101556
101785
100959
101140
101017
101027
101215
101432
101544
101584
101390
101371
101436
101228
101100
101077
101212
101150
100854
100941
101031
100793
100836
100738
100844
100861
100890
100899
100922
100943
99110.7
99204.4
99041.1
98778.8
98918.5
99340.1
99406.4
99731.7
99791.5
100050
100076
100133
99917.5
99992.7
99632
100219
100319
100398
100421
99532.6
100471
100492
100453
100376
97781
98012.7
98475.5
98643.8
98339
98112.3
98260.4
99772.9
100223
100337
99508.8
99429.1
99344.2
99267.3
99188.4
98607.4
98667
98495.7
98841
98776.5
98946.6
99056.7
99138
97988.3
97893.9
98116.3
97691.6
97561.2
97776.7
97419.5
98274.2
98446.7
98381.6
98214.9
99605.3
97134.2
97302.6
100077
100003
99929.5
99855.1
99754.1
99803.7
99681.2
100596
100706
100754
100499
100451
100337
100236
100183
101744
101931
100884
101473
101697
101278
101590
102235
102320
101166
101821
101220
101661
101848
101626
102281
101870
100960
101082
100902
100985
100917
101407
101622
101554
101429
101374
101490
101313
101116
101254
101195
100819
100909
101002
101090
100830
100828
100783
100857
100865
100887
100907
100926
100950
99137.9
99243.7
98988.6
98717.3
98855.3
99313.1
99435.9
99695.6
99821.7
100076
100176
99883.3
99975.2
100053
99596.8
100286
100219
100370
100409
100446
100467
99498.7
100524
100517
100532
100455
100504
97807
97954.9
98512.3
98593.4
98380.9
98129.5
98223.8
99463
100295
100272
100395
99535.8
99447.4
99357.9
99292.6
99218.3
98553.3
98695.3
98885.5
98757.2
98980.1
99049.8
99122.9
97974.1
97917.3
98096.7
97714.6
97550
97789.7
97387.3
98327.8
98470.2
98408.5
98220.4
99590.8
97058.6
97242.8
100102
100029
99950.4
99884
99727.9
99830.8
99671.2
100601
100701
100753
100550
100452
100402
100318
100270
100159
101052
101915
101019
101638
101488
101525
101201
100917
101493
101761
102504
101341
101351
101917
101796
101749
101831
101359
100952
101004
101015
101225
101019
101041
100807
101727
101632
101482
101438
101506
101313
101175
101248
100842
100938
101036
101129
100852
100852
100700
100866
100857
100873
100892
100903
100916
100955
99126.7
99180.2
99006.7
98711.5
98866.6
99338.6
99431.9
99722.8
99787.4
100133
100172
99915.1
100014
100086
99624.3
100318
100263
100396
100482
100498
100519
99540.3
100589
100599
100596
100489
100566
97694.8
97875.7
97997.3
98467
98620.9
98338.5
98086.5
98262.8
99961.1
100380
100274
100430
99522.6
99406.9
99489.1
99336.6
99267.6
99207.5
98568
98679.7
98864.1
98800.6
98970.3
99021.1
99104.9
99164.1
98020.8
97900.6
98158.8
97695.9
97599.4
97467.3
97771.2
97357.2
98269
98530.8
98432.5
99630.2
97268.6
97031.2
100077
99999.6
99931.5
99878.1
99750.1
99815.9
99699.4
100652
100761
100792
100558
100503
100399
100342
100238
100185
101568
101013
100926
101195
101278
101137
101512
101240
101852
102517
101533
101969
101466
101793
101639
101701
101551
100988
100953
100937
101338
101262
101521
101359
101808
101713
101586
101499
101431
101511
101358
101218
101300
100897
101000
101099
101195
100865
100855
100793
100886
100866
100873
100889
100909
100918
100940
99076.9
99193.5
98948.7
98758.2
98826.3
99399.2
99319.4
99494.5
99682.9
99811.7
100142
100216
99870.3
99975.1
100079
100008
99594.8
100369
100260
100456
100536
100537
100579
100652
100651
100655
100554
100467
100636
97670
97841.9
97980.5
98501.7
98588.1
98376.6
98136.3
98218.7
100057
100186
100251
100465
99567.2
99407.2
99493.8
99355.3
99291.8
99242.6
98630.4
98724.3
98903.8
98778.9
99017.4
98954.4
99103
99152
98009
97900.4
98169.9
97711
97573.8
97378.5
97857.6
97233.9
98286.9
98562.1
98511.2
98431.4
99615.7
97124.7
97018.6
100099
100014
99962.8
99914
99788.8
99849.6
99703.2
100662
100810
100726
100615
100496
100440
100315
100260
100153
101706
101492
101176
101265
101305
101360
101412
101804
101651
101290
101380
101454
101778
101949
101568
101770
102656
102752
102359
100944
100957
100951
101127
100989
100895
101077
101208
101142
102037
101864
101554
101472
101642
101362
101288
100922
101030
101134
101236
100865
100857
100830
100902
100870
100879
100892
100913
100905
100937
99055.3
99157
99269.6
98973.4
98719.8
98861.3
99426.8
99362.2
99519.3
99706.8
99770.1
100193
100234
99887.2
99999.3
100132
100069
99621.7
100392
100313
100489
100582
100600
100619
100706
100727
100724
100603
100555
100691
97738.1
97904.7
98065.1
98460.9
98636
98339.3
98251.4
99844
100251
100203
100396
100517
99542.9
99442.6
99479.4
99354.7
99331.8
99239.9
98607.3
98708.9
98872.4
98821
99052.9
98986.6
99143.2
99188.7
97951.1
98110.4
98217.6
97649.7
97536.3
97418.9
97899.9
97118.3
98376
98262.4
98520.9
98462.1
99646.4
97159.7
97075.8
96829.9
100091
100056
99955.2
99917.7
99793.3
99823.7
99894.4
99756.7
99688.4
100864
100743
100624
100537
100437
100343
100258
100171
101423
101359
101501
101122
101137
101173
101378
101600
102161
101854
102331
101914
101836
101757
101670
101839
101978
101292
100983
100930
100843
101107
101139
100978
100978
101083
100815
101742
101589
101569
101427
101532
101644
101590
101338
100992
101097
101208
101315
100871
100856
100805
100914
100881
100875
100881
100889
100911
100905
100917
99093.2
99184.3
99260.2
98942.4
98754.9
98824.6
99484.1
99360.9
99582.8
99676.6
99781.4
100190
100283
99965.7
99867.9
100051
100127
100368
100454
100547
100580
100641
100639
100680
100770
100713
100783
100778
100682
100576
100758
97695.5
97902.2
98090.8
98503.1
98593.4
98373.8
98188.1
99634.7
100246
100233
100413
100515
99568
99401.3
99497.7
99346.1
99277.4
98644.2
98754.6
98904.6
98806.3
99031.8
98960.3
99143.1
99184.3
97896.1
98066.2
98210.8
97789.6
97549.4
97630.4
97355.7
97900
97224.1
98333.4
98242.5
98585.1
98452.5
99614.1
97155.1
96951.5
97030.1
100121
100043
99996.4
99963.8
99835.3
99913.3
99749.9
99702
100881
100690
100796
100589
100537
100398
100489
100290
100221
101240
101213
101411
101043
101168
101185
101242
101212
101671
101480
101808
101514
102115
101334
102093
102335
101805
101494
101612
101812
101067
100990
101118
101011
100992
101074
101036
101246
101104
101021
102304
101940
101419
101593
101784
101662
101014
101122
101237
101355
100877
100863
100878
100935
100879
100890
100913
100898
100914
100941
99052.6
99157.5
99305.2
98981.3
98745.3
98869.5
99506.6
99416.7
99612
99714.5
99822.3
100233
100316
99983.8
99920.9
100091
100177
100403
100478
100578
100654
100698
100693
100822
100772
100854
100840
100721
100626
100816
97578.6
97745.8
97831.6
98005.7
98458.9
98631.6
98364.6
98213.5
99875.9
100264
100193
100461
100486
100603
99542.1
99410.6
99488.7
99387.6
99320.6
99266.6
98641.5
98739.9
98885.4
98842.9
99059.3
98990.5
99116
99192.1
99229.6
98077.3
97888.2
98183.3
97640.7
97554.4
97545.8
97370.3
97876.2
97261.5
97257.1
98376.1
98257
98579.1
98533.5
99631.7
96622.7
97144.1
100132
100068
99979.5
99840.5
99883.5
99952.3
99780
99699.3
100968
100851
100699
100800
100608
100573
100395
100479
100296
100194
101259
101211
101304
101457
101084
101127
101147
101161
101148
101514
101733
101364
101761
101489
102099
101984
101659
102319
101720
101615
101664
101679
100970
100985
101104
101118
100865
101117
101072
101052
101082
101047
102000
101852
101466
101717
101536
101591
101706
101084
101202
101316
101433
100883
100874
100941
100859
100862
100894
100888
100931
100894
100909
100972
99080.5
99197.4
99303.5
98936
98815.1
98700.2
99474.8
99573
99408.5
99682.4
99820.1
100291
100233
100380
100014
99886.7
100164
100090
100459
100543
100632
100710
100748
100741
100873
100821
100783
100912
100868
100877
100799
100708
100670
100883
97555.1
97645.3
97836.1
98019.9
98506.8
98581.2
98302.9
98445.4
98137.1
100142
100439
100496
100572
100653
99563
99458.2
99521.6
99402.5
99337.6
99296
98688.8
98780
98902
98836.1
99066.8
98961.1
99028.1
99137.6
99172.2
99228.3
98105
97793.5
98102.9
97633.2
97548.9
97474.9
97255.3
97777.3
97323.6
97224.1
98403.8
98330.7
98643.2
98507.1
99674.2
99600.4
96777
97516.9
96900.8
100113
100051
100022
99873
99821.7
99966.4
99739
100986
100886
100757
100659
100848
100591
100353
100437
100526
100288
100212
101240
101173
101264
101367
101027
101071
101104
101093
101477
101707
101765
101531
101538
101719
102448
102002
101754
101854
101826
101841
100939
100845
100945
100911
101070
101123
101066
100917
101077
101004
102119
101396
101571
101554
102000
101901
101111
101232
101351
101527
100882
100881
100834
100860
100866
100896
100887
100886
100909
100900
100967
99061.7
99178.2
99257.1
99360.5
98957.9
98834.9
98710.1
99509.1
99593.1
99461.7
99705.2
99800.6
100332
100283
100412
100006
100059
99910.6
100208
100158
100497
100552
100665
100765
100806
100923
100869
100842
100966
100957
100942
100850
100788
100705
100936
97480.8
97652.2
97907.6
97743.7
97966.5
98603.4
98304.7
98473
98160.1
100249
100478
100531
100631
100665
99446.1
99514.8
99405.8
99378.2
99303.5
98695.9
98794.6
98918.1
98876.8
99104.6
98935.8
99036.7
99202.2
99261.1
98035.2
98008.1
97865.8
98194.4
97829.4
97526.1
97418.4
97529.3
97731.9
97119.7
98380
98470.7
98228.9
98630.6
98614.9
98497.3
99691.8
99613
96995.8
97289.1
96909.5
100140
100085
100029
99893.8
99819.5
99945.7
100007
99746.7
101065
100949
100740
100644
100864
100576
100355
100428
100507
100258
100308
100182
101183
101104
101252
101268
101347
100994
101025
101061
101076
101388
101601
101727
101504
101455
101788
102149
102256
102054
101742
101608
101665
101788
101959
100990
100967
100864
100906
100970
101034
101003
100967
100974
101575
101775
101522
101783
102018
101740
101188
101298
101405
100880
100876
100785
100876
100873
100895
100886
100930
100942
100910
100918
99018.5
99120.3
99204.9
99267
99363.4
98898
98780.8
98671
99561.6
99650.3
99478.2
99760.5
99844.8
100386
100298
100479
100415
100054
99972.9
99891.9
100209
100263
100146
100599
100745
100651
100787
100816
100859
100920
100974
100883
100995
101009
101012
100903
100807
100768
100957
97474.2
97304.1
97563.2
97894.8
97741.2
98013.8
98561.6
98376.5
98232.1
98447.3
98093.6
100050
100546
100576
100646
100722
99477.4
99545.4
99444.6
99383.8
99347.3
98750.9
98827
98871.4
99121
98946.9
99031.2
99091.1
99174.5
99246.1
99274.4
98210.7
98001.5
97941.7
98092.5
97782.3
97619.9
97216.4
97530.7
97727.4
97186.6
98352.1
98504.6
98303.2
98692.6
98620.9
98458.3
99660.7
99729.1
99589.8
97112.3
96901.1
97007.9
96896.8
100119
100068
99878.6
99848.2
99787.5
99967.4
100026
101061
100973
100781
100682
100844
100925
100624
100395
100466
100533
100235
100310
100195
101144
101064
101181
101223
101283
100979
100961
101007
101015
101009
101381
101574
101475
102202
101976
102121
102138
101702
101632
101686
101637
101679
101046
100880
101013
100961
101091
101014
101101
100919
100945
100922
100954
102071
101612
101691
101851
101960
102004
101211
101381
101539
100882
100830
100887
100878
100887
100891
100885
100939
100916
100962
100900
100959
99019.2
99078.9
99208
99323.7
99421.3
98905.3
98780.6
98703.1
99585.5
99656.8
99543.3
99755
99803.3
100407
100366
100508
100463
100085
99983.3
99915.1
100245
100287
100192
100606
100749
100693
100848
100861
100914
100969
101022
100932
101052
101086
101077
100940
100911
100857
100771
101049
97393.8
97566.3
97966.1
97825.7
97655.9
98597.5
98359.8
98237.4
98506.7
98095.3
100387
100518
100684
100606
100709
100736
99529.9
99454.2
99421.4
99353.9
98728.6
98816.5
98841.4
98926.6
99034.8
99098.1
99180.7
99252.2
99324.3
98300.7
97991.5
98030.7
97933.1
98331.8
98089
97788.2
97679.7
97529.6
97086.4
97638.3
97664.3
97223.6
98416
98417.8
98736
98562.6
98747
98508
99671.7
99753.2
99609
97052.3
97048.6
96900
100138
100095
99913.8
99842.7
99788
99947.5
100005
100069
101024
101125
100760
100672
100882
100952
100596
100397
100433
100527
100260
100299
100363
100175
101091
101002
101165
101221
101274
100935
100930
100997
100938
100970
100982
101335
101475
101605
101434
102117
101961
102038
102184
101258
101598
101631
101637
101498
100764
100989
100837
100893
100991
101003
100796
100752
100884
100937
100911
102134
101598
101447
101529
101805
101655
101192
101253
101389
100886
100831
100896
100879
100883
100886
100887
100909
100894
100932
100896
100853
98976.2
99092.3
99279.6
99192.3
99335.5
99421.3
98884.6
98826.8
98667.9
99637.2
99714
99557.4
99808.1
100461
100383
100565
100486
100081
100040
99912.8
100267
100342
100250
100171
100664
100798
100714
100885
100872
100915
100938
100956
101025
101049
101072
101104
101147
101143
100882
100824
97405.1
97209.5
97488.8
97998.7
97827.4
97653.7
98575.6
98425.2
98308.6
98165.2
98490.7
100215
100579
100682
100643
100724
100784
99552.1
99494.7
99427.9
99394.1
98818.4
98909.3
98878.5
98994.1
99075.1
99145
99212.7
99254.5
99307.6
99333.3
98133.3
98038.6
97832.2
97901.5
98124.5
98211.8
97762.7
97616.3
97490.7
97333.9
97498.5
97714.6
98394.6
98395.5
98753.7
98476
98642.3
98562.6
99644.3
99707
99741.1
99589.3
97134.1
97050.4
96901.1
100130
99899.5
99875.6
99812.6
99971.6
100024
100086
101056
101095
100708
100792
100863
100917
101023
100600
100442
100487
100558
100230
100319
100359
100196
101195
100919
100904
100926
100889
100931
101302
101419
101489
101353
101954
102092
102030
102074
101715
101513
101614
101439
100901
101080
100960
101023
100989
100980
100932
100892
100744
100906
102116
101452
101680
101530
101886
101897
101297
101348
101402
100863
100897
100876
100885
100888
100886
100964
100899
100909
100923
100889
100914
98990.8
99146.5
99039.1
99278.2
99213.4
99379.9
99473.1
98926.5
98813.1
98693.7
99656.1
99710.9
99621.4
99522
99755.2
99845.5
100497
100430
100551
100118
100026
99894.2
99973.7
100332
100288
100208
100649
100758
100856
100937
100943
101009
101020
101058
101106
101134
100829
97312.3
97496.6
97992.6
97904.5
97738.8
97589
98621.9
98407.3
98319.2
98168.1
98546.4
100489
100564
100746
100691
100717
100786
99549.1
99492.3
99466.4
99399.9
98779.4
98878.5
98920.2
99041.8
99067.4
99142.4
99223
99281.4
99322.1
99369
97925.1
98243.2
97904.4
97965
98430.5
98348.2
97746
97643.3
97430.2
97566.2
97383.7
97691.7
98281.7
98766.6
98478.9
98711.8
98499.1
99656.9
99715
99767.4
99603.4
97153.6
97048.2
96901.8
100156
99918.9
99858
99822.7
100007
99953.3
100057
100123
101101
100717
100755
100878
100932
101032
100635
100402
100495
100573
100238
100319
101216
100879
100872
100876
100858
101297
101431
101353
101479
101322
102488
102142
102160
101933
101821
101558
101443
100952
100887
100908
100900
100963
100948
100903
101052
100716
100885
101982
101940
101795
101297
101832
102131
101993
101939
101344
101317
100877
100913
100876
100887
100878
100885
100882
100894
100897
100908
100962
100885
100965
99103.2
99043.2
99322.8
99209.7
99387.1
99445.8
98925.6
98868.6
98754
99663.6
99632
99538.4
99724.2
99814.5
100481
100569
100437
100589
100123
100058
99914.4
99965.9
100377
100345
100260
100177
100690
100778
100910
100981
100994
100972
101048
101029
101119
101147
101195
97299.9
97172.9
97439.4
98069.2
97872.2
97716.2
97615.1
98620.2
98450.6
98296
98235.9
98516.5
100424
100600
100588
100689
100749
100819
99580.8
99518.1