/*--------------------------------*- C++ -*----------------------------------*\
| =========                 |                                                 |
| \\      /  F ield         | OpenFOAM: The Open Source CFD Toolbox           |
|  \\    /   O peration     | Version:  v2012                                 |
|   \\  /    A nd           | Website:  www.openfoam.com                      |
|    \\/     M anipulation  |                                                 |
\*---------------------------------------------------------------------------*/
FoamFile
{
    version     2.0;
    format      ascii;
    class       surfaceScalarField;
    location    "0.8";
    object      phi;
}
// * * * * * * * * * * * * * * * * * * * * * * * * * * * * * * * * * * * * * //

dimensions      [0 3 -1 0 0 0 0];
oriented        oriented;


internalField   nonuniform List<scalar> 
21399
(
0.181803
0.605271
-0.593423
0.775227
0.614232
-0.0839395
0.573901
0.140371
0.654003
0.467524
0.307703
0.122553
0.491678
0.502783
0.714272
0.180806
0.473198
0.590077
-0.504188
0.811891
0.501941
-0.0119775
0.51476
0.210084
-0.368579
0.549385
0.683282
0.220435
0.369642
0.336844
0.475047
0.722376
0.373211
-0.109852
0.361233
0.146181
0.09804
0.451345
-0.0597329
0.743015
0.706486
-0.141327
0.616373
0.730101
0.220344
0.290227
0.0710066
0.436408
-0.328092
0.426132
0.391612
0.601689
0.0590849
0.647401
0.675458
0.464638
0.265463
0.351514
-0.13117
-0.342543
0.41355
0.108316
0.200327
0.225805
0.591939
-0.112958
0.714647
0.303644
0.343758
0.342007
0.333451
0.473988
0.569107
0.00897117
0.189692
0.271118
0.142432
0.379433
0.333134
-0.10733
0.521423
0.0705165
0.408464
0.356278
0.358369
0.685764
0.68973
-0.111399
0.585387
0.457708
-0.317007
0.325978
-0.127315
0.302223
-0.159791
0.369488
0.00994552
0.251502
0.32019
0.0129444
0.262158
0.390706
0.455404
-0.0469403
-0.33356
0.691929
0.270983
0.414781
0.392037
0.297693
0.594796
0.728691
0.372509
-0.0465308
0.124187
0.280184
0.0220388
0.212718
0.29013
-0.291411
0.304356
-0.0292528
0.423749
-0.0330427
0.121844
0.376809
0.411022
0.280907
0.806818
0.708715
-0.273206
0.868002
0.455485
-0.354361
0.30783
-0.155837
0.280024
-0.235805
0.257843
-0.0230866
0.270178
0.019952
0.0942266
0.327401
-0.0230457
0.240925
0.294359
-0.268946
0.390791
0.107862
-0.197685
0.478592
0.262864
0.543954
0.683201
0.0255145
0.632135
0.235867
0.718349
-0.0743374
0.300654
0.00717664
0.286108
-0.0282648
0.277567
0.30606
-0.148818
0.243044
0.122256
-0.334197
0.311151
-0.0932718
-0.0293202
0.323679
0.528372
-0.137581
-0.272388
0.380251
0.330687
0.44439
0.034202
-0.0631698
0.607124
0.620031
0.469904
0.641465
-0.331221
0.567087
0.387128
0.168707
0.253906
-0.24673
-0.210635
0.18237
0.0669319
0.212788
0.270686
-0.14843
0.272227
0.0389242
0.242907
0.0512904
0.242669
0.35313
-0.022443
0.387332
0.104921
0.502203
0.52042
0.099611
-0.0988082
0.568713
0.625405
0.0160604
0.681192
-0.114105
0.492049
0.326189
-0.157483
0.2583
-0.00439371
0.0794596
0.300201
-0.11783
-0.167286
0.234218
0.278391
-0.0656026
0.113204
0.101174
-0.230536
0.26946
0.203086
0.0398203
0.254377
0.407426
-0.164757
-0.28328
0.260837
0.403041
-0.015709
0.0691102
0.433093
0.58953
-0.37906
0.478671
0.304233
0.189652
0.633995
0.697253
0.377944
0.0910144
-0.200854
0.19646
0.256343
-0.176883
0.269114
0.0310872
0.116387
0.0478554
0.203511
0.27423
-0.161026
0.25233
-0.151156
0.201334
0.0681262
0.241154
0.394319
-0.139942
0.124146
0.229562
0.39287
-0.132033
0.377161
0.811037
0.675161
-0.0856305
0.623978
-0.145307
0.347644
-0.0434116
0.445823
-0.256171
0.0468952
0.5871
0.571923
0.12533
-0.185507
0.276522
0.0554886
0.0109529
0.0973468
0.217144
-0.186057
-0.105175
0.221562
-0.224856
0.272711
-0.0213445
0.0913041
0.0693825
-0.197081
0.265207
0.101212
0.303527
-0.179381
0.344704
-0.115142
0.171495
0.268996
0.108165
0.435696
0.375341
0.237425
0.437736
0.538348
0.300517
0.0914732
0.225585
0.618818
0.595385
0.561026
0.171347
0.187016
-0.131528
-0.183375
0.194328
0.268153
-0.170806
0.219236
-0.0020922
0.0355052
0.0756305
0.197892
0.241
-0.149696
0.245448
0.207053
0.058154
0.308264
0.165323
-0.278535
0.163392
0.354881
-0.183386
-0.171521
0.279686
0.612766
0.62921
-0.191474
0.562127
-0.0237792
0.494197
-0.19368
-0.255177
0.34665
-0.0295926
0.564938
0.0538808
-0.0686554
0.66404
0.0174821
0.543543
0.174166
-0.00281938
0.00364086
0.136625
-0.0427977
0.237126
0.0701941
-0.187503
0.18541
0.209671
0.261685
-0.186055
0.229175
-0.0312831
0.0957522
-0.153118
0.211272
0.0297296
0.322068
-0.156745
0.297933
-0.13454
0.294763
0.0601178
0.138682
0.123242
0.250093
0.630248
0.570491
0.0587183
0.370653
-0.369193
0.345413
0.125004
-0.431965
0.238285
-0.0853147
0.496282
0.597424
0.671369
-0.195698
0.192878
-0.178571
0.182212
-0.0419457
-0.192594
0.149797
0.0414283
0.250834
-0.18064
0.0221687
0.196088
-0.0106771
0.108567
0.0431204
0.164804
0.178314
-0.0825617
0.251409
-0.0401365
0.281138
0.141188
0.146598
0.258492
-0.198374
0.304768
-0.166086
-0.171421
0.294663
0.310042
-0.0599487
0.0365698
0.593678
0.607061
-0.460695
0.519413
-0.0900417
0.474705
-0.129291
0.409684
-0.284679
0.364289
-0.126004
0.224727
-0.374851
0.871133
0.222573
-0.166584
0.837953
0.169564
0.0233144
-0.0103825
-0.205632
0.163686
0.171746
-0.0219496
0.213174
0.0452025
-0.00232612
0.191733
-0.184571
0.173894
0.209127
-0.10056
-0.159249
0.20237
0.00555514
-0.216539
0.133977
-0.0126391
0.168991
0.27253
-0.131342
0.272939
-0.126341
0.0870704
0.106395
0.106444
0.233533
0.0611299
0.173585
0.816251
-0.113204
0.720265
0.623895
-0.104481
0.384663
0.280392
0.07961
-0.372476
0.246472
-0.147749
0.704549
0.629598
0.208355
-0.157295
0.18061
-0.194196
0.183814
-0.0305103
-0.149999
0.128049
0.0558792
-0.115307
0.16051
-0.140632
0.138305
0.0071618
0.174035
-0.000141
-0.211933
0.111372
-0.00956318
0.17959
-0.00665436
0.164732
-0.107392
0.276383
0.141596
-0.183379
0.0570378
0.25815
-0.17108
0.264337
-0.157942
0.267752
-0.161309
-0.171262
0.232392
0.292971
-0.119386
-0.0117747
0.828026
0.51069
0.708491
-0.49683
0.392349
-0.112167
0.453383
-0.172991
-0.291389
0.370999
-0.0449172
0.145221
0.487713
0.216836
0.63616
0.696068
0.173311
0.00729895
0.0338151
-0.149372
0.118861
0.202191
-0.0741417
-0.129847
0.185726
-0.238872
0.123565
0.0111381
-0.100566
0.180473
-0.17119
0.171049
0.25269
-0.141318
-0.174051
0.164487
0.00553922
-0.175255
0.1686
-0.0105224
0.145298
0.093004
0.200305
-0.0587086
-0.157525
0.214563
0.086888
0.0932575
0.10981
0.0389961
0.113006
0.378605
0.449421
0.736206
-0.225516
0.551137
0.157354
0.56056
-0.168212
0.341216
-0.33159
0.158599
0.0394092
0.196045
-0.240963
0.318442
-0.173221
0.595442
0.150242
0.485918
0.518468
0.1776
-0.134991
0.14229
0.164591
-0.130776
0.205437
-0.0865752
0.0723436
0.0904495
0.0507348
0.154212
-0.0306472
0.16535
0.0680337
0.00928287
0.162185
0.00886337
0.0231698
0.167725
-0.150677
0.140154
0.258065
-0.112766
-0.0645207
-0.233449
0.17474
-0.0188863
0.240982
-0.154093
0.232801
-0.139543
0.243485
-0.133674
-0.116749
0.155746
0.280573
-0.167567
-0.111091
0.560512
0.407682
0.328524
0.335045
0.440046
0.565036
-0.450888
0.282677
-0.109672
-0.211227
0.369826
0.267235
-0.227826
0.33738
-0.141334
0.077479
0.107352
0.547514
0.0479272
0.668709
0.491886
0.725115
-0.00161541
0.635312
0.0202624
0.621666
0.183261
-0.0409705
0.0746604
0.0787749
-0.107869
0.180213
0.183835
-0.0933854
0.169071
-0.118336
-0.151569
0.120921
0.19498
-0.126946
0.192544
-0.152581
0.161444
-0.16504
0.18821
0.00268449
0.172308
-0.0321535
0.193544
-0.186792
0.0740257
0.0579908
-0.152732
0.133846
0.0734148
0.0787072
0.103941
-0.225525
0.091851
-0.0697798
0.608439
0.641678
-0.313155
0.532867
-0.197822
-0.294688
0.734734
0.270348
0.524909
-0.242232
-0.373157
0.263484
0.0560082
-0.00333028
0.109553
-0.249688
0.108354
-0.172209
0.272867
-0.165515
0.113585
0.555124
0.605471
0.72295
0.00216455
0.644259
0.0647308
0.570581
0.531499
0.642729
0.631182
0.1281
0.186946
-0.112286
0.17808
-0.0993052
0.0759658
0.0618766
0.0935611
0.0434116
0.185404
-0.0644828
0.0453615
0.0399628
0.156321
0.00512347
0.00141775
0.159005
-0.13896
0.106806
0.0408119
-0.107164
0.18119
0.166446
-0.108455
0.210985
-0.0771395
0.274144
-0.20073
0.19487
-0.116162
0.217919
-0.113977
0.22988
-0.138029
0.0966659
-0.119864
0.728303
0.343327
0.298351
0.219712
0.327086
0.61487
0.613675
-0.345538
0.103306
-0.0820542
0.244562
-0.188553
-0.282208
0.278877
0.296948
-0.187395
0.278685
-0.170331
0.100659
0.108629
-0.108039
0.663163
0.610489
0.614911
0.730467
0.00553117
0.638728
-0.445069
0.5098
0.0234833
0.547098
0.0864305
0.64826
0.000543792
0.630639
0.194379
-0.0662791
0.0657939
0.0860989
-0.114559
0.190524
-0.109353
0.17123
0.137713
-0.044152
0.17811
-0.134699
0.113627
-0.142321
0.187682
-0.129452
0.169415
-0.119343
0.124467
-0.177172
0.17859
-0.0181665
-0.010088
-0.0355144
0.166956
-0.126144
0.0714251
0.23439
-0.0532001
0.10253
0.089816
-0.00585999
0.101756
0.115903
-0.169363
0.0313334
-0.0726969
0.519034
-0.220683
0.426868
-0.207156
0.482935
-0.155849
0.716684
-0.101814
-0.0890096
0.702685
0.386773
-0.283467
-0.322384
0.24033
-0.0376462
0.108395
-0.0435067
0.0912902
-0.251733
0.0814018
-0.151075
0.236933
-0.128304
0.134116
0.529047
0.744605
-0.0627978
0.677709
0.570412
0.160055
0.662211
0.483152
0.0266479
-0.183193
0.73029
0.309313
0.0125226
0.395743
0.290694
-0.000827592
0.648804
0.640518
0.0649276
-0.137873
0.0715942
-0.0822326
0.148027
0.176602
-0.0905027
0.0231544
0.0811715
0.0333562
-0.155708
0.111556
0.0529835
0.142661
-0.0290341
0.0500714
0.18064
-0.056173
0.162473
0.127135
0.117047
-0.126065
0.0905504
0.108247
0.157987
-0.0865616
0.104787
0.178166
-0.0756357
0.18224
-0.0924243
-0.187197
0.181337
-0.0854408
0.198387
-0.0824845
-0.16693
0.198263
0.105469
0.430025
-0.467044
0.246361
-0.0401759
0.27578
-0.43643
0.280581
0.453663
0.263021
0.600871
-0.049657
-0.0431367
-0.287169
0.249523
-0.178774
-0.291089
0.247583
0.268924
-0.177633
0.242729
-0.161327
0.0858587
-0.282601
0.154297
-0.0193775
0.548425
0.110007
0.634598
0.507615
0.658331
0.613718
-0.0527924
0.715003
0.299959
-0.407186
0.433834
0.280448
0.449842
0.303216
-0.0114432
0.281881
0.596012
-0.0867078
0.727226
0.184615
-0.119687
0.155951
-0.084357
0.094369
-0.00768182
0.0521587
-0.117795
0.140949
0.173628
-0.0924566
0.109329
-0.0759723
-0.00623814
-0.125797
0.178781
-0.15534
0.126306
0.142754
-0.0926828
0.0865812
0.159321
0.00315257
-0.00901788
0.176467
-0.0859163
0.192628
-0.0843811
0.072759
0.199078
-0.0942917
0.106605
0.100204
-0.101264
0.112947
-0.1748
0.0923157
-0.0614609
0.0234633
0.713004
-0.282979
0.589734
-0.343373
-0.39926
0.359084
-0.12348
0.450854
-0.170273
-0.45236
0.715381
0.148511
-0.391936
0.342279
-0.297835
0.254699
-0.0415667
0.0901497
-0.0502528
0.0650958
-0.230384
0.0690563
-0.144525
0.195963
-0.0416669
0.658432
0.638902
-0.24466
0.752275
0.0328213
0.62551
0.369058
0.391771
0.323232
-0.248423
0.548382
0.185412
-0.382784
0.663232
0.841614
0.329606
-0.0263898
0.318163
0.291452
-0.00957179
0.509304
0.736472
0.0919317
0.0362644
0.0249715
0.133085
-0.0387162
0.125403
-0.107768
0.159927
0.153052
-0.0121031
0.0976558
0.0605954
-0.134652
0.128414
0.0506695
0.0234405
0.0185383
0.178151
-0.0915701
-0.139238
0.142391
0.143528
-0.0469331
0.13451
0.048594
0.114697
0.168284
-0.0955249
0.0739923
0.176092
-0.0694872
0.191926
-0.0917228
-0.220398
0.119135
-0.107452
0.198513
-0.106197
0.114631
0.162049
-0.138586
0.478224
0.23478
0.306755
0.0157105
0.327374
-0.313722
0.143448
0.471674
0.243708
0.626735
-0.137237
0.0285571
0.231287
-0.272853
0.288152
-0.198002
-0.28109
0.230837
0.250345
-0.185249
0.220443
-0.151386
0.0514384
0.129293
-0.17096
0.0470796
0.611352
0.0254972
0.613405
0.785096
0.67259
0.840731
0.832536
0.165598
-0.241318
0.42673
0.683918
-0.0206861
0.402828
0.438785
0.265062
0.413016
-0.0948528
0.265249
0.0280015
0.255677
0.515635
0.220836
0.138552
-0.0466207
0.154721
-0.118457
-0.102118
0.12709
-0.136429
0.0977125
-0.00924834
0.0234979
-0.13366
0.121557
-0.00446233
-0.121173
0.181768
-0.00524626
0.159428
-0.108758
-0.127818
0.151259
-0.120188
0.138726
0.0389131
0.0469822
0.0468659
0.0835597
0.149168
-0.100574
0.159826
-0.045129
0.172688
-0.098696
0.122439
0.0681035
0.242004
-0.12287
0.0910615
0.0558519
0.17342
-0.058789
0.0348339
0.603116
-0.368336
0.580998
-0.274243
-0.421027
0.436738
-0.0936531
0.330444
-0.186996
-0.536409
0.780117
0.0903261
-0.269456
0.132218
0.304599
-0.276042
-0.0498033
0.0152987
0.0523425
-0.0386186
0.0351937
-0.218095
0.0667091
-0.166657
-0.0373643
0.0710447
0.63685
0.616943
0.461851
0.323245
0.0811413
0.591448
0.66319
0.177541
0.391327
0.441208
-0.330593
0.496191
0.171698
0.0961369
0.334595
0.349323
-0.335715
0.315029
0.794156
0.77338
0.317019
-0.0519562
0.222166
0.266692
0.268202
-0.0125248
0.525992
0.662045
-0.161201
0.11458
-0.00647935
0.00863251
0.154427
-0.0567142
0.145178
-0.128568
0.152066
0.000384062
-0.114124
0.109662
0.0676441
-0.122693
0.117447
0.0316096
0.0404101
0.0310707
0.010158
0.144259
-0.105346
-0.112259
0.159241
0.169328
-0.122462
0.156906
-0.0733466
0.0563321
-0.132879
0.0877499
0.0398094
0.0706319
0.162116
-0.0396773
0.1619
-0.0937963
-0.222811
0.0999411
-0.131749
0.173323
-0.117471
0.103327
0.175921
-0.141087
0.441361
0.161755
0.212662
-0.552854
0.278611
-0.116116
-0.422074
0.328421
-0.0916304
0.117604
0.443984
0.336132
0.531687
0.317297
-0.185079
-0.275743
-0.000298982
0.208
-0.257804
0.199354
-0.184055
0.298187
-0.245844
0.241392
-0.280011
0.218789
-0.183595
0.183431
-0.116722
-0.189557
0.152192
-0.118512
0.00920132
0.627648
0.0260783
0.590865
0.542992
-0.253119
0.576364
0.60065
0.410071
0.621526
0.160476
0.359106
-0.187408
-0.232806
0.328943
-0.2387
0.588023
0.472846
-0.157817
0.521748
0.272408
0.583935
0.189445
0.216245
0.340739
-0.118574
0.200745
0.0659469
0.18822
-0.157282
0.683274
0.504763
0.00232112
0.131131
-0.137611
-0.124926
0.133559
0.0953519
0.022485
-0.129048
0.129432
-0.0152648
0.123419
-0.0557748
-0.0116005
0.1637
-0.132091
0.120503
-0.0800929
-0.114822
0.145893
-0.103476
0.113634
0.0217968
0.0538955
0.0654491
0.155675
-0.0993432
0.134275
-0.0465251
0.147649
-0.10784
0.129863
-0.0592307
-0.136011
0.0963335
0.0258889
0.0404787
0.196654
-0.0967128
0.0415737
0.05845
-0.0377598
-0.47499
0.636745
0.502408
-0.289746
0.522079
-0.243468
-0.522877
0.406761
-0.194456
-0.289526
0.197896
-0.171922
0.692241
-0.356109
-0.207372
0.739059
0.0415541
0.0563132
-0.246635
0.246336
-0.0720103
-0.05845
0.114132
-0.0270552
-0.000164235
-0.220774
0.104052
-0.0685818
0.078142
0.653727
0.59367
-0.081897
0.624889
0.494467
-0.0335596
0.634209
-0.327977
0.738048
0.293548
0.36987
-0.209394
0.1263
0.153332
0.405479
-0.0765359
0.234146
0.285453
0.302571
0.212053
-0.0886838
0.610432
0.777171
0.495252
0.474898
0.258212
-0.0419667
0.139638
0.302382
-0.17283
0.238777
0.271157
-0.0829371
0.692172
-0.145696
0.148017
-0.0145649
-0.0040516
0.16602
-0.0706683
-0.108389
0.130874
0.157109
-0.0276775
0.108154
0.101334
-0.101909
0.0903082
0.0488782
-0.0115877
0.0755824
0.0424162
0.156391
-0.0427568
-0.111827
0.133624
0.112666
-0.0587708
0.139065
-0.0736157
0.0397216
0.101124
0.0220231
-0.157365
0.0981347
0.145277
-0.0489431
0.145408
-0.119519
-0.0991583
0.139637
0.110412
-0.207125
0.160651
-0.119077
0.165329
-0.106879
0.107517
0.0274184
0.429373
0.232333
-0.429981
0.186513
-0.0232202
-0.429872
0.235416
-0.231976
-0.287882
0.115959
0.377709
0.314533
0.382951
-0.205081
0.259371
-0.203058
-0.0415452
-0.249729
0.177718
-0.216253
0.157803
-0.102122
-0.166516
0.13946
-0.195096
0.194931
-0.0910435
0.0942269
-0.162809
0.178993
-0.100851
0.0997435
0.553983
0.0628288
0.530841
0.59133
-0.186582
0.681049
0.733953
0.551466
0.671257
0.196084
0.32842
-0.20212
0.32248
-0.169149
0.251884
0.455301
-0.221155
-0.0636262
0.366197
0.417626
-0.205574
0.351212
0.25922
0.312243
0.464928
0.490095
0.00515632
-0.0305615
0.505459
0.229191
0.329251
-0.189612
0.129552
0.15584
0.0831398
0.609032
0.126951
0.0210663
0.0974971
-0.112062
-0.142378
0.138326
0.0576316
0.0857229
0.0289649
-0.145636
0.117958
-0.0342238
0.1403
-0.0389661
-0.0553276
0.136563
-0.087685
-0.113338
0.101751
-0.0377558
0.136942
-0.0945257
0.0941851
0.000839265
-0.0237415
0.0681801
0.0399664
0.138873
-0.099151
0.00196564
-0.13121
0.153234
-0.0330758
0.0964652
0.0201176
0.181264
-0.0708516
-0.0464746
0.046252
-0.167541
0.0606617
-0.0600239
-0.528097
0.555515
-0.17956
0.608932
-0.295764
0.492964
-0.306451
0.385394
-0.408614
0.472858
-0.237442
-0.328676
0.0966999
-0.212716
0.701844
-0.387312
-0.266504
0.649455
0.0542897
-0.290805
0.0877467
0.247998
-0.289543
-0.0919254
-0.113086
0.149607
-0.251729
0.0284159
0.227533
-0.0880731
-0.194195
0.103151
-0.0999678
0.0161844
0.0804129
0.616812
0.533381
-0.166074
0.757403
0.514976
0.425568
0.308385
-0.044208
0.595674
0.0500702
0.621187
0.358596
-0.162512
0.12036
0.160102
0.30174
-0.0498563
0.381151
0.07415
0.196471
0.317525
0.335635
0.153023
0.663455
0.749315
0.548068
0.510615
0.0395786
0.26687
-0.137318
-0.126034
0.281874
0.618894
0.118876
-0.09781
0.157013
-0.0595164
0.0262643
0.137484
-0.079852
0.137551
-0.0518282
0.111467
-0.0825016
0.136818
-0.0188599
0.106077
0.0978521
0.0561389
0.0420376
-0.149639
0.0619543
-0.0478888
-0.119443
0.0816872
0.145425
-0.0512399
-0.108471
0.10931
-0.132616
0.108874
-0.0402908
0.0824803
0.0133579
0.122447
0.0194296
0.0232957
-0.125396
0.127362
0.0278374
-0.129515
0.0964388
0.143658
-0.0471926
-0.110858
0.130976
0.0961716
-0.167023
-0.178558
0.132084
-0.132306
0.132409
-0.0717475
0.0836339
0.599902
-0.0443868
0.420342
0.342428
0.1972
0.0789431
0.0642435
0.103148
-0.340591
0.343301
-0.246601
0.0352816
0.751914
0.262143
0.275023
-0.220733
0.214326
-0.126579
-0.0145204
-0.238264
0.146338
-0.254888
0.141802
-0.0886564
-0.0241953
0.200255
-0.171839
0.112181
0.229227
-0.126076
-0.142414
0.0424462
-0.12623
0.148515
-0.0681023
0.146583
0.470229
-0.0309368
0.564318
0.342086
0.415318
-0.103232
0.618207
0.572152
0.65047
0.576979
0.492443
0.139228
0.307625
-0.187265
0.283905
-0.123804
-0.292255
0.242399
-0.299982
0.374132
0.301113
-0.104642
-0.0220591
0.339584
-0.0869239
0.422559
0.30469
-0.151667
0.103499
0.559956
0.267198
0.482117
0.651567
-0.150913
0.661529
-0.180007
0.219585
0.277833
0.140836
0.140515
0.101867
-0.138989
0.757882
0.0785855
0.0592035
-0.11329
0.0537737
-0.0870257
0.054982
0.0576991
0.0935968
0.110716
-0.129576
0.149167
-0.0430905
0.1395
-0.0416479
0.111877
-0.0557385
-0.0685579
0.110596
0.133828
-0.0718736
-0.128062
0.0801733
-0.0463749
-0.129576
0.0783364
-0.0233054
-0.0206406
0.126322
0.137141
-0.117712
-0.0761826
0.0994783
0.0165037
0.131118
-0.103281
0.15266
-0.0562212
-0.140997
0.0938046
-0.0100215
0.169428
-0.0732564
-0.0349393
0.000102861
-0.141167
0.0694195
-0.0575331
0.381538
-0.425924
0.593728
-0.173386
-0.212271
0.554699
0.661276
-0.464076
0.39702
-0.318077
0.453766
-0.389523
0.367472
-0.264324
0.00271069
-0.330058
0.083457
-0.294777
0.492173
0.259741
-0.442248
0.704392
-0.00640759
-0.245984
0.119405
0.231722
-0.246242
-0.10855
-0.104182
-0.215647
0.12699
-0.184897
0.160702
0.0573887
-0.0727157
-0.189756
0.06368
-0.14731
0.0222856
0.101326
0.439292
0.566871
-0.318961
0.734278
0.299246
0.207451
0.3647
0.274247
0.376224
-0.0204545
0.597433
0.504187
-0.0117448
-0.204188
0.343416
0.0153702
0.0966408
-0.284875
0.161071
0.0382105
0.0011309
0.254733
0.119399
-0.308089
0.203448
0.232674
0.25266
0.271646
-0.00339968
0.191749
-0.0084769
0.568433
-0.333428
0.600626
0.47364
0.512578
0.3281
-0.0652895
0.263153
-0.122316
0.243069
-0.102554
0.232538
-0.130671
0.407669
0.350213
0.131619
-0.0530338
0.142296
-0.0830924
0.131569
-0.0777954
0.0621415
0.133543
-0.0785612
0.11854
-0.0608406
0.103837
-0.0102402
0.105252
0.00546417
-0.0176987
0.0964095
0.0636041
0.0778047
0.06527
-0.0189809
-0.136297
0.0644232
-0.0561235
0.0907666
0.123773
-0.0454362
0.108314
-0.116915
0.0962745
0.0501399
-0.0182336
-0.103969
0.120473
0.0271494
0.0493791
-0.11531
0.059089
0.138059
-0.044254
-0.117567
0.107545
0.0710187
-0.144275
0.0893127
-0.124252
-0.122566
0.122669
-0.0531464
0.0805254
0.559639
-0.178102
0.235351
0.381457
0.386253
0.11245
-0.0670558
0.135689
-0.0220503
-0.230521
-0.0338026
-0.227811
0.314318
-0.230861
-0.0630549
0.471719
0.598715
-0.338973
0.756681
-0.0522893
-0.234593
0.228185
-0.115188
-0.0180573
-0.259447
0.150897
-0.223843
0.119661
-0.0549449
-0.132456
-0.145779
0.203167
-0.181293
0.108578
0.208271
-0.144591
-0.1374
-0.00990948
-0.115115
-0.0137891
0.646743
-0.252979
0.819849
0.195384
0.538894
0.803434
0.638947
0.571608
0.585688
0.234166
-0.218796
0.220673
-0.124032
0.254526
-0.0934551
-0.254653
0.292864
-0.251099
0.25223
0.267854
-0.148456
-0.0476517
-0.0657557
0.29843
-0.087901
0.340561
-0.248359
0.520005
-0.257104
0.253704
-0.0653544
0.0780081
0.490425
0.111701
0.488925
0.585341
0.590586
-0.25512
0.58322
0.167248
0.245184
-0.09762
0.132482
0.120752
0.14263
0.416387
-0.335664
0.685877
0.089262
0.0484767
-0.122783
0.0449879
-0.0606418
0.0399785
0.0429965
-0.106842
0.0966015
-0.093586
0.0990502
-0.0854436
0.0677449
0.100746
-0.004336
-0.0756963
0.1393
-0.00763892
0.107732
-0.0424625
0.0887516
0.148504
-0.0840811
-0.101494
0.04537
-0.010727
0.0169309
-0.10925
0.0638141
-0.00860115
-0.0190357
0.106877
0.0989124
-0.0487725
0.0806788
0.00290567
0.117382
-0.0902326
0.135575
-0.0861959
0.130608
-0.0715188
-0.114014
0.06976
-0.00646853
-0.0575605
0.128579
-0.0549623
-0.183181
0.0589294
-0.0605127
-0.142705
0.0895582
-0.0621792
-0.491668
0.313566
-0.256316
0.484218
-0.10276
0.642952
-0.256699
0.596668
-0.42751
0.360454
-0.291821
0.31043
-0.33248
0.261345
-0.295148
0.0865075
0.122595
-0.353457
0.207041
-0.270096
-0.127197
0.598915
0.471518
0.417707
-0.492823
0.440533
-0.222232
0.107045
0.177351
-0.195409
-0.0729461
-0.102571
-0.218479
0.163534
-0.15546
0.0230041
0.0624928
0.0218739
-0.109902
0.0143947
-0.158986
0.126158
-0.136068
-0.134541
0.120752
0.393765
0.60155
0.218299
0.122373
0.416521
0.509226
0.294208
0.306612
0.332335
0.259618
0.31199
-0.103413
0.689101
-0.0204874
0.00187742
0.130494
-0.24668
0.153225
0.25546
0.0374035
0.336755
-0.084525
0.202099
0.1883
-0.212612
0.16496
0.210529
0.0922018
0.264885
0.0410919
0.190106
0.0692882
0.421137
-0.0797336
0.568659
0.654629
0.254922
0.408484
0.174736
-0.0794315
0.151928
0.256181
-0.1237
0.219049
-0.0982971
0.236766
-0.0941357
0.428544
0.344812
0.341065
0.116073
-0.0268111
0.128887
-0.0804105
0.118995
-0.0740072
0.0401037
-0.0828353
0.122814
-0.0648606
0.107857
0.0317409
-0.124684
0.0310985
0.0233539
-0.0569396
-0.0827238
0.0783877
0.0565766
-0.101512
0.0938732
0.106042
-0.0204986
-0.112315
0.0282343
-0.0669454
0.0870809
-0.0978078
-0.11297
0.129901
-0.0491555
-0.0905807
0.0819795
0.103551
-0.122587
0.0581045
0.133852
-0.0531731
-0.0893519
0.0922575
0.0280302
0.0453423
0.0444119
0.0320325
0.133527
-0.0637675
-0.11608
0.109611
-0.131716
0.0741558
-0.00596223
-0.132066
0.0771034
-0.0731363
-0.149825
0.0893122
-0.0602667
0.0713483
0.586555
-0.272989
-0.485742
0.229426
0.540192
0.329857
0.103845
0.49758
-0.137125
-0.428551
0.13673
-0.11812
-0.0711353
-0.20864
0.311003
-0.188407
-0.146415
-0.0927447
0.495503
-0.162273
0.633791
0.75604
-0.338333
0.597467
-0.156934
0.259702
-0.152658
0.0642937
0.145483
-0.218429
-0.175401
0.0728294
0.00807408
0.199091
-0.176087
0.167441
-0.104949
0.164363
-0.142489
0.0544612
-0.1276
0.141995
-0.0328278
-0.0153155
0.700377
0.603859
-0.371692
0.589991
0.631599
0.67614
-0.296552
0.590759
0.644324
0.392549
-0.222149
0.201661
-0.190602
0.19248
-0.0601086
0.239033
-0.085808
-0.14239
0.179793
-0.287419
0.202894
-0.0762627
0.278361
0.308107
-0.119808
-0.122458
0.286619
-0.0760902
0.378821
-0.215834
0.48072
0.220851
-0.179759
0.236109
-0.0460026
0.676059
0.328751
0.0408519
0.527807
0.125883
0.528746
-0.21346
0.388196
0.17675
0.0232486
0.173626
0.222818
-0.0708901
0.0953498
0.138469
0.128682
0.773356
-0.394526
0.735591
0.0254925
-0.113147
0.0863356
0.0157405
0.0385845
-0.124284
0.0502767
-0.0841801
0.0250218
0.0213017
-0.0641136
0.0958546
-0.0685997
0.0996982
-0.0879939
0.111348
0.0369336
-0.00579236
0.0868387
-0.030262
0.0976294
0.00841232
0.0771308
-0.0823121
0.110546
0.0201355
0.036044
0.0657869
-0.0666925
0.017537
-0.0406075
-0.0694815
0.127586
0.0238999
0.0744129
-0.0238222
0.120987
-0.0929573
0.100611
-0.0552683
0.136268
-0.0918562
0.107581
-0.0755481
0.0458437
-0.0546129
0.117996
-0.0438398
0.112033
-0.148318
0.0751815
-0.0590055
-0.15553
0.0952635
-0.0841819
-0.512219
0.23923
0.0118377
-0.282793
0.578736
-0.0385442
0.65471
-0.324854
0.682581
0.26029
-0.397415
0.482261
-0.345531
0.285242
-0.403362
0.236596
-0.307731
0.102362
-0.306487
0.11808
0.120816
-0.267232
-0.213204
0.12046
-0.11878
0.614282
0.593767
0.515012
0.259134
0.525647
-0.213967
0.0613094
-0.148911
-0.0299178
-0.0193376
-0.141138
-0.168013
0.0249522
-0.181095
0.0761468
0.221638
-0.167176
-0.106898
-0.0207023
-0.0391007
-0.139725
-0.13185
0.116534
0.328685
0.0083679
0.595491
0.582852
0.00713924
0.48179
0.149809
0.280409
0.395731
0.497921
0.0928384
0.302639
0.341686
-0.164693
0.557242
-0.0296689
0.255854
-0.0541924
0.178924
-0.197131
0.111323
0.113464
0.204592
-0.024799
0.270962
-0.0680683
0.231845
0.202271
0.151154
0.0983923
0.372829
0.00599148
0.156995
0.267259
0.0563499
0.15859
0.281532
0.423222
-0.094471
0.464074
0.65369
0.810278
0.293725
-0.0203816
0.153299
0.102736
-0.0990767
0.194426
0.216327
-0.0778576
0.234383
-0.105701
0.52403
0.249326
0.422722
0.312869
-0.0836317
0.109124
0.00270386
0.0997322
-0.0839917
0.107707
-0.0691226
0.109337
-0.0590605
-0.0796469
0.104669
-0.0933763
0.114678
0.0162077
-0.102211
0.0336111
0.0117043
0.101104
0.0102436
-0.0652772
0.0810463
0.0708422
-0.0836624
0.0920747
0.0104383
-0.0993245
0.0170124
0.127434
-0.0168879
-0.079189
0.0938546
-0.0578106
0.0845643
-0.0187774
-0.0764597
0.0939967
0.0685167
-0.0850337
0.108934
0.113344
-0.0389308
0.0971653
0.00765332
0.0809998
0.0157245
-0.120248
0.0447004
0.109748
-0.063904
-0.131902
0.0772893
-0.132949
0.089109
-0.0198165
-0.0567207
-0.145915
0.086909
-0.050651
0.0255658
0.499217
-0.259987
0.425548
-0.41371
0.142754
-0.4597
0.421156
0.19501
0.174363
-0.15342
0.0848451
-0.060289
-0.166766
-0.254784
-0.0529468
-0.152422
-0.185671
0.314489
-0.196409
-0.146772
0.449589
0.0282631
0.565504
-0.0347835
0.549795
-0.45077
0.709904
0.0748776
0.251252
-0.189943
0.102342
0.148099
-0.178017
0.18265
-0.201988
0.00696135
0.0536242
0.157878
-0.132926
0.14206
-0.0659131
-0.00929793
-0.140296
0.119594
-0.152135
0.113034
-0.0231911
0.631323
0.59122
0.597502
0.638462
0.762199
0.64773
0.737417
0.650081
-0.208727
0.179059
-0.211989
0.157797
-0.0298034
-0.12506
0.236383
0.180146
-0.0666821
0.155347
-0.20863
0.140562
0.0115964
0.220248
-0.0938913
0.296162
-0.144009
0.295164
0.251857
-0.153465
-0.304224
0.310215
-0.210769
0.367764
-0.145611
0.41287
-0.186971
0.243321
-0.0283817
-0.197196
0.66127
-0.0976743
0.751365
0.399231
0.411048
-0.15507
0.448795
-0.213578
0.193197
0.121016
0.032283
0.223751
0.11725
-0.0191516
0.156526
0.118051
0.533827
0.672048
0.7121
-0.0794984
0.0822023
0.0202338
0.0237154
0.0402146
-0.118222
0.0591617
0.0112924
0.0494008
0.100772
0.0828265
-0.0492155
-0.0829422
0.0946464
-0.0989447
0.109188
-0.0371759
-0.0348936
0.105736
0.0437719
0.0660214
0.0260533
0.0843726
-0.0673603
-0.0935269
0.076639
0.0146656
0.0555331
-0.100139
0.0813619
0.107119
-0.0131223
-0.0517318
0.0242308
0.0966105
0.0123231
0.0576797
0.104462
-0.00729686
-0.0688346
0.0764879
0.0121652
-0.0733698
0.0890943
0.105673
-0.0609723
0.0405582
-0.0556595
0.142744
-0.0536354
0.122928
-0.136428
0.0797068
-0.0495186
0.0963848
-0.147036
0.099388
-0.0738222
-0.410103
0.150116
-0.267349
0.576882
-0.155727
0.525712
-0.330702
0.484054
-0.30969
-0.307985
0.154565
-0.22314
-0.266399
0.20611
-0.262251
0.095485
0.182794
-0.235741
0.162067
0.0920643
-0.277735
-0.277463
0.081054
-0.211671
0.0648989
-0.236691
0.686281
-0.663617
0.69188
0.530721
0.313104
0.0462874
-0.573701
0.648578
-0.174639
-0.0153043
-0.109329
0.00463354
-0.213461
0.0114728
-0.167677
-0.159837
0.00913377
-0.161392
0.0954793
0.145991
-0.155289
-0.110966
-0.0293304
-0.032541
-0.0483582
-0.134157
0.0575291
0.533691
-0.0975108
0.695012
0.560159
0.078303
0.311092
0.451107
0.657518
-0.00978787
0.469373
0.268044
0.476146
0.173934
-0.0329307
0.208706
-0.0509094
-0.166383
0.136579
0.0681364
0.0700005
0.142024
0.193146
-0.0377984
0.043227
0.258441
-0.117879
-0.196403
0.207999
0.126357
-0.00806121
0.114431
0.098761
0.0898562
0.0994458
0.384524
-0.0167594
0.238913
0.2578
0.164764
0.251599
0.563596
0.185935
0.56543
0.596982
0.165376
-0.0566319
0.197659
0.163737
-0.0464872
0.144586
0.181656
-0.0251301
-0.0629616
0.181012
-0.2707
0.804527
0.401348
0.361939
0.35016
0.117724
-0.0355219
0.0996553
-0.0794215
0.0934282
-0.0697128
0.0997298
-0.0595152
0.0998493
-0.0406876
-0.0712211
0.0825134
0.10026
-0.050859
0.0295509
-0.00011564
0.0510443
-0.00429824
0.0742946
0.0685599
0.0892001
-0.0454282
-0.0769109
0.102964
-0.00915427
-0.116557
0.0491968
0.0995138
-0.0228748
-0.101891
-0.0463584
0.00697968
0.093507
-0.0121451
-0.0937391
0.0806167
0.0659924
0.102265
-0.0784069
0.09073
0.106279
-0.0485993
0.0943377
-0.101635
0.124438
-0.0479498
0.0886238
-0.0764586
0.0323029
0.128289
-0.0391948
-0.111421
0.0504483
0.109247
-0.0686892
-0.129204
0.0735441
-0.126029
0.0723933
-0.0112288
-0.0494968
-0.127155
0.0776361
-0.0307699
-0.0476478
0.0354252
0.444976
-0.29486
-0.429938
0.16259
0.00318133
0.369986
0.153352
0.135286
-0.275373
-0.322702
0.0995624
-0.303629
0.03723
-0.116592
-0.0794573
-0.208144
-0.0736737
-0.185399
-0.212836
-0.177035
0.258089
0.409177
0.277104
0.433707
0.258173
0.392307
0.138414
0.705411
-0.447539
0.493827
0.201039
0.183403
-0.198708
0.169352
-0.278681
0.167322
-0.162688
0.218962
-0.207489
-0.000355448
-0.18492
0.0250839
-0.128757
0.137891
-0.0332781
-0.0389297
-0.0173974
-0.132215
0.102884
-0.140851
0.10831
-0.152218
0.10386
0.617688
0.43618
0.696719
0.547676
0.579136
-0.172616
0.623722
0.484902
0.466359
0.583111
-0.21147
0.178539
-0.175085
0.124176
-0.0748902
-0.150041
0.218178
0.180385
-0.110384
0.212516
-0.070492
0.174718
0.200605
-0.157378
0.0827261
0.118776
0.0892232
0.245133
0.237072
-0.160087
0.274518
-0.141096
0.239857
0.225803
-0.135946
0.264842
-0.165396
-0.281481
0.264722
-0.165957
0.404871
-0.116155
0.373955
0.220127
-0.0553628
-0.266564