/*--------------------------------*- C++ -*----------------------------------*\
| =========                 |                                                 |
| \\      /  F ield         | OpenFOAM: The Open Source CFD Toolbox           |
|  \\    /   O peration     | Version:  v2012                                 |
|   \\  /    A nd           | Website:  www.openfoam.com                      |
|    \\/     M anipulation  |                                                 |
\*---------------------------------------------------------------------------*/
FoamFile
{
    version     2.0;
    format      ascii;
    class       volVectorField;
    location    "0.8";
    object      U;
}
// * * * * * * * * * * * * * * * * * * * * * * * * * * * * * * * * * * * * * //

dimensions      [0 1 -1 0 0 0 0];


internalField   nonuniform List<vector> 
13611
(
(8.09621 -0.0458091 0)
(8.13541 -0.0376974 0)
(8.13673 -0.17347 0)
(8.1702 -0.0824687 1.04865e-23)
(8.19022 -0.0788145 -5.70611e-23)
(8.19548 -0.0833624 5.4606e-24)
(8.11477 -0.059348 1.76588e-22)
(8.17408 -0.121316 -1.13146e-22)
(8.22469 -0.0838832 1.45287e-24)
(8.19238 -0.086593 -2.25147e-23)
(8.19294 -0.0953013 3.00211e-23)
(8.09534 -0.051722 -1.08337e-22)
(8.16519 -0.092094 -9.99486e-23)
(8.18672 -0.203313 -2.5263e-22)
(8.22125 -0.0939374 4.17962e-24)
(8.19276 -0.0884275 -5.02092e-24)
(8.20282 -0.101784 -3.06725e-23)
(8.18693 -0.0945128 3.32954e-23)
(8.1019 -0.0341652 6.83768e-23)
(8.16465 -0.0993184 1.45223e-23)
(8.19015 -0.130567 5.53675e-23)
(8.23937 -0.097289 0)
(8.23237 -0.102995 0)
(8.21602 -0.101173 -3.82603e-23)
(8.19953 -0.111246 1.7887e-23)
(8.18048 -0.106794 -3.22227e-23)
(8.12272 -0.0753668 1.59115e-22)
(8.16473 -0.104806 -3.58478e-23)
(8.15681 -0.160039 -1.20744e-22)
(8.24674 -0.102591 6.39343e-24)
(8.23043 -0.114205 -2.80608e-23)
(8.22168 -0.114978 -2.78502e-23)
(8.20737 -0.123309 -2.10389e-23)
(8.18628 -0.11445 2.09103e-23)
(8.17084 -0.109612 -3.13993e-23)
(8.11354 -0.0851117 5.53665e-23)
(8.14597 -0.103494 -1.04701e-23)
(8.17696 -0.129954 9.38386e-23)
(8.24606 -0.111918 1.12401e-24)
(8.23248 -0.12381 -3.00987e-23)
(8.21675 -0.124316 -1.5308e-23)
(8.20112 -0.130733 -3.97963e-24)
(8.18722 -0.125827 0)
(8.16803 -0.123781 1.23054e-23)
(8.09248 -0.0989648 -2.13267e-23)
(8.14717 -0.10957 1.27597e-23)
(8.11936 -0.188198 0)
(8.1153 -0.0988433 -2.37825e-23)
(8.24029 -0.122773 -3.31783e-23)
(8.25588 -0.114575 -3.44649e-24)
(8.22655 -0.133714 -6.68549e-24)
(8.21724 -0.133468 5.45965e-24)
(8.1989 -0.138415 1.29178e-23)
(8.18062 -0.13204 0)
(8.17263 -0.132139 9.61503e-24)
(8.15863 -0.126134 1.88617e-23)
(8.12046 -0.115258 0)
(8.14993 -0.119847 2.92143e-23)
(8.13868 -0.134044 0)
(8.13499 -0.0875081 6.83079e-26)
(8.24762 -0.132367 7.26123e-24)
(8.2571 -0.128054 1.06205e-23)
(8.22719 -0.144273 9.81009e-24)
(8.21072 -0.14321 -2.47369e-25)
(8.27464 -0.123195 -2.08243e-24)
(8.19198 -0.14546 4.70134e-24)
(8.20402 -0.14387 1.23887e-23)
(8.18352 -0.143561 0)
(8.16862 -0.140638 4.1356e-24)
(8.15456 -0.137513 -2.02141e-23)
(8.11641 -0.120774 0)
(8.1425 -0.123589 1.11427e-23)
(8.07061 -0.188545 -2.23304e-22)
(8.12582 -0.110848 0)
(8.24524 -0.144328 0)
(8.2654 -0.131081 0)
(8.2204 -0.152789 1.59973e-23)
(8.23645 -0.148663 1.53658e-23)
(8.21207 -0.15319 1.40494e-23)
(8.19194 -0.153955 0)
(8.19889 -0.153169 6.88799e-24)
(8.17771 -0.152555 -2.0449e-23)
(8.15997 -0.143423 -2.44033e-23)
(8.17096 -0.151445 -1.96838e-23)
(8.14597 -0.140585 7.07598e-24)
(8.12305 -0.121851 0)
(8.14042 -0.135358 2.1089e-24)
(8.08789 -0.170596 2.25367e-22)
(8.13043 -0.112516 -1.28459e-23)
(8.25512 -0.154833 2.75831e-24)
(8.26745 -0.139955 0)
(8.22424 -0.162447 0)
(8.23385 -0.160874 1.57661e-24)
(8.20784 -0.161963 -3.92163e-25)
(8.28325 -0.140604 0)
(8.18625 -0.161633 -1.23405e-23)
(8.19944 -0.160636 -7.21816e-24)
(8.17886 -0.161298 -2.39514e-25)
(8.15702 -0.15241 0)
(8.16456 -0.15754 0)
(8.14128 -0.149935 1.59519e-23)
(8.11833 -0.117474 3.00746e-23)
(8.13312 -0.139246 0)
(8.08929 -0.10625 -3.35395e-22)
(8.13486 -0.118893 -6.37653e-23)
(8.26563 -0.151626 -9.44686e-24)
(8.25327 -0.168199 3.6797e-24)
(8.21766 -0.172857 -2.47169e-24)
(8.24074 -0.170222 0)
(8.20999 -0.173293 -4.10789e-25)
(8.2909 -0.149858 7.40574e-25)
(8.30259 -0.151007 1.72571e-24)
(8.18675 -0.171012 -1.69512e-24)
(8.19476 -0.170518 -8.69752e-24)
(8.17342 -0.167767 1.20966e-23)
(8.1502 -0.160003 0)
(8.16135 -0.166889 1.59342e-23)
(8.14393 -0.159187 7.44533e-24)
(8.13325 -0.152832 -6.25242e-24)
(8.10993 -0.120992 1.02662e-23)
(8.12441 -0.134326 0)
(8.12621 -0.147474 -4.55775e-23)
(8.09563 -0.185599 2.87256e-22)
(8.11291 -0.0816868 -7.52874e-23)
(8.1427 -0.121181 0)
(8.28046 -0.158593 -9.54991e-24)
(8.26306 -0.178185 -6.97367e-24)
(8.22175 -0.179976 -1.47615e-23)
(8.23525 -0.178498 -8.26782e-24)
(8.20231 -0.178478 0)
(8.30748 -0.164579 1.16133e-23)
(8.18103 -0.177971 -1.08013e-23)
(8.17473 -0.176504 -1.18038e-23)
(8.16529 -0.170663 1.72539e-23)
(8.1524 -0.169281 -9.28853e-24)
(8.13633 -0.16618 -4.48134e-25)
(8.13023 -0.162874 0)
(8.1049 -0.121313 -1.87137e-23)
(8.11889 -0.137199 1.93848e-23)
(8.11828 -0.153166 -2.45186e-23)
(8.11107 -0.132885 0)
(8.10038 -0.0968577 0)
(8.1279 -0.12185 0)
(8.28432 -0.169718 4.28264e-24)
(8.25876 -0.187965 -1.24499e-23)
(8.27695 -0.178203 -6.10919e-24)
(8.22001 -0.188771 -1.05717e-23)
(8.24056 -0.187602 0)
(8.19862 -0.185927 1.76992e-24)
(8.29956 -0.172997 1.07425e-23)
(8.32021 -0.1679 1.5093e-23)
(8.18159 -0.186939 5.43549e-24)
(8.16849 -0.182135 -5.99921e-24)
(8.16083 -0.178278 3.84491e-24)
(8.14625 -0.177586 -1.03303e-23)
(8.13325 -0.173146 1.59045e-23)
(8.12271 -0.166005 0)
(8.09398 -0.12192 -6.67086e-25)
(8.10703 -0.130541 1.83913e-23)
(8.10972 -0.143907 1.42497e-23)
(8.11779 -0.162751 1.37201e-23)
(8.11151 -0.151747 1.17169e-23)
(8.08449 -0.174784 0)
(8.08807 -0.069974 0)
(8.12409 -0.123639 0)
(8.24968 -0.191089 -4.40091e-24)
(8.26665 -0.198891 0)
(8.28366 -0.190507 1.61149e-23)
(8.21284 -0.195351 -5.71431e-24)
(8.23277 -0.193765 -1.26618e-24)
(8.18929 -0.190134 1.84855e-24)
(8.20475 -0.193426 4.42641e-24)
(8.30389 -0.185657 1.20477e-23)
(8.32442 -0.179376 3.45736e-24)
(8.17419 -0.191844 4.85576e-24)
(8.16802 -0.189472 4.41828e-25)
(8.15537 -0.185465 8.90917e-24)
(8.13901 -0.178876 1.91115e-23)
(8.14849 -0.185649 -5.53954e-24)
(8.12344 -0.17928 -4.31081e-24)
(8.11766 -0.17605 1.87461e-23)
(8.10656 -0.126456 5.81343e-24)
(8.09959 -0.131778 0)
(8.09868 -0.146721 1.89708e-24)
(8.11157 -0.167064 1.49149e-23)
(8.10273 -0.159096 6.77082e-24)
(8.08907 -0.129135 1.95388e-23)
(8.08427 -0.0831028 3.24797e-23)
(8.25054 -0.205503 -1.0069e-23)
(8.27733 -0.199547 5.98234e-24)
(8.25971 -0.209158 -1.09495e-23)
(8.29607 -0.193257 1.04907e-23)
(8.21698 -0.206043 0)
(8.23428 -0.203009 1.21996e-24)
(8.19026 -0.201134 -1.6793e-23)
(8.19921 -0.202857 -1.30592e-23)
(8.31666 -0.188927 1.5121e-23)
(8.33659 -0.180267 -2.81904e-24)
(8.17504 -0.201249 -1.25132e-23)
(8.15926 -0.192946 -1.01059e-24)
(8.13324 -0.187652 1.08843e-23)
(8.14331 -0.194353 -6.18377e-24)
(8.1239 -0.187231 -3.99243e-24)
(8.111 -0.178639 1.05256e-23)
(8.10534 -0.12116 -2.41168e-23)
(8.09352 -0.126045 0)
(8.09374 -0.141059 0)
(8.09485 -0.155676 3.10624e-23)
(8.10315 -0.164911 5.05693e-24)
(8.1087 -0.174506 0)
(8.07937 -0.0705228 1.99207e-23)
(8.05917 -0.169083 0)
(8.10045 -0.114846 0)
(8.24431 -0.209569 -1.81323e-24)
(8.28072 -0.210159 0)
(8.26388 -0.216861 0)
(8.29886 -0.206966 1.14384e-23)
(8.21276 -0.21325 -2.01811e-25)
(8.22688 -0.207555 3.83379e-25)
(8.18305 -0.206234 -1.15109e-23)
(8.203 -0.212019 -7.57961e-25)
(8.31963 -0.201614 0)
(8.34089 -0.193157 0)
(8.16729 -0.205637 -1.34128e-23)
(8.15829 -0.200688 -1.41549e-23)
(8.13505 -0.19404 4.84639e-24)
(8.14532 -0.201271 0)
(8.11819 -0.194228 0)
(8.10367 -0.185714 -1.89953e-24)
(8.0968 -0.120717 -1.7543e-23)
(8.08545 -0.129755 -1.0604e-23)
(8.08397 -0.14333 0)
(8.08478 -0.160854 2.41517e-23)
(8.0963 -0.17092 0)
(8.09962 -0.177314 0)
(8.08034 -0.088187 -2.54838e-23)
(8.0725 -0.11112 -3.99313e-23)
(8.09205 -0.10836 0)
(8.24061 -0.219281 -2.64715e-24)
(8.27462 -0.217132 0)
(8.29167 -0.213329 0)
(8.25881 -0.225122 0)
(8.31032 -0.211162 1.22022e-23)
(8.21567 -0.221798 -8.59708e-24)
(8.23041 -0.217743 6.29845e-25)
(8.18228 -0.21616 0)
(8.19757 -0.217969 2.20012e-24)
(8.33225 -0.203774 -4.83498e-24)
(8.16713 -0.213636 -3.73664e-25)
(8.15261 -0.203951 -2.39916e-25)
(8.13055 -0.201494 0)
(8.14238 -0.209539 4.74792e-24)
(8.11208 -0.194705 0)
(8.12312 -0.201845 0)
(8.10607 -0.190914 0)
(8.09549 -0.183173 2.35153e-23)
(8.09182 -0.111326 3.89279e-24)
(8.07889 -0.126177 -1.19068e-23)
(8.08058 -0.138533 0)
(8.07671 -0.15135 -5.53301e-24)
(8.07776 -0.158549 -8.18284e-24)
(8.08215 -0.169721 0)
(8.08774 -0.173459 0)
(8.07494 -0.0640021 0)
(8.08614 -0.106326 -1.88363e-24)
(8.04523 -0.147599 1.3639e-22)
(8.24311 -0.226522 6.77748e-24)
(8.2784 -0.225968 -3.18343e-24)
(8.28893 -0.225375 -2.7852e-24)
(8.26398 -0.234944 0)
(8.25112 -0.229631 0)
(8.31309 -0.222524 1.28918e-23)
(8.22407 -0.224068 -8.52285e-24)
(8.20977 -0.228482 0)
(8.17484 -0.218986 0)
(8.18964 -0.220956 1.92332e-24)
(8.20218 -0.227284 0)
(8.33279 -0.214396 -2.62317e-24)
(8.16017 -0.218767 1.00877e-24)
(8.15402 -0.215366 4.27394e-26)
(8.13447 -0.209391 0)
(8.14779 -0.217721 4.26022e-24)
(8.10968 -0.203754 -3.04485e-24)
(8.11969 -0.210296 6.2201e-24)
(8.09989 -0.197214 -3.45903e-24)
(8.0885 -0.186241 2.17725e-23)
(8.0857 -0.109968 -9.49933e-24)
(8.07818 -0.118775 -1.65417e-24)
(8.06926 -0.132203 0)
(8.06982 -0.139625 0)
(8.06637 -0.152187 -1.4333e-23)
(8.06679 -0.163579 -4.58704e-24)
(8.07407 -0.173803 0)
(8.08187 -0.182379 4.51875e-24)
(8.06873 -0.0831906 1.27968e-23)
(8.07632 -0.109159 -8.27176e-24)
(8.04845 -0.134465 1.42266e-24)
(8.23506 -0.233911 7.13785e-24)
(8.27261 -0.234303 0)
(8.29438 -0.233041 0)
(8.25772 -0.244422 -1.14946e-23)
(8.25003 -0.24266 -1.16178e-23)
(8.3064 -0.2329 1.50112e-24)
(8.32456 -0.223945 1.42915e-23)
(8.22585 -0.23228 4.16e-25)
(8.21146 -0.237107 0)
(8.17237 -0.227401 -6.44352e-24)
(8.18929 -0.230064 -2.09608e-25)
(8.19667 -0.233223 0)
(8.34465 -0.219806 0)
(8.35495 -0.216676 -4.36923e-24)
(8.16247 -0.226015 -1.32021e-24)
(8.13073 -0.217671 -1.72241e-24)
(8.14452 -0.22545 -5.28661e-25)
(8.10281 -0.204561 -6.98831e-24)
(8.11285 -0.210226 2.22044e-24)
(8.12322 -0.217381 5.84917e-24)
(8.09369 -0.197086 0)
(8.08855 -0.192298 0)
(8.08097 -0.105568 3.64926e-23)
(8.06685 -0.117038 0)
(8.05924 -0.132146 6.74749e-24)
(8.06289 -0.145844 -4.31467e-23)
(8.06044 -0.159549 -1.83271e-24)
(8.06601 -0.16977 3.21384e-24)
(8.06925 -0.181977 5.58716e-24)
(8.07461 -0.18603 -4.40915e-24)
(8.06411 -0.0791971 -1.68152e-23)
(8.04212 -0.0798016 -2.56982e-22)
(8.23487 -0.244726 0)
(8.27803 -0.243965 0)
(8.28817 -0.243289 0)
(8.26124 -0.251091 -5.35584e-24)
(8.24269 -0.248546 0)
(8.31057 -0.244726 9.56098e-24)
(8.33001 -0.232315 4.25517e-24)
(8.2188 -0.239066 -2.22317e-26)
(8.20442 -0.243719 -9.12202e-24)
(8.17627 -0.233229 -3.09206e-24)
(8.18383 -0.235223 0)
(8.19725 -0.240995 -1.6839e-23)
(8.3438 -0.231934 3.4368e-24)
(8.36578 -0.228389 -3.56072e-24)
(8.1584 -0.233592 0)
(8.13487 -0.225497 -4.75655e-24)
(8.14875 -0.231978 2.38207e-24)
(8.09841 -0.210966 -5.83728e-24)
(8.10843 -0.21765 -4.24175e-24)
(8.1189 -0.22521 3.79138e-24)
(8.08935 -0.204585 0)
(8.08249 -0.196469 0)
(8.07707 -0.103835 2.44723e-23)
(8.05816 -0.123936 6.38247e-24)
(8.06583 -0.110215 -9.65276e-25)
(8.0493 -0.139617 -3.13501e-23)
(8.05196 -0.14667 -3.2312e-23)
(8.04889 -0.161931 0)
(8.05602 -0.176589 4.15106e-24)
(8.05976 -0.184233 8.48655e-24)
(8.07541 -0.193143 -9.59177e-24)
(8.07757 -0.0844108 0)
(8.05498 -0.130927 1.95352e-22)
(8.05782 -0.0537905 -8.05203e-23)
(8.22619 -0.251258 1.0778e-23)
(8.27299 -0.251848 0)
(8.29368 -0.251144 0)
(8.25724 -0.259319 -4.17812e-24)
(8.24126 -0.258114 0)
(8.32046 -0.249406 5.58574e-24)
(8.30546 -0.251371 4.28926e-24)
(8.32845 -0.245231 4.36838e-25)
(8.21821 -0.249013 1.00476e-23)
(8.20393 -0.252015 -8.97435e-24)
(8.17139 -0.242604 -7.48966e-24)
(8.18408 -0.243941 0)
(8.18977 -0.246193 -7.29955e-24)
(8.35119 -0.242609 0)
(8.36216 -0.241708 -4.37738e-24)
(8.16409 -0.243531 0)
(8.15276 -0.233421 8.51822e-25)
(8.13031 -0.230868 -1.38318e-24)
(8.14377 -0.238347 -9.08178e-24)
(8.09126 -0.210004 0)
(8.10115 -0.217158 -6.26789e-24)
(8.11127 -0.225043 0)
(8.12275 -0.231303 -1.59151e-24)
(8.08238 -0.203165 0)
(8.07821 -0.0963506 -1.32495e-23)
(8.0458 -0.124707 -1.20525e-25)
(8.05909 -0.107168 0)
(8.03809 -0.140069 -3.1061e-23)
(8.04347 -0.155549 0)
(8.04382 -0.168431 0)
(8.0495 -0.175514 0)
(8.05827 -0.189236 -9.77521e-24)
(8.0688 -0.198436 -9.12061e-24)
(8.07808 -0.0933189 -7.82659e-25)
(8.05806 -0.0959185 8.58736e-23)
(8.04556 -0.0645606 9.41257e-23)
(8.22563 -0.259108 -1.39367e-24)
(8.27525 -0.261935 2.24532e-24)
(8.29139 -0.262183 0)
(8.24853 -0.263123 0)
(8.26597 -0.266275 2.70334e-24)
(8.23376 -0.262426 -4.78444e-24)
(8.31857 -0.262228 -2.69843e-24)
(8.30977 -0.262556 0)
(8.34184 -0.253282 -2.59504e-24)
(8.21083 -0.254749 -8.89033e-24)
(8.19645 -0.257602 -9.28511e-24)
(8.17577 -0.249174 -7.48866e-24)
(8.189 -0.254811 -1.34156e-23)
(8.37219 -0.251502 1.34683e-23)
(8.15827 -0.253026 -5.26344e-24)
(8.1481 -0.242198 -3.85173e-24)
(8.13157 -0.239182 5.2558e-24)
(8.13733 -0.242128 -3.1268e-25)
(8.08677 -0.216153 0)
(8.09681 -0.223524 0)
(8.10667 -0.23152 -2.35268e-24)
(8.12001 -0.23663 7.30358e-24)
(8.07709 -0.207976 3.78472e-24)
(8.06781 -0.0940195 0)
(8.04229 -0.117449 -1.17831e-25)
(8.03431 -0.133029 0)
(8.06005 -0.0992473 -2.39887e-23)
(8.04806 -0.110254 -4.24386e-24)
(8.02938 -0.147946 0)
(8.03366 -0.1552 0)
(8.03753 -0.171471 1.08103e-23)
(8.04524 -0.181571 -1.74838e-24)
(8.0519 -0.191897 -1.21178e-23)
(8.06343 -0.196862 3.98932e-24)
(8.07027 -0.206129 4.59405e-24)
(8.0716 -0.0831735 0)
(8.0294 -0.0526641 -1.44986e-23)
(8.04175 -0.120628 5.06768e-23)
(8.06458 -0.0851095 -1.07537e-23)
(8.22467 0.0811339 4.12324e-24)
(8.17603 0.100928 0)
(8.21866 -0.266963 1.48062e-23)
(8.28274 -0.266124 3.54398e-25)
(8.30127 -0.269565 0)
(8.24816 -0.27355 2.25999e-24)
(8.26549 -0.276173 0)
(8.23242 -0.273389 0)
(8.32652 -0.268948 -1.92959e-24)
(8.34549 -0.263062 -1.46806e-23)
(8.21089 -0.264704 9.98626e-24)
(8.19616 -0.266375 -4.1802e-24)
(8.1741 -0.256282 7.68794e-24)
(8.18156 -0.259902 -3.80806e-24)
(8.38648 -0.248805 5.90272e-24)
(8.36575 -0.260699 7.03076e-24)
(8.15096 -0.251039 -6.64349e-25)
(8.15997 -0.258484 -1.82861e-24)
(8.12642 -0.241855 0)
(8.13819 -0.25116 0)
(8.07911 -0.214869 4.34068e-24)
(8.08965 -0.222736 0)
(8.09955 -0.230266 -5.06542e-24)
(8.10862 -0.238571 -3.5143e-24)
(8.11462 -0.24019 4.82139e-24)
(8.06628 -0.0864182 2.54632e-23)
(8.02758 -0.118014 4.58229e-24)
(8.02373 -0.132957 -9.99961e-25)
(8.04898 -0.0974259 -2.06742e-23)
(8.04212 -0.103659 3.12279e-23)
(8.01961 -0.147998 0)
(8.02831 -0.161676 0)
(8.03886 -0.17971 0)
(8.0313 -0.168782 9.01781e-24)
(8.04608 -0.187934 -1.12861e-24)
(8.05172 -0.200112 5.28407e-24)
(8.05818 -0.202779 2.56228e-24)
(8.0657 -0.212234 4.84578e-24)
(8.03515 -0.0414874 6.16531e-23)
(8.03844 -0.0833186 -1.05799e-22)
(8.06714 -0.0806046 1.35458e-23)
(8.23266 0.083573 1.74614e-23)
(8.21789 0.0972557 1.53245e-23)
(8.23266 0.0882675 1.55216e-23)
(8.16966 0.0306043 -8.68756e-23)
(8.16486 0.190196 0)
(8.22228 -0.274963 4.40259e-24)
(8.28333 -0.27858 -6.80869e-24)
(8.30282 -0.277771 -4.92342e-24)
(8.25547 -0.278914 1.26973e-24)
(8.23956 -0.277784 2.53975e-24)
(8.27468 -0.282979 0)
(8.33838 -0.27028 0)
(8.32199 -0.280535 0)
(8.35713 -0.266454 -1.37648e-23)
(8.20346 -0.270031 0)
(8.18799 -0.271252 -4.11008e-24)
(8.16804 -0.259459 8.81648e-24)
(8.18102 -0.268086 0)
(8.37066 -0.269218 3.16667e-24)
(8.14477 -0.254556 0)
(8.15567 -0.265374 9.56954e-24)
(8.12396 -0.247821 4.01511e-24)
(8.13173 -0.256137 -6.71109e-25)
(8.07451 -0.221471 6.48981e-24)
(8.0857 -0.227785 0)
(8.09434 -0.236244 -5.262e-24)
(8.10277 -0.245023 0)
(8.11629 -0.24724 3.71538e-24)
(8.05734 -0.0854659 2.16441e-23)
(8.02323 -0.112031 -2.18226e-23)
(8.01892 -0.125726 -1.5878e-23)
(8.0154 -0.141118 0)
(8.04727 -0.0909106 1.68349e-24)
(8.03231 -0.104295 2.31233e-23)
(8.01629 -0.154318 -1.42189e-24)
(8.02182 -0.161046 -1.2104e-24)
(8.03374 -0.18307 -5.21868e-24)
(8.02559 -0.174883 0)
(8.03922 -0.193147 0)
(8.04545 -0.204057 1.07765e-23)
(8.05894 -0.209482 1.92655e-24)
(8.0674 -0.219753 0)
(8.05163 -0.0587158 6.45179e-23)
(8.00795 -0.10216 5.98635e-23)
(8.06353 -0.0752526 0)
(8.05808 -0.076102 2.91359e-23)
(8.22039 0.102611 -2.79556e-23)
(8.21986 0.104818 8.42807e-24)
(8.21278 0.0992187 -1.55993e-23)
(8.22791 0.0999382 -2.21331e-24)
(8.16731 0.0677204 6.22131e-24)
(8.20152 0.12497 2.48143e-22)
(8.21725 -0.282698 1.57476e-24)
(8.29324 -0.283451 -6.4811e-24)
(8.31249 -0.283571 -6.69133e-24)
(8.25371 -0.290081 -4.84237e-24)
(8.23785 -0.286969 -9.7649e-24)
(8.27099 -0.291032 -7.26716e-25)
(8.33911 -0.284776 1.47657e-24)
(8.32965 -0.290422 1.61783e-24)
(8.35618 -0.28068 0)
(8.20153 -0.279156 8.09583e-24)
(8.18622 -0.278055 -4.26271e-24)
(8.16755 -0.269698 0)
(8.17342 -0.273269 -3.62836e-25)
(8.38007 -0.267432 0)
(8.36391 -0.281861 0)
(8.14041 -0.261728 5.45352e-25)
(8.16104 -0.272832 0)
(8.14881 -0.269842 8.12696e-24)
(8.12606 -0.254367 2.75884e-24)
(8.13201 -0.26193 -1.64304e-24)
(8.07787 -0.227614 6.36423e-24)
(8.08801 -0.234552 -5.40305e-24)
(8.09612 -0.243725 0)
(8.10455 -0.250897 1.09821e-24)
(8.11207 -0.251672 4.4905e-24)
(8.01113 -0.110871 -2.36178e-23)
(8.00981 -0.125943 -1.57589e-23)
(8.00721 -0.140163 0)
(8.03965 -0.0889042 -8.59077e-24)
(8.02484 -0.0988262 7.23681e-24)
(8.00896 -0.157526 -1.79919e-23)
(8.01672 -0.167354 0)
(8.02719 -0.181153 -7.62936e-24)
(8.03367 -0.189946 -5.3936e-24)
(8.01859 -0.17349 1.88638e-24)
(8.03898 -0.200816 2.58623e-25)
(8.04534 -0.211124 0)
(8.05261 -0.21423 0)
(8.06119 -0.224873 0)
(8.04338 -0.0542739 0)
(8.01321 -0.0885561 -1.37627e-22)
(8.05713 -0.0667921 -1.27089e-23)
(8.0528 -0.0727479 9.4555e-24)
(8.22812 0.107747 4.00757e-24)
(8.21639 0.116928 2.12035e-24)
(8.20369 0.114446 1.00747e-23)
(8.23919 0.107176 2.75774e-23)
(8.23006 0.111517 2.90438e-23)
(8.25858 0.109179 -1.44472e-23)
(8.15748 0.0486154 0)
(8.17819 0.199397 -2.77112e-22)
(8.20807 -0.284541 8.00753e-24)
(8.22238 -0.290045 -3.01556e-24)
(8.29149 -0.293524 0)
(8.30795 -0.297048 6.6535e-24)
(8.26171 -0.295858 -6.94733e-24)
(8.24546 -0.29334 -4.64968e-24)
(8.23075 -0.290692 -4.51335e-24)
(8.27589 -0.298515 3.40009e-24)
(8.34732 -0.28912 -7.83678e-25)
(8.32502 -0.29943 0)
(8.19408 -0.282108 0)
(8.18012 -0.284331 -3.9972e-24)
(8.17283 -0.28194 6.81191e-24)
(8.39461 -0.275238 -7.45514e-24)
(8.38417 -0.278121 -1.41645e-24)
(8.368 -0.288254 1.48456e-24)
(8.14273 -0.268089 0)
(8.15688 -0.279531 -2.55357e-24)
(8.14842 -0.279131 0)
(8.11909 -0.25998 1.87466e-24)
(8.12639 -0.267889 0)
(8.07451 -0.234104 -2.17678e-24)
(8.08083 -0.239467 -7.3026e-24)
(8.08913 -0.248819 0)
(8.10024 -0.258222 8.74486e-24)
(8.1132 -0.258184 1.50136e-24)
(8.01088 -0.102681 -2.70691e-23)
(8.00412 -0.114358 -1.44937e-23)
(8.00544 -0.121419 0)
(8.00476 -0.134145 1.54696e-23)
(8.00247 -0.14616 0)
(8.03863 -0.0810943 -1.25761e-24)
(8.02728 -0.0925215 -1.08993e-23)
(8.00242 -0.15368 -1.09947e-23)
(8.00846 -0.165181 0)
(8.0217 -0.18782 1.03236e-23)
(8.02544 -0.193473 -5.39481e-24)
(8.01242 -0.179735 1.98632e-24)
(8.03188 -0.204843 -5.29977e-24)
(8.03869 -0.215458 0)
(8.05353 -0.221656 0)
(8.0611 -0.233203 6.14915e-24)
(8.05326 -0.057887 2.57828e-25)
(8.01389 -0.0548574 0)
(8.05415 -0.0670332 -5.58454e-24)
(8.05449 -0.0627495 -8.90129e-25)
(8.04399 -0.0761258 -7.21417e-24)
(8.21349 0.111198 6.85818e-23)
(8.20714 0.123318 0)
(8.2188 0.128301 6.49727e-24)
(8.19338 0.124457 0)
(8.24764 0.114351 -1.36641e-23)
(8.22637 0.125067 0)
(8.27002 0.115208 -1.36471e-24)
(8.15966 0.0764033 -3.60679e-23)
(8.20661 0.139278 -1.74372e-22)
(8.20558 -0.294869 -1.2801e-24)
(8.21853 -0.297882 0)
(8.29986 -0.300537 1.75299e-24)
(8.28379 -0.299751 0)
(8.31382 -0.303458 6.54004e-24)
(8.26158 -0.304137 3.29816e-24)
(8.24208 -0.303682 7.73973e-25)
(8.23072 -0.29989 -1.22245e-24)
(8.27022 -0.306372 6.85955e-24)
(8.34728 -0.300579 6.88162e-24)
(8.32921 -0.308071 -9.49674e-24)
(8.19261 -0.290864 4.32077e-24)
(8.18356 -0.291566 -1.59302e-24)
(8.16698 -0.286631 6.80133e-24)
(8.37963 -0.286699 3.1691e-24)
(8.36695 -0.299257 1.54059e-24)
(8.13592 -0.275981 -2.12889e-24)
(8.15972 -0.285 -2.00268e-24)
(8.14391 -0.285109 0)
(8.11909 -0.266458 -1.69648e-24)
(8.12822 -0.274703 0)
(8.06712 -0.237312 0)
(8.08103 -0.24554 0)
(8.08884 -0.255207 -2.92436e-24)
(8.10532 -0.263378 -8.54817e-25)
(8.09414 -0.259527 3.86721e-24)
(8.00196 -0.100356 -4.05957e-23)
(7.99544 -0.112951 -2.11912e-23)
(7.99756 -0.125029 0)
(7.99689 -0.131224 2.25736e-23)
(7.9924 -0.143301 0)
(8.02634 -0.0794679 0)
(8.01922 -0.0868317 0)
(7.99246 -0.160343 5.5534e-25)
(8.00329 -0.16995 9.0268e-24)
(8.01411 -0.187 1.06802e-23)
(8.02482 -0.200117 0)
(8.00449 -0.177696 -1.54815e-24)
(8.03152 -0.211798 0)
(8.03896 -0.222377 0)
(8.04653 -0.225772 6.56973e-25)
(8.05401 -0.236249 5.48001e-24)
(8.0428 -0.04074 0)
(8.01922 -0.0859699 0)
(8.04704 -0.0652353 0)
(8.05395 -0.0575534 0)
(8.03942 -0.0695327 0)
(8.20989 0.12285 3.10833e-23)
(8.20404 0.135798 -7.81115e-24)
(8.21174 0.138259 5.1001e-24)
(8.18815 0.139609 0)
(8.19483 0.127008 0)
(8.24727 0.126713 3.27863e-24)
(8.23495 0.132191 0)
(8.26955 0.126845 -7.87782e-25)
(8.14694 0.0638016 9.39959e-23)
(8.17326 0.189362 2.54137e-22)
(8.19786 -0.296585 2.2255e-24)
(8.21072 -0.300785 -2.75041e-25)
(8.22311 -0.303116 -1.52627e-24)
(8.29448 -0.310301 -1.84103e-24)
(8.2857 -0.310428 -3.8709e-24)
(8.31224 -0.313206 0)
(8.25545 -0.309978 -5.52211e-25)
(8.23499 -0.305377 -2.09878e-24)
(8.24736 -0.310475 0)
(8.27189 -0.315037 0)
(8.35738 -0.305903 7.95581e-24)
(8.33828 -0.309488 -7.42914e-24)
(8.32134 -0.316927 -2.37398e-24)
(8.17942 -0.298184 4.16786e-25)
(8.16679 -0.295802 2.49161e-27)
(8.39368 -0.295047 -3.89646e-24)
(8.38502 -0.296257 -6.77927e-25)
(8.37791 -0.305879 0)
(8.13651 -0.284163 -1.82303e-24)
(8.15525 -0.291969 0)
(8.14733 -0.291865 0)
(8.11262 -0.271754 -3.18697e-24)
(8.12018 -0.281594 -1.16391e-24)
(8.06632 -0.245859 -9.33521e-25)
(8.07369 -0.249664 -4.36799e-26)
(8.08114 -0.259988 0)
(8.10531 -0.269056 -5.68474e-25)
(8.08959 -0.266872 -4.74116e-24)
(7.99994 -0.0931372 -2.68703e-23)
(7.99272 -0.106726 -1.38377e-23)
(7.99125 -0.119421 -5.05975e-24)
(7.99022 -0.135774 6.10082e-24)
(7.98507 -0.148763 -4.7871e-25)
(8.02223 -0.0737395 0)
(8.00751 -0.0869983 -3.37536e-23)
(7.99406 -0.168074 6.53828e-24)
(7.98644 -0.157719 -6.94682e-25)
(8.0085 -0.192887 0)
(8.01765 -0.203422 -5.84262e-26)
(7.99775 -0.183409 0)
(8.0242 -0.216546 0)
(8.03232 -0.227151 -6.91637e-25)
(8.04685 -0.23258 3.7254e-24)
(8.05054 -0.243261 -1.55166e-24)
(8.04101 -0.0443465 -5.50435e-23)
(8.02051 -0.0589186 8.78677e-23)
(8.04748 -0.0596828 0)
(8.05095 -0.0553309 5.11859e-24)
(8.03 -0.0677348 0)
(8.16403 0.0895605 2.13812e-23)
(8.19579 0.142926 -7.3081e-24)
(8.21467 0.147224 0)
(8.18114 0.149881 0)
(8.1908 0.129287 0)
(8.25759 0.132476 3.25991e-24)
(8.23475 0.14361 7.09417e-24)
(8.29346 0.125653 0)
(8.28081 0.132066 1.24315e-24)
(8.19757 0.150149 -1.75626e-22)
(8.193 -0.303801 -6.9219e-25)
(8.20784 -0.309194 -2.74603e-25)
(8.22156 -0.310002 3.33297e-26)
(8.29682 -0.317053 6.76123e-24)
(8.27955 -0.317515 0)
(8.30491 -0.319252 6.54953e-24)
(8.25644 -0.320123 6.2523e-24)
(8.22901 -0.312667 -3.108e-24)
(8.24234 -0.321855 3.19273e-24)
(8.26429 -0.321997 7.70786e-24)
(8.35618 -0.319959 0)
(8.33924 -0.323472 -9.83853e-24)
(8.32147 -0.327405 -3.10803e-24)
(8.17185 -0.300174 1.86726e-24)
(8.18442 -0.304582 -7.68949e-25)
(8.15883 -0.297871 -8.0562e-25)
(8.40009 -0.303353 -4.97695e-24)
(8.3763 -0.315911 7.96404e-24)
(8.13086 -0.289657 6.28849e-25)
(8.14332 -0.2998 5.2157e-24)
(8.11283 -0.279472 6.03751e-24)
(8.12128 -0.288467 6.6372e-25)
(8.05875 -0.2516 -7.90453e-24)
(8.07348 -0.257185 1.21446e-24)
(8.08154 -0.266536 0)
(8.09914 -0.273486 0)
(8.0919 -0.271926 -3.93681e-24)
(7.98982 -0.0917876 5.74779e-24)
(7.98524 -0.10505 0)
(7.98359 -0.122862 2.76694e-23)
(7.98119 -0.131386 0)
(7.97718 -0.147534 -7.13737e-24)
(8.00929 -0.0740699 1.71162e-23)
(8.00131 -0.0791905 -2.95656e-24)
(7.98794 -0.173361 -1.16301e-23)
(7.97706 -0.159877 3.80754e-24)
(7.99943 -0.190964 0)
(8.0102 -0.200386 0)
(8.01645 -0.212303 1.8777e-25)
(7.9907 -0.181555 4.97179e-25)
(8.02431 -0.224076 -1.35402e-24)
(8.03238 -0.234883 -7.59446e-25)
(8.03926 -0.237116 2.78762e-24)
(8.04113 -0.243034 1.68226e-24)
(8.05243 -0.2491 -6.69977e-24)
(8.02761 -0.028242 2.51961e-23)
(8.01402 -0.0723252 -9.8883e-23)
(8.04377 -0.0566311 1.39499e-24)
(8.05158 -0.0505588 1.79322e-23)
(8.02778 -0.06307 -1.16888e-23)
(8.15022 0.111056 -3.76734e-24)
(8.19652 0.154507 0)
(8.22629 0.150065 -7.43612e-24)
(8.20664 0.156097 0)
(8.17145 0.149952 0)
(8.18127 0.159528 9.43322e-24)
(8.17334 0.131071 0)
(8.1786 0.142221 0)
(8.25736 0.143855 -6.91105e-24)
(8.24701 0.149336 1.27624e-23)
(8.29786 0.134119 -2.78864e-24)
(8.27687 0.143963 -4.3192e-25)
(8.1439 0.208508 -1.05315e-22)
(8.14573 0.104867 -7.52502e-23)
(8.19486 -0.311928 0)
(8.20116 -0.314235 1.58651e-25)
(8.21393 -0.314185 0)
(8.2899 -0.3276 -2.76647e-24)
(8.28136 -0.326847 0)
(8.3036 -0.332718 -7.33662e-24)
(8.24781 -0.327625 0)
(8.2297 -0.319681 -4.77999e-24)
(8.2356 -0.324751 -2.11568e-24)
(8.26582 -0.331375 -6.86416e-24)
(8.34721 -0.327192 -7.34892e-24)
(8.3653 -0.323859 0)
(8.33029 -0.330906 -2.7257e-24)
(8.31053 -0.335224 -1.13168e-23)
(8.16941 -0.30917 -5.42629e-25)
(8.18154 -0.312236 0)
(8.15588 -0.305498 -3.68905e-24)
(8.39527 -0.314426 -7.12871e-24)
(8.38436 -0.320525 8.76894e-24)
(8.13258 -0.296446 -3.5849e-24)
(8.13735 -0.30036 4.13575e-24)
(8.14813 -0.306936 -2.46462e-24)
(8.1057 -0.283956 6.64958e-24)
(8.1171 -0.293746 -2.4206e-24)
(8.05906 -0.261048 6.20669e-24)
(8.06661 -0.263423 0)
(8.07731 -0.271906 1.63013e-24)
(8.09911 -0.281496 -3.91839e-24)
(8.08722 -0.279349 0)
(7.98667 -0.0854313 -5.46197e-24)
(7.98309 -0.0979862 0)
(7.97784 -0.109866 0)
(7.97637 -0.117583 2.34056e-23)
(7.97281 -0.134975 0)
(7.97104 -0.142393 -6.50147e-24)
(7.9711 -0.155052 -6.85185e-24)
(8.00654 -0.0675366 2.52893e-23)
(7.99244 -0.0788509 -2.40962e-23)
(7.97848 -0.175508 -1.22505e-23)
(7.97435 -0.164876 0)
(7.99161 -0.1966 -1.25282e-23)
(8.00135 -0.205917 0)
(8.00581 -0.21854 -1.43183e-23)
(7.98184 -0.187505 -1.63865e-24)
(8.01672 -0.228225 -1.31107e-24)
(8.02531 -0.239003 -3.36569e-24)
(8.03794 -0.249152 1.66382e-24)
(8.04408 -0.254608 6.92027e-25)
(8.03008 -0.0338506 -2.15784e-23)
(8.01197 -0.0545836 7.84521e-24)
(8.04702 -0.0501986 9.48844e-24)
(8.03676 -0.055983 -2.24162e-24)
(8.04724 -0.0502501 -1.0229e-25)
(8.03121 -0.0581207 -6.69886e-24)
(8.01527 -0.0627089 2.18027e-23)
(8.19025 0.160758 0)
(8.22879 0.162662 -5.75156e-24)
(8.20984 0.165688 0)
(8.1634 0.161753 8.25246e-24)
(8.17708 0.168124 1.71178e-23)
(8.16852 0.133407 0)
(8.16957 0.147603 0)
(8.26762 0.149313 -6.98817e-24)
(8.24774 0.160124 0)
(8.29233 0.145887 -6.98832e-24)
(8.28082 0.149706 -1.25039e-24)
(8.16101 0.154328 7.13576e-23)
(8.15936 0.0949933 -4.6504e-24)
(8.18719 -0.316975 0)
(8.20186 -0.32389 1.67042e-25)
(8.21445 -0.321879 4.80507e-24)
(8.29412 -0.336615 -9.94632e-25)
(8.27393 -0.333824 -6.5262e-24)
(8.2485 -0.335477 3.46555e-24)
(8.22214 -0.324728 0)
(8.23086 -0.334139 0)
(8.25691 -0.338127 4.18839e-24)
(8.34513 -0.340437 -3.19313e-24)
(8.36316 -0.334745 0)
(8.32779 -0.343046 2.65157e-25)
(8.30906 -0.344428 0)
(8.16115 -0.311639 0)
(8.17416 -0.314748 0)
(8.40294 -0.320245 -8.64552e-24)
(8.38072 -0.334682 0)
(8.12736 -0.30064 -4.4541e-24)
(8.13274 -0.308458 0)
(8.14374 -0.313095 -1.20127e-24)
(8.10584 -0.290114 0)
(8.11107 -0.294294 -2.08041e-24)
(8.12112 -0.299927 3.28569e-25)
(8.05218 -0.265804 6.52446e-24)
(8.0686 -0.270736 0)
(8.08024 -0.278972 1.66818e-24)
(8.09131 -0.284653 -3.78314e-24)
(7.97678 -0.082736 -1.35058e-24)
(7.97474 -0.0958017 0)
(7.96823 -0.106343 1.07663e-23)
(7.9636 -0.1218 -2.50127e-23)
(7.9623 -0.129624 1.51639e-23)
(7.96129 -0.146092 0)
(7.96262 -0.153342 -3.65338e-24)
(7.99708 -0.0637785 -2.70266e-23)
(7.98748 -0.0727815 -2.53563e-24)
(7.97594 -0.17095 0)
(7.97499 -0.184117 -2.58778e-24)
(7.96363 -0.167228 -1.32874e-23)
(7.9826 -0.194148 -1.42456e-23)
(7.99334 -0.203608 0)
(7.99921 -0.214598 -1.04003e-23)
(8.00657 -0.226401 0)
(8.01708 -0.235588 -3.64147e-24)
(8.02314 -0.246318 -3.96836e-24)
(8.02883 -0.251056 1.7425e-24)
(8.04398 -0.261297 -4.25325e-24)
(8.02102 -0.0289267 2.59001e-23)
(8.00047 -0.0582822 0)
(8.04242 -0.0479997 -2.79878e-24)
(8.03665 -0.0519574 -5.15341e-24)
(8.048 -0.0452076 -1.04015e-23)
(8.02148 -0.0541014 0)
(8.01306 -0.0568017 -1.65682e-23)
(8.19113 0.171798 5.91649e-25)
(8.22265 0.168881 -3.24021e-24)
(8.23973 0.166563 0)
(8.20697 0.174894 5.24356e-24)
(8.16803 0.170661 1.34935e-23)
(8.15493 0.163215 -4.02625e-24)
(8.18217 0.174695 8.83274e-24)
(8.15984 0.135889 -8.45069e-24)
(8.1674 0.118872 0)
(8.16483 0.144332 8.85828e-24)
(8.15706 0.157321 0)
(8.26558 0.159718 7.04284e-24)
(8.25721 0.164614 3.17164e-24)
(8.31083 0.14955 2.12909e-23)
(8.296 0.159277 1.83121e-23)
(8.27766 0.162819 8.57654e-24)
(8.1013 0.183442 -1.63872e-22)
(8.18669 -0.325633 5.92036e-24)
(8.1943 -0.329822 6.2096e-24)
(8.20818 -0.327115 4.42794e-24)
(8.28799 -0.345962 5.38264e-25)
(8.27113 -0.343721 9.42312e-24)
(8.24101 -0.342199 0)
(8.22288 -0.333062 0)
(8.23339 -0.340721 0)
(8.25461 -0.345277 6.63068e-24)
(8.33594 -0.347872 -2.9353e-24)
(8.35306 -0.34391 -1.20006e-24)
(8.37131 -0.34034 -1.82199e-25)
(8.31883 -0.348391 3.16217e-26)
(8.30186 -0.353069 -4.61512e-24)
(8.15748 -0.318181 -2.3624e-25)
(8.17028 -0.321148 0)
(8.39972 -0.331984 -8.79515e-24)
(8.38869 -0.339741 0)
(8.12739 -0.308207 -4.4123e-24)
(8.13595 -0.313654 -9.69169e-25)
(8.14487 -0.319843 -6.22005e-24)
(8.09948 -0.294003 0)
(8.10652 -0.30275 0)
(8.11666 -0.307014 -2.10968e-24)
(8.05201 -0.273131 -6.3318e-24)
(8.06427 -0.275955 1.1666e-23)
(8.07571 -0.285087 4.80474e-24)
(8.0922 -0.290092 8.23029e-24)
(7.97248 -0.0878009 1.73574e-24)
(7.97732 -0.075768 -8.40226e-25)
(7.96693 -0.100206 0)
(7.95965 -0.110198 1.26931e-23)
(7.95755 -0.116063 -1.95655e-23)