/*--------------------------------*- C++ -*----------------------------------*\
| =========                 |                                                 |
| \\      /  F ield         | OpenFOAM: The Open Source CFD Toolbox           |
|  \\    /   O peration     | Version:  v2012                                 |
|   \\  /    A nd           | Website:  www.openfoam.com                      |
|    \\/     M anipulation  |                                                 |
\*---------------------------------------------------------------------------*/
FoamFile
{
    version     2.0;
    format      ascii;
    class       surfaceVectorField;
    location    "0.8";
    object      Uf;
}
// * * * * * * * * * * * * * * * * * * * * * * * * * * * * * * * * * * * * * //

dimensions      [0 1 -1 0 0 0 0];


internalField   nonuniform List<vector> 
21399
(
(8.11546 -0.0364037 0)
(8.13235 -0.0839279 0)
(8.15163 -0.0639489 5.70717e-24)
(8.12766 -0.0469394 7.47092e-23)
(8.1306 -0.138369 -6.58351e-23)
(8.17913 -0.0810345 -9.82784e-23)
(8.19076 -0.0820062 -1.5435e-21)
(8.19433 -0.0832899 -8.78013e-24)
(8.19585 -0.090733 -2.35489e-21)
(8.09459 -0.0660734 -3.31634e-20)
(8.14193 -0.0815154 8.68529e-21)
(8.13201 -0.0730369 9.65845e-21)
(8.20562 -0.134069 -1.78771e-22)
(8.2219 -0.0894334 -7.11023e-22)
(8.19053 -0.0875011 -1.42076e-23)
(8.19786 -0.0975874 -2.04676e-24)
(8.18878 -0.095669 -2.12069e-21)
(8.10956 -0.0440335 4.95877e-22)
(8.18307 -0.0861679 -1.07212e-20)
(8.16394 -0.0962513 -4.99801e-23)
(8.14841 -0.142924 -7.12254e-20)
(8.22773 -0.0990691 1.74757e-24)
(8.21868 -0.0972578 -1.49123e-23)
(8.18969 -0.0923207 1.62485e-23)
(8.21172 -0.100744 -1.23387e-21)
(8.2011 -0.107751 -6.00425e-25)
(8.1838 -0.0999192 3.85023e-24)
(8.14639 -0.0815362 6.18605e-23)
(8.11766 -0.0656223 -2.54447e-20)
(8.14616 -0.0857477 4.00922e-21)
(8.16256 -0.0996775 -9.06894e-24)
(8.20134 -0.128534 -1.92215e-23)
(8.23581 -0.100148 0)
(8.24283 -0.100608 3.19573e-24)
(8.2322 -0.108535 -1.31991e-23)
(8.21962 -0.109919 -3.20844e-23)
(8.20388 -0.117906 -3.72085e-24)
(8.19383 -0.112633 -1.38307e-23)
(8.184 -0.112507 9.51353e-25)
(8.1764 -0.107956 -3.64465e-22)
(8.11282 -0.0789713 1.01887e-22)
(8.1673 -0.107916 4.94356e-22)
(8.15508 -0.103531 -1.53388e-21)
(8.14341 -0.128953 -6.0957e-20)
(8.24616 -0.107164 2.35113e-22)
(8.22584 -0.114827 4.09103e-22)
(8.23122 -0.117765 -2.85144e-22)
(8.21931 -0.119073 -2.23029e-23)
(8.21216 -0.123706 -1.65255e-22)
(8.20407 -0.127256 -1.19802e-23)
(8.1866 -0.120775 8.83915e-24)
(8.17009 -0.11836 -6.56009e-24)
(8.1302 -0.095395 -1.70646e-22)
(8.10345 -0.091657 -4.60311e-22)
(8.14611 -0.106141 -5.38383e-22)
(8.17795 -0.137774 4.38183e-23)
(8.14455 -0.110846 3.99924e-21)
(8.24273 -0.117069 7.44353e-23)
(8.25169 -0.113147 -1.43829e-24)
(8.23726 -0.123014 -3.47512e-22)
(8.22988 -0.129278 -1.75242e-23)
(8.217 -0.129301 3.39312e-23)
(8.19517 -0.128849 -2.31047e-24)
(8.20012 -0.135438 4.88353e-22)
(8.18393 -0.128633 0)
(8.17082 -0.128605 1.44657e-22)
(8.16267 -0.125066 1.56514e-23)
(8.10104 -0.105061 7.29437e-21)
(8.10906 -0.109693 -9.64714e-24)
(8.13335 -0.111709 5.82854e-24)
(8.14885 -0.115212 2.04903e-23)
(8.10421 -0.134565 0)
(8.12805 -0.092689 -1.39519e-23)
(8.24414 -0.128511 -1.20142e-23)
(8.25652 -0.121186 -4.89849e-23)
(8.22172 -0.133852 -7.68394e-25)
(8.22703 -0.140068 1.88961e-22)
(8.2136 -0.13859 2.41896e-24)
(8.19449 -0.142022 -2.3623e-22)
(8.20186 -0.140531 5.2773e-22)
(8.17752 -0.131774 4.39708e-24)
(8.18243 -0.139323 0)
(8.17037 -0.137723 6.15119e-24)
(8.15489 -0.122613 8.5723e-22)
(8.15629 -0.132192 -2.49962e-24)
(8.11992 -0.117752 0)
(8.14475 -0.121534 -4.54412e-22)
(8.13684 -0.111067 3.3813e-26)
(8.13969 -0.149238 -9.41781e-23)
(8.13535 -0.10413 3.77862e-26)
(8.25314 -0.129917 1.32352e-22)
(8.24636 -0.137851 3.87179e-24)
(8.26158 -0.129773 4.84862e-24)
(8.22282 -0.148689 1.31357e-23)
(8.23247 -0.145739 6.62542e-22)
(8.20703 -0.143614 6.46764e-24)
(8.21149 -0.148869 7.98578e-24)
(8.27 -0.126923 -1.11264e-24)
(8.18877 -0.144529 2.79871e-24)
(8.19196 -0.150135 2.22445e-24)
(8.20164 -0.149319 4.07575e-22)
(8.18068 -0.148083 -1.02153e-23)
(8.16433 -0.141966 -7.45751e-23)
(8.16992 -0.145971 -8.4869e-24)
(8.15786 -0.141507 4.01102e-22)
(8.15048 -0.139024 3.19488e-23)
(8.12067 -0.116553 0)
(8.11723 -0.118052 0)
(8.13303 -0.12291 5.77681e-24)
(8.14187 -0.130741 1.36979e-21)
(8.05682 -0.15509 -6.63771e-20)
(8.11933 -0.111296 -6.60453e-24)
(8.23967 -0.146922 8.58843e-24)
(8.25041 -0.149348 1.42576e-24)
(8.26663 -0.136172 0)
(8.21658 -0.152881 1.20545e-22)
(8.22251 -0.158309 7.25404e-24)
(8.23578 -0.156097 8.32836e-22)
(8.21013 -0.15821 6.03469e-24)
(8.19529 -0.153666 3.59224e-24)
(8.18922 -0.157716 -6.00323e-24)
(8.19917 -0.157124 -1.14671e-23)
(8.17417 -0.152041 9.10871e-23)
(8.17834 -0.15758 -9.08901e-24)
(8.15825 -0.148828 -9.95683e-24)
(8.16765 -0.154981 -8.64718e-24)
(8.14378 -0.137912 4.85259e-24)
(8.14346 -0.147125 1.25712e-23)
(8.12144 -0.11955 1.56984e-23)
(8.13623 -0.137103 1.06281e-24)
(8.11321 -0.134939 9.3699e-23)
(8.0899 -0.139246 6.22026e-22)
(8.13782 -0.122559 2.03272e-20)
(8.26201 -0.152687 -4.28172e-24)
(8.25487 -0.161972 5.02284e-22)
(8.27532 -0.140553 0)
(8.26585 -0.144548 -4.00237e-24)
(8.22848 -0.161933 7.70432e-25)
(8.22148 -0.166752 -1.02625e-24)
(8.23695 -0.164211 8.84377e-25)
(8.20376 -0.161325 -3.69876e-24)
(8.20885 -0.166868 -3.0696e-23)
(8.28658 -0.144252 3.44423e-25)
(8.18296 -0.161461 -4.33009e-23)
(8.18654 -0.165834 -8.73855e-23)
(8.19667 -0.165186 4.29185e-22)
(8.1757 -0.165007 -2.72975e-23)
(8.16096 -0.155197 0)
(8.15349 -0.155543 0)
(8.16302 -0.161744 7.42066e-24)
(8.14314 -0.154117 9.33724e-22)
(8.13649 -0.151353 -2.22821e-22)
(8.12808 -0.115906 3.6385e-21)
(8.1144 -0.119466 8.19166e-22)
(8.1298 -0.136568 0)
(8.12894 -0.144158 -2.75967e-23)
(8.11983 -0.123432 7.51278e-20)
(8.10413 -0.0909658 -3.20667e-22)
(8.13942 -0.120165 -2.86267e-23)
(8.27353 -0.156841 5.88849e-22)
(8.246 -0.169582 1.7217e-24)
(8.25865 -0.173317 -2.16722e-24)
(8.21316 -0.173297 -1.33692e-24)
(8.21995 -0.177332 5.40227e-23)
(8.23758 -0.175114 -4.85226e-24)
(8.20717 -0.175847 -2.17729e-25)
(8.29674 -0.150315 1.227e-24)
(8.28627 -0.154284 3.09077e-23)
(8.3053 -0.158426 6.96841e-24)
(8.19116 -0.170745 -5.56562e-24)
(8.18424 -0.174999 -6.51222e-24)
(8.19811 -0.175005 -4.54763e-24)
(8.17414 -0.172652 -1.14127e-24)
(8.16957 -0.169112 1.44799e-23)
(8.14745 -0.159581 3.4793e-24)
(8.15117 -0.165697 -5.12752e-24)
(8.16365 -0.168934 1.38032e-22)
(8.15702 -0.168092 -6.80343e-24)
(8.14036 -0.163635 3.04218e-24)
(8.13036 -0.150778 8.35842e-23)
(8.13155 -0.15835 -2.74788e-24)
(8.11678 -0.127635 5.38628e-24)
(8.10534 -0.121792 2.41002e-21)
(8.12084 -0.135648 1.08603e-23)
(8.12173 -0.150549 1.45701e-22)
(8.0727 -0.144431 1.3504e-22)
(8.12562 -0.103525 -3.84195e-23)
(8.10767 -0.0889896 -4.01009e-23)
(8.13295 -0.119459 0)
(8.28196 -0.163244 -3.24891e-24)
(8.26055 -0.184155 -8.92062e-23)
(8.27092 -0.177852 -6.51483e-24)
(8.22914 -0.179063 -1.46857e-22)
(8.22045 -0.184174 4.50769e-22)
(8.23801 -0.1833 -4.00906e-24)
(8.20042 -0.182326 9.09589e-25)
(8.30349 -0.168739 1.11819e-23)
(8.31423 -0.166181 9.33865e-23)
(8.17743 -0.177184 4.87974e-23)
(8.18129 -0.182354 -2.25016e-24)
(8.17144 -0.17959 -8.67257e-24)
(8.16267 -0.175397 9.28655e-24)
(8.14934 -0.173384 9.18521e-24)
(8.13276 -0.164752 -2.24545e-25)
(8.1346 -0.170158 1.88402e-23)
(8.12632 -0.164464 0)
(8.11747 -0.121398 -8.51853e-24)
(8.10139 -0.122824 -1.00616e-23)
(8.11333 -0.13386 3.36237e-22)
(8.11379 -0.141464 1.64941e-23)
(8.11786 -0.159349 -2.66722e-22)
(8.11492 -0.152427 -5.92771e-24)
(8.12169 -0.136171 0)
(8.09998 -0.0961502 0)
(8.08795 -0.0898341 0)
(8.11338 -0.113383 0)
(8.12768 -0.122408 0)
(8.28023 -0.173752 1.67783e-22)
(8.29292 -0.171517 3.33238e-23)
(8.25358 -0.189688 7.82581e-23)
(8.26323 -0.193915 -5.41326e-24)
(8.28093 -0.185735 6.58897e-24)
(8.21657 -0.191789 3.86996e-23)
(8.22686 -0.192191 -5.28967e-24)
(8.24577 -0.189197 -2.40218e-24)
(8.2366 -0.191121 -7.08462e-25)
(8.19279 -0.188176 -6.70382e-23)
(8.20216 -0.189521 3.24565e-24)
(8.30174 -0.179379 1.14026e-23)
(8.32231 -0.173647 9.19717e-24)
(8.18584 -0.188561 3.50274e-24)
(8.17791 -0.18966 1.26339e-22)
(8.16491 -0.180367 1.76656e-23)
(8.16822 -0.185436 5.92812e-23)
(8.15789 -0.181207 -4.00458e-22)
(8.14191 -0.178249 5.82989e-24)
(8.14761 -0.181651 -7.75327e-24)
(8.13666 -0.175708 7.297e-22)
(8.12782 -0.175939 5.63609e-24)
(8.12079 -0.164401 6.39083e-24)
(8.12017 -0.170666 9.51482e-24)
(8.09995 -0.125214 2.07515e-22)
(8.09934 -0.124869 2.50635e-24)
(8.103 -0.130988 9.02561e-24)
(8.11102 -0.148234 5.85604e-22)
(8.1035 -0.145157 7.736e-24)
(8.11412 -0.165221 -5.14257e-23)
(8.1066 -0.156068 8.91026e-24)
(8.05849 -0.133893 1.05548e-23)
(8.09805 -0.0824144 1.7192e-23)
(8.11578 -0.123905 2.52081e-24)
(8.2501 -0.198401 -7.29445e-24)
(8.27134 -0.199299 2.72183e-24)
(8.26369 -0.203774 -5.08429e-24)
(8.28032 -0.195232 -1.26462e-24)
(8.29022 -0.191766 1.2313e-22)
(8.20896 -0.19413 -4.41066e-25)
(8.21533 -0.2021 -2.34585e-24)
(8.23364 -0.198806 7.69347e-23)
(8.18977 -0.195676 -7.7322e-24)
(8.20231 -0.198652 2.60702e-22)
(8.29983 -0.189492 1.12581e-23)
(8.31045 -0.187454 -4.915e-23)
(8.32086 -0.184146 6.92456e-23)
(8.33056 -0.180066 1.82655e-25)
(8.17071 -0.190808 2.53021e-24)
(8.17463 -0.196626 9.24224e-24)
(8.16425 -0.191335 -2.68859e-25)
(8.15294 -0.1855 2.85291e-24)
(8.1571 -0.190351 3.33685e-24)
(8.1359 -0.18414 2.72049e-22)
(8.14584 -0.190606 -1.81985e-22)
(8.12056 -0.177903 6.14481e-24)
(8.1235 -0.183846 2.77254e-22)
(8.11417 -0.177678 3.59957e-22)
(8.10637 -0.123987 1.99749e-22)
(8.09677 -0.129134 0)
(8.09658 -0.136377 0)
(8.09648 -0.144339 1.08911e-24)
(8.09653 -0.151745 2.20289e-23)
(8.10771 -0.166071 1.03708e-23)
(8.10987 -0.171612 6.28564e-24)
(8.09913 -0.157618 1.73088e-23)
(8.10289 -0.16245 -1.14239e-22)
(8.08397 -0.0960001 -5.19255e-22)
(8.10141 -0.132376 1.02484e-23)
(8.07295 -0.0823933 -1.33738e-20)
(8.09379 -0.104063 1.45062e-23)
(8.2547 -0.20763 2.03281e-22)
(8.24736 -0.207596 -5.82093e-24)
(8.27939 -0.206086 2.47137e-24)
(8.26183 -0.212971 -5.39119e-24)
(8.29747 -0.200129 1.0966e-23)
(8.215 -0.209762 -1.02016e-25)
(8.22265 -0.206661 2.08468e-25)
(8.23951 -0.205592 -2.43486e-25)
(8.22983 -0.205074 8.01482e-25)
(8.19432 -0.202453 5.36524e-22)
(8.18709 -0.203751 -1.41924e-23)
(8.20112 -0.207386 -1.36906e-23)
(8.31815 -0.195368 7.27411e-24)
(8.33859 -0.186223 -1.4841e-24)
(8.17916 -0.203689 -9.97692e-23)
(8.17085 -0.203431 -1.2975e-23)
(8.15866 -0.195906 1.8295e-22)
(8.12904 -0.187462 4.0975e-24)
(8.13419 -0.190607 1.00021e-22)
(8.13901 -0.194197 3.31441e-24)
(8.14435 -0.198673 -2.58161e-24)
(8.12083 -0.190334 -1.98834e-24)
(8.11007 -0.176202 4.70165e-24)
(8.10739 -0.18275 -3.26656e-22)
(8.10573 -0.114768 -1.12835e-23)
(8.10089 -0.120641 4.54906e-22)
(8.09518 -0.123479 -9.30142e-24)
(8.08883 -0.128411 -6.31821e-24)
(8.08867 -0.142575 0)
(8.0898 -0.158273 2.98532e-23)
(8.09927 -0.167782 2.26577e-24)
(8.10389 -0.175825 0)
(8.08822 -0.084458 1.18778e-20)
(8.04232 -0.12127 -2.03413e-23)
(8.09214 -0.109818 0)
(8.24304 -0.215038 -3.94267e-22)
(8.27701 -0.213552 0)
(8.28622 -0.211284 0)
(8.27059 -0.216856 0)
(8.26111 -0.221362 0)
(8.29466 -0.210521 4.99691e-24)
(8.3047 -0.209054 3.58533e-23)
(8.20841 -0.212657 -4.53611e-25)
(8.21433 -0.217776 -7.33809e-24)
(8.22877 -0.213144 -3.21802e-23)
(8.18262 -0.211021 -5.76774e-24)
(8.19962 -0.215281 9.60237e-25)
(8.31511 -0.206125 5.80104e-24)
(8.32574 -0.202824 -2.39489e-24)
(8.33662 -0.198639 -2.47656e-24)
(8.16324 -0.203462 2.53581e-23)
(8.16726 -0.210442 -7.07819e-23)
(8.15494 -0.20247 -6.30797e-24)
(8.13256 -0.197959 2.23047e-24)
(8.14965 -0.202535 -1.26309e-25)
(8.14347 -0.205475 2.58475e-24)
(8.11445 -0.194422 0)
(8.1209 -0.198603 0)
(8.10486 -0.188513 -9.14794e-25)
(8.09863 -0.184489 -1.35152e-22)
(8.09373 -0.116191 -4.16218e-22)
(8.08237 -0.128022 -1.04802e-22)
(8.08273 -0.134631 -4.57967e-24)
(8.08193 -0.140718 0)
(8.07951 -0.148798 -3.37044e-24)
(8.08054 -0.159513 6.22336e-23)
(8.08316 -0.166154 1.03068e-23)
(8.09793 -0.174754 0)
(8.09276 -0.172091 0)
(8.09773 -0.179691 1.10463e-23)
(8.07114 -0.0797124 -1.29422e-23)
(8.08331 -0.0978944 8.0865e-23)
(8.07419 -0.0820687 -1.82248e-23)
(8.0867 -0.117413 3.51589e-20)
(8.09193 -0.108863 1.84098e-24)
(8.09058 -0.106234 -9.38867e-25)
(8.23458 -0.218712 -8.74205e-25)
(8.24181 -0.222037 1.80189e-24)
(8.27654 -0.221836 -1.61744e-24)
(8.29074 -0.22029 -1.45125e-24)
(8.26181 -0.230575 0)
(8.25469 -0.227352 0)
(8.31169 -0.216799 1.25479e-23)
(8.22004 -0.222786 -1.42283e-22)
(8.21258 -0.225214 -4.16156e-24)
(8.22732 -0.220639 -3.65386e-24)
(8.17788 -0.217778 0)
(8.18664 -0.218851 1.11765e-24)
(8.19375 -0.219387 -7.49561e-24)
(8.20014 -0.223064 9.81332e-25)
(8.33277 -0.210447 2.4835e-22)
(8.17126 -0.216074 -1.85249e-25)
(8.16344 -0.2159 2.82623e-25)
(8.15334 -0.209824 2.43633e-24)
(8.12688 -0.201677 0)
(8.13265 -0.205693 0)
(8.13881 -0.209473 2.58934e-24)
(8.14475 -0.213792 -1.81128e-22)
(8.11004 -0.192722 0)
(8.11081 -0.200305 -1.73969e-24)
(8.12139 -0.206429 3.27089e-24)
(8.10229 -0.194024 -1.98405e-24)
(8.09243 -0.184741 2.85618e-22)
(8.08967 -0.11119 -2.23607e-24)
(8.07866 -0.123102 -7.70673e-24)
(8.07342 -0.129061 -5.20271e-24)
(8.07512 -0.139277 0)
(8.07786 -0.154809 -6.9322e-22)
(8.07085 -0.151513 -1.01947e-23)
(8.07208 -0.161599 -6.27772e-24)
(8.08546 -0.171634 0)
(8.07739 -0.1721 0)
(8.08422 -0.179001 2.63783e-24)
(8.07663 -0.0767757 5.9174e-24)
(8.08072 -0.107292 -4.81875e-24)
(8.02742 -0.124566 6.39991e-23)
(8.24782 -0.227996 3.03422e-24)
(8.23871 -0.230803 1.1197e-22)
(8.28261 -0.225847 9.22377e-23)
(8.27563 -0.229799 -1.69951e-24)
(8.29172 -0.228129 -1.45779e-24)
(8.26783 -0.234665 0)
(8.26135 -0.239627 -5.39393e-24)
(8.25054 -0.236858 -6.36089e-24)
(8.30984 -0.228145 6.85603e-24)
(8.32032 -0.223235 1.48108e-22)
(8.22499 -0.22826 2.2077e-24)
(8.20562 -0.227889 0)
(8.21064 -0.232963 0)
(8.17376 -0.223784 -3.36312e-24)
(8.18948 -0.226313 2.73299e-23)
(8.19958 -0.230554 0)
(8.32771 -0.219036 6.05748e-24)
(8.33945 -0.216341 -1.24935e-24)
(8.15716 -0.217117 5.37771e-25)
(8.1613 -0.222971 -9.19677e-23)
(8.15151 -0.216619 2.08247e-24)
(8.13254 -0.213898 -9.16443e-25)
(8.14619 -0.221328 1.98221e-24)
(8.10622 -0.204137 1.01418e-23)
(8.11132 -0.206659 -5.81e-25)
(8.11598 -0.210233 -4.61302e-23)
(8.12171 -0.214086 6.01703e-24)
(8.10129 -0.201335 1.03105e-22)
(8.0965 -0.197102 -1.67283e-24)
(8.08546 -0.184237 1.14874e-22)
(8.08844 -0.190304 8.92779e-24)
(8.08191 -0.115318 -1.27162e-22)
(8.08291 -0.108237 8.68885e-22)
(8.07198 -0.117638 -8.07096e-25)
(8.06911 -0.136347 0)
(8.06499 -0.132338 3.0257e-24)
(8.06651 -0.142264 -2.11476e-23)
(8.06476 -0.149518 8.70488e-23)
(8.06342 -0.155684 1.59467e-22)
(8.06329 -0.161688 -3.27947e-24)
(8.06624 -0.166911 2.29397e-22)
(8.07074 -0.17203 1.42486e-24)
(8.07168 -0.177804 2.87836e-24)
(8.0783 -0.183911 3.14524e-25)
(8.07187 -0.0975573 1.68725e-21)
(8.06165 -0.0821092 -4.80498e-21)
(8.07774 -0.105213 1.13953e-23)
(8.05717 -0.103968 -7.7778e-24)
(8.04699 -0.108272 -2.01408e-23)
(8.23018 -0.233364 3.84084e-24)
(8.23498 -0.239681 3.45249e-24)
(8.27532 -0.239063 0)
(8.29982 -0.233107 7.15398e-25)
(8.29104 -0.238488 0)
(8.2535 -0.243751 2.23312e-22)
(8.25959 -0.247894 -8.24685e-24)
(8.24677 -0.245467 -6.1925e-24)
(8.30911 -0.240943 -1.06226e-22)
(8.32759 -0.229338 8.65523e-24)
(8.22258 -0.235879 1.93561e-25)
(8.21501 -0.238092 -1.0876e-26)
(8.20789 -0.240545 -4.69951e-24)
(8.16751 -0.226763 1.75644e-23)
(8.17446 -0.230349 -5.60562e-23)
(8.1931 -0.231849 -9.70256e-26)
(8.18642 -0.23251 -1.06246e-25)
(8.19694 -0.236596 -8.04803e-24)
(8.34891 -0.218507 -1.95032e-24)
(8.34489 -0.227491 2.0033e-24)
(8.36094 -0.223206 -3.92197e-24)
(8.16029 -0.229415 -6.79686e-25)
(8.12686 -0.21752 -1.79071e-24)
(8.13304 -0.221353 -1.68215e-22)
(8.13869 -0.225459 1.31443e-23)
(8.14708 -0.230227 1.40453e-24)
(8.10059 -0.207637 -6.41699e-24)
(8.11054 -0.214213 -3.24342e-23)
(8.121 -0.221253 -4.01049e-23)
(8.09184 -0.194521 0)
(8.09141 -0.201665 0)
(8.08507 -0.194308 0)
(8.08021 -0.105403 2.61497e-21)
(8.06227 -0.120606 3.37131e-24)
(8.06613 -0.113841 -4.65072e-25)
(8.05879 -0.128546 2.72284e-23)
(8.05373 -0.136289 -1.43705e-23)
(8.05762 -0.146533 -6.92744e-22)
(8.05557 -0.161055 -1.00835e-24)
(8.0606 -0.17257 -2.24313e-22)
(8.07174 -0.183938 2.6766e-23)
(8.06491 -0.183388 2.80267e-22)
(8.07502 -0.190051 -7.2866e-24)
(8.078 -0.0858637 -8.75659e-24)
(8.06791 -0.0865835 5.33431e-20)
(8.05033 -0.0628906 1.38645e-21)
(8.23888 -0.24638 0)
(8.23002 -0.247805 5.43653e-24)
(8.28313 -0.243626 0)
(8.27557 -0.248607 0)
(8.29122 -0.248177 0)
(8.26718 -0.251497 -2.6269e-24)
(8.25878 -0.254791 3.75981e-22)
(8.24194 -0.253627 0)
(8.31632 -0.245957 4.51299e-22)
(8.30703 -0.248324 -1.98186e-22)
(8.33713 -0.2322 -3.97987e-23)
(8.32861 -0.237502 2.52616e-24)
(8.2185 -0.244048 4.56276e-24)
(8.20065 -0.242452 9.5032e-23)
(8.20417 -0.247868 -7.86392e-24)
(8.18049 -0.234168 -1.48773e-24)
(8.17349 -0.237722 -5.36901e-24)
(8.18397 -0.240046 0)
(8.19363 -0.243616 -6.60707e-23)
(8.34716 -0.235934 1.90034e-24)
(8.36446 -0.235105 -3.04111e-22)
(8.16154 -0.238828 0)
(8.15436 -0.233405 5.34553e-25)
(8.13248 -0.229118 -2.77019e-24)
(8.15164 -0.232386 2.35592e-22)
(8.14583 -0.234876 -3.8879e-24)
(8.09487 -0.210493 -2.92108e-24)
(8.09984 -0.214045 -6.1422e-23)
(8.10468 -0.217388 -5.25361e-24)
(8.10994 -0.221284 -2.10604e-24)
(8.11511 -0.22513 1.89037e-24)
(8.12091 -0.228921 7.07224e-25)
(8.09034 -0.207002 0)
(8.08596 -0.203898 0)
(8.07974 -0.19513 -3.83884e-24)
(8.08234 -0.200153 0)
(8.07107 -0.106722 5.40422e-23)
(8.07761 -0.0997425 3.74904e-24)
(8.05183 -0.124328 3.05607e-24)
(8.06212 -0.108529 -4.46753e-25)
(8.05049 -0.143423 -3.18632e-23)
(8.04381 -0.139887 -1.27823e-22)
(8.0476 -0.151003 -1.5447e-23)
(8.04592 -0.158857 0)
(8.04566 -0.166362 0)
(8.0574 -0.180978 6.46738e-24)
(8.05253 -0.175945 2.01891e-24)
(8.05889 -0.187347 -1.01801e-22)
(8.07185 -0.195874 5.34977e-23)
(8.06198 -0.0710585 -4.54149e-23)
(8.0775 -0.0877612 -4.10597e-25)
(8.03596 -0.103862 1.30925e-22)
(8.05443 -0.058882 -1.19806e-21)
(8.22236 -0.250087 7.39349e-23)
(8.22588 -0.256032 3.95252e-24)
(8.27412 -0.256853 1.13284e-24)
(8.30061 -0.251166 2.43503e-24)
(8.29219 -0.256469 0)
(8.25334 -0.261119 -2.21351e-24)
(8.2615 -0.263748 -5.01297e-25)
(8.24526 -0.260417 0)
(8.237 -0.260505 -2.67372e-24)
(8.32433 -0.247327 1.37917e-24)
(8.32039 -0.257025 1.29304e-24)
(8.30757 -0.256744 2.18084e-24)
(8.33469 -0.250258 -1.13011e-24)
(8.21448 -0.252018 2.61858e-25)
(8.2074 -0.25338 -1.53201e-23)
(8.20018 -0.254902 -9.13287e-24)
(8.16815 -0.243033 -4.0654e-24)
(8.17319 -0.24653 3.69719e-22)
(8.18664 -0.245039 -3.3909e-24)
(8.18064 -0.24662 -3.52284e-24)
(8.18937 -0.250651 -1.04642e-23)
(8.35562 -0.242493 -1.98023e-24)
(8.34731 -0.248135 -1.27246e-24)
(8.36757 -0.246657 5.19328e-24)
(8.16169 -0.248143 -2.38431e-24)
(8.15087 -0.239258 -4.28965e-22)
(8.12653 -0.231074 3.54566e-24)
(8.13108 -0.234637 -1.13844e-22)
(8.14512 -0.240703 -6.30239e-24)
(8.14138 -0.239839 -4.86832e-23)
(8.0889 -0.213159 0)
(8.09886 -0.220685 -2.8968e-24)
(8.10897 -0.228625 -1.22594e-24)
(8.1211 -0.234451 9.04921e-24)
(8.07985 -0.205143 1.73934e-24)
(8.07884 -0.0936899 1.57372e-21)
(8.07252 -0.095108 -5.95119e-24)
(8.04417 -0.121247 -4.95363e-25)
(8.03914 -0.129584 -5.10084e-26)
(8.06024 -0.102618 -1.27968e-23)
(8.05337 -0.109533 -2.26158e-24)
(8.0363 -0.136699 -1.61965e-23)
(8.03315 -0.144598 -1.35778e-23)
(8.0385 -0.155339 0)
(8.04795 -0.171881 0)
(8.04 -0.16939 6.0223e-24)
(8.04713 -0.179779 -1.00374e-24)
(8.05442 -0.19017 4.51063e-22)
(8.06167 -0.193078 5.02403e-22)
(8.06585 -0.197568 -2.2848e-24)
(8.06954 -0.202766 -1.5368e-24)
(8.07228 -0.0870623 -3.57204e-25)
(8.04303 -0.0688792 -4.84045e-21)
(8.06802 -0.0927971 6.91373e-23)
(8.0307 -0.0647478 -1.96404e-20)
(8.0561 -0.0793469 4.14428e-23)
(8.22987 -0.26066 -6.29714e-23)
(8.22201 -0.262739 -9.5681e-23)
(8.27064 -0.264309 5.77886e-23)
(8.2791 -0.263608 1.34787e-24)
(8.28754 -0.263966 1.60074e-25)
(8.29602 -0.266384 0)
(8.24847 -0.269066 1.21704e-24)
(8.2656 -0.270558 1.45231e-24)
(8.2331 -0.267939 -2.39584e-24)
(8.3129 -0.262735 -1.16689e-24)
(8.32267 -0.265324 -4.70292e-23)
(8.30637 -0.265977 0)
(8.34335 -0.257245 -1.39469e-22)
(8.21085 -0.259276 2.45391e-25)
(8.19261 -0.256279 6.724e-23)
(8.1963 -0.262103 -6.6575e-24)
(8.17494 -0.251996 3.36867e-23)
(8.18524 -0.257405 -1.49464e-23)
(8.37896 -0.250274 -7.7297e-23)
(8.36855 -0.256361 -1.0517e-22)
(8.15389 -0.251983 -2.71639e-24)
(8.15913 -0.256498 1.28407e-22)
(8.14957 -0.244331 -3.42035e-22)
(8.13434 -0.240539 3.1732e-23)
(8.12873 -0.240957 2.07503e-24)
(8.13779 -0.248094 -1.23562e-25)
(8.0831 -0.215542 2.1026e-24)
(8.08824 -0.219564 0)
(8.09324 -0.223127 0)
(8.09825 -0.226897 -2.57446e-24)
(8.10278 -0.230852 -3.76588e-24)
(8.10783 -0.235286 -7.22299e-23)
(8.12326 -0.239391 3.51435e-24)
(8.1172 -0.237964 -2.45182e-22)
(8.07386 -0.207089 4.18779e-24)
(8.07807 -0.211753 -1.19288e-22)
(8.06385 -0.0968904 -1.21211e-23)
(8.0663 -0.0906251 1.25635e-23)
(8.04566 -0.113211 -2.32699e-24)
(8.03429 -0.117773 2.44198e-24)
(8.02858 -0.132901 -5.35507e-25)
(8.05438 -0.0980629 5.97739e-22)
(8.04453 -0.106854 2.3028e-22)
(8.03182 -0.151536 0)
(8.02449 -0.147799 0)
(8.03053 -0.159278 0)
(8.03803 -0.176521 4.50556e-24)
(8.03469 -0.170245 4.533e-23)
(8.04173 -0.180533 -8.1684e-25)
(8.04594 -0.184482 -2.66212e-22)
(8.04934 -0.190082 -7.04486e-24)
(8.05167 -0.196669 -2.38015e-24)
(8.06064 -0.200478 3.20208e-24)
(8.06796 -0.209276 2.03562e-23)
(8.0709 -0.0820913 -4.61413e-24)
(8.06895 -0.0849491 1.27341e-23)
(8.03729 -0.0470027 2.44079e-23)
(8.02025 -0.0844789 3.50847e-20)
(8.06443 -0.0822237 -1.73529e-21)
(8.22864 0.081738 1.07361e-23)
(8.22181 0.0903423 -1.1265e-21)
(8.17268 0.0579819 -4.35473e-23)
(8.19694 0.122885 0)
(8.21508 -0.265992 -3.91545e-23)
(8.22037 -0.271136 9.69771e-24)
(8.28309 -0.272797 2.58527e-23)
(8.30186 -0.273026 -2.25651e-24)
(8.25193 -0.276059 1.76722e-24)
(8.24431 -0.275496 1.45885e-23)
(8.26014 -0.277535 6.46687e-25)
(8.27026 -0.279356 0)
(8.22776 -0.274126 2.07071e-24)
(8.23557 -0.275503 1.15067e-24)
(8.33301 -0.269459 -9.25554e-25)
(8.32368 -0.27497 -8.6993e-25)
(8.34119 -0.267174 -6.19585e-24)
(8.35277 -0.264673 -3.30743e-22)
(8.20742 -0.267601 4.86962e-24)
(8.1996 -0.268112 -2.20255e-24)
(8.19178 -0.268777 5.85671e-23)
(8.17812 -0.258291 1.39978e-24)
(8.17066 -0.257968 -5.1457e-23)
(8.18128 -0.264094 -1.85243e-24)
(8.36115 -0.263616 -3.48949e-24)
(8.36869 -0.265318 7.03437e-23)
(8.14753 -0.253109 -2.86138e-25)
(8.16486 -0.258923 6.99442e-23)
(8.15739 -0.262425 4.89824e-24)
(8.12533 -0.244878 1.88436e-24)
(8.14155 -0.252672 0)
(8.13468 -0.253226 -3.285e-25)
(8.07689 -0.217827 5.35624e-24)
(8.08749 -0.225662 0)
(8.09686 -0.233544 -7.23018e-23)
(8.11241 -0.239427 -5.32758e-23)
(8.10559 -0.241878 -1.69984e-24)
(8.11538 -0.244429 4.20954e-24)
(8.06307 -0.0863716 8.39753e-22)
(8.02492 -0.114802 -1.25756e-22)
(8.02266 -0.122499 -6.67528e-24)
(8.02182 -0.129653 -3.8379e-23)
(8.0195 -0.137065 -4.87971e-25)
(8.04548 -0.10057 -9.13095e-23)
(8.04806 -0.0948003 1.16861e-22)
(8.03717 -0.103912 -5.72929e-23)
(8.0176 -0.144727 0)
(8.01731 -0.152287 -8.71494e-25)
(8.03042 -0.165412 4.99947e-24)
(8.02434 -0.161126 -7.08995e-25)
(8.03616 -0.181478 -2.75468e-24)
(8.02804 -0.172475 3.886e-24)
(8.04244 -0.190944 -5.17847e-25)
(8.05482 -0.201416 3.92591e-24)
(8.04874 -0.201902 -2.30364e-23)
(8.05868 -0.20582 1.67897e-22)
(8.06231 -0.210873 3.42618e-24)
(8.06663 -0.215786 2.48804e-24)
(8.03673 -0.0650656 -2.88839e-23)
(8.04794 -0.0549605 -1.72885e-20)
(8.04241 -0.0859524 -3.90445e-23)
(8.0665 -0.0773907 6.88558e-24)
(8.06264 -0.0773833 2.13062e-23)
(8.22989 0.0913534 -5.90815e-24)
(8.21894 0.101008 1.48216e-22)
(8.21379 0.0990395 5.27204e-25)
(8.22946 0.0942808 1.67381e-22)
(8.17953 0.0543529 -1.53356e-20)
(8.15209 0.139893 1.29101e-22)
(8.2198 -0.27852 -7.65401e-23)
(8.27909 -0.280749 -3.45382e-24)
(8.28806 -0.281222 8.34309e-23)
(8.29794 -0.280703 -5.72494e-24)
(8.30834 -0.280303 -2.0853e-22)
(8.25459 -0.284349 -1.85176e-23)
(8.23866 -0.282786 -4.08281e-24)
(8.27283 -0.28812 -4.17904e-25)
(8.3388 -0.277809 7.50057e-25)
(8.31742 -0.281944 -3.07381e-24)
(8.32553 -0.285719 7.88438e-25)
(8.3567 -0.273811 -6.80819e-24)
(8.20247 -0.27489 4.22762e-24)
(8.18465 -0.269643 -2.08923e-24)
(8.18699 -0.275422 -2.66166e-24)
(8.16779 -0.264772 4.29647e-24)
(8.17735 -0.270636 -1.76731e-25)
(8.3752 -0.268415 1.57668e-24)
(8.36794 -0.275585 1.66105e-24)
(8.14266 -0.258566 2.73543e-25)
(8.1585 -0.269298 4.53265e-24)
(8.15211 -0.267206 -2.38385e-22)
(8.11956 -0.24748 -2.81187e-23)
(8.12525 -0.250422 3.06633e-22)
(8.12925 -0.255279 1.57999e-23)
(8.13175 -0.259517 8.78249e-23)
(8.07112 -0.220655 3.31448e-24)
(8.07626 -0.225168 -1.97557e-22)
(8.08206 -0.227697 2.93515e-24)
(8.08703 -0.231037 -2.75709e-24)
(8.09077 -0.235333 -5.33607e-24)
(8.09533 -0.239742 -2.67631e-24)
(8.09957 -0.244407 0)
(8.10356 -0.248559 6.17362e-25)
(8.1142 -0.249498 1.66282e-23)
(8.05251 -0.0878451 -1.32907e-22)
(8.05688 -0.0811573 2.02165e-21)
(8.02754 -0.108303 -1.14646e-24)
(8.01707 -0.111741 -5.86493e-22)
(8.01339 -0.125667 1.37066e-22)
(8.01126 -0.140698 0)
(8.04327 -0.0898936 -3.77323e-24)
(8.02926 -0.101891 1.55806e-23)
(8.01967 -0.157997 -5.34837e-23)
(8.01228 -0.155349 -1.00944e-23)
(8.01907 -0.16449 -5.62913e-25)
(8.03049 -0.182121 -1.14313e-23)
(8.03394 -0.1864 -5.30883e-24)
(8.02639 -0.178542 -4.38538e-24)
(8.02225 -0.17426 9.23592e-25)
(8.03596 -0.191377 -2.87937e-24)
(8.03914 -0.197043 1.33019e-25)
(8.04238 -0.202499 3.24838e-23)
(8.04541 -0.207752 5.12382e-24)
(8.05566 -0.211957 9.26771e-25)
(8.06427 -0.22275 0)
(8.05776 -0.0646547 3.30103e-23)
(8.03935 -0.0581118 2.69639e-23)
(7.99858 -0.0824942 3.49225e-20)
(8.0575 -0.0691559 -6.52215e-24)
(8.05594 -0.0745998 7.43142e-22)
(8.19399 0.0876789 -1.09812e-23)
(8.22005 0.102807 -5.61862e-21)
(8.22503 0.101575 1.9861e-24)
(8.21823 0.11245 4.57811e-24)
(8.21997 0.101506 2.27084e-22)
(8.2088 0.107902 -2.56535e-21)
(8.22925 0.107145 1.64248e-23)
(8.1507 0.0660187 3.18534e-24)
(8.17984 0.0857212 1.25906e-22)
(8.21782 0.141981 -7.66084e-20)
(8.21208 -0.283687 5.05032e-24)
(8.22043 -0.287405 2.90158e-23)
(8.29242 -0.28966 -2.80888e-24)
(8.31038 -0.291021 -1.74832e-22)
(8.25832 -0.293592 3.91288e-23)
(8.24925 -0.291819 -4.73923e-24)
(8.24215 -0.290054 -1.43182e-22)
(8.23323 -0.288965 1.38869e-22)
(8.26586 -0.293469 1.5169e-23)
(8.27369 -0.294255 1.38108e-24)
(8.33445 -0.287664 1.31934e-23)
(8.34278 -0.286734 4.6434e-25)
(8.32726 -0.295304 7.59123e-25)
(8.36007 -0.281519 0)
(8.35261 -0.28443 -3.40338e-25)
(8.20522 -0.281695 2.24748e-22)
(8.19696 -0.280813 3.36035e-24)
(8.19036 -0.279934 -2.12734e-24)
(8.18297 -0.280844 1.40327e-22)
(8.17028 -0.271474 -1.75362e-25)
(8.16407 -0.271493 0)
(8.17316 -0.277334 -2.63342e-23)
(8.38216 -0.273438 -7.3683e-25)
(8.36596 -0.285326 7.62171e-25)
(8.13543 -0.261819 -1.34431e-23)
(8.14174 -0.264255 2.9633e-25)
(8.15907 -0.276139 -1.22918e-24)
(8.14653 -0.268999 4.52913e-24)
(8.14841 -0.27564 3.42892e-24)
(8.12235 -0.257491 2.28072e-24)
(8.12946 -0.264732 -8.87279e-25)
(8.07616 -0.230741 1.39795e-23)
(8.08455 -0.237349 -1.98394e-22)
(8.09269 -0.246634 0)
(8.1087 -0.25133 1.52551e-23)
(8.10238 -0.253883 4.80456e-24)
(8.11275 -0.25482 7.20779e-23)
(8.0107 -0.107063 -2.52367e-23)
(8.0071 -0.113144 -1.85576e-23)
(8.00746 -0.123521 -7.3441e-24)
(8.00713 -0.130299 1.09864e-24)
(8.00574 -0.136708 8.89178e-24)
(8.00448 -0.143823 0)
(8.0399 -0.0848017 -2.38437e-22)
(8.03313 -0.0912918 -3.30724e-22)
(8.01714 -0.100369 -1.19375e-23)
(8.02583 -0.0959476 3.96381e-22)
(8.00645 -0.156053 -3.93942e-22)
(8.00827 -0.162064 -7.78418e-24)
(8.01757 -0.1704 9.28369e-25)
(8.01264 -0.166329 0)
(8.02463 -0.183919 9.3098e-23)
(8.02989 -0.191994 -1.72004e-22)
(8.01537 -0.176662 -1.55921e-23)
(8.03533 -0.202861 4.84383e-24)
(8.04892 -0.21266 0)
(8.04194 -0.213372 0)
(8.05308 -0.218109 0)
(8.057 -0.223169 0)
(8.06134 -0.22861 2.99019e-24)
(8.03021 -0.0680855 -6.18651e-23)
(8.05193 -0.0588006 1.24069e-25)
(8.01612 -0.0719476 -6.89974e-23)
(8.05547 -0.0672802 -1.12723e-22)
(8.05676 -0.0642199 -1.25849e-21)
(8.05335 -0.069815 -2.5178e-22)
(8.04846 -0.075625 -7.03627e-22)
(8.22433 0.106921 1.08087e-20)
(8.21217 0.119867 1.13599e-24)
(8.21766 0.122448 8.08343e-23)
(8.20556 0.12084 3.78226e-24)
(8.19889 0.118979 5.52794e-24)
(8.23474 0.109353 -2.13304e-22)
(8.24355 0.110769 6.26201e-24)
(8.2283 0.117577 1.59739e-23)
(8.25434 0.111073 -3.38927e-22)
(8.26438 0.112651 -7.8102e-24)
(8.1711 0.0702134 -1.98373e-23)
(8.15749 0.149656 -2.28078e-22)
(8.20686 -0.290084 3.19484e-24)
(8.22691 -0.290245 -3.76927e-24)
(8.22015 -0.294033 -1.38375e-24)
(8.29631 -0.296515 9.09379e-25)
(8.28654 -0.296533 0)
(8.30315 -0.298965 3.96602e-24)
(8.31115 -0.300659 -2.06684e-23)
(8.26164 -0.300081 -7.6696e-24)
(8.24396 -0.298795 -1.9618e-24)
(8.23088 -0.296857 -2.54428e-24)
(8.28014 -0.299094 1.63313e-24)
(8.27313 -0.303268 2.29288e-22)
(8.34728 -0.294937 -1.24281e-23)
(8.31904 -0.301503 3.36425e-24)
(8.3273 -0.303157 -4.8217e-24)
(8.19339 -0.28687 2.23846e-24)
(8.17715 -0.283278 5.80936e-25)
(8.18179 -0.288393 -2.74595e-24)
(8.16968 -0.284712 1.14095e-22)
(8.38879 -0.276881 6.88256e-23)
(8.38152 -0.282341 -1.49167e-22)
(8.37484 -0.287263 2.41341e-24)
(8.3671 -0.293219 -2.43832e-22)
(8.13901 -0.272696 -1.19936e-24)
(8.15235 -0.279317 -1.19635e-24)
(8.15842 -0.282412 -1.45935e-23)
(8.14635 -0.2815 0)
(8.11581 -0.259042 -4.90218e-24)
(8.1191 -0.263161 6.08616e-24)
(8.12259 -0.267164 -8.64925e-25)
(8.12738 -0.271054 0)
(8.0776 -0.237053 4.35139e-23)
(8.07135 -0.235392 -1.2623e-24)
(8.08105 -0.242089 -3.80503e-24)
(8.08476 -0.247195 0)
(8.08887 -0.25261 -1.62118e-24)
(8.10251 -0.261106 3.62501e-24)
(8.09727 -0.258879 2.01762e-23)
(8.10964 -0.260881 3.83554e-25)
(8.00678 -0.101588 1.2792e-23)
(8.00515 -0.118302 -6.19419e-24)
(7.99943 -0.113285 3.82898e-22)
(8.00121 -0.123273 0)
(8.00096 -0.132833 2.20545e-22)
(8.00273 -0.150112 -5.90751e-24)
(7.99744 -0.144769 0)
(8.04162 -0.0782025 -4.3403e-24)
(8.03178 -0.079579 -5.84514e-25)
(8.02267 -0.089344 -5.26095e-24)