/*--------------------------------*- C++ -*----------------------------------*\
| =========                 |                                                 |
| \\      /  F ield         | OpenFOAM: The Open Source CFD Toolbox           |
|  \\    /   O peration     | Version:  v2012                                 |
|   \\  /    A nd           | Website:  www.openfoam.com                      |
|    \\/     M anipulation  |                                                 |
\*---------------------------------------------------------------------------*/
FoamFile
{
    version     2.0;
    format      ascii;
    class       volVectorField;
    location    "1.9";
    object      cellDisplacement;
}
// * * * * * * * * * * * * * * * * * * * * * * * * * * * * * * * * * * * * * //

dimensions      [0 1 0 0 0 0 0];


internalField   nonuniform List<vector> 
13611
(
(0.000179528 -0.00302983 0)
(0.000316145 -0.00616197 0)
(7.70781e-05 -0.00139894 0)
(0.000418897 -0.00728573 0)
(0.000548513 -0.00948528 0)
(0.000737345 -0.0135632 0)
(0.000297886 -0.00710887 0)
(0.000110855 -0.00266898 0)
(0.00103502 -0.0168976 0)
(0.000583896 -0.0113105 0)
(0.000696474 -0.0154786 0)
(0.000197572 -0.00526951 0)
(0.000372093 -0.0101083 0)
(4.41699e-05 -0.00126482 0)
(0.000954175 -0.0178239 0)
(0.000490473 -0.0118885 0)
(0.000751912 -0.0175074 0)
(0.00054302 -0.0145034 0)
(0.000161853 -0.0058223 0)
(0.000304465 -0.0106324 0)
(8.55221e-05 -0.00317542 0)
(0.00110118 -0.0192175 0)
(0.00101252 -0.0193824 0)
(0.000862906 -0.0182466 0)
(0.000660289 -0.0188025 0)
(0.000485943 -0.0162039 0)
(0.000199079 -0.00813765 0)
(0.00030065 -0.0130914 0)
(3.94507e-05 -0.0019568 0)
(0.0011638 -0.0200353 0)
(0.000948511 -0.0205763 0)
(0.000854185 -0.0201565 0)
(0.000681092 -0.020641 0)
(0.000544287 -0.0184805 0)
(0.00036236 -0.0157007 0)
(0.00017035 -0.00903865 0)
(0.000217016 -0.0122076 0)
(4.38046e-05 -0.00326531 0)
(0.00114402 -0.0212226 0)
(0.000964259 -0.0220112 0)
(0.000769875 -0.0211832 0)
(0.000588617 -0.0214924 0)
(0.000504589 -0.0201959 0)
(0.000302236 -0.0180264 0)
(0.000116488 -0.00823757 0)
(0.000162214 -0.0131738 0)
(1.13701e-05 -0.00133541 0)
(7.22347e-05 -0.00597371 0)
(0.00105546 -0.0222042 0)
(0.00122065 -0.0217809 0)
(0.000869399 -0.0231375 0)
(0.000770796 -0.0227115 0)
(0.000565541 -0.0227955 0)
(0.000424313 -0.0209684 0)
(0.000338068 -0.0203996 0)
(0.000203699 -0.0179735 0)
(0.000108132 -0.0108107 0)
(0.000150323 -0.0157402 0)
(1.3399e-05 -0.00297917 0)
(3.48123e-05 -0.00574445 0)
(0.00107635 -0.0234727 0)
(0.0011821 -0.0230665 0)
(0.000856504 -0.0244318 0)
(0.00069022 -0.0238051 0)
(0.0013407 -0.0228927 0)
(0.000480252 -0.023514 0)
(0.000609702 -0.0237973 0)
(0.000414511 -0.0230252 0)
(0.000266726 -0.0220008 0)
(0.000152209 -0.0205655 0)
(5.87335e-05 -0.0108484 0)
(6.43254e-05 -0.0161815 0)
(-1.06612e-06 -0.00171733 0)
(2.84842e-05 -0.00792292 0)
(0.00101397 -0.0246901 0)
(0.0012376 -0.0235449 0)
(0.0007626 -0.0253644 0)
(0.000916083 -0.0250674 0)
(0.000692102 -0.0251881 0)
(0.000470735 -0.0248886 0)
(0.000542841 -0.0250416 0)
(0.000334713 -0.0242084 0)
(0.000187951 -0.0221949 0)
(0.000271843 -0.023799 0)
(6.59401e-05 -0.0209796 0)
(3.26776e-05 -0.0136123 0)
(2.56028e-05 -0.0188409 0)
(-1.02157e-05 -0.00415763 0)
(-3.48458e-06 -0.00778955 0)
(0.00105374 -0.0257961 0)
(0.00122091 -0.0245225 0)
(0.000755498 -0.026508 0)
(0.000844785 -0.0263809 0)
(0.000614092 -0.0262207 0)
(0.00131845 -0.024509 0)
(0.000404075 -0.0259186 0)
(0.00054599 -0.0261067 0)
(0.000329729 -0.0257477 0)
(0.00014785 -0.0239294 0)
(0.00019875 -0.024806 0)
(1.20845e-05 -0.0230858 0)
(-2.02777e-05 -0.0133799 0)
(-5.5607e-05 -0.0198639 0)
(-2.3877e-05 -0.00430428 0)
(-2.64257e-05 -0.010259 0)
(0.00115215 -0.0255125 0)
(0.000963136 -0.0271513 0)
(0.000664294 -0.0276356 0)
(0.000856227 -0.0273323 0)
(0.000593013 -0.0275184 0)
(0.00131179 -0.0253811 0)
(0.00138292 -0.0255481 0)
(0.000402365 -0.0272499 0)
(0.000474074 -0.0272635 0)
(0.000266119 -0.0267968 0)
(8.09476e-05 -0.02504 0)
(0.000160828 -0.026342 0)
(2.43853e-05 -0.0248223 0)
(-5.93969e-05 -0.0235975 0)
(-7.26252e-05 -0.015513 0)
(-9.6308e-05 -0.0184122 0)
(-9.87316e-05 -0.0225305 0)
(-1.36525e-05 -0.00185544 0)
(-5.22405e-05 -0.00750124 0)
(-5.50867e-05 -0.0100261 0)
(0.00119864 -0.0262167 0)
(0.000972052 -0.028175 0)
(0.000666541 -0.028549 0)
(0.000768546 -0.0283771 0)
(0.000495965 -0.0282453 0)
(0.00135309 -0.0266098 0)
(0.000326774 -0.0282381 0)
(0.000267024 -0.0279635 0)
(0.000189336 -0.0271092 0)
(7.64513e-05 -0.0267228 0)
(-5.36949e-05 -0.0262233 0)
(-9.74287e-05 -0.0254955 0)
(-0.00010603 -0.0144134 0)
(-0.000174402 -0.0196965 0)
(-0.000169202 -0.0237631 0)
(-3.81209e-05 -0.00354774 0)
(-8.16722e-05 -0.0085789 0)
(-8.94434e-05 -0.0120086 0)
(0.00117047 -0.0272167 0)
(0.000883359 -0.0292657 0)
(0.00107061 -0.0281092 0)
(0.000603155 -0.0295816 0)
(0.000751015 -0.0293607 0)
(0.000442187 -0.0292927 0)
(0.0012544 -0.0274379 0)
(0.00143324 -0.0266891 0)
(0.000302121 -0.0294545 0)
(0.000199925 -0.0287539 0)
(0.000148411 -0.0283723 0)
(1.7726e-05 -0.0280623 0)
(-8.08491e-05 -0.0276033 0)
(-0.000158953 -0.0263769 0)
(-0.000159158 -0.015571 0)
(-0.000196761 -0.0179462 0)
(-0.000220335 -0.0219425 0)
(-0.000195486 -0.0257491 0)
(-0.000214524 -0.023512 0)
(-2.23717e-05 -0.00175086 0)
(-7.97335e-05 -0.00701766 0)
(-0.000111013 -0.0112032 0)
(0.000796153 -0.0296838 0)
(0.000888864 -0.0300943 0)
(0.00105469 -0.0291902 0)
(0.000515405 -0.0302713 0)
(0.000653541 -0.030076 0)
(0.000347114 -0.0298494 0)
(0.000453353 -0.0301755 0)
(0.00123335 -0.0284165 0)
(0.00141643 -0.027579 0)
(0.00021345 -0.0302115 0)
(0.00017332 -0.0297738 0)
(8.54669e-05 -0.0293204 0)
(-5.12601e-05 -0.0283509 0)
(2.40859e-05 -0.0293752 0)
(-0.000160645 -0.0286444 0)
(-0.000195549 -0.0281485 0)
(-0.000152898 -0.0133302 0)
(-0.000257492 -0.0191109 0)
(-0.000290408 -0.0229224 0)
(-0.000252589 -0.0267262 0)
(-0.000286511 -0.0252958 0)
(-4.94722e-05 -0.00324772 0)
(-0.000114379 -0.00827312 0)
(0.000737813 -0.0309054 0)
(0.000963051 -0.0300463 0)
(0.000794273 -0.031075 0)
(0.00113784 -0.0292248 0)
(0.000482282 -0.0313991 0)
(0.000618511 -0.0309325 0)
(0.000298398 -0.0310942 0)
(0.0003528 -0.0313016 0)
(0.00131815 -0.0284347 0)
(0.00150192 -0.0275217 0)
(0.00017142 -0.0313334 0)
(9.44651e-05 -0.0303085 0)
(-0.000112186 -0.0297548 0)
(-4.85125e-05 -0.0306685 0)
(-0.000179047 -0.0298999 0)
(-0.000255283 -0.0287843 0)
(-0.000179839 -0.0133405 0)
(-0.000278137 -0.0179974 0)
(-0.000308894 -0.0218373 0)
(-0.00033127 -0.0250015 0)
(-0.000296901 -0.0265383 0)
(-0.000274726 -0.0280195 0)
(-9.70577e-05 -0.0062931 0)
(-2.64543e-05 -0.00155021 0)
(-0.000159449 -0.0109812 0)
(0.000658611 -0.0314244 0)
(0.000950142 -0.0308496 0)
(0.000785311 -0.0318247 0)
(0.00111152 -0.030242 0)
(0.000398648 -0.0322305 0)
(0.000537796 -0.0315514 0)
(0.00021171 -0.0318156 0)
(0.000330063 -0.0322341 0)
(0.00129888 -0.0293247 0)
(0.00148998 -0.0283454 0)
(8.91566e-05 -0.0319718 0)
(5.26689e-05 -0.0313843 0)
(-0.000112058 -0.0307418 0)
(-5.90515e-05 -0.0317513 0)
(-0.00023689 -0.0310282 0)
(-0.000309221 -0.0300188 0)
(-0.000239752 -0.0155741 0)
(-0.000338397 -0.0195938 0)
(-0.000372408 -0.0229411 0)
(-0.000392652 -0.0262433 0)
(-0.000344656 -0.0278336 0)
(-0.000327987 -0.028634 0)
(-0.000127555 -0.00739281 0)
(-5.89993e-05 -0.00314397 0)
(-0.00019436 -0.0116922 0)
(0.000589655 -0.0323674 0)
(0.000869298 -0.0316253 0)
(0.00101902 -0.0309515 0)
(0.000713778 -0.0326861 0)
(0.00119303 -0.0302455 0)
(0.000376493 -0.0331153 0)
(0.000514697 -0.0324286 0)
(0.000154982 -0.0329844 0)
(0.000254247 -0.0331029 0)
(0.0013861 -0.0292821 0)
(4.69987e-05 -0.0329758 0)
(-1.59189e-05 -0.0319941 0)
(-0.000178479 -0.0319565 0)
(-0.000128073 -0.0328158 0)
(-0.000291371 -0.0313369 0)
(-0.00023608 -0.0321004 0)
(-0.000321817 -0.0309313 0)
(-0.000353632 -0.0297673 0)
(-0.00024575 -0.0143103 0)
(-0.000367351 -0.0194485 0)
(-0.000380191 -0.0218681 0)
(-0.000423473 -0.0248834 0)
(-0.000430113 -0.0261035 0)
(-0.00042349 -0.0279332 0)
(-0.000396971 -0.0284575 0)
(-0.000110513 -0.00591834 0)
(-0.000178513 -0.010074 0)
(-3.31999e-05 -0.00162259 0)
(0.000574512 -0.0331308 0)
(0.000873697 -0.0322461 0)
(0.000967951 -0.0318605 0)
(0.000728138 -0.0332834 0)
(0.000628725 -0.0332198 0)
(0.00117431 -0.0311382 0)
(0.000438091 -0.0331554 0)
(0.000296726 -0.0339177 0)
(7.28955e-05 -0.0334989 0)
(0.00017918 -0.0334541 0)
(0.000243052 -0.0339085 0)
(0.00136209 -0.0300485 0)
(-3.3628e-05 -0.0336808 0)
(-6.223e-05 -0.0333098 0)
(-0.000183423 -0.0329461 0)
(-0.000130849 -0.033749 0)
(-0.00034384 -0.032588 0)
(-0.000296557 -0.033234 0)
(-0.000385881 -0.0319407 0)
(-0.000408424 -0.0304466 0)
(-0.000289193 -0.0151994 0)
(-0.000348812 -0.0176882 0)
(-0.000429141 -0.0215852 0)
(-0.000435719 -0.0229042 0)
(-0.000478027 -0.025577 0)
(-0.000497084 -0.0275772 0)
(-0.000484206 -0.0289511 0)
(-0.000435832 -0.0299257 0)
(-0.000158091 -0.00789499 0)
(-0.000205185 -0.0104485 0)
(-7.45264e-05 -0.00347031 0)
(0.0004733 -0.0340435 0)
(0.000804311 -0.0330361 0)
(0.000985576 -0.03234 0)
(0.000647318 -0.0341739 0)
(0.000582559 -0.0342347 0)
(0.00107603 -0.0320727 0)
(0.00125939 -0.0309549 0)
(0.000413752 -0.0339936 0)
(0.00027277 -0.0347325 0)
(9.6629e-06 -0.0344789 0)
(0.000126667 -0.0344481 0)
(0.000170501 -0.0346341 0)
(0.00141525 -0.0301989 0)
(0.00150543 -0.0297263 0)
(-5.95011e-05 -0.0346174 0)
(-0.000248007 -0.033993 0)
(-0.000194934 -0.0347727 0)
(-0.000392788 -0.0328231 0)
(-0.000347782 -0.0334011 0)
(-0.000303163 -0.0341385 0)
(-0.000428717 -0.0321192 0)
(-0.00044023 -0.0315274 0)
(-0.000261917 -0.0129111 0)
(-0.000398481 -0.0184849 0)
(-0.000474217 -0.0222855 0)
(-0.000482942 -0.0246735 0)
(-0.00052307 -0.0271942 0)
(-0.000518587 -0.0287433 0)
(-0.000519236 -0.0303368 0)
(-0.00049666 -0.0307719 0)
(-0.00014803 -0.00699119 0)
(-7.40574e-05 -0.00327919 0)
(0.000442077 -0.0348551 0)
(0.000808598 -0.0336675 0)
(0.000894764 -0.0333632 0)
(0.000645619 -0.0347057 0)
(0.000498067 -0.0349464 0)
(0.00106073 -0.0328147 0)
(0.00125855 -0.03151 0)
(0.000327867 -0.0347698 0)
(0.000190668 -0.0355014 0)
(5.59576e-06 -0.0351157 0)
(5.95288e-05 -0.0350738 0)
(0.000142965 -0.0354045 0)
(0.00134866 -0.0310745 0)
(0.00152579 -0.0302262 0)
(-0.000121875 -0.0354669 0)
(-0.000257021 -0.0348913 0)
(-0.000201474 -0.035465 0)
(-0.000445326 -0.0337678 0)
(-0.000407123 -0.0344579 0)
(-0.000367121 -0.0351653 0)
(-0.000481112 -0.0331226 0)
(-0.000496694 -0.0321884 0)
(-0.000299145 -0.0137351 0)
(-0.000464291 -0.0209071 0)
(-0.000376343 -0.0168112 0)
(-0.000532913 -0.0243418 0)
(-0.000535321 -0.0254378 0)
(-0.000579953 -0.0280469 0)
(-0.000575038 -0.0299857 0)
(-0.000576258 -0.03099 0)
(-0.000527256 -0.0319584 0)
(-0.000182938 -0.00810612 0)
(-3.26387e-05 -0.00140924 0)
(-0.000139809 -0.0059902 0)
(0.000350745 -0.0356442 0)
(0.000729766 -0.0344516 0)
(0.000902377 -0.0338447 0)
(0.000577917 -0.0355093 0)
(0.000454524 -0.0358089 0)
(0.00112051 -0.0328535 0)
(0.000978946 -0.0335456 0)
(0.00119962 -0.0323372 0)
(0.000295967 -0.0356084 0)
(0.000159408 -0.0362968 0)
(-6.69676e-05 -0.0361025 0)
(2.62762e-05 -0.035945 0)
(6.56914e-05 -0.0360889 0)
(0.00135482 -0.0315495 0)
(0.00144081 -0.0311799 0)
(-0.000126036 -0.0363241 0)
(-0.000171788 -0.0356709 0)
(-0.0003169 -0.0357112 0)
(-0.000257969 -0.0363197 0)
(-0.000490339 -0.0338823 0)
(-0.000455085 -0.0345837 0)
(-0.000419033 -0.0353097 0)
(-0.00037071 -0.0358376 0)
(-0.000519368 -0.0331328 0)
(-0.000284084 -0.0124714 0)
(-0.000518979 -0.0219814 0)
(-0.000410815 -0.0172984 0)
(-0.000583484 -0.0251369 0)
(-0.00058733 -0.0271786 0)
(-0.000619611 -0.029383 0)
(-0.000613518 -0.0302004 0)
(-0.000615035 -0.0320254 0)
(-0.000582687 -0.0328391 0)
(-0.000235846 -0.0101951 0)
(-5.70324e-05 -0.00231803 0)
(-0.000155639 -0.00633987 0)
(0.000318483 -0.0363857 0)
(0.000707187 -0.0351321 0)
(0.000837536 -0.0346656 0)
(0.000494154 -0.0360193 0)
(0.000611781 -0.0357995 0)
(0.000366293 -0.0364564 0)
(0.00104977 -0.0337998 0)
(0.000969901 -0.0341261 0)
(0.00126082 -0.0324067 0)
(0.000209401 -0.036368 0)
(7.65543e-05 -0.037006 0)
(-5.20357e-05 -0.0365766 0)
(3.07076e-05 -0.0368944 0)
(0.00145768 -0.031572 0)
(-0.000204008 -0.0373323 0)
(-0.000230624 -0.0365537 0)
(-0.000341174 -0.0365532 0)
(-0.000315157 -0.036812 0)
(-0.000543306 -0.0347585 0)
(-0.000511609 -0.0354731 0)
(-0.000481844 -0.0362268 0)
(-0.00041405 -0.0365812 0)
(-0.000569369 -0.0339369 0)
(-0.000333255 -0.0137985 0)
(-0.000518397 -0.0210713 0)
(-0.000581041 -0.0241561 0)
(-0.000382831 -0.0156411 0)
(-0.000471235 -0.0191249 0)
(-0.000636612 -0.0268563 0)
(-0.000637891 -0.0278088 0)
(-0.000669845 -0.0301722 0)
(-0.00066407 -0.0313572 0)
(-0.000664002 -0.0325695 0)
(-0.000615969 -0.0328376 0)
(-0.000603737 -0.0338885 0)
(-0.000253094 -0.0103499 0)
(-0.000114074 -0.00455554 0)
(-2.49547e-05 -0.000982404 0)
(-0.000215461 -0.00858598 0)
(-0.00167426 -0.0140436 0)
(-0.000369663 -0.00301674 0)
(0.000228708 -0.0371911 0)
(0.000752506 -0.0352374 0)
(0.000885881 -0.0348158 0)
(0.000435815 -0.0368976 0)
(0.000562025 -0.0365386 0)
(0.000309263 -0.0373097 0)
(0.00105671 -0.0341993 0)
(0.00123339 -0.0330905 0)
(0.000173682 -0.0372131 0)
(4.12853e-05 -0.0377719 0)
(-9.06528e-05 -0.0373707 0)
(-4.7677e-05 -0.0375492 0)
(0.00156901 -0.031009 0)
(0.00139071 -0.0323593 0)
(-0.00025585 -0.0373373 0)
(-0.000216657 -0.0380279 0)
(-0.000399006 -0.037028 0)
(-0.000352261 -0.0376687 0)
(-0.000584499 -0.0348053 0)
(-0.000554298 -0.0355318 0)
(-0.000525739 -0.0362623 0)
(-0.000499313 -0.0369945 0)
(-0.000464179 -0.0370356 0)
(-0.00030893 -0.0123896 0)
(-0.000578588 -0.0223698 0)
(-0.000631004 -0.0250171 0)
(-0.000425061 -0.0165611 0)
(-0.000477706 -0.0185025 0)
(-0.000688831 -0.0276226 0)
(-0.00068811 -0.0292219 0)
(-0.000693973 -0.0312949 0)
(-0.000697912 -0.0301602 0)
(-0.000684459 -0.0323285 0)
(-0.00069452 -0.0336302 0)
(-0.000668086 -0.0337796 0)
(-0.000657012 -0.0347618 0)
(-0.000111108 -0.00425923 0)
(-5.441e-05 -0.00207073 0)
(-0.000239291 -0.00914898 0)
(-0.00136918 -0.0114835 0)
(-0.00176454 -0.0159803 0)
(-0.00221188 -0.0180793 0)
(-0.000716327 -0.00594455 0)
(-0.000182031 -0.00159326 0)
(0.000218991 -0.0377923 0)
(0.000695624 -0.0361287 0)
(0.000846753 -0.0355052 0)
(0.000469952 -0.0371269 0)
(0.000339412 -0.037537 0)
(0.000600222 -0.0367603 0)
(0.00113722 -0.0339012 0)
(0.00097908 -0.0350746 0)
(0.00129679 -0.0330196 0)
(8.77476e-05 -0.0379103 0)
(-3.99762e-05 -0.0384261 0)
(-0.000159908 -0.0379614 0)
(-8.29198e-05 -0.0383125 0)
(0.00141446 -0.0326266 0)
(-0.000322228 -0.037962 0)
(-0.000276215 -0.0388112 0)
(-0.000442033 -0.0377056 0)
(-0.000412586 -0.0382861 0)
(-0.000639959 -0.035716 0)
(-0.00060324 -0.0362712 0)
(-0.000583059 -0.0370444 0)
(-0.00056423 -0.0378263 0)
(-0.00048623 -0.0377759 0)
(-0.000340135 -0.0130486 0)
(-0.000576113 -0.0215914 0)
(-0.000630113 -0.0241717 0)
(-0.000685834 -0.0267642 0)
(-0.000405462 -0.0153174 0)
(-0.000523804 -0.0196556 0)
(-0.000732197 -0.0289521 0)
(-0.000728337 -0.0295822 0)
(-0.000734983 -0.0320734 0)
(-0.000750838 -0.0313207 0)
(-0.000738199 -0.033199 0)
(-0.000741527 -0.0343521 0)
(-0.000687912 -0.0346613 0)
(-0.000678505 -0.0357198 0)
(-0.000146984 -0.00549113 0)
(-2.96169e-05 -0.00108733 0)
(-0.000207454 -0.00773991 0)
(-0.000307378 -0.0115356 0)
(-0.00118423 -0.0107125 0)
(-0.00199795 -0.0182022 0)
(-0.00157982 -0.0154734 0)
(-0.00215934 -0.0187756 0)
(-0.000865054 -0.0077696 0)
(-0.000348769 -0.00332221 0)
(0.000148385 -0.0385819 0)
(0.000741379 -0.0362457 0)
(0.000891468 -0.0356292 0)
(0.000412239 -0.0379688 0)
(0.000286917 -0.0383275 0)
(0.000542501 -0.0374942 0)
(0.00110688 -0.0346372 0)
(0.00101268 -0.0353177 0)
(0.00126273 -0.0337588 0)
(4.08542e-05 -0.0387244 0)
(-7.34582e-05 -0.0390968 0)
(-0.000196945 -0.0388146 0)
(-0.000162501 -0.0389808 0)
(0.00148548 -0.0322557 0)
(0.00133482 -0.0334787 0)
(-0.000371287 -0.0387551 0)
(-0.000260259 -0.0392569 0)
(-0.000337451 -0.0393204 0)
(-0.000452464 -0.0383018 0)
(-0.000430467 -0.0389689 0)
(-0.000647791 -0.0364121 0)
(-0.000617023 -0.0369918 0)
(-0.00060343 -0.0378334 0)
(-0.00057613 -0.0384383 0)
(-0.000532584 -0.0383405 0)
(-0.000620351 -0.0224082 0)
(-0.000673564 -0.0249821 0)
(-0.000730676 -0.0273571 0)
(-0.000440893 -0.0160435 0)
(-0.000539361 -0.0195036 0)
(-0.000778812 -0.0297781 0)
(-0.00077246 -0.0306982 0)
(-0.00076353 -0.0321235 0)
(-0.000757571 -0.033001 0)
(-0.000783451 -0.0314845 0)
(-0.000765328 -0.0341681 0)
(-0.000766415 -0.0352652 0)
(-0.000739473 -0.0354298 0)
(-0.000732432 -0.036487 0)
(-0.000124666 -0.00453776 0)
(-6.38783e-05 -0.00230201 0)
(-0.00023901 -0.00860738 0)
(-0.00032766 -0.011868 0)
(-0.00130777 -0.012786 0)
(-0.00203838 -0.0197869 0)
(-0.00170023 -0.0176717 0)
(-0.00243312 -0.0208294 0)
(-0.00231725 -0.0206847 0)
(-0.00264989 -0.0219527 0)
(-0.000682374 -0.00654997 0)
(-0.000173357 -0.00176957 0)
(6.55641e-05 -0.0390137 0)
(0.000152824 -0.039019 0)
(0.000698822 -0.036934 0)
(0.000826337 -0.0364958 0)
(0.00044818 -0.038103 0)
(0.000325464 -0.0385302 0)
(0.000209658 -0.0388868 0)
(0.000554508 -0.0378203 0)
(0.00117006 -0.0345487 0)
(0.00095966 -0.0359939 0)
(-3.90188e-05 -0.0392531 0)
(-0.000151077 -0.0397684 0)
(-0.000198598 -0.0397736 0)
(0.00157401 -0.0321276 0)
(0.00149072 -0.0326121 0)
(0.0013454 -0.0337552 0)
(-0.000380165 -0.0393373 0)
(-0.00031149 -0.0399576 0)
(-0.000366132 -0.0400989 0)
(-0.000514626 -0.039016 0)
(-0.000489993 -0.0396399 0)
(-0.000690009 -0.0372489 0)
(-0.000669994 -0.0376107 0)
(-0.000662625 -0.0385038 0)
(-0.000624433 -0.0392144 0)
(-0.000549417 -0.0389762 0)
(-0.000598366 -0.0211756 0)
(-0.00066533 -0.0237327 0)
(-0.000683531 -0.0246958 0)
(-0.000719579 -0.0264609 0)
(-0.000783416 -0.0287392 0)
(-0.000423601 -0.015001 0)
(-0.000506536 -0.0181036 0)
(-0.000801839 -0.0297501 0)
(-0.0008038 -0.0308528 0)
(-0.000808443 -0.033146 0)
(-0.00080614 -0.0337041 0)
(-0.000830239 -0.0325151 0)
(-0.000814849 -0.034907 0)
(-0.000815252 -0.0359653 0)
(-0.000761941 -0.0362956 0)
(-0.000762919 -0.0374388 0)
(-0.000153688 -0.00545947 0)
(-6.52795e-05 -0.00230375 0)
(-0.00029164 -0.010387 0)
(-0.000207319 -0.00732283 0)
(-0.000378931 -0.0133977 0)
(-0.00111594 -0.0115639 0)
(-0.00192603 -0.0197235 0)
(-0.00221846 -0.0217288 0)
(-0.00161852 -0.0181021 0)
(-0.0025539 -0.0220106 0)
(-0.00233882 -0.0220401 0)
(-0.00276423 -0.0229266 0)
(-0.000810008 -0.00831872 0)
(-0.000351852 -0.00385989 0)
(-5.38585e-06 -0.0399261 0)
(8.5193e-05 -0.0397586 0)
(0.00074058 -0.0370454 0)
(0.000614404 -0.0376096 0)
(0.000861802 -0.0366131 0)
(0.000412496 -0.0387285 0)
(0.000259147 -0.0393812 0)
(0.000174958 -0.0394953 0)
(0.000474862 -0.0385668 0)
(0.00113942 -0.0352376 0)
(0.000970367 -0.0363275 0)
(-9.26052e-05 -0.0399799 0)
(-0.00016491 -0.0403213 0)
(-0.000270052 -0.0403927 0)
(0.0014303 -0.0332603 0)
(0.0012941 -0.034436 0)
(-0.000458911 -0.0402051 0)
(-0.000317195 -0.0404252 0)
(-0.000429656 -0.040803 0)
(-0.000534717 -0.0396746 0)
(-0.000507889 -0.0402791 0)
(-0.000741886 -0.0377602 0)
(-0.000694269 -0.0383249 0)
(-0.000687991 -0.0391934 0)
(-0.00060692 -0.039549 0)
(-0.000669596 -0.0395177 0)
(-0.000632296 -0.0217238 0)
(-0.000703927 -0.0243215 0)
(-0.000732527 -0.0258531 0)
(-0.000753997 -0.0268323 0)
(-0.000820421 -0.0289879 0)
(-0.000470808 -0.016201 0)
(-0.000520608 -0.0179688 0)
(-0.000860405 -0.0310273 0)
(-0.000845793 -0.031781 0)
(-0.000842994 -0.0333818 0)
(-0.000835977 -0.034631 0)
(-0.00086148 -0.0326617 0)
(-0.00083991 -0.0357914 0)
(-0.000838221 -0.0367967 0)
(-0.000811943 -0.0369624 0)
(-0.00081469 -0.0379758 0)
(-0.000122204 -0.00426725 0)
(-2.97716e-05 -0.00103593 0)
(-0.000319394 -0.0110259 0)
(-0.000229322 -0.00789421 0)
(-0.000370031 -0.0126997 0)
(-0.00113469 -0.0126651 0)
(-0.00203653 -0.0216846 0)
(-0.00220987 -0.0228685 0)
(-0.00180267 -0.0209281 0)
(-0.00136014 -0.0157047 0)
(-0.00257886 -0.0232973 0)
(-0.00247721 -0.0234921 0)
(-0.00279116 -0.0240276 0)
(-0.000652062 -0.00715169 0)
(-0.000181911 -0.00212317 0)
(-8.31702e-05 -0.040355 0)
(1.14431e-05 -0.0402222 0)
(0.000103903 -0.0399666 0)
(0.000673057 -0.0378128 0)
(0.000598413 -0.0381502 0)
(0.000817159 -0.0372867 0)
(0.000342079 -0.0393507 0)
(0.000187259 -0.0397714 0)
(0.000269292 -0.0397022 0)
(0.000462841 -0.0390255 0)
(0.00120738 -0.0350997 0)
(0.00104008 -0.0360731 0)
(0.000879022 -0.0371437 0)
(-0.000224548 -0.0410101 0)
(-0.000310948 -0.0411275 0)
(0.00150863 -0.0332045 0)
(0.00143773 -0.0335939 0)
(0.00135685 -0.034318 0)
(-0.000481046 -0.0409025 0)
(-0.000383827 -0.0411582 0)
(-0.000441585 -0.0413904 0)
(-0.000595103 -0.0403024 0)
(-0.000579533 -0.0410228 0)
(-0.000778192 -0.0387243 0)
(-0.000749826 -0.0389272 0)
(-0.000743676 -0.0397747 0)
(-0.000632238 -0.0402125 0)
(-0.000717645 -0.0402957 0)
(-0.000619044 -0.0208182 0)
(-0.000693404 -0.0235281 0)
(-0.00074643 -0.025666 0)
(-0.000801563 -0.0279824 0)
(-0.000863572 -0.0300263 0)
(-0.000466197 -0.0156683 0)
(-0.000567114 -0.0191085 0)
(-0.000879467 -0.0319799 0)
(-0.000883333 -0.0310368 0)
(-0.000889667 -0.0343385 0)
(-0.000883847 -0.0353458 0)
(-0.000906297 -0.0336095 0)
(-0.000888266 -0.0364801 0)
(-0.000885175 -0.0374432 0)
(-0.000833508 -0.0376948 0)
(-0.0008501 -0.0387067 0)
(-0.000140298 -0.00479693 0)
(-5.52202e-05 -0.00186987 0)
(-0.000288181 -0.00981098 0)
(-0.000193726 -0.0065752 0)
(-0.000409885 -0.0137667 0)
(-0.000843085 -0.00972512 0)
(-0.00200111 -0.0224017 0)
(-0.00231719 -0.0244994 0)
(-0.00182028 -0.0222644 0)
(-0.00129438 -0.0161558 0)
(-0.00269863 -0.024325 0)
(-0.00251961 -0.0248658 0)
(-0.00299851 -0.0244886 0)
(-0.00290094 -0.0248695 0)
(-0.000292263 -0.00365228 0)
(-0.0001471 -0.0410691 0)
(-4.00648e-05 -0.0409572 0)
(6.96473e-05 -0.0405039 0)
(0.000672977 -0.0381624 0)
(0.000526981 -0.0388155 0)
(0.000737377 -0.0379281 0)
(0.00032472 -0.0398853 0)
(0.000118622 -0.040445 0)
(0.000198039 -0.0405617 0)
(0.000382501 -0.0397266 0)
(0.00116918 -0.03578 0)
(0.00101422 -0.0366968 0)
(0.000854985 -0.0376615 0)
(-0.00029443 -0.0413993 0)
(-0.000215519 -0.0413803 0)
(-0.000382489 -0.0415748 0)
(0.00153651 -0.0333297 0)
(0.0013317 -0.0348342 0)
(-0.000548528 -0.0415765 0)
(-0.000501984 -0.0421087 0)
(-0.000621209 -0.0410027 0)
(-0.000598079 -0.0416247 0)
(-0.000832937 -0.0393748 0)
(-0.000774849 -0.0396962 0)
(-0.00076083 -0.0404109 0)
(-0.000686689 -0.0407603 0)
(-0.000724524 -0.0407824 0)
(-0.00066186 -0.0216267 0)
(-0.000729921 -0.0240713 0)
(-0.000791772 -0.0266717 0)
(-0.000827161 -0.0280233 0)
(-0.000893499 -0.0303453 0)
(-0.000512931 -0.0168227 0)
(-0.000563452 -0.0184671 0)
(-0.000922521 -0.0329638 0)
(-0.000929348 -0.031868 0)
(-0.000921361 -0.034416 0)
(-0.000908081 -0.0352154 0)
(-0.000911642 -0.0363163 0)
(-0.000932988 -0.0337156 0)
(-0.000910813 -0.0373046 0)
(-0.000907728 -0.0382509 0)
(-0.000881823 -0.0383304 0)
(-0.000892111 -0.0389033 0)
(-0.000860236 -0.0392866 0)
(-0.000107801 -0.00363099 0)
(-2.63815e-05 -0.000879601 0)
(-0.000295973 -0.00985888 0)
(-0.000209008 -0.00694365 0)
(-0.000407647 -0.0134038 0)
(-0.000793902 -0.00975528 0)
(-0.00213951 -0.0245259 0)
(-0.00245571 -0.0253648 0)
(-0.00228382 -0.0254321 0)
(-0.00170908 -0.0218152 0)
(-0.00199252 -0.0245804 0)
(-0.00102262 -0.0131067 0)
(-0.00148318 -0.0192438 0)
(-0.00272862 -0.0255178 0)
(-0.00265136 -0.0258796 0)
(-0.00309479 -0.0254389 0)
(-0.0029161 -0.0260075 0)
(-0.000120685 -0.00158845 0)
(-0.000547246 -0.00693203 0)
(-0.000159269 -0.0415724 0)
(-0.000116296 -0.0415508 0)
(2.94387e-07 -0.0410257 0)
(0.000586406 -0.039004 0)
(0.000515241 -0.0393165 0)
(0.00069956 -0.0386011 0)
(0.000241013 -0.040579 0)
(9.46188e-05 -0.0409245 0)
(0.000127372 -0.041031 0)
(0.000362368 -0.0402353 0)
(0.00107639 -0.0365304 0)
(0.0012306 -0.035632 0)
(0.000920062 -0.0374706 0)
(0.000755242 -0.0384745 0)
(-0.000352198 -0.0421653 0)
(-0.000270342 -0.0420779 0)
(-0.00043895 -0.0422887 0)
(0.00149107 -0.0339503 0)
(0.00139242 -0.0346858 0)
(-0.000572466 -0.0421551 0)
(-0.000553575 -0.0423712 0)
(-0.000501843 -0.0425997 0)
(-0.000684849 -0.041579 0)
(-0.000658518 -0.0422757 0)
(-0.000861715 -0.0402611 0)
(-0.000831031 -0.0403705 0)
(-0.000808055 -0.041024 0)
(-0.000712466 -0.0414235 0)
(-0.000778068 -0.0415049 0)
(-0.000651645 -0.0209239 0)
(-0.000712565 -0.0231114 0)
(-0.000783392 -0.025485 0)
(-0.000810245 -0.0266117 0)
(-0.000876326 -0.029079 0)
(-0.000903012 -0.0300731 0)
(-0.000931638 -0.0314065 0)
(-0.000500417 -0.0160884 0)
(-0.000604838 -0.0194266 0)
(-0.00095731 -0.0333856 0)
(-0.000956578 -0.0326284 0)
(-0.000966068 -0.0352816 0)
(-0.000954474 -0.0359857 0)
(-0.0009651 -0.0371066 0)
(-0.000977721 -0.0346022 0)
(-0.000957877 -0.0379816 0)
(-0.000951658 -0.0388 0)
(-0.000929329 -0.0395939 0)
(-0.000915601 -0.0399478 0)
(-0.000127972 -0.00422404 0)
(-4.90038e-05 -0.00160103 0)
(-0.000253063 -0.00834443 0)
(-0.000331486 -0.0108518 0)
(-0.000175634 -0.0057635 0)
(-0.000372293 -0.0121279 0)
(-0.000452152 -0.014565 0)
(-0.00211823 -0.0253314 0)
(-0.00253174 -0.0269384 0)
(-0.00238324 -0.0269782 0)
(-0.00181446 -0.0242319 0)
(-0.00203189 -0.0259642 0)
(-0.000960038 -0.013076 0)
(-0.00144639 -0.0198372 0)
(-0.00283558 -0.0263478 0)
(-0.00269821 -0.0271428 0)
(-0.00308162 -0.0265973 0)
(-0.00300186 -0.026765 0)
(-0.000263515 -0.00363835 0)
(-0.000516459 -0.00702815 0)
(-0.000241511 -0.0422382 0)
(-0.000153578 -0.0422418 0)
(-3.21713e-05 -0.0416156 0)
(0.000603182 -0.0392662 0)
(0.000430275 -0.0400376 0)
(0.0002116 -0.0411455 0)
(1.27474e-05 -0.0415771 0)
(6.07056e-05 -0.0417805 0)
(0.000276273 -0.040951 0)
(0.00104553 -0.0371475 0)
(0.00120022 -0.0361579 0)
(0.000889093 -0.0380501 0)
(0.00073235 -0.0389655 0)
(-0.000425196 -0.0426076 0)
(-0.000336802 -0.0424713 0)
(0.00154323 -0.0338745 0)
(0.00134711 -0.0353567 0)
(-0.000629152 -0.0426561 0)
(-0.000612121 -0.0431086 0)
(-0.00055847 -0.0432325 0)
(-0.000717616 -0.0422 0)
(-0.000705317 -0.0424765 0)
(-0.000666058 -0.0427358 0)
(-0.000916392 -0.0408643 0)
(-0.000848698 -0.0410776 0)
(-0.000818806 -0.0416349 0)
(-0.000771022 -0.0418778 0)
(-0.000690019 -0.0216283 0)
(-0.000744211 -0.0235726 0)
(-0.000810711 -0.025677 0)
(-0.000869166 -0.0279112 0)
(-0.000899451 -0.0290228 0)
(-0.000945905 -0.030922 0)
(-0.000960783 -0.0316993 0)
(-0.000532226 -0.0167251 0)
(-0.000612387 -0.0192573 0)
(-0.000965083 -0.0331794 0)
(-0.000993425 -0.0344436 0)
(-0.000995329 -0.0332257 0)
(-0.00099534 -0.0353535 0)
(-0.000979703 -0.0359726 0)
(-0.000983021 -0.0369048 0)
(-0.000989359 -0.0379502 0)
(-0.000976041 -0.0386726 0)
(-0.000980438 -0.0395296 0)
(-0.000972413 -0.0399169 0)
(-0.000942057 -0.0406341 0)
(-9.78818e-05 -0.00319005 0)
(-2.31589e-05 -0.000746032 0)
(-0.000264549 -0.00856724 0)
(-0.000307705 -0.00991517 0)
(-0.000191318 -0.00615762 0)
(-0.000394467 -0.012553 0)
(-0.000437633 -0.0138535 0)
(-0.00221545 -0.027057 0)
(-0.00249475 -0.0275786 0)
(-0.00264405 -0.0276849 0)
(-0.00239088 -0.0280282 0)
(-0.00196519 -0.0260763 0)
(-0.00175047 -0.0242444 0)
(-0.00215865 -0.0274226 0)
(-0.00109271 -0.0154435 0)
(-0.000684775 -0.00958055 0)
(-0.00129017 -0.0182272 0)
(-0.00159825 -0.0224576 0)
(-0.00285812 -0.0274199 0)
(-0.00279848 -0.027841 0)
(-0.00326628 -0.0268166 0)
(-0.00314627 -0.0275977 0)
(-0.00301306 -0.0279075 0)
(-0.000144375 -0.00210239 0)
(-0.000279522 -0.0428696 0)
(-0.000233853 -0.0428866 0)
(-0.000107521 -0.0422123 0)
(0.000542127 -0.0399714 0)
(0.000398539 -0.0406097 0)
(0.000127021 -0.0418733 0)
(-9.04525e-06 -0.0420742 0)
(5.71446e-05 -0.0421531 0)
(0.000255912 -0.0414026 0)
(0.000952194 -0.0378916 0)
(0.00110935 -0.0369122 0)
(0.00125598 -0.0360297 0)
(0.000800841 -0.0387322 0)
(0.000651877 -0.0396866 0)
(-0.000473472 -0.0432764 0)
(-0.000387166 -0.0430828 0)
(0.00149883 -0.0344783 0)
(0.00140194 -0.0352202 0)
(-0.000651455 -0.0432078 0)
(-0.00061593 -0.04347 0)
(-0.000575994 -0.0437441 0)
(-0.000776394 -0.0426442 0)
(-0.000761415 -0.0431734 0)
(-0.000715017 -0.0433265 0)
(-0.000949211 -0.0416372 0)
(-0.000895001 -0.0417109 0)
(-0.000869291 -0.0422656 0)
(-0.000802237 -0.0424781 0)
(-0.000732051 -0.0228066 0)
(-0.000666554 -0.0206547 0)
(-0.000789632 -0.0247556 0)
(-0.000854115 -0.0266931 0)
(-0.000883712 -0.0277673 0)
(-0.000951942 -0.0301433 0)
(-0.000971661 -0.0310679 0)
(-0.000994162 -0.0324599 0)
(-0.000509867 -0.015814 0)
(-0.000582268 -0.018137 0)
(-0.00100601 -0.0338007 0)
(-0.00103046 -0.0349655 0)
(-0.00101033 -0.0331997 0)
(-0.00103833 -0.0361834 0)
(-0.00102028 -0.0367407 0)
(-0.00102581 -0.0373673 0)
(-0.00103223 -0.0386518 0)
(-0.00102128 -0.0393497 0)
(-0.00102654 -0.0398879 0)
(-0.00101045 -0.0406182 0)
(-0.000990101 -0.0411451 0)
(-0.000113456 -0.00363777 0)
(-4.17616e-05 -0.00132501 0)
(-0.000235427 -0.00753235 0)
(-0.000325057 -0.010306 0)
(-0.000159346 -0.00508044 0)
(-0.000370748 -0.0116754 0)
(-0.000464055 -0.0144565 0)
(-0.00232647 -0.0281481 0)
(-0.002562 -0.0290111 0)
(-0.00270362 -0.0290101 0)
(-0.00250598 -0.029357 0)
(-0.00203703 -0.0278164 0)
(-0.00180665 -0.0258872 0)
(-0.00221802 -0.0288903 0)
(-0.0010139 -0.0150462 0)
(-0.000667492 -0.00976391 0)
(-0.00132221 -0.0196807 0)
(-0.00159126 -0.023285 0)
(-0.00295016 -0.0282111 0)
(-0.00285033 -0.0290158 0)
(-0.00323665 -0.0277642 0)
(-0.00310087 -0.0284438 0)
(-0.000259917 -0.00393766 0)
(-0.000348922 -0.0433892 0)
(-0.000262655 -0.0434397 0)
(-0.000141398 -0.0428522 0)
(0.000444779 -0.0405948 0)
(0.00057046 -0.0401469 0)
(0.000309779 -0.0412597 0)
(0.000110947 -0.0423878 0)
(-8.61341e-05 -0.0427383 0)
(-2.8557e-05 -0.0429336 0)
(0.000175986 -0.0421056 0)
(0.000911799 -0.0384967 0)
(0.00110834 -0.0372272 0)
(0.00120307 -0.0366529 0)
(0.000759421 -0.0393304 0)
(0.000668243 -0.0399228 0)
(-0.00044936 -0.0434378 0)
(-0.000542157 -0.0437797 0)
(-0.000388017 -0.0434186 0)
(0.0015444 -0.0343762 0)
(0.00137035 -0.0357473 0)
(-0.000704833 -0.0436289 0)
(-0.000671685 -0.044158 0)
(-0.000650368 -0.0443525 0)
(-0.000801378 -0.0432352 0)
(-0.000763506 -0.0435631 0)
(-0.0010014 -0.042101 0)
(-0.000937328 -0.041951 0)
(-0.000904717 -0.0422962 0)
(-0.000885824 -0.0428577 0)
(-0.000855497 -0.0429339 0)
(-0.000773212 -0.0236105 0)
(-0.000682284 -0.020745 0)
(-0.000811272 -0.0248419 0)
(-0.000876446 -0.0267896 0)
(-0.000927159 -0.0285073 0)
(-0.000980239 -0.0303029 0)