/*--------------------------------*- C++ -*----------------------------------*\
| =========                 |                                                 |
| \\      /  F ield         | OpenFOAM: The Open Source CFD Toolbox           |
|  \\    /   O peration     | Version:  v2012                                 |
|   \\  /    A nd           | Website:  www.openfoam.com                      |
|    \\/     M anipulation  |                                                 |
\*---------------------------------------------------------------------------*/
FoamFile
{
    version     2.0;
    format      ascii;
    class       volScalarField;
    location    "1.9";
    object      nut;
}
// * * * * * * * * * * * * * * * * * * * * * * * * * * * * * * * * * * * * * //

dimensions      [0 2 -1 0 0 0 0];


internalField   nonuniform List<scalar> 
13611
(
1.78933e-05
1.79817e-05
1.64901e-05
1.71991e-05
1.32181e-05
1.10398e-05
1.82746e-05
1.74558e-05
1.15342e-05
1.21631e-05
1.09045e-05
1.82313e-05
1.47763e-05
1.69203e-05
1.15394e-05
1.14914e-05
1.13609e-05
1.08566e-05
1.86951e-05
1.45802e-05
1.78546e-05
1.14512e-05
1.14815e-05
1.15878e-05
1.14178e-05
1.09417e-05
1.76678e-05
1.24025e-05
1.69808e-05
1.1397e-05
1.14563e-05
1.15144e-05
1.15104e-05
1.13611e-05
1.09584e-05
1.7219e-05
1.37775e-05
1.80068e-05
1.13857e-05
1.14085e-05
1.15167e-05
1.15453e-05
1.14675e-05
1.10196e-05
1.78579e-05
1.31198e-05
1.68092e-05
1.86043e-05
1.13871e-05
1.13691e-05
1.13948e-05
1.14405e-05
1.15458e-05
1.14921e-05
1.14474e-05
1.08144e-05
1.55551e-05
1.16423e-05
1.81169e-05
1.89614e-05
1.13875e-05
1.13903e-05
1.13917e-05
1.14254e-05
1.14164e-05
1.15515e-05
1.14425e-05
1.15637e-05
1.15056e-05
1.11896e-05
1.56913e-05
1.13605e-05
1.68667e-05
1.82658e-05
1.14048e-05
1.14166e-05
1.13922e-05
1.14004e-05
1.13939e-05
1.14457e-05
1.14111e-05
1.15399e-05
1.15694e-05
1.15537e-05
1.11479e-05
1.30847e-05
1.10987e-05
1.76142e-05
1.86574e-05
1.14427e-05
1.14336e-05
1.14093e-05
1.14206e-05
1.13919e-05
1.14551e-05
1.14239e-05
1.13926e-05
1.14413e-05
1.1603e-05
1.15547e-05
1.13451e-05
1.31749e-05
1.10718e-05
1.85263e-05
1.70185e-05
1.14556e-05
1.14709e-05
1.14239e-05
1.14553e-05
1.1413e-05
1.15008e-05
1.15393e-05
1.14023e-05
1.13969e-05
1.14256e-05
1.15605e-05
1.1463e-05
1.1575e-05
1.13891e-05
1.17463e-05
1.10992e-05
1.12805e-05
1.64391e-05
1.91559e-05
1.73495e-05
1.14968e-05
1.15286e-05
1.14565e-05
1.14712e-05
1.14121e-05
1.1602e-05
1.14059e-05
1.14065e-05
1.14137e-05
1.14576e-05
1.15836e-05
1.15705e-05
1.22325e-05
1.10372e-05
1.13864e-05
1.80876e-05
1.89834e-05
1.50714e-05
1.15497e-05
1.15577e-05
1.15646e-05
1.14826e-05
1.15175e-05
1.14358e-05
1.16102e-05
1.1659e-05
1.14258e-05
1.14077e-05
1.14041e-05
1.14255e-05
1.14481e-05
1.15637e-05
1.10919e-05
1.09214e-05
1.12339e-05
1.15831e-05
1.13829e-05
1.63561e-05
1.89911e-05
1.6109e-05
1.15521e-05
1.16297e-05
1.16442e-05
1.14967e-05
1.15202e-05
1.14408e-05
1.14783e-05
1.16885e-05
1.17395e-05
1.14329e-05
1.14213e-05
1.14113e-05
1.14175e-05
1.14068e-05
1.14178e-05
1.14446e-05
1.32742e-05
1.09896e-05
1.13573e-05
1.15611e-05
1.15269e-05
1.80966e-05
1.92199e-05
1.16216e-05
1.16657e-05
1.16652e-05
1.17024e-05
1.15526e-05
1.15672e-05
1.14841e-05
1.15081e-05
1.17551e-05
1.18041e-05
1.14678e-05
1.14248e-05
1.14152e-05
1.14239e-05
1.14152e-05
1.14191e-05
1.29015e-05
1.09213e-05
1.12784e-05
1.1538e-05
1.15916e-05
1.14391e-05
1.931e-05
1.62826e-05
1.59341e-05
1.16224e-05
1.1739e-05
1.17337e-05
1.17907e-05
1.15777e-05
1.1582e-05
1.14969e-05
1.15567e-05
1.18344e-05
1.1882e-05
1.14806e-05
1.14521e-05
1.14204e-05
1.14545e-05
1.14342e-05
1.14194e-05
1.13797e-05
1.10272e-05
1.13694e-05
1.15107e-05
1.1464e-05
1.13997e-05
1.94936e-05
1.81648e-05
1.45978e-05
1.16674e-05
1.17675e-05
1.17963e-05
1.17731e-05
1.1856e-05
1.1631e-05
1.16346e-05
1.15531e-05
1.15844e-05
1.19e-05
1.15238e-05
1.14674e-05
1.14553e-05
1.14904e-05
1.1441e-05
1.14589e-05
1.14309e-05
1.14101e-05
1.20942e-05
1.10249e-05
1.13216e-05
1.15085e-05
1.15166e-05
1.14423e-05
1.14418e-05
1.98047e-05
1.65534e-05
1.63609e-05
1.17444e-05
1.18317e-05
1.18617e-05
1.18526e-05
1.17844e-05
1.19496e-05
1.16623e-05
1.16671e-05
1.15605e-05
1.15898e-05
1.16436e-05
1.19745e-05
1.15497e-05
1.15272e-05
1.14912e-05
1.15335e-05
1.14839e-05
1.15063e-05
1.14587e-05
1.14186e-05
1.12831e-05
1.09944e-05
1.13197e-05
1.14279e-05
1.14959e-05
1.14543e-05
1.14292e-05
1.14113e-05
1.90162e-05
1.56699e-05
1.72977e-05
1.17794e-05
1.18767e-05
1.19401e-05
1.19041e-05
1.18649e-05
1.19852e-05
1.20099e-05
1.17386e-05
1.17411e-05
1.16122e-05
1.16409e-05
1.16771e-05
1.20628e-05
1.2095e-05
1.15963e-05
1.15407e-05
1.15948e-05
1.14896e-05
1.15143e-05
1.15474e-05
1.14632e-05
1.14431e-05
1.27421e-05
1.09953e-05
1.13908e-05
1.14946e-05
1.14482e-05
1.14216e-05
1.14237e-05
1.14296e-05
1.87617e-05
1.83941e-05
1.18444e-05
1.19718e-05
1.20079e-05
1.19753e-05
1.18885e-05
1.20994e-05
1.20878e-05
1.17728e-05
1.17797e-05
1.16571e-05
1.16709e-05
1.17467e-05
1.21388e-05
1.22471e-05
1.16556e-05
1.15926e-05
1.1648e-05
1.15358e-05
1.1569e-05
1.16042e-05
1.15074e-05
1.14687e-05
1.2124e-05
1.13257e-05
1.1108e-05
1.1476e-05
1.14744e-05
1.14251e-05
1.14299e-05
1.14452e-05
1.14635e-05
1.95505e-05
1.5941e-05
1.98638e-05
1.18783e-05
1.20107e-05
1.21032e-05
1.20357e-05
1.19748e-05
1.21842e-05
1.21356e-05
1.21897e-05
1.18419e-05
1.18456e-05
1.17314e-05
1.17534e-05
1.17822e-05
1.22773e-05
1.23334e-05
1.17309e-05
1.16534e-05
1.16367e-05
1.16893e-05
1.1541e-05
1.15768e-05
1.16138e-05
1.16451e-05
1.15067e-05
1.22327e-05
1.1392e-05
1.09967e-05
1.14535e-05
1.14175e-05
1.14232e-05
1.14419e-05
1.14904e-05
1.15081e-05
1.59394e-05
1.7434e-05
2.06737e-05
1.19483e-05
1.21139e-05
1.21729e-05
1.20429e-05
1.21195e-05
1.19962e-05
1.2292e-05
1.22464e-05
1.23179e-05
1.18792e-05
1.18826e-05
1.1787e-05
1.1849e-05
1.24893e-05
1.1803e-05
1.17152e-05
1.17003e-05
1.17188e-05
1.15912e-05
1.16282e-05
1.16688e-05
1.16832e-05
1.1552e-05
1.10653e-05
1.1396e-05
1.14569e-05
1.08832e-05
1.12325e-05
1.14067e-05
1.14204e-05
1.1465e-05
1.14971e-05
1.15303e-05
1.1516e-05
1.15551e-05
1.45582e-05
1.95003e-05
1.57599e-05
1.76616e-05
1.11065e-05
1.58963e-05
1.20016e-05
1.21821e-05
1.22642e-05
1.21439e-05
1.22233e-05
1.20949e-05
1.24443e-05
1.24704e-05
1.19667e-05
1.19578e-05
1.18487e-05
1.18859e-05
1.25602e-05
1.25782e-05
1.17875e-05
1.18707e-05
1.17191e-05
1.1788e-05
1.15985e-05
1.16349e-05
1.16731e-05
1.17171e-05
1.17192e-05
1.18143e-05
1.14233e-05
1.14408e-05
1.10086e-05
1.1245e-05
1.14372e-05
1.14534e-05
1.15147e-05
1.14829e-05
1.15347e-05
1.15809e-05
1.15754e-05
1.16137e-05
1.95765e-05
1.73595e-05
1.60434e-05
1.14723e-05
1.10326e-05
1.11544e-05
1.41952e-05
1.31011e-05
1.20832e-05
1.23278e-05
1.2418e-05
1.22345e-05
1.21603e-05
1.23346e-05
1.25125e-05
1.25605e-05
1.25917e-05
1.2003e-05
1.19977e-05
1.18785e-05
1.19583e-05
1.27358e-05
1.18216e-05
1.193e-05
1.17836e-05
1.18384e-05
1.16641e-05
1.16829e-05
1.17332e-05
1.17911e-05
1.17839e-05
1.10655e-05
1.14282e-05
1.14362e-05
1.14211e-05
1.09604e-05
1.13466e-05
1.14812e-05
1.14872e-05
1.15652e-05
1.15621e-05
1.16008e-05
1.16435e-05
1.16205e-05
1.16714e-05
2.03172e-05
1.57968e-05
1.78051e-05
1.20012e-05
1.19507e-05
1.11059e-05
1.1052e-05
1.1154e-05
1.34427e-05
1.59497e-05
1.21701e-05
1.24429e-05
1.25643e-05
1.23697e-05
1.22815e-05
1.24392e-05
1.26926e-05
1.27051e-05
1.27406e-05
1.2104e-05
1.20711e-05
1.19732e-05
1.20089e-05
1.2761e-05
1.28053e-05
1.1902e-05
1.19935e-05
1.19714e-05
1.18365e-05
1.19062e-05
1.17066e-05
1.17345e-05
1.17918e-05
1.18471e-05
1.18312e-05
1.14267e-05
1.14295e-05
1.1473e-05
1.10417e-05
1.13801e-05
1.15515e-05
1.15665e-05
1.15974e-05
1.16096e-05
1.15968e-05
1.16548e-05
1.1701e-05
1.16887e-05
1.17423e-05
1.98473e-05
1.67818e-05
1.53759e-05
1.12357e-05
1.14065e-05
1.11227e-05
1.10373e-05
1.12231e-05
1.11981e-05
1.12417e-05
1.4458e-05
1.348e-05
1.21779e-05
1.22818e-05
1.25746e-05
1.26944e-05
1.24697e-05
1.23836e-05
1.23092e-05
1.25882e-05
1.27813e-05
1.27758e-05
1.21278e-05
1.21388e-05
1.21048e-05
1.28274e-05
1.28246e-05
1.2838e-05
1.19617e-05
1.20718e-05
1.20599e-05
1.19014e-05
1.19726e-05
1.17676e-05
1.17939e-05
1.18575e-05
1.19217e-05
1.18949e-05
1.14175e-05
1.14198e-05
1.14355e-05
1.14486e-05
1.15639e-05
1.09883e-05
1.13186e-05
1.15933e-05
1.1609e-05
1.16646e-05
1.16826e-05
1.16726e-05
1.17287e-05
1.17726e-05
1.17494e-05
1.18167e-05
2.13113e-05
1.77107e-05
1.18878e-05
1.74888e-05
1.09897e-05
1.20399e-05
1.10997e-05
1.11848e-05
1.09798e-05
1.12372e-05
1.12104e-05
1.12392e-05
1.38308e-05
1.81951e-05
1.23149e-05
1.23799e-05
1.26982e-05
1.26272e-05
1.27902e-05
1.2603e-05
1.25339e-05
1.24376e-05
1.26698e-05
1.28446e-05
1.28597e-05
1.22364e-05
1.22329e-05
1.21563e-05
1.28277e-05
1.28317e-05
1.20466e-05
1.21381e-05
1.21464e-05
1.19679e-05
1.2041e-05
1.18259e-05
1.18473e-05
1.1928e-05
1.19576e-05
1.19482e-05
1.14214e-05
1.14558e-05
1.14738e-05
1.15027e-05
1.16437e-05
1.1221e-05
1.13982e-05
1.17091e-05
1.16776e-05
1.17123e-05
1.17385e-05
1.17227e-05
1.17885e-05
1.18334e-05
1.18201e-05
1.18759e-05
2.01864e-05
1.55866e-05
1.0984e-05
1.54962e-05
1.09246e-05
1.16975e-05
1.11408e-05
1.11916e-05
1.10499e-05
1.11891e-05
1.12374e-05
1.12319e-05
1.1232e-05
1.51121e-05
1.32599e-05
1.23216e-05
1.24083e-05
1.24682e-05
1.2793e-05
1.27577e-05
1.28627e-05
1.26593e-05
1.25334e-05
1.26581e-05
1.27756e-05
1.28385e-05
1.28501e-05
1.28822e-05
1.23271e-05
1.22879e-05
1.27758e-05
1.27979e-05
1.27921e-05
1.21389e-05
1.22342e-05
1.22425e-05
1.20359e-05
1.21295e-05
1.19113e-05
1.19171e-05
1.19941e-05
1.20233e-05
1.20431e-05
1.14143e-05
1.14413e-05
1.14981e-05
1.16094e-05
1.17289e-05
1.12513e-05
1.14045e-05
1.17496e-05
1.17511e-05
1.18039e-05
1.1826e-05
1.1818e-05
1.188e-05
1.19226e-05
1.188e-05
1.19662e-05
2.12281e-05
1.69196e-05
1.19038e-05
1.77734e-05
1.10796e-05
1.3635e-05
1.11486e-05
1.12135e-05
1.10718e-05
1.09994e-05
1.12349e-05
1.12295e-05
1.12154e-05
1.12164e-05
1.68696e-05
1.24204e-05
1.25257e-05
1.25553e-05
1.28748e-05
1.28109e-05
1.28688e-05
1.27947e-05
1.26165e-05
1.2782e-05
1.28303e-05
1.27241e-05
1.27749e-05
1.28242e-05
1.23528e-05
1.24287e-05
1.23204e-05
1.26503e-05
1.2632e-05
1.22236e-05
1.2354e-05
1.2115e-05
1.22164e-05
1.1994e-05
1.19933e-05
1.20577e-05
1.20834e-05
1.20979e-05
1.14626e-05
1.15339e-05
1.16107e-05
1.16868e-05
1.18099e-05
1.13508e-05
1.14145e-05
1.18513e-05
1.18932e-05
1.18615e-05
1.18571e-05
1.19046e-05
1.18735e-05
1.19486e-05
1.19935e-05
1.19722e-05
1.20204e-05
1.2005e-05
1.94635e-05
1.56009e-05
1.11973e-05
1.6153e-05
1.10976e-05
1.3676e-05
1.11917e-05
1.12293e-05
1.12164e-05
1.10459e-05
1.11709e-05
1.21882e-05
1.08958e-05
1.12243e-05
1.1226e-05
1.12161e-05
1.12088e-05
1.37482e-05
1.57577e-05
1.2548e-05
1.25915e-05
1.26103e-05
1.28853e-05
1.28825e-05
1.28285e-05
1.28546e-05
1.27419e-05
1.28024e-05
1.28975e-05
1.26817e-05
1.25945e-05
1.27434e-05
1.279e-05
1.24767e-05
1.25445e-05
1.24376e-05
1.24627e-05
1.24511e-05
1.23357e-05
1.23762e-05
1.24566e-05
1.21941e-05
1.23232e-05
1.2085e-05
1.20834e-05
1.21428e-05
1.21719e-05
1.22003e-05
1.1463e-05
1.15258e-05
1.16587e-05
1.16901e-05
1.18088e-05
1.18702e-05
1.19123e-05
1.1366e-05
1.14178e-05
1.19433e-05
1.19638e-05
1.19666e-05
1.19572e-05
1.20197e-05
1.19971e-05
1.20384e-05
1.20693e-05
1.20896e-05
1.21101e-05
2.11341e-05
1.70952e-05
1.25626e-05
1.09244e-05
1.8352e-05
1.10372e-05
1.12607e-05
1.11961e-05
1.12192e-05
1.12195e-05
1.11178e-05
1.1187e-05
1.22327e-05
1.08175e-05
1.12079e-05
1.12121e-05
1.12132e-05
1.12068e-05
1.62524e-05
1.69778e-05
1.26242e-05
1.27565e-05
1.27498e-05
1.2848e-05
1.28914e-05
1.29143e-05
1.28045e-05
1.28783e-05
1.29067e-05
1.23963e-05
1.23649e-05
1.25219e-05
1.26401e-05
1.25206e-05
1.25714e-05
1.22126e-05
1.2099e-05
1.24072e-05
1.25127e-05
1.25659e-05
1.23049e-05
1.235e-05
1.24186e-05
1.21905e-05
1.21645e-05
1.2223e-05
1.22517e-05
1.15782e-05
1.16344e-05
1.17766e-05
1.18704e-05
1.19378e-05
1.2e-05
1.20336e-05
1.14025e-05
1.14596e-05
1.19581e-05
1.20371e-05
1.20877e-05
1.20416e-05
1.20108e-05
1.20341e-05
1.20898e-05
1.21047e-05
1.21539e-05
1.21684e-05
1.21916e-05
1.93028e-05
1.62735e-05
1.16623e-05
1.09376e-05
1.63822e-05
1.11491e-05
1.12695e-05
1.12063e-05
1.12166e-05
1.12097e-05
1.12118e-05
1.11848e-05
1.11166e-05
1.12048e-05
1.15709e-05
1.5095e-05
1.08798e-05
1.09687e-05
1.12025e-05
1.11979e-05
1.12367e-05
1.12228e-05
1.12079e-05
1.61568e-05
1.27736e-05
1.28278e-05
1.28084e-05
1.27299e-05
1.28282e-05
1.28996e-05
1.28694e-05
1.29234e-05
1.2876e-05
1.2327e-05
1.22272e-05
1.21012e-05
1.24723e-05
1.24793e-05
1.26607e-05
1.26948e-05
1.18686e-05
1.18106e-05
1.2509e-05
1.25946e-05
1.27013e-05
1.23847e-05
1.24877e-05
1.2512e-05
1.23149e-05
1.22708e-05
1.23457e-05
1.23564e-05
1.16565e-05
1.15642e-05
1.17615e-05
1.19219e-05
1.1976e-05
1.21307e-05
1.21674e-05
1.21441e-05
1.14018e-05
1.14399e-05
1.21308e-05
1.21868e-05
1.21735e-05
1.21693e-05
1.21107e-05
1.21501e-05
1.21944e-05
1.22166e-05
1.2263e-05
1.22853e-05
1.23003e-05
2.03746e-05
1.607e-05
1.25255e-05
1.09169e-05
1.8252e-05
1.11105e-05
1.13461e-05
1.12119e-05
1.11999e-05
1.11967e-05
1.11989e-05
1.11943e-05
1.11607e-05
1.12004e-05
1.13896e-05
1.54279e-05
1.07074e-05
1.1018e-05
1.12035e-05
1.11954e-05
1.12334e-05
1.12179e-05
1.70987e-05
1.2821e-05
1.29075e-05
1.2891e-05
1.27352e-05
1.25393e-05
1.2804e-05
1.28274e-05
1.29049e-05
1.28859e-05
1.27782e-05
1.19301e-05
1.19143e-05
1.1746e-05
1.21212e-05
1.21801e-05
1.27404e-05
1.27337e-05
1.281e-05
1.15199e-05
1.13114e-05
1.25793e-05
1.27304e-05
1.27981e-05
1.2485e-05
1.25557e-05
1.24287e-05
1.23428e-05
1.23704e-05
1.24516e-05
1.24481e-05
1.17568e-05
1.16021e-05
1.1927e-05
1.21306e-05
1.22743e-05
1.23992e-05
1.23604e-05
1.23297e-05
1.13885e-05
1.14136e-05
1.22248e-05
1.2317e-05
1.24104e-05
1.22212e-05
1.23125e-05
1.22785e-05
1.22633e-05
1.22807e-05
1.23768e-05
1.23928e-05
1.23295e-05
1.24188e-05
1.84179e-05
1.59383e-05
1.16802e-05
1.09189e-05
1.79596e-05
1.11979e-05
1.13562e-05
1.11985e-05
1.11911e-05
1.11899e-05
1.11904e-05
1.11918e-05
1.11979e-05
1.11853e-05
1.1135e-05
1.11956e-05
1.27985e-05
1.0898e-05
1.70277e-05
1.09182e-05
1.11998e-05
1.12451e-05
1.12249e-05
1.76277e-05
1.29127e-05
1.29235e-05
1.29107e-05
1.24999e-05
1.22626e-05
1.2634e-05
1.27173e-05
1.292e-05
1.27891e-05
1.26363e-05
1.18699e-05
1.15792e-05
1.15554e-05
1.13539e-05
1.18121e-05
1.28505e-05
1.28721e-05
1.28806e-05
1.07886e-05
1.10929e-05
1.11623e-05
1.09554e-05
1.27076e-05
1.27776e-05
1.29023e-05
1.25928e-05
1.26939e-05
1.25669e-05
1.2497e-05
1.25172e-05
1.25558e-05
1.2573e-05
1.21868e-05
1.17628e-05
1.14723e-05
1.2107e-05
1.23583e-05
1.24697e-05
1.27141e-05
1.26617e-05
1.24981e-05
1.13707e-05
1.14087e-05
1.24186e-05
1.24922e-05
1.25201e-05
1.23797e-05
1.25225e-05
1.24218e-05
1.23326e-05
1.24371e-05
1.24431e-05
1.25168e-05
1.25002e-05
1.24768e-05
1.2535e-05
1.98888e-05
1.66743e-05
1.16405e-05
1.09143e-05
1.945e-05
1.44618e-05
1.13365e-05
1.11326e-05
1.11875e-05
1.11862e-05
1.11939e-05
1.11812e-05
1.11844e-05
1.11882e-05
1.11844e-05
1.11568e-05
1.11821e-05
1.32514e-05
1.07621e-05
1.59324e-05
1.10116e-05
1.12082e-05
1.12689e-05
1.12394e-05
1.12622e-05
1.12219e-05
1.8255e-05
1.29257e-05
1.29396e-05
1.29199e-05
1.2904e-05
1.24942e-05
1.22795e-05
1.19003e-05
1.24779e-05
1.28491e-05
1.26544e-05
1.24735e-05
1.14456e-05
1.1071e-05
1.10235e-05
1.09609e-05
1.13504e-05
1.28988e-05
1.29211e-05
1.04289e-05
1.05835e-05
1.05291e-05
1.2771e-05
1.29005e-05
1.29491e-05
1.27317e-05
1.27643e-05
1.26936e-05
1.26011e-05
1.25979e-05
1.2673e-05
1.26833e-05
1.32461e-05
1.25313e-05
1.21541e-05
1.27886e-05
1.28391e-05
1.29441e-05
1.29661e-05
1.27242e-05
1.28861e-05
1.28059e-05
1.13661e-05
1.17524e-05
1.25635e-05
1.26802e-05
1.27889e-05
1.25502e-05
1.26954e-05
1.25995e-05
1.25216e-05
1.2544e-05
1.25836e-05
1.26681e-05
1.26442e-05
1.25588e-05
1.26761e-05
1.96617e-05
1.64918e-05
1.09562e-05
1.08352e-05
1.99927e-05
1.45401e-05
1.13266e-05
1.12274e-05
1.11775e-05
1.11838e-05
1.11896e-05
1.12069e-05
1.11756e-05
1.11819e-05
1.11791e-05
1.11767e-05
1.11802e-05
1.11796e-05
1.11478e-05
1.11764e-05
1.11732e-05
1.21658e-05
1.08487e-05
1.099e-05
1.72697e-05
1.09907e-05
1.12127e-05
1.12524e-05
1.12778e-05
1.12332e-05
2.03656e-05
1.29522e-05
1.29223e-05
1.28645e-05
1.28723e-05
1.22066e-05
1.19889e-05
1.16497e-05
1.23625e-05
1.23746e-05
1.2709e-05
1.24519e-05
1.22328e-05
1.10604e-05
1.12472e-05
1.06894e-05
1.07075e-05
1.05305e-05
1.10438e-05
1.2955e-05
1.29741e-05
1.03438e-05
1.03987e-05
1.28854e-05
1.29383e-05
1.2964e-05
1.29908e-05
1.28318e-05
1.28996e-05
1.28281e-05
1.27608e-05
1.27281e-05
1.2788e-05
1.2814e-05
1.24368e-05
1.28043e-05
1.27968e-05
1.33638e-05
1.21407e-05
1.31209e-05
1.29755e-05
1.32317e-05
1.32408e-05
1.29572e-05
1.31656e-05
1.29674e-05
1.12173e-05
1.16625e-05
1.18799e-05
1.27797e-05
1.28753e-05
1.29411e-05
1.27572e-05
1.28962e-05
1.26382e-05
1.27791e-05
1.27249e-05
1.27276e-05
1.2827e-05
1.27463e-05
1.26836e-05
1.27617e-05
2.04562e-05
1.73292e-05
1.10723e-05
1.10465e-05
1.77677e-05
1.28315e-05
1.13281e-05
1.11918e-05
1.11988e-05
1.12165e-05
1.11849e-05
1.11681e-05
1.11649e-05
1.11669e-05
1.11713e-05
1.11751e-05
1.11626e-05
1.11674e-05
1.11698e-05
1.28793e-05
1.07944e-05
1.07181e-05
1.60231e-05
1.10854e-05
1.12274e-05
1.1309e-05
1.12472e-05
1.12716e-05
1.13016e-05
2.13513e-05
1.92368e-05
1.2948e-05
1.28756e-05
1.27792e-05
1.27712e-05
1.19612e-05
1.16973e-05
1.11634e-05
1.20531e-05
1.21389e-05
1.26112e-05
1.22136e-05
1.20206e-05
1.07425e-05
1.0815e-05
1.05142e-05
1.04353e-05
1.04767e-05
1.09816e-05
1.0688e-05
1.29707e-05
1.29766e-05
1.06159e-05
1.04109e-05
1.03474e-05
1.29369e-05
1.30022e-05
1.29997e-05
1.29847e-05
1.29382e-05
1.29489e-05
1.29033e-05
1.28326e-05
1.28158e-05
1.28215e-05
1.28983e-05
1.29148e-05
1.09594e-05
1.04421e-05
1.19662e-05
1.01314e-05
1.21526e-05
1.30787e-05
1.19027e-05
1.40189e-05
1.3899e-05
1.32278e-05
1.33928e-05
1.32357e-05
1.13315e-05
1.16886e-05
1.18162e-05
1.24904e-05
1.30518e-05
1.32613e-05
1.29238e-05
1.30706e-05
1.28333e-05
1.29239e-05
1.28542e-05
1.27736e-05
1.28614e-05
1.29448e-05
1.28858e-05
1.28832e-05
2.07381e-05
1.71589e-05
1.05713e-05
1.10681e-05
1.80233e-05
1.27665e-05
1.1293e-05
1.11954e-05
1.12006e-05
1.1213e-05
1.1232e-05
1.11865e-05
1.11607e-05
1.11623e-05
1.1157e-05
1.116e-05
1.11699e-05
1.11706e-05
1.11638e-05
1.11646e-05
1.11773e-05
1.18136e-05
1.08606e-05
1.09728e-05
1.62647e-05
1.10872e-05
1.12376e-05
1.13346e-05
1.12637e-05
1.1288e-05
1.13192e-05
2.5006e-05
1.98559e-05
1.29e-05
1.27337e-05
1.25918e-05
1.26467e-05
1.15682e-05
1.13513e-05
1.10486e-05
1.18404e-05
1.19665e-05
1.18905e-05
1.23798e-05
1.2216e-05
1.16428e-05
1.04808e-05
1.06558e-05
1.04792e-05
1.04679e-05
1.05252e-05
1.06099e-05
1.04955e-05
1.2961e-05
1.29517e-05
1.0541e-05
1.06113e-05
1.30124e-05
1.30227e-05
1.30178e-05
1.29997e-05
1.29537e-05
1.30008e-05
1.30231e-05
1.29874e-05
1.29351e-05
1.29179e-05
1.29249e-05
1.29657e-05
1.29778e-05
1.30084e-05
9.53065e-06
9.12383e-06
9.74436e-06
6.57516e-06
1.17748e-05
8.68927e-06
1.15043e-05
1.11571e-05
1.30218e-05
1.37428e-05
1.35618e-05
1.33737e-05
1.3268e-05
1.1208e-05
1.16967e-05
1.16849e-05
1.14573e-05
1.32794e-05
1.32945e-05
1.31288e-05
1.32362e-05
1.29052e-05
1.30695e-05
1.29668e-05
1.29335e-05
1.29724e-05
1.30332e-05
1.29333e-05
1.2942e-05
2.00756e-05
1.67202e-05
1.86913e-05
1.08383e-05
1.13562e-05
1.11914e-05
1.52943e-05
1.13023e-05
1.12111e-05
1.12147e-05
1.12227e-05
1.12439e-05
1.12008e-05
1.11567e-05
1.11541e-05
1.11524e-05
1.11613e-05
1.11584e-05
1.11596e-05
1.11555e-05
1.11718e-05
1.11824e-05
1.34738e-05
1.10476e-05
1.08893e-05
1.06071e-05
1.11245e-05
1.12567e-05
1.1387e-05
1.13515e-05
1.12838e-05
1.13119e-05
1.13434e-05
2.37484e-05
1.59608e-05
1.29133e-05
1.27763e-05
1.2695e-05
1.25736e-05
1.24024e-05
1.24229e-05
1.12585e-05
1.14518e-05
1.0734e-05
1.14289e-05
1.15777e-05
1.15635e-05
1.22694e-05
1.19286e-05
1.05522e-05
1.04634e-05
1.09408e-05
1.05895e-05
1.06729e-05
1.05429e-05
1.04492e-05
1.29289e-05
1.09217e-05
1.10532e-05
1.09967e-05
1.30328e-05
1.30119e-05
1.29891e-05
1.29225e-05
1.2857e-05
1.3046e-05
1.29911e-05
1.30485e-05
1.30235e-05
1.30197e-05
1.30222e-05
1.30597e-05
1.30537e-05
9.92183e-06
1.07549e-05
1.23232e-05
7.50497e-06
1.37008e-05
8.96513e-06
5.42424e-06
1.06103e-05
5.89348e-06
1.07306e-05
1.37046e-05
1.29435e-05
1.34231e-05
1.32066e-05
1.14067e-05
1.15126e-05
1.18298e-05
1.17229e-05
8.60178e-06
1.34055e-05
1.32183e-05
1.32437e-05
1.31716e-05
1.33771e-05
1.31124e-05
1.30037e-05
1.30493e-05
1.31031e-05
1.30791e-05
1.30499e-05
1.30463e-05
1.30343e-05
2.09671e-05
1.69973e-05
1.92648e-05
1.08418e-05
1.10628e-05
1.12282e-05
1.54533e-05
1.13371e-05
1.12213e-05
1.1219e-05
1.12371e-05
1.12606e-05
1.12146e-05
1.1205e-05
1.11612e-05
1.11486e-05
1.11505e-05
1.11552e-05
1.11688e-05
1.11508e-05
1.11441e-05
1.11529e-05
1.11801e-05
1.11983e-05
1.28986e-05
1.1091e-05
1.10442e-05
1.07304e-05
1.13885e-05
1.11161e-05
1.12683e-05
1.14171e-05
1.13754e-05
1.13008e-05
1.13303e-05
1.13649e-05
2.4201e-05
1.51651e-05
1.28047e-05
1.27284e-05
1.24686e-05
1.23458e-05
1.21346e-05
1.08568e-05
1.09625e-05
1.06554e-05
1.11242e-05
1.12997e-05
1.14347e-05
1.11931e-05
1.20673e-05
1.15984e-05
1.10548e-05
1.05019e-05
1.14003e-05
1.13631e-05
1.11195e-05
1.12608e-05
1.06089e-05
1.0797e-05
1.28351e-05
9.93452e-06
1.10408e-05
1.30244e-05
1.29944e-05
1.29369e-05
1.28413e-05
1.27295e-05
1.30513e-05
1.30666e-05
1.31007e-05
1.30632e-05
1.30645e-05
1.30828e-05
1.30807e-05
1.30704e-05
1.80711e-05
1.57663e-05
1.57878e-05
5.43593e-06
1.58712e-05
1.87149e-05
1.72513e-05
1.37764e-05
1.34234e-05
8.38978e-06
9.09813e-06
1.14611e-05
1.27434e-05
8.36488e-06
1.33576e-05
1.13364e-05
1.17785e-05
1.17656e-05
1.08829e-05
9.88889e-06
1.31894e-05
1.31745e-05
1.3402e-05
1.33609e-05
1.34253e-05
1.31757e-05
1.30732e-05
1.30652e-05
1.31582e-05
1.31209e-05
1.30931e-05
1.30741e-05
1.91156e-05
1.85682e-05
1.6698e-05
1.97934e-05
1.0821e-05
1.10727e-05
1.29311e-05
1.13139e-05
1.1237e-05
1.12381e-05
1.12476e-05
1.12789e-05
1.1226e-05
1.12188e-05
1.11748e-05
1.11475e-05
1.11432e-05
1.11674e-05
1.11807e-05
1.1138e-05
1.11305e-05
1.11352e-05
1.11952e-05
1.12055e-05
1.10811e-05
1.08195e-05
1.10214e-05
1.11198e-05
1.12956e-05
1.14214e-05
1.13976e-05
1.13254e-05
1.13074e-05
1.13575e-05
1.13926e-05
2.83713e-05
1.92646e-05
1.26344e-05
1.25755e-05
1.24164e-05
1.23011e-05
1.21214e-05
1.18531e-05
1.07387e-05
1.08935e-05
1.05889e-05
1.08508e-05
1.09285e-05
1.09596e-05
1.18029e-05
1.13086e-05
1.13246e-05
1.11706e-05
1.09723e-05
1.07719e-05
1.22187e-05
1.13546e-05
1.13926e-05
1.08863e-05
1.10171e-05
1.27051e-05
7.75278e-06
8.53759e-06
1.02553e-05
1.3013e-05
1.29724e-05
1.29055e-05
1.2712e-05
1.25443e-05
1.30324e-05
1.30942e-05
1.31106e-05
1.31156e-05
1.30966e-05
1.30876e-05
1.30773e-05
1.30697e-05
2.13917e-05
2.07934e-05
2.15663e-05
3.0416e-05
2.25002e-05
2.284e-05
2.20554e-05
2.08514e-05
8.82062e-06
4.24075e-06
7.57672e-06
1.16603e-05
7.32434e-06
1.33226e-05
1.16706e-05
1.62764e-05
1.08648e-05
1.20505e-05
1.33024e-05
1.08158e-05
1.30196e-05
1.32796e-05
1.3365e-05
1.33088e-05
1.31941e-05
1.33212e-05
1.30818e-05
1.30698e-05
1.3274e-05
1.31173e-05
1.3085e-05
1.30425e-05
1.31281e-05
1.93555e-05
1.71092e-05
1.9505e-05
1.07432e-05
1.11203e-05
1.2619e-05
1.1322e-05
1.12475e-05
1.12498e-05
1.1267e-05
1.13003e-05
1.12803e-05
1.12417e-05
1.12286e-05
1.11825e-05
1.11858e-05
1.11565e-05
1.11423e-05
1.11391e-05
1.11842e-05
1.11654e-05
1.11959e-05
1.113e-05
1.11246e-05
1.11172e-05
1.113e-05
1.12201e-05
1.11113e-05
1.10468e-05
1.07605e-05
1.0696e-05
1.1473e-05
1.14502e-05
1.13401e-05
1.13302e-05
1.13719e-05
1.14123e-05
2.51999e-05
1.91462e-05
1.20865e-05
1.24305e-05
1.21255e-05
1.20157e-05
1.18128e-05
1.15264e-05
1.05691e-05
1.06841e-05
1.05905e-05
1.07661e-05
1.06533e-05
1.08057e-05
1.09445e-05
1.13839e-05
1.16413e-05
1.16726e-05
1.12644e-05
1.0904e-05
1.01955e-05
1.08746e-05
1.032e-05
1.11078e-05
1.11416e-05
1.17032e-05
1.24987e-05
4.45214e-06
5.05339e-06
7.15351e-06
1.29587e-05
1.29024e-05
1.27538e-05
1.25429e-05
1.25828e-05
1.23287e-05
1.30094e-05
1.30963e-05
1.30777e-05
1.31205e-05
1.3074e-05
1.30709e-05
1.30303e-05
1.30482e-05
1.30235e-05
2.13417e-05
2.19406e-05
2.24382e-05
3.34266e-05
2.88885e-05
2.31263e-05
2.15241e-05
2.3117e-05
2.09352e-05
2.24976e-05
1.11638e-05
1.9817e-05
7.71215e-06
8.48973e-06
1.18439e-05
1.52018e-05
1.14771e-05
1.2264e-05
1.02925e-05
1.18298e-05
6.2079e-06
1.64073e-05
1.25721e-05
1.29791e-05
1.31346e-05
1.29541e-05
1.29837e-05
1.3256e-05
1.31079e-05
1.30433e-05
1.32204e-05
1.31069e-05
1.30607e-05
1.30052e-05
1.29356e-05
2.00842e-05
1.87929e-05
1.65702e-05
1.47482e-05
1.14301e-05
1.07409e-05
1.10152e-05
1.12629e-05
1.12035e-05
1.12716e-05
1.12708e-05
1.12804e-05
1.13227e-05
1.13022e-05
1.12568e-05
1.1249e-05
1.11996e-05
1.12e-05
1.11544e-05
1.11463e-05
1.11408e-05
1.12003e-05
1.1181e-05
1.12114e-05
1.11311e-05
1.11239e-05
1.11119e-05
1.11165e-05
1.12307e-05
1.11081e-05
1.10766e-05
1.08401e-05
1.05277e-05
1.15105e-05
1.14653e-05
1.13607e-05
1.13406e-05
1.13992e-05
1.1448e-05
1.14163e-05
2.49201e-05
1.53721e-05
1.09681e-05
1.21648e-05
1.19403e-05
1.17766e-05
1.153e-05
1.11717e-05
1.06332e-05
1.05719e-05
1.08264e-05
1.06296e-05
1.06313e-05
1.06609e-05
1.07807e-05
1.11289e-05
1.14905e-05
1.10674e-05
1.15221e-05
8.93239e-06
7.49348e-06
7.32287e-06
7.88948e-06
1.17438e-05
1.10745e-05
1.17282e-05
1.17055e-05
1.22836e-05
3.63814e-06
4.61335e-06
1.2963e-05
1.29004e-05
1.27592e-05
1.26187e-05
1.22805e-05
1.23243e-05
1.21015e-05
1.30411e-05
1.29743e-05
1.30753e-05
1.30151e-05
1.29749e-05
1.2913e-05
1.29687e-05
1.29316e-05
2.04193e-05
1.93854e-05
3.40136e-05
4.29598e-05
2.87872e-05
2.07186e-05
2.03241e-05
2.09637e-05
2.13497e-05
2.22923e-05
1.80047e-05
2.21281e-05
1.1006e-05
1.00547e-05
1.0598e-05
1.93343e-05
1.68496e-05
1.20997e-05
2.74534e-06
6.14887e-05
1.26588e-05
7.54297e-05
6.15955e-05
1.25281e-05
1.24503e-05
1.28753e-05
1.2711e-05
1.25464e-05
1.29669e-05
1.29155e-05
1.29213e-05
1.29439e-05
1.3007e-05
1.29502e-05
1.28618e-05
1.27908e-05
2.08488e-05
1.96068e-05
1.67694e-05
1.34758e-05
1.16162e-05
1.06692e-05
1.11554e-05
1.12489e-05
1.12064e-05
1.12806e-05
1.12853e-05
1.12989e-05
1.13406e-05
1.1322e-05
1.12798e-05
1.12577e-05
1.12123e-05
1.12159e-05
1.11648e-05
1.11464e-05
1.12168e-05
1.11978e-05
1.11795e-05
1.1228e-05
1.11323e-05
1.11413e-05
1.11266e-05
1.11193e-05
1.1105e-05
1.11091e-05
1.12505e-05
1.10982e-05
1.10878e-05
1.10919e-05
1.0668e-05
1.10164e-05
1.15421e-05
1.15154e-05
1.13751e-05
1.13655e-05
1.14146e-05
1.14682e-05
1.14469e-05
2.64104e-05
1.93908e-05
1.48269e-05
1.07828e-05
1.19202e-05
1.15726e-05
1.14878e-05
1.1194e-05
1.09741e-05
1.07883e-05
1.08276e-05
1.06663e-05
1.0711e-05
1.06668e-05
1.06328e-05
1.08184e-05
9.58752e-06
8.46692e-06
1.03044e-05
6.28231e-06
5.10895e-06
5.46972e-06
4.39867e-06
1.17481e-05
1.16852e-05
1.20139e-05
1.0625e-05
1.19956e-05
2.58263e-06
3.10849e-06
1.28366e-05
1.27119e-05
1.26351e-05
1.24051e-05
1.20834e-05
1.2088e-05
1.17702e-05
1.29389e-05
1.28251e-05
1.2985e-05
1.2893e-05
1.28239e-05
1.27715e-05
1.27976e-05
1.28158e-05
1.2831e-05
1.67445e-05
1.52041e-05
4.84271e-05
4.85954e-05
4.36299e-05
2.33868e-05
1.75885e-05
1.60613e-05
1.8622e-05
2.03825e-05
1.85158e-05
1.96237e-05
2.33047e-05
1.86105e-05
1.06439e-05
5.94459e-06
2.27904e-05
2.30308e-05
1.21695e-05
9.14081e-06
9.08551e-05
5.25614e-05
1.11286e-05
0.000100493
6.13628e-05
1.2025e-05
1.22419e-05
1.24194e-05
1.1957e-05
1.2367e-05
1.26595e-05
1.27476e-05
1.27283e-05
1.28483e-05
1.27515e-05
1.26098e-05
1.24909e-05
1.77792e-05
1.97685e-05
1.60823e-05
1.84652e-05
1.38386e-05
1.11e-05
1.07771e-05
1.11441e-05
1.13017e-05
1.10587e-05
1.13042e-05
1.13042e-05
1.13133e-05
1.13615e-05
1.13393e-05
1.12923e-05
1.12798e-05
1.12315e-05
1.1233e-05
1.11703e-05
1.1163e-05
1.12377e-05
1.12132e-05
1.11922e-05
1.1246e-05
1.11463e-05
1.11538e-05
1.11432e-05
1.11347e-05
1.10998e-05
1.10954e-05
1.12647e-05
1.10853e-05
1.10804e-05
1.10799e-05
1.07283e-05
1.10608e-05
1.15814e-05
1.15466e-05
1.15262e-05
1.14017e-05
1.13777e-05
1.14474e-05
1.15034e-05
1.14658e-05
2.34344e-05
1.91627e-05
1.24119e-05
1.05407e-05
1.15968e-05
1.13726e-05
1.1482e-05
1.12004e-05
1.09511e-05
1.07479e-05
1.12915e-05
1.13112e-05
1.08504e-05
1.0983e-05
1.09519e-05
1.06826e-05
1.0746e-05
1.07328e-05
8.63981e-06
6.09368e-06
9.6229e-06
3.91377e-06
3.5373e-06
4.04931e-06
3.73903e-06
3.00241e-06
1.10429e-05
1.17993e-05
1.07471e-05
1.16963e-05
2.4886e-06
2.28646e-06
1.26989e-05
1.25867e-05
1.24454e-05
1.21548e-05
1.18049e-05
1.17889e-05
1.15867e-05
1.28071e-05
1.25492e-05
1.27875e-05
1.27006e-05
1.26441e-05
1.25503e-05
1.25247e-05
1.26044e-05
1.2616e-05
1.27228e-05
1.44855e-05
6.43311e-05
4.99817e-05
1.83532e-05
1.45561e-05
1.46824e-05
1.47167e-05
2.09518e-05
1.29157e-05
2.4292e-05
2.18892e-05
2.08848e-05
1.58133e-05
8.24243e-06
2.35612e-05
2.23722e-05
1.24892e-05
1.13172e-05
1.57574e-06
0.000114302
3.08489e-05
0.000132835
9.726e-05
6.20626e-06
1.13415e-05
1.21278e-05
1.20659e-05
1.18287e-05
1.20978e-05
1.21667e-05
1.23483e-05
1.21992e-05
1.26602e-05
1.25094e-05
1.2353e-05
1.21986e-05
1.83121e-05
1.95334e-05
1.67347e-05
1.90673e-05
1.24116e-05
1.1217e-05
1.07594e-05
1.12948e-05
1.13403e-05
1.10736e-05
1.13168e-05
1.13216e-05
1.13354e-05
1.13707e-05
1.13612e-05
1.12923e-05
1.13171e-05
1.12818e-05
1.12479e-05
1.12561e-05
1.11861e-05
1.11726e-05
1.12586e-05
1.12437e-05
1.12074e-05
1.12341e-05
1.12643e-05
1.1153e-05
1.11687e-05
1.11511e-05
1.1136e-05
1.11187e-05
1.10934e-05
1.10827e-05
1.10697e-05
1.10699e-05
1.09781e-05
1.06586e-05
1.1065e-05
1.16235e-05
1.16018e-05
1.15701e-05
1.14185e-05
1.14025e-05
1.14688e-05
1.15264e-05
1.15092e-05
2.27187e-05
1.57005e-05
1.23625e-05
1.04528e-05
1.13504e-05
1.11395e-05
1.1134e-05
1.10327e-05
1.07717e-05
1.06919e-05
1.14328e-05
1.15167e-05
1.11705e-05
1.14476e-05
1.08791e-05
1.11384e-05
1.10653e-05
1.06816e-05
5.34384e-06
4.15699e-06
6.86353e-06
3.3038e-06
2.75858e-06
2.76902e-06
3.28468e-06
2.50554e-06
8.60632e-06
1.15837e-05
1.10107e-05
8.7949e-06
1.13755e-05
2.35285e-06
2.19676e-06
1.2506e-05
1.23943e-05
1.22687e-05
1.19703e-05
1.16917e-05
1.15024e-05
1.12664e-05
1.25838e-05
1.25675e-05
1.2382e-05
1.25045e-05
1.24196e-05
1.23712e-05
1.23526e-05
1.23899e-05
1.24638e-05
7.36887e-06
8.59001e-06
8.08246e-05
7.57823e-05
2.69344e-05
1.02884e-05