/*--------------------------------*- C++ -*----------------------------------*\
| =========                 |                                                 |
| \\      /  F ield         | OpenFOAM: The Open Source CFD Toolbox           |
|  \\    /   O peration     | Version:  v2012                                 |
|   \\  /    A nd           | Website:  www.openfoam.com                      |
|    \\/     M anipulation  |                                                 |
\*---------------------------------------------------------------------------*/
FoamFile
{
    version     2.0;
    format      ascii;
    class       volScalarField;
    location    "1.9";
    object      p;
}
// * * * * * * * * * * * * * * * * * * * * * * * * * * * * * * * * * * * * * //

dimensions      [1 -1 -2 0 0 0 0];


internalField   nonuniform List<scalar> 
13611
(
121296
139914
104077
149319
24549.9
13219
107992
90004
127783
156288
2300.01
86512.9
21723.1
65610
43944
117438
2300.12
3285.18
45215.7
91946.1
52208.6
5540.67
2439.63
8304.47
2300
63358.8
26994
145753
58746.3
61722.9
2299.99
2300.12
2300
2301.63
66448
50939.7
141769
57093.3
37669.2
2814.7
2300
2302.5
2304.24
74045.4
49916.2
135380
82978.6
53358
14356
59509.4
2396.01
2312.15
2366.69
2560.76
13744.5
100937
90058.9
126332
79264.7
70102.6
35928.2
51969.8
14065
4086.46
74062.5
5971.17
5173.76
4442.95
21822.4
70859.1
87614.6
118085
86182.7
79950.2
42029
62514.4
17878.1
33527.9
13762.3
18550.6
18272.6
14036.9
41412.3
19648.7
80883.1
102518
100612
85896.6
84394.1
57318.9
64604.2
35349.5
43534.1
23569.2
71974.7
27119.1
24612.8
27234.2
42498
32335.7
75553.4
99030
97560.2
88500.6
92038.6
63589
63182.4
42783
56126.8
38328.1
74934.5
80718.9
37054.8
35995.7
37296.7
53465.8
42950.5
64122.5
82443.1
98696.8
98861.3
90839.6
85124.3
91933
92369.3
71548.3
71888.6
54204.1
60249.8
43822.3
84595.4
45775.1
46037.9
43623.5
53425.4
72220.8
80029.1
97768.2
99122.8
92189.3
89590.5
92268.1
95180.3
76909.7
75583.8
77178.7
61741
68332.7
53066.5
83645.8
89584.8
55055.9
52994.6
53074.5
62323.3
73645.3
84265.4
98044.8
99329.5
97858.6
89236.1
95151.2
89019.8
93070.1
94551.9
73922.9
82357.2
84319.9
64619.8
69284.4
57584.4
61663
89017.1
93802.2
61519.9
59861.3
61254.7
69922.7
65276.9
80941
84684.6
96775.9
100038
99175.2
91603.8
96213.6
91354.8
93239.6
81095.4
85907
85238.4
89333.1
73399.2
75193.5
66941.7
68977.2
93844.3
97663.6
68964.9
65261
76307.5
73410.7
81712.3
88538.8
96948.2
100123
100312
98705.7
94944.5
91145.7
93513.6
89652
95438.1
81442.1
91423.1
90867.3
95256.8
77579.6
76946.2
71714.3
75777.3
98603.6
101773
73686.4
71622.4
77505.3
77413.9
86037.5
91148.2
98809.3
101112
101400
99933.1
95861.2
93858.3
93933.7
90876.1
96384
85955.9
93426.6
95775.6
94424
99490
83965.8
83362.8
79150.6
80860.2
102481
79412.7
76337.4
83256.9
83235.1
89466.9
86395
91412.8
94085.5
98338
101273
101743
101846
101327
99553.5
97827.5
93419.4
95474.8
89251.8
91580.9
98523.8
99981
99901.4
94774.9
104778
86357.2
87841.3
82175.2
82294.7
86480.1
106132
83803.8
83232.2
85613.6
86366.1
92674.5
90627
94645
96511.7
99188.4
100603
102326
102508
102788
102344
101012
98289.2
94051
95773.2
90501.1
94805.7
101398
104491
103341
101097
106720
107386
92177.6
93354.7
87696.1
88206.9
90101.5
109425
110406
88652.2
90334.1
91262
94933.8
93001.5
92459.8
96659
97396.5
97672.5
101122
102846
103058
103131
102252
101292
100211
93981.6
91051.6
100213
106609
108095
107609
103254
111387
111107
95311.5
96820.5
91302.5
91461.8
95009.1
112076
114083
93207.3
93014
93977.1
97409.1
96470.6
96428.8
98687.2
99470.4
98187
102319
100237
103589
103651
103858
103113
102647
100715
94658.3
87367.7
93843.7
103109
109270
112154
111320
108596
114461
113259
114189
100872
101925
96638.1
96621.1
98174
115325
116380
97610.9
94551.6
96635.7
97999.8
99101.9
98271.3
98100.3
98069.1
100102
97700.1
102869
100576
103891
104118
104143
103844
103224
102176
96178.5
90238.4
93771.2
107967
113787
115795
111981
115119
110378
118247
117320
117124
103970
104935
99525.2
103063
119444
102533
98688.4
99755.5
100368
101160
100835
101248
100799
101709
98354.1
102366
103633
99444.9
101504
104345
104483
104647
104415
104135
103049
102637
96212.2
92806.3
90305
95129.8
87747.5
104281
111234
116619
119019
116929
119161
115242
121500
120713
109534
109722
103995
105929
120107
121931
102414
106274
101891
103959
102304
102003
102239
103195
102797
97620.1
102737
103770
100030
101048
104466
104786
104801
104887
104527
104561
104072
103948
92927.5
91174.4
95520.5
92038.6
86248.6
79228.5
99976.6
105495
115782
121525
122854
120276
118324
122689
122613
125086
122682
112176
112339
106656
110463
124434
105184
110109
104486
106567
104034
103809
104553
105979
105108
97953.6
102315
103344
104189
99225.6
101490
104686
104857
105144
105170
105138
105216
104487
104715
93183.8
90598.5
94533.9
97107.4
94439.6
82592
88986.7
79952.9
98260.5
103874
119750
124401
125787
125144
123008
126545
126892
128289
126545
117099
116411
111469
113237
124609
127130
108801
113046
112182
106680
109451
104769
105002
106380
107722
107147
102340
103387
104059
99581.4
101217
104696
105035
105306
105333
105212
105436
105630
105408
105908
92628.7
91409.1
95334.3
97260.5
92789.8
81824.9
87218.6
75129.4
77102.2
71089
100441
105628
120310
123642
128436
130222
127830
126386
124785
129968
128603
131559
118676
119201
117932
126662
126851
129313
111721
116445
116317
109404
112157
106300
106626
108324
110250
109284
101797
102691
103087
103727
104162
98879.4
100520
104476
104923
105604
105661
105398
105882
106173
106036
107096
93471.8
91989.7
96299.4
94636.1
98061.7
95395.6
83611.5
78693.7
88499.9
72783.3
76580
68689.7
99143.9
104360
125370
127454
131218
130693
132649
132019
131208
128724
133189
132752
134820
122683
123011
120410
128951
132421
115330
119458
119336
111993
115077
107419
108120
110161
111205
111150
101799
102619
103199
103521
103806
99496.5
100334
104411
104969
105662
105930
105264
106190
106650
106753
107817
93247.5
90805.8
96746.7
95095
97679.5
95165.7
81778.1
78712.2
85786.3
92262.2
72028.5
73870.3
67858
100930
106199
126053
128508
129991
135054
134876
136682
134674
131685
134565
136964
134164
135474
137959
126499
124683
131011
131322
133553
118911
122866
122861
114227
117898
109151
109566
111723
113620
113469
101322
102253
102888
103535
103741
99213.3
100697
104688
104068
105894
106206
105351
106479
106986
107460
108825
93299
91424
96210
94382.1
98338.3
98633.6
82367.9
76688
85624.2
93609.5
69557.9
72847.6
63527.9
65416.2
105183
129713
133066
133465
138219
137796
138926
139039
134931
139654
140028
138196
139794
141658
127246
129872
125822
132479
136513
121545
126208
117212
120843
110262
111403
113579
115386
115167
101358
102084
102881
103154
103394
99651.1
100317
104633
103723
105747
106197
106463
105049
106745
107593
107999
108794
109873
92589.2
91079.1
96361.7
94698.1
98134.1
99518.5
79957.6
73989.3
77225.4
87475.8
82670
97089.9
91026.9
68668.1
70096.4
61159.8
64740
106692
102551
133718
135252
135375
142299
142137
143639
141979
138496
141014
144150
140800
139178
142685
144879
131468
133786
129475
135252
137442
124636
126608
129824
119073
123377
112257
112861
115215
117958
117437
101056
101701
102198
102537
102953
103070
103378
99347.6
100581
104317
103689
105933
106482
106652
105027
106764
107632
109565
110646
93216.4
91704
95619
96899.9
94120.5
97494.5
98688.6
80323.7
72246.9
75166.6
86046.6
82061.5
98063.1
91883.3
66286.9
68867.2
60978.2
62661.4
106149
103474
136337
140234
139642
145646
145305
146377
141209
145629
147432
145372
142573
146994
148811
132469
134611
136170
141367
126444
130071
132809
121666
123476
126018
113196
114931
117443
119178
101063
101597
101943
102365
102513
102776
102982
99597.9
100460
103961
104463
103315
105504
106430
106842
106565
106995
108259
109389
112025
92651.7
91023.8
95714.7
96503.3
94491.9
97802.9
98431.8
78496.8
72888.7
69846.2
74955.3
83354.5
87296.8
79622.1
96840
101662
94216.8
89840.7
65470
66604.7
56694.9
59121.5
61988.5
107276
140722
142925
142094
150057
149774
149912
145245
149439
151294
148292
145651
143696
149715
152527
136304
138006
139298
142020
129539
132601
136357
122866
126213
128477
115163
116461
119187
121459
101276
100821
101701
101878
102051
102205
102369
102778
99287.1
100074
103524
103993
102953
105632
106908
107279
106340
106676
107464
110205
112519
93150.3
91591.1
95279
96797.8
94063.5
97479.7
98750.1
76259.5
71282.6
68284.6
72398.7
82138.6
86532.4
78452
98497.6
102773
94286.6
90239.1
63255.2
65137.6
56976.6
59774.3
106836
142697
147327
147097
151956
153409
152421
154897
148549
153718
155059
152872
148960
147531
154166
156071
138703
137942
141123
139793
145881
130829
136109
138517
125563
128630
115620
116582
118661
121585
122625
101339
100757
101505
101593
101716
101762
102056
102291
99461.1
100133
103414
103938
102410
106800
104724
107723
105998
106483
107742
109477
111561
114286
92644.2
90839.2
95706.1
96411.3
94290.1
97691.2
98640.7
75065.9
69101
65807.5
71671.3
82918.5
79623
84811.4
88375.5
76129.5
100481
96747.8
104958
92337.9
62926.6
55102
58406.1
108415
147110
150539
149400
157010
158120
156624
158794
153167
158213
158401
155823
154748
152858
149685
160440
142336
142272
143709
142361
142905
149029
145905
133711
136646
142133
126904
131366
117495
119005
120198
122933
125372
101175
100945
100490
101435
101515
101582
101388
101588
102051
99141.1
99840.7
102785
103053
102280
107612
104571
108850
107266
104866
105484
106383
110657
112049
114577
93123.8
92240.2
95408.3
96701.3
93765.8
94902.5
98183.9
97260.7
72996
67538.9
64345.9
69610.7
81356.3
78700.5
84969.9
88244.4
74990.1
101512
97408
104003
92066.2
61205.1
51798.2
55889.3
52702.7
59032.5
107758
147007
150339
154571
153810
158887
159648
161582
163738
157102
162425
162085
159972
159768
155648
153952
163825
144135
144171
145090
153606
149230
134142
140026
144366
129714
131789
117645
119303
122189
125194
126490
101150
100875
100506
101260
101250
101155
101001
101350
101266
101499
99115.7
100039
102534
102521
101555
106132
103019
110412
108136
104174
105914
108370
110625
113368
116161
92783.5
92896.1
95924.7
96469.2
93672.4
94818.6
98259.1
97384.3
71806.3
67921.3
65248.3
61999.2
69762.9
79634.3
81969.9
76900.6
83646.7
86601.9
89883.6
75485.1
72703.8
101115
95811.9
99421.9
105321
93694.5
60744.8
54349.1
51128.3
57397
108427
149900
154842
158418
157140
163728
164282
165593
167160
164651
162036
166563
165080
161734
163220
162161
160166
156399
168418
148449
148138
148961
153473
136957
139891
143408
148261
130669
134723
119315
121055
124002
126019
129043
101078
101163
100705
100906
100325
101015
101066
100876
100733
100905
100697
101130
98672.6
99375.3
99987.7
101682
101271
101234
106315
101988
110925
109324
101677
105292
107945
112788
113928
115777
93137.7
92524.9
95730.9
96944.2
94273.4
95219.3
97859.4
66054.7
63938.9
60943.2
68136.8
78367.8
81218.5
76794.2
83864.7
86502.6
89409.2
73741
72030.2
102852
97339.6
99165
104238
92852
58386.4
47729
55249.3
52012.2
48739.1
108927
106575
154275
158817
162081
161638
166249
166611
169418
171789
168685
165403
171127
168614
165948
166965
167757
162429
160445
170436
171432
150420
149838
151169
153105
156486
137124
142665
146512
150786
133194
135100
119496
120876
123230
124454
128308
130004
101097
101195
100706
100887
100500
100808
100763
100471
100327
100590
100081
100373
98708.8
99131.4
99697
100225
99986.3
100505
103109
99771.5
113505
111092
102843
101408
111548
111065
113828
116753
92577.4
94061.5
95946.8
96906.7
94194
95096.3
97993.2
66122.7
64370.5
61970.9
58764.8
68412.2
78422.9
82520.3
79809.9
75537
85152.2
87698.4
90674.3
73933.7
70341.5
102548
96898.2
100780
104981
93718.5
57465.9
45304.1
53848.8
50672.7
47322.4
109363
107352
157254
163211
166427
165026
171057
170732
172395
173916
174293
172287
169405
172079
172372
169364
170603
169951
166825
163935
175970
176133
154150
153896
154345
161320
139683
142257
145850
150108
154428
134202
137706
121201
118434
122580
124006
127338
129047
132719
101002
100945
100739
101060
100470
100822
100522
100399
100151
100175
99606.4
99954.3
100176
98449.4
99285.8
99894.2
100289
99235.3
99690.7
100734
98014.4
113432
107968
98842
98545.5
111463
112638
113174
115982
93697.6
94614.8
93431.6
96417.4
95592.9
97262
94618
97753.6
64299.8
62701.2
61207.2
57896.2
66967.8
76811.9
82476.6
79691.2
75476.8
85130.3
86857
90181.9
72853.9
70233
103948
95241.5
97855.8
100942
92950.3
55089
40498.4
43939.9
51615.3
48385.5
44986.1
107810
105763
156744
161629
164185
167090
170262
169369
172970
173722
176164
178854
179097
175023
171827
176501
173708
173951
174517
167989
164618
178356
178352
155820
160312
160782
163828
139831
144591
148184
153200
157392
137059
122681
121045
119444
125998
127721
132008
133862
101016
100931
100672
100801
100915
100635
100644
100110
99835.5
99771.8
99762.1
98966.5
99204.7
99525.1
98604.7
99735.6
99025.1
100111
100545
97438.6
99370.9
97916.5
100107
96627.7
112053
92613.9
107462
128338
114419
113284
114599
117099
93719.8
94555.3
93840.1
96442.2
95603.4
97210.8
94644.1
97951.3
62520.1
64054.9
59332.1
55852.5
65268.5
67441.1
76782.3
81122.8
83929.9
78306.9
73912.2
87183.2
88672.7
91543.5
71392.4
68736.3
104327
95290.5
96666.1
99574.3
102840
94154.8
54342.2
38506.6
41835.3
50348
47138.5
43612.2
108182
106431
160437
163266
168885
171390
174683
177465
179056
178804
181152
181292
181669
179053
175819
180304
178003
177131
175293
178319
171949
169927
182930
181832
159831
165932
169682
142872
147343
151908
156849
161297
138379
124353
122316
118901
126144
130155
132395
136713
100597
100628
101134
101206
101296
100869
100495
99907.1
99394.4
99531.6
99559.3
99445.7
98713.6
98646.1
98879.4
98354.2
99866
99162.8
100306
100668
98400.9
98697.3
94770.4
82462.1
95781.3
110883
86832.6
104198
120757
115933
117811
116379
94289.8
93108.5
93537.9
94612.6
95999.5
96841.1
95214
97677.9
60677
62059.7
58906.5
54805.1
64751.1
66117
75540
81307.9
83821.3
78169.7
73292
85991.7
88317.4
91387.5
70592.6
69011.6
96675.9
99758.8
103345
94025.5
52308.9
38479.7
40460.7
48173.4
50676.8
44723.6
41150.9
109656
107691
104678
166806
169720
172076
175071
178826
180614
181601
183017
185293
186259
187541
179139
184260
179678
181634
180352
178888
182139
172836
171935
186575
184951
162508
164302
171349
172705
143477
149706
152871
159843
164345
141111
124136
121822
120027
128042
130209
135191
138073
100631
100640
100946
100697
101015
100389
99679.6
99405.3
99663
99185.9
98813.5
97952.5
98117.1
98147.2
98577
100286
99552.8
98966.4
100369
100657
98086.1
98035.6
91752.7
59827.3
96393.6
49659.2
94251.2
113113
147714
116884
117931
120097
117711
94087.3
93383.4
94552.3
96012.1
96972.6
95189.8
97751.8
60483.1
61816
57247.4
52535.9
55455.2
63275.5
66171.3
74059.1
75635.8
80511.5
82561.2
84719.8
76720.9
79253
71407.7
86715
88956.3
90257.1
92751.7
67797.6
95290.7
98108.3
101105
102630
34905.7
36482.2
47236.6
48714.2
43818.1
39741.6
109329
107670
105276
168668
173776
176307
179291
183059
184940
186414
185895
187798
187905
189640
188899
183903
184450
185871
181750
179857
185515
177570
177245
187112
191159
188898
167071
170157
176956
178128
146200
150447
155286
163479
160517
168427
142322
125706
123143
119316
127798
132320
134910
137579
141034
100949
100350
101048
100963
101056
100739
100351
99708.1
99416.5
99415.8
99073.2
99146.4
98721.7
97785.9
97712.3
97752.4
98447.9
100408
99611.8
99249
100773
100985
98928.4
97627.8
95998.7
82549.7
97443.8
48725.5
98705.7
93675.8
84066.4
142255
117775
117875
117056
94707.6
93661.5
93840.9
94755.4
95554.4
96242
96685.8
97372.9
98047.7
58608.2
60205.6
57137.5
51157.3
54154.4
63112.5
64665.7
73279.5
74276
81495.4
82624.2
83833.4
76477.2
78923.9
70774.7
86227
88099.9
90477.5
92675.5
67867.7
94964.5
98059.7
101173
103509
32942.8
35975
45342.6
48173.5
41791
37504.2
40180.5
109216
106515
104556
173259
176993
179694
183053
187289
189106
190007
190106
192163
192165
195214
193045
187760
186843
186619
189232
184459
183066
187951
179790
191831
192227
195830
192302
169850
178006
180947
145186
149044
153954
158668
166378
164822
170866
125252
122719
119694
129650
131982
136871
140391
142315
100566
100969
101308
101310
101494
101397
98881.1
99701.4
98865.2
98901.4
98482
97895.5
98496.7
97584.2
97317.7
97566.4
97951.5
98754.9
99857.1
100303
99141.4
100715
101052
97723.8
98274.2
92204.8
75590.1
95946.2
24861.3
95864.3
51296.7
121283
118580
116866
121302
90375
94438.8
94150.2
94161.5
94916.5
95443.2
96129.8
96891.1
97528.8
97967.2
58577.6
59941.6
55290.9
49194.3
52135
61384.9
64837
71873.3
73954.8
81200.1
83981.3
75073.3
77603.4
79892.6
69217.7
86917.8
85037.6
88453.6
89574.4
91569.3
93603.7
66404
95672.7
99036.1
96841.9
102660
100276
31589
33681.9
44757.7
46136.2
41361.6
36739.4
38247.7
111134
107956
107288
105331
175915
181462
183373
187408
190975
192469
195189
195980
195729
198517
197918
192347
191014
190481
193477
186971
184697
190660
183633
195818
196928
199213
196334
174192
187092
186298
146727
151366
155414
160491
169698
166525
174962
126805
124204
121185
129112
134000
136288
139669
141244
145155
100543
100328
101378
101215
101642
101243
100767
99120.7
98885.4
97643.5
100085
97915
97722.9
97039.2
97171.3
96853.3
96680.8
97038.8
98792.7
100130
100871
100209
99313.6
101444
101381
96601.9
97105.9
99694.6
162860
95888
37158.1
132121
65041.8
118595
115682
111763
94536.4
94421.6
94194.1
97134.1
93210.7
94935.7
95670.1
96250.3
96732
97361.7
98216.3
57104.9
58009.8
54580
47696.1
51265.6
61203
63864.4
71420.4
72515
81789.6
82898.7
74675.6
77636.9
79858.4
68920
86179.2
85052.5
87743.7
89483.1
91942.6
93183.4
66379.8
94945.6
98424.6
97295.8
102795
100773
29589.8
31854.5
33516.6
42821.1
45813.4
39345.4
35051.3
37848
110974
108343
106316
104773
179944
184339
182498
187118
190982
195159
196556
199510
200598
200342
203376
199274
201925
196107
194006
192315
197003
188432
187303
184960
191898
186760
199209
198837
203507
176864
192401
190146
149993
154267
158631
164144
172744
170285
176200
126153
123763
120577
130889
133432
138608
140811
144713
146571
100421
99579.8
101124
101846
101813
100804
99735.7
97562.4
97793.9
99335.7
97509.7
97481.6
96385
96701.9
96191.4
96956.4
95855.4
99055.8
98574.8
99872.9
101291
100510
101574
102000
96112.2
96549.6
97054.4
113438
162914
131011
87527.9
113937
82034.3
116133
116220
92058.9
112037
94647.2
94185.3
95622.7
92776.9
95104.1
95482.6
96080.8
96971.4
97612
98042.7
55443.7
57309.7
52586.1
47724.4
49364.8
62501.3
59725.4
64904.7
70016.5
72062.6
80967.1
83137.6
73089.6
75481.9
78946.1
76721.1
67516.7
86619
84204.4
88311.1
90251.3
91430.5
93754.2
95536.7
98935.5
96732.4
101831
103693
100091
27956.4
29703.4
31906.2
42399
44049.9
38891.9
34539.6
35811
109887
108073
107022
105652
182481
188207
186720
189949
195666
198336
199736
204385
205492
204599
204072
206477
207123
200810
197650
195459
200606
190766
188337
187129
194775
189376
203206
203574
205958
206785
181125
201317
204293
151318
156858
159567
164919
172994
172133
179365
127355
121464
125710
129770
135496
138401
143295
145516
149564
100559
99624.8
102144
102251
101890
101345
101087
99469.1
98056.4
97931.5
97400.9
98684.5
97283.8
96342.3
96007.2
96107
97533.8
97160.9
96547.6
99171.8
98847.8
99982.1
101138
101342
100600
100916
102174
101755
95697.2
95885
99264.8
139407
97161.1
81973.4
98212.3
116365
111153
96240
108040
94601.3
94206.4
92877.4
92539.3
94879
95635.9
96236
97449.7
96748.5
98386
53877.6
55322.5
58238.4
52139.1
45643.7
49017.9
61924.1
60304.5
64602.4
69697.2
70617.3
81273.7
82342.8
72797.8
74988.4
79139
77052
67278.4
86032.8
84117.7
87822.6
89969.8
92041.7
93181.5
95073
98325.6
97227.1
102320
103401
100497
27798
29954.2
32575.5
40489.5
43818.6
36716.9
35129.4
110066
109927
108808
106600
105133
186316
190974
190428
193819
196834
202730
204556
208916
209998
209382
207868
212499
210886
204305
197947
200729
204323
191808
189559
188563
195948
193054
206651
205573
210590
211468
184407
217960
167994
247511
154480
157002
162250
167788
176981
176323
170999
179797
183283
118957
126345
130846
135261
140603
144544
148572
151258
100588
99912.8
99244.1
102329
102058
101661
101375
98922.5
97815.1
97861.3
97979.1
98486
95910.7
95735.7
95619.6
96704.9
95955
95134.5
99518.8
98779.5
100358
101467
101679
101213
101268
102412
102265
95243.3
94582.7
93621.7
113017
103159
91234.3
88234.6
109432
115332
100846
101261
115453
94835.4
94685.4
93267.5
91222.2
92485.3
95217.3
95601.3
95936.1
97772.9
96981.3
98257.9
53796.2
55112.3
56874.2
50496
45640.2
47369.4
63004.1
59309.5
65857.3
68394.4
69773
80384.3
82897.6
73904.9
71694.1
75987
78162
84854.6
86650.4
88178.8
89065.9
90800.5
91695.6
93341.5
95621.4
94031.5
98829.3
96652.5
101701
104015
99910
25904.5
28298
31609
40142.5
41822
36474.3
32878.1
112553
111010
108506
107334
105465
189568
194955
193903
201893
205913
208785
213523
215024
213779
213033
216420
215728
209161
200473
203966
206868
194459
190967
189737
188590
198244
190733
211045
209885
214152
215739
189012
195785
127300
172413
154316
160762
163227
166608
178141
174009
183138
185610
120073
129274
125030
133244
137534
143498
139890
147920
150998
100380
99732.3
99058.7
102721
102535
102114
101684
101195
98452.9
96970.1
97363.4
97890.5
97301.1
95017.9
95159.1
95406.6
96718.6
95440.7
95254.1
95240.1
99640.1
99133.5
100431
101717
101917
101285
101586
102323
102889
102309
94865
93607.2
102473
90897.4
88347.8
83979.6
114464
104640
104428
111513
95151.2
94517.8
92328.7
91729.2
94007.4
95948.2
97734.9
96801.1
97427.4
98447.7
51705.8
53488.5
57351.3
50124.7
44246.8
46931.5
62711.2
59821
65517.4
68196.2
70296.9
80523.6
82561.2
73297.4
71996
76138.9
78410
84531.2
86188.8
87476.9
89010.1
90673.2
92402.6
95222.9
93830.1
98340.1
96808.1
101915
103952
100316
24078.9
25166.9
26055.7
29290.1
38307.2
41329.2
34817.5
31814.8
111337
109388
109178
107008
106219
104857
193301
198285
197956
202063
205538
210881
213533
217954
219106
218514
217501
222364
218068
219495
212527
203968
200231
209969
195308
192210
190330
187978
198151
192937
188123
215398
212225
219332
220127
193064
158856
130380
155973
161474
168730
181523
177044
172887
185149
189249
117933
122466
130618
127058
134061
136534
145340
141941
149313
153963
100041
100844
99348.1
98658.6
103069
102633
102342
101706
101556
98401.3
96638.1
96582.5
96965.9
97564
95411.1
95069.2
94467.2
96360.3
95299
95590.2
94813.7
95220.5
100017
99223.6
100748
102330
102595
101443
101724
102955
103167
102894
94032.7
91093.6
97537
87112.6
91396.8
85506.2
84330.9
109947
104184
110846
103651
95014
94512.1
91546.7
93552.6
94487.3
96334.1
95634.8
98125.3
97092.3
97703.5
98824.7
51595.2
53373.9
56301
48216.5
45147.4
42513.4
61328.5
64086.8
58753.8
66939.1
69693.6
81495.8
79541.9
83444.3
73543.8
70963.2
77482.6
75324.8
85213.6
86627.2
88019.4
89779.5
91434.2
92290.1
95598.6
94399.8
92980.3
98887.1
97506.5
96240.4
101189
102687
103436
99846.2
22373.3
22903.1
24374.8
28251.5
37895.1
39212.7
32794
35792.5
29516.1
111319
108525
107735
106456
104723
197453
199673
200483
205119
210340
213418
218095
222661
223273
222969
222769
225013
225017
223243
224115
218060
206350
202591
211154
194267
191624
189421
187566
199666
185543
185912
218813
215784
223523
224946
192789
197724
153395
175248
40435.1
158990
164784
167802
180152
184492
175211
189221
118476
122925
129521
133045
125569
137089
147890
144530
141596
152290
155158
99908.7
100706
99456.8
98471.9
103402
102728
102136
101754
97820.9
96250.5
96247.8
96810.2
97132.3
94860.8
95372.1
94644.6
94768.2
95235.3
94625.4
95013
100167
99684.2
100890
102221
102658
102824
101329
101754
103198
103615
93728.3
91761.8
91100.3
93765.6
88551
88882
112343
107745
109731
103609
95261.7
94333.4
93635.9
93432
93901
96150.3
95749.6
98159
97554
96893.3
98951.3
50088.5
51531.4
54632
57206.9
47523.3
44274.6
41596.6
61195.9
63797.8
59664.6
66644.3
68668.2
81164.9
79948
83313.9
72831.8
74335.3
70916.7
77657.4
75839.6
85000.9
85894.7
87704.3
89769.2
91394.7
95254.3
94189.5
92914.1
98687.9
97110.1
96441.9
101669
102454
103958
99841.9
20464.2
21554.6
24682.8
22114.3
26276.3
38653.6
31221
35221.8
28309.4
110088
109007
107327
106013
105228
203718
205109
209043
211722
218062
222887
226890
227851
228278
225943
229822
231131
229229
221018
209260
205519
202297
214950
195484
193058
190542
186070
199006
184198
218284
223394
216502
228373
229288
226083
197268
202013
171472
177287
94178.4
160263
165298
170161
181472
188238
179115
173398
192121
116247
121228
131536
134776
126402
139251
149416
146337
144181
154483
151973
158537
100159
101034
99195.1
98728.6
97890.3
103780
103188
102295
101611
97600.1
96025.8
95938.6
96276.3
96752.7
94310.4
94975.8
94951.7
94172.2
94276.9
95351
94758.5
94107.7
94613.3
100610
99784
102696
102964
103286
101601
102334
103769
103956
91896.2
93958.7
98868.1
89895.2
91032.7
93030.2
110383
109916
107324
95167.6
94922.4
94903.1
93165.5
94339.1
96407
95538.6
98561.6
97803.5
97069.7
99466.5
48423.8
50147.7
51885.9
53815.6
56380.1
45325.7
42455.2
39859.2
62268.2
64905
59122.1
67433.1
68691.6
81655.9
79454.4
84190
82587.9
73701.4
71882.2
69671.1
76816.1
78491.3
75101.4
85931.7
88171.5
86719.3
89018.3
90633.6
92161.7
94652.4
95826.1
93520.6
99261.4
98100.5
97370.8
101505
102972
103696
100310
18884.9
16346.9
19445.5
22877.7
20547.3
25586.2
36792
31692.4
29011.7
33493.4
26359.1
111974
108857
107565
106399
104882
206628
208054
210417
216747
219989
226946
231750
232929
230858
233308
234168
233703
233299
230386
226323
210751
207876
204427
216729
197116
192766
189453
185706
201006
180472
221364
224681
220225
232797
234223
230946
201498
196401
206549
174873
182523
176368
191454
163389
168422
185622
188489
191780
180871
175091
117697
122014
131169
134345
128892
124465
139239
148697
146319
144030
157589
153452
159696
99885.2
100823
99365.3
98513.4
97661.3
103645
104190
103498
102647
102000
96965.7
95446.8
96240.1
94444.6
94948.6
94771.4
94494.3
94002.1
94958.1
94401.2
93877.1
93723.4
100826
100218
102562
102978
103411
103822
101851
101162
102217
103973
104250
94026.8
98677.5
100793
93932.3
94077.5
96791.6
112530
110836
107774
94759
94051.9
92947.5
93613.8
94198.2
96356.1
95547.4
98618
97528.6
98255.9
96788.1
99547.4
47429.5
48474.5
51075.6
54660.5
57376.1
44696.1
41073.9
39380.7
62006.8
64539.5
60381.8
66652.6
67483.6
81097.3
80092.1
83957.5
82956.4
73927.7
71443.9
70008.6
77227.1
78165.6
75383.4
85086.1
87520.6
86712.8
89323.6
90633.5
92231.9
94303.8
95736.4
93557.4
99351.1
98242
96833.6
100886
102086
102706
104161
99930.3
16899.4
18011.9
23583.5
21014.3
18550.8
36483.3
30098.5
27462.9
33426.8
24975.2
110652
108379
108909
107090
105969
105241
213279
214539
218246
224877
231838
235153
238905
238074
239944
238978
238755
235668
228220
213339
208156
206968
203486
220370
215599
196686
194480
191598
187102
182449
200353
179987
227830
222043
237440
234792
238092
231364
205726
199142
210474
179201
176495
171396
164216
169511
186963
192153
195943
184641
178630
172863
120465
116965
133323
136687
129268
125043
141454
150191
148785
145990
158185
156270
152361
162374
100183
101135
98947.3
98024.6
97170.2
104056
104491
103210
103966
102509
101801
96796.3
95281.7
95019.3
95743
94199.3
95161.6
95206.7
94502.5
93478.8
94454
93839.4
93195.8
93123.6
100698
100337
103032
103466
103736
104257
101684
101302
102733
104518
104673
95368.9
100946
104779
95082.4
96741
99958.7
115027
112256
110112
94909.5
93794.2
92617.5
93989.3
94758.5
96004.3
95379.1
99094.5
97669.6
98420.4
96910.6
99892.1
45903.2
47689.5
52129.4
49421
53814
56606.1
43046.6
41302.5
37862.9
63170.1
65456.6
59980.6
66806.5
81735.9
79537.1
84256.3
82677.3
73192.6
72040.7
69524
77056.5
78588.8
76310.9
74667
85244
87446.7
86086.7
90078.8
88824.7
91044.9
91695.3
93026.3
94446.5
95046.1
96162.3
98919.3
97797.4
97157.7
103197
103882
15384.7
13029.8
15914.2
23135.6
19303.5
17183
34933.4
30325.3
28117.4
25356.5
31850.3
111658
108352
109194
107504
106065
104958
215703
216012
223205
226579
239839
240985
242740
242116
242258
241559
241927
240450
236752
233450
212966
210876
208313
205319
222245
217917
198436
193906
190993
186270
183148
202214
228070
225416
242015
239320
242820
235080
210025
206025
203081
214537
174720
174388
158606
167255
190754
193013
195753
186116
180161
174303
121289
119536
135941
133146
131367
127351
123337
142109
150046
148692
144837
161948
156484
153904
163816
96855.1
104480
104895
103461
104289
103016
96316.4
94716.9
94515.1
95572.8
93631.2
95515.8
96135.4
94257.6
92948.9
94024.1
93597.4
92609.3
101089
100698
103424
102940
103905
104340
104629
102067
102606
104843
96988.7
103851
106829
97987.5
100334
102760
116283
113481
111215
92940.5
93347.5
94106.2
94711.6
96132.2
95401.8
99197.2
97376.9
98110
98833.2
96602.4
99986.1
45029.5
48067.9
45719.9
51216.9
49492.5
54746.9
57109.5
43281.5
39662.8
37027.4
63378.3
64824.8
61374.3
58382.8
65318.1
67215.3
81573.7
79863.3
83455.8
73659.5
71384.5
68375.9
70276.3
77939.1
76352.5
74891.7
84397.7
86450.2
87933.6
90584.8
89213.6
91909.2
93168
93869.8
95160.2
95809.3
104350
13559
14607.8
21405.2
19395.8
17467
15350.4
35057.3
28650
27181.6
23724.7
31820
111037
108993
109436
107234
106602
105438
219915
221509
224923
231244
243084
247236
248875
247462
247353
247048
248089
244334
242055
234668
215468
211168
207771
204625
225861
221241
198043
195815
188137
193117
181885
201707
231931
245919
238822
244207
235417
214446
210408
205739
218562
174619
169676
151045
167037
192275
196488
198519
183894
189984
178076
172698
118841
137149
135201
132237
127178
124685
141442
153029
149978
145740
162419
158500
96382.7
104894
105367
104045
104831
95835.7
94387.7
94498.4
93991.4
94844.9
93019.8
94947.6
96859.9
93503.1
92360.9
92977.6
91996.9
101130
100797
103853
103474
104370
104622
105095
102024
103119
105252
98880.8
105826
106314
109775
99865.2
101203
103376
105278
115418
113056
91107.9
92658.4
93933.5
94187.6
95016.2
95827.1
95249.2
99690.6
97527
98210.2
98925.5
96792
100381
46118.9
44824.8
51345.6
48548.5
54289.2
55686.8
42147.2
40266.6
37678.9
62843.8
60843.1
57862.8
64164.8
66022.8
80756.9
82484.3
79401.5
83435.5
73328.6
71552.6
68589.1
69708.6
78014.4
77142.8
75636.5
74155.5
84353.4
86245.7
87532.5
90622.1
90057.4
88788.4
92618.2
91379.8
94045.8
94724.1
95960.7
11955.9
10246.5
12835
21467.4
17269.3
15600.2
14288.2
33614.9
28494.9
25586.4
23966.8
30108.6
110658
108655
109851
107695
106521
105396
221711
222737
230786
233689
248795
252283