/*--------------------------------*- C++ -*----------------------------------*\
| =========                 |                                                 |
| \\      /  F ield         | OpenFOAM: The Open Source CFD Toolbox           |
|  \\    /   O peration     | Version:  v2012                                 |
|   \\  /    A nd           | Website:  www.openfoam.com                      |
|    \\/     M anipulation  |                                                 |
\*---------------------------------------------------------------------------*/
FoamFile
{
    version     2.0;
    format      ascii;
    class       surfaceScalarField;
    location    "1.9";
    object      phi;
}
// * * * * * * * * * * * * * * * * * * * * * * * * * * * * * * * * * * * * * //

dimensions      [0 3 -1 0 0 0 0];
oriented        oriented;


internalField   nonuniform List<scalar> 
21399
(
0.207678
0.715197
-0.701444
0.924127
0.753849
-0.0640598
0.669624
0.0847994
0.791131
0.563976
0.37793
0.138415
0.61498
0.569739
0.824065
0.249411
0.471889
0.701381
-0.565019
0.94506
0.623027
8.90836e-06
0.565658
0.33342
-0.386042
0.61829
0.775423
0.286263
0.413787
0.40196
0.553537
0.906757
0.413207
-0.131556
0.405759
0.175841
0.113646
0.487687
-0.0369321
0.8176
0.807702
-0.151053
0.715397
0.905971
0.240051
0.321557
0.0765063
0.490903
-0.365571
0.47541
0.426451
0.657499
0.0559052
0.748854
0.773309
0.582076
0.322054
0.390628
-0.152746
-0.385186
0.458599
0.117364
0.226157
0.24719
0.649528
-0.124719
0.783038
0.361994
0.383999
0.399639
0.375002
0.588899
0.682585
0.00281552
0.206923
0.304528
0.151229
0.420368
0.36975
-0.12354
0.572403
0.0733972
0.442941
0.39892
0.384398
0.782737
0.773961
-0.139336
0.727286
0.54203
-0.354651
0.357187
-0.148128
0.333242
-0.182836
0.411639
0.00766596
0.280637
0.357016
0.0119809
0.287478
0.4294
0.496373
-0.0542446
-0.363991
0.747656
0.319855
0.461647
0.443
0.331079
0.734796
0.860897
0.415397
-0.0582806
0.132478
0.312563
0.0199533
0.232455
0.319737
-0.322922
0.334843
-0.0353891
0.467725
-0.0393315
0.131386
0.412764
0.446136
0.300882
0.903713
0.776375
-0.326282
1.05969
0.533609
-0.394695
0.336235
-0.175087
0.30744
-0.262993
0.282834
-0.0305663
0.299726
0.0196857
0.0991315
0.362438
-0.0277502
0.264103
0.322865
-0.295211
0.426182
0.117126
-0.214854
0.515284
0.299356
0.603519
0.745994
0.0296088
0.773976
0.284498
0.832093
-0.0874224
0.334426
0.00176325
0.317699
-0.0351349
0.303766
0.337191
-0.169091
0.268086
0.130439
-0.369243
0.341322
-0.105259
-0.03383
0.356475
0.576179
-0.150384
-0.299503
0.41632
0.360886
0.477248
0.0376963
-0.0684949
0.671109
0.676494
0.50632
0.785389
-0.385832
0.669622
0.445516
0.180522
0.276186
-0.27456
-0.233496
0.198256
0.0701947
0.231701
0.29705
-0.166697
0.299896
0.0412876
0.26594
0.0567119
0.265621
0.383291
-0.0226756
0.42071
0.114205
0.556259
0.565015
0.110706
-0.104524
0.610414
0.758066
0.0262857
0.794701
-0.125903
0.55918
0.357616
-0.177217
0.283931
-0.00782101
0.082927
0.329262
-0.131129
-0.185874
0.255974
0.30614
-0.074615
0.119743
0.106727
-0.253625
0.294758
0.221889
0.0439425
0.278466
0.445318
-0.17997
-0.308313
0.285399
0.435863
-0.015406
0.0791929
0.476334
0.643347
-0.402466
0.512616
0.331041
0.207526
0.76834
0.819952
0.432686
0.0979845
-0.221934
0.214043
0.279729
-0.196894
0.296389
0.0327264
0.12477
0.0523713
0.221641
0.299539
-0.179875
0.275864
-0.1692
0.220411
0.0742204
0.264227
0.431204
-0.152909
0.13678
0.250994
0.425805
-0.140624
0.410138
0.908275
0.727617
-0.0850659
0.662192
-0.150055
0.374924
-0.044091
0.478968
-0.271762
0.0601685
0.707237
0.669808
0.149147
-0.204828
0.302729
0.0577137
0.00913674
0.102568
0.236781
-0.204151
-0.116794
0.241487
-0.245706
0.297946
-0.0241806
0.0959242
0.0720355
-0.215074
0.289158
0.111186
0.329688
-0.193075
0.374367
-0.123557
0.188865
0.289313
0.120635
0.486083
0.421342
0.250389
0.4763
0.57646
0.32849
0.102918
0.24507
0.729088
0.715855
0.634477
0.185857
0.203534
-0.145879
-0.201926
0.21098
0.293064
-0.190575
0.23956
-0.00287333
0.0372611
0.082738
0.21526
0.2634
-0.167541
0.268733
0.224791
0.0642396
0.33582
0.18111
-0.302513
0.178817
0.384984
-0.196319
-0.180908
0.301353
0.670921
0.672356
-0.196617
0.594145
-0.0182044
0.529707
-0.201624
-0.273465
0.376182
-0.0285382
0.659328
0.0689759
-0.0785151
0.793374
0.0268108
0.606919
0.190603
-0.00482286
0.00155468
0.147123
-0.0481917
0.259105
0.0727521
-0.204995
0.202043
0.227798
0.28447
-0.20186
0.2495
-0.0343243
0.10113
-0.165737
0.229874
0.0331859
0.348407
-0.167449
0.322599
-0.143895
0.3176
0.0672362
0.151936
0.136507
0.272641
0.696916
0.602377
0.0693808
0.397094
-0.389914
0.371359
0.139484
-0.461674
0.259757
-0.0857494
0.580056
0.675163
0.799773
-0.215087
0.210171
-0.19585
0.197354
-0.0487849
-0.21097
0.162728
0.0439482
0.273077
-0.200396
0.0227271
0.213367
-0.011395
0.118639
0.0475441
0.17898
0.194918
-0.0938347
0.271852
-0.0420888
0.304922
0.155013
0.160905
0.277821
-0.21069
0.328005
-0.176203
-0.180632
0.317013
0.331308
-0.0588583
0.0514358
0.644544
0.652947
-0.483463
0.552407
-0.08675
0.501014
-0.129949
0.435669
-0.296445
0.388621
-0.129059
0.245365
-0.419015
0.998201
0.255279
-0.187382
0.986176
0.185736
0.0243643
-0.0136737
-0.226715
0.177865
0.18802
-0.02535
0.231909
0.0462976
-0.00552056
0.20839
-0.200722
0.18926
0.2262
-0.107644
-0.172673
0.220149
0.00625003
-0.238741
0.144873
-0.0173006
0.184016
0.293975
-0.139085
0.294302
-0.133535
0.0970811
0.117192
0.117654
0.247835
0.06906
0.188839
0.898819
-0.106192
0.758357
0.652037
-0.100134
0.41387
0.30543
0.0919273
-0.396311
0.267056
-0.151157
0.809952
0.738976
0.246278
-0.172331
0.196625
-0.213588
0.199853
-0.0357807
-0.164414
0.13901
0.0595107
-0.128445
0.174704
-0.154673
0.149126
0.00760077
0.188726
0.000470984
-0.229101
0.121382
-0.00902107
0.194912
-0.00982129
0.17879
-0.114489
0.298402
0.155098
-0.196936
0.0633321
0.276319
-0.179351
0.283094
-0.166014
0.287442
-0.169905
-0.17923
0.248195
0.311887
-0.123163
-0.00207624
0.899905
0.545187
0.75547
-0.5231
0.422542
-0.109599
0.47857
-0.173485
-0.306313
0.398014
-0.0394562
0.160557
0.555528
0.253446
0.746665
0.801114
0.188402
0.0081576
0.0353911
-0.164082
0.128265
0.220907
-0.0819496
-0.142665
0.202109
-0.261788
0.133309
0.0105948
-0.112696
0.195933
-0.185725
0.186124
0.272894
-0.151586
-0.187714
0.178632
0.00713241
-0.193909
0.184059
-0.0151491
0.158315
0.101404
0.215097
-0.060081
-0.168043
0.23132
0.0969758
0.10363
0.121311
0.0451057
0.124928
0.407405
0.491672
0.770017
-0.225422
0.576604
0.178198
0.588503
-0.166368
0.368613
-0.348723
0.174998
0.0490834
0.212541
-0.252166
0.339466
-0.179057
0.660076
0.17991
0.566127
0.593786
0.206405
-0.146822
0.154924
0.179479
-0.144134
0.224228
-0.0959997
0.0781818
0.0974888
0.0552361
0.169746
-0.0364679
0.180313
0.0713335
0.0101429
0.175267
0.0107877
0.0269775
0.182329
-0.167181
0.152004
0.277028
-0.118825
-0.0666873
-0.248585
0.188422
-0.0173544
0.257053
-0.160183
0.248514
-0.144983
0.259471
-0.138263
-0.123664
0.16871
0.298263
-0.173455
-0.105191
0.596244
0.415369
0.353993
0.362636
0.470816
0.593019
-0.472735
0.30604
-0.104445
-0.217148
0.39197
0.283503
-0.23457
0.355933
-0.143523
0.0871636
0.119086
0.597869
0.0615382
0.773027
0.571331
0.803417
-0.0139495
0.597585
0.0208751
0.526786
0.199159
-0.0442975
0.0800512
0.0842819
-0.118385
0.196513
0.200456
-0.103017
0.184146
-0.128967
-0.167501
0.131005
0.21295
-0.14165
0.209224
-0.164989
0.175706
-0.177616
0.204509
0.00464431
0.189335
-0.0373544
0.210245
-0.201319
0.0824072
0.0647038
-0.1633
0.145878
0.0834865
0.0882308
0.114394
-0.239991
0.101641
-0.0713505
0.657182
0.669613
-0.316116
0.558927
-0.196658
-0.295189
0.765432
0.297278
0.548452
-0.242726
-0.387363
0.28267
0.0662247
0.00440845
0.12121
-0.263778
0.12015
-0.17672
0.288868
-0.169897
0.13093
0.641445
0.701725
0.789266
0.0133438
0.596734
0.0750872
0.523057
0.489732
0.589735
0.528801
0.139783
0.204542
-0.124534
0.194996
-0.110756
0.0820239
0.067482
0.10148
0.0454238
0.203317
-0.0723368
0.0476633
0.0441607
0.168448
0.0071902
0.00312055
0.173021
-0.153371
0.116005
0.0468716
-0.113846
0.196195
0.177555
-0.112911
0.225291
-0.0794798
0.291325
-0.207962
0.207496
-0.119343
0.231132
-0.116822
0.244474
-0.142915
0.106149
-0.111274
0.76766
0.347163
0.322015
0.242377
0.351448
0.653342
0.643956
-0.360095
0.117163
-0.0775915
0.258724
-0.192613
-0.291087
0.295347
0.31151
-0.190422
0.292947
-0.172911
0.112026
0.121301
-0.113408
0.754051
0.704285
0.675062
0.780257
-0.000899451
0.598036
-0.399393
0.474872
0.0100341
0.513636
0.0905982
0.589278
-2.94426e-05
0.529371
0.21141
-0.0717019
0.0704224
0.0925318
-0.125575
0.207548
-0.119516
0.186938
0.150449
-0.0490043
0.195214
-0.149816
0.122853
-0.157193
0.204838
-0.139913
0.184001
-0.128381
0.135518
-0.190064
0.193117
-0.0171158
-0.013294
-0.0412022
0.179027
-0.132228
0.0792187
0.250824
-0.0546977
0.112307
0.0994887
-0.000555635
0.111713
0.12756
-0.180438
0.0374601
-0.0743449
0.537388
-0.21573
0.449143
-0.207022
0.500445
-0.149288
0.743362
-0.0906682
-0.0784649
0.721884
0.406846
-0.289856
-0.332101
0.254368
-0.032474
0.11879
-0.0369012
0.102404
-0.265109
0.0920899
-0.153193
0.250089
-0.128903
0.152872
0.600647
0.856439
-0.0561086
0.730469
0.598094
0.181498
0.608599
0.439564
0.0355642
-0.156974
0.671115
0.278566
0.0246757
0.369348
0.263488
0.0106238
0.589763
0.530031
0.0714326
-0.150169
0.0784226
-0.090834
0.161229
0.193261
-0.100756
0.0248408
0.0879874
0.0367273
-0.170399
0.121367
0.0549964
0.156546
-0.0337155
0.0555685
0.194333
-0.0588712
0.177139
0.140193
0.126889
-0.138935
0.0977197
0.118509
0.169891
-0.0907324
0.11514
0.189516
-0.0772702
0.194344
-0.0949239
-0.196658
0.196015
-0.0850179
0.209345
-0.0818701
-0.17566
0.213053
0.115115
0.458526
-0.481053
0.265035
-0.032129
0.293208
-0.447863
0.298321
0.45821
0.284529
0.630635
-0.0412367
-0.0356201
-0.297808
0.265214
-0.17913
-0.298746
0.26171
0.281605
-0.179314
0.254852
-0.162864
0.096787
-0.29652
0.167494
-0.0154226
0.615526
0.129046
0.726754
0.54142
0.714411
0.639148
-0.0528512
0.661987
0.282897
-0.365909
0.401693
0.26758
0.404152
0.288296
0.00366263
0.272355
0.537362
-0.0732102
0.603961
0.200459
-0.129087
0.169348
-0.0909609
0.102404
-0.00919435
0.0557696
-0.128931
0.153742
0.188969
-0.101028
0.118999
-0.0822983
-0.00758753
-0.140317
0.195286
-0.171391
0.137656
0.154567
-0.0990468
0.0956432
0.171436
0.005642
-0.0120561
0.193679
-0.0959783
0.20554
-0.0870972
0.0806483
0.213453
-0.0983832
0.117007
0.110544
-0.100621
0.124242
-0.183702
0.101761
-0.0606043
0.0292803
0.738409
-0.280309
0.611098
-0.346311
-0.408548
0.376252
-0.115533
0.46132
-0.163236
-0.45813
0.742201
0.171984
-0.400385
0.358957
-0.304939
0.269173
-0.0336783
0.102339
-0.0433601
0.0754298
-0.241846
0.0788875
-0.145153
0.204754
-0.0373356
0.744077
0.726902
-0.24168
0.78249
0.0443609
0.669468
0.39687
0.369294
0.293239
-0.219104
0.502234
0.182787
-0.341834
0.609839
0.774245
0.299877
-0.0114499
0.303706
0.267326
0.00511663
0.46472
0.606284
0.101349
0.040213
0.0280116
0.145712
-0.04333
0.136499
-0.118698
0.174449
0.167108
-0.0133975
0.106638
0.0660469
-0.147745
0.140133
0.0533392
0.0238726
0.0189416
0.193045
-0.0974622
-0.148406
0.153996
0.158881
-0.0540435
0.146806
0.0508089
0.12628
0.181055
-0.100454
0.0826088
0.186814
-0.0698681
0.204037
-0.0935653
-0.23206
0.13134
-0.1079
0.209421
-0.107719
0.126138
0.172077
-0.142855
0.480982
0.256933
0.330416
0.0297139
0.345538
-0.319681
0.156285
0.475418
0.266257
0.652463
-0.131378
0.0391295
0.2438
-0.277615
0.301988
-0.199778
-0.286414
0.242935
0.262053
-0.186729
0.231288
-0.152487
0.0595306
0.13764
-0.175035
0.0582064
0.685258
0.0318093
0.694413
0.826192
0.727114
0.871682
0.758544
0.160677
-0.211456
0.394446
0.620948
-0.0107391
0.366918
0.408067
0.255972
0.379863
-0.0760079
0.242906
0.0430305
0.248101
0.426274
0.180639
0.150316
-0.0490147
0.168582
-0.128415
-0.110817
0.138798
-0.149942
0.106592
-0.0112696
0.0244883
-0.14584
0.13242
-0.00420771
-0.131965
0.19798
-0.00573447
0.174182
-0.120868
-0.141682
0.165528
-0.133087
0.152005
0.0445786
0.0528104
0.0534943
0.0895111
0.163409
-0.112632
0.170742
-0.044524
0.186357
-0.103805
0.134099
0.0771123
0.254779
-0.123528
0.101444
0.0643026
0.184142
-0.0580637
0.0412311
0.622533
-0.365936
0.597089
-0.266986
-0.427778
0.457225
-0.0824686
0.341417
-0.185242
-0.540399
0.806133
0.111548
-0.275248
0.143753
0.313414
-0.274411
-0.0427238
0.0242437
0.062169
-0.0324039
0.0444635
-0.229359
0.0767858
-0.169899
-0.0323149
0.0796701
0.716451
0.694565
0.477881
0.347785
0.0950134
0.631519
0.675746
0.195376
0.361101
0.398183
-0.294896
0.45581
0.16856
0.0997322
0.300147
0.321198
-0.301235
0.290686
0.728741
0.708812
0.292377
-0.036311
0.216468
0.254906
0.246673
0.00149966
0.427321
0.579448
-0.174091
0.12503
-0.00555906
0.0103452
0.169672
-0.0631013
0.158378
-0.142006
0.166475
0.000428196
-0.123929
0.119689
0.0740187
-0.134686
0.128926
0.0324763
0.0425133
0.0324169
0.00997367
0.156765
-0.112236
-0.120329
0.173092
0.183227
-0.129795
0.172282
-0.0828048
0.0596165
-0.140917
0.0963476
0.0453972
0.0793666
0.170799
-0.0367623
0.173744
-0.0966852
-0.235466
0.11185
-0.134106
0.184601
-0.120361
0.112686
0.187925
-0.146747
0.443631
0.178613
0.23085
-0.562957
0.2957
-0.105994
-0.425937
0.343263
-0.084657
0.128078
0.444317
0.361287
0.554826
0.328525
-0.184869
-0.280746
0.00625321
0.218754
-0.261573
0.209028
-0.184867
0.31016
-0.248108
0.251347
-0.283844
0.229541
-0.185169
0.191898
-0.115183
-0.197086
0.164696
-0.117484
0.0161793
0.699709
0.028895
0.665119
0.572471
-0.245607
0.592908
0.64718
0.429645
0.639325
0.154754
0.333265
-0.164593
-0.208561
0.308417
-0.210491
0.531976
0.429363
-0.138514
0.480573
0.248836
0.533135
0.176161
0.210431
0.316688
-0.100129
0.18156
0.0733927
0.183109
-0.136681
0.564621
0.443384
0.00466016
0.143351
-0.148953
-0.13525
0.145558
0.103351
0.0236676
-0.141312
0.141711
-0.0155902
0.134454
-0.0604634
-0.0124122
0.178865
-0.146432
0.131787
-0.0893059
-0.127172
0.159556
-0.114139
0.124088
0.0269133
0.0608055
0.069785
0.170705
-0.111141
0.143029
-0.0467113
0.157413
-0.112055
0.139881
-0.0605595
-0.142133
0.10532
0.0315656
0.0463089
0.206214
-0.0944439
0.05042
0.0674995
-0.034113
-0.471543
0.649895
0.514669
-0.284037
0.530315
-0.234834
-0.528877
0.422656
-0.18582
-0.294744
0.20998
-0.166764
0.707695
-0.346847
-0.197964
0.752462
0.047705
0.0663914
-0.25088
0.257069
-0.0651915
-0.0526219
0.125195
-0.0186714
0.00666469
-0.228153
0.112903
-0.0635397
0.0886473
0.728066
0.664288
-0.0748739
0.646917
0.517635
-0.025979
0.672576
-0.322879
0.752123
0.316035
0.339235
-0.184339
0.124796
0.152189
0.371321
-0.062799
0.219102
0.255838
0.276382
0.200847
-0.0820318
0.563112
0.69292
0.451554
0.432266
0.239417
-0.0289279
0.139345
0.286368
-0.15159
0.22503
0.249438
-0.0662773
0.564394
-0.157192
0.161796
-0.01389
-0.00343196
0.182033
-0.0787097
-0.119518
0.143163
0.171883
-0.030203
0.118834
0.111384
-0.111371
0.0989428
0.0516512
-0.0146795
0.0813572
0.0453928
0.171971
-0.0479038
-0.119053
0.145916
0.122263
-0.0614934
0.152219
-0.0824791
0.0410295
0.110668
0.0277824
-0.168061
0.107456
0.152981
-0.0477015
0.154931
-0.123407
-0.103817
0.150092
0.121118
-0.215637
0.172073
-0.121714
0.175597
-0.108159
0.118806
0.0428762
0.451645
0.246081
-0.434138
0.199145
-0.0116502
-0.437399
0.25139
-0.227556
-0.291901
0.125045
0.374043
0.333337
0.405188
-0.203231
0.266986
-0.200688
-0.0349156
-0.254152
0.188869
-0.220754
0.168069
-0.0956326
-0.169174
0.150423
-0.199361
0.205949
-0.0865272
0.102334
-0.165927
0.18848
-0.0998981
0.111472
0.616108
0.0648707
0.598948
0.620419
-0.178464
0.695687
0.783522
0.573206
0.689731
0.187119
0.303278
-0.178391
0.300711
-0.148438
0.240567
0.415761
-0.196475
-0.0536272
0.330192
0.382716
-0.181726
0.329724
0.233845
0.279
0.414426
0.448451
0.0034942
-0.0261726
0.458693
0.220567
0.308928
-0.16952
0.134831
0.158802
0.0630675
0.502026
0.136707
0.0250504
0.107303
-0.121231
-0.155084
0.151611
0.0624928
0.0932331
0.0317754
-0.15945
0.129222
-0.0362907
0.153106
-0.0417539
-0.060526
0.149347
-0.0977491
-0.124604
0.109876
-0.0432961
0.150021
-0.104662
0.102085
0.00317831
-0.0221939
0.0751845
0.0422342
0.151139
-0.11018
0.00681218
-0.138557
0.16629
-0.0311442
0.107181
0.0266361
0.188897
-0.0678363
-0.0436198
0.0538356
-0.177397
0.0691823
-0.0586465
-0.531379
0.574031
-0.16592
0.617299
-0.285479
0.500127
-0.301128
0.393651
-0.405439
0.482158
-0.230935
-0.336159
0.10848
-0.211194
0.707488
-0.37449
-0.255466
0.660349
0.0636653
-0.297165
0.0963841
0.255422
-0.290416
-0.0861601
-0.108385
0.158805
-0.254517
0.0367074
0.236126
-0.0857705
-0.200292
0.113693
-0.0980057
0.0225037
0.0889448
0.680526
0.597004
-0.160807
0.780743
0.534478
0.45319
0.329888
-0.0290525
0.601834
0.0643091
0.625098
0.330509
-0.143288
0.122416
0.160569
0.27838
-0.0377329
0.343733
0.0721935
0.186393
0.29029
0.304216
0.1489
0.6092
0.682762
0.478018
0.462573
0.0511096
0.251029
-0.116145
-0.10705
0.265913
0.497315
0.128645
-0.103629
0.170425
-0.0631588
0.0303456
0.150368
-0.0878932
0.150882
-0.0576705
0.122275
-0.0905162
0.149533
-0.0203371
0.116779
0.107751
0.0617324
0.0446354
-0.164124
0.0663133
-0.0543073
-0.131784
0.0884263
0.159582
-0.0575345
-0.116463
0.119612
-0.14191
0.119675
-0.0413035
0.0916099
0.0125576
0.133792
0.0193017
0.0235501
-0.131564
0.138324
0.0346699
-0.138487
0.107293
0.151703
-0.0445744
-0.115824
0.142412
0.105257
-0.173146
-0.187697
0.144022
-0.133917
0.140146
-0.0710025
0.0930098
0.602571
-0.0288161
0.436414
0.361571
0.21444
0.0923814
0.0765546
0.112583
-0.343607
0.353658
-0.245273
0.04415
0.771493
0.285478
0.283536
-0.219953
0.21984
-0.123513
-0.00697042
-0.241793
0.155599
-0.258707
0.150242
-0.083027
-0.0184599
0.206987
-0.170385
0.121141
0.237844
-0.12425
-0.14849
0.0504415
-0.126025
0.15452
-0.0656127
0.15965
0.520571
-0.0401723
0.636747
0.34729
0.432979
-0.0944711
0.628621
0.612543
0.676755
0.595677
0.507061
0.135167
0.288705
-0.166203
0.265441
-0.104799
-0.265705
0.228045
-0.271521
0.343842
0.276785
-0.0902909
-0.0170049
0.307429
-0.0762966
0.380717
0.28359
-0.134609
0.100754
0.508887
0.240791
0.442455
0.579201
-0.136345
0.599263
-0.160785
0.211956
0.259544
0.144025
0.143445
0.105175
-0.125683
0.623675
0.0873106
0.0667517
-0.123772
0.0605843
-0.0934598
0.0598346
0.0629673
0.10188
0.121361
-0.141721
0.16285
-0.0461071
0.152425
-0.0447024
0.122683
-0.0609666
-0.0758417
0.120433
0.146221
-0.0799687
-0.140617
0.0862415
-0.0522468
-0.14213
0.0845469
-0.0223347
-0.0188538
0.138147
0.149795
-0.130578
-0.0850856
0.108566
0.0224561
0.14175
-0.107128
0.16402
-0.0567729
-0.148001
0.103376
-0.00563522
0.174936
-0.0697281
-0.0291859
0.0061811
-0.148551
0.0775098
-0.0555832
0.395549
-0.424512
0.594734
-0.158521
-0.201025
0.562413
0.676084
-0.461836
0.407593
-0.315325
0.4646
-0.388165
0.377216
-0.264702
0.00996814
-0.339142
0.0937783
-0.295081
0.49176
0.279445
-0.434761
0.719963
-0.000170261
-0.249449
0.125882
0.239538
-0.246582
-0.103181
-0.0992715
-0.218054
0.13507
-0.187278
0.16875
0.0673478
-0.0662132
-0.198036
0.0737168
-0.147644
0.0284572
0.109282
0.48009
0.62924
-0.313877
0.746437
0.314375
0.22447
0.387792
0.283181
0.393227
-0.00489022
0.600246
0.502906
0.0038319
-0.183208
0.318452
0.0230776
0.0993045
-0.263751
0.159012
0.0449035
0.00535997
0.23119
0.112748
-0.28106
0.190849
0.214281
0.231284
0.244603
0.00260628
0.183919
-0.0144828
0.523863
-0.305508
0.546706
0.42839
0.454029
0.294187
-0.051743
0.247044
-0.102973
0.22737
-0.0838861
0.217565
-0.112348
0.339347
0.28505
0.142141
-0.054872
0.154844
-0.088136
0.143386
-0.0828373
0.0693543
0.146065
-0.0862493
0.1296
-0.0666521
0.113547
-0.0116875
0.114983
0.00636084
-0.0190546
0.106289
0.0702626
0.0850833
0.0703312
-0.0217344
-0.148907
0.0688659
-0.0627426
0.0974619
0.134915
-0.0504022
0.119764
-0.1253
0.106407
0.0529798
-0.0220987
-0.108215
0.13063
0.033497
0.0568482
-0.123388
0.0665843
0.144859
-0.0415226
-0.122506
0.116835
0.0792702
-0.149042
0.0971184
-0.126347
-0.127867
0.134003
-0.0503919
0.0892361
0.5593
-0.163899
0.251392
0.393551
0.400614
0.127481
-0.0543776
0.149149
-0.011059
-0.237459
-0.0272939
-0.22754
0.322317
-0.22862
-0.055623
0.486647
0.602041
-0.322857
0.756075
-0.0364003
-0.236055
0.235832
-0.110223
-0.0108241
-0.262628
0.159381
-0.225902
0.126572
-0.0492867
-0.127609
-0.143938
0.210983
-0.181799
0.115464
0.21598
-0.142275
-0.145045
-0.00264828
-0.116622
-0.00737738
0.704279
-0.283757
0.912498
0.193798
0.552317
0.816937
0.670653
0.586752
0.603741
0.221337
-0.198199
0.208013
-0.108661
0.236762
-0.0777015
-0.230631
0.27562
-0.229315
0.234753
0.24498
-0.13215
-0.0384024
-0.0576989
0.272062
-0.0788213
0.310215
-0.225827
0.470657
-0.235191
0.237862
-0.051196
0.0768216
0.447383
0.108176
0.438959
0.536966
0.531223
-0.232687
0.527158
0.165863
0.229397
-0.077714
0.134739
0.124437
0.145545
0.338238
-0.30734
0.592893
0.0999226
0.0552109
-0.133948
0.0510815
-0.0646234
0.0433324
0.0468766
-0.116974
0.105257
-0.101772
0.10812
-0.0933402
0.0742739
0.109855
-0.00358604
-0.081841
0.152085
-0.00826859
0.118163
-0.0478842
0.0963769
0.162807
-0.0940491
-0.111502
0.0486829
-0.0141243
0.0179107
-0.119805
0.0693603
-0.00557692
-0.0170107
0.118375
0.108755
-0.0558658
0.0865578
0.00808804
0.126469
-0.0930056
0.145632
-0.088819
0.14071
-0.0741558
-0.119118
0.0775639
-0.00231143
-0.0554854
0.134724
-0.0519568
-0.192367
0.065979
-0.0584133
-0.149531
0.099096
-0.0603338
-0.492803
0.328787
-0.241537
0.478029
-0.0846168
0.636917
-0.236481
0.605379
-0.430497
0.376005
-0.281443
0.323051
-0.334188
0.272872
-0.300222
0.0947168
0.13182
-0.360522
0.216643
-0.272339
-0.114679
0.601111
0.487159
0.432931
-0.487303
0.450772
-0.224556
0.114246
0.182934
-0.193799
-0.0665753
-0.0980558
-0.220098
0.170969
-0.156725
0.0292373
0.0719766
0.0290052
-0.104535
0.021515
-0.163827
0.135397
-0.138089
-0.135766
0.128346
0.420167
0.667428
0.24465
0.134636
0.417373
0.505605
0.310908
0.321403
0.348935
0.269513
0.316975
-0.0901159
0.693544
-0.00922882
0.00985718
0.128139
-0.229114
0.151457
0.232128
0.0435673
0.307778
-0.0729326
0.187359
0.175729
-0.193565
0.155219
0.193333
0.0845261
0.238205
0.0443601
0.181011
0.0539616
0.39378
-0.0761436
0.515417
0.591414
0.224275
0.372136
0.155228
-0.0632027
0.152852
0.23828
-0.103494
0.204976
-0.0805018
0.221583
-0.0760047
0.335291
0.303711
0.28967
0.126097
-0.0262116
0.141185
-0.0860129
0.130224
-0.0791719
0.0452113
-0.0908491
0.134159
-0.0710819
0.117937
0.0341514
-0.13625
0.0344614
0.0262657
-0.0619886
-0.0893141
0.0857136
0.0627545
-0.110776
0.102493
0.114818
-0.0234834
-0.122907
0.0287432
-0.0743065
0.0950104
-0.109226
-0.123929
0.141784
-0.0546287
-0.0957946
0.090186
0.113296
-0.130338
0.0624144
0.147237
-0.0607965
-0.0922094
0.100269
0.0342309
0.0525917
0.0518564
0.0391075
0.140748
-0.0632144
-0.120403
0.118061
-0.136117
0.0806053
-0.00107359
-0.136865
0.0848763
-0.0709168
-0.156945
0.0984918
-0.05789
0.0803759
0.595129
-0.266453
-0.487199
0.245569
0.552134
0.358513
0.11794
0.506682
-0.130765
-0.432755
0.151217
-0.109781
-0.061386
-0.205558
0.317814
-0.186047
-0.143951
-0.0894481
0.510763
-0.146143
0.633099
0.752265
-0.319557
0.595012
-0.144346
0.263658
-0.149451
0.0698136
0.151069
-0.217675
-0.175934
0.0778166
0.0143415
0.206149
-0.176766
0.172847
-0.101559
0.168186
-0.139727
0.0631321
-0.128945
0.150408
-0.0284619
-0.00977665
0.74126
0.65413
-0.399035
0.643435
0.639901
0.686647
-0.287974
0.598621
0.665611
0.405323
-0.203039
0.193868
-0.174873
0.184769
-0.0466971
0.220536
-0.0690305
-0.125694
0.169307
-0.263195
0.190344
-0.0672559
0.254694
0.281949
-0.106132
-0.107916
0.2612
-0.0677732
0.345855
-0.198614
0.43703
0.204743
-0.160326
0.217382
-0.0363188
0.618422
0.296183
0.0303221
0.485413
0.101696
0.490273
-0.19759
0.352968
0.175125
0.0335667
0.16056
0.207439
-0.0545626
0.101523
0.141112
0.131458
0.639646
-0.36781
0.657946
0.0302754
-0.121172
0.0949292
0.0199784
0.0441815
-0.135838
0.0566405
-0.0906483
0.0270645
0.0233623
-0.0705258
0.104647
-0.0748504
0.109299
-0.0957321
0.121983
0.040493
-0.00494863
0.0945591
-0.0318185
0.107632
0.00709803
0.0840803
-0.0917866
0.120424
0.0206288
0.0379019
0.0712038
-0.0732114
0.0185384
-0.0401819
-0.0784398
0.14077
0.0237833
0.0798788
-0.020163
0.128886
-0.0946868
0.108356
-0.0557902
0.146378
-0.0945607
0.117309
-0.0782401
0.0548138
-0.0512742
0.12027
-0.0396904
0.119169
-0.154245
0.0832902
-0.0557937
-0.163527
0.105592
-0.083196
-0.539419
0.272871
0.0194104
-0.293918
0.564618
-0.0127063
0.709005
-0.350599
0.682427
0.278671
-0.409481
0.510443
-0.35929
0.30181
-0.411649
0.246517
-0.307963
0.112191
-0.312827
0.126728
0.129209
-0.273216
-0.217492
0.128011
-0.104924
0.615479
0.605909
0.527994
0.275296
0.537968
-0.216315
0.0667446
-0.147705
-0.0249131
-0.0114161
-0.138613
-0.162285
0.0325345
-0.184915
0.0835985
0.227713
-0.162555
-0.113538
-0.0154539
-0.034384
-0.142051
-0.134006
0.124199
0.341972
0.0116505
0.642086
0.636156
0.00702243
0.47539
0.164158
0.291024
0.395341
0.493425
0.104971
0.31046
0.3548
-0.149999
0.555102
-0.0182226
0.235969
-0.0420492
0.173887
-0.182742
0.113749
0.110317
0.186005
-0.0166614
0.247653
-0.057233
0.21478
0.187018
0.141603
0.096883
0.340876
0.00510506
0.142409
0.239639
0.0571088
0.149726
0.251062
0.386678
-0.0903379
0.417229
0.587611
0.741833
0.262793
-0.00757823
0.14854
0.106015
-0.0840066
0.185561
0.202767
-0.0616262
0.218519
-0.0870345
0.436303
0.20381
0.385868
0.272519
-0.0882444
0.118494
0.00665661
0.109112
-0.0891628
0.117621
-0.0734668
0.119299
-0.0626846
-0.0872642
0.1143
-0.102113
0.125449
0.0173535
-0.111945
0.0370808
0.0135541
0.109848
0.0121227
-0.0714658
0.0895957
0.0780165
-0.0937238
0.100709
0.0108292
-0.108813
0.0169508
0.140682
-0.0203644
-0.0882665
0.102751
-0.0649099
0.0930588
-0.0219177
-0.0839882
0.102461
0.0782776
-0.0956248
0.119378
0.124987
-0.0451688
0.108686
0.0136374
0.0905548
0.0227082
-0.130802
0.052523
0.117187
-0.0624111
-0.136264
0.0849556
-0.136344
0.0966205
-0.0148652
-0.0530094
-0.151726
0.0958923
-0.0461794
0.0339517
0.572077
-0.299264
0.465893
-0.446529
0.171909
-0.476892
0.464085
0.232021
0.22141
-0.167908
0.100899
-0.0575409
-0.165189
-0.261272
-0.0467372
-0.14912
-0.183664
0.320925
-0.194242
-0.145257
0.465252
0.0492737
0.556438
-0.0206735
0.548524
-0.438002
0.713173
0.0998196
0.257094
-0.190348
0.109352
0.150523
-0.175481
0.185465
-0.19687
0.0118529
0.0672023
0.161478
-0.132798
0.14605
-0.0626095
-0.00259919
-0.142264
0.126678
-0.154604
0.120261
-0.017898
0.652152
0.64745
0.633776
0.658924
0.766107
0.657285
0.749849
0.659871
-0.191107
0.172929
-0.194363
0.152355
-0.0171735
-0.109785
0.223571
0.164839
-0.0544889
0.148213
-0.18939
0.132211
0.013084
0.201755
-0.0848112
0.271906
-0.12939
0.271063
0.233565
-0.13662
-0.279038
0.284246
-0.193497
0.336013
-0.138352
0.378151
-0.168745
0.225902
-0.0189774
-0.188481
0.605991
-0.10059
0.68866
0.377689
0.364641
-0.146503
0.409473
-0.192454
0.184913
0.105632
0.0429186
0.211663
0.118784
-0.00686009
0.156919
0.124652
0.435419
0.590054
0.650617
-0.0845251
0.0911523
0.0245647
0.0284321
0.0458089
-0.128597
0.0658912
0.0121533
0.0539601
0.110365
0.0906275
-0.0535569
-0.0899827
0.103525
-0.107334
0.119444
-0.0390201
-0.0369904
0.114996
0.0468527
0.0732179
0.0273992
0.0923648
-0.0754575
-0.103915
0.0834936
0.0144298
0.0600342
-0.111049
0.0890312
0.118111
-0.0157322
-0.0525647
0.0241336
0.107585
0.0117695
0.0623971
0.110587
-0.00193504
-0.0721333
0.0857462
0.0183974
-0.0758587
0.0985354
0.11451
-0.062017
0.0481441
-0.0514223
0.145801
-0.0492168
0.130897
-0.140785
0.0877391
-0.0449316
0.106271
-0.152496
0.108094
-0.0741735
-0.493967
0.194658
-0.322099
0.631856
-0.16784
0.609383
-0.377413
0.568189
-0.346812
-0.368229
0.200275
-0.267372
-0.317919
0.26035
-0.279267
0.114043
0.196509
-0.243275
0.171766
0.0983409
-0.282061
-0.284826
0.0905401
-0.215636
0.0703273
-0.223165
0.688227
-0.639579
0.688688
0.535644
0.325229
0.0733927
-0.610792
0.710497
-0.179697
-0.0106853
-0.106337
0.0100597
-0.214871
0.0150265
-0.168021
-0.154152
0.012759
-0.16378
0.101918
0.157418
-0.154167
-0.118001
-0.0243421
-0.027876
-0.0429671
-0.135907
0.06656
0.580676
-0.103383
0.736724
0.573248
0.0853315
0.30464
0.461161
0.65402
0.00298518
0.472218
0.277381
0.47176
0.187916
-0.0213912
0.191365
-0.0389707
-0.149266
0.132128
0.075158
0.0743387
0.136916
0.176152
-0.0279011
0.0442266
0.237448
-0.105192
-0.17814
0.191279
0.116993
-0.00705303
0.108113
0.0929918
0.0893376
0.0908381
0.353905
-0.0177717
0.215692
0.231806
0.157222
0.221209
0.505777
0.180976
0.508095
0.545986
0.152875
-0.0394042
0.195807
0.151274
-0.0324673
0.144439
0.167197
-0.0102539
-0.0488722
0.173543
-0.246307
0.682146
0.344103
0.343162
0.307889
0.126868
-0.0357424
0.108372
-0.0838319
0.102196
-0.0737883
0.108776
-0.0629889
0.108736
-0.0428631
-0.0781864
0.0903045
0.109663
-0.0557252
0.0321378
0.000634082
0.0560901
-0.00382272
0.0824416
0.0759625
0.0981483
-0.051363
-0.0857063
0.112996
-0.0115986
-0.128239
0.0527525
0.110277
-0.0268428
-0.113825
-0.0538074
0.006989
0.102803
-0.0138276
-0.104095
0.0882822
0.0742702
0.111288
-0.0873032
0.0991139
0.117311
-0.0548954
0.101393
-0.103358
0.132933
-0.0472153
0.0953528
-0.0769835
0.0386263
0.136586
-0.0380777
-0.11984
0.0577959
0.116412
-0.0682947
-0.132852
0.0813951
-0.129479
0.0802266
-0.00503439
-0.0451462
-0.130828
0.0858591
-0.024597
-0.0444356
0.0422149
0.511795
-0.31717
-0.52693
0.204794
0.0209688
0.441505
0.190736
0.164948
-0.326685
-0.408322
0.140918
-0.372856
0.0549088
-0.147998
-0.0827851
-0.258835
-0.0715388
-0.18652
-0.211784
-0.197325
0.287834
0.395418
0.292596
0.414273
0.274282
0.378824
0.156681
0.70392
-0.461694
0.53501
0.248718
0.188323
-0.198923
0.173096
-0.279481
0.171864
-0.161537
0.222117
-0.206199
0.00399542
-0.186245
0.0298876
-0.13047
0.139325
-0.0307955
-0.0307366
-0.0117683
-0.133493
0.109156
-0.142712
0.114604
-0.153856
0.11173
0.639593
0.47702
0.72421
0.557285
0.581814
-0.160094
0.620977
0.49366
0.474582
0.583153
-0.193235
0.171884
-0.159984
0.121045
-0.0610731
-0.129795
0.204993
0.16885
-0.0944831
0.194059
-0.057102
0.166201
0.18533
-0.141063
0.0801792
0.107538
0.0837927
0.224581
0.217594
-0.14358
0.251749
-0.127287
0.220331
0.208817
-0.119427
0.243056
-0.152147
-0.259795
0.242106
-0.157839
0.373643
-0.111246
0.343157
0.201689
-0.0444195
-0.250016
0.471407
0.58568
-0.0796367
0.437624
0.0708067
0.35892
0.187449
0.110575
0.176884