/*--------------------------------*- C++ -*----------------------------------*\
| =========                 |                                                 |
| \\      /  F ield         | OpenFOAM: The Open Source CFD Toolbox           |
|  \\    /   O peration     | Version:  v2012                                 |
|   \\  /    A nd           | Website:  www.openfoam.com                      |
|    \\/     M anipulation  |                                                 |
\*---------------------------------------------------------------------------*/
FoamFile
{
    version     2.0;
    format      ascii;
    class       pointVectorField;
    location    "1.9";
    object      pointDisplacement;
}
// * * * * * * * * * * * * * * * * * * * * * * * * * * * * * * * * * * * * * //

dimensions      [0 1 0 0 0 0 0];


internalField   nonuniform List<vector> 
16294
(
(0 0 0)
(0 0 0)
(0 0 0)
(0 0 0)
(0 0 0)
(0 0 0)
(0 0 0)
(0 0 0)
(0 0 0)
(0 0 0)
(0 0 0)
(0 0 0)
(0 0 0)
(0 0 0)
(0 0 0)
(0 0 0)
(0 0 0)
(0 0 0)
(0 0 0)
(0 0 0)
(0 0 0)
(0 0 0)
(0 0 0)
(0 0 0)
(0 0 0)
(0 0 0)
(0 0 0)
(0 0 0)
(0 0 0)
(0 0 0)
(0 0 0)
(0 0 0)
(0 0 0)
(0 0 0)
(0 0 0)
(0 0 0)
(0 0 0)
(0 0 0)
(0 0 0)
(0 0 0)
(0 0 0)
(0 0 0)
(0 0 0)
(0 0 0)
(0 0 0)
(0 0 0)
(0 0 0)
(0 0 0)
(0 0 0)
(0 0 0)
(0 0 0)
(0 0 0)
(0 0 0)
(0 0 0)
(0 0 0)
(0 0 0)
(0 0 0)
(0 0 0)
(0 0 0)
(0 0 0)
(0 0 0)
(0 0 0)
(0 0 0)
(0 0 0)
(0 0 0)
(0 0 0)
(0 0 0)
(0 0 0)
(0 0 0)
(0 0 0)
(0 0 0)
(0 0 0)
(0 0 0)
(0 0 0)
(0 0 0)
(0 0 0)
(0 0 0)
(0 0 0)
(0 0 0)
(0 0 0)
(0 0 0)
(0 0 0)
(0 0 0)
(0 0 0)
(0 0 0)
(0 0 0)
(0 0 0)
(0 0 0)
(0 0 0)
(0 0 0)
(0 0 0)
(0 0 0)
(0 0 0)
(0 0 0)
(0 0 0)
(0 0 0)
(0 0 0)
(0 0 0)
(0 0 0)
(0 0 0)
(0 0 0)
(0 0 0)
(0 0 0)
(0 0 0)
(0 0 0)
(0 0 0)
(0 0 0)
(-0.00458994 -0.0375539 0)
(-0.00453976 -0.0384408 0)
(-0.00448935 -0.0393095 0)
(-0.00443883 -0.0401598 0)
(-0.00438831 -0.0409911 0)
(-0.00433789 -0.0418033 0)
(-0.00428766 -0.0425961 0)
(-0.00423771 -0.0433694 0)
(-0.00418812 -0.0441228 0)
(-0.00413898 -0.0448565 0)
(-0.00409035 -0.0455702 0)
(-0.0040423 -0.0462642 0)
(-0.00399489 -0.0469384 0)
(-0.00394818 -0.0475929 0)
(-0.00390221 -0.0482278 0)
(-0.00385702 -0.0488433 0)
(-0.00381267 -0.0494397 0)
(-0.00376917 -0.050017 0)
(-0.00372657 -0.0505758 0)
(-0.00368488 -0.051116 0)
(-0.00364413 -0.0516382 0)
(-0.00360435 -0.0521426 0)
(-0.00356553 -0.0526295 0)
(-0.0035277 -0.0530995 0)
(-0.00349085 -0.0535526 0)
(-0.00345501 -0.0539895 0)
(-0.00342016 -0.0544105 0)
(-0.00338631 -0.0548158 0)
(-0.00335344 -0.0552061 0)
(-0.00332156 -0.0555816 0)
(-0.00329067 -0.0559429 0)
(-0.00326074 -0.0562903 0)
(-0.00323177 -0.0566242 0)
(-0.00320374 -0.056945 0)
(-0.00317665 -0.0572532 0)
(-0.00315046 -0.057549 0)
(-0.00312518 -0.0578331 0)
(-0.00310078 -0.0581057 0)
(-0.00307724 -0.0583671 0)
(-0.00305455 -0.0586179 0)
(-0.00303267 -0.0588584 0)
(-0.0030116 -0.0590888 0)
(-0.00299132 -0.0593097 0)
(-0.00297179 -0.0595213 0)
(-0.00295301 -0.0597241 0)
(-0.00293495 -0.0599182 0)
(-0.00291759 -0.0601041 0)
(-0.0029009 -0.0602821 0)
(-0.00288487 -0.0604524 0)
(-0.00286948 -0.0606154 0)
(-0.00285471 -0.0607713 0)
(-0.00284052 -0.0609205 0)
(-0.00282692 -0.0610632 0)
(-0.00281388 -0.0611997 0)
(-0.00280136 -0.0613302 0)
(-0.00278937 -0.0614549 0)
(-0.00277788 -0.0615742 0)
(-0.00276686 -0.0616882 0)
(-0.00275632 -0.0617972 0)
(-0.00274621 -0.0619013 0)
(-0.00273654 -0.0620007 0)
(-0.00272727 -0.0620957 0)
(-0.00271841 -0.0621865 0)
(-0.00270993 -0.0622733 0)
(-0.00270181 -0.0623561 0)
(-0.00266024 -0.0623578 0)
(-0.00261816 -0.0623595 0)
(-0.00257592 -0.0623613 0)
(-0.00253385 -0.0623631 0)
(-0.00249228 -0.0623648 0)
(-0.00247731 -0.062283 0)
(-0.00246164 -0.0621972 0)
(-0.00244526 -0.0621075 0)
(-0.00242813 -0.0620136 0)
(-0.00241022 -0.0619153 0)
(-0.00239149 -0.0618123 0)
(-0.00237192 -0.0617046 0)
(-0.00235147 -0.061592 0)
(-0.0023301 -0.0614741 0)
(-0.00230777 -0.0613507 0)
(-0.00228446 -0.0612218 0)
(-0.00226011 -0.0610869 0)
(-0.00223468 -0.0609457 0)
(-0.00220815 -0.0607982 0)
(-0.00218046 -0.0606441 0)
(-0.00215157 -0.0604829 0)
(-0.00212143 -0.0603145 0)
(-0.00209001 -0.0601386 0)
(-0.00205725 -0.0599548 0)
(-0.00202311 -0.0597628 0)
(-0.00198753 -0.0595623 0)
(-0.00195048 -0.059353 0)
(-0.0019119 -0.0591346 0)
(-0.00187174 -0.0589067 0)
(-0.00182995 -0.0586689 0)
(-0.00178648 -0.0584208 0)
(-0.00174128 -0.0581623 0)
(-0.0016943 -0.0578927 0)
(-0.00164549 -0.0576117 0)
(-0.0015948 -0.0573191 0)
(-0.00154217 -0.0570142 0)
(-0.00148757 -0.0566968 0)
(-0.00143094 -0.0563665 0)
(-0.00137223 -0.0560228 0)
(-0.0013114 -0.0556654 0)
(-0.0012484 -0.0552938 0)
(-0.0011832 -0.0549076 0)
(-0.00111576 -0.0545064 0)
(-0.00104603 -0.0540898 0)
(-0.000973986 -0.0536574 0)
(-0.000899586 -0.0532089 0)
(-0.000822818 -0.0527438 0)
(-0.000743648 -0.0522617 0)
(-0.000662058 -0.0517624 0)
(-0.000578034 -0.0512454 0)
(-0.000491574 -0.0507105 0)
(-0.000402658 -0.0501572 0)
(-0.000311306 -0.0495855 0)
(-0.000217519 -0.0489949 0)
(-0.000121309 -0.0483853 0)
(-2.27122e-05 -0.0477564 0)
(7.82579e-05 -0.0471081 0)
(0.000181562 -0.0464401 0)
(0.00028715 -0.0457525 0)
(0.000394956 -0.0450453 0)
(0.000504927 -0.0443182 0)
(0.000616992 -0.0435715 0)
(0.000731062 -0.0428051 0)
(0.000847039 -0.0420192 0)
(0.000964821 -0.0412141 0)
(0.00108429 -0.0403898 0)
(0.00120533 -0.0395467 0)
(0.0013278 -0.0386851 0)
(0.00145155 -0.0378055 0)
(0.000763386 -0.0194234 0)
(0.000926462 -0.0192373 0)
(0.000869494 -0.0160509 0)
(0.00128111 -0.0223687 0)
(0.0012438 -0.0205445 0)
(0.00113572 -0.0223494 0)
(0.000759316 -0.0274638 0)
(0.000941321 -0.0260697 0)
(0.000827094 -0.0255505 0)
(0.000497196 -0.00769153 0)
(0.000432563 -0.00904953 0)
(0.000716154 -0.0112181 0)
(0.00113384 -0.0243722 0)
(0.00124039 -0.0252284 0)
(0.00130132 -0.0238051 0)
(0.000110362 -0.0183804 0)
(-1.83588e-05 -0.021484 0)
(9.59122e-05 -0.0229463 0)
(0.000610236 -0.0133488 0)
(0.000408441 -0.0131613 0)
(0.00030534 -0.00512373 0)
(0.000635351 -0.036999 0)
(0.000538668 -0.0383313 0)
(0.000665055 -0.0375104 0)
(0.0015896 -0.0332313 0)
(0.00144577 -0.0345943 0)
(0.0015908 -0.0337979 0)
(0.000132967 -0.0253681 0)
(0.000250186 -0.0255444 0)
(0.000214622 -0.0233461 0)
(0.000554237 -0.0289088 0)
(0.000398654 -0.0285134 0)
(0.000378772 -0.0303427 0)
(-4.7036e-05 -0.0294923 0)
(1.90279e-05 -0.0306862 0)
(0.00010033 -0.0279007 0)
(9.60698e-05 -0.0133942 0)
(0.000242631 -0.0151304 0)
(0.000154837 -0.0106934 0)
(0.000255472 -0.00784612 0)
(0.000196513 -0.00427297 0)
(0.000517579 -0.0425571 0)
(0.000535442 -0.0421926 0)
(0.000414582 -0.0428933 0)
(0.001293 -0.0354494 0)
(0.00126497 -0.0350167 0)
(0.00113854 -0.03636 0)
(-5.98532e-05 -0.0353509 0)
(-0.000130895 -0.0370994 0)
(-5.52145e-06 -0.0357627 0)
(-0.000332902 -0.0409357 0)
(-0.000245293 -0.0396573 0)
(-0.00037498 -0.0406389 0)
(-0.000243733 -0.0298492 0)
(-0.000222101 -0.0273009 0)
(-0.000304169 -0.0290448 0)
(-0.000129871 -0.0245858 0)
(-3.48128e-05 -0.024645 0)
(0.000238319 -0.0106217 0)
(0.000120003 -0.0036404 0)
(0.000572313 -0.0417229 0)
(0.00109146 -0.0384259 0)
(0.000974234 -0.0390658 0)
(0.000990034 -0.039337 0)
(0.00148665 -0.036836 0)
(0.00152074 -0.0368109 0)
(-0.000734554 -0.0412698 0)
(-0.000655426 -0.0408801 0)
(-0.000666007 -0.0400475 0)
(-0.000116798 -0.0288507 0)
(1.95073e-06 -0.0266896 0)
(-0.000124523 -0.0270822 0)
(0.000179192 -0.0402596 0)
(0.000146128 -0.0413035 0)
(0.000275029 -0.0400158 0)
(-0.00235676 -0.0180857 0)
(-0.0019732 -0.0165413 0)
(-0.00217841 -0.0202035 0)
(-0.00230471 -0.0195638 0)
(-0.00244987 -0.0220591 0)
(-0.00361747 -0.0289117 0)
(-0.000457692 -0.027592 0)
(-0.000459404 -0.0293962 0)
(-0.000353205 -0.0267578 0)
(-0.000147034 -0.0213901 0)
(-0.000134219 -0.0169253 0)
(-0.000241382 -0.0205761 0)
(0.000111111 -0.00570178 0)
(6.98162e-05 -0.00825654 0)
(1.16176e-05 -0.010635 0)
(0.000197288 -0.046025 0)
(0.000168823 -0.0460665 0)
(7.5009e-05 -0.0467741 0)
(-0.000571783 -0.0480782 0)
(-0.000502202 -0.0472836 0)
(-0.000616699 -0.0480514 0)
(0.000263488 -0.0449537 0)
(0.000373972 -0.0441989 0)
(0.000318026 -0.0443472 0)
(0.00160005 -0.0358207 0)
(-0.000786239 -0.0371424 0)
(-0.000709547 -0.0355592 0)
(-0.000788875 -0.0361192 0)
(-0.00103753 -0.0493665 0)
(-0.00111538 -0.0500159 0)
(-0.00104297 -0.0497997 0)
(-0.00154391 -0.0119227 0)
(-0.00104421 -0.00873569 0)
(-0.00208587 -0.0211586 0)
(-0.00183454 -0.0178068 0)
(-0.00292915 -0.0271098 0)
(-0.00306873 -0.0274623 0)
(-0.00303733 -0.0290712 0)
(-0.000235877 -0.0252644 0)
(-0.000299373 -0.0275504 0)
(-0.000209145 -0.0161244 0)
(-0.000123709 -0.0133052 0)
(-0.000125575 -0.0103898 0)
(3.51201e-05 -0.00385956 0)
(-7.78912e-05 -0.00986356 0)
(-2.85619e-05 -0.00734028 0)
(-4.82151e-05 -0.00546778 0)
(-0.000419831 -0.0487343 0)
(-0.000506162 -0.0494739 0)
(-0.000381982 -0.0486953 0)
(0.000350644 -0.0445696 0)
(-0.000352579 -0.0466539 0)
(-0.000398614 -0.0473729 0)
(-0.000261834 -0.0462132 0)
(0.000475968 -0.0438354 0)
(0.000579989 -0.0432526 0)
(0.000606052 -0.0428626 0)
(0.0014614 -0.0376215 0)
(0.00151431 -0.0371694 0)
(-0.00137728 -0.0436596 0)
(-0.00142757 -0.0445661 0)
(-0.00137199 -0.0441186 0)
(-0.00146448 -0.0547234 0)
(-0.00141388 -0.0542159 0)
(-0.00147821 -0.0546412 0)
(-0.000437361 -0.0329426 0)
(-0.000499995 -0.0346662 0)
(-0.000398657 -0.0336036 0)
(-0.00116956 -0.052854 0)
(-0.00118933 -0.0532442 0)
(-0.00111291 -0.0527193 0)
(-0.00350428 -0.0450606 0)
(-0.00344934 -0.0446259 0)
(-0.00354665 -0.0438881 0)
(-0.00417105 -0.0344932 0)
(-0.00184758 -0.020086 0)
(-0.00258132 -0.0373847 0)
(-0.00254508 -0.0385882 0)
(-0.0024722 -0.0370811 0)
(-0.00277518 -0.0321361 0)
(-0.0028852 -0.0332973 0)
(-0.00281458 -0.033956 0)
(-0.0003226 -0.0205585 0)
(1.03172e-05 -0.00505138 0)
(-6.16517e-05 -0.0126001 0)
(-0.00037854 -0.0498911 0)
(-0.000421313 -0.0500912 0)
(-0.000465947 -0.0504333 0)
(5.2188e-05 -0.0471178 0)
(0.000132224 -0.0466096 0)
(0.000110471 -0.0466698 0)
(-0.00109159 -0.0535387 0)
(-0.00116311 -0.0538551 0)
(-0.00116415 -0.0540369 0)
(0.000745775 -0.0419443 0)
(0.000787451 -0.0418353 0)
(0.000887741 -0.0410013 0)
(0.00101126 -0.0407367 0)
(0.000913244 -0.0414038 0)
(0.000975558 -0.0410368 0)
(0.00127447 -0.0388651 0)
(0.00133939 -0.0384895 0)
(0.00139934 -0.0379887 0)
(0.00155342 -0.0367578 0)
(-0.000967812 -0.0404184 0)
(-0.00101733 -0.0402379 0)
(-0.00104363 -0.0411436 0)
(-0.00189722 -0.0508997 0)
(-0.00192304 -0.0516064 0)
(-0.00186678 -0.0509858 0)
(-0.000640101 -0.0288533 0)
(-0.000736854 -0.0304114 0)
(-0.000718516 -0.0311909 0)
(-0.00205233 -0.0589115 0)
(-0.00200139 -0.0585628 0)
(-0.00202845 -0.0586197 0)
(-0.00320089 -0.0522469 0)
(-0.00323851 -0.0524596 0)
(-0.00318269 -0.0529221 0)
(-0.00425108 -0.0378964 0)
(-0.00421369 -0.038988 0)
(-0.0041823 -0.0384192 0)
(-0.00147999 -0.0134136 0)
(-0.00099423 -0.00961691 0)
(-0.000556984 -0.00426575 0)
(-0.00242594 -0.030949 0)
(-0.002271 -0.0285334 0)
(-0.00243468 -0.0293694 0)
(-0.00262707 -0.035234 0)
(-0.00265937 -0.0367952 0)
(-0.00257143 -0.0359186 0)
(-0.00299684 -0.0420948 0)
(-0.00291245 -0.0412099 0)
(-0.00298419 -0.0407797 0)
(-0.000451235 -0.0193833 0)
(-0.000328999 -0.0158058 0)
(-0.000347748 -0.0149593 0)
(-0.000525837 -0.0231355 0)
(-0.000576378 -0.0231287 0)
(-0.000634476 -0.0259258 0)
(-0.000203827 -0.0131797 0)
(-0.00030106 -0.0171164 0)
(-0.000229149 -0.0124391 0)
(-6.68606e-05 -0.00502194 0)
(-0.000348396 -0.0495726 0)
(-0.000338908 -0.0495935 0)
(-0.000262085 -0.0490641 0)
(-0.0006379 -0.0513722 0)
(-0.000590952 -0.0511538 0)
(-0.000553123 -0.0508494 0)
(-3.84225e-05 -0.0475283 0)
(-8.37723e-06 -0.0472075 0)
(1.4379e-05 -0.0472792 0)
(-3.9974e-05 -0.0477079 0)
(-0.00125678 -0.0537735 0)
(-0.00132016 -0.0540869 0)
(-0.00132649 -0.0543402 0)
(0.000637888 -0.0433324 0)
(0.000747577 -0.0425926 0)
(0.000691998 -0.0429189 0)
(0.000861548 -0.0418175 0)
(0.000800199 -0.04218 0)
(0.000897992 -0.041146 0)
(0.000997973 -0.0405578 0)
(0.00100837 -0.0402964 0)
(-0.00111033 -0.0355313 0)
(-0.00118 -0.0369507 0)
(-0.00112593 -0.0364216 0)
(-0.00137036 -0.0409487 0)
(-0.00142046 -0.0416047 0)
(-0.00141011 -0.0420638 0)
(-0.00203296 -0.0560431 0)
(-0.00199561 -0.0559413 0)
(-0.00199552 -0.055692 0)
(-0.000968311 -0.0323554 0)
(-0.000926969 -0.0308893 0)
(-0.000985284 -0.031824 0)
(-0.00206912 -0.0578507 0)
(-0.00202751 -0.0575142 0)
(-0.00205321 -0.0575651 0)
(-0.00158859 -0.0553275 0)
(-0.00165091 -0.055737 0)
(-0.00163668 -0.0558356 0)
(-0.00436536 -0.0407423 0)
(-0.00437604 -0.0407936 0)
(-0.00432685 -0.0414178 0)
(-0.00358898 -0.0445779 0)
(-0.000503093 -0.00516219 0)
(-0.000527364 -0.00469932 0)
(-0.00163371 -0.0219728 0)
(-0.00189772 -0.0262969 0)
(-0.00169154 -0.0242343 0)
(-0.00254931 -0.0313997 0)
(-0.00256837 -0.03319 0)
(-0.00369044 -0.0440049 0)
(-0.00362957 -0.0436767 0)
(-0.000413718 -0.0200668 0)
(-0.000632529 -0.0234221 0)
(-0.000652289 -0.0228154 0)
(-0.000706352 -0.0248539 0)
(-0.000145225 -0.00911812 0)
(-0.000221888 -0.0103434 0)
(-0.000155974 -0.0083458 0)
(-0.000539921 -0.0503595 0)
(-0.00060458 -0.0508671 0)
(-0.00050802 -0.0502693 0)
(-0.0005912 -0.0509996 0)
(0.00031009 -0.0454989 0)
(0.000413374 -0.0448215 0)
(0.000367287 -0.0450597 0)
(0.000254005 -0.0455448 0)
(-0.00187618 -0.058539 0)
(-0.00190824 -0.0586453 0)
(-0.00193022 -0.0588467 0)
(-0.00132483 -0.0555596 0)
(-0.00127472 -0.0552246 0)
(-0.00131317 -0.0554114 0)
(0.000603319 -0.0435229 0)
(0.0012498 -0.0389232 0)
(0.00117501 -0.0395028 0)
(-0.00125087 -0.0380123 0)
(-0.00132098 -0.0389624 0)
(-0.00128792 -0.0391014 0)
(-0.00217246 -0.0553356 0)
(-0.00220356 -0.0554001 0)
(-0.00220991 -0.0557815 0)
(-0.00215967 -0.0563295 0)
(-0.00219997 -0.0567492 0)
(-0.00217494 -0.0567399 0)
(-0.000891426 -0.0327853 0)
(-0.000919264 -0.0322588 0)
(-0.000956794 -0.0338222 0)
(-0.00224633 -0.0598079 0)
(-0.00227447 -0.0600858 0)
(-0.00224251 -0.0599098 0)
(-0.00192642 -0.0581955 0)
(-0.00190462 -0.0579353 0)
(-0.0019528 -0.0582413 0)
(-0.00459125 -0.0370098 0)
(-0.00381564 -0.0449336 0)
(-0.00385869 -0.0440964 0)
(-0.00389842 -0.044195 0)
(-0.00309605 -0.05148 0)
(-0.00310545 -0.0520171 0)
(-0.00305516 -0.0520548 0)
(-0.00288709 -0.0456989 0)
(-0.00294396 -0.0461149 0)
(-0.00287544 -0.0466598 0)
(-0.000911156 -0.00988494 0)
(-0.00140248 -0.0148526 0)
(-0.00158412 -0.0191747 0)
(-0.00107473 -0.0128513 0)
(-0.00211171 -0.0294769 0)
(-0.00209575 -0.0275598 0)
(-0.00221674 -0.0395433 0)
(-0.00218268 -0.0381272 0)
(-0.00226868 -0.0391977 0)
(-0.00253011 -0.0492875 0)
(-0.00248238 -0.0485563 0)
(-0.00251508 -0.0485513 0)
(-0.000775576 -0.0268382 0)
(-0.000712638 -0.0257648 0)
(-7.83436e-05 -0.00459114 0)
(-0.000281689 -0.049279 0)
(-0.000707851 -0.05184 0)
(-0.000713166 -0.0519434 0)
(-0.000657268 -0.051566 0)
(0.000285323 -0.0455313 0)
(0.000271599 -0.0457028 0)
(-0.000166924 -0.048452 0)
(-0.000130997 -0.0482897 0)
(-7.8955e-05 -0.0478851 0)
(-0.00165258 -0.057445 0)
(-0.00164566 -0.0573417 0)
(-0.0016905 -0.0576378 0)
(-0.00126651 -0.0552345 0)
(-0.00120368 -0.0548626 0)
(-0.00123505 -0.0550084 0)
(-0.00140423 -0.055982 0)
(-0.00138522 -0.0559179 0)
(-0.00136162 -0.0557207 0)
(-0.00179275 -0.0477681 0)
(-0.00177755 -0.0470617 0)
(-0.0018285 -0.0478107 0)
(-0.000900278 -0.0309366 0)
(-0.000855085 -0.0292169 0)
(-0.00193924 -0.0492858 0)
(-0.00198131 -0.049575 0)
(-0.00198619 -0.0500871 0)
(-0.00252329 -0.0573998 0)
(-0.00249595 -0.0573078 0)
(-0.00250853 -0.0570316 0)
(-0.00204694 -0.0478738 0)
(-0.00206402 -0.0486899 0)
(-0.00201406 -0.0478931 0)
(-0.00218516 -0.0586418 0)
(-0.00221051 -0.0588878 0)
(-0.0021908 -0.0588744 0)
(-0.000768278 -0.0277267 0)
(-0.00223892 -0.0600035 0)
(-0.00226208 -0.0601095 0)
(-0.00221027 -0.0598586 0)
(-0.00223766 -0.0601192 0)
(-0.00220656 -0.059928 0)
(-0.00204796 -0.0593429 0)
(-0.00201953 -0.0592357 0)
(-0.00200604 -0.0590523 0)
(-0.00442727 -0.0395525 0)
(-0.00449351 -0.0386459 0)
(-0.0044475 -0.0395478 0)
(-0.00430065 -0.042023 0)
(-0.00432577 -0.0417633 0)
(-0.00427685 -0.0425261 0)
(-0.00401572 -0.0452258 0)
(-0.00407942 -0.0445085 0)
(-0.00403987 -0.0453202 0)
(-0.00367259 -0.0489034 0)
(-0.00372537 -0.0481881 0)
(-0.0037386 -0.0483992 0)
(-0.00335167 -0.0525962 0)
(-0.00336707 -0.0520728 0)
(-0.00339611 -0.0521098 0)
(-0.0032742 -0.0529247 0)
(-0.00331782 -0.052525 0)
(-0.00330075 -0.0529976 0)
(-0.00272101 -0.0523368 0)
(-0.00273071 -0.0530723 0)
(-0.0026858 -0.0527841 0)
(-0.000523213 -0.0061716 0)
(-0.000754212 -0.00991366 0)
(-0.00145264 -0.0209343 0)
(-0.00160839 -0.0244167 0)
(-0.00132752 -0.0207127 0)
(-0.00142123 -0.0249474 0)
(-0.00155534 -0.0266082 0)
(-0.00152879 -0.0273891 0)
(-0.00233059 -0.0388084 0)
(-0.00240807 -0.0404008 0)
(-0.00234083 -0.0401476 0)
(-0.00212286 -0.0462465 0)
(-0.00213673 -0.0456786 0)
(-0.00217906 -0.0467268 0)
(-0.000474131 -0.0176702 0)
(-0.000365941 -0.0144594 0)
(-0.000374864 -0.0137444 0)
(-0.000472493 -0.0166637 0)
(-0.000516854 -0.0173728 0)
(-0.000569051 -0.019772 0)
(-9.72206e-05 -0.00483997 0)
(-0.000197134 -0.00826129 0)
(-0.000123878 -0.00556769 0)
(-0.000196267 -0.0485507 0)
(-0.000898136 -0.0529624 0)
(-0.000881937 -0.0527712 0)
(-0.000957889 -0.0532757 0)
(-0.00011984 -0.0480782 0)
(-0.00152733 -0.0566703 0)
(-0.00149551 -0.0565419 0)
(-0.00148385 -0.05639 0)
(-0.00162095 -0.0572839 0)
(-0.00164849 -0.057472 0)
(-0.00119141 -0.0547248 0)
(-0.0012316 -0.0549297 0)
(-0.00144268 -0.0561838 0)
(-0.00143674 -0.056212 0)
(-0.00108946 -0.0306904 0)
(-0.00110221 -0.0302173 0)
(-0.00116192 -0.0320504 0)
(-0.00152621 -0.0376241 0)
(-0.00147426 -0.0361707 0)
(-0.00154514 -0.0373409 0)
(-0.002335 -0.0560011 0)
(-0.00235482 -0.0564336 0)
(-0.00231476 -0.0560714 0)
(-0.00243986 -0.059342 0)
(-0.00244694 -0.0591912 0)
(-0.00246287 -0.0594554 0)
(-0.00226285 -0.0502092 0)
(-0.00225001 -0.0507609 0)
(-0.00221812 -0.0500351 0)
(-0.00245177 -0.0600907 0)
(-0.00247371 -0.0602347 0)
(-0.0024624 -0.0603047 0)
(-0.000832777 -0.0257681 0)
(-0.000761745 -0.0244457 0)
(-0.000770078 -0.0239175 0)
(-0.00236649 -0.0614561 0)
(-0.00238326 -0.0615831 0)
(-0.00236009 -0.0614787 0)
(-0.00212309 -0.059811 0)
(-0.00208696 -0.0595897 0)
(-0.00210773 -0.0596255 0)
(-0.00198809 -0.0593945 0)
(-0.00196323 -0.0592763 0)
(-0.00195215 -0.0591718 0)
(-0.00203194 -0.0596185 0)
(-0.00206039 -0.0597703 0)
(-0.00204976 -0.0597679 0)
(-0.00442787 -0.0400603 0)
(-0.00437324 -0.0409972 0)
(-0.00447555 -0.0392125 0)
(-0.0042229 -0.0433388 0)
(-0.00417799 -0.0438897 0)
(-0.00420959 -0.0433655 0)
(-0.00428143 -0.0421322 0)
(-0.00428282 -0.041855 0)
(-0.00454657 -0.0378837 0)
(-0.00457571 -0.0375268 0)
(-0.0041755 -0.0436865 0)
(-0.00412978 -0.0444126 0)
(-0.00413396 -0.0440349 0)
(-0.00407543 -0.0455353 0)
(-0.00405876 -0.0455742 0)
(-0.0041033 -0.0449898 0)
(-0.00382169 -0.0487882 0)
(-0.0037698 -0.0494309 0)
(-0.00379687 -0.0489435 0)
(-0.00350648 -0.0517006 0)
(-0.00355476 -0.0512999 0)
(-0.00353075 -0.0517141 0)
(-0.00342644 -0.0527582 0)
(-0.00338381 -0.0529564 0)
(-0.00342665 -0.0524839 0)
(-0.00289311 -0.0549843 0)
(-0.00287469 -0.0555644 0)
(-0.00285305 -0.0553178 0)
(-0.00225997 -0.0524328 0)
(-0.00230577 -0.052583 0)
(-0.00229669 -0.0530095 0)
(-0.000348017 -0.00456767 0)
(-0.00122706 -0.0164415 0)
(-0.000877115 -0.0125958 0)
(-0.000880252 -0.0147031 0)
(-0.00112281 -0.0184616 0)
(-0.00106661 -0.0186463 0)
(-0.00096811 -0.0150623 0)
(-0.00117663 -0.0172312 0)
(-0.00162217 -0.0298213 0)
(-0.00147941 -0.0276112 0)
(-0.00166574 -0.033612 0)
(-0.00168328 -0.0330234 0)
(-0.00175525 -0.0349405 0)
(-0.00205563 -0.0428022 0)
(-0.00203727 -0.0432414 0)
(-0.00199181 -0.0422875 0)
(-0.000283045 -0.011841 0)
(-0.000277373 -0.0108429 0)
(-0.000558374 -0.0178468 0)
(-0.000611335 -0.0200621 0)
(-0.000645089 -0.0203782 0)
(-0.000631458 -0.0194271 0)
(-0.000721053 -0.0220763 0)
(-9.55443e-05 -0.00398213 0)
(-0.000833438 -0.052617 0)
(-0.000901495 -0.0530447 0)
(-0.00159723 -0.0568971 0)
(-0.00165279 -0.0571807 0)
(-0.00165379 -0.0572652 0)
(-0.00173664 -0.0578844 0)
(-0.00176495 -0.0581191 0)
(-0.0017274 -0.0578953 0)
(-0.00113795 -0.0543738 0)
(-0.00107841 -0.0539856 0)
(-0.0011297 -0.0542399 0)
(-0.00157142 -0.0569381 0)
(-0.00154526 -0.0568289 0)
(-0.00166116 -0.0387774 0)
(-0.00166691 -0.0381184 0)
(-0.0017189 -0.0396142 0)
(-0.00126245 -0.03135 0)
(-0.00132882 -0.033081 0)
(-0.00125256 -0.0318607 0)
(-0.00103865 -0.0286223 0)
(-0.00102164 -0.0289331 0)
(-0.00265175 -0.0584378 0)
(-0.00264247 -0.0586537 0)
(-0.00263212 -0.0583971 0)
(-0.00261418 -0.0612652 0)
(-0.00262959 -0.0612695 0)
(-0.00262242 -0.0613941 0)
(-0.00248555 -0.0613699 0)
(-0.00248876 -0.0615083 0)
(-0.00247072 -0.0613499 0)
(-0.000825045 -0.0247118 0)
(-0.000921863 -0.0265712 0)
(-0.000901739 -0.0269977 0)
(-0.00242324 -0.0615004 0)
(-0.00242628 -0.0616487 0)
(-0.00240754 -0.061475 0)
(-0.00237813 -0.0614913 0)
(-0.00225716 -0.0607371 0)
(-0.00226962 -0.0607562 0)
(-0.00228681 -0.060918 0)
(-0.00219228 -0.060501 0)
(-0.0022164 -0.0606839 0)
(-0.00219311 -0.0605607 0)
(-0.00191311 -0.0590281 0)
(-0.00193365 -0.0591054 0)
(-0.0019537 -0.0592574 0)
(-0.0020746 -0.0599005 0)
(-0.00209772 -0.0600173 0)
(-0.00447773 -0.0392831 0)
(-0.00421336 -0.0431304 0)
(-0.00425053 -0.0427484 0)
(-0.00454278 -0.0376999 0)
(-0.0041735 -0.0441114 0)
(-0.00403599 -0.04601 0)
(-0.00412721 -0.0447996 0)
(-0.00414368 -0.0444452 0)
(-0.00382181 -0.0482807 0)
(-0.00383571 -0.0484107 0)
(-0.00379735 -0.0487649 0)
(-0.00388279 -0.047892 0)
(-0.00385974 -0.0482996 0)
(-0.00351591 -0.0524525 0)
(-0.0035379 -0.0524016 0)
(-0.0035069 -0.0527252 0)
(-0.0034217 -0.0538076 0)
(-0.00338159 -0.0542102 0)
(-0.00340611 -0.0537524 0)
(-0.00320802 -0.0561567 0)
(-0.00323881 -0.0558647 0)
(-0.00322909 -0.0560835 0)
(-0.00333825 -0.0541094 0)
(-0.0033057 -0.0545274 0)
(-0.00330504 -0.0542906 0)
(-0.00278202 -0.0551035 0)
(-0.00279346 -0.0545901 0)
(-0.00281576 -0.0548733 0)
(-0.000431187 -0.00618854 0)
(-0.00133933 -0.0225783 0)
(-0.00127466 -0.0225668 0)
(-0.00077101 -0.0135986 0)
(-0.000354718 -0.00555401 0)
(-0.000663899 -0.0100843 0)
(-0.00177051 -0.0368291 0)
(-0.00169054 -0.0355793 0)
(-0.00172589 -0.0353338 0)
(-0.00195859 -0.0357366 0)
(-0.0019551 -0.0368027 0)
(-0.00187319 -0.0351231 0)
(-0.000349358 -0.0116931 0)
(-0.000337534 -0.0118757 0)
(-0.000262488 -0.00917508 0)
(-0.000268744 -0.00988136 0)
(-0.000770638 -0.0227212 0)
(-0.00045821 -0.0150526 0)
(-0.000412838 -0.0133006 0)
(-0.00048272 -0.0152503 0)
(-0.000169988 -0.00658817 0)
(-0.000950237 -0.0531351 0)
(-0.000890106 -0.0527246 0)
(-0.000939244 -0.052966 0)
(-0.00151783 -0.0565515 0)
(-0.00155668 -0.0567889 0)
(-0.00179134 -0.058318 0)
(-0.0017445 -0.0580501 0)
(-0.00103417 -0.053831 0)
(-0.00100866 -0.0537222 0)
(-0.000966927 -0.0534159 0)
(-0.00161741 -0.0364877 0)
(-0.00160217 -0.0369316 0)
(-0.00119237 -0.0296377 0)
(-0.00120511 -0.030493 0)
(-0.000964017 -0.0257369 0)
(-0.000992907 -0.0258728 0)
(-0.00104998 -0.0276126 0)
(-0.00267337 -0.0595536 0)
(-0.0026604 -0.059351 0)
(-0.00268159 -0.0592984 0)
(-0.00256198 -0.0608 0)
(-0.00257545 -0.0609049 0)
(-0.00256076 -0.0609522 0)
(-0.00259294 -0.0615491 0)
(-0.00259762 -0.0614369 0)
(-0.00260751 -0.0615663 0)
(-0.00246404 -0.0617659 0)
(-0.00247255 -0.0617131 0)
(-0.00248315 -0.0618923 0)
(-0.00253059 -0.0615337 0)
(-0.00255104 -0.061646 0)
(-0.00254037 -0.0617002 0)
(-0.00244696 -0.0617097 0)
(-0.00246833 -0.0619045 0)
(-0.00245893 -0.0619423 0)
(-0.0024765 -0.0620738 0)
(-0.00245279 -0.061989 0)
(-0.00243681 -0.0618233 0)
(-0.00241766 -0.0617502 0)
(-0.00241148 -0.0616416 0)
(-0.00235152 -0.0613655 0)
(-0.00234066 -0.0614021 0)
(-0.00232296 -0.0613203 0)
(-0.00232117 -0.0612636 0)
(-0.00236173 -0.061258 0)
(-0.00238444 -0.061345 0)
(-0.00238501 -0.0614601 0)
(-0.00227275 -0.0609729 0)
(-0.00229725 -0.0610989 0)
(-0.00229109 -0.0611096 0)
(-0.00223716 -0.0608137 0)
(-0.00223096 -0.0608148 0)
(-0.00197158 -0.0592449 0)
(-0.00200419 -0.0594439 0)
(-0.00392192 -0.0464609 0)
(-0.00387004 -0.047208 0)
(-0.00386282 -0.0469068 0)
(-0.00370083 -0.0503791 0)
(-0.00374135 -0.0499454 0)
(-0.00371816 -0.050323 0)
(-0.00385376 -0.0485282 0)
(-0.00354724 -0.0525673 0)
(-0.00351929 -0.0527627 0)
(-0.00355459 -0.0523679 0)
(-0.00358653 -0.0520657 0)
(-0.00337331 -0.0536093 0)
(-0.00337267 -0.0539101 0)
(-0.00347054 -0.05348 0)
(-0.00343367 -0.0538418 0)
(-0.00345852 -0.0534617 0)
(-0.00286377 -0.0582168 0)
(-0.00283605 -0.0582151 0)
(-0.00285819 -0.0579732 0)
(-0.00307165 -0.0579211 0)
(-0.00305999 -0.0579177 0)
(-0.00308224 -0.0576937 0)
(-0.00319744 -0.056007 0)
(-0.00323321 -0.0555709 0)
(-0.00322593 -0.0558395 0)
(-0.00328883 -0.0554954 0)
(-0.00327138 -0.0557619 0)
(-0.00326804 -0.0556173 0)
(-0.00116681 -0.0214807 0)
(-0.000896216 -0.0166416 0)
(-0.000655612 -0.0105647 0)
(-0.00127194 -0.0269943 0)
(-0.00139147 -0.0294403 0)
(-0.00134035 -0.028979 0)
(-0.000179842 -0.00652601 0)
(-0.000174418 -0.00605238 0)
(-0.000244884 -0.00823805 0)
(-0.000553439 -0.0170227 0)
(-0.000417321 -0.0130164 0)
(-8.84444e-05 -0.00329138 0)
(-7.23172e-05 -0.00283723 0)
(-0.00183272 -0.0585412 0)
(-0.00182847 -0.0584529 0)
(-0.00186005 -0.0586669 0)
(-0.00173638 -0.0378285 0)
(-0.00180175 -0.0390413 0)
(-0.00175905 -0.0388201 0)
(-0.00107737 -0.0289485 0)
(-0.000999421 -0.0272196 0)
(-0.00149237 -0.0351657 0)
(-0.00140708 -0.033345 0)
(-0.00147928 -0.0342163 0)
(-0.00282664 -0.0599007 0)
(-0.00283152 -0.0596665 0)
(-0.00284522 -0.0597261 0)
(-0.00266731 -0.0619666 0)
(-0.0026864 -0.06196 0)
(-0.00267949 -0.062073 0)
(-0.00259966 -0.0619098 0)
(-0.00260656 -0.0618048 0)
(-0.00262317 -0.0619295 0)
(-0.00253365 -0.0622423 0)
(-0.00254987 -0.0621706 0)
(-0.00256531 -0.0622465 0)
(-0.00253309 -0.0619706 0)
(-0.00254297 -0.0619168 0)
(-0.0025532 -0.0620554 0)
(-0.00242969 -0.061872 0)
(-0.00230765 -0.0612079 0)
(-0.00227491 -0.0610382 0)
(-0.00220355 -0.0606662 0)
(-0.00187386 -0.0587833 0)
(-0.00189582 -0.0588787 0)
(-0.00214052 -0.0601827 0)
(-0.00212316 -0.0601212 0)
(-0.00211485 -0.0599971 0)
(-0.00394607 -0.0472673 0)
(-0.00399038 -0.0466116 0)
(-0.00397988 -0.0469189 0)
(-0.00368684 -0.0503345 0)
(-0.00365834 -0.050813 0)
(-0.00394777 -0.0470814 0)
(-0.00351018 -0.0530167 0)
(-0.00361003 -0.0516592 0)
(-0.00363335 -0.0512508 0)
(-0.00364382 -0.0512783 0)
(-0.00333692 -0.0543819 0)
(-0.00296903 -0.0586534 0)
(-0.00297474 -0.0583849 0)
(-0.0029959 -0.0583734 0)
(-0.00312769 -0.0571613 0)
(-0.00315724 -0.0568411 0)
(-0.00315311 -0.0570334 0)
(-0.00323831 -0.0561283 0)
(-0.00320948 -0.0563456 0)
(-0.00333359 -0.0550716 0)
(-0.00330933 -0.0552726 0)
(-0.00332388 -0.0550287 0)
(-0.00130918 -0.0250086 0)
(-0.00107653 -0.0208544 0)
(-0.000607617 -0.0111937 0)
(-0.000490924 -0.00865023 0)
(-0.000390857 -0.00653552 0)
(-0.00113243 -0.0238067 0)
(-0.00124808 -0.0255508 0)
(-0.00125557 -0.0276682 0)
(-0.00015907 -0.0053223 0)
(-0.00035029 -0.0112381 0)
(-0.000290557 -0.00950759 0)
(-0.00061505 -0.0184095 0)
(-0.000690591 -0.0206071 0)
(-0.000615004 -0.0179416 0)
(-0.000666497 -0.0195304 0)
(-0.000535502 -0.0159457 0)
(-0.000471573 -0.0139684 0)
(-0.000505529 -0.0146941 0)
(-0.00190505 -0.0588385 0)
(-0.00187468 -0.0586996 0)
(-0.00187748 -0.0586399 0)
(-0.00113163 -0.0263739 0)
(-0.00111069 -0.0266198 0)
(-0.00103766 -0.024636 0)
(-0.000664088 -0.0185247 0)
(-0.000751915 -0.0211015 0)
(-0.000677334 -0.0193964 0)
(-0.00281262 -0.0597076 0)
(-0.00279545 -0.0598311 0)
(-0.00280288 -0.0596535 0)
(-0.00270152 -0.0614522 0)
(-0.00268972 -0.0613687 0)
(-0.00270563 -0.0613494 0)
(-0.00262512 -0.062198 0)
(-0.00266189 -0.0621949 0)
(-0.00263814 -0.0622622 0)
(-0.00258448 -0.0617753 0)
(-0.00250696 -0.0620273 0)
(-0.00252508 -0.0621509 0)
(-0.00250363 -0.0621608 0)
(-0.00221746 -0.0606101 0)
(-0.00217078 -0.0604533 0)
(-0.00214426 -0.0603199 0)
(-0.00214342 -0.0602771 0)
(-0.00367696 -0.050809 0)
(-0.00331944 -0.0547542 0)
(-0.00330281 -0.054756 0)
(-0.00288236 -0.0596782 0)
(-0.00288703 -0.0597488 0)
(-0.00287062 -0.0598372 0)
(-0.00302444 -0.0584427 0)
(-0.00304528 -0.058167 0)
(-0.00304437 -0.058337 0)
(-0.00311672 -0.0574993 0)
(-0.00313405 -0.0572808 0)
(-0.00313334 -0.0574114 0)
(-0.00318259 -0.0567306 0)
(-0.0031826 -0.0565237 0)
(-0.0033748 -0.0544763 0)
(-0.00334934 -0.0547944 0)
(-0.00334401 -0.0546826 0)
(-0.000198001 -0.0034761 0)
(-0.000682617 -0.0131318 0)
(-0.00044495 -0.00849498 0)
(-0.000832512 -0.017873 0)
(-0.000835843 -0.0173028 0)
(-0.000980259 -0.0204544 0)
(-0.000105943 -0.00377403 0)
(-8.6766e-05 -0.00298426 0)
(-0.000383441 -0.0116822 0)
(-0.00034035 -0.0106144 0)
(-0.000204504 -0.00646114 0)
(-0.000280999 -0.00895092 0)
(-0.000221499 -0.00721811 0)
(-0.000736304 -0.0202141 0)
(-0.000453059 -0.0137072 0)
(-0.000841985 -0.0223427 0)
(-0.000922769 -0.0242327 0)
(-0.000884633 -0.0238695 0)
(-0.000969112 -0.0240521 0)
(-0.000966828 -0.024674 0)
(-0.000897469 -0.0226317 0)
(-0.0009199 -0.0202772 0)
(-0.000891612 -0.0201811 0)
(-0.000805536 -0.0179125 0)
(-0.000804225 -0.0219212 0)
(-0.000841873 -0.0233658 0)
(-0.00276985 -0.0614299 0)
(-0.00275851 -0.0614532 0)
(-0.0027694 -0.0613415 0)
(-0.00278013 -0.0612058 0)
(-0.00279257 -0.0611588 0)
(-0.00278307 -0.0613041 0)
(-0.00272197 -0.0617449 0)
(-0.00272481 -0.0616274 0)
(-0.00273331 -0.0616528 0)
(-0.00265797 -0.0620786 0)
(-0.00267202 -0.062137 0)
(-0.00258016 -0.0620848 0)
(-0.00259363 -0.062173 0)
(-0.00256998 -0.062145 0)
(-0.00263532 -0.0621193 0)
(-0.00288719 -0.0600668 0)
(-0.0028714 -0.0601772 0)
(-0.00287916 -0.0600402 0)
(-0.00289239 -0.0601336 0)
(-0.00287543 -0.0603085 0)
(-0.00287835 -0.0602078 0)
(-0.00302737 -0.0585346 0)
(-0.0030066 -0.0586958 0)
(-0.00309575 -0.057692 0)
(-0.00310947 -0.057661 0)
(-0.000324821 -0.00597561 0)
(-0.000212654 -0.00405392 0)
(-7.73768e-05 -0.00256593 0)
(-0.000144274 -0.00467577 0)
(-0.000325192 -0.00993764 0)
(-0.000517932 -0.0143649 0)
(-0.000586401 -0.0163093 0)
(-0.00053244 -0.0150995 0)
(-0.000569143 -0.0164254 0)
(-0.000595945 -0.0168597 0)
(-0.000625382 -0.0178615 0)
(-0.000384935 -0.0112936 0)
(-0.000443745 -0.0129664 0)
(-0.000414087 -0.012337 0)
(-0.000875652 -0.022635 0)
(-0.00079338 -0.020731 0)
(-0.000817859 -0.0208607 0)
(-0.000835196 -0.0208113 0)
(-0.000755482 -0.0190328 0)
(-0.000851457 -0.0198614 0)
(-0.000955616 -0.0219719 0)