/*--------------------------------*- C++ -*----------------------------------*\
| =========                 |                                                 |
| \\      /  F ield         | OpenFOAM: The Open Source CFD Toolbox           |
|  \\    /   O peration     | Version:  v2012                                 |
|   \\  /    A nd           | Website:  www.openfoam.com                      |
|    \\/     M anipulation  |                                                 |
\*---------------------------------------------------------------------------*/
FoamFile
{
    version     2.0;
    format      ascii;
    class       volVectorField;
    location    "1.9";
    object      U;
}
// * * * * * * * * * * * * * * * * * * * * * * * * * * * * * * * * * * * * * //

dimensions      [0 1 -1 0 0 0 0];


internalField   nonuniform List<vector> 
13611
(
(9.07274 0.0952476 0)
(9.30529 0.0638544 -3.05043e-21)
(9.35051 -0.844714 0)
(9.56837 -0.468782 2.20444e-21)
(9.06124 -0.237205 9.81177e-23)
(8.79056 -0.206134 0)
(9.07509 -0.09356 0)
(9.61183 -0.281396 3.22144e-21)
(8.81147 -0.331082 -6.74994e-21)
(8.97661 -0.226382 2.43025e-22)
(8.67452 -0.183294 0)
(9.03234 0.220666 5.61364e-23)
(9.06283 -0.120907 -2.04806e-21)
(9.69898 -0.24876 2.98961e-21)
(8.77553 -0.334229 2.21783e-21)
(8.99679 -0.0675427 -4.99731e-21)
(8.65542 -0.229812 0)
(8.71526 -0.0362268 -4.60524e-22)
(9.04665 0.193994 5.21487e-23)
(9.0366 -0.16552 -1.19218e-21)
(9.65781 -0.076382 4.27166e-22)
(8.84735 -0.25958 1.31527e-21)
(8.80543 -0.305053 -2.35056e-22)
(8.73776 -0.298964 1.19349e-21)
(8.63462 -0.170793 0)
(8.54791 -0.0515757 -1.59681e-21)
(8.92766 -0.082776 -7.59825e-22)
(8.89496 -0.188598 -1.62849e-21)
(9.4121 -0.0596642 0)
(8.86231 -0.236908 -1.33036e-21)
(8.82737 -0.293633 -4.37716e-24)
(8.80538 -0.262457 -2.85101e-23)
(8.74306 -0.207971 -8.89609e-24)
(8.53351 -0.173454 -1.24803e-21)
(8.52158 -0.0998671 -2.51448e-21)
(8.80708 -0.0388176 -1.99738e-21)
(8.88587 -0.105576 0)
(9.69598 -0.0945151 0)
(8.82612 -0.268275 -2.13173e-22)
(8.76131 -0.278433 0)
(8.81363 -0.273302 -9.20742e-24)
(8.7108 -0.230896 0)
(8.56696 -0.193237 -6.35051e-24)
(8.46365 -0.152768 -2.38118e-21)
(8.69199 -0.0422205 0)
(8.88149 -0.138022 -1.53744e-21)
(9.40244 -0.151188 5.21813e-23)
(9.15737 -0.136286 0)
(8.7678 -0.279335 1.11367e-22)
(8.85869 -0.31109 -9.88777e-22)
(8.72106 -0.304091 -1.77649e-22)
(8.73378 -0.294591 0)
(8.68344 -0.282555 0)
(8.52877 -0.211593 -2.6493e-23)
(8.47329 -0.199938 -1.11327e-21)
(8.42766 -0.160483 -1.33688e-21)
(8.75354 -0.0719294 -2.14068e-21)
(8.63683 -0.189303 -1.689e-23)
(9.53832 -0.133839 2.36599e-22)
(9.20909 -0.168065 0)
(8.79227 -0.320355 -1.07161e-22)
(8.82661 -0.340211 3.40746e-22)
(8.72071 -0.326736 -7.85741e-22)
(8.69088 -0.326017 -9.03179e-25)
(8.85283 -0.366641 3.77923e-22)
(8.6386 -0.284929 -1.29569e-22)
(8.66972 -0.311613 3.85374e-22)
(8.57921 -0.257982 -1.2234e-22)
(8.45305 -0.220628 1.81075e-22)
(8.37445 -0.206341 -1.25674e-21)
(8.70892 -0.0621351 4.85898e-22)
(8.61736 -0.224387 -2.14484e-22)
(9.30168 -0.174878 0)
(8.97632 -0.118384 3.42569e-22)
(8.75542 -0.357835 -1.22225e-22)
(8.82398 -0.35698 4.32139e-22)
(8.68341 -0.341147 1.37621e-22)
(8.73163 -0.350103 -2.79892e-22)
(8.67109 -0.351314 6.43167e-23)
(8.60691 -0.315696 -4.15323e-24)
(8.6368 -0.324501 2.81004e-22)
(8.56291 -0.29549 -8.4589e-22)
(8.39528 -0.227638 2.45719e-22)
(8.52018 -0.282052 -4.73071e-22)
(8.31769 -0.206561 0)
(8.6203 -0.12481 0)
(8.43132 -0.234435 0)
(9.26026 -0.266348 7.13481e-23)
(9.05818 -0.177618 0)
(8.73984 -0.396747 -1.05084e-22)
(8.79415 -0.384247 -7.87136e-23)
(8.66423 -0.37502 3.03031e-23)
(8.69007 -0.381329 2.94676e-22)
(8.64565 -0.372888 0)
(8.81141 -0.411856 0)
(8.58304 -0.336142 -3.24825e-23)
(8.63046 -0.364512 2.74336e-22)
(8.55821 -0.324348 -1.06594e-22)
(8.44466 -0.264222 -3.0033e-22)
(8.50388 -0.294058 -2.30775e-22)
(8.31989 -0.246379 0)
(8.57137 -0.140412 2.6694e-22)
(8.39222 -0.243988 0)
(9.29547 -0.0950842 3.42414e-23)
(8.8761 -0.193477 2.87032e-22)
(8.76105 -0.405575 -3.37499e-23)
(8.70303 -0.430289 4.40735e-23)
(8.62011 -0.403383 0)
(8.67572 -0.421804 2.88975e-22)
(8.60679 -0.400858 0)
(8.79263 -0.437401 7.12157e-24)
(8.80513 -0.452075 5.71277e-23)
(8.57114 -0.375656 2.5225e-22)
(8.59387 -0.386963 4.62099e-22)
(8.53194 -0.345005 5.57725e-23)
(8.42632 -0.290337 5.36659e-22)
(8.48459 -0.327374 2.92158e-23)
(8.39632 -0.290743 5.82793e-22)
(8.29065 -0.243611 -9.60809e-24)
(8.45131 -0.142716 -8.89882e-23)
(8.41478 -0.210637 8.70667e-24)
(8.26308 -0.237063 0)
(9.17405 -0.272131 8.7569e-23)
(9.06738 -0.128265 -3.56922e-23)
(8.89404 -0.223343 -1.04888e-22)
(8.75849 -0.43829 5.35191e-24)
(8.67921 -0.465482 -2.96309e-23)
(8.61075 -0.431079 -9.07591e-23)
(8.64144 -0.441619 -8.15679e-23)
(8.57866 -0.409106 6.90825e-22)
(8.78909 -0.485468 1.42427e-22)
(8.54047 -0.392753 2.34828e-22)
(8.52223 -0.378793 5.81394e-23)
(8.50123 -0.351319 0)
(8.44447 -0.332501 -4.16116e-22)
(8.40117 -0.308615 0)
(8.36171 -0.286346 -1.01473e-23)
(8.49065 -0.177093 0)
(8.33348 -0.209168 0)
(8.26458 -0.251702 2.07635e-23)
(9.37564 -0.209857 6.65643e-23)
(8.90844 -0.150097 -5.81994e-23)
(8.71375 -0.224576 -1.43438e-22)
(8.73783 -0.466946 9.24993e-23)
(8.65091 -0.486113 1.42327e-23)
(8.70705 -0.480561 0)
(8.57962 -0.4551 -1.1258e-22)
(8.61715 -0.468738 -2.15012e-22)
(8.54931 -0.429892 6.17642e-22)
(8.75996 -0.496964 9.53707e-23)
(8.80549 -0.509463 8.57245e-23)
(8.51087 -0.424259 9.11253e-23)
(8.49102 -0.396323 -9.43004e-24)
(8.46886 -0.379313 -2.55816e-22)
(8.42581 -0.352119 -5.7783e-22)
(8.39172 -0.325044 -1.64358e-22)
(8.3466 -0.289784 0)
(8.4139 -0.183998 0)
(8.34598 -0.192158 -8.17989e-23)
(8.23347 -0.231278 8.76684e-23)
(8.32205 -0.280175 5.72011e-23)
(8.23925 -0.249266 -3.01179e-23)
(9.10867 -0.242887 -1.05994e-23)
(8.99505 -0.131286 0)
(8.76606 -0.218197 0)
(8.62353 -0.483855 -2.09234e-22)
(8.65084 -0.521242 -4.77856e-23)
(8.69953 -0.519145 -5.01637e-23)
(8.55093 -0.465578 0)
(8.58679 -0.478933 -2.2707e-22)
(8.51969 -0.436711 0)
(8.53689 -0.453796 -8.84087e-23)
(8.74726 -0.529751 0)
(8.79348 -0.537995 -6.7263e-25)
(8.47947 -0.430301 3.07096e-23)
(8.4721 -0.421391 -8.91837e-23)
(8.44476 -0.394581 -2.46383e-22)
(8.40545 -0.348947 -2.62441e-22)
(8.42608 -0.380281 -2.08682e-22)
(8.35641 -0.337768 -1.63672e-22)
(8.33676 -0.322181 -2.29876e-22)
(8.58249 -0.206336 0)
(8.28654 -0.202698 -3.31166e-23)
(8.20748 -0.233747 1.63241e-22)
(8.31095 -0.296583 -2.84608e-24)
(8.25841 -0.273139 -7.73545e-23)
(9.26644 -0.187063 -3.65184e-23)
(8.87805 -0.133478 0)
(8.60237 -0.522808 1.49509e-22)
(8.67386 -0.534621 -3.57369e-23)
(8.62001 -0.54259 1.42011e-22)
(8.72117 -0.539719 -1.65535e-22)
(8.53113 -0.496137 -6.96049e-23)
(8.57143 -0.502225 -1.33872e-22)
(8.4858 -0.466715 0)
(8.49805 -0.475633 -1.46151e-22)
(8.76749 -0.550526 -5.63772e-25)
(8.8143 -0.55288 0)
(8.45124 -0.454335 -1.28147e-22)
(8.44699 -0.420629 -8.89482e-23)
(8.37403 -0.36885 -1.5851e-22)
(8.39457 -0.401942 -2.10123e-22)
(8.34577 -0.361849 0)
(8.31606 -0.328036 -6.98732e-23)
(8.56727 -0.205391 0)
(8.28871 -0.197182 8.59309e-23)
(8.19486 -0.225664 1.8204e-23)
(8.23198 -0.25809 0)
(8.28974 -0.292238 -1.06596e-22)
(8.30819 -0.317201 7.79467e-23)
(9.02696 -0.115502 3.23143e-23)
(9.04555 -0.20424 -1.79002e-23)
(8.68938 -0.182696 0)
(8.58115 -0.525445 0)
(8.66796 -0.562429 7.32025e-23)
(8.61921 -0.564046 3.81249e-23)
(8.71051 -0.574468 -8.37988e-23)
(8.50619 -0.511301 -6.94275e-23)
(8.54739 -0.508452 1.12318e-23)
(8.45432 -0.474094 -1.81763e-22)
(8.48387 -0.501879 3.48439e-23)
(8.76266 -0.581702 0)
(8.81583 -0.585858 -6.83749e-23)
(8.42128 -0.459967 0)
(8.41778 -0.439798 -1.62795e-22)
(8.36824 -0.392783 0)
(8.38221 -0.426523 6.0078e-23)
(8.31625 -0.377859 0)
(8.28838 -0.348095 7.09486e-23)
(8.41694 -0.208019 0)
(8.22022 -0.20258 5.27678e-23)
(8.17118 -0.23172 -4.43723e-23)
(8.22147 -0.271986 -2.37417e-23)
(8.2723 -0.309432 -1.88163e-23)
(8.28164 -0.32342 4.22864e-24)
(8.92907 -0.163047 2.48794e-23)
(9.18532 -0.126458 2.00919e-23)
(8.58201 -0.162395 -3.13568e-23)
(8.55903 -0.548556 0)
(8.64597 -0.575824 3.82259e-23)
(8.68897 -0.581913 7.85901e-23)
(8.5986 -0.582282 -9.17584e-27)
(8.73398 -0.596078 0)
(8.49535 -0.536628 -4.23979e-23)
(8.5377 -0.536204 2.99042e-23)
(8.4263 -0.501328 -8.82682e-23)
(8.45888 -0.515251 9.26767e-23)
(8.78954 -0.601257 -8.87195e-23)
(8.39693 -0.479402 4.10829e-23)
(8.39359 -0.44234 -1.85552e-22)
(8.33467 -0.411595 0)
(8.34836 -0.442609 8.56983e-23)
(8.29742 -0.374582 4.33382e-23)
(8.31183 -0.402827 0)
(8.28689 -0.360794 6.98463e-23)
(8.26557 -0.341435 -1.35881e-22)
(8.4515 -0.186877 4.32613e-24)
(8.19378 -0.204207 4.1031e-24)
(8.15312 -0.220884 -3.82576e-23)
(8.18543 -0.247562 2.80723e-23)
(8.20027 -0.261791 3.5181e-23)
(8.23541 -0.30109 -9.17173e-23)
(8.24808 -0.314798 0)
(9.00523 -0.116381 0)
(8.67247 -0.182154 -4.91732e-23)
(9.01304 -0.154658 -2.28006e-23)
(8.55598 -0.56957 -1.352e-22)
(8.64394 -0.602461 -7.07903e-23)
(8.6701 -0.610839 0)
(8.60152 -0.61307 -3.31278e-23)
(8.57631 -0.587405 -1.35556e-22)
(8.72691 -0.62752 0)
(8.51294 -0.548933 -5.66605e-23)
(8.47019 -0.551847 0)
(8.39879 -0.499879 1.61974e-22)
(8.43488 -0.517855 -2.63071e-23)
(8.45279 -0.543088 -7.0908e-23)
(8.77989 -0.626696 -7.71445e-23)
(8.36529 -0.485643 0)
(8.35964 -0.472799 0)
(8.32658 -0.435739 0)
(8.3352 -0.470762 0)
(8.26206 -0.398188 -2.0733e-23)
(8.27889 -0.424883 -4.41818e-23)
(8.24681 -0.377459 0)
(8.23733 -0.348462 -1.44421e-22)
(8.36772 -0.184729 -7.1609e-24)
(8.23392 -0.196084 -5.57252e-24)
(8.12052 -0.217744 2.24082e-23)
(8.1284 -0.227165 -3.28454e-23)
(8.1732 -0.254325 -1.91546e-23)
(8.18567 -0.276236 -1.55703e-23)
(8.2089 -0.308339 -5.70952e-23)
(8.22585 -0.336465 0)
(8.78979 -0.12351 6.4404e-23)
(8.59371 -0.175712 4.98073e-23)
(9.00785 -0.226295 -1.02735e-22)
(8.52615 -0.583432 0)
(8.62255 -0.62037 -3.8216e-23)
(8.67551 -0.634223 6.47296e-23)
(8.57719 -0.63434 -3.35501e-23)
(8.55893 -0.62267 0)
(8.70563 -0.646303 0)
(8.75451 -0.643564 -1.09021e-23)
(8.50426 -0.572848 -1.42108e-23)
(8.46141 -0.576638 0)
(8.37488 -0.517814 1.03062e-22)
(8.41532 -0.542257 -2.64856e-23)
(8.42841 -0.555464 -6.92389e-23)
(8.80479 -0.649507 3.74352e-23)
(8.8282 -0.653848 6.57431e-23)
(8.3499 -0.505114 4.78689e-24)
(8.29265 -0.456062 2.39654e-23)
(8.30462 -0.487532 -9.62247e-23)
(8.23655 -0.397813 0)
(8.25468 -0.418468 1.49684e-23)
(8.26954 -0.449677 -9.74652e-24)
(8.22554 -0.374153 0)
(8.22071 -0.361552 -1.07934e-23)
(8.45375 -0.163707 -3.29379e-23)
(8.15811 -0.194368 0)
(8.10926 -0.217036 6.54571e-24)
(8.15568 -0.244734 -1.29208e-23)
(8.16831 -0.270534 2.42581e-23)
(8.18944 -0.295232 -2.69701e-23)
(8.18247 -0.328264 2.12742e-24)
(8.1934 -0.342062 6.93455e-24)
(8.80555 -0.146277 2.79103e-23)
(9.02871 -0.0877262 -4.97288e-23)
(8.51588 -0.613937 0)
(8.62785 -0.647311 -5.10641e-23)
(8.65432 -0.655173 2.81327e-24)
(8.58116 -0.653572 -1.46958e-23)
(8.53486 -0.632321 0)
(8.71036 -0.675406 -6.18173e-23)
(8.76201 -0.66578 -1.09424e-23)
(8.47905 -0.587967 3.46021e-24)
(8.43542 -0.590513 1.33769e-23)
(8.3761 -0.53626 9.29747e-23)
(8.39431 -0.551428 2.68116e-24)
(8.41862 -0.577315 3.314e-24)
(8.79519 -0.675315 2.69148e-23)
(8.84421 -0.683354 1.81693e-23)
(8.32393 -0.522563 5.90099e-23)
(8.27833 -0.479557 -3.14315e-23)
(8.30197 -0.504374 -6.34338e-23)
(8.20594 -0.413011 1.46923e-23)
(8.22084 -0.436816 2.66133e-24)
(8.23506 -0.467566 0)
(8.19355 -0.392266 -4.73285e-24)
(8.19207 -0.370065 0)
(8.38562 -0.172877 -5.88243e-24)
(8.09347 -0.20282 0)
(8.19127 -0.19415 6.60719e-25)
(8.13225 -0.235604 0)
(8.14437 -0.248408 0)
(8.14116 -0.274757 1.80431e-23)
(8.14843 -0.309365 -6.09679e-24)
(8.14666 -0.328514 0)
(8.17528 -0.358271 4.50299e-24)
(8.74104 -0.150391 -5.16155e-23)
(8.90983 -0.184559 -7.21096e-24)
(8.86343 -0.0723995 8.17451e-23)
(8.48798 -0.626672 0)
(8.61206 -0.66442 -7.75789e-23)
(8.66596 -0.677268 -4.79867e-23)
(8.56685 -0.673811 -2.03101e-24)
(8.52423 -0.658176 0)
(8.73208 -0.696037 -6.17263e-23)
(8.69566 -0.687415 0)
(8.75114 -0.696269 0)
(8.46817 -0.615413 -2.50189e-23)
(8.42584 -0.614068 -2.95494e-23)
(8.34516 -0.561657 9.1064e-23)
(8.3797 -0.575375 0)
(8.39224 -0.587978 0)
(8.80267 -0.701985 4.65913e-23)
(8.82904 -0.710444 2.65312e-23)
(8.32246 -0.55443 5.86409e-23)
(8.31102 -0.515114 0)
(8.25223 -0.489172 -6.80232e-23)
(8.27303 -0.523884 3.87433e-23)
(8.18465 -0.406563 1.0328e-23)
(8.19793 -0.429076 -1.56188e-23)
(8.21053 -0.459811 -3.45764e-23)
(8.22919 -0.484314 1.48959e-23)
(8.17351 -0.385866 0)
(8.41257 -0.162326 0)
(8.08704 -0.206025 1.1305e-23)
(8.14344 -0.196976 -5.33328e-23)
(8.11605 -0.236137 5.26161e-24)
(8.13112 -0.263183 0)
(8.12211 -0.286964 0)
(8.12815 -0.30525 -2.40823e-24)
(8.12423 -0.338656 0)
(8.13963 -0.368441 0)
(8.56255 -0.159092 -5.26485e-23)
(9.0804 -0.153587 0)
(8.78487 -0.0764108 -6.76142e-23)
(8.47943 -0.648434 0)
(8.61265 -0.690897 -6.63045e-23)
(8.65427 -0.704259 0)
(8.54251 -0.677386 -1.91737e-24)
(8.58758 -0.696475 -5.11691e-23)
(8.50207 -0.664392 0)
(8.71945 -0.723958 0)
(8.69736 -0.716113 -2.38295e-23)
(8.77816 -0.721142 2.06889e-23)
(8.44363 -0.62766 -7.11258e-23)
(8.40087 -0.625366 0)
(8.34818 -0.583527 -1.22443e-23)
(8.3813 -0.612727 0)
(8.84664 -0.735894 5.36784e-24)
(8.29646 -0.575577 7.1593e-23)
(8.28132 -0.538252 0)
(8.2367 -0.514274 0)
(8.2491 -0.529109 0)
(8.15288 -0.41995 1.67019e-24)
(8.16765 -0.443827 0)
(8.18016 -0.47342 -3.12785e-23)
(8.20706 -0.496651 6.27631e-23)
(8.14191 -0.394866 0)
(8.2697 -0.169895 2.51869e-23)
(8.06829 -0.195042 0)
(8.10759 -0.22621 5.86535e-24)
(8.15916 -0.184576 -4.0671e-23)
(8.09253 -0.199764 0)
(8.10059 -0.250053 7.94247e-25)
(8.10453 -0.261373 0)
(8.09224 -0.290357 5.39863e-24)
(8.09495 -0.315669 -2.67027e-24)
(8.095 -0.340457 0)
(8.12484 -0.359404 1.35776e-23)
(8.12416 -0.386578 0)
(8.47495 -0.159669 -9.01745e-23)
(8.87653 -0.0643784 -1.01428e-22)
(8.86673 -0.123791 -7.28095e-24)
(8.58064 -0.133928 -6.38547e-23)
(8.06301 0.061218 1.3555e-22)
(7.31365 0.0193905 -2.52315e-22)
(8.45692 -0.666622 5.19613e-23)
(8.63114 -0.706878 -6.6454e-23)
(8.6747 -0.728281 -2.3984e-23)
(8.53651 -0.704321 0)
(8.58073 -0.72228 -1.25875e-23)
(8.49394 -0.693007 -7.9315e-23)
(8.73385 -0.742406 1.24333e-23)
(8.78062 -0.744977 0)
(8.4355 -0.655731 1.73889e-24)
(8.39284 -0.650559 0)
(8.33718 -0.604553 -1.23203e-23)
(8.35699 -0.621312 6.35812e-24)
(8.87843 -0.742067 5.76005e-24)
(8.8292 -0.754899 1.56081e-23)
(8.2748 -0.563967 0)
(8.29684 -0.595337 2.9367e-23)
(8.21563 -0.515025 0)
(8.23994 -0.553416 0)
(8.13008 -0.411903 -9.87727e-24)
(8.14571 -0.437043 4.54248e-23)
(8.15951 -0.463756 0)
(8.17084 -0.492716 -3.10157e-23)
(8.1864 -0.502742 4.68492e-23)
(8.31234 -0.164368 2.95076e-23)
(8.06989 -0.199786 -6.41202e-24)
(8.08756 -0.228338 -1.43351e-24)
(8.10809 -0.18505 -1.21655e-23)
(8.08602 -0.198544 0)
(8.06868 -0.248116 0)
(8.07641 -0.269496 0)
(8.07681 -0.307792 2.11167e-24)
(8.07337 -0.280819 2.62368e-24)
(8.08109 -0.326751 3.67353e-24)
(8.07487 -0.3585 -3.84081e-24)
(8.09203 -0.369567 3.48345e-25)
(8.09484 -0.39734 0)
(8.89659 -0.0580184 6.47594e-25)
(8.97674 -0.0807561 -5.5895e-23)
(8.46981 -0.131408 7.72469e-24)
(8.11005 0.0471329 -1.41306e-23)
(8.02821 0.0745103 -5.02186e-23)
(7.95321 0.0676945 1.203e-22)
(7.83939 0.0359348 1.12047e-22)
(7.34396 0.0221961 -3.18506e-22)
(8.46545 -0.690197 5.22161e-23)
(8.62562 -0.739533 -6.54893e-23)
(8.67304 -0.748392 0)
(8.55408 -0.723161 0)
(8.51178 -0.708497 -8.02355e-23)
(8.6014 -0.743833 3.92894e-23)
(8.76318 -0.75563 3.62433e-23)
(8.71999 -0.769103 -3.43637e-23)
(8.80921 -0.760947 -2.22945e-23)
(8.41257 -0.666064 0)
(8.36791 -0.65998 0)
(8.3189 -0.60691 6.05125e-24)
(8.34919 -0.645114 -2.25999e-23)
(8.83951 -0.777088 -4.40727e-25)
(8.25347 -0.569203 0)
(8.27651 -0.612471 -4.29949e-23)
(8.20054 -0.530634 -1.88783e-24)
(8.21727 -0.563477 -2.95854e-23)
(8.1013 -0.424374 -2.11676e-23)
(8.12316 -0.447791 2.53196e-23)
(8.13235 -0.475781 0)
(8.14346 -0.504969 0)
(8.17822 -0.522224 -1.9364e-24)
(8.22337 -0.168012 -2.97307e-24)
(8.05862 -0.191292 1.20296e-23)
(8.08202 -0.216684 -1.0488e-23)
(8.06375 -0.238505 -2.78151e-23)
(8.10297 -0.176447 -1.45638e-23)
(8.06978 -0.193341 2.71632e-23)
(8.04563 -0.255365 1.09187e-24)
(8.05257 -0.265247 1.24546e-24)
(8.04898 -0.310856 -2.49173e-24)
(8.03622 -0.290313 0)
(8.04652 -0.334995 5.232e-24)
(8.0462 -0.363785 8.79994e-24)
(8.07826 -0.38571 -7.029e-24)
(8.08136 -0.41436 1.84915e-23)
(8.79013 -0.107856 0)
(8.81827 -0.0669771 9.93555e-24)
(8.53216 -0.121678 0)
(8.27373 -0.150986 0)
(8.08298 0.0558171 -1.16996e-22)
(7.94932 0.0849646 -7.41234e-23)
(8.06087 0.0842419 0)
(7.94306 0.0821035 0)
(7.97839 0.0564638 0)
(7.30103 0.0193013 0)
(8.44786 -0.711505 0)
(8.64893 -0.757075 -6.60017e-23)
(8.69553 -0.767462 0)
(8.54301 -0.752686 0)
(8.50094 -0.732587 3.54779e-23)
(8.58833 -0.764382 0)
(8.76146 -0.790583 2.80295e-23)
(8.73776 -0.796879 -2.99409e-23)
(8.80408 -0.792626 -2.16327e-23)
(8.40337 -0.691713 -1.81885e-23)
(8.35981 -0.67788 0)
(8.30811 -0.63609 2.41782e-23)
(8.32446 -0.654333 1.4009e-23)
(8.86227 -0.780661 -4.774e-24)
(8.82389 -0.803001 -1.66905e-23)
(8.23472 -0.58694 -1.0643e-24)
(8.28687 -0.638585 0)
(8.25459 -0.621008 -4.5888e-23)
(8.2015 -0.551747 0)
(8.21051 -0.58023 -3.044e-23)
(8.09929 -0.440725 -2.86152e-23)
(8.1158 -0.465544 3.18443e-23)
(8.12466 -0.495937 0)
(8.14046 -0.521601 0)
(8.16226 -0.531117 2.43042e-23)
(8.05354 -0.189473 -4.8896e-24)
(8.06156 -0.216227 -1.29947e-23)
(8.03423 -0.233393 -2.53701e-23)
(8.07717 -0.169971 0)
(8.06576 -0.184374 0)
(8.00633 -0.25791 0)
(8.01665 -0.273207 1.22445e-24)
(8.02824 -0.3023 -2.03888e-24)
(8.03205 -0.323652 0)
(8.01153 -0.283789 0)
(8.03016 -0.35203 -4.33523e-24)
(8.03209 -0.37949 -1.21031e-24)
(8.04979 -0.391514 -2.00902e-23)
(8.0553 -0.421859 1.63969e-23)
(8.82469 -0.0883099 -2.52687e-23)
(8.88071 -0.075065 -1.87864e-23)
(8.39071 -0.116012 8.37791e-24)
(8.20766 -0.147753 1.026e-23)
(8.10299 0.0746508 0)
(7.9326 0.096717 3.70228e-23)
(8.00163 0.102758 0)
(7.98344 0.0920197 -1.0248e-23)
(7.96249 0.0936188 0)
(8.04221 0.0907747 -5.85517e-24)
(7.81101 0.0289872 0)
(7.32092 -0.00629576 0)
(8.42146 -0.71066 0)
(8.45939 -0.732799 0)
(8.64096 -0.781284 0)
(8.6822 -0.800505 0)
(8.56255 -0.771372 7.33928e-24)
(8.51971 -0.754857 3.5438e-23)
(8.48164 -0.737755 0)
(8.60114 -0.786983 -4.24226e-23)
(8.78419 -0.807821 0)
(8.72674 -0.817886 -2.16456e-23)
(8.38184 -0.694412 -1.80185e-23)
(8.3414 -0.693263 -3.30176e-23)
(8.31957 -0.680536 4.04124e-23)
(8.89264 -0.803038 0)
(8.86861 -0.803434 4.16664e-23)
(8.83457 -0.817824 -2.8815e-24)
(8.23709 -0.606985 -3.79591e-23)
(8.27235 -0.657172 -3.6605e-26)
(8.24693 -0.648393 -4.03824e-23)
(8.17568 -0.563785 2.8979e-23)
(8.18982 -0.594047 6.46532e-23)
(8.07721 -0.455288 0)
(8.08929 -0.473315 3.158e-23)
(8.10116 -0.503988 0)
(8.12081 -0.5412 3.36648e-23)
(8.15908 -0.552048 2.4019e-23)
(8.05119 -0.181563 -3.86329e-24)
(8.05416 -0.197306 -2.91787e-25)
(8.0499 -0.207046 8.79889e-25)
(8.03641 -0.225333 4.9976e-24)
(7.99808 -0.237691 1.46702e-23)
(8.06427 -0.158006 -2.33317e-24)
(8.06837 -0.177709 0)
(7.98705 -0.248773 8.17602e-24)
(7.98722 -0.265658 0)
(7.99388 -0.312858 -1.56671e-25)
(7.99783 -0.326624 0)
(7.97673 -0.291909 3.02648e-24)
(8.00092 -0.356494 -9.07974e-24)
(8.00577 -0.385057 -6.06848e-24)
(8.03814 -0.408496 -7.41638e-24)
(8.04233 -0.440947 -2.14511e-23)
(8.70395 -0.0822241 0)
(8.88487 -0.0572068 4.11663e-23)
(8.25341 -0.128344 6.63219e-24)
(8.46483 -0.103675 -5.69884e-24)
(8.10728 -0.156962 7.66856e-24)
(8.0523 0.0760233 1.23044e-23)
(7.91796 0.0999497 6.26167e-23)
(7.94615 0.11295 0)
(7.99762 0.107178 1.33798e-22)
(8.01856 0.0970785 7.34786e-24)
(7.96307 0.109259 0)
(8.07536 0.0958991 0)
(7.91428 0.0418549 0)
(7.27964 0.049345 -8.32758e-23)
(8.41309 -0.737884 -1.33165e-24)
(8.44855 -0.752105 -3.86276e-23)
(8.66098 -0.802088 0)
(8.62233 -0.794838 0)
(8.69891 -0.819868 -5.85374e-26)
(8.56268 -0.793793 7.16392e-25)
(8.50958 -0.781986 0)
(8.48045 -0.761709 0)
(8.58691 -0.804675 -6.35519e-23)
(8.78438 -0.836157 -1.91798e-23)
(8.74071 -0.842361 -2.17924e-23)
(8.37592 -0.717612 0)
(8.34966 -0.714346 -4.82279e-23)
(8.3019 -0.689235 0)
(8.86019 -0.821506 3.17889e-23)
(8.83264 -0.841635 0)
(8.21272 -0.62457 -3.23194e-23)
(8.28019 -0.676124 -4.05271e-23)
(8.23262 -0.662653 0)
(8.16924 -0.583684 2.89461e-23)
(8.18993 -0.614174 6.44867e-23)
(8.05425 -0.457192 4.72794e-25)
(8.08238 -0.489578 0)
(8.0926 -0.520049 9.15753e-24)
(8.13257 -0.560707 1.03191e-23)
(8.10379 -0.53836 3.66496e-23)
(8.0379 -0.177956 6.93633e-24)
(8.0212 -0.193248 0)
(8.01697 -0.207939 -1.69917e-23)
(8.00653 -0.21736 0)
(7.9631 -0.226982 -1.44724e-23)
(8.05643 -0.157332 -3.08033e-24)
(8.05988 -0.171386 0)
(7.9394 -0.252358 4.4214e-24)
(7.95974 -0.271067 0)
(7.97056 -0.305934 2.1703e-24)
(7.98474 -0.341052 7.91715e-26)
(7.95381 -0.284257 0)
(7.989 -0.371544 -7.07268e-24)
(7.99557 -0.400299 3.44191e-24)
(8.01328 -0.413408 -2.63245e-24)
(8.02151 -0.442197 -2.10085e-23)
(8.78088 -0.075279 0)
(8.72564 -0.0198594 2.68561e-23)
(8.15826 -0.134078 -3.78558e-24)
(8.34777 -0.108623 -4.90708e-24)
(8.08407 -0.149458 -1.59202e-23)
(8.07833 0.068964 -2.3697e-22)
(7.91622 0.114053 1.14968e-22)
(7.93777 0.124652 1.02985e-22)
(7.91932 0.114126 1.39554e-22)
(8.04036 0.0894588 -2.67311e-22)
(8.02918 0.11136 -7.85762e-24)
(8.00236 0.11929 0)
(8.08317 0.109521 -4.29892e-23)
(7.7915 0.0828597 -8.61461e-23)
(7.31941 0.0246844 0)
(8.39048 -0.736927 -1.32166e-24)
(8.42722 -0.757127 1.47043e-23)
(8.45986 -0.766683 -3.88516e-23)
(8.6491 -0.824691 2.3869e-23)
(8.62566 -0.820922 0)
(8.69726 -0.844577 0)
(8.54706 -0.806065 0)
(8.48986 -0.779308 0)
(8.52479 -0.801717 0)
(8.5918 -0.826967 2.86645e-23)
(8.81381 -0.853289 1.42247e-23)
(8.76691 -0.853228 -2.70601e-23)
(8.72541 -0.858952 0)
(8.33482 -0.733173 4.71991e-23)
(8.29904 -0.715692 0)
(8.89405 -0.846682 0)
(8.87348 -0.841916 0)
(8.86046 -0.860273 0)
(8.21031 -0.651254 0)
(8.26589 -0.69344 -4.04108e-23)
(8.24189 -0.685309 0)
(8.14716 -0.594617 0)
(8.16333 -0.631105 7.15505e-23)
(8.04197 -0.478239 8.13377e-25)
(8.05819 -0.494581 7.60007e-25)
(8.06851 -0.527986 -1.43335e-24)
(8.12723 -0.578587 -4.30092e-23)
(8.08622 -0.555739 5.95369e-24)
(8.03503 -0.170674 3.04366e-23)
(8.01729 -0.185418 3.1339e-23)
(7.99657 -0.199181 -1.98171e-23)
(7.96634 -0.217133 0)
(7.92939 -0.230975 -1.48593e-23)
(8.04481 -0.148826 0)
(8.04586 -0.167432 5.58533e-24)
(7.9354 -0.26328 0)
(7.92723 -0.244978 -3.76898e-24)
(7.94408 -0.315092 2.4579e-25)
(7.95722 -0.344121 0)
(7.92544 -0.291556 0)
(7.96273 -0.378435 -1.59153e-24)
(7.97352 -0.407618 -5.73868e-24)
(8.00607 -0.428613 -1.20038e-23)
(8.00497 -0.45816 0)
(8.70886 -0.084252 0)
(8.86752 -0.0359972 1.28228e-23)
(8.18752 -0.126299 0)
(8.44556 -0.0957762 0)
(8.05412 -0.142126 -9.6522e-24)
(7.94854 0.0882568 0)
(7.89535 0.120889 -6.33223e-23)
(7.96316 0.133054 0)
(7.89968 0.124788 2.29112e-26)
(8.03048 0.0859263 2.87779e-22)
(8.06178 0.118633 -4.98989e-23)
(8.01494 0.131623 1.77799e-23)
(8.12836 0.102844 0)
(8.11158 0.113644 -3.01579e-23)
(7.19388 0.010582 -9.12765e-23)
(8.37214 -0.757232 0)
(8.41116 -0.780664 -1.22515e-23)
(8.4502 -0.785898 0)
(8.65762 -0.842083 2.4272e-23)
(8.61417 -0.837348 1.41687e-23)
(8.68242 -0.853771 0)
(8.55156 -0.835557 -1.41227e-23)
(8.47056 -0.797123 0)
(8.51222 -0.832192 -8.70355e-24)
(8.57545 -0.84458 2.9063e-23)
(8.81294 -0.88277 0)
(8.77664 -0.884126 6.50364e-24)
(8.73435 -0.884558 2.05724e-23)
(8.3125 -0.732655 -2.21087e-23)
(8.34667 -0.753656 4.33751e-23)
(8.27556 -0.714316 0)
(8.91217 -0.863747 3.15996e-24)
(8.85435 -0.881941 0)
(8.1915 -0.663885 4.28639e-23)
(8.22544 -0.708664 0)
(8.14201 -0.617945 -4.22539e-23)
(8.16267 -0.652636 7.17842e-23)
(8.01947 -0.486939 7.80852e-24)
(8.04944 -0.513472 2.51057e-23)
(8.06471 -0.547024 0)
(8.10837 -0.585844 -4.16356e-23)
(8.08903 -0.572005 1.23906e-24)
(8.00583 -0.171201 0)
(7.98503 -0.182683 3.59642e-23)
(7.95833 -0.19942 0)
(7.94178 -0.206519 0)
(7.91736 -0.223871 -6.60515e-24)
(8.03956 -0.15131 9.29404e-24)
(8.03783 -0.159155 -2.13423e-23)
(7.91328 -0.267946 1.72291e-23)
(7.90703 -0.241438 6.31499e-24)
(7.923 -0.305081 0)
(7.94091 -0.331394 0)
(7.94502 -0.36308 0)
(7.91191 -0.281632 0)
(7.95581 -0.395335 1.33767e-24)
(7.96796 -0.425387 -8.22372e-24)
(7.98309 -0.434908 0)
(7.98292 -0.449761 0)
(8.0063 -0.47392 1.44416e-23)
(8.78169 -0.0672485 8.85663e-24)
(8.67716 -0.0143316 -2.07009e-23)
(8.13835 -0.124649 0)
(8.34463 -0.0978989 1.37488e-23)
(8.049 -0.137484 3.88261e-23)
(7.97672 0.087133 0)
(7.91911 0.136109 -9.13737e-23)
(8.00181 0.139927 -1.35026e-23)
(7.95564 0.145018 0)
(7.8876 0.116114 -1.94285e-22)
(7.88172 0.139218 6.49378e-23)
(8.03041 0.0985622 2.91709e-22)
(7.95657 0.10356 -1.7108e-22)
(8.07107 0.131882 0)
(8.05381 0.139083 3.14429e-23)
(8.13656 0.110014 6.96508e-23)
(8.11181 0.128115 -2.93725e-23)
(7.22362 0.00249511 -2.76365e-22)
(7.66602 0.0174855 0)
(8.37362 -0.78204 5.18908e-23)
(8.39171 -0.792759 -5.37042e-24)
(8.42749 -0.79604 0)
(8.64923 -0.867103 4.34536e-23)
(8.62483 -0.86087 1.34933e-23)
(8.69115 -0.887741 -1.68065e-23)
(8.53072 -0.851588 0)
(8.47384 -0.817695 0)
(8.49495 -0.835492 -8.39238e-24)
(8.58524 -0.869166 0)
(8.79864 -0.895234 0)
(8.83419 -0.892097 0)
(8.76149 -0.897781 0)
(8.71424 -0.899038 7.47001e-24)
(8.29956 -0.756982 -2.60076e-23)
(8.33355 -0.775714 -3.52666e-23)
(8.26019 -0.736149 3.90695e-23)
(8.89809 -0.889539 0)
(8.87582 -0.895839 2.55624e-23)
(8.19438 -0.685418 1.78782e-23)
(8.20743 -0.70362 0)
(8.23603 -0.733924 0)
(8.12069 -0.624446 -4.19689e-23)
(8.14719 -0.665506 0)
(8.01327 -0.511336 5.59899e-24)
(8.0303 -0.52392 3.14384e-23)
(8.05161 -0.557613 -2.5724e-23)
(8.10344 -0.610139 0)
(8.07272 -0.589672 2.18346e-23)
(7.99752 -0.164953 0)
(7.98191 -0.177152 -1.50927e-23)
(7.94841 -0.183783 -5.16142e-24)
(7.94401 -0.190566 -1.3626e-23)
(7.91658 -0.205408 0)
(7.91118 -0.212078 -5.57408e-24)
(7.90359 -0.232324 5.55838e-24)
(8.03201 -0.144979 -1.4096e-23)
(8.01434 -0.160161 5.49524e-24)
(7.89529 -0.265016 1.75188e-23)
(7.89638 -0.242146 8.33032e-24)
(7.90036 -0.312221 0)
(7.91411 -0.340109 1.06174e-24)
(7.91888 -0.373578 0)
(7.88989 -0.286999 -7.34137e-24)
(7.93918 -0.400795 6.25976e-24)
(7.95404 -0.430421 3.44573e-24)
(7.97469 -0.461937 5.73179e-24)
(7.98624 -0.479674 3.42605e-23)
(8.67919 -0.0601626 1.19786e-23)
(8.79846 -0.00160332 0)
(8.20079 -0.110717 0)
(8.08144 -0.132459 -6.63483e-24)
(8.43324 -0.0761045 2.16118e-23)
(8.04721 -0.132196 3.79692e-23)
(8.03874 -0.140864 -2.18724e-23)
(7.90896 0.14354 2.82545e-23)
(8.02396 0.155175 0)
(7.98338 0.157848 -5.65043e-23)
(7.85851 0.130236 -1.18055e-22)
(7.88811 0.149862 2.13686e-23)
(8.04732 0.0546761 0)
(7.93758 0.105092 0)
(8.09925 0.137322 0)
(8.06554 0.151491 -3.34747e-23)
(8.13233 0.12455 -2.82648e-23)
(8.12093 0.132688 -3.09672e-23)
(7.19568 0.03295 3.0183e-23)
(7.62304 0.0247721 6.69923e-23)
(8.34988 -0.793175 -4.64171e-24)
(8.39384 -0.819861 0)
(8.43033 -0.818908 2.40112e-23)
(8.66959 -0.890612 -1.84347e-23)
(8.61166 -0.87717 0)
(8.5427 -0.874259 4.77905e-23)
(8.45609 -0.830165 2.37486e-23)
(8.49052 -0.860468 -5.72256e-23)
(8.5698 -0.885472 0)
(8.79046 -0.922603 2.0895e-23)
(8.82934 -0.912698 0)
(8.75513 -0.92429 0)
(8.71374 -0.920392 -5.28858e-23)
(8.27341 -0.758299 3.92636e-23)
(8.3109 -0.778074 0)
(8.9152 -0.903048 -2.01164e-24)
(8.86662 -0.9262 2.64504e-23)
(8.17528 -0.695475 -4.73907e-23)
(8.18758 -0.726856 0)
(8.21952 -0.750182 0)
(8.11679 -0.641806 1.57308e-23)
(8.12945 -0.660099 0)
(8.15605 -0.686202 -1.74665e-23)
(7.99541 -0.516368 5.45004e-24)
(8.03131 -0.545069 -2.07123e-24)
(8.05458 -0.579101 -3.54663e-24)
(8.08153 -0.60991 -9.53071e-24)
(7.9673 -0.1587 -2.01024e-24)
(7.95557 -0.169144 -2.25911e-23)
(7.92899 -0.175276 1.2428e-23)
(7.91304 -0.18726 -9.66619e-24)
(7.9077 -0.192899 0)
(7.89733 -0.212993 6.36277e-24)
(7.89407 -0.222653 1.2186e-23)
(8.01385 -0.144698 0)
(7.99789 -0.153103 0)
(7.89618 -0.2538 0)
(7.88189 -0.274509 0)
(7.88107 -0.240761 0)
(7.88724 -0.299713 -7.02037e-24)
(7.90082 -0.32736 -2.88681e-24)
(7.90594 -0.358928 7.68704e-24)
(7.91903 -0.392246 6.30197e-25)
(7.9388 -0.41878 -6.80902e-24)
(7.94789 -0.445993 3.36193e-23)
(7.95723 -0.459832 2.8677e-23)
(7.97987 -0.496467 2.51256e-23)
(8.72867 -0.0296513 0)
(8.6517 0.00780587 1.59867e-23)
(8.14804 -0.107817 3.78084e-24)
(8.08269 -0.120543 -8.94261e-24)
(8.30816 -0.0768174 -1.03661e-23)
(8.03319 -0.129605 -1.07825e-23)
(8.0322 -0.135164 -5.72072e-24)
(7.93854 0.16086 0)
(8.01779 0.163252 -5.59179e-23)
(8.05484 0.160815 0)
(7.98745 0.16921 0)
(7.86869 0.151717 -1.32109e-22)
(7.83631 0.12899 8.12856e-23)
(7.92301 0.162933 0)
(8.02219 0.0612659 -2.00776e-23)
(7.82698 0.0160758 8.50402e-24)
(7.96117 0.0860132 0)
(7.8646 0.112736 9.7562e-23)
(8.10065 0.150199 0)
(8.08977 0.158086 -3.35051e-23)
(8.15267 0.118266 6.93946e-23)
(8.13969 0.137596 0)
(8.11948 0.149578 0)
(7.26594 -0.0245625 -7.93997e-23)
(8.34992 -0.819332 0)
(8.37646 -0.835682 1.64002e-23)
(8.41625 -0.833138 0)
(8.6588 -0.914902 -2.23844e-23)
(8.613 -0.902555 -2.89002e-23)
(8.52953 -0.889974 4.7867e-23)
(8.46593 -0.853429 0)
(8.506 -0.880094 -5.77151e-23)
(8.57279 -0.902855 -2.76687e-23)
(8.77202 -0.934521 2.13046e-23)
(8.80825 -0.930489 0)
(8.8471 -0.928502 -2.12044e-23)
(8.73621 -0.932828 -1.63012e-23)
(8.69476 -0.939617 -5.31967e-23)
(8.25818 -0.777881 2.19219e-23)
(8.29827 -0.795828 2.18445e-23)
(8.90649 -0.925759 -1.00343e-23)
(8.88761 -0.938552 -2.04984e-23)
(8.16967 -0.720691 -2.12464e-23)
(8.19567 -0.745902 -1.1765e-23)
(8.21908 -0.772496 -1.27774e-23)
(8.09702 -0.644503 1.6083e-23)
(8.11011 -0.68215 0)
(8.13874 -0.70678 -1.56632e-23)
(7.98834 -0.533507 1.0572e-23)
(8.01636 -0.556451 4.34399e-25)
(8.03876 -0.592951 1.40682e-23)
(8.07942 -0.625101 -3.13251e-23)
(7.94965 -0.160574 -7.74863e-24)
(7.96678 -0.154007 0)
(7.92689 -0.167568 0)
(7.91056 -0.174648 1.3106e-23)
(7.90776 -0.179912 0)
(7.89787 -0.192418 2.55624e-25)
(7.89419 -0.202239 2.16964e-25)
(7.88454 -0.222946 1.37509e-23)
(8.00752 -0.14027 0)
(8.00043 -0.148686 0)
(7.87995 -0.25007 0)
(7.87344 -0.270328 0)
(7.87927 -0.231119 -4.0359e-24)
(7.8758 -0.307052 0)
(7.88743 -0.338211 1.78536e-24)
(7.89146 -0.357089 4.26749e-24)
(7.9055 -0.400982 -7.01262e-24)