/*--------------------------------*- C++ -*----------------------------------*\
| =========                 |                                                 |
| \\      /  F ield         | OpenFOAM: The Open Source CFD Toolbox           |
|  \\    /   O peration     | Version:  v2012                                 |
|   \\  /    A nd           | Website:  www.openfoam.com                      |
|    \\/     M anipulation  |                                                 |
\*---------------------------------------------------------------------------*/
FoamFile
{
    version     2.0;
    format      ascii;
    class       surfaceVectorField;
    location    "1.9";
    object      Uf;
}
// * * * * * * * * * * * * * * * * * * * * * * * * * * * * * * * * * * * * * //

dimensions      [0 1 -1 0 0 0 0];


internalField   nonuniform List<vector> 
21399
(
(9.19706 0.0813083 -1.64607e-21)
(9.26833 -0.258329 0)
(9.42587 -0.24195 -6.47498e-20)
(9.20222 -0.00229564 -1.75999e-21)
(9.391 -0.499183 1.87453e-21)
(9.34007 -0.371109 1.26068e-21)
(9.0163 -0.2272 1.66516e-22)
(8.88212 -0.226964 1.23432e-22)
(8.73377 -0.196799 0)
(9.0175 0.0491445 3.24125e-23)
(9.09006 -0.150724 -9.8232e-22)
(9.31487 0.0025403 1.63517e-21)
(9.7093 -0.212138 -1.86761e-19)
(8.79034 -0.33278 -1.57693e-21)
(8.9857 -0.150971 -2.28195e-21)
(8.6636 -0.204564 0)
(8.69122 -0.1121 -2.30063e-22)
(9.11908 0.207218 -3.48046e-21)
(9.04879 -0.066209 6.64387e-20)
(9.0153 -0.146512 -1.55506e-21)
(9.59356 -0.11472 1.45438e-19)
(8.79276 -0.319486 7.89681e-22)
(8.76488 -0.316547 -3.44615e-21)
(8.84255 -0.0562635 -2.4806e-21)
(8.70774 -0.27393 7.59681e-22)
(8.63475 -0.19073 0)
(8.62777 -0.0374066 1.44496e-20)
(9.34123 0.0262205 2.39619e-22)
(8.99252 0.0436593 -3.5635e-22)
(9.0004 -0.105473 3.69006e-20)
(8.96324 -0.169359 -1.39649e-21)
(9.60043 -0.0441803 2.46515e-22)
(8.81623 -0.286644 1.25187e-20)
(8.86011 -0.234189 9.12198e-21)
(8.8148 -0.299353 -1.2659e-22)
(8.77826 -0.278307 4.69187e-22)
(8.69492 -0.192504 -4.92695e-24)
(8.60952 -0.163604 -5.3316e-22)
(8.53663 -0.145268 -1.37866e-21)
(8.54446 -0.070146 -2.01165e-21)
(8.82471 -0.045936 4.16651e-20)
(8.72597 -0.154029 3.91242e-21)
(8.90473 -0.134246 -6.99679e-22)
(9.55406 -0.0687085 0)
(8.8473 -0.258823 -7.45904e-22)
(8.81942 -0.276117 -4.04209e-21)
(8.79643 -0.283131 -2.36213e-24)
(8.80708 -0.266908 9.33907e-22)
(8.77691 -0.241922 1.78731e-21)
(8.72015 -0.219008 -4.17215e-24)
(8.53908 -0.170533 -3.12339e-20)
(8.49577 -0.135519 -2.43873e-21)
(8.84819 -0.0808175 -9.7555e-22)
(8.77812 -0.0315181 -1.07476e-21)
(8.86734 -0.115594 -7.01727e-22)
(9.55655 -0.113086 2.77881e-23)
(9.42614 -0.125581 0)
(8.79855 -0.273617 -1.19157e-22)
(8.84538 -0.290561 8.05852e-22)
(8.75826 -0.283982 6.48014e-23)
(8.74844 -0.294345 -9.53929e-23)
(8.76916 -0.283191 -4.13144e-24)
(8.65225 -0.212745 -2.66256e-24)
(8.69865 -0.265046 0)
(8.55285 -0.202326 -1.56149e-23)
(8.468 -0.187358 3.06326e-21)
(8.45287 -0.155624 -6.27826e-21)
(8.91659 -0.094516 0)
(8.71998 -0.0506899 -1.17284e-21)
(8.81871 -0.093647 1.37351e-20)
(8.77209 -0.172912 -8.24555e-22)
(9.46839 -0.137524 8.80679e-21)
(9.17255 -0.153547 0)
(8.78064 -0.298894 -2.99849e-24)
(8.8434 -0.325599 -3.41993e-22)
(8.72362 -0.302416 -9.12491e-23)
(8.72151 -0.318806 -1.63043e-21)
(8.71011 -0.311021 -4.81529e-25)
(8.65164 -0.282415 -6.88718e-23)
(8.67615 -0.298008 2.03348e-22)
(8.51281 -0.201323 -5.22704e-22)
(8.56004 -0.242684 6.44955e-22)
(8.45796 -0.211191 -2.95364e-22)
(8.52088 -0.181112 -7.19563e-22)
(8.39256 -0.177348 -1.58005e-20)
(8.7368 -0.0675298 -9.56542e-22)
(8.62658 -0.206712 -2.82354e-22)
(9.37656 -0.142581 1.19116e-22)
(9.44163 -0.150389 1.36867e-22)
(9.10437 -0.144974 1.53131e-22)
(8.81098 -0.331178 1.36962e-22)
(8.77418 -0.337243 1.11517e-21)
(8.82506 -0.349556 5.63346e-22)
(8.69818 -0.333951 5.91517e-22)
(8.72909 -0.3347 2.81971e-21)
(8.68095 -0.317849 9.44008e-22)
(8.67966 -0.341283 5.67919e-23)
(8.84037 -0.361992 1.97514e-22)
(8.61989 -0.270253 6.71701e-21)
(8.6219 -0.302231 -7.56951e-23)
(8.65106 -0.318461 -4.31294e-23)
(8.57272 -0.277395 -2.2881e-21)
(8.42567 -0.22395 8.3629e-23)
(8.48861 -0.253365 -1.65704e-22)
(8.38522 -0.223097 -2.96608e-22)
(8.35471 -0.207014 -6.4221e-22)
(8.83243 -0.0985431 1.44926e-20)
(8.66881 -0.0910822 2.64462e-22)
(8.62203 -0.171799 -1.1121e-22)
(8.51936 -0.225516 -1.03539e-22)
(9.28149 -0.218757 3.44044e-23)
(9.02983 -0.149332 1.66456e-22)
(8.74065 -0.353882 -2.10256e-22)
(8.74729 -0.37833 -1.13364e-22)
(8.80718 -0.371055 5.50037e-22)
(8.67661 -0.346621 8.12784e-22)
(8.67289 -0.358095 1.26485e-24)
(8.71067 -0.369122 2.17591e-21)
(8.65865 -0.363891 2.86157e-23)
(8.62077 -0.321024 1.4482e-22)
(8.5982 -0.327261 -1.79219e-23)
(8.63305 -0.348406 2.77528e-22)
(8.54084 -0.288817 -3.10897e-22)
(8.56031 -0.311398 -3.39868e-22)
(8.425 -0.250914 -7.7566e-23)
(8.50981 -0.288286 -3.3716e-22)
(8.36284 -0.224892 0)
(8.31885 -0.23084 0)
(8.58448 -0.133134 1.39307e-22)
(8.41754 -0.240879 0)
(9.15183 -0.210612 3.18087e-23)
(9.24258 -0.178677 -1.64902e-20)
(8.96789 -0.187768 1.45038e-22)
(8.75373 -0.401294 -6.39031e-23)
(8.72211 -0.414076 -5.89671e-22)
(8.80183 -0.399556 -3.79537e-23)
(8.77953 -0.393033 -2.94833e-22)
(8.67511 -0.379022 1.5964e-22)
(8.64707 -0.387427 1.7718e-23)
(8.68387 -0.398339 1.5803e-22)
(8.6394 -0.368267 1.32824e-22)
(8.62688 -0.384425 0)
(8.8024 -0.422804 3.30617e-24)
(8.57204 -0.330735 7.12947e-23)
(8.57729 -0.354544 3.19762e-22)
(8.60932 -0.373562 -2.51683e-21)
(8.54295 -0.33614 -1.30709e-23)
(8.47796 -0.279087 -1.54812e-21)
(8.43378 -0.274509 7.37074e-23)
(8.495 -0.309878 -1.09816e-22)
(8.36287 -0.2672 3.14316e-22)
(8.30294 -0.244563 -5.14825e-24)
(8.73448 -0.160068 -1.24529e-20)
(8.5169 -0.146487 1.61658e-20)
(8.40991 -0.224722 4.02447e-24)
(8.31394 -0.237389 0)
(9.28574 -0.143992 1.33199e-19)
(9.15743 -0.129555 -9.67525e-24)
(8.89448 -0.210321 7.10922e-23)
(8.75859 -0.426623 -1.18115e-23)
(8.68838 -0.425854 2.77586e-22)
(8.68996 -0.449816 -1.51305e-23)
(8.61173 -0.402706 0)
(8.61462 -0.420289 -5.18473e-23)
(8.65357 -0.432283 7.15317e-23)
(8.59486 -0.404918 3.24657e-22)
(8.79917 -0.444153 3.18511e-23)
(8.77668 -0.437921 -6.01093e-23)
(8.79678 -0.470066 2.49591e-22)
(8.58428 -0.381724 7.18868e-22)
(8.55551 -0.385037 6.5485e-22)
(8.58604 -0.39893 1.15271e-21)
(8.52657 -0.363631 3.60827e-23)
(8.518 -0.347905 3.00109e-23)
(8.41185 -0.290626 1.96049e-22)
(8.43607 -0.314197 1.05438e-23)
(8.49333 -0.341642 1.26969e-23)
(8.4641 -0.329917 -2.23324e-22)
(8.4021 -0.303095 2.57412e-22)
(8.27751 -0.242263 -5.81665e-24)
(8.33055 -0.268595 1.35519e-22)
(8.4335 -0.179349 -1.29701e-21)
(8.46869 -0.164479 -3.74728e-23)
(8.35941 -0.204129 3.82788e-24)
(8.26541 -0.246239 1.14838e-23)
(9.22889 -0.218358 -6.68827e-20)
(8.97424 -0.185064 1.99746e-20)
(8.99948 -0.140557 -4.75556e-21)
(8.78544 -0.212423 2.10827e-20)
(8.74783 -0.449275 4.50045e-23)
(8.66091 -0.477187 -3.11159e-24)
(8.69583 -0.472306 -1.38823e-23)
(8.6296 -0.435415 1.19422e-21)
(8.5926 -0.441895 -1.02434e-22)
(8.62937 -0.457761 -1.50349e-22)
(8.56399 -0.420372 1.49598e-21)
(8.77471 -0.491169 1.19118e-22)
(8.7977 -0.497975 8.75769e-23)
(8.53063 -0.384805 1.36091e-22)
(8.52495 -0.409953 1.59191e-22)
(8.50504 -0.388068 2.16536e-23)
(8.4819 -0.367434 -1.5215e-22)
(8.43616 -0.343542 -2.16921e-21)
(8.38076 -0.297796 -5.06078e-24)
(8.39591 -0.317525 -9.18956e-23)
(8.35266 -0.28736 -4.91765e-24)
(8.61143 -0.206955 -7.81802e-23)
(8.46322 -0.18671 0)
(8.34067 -0.200294 -3.96049e-23)
(8.27742 -0.224376 4.94623e-23)
(8.29876 -0.268534 9.07965e-23)
(8.25416 -0.250229 -4.75609e-22)
(9.2734 -0.209295 3.00113e-23)
(9.19253 -0.166878 3.45527e-23)
(8.93083 -0.149959 -3.37545e-23)
(8.82832 -0.188824 -2.5489e-23)
(8.74905 -0.219687 -7.30457e-23)
(8.72251 -0.473538 4.72949e-23)
(8.74965 -0.484489 4.91685e-22)
(8.63735 -0.484771 -1.03232e-22)
(8.65082 -0.50657 1.83895e-23)
(8.70327 -0.504535 -2.86521e-23)
(8.56665 -0.460014 -6.04683e-23)
(8.58252 -0.47025 -1.16041e-21)
(8.6208 -0.476794 -1.78856e-23)
(8.60058 -0.474512 -2.21759e-22)
(8.53232 -0.433582 2.7762e-22)
(8.54259 -0.442567 2.2476e-22)
(8.75343 -0.513319 4.714e-23)
(8.79916 -0.523277 4.20083e-23)
(8.51578 -0.430827 4.20583e-23)
(8.49306 -0.427205 -3.27298e-22)
(8.48095 -0.388332 -2.2553e-22)
(8.48184 -0.409248 -4.84535e-23)
(8.45694 -0.385554 5.81131e-22)
(8.41314 -0.350201 -1.90543e-23)
(8.42672 -0.366024 -3.79175e-22)
(8.39998 -0.336363 -2.14555e-22)
(8.37234 -0.330539 9.96093e-22)
(8.33512 -0.285322 2.66292e-23)
(8.34168 -0.305284 -1.16556e-22)
(8.38208 -0.18153 -3.7685e-23)
(8.48907 -0.201286 0)
(8.31763 -0.198941 -5.65998e-21)
(8.23515 -0.243522 1.87362e-23)
(8.21876 -0.232033 -1.60616e-21)
(8.317 -0.291166 2.21459e-23)
(8.24961 -0.261881 -5.69314e-23)
(9.16045 -0.19476 4.37303e-20)
(8.95064 -0.14001 0)
(8.68369 -0.209565 0)
(8.61224 -0.502685 -2.62979e-23)
(8.66148 -0.527247 3.63117e-23)
(8.63691 -0.531322 4.03626e-23)
(8.68523 -0.526957 -4.05121e-22)
(8.71142 -0.529153 3.13716e-22)
(8.54489 -0.458674 -4.59806e-23)
(8.53936 -0.484843 -4.10283e-23)
(8.57872 -0.491325 -2.22292e-22)
(8.50203 -0.450692 0)
(8.51724 -0.465727 -5.53532e-22)
(8.73399 -0.534799 -8.39543e-23)
(8.75744 -0.540914 -2.93847e-25)
(8.78165 -0.544385 2.1543e-22)
(8.80347 -0.546624 -3.21464e-25)
(8.4764 -0.424927 -3.23522e-23)
(8.46543 -0.443318 -2.31403e-22)
(8.45983 -0.421024 -9.75334e-23)
(8.43808 -0.38849 -2.30587e-22)
(8.44503 -0.410579 -1.57959e-22)
(8.38822 -0.361202 -1.0347e-21)
(8.40941 -0.392708 -7.1474e-22)
(8.34688 -0.330901 -1.93693e-22)
(8.35046 -0.351208 -7.80913e-23)
(8.32536 -0.325694 -5.45595e-22)
(8.57943 -0.206387 0)
(8.28797 -0.200048 2.18904e-23)
(8.23831 -0.216341 -6.25919e-24)
(8.20403 -0.229717 2.66486e-21)
(8.22095 -0.248065 7.19448e-23)
(8.299 -0.294615 -5.06626e-23)
(8.3094 -0.308259 -4.48977e-23)
(8.2464 -0.266629 -4.38053e-23)
(8.27671 -0.282796 -1.31145e-21)
(9.14541 -0.156999 -1.6262e-24)
(9.19027 -0.179133 -4.032e-20)
(8.94828 -0.127861 1.6506e-23)
(8.77375 -0.162281 0)
(8.6099 -0.53356 1.44009e-21)
(8.59096 -0.524152 7.25856e-23)
(8.67061 -0.552022 2.81679e-23)
(8.61962 -0.552842 1.06475e-22)
(8.71573 -0.556854 1.31874e-23)
(8.51827 -0.503681 5.75199e-23)
(8.54021 -0.502694 -2.55787e-23)
(8.57731 -0.511833 -6.92812e-23)
(8.55858 -0.505122 1.37964e-22)
(8.49023 -0.472686 -7.58459e-23)
(8.47156 -0.470677 -8.94945e-23)
(8.49097 -0.488569 -1.2529e-23)
(8.76479 -0.566114 -2.71704e-25)
(8.81485 -0.567768 -3.23326e-23)
(8.45314 -0.464012 1.9326e-22)
(8.43557 -0.457137 -6.23358e-23)
(8.43348 -0.427901 -1.22021e-22)
(8.3606 -0.365638 -8.62033e-23)
(8.37182 -0.379575 -8.23732e-23)
(8.38051 -0.397304 -1.03259e-22)
(8.38666 -0.417742 -5.28793e-23)
(8.33069 -0.369372 0)
(8.31293 -0.32153 9.56632e-22)
(8.30262 -0.340554 1.54181e-21)
(8.63395 -0.19168 0)
(8.49117 -0.205064 0)
(8.35677 -0.202775 4.03531e-23)
(8.24681 -0.19915 -3.76283e-21)
(8.18024 -0.227915 2.34836e-21)
(8.22704 -0.265561 -1.19157e-23)
(8.28004 -0.301423 1.24979e-22)
(8.29432 -0.320207 4.00446e-23)
(8.97969 -0.143203 6.3888e-21)
(9.0986 -0.151269 1.47867e-24)
(8.63293 -0.171265 -1.5503e-23)
(8.57219 -0.539188 0)
(8.65517 -0.568817 5.49156e-23)
(8.67902 -0.570469 -8.59688e-22)
(8.63572 -0.57075 -3.22716e-22)
(8.60786 -0.573906 1.73154e-23)
(8.69776 -0.578554 -1.18113e-22)
(8.72221 -0.585598 -4.13263e-23)
(8.4968 -0.506692 -2.2256e-23)
(8.50034 -0.525181 -5.48654e-23)
(8.54227 -0.52277 -1.51679e-23)
(8.44026 -0.487322 1.5566e-23)
(8.46838 -0.508846 -4.74262e-22)
(8.74912 -0.588563 0)
(8.77585 -0.591526 -4.39855e-23)
(8.80241 -0.593759 -1.01246e-22)
(8.41907 -0.451473 -7.24961e-23)
(8.40769 -0.471459 2.3112e-23)
(8.40382 -0.44111 3.90248e-23)
(8.34993 -0.402635 0)
(8.39038 -0.434258 -8.77677e-22)
(8.36281 -0.434163 -5.70414e-22)
(8.30461 -0.375714 2.48145e-23)
(8.31391 -0.391779 0)
(8.2874 -0.35506 5.47055e-22)
(8.2734 -0.345005 -3.74494e-23)
(8.43335 -0.197698 2.16839e-24)
(8.21103 -0.204019 2.8873e-23)
(8.18108 -0.215298 1.0587e-24)
(8.16332 -0.22532 -4.09984e-23)
(8.1798 -0.242406 -1.08816e-22)
(8.20732 -0.265933 9.69371e-24)
(8.22956 -0.288514 -2.49855e-22)
(8.27672 -0.317952 -5.45431e-24)
(8.26264 -0.312216 -1.07709e-23)
(8.27426 -0.330596 -2.88309e-22)
(8.95863 -0.144012 1.26275e-23)
(8.79938 -0.173576 -1.25703e-23)
(9.08775 -0.115947 9.14613e-24)
(9.12161 -0.133656 -1.94326e-20)
(8.52023 -0.172703 -1.20472e-22)
(8.62887 -0.170998 2.61231e-21)
(8.54578 -0.542699 1.61684e-23)
(8.55767 -0.557421 -6.37198e-23)
(8.64492 -0.589669 -2.92265e-23)
(8.68065 -0.599039 3.76643e-23)
(8.60024 -0.599988 -1.89642e-23)
(8.58743 -0.584815 -6.67775e-23)
(8.73033 -0.611357 0)
(8.50493 -0.54223 4.38483e-22)
(8.48216 -0.544358 -2.05144e-23)
(8.52587 -0.542036 -1.06024e-23)
(8.40978 -0.500413 -7.16826e-23)
(8.43082 -0.511449 -5.2251e-23)
(8.4484 -0.516395 3.65582e-23)
(8.45545 -0.530901 2.04144e-24)
(8.78449 -0.617529 -8.40192e-22)
(8.3988 -0.48883 -5.12361e-22)
(8.38152 -0.482205 2.15732e-23)
(8.37612 -0.458416 -8.98631e-23)
(8.32338 -0.407211 0)
(8.33027 -0.424589 0)
(8.33836 -0.439484 4.67423e-23)
(8.34187 -0.456356 4.4406e-23)
(8.29501 -0.367484 1.72284e-21)
(8.27753 -0.389425 -3.20092e-22)
(8.29478 -0.414931 -2.32404e-23)
(8.26292 -0.368511 2.97044e-23)
(8.2532 -0.345289 -1.16275e-21)
(8.41357 -0.186219 -9.3759e-25)
(8.20704 -0.203067 1.41259e-25)
(8.15226 -0.209809 -4.08259e-22)
(8.13925 -0.223378 2.00002e-21)
(8.19543 -0.25385 2.25848e-21)
(8.17835 -0.250738 3.0186e-24)
(8.19333 -0.271575 8.24983e-24)
(8.24246 -0.308288 -4.3143e-23)
(8.22006 -0.305675 -5.14897e-22)
(8.23504 -0.327706 0)
(8.91113 -0.12428 2.98268e-23)
(8.63805 -0.179816 -2.47902e-21)
(9.00567 -0.189621 1.12967e-20)
(8.56769 -0.579071 3.42547e-22)
(8.53913 -0.577489 -5.83907e-23)
(8.6541 -0.606721 -3.83622e-23)
(8.63372 -0.610617 1.0301e-22)
(8.67318 -0.620111 3.08229e-23)
(8.61142 -0.616232 -3.54181e-23)
(8.59071 -0.623489 -2.5894e-22)
(8.56671 -0.606228 -6.13699e-23)
(8.71585 -0.637563 0)
(8.74416 -0.637087 -6.66773e-24)
(8.50841 -0.56123 -2.34743e-23)
(8.4607 -0.547269 -3.77877e-23)
(8.46565 -0.564681 0)
(8.38699 -0.510511 8.45858e-22)
(8.42373 -0.53132 2.33305e-23)
(8.44065 -0.549902 -4.59642e-22)
(8.76493 -0.63479 -4.31424e-23)
(8.79379 -0.637245 -1.70075e-23)
(8.36204 -0.479646 0)
(8.35724 -0.495719 2.51588e-24)
(8.34828 -0.471912 0)
(8.30888 -0.447104 1.27467e-23)
(8.32056 -0.478559 -4.57434e-23)
(8.24884 -0.397873 -1.04742e-23)
(8.25925 -0.407179 6.52945e-22)
(8.26581 -0.421453 1.29079e-22)
(8.27371 -0.438506 -2.53508e-23)
(8.24093 -0.388743 0)
(8.23498 -0.37555 0)
(8.23225 -0.342295 -7.18759e-23)
(8.22725 -0.357528 -5.06406e-22)
(8.29973 -0.190499 -6.4295e-24)
(8.40391 -0.177002 -1.91974e-23)
(8.1957 -0.195594 -2.71473e-24)
(8.12441 -0.222923 3.0908e-22)
(8.11534 -0.217346 -1.71881e-22)
(8.1419 -0.235142 -2.30776e-23)
(8.16533 -0.250343 3.31095e-22)
(8.17101 -0.261733 3.19379e-24)
(8.17543 -0.273613 3.33448e-24)
(8.18779 -0.285652 -3.1023e-22)
(8.20033 -0.302533 -4.37407e-23)
(8.19568 -0.317765 5.94525e-22)
(8.21048 -0.339017 3.26908e-24)
(8.68715 -0.154076 5.99295e-21)
(8.79342 -0.135522 4.63326e-23)
(8.53006 -0.163234 1.33911e-23)
(8.90881 -0.17636 -7.55376e-21)
(8.98952 -0.160229 -7.73539e-23)
(8.51453 -0.578813 -6.96625e-24)
(8.52089 -0.59996 0)
(8.6252 -0.633789 -4.67077e-23)
(8.69013 -0.639884 3.38228e-23)
(8.66365 -0.644968 -3.54368e-22)
(8.56674 -0.629209 -1.67772e-23)
(8.57929 -0.64453 -2.35827e-23)
(8.54823 -0.627354 0)
(8.70893 -0.666793 -3.77767e-23)
(8.75862 -0.657244 -1.00946e-22)
(8.49225 -0.58092 -5.23423e-24)
(8.47002 -0.58221 1.69534e-24)
(8.44808 -0.583818 6.89149e-24)
(8.36224 -0.511883 -4.41457e-23)
(8.37532 -0.527855 9.77809e-23)
(8.4218 -0.549657 -4.94781e-23)
(8.40463 -0.546614 -1.20957e-23)
(8.42375 -0.565096 -4.90615e-23)
(8.81523 -0.651449 5.31854e-23)
(8.8003 -0.665476 5.13202e-22)
(8.83702 -0.670467 8.31629e-23)
(8.3371 -0.513322 3.10908e-23)
(8.2808 -0.452802 1.2849e-23)
(8.28595 -0.467206 -4.50811e-22)
(8.2898 -0.483219 -9.28953e-23)
(8.30112 -0.501629 -2.76845e-21)
(8.2214 -0.405453 7.28728e-24)
(8.23699 -0.428562 2.05684e-22)
(8.25177 -0.458061 -4.81631e-24)
(8.22522 -0.367162 -5.01534e-24)
(8.20842 -0.386059 -2.61085e-24)
(8.20487 -0.365736 -4.97086e-24)
(8.42381 -0.170614 -8.5456e-21)
(8.12369 -0.200074 0)
(8.17567 -0.193669 3.18665e-25)
(8.10388 -0.210471 3.68128e-24)
(8.12198 -0.227376 2.92018e-24)
(8.15087 -0.247448 -6.35437e-24)
(8.15735 -0.274031 1.9125e-21)
(8.16746 -0.300962 4.7709e-22)
(8.18718 -0.334969 4.44089e-24)
(8.16569 -0.329124 1.08501e-24)
(8.18336 -0.351034 -9.63069e-24)
(8.78254 -0.152464 -1.02224e-23)
(9.00831 -0.100612 1.01271e-19)
(8.9391 -0.0917198 1.85913e-20)
(8.52605 -0.622101 0)
(8.50043 -0.619767 0)
(8.64122 -0.651248 -9.86058e-24)
(8.61975 -0.657349 -5.08944e-22)
(8.66065 -0.668983 -3.74145e-22)
(8.59725 -0.658987 6.50547e-23)
(8.57254 -0.662344 -8.22097e-24)
(8.52935 -0.64635 0)
(8.72349 -0.682896 2.1259e-21)
(8.70019 -0.681664 -2.59372e-23)
(8.77938 -0.670969 9.21376e-24)
(8.75547 -0.677988 -5.99739e-24)
(8.47346 -0.601839 -1.55778e-23)
(8.42655 -0.584146 8.33802e-24)
(8.4306 -0.60239 -7.36543e-24)
(8.38692 -0.54372 -2.86846e-22)
(8.35894 -0.547812 -1.06419e-21)
(8.38625 -0.564542 1.20038e-24)
(8.40597 -0.582816 1.67126e-24)
(8.79871 -0.685782 3.56938e-23)
(8.83763 -0.696919 2.22076e-23)
(8.32362 -0.539073 -3.78908e-22)
(8.31438 -0.51767 2.19804e-23)
(8.26344 -0.485941 -4.27823e-22)
(8.30959 -0.508817 -3.01858e-23)
(8.28514 -0.512233 -9.99218e-22)
(8.19535 -0.409798 2.21772e-23)
(8.20222 -0.420795 -6.05044e-25)
(8.20881 -0.432873 1.09164e-22)
(8.21609 -0.447911 5.35964e-22)
(8.22286 -0.463687 -1.73365e-23)
(8.23065 -0.478284 8.53678e-24)
(8.18993 -0.398391 6.16646e-22)
(8.18307 -0.389079 -2.46719e-24)
(8.18527 -0.365353 1.80159e-24)
(8.18234 -0.378321 0)
(8.28148 -0.184622 -2.37668e-24)
(8.40523 -0.166021 -2.65035e-24)
(8.08879 -0.203129 5.78934e-24)
(8.16126 -0.193446 -1.01896e-20)
(8.13766 -0.242632 0)
(8.12482 -0.236459 2.59931e-24)
(8.13779 -0.254842 0)
(8.13449 -0.269384 9.19121e-24)
(8.12954 -0.282919 7.40403e-24)
(8.14598 -0.320298 -2.8394e-24)
(8.13734 -0.306842 -4.20071e-24)
(8.13415 -0.335258 0)
(8.15615 -0.363391 2.10572e-24)
(8.80418 -0.111377 2.36761e-23)
(8.6458 -0.149853 5.36575e-21)
(8.96985 -0.154347 -2.96567e-24)
(8.8328 -0.0748612 1.74e-23)
(8.47851 -0.620963 -1.23132e-23)
(8.48316 -0.63986 0)
(8.61238 -0.677995 -7.18906e-23)
(8.68352 -0.682747 -2.07361e-23)
(8.65903 -0.690098 -2.3277e-23)
(8.55611 -0.675534 -4.84721e-23)
(8.57678 -0.687753 -2.83359e-23)
(8.53434 -0.667402 -9.89372e-25)
(8.5115 -0.661566 0)
(8.74141 -0.696155 -3.09535e-23)
(8.72753 -0.71266 -2.97456e-23)
(8.6965 -0.701067 -1.17034e-23)
(8.76343 -0.711021 1.06929e-23)
(8.45573 -0.621849 -1.18587e-22)
(8.4348 -0.620886 -3.80649e-23)
(8.41319 -0.61988 -1.4473e-23)
(8.33512 -0.558369 7.62415e-23)
(8.34509 -0.574607 3.68947e-23)
(8.38501 -0.581522 0)
(8.36638 -0.57988 -5.76035e-24)
(8.38659 -0.600529 0)
(8.81346 -0.706404 7.28565e-22)
(8.79227 -0.712029 5.71003e-22)
(8.83849 -0.723865 1.5201e-23)
(8.31146 -0.564981 6.45078e-23)
(8.29656 -0.530694 0)
(8.2416 -0.486857 -2.74083e-23)
(8.24455 -0.501444 -3.3882e-23)
(8.27419 -0.532513 1.81461e-23)
(8.2645 -0.526201 2.38785e-23)
(8.16797 -0.413172 5.81779e-24)
(8.18185 -0.437481 -7.22055e-24)
(8.19496 -0.467439 -3.2856e-23)
(8.21583 -0.490949 -5.44262e-23)
(8.15886 -0.389748 0)
(8.48494 -0.165093 -2.63726e-23)
(8.33113 -0.164031 1.38941e-23)
(8.07928 -0.200795 5.9156e-24)
(8.09896 -0.2175 -1.32137e-22)
(8.15765 -0.187498 8.8153e-21)
(8.11691 -0.201063 -2.48662e-23)
(8.11086 -0.231474 5.55051e-24)
(8.10752 -0.243524 -4.11791e-22)
(8.11797 -0.262537 0)
(8.12847 -0.295824 -1.2857e-24)
(8.10463 -0.287123 3.01255e-24)
(8.10934 -0.31353 -3.73944e-22)
(8.10721 -0.338277 0)
(8.12618 -0.349109 7.45672e-24)
(8.13159 -0.363629 7.07842e-24)
(8.13086 -0.378698 0)
(8.51924 -0.160746 -7.30492e-23)
(8.98416 -0.109297 -4.75721e-23)
(8.99325 -0.127708 -3.46704e-24)
(8.83002 -0.075999 -1.82824e-20)
(8.68293 -0.108838 -6.57224e-23)
(8.49143 -0.656057 0)
(8.46774 -0.656705 2.50497e-23)
(8.59994 -0.693985 -5.8253e-23)
(8.62232 -0.697632 5.95686e-22)
(8.64414 -0.705458 -3.00183e-23)
(8.66368 -0.717461 -1.20959e-23)
(8.53958 -0.692674 -8.85146e-25)
(8.58406 -0.70766 2.12661e-22)
(8.4981 -0.678963 -3.95365e-23)
(8.70525 -0.720249 -1.35078e-23)
(8.72681 -0.73317 6.32048e-24)
(8.6882 -0.722184 -4.4765e-22)
(8.77901 -0.730945 1.13065e-23)
(8.43971 -0.640294 -4.44416e-23)
(8.39076 -0.619248 0)
(8.39674 -0.638455 0)
(8.34291 -0.592066 7.58823e-23)
(8.36909 -0.617157 3.22762e-24)
(8.86234 -0.738881 -3.25577e-23)
(8.83668 -0.745739 1.09422e-23)
(8.28373 -0.56927 3.19806e-23)
(8.29581 -0.588667 7.91252e-22)
(8.28027 -0.544489 0)
(8.24348 -0.520884 0)
(8.22408 -0.5148 0)
(8.24333 -0.545477 0)
(8.14203 -0.416096 -4.79367e-23)
(8.14903 -0.428933 1.27674e-22)
(8.15664 -0.440444 2.24296e-23)
(8.16367 -0.453775 0)
(8.16914 -0.468364 -1.49862e-23)
(8.17491 -0.484197 -1.13656e-22)
(8.21141 -0.506254 3.01675e-23)
(8.19688 -0.498865 -4.36255e-22)
(8.13345 -0.39081 0)
(8.13543 -0.404124 -5.25316e-24)
(8.21336 -0.18007 -8.1107e-24)
(8.2865 -0.169116 6.39565e-21)
(8.08099 -0.197951 0)
(8.06942 -0.198047 -3.49869e-24)
(8.0976 -0.228342 1.95241e-24)
(8.13169 -0.182321 -2.68322e-23)
(8.09055 -0.199381 0)
(8.10284 -0.255689 3.95574e-25)
(8.08506 -0.249177 4.06366e-25)
(8.08843 -0.266784 0)
(8.08255 -0.301125 -6.73242e-22)
(8.08357 -0.285963 7.003e-23)
(8.08478 -0.311273 -1.21237e-25)
(8.08882 -0.320455 -7.31678e-22)
(8.08902 -0.334178 1.69565e-24)
(8.08354 -0.350818 -2.14904e-24)
(8.10704 -0.366032 4.5156e-22)
(8.10927 -0.392181 0)
(8.51942 -0.149343 -2.86809e-21)
(8.39319 -0.15796 1.33738e-21)
(8.88953 -0.0611582 -1.56725e-22)
(8.9106 -0.0880077 2.72848e-20)
(8.52098 -0.131065 -4.4846e-21)
(8.08634 0.0550409 3.18952e-23)
(8.04371 0.0680832 3.51261e-23)
(7.57693 0.0299821 -6.98927e-23)
(7.33072 0.0186198 -7.92505e-21)
(8.44698 -0.661874 2.93808e-23)
(8.4609 -0.678877 2.60647e-22)
(8.62826 -0.724208 -6.59448e-23)
(8.67374 -0.736915 -1.30161e-23)
(8.54555 -0.713396 0)
(8.52534 -0.706248 -3.66648e-23)
(8.56664 -0.72266 -6.17557e-24)
(8.59162 -0.732409 -2.52343e-22)
(8.48068 -0.691681 -1.47848e-23)
(8.50191 -0.70018 -1.79479e-22)
(8.75018 -0.748745 -3.33693e-22)
(8.72506 -0.755899 -1.32584e-23)
(8.77011 -0.751007 2.09464e-23)
(8.79836 -0.753726 -1.32477e-23)
(8.42479 -0.661532 8.47585e-25)
(8.40226 -0.657864 0)
(8.37942 -0.655066 0)
(8.34795 -0.613765 -2.09522e-24)
(8.32675 -0.605634 -2.1884e-24)
(8.35299 -0.633535 -8.02221e-24)
(8.8187 -0.757966 4.07789e-24)
(8.83538 -0.767283 -1.00312e-22)
(8.26272 -0.566985 0)
(8.3107 -0.601365 1.65304e-23)
(8.28444 -0.604417 2.99001e-22)
(8.20884 -0.523346 -8.86529e-25)
(8.24743 -0.560503 0)
(8.22772 -0.557254 -1.45061e-23)
(8.11639 -0.417502 -1.52138e-23)
(8.13321 -0.443241 1.3432e-22)
(8.14522 -0.470217 0)
(8.1809 -0.498168 1.23282e-23)
(8.15645 -0.498579 -1.5001e-23)
(8.18151 -0.514215 1.98476e-23)
(8.27974 -0.168931 6.93782e-21)
(8.06243 -0.195154 -4.71951e-22)
(8.07701 -0.208353 -8.65211e-24)
(8.08419 -0.222949 -8.67703e-23)
(8.07599 -0.232228 -1.49437e-23)
(8.09612 -0.193161 -5.90439e-24)
(8.10609 -0.181501 4.29996e-23)
(8.07705 -0.193996 1.36591e-23)
(8.06548 -0.243564 -1.32275e-23)
(8.05413 -0.253241 6.68892e-25)
(8.07587 -0.275279 1.45452e-24)
(8.06205 -0.26661 7.30201e-25)
(8.06203 -0.309003 -3.19558e-25)
(8.05221 -0.286856 1.12983e-24)
(8.06251 -0.331583 1.53985e-22)
(8.0828 -0.363893 1.2841e-22)
(8.06129 -0.360907 2.12932e-24)
(8.08578 -0.376918 3.59589e-22)
(8.08669 -0.391667 -3.41821e-24)
(8.08872 -0.405157 8.98816e-24)
(8.93938 -0.0729403 -2.99321e-23)
(8.85805 -0.089152 3.59501e-25)
(8.92223 -0.072471 6.41879e-21)
(8.50405 -0.124868 3.92182e-24)
(8.372 -0.142409 3.87134e-24)
(8.09517 0.0521597 1.27598e-21)
(7.98465 0.0790639 -4.53051e-22)
(8.04319 0.0795446 -2.61397e-23)
(7.94912 0.0749938 5.88076e-23)
(7.90532 0.044336 5.58161e-23)
(7.32346 0.0217188 -1.52628e-22)
(8.45681 -0.699947 2.73754e-23)
(8.61364 -0.741647 -1.38653e-23)
(8.63658 -0.7489 -5.95053e-22)
(8.66086 -0.752903 -3.39665e-23)
(8.68596 -0.757326 0)
(8.5485 -0.737293 0)
(8.50601 -0.72164 -1.80677e-23)
(8.59459 -0.756995 1.6707e-23)
(8.76233 -0.773477 5.32512e-23)
(8.70851 -0.768365 -1.85792e-23)
(8.72809 -0.783555 -4.34768e-22)
(8.80664 -0.777086 -4.5856e-23)
(8.40784 -0.679911 -9.4875e-24)
(8.35904 -0.652508 -1.1102e-23)
(8.3633 -0.671043 0)
(8.31336 -0.621902 1.63614e-23)
(8.33733 -0.649727 -7.12436e-23)
(8.85074 -0.778978 -2.61877e-24)
(8.83289 -0.789988 -2.2824e-22)
(8.24433 -0.579603 -5.34109e-25)
(8.28187 -0.626301 -2.03451e-23)
(8.26557 -0.615946 -4.43275e-23)
(8.18756 -0.526114 1.00556e-22)
(8.20185 -0.539307 -1.00866e-24)
(8.21047 -0.557841 -1.54624e-23)
(8.21329 -0.573097 -2.32503e-22)
(8.09147 -0.419454 -1.75716e-24)
(8.09913 -0.434585 -1.05956e-21)
(8.11262 -0.444682 -1.26602e-22)
(8.11976 -0.456394 2.86481e-23)
(8.12321 -0.470365 1.67209e-23)
(8.12889 -0.485223 0)
(8.13439 -0.500691 0)
(8.14078 -0.515359 0)
(8.17031 -0.526817 1.11991e-23)
(8.16519 -0.171268 -8.58668e-24)
(8.24945 -0.159109 -1.4623e-24)
(8.06374 -0.192262 7.15268e-23)
(8.0568 -0.191683 3.13297e-24)
(8.06972 -0.216402 -1.80337e-23)
(8.04924 -0.236685 1.6229e-21)
(8.08731 -0.171143 -6.81654e-24)
(8.06946 -0.189679 1.42637e-23)
(8.05016 -0.260754 -1.06127e-22)
(8.0246 -0.255255 5.19505e-25)
(8.03327 -0.269767 -8.87329e-23)
(8.03932 -0.306935 -5.82606e-22)
(8.04072 -0.317037 -1.20747e-24)
(8.03103 -0.29746 -1.1716e-24)
(8.02399 -0.287028 0)
(8.03791 -0.328767 2.43891e-24)
(8.03811 -0.343744 3.15826e-25)
(8.03884 -0.358167 2.42497e-24)
(8.03872 -0.372103 1.01212e-22)
(8.06339 -0.388496 -1.38103e-23)
(8.06808 -0.419161 3.769e-22)
(8.6648 -0.109849 0)
(8.80116 -0.0987841 -1.47143e-23)
(8.86062 -0.0800929 -5.40334e-24)
(8.45711 -0.117317 4.30497e-24)
(8.23537 -0.147762 5.33902e-24)
(8.03099 0.0560322 -5.88437e-23)
(8.09285 0.0649635 -6.16739e-23)
(7.94439 0.0844233 -2.93096e-23)
(7.9385 0.091823 -5.65133e-22)
(8.0804 0.0803316 0)
(8.02932 0.0933529 0)
(7.95463 0.0888648 0)
(7.89341 0.0451822 0)
(7.55159 0.0233883 0)
(7.31166 0.00626503 0)
(8.43318 -0.711036 0)
(8.45484 -0.725408 0)
(8.64479 -0.772005 -2.85718e-23)
(8.68902 -0.785412 0)
(8.55403 -0.764184 4.32078e-24)
(8.53056 -0.753852 1.89724e-23)
(8.5116 -0.74374 -2.80866e-22)
(8.48826 -0.735069 1.45978e-23)
(8.57441 -0.767899 3.76206e-24)
(8.59537 -0.774705 -2.17017e-23)
(8.74993 -0.793843 3.81355e-23)
(8.7713 -0.798618 1.54455e-23)
(8.73222 -0.808455 -2.55421e-23)
(8.81423 -0.798666 -1.89301e-23)
(8.79634 -0.799486 -1.22409e-23)
(8.41364 -0.700856 -8.66669e-24)
(8.39003 -0.693062 2.17793e-22)
(8.37152 -0.68571 -9.03405e-24)
(8.34997 -0.684597 -1.59019e-23)
(8.31545 -0.645153 1.79693e-22)
(8.29668 -0.637623 1.07661e-23)
(8.32218 -0.666385 -9.64709e-23)
(8.8654 -0.793442 1.19186e-22)
(8.82916 -0.811254 -9.60052e-24)
(8.22016 -0.583134 6.86573e-23)
(8.23658 -0.595093 -1.79148e-23)
(8.28011 -0.64804 -1.75926e-26)
(8.24814 -0.614613 2.42493e-22)
(8.24967 -0.637916 -4.78193e-22)
(8.18762 -0.558375 1.56716e-23)
(8.2011 -0.586766 1.32941e-23)
(8.08801 -0.447332 -1.39439e-23)
(8.1029 -0.470323 5.51355e-22)
(8.11312 -0.501022 0)
(8.15297 -0.526781 1.29309e-23)
(8.13061 -0.52901 1.6315e-23)
(8.16092 -0.541306 -1.69794e-22)
(8.05055 -0.185958 -3.88204e-22)
(8.05402 -0.193481 2.63919e-22)
(8.05552 -0.211406 -5.58313e-24)
(8.048 -0.221115 3.32126e-23)
(8.03526 -0.228774 4.00466e-23)
(8.01412 -0.236681 -8.9417e-22)
(8.07583 -0.163307 -1.20351e-24)
(8.07216 -0.176797 0)
(8.05781 -0.181413 -2.16117e-24)
(8.06757 -0.180947 0)
(7.99883 -0.254446 3.5586e-24)
(7.99448 -0.262773 0)
(8.01422 -0.278384 6.21971e-25)
(8.0019 -0.269487 6.05981e-25)
(8.01198 -0.30583 3.26004e-22)
(8.0162 -0.326249 0)
(7.99328 -0.288148 1.58557e-24)
(8.0151 -0.354126 7.22929e-23)
(8.04092 -0.385474 -1.72737e-23)
(8.01857 -0.382351 -4.66258e-24)
(8.04352 -0.400607 -2.96181e-22)
(8.0462 -0.414922 5.81444e-23)
(8.04924 -0.430739 -2.00799e-24)
(8.85216 -0.0733428 6.97185e-21)
(8.76711 -0.0858007 -1.30928e-23)
(8.86117 -0.0645541 1.111e-23)
(8.31548 -0.124227 4.36017e-22)
(8.42897 -0.109481 1.20009e-24)
(8.23571 -0.134933 8.32277e-24)
(8.15607 -0.155566 1.9039e-21)
(8.0787 0.073368 6.59441e-24)
(7.92804 0.0973384 2.23631e-21)
(7.93987 0.105144 1.71075e-23)
(7.9488 0.103353 3.90107e-23)
(8.00188 0.104543 6.03982e-23)
(7.97352 0.0928398 -5.43253e-24)
(8.00158 0.0940201 4.0546e-23)
(7.962 0.100369 0)
(8.03249 0.0931709 -2.16646e-25)
(8.05902 0.0939432 -2.88672e-24)
(7.87224 0.0384624 0)
(7.29627 0.0169827 -3.97625e-23)
(8.41727 -0.72514 -6.89944e-25)
(8.47177 -0.734867 0)
(8.45302 -0.742417 -2.09272e-23)
(8.65269 -0.790483 0)
(8.62887 -0.787736 0)
(8.66979 -0.801379 0)
(8.69104 -0.811716 -3.23471e-26)
(8.56258 -0.782566 -1.54673e-23)
(8.51503 -0.768952 1.78828e-23)
(8.48134 -0.754188 0)
(8.61273 -0.790842 -2.03557e-23)
(8.59393 -0.797521 -4.53577e-22)
(8.78421 -0.822058 -9.89327e-24)
(8.71197 -0.818907 -9.87441e-24)
(8.7343 -0.828822 2.64837e-22)
(8.37896 -0.707048 -8.68809e-24)
(8.33242 -0.687798 -7.47536e-23)
(8.34534 -0.705021 -3.31105e-22)
(8.30993 -0.685715 1.75725e-23)
(8.87958 -0.803396 2.19133e-23)
(8.86372 -0.812398 -2.28951e-22)
(8.84963 -0.819588 -1.77451e-22)
(8.83279 -0.828501 -1.44603e-24)
(8.22355 -0.617156 -1.33807e-22)
(8.25847 -0.65249 -6.06679e-24)
(8.27654 -0.667256 -2.16084e-23)
(8.24038 -0.653942 -2.30462e-23)
(8.16633 -0.557621 2.636e-23)
(8.17251 -0.573591 2.53227e-23)
(8.17923 -0.588769 4.64512e-23)
(8.19013 -0.603471 -2.05007e-22)
(8.08235 -0.465229 1.70926e-23)
(8.06782 -0.456383 1.98791e-25)
(8.08633 -0.480348 1.64802e-23)
(8.09096 -0.496804 0)
(8.096 -0.513822 5.0733e-24)
(8.12557 -0.552033 4.88728e-22)
(8.11248 -0.539823 4.99902e-23)
(8.14711 -0.556943 1.75121e-23)
(8.04581 -0.180784 1.08655e-24)
(8.05184 -0.20284 3.78956e-25)
(8.03704 -0.195029 -1.41317e-25)
(8.03218 -0.2074 1.01849e-23)
(8.0216 -0.221475 2.50116e-24)
(7.99302 -0.243383 -4.04743e-22)
(7.98016 -0.231968 -1.17676e-26)
(8.08519 -0.159418 2.84481e-24)
(8.05898 -0.155258 3.4252e-21)
(8.06228 -0.173571 0)
(7.96219 -0.250163 1.50016e-22)
(7.97403 -0.268057 0)
(7.99413 -0.320027 -7.58261e-26)
(7.98448 -0.310603 8.63673e-25)