/*--------------------------------*- C++ -*----------------------------------*\
| =========                 |                                                 |
| \\      /  F ield         | OpenFOAM: The Open Source CFD Toolbox           |
|  \\    /   O peration     | Version:  v2012                                 |
|   \\  /    A nd           | Website:  www.openfoam.com                      |
|    \\/     M anipulation  |                                                 |
\*---------------------------------------------------------------------------*/
FoamFile
{
    version     2.0;
    format      ascii;
    class       volScalarField;
    location    "350";
    object      k;
}
// * * * * * * * * * * * * * * * * * * * * * * * * * * * * * * * * * * * * * //

dimensions      [0 2 -2 0 0 0 0];


internalField   nonuniform List<scalar> 
12639
(
6.76543e-05
7.01102e-05
6.73618e-05
7.1118e-05
6.88684e-05
6.29184e-05
6.91964e-05
7.31045e-05
7.11546e-05
6.40737e-05
6.99917e-05
7.46035e-05
7.2539e-05
7.12973e-05
6.3412e-05
6.6198e-05
7.29679e-05
6.76459e-05
7.68451e-05
7.42639e-05
7.39153e-05
6.65016e-05
6.76503e-05
7.39987e-05
6.95543e-05
7.85461e-05
7.69997e-05
7.63354e-05
7.53231e-05
6.71095e-05
6.95092e-05
7.19369e-05
7.71114e-05
6.99167e-05
8.06946e-05
7.97141e-05
7.85554e-05
7.80006e-05
7.39354e-05
7.03206e-05
7.15057e-05
7.38509e-05
7.87379e-05
7.22812e-05
8.0696e-05
8.22538e-05
8.15539e-05
8.11158e-05
8.00431e-05
7.78641e-05
7.15413e-05
7.10191e-05
7.33158e-05
7.65508e-05
7.36309e-05
8.20469e-05
7.83046e-05
8.31345e-05
8.42143e-05
8.43865e-05
8.34593e-05
8.26454e-05
7.95999e-05
7.81694e-05
7.40054e-05
6.90543e-05
7.26928e-05
7.51995e-05
7.84719e-05
7.59293e-05
8.40954e-05
8.17189e-05
8.48235e-05
8.6013e-05
8.67476e-05
8.59421e-05
8.46367e-05
8.20561e-05
8.17124e-05
7.5886e-05
7.1271e-05
7.34938e-05
7.70115e-05
7.8074e-05
8.1287e-05
8.5214e-05
8.16801e-05
8.81791e-05
8.83962e-05
8.91981e-05
8.7773e-05
8.46403e-05
8.78582e-05
8.44253e-05
7.70259e-05
7.32411e-05
7.58631e-05
7.95012e-05
8.06647e-05
8.41388e-05
8.8088e-05
8.54136e-05
8.97321e-05
9.0582e-05
9.01367e-05
9.03644e-05
8.78164e-05
9.13823e-05
8.80273e-05
7.94429e-05
7.49262e-05
7.7104e-05
8.06634e-05
8.32378e-05
8.63239e-05
9.03775e-05
8.90296e-05
8.76415e-05
9.27266e-05
9.38951e-05
9.28468e-05
9.28216e-05
9.096e-05
9.4746e-05
9.15837e-05
8.09397e-05
7.71228e-05
7.42723e-05
7.96594e-05
8.33177e-05
8.5123e-05
8.8553e-05
9.30851e-05
9.24946e-05
9.03422e-05
9.53193e-05
9.67117e-05
9.51187e-05
9.56429e-05
9.39534e-05
9.58565e-05
9.83557e-05
9.5196e-05
8.33867e-05
7.91705e-05
7.78707e-05
8.11365e-05
8.41604e-05
8.7874e-05
9.03333e-05
8.96845e-05
9.42007e-05
9.48825e-05
9.37159e-05
9.71067e-05
9.78899e-05
0.000100575
9.7728e-05
9.98309e-05
9.78886e-05
0.000100578
0.00010175
9.9211e-05
8.52567e-05
7.91853e-05
7.88952e-05
8.37849e-05
8.71651e-05
8.9115e-05
8.97752e-05
9.2862e-05
9.27356e-05
9.70919e-05
9.73275e-05
9.693e-05
0.000101002
0.000100917
0.00010422
0.000100026
0.000103721
0.000101571
0.000103625
0.00010555
0.00010031
0.000102139
8.6026e-05
8.79247e-05
8.17186e-05
8.20473e-05
8.40045e-05
9.20277e-05
9.32533e-05
9.51296e-05
9.45701e-05
9.77447e-05
9.97156e-05
9.92971e-05
9.77701e-05
0.000101515
0.000103817
0.00010338
0.000107632
0.000102263
0.000108635
0.000106007
0.000108197
0.000108266
0.000106142
0.000106548
8.89992e-05
9.08236e-05
8.42104e-05
8.70357e-05
9.45291e-05
9.58558e-05
9.64179e-05
9.62421e-05
9.58231e-05
0.000100089
0.000103187
0.000101311
0.000101749
0.000105183
0.000106907
0.000105785
0.000104158
0.000110422
0.000109541
0.000103086
0.000114097
0.000109632
0.000112642
0.000114683
0.000109868
9.08736e-05
9.38424e-05
8.68757e-05
8.45479e-05
9.01399e-05
9.84203e-05
9.5506e-05
9.89556e-05
9.88729e-05
9.8393e-05
9.86128e-05
0.000100978
0.000101872
0.000107605
0.000102009
0.000100283
0.000106952
0.000110304
0.000108118
0.000106856
0.000114127
0.000114318
0.000105419
0.000120195
0.000114624
0.000117889
0.000118678
0.000115597
9.52164e-05
9.67161e-05
8.98728e-05
8.89885e-05
9.34996e-05
0.000101769
0.000100405
0.000101811
0.000100434
0.000100126
0.000100693
0.000102836
0.000104802
0.000111143
0.00010426
0.000104715
0.000109679
0.000113166
0.000110664
0.000108715
0.000107437
0.000117434
0.000118313
0.000105908
0.000121675
0.000126096
0.000124833
0.000125886
0.000121269
9.81664e-05
0.000100714
9.28874e-05
9.11865e-05
9.70397e-05
0.000103436
0.00010522
0.000104372
0.000102473
0.000101963
0.000102819
0.000104523
0.000109293
0.000114539
0.000103292
0.000111763
0.000117379
0.000113469
0.000111143
0.000109733
0.00012161
0.000122358
0.000108099
0.000127808
0.000133934
0.000132407
0.000124513
0.000132361
0.000129147
0.00010296
0.000105027
9.58919e-05
9.54963e-05
9.98301e-05
0.000108039
0.000108556
0.000105717
0.000106003
0.000103594
0.000103708
0.000105311
0.000106316
0.000112938
0.000118431
0.000107966
0.000114887
0.000120059
0.000115352
0.000113255
0.000110854
0.00012555
0.000128439
0.000108267
0.000109507
0.000132863
0.000144366
0.000142176
0.000132865
0.000141619
0.000138906
0.000106061
0.00010397
0.000109594
9.96665e-05
9.8924e-05
0.000110436
0.000110994
0.000111728
0.00010893
0.000108536
0.000105662
0.0001059
0.000107077
0.000107236
0.000113786
0.000120871
0.000107411
0.000118142
0.000123618
0.000118065
0.000114697
0.000114542
0.000113379
0.00011023
0.000129581
0.000134067
0.000109924
0.000110842
0.000139148
0.000153352
0.000150605
0.000140497
0.000150032
0.000154076
0.000111419
0.00010887
0.000114328
0.000103336
0.000102994
0.000114573
0.000116758
0.000112545
0.000115397
0.000111128
0.000110327
0.000106667
0.000106735
0.000107687
0.000109147
0.000111323
0.000122025
0.00012676
0.000112667
0.000120856
0.00012525
0.000120362
0.000118746
0.000117212
0.000116836
0.000114517
0.000112271
0.00013319
0.000131204
0.000137265
0.000111735
0.000109341
0.000146897
0.000165651
0.000150871
0.000162808
0.000150481
0.000161365
0.000163755
0.000116202
0.000113771
0.000107196
0.000119198
0.000106277
0.000118497
0.000120298
0.000115866
0.000119196
0.000112972
0.000112964
0.000108628
0.000108461
0.000109923
0.000110845
0.000121806
0.000128976
0.00011171
0.000121515
0.000128369
0.000123196
0.000120835
0.000118022
0.000117815
0.000116626
0.000113803
0.000137808
0.000134618
0.000144679
0.00011345
0.000113768
0.000153186
0.000168793
0.000173116
0.000164295
0.000172603
0.000164938
0.000187886
0.000123747
0.000117691
0.000109539
0.000124034
0.00011032
0.000123297
0.000126355
0.000115487
0.000118514
0.000123476
0.000119744
0.000114883
0.000110263
0.000110108
0.000111205
0.000112751
0.000127578
0.000136085
0.000118537
0.000126138
0.000128862
0.000122377
0.000125816
0.000121522
0.00012023
0.000119803
0.000117576
0.000115154
0.000138203
0.000142268
0.000133288
0.000151646
0.000145212
0.000112262
0.00011501
0.000125929
0.000164063
0.000181656
0.00018679
0.000170085
0.000187872
0.000194836
0.000127986
0.00012596
0.000114119
0.000123332
0.000129637
0.000118726
0.000127609
0.000129424
0.00011758
0.000121148
0.000127562
0.000124211
0.000114305
0.000117281
0.000111469
0.00011158
0.000111345
0.000113467
0.000138255
0.000118857
0.000127555
0.000124477
0.000127341
0.000123435
0.000120819
0.000120668
0.000116799
0.000119778
0.000115549
0.000141791
0.000146242
0.000135959
0.00015888
0.000153242
0.000114678
0.000116129
0.000134277
0.000172083
0.000192978
0.000196736
0.000185127
0.000204502
0.00019549
0.000217524
0.00013785
0.000133077
0.000115869
0.000128625
0.00013696
0.000132728
0.000132462
0.00013562
0.000120111
0.00012428
0.000126752
0.000132736
0.000125981
0.000116821
0.000119054
0.00011398
0.000113384
0.000112207
0.000115148
0.000147859
0.000138241
0.000107188
0.000130701
0.000126482
0.000129841
0.000127956
0.000124314
0.000122742
0.000122739
0.00011812
0.000120958
0.000117281
0.000141014
0.000150781
0.000134453
0.000167936
0.000157257
0.000116955
0.000116022
0.000117725
0.000133801
0.000185357
0.000214361
0.00021655
0.000193858
0.000233602
0.00023826
0.000221938
0.000143829
0.000138574
0.000135452
0.000126109
0.000141497
0.000139522
0.000137753
0.000121916
0.000126311
0.00013163
0.000136375
0.000130044
0.000117193
0.000121274
0.000115204
0.00011487
0.000114212
0.000115762
0.000151164
0.000140205
0.000111287
0.000127402
0.000131939
0.000130402
0.000126258
0.000124287
0.000119507
0.000122697
0.000120707
0.000144583
0.000149974
0.00015656
0.000137962
0.00017506
0.000166153
0.000122782
0.00011841
0.000118907
0.000160313
0.000194532
0.000243865
0.000223552
0.000229538
0.000212979
0.000285747
0.00030347
0.000155757
0.00014705
0.000145086
0.00014964
0.000157026
0.000143777
0.000124497
0.000129682
0.000132897
0.000141168
0.00013172
0.000118949
0.000123008
0.000117266
0.000116579
0.000115928
0.000116405
0.000111777
0.000166986
0.000129679
0.000134397
0.000131332
0.000127185
0.000126105
0.000124099
0.000119579
0.000123167
0.000121955
0.000143051
0.000154058
0.00016238
0.00013684
0.000188157
0.000170043
0.000131616
0.000119622
0.000119647
0.000163298
0.000211356
0.000306712
0.000252997
0.000256056
0.000223541
0.00037538
0.000155874
0.000163647
0.000149781
0.000162945
0.000150938
0.000158102
0.000170704
0.000144515
0.000125708
0.000131307
0.000138174
0.000143394
0.000135659
0.00012065
0.000123343
0.000117796
0.000117021
0.000117523
0.000116701
0.000117501
0.000116201
0.000169365
0.00013027
0.000135582
0.000133798
0.000129039
0.000127332
0.00012585
0.000120964
0.000124445
0.000122065
0.000146539
0.000160433
0.000151486
0.000140124
0.000197332
0.000177297
0.000162599
0.000136476
0.000120738
0.000120213
0.000120913
0.000222572
0.000289752
0.000535633
0.000268076
0.000272582
0.000248821
0.000168398
0.00017675
0.000166303
0.000183378
0.000158919
0.000169175
0.00020283
0.000150992
0.000127962
0.000130265
0.000134415
0.000139162
0.000149566
0.000136739
0.000122346
0.000120813
0.000125922
0.000119624
0.000118575
0.000118914
0.000118251
0.000119163
0.000120011
0.00016355
0.000181178
0.000131983
0.000138234
0.000134601
0.000129367
0.000127391
0.000126084
0.000124107
0.000125589
0.00012319
0.000145468
0.000164705
0.000154411
0.000142846
0.000140071
0.000214938
0.00019414
0.000186079
0.00017766
0.000123107
0.000177454
0.000121953
0.000121641
0.000122011
0.000245405
0.000389896
0.00140791
0.000312274
0.000309984
0.00026216
0.000177926
0.000184137
0.000185969
0.000183098
0.000224311
0.000169114
0.000158246
0.000219238
0.000127775
0.000132428
0.000135282
0.000144206
0.00015398
0.000140203
0.00012392
0.000122517
0.000125903
0.000120173
0.000119538
0.000118762
0.000119195
0.000120138
0.0001149
0.000177649
0.000133613
0.000130879
0.000139173
0.000137107
0.000129085
0.000127529
0.000125197
0.000126538
0.000123559
0.000150085
0.000170873
0.000159167
0.000144706
0.000142851
0.000226276
0.000211537
0.000194179
0.000185074
0.000133804
0.00018829
0.000122304
0.000124787
0.000123081
0.000259565
0.000383686
0.000664376
0.000331794
0.000333175
0.000297508
0.000201604
0.000213107
0.000204914
0.000198084
0.00024341
0.000179602
0.000165975
0.00012976
0.000131776
0.000137777
0.000143551
0.000149966
0.000161481
0.000140439
0.00012372
0.000123041
0.000127491
0.000121529
0.00012074
0.000120159
0.000120475
0.000121814
0.000122744
0.0002277
0.000134766
0.000131864
0.000141831
0.000136961
0.000130612
0.000128452
0.000127699
0.000126347
0.000124857
0.000123852
0.000150821
0.00017092
0.000160245
0.000147911
0.000144046
0.000246144
0.000218785
0.000203025
0.000183373
0.000156323
0.000123478
0.000126634
0.000292339
0.000541292
0.00175267
0.000416783
0.000387749
0.000317817
0.000247877
0.000222704
0.000207032
0.000199477
0.000288505
0.000194176
0.000176138
0.000165764
0.000129561
0.000133535
0.000138189
0.000147317
0.000155015
0.000165041
0.000143201
0.000125338
0.000122819
0.000124595
0.000126715
0.000121378
0.000121396
0.00012071
0.000120883
0.000122646
0.00013024
0.000224036
0.000133848
0.000131628
0.000142781
0.000138475
0.000131518
0.000129416
0.000128663
0.000127372
0.000125603
0.000125044
0.000155484
0.000177293
0.000165815
0.000149142
0.000147052
0.000259017
0.000215337
0.000238669
0.000198522
0.000190077
0.000180649
0.000124409
0.000124639
0.000129076
0.000314027
0.000567325
0.00097071
0.000448612
0.00041498
0.00037604
0.000267112
0.000306398
0.000240488
0.000245997
0.000225397
0.000206612
0.000185846
0.000174581
0.000131177
0.000135189
0.000137111
0.000141043
0.000145652
0.000151314
0.000161546
0.000154676
0.000173716
0.000143308
0.000125539
0.000123881
0.000125018
0.000128127
0.000122615
0.000122358
0.000121833
0.000121955
0.000126386
0.000146026
0.000238443
0.000134906
0.000133527
0.000142066
0.000145824
0.000140354
0.000136687
0.000132949
0.000130621
0.000129258
0.00012837
0.000127063
0.000126534
0.000125667
0.000155908
0.000178174
0.000167606
0.000152605
0.000148202
0.000289104
0.000226711
0.000244792
0.000205435
0.000185613
0.000187043
0.000125337
0.000126214
0.00012706
0.000136093
0.000358153
0.00109824
0.00205871
0.000594978
0.000518712
0.000423161
0.000401429
0.000365739
0.000273314
0.000279206
0.000241876
0.000198941
0.000226946
0.000183003
0.000131167
0.000134767
0.0001385
0.000140643
0.000147945
0.000153517
0.000166303
0.000160431
0.000179414
0.000145911
0.00012703
0.000124083
0.000126141
0.00012973
0.000123555
0.000123181
0.000122511
0.000122698
0.000127944
0.000139124
0.000263331
0.000133992
0.000143971
0.000146111
0.000140416
0.000137329
0.000133473
0.000131172
0.000130441
0.000128967
0.000128794
0.000127979
0.000126989
0.000126815
0.000160136
0.000174439
0.000164693
0.00015318
0.000151138
0.000307988
0.000218472
0.00026222
0.000198278
0.000189531
0.000162144
0.000126369
0.000129762
0.000137705
0.000411903
0.000371247
0.00200985
0.0011399
0.000602033
0.000519596
0.000557787
0.000301679
0.000379369
0.000275022
0.000208934
0.000240165
0.000192383
0.00013331
0.000136789
0.000142304
0.000151022
0.00015794
0.000173437
0.00016526
0.000161108
0.000190336
0.000146856
0.000127461
0.000125571
0.000130474
0.000124336
0.000123418
0.000123327
0.000123399
0.00012318
0.000135729
0.00015935
0.000258221
0.000135616
0.000142522
0.000148249
0.000139249
0.000137055
0.000135146
0.000133414
0.000132366
0.000130771
0.000129939
0.000129825
0.000128779
0.000127915
0.000127624
0.000159053
0.000177933
0.000168486
0.000156287
0.000152515
0.000351312
0.000301136
0.000226795
0.000285405
0.000258433
0.000201801
0.000185519
0.000204361
0.000127414
0.00012839
0.00014635
0.000490444
0.000443536
0.00213885
0.000805723
0.000622021
0.00146098
0.000302827
0.000354384
0.000678594
0.000295145
0.000223965
0.000203384
0.000264673
0.000133702
0.000137163
0.000141245
0.000144699
0.000152579
0.000159819
0.000177841
0.000170885
0.000166692
0.000198109
0.000149608
0.000128835
0.000126337
0.000132251
0.000129955
0.000125387
0.000124516
0.000124225
0.000125716
0.000124071
0.00013846
0.000151153
0.000293733
0.000143236
0.000147089
0.00015143
0.000139898
0.000138467
0.000136089
0.000134614
0.000132312
0.000131616
0.00013063
0.000129743
0.00012861
0.000127802
0.000128534
0.000162072
0.000174729
0.000166126
0.000156069
0.000381268
0.000342853
0.000242298
0.000212666
0.000304629
0.000278414
0.000190925
0.000185876
0.000130487
0.000140239
0.000644944
0.000489774
0.00138905
0.000802277
0.000360114
0.00041335
0.00170589
0.000284944
0.000343855
0.000229991
0.000213683
0.000276691
0.000135531
0.000139095
0.00014313
0.000145258
0.00015625
0.000164486
0.000185201
0.000171304
0.000168458
0.000194637
0.000211535
0.000147934
0.000129159
0.000127586
0.000132548
0.000131253
0.00012575
0.000125275
0.000124758
0.000124875
0.000128213
0.000135675
0.000173572
0.00029727
0.000141557
0.000145195
0.000149097
0.000153671
0.000138914
0.000137249
0.000135609
0.000134237
0.000133306
0.000131964
0.00013062
0.000131625
0.000129499
0.000128832
0.000129245
0.000158809
0.000179297
0.00016905
0.000437011
0.000359555
0.000245297
0.000215941
0.000331927
0.000269376
0.000191375
0.000222221
0.000128382
0.000135694
0.000145739
0.000875603
0.00057211
0.00244505
0.00129892
0.000391974
0.000551912
0.000941208
0.000326238
0.00037485
0.000248747
0.000307478
0.000135962
0.000138283
0.000143704
0.000157195
0.000165735
0.000185477
0.000177974
0.000174105
0.00020565
0.000220858
0.000149233
0.000128554
0.000130373
0.000127614
0.000133852
0.00013144
0.000126805
0.000125953
0.000125766
0.000125968
0.00012998
0.000141561
0.000135682
0.000311433
0.000141845
0.000145455
0.000147733
0.000151365
0.000156479
0.000140539
0.00013822
0.000137314
0.000136286
0.000135038
0.000133037
0.000131424
0.000132385
0.000130118
0.000129523
0.00012989
0.000159856
0.000174036
0.000185877
0.000166872
0.00047981
0.000407737
0.000234706
0.000210657
0.000344798
0.000286595
0.00020076
0.000140812
0.000391434
0.000131489
0.000137272
0.000144993
0.000896261
0.00152585
0.000721931
0.000572523
0.000497272
0.00061894
0.00206507
0.000340537
0.000453231
0.00024875
0.000320805
0.000135108
0.000139487
0.000146134
0.000141503
0.000155129
0.000161731
0.000170985
0.000193437
0.000177771
0.00017705
0.000204632
0.000234729
0.000151704
0.000129414
0.000128513
0.000134146
0.000132729
0.000126879
0.000126239
0.000126354
0.000126105
0.000126579
0.000139625
0.000179342
0.000143419
0.000145003
0.000148485
0.000152509
0.000155974
0.000140371
0.0001391
0.00013824
0.000136048
0.000135139
0.000133704
0.000131416
0.000132193
0.00013328
0.000130853
0.000130345
0.000130354
0.00016335
0.000173273
0.000188735
0.000169028
0.000480263
0.000396908
0.000246805
0.000219893
0.000309271
0.000294314
0.000196798
0.000187031
0.000393267
0.000132139
0.000138938
0.00156408
0.00244873
0.000927873
0.00070799
0.000567428
0.00114629
0.000387875
0.000504321
0.000268929
0.000293042
0.000368411
0.0001364
0.000138926
0.000145398
0.00014184
0.000157117
0.000161356
0.000170065
0.00019176
0.000184453
0.000183116
0.000216128
0.000241815
0.000149795
0.000130074
0.000128348
0.000129324
0.000135364
0.000132334
0.000127687
0.000127278
0.000127295
0.000128097
0.000127693
0.00014013
0.000193636
0.0001428
0.000146519
0.000150439
0.000152415
0.000158767
0.000141482
0.000139335
0.000137932
0.000136886
0.000136098
0.000134582
0.000133705
0.000132069
0.000132833
0.000133697
0.000130887
0.000130666
0.000131035
0.000161952
0.000177169
0.000183008
0.000165381
0.000581537
0.000441987
0.000265179
0.000231719
0.000210784
0.000323954
0.000286239
0.000201688
9.27088e-05
0.000397281
0.000358627
0.000133696
0.000151232
0.0024457
0.00155592
0.000773756
0.00078974
0.00206366
0.000457006
0.000386349
0.000680458
0.000264893
0.000310497
0.00040394
0.000137858
0.000140618
0.00014765
0.000143782
0.000154782
0.000164743
0.000174633
0.000200765
0.000187522
0.000210438
0.000233774
0.000152038
0.000131246
0.000129105
0.000129751
0.000135849
0.000133356
0.000127937
0.000127581
0.000127808
0.00012788
0.000130036
0.000128321
0.000143029
9.55116e-05
0.000144009
0.000145767
0.000151027
0.000155253
0.000159401
0.000141637
0.000140516
0.000138798
0.000136746
0.000136295
0.000135056
0.000134546
0.000132565
0.000132357
0.000133492
0.000134435
0.00013149
0.000131388
0.000132439
0.000174863
0.000184458
0.000166111
0.00058993
0.000515214
0.000438081
0.000261641
0.000230878
0.000210806
0.000350078
0.000308657
0.000196635
0.000130162
0.00042162
0.000363604
0.000134559
0.000134609
0.000150998
0.0024046
0.00105458
0.0008596
0.00131657
0.000531328
0.000455794
0.000856561
0.000281589
0.000343168
0.000390985
0.000480681
0.000138575
0.000141337
0.000148139
0.000144542
0.000156812
0.000164509
0.000170015
0.000180654
0.000204416
0.000194598
0.000223301
0.000249016
0.000152308
0.000131296
0.000129278
0.000130552
0.000134931
0.000137377
0.000132914
0.000134134
0.000128816
0.000128449
0.000128547
0.000128786
0.000131973
0.000129424
0.000146066
0.000121056
0.000143811
0.000147016
0.000150114
0.000153518
0.000157734
0.000162969
0.000142725
0.000140487
0.000139818
0.000138442
0.000137584
0.000137121
0.00013584
0.000134908
0.000133063
0.000132942
0.00013211
0.000133884
0.000134467
0.000132121
0.000170397
0.000178619
0.00019023
0.000786399
0.000572061
0.000393956
0.000510875
0.000283863
0.000246254
0.000220462
0.000201636
0.000338391
8.01079e-05
0.000272681
0.00059343
0.000170096
0.000136008
0.000138416
0.000151844
0.0016752
0.00106033
0.00149489
0.00240164
0.000692572
0.00147749
0.000277265
0.00034516
0.000455348
0.000572714
0.000139996
0.000142847
0.000150108
0.000146171
0.00015447
0.000159239
0.000162182
0.000171411
0.000183552
0.000213458
0.000191686
0.00023877
0.00022647
0.000132162
0.000130093
0.000130679
0.000135636
0.000137427
0.000133523
0.000134232
0.000129116
0.000128969
0.000128817
0.000129643
0.0001309
0.000134903
0.000147381
0.00010862
0.000144918
0.000146097
0.000148597
0.000151539
0.000153741
0.00015947
0.000162758
0.000142645
0.000141688
0.000140248
0.000139099
0.000137534
0.000136242
0.0001357
0.000133626
0.000133306
0.000132638
0.000134
0.000134977
0.000133045
0.000169538
0.000178893
0.000189492
0.000859572
0.000678933
0.000418995
0.000559165
0.000290226
0.000250152
0.000224875
0.000201605
0.000369973
9.74069e-05
0.0003039
0.0005692
0.000219735
0.000136687
0.000141256
0.000152671
0.00265556
0.00171666
0.0023659
0.000885264
0.00236758
0.000302835
0.000384664
0.000555721
0.00045101
0.000760349
0.000139941
0.000142328
0.000149934
0.000145203
0.000154274
0.00015901
0.000164682
0.000175506
0.000167711
0.000185833
0.000205927
0.000198529
0.000255076
0.000237297
0.000132093
0.000130333
0.000131484
0.000136571
0.000134955
0.000138667
0.000133632
0.000129805
0.000129786
0.000129581
0.00013089
0.00013287
0.000135718
0.000148202
0.00010769
0.000143686
0.000146781
0.000148426
0.000151474
0.000155807
0.000158038
0.000165528
0.000141384
0.000140504
0.000139943
0.000138919
0.000138351
0.000136994
0.000135778
0.000133791
0.00013354
0.000133525
0.000134595
0.000135473
0.000134357
0.000173159
0.000177446
0.000185041
0.000195396
0.00115961
0.000683457
0.000479633
0.000559641
0.000319838
0.000267504
0.000237491
0.00021787
0.000209875
0.000381805
0.000104874
0.000451727
0.000704299
0.000335035
0.000140043
0.000135624
0.000142389
0.000150405
0.00250105
0.00152724
0.000297624
0.000371321
0.000703947
0.000508984
0.0010214
0.00014115
0.000143603
0.000148093
0.000152046
0.000146303
0.000156455
0.000161387
0.000171587
0.000180458
0.000167735
0.000193407
0.000213683
0.000200937
0.000275175
0.000252318
0.000225452
0.00013291
0.000131113
0.000131712
0.000136873
0.000135173
0.000138572
0.000134445
0.000130045
0.000130631
0.000129842
0.00012995
0.000131253
0.000132715
0.000137348
0.000139644
0.000157805
0.000117958
0.000143976
0.00014624
0.000149707
0.000153232
0.000156446
0.000160107
0.000164543
0.000142156
0.000141524
0.000140155
0.00013951
0.000138359
0.000137168
0.000136453
0.00013434
0.000134281
0.000134514
0.000134799
0.000135776
0.000135141
0.000170601
0.000181558
0.000186407
0.000196725
0.00117191
0.00177885
0.000858909
0.00048733
0.000677073
0.00030715
0.000358203
0.000263004
0.000234914
0.000222249
0.000202904
0.000444931
0.000117393
0.000406254
0.000736184
0.000342123
0.000140752
0.000138196
0.00014552
0.000155232
0.00245417
0.000336743
0.00043216
0.000772428
0.000899315
0.000613468
0.00168693
0.000141377
0.000142814
0.000148251
0.000151747
0.000144962
0.000155503
0.000161211
0.000173159
0.000182098
0.000164578
0.000189891
0.000209148
0.000286385
0.000264647
0.000232947
0.000133026
0.000131233
0.000132465
0.000136046
0.000137744
0.000139518
0.000134666
0.00013079
0.000131478
0.000130532
0.000130579
0.00013299
0.000134725
0.000136895
0.000143556
0.000152351
0.000104027
0.000143972
0.000145383
0.000147616
0.000149696
0.000152491
0.000154884
0.00015866
0.000162671
0.000167614
0.000143095
0.000141396
0.000140774
0.000139444
0.000138936
0.00013786
0.000136913
0.000136306
0.000134783
0.000134859
0.000135615
0.000135446
0.000135754
0.000137043
0.000172079
0.000179629
0.000191276
0.00181269
0.00273961
0.000856034
0.000574496
0.000678848
0.000331293
0.000279969
0.000393912
0.000245295
0.000216326
0.000200209
0.000483898
0.00014052
0.000778483
0.000605403
0.000142859
0.00013865
0.000146511
0.000162619
0.000150305
0.000355751
0.000463674
0.00101303
0.00142669
0.000654669
0.00262081
0.000140572
0.000143468
0.000146895
0.000150019
0.000153553
0.000145355
0.000157267
0.000159524
0.000169945
0.000178082
0.000182412
0.000164072
0.000194648
0.000216137
0.000313467
0.000250283
0.000229879
0.000133803
0.000131975
0.000132775
0.000136115
0.000137862
0.000138814
0.000134343
0.000135619
0.000131044
0.00013115
0.000132644
0.000133783
0.000134877
0.000138868
0.000146789
0.000141394
0.00015981
0.000134885
0.000145055
0.000145907
0.000146866
0.000148758
0.000151208
0.000153362
0.000154954
0.000159782
0.000164264
0.000166737
0.00014277
0.000142018
0.00014083
0.000140038
0.00013906
0.000137843
0.000137303
0.000136628
0.000135335
0.000135744
0.000135434
0.000137574
0.000135742
0.000136278
0.000138349
0.000175397
0.00016871
0.000182788
0.000188013
0.00254967
0.00114653
0.000590433
0.00082369
0.000373464
0.000315213
0.000265776
0.000453201
0.000236676
0.000206206
0.000222942
0.000191907
0.000564733
0.000132668
0.000764871
0.000612257
0.000142547
0.000145256
0.000141083
0.000150279
0.000153814
0.000400312
0.000454648
0.00057009
0.000891914
0.00158859
0.000141167
0.000142476
0.000147177
0.000150078
0.000153587
0.000144417
0.00015548
0.000160921
0.00017104
0.000166593
0.000178328
0.000188463
0.000201984
0.000209856
0.000310477
0.000258781
0.00024078
0.000133975
0.000132537
0.000132074
0.000133583
0.000137114
0.000139301
0.000134949
0.000136089
0.000131642
0.00013192
0.000133374
0.000135935
0.000137689
0.000138814
0.000148845
0.000142543
0.000157315
0.000153514
0.00014509
0.000147057
0.000149201
0.000150414
0.000153525
0.000156365
0.000162116
0.000157989
0.000143382
0.000141536
0.000140564
0.000139615
0.000138724
0.000138275
0.000137133
0.000136628
0.000135834
0.0001372
0.000136951
0.000138637
0.000136284
0.000136511
0.000140933
0.000174345
0.000166021
0.000178472
0.00180907
0.00102283
0.000719811
0.000845201
0.000411902
0.000341311
0.000282069
0.000245441
0.000502217
0.000200323
0.000215135
0.000188818
0.000647172
0.000337929
0.000100717
0.00080135
0.00053337
0.000144711
0.000146891
0.000141448
0.00016296
0.000151592
0.00040517
0.000519131
0.000651535
0.00116495
0.00254732
0.000140403
0.000143038
0.000146216
0.000148697
0.000151861
0.000144927
0.00015644
0.000159344
0.000167975
0.000174503
0.00016559
0.000182858
0.000187753
0.000204641
0.00021942
0.000279508
0.000345331
0.000233206
0.000134596
0.000133083
0.000132734
0.0001339
0.000137313
0.000139256
0.000135534
0.000136796
0.000131939
0.000132764
0.000134567
0.000136884
0.000138243
0.000148275
0.000149935
0.000144319
0.000164117
0.00012078
0.000146021
0.000144218
0.000148055
0.000151021
0.000152209
0.000154747
0.00016111
0.000158331
0.000142686
0.000141577
0.000140911
0.000139682
0.000138848
0.00013816
0.000137483
0.000137055
0.000137006
0.000138312
0.000140622
0.000136778
0.000137011
0.00014239
0.000170875
0.000162749
0.00016709
0.000179013
0.00270954
0.00131579
0.000770554
0.00107737
0.000479883
0.000387217
0.000597944
0.000193358
0.000183566
0.000464196
0.000164238
0.00122264
0.000686127
0.00014491
0.000149274
0.000142452
0.000161854
0.000154326
0.000385854
0.000476383
0.000607388
0.000824315
0.00113142
0.00179943
0.000140839
0.000142646
0.000146567
0.000148862
0.000151857
0.000144587
0.000155583
0.000160689
0.000168097
0.000174848
0.000163277
0.000134846
0.000133225
0.000133706
0.000132912
0.000134573
0.000138054
0.000138636
0.000140075
0.000135548
0.000137048
0.000132723
0.00013365
0.000136036
0.000134838
0.000139163
0.000140673
0.000150808
0.000154006
0.000144536
0.000161755
0.000187694
0.000145611
0.000143999
0.000147611
0.000149551
0.000151036
0.00015332
0.000157
0.00014273
0.000142039
0.000140635
0.000140126
0.000139239
0.000138482
0.00013788
0.000137369
0.000137051
0.000137415
0.000138077
0.000140609
0.000141309
0.000142308
0.000137895
0.000137599
0.000143053
0.000171191
0.000160525
0.000164423
0.00195941
0.000959016
0.00132465
0.000560775
0.00042913
0.000680992
0.000726989
0.000159287
0.00117985
0.00014674
0.000150268
0.000173991
0.000156465
0.000153328
0.000527063
0.000690232
0.000860283
0.0017795
0.00272539
0.000141719
0.000143554
0.000147748
0.000145423
0.000150387
0.000153655
0.000157316
0.000159408
0.000165073
0.00016295
0.000134854
0.000133846
0.000134209
0.000133787
0.000134913
0.000137724
0.000138771
0.000140081
0.000136091
0.000136728
0.000133564
0.000138161
0.000136102
0.000140482
0.000139929
0.000143288
0.000150632
0.000152336
0.000147798
0.000178557
0.000248227
0.00014461
0.000146334
0.000143286
0.000148402
0.00014948
0.000151649
0.00015393
0.000155335
0.000158368
0.000142175
0.000141499
0.000140954
0.000139889
0.000139258
0.000138471
0.000137917
0.00013761
0.000137489
0.000138854
0.000139912
0.00014145
0.000143842
0.000144189
0.000139173
0.00013816
0.000138065
0.000145689
0.000161364
0.00277765
0.000849169
0.00126257
0.00200475
0.000683214
0.000581611
0.00049863
0.000811547
0.000180955
0.0014152
0.000148576
0.000146479
0.000150078
0.00016773
0.000158626
0.000155617
0.000636925
0.00110952
0.00254215
0.000141563
0.000143248
0.000148292
0.000145193
0.000150538
0.00015318
0.000156008
0.000160482
0.000135559
0.000134495
0.000134198
0.000134758
0.000134222
0.000134446
0.000135481
0.000134903
0.000138089
0.000139408
0.000140825
0.000136049
0.000137211
0.000138339
0.000136291
0.000143032
0.000142187
0.000144893
0.00015451
0.000154045
0.000149576
0.000174966
0.000421735
0.000143996
0.000145818
0.000142836
0.000147542
0.000149184
0.00015141
0.000152422
0.00015527
0.000156641
0.000142192
0.000141635
0.000140567
0.000139607
0.000140193
0.000139154
0.000138915
0.000138279
0.000137799
0.000140055
0.000140466
0.000142708
0.000145213
0.000145631
0.000140611
0.000139398
0.000138661
0.000146573
0.000159503
0.00103882
0.00181786
0.00282186
0.000863253
0.000727426
0.00157294
0.000462293
0.000140648
0.000149922
0.000149187
0.000152587
0.000173759
0.000161761
0.000155218
0.000742441
0.00176804
0.000940519
0.000142335
0.000144049
0.000147448
0.000149713
0.000146197
0.000151966
0.000154371
0.000157037
0.000135139
0.00013477
0.000135297