/*--------------------------------*- C++ -*----------------------------------*\
| =========                 |                                                 |
| \\      /  F ield         | OpenFOAM: The Open Source CFD Toolbox           |
|  \\    /   O peration     | Version:  v2012                                 |
|   \\  /    A nd           | Website:  www.openfoam.com                      |
|    \\/     M anipulation  |                                                 |
\*---------------------------------------------------------------------------*/
FoamFile
{
    version     2.0;
    format      ascii;
    class       volScalarField;
    location    "350";
    object      omega;
}
// * * * * * * * * * * * * * * * * * * * * * * * * * * * * * * * * * * * * * //

dimensions      [0 0 -1 0 0 0 0];


internalField   nonuniform List<scalar> 
12639
(
0.302074
0.301479
0.326778
0.312007
0.300156
0.345653
0.332389
0.313687
0.311307
0.372595
0.350208
0.326
0.315535
0.314271
0.347722
0.37584
0.345431
0.387662
0.329894
0.3256
0.32474
0.339717
0.357656
0.370729
0.400354
0.341156
0.334644
0.333446
0.330453
0.298022
0.359675
0.408745
0.367354
0.386875
0.344397
0.34592
0.343769
0.341206
0.324579
0.30417
0.334438
0.427295
0.389781
0.383381
0.347527
0.353013
0.355862
0.353837
0.348909
0.340389
0.313584
0.303811
0.348255
0.43696
0.398253
0.365557
0.44117
0.357767
0.357375
0.366939
0.362531
0.359438
0.347371
0.34207
0.309509
0.297391
0.311318
0.342471
0.435785
0.377332
0.382973
0.460197
0.368612
0.369577
0.375704
0.372525
0.367687
0.357629
0.35641
0.320733
0.316585
0.326506
0.318073
0.383992
0.441757
0.411806
0.52219
0.381406
0.377061
0.385521
0.379946
0.367987
0.38055
0.367358
0.340776
0.323554
0.33499
0.330997
0.333716
0.360099
0.433053
0.511506
0.387013
0.390957
0.383334
0.39024
0.380914
0.394824
0.381744
0.349105
0.32744
0.336515
0.353048
0.350063
0.395632
0.381753
0.507819
0.546983
0.399124
0.404145
0.398572
0.4
0.39342
0.408227
0.395841
0.352635
0.336846
0.325203
0.347204
0.363349
0.369194
0.378602
0.4092
0.517735
0.554225
0.409528
0.415266
0.405121
0.411274
0.405522
0.412353
0.423018
0.410292
0.362367
0.34536
0.340008
0.353172
0.365631
0.379941
0.417436
0.38573
0.454804
0.394048
0.614036
0.416729
0.419781
0.430619
0.420663
0.427804
0.421061
0.431331
0.436373
0.426394
0.369827
0.345231
0.343892
0.363765
0.377583
0.385298
0.387336
0.41175
0.39923
0.490168
0.405333
0.620958
0.432115
0.431504
0.444939
0.428934
0.443293
0.435382
0.443313
0.451509
0.433666
0.43748
0.372733
0.380477
0.355293
0.356545
0.364457
0.396925
0.401903
0.439809
0.403765
0.371884
0.673958
0.431255
0.561877
0.43405
0.443251
0.441174
0.458367
0.436777
0.462684
0.452968
0.461808
0.461777
0.456726
0.455492
0.384479
0.391898
0.365211
0.376429
0.406622
0.412045
0.393329
0.40836
0.412101
0.413616
0.67482
0.43382
0.609264
0.448515
0.455365
0.450742
0.44398
0.469298
0.46575
0.441022
0.484882
0.467788
0.4792
0.486996
0.474607
0.39171
0.403824
0.375814
0.36705
0.388796
0.422022
0.410506
0.423841
0.417015
0.423007
0.423159
0.394435
0.477983
0.871515
0.433378
0.419511
0.455398
0.468707
0.459814
0.454612
0.483805
0.484547
0.450053
0.508675
0.488161
0.499402
0.503373
0.496352
0.408896
0.414933
0.387899
0.384942
0.402173
0.435329
0.429782
0.43517
0.43334
0.428639
0.430777
0.404933
0.523999
0.850459
0.437871
0.535368
0.466098
0.47985
0.469847
0.462064
0.456754
0.496659
0.500154
0.452812
0.514163
0.531779
0.526445
0.532589
0.521698
0.420377
0.43068
0.399983
0.394712
0.416261
0.441722
0.448856
0.445217
0.437926
0.434458
0.439112
0.418847
0.655525
0.960065
0.385833
0.474303
0.496334
0.480806
0.471488
0.465905
0.512914
0.515707
0.459315
0.538182
0.562042
0.555392
0.529927
0.557546
0.562821
0.43948
0.447426
0.412271
0.411802
0.427815
0.459662
0.461997
0.450651
0.45155
0.436105
0.4417
0.449076
0.424222
0.709132
0.958318
0.502731
0.486464
0.506715
0.488091
0.479738
0.469937
0.528164
0.539541
0.45971
0.465091
0.558642
0.601255
0.593713
0.567844
0.597233
0.600878
0.451593
0.444131
0.465346
0.427384
0.42686
0.46918
0.470846
0.474389
0.463209
0.461485
0.448053
0.450067
0.456033
0.417794
0.659662
0.964607
0.425257
0.499175
0.520569
0.498679
0.485441
0.484653
0.48011
0.466295
0.543752
0.561526
0.451804
0.471907
0.582535
0.635827
0.628092
0.59803
0.63064
0.670231
0.472781
0.463922
0.483836
0.442142
0.442731
0.485228
0.49327
0.477556
0.488655
0.471846
0.468425
0.450888
0.447857
0.459057
0.463701
0.492074
0.887343
1.06051
0.535581
0.509695
0.526812
0.507637
0.501223
0.495199
0.493588
0.484348
0.47512
0.557718
0.549904
0.573389
0.477733
0.40147
0.612543
0.68204
0.62723
0.677413
0.64403
0.681873
0.706892
0.49244
0.483113
0.457527
0.502872
0.457676
0.500143
0.506926
0.490479
0.50339
0.478919
0.478779
0.458624
0.457017
0.467436
0.470542
0.7888
1.03925
0.461206
0.512206
0.538891
0.518582
0.50931
0.498265
0.497301
0.492592
0.481263
0.575462
0.56305
0.602032
0.47042
0.479884
0.63641
0.697717
0.710456
0.677959
0.725659
0.702944
0.812096
0.521974
0.498606
0.467175
0.521959
0.480604
0.518744
0.530493
0.488797
0.500829
0.519732
0.505678
0.486217
0.465199
0.460617
0.472611
0.477895
0.905261
1.16432
0.598647
0.530153
0.540719
0.515328
0.528745
0.511898
0.506823
0.505021
0.496148
0.486332
0.576878
0.592597
0.557831
0.62886
0.603971
0.412206
0.488593
0.781713
0.678588
0.74924
0.762729
0.700204
0.788821
0.834835
0.538304
0.530149
0.4866
0.521987
0.543592
0.514181
0.535189
0.542217
0.496853
0.51097
0.535527
0.522967
0.484024
0.495556
0.473746
0.467444
0.463963
0.48074
1.13995
0.56369
0.535569
0.523398
0.534587
0.51929
0.509024
0.508302
0.492877
0.504718
0.487907
0.590605
0.607718
0.568068
0.656408
0.634698
0.436978
0.487586
0.953482
0.708621
0.798441
0.800509
0.756507
0.862835
0.814175
0.927816
0.577188
0.559802
0.498413
0.549326
0.572123
0.577316
0.553958
0.566181
0.506748
0.523149
0.532672
0.555177
0.529846
0.493809
0.50242
0.483088
0.476477
0.453006
0.487368
1.32756
0.992333
0.291165
0.547718
0.531146
0.544285
0.536903
0.52261
0.516464
0.516355
0.497874
0.50918
0.495225
0.587544
0.625031
0.562207
0.691107
0.649857
0.441189
0.469618
0.496918
0.874488
0.759076
0.88144
0.876122
0.789496
0.988835
0.997623
0.92413
0.599887
0.580519
0.577073
0.541944
0.58922
0.602543
0.574174
0.513634
0.530882
0.551422
0.569264
0.545536
0.495337
0.511052
0.48756
0.4863
0.482432
0.527849
1.33538
0.978157
0.364382
0.53461
0.552321
0.546318
0.530113
0.522305
0.503291
0.515926
0.508037
0.601183
0.621838
0.647104
0.575666
0.717604
0.683705
0.550877
0.473078
0.501034
1.49838
0.793291
1.00458
0.912352
0.922604
0.860475
1.20267
1.26099
0.646683
0.615413
0.619166
0.620557
0.676428
0.597302
0.523678
0.543934
0.556457
0.587556
0.551984
0.502157
0.517742
0.495603
0.49274
0.488811
0.503683
0.335534
1.53996
0.543384
0.561778
0.549819
0.533627
0.529388
0.521439
0.503328
0.517541
0.512766
0.595254
0.63737
0.669155
0.571251
0.767379
0.698255
0.707629
0.479005
0.505284
1.49073
0.856422
1.2339
1.02816
1.02323
0.899867
1.51837
0.649166
0.676469
0.634816
0.696203
0.624803
0.653605
0.729612
0.60008
0.528217
0.550058
0.576683
0.596327
0.56715
0.508761
0.519073
0.49763
0.494333
0.496462
0.492339
0.504375
0.418589
1.52254
0.545584
0.566229
0.559299
0.540789
0.534068
0.528157
0.508381
0.522416
0.51305
0.608568
0.661652
0.627512
0.583827
0.801246
0.725583
1.43785
0.778552
0.445997
0.518572
0.506368
0.897918
1.17695
2.02738
1.07899
1.08146
0.992956
0.701459
0.727595
0.707047
0.778553
0.655248
0.6957
0.860165
0.624857
0.536934
0.545859
0.562079
0.580668
0.619791
0.571182
0.515308
0.509408
0.529052
0.504744
0.500264
0.501791
0.498978
0.508021
0.461252
1.34257
1.8001
0.552159
0.576397
0.562314
0.541981
0.534207
0.528925
0.52095
0.526884
0.517245
0.6044
0.677778
0.638601
0.594294
0.583508
0.867564
0.788975
0.758645
0.726774
0.474665
1.64502
0.464052
0.515602
0.512578
0.982624
1.53293
4.76529
1.24678
1.2209
1.04184
0.751732
0.765197
0.766324
0.749764
0.941659
0.694416
0.652289
0.9232
0.536162
0.554132
0.565189
0.599959
0.636704
0.584457
0.521447
0.516004
0.529073
0.506747
0.50391
0.501438
0.502187
0.508082
0.348156
1.58226
0.558446
0.547807
0.579899
0.571931
0.540667
0.534467
0.525044
0.530409
0.518547
0.622036
0.701116
0.656694
0.601317
0.594134
0.90906
0.853932
0.78882
0.754621
0.677814
1.81606
0.516582
0.462173
0.516657
1.03436
1.511
2.45924
1.31265
1.30103
1.17038
0.853967
0.894154
0.842042
0.805936
1.01562
0.73406
0.68162
0.543845
0.551576
0.57476
0.597414
0.621908
0.664977
0.585133
0.520702
0.517977
0.535225
0.511959
0.508658
0.506594
0.50721
0.49713
0.484014
2.51397
0.562816
0.551557
0.590069
0.571276
0.546569
0.538082
0.534947
0.529523
0.523583
0.519629
0.624761
0.701193
0.660695
0.613562
0.598624
0.982814
0.880497
0.821793
0.748131
1.16333
0.518302
0.494074
1.15381
2.05032
5.86256
1.61855
1.49932
1.24334
1.03167
0.893444
0.874543
0.813113
1.1876
0.789831
0.720118
0.680795
0.54317
0.558382
0.576196
0.611736
0.641189
0.67871
0.595665
0.526951
0.517041
0.523999
0.53229
0.511206
0.511038
0.507443
0.508424
0.498495
0.611565
2.36564
0.559225
0.550574
0.593633
0.577029
0.549901
0.541685
0.538625
0.533369
0.526356
0.524171
0.642512
0.725225
0.681803
0.618156
0.610105
1.02889
0.867604
0.95405
0.804844
0.773249
1.58443
0.523414
0.529876
0.472068
1.232
2.13635
3.44043
1.72689
1.59124
1.45147
1.10058
1.25411
0.963232
1.02005
0.909881
0.835614
0.756575
0.714115
0.549415
0.564752
0.572071
0.587172
0.605152
0.627019
0.665873
0.639957
0.711218
0.59585
0.527682
0.52109
0.525572
0.537734
0.515948
0.514761
0.510723
0.512543
0.513643
0.897485
2.5777
0.563228
0.557844
0.590834
0.605276
0.584234
0.570072
0.555393
0.546325
0.54082
0.537235
0.532046
0.529926
0.526241
0.643988
0.728456
0.688456
0.631343
0.614406
1.13908
0.909577
0.976289
0.830509
0.75642
1.64906
0.52326
0.526633
0.528785
0.51378
1.39027
3.84836
6.82773
2.2199
1.95674
1.61697
1.59275
1.47489
1.08666
1.16286
0.970144
0.805856
0.912089
0.745573
0.549455
0.563255
0.577469
0.585672
0.613738
0.635185
0.68396
0.661803
0.732778
0.605796
0.533433
0.521778
0.529871
0.543914
0.519623
0.517888
0.51297
0.515525
0.527928
0.741413
2.9668
0.559541
0.598058
0.606261
0.584384
0.57247
0.557279
0.548289
0.545388
0.5396
0.538747
0.535462
0.5315
0.530435
0.660005
0.714276
0.677296
0.633437
0.625593
1.20635
0.878939
1.03996
0.803736
0.771008
1.16917
0.527533
0.527178
0.562959
1.57598
1.43858
6.66758
3.9768
2.23909
1.95487
2.09442
1.19402
1.50302
1.0926
0.842761
0.959826
0.780761
0.557698
0.571021
0.592062
0.625483
0.65198
0.710759
0.680129
0.664256
0.773504
0.609292
0.535022
0.527534
0.546764
0.522508
0.518659
0.517593
0.513161
0.517445
0.576753
1.16017
2.81867
0.565729
0.59244
0.61438
0.579851
0.571298
0.563747
0.556928
0.552848
0.546522
0.543269
0.542724
0.538564
0.535024
0.533289
0.655769
0.727276
0.691508
0.645236
0.63076
1.36314
1.18133
0.909511
1.12437
1.0258
0.816693
0.755806
1.97171
0.530264
0.526521
0.697573
1.85067
1.69367
7.08006
2.91603
2.30314
4.94297
1.19196
1.39575
2.51094
1.16557
0.898739
0.821642
1.0501
0.559234
0.572536
0.588158
0.601181
0.631179
0.658792
0.727477
0.701383
0.685346
0.802617
0.61986
0.540303
0.530405
0.553622
0.544695
0.526569
0.522864
0.520595
0.521487
0.520759
0.641978
0.962095
3.36558
0.595087
0.609871
0.626536
0.582243
0.576649
0.567262
0.561448
0.552503
0.549742
0.545736
0.542124
0.537534
0.533795
0.536839
0.667131
0.715068
0.682474
0.644307
1.46827
1.33135
0.966598
0.857044
1.19357
1.09853
0.775919
1.56699
0.532036
0.569266
2.37391
1.85427
4.76975
2.90844
1.40253
1.60481
5.71098
1.12609
1.34286
0.920115
0.859863
1.0917
0.566262
0.579936
0.595393
0.603474
0.645152
0.676476
0.755096
0.703009
0.691674
0.790114
0.852233
0.613662
0.541452
0.535217
0.554697
0.549646
0.527837
0.525827
0.523041
0.522223
0.528307
0.56547
1.34341
3.32847
0.588561
0.602551
0.617441
0.634976
0.578245
0.5717
0.5653
0.559868
0.556255
0.550968
0.545503
0.549572
0.540965
0.53556
0.539208
0.654672
0.73208
0.693407
1.66565
1.39037
0.977339
0.868974
1.29158
1.06542
0.77744
2.1847
0.526806
0.549895
0.657981
3.13192
2.13816
8.03487
4.48908
1.51353
2.08097
3.34669
1.27566
1.45225
0.989086
1.20349
0.567899
0.576821
0.597606
0.648725
0.681022
0.756383
0.728091
0.712949
0.831188
0.886911
0.618701
0.53903
0.546125
0.535157
0.559686
0.550266
0.531924
0.528342
0.526879
0.52437
0.538543
0.635326
0.687687
3.51587
0.589509
0.603411
0.6121
0.62609
0.645647
0.584443
0.575451
0.57179
0.567808
0.562863
0.555088
0.548438
0.552371
0.543088
0.539428
0.541816
0.658534
0.712206
0.756747
0.685091
1.81317
1.5609
0.938269
0.849161
1.33715
1.12772
0.812378
0.853128
4.7062
0.534742
0.557683
0.596115
3.20651
5.20228
2.64294
2.13478
1.88367
2.30474
6.85094
1.3251
1.72831
0.988795
1.2494
0.564563
0.581425
0.606892
0.58917
0.641124
0.665974
0.700915
0.786124
0.727084
0.723627
0.827924
0.937955
0.628112
0.542288
0.538579
0.56071
0.555182
0.532032
0.529251
0.528718
0.513669
0.531162
0.601707
1.43934
0.595461
0.601557
0.614773
0.630345
0.643595
0.583636
0.578712
0.575248
0.566792
0.563148
0.557579
0.548104
0.55144
0.555789
0.545829
0.541663
0.543189
0.671728
0.709142
0.767248
0.693123
1.81411
1.52243
0.982285
0.883101
1.20971
1.15532
0.797362
1.5819
4.64746
0.537814
0.550127
5.33273
8.04799
3.31723
2.59094
2.12083
4.00495
1.49406
1.90445
1.06257
1.1495
1.42019
0.569459
0.579218
0.60407
0.590426
0.648809
0.664818
0.697752
0.779591
0.752066
0.746528
0.870553
0.964371
0.62087
0.544752
0.537802
0.541765
0.565364
0.553526
0.535119
0.533048
0.532436
0.523844
0.532587
0.600739
1.69043
0.592919
0.60721
0.62217
0.629789
0.654137
0.587817
0.579482
0.573967
0.569927
0.566789
0.560966
0.557492
0.550391
0.553682
0.55724
0.545478
0.543366
0.543246
0.666303
0.723704
0.74567
0.679216
2.16159
1.68017
1.0493
0.926678
0.849166
1.26225
1.12586
0.815356
0.155501
4.60067
4.19299
0.535806
0.656296
8.03529
5.29967
2.80804
2.86007
6.84188
1.73934
1.486
2.50327
1.04847
1.21273
1.54422
0.575054
0.585678
0.612646
0.59784
0.639864
0.677671
0.714969
0.813053
0.762916
0.849445
0.935607
0.629392
0.549256
0.540678
0.543283
0.567136
0.557398
0.535928
0.533807
0.535265
0.534022
0.524948
0.534293
0.630799
0.0549123
0.597431
0.604177
0.624255
0.640425
0.656378
0.588271
0.583929
0.577208
0.56931
0.567476
0.562688
0.560657
0.552458
0.550959
0.556224
0.559991
0.547205
0.545626
0.546508
0.714742
0.750841
0.681789
2.19066
1.93457
1.66594
1.0359
0.923209
0.84884
1.35527
1.20633
0.7963
0.770877
4.92078
4.18531
0.553777
0.523808
0.665014
7.90916
3.72282
3.0882
4.5433
1.99528
1.73113
3.07942
1.10916
1.32962
1.49779
1.81449
0.577693
0.588343
0.614396
0.600644
0.647478
0.676733
0.697539
0.737572
0.825908
0.78944
0.896858
0.991648
0.630317
0.549316
0.541216
0.546348
0.563511
0.573016
0.555571
0.560406
0.53932
0.536939
0.537928
0.537058
0.537852
0.537392
0.64009
0.202792
0.596557
0.608807
0.62061
0.633689
0.649832
0.66979
0.592369
0.58373
0.581117
0.575754
0.572464
0.57061
0.565659
0.561899
0.554041
0.552994
0.54939
0.557513
0.559851
0.546631
0.697829
0.728682
0.772273
2.85037
2.12901
1.51076
1.91904
1.11628
0.979387
0.884371
0.814633
1.31288
0.245792
2.59203
7.59752
1.22547
0.551771
0.553169
0.661792
5.67688
3.74097
5.11223
7.90492
2.53903
5.05347
1.09452
1.33823
1.72333
2.12911
0.583124
0.594094
0.62186
0.606825
0.638498
0.656659
0.667859
0.702725
0.748629
0.859545
0.778909
0.954132
0.907711
0.552608
0.544313
0.546688
0.566127
0.573098
0.557856
0.560662
0.54027
0.538289
0.538631
0.53885
0.540516
0.543177
0.612144
0.057699
0.600688
0.605191
0.61481
0.625872
0.634309
0.656149
0.668654
0.591961
0.588281
0.582705
0.5782
0.5721
0.567068
0.564858
0.55606
0.553952
0.550203
0.557696
0.561599
0.549503
0.694176
0.729318
0.76899
3.09074
2.49179
1.59801
2.08426
1.13822
0.992691
0.899882
0.814006
1.42469
0.0838549
3.02752
7.13017
1.9751
0.554864
0.56303
0.653982
8.68847
5.81017
7.78702
3.16837
7.79386
1.18693
1.47843
2.06811
1.70981
2.76071
0.582797
0.592004
0.62107
0.602985
0.637636
0.655634
0.677202
0.718053
0.688613
0.757261
0.831871
0.804492
1.01366
0.947496
0.552198
0.545057
0.549741
0.56971
0.563417
0.577825
0.558159
0.542857
0.541063
0.541331
0.542126
0.544149
0.550853
0.614896
0.0890333
0.595905
0.607711
0.614003
0.625551
0.642083
0.650584
0.678969
0.587064
0.583633
0.581449
0.577441
0.575193
0.569899
0.56497
0.556025
0.55401
0.552839
0.559793
0.563495
0.551544
0.707551
0.72367
0.752243
0.790789
4.06292
2.50768
1.80942
2.08478
1.24443
1.05569
0.946201
0.873886
0.844317
1.46611
0.048757
5.15042
8.96019
3.80808
0.562728
0.552859
0.571973
0.625217
8.2079
5.21164
1.1686
1.43296
2.56773
1.911
3.61149
0.5874
0.596829
0.613924
0.629053
0.607091
0.645848
0.664578
0.702946
0.736684
0.688467
0.785441
0.860758
0.813626
1.08692
1.00267
0.904179
0.55528
0.547977
0.550418
0.570752
0.564152
0.577331
0.561247
0.543558
0.543287
0.541835
0.542911
0.543806
0.544875
0.553787
0.561348
0.652281
0.241909
0.596947
0.605596
0.618803
0.632177
0.644391
0.65829
0.675083
0.589954
0.5875
0.582185
0.579661
0.57508
0.570423
0.56742
0.557544
0.55613
0.554172
0.56015
0.564342
0.55413
0.697829
0.738863
0.75707
0.795499
4.10347
6.00079
3.08872
1.83607
2.48332
1.19884
1.38112
1.03923
0.936602
0.889939
0.818389
1.68775
0.315421
4.42483
9.38108
3.83777
0.56573
0.558792
0.585529
0.668183
8.06596
1.30907
1.64666
2.78998
3.21485
2.26663
5.71807
0.588162
0.593671
0.614324
0.62771
0.601807
0.642017
0.663731
0.708551
0.742408
0.676404
0.771776
0.844103
1.12657
1.04732
0.931916
0.555568
0.548157
0.553251
0.567492
0.574078
0.580905
0.561986
0.546305
0.546022
0.544223
0.544918
0.547467
0.549203
0.553657
0.584145
0.594231
0.257919
0.596886
0.602312
0.610796
0.618722
0.629327
0.638445
0.65274
0.667968
0.686575
0.59352
0.586972
0.584533
0.579304
0.577251
0.573056
0.569257
0.56649
0.559202
0.556914
0.556851
0.562288
0.563788
0.557225
0.703304
0.731633
0.77514
6.11011
8.94596
3.07854
2.13616
2.48873
1.28528
1.10081
1.50577
0.974588
0.868378
0.808556
1.82083
0.607688
9.73027
7.68148
0.572301
0.560639
0.593018
0.73887
0.622718
1.37508
1.75677
3.58023
4.8926
2.41068
8.57905
0.584965
0.596082
0.609047
0.621025
0.634508
0.603169
0.648575
0.657143
0.696231
0.726995
0.743384
0.674165
0.789185
0.869947
1.22415
0.995435
0.920803
0.558491
0.550795
0.554236
0.567651
0.57442
0.578065
0.560637
0.565644
0.54675
0.545945
0.548678
0.549889
0.550409
0.558658
0.613518
0.565234
0.611101
0.656413
0.600993
0.604269
0.607913
0.615135
0.624449
0.632606
0.638661
0.656922
0.673879
0.683197
0.592214
0.589324
0.584681
0.581506
0.577576
0.572699
0.570547
0.567479
0.560315
0.5594
0.557311
0.559864
0.562159
0.565323
0.561094
0.715767
0.690593
0.743514
0.763055
8.35767
4.01969
2.19147
2.97321
1.43512
1.2295
1.05035
1.71358
0.9436
0.830938
0.893098
0.777671
2.09924
0.688345
9.53065
7.66895
0.571594
0.58309
0.567022
0.615888
0.655777
1.53298
1.72298
2.12469
3.1975
5.40357
0.587123
0.592142
0.609969
0.621069
0.634441
0.59947
0.641578
0.662201
0.700052
0.683546
0.72751
0.765877
0.816453
0.846005
1.21428
1.02673
0.960704
0.558994
0.55302
0.55065
0.557289
0.571459
0.579852
0.562842
0.567311
0.548774
0.548479
0.550868
0.553909
0.556335
0.559604
0.622134
0.572587
0.612022
1.2344
0.601095
0.608615
0.616789
0.621397
0.633202
0.643979
0.66575
0.650135
0.594519
0.587403
0.583563
0.579701
0.576064
0.574201
0.569535
0.566959
0.560395
0.561505
0.560307
0.56267
0.563543
0.565072
0.567617
0.711903
0.680529
0.727452
6.09655
3.62359
2.62789
3.04545
1.57161
1.32375
1.11015
0.976196
1.88234
0.809468
0.864704
0.766365
2.37394
3.95034
0.0164136
9.93765
6.62582
0.579976
0.592716
0.568557
0.758278
0.631192
1.55064
1.94671
2.40057
4.07708
8.35514
0.584103
0.594184
0.606217
0.615715
0.627786
0.601305
0.645041
0.656051
0.688391
0.713021
0.679509
0.744371
0.762824
0.825817
0.880992
1.10191
1.33899
0.931965
0.561343
0.554729
0.552715
0.558213
0.572091
0.57957
0.56508
0.570006
0.549211
0.550356
0.553213
0.556625
0.558563
0.603647
0.683439
0.580276
0.526503
0.653857
0.604643
0.597737
0.612412
0.623683
0.62821
0.63784
0.661958
0.65144
0.591786
0.587496
0.584854
0.579806
0.576258
0.573396
0.570533
0.568119
0.56287
0.563906
0.566938
0.563912
0.566358
0.571816
0.698942
0.668172
0.684652
0.729669
8.85209
4.56419
2.78968
3.80248
1.80838
1.48644
2.21014
0.783526
0.74681
5.57623
1.06057
15.2885
8.67238
0.581606
0.608822
0.571446
0.748218
0.659089
1.483
1.7999
2.24917
2.97671
3.97042
6.06969
0.585645
0.592563
0.607406
0.616185
0.627586
0.599902
0.641661
0.660963
0.688732
0.714128
0.670725
0.562202
0.554671
0.557108
0.552722
0.560727
0.57488
0.57713
0.582653
0.56499
0.570863
0.551614
0.552782
0.555479
0.554633
0.561314
0.564638
0.629486
0.660975
0.582196
0.611932
2.24128
0.603069
0.596871
0.610714
0.61811
0.623782
0.63246
0.646443
0.591919
0.589245
0.583653
0.581481
0.577715
0.574452
0.572014
0.569501
0.567267
0.564355
0.564173
0.56832
0.569948
0.572045
0.566512
0.567306
0.57454
0.700309
0.659854
0.674698
6.56963
3.40763
4.58949
2.08804
1.63505
2.49189
9.29281
0.954235
14.6924
0.590139
0.61775
0.906546
0.687433
0.647515
1.97467
2.52841
3.09535
6.00733
8.90198
0.588977
0.595935
0.611871
0.603002
0.621934
0.634329
0.648106
0.65603
0.677285
0.669352
0.562028
0.556527
0.558549
0.555053
0.561771
0.573486
0.577524
0.582576
0.566998
0.569501
0.553294
0.560159
0.557439
0.56473
0.563918
0.574219
0.624769
0.669246
0.603687
0.910271
2.82197
0.599214
0.605831
0.594095
0.613733
0.617865
0.626125
0.63481
0.640151
0.651686
0.589714
0.587057
0.584825
0.580287
0.57738
0.573815
0.571271
0.569869
0.568154
0.566957
0.567812
0.570856
0.578673
0.579304
0.568306
0.567683
0.5688
0.584991
0.663127
9.06005
3.05058
4.38594
6.71614
2.50238
2.16089
1.87679
10.2054
1.53859
17.4326
0.602388
0.589744
0.615471
0.905699
0.711998
0.672048
2.35017
3.90067
8.33472
0.588261
0.594676
0.613852
0.602052
0.622416
0.632425
0.64306
0.660008
0.564582
0.557693
0.558029
0.560511
0.555171
0.556919
0.563974
0.56139
0.574835
0.579935
0.585383
0.566536
0.5712
0.561288
0.558599
0.57304
0.570119
0.582302
0.659913
0.684816
0.617963
0.854414
5.50149
0.596848
0.603879
0.592322
0.610486
0.616767
0.625259
0.629123
0.639951
0.64519
0.589764
0.587537
0.583126
0.578855
0.581393
0.576437
0.575131
0.572311
0.569468
0.56913
0.56968
0.574613
0.584458
0.585194
0.57128
0.570034
0.570226
0.590206
0.656196
3.66788
6.12297
9.19968
3.09936
2.65494
19.3018
5.91753
0.803329
0.614177
0.608725
0.638677
0.913365
0.755353
0.667853
2.70448
5.96866
3.35769
0.591154
0.597666
0.610595
0.619239
0.605829
0.627799
0.636856
0.646867
0.559512
0.559465
0.561756
0.5568
0.558517
0.565212
0.563356
0.575246
0.580208
0.585491
0.568354
0.573655
0.570289
0.56563
0.561642
0.576888
0.574166
0.595623
0.660403
0.729216
0.613832
1.19591
3.05775
0.598088
0.593634
0.600622
0.606518
0.612249
0.620501
0.629215
0.63458
0.641421
0.588128
0.585642
0.583723
0.578389
0.580593
0.577063
0.57503
0.572687
0.570945
0.573797
0.574732
0.581394
0.584345
0.594339
0.595075
0.572399
0.575316
0.571459
0.571227
0.602544
5.38461
3.85591
3.28358
19.8251
9.52374
1.27218
0.636895
0.620318
0.968469
0.748257
0.699951
8.66983
4.10374
0.59061
0.596708
0.612821
0.621877
0.603588
0.62642
0.630471
0.560987
0.56114
0.563333
0.56123
0.564765
0.567044
0.578022
0.582895
0.58813
0.568307
0.574496
0.571581
0.57082
0.566697
0.564806
0.562464
0.588424
0.584626
0.601369
0.688156
0.771761
0.638168
0.900582
5.47883
0.595985
0.592401
0.599304
0.60432
0.610112
0.61706
0.623014
0.634448
0.588784
0.586028
0.582824
0.579406
0.581516
0.577506
0.574252
0.576513
0.572683
0.572349
0.577197
0.590759
0.59523
0.599258
0.602162
0.607234
0.575301
0.580877
0.574409
0.573843
0.617132
8.52884
5.97384
15.8545
21.5095
2.84334
0.851473
0.654983
0.648896
0.955658
0.809077
0.694577
6.118
0.593503
0.599754
0.609419
0.6176
0.605533
0.628538
0.56267
0.562381
0.564843
0.563111
0.56585
0.567359
0.577963
0.582377
0.588995
0.570093
0.576583
0.573401
0.57691
0.574391
0.568347
0.566538
0.594073
0.59165
0.621531
0.675518
0.736296
0.638739
0.951856
0.525293
0.596571
0.593828
0.590368
0.600963
0.606187
0.61249
0.618434
0.621918
0.587268
0.585132
0.583713
0.579686
0.581505
0.577473
0.579073
0.575317
0.57735
0.574402
0.573824
0.58371
0.591974
0.600166
0.614891
0.618324
0.621384
0.580607
0.582971
0.586604
0.576116
0.575046
0.637895
8.57701
16.3693
22.3892
6.38409
0.958756
0.666526
1.02265
0.821965
0.724361
0.592023
0.59719
0.608152
0.616758
0.60337
0.565986
0.564353
0.565424
0.566433
0.566144
0.568982
0.580205
0.584463
0.587042
0.570593
0.577274
0.57458
0.586743
0.57789
0.57365
0.569482
0.612133
0.604264
0.629123
0.70144
0.79777
0.670325
0.955918
4.61312
0.595084
0.592181
0.589417
0.599381
0.604245
0.611968
0.614776
0.587108
0.585982
0.583496
0.580833
0.582574
0.578699
0.579667
0.576905
0.579154
0.575484
0.588221
0.600594
0.613184
0.627593
0.625527
0.629701
0.630641
0.638634
0.586172
0.592844
0.593757
0.579529
0.579103
0.657197
24.5999
19.374
0.925728
0.944199
0.693685
0.993677
0.769958
0.719084
0.593882
0.597907
0.604788
0.61147
0.600657
0.566427
0.568368
0.568014
0.568299
0.568896
0.568764
0.569385
0.570324
0.579418
0.583538
0.587626
0.572778
0.576699
0.574487
0.596951
0.58665
0.57795
0.575483
0.618287
0.615354
0.658936
0.745805
0.788056
0.685435
0.948335
4.41838
0.596434
0.592786
0.590399
0.588117
0.601023
0.606017
0.608775
0.61048
0.586287
0.585265
0.584295
0.581607
0.582548
0.580037
0.581054
0.5789
0.581479
0.578004
0.598029
0.61449
0.62871
0.622672
0.648734
0.644983
0.649937
0.652679
0.659649
0.593523
0.585297
0.597508
0.601775
0.58135
0.581079
0.683049
23.8057
22.4108
4.41019
0.938349
0.710323
1.05042
0.809773
0.777871
0.591484
0.594896
0.602182
0.599431
0.568749
0.571908
0.569417
0.569084
0.569116
0.573938
0.574118
0.570949
0.571951
0.580594
0.58223
0.584775
0.586172
0.589609
0.573762
0.572937
0.578035
0.576255
0.612721
0.597073
0.591046
0.585013
0.580189
0.636299
0.634702
0.671045
0.762494
0.89029
0.732973
0.30327
1.22139
11.807
0.595409
0.59121
0.589062
0.587105
0.599421
0.60274
0.607326
0.58553
0.586248
0.583806
0.582682
0.581878
0.58358
0.582851
0.583184
0.581559
0.580064
0.584627
0.604881
0.629079
0.623072
0.649547
0.648555
0.6692
0.662221
0.670642
0.658562
0.671827
0.685667
0.601702
0.590684
0.608176
0.614363
0.587527
0.58582
32.6076
15.9369
1.04389
0.931379
0.745304
0.85707
1.33904
0.789682
0.59143
0.592997
0.594531
0.603694
0.59723
0.570251
0.572471
0.576872
0.571889
0.572048
0.571355
0.578716
0.577812
0.571897
0.571965
0.57955
0.582241
0.583478
0.586398
0.587986
0.574654
0.573945
0.577378
0.575687
0.628811
0.614446
0.602126
0.591912
0.589772
0.652339
0.64948
0.705126
0.81277
0.904436
0.755607
1.51968
1.36507
12.6917
0.593362
0.597095
0.59169
0.589469
0.587695
0.600548
0.601312
0.584925
0.585518
0.583894
0.584458
0.583919
0.583868
0.584645
0.584063
0.584897
0.584979
0.584718
0.584247
0.588917
0.623164
0.652141
0.652174
0.671849
0.663054
0.689073
0.684745
0.690661
0.684116
0.695421
0.71288
0.614491
0.603294
0.597864
0.617058
0.618495
0.620381
0.630234
0.592619
0.587325
0.592985
32.427
21.972
3.81958
0.631351
0.769245
0.927559
1.27137
0.838798
0.589582
0.590816
0.592722
0.598121
0.572989
0.577432
0.581797
0.573444
0.57383
0.58643
0.583973
0.572989
0.57336
0.579929
0.581111
0.583625
0.585116
0.588038
0.574621
0.57802
0.576367
0.647831
0.631267
0.617742
0.605842
0.59438
0.67611
0.672361
0.708632
0.741192
0.853431
1.02653
0.809033
2.92375
1.309
25.0733
0.592941
0.595775
0.590249
0.588552
0.586919
0.597899
0.584784
0.585571
0.584648
0.585035
0.58631
0.585946
0.585867
0.587545
0.587641
0.587734
0.588569
0.58669
0.59407
0.661823
0.675809
0.698624
0.689
0.716248
0.711223
0.710494
0.699658
0.723237
0.757159
0.626395
0.6218
0.602454
0.636105
0.635966
0.641202
0.643762
0.592714
0.600658
36.6611
14.72
1.76313
0.83219
0.995576
0.889293
1.60153
0.589255
0.590532
0.593635
0.596404
0.578127
0.581504
0.590007
0.576307
0.578375
0.588862
0.591185
0.574574
0.57546
0.579135
0.580456
0.582428
0.585126
0.586391
0.575231
0.576332
0.577814
0.577698
0.576896
0.671688
0.656645
0.636207
0.618056
0.60412
0.688518
0.740035
0.779823
0.999336
0.856691
6.14431
1.34026
26.2826
0.594357
0.591966
0.596402
0.589937
0.589114
0.58762
0.586286
0.585305
0.585407
0.586077
0.585531
0.589216
0.589207
0.588574
0.58983
0.594846
0.594597
0.592463
0.60107
0.679152
0.682452
0.69439
0.729037
0.706464
0.710855
0.729579
0.748269
0.743494
0.733202
0.72416
0.744039
0.792989
0.649434
0.631864
0.613356
0.651527
0.653899
0.655804
0.663009
0.599555
0.595922
0.611267
37.3752
21.7658
1.11206
4.22107
0.874789
1.16417
0.947147
1.5242
0.587659
0.589201
0.592696
0.581681
0.589283
0.595712
0.580518
0.577444
0.58154
0.581599
0.600507
0.604031
0.576672
0.579355
0.581142
0.582011
0.582972
0.583869
0.586267
0.577215
0.577808
0.578861
0.57891
0.578612
0.677856
0.666643
0.635832
0.656258
0.622927
0.608538
0.620073
0.720715
0.747349
0.773955
0.826998
1.0779
0.958325
0.385154
21.0175
1.40399
0.593625
0.590913
0.592527
0.59438
0.588829
0.58857
0.587953
0.58652
0.586076
0.58603
0.586065
0.587915
0.588047
0.595813
0.594572
0.590916
0.59708
0.602891
0.600612
0.612311
0.706654
0.718138
0.73756
0.763773
0.743042
0.743035
0.776925
0.794927
0.77869
0.775765
0.806098
0.849858
0.666236
0.652488
0.627965
0.617792
0.679817
0.676798
0.677913
0.684501
0.608997
0.607647
0.621162
38.0702
18.3367
0.915935
5.97336
0.927327
0.877167
1.57831
1.03675
1.3026
0.587548
0.590452
0.588287
0.593013
0.60807
0.586396
0.581723
0.589055
0.588741
0.616205
0.579173
0.579486
0.58065
0.58232
0.583784
0.584928
0.579428
0.57992
0.579371
0.579851
0.579593
0.580664
0.708409
0.699983
0.649345
0.684196
0.642978
0.627936
0.635602
0.742937
0.794144
0.82047
0.86484
1.33012
1.07886
3.49909
25.3299
1.34257
0.589994
0.591011
0.589101
0.588175
0.587517
0.587226
0.586492
0.589071
0.586902
0.587038
0.590456
0.589642
0.600381
0.598194
0.602096
0.595859
0.603393
0.603461
0.614
0.611416
0.618266
0.619592
0.745038
0.72682
0.751946
0.754567
0.772877
0.806366
0.763767
0.780581
0.807141
0.796602
0.8353
0.827895
0.815367
0.833155
0.874211
0.662811
0.697381
0.670358
0.649071
0.633381
0.705802
0.699487
0.69873
0.709152
0.617969
0.6149
0.637604
42.2337
37.9976
1.52832
11.9575
0.97717
0.951162
1.58548
1.1612
1.23442
0.58642
0.589619
0.593909
0.605671
0.619274
0.615739
0.587043
0.59271
0.584878
0.592958
0.594439
0.634426