/*--------------------------------*- C++ -*----------------------------------*\
| =========                 |                                                 |
| \\      /  F ield         | OpenFOAM: The Open Source CFD Toolbox           |
|  \\    /   O peration     | Version:  v2012                                 |
|   \\  /    A nd           | Website:  www.openfoam.com                      |
|    \\/     M anipulation  |                                                 |
\*---------------------------------------------------------------------------*/
FoamFile
{
    version     2.0;
    format      ascii;
    class       volVectorField;
    location    "0.14";
    object      cellDisplacement;
}
// * * * * * * * * * * * * * * * * * * * * * * * * * * * * * * * * * * * * * //

dimensions      [0 1 0 0 0 0 0];


internalField   nonuniform List<vector> 
11961
(
(1.45795e-06 1.10677e-05 0)
(3.82337e-06 2.86628e-05 0)
(2.8839e-06 2.23572e-05 0)
(2.7689e-06 2.00589e-05 0)
(6.85602e-06 5.20696e-05 0)
(1.38625e-06 1.08569e-05 0)
(5.60355e-06 4.34316e-05 0)
(7.24884e-06 5.21501e-05 0)
(1.04328e-05 7.89419e-05 0)
(2.27259e-06 1.82346e-05 0)
(7.22203e-06 5.68485e-05 0)
(1.19804e-05 8.8581e-05 0)
(8.37098e-06 5.8813e-05 0)
(1.25654e-05 9.75394e-05 0)
(4.48331e-06 3.61376e-05 0)
(9.15025e-07 7.37143e-06 0)
(6.57594e-06 5.26067e-05 0)
(1.05416e-05 8.29836e-05 0)
(1.74543e-05 0.000129217 0)
(1.60563e-05 0.000112765 0)
(3.79538e-06 2.58857e-05 0)
(1.67522e-05 0.000130968 0)
(4.44544e-06 3.64364e-05 0)
(1.49071e-06 1.22118e-05 0)
(8.80061e-06 7.18417e-05 0)
(1.1275e-05 9.1454e-05 0)
(2.03098e-05 0.000146152 0)
(2.00657e-05 0.000153191 0)
(1.82365e-05 0.000124004 0)
(1.03561e-05 6.90968e-05 0)
(1.74931e-05 0.000141581 0)
(5.92382e-06 4.92573e-05 0)
(2.94681e-06 2.42179e-05 0)
(5.80705e-07 4.77025e-06 0)
(8.087e-06 6.71879e-05 0)
(1.40028e-05 0.000115281 0)
(2.81481e-05 0.000203087 0)
(2.60827e-05 0.000201038 0)
(2.65056e-05 0.000178986 0)
(9.82526e-06 6.35114e-05 0)
(2.15266e-05 0.000176772 0)
(5.42945e-06 4.59131e-05 0)
(2.98431e-06 2.49272e-05 0)
(1.03608e-06 8.61029e-06 0)
(9.13946e-06 7.79142e-05 0)
(1.38707e-05 0.000118683 0)
(3.23797e-05 0.000225661 0)
(3.1199e-05 0.00023345 0)
(2.66495e-05 0.000213636 0)
(2.91072e-05 0.000189096 0)
(2.08492e-05 0.000131604 0)
(3.42466e-06 2.18103e-05 0)
(2.11545e-05 0.000180771 0)
(4.01632e-06 3.39482e-05 0)
(6.34496e-06 5.47309e-05 0)
(2.085e-06 1.74082e-05 0)
(7.70654e-07 6.4094e-06 0)
(1.12974e-05 9.75997e-05 0)
(7.85333e-06 6.78646e-05 0)
(1.68004e-05 0.000146663 0)
(4.30896e-05 0.00030014 0)
(3.95552e-05 0.000299409 0)
(3.25402e-05 0.000266462 0)
(3.91026e-05 0.000252146 0)
(2.35516e-05 0.000142891 0)
(4.42051e-06 2.61532e-05 0)
(2.46921e-05 0.000215423 0)
(3.6999e-06 3.19383e-05 0)
(5.75972e-06 5.07823e-05 0)
(1.96255e-06 1.66657e-05 0)
(2.65562e-07 2.20798e-06 0)
(1.28054e-06 1.07905e-05 0)
(1.0251e-05 9.24472e-05 0)
(8.34114e-06 7.44555e-05 0)
(1.64558e-05 0.000149852 0)
(4.72918e-05 0.000315121 0)
(4.73126e-05 0.000344437 0)
(3.99557e-05 0.000318419 0)
(3.04917e-05 0.000261131 0)
(4.32399e-05 0.000267806 0)
(3.62073e-05 0.00021658 0)
(1.35676e-05 7.93903e-05 0)
(2.34679e-05 0.00021481 0)
(2.53133e-06 2.17806e-05 0)
(4.47997e-06 3.94327e-05 0)
(6.88244e-06 6.2278e-05 0)
(3.88741e-07 3.27576e-06 0)
(8.61587e-07 7.29963e-06 0)
(1.10593e-05 0.000103363 0)
(1.95699e-05 0.000182474 0)
(1.37393e-05 0.000128795 0)
(5.8124e-05 0.000381437 0)
(6.00406e-05 0.00044263 0)
(4.71017e-05 0.0003826 0)
(3.32493e-05 0.000297207 0)
(5.56591e-05 0.000345119 0)
(4.2099e-05 0.000240553 0)
(1.62767e-05 9.15779e-05 0)
(2.72524e-05 0.000255003 0)
(2.19742e-06 1.93055e-05 0)
(3.97508e-06 3.59372e-05 0)
(6.32141e-06 5.91915e-05 0)
(1.03343e-07 8.65457e-07 0)
(7.6938e-07 6.58303e-06 0)
(9.15062e-06 8.98697e-05 0)
(1.77831e-05 0.000175468 0)
(1.43351e-05 0.000141342 0)
(6.80011e-05 0.000454282 0)
(5.83346e-05 0.000456347 0)
(7.0749e-05 0.000499571 0)
(4.64309e-05 0.000397376 0)
(3.93096e-05 0.000352489 0)
(6.47094e-05 0.000386952 0)
(3.18327e-05 0.000176405 0)
(5.82463e-05 0.000329949 0)
(6.85982e-06 3.71339e-05 0)
(2.64491e-05 0.000259961 0)
(2.81539e-06 2.53368e-05 0)
(1.43148e-06 1.25383e-05 0)
(4.67083e-06 4.35142e-05 0)
(7.11623e-06 6.94268e-05 0)
(8.55537e-08 7.23331e-07 0)
(9.87965e-07 8.57363e-06 0)
(3.27882e-07 2.78652e-06 0)
(9.71677e-06 0.00010126 0)
(1.87844e-05 0.000195762 0)
(1.23194e-05 0.000127997 0)
(8.05988e-05 0.000515785 0)
(6.48346e-05 0.000527988 0)
(8.67634e-05 0.000614595 0)
(5.5004e-05 0.000474453 0)
(3.97092e-05 0.000381197 0)
(7.96559e-05 0.000480156 0)
(3.25635e-05 0.000170679 0)
(6.78608e-05 0.000368534 0)
(1.58989e-05 8.24556e-05 0)
(2.2177e-05 0.000229735 0)
(2.88454e-05 0.000293232 0)
(2.24533e-06 2.07944e-05 0)
(8.95844e-07 8.05267e-06 0)
(3.94154e-06 3.79626e-05 0)
(5.74456e-06 5.86608e-05 0)
(4.75846e-07 4.15094e-06 0)
(1.78996e-07 1.53848e-06 0)
(8.16747e-06 9.11085e-05 0)
(1.54364e-05 0.000171535 0)
(1.26226e-05 0.000139368 0)
(9.28187e-05 0.000607915 0)
(7.53144e-05 0.00061498 0)
(9.54483e-05 0.000704706 0)
(5.58074e-05 0.00051096 0)
(4.71967e-05 0.000457712 0)
(3.33439e-05 0.000339061 0)
(9.47375e-05 0.000544153 0)
(4.58045e-05 0.000232797 0)
(8.80645e-05 0.000478558 0)
(6.21987e-05 0.000321329 0)
(9.47913e-06 4.65213e-05 0)
(2.35582e-05 0.000255348 0)
(1.13412e-06 1.04166e-05 0)
(2.69067e-06 2.57077e-05 0)
(2.99592e-07 2.65982e-06 0)
(4.31478e-06 4.33008e-05 0)
(5.51386e-06 6.0153e-05 0)
(6.38912e-06 7.25663e-05 0)
(8.54607e-06 0.000104043 0)
(1.41797e-05 0.000172987 0)
(1.04791e-05 0.00012576 0)
(0.000111563 0.000704698 0)
(8.82334e-05 0.000695469 0)
(7.4689e-05 0.000654814 0)
(0.000119218 0.000851181 0)
(6.51243e-05 0.000601731 0)
(4.67296e-05 0.000491701 0)
(3.28585e-05 0.000363181 0)
(0.000114133 0.000664485 0)
(4.20747e-05 0.000200121 0)
(9.68002e-05 0.000496238 0)
(7.82099e-05 0.000388712 0)
(2.1926e-05 0.00010299 0)
(2.25821e-05 0.000262862 0)
(5.16091e-07 4.89227e-06 0)
(2.02193e-06 2.0036e-05 0)
(3.40794e-06 3.53809e-05 0)
(4.0371e-06 4.55565e-05 0)
(5.24107e-06 6.6126e-05 0)
(6.74009e-06 9.13482e-05 0)
(1.09071e-05 0.000140741 0)
(1.51423e-05 0.000195227 0)
(0.00012725 0.000830847 0)
(9.90863e-05 0.000835339 0)
(8.63674e-05 0.000774741 0)
(0.000132653 0.00100028 0)
(6.61739e-05 0.000662873 0)
(3.8428e-05 0.000431264 0)
(5.53565e-05 0.000594228 0)
(2.67795e-05 0.000317283 0)
(0.000138002 0.000760192 0)
(5.82297e-05 0.000267722 0)
(0.000114518 0.000572007 0)
(7.71422e-05 0.000364891 0)
(1.2831e-05 5.64776e-05 0)
(1.84132e-05 0.000232253 0)
(9.97703e-07 9.81653e-06 0)
(2.37017e-06 2.44242e-05 0)
(3.30404e-06 3.61262e-05 0)
(3.51612e-06 4.30384e-05 0)
(3.97649e-06 5.15479e-05 0)
(5.35399e-06 7.33431e-05 0)
(6.16439e-06 9.54371e-05 0)
(9.17672e-06 0.000134336 0)
(1.21223e-05 0.000177837 0)
(0.000152612 0.000953825 0)
(0.00011781 0.000984647 0)
(8.04633e-05 0.000796826 0)
(0.000160254 0.00116518 0)
(3.57946e-05 0.000447261 0)
(5.14952e-05 0.000617216 0)
(2.50476e-05 0.000330045 0)
(0.00013609 0.000694443 0)
(0.000160502 0.000910649 0)
(6.06301e-05 0.000263618 0)
(0.000114716 0.000529581 0)
(9.52276e-05 0.000431885 0)
(2.38593e-05 9.98541e-05 0)
(1.72683e-05 0.00024681 0)
(4.60532e-07 4.7673e-06 0)
(1.79056e-06 1.93897e-05 0)
(2.28381e-06 2.57792e-05 0)
(2.4656e-06 3.13925e-05 0)
(3.20155e-06 4.6915e-05 0)
(4.11558e-06 6.49264e-05 0)
(4.49166e-06 8.10635e-05 0)
(7.00663e-06 0.000112192 0)
(9.62144e-06 0.000150871 0)
(1.14314e-05 0.0001891 0)
(0.000171111 0.00112019 0)
(0.000127088 0.00115971 0)
(8.55644e-05 0.000905357 0)
(0.000175975 0.001366 0)
(4.01322e-05 0.000519162 0)
(2.83599e-05 0.000384845 0)
(5.65488e-05 0.000714092 0)
(1.98422e-05 0.000286946 0)
(0.00015674 0.000744379 0)
(0.000188043 0.00102142 0)
(4.54693e-05 0.000190159 0)
(8.62287e-05 0.00036931 0)
(0.000137301 0.000613046 0)
(1.08966e-05 4.27351e-05 0)
(1.32185e-05 0.000216377 0)
(9.15398e-07 9.97536e-06 0)
(1.93448e-06 2.3399e-05 0)
(2.11174e-06 2.97332e-05 0)
(2.43484e-06 3.68521e-05 0)
(3.24101e-06 5.25894e-05 0)
(3.77142e-06 6.83725e-05 0)
(3.71308e-06 8.22758e-05 0)
(5.51462e-06 0.00010838 0)
(7.86895e-06 0.000147474 0)
(8.57397e-06 0.000167556 0)
(0.000201526 0.00125963 0)
(0.000156586 0.00138228 0)
(0.00010694 0.00109918 0)
(7.04688e-05 0.000845418 0)
(0.000210345 0.00154609 0)
(3.45263e-05 0.000513202 0)
(2.42104e-05 0.000383882 0)
(4.62399e-05 0.000676346 0)
(1.71153e-05 0.000288428 0)
(0.000187319 0.000875361 0)
(0.000203028 0.00100949 0)
(0.000208112 0.00118749 0)
(5.18188e-05 0.000202945 0)
(9.51751e-05 0.00038476 0)
(0.000144697 0.000601421 0)
(2.84863e-05 0.000107685 0)
(1.17311e-05 0.000224344 0)
(4.35126e-07 5.25193e-06 0)
(9.65951e-07 1.23593e-05 0)
(1.40883e-06 2.1441e-05 0)
(1.86513e-06 3.3175e-05 0)
(2.42126e-06 4.75633e-05 0)
(2.75519e-06 6.11973e-05 0)
(4.08374e-06 9.2809e-05 0)
(2.38523e-06 7.16295e-05 0)
(5.1835e-06 0.000116597 0)
(5.95757e-06 0.00013158 0)
(6.84383e-06 0.000168703 0)
(0.000223479 0.00146469 0)
(0.000169374 0.00162434 0)
(0.000105501 0.00123744 0)
(7.12265e-05 0.000942791 0)
(0.000230371 0.00179287 0)
(2.63223e-05 0.000436744 0)
(3.67486e-05 0.000576824 0)
(1.85942e-05 0.000328975 0)
(4.68312e-05 0.000754463 0)
(1.34504e-05 0.000254995 0)
(0.000201656 0.000849091 0)
(0.000240334 0.00117626 0)
(0.000240988 0.00129805 0)
(7.33017e-05 0.000282026 0)
(0.000121621 0.000482317 0)
(0.000175005 0.000702472 0)
(2.88196e-05 0.000102821 0)
(8.88837e-06 0.000207688 0)
(8.39645e-07 1.19554e-05 0)
(1.34551e-06 2.38422e-05 0)
(1.83268e-06 3.76573e-05 0)
(2.22544e-06 5.16724e-05 0)
(2.13633e-06 6.27014e-05 0)
(3.02411e-06 9.32974e-05 0)
(1.68505e-06 7.40635e-05 0)
(3.39479e-06 0.00010496 0)
(4.49391e-06 0.000135037 0)
(4.75344e-06 0.000150164 0)
(6.93826e-06 0.000185974 0)
(0.000260588 0.00160487 0)
(0.000148629 0.00162348 0)
(0.000210113 0.00186794 0)
(0.000121134 0.00144081 0)
(8.37811e-05 0.00110025 0)
(5.71209e-05 0.000872164 0)
(0.000273723 0.00197508 0)
(2.14644e-05 0.000432416 0)
(2.9678e-05 0.000554789 0)
(1.48079e-05 0.000319905 0)
(3.6368e-05 0.000700759 0)
(1.06866e-05 0.00025398 0)
(0.00023517 0.000948447 0)
(0.000272635 0.00123938 0)
(0.000269005 0.00148605 0)
(8.00472e-05 0.000288736 0)
(0.000127492 0.000470541 0)
(0.000180572 0.000663186 0)
(1.01719e-05 3.54614e-05 0)
(5.58713e-05 0.000192605 0)
(8.11327e-06 0.000225038 0)
(3.13632e-07 4.97728e-06 0)
(8.94634e-07 1.95111e-05 0)
(1.2781e-06 3.42178e-05 0)
(1.46371e-06 4.83861e-05 0)
(1.2839e-06 5.52209e-05 0)
(2.00276e-06 8.45645e-05 0)
(7.13979e-07 7.03141e-05 0)
(2.47877e-06 0.000109297 0)
(2.87989e-06 0.000122529 0)
(2.96747e-06 0.000152022 0)
(4.329e-06 0.000184007 0)
(0.000288535 0.00184542 0)
(0.000156278 0.00186624 0)
(0.000229679 0.00216084 0)
(0.000110272 0.00154233 0)
(7.37402e-05 0.00113594 0)
(5.73651e-05 0.00097075 0)
(0.000301618 0.00229454 0)
(2.29228e-05 0.000483314 0)
(1.54184e-05 0.000381717 0)
(2.94826e-05 0.000604301 0)
(1.35443e-05 0.000340141 0)
(1.09716e-05 0.000277329 0)
(3.28463e-05 0.000744474 0)
(0.000268703 0.00111873 0)
(0.000244232 0.000886721 0)
(0.0003115 0.00145047 0)
(0.000304516 0.00157247 0)
(0.000105224 0.000371407 0)
(0.000153699 0.000546807 0)
(0.000214763 0.000748184 0)
(1.12022e-05 3.47493e-05 0)
(6.08068e-05 0.000196021 0)
(5.81957e-06 0.000219692 0)
(4.86194e-07 1.00431e-05 0)
(8.6852e-07 2.4861e-05 0)
(1.09179e-06 3.98379e-05 0)
(4.90995e-07 5.54177e-05 0)
(9.95518e-07 8.58014e-05 0)
(1.53337e-07 6.29148e-05 0)
(2.52426e-07 7.71387e-05 0)
(1.19874e-06 0.000102163 0)
(1.52814e-06 0.000126645 0)
(1.46393e-06 0.000139098 0)
(2.61546e-06 0.0001676 0)
(3.98317e-06 0.000198024 0)
(0.00033433 0.00197358 0)
(0.000179904 0.00213048 0)
(0.000128519 0.00177889 0)
(0.000276125 0.00239037 0)
(0.00021188 0.00226523 0)
(9.01271e-05 0.0014394 0)
(7.57305e-05 0.00125189 0)
(4.70517e-05 0.000951749 0)
(0.00035886 0.0024968 0)
(1.7439e-05 0.000476544 0)
(1.14233e-05 0.000388001 0)
(2.28566e-05 0.00057727 0)
(9.20652e-06 0.000313788 0)
(8.35973e-06 0.000279101 0)
(3.63833e-05 0.000838521 0)
(2.35045e-05 0.000674226 0)
(0.000303552 0.00115415 0)
(0.000281289 0.000983941 0)
(0.000356172 0.00157383 0)
(0.000338911 0.00180124 0)
(0.000114518 0.000377457 0)
(0.000146677 0.000480719 0)
(0.00021276 0.000673319 0)
(3.12773e-05 9.56747e-05 0)
(9.12218e-05 0.000286946 0)
(4.67788e-06 0.000229315 0)
(1.87494e-07 5.22454e-06 0)
(5.31032e-07 2.30922e-05 0)
(5.6725e-07 3.68867e-05 0)
(-8.80869e-08 4.77597e-05 0)
(6.62946e-07 9.21898e-05 0)
(-9.80541e-07 6.53122e-05 0)
(-6.63952e-07 7.85938e-05 0)
(1.59066e-07 0.000107741 0)
(1.79267e-07 0.000117783 0)
(-3.79639e-07 0.000143715 0)
(5.31507e-07 0.000168983 0)
(1.81412e-06 0.000205145 0)
(0.000373766 0.00226925 0)
(0.00016089 0.00227542 0)
(0.000127908 0.00198509 0)
(0.000293798 0.00276792 0)
(0.000245609 0.00269118 0)
(7.83884e-05 0.00152976 0)
(5.89613e-05 0.00120991 0)
(4.71393e-05 0.00106574 0)
(0.000396639 0.0029184 0)
(1.23889e-05 0.000429555 0)
(1.77576e-05 0.00051738 0)
(7.12976e-06 0.000362904 0)
(2.05666e-05 0.000606309 0)
(6.01655e-06 0.000312239 0)
(5.32746e-06 0.000264132 0)
(2.7433e-05 0.000842166 0)
(1.81521e-05 0.000693585 0)
(0.000346724 0.00128646 0)
(0.000311106 0.000998591 0)
(0.000377113 0.00149214 0)
(0.000379991 0.00183355 0)
(0.000169383 0.000526354 0)
(0.000243085 0.000715776 0)
(3.60466e-05 0.000104105 0)
(9.52982e-05 0.000278661 0)
(2.33161e-06 0.000219966 0)
(4.29532e-06 0.000244861 0)
(1.6818e-07 9.43355e-06 0)
(3.94838e-07 2.89943e-05 0)
(2.48692e-07 1.69274e-05 0)
(8.53418e-08 4.01643e-05 0)
(-9.53555e-07 5.01952e-05 0)
(-6.71457e-07 9.34635e-05 0)
(-1.48518e-06 5.92153e-05 0)
(-1.39722e-06 7.32797e-05 0)
(-1.21989e-06 8.69067e-05 0)
(-1.04655e-06 0.000101885 0)
(-1.12818e-06 0.000123236 0)
(-8.16454e-07 0.00015583 0)
(-1.49747e-06 0.000134419 0)
(-7.21002e-07 0.000182187 0)
(-3.38004e-07 0.000198086 0)
(0.00042386 0.00231909 0)
(0.000173714 0.00259743 0)
(0.000106681 0.0019541 0)
(0.000348922 0.00310935 0)
(0.000226531 0.00290985 0)
(8.37721e-05 0.00171387 0)
(5.85926e-05 0.00134161 0)
(3.48067e-05 0.00103314 0)
(0.000461785 0.00308075 0)
(8.01573e-06 0.00043315 0)
(1.29953e-05 0.000522053 0)
(5.10134e-06 0.000332518 0)
(3.74857e-06 0.00037759 0)
(1.42534e-05 0.000570913 0)
(3.41962e-06 0.000283049 0)
(1.93571e-05 0.000761982 0)
(2.68644e-05 0.000917447 0)
(1.13014e-05 0.000643121 0)
(0.000361024 0.00117305 0)
(0.000293465 0.000864077 0)
(0.00043564 0.00162955 0)
(0.000420424 0.00203316 0)
(0.000158556 0.000456175 0)
(0.000225343 0.000608568 0)
(6.56651e-05 0.000185853 0)
(1.36495e-05 3.77945e-05 0)
(0.000122803 0.0003453 0)
(1.53898e-06 0.000238282 0)
(1.52628e-08 4.28985e-06 0)
(-2.6348e-08 2.76856e-05 0)
(-3.27771e-08 2.06058e-05 0)
(-2.99154e-07 3.39524e-05 0)
(-1.27527e-06 4.44318e-05 0)
(-2.54829e-06 6.32563e-05 0)
(-2.47815e-06 8.00561e-05 0)
(-2.45076e-06 8.89668e-05 0)
(-2.29036e-06 0.00010896 0)
(-2.33175e-06 0.000118423 0)
(-2.79314e-06 0.000164643 0)
(-3.30496e-06 0.000138889 0)
(-2.92425e-06 0.000179075 0)
(-2.93688e-06 0.000216414 0)
(0.000473915 0.00254996 0)
(0.00014595 0.00267271 0)
(0.000102051 0.00216196 0)
(0.000362291 0.00357864 0)
(0.000244768 0.00334151 0)
(6.71457e-05 0.00176209 0)
(4.48092e-05 0.0013387 0)
(3.0404e-05 0.00110002 0)
(0.000510505 0.00352549 0)
(0.000491795 0.00284206 0)
(6.929e-06 0.000460584 0)
(4.10898e-06 0.000402699 0)
(8.64479e-06 0.000494178 0)
(5.03697e-07 0.000334944 0)
(-3.31271e-07 0.000360849 0)
(1.03062e-05 0.000587581 0)
(2.85787e-08 0.000285692 0)
(1.16734e-05 0.000777155 0)
(1.82654e-05 0.000909075 0)
(5.9962e-06 0.000660647 0)
(0.000413681 0.00126014 0)
(0.000322445 0.00084173 0)
(0.000473731 0.00188002 0)
(0.000456702 0.0014944 0)
(0.000464942 0.00205637 0)
(0.00018475 0.00049632 0)
(0.000248061 0.000617028 0)
(6.18638e-05 0.00016336 0)
(3.10326e-05 8.13466e-05 0)
(0.000115065 0.000301739 0)
(-7.53801e-07 0.000245245 0)
(-1.30479e-07 8.82863e-06 0)
(-2.83298e-07 1.76374e-05 0)
(-7.99614e-07 3.556e-05 0)
(-2.12285e-06 4.79065e-05 0)
(-3.54681e-06 7.32608e-05 0)
(-2.8027e-06 5.68286e-05 0)
(-3.56405e-06 8.05252e-05 0)
(-3.56006e-06 9.85924e-05 0)
(-3.55321e-06 0.000107727 0)
(-3.65838e-06 0.000128319 0)
(-4.32711e-06 0.000161436 0)
(-4.4545e-06 0.000149114 0)
(-5.0848e-06 0.000193865 0)
(-5.36977e-06 0.000211506 0)
(-3.14816e-06 0.000234796 0)
(0.000508682 0.00236165 0)
(0.000114385 0.00242564 0)
(0.000150534 0.00307739 0)
(7.56007e-05 0.00200661 0)
(0.000300703 0.00364972 0)
(0.000433889 0.00395573 0)
(0.000189596 0.00343254 0)
(5.04462e-05 0.00163488 0)
(3.33491e-05 0.00120729 0)
(4.24005e-05 0.00146538 0)
(1.89066e-05 0.00104547 0)
(0.000587358 0.00344905 0)
(0.000504341 0.00390128 0)
(0.000565068 0.00303759 0)
(1.60558e-06 0.000454965 0)
(2.38809e-07 0.000425232 0)
(3.83139e-06 0.000518842 0)
(-1.90163e-06 0.000312916 0)
(-4.27749e-06 0.000383297 0)
(4.27913e-06 0.000558046 0)
(-1.82162e-06 0.000266706 0)
(1.16013e-05 0.00083925 0)
(5.5307e-06 0.000720704 0)
(1.50533e-05 0.000965609 0)
(1.041e-06 0.000627922 0)
(0.00042299 0.00111864 0)
(0.000289971 0.000706884 0)
(0.00037458 0.000930189 0)
(0.000536247 0.00193081 0)
(0.000522402 0.00164499 0)
(0.000169933 0.000420609 0)
(0.000230906 0.000532002 0)
(8.34877e-05 0.000213155 0)
(1.75162e-05 4.31794e-05 0)
(0.000136222 0.000336988 0)
(-1.38603e-07 4.49413e-06 0)
(-7.11805e-07 2.24149e-05 0)
(-1.02177e-06 3.06787e-05 0)
(-2.19208e-06 4.27058e-05 0)
(-4.58538e-06 7.43537e-05 0)
(-3.89468e-06 6.34725e-05 0)
(-4.87163e-06 9.22898e-05 0)
(-4.78269e-06 9.97708e-05 0)
(-5.21117e-06 0.000121275 0)
(-5.21475e-06 0.000131218 0)
(-6.56226e-06 0.00017563 0)
(-6.67492e-06 0.000156339 0)
(-7.12236e-06 0.000190968 0)
(-8.13681e-06 0.000231109 0)
(-6.61805e-06 0.00025831 0)
(0.000567886 0.0024694 0)
(9.37174e-05 0.00258813 0)
(0.000106417 0.0029709 0)
(6.42236e-05 0.00211995 0)
(0.000303168 0.00415527 0)
(0.0004291 0.00447208 0)
(0.000190786 0.00386447 0)
(3.76456e-05 0.00169551 0)
(2.15853e-05 0.00123028 0)
(2.57616e-05 0.00144904 0)
(1.43252e-05 0.00111976 0)
(0.000670851 0.00374867 0)
(0.000591035 0.00438128 0)
(0.000608005 0.00283286 0)
(-4.24856e-07 0.000487917 0)
(-4.14313e-06 0.000420134 0)
(-5.85286e-06 0.000321739 0)
(-8.30349e-06 0.000376002 0)
(1.05747e-07 0.000581248 0)
(-6.08358e-06 0.000276983 0)
(5.25219e-06 0.00086853 0)
(-1.59738e-06 0.00073871 0)
(6.95937e-06 0.000943316 0)
(-3.99302e-06 0.000646832 0)
(0.000486803 0.00116212 0)
(0.00030087 0.000645867 0)
(0.000381422 0.000822165 0)
(0.000588923 0.00219704 0)
(0.000562122 0.00158161 0)
(0.000192839 0.000443548 0)
(0.000259206 0.00054696 0)
(8.40887e-05 0.000202235 0)
(3.21552e-05 7.46709e-05 0)
(0.000116811 0.000273389 0)
(-4.48087e-07 9.57825e-06 0)
(-8.57174e-07 1.84715e-05 0)
(-1.62241e-06 3.45928e-05 0)
(-2.86198e-06 4.53217e-05 0)
(-5.92269e-06 8.423e-05 0)
(-4.46132e-06 6.23878e-05 0)
(-6.29051e-06 9.88791e-05 0)
(-6.4758e-06 0.000113834 0)
(-6.80293e-06 0.000124035 0)
(-6.99671e-06 0.000147073 0)
(-8.01929e-06 0.000171832 0)
(-1.00768e-05 0.000212351 0)
(-8.99574e-06 0.000255084 0)
(-1.06472e-05 0.000230962 0)
(7.13426e-05 0.0023952 0)
(8.44714e-05 0.00318991 0)
(4.53097e-05 0.0020077 0)
(0.000246971 0.00420159 0)
(0.000361968 0.00453294 0)
(0.000498554 0.0049226 0)
(0.000154335 0.00400574 0)
(2.32415e-05 0.00156417 0)
(3.5775e-05 0.00183098 0)
(1.76483e-05 0.00133124 0)
(5.4222e-06 0.00112471 0)
(0.000683434 0.00426559 0)
(0.000736094 0.00345227 0)
(0.000581983 0.00487666 0)
(0.000686616 0.00296685 0)
(-5.59071e-06 0.000505892 0)
(-8.91773e-06 0.000450839 0)
(-8.55321e-06 0.00034721 0)
(-8.03691e-06 0.000301229 0)
(-1.28537e-05 0.000408067 0)
(-6.25269e-06 0.000581652 0)
(-1.57714e-06 0.000847961 0)
(-4.7777e-06 0.000793108 0)
(-5.67977e-06 0.000692613 0)
(8.31695e-09 0.000978568 0)
(-8.80657e-06 0.000621021 0)
(0.000543853 0.00134705 0)
(0.000478058 0.000963145 0)
(0.000337378 0.000681263 0)
(0.000424171 0.000830669 0)
(0.000659628 0.00226558 0)
(0.000640621 0.00175437 0)
(0.000182506 0.000388009 0)
(0.000247482 0.000482609 0)
(6.27424e-05 0.000145032 0)
(1.41324e-05 3.11551e-05 0)
(0.000122274 0.000267275 0)
(-3.17557e-07 5.14475e-06 0)
(-1.43514e-06 2.44256e-05 0)
(-1.83544e-06 3.19498e-05 0)
(-3.77568e-06 5.27989e-05 0)
(-2.51427e-06 3.81033e-05 0)
(-6.71242e-06 8.46833e-05 0)
(-6.81482e-06 9.63429e-05 0)
(-5.88425e-06 7.31563e-05 0)
(-7.53555e-06 0.000113824 0)
(-8.84247e-06 0.000141918 0)
(-8.97064e-06 0.000153941 0)
(-1.05267e-05 0.000188186 0)
(-1.20215e-05 0.000211292 0)
(-1.31853e-05 0.000278708 0)
(-1.39804e-05 0.000260396 0)
(5.02661e-05 0.00243675 0)
(8.96608e-05 0.00360488 0)
(5.09761e-05 0.00293676 0)
(3.65227e-05 0.00217412 0)
(0.000238472 0.0047433 0)
(0.000354217 0.0050547 0)
(0.000485458 0.00550202 0)
(0.000179771 0.00462327 0)
(0.000118133 0.0039097 0)
(1.25511e-05 0.00164123 0)
(1.81918e-05 0.00181266 0)
(4.53588e-06 0.00132604 0)
(5.8762e-07 0.00121052 0)
(-1.07127e-06 0.00104801 0)
(0.00078812 0.00473975 0)
(0.000842275 0.00356759 0)
(0.000663196 0.00537774 0)
(0.000717045 0.00265966 0)
(-8.76959e-06 0.000551926 0)
(-9.57723e-06 0.000486627 0)
(-1.33828e-05 0.000442463 0)
(-1.2582e-05 0.000351454 0)
(-1.18352e-05 0.000320257 0)
(-1.71262e-05 0.000410497 0)
(-6.07997e-06 0.000915534 0)
(-1.39537e-05 0.000812888 0)
(-1.28098e-05 0.000711747 0)
(-1.4349e-05 0.000662144 0)
(0.000604434 0.00131426 0)
(0.000531543 0.000928229 0)
(0.00034837 0.000608107 0)
(0.000402793 0.000667559 0)
(0.000682837 0.0020209 0)
(0.000664464 0.00152654 0)
(0.000150245 0.000314174 0)
(0.000207926 0.000409201 0)
(0.000264296 0.000455587 0)
(7.01082e-05 0.00015212 0)
(2.82287e-05 5.87125e-05 0)
(9.62965e-05 0.000204162 0)
(-8.77867e-07 1.19897e-05 0)
(-1.5957e-06 2.22791e-05 0)
(-3.97372e-06 5.01033e-05 0)
(-2.95024e-06 3.94143e-05 0)
(-8.23152e-06 9.64298e-05 0)
(-8.93822e-06 0.000111259 0)
(-6.78226e-06 7.67177e-05 0)
(-9.51925e-06 0.000127741 0)
(-1.06627e-05 0.000149416 0)
(-1.11926e-05 0.000172633 0)
(-1.195e-05 0.000187574 0)
(-1.54289e-05 0.000234244 0)
(-1.56291e-05 0.000305996 0)
(-1.70128e-05 0.00027231 0)
(4.16755e-05 0.00262027 0)
(4.72357e-05 0.00371152 0)
(2.80062e-05 0.00310274 0)
(1.93692e-05 0.00214951 0)
(0.000285939 0.00516568 0)
(0.000409501 0.00550494 0)
(0.000557335 0.00607508 0)
(0.000145066 0.00489386 0)
(0.000104949 0.00441215 0)
(2.91521e-06 0.00160112 0)
(1.09752e-05 0.00195078 0)
(-3.58315e-06 0.00141032 0)
(-9.39892e-06 0.00120192 0)
(-1.00137e-05 0.00110033 0)
(0.0008879 0.00459123 0)
(0.000764544 0.00534921 0)
(0.000909866 0.0040274 0)
(0.00085912 0.0031068 0)
(0.000645917 0.00596324 0)
(0.000792231 0.00271983 0)
(-1.65847e-05 0.000575402 0)
(-1.62823e-05 0.000530416 0)
(-1.87502e-05 0.000482798 0)
(-1.64232e-05 0.000378974 0)
(-1.47962e-05 0.000323153 0)
(-2.243e-05 0.000451093 0)
(-1.46761e-05 0.000939167 0)
(-1.8986e-05 0.000877998 0)
(-1.71473e-05 0.000762682 0)
(-2.09535e-05 0.000675031 0)
(0.000600494 0.00109263 0)
(0.000508232 0.000735288 0)
(0.000306417 0.000495404 0)
(0.000433 0.00062375 0)
(0.000773127 0.00210787 0)
(0.000742639 0.00153521 0)
(0.000145151 0.000279625 0)
(0.000200246 0.000362492 0)
(0.000227454 0.000379049 0)
(5.36042e-05 0.000111146 0)
(1.36188e-05 2.69672e-05 0)
(9.54271e-05 0.000189161 0)
(-5.97586e-07 7.0559e-06 0)
(-2.50045e-06 3.16272e-05 0)
(-4.77674e-06 5.47154e-05 0)
(-9.16101e-06 0.000100054 0)
(-9.35035e-06 0.000109076 0)
(-1.03094e-05 0.000126246 0)
(-6.17838e-06 6.77011e-05 0)
(-8.54619e-06 9.14321e-05 0)
(-1.09422e-05 0.000143355 0)
(-1.32553e-05 0.000172208 0)
(-1.34373e-05 0.000181088 0)
(-1.52476e-05 0.000211089 0)
(-1.73882e-05 0.00025756 0)
(-1.69789e-05 0.000231423 0)
(-2.05779e-05 0.000332587 0)
(-2.12525e-05 0.000305812 0)
(1.69541e-05 0.00253823 0)
(3.87422e-05 0.00413511 0)
(2.46365e-05 0.00342832 0)
(6.4781e-06 0.00293171 0)
(9.77962e-06 0.00230389 0)
(0.00028769 0.00581592 0)
(0.000378941 0.00605941 0)
(0.000535684 0.00681463 0)
(0.000137116 0.00539577 0)
(6.84704e-05 0.00448441 0)
(-8.6889e-06 0.00170317 0)
(-2.65784e-06 0.00150604 0)
(-3.57465e-06 0.00195336 0)
(-1.664e-05 0.0013832 0)
(-1.76376e-05 0.00127427 0)
(-1.76841e-05 0.00108673 0)
(0.00101672 0.00509417 0)
(0.00083891 0.00601267 0)
(0.00103004 0.00400908 0)
(0.000936964 0.00296896 0)
(0.000745069 0.00647569 0)
(0.000817814 0.00243433 0)
(-2.2199e-05 0.000626991 0)
(-2.06882e-05 0.000529532 0)
(-2.31314e-05 0.000482879 0)
(-2.04987e-05 0.00038789 0)
(-1.94221e-05 0.000359244 0)
(-2.71954e-05 0.000462513 0)
(-1.9895e-05 0.00101091 0)
(-2.89059e-05 0.000918669 0)
(-2.68842e-05 0.000795826 0)
(-2.84861e-05 0.000744732 0)
(0.000661389 0.00105027 0)
(0.000548089 0.000644462 0)
(0.000306028 0.00040886 0)
(0.000411162 0.000496388 0)
(0.000808096 0.00182662 0)
(0.000740141 0.00126063 0)
(0.000168659 0.000304128 0)
(0.000115886 0.000220001 0)
(0.000216198 0.000322952 0)
(6.83561e-05 0.000134556 0)
(2.98592e-05 5.59182e-05 0)
(-1.38034e-06 1.4929e-05 0)
(-2.9723e-06 3.41298e-05 0)
(-4.24606e-06 4.66435e-05 0)
(-1.10239e-05 0.000115892 0)
(-1.12747e-05 0.000122383 0)
(-1.26156e-05 0.000143599 0)
(-7.37317e-06 7.5082e-05 0)
(-9.93078e-06 0.000100211 0)
(-1.37306e-05 0.000162955 0)
(-1.5362e-05 0.000181444 0)
(-1.62141e-05 0.000207244 0)
(-2.1065e-05 0.00028076 0)
(-2.12745e-05 0.000261914 0)
(-2.30002e-05 0.000367536 0)
(-2.30873e-05 0.000332806 0)
(-2.339e-05 0.000307125 0)
(3.50898e-06 0.00267988 0)
(1.61452e-06 0.00428083 0)
(-3.35038e-06 0.00350947 0)
(-1.19786e-05 0.00306157 0)
(-7.83198e-06 0.00227792 0)
(0.000238664 0.006186 0)
(0.000426009 0.00674905 0)
(0.000626797 0.00752285 0)
(7.7993e-05 0.00538163 0)
(0.000169094 0.00595299 0)
(5.30755e-05 0.00495439 0)
(-1.40374e-05 0.00160389 0)
(-1.21237e-05 0.00182222 0)
(-1.20019e-05 0.00210146 0)
(-2.60843e-05 0.00148503 0)
(-2.83386e-05 0.00126433 0)
(-2.68409e-05 0.00115862 0)
(0.00104557 0.00577514 0)
(0.00109981 0.00457476 0)
(0.000947221 0.00620679 0)
(0.00109714 0.00353302 0)
(0.00103915 0.00308647 0)
(0.000899423 0.0025284 0)
(0.000753955 0.00722939 0)
(-3.04131e-05 0.000657157 0)
(-2.83436e-05 0.000571898 0)
(-2.94509e-05 0.000538582 0)
(-2.56795e-05 0.000426683 0)
(-3.38681e-05 0.000517859 0)
(-3.11763e-05 0.00105598 0)
(-3.53579e-05 0.00100889 0)
(-3.30822e-05 0.000870725 0)
(-3.64729e-05 0.000771361 0)
(0.000665091 0.000865511 0)
(0.000508833 0.000493288 0)
(0.000619086 0.00069346 0)
(0.000348 0.00040384 0)
(0.00024561 0.000327362 0)
(0.000447994 0.00043873 0)
(0.000907016 0.00188048 0)
(0.00080747 0.0011333 0)
(0.00016069 0.00027075 0)
(0.000109619 0.000194359 0)
(0.000180363 0.00027683 0)
(5.90833e-05 0.000110097 0)
(1.54559e-05 2.77736e-05 0)
(-7.98934e-07 8.02146e-06 0)
(-2.54115e-06 2.75041e-05 0)
(-4.98528e-06 5.10039e-05 0)
(-1.26235e-05 0.000126436 0)
(-1.32913e-05 0.000140137 0)
(-1.43909e-05 0.000162241 0)
(-1.37932e-05 0.000148277 0)
(-9.2652e-06 9.15225e-05 0)
(-6.55445e-06 6.49976e-05 0)
(-1.21198e-05 0.000118921 0)
(-1.84561e-05 0.000206495 0)
(-1.95734e-05 0.000230434 0)
(-2.31419e-05 0.000284341 0)
(-2.27625e-05 0.000262279 0)
(-2.83628e-05 0.000408459 0)
(-2.94829e-05 0.000381606 0)
(-2.75867e-05 0.000334706 0)
(-1.68571e-05 0.00262919 0)
(-8.61343e-06 0.00470843 0)
(-2.1912e-05 0.00406364 0)
(-1.97326e-05 0.00374448 0)
(-1.48199e-05 0.00328109 0)
(-2.98074e-05 0.00299463 0)
(-2.0194e-05 0.00242804 0)
(0.000275198 0.00697203 0)
(0.000372243 0.00727651 0)
(0.000609653 0.00840073 0)
(4.97298e-05 0.00582598 0)
(0.000118807 0.00650996 0)
(1.26211e-05 0.00500593 0)
(-2.41056e-05 0.00160989 0)
(-2.73573e-05 0.00193725 0)
(-2.75732e-05 0.00210206 0)
(-3.85303e-05 0.00152056 0)
(-3.90486e-05 0.00134577 0)
(-3.56105e-05 0.00114621 0)
(0.00119561 0.0062187 0)
(0.00122913 0.00452692 0)
(0.00100497 0.00717917 0)
(0.00122704 0.00366128 0)
(0.00106075 0.00250665 0)
(0.000949007 0.00229122 0)
(0.00089278 0.00777028 0)
(-3.66364e-05 0.000720462 0)
(-3.29272e-05 0.000624666 0)
(-3.54131e-05 0.000560753 0)
(-3.01771e-05 0.0004415 0)
(-3.91797e-05 0.000535703 0)
(-4.69145e-05 0.00106516 0)
(-4.33136e-05 0.000924978 0)
(-4.63857e-05 0.000850291 0)
(0.000748958 0.000865925 0)
(0.000531452 0.000371242 0)
(0.0006457 0.000514634 0)
(0.000335544 0.000313913 0)
(0.000228236 0.00027373 0)
(0.000431691 0.000332057 0)
(0.000956497 0.00156171 0)
(0.00089725 0.00120191 0)
(0.0001302 0.000219398 0)
(7.89571e-05 0.000139687 0)
(0.000158935 0.000237877 0)
(2.59822e-05 4.40008e-05 0)
(-1.93301e-06 1.86907e-05 0)
(-3.75246e-06 3.80477e-05 0)
(-1.47858e-05 0.000145324 0)
(-1.51148e-05 0.000151587 0)
(-1.728e-05 0.000182989 0)
(-1.67579e-05 0.000173271 0)
(-1.09011e-05 0.000103121 0)
(-7.74499e-06 7.33285e-05 0)
(-1.41556e-05 0.000133913 0)
(-2.0475e-05 0.000229021 0)
(-2.06408e-05 0.000217871 0)
(-2.74168e-05 0.000319179 0)
(-2.79911e-05 0.000300698 0)
(-3.19808e-05 0.000417152 0)
(-3.26857e-05 0.000392386 0)
(-3.12991e-05 0.000367678 0)
(-3.19648e-05 0.00279343 0)
(-4.65317e-05 0.00492829 0)
(-5.48015e-05 0.00432405 0)
(-4.69538e-05 0.00366018 0)
(-3.9505e-05 0.00339035 0)
(-4.81436e-05 0.00323076 0)
(-3.83388e-05 0.00243301 0)
(0.000231634 0.0074825 0)
(0.000394932 0.00811779 0)
(0.000484578 0.00866207 0)
(0.00074218 0.00912212 0)
(-1.23598e-06 0.0058134 0)
(6.37607e-05 0.00629344 0)
(0.000123854 0.00710996 0)
(-1.23747e-05 0.00543135 0)
(-3.81484e-05 0.00174876 0)
(-4.04777e-05 0.00190078 0)
(-4.01706e-05 0.00225041 0)
(-4.76268e-05 0.00168577 0)
(-4.34593e-05 0.00145879 0)
(-4.96712e-05 0.00133956 0)
(-4.71394e-05 0.00123591 0)
(0.00133202 0.00591306 0)
(0.00116464 0.00724371 0)
(0.00133841 0.00502449 0)
(0.00132302 0.00339867 0)
(0.00114073 0.00220521 0)
(0.000902792 0.00877694 0)
(-4.57601e-05 0.000767824 0)
(-4.21495e-05 0.000678672 0)
(-4.38163e-05 0.000629875 0)
(-3.68057e-05 0.000493904 0)
(-4.71439e-05 0.000599472 0)
(-5.49949e-05 0.00115914 0)
(-4.97211e-05 0.00101225 0)
(-4.94027e-05 0.000911308 0)
(-5.2417e-05 0.000846033 0)
(0.000772786 0.000684122 0)
(0.000591947 0.00035865 0)
(0.000475571 0.000277413 0)
(0.000715575 0.000506091 0)
(0.000380132 0.000280001 0)
(0.000286393 0.000252658 0)
(0.000187747 0.000228706 0)
(0.00024737 0.000246345 0)
(0.0010764 0.00163661 0)
(0.000944048 0.00083952 0)
(0.000128886 0.000205305 0)
(7.14316e-05 0.000120645 0)
(0.000148532 0.000209569 0)