/*--------------------------------*- C++ -*----------------------------------*\
| =========                 |                                                 |
| \\      /  F ield         | OpenFOAM: The Open Source CFD Toolbox           |
|  \\    /   O peration     | Version:  v2012                                 |
|   \\  /    A nd           | Website:  www.openfoam.com                      |
|    \\/     M anipulation  |                                                 |
\*---------------------------------------------------------------------------*/
FoamFile
{
    version     2.0;
    format      ascii;
    class       pointVectorField;
    location    "0.14";
    object      pointDisplacement;
}
// * * * * * * * * * * * * * * * * * * * * * * * * * * * * * * * * * * * * * //

dimensions      [0 1 0 0 0 0 0];


internalField   nonuniform List<vector> 
14482
(
(0 0 0)
(0 0 0)
(0 0 0)
(0 0 0)
(0 0 0)
(0 0 0)
(0 0 0)
(0 0 0)
(0 0 0)
(0 0 0)
(0 0 0)
(0 0 0)
(0 0 0)
(0 0 0)
(0 0 0)
(0 0 0)
(0 0 0)
(0 0 0)
(0 0 0)
(0 0 0)
(0 0 0)
(0 0 0)
(0 0 0)
(0 0 0)
(0 0 0)
(0 0 0)
(0 0 0)
(0 0 0)
(0 0 0)
(0 0 0)
(0 0 0)
(0 0 0)
(0 0 0)
(0 0 0)
(0 0 0)
(0 0 0)
(0 0 0)
(0 0 0)
(0 0 0)
(0 0 0)
(0 0 0)
(0 0 0)
(0 0 0)
(0 0 0)
(0 0 0)
(0 0 0)
(0 0 0)
(0 0 0)
(0 0 0)
(0 0 0)
(0 0 0)
(0 0 0)
(0 0 0)
(0 0 0)
(0 0 0)
(0 0 0)
(0 0 0)
(0 0 0)
(0 0 0)
(0 0 0)
(0 0 0)
(0 0 0)
(0 0 0)
(0 0 0)
(0 0 0)
(0 0 0)
(0 0 0)
(0 0 0)
(0 0 0)
(0 0 0)
(0 0 0)
(0 0 0)
(0 0 0)
(0 0 0)
(0 0 0)
(0 0 0)
(0 0 0)
(0 0 0)
(0 0 0)
(0 0 0)
(0 0 0)
(0 0 0)
(0 0 0)
(0.0115325 -0.0750551 0)
(0.0116187 -0.0750255 0)
(0.0117115 -0.0749936 0)
(0.0118115 -0.0749593 0)
(0.0119192 -0.0749224 0)
(0.0120352 -0.0748826 0)
(0.01216 -0.0748398 0)
(0.0122945 -0.0747936 0)
(0.0124393 -0.074744 0)
(0.0125951 -0.0746905 0)
(0.0127629 -0.0746329 0)
(0.0129435 -0.074571 0)
(0.0131379 -0.0745043 0)
(0.0133261 -0.0743889 0)
(0.0135265 -0.0742605 0)
(0.0137422 -0.0741224 0)
(0.0139598 -0.0739537 0)
(0.0141901 -0.0737672 0)
(0.0144252 -0.0735522 0)
(0.0146711 -0.0733133 0)
(0.0149209 -0.0730422 0)
(0.0151764 -0.0727394 0)
(0.0154376 -0.072403 0)
(0.0157033 -0.0720304 0)
(0.015973 -0.0716191 0)
(0.0162436 -0.0711655 0)
(0.016517 -0.0706686 0)
(0.0167911 -0.0701248 0)
(0.0170659 -0.0695318 0)
(0.0173398 -0.0688864 0)
(0.017612 -0.0681853 0)
(0.0178822 -0.0674255 0)
(0.0181493 -0.0666036 0)
(0.0184123 -0.0657159 0)
(0.01867 -0.0647586 0)
(0.0189215 -0.0637277 0)
(0.0191658 -0.0626191 0)
(0.0194017 -0.0614286 0)
(0.0196278 -0.0601515 0)
(0.0198428 -0.0587833 0)
(0.0200451 -0.0573192 0)
(0.0202331 -0.0557542 0)
(0.0204053 -0.0540834 0)
(0.0205597 -0.0523016 0)
(0.0206943 -0.0504037 0)
(0.0208072 -0.0483845 0)
(0.0208961 -0.046239 0)
(0.0209588 -0.0439619 0)
(0.0209928 -0.0415486 0)
(0.0209959 -0.0389941 0)
(0.0209653 -0.0362938 0)
(0.0208985 -0.033444 0)
(0.0207929 -0.0304403 0)
(0.020646 -0.0272798 0)
(0.020455 -0.0239594 0)
(0.0202176 -0.0204772 0)
(0.0199312 -0.0168314 0)
(0.0195938 -0.0130219 0)
(0.0192031 -0.00904822 0)
(0.0187573 -0.00491181 0)
(0.0182551 -0.000614761 0)
(0.0176951 0.00383968 0)
(0.0170765 0.00844737 0)
(0.0163991 0.0132024 0)
(0.0156627 0.0180987 0)
(0.0148682 0.023128 0)
(0.0140163 0.0282813 0)
(0.0131088 0.033549 0)
(0.0121478 0.038919 0)
(0.0111357 0.0443799 0)
(0.0100757 0.0499182 0)
(0.00897136 0.0555201 0)
(0.00782654 0.0611707 0)
(0.00664544 0.0668554 0)
(0.00543277 0.0725581 0)
(0.00419322 0.0782636 0)
(0.00293183 0.0839557 0)
(0.00165354 0.0896193 0)
(0.000363521 0.0952388 0)
(-0.000933186 0.100799 0)
(-0.00223166 0.106286 0)
(-0.00352717 0.111687 0)
(-0.00481506 0.116988 0)
(-0.00609104 0.122179 0)
(-0.00735108 0.127248 0)
(-0.00859146 0.132186 0)
(-0.00980879 0.136986 0)
(-0.011 0.141639 0)
(-0.0121624 0.14614 0)
(-0.0132937 0.150485 0)
(-0.0143919 0.154669 0)
(-0.0154553 0.158691 0)
(-0.0164826 0.16255 0)
(-0.017473 0.166244 0)
(-0.0184255 0.169775 0)
(-0.0193399 0.173143 0)
(-0.0202159 0.176352 0)
(-0.0210536 0.179403 0)
(-0.0218533 0.1823 0)
(-0.0226154 0.185047 0)
(-0.0233404 0.187648 0)
(-0.0240293 0.190108 0)
(-0.0246828 0.192431 0)
(-0.0253018 0.194624 0)
(-0.0258876 0.196689 0)
(-0.0264411 0.198635 0)
(-0.0269635 0.200464 0)
(-0.0274562 0.202184 0)
(-0.0279202 0.203798 0)
(-0.0283568 0.205313 0)
(-0.0287673 0.206732 0)
(-0.0291529 0.208063 0)
(-0.0295147 0.209308 0)
(-0.0298542 0.210473 0)
(-0.0301723 0.211563 0)
(-0.0304702 0.212581 0)
(-0.030749 0.213533 0)
(-0.0310099 0.214421 0)
(-0.0312537 0.21525 0)
(-0.0314816 0.216024 0)
(-0.0316944 0.216745 0)
(-0.0318931 0.217418 0)
(-0.0320785 0.218045 0)
(-0.0322515 0.218628 0)
(-0.0324127 0.219172 0)
(-0.032563 0.219679 0)
(-0.0327032 0.22015 0)
(-0.0328337 0.220589 0)
(-0.0329552 0.220997 0)
(-0.0330683 0.221377 0)
(-0.0331737 0.22173 0)
(-0.0332717 0.222059 0)
(-0.0333629 0.222364 0)
(-0.0334477 0.222648 0)
(-0.0335266 0.222912 0)
(-0.0336 0.223158 0)
(-0.0336683 0.223386 0)
(-0.0337317 0.223598 0)
(-0.0337906 0.223794 0)
(-0.0338455 0.223977 0)
(-0.0338964 0.224147 0)
(-0.0339437 0.224305 0)
(-0.0339877 0.224452 0)
(-0.0340285 0.224588 0)
(-0.0340664 0.224714 0)
(-0.0341017 0.224832 0)
(-0.0341344 0.224941 0)
(-0.0341648 0.225042 0)
(-0.0341931 0.225136 0)
(-0.0342193 0.225223 0)
(-0.0343094 0.225209 0)
(-0.034389 0.225197 0)
(-0.0344619 0.225186 0)
(-0.0345307 0.225175 0)
(-0.0345976 0.225165 0)
(-0.0346644 0.225155 0)
(-0.0347332 0.225144 0)
(-0.0348061 0.225133 0)
(-0.0348858 0.225121 0)
(-0.0349758 0.225107 0)
(-0.0349746 0.225016 0)
(-0.0349734 0.224918 0)
(-0.0349719 0.224812 0)
(-0.0349704 0.224698 0)
(-0.0349688 0.224576 0)
(-0.034967 0.224444 0)
(-0.0349652 0.224302 0)
(-0.034963 0.224148 0)
(-0.0349608 0.223984 0)
(-0.0349584 0.223806 0)
(-0.0349557 0.223615 0)
(-0.0349529 0.22341 0)
(-0.0349498 0.223189 0)
(-0.0349464 0.222951 0)
(-0.0349427 0.222695 0)
(-0.0349387 0.222419 0)
(-0.0349344 0.222123 0)
(-0.0349297 0.221804 0)
(-0.0349246 0.221461 0)
(-0.0349189 0.221093 0)
(-0.0349129 0.220696 0)
(-0.0349062 0.220271 0)
(-0.034899 0.219813 0)
(-0.034891 0.219321 0)
(-0.0348824 0.218793 0)
(-0.034873 0.218226 0)
(-0.0348627 0.217617 0)
(-0.0348513 0.216963 0)
(-0.034839 0.216262 0)
(-0.0348254 0.21551 0)
(-0.0348106 0.214704 0)
(-0.0347942 0.21384 0)
(-0.0347763 0.212914 0)
(-0.0347567 0.211923 0)
(-0.0347351 0.210862 0)
(-0.0347113 0.209727 0)
(-0.0346852 0.208513 0)
(-0.0346565 0.207217 0)
(-0.034625 0.205832 0)
(-0.0345902 0.204355 0)
(-0.034552 0.202779 0)
(-0.03451 0.2011 0)
(-0.0344636 0.199312 0)
(-0.0344128 0.19741 0)
(-0.0343568 0.195388 0)
(-0.0342953 0.193242 0)
(-0.0342277 0.190965 0)
(-0.0341534 0.188552 0)
(-0.034072 0.185999 0)
(-0.0339827 0.1833 0)
(-0.0338849 0.180451 0)
(-0.0337779 0.177448 0)
(-0.0336609 0.174286 0)
(-0.0335333 0.170962 0)
(-0.0333942 0.167475 0)
(-0.0332429 0.163821 0)
(-0.0330784 0.16 0)
(-0.0329 0.156011 0)
(-0.0327069 0.151855 0)
(-0.0324981 0.147534 0)
(-0.0322728 0.14305 0)
(-0.0320303 0.138407 0)
(-0.0317695 0.133611 0)
(-0.0314899 0.128668 0)
(-0.0311904 0.123585 0)
(-0.0308705 0.118371 0)
(-0.0305293 0.113037 0)
(-0.0301662 0.107594 0)
(-0.0297806 0.102053 0)
(-0.0293718 0.0964294 0)
(-0.0289394 0.0907363 0)
(-0.0284828 0.0849888 0)
(-0.0280018 0.0792026 0)
(-0.0274961 0.0733944 0)
(-0.0269656 0.0675799 0)
(-0.0264102 0.0617763 0)
(-0.0258302 0.0559992 0)
(-0.0252258 0.0502655 0)
(-0.0245974 0.0445905 0)
(-0.0239458 0.0389895 0)
(-0.0232717 0.0334767 0)
(-0.0225762 0.0280658 0)
(-0.0218604 0.0227687 0)
(-0.0211258 0.0175974 0)
(-0.0203738 0.0125616 0)
(-0.0196062 0.00767007 0)
(-0.0188248 0.00293098 0)
(-0.0180315 -0.00164987 0)
(-0.0172284 -0.00606694 0)
(-0.0164174 -0.0103166 0)
(-0.0156008 -0.014396 0)
(-0.0147805 -0.0183037 0)
(-0.0139587 -0.0220387 0)
(-0.0131373 -0.0256024 0)
(-0.0123183 -0.0289952 0)
(-0.0115036 -0.0322197 0)
(-0.010695 -0.0352785 0)
(-0.00989392 -0.0381754 0)
(-0.00910198 -0.0409138 0)
(-0.00832052 -0.0434986 0)
(-0.00755072 -0.0459344 0)
(-0.00679366 -0.0482262 0)
(-0.00605032 -0.0503794 0)
(-0.00532134 -0.0523993 0)
(-0.00460747 -0.0542914 0)
(-0.00390925 -0.0560613 0)
(-0.00322711 -0.0577146 0)
(-0.00256125 -0.0592567 0)
(-0.00191201 -0.060693 0)
(-0.0012795 -0.0620288 0)
(-0.000663636 -0.0632694 0)
(-6.45579e-05 -0.0644196 0)
(0.000517856 -0.0654845 0)
(0.00108366 -0.0664686 0)
(0.00163307 -0.0673764 0)
(0.00216631 -0.0682122 0)
(0.00268369 -0.06898 0)
(0.00318522 -0.0696838 0)
(0.00367101 -0.0703274 0)
(0.00414119 -0.0709144 0)
(0.00459626 -0.0714478 0)
(0.00503638 -0.071931 0)
(0.00546105 -0.0723674 0)
(0.00587108 -0.0727593 0)
(0.00626539 -0.0731108 0)
(0.00664607 -0.0734221 0)
(0.00701141 -0.0736977 0)
(0.00736154 -0.0739402 0)
(0.00769616 -0.0741523 0)
(0.00801582 -0.0743359 0)
(0.00832206 -0.07449 0)
(0.00861088 -0.0746245 0)
(0.00888661 -0.0747332 0)
(0.00914477 -0.0748288 0)
(0.00939197 -0.0748958 0)
(0.00962172 -0.074958 0)
(0.00983583 -0.0750117 0)
(0.0100413 -0.0750169 0)
(0.0102322 -0.0750218 0)
(0.0104095 -0.0750263 0)
(0.0105742 -0.0750305 0)
(0.0107272 -0.0750345 0)
(0.0108693 -0.0750381 0)
(0.0110013 -0.0750415 0)
(0.0111238 -0.0750446 0)
(0.0112376 -0.0750475 0)
(0.0113433 -0.0750502 0)
(0.0114414 -0.0750527 0)
(0.000424761 0.0168632 0)
(0.000212766 0.0194915 0)
(0.000178803 0.0174032 0)
(-0.000219421 0.017454 0)
(-3.54187e-05 0.0152253 0)
(5.23689e-05 0.0164516 0)
(-0.000792897 0.0140995 0)
(-0.000716951 0.0143042 0)
(-0.000992986 0.0164926 0)
(0.000598041 0.00942067 0)
(0.000880204 0.00982616 0)
(0.000687825 0.0109534 0)
(0.00166519 0.0392223 0)
(0.00209281 0.0417485 0)
(0.00124086 0.0468319 0)
(0.000937319 0.0138712 0)
(0.00129629 0.0153219 0)
(0.000927174 0.015721 0)
(-0.00105989 0.0288776 0)
(-0.000986349 0.0294364 0)
(-0.00120041 0.0299141 0)
(-0.000814902 0.0265816 0)
(-0.000652386 0.0273071 0)
(-0.000922978 0.0277811 0)
(-0.00214193 0.0297345 0)
(-0.00277355 0.0352455 0)
(-0.00257073 0.0324951 0)
(-9.35528e-05 0.00833241 0)
(-0.000195054 0.0096677 0)
(-0.000179769 0.00856965 0)
(0.00124635 0.0104121 0)
(0.00163442 0.0121713 0)
(0.00121342 0.0126837 0)
(0.0024776 0.0352014 0)
(0.00290379 0.0393234 0)
(-0.000337902 0.0478854 0)
(4.67779e-05 0.0415927 0)
(0.000288011 0.044473 0)
(0.00209588 0.0179209 0)
(0.00265793 0.0162337 0)
(0.00253131 0.019225 0)
(-0.00122573 0.0306012 0)
(-0.00141411 0.0312168 0)
(-0.00142672 0.0309731 0)
(-0.00183554 0.0311161 0)
(-0.00213234 0.033864 0)
(-0.00218745 0.0335425 0)
(-0.000783778 0.0200248 0)
(-0.000871411 0.0192752 0)
(-0.000607946 0.017318 0)
(-7.34864e-05 0.00229037 0)
(-9.40365e-05 0.00220777 0)
(-5.67956e-05 0.00189866 0)
(0.000591553 0.00388115 0)
(0.000506467 0.0044199 0)
(0.000432063 0.00344525 0)
(0.000365218 0.00406177 0)
(0.000988953 0.00445956 0)
(0.000959678 0.00347308 0)
(0.00113681 0.00406107 0)
(0.004868 0.0233365 0)
(0.00419887 0.023643 0)
(0.00451893 0.0191576 0)
(0.00446218 0.0464675 0)
(0.00353964 0.0503489 0)
(0.00405544 0.0428706 0)
(-0.00331105 0.0810917 0)
(-0.0031985 0.076369 0)
(-0.00248032 0.0723414 0)
(0.00162319 0.00406778 0)
(0.00193682 0.00354905 0)
(0.00184454 0.00531056 0)
(0.00476401 0.00292038 0)
(0.00531052 0.00396222 0)
(0.00475517 0.00568391 0)
(-0.00149199 0.0312776 0)
(-0.00142508 0.0318088 0)
(-0.00145594 0.0312029 0)
(-0.00143623 0.028264 0)
(-0.00153976 0.0288565 0)
(-0.00151763 0.0290253 0)
(-0.00395295 0.0493541 0)
(-0.00336686 0.0449495 0)
(-0.00423039 0.0520665 0)
(-0.00953999 0.0929507 0)
(-0.00784255 0.0807118 0)
(-0.00930006 0.0918871 0)
(-0.0052038 0.0554483 0)
(-0.00524923 0.0567165 0)
(-0.00606904 0.0627826 0)
(-0.00291351 0.0280275 0)
(-0.0025578 0.0260932 0)
(-0.00311307 0.0305164 0)
(-0.00177831 0.0211981 0)
(-0.00181475 0.0204385 0)
(-0.00152974 0.0184669 0)
(-0.000315094 0.0063047 0)
(-0.000244329 0.00615619 0)
(-0.000360303 0.00725036 0)
(0.000246038 0.00377773 0)
(0.0001349 0.00350871 0)
(0.000188372 0.00300762 0)
(0.000416053 0.00178874 0)
(0.000378816 0.00204042 0)
(0.000338468 0.00164738 0)
(0.000859404 0.0021806 0)
(0.000741047 0.00236859 0)
(0.00071913 0.00179623 0)
(0.00118055 0.000798983 0)
(0.00101056 0.00121081 0)
(0.000959127 0.000439723 0)
(0.00620825 0.0289292 0)
(0.00763769 0.0222346 0)
(0.00735178 0.0296865 0)
(-0.00194717 0.0818048 0)
(-0.000688101 0.0737681 0)
(-0.001498 0.0828533 0)
(0.00626577 0.0366382 0)
(0.00589897 0.0448279 0)
(0.00535855 0.0431705 0)
(-0.00211166 0.0732705 0)
(-0.00112217 0.0689575 0)
(-0.002164 0.0789052 0)
(-0.00260638 0.0588933 0)
(-0.00343376 0.0661804 0)
(-0.00280749 0.0576311 0)
(0.00418642 -0.00564151 0)
(0.00365971 -0.00513624 0)
(0.00410242 -0.00686134 0)
(0.00764804 -0.0112783 0)
(0.00888133 -0.0114745 0)
(0.00800463 -0.00806049 0)
(-0.00178541 0.0387409 0)
(-0.00214628 0.0428616 0)
(-0.00188937 0.0388206 0)
(-0.00370263 0.0665391 0)
(-0.00442747 0.0746621 0)
(-0.00374729 0.0496438 0)
(-0.00423575 0.0542719 0)
(-0.00469828 0.0579895 0)
(-0.0130344 0.118314 0)
(-0.0105741 0.102442 0)
(-0.0117585 0.110754 0)
(-0.00509377 0.0520144 0)
(-0.00510896 0.0535181 0)
(-0.0058235 0.0584322 0)
(-0.00302129 0.0316244 0)
(-0.00368421 0.0376062 0)
(-0.00347154 0.0343674 0)
(-0.00160476 0.0138293 0)
(-0.00175414 0.0140496 0)
(-0.0013162 0.0111085 0)
(-0.00025017 0.003673 0)
(-0.000211225 0.00353114 0)
(-0.000271284 0.00415105 0)
(-7.01981e-06 0.00130108 0)
(-1.83145e-05 0.00118097 0)
(-2.90621e-06 0.00113716 0)
(0.000132859 0.00165016 0)
(0.000186667 0.00193926 0)
(0.000150649 0.00200832 0)
(0.000132641 0.00229474 0)
(0.00019978 0.00247914 0)
(0.000535926 0.00268326 0)
(0.000523254 0.00318766 0)
(0.000426617 0.00264295 0)
(0.000366004 0.000530669 0)
(0.000463325 0.000791451 0)
(0.000379231 0.000722748 0)
(0.000458651 0.00226573 0)
(0.00851867 0.0235266 0)
(0.0081906 0.0306796 0)
(0.0103699 0.0101115 0)
(0.00968412 0.0167091 0)
(0.00927804 0.0104838 0)
(-0.00200623 0.0951091 0)
(-0.00172271 0.0905842 0)
(-0.000556835 0.0849614 0)
(0.00274693 0.077596 0)
(0.003897 0.0715109 0)
(0.00302763 0.0782024 0)
(-0.00289292 0.0911433 0)
(-0.00424369 0.0755487 0)
(-0.00553064 0.0880437 0)
(-0.00516482 0.082652 0)
(0.00671414 -0.0206737 0)
(0.00581168 -0.0186981 0)
(0.00608225 -0.0214904 0)
(0.00608205 -0.00908724 0)
(0.00581588 -0.0110248 0)
(0.00670582 -0.0120929 0)
(0.00725745 -0.0186079 0)
(0.00821977 -0.0219569 0)
(0.00838987 -0.0190544 0)
(-0.00539086 0.0744265 0)
(-0.00464383 0.0664013 0)
(-0.00421175 0.0641206 0)
(-0.00167587 0.0336071 0)
(-0.00197684 0.0374646 0)
(-0.00190689 0.0357626 0)
(-0.00609088 0.0829956 0)
(-0.00671279 0.090041 0)
(-0.00776545 0.0967808 0)
(-0.00163637 0.0317181 0)
(-0.0017876 0.0324791 0)
(-0.00181532 0.0328494 0)
(-0.00419843 0.0542241 0)
(-0.00363944 0.0497482 0)
(-0.00427419 0.0567044 0)
(-0.013225 0.118794 0)
(-0.0146838 0.127344 0)
(-0.0129735 0.116489 0)
(-0.010578 0.0925236 0)
(-0.0109855 0.0924152 0)
(-0.00940263 0.08285 0)
(-0.00683145 0.0521319 0)
(-0.00687464 0.0551326 0)
(-0.0075788 0.0585845 0)
(-0.00317487 0.0291094 0)
(-0.0037501 0.0327228 0)
(-0.00312296 0.0275308 0)
(-0.0035867 0.0340958 0)
(-0.00340368 0.0317045 0)
(-0.00144839 0.0133469 0)
(-0.00182029 0.0161704 0)
(-0.000641758 0.00579387 0)
(-0.000483547 0.00445658 0)
(-0.000498427 0.00476963 0)
(-9.9042e-06 0.00101145 0)
(8.50558e-06 0.00103216 0)
(0.000253909 0.00208369 0)
(0.000192497 0.00160001 0)
(3.08476e-05 0.00133696 0)
(4.38504e-05 0.00118469 0)
(6.05774e-05 0.00154046 0)
(0.000319691 0.00133188 0)
(0.000320821 0.0011193 0)
(0.000398902 0.00139019 0)
(0.000838831 0.000890571 0)
(0.000477035 0.00057196 0)
(0.000357728 0.00102891 0)
(0.000270291 0.000725463 0)
(0.000334784 0.000771496 0)
(0.0012292 -0.00349515 0)
(0.00104752 -0.00385808 0)
(0.00137945 -0.00426192 0)
(0.01054 0.0188279 0)
(0.00939913 0.0251212 0)
(0.0103828 0.025515 0)
(0.0112244 0.01974 0)
(0.0126845 -0.0124043 0)
(0.0113141 -0.0091744 0)
(0.0114666 -0.0152397 0)
(-0.00331954 0.102458 0)
(-0.00297757 0.102323 0)
(-0.0038542 0.107118 0)
(-0.00253288 0.092877 0)
(-7.84357e-05 0.0918537 0)
(0.00111843 0.0842213 0)
(0.000924585 0.0876368 0)
(0.00473215 0.0682143 0)
(0.0048386 0.0653348 0)
(-0.00499313 0.104595 0)
(-0.00636805 0.112339 0)
(-0.00490697 0.101592 0)
(-0.0101345 0.131025 0)
(-0.00956146 0.129229 0)
(-0.0112583 0.138002 0)
(-0.00681339 0.100043 0)
(-0.00732679 0.101705 0)
(-0.00935768 0.115768 0)
(-0.00966366 0.116496 0)
(-0.00815565 0.105964 0)
(0.00176584 -0.00331984 0)
(0.00173224 -0.00229126 0)
(0.00151945 -0.00281653 0)
(0.00418074 -0.0105137 0)
(0.00389519 -0.0120399 0)
(0.00458427 -0.0139931 0)
(0.0050015 -0.0125213 0)
(0.00570419 -0.0133312 0)
(0.00528153 -0.0112315 0)
(0.00683244 -0.0150423 0)
(0.00627695 -0.0134619 0)
(0.00631313 -0.0157322 0)
(-0.00389997 0.0629669 0)
(-0.00320316 0.0575383 0)
(-0.00417204 0.0675143 0)
(-0.00344137 0.0520701 0)
(-0.00379361 0.0564848 0)
(-0.00447531 0.0622326 0)
(-0.00220286 0.0394936 0)
(-0.00944416 0.108498 0)
(-0.00782725 0.0955918 0)
(-0.00305267 0.0419755 0)
(-0.00216378 0.033063 0)
(-0.00300248 0.0409059 0)
(-0.00440463 0.0558413 0)
(-0.00508046 0.0636258 0)
(-0.00553214 0.0670719 0)
(-0.0048087 0.0597275 0)
(-0.0126029 0.113346 0)
(-0.01107 0.103745 0)
(-0.00841777 0.0815649 0)
(-0.00961049 0.0908355 0)
(-0.00992744 0.0919393 0)
(-0.0253004 0.154729 0)
(-0.0252034 0.150023 0)
(-0.0237136 0.147928 0)
(-0.00831919 0.067376 0)
(-0.008716 0.0662642 0)
(-0.00753542 0.0608923 0)
(-0.0026443 0.021182 0)
(-0.00312041 0.0235931 0)
(-0.00274534 0.0206332 0)
(-0.000823649 0.00693344 0)
(-0.000573523 0.00500859 0)
(-0.0014609 0.0107352 0)
(-0.00129334 0.00999851 0)
(-0.00160943 0.0122787 0)
(-9.1221e-05 0.00108493 0)
(-7.57308e-05 0.00100091 0)
(-9.86342e-05 0.00120313 0)
(-0.000186186 0.00193138 0)
(-0.000239776 0.00237228 0)
(-0.000196142 0.00195218 0)
(5.50272e-06 0.000609797 0)
(1.1963e-05 0.000709502 0)
(2.06329e-07 0.000681224 0)
(0.00032926 0.00266589 0)
(0.000321843 0.00214316 0)
(0.000133579 0.00136985 0)
(9.40367e-05 0.00130788 0)
(8.70831e-05 0.00102189 0)
(0.000100388 0.000935053 0)
(0.000145315 0.001178 0)
(0.000230013 0.00103202 0)
(0.000273429 0.00137125 0)
(0.000216038 0.00113859 0)
(0.00032392 -0.00018796 0)
(0.000422799 -0.000164002 0)
(0.000334883 -2.98374e-05 0)
(0.000428039 0.000970583 0)
(0.000488148 0.00137606 0)
(0.000535695 0.000240074 0)
(0.000422635 0.000226339 0)
(0.000459092 2.02677e-05 0)
(0.000257527 0.000840065 0)
(0.000266588 0.00101827 0)
(0.000208599 0.000800028 0)
(0.000463812 -0.00157281 0)
(0.000539372 -0.00118111 0)
(0.000302392 -0.00100763 0)
(0.00788085 0.0530813 0)
(0.00872614 0.0478711 0)
(0.00824924 0.0529191 0)
(0.0100978 0.0354301 0)
(0.0107309 0.0292939 0)
(0.0109858 0.0323361 0)
(0.0118243 4.12059e-05 0)
(0.0122055 -0.00619237 0)
(0.0130195 -0.00308032 0)
(-0.00480329 0.112715 0)
(-0.00577794 0.116581 0)
(-0.00453423 0.109492 0)
(0.000250615 0.0834659 0)
(-0.000379617 0.0898098 0)
(-0.00099702 0.091109 0)
(0.00316914 0.0704656 0)
(0.0040316 0.0625948 0)
(0.0043186 0.0654429 0)
(0.00525362 0.0673107 0)
(0.00552384 0.0630086 0)
(-0.00920477 0.128544 0)
(-0.00971766 0.132498 0)
(-0.010628 0.135929 0)
(-0.00702887 0.11808 0)
(-0.00823532 0.125592 0)
(-0.00809654 0.123207 0)
(-0.00788654 0.120229 0)
(-0.00909617 0.123846 0)
(-0.0107231 0.133202 0)
(-0.0116652 0.133932 0)
(-0.0120153 0.134731 0)
(-0.0098836 0.122358 0)
(-0.0131729 0.141899 0)
(-0.0142895 0.147076 0)
(-0.011536 0.12982 0)
(-0.0136257 0.141865 0)
(-0.0130146 0.137418 0)
(-0.0132962 0.13787 0)
(-0.0153579 0.149711 0)
(-0.000103249 -0.00376198 0)
(0.000234704 -0.00440281 0)
(0.00010529 -0.00344691 0)
(0.00078594 -0.010139 0)
(0.000492132 -0.0103024 0)
(0.000926994 -0.0112389 0)
(0.00378056 -0.0182427 0)
(0.00317701 -0.0158871 0)
(0.00302361 -0.0167172 0)
(0.00998463 -0.0322763 0)
(0.0106313 -0.0355344 0)
(0.0110744 -0.0328247 0)
(-0.0112004 0.11628 0)
(-0.0135655 0.130342 0)
(-0.0126021 0.124086 0)
(-0.00241402 0.0372655 0)
(-0.00270579 0.0401956 0)
(-0.00234604 0.036176 0)
(-0.0161324 0.152779 0)
(-0.0134687 0.138067 0)
(-0.00450937 0.056039 0)
(-0.00574096 0.0679875 0)
(-0.00513305 0.0623106 0)
(-0.00508969 0.0604901 0)
(-0.00772105 0.0822138 0)
(-0.00494772 0.0597127 0)
(-0.00673548 0.0784864 0)
(-0.00748959 0.0852244 0)
(-0.00716135 0.0824158 0)
(-0.00336321 0.0456287 0)
(-0.00338614 0.0454403 0)
(-0.00388965 0.0502404 0)
(-0.00869963 0.0956173 0)
(-0.00971911 0.102547 0)
(-0.0094989 0.100607 0)
(-0.0141476 0.12863 0)
(-0.0158733 0.138529 0)
(-0.0155935 0.136674 0)
(-0.0165314 0.114821 0)
(-0.018671 0.120996 0)
(-0.0171936 0.111627 0)
(-0.00757465 0.0486385 0)
(-0.00764692 0.0442792 0)
(-0.00655409 0.040771 0)
(-0.0016556 0.0115436 0)
(-0.00213482 0.0148428 0)
(-0.0019013 0.0124928 0)
(-0.00170443 0.0100847 0)
(-0.00134205 0.00803664 0)
(-0.00148447 0.00928298 0)
(-0.000998613 0.0078184 0)
(-0.000764267 0.00613179 0)
(-7.58447e-05 0.000769898 0)
(-7.17472e-05 0.000774423 0)
(-8.73545e-05 0.000885416 0)
(-5.62487e-05 0.00067311 0)
(-5.82068e-05 0.00064529 0)
(-4.44672e-05 0.000555773 0)
(0.000234028 0.00138428 0)
(0.000190862 0.00132304 0)
(0.000180292 0.00107511 0)
(0.000143979 0.000987021 0)
(0.000108606 0.000844619 0)
(0.000105394 0.000718071 0)
(6.64881e-05 0.000733554 0)
(0.000134034 0.00080434 0)
(0.000454615 -0.000378887 0)
(0.000615355 -0.000537942 0)
(0.000546179 -0.000220482 0)
(0.000173762 0.000183276 0)
(0.000169054 0.000156226 0)
(0.000240039 0.000205228 0)
(0.00019229 0.000319414 0)
(0.000189876 0.000259888 0)
(0.000260858 0.000398343 0)
(0.000210638 0.000231574 0)
(0.000155655 0.000191036 0)
(0.000175763 0.000343062 0)
(0.000229633 0.000417969 0)
(0.000220171 0.000467312 0)
(-0.000621609 0.00126815 0)
(-0.000843947 0.00219802 0)
(-0.000868 0.0017259 0)
(0.00959003 0.0438485 0)
(0.009447 0.0415192 0)
(0.0100851 0.0430881 0)
(0.00918185 0.0480596 0)
(0.0117872 0.030209 0)
(0.012407 0.0257117 0)
(0.0125288 0.0286487 0)
(0.0117528 0.0335992 0)
(0.0152802 -0.0129344 0)
(0.0163549 -0.0133586 0)
(0.0156689 -0.00905504 0)
(0.0160781 0.0027873 0)
(0.0155094 0.00511995 0)
(0.0156798 -0.000233005 0)
(0.000950861 0.0758377 0)
(0.00153448 0.0760129 0)
(5.30847e-05 0.0893221 0)
(0.00614617 0.0612091 0)
(-0.00670317 0.117691 0)
(-0.00531253 0.110343 0)
(-0.00634969 0.117121 0)
(-0.00822673 0.116821 0)
(-0.00731231 0.112956 0)
(-0.0154827 0.152303 0)
(-0.0154891 0.151285 0)
(-0.0085494 0.115192 0)
(-0.00959393 0.123668 0)
(-0.0102635 0.126326 0)
(-0.0111349 0.125406 0)
(-0.00140421 0.0038638 0)
(-0.00181507 0.0050768 0)
(-0.00141544 0.00314732 0)
(0.0010815 -0.00999739 0)
(0.00118577 -0.00902881 0)
(0.000705803 -0.00843196 0)
(0.000663313 -0.0131689 0)
(0.000953531 -0.0145003 0)
(0.00124665 -0.014582 0)
(0.00564506 -0.0242362 0)
(0.00539892 -0.0256585 0)
(0.00625964 -0.0277036 0)
(0.0171675 -0.0292154 0)
(0.0162883 -0.02729 0)
(0.01634 -0.0320238 0)
(0.0119564 -0.0365055 0)
(0.0114379 -0.039104 0)
(-0.0101949 0.112075 0)
(-0.0103082 0.111377 0)
(-0.00864891 0.100559 0)
(-0.00732303 0.089035 0)
(-0.00842884 0.0980869 0)
(-0.00912453 0.102153 0)
(-0.00445553 0.0594058 0)
(-0.00532629 0.0667281 0)
(-0.00508894 0.0639875 0)
(-0.0075664 0.0843903 0)
(-0.00664077 0.0791625 0)
(-0.00766426 0.0873475 0)
(-0.00376097 0.0511143 0)
(-0.00357677 0.0492724 0)
(-0.00322959 0.0459179 0)
(-0.00297176 0.043155 0)
(-0.00277657 0.0410751 0)
(-0.00254213 0.0388496 0)
(-0.00654102 0.0712502 0)
(-0.00425486 0.0530938 0)
(-0.00381088 0.0485182 0)
(-0.0102477 0.104186 0)
(-0.0078805 0.0886705 0)
(-0.00799495 0.0891188 0)
(-0.00915994 0.0970584 0)
(-0.00775514 0.086646 0)
(-0.00842178 0.093912 0)
(-0.0078672 0.0890515 0)
(-0.00807635 0.0907994 0)
(-0.0258079 0.184533 0)
(-0.0261686 0.185154 0)
(-0.0250907 0.181486 0)
(-0.0154998 0.133796 0)
(-0.0134944 0.121798 0)
(-0.013974 0.125211 0)
(-0.0142096 0.119523 0)
(-0.0160027 0.130749 0)
(-0.0155469 0.125993 0)
(-0.0221419 0.12696 0)
(-0.0206802 0.11599 0)
(-0.0204741 0.123997 0)
(-0.015154 0.113711 0)
(-0.0146527 0.106538 0)
(-0.0161809 0.0669043 0)
(-0.0178271 0.0689719 0)
(-0.0168934 0.0601452 0)
(-0.00548534 0.0208687 0)
(-0.00523569 0.0231797 0)
(-0.00623218 0.0271892 0)
(-0.00242759 0.0155367 0)
(-0.00309997 0.0197153 0)
(-0.00277025 0.0166464 0)
(-0.00036185 0.00288747 0)
(-0.000436395 0.00360121 0)
(-0.000483719 0.00380433 0)
(-0.000679294 0.00489586 0)
(-0.000794572 0.00586156 0)
(-0.000929879 0.00651872 0)
(-0.000301879 0.00259973 0)
(-0.000274037 0.00248437 0)
(-0.000368997 0.00319476 0)
(-1.38e-05 0.000239962 0)
(-1.92168e-05 0.000258449 0)
(-1.36993e-05 0.000210684 0)
(-0.000227644 0.00195672 0)
(-0.00022854 0.0019093 0)
(-0.000175424 0.00149973 0)
(-1.06604e-05 0.000290074 0)
(-3.693e-06 0.000256446 0)
(-3.95327e-06 0.000294281 0)
(1.91218e-05 0.000374643 0)
(1.42278e-05 0.000286974 0)
(2.21547e-05 0.000333889 0)
(8.46604e-05 0.000714445 0)
(7.46476e-05 0.000698891 0)
(6.5135e-05 0.000564145 0)
(3.25352e-05 0.00031069 0)
(2.79465e-05 0.000304676 0)
(2.52657e-05 0.000259589 0)
(6.77787e-05 0.000427375 0)
(9.55014e-05 0.000586118 0)
(7.97251e-05 0.00053834 0)
(0.000166818 0.00072972 0)
(0.00011361 0.000487608 0)
(0.000150419 0.000577512 0)
(-3.08634e-05 0.000382915 0)
(-1.33462e-05 0.000340923 0)
(3.76928e-05 0.000258962 0)
(0.000167062 0.00011441 0)
(0.000100424 0.000182555 0)
(9.1878e-05 0.000163028 0)
(0.000152813 0.000348807 0)
(0.000120861 0.000245742 0)
(0.000121947 0.00015642 0)
(0.000286077 0.0003182 0)
(0.000208945 0.000520479 0)
(0.000147607 0.000392151 0)
(0.00010045 0.000379851 0)
(-0.000547437 0.00189432 0)
(-0.000750777 0.0025733 0)
(-0.000539483 0.00168976 0)
(0.00917632 0.0389964 0)
(0.011202 0.0345507 0)
(0.0141974 0.0173631 0)
(0.0137464 0.0170562 0)
(0.0143763 0.0136686 0)
(0.0176641 -0.0105546 0)
(0.0183035 -0.0127345 0)
(0.018034 -0.00902217 0)
(0.0188535 -0.0255071 0)
(0.0184788 -0.0279541 0)
(0.0190625 -0.0281904 0)
(0.0127598 0.0121617 0)
(0.0135765 0.00690053 0)
(0.0137156 0.0122766 0)
(-0.00396874 0.103777 0)
(-0.00543941 0.113083 0)
(0.00729429 0.0576906 0)
(-0.0121474 0.140222 0)
(-0.0115223 0.135721 0)
(-0.0102031 0.129069 0)
(-0.00117453 0.000917019 0)
(-0.00123924 0.000448727 0)
(-0.000828665 -0.000453641 0)
(-0.00145859 -0.00302057 0)
(-0.0021148 -0.00191523 0)
(-0.00164232 -0.00384613 0)
(0.00121597 -0.0113902 0)
(0.000889868 -0.0160192 0)
(0.000368527 -0.014856 0)
(0.000701025 -0.0160072 0)
(0.00674616 -0.0264866 0)
(0.00623051 -0.0238112 0)
(0.0188055 -0.0413774 0)
(0.018215 -0.0395143 0)
(0.0177943 -0.0418582 0)
(0.0170599 -0.0486534 0)
(0.0172127 -0.046063 0)
(0.016403 -0.0469943 0)
(-0.0172084 0.150863 0)
(-0.0133632 0.13011 0)
(-0.00812286 0.0927217 0)
(-0.00940045 0.102067 0)
(-0.0100771 0.106028 0)
(-0.0052057 0.0672329 0)
(-0.00612604 0.0753852 0)
(-0.00588489 0.0726423 0)
(-0.0101358 0.0987949 0)
(-0.0075868 0.0828629 0)
(-0.0103214 0.101337 0)
(-0.00342913 0.0483055 0)
(-0.0133554 0.133163 0)
(-0.0159269 0.146495 0)
(-0.0125766 0.127518 0)
(-0.00654893 0.0706198 0)
(-0.0037709 0.0476313 0)
(-0.00701066 0.0807751 0)
(-0.0175491 0.147201 0)
(-0.0189388 0.154048 0)
(-0.0164284 0.14071 0)
(-0.00658315 0.0763857 0)
(-0.00591319 0.0708148 0)
(-0.00674119 0.0782762 0)
(-0.029882 0.200755 0)
(-0.0300838 0.200998 0)
(-0.0288193 0.196945 0)
(-0.0101403 0.106731 0)
(-0.0100809 0.106282 0)
(-0.0103335 0.107855 0)
(-0.0118881 0.117132 0)
(-0.0136962 0.127053 0)
(-0.0125589 0.120997 0)
(-0.0265455 0.179204 0)
(-0.0257213 0.178565 0)
(-0.0274755 0.184503 0)
(-0.0225273 0.161933 0)
(-0.0242562 0.169736 0)
(-0.0239425 0.164206 0)
(-0.0226659 0.12171 0)
(-0.0186502 0.105909 0)
(-0.0199815 0.104934 0)
(-0.0183885 0.0977158 0)
(-0.0100069 0.0353211 0)
(-0.0105601 0.0420606 0)
(-0.0110146 0.0398101 0)
(-0.00539379 0.0297842 0)
(-0.00490864 0.0246343 0)
(-0.00444705 0.0249812 0)
(-0.0105242 0.0135508 0)
(-0.00876301 0.00834242 0)
(-0.00927207 0.0130169 0)
(-0.00153451 0.00789755 0)
(-0.001805 0.00980285 0)
(-0.00181848 0.00914152 0)
(-0.00196265 0.0091834 0)
(-0.00159818 0.00753955 0)
(-0.000604956 0.0045798 0)
(-0.000504019 0.0036905 0)
(-0.000413222 0.00315743 0)
(-0.000920638 0.00542107 0)
(-0.00107522 0.00653903 0)
(-0.00113331 0.00643263 0)
(-0.00101405 0.00675348 0)
(-0.000822395 0.00549362 0)
(-0.000715945 0.0049607 0)
(-7.55774e-05 0.000680513 0)
(-5.78659e-05 0.000537391 0)
(-6.50405e-05 0.000610309 0)
(-6.0158e-05 0.000603294 0)
(-4.73616e-05 0.000505507 0)
(-5.93746e-05 0.000621028 0)
(-0.000188617 0.00156023 0)
(-0.00025927 0.00210249 0)
(-0.000200899 0.00161145 0)
(-2.89968e-06 0.000196869 0)
(-7.73818e-06 0.000211755 0)
(-4.80452e-06 0.000177647 0)
(1.73731e-06 0.000186364 0)
(4.73087e-06 0.000168093 0)
(6.33298e-06 0.000203397 0)
(3.96732e-05 0.000410496 0)
(7.48516e-05 0.000569046 0)
(5.64705e-05 0.000391519 0)
(4.72315e-05 0.000428824 0)
(5.60627e-05 0.000553057 0)
(0.000167253 0.000859971 0)
(6.06982e-05 0.000296325 0)
(7.54862e-05 0.000339492 0)
(9.59882e-05 0.000463358 0)
(8.20049e-05 0.000188831 0)
(5.78195e-05 0.000167035 0)
(2.95259e-05 0.000225942 0)
(-0.000459703 0.0017048 0)
(-0.000627641 0.00238259 0)
(0.000107081 0.000265342 0)
(9.27503e-05 0.000140364 0)
(0.000125118 0.000172914 0)
(0.000132694 0.000199106 0)
(4.85812e-05 7.97049e-05 0)
(5.61035e-05 0.000103907 0)
(8.09709e-05 0.000120043 0)
(9.06009e-05 0.000247551 0)
(0.000128319 0.000393239 0)
(0.000129536 0.000449164 0)
(8.45537e-05 0.000285347 0)
(-0.00200151 0.00682201 0)
(-0.00163892 0.00524687 0)
(-0.00168576 0.00630238 0)
(-0.000420382 0.000867904 0)
(-0.000632963 0.00174598 0)
(0.0137731 0.0203153 0)
(0.0133707 0.0248533 0)
(0.0131334 0.0218076 0)
(0.0190442 -0.0199531 0)
(0.0184023 -0.0196019 0)
(0.0186125 -0.0224121 0)
(0.0170656 -0.0117962 0)
(0.0169127 -0.00768525 0)
(0.0181062 -0.0249013 0)
(0.0149811 0.00424191 0)
(0.0165352 -0.000673739 0)
(0.0170838 -0.00424675 0)
(0.0171739 -0.000924232 0)
(-0.00109989 0.00293065 0)
(-0.00116204 0.002648 0)
(-0.00107225 -0.000843692 0)
(-0.000747369 -0.00141522 0)
(-0.00218051 -0.00328562 0)
(-0.00226463 -0.00458481 0)
(-0.00178041 -0.00467671 0)
(-0.0014274 -0.0119326 0)
(-0.00171277 -0.0109353 0)
(-0.00211133 -0.0115396 0)
(0.00324451 -0.0269866 0)
(0.00410046 -0.031374 0)
(0.00392457 -0.0293851 0)
(0.0156425 -0.0530803 0)
(0.015617 -0.0549426 0)
(0.0165388 -0.0551569 0)
(0.0189479 -0.0310771 0)
(0.0183231 -0.033731 0)
(0.0192292 -0.0338767 0)
(0.0190594 -0.0361635 0)