/*--------------------------------*- C++ -*----------------------------------*\
| =========                 |                                                 |
| \\      /  F ield         | OpenFOAM: The Open Source CFD Toolbox           |
|  \\    /   O peration     | Version:  v2012                                 |
|   \\  /    A nd           | Website:  www.openfoam.com                      |
|    \\/     M anipulation  |                                                 |
\*---------------------------------------------------------------------------*/
FoamFile
{
    version     2.0;
    format      ascii;
    class       volVectorField;
    location    "0.02";
    object      cellDisplacement;
}
// * * * * * * * * * * * * * * * * * * * * * * * * * * * * * * * * * * * * * //

dimensions      [0 1 0 0 0 0 0];


internalField   nonuniform List<vector> 
11961
(
(4.17995e-14 2.84347e-13 0)
(1.51506e-13 1.0277e-12 0)
(5.09171e-14 3.49334e-13 0)
(1.51925e-13 1.02301e-12 0)
(2.51057e-13 1.70861e-12 0)
(1.26507e-14 8.72652e-14 0)
(1.02755e-13 7.04997e-13 0)
(4.44645e-13 2.99124e-12 0)
(4.4944e-13 3.05625e-12 0)
(1.90968e-14 1.32045e-13 0)
(1.2108e-13 8.32998e-13 0)
(6.74644e-13 4.56832e-12 0)
(5.68204e-13 3.80474e-12 0)
(4.3435e-13 2.97429e-12 0)
(3.8584e-14 2.66911e-13 0)
(3.5597e-15 2.47197e-14 0)
(7.21189e-14 4.98262e-13 0)
(2.06814e-13 1.42321e-12 0)
(1.20806e-12 8.17819e-12 0)
(1.34036e-12 8.97231e-12 0)
(2.13737e-13 1.42392e-12 0)
(7.55863e-13 5.17501e-12 0)
(2.03858e-14 1.41833e-13 0)
(4.33142e-15 3.0167e-14 0)
(1.07581e-13 7.44647e-13 0)
(1.92357e-13 1.32982e-12 0)
(1.68403e-12 1.13433e-11 0)
(1.24947e-12 8.52096e-12 0)
(1.67048e-12 1.11038e-11 0)
(6.8088e-13 4.51512e-12 0)
(6.0963e-13 4.2072e-12 0)
(2.98023e-14 2.0754e-13 0)
(8.13525e-15 5.67188e-14 0)
(8.74864e-16 6.11081e-15 0)
(5.65438e-14 3.93376e-13 0)
(2.66076e-13 1.84329e-12 0)
(3.14215e-12 2.11525e-11 0)
(2.16023e-12 1.47367e-11 0)
(3.07799e-12 2.04278e-11 0)
(7.41268e-13 4.87471e-12 0)
(9.81427e-13 6.77903e-12 0)
(1.59757e-14 1.1173e-13 0)
(6.0456e-15 4.22508e-14 0)
(1.24235e-15 8.693e-15 0)
(6.51454e-14 4.54211e-13 0)
(2.13132e-13 1.48374e-12 0)
(4.19324e-12 2.80368e-11 0)
(3.40482e-12 2.31142e-11 0)
(1.79733e-12 1.23722e-11 0)
(3.50335e-12 2.30369e-11 0)
(1.84668e-12 1.20804e-11 0)
(1.80156e-13 1.18673e-12 0)
(6.90885e-13 4.81e-12 0)
(7.62778e-15 5.34132e-14 0)
(2.05089e-14 1.43568e-13 0)
(2.7521e-15 1.92582e-14 0)
(5.74752e-16 4.03134e-15 0)
(1.01412e-13 7.0732e-13 0)
(3.25001e-14 2.27349e-13 0)
(2.94768e-13 2.05848e-12 0)
(7.79618e-12 5.20633e-11 0)
(5.99006e-12 4.06795e-11 0)
(2.95127e-12 2.03512e-11 0)
(6.03057e-12 3.95884e-11 0)
(2.4285e-12 1.57211e-11 0)
(3.4007e-13 2.1941e-12 0)
(1.03259e-12 7.20278e-12 0)
(5.80208e-15 4.07123e-14 0)
(1.38117e-14 9.69566e-14 0)
(2.00513e-15 1.4064e-14 0)
(1.61559e-16 1.13408e-15 0)
(9.07418e-16 6.37036e-15 0)
(7.2745e-14 5.09507e-13 0)
(3.65983e-14 2.56451e-13 0)
(2.58048e-13 1.80917e-12 0)
(9.02961e-12 5.96844e-11 0)
(9.36724e-12 6.31774e-11 0)
(5.22373e-12 3.58964e-11 0)
(1.88588e-12 1.3127e-11 0)
(6.58571e-12 4.27849e-11 0)
(4.29871e-12 2.77304e-11 0)
(1.08877e-12 7.01082e-12 0)
(6.94519e-13 4.87827e-12 0)
(2.57905e-15 1.81132e-14 0)
(7.01832e-15 4.93383e-14 0)
(2.30386e-14 1.61676e-13 0)
(2.4333e-16 1.70916e-15 0)
(5.79445e-16 4.07003e-15 0)
(8.33082e-14 5.85294e-13 0)
(3.60338e-13 2.53572e-12 0)
(1.38216e-13 9.71359e-13 0)
(1.50813e-11 9.93521e-11 0)
(1.72424e-11 1.16316e-10 0)
(8.04548e-12 5.53981e-11 0)
(2.44466e-12 1.70923e-11 0)
(1.09481e-11 7.10716e-11 0)
(6.11212e-12 3.89939e-11 0)
(1.55616e-12 9.92247e-12 0)
(1.08693e-12 7.64536e-12 0)
(1.99132e-15 1.40095e-14 0)
(5.91889e-15 4.165e-14 0)
(1.81401e-14 1.27609e-13 0)
(4.05128e-17 2.85204e-16 0)
(4.63613e-16 3.25961e-15 0)
(4.21107e-14 2.97213e-13 0)
(3.02864e-13 2.13791e-12 0)
(1.49165e-13 1.05218e-12 0)
(2.21166e-11 1.46157e-10 0)
(1.42716e-11 9.77277e-11 0)
(2.59112e-11 1.73358e-10 0)
(6.68428e-12 4.64647e-11 0)
(3.74552e-12 2.62026e-11 0)
(1.58407e-11 1.01898e-10 0)
(3.37575e-12 2.14542e-11 0)
(1.05065e-11 6.68555e-11 0)
(4.83474e-13 3.07127e-12 0)
(1.112e-12 7.84451e-12 0)
(2.74737e-15 1.93548e-14 0)
(9.21549e-16 6.48905e-15 0)
(8.12921e-15 5.72339e-14 0)
(2.08435e-14 1.47085e-13 0)
(3.78991e-17 2.66695e-16 0)
(5.6773e-16 3.9967e-15 0)
(1.54693e-16 1.08839e-15 0)
(5.44996e-14 3.85522e-13 0)
(3.66144e-13 2.5935e-12 0)
(1.03169e-13 7.29424e-13 0)
(3.07059e-11 2.00487e-10 0)
(2.07819e-11 1.43001e-10 0)
(4.65208e-11 3.11107e-10 0)
(1.09004e-11 7.58307e-11 0)
(4.38263e-12 3.08252e-11 0)
(2.48769e-11 1.6006e-10 0)
(4.0871e-12 2.56394e-11 0)
(1.47234e-11 9.27927e-11 0)
(1.36235e-12 8.58278e-12 0)
(5.81196e-13 4.117e-12 0)
(1.5425e-12 1.09022e-11 0)
(2.09568e-15 1.47787e-14 0)
(4.89995e-16 3.45731e-15 0)
(5.98955e-15 4.22372e-14 0)
(1.32064e-14 9.33425e-14 0)
(2.59064e-16 1.82445e-15 0)
(7.52636e-17 5.29907e-16 0)
(2.83894e-14 2.01637e-13 0)
(1.74385e-13 1.23977e-12 0)
(1.01143e-13 7.17716e-13 0)
(4.56715e-11 2.99392e-10 0)
(3.16055e-11 2.1743e-10 0)
(6.23204e-11 4.20102e-10 0)
(1.27562e-11 8.92939e-11 0)
(7.24639e-12 5.10242e-11 0)
(2.33753e-12 1.65204e-11 0)
(3.89324e-11 2.47747e-10 0)
(6.7108e-12 4.18432e-11 0)
(2.53524e-11 1.59483e-10 0)
(1.03598e-11 6.48043e-11 0)
(7.84568e-13 4.87984e-12 0)
(7.32485e-13 5.19983e-12 0)
(7.07216e-16 4.99272e-15 0)
(2.71622e-15 1.9168e-14 0)
(1.17113e-16 8.26772e-16 0)
(6.65184e-15 4.69962e-14 0)
(1.07889e-14 7.65075e-14 0)
(1.42983e-14 1.01588e-13 0)
(3.81781e-14 2.71658e-13 0)
(1.64861e-13 1.17517e-12 0)
(6.62888e-14 4.71479e-13 0)
(7.50335e-11 4.88058e-10 0)
(4.72113e-11 3.23197e-10 0)
(2.9209e-11 2.03527e-10 0)
(1.17107e-10 7.83197e-10 0)
(2.00972e-11 1.40879e-10 0)
(8.59242e-12 6.0812e-11 0)
(2.67876e-12 1.90074e-11 0)
(6.31156e-11 4.02086e-10 0)
(5.38699e-12 3.30658e-11 0)
(3.27235e-11 2.0279e-10 0)
(1.55492e-11 9.6454e-11 0)
(1.96797e-12 1.21237e-11 0)
(7.6142e-13 5.41672e-12 0)
(3.33377e-16 2.35518e-15 0)
(1.84172e-15 1.30123e-14 0)
(4.13711e-15 2.92603e-14 0)
(4.39809e-15 3.12258e-14 0)
(9.02811e-15 6.42794e-14 0)
(1.61715e-14 1.15517e-13 0)
(7.13078e-14 5.08676e-13 0)
(2.28047e-13 1.62747e-12 0)
(1.10147e-10 7.2097e-10 0)
(8.03286e-11 5.55097e-10 0)
(4.74928e-11 3.31416e-10 0)
(1.75702e-10 1.18718e-09 0)
(2.75656e-11 1.94262e-10 0)
(4.3734e-12 3.10615e-11 0)
(1.48659e-11 1.05369e-10 0)
(1.32107e-12 9.40441e-12 0)
(1.02313e-10 6.43763e-10 0)
(9.10618e-12 5.54997e-11 0)
(4.81944e-11 2.96785e-10 0)
(1.45199e-11 8.90941e-11 0)
(1.22216e-12 7.393e-12 0)
(3.93297e-13 2.80552e-12 0)
(6.79261e-16 4.80233e-15 0)
(2.12881e-15 1.50588e-14 0)
(3.1626e-15 2.24192e-14 0)
(3.19384e-15 2.27268e-14 0)
(4.23602e-15 3.01759e-14 0)
(8.77942e-15 6.26764e-14 0)
(1.52918e-14 1.0946e-13 0)
(5.01153e-14 3.58331e-13 0)
(1.05168e-13 7.53574e-13 0)
(1.76764e-10 1.14593e-09 0)
(1.33097e-10 9.19011e-10 0)
(5.0299e-11 3.54289e-10 0)
(2.88704e-10 1.93558e-09 0)
(4.26528e-12 3.04125e-11 0)
(1.47746e-11 1.05306e-10 0)
(1.29402e-12 9.2374e-12 0)
(7.64948e-11 4.7191e-10 0)
(1.58034e-10 9.99608e-10 0)
(8.95926e-12 5.38043e-11 0)
(3.5721e-11 2.16377e-10 0)
(2.00805e-11 1.21932e-10 0)
(2.59411e-12 1.55032e-11 0)
(4.05109e-13 2.89687e-12 0)
(2.71552e-16 1.92238e-15 0)
(1.42424e-15 1.00882e-14 0)
(1.77368e-15 1.25792e-14 0)
(1.42277e-15 1.01317e-14 0)
(2.80097e-15 1.99895e-14 0)
(5.17581e-15 3.7015e-14 0)
(6.26827e-15 4.50296e-14 0)
(2.36571e-14 1.6937e-13 0)
(5.52146e-14 3.95863e-13 0)
(1.14975e-13 8.25002e-13 0)
(2.58245e-10 1.68931e-09 0)
(2.08234e-10 1.45152e-09 0)
(6.88285e-11 4.87e-10 0)
(4.41093e-10 2.99115e-09 0)
(6.35382e-12 4.5384e-11 0)
(1.99417e-12 1.42504e-11 0)
(2.15103e-11 1.538e-10 0)
(6.22471e-13 4.45312e-12 0)
(1.13955e-10 6.90097e-10 0)
(2.3807e-10 1.49021e-09 0)
(5.03841e-12 3.00922e-11 0)
(1.68146e-11 1.00565e-10 0)
(5.39347e-11 3.23788e-10 0)
(8.1061e-13 4.78503e-12 0)
(1.80886e-13 1.29737e-12 0)
(5.48466e-16 3.88748e-15 0)
(1.21338e-15 8.61926e-15 0)
(1.03315e-15 7.37382e-15 0)
(1.38785e-15 9.91376e-15 0)
(2.82929e-15 2.02351e-14 0)
(4.03412e-15 2.89475e-14 0)
(5.10206e-15 3.68029e-14 0)
(1.59393e-14 1.14496e-13 0)
(3.97816e-14 2.86026e-13 0)
(4.94821e-14 3.56456e-13 0)
(3.91349e-10 2.53368e-09 0)
(3.65623e-10 2.544e-09 0)
(1.23027e-10 8.69948e-10 0)
(3.76295e-11 2.688e-10 0)
(6.87878e-10 4.61298e-09 0)
(4.87073e-12 3.49343e-11 0)
(1.66265e-12 1.19173e-11 0)
(1.14669e-11 8.25983e-11 0)
(5.41125e-13 3.87976e-12 0)
(1.81693e-10 1.09541e-09 0)
(2.5322e-10 1.54865e-09 0)
(3.25088e-10 2.05989e-09 0)
(6.40433e-12 3.76078e-11 0)
(2.00751e-11 1.18304e-10 0)
(5.76357e-11 3.38932e-10 0)
(2.3595e-12 1.38123e-11 0)
(1.73595e-13 1.24718e-12 0)
(2.45446e-16 1.74263e-15 0)
(5.26504e-16 3.74226e-15 0)
(5.13882e-16 3.67191e-15 0)
(9.41599e-16 6.74244e-15 0)
(1.76028e-15 1.26306e-14 0)
(2.40447e-15 1.7325e-14 0)
(7.22459e-15 5.20846e-14 0)
(1.9601e-15 1.43481e-14 0)
(1.51537e-14 1.09263e-13 0)
(2.11314e-14 1.52365e-13 0)
(4.10332e-14 2.96598e-13 0)
(5.88297e-10 3.83834e-09 0)
(5.59667e-10 3.93165e-09 0)
(1.47269e-10 1.05508e-09 0)
(4.53523e-11 3.2609e-10 0)
(1.04622e-09 7.09117e-09 0)
(2.25342e-12 1.61797e-11 0)
(5.83452e-12 4.20078e-11 0)
(7.67845e-13 5.51138e-12 0)
(1.43726e-11 1.03996e-10 0)
(2.69524e-13 1.93594e-12 0)
(1.68889e-10 9.82692e-10 0)
(4.28897e-10 2.60582e-09 0)
(4.79789e-10 2.9996e-09 0)
(1.02046e-11 5.96621e-11 0)
(3.05399e-11 1.78951e-10 0)
(8.57513e-11 4.98121e-10 0)
(2.6929e-12 1.55105e-11 0)
(9.01634e-14 6.5021e-13 0)
(3.42237e-16 2.43796e-15 0)
(4.66336e-16 3.34137e-15 0)
(9.31821e-16 6.69085e-15 0)
(1.54486e-15 1.11373e-14 0)
(1.52242e-15 1.10898e-14 0)
(4.99088e-15 3.63358e-14 0)
(1.49565e-15 1.12057e-14 0)
(6.27093e-15 4.57374e-14 0)
(1.59738e-14 1.16092e-13 0)
(1.97917e-14 1.44116e-13 0)
(5.159e-14 3.73144e-13 0)
(8.82164e-10 5.67295e-09 0)
(4.14165e-10 2.96363e-09 0)
(9.59303e-10 6.68914e-09 0)
(2.22774e-10 1.60194e-09 0)
(7.08405e-11 5.10199e-10 0)
(2.39497e-11 1.73304e-10 0)
(1.5888e-09 1.05915e-08 0)
(1.69109e-12 1.21804e-11 0)
(3.9906e-12 2.88231e-11 0)
(5.57657e-13 4.01076e-12 0)
(7.19417e-12 5.23002e-11 0)
(2.15325e-13 1.55037e-12 0)
(2.5956e-10 1.49039e-09 0)
(5.50193e-10 3.26937e-09 0)
(7.06636e-10 4.42683e-09 0)
(1.20808e-11 6.93566e-11 0)
(3.21661e-11 1.84676e-10 0)
(8.25949e-11 4.6722e-10 0)
(6.08558e-13 3.52273e-12 0)
(5.76826e-12 3.29704e-11 0)
(1.0237e-13 7.39545e-13 0)
(1.21308e-16 8.65494e-16 0)
(3.1194e-16 2.24284e-15 0)
(6.31257e-16 4.55868e-15 0)
(9.6881e-16 7.0777e-15 0)
(9.25311e-16 6.89183e-15 0)
(2.36747e-15 1.75486e-14 0)
(7.34809e-16 5.9406e-15 0)
(5.37449e-15 3.97586e-14 0)
(7.66479e-15 5.64896e-14 0)
(1.50739e-14 1.11497e-13 0)
(3.527e-14 2.57688e-13 0)
(1.31175e-09 8.48677e-09 0)
(6.15151e-10 4.45191e-09 0)
(1.4677e-09 1.03169e-08 0)
(2.2791e-10 1.6628e-09 0)
(6.24068e-11 4.53825e-10 0)
(2.92121e-11 2.12422e-10 0)
(2.5159e-09 1.69516e-08 0)
(2.08047e-12 1.5027e-11 0)
(7.8149e-13 5.63979e-12 0)
(3.98654e-12 2.89287e-11 0)
(5.32416e-13 3.83942e-12 0)
(2.70161e-13 1.94631e-12 0)
(7.48259e-12 5.46363e-11 0)
(4.07364e-10 2.35415e-09 0)
(2.17383e-10 1.20791e-09 0)
(9.08762e-10 5.43485e-09 0)
(9.52299e-10 5.87226e-09 0)
(1.86035e-11 1.0609e-10 0)
(4.49379e-11 2.55163e-10 0)
(1.19143e-10 6.60946e-10 0)
(7.90059e-13 4.4442e-12 0)
(6.80676e-12 3.82406e-11 0)
(7.62577e-14 5.53376e-13 0)
(1.38469e-16 9.94272e-16 0)
(3.19128e-16 2.30918e-15 0)
(5.54509e-16 4.04777e-15 0)
(5.68113e-16 4.50085e-15 0)
(1.59532e-15 1.23843e-14 0)
(4.47207e-16 3.87978e-15 0)
(7.05595e-16 6.05387e-15 0)
(2.52715e-15 1.95428e-14 0)
(5.97749e-15 4.5375e-14 0)
(7.54081e-15 5.74008e-14 0)
(1.79809e-14 1.33766e-13 0)
(3.98993e-14 2.91954e-13 0)
(1.90676e-09 1.20991e-08 0)
(9.80619e-10 7.10133e-09 0)
(3.55536e-10 2.60632e-09 0)
(2.2833e-09 1.58626e-08 0)
(1.34343e-09 9.63709e-09 0)
(1.28375e-10 9.41942e-10 0)
(7.51633e-11 5.49992e-10 0)
(2.2183e-11 1.62133e-10 0)
(3.84979e-09 2.5419e-08 0)
(1.41006e-12 1.02222e-11 0)
(5.35075e-13 3.88292e-12 0)
(2.66987e-12 1.94163e-11 0)
(3.16343e-13 2.28834e-12 0)
(2.15422e-13 1.55665e-12 0)
(1.13068e-11 8.26714e-11 0)
(3.3663e-12 2.46415e-11 0)
(5.81964e-10 3.26451e-09 0)
(3.31374e-10 1.81598e-09 0)
(1.29534e-09 7.61037e-09 0)
(1.45186e-09 8.97397e-09 0)
(2.32094e-11 1.29709e-10 0)
(3.90841e-11 2.16987e-10 0)
(1.11107e-10 5.98427e-10 0)
(2.25428e-12 1.26498e-11 0)
(1.17128e-11 6.53362e-11 0)
(7.07641e-14 5.1573e-13 0)
(5.5345e-17 4.00881e-16 0)
(2.20981e-16 1.6189e-15 0)
(3.62095e-16 2.69386e-15 0)
(2.70551e-16 2.30132e-15 0)
(1.51618e-15 1.20864e-14 0)
(2.06079e-16 2.81144e-15 0)
(4.57396e-16 4.89705e-15 0)
(1.97359e-15 1.64234e-14 0)
(2.68083e-15 2.18999e-14 0)
(5.17587e-15 4.28667e-14 0)
(1.24087e-14 9.6726e-14 0)
(3.12517e-14 2.33615e-13 0)
(2.93273e-09 1.86898e-08 0)
(9.35445e-10 6.92271e-09 0)
(4.40086e-10 3.2602e-09 0)
(3.61565e-09 2.54376e-08 0)
(2.36937e-09 1.70971e-08 0)
(1.23178e-10 9.15783e-10 0)
(4.93628e-11 3.63799e-10 0)
(2.67175e-11 1.96578e-10 0)
(6.25979e-09 4.17841e-08 0)
(7.10342e-13 5.16094e-12 0)
(1.53798e-12 1.11853e-11 0)
(2.71466e-13 1.98408e-12 0)
(2.27887e-12 1.6646e-11 0)
(1.95711e-13 1.42673e-12 0)
(1.30614e-13 9.49407e-13 0)
(8.19787e-12 6.0239e-11 0)
(2.83068e-12 2.08132e-11 0)
(8.82543e-10 4.91775e-09 0)
(4.32404e-10 2.30195e-09 0)
(1.28171e-09 7.25765e-09 0)
(1.89636e-09 1.14422e-08 0)
(5.00463e-11 2.73644e-10 0)
(1.4822e-10 7.78538e-10 0)
(2.65478e-12 1.4709e-11 0)
(1.22133e-11 6.70177e-11 0)
(4.1823e-14 3.09346e-13 0)
(8.73038e-14 6.3639e-13 0)
(6.39692e-17 4.7521e-16 0)
(2.16026e-16 1.61116e-15 0)
(1.10034e-16 8.18027e-16 0)
(2.41913e-16 1.89767e-15 0)
(1.01913e-16 1.45239e-15 0)
(8.13771e-16 8.05855e-15 0)
(6.06518e-17 1.69586e-15 0)
(1.75193e-16 3.13388e-15 0)
(3.93012e-16 5.06742e-15 0)
(7.79139e-16 8.51803e-15 0)
(1.98077e-15 1.8594e-14 0)
(5.97179e-15 5.05074e-14 0)
(2.3365e-15 2.25023e-14 0)
(1.12693e-14 9.21584e-14 0)
(1.62283e-14 1.2851e-13 0)
(3.86911e-09 2.40114e-08 0)
(1.42257e-09 1.05808e-08 0)
(3.40711e-10 2.54601e-09 0)
(5.76655e-09 4.03299e-08 0)
(2.64621e-09 1.94852e-08 0)
(1.69947e-10 1.26981e-09 0)
(5.49429e-11 4.08252e-10 0)
(1.74048e-11 1.28599e-10 0)
(8.65213e-09 5.64077e-08 0)
(4.91286e-13 3.59438e-12 0)
(1.12924e-12 8.2507e-12 0)
(1.82799e-13 1.34042e-12 0)
(1.99355e-13 1.47882e-12 0)
(1.43076e-12 1.04747e-11 0)
(1.04107e-13 7.65835e-13 0)
(3.97623e-12 2.92657e-11 0)
(9.39064e-12 6.92873e-11 0)
(1.37976e-12 1.01885e-11 0)
(7.45823e-10 3.94874e-09 0)
(2.63061e-10 1.37235e-09 0)
(2.02698e-09 1.12933e-08 0)
(2.6781e-09 1.61171e-08 0)
(3.71333e-11 1.99968e-10 0)
(8.25533e-11 4.26567e-10 0)
(5.28056e-12 2.90782e-11 0)
(6.64244e-13 3.67707e-12 0)
(1.79726e-11 9.75445e-11 0)
(5.38765e-14 4.01251e-13 0)
(1.32001e-17 1.06589e-16 0)
(1.39063e-16 1.09743e-15 0)
(8.52903e-17 6.77687e-16 0)
(1.34919e-16 1.13561e-15 0)
(4.71405e-17 8.85467e-16 0)
(-7.84093e-17 1.7286e-15 0)
(-2.72394e-18 3.42876e-15 0)
(8.5096e-17 4.48999e-15 0)
(4.75712e-16 8.42272e-15 0)
(7.62945e-16 1.05847e-14 0)
(3.662e-15 4.00232e-14 0)
(1.07531e-15 1.76741e-14 0)
(4.5636e-15 4.85142e-14 0)
(1.38827e-14 1.23604e-13 0)
(5.47513e-09 3.38359e-08 0)
(1.03518e-09 7.86614e-09 0)
(3.79814e-10 2.87729e-09 0)
(8.45358e-09 5.99869e-08 0)
(3.82839e-09 2.84631e-08 0)
(1.31825e-10 9.94837e-10 0)
(3.96455e-11 2.9632e-10 0)
(1.58394e-11 1.17858e-10 0)
(1.37318e-08 9.03405e-08 0)
(7.06368e-09 4.43972e-08 0)
(4.81971e-13 3.54476e-12 0)
(2.42333e-13 1.79269e-12 0)
(6.46057e-13 4.74233e-12 0)
(1.0656e-13 8.0849e-13 0)
(1.01509e-13 7.85485e-13 0)
(1.10753e-12 8.15107e-12 0)
(6.90524e-14 5.23298e-13 0)
(2.86402e-12 2.12067e-11 0)
(6.13149e-12 4.54111e-11 0)
(1.03798e-12 7.73841e-12 0)
(1.1154e-09 5.78329e-09 0)
(2.99089e-10 1.49528e-09 0)
(3.00279e-09 1.70402e-08 0)
(1.72928e-09 9.1454e-09 0)
(3.34106e-09 1.96349e-08 0)
(4.27277e-11 2.2482e-10 0)
(9.7768e-11 4.89729e-10 0)
(4.8389e-12 2.6183e-11 0)
(1.57336e-12 8.59635e-12 0)
(1.4146e-11 7.55942e-11 0)
(3.95322e-14 3.05034e-13 0)
(2.30503e-17 2.14431e-16 0)
(4.79046e-17 4.37231e-16 0)
(8.0086e-17 8.16213e-16 0)
(-2.89055e-17 7.49561e-16 0)
(-2.30816e-16 2.38777e-15 0)
(-7.85768e-17 1.03746e-15 0)
(-2.39694e-16 2.89841e-15 0)
(-1.72091e-16 5.23424e-15 0)
(-9.17239e-17 6.40721e-15 0)
(3.84292e-16 1.14601e-14 0)
(1.20439e-15 2.57161e-14 0)
(5.6645e-16 1.80646e-14 0)
(3.09161e-15 5.01435e-14 0)
(4.79984e-15 6.69627e-14 0)
(1.95338e-14 1.66164e-13 0)
(5.24909e-09 3.09567e-08 0)
(5.48462e-10 4.17531e-09 0)
(1.50635e-09 1.16082e-08 0)
(1.86878e-10 1.4218e-09 0)
(5.87618e-09 4.33277e-08 0)
(1.35318e-08 9.49219e-08 0)
(2.47845e-09 1.90815e-08 0)
(6.88147e-11 5.19837e-10 0)
(2.09381e-11 1.56346e-10 0)
(4.32779e-11 3.25903e-10 0)
(7.53376e-12 5.62401e-11 0)
(1.63805e-08 1.02593e-07 0)
(1.64292e-08 1.11104e-07 0)
(1.03195e-08 6.34912e-08 0)
(2.31892e-13 1.75464e-12 0)
(1.73564e-13 1.32488e-12 0)
(5.07921e-13 3.78137e-12 0)
(6.08612e-14 4.78417e-13 0)
(8.16176e-14 6.80561e-13 0)
(6.44638e-13 4.79227e-12 0)
(4.17092e-14 3.2503e-13 0)
(3.40356e-12 2.52598e-11 0)
(1.37098e-12 1.02268e-11 0)
(5.22302e-12 3.89099e-11 0)
(5.80837e-13 4.39941e-12 0)
(8.84048e-10 4.3334e-09 0)
(1.57463e-10 7.79831e-10 0)
(4.5498e-10 2.2282e-09 0)
(3.93176e-09 2.14515e-08 0)
(2.66769e-09 1.38308e-08 0)
(2.99763e-11 1.54813e-10 0)
(5.88732e-11 2.90346e-10 0)
(6.92521e-12 3.70876e-11 0)
(8.79912e-13 4.72448e-12 0)
(1.6455e-11 8.63113e-11 0)
(2.51793e-18 4.72412e-17 0)
(3.10633e-17 4.07471e-16 0)
(4.04833e-17 5.39884e-16 0)
(-2.58687e-17 5.10252e-16 0)
(-3.96152e-16 2.56313e-15 0)
(-1.9129e-16 1.40399e-15 0)
(-5.60367e-16 4.4569e-15 0)
(-5.09544e-16 4.87991e-15 0)
(-6.13806e-16 9.35427e-15 0)
(-3.60917e-16 1.11949e-14 0)
(-4.382e-16 2.68974e-14 0)
(-9.84587e-16 1.87897e-14 0)
(-3.02217e-16 3.3752e-14 0)
(2.02182e-15 7.26585e-14 0)
(1.38177e-14 1.52479e-13 0)
(7.26692e-09 4.21564e-08 0)
(4.90603e-10 3.79487e-09 0)
(7.46673e-10 5.83163e-09 0)
(1.76848e-10 1.35726e-09 0)
(7.72583e-09 5.83364e-08 0)
(1.6424e-08 1.19287e-07 0)
(3.16523e-09 2.47349e-08 0)
(5.14554e-11 3.92314e-10 0)
(1.4186e-11 1.06596e-10 0)
(2.54716e-11 1.93014e-10 0)
(7.56419e-12 5.68049e-11 0)
(2.58143e-08 1.59942e-07 0)
(2.86375e-08 1.92169e-07 0)
(1.05362e-08 6.22039e-08 0)
(2.34634e-13 1.80469e-12 0)
(1.13104e-13 9.20855e-13 0)
(3.84558e-14 3.42606e-13 0)
(3.68262e-14 3.84593e-13 0)
(4.83581e-13 3.66067e-12 0)
(2.24089e-14 2.08579e-13 0)
(2.70645e-12 2.02382e-11 0)
(9.41563e-13 7.16334e-12 0)
(3.57536e-12 2.67599e-11 0)
(4.27423e-13 3.34092e-12 0)
(1.37126e-09 6.46305e-09 0)
(1.60109e-10 7.52978e-10 0)
(4.05345e-10 1.88351e-09 0)
(5.92117e-09 3.25882e-08 0)
(3.15295e-09 1.57258e-08 0)
(3.31464e-11 1.66287e-10 0)
(7.79203e-11 3.70427e-10 0)
(6.74901e-12 3.54932e-11 0)
(1.61053e-12 8.50611e-12 0)
(1.14189e-11 5.91436e-11 0)
(-2.76651e-19 1.10135e-16 0)
(8.4621e-19 2.05547e-16 0)
(5.35465e-18 4.22045e-16 0)
(-7.48988e-17 5.97835e-16 0)
(-7.12183e-16 4.1249e-15 0)
(-2.73361e-16 1.65981e-15 0)
(-9.13226e-16 5.63847e-15 0)
(-1.15481e-15 8.24558e-15 0)
(-1.33194e-15 1.01261e-14 0)
(-1.2413e-15 1.52219e-14 0)
(-1.95595e-15 2.33321e-14 0)
(-2.9251e-15 4.56106e-14 0)
(3.42232e-15 9.68663e-14 0)
(-2.5416e-15 5.62562e-14 0)
(2.60528e-10 2.01446e-09 0)
(7.12409e-10 5.64852e-09 0)
(9.49659e-11 7.30627e-10 0)
(5.34089e-09 4.15005e-08 0)
(1.16796e-08 8.78488e-08 0)
(2.62216e-08 1.89251e-07 0)
(2.29955e-09 1.83204e-08 0)
(2.67312e-11 2.03919e-10 0)
(5.81272e-11 4.45919e-10 0)
(1.4734e-11 1.11459e-10 0)
(5.61403e-12 4.23834e-11 0)
(3.53877e-08 2.26089e-07 0)
(2.44781e-08 1.42225e-07 0)
(3.31396e-08 2.3061e-07 0)
(1.42159e-08 8.1871e-08 0)
(1.69609e-13 1.39455e-12 0)
(7.95027e-14 7.47369e-13 0)
(2.7394e-14 2.88584e-13 0)
(2.01125e-14 2.13742e-13 0)
(1.91804e-14 3.44717e-13 0)
(2.72197e-13 2.19521e-12 0)
(1.48532e-12 1.12673e-11 0)
(9.34332e-13 7.18798e-12 0)
(4.96501e-13 3.89818e-12 0)
(2.82257e-12 2.13279e-11 0)
(2.35573e-13 1.98111e-12 0)
(2.13708e-09 1.01731e-08 0)
(9.17511e-10 4.02773e-09 0)
(2.21615e-10 1.01605e-09 0)
(5.07611e-10 2.26627e-09 0)
(8.25808e-09 4.43279e-08 0)
(5.05256e-09 2.49751e-08 0)
(2.73219e-11 1.33671e-10 0)
(6.66297e-11 3.07596e-10 0)
(3.37333e-12 1.77571e-11 0)
(4.25181e-13 2.23159e-12 0)
(1.07399e-11 5.44053e-11 0)
(-4.63623e-18 4.2874e-17 0)
(-1.66228e-17 2.76131e-16 0)
(-1.65863e-17 3.42428e-16 0)
(-1.452e-16 9.19241e-16 0)
(-4.51172e-17 4.11696e-16 0)
(-8.72082e-16 4.80775e-15 0)
(-9.69427e-16 5.60585e-15 0)
(-5.22864e-16 2.88309e-15 0)
(-1.46654e-15 8.80777e-15 0)
(-2.65471e-15 1.76571e-14 0)
(-2.54867e-15 1.9591e-14 0)
(-4.16286e-15 3.35384e-14 0)
(-5.4862e-15 4.46722e-14 0)
(-3.8451e-15 1.10428e-13 0)
(-7.13282e-15 8.22025e-14 0)
(1.91868e-10 1.49572e-09 0)
(9.9289e-10 7.96246e-09 0)
(3.13535e-10 2.48558e-09 0)
(9.72477e-11 7.54978e-10 0)
(7.05991e-09 5.62028e-08 0)
(1.47732e-08 1.14158e-07 0)
(3.085e-08 2.31556e-07 0)
(3.93526e-09 3.17962e-08 0)
(1.5178e-09 1.21704e-08 0)
(2.38615e-11 1.83368e-10 0)
(3.87615e-11 2.99006e-10 0)
(9.32622e-12 7.09922e-11 0)
(5.51717e-12 4.19565e-11 0)
(3.17678e-12 2.40739e-11 0)
(5.90576e-08 3.73482e-07 0)
(3.58775e-08 2.01995e-07 0)
(5.2783e-08 3.66457e-07 0)
(1.27258e-08 6.99556e-08 0)
(1.68422e-13 1.4475e-12 0)
(9.22515e-14 8.53603e-13 0)
(3.00685e-14 4.46226e-13 0)
(1.1123e-14 2.25333e-13 0)
(9.67185e-15 1.80522e-13 0)
(-3.31267e-15 2.61297e-13 0)
(1.42241e-12 1.09377e-11 0)
(5.71589e-13 4.75428e-12 0)
(3.30772e-13 2.86123e-12 0)
(1.92956e-13 1.83984e-12 0)
(2.89077e-09 1.30072e-08 0)
(1.28938e-09 5.32907e-09 0)
(2.38266e-10 1.02862e-09 0)
(3.75406e-10 1.57851e-09 0)
(7.00418e-09 3.55098e-08 0)
(4.35433e-09 1.98642e-08 0)
(1.47041e-11 7.2867e-11 0)
(3.52086e-11 1.66326e-10 0)
(7.8318e-11 3.42091e-10 0)
(3.46927e-12 1.79171e-11 0)
(9.02034e-13 4.64348e-12 0)
(5.26555e-12 2.68674e-11 0)
(-2.05623e-17 1.41497e-16 0)
(-3.74563e-17 2.63509e-16 0)
(-1.99196e-16 1.14409e-15 0)
(-7.71777e-17 5.13386e-16 0)
(-1.47437e-15 8.02568e-15 0)
(-1.91281e-15 1.06063e-14 0)
(-8.15781e-16 4.3903e-15 0)
(-2.57197e-15 1.46883e-14 0)
(-3.84019e-15 2.25545e-14 0)
(-4.68058e-15 3.05846e-14 0)
(-5.39423e-15 3.57732e-14 0)
(-1.0385e-14 7.01452e-14 0)
(-6.96554e-15 1.37053e-13 0)
(-1.33589e-14 1.04018e-13 0)
(1.93447e-10 1.52235e-09 0)
(5.70894e-10 4.66449e-09 0)
(2.35221e-10 1.89097e-09 0)
(6.88991e-11 5.37062e-10 0)
(1.09141e-08 8.70801e-08 0)
(2.14758e-08 1.65943e-07 0)
(4.98632e-08 3.73964e-07 0)
(3.65453e-09 3.01413e-08 0)
(1.80825e-09 1.47819e-08 0)
(1.42689e-11 1.10008e-10 0)
(4.00027e-11 3.10623e-10 0)
(7.60673e-12 5.85287e-11 0)
(3.51676e-12 2.70735e-11 0)
(2.48491e-12 1.91305e-11 0)
(7.01666e-08 4.20039e-07 0)
(6.74623e-08 4.51296e-07 0)
(5.37568e-08 3.05215e-07 0)
(2.49132e-08 1.32799e-07 0)
(5.93497e-08 4.28381e-07 0)
(1.57358e-08 8.3817e-08 0)
(8.48765e-14 1.04952e-12 0)
(5.51841e-14 7.52763e-13 0)
(1.09813e-14 4.82562e-13 0)
(-1.57395e-15 2.0404e-13 0)
(1.3858e-16 1.56657e-13 0)
(-2.21489e-14 3.27626e-13 0)
(1.02296e-12 8.19812e-12 0)
(5.359e-13 4.6623e-12 0)
(3.07318e-13 2.8303e-12 0)
(1.08127e-13 1.46967e-12 0)
(2.14077e-09 8.91041e-09 0)
(8.15675e-10 3.13232e-09 0)
(1.22099e-10 5.20975e-10 0)
(4.20716e-10 1.67651e-09 0)
(1.06902e-08 5.24131e-08 0)
(6.40602e-09 2.80969e-08 0)
(1.23493e-11 5.94975e-11 0)
(2.89853e-11 1.33217e-10 0)
(3.76093e-11 1.66327e-10 0)
(1.78158e-12 9.16373e-12 0)
(3.12914e-13 1.58331e-12 0)
(4.78428e-12 2.38238e-11 0)
(-1.40578e-17 7.82407e-17 0)
(-7.81221e-17 4.77104e-16 0)
(-3.28204e-16 1.77036e-15 0)
(-1.93119e-15 1.04304e-14 0)
(-1.89897e-15 1.03646e-14 0)
(-2.7471e-15 1.52224e-14 0)
(-5.73505e-16 3.0552e-15 0)
(-1.41584e-15 7.57749e-15 0)
(-3.62868e-15 2.0656e-14 0)
(-6.80917e-15 3.91108e-14 0)
(-6.67596e-15 3.91694e-14 0)
(-1.05916e-14 6.3711e-14 0)
(-1.28419e-14 8.7183e-14 0)
(-1.32e-14 7.93481e-14 0)
(-2.1834e-14 1.74924e-13 0)
(-2.38654e-14 1.56486e-13 0)
(1.10358e-10 8.71487e-10 0)
(7.55456e-10 6.25734e-09 0)
(2.91428e-10 2.37036e-09 0)
(1.1924e-10 9.5793e-10 0)
(6.53669e-11 5.13752e-10 0)
(1.52016e-08 1.23668e-07 0)
(2.5154e-08 2.00893e-07 0)
(6.12489e-08 4.78497e-07 0)
(4.45504e-09 3.75019e-08 0)
(1.34725e-09 1.1146e-08 0)
(1.22914e-11 9.58794e-11 0)
(9.25276e-12 7.13661e-11 0)
(2.7945e-11 2.18151e-10 0)
(3.64939e-12 2.87085e-11 0)
(2.5722e-12 2.02524e-11 0)
(1.64566e-12 1.30294e-11 0)
(1.18424e-07 7.06695e-07 0)
(1.06472e-07 7.17762e-07 0)
(7.3256e-08 3.93731e-07 0)
(2.92986e-08 1.47641e-07 0)
(9.42769e-08 6.76994e-07 0)
(1.45048e-08 7.35149e-08 0)
(5.10762e-14 1.01981e-12 0)
(1.76546e-14 6.36188e-13 0)
(-1.67995e-14 3.75371e-13 0)
(-1.52206e-14 2.18551e-13 0)
(-1.25698e-14 1.82553e-13 0)
(-4.63474e-14 3.78309e-13 0)
(1.01791e-12 8.31881e-12 0)
(3.19635e-13 3.60409e-12 0)
(1.49272e-13 2.15067e-12 0)
(5.66343e-14 1.46781e-12 0)
(2.9014e-09 1.14315e-08 0)
(1.00749e-09 3.56861e-09 0)
(1.18283e-10 4.70284e-10 0)
(3.23451e-10 1.21667e-09 0)
(9.78857e-09 4.41257e-08 0)
(4.73866e-09 1.90311e-08 0)
(1.60489e-11 7.50371e-11 0)
(6.33167e-12 3.09001e-11 0)
(3.31617e-11 1.41215e-10 0)
(2.30549e-12 1.1632e-11 0)
(8.5006e-13 4.21164e-12 0)
(-4.36985e-17 2.3313e-16 0)
(-1.16675e-16 6.45133e-16 0)
(-2.16468e-16 1.15284e-15 0)
(-3.36999e-15 1.82693e-14 0)
(-3.36676e-15 1.83167e-14 0)
(-4.82583e-15 2.65407e-14 0)
(-1.00625e-15 5.32079e-15 0)
(-2.35397e-15 1.25928e-14 0)
(-6.90212e-15 3.84948e-14 0)
(-9.80014e-15 5.48566e-14 0)
(-1.23165e-14 7.09805e-14 0)
(-2.27278e-14 1.3855e-13 0)
(-2.501e-14 1.44902e-13 0)
(-2.7332e-14 2.25164e-13 0)
(-2.96561e-14 1.94934e-13 0)
(-2.87189e-14 1.72973e-13 0)
(8.63398e-11 6.87982e-10 0)
(4.42398e-10 3.73389e-09 0)
(1.93876e-10 1.5921e-09 0)
(9.04318e-11 7.35283e-10 0)
(4.18728e-11 3.30595e-10 0)
(1.29624e-08 1.08899e-07 0)
(3.79319e-08 3.06436e-07 0)
(1.01626e-07 7.92785e-07 0)
(2.30277e-09 1.96555e-08 0)
(7.10013e-09 6.01963e-08 0)
(1.39738e-09 1.17914e-08 0)
(7.39696e-12 5.78572e-11 0)
(1.49954e-11 1.17447e-10 0)
(2.65651e-11 2.09088e-10 0)
(3.41258e-12 2.7508e-11 0)
(1.56067e-12 1.30325e-11 0)
(1.15661e-12 9.65313e-12 0)
(1.59522e-07 9.84493e-07 0)
(1.07506e-07 5.88329e-07 0)
(1.41878e-07 9.33256e-07 0)
(6.41121e-08 3.18938e-07 0)
(4.11235e-08 2.01769e-07 0)
(1.89091e-08 9.292e-08 0)
(1.26021e-07 9.27058e-07 0)
(-1.8847e-14 9.87686e-13 0)
(-3.07132e-14 6.78038e-13 0)
(-4.68925e-14 5.41627e-13 0)
(-3.26951e-14 2.71798e-13 0)
(-8.869e-14 6.25211e-13 0)
(6.1406e-13 5.91934e-12 0)
(2.9247e-13 3.79091e-12 0)
(1.15996e-13 2.28128e-12 0)
(-3.57316e-14 1.45473e-12 0)
(2.37086e-09 8.64262e-09 0)
(6.16855e-10 2.06322e-09 0)
(1.56558e-09 5.44898e-09 0)
(1.64642e-10 6.25664e-10 0)
(4.73106e-11 1.93757e-10 0)
(3.66529e-10 1.26781e-09 0)
(1.48363e-08 6.45651e-08 0)
(6.29751e-09 2.34268e-08 0)
(1.35339e-11 6.19734e-11 0)
(5.53243e-12 2.63303e-11 0)
(1.65984e-11 7.30982e-11 0)
(1.90884e-12 9.43313e-12 0)
(2.83321e-13 1.3931e-12 0)
(-2.88681e-17 1.48142e-16 0)
(-7.9728e-17 4.26498e-16 0)
(-3.60713e-16 1.88859e-15 0)
(-5.00673e-15 2.71267e-14 0)
(-5.47073e-15 2.98326e-14 0)
(-7.03072e-15 3.88014e-14 0)
(-5.38265e-15 2.93789e-14 0)
(-1.72778e-15 9.15249e-15 0)
(-6.43232e-16 3.36059e-15 0)
(-4.07966e-15 2.19268e-14 0)
(-1.69429e-14 9.47335e-14 0)
(-2.07286e-14 1.17694e-13 0)
(-2.83674e-14 1.65107e-13 0)
(-3.09457e-14 1.76106e-13 0)
(-5.14245e-14 3.4642e-13 0)
(-6.14415e-14 3.72609e-13 0)
(-4.77077e-14 2.78595e-13 0)
(5.17469e-11 4.14693e-10 0)
(5.66256e-10 4.8603e-09 0)
(2.27041e-10 1.91814e-09 0)
(1.70058e-10 1.41854e-09 0)
(1.09106e-10 8.93637e-10 0)
(5.29658e-11 4.33872e-10 0)
(3.49212e-11 2.78521e-10 0)
(2.1854e-08 1.86553e-07 0)
(3.81581e-08 3.20332e-07 0)
(1.21509e-07 9.90671e-07 0)
(2.25045e-09 1.97286e-08 0)
(6.2233e-09 5.47662e-08 0)
(9.25575e-10 7.91654e-09 0)
(5.5333e-12 4.39862e-11 0)
(1.28385e-11 1.02025e-10 0)
(1.76862e-11 1.40483e-10 0)
(1.87345e-12 1.6324e-11 0)
(1.0257e-12 9.64562e-12 0)
(6.62092e-13 6.45428e-12 0)
(2.48951e-07 1.49014e-06 0)
(1.46629e-07 7.64498e-07 0)
(2.22906e-07 1.50768e-06 0)
(9.40219e-08 4.49645e-07 0)
(3.50782e-08 1.57263e-07 0)
(1.9778e-08 9.21055e-08 0)
(2.0063e-07 1.45815e-06 0)
(-5.78757e-14 1.13124e-12 0)
(-5.29905e-14 7.99509e-13 0)
(-9.20908e-14 7.17197e-13 0)
(-5.46999e-14 3.7263e-13 0)
(-1.30233e-13 8.15725e-13 0)
(7.06646e-14 3.33809e-12 0)
(-2.26234e-14 2.24506e-12 0)
(-1.3619e-13 1.74235e-12 0)
(3.6943e-09 1.29045e-08 0)
(7.54684e-10 2.27474e-09 0)
(1.88754e-09 5.89626e-09 0)
(1.36365e-10 4.82895e-10 0)
(3.72179e-11 1.48426e-10 0)
(3.16485e-10 1.01218e-09 0)
(1.48596e-08 5.78648e-08 0)
(9.24421e-09 3.37924e-08 0)
(7.34652e-12 3.41346e-11 0)
(2.62523e-12 1.27006e-11 0)
(1.2218e-11 5.36007e-11 0)
(5.481e-13 2.63219e-12 0)
(-8.74886e-17 4.47075e-16 0)
(-1.52588e-16 7.90277e-16 0)
(-8.20016e-15 4.46702e-14 0)
(-8.03279e-15 4.38193e-14 0)
(-1.25062e-14 6.89747e-14 0)
(-1.02708e-14 5.62655e-14 0)
(-2.90891e-15 1.54282e-14 0)
(-1.05071e-15 5.48411e-15 0)
(-6.93951e-15 3.74005e-14 0)
(-2.16639e-14 1.21731e-13 0)
(-2.17381e-14 1.20885e-13 0)
(-4.7813e-14 2.75171e-13 0)
(-5.81523e-14 3.30099e-13 0)
(-7.15476e-14 4.38351e-13 0)
(-7.81915e-14 4.58654e-13 0)
(-6.41112e-14 3.72173e-13 0)
(3.92363e-11 3.19105e-10 0)
(3.4805e-10 3.08769e-09 0)
(1.55584e-10 1.36349e-09 0)
(9.07528e-11 7.6683e-10 0)
(7.4153e-11 6.16932e-10 0)
(5.11328e-11 4.27908e-10 0)
(2.25717e-11 1.823e-10 0)
(1.84597e-08 1.63373e-07 0)
(5.44889e-08 4.69719e-07 0)
(8.3898e-08 7.22676e-07 0)
(2.07041e-07 1.66684e-06 0)
(1.16279e-09 1.03676e-08 0)
(3.2317e-09 2.86175e-08 0)
(8.09012e-09 7.29377e-08 0)
(8.18138e-10 7.18526e-09 0)
(5.00796e-12 4.11466e-11 0)
(6.86888e-12 5.61338e-11 0)
(1.57034e-11 1.26431e-10 0)
(2.23732e-12 2.00558e-11 0)
(1.12029e-12 1.0648e-11 0)
(4.34036e-13 5.9863e-12 0)
(3.69417e-13 5.15261e-12 0)
(2.90706e-07 1.6242e-06 0)
(3.05098e-07 1.97269e-06 0)
(2.10365e-07 1.09877e-06 0)
(1.105e-07 4.97843e-07 0)
(4.01903e-08 1.65769e-07 0)
(2.69249e-07 2.02205e-06 0)
(-1.61877e-13 1.47751e-12 0)
(-1.34554e-13 1.12502e-12 0)
(-1.68458e-13 1.14195e-12 0)
(-9.44162e-14 5.89311e-13 0)
(-2.19787e-13 1.33977e-12 0)
(-1.51652e-14 3.59059e-12 0)
(-6.75718e-14 2.52844e-12 0)
(-1.41857e-13 1.95921e-12 0)
(-2.3789e-13 1.90713e-12 0)
(4.15538e-09 1.33773e-08 0)
(1.14041e-09 3.34173e-09 0)
(4.2364e-10 1.24126e-09 0)
(2.78541e-09 8.4571e-09 0)
(1.8396e-10 5.99228e-10 0)
(6.83362e-11 2.46753e-10 0)
(1.88594e-11 7.7083e-11 0)