/*--------------------------------*- C++ -*----------------------------------*\
| =========                 |                                                 |
| \\      /  F ield         | OpenFOAM: The Open Source CFD Toolbox           |
|  \\    /   O peration     | Version:  v2012                                 |
|   \\  /    A nd           | Website:  www.openfoam.com                      |
|    \\/     M anipulation  |                                                 |
\*---------------------------------------------------------------------------*/
FoamFile
{
    version     2.0;
    format      ascii;
    class       pointVectorField;
    location    "0.02";
    object      pointDisplacement;
}
// * * * * * * * * * * * * * * * * * * * * * * * * * * * * * * * * * * * * * //

dimensions      [0 1 0 0 0 0 0];


internalField   nonuniform List<vector> 
14482
(
(0 0 0)
(0 0 0)
(0 0 0)
(0 0 0)
(0 0 0)
(0 0 0)
(0 0 0)
(0 0 0)
(0 0 0)
(0 0 0)
(0 0 0)
(0 0 0)
(0 0 0)
(0 0 0)
(0 0 0)
(0 0 0)
(0 0 0)
(0 0 0)
(0 0 0)
(0 0 0)
(0 0 0)
(0 0 0)
(0 0 0)
(0 0 0)
(0 0 0)
(0 0 0)
(0 0 0)
(0 0 0)
(0 0 0)
(0 0 0)
(0 0 0)
(0 0 0)
(0 0 0)
(0 0 0)
(0 0 0)
(0 0 0)
(0 0 0)
(0 0 0)
(0 0 0)
(0 0 0)
(0 0 0)
(0 0 0)
(0 0 0)
(0 0 0)
(0 0 0)
(0 0 0)
(0 0 0)
(0 0 0)
(0 0 0)
(0 0 0)
(0 0 0)
(0 0 0)
(0 0 0)
(0 0 0)
(0 0 0)
(0 0 0)
(0 0 0)
(0 0 0)
(0 0 0)
(0 0 0)
(0 0 0)
(0 0 0)
(0 0 0)
(0 0 0)
(0 0 0)
(0 0 0)
(0 0 0)
(0 0 0)
(0 0 0)
(0 0 0)
(0 0 0)
(0 0 0)
(0 0 0)
(0 0 0)
(0 0 0)
(0 0 0)
(0 0 0)
(0 0 0)
(0 0 0)
(0 0 0)
(0 0 0)
(0 0 0)
(0 0 0)
(0.000207116 -0.0101742 0)
(0.000219088 -0.0101718 0)
(0.000231982 -0.0101692 0)
(0.00024587 -0.0101664 0)
(0.000260827 -0.0101634 0)
(0.000276934 -0.0101602 0)
(0.000294278 -0.0101567 0)
(0.000312954 -0.0101529 0)
(0.000333062 -0.0101489 0)
(0.000354711 -0.0101446 0)
(0.000378017 -0.0101399 0)
(0.000403104 -0.0101348 0)
(0.000430106 -0.0101294 0)
(0.000457136 -0.0101174 0)
(0.000486032 -0.0101039 0)
(0.000517123 -0.0100893 0)
(0.000549002 -0.0100708 0)
(0.000582897 -0.0100501 0)
(0.000617926 -0.0100256 0)
(0.000654805 -0.00999825 0)
(0.000692774 -0.00996665 0)
(0.000732061 -0.00993093 0)
(0.000772696 -0.00989085 0)
(0.000814573 -0.00984604 0)
(0.000857655 -0.00979617 0)
(0.000901612 -0.00974069 0)
(0.000946711 -0.0096795 0)
(0.000992718 -0.0096121 0)
(0.00103969 -0.00953818 0)
(0.00108747 -0.00945726 0)
(0.00113601 -0.00936893 0)
(0.00118532 -0.00927277 0)
(0.00123531 -0.0091683 0)
(0.00128592 -0.00905502 0)
(0.00133705 -0.0089324 0)
(0.00138866 -0.00879989 0)
(0.00144068 -0.00865693 0)
(0.00149303 -0.00850294 0)
(0.00154561 -0.00833728 0)
(0.00159833 -0.00815931 0)
(0.00165104 -0.00796838 0)
(0.00170366 -0.00776381 0)
(0.00175602 -0.00754488 0)
(0.00180798 -0.00731091 0)
(0.00185937 -0.00706116 0)
(0.00191001 -0.00679492 0)
(0.0019597 -0.00651146 0)
(0.00200821 -0.00621008 0)
(0.00205534 -0.00589007 0)
(0.00210084 -0.00555078 0)
(0.00214444 -0.00519153 0)
(0.00218588 -0.00481176 0)
(0.00222487 -0.00441087 0)
(0.00226115 -0.00398842 0)
(0.00229439 -0.00354396 0)
(0.00232432 -0.00307718 0)
(0.00235063 -0.0025878 0)
(0.00237305 -0.00207577 0)
(0.00239129 -0.00154099 0)
(0.0024051 -0.000983622 0)
(0.00241423 -0.000403917 0)
(0.00241847 0.000197716 0)
(0.00241764 0.000820742 0)
(0.00241158 0.00146438 0)
(0.0024002 0.00212783 0)
(0.00238342 0.00280997 0)
(0.00236123 0.00350959 0)
(0.00233366 0.00422539 0)
(0.00230079 0.00495574 0)
(0.00226274 0.00569905 0)
(0.00221969 0.00645349 0)
(0.00217187 0.00721716 0)
(0.00211953 0.00798803 0)
(0.00206298 0.00876407 0)
(0.00200255 0.00954303 0)
(0.0019386 0.0103229 0)
(0.00187151 0.0111013 0)
(0.00180168 0.0118762 0)
(0.0017295 0.0126455 0)
(0.0016554 0.0134071 0)
(0.00157976 0.0141589 0)
(0.001503 0.0148993 0)
(0.00142549 0.0156263 0)
(0.00134761 0.0163383 0)
(0.0012697 0.0170339 0)
(0.0011921 0.0177119 0)
(0.00111511 0.0183709 0)
(0.00103901 0.0190101 0)
(0.000964041 0.0196286 0)
(0.000890453 0.0202257 0)
(0.000818432 0.020801 0)
(0.000748167 0.0213541 0)
(0.000679794 0.0218848 0)
(0.00061345 0.0223931 0)
(0.000549231 0.0228789 0)
(0.000487224 0.0233425 0)
(0.000427486 0.0237842 0)
(0.000370062 0.0242043 0)
(0.000314973 0.0246033 0)
(0.000262228 0.0249816 0)
(0.000211826 0.02534 0)
(0.00016374 0.0256789 0)
(0.000117944 0.0259992 0)
(7.44022e-05 0.0263013 0)
(3.30581e-05 0.0265861 0)
(-6.13703e-06 0.0268543 0)
(-4.32484e-05 0.0271065 0)
(-7.83383e-05 0.0273436 0)
(-0.000111484 0.0275663 0)
(-0.000142751 0.0277752 0)
(-0.000172215 0.027971 0)
(-0.000199956 0.0281546 0)
(-0.000226045 0.0283264 0)
(-0.000250564 0.0284872 0)
(-0.000273584 0.0286376 0)
(-0.000295181 0.0287781 0)
(-0.000315429 0.0289095 0)
(-0.000334397 0.0290321 0)
(-0.000352156 0.0291465 0)
(-0.000368773 0.0292533 0)
(-0.000384312 0.0293529 0)
(-0.000398835 0.0294457 0)
(-0.000412402 0.0295323 0)
(-0.00042507 0.0296129 0)
(-0.000436893 0.029688 0)
(-0.000447924 0.0297579 0)
(-0.000458212 0.029823 0)
(-0.000467803 0.0298836 0)
(-0.000476741 0.02994 0)
(-0.000485067 0.0299924 0)
(-0.000492824 0.0300413 0)
(-0.000500047 0.0300866 0)
(-0.00050677 0.0301288 0)
(-0.000513028 0.030168 0)
(-0.00051885 0.0302045 0)
(-0.000524268 0.0302384 0)
(-0.000529307 0.0302699 0)
(-0.000533993 0.0302991 0)
(-0.00053835 0.0303263 0)
(-0.000542401 0.0303516 0)
(-0.000546167 0.0303751 0)
(-0.000549667 0.0303969 0)
(-0.000552921 0.0304172 0)
(-0.000555943 0.0304359 0)
(-0.000558751 0.0304534 0)
(-0.00056136 0.0304696 0)
(-0.000563784 0.0304847 0)
(-0.000566036 0.0304987 0)
(-0.000568127 0.0305117 0)
(-0.000570069 0.0305237 0)
(-0.000582278 0.0305235 0)
(-0.000593076 0.0305233 0)
(-0.000602956 0.0305231 0)
(-0.000612282 0.0305229 0)
(-0.000621347 0.0305227 0)
(-0.000630411 0.0305225 0)
(-0.000639737 0.0305223 0)
(-0.000649618 0.0305221 0)
(-0.000660416 0.0305219 0)
(-0.000672625 0.0305216 0)
(-0.000674074 0.0305095 0)
(-0.000675635 0.0304965 0)
(-0.000677316 0.0304824 0)
(-0.000679124 0.0304672 0)
(-0.000681071 0.0304509 0)
(-0.000683167 0.0304334 0)
(-0.000685422 0.0304145 0)
(-0.000687847 0.0303941 0)
(-0.000690457 0.0303721 0)
(-0.000693265 0.0303485 0)
(-0.000696285 0.0303231 0)
(-0.000699531 0.0302958 0)
(-0.000703022 0.0302664 0)
(-0.000706776 0.0302347 0)
(-0.000710808 0.0302006 0)
(-0.000715143 0.0301639 0)
(-0.000719799 0.0301244 0)
(-0.0007248 0.030082 0)
(-0.00073017 0.0300364 0)
(-0.000735934 0.0299873 0)
(-0.00074212 0.0299346 0)
(-0.000748756 0.0298779 0)
(-0.000755873 0.029817 0)
(-0.000763502 0.0297515 0)
(-0.000771677 0.0296812 0)
(-0.000780435 0.0296057 0)
(-0.000789812 0.0295246 0)
(-0.000799846 0.0294376 0)
(-0.000810579 0.0293442 0)
(-0.000822052 0.0292441 0)
(-0.00083431 0.0291367 0)
(-0.000847396 0.0290216 0)
(-0.000861359 0.0288984 0)
(-0.000876245 0.0287663 0)
(-0.000892103 0.028625 0)
(-0.000908985 0.0284738 0)
(-0.000926939 0.0283121 0)
(-0.000946015 0.0281394 0)
(-0.000966263 0.0279549 0)
(-0.000987732 0.027758 0)
(-0.00101047 0.027548 0)
(-0.00103453 0.0273242 0)
(-0.00105994 0.0270858 0)
(-0.00108675 0.0268323 0)
(-0.001115 0.0265627 0)
(-0.00114472 0.0262765 0)
(-0.00117593 0.0259728 0)
(-0.00120866 0.025651 0)
(-0.00124291 0.0253104 0)
(-0.00127869 0.0249503 0)
(-0.00131599 0.0245701 0)
(-0.0013548 0.0241692 0)
(-0.00139508 0.0237471 0)
(-0.00143679 0.0233033 0)
(-0.00147988 0.0228376 0)
(-0.00152427 0.0223495 0)
(-0.00156987 0.021839 0)
(-0.00161659 0.021306 0)
(-0.00166429 0.0207505 0)
(-0.00171284 0.0201727 0)
(-0.00176207 0.0195731 0)
(-0.0018118 0.0189521 0)
(-0.00186182 0.0183103 0)
(-0.00191193 0.0176487 0)
(-0.00196188 0.0169682 0)
(-0.00201141 0.0162699 0)
(-0.00206025 0.0155553 0)
(-0.00210811 0.0148258 0)
(-0.00215468 0.0140829 0)
(-0.00219965 0.0133286 0)
(-0.0022427 0.0125647 0)
(-0.00228351 0.0117931 0)
(-0.00232175 0.0110159 0)
(-0.0023571 0.0102354 0)
(-0.00238926 0.00945363 0)
(-0.00241794 0.00867285 0)
(-0.00244287 0.00789516 0)
(-0.00246379 0.0071228 0)
(-0.00248049 0.00635781 0)
(-0.0024928 0.00560224 0)
(-0.00250056 0.004858 0)
(-0.00250368 0.00412692 0)
(-0.00250211 0.00341059 0)
(-0.0024958 0.00271065 0)
(-0.00248481 0.00202838 0)
(-0.00246918 0.00136503 0)
(-0.00244904 0.000721671 0)
(-0.00242452 9.91275e-05 0)
(-0.00239579 -0.000501834 0)
(-0.00236308 -0.00108069 0)
(-0.0023266 -0.00163703 0)
(-0.00228661 -0.00217063 0)
(-0.00224337 -0.00268131 0)
(-0.00219716 -0.00316922 0)
(-0.00214826 -0.0036344 0)
(-0.00209696 -0.00407714 0)
(-0.00204352 -0.00449776 0)
(-0.00198825 -0.00489673 0)
(-0.00193138 -0.0052745 0)
(-0.0018732 -0.00563168 0)
(-0.00181393 -0.00596884 0)
(-0.00175382 -0.00628666 0)
(-0.00169308 -0.00658582 0)
(-0.00163189 -0.00686702 0)
(-0.00157046 -0.00713098 0)
(-0.00150895 -0.00737843 0)
(-0.00144752 -0.0076101 0)
(-0.00138628 -0.00782671 0)
(-0.00132539 -0.00802898 0)
(-0.00126494 -0.0082176 0)
(-0.00120503 -0.00839327 0)
(-0.00114575 -0.00855665 0)
(-0.00108718 -0.00870839 0)
(-0.00102938 -0.00884911 0)
(-0.000972424 -0.00897941 0)
(-0.00091634 -0.00909985 0)
(-0.000861162 -0.00921098 0)
(-0.000806961 -0.00931333 0)
(-0.000753787 -0.00940741 0)
(-0.000701688 -0.00949368 0)
(-0.000650651 -0.00957259 0)
(-0.000600713 -0.00964454 0)
(-0.000552001 -0.00971001 0)
(-0.00050445 -0.00976931 0)
(-0.000458271 -0.00982296 0)
(-0.000413195 -0.00987103 0)
(-0.000369528 -0.0099141 0)
(-0.000327296 -0.00995249 0)
(-0.000286589 -0.00998658 0)
(-0.000247364 -0.0100166 0)
(-0.000209401 -0.0100425 0)
(-0.000173407 -0.0100655 0)
(-0.000138698 -0.0100848 0)
(-0.00010609 -0.010102 0)
(-7.44328e-05 -0.0101153 0)
(-4.50113e-05 -0.0101276 0)
(-1.75144e-05 -0.0101385 0)
(9.68653e-06 -0.0101428 0)
(3.49579e-05 -0.0101469 0)
(5.8435e-05 -0.0101506 0)
(8.02431e-05 -0.0101541 0)
(0.000100499 -0.0101573 0)
(0.000119312 -0.0101603 0)
(0.000136784 -0.010163 0)
(0.000153009 -0.0101656 0)
(0.000168076 -0.010168 0)
(0.000182066 -0.0101702 0)
(0.000195055 -0.0101723 0)
(5.30281e-07 6.57306e-06 0)
(6.87196e-07 9.64103e-06 0)
(3.39887e-07 4.5807e-06 0)
(1.10597e-07 1.62199e-06 0)
(8.7195e-08 1.15725e-06 0)
(1.78244e-07 2.41884e-06 0)
(-3.83544e-10 2.19359e-08 0)
(4.49011e-10 2.96402e-08 0)
(-1.00231e-09 4.19838e-08 0)
(1.53968e-07 1.3157e-06 0)
(3.31413e-07 2.63465e-06 0)
(2.6952e-07 2.40092e-06 0)
(4.87171e-05 0.000505056 0)
(7.26084e-05 0.00068147 0)
(7.46757e-05 0.000833275 0)
(7.86279e-07 7.34282e-06 0)
(1.76261e-06 1.5611e-05 0)
(1.05254e-06 1.06782e-05 0)
(3.60949e-07 1.07652e-05 0)
(5.62401e-07 1.75943e-05 0)
(3.24671e-07 1.17103e-05 0)
(3.59082e-07 8.25909e-06 0)
(7.67524e-07 1.7466e-05 0)
(3.94643e-07 1.01386e-05 0)
(-1.30171e-08 4.02299e-07 0)
(-3.36027e-08 7.88635e-07 0)
(-2.84504e-08 5.95807e-07 0)
(2.50169e-09 2.59957e-08 0)
(2.50761e-09 2.95524e-08 0)
(1.31432e-09 1.50509e-08 0)
(7.20356e-07 5.27883e-06 0)
(1.67579e-06 1.18587e-05 0)
(1.01642e-06 8.27418e-06 0)
(5.14488e-05 0.000439591 0)
(8.69014e-05 0.000685537 0)
(3.80421e-05 0.00067052 0)
(2.50252e-05 0.000416923 0)
(3.85189e-05 0.000572561 0)
(5.83364e-06 4.44792e-05 0)
(7.60545e-06 4.76792e-05 0)
(9.75969e-06 6.83698e-05 0)
(4.24921e-07 1.77618e-05 0)
(2.60192e-07 1.33667e-05 0)
(1.95589e-07 8.69759e-06 0)
(1.91264e-08 8.78342e-07 0)
(1.10024e-08 1.06309e-06 0)
(2.0063e-09 7.31354e-07 0)
(3.03159e-08 5.45499e-07 0)
(1.10372e-08 2.34085e-07 0)
(1.86104e-08 3.09517e-07 0)
(6.1383e-12 5.49434e-11 0)
(1.63047e-12 2.33831e-11 0)
(3.84795e-12 3.41747e-11 0)
(2.27795e-08 1.47381e-07 0)
(2.24072e-08 1.56312e-07 0)
(1.04756e-08 7.11878e-08 0)
(1.06339e-08 7.74418e-08 0)
(8.46515e-08 4.82977e-07 0)
(4.61776e-08 2.43847e-07 0)
(9.71613e-08 5.03295e-07 0)
(6.92877e-05 0.000320826 0)
(4.86102e-05 0.000255706 0)
(4.01959e-05 0.000180364 0)
(0.000249109 0.00151078 0)
(0.000223041 0.0015597 0)
(0.000172391 0.00110812 0)
(0.000144225 0.00309291 0)
(0.00010593 0.00256389 0)
(0.000104029 0.00221177 0)
(2.82058e-07 1.22815e-06 0)
(4.47286e-07 1.67143e-06 0)
(6.05098e-07 2.74335e-06 0)
(1.12044e-05 2.04155e-05 0)
(1.93894e-05 3.53876e-05 0)
(1.44006e-05 3.38324e-05 0)
(3.06385e-07 3.55274e-05 0)
(6.89057e-07 6.12184e-05 0)
(4.54589e-07 5.33674e-05 0)
(-1.8984e-07 0.000115845 0)
(-4.31532e-07 0.000138185 0)
(-2.38184e-07 0.000101227 0)
(-6.3875e-08 3.77009e-06 0)
(-3.54811e-08 3.46759e-06 0)
(-8.22524e-08 5.49844e-06 0)
(-1.32822e-06 6.10012e-05 0)
(-6.71271e-07 3.37532e-05 0)
(-1.17715e-06 6.3183e-05 0)
(-2.8636e-07 6.44547e-06 0)
(-2.60864e-07 6.53735e-06 0)
(-4.69965e-07 1.12685e-05 0)
(-5.49004e-08 5.59129e-07 0)
(-2.99901e-08 3.36182e-07 0)
(-6.57749e-08 7.40576e-07 0)
(-8.17221e-09 1.13824e-07 0)
(-7.90676e-09 9.62148e-08 0)
(-4.44262e-09 5.87306e-08 0)
(-7.8861e-12 5.22469e-10 0)
(3.56832e-11 8.30201e-10 0)
(-1.6666e-11 9.82149e-10 0)
(4.74408e-09 3.59779e-08 0)
(1.66789e-09 1.3099e-08 0)
(2.15202e-09 1.61781e-08 0)
(2.23009e-09 1.29876e-08 0)
(2.46522e-09 1.52811e-08 0)
(1.30412e-09 7.88574e-09 0)
(1.47827e-08 7.01109e-08 0)
(1.15102e-08 6.0032e-08 0)
(7.23627e-09 3.42601e-08 0)
(2.81304e-08 8.40632e-08 0)
(1.68429e-08 5.91443e-08 0)
(1.08598e-08 3.03535e-08 0)
(0.000181928 0.000756115 0)
(0.000217061 0.000664043 0)
(0.000284294 0.00102242 0)
(0.000252066 0.00365095 0)
(0.000228385 0.00288657 0)
(0.00031652 0.00405421 0)
(0.000277768 0.00124474 0)
(0.00038696 0.00190697 0)
(0.000285624 0.00150981 0)
(0.000131371 0.00241048 0)
(0.000140841 0.00215327 0)
(0.000191126 0.00310948 0)
(3.33336e-05 0.00128554 0)
(4.32901e-05 0.00187521 0)
(2.69781e-05 0.0012948 0)
(2.51572e-06 -6.85311e-07 0)
(1.52589e-06 -3.35394e-07 0)
(2.25955e-06 -1.62132e-06 0)
(4.53231e-05 -3.05636e-05 0)
(8.60957e-05 -4.95089e-05 0)
(6.18063e-05 -1.25943e-05 0)
(4.40542e-06 0.000378792 0)
(6.89738e-06 0.000641626 0)
(4.12762e-06 0.000435397 0)
(3.89743e-05 0.00199687 0)
(5.5242e-05 0.00267754 0)
(-2.65228e-07 3.99565e-05 0)
(-5.42425e-07 7.6965e-05 0)
(-3.94875e-07 5.22283e-05 0)
(-4.0107e-06 0.000260088 0)
(-2.00002e-06 0.000152004 0)
(-3.07246e-06 0.000238526 0)
(-3.66207e-07 6.58339e-06 0)
(-3.13352e-07 6.27727e-06 0)
(-5.47098e-07 1.04178e-05 0)
(-6.19393e-08 8.39986e-07 0)
(-1.35539e-07 1.93642e-06 0)
(-1.04094e-07 1.30616e-06 0)
(-1.39139e-08 1.00022e-07 0)
(-1.98902e-08 1.34236e-07 0)
(-7.70968e-09 5.30452e-08 0)
(-9.2984e-12 7.52488e-11 0)
(-4.23721e-12 5.15276e-11 0)
(-1.06741e-11 9.66941e-11 0)
(5.36511e-12 4.12548e-11 0)
(2.15647e-12 1.70308e-11 0)
(4.06053e-12 3.09133e-11 0)
(3.66476e-10 2.6529e-09 0)
(9.10052e-10 6.47423e-09 0)
(6.6569e-10 4.8714e-09 0)
(7.23161e-10 5.41916e-09 0)
(1.61752e-09 1.18134e-08 0)
(7.65943e-09 4.62241e-08 0)
(1.1235e-08 7.1487e-08 0)
(5.47141e-09 3.51099e-08 0)
(2.54011e-10 1.02539e-09 0)
(7.22361e-10 3.00557e-09 0)
(3.50903e-10 1.56006e-09 0)
(4.13363e-09 2.49768e-08 0)
(0.000313357 0.00086978 0)
(0.000394836 0.00128352 0)
(0.000322541 0.000446457 0)
(0.000340416 0.000678943 0)
(0.000227124 0.000373675 0)
(0.000625438 0.00695672 0)
(0.000491785 0.00566138 0)
(0.000512284 0.00521839 0)
(0.00106364 0.00711128 0)
(0.00105247 0.00633277 0)
(0.00124626 0.00796062 0)
(0.000342775 0.00500766 0)
(6.54252e-05 0.00266611 0)
(9.89879e-05 0.00392222 0)
(7.50824e-05 0.00340558 0)
(2.18004e-05 -5.37155e-05 0)
(1.23562e-05 -3.09272e-05 0)
(1.50771e-05 -4.39375e-05 0)
(1.54423e-05 -9.27779e-06 0)
(1.1699e-05 -1.19717e-05 0)
(2.31404e-05 -2.25665e-05 0)
(2.96266e-05 -5.69586e-05 0)
(4.76751e-05 -0.000104604 0)
(5.33327e-05 -9.0767e-05 0)
(2.7547e-05 0.00331022 0)
(1.86118e-05 0.00262693 0)
(2.06429e-05 0.00222527 0)
(1.50776e-06 0.000293369 0)
(2.73271e-06 0.000500643 0)
(1.93755e-06 0.000487007 0)
(4.442e-05 0.00397868 0)
(6.03518e-05 0.00451038 0)
(6.06364e-05 0.00558744 0)
(1.04312e-07 2.38443e-05 0)
(-6.08531e-09 2.8838e-05 0)
(1.43464e-08 1.96572e-05 0)
(-8.35129e-06 0.00122316 0)
(-6.31052e-06 0.000981164 0)
(-1.07797e-05 0.00152579 0)
(-4.07476e-06 0.000225572 0)
(-6.46524e-06 0.000317548 0)
(-4.01489e-06 0.000192523 0)
(-5.51382e-06 0.000114553 0)
(-8.16695e-06 0.000149483 0)
(-4.07558e-06 7.52078e-05 0)
(-2.24801e-06 2.166e-05 0)
(-1.9847e-06 2.1428e-05 0)
(-3.18072e-06 3.34798e-05 0)
(-9.37671e-08 8.94627e-07 0)
(-2.04057e-07 1.92228e-06 0)
(-1.13224e-07 1.00028e-06 0)
(-1.17762e-07 1.32397e-06 0)
(-1.07651e-07 1.10751e-06 0)
(-8.48226e-09 6.37276e-08 0)
(-1.87454e-08 1.4195e-07 0)
(-8.20131e-10 5.48478e-09 0)
(-3.41856e-10 2.25429e-09 0)
(-3.54331e-10 2.38645e-09 0)
(1.94371e-12 1.50158e-11 0)
(5.07027e-12 3.80526e-11 0)
(1.65066e-09 1.13006e-08 0)
(6.80907e-10 4.67296e-09 0)
(2.63043e-11 1.97747e-10 0)
(3.19467e-11 2.36967e-10 0)
(8.96936e-11 6.71841e-10 0)
(8.45916e-10 4.88464e-09 0)
(5.95145e-10 3.25137e-09 0)
(1.30133e-09 7.08049e-09 0)
(6.72405e-09 2.28379e-08 0)
(5.94622e-10 2.16274e-09 0)
(6.03391e-10 3.08768e-09 0)
(1.74371e-10 8.88853e-10 0)
(2.83894e-10 1.36252e-09 0)
(2.24224e-08 -2.47543e-08 0)
(1.59023e-08 -3.05955e-08 0)
(3.62964e-08 -5.06822e-08 0)
(0.000492508 0.000923478 0)
(0.000453768 0.00115111 0)
(0.000640139 0.00143502 0)
(0.000636508 0.00110822 0)
(0.000334785 -0.000211797 0)
(0.000235022 -7.19281e-05 0)
(0.000209711 -0.000189814 0)
(0.000673883 0.00825888 0)
(0.000770756 0.0088687 0)
(0.000818094 0.00996847 0)
(0.000438076 0.00568246 0)
(0.00108648 0.00922773 0)
(0.000940819 0.00740784 0)
(0.00114575 0.00886229 0)
(0.00113774 0.00627009 0)
(0.000953159 0.00524358 0)
(0.000417633 0.00699416 0)
(0.000450998 0.00834635 0)
(0.000344447 0.00618784 0)
(0.000466154 0.0118135 0)
(0.000514825 0.011882 0)
(0.000562586 0.0141792 0)
(0.000142167 0.00529297 0)
(0.000128426 0.00560854 0)
(0.000161055 0.00781827 0)
(0.00014397 0.00801427 0)
(0.000121256 0.00628041 0)
(8.00723e-08 -1.84833e-08 0)
(8.2367e-08 4.73989e-08 0)
(4.56011e-08 -2.48524e-09 0)
(2.97189e-06 -4.96777e-06 0)
(2.40045e-06 -5.2366e-06 0)
(4.77711e-06 -1.05053e-05 0)
(6.24754e-06 -1.04145e-05 0)
(1.05681e-05 -1.59096e-05 0)
(7.35814e-06 -9.33736e-06 0)
(2.29314e-05 -3.31659e-05 0)
(1.59557e-05 -2.11597e-05 0)
(1.63134e-05 -2.83094e-05 0)
(2.31577e-05 0.00197488 0)
(2.08409e-05 0.00145667 0)
(3.17178e-05 0.00223523 0)
(6.64049e-06 0.00171558 0)
(1.00384e-05 0.00199764 0)
(1.0279e-05 0.0026944 0)
(3.06991e-06 0.000684212 0)
(7.03243e-05 0.00772311 0)
(5.0404e-05 0.00574342 0)
(-7.64555e-06 0.00117813 0)
(-4.27771e-06 0.000759999 0)
(-8.163e-06 0.00125996 0)
(-1.02707e-05 0.0014715 0)
(-1.67588e-05 0.00217613 0)
(-1.95523e-05 0.00241934 0)
(-1.24904e-05 0.00170411 0)
(-4.04886e-06 0.000168592 0)
(-2.26889e-06 0.000106153 0)
(-1.37494e-06 3.75755e-05 0)
(-2.06463e-06 6.18084e-05 0)
(-2.75372e-06 7.33911e-05 0)
(-0.000320204 0.00658858 0)
(-0.000347278 0.00647022 0)
(-0.000245001 0.00487325 0)
(-4.12081e-06 5.19549e-05 0)
(-5.78118e-06 6.44146e-05 0)
(-2.81204e-06 3.29166e-05 0)
(-7.58297e-08 5.53653e-07 0)
(-1.41932e-07 9.93797e-07 0)
(-9.24464e-08 6.26648e-07 0)
(-1.74781e-09 1.1371e-08 0)
(-6.02343e-10 3.90758e-09 0)
(-1.00631e-08 6.00907e-08 0)
(-6.65004e-09 4.13452e-08 0)
(-1.40387e-08 8.83872e-08 0)
(-1.30349e-12 8.05855e-12 0)
(-7.35365e-13 4.72801e-12 0)
(-1.61118e-12 1.01241e-11 0)
(-1.40565e-11 8.91217e-11 0)
(-3.5378e-11 2.25787e-10 0)
(-1.78884e-11 1.12294e-10 0)
(8.72256e-13 6.48746e-12 0)
(2.23771e-12 1.65327e-11 0)
(8.08571e-13 6.12321e-12 0)
(4.05577e-09 2.76882e-08 0)
(2.35279e-09 1.53858e-08 0)
(2.91964e-10 2.06329e-09 0)
(1.33068e-10 9.64875e-10 0)
(8.18215e-11 5.83865e-10 0)
(1.01216e-10 7.06919e-10 0)
(2.70048e-10 1.84684e-09 0)
(3.22383e-10 1.91271e-09 0)
(6.72934e-10 4.11226e-09 0)
(3.44882e-10 2.14028e-09 0)
(1.40786e-10 3.0683e-10 0)
(3.43532e-10 6.87305e-10 0)
(1.44354e-10 3.62951e-10 0)
(7.56642e-10 3.5321e-09 0)
(1.88084e-09 9.42726e-09 0)
(8.17057e-10 2.26322e-09 0)
(2.99628e-10 8.74395e-10 0)
(4.54535e-10 1.09051e-09 0)
(2.3281e-10 1.25364e-09 0)
(3.59759e-10 2.02779e-09 0)
(1.55969e-10 8.86935e-10 0)
(4.70802e-10 -2.40262e-09 0)
(1.21687e-09 -1.51882e-10 0)
(-1.99968e-10 -9.28689e-10 0)
(0.0012983 0.00502207 0)
(0.00126444 0.00436876 0)
(0.00146434 0.00540766 0)
(0.000982554 0.00265348 0)
(0.000871088 0.00200401 0)
(0.00111765 0.00261097 0)
(0.000363587 0.000156664 0)
(0.000339327 -2.89533e-05 0)
(0.000480952 4.22194e-05 0)
(0.000918547 0.0116628 0)
(0.000859112 0.0119817 0)
(0.000756654 0.00994908 0)
(0.000624923 0.00566975 0)
(0.000796771 0.007317 0)
(0.000684077 0.00682013 0)
(0.00073967 0.00494979 0)
(0.000600651 0.00374395 0)
(0.000797342 0.00469722 0)
(0.0013066 0.00676377 0)
(0.00105271 0.00535583 0)
(0.00057071 0.0122093 0)
(0.000677282 0.0139128 0)
(0.00062145 0.0142503 0)
(0.000560402 0.0100272 0)
(0.000673374 0.0123635 0)
(0.000566056 0.0110668 0)
(0.000469374 0.00980831 0)
(0.000377152 0.00970831 0)
(0.000434886 0.0119962 0)
(0.000288128 0.0111885 0)
(0.000264069 0.0115478 0)
(0.000227765 0.00878636 0)
(0.00030871 0.013246 0)
(0.000305223 0.0148743 0)
(0.000202917 0.0106726 0)
(0.000237489 0.0137801 0)
(0.000201416 0.0127615 0)
(0.00017838 0.0134329 0)
(0.000211987 0.0161696 0)
(-3.83243e-08 -8.73608e-08 0)
(-1.76484e-08 -6.01284e-08 0)
(-1.63801e-08 -4.19779e-08 0)
(-2.21e-08 -4.18519e-07 0)
(-1.02096e-07 -6.58217e-07 0)
(-1.12495e-08 -5.59025e-07 0)
(2.69726e-06 -1.01885e-05 0)
(1.30444e-06 -4.85068e-06 0)
(1.22737e-06 -5.06344e-06 0)
(9.61926e-05 -0.000317372 0)
(0.000123569 -0.000450437 0)
(0.000145357 -0.000451114 0)
(2.82903e-05 0.0112896 0)
(8.59133e-06 0.0156236 0)
(5.70471e-06 0.0140525 0)
(-5.60739e-06 0.00178979 0)
(-1.19331e-05 0.00267344 0)
(-7.72086e-06 0.00198536 0)
(0.000186171 0.0172322 0)
(0.000160249 0.0139373 0)
(-1.09906e-05 0.0015541 0)
(-2.17055e-05 0.00265853 0)
(-1.54263e-05 0.00203687 0)
(-2.06187e-05 0.00257936 0)
(-3.6999e-05 0.00405177 0)
(-1.63987e-05 0.00214102 0)
(-3.9264e-05 0.00413137 0)
(-6.32689e-05 0.00592671 0)
(-5.24286e-05 0.00500826 0)
(-4.95469e-06 0.000815654 0)
(-5.73796e-06 0.00092035 0)
(-7.19528e-06 0.00110562 0)
(-6.81425e-05 0.00546177 0)
(-6.86717e-05 0.00563442 0)
(-5.17796e-05 0.00437177 0)
(-2.53736e-05 0.00229524 0)
(-3.04882e-05 0.00260151 0)
(-2.41941e-05 0.00209845 0)
(-6.36544e-05 0.00103225 0)
(-0.000111079 0.00173076 0)
(-8.7765e-05 0.00123237 0)
(-4.6675e-06 3.45156e-05 0)
(-5.42401e-06 3.43824e-05 0)
(-2.79242e-06 1.84894e-05 0)
(-1.65659e-08 9.55606e-08 0)
(-4.17508e-08 2.48017e-07 0)
(-2.77008e-08 1.53075e-07 0)
(-1.71384e-08 8.41231e-08 0)
(-6.0679e-09 2.94812e-08 0)
(-9.35703e-09 4.77377e-08 0)
(-2.90084e-09 1.78596e-08 0)
(-1.2908e-09 7.97928e-09 0)
(-1.07594e-12 6.38579e-12 0)
(-7.74142e-13 4.61483e-12 0)
(-1.53341e-12 9.15952e-12 0)
(-3.71174e-13 2.23754e-12 0)
(-4.24741e-13 2.51552e-12 0)
(-1.85933e-13 1.1234e-12 0)
(5.63342e-10 3.59591e-09 0)
(4.4537e-10 2.95173e-09 0)
(2.57634e-10 1.65112e-09 0)
(1.87891e-10 1.24422e-09 0)
(1.02237e-10 6.95342e-10 0)
(7.5922e-11 5.02427e-10 0)
(3.34895e-11 2.37362e-10 0)
(1.14414e-10 7.34607e-10 0)
(5.432e-10 8.23892e-10 0)
(1.55247e-09 2.32231e-09 0)
(9.20248e-10 1.79523e-09 0)
(1.41861e-11 5.82559e-11 0)
(1.11742e-11 6.22254e-11 0)
(3.95053e-11 1.45185e-10 0)
(2.43291e-11 1.08516e-10 0)
(2.30538e-11 9.60828e-11 0)
(7.26599e-11 3.05251e-10 0)
(2.80635e-11 1.09863e-10 0)
(1.10315e-11 4.56458e-11 0)
(2.24551e-11 1.06877e-10 0)
(4.9484e-11 2.23682e-10 0)
(4.98454e-11 2.39153e-10 0)
(-6.37824e-09 4.73876e-09 0)
(-8.6291e-09 1.20655e-08 0)
(-1.44131e-08 1.04513e-08 0)
(0.00134089 0.00410901 0)
(0.00111248 0.00341888 0)
(0.00151909 0.00437061 0)
(0.00150049 0.0049127 0)
(0.0012982 0.0026562 0)
(0.00124957 0.00216409 0)
(0.00151966 0.00274086 0)
(0.00154349 0.00331821 0)
(0.000721611 -0.000545748 0)
(0.000963267 -0.000803282 0)
(0.000888627 -0.000454803 0)
(0.00147025 0.00018055 0)
(0.00134929 0.000403824 0)
(0.00117526 1.40136e-05 0)
(0.000475284 0.00422905 0)
(0.000594923 0.0048147 0)
(0.000921135 0.00796749 0)
(0.00118399 0.00561924 0)
(0.000625782 0.0104731 0)
(0.000586121 0.00894118 0)
(0.00069198 0.0108445 0)
(0.000300597 0.00810067 0)
(0.000321671 0.00762113 0)
(0.000283961 0.0163957 0)
(0.000243986 0.016374 0)
(0.000225342 0.00750623 0)
(0.000295766 0.00922569 0)
(0.000271631 0.00952161 0)
(0.000158246 0.0100881 0)
(-3.5254e-08 5.82735e-08 0)
(-7.79082e-08 1.33143e-07 0)
(-4.84242e-08 4.70162e-08 0)
(3.05876e-08 -3.66298e-07 0)
(4.6759e-08 -2.94991e-07 0)
(-1.41147e-08 -2.45107e-07 0)
(-1.55944e-07 -1.54342e-06 0)
(-7.46582e-08 -1.73316e-06 0)
(4.74821e-08 -1.49952e-06 0)
(1.24408e-05 -4.64894e-05 0)
(1.07232e-05 -4.59015e-05 0)
(1.85069e-05 -7.60313e-05 0)
(0.000908664 -0.00185717 0)
(0.000732637 -0.00140668 0)
(0.000708131 -0.00166072 0)
(0.000194694 -0.000670944 0)
(0.000165932 -0.000665844 0)
(5.84133e-05 0.00869468 0)
(4.31579e-05 0.00902474 0)
(4.57107e-05 0.00668703 0)
(2.94168e-05 0.00519892 0)
(3.76853e-05 0.00644648 0)
(3.13059e-05 0.00763657 0)
(2.25353e-07 0.00316943 0)
(-4.38499e-06 0.00446024 0)
(-6.09501e-06 0.00412648 0)
(-2.70823e-05 0.0088447 0)
(-6.77779e-06 0.00652142 0)
(-2.25742e-05 0.00926564 0)
(-1.14864e-05 0.00343565 0)
(-1.50495e-05 0.00363524 0)
(-6.72724e-06 0.00253734 0)
(-8.54974e-06 0.00255409 0)
(-9.24225e-06 0.00246111 0)
(-5.17343e-06 0.00185446 0)
(-3.19349e-05 0.00362006 0)
(-1.5734e-05 0.00208407 0)
(-1.35317e-05 0.0018721 0)
(-0.000111622 0.00898737 0)
(-9.01616e-05 0.00749795 0)
(-2.75574e-05 0.00255992 0)
(-1.89385e-05 0.00182343 0)
(-1.56651e-05 0.00156773 0)
(-0.000118196 0.00866301 0)
(-8.0959e-05 0.00649534 0)
(-0.000107163 0.00815879 0)
(-0.000167491 0.00819655 0)
(-0.000185399 0.00842136 0)
(-0.000135169 0.00664219 0)
(-8.21061e-06 0.000567457 0)
(-4.84054e-06 0.000354491 0)
(-6.24657e-06 0.000503217 0)
(-1.34937e-05 0.000379565 0)
(-2.17859e-05 0.000658957 0)
(-2.35238e-05 0.000631632 0)
(-0.000261329 0.00364257 0)
(-0.000226915 0.00275441 0)
(-0.000177055 0.00257902 0)
(-3.58685e-05 0.000662078 0)
(-3.88142e-05 0.000615836 0)
(-0.000165069 0.00090699 0)
(-0.000252483 0.00135246 0)
(-0.000233812 0.0010601 0)
(-2.44007e-06 7.9561e-06 0)
(-1.76548e-06 7.29109e-06 0)
(-3.31707e-06 1.37705e-05 0)
(-6.89139e-08 3.80862e-07 0)
(-1.67346e-07 9.49278e-07 0)
(-1.12903e-07 5.89528e-07 0)
(-1.19729e-10 7.02434e-10 0)
(-2.6572e-10 1.62371e-09 0)
(-2.89483e-10 1.70494e-09 0)
(-6.09038e-10 3.3669e-09 0)
(-1.18848e-09 6.7886e-09 0)
(-1.83335e-09 1.01047e-08 0)
(-9.2573e-11 5.68663e-10 0)
(-6.68278e-11 4.16968e-10 0)
(-1.64407e-10 1.02359e-09 0)
(-7.81675e-15 7.00817e-14 0)
(-1.8761e-14 1.14251e-13 0)
(-8.2146e-15 5.45907e-14 0)
(-3.62858e-11 2.18681e-10 0)
(-2.89046e-11 1.70441e-10 0)
(-1.47279e-11 8.69508e-11 0)
(7.32396e-15 1.57039e-13 0)
(2.73699e-14 2.31273e-13 0)
(4.20595e-14 3.48383e-13 0)
(1.17114e-12 8.4188e-12 0)
(4.34367e-13 3.12066e-12 0)
(1.14487e-12 8.19286e-12 0)
(4.70022e-11 3.24978e-10 0)
(3.50414e-11 2.4563e-10 0)
(2.0892e-11 1.44997e-10 0)
(2.36593e-12 1.66288e-11 0)
(1.55323e-12 1.1011e-11 0)
(9.93254e-13 7.02433e-12 0)
(1.99508e-11 1.29997e-10 0)
(4.6407e-11 2.9982e-10 0)
(3.41789e-11 2.26099e-10 0)
(1.09752e-10 6.51528e-10 0)
(3.36037e-11 2.00178e-10 0)
(5.55639e-11 3.20281e-10 0)
(-2.94181e-11 5.23512e-11 0)
(-6.69528e-11 9.51079e-11 0)
(-2.74025e-11 4.82295e-11 0)
(1.00449e-12 7.90168e-11 0)
(-9.00711e-12 4.3418e-11 0)
(-4.00756e-11 7.56189e-11 0)
(2.04833e-11 1.03663e-10 0)
(9.03139e-12 4.47392e-11 0)
(4.7382e-12 2.14261e-11 0)
(8.85916e-11 3.35198e-10 0)
(5.77372e-11 2.93229e-10 0)
(2.62906e-11 1.39266e-10 0)
(2.06142e-11 1.19512e-10 0)
(-1.46833e-09 3.37339e-09 0)
(-3.4544e-09 8.3649e-09 0)
(-2.01372e-09 3.77791e-09 0)
(0.000873712 0.00273132 0)
(0.00135632 0.00316869 0)
(0.00149883 0.00156917 0)
(0.0012734 0.00141289 0)
(0.00134287 0.00115049 0)
(0.00150704 -0.00107698 0)
(0.00170206 -0.00148154 0)
(0.00174583 -0.00112986 0)
(0.00148221 -0.00256736 0)
(0.00129787 -0.00248502 0)
(0.00150226 -0.00288293 0)
(0.000755694 0.000784248 0)
(0.000798456 0.000499384 0)
(0.00102795 0.000913557 0)
(0.000584367 0.00792983 0)
(0.0007112 0.0102668 0)
(0.0014258 0.0059051 0)
(0.000451521 0.0137847 0)
(0.000378286 0.0121674 0)
(0.000369509 0.0106586 0)
(-6.46998e-08 -1.95562e-08 0)
(-9.54658e-08 -5.79827e-08 0)
(-5.19155e-08 -4.40983e-08 0)
(-5.29387e-07 -1.01073e-06 0)
(-1.0533e-06 -1.77407e-06 0)
(-8.74683e-07 -1.85378e-06 0)
(5.18679e-08 -5.50392e-07 0)
(-1.84801e-07 -3.37377e-06 0)
(-5.91678e-07 -5.3915e-06 0)
(-3.59669e-07 -4.78785e-06 0)
(2.3881e-05 -8.40744e-05 0)
(1.71587e-05 -5.63412e-05 0)
(0.00122798 -0.00379285 0)
(0.00107153 -0.00316462 0)
(0.000952898 -0.00309231 0)
(0.000818855 -0.00344723 0)
(0.000832771 -0.0031937 0)
(0.000685527 -0.00280862 0)
(-1.01791e-05 0.019291 0)
(2.97311e-05 0.0141488 0)
(9.11916e-06 0.00775783 0)
(1.11226e-05 0.00915916 0)
(-1.3911e-06 0.0104762 0)
(4.7325e-06 0.00370005 0)
(3.36224e-06 0.00501067 0)
(3.51582e-08 0.00481476 0)
(-7.13819e-05 0.0121226 0)
(-3.0515e-05 0.00848336 0)
(-7.08977e-05 0.0127865 0)
(-2.0265e-05 0.00406513 0)
(7.33099e-05 0.0139297 0)
(5.05055e-05 0.0168169 0)
(6.25191e-05 0.012267 0)
(-3.55013e-05 0.00396281 0)
(-1.59509e-05 0.00213585 0)
(-4.56241e-05 0.00472461 0)
(-3.33504e-05 0.00263511 0)
(-3.03829e-05 0.00228227 0)
(-2.07817e-05 0.00172965 0)
(-6.31023e-06 0.00071102 0)
(-7.12631e-06 0.000821713 0)
(-1.15865e-05 0.00123493 0)
(-0.000371652 0.0175066 0)
(-0.000383601 0.0175334 0)
(-0.000344297 0.0165722 0)
(-8.00886e-05 0.00664276 0)
(-0.000104124 0.00805017 0)
(-8.42309e-05 0.00688372 0)
(-0.000123114 0.00900121 0)
(-0.000164114 0.0110058 0)
(-0.000145274 0.0101567 0)
(-0.000277641 0.00935548 0)
(-0.000218983 0.00801587 0)
(-0.00030768 0.0109009 0)
(-0.0001258 0.00404969 0)
(-0.000175223 0.00580666 0)
(-0.000189663 0.00555234 0)
(-0.000337097 0.00410458 0)
(-0.000158677 0.00176448 0)
(-0.000234496 0.00237264 0)
(-0.00017259 0.00164148 0)
(-2.73613e-05 9.22075e-05 0)
(-3.03637e-05 0.000126717 0)
(-4.10754e-05 0.000149694 0)
(-1.54185e-06 8.34444e-06 0)
(-1.22277e-06 5.8591e-06 0)
(-7.37223e-07 3.89479e-06 0)
(-0.000114854 5.4787e-05 0)
(-7.07121e-05 -2.38948e-06 0)
(-6.47145e-05 2.82695e-05 0)
(-1.3138e-08 5.72405e-08 0)
(-2.2985e-08 1.05893e-07 0)
(-2.8303e-08 1.22939e-07 0)
(-4.52981e-08 1.85794e-07 0)
(-2.03244e-08 8.26885e-08 0)
(-5.16083e-10 2.97194e-09 0)
(-2.32145e-10 1.28379e-09 0)
(-1.46096e-10 8.28877e-10 0)
(-1.32948e-09 6.275e-09 0)
(-2.4331e-09 1.18817e-08 0)
(-3.16783e-09 1.46265e-08 0)
(-2.06248e-09 1.08602e-08 0)
(-9.92964e-10 5.19775e-09 0)
(-6.46021e-10 3.46407e-09 0)