/*--------------------------------*- C++ -*----------------------------------*\
| =========                 |                                                 |
| \\      /  F ield         | OpenFOAM: The Open Source CFD Toolbox           |
|  \\    /   O peration     | Version:  v2012                                 |
|   \\  /    A nd           | Website:  www.openfoam.com                      |
|    \\/     M anipulation  |                                                 |
\*---------------------------------------------------------------------------*/
FoamFile
{
    version     2.0;
    format      ascii;
    class       volVectorField;
    location    "2";
    object      cellDisplacement;
}
// * * * * * * * * * * * * * * * * * * * * * * * * * * * * * * * * * * * * * //

dimensions      [0 1 0 0 0 0 0];


internalField   nonuniform List<vector> 
13611
(
(0.000184927 -0.00339237 0)
(0.000321185 -0.00690546 0)
(7.892e-05 -0.00156805 0)
(0.000430443 -0.00815782 0)
(0.000563941 -0.0106179 0)
(0.000753632 -0.0151827 0)
(0.000295326 -0.00797359 0)
(0.000109802 -0.00299492 0)
(0.00106956 -0.018901 0)
(0.000593675 -0.0126669 0)
(0.000697136 -0.017347 0)
(0.0001928 -0.00591436 0)
(0.000361942 -0.0113438 0)
(4.26056e-05 -0.00141972 0)
(0.000973891 -0.0199513 0)
(0.00048536 -0.0133322 0)
(0.000748351 -0.0196245 0)
(0.000529868 -0.0162715 0)
(0.000149414 -0.00653998 0)
(0.000282881 -0.0119486 0)
(7.843e-05 -0.00356809 0)
(0.00113151 -0.0214974 0)
(0.00103106 -0.0216939 0)
(0.000869128 -0.0204383 0)
(0.000638016 -0.0210928 0)
(0.000455969 -0.0181978 0)
(0.000178168 -0.00914796 0)
(0.000264584 -0.0147233 0)
(3.33144e-05 -0.00219951 0)
(0.00119746 -0.0224044 0)
(0.000952722 -0.0230415 0)
(0.000848959 -0.0225846 0)
(0.000651303 -0.0231569 0)
(0.000509077 -0.0207521 0)
(0.000319165 -0.0176539 0)
(0.000140457 -0.0101696 0)
(0.000175069 -0.0137414 0)
(3.06555e-05 -0.00367901 0)
(0.00116893 -0.0237374 0)
(0.000962679 -0.0246485 0)
(0.00074852 -0.0237504 0)
(0.000542133 -0.024131 0)
(0.000454539 -0.0226878 0)
(0.000238032 -0.0202833 0)
(8.41681e-05 -0.00927793 0)
(0.000107358 -0.0148451 0)
(5.11554e-06 -0.00150529 0)
(4.71612e-05 -0.00673265 0)
(0.00106424 -0.0248505 0)
(0.00125198 -0.0243531 0)
(0.000849806 -0.025926 0)
(0.000741133 -0.0254649 0)
(0.00050895 -0.0255978 0)
(0.000359404 -0.023571 0)
(0.00026505 -0.0229483 0)
(0.00012673 -0.0202593 0)
(5.97901e-05 -0.0121844 0)
(7.90575e-05 -0.0177487 0)
(-2.13282e-06 -0.00336476 0)
(6.10189e-06 -0.00648227 0)
(0.00108096 -0.0262684 0)
(0.00120191 -0.0257981 0)
(0.000828195 -0.0273785 0)
(0.000644221 -0.0267061 0)
(0.00138093 -0.0255808 0)
(0.00040842 -0.0264226 0)
(0.000553351 -0.0267143 0)
(0.000336634 -0.0258863 0)
(0.000175021 -0.0247671 0)
(5.35764e-05 -0.0231866 0)
(3.58557e-06 -0.0122322 0)
(-2.10113e-05 -0.0182599 0)
(-1.12721e-05 -0.00194354 0)
(-1.37436e-05 -0.00893645 0)
(0.00100434 -0.0276409 0)
(0.00126175 -0.026325 0)
(0.000717304 -0.0284415 0)
(0.000891953 -0.0280808 0)
(0.000638725 -0.0282578 0)
(0.000389993 -0.0279692 0)
(0.000470852 -0.0281249 0)
(0.000239687 -0.027234 0)
(8.47376e-05 -0.0250047 0)
(0.000170589 -0.0267902 0)
(-4.67323e-05 -0.0236734 0)
(-4.20235e-05 -0.0153552 0)
(-8.04849e-05 -0.0212755 0)
(-3.60258e-05 -0.00471319 0)
(-4.96468e-05 -0.00883784 0)
(0.00104304 -0.0288723 0)
(0.0012377 -0.0274222 0)
(0.000703105 -0.0297236 0)
(0.000804453 -0.0295653 0)
(0.000545046 -0.0294302 0)
(0.00134734 -0.0273916 0)
(0.00030887 -0.0291388 0)
(0.000468639 -0.0293178 0)
(0.000225552 -0.0289636 0)
(2.95825e-05 -0.0269629 0)
(8.22058e-05 -0.0279373 0)
(-0.000120242 -0.0260556 0)
(-0.000101467 -0.0151583 0)
(-0.000179151 -0.0224578 0)
(-5.25271e-05 -0.00488102 0)
(-9.02783e-05 -0.0116317 0)
(0.00115515 -0.0285397 0)
(0.000933795 -0.0304031 0)
(0.000594169 -0.0310029 0)
(0.000812331 -0.0306262 0)
(0.000514273 -0.0308873 0)
(0.00133515 -0.0283677 0)
(0.00141405 -0.0285438 0)
(0.000299639 -0.0306324 0)
(0.000380943 -0.0306279 0)
(0.000147621 -0.030155 0)
(-5.271e-05 -0.0282281 0)
(3.08023e-05 -0.0296685 0)
(-0.000116073 -0.0280022 0)
(-0.0002049 -0.0266536 0)
(-0.000173519 -0.017567 0)
(-0.000217291 -0.0208376 0)
(-0.000243771 -0.0254694 0)
(-2.65622e-05 -0.00211124 0)
(-0.000103657 -0.00850868 0)
(-0.000121669 -0.0113707 0)
(0.00120366 -0.0293188 0)
(0.000938403 -0.0315444 0)
(0.000591867 -0.032023 0)
(0.00070787 -0.0318101 0)
(0.000400437 -0.0317229 0)
(0.00137474 -0.0297361 0)
(0.000208512 -0.0317577 0)
(0.000142201 -0.0314654 0)
(5.88985e-05 -0.0305223 0)
(-6.71537e-05 -0.0301178 0)
(-0.000213231 -0.0296001 0)
(-0.000259218 -0.0287989 0)
(-0.000205389 -0.0163334 0)
(-0.000314045 -0.0223064 0)
(-0.00033118 -0.0268754 0)
(-6.44696e-05 -0.004031 0)
(-0.000143663 -0.00973405 0)
(-0.000172507 -0.0136159 0)
(0.00116669 -0.0304398 0)
(0.000832683 -0.0327778 0)
(0.00104964 -0.0314535 0)
(0.000514686 -0.0331906 0)
(0.000682881 -0.0329114 0)
(0.000333723 -0.0329086 0)
(0.00125984 -0.0306718 0)
(0.00146562 -0.029793 0)
(0.000173948 -0.0331254 0)
(6.18245e-05 -0.0323677 0)
(5.50918e-06 -0.0319511 0)
(-0.000141637 -0.0316389 0)
(-0.000252053 -0.0311573 0)
(-0.000334366 -0.0298064 0)
(-0.000272929 -0.0176514 0)
(-0.000329676 -0.0203389 0)
(-0.000379479 -0.0248488 0)
(-0.000372315 -0.0291108 0)
(-0.000381662 -0.0266095 0)
(-3.5902e-05 -0.0019896 0)
(-0.000132413 -0.00796838 0)
(-0.000192558 -0.0127086 0)
(0.000732144 -0.0332615 0)
(0.000834559 -0.0336997 0)
(0.00102585 -0.0326632 0)
(0.000411684 -0.0339811 0)
(0.000569042 -0.0337307 0)
(0.000222929 -0.0335549 0)
(0.000341765 -0.0338912 0)
(0.0012314 -0.0317603 0)
(0.00144188 -0.0307887 0)
(6.93135e-05 -0.0339946 0)
(2.61506e-05 -0.0335156 0)
(-7.12603e-05 -0.0330318 0)
(-0.000222309 -0.0319863 0)
(-0.000141625 -0.0331124 0)
(-0.000348952 -0.0323515 0)
(-0.000386058 -0.0318068 0)
(-0.000252922 -0.0151214 0)
(-0.000406283 -0.0216711 0)
(-0.00046576 -0.0259754 0)
(-0.000443333 -0.0302273 0)
(-0.000474501 -0.0286383 0)
(-7.57511e-05 -0.00369115 0)
(-0.000179475 -0.00939527 0)
(0.000659889 -0.0346347 0)
(0.000918065 -0.0336357 0)
(0.000722814 -0.0348112 0)
(0.00112002 -0.0326743 0)
(0.000368283 -0.0352465 0)
(0.000525017 -0.0346921 0)
(0.000161097 -0.034957 0)
(0.000221841 -0.0351734 0)
(0.00132707 -0.0317576 0)
(0.00153791 -0.0307133 0)
(1.57339e-05 -0.0352579 0)
(-6.63365e-05 -0.0341352 0)
(-0.000299669 -0.0335803 0)
(-0.000231638 -0.0345834 0)
(-0.000376784 -0.0337622 0)
(-0.000457942 -0.0325398 0)
(-0.000283919 -0.0151373 0)
(-0.00042379 -0.020422 0)
(-0.000481066 -0.0247615 0)
(-0.000524521 -0.0283273 0)
(-0.00049341 -0.0300359 0)
(-0.000476106 -0.0316905 0)
(-0.000148118 -0.00715053 0)
(-3.94321e-05 -0.00176232 0)
(-0.000246938 -0.0124684 0)
(0.000567814 -0.0352295 0)
(0.000899088 -0.0345342 0)
(0.000708924 -0.0356461 0)
(0.00108533 -0.0338072 0)
(0.000269171 -0.036194 0)
(0.000430413 -0.0354015 0)
(5.89234e-05 -0.0357844 0)
(0.000191256 -0.0362176 0)
(0.00130077 -0.0327502 0)
(0.00152004 -0.0316325 0)
(-8.12033e-05 -0.0359943 0)
(-0.000119762 -0.0353505 0)
(-0.000304731 -0.0346855 0)
(-0.000249354 -0.0357962 0)
(-0.000448986 -0.0350441 0)
(-0.000526755 -0.0339423 0)
(-0.000365754 -0.0176772 0)
(-0.000502373 -0.0222423 0)
(-0.000560481 -0.0260243 0)
(-0.000602229 -0.0297437 0)
(-0.00055565 -0.0315089 0)
(-0.000540914 -0.0324009 0)
(-0.000189694 -0.00840589 0)
(-8.62619e-05 -0.00357993 0)
(-0.000291297 -0.0132834 0)
(0.00048499 -0.0362945 0)
(0.000804538 -0.0354068 0)
(0.000977827 -0.0346104 0)
(0.000623851 -0.0366169 0)
(0.00117713 -0.0337922 0)
(0.00023961 -0.0371828 0)
(0.000399705 -0.0363827 0)
(-1.15275e-05 -0.0371032 0)
(0.000100653 -0.0372054 0)
(0.00139871 -0.0326892 0)
(-0.000134525 -0.037127 0)
(-0.000201325 -0.0360532 0)
(-0.00038716 -0.0360655 0)
(-0.000333905 -0.0370082 0)
(-0.000513311 -0.0354107 0)
(-0.000453975 -0.0362466 0)
(-0.000546188 -0.0349689 0)
(-0.000576618 -0.0336798 0)
(-0.000365504 -0.0162546 0)
(-0.000534999 -0.0220892 0)
(-0.000563459 -0.0248194 0)
(-0.00063028 -0.0282273 0)
(-0.000644731 -0.0296009 0)
(-0.000647158 -0.0316522 0)
(-0.000619418 -0.032229 0)
(-0.000161643 -0.00673452 0)
(-0.00026388 -0.011454 0)
(-4.78059e-05 -0.00185222 0)
(0.000464095 -0.037146 0)
(0.000806764 -0.0360874 0)
(0.000915322 -0.0356332 0)
(0.000637185 -0.0372724 0)
(0.000525077 -0.0372293 0)
(0.00115124 -0.0347886 0)
(0.00030925 -0.0372102 0)
(0.000144864 -0.0380978 0)
(-0.00010768 -0.0377014 0)
(1.36252e-05 -0.037618 0)
(8.38367e-05 -0.038104 0)
(0.00136778 -0.0335439 0)
(-0.000230284 -0.0379398 0)
(-0.000261154 -0.0375372 0)
(-0.000397981 -0.0371724 0)
(-0.000341965 -0.0380508 0)
(-0.00058052 -0.0368339 0)
(-0.000529458 -0.0375365 0)
(-0.00062543 -0.0361256 0)
(-0.000643466 -0.0344619 0)
(-0.000420716 -0.0172721 0)
(-0.000503689 -0.0200996 0)
(-0.000618442 -0.0245191 0)
(-0.000633434 -0.0260065 0)
(-0.000697196 -0.0290282 0)
(-0.000730264 -0.0312825 0)
(-0.000722867 -0.0328182 0)
(-0.000672275 -0.03389 0)
(-0.000227857 -0.00898351 0)
(-0.000296783 -0.0118839 0)
(-0.000106063 -0.00395313 0)
(0.000344875 -0.0381846 0)
(0.000724523 -0.0369782 0)
(0.000932757 -0.0361598 0)
(0.000541543 -0.0382771 0)
(0.000467894 -0.0383634 0)
(0.00103574 -0.0358459 0)
(0.00124776 -0.0345688 0)
(0.0002775 -0.0381467 0)
(0.000113614 -0.0390092 0)
(-0.000184854 -0.038813 0)
(-5.11584e-05 -0.0387388 0)
(-2.19655e-06 -0.0389316 0)
(0.00142655 -0.0337019 0)
(0.00152996 -0.0331637 0)
(-0.000264627 -0.0389909 0)
(-0.000477574 -0.0383649 0)
(-0.000420662 -0.0392143 0)
(-0.000638201 -0.0371162 0)
(-0.000589277 -0.0377439 0)
(-0.000541797 -0.0385483 0)
(-0.000675848 -0.0363429 0)
(-0.000685999 -0.0356849 0)
(-0.000376279 -0.0146816 0)
(-0.000565613 -0.0210155 0)
(-0.000674498 -0.0253241 0)
(-0.000697885 -0.0280146 0)
(-0.000758234 -0.030863 0)
(-0.000761487 -0.0325993 0)
(-0.000770874 -0.0343854 0)
(-0.000747113 -0.0348633 0)
(-0.000211134 -0.00795957 0)
(-0.000104384 -0.00373454 0)
(0.000305578 -0.0390905 0)
(0.000726286 -0.0376733 0)
(0.000825141 -0.0373142 0)
(0.000537191 -0.0388626 0)
(0.000368708 -0.0391733 0)
(0.00101446 -0.0366732 0)
(0.0012439 -0.0351838 0)
(0.000176164 -0.0390319 0)
(1.65602e-05 -0.0398859 0)
(-0.000192642 -0.039522 0)
(-0.000130865 -0.0394563 0)
(-3.72843e-05 -0.0397945 0)
(0.00134747 -0.0346821 0)
(0.00155008 -0.033714 0)
(-0.000340305 -0.039958 0)
(-0.000492485 -0.0393703 0)
(-0.000431544 -0.0399859 0)
(-0.000703622 -0.0381916 0)
(-0.00066303 -0.0389451 0)
(-0.000620525 -0.0397165 0)
(-0.000741682 -0.0374874 0)
(-0.000754718 -0.0364486 0)
(-0.000423982 -0.0156234 0)
(-0.000655339 -0.0237687 0)
(-0.000530658 -0.0191217 0)
(-0.000753864 -0.0276603 0)
(-0.000762716 -0.0288939 0)
(-0.000828702 -0.0318423 0)
(-0.000833535 -0.0340155 0)
(-0.00084034 -0.0351408 0)
(-0.000788822 -0.0362045 0)
(-0.000257832 -0.0092303 0)
(-4.5825e-05 -0.00160605 0)
(-0.000195908 -0.0068229 0)
(0.00019812 -0.0399902 0)
(0.000633513 -0.0385588 0)
(0.000831461 -0.0378435 0)
(0.000456769 -0.0397669 0)
(0.000315317 -0.0401363 0)
(0.00108208 -0.0366954 0)
(0.00091915 -0.0374956 0)
(0.00117317 -0.0361132 0)
(0.000135872 -0.0399694 0)
(-2.27895e-05 -0.0407747 0)
(-0.000280446 -0.0406424 0)
(-0.000173033 -0.0404328 0)
(-0.000128701 -0.0405781 0)
(0.00135218 -0.0352026 0)
(0.00145015 -0.0347811 0)
(-0.000349181 -0.0409104 0)
(-0.000398586 -0.0402036 0)
(-0.000565285 -0.0403041 0)
(-0.000500576 -0.0409569 0)
(-0.000756231 -0.0383389 0)
(-0.000718987 -0.0391049 0)
(-0.000681093 -0.0398992 0)
(-0.00062793 -0.0404665 0)
(-0.000785925 -0.0375146 0)
(-0.00039949 -0.0141931 0)
(-0.000724629 -0.0249984 0)
(-0.000573326 -0.0196838 0)
(-0.00081684 -0.0285743 0)
(-0.000832521 -0.0308707 0)
(-0.000881896 -0.0333581 0)
(-0.000879263 -0.034272 0)
(-0.000890679 -0.0363152 0)
(-0.000857599 -0.0372134 0)
(-0.000330864 -0.0116071 0)
(-7.92483e-05 -0.00264238 0)
(-0.000216228 -0.00722329 0)
(0.000157995 -0.0408169 0)
(0.000604881 -0.039313 0)
(0.000754334 -0.0387639 0)
(0.000359395 -0.0403543 0)
(0.000493828 -0.040075 0)
(0.00021209 -0.0408777 0)
(0.000997841 -0.0377541 0)
(0.000906255 -0.0381345 0)
(0.00124285 -0.0361622 0)
(3.37368e-05 -0.040837 0)
(-0.000120567 -0.0415862 0)
(-0.000265563 -0.0411606 0)
(-0.000172403 -0.04148 0)
(0.00146691 -0.0352117 0)
(-0.000443262 -0.0420546 0)
(-0.000470307 -0.0412052 0)
(-0.000597302 -0.0412489 0)
(-0.000568616 -0.0415249 0)
(-0.000821885 -0.039338 0)
(-0.000788773 -0.0401201 0)
(-0.000758104 -0.0409456 0)
(-0.000681482 -0.0413102 0)
(-0.000847854 -0.038433 0)
(-0.000463943 -0.0157093 0)
(-0.000718941 -0.0239739 0)
(-0.000808606 -0.0274702 0)
(-0.000531674 -0.0178052 0)
(-0.000653527 -0.0217647 0)
(-0.000887854 -0.0305281 0)
(-0.000894553 -0.0315988 0)
(-0.000944403 -0.0342645 0)
(-0.000944002 -0.0355889 0)
(-0.000950294 -0.0369453 0)
(-0.000896016 -0.0372233 0)
(-0.000887382 -0.0383939 0)
(-0.000351732 -0.0117879 0)
(-0.000158018 -0.0051924 0)
(-3.44908e-05 -0.0011199 0)
(-0.000298228 -0.00978251 0)
(-0.00194967 -0.0158856 0)
(-0.00042989 -0.00341458 0)
(5.20299e-05 -0.0417345 0)
(0.000655666 -0.0394152 0)
(0.000808261 -0.0389139 0)
(0.000289247 -0.0413371 0)
(0.000434137 -0.0409006 0)
(0.000143372 -0.0418345 0)
(0.0010039 -0.0381893 0)
(0.00120815 -0.0369259 0)
(-1.07363e-05 -0.0417787 0)
(-0.00016427 -0.0424421 0)
(-0.00031339 -0.0420513 0)
(-0.000265006 -0.0422316 0)
(0.00159401 -0.0345749 0)
(0.00138786 -0.036092 0)
(-0.000502879 -0.0420818 0)
(-0.000460836 -0.0428263 0)
(-0.000666294 -0.0418006 0)
(-0.000615265 -0.0424876 0)
(-0.000869774 -0.039408 0)
(-0.000838492 -0.0402042 0)
(-0.000809007 -0.0410049 0)
(-0.000781995 -0.0418056 0)
(-0.000741552 -0.0418359 0)
(-0.000427894 -0.0141107 0)
(-0.000795923 -0.0254594 0)
(-0.000871262 -0.0284582 0)
(-0.000585769 -0.0188584 0)
(-0.000657593 -0.0210663 0)
(-0.000952607 -0.0314104 0)
(-0.000960457 -0.0332061 0)
(-0.000978382 -0.0355327 0)
(-0.000976884 -0.0342626 0)
(-0.000972761 -0.0366849 0)
(-0.000991166 -0.0381439 0)
(-0.000961279 -0.0382989 0)
(-0.000953436 -0.0393901 0)
(-0.000152931 -0.00485678 0)
(-7.48194e-05 -0.00236169 0)
(-0.000329021 -0.0104264 0)
(-0.00159444 -0.0129932 0)
(-0.00206195 -0.0180723 0)
(-0.00257222 -0.0204345 0)
(-0.000833661 -0.00672759 0)
(-0.000212367 -0.00180354 0)
(3.82037e-05 -0.0423987 0)
(0.000587352 -0.0404083 0)
(0.000760975 -0.0396797 0)
(0.000327023 -0.0415763 0)
(0.000176881 -0.0420715 0)
(0.000476515 -0.04113 0)
(0.00109596 -0.0378409 0)
(0.000912291 -0.0391696 0)
(0.00127935 -0.036837 0)
(-0.000111786 -0.0425759 0)
(-0.000260067 -0.0431927 0)
(-0.000395411 -0.0427296 0)
(-0.000308725 -0.0430854 0)
(0.00141291 -0.0363836 0)
(-0.000582044 -0.0427988 0)
(-0.000532786 -0.0437144 0)
(-0.000719079 -0.0425698 0)
(-0.000687634 -0.0431966 0)
(-0.000938472 -0.0404462 0)
(-0.000898671 -0.0410474 0)
(-0.000879003 -0.0418977 0)
(-0.000860918 -0.0427569 0)
(-0.000770518 -0.0426676 0)
(-0.000467765 -0.0148656 0)
(-0.000788779 -0.0245822 0)
(-0.000865603 -0.0275072 0)
(-0.000944443 -0.0304445 0)
(-0.00055618 -0.0174495 0)
(-0.000717415 -0.022382 0)
(-0.00101015 -0.0329218 0)
(-0.0010091 -0.0336276 0)
(-0.00103002 -0.0364212 0)
(-0.00104445 -0.0355854 0)
(-0.00103959 -0.0376812 0)
(-0.00104936 -0.0389703 0)
(-0.000988733 -0.0392915 0)
(-0.000983133 -0.0404672 0)
(-0.000201457 -0.00626103 0)
(-4.0515e-05 -0.00124075 0)
(-0.000284228 -0.00882373 0)
(-0.000421374 -0.0131466 0)
(-0.00138374 -0.0121205 0)
(-0.00233521 -0.0205793 0)
(-0.00185358 -0.0175028 0)
(-0.0025181 -0.0212223 0)
(-0.00101013 -0.00878984 0)
(-0.000408794 -0.00376215 0)
(-4.56377e-05 -0.0432896 0)
(0.000638576 -0.0405218 0)
(0.000810903 -0.0398019 0)
(0.000257855 -0.0425164 0)
(0.000113634 -0.0429559 0)
(0.000407898 -0.0419504 0)
(0.00105816 -0.038656 0)
(0.000948894 -0.0394266 0)
(0.00123715 -0.0376592 0)
(-0.000168923 -0.0434874 0)
(-0.000301258 -0.0439419 0)
(-0.000441723 -0.0436846 0)
(-0.000402799 -0.0438523 0)
(0.00149419 -0.035963 0)
(0.00131927 -0.037337 0)
(-0.000642036 -0.0436942 0)
(-0.000516465 -0.0441982 0)
(-0.000605419 -0.0443006 0)
(-0.000733766 -0.0432324 0)
(-0.000711263 -0.043957 0)
(-0.000950923 -0.0412239 0)
(-0.000918096 -0.0418546 0)
(-0.000906293 -0.0427821 0)
(-0.000877446 -0.0434397 0)
(-0.000826679 -0.0433125 0)
(-0.000844584 -0.0255185 0)
(-0.000920434 -0.0284352 0)
(-0.000999618 -0.0311272 0)
(-0.000601292 -0.0182805 0)
(-0.000734604 -0.0222161 0)
(-0.00106873 -0.0338688 0)
(-0.00106624 -0.0348969 0)
(-0.00106342 -0.0364898 0)
(-0.00106108 -0.0374688 0)
(-0.00108316 -0.0357826 0)
(-0.00107604 -0.0387756 0)
(-0.00108281 -0.0399995 0)
(-0.00105236 -0.0401709 0)
(-0.00104935 -0.0413441 0)
(-0.000170234 -0.00517583 0)
(-8.71003e-05 -0.00262591 0)
(-0.000325728 -0.00981532 0)
(-0.000446775 -0.0135291 0)
(-0.0015342 -0.0144657 0)
(-0.00239031 -0.0223699 0)
(-0.00200161 -0.0199891 0)
(-0.00283479 -0.0235293 0)
(-0.0027052 -0.0233708 0)
(-0.00308261 -0.0247907 0)
(-0.000799532 -0.0074107 0)
(-0.000203902 -0.0020035 0)
(-0.000141938 -0.0437945 0)
(-4.23789e-05 -0.0437646 0)
(0.000587465 -0.041286 0)
(0.000733359 -0.0407685 0)
(0.000298249 -0.0426482 0)
(0.00015679 -0.0431616 0)
(2.29607e-05 -0.0435981 0)
(0.000420166 -0.0423012 0)
(0.00112918 -0.0385474 0)
(0.000885941 -0.0401804 0)
(-0.000262525 -0.0440991 0)
(-0.000393007 -0.04471 0)
(-0.00044753 -0.0447361 0)
(0.00159362 -0.0358076 0)
(0.00149807 -0.0363548 0)
(0.00132969 -0.037638 0)
(-0.000654702 -0.0443383 0)
(-0.000578193 -0.044988 0)
(-0.000641679 -0.0451674 0)
(-0.000808705 -0.0440478 0)
(-0.000782805 -0.044722 0)
(-0.00100381 -0.0421719 0)
(-0.000982323 -0.0425645 0)
(-0.000977848 -0.0435503 0)
(-0.000936768 -0.044319 0)
(-0.000848862 -0.044021 0)
(-0.000812283 -0.024122 0)
(-0.000904018 -0.0270261 0)
(-0.000930424 -0.0281168 0)
(-0.000981899 -0.0301162 0)
(-0.00106826 -0.0326999 0)
(-0.000575479 -0.0170986 0)
(-0.000688851 -0.0206272 0)
(-0.00109508 -0.0338416 0)
(-0.00110345 -0.0350835 0)
(-0.00112084 -0.0376525 0)
(-0.00112103 -0.0382752 0)
(-0.00114283 -0.0369554 0)
(-0.00113721 -0.0396214 0)
(-0.00114296 -0.0408015 0)
(-0.00108267 -0.0411448 0)
(-0.00108926 -0.0424157 0)
(-0.000209117 -0.00622846 0)
(-8.87335e-05 -0.00262809 0)
(-0.000396739 -0.011844 0)
(-0.000281801 -0.00835318 0)
(-0.000514798 -0.0152743 0)
(-0.00131329 -0.0130838 0)
(-0.00226532 -0.0223015 0)
(-0.002602 -0.0245525 0)
(-0.00191405 -0.0204812 0)
(-0.00297612 -0.0248557 0)
(-0.00273742 -0.0248994 0)
(-0.00321529 -0.0258803 0)
(-0.000952563 -0.00941083 0)
(-0.000415452 -0.00436841 0)
(-0.000226939 -0.0448211 0)
(-0.000122647 -0.0445994 0)
(0.00063409 -0.0413945 0)
(0.000488977 -0.0420507 0)
(0.000772813 -0.0408855 0)
(0.000255252 -0.0433406 0)
(7.77955e-05 -0.0441129 0)
(-1.90073e-05 -0.0442742 0)
(0.00032672 -0.0431416 0)
(0.0010915 -0.0393075 0)
(0.000896325 -0.0405423 0)
(-0.000326862 -0.0449156 0)
(-0.000411105 -0.0453199 0)
(-0.000532114 -0.0454441 0)
(0.00142708 -0.0370787 0)
(0.00126872 -0.0383955 0)
(-0.000749086 -0.0453265 0)
(-0.000586529 -0.0455017 0)
(-0.00071764 -0.0459665 0)
(-0.000834713 -0.044782 0)
(-0.000806073 -0.045432 0)
(-0.00106634 -0.0427624 0)
(-0.00101371 -0.0433666 0)
(-0.0010103 -0.0443245 0)
(-0.000917874 -0.0446791 0)
(-0.00099041 -0.0446744 0)
(-0.000854596 -0.024751 0)
(-0.00095197 -0.0277029 0)
(-0.00099354 -0.0294371 0)
(-0.0010238 -0.0305466 0)
(-0.00111253 -0.0329944 0)
(-0.000636908 -0.0184694 0)
(-0.000704437 -0.0204806 0)
(-0.00116987 -0.0352986 0)
(-0.00115702 -0.0361397 0)
(-0.00116215 -0.0379305 0)
(-0.00116034 -0.0393228 0)
(-0.00117987 -0.0371328 0)
(-0.00117074 -0.0406188 0)
(-0.00117367 -0.041737 0)
(-0.00114395 -0.0419092 0)
(-0.00115188 -0.0430353 0)
(-0.000165892 -0.00486948 0)
(-4.04062e-05 -0.00118246 0)
(-0.000432544 -0.0125757 0)
(-0.000310566 -0.00900694 0)
(-0.000500625 -0.0144837 0)
(-0.00134166 -0.0143337 0)
(-0.00240049 -0.0245149 0)
(-0.00260003 -0.0258413 0)
(-0.00213695 -0.0236755 0)
(-0.00161211 -0.0177755 0)
(-0.00301186 -0.026307 0)
(-0.0029003 -0.0265332 0)
(-0.00325167 -0.0271174 0)
(-0.00076993 -0.00809285 0)
(-0.000215577 -0.00240216 0)
(-0.000317596 -0.0453211 0)
(-0.000209034 -0.0451379 0)
(-0.000101943 -0.0448163 0)
(0.00055445 -0.0422511 0)
(0.000468544 -0.0426438 0)
(0.000719413 -0.0416325 0)
(0.000172772 -0.0440422 0)
(-6.11985e-06 -0.0445698 0)
(8.85087e-05 -0.044453 0)
(0.000311242 -0.0436428 0)
(0.00116829 -0.0391409 0)
(0.000975922 -0.0402453 0)
(0.000789708 -0.0414583 0)
(-0.000482196 -0.0460965 0)
(-0.000582004 -0.0462648 0)
(0.00151474 -0.0370033 0)
(0.00143356 -0.0374436 0)
(0.00133939 -0.0382533 0)
(-0.00077735 -0.0461001 0)
(-0.000666043 -0.0463331 0)
(-0.000733627 -0.0466147 0)
(-0.000907172 -0.0455003 0)
(-0.000891915 -0.0462815 0)
(-0.00111282 -0.0438466 0)
(-0.00108082 -0.0440582 0)
(-0.00107742 -0.0449925 0)
(-0.000949896 -0.0454204 0)
(-0.0010494 -0.0455544 0)
(-0.000834244 -0.023726 0)
(-0.000935389 -0.0268055 0)
(-0.00100861 -0.0292314 0)
(-0.00108519 -0.0318572 0)
(-0.00116819 -0.0341775 0)
(-0.00062863 -0.017867 0)
(-0.000764636 -0.0217813 0)
(-0.00119711 -0.0363755 0)
(-0.00119661 -0.0353203 0)
(-0.00122119 -0.039019 0)
(-0.0012195 -0.0401407 0)
(-0.00123678 -0.0382114 0)
(-0.00123025 -0.0414072 0)
(-0.0012313 -0.0424771 0)
(-0.00117243 -0.0427324 0)
(-0.00119633 -0.0438616 0)
(-0.000189886 -0.00547485 0)
(-7.4665e-05 -0.00213499 0)
(-0.000389609 -0.0111935 0)
(-0.000261898 -0.00750418 0)
(-0.000552788 -0.0157017 0)
(-0.000999007 -0.0110083 0)
(-0.00236616 -0.0253298 0)
(-0.00272952 -0.0276793 0)
(-0.0021659 -0.0251907 0)
(-0.00154325 -0.0182977 0)
(-0.00315084 -0.0274572 0)
(-0.00295608 -0.0280813 0)
(-0.00348443 -0.0276208 0)
(-0.00337852 -0.0280572 0)
(-0.000348279 -0.00413526 0)
(-0.000393613 -0.0461256 0)
(-0.000271285 -0.0459637 0)
(-0.000142959 -0.0454122 0)
(0.00055289 -0.0426303 0)
(0.00038483 -0.0433913 0)
(0.000626593 -0.0423548 0)
(0.000151074 -0.0446264 0)
(-8.74428e-05 -0.0453328 0)
(4.37676e-06 -0.0454091 0)
(0.000217258 -0.0444325 0)
(0.00112209 -0.0398929 0)
(0.000943838 -0.0409326 0)
(0.000760266 -0.042028 0)
(-0.000563944 -0.0465522 0)
(-0.00047324 -0.046495 0)
(-0.000666084 -0.0467865 0)
(0.00154509 -0.0371355 0)
(0.00130858 -0.0388233 0)
(-0.000858007 -0.0468701 0)
(-0.000806089 -0.047428 0)
(-0.000940209 -0.0462813 0)
(-0.000915646 -0.0469484 0)
(-0.00117929 -0.0445918 0)
(-0.0011132 -0.0449193 0)
(-0.00110008 -0.0457032 0)
(-0.00101525 -0.0460487 0)
(-0.00105932 -0.0460925 0)
(-0.000888293 -0.0246516 0)
(-0.000980593 -0.0274285 0)
(-0.00106657 -0.030378 0)
(-0.00111502 -0.0319121 0)
(-0.00120455 -0.0345462 0)
(-0.000689211 -0.0191853 0)
(-0.000756846 -0.0210569 0)
(-0.00125221 -0.0374948 0)
(-0.00125432 -0.036269 0)
(-0.00125841 -0.0391194 0)
(-0.00124701 -0.040006 0)
(-0.00125663 -0.0412353 0)
(-0.00126831 -0.038341 0)
(-0.00126045 -0.0423349 0)
(-0.00126129 -0.0433842 0)
(-0.00123154 -0.0434605 0)
(-0.00124606 -0.0440996 0)
(-0.00121067 -0.0445078 0)
(-0.000145631 -0.00414536 0)
(-3.56002e-05 -0.00100452 0)
(-0.000398955 -0.0112508 0)
(-0.00028174 -0.00792646 0)
(-0.000548212 -0.0152916 0)
(-0.000945028 -0.011045 0)
(-0.00253329 -0.0277228 0)
(-0.00288846 -0.0286478 0)
(-0.00269882 -0.0287368 0)
(-0.00204018 -0.0246875 0)
(-0.00237159 -0.0277979 0)
(-0.00122127 -0.0148415 0)
(-0.00177319 -0.0217878 0)
(-0.00319127 -0.0287982 0)
(-0.00310808 -0.0292123 0)
(-0.00359667 -0.0286809 0)
(-0.00340222 -0.029337 0)
(-0.000144602 -0.00180165 0)
(-0.000652762 -0.00784821 0)
(-0.000409531 -0.046678 0)
(-0.000360184 -0.0466351 0)
(-0.000223622 -0.0460022 0)
(0.00045139 -0.043573 0)
(0.000369452 -0.043938 0)
(0.000580987 -0.0430967 0)
(5.34323e-05 -0.0454079 0)
(-0.00011734 -0.0458683 0)
(-7.72634e-05 -0.0459397 0)
(0.000192372 -0.04499 0)
(0.00101452 -0.0407338 0)
(0.00119147 -0.0397174 0)
(0.000834257 -0.0418019 0)
(0.000644342 -0.0429408 0)
(-0.000633099 -0.0474105 0)
(-0.00053865 -0.0472766 0)
(-0.000733713 -0.0475894 0)
(0.00149102 -0.0378241 0)
(0.00137712 -0.0386483 0)
(-0.000887889 -0.0475152 0)
(-0.000866714 -0.0477403 0)
(-0.000807561 -0.0479602 0)
(-0.00101625 -0.0469441 0)
(-0.00098818 -0.0476911 0)
(-0.0012165 -0.0455834 0)
(-0.00118123 -0.0456884 0)
(-0.00115747 -0.0464017 0)
(-0.00104777 -0.0467889 0)
(-0.00112436 -0.0469123 0)
(-0.000872565 -0.0238557 0)
(-0.000955196 -0.0263414 0)
(-0.00105025 -0.029038 0)
(-0.00108756 -0.0303156 0)
(-0.00117772 -0.0331168 0)
(-0.00121403 -0.0342431 0)
(-0.00125446 -0.0357515 0)
(-0.000670682 -0.0183532 0)
(-0.000810083 -0.0221523 0)
(-0.00129477 -0.037981 0)
(-0.00128993 -0.0371324 0)
(-0.00131466 -0.0401043 0)
(-0.0013047 -0.0408849 0)
(-0.00132255 -0.0421384 0)
(-0.00132473 -0.03935 0)
(-0.00131832 -0.0431082 0)
(-0.00131489 -0.0440134 0)
(-0.00129239 -0.044881 0)
(-0.00127792 -0.0452651 0)
(-0.000172406 -0.00482325 0)
(-6.5951e-05 -0.00182882 0)
(-0.000340728 -0.00952502 0)
(-0.000445721 -0.0123847 0)
(-0.000236407 -0.00658091 0)
(-0.000500164 -0.0138396 0)
(-0.000606317 -0.0166182 0)
(-0.00251533 -0.0286369 0)
(-0.00298264 -0.0304175 0)
(-0.00281897 -0.0304766 0)
(-0.00217359 -0.0274196 0)
(-0.00242472 -0.029361 0)
(-0.00115243 -0.0148145 0)
(-0.00173723 -0.0224631 0)
(-0.00331499 -0.0297264 0)
(-0.00316786 -0.0306309 0)
(-0.0035887 -0.0299827 0)
(-0.00350159 -0.0301804 0)
(-0.000316564 -0.00412227 0)
(-0.0006199 -0.00796439 0)
(-0.000506149 -0.0474368 0)
(-0.000404661 -0.0473923 0)
(-0.000263522 -0.0466607 0)
(0.000469295 -0.0438502 0)
(0.000270173 -0.0447498 0)
(1.75409e-05 -0.0460337 0)
(-0.000212224 -0.0466003 0)
(-0.00015687 -0.0467846 0)
(9.17047e-05 -0.045798 0)
(0.00097676 -0.0414141 0)
(0.00115481 -0.0402977 0)
(0.000796821 -0.0424391 0)
(0.000616552 -0.0434779 0)
(-0.000718779 -0.0479267 0)
(-0.000616368 -0.0477338 0)
(0.00154937 -0.0377323 0)
(0.00132296 -0.0393909 0)
(-0.000955434 -0.0480907 0)
(-0.000937087 -0.0485718 0)
(-0.00087515 -0.048675 0)
(-0.00105658 -0.0476398 0)
(-0.00104331 -0.0479351 0)
(-0.000998483 -0.0481964 0)
(-0.00128262 -0.0462751 0)
(-0.00120451 -0.0464729 0)
(-0.0011723 -0.0470766 0)
(-0.00111751 -0.0473163 0)
(-0.000920833 -0.0246617 0)
(-0.000994298 -0.0268704 0)
(-0.00108284 -0.0292622 0)
(-0.00116276 -0.0317958 0)
(-0.00120388 -0.0330557 0)
(-0.00126816 -0.0352098 0)
(-0.00128966 -0.0360887 0)
(-0.000711058 -0.0190817 0)
(-0.000817859 -0.0219633 0)
(-0.00130271 -0.0377532 0)
(-0.00134214 -0.039179 0)
(-0.00133798 -0.0378164 0)
(-0.001349 -0.0401967 0)
(-0.00133395 -0.0408812 0)
(-0.00134242 -0.0419219 0)
(-0.00135477 -0.0430876 0)
(-0.00134268 -0.0438837 0)
(-0.00135161 -0.0448347 0)
(-0.00134395 -0.0452588 0)
(-0.00131157 -0.0460348 0)
(-0.000131673 -0.00364359 0)
(-3.11175e-05 -0.000852426 0)
(-0.000355348 -0.00978127 0)
(-0.000412965 -0.0113191 0)
(-0.00025687 -0.00703249 0)
(-0.000528298 -0.0143279 0)
(-0.000585572 -0.0158107 0)
(-0.00263451 -0.0305823 0)
(-0.00294605 -0.0311447 0)
(-0.00311154 -0.0312489 0)
(-0.00283455 -0.031664 0)
(-0.00235247 -0.0294954 0)
(-0.00210361 -0.0274401 0)
(-0.00257459 -0.0310032 0)
(-0.00131608 -0.0174989 0)
(-0.000823755 -0.0108554 0)
(-0.00155374 -0.0206472 0)
(-0.00192338 -0.0254259 0)
(-0.00334642 -0.0309297 0)
(-0.00328315 -0.0314089 0)
(-0.00379454 -0.0302116 0)
(-0.00366619 -0.0311004 0)
(-0.0035207 -0.0314619 0)
(-0.000174036 -0.00237948 0)
(-0.000551845 -0.0481362 0)
(-0.00049903 -0.0481273 0)
(-0.00035216 -0.0473428 0)
(0.000397281 -0.0446339 0)
(0.000231883 -0.0453794 0)
(-8.16659e-05 -0.0468556 0)
(-0.00023827 -0.0471398 0)
(-0.000162369 -0.0471882 0)
(6.66764e-05 -0.0462939 0)
(0.000868339 -0.042249 0)
(0.00104939 -0.0411416 0)
(0.00121768 -0.0401453 0)
(0.000694616 -0.043204 0)
(0.000522755 -0.0442835 0)
(-0.000776501 -0.0486728 0)
(-0.000676248 -0.048418 0)
(0.00149671 -0.0384002 0)
(0.00138485 -0.0392297 0)
(-0.000983147 -0.0487015 0)
(-0.000942562 -0.0489646 0)
(-0.00089699 -0.0492362 0)
(-0.00112646 -0.0481555 0)
(-0.00111082 -0.0487232 0)
(-0.00105728 -0.0488638 0)
(-0.0013239 -0.0471415 0)
(-0.00126092 -0.0471927 0)
(-0.00123339 -0.047793 0)
(-0.00115595 -0.0479882 0)
(-0.000975953 -0.0260028 0)
(-0.000888281 -0.0235565 0)
(-0.00105335 -0.0282174 0)
(-0.00113857 -0.0304193 0)
(-0.00117873 -0.031638 0)
(-0.00127067 -0.034333 0)
(-0.00129863 -0.0353806 0)
(-0.0013323 -0.036953 0)
(-0.000680127 -0.0180464 0)
(-0.000776817 -0.0206906 0)
(-0.00135335 -0.0384639 0)
(-0.00138768 -0.0397758 0)
(-0.00135501 -0.0377888 0)
(-0.00140299 -0.0411396 0)
(-0.00138482 -0.041754 0)
(-0.00139432 -0.0424544 0)
(-0.00140786 -0.0438855 0)
(-0.00139835 -0.044655 0)
(-0.00140685 -0.0452533 0)
(-0.0013912 -0.0460513 0)
(-0.00136965 -0.0466219 0)
(-0.000152307 -0.00415577 0)
(-5.60089e-05 -0.00151435 0)
(-0.000315807 -0.00860225 0)
(-0.000435311 -0.0117668 0)
(-0.00021373 -0.00580365 0)
(-0.00049596 -0.0133295 0)
(-0.000619539 -0.0164996 0)
(-0.00276442 -0.0318068 0)
(-0.00302972 -0.0327551 0)
(-0.00318585 -0.032738 0)
(-0.00297038 -0.0331529 0)
(-0.00244427 -0.0314637 0)
(-0.00217748 -0.0293002 0)
(-0.0026504 -0.0326603 0)
(-0.00122635 -0.0170498 0)
(-0.000806383 -0.0110672 0)
(-0.00159947 -0.0222935 0)
(-0.00192185 -0.0263673 0)
(-0.00345302 -0.0318103 0)
(-0.0033478 -0.0327268 0)
(-0.00376717 -0.0312777 0)
(-0.00362099 -0.0320565 0)
(-0.00031469 -0.00445984 0)
(-0.000633548 -0.0487328 0)
(-0.000533714 -0.0487344 0)
(-0.000392671 -0.0480425 0)
(0.000284234 -0.045346 0)
(0.000428934 -0.0448092 0)
(0.000128206 -0.0461191 0)
(-0.00010198 -0.0474162 0)
(-0.000328748 -0.0478905 0)
(-0.000263081 -0.0480671 0)
(-2.70003e-05 -0.0470851 0)
(0.000820211 -0.0429152 0)
(0.00104653 -0.0414843 0)
(0.00115533 -0.0408361 0)
(0.000645478 -0.0438625 0)
(0.000540179 -0.0445326 0)
(-0.000749052 -0.0488331 0)
(-0.000857612 -0.0492534 0)
(-0.00067816 -0.0487791 0)
(0.00154799 -0.0382797 0)
(0.00134685 -0.0398106 0)
(-0.00104636 -0.0491859 0)
(-0.00100928 -0.0497375 0)
(-0.000985055 -0.0499343 0)
(-0.00115751 -0.0488122 0)
(-0.00111448 -0.0491473 0)
(-0.00138655 -0.0476783 0)
(-0.00131123 -0.0474793 0)
(-0.00127446 -0.0478395 0)
(-0.00125464 -0.0484472 0)
(-0.00121954 -0.0485137 0)
(-0.00102788 -0.0269201 0)
(-0.000906878 -0.0236618 0)
(-0.00107872 -0.0283198 0)
(-0.00116479 -0.0305336 0)
(-0.00123288 -0.0324827 0)
(-0.00130412 -0.03452 0)
(-0.00135507 -0.0365341 0)
(-0.00136743 -0.0372452 0)
(-0.000703046 -0.018326 0)