/*--------------------------------*- C++ -*----------------------------------*\
| =========                 |                                                 |
| \\      /  F ield         | OpenFOAM: The Open Source CFD Toolbox           |
|  \\    /   O peration     | Version:  v2012                                 |
|   \\  /    A nd           | Website:  www.openfoam.com                      |
|    \\/     M anipulation  |                                                 |
\*---------------------------------------------------------------------------*/
FoamFile
{
    version     2.0;
    format      ascii;
    class       volScalarField;
    location    "2";
    object      k;
}
// * * * * * * * * * * * * * * * * * * * * * * * * * * * * * * * * * * * * * //

dimensions      [0 2 -2 0 0 0 0];


internalField   nonuniform List<scalar> 
13611
(
0.00106546
0.000562462
0.00180117
0.000367443
0.000242851
0.000252525
0.000477989
0.0012682
0.000289493
0.000236981
0.00025873
0.000724265
0.000302953
0.00191847
0.000288752
0.000216243
0.000280431
0.000235677
0.000661596
0.000280642
0.00120103
0.000278542
0.000280832
0.000290459
0.000281019
0.000248189
0.000435682
0.000235907
0.00150316
0.000273331
0.000276687
0.000281583
0.000280032
0.000277871
0.000240318
0.000396673
0.000271048
0.0011538
0.000270991
0.000271284
0.000279122
0.000279002
0.0002796
0.000252689
0.000405422
0.000249649
0.00186596
0.000670196
0.000269796
0.000268752
0.000268788
0.00027167
0.000276928
0.000278512
0.000276251
0.000246841
0.000306307
0.000242105
0.00117752
0.000724692
0.000267751
0.000268399
0.000266182
0.000268524
0.000271081
0.000274197
0.000268685
0.000275747
0.000275984
0.000263023
0.000296618
0.000236513
0.0017283
0.000515689
0.000267166
0.00026991
0.000264793
0.000265789
0.000264737
0.000266108
0.000264663
0.000271256
0.000277323
0.000272317
0.000261853
0.00024881
0.000246866
0.00114231
0.000524018
0.000268696
0.000270221
0.000264341
0.00026522
0.000263216
0.000271763
0.000263097
0.000262708
0.000263453
0.000273992
0.00026958
0.000266059
0.000245584
0.000248308
0.000937245
0.000360401
0.000270207
0.000268504
0.000263598
0.00026667
0.000262773
0.000273179
0.000275404
0.000260823
0.000261329
0.000261062
0.000268904
0.000261955
0.000269615
0.000266051
0.000225174
0.000239562
0.00026051
0.00167123
0.000548903
0.000337812
0.000271776
0.000270636
0.000264533
0.000266246
0.000261574
0.000277718
0.000259343
0.000258891
0.000259094
0.000260706
0.00026587
0.000267067
0.00022717
0.000243571
0.000261114
0.00100501
0.000419448
0.000267401
0.000273619
0.00027098
0.000273209
0.000264861
0.000267831
0.000261456
0.000277058
0.000280812
0.000259433
0.000257465
0.000257128
0.000256847
0.000257109
0.00026365
0.000213417
0.000230141
0.00025316
0.00026412
0.000259754
0.00163371
0.000554727
0.000276619
0.000269907
0.000274135
0.000276343
0.000264572
0.000266907
0.000260649
0.000263135
0.000279932
0.000283706
0.000258384
0.00025723
0.000255812
0.000255419
0.000254545
0.00025332
0.000254471
0.000236573
0.000235667
0.000255094
0.000260201
0.000259617
0.000979819
0.000424191
0.000272406
0.000276388
0.000274733
0.000279582
0.000266681
0.000268704
0.000262139
0.000263564
0.000283356
0.000287002
0.000259894
0.000255737
0.000253045
0.000253733
0.000252012
0.000251406
0.000223068
0.000229547
0.000250667
0.000258761
0.000259543
0.000252129
0.000571805
0.00161624
0.00028629
0.00027174
0.000279334
0.000277602
0.000282957
0.000266979
0.000268596
0.000261936
0.00026538
0.000286447
0.000290231
0.000259456
0.000256931
0.000252406
0.000254939
0.000251308
0.000249323
0.000212999
0.000237195
0.000251382
0.000253149
0.000251381
0.0002485
0.000458738
0.000929132
0.000246711
0.000272877
0.000279847
0.000282409
0.000278561
0.000286384
0.000269254
0.00027081
0.000263534
0.000265888
0.000289988
0.000260872
0.000256663
0.00025297
0.000255958
0.000250776
0.000252112
0.000249551
0.000248054
0.000215793
0.000238043
0.000249509
0.000251908
0.000251517
0.000247323
0.000248669
0.000563787
0.000302832
0.00152159
0.000275999
0.000282484
0.0002845
0.000282
0.000278307
0.000290242
0.000271273
0.000270008
0.00026299
0.000265345
0.000268398
0.000292905
0.000261007
0.000259266
0.00025488
0.000258477
0.00025168
0.000253516
0.000249824
0.00024718
0.000208048
0.000227346
0.000246698
0.000249928
0.000248044
0.000245025
0.00024489
0.00024594
0.000390756
0.000265388
0.000998129
0.000276606
0.000283714
0.000288089
0.000283386
0.000281255
0.000290955
0.000293648
0.000274329
0.00027304
0.000264435
0.000267092
0.000269048
0.000297547
0.000299762
0.000262848
0.00025642
0.000260378
0.000251159
0.000252997
0.000255664
0.000249264
0.000247781
0.000218649
0.000232813
0.00024567
0.00024794
0.00024364
0.000242823
0.000244339
0.00024554
0.000456923
0.000807753
0.00027905
0.000287881
0.000290251
0.00028649
0.000281484
0.000295936
0.00029729
0.000274961
0.000273805
0.000266426
0.0002677
0.000271849
0.000300395
0.000306693
0.000264671
0.000259189
0.000262983
0.000252385
0.000254711
0.000257568
0.000250291
0.000247994
0.000214641
0.000243472
0.000227054
0.000243493
0.000243835
0.000240664
0.00024238
0.000243911
0.000246981
0.000330795
0.00153349
0.000469991
0.000279625
0.000288869
0.000294597
0.000288687
0.000284826
0.000300462
0.000296898
0.000301398
0.000277513
0.00027622
0.000268887
0.000270827
0.000272482
0.00030663
0.000309887
0.00026813
0.000263909
0.000260438
0.000264332
0.000251807
0.000254222
0.000256966
0.000259847
0.000249474
0.000207316
0.000241147
0.000228413
0.000239416
0.000239467
0.00023991
0.000241776
0.000245786
0.000248073
0.000249029
0.000963645
0.000394644
0.000282346
0.000293323
0.000297292
0.00028827
0.000292741
0.000285017
0.000304539
0.000301842
0.000307571
0.000278227
0.000276892
0.00027135
0.000274916
0.00031735
0.000270364
0.000265835
0.000263438
0.000264932
0.000253362
0.000255907
0.000258906
0.000261419
0.000250758
0.000203845
0.000240181
0.000238194
0.000221916
0.00023514
0.000235876
0.000237849
0.000240794
0.000243693
0.000246699
0.000247732
0.000250139
0.000221434
0.000542501
0.00157631
0.000274484
0.000255306
0.000294186
0.000283936
0.000296948
0.00030183
0.000292294
0.000296896
0.000288964
0.000311581
0.00031445
0.000281796
0.000279876
0.000273583
0.00027565
0.000321807
0.000321141
0.000269037
0.000273201
0.000263621
0.000267782
0.000252882
0.000255438
0.000258189
0.00026151
0.00026237
0.000203006
0.000235727
0.000235039
0.000227733
0.000233594
0.000235549
0.000238608
0.000243211
0.000240562
0.000245914
0.000248912
0.000249558
0.000252086
0.000564199
0.00103128
0.000244096
0.000256878
0.000251295
0.000252879
0.000229156
0.000798944
0.00028764
0.000302874
0.000308477
0.000296614
0.000292262
0.000302293
0.000315738
0.000316684
0.000321029
0.000282474
0.00028072
0.000274186
0.000278443
0.000329495
0.000269819
0.00027525
0.000265875
0.000269255
0.000255176
0.000257064
0.000260241
0.000263939
0.000265118
0.000202491
0.00023406
0.000232894
0.00023346
0.000222977
0.00023337
0.000237555
0.00023894
0.000244728
0.000243032
0.000247742
0.000250749
0.000251592
0.0002547
0.000397396
0.00107144
0.000270149
0.000207934
0.000253205
0.00024918
0.000249284
0.00025104
0.000225949
0.000352132
0.000290803
0.000308515
0.000315929
0.000302222
0.00029719
0.000306474
0.000324747
0.000324321
0.000328903
0.000286525
0.000283698
0.000277835
0.000279792
0.000331966
0.000333369
0.00027275
0.00027813
0.000276453
0.000268412
0.000272117
0.000257309
0.00025957
0.000263141
0.000266491
0.000266577
0.000229841
0.000230856
0.000234116
0.000225214
0.000230828
0.000239729
0.000241764
0.000245015
0.000247125
0.000243482
0.000250189
0.000253314
0.000253754
0.000257009
0.00045387
0.000864155
0.000230599
0.000201572
0.000254411
0.000247504
0.000245507
0.000254201
0.000252067
0.000257075
0.000254937
0.000670689
0.000290307
0.000295937
0.000314318
0.000322073
0.000307096
0.000302148
0.000297793
0.000313642
0.000330463
0.000328417
0.000286819
0.00028602
0.000283859
0.000339786
0.000337234
0.000337633
0.000275521
0.000281012
0.000279943
0.000270405
0.00027432
0.00025967
0.000261457
0.000265328
0.000269444
0.000269441
0.000228159
0.000228037
0.000230086
0.000232039
0.000237949
0.000224283
0.000228847
0.000240238
0.000242487
0.000247548
0.000249139
0.00024613
0.000252469
0.000255584
0.000256457
0.000260304
0.000307887
0.000850911
0.00020136
0.000251073
0.000214881
0.000253025
0.000244794
0.000249014
0.000242
0.000255277
0.000251097
0.000257666
0.000245635
0.000287626
0.000295788
0.000299772
0.000321214
0.000316253
0.000327897
0.000313197
0.0003085
0.000303145
0.000317109
0.00033717
0.000335626
0.000291193
0.000290286
0.000285415
0.000339677
0.000341761
0.000278295
0.000284005
0.000283073
0.000273342
0.000277393
0.000261529
0.000264005
0.000268569
0.00027147
0.000270088
0.000225967
0.000228565
0.000231291
0.00023306
0.0002394
0.000225405
0.000227047
0.000244227
0.000244851
0.000248448
0.000251735
0.00024727
0.00025523
0.000258394
0.000258749
0.00026205
0.000469773
0.00101319
0.000199876
0.000224473
0.00021297
0.000251351
0.000244825
0.000247357
0.00024047
0.000244503
0.000254414
0.0002524
0.000256562
0.000252908
0.000945697
0.000295312
0.000300282
0.000303846
0.000326094
0.000323064
0.000333334
0.000315536
0.000307758
0.000314656
0.00032296
0.000342115
0.000338372
0.000337652
0.000294022
0.000291007
0.000347423
0.000345535
0.000346591
0.00028206
0.000287673
0.000287316
0.000275628
0.000280312
0.000265459
0.000266662
0.00027109
0.000274385
0.000273951
0.000223535
0.000226361
0.000230901
0.000236997
0.000242509
0.000224151
0.000223607
0.000246647
0.000244787
0.000252081
0.000254734
0.000250969
0.000258358
0.000261478
0.000261431
0.000265905
0.000382362
0.000943277
0.000203853
0.000266439
0.000218522
0.000246825
0.000242845
0.000247965
0.000238988
0.00024129
0.000255162
0.000251702
0.00025745
0.000256292
0.000364294
0.000299197
0.000305204
0.000307645
0.000331931
0.000326149
0.00033428
0.000322697
0.000311076
0.00032097
0.000325808
0.000345535
0.000342981
0.000340907
0.000294386
0.000298875
0.000291619
0.000349988
0.00034857
0.000284972
0.000291656
0.000279098
0.000283925
0.000268656
0.000270404
0.000274049
0.000276488
0.000276589
0.000223511
0.000228424
0.000234493
0.000238472
0.000245003
0.000220871
0.000220373
0.00025054
0.000249944
0.000253493
0.000255095
0.000258479
0.000252343
0.000261626
0.000264819
0.000264801
0.000267263
0.000268245
0.000523353
0.00100562
0.000196417
0.000233426
0.000217086
0.000242927
0.000243977
0.000250223
0.000246527
0.000236335
0.000240169
0.000241297
0.000237665
0.000254058
0.000252767
0.000257214
0.000255019
0.000808324
0.000237129
0.000305128
0.000307752
0.000309648
0.000335253
0.000333008
0.00033916
0.000325614
0.000317397
0.000321492
0.000331756
0.000345822
0.000348433
0.00034338
0.000341666
0.000299608
0.000303833
0.000296463
0.000351602
0.000350968
0.000289748
0.000292048
0.000296513
0.000281829
0.000288117
0.000273225
0.000273986
0.000277559
0.000280425
0.00028072
0.000222063
0.000226341
0.000233726
0.000236493
0.000242807
0.000246365
0.000249713
0.000218627
0.000219078
0.00025356
0.000253195
0.000257722
0.000258974
0.000262791
0.000256992
0.000265001
0.000267482
0.000270242
0.00027211
0.000387829
0.000857864
0.000203325
0.000202474
0.000271402
0.000214635
0.000217087
0.000242676
0.000249724
0.000247066
0.000235917
0.000240041
0.000243118
0.000234601
0.000253897
0.000251748
0.000256022
0.000254789
0.000350142
0.000210367
0.000307935
0.000315851
0.000316631
0.000338918
0.000334651
0.000330908
0.000320312
0.000326616
0.000333607
0.000348232
0.00034998
0.000345753
0.000343681
0.000300668
0.000304303
0.000354371
0.000353285
0.000292476
0.000297729
0.000300942
0.000286438
0.000288734
0.000292526
0.000277212
0.000277852
0.000281234
0.000283201
0.000225572
0.000229945
0.0002373
0.000243624
0.000246532
0.000251345
0.00025381
0.000216204
0.000219325
0.000253476
0.000257572
0.000257495
0.000259422
0.000260172
0.000262582
0.000266193
0.000268247
0.000271451
0.000272922
0.000276157
0.000491807
0.000892579
0.000195802
0.000197374
0.000231564
0.000214941
0.000214884
0.000243386
0.000248646
0.00025053
0.000246313
0.000238199
0.000233878
0.000241868
0.000244458
0.00021034
0.000236189
0.000232462
0.000252961
0.000251806
0.000258355
0.0002561
0.000254059
0.000481274
0.000315215
0.000318979
0.000319377
0.000340951
0.000338158
0.000332766
0.000324768
0.00033154
0.000336534
0.000348112
0.000350188
0.000352467
0.000345693
0.000344588
0.000306514
0.000309426
0.000356568
0.000356084
0.0002971
0.00030172
0.000307378
0.000289238
0.000294242
0.000296379
0.000283011
0.000282123
0.000286042
0.000287572
0.000228929
0.00022349
0.000235469
0.000242133
0.000243215
0.000254156
0.000256854
0.000258543
0.000214023
0.000216573
0.000259451
0.00026242
0.000260417
0.00026392
0.000263734
0.000266122
0.000270365
0.00027297
0.000275595
0.000278326
0.000280531
0.000385538
0.000801323
0.000199331
0.000201335
0.000276119
0.00021249
0.000213403
0.000245139
0.000247892
0.000249659
0.000246841
0.000238631
0.00023349
0.000242009
0.000252714
0.000197192
0.000226959
0.000230853
0.000253109
0.000251227
0.000257203
0.000254829
0.000407813
0.000317092
0.000323992
0.000325271
0.000340756
0.000343806
0.000338414
0.000336573
0.000327761
0.000333722
0.00033786
0.000350506
0.000352301
0.000354492
0.000347922
0.000347027
0.000310901
0.000309495
0.000315454
0.000359881
0.000359999
0.000299731
0.000308179
0.000311858
0.000293442
0.000297669
0.000287653
0.000284906
0.000286827
0.000290615
0.000290789
0.000230722
0.000225185
0.000236715
0.000238514
0.000244927
0.000259535
0.00026533
0.000265692
0.000211562
0.000216355
0.000263216
0.000267654
0.000269547
0.000266946
0.000268359
0.000271194
0.000274134
0.000273257
0.000281149
0.000282804
0.000281161
0.000286507
0.000507188
0.000903371
0.000194268
0.000197054
0.000250271
0.000212562
0.00021124
0.000244522
0.000248351
0.000250059
0.000245971
0.000237566
0.000240734
0.00023561
0.000231162
0.000243375
0.00022579
0.000237212
0.00025876
0.000227697
0.000251877
0.000257039
0.000254641
0.000462444
0.00032302
0.000326745
0.000326641
0.000342821
0.000345342
0.000340606
0.000337506
0.00033247
0.000336342
0.000340016
0.000350095
0.000353722
0.000354793
0.00035803
0.000349159
0.000316472
0.000316675
0.00031896
0.000367926
0.000363722
0.000361119
0.000364441
0.000306149
0.000310201
0.000317413
0.000297555
0.000304124
0.000294158
0.00029178
0.000292925
0.00029469
0.000295989
0.000243978
0.0002319
0.00022061
0.000238578
0.000245107
0.000262269
0.000281679
0.000275291
0.000273258
0.000210005
0.000213182
0.000270527
0.000273875
0.000274179
0.000272982
0.000276586
0.000275517
0.000274196
0.000281243
0.000280253
0.000287141
0.000288145
0.000287841
0.000291634
0.000438901
0.000799204
0.000189566
0.000199877
0.000316965
0.000212179
0.000210335
0.000209748
0.00024495
0.000247672
0.000249616
0.000245822
0.000238079
0.00024028
0.000235082
0.00023095
0.000242782
0.000228708
0.000233972
0.000233154
0.000226677
0.000252127
0.000259311
0.000255818
0.000258143
0.00025369
0.000383011
0.000322513
0.000326483
0.000330713
0.000330713
0.000342529
0.000344919
0.000347888
0.000339854
0.000333933
0.000337209
0.000341168
0.000352553
0.000358306
0.00036023
0.000362035
0.000352924
0.00031899
0.00031928
0.000375779
0.000369671
0.000370015
0.000308708
0.000316414
0.000320412
0.000304245
0.000306936
0.000300098
0.000296239
0.00029639
0.000299801
0.000300629
0.000284345
0.000240223
0.000229005
0.000277982
0.000314237
0.000321294
0.000341318
0.000298408
0.000299413
0.00028962
0.000208254
0.000219776
0.000276359
0.000281652
0.00028454
0.000278576
0.000282854
0.000282261
0.000281037
0.000287003
0.000284952
0.000294992
0.000294999
0.000292198
0.000298733
0.000521449
0.000892317
0.000188145
0.000196066
0.00030868
0.000207762
0.00020716
0.000210278
0.000244233
0.000246667
0.00024844
0.000250578
0.000244684
0.000239269
0.000237124
0.000241051
0.000235893
0.000233319
0.000228479
0.000241893
0.000243304
0.000228546
0.000226034
0.000232758
0.00024438
0.000223285
0.000251713
0.000255813
0.000258111
0.000253737
0.000382723
0.00032544
0.000329547
0.0003323
0.000333535
0.000344267
0.000346642
0.000350089
0.000340186
0.000341351
0.000336276
0.000338983
0.000343538
0.000357381
0.000354932
0.000363987
0.000365203
0.000368647
0.000357608
0.000323912
0.000323699
0.000376734
0.00037409
0.000314522
0.000317985
0.000320575
0.000324531
0.000308896
0.000314042
0.000307227
0.000303656
0.000302231
0.000305278
0.000307122
0.00023994
0.000269231
0.000240958
0.000252405
0.000228121
0.000306257
0.000336841
0.000302699
0.000327301
0.00039011
0.000345716
0.000298527
0.000205434
0.0002115
0.000220983
0.000285238
0.000290453
0.000295011
0.000286851
0.000291549
0.000285005
0.000288969
0.000295197
0.000291995
0.000303586
0.000300807
0.000298199
0.000302751
0.000417988
0.000711891
0.000185973
0.00020349
0.00025674
0.000194531
0.000206543
0.000246776
0.000248419
0.000250421
0.000244969
0.000239198
0.000236592
0.000240055
0.000235165
0.000232948
0.000229261
0.000241608
0.000242486
0.000228959
0.000222958
0.000227126
0.000230204
0.000223805
0.000252665
0.000260651
0.000254708
0.000256954
0.00025935
0.000385579
0.000304245
0.000329001
0.000332105
0.000334112
0.000334579
0.000346299
0.000349038
0.000355514
0.000342343
0.000343178
0.000336658
0.000340256
0.000344647
0.000364253
0.000361928
0.000374498
0.000372138
0.000374046
0.000358646
0.000364896
0.000325645
0.000325334
0.000395114
0.000386667
0.000383868
0.000316911
0.00032207
0.000324198
0.000326876
0.000315207
0.000316753
0.000312075
0.000307894
0.000307053
0.000307256
0.000311143
0.000312724
0.000181438
0.000222119
0.000231095
0.000226427
0.000230928
0.00025394
0.000187542
6.05525e-05
3.24428e-05
0.00033401
0.000346714
0.000321242
0.000204726
0.000208007
0.000216923
0.000229636
0.000299516
0.000315225
0.000294276
0.00030106
0.000293952
0.000295964
0.000303349
0.000296278
0.000297079
0.000311567
0.000308988
0.000310164
0.000422842
0.000708104
0.000181366
0.000202852
0.000255523
0.000190454
0.000203506
0.000246149
0.000247781
0.00024953
0.000251438
0.000244256
0.000238226
0.000235483
0.000237155
0.000239788
0.000234046
0.000231699
0.000227567
0.000240792
0.000243001
0.000228866
0.000219619
0.00022688
0.000229124
0.00022222
0.000252544
0.000262277
0.000254836
0.000257157
0.00025974
0.000400426
0.000290481
0.000330234
0.000333201
0.000334997
0.000335942
0.000349347
0.00035249
0.000356475
0.000344396
0.000342246
0.000344605
0.000338245
0.000339662
0.000347529
0.000372949
0.000366506
0.00038328
0.000381157
0.000385754
0.000367947
0.000371599
0.000328726
0.000328853
0.000394649
0.000389547
0.00032124
0.000323237
0.000324706
0.000327032
0.000329289
0.000319537
0.000322264
0.000318516
0.000314181
0.000313495
0.000314077
0.000315558
0.000316648
0.000319203
0.000331909
0.000223271
0.000209124
0.000247096
0.000227322
0.00014405
0.000244897
0.000620362
0.000289181
9.79863e-05
0.00026437
0.000352905
0.00032426
0.00020208
0.000211197
0.000219678
0.000219491
0.00031744
0.000322786
0.000306947
0.000312874
0.000296978
0.000305705
0.000311316
0.0003052
0.000304515
0.000319031
0.000311932
0.000313741
0.000334461
0.000765494
0.000493108
0.000192848
0.000182353
0.000201904
0.00021901
0.000201902
0.000246848
0.000248383
0.000249384
0.000251346
0.000244652
0.000238177
0.000234713
0.000236059
0.000239216
0.000233133
0.000231893
0.000227849
0.000240851
0.00024258
0.000227515
0.000219938
0.000217057
0.000220521
0.0002238
0.000253648
0.000265085
0.000262517
0.000256048
0.000258561
0.00026134
0.000371922
0.00025116
0.000330236
0.000332321
0.000333059
0.000334504
0.00033647
0.000337002
0.000352968
0.000349932
0.000361995
0.000347555
0.000345062
0.000347435
0.000338214
0.000340899
0.000378054
0.000374651
0.000390701
0.000388749
0.000389728
0.000368511
0.000377632
0.000329874
0.000395497
0.000395247
0.000395895
0.000323508
0.000326258
0.00032672
0.000328705
0.000330266
0.000323625
0.000319162
0.000324149
0.000321213
0.000320511
0.000320756
0.000323617
0.000324274
0.000554239
0.000257323
0.000529817
0.000222555
0.000591947
0.000209784
2.8893e-05
0.000786811
0.00223942
0.0011075
0.000130222
0.000359629
0.000386236
0.000338687
0.000202377
0.000219003
0.000207591
0.000220916
0.000201644
0.000336548
0.000347293
0.000318103
0.000315823
0.000334265
0.000312234
0.000311878
0.000320921
0.000319378
0.000325992
0.000323759
0.000321528
0.000321345
0.000323313
0.000722337
0.000438733
0.000193229
0.000176804
0.000200419
0.000217238
0.000199268
0.000248051
0.000246611
0.000250242
0.000252338
0.000245805
0.000244237
0.000237554
0.000234995
0.000233454
0.000236218
0.00023976
0.000230864
0.000229458
0.000226302
0.000241724
0.000243372
0.000228974
0.000219812
0.000217447
0.000215257
0.000223576
0.00022203
0.000253565
0.000266209
0.000263887
0.000256467
0.000259117
0.00026192
0.000309157
0.0002396
0.000331665
0.000332529
0.000333792
0.000335096
0.000337317
0.000358658
0.000356019
0.000363634
0.000351338
0.000348504
0.000346261
0.000351225
0.000339208
0.000343531
0.000388671
0.000377767
0.000390737
0.000387486
0.000391292
0.000392006
0.000377426
0.000387936
0.000331433
0.000386195
0.000389684
0.000326303
0.00032751
0.000328572
0.000330088
0.000331407
0.000326781
0.000325761
0.000330562
0.000325476
0.000326169
0.000327202
0.000327996
0.000328099
0.00104528
0.000471332
0.000740122
0.000342333
0.00054374
0.00103254
0.000432441
0.00035279
0.00212361
0.00300051
0.00165627
0.000359052
0.000413038
0.000847326
0.000383401
0.000199197
0.000213905
0.000209277
0.000197349
0.000216086
0.000386163
0.000376587
0.000347857
0.000349187
0.000360127
0.000324395
0.000322425
0.000329442
0.00033254
0.000336218
0.000337815
0.000325696
0.000249058
0.000521949
0.000782693
0.000292973
0.000183521
0.000197094
0.000192714
0.000198557
0.000248803
0.000247609
0.000250037
0.00025287
0.000245768
0.000244865
0.000238229
0.000234191
0.000232739
0.000236133
0.00024002
0.000230876
0.000228867
0.000225747
0.000242043
0.000242958
0.000217612
0.000212673
0.000222631
0.000222238
0.00025494
0.000265719
0.000264442
0.00025821
0.000256155
0.000260906
0.000263524
0.000580206
0.000247902
0.000226316
0.000332851
0.00033366
0.000334778
0.000336527
0.000339449
0.00036035
0.000356073
0.000372175
0.000356503
0.000354145
0.000353362
0.000340787
0.000346611
0.000389141
0.000391177
0.000389968
0.000382726
0.000377474
0.000390541
0.000390179
0.000388772
0.00038824
0.000331746
0.000386645
0.00038545
0.000382713
0.000327933
0.000328947
0.000329245
0.000330487
0.000331672
0.000328803
0.000331784
0.000337785
0.000334472
0.000331696
0.000331921
0.000333208
0.000330853
0.00145159
0.00135623
0.00048957
0.000885798
0.00113788
0.000887607
0.000895454
0.00395658
0.00520722
0.0039872
0.00118833
0.000429668
0.00103007
0.000412108
0.000200684
0.000188285
0.000215639
0.000206028
0.000204377
0.000427085
0.000399247
0.000373264
0.000363926
0.000368014
0.000410771
0.000362389
0.000331128
0.000344329
0.000365887
0.000342903
0.000344383
0.000348191
0.000335216
0.000459314
0.00072115
0.000243496
0.00018064
0.000195958
0.000186561
0.000196769
0.000248751
0.000247653
0.000250969
0.000254394
0.000252324
0.000246578
0.000244766
0.000239407
0.000238177
0.000234256
0.000233271
0.000231783
0.000237289
0.000235169
0.000241327
0.000229642
0.000227734
0.000226453
0.000224159
0.00024367
0.000220345
0.000214871
0.000210513
0.000217215
0.000268563
0.000266909
0.00025858
0.000257396
0.000261029
0.000263898
0.000513307
0.000228569
0.000224919
0.000333068
0.000334787
0.000336078
0.000338332
0.00034202
0.000367267
0.000363574
0.000374449
0.000358565
0.000362822
0.000357188
0.00035232
0.000344777
0.000378726
0.000383717
0.000373041
0.000374242
0.000369083
0.000378236
0.000375379
0.000389245
0.00038762
0.00038453
0.000332541
0.00040335
0.000393964
0.000378436
0.000330113
0.000329659
0.00032984
0.000331407
0.000330714
0.000332485
0.000330912
0.000337528
0.00034513
0.000340736
0.000337356
0.000336881
0.000337071
0.000333553
0.00033244
0.00117321
0.00160997
0.0005635
0.000857561
0.00113459
0.00116295
0.00145842
0.00207014
0.00497386
0.00307166
0.00514746
0.00514001
0.00396061
0.000296174
0.000435573
0.00327831
0.000197962
0.000173947
0.000214199
0.000212352
0.000320387
0.000485876
0.000208589
0.000287768
0.000390509
0.000386654
0.00036854
0.000393826
0.000349819
0.000359443
0.000388319
0.00037269
0.000356306
0.000360195
0.000366572
0.000308408
0.000525459
0.000767177
0.00019865
0.000180615
0.000184061
0.000193368
0.000195663
0.000195634
0.000250089
0.00024883
0.000251169
0.000255385
0.000253208
0.000246809
0.000245767
0.000239887
0.000239092
0.000233219
0.000232742
0.000231779
0.000237517
0.000235436
0.000241604
0.000229289
0.000227402
0.00022514
0.000223412
0.000243556
0.000220555
0.000214551
0.000207416
0.000211389
0.00027068
0.000267062
0.000259883
0.000257522
0.000262237
0.000265699
0.000263533
0.000523505
0.000211652
0.000216253
0.00033415
0.000336105
0.000337962
0.000341141
0.000346333
0.000374567
0.000372355
0.000384607
0.00036572
0.000369538
0.000366715
0.000357189
0.00034806
0.000375748
0.000368174
0.000379291
0.000355729
0.000365471
0.000362376
0.000371456
0.000387299
0.000389862
0.000380231
0.000380449
0.000333018
0.000426451
0.000390135
0.000331803
0.000330554
0.000330313
0.000330521
0.000332168
0.000331779
0.000333295
0.000344913
0.000355386
0.000352216
0.000342946
0.000342457
0.000340906
0.000336354
0.000334837
0.000939501
0.00113657
0.000893209
0.000919957
0.000853648
0.000650306
0.00180731
0.00203493
0.00332228
0.0030046
0.00590693
0.00470967
0.00608351
0.000432051
0.000381444
0.00298036
0.00460786
0.000205265
0.000170271
0.000289413
0.000213308
0.00048407
0.00077114
0.000147983
2.46096e-05
0.000368447
0.000378209
0.00013729
0.00046418
0.000380627
0.000437498
0.00042297
0.000360476
0.000366044
0.00037249
0.000391222
0.000281521
0.000416912
0.000745239
0.000187202
0.000178693
0.000180005
0.000193074
0.000193574
0.000192787
0.000250018
0.000249246
0.000252358
0.000256869
0.000254609
0.00024826
0.000245603
0.00024087
0.000239446
0.000233417
0.000231265
0.000238641
0.000236616
0.00023469
0.000242703
0.000228506
0.000230263
0.000226692
0.000225345
0.000223945
0.000222145
0.000244559
0.000219273
0.00021293
0.000217556
0.000206134
0.000209651
0.000271848
0.000269455
0.000260062
0.000259073
0.000262375
0.000266139
0.000264739
0.000555133
0.000329432
0.000199331
0.000215354
0.000335359
0.000339126
0.000340645
0.000345307
0.000349989
0.000385449
0.000379807
0.000370976
0.000377455
0.000368359
0.000365927
0.000354131
0.000363841
0.00036496
0.000363108
0.000377607
0.000379569
0.000395665
0.000410354
0.000377586
0.000386285
0.000379957
0.000363494
0.000334311
0.000598788
0.00049324
0.000333378
0.000332151
0.000331253
0.000331625
0.000333065
0.000333104
0.000335235
0.000351582
0.000363947
0.000358379
0.000350313
0.000347035
0.000345411
0.000341169
0.000338807
0.000335301
0.000400209
0.000788789
0.000899415
0.000847544
0.000785936
0.00060556
0.000273657
0.00173775
0.00243323
0.00202564
0.0025853
0.00543692
0.0022139
0.00119168
0.000138817
0.000126806
0.00571102
0.00461207
0.000204806
0.000178064
0.000430532
0.000245626
0.000206194
0.000782647
0.000944312
0.000150803
3.36281e-05
0.000385502
7.1575e-05
0.000160177
0.000445694
0.000435587
0.000443379
0.000371183
0.000380055
0.000390972
0.0004178
0.000224199
0.000400916
0.000793765
0.000519716
0.0001848
0.000177077
0.000183021
0.000191153
0.000192208
0.000195493
0.000251301
0.000250584
0.000252835
0.000257877
0.000255232
0.000248446
0.000246658
0.000241319
0.000240647
0.000233047
0.000231988
0.000239354
0.000236735
0.000234739
0.000243046
0.000228965
0.000229995
0.000227204
0.000225325
0.000222663
0.000221662
0.00024488
0.000219031
0.000214512
0.000216519
0.000203645
0.000208549
0.00027399
0.000271524
0.00026948
0.00026127
0.000259178
0.000263846
0.00026784
0.000265202
0.000464119
0.000324551
0.000193442
0.000210281
0.000337923
0.000341561
0.00033978
0.000344465
0.000349642
0.000356218
0.00038895
0.000388681
0.000380733
0.000382848
0.000379594
0.000369836
0.000370521
0.000358678
0.000366217
0.000378994
0.000359644
0.000439526
0.000481333
0.000437847
0.000474452
0.000505346
0.000360663
0.000387685
0.000368269
0.000336263
0.000634685
0.000737572
0.000333446
0.000332419
0.000331912
0.000332863
0.000334591
0.000335008
0.000336689
0.000359841
0.000376794
0.000371645
0.00035636
0.000354178
0.000348387
0.000345748
0.000339723
0.000337523
0.000289458
0.00108882
0.000839478
0.000456624
0.000362506
0.000241882
0.00190896
0.00132923
0.0014964
0.00213086
0.00383957
0.00239107
0.000953766
0.00015244
0.000267157
0.00507609
0.00628835
0.00020734
0.000202031
0.000176535
0.000627943
0.00034399
0.000829791
0.000773302
0.00159989
0.00189621
0.000661612
0.00105714
4.47286e-05
0.00264655
0.000410552
0.000499417
0.000449887
0.000384255
0.000401018
0.000429376
0.000489813
0.000213892
0.000293597
0.000696618
0.000422974
0.000175211
0.000174552
0.000179369
0.000190253
0.000190499
0.00019125
0.00025248
0.000251264
0.000254422
0.000257844
0.000256804
0.000247809
0.000249984
0.000246035
0.000242408
0.000241411
0.000233778
0.000231817
0.000240841
0.000239023
0.000235643
0.000237908
0.000244176
0.000228349
0.00023078
0.000226498
0.000224368
0.000222872
0.000220331
0.000217507
0.000213211
0.000216051
0.000205704
0.000200299
0.000210723
0.000275974
0.000273946
0.000271484
0.000261496
0.000260265
0.000264435
0.000268678
0.000267361
0.000465658
0.000252357
0.00018947
0.000209882
0.000340481
0.000344803
0.000344334
0.000347419
0.00035574
0.000360396
0.000387518
0.000386192
0.000383495
0.000388364
0.000378823
0.00038393
0.00037882
0.000367199
0.000409557
0.000465273
0.000370563
0.00054021
0.000631859
0.000638399
0.000561752
0.000785051
0.000358221
0.000376713
0.000366823
0.000357036
0.000339529
0.00097143
0.0010677
0.000335546
0.000333722
0.000333718
0.000335013
0.00033593
0.000338493
0.000340571
0.000367704
0.000380949
0.000380259
0.000366408
0.0003582
0.000354393
0.000346293
0.000342829
0.00033762
0.00015511
0.000346265
0.000553183
0.000350033
0.000289974
0.000212839
0.000205175
0.00154638
0.00036367
0.00132518
0.00094835
0.00156469
0.00278279
0.000908757
0.000780029
0.00212451