/*--------------------------------*- C++ -*----------------------------------*\
| =========                 |                                                 |
| \\      /  F ield         | OpenFOAM: The Open Source CFD Toolbox           |
|  \\    /   O peration     | Version:  v2012                                 |
|   \\  /    A nd           | Website:  www.openfoam.com                      |
|    \\/     M anipulation  |                                                 |
\*---------------------------------------------------------------------------*/
FoamFile
{
    version     2.0;
    format      ascii;
    class       volScalarField;
    location    "2";
    object      nut;
}
// * * * * * * * * * * * * * * * * * * * * * * * * * * * * * * * * * * * * * //

dimensions      [0 2 -1 0 0 0 0];


internalField   nonuniform List<scalar> 
13611
(
1.84701e-05
1.85606e-05
1.67348e-05
1.76482e-05
1.34448e-05
1.10502e-05
1.88499e-05
1.79011e-05
1.15377e-05
1.22895e-05
1.08797e-05
1.88041e-05
1.50666e-05
1.71734e-05
1.15408e-05
1.15845e-05
1.13561e-05
1.08549e-05
1.93766e-05
1.4834e-05
1.82568e-05
1.14467e-05
1.14758e-05
1.15918e-05
1.14114e-05
1.0935e-05
1.82635e-05
1.25055e-05
1.75081e-05
1.13896e-05
1.14472e-05
1.15102e-05
1.14968e-05
1.13648e-05
1.09856e-05
1.77638e-05
1.39817e-05
1.85273e-05
1.13777e-05
1.14035e-05
1.15114e-05
1.15201e-05
1.14594e-05
1.10377e-05
1.84871e-05
1.33024e-05
1.71015e-05
1.93689e-05
1.13833e-05
1.13552e-05
1.13891e-05
1.1432e-05
1.15146e-05
1.14734e-05
1.14371e-05
1.0847e-05
1.59229e-05
1.17515e-05
1.86695e-05
1.97363e-05
1.13787e-05
1.13783e-05
1.13808e-05
1.14119e-05
1.14097e-05
1.15058e-05
1.14204e-05
1.1512e-05
1.14744e-05
1.11844e-05
1.61195e-05
1.14829e-05
1.72076e-05
1.89314e-05
1.13941e-05
1.14089e-05
1.13829e-05
1.13871e-05
1.13824e-05
1.14132e-05
1.13892e-05
1.14865e-05
1.15351e-05
1.14968e-05
1.11345e-05
1.33387e-05
1.11429e-05
1.80485e-05
1.93232e-05
1.14322e-05
1.14259e-05
1.13996e-05
1.14054e-05
1.13836e-05
1.1447e-05
1.13942e-05
1.13795e-05
1.14062e-05
1.15498e-05
1.14955e-05
1.13206e-05
1.35327e-05
1.10807e-05
1.90811e-05
1.76694e-05
1.14469e-05
1.14561e-05
1.14133e-05
1.1437e-05
1.14065e-05
1.14922e-05
1.15312e-05
1.13836e-05
1.13861e-05
1.13954e-05
1.15187e-05
1.14229e-05
1.15437e-05
1.13665e-05
1.20231e-05
1.11714e-05
1.12504e-05
1.66877e-05
1.99494e-05
1.811e-05
1.14864e-05
1.15136e-05
1.14343e-05
1.14494e-05
1.14069e-05
1.15952e-05
1.13868e-05
1.13839e-05
1.13861e-05
1.14297e-05
1.15688e-05
1.15565e-05
1.26533e-05
1.10549e-05
1.13527e-05
1.85798e-05
1.98258e-05
1.57648e-05
1.15383e-05
1.15431e-05
1.15514e-05
1.146e-05
1.14997e-05
1.14272e-05
1.16016e-05
1.16543e-05
1.14171e-05
1.13831e-05
1.13782e-05
1.14017e-05
1.1442e-05
1.1554e-05
1.14194e-05
1.10298e-05
1.11982e-05
1.15672e-05
1.13366e-05
1.66117e-05
1.97511e-05
1.68442e-05
1.1538e-05
1.16179e-05
1.1633e-05
1.14749e-05
1.15019e-05
1.14359e-05
1.14593e-05
1.168e-05
1.1733e-05
1.14221e-05
1.14024e-05
1.13817e-05
1.14019e-05
1.13735e-05
1.1411e-05
1.14385e-05
1.37803e-05
1.10376e-05
1.13145e-05
1.15477e-05
1.14951e-05
1.86426e-05
1.99962e-05
1.16104e-05
1.16544e-05
1.16546e-05
1.1693e-05
1.15374e-05
1.15528e-05
1.14773e-05
1.14951e-05
1.17475e-05
1.17969e-05
1.14642e-05
1.1398e-05
1.13913e-05
1.13898e-05
1.13975e-05
1.14121e-05
1.3345e-05
1.09774e-05
1.12473e-05
1.15007e-05
1.15785e-05
1.14324e-05
2.00643e-05
1.65784e-05
1.63471e-05
1.16118e-05
1.17275e-05
1.17218e-05
1.1779e-05
1.15649e-05
1.1569e-05
1.1496e-05
1.15462e-05
1.18229e-05
1.18726e-05
1.14773e-05
1.14352e-05
1.13849e-05
1.14274e-05
1.141e-05
1.14068e-05
1.16233e-05
1.10274e-05
1.13313e-05
1.1481e-05
1.14565e-05
1.13929e-05
2.01686e-05
1.87586e-05
1.48786e-05
1.16582e-05
1.17552e-05
1.17841e-05
1.176e-05
1.18436e-05
1.16226e-05
1.16252e-05
1.15511e-05
1.15766e-05
1.18884e-05
1.15225e-05
1.14487e-05
1.14211e-05
1.14676e-05
1.14201e-05
1.14253e-05
1.14136e-05
1.1399e-05
1.23179e-05
1.10126e-05
1.1286e-05
1.14735e-05
1.14851e-05
1.14291e-05
1.14336e-05
2.04584e-05
1.68657e-05
1.66986e-05
1.1733e-05
1.18183e-05
1.18489e-05
1.1838e-05
1.17712e-05
1.19412e-05
1.1654e-05
1.1659e-05
1.15608e-05
1.15844e-05
1.16357e-05
1.19693e-05
1.15482e-05
1.15194e-05
1.14627e-05
1.15213e-05
1.14598e-05
1.14758e-05
1.14418e-05
1.14081e-05
1.14715e-05
1.10399e-05
1.12918e-05
1.13947e-05
1.14694e-05
1.14325e-05
1.14165e-05
1.14016e-05
1.94008e-05
1.58648e-05
1.77653e-05
1.1768e-05
1.18627e-05
1.19288e-05
1.18889e-05
1.18501e-05
1.19787e-05
1.20064e-05
1.17298e-05
1.17333e-05
1.16112e-05
1.16349e-05
1.16688e-05
1.20687e-05
1.21059e-05
1.15952e-05
1.15171e-05
1.15843e-05
1.14692e-05
1.14856e-05
1.15205e-05
1.14479e-05
1.143e-05
1.2925e-05
1.10218e-05
1.13699e-05
1.14705e-05
1.14294e-05
1.1408e-05
1.14172e-05
1.14229e-05
1.91465e-05
1.90429e-05
1.18306e-05
1.19596e-05
1.19994e-05
1.19605e-05
1.18738e-05
1.21053e-05
1.20942e-05
1.17634e-05
1.17697e-05
1.16529e-05
1.16653e-05
1.17378e-05
1.21536e-05
1.22773e-05
1.16517e-05
1.15785e-05
1.1641e-05
1.15151e-05
1.15426e-05
1.15828e-05
1.1492e-05
1.14571e-05
1.22689e-05
1.13187e-05
1.11754e-05
1.14668e-05
1.14642e-05
1.14214e-05
1.14236e-05
1.14436e-05
1.14571e-05
1.96224e-05
1.62162e-05
2.03349e-05
1.18633e-05
1.19994e-05
1.21045e-05
1.20257e-05
1.19617e-05
1.22015e-05
1.21437e-05
1.22093e-05
1.18278e-05
1.18301e-05
1.17255e-05
1.17442e-05
1.17708e-05
1.23091e-05
1.23712e-05
1.17246e-05
1.16481e-05
1.16242e-05
1.16826e-05
1.15238e-05
1.15526e-05
1.159e-05
1.16308e-05
1.14944e-05
1.23753e-05
1.13942e-05
1.10576e-05
1.14543e-05
1.14202e-05
1.14237e-05
1.14364e-05
1.14953e-05
1.1506e-05
1.58495e-05
1.79169e-05
2.09789e-05
1.19328e-05
1.2114e-05
1.21823e-05
1.2033e-05
1.21184e-05
1.19839e-05
1.23208e-05
1.22682e-05
1.2354e-05
1.18631e-05
1.18642e-05
1.17777e-05
1.1832e-05
1.25363e-05
1.17963e-05
1.17097e-05
1.1692e-05
1.17125e-05
1.15751e-05
1.16064e-05
1.16501e-05
1.16728e-05
1.1542e-05
1.12645e-05
1.1403e-05
1.1461e-05
1.09952e-05
1.12615e-05
1.14181e-05
1.14323e-05
1.14684e-05
1.14995e-05
1.15377e-05
1.15191e-05
1.15502e-05
1.44635e-05
1.99729e-05
1.61036e-05
1.75554e-05
1.11933e-05
1.29936e-05
1.1989e-05
1.21909e-05
1.22861e-05
1.21454e-05
1.22319e-05
1.20932e-05
1.24888e-05
1.25143e-05
1.19515e-05
1.19384e-05
1.18341e-05
1.1867e-05
1.26057e-05
1.26219e-05
1.17826e-05
1.18604e-05
1.17114e-05
1.17845e-05
1.15865e-05
1.16163e-05
1.1653e-05
1.17051e-05
1.17089e-05
1.19773e-05
1.14377e-05
1.14535e-05
1.10807e-05
1.12745e-05
1.14545e-05
1.14676e-05
1.15161e-05
1.14899e-05
1.15414e-05
1.15879e-05
1.15804e-05
1.16115e-05
1.98642e-05
1.72833e-05
1.59487e-05
1.14188e-05
1.11332e-05
1.1162e-05
1.28564e-05
1.2798e-05
1.20793e-05
1.23492e-05
1.24518e-05
1.22445e-05
1.21651e-05
1.23551e-05
1.25567e-05
1.2604e-05
1.26363e-05
1.19875e-05
1.19777e-05
1.18637e-05
1.1936e-05
1.27686e-05
1.18176e-05
1.19169e-05
1.17752e-05
1.18332e-05
1.16536e-05
1.16665e-05
1.17159e-05
1.17799e-05
1.17743e-05
1.12823e-05
1.14392e-05
1.1455e-05
1.14376e-05
1.10698e-05
1.13631e-05
1.15049e-05
1.15063e-05
1.15666e-05
1.15648e-05
1.16068e-05
1.16494e-05
1.16227e-05
1.16656e-05
2.07978e-05
1.73381e-05
1.77557e-05
1.21886e-05
1.17046e-05
1.11377e-05
1.11667e-05
1.1157e-05
1.25931e-05
1.2997e-05
1.21746e-05
1.24751e-05
1.26076e-05
1.23901e-05
1.2298e-05
1.24631e-05
1.27281e-05
1.27425e-05
1.27706e-05
1.20986e-05
1.20589e-05
1.19534e-05
1.19878e-05
1.2788e-05
1.28251e-05
1.18964e-05
1.19755e-05
1.1961e-05
1.1829e-05
1.18994e-05
1.16936e-05
1.17175e-05
1.17791e-05
1.18366e-05
1.18198e-05
1.1443e-05
1.14546e-05
1.14944e-05
1.11222e-05
1.13874e-05
1.15782e-05
1.15817e-05
1.15973e-05
1.16135e-05
1.16041e-05
1.16606e-05
1.17051e-05
1.16914e-05
1.17376e-05
2.06127e-05
1.78938e-05
1.53065e-05
1.15012e-05
1.1427e-05
1.11402e-05
1.11302e-05
1.12031e-05
1.1184e-05
1.12262e-05
1.29619e-05
1.27824e-05
1.21815e-05
1.22987e-05
1.26041e-05
1.27231e-05
1.24957e-05
1.24066e-05
1.23276e-05
1.26149e-05
1.2806e-05
1.27937e-05
1.21237e-05
1.21332e-05
1.20939e-05
1.28232e-05
1.28322e-05
1.28377e-05
1.19535e-05
1.206e-05
1.20499e-05
1.18914e-05
1.19655e-05
1.1755e-05
1.17801e-05
1.18493e-05
1.19133e-05
1.18831e-05
1.14242e-05
1.14497e-05
1.14668e-05
1.14726e-05
1.15915e-05
1.10657e-05
1.13339e-05
1.16213e-05
1.16316e-05
1.16661e-05
1.16859e-05
1.16795e-05
1.17331e-05
1.17752e-05
1.17485e-05
1.18091e-05
2.26616e-05
1.77527e-05
1.2152e-05
1.74431e-05
1.11442e-05
1.17686e-05
1.11229e-05
1.11743e-05
1.10878e-05
1.12184e-05
1.11917e-05
1.12313e-05
1.27471e-05
1.31592e-05
1.23288e-05
1.24011e-05
1.27244e-05
1.26522e-05
1.28057e-05
1.26299e-05
1.25602e-05
1.24606e-05
1.2693e-05
1.28313e-05
1.28424e-05
1.22423e-05
1.22383e-05
1.21499e-05
1.28162e-05
1.27982e-05
1.20404e-05
1.21302e-05
1.21421e-05
1.19591e-05
1.20349e-05
1.18177e-05
1.18377e-05
1.19251e-05
1.19493e-05
1.19451e-05
1.14364e-05
1.14941e-05
1.15095e-05
1.15334e-05
1.167e-05
1.12431e-05
1.13936e-05
1.17371e-05
1.16979e-05
1.17153e-05
1.17432e-05
1.17357e-05
1.17913e-05
1.18338e-05
1.18187e-05
1.18708e-05
2.00616e-05
1.71569e-05
1.1278e-05
1.5393e-05
1.10835e-05
1.16558e-05
1.11411e-05
1.11745e-05
1.10895e-05
1.13091e-05
1.12218e-05
1.12134e-05
1.12296e-05
1.33686e-05
1.27466e-05
1.23355e-05
1.24302e-05
1.24919e-05
1.28026e-05
1.27731e-05
1.2849e-05
1.26816e-05
1.25596e-05
1.26832e-05
1.27865e-05
1.27934e-05
1.28158e-05
1.28431e-05
1.23409e-05
1.22952e-05
1.27077e-05
1.27417e-05
1.27191e-05
1.21345e-05
1.22349e-05
1.22435e-05
1.2031e-05
1.21282e-05
1.19102e-05
1.19181e-05
1.20027e-05
1.20184e-05
1.205e-05
1.14269e-05
1.14775e-05
1.15402e-05
1.16383e-05
1.17563e-05
1.12566e-05
1.14059e-05
1.17747e-05
1.17816e-05
1.18115e-05
1.18305e-05
1.1833e-05
1.18808e-05
1.19212e-05
1.18756e-05
1.19672e-05
2.05644e-05
1.70557e-05
1.21033e-05
1.74822e-05
1.11452e-05
1.2704e-05
1.11384e-05
1.11947e-05
1.10961e-05
1.12178e-05
1.1228e-05
1.12167e-05
1.12268e-05
1.12252e-05
1.30732e-05
1.24408e-05
1.25511e-05
1.25803e-05
1.28623e-05
1.28125e-05
1.28395e-05
1.28001e-05
1.26417e-05
1.27909e-05
1.2827e-05
1.26228e-05
1.26809e-05
1.27343e-05
1.23672e-05
1.24506e-05
1.23288e-05
1.25502e-05
1.25096e-05
1.22244e-05
1.2362e-05
1.21151e-05
1.22185e-05
1.20052e-05
1.20048e-05
1.20723e-05
1.20864e-05
1.21064e-05
1.14893e-05
1.15704e-05
1.16435e-05
1.17178e-05
1.18412e-05
1.1351e-05
1.14193e-05
1.18747e-05
1.19316e-05
1.1875e-05
1.18661e-05
1.19092e-05
1.18926e-05
1.19494e-05
1.19929e-05
1.1971e-05
1.20229e-05
1.20136e-05
1.92188e-05
1.70272e-05
1.14582e-05
1.59695e-05
1.11468e-05
1.30128e-05
1.11718e-05
1.1215e-05
1.1197e-05
1.10709e-05
1.11502e-05
1.20456e-05
1.10713e-05
1.12252e-05
1.12244e-05
1.12311e-05
1.12217e-05
1.27647e-05
1.34344e-05
1.2575e-05
1.26167e-05
1.2635e-05
1.28398e-05
1.28504e-05
1.27386e-05
1.28481e-05
1.27622e-05
1.28112e-05
1.28643e-05
1.25543e-05
1.24511e-05
1.26213e-05
1.26722e-05
1.24993e-05
1.25706e-05
1.2453e-05
1.23164e-05
1.2289e-05
1.23428e-05
1.23854e-05
1.24717e-05
1.22036e-05
1.23345e-05
1.21119e-05
1.21101e-05
1.21701e-05
1.21836e-05
1.2221e-05
1.14967e-05
1.15633e-05
1.17026e-05
1.17414e-05
1.18418e-05
1.1912e-05
1.19546e-05
1.13606e-05
1.14408e-05
1.19705e-05
1.20037e-05
1.19889e-05
1.19767e-05
1.20363e-05
1.20198e-05
1.20502e-05
1.20792e-05
1.21025e-05
1.21317e-05
2.04347e-05
1.7399e-05
1.2703e-05
1.10945e-05
1.80509e-05
1.10964e-05
1.12713e-05
1.11734e-05
1.12165e-05
1.12094e-05
1.11087e-05
1.1166e-05
1.21598e-05
1.10074e-05
1.12201e-05
1.12198e-05
1.12292e-05
1.1223e-05
1.34289e-05
1.43e-05
1.26509e-05
1.27749e-05
1.27691e-05
1.27587e-05
1.28385e-05
1.2876e-05
1.28171e-05
1.28596e-05
1.28471e-05
1.21874e-05
1.21651e-05
1.23273e-05
1.2464e-05
1.25414e-05
1.25975e-05
1.20243e-05
1.18673e-05
1.24203e-05
1.25321e-05
1.25834e-05
1.23223e-05
1.23648e-05
1.24351e-05
1.22321e-05
1.21997e-05
1.22525e-05
1.22735e-05
1.1632e-05
1.16884e-05
1.1853e-05
1.19506e-05
1.19936e-05
1.20629e-05
1.20996e-05
1.14071e-05
1.14929e-05
1.19913e-05
1.20644e-05
1.21432e-05
1.20646e-05
1.20334e-05
1.2055e-05
1.21106e-05
1.21224e-05
1.21762e-05
1.21944e-05
1.22293e-05
1.96226e-05
1.76227e-05
1.1846e-05
1.11156e-05
1.61973e-05
1.11739e-05
1.12761e-05
1.11929e-05
1.12154e-05
1.12183e-05
1.12086e-05
1.11611e-05
1.10988e-05
1.11904e-05
1.17299e-05
1.35468e-05
1.11017e-05
1.10374e-05
1.12181e-05
1.12153e-05
1.12513e-05
1.12385e-05
1.12248e-05
1.3348e-05
1.27896e-05
1.28371e-05
1.28189e-05
1.25834e-05
1.27202e-05
1.28266e-05
1.28626e-05
1.28673e-05
1.27753e-05
1.20879e-05
1.19828e-05
1.18546e-05
1.22521e-05
1.22507e-05
1.26768e-05
1.2713e-05
1.16331e-05
1.15468e-05
1.25297e-05
1.26178e-05
1.27185e-05
1.24061e-05
1.25089e-05
1.25356e-05
1.23751e-05
1.23185e-05
1.23858e-05
1.23823e-05
1.17104e-05
1.16149e-05
1.18344e-05
1.19895e-05
1.19727e-05
1.22152e-05
1.22497e-05
1.2228e-05
1.14007e-05
1.14651e-05
1.21811e-05
1.22168e-05
1.22494e-05
1.21914e-05
1.21348e-05
1.21746e-05
1.22283e-05
1.2255e-05
1.23078e-05
1.23369e-05
1.23579e-05
2.08449e-05
1.7816e-05
1.26501e-05
1.10346e-05
1.81732e-05
1.11459e-05
1.13398e-05
1.12079e-05
1.12109e-05
1.1213e-05
1.12094e-05
1.118e-05
1.11294e-05
1.1198e-05
1.17048e-05
1.39121e-05
1.09002e-05
1.10537e-05
1.12213e-05
1.12152e-05
1.12486e-05
1.12342e-05
1.3615e-05
1.28271e-05
1.28959e-05
1.28743e-05
1.25837e-05
1.23212e-05
1.26755e-05
1.26929e-05
1.28732e-05
1.27837e-05
1.26278e-05
1.16073e-05
1.16054e-05
1.14355e-05
1.18161e-05
1.18741e-05
1.27533e-05
1.27443e-05
1.28202e-05
1.12633e-05
1.10086e-05
1.2606e-05
1.27577e-05
1.28177e-05
1.25062e-05
1.25818e-05
1.25106e-05
1.24042e-05
1.24235e-05
1.24909e-05
1.24766e-05
1.18049e-05
1.17285e-05
1.19515e-05
1.18836e-05
1.20248e-05
1.24254e-05
1.24811e-05
1.24515e-05
1.14218e-05
1.15117e-05
1.22718e-05
1.23466e-05
1.25091e-05
1.22459e-05
1.23367e-05
1.23069e-05
1.23059e-05
1.23216e-05
1.2449e-05
1.24695e-05
1.23926e-05
1.25013e-05
1.96016e-05
1.77062e-05
1.18264e-05
1.10398e-05
1.77771e-05
1.12064e-05
1.13501e-05
1.12062e-05
1.12095e-05
1.12114e-05
1.12064e-05
1.11813e-05
1.11969e-05
1.11688e-05
1.11067e-05
1.1205e-05
1.2452e-05
1.11771e-05
1.43144e-05
1.09994e-05
1.12195e-05
1.12609e-05
1.12419e-05
1.36878e-05
1.28875e-05
1.28778e-05
1.28787e-05
1.22671e-05
1.19686e-05
1.24394e-05
1.25281e-05
1.28415e-05
1.26218e-05
1.24334e-05
1.15227e-05
1.12169e-05
1.12108e-05
1.10148e-05
1.14454e-05
1.28497e-05
1.2867e-05
1.28739e-05
1.05286e-05
1.08187e-05
1.08533e-05
1.06649e-05
1.27466e-05
1.28115e-05
1.29022e-05
1.2617e-05
1.27332e-05
1.267e-05
1.25749e-05
1.25861e-05
1.26017e-05
1.25996e-05
1.22956e-05
1.19615e-05
1.1635e-05
1.19808e-05
1.2089e-05
1.2544e-05
1.30727e-05
1.27748e-05
1.26464e-05
1.13934e-05
1.14823e-05
1.24883e-05
1.25334e-05
1.26127e-05
1.24059e-05
1.25517e-05
1.24487e-05
1.23669e-05
1.25046e-05
1.24999e-05
1.26177e-05
1.26021e-05
1.25736e-05
1.26418e-05
2.01565e-05
1.79181e-05
1.17831e-05
1.09934e-05
1.92312e-05
1.44465e-05
1.13126e-05
1.11527e-05
1.12048e-05
1.12075e-05
1.12152e-05
1.12034e-05
1.11912e-05
1.11972e-05
1.11778e-05
1.11304e-05
1.12003e-05
1.27647e-05
1.10714e-05
1.40922e-05
1.10445e-05
1.12275e-05
1.12836e-05
1.12563e-05
1.12778e-05
1.12401e-05
1.40317e-05
1.29019e-05
1.28931e-05
1.28281e-05
1.28177e-05
1.22554e-05
1.1984e-05
1.15322e-05
1.22077e-05
1.27174e-05
1.24226e-05
1.22166e-05
1.10478e-05
1.07004e-05
1.06696e-05
1.06345e-05
1.09457e-05
1.28819e-05
1.29005e-05
1.02235e-05
1.03291e-05
1.02638e-05
1.28148e-05
1.291e-05
1.29214e-05
1.27655e-05
1.28033e-05
1.28248e-05
1.27001e-05
1.26614e-05
1.27162e-05
1.27174e-05
1.35186e-05
1.22763e-05
1.19702e-05
1.31589e-05
1.43983e-05
1.41438e-05
1.46614e-05
1.35789e-05
1.3396e-05
1.3075e-05
1.13996e-05
1.17468e-05
1.26243e-05
1.27231e-05
1.28803e-05
1.25747e-05
1.27237e-05
1.26265e-05
1.25596e-05
1.2638e-05
1.26382e-05
1.28018e-05
1.27786e-05
1.26736e-05
1.28099e-05
1.97484e-05
1.77107e-05
1.10715e-05
1.09083e-05
1.96276e-05
1.45204e-05
1.13252e-05
1.12253e-05
1.12004e-05
1.12064e-05
1.12115e-05
1.12268e-05
1.12006e-05
1.11958e-05
1.119e-05
1.11967e-05
1.11877e-05
1.11704e-05
1.1116e-05
1.11972e-05
1.11975e-05
1.21475e-05
1.10086e-05
1.12729e-05
1.45783e-05
1.10211e-05
1.12326e-05
1.12717e-05
1.12968e-05
1.12529e-05
1.41305e-05
1.28954e-05
1.28167e-05
1.27195e-05
1.27457e-05
1.18956e-05
1.16386e-05
1.12636e-05
1.20538e-05
1.20849e-05
1.24943e-05
1.21506e-05
1.19194e-05
1.06737e-05
1.08597e-05
1.035e-05
1.03891e-05
1.02573e-05
1.06688e-05
1.29082e-05
1.29195e-05
1.01449e-05
1.01837e-05
1.29157e-05
1.29489e-05
1.29432e-05
1.29159e-05
1.28708e-05
1.29373e-05
1.29806e-05
1.2876e-05
1.28015e-05
1.28487e-05
1.28538e-05
1.2055e-05
1.28787e-05
1.23587e-05
1.26023e-05
1.19959e-05
1.38277e-05
1.46525e-05
1.30491e-05
1.36429e-05
1.62842e-05
1.4331e-05
1.32143e-05
1.13265e-05
1.15832e-05
1.18508e-05
1.28552e-05
1.29485e-05
1.30997e-05
1.27745e-05
1.29075e-05
1.2669e-05
1.27906e-05
1.28442e-05
1.28063e-05
1.29956e-05
1.29039e-05
1.28258e-05
1.29189e-05
2.01016e-05
1.82913e-05
1.1178e-05
1.10691e-05
1.75848e-05
1.28907e-05
1.12973e-05
1.12139e-05
1.12197e-05
1.12363e-05
1.12092e-05
1.11915e-05
1.11855e-05
1.11916e-05
1.11858e-05
1.1176e-05
1.1148e-05
1.11936e-05
1.11965e-05
1.26051e-05
1.09824e-05
1.10253e-05
1.40668e-05
1.108e-05
1.12473e-05
1.13291e-05
1.12675e-05
1.12922e-05
1.13227e-05
1.48596e-05
1.43342e-05
1.28485e-05
1.27209e-05
1.25821e-05
1.25801e-05
1.16026e-05
1.13061e-05
1.07772e-05
1.16821e-05
1.17965e-05
1.23523e-05
1.18505e-05
1.16684e-05
1.04242e-05
1.04747e-05
1.0289e-05
1.01837e-05
1.0247e-05
1.06177e-05
1.03796e-05
1.28968e-05
1.28907e-05
1.04111e-05
1.0302e-05
1.02539e-05
1.29669e-05
1.29711e-05
1.29248e-05
1.28634e-05
1.29842e-05
1.2987e-05
1.30835e-05
1.29733e-05
1.29263e-05
1.29132e-05
1.29612e-05
1.29684e-05
9.63368e-06
1.08973e-05
1.21039e-05
1.17354e-05
1.21285e-05
1.11141e-05
8.40971e-06
2.82106e-06
1.41777e-06
1.37524e-05
1.36095e-05
1.35089e-05
1.13721e-05
1.15151e-05
1.17651e-05
1.2176e-05
1.30922e-05
1.34648e-05
1.29185e-05
1.30503e-05
1.28681e-05
1.29265e-05
1.30094e-05
1.28776e-05
1.29142e-05
1.3147e-05
1.30799e-05
1.30752e-05
2.05663e-05
1.8363e-05
1.06515e-05
1.10808e-05
1.78274e-05
1.28377e-05
1.12992e-05
1.1218e-05
1.12214e-05
1.12326e-05
1.12527e-05
1.12118e-05
1.11868e-05
1.11837e-05
1.11839e-05
1.11876e-05
1.1184e-05
1.11769e-05
1.11473e-05
1.1192e-05
1.12039e-05
1.20545e-05
1.09846e-05
1.12819e-05
1.44195e-05
1.10782e-05
1.1259e-05
1.13589e-05
1.12877e-05
1.13131e-05
1.13461e-05
1.6252e-05
1.48018e-05
1.27518e-05
1.25004e-05
1.2311e-05
1.23938e-05
1.11759e-05
1.09525e-05
1.06609e-05
1.14445e-05
1.15644e-05
1.15094e-05
1.20404e-05
1.18393e-05
1.12489e-05
1.02494e-05
1.0366e-05
1.03301e-05
1.03018e-05
1.03933e-05
1.03568e-05
1.02789e-05
1.28416e-05
1.28015e-05
1.04404e-05
1.04472e-05
1.30172e-05
1.29922e-05
1.2943e-05
1.28721e-05
1.27813e-05
1.305e-05
1.30412e-05
1.31853e-05
1.31362e-05
1.30712e-05
1.30612e-05
1.30599e-05
1.30531e-05
1.30702e-05
1.38363e-05
1.0458e-05
1.13339e-05
1.19046e-05
1.20477e-05
7.03116e-06
9.91512e-06
2.09351e-05
1.12655e-05
3.95582e-06
9.66785e-06
1.38836e-05
1.33212e-05
1.13127e-05
1.16913e-05
1.19407e-05
1.18804e-05
1.31915e-05
1.33176e-05
1.30885e-05
1.31534e-05
1.29217e-05
1.30585e-05
1.31468e-05
1.30448e-05
1.30382e-05
1.32646e-05
1.31412e-05
1.31549e-05
1.99585e-05
1.8211e-05
1.93394e-05
1.0865e-05
1.14456e-05
1.11828e-05
1.52641e-05
1.12881e-05
1.12325e-05
1.12346e-05
1.12425e-05
1.12666e-05
1.12254e-05
1.11848e-05
1.11791e-05
1.11798e-05
1.11893e-05
1.11799e-05
1.11783e-05
1.11624e-05
1.11994e-05
1.12091e-05
1.29865e-05
1.10489e-05
1.09856e-05
1.09745e-05
1.11266e-05
1.12803e-05
1.14217e-05
1.13819e-05
1.13104e-05
1.13401e-05
1.13747e-05
1.57123e-05
1.39973e-05
1.27597e-05
1.25471e-05
1.24331e-05
1.22744e-05
1.20548e-05
1.20891e-05
1.08599e-05
1.10559e-05
1.04037e-05
1.09937e-05
1.11306e-05
1.11511e-05
1.18887e-05
1.14863e-05
1.03583e-05
1.02588e-05
1.07361e-05
1.04622e-05
1.05012e-05
1.03e-05
1.0312e-05
1.27638e-05
1.04444e-05
1.01862e-05
1.05872e-05
1.3028e-05
1.29144e-05
1.28469e-05
1.27028e-05
1.26036e-05
1.30812e-05
1.31747e-05
1.32803e-05
1.32537e-05
1.31584e-05
1.31336e-05
1.31325e-05
1.31103e-05
1.74599e-05
1.11753e-05
1.70901e-05
1.15698e-05
1.65628e-05
1.13997e-05
1.3742e-06
2.22827e-05
4.25911e-05
3.0199e-05
4.90402e-06
1.19032e-05
1.39836e-05
1.31482e-05
1.13955e-05
1.19697e-05
1.16123e-05
1.19951e-05
1.12253e-05
1.32524e-05
1.33761e-05
1.31651e-05
1.31227e-05
1.32365e-05
1.31128e-05
1.31526e-05
1.32873e-05
1.32029e-05
1.33571e-05
1.33233e-05
1.32966e-05
1.32781e-05
2.05342e-05
1.84751e-05
1.96233e-05
1.08531e-05
1.11247e-05
1.12076e-05
1.54785e-05
1.13069e-05
1.12418e-05
1.12419e-05
1.12584e-05
1.12862e-05
1.12381e-05
1.12301e-05
1.11886e-05
1.11763e-05
1.11765e-05
1.11819e-05
1.11967e-05
1.11735e-05
1.11717e-05
1.11626e-05
1.12073e-05
1.12241e-05
1.27921e-05
1.10794e-05
1.10477e-05
1.09319e-05
1.16202e-05
1.11188e-05
1.1295e-05
1.14531e-05
1.1412e-05
1.13321e-05
1.13648e-05
1.1403e-05
1.73073e-05
1.4181e-05
1.25726e-05
1.24574e-05
1.21131e-05
1.19676e-05
1.17171e-05
1.05007e-05
1.05978e-05
1.0357e-05
1.07008e-05
1.0864e-05
1.09917e-05
1.07794e-05
1.16351e-05
1.11225e-05
1.08713e-05
1.03394e-05
1.08154e-05
1.07042e-05
1.0761e-05
1.07822e-05
1.0553e-05
1.08278e-05
1.26041e-05
8.40402e-06
9.85897e-06
1.29545e-05
1.28486e-05
1.27198e-05
1.25551e-05
1.24063e-05
1.30643e-05
1.32614e-05
1.3352e-05
1.33227e-05
1.32335e-05
1.31834e-05
1.31508e-05
1.31032e-05
1.95704e-05
1.52167e-05
1.91586e-05
1.36889e-05
1.57908e-05
1.90401e-05
1.34529e-05
1.13331e-05
3.72655e-05
4.72226e-05
3.673e-05
1.20206e-05
1.38049e-05
2.2389e-05
1.39706e-05
1.13279e-05
1.18699e-05
1.17263e-05
1.12247e-05
1.16019e-05
1.41112e-05
1.37634e-05
1.33524e-05
1.32557e-05
1.35007e-05
1.32396e-05
1.32734e-05
1.33704e-05
1.3337e-05
1.34737e-05
1.34867e-05
1.33449e-05
1.85566e-05
1.91949e-05
1.79449e-05
1.92769e-05
1.08449e-05
1.10613e-05
1.30232e-05
1.12724e-05
1.12593e-05
1.12626e-05
1.12711e-05
1.13084e-05
1.12508e-05
1.12437e-05
1.12017e-05
1.11755e-05
1.11721e-05
1.11929e-05
1.12084e-05
1.11679e-05
1.11645e-05
1.11615e-05
1.12217e-05
1.12315e-05
1.10846e-05
1.0945e-05
1.14092e-05
1.11367e-05
1.13281e-05
1.14602e-05
1.1437e-05
1.13611e-05
1.13421e-05
1.13974e-05
1.14348e-05
1.46022e-05
1.62784e-05
1.26222e-05
1.22322e-05
1.20309e-05
1.18985e-05
1.16894e-05
1.13861e-05
1.04167e-05
1.05193e-05
1.04636e-05
1.05068e-05
1.05618e-05
1.06026e-05
1.13408e-05
1.08556e-05
1.08036e-05
1.09884e-05
1.09359e-05
1.04109e-05
1.01481e-05
1.05989e-05
1.02725e-05
1.09784e-05
1.08695e-05
1.23939e-05
6.37452e-06
6.96642e-06
8.36062e-06
1.29308e-05
1.27826e-05
1.26544e-05
1.2335e-05
1.21241e-05
1.29895e-05
1.33299e-05
1.34249e-05
1.34204e-05
1.32577e-05
1.32072e-05
1.31104e-05
1.30747e-05
2.05573e-05
2.10961e-05
1.52491e-05
1.71176e-05
1.81284e-05
1.83319e-05
1.8002e-05
4.22422e-05
5.42311e-05
5.44149e-05
2.88967e-05
1.35932e-05
2.47086e-05
1.42353e-05
1.1451e-05
1.0997e-05
1.19626e-05
1.16633e-05
1.14287e-05
1.52374e-05
1.38957e-05
1.31474e-05
1.34299e-05
1.33308e-05
1.44226e-05
1.35046e-05
1.33549e-05
1.34865e-05
1.35425e-05
1.35305e-05
1.35341e-05
1.35072e-05
1.34554e-05
1.94531e-05
1.80054e-05
1.86974e-05
1.07404e-05
1.11137e-05
1.26879e-05
1.1283e-05
1.1273e-05
1.12778e-05
1.12947e-05
1.13345e-05
1.13107e-05
1.12685e-05
1.12548e-05
1.12104e-05
1.12125e-05
1.11826e-05
1.11716e-05
1.11693e-05
1.12099e-05
1.11908e-05
1.1223e-05
1.11623e-05
1.11599e-05
1.11567e-05
1.11597e-05
1.12461e-05
1.11327e-05
1.10581e-05
1.09255e-05
1.10876e-05
1.15123e-05
1.14899e-05
1.13816e-05
1.13709e-05
1.14169e-05
1.14571e-05
1.46152e-05
1.76196e-05
1.24597e-05
1.20267e-05
1.16604e-05
1.15511e-05
1.13401e-05
1.10528e-05
1.04044e-05
1.04509e-05
1.05108e-05
1.04647e-05
1.04132e-05
1.04997e-05
1.05647e-05
1.09047e-05
9.94391e-06
1.05435e-05
8.83413e-06
8.46793e-06
7.53832e-06
8.80388e-06
8.01801e-06
9.91315e-06
1.06741e-05
9.84756e-06
1.20991e-05
3.75746e-06
4.10017e-06
5.48842e-06
1.27975e-05
1.26636e-05
1.24004e-05
1.21011e-05
1.21464e-05
1.18411e-05
1.29288e-05
1.33378e-05
1.34333e-05
1.34898e-05
1.32737e-05
1.31635e-05
1.30719e-05
1.30445e-05
1.29672e-05
1.80644e-05
2.10679e-05
1.62189e-05
1.71378e-05
1.77485e-05
1.76983e-05
2.07546e-05
2.68261e-05
4.40484e-05
3.3278e-05
5.43449e-05
4.69091e-05
5.32597e-05
8.90943e-06
1.42029e-05
4.74037e-05
1.14124e-05
1.05104e-05
1.19802e-05
1.19254e-05
1.41128e-05
1.61098e-05
7.22018e-06
9.80438e-06
1.33263e-05
1.28477e-05
1.25382e-05
1.37959e-05
1.34134e-05
1.34777e-05
1.37502e-05
1.36321e-05
1.36157e-05
1.36402e-05
1.3567e-05
1.94902e-05
1.89669e-05
1.73323e-05
1.46321e-05
1.1449e-05
1.07445e-05
1.10439e-05
1.12427e-05
1.13255e-05
1.1303e-05
1.13041e-05
1.13134e-05
1.13646e-05
1.13403e-05
1.1288e-05
1.12782e-05
1.12275e-05
1.12277e-05
1.11809e-05
1.11746e-05
1.11701e-05
1.12282e-05
1.12081e-05
1.12387e-05
1.11619e-05
1.1156e-05
1.11494e-05
1.11527e-05
1.12576e-05
1.11433e-05
1.10857e-05
1.08943e-05
1.09604e-05
1.15541e-05
1.15086e-05
1.14065e-05
1.13852e-05
1.1448e-05
1.14918e-05
1.14638e-05
1.46004e-05
1.50636e-05
1.15084e-05
1.16876e-05
1.14503e-05
1.12885e-05
1.10459e-05
1.07167e-05
1.05554e-05
1.0483e-05
1.08025e-05
1.04667e-05
1.05252e-05
1.0543e-05
1.05071e-05
1.06993e-05
9.42422e-06
8.28246e-06
9.80558e-06
6.16199e-06
5.28816e-06
4.99527e-06
5.79206e-06
9.11937e-06
1.08129e-05
9.50217e-06
1.01174e-05
1.18084e-05
3.34896e-06
3.88858e-06
1.28188e-05
1.26751e-05
1.24144e-05
1.21931e-05
1.17536e-05
1.17966e-05
1.1563e-05
1.33595e-05
1.34571e-05
1.35563e-05
1.32009e-05
1.31027e-05
1.29124e-05
1.29027e-05
1.28191e-05
1.60279e-05
1.72585e-05
1.78633e-05
1.70906e-05
1.58081e-05
1.48023e-05
2.11305e-05
2.34534e-05
3.31314e-05
2.90114e-05
5.1278e-05
4.26569e-05
6.05638e-05
1.18096e-05
1.21826e-05
4.21044e-05
5.23364e-05
1.17318e-05
1.04462e-05
1.36767e-05
1.20036e-05
1.61759e-05
1.74176e-05
5.02329e-06
8.4996e-07
1.21877e-05
1.22799e-05
4.75098e-06
1.48902e-05
1.34899e-05
1.42954e-05
1.41957e-05
1.35962e-05
1.36263e-05
1.35981e-05
1.36803e-05
2.01881e-05
1.94997e-05
1.7641e-05
1.33485e-05
1.15616e-05
1.06662e-05
1.11433e-05
1.12532e-05
1.12698e-05
1.13163e-05
1.13255e-05
1.13378e-05
1.13873e-05
1.13654e-05
1.13182e-05
1.12887e-05
1.12402e-05
1.12445e-05
1.11918e-05
1.1175e-05
1.12468e-05
1.12261e-05
1.12071e-05
1.12551e-05
1.11621e-05
1.11698e-05
1.11574e-05
1.11508e-05
1.11445e-05
1.11492e-05
1.12792e-05
1.11398e-05
1.10946e-05
1.11341e-05
1.08592e-05
1.10236e-05
1.15939e-05
1.15665e-05
1.14256e-05
1.14163e-05
1.14668e-05
1.15156e-05
1.1495e-05
1.56907e-05
1.53134e-05
1.5787e-05
1.1435e-05
1.14022e-05
1.10698e-05
1.10011e-05
1.07534e-05
1.05907e-05
1.08134e-05
1.08324e-05
1.06052e-05
1.0734e-05
1.05784e-05
1.05377e-05
1.04913e-05
6.72128e-06
5.73449e-06
7.33768e-06
4.45725e-06
3.71772e-06
3.93386e-06
3.50454e-06
1.00216e-05
9.22645e-06
1.05548e-05
7.65658e-06
1.14621e-05
2.56666e-06
2.82412e-06
1.26137e-05
1.23814e-05
1.2237e-05
1.19117e-05
1.15201e-05
1.15135e-05
1.12001e-05
1.32803e-05
1.33862e-05
1.35227e-05
1.31666e-05
1.29217e-05
1.28009e-05
1.27409e-05
1.27158e-05
1.26417e-05
1.12974e-05
1.40293e-05
1.69278e-05
1.56125e-05
1.50782e-05
1.41564e-05
9.8931e-06
2.07457e-05
2.46356e-05
2.60078e-05
2.71639e-05
4.98257e-05
2.71769e-05
2.45829e-05
4.22601e-06
3.89066e-06
5.01611e-05
4.26138e-05
1.17629e-05
1.07335e-05
1.58263e-05
1.27975e-05
1.18192e-05
1.79199e-05
1.74541e-05
4.61197e-06
1.08724e-06
1.27415e-05
2.44209e-06
5.38058e-06
1.40945e-05
1.43931e-05
1.42947e-05
1.35657e-05
1.35996e-05
1.35493e-05
1.37354e-05
1.74237e-05
1.9659e-05
1.70893e-05
1.90085e-05
1.36101e-05
1.10489e-05
1.07526e-05
1.10937e-05
1.12318e-05
1.14465e-05
1.13502e-05
1.1352e-05
1.13586e-05
1.14151e-05
1.13903e-05
1.13367e-05
1.13187e-05
1.12597e-05
1.12625e-05
1.11978e-05
1.119e-05
1.12717e-05
1.12452e-05
1.12218e-05
1.12747e-05
1.11735e-05
1.11809e-05
1.11696e-05
1.11624e-05
1.11375e-05
1.11366e-05
1.12971e-05
1.11277e-05
1.1125e-05
1.11355e-05
1.0863e-05
1.10548e-05
1.16394e-05
1.16014e-05
1.15811e-05
1.14553e-05
1.14335e-05
1.1501e-05
1.15558e-05
1.15187e-05
1.63461e-05
1.61212e-05
1.33554e-05
1.09939e-05
1.10627e-05
1.0888e-05
1.09786e-05
1.07461e-05
1.05642e-05
1.04825e-05
1.08222e-05
1.13264e-05
1.0927e-05
1.09874e-05
1.09991e-05
1.06396e-05
1.07314e-05
1.05111e-05
5.8134e-06
4.1692e-06
6.46299e-06
3.13946e-06
3.01874e-06
3.31853e-06
3.07331e-06
2.73344e-06
7.93109e-06
9.65753e-06
7.95386e-06
1.11445e-05
2.51852e-06
2.42748e-06
1.2386e-05
1.21844e-05
1.19702e-05
1.15915e-05
1.1208e-05
1.11802e-05
1.10092e-05
1.32738e-05
1.32914e-05
1.34992e-05
1.29792e-05
1.28323e-05
1.25491e-05
1.24567e-05
1.24184e-05
1.2376e-05
9.29127e-06
1.74532e-05
1.52576e-05
1.31852e-05
1.2953e-05
1.1814e-05
2.3128e-05
2.29609e-05
2.31725e-05
2.8411e-05
3.63343e-05
2.92604e-05
1.99888e-05
4.39676e-06
7.31805e-06
4.29909e-05
5.2627e-05
1.18852e-05
1.17092e-05
1.07313e-05
1.75425e-05
1.49244e-05
1.76867e-05
1.60721e-05
3.66143e-05
4.36963e-05
1.9208e-05
3.13124e-05
1.36446e-06
6.30638e-05
1.26747e-05
1.54731e-05
1.39954e-05
1.3562e-05
1.36738e-05
1.39198e-05
1.50442e-05
1.79722e-05
1.93016e-05
1.80435e-05
1.94249e-05
1.21735e-05
1.11e-05
1.0709e-05
1.11915e-05
1.12661e-05
1.13367e-05
1.1366e-05
1.13763e-05
1.13876e-05
1.1428e-05
1.14188e-05
1.13366e-05
1.13726e-05
1.13202e-05
1.12767e-05
1.12889e-05
1.12149e-05
1.12003e-05
1.12943e-05
1.12803e-05
1.1239e-05
1.12696e-05
1.12957e-05
1.11792e-05
1.11957e-05
1.11766e-05
1.11635e-05
1.11486e-05
1.1131e-05
1.11215e-05
1.11228e-05
1.1118e-05
1.09953e-05
1.07989e-05
1.1103e-05
1.16873e-05
1.16655e-05
1.16342e-05
1.14751e-05
1.14605e-05
1.15278e-05
1.15864e-05
1.1569e-05
1.6784e-05
1.56429e-05
1.39785e-05
1.09e-05
1.08443e-05
1.06935e-05
1.06946e-05
1.06342e-05
1.05193e-05
1.0532e-05
1.08898e-05
1.09552e-05
1.10247e-05
1.12545e-05
1.09842e-05
1.1092e-05
1.11253e-05
1.06342e-05
3.76552e-06
3.27474e-06
4.40033e-06
2.95722e-06
2.7361e-06
2.77472e-06
2.93096e-06
2.72641e-06
5.53472e-06
9.68395e-06
8.14703e-06
5.58865e-06
1.08452e-05
2.70478e-06
2.54316e-06
1.2155e-05
1.19354e-05
1.17682e-05
1.14067e-05
1.11002e-05
1.09281e-05
1.07447e-05
1.31166e-05
1.33871e-05
1.31346e-05
1.29627e-05
1.25986e-05
1.24376e-05
1.22267e-05
1.21986e-05
1.21508e-05
9.06078e-06
1.21196e-05
1.3748e-05
1.20478e-05
1.18457e-05
1.17466e-05