/*--------------------------------*- C++ -*----------------------------------*\
| =========                 |                                                 |
| \\      /  F ield         | OpenFOAM: The Open Source CFD Toolbox           |
|  \\    /   O peration     | Version:  v2012                                 |
|   \\  /    A nd           | Website:  www.openfoam.com                      |
|    \\/     M anipulation  |                                                 |
\*---------------------------------------------------------------------------*/
FoamFile
{
    version     2.0;
    format      ascii;
    class       volScalarField;
    location    "2";
    object      omega;
}
// * * * * * * * * * * * * * * * * * * * * * * * * * * * * * * * * * * * * * //

dimensions      [0 0 -1 0 0 0 0];


internalField   nonuniform List<scalar> 
13611
(
57.6854
30.3041
107.631
20.8204
18.0629
22.8525
25.3577
70.8449
25.0911
19.2833
23.7809
38.5163
20.1076
111.712
25.0202
18.6667
24.6942
21.7115
34.1442
18.9188
65.7854
24.3339
24.4716
25.0572
24.6262
22.6967
23.8554
18.8642
85.8547
23.9983
24.1707
24.4637
24.3574
24.45
21.8757
22.3305
19.3859
62.2756
23.8177
23.7896
24.2475
24.2187
24.3992
22.8934
21.93
18.7672
109.111
34.6016
23.7011
23.6678
23.6005
23.7639
24.0501
24.2747
24.154
22.7567
19.2369
20.602
63.072
36.7187
23.531
23.5886
23.3887
23.5301
23.7587
23.8311
23.5267
23.953
24.0521
23.5169
18.4012
20.5969
100.438
27.2398
23.4478
23.658
23.2623
23.3413
23.2585
23.3159
23.2381
23.6152
24.0417
23.6864
23.5173
18.6532
22.1546
63.2909
27.1185
23.5035
23.6497
23.1887
23.254
23.1224
23.7411
23.0904
23.086
23.0973
23.7227
23.451
23.5022
18.1475
22.4091
49.1191
20.3969
23.6054
23.4377
23.0957
23.3165
23.0372
23.7709
23.8833
22.9121
22.9517
22.9093
23.3449
22.9325
23.356
23.4066
18.7285
21.4441
23.1555
100.147
27.5148
18.6533
23.6607
23.5058
23.135
23.2542
22.9312
23.9512
22.7757
22.7418
22.7553
22.8094
22.9817
23.1097
17.9534
22.0328
23.0001
54.0915
21.1567
16.9618
23.714
23.4756
23.6516
23.1118
23.2903
22.8802
23.881
24.0951
22.7231
22.6183
22.5984
22.527
22.4707
22.819
18.689
20.8654
22.6072
22.8335
22.9129
98.3469
28.0858
16.4222
23.3928
23.5959
23.7552
23.0567
23.2056
22.7922
22.9626
23.9668
24.1801
22.6214
22.5594
22.4757
22.4016
22.3804
22.1997
22.2469
17.1675
21.3512
22.5457
22.5327
22.585
52.558
21.2136
23.4622
23.7154
23.5729
23.9102
23.1144
23.2588
22.8398
22.9283
24.1206
24.3286
22.6699
22.437
22.2138
22.2772
22.1111
22.0298
16.7155
20.9108
22.2868
22.4996
22.4159
22.0539
28.4986
97.4909
17.5132
23.402
23.8188
23.6826
24.0223
23.0853
23.217
22.785
22.9842
24.2281
24.4456
22.606
22.4683
22.1702
22.3094
22.0252
21.8574
18.3252
21.5097
22.1847
22.0494
21.9423
21.8118
22.7451
49.5309
16.5816
23.4065
23.8061
23.9652
23.6872
24.1805
23.1664
23.2952
22.8145
22.9677
24.3925
22.6402
22.4185
22.1493
22.3202
21.9593
22.066
21.8644
21.7611
17.5187
21.6156
22.1078
21.9557
21.8995
21.6398
21.7488
27.5577
17.9555
91.1208
23.5234
23.9023
24.0106
23.8216
23.6431
24.3059
23.2774
23.1588
22.7485
22.9053
23.0667
24.4714
22.6016
22.507
22.2356
22.4346
21.962
22.0914
21.8343
21.6671
18.1361
20.5932
21.8476
21.9337
21.6267
21.4324
21.4506
21.5707
20.1412
16.7281
56.1841
23.5048
23.9165
24.1508
23.8362
23.7343
24.2893
24.4576
23.3875
23.2706
22.774
22.956
23.0571
24.6543
24.7616
22.6687
22.2643
22.4769
21.8986
22.0274
22.192
21.7737
21.678
16.9167
21.1229
21.607
21.6154
21.3169
21.2853
21.401
21.4955
23.8645
42.4175
23.5871
24.0712
24.1888
23.953
23.7064
24.4468
24.5812
23.3743
23.2635
22.8634
22.9483
23.1601
24.7167
24.9805
22.7153
22.3853
22.5911
21.9179
22.067
22.2371
21.7796
21.6454
17.4947
21.5107
20.3173
21.2347
21.2693
21.0714
21.2175
21.3142
21.5571
16.8581
94.5649
23.1125
23.5706
24.0737
24.3378
24.0057
23.8115
24.625
24.4488
24.686
23.4627
23.3488
22.9319
23.0605
23.149
24.9108
25.0491
22.8689
22.6569
22.4048
22.6262
21.8511
22.0056
22.1714
22.3412
21.7039
16.7524
21.164
20.6566
20.9019
20.9688
21.0011
21.141
21.3814
21.5604
15.7121
53.7842
18.8115
23.6613
24.2134
24.4036
23.9567
24.1568
23.7832
24.7175
24.6036
24.8965
23.4532
23.3385
23.0393
23.2348
25.3145
22.9193
22.702
22.5314
22.6196
21.8885
22.0487
22.2236
22.3955
21.7257
18.0963
21.0629
20.7829
20.1829
20.8801
20.6582
20.805
20.9963
21.1917
21.3819
21.5062
21.6566
15.3099
27.1618
97.8855
15.6353
22.8088
22.6408
23.6831
24.3581
24.5668
24.0662
24.2723
23.8948
24.9489
25.1273
23.5782
23.4434
23.1182
23.2283
25.5287
25.4432
22.8334
23.0348
22.5098
22.7233
21.8256
21.9895
22.1566
22.3415
22.4078
16.9492
20.6096
20.5212
20.5523
20.7189
20.564
20.8072
21.1193
20.9368
21.3071
21.4804
21.55
21.71
28.4028
59.6692
15.3051
22.4961
22.5718
22.6554
17.8242
62.4272
23.8127
24.5258
24.7737
24.2244
24.0247
24.4671
25.145
25.1257
25.4054
23.5641
23.437
23.1114
23.328
25.805
22.832
23.0974
22.5792
22.7542
21.8968
22.0344
22.2126
22.406
22.5166
17.9477
20.4612
20.3313
20.4115
20.1428
20.5375
20.6481
20.7661
21.1582
21.0147
21.3446
21.5246
21.6466
21.8334
19.1076
61.797
15.2148
17.0596
21.6329
22.3726
22.3239
22.5007
17.9423
27.0934
23.886
24.7304
25.0587
24.3921
24.1658
24.5905
25.5142
25.452
25.7547
23.6825
23.5261
23.2432
23.3397
25.9592
25.9935
22.927
23.2249
23.1127
22.691
22.868
22.0043
22.1524
22.3396
22.5142
22.5534
20.0856
20.1541
20.3679
20.249
20.2705
20.7052
20.8747
21.127
21.2792
20.9824
21.456
21.6414
21.7044
21.8962
22.0189
48.2935
15.0654
17.5261
22.2641
22.2172
22.0578
22.6902
22.5382
22.8996
19.6682
52.4696
23.8319
24.0625
24.9377
25.3141
24.5762
24.3539
24.1565
24.8629
25.8053
25.6702
23.6578
23.5734
23.4713
26.4977
26.2803
26.3001
23.0495
23.3012
23.232
22.7396
22.9259
22.0901
22.1949
22.3918
22.6171
22.6743
19.9715
19.9165
20.0653
20.2255
20.5278
20.2683
20.1914
20.6722
20.8472
21.2194
21.3196
21.0736
21.5176
21.7054
21.8288
22.0427
13.5863
47.9313
16.5701
14.3938
19.2818
21.5
22.0081
22.2846
21.8258
22.7552
22.4359
22.9418
19.2698
21.8574
23.9917
24.173
25.2438
24.996
25.6055
24.798
24.5617
24.3283
24.9829
26.2772
26.1342
23.7858
23.7196
23.4911
26.5037
26.7038
23.1135
23.4131
23.3134
22.8565
23.049
22.1304
22.3021
22.5212
22.7185
22.6109
19.7586
19.8854
20.0956
20.2073
20.5142
20.0483
19.9275
20.8082
20.9313
21.2071
21.4367
21.0698
21.6456
21.8353
21.8931
22.0751
23.4165
59.0544
17.7227
14.5828
19.215
21.5644
21.9749
22.1358
21.6845
21.6199
22.6714
22.5087
22.8469
18.9181
74.192
23.9401
24.1575
24.3234
25.471
25.2925
25.9424
24.8813
24.5038
24.8088
25.2579
26.7416
26.4027
26.2906
23.8249
23.6683
27.3395
27.1184
27.2496
23.2444
23.5125
23.4667
22.9099
23.1124
22.2884
22.3745
22.5859
22.8303
22.7346
19.5621
19.7221
20.0084
20.3636
20.628
19.913
19.6045
20.9472
20.7772
21.3419
21.5319
21.2092
21.7458
21.9339
22.0141
22.2194
18.5934
55.3057
16.8428
15.2405
19.6069
19.4288
21.8026
22.1502
21.538
21.5097
22.7255
22.4399
22.9318
22.8318
27.8658
24.0495
24.3169
24.4546
25.8065
25.4555
26.0353
25.2105
24.6072
25.0936
25.4001
27.374
27.0471
26.7707
23.8038
24.0049
23.6535
27.8871
27.8642
23.3117
23.593
23.0371
23.2374
22.3784
22.5247
22.7006
22.8759
22.8465
19.4538
19.742
20.1394
20.3513
20.6907
19.4582
19.2983
21.0986
20.948
21.3467
21.4978
21.7042
21.2185
21.8944
22.0813
22.1202
22.2295
22.3285
27.2313
59.0595
17.1421
14.617
19.4752
18.6682
21.8387
22.3116
22.0172
21.3473
21.5394
20.032
21.4668
22.6328
22.5195
22.902
22.7255
63.3251
17.6508
24.2646
24.3925
24.5072
26.1105
25.9142
26.6245
25.3433
24.87
25.0945
25.7889
27.5461
27.9841
27.2063
26.9619
23.9701
24.1701
23.8067
28.5476
28.5595
23.475
23.5801
23.7748
23.0939
23.3587
22.5583
22.6247
22.8067
23.0167
22.9703
19.3154
19.5741
19.972
20.1419
20.5043
20.6821
20.8884
19.2444
19.1488
21.182
21.0931
21.4967
21.6231
21.8333
21.3808
21.9914
22.144
22.3295
22.4297
18.979
49.3054
16.006
18.2498
15.0354
19.3428
19.2601
21.7191
22.264
22.041
21.2372
21.4975
19.9935
21.3131
22.6289
22.4379
22.7997
22.7025
26.0737
14.711
24.341
24.7244
24.7966
26.5636
26.0663
25.6996
24.9911
25.3986
25.9676
28.5732
28.7691
28.0478
27.5739
23.974
24.1558
29.4713
29.7696
23.5481
23.7573
23.9158
23.2454
23.3513
23.5243
22.6626
22.7753
22.9532
23.0741
19.3924
19.673
20.0203
20.3859
20.5554
20.8362
20.9768
18.9535
19.0835
21.1383
21.3498
21.205
21.5028
21.6208
21.7821
21.9801
22.1282
22.2936
22.381
22.5816
25.0633
50.6493
16.5289
17.7565
14.2964
19.236
19.0566
21.7446
22.1701
22.3323
21.9754
21.3418
21.0723
21.614
20.8406
15.527
21.275
21.0613
22.5493
22.452
22.9622
22.7877
22.6337
36.056
24.6461
24.8482
24.9146
27.0952
26.5843
25.9434
25.2491
25.7662
26.3425
28.7985
29.2242
29.7325
28.215
28.128
24.1791
24.3393
30.6512
30.8383
23.7116
23.9123
24.1678
23.3142
23.5226
23.6431
22.8694
22.9024
23.0943
23.2245
19.5493
19.2416
19.897
20.1954
20.3142
20.8065
20.9681
21.1434
18.7727
18.8897
21.2995
21.4802
21.2596
21.6481
21.7337
21.8587
22.1097
22.2742
22.3918
22.5605
22.7004
18.4956
44.9778
15.7572
18.2457
15.1938
19.0645
18.8189
21.872
22.1116
22.2651
22.021
21.3445
20.9796
21.6119
21.5906
14.1741
20.8216
20.8847
22.5561
22.4005
22.8652
22.6835
29.9533
24.7204
25.1237
25.2651
27.0792
27.9036
26.6982
26.5165
25.4608
26.1054
26.7553
30.1969
30.3567
30.9992
29.4447
29.2256
24.378
24.2849
24.6061
31.9517
32.7016
23.7769
24.1563
24.3302
23.4637
23.6587
22.9927
22.9685
23.0874
23.2663
23.3068
19.5446
19.1998
19.8064
20.0708
20.3685
20.8875
21.2586
21.3382
18.5227
18.7943
21.4487
21.6783
21.5481
21.7989
21.7529
22.0359
22.2765
22.177
22.5841
22.6797
22.6879
22.9182
25.8748
51.02
16.4266
17.8494
14.0783
18.9678
18.6113
21.8203
22.1554
22.304
21.9491
21.2467
21.5
21.0955
20.8128
21.7203
18.1328
21.223
18.0769
20.7008
22.4499
22.8257
22.651
33.7851
25.0646
25.3727
25.363
27.9464
28.854
27.3811
26.9399
25.8904
26.6476
27.3469
30.3832
31.5347
31.6474
32.5046
30.5064
24.6287
24.6114
24.7756
34.9453
33.6197
33.2727
34.1722
24.0181
24.2127
24.6014
23.5836
23.8843
23.2169
23.2034
23.2737
23.385
23.4921
19.8427
19.3871
18.9609
19.9133
20.2753
20.9079
21.5471
21.5496
21.6075
18.4322
18.5661
21.6625
21.8516
21.7383
22.0042
22.0357
22.1321
22.1718
22.4911
22.4204
22.757
22.8648
22.8925
23.069
21.7746
44.6031
16.0879
18.1815
16.4818
14.6872
18.593
18.8069
21.8612
22.0988
22.2569
21.9416
21.2738
21.4589
21.0312
20.7495
21.6765
17.9172
21.1329
16.5449
20.524
22.4562
22.9812
22.7268
22.8895
22.5702
27.2962
24.9974
25.3224
25.7804
25.8013
27.9492
28.7816
30.1668
27.8394
26.2579
27.1447
27.9265
31.9115
33.4851
33.7623
34.0435
32.2433
24.7627
24.7494
36.7564
35.7893
36.0504
24.09
24.5092
24.797
23.8334
23.9731
23.3998
23.3257
23.409
23.5764
23.6391
21.0337
19.5681
19.1313
21.1249
21.8246
22.7162
23.2801
21.9759
22.351
22.1507
18.2685
18.7095
21.8909
22.1371
22.0912
22.1537
22.2305
22.3547
22.3762
22.7094
22.5469
23.043
23.0853
23.0556
23.3204
26.4046
50.383
16.9937
17.9741
15.7268
14.3083
18.2919
18.7324
21.8058
22.0113
22.1594
22.3197
21.8456
21.3713
21.1907
21.5287
21.0851
20.8873
20.554
21.6029
21.7285
18.8142
20.5325
20.6475
16.7633
20.2598
22.4092
22.6952
22.8481
22.5486
27.0848
25.2369
25.7123
26.1251
26.1684
28.9407
29.7838
31.0814
28.2223
28.246
26.9144
27.8984
28.8217
33.4824
32.6834
35.1678
35.1524
35.9399
33.5191
25.0935
25.0551
37.1354
36.7343
24.3519
24.5568
24.7678
25.1265
23.9997
24.2742
23.6681
23.5831
23.609
23.7594
23.8934
19.9039
20.9052
19.497
20.0285
19.0166
22.1481
22.9886
23.197
23.9906
23.9564
24.1236
22.5912
18.1375
18.2592
18.647
22.1885
22.4313
22.5205
22.455
22.5877
22.4962
22.5924
22.9829
22.8009
23.3608
23.3114
23.25
23.4348
20.7938
38.9197
16.6374
18.3836
14.6001
15.0908
18.2825
22.0063
22.1414
22.2868
21.8541
21.3732
21.1516
21.4495
21.0236
20.8437
20.5651
21.5844
21.6572
18.164
20.3013
20.6005
16.3651
20.199
22.4645
23.0072
22.6056
22.755
22.9052
25.9481
21.2251
25.6062
26.107
26.5546
26.596
29.8466
30.8718
32.9875
29.3049
29.0915
27.2547
28.7123
29.5367
34.9429
34.5527
36.398
36.5426
36.5029
33.7779
35.1551
25.2501
25.238
37.9512
37.5331
37.4361
24.4399
24.8299
25.0834
25.4114
24.2761
24.39
23.8526
23.7329
23.7541
23.7939
24.0058
24.1143
18.8337
20.3828
19.0927
19.2943
19.04
22.8485
22.3006
21.4644
22.883
24.2874
25.4759
23.78
18.0024
18.0639
18.4379
18.8598
22.8774
23.411
22.7793
23.0693
22.8436
22.8959
23.3177
23.0072
23.0041
23.6987
23.6231
23.7216
20.56
38.5614
17.0272
18.3066
14.3331
14.8355
18.0107
21.9423
22.0811
22.2149
22.3447
21.7856
21.2953
21.0559
21.2051
21.4335
20.927
20.7301
20.4145
21.5146
21.689
18.9859
19.9934
20.11
15.8899
20.0593
22.4305
23.09
22.5764
22.7309
22.8925
24.6386
19.6248
25.897
26.6552
27.2112
27.1057
31.259
32.1834
33.4377
30.0928
29.5948
29.941
28.0925
28.6893
30.8946
36.3872
35.3564
37.1031
36.9989
37.1157
35.5272
36.1516
25.5986
25.6887
37.8001
37.2871
24.678
24.8792
25.0875
25.4062
25.7632
24.4856
24.7112
24.157
23.9172
23.9835
24.0465
24.1623
24.2584
24.4222
23.9882
21.3494
18.4512
20.7564
18.8685
20.4873
24.6994
29.6327
25.6695
24.7702
27.3452
25.4189
24.3417
17.8631
18.0646
18.3974
18.4751
24.064
24.2376
23.4517
23.7866
22.9829
23.4105
23.68
23.3962
23.3557
24.0513
23.737
23.8497
16.7578
42.0347
25.4975
17.7494
15.9321
18.0548
14.3481
17.8864
21.9763
22.1087
22.1822
22.309
21.7944
21.2948
20.9957
21.1148
21.379
20.853
20.745
20.4122
21.5057
21.6413
17.5193
19.9059
19.7584
20.094
20.1138
22.4858
23.2089
23.0643
22.6383
22.8006
22.9756
23.6707
17.9435
25.8812
26.486
26.7881
27.2521
27.9118
27.8766
32.5021
31.651
34.7948
31.6142
31.0012
31.157
28.4485
29.6789
36.4975
36.5199
36.3914
37.1575
37.1128
35.7776
36.6205
25.8445
37.867
38.8021
37.3937
24.8319
25.2632
25.4318
25.8766
26.204
24.7396
24.2254
24.4083
24.2356
24.358
24.4226
24.6425
24.7343
31.7435
23.026
31.0014
19.2359
35.7394
18.4025
21.0253
35.3105
52.5795
36.6732
26.5541
30.2129
27.6207
25.7593
17.7593
18.2965
17.8768
18.4172
17.9633
25.3953
25.9636
24.1625
24.067
25.2533
23.8114
23.7122
24.1524
24.19
24.4059
24.3001
24.1813
24.2011
15.7451
39.0978
22.3577
17.8041
15.8929
17.8824
14.0348
17.6237
22.065
21.9368
22.227
22.3581
21.8726
21.7484
21.2318
21.0263
20.8879
21.1251
21.4134
20.6617
20.5392
20.2733
21.5686
21.6831
17.8996
19.8397
19.6825
19.6907
19.2404
19.9688
22.4494
23.2435
23.1236
22.6319
22.7999
22.9694
17.8628
16.8958
26.3799
26.6932
27.5562
28.0004
28.7884
34.1558
33.5935
35.11
32.8328
32.0788
31.5019
32.5829
29.1539
30.886
35.7521
36.5365
36.1279
36.1992
36.3622
36.3569
35.7648
35.8277
26.2958
45.9536
39.5258
25.1883
25.4899
25.8316
26.2912
26.7128
25.0133
24.5646
24.7576
24.4301
24.6473
24.8193
24.9411
25.0395
53.4115
30.9747
38.6314
25.008
34.4339
54.2295
32.1449
31.129
56.986
63.5397
45.0931
29.8698
29.9197
37.8456
27.4433
17.5846
18.0208
17.8469
17.5816
18.625
27.3658
27.3616
26.052
26.3425
26.6747
24.5018
24.2911
24.6397
24.9336
24.9537
25.0481
24.4061
13.4215
27.1921
43.6165
15.1981
16.9223
17.8182
14.7977
17.6143
22.0975
21.9852
22.1838
22.3612
21.8446
21.7781
21.2672
20.9557
20.8321
21.0967
21.4143
20.6733
20.4995
20.2254
21.5691
21.6318
19.6318
19.4312
19.5132
19.9554
22.5051
23.1862
23.1217
22.7275
22.5845
22.8918
23.0458
39.7343
15.2289
17.93
27.2111
27.7337
28.1362
28.789
29.8124
34.5936
33.8495
35.5684
33.9305
33.5309
33.328
30.0496
31.9292
36.0195
35.599
35.6593
36.7622
37.1967
36.8475
37.9827
35.4125
35.7184
26.7668
60.6547
55.3297
45.7756
25.3606
25.734
26.0183
26.7926
27.3565
25.3129
24.8902
25.1611
24.9226
25.0192
25.1318
25.4155
25.3048
70.6119
64.2883
32.1049
51.7478
62.7676
48.4188
49.7419
93.6642
96.0191
73.2739
41.1233
31.609
41.6886
28.9498
17.5255
17.1214
18.0261
17.6646
17.8828
28.0288
28.7317
28.3906
27.0982
27.6063
28.4812
26.8345
24.7945
25.5315
27.0178
25.343
25.4456
25.7781
24.9131
23.6113
40.0518
13.023
16.8187
17.6322
14.7038
17.4394
22.0661
21.9593
22.22
22.4442
22.3085
21.8821
21.7477
21.3559
21.2422
20.9483
20.8807
20.7518
21.1678
21.0145
21.5029
20.573
20.4065
20.2975
20.0865
21.667
19.7926
19.4312
19.268
19.5909
23.3285
23.2299
22.7191
22.6363
22.8634
23.0337
35.1215
12.9724
18.0518
27.694
28.7114
29.0949
29.8349
30.9442
35.2993
34.7889
35.6252
34.2642
34.8426
34.0189
33.3488
31.6174
38.0863
36.3937
42.2273
44.1952
48.9609
42.9624
46.817
35.5219
35.7162
36.0334
27.4847
107.346
96.0847
68.9517
25.7952
26.032
26.599
27.3865
27.2273
28.079
25.5949
25.3061
25.6921
25.2588
25.4154
25.5921
25.7859
25.5704
25.6371
64.946
76.418
34.7433
50.039
63.9262
65.7098
70.2697
77.1689
112.918
92.3031
94.7183
109.574
74.364
33.2427
30.6679
69.1572
17.3461
16.5499
17.8794
17.8067
22.7019
30.1604
28.8897
29.351
29.3037
30.0952
29.3934
28.5467
26.0799
26.6694
28.241
27.339
26.1687
26.4069
27.0195
15.8238
27.704
44.2628
13.5763
15.7756
17.1307
17.509
17.4035
17.2738
22.126
22.0124
22.2009
22.4719
22.3281
21.8648
21.7913
21.366
21.2948
20.8586
20.8278
20.75
21.1536
21.006
21.4975
20.5421
20.3839
20.193
20.032
21.6349
19.7927
19.3539
19.0389
19.2866
23.4273
23.2054
22.7837
22.619
22.9068
23.1207
22.9883
35.8554
14.0506
18.7909
28.5901
29.3534
29.9386
30.8841
32.3171
35.4859
35.52
35.6036
34.9414
35.1097
34.7828
33.9949
32.5311
39.8705
44.4523
38.6812
57.7296
69.1112
72.5437
64.1319
35.1887
35.5608
36.7288
37.6034
28.2019
127.338
100.328
25.8841
26.079
26.6073
27.1072
28.261
28.1249
28.8242
25.8178
26.4088
25.9818
25.9789
26.1364
26.4014
26.0685
26.1203
58.6166
65.8559
50.0024
53.8282
54.0005
43.9329
85.531
86.7648
100.276
103.566
115.194
110.408
100.448
36.5848
31.3104
70.785
88.0431
17.4965
16.2998
21.1611
17.7704
29.9253
44.2736
29.4594
28.9538
30.231
30.7991
28.8972
31.1735
28.2157
30.6042
29.7957
26.513
26.863
27.3929
28.5975
13.9449
21.3804
42.2448
14.0242
15.4557
16.8762
17.3265
17.2018
17.1065
22.0936
22.0075
22.2581
22.5576
22.4021
21.9345
21.7565
21.4294
21.2944
20.856
20.6949
21.2186
21.0773
20.9413
21.5638
20.4715
20.6146
20.3176
20.2089
20.0946
19.9247
21.6824
19.6837
19.1921
19.5396
18.9824
19.0183
23.4476
23.296
22.7613
22.6933
22.8813
23.1111
23.0309
35.3797
21.5127
12.6263
18.8329
29.4118
30.6351
30.9647
32.1114
33.0469
35.6457
35.0623
34.9805
35.1643
34.8217
34.7253
33.7548
54.1327
63.643
49.4854
84.7176
102.097
100.579
117.092
37.6771
34.8794
35.9987
47.4747
29.1667
233.294
174.652
26.4299
26.8265
27.0698
27.8402
28.9117
28.9317
29.9314
26.4739
27.1882
26.5019
26.6061
26.8568
26.9834
26.7775
26.6446
26.5235
35.4249
56.2244
53.1323
54.2863
52.1241
42.7765
27.6614
83.7641
98.7689
77.8857
95.1741
109.119
81.4627
48.4758
32.8482
32.5923
113.854
108.23
17.4111
16.5895
27.2036
19.1933
17.4457
43.6748
54.1026
32.6982
30.9299
30.2556
29.3089
29.7695
31.6218
30.2635
31.017
27.3619
27.946
28.8554
30.4178
12.8675
20.3935
46.4481
27.3412
13.5782
16.0266
17.0211
17.2308
17.1128
17.0788
22.1408
22.074
22.2593
22.5908
22.4078
21.9153
21.7921
21.4321
21.3672
20.8118
20.7318
21.235
21.052
20.9181
21.5568
20.4919
20.5704
20.3412
20.1862
19.9922
19.9039
21.6763
19.6834
19.282
19.4441
18.7467
18.8651
23.5399
23.4044
23.2688
22.8078
22.6684
22.9411
23.1779
23.0235
28.3933
20.1319
14.4841
19.1271
30.5462
31.3704
30.9492
32.055
33.0968
33.9821
34.3377
34.3163
34.8434
34.8444
34.5112
34.7604
34.5268
34.1237
62.9953
90.9032
55.6466
140.001
159.448
131.94
154.378
184.875
45.4746
34.239
46.3007
30.1728
252.007
303.843
26.9212
27.2824
27.7283
28.7161
29.8528
29.9644
30.5824
27.1092
28.3487
27.531
27.4562
27.6005
27.7619
27.7559
27.3564
27.2724
31.1538
62.3852
55.0204
34.6315
27.9862
20.4742
82.5389
57.891
64.5763
75.0011
105.673
81.7167
47.715
34.671
36.5066
118.074
119.489
17.4452
17.254
16.4504
35.7956
23.0489
46.9162
48.1147
43.6958
43.3952
34.4447
33.7612
32.7812
41.9662
32.3915
32.2765
32.1453
28.3332
29.3274
30.8464
32.5582
11.9013
15.2111
38.6076
21.7748
14.3928
15.7255
16.7494
16.9997
16.909
16.87
22.2138
22.0865
22.3421
22.5625
22.4896
21.8593
21.9813
21.7342
21.4963
21.3848
20.8454
20.6975
21.3241
21.1893
20.9665
21.1105
21.6167
20.4263
20.6133
20.2653
20.0983
19.9911
19.7944
19.5574
19.1687
19.4324
18.7084
18.5481
18.9788
23.6133
23.4833
23.3351
22.7881
22.7099
22.9389
23.1891
23.1102
27.7441
16.1323
13.5543
19.2553
31.3971
32.2442
32.1969
32.6698
33.8177
34.219
34.7997
35.252
34.7852
34.5073
34.4879
34.6132
34.0501
34.5299
108.765
142.08
84.2127
182.675
230.934
230.077
191.662
287.943
64.7224
38.9007
45.0254
63.8859
31.3067
359.153
419.831
27.6057
27.9606
28.3575
29.3699
30.2633
30.9747
31.6967
28.0335
28.4564
28.9509
28.2663
28.4317
28.4936
28.3228
28.104
27.7859
17.1189
28.5706
40.2374
29.0537
24.4792
18.1192
16.1883
64.2457
32.1862
54.2102
40.7503
60.1624
80.1371
54.5618
47.0285
53.2729
112.369
157.302
89.9532
17.3696
17.3111
15.9758
37.0956
46.6842
22.0763
33.0508
49.2626
39.6049
80.8599
82.2926
42.8052
36.2998
77.1652
32.8394
32.8285
29.6531
31.1094
33.1185
35.2162
12.4081
15.2885
36.8849
23.3396
14.1207
16.1474
16.8194
16.7662
16.9023
17.0194
22.2647
22.1883
22.05
22.3453
22.6158
22.4746
21.8831
21.9477
21.747
21.4995
21.4552
20.8164
20.7458
21.3237
21.2209
20.9595
21.0994
21.6193
20.4543
20.6115
20.2953
20.1004
19.9098
19.7841
19.5424
19.1634
19.2944
18.5256
18.3632
18.8529
23.5866
23.4323
23.2744
22.8533
22.6914
23.0428
23.1265
28.2283
22.1739
16.2377
15.5412
19.1713
32.2898
32.9536
32.9617
33.5735
33.8987
34.2738
36.912
38.0514
35.2081
36.1461
34.1904
35.3995
34.0919
34.2664
151.343
119.921
117.692
275.042
310.35
299.39
264.06
379.547
76.1907
103.678
59.5078
77.3142
32.2714
473.235
493.988
486.307
28.4073
28.6222
29.0585
30.6632
31.7341
32.0125
31.2228
32.1852
32.3241
29.9521
30.1243
29.4114
29.3923
29.4317
29.0329
29.0555
28.3434
17.101
20.0549
27.5947
19.2153
18.1006
17.0253
17.2299
32.9262
30.4877
26.5264
53.9041
25.8079
63.6859
79.2917
85.3155
135.69
162.257
104.987
16.2489
17.2685
18.4963
45.125
47.5949
30.8853
37.3274
42.2855
29.0639
114.485
116.957
78.983
34.4874
67.6651
111.54
102.368
34.0038
31.4481
33.3739
35.4159
35.4803
11.919
13.1301
82.5614
23.1484
17.8895
15.1859
15.8464
16.3162
16.7037
16.7041
16.9014
22.2552
22.1826
22.1111
22.4082
22.59
22.5184
21.8259
22.0027
21.6863
21.5649
21.4969
20.8744
20.6894
21.2841
21.4007
21.1574
21.031
20.5516
20.4003
20.267
20.1903
20.015
19.9284
19.754
19.4429
19.6632
19.0215
19.2988
18.6262
18.2958
18.8644
23.6635
23.497
23.3071
22.8534
22.7621
23.0289
23.2277
25.3834
22.4105
14.3647
14.9348
19.1949
32.9422
33.7843
33.4129
33.9827
34.0963
41.6352
43.4871
38.1768
39.9979
34.3674
37.4542
34.7403
33.7586
238.681
198.01
186.416
311.099
326.738
404.711
403.062
322.405
466.279
124.588
148.82
68.0156
122.508
33.0656
540.369
571.155
582.271
28.9117
29.8572
30.0798
31.0085
32.5461
32.3746
32.6461
32.7608
31.7224
30.4691
31.4209
29.8011
30.6464
29.7794
30.7758
29.688
29.2162
19.3352
17.9034
20.1335
17.6938
16.1909
15.9246
17.2113
19.1378
17.3605
43.1075
24.4824
22.7724
74.7511
84.6182
128.658
153.094
124.373
133.125
178.689
82.9948
15.8342
16.3504
18.5329
45.467
44.5445
31.1652
44.4875
31.4057
17.7577
27.8906
181.364
185.31
36.7675
101.416
180.832
177.051
33.5427
35.9391
38.4105
36.8472
13.892
12.9876
29.7324
25.0196
17.4831
16.2612
16.5797
16.6192
16.4448
16.7685
22.334
22.2438
22.085
22.4038
22.6402
22.5251
21.8434
21.9805
21.7006
21.5661
21.465
20.86
20.7202
21.3365
21.4025
21.1565
21.0145
20.5727
20.4354
20.3438
20.2032
20.0299
19.8403
19.4702
19.6628
19.0146
19.228
18.5086
17.9465
18.7066
23.8088
23.7113
23.6311
23.4176
22.9413
22.7788
23.0978
23.2615
26.4074
19.458
15.4073
15.5679
18.1363
18.168
33.4553
33.9171
33.8299
33.9505
34.0361
33.895
54.5921
55.6734
44.0556
47.5093
37.4441
47.987
37.0879
37.4118
34.279
253.571
321.456
241.843
406.609
415.994
488.954
500.857
415.145
537.14
509.535
154.938
216.322
108.606
141.818
33.4102
641.325
647.82
30.0504
30.8
32.0076
33.1652
32.8371
32.6683
33.1197
33.3269
33.7802
32.2144
31.763
33.4331
30.8602
31.4406
31.2962
32.2028
31.0275
30.3463
18.5748
19.0503
18.3073
19.6431
16.9359
17.0527
17.8821
19.0702
19.2503
20.3523
41.8104
74.713
26.7394
22.0119
118.049
148.373
188.082
162.659
116.16
191.481
159.535
90.0151
16.454
16.1355
24.8765
39.6428
35.1927
37.3752
42.9396
23.8127
14.7445
18.2421
196
192.78
45.2371
165.23
79.4567
187.826
185.198
36.0394
38.6693
40.0881
48.7403
13.8902
12.8
23.6727
21.2493
14.5769
16.3925
15.7972
16.6691
16.4648
16.3856
16.3318
22.3241
22.2485
22.1294
22.4625
22.5894
22.7215
21.9226
21.7793
22.0321
21.6332
21.5155
20.8039
20.9422
20.6575
21.3146
21.4584
21.0749
21.2358
20.5242
20.4152
20.2875
20.1275
19.9488
19.8494
19.4194
19.5868
19.7661
18.8955
19.1387
19.3178
18.5596
18.3584
18.1101
18.7162
23.9555
23.8792
23.7593
23.4639
22.9531
22.8886
23.2035
23.0354
23.3813
22.8218
14.1831
14.8303
18.4439
17.9731
33.6032
33.8514
33.6961
33.8081
33.8235
34.1115
66.3572
70.6072
54.4467
61.8448
45.1855
57.0082
50.6114
43.0831
42.4455
36.1693
333.664
414.883
341.127
453.2
490.069
579.307
585.101
486.873
601.069
600.871
221.937
263.075
125.338
212.695
33.4857
33.6147
667.776
657.513
705.891
30.8136
32.065
32.2767
33.2227
33.2581
33.2894
33.5185
35.9777
34.4333
33.501
31.9818
35.05
33.1147
31.6232
32.1583
33.446
31.9145
31.2567
19.3385
18.4098
19.2963
19.9483
16.9619
18.1498
18.7137
18.1994
21.2787
65.9946
117.595
19.4322
21.1377
117.054
181.408
191.916
123.754
204.575
181.794
99.54
16.5933
15.7934
26.3243
39.6429
35.0175
23.6623
33.8391
42.8241
16.5207
16.4697
191.615
172.603
177.963
129.642
169.05
191.191
38.8189
41.7599
43.0602
66.0946
14.5637
12.6946
27.2293
24.4982
14.7918
16.2314
16.129
16.5471
16.2818
16.3744
16.1438
22.3832
22.3464
22.207
22.0977
22.4958
22.6436
22.7597
21.9351
21.81
21.9941
21.6682
21.5901
20.8339
20.9173
20.6658
21.4051
21.2997
21.4951
21.0817
21.2408
20.554
20.4789
20.3339
20.1587
19.9752
19.4823
19.6089
19.7883
18.9049
19.1914
19.3065
18.4009
18.3048
17.9492
18.6654
24.1431
24.0283
23.7345
23.9715
23.6053
22.8985
23.2928
23.0514
23.4817
21.6664
16.2186
16.4622
18.1309
17.7623
33.7824
33.4793
33.6821
33.9861
35.8177
99.9016
99.1347
76.6692
82.3484
47.6643
72.1961
66.8002
51.9248
37.7429
377.887
414.523
497.227
383.417
535.779
561.434
620.432
654.938
569.569
648.173
266.115
270.677
349.723
184.803
227.276
269.667
33.5579
33.5878
705.315
677.413
724.712
31.8934
32.6753
33.1129
33.5095
33.5775
33.6654
33.5289
33.527
38.7743
36.1139
35.1849
33.4108
37.2241
33.8982
32.4461
33.0645
34.5196
31.9849
32.7108
32.087
18.8779
18.2832
19.592
19.6112
19.9481
17.3962
17.7313
17.6925
18.0204
20.6292
27.2344
121.537
17.2701
21.7704
150.723
181.118
171.65
173.964
115.46
162.339
204.17
172.589
115.063
21.7825
15.419
32.681
25.5267
18.689
34.8252
38.7179
15.8406
16.7914
145.301
210.261
124.412
152.989
134.609
183.496
42.0693
45.6029
65.3116
14.2781
13.1537
33.3227
22.8192
13.6858
16.2058
15.3289
16.3454
16.1078
16.2458
15.3025
22.4631
22.4009
22.3287
22.2527
22.1474
22.5988
22.7296
22.8489
21.8921
21.7657
22.0377
21.6417
21.631
20.8115
20.9698
20.6186
20.7456
21.3637
21.4662
21.5904
21.1812
21.0506
21.3095
20.5016
20.3518
20.4502
20.2752
20.0797
19.8936
19.5659
19.3882
19.7164
18.7888
19.0263
19.1511
18.3329
18.1598
17.9713
18.5824
24.3572
24.7264
24.2802
23.9439
24.1947
23.6873
22.9747
23.2676
23.4377
23.1599
23.6404
24.3016
15.588
16.3311
18.081
17.6497
33.6385
33.9388
33.6587
35.3276
36.8095
117.274
131.192
119.693
58.4201
87.9247
85.1604
72.106
64.2843
52.9011
43.7162
463.195
481.599
562.427
473.067
573.051
614.928
644.379
658.076
610.456
693.267
346.99
349.143
394.136
204.042
294.559
341.841
33.6551
33.5874
33.8179
635.816
680.72
659.868
582.891
32.7559
33.2538
33.7741
33.702
33.6401
34.0047
34.0325
41.0758
38.5218
36.7454
34.7663
37.845
38.9079
35.6361
33.0755
34.1749
35.5407
33.1471
33.6844
33.0702
18.6519
18.4058
18.9322
19.1124
19.5112
17.5232
17.2039
17.3836
17.6462
18.0466
20.9489
35.7441
20.5478
145.895
154.887
168.359
134.23
144.762
139.994
214.107
164.244
190.329
24.0119
18.6476
33.0889
25.1624
17.5382
15.0403
37.7396
31.578
38.9826
16.6295
17.1255
112.22
204.024
182.525
105.182
83.2265
151.65
45.4648
49.7919
85.2963
13.077
33.1618
26.3341
16.3758
13.0907
16.1129
15.4724
16.1673
16.0331
16.2085
16.1647
15.0417
22.5154
22.4726
22.3809
22.2265
22.118
22.6262
22.7926
22.8642
21.9193
21.7968
21.9938
21.7124
21.6962
20.8826
20.9566
20.6551
20.7331
21.3727
21.5082
21.5872
21.1689
21.0982
21.3246
20.6083
20.4485
20.4948
20.3
20.1031
19.9167
19.6306
19.4064
19.7327
18.778
19.0101
19.2569
18.4474
18.1542
18.0698
17.7934
18.6482
24.6499
24.5288
23.8863
24.165
24.4771
22.9898
23.385
23.5811
23.1761
23.7731
24.1216
15.8601
18.1956
17.1874
17.7238
17.4181
35.0183
34.7275
36.2327
41.0539
174.314
175.672
169.681
138.209
131.499
108.723
96.9141
75.9988
47.5478
505.732
549.332
565.184
612.205
495.723
518.362
631.226
632.678
616.695
635.531
619.766
642.787
639.572
413.732
462.489
260.604
349.591
304.987
412.582
34.1081
34.0135
34.7028
542.342
583.121
526.482
33.4382
33.9149
34.0676
33.8517
33.8614
34.1837
34.2079
34.283
40.5899
43.2542
37.8556
35.9713
39.9618
40.7301
36.3168
34.1158
34.8416
36.4625
33.8513
34.0306
34.273
33.6381
18.5583
18.3501
18.8225
19.2367
19.6261
17.1467
16.8931
17.5559
17.2195
17.9202
18.1998
20.0437
19.9433
63.5664
20.2644
174.714
147.777
124.502
158.756
168.473
172.534
193.138
181.529
171.374
22.654
18.6125
27.1342
18.6267
15.6555
15.3193
37.2204
34.169
32.7441
16.5831
16.7941
82.1788
216.319
160.621
79.9264
111.032
166.172
45.7185
50.2963
72.1611
13.0043
33.9605
21.1051
15.1281
12.7347
15.8269
14.535
15.2496
15.8773
16.0762
16.0298
16.3452
22.5886
22.5237
22.3638
22.4831
22.2888
22.1713
22.7217
22.7896
22.9227
21.8769
21.7758
22.0453
21.7542
20.8504
21.0293
20.6637
20.7822
21.4498
21.5162
21.6423
21.2139
21.0978
21.2829
21.4003
20.6459
20.5046
20.5891
20.2282
20.4209
20.0977
20.0249
19.8242
19.6264
19.5462
19.3784
18.8803
19.1302
19.2642
17.8929
17.7487
24.951
25.3296
24.8746
23.936
24.4441
24.703
23.095
23.3976
23.5411
23.7593
23.2983
24.5798
15.9729
16.9008
16.7891
17.5592
17.3285
36.0993
35.9712
39.6138
45.2449
216.602
168.589
223.675
160.649
139.392
123.166
118.299
107.074
83.451
68.6
573.749
581.967
618.274
630.381
560.353
577.756
631.436
634.176
562.849
595.296
555.971
627.526
491.654
501.782
292.101
422.899
372.8
462.399
35.2539
35.0726
34.6573
36.2686
485.074
506.236
571.468
34.0307
34.4697
34.5172
34.1621
34.8235
34.3003
34.1673
43.5539
45.1675
37.3482
39.1155
40.5348
41.3632
43.5509
37.3352
35.5661
36.4673
37.5234
34.4275
34.8113
34.812
34.185
19.427
16.9679
16.6463
17.6627
17.3875
17.8286