/*--------------------------------*- C++ -*----------------------------------*\
| =========                 |                                                 |
| \\      /  F ield         | OpenFOAM: The Open Source CFD Toolbox           |
|  \\    /   O peration     | Version:  v2012                                 |
|   \\  /    A nd           | Website:  www.openfoam.com                      |
|    \\/     M anipulation  |                                                 |
\*---------------------------------------------------------------------------*/
FoamFile
{
    version     2.0;
    format      ascii;
    class       volScalarField;
    location    "2";
    object      p;
}
// * * * * * * * * * * * * * * * * * * * * * * * * * * * * * * * * * * * * * //

dimensions      [1 -1 -2 0 0 0 0];


internalField   nonuniform List<scalar> 
13611
(
116603
130587
97392.5
132799
10971.6
4655.86
99889.1
86981.5
98174.8
128824
2299.99
82249.4
17323.9
66493.3
28243.2
88997.8
2300.09
2558.27
40897.6
71528.3
52464.5
2676.76
2307.38
3844.41
2300
67990.7
17333
105527
60921.5
53686
2300.14
2300.02
2300.88
2300.91
47967.9
38410.3
111535
58763
23752.1
2317.57
2300
23477
2313.76
58052.2
41691.1
107508
81669.8
50568.6
5172.53
36534.1
2318.53
2406.51
112802
2370.28
6152.9
80015.5
73119.6
98559.9
77159.1
64973.1
17655.6
27275.2
5963.74
16545.6
38580.4
51729.6
50727.6
19416.1
13737.2
53570.1
72583.8
91796.1
84049.3
70306.8
21387.7
31827.7
9830.15
17178.6
13254.9
40394.2
38549.6
15126.7
28873.3
14638.4
61062.8
82200.7
77355.5
80370.5
74382.7
27715.4
30475.7
19629.1
23421.4
20641.9
32082.1
33054.5
28707.3
25956.3
28976.1
22083
54632.8
80881.2
74625.1
82935.1
78810.5
29134.2
31450.7
24474.1
29454.3
24693
31874.4
33356.6
31819.2
29647.8
28668.2
36067.2
28719.3
44135.4
59631.9
79031.3
76993.5
67156.7
82274.1
82309.3
79591.4
30809.1
33380.4
29335.5
31419.5
28536.4
33922.7
33268.6
32410.6
29958.3
35112.1
49061.6
55910.4
79894.6
76409.4
67211.7
84684.3
81721
80267.2
32624.7
34898.9
33549.9
32326.9
33821.5
31738.4
33848.5
34636.8
34957.4
34739.6
34577
40180.9
48769.2
58497.8
79469.8
78459.7
73575.6
63074.2
69959.3
86383.3
84278.9
80940.9
35016.1
35927.5
35020.2
33939.4
34417.1
34493.6
33810.5
34912.3
35156.4
37422.2
37230.1
38463.3
45323.1
40778.6
53310.4
56900
80924.5
78562.4
74386.6
64225.5
69579.3
87378.7
83896.3
36693.6
35867.7
36929.3
35366.5
36509.7
36065.5
37251.5
36849.2
35301.4
35281.7
39728.5
39612.8
48497.4
44903.2
52643.7
59600.3
81591
80367
76594.2
72373.4
67426.5
62599.3
86347.4
87822.9
83180
37205.1
36606.8
37619.3
36150.6
38271.8
36970.4
39525.3
38664.7
35694.3
35363.4
42041.7
42105.4
48004.6
45752
54650.8
60597.7
81526.9
80572.6
77395.2
72899.4
67255.6
64523.3
86043.8
87751.8
83811.8
38285.3
37315.9
36629.7
38405.6
36059.1
39727.6
38433
41837.7
40641.8
35503.7
43836
44613.2
50866.1
48659.8
57335.4
53598.9
59716.8
63871.5
83133.7
81712.9
79221.4
76572.3
74910.4
71242.6
68850.6
87265.4
85013.9
88184.6
39117.2
37595
37023.2
38579.4
39020.3
36106.7
39582.1
41219.4
43801.7
41973.3
41694.5
35347.3
46203.3
46731.1
50774.1
48816.7
58596.7
55494.5
61700.2
65671.6
83745.2
83213.3
81414
80027.1
77901.2
75507.5
72471.6
68157.5
86752.1
85655
87616.3
40256.2
38104.8
36956.8
39190.9
39713.4
36403.2
35603
40567.8
42167.2
45664.7
43589
43148.7
34913.7
34591.6
47229.4
52930.4
50798.5
60794.4
57770.7
55108.5
63776.5
65418.7
85412
84177.7
82455
79468.2
77378.2
74547.2
71769.7
69805
87401.6
88871.7
40863.5
38016.1
37349.9
39135.5
40465.1
36005.3
35206.1
41737.7
43489.1
45973.8
45067.9
44022.2
34683.9
33776.6
48948.9
52910.3
50946.1
62045.9
59331.5
56903.6
64840.6
67240.1
85840.6
83800.1
85549.8
82130
80593.4
78567.7
75209.8
73464.8
69263.8
88090.9
87498.8
89156.9
41893.7
38414.1
36917.4
39579.1
40818.5
35327.6
36283.8
34973.7
42416.9
44156.7
47752.8
45994.5
45405.3
33999.7
33379.1
49036.5
50197.8
54613
52519.6
64102.1
61416.9
58942.7
56500.6
66808.3
87172.2
84855.7
86468.9
83140.4
80324.2
78279.9
76711.5
73577.2
70550.4
88002.6
89121.8
89276
42231.5
38206
36961.4
40305.5
38871.5
41657.4
34918.9
35705.6
33932.9
43560.2
45392
47489.8
46111.3
32375.7
50739.1
51666.9
55023.1
54071.6
65365.5
62816.3
60571.7
57523.4
67989.7
87529.4
86052.2
84515.2
87311.8
86768.8
83019
81655.9
79444.3
77251.8
75138
72228.6
69791.2
88500.1
89728.7
90065.2
89158.5
120244
115636
43217.6
37509.8
35971.1
40444.6
38843.2
41985.1
34057.3
33116.2
44000.3
45850
48247.3
47441.2
31681
31853.4
52107.3
50799.3
56628.2
54675.6
67303.9
64711.9
62415.7
60440.5
59037.6
88530.8
86887
85456
88175.4
87874.3
84209.9
81789
78817.6
80813.2
76572.8
74844.5
73217.3
70950.5
90356.6
90257.4
89606.9
118924
120732
122966
116692
115068
43046
37197.9
35479.3
39664.9
41331.2
37900.1
33187
33773.5
32105.3
45056.1
47047.2
49576.9
47902
30672.2
53654.3
51879.9
57535.6
56143.7
68500.7
65875.2
63856.4
62036.1
59094.9
89030.5
87959
86600.2
85357.9
88958.1
88390.4
84161.2
83081
79568
81511.2
77796.1
75947.1
72656.9
70362.9
90190.5
90781.6
90064
89755.5
118331
121963
119824
122784
117314
115369
43609.1
36083.2
34354.1
39549.5
41379
37703
32014.9
32347
30882.2
45388.7
47296.3
50052.3
49214.8
30171.3
29956.6
54520.9
51241
53152.9
57410.2
56133
67740.8
65444.8
63639.9
61757.3
60207.6
88667.2
87361.7
86430.4
89724.4
89316
85058.4
83442.7
80871.6
79136.5
82795.2
77485.8
75561.7
73891.6
71650.2
90295.9
90590.7
90724.2
90339.5
118661
122205
120344
124511
123842
125872
116675
114763
44738.3
43047.5
35478.6
33650.2
38552
40377.2
42140.8
36759.1
30708.6
31680.6
46518.3
48417.9
49459.1
28545.3
28955.3
28760.4
54264.5
51932.6
53244.3
58824.1
57350.7
68371.4
66869.2
65160.4
62654.9
60116.4
89607
88744.5
88184.9
87255.7
86715.8
90343.7
89865.9
86109.6
84634.3
81479.4
80405
83481.1
78742.4
76771.7
73439.3
71467.8
90980.1
91998.2
90607.7
91151.1
90601
117899
121531
123355
119765
125409
124125
126772
117039
115406
45158.5
43454.1
34261.9
35856.7
32367.1
38087.7
40253.7
41894.7
36937.5
29226.8
30319.7
46926.6
48165.7
50540.6
28287.7
27712.4
55746.2
51651.7
54260.4
58788.8
57192.8
69952
66840.6
65205.7
61521.4
64031
90396
89700.8
88664.3
88209.2
87909.7
91054.6
90790.2
86837.6
85192.3
82825
80359.6
84711.8
78402.3
76356
74718.5
72974.8
91573
92091.9
91264.7
91546.9
91308.2
117707
122148
123290
120607
118481
125745
125135
127246
116158
115084
46296.9
44380.1
42690.6
33764.8
34796
31425
38357.2
41163.1
39330.2
36030.7
27769.8
29191.2
30050.2
48738.2
50713.3
26381.6
26864.1
26266.4
55617.9
52597.2
53897.8
60100
58603.1
69997.1
68375.6
66724.1
61562.5
64789.9
91151.1
90431
89532.1
88586.9
88255.5
91720.2
91317.8
86382.8
87762.5
83717.3
81703.1
85479.9
79682.8
77510.6
74412.1
73366
91504.3
91708.2
91789.4
91929.9
92011.4
116497
121809
124098
120456
118013
126723
125575
128713
128202
114684
46752.1
44380.8
42538.5
32644.6
34892.8
31592.2
37393.5
41391.8
39099.6
36201.5
26066.3
27418
28798.6
49958.5
47988.5
52006.4
25005.8
24820.9
56807.2
54659.6
60091.1
58367.8
71413.5
68223.7
66405
62838.3
64304.2
91917.4
91230.4
90074.2
89570.1
88974.6
92354
92207.3
86884.5
88448.4
85193.8
83283.7
81401.3
86492.2
79157.3
77028.4
75627.2
75036.8
72850.5
91200.8
91466
92370.3
92244.8
92512.1
116154
122710
125160
123800
119547
121455
116777
118413
127174
126673
129769
128665
113920
115367
46242
45183.7
43238.1
32476
33609
30257.3
37768.4
40932.4
39814.6
35155.7
26049.1
24673.3
27414.4
28841.4
50318.2
48269.6
52543.6
23617.9
23511.9
56700.3
55846.8
53895.2
61500.8
59441.8
71194.4
69593.1
67396.6
62805.3
65310
92598.6
91933
91402.4
90919
90063.9
89747.6
89113.4
93020.4
92741.9
87791.6
88534.3
86276.9
84663.9
82989.5
87384
80260.8
78065.6
75550.5
74234.4
92047.7
91395
92678.2
92747.3
92443.2
92731.7
93039.9
122385
125843
124569
119912
121527
116011
117857
128156
127238
130080
129564
114294
115031
47144.5
44721.6
42801.7
30805
33663.1
36843.9
41610
39578.4
35400.4
24083.2
23149.8
25774.6
27382.7
51619.1
49364.3
22249.7
21694
57786.9
56450.4
54488.6
61668.5
60772.5
58935.9
72637.5
69091.9
66776.5
64338.2
93311
92677.3
92352.2
91463.2
91107.2
90263.4
89824.7
93697.6
93501.6
88267.6
88047
89287.8
87445.2
86118.4
84782
82349.5
79566.8
78019.6
76994.3
74266.3
91723.7
90691
92723.7
93147.6
92725.4
93416.7
93591.6
123070
125553
126858
124613
120815
119252
122437
116244
115311
116962
118405
128568
128205
131686
130995
130003
113943
46890.3
45492.6
43471.3
29933.2
32465.5
37099.4
40880.8
38476.3
34344.8
24088.3
22788.3
21703
25825.4
26968.7
51806.9
49581.2
20689.4
20282.6
57587.9
55904
54079.3
63150.8
61568.7
59582.6
72740.6
70014
67770
64507.4
93324.3
93892.6
92847
92651.7
92341.8
91563.3
91065.9
90107.8
94204.9
93896.4
89059.6
88822.4
89852.4
88536.5
87497.2
86946.2
83286.5
80310.4
79329.2
77520.2
75676.5
92362.1
91406.7
92972.1
93532.8
92802.9
93735.1
94090.3
123997
126210
127541
125650
121077
119202
122756
115769
115052
116628
117917
129541
128919
131830
130933
114028
47769.6
44921.5
42763.8
30818.9
27960.8
32969.5
35664.1
41320.6
38700
34413.4
22284.8
20996.9
20274
24263.3
24923.7
50742.7
52933.1
48885.3
19493.7
18454.1
58592.1
56427
55229.5
62988.8
60897.7
74388.9
71577.5
69324.3
67299.5
65838.7
94063.1
94565.3
93710.1
93444.1
92984.9
92433.9
91350.4
90852.5
94895.6
94593.9
89279.3
89229.7
90456.1
88927.6
89240.7
88305.8
81628.9
85243.7
79561.9
78869.7
76997.8
75723.9
92337.4
90555.3
93537.5
93732
93308.8
94362.7
94579.8
124350
127179
128656
125917
120541
122104
119702
118370
123737
115083
115922
114599
117036
129897
132877
131688
113487
47616.9
45466.2
43441.5
29729
27061.2
32047.3
35912.4
40237.8
37454.2
32947.3
22514.5
20431.4
19942.2
18686.2
23942.1
50612.5
52643.4
49496.1
16962.3
17904.3
17837.8
17284.2
58825
57732.4
55027.8
64106.8
61395.4
74678.6
71933.1
70474.9
68399.9
65599.5
94720
95006.8
94971.4
93975.6
93656.5
93057.7
92751.3
92090.9
91050.7
95146.7
95139.2
90004.4
89822
90516.4
90645.3
90200.3
91264.5
87514.5
82263.1
84933.3
80411.7
79396.2
78241.7
77109.4
92791.5
92645.2
93647.8
94168.9
93265.2
93713.2
94661.6
94460.5
125262
127866
129359
126827
120905
122260
119278
117998
124121
114461
115501
114224
116699
130746
134042
132770
133932
131637
113378
48864.3
46707.6
44340.3
43067
30534.8
27993.8
25066.3
34488.5
40495.2
37611.5
32377.3
21042.4
18824.5
17919.8
17436.8
21953.3
51388.1
53580.5
15334.8
15734.1
15678
60277.5
58172.7
55993.8
63969
62737.2
76424.5
73345.2
70027.1
68094.3
66787.3
95550.1
95816.8
95565.3
95019.9
94327.2
93889.1
93471.9
92560.9
92271.2
91750.1
95634.9
95778.2
90135.7
90104.6
91160.3
91213
90290.6
94132.9
90306.7
80927.7
87570.6
81381.8
80758.2
78321.6
77544.2
93063.9
94478.2
94253
94438.5
93390.7
94012.7
95179.5
94916.3
125695
127669
128935
130469
126659
121673
120390
123038
119632
118491
117188
123768
125165
114413
115281
114761
113859
115878
131003
133693
134902
132489
112937
49451.3
47006.9
44415.9
41870.6
29658.9
27135.8
24425.8
34821.2
32987.1
39092.1
36304
30623.1
19220.5
20891.4
16939.2
16518.3
15493.5
21022
50905.7
53208.1
14642.9
14781.6
60572.5
59616.9
57373.1
55393.9
65343.7
62982.7
76713.9
73767
70636
69285.7
66644.7
96089.9
95584.2
95975.8
96241.2
95906
94889.8
94405.3
94050.7
93780.2
93220.6
93000.9
91770.6
95625.5
96199.1
96382.2
90634.6
90316.1
91111.9
92909.5
90513
94461.5
95516.6
80476.8
87935.6
82940.9
81180.5
79658.2
79176.2
93007
93326.9
94477.6
94899.9
93764.5
94356.4
95275.3
128508
129564
131012
127359
122030
120397
122828
119237
118117
116870
124418
125307
114115
114407
114139
113553
115576
132103
136072
133489
134779
135976
112496
112832
48554
45833
43181.2
41853.7
27980.9
25562.1
22796.7
33814.2
31674.8
39333.4
36203
30259.7
17972.9
18933.1
15276.7
14794.5
14292.2
21471.7
19251.8
51779.2
54106.4
11973.5
13163.6
13092.7
61934.4
60103.6
58022.5
56025
65256.3
64174
78095.5
75398.4
73059
71852.3
69211.7
67880.5
96771.8
96443.8
96654.1
97011.3
96571.8
95505.9
95443.5
94813
94260
93468.2
93220.6
92254.4
95975.8
96430.4
96485.5
96902.8
90045.8
91589.6
91516.2
89699.9
99306.3
98673.3
80597.4
82862.2
97016.8
85453.5
82755.8
80153.3
92780.1
96051.3
94849.1
95259.8
94000.5
94453.4
95715.1
128402
129357
130530
132096
127107
121744
119642
120946
123310
118592
117391
116097
124162
126086
113738
114137
113673
113136
114946
132664
137215
134344
135638
136972
112158
112888
49094.6
45848.3
43137.5
40685.1
27020.8
24781.9
23157.3
32341.4
34602.8
31493.5
38469.6
37177.5
29082.9
15930.4
18258.8
13472.4
13414.9
12680.6
19791.6
18486.8
51519.7
53809.2
12052.8
11744.5
62248.2
61408.4
59340.5
57294.6
55001.3
66376.3
64469.8
78130.2
79531.5
75587.6
74243.4
71725.1
70430.1
67674.3
97415.7
96767.4
97144.3
97674.8
96981.5
96216.4
95718.6
95545.7
94933.5
94106.7
94093.6
92891.1
92185.7
96091.1
96910.2
97299.2
97428.6
90604
91388
90654.3
88980.8
101221
97746.4
77917
81844.3
99655.8
89251.6
84596.3
82075.7
93939.5
98734.6
94484.3
95137.3
94837.3
95599.1
94260.8
95912.5
129280
130166
130911
132607
127741
122357
119329
120584
123134
118127
117360
115716
124563
125998
113340
114493
113472
113051
114666
133859
139560
138261
135436
136748
138135
111556
112700
50472.4
48378.9
47085.1
44396.3
41691.9
40573.1
25310
27568.4
22047.5
31500.7
33901.3
29668.1
39237.3
37001.8
15115.3
16518.1
11786.9
12087.4
11602.4
20119.6
17148.2
52682.4
10458.6
9549.48
10147.8
63572
62091.8
59899.5
57960.4
55305.5
65806.3
76929.2
79568.8
80632.2
74268
72954.8
70280.3
68847.4
97997.4
96657.7
97421.6
97876.3
98202.4
97698.6
96872.2
96356.1
95867.2
95239.5
94481.6
94637.6
93266.1
92567.2
96485.8
97399
96935.2
97515.6
97968.3
89783.2
92299.7
88907.7
90178.6
88772.5
103135
73773.7
87523.4
122822
88875.2
92508.2
86003.8
83184.3
94035.6
97601.4
95173.3
95496.2
95049.5
95858
94574.6
96246.8
130225
129351
131882
133635
128651
127411
122023
119777
118497
121106
123810
116864
116094
114965
125300
126696
113002
113880
113341
112945
112710
114011
134339
140722
139318
136248
137640
139183
112350
112598
50700.9
49552.6
46884.5
44322.7
41635
24145.5
26351.5
22520.5
29816.2
32275.9
34578.9
28908.1
38512.4
36017.9
13494.6
16194.6
10377.8
11269.6
10681.5
9888.28
19426.3
15940.7
52072.3
8247.11
8630.08
63500.2
61382.3
59292.3
57001
54216.3
66586.2
77017.1
79862.1
82245.9
75673.9
72990.2
71589.8
68315.8
98298.3
97694.8
98515.3
98481.4
98590.1
98666.1
97617.8
96726.9
96927.6
95684.9
95284.9
95249.2
94062.6
95066.4
92878.3
96585
97949.8
97326.7
98115.4
98362.7
92036.5
92318.8
86987.7
72481.8
88810.5
103808
68538.9
84147.7
113881
90754.7
98519.5
85039.8
94604.1
94083.9
95313.5
95376.6
95366.1
95795
95103.2
96257.9
131176
130352
132103
134265
128785
128010
122503
119347
118190
120829
123942
117016
115773
114435
125515
126355
112813
112379
112302
113546
135507
141239
140381
137327
136298
138922
140428
112472
112610
112007
49375.6
48032.5
45607.9
43061.5
40298.4
24603.2
27114
21115.3
29104.6
31422.4
33752.1
38866.9
36324
11988.5
13716.5
15043.3
8946.4
9360.47
9641.37
8698.59
17928.7
15587.8
52616.3
8002.28
7280.19
7454.69
64495
61638.8
60183.3
57288.3
54715.3
65971.3
78498
81503.6
82881
75790.6
74412.2
71673.2
69035
98957.6
98875
98789.6
99226.2
99606.8
98082.1
97511.9
97435.5
96567.7
96241.8
95825.6
94359.7
95512.8
92992.6
96973.5
98502.1
97812
97344.8
98592.8
98823.6
92690.9
92739.3
84453.4
47380.4
90730.8
33958.1
74248.7
93744.6
147526
88396.9
96387.5
101057
86189.7
95352.2
94468
95260.9
95713.3
96077
95224.6
96547.2
131242
130411
133010
135450
133961
129557
127886
123326
122153
119481
118638
117558
121435
120060
124905
116319
115167
114569
113738
126914
112858
112222
112030
112009
142770
142417
138005
137375
139685
141481
112553
112175
111831
50296.4
48060
45631
43151.9
40574.9
23329.1
26417.9
21449.4
29906.8
27559.1
32198
34909.1
37672.9
10675.8
12337.4
8558.41
7485.12
8550.77
7859.37
7357.98
16461.3
17763.3
13771.2
51667
6860.85
5799.77
6229.68
64637.8
62627.7
60400.8
56120.8
58478.7
53785.3
66952.4
78597.9
81516.6
84668.2
77224.5
74555.1
73177.4
70475.9
68234.2
100007
99417.1
99133.1
99375.3
99708.5
99803.9
99351.4
97834.8
97495.8
97589.4
96602.4
97395.2
96021.9
95215.5
93626.8
96626.6
97179.8
98853
98075.5
97803.8
99113.4
99423.7
94789.9
93648.8
91745.2
79510.9
93072.2
33979.2
77402.1
68800.3
73992.8
136928
88814.3
95024.7
94739.3
95784
94787.9
95524.6
95101.7
95498.9
95818.5
96159.3
96418.7
96870.3
132262
131259
133076
136313
134711
129548
128634
123504
122760
118715
118328
117639
121195
119826
125045
116165
115054
113873
113255
126734
112409
111668
111389
111623
143787
143158
139085
137812
140930
142690
141619
112229
111875
111511
49430.4
46923.9
44435.7
41969.5
39377.3
23360.1
24664.7
20455.5
28861.8
27321.3
31077.3
35075.1
37960.2
10908
9263.83
12386.9
7216.49
6299.88
7113.06
6289.69
15012.2
18927.6
16116.6
13658.2
52338.1
5537.03
5554.25
66164.8
63925.1
61955.3
59736.6
56637.3
58040.3
54384.2
80011
82800.5
84951.8
77322.3
76050.3
73442.6
70413
69008.5
100246
100665
99759.9
99909.1
100773
100863
98752.6
98842.7
98875.2
98233.3
96827.9
97015.1
96708.2
95707
93363.5
97203.9
96947.4
97580.7
98584.9
99232
97907.4
99401.7
99903.5
94115.1
94572.4
89480.2
71463.8
91709.7
13850.3
70118.1
40096.4
117842
86559.1
91183.9
98800.3
61027.9
95342.3
95348.8
95717.6
95178.8
95613.5
96116.4
96334.7
96681
97145.9
132204
131348
134080
137403
135835
130474
128386
124247
122690
118588
117205
121826
120385
119136
125867
115554
116562
114509
113936
113366
112639
127449
111776
111135
111465
111232
110993
145015
144621
139638
139016
141478
143498
142871
112948
111792
111847
111306
50020.3
46853.9
44448.1
42094.2
39578.3
21497.6
24408.7
29194.9
25973.3
31444.6
33897.7
36781.2
9413.11
8383.82
10750.9
6575.37
5364.62
6502.9
4903.33
14944.7
18305.3
16492.8
12402.2
51575.9
3772.26
4043.81
66874.6
64721.7
62545.1
60673.7
55818.4
58901.2
53727.5
79999.5
82554.2
84090.9
78692
76194.6
74983.6
72640.5
71312.5
68412.4
100849
100408
100273
100568
101074
101175
101110
99454.9
99405.4
98679.7
99806.6
96904.4
97861.6
96732
95165.4
94290.3
97107
97298.3
97755.9
98881.5
99738.3
99390.2
98347.1
100129
100263
93155.6
93295.2
97994.9
176451
92337.7
27767.5
128653
54305.7
85869.7
88245.7
86563.6
72779
94984.3
95505.3
101284
94145.8
95453.2
95756.3
96110.9
96569.3
96778.4
97404.2
133034
132391
134513
138335
136366
130446
128838
124258
123435
118011
117407
121731
119955
118792
125797
115544
116107
114469
113506
112721
112321
127340
111336
110536
110749
110784
110344
145866
145422
145183
140835
139342
142765
144585
143446
113147
111610
111371
110826
49311.9
45546.8
47907.1
43312.7
40896.7
38529.3
20873.2
22935
27750.7
26066.9
30521
32588.3
34555.6
37164.3
9316.04
7333.34
10897.9
5402.51
4622.51
4694.08
5344.93
4263.38
13128.8
19184.9
15802.9
52356.5
4136.35
4275.33
66141.6
63969.2
61965.3
60306.8
56088.9
58453
54708.3
81272.3
83543.6
84789.1
78887.3
77626.3
75016.7
73615.1
70675.2
69215.2
101241
100193
100574
101657
101827
101811
100368
99052.2
98602.2
100465
97546.7
97765.2
96191.3
95950.3
93834.2
98138.2
97645.4
98240.8
97761.1
98766.9
100404
99925.9
100848
101386
93026.2
93321.2
93968.9
114694
177031
136558
84582.9
113693
79062.3
85824.5
90079
65134.8
108900
95555
94922.9
96841.8
93299.9
95414.8
95757.6
96239.3
96783
97120.5
97523.8
134015
132749
135640
138429
137525
129618
131272
128112
125009
123433
118121
116919
122575
121025
119100
120252
126573
114971
116262
113842
112890
112514
111692
110622
109970
110354
110279
110599
109877
147074
147005
146416
141304
140464
143341
145290
144794
111900
111555
111307
110705
50100.6
45094.9
47802.8
43647.4
40642.5
39093.1
21486.2
23114.9
27852
24670.5
31685.1
29231.8
33502.9
36094.2
7855.94
6324.95
9714.02
4851.07
3950.4
2691.47
5215.25
3107.1
12303.8
18630.6
17140.3
14343.3
51562
3007.71
3835.51
66933.9
64258
62957.3
61364.2
57124.2
59223.6
54634.3
81417.3
84381.5
82899.9
80324.9
77610.9
76203.5
73127.1
71541.7
68483
102065
101541
101558
101960
102017
102225
102551
101105
100102
100133
98408.5
100579
97468.3
96686.1
95257.7
94351.2
97253.1
97910.7
97684
98361
98105.2
99088.3
100552
100719
100014
100342
101357
101542
92412.7
92541.1
97121.7
146899
93579.2
76049.6
97846.5
85377.8
84442.4
75131.6
104549
95428.1
95499.5
92734.9
93136.4
95487.6
95823.2
96405.8
97160.2
96785.1
97917.8
134870
133932
132156
135903
139719
137761
129824
130746
128141
124967
124244
117593
117011
122437
120937
118591
119675
126512
114871
115955
113709
112440
111872
111462
110208
109447
109614
109773
110040
109255
147834
147431
146459
142554
140767
144795
145573
111151
112066
111651
110900
110194
49164.3
45467.9
46720.5
43045.2
41651.2
38299.6
19943
21756.4
26318
24864.9
31915.9
28984.2
34109.6
36649.8
6514.12
8248.61
9517.63
3716.08
3260.35
3293.96
4739.63
2517.71
12945.8
10500.1
16376.6
14577.3
52118.2
3384.78
4245.23
2315.11
66625.1
65432
62717.5
61490
57066.1
58250.6
60563.1
55977.5
53511.7
84352.7
83032.7
80685.7
78675.2
76272.7
73816.4
71391.5
68957.6
102506
101973
101643
102568
102663
102782
103132
101237
100290
100929
98374.5
101318
95670.1
94613.7
93537.7
98771.4
96778.8
96562.8
98836.7
98309.8
99554.2
101303
101334
100545
100832
101776
102195
92130.7
91047.2
89693.6
111226
99817.7
86770
81855.7
108712
86704
75905.9
90469.9
115454
95862.1
95785.2
93467.1
90860.1
92599.6
95709.1
96089.6
96313.8
97548.2
97034
97923.1
134893
133947
132865
136908
139817
138799
129068
131254
127303
125721
124540
117763
116381
121558
123030
120067
118903
115338
114206
113172
112627
111797
111586
110939
109525
110413
108800
109221
109289
109896
108745
149173
148888
147427
142986
142069
145198
147040
112923
112301
111389
110887
109887
49459.3
44187.7
47011.1
41405
38775.8
20052.2
21987.5
26218.2
23504
30551
27535.6
33399.5
35754.6
5047.02
6779.64
7976.38
3953.22
3076.08
3315.2
2528.55
4115.77
2916.68
11362.8
9834.29
16981
13323.4
50936.6
3871.59
3576.68
3296.46
67796.4
65137.3
63726.5
62981.6
58678.5
61023.2
55629
54070.4
85109.3
82074.2
83886.8
79925.4
78746.8
75194.5
77720.5
72648.1
70248.2
102959
102542
102442
102967
102947
103118
103285
103650
101339
99435.7
100464
101261
98779.7
95315.8
93807.3
91931.6
97670.2
97412.6
96805.7
96316.7
99119.6
98750.2
99984.5
101560
101705
100801
101273
102321
102900
102514
91186
90056.9
94552.8
82406.7
83404.5
76850.3
85858
81890.6
92158.8
106229
96050.8
95725.7
91752.5
91230.7
95149.8
96307.7
97615.7
97059.4
97472.8
98315.8
136123
134910
132470
137120
140758
139092
129074
130835
127254
125556
124005
117264
116149
121733
122688
119568
118287
115067
114080
113123
112154
111375
110999
109161
109927
108148
108584
108788
109442
108056
149713
150195
150208
148808
144204
142543
146517
148086
112448
111296
111560
110471
110052
109478
48374.3
43993.5
46182.9
42648.8
40154.7
37784.6
18686.3
20706.3
24976.1
23612.8
30783.5
27017
32127.8
34220.1
36422.5
5935.45
4105.98
7311.21
2480.35
2852.65
2841.56
2807.47
3549.64
3338.71
2726.57
11459
8537.96
15664.9
13858.8
51108
2305.29
4187.12
68238.7
66127.7
63408.3
58476.5
60067.8
62369.7
56154.3
53733.7
86431.4
84610.6
82459.8
84355.3
80521.8
79810.3
75486.2
77856.3
73060.7
69869.2
103058
103708
102674
102753
103665
103607
103890
103719
104047
102245
100424
99342.6
100824
102123
95533.1
94468.3
91665.8
96184.6
97597.8
96165
98019.6
96820.5
99689.6
99006.3
100415
102083
102228
101242
101609
102784
103353
103041
90332.1
87633.3
87773.7
78542.5
81490.7
79515.5
76290.4
84317.6
86442.2
102279
94598
95739
95398.4
91685.1
93823.9
95230.8
96679.4
96068.6
98086.8
97348.4
97790.2
98766.7
136122
134895
133040
138295
140221
141888
129882
128099
131408
126259
124173
116514
117523
115433
121321
123202
118554
119872
114475
113540
112480
111562
110769
110626
108609
109362
110052
107595
108137
108353
108148
108705
108976
107544
151105
151460
151746
149889
144690
143957
147826
146096
149541
112874
110964
110560
109837
109077
48373.9
44973.5
47003.1
42909.4
39989.4
38509.7
19110.8
20975.9
24923.3
22471.8
29685.1
25783.9
28007.2
32024
33257.5
35573.1
5234
2922.84
5661.74
2660.67
2682.73
3000.31
2353.74
2943.23
3271.41
2844.22
10278.4
8432.12
16282.8
12611.5
52472.9
49624.7
3801.21
3853.44
4213
67590.4
65786.4
64686.3
59751.4
57489.4
62882.4
54980.2
87127.6
85745.9
83678.2
81655.6
85304.4
80528.6
74513.7
76751.5
79142.7
72706
70454.3
103610
104293
103506
103507
104095
104149
104133
104583
102362
100317
98824.9
101668
102502
96608.6
94380.1
92451.8
98232.7
97272.4
99645.3
96749.8
99868.2
99570.1
100613
102037
102338
102822
101175
101653
103332
104007
90948.5
89065.8
82324.2
84311.4
83722.7
82772.2
87308.4
89849.9
98577.3
94072.4
95905.1
95078.3
93802
93737.2
94388.4
96542
96176.1
98237.9
97792.2
97228.9
98987.4
137052
136037
134055
132358
138734
140839
142532
129815
128134
130708
126296
124793
116261
116840
115069
121593
120597
123062
118014
119087
114202
113600
112297
111091
110276
108238
108962
109611
106959
107495
107796
107731
108018
108734
106969
152079
152763
152052
153042
151262
144458
149159
146672
150722
111720
110967
110193
109353
109007
44297.5
46199.7
42341.7
41007.7
37988
17994.2
19938.2
23948.7
22762.7
30773.9
24996.4
27428
33181.5
36406.2
4520.4
4285.35
3133.76
5943.11
3091.56
2308.96
3592.78
3997.11
2400.39
3065.97
9045.3
10235.9
6726.45
15135.7
13565.9
10988.6
52568.5
49671.8
5748.36
3289.99
5394.02
68400.1
66749.3
65050.7
60472.8
57492.7
62091.1
64330.4
55067.5
88040
86928
83888.9
81727.7
86283.9
80372.7
74790.5
76832.3
79001.3
71730.7
73776.6
69646.3
104203
104900
103948
103890
103661
104788
104850
104704
105050
103273
101254
99109.6
102474
102867
96409.1
93750.8
96084.7
91989.1
99497.8
98978.9
98800.5
101142
97905.9
100347
99782
102642
102957
103364
101529
102293
103869
104453
89200.4
86631.3
89354.5
85436.2
88098.8
87409.5
88879.7
95188.9
96587.4
95744.6
95664.9
95405.4
93451.5
95012.4
96850.1
96114.5
98668.1
98097.8
97502.9
99485.8
138137
136957
135652
134462
132745
140130
142033
143726
129064
127322
130953
125646
124586
115670
116702
114446
115202
120807
122221
123843
118303
117197
119361
113237
111705
112673
111179
110419
109689
108394
107663
109091
106632
106634
106926
107117
107821
108189
106642
153626
154295
153934
153663
154501
152164
145760
149138
150606
148015
152022
113499
110790
110123
109270
108453
44698.9
46749
43519.3
40555.7
39010.1
18497.5
20138.8
21628.5
30536.4
24956.4
26211.9
29042.3
31803.5
34438.3
35898.8
4696.08
4618.62
4392.76
5036.04
2725.15
2796.6
5482.59
6062.46
2566.24
2309.99
8064.97
9006.13
6943.98
15957.4
12657
10019.1
51267.8
53936.9
48373.6
4297.54
9634.27
2740.03
2301.36
67878.8
66308.3
59927.8
58584.8
56263.3
62866.5
65014.3
89114.5
87955.7
85013.7
82753.9
86145.5
87625.3
81698.2
75865.2
77861.9
79979.7
71532.5
74073.4
70320.1
104752
105473
104618
104620
104372
105045
105137
105460
105206
105754
103423
102406
102510
98813.8
95529.4
97513.4
93357.1
100644
100649
102029
100716
102425
100693
100230
102604
103063
103490
103980
101955
101155
102361
104436
105007
92696.4
91440.4
92154.6
91172.6
92896.3
92400
91223.9
95413.6
96474.7
95402.7
94247.3
93153
93911.4
94745.8
96838.5
96068.6
98845.6
97896.1
98551.6
97279.8
99717.4
138734
137971
136116
133848
131982
140534
142986
144123
129092
127450
130047
126015
125323
115426
115837
114300
114672
120387
122366
123384
117573
116952
118761
113449
111798
112377
110451
110011
109115
108137
107216
108592
106005
105904
106408
106667
106826
107142
108027
105922
154727
155358
153565
154804
155625
146082
150449
152013
148239
153271
112056
110481
110460
109589
108778
108363
45700.7
43230.2
41616.5
38543.1
17460.5
18749.1
21409.8
24134.2
26505.2
29017.9
31334.1
34253.4
37073.6
4730.61
5683.11
7933.92
3052.35
6153.67
4232.14
2517.44
2720.79
3353.88
9973.15
3726.81
2327.49
3065.98
8171.71
6742.48
15117.5
10909.3
13588.5
8735
51257.7
54635.6
48580.8
3809.21
2300.37
2300.19
68647.3
67147.4
60862.8
58315.4
56051.3
62225.5
64309
66530.6
89105.3
90421.6
84963.5
82842.3
87440.4
88672.2
81433.6
76176.5
77353.3
80042.7
72332.3
73504
75397.5
69847.4
105390
106049
104967
104837
104562
105643
105716
105572
105903
105826
106210
104099
102943
102504
103437
100686
97437
95713.7
99398
100374
101143
101893
102415
103026
100708
100539
103121
103676
103994
104583
101971
101410
102839
105007
105542
94791
94492.6
94940.7
94356.2
94399.3
96001.1
91248.5
93904.5
96620.7
95584.4
94185.9
93004.2
94548.7
95358.9
96603.6
96034.3
99380.2
98120.2
98799.4
97434.6
100143
139724
138441
135348
137214
134303
132354
141685
142868
145200
128289
126771
130171
125688
114730
115598
113907
114510
120790
121783
123644
117273
116231
117728
119218
113074
111595
112586
110043
110382
109462
109067
108584
107597
107159
106614
105642
105474
105716
106979
107414
156298
156828
156579
154300
156350
156922
147270
150544
151852
153411
149505
112838
110422
110740
109699
108533
107806
46242.9
44175.6
41130.4
39629.7
18433.2
22863.4
19765.1
25251.6
27654.4
29861.7
31977.9
33190
35457.5
36683.1
4374.65
5688.9
15647.6
4326.42
6173.24
4089.36
2674.13
2307.62
2301
2302.47
2880.69
2544.25
7011.09
6954.98
15477.5
9778.67
12483.9
8171.79
49863
52455.3
54046
47502
2304.69
2479.46
2299.98
68354.1
60296.3
59109.5
56998
63019.2
65040.5
67186.4
90533.1
91349.2
83939.2
86014.4
87202.6
88573.9
90242.8
82122.8
77870.4
79164.5
81176.3
71699.5
74512.1
75588.4
70468.4
105209
105975
105997
106241
106534
106330
104597
103496
102982
104245
100806
99596.1
98051
100615
102886
103254
104334
104438
101189
100964
103750
103238
104178
104606
105058
102411
102778
105594
98336
97392.5
97299.5
99104.3
99775.5
100183
92963.2
94949.6
97544.8
93085.5
93584
94579.3
95259.4
96719.8
96056.7
99575.1
97895.9
98539.6
99322.8
97181.4
100365
140280
138162
139748
135836
136974
133562
132046
141458
144028
145856
128008
127074
129163
131161
126695
125309
114356
114869
114034
120174
122178
124454
123008
116221
117137
118795
113323
112125
111007
109500
109635
108405
107990
107483
106579
106185
107334
157330
157995
155849
156923
157316
158021
147215
151903
152816
154908
149706
112240
110836
110751
109286
108793
107923
45585.4
43536.6
42112.2
39219.3
16749
22603
19176.1
24803
27181.8
29200.3
31179.1
33705.1
35131.6
37833.5
2303.09
8807.22
7947.95
2303.24
7982.81
5308.98
2305.19
2535.14
2329.29
2541.17
2300.37
2301.82
6317.95
13992.6
8319.72
11144.7
6710.3
49769.3
52184.4
54630.9
47399.8
2300.04
2300.4
2300.03
69516.8
60938.8
58499.4
57204.5
64413.3
62331.6
66386.6
68513.6
92367.3
84665.4
85809.2
87824.4
89761.6
90861.2
83215.7
76867.2
79806.3
81703.3
72395.1
74668.9
105260
106589
106599
106704
106892