/*--------------------------------*- C++ -*----------------------------------*\
| =========                 |                                                 |
| \\      /  F ield         | OpenFOAM: The Open Source CFD Toolbox           |
|  \\    /   O peration     | Version:  v2012                                 |
|   \\  /    A nd           | Website:  www.openfoam.com                      |
|    \\/     M anipulation  |                                                 |
\*---------------------------------------------------------------------------*/
FoamFile
{
    version     2.0;
    format      ascii;
    class       volScalarField;
    location    "2";
    object      p_rgh;
}
// * * * * * * * * * * * * * * * * * * * * * * * * * * * * * * * * * * * * * //

dimensions      [1 -1 -2 0 0 0 0];


internalField   nonuniform List<scalar> 
13611
(
125801
139194
106927
141118
18802.9
11576.4
108368
96303.6
104111
136313
8946.93
91106.2
25254.7
76076.9
34136.1
96503
8520.21
9559.91
49704.8
79436.9
61737
8109.11
7835.49
9782.83
8393.06
74755.6
25739.9
113023
70406.3
58875.4
7691.83
7895.25
8024.77
8588.16
54949.2
46690.9
119249
68045.8
28744.4
7414.49
7807.61
29146.7
8319.95
64660.2
50137.5
115093
91263.7
59404.5
10101.9
41307.4
7319.48
7615.76
118243
8310.87
12286.5
86715.3
81135.6
105701
86498.4
73865.5
22306.3
31855
10721.6
21634.7
42953.8
57119.9
55921.7
24969.8
19621.6
59817.8
80623.3
98900.2
93590.7
78833.1
25878.2
36229
14518.8
21726.8
18066.6
45520.1
43567.9
20521.9
34780.1
20171.2
67277.7
89772.6
83985.6
89535
82979.1
31925.2
34704.5
24091.3
27795.3
25335.5
36165.8
38040.7
33502.5
31048.3
34572.3
27474.4
60465.6
88510.5
81081.8
92076.5
86977.3
33258
35504.3
28815
33614.3
29142.3
35790.5
37128.7
36536.6
34282
33602.5
41484.1
33832.9
49627.4
65386.9
86282.5
83719.5
73120.5
91792.3
90929.1
87804.7
34720.1
37203.6
33480.4
35471.8
32944.1
37516.9
37853.5
37106.7
34893.1
40203.9
54313.1
61310.7
87327.6
82878.6
72938
93929.4
90144.8
88124.8
36365.4
38607.2
37246.1
36327.1
37686.1
35983.9
37416.5
38086.2
39312.5
39330.8
39286.1
45036.6
53759
63736
86666.9
85218.2
79617.3
68429.6
75719.2
95906.1
92951.1
88909.9
38750.3
39447.5
38505.6
37893.4
38249.4
38720.5
37855.3
38298.7
38437.9
41699.2
41632.1
43021.3
50153.7
45367.2
58116.8
61805.9
88495
85057.1
80199.5
69386.9
74983.8
96645.5
92325.1
40236.9
39291.8
40359.7
38715
40257.3
39752.6
41262.6
40761.4
38546.4
38440.3
43805.7
43964.1
53074.8
49270.1
57210.9
64380.3
89132.7
87008.7
82570.9
77792.8
72603.3
67517.5
95093
97362.8
91120.7
40733.6
39869
40891.3
39312
41931.7
40619.1
43464.7
42398.4
38770.9
38356.7
46051.7
46264.5
52385.5
49905.1
59007.6
65141.6
88617.3
86842
83093.2
78042.9
72174
69310.4
94562.9
97004.1
91570.2
41690.2
40515.7
39766
41576
39090.2
43216.9
41915.1
45579.5
44262.9
38451.6
47666.9
48690.4
55030.2
52632.8
61634.4
57749.1
64089.7
68443.7
90389.1
87923.8
85065.1
81883.4
80021.9
76074.5
73620.6
96018
93033.9
97692.9
42368.1
40644.5
40025.8
41591.6
42180.3
38961.8
42992.4
44617.6
47502.1
45590.7
45150.7
38157.1
49944.5
50569.6
54744.1
52604
62658.6
59434.3
65871
70095.4
90752.6
89707.5
87160.2
85591.7
82997.6
80285
77063.3
72647.8
95099.1
93534.5
96763.8
43424.5
41068.3
39820.1
42105.6
42699.6
39191.1
38365.7
43818.2
45409.5
49207.5
47039.3
46517.8
37601.2
37240.1
50792.9
56714.3
54409.2
64804.7
61680
58876
67896.9
69636.4
92782
90380.3
87960.1
84672.5
82152.5
79116.7
76101.6
74097.4
95887.5
98034.6
43883.3
40825
40105.5
41926.5
43393.9
38641.2
37837.9
44911.1
46645.9
49383
48440.9
47247.9
37272.2
36271.3
52373.9
56520.5
54418.5
65871.6
63041.5
60483.5
68760.8
71304.1
92951.3
89478.5
92006.3
87202.6
85546.8
83092.3
79498.6
77616.4
73335.9
96294.6
97022.5
97749.9
44841.4
41148
39545.3
42270.2
43600.9
37853.5
38867.2
37499.8
45436.2
47167.3
51007.6
49207.9
48552.7
36462.1
35786.9
52286.3
53611.1
58078.8
55844.5
67887.9
65094.9
62495.5
59952.3
70700.2
94468.9
90173.9
92686.3
87930
84919.9
82543.1
80891.3
77520.5
74421.9
95743.8
98436.3
97735.1
45045.6
40808
39485.2
42986.2
41446.2
44397.1
37326.3
38159
36340.5
46502
48326.4
50632.1
49113.5
34656.6
53828.9
54932.8
58330.3
57317.2
68973.7
66319.9
63950.7
60838.5
71709.4
94426.6
91415.7
89377.2
93783.9
92512.5
87449.1
86011.2
83475.3
81175.7
78916.5
76056.9
73482.5
96100.1
98548.5
99652
97086.9
112832
106315
45949.2
40018.9
38384.2
42991.2
41306.4
44593.5
36353.1
35399.7
46788.2
48646.8
51249
50368.8
33906.5
34051.8
55224.8
53750.2
59856.3
57765.1
70874.3
68185.6
65777.6
63678.1
62269.6
95639.6
91806
89996.3
94290
93561.9
88345.7
85839.7
82667.3
84752.7
80336.6
78433.5
76835.3
74450.3
99189.8
99585.4
97304
111033
113529
116424
107844
105505
45648.5
39570.3
37779.4
42110.4
43848.1
40254
35425.2
35972.1
34298.1
47775.2
49774.2
52503.2
50691.9
32759.6
56674.8
54702.9
60641.6
59131.2
71881
69198.4
67063.7
65115.8
62191
95852
92874.4
91152.3
89531.5
95210.7
93694.2
88028.8
86938.2
83223.3
85172.8
81335.6
79356.3
76126.6
73701.2
98692
100319
98023.3
96837
110199
115164
112390
116213
108701
106041
46106.9
38357.5
36551.3
41866.3
43771.2
39955.8
34115.1
34427.7
32943.1
47970
49903.9
52823.6
51923.9
32227.7
31964
57403.6
53961.7
55902.8
60403.9
58994.2
71008.5
68643.2
66706.4
64727.3
63199.6
93219.6
91600.5
90316.5
95625.3
94440.6
88659
87050.4
84430.3
82641.6
86318.5
80860.3
78817.9
77179.2
74815.3
98975
99810.6
98351.7
97182.7
110778
115560
113190
118412
117586
120120
107823
105202
47226
45436.4
37641.7
35727.4
40785.5
42670.4
44493.1
38911.3
32722.3
33670.8
49058
50944.6
52024.4
30472.2
30908.7
30674.5
57032.4
54538.6
55851.6
61692.3
60098.1
71475.8
69936
68090.8
65480.5
62992.9
94252.2
92971.8
92321.6
91195.2
90277.1
96316.5
95209.9
89570.3
88087.5
84811.6
83707.2
86761.7
81921.8
79850.9
76583.8
74466.5
99369.1
101206
97734.8
99030.8
96945.2
109758
114762
117055
112574
119540
117985
121235
108411
106114
47509.4
45744.5
36331
37973.4
34355.2
40212.8
42423.7
44141.8
39014.7
31109.5
32201.7
49352.7
50581.3
53024.9
30178.7
29534.7
58374
54161.8
56756.6
61537.2
59821.6
72930.9
69780.2
68012.7
64292.5
66792.3
94705.2
93587.8
92451.5
91894.1
91216
96536.5
95904.7
89967.3
88416.4
86017.4
83501.1
87847.8
81439.5
79302.8
77699.1
75833.4
100232
101617
98050.6
99155.6
97620.6
109668
115652
117070
113832
110875
119990
119267
121816
107322
105557
48627.8
46642.5
44909.2
35738.7
36796.7
33306.3
40421.3
43327
41405.8
38006.2
29567.4
31020.5
31866.2
51051
53069.1
28140.8
28650.4
28004.8
58116.8
54995.2
56280.6
62737.7
61106.8
72805.5
71182.2
69408.7
64214.6
67406.7
95445.4
94307
93160.6
91963.4
91308.9
97118.7
95978.9
89423.4
90739.8
86687
84645.1
88390.9
82536.7
80293.8
77273.1
76086
99951.4
100973
98804.8
99836.1
97869
108005
115343
118130
113833
110415
121192
119863
123601
122978
105348
48981.2
46525.4
44666.9
34524.4
36827.3
33430.1
39343.7
43475.5
41055.7
38111
27744
29120.1
30511.9
52241.8
50210
54316.4
26676.6
26461.2
59197.9
56925.9
62602.7
60762.4
74073.7
70898.7
68982.8
65387.5
66839.1
95758.7
94744.9
93373
92719.4
91817.5
97228.5
96711.7
89701.9
91163.9
88026.8
86147.9
84198.1
89268.2
81889.8
79689.7
78332.5
77666
75486.4
99936.5
101002
99207.2
99923.1
98250.3
107641
116572
119417
117883
112804
115204
108725
111254
121768
121200
124856
123541
104316
106468
48366
47268.4
45320.4
34267.5
35428.3
31973.9
39654.8
42927
41740.8
36960.7
27684.6
26277.4
29066.4
30498.7
52479
50382.3
54738.7
25201
25076.3
58986.5
58082.9
56061.9
63910
61725.2
73710
72125.2
69853.8
65237.5
67709.2
96358.9
95427.7
94552.2
93994.7
92895.5
92475.5
91764.6
97816.6
96798.4
90416.9
91119.4
88901.6
87326.9
85574.5
89942.7
82820.5
80583.4
78043.5
76715
100530
100681
99880.6
99150.1
100409
98720.1
98240.9
116311
120322
118899
113516
115463
107920
110757
122951
121926
125226
124611
104942
106115
49194.4
46683
44777.5
32497.2
35419
38625.4
43542.7
41400.4
37141.2
25597.4
24657.8
27315.3
28939.3
53737.4
51445.8
23749.2
23149.6
59993.1
58565.2
56555.2
63967.7
63022.7
61135.5
75015
71513
69137
66681.6
96621.4
95808.5
95170.7
94133.2
93682.8
92728.8
92275.6
98020.9
97291.6
90833.2
90512.1
91651.9
89930.7
88678.6
87311
84819
82033.7
80415.1
79375.9
76633.2
100485
100237
99700.1
99655
100431
98993.8
98735
117260
120054
121530
119059
114725
112837
116628
108484
106743
109612
111702
123477
123074
127115
126305
125153
104400
48829.7
47382.7
45386
31528.1
34114.8
38807.4
42716.2
40206.3
35994.2
25558
24248.6
23138.4
27326.8
28456.9
53815.1
51567.9
22098.1
21666.1
59695.4
57948.9
56050.7
65367.2
63697.1
61681.1
74987.6
72309.2
70008.2
66745
96352.3
97190.6
95666.7
95170.2
94785.9
93817
93313
92386
98517.7
97766.7
91404.3
91099.2
92096.2
90827
89880.5
89304.9
85591.6
82615.5
81590.7
79767.3
77914.9
100901
100729
100164
99723.7
100803
99410.2
98818.4
118398
120921
122403
120341
115248
113033
117162
107954
106475
109502
111338
124633
123954
127281
126245
104711
49650.3
46709.4
44562.4
32397.1
29457
34576.6
37258.7
43083.1
40340.7
35990
23648.3
22362.9
21625.3
25662.8
26312.7
52698.6
54878.1
50798.2
20835.8
19738.3
60634.1
58358.9
57114.7
65103.3
62958.3
76515.5
73799.6
71533.4
69443.1
67985.7
96659.6
97526
96190.8
95656.7
95086.4
94409
93372.9
92920.5
98762.5
98048.4
91495.2
91357.8
92472.9
91180.3
91377.8
90508.4
83862.5
87440
81696.2
81003.5
79198.5
77852.4
101177
100127
100401
100064
101173
99715.2
99176.9
118964
122057
123699
120749
114770
116516
113789
112106
118356
106928
108522
105709
110284
125072
128490
127134
103917
49392.2
47176.2
45184.5
31201
28465
33563.3
37431.1
41897.6
38997
34443.1
23847.3
21720.2
21236
19961.3
25247.5
52474.4
54475.8
51333.9
18174.4
19163.8
19080.9
18511.1
60770
59615.4
56816.7
66136.3
63348
76687.1
74010.8
72555.3
70439.4
67640.4
97082.5
97534.6
98008.3
96149.3
95625.6
94966.1
94481.2
93871.7
92962.7
99172
98600.9
92017.3
91773.6
92432.1
92729
92153
93322.6
89663.1
84340.1
86984.7
82408.6
81429.2
80311.4
79130.4
101460
101979
100618
100176
101498
101129
99524.7
100004
120062
122935
124571
121863
115418
116868
113521
111909
118930
106238
108193
105552
110202
126075
129837
128377
129700
127088
104092
50624.8
48410.6
45964.5
44713.2
31986.9
29390.1
26378.7
35904.6
42071.7
39072.7
33800.4
22288.4
20017.6
19124.9
18637.9
23170.2
53189.7
55343.1
16461.8
16872.3
16823.1
62171
59944.5
57699.5
65898.1
64634.2
78328.7
75329.9
72032.7
70048.9
68739.9
97500.8
98027.7
98263.4
96795.4
96002.4
95436.6
94948.9
94242
93868.2
93433
99481.4
98788.1
92032.9
91913.7
92855.3
93150.1
92091.7
96035.2
92279.5
82894.8
89505.8
83253.9
82666.8
80321.6
79459
101977
104036
100777
100531
101598
101445
99780.8
100212
120684
122801
124155
125849
121790
116324
114975
117834
114089
112653
111038
118637
120159
106448
108383
107184
105044
109324
126421
129443
130809
128093
103581
51134.6
48603.9
45955.8
43446.7
31017.1
28445.2
25667.9
36178.2
34371.6
40568.1
37682
31972.5
20401.6
22093.1
18057
17643.1
16611.3
22160.9
52606
54875.4
15735.6
15879.1
62366.5
61351.2
59070.8
57011.3
67190.3
64773.4
78515.7
75642.1
72532.3
71155.2
68503.5
97795.6
97270.3
98280.8
98041.9
98569.9
96410.4
95852
95412
95113.6
94661
94361.9
93337.5
99782.1
99595
99194.1
92341.5
91973.2
92713.8
94673.6
92158.2
96332.4
97271.4
82283.8
89745.5
84669.7
83012.8
81545.1
81011.4
101637
102541
101096
100528
101620
101437
100117
123837
124937
126532
122676
116888
115180
117759
113818
112444
110977
119497
120454
105979
107464
106795
105015
109373
127690
132150
129232
130675
132030
102856
103890
50146
47352.7
44650.2
43337
29272
26808.8
23956.9
35085
32977.9
40743.3
37500.1
31546
19077.3
20047.3
16299.1
15850.4
15345.3
22590.6
20317
53415
55711.7
12918.8
14182
14112.2
63681.2
61741.9
59615.8
57560.1
67014.9
65908.7
79809.9
77195
74872.3
73668.5
70991.3
69651.4
98113.5
97752.1
98676.2
98483.5
98806.2
96681.4
96581.9
95880.4
95371.5
94772.1
94394.4
93608.4
99880.2
99888.8
99456.7
99217.6
91557.2
93012
93140
91207.4
101016
100308
82290.9
84616.2
98703
87087.3
84471.1
81887.5
101487
105251
101216
100805
101881
101563
100271
123819
124774
126034
127769
122505
116731
114411
115899
118397
113125
111725
110208
119323
121400
105797
107457
106136
104542
108784
128367
133442
130230
131660
133150
102517
103952
50610.6
47275.2
44520
42102.7
28225
25955.1
24278.3
33563.1
35836.3
32733.4
39804.4
38460
30295.1
16951.5
19314.6
14429.4
14398.5
13658.9
20810.9
19480.1
53070.8
55321.8
13012.5
12697.4
63904.9
63016.3
60911.9
58813.6
56470.4
68056.7
66108.8
79758.5
81217.4
77290.1
75946
73425.9
72121
69354.9
98447
97774.7
98743.6
98741.5
99064.7
97161.8
96618.3
96429.4
95894.6
95191.8
95040.7
94071.2
93488.3
100154
100058
99823.4
99480.9
91957.5
92706.1
92120.7
90362.4
102841
99240
79476.5
83450.9
101225
90762.7
86238.7
83744.6
102250
108278
103186
101070
101538
100690
101747
100593
124868
125737
126532
128403
123302
117545
114230
115712
118348
112805
111932
110111
119886
121425
105129
108148
106820
105700
108810
129721
136078
134605
131455
132905
134452
102207
104175
51981.7
49810.2
48477.8
45756.9
43007.2
41909.3
26458.9
28738.7
23100.5
32639.2
35054.4
30845.8
40528.1
38208.8
16071.9
17499.6
12663.3
13024.3
12538.2
21112.2
18090.2
54172.3
11342
10378.7
11023.4
65176.8
63607.9
61387.7
59381.8
56696.3
67411.9
78550.7
81120.9
82212.4
75882.6
74564.6
71867.4
70432.8
98675.8
97558
98109.4
99206.6
98880.3
99300.5
97497.6
96930
96449.5
95961.7
95397
95401.7
94243.9
93703.6
100255
100037
100236
99617.9
99556.5
90999.2
93445.5
90269.6
91590.1
90020.4
104615
75299.3
88978.8
124251
90334.9
93947.9
87532.7
84745.2
102355
106896
103724
101285
101696
100869
102075
100578
125878
125042
127641
129563
124320
123035
117347
114869
113357
116405
119167
111548
110726
109352
120727
122271
104853
107735
107066
106042
105017
108135
130303
137363
135785
132383
133913
135620
103045
104114
52122.8
50930.7
48185.2
45600.8
42869.5
25214.7
27429.7
23545.9
30904.3
33383.2
35692.8
30017.2
39733.6
37159.9
14373.2
17134.2
11212.3
12097.9
11549.8
10743.7
20352.2
16823.1
53482.2
9003.82
9433.53
65014.3
62845.5
60704.8
58360.2
55545.3
68115.9
78549.5
81325.8
83766.3
77199.3
74500
73086.6
69825.2
98627.4
98203.1
98910.7
99390.6
99215.8
98959.4
98005
97195.9
97316.6
96211.9
95925.9
95971.6
94851.1
95621.2
93863.7
100498
100294
100355
99790.8
99708.6
93081.8
93329.5
88211.9
73722.6
89963.5
105190
69936.2
85497.7
115218
92108.9
99833.5
86533.6
102508
102884
104860
103421
101535
101116
102173
100795
126978
126198
127962
130312
124575
123768
117980
114554
113194
116286
119440
111957
110629
109067
121100
122019
106786
105728
104667
107884
131618
137912
136955
133581
132476
135336
136999
102876
103760
103956
50682.5
49300.5
46860.2
44280.7
41464.9
25635.6
28165.6
22065.6
30127.4
32451.5
34775.8
40031
37403.4
12817.9
14560.5
15923.3
9713.67
10109.2
10470.7
9499.02
18787.2
16428.7
53954.5
8715.22
7999.92
8193.43
65951.6
63029
61539.8
58568.7
55964.2
67438.3
79948.8
82886.3
84292.3
77225.7
75836.4
73066.7
70464.5
98958
98932.3
99431.8
99395.7
99500.3
98192.9
97651.6
97562.8
96878.8
96675.9
96370.5
94977.8
95897.4
93835.9
100538
100331
100393
100494
100112
99699.6
93634.4
93598.3
85611.6
48537.4
91749.9
35176.9
75574.6
94993.3
148730
89713
97667.4
102285
87576.3
103934
103725
103077
101873
101193
102244
100930
127135
126355
128998
131612
130028
125467
123727
118868
117756
114850
113798
112607
117044
115541
120529
111345
110118
109445
108340
122709
107174
106069
105214
104756
139621
139209
134356
133686
136193
138157
103264
103342
103810
51549.6
49249.6
46805.5
44296.6
41669.8
24287.9
27396.9
22370
30901.8
28530.3
33182.7
35915.3
38760.2
11430.4
13110.4
9288.08
8206.91
9246.53
8609.4
8088.34
17290.9
18567.5
14537.6
52928
7498.19
6444.44
6904.78
66009.1
63965.1
61689.1
57352.6
59707
54970.1
68343.3
79960.5
82807.3
86012.7
78578.4
75887.9
74492.3
71850.7
69607.9
99642.7
99156.2
99712.8
99569.2
99530.6
99368.1
99144.5
97744.9
97485.3
97505.5
96901.7
97475.8
96405.5
95639.1
94292.1
96809.3
100768
100526
100487
100567
100149
100145
95574.8
94345.4
92756.6
80488.9
94015.8
35095.6
78612.5
69966.1
75114.4
138076
90026.3
96193.3
95854.5
103889
103575
105031
102460
102085
101594
101475
101070
100817
128300
127328
129153
132603
130906
125563
124612
119201
118489
114130
113620
112893
116964
115473
120812
111373
110252
108969
108066
122624
107004
105808
104837
104374
140740
140006
135548
134199
137562
139484
138312
102936
103439
103909
50608
48068.5
45561.5
43057.9
40409
24266.3
25576.1
21310.7
29789.3
28234.8
31981.1
36022.1
38986.7
11640.8
9964.32
13123.7
7882.5
6959.44
7745.31
6959.42
15767.8
19736
16843.7
14384.4
53525.9
6143.08
6175.68
67499.9
65248.3
63223.8
60966.6
57791.3
59187.1
55503.3
81294.5
84001
86197.4
78586.4
77304.1
74670.8
71699.3
70302.9
99606.5
100072
99899.2
99851.3
100162
100018
98294.8
98473
98568.7
97877.9
96934.5
96971.1
96924.9
95983.6
93927.1
97230.4
97071.7
100773
100603
100466
100691
100150
100173
94777.7
95304.9
90395.3
72358.7
92525.3
14821.7
71182.2
41087.7
118870
87742.8
92322.8
99889.8
62061.6
103356
103799
104952
102291
102259
102010
101317
101066
101097
128320
127518
130276
133790
132139
126624
124440
120042
118549
114133
112584
117719
116170
114801
121748
110839
111921
109837
109236
108426
107465
123460
106474
105272
106005
104394
104859
142060
141600
136183
135524
138182
140366
139684
103348
102945
103402
103686
51136.2
47921
45510.5
43111.9
40553.1
22339.4
25253.8
30075.6
26828.3
32307.5
34776.4
37740.5
10073.4
9024.94
11413.7
7196.88
5970.01
7088.82
5502.9
15652.2
19051.6
17188.2
13063.9
52694.1
4302.54
4602.24
68134.9
65950.7
63754.2
61827.1
56923.7
59980.8
54781.8
81196.2
83672.9
85275.4
79878
77361.4
76142.6
73827.4
72521.1
69649.1
99827.4
99496
100112
100111
100340
100226
99953.6
98659.7
98802.7
98218.6
99212
96978.8
97626.7
96813.4
95438.1
94684.5
96930.3
97224.1
100855
100696
100548
100703
100831
100399
100127
93652
93896.1
98775.7
177183
93086.7
28676.2
129641
55258.2
86960.4
89283.5
87544.6
73706.6
102630
103947
110808
102902
102680
102093
101684
101690
101295
101036
129283
128675
130807
134846
132777
126693
125010
120191
119400
113625
112972
117771
115877
114585
121803
111033
111638
109995
109018
107935
107394
123445
106389
105079
105486
104115
104390
143003
142481
142203
137496
135919
139590
141548
140319
103826
102734
103323
103571
50365.4
46580.4
48939.1
44323.3
41864.2
39445.3
21659.9
23712.5
28563.2
26867.9
31319.7
33446.5
35383
38070
9942.51
7923.4
11525.9
5959.29
5169.61
5271.86
5875.25
4805.31
13773.1
19922.9
16445.3
53407
4642.25
4765.02
67343.9
65153
63117.5
61391.2
57125.3
59467.4
55712.9
82394.4
84561
85875.4
79982.4
78712.4
76095.4
74707
71810.8
70370.9
100048
99184.7
100005
100463
100452
100264
99494.8
98340.6
98198.9
99618.9
97452
97511.7
96177.4
96050.5
94157.1
97919.3
97315.5
100922
101011
100806
100781
100936
100737
100781
93397.1
93808.3
94587.1
115357
177729
137187
85380.8
114570
79894.7
86842.5
91038.1
66035.4
109748
103223
102950
106016
101793
102289
102208
101961
101564
101295
101248
130335
129135
132040
134996
134048
125863
127639
124314
121039
119539
113893
112605
118721
117122
115012
116300
122681
110571
111935
109482
108471
107950
106888
105829
104661
105404
104078
103759
104343
144304
144191
143536
138039
137151
140235
142312
141781
102528
103013
103192
103378
51095
46070.2
48765.4
44609.2
41541.9
39961.7
22243.8
23839.7
28607.4
25408.7
32479.2
29984.3
34263.8
36936.3
8413.33
6855.67
10281
5363
4442.6
3196.16
5708.79
3581.3
12895
19310.6
17775.7
14931
52551
3451.24
4263.33
68065
65367.5
64050.7
62392.9
58125.3
60174.9
55581.7
82455.3
85382.4
83868.9
81346.5
78619.3
77212.2
74168.2
72604.9
69591
100536
100163
100564
100618
100519
100562
100694
100014
99316
99251.9
97796.7
99507.2
97046
96516.8
95310.4
94505.2
96845.1
97372.3
97373.4
100935
101019
100945
100834
100654
101077
100863
100776
100486
92644.9
92890.9
97679.3
147491
94050.4
76810
98643.7
86301.3
85300.8
75929.3
105290
102758
103561
102005
101759
102443
101979
101884
101461
101774
101256
131319
130429
128575
132392
136421
134374
126190
127179
124438
121114
120436
113477
112859
118708
117193
114625
115843
122733
110655
111780
109526
108259
107410
106901
105708
104529
104861
103709
103598
103902
145099
144637
143579
139400
137524
141810
142634
101501
103030
102999
103140
103212
50108.6
46393.5
47637.6
43952.5
42525
39111.4
20630
22417.6
27010.6
25551.9
32664
29668.1
34825.6
37445.4
7027.36
8781.43
10044.4
4168.96
3698.17
3752.69
5184.27
2946.03
13513.7
11035.2
16955.2
15123.2
53037.2
3773.6
4637.6
2700.49
67691
66486.7
63756.3
62452.9
57991.7
59149
61492.7
56881.1
54417.2
85263.5
83918.3
81624.3
79615.1
77208.4
74783.4
72382
69999.4
100666
100357
100129
100789
100709
100705
100928
99869.9
99312.9
99775.1
97762.4
100006
95456.6
94508.1
93649.7
98197.1
96111.1
96105.7
101031
101219
100973
101066
100908
101125
101105
100809
100707
92351.1
91373.4
90123
111866
100292
87147.7
82267.4
109398
87546.5
76683.4
91188.2
116114
103199
103494
103087
99665.7
100847
102361
102365
102162
101500
101728
101363
131418
130540
129413
133497
136573
135510
125456
127792
123615
121958
120865
113789
112314
117880
119389
116360
115068
111217
110092
109120
108589
107687
107339
106554
105166
106074
104064
104766
103652
103386
103799
146538
146198
144622
139899
138940
142266
144212
103426
103140
103015
102979
102962
50345.5
45066.2
47869.2
42210.1
39543.6
20695.5
22603.4
26857.2
24132.3
31235.1
28168.7
34059.4
36490.5
5494.1
7249.26
8440.53
4375.6
3497.95
3702.85
2924.62
4518.52
3292.27
11861.9
10317.1
17533.5
13810.5
51803
4210.26
3919.04
3632.37
68810.1
66115.3
64704.8
63911.5
59527.9
61877.4
56481.5
54920.5
85923.6
82945.8
84699
80838.3
79613.4
76116.2
78582.6
73581.4
71233.6
100766
100619
100572
100930
100862
100872
100976
101105
99836
98389.5
99289.4
99901.9
98012.9
94954.6
93650.2
91890.8
96927.1
96806.9
95953.9
95853.3
101211
101217
101293
101160
100847
101309
101144
100936
100966
100938
91272.7
90253.7
95154.5
82798.3
83633.4
77117
86604.3
82572.1
92777.5
106784
102950
103492
101372
100101
103485
102095
101560
101948
101673
101499
132779
131611
129071
133800
137618
135882
125560
127428
123668
121907
120395
113409
112234
118179
119148
115977
114580
111117
110125
109265
108330
107473
106810
105058
105839
103806
104336
103352
103184
103334
147147
147620
147618
146108
141216
139488
143690
145342
102805
102305
102972
102798
102842
102967
49219.8
44824.4
46991.9
43439.8
40918.6
38494
19266.1
21265.6
25563.3
24194.9
31418.6
27587.9
32760.2
34837.8
37116.2
6363.48
4505.49
7729.99
2847.45
3218.97
3175.59
3153.3
3900.86
3679.36
3070.51
11919.1
8967.05
16152.6
14313.8
51906.6
2586.64
4474.46
69191.2
67045.4
64276.1
59274.4
60894.6
63195
56957.7
54531.9
87162.2
85393.2
83253.4
85078.4
81360.7
80623.8
76335.9
78648.3
73932.9
70794
100868
101156
100633
100780
101124
101059
101138
101059
101242
100493
99164.6
98387.8
99477
100501
95119.9
94151.2
91611.5
95271.7
96904.6
95203.3
97080.4
96216.8
101333
101366
101295
101252
100988
101340
101208
101039
101069
100968
90418.8
87784.4
88265.8
78814.7
81897.3
79692.9
76500.6
84983.7
87044.3
102815
95068.9
102624
102778
101020
102326
103171
102014
102185
101571
101882
101659
101483
132859
131675
129751
135078
137096
138823
126452
124595
128105
122695
120682
112690
113804
111582
117836
119742
114967
116394
110590
109709
108754
107801
106925
106632
104650
105367
106113
103396
103974
104348
103221
103150
103093
103176
148631
148986
149257
147265
141764
141008
145083
143270
146897
103547
102616
102662
102714
102815
49157.1
45773.8
47763.5
43656.1
40693.2
39183.9
19651.9
21494.1
25469.7
23000.5
30262.6
26319.9
28555.5
32601.3
33825.8
36204.7
5606.39
3261.38
6020.34
3002.73
3011.39
3283.91
2640.72
3246.59
3566.94
3137
10683
8818.33
16741
13006.9
53242.6
50380.9
4060.01
4110.88
4472.92
68501.3
66644.9
65525.7
60526.6
58265
63642.5
55745.7
87768.8
86428.8
84396.9
82442.3
85961.1
81273.7
75347.6
77545.2
79862.7
73529.2
71320.6
101149
101434
101141
101253
101236
101226
101199
101432
100536
98954.9
97777.7
100122
100814
96057.4
93988.9
92274.2
97390
96122.5
98542.1
96110.2
101360
101402
101354
101199
101122
101112
101435
101336
101171
101302
90932.1
89087.4
82547
84611.5
83764.8
82858.3
87880
90357.5
99013.6
94434.9
102445
102544
103054
102445
102430
101997
102049
101664
101800
101918
101564
133889
132932
130836
129111
135608
137803
139557
126477
124729
127443
122836
121371
112589
113224
111352
118217
117139
119691
114530
115721
110472
109913
108725
107523
106631
104521
105175
105880
103088
103664
104014
102929
102863
102880
102849
149688
150367
149576
150647
148731
141578
146520
143911
148163
102520
102342
102626
102616
102683
45048.7
46907.1
43042.3
41686.2
38610.1
18478.6
20407.8
24444.4
23245.7
31321
25481.6
27915.9
33697.5
37001.4
4861.78
4615.81
3427.67
6262.4
3383.54
2592.54
3829.73
4237.49
2658.35
3314.05
9425.3
10598.3
7063.04
15538.7
13938.7
11344.7
53267.8
50364.9
5945.02
3506.13
5605.96
69243.6
67553.9
65825
61199.5
58203.1
62806.3
65067.9
55782.9
88602.2
87553.1
84538.7
82451.4
86860.5
81072.7
75566.3
77570.5
79663.5
72551.3
74540.2
70472.8
101431
101666
101400
101398
101378
101480
101492
101430
101678
101198
99678.3
97869.4
100801
100922
95776
93426.4
95515.6
91849.3
98611.6
97684.7
97596.6
99961.8
97133.4
101364
101499
101419
101291
101257
101622
101574
101310
101401
89143.2
86751.7
89631.7
85443.6
88047.4
87455.3
89372.2
95613.6
96933.9
102362
102713
104942
101965
102692
102015
102284
101654
101812
101942
101591
135026
133875
132603
131345
129598
137100
139071
140829
125741
123939
127782
122234
121283
112083
113212
110786
111589
117457
118890
120560
114929
113752
116098
109692
108276
109175
107766
106907
106103
104740
104060
105419
102809
103019
103323
102647
102691
102688
102645
151322
152082
151626
151288
152193
149692
142969
146521
148051
145344
149543
103983
102361
102540
102526
102537
45405.7
47408.2
44190.2
41176.8
39604.4
18951.4
20568.3
22061
31034.9
25410.8
26667.1
29510.9
32279.9
34940.4
36438.7
4984.61
4902.42
4635.08
5300.56
2980.64
3038.91
5671.76
6255.34
2776.73
2519.38
8389.96
9319.06
7245.84
16334.9
12977.2
10319.3
51933.2
54614.7
49027
4456.93
9811.49
2912.02
2432.11
68675.2
67065.1
60601.8
59254.8
56951.3
63519.8
65692
89602
88496.3
85591.5
83415.7
86688.9
88143.7
82313
76601.3
78540.7
80581.7
72287
74786.2
71085.2
101740
101979
101734
101851
101830
101540
101552
101698
101588
101936
101294
100712
100597
98040.6
95111.6
96873.7
93128.9
99629.7
99184.4
100677
99579.9
101084
101483
101477
101416
101398
101403
101439
101630
101502
101663
101444
101525
92512.8
91526.2
92319.7
91062.7
92717.6
92338
91626.3
95746.4
96722.7
102562
103498
101926
101959
102444
102015
102113
101714
101886
101759
101997
101699
135719
134973
133149
130762
128873
137580
140119
141296
125870
124154
126905
122712
122080
111991
112443
110754
111156
117120
119138
120183
114278
113620
115600
110024
108495
109025
107218
106647
105721
104670
103815
105108
102470
102587
103121
102548
102413
102422
102526
102332
152508
153130
151183
152503
153396
143344
147923
149554
145618
150872
102790
102523
101707
102444
102432
102431
46308
43852.3
42210.8
39085.7
17862.7
19136.8
21790.7
24541.1
26908.7
29438
31759.6
34703.7
37588.6
4980.82
5927.26
8160.22
3256.65
6392.03
4470.48
2725.38
2923.94
3505.6
10146.6
3876.73
2498.55
3224.84
8439.13
7000.86
15448
11196
13891.8
8995.9
51863.8
55256.6
49177.6
3920.64
2432.85
2396.95
69388.4
67847.1
61481.2
58934.2
56679.6
62834.9
64947.6
67188.2
89587.3
90838.5
85491.6
83440.3
87895.8
89115.8
82008.2
76858.9
77997.7
80593.9
73026.8
74184.4
76068.8
70574.2
102030
102203
101958
102047
101999
101663
101676
101721
101767
101885
102178
101741
101028
100872
101401
99776.9
96881.9
95354.2
98613.3
99337
99674.8
100480
101148
101637
101579
101687
101535
101534
101526
101627
101690
101532
101677
101596
101645
94537.6
94472.8
95092.8
94153.8
94260.3
95908.2
91628.8
94230.3
96866.8
102465
103696
101439
102543
102579
102130
102440
101715
101910
101807
101988
101637
136769
135523
132411
134324
131314
129331
138816
140044
142444
125073
123508
127127
122538
111377
112332
110461
111102
117628
118631
120521
114082
112981
114597
116134
109806
108427
109344
106803
107301
106191
105813
105233
104309
103909
103371
102357
102413
102673
102277
102304
154161
154769
154437
151963
154140
154765
144612
148047
149400
151028
146967
103293
102649
102218
102428
102319
102273
46811.1
44768.3
41671.9
40146.3
18781.8
23236.9
20103.9
25630.3
28042.2
30260.8
32373.8
33597.9
35893.6
37146.1
4582.86
5895.77
15825.7
4484.31
6359.9
4272.75
2845.11
2467.82
2407.6
2426.35
2991.79
2674.63
7233.81
7176.02
15778.4
10013.3
12739.9
8389.06
50440.3
53029.7
54625
48065.5
2396.68
2556.69
2368.27
69046.5
60870.5
59687.9
57597.5
63573.4
65621.3
67788.4
90928.7
91707.2
84475.5
86479.8
87629.6
88987.7
90622.2
82639.4
78455.7
79705.2
81681.5
72341.9
75132.9
76209.3
71132.5
102416
101737
101747
101921
101929
101991
102140
101487
101220
101988
99892.1
98964.9
97617.2
99797.7
101681
101645
102763
102893
101583
101661
101653
101657
101655
101703
101663
101806
101664
101708
97963.7
97332.5
97363.1
98804.7
99530.7
99985.6
93261.7
95199.4
97701.2
102385
102035
102201
102455
102097
102265
101759
101971
101854
101840
102045
101708
137405
135293
136893
132978
134149
130598
129073
138636
141305
143173
124859
123894
126153
128188
123570
122231
111129
111690
110684
117093
119115
121379
119945
113065
114125
115794
110149
109003
107940
106353
106710
105338
104832
104370
103541
103171
102208
155268
155925
153600
154739
155171
155938
144594
149489
150432
152613
147216
102965
102823
101987
102284
102315
102247
46113
44072.1
42624.2
39689.7
17057
22927
19464.1
25136.9
27526.5
29551.8
31521.6
34076.1
35520.1
38277.9
2471.61
8976.86
8095.7
2426.45
8157.55
5466.87
2436
2660.21
2424.18
2616.36
2372.87
2399.73
6492.5
14246.7
8524.11
11365.3
6885.92
50292.1
52705.1
55156.4
47914.6
2357.66
2349.13
2344.79
70158.4
61463.5
59040.9
57757.1
64953.8
62845.4
66951.1
69090.9
92659.9
85132
86235.6
88185.9
90100.9
91176.8
83683.3
77440.2
80278.7
82155.8
72990
75240.6
102530
101877
101893
102005
101969
102260
102229
102155
101817
102436
100676
99767.3
100175
100512
102645
102720
103330
101628
101703
101724
101763
101775
101749
101808
101767
101863
101812
101324
100559
98287.6
98095.9
101941
101612
102462
101973
94660.2
96923.1