/*--------------------------------*- C++ -*----------------------------------*\
| =========                 |                                                 |
| \\      /  F ield         | OpenFOAM: The Open Source CFD Toolbox           |
|  \\    /   O peration     | Version:  v2012                                 |
|   \\  /    A nd           | Website:  www.openfoam.com                      |
|    \\/     M anipulation  |                                                 |
\*---------------------------------------------------------------------------*/
FoamFile
{
    version     2.0;
    format      ascii;
    class       pointVectorField;
    location    "2";
    object      pointDisplacement;
}
// * * * * * * * * * * * * * * * * * * * * * * * * * * * * * * * * * * * * * //

dimensions      [0 1 0 0 0 0 0];


internalField   nonuniform List<vector> 
16294
(
(0 0 0)
(0 0 0)
(0 0 0)
(0 0 0)
(0 0 0)
(0 0 0)
(0 0 0)
(0 0 0)
(0 0 0)
(0 0 0)
(0 0 0)
(0 0 0)
(0 0 0)
(0 0 0)
(0 0 0)
(0 0 0)
(0 0 0)
(0 0 0)
(0 0 0)
(0 0 0)
(0 0 0)
(0 0 0)
(0 0 0)
(0 0 0)
(0 0 0)
(0 0 0)
(0 0 0)
(0 0 0)
(0 0 0)
(0 0 0)
(0 0 0)
(0 0 0)
(0 0 0)
(0 0 0)
(0 0 0)
(0 0 0)
(0 0 0)
(0 0 0)
(0 0 0)
(0 0 0)
(0 0 0)
(0 0 0)
(0 0 0)
(0 0 0)
(0 0 0)
(0 0 0)
(0 0 0)
(0 0 0)
(0 0 0)
(0 0 0)
(0 0 0)
(0 0 0)
(0 0 0)
(0 0 0)
(0 0 0)
(0 0 0)
(0 0 0)
(0 0 0)
(0 0 0)
(0 0 0)
(0 0 0)
(0 0 0)
(0 0 0)
(0 0 0)
(0 0 0)
(0 0 0)
(0 0 0)
(0 0 0)
(0 0 0)
(0 0 0)
(0 0 0)
(0 0 0)
(0 0 0)
(0 0 0)
(0 0 0)
(0 0 0)
(0 0 0)
(0 0 0)
(0 0 0)
(0 0 0)
(0 0 0)
(0 0 0)
(0 0 0)
(0 0 0)
(0 0 0)
(0 0 0)
(0 0 0)
(0 0 0)
(0 0 0)
(0 0 0)
(0 0 0)
(0 0 0)
(0 0 0)
(0 0 0)
(0 0 0)
(0 0 0)
(0 0 0)
(0 0 0)
(0 0 0)
(0 0 0)
(0 0 0)
(0 0 0)
(0 0 0)
(0 0 0)
(0 0 0)
(0 0 0)
(0 0 0)
(-0.00532109 -0.0418636 0)
(-0.00526987 -0.0428531 0)
(-0.0052183 -0.0438224 0)
(-0.00516651 -0.0447711 0)
(-0.00511462 -0.0456987 0)
(-0.00506273 -0.0466049 0)
(-0.00501095 -0.0474894 0)
(-0.00495938 -0.0483522 0)
(-0.00490811 -0.0491929 0)
(-0.00485724 -0.0500115 0)
(-0.00480682 -0.0508079 0)
(-0.00475695 -0.0515822 0)
(-0.00470768 -0.0523345 0)
(-0.00465908 -0.0530647 0)
(-0.00461122 -0.0537732 0)
(-0.00456412 -0.05446 0)
(-0.00451784 -0.0551254 0)
(-0.00447242 -0.0557696 0)
(-0.00442789 -0.0563931 0)
(-0.00438429 -0.0569959 0)
(-0.00434164 -0.0575786 0)
(-0.00429997 -0.0581414 0)
(-0.00425928 -0.0586848 0)
(-0.00421961 -0.0592091 0)
(-0.00418094 -0.0597148 0)
(-0.0041433 -0.0602022 0)
(-0.00410668 -0.060672 0)
(-0.0040711 -0.0611244 0)
(-0.00403653 -0.0615598 0)
(-0.00400299 -0.0619789 0)
(-0.00397046 -0.062382 0)
(-0.00393895 -0.0627697 0)
(-0.00390842 -0.0631423 0)
(-0.00387888 -0.0635003 0)
(-0.00385031 -0.0638441 0)
(-0.00382269 -0.0641743 0)
(-0.00379602 -0.0644913 0)
(-0.00377026 -0.0647954 0)
(-0.0037454 -0.0650871 0)
(-0.00372144 -0.065367 0)
(-0.00369833 -0.0656354 0)
(-0.00367606 -0.0658925 0)
(-0.00365462 -0.066139 0)
(-0.00363398 -0.0663752 0)
(-0.00361411 -0.0666014 0)
(-0.00359501 -0.0668181 0)
(-0.00357664 -0.0670255 0)
(-0.00355898 -0.0672241 0)
(-0.00354202 -0.0674142 0)
(-0.00352572 -0.067596 0)
(-0.00351008 -0.0677701 0)
(-0.00349506 -0.0679365 0)
(-0.00348065 -0.0680958 0)
(-0.00346683 -0.0682481 0)
(-0.00345358 -0.0683937 0)
(-0.00344087 -0.0685329 0)
(-0.00342869 -0.068666 0)
(-0.00341702 -0.0687932 0)
(-0.00340583 -0.0689148 0)
(-0.00339512 -0.069031 0)
(-0.00338486 -0.069142 0)
(-0.00337504 -0.069248 0)
(-0.00336564 -0.0693493 0)
(-0.00335665 -0.0694461 0)
(-0.00334804 -0.0695385 0)
(-0.00330167 -0.0695407 0)
(-0.00325475 -0.0695429 0)
(-0.00320765 -0.069545 0)
(-0.00316073 -0.0695472 0)
(-0.00311437 -0.0695494 0)
(-0.00309723 -0.0694582 0)
(-0.00307929 -0.0693626 0)
(-0.00306054 -0.0692626 0)
(-0.00304093 -0.069158 0)
(-0.00302042 -0.0690484 0)
(-0.00299898 -0.0689337 0)
(-0.00297657 -0.0688137 0)
(-0.00295316 -0.0686881 0)
(-0.00292869 -0.0685567 0)
(-0.00290313 -0.0684193 0)
(-0.00287643 -0.0682756 0)
(-0.00284854 -0.0681252 0)
(-0.00281943 -0.0679679 0)
(-0.00278904 -0.0678036 0)
(-0.00275733 -0.0676317 0)
(-0.00272424 -0.0674522 0)
(-0.00268972 -0.0672645 0)
(-0.00265373 -0.0670684 0)
(-0.0026162 -0.0668636 0)
(-0.00257709 -0.0666496 0)
(-0.00253633 -0.0664262 0)
(-0.00249388 -0.0661929 0)
(-0.00244968 -0.0659495 0)
(-0.00240366 -0.0656955 0)
(-0.00235577 -0.0654305 0)
(-0.00230595 -0.065154 0)
(-0.00225415 -0.0648659 0)
(-0.00220031 -0.0645654 0)
(-0.00214435 -0.0642523 0)
(-0.00208624 -0.0639261 0)
(-0.00202591 -0.0635864 0)
(-0.0019633 -0.0632326 0)
(-0.00189836 -0.0628645 0)
(-0.00183103 -0.0624814 0)
(-0.00176127 -0.0620831 0)
(-0.00168901 -0.0616689 0)
(-0.00161421 -0.0612385 0)
(-0.00153684 -0.0607914 0)
(-0.00145682 -0.0603271 0)
(-0.00137414 -0.0598452 0)
(-0.00128875 -0.0593453 0)
(-0.00120063 -0.0588269 0)
(-0.00110974 -0.0582896 0)
(-0.00101605 -0.0577331 0)
(-0.000919557 -0.0571569 0)
(-0.00082025 -0.0565607 0)
(-0.000718104 -0.0559441 0)
(-0.000613143 -0.0553068 0)
(-0.000505364 -0.0546486 0)
(-0.00039478 -0.0539691 0)
(-0.000281431 -0.0532681 0)
(-0.000165331 -0.0525456 0)
(-4.65221e-05 -0.0518011 0)
(7.49399e-05 -0.0510347 0)
(0.000198981 -0.0502464 0)
(0.000325544 -0.049436 0)
(0.000454547 -0.0486037 0)
(0.000585892 -0.0477495 0)
(0.00071947 -0.0468735 0)
(0.000855164 -0.045976 0)
(0.00099284 -0.0450573 0)
(0.00113238 -0.0441175 0)
(0.0012736 -0.0431572 0)
(0.00141635 -0.0421766 0)
(0.000750721 -0.0217752 0)
(0.000935154 -0.0215421 0)
(0.000888369 -0.0179686 0)
(0.00131675 -0.0250027 0)
(0.00128449 -0.022964 0)
(0.00115361 -0.0250015 0)
(0.0007023 -0.0307918 0)
(0.000914983 -0.0291981 0)
(0.000789001 -0.028638 0)
(0.000516041 -0.00860498 0)
(0.000435991 -0.0101422 0)
(0.00074255 -0.0125485 0)
(0.0011407 -0.0272666 0)
(0.0012558 -0.028208 0)
(0.00133186 -0.0266071 0)
(1.8535e-05 -0.0207341 0)
(-0.000145894 -0.0242653 0)
(-2.39829e-05 -0.0258745 0)
(0.000611928 -0.0149601 0)
(0.000385694 -0.0147817 0)
(0.000314705 -0.00573592 0)
(0.000515278 -0.0413783 0)
(0.000400079 -0.0428619 0)
(0.000546705 -0.0419252 0)
(0.00160462 -0.0370182 0)
(0.00143701 -0.0385376 0)
(0.00160284 -0.037638 0)
(4.54744e-06 -0.028583 0)
(0.000136476 -0.0287533 0)
(0.000108425 -0.0262925 0)
(0.000462823 -0.032451 0)
(0.000288586 -0.0320472 0)
(0.000256273 -0.034097 0)
(-0.000223604 -0.0332645 0)
(-0.000154474 -0.0345805 0)
(-4.66386e-05 -0.0314349 0)
(3.11304e-05 -0.0151039 0)
(0.00018713 -0.0170363 0)
(0.000113367 -0.0120434 0)
(0.000243402 -0.00881094 0)
(0.000197163 -0.0047914 0)
(0.000358995 -0.0474093 0)
(0.000380812 -0.0470135 0)
(0.000241746 -0.0478085 0)
(0.0012621 -0.0395038 0)
(0.00123309 -0.0390372 0)
(0.00108484 -0.0405329 0)
(-0.000268675 -0.0398061 0)
(-0.000358298 -0.0417679 0)
(-0.000208511 -0.0402428 0)
(-0.000606555 -0.046066 0)
(-0.000500766 -0.0446293 0)
(-0.000653951 -0.0457619 0)
(-0.000450628 -0.0337285 0)
(-0.000411692 -0.0308638 0)
(-0.000515667 -0.0328507 0)
(-0.000290965 -0.0277862 0)
(-0.000182737 -0.0278222 0)
(0.000208239 -0.0119463 0)
(0.000114619 -0.00408763 0)
(0.000424462 -0.0464971 0)
(0.00102132 -0.0427872 0)
(0.000887141 -0.0435116 0)
(0.000903195 -0.0438005 0)
(0.0014676 -0.040984 0)
(0.00150478 -0.0409565 0)
(-0.00107284 -0.0466317 0)
(-0.000979426 -0.0461639 0)
(-0.000988419 -0.0452555 0)
(-0.000299954 -0.0325675 0)
(-0.000152177 -0.0301048 0)
(-0.000298984 -0.030587 0)
(-1.67848e-05 -0.0450979 0)
(-5.75458e-05 -0.0462313 0)
(9.40328e-05 -0.0447877 0)
(-0.00273329 -0.0204381 0)
(-0.00229745 -0.0187028 0)
(-0.00254809 -0.0228329 0)
(-0.00268444 -0.0221065 0)
(-0.00286096 -0.024916 0)
(-0.00419406 -0.0325103 0)
(-0.000684794 -0.0312829 0)
(-0.000696624 -0.0333065 0)
(-0.000559553 -0.0303053 0)
(-0.000292398 -0.0242024 0)
(-0.000252147 -0.0191724 0)
(-0.000396052 -0.0233172 0)
(9.27312e-05 -0.00641532 0)
(3.11782e-05 -0.00930793 0)
(-4.8927e-05 -0.0120249 0)
(-1.81082e-05 -0.0512244 0)
(-4.93833e-05 -0.051272 0)
(-0.000157992 -0.0520588 0)
(-0.000898688 -0.0538013 0)
(-0.000817312 -0.0529302 0)
(-0.000951167 -0.0538082 0)
(6.27206e-05 -0.0500535 0)
(0.000190022 -0.0492101 0)
(0.000126798 -0.0493895 0)
(0.0015998 -0.039854 0)
(-0.00111493 -0.0420969 0)
(-0.00101828 -0.0403015 0)
(-0.00111307 -0.0409605 0)
(-0.00144409 -0.0554886 0)
(-0.00153559 -0.0562208 0)
(-0.00145027 -0.0559391 0)
(-0.00179181 -0.0134913 0)
(-0.00121583 -0.00988568 0)
(-0.00245165 -0.0239162 0)
(-0.00215138 -0.0201364 0)
(-0.00342316 -0.0305743 0)
(-0.00357963 -0.0309564 0)
(-0.00355459 -0.0327684 0)
(-0.000416078 -0.0285832 0)
(-0.000501885 -0.0311728 0)
(-0.000333608 -0.0182885 0)
(-0.000219261 -0.015086 0)
(-0.000204565 -0.0117911 0)
(1.73759e-05 -0.00435275 0)
(-0.000146811 -0.0111875 0)
(-7.56459e-05 -0.00832461 0)
(-8.72158e-05 -0.00620601 0)
(-0.000723368 -0.0543602 0)
(-0.000823303 -0.0551726 0)
(-0.000679915 -0.0542939 0)
(0.000161846 -0.0496132 0)
(-0.000643291 -0.0521737 0)
(-0.000697555 -0.0529511 0)
(-0.000538295 -0.0516587 0)
(0.000305272 -0.0487885 0)
(0.00042394 -0.0481348 0)
(0.000455571 -0.0477064 0)
(0.00143172 -0.0418976 0)
(0.00149365 -0.0413771 0)
(-0.00183025 -0.0495692 0)
(-0.00189187 -0.0505828 0)
(-0.00182578 -0.0500698 0)
(-0.00193503 -0.0612232 0)
(-0.00187753 -0.0606844 0)
(-0.00195209 -0.0611615 0)
(-0.00069017 -0.0372671 0)
(-0.000771333 -0.0392163 0)
(-0.000648939 -0.0379893 0)
(-0.00159279 -0.05911 0)
(-0.00161468 -0.0595083 0)
(-0.00152626 -0.0589217 0)
(-0.00415523 -0.0504607 0)
(-0.004094 -0.0500116 0)
(-0.0041958 -0.0491561 0)
(-0.00483149 -0.0385901 0)
(-0.00218085 -0.0227161 0)
(-0.00310902 -0.0422152 0)
(-0.00307826 -0.0435847 0)
(-0.00298824 -0.0418986 0)
(-0.00328511 -0.0362532 0)
(-0.00341356 -0.0375436 0)
(-0.00334035 -0.0382978 0)
(-0.000489593 -0.0233238 0)
(-1.77887e-05 -0.0057125 0)
(-0.000144143 -0.0142797 0)
(-0.00068188 -0.0555468 0)
(-0.000729415 -0.0557577 0)
(-0.000781939 -0.0561481 0)
(-0.000186911 -0.0524522 0)
(-9.53971e-05 -0.0518886 0)
(-0.000118784 -0.0519452 0)
(-0.00149786 -0.0596858 0)
(-0.00158073 -0.060062 0)
(-0.00158084 -0.0602328 0)
(0.000616003 -0.0466808 0)
(0.000662508 -0.0465549 0)
(0.000778976 -0.0456286 0)
(0.000914314 -0.0453558 0)
(0.000801926 -0.0460956 0)
(0.000872324 -0.0457029 0)
(0.00121795 -0.0432651 0)
(0.00129131 -0.0428652 0)
(0.0013615 -0.0422896 0)
(0.00154025 -0.0409054 0)
(-0.00134068 -0.0458097 0)
(-0.0013976 -0.0456349 0)
(-0.00143203 -0.0466471 0)
(-0.00245087 -0.0575976 0)
(-0.002482 -0.0583644 0)
(-0.00241648 -0.0576871 0)
(-0.000902785 -0.0327722 0)
(-0.00102338 -0.0345603 0)
(-0.00100626 -0.0354261 0)
(-0.00260797 -0.065785 0)
(-0.00255011 -0.0654099 0)
(-0.00258249 -0.0654961 0)
(-0.00385616 -0.0584299 0)
(-0.00389633 -0.0586294 0)
(-0.00383839 -0.0591635 0)
(-0.00493467 -0.0423004 0)
(-0.00489851 -0.0435098 0)
(-0.00486187 -0.0428997 0)
(-0.00172963 -0.0151737 0)
(-0.00116558 -0.0108803 0)
(-0.000646119 -0.00482887 0)
(-0.00289335 -0.0349645 0)
(-0.00270605 -0.0322491 0)
(-0.00289198 -0.0331757 0)
(-0.00314372 -0.0397754 0)
(-0.00318981 -0.0415313 0)
(-0.00308788 -0.0405615 0)
(-0.00359128 -0.0473875 0)
(-0.00349437 -0.0464276 0)
(-0.00356958 -0.0459243 0)
(-0.00063174 -0.0220473 0)
(-0.00047018 -0.0179699 0)
(-0.000487182 -0.0170228 0)
(-0.000738985 -0.0263001 0)
(-0.000797527 -0.0263121 0)
(-0.00088028 -0.0294813 0)
(-0.000310679 -0.0149641 0)
(-0.000445267 -0.0194372 0)
(-0.000335737 -0.014138 0)
(-0.000106028 -0.0057046 0)
(-0.000644895 -0.0551769 0)
(-0.00063525 -0.0552056 0)
(-0.000546407 -0.0546122 0)
(-0.000976788 -0.0571805 0)
(-0.000923872 -0.0569385 0)
(-0.000879617 -0.0565984 0)
(-0.00028844 -0.0528988 0)
(-0.000252871 -0.0525452 0)
(-0.000228864 -0.0526229 0)
(-0.000292563 -0.0531081 0)
(-0.00169229 -0.0600878 0)
(-0.00176607 -0.0604559 0)
(-0.0017722 -0.0607028 0)
(0.000484112 -0.0482565 0)
(0.000610253 -0.0474329 0)
(0.000547566 -0.0477816 0)
(0.000741308 -0.0465705 0)
(0.000671999 -0.0469585 0)
(0.000788909 -0.0457867 0)
(0.000902826 -0.0451328 0)
(0.000916617 -0.0448406 0)
(-0.00148285 -0.0404347 0)
(-0.00157059 -0.0420441 0)
(-0.00150556 -0.0414368 0)
(-0.00180954 -0.0465547 0)
(-0.00187013 -0.0472953 0)
(-0.00186048 -0.0478037 0)
(-0.00260818 -0.0630501 0)
(-0.00256475 -0.0629264 0)
(-0.00256558 -0.0626762 0)
(-0.00130195 -0.0368286 0)
(-0.00124617 -0.0351679 0)
(-0.00131854 -0.0362353 0)
(-0.00264022 -0.0648411 0)
(-0.0025931 -0.0644839 0)
(-0.00262352 -0.0645562 0)
(-0.00208041 -0.0619382 0)
(-0.0021526 -0.0623963 0)
(-0.0021345 -0.0624703 0)
(-0.00507423 -0.0453597 0)
(-0.00508818 -0.0454215 0)
(-0.00503513 -0.0461141 0)
(-0.00424442 -0.0498941 0)
(-0.000591721 -0.00584161 0)
(-0.000615723 -0.00531799 0)
(-0.00195862 -0.0248719 0)
(-0.0022803 -0.029755 0)
(-0.00203895 -0.0274354 0)
(-0.003032 -0.0354566 0)
(-0.00306524 -0.0374769 0)
(-0.0043515 -0.0492218 0)
(-0.00428437 -0.0488894 0)
(-0.000592101 -0.0228029 0)
(-0.000864273 -0.0266641 0)
(-0.00088382 -0.0259881 0)
(-0.000957716 -0.0283029 0)
(-0.000219909 -0.01036 0)
(-0.000315504 -0.0117694 0)
(-0.000227975 -0.00949245 0)
(-0.000862697 -0.056087 0)
(-0.000937046 -0.056642 0)
(-0.000826247 -0.0559738 0)
(-0.000922587 -0.0567695 0)
(0.000107952 -0.0506638 0)
(0.000226447 -0.0499114 0)
(0.000174971 -0.0501607 0)
(4.81577e-05 -0.050689 0)
(-0.00239807 -0.0652163 0)
(-0.00243562 -0.0653532 0)
(-0.00246 -0.0655597 0)
(-0.00176527 -0.0618541 0)
(-0.00170727 -0.0614796 0)
(-0.00175162 -0.0616953 0)
(0.000445561 -0.0484542 0)
(0.00119114 -0.0433162 0)
(0.00110447 -0.0439659 0)
(-0.00165759 -0.0432497 0)
(-0.00174283 -0.0443263 0)
(-0.00170577 -0.0444761 0)
(-0.00276908 -0.0623535 0)
(-0.00280392 -0.0624192 0)
(-0.00281107 -0.0628198 0)
(-0.00275369 -0.0633853 0)
(-0.00279873 -0.063822 0)
(-0.00277017 -0.0638077 0)
(-0.00121522 -0.0372826 0)
(-0.0012447 -0.0367033 0)
(-0.00129644 -0.0384692 0)
(-0.00283208 -0.066809 0)
(-0.00286246 -0.0670867 0)
(-0.00282622 -0.0668969 0)
(-0.00246298 -0.0649839 0)
(-0.00243943 -0.0647239 0)
(-0.00249465 -0.0650603 0)
(-0.00530672 -0.0412035 0)
(-0.00449021 -0.0501723 0)
(-0.0045335 -0.049243 0)
(-0.00457691 -0.049328 0)
(-0.00374337 -0.0576779 0)
(-0.00375486 -0.0582499 0)
(-0.00370185 -0.0583247 0)
(-0.00349407 -0.0514445 0)
(-0.0035574 -0.0518814 0)
(-0.0034869 -0.0525157 0)
(-0.00107529 -0.0111859 0)
(-0.00165297 -0.0168047 0)
(-0.00188377 -0.0217008 0)
(-0.00127697 -0.0145493 0)
(-0.00253848 -0.03334 0)
(-0.00250662 -0.0311648 0)
(-0.00272992 -0.0447631 0)
(-0.00268224 -0.0431646 0)
(-0.00278343 -0.0443543 0)
(-0.0031328 -0.0556004 0)
(-0.00307771 -0.0548113 0)
(-0.00311269 -0.0547909 0)
(-0.00104879 -0.0305605 0)
(-0.000970018 -0.0293303 0)
(-0.000116819 -0.00522086 0)
(-0.000570696 -0.0548643 0)
(-0.00105739 -0.0577011 0)
(-0.00106472 -0.0578221 0)
(-0.000999937 -0.0573972 0)
(8.18703e-05 -0.0506782 0)
(6.47782e-05 -0.0508789 0)
(-0.000437053 -0.0539289 0)
(-0.000396938 -0.0537543 0)
(-0.000336078 -0.0532975 0)
(-0.00214032 -0.0639546 0)
(-0.00213259 -0.0638503 0)
(-0.00218383 -0.064174 0)
(-0.00169852 -0.0614896 0)
(-0.00162644 -0.0610736 0)
(-0.00166189 -0.061236 0)
(-0.00185593 -0.0623276 0)
(-0.00183453 -0.0622539 0)
(-0.00180715 -0.0620376 0)
(-0.00232169 -0.0541679 0)
(-0.00230146 -0.0533876 0)
(-0.00236213 -0.0542147 0)
(-0.00121563 -0.0352129 0)
(-0.0011539 -0.0332641 0)
(-0.00249274 -0.0558359 0)
(-0.00254087 -0.0561488 0)
(-0.00254842 -0.0567116 0)
(-0.0031524 -0.0643976 0)
(-0.0031233 -0.064318 0)
(-0.00313667 -0.0640207 0)
(-0.00260448 -0.0542424 0)
(-0.00262758 -0.0551454 0)
(-0.00256868 -0.0542753 0)
(-0.00277159 -0.0656835 0)
(-0.00279938 -0.0659336 0)
(-0.00277605 -0.0659052 0)
(-0.00104522 -0.031557 0)
(-0.00282071 -0.0669769 0)
(-0.00284728 -0.0670959 0)
(-0.00278794 -0.0668165 0)
(-0.00281771 -0.0670784 0)
(-0.00278255 -0.0668737 0)
(-0.00259711 -0.0661556 0)
(-0.00256376 -0.0660224 0)
(-0.00254966 -0.0658448 0)
(-0.00513647 -0.0440356 0)
(-0.00520648 -0.0430261 0)
(-0.00516074 -0.0440331 0)
(-0.00501047 -0.046796 0)
(-0.0050391 -0.0465187 0)
(-0.00498829 -0.0473677 0)
(-0.00470815 -0.0503709 0)
(-0.00477492 -0.0495647 0)
(-0.00473509 -0.0504622 0)
(-0.00434945 -0.0545287 0)
(-0.00440392 -0.0537315 0)
(-0.00441889 -0.0539455 0)
(-0.00401613 -0.0586873 0)
(-0.00403144 -0.0581218 0)
(-0.00406226 -0.0581384 0)
(-0.00393478 -0.0590969 0)
(-0.00398014 -0.0586397 0)
(-0.00396288 -0.0591538 0)
(-0.00334973 -0.0588415 0)
(-0.00336263 -0.0596346 0)
(-0.00331421 -0.0593501 0)
(-0.00062089 -0.00698601 0)
(-0.000902572 -0.0112288 0)
(-0.00175217 -0.0237083 0)
(-0.00194926 -0.0276536 0)
(-0.00161323 -0.0234681 0)
(-0.00174973 -0.0282997 0)
(-0.00190887 -0.0301672 0)
(-0.00188646 -0.0310686 0)
(-0.00284746 -0.0438942 0)
(-0.00294304 -0.0456735 0)
(-0.00286857 -0.0454084 0)
(-0.00267668 -0.0523825 0)
(-0.0026881 -0.0517406 0)
(-0.0027406 -0.0529015 0)
(-0.000648834 -0.0201264 0)
(-0.000505532 -0.0164664 0)
(-0.000511949 -0.0156633 0)
(-0.000641399 -0.0189914 0)
(-0.000696781 -0.0198068 0)
(-0.000770528 -0.0225295 0)
(-0.000140119 -0.00551018 0)
(-0.000275136 -0.00940912 0)
(-0.000175073 -0.00634043 0)
(-0.000469742 -0.0540384 0)
(-0.00127523 -0.0589536 0)
(-0.00125621 -0.0587488 0)
(-0.00134356 -0.0593078 0)
(-0.000382165 -0.053511 0)
(-0.00199685 -0.0630981 0)
(-0.00196061 -0.0629495 0)
(-0.00194705 -0.0627897 0)
(-0.00210413 -0.0637723 0)
(-0.00213592 -0.0639808 0)
(-0.00161173 -0.0609214 0)
(-0.00165755 -0.0611531 0)
(-0.00189991 -0.0625551 0)
(-0.00189348 -0.0625821 0)
(-0.00143107 -0.0349734 0)
(-0.00144245 -0.0344357 0)
(-0.00152154 -0.0365168 0)
(-0.00196545 -0.0428066 0)
(-0.00189775 -0.0411615 0)
(-0.00198434 -0.042479 0)
(-0.00294926 -0.0630214 0)
(-0.0029711 -0.0634704 0)
(-0.00292717 -0.0631026 0)
(-0.00305871 -0.066432 0)
(-0.00306718 -0.0662797 0)
(-0.0030835 -0.0665394 0)
(-0.00285143 -0.0567527 0)
(-0.00284039 -0.0573695 0)
(-0.0028022 -0.0565794 0)
(-0.00306774 -0.0671684 0)
(-0.00309119 -0.0673067 0)
(-0.00307819 -0.0673764 0)
(-0.00110874 -0.0293702 0)
(-0.00101943 -0.0278598 0)
(-0.00102604 -0.0272662 0)
(-0.00295759 -0.0684202 0)
(-0.002977 -0.06856 0)
(-0.00295048 -0.068442 0)
(-0.00268267 -0.0666651 0)
(-0.00264149 -0.0664236 0)
(-0.00266632 -0.0664831 0)
(-0.00252457 -0.0661229 0)
(-0.002496 -0.0659877 0)
(-0.0024834 -0.0658775 0)
(-0.00257487 -0.0663763 0)
(-0.0026074 -0.0665466 0)
(-0.00259531 -0.0665369 0)
(-0.00514382 -0.0446134 0)
(-0.00508817 -0.0456615 0)
(-0.00519182 -0.0436636 0)
(-0.00493202 -0.0482692 0)
(-0.00488317 -0.0488715 0)
(-0.00491526 -0.0482853 0)
(-0.00498809 -0.0469093 0)
(-0.00498738 -0.0466001 0)
(-0.00526224 -0.0421786 0)
(-0.00529476 -0.0417916 0)
(-0.00487785 -0.0486393 0)
(-0.00483091 -0.0494481 0)
(-0.00483298 -0.0490298 0)
(-0.00477858 -0.0507145 0)
(-0.00475833 -0.0507416 0)
(-0.00480537 -0.0500963 0)
(-0.00451066 -0.0543105 0)
(-0.00445628 -0.055026 0)
(-0.00448372 -0.0544853 0)
(-0.0041787 -0.0576185 0)
(-0.00422937 -0.0571577 0)
(-0.00420448 -0.0576154 0)
(-0.0040954 -0.0587984 0)
(-0.00405076 -0.059039 0)
(-0.00409545 -0.0585058 0)
(-0.00353793 -0.0615768 0)
(-0.00351943 -0.0622064 0)
(-0.00349654 -0.0619616 0)
(-0.00285855 -0.0592038 0)
(-0.00290868 -0.0593476 0)
(-0.00290049 -0.0598171 0)
(-0.000416402 -0.00517415 0)
(-0.00147102 -0.0186216 0)
(-0.00105775 -0.0142729 0)
(-0.0010771 -0.0166688 0)
(-0.00137179 -0.0209276 0)
(-0.00131202 -0.0211486 0)
(-0.00117613 -0.01707 0)
(-0.00142144 -0.0195221 0)
(-0.00200779 -0.0338306 0)
(-0.00183456 -0.0313332 0)
(-0.00208646 -0.0381672 0)
(-0.00210053 -0.0374851 0)
(-0.00219427 -0.0396606 0)
(-0.00258055 -0.0485235 0)
(-0.00256383 -0.0490278 0)
(-0.0025077 -0.047963 0)
(-0.000394789 -0.0134818 0)
(-0.000382658 -0.012353 0)
(-0.000747527 -0.0203553 0)
(-0.000821124 -0.0228709 0)
(-0.000861924 -0.0232379 0)
(-0.000840842 -0.0221606 0)
(-0.000959093 -0.0251748 0)
(-0.000133272 -0.00453706 0)
(-0.00120146 -0.0585666 0)
(-0.00127961 -0.0590427 0)
(-0.00207796 -0.0633866 0)
(-0.00214218 -0.0637133 0)
(-0.00214272 -0.0637905 0)
(-0.00223692 -0.0644535 0)
(-0.00226887 -0.064702 0)
(-0.00222593 -0.064454 0)
(-0.00155028 -0.060533 0)
(-0.00148188 -0.0601031 0)
(-0.00154072 -0.0603947 0)
(-0.00204735 -0.0633947 0)
(-0.00201743 -0.0632677 0)
(-0.0021221 -0.0440839 0)
(-0.0021235 -0.0433302 0)
(-0.00219134 -0.045019 0)
(-0.00162897 -0.035704 0)
(-0.00171489 -0.0376684 0)
(-0.00162169 -0.0362903 0)
(-0.00136053 -0.0326247 0)
(-0.00134325 -0.0329775 0)
(-0.00328725 -0.0653896 0)
(-0.00327721 -0.0656192 0)
(-0.00326671 -0.0653616 0)
(-0.00323916 -0.068286 0)
(-0.00325579 -0.0682845 0)
(-0.00324757 -0.0684124 0)
(-0.00309627 -0.0684033 0)
(-0.0030989 -0.0685368 0)
(-0.00307957 -0.0683809 0)
(-0.00109373 -0.0281751 0)
(-0.00121534 -0.0302922 0)
(-0.00119497 -0.0307731 0)
(-0.00302371 -0.0685037 0)
(-0.0030265 -0.0686498 0)
(-0.00300551 -0.0684689 0)
(-0.00297101 -0.068463 0)
(-0.00283365 -0.0676476 0)
(-0.00284837 -0.0676789 0)
(-0.00286729 -0.0678434 0)
(-0.0027584 -0.0673606 0)
(-0.00278579 -0.0675561 0)
(-0.00275918 -0.0674187 0)
(-0.00243917 -0.0657124 0)
(-0.00246219 -0.0657981 0)
(-0.00248553 -0.0659669 0)
(-0.00262363 -0.0666843 0)
(-0.00264999 -0.0668153 0)
(-0.00519638 -0.0437519 0)
(-0.00491717 -0.0480197 0)
(-0.00495786 -0.0476007 0)
(-0.00525515 -0.0419668 0)
(-0.00488118 -0.0491317 0)
(-0.00473583 -0.0512275 0)
(-0.00483287 -0.0498984 0)
(-0.00484791 -0.0494931 0)
(-0.0045084 -0.0537606 0)
(-0.00452411 -0.053894 0)
(-0.00448351 -0.0542928 0)
(-0.00457373 -0.0533155 0)
(-0.0045504 -0.0537686 0)
(-0.00419028 -0.0584056 0)
(-0.00421387 -0.0583407 0)
(-0.00418124 -0.0587031 0)
(-0.00409217 -0.0599096 0)
(-0.00404991 -0.0603629 0)
(-0.00407522 -0.0598616 0)
(-0.00386777 -0.0625431 0)
(-0.00390014 -0.0622124 0)
(-0.00389019 -0.0624522 0)
(-0.00400362 -0.0602914 0)
(-0.00396968 -0.0607562 0)
(-0.0039688 -0.060509 0)
(-0.00342193 -0.0617853 0)
(-0.00343288 -0.0612285 0)
(-0.00345683 -0.0615157 0)
(-0.000519808 -0.007012 0)
(-0.00164102 -0.0255992 0)
(-0.00157064 -0.0256008 0)
(-0.000949042 -0.015422 0)
(-0.000430905 -0.006292 0)
(-0.000804563 -0.0114274 0)
(-0.0022261 -0.0418192 0)
(-0.00212944 -0.0404165 0)
(-0.0021657 -0.0401217 0)
(-0.00242079 -0.0405067 0)
(-0.00242563 -0.0417263 0)
(-0.00232342 -0.0398317 0)
(-0.000471073 -0.0133401 0)
(-0.0004583 -0.0135414 0)
(-0.000356179 -0.0104652 0)
(-0.000367318 -0.0112644 0)
(-0.00101971 -0.0259131 0)
(-0.00061598 -0.0171697 0)
(-0.000553712 -0.0151776 0)
(-0.000645543 -0.0174015 0)
(-0.000234283 -0.00750889 0)
(-0.00133457 -0.0591622 0)
(-0.00126541 -0.0587087 0)
(-0.00132192 -0.0589874 0)
(-0.00198607 -0.0629759 0)
(-0.00203061 -0.0632391 0)
(-0.00229963 -0.0649223 0)
(-0.00224606 -0.0646247 0)
(-0.00143164 -0.0599205 0)
(-0.00140308 -0.0598014 0)
(-0.00135443 -0.0594577 0)
(-0.00205714 -0.0414829 0)
(-0.00204393 -0.0419959 0)
(-0.00153896 -0.0337594 0)
(-0.00155933 -0.0347368 0)
(-0.0012576 -0.0293429 0)
(-0.00129082 -0.0294943 0)
(-0.00136658 -0.0314748 0)
(-0.00330771 -0.0665199 0)
(-0.00329463 -0.0663222 0)
(-0.00331691 -0.0662528 0)
(-0.00318479 -0.0678413 0)
(-0.00319887 -0.0679408 0)
(-0.00318262 -0.0679921 0)
(-0.0032147 -0.0685747 0)
(-0.00322037 -0.0684622 0)
(-0.00323063 -0.0685891 0)
(-0.00306955 -0.0687832 0)
(-0.00307935 -0.0687326 0)
(-0.0030912 -0.0689182 0)
(-0.00314573 -0.0685655 0)
(-0.00316781 -0.0686748 0)
(-0.00315563 -0.0687281 0)
(-0.00305018 -0.0687207 0)
(-0.00307477 -0.0689306 0)
(-0.00306468 -0.0689729 0)
(-0.00308624 -0.0691306 0)
(-0.00305888 -0.0690314 0)
(-0.00303887 -0.0688364 0)
(-0.00301668 -0.0687503 0)
(-0.00300937 -0.0686341 0)
(-0.00294045 -0.0683207 0)
(-0.00292837 -0.0683554 0)
(-0.0029082 -0.0682638 0)
(-0.00290569 -0.0682006 0)
(-0.00295328 -0.0682291 0)
(-0.00297938 -0.0683293 0)
(-0.00297922 -0.0684383 0)
(-0.00285033 -0.0678807 0)
(-0.00287835 -0.0680216 0)
(-0.00287133 -0.0680289 0)
(-0.00280947 -0.0676979 0)
(-0.00280276 -0.0676995 0)
(-0.00250594 -0.0659663 0)
(-0.00254318 -0.0661851 0)
(-0.00461065 -0.0517528 0)
(-0.00455709 -0.0525835 0)
(-0.00454832 -0.052265 0)
(-0.00438436 -0.056084 0)
(-0.00442705 -0.0556026 0)
(-0.00440299 -0.0560294 0)
(-0.00454523 -0.054031 0)
(-0.00422544 -0.0585322 0)
(-0.00419494 -0.0587424 0)
(-0.00423202 -0.0583039 0)
(-0.00426644 -0.0579712 0)
(-0.00404012 -0.0597382 0)
(-0.0040398 -0.0600542 0)
(-0.00414476 -0.0595447 0)
(-0.00410537 -0.0599447 0)
(-0.00413111 -0.0595206 0)
(-0.00350769 -0.0649882 0)
(-0.00347901 -0.0650108 0)
(-0.00350222 -0.0647414 0)
(-0.00372446 -0.0644978 0)
(-0.00371197 -0.0645012 0)
(-0.00373542 -0.0642507 0)
(-0.00385647 -0.0623945 0)
(-0.00389396 -0.0619087 0)
(-0.00388644 -0.0621954 0)
(-0.00395313 -0.0617896 0)
(-0.00393526 -0.062089 0)
(-0.00393099 -0.0619305 0)
(-0.00144429 -0.0243765 0)
(-0.00111022 -0.0188853 0)
(-0.000799022 -0.0119731 0)
(-0.00160485 -0.0306941 0)
(-0.00175504 -0.0334729 0)
(-0.00169559 -0.0329562 0)
(-0.000245412 -0.00744247 0)
(-0.000236516 -0.00690588 0)
(-0.000330589 -0.00940134 0)
(-0.000737255 -0.0194239 0)
(-0.000557399 -0.0148589 0)
(-0.000121177 -0.00375368 0)
(-9.99034e-05 -0.00323468 0)
(-0.00234691 -0.0651708 0)
(-0.00234197 -0.0650798 0)
(-0.00237805 -0.0653127 0)
(-0.002197 -0.0429756 0)
(-0.00227733 -0.0443377 0)
(-0.00222922 -0.0441 0)
(-0.00140622 -0.032994 0)
(-0.00130722 -0.0310303 0)
(-0.00191035 -0.0400092 0)
(-0.001803 -0.0379492 0)
(-0.00188877 -0.038926 0)
(-0.00346627 -0.0667497 0)
(-0.0034718 -0.0665054 0)
(-0.0034859 -0.0665544 0)
(-0.00329611 -0.0689975 0)
(-0.00331719 -0.0689899 0)
(-0.00331035 -0.0691186 0)
(-0.00322058 -0.0689354 0)
(-0.00322865 -0.0688288 0)
(-0.00324676 -0.0689555 0)
(-0.00314924 -0.0693145 0)
(-0.0031651 -0.0692149 0)
(-0.00318239 -0.0693053 0)
(-0.00314633 -0.0689976 0)
(-0.00315745 -0.068943 0)
(-0.00316843 -0.0690862 0)
(-0.00303155 -0.068892 0)
(-0.00289028 -0.0681375 0)
(-0.00285298 -0.0679494 0)
(-0.00277153 -0.0675351 0)
(-0.00239402 -0.0654398 0)
(-0.00241895 -0.0655475 0)
(-0.00269931 -0.067012 0)
(-0.00267916 -0.0669365 0)
(-0.00267017 -0.0668141 0)
(-0.00464127 -0.052628 0)
(-0.00468754 -0.0518918 0)
(-0.00467868 -0.0522458 0)
(-0.00436884 -0.0560409 0)
(-0.00433951 -0.0565709 0)
(-0.00464182 -0.0524133 0)
(-0.00418658 -0.0590296 0)
(-0.00429009 -0.05751 0)
(-0.00431389 -0.0570558 0)
(-0.00432568 -0.0570865 0)
(-0.00400255 -0.0605773 0)
(-0.00361621 -0.0653401 0)
(-0.00362244 -0.0650588 0)
(-0.00364451 -0.0650274 0)
(-0.00378327 -0.0636601 0)
(-0.00381449 -0.0633016 0)
(-0.0038105 -0.0635095 0)
(-0.00390056 -0.0625001 0)
(-0.00386976 -0.0627445 0)
(-0.00400077 -0.0613195 0)
(-0.00397473 -0.0615412 0)
(-0.00398978 -0.0612711 0)
(-0.00162816 -0.0283903 0)
(-0.00134106 -0.0236797 0)
(-0.000751728 -0.0126995 0)
(-0.000603973 -0.00980723 0)
(-0.000478019 -0.00740631 0)
(-0.00142676 -0.0270664 0)
(-0.00156668 -0.0290359 0)
(-0.00159264 -0.031475 0)
(-0.000214658 -0.00607573 0)
(-0.000469733 -0.0128279 0)
(-0.000390746 -0.0108523 0)
(-0.000816137 -0.0210061 0)
(-0.000915602 -0.0235069 0)
(-0.000813359 -0.020476 0)
(-0.000881668 -0.0222833 0)
(-0.00071049 -0.0182021 0)
(-0.000625591 -0.0159512 0)
(-0.00066885 -0.0167795 0)
(-0.00242985 -0.065519 0)
(-0.00239496 -0.0653578 0)
(-0.00239871 -0.0653072 0)
(-0.00144724 -0.030028 0)
(-0.00142627 -0.0303179 0)
(-0.00133076 -0.0280585 0)
(-0.000872785 -0.021141 0)
(-0.000988486 -0.0240729 0)
(-0.000893245 -0.0221327 0)
(-0.00345209 -0.0665646 0)
(-0.003434 -0.0667061 0)
(-0.0034421 -0.0665179 0)
(-0.00333234 -0.0684366 0)
(-0.00331993 -0.0683568 0)
(-0.00333684 -0.0683283 0)
(-0.00324938 -0.0692522 0)
(-0.00329184 -0.0692594 0)
(-0.00326531 -0.069338 0)
(-0.00320425 -0.0688006 0)
(-0.00311811 -0.0690637 0)
(-0.00313866 -0.0692003 0)
(-0.00311675 -0.0692272 0)
(-0.0027874 -0.0674875 0)
(-0.00273371 -0.067298 0)
(-0.00270339 -0.0671485 0)
(-0.0027022 -0.0671027 0)
(-0.00436 -0.056565 0)
(-0.00398448 -0.0609816 0)
(-0.00396684 -0.0609973 0)
(-0.00352468 -0.0664714 0)
(-0.00352946 -0.0665406 0)
(-0.00351217 -0.0666461 0)
(-0.00367467 -0.0650774 0)
(-0.00369658 -0.0647735 0)
(-0.00369604 -0.0649564 0)
(-0.00377228 -0.0640259 0)
(-0.00379049 -0.0637836 0)
(-0.00379052 -0.0639278 0)
(-0.00384177 -0.063172 0)
(-0.00384116 -0.0629487 0)
(-0.00404328 -0.0606545 0)
(-0.0040167 -0.0610092 0)
(-0.00401061 -0.0608889 0)
(-0.000243357 -0.00393899 0)
(-0.000849283 -0.0149079 0)
(-0.000552947 -0.0096422 0)
(-0.00105184 -0.0203265 0)
(-0.00105049 -0.0196656 0)
(-0.00123356 -0.0232518 0)
(-0.000144215 -0.00430553 0)
(-0.000117541 -0.00340603 0)
(-0.000510797 -0.013342 0)
(-0.000454821 -0.012121 0)
(-0.000273931 -0.00738069 0)
(-0.000376624 -0.0102208 0)
(-0.000297816 -0.00824137 0)
(-0.000965166 -0.0230627 0)
(-0.000602692 -0.0156506 0)
(-0.0010979 -0.0254805 0)
(-0.00120116 -0.0276294 0)
(-0.00115604 -0.0272198 0)
(-0.00125108 -0.0274091 0)
(-0.0012532 -0.0281246 0)
(-0.00116148 -0.0257977 0)
(-0.00116687 -0.0230717 0)
(-0.00113542 -0.0229715 0)
(-0.00102306 -0.0203834 0)
(-0.00105278 -0.0250042 0)
(-0.00110462 -0.0266485 0)
(-0.00340606 -0.0683861 0)
(-0.00339351 -0.0684114 0)
(-0.00340502 -0.0682874 0)
(-0.00341627 -0.0681379 0)
(-0.00342975 -0.0680844 0)
(-0.00342007 -0.0682462 0)
(-0.00335468 -0.0687388 0)
(-0.00335724 -0.0686084 0)
(-0.00336661 -0.0686341 0)
(-0.00328621 -0.069121 0)
(-0.0033026 -0.0691911 0)
(-0.00319818 -0.0691167 0)
(-0.0032132 -0.069215 0)
(-0.0031868 -0.0691818 0)
(-0.0032607 -0.0691629 0)
(-0.00352976 -0.0668753 0)
(-0.00351286 -0.0669995 0)
(-0.00352098 -0.0668507 0)
(-0.00353614 -0.0669512 0)
(-0.00351808 -0.0671444 0)
(-0.00352058 -0.0670304 0)
(-0.00367814 -0.0651761 0)
(-0.00365597 -0.0653568 0)
(-0.00374998 -0.0642418 0)
(-0.00376514 -0.0642062 0)
(-0.000401598 -0.00677671 0)
(-0.00026418 -0.00460089 0)
(-0.000104321 -0.00293009 0)
(-0.000193907 -0.00534017 0)
(-0.000433552 -0.0113523 0)
(-0.000681016 -0.016406 0)
(-0.00077083 -0.0186195 0)
(-0.000702051 -0.0172424 0)
(-0.000751921 -0.0187513 0)
(-0.000785112 -0.0192465 0)
(-0.000824746 -0.0203864 0)
(-0.00051049 -0.0129046 0)
(-0.000587837 -0.0148112 0)
(-0.00055 -0.0140917 0)
(-0.0011374 -0.025808 0)
(-0.00103244 -0.0236435 0)
(-0.00106046 -0.0237855 0)
(-0.00107915 -0.0237226 0)
(-0.00097797 -0.0217012 0)
(-0.00108922 -0.0226186 0)
(-0.00121981 -0.0250158 0)
(-0.00121822 -0.0255059 0)
(-0.00084226 -0.0195975 0)
(-0.000762952 -0.0176103 0)