/*--------------------------------*- C++ -*----------------------------------*\
| =========                 |                                                 |
| \\      /  F ield         | OpenFOAM: The Open Source CFD Toolbox           |
|  \\    /   O peration     | Version:  v2012                                 |
|   \\  /    A nd           | Website:  www.openfoam.com                      |
|    \\/     M anipulation  |                                                 |
\*---------------------------------------------------------------------------*/
FoamFile
{
    version     2.0;
    format      ascii;
    class       volScalarField;
    location    "2";
    object      rAU;
}
// * * * * * * * * * * * * * * * * * * * * * * * * * * * * * * * * * * * * * //

dimensions      [-1 3 1 0 0 0 0];


internalField   nonuniform List<scalar> 
13611
(
2.40077e-08
2.39826e-08
2.40563e-08
2.40003e-08
2.4022e-08
2.40186e-08
2.40291e-08
2.40153e-08
2.39666e-08
2.40243e-08
2.40254e-08
2.40267e-08
2.40403e-08
2.4056e-08
2.38949e-08
2.40294e-08
2.40289e-08
2.40121e-08
2.40521e-08
2.39904e-08
2.40167e-08
2.38784e-08
2.38962e-08
2.39471e-08
2.39488e-08
2.40366e-08
2.40319e-08
2.40517e-08
2.40577e-08
2.39086e-08
2.39327e-08
2.38889e-08
2.39531e-08
2.40432e-08
2.40605e-08
2.40015e-08
2.40009e-08
2.40187e-08
2.38686e-08
2.39358e-08
2.39504e-08
2.3926e-08
2.39282e-08
2.40312e-08
2.40354e-08
2.40274e-08
2.40575e-08
2.40519e-08
2.38935e-08
2.3817e-08
2.39011e-08
2.39346e-08
2.393e-08
2.39649e-08
2.40187e-08
2.40254e-08
2.40002e-08
2.40446e-08
2.40181e-08
2.40301e-08
2.38916e-08
2.38396e-08
2.39036e-08
2.3902e-08
2.38129e-08
2.38998e-08
2.38732e-08
2.39548e-08
2.39427e-08
2.40028e-08
2.40304e-08
2.40456e-08
2.40585e-08
2.40276e-08
2.38878e-08
2.38576e-08
2.38612e-08
2.38148e-08
2.39028e-08
2.38952e-08
2.38804e-08
2.39368e-08
2.39729e-08
2.39297e-08
2.401e-08
2.40354e-08
2.4036e-08
2.40201e-08
2.40195e-08
2.38835e-08
2.37559e-08
2.38548e-08
2.38888e-08
2.38383e-08
2.37721e-08
2.38892e-08
2.38772e-08
2.39379e-08
2.39233e-08
2.38979e-08
2.39902e-08
2.40232e-08
2.4038e-08
2.40262e-08
2.40221e-08
2.37799e-08
2.3922e-08
2.39178e-08
2.38913e-08
2.38452e-08
2.38315e-08
2.38011e-08
2.38904e-08
2.38249e-08
2.38603e-08
2.3902e-08
2.39304e-08
2.3935e-08
2.39627e-08
2.40617e-08
2.4061e-08
2.40367e-08
2.406e-08
2.40172e-08
2.39888e-08
2.38293e-08
2.39214e-08
2.3922e-08
2.38109e-08
2.38815e-08
2.37586e-08
2.38797e-08
2.38471e-08
2.39033e-08
2.39309e-08
2.39718e-08
2.39528e-08
2.40216e-08
2.40437e-08
2.39726e-08
2.40461e-08
2.40108e-08
2.40214e-08
2.37919e-08
2.37823e-08
2.38086e-08
2.37719e-08
2.38458e-08
2.38933e-08
2.37664e-08
2.37539e-08
2.38908e-08
2.3833e-08
2.38644e-08
2.39193e-08
2.39686e-08
2.39324e-08
2.40557e-08
2.40571e-08
2.40457e-08
2.39628e-08
2.39625e-08
2.40606e-08
2.40506e-08
2.40268e-08
2.37411e-08
2.37754e-08
2.37924e-08
2.38256e-08
2.3761e-08
2.38327e-08
2.38344e-08
2.37531e-08
2.37405e-08
2.38483e-08
2.38493e-08
2.37815e-08
2.38659e-08
2.38887e-08
2.38841e-08
2.3932e-08
2.39919e-08
2.40374e-08
2.39919e-08
2.392e-08
2.39558e-08
2.40417e-08
2.40358e-08
2.36949e-08
2.37545e-08
2.38373e-08
2.37415e-08
2.38134e-08
2.37373e-08
2.38217e-08
2.3859e-08
2.37518e-08
2.37589e-08
2.38481e-08
2.38628e-08
2.38798e-08
2.38764e-08
2.39257e-08
2.38669e-08
2.40086e-08
2.4056e-08
2.40377e-08
2.40055e-08
2.39558e-08
2.39062e-08
2.40448e-08
2.40613e-08
2.40406e-08
2.36673e-08
2.37394e-08
2.38319e-08
2.37485e-08
2.3802e-08
2.37366e-08
2.38322e-08
2.38647e-08
2.37407e-08
2.37593e-08
2.38306e-08
2.38534e-08
2.38663e-08
2.38404e-08
2.38831e-08
2.39358e-08
2.40511e-08
2.40143e-08
2.40228e-08
2.39869e-08
2.39051e-08
2.39059e-08
2.40282e-08
2.40446e-08
2.40434e-08
2.38453e-08
2.36991e-08
2.36293e-08
2.36778e-08
2.378e-08
2.38013e-08
2.37177e-08
2.3848e-08
2.37331e-08
2.37392e-08
2.38213e-08
2.37625e-08
2.38387e-08
2.37513e-08
2.37875e-08
2.38361e-08
2.39061e-08
2.39127e-08
2.40459e-08
2.40198e-08
2.39894e-08
2.40195e-08
2.39307e-08
2.39561e-08
2.39291e-08
2.4045e-08
2.40357e-08
2.40622e-08
2.38436e-08
2.36969e-08
2.37715e-08
2.36341e-08
2.36881e-08
2.37633e-08
2.37706e-08
2.37613e-08
2.37338e-08
2.37784e-08
2.37055e-08
2.37348e-08
2.37999e-08
2.37749e-08
2.38197e-08
2.37997e-08
2.38003e-08
2.38206e-08
2.38143e-08
2.39297e-08
2.40649e-08
2.40685e-08
2.40103e-08
2.40073e-08
2.39523e-08
2.39473e-08
2.39126e-08
2.39282e-08
2.4007e-08
2.40557e-08
2.40152e-08
2.37526e-08
2.37277e-08
2.37523e-08
2.37431e-08
2.36488e-08
2.37128e-08
2.36984e-08
2.37712e-08
2.37585e-08
2.37892e-08
2.37181e-08
2.37405e-08
2.35866e-08
2.36966e-08
2.38264e-08
2.3807e-08
2.38452e-08
2.38076e-08
2.37874e-08
2.3793e-08
2.37905e-08
2.39125e-08
2.40511e-08
2.40462e-08
2.40166e-08
2.40076e-08
2.39687e-08
2.39641e-08
2.38928e-08
2.39123e-08
2.40101e-08
2.40276e-08
2.37524e-08
2.37251e-08
2.37198e-08
2.37499e-08
2.37117e-08
2.37068e-08
2.36989e-08
2.37584e-08
2.37556e-08
2.37469e-08
2.37138e-08
2.37423e-08
2.36361e-08
2.36869e-08
2.37447e-08
2.37927e-08
2.37402e-08
2.38154e-08
2.38e-08
2.37919e-08
2.38041e-08
2.37926e-08
2.40504e-08
2.40505e-08
2.40546e-08
2.40169e-08
2.39951e-08
2.39891e-08
2.39348e-08
2.39634e-08
2.39165e-08
2.40502e-08
2.40635e-08
2.40159e-08
2.37439e-08
2.36441e-08
2.37099e-08
2.3588e-08
2.37228e-08
2.35203e-08
2.35348e-08
2.35235e-08
2.37583e-08
2.37553e-08
2.36329e-08
2.37085e-08
2.37493e-08
2.3632e-08
2.37215e-08
2.37165e-08
2.34624e-08
2.37729e-08
2.35607e-08
2.38157e-08
2.38005e-08
2.37901e-08
2.37877e-08
2.38334e-08
2.40244e-08
2.40222e-08
2.40365e-08
2.40021e-08
2.39959e-08
2.39805e-08
2.39213e-08
2.39615e-08
2.38561e-08
2.40616e-08
2.40179e-08
2.4053e-08
2.37396e-08
2.36861e-08
2.35138e-08
2.36517e-08
2.3623e-08
2.36067e-08
2.3708e-08
2.35365e-08
2.36793e-08
2.37309e-08
2.37386e-08
2.37755e-08
2.37484e-08
2.37237e-08
2.37875e-08
2.36673e-08
2.37106e-08
2.37617e-08
2.38117e-08
2.37922e-08
2.37952e-08
2.37189e-08
2.38265e-08
2.40509e-08
2.40352e-08
2.40159e-08
2.40529e-08
2.40499e-08
2.3997e-08
2.39955e-08
2.39014e-08
2.39309e-08
2.38224e-08
2.38287e-08
2.38294e-08
2.40411e-08
2.40295e-08
2.4064e-08
2.40512e-08
2.40662e-08
2.40701e-08
2.36615e-08
2.36258e-08
2.3628e-08
2.36324e-08
2.36442e-08
2.36573e-08
2.36983e-08
2.36978e-08
2.37307e-08
2.37378e-08
2.37664e-08
2.3736e-08
2.36765e-08
2.35722e-08
2.36981e-08
2.3774e-08
2.36313e-08
2.37602e-08
2.38329e-08
2.38009e-08
2.37633e-08
2.37454e-08
2.36387e-08
2.40423e-08
2.40294e-08
2.40012e-08
2.40241e-08
2.40499e-08
2.39789e-08
2.39849e-08
2.38975e-08
2.39355e-08
2.38712e-08
2.3841e-08
2.38425e-08
2.38271e-08
2.40233e-08
2.4014e-08
2.40495e-08
2.40659e-08
2.40478e-08
2.39902e-08
2.40651e-08
2.40806e-08
2.37135e-08
2.36153e-08
2.36751e-08
2.36252e-08
2.37144e-08
2.36302e-08
2.35307e-08
2.34857e-08
2.35592e-08
2.37091e-08
2.37125e-08
2.3677e-08
2.37345e-08
2.34923e-08
2.36916e-08
2.36129e-08
2.37193e-08
2.36299e-08
2.38278e-08
2.37805e-08
2.37636e-08
2.37083e-08
2.36779e-08
2.40603e-08
2.401e-08
2.40265e-08
2.39967e-08
2.40682e-08
2.40384e-08
2.39712e-08
2.39264e-08
2.38909e-08
2.39353e-08
2.38605e-08
2.38434e-08
2.38448e-08
2.38419e-08
2.40545e-08
2.40642e-08
2.40547e-08
2.4055e-08
2.40615e-08
2.40505e-08
2.40709e-08
2.3982e-08
2.4064e-08
2.40721e-08
2.36951e-08
2.36464e-08
2.35853e-08
2.36251e-08
2.36669e-08
2.36288e-08
2.35628e-08
2.35422e-08
2.34969e-08
2.37258e-08
2.37073e-08
2.3678e-08
2.37197e-08
2.34844e-08
2.35375e-08
2.37586e-08
2.35612e-08
2.35687e-08
2.36754e-08
2.36593e-08
2.38351e-08
2.37215e-08
2.37559e-08
2.3728e-08
2.36686e-08
2.40275e-08
2.39965e-08
2.4003e-08
2.40578e-08
2.40367e-08
2.39224e-08
2.39119e-08
2.38624e-08
2.38164e-08
2.39197e-08
2.38619e-08
2.3844e-08
2.38477e-08
2.38603e-08
2.40094e-08
2.40221e-08
2.40568e-08
2.40453e-08
2.40707e-08
2.39836e-08
2.40315e-08
2.39752e-08
2.39606e-08
2.39174e-08
2.40685e-08
2.40804e-08
2.36157e-08
2.35999e-08
2.3601e-08
2.35661e-08
2.36016e-08
2.35463e-08
2.34571e-08
2.35307e-08
2.36497e-08
2.35961e-08
2.355e-08
2.3567e-08
2.37238e-08
2.35539e-08
2.34892e-08
2.35776e-08
2.36903e-08
2.36709e-08
2.36085e-08
2.36792e-08
2.36975e-08
2.38328e-08
2.37796e-08
2.37921e-08
2.3677e-08
2.36227e-08
2.4044e-08
2.40115e-08
2.39584e-08
2.39452e-08
2.39904e-08
2.40505e-08
2.40517e-08
2.39615e-08
2.39399e-08
2.38779e-08
2.38591e-08
2.39223e-08
2.38586e-08
2.38391e-08
2.38404e-08
2.38246e-08
2.40469e-08
2.40229e-08
2.40595e-08
2.40522e-08
2.40593e-08
2.4046e-08
2.40192e-08
2.39861e-08
2.40558e-08
2.39715e-08
2.39978e-08
2.39122e-08
2.40468e-08
2.40768e-08
2.36033e-08
2.34174e-08
2.34426e-08
2.34788e-08
2.35639e-08
2.35473e-08
2.3607e-08
2.34849e-08
2.35459e-08
2.36415e-08
2.35215e-08
2.36072e-08
2.36431e-08
2.36386e-08
2.34472e-08
2.33687e-08
2.3663e-08
2.35998e-08
2.36397e-08
2.36794e-08
2.36926e-08
2.38096e-08
2.37887e-08
2.37587e-08
2.37102e-08
2.36945e-08
2.40241e-08
2.39567e-08
2.39607e-08
2.39864e-08
2.39823e-08
2.40326e-08
2.4059e-08
2.39653e-08
2.39455e-08
2.39413e-08
2.39107e-08
2.39198e-08
2.38611e-08
2.38351e-08
2.38317e-08
2.38094e-08
2.40126e-08
2.40653e-08
2.40423e-08
2.40488e-08
2.40657e-08
2.40507e-08
2.3956e-08
2.39755e-08
2.40267e-08
2.40657e-08
2.39511e-08
2.39957e-08
2.39396e-08
2.40744e-08
2.4081e-08
2.36159e-08
2.36118e-08
2.34836e-08
2.35729e-08
2.3483e-08
2.34847e-08
2.35048e-08
2.33323e-08
2.35393e-08
2.35471e-08
2.35422e-08
2.35687e-08
2.35646e-08
2.35954e-08
2.3646e-08
2.33837e-08
2.34389e-08
2.35319e-08
2.36718e-08
2.35067e-08
2.36655e-08
2.36848e-08
2.36994e-08
2.38225e-08
2.3757e-08
2.36484e-08
2.37418e-08
2.37212e-08
2.40432e-08
2.40271e-08
2.40269e-08
2.39922e-08
2.39847e-08
2.405e-08
2.40642e-08
2.39305e-08
2.39395e-08
2.39383e-08
2.38896e-08
2.39207e-08
2.38545e-08
2.3822e-08
2.3775e-08
2.37665e-08
2.40436e-08
2.40553e-08
2.40549e-08
2.40483e-08
2.40529e-08
2.40313e-08
2.39924e-08
2.39803e-08
2.40082e-08
2.40599e-08
2.39496e-08
2.39297e-08
2.39349e-08
2.39379e-08
2.40574e-08
2.3607e-08
2.35542e-08
2.34445e-08
2.35335e-08
2.35433e-08
2.34427e-08
2.3485e-08
2.36062e-08
2.34159e-08
2.35935e-08
2.35229e-08
2.35663e-08
2.35695e-08
2.35956e-08
2.35497e-08
2.36014e-08
2.35153e-08
2.35797e-08
2.36864e-08
2.35954e-08
2.36797e-08
2.37e-08
2.37764e-08
2.37679e-08
2.37046e-08
2.36798e-08
2.36468e-08
2.40353e-08
2.40294e-08
2.40265e-08
2.40052e-08
2.39154e-08
2.40526e-08
2.40663e-08
2.39409e-08
2.39541e-08
2.38915e-08
2.38956e-08
2.38601e-08
2.38727e-08
2.38581e-08
2.38159e-08
2.37316e-08
2.37716e-08
2.36957e-08
2.40534e-08
2.40659e-08
2.40286e-08
2.40547e-08
2.40401e-08
2.40609e-08
2.39783e-08
2.39342e-08
2.3965e-08
2.40153e-08
2.40061e-08
2.40573e-08
2.40519e-08
2.39094e-08
2.39193e-08
2.39465e-08
2.39166e-08
2.40812e-08
2.40698e-08
2.35072e-08
2.35852e-08
2.35711e-08
2.34365e-08
2.35463e-08
2.34658e-08
2.36196e-08
2.36038e-08
2.34006e-08
2.35906e-08
2.34991e-08
2.3523e-08
2.35287e-08
2.36209e-08
2.35699e-08
2.34951e-08
2.36145e-08
2.35151e-08
2.35052e-08
2.36312e-08
2.34135e-08
2.35623e-08
2.37279e-08
2.36113e-08
2.37661e-08
2.37465e-08
2.36948e-08
2.36141e-08
2.36018e-08
2.40131e-08
2.40234e-08
2.40131e-08
2.40082e-08
2.40049e-08
2.39216e-08
2.38817e-08
2.40538e-08
2.40606e-08
2.38576e-08
2.38472e-08
2.38912e-08
2.38895e-08
2.38615e-08
2.38663e-08
2.38504e-08
2.38204e-08
2.38052e-08
2.37664e-08
2.40504e-08
2.40511e-08
2.40564e-08
2.407e-08
2.40555e-08
2.40582e-08
2.4047e-08
2.39185e-08
2.39078e-08
2.39448e-08
2.39881e-08
2.39155e-08
2.40479e-08
2.40247e-08
2.39006e-08
2.38772e-08
2.38241e-08
2.39141e-08
2.40589e-08
2.40677e-08
2.36442e-08
2.35833e-08
2.35685e-08
2.35693e-08
2.35869e-08
2.3619e-08
2.34842e-08
2.35448e-08
2.35486e-08
2.3488e-08
2.34955e-08
2.35294e-08
2.36086e-08
2.36522e-08
2.35516e-08
2.34945e-08
2.34955e-08
2.33933e-08
2.34956e-08
2.35922e-08
2.36932e-08
2.35213e-08
2.35043e-08
2.37948e-08
2.37821e-08
2.37051e-08
2.37216e-08
2.40218e-08
2.40171e-08
2.40069e-08
2.40055e-08
2.39817e-08
2.39425e-08
2.39238e-08
2.4066e-08
2.40195e-08
2.37578e-08
2.38871e-08
2.38337e-08
2.38905e-08
2.38237e-08
2.38053e-08
2.38865e-08
2.37922e-08
2.3728e-08
2.38137e-08
2.38047e-08
2.405e-08
2.40657e-08
2.40473e-08
2.40524e-08
2.40658e-08
2.40333e-08
2.40595e-08
2.39509e-08
2.385e-08
2.38876e-08
2.3849e-08
2.39881e-08
2.39549e-08
2.39256e-08
2.40575e-08
2.40589e-08
2.40477e-08
2.40137e-08
2.38529e-08
2.38519e-08
2.38209e-08
2.38501e-08
2.38199e-08
2.40817e-08
2.36453e-08
2.36105e-08
2.35465e-08
2.35854e-08
2.36029e-08
2.35102e-08
2.35051e-08
2.35375e-08
2.35321e-08
2.3516e-08
2.34523e-08
2.3366e-08
2.33959e-08
2.33365e-08
2.36214e-08
2.3541e-08
2.34658e-08
2.34926e-08
2.33818e-08
2.35606e-08
2.34861e-08
2.35541e-08
2.35423e-08
2.34047e-08
2.37608e-08
2.37428e-08
2.37211e-08
2.37429e-08
2.40356e-08
2.40351e-08
2.39911e-08
2.3995e-08
2.40014e-08
2.4e-08
2.3935e-08
2.39151e-08
2.40264e-08
2.40581e-08
2.38081e-08
2.39088e-08
2.38885e-08
2.39016e-08
2.38402e-08
2.38847e-08
2.38883e-08
2.37862e-08
2.3779e-08
2.37654e-08
2.37597e-08
2.40416e-08
2.40461e-08
2.40714e-08
2.40533e-08
2.40503e-08
2.40525e-08
2.40507e-08
2.39189e-08
2.38701e-08
2.38629e-08
2.3858e-08
2.39534e-08
2.39968e-08
2.39172e-08
2.40453e-08
2.40212e-08
2.4057e-08
2.4003e-08
2.38435e-08
2.37807e-08
2.38544e-08
2.38624e-08
2.40709e-08
2.34176e-08
2.36051e-08
2.35448e-08
2.34684e-08
2.35012e-08
2.33819e-08
2.351e-08
2.35685e-08
2.35193e-08
2.32927e-08
2.35367e-08
2.34856e-08
2.34923e-08
2.34586e-08
2.34043e-08
2.34417e-08
2.35382e-08
2.33401e-08
2.33613e-08
2.34404e-08
2.36517e-08
2.35227e-08
2.36e-08
2.36194e-08
2.36485e-08
2.37192e-08
2.36234e-08
2.3603e-08
2.36482e-08
2.36408e-08
2.40301e-08
2.40489e-08
2.40059e-08
2.39713e-08
2.39995e-08
2.39826e-08
2.39702e-08
2.38662e-08
2.40531e-08
2.40483e-08
2.38963e-08
2.386e-08
2.38768e-08
2.38499e-08
2.38458e-08
2.38524e-08
2.37609e-08
2.37005e-08
2.38133e-08
2.36336e-08
2.36529e-08
2.36853e-08
2.40475e-08
2.40647e-08
2.40521e-08
2.40531e-08
2.40321e-08
2.40731e-08
2.40408e-08
2.38752e-08
2.38997e-08
2.38607e-08
2.38712e-08
2.39346e-08
2.39316e-08
2.39892e-08
2.40053e-08
2.39092e-08
2.40431e-08
2.40263e-08
2.4069e-08
2.40581e-08
2.38989e-08
2.38669e-08
2.38434e-08
2.40823e-08
2.3494e-08
2.33723e-08
2.34658e-08
2.34609e-08
2.34254e-08
2.34156e-08
2.35278e-08
2.3584e-08
2.35082e-08
2.34537e-08
2.35203e-08
2.34258e-08
2.33957e-08
2.34412e-08
2.35013e-08
2.34251e-08
2.35343e-08
2.3326e-08
2.3384e-08
2.32502e-08
2.32471e-08
2.33802e-08
2.36655e-08
2.35961e-08
2.36228e-08
2.36842e-08
2.36217e-08
2.36832e-08
2.36507e-08
2.36497e-08
2.36053e-08
2.36148e-08
2.40536e-08
2.40407e-08
2.40492e-08
2.40289e-08
2.40038e-08
2.39797e-08
2.39375e-08
2.39449e-08
2.39119e-08
2.40393e-08
2.40726e-08
2.3887e-08
2.38305e-08
2.3911e-08
2.3846e-08
2.38257e-08
2.37947e-08
2.37397e-08
2.38006e-08
2.36751e-08
2.37515e-08
2.37139e-08
2.36656e-08
2.36471e-08
2.39975e-08
2.40436e-08
2.40482e-08
2.405e-08
2.40182e-08
2.40568e-08
2.40728e-08
2.40448e-08
2.38467e-08
2.38759e-08
2.386e-08
2.38455e-08
2.39302e-08
2.39139e-08
2.39558e-08
2.39894e-08
2.38526e-08
2.40327e-08
2.40319e-08
2.40318e-08
2.40127e-08
2.38938e-08
2.37652e-08
2.38184e-08
2.38368e-08
2.37628e-08
2.40638e-08
2.34002e-08
2.34722e-08
2.34241e-08
2.35277e-08
2.33792e-08
2.34056e-08
2.33795e-08
2.35075e-08
2.34782e-08
2.34593e-08
2.33701e-08
2.34459e-08
2.3379e-08
2.33884e-08
2.32214e-08
2.34445e-08
2.34781e-08
2.35315e-08
2.33959e-08
2.3272e-08
2.33464e-08
2.35851e-08
2.3605e-08
2.34786e-08
2.36469e-08
2.35959e-08
2.36759e-08
2.37556e-08
2.37002e-08
2.35367e-08
2.3595e-08
2.4052e-08
2.40361e-08
2.40363e-08
2.40132e-08
2.39985e-08
2.39735e-08
2.38814e-08
2.39084e-08
2.39216e-08
2.39125e-08
2.40338e-08
2.40537e-08
2.38385e-08
2.37586e-08
2.39122e-08
2.38058e-08
2.38231e-08
2.3794e-08
2.37484e-08
2.38015e-08
2.37958e-08
2.37755e-08
2.37043e-08
2.36548e-08
2.35741e-08
2.40431e-08
2.40646e-08
2.40569e-08
2.40624e-08
2.40106e-08
2.40316e-08
2.40665e-08
2.40764e-08
2.38009e-08
2.38536e-08
2.38339e-08
2.38158e-08
2.38775e-08
2.39069e-08
2.38543e-08
2.38533e-08
2.39505e-08
2.39808e-08
2.40086e-08
2.38386e-08
2.37936e-08
2.40651e-08
2.40499e-08
2.4064e-08
2.4055e-08
2.40427e-08
2.37703e-08
2.38284e-08
2.38214e-08
2.37993e-08
2.40699e-08
2.35057e-08
2.34714e-08
2.34372e-08
2.34589e-08
2.33989e-08
2.33844e-08
2.33703e-08
2.33652e-08
2.33087e-08
2.34326e-08
2.34257e-08
2.31932e-08
2.31969e-08
2.32262e-08
2.33306e-08
2.33694e-08
2.33056e-08
2.32353e-08
2.34861e-08
2.35216e-08
2.32528e-08
2.33793e-08
2.35834e-08
2.34659e-08
2.34616e-08
2.34156e-08
2.35637e-08
2.35892e-08
2.36793e-08
2.37253e-08
2.36722e-08
2.35835e-08
2.35635e-08
2.40156e-08
2.39981e-08
2.40153e-08
2.40333e-08
2.40267e-08
2.40141e-08
2.39767e-08
2.39827e-08
2.38977e-08
2.39089e-08
2.39393e-08
2.391e-08
2.40667e-08
2.40676e-08
2.40501e-08
2.38369e-08
2.38149e-08
2.39091e-08
2.3807e-08
2.3815e-08
2.37484e-08
2.37447e-08
2.37814e-08
2.3759e-08
2.37878e-08
2.37908e-08
2.3611e-08
2.37409e-08
2.39919e-08
2.40279e-08
2.40307e-08
2.40405e-08
2.40321e-08
2.40381e-08
2.40764e-08
2.38459e-08
2.37999e-08
2.37918e-08
2.38724e-08
2.39037e-08
2.39066e-08
2.38558e-08
2.38795e-08
2.39258e-08
2.3984e-08
2.38368e-08
2.38947e-08
2.4021e-08
2.40553e-08
2.40416e-08
2.4032e-08
2.40113e-08
2.37823e-08
2.385e-08
2.37962e-08
2.38151e-08
2.38135e-08
2.40819e-08
2.40566e-08
2.35452e-08
2.35122e-08
2.34148e-08
2.34232e-08
2.33939e-08
2.32974e-08
2.33102e-08
2.33768e-08
2.33415e-08
2.33956e-08
2.3232e-08
2.33377e-08
2.32963e-08
2.32572e-08
2.33559e-08
2.3342e-08
2.34269e-08
2.31505e-08
2.3082e-08
2.35609e-08
2.33978e-08
2.3325e-08
2.33978e-08
2.34503e-08
2.35218e-08
2.347e-08
2.34143e-08
2.32817e-08
2.35319e-08
2.3462e-08
2.35481e-08
2.35296e-08
2.34616e-08
2.35726e-08
2.35955e-08
2.35315e-08
2.40264e-08
2.40302e-08
2.40445e-08
2.40397e-08
2.40147e-08
2.40224e-08
2.39945e-08
2.39823e-08
2.3912e-08
2.38481e-08
2.39042e-08
2.39232e-08
2.40412e-08
2.40458e-08
2.40567e-08
2.40494e-08
2.38528e-08
2.39087e-08
2.38188e-08
2.37976e-08
2.37501e-08
2.37113e-08
2.37417e-08
2.37003e-08
2.36637e-08
2.37233e-08
2.37899e-08
2.37442e-08
2.40236e-08
2.4024e-08
2.40646e-08
2.40632e-08
2.40263e-08
2.40322e-08
2.40572e-08
2.38528e-08
2.37786e-08
2.37004e-08
2.37841e-08
2.38342e-08
2.38693e-08
2.38886e-08
2.38931e-08
2.38514e-08
2.39059e-08
2.39752e-08
2.39899e-08
2.38288e-08
2.38867e-08
2.40535e-08
2.403e-08
2.40553e-08
2.4039e-08
2.39542e-08
2.38114e-08
2.38183e-08
2.38178e-08
2.37967e-08
2.38083e-08
2.4083e-08
2.40521e-08
2.34835e-08
2.34385e-08
2.33661e-08
2.33276e-08
2.33268e-08
2.31503e-08
2.32111e-08
2.33099e-08
2.33514e-08
2.31176e-08
2.33717e-08
2.31403e-08
2.33046e-08
2.33095e-08
2.33348e-08
2.35021e-08
2.32412e-08
2.33473e-08
2.31141e-08
2.32419e-08
2.35421e-08
2.336e-08
2.33381e-08
2.33276e-08
2.3514e-08
2.33443e-08
2.33952e-08
2.3391e-08
2.34586e-08
2.33868e-08
2.34603e-08
2.34441e-08
2.35598e-08
2.35523e-08
2.35389e-08
2.35331e-08
2.35587e-08
2.35519e-08
2.40222e-08
2.40078e-08
2.40463e-08
2.4056e-08
2.4016e-08
2.399e-08
2.39838e-08
2.39377e-08
2.39588e-08
2.38845e-08
2.38882e-08
2.38688e-08
2.37843e-08
2.40567e-08
2.40541e-08
2.4047e-08
2.3999e-08
2.38004e-08
2.37757e-08
2.3796e-08
2.37591e-08
2.3665e-08
2.36245e-08
2.37545e-08
2.37227e-08
2.37566e-08
2.36691e-08
2.36493e-08
2.36702e-08
2.40244e-08
2.40675e-08
2.4015e-08
2.40724e-08
2.40179e-08
2.40632e-08
2.40335e-08
2.40343e-08
2.38541e-08
2.37686e-08
2.37663e-08
2.37941e-08
2.38322e-08
2.38746e-08
2.38901e-08
2.38901e-08
2.37815e-08
2.39263e-08
2.3934e-08
2.39944e-08
2.38554e-08
2.37866e-08
2.40162e-08
2.40089e-08
2.40334e-08
2.40733e-08
2.39804e-08
2.38088e-08
2.36914e-08
2.3783e-08
2.3832e-08
2.37781e-08
2.37844e-08
2.40711e-08
2.40428e-08
2.32488e-08
2.3374e-08
2.33936e-08
2.33546e-08
2.33608e-08
2.31952e-08
2.32837e-08
2.3322e-08
2.32032e-08
2.32663e-08
2.33307e-08
2.3222e-08
2.33224e-08
2.33295e-08
2.34792e-08
2.32978e-08
2.34245e-08
2.33537e-08
2.32752e-08
2.31352e-08
2.3301e-08
2.33052e-08
2.31846e-08
2.33448e-08
2.32794e-08
2.34445e-08
2.3412e-08
2.33569e-08
2.34212e-08
2.35003e-08
2.35218e-08
2.35743e-08
2.35594e-08
2.35544e-08
2.35288e-08
2.35755e-08
2.35573e-08
2.35552e-08
2.40291e-08
2.3945e-08
2.39632e-08
2.40855e-08
2.40404e-08
2.40294e-08
2.39461e-08
2.39434e-08
2.39293e-08
2.39565e-08
2.39349e-08
2.38951e-08
2.38779e-08
2.38286e-08
2.40491e-08
2.4054e-08
2.40494e-08
2.4058e-08
2.40068e-08
2.37728e-08
2.37951e-08
2.37635e-08
2.38204e-08
2.36743e-08
2.37103e-08
2.37328e-08
2.36883e-08
2.37353e-08
2.36657e-08
2.36255e-08
2.36218e-08
2.36713e-08
2.39929e-08
2.40576e-08
2.40206e-08
2.40754e-08
2.40391e-08
2.40456e-08
2.40507e-08
2.4057e-08
2.38036e-08
2.37687e-08
2.37798e-08
2.37954e-08
2.36716e-08
2.37322e-08
2.38797e-08
2.38835e-08
2.39396e-08
2.38928e-08
2.38487e-08
2.39446e-08
2.39783e-08
2.39838e-08
2.37934e-08
2.37476e-08
2.40432e-08
2.39798e-08
2.40291e-08
2.40729e-08
2.40453e-08
2.39939e-08
2.38042e-08
2.37161e-08
2.37641e-08
2.377e-08
2.37626e-08
2.376e-08
2.40312e-08
2.40388e-08
2.32395e-08
2.34888e-08
2.33897e-08
2.33486e-08
2.33955e-08
2.32521e-08
2.33298e-08
2.32233e-08
2.32123e-08
2.32893e-08
2.31588e-08
2.32545e-08
2.33451e-08
2.32883e-08
2.34816e-08
2.30806e-08
2.32554e-08
2.32515e-08
2.33397e-08
2.32408e-08
2.34819e-08
2.3104e-08
2.34504e-08
2.33189e-08
2.33436e-08
2.34958e-08
2.35165e-08
2.32605e-08
2.35399e-08
2.34203e-08
2.35812e-08
2.3558e-08
2.35803e-08
2.3607e-08
2.35723e-08
2.35634e-08
2.36209e-08
2.36033e-08
2.40212e-08
2.39495e-08
2.40084e-08
2.4086e-08
2.40178e-08
2.40418e-08
2.39532e-08
2.39394e-08
2.39896e-08
2.39123e-08
2.38774e-08
2.39038e-08
2.38703e-08
2.39087e-08
2.38358e-08
2.40647e-08
2.40723e-08
2.40426e-08
2.40294e-08
2.40712e-08
2.37631e-08
2.38132e-08
2.37442e-08
2.38203e-08
2.37905e-08
2.38121e-08
2.37152e-08
2.35974e-08
2.37747e-08
2.36726e-08
2.36159e-08
2.36465e-08
2.40316e-08
2.4052e-08
2.4071e-08
2.40284e-08
2.40509e-08
2.40715e-08
2.40389e-08
2.40404e-08
2.3803e-08
2.37521e-08
2.38288e-08
2.37039e-08
2.37286e-08
2.3741e-08
2.3852e-08
2.3864e-08
2.38757e-08
2.38419e-08
2.38221e-08
2.39439e-08
2.39157e-08
2.39917e-08
2.3754e-08
2.38137e-08
2.40162e-08
2.40517e-08
2.40471e-08
2.39926e-08
2.37946e-08
2.37307e-08
2.36519e-08
2.36825e-08
2.37705e-08
2.37451e-08
2.37885e-08
2.40843e-08
2.40399e-08
2.40413e-08
2.34778e-08
2.31887e-08
2.33102e-08
2.32851e-08
2.32975e-08
2.34182e-08
2.3234e-08
2.31903e-08
2.3175e-08
2.32809e-08
2.31914e-08
2.32411e-08
2.30823e-08
2.32301e-08
2.33568e-08
2.31638e-08
2.32156e-08
2.32047e-08
2.31194e-08
2.30424e-08
2.34505e-08
2.32098e-08
2.34532e-08
2.33161e-08
2.31397e-08
2.32315e-08
2.35356e-08
2.3432e-08
2.33893e-08
2.34862e-08
2.33843e-08
2.35003e-08
2.35847e-08
2.36096e-08
2.36157e-08
2.35656e-08
2.36e-08
2.3595e-08
2.35229e-08
2.40295e-08
2.40258e-08
2.40123e-08
2.40367e-08
2.40429e-08
2.40011e-08
2.39795e-08
2.4005e-08
2.39433e-08
2.3903e-08
2.38451e-08
2.3889e-08
2.39275e-08
2.38288e-08
2.40446e-08
2.40741e-08
2.40411e-08
2.4035e-08
2.40761e-08
2.40779e-08
2.38507e-08
2.38406e-08
2.37938e-08
2.37899e-08
2.3784e-08
2.3808e-08
2.36435e-08
2.34947e-08
2.37547e-08
2.36247e-08
2.36298e-08
2.35894e-08
2.36462e-08
2.40084e-08
2.40571e-08
2.40609e-08
2.40502e-08
2.40659e-08
2.40153e-08
2.40359e-08
2.37702e-08
2.3746e-08
2.38133e-08
2.3745e-08
2.36707e-08
2.37351e-08
2.37497e-08
2.37673e-08
2.37289e-08
2.3873e-08
2.38197e-08
2.38798e-08
2.381e-08
2.38323e-08
2.38008e-08
2.39109e-08
2.39409e-08
2.39662e-08
2.39882e-08
2.38278e-08
2.40251e-08
2.40549e-08
2.40404e-08
2.40558e-08
2.37843e-08
2.36908e-08
2.3738e-08
2.37727e-08
2.37956e-08
2.37221e-08
2.40268e-08
2.40319e-08
2.40492e-08
2.31623e-08
2.3242e-08
2.32988e-08
2.32586e-08
2.32315e-08
2.33794e-08
2.33167e-08
2.31927e-08
2.32357e-08
2.29664e-08
2.34013e-08
2.31832e-08
2.32176e-08
2.30998e-08
2.33302e-08
2.30473e-08
2.3027e-08
2.31084e-08
2.30784e-08
2.31862e-08
2.31211e-08
2.31164e-08
2.30984e-08
2.33617e-08
2.33496e-08
2.31652e-08
2.30066e-08
2.35384e-08
2.32576e-08
2.34879e-08
2.32161e-08
2.31547e-08
2.3266e-08
2.33972e-08
2.35921e-08
2.36326e-08
2.36739e-08
2.35644e-08
2.35805e-08
2.3616e-08
2.33964e-08
2.3329e-08
2.40319e-08
2.40284e-08
2.40529e-08
2.40111e-08
2.40595e-08
2.40416e-08
2.4001e-08
2.3989e-08
2.39552e-08
2.39432e-08
2.38778e-08
2.39026e-08
2.39116e-08
2.39075e-08
2.38106e-08
2.39275e-08
2.40605e-08
2.40446e-08
2.40619e-08
2.40197e-08
2.40719e-08
2.40354e-08
2.38503e-08
2.37957e-08
2.37835e-08
2.37735e-08
2.37831e-08
2.36926e-08
2.36294e-08
2.3603e-08
2.36152e-08
2.36489e-08
2.36268e-08
2.36301e-08
2.35801e-08
2.40222e-08
2.40521e-08
2.40728e-08
2.40621e-08
2.40402e-08
2.4074e-08
2.40693e-08
2.40653e-08
2.40563e-08
2.37636e-08
2.37318e-08
2.36868e-08
2.37873e-08
2.3707e-08
2.37503e-08
2.37506e-08
2.37821e-08
2.37898e-08
2.3863e-08
2.37993e-08
2.38847e-08
2.37913e-08
2.38268e-08
2.38194e-08
2.39081e-08
2.39395e-08
2.39331e-08
2.39524e-08
2.37658e-08
2.39905e-08
2.40274e-08
2.40624e-08
2.40589e-08
2.37797e-08
2.37322e-08
2.37292e-08
2.36924e-08
2.37855e-08
2.3632e-08
2.36626e-08
2.40248e-08
2.4044e-08
2.40549e-08
2.32387e-08
2.3343e-08
2.3239e-08
2.31547e-08
2.31757e-08
2.31408e-08
2.32384e-08
2.3297e-08
2.32352e-08
2.31947e-08
2.34106e-08
2.33762e-08
2.31854e-08
2.31076e-08
2.28844e-08
2.31901e-08
2.30583e-08
2.33059e-08
2.30745e-08
2.33323e-08
2.30745e-08
2.31274e-08
2.30467e-08
2.30882e-08
2.32925e-08
2.32411e-08
2.31673e-08
2.34277e-08
2.33825e-08
2.33091e-08
2.33128e-08
2.32756e-08
2.32126e-08
2.32067e-08
2.35823e-08
2.35524e-08
2.3675e-08
2.35631e-08
2.35364e-08
2.35862e-08
2.34872e-08
2.33761e-08
2.40276e-08
2.40282e-08
2.40549e-08
2.40555e-08
2.4057e-08
2.4035e-08
2.40164e-08
2.39821e-08
2.39751e-08
2.39756e-08
2.38889e-08
2.39166e-08
2.39072e-08
2.38545e-08
2.39187e-08
2.39086e-08
2.38629e-08
2.40391e-08
2.40597e-08
2.40672e-08
2.40094e-08
2.40349e-08
2.40599e-08
2.38126e-08
2.36746e-08
2.37574e-08
2.37377e-08
2.37757e-08
2.36464e-08
2.36436e-08
2.35905e-08
2.36369e-08
2.34996e-08
2.35953e-08
2.36147e-08
2.35913e-08
2.40212e-08
2.40019e-08
2.40674e-08
2.40297e-08
2.40371e-08
2.40557e-08
2.40597e-08
2.4033e-08
2.40436e-08
2.37367e-08
2.36608e-08
2.3746e-08
2.37422e-08
2.37193e-08
2.37654e-08
2.3715e-08
2.37722e-08
2.37941e-08
2.38311e-08
2.38738e-08
2.38263e-08
2.3809e-08
2.37282e-08
2.37608e-08
2.38665e-08
2.37977e-08
2.3872e-08
2.39363e-08
2.39178e-08
2.39624e-08
2.37381e-08
2.40089e-08
2.40269e-08
2.40108e-08
2.4045e-08
2.40663e-08
2.36215e-08
2.37404e-08
2.37229e-08
2.36588e-08
2.37022e-08
2.36987e-08
2.36393e-08
2.40849e-08
2.40332e-08
2.40411e-08
2.40577e-08
2.33772e-08
2.33133e-08
2.31615e-08
2.31425e-08
2.30888e-08
2.32341e-08
2.33089e-08
2.3281e-08
2.32161e-08
2.28638e-08
2.32976e-08
2.31561e-08
2.30664e-08
2.30932e-08
2.31806e-08
2.3127e-08
2.32029e-08
2.30611e-08
2.3222e-08
2.30101e-08
2.29499e-08
2.30872e-08
2.31243e-08
2.32346e-08
2.33166e-08
2.32158e-08
2.34453e-08
2.33496e-08
2.32931e-08
2.32694e-08
2.32829e-08
2.3344e-08
2.31072e-08
2.35756e-08
2.34782e-08
2.33801e-08
2.35654e-08
2.35261e-08
2.3397e-08
2.33563e-08
2.34227e-08
2.34387e-08
2.40138e-08
2.39987e-08
2.40239e-08
2.4062e-08
2.40632e-08
2.40538e-08
2.40482e-08
2.40065e-08
2.39661e-08
2.39717e-08
2.39952e-08
2.38455e-08
2.39686e-08
2.38217e-08
2.38218e-08
2.392e-08
2.3951e-08
2.39045e-08
2.40085e-08
2.40592e-08
2.40678e-08
2.40641e-08
2.40636e-08
2.40481e-08
2.40571e-08
2.38315e-08
2.37591e-08
2.37635e-08
2.37501e-08
2.36284e-08
2.3634e-08
2.36366e-08
2.36345e-08
2.35379e-08
2.36039e-08
2.36203e-08
2.36183e-08
2.40492e-08
2.40012e-08
2.40788e-08
2.40567e-08
2.40391e-08
2.40547e-08
2.40646e-08
2.4065e-08
2.40612e-08
2.40597e-08
2.37483e-08
2.37474e-08
2.36977e-08
2.36657e-08
2.37628e-08
2.3724e-08
2.3738e-08
2.37725e-08
2.37881e-08
2.37621e-08
2.38523e-08
2.38052e-08
2.38404e-08
2.37942e-08
2.37258e-08
2.38729e-08
2.38342e-08
2.38588e-08
2.38772e-08
2.39771e-08
2.39367e-08
2.36376e-08
2.40067e-08
2.40128e-08
2.40284e-08
2.4039e-08
2.40503e-08
2.36121e-08
2.36414e-08
2.35464e-08
2.37109e-08
2.37393e-08
2.36986e-08
2.36933e-08
2.36789e-08
2.40239e-08
2.40259e-08
2.40515e-08
2.40659e-08
2.32835e-08
2.31294e-08
2.3118e-08
2.29518e-08
2.31251e-08
2.29526e-08
2.31201e-08
2.32493e-08
2.32898e-08
2.32311e-08
2.30409e-08
2.26849e-08
2.31341e-08
2.32265e-08
2.32095e-08
2.31781e-08
2.32897e-08
2.31529e-08
2.30237e-08
2.30635e-08
2.30274e-08
2.32108e-08
2.32726e-08
2.29555e-08
2.3242e-08
2.32449e-08
2.32615e-08
2.33662e-08
2.34091e-08
2.33657e-08
2.31524e-08
2.32203e-08
2.31717e-08
2.32942e-08
2.33426e-08
2.35388e-08
2.34346e-08
2.34855e-08
2.3558e-08
2.35342e-08
2.34676e-08
2.342e-08
2.34139e-08
2.34394e-08
2.40242e-08
2.40252e-08
2.40542e-08
2.4058e-08
2.40487e-08
2.40492e-08
2.39792e-08
2.39751e-08
2.39436e-08
2.39821e-08
2.39171e-08
2.39245e-08
2.38992e-08
2.37956e-08
2.37759e-08
2.39185e-08
2.39179e-08
2.40077e-08
2.40519e-08
2.40637e-08
2.40475e-08
2.40627e-08
2.40573e-08
2.4055e-08
2.37531e-08
2.37968e-08
2.36283e-08
2.36329e-08
2.35726e-08
2.37967e-08
2.36695e-08
2.36452e-08
2.36433e-08
2.36091e-08
2.35968e-08
2.36234e-08
2.36189e-08
2.4033e-08
2.40229e-08
2.40542e-08
2.40021e-08
2.40469e-08
2.40512e-08
2.4052e-08
2.40627e-08
2.405e-08
2.40479e-08
2.37304e-08
2.3737e-08
2.36282e-08
2.3717e-08
2.37177e-08
2.36652e-08
2.3675e-08
2.36738e-08
2.37515e-08
2.3768e-08
2.37721e-08
2.37921e-08
2.37873e-08
2.37326e-08
2.38037e-08
2.37963e-08
2.37018e-08
2.39242e-08
2.38585e-08
2.39222e-08
2.39332e-08
2.39795e-08
2.3988e-08
2.40165e-08
2.4032e-08
2.40282e-08
2.40415e-08
2.40554e-08
2.40476e-08
2.35674e-08
2.36327e-08
2.36098e-08
2.37066e-08
2.3739e-08
2.36713e-08
2.3553e-08
2.36795e-08
2.40217e-08
2.40407e-08
2.40439e-08
2.40646e-08
2.30477e-08
2.31546e-08
2.31703e-08
2.31764e-08
2.30097e-08
2.32287e-08
2.30175e-08
2.31549e-08
2.31573e-08
2.32032e-08
2.27989e-08
2.30749e-08
2.31389e-08
2.32044e-08
2.32491e-08
2.29752e-08
2.327e-08
2.33156e-08
2.32347e-08
2.31666e-08
2.33057e-08
2.33072e-08
2.32286e-08
2.3112e-08
2.31784e-08
2.30723e-08
2.3291e-08
2.33552e-08
2.34352e-08
2.3388e-08
2.33486e-08
2.32827e-08
2.33089e-08
2.31308e-08
2.29871e-08
2.33387e-08
2.34864e-08
2.35753e-08
2.36504e-08
2.36352e-08
2.35613e-08
2.35233e-08
2.3483e-08
2.34428e-08
2.34128e-08
2.40331e-08
2.40164e-08
2.40578e-08
2.40717e-08
2.40518e-08
2.40458e-08
2.40249e-08
2.40023e-08