/*--------------------------------*- C++ -*----------------------------------*\
| =========                 |                                                 |
| \\      /  F ield         | OpenFOAM: The Open Source CFD Toolbox           |
|  \\    /   O peration     | Version:  v2012                                 |
|   \\  /    A nd           | Website:  www.openfoam.com                      |
|    \\/     M anipulation  |                                                 |
\*---------------------------------------------------------------------------*/
FoamFile
{
    version     2.0;
    format      ascii;
    class       volVectorField;
    location    "2";
    object      U;
}
// * * * * * * * * * * * * * * * * * * * * * * * * * * * * * * * * * * * * * //

dimensions      [0 1 -1 0 0 0 0];


internalField   nonuniform List<vector> 
13611
(
(9.14823 0.0544542 4.31442e-23)
(9.23394 0.0185833 2.60798e-21)
(9.39741 -0.835194 0)
(9.41781 -0.457671 -3.33914e-21)
(9.05024 -0.249007 0)
(8.75857 -0.178925 1.45851e-21)
(8.99518 -0.115589 5.95105e-22)
(9.63497 -0.29318 -2.7739e-21)
(8.82995 -0.332689 0)
(8.96346 -0.205776 2.01322e-22)
(8.62532 -0.168963 -1.82338e-23)
(8.99097 0.19938 4.54544e-24)
(9.04248 -0.117503 0)
(9.73141 -0.220869 3.85679e-22)
(8.78703 -0.307836 -1.65751e-21)
(9.00789 -0.0730057 1.9192e-21)
(8.68332 -0.216858 -1.04676e-23)
(8.67487 -0.0500402 1.33016e-21)
(8.98635 0.202429 3.20183e-21)
(9.04421 -0.149349 0)
(9.66574 -0.0518484 4.80398e-22)
(8.80233 -0.259845 0)
(8.77433 -0.28088 3.47496e-23)
(8.76816 -0.277437 -7.44798e-22)
(8.65449 -0.184737 0)
(8.53526 -0.0805906 -1.89991e-21)
(8.89718 -0.052148 -2.90375e-22)
(8.88278 -0.19909 -1.86284e-21)
(9.42301 -0.0321681 6.47414e-22)
(8.84291 -0.25621 4.21673e-22)
(8.77566 -0.267621 1.61142e-24)
(8.78201 -0.251315 0)
(8.72302 -0.223687 0)
(8.5676 -0.19491 -5.64854e-22)
(8.48809 -0.128919 -4.61979e-22)
(8.77379 -0.00130151 0)
(8.8507 -0.0985145 7.1516e-22)
(9.71655 -0.0737178 -1.07479e-22)
(8.81068 -0.283983 5.89188e-22)
(8.72985 -0.270736 1.34468e-22)
(8.77182 -0.272978 0)
(8.65407 -0.245559 0)
(8.55049 -0.238036 0)
(8.42995 -0.186026 -1.08913e-21)
(8.66085 0.000251598 -1.35691e-23)
(8.82341 -0.125896 0)
(9.45046 -0.110515 0)
(9.14945 -0.11197 -6.65189e-22)
(8.75063 -0.280874 5.11081e-22)
(8.8302 -0.321634 1.12006e-22)
(8.69152 -0.307229 2.28897e-23)
(8.68598 -0.306594 0)
(8.61333 -0.269167 0)
(8.51679 -0.253209 -1.03011e-22)
(8.46838 -0.242566 6.83253e-22)
(8.37229 -0.16611 0)
(8.70478 -0.0414811 0)
(8.57106 -0.179531 0)
(9.59015 -0.100858 0)
(9.22528 -0.1382 -7.22763e-25)
(8.75553 -0.327947 1.6579e-22)
(8.78611 -0.351646 -8.80276e-23)
(8.67718 -0.344647 1.73076e-22)
(8.63636 -0.320739 0)
(8.79817 -0.37084 -2.31207e-22)
(8.56527 -0.274417 -1.9404e-21)
(8.61567 -0.28738 2.14676e-22)
(8.52963 -0.281935 -1.42874e-21)
(8.45026 -0.253546 -4.69283e-22)
(8.35279 -0.216767 0)
(8.66419 -0.0205865 0)
(8.54417 -0.20463 -4.84662e-22)
(9.39415 -0.0941465 -2.54867e-22)
(8.97321 -0.0785334 0)
(8.71033 -0.365932 5.75656e-23)
(8.76601 -0.361631 -1.86388e-23)
(8.63513 -0.346356 0)
(8.68787 -0.363417 1.45365e-22)
(8.61345 -0.331162 0)
(8.56273 -0.295227 0)
(8.58078 -0.297484 2.45919e-22)
(8.52264 -0.299492 -2.01976e-22)
(8.40523 -0.258248 0)
(8.49428 -0.29329 1.64865e-22)
(8.29178 -0.189015 0)
(8.55297 -0.0839648 1.52831e-24)
(8.38329 -0.203933 -7.70888e-22)
(9.33042 -0.204382 -1.40409e-22)
(9.05955 -0.142373 0)
(8.68047 -0.408828 0)
(8.73769 -0.391547 -2.16767e-23)
(8.61997 -0.381933 1.22058e-22)
(8.64858 -0.402644 1.66056e-22)
(8.5812 -0.35204 -2.12618e-24)
(8.7598 -0.421626 -4.86001e-23)
(8.53854 -0.319364 -1.79965e-22)
(8.56366 -0.332682 6.79398e-23)
(8.52916 -0.313967 -1.7565e-22)
(8.44563 -0.286426 -1.32241e-22)
(8.48541 -0.297157 1.48001e-22)
(8.31346 -0.234826 0)
(8.49827 -0.121089 -3.16545e-23)
(8.35051 -0.217963 3.20878e-22)
(9.35991 -0.0786077 4.81494e-23)
(8.83239 -0.179169 -7.56559e-23)
(8.70431 -0.417243 0)
(8.64275 -0.442033 2.7981e-23)
(8.57224 -0.407848 0)
(8.61809 -0.432483 2.95706e-23)
(8.54933 -0.392068 -5.37145e-24)
(8.73948 -0.447933 -2.89805e-24)
(8.75086 -0.46338 6.43998e-24)
(8.50412 -0.345286 1.1255e-22)
(8.51843 -0.35214 9.67494e-23)
(8.50264 -0.327392 -2.14425e-24)
(8.43501 -0.300036 -8.02116e-22)
(8.47174 -0.323478 9.45927e-25)
(8.41266 -0.291022 -4.4315e-22)
(8.2788 -0.229582 2.86073e-22)
(8.39386 -0.125322 0)
(8.37364 -0.183499 1.78509e-22)
(8.23485 -0.219134 2.8752e-22)
(9.22639 -0.217063 0)
(9.07687 -0.137643 0)
(8.84235 -0.2139 5.40539e-24)
(8.70414 -0.451983 -1.01219e-24)
(8.62736 -0.477947 5.22625e-23)
(8.56276 -0.437723 -3.33268e-23)
(8.58856 -0.450617 -2.19632e-23)
(8.51436 -0.392507 1.29195e-23)
(8.73368 -0.496806 6.18462e-24)
(8.46825 -0.367941 2.97567e-23)
(8.46315 -0.357244 -8.42707e-23)
(8.47889 -0.337783 6.47962e-23)
(8.44119 -0.330158 -1.99194e-23)
(8.40999 -0.318147 0)
(8.36507 -0.294303 1.59542e-23)
(8.44485 -0.158952 0)
(8.30002 -0.180248 3.43275e-23)
(8.24232 -0.241408 7.36603e-23)
(9.4508 -0.190445 0)
(8.91584 -0.145761 0)
(8.65932 -0.208047 2.75557e-23)
(8.68324 -0.481643 0)
(8.60241 -0.496057 4.09459e-23)
(8.65569 -0.494488 2.23843e-24)
(8.53423 -0.458205 0)
(8.56779 -0.473982 -4.38565e-23)
(8.4855 -0.413704 0)
(8.70539 -0.508025 -1.32302e-23)
(8.7503 -0.520728 -1.84611e-24)
(8.4353 -0.399039 0)
(8.42369 -0.375566 -9.20509e-23)
(8.42288 -0.366824 -1.148e-22)
(8.39992 -0.358362 0)
(8.37064 -0.339077 -3.0808e-22)
(8.33944 -0.301022 -7.27482e-24)
(8.38607 -0.14437 2.32967e-23)
(8.31925 -0.149801 2.52649e-23)
(8.19828 -0.205688 8.48072e-23)
(8.31449 -0.2846 7.50244e-23)
(8.21149 -0.233974 0)
(9.17101 -0.207061 -3.27782e-23)
(9.02776 -0.132542 3.11943e-23)
(8.72915 -0.190127 0)
(8.57583 -0.489598 -2.13591e-23)
(8.60313 -0.528496 2.04947e-25)
(8.64917 -0.529439 -1.73239e-23)
(8.50889 -0.465249 -5.49664e-25)
(8.54129 -0.480431 0)
(8.44923 -0.418896 1.60774e-23)
(8.49261 -0.446622 -3.57273e-23)
(8.69511 -0.539822 -1.38747e-23)
(8.7409 -0.547933 0)
(8.39898 -0.407538 1.95188e-24)
(8.39386 -0.399281 -5.85657e-23)
(8.3843 -0.385765 -1.15827e-22)
(8.37534 -0.361995 -1.97918e-22)
(8.36999 -0.384376 0)
(8.31872 -0.360206 4.07542e-23)
(8.30261 -0.342644 9.83632e-23)
(8.55865 -0.163889 0)
(8.25677 -0.15691 1.8801e-23)
(8.17187 -0.210286 0)
(8.29508 -0.301097 -4.51961e-24)
(8.23543 -0.265845 -1.21623e-22)
(9.34847 -0.167356 7.50069e-24)
(8.91177 -0.111694 5.08335e-23)
(8.55448 -0.528986 7.19233e-24)
(8.62555 -0.543759 -2.53165e-23)
(8.57353 -0.550652 2.68023e-24)
(8.67085 -0.549755 -1.20347e-24)
(8.48369 -0.493637 3.00516e-23)
(8.52393 -0.504751 0)
(8.43295 -0.456968 -1.98674e-23)
(8.45493 -0.471672 -5.12318e-23)
(8.71636 -0.559878 0)
(8.76253 -0.563477 5.26716e-25)
(8.3849 -0.440391 0)
(8.3645 -0.405789 -3.84988e-23)
(8.32527 -0.38923 0)
(8.32596 -0.408379 0)
(8.2956 -0.387911 9.66009e-23)
(8.27464 -0.349264 -1.12577e-22)
(8.55578 -0.140596 0)
(8.25593 -0.139791 0)
(8.15323 -0.19367 0)
(8.20451 -0.2459 0)
(8.27173 -0.293261 -1.27198e-22)
(8.271 -0.332733 -8.63393e-23)
(9.09186 -0.103714 6.74685e-23)
(9.11866 -0.157668 0)
(8.71689 -0.125595 -1.1766e-23)
(8.5333 -0.530362 0)
(8.61979 -0.570142 -5.84137e-24)
(8.57319 -0.571013 -7.88005e-24)
(8.66188 -0.581583 0)
(8.45681 -0.509382 3.23861e-23)
(8.49884 -0.509925 0)
(8.40114 -0.467035 -6.64944e-23)
(8.43551 -0.499149 -1.21129e-23)
(8.71139 -0.589068 -4.71946e-24)
(8.76095 -0.593598 4.30988e-24)
(8.35089 -0.449846 -2.107e-23)
(8.33908 -0.42808 -1.91208e-23)
(8.30419 -0.40871 0)
(8.29872 -0.426328 2.90505e-23)
(8.25507 -0.405749 1.49379e-22)
(8.23571 -0.372036 -4.72045e-23)
(8.38317 -0.13202 0)
(8.17854 -0.147171 -4.75539e-23)
(8.12903 -0.199711 5.46735e-23)
(8.18855 -0.264947 7.51105e-23)
(8.23351 -0.315586 8.73019e-23)
(8.2346 -0.335251 0)
(9.00337 -0.127126 6.33e-23)
(9.28093 -0.111102 0)
(8.62442 -0.120141 3.05845e-23)
(8.51048 -0.554622 2.21255e-24)
(8.5994 -0.582654 -9.81705e-24)
(8.64196 -0.589093 0)
(8.55457 -0.588903 0)
(8.68516 -0.602843 0)
(8.44231 -0.536263 -3.25755e-24)
(8.48758 -0.538327 2.88377e-23)
(8.3724 -0.500001 -3.10977e-23)
(8.40719 -0.51586 0)
(8.73661 -0.607964 -5.37544e-24)
(8.33176 -0.477613 4.48168e-23)
(8.3129 -0.438253 2.86346e-23)
(8.25945 -0.431008 0)
(8.26473 -0.450675 -1.13538e-23)
(8.23612 -0.405486 9.74138e-23)
(8.23812 -0.427394 6.42112e-23)
(8.22681 -0.386747 0)
(8.21385 -0.358892 7.76258e-23)
(8.43661 -0.130898 -3.03351e-23)
(8.14686 -0.149151 9.19055e-23)
(8.10473 -0.179249 5.99221e-23)
(8.15358 -0.224821 -4.46411e-24)
(8.16662 -0.24804 0)
(8.19449 -0.300588 7.35823e-23)
(8.20434 -0.319196 8.62261e-23)
(9.11276 -0.100922 5.76239e-23)
(8.73363 -0.138218 0)
(9.1026 -0.0995088 9.20754e-23)
(8.51186 -0.575865 -3.08186e-24)
(8.60031 -0.607792 0)
(8.62537 -0.616492 0)
(8.56023 -0.617049 -6.25138e-24)
(8.53464 -0.594238 0)
(8.67973 -0.630441 1.88765e-23)
(8.46223 -0.551302 1.54015e-23)
(8.4159 -0.554342 0)
(8.34289 -0.503432 7.16021e-24)
(8.38278 -0.519441 0)
(8.39668 -0.544522 0)
(8.72836 -0.630129 -2.66495e-24)
(8.29587 -0.492187 3.80834e-23)
(8.28407 -0.478893 0)
(8.24078 -0.449486 -5.04968e-24)
(8.25718 -0.48149 -7.59406e-23)
(8.18909 -0.43121 -4.26192e-23)
(8.19821 -0.451357 6.39409e-23)
(8.17794 -0.404319 -3.84466e-23)
(8.17936 -0.363657 9.50534e-23)
(8.34947 -0.130996 -2.56205e-23)
(8.19753 -0.140043 5.68407e-23)
(8.07092 -0.169233 0)
(8.08274 -0.18362 3.5217e-23)
(8.13919 -0.226985 -1.84942e-23)
(8.1434 -0.261343 0)
(8.16054 -0.30591 0)
(8.17118 -0.345837 0)
(8.89489 -0.0986083 0)
(8.65085 -0.125691 0)
(9.11378 -0.166724 4.40864e-24)
(8.48477 -0.591349 0)
(8.58056 -0.624943 -7.19641e-24)
(8.63172 -0.637742 0)
(8.53836 -0.638288 -1.52914e-23)
(8.52004 -0.627098 -1.37929e-23)
(8.65963 -0.649323 2.79626e-24)
(8.7052 -0.645765 1.32319e-23)
(8.45828 -0.577402 0)
(8.41109 -0.581723 0)
(8.31435 -0.528934 0)
(8.35638 -0.54642 7.49271e-24)
(8.37082 -0.560814 6.67014e-24)
(8.75182 -0.650461 2.52593e-24)
(8.7727 -0.654452 0)
(8.28451 -0.519768 -6.93339e-23)
(8.2076 -0.474596 8.5472e-24)
(8.2281 -0.507073 -7.45611e-23)
(8.16189 -0.430515 -2.05126e-23)
(8.17361 -0.448764 -2.41214e-23)
(8.18316 -0.472496 -2.96301e-23)
(8.15432 -0.396946 -3.7505e-23)
(8.15244 -0.379632 4.97745e-23)
(8.47661 -0.114665 0)
(8.11481 -0.134585 -4.08099e-23)
(8.06415 -0.171289 0)
(8.12194 -0.209068 -1.52405e-23)
(8.12673 -0.248341 2.26618e-23)
(8.14109 -0.285967 0)
(8.11973 -0.331033 -1.25251e-23)
(8.12847 -0.350995 2.787e-23)
(8.92128 -0.121507 0)
(9.14364 -0.0774493 -2.94493e-23)
(8.47772 -0.620807 0)
(8.58732 -0.649229 0)
(8.6116 -0.657848 6.62523e-24)
(8.54317 -0.655837 -9.60206e-24)
(8.49847 -0.63876 -2.60673e-24)
(8.66201 -0.675622 -2.58651e-24)
(8.71118 -0.665572 1.84063e-24)
(8.43402 -0.59497 0)
(8.38693 -0.599092 0)
(8.31316 -0.547418 -3.17518e-23)
(8.3345 -0.558998 0)
(8.36489 -0.584742 -3.05362e-23)
(8.74202 -0.674912 4.96192e-25)
(8.78864 -0.680516 3.79021e-24)
(8.25654 -0.543123 -6.82544e-23)
(8.19669 -0.500629 -2.89835e-23)
(8.23032 -0.52736 0)
(8.12506 -0.446789 1.68314e-23)
(8.13537 -0.469797 2.70138e-23)
(8.14779 -0.496339 -2.94902e-23)
(8.11508 -0.418133 -3.88796e-23)
(8.11743 -0.388796 5.80133e-23)
(8.40491 -0.116673 0)
(8.04484 -0.148869 0)
(8.16376 -0.128089 -7.55992e-23)
(8.09759 -0.195408 3.41062e-23)
(8.10635 -0.211638 -3.69418e-23)
(8.087 -0.253242 8.49354e-24)
(8.08305 -0.301519 0)
(8.07273 -0.328659 -4.02741e-23)
(8.09934 -0.371617 4.27822e-23)
(8.8666 -0.107821 -3.70517e-23)
(8.9718 -0.109599 -1.03823e-22)
(9.00724 -0.0628586 -2.78539e-23)
(8.45253 -0.635856 2.0303e-25)
(8.57211 -0.666598 8.79461e-25)
(8.62211 -0.67702 7.31766e-24)
(8.52748 -0.6767 -7.7219e-24)
(8.48673 -0.663219 -1.98733e-24)
(8.68252 -0.694487 0)
(8.6485 -0.687071 3.24362e-26)
(8.70037 -0.693712 0)
(8.42982 -0.623856 0)
(8.38561 -0.625091 1.67018e-23)
(8.2836 -0.581361 -2.70651e-23)
(8.32366 -0.58632 0)
(8.34024 -0.598881 -2.82363e-23)
(8.74967 -0.698414 -2.68355e-24)
(8.77323 -0.70499 1.12464e-23)
(8.25827 -0.577023 -2.77336e-23)
(8.24133 -0.537277 1.44227e-23)
(8.17118 -0.515838 -3.28099e-23)
(8.20253 -0.550715 0)
(8.10267 -0.437384 -3.77852e-23)
(8.11192 -0.463108 3.76895e-23)
(8.12199 -0.491695 2.77732e-23)
(8.14448 -0.513358 0)
(8.09216 -0.408241 0)
(8.45095 -0.095987 5.14251e-23)
(8.04265 -0.150725 1.1276e-24)
(8.11138 -0.126495 -6.78076e-23)
(8.07214 -0.197616 6.75807e-23)
(8.07867 -0.234973 -1.33153e-22)
(8.05361 -0.271624 3.73536e-23)
(8.05818 -0.296294 3.73974e-23)
(8.03941 -0.342085 3.98108e-23)
(8.05566 -0.383187 -2.23487e-23)
(8.66362 -0.101687 6.4004e-23)
(9.17932 -0.102825 0)
(8.96651 -0.0612273 8.29269e-24)
(8.4443 -0.656358 -1.68899e-23)
(8.57095 -0.690687 5.12776e-24)
(8.6103 -0.701705 9.9724e-24)
(8.50473 -0.681031 0)
(8.54745 -0.698213 4.03007e-24)
(8.4665 -0.671053 -1.76298e-23)
(8.67165 -0.719557 0)
(8.65115 -0.711246 4.11157e-24)
(8.72678 -0.717729 -1.13827e-23)
(8.4078 -0.639237 1.7344e-23)
(8.36263 -0.640218 0)
(8.29218 -0.603028 0)
(8.33766 -0.625659 6.50249e-25)
(8.7893 -0.727735 -2.00566e-25)
(8.23763 -0.604999 -3.09612e-23)
(8.2139 -0.566333 1.47045e-23)
(8.16186 -0.546491 0)
(8.17742 -0.561174 0)
(8.06612 -0.452749 -1.71897e-23)
(8.07927 -0.480105 1.78877e-23)
(8.09243 -0.510214 1.69962e-23)
(8.12597 -0.530835 -1.12905e-23)
(8.05515 -0.420106 3.17915e-23)
(8.27237 -0.0882136 -6.24857e-23)
(8.0202 -0.133354 1.11786e-24)
(8.06799 -0.182941 -1.13231e-23)
(8.138 -0.105418 0)
(8.05058 -0.13311 0)
(8.03552 -0.216484 2.50009e-23)
(8.03552 -0.233195 -1.14406e-22)
(8.00871 -0.278041 0)
(8.00784 -0.311906 0)
(8.00396 -0.344896 6.1445e-23)
(8.03892 -0.370735 -5.6242e-23)
(8.03469 -0.408294 -1.91001e-23)
(8.58559 -0.101626 9.35928e-24)
(9.05009 -0.0554549 0)
(8.9283 -0.0812888 0)
(8.74341 -0.0895348 1.6857e-23)
(8.11719 0.036254 0)
(7.57019 -0.0166658 -5.94716e-24)
(8.42276 -0.67767 0)
(8.5891 -0.705663 1.89891e-24)
(8.6301 -0.723516 1.63958e-23)
(8.49827 -0.706743 0)
(8.54051 -0.722275 0)
(8.45711 -0.698921 2.06645e-23)
(8.68986 -0.735859 1.21166e-23)
(8.7309 -0.736373 -1.1651e-23)
(8.40069 -0.667053 0)
(8.35685 -0.666641 2.07472e-23)
(8.28961 -0.627015 1.06583e-23)
(8.31544 -0.63963 -2.15485e-23)
(8.81565 -0.732893 -7.63381e-24)
(8.77233 -0.743695 0)
(8.21245 -0.594784 0)
(8.24756 -0.627726 -6.97137e-24)
(8.14097 -0.551039 -1.12249e-23)
(8.17067 -0.589696 0)
(8.0406 -0.442136 1.49714e-23)
(8.05624 -0.473212 1.79327e-23)
(8.06954 -0.500642 0)
(8.08597 -0.532353 -1.05855e-23)
(8.10503 -0.541133 0)
(8.35546 -0.0904658 -5.3973e-23)
(8.01599 -0.144736 3.9066e-23)
(8.02986 -0.189086 4.7246e-24)
(8.07302 -0.107148 -3.98181e-23)
(8.04225 -0.128268 -3.81568e-23)
(7.98373 -0.214189 3.49432e-23)
(7.98763 -0.24887 -5.24583e-23)
(7.98378 -0.303392 0)
(7.98388 -0.266928 -5.24683e-23)
(7.98639 -0.326734 1.20202e-23)
(7.9787 -0.370341 -8.16137e-24)
(7.9988 -0.384616 0)
(8.00041 -0.4222 -1.9214e-23)
(9.06665 -0.0383218 -3.11732e-23)
(9.09432 -0.0496431 0)
(8.62884 -0.0756934 1.76103e-23)
(8.14837 0.0314814 0)
(8.08943 0.0502193 0)
(8.02165 0.0423828 -4.28976e-24)
(7.91078 -0.0244193 -5.27221e-23)
(7.61841 0.00100713 0)
(8.43039 -0.699308 7.7163e-25)
(8.58349 -0.73592 3.44537e-23)
(8.62966 -0.741523 3.76814e-24)
(8.5167 -0.724271 0)
(8.4754 -0.713151 2.17071e-23)
(8.56206 -0.741411 0)
(8.71631 -0.748141 1.24098e-23)
(8.6764 -0.760082 -1.55867e-23)
(8.75655 -0.750078 0)
(8.37868 -0.681472 1.9954e-23)
(8.33222 -0.67892 1.82278e-25)
(8.27256 -0.635664 2.39711e-23)
(8.31111 -0.664936 -2.98122e-23)
(8.78027 -0.760509 0)
(8.19172 -0.605849 0)
(8.23087 -0.649211 4.58324e-23)
(8.12651 -0.570808 0)
(8.14952 -0.60591 -3.50195e-24)
(8.00706 -0.45888 3.73759e-23)
(8.03057 -0.486767 -1.10705e-23)
(8.0418 -0.517874 8.67029e-24)
(8.05913 -0.552705 1.46381e-23)
(8.10127 -0.564501 0)
(8.2464 -0.0963858 0)
(8.00029 -0.133431 4.43255e-23)
(8.02351 -0.173923 4.22016e-23)
(7.98 -0.204222 0)
(8.07448 -0.0975337 3.95244e-23)
(8.01698 -0.127765 1.14593e-24)
(7.94419 -0.226699 0)
(7.95604 -0.243438 0)
(7.94922 -0.307677 0)
(7.93543 -0.282734 0)
(7.94571 -0.339042 -2.26213e-23)
(7.94466 -0.377526 -1.75929e-23)
(7.98074 -0.406151 0)
(7.98451 -0.445714 -2.11545e-23)
(8.98036 -0.0533385 -2.29234e-23)
(8.94609 0.00319469 -4.36848e-23)
(8.73185 -0.0605468 1.54296e-23)
(8.33934 -0.0797529 0)
(8.10812 0.0453365 0)
(8.01987 0.0604933 8.50556e-23)
(8.11794 0.0585792 -5.60556e-24)
(8.01252 0.0564782 8.45705e-23)
(7.98154 0.008854 -4.13214e-23)
(7.59914 -0.0165185 0)
(8.41238 -0.722334 0)
(8.60819 -0.752486 4.38941e-23)
(8.6546 -0.759725 2.29349e-24)
(8.5074 -0.752525 -3.09887e-23)
(8.46462 -0.737384 4.19803e-24)
(8.55097 -0.759659 0)
(8.71456 -0.776304 1.54407e-24)
(8.69383 -0.784642 -1.73971e-23)
(8.75088 -0.773899 0)
(8.36814 -0.708326 -1.18158e-24)
(8.32167 -0.698661 1.61915e-25)
(8.2685 -0.667999 0)
(8.28744 -0.682278 -2.94235e-23)
(8.79825 -0.763499 -3.05391e-24)
(8.76601 -0.781474 0)
(8.17899 -0.629598 0)
(8.2478 -0.675607 1.10893e-23)
(8.20856 -0.664583 4.95826e-23)
(8.12985 -0.594446 0)
(8.15157 -0.626083 -3.91998e-24)
(8.0042 -0.479031 3.69752e-23)
(8.02224 -0.50708 -2.99696e-23)
(8.03719 -0.54342 -2.89198e-23)
(8.06031 -0.572179 1.4279e-23)
(8.08547 -0.578212 0)
(7.98519 -0.13463 -1.00193e-23)
(7.9842 -0.177667 0)
(7.93522 -0.199307 1.0034e-23)
(8.03814 -0.0945546 4.72332e-23)
(8.00733 -0.119046 -3.88019e-23)
(7.89555 -0.23391 4.63248e-23)
(7.91149 -0.258857 2.2101e-23)
(7.92479 -0.298575 0)
(7.92826 -0.324489 -2.23999e-23)
(7.90539 -0.275028 2.18591e-23)
(7.92652 -0.362436 0)
(7.92687 -0.398009 -1.85082e-23)
(7.94743 -0.414659 1.80072e-23)
(7.95397 -0.456625 -1.53335e-23)
(9.02661 -0.0436503 0)
(9.03327 -0.00584018 -5.49746e-24)
(8.56904 -0.0446004 0)
(8.2501 -0.0697265 0)
(8.13392 0.0598467 -5.82474e-24)
(8.00245 0.0738105 0)
(8.06539 0.0817022 8.88352e-24)
(8.04181 0.0659157 -1.2498e-23)
(8.02468 0.0676145 0)
(8.09127 0.0638017 0)
(7.85539 -0.0179441 -3.97654e-23)
(7.63483 -0.0234402 0)
(8.38786 -0.7249 0)
(8.42463 -0.741597 -7.11749e-24)
(8.60157 -0.773677 -8.68563e-24)
(8.642 -0.790129 0)
(8.52931 -0.76965 -3.36153e-23)
(8.4859 -0.757209 1.42895e-23)
(8.44654 -0.744901 -1.74638e-23)
(8.5665 -0.778868 1.86902e-23)
(8.73367 -0.790282 0)
(8.68452 -0.802659 0)
(8.34745 -0.715101 0)
(8.30501 -0.716722 0)
(8.28158 -0.706891 -2.89208e-23)
(8.82569 -0.781936 -1.04117e-23)
(8.80612 -0.781447 0)
(8.77819 -0.793246 1.55947e-23)
(8.18753 -0.652878 6.75779e-25)
(8.23363 -0.698724 0)
(8.20543 -0.694759 0)
(8.10672 -0.612446 0)
(8.13298 -0.646864 -8.93815e-24)
(7.97946 -0.497035 -6.19493e-23)
(7.99348 -0.518902 -2.55035e-23)
(8.0117 -0.5568 -2.73997e-23)
(8.04207 -0.598298 0)
(8.08614 -0.601372 0)
(7.98414 -0.123197 0)
(7.97641 -0.148302 -2.701e-23)
(7.96696 -0.164005 0)
(7.94062 -0.191381 8.56227e-24)
(7.88095 -0.207882 3.4582e-23)
(8.02339 -0.0833389 5.63802e-24)
(8.01286 -0.110806 9.88627e-24)
(7.8695 -0.223912 4.48024e-23)
(7.87444 -0.250899 2.59582e-24)
(7.88414 -0.313544 0)
(7.88917 -0.330604 6.99919e-24)
(7.86406 -0.28743 1.08689e-23)
(7.8928 -0.369163 0)
(7.8967 -0.405844 -1.84631e-23)
(7.93369 -0.438311 1.79423e-23)
(7.93891 -0.482037 1.97547e-24)
(8.94107 -0.004291 7.81337e-25)
(9.04577 -0.0376404 -2.0476e-24)
(8.34457 -0.0448215 1.18763e-23)
(8.67975 -0.0213927 1.38047e-23)
(8.09296 -0.0806257 0)
(8.07232 0.0616515 -9.61627e-24)
(7.98946 0.0806584 0)
(8.00793 0.0910483 4.46255e-23)
(8.06346 0.0903904 8.89249e-24)
(8.07063 0.0710486 0)
(8.02192 0.0856991 4.5417e-23)
(8.11978 0.06845 2.17412e-23)
(7.90981 0.00862328 -3.94213e-23)
(7.58635 0.0308874 -3.34518e-23)
(8.38095 -0.753493 0)
(8.4151 -0.762274 0)
(8.62266 -0.791834 -1.82085e-23)
(8.58669 -0.787005 1.67884e-23)
(8.66147 -0.808422 0)
(8.53098 -0.788877 -9.88757e-24)
(8.4771 -0.785774 1.98408e-24)
(8.4458 -0.767861 1.15856e-23)
(8.55509 -0.797811 -6.50068e-24)
(8.73592 -0.809447 0)
(8.70208 -0.820816 -1.70724e-23)
(8.34424 -0.740183 0)
(8.31919 -0.739251 0)
(8.26619 -0.721953 -3.61286e-23)
(8.79928 -0.794945 -5.53776e-24)
(8.77765 -0.812748 1.56265e-23)
(8.16551 -0.678925 -1.02542e-23)
(8.24294 -0.7156 -1.91666e-23)
(8.19371 -0.715942 0)
(8.10798 -0.637009 0)
(8.13868 -0.669912 -4.75975e-24)
(7.95341 -0.501421 -6.2264e-23)
(7.98805 -0.539207 3.10291e-23)
(8.00552 -0.578366 -1.44249e-23)
(8.05934 -0.618174 0)
(8.0225 -0.59974 0)
(7.95766 -0.122499 -1.03676e-23)
(7.92454 -0.144415 -3.28387e-23)
(7.91595 -0.16688 0)
(7.898 -0.18272 0)
(7.83485 -0.197754 5.02327e-23)
(8.0016 -0.0874734 -7.7952e-24)
(7.99813 -0.107348 2.21666e-24)
(7.81423 -0.237829 -4.18128e-23)
(7.84225 -0.261215 1.14493e-23)
(7.85771 -0.306523 1.0947e-23)
(7.87454 -0.350053 6.35524e-24)
(7.83741 -0.280013 8.74497e-24)
(7.87795 -0.388458 0)
(7.88444 -0.426681 0)
(7.90459 -0.445083 0)
(7.91412 -0.485313 -5.07046e-24)
(9.02335 -0.0393881 2.01337e-23)
(8.81563 0.089343 -9.41685e-24)
(8.19655 -0.0564604 1.67324e-23)
(8.52999 -0.0264487 1.34319e-23)
(8.06391 -0.0751397 0)
(8.0968 0.065185 0)
(7.98203 0.0970904 -4.74253e-24)
(7.99674 0.105836 0)
(7.9874 0.101989 0)
(8.08454 0.0783698 5.23485e-24)
(8.07836 0.0856932 4.22795e-24)
(8.0547 0.0956195 1.90176e-24)
(8.12732 0.0830062 2.15752e-23)
(7.79878 0.0505627 8.71823e-24)
(7.60904 0.0278742 0)
(8.36134 -0.756116 0)
(8.39691 -0.769728 0)
(8.42831 -0.774302 -3.3812e-24)
(8.61527 -0.81094 0)
(8.5938 -0.807138 0)
(8.66495 -0.827416 0)
(8.51844 -0.805094 0)
(8.45857 -0.784595 2.24485e-23)
(8.49662 -0.804043 0)
(8.56357 -0.815718 4.24577e-24)
(8.76154 -0.823971 0)
(8.72306 -0.827313 -1.77501e-23)
(8.69123 -0.837811 0)
(8.30697 -0.7597 8.6999e-24)
(8.26864 -0.748795 2.76574e-23)
(8.82861 -0.81297 0)
(8.81291 -0.80998 -5.69453e-24)
(8.80186 -0.826786 0)
(8.16883 -0.707851 2.88231e-23)
(8.23271 -0.738962 -1.75925e-23)
(8.20868 -0.737227 1.46467e-23)
(8.08634 -0.655323 2.19379e-24)
(8.11342 -0.695414 0)
(7.93999 -0.528569 3.41508e-23)
(7.96101 -0.54882 3.30915e-23)
(7.9789 -0.591936 -9.26128e-24)
(8.05983 -0.640177 2.209e-24)
(8.00546 -0.625494 -1.87414e-23)
(7.95554 -0.115592 -1.045e-23)
(7.91931 -0.1349 -1.30449e-23)
(7.8857 -0.155721 0)
(7.8383 -0.182594 -1.5985e-23)
(7.79478 -0.210288 0)
(7.98529 -0.080436 0)
(7.97342 -0.107155 3.61521e-23)
(7.81221 -0.25498 -7.2088e-24)
(7.79609 -0.232501 -3.88408e-23)
(7.82958 -0.320816 3.90085e-23)
(7.84454 -0.354979 0)
(7.80708 -0.292446 -2.86172e-23)
(7.84833 -0.397016 0)
(7.85759 -0.43575 0)
(7.89545 -0.466296 -1.80692e-24)
(7.89325 -0.507015 1.31402e-23)
(8.9981 -0.0369743 6.07844e-25)
(9.00981 0.0298762 5.17413e-24)
(8.25917 -0.0501439 1.95825e-24)
(8.67662 -0.0164425 0)
(8.00942 -0.0693912 0)
(7.93498 0.0665486 4.48272e-23)
(7.96037 0.107064 -4.37485e-24)
(8.01624 0.115682 2.18385e-24)
(7.96556 0.115941 -6.83452e-23)
(8.08499 0.0802465 1.03704e-22)
(8.10622 0.0927599 2.54026e-23)
(8.06325 0.110441 5.36463e-24)
(8.17351 0.0734139 8.64736e-24)
(8.15662 0.0858325 4.1057e-23)
(7.51698 0.0178929 -6.23047e-23)
(8.3472 -0.777742 -1.00133e-23)
(8.38618 -0.790511 0)
(8.42172 -0.791402 -2.14065e-23)
(8.63082 -0.826611 -1.45019e-24)
(8.58575 -0.823845 0)
(8.65413 -0.838998 -2.38872e-24)
(8.5291 -0.827071 0)
(8.44411 -0.802068 -4.20883e-24)
(8.49369 -0.833425 7.77711e-24)
(8.55203 -0.833695 8.46872e-24)
(8.76455 -0.845042 2.08038e-23)
(8.73173 -0.847929 -2.05317e-23)
(8.69818 -0.855708 -9.79793e-25)
(8.28609 -0.762977 3.64251e-23)
(8.32392 -0.778379 0)
(8.24751 -0.755729 -1.15421e-23)
(8.84297 -0.825718 -2.3243e-23)
(8.79689 -0.840325 0)
(8.15231 -0.727166 3.10836e-23)
(8.1968 -0.764882 -9.46091e-24)
(8.08662 -0.683386 0)
(8.11913 -0.71992 -9.66393e-24)
(7.91168 -0.5444 2.37157e-24)
(7.9539 -0.574826 0)
(7.97834 -0.617165 -1.31293e-23)
(8.03968 -0.65549 0)
(8.01377 -0.644873 -5.5855e-24)
(7.90732 -0.11997 0)
(7.87182 -0.134587 -1.16461e-23)
(7.83139 -0.156705 0)
(7.80732 -0.168219 -2.87348e-23)
(7.78107 -0.201578 0)
(7.96889 -0.0875961 -1.45073e-23)
(7.95993 -0.0977964 3.40639e-23)
(7.78835 -0.266632 -7.85209e-24)
(7.77136 -0.233805 0)
(7.80507 -0.309775 3.87103e-23)
(7.82612 -0.340947 0)
(7.82933 -0.378388 0)
(7.78972 -0.284083 -2.30958e-23)
(7.83836 -0.418512 0)
(7.84828 -0.459987 0)
(7.86588 -0.475067 -1.52371e-23)
(7.86501 -0.496115 -1.04885e-23)
(7.89365 -0.527975 -1.57619e-23)
(9.06932 -0.0511347 -4.27564e-23)
(8.76208 0.0386457 0)
(8.18211 -0.054939 -1.75164e-25)
(8.55032 -0.0320146 -8.89432e-24)
(8.00257 -0.0721394 0)
(7.93918 0.0763173 5.27083e-23)
(7.97636 0.122766 -5.37082e-23)
(8.05034 0.121225 -1.8369e-23)
(8.00714 0.129524 -5.04797e-23)
(7.95522 0.109673 -5.08541e-23)
(7.94099 0.12977 0)
(8.03231 0.0831744 5.34182e-23)
(8.02252 0.100846 8.88041e-23)
(8.11497 0.107218 2.11894e-23)
(8.09633 0.116788 2.24059e-23)
(8.18557 0.0802757 -1.61904e-23)
(8.15844 0.101678 1.39319e-23)
(7.5495 0.00772955 -2.28702e-23)
(7.75302 0.0365704 0)
(8.35313 -0.796908 3.38651e-24)
(8.37212 -0.804667 0)
(8.40471 -0.802722 -1.17374e-23)
(8.62461 -0.849448 -2.73112e-23)
(8.60209 -0.843568 0)
(8.66288 -0.862436 -2.46683e-24)
(8.51702 -0.8489 0)
(8.45382 -0.820191 0)
(8.4799 -0.837956 7.19762e-24)
(8.56509 -0.852661 4.63238e-24)
(8.75151 -0.857963 -2.06111e-23)
(8.7817 -0.852996 2.09509e-23)
(8.71992 -0.864261 0)
(8.68269 -0.872046 7.95648e-25)
(8.27843 -0.790137 0)
(8.31598 -0.80215 0)
(8.23726 -0.781321 0)
(8.82901 -0.842775 -1.23243e-24)
(8.81087 -0.850489 0)
(8.16136 -0.749877 0)
(8.17935 -0.764579 -1.42521e-23)
(8.2146 -0.785898 0)
(8.0653 -0.698629 8.60669e-24)
(8.10775 -0.739141 8.28419e-24)
(7.90601 -0.578262 7.85864e-24)
(7.92985 -0.593785 0)
(7.96414 -0.636563 1.91879e-23)
(8.04051 -0.685855 8.46373e-24)
(7.99936 -0.674064 -2.5315e-23)
(7.89725 -0.112451 8.14028e-24)
(7.86816 -0.128936 0)
(7.81878 -0.138362 -9.20995e-24)
(7.81367 -0.147707 0)
(7.77973 -0.170722 0)
(7.77287 -0.184115 2.84562e-24)
(7.7657 -0.219368 0)
(7.96047 -0.0817982 -1.45731e-23)
(7.924 -0.103569 0)
(7.76553 -0.26587 0)
(7.76028 -0.239134 2.16988e-25)
(7.7779 -0.321538 -2.84579e-23)
(7.79409 -0.353057 0)
(7.79637 -0.390782 3.17735e-23)
(7.76191 -0.295073 4.96393e-24)
(7.81599 -0.424804 -3.29311e-23)
(7.82906 -0.466135 0)
(7.85063 -0.513606 -2.46209e-23)
(7.86586 -0.538741 0)
(8.99423 -0.0377046 -1.12664e-23)
(8.96945 0.0614321 1.64462e-24)
(8.30594 -0.0537807 -5.39629e-24)
(8.07532 -0.0734023 2.50023e-23)
(8.69058 -0.0168855 -6.26581e-25)
(8.00509 -0.0716615 2.86862e-23)
(7.9795 -0.0821543 0)
(7.96484 0.132497 0)
(8.06933 0.137272 -2.3549e-23)
(8.03036 0.142438 0)
(7.92129 0.126004 6.345e-23)
(7.94337 0.141281 2.33324e-23)
(8.03941 0.0611084 0)
(8.00499 0.106059 0)
(8.14545 0.11275 -9.31418e-24)
(8.11002 0.130145 2.23817e-23)
(8.18154 0.0952146 -6.26975e-24)
(8.17017 0.105489 0)
(7.5 0.0237825 3.39656e-23)
(7.7023 0.0305139 0)
(8.33592 -0.815607 1.41714e-23)
(8.37961 -0.828383 -1.32176e-23)
(8.41347 -0.822986 -2.09516e-23)
(8.64674 -0.868431 -3.8912e-23)
(8.59131 -0.861022 0)
(8.52907 -0.863658 0)
(8.44201 -0.834787 -2.13771e-23)
(8.48125 -0.861214 0)
(8.55427 -0.869602 0)
(8.74639 -0.876546 1.89149e-25)
(8.77385 -0.864318 2.39148e-23)
(8.71712 -0.880591 0)
(8.68572 -0.884849 -2.36139e-23)
(8.25555 -0.798111 0)
(8.29611 -0.808206 1.84914e-24)
(8.83598 -0.852144 8.88443e-24)
(8.79892 -0.869102 -2.28868e-23)
(8.14605 -0.766785 5.76839e-24)
(8.1668 -0.793575 -8.98085e-24)
(8.20505 -0.806446 0)
(8.06872 -0.720884 0)
(8.08878 -0.73767 1.96601e-23)
(8.12425 -0.76166 2.5262e-24)
(7.88228 -0.591087 -7.26782e-24)
(7.93466 -0.623291 1.92937e-23)
(7.97546 -0.666088 -6.92157e-24)
(8.01617 -0.69605 0)
(7.85463 -0.103618 8.10037e-24)
(7.83553 -0.117001 3.66195e-24)
(7.79658 -0.128344 0)
(7.7753 -0.146764 -9.82556e-24)
(7.76898 -0.154567 -9.59694e-24)
(7.75489 -0.190426 3.14829e-23)
(7.75083 -0.20775 0)
(7.93373 -0.0853254 0)
(7.90168 -0.0922994 2.18519e-24)
(7.7633 -0.255873 -4.30503e-24)
(7.74993 -0.28266 0)
(7.74124 -0.243626 2.23647e-25)
(7.75927 -0.30927 -4.54577e-23)
(7.77768 -0.339637 3.98496e-24)
(7.782 -0.374383 0)
(7.79239 -0.412082 -2.70345e-24)
(7.81093 -0.44757 0)
(7.81661 -0.487797 2.26569e-23)
(7.82744 -0.509831 -3.73976e-23)
(7.85892 -0.563662 -3.70505e-23)
(9.02482 0.0133985 1.31861e-23)
(8.79379 0.0366539 0)
(8.22044 -0.0581305 8.43335e-24)
(8.09228 -0.0686257 0)
(8.5391 -0.0252026 -3.60807e-23)
(7.9828 -0.0711231 1.29109e-23)
(7.97721 -0.0782667 0)
(7.98835 0.150623 0)
(8.0621 0.146871 0)
(8.09839 0.141641 0)
(8.03221 0.155245 6.73292e-24)
(7.92423 0.145916 2.27013e-23)
(7.89952 0.127677 4.1222e-23)
(7.97248 0.154396 3.91803e-23)
(8.04097 0.0664891 0)
(7.84527 0.025347 0)
(8.02008 0.0840528 0)
(7.93092 0.114756 3.29813e-23)
(8.14838 0.12626 0)
(8.13774 0.136076 0)
(8.20568 0.0912065 6.02855e-25)
(8.18925 0.109688 8.40953e-27)
(8.16864 0.124457 0)
(7.54523 -0.0155076 0)
(8.3415 -0.837198 6.88787e-25)
(8.3694 -0.847408 -1.29116e-23)
(8.40446 -0.838737 0)
(8.63716 -0.888193 -1.26515e-23)
(8.59586 -0.881076 -4.83697e-24)
(8.52203 -0.883564 0)
(8.4567 -0.854391 0)
(8.502 -0.877581 0)
(8.56174 -0.883346 1.14027e-23)
(8.73198 -0.889254 1.39862e-23)
(8.75792 -0.881046 7.8439e-24)
(8.78327 -0.874406 2.35833e-23)
(8.70357 -0.892666 -3.11103e-23)
(8.67057 -0.902396 2.04434e-23)
(8.24845 -0.818239 0)
(8.28796 -0.827124 1.82407e-24)
(8.82432 -0.864882 -3.64066e-23)
(8.81008 -0.877643 -1.52769e-23)
(8.14836 -0.791872 3.3967e-24)
(8.18194 -0.810387 -1.32177e-23)
(8.21515 -0.824459 0)
(8.04903 -0.734626 0)
(8.07355 -0.769596 0)
(8.11079 -0.787828 0)
(7.87722 -0.617714 8.40304e-25)
(7.91941 -0.642999 -9.59451e-24)
(7.96189 -0.69023 -1.43087e-23)
(8.02176 -0.717319 0)
(7.82891 -0.106804 0)
(7.85741 -0.0948407 -4.20975e-23)
(7.79456 -0.11652 2.03508e-23)
(7.7763 -0.129809 8.06527e-24)
(7.77235 -0.137927 8.81637e-24)
(7.75584 -0.15708 -6.72031e-25)
(7.74694 -0.171827 3.01012e-23)
(7.73824 -0.21459 0)
(7.92851 -0.0795196 -1.40259e-23)
(7.91008 -0.0886947 0)
(7.74081 -0.259275 -5.85138e-24)
(7.73965 -0.281532 7.6546e-24)
(7.73413 -0.232227 0)
(7.74325 -0.321058 -1.13635e-23)
(7.75899 -0.353452 2.36396e-24)
(7.76313 -0.373973 2.86899e-24)
(7.77146 -0.422986 -1.64092e-23)
(7.78473 -0.45853 -1.15153e-23)
(7.78867 -0.482266 1.38466e-23)
(7.81297 -0.528885 -2.28596e-24)
(7.83375 -0.56872 -2.86535e-23)
(8.95375 0.0294444 1.56797e-23)
(9.02207 0.0801565 -1.05519e-24)
(8.27967 -0.0402328 1.3207e-24)
(8.04061 -0.0535727 1.59178e-23)
(8.65717 0.00518314 -6.32225e-23)
(7.98262 -0.0577493 -2.02063e-23)