/*--------------------------------*- C++ -*----------------------------------*\
| =========                 |                                                 |
| \\      /  F ield         | OpenFOAM: The Open Source CFD Toolbox           |
|  \\    /   O peration     | Version:  v2012                                 |
|   \\  /    A nd           | Website:  www.openfoam.com                      |
|    \\/     M anipulation  |                                                 |
\*---------------------------------------------------------------------------*/
FoamFile
{
    version     2.0;
    format      ascii;
    class       surfaceVectorField;
    location    "2";
    object      Uf;
}
// * * * * * * * * * * * * * * * * * * * * * * * * * * * * * * * * * * * * * //

dimensions      [0 1 -1 0 0 0 0];


internalField   nonuniform List<vector> 
21399
(
(9.19361 0.0373203 1.4272e-21)
(9.32912 -0.278201 2.34592e-23)
(9.31302 -0.255345 5.88281e-20)
(9.13167 -0.0380787 2.09746e-21)
(9.42729 -0.50268 -1.61413e-21)
(9.25181 -0.371369 -1.84287e-21)
(9.00132 -0.220818 9.50007e-23)
(8.85995 -0.201961 8.20165e-22)
(8.69381 -0.177175 6.64051e-22)
(8.95951 0.0273629 2.54265e-22)
(9.0371 -0.157008 3.09728e-22)
(9.3058 -0.0146513 2.17695e-20)
(9.734 -0.208318 1.77948e-19)
(8.80718 -0.318928 -9.56208e-22)
(8.98341 -0.142757 9.32036e-22)
(8.65594 -0.194188 3.70238e-23)
(8.64665 -0.111686 6.55137e-22)
(9.06803 0.199361 1.4468e-21)
(9.04432 -0.0690417 1.03347e-21)
(9.01786 -0.135771 0)
(9.6193 -0.0918276 1.34585e-19)
(8.77982 -0.289877 -4.67276e-22)
(8.78338 -0.292784 2.69863e-21)
(8.8249 -0.0656936 -5.8948e-21)
(8.73867 -0.253831 -4.7796e-22)
(8.6581 -0.194585 -3.98351e-24)
(8.60109 -0.05865 -1.20617e-22)
(9.31522 0.0438303 1.84176e-21)
(8.94475 0.0680762 -1.35616e-20)
(8.98728 -0.0860638 -1.38112e-22)
(8.96204 -0.166148 -8.72247e-22)
(9.60505 -0.0210529 5.51014e-22)
(8.78055 -0.273771 1.70105e-23)
(8.826 -0.249145 2.1076e-22)
(8.77997 -0.276382 1.91687e-23)
(8.77623 -0.261633 -3.0339e-22)
(8.69343 -0.210948 0)
(8.63213 -0.182347 -2.41265e-22)
(8.55334 -0.168267 4.58782e-21)
(8.52413 -0.0985315 -1.25854e-20)
(8.79662 -0.0129431 -1.30244e-22)
(8.70428 -0.172441 -1.23303e-21)
(8.87475 -0.136969 -1.41083e-20)
(9.57356 -0.0467091 4.16229e-20)
(8.83044 -0.276903 -4.05335e-21)
(8.77884 -0.259577 8.21684e-25)
(8.75384 -0.264148 1.51682e-21)
(8.77855 -0.261081 0)
(8.74815 -0.24771 0)
(8.68915 -0.235839 0)
(8.54695 -0.208526 -2.39356e-22)
(8.45965 -0.164966 -8.18374e-22)
(8.81379 -0.0573738 3.65927e-22)
(8.7432 0.0072586 -6.2666e-24)
(8.82193 -0.106309 3.88733e-22)
(9.58718 -0.08492 -5.0253e-23)
(9.43177 -0.101748 -3.90646e-22)
(8.78053 -0.28237 3.47845e-22)
(8.82271 -0.303235 -1.25032e-21)
(8.73674 -0.28043 6.57616e-21)
(8.7182 -0.292499 -4.5588e-21)
(8.7243 -0.290651 0)
(8.60541 -0.249377 0)
(8.63094 -0.25794 0)
(8.53613 -0.245227 -4.73812e-23)
(8.4514 -0.226824 5.09435e-21)
(8.41118 -0.174366 -5.33527e-22)
(8.89648 -0.0614987 7.88484e-21)
(8.68051 -0.0166433 -6.13473e-24)
(8.76775 -0.0690394 0)
(8.71144 -0.163842 0)
(9.52521 -0.10728 0)
(9.17963 -0.126214 -2.89009e-22)
(8.75323 -0.304014 3.98678e-22)
(8.80902 -0.336524 3.35455e-22)
(8.68606 -0.309153 1.17598e-23)
(8.6838 -0.330063 9.74571e-22)
(8.65939 -0.31408 0)
(8.57912 -0.270439 -1.03146e-21)
(8.61512 -0.277379 1.13312e-22)
(8.50363 -0.243674 1.43605e-20)
(8.52534 -0.275557 -9.14322e-22)
(8.45297 -0.246672 4.09803e-21)
(8.4598 -0.180708 0)
(8.35499 -0.184767 0)
(8.68842 -0.032071 0)
(8.55892 -0.192169 -2.41343e-22)
(9.41084 -0.110087 -3.5906e-25)
(9.49662 -0.100681 -1.07423e-22)
(9.11159 -0.11021 -3.99705e-25)
(8.77216 -0.340874 3.90251e-23)
(8.73301 -0.344721 -1.83915e-21)
(8.775 -0.357425 -5.03007e-23)
(8.65275 -0.345175 8.00234e-23)
(8.68553 -0.350141 1.58701e-22)
(8.62604 -0.302756 1.14049e-22)
(8.6234 -0.325271 0)
(8.78461 -0.366332 -1.3226e-22)
(8.55593 -0.273893 4.7419e-21)
(8.56394 -0.285872 -9.17248e-22)
(8.59564 -0.292512 8.33562e-22)
(8.52746 -0.291241 -8.15837e-22)
(8.42925 -0.255741 -2.51375e-22)
(8.47326 -0.276612 4.80265e-22)
(8.38478 -0.245139 0)
(8.33029 -0.203713 0)
(8.80746 -0.0580839 0)
(8.61288 -0.0486117 6.96533e-25)
(8.5504 -0.143707 -2.50563e-22)
(8.45854 -0.198789 -7.63188e-21)
(9.37322 -0.157487 2.70437e-20)
(9.03274 -0.112011 0)
(8.69684 -0.364758 1.06581e-22)
(8.69475 -0.388785 2.78032e-23)
(8.75009 -0.377267 -3.71895e-22)
(8.62269 -0.340631 0)
(8.62679 -0.363655 6.65738e-23)
(8.66814 -0.386845 2.27221e-21)
(8.59829 -0.343727 -1.18022e-24)
(8.57035 -0.297155 1.28504e-22)
(8.55315 -0.308179 -8.74563e-23)
(8.57162 -0.317386 -1.34758e-22)
(8.50732 -0.29674 -8.99047e-22)
(8.5267 -0.304735 -1.87191e-22)
(8.42961 -0.276456 -7.82923e-23)
(8.48791 -0.294892 1.55405e-22)
(8.32719 -0.201347 -3.44286e-22)
(8.30527 -0.217508 0)
(8.51549 -0.103491 5.5484e-22)
(8.37379 -0.212936 -2.29145e-22)
(9.18293 -0.165093 -6.25642e-23)
(9.30881 -0.138876 -1.6982e-20)
(8.94164 -0.157108 -3.82337e-23)
(8.69595 -0.413117 0)
(8.66249 -0.42611 1.40684e-23)
(8.74815 -0.407915 -3.56206e-23)
(8.72261 -0.40204 -1.24988e-23)
(8.63221 -0.392967 1.66812e-21)
(8.60081 -0.39305 7.13665e-23)
(8.63537 -0.41443 3.39713e-22)
(8.57232 -0.342864 3.17949e-23)
(8.5658 -0.368976 1.22567e-22)
(8.75014 -0.433119 -2.73874e-23)
(8.5335 -0.317209 -6.85064e-22)
(8.52172 -0.330505 -3.52292e-23)
(8.53979 -0.341192 8.20684e-23)
(8.51428 -0.322017 -7.57168e-23)
(8.46754 -0.291736 5.24518e-22)
(8.43937 -0.291733 1.20425e-21)
(8.47898 -0.309167 7.95953e-23)
(8.368 -0.263317 -2.39005e-22)
(8.29324 -0.231591 1.5329e-22)
(8.67543 -0.145859 8.71205e-21)
(8.45205 -0.128551 -1.59218e-23)
(8.36592 -0.199551 1.15856e-20)
(8.28038 -0.216082 5.33655e-22)
(9.33903 -0.112261 2.37613e-23)
(9.18772 -0.130277 1.79043e-23)
(8.84714 -0.198729 -1.36492e-21)
(8.70309 -0.439641 -5.67923e-25)
(8.62892 -0.437309 5.33063e-22)
(8.63429 -0.462249 8.44389e-23)
(8.55904 -0.39958 -2.95273e-24)
(8.56653 -0.427047 -1.90374e-23)
(8.59951 -0.442423 -6.69823e-25)
(8.53444 -0.392493 3.22439e-24)
(8.74543 -0.455122 1.72131e-24)
(8.72296 -0.450043 6.626e-23)
(8.74186 -0.481316 1.17487e-22)
(8.51139 -0.349295 -2.97197e-22)
(8.48693 -0.358277 1.29882e-21)
(8.51608 -0.372364 -3.51048e-22)
(8.48067 -0.344416 -4.76652e-23)
(8.49224 -0.332154 -1.71234e-23)
(8.42478 -0.295782 -7.96856e-22)
(8.43877 -0.315949 -3.70175e-22)
(8.47509 -0.33231 1.05327e-21)
(8.45525 -0.326759 7.37867e-23)
(8.41349 -0.307951 -1.95715e-22)
(8.25935 -0.226609 -1.6649e-21)
(8.32724 -0.267093 -3.95826e-23)
(8.38397 -0.155694 8.48431e-23)
(8.41773 -0.146718 0)
(8.32508 -0.17747 -9.73217e-21)
(8.24166 -0.233373 1.69235e-22)
(9.30268 -0.186049 0)
(8.95512 -0.183371 2.65153e-24)
(9.00628 -0.14296 0)
(8.73262 -0.199637 -2.01889e-20)
(8.69342 -0.463499 -5.51671e-25)
(8.61086 -0.487989 -1.18906e-21)
(8.64438 -0.485478 1.64205e-21)
(8.57912 -0.443272 1.28817e-21)
(8.54574 -0.446288 -1.54965e-23)
(8.57819 -0.464314 -3.32487e-23)
(8.49937 -0.403107 6.29062e-24)
(8.71958 -0.50235 -3.43225e-24)
(8.74244 -0.509253 1.98376e-24)
(8.46556 -0.361899 8.50172e-23)
(8.45083 -0.38348 1.40951e-23)
(8.44132 -0.366836 3.75518e-22)
(8.44547 -0.354364 -4.2031e-23)
(8.42191 -0.345767 -1.00547e-23)
(8.38657 -0.306653 7.95616e-24)
(8.38802 -0.329601 -1.72211e-22)
(8.35011 -0.296721 3.98225e-24)
(8.56078 -0.190347 1.50192e-23)
(8.4252 -0.157656 1.11821e-23)
(8.30852 -0.165959 2.99403e-23)
(8.24289 -0.196676 -1.26091e-21)
(8.28555 -0.26585 7.41529e-22)
(8.22828 -0.237444 3.58888e-23)
(9.33477 -0.187354 -1.55299e-23)
(9.24718 -0.157634 1.50086e-23)
(8.95195 -0.146211 1.31023e-23)
(8.81106 -0.169934 0)
(8.70291 -0.197567 1.40336e-23)
(8.6694 -0.487837 1.09391e-24)
(8.69529 -0.496916 -7.44471e-24)
(8.58923 -0.492515 8.19766e-24)
(8.60276 -0.514998 9.69393e-23)
(8.65241 -0.516129 -8.93534e-24)
(8.52306 -0.461578 -2.54435e-25)
(8.53704 -0.472464 0)
(8.57226 -0.482412 6.29742e-23)
(8.55362 -0.477702 -1.93187e-23)
(8.46534 -0.416544 8.85082e-24)
(8.48926 -0.432689 -1.9886e-23)
(8.70019 -0.524098 -9.69163e-24)
(8.74534 -0.533993 -9.12141e-25)
(8.44261 -0.409894 8.65628e-24)
(8.41622 -0.40371 1.04626e-24)
(8.42334 -0.371505 -1.13025e-22)
(8.40911 -0.387279 -9.93212e-23)
(8.40449 -0.374794 6.402e-22)
(8.38498 -0.360186 -1.08632e-22)
(8.38392 -0.372193 0)
(8.37474 -0.349561 -2.67367e-21)
(8.34273 -0.3488 1.08392e-21)
(8.32807 -0.293324 3.1035e-23)
(8.32082 -0.321444 -6.49408e-23)
(8.35476 -0.140667 1.83466e-21)
(8.46381 -0.159692 1.18953e-23)
(8.29003 -0.155309 -7.46715e-21)
(8.20422 -0.22404 3.51809e-23)
(8.18304 -0.207396 4.00359e-23)
(8.30507 -0.296111 2.85856e-23)
(8.22459 -0.251172 -6.9037e-23)
(9.23945 -0.170974 -3.56227e-20)
(8.97627 -0.125752 1.17472e-20)
(8.65325 -0.176307 0)
(8.56444 -0.508642 -3.3774e-22)
(8.61338 -0.535431 -2.87688e-23)
(8.58971 -0.538929 1.35456e-24)
(8.63623 -0.536745 2.1984e-22)
(8.66095 -0.539432 3.33571e-22)
(8.50197 -0.454615 1.14662e-21)
(8.4941 -0.482818 1.74883e-23)
(8.53214 -0.493315 0)
(8.44068 -0.437319 -2.62347e-22)
(8.47285 -0.459877 -9.76418e-23)
(8.68268 -0.544834 -7.44828e-24)
(8.70599 -0.550459 -6.64243e-24)
(8.72956 -0.553988 0)
(8.75151 -0.556708 2.74981e-25)
(8.39621 -0.403266 -1.12756e-22)
(8.39197 -0.424484 9.67521e-25)
(8.38073 -0.402839 -5.91119e-22)
(8.38007 -0.385033 -6.72999e-23)
(8.37173 -0.399012 -7.23939e-23)
(8.34773 -0.378659 -8.64529e-23)
(8.34571 -0.397208 0)
(8.31062 -0.352499 -3.50636e-22)
(8.30633 -0.375333 -3.70072e-22)
(8.28643 -0.346263 -2.15284e-23)
(8.56128 -0.153297 0)
(8.25749 -0.148738 1.01139e-23)
(8.20231 -0.177779 8.95932e-24)
(8.16613 -0.202544 0)
(8.18993 -0.230779 0)
(8.28141 -0.297529 4.71393e-23)
(8.28111 -0.319581 -5.18638e-23)
(8.22107 -0.257224 -6.88766e-23)
(8.25684 -0.279726 -1.85284e-21)
(9.21872 -0.141198 3.79088e-23)
(9.26253 -0.149846 3.93297e-24)
(9.00379 -0.107608 8.21592e-23)
(8.80444 -0.123225 2.44242e-21)
(8.56271 -0.540668 -1.28592e-21)
(8.54332 -0.529687 3.49185e-24)
(8.62233 -0.560079 -2.28608e-22)
(8.57337 -0.560539 -2.67444e-24)
(8.66628 -0.565492 -6.00927e-25)
(8.46999 -0.501544 -2.34632e-23)
(8.49196 -0.502498 1.36813e-23)
(8.52954 -0.515668 0)
(8.51065 -0.507148 0)
(8.44273 -0.465727 -3.61494e-23)
(8.4182 -0.462162 -3.96352e-22)
(8.44519 -0.485508 -4.57491e-23)
(8.71368 -0.574692 -2.44441e-24)
(8.76167 -0.577262 1.15986e-22)
(8.39369 -0.453336 -3.35506e-23)
(8.36697 -0.4451 -1.08211e-23)
(8.35238 -0.413512 -2.98197e-23)
(8.31101 -0.388603 4.40651e-23)
(8.31548 -0.398133 0)
(8.31513 -0.40854 0)
(8.30937 -0.420364 1.69041e-23)
(8.27496 -0.396278 -2.63476e-22)
(8.27494 -0.339162 -1.86791e-21)
(8.25575 -0.364067 -2.23503e-21)
(8.64198 -0.13217 -6.26092e-24)
(8.46811 -0.134061 0)
(8.32319 -0.136345 0)
(8.20826 -0.142394 -2.84061e-23)
(8.13802 -0.195702 3.026e-23)
(8.19723 -0.256534 3.76999e-23)
(8.25061 -0.305497 -8.80889e-24)
(8.25174 -0.33357 -4.1947e-23)
(9.04857 -0.118064 6.5254e-23)
(9.18799 -0.124178 0)
(8.67039 -0.122574 -1.15106e-21)
(8.52383 -0.544521 1.11166e-24)
(8.60792 -0.576111 -7.91995e-24)
(8.63123 -0.578092 -3.10479e-24)
(8.58949 -0.577591 -4.29841e-22)
(8.56294 -0.580694 -3.58014e-24)
(8.65009 -0.585715 0)
(8.67356 -0.592462 0)
(8.44794 -0.504385 1.22574e-23)
(8.44897 -0.524198 3.41092e-23)
(8.49288 -0.524453 1.51461e-23)
(8.38688 -0.483731 -1.58489e-22)
(8.41797 -0.507963 -5.07916e-24)
(8.69882 -0.595592 -2.47544e-24)
(8.72389 -0.598441 -2.5014e-24)
(8.74843 -0.600941 -2.59836e-23)
(8.34489 -0.440709 7.08297e-22)
(8.34032 -0.466416 1.59903e-23)
(8.3244 -0.433853 7.81342e-24)
(8.27956 -0.42001 0)
(8.30799 -0.432121 6.92477e-22)
(8.27932 -0.438562 7.04763e-24)
(8.24344 -0.405357 -3.37867e-22)
(8.24542 -0.418056 1.01326e-22)
(8.23084 -0.38015 -2.2763e-23)
(8.22045 -0.365646 7.1883e-22)
(8.40744 -0.132209 -1.5204e-23)
(8.16687 -0.148795 2.09208e-23)
(8.13545 -0.16801 2.48915e-21)
(8.11816 -0.187918 1.92815e-21)
(8.14388 -0.216597 1.85595e-22)
(8.17339 -0.255011 3.24896e-23)
(8.19204 -0.285242 2.46101e-22)
(8.23288 -0.327502 3.66786e-23)
(8.22187 -0.317716 1.09395e-21)
(8.22507 -0.344667 3.63928e-23)
(9.04999 -0.117797 -1.04834e-20)
(8.86685 -0.131829 3.12819e-23)
(9.18975 -0.101336 3.14023e-23)
(9.20383 -0.103903 4.24263e-23)
(8.53551 -0.122927 1.9331e-22)
(8.67841 -0.129509 1.53264e-23)
(8.49635 -0.546643 -1.01113e-21)
(8.51122 -0.56353 1.19149e-22)
(8.59984 -0.595769 -4.82689e-24)
(8.6347 -0.605266 0)
(8.55781 -0.605015 -3.57827e-24)
(8.5444 -0.591541 0)
(8.68235 -0.616307 9.46152e-24)
(8.45302 -0.543228 -4.69884e-22)
(8.42845 -0.545458 -1.57616e-24)
(8.47559 -0.544332 -4.54936e-23)
(8.35431 -0.501852 -9.01304e-24)
(8.3781 -0.511666 -1.30194e-23)
(8.39671 -0.517446 0)
(8.40129 -0.532046 0)
(8.73229 -0.622133 -3.80221e-24)
(8.33858 -0.489497 8.05367e-22)
(8.31382 -0.484156 -4.10763e-22)
(8.29803 -0.459126 1.38695e-23)
(8.24919 -0.42924 3.22395e-23)
(8.24928 -0.441136 -2.69329e-24)
(8.2539 -0.450136 -1.10666e-23)
(8.26067 -0.466036 2.6567e-22)
(8.23463 -0.39602 5.31102e-23)
(8.20955 -0.421541 3.43508e-22)
(8.21714 -0.440021 8.40167e-23)
(8.19752 -0.394474 -2.21004e-23)
(8.19868 -0.361789 1.24182e-21)
(8.40026 -0.133438 -9.46467e-21)
(8.16375 -0.148064 -5.51403e-21)
(8.10387 -0.158837 4.00946e-23)
(8.09196 -0.180451 -2.7225e-21)
(8.16339 -0.235426 -2.05408e-24)
(8.14476 -0.225146 -1.19082e-23)
(8.15525 -0.257581 0)
(8.20016 -0.310361 8.02787e-23)
(8.17467 -0.303915 3.02859e-23)
(8.18498 -0.334813 3.59391e-23)
(9.0174 -0.104318 3.09322e-23)
(8.69554 -0.132447 0)
(9.11516 -0.140681 -1.60643e-20)
(8.52502 -0.585593 -1.37658e-24)
(8.49647 -0.584659 -1.33105e-24)
(8.61014 -0.612157 0)
(8.59075 -0.615521 -3.3535e-24)
(8.62889 -0.624833 0)
(8.56983 -0.620476 -1.27887e-22)
(8.55055 -0.627436 -1.04923e-23)
(8.52661 -0.612014 -7.54852e-24)
(8.66923 -0.64051 7.86609e-23)
(8.6956 -0.639625 1.77803e-22)
(8.46017 -0.564843 7.37258e-24)
(8.40542 -0.549205 0)
(8.41341 -0.568515 0)
(8.32871 -0.518079 3.42339e-24)
(8.36775 -0.534302 4.24509e-24)
(8.38391 -0.553465 3.48319e-24)
(8.71486 -0.637685 5.05037e-22)
(8.74136 -0.639648 6.02733e-26)
(8.28962 -0.48597 1.95226e-23)
(8.28978 -0.507196 -1.83753e-23)
(8.27219 -0.480391 -3.67431e-23)
(8.22345 -0.46335 2.18162e-24)
(8.24314 -0.493275 2.60726e-22)
(8.17516 -0.430764 -3.16804e-23)
(8.18227 -0.439092 -4.71732e-22)
(8.18553 -0.450035 1.78865e-23)
(8.18959 -0.463328 1.2776e-23)
(8.16873 -0.418953 -2.88088e-23)
(8.16494 -0.400324 2.45686e-22)
(8.17614 -0.354525 4.73106e-23)
(8.1631 -0.374932 6.83606e-23)
(8.27215 -0.133337 3.2839e-22)
(8.40395 -0.125921 -1.36557e-23)
(8.15739 -0.138592 -3.12428e-21)
(8.07745 -0.176922 1.89503e-23)
(8.06763 -0.169987 0)
(8.10208 -0.195478 -2.614e-22)
(8.13125 -0.219503 -1.71067e-23)
(8.13331 -0.236491 -8.36787e-22)
(8.13275 -0.255284 1.07562e-23)
(8.14235 -0.273711 0)
(8.15217 -0.297085 0)
(8.14001 -0.317832 -6.44369e-24)
(8.15111 -0.348349 1.31399e-23)
(8.77034 -0.112657 0)
(8.90619 -0.110257 0)
(8.57279 -0.116093 0)
(9.01934 -0.135413 2.18257e-24)
(9.09885 -0.124255 -9.07914e-22)
(8.4711 -0.584951 0)
(8.48118 -0.60742 0)
(8.58391 -0.637233 -3.6085e-24)
(8.64528 -0.643172 1.33541e-24)
(8.62049 -0.648087 3.53444e-24)
(8.5281 -0.633277 6.41362e-22)
(8.54091 -0.647535 -1.22838e-23)
(8.51036 -0.632671 -8.56992e-24)
(8.66145 -0.667924 3.52326e-22)
(8.70845 -0.658015 -7.72363e-23)
(8.44647 -0.586576 0)
(8.42245 -0.588154 0)
(8.3987 -0.590699 0)
(8.29979 -0.524634 -3.28572e-23)
(8.31341 -0.539197 -1.66256e-23)
(8.36345 -0.554532 -2.15228e-22)
(8.34504 -0.55234 3.79593e-24)
(8.36801 -0.571313 2.2335e-23)
(8.76116 -0.652238 1.39793e-24)
(8.74706 -0.665513 -4.14446e-22)
(8.78149 -0.669113 2.09787e-24)
(8.27039 -0.530404 6.50865e-22)
(8.19519 -0.47353 -1.09146e-23)
(8.20279 -0.48683 5.45904e-22)
(8.21009 -0.503572 2.07884e-24)
(8.2279 -0.523305 -2.50477e-23)
(8.14355 -0.438383 9.29518e-23)
(8.15344 -0.459939 3.50012e-23)
(8.16482 -0.483648 4.32033e-22)
(8.15569 -0.387582 3.04791e-24)
(8.13326 -0.410781 -3.82633e-23)
(8.13293 -0.383929 -6.99746e-22)
(8.44464 -0.117838 0)
(8.07765 -0.142906 -1.92189e-23)
(8.13859 -0.131389 -5.75911e-23)
(8.057 -0.16119 0)
(8.08278 -0.184158 1.88884e-23)
(8.11556 -0.211755 -2.62704e-23)
(8.11072 -0.252896 2.79749e-21)
(8.11001 -0.291852 0)
(8.12311 -0.340736 -2.23166e-22)
(8.09766 -0.330788 -8.43831e-22)
(8.11232 -0.362418 3.61441e-23)
(8.895 -0.114915 -1.77673e-23)
(9.09024 -0.0644671 -8.33586e-20)
(9.07107 -0.0834169 -2.85397e-23)
(8.48872 -0.628792 -1.25998e-24)
(8.46355 -0.62777 1.02494e-25)
(8.59968 -0.653518 3.33321e-24)
(8.57943 -0.659334 4.9165e-25)
(8.6173 -0.669938 -3.24636e-22)
(8.5582 -0.661233 -4.25477e-24)
(8.53395 -0.665061 1.07238e-21)
(8.49235 -0.651987 -9.54045e-23)
(8.67434 -0.682502 -1.32688e-24)
(8.65267 -0.681614 -1.06635e-24)
(8.72734 -0.67064 1.12483e-24)
(8.70479 -0.676841 1.009e-24)
(8.43185 -0.609939 0)
(8.37543 -0.592145 -1.52898e-23)
(8.38626 -0.612256 8.41195e-24)
(8.32602 -0.552894 -1.52729e-23)
(8.2965 -0.563106 1.33468e-21)
(8.32849 -0.574306 0)
(8.35311 -0.591974 -2.94245e-22)
(8.7456 -0.68413 -1.09741e-22)
(8.78186 -0.692762 -2.22833e-22)
(8.2577 -0.561088 -4.64084e-23)
(8.24548 -0.539227 -1.6374e-23)
(8.18238 -0.510638 -5.78329e-22)
(8.23908 -0.531339 7.56028e-24)
(8.21414 -0.537377 0)
(8.11435 -0.442176 -1.04565e-23)
(8.11854 -0.45491 1.63116e-22)
(8.12327 -0.466405 3.23457e-23)
(8.12885 -0.480585 2.73957e-23)
(8.13529 -0.494054 -7.78837e-25)
(8.14482 -0.507234 -1.25887e-23)
(8.10978 -0.426607 -5.9963e-22)
(8.10305 -0.413252 -2.02677e-23)
(8.11028 -0.381916 6.01265e-23)
(8.10413 -0.399017 2.74776e-23)
(8.27568 -0.123037 -4.05122e-23)
(8.43517 -0.104222 2.82558e-23)
(8.04227 -0.14843 5.77525e-25)
(8.13185 -0.125302 8.74878e-21)
(8.10025 -0.204437 8.35281e-22)
(8.08627 -0.197779 2.70537e-21)
(8.09247 -0.221691 -1.09625e-21)
(8.08031 -0.244732 1.12671e-21)
(8.06668 -0.265628 2.55105e-23)
(8.07556 -0.316938 -2.15182e-23)
(8.06947 -0.298349 1.92256e-23)
(8.0542 -0.337433 3.81629e-24)
(8.0758 -0.377243 -3.93571e-22)
(8.94643 -0.0820797 -7.47273e-22)
(8.75934 -0.102771 1.60995e-23)
(9.06633 -0.0974566 -4.26971e-23)
(8.98914 -0.062032 -3.36242e-22)
(8.44187 -0.629642 1.03113e-25)
(8.44789 -0.648367 2.69888e-23)
(8.57155 -0.6789 -8.49861e-24)
(8.63775 -0.682464 3.1805e-24)
(8.61515 -0.688696 8.6846e-24)
(8.51737 -0.678772 -4.09033e-24)
(8.53704 -0.689949 -1.42914e-24)
(8.4967 -0.67172 -9.61773e-25)
(8.47513 -0.667528 -1.07329e-23)
(8.69132 -0.694102 0)
(8.67863 -0.709362 0)
(8.6498 -0.698486 2.77482e-24)
(8.71253 -0.707783 -5.88278e-24)
(8.41841 -0.631789 8.96089e-24)
(8.39692 -0.632115 1.09911e-22)
(8.3739 -0.63282 8.1804e-24)
(8.27278 -0.579413 1.1646e-23)
(8.28616 -0.594435 -1.28731e-23)
(8.33093 -0.592406 -1.314e-23)
(8.31042 -0.594876 0)
(8.33892 -0.612525 -1.9903e-23)
(8.75936 -0.701885 3.63028e-24)
(8.73975 -0.708409 -6.9475e-24)
(8.78183 -0.717148 7.37914e-24)
(8.24941 -0.590295 -3.95018e-22)
(8.22829 -0.556351 1.31162e-21)
(8.1585 -0.514661 -1.67394e-23)
(8.1667 -0.530669 -1.63413e-23)
(8.2052 -0.560039 7.81788e-24)
(8.19345 -0.554991 0)
(8.08337 -0.44468 -2.70569e-23)
(8.09448 -0.472508 2.70429e-23)
(8.10675 -0.501701 1.97708e-22)
(8.13333 -0.523345 -6.75255e-24)
(8.07498 -0.413367 1.46215e-23)
(8.55415 -0.104124 -7.2533e-21)
(8.34909 -0.0885897 -1.14235e-23)
(8.0333 -0.142451 2.50334e-23)
(8.05741 -0.168971 -6.05123e-24)
(8.13189 -0.112172 -3.16252e-23)
(8.07961 -0.132773 -3.16083e-23)
(8.06815 -0.190746 4.01366e-22)
(8.05198 -0.207082 1.12037e-21)
(8.05747 -0.234646 -1.45343e-21)
(8.06032 -0.283579 2.69811e-21)
(8.02738 -0.272736 1.65054e-23)
(8.0296 -0.308114 1.59142e-23)
(8.01861 -0.341804 -1.59184e-21)
(8.04108 -0.356702 -1.29448e-23)
(8.04664 -0.376607 1.52344e-22)
(8.04364 -0.397503 -2.05523e-23)
(8.62689 -0.103416 4.01114e-21)
(9.11849 -0.0798195 0)
(9.06451 -0.0887974 0)
(9.0115 -0.0595293 3.69231e-24)
(8.85448 -0.0765942 1.26034e-23)
(8.45603 -0.663382 -4.11337e-22)
(8.43304 -0.666111 -8.74809e-24)
(8.55914 -0.694825 1.18045e-22)
(8.58033 -0.697085 3.59201e-24)
(8.6011 -0.703512 -1.82004e-23)
(8.61939 -0.713776 -4.80484e-22)
(8.50155 -0.695654 0)
(8.54387 -0.708555 2.167e-24)
(8.46186 -0.685116 1.45625e-24)
(8.65849 -0.715515 2.33026e-24)
(8.68093 -0.727754 6.15909e-24)
(8.64274 -0.717365 4.34764e-22)
(8.72848 -0.725523 -1.97292e-22)
(8.40437 -0.651942 8.96205e-24)
(8.34992 -0.633094 3.24484e-25)
(8.35966 -0.653917 1.06685e-23)
(8.29088 -0.612791 5.0242e-24)
(8.32618 -0.63264 -1.06188e-23)
(8.8026 -0.730129 -1.32494e-22)
(8.77953 -0.735856 -9.13805e-26)
(8.22306 -0.599446 -1.38327e-23)
(8.24264 -0.619691 -1.69059e-23)
(8.2148 -0.573352 9.36597e-24)
(8.17017 -0.553018 0)
(8.14951 -0.549401 -6.79207e-24)
(8.17308 -0.580197 0)
(8.05419 -0.447703 -9.50977e-23)
(8.06064 -0.463708 9.20604e-25)
(8.06803 -0.476726 4.8029e-23)
(8.07433 -0.49054 8.79437e-24)
(8.08034 -0.505215 8.14337e-24)
(8.08884 -0.522446 2.14869e-23)
(8.1337 -0.541367 1.41567e-23)
(8.11531 -0.5347 -6.11697e-24)
(8.04559 -0.414342 6.44006e-24)
(8.04709 -0.432166 -3.75639e-22)
(8.2039 -0.100201 -3.08907e-23)
(8.30808 -0.0917499 7.86537e-21)
(8.03624 -0.133543 5.18913e-25)
(8.01847 -0.140495 2.18287e-23)
(8.04836 -0.187316 -2.7188e-24)
(8.10355 -0.103584 -1.93351e-23)
(8.04801 -0.13097 -1.90776e-23)
(8.03567 -0.224848 -1.13078e-22)
(8.0104 -0.215589 2.84763e-22)
(8.00814 -0.243309 -7.94032e-23)
(7.99321 -0.293665 0)
(7.99726 -0.272914 -2.44337e-23)
(7.99441 -0.307131 0)
(7.99799 -0.318493 6.01893e-24)
(7.99673 -0.336609 1.73411e-22)
(7.98946 -0.359616 -2.39821e-22)
(8.01716 -0.379656 -2.51779e-23)
(8.01719 -0.415328 4.91906e-24)
(8.65053 -0.0986761 1.25791e-23)
(8.46992 -0.0912645 -2.23728e-23)
(9.05282 -0.0466388 -1.59267e-23)
(9.01167 -0.0586566 0)
(8.68474 -0.0821643 -1.10273e-21)
(8.13265 0.0344087 0)
(8.1025 0.0440174 0)
(7.74062 -0.0227425 1.35687e-22)
(7.59611 -0.010546 -3.09596e-24)
(8.41268 -0.672971 0)
(8.42625 -0.689131 3.79002e-25)
(8.58616 -0.721674 3.67134e-24)
(8.6297 -0.731197 1.06226e-23)
(8.5076 -0.715316 0)
(8.48805 -0.709705 9.9193e-24)
(8.52809 -0.723253 0)
(8.55181 -0.731248 0)
(8.4449 -0.699093 1.81436e-23)
(8.46516 -0.705666 -1.7625e-22)
(8.70446 -0.741834 2.88887e-22)
(8.68148 -0.748173 -3.09211e-24)
(8.72212 -0.743072 2.25466e-24)
(8.74697 -0.743713 -4.72788e-24)
(8.39041 -0.674927 1.0228e-23)
(8.36718 -0.673682 9.3291e-24)
(8.34367 -0.672664 1.01724e-23)
(8.30399 -0.633804 -1.48323e-22)
(8.28008 -0.631706 -5.22911e-23)
(8.3132 -0.653117 -2.57873e-23)
(8.76396 -0.746932 0)
(8.77707 -0.75316 0)
(8.20113 -0.601398 0)
(8.26255 -0.631854 -1.5811e-22)
(8.23745 -0.639772 2.42271e-23)
(8.13447 -0.561293 -5.95338e-24)
(8.18138 -0.597089 0)
(8.1589 -0.596253 -1.71734e-24)
(8.02461 -0.449593 2.55613e-23)
(8.04191 -0.480728 1.76101e-24)
(8.05495 -0.509871 4.58025e-24)
(8.0982 -0.537093 -4.69276e-24)
(8.07185 -0.542385 2.43865e-24)
(8.10239 -0.555128 0)
(8.31688 -0.0974873 -3.11496e-23)
(8.00509 -0.138526 4.18664e-23)
(8.02081 -0.159679 1.90553e-21)
(8.02626 -0.182094 -4.5273e-23)
(8.00494 -0.195521 2.30507e-24)
(8.05647 -0.11939 2.02339e-21)
(8.07282 -0.103367 -7.27182e-24)
(8.02851 -0.125554 -1.83882e-23)
(7.98106 -0.209469 1.83259e-23)
(7.95865 -0.223219 1.35382e-23)
(7.98731 -0.258125 -2.01804e-21)
(7.96824 -0.244797 -2.1699e-23)
(7.96539 -0.304933 0)
(7.95628 -0.27683 -2.25925e-23)
(7.96447 -0.333714 -6.75662e-24)
(7.98795 -0.377304 -4.09021e-24)
(7.96255 -0.373565 5.98545e-23)
(7.9906 -0.394441 0)
(7.99087 -0.414401 -9.8702e-24)
(7.99305 -0.433242 -2.01571e-23)
(9.08208 -0.0422499 -1.43136e-23)
(9.03602 -0.0528407 2.32786e-20)
(9.03157 -0.0292028 -1.76129e-23)
(8.68217 -0.0669549 1.65365e-23)
(8.48439 -0.0780392 8.82318e-24)
(8.13174 0.036142 0)
(8.05103 0.0547929 4.68197e-23)
(8.10127 0.0552248 -2.68843e-24)
(8.01795 0.0495305 1.47839e-22)
(7.94951 -0.00610922 -4.76901e-21)
(7.60724 -0.00875786 0)
(8.4215 -0.709795 4.04604e-25)
(8.57286 -0.738618 1.74788e-23)
(8.59521 -0.744731 -4.3287e-22)
(8.61873 -0.747188 4.331e-23)
(8.64382 -0.750099 2.98276e-24)
(8.51189 -0.737535 -1.52055e-23)
(8.46962 -0.726193 4.81052e-24)
(8.55634 -0.75317 0)
(8.71541 -0.762404 6.89611e-24)
(8.66612 -0.759935 -2.70553e-23)
(8.68436 -0.772906 3.60454e-22)
(8.75374 -0.762392 0)
(8.37321 -0.69569 -2.11415e-23)
(8.32233 -0.671805 -1.45504e-23)
(8.32623 -0.69099 3.49672e-23)
(8.27049 -0.651997 1.1674e-23)
(8.29934 -0.67325 1.24905e-22)
(8.7892 -0.762063 -1.53514e-24)
(8.77413 -0.770933 0)
(8.18556 -0.619036 0)
(8.2397 -0.663181 -1.39473e-23)
(8.21936 -0.655631 -6.75918e-22)
(8.11208 -0.567394 0)
(8.12905 -0.580502 0)
(8.14117 -0.600386 -1.83028e-24)
(8.15008 -0.617768 3.43141e-22)
(7.99608 -0.452451 8.72828e-24)
(8.00426 -0.471384 -1.13145e-21)
(8.01905 -0.483403 1.10988e-23)
(8.02668 -0.496679 -3.29978e-22)
(8.03089 -0.51215 -8.71158e-23)
(8.0399 -0.529885 -9.77199e-24)
(8.04872 -0.548316 -5.93719e-24)
(8.05875 -0.564746 -7.47026e-22)
(8.09336 -0.571369 0)
(8.16359 -0.0939947 1.91442e-23)
(8.29147 -0.0890406 0)
(8.00821 -0.130535 5.86727e-22)
(7.9938 -0.136329 1.57429e-23)
(7.99965 -0.175617 1.68442e-23)
(7.9577 -0.202559 5.15443e-24)
(8.05326 -0.0941485 -5.0598e-21)
(8.01429 -0.12433 -2.58327e-21)
(7.95236 -0.235792 0)
(7.918 -0.228205 2.42888e-23)
(7.93199 -0.25244 1.183e-23)
(7.93806 -0.303659 0)
(7.93888 -0.31593 -1.15455e-23)
(7.92859 -0.292146 0)
(7.92037 -0.278726 1.07138e-23)
(7.9353 -0.331061 3.58602e-22)
(7.93582 -0.351088 -1.09986e-23)
(7.93646 -0.370325 -9.05437e-24)
(7.93525 -0.388358 -1.80726e-23)
(7.96335 -0.410317 9.34952e-24)
(7.96889 -0.452318 -3.84548e-22)
(8.85927 -0.0545726 1.30561e-21)
(9.00415 -0.0484898 -9.57391e-24)
(9.00788 -0.0164366 4.16265e-20)
(8.64589 -0.0509566 7.49992e-24)
(8.2889 -0.0729954 0)
(8.04519 0.0276472 -2.05414e-23)
(8.11463 0.0487849 -2.75473e-24)
(8.01448 0.059065 2.12838e-21)
(8.00871 0.0683472 3.31299e-23)
(8.12534 0.059716 -4.40183e-23)
(8.09127 0.0714658 1.96948e-24)
(8.01974 0.0629478 3.41045e-23)
(7.91428 -0.000422825 -4.05605e-23)
(7.725 -0.0188516 -1.95294e-23)
(7.61395 -0.0182045 0)
(8.39865 -0.723706 0)
(8.41988 -0.734838 -4.46995e-24)
(8.60482 -0.765763 -3.95412e-22)
(8.64836 -0.776105 1.10034e-24)
(8.51987 -0.763045 3.29449e-22)
(8.49613 -0.755064 -6.74792e-24)
(8.47646 -0.747398 2.52283e-22)
(8.45276 -0.74129 3.78556e-22)
(8.53909 -0.764708 -1.72311e-23)
(8.55934 -0.768424 9.56297e-24)
(8.70462 -0.780612 3.80129e-23)
(8.72296 -0.782722 8.50679e-25)
(8.68897 -0.794298 -8.17228e-24)
(8.7586 -0.778334 0)
(8.74392 -0.781162 0)
(8.37919 -0.716317 -5.62942e-25)
(8.3554 -0.712096 -4.90217e-25)
(8.33529 -0.706428 8.07252e-26)
(8.31248 -0.70654 8.39321e-26)
(8.27726 -0.675074 -1.42229e-23)
(8.25755 -0.672445 6.15183e-24)
(8.28463 -0.693935 -2.91765e-23)
(8.80219 -0.773639 -1.46522e-24)
(8.77205 -0.788147 8.00718e-24)
(8.16262 -0.627567 -2.17901e-24)
(8.18394 -0.638893 3.08674e-25)
(8.24103 -0.686824 5.76062e-24)
(8.20069 -0.659195 3.43036e-22)
(8.20602 -0.6836 2.09376e-23)
(8.11744 -0.604331 0)
(8.1431 -0.635788 -6.22778e-24)
(7.99157 -0.487191 -1.37419e-23)
(8.00833 -0.514132 -6.84756e-22)
(8.02471 -0.551394 -6.41711e-22)
(8.07456 -0.5755 6.68202e-24)
(8.05114 -0.582691 7.35902e-24)
(8.08612 -0.589505 0)
(7.98177 -0.129567 -5.31892e-24)
(7.98041 -0.141997 -1.89924e-22)
(7.97541 -0.170553 0)
(7.96036 -0.185569 4.62389e-24)
(7.9384 -0.194747 2.40265e-23)
(7.90517 -0.205039 -9.67002e-22)
(8.03756 -0.0881238 2.08366e-21)
(8.02446 -0.10641 -2.12927e-21)
(7.9946 -0.11968 -1.70934e-23)
(8.01094 -0.114662 -1.59058e-23)
(7.88538 -0.230223 1.30049e-21)
(7.88216 -0.244203 2.15159e-23)
(7.90883 -0.2667 2.45419e-22)
(7.89281 -0.254865 1.22477e-23)
(7.90556 -0.303914 0)
(7.9102 -0.328834 -8.30541e-24)
(7.88372 -0.281664 1.61014e-23)
(7.90913 -0.365593 0)
(7.93704 -0.406274 -3.57977e-25)
(7.9114 -0.402111 -5.2866e-23)
(7.9401 -0.427192 -2.35309e-22)
(7.9432 -0.447122 1.8319e-24)
(7.94696 -0.468478 2.42574e-22)
(9.03205 -0.0170824 -2.47039e-24)
(8.98282 -0.0228814 3.76555e-25)
(9.01162 -0.0196264 7.77903e-21)
(8.44618 -0.0455588 6.49664e-24)
(8.62484 -0.0331014 7.04018e-24)
(8.30421 -0.0539521 6.34256e-24)
(8.16891 -0.0784569 0)
(8.10657 0.0568007 -7.85722e-24)
(7.99842 0.0762043 0)
(8.00537 0.0826865 2.40077e-23)
(8.01754 0.0829591 3.35122e-24)
(8.06463 0.0856126 -2.82918e-23)
(8.03356 0.0668867 -6.624e-24)
(8.05669 0.0679102 -6.03223e-24)
(8.02274 0.0754834 2.04493e-23)
(8.08282 0.0666147 0)
(8.10573 0.0667493 1.10205e-23)
(7.89197 0.000325946 -9.74078e-21)
(7.60768 -0.000188805 -1.5974e-23)
(8.38448 -0.740215 0)
(8.43674 -0.742874 -2.12022e-22)
(8.41906 -0.752102 -3.26078e-24)
(8.61382 -0.781564 -7.62442e-22)
(8.59152 -0.780022 4.95553e-24)
(8.63078 -0.791068 -9.98264e-24)
(8.65237 -0.80074 0)
(8.53018 -0.779621 -2.05165e-23)
(8.48179 -0.771851 8.19364e-24)
(8.44649 -0.760655 -6.71266e-26)
(8.57763 -0.782856 2.22394e-22)
(8.56064 -0.789938 2.88857e-22)
(8.73485 -0.800285 0)
(8.67243 -0.805624 0)
(8.69377 -0.810879 -8.68426e-24)
(8.34595 -0.728652 0)
(8.29569 -0.712379 -1.22358e-23)
(8.31187 -0.72958 0)
(8.27338 -0.715775 -3.66686e-22)
(8.81515 -0.781767 -4.93615e-24)
(8.80206 -0.788046 -2.86734e-24)
(8.79079 -0.793908 3.9336e-24)
(8.77723 -0.801954 4.91166e-22)
(8.17539 -0.667921 -1.43571e-22)
(8.21891 -0.696628 0)
(8.23847 -0.707891 -1.0211e-23)
(8.19974 -0.702939 0)
(8.09527 -0.606631 0)
(8.1073 -0.624627 0)
(8.12009 -0.641848 -4.38195e-24)
(8.13606 -0.657662 -3.12171e-22)
(7.98538 -0.50909 -4.22223e-23)
(7.96878 -0.499174 -3.80048e-22)
(7.99136 -0.527599 5.3898e-22)
(7.99876 -0.548037 1.95591e-24)
(8.00787 -0.56965 -4.97245e-22)
(8.04959 -0.609376 0)
(8.0327 -0.59915 0)
(8.07411 -0.610222 0)
(7.97289 -0.12396 -4.75296e-24)
(7.97166 -0.157058 -1.15483e-23)
(7.94914 -0.145545 8.34061e-22)
(7.93948 -0.165515 0)
(7.91945 -0.18719 4.28411e-24)
(7.87594 -0.216153 4.00729e-23)
(7.85767 -0.202718 -4.14662e-23)
(8.05719 -0.0851448 2.71904e-24)
(8.01018 -0.0822275 4.77879e-21)
(8.00317 -0.107971 5.91641e-24)
(7.84065 -0.230737 -5.1508e-25)
(7.85901 -0.255513 -4.88033e-23)
(7.88461 -0.322423 3.6118e-24)
(7.8736 -0.311444 4.80071e-24)
(7.88289 -0.338965 6.35741e-22)
(7.86137 -0.29648 1.37111e-22)
(7.85072 -0.283672 9.8122e-24)
(7.88461 -0.360521 2.88136e-24)
(7.88489 -0.379405 0)
(7.88791 -0.397521 -9.5539e-24)
(7.89033 -0.41664 -8.94092e-24)
(7.9186 -0.441471 8.70999e-24)
(7.94694 -0.491919 -5.95519e-23)