/*--------------------------------*- C++ -*----------------------------------*\
| =========                 |                                                 |
| \\      /  F ield         | OpenFOAM: The Open Source CFD Toolbox           |
|  \\    /   O peration     | Version:  v2012                                 |
|   \\  /    A nd           | Website:  www.openfoam.com                      |
|    \\/     M anipulation  |                                                 |
\*---------------------------------------------------------------------------*/
FoamFile
{
    version     2.0;
    format      ascii;
    class       volScalarField;
    location    "350";
    object      nut;
}
// * * * * * * * * * * * * * * * * * * * * * * * * * * * * * * * * * * * * * //

dimensions      [0 2 -1 0 0 0 0];


internalField   nonuniform List<scalar> 
12639
(
0.000223966
0.000232554
0.000206139
0.000227937
0.000229442
0.000182027
0.000208179
0.000233049
0.000228567
0.000171966
0.000199857
0.000228845
0.000229892
0.000226866
0.000182364
0.000176134
0.000211237
0.000174497
0.000232939
0.000228083
0.000227614
0.000195756
0.000189149
0.000199603
0.000173732
0.000230235
0.000230094
0.000228929
0.000227939
0.000225183
0.000193255
0.000175994
0.00020991
0.000180722
0.000234307
0.000230441
0.000228512
0.000228603
0.000227789
0.000231189
0.000213809
0.000172834
0.000202005
0.000188536
0.0002322
0.000233005
0.000229173
0.000229246
0.000229409
0.000228751
0.000228141
0.000233761
0.000210523
0.00017519
0.000184885
0.000224443
0.000177493
0.000232371
0.000235647
0.000229974
0.000230213
0.00022993
0.000229149
0.000228519
0.000239106
0.000232201
0.0002335
0.000219579
0.00018007
0.000201227
0.000219586
0.000177574
0.000230116
0.000232734
0.000230893
0.000230702
0.000230186
0.000229445
0.000229265
0.000236602
0.000225124
0.000225092
0.000242119
0.000203322
0.000184009
0.000206928
0.000156418
0.000231195
0.000234435
0.00023137
0.000231015
0.000230009
0.000230872
0.000229817
0.000226031
0.000226365
0.000226464
0.000240187
0.000241716
0.000233655
0.000203412
0.000166985
0.000231858
0.000231693
0.000235139
0.000231561
0.000230541
0.000231451
0.000230592
0.000227562
0.000228824
0.000229125
0.000228477
0.00023778
0.000218192
0.000236743
0.000175318
0.000160227
0.000232325
0.00023233
0.000232948
0.000232054
0.000231203
0.000232091
0.000231365
0.000229528
0.000228955
0.000228387
0.000229431
0.000229305
0.000230565
0.000233895
0.000227481
0.000178652
0.000163006
0.000232754
0.000232891
0.000234791
0.000232553
0.000231685
0.000232462
0.00023251
0.00023202
0.000230116
0.00022924
0.000229026
0.000229737
0.000230178
0.000231283
0.0002164
0.000232506
0.000207124
0.000240789
0.000152623
0.000233022
0.000233193
0.00023356
0.000232319
0.000233357
0.000232481
0.00023318
0.000233172
0.000232675
0.000230531
0.000229369
0.000229419
0.000230327
0.00023085
0.000231288
0.000231776
0.00022553
0.000232286
0.000198079
0.000240117
0.000156098
0.000233738
0.000233873
0.000234234
0.000233198
0.000233978
0.000233291
0.000233751
0.000233771
0.000231307
0.00023347
0.000230798
0.000231091
0.000230003
0.000230117
0.000230492
0.000231852
0.00023203
0.000216298
0.000234221
0.000262836
0.000147955
0.000230252
0.000174006
0.00023388
0.000234218
0.000234328
0.000234815
0.000234131
0.000234793
0.000234027
0.00023429
0.000234455
0.000232398
0.000233919
0.00023148
0.000231754
0.00023058
0.000231214
0.000232474
0.000232634
0.000245133
0.00023568
0.000232523
0.000241984
0.000152911
0.000233533
0.000167002
0.000234513
0.000234773
0.000234691
0.0002346
0.000235291
0.000235192
0.000233743
0.000235309
0.000234362
0.000235063
0.000235491
0.000231493
0.000231992
0.000232385
0.000231167
0.000230344
0.000231843
0.000233211
0.000232655
0.000233473
0.000237097
0.000232603
0.000233039
0.000256006
0.000213129
0.000123469
0.000235381
0.000239048
0.000234853
0.000235336
0.000235134
0.00023505
0.000235896
0.000235928
0.000234237
0.00023629
0.000234808
0.00023606
0.000235765
0.000232892
0.000232862
0.000233089
0.000231692
0.000231174
0.000232486
0.000233775
0.000233618
0.000233957
0.000231766
0.00023359
0.000233747
0.000253958
0.000200004
0.000130686
0.000238107
0.000195594
0.000235313
0.000235837
0.000235532
0.000235282
0.000235218
0.000236449
0.000236553
0.000233889
0.000236647
0.000237121
0.000237126
0.000236366
0.000232451
0.00023352
0.000233849
0.000232229
0.000231021
0.000233122
0.000234166
0.000234419
0.00023443
0.000233996
0.000234691
0.000234152
0.000249548
0.000166725
0.000119304
0.000267711
0.000235636
0.000236493
0.000235998
0.000235728
0.000235526
0.000237096
0.000237263
0.000235349
0.000237481
0.000238299
0.000238403
0.000234962
0.000237398
0.000229465
0.000234276
0.000234736
0.000232595
0.000231899
0.000233349
0.00023504
0.000234971
0.000234587
0.000234754
0.000237544
0.000234793
0.000234506
0.000250614
0.000159262
0.000123582
0.000214758
0.000236168
0.000236937
0.000236334
0.000236077
0.000235891
0.000237711
0.000238053
0.000235511
0.000235452
0.000237832
0.000240108
0.000239469
0.000233981
0.000237125
0.000231171
0.00023486
0.000234098
0.000235511
0.000233201
0.000231748
0.000235381
0.000235733
0.000235519
0.000235163
0.000235189
0.000235826
0.000235299
0.0002348
0.000256673
0.000172492
0.000125306
0.00025258
0.000236675
0.000237468
0.000236757
0.000236274
0.000236339
0.000236152
0.000236395
0.00023831
0.000238754
0.000243301
0.00023488
0.000238866
0.000241184
0.000239781
0.000234932
0.000237905
0.000229886
0.000235666
0.000234673
0.000236294
0.000233717
0.000232634
0.000236123
0.000236703
0.000235668
0.000236152
0.000235517
0.000235528
0.00023657
0.000238324
0.000234582
0.000235383
0.000226232
0.000137517
0.000119528
0.000210364
0.000237115
0.000237752
0.000237102
0.000236913
0.000236698
0.000236708
0.000236435
0.000236301
0.000238813
0.000238594
0.000239392
0.000233886
0.000272353
0.000239815
0.000242876
0.000240535
0.000240338
0.000233655
0.00023665
0.000231655
0.000235971
0.000235495
0.000234294
0.000237035
0.00023221
0.000236925
0.000237308
0.00023623
0.000236787
0.00023589
0.000235942
0.000236857
0.000237324
0.000235162
0.000235569
0.000154419
0.000124104
0.000242214
0.000237239
0.000238209
0.000237564
0.000237253
0.000236866
0.000236909
0.000236759
0.000236467
0.000239474
0.000239087
0.000240317
0.000241167
0.000237075
0.000240703
0.000241922
0.000243669
0.000242337
0.000237856
0.000234638
0.000231359
0.000237076
0.00023604
0.00023447
0.000237632
0.000229544
0.000237683
0.000238183
0.000236268
0.000236636
0.000237576
0.0002368
0.000236279
0.000237024
0.000239045
0.000235298
0.000235932
0.00014093
0.000116879
0.000198009
0.000237928
0.000238315
0.000237475
0.000237951
0.000237396
0.000237222
0.000237224
0.000236977
0.000236782
0.000239571
0.000240075
0.00023894
0.000241145
0.000240429
0.000272343
0.000235391
0.000161094
0.000241772
0.000242454
0.000244897
0.000242907
0.000238168
0.000233383
0.000237757
0.000237594
0.000234524
0.000236275
0.000238481
0.000230904
0.000238437
0.000238694
0.00023665
0.000237094
0.000238199
0.000237513
0.000236156
0.000236666
0.000235292
0.000238703
0.000239987
0.000236026
0.000121281
0.000210855
0.000238167
0.000237824
0.000238205
0.000237699
0.000237354
0.000237394
0.000236973
0.000237317
0.000236826
0.000240077
0.000240641
0.000239335
0.000242045
0.000241441
0.000262433
0.000238171
0.000140828
0.000242842
0.000241694
0.000245764
0.000244712
0.000237011
0.000240109
0.000234448
0.000238831
0.000237722
0.000232477
0.000234151
0.000239388
0.000229906
0.00023912
0.000239535
0.000237023
0.000237562
0.000237955
0.000239087
0.000237768
0.000236571
0.000236962
0.000235939
0.000237962
0.000247694
0.000236264
0.000111376
0.000139309
0.000368135
0.000238629
0.00023813
0.000238553
0.000238323
0.000237872
0.000237658
0.000237703
0.00023725
0.000237554
0.000236823
0.000240007
0.000241237
0.000239152
0.000242996
0.000241987
0.00026509
0.000247057
0.000236909
0.000153005
0.000244188
0.000243194
0.000247169
0.000245547
0.00023624
0.000238828
0.000240159
0.00023976
0.000238707
0.000234722
0.000232698
0.000240143
0.000231556
0.000239915
0.000237359
0.000237927
0.00023871
0.000239563
0.000238379
0.000236592
0.000237302
0.000236287
0.000236213
0.000236742
0.000219308
0.000113199
0.000143336
0.000305413
0.000238308
0.000238881
0.000238693
0.000238171
0.000237958
0.000237451
0.000237818
0.000237595
0.000240498
0.000241178
0.000241939
0.000239656
0.000243951
0.000243019
0.000222884
0.000250297
0.000237323
0.000106991
0.000245222
0.000242754
0.000245029
0.000248793
0.000247513
0.000237593
0.000240661
0.000240855
0.000238945
0.000234325
0.000241139
0.00023214
0.00024071
0.000237737
0.000238415
0.000238827
0.000240263
0.00023863
0.000236877
0.000237585
0.000236612
0.000236594
0.000237162
0.000231108
0.000333131
0.000108435
0.00023865
0.000239235
0.000238864
0.000238341
0.000238209
0.000237992
0.000237576
0.000237984
0.000237837
0.00024032
0.000241709
0.000242664
0.000239544
0.000245195
0.000243526
0.000185996
0.000249731
0.000236792
0.000109542
0.00024679
0.000248572
0.000246068
0.000250242
0.000248416
0.000247226
0.000240114
0.000241914
0.000235944
0.000234048
0.000241576
0.000241893
0.000233965
0.000240827
0.000237986
0.000238715
0.000239602
0.000240462
0.000239194
0.000237146
0.000237622
0.000236715
0.000236725
0.000236721
0.000237034
0.000232964
0.000277601
0.000111239
0.000238772
0.000239448
0.000239224
0.000238613
0.00023842
0.000238281
0.00023794
0.000238212
0.00023792
0.000240793
0.000242473
0.000241408
0.00024001
0.000246281
0.000244351
0.000113085
0.000175294
0.000270715
0.000231816
0.000238786
0.000247875
0.000246189
0.0002642
0.00024845
0.00025205
0.000250586
0.000240068
0.000242924
0.000235209
0.000235537
0.000242533
0.000243172
0.000235803
0.000241642
0.000238319
0.000238643
0.000239139
0.000239658
0.000241317
0.000239397
0.000237422
0.000237163
0.000238015
0.000237
0.000237026
0.000236979
0.000236987
0.000234564
0.000260185
0.000121819
0.000100648
0.000239032
0.000239824
0.00023937
0.000238693
0.000238468
0.000238379
0.000238232
0.000238363
0.000238165
0.000240681
0.000243007
0.000241796
0.000240363
0.000240049
0.000247749
0.000246066
0.000245278
0.00024445
0.000259355
0.000107873
0.000262801
0.00023592
0.000238034
0.000249744
0.000254347
0.000295452
0.000250465
0.000253899
0.000251632
0.000236688
0.000240641
0.000242677
0.000244207
0.000238209
0.000243535
0.000242602
0.000237476
0.000238313
0.000238984
0.000239357
0.00024036
0.000241839
0.000239886
0.000237646
0.000237435
0.00023797
0.000237147
0.00023722
0.000236843
0.000237353
0.000236453
0.000330025
0.000112275
0.000239259
0.000238915
0.000239996
0.000239727
0.000238752
0.00023861
0.000238451
0.000238566
0.000238279
0.00024128
0.000243715
0.000242376
0.000240649
0.000240436
0.000248913
0.000247721
0.000246164
0.000245254
0.000197406
0.000103681
0.000236757
0.00027
0.000238226
0.000250942
0.000253928
0.000270155
0.000252766
0.000256086
0.000254198
0.000236079
0.000238334
0.000243354
0.000245781
0.000239665
0.000244669
0.0002435
0.000238598
0.000238908
0.000239713
0.000240287
0.000241139
0.000242836
0.000240012
0.000237602
0.000237541
0.000238201
0.000237381
0.000237369
0.000237189
0.000237524
0.000245034
0.000253596
9.05738e-05
0.00023945
0.000239077
0.000240364
0.000239747
0.000238968
0.000238723
0.000238713
0.000238604
0.000238466
0.000238346
0.000241406
0.000243755
0.00024254
0.000241069
0.000240629
0.000250448
0.000248478
0.000247052
0.000245108
0.000134375
0.000238236
0.000256307
0.000253369
0.000264004
0.000298959
0.000257505
0.000258616
0.000255615
0.000240268
0.000249265
0.000236731
0.000245325
0.000242931
0.000245845
0.000244596
0.000243486
0.000238527
0.000239147
0.00023983
0.000240818
0.000241762
0.000243169
0.000240406
0.000237855
0.000237543
0.000237777
0.000238056
0.000237435
0.000237548
0.000237878
0.000237761
0.000246032
0.000212961
9.47041e-05
0.000239345
0.000239073
0.00024052
0.000239979
0.000239166
0.000238914
0.000238873
0.000238806
0.000238627
0.000238556
0.000241994
0.000244466
0.000243201
0.00024127
0.000241027
0.000251743
0.000248198
0.000250164
0.00024666
0.000245815
0.000114015
0.000237688
0.000235223
0.000273426
0.000254892
0.000265558
0.000282148
0.000259781
0.00026079
0.000259076
0.0002427
0.000244315
0.000249667
0.000241161
0.000247722
0.000247258
0.000245642
0.000244472
0.000238758
0.000239378
0.000239675
0.000240208
0.000240687
0.000241324
0.000242608
0.000241698
0.000244251
0.00024051
0.000237906
0.000237735
0.00023787
0.000238272
0.00023765
0.000237698
0.00023855
0.00023794
0.000246057
0.000162706
9.25022e-05
0.000239522
0.000239362
0.00024045
0.000240922
0.000240235
0.000239771
0.000239378
0.00023909
0.000239005
0.000238945
0.000238819
0.000238776
0.000238801
0.000242098
0.000244591
0.000243452
0.000241714
0.000241212
0.000253805
0.000249249
0.000250737
0.00024736
0.000245383
0.000113424
0.000239531
0.000239662
0.000240287
0.000264885
0.000257614
0.000285379
0.000301522
0.00026802
0.00026509
0.000261699
0.000252035
0.000247978
0.000251518
0.000240102
0.00024932
0.00024687
0.00024882
0.000245453
0.000238722
0.000239265
0.00023984
0.000240139
0.000241055
0.000241688
0.000243147
0.000242416
0.000244842
0.000240858
0.000238136
0.000237808
0.000238059
0.000238511
0.000237778
0.000237853
0.000238827
0.000238005
0.000242351
0.000187647
8.87593e-05
0.000239468
0.00024073
0.000241004
0.000240281
0.000239889
0.000239508
0.000239238
0.00023917
0.000239005
0.000239062
0.000239007
0.000238926
0.000239078
0.000242628
0.000244217
0.000243163
0.000241823
0.000241592
0.000255306
0.000248564
0.000252145
0.000246695
0.000245823
0.000138682
0.000239547
0.000246144
0.00024461
0.000261364
0.000258065
0.000301436
0.000286638
0.000268874
0.000265796
0.000266321
0.000252658
0.000252404
0.000251712
0.000247916
0.000250217
0.000246404
0.000239037
0.000239552
0.000240353
0.000241449
0.000242246
0.000244016
0.000242984
0.000242539
0.00024607
0.000241027
0.000238236
0.000238034
0.000238629
0.00023796
0.000237957
0.000238269
0.000240469
0.000238054
0.000235332
0.000137351
9.16108e-05
0.00023972
0.000240568
0.000241299
0.000240146
0.000239901
0.000239728
0.000239553
0.000239426
0.000239279
0.00023918
0.00023921
0.000239116
0.000239083
0.000239316
0.000242544
0.000244656
0.00024365
0.000242217
0.000241795
0.000257723
0.000254912
0.00024936
0.000253834
0.000251934
0.000247095
0.000245459
0.000103647
0.000240283
0.000243846
0.000209798
0.000265009
0.000261878
0.000302095
0.000276308
0.000270075
0.000295567
0.000254057
0.000253902
0.000270254
0.00025322
0.000249199
0.000247534
0.000252046
0.00023908
0.000239571
0.000240147
0.000240691
0.000241737
0.000242595
0.000244463
0.00024364
0.000243223
0.000246829
0.000241358
0.00023845
0.00023819
0.000238884
0.000238583
0.00023812
0.000238142
0.000238621
0.000241071
0.00023825
0.000215677
0.000157108
8.72755e-05
0.000240698
0.000241181
0.000241694
0.000240274
0.000240124
0.000239906
0.000239762
0.000239478
0.000239414
0.000239365
0.000239323
0.000239259
0.000239422
0.000239426
0.000242938
0.000244353
0.000243418
0.000242227
0.000259671
0.000257523
0.000250671
0.000248139
0.000255224
0.000253441
0.000246063
0.00011862
0.00024526
0.00024635
0.00027168
0.000264134
0.000291221
0.000275845
0.000256761
0.000257569
0.000298703
0.000253038
0.000256062
0.000249959
0.000248509
0.00025345
0.000239343
0.000239845
0.000240396
0.000240702
0.000242191
0.000243152
0.000245268
0.000243672
0.000243551
0.00024634
0.000248213
0.000241068
0.000238541
0.000238383
0.000238957
0.000238795
0.000238236
0.000238243
0.000238524
0.000239123
0.000242686
0.000239933
0.000129203
8.93115e-05
0.000240513
0.000240968
0.000241475
0.00024201
0.000240234
0.000240071
0.000239889
0.000239766
0.00023965
0.000239514
0.000239448
0.000239505
0.000239386
0.000240556
0.000239694
0.000242578
0.000244914
0.000243796
0.000262367
0.000258603
0.000250985
0.000248501
0.000256993
0.000252836
0.00024616
0.000101717
0.000243699
0.000246764
0.000221494
0.000279574
0.00026757
0.000304305
0.000289351
0.00025898
0.000265219
0.000281236
0.00025574
0.000258117
0.000251492
0.000255488
0.000239413
0.000239733
0.000240467
0.000242314
0.000243363
0.000245216
0.000244439
0.000244204
0.000247417
0.000249019
0.000241203
0.000238492
0.000238723
0.00023846
0.000239155
0.000238867
0.000238389
0.000238393
0.000238701
0.000240227
0.000241355
0.000222816
0.000197302
8.85791e-05
0.000240616
0.000241055
0.000241355
0.000241762
0.00024236
0.000240467
0.000240194
0.000240147
0.000240021
0.000239913
0.000239668
0.000239632
0.000239666
0.000239588
0.000240112
0.000239731
0.000242745
0.000244362
0.000245626
0.000243576
0.000264625
0.000261218
0.000250148
0.000248076
0.00025786
0.000254136
0.000247127
0.000165054
8.31741e-05
0.000245892
0.000246147
0.00024323
0.000279513
0.000293305
0.000273154
0.000268188
0.000263991
0.000268551
0.000301429
0.000256989
0.000262239
0.000251569
0.000256767
0.000239315
0.000239905
0.000240791
0.000240173
0.000241964
0.000242849
0.000243945
0.000246064
0.000244498
0.000244671
0.000247163
0.000250256
0.000241524
0.000238644
0.000238614
0.000239243
0.000239072
0.00023848
0.000238525
0.000238982
0.000245498
0.000238306
0.000232048
0.0001246
0.000240854
0.000241047
0.000241528
0.000241945
0.000242348
0.000240511
0.000240361
0.000240313
0.000240032
0.00023997
0.000239794
0.000239765
0.000239723
0.000239804
0.000239733
0.000240639
0.00023998
0.000243178
0.000244341
0.000245989
0.000243865
0.000264738
0.000260708
0.000251256
0.000249001
0.000255658
0.000254746
0.000246811
0.000118232
8.46197e-05
0.000245696
0.000252557
0.000293298
0.000304266
0.000279714
0.000273256
0.00026755
0.000286217
0.000259611
0.000264812
0.000253092
0.000254929
0.000259409
0.000239525
0.000239851
0.000240698
0.000240234
0.000242163
0.000242707
0.000243733
0.000245975
0.000245261
0.00024529
0.000248265
0.000250749
0.000241267
0.000238777
0.000238653
0.000238709
0.000239428
0.000239075
0.000238614
0.000238775
0.000239081
0.000244532
0.000239761
0.000233263
0.000114548
0.000240843
0.000241298
0.000241797
0.000242009
0.000242712
0.000240691
0.000240447
0.000240314
0.000240182
0.000240121
0.000239911
0.000239833
0.000239954
0.000239908
0.000239928
0.00023995
0.000240475
0.000241208
0.000243061
0.000244808
0.000245428
0.000243488
0.000269032
0.00026306
0.000252719
0.000250054
0.000248224
0.000256648
0.000254241
0.000247361
0.000596193
8.6353e-05
8.55301e-05
0.000249524
0.000230433
0.00030437
0.000293588
0.00027555
0.000276126
0.000301622
0.000262746
0.000259993
0.000271827
0.000252647
0.000256031
0.000261583
0.000239731
0.000240095
0.000241004
0.000240503
0.000241898
0.000243102
0.000244252
0.000246927
0.000245796
0.000247736
0.000249863
0.000241564
0.000238952
0.000238783
0.000238828
0.000239535
0.000239247
0.00023872
0.000239003
0.000238776
0.000239465
0.000247711
0.000240171
0.000226742
0.000877602
0.000241048
0.000241266
0.000241931
0.000242421
0.00024285
0.000240768
0.000240639
0.000240465
0.000240196
0.000240178
0.00024002
0.000239979
0.000239955
0.00024023
0.000239997
0.000240067
0.000240295
0.000240802
0.000242336
0.000244652
0.000245668
0.00024364
0.000269294
0.000266319
0.000262963
0.000252574
0.000250082
0.000248346
0.000258308
0.000255864
0.000246936
0.000168849
8.56816e-05
8.68762e-05
0.000242983
0.000256982
0.00022706
0.000304027
0.000283275
0.000278349
0.000289782
0.000266293
0.000263292
0.000278157
0.000253876
0.000258095
0.000261041
0.000264912
0.000239876
0.000240229
0.000241114
0.000240645
0.000242189
0.000243092
0.000243736
0.00024493
0.000247505
0.000246502
0.000248981
0.000251113
0.000241637
0.000239017
0.000238866
0.000238953
0.000239446
0.000239744
0.000239238
0.000239351
0.000238849
0.000239224
0.000238967
0.000239799
0.000245369
0.000240837
0.000228196
0.000491768
0.000241068
0.000241483
0.000241881
0.000242261
0.000242731
0.000243313
0.00024094
0.000240672
0.000240601
0.000240454
0.000240337
0.000240307
0.000240144
0.000240092
0.000240168
0.000240404
0.000240467
0.000240145
0.000240184
0.000241701
0.000244182
0.000245126
0.000246325
0.000275894
0.000268698
0.000260766
0.000266214
0.000254293
0.000251437
0.000249287
0.000247517
0.000257747
0.000325918
0.0001052
7.81084e-05
0.0001388
0.000246494
0.000250223
0.000229444
0.000295092
0.000283437
0.000292414
0.000303816
0.00027277
0.000292372
0.000253321
0.000257923
0.000264225
0.000268993
0.000240079
0.000240445
0.000241386
0.000240879
0.000241927
0.000242499
0.000242839
0.000243923
0.000245183
0.000248338
0.000246096
0.000250248
0.000249496
0.000239161
0.000239003
0.000239038
0.000239585
0.000239797
0.000239351
0.000239416
0.000238983
0.000239591
0.000239157
0.000240591
0.000242176
0.000248359
0.000240762
0.00188253
0.000241253
0.000241406
0.000241695
0.000242124
0.000242376
0.00024304
0.000243412
0.00024097
0.000240851
0.000240684
0.000240572
0.000240401
0.000240256
0.000240237
0.000240308
0.000240644
0.000241072
0.000240275
0.000240344
0.000242119
0.000244229
0.000245288
0.000246417
0.000278112
0.000272468
0.000262197
0.000268279
0.000254983
0.000251994
0.000249894
0.00024767
0.000259686
0.000187164
0.000100379
7.98298e-05
0.000111252
0.000246344
0.000250885
0.000233448
0.000305641
0.000295458
0.000303826
0.000279407
0.000303775
0.00025514
0.000260184
0.000268709
0.000263778
0.000275418
0.00024012
0.000240417
0.000241413
0.000240807
0.000241947
0.000242529
0.00024318
0.000244419
0.000243549
0.000245401
0.000247547
0.000246776
0.000251639
0.000250446
0.000239214
0.000239118
0.000239175
0.00023972
0.00023953
0.00023998
0.000239416
0.000239115
0.000239872
0.000239375
0.000241438
0.000244179
0.000246378
0.00024102
0.000334861
0.000241122
0.000241531
0.000241734
0.000242144
0.000242658
0.000242917
0.000243794
0.000240833
0.000240741
0.00024068
0.000240576
0.00024053
0.000240384
0.000240328
0.00024062
0.000241042
0.000241527
0.000240436
0.000240415
0.000243601
0.00024473
0.000245203
0.000245985
0.00024709
0.000285413
0.000272545
0.000265076
0.000268441
0.000257016
0.000253393
0.000250994
0.000249312
0.000248573
0.000260421
0.000484531
8.77069e-05
7.86032e-05
8.79802e-05
0.000248865
0.000245314
0.000248944
0.000240565
0.000304713
0.000293045
0.000254684
0.000259128
0.000274152
0.000266344
0.000282821
0.000240296
0.00024061
0.000241224
0.000241706
0.000240991
0.000242247
0.000242841
0.000244096
0.00024496
0.000243636
0.00024624
0.00024825
0.000246966
0.000253169
0.000251646
0.000249344
0.000239357
0.000239268
0.000239294
0.000239812
0.000239603
0.000240021
0.000239547
0.000239249
0.000240445
0.000239635
0.000239358
0.000241359
0.000243569
0.000248016
0.000248766
0.000241929
0.000487614
0.000241187
0.000241482
0.00024193
0.000242387
0.000242782
0.000243217
0.000243737
0.000240962
0.000240892
0.00024074
0.000240675
0.000240591
0.000240467
0.00024048
0.000240949
0.000241455
0.00024273
0.000240647
0.000240592
0.000243879
0.000244473
0.000245726
0.000246222
0.000247298
0.000285589
0.000296436
0.000278079
0.00026542
0.000272649
0.000256206
0.000259357
0.000253075
0.000250815
0.000249735
0.000247931
0.000263624
0.000166517
9.18123e-05
7.84755e-05
8.91464e-05
0.000248798
0.000247312
0.000248528
0.000232319
0.000304263
0.000257239
0.000262446
0.000276858
0.000279738
0.000270652
0.000295017
0.00024037
0.000240561
0.000241323
0.000241746
0.000240878
0.000242209
0.000242886
0.000244384
0.000245281
0.000243313
0.000246044
0.000247776
0.000254208
0.00025269
0.000249966
0.000239442
0.000239408
0.00023943
0.000239733
0.00023994
0.000240174
0.000239625
0.000239408
0.000240793
0.00023985
0.00023963
0.000242919
0.000245311
0.000247256
0.000245753
0.000256384
0.00017095
0.000241205
0.000241374
0.000241679
0.000241944
0.000242308
0.000242596
0.000243067
0.000243532
0.000244131
0.000241096
0.000240891
0.000240831
0.000240709
0.000240685
0.00024057
0.000240512
0.000240616
0.000241027
0.000242154
0.000243538
0.000240884
0.000240789
0.000245938
0.000244673
0.000245518
0.000246763
0.000296671
0.00030624
0.000278065
0.000268939
0.000272769
0.000257759
0.00025433
0.000261602
0.000251691
0.000249115
0.000247613
0.000265757
0.000231237
8.00063e-05
7.88133e-05
0.000249623
0.000247307
0.00024706
0.000220092
0.00024137
0.000258713
0.000263935
0.000282952
0.000291602
0.00027157
0.000305489
0.000240308
0.000240686
0.000241189
0.000241567
0.000242003
0.000240985
0.000242481
0.000242754
0.000244093
0.000244956
0.00024538
0.000243371
0.000246644
0.000248448
0.000256068
0.00025143
0.000249651
0.00023958
0.000239609
0.000239564
0.000239785
0.000240002
0.000240136
0.000239625
0.00023976
0.000239678
0.000240226
0.000241752
0.000243291
0.000245049
0.000248574
0.000239258
0.000250151
0.000261512
0.000205488
0.000241359
0.00024146
0.000241591
0.000241829
0.000242146
0.000242429
0.000242623
0.000243228
0.000243759
0.000244054
0.000241077
0.000240985
0.000240866
0.000240819
0.000240765
0.00024069
0.000240652
0.000240764
0.000241533
0.00024266
0.000243013
0.000245727
0.000241466
0.000241062
0.00024657
0.000245047
0.000244298
0.000245843
0.000246395
0.000305069
0.000285229
0.000269423
0.000277037
0.000260232
0.000256375
0.000253036
0.000264476
0.000250823
0.000248161
0.000249628
0.000246771
0.000269017
0.000173032
8.02538e-05
7.98357e-05
0.000249385
0.000249115
0.000248815
0.000244004
0.000234552
0.000261133
0.000263873
0.000268317
0.000278941
0.00029399
0.000240438
0.00024061
0.000241287
0.000241644
0.000242083
0.000240907
0.00024234
0.000243009
0.000244324
0.000243718
0.000245121
0.000246074
0.000247392
0.000248055
0.000255687
0.000252044
0.000250629
0.000239672
0.000239659
0.000239852
0.000239701
0.000239936
0.000240235
0.000239763
0.000239885
0.000239885
0.00024052
0.000242116
0.000245411
0.000247492
0.000248057
0.000239249
0.000248945
0.000257042
0.000124364
0.000241376
0.000241626
0.000241899
0.000242057
0.000242458
0.000242811
0.000243508
0.00024301
0.000241173
0.000240951
0.000240872
0.00024084
0.000240814
0.000240813
0.000240781
0.000240984
0.000242389
0.000244343
0.000244422
0.000246392
0.000241834
0.000241582
0.000248289
0.0002449
0.000243959
0.000245338
0.000296737
0.00028227
0.000273913
0.000277529
0.000262089
0.000257836
0.000254082
0.000251426
0.000266805
0.000247475
0.000248796
0.000246381
0.000272615
8.55443e-05
0.000344136
8.06377e-05
8.04988e-05
0.000249512
0.000247828
0.000248784
0.000214907
0.000240167
0.000261292
0.000266671
0.000271409
0.000285731
0.000304881
0.000240373
0.00024073
0.000241194
0.000241502
0.0002419
0.00024102
0.000242526
0.000242884
0.000244011
0.000244738
0.000243691
0.000245655
0.000246129
0.000247804
0.00024906
0.000253658
0.000257904
0.000250231
0.000239775
0.000239906
0.000240149
0.000239872
0.00024002
0.000240275
0.000239849
0.000239991
0.000240234
0.000241233
0.000243247
0.000245917
0.000247498
0.000245631
0.000219383
0.000248707
0.000311712
0.000184719
0.0002415
0.000241273
0.000241757
0.000242144
0.00024229
0.000242611
0.000243383
0.000243047
0.000241111
0.000240983
0.000240934
0.000240912
0.000240948
0.00024095
0.000240973
0.000241243
0.000243406
0.000245276
0.000248038
0.000242552
0.000241916
0.000249015
0.000244477
0.000243574
0.000244051
0.000245335
0.00030609
0.000288285
0.000276216
0.000283334
0.000265366
0.000260499
0.000270546
0.000246779
0.000245801
8.32456e-05
0.000154858
7.99711e-05
7.91163e-05
0.000249155
0.000245184
0.000249283
0.00021632
0.000234151
0.000260184
0.000264672
0.00027005
0.000276922
0.000284963
0.000296462
0.000240485
0.000240727
0.0002413
0.000241587
0.000241971
0.000241018
0.000242469
0.000243114
0.000244068
0.000244841
0.000243433
0.000239853
0.000240188
0.00024
0.000240467
0.000239998
0.000240143
0.000240216
0.00024041
0.000239911
0.000240071
0.000240609
0.000241778
0.000244898
0.000243112
0.000247924
0.000249138
0.000239573
0.000232999
0.00024826
0.000264335
8.37443e-05
0.00024145
0.000241256
0.000241702
0.000241949
0.00024213
0.000242418
0.000242867
0.000241131
0.000241053
0.000240956
0.000240982
0.000241017
0.000241068
0.000241044
0.00024121
0.000241598
0.000243491
0.000244741
0.000247411
0.000247933
0.00024877
0.00024341
0.000242548
0.000248988
0.000244451
0.000243273
0.000243699
0.000298252
0.000281432
0.000288626
0.000268565
0.000262456
0.000273284
7.82314e-05
0.000166926
8.03032e-05
0.000248653
0.000243251
0.000191927
0.000227607
0.000236794
0.000266913
0.00027299
0.000277928
0.000296222
0.000306156
0.000240619
0.000240888
0.00024147
0.000241166
0.000241805
0.000242233
0.000242732
0.00024299
0.000243727
0.000243444
0.000239942
0.000240502
0.000240281
0.000241034
0.000240157
0.000240152
0.000240285
0.000240451
0.000240021
0.000240084
0.000241399
0.000246645
0.000244156
0.000248759
0.000248136
0.000249535
0.0002411
0.000227623
0.000244825
0.000196158
8.79625e-05
0.000241333
0.000241543
0.000241183
0.000241802
0.000241929
0.000242202
0.000242482
0.000242654
0.000243013
0.000241091
0.000241031
0.000241019
0.000241069
0.00024119
0.000241317
0.000241421
0.000241477
0.000241993
0.000244911
0.000246405
0.000247786
0.000248572
0.0002489
0.000244891
0.000243375
0.000242731
0.000249044
0.000243338
0.000306583
0.000278363
0.000287868
0.000298498
0.000273026
0.000269153
0.000265683
7.9521e-05
0.000117611
8.11815e-05
0.000246646
0.000248378
0.000243843
0.000185194
0.00022279
0.000231556
0.000271013
0.000284443
0.000305007
0.000240647
0.000240884
0.000241576
0.000241163
0.00024186
0.00024221
0.000242602
0.000243151
0.000240106
0.000241162
0.000240486
0.000240419
0.000241766
0.00024141
0.000240226
0.000240301
0.000240223
0.000240385
0.000240569
0.000240142
0.000240214
0.000246468
0.000243987
0.000249601
0.000249398
0.000248828
0.000234136
0.000224943
0.000242047
0.000204779
7.66583e-05
0.00024126
0.00024147
0.000241147
0.000241679
0.000241881
0.000242156
0.000242278
0.000242627
0.000242783
0.0002411
0.000241066
0.000241058
0.000241177
0.000241134
0.000241404
0.000241536
0.000241615
0.000241979
0.000246087
0.00024657
0.000248355
0.000248457
0.000248859
0.000246133
0.000244544
0.000243168
0.000248342
0.000243072
0.000283222
0.000296891
0.000306735
0.000278526
0.000273989
8.14917e-05
7.81227e-05
0.000175081
0.000244102
0.000245081
0.000238911
0.000190241
0.000214153
0.000232414
0.000274523
0.00029622
0.000280109
0.000240774
0.000241019
0.000241482
0.000241769
0.000241318