/*--------------------------------*- C++ -*----------------------------------*\
| =========                 |                                                 |
| \\      /  F ield         | OpenFOAM: The Open Source CFD Toolbox           |
|  \\    /   O peration     | Version:  v2012                                 |
|   \\  /    A nd           | Website:  www.openfoam.com                      |
|    \\/     M anipulation  |                                                 |
\*---------------------------------------------------------------------------*/
FoamFile
{
    version     2.0;
    format      ascii;
    class       volVectorField;
    location    "350";
    object      U;
}
// * * * * * * * * * * * * * * * * * * * * * * * * * * * * * * * * * * * * * //

dimensions      [0 1 -1 0 0 0 0];


internalField   nonuniform List<vector> 
12639
(
(0.999938 -3.22229e-05 -2.90509e-22)
(1.0003 -2.44666e-05 2.51729e-22)
(0.999224 -1.45702e-05 1.53513e-22)
(1.00016 -2.44082e-05 -2.20355e-22)
(1.00025 1.14695e-05 1.95212e-22)
(0.998567 -2.28397e-05 0)
(0.999268 -3.29355e-05 -6.85164e-23)
(1.00027 -1.0307e-05 0)
(1.00022 -2.41633e-06 5.45747e-24)
(0.998249 3.39606e-05 0)
(0.999223 -3.37017e-05 0)
(1.00021 -1.68622e-05 0)
(1.00023 1.8816e-06 -5.47141e-24)
(1.00018 -8.73053e-06 0)
(0.998642 6.01402e-05 -2.24685e-22)
(0.998335 3.1347e-05 0)
(0.999323 -2.15876e-05 0)
(0.998206 5.29983e-06 0)
(1.00022 -7.21157e-06 0)
(1.0002 -4.39108e-06 0)
(1.00018 -7.10632e-06 5.01159e-23)
(0.999044 3.80534e-05 1.25283e-22)
(0.998861 5.38148e-05 1.47556e-22)
(0.999102 -2.72239e-05 0)
(0.99822 9.1695e-07 0)
(1.00023 -7.40365e-06 -4.35962e-24)
(1.00022 -7.14629e-06 0)
(1.0002 -3.56733e-06 1.45132e-23)
(1.00017 -9.17486e-06 -6.5414e-23)
(0.999948 3.70555e-05 -1.07173e-23)
(0.99891 4.75261e-05 -6.66922e-22)
(0.998178 -2.72093e-06 0)
(0.999225 -4.20397e-05 3.7851e-24)
(0.9985 5.1689e-05 7.49048e-22)
(1.00022 -5.52301e-06 0)
(1.00021 -1.07365e-05 -4.55458e-22)
(1.00017 -1.01312e-05 -1.12294e-23)
(1.00017 -9.59941e-06 1.41936e-23)
(1.00017 -8.41183e-06 1.05578e-23)
(1.00013 3.82286e-05 2.8293e-22)
(0.999617 3.69864e-05 6.54504e-22)
(0.998088 -1.20094e-06 0)
(0.999115 -4.98508e-05 0)
(0.998699 4.71108e-05 -8.41191e-22)
(1.00023 -1.09861e-05 3.42607e-22)
(1.00021 3.59356e-07 -2.14977e-22)
(1.00018 -1.25902e-05 2.69226e-22)
(1.00018 -1.08263e-05 -6.42005e-23)
(1.00016 -9.19501e-06 -5.49646e-23)
(1.00015 -8.53883e-06 -1.94732e-24)
(1.00003 3.56089e-05 -2.86501e-22)
(1.00031 1.51824e-05 -3.17717e-23)
(0.999549 6.73718e-05 -7.13124e-22)
(0.99811 -7.79124e-06 0)
(0.998599 6.51328e-05 4.09711e-22)
(0.999809 -3.1729e-06 0)
(0.998056 -0.000100039 0)
(1.00023 -4.69896e-06 4.22253e-24)
(1.00027 -2.40755e-05 1.0699e-21)
(1.00018 -1.84282e-05 -3.76611e-23)
(1.00017 -1.19908e-05 0)
(1.00017 -9.72158e-06 7.89549e-23)
(1.00016 -7.80243e-06 1.67902e-23)
(1.00016 -8.92091e-06 3.83121e-24)
(1.00036 2.27726e-05 -1.15708e-22)
(1.0003 1.91804e-05 2.16961e-23)
(1.00031 9.4343e-06 -2.59864e-23)
(0.999718 9.2085e-05 7.57148e-22)
(0.998321 0.000170214 -7.77685e-22)
(0.999125 0.000124255 8.4398e-23)
(0.999661 -1.71941e-05 9.9302e-22)
(0.998136 -0.000182648 -6.81576e-21)
(1.00019 -1.86618e-05 3.53646e-23)
(1.00023 -2.62451e-05 -6.63923e-22)
(1.00018 -1.66667e-05 -8.97797e-25)
(1.00017 -1.33096e-05 5.88456e-23)
(1.00016 -9.77722e-06 1.73815e-23)
(1.00015 -7.35438e-06 1.86374e-23)
(1.00014 -7.63682e-06 0)
(1.00028 1.30776e-05 1.55857e-22)
(1.00016 3.70154e-05 0)
(1.00016 3.44563e-05 -8.58058e-24)
(1.00039 1.3774e-05 -1.21309e-22)
(0.999213 0.000146682 7.59088e-22)
(0.998482 0.000215206 1.82303e-21)
(0.99925 -6.29525e-05 4.87505e-21)
(0.997059 8.48174e-05 -1.42717e-21)
(1.0002 -1.81146e-05 0)
(1.00018 -1.46579e-05 0)
(1.00018 -1.93554e-05 4.34742e-23)
(1.00017 -1.30553e-05 -2.4235e-22)
(1.00015 -7.63467e-06 -9.31868e-23)
(1.00016 -1.02896e-05 1.58989e-22)
(1.00014 -7.27217e-06 -1.37221e-23)
(1.00018 3.05761e-05 -6.14235e-24)
(1.00017 3.42739e-05 -5.71237e-24)
(1.00019 3.28513e-05 4.17119e-24)
(1.00028 -4.24653e-06 -3.67043e-22)
(1.00036 9.12896e-07 8.13415e-22)
(1.00019 9.31527e-05 -1.27515e-21)
(0.999128 -0.000135023 0)
(0.99747 0.000135432 1.12062e-21)
(1.00019 -2.48904e-05 0)
(1.00019 -2.34088e-05 0)
(1.00021 -2.96595e-05 4.23747e-22)
(1.00017 -1.41353e-05 7.34661e-23)
(1.00014 -5.6733e-06 -7.85861e-23)
(1.00015 -9.25033e-06 0)
(1.00013 -5.37259e-06 9.54225e-23)
(1.00019 3.20865e-05 -1.01869e-24)
(1.00017 3.22601e-05 7.76395e-24)
(1.00017 3.30449e-05 2.74278e-24)
(1.00019 3.59236e-05 -3.49721e-22)
(1.00015 1.23099e-05 0)
(0.999728 0.000125553 0)
(1.00018 -6.87363e-05 -4.31784e-22)
(0.997917 -0.000117685 0)
(0.997212 0.000107765 -5.45415e-22)
(1.00019 -3.2495e-05 -1.34279e-22)
(1.00018 -2.63865e-05 9.08941e-23)
(1.0002 -2.01254e-05 1.74702e-22)
(1.00018 -1.69122e-05 -8.41105e-22)
(1.00014 -5.78243e-06 -1.51494e-22)
(1.00016 -9.64597e-06 -2.68829e-22)
(1.00012 -3.68407e-06 0)
(1.00018 3.42011e-05 0)
(1.00017 3.20948e-05 1.34592e-25)
(1.00017 3.27549e-05 1.13685e-23)
(1.00018 3.33777e-05 -2.74276e-24)
(1.00019 3.5151e-05 -1.68745e-22)
(1.0002 3.68437e-05 0)
(1.00001 6.24988e-05 -1.92874e-21)
(0.999861 -6.63368e-05 7.21457e-22)
(0.997957 -0.000148877 0)
(0.997055 0.000163037 6.12921e-22)
(1.00018 -4.64755e-05 0)
(1.00019 -3.05095e-05 0)
(1.00019 -2.88454e-05 5.72098e-22)
(1.00017 -1.63356e-05 6.44992e-22)
(1.00013 -2.89482e-06 1.64497e-22)
(1.00016 -1.15462e-05 3.58195e-22)
(1.00015 -3.97433e-06 0)
(1.00011 -2.7119e-06 -1.73906e-22)
(1.00018 3.60236e-05 0)
(1.00017 3.27643e-05 0)
(1.00015 3.13169e-05 -1.54147e-23)
(1.00017 3.35311e-05 0)
(1.00018 4.10383e-05 2.96116e-22)
(1.00019 3.58957e-05 4.09312e-22)
(0.99962 0.000101141 5.54953e-22)
(1.00017 6.37048e-05 2.48534e-21)
(0.999027 -0.000184759 -8.07536e-22)
(1.0003 -4.56695e-05 -6.84888e-22)
(0.996596 0.000103182 5.28003e-22)
(1.00019 -4.05378e-05 1.02098e-22)
(1.00018 -6.22885e-05 1.60539e-23)
(1.00019 -3.02476e-05 -8.66623e-22)
(1.00015 -7.4963e-05 -6.71768e-22)
(1.00018 -1.93011e-05 5.80987e-22)
(1.00013 -2.40971e-06 0)
(1.00016 -8.19561e-06 0)
(1.00015 -3.25577e-06 0)
(1.00011 -4.76498e-07 2.78048e-22)
(1.00017 3.89346e-05 2.3168e-23)
(1.00016 3.08217e-05 6.32401e-23)
(1.00015 3.3361e-05 -2.43656e-24)
(1.00017 3.44592e-05 3.21052e-23)
(1.00018 5.04589e-05 2.73082e-22)
(1.00018 5.55513e-05 -3.15567e-22)
(1.00019 3.73863e-05 -4.69493e-22)
(0.999601 9.20261e-05 -1.23654e-21)
(1.00014 9.76934e-05 0)
(0.998997 -0.000269608 -1.07209e-21)
(1.00017 -2.69712e-05 -1.32681e-21)
(0.996647 0.000120938 4.14658e-21)
(1.0002 -5.49747e-05 1.23025e-23)
(1.0002 -8.19673e-05 -1.24534e-22)
(1.0002 -3.37933e-05 -1.01576e-21)
(1.00016 -8.47926e-05 8.71619e-22)
(1.00018 -1.31106e-05 -6.27529e-22)
(1.00013 6.30519e-07 -1.75592e-22)
(1.00017 -7.98943e-06 7.7693e-22)
(1.00015 -5.06418e-07 1.09807e-23)
(1.0001 1.18543e-06 0)
(1.00011 2.84301e-06 -1.07374e-22)
(1.00017 3.53742e-05 0)
(1.00018 4.20448e-05 -1.57773e-23)
(1.00015 3.0718e-05 -2.97072e-23)
(1.00014 3.02966e-05 7.32037e-23)
(1.00016 3.15168e-05 8.91065e-23)
(1.00018 6.06175e-05 -1.21566e-22)
(1.00017 7.77107e-05 1.30323e-22)
(0.999699 8.46901e-05 2.30828e-22)
(1.00017 8.57442e-05 0)
(1.00051 -2.93195e-05 3.27609e-23)
(0.996216 -0.000276001 3.33683e-23)
(1.00009 -6.95343e-05 1.58454e-21)
(0.997355 0.000302263 -5.52689e-21)
(1.00021 -6.7596e-05 4.22944e-22)
(1.00021 -4.8481e-05 1.26936e-22)
(1.0002 -0.000100855 0)
(1.00021 -2.85783e-05 2.14838e-21)
(1.00016 -0.000105041 -9.33633e-24)
(1.00019 -1.19735e-05 -1.429e-21)
(1.00013 1.38485e-06 1.46231e-22)
(1.00016 3.79976e-07 3.59947e-22)
(1.00013 3.80258e-06 -8.65543e-24)
(1.00008 4.49605e-06 0)
(1.0001 5.68597e-06 1.40822e-22)
(1.00017 3.76522e-05 -1.33727e-22)
(1.00018 4.4103e-05 0)
(1.00014 3.12856e-05 -1.29503e-22)
(1.00015 3.17497e-05 -9.91647e-23)
(1.00019 6.41138e-05 0)
(1.00018 7.73136e-05 0)
(1.00029 7.53455e-05 2.83518e-22)
(1.00015 0.000107869 1.89964e-21)
(1.00017 8.70404e-05 0)
(0.999939 -5.09229e-05 0)
(0.996616 -0.000415803 -2.74888e-21)
(1.00009 -7.40386e-05 0)
(0.997279 0.000467823 1.19484e-21)
(1.00022 -8.0773e-05 0)
(1.00022 -5.78727e-05 0)
(1.00022 -0.000120551 0)
(1.00018 -0.000120107 7.42587e-22)
(1.00023 -3.62244e-05 -1.33112e-21)
(1.0002 -1.46664e-05 1.13229e-21)
(1.00013 -0.00014388 -7.33691e-22)
(1.00018 1.84785e-06 -3.01152e-23)
(1.0001 7.09781e-06 -1.06272e-23)
(1.00016 2.29142e-06 -3.59928e-22)
(1.00013 8.1081e-06 6.15117e-22)
(1.00008 7.69749e-06 0)
(1.00016 3.44194e-05 3.6839e-22)
(1.00018 4.57313e-05 -3.18696e-22)
(1.00014 2.87149e-05 0)
(1.00014 3.20177e-05 2.78857e-24)
(1.00015 3.16773e-05 -4.20166e-22)
(1.0002 8.05572e-05 -1.27938e-22)
(1.00019 5.34026e-05 3.95566e-22)
(1.00019 9.88442e-05 1.45362e-22)
(1.00006 4.86643e-05 -1.06642e-21)
(1.00013 0.000119425 -1.56548e-21)
(1.00016 0.000115961 -5.65649e-22)
(1.00034 -9.63157e-05 -3.77636e-21)
(0.999112 -0.000138216 3.64989e-21)
(0.994237 -0.000159352 1.23514e-22)
(1.00002 -7.64079e-05 3.19958e-21)
(0.999507 0.0003152 4.22805e-21)
(1.00023 -8.77793e-05 -6.35505e-22)
(1.00023 -5.86666e-05 2.69402e-22)
(1.00025 -0.000144249 3.2044e-22)
(1.00019 -0.000143736 0)
(1.00024 -2.35382e-05 1.89012e-21)
(1.00021 -9.4684e-06 -3.82899e-22)
(1.00011 -0.00016199 -2.95347e-21)
(1.00018 5.24715e-06 4.64911e-22)
(1.0001 9.46258e-06 2.17454e-22)
(1.00014 1.13644e-05 1.26142e-22)
(1.00011 1.22174e-05 6.41272e-22)
(1.00007 8.06809e-06 -4.74824e-23)
(1.00016 3.52391e-05 -2.41829e-22)
(1.00017 3.85938e-05 5.09638e-22)
(1.00013 2.63509e-05 0)
(1.00012 2.66597e-05 0)
(1.00014 2.76134e-05 2.15301e-22)
(1.00021 8.3102e-05 0)
(1.00019 5.55833e-05 -7.46728e-22)
(1.00019 0.000113389 -2.15723e-22)
(1.00024 0.000124518 -1.53857e-21)
(1.00013 0.000136106 4.43707e-22)
(1.00018 0.000131968 6.42024e-22)
(1.00035 -0.000109476 8.27479e-22)
(0.998737 -0.000224191 -1.66809e-21)
(0.99477 -0.000200335 7.6297e-24)
(1.00007 -0.000173177 -5.53144e-22)
(0.998842 0.000448165 -2.25243e-21)
(1.00026 -0.000100737 1.58979e-21)
(1.00026 -6.40918e-05 -7.76245e-22)
(1.00027 -0.000141305 7.8981e-22)
(1.00023 -0.00017467 -3.13901e-22)
(1.00016 -0.000199164 1.63895e-21)
(1.00025 -2.12277e-05 -2.12002e-21)
(1.00022 1.88972e-07 0)
(1.00005 -0.000182089 2.90409e-21)
(1.0002 8.5267e-06 0)
(1.00016 1.99319e-05 2.43656e-22)
(1.00014 1.72405e-05 -6.19895e-22)
(1.0001 1.61925e-05 -7.06636e-22)
(1.00008 1.18214e-05 -2.61317e-23)
(1.00016 2.9331e-05 -6.8731e-22)
(1.00018 4.16251e-05 1.48243e-21)
(1.00013 2.60508e-05 0)
(1.00011 2.84506e-05 0)
(1.00014 2.70826e-05 3.80032e-22)
(1.0002 5.87745e-05 7.46693e-22)
(1.00023 9.30642e-05 0)
(1.00021 0.000129392 3.93152e-22)
(1.00015 0.000104424 -2.86596e-22)
(1.0001 0.00016559 1.16481e-21)
(1.00017 0.000152046 -4.16076e-22)
(1.0001 -6.72167e-05 1.93152e-21)
(0.997522 -0.000242664 0)
(0.993317 -9.13126e-07 0)
(1.00002 0.000173005 1.46674e-21)
(1.00028 -7.85586e-05 -3.06368e-21)
(1.00027 -4.16164e-05 2.49583e-21)
(1.0003 -0.000143138 -7.78143e-23)
(1.00023 -0.000215814 -2.49721e-23)
(1.00019 -0.000239675 2.72107e-23)
(1.00026 -1.41892e-06 3.61685e-21)
(1.00024 8.42268e-06 0)
(1.00005 -0.000232207 -1.61645e-21)
(1.0002 2.29172e-05 0)
(1.00016 2.73342e-05 8.87479e-22)
(1.00013 2.22491e-05 -3.19379e-22)
(1.00008 1.64574e-05 7.21907e-23)
(1.0001 1.99822e-05 3.93778e-22)
(1.00007 1.74554e-05 -3.43252e-23)
(1.00015 2.71673e-05 4.64861e-22)
(1.00018 3.54757e-05 -7.8157e-22)
(1.00012 2.25846e-05 1.31474e-22)
(1.0001 2.23121e-05 -7.32297e-23)
(1.00013 2.2057e-05 0)
(1.00021 5.47391e-05 -1.79111e-21)
(1.00024 8.88999e-05 -1.11517e-21)
(1.00024 0.000112083 -5.61863e-22)
(1.00021 0.000162634 1.4598e-22)
(1.00017 0.000112824 -1.46905e-21)
(1.00009 0.000200257 -8.16304e-22)
(1.00019 0.000175974 3.54551e-22)
(1.00016 -7.89776e-05 -3.72586e-21)
(0.997062 -0.000296188 0)
(0.993617 8.12653e-05 0)
(0.999293 0.000273128 0)
(1.00031 -8.88452e-05 -2.98578e-21)
(1.0003 -4.26392e-05 -1.86383e-21)
(1.00034 -0.000154359 -1.11442e-22)
(1.00026 -0.000234365 0)
(1.00018 -0.000269928 -1.13045e-22)
(1.00028 2.72828e-06 -3.19172e-21)
(1.00023 2.80989e-05 1.08816e-21)
(0.999983 -0.000211181 -2.18458e-21)
(1.00006 -0.000263686 0)
(1.00018 3.41897e-05 -1.23319e-21)
(1.00014 3.48809e-05 1.26161e-21)
(1.00012 3.08129e-05 -1.17386e-21)
(1.00007 2.03899e-05 -1.00884e-22)
(1.00009 2.66053e-05 -4.27989e-22)
(1.00006 1.93589e-05 1.14425e-22)
(1.00016 2.59937e-05 -1.07878e-21)
(1.00014 2.06203e-05 -5.72856e-22)
(1.00019 3.27089e-05 -1.653e-21)
(1.00012 2.16058e-05 2.27355e-22)
(1.0001 2.17328e-05 -4.40888e-23)
(1.00024 6.1071e-05 2.29825e-21)
(1.00021 3.6169e-05 2.13862e-21)
(1.00027 9.49628e-05 7.88505e-22)
(1.00025 0.000130857 -9.62556e-22)
(1.00024 0.000177108 -1.14006e-21)
(1.00012 0.000223282 1.08013e-21)
(1.00008 0.00022707 0)
(1.00019 0.000196592 0)
(1.00022 -0.000254331 6.61756e-21)
(0.997317 -0.000238075 -1.82371e-21)
(0.993306 0.000197491 0)
(0.999596 0.00021647 0)
(1.00032 -8.17035e-05 3.24999e-21)
(1.00031 -1.38865e-05 1.45441e-21)
(1.00038 -0.000144652 1.26084e-22)
(1.00033 -0.000208279 0)
(1.00028 -0.000308147 0)
(1.00023 -0.000346078 -1.7539e-23)
(1.00009 -0.000275624 2.35867e-22)
(1.00029 2.51208e-05 0)
(1.00023 4.08463e-05 -1.08811e-21)
(0.999953 -0.000230866 1.43338e-21)
(1.00003 -0.000308476 1.3069e-21)
(1.0002 4.73246e-05 1.57818e-21)
(1.00014 4.1074e-05 0)
(1.0001 3.40744e-05 2.58049e-22)
(1.00007 2.43066e-05 8.4862e-24)
(1.00009 3.04654e-05 0)
(1.00006 2.69241e-05 0)
(1.00016 1.58161e-05 0)
(1.00012 1.58473e-05 -1.37243e-22)
(1.00017 1.64615e-05 4.95427e-22)
(1.00011 1.76299e-05 -3.55914e-22)
(1.00009 1.788e-05 1.69474e-22)
(1.00025 5.06074e-05 -1.88336e-22)
(1.00021 2.84198e-05 -1.70652e-21)
(1.00029 0.000107077 0)
(1.00027 6.144e-05 1.50848e-21)
(1.00029 0.000136128 4.793e-22)
(1.00025 0.000200632 1.74164e-21)
(1.00003 0.000252897 -2.32918e-21)
(1.00017 0.000227436 2.21092e-21)
(1.00015 0.000250225 0)
(1.00022 0.000240385 0)
(0.999458 -0.000290262 -4.0737e-21)
(0.994975 -0.000139215 2.74838e-21)
(0.993039 0.000185412 0)
(0.999099 0.000243644 2.81762e-21)
(1.00034 -7.68358e-05 -3.64108e-21)
(1.00033 -1.26549e-05 8.22977e-22)
(1.00042 -0.00011404 0)
(1.00042 -0.000204242 5.00243e-21)
(1.00038 -0.000251916 -4.39678e-21)
(1.00033 -0.00034029 0)
(1.0002 -0.000421085 5.11317e-24)
(1.00007 -0.000388228 -1.11145e-21)
(1.00027 4.80899e-05 0)
(1.00033 2.72687e-05 1.85527e-21)
(1.00024 5.07653e-05 1.22153e-21)
(0.999899 -0.000381079 4.04403e-22)
(1.00026 -0.000229919 3.66351e-21)
(1.00018 5.67517e-05 -2.85021e-22)
(1.00012 4.60376e-05 2.21887e-23)
(1.00016 4.98554e-05 2.09744e-22)
(1.0001 4.07879e-05 -7.31788e-22)
(1.00006 2.53159e-05 3.46094e-23)
(1.00007 3.38488e-05 1.37961e-22)
(1.00005 2.63648e-05 0)
(1.00014 1.02818e-05 1.30449e-22)
(1.00012 1.27579e-05 9.34528e-22)
(1.00011 1.60563e-05 4.35831e-22)
(1.00018 1.16881e-05 -1.10542e-21)
(1.00009 1.53176e-05 -1.0547e-22)
(1.00024 2.98956e-05 -8.5598e-22)
(1.0002 1.21987e-05 1.85896e-23)
(1.00033 0.000112748 0)
(1.00029 5.70955e-05 -2.22663e-21)
(1.00031 0.000168829 1.44459e-21)
(1.00029 0.000216845 -1.02643e-21)
(1.00003 0.000307583 1.06178e-21)
(1.00008 0.000271593 1.90521e-22)
(1.00018 0.000309142 -1.12643e-23)
(1.00022 0.000272386 -1.45246e-22)
(0.996167 -0.000217873 3.92434e-21)
(0.992871 0.00022037 -3.50782e-21)
(0.999104 0.000257967 -1.07827e-20)
(1.0004 -7.41261e-05 4.91663e-21)
(1.00035 -9.09695e-07 -2.42291e-21)
(1.00048 -0.000113678 0)
(1.00047 -0.000209315 -1.91366e-21)
(1.00038 -0.00030464 1.51493e-21)
(1.00034 -0.000425793 -7.87387e-22)
(1.00026 -0.000484152 7.5015e-22)
(1.0001 -0.000410007 0)
(1.00029 6.94922e-05 0)
(1.00035 5.33042e-05 0)
(1.00023 7.9439e-05 1.26655e-22)
(0.999881 -0.000448495 0)
(1.00001 -0.000183553 0)
(1.00019 7.4039e-05 -2.35783e-21)
(1.0001 4.26488e-05 5.4272e-22)
(1.00012 5.72581e-05 -2.17712e-22)
(1.00014 6.46513e-05 8.77056e-22)
(1.00007 3.69282e-05 -5.35939e-23)
(1.00006 2.96484e-05 -3.46059e-23)
(1.00004 3.69747e-05 4.03663e-23)
(1.00013 3.0739e-06 -1.53216e-21)
(1.00011 6.05184e-06 -1.32809e-22)
(1.00009 1.05893e-05 0)
(1.00017 7.57238e-07 3.60206e-21)
(1.00008 1.34778e-05 3.31323e-24)
(1.00025 1.82792e-05 -3.0959e-22)
(1.0002 1.7327e-06 -9.85876e-22)
(1.00034 0.000160462 0)
(1.00035 9.84916e-05 9.11875e-22)
(1.00028 2.23335e-05 -7.19048e-23)
(1.00033 6.21831e-05 3.38757e-22)
(1.00032 0.000241516 2.22233e-21)
(1.00002 0.00035676 -1.59303e-21)
(1.0001 0.000298416 -2.1984e-21)
(1.00019 0.000338211 0)
(1.00025 0.000303935 1.57308e-22)
(0.995111 -0.000241601 -2.76779e-21)
(0.992411 0.000262585 7.24356e-21)
(0.998564 0.000377988 7.79107e-21)
(1.00042 -2.29557e-05 -6.93617e-21)
(1.00039 1.11906e-05 0)
(1.00051 -0.000161742 0)
(1.0005 -6.90522e-05 -2.46077e-21)
(1.0005 -0.000269404 0)
(1.00045 -0.000331852 0)
(1.00044 -0.00047788 2.30935e-21)
(1.00027 -0.000607387 0)
(1.00007 -0.000488654 -4.36622e-22)
(1.00033 7.64109e-05 1.03239e-21)
(1.00028 0.000100207 0)
(1.00039 4.86509e-05 0)
(1.00021 8.02593e-05 1.17319e-21)
(1.00026 9.95528e-05 -1.76184e-21)
(1.0002 -0.000178846 0)
(0.999838 -0.000434423 1.69767e-21)
(0.996624 -0.000443899 0)
(1.00016 8.34539e-05 -2.63045e-22)
(1.00009 5.19445e-05 6.65648e-22)
(1.00011 5.8987e-05 0)
(1.00014 7.10886e-05 -1.29217e-21)
(1.00006 3.97826e-05 -3.75352e-23)
(1.00004 3.33734e-05 -4.86092e-23)
(1.00014 -6.64962e-07 -2.12639e-22)
(1.00011 -2.13198e-06 0)
(1.0001 8.68605e-06 0)
(1.0001 2.29966e-06 0)
(1.00018 -8.5533e-06 7.6926e-22)
(1.00007 6.04861e-06 -2.79116e-22)
(1.00024 1.55228e-06 7.86631e-22)
(1.00021 -4.47964e-06 1.37488e-21)
(1.00038 0.000172681 -5.97485e-22)
(1.00039 0.000103382 -1.23942e-21)
(1.00029 1.15064e-05 2.35741e-21)
(1.00035 3.45089e-05 -6.70863e-22)
(1.00031 0.000295952 3.52498e-22)
(1.00038 0.000235094 -1.94945e-21)
(1.00013 0.000393077 1.99714e-21)
(0.999957 0.000457746 9.93001e-22)
(0.999962 0.000360138 3.35594e-21)
(1.00025 0.000391665 5.24505e-22)
(0.992332 0.000319737 -4.95182e-21)
(0.998463 0.000519182 0)
(1.00047 -1.32619e-05 7.16177e-21)
(1.00057 -0.000168652 0)
(1.00056 -6.19808e-05 1.30489e-21)
(1.00057 -0.000279536 0)
(1.00049 -0.00039084 0)
(1.0005 -0.000569517 -2.90934e-21)
(1.00013 -0.000629641 5.02904e-22)
(1.00042 -0.00068914 0)
(0.999923 -0.00052562 0)
(1.00034 0.000106874 -1.0325e-21)
(1.00031 0.000124059 -1.31029e-21)
(1.0004 6.6615e-05 9.70247e-22)
(1.00021 0.000105965 1.97614e-21)
(1.00024 0.000125804 0)
(0.999864 -0.000238916 -2.71481e-21)
(0.999743 -0.000599569 -2.82575e-21)
(0.995424 -0.000569522 1.35699e-21)
(1.00016 9.6423e-05 6.89273e-22)
(1.00007 5.02002e-05 -6.53443e-22)
(1.00011 6.33632e-05 -1.94156e-22)
(1.00013 7.82867e-05 6.54109e-22)
(1.00005 3.36389e-05 5.56148e-23)
(1.00006 4.68836e-05 0)
(1.00004 4.09181e-05 3.76915e-23)
(1.00013 -1.36272e-05 -9.55346e-22)
(1.00011 -8.62702e-06 0)
(1.00008 4.22852e-06 2.767e-22)
(1.00008 -4.79012e-06 -5.06531e-22)
(1.00017 -1.95149e-05 -1.46346e-21)
(1.00007 3.42075e-06 -6.25892e-25)
(1.00025 -1.38452e-05 0)
(1.00021 -2.61248e-05 0)
(1.00042 0.000149101 4.62529e-21)
(1.00043 7.34632e-05 5.76507e-21)
(1.00033 6.72923e-06 -1.03702e-21)
(1.00028 -1.94926e-05 -2.39992e-21)
(1.0004 2.60072e-05 1.80565e-21)
(1.00038 0.000340442 -3.52428e-22)
(1.00041 0.000279123 0)
(1.00016 0.000503206 -5.96792e-22)
(0.999973 0.000544633 1.312e-21)
(0.999933 0.000391822 -1.98658e-21)
(1.00029 0.000411996 -5.24456e-22)
(0.9912 0.000317242 4.74065e-21)
(0.994376 0.0006925 8.16329e-21)
(1.0008 0.000364094 -2.42151e-22)
(1.00051 4.0469e-05 0)
(1.00065 -0.000143991 0)
(1.00057 3.43614e-05 7.9935e-21)
(1.00063 -6.71691e-05 1.89998e-21)
(1.00064 -0.000338589 0)
(1.0006 -0.000425039 2.05791e-21)
(1.0006 -0.000578237 2.23364e-21)
(1.00005 -0.000740566 0)
(1.00046 -0.000797482 0)
(0.999931 -0.000689199 0)
(1.00038 0.00012797 -1.67781e-22)
(1.0003 0.000142931 3.53547e-21)
(1.00047 8.95761e-05 1.49618e-21)
(1.00018 0.00011719 -2.46665e-21)
(1.00023 0.00013557 -5.95382e-22)
(0.999618 -0.000246653 0)
(0.999745 -0.000586039 3.66821e-21)
(0.999806 -0.00077121 0)
(0.995898 -0.000745162 -1.41622e-21)
(1.00014 0.00010184 -7.15655e-22)
(1.00007 5.69482e-05 0)
(1.00009 6.65679e-05 2.13286e-22)
(1.00012 8.57514e-05 1.58201e-25)
(1.00003 3.83543e-05 0)
(1.00004 4.27654e-05 2.87714e-24)
(1.00005 4.47833e-05 0)
(1.00014 -1.96115e-05 5.51422e-24)
(1.00011 -1.28643e-05 0)
(1.00008 -1.01587e-05 0)
(1.00007 -1.87595e-06 5.63442e-22)
(1.00018 -2.86188e-05 0)
(1.00005 -2.68455e-06 0)
(1.00023 -3.3559e-05 0)
(1.00047 0.000157581 -4.62598e-21)
(1.00049 7.1335e-05 -3.04668e-21)
(1.00033 -2.39396e-05 3.22247e-21)
(1.0003 -3.85747e-05 0)
(1.00041 -1.1758e-05 7.74291e-21)
(1.00039 0.000391902 0)
(1.00046 0.000272353 8.28756e-22)
(1.00028 0.000519559 0)
(1.00009 0.000580334 6.25095e-22)
(0.999891 0.000636861 -3.5656e-21)
(0.999648 0.000573113 -5.58508e-21)
(0.991005 0.000164667 -5.92306e-21)
(0.994675 0.00100708 -9.13322e-21)
(0.999987 0.000278384 2.42237e-22)
(1.00074 -0.00018143 -6.07354e-21)
(1.00063 6.37817e-05 -5.10352e-21)
(1.00068 -1.81176e-05 0)
(1.00072 -0.000323482 4.24663e-21)
(1.00072 -0.000604483 -4.02752e-21)
(1.00009 -0.000821655 0)
(1.0006 -0.000912476 0)
(1.00028 -0.000913599 0)
(1.00038 0.000153827 2.90237e-22)
(1.00033 0.000186143 0)
(1.00026 0.000163304 -2.68886e-21)
(1.00049 0.000142407 0)
(1.00018 0.000138828 4.96122e-22)
(1.0002 0.000161025 6.15004e-22)
(0.998629 -0.000494665 4.34494e-21)
(0.999656 -0.000608711 -5.57487e-21)
(0.999802 -0.000856372 0)
(0.990148 -0.000279467 -3.41252e-21)
(1.00013 0.000112685 0)
(1.00005 4.51361e-05 6.53345e-23)
(1.00006 5.77853e-05 -3.3735e-26)
(1.00009 7.5095e-05 0)
(1.0001 8.54717e-05 2.12772e-22)
(1.00003 5.41394e-05 1.91686e-22)
(1.00003 4.45079e-05 4.70106e-23)
(1.00012 -3.16522e-05 1.77718e-22)
(1.0001 -1.98729e-05 0)
(1.00007 -1.33669e-05 0)
(1.00018 -4.35875e-05 0)
(1.00005 -5.88612e-06 0)
(1.00023 -4.64284e-05 0)
(1.00052 0.000129825 0)
(1.00051 2.42678e-05 0)
(1.00037 -4.03348e-05 -3.74985e-21)
(1.00029 -5.80312e-05 0)
(1.00046 -3.36621e-05 -5.50782e-21)
(1.00042 0.000449832 -4.35824e-22)
(1.00054 0.000284248 2.40152e-21)
(1.00037 0.000570806 -1.53724e-21)
(1.00012 0.000670631 -2.32844e-24)
(0.99987 0.000767251 2.87133e-21)
(0.999631 0.000649357 1.95e-21)
(1.00034 0.000403246 0)
(0.989906 0.000566301 1.29663e-20)
(1.00081 -0.000143428 -7.12814e-21)
(1.00064 0.000117738 0)
(1.00077 -3.60202e-06 4.63568e-21)
(1.00085 -0.000356294 -3.54699e-21)
(1.00087 -0.000520197 3.3197e-21)
(1.00077 -0.000845927 0)
(0.999949 -0.00102372 0)
(1.00052 -0.001156 1.08565e-21)
(1.00031 -0.00110548 1.70374e-21)
(1.00043 0.000197852 -2.59303e-21)
(1.00032 0.000212202 -4.56102e-22)
(1.00024 0.000197106 2.39173e-22)
(1.00056 0.000168978 -4.77595e-21)
(1.00016 0.000142028 0)
(1.00021 0.000189567 0)
(0.998208 -0.000621442 4.17307e-21)
(0.999419 -0.000710243 1.89056e-21)
(0.999699 -0.000905076 7.16173e-22)
(0.990673 -0.000529433 -7.6544e-21)
(1.00011 0.000110849 0)
(1.00004 4.61116e-05 -7.08167e-23)
(1.00005 6.25829e-05 -3.73769e-22)
(1.00007 7.23618e-05 -1.08889e-22)
(1.0001 9.24209e-05 -1.26794e-22)
(1.00002 5.40327e-05 -2.30103e-22)
(1.0001 -2.61718e-05 7.4218e-22)
(1.00013 -3.72949e-05 -1.36672e-21)
(1.00008 -1.74605e-05 0)
(1.00006 -1.15408e-05 -3.95564e-23)
(1.0002 -5.55508e-05 0)
(1.00015 -4.57694e-05 1.08286e-21)
(1.00005 -7.95846e-06 0)
(1.00025 -6.25221e-05 0)
(1.00056 0.000144738 2.43557e-22)
(1.00057 5.06518e-06 0)
(1.00036 -8.30058e-05 -2.54615e-21)
(1.00032 -8.53348e-05 -3.1332e-21)
(1.00046 -8.04651e-05 3.24506e-21)
(1.00051 0.000471192 5.04093e-21)
(1.00061 0.000324388 -5.76336e-22)
(1.00039 0.00062915 2.06981e-21)
(0.999982 0.000847743 -3.52312e-22)
(1.00028 0.000709963 3.51774e-24)
(0.999742 0.000883084 -2.84217e-21)
(0.999627 0.000754093 -3.25153e-21)
(0.999268 0.000489231 -7.04825e-21)
(0.990149 0.000913892 3.33733e-21)
(1.00094 -0.000136541 3.78425e-21)
(1.00073 0.000180221 -2.05331e-21)
(1.0008 4.73084e-05 0)
(1.00097 -0.000275817 0)
(1.00109 -0.000553557 0)
(1.001 -0.000886497 0)
(0.999933 -0.00119137 0)
(1.00061 -0.00124349 -2.50905e-21)
(1.00013 -0.0013151 -1.02852e-22)
(1.00042 0.000236439 0)
(1.00027 0.000229303 1.12532e-21)
(1.00035 0.000248718 -3.82986e-21)
(1.00057 0.000239452 4.77656e-21)
(1.00013 0.000150887 0)
(1.00019 0.00019814 0)
(0.990465 -0.000676766 8.21863e-21)
(0.997017 -0.00083214 -7.72634e-21)
(0.999354 -0.000764059 5.08464e-21)
(0.999471 -0.000893553 -6.33663e-22)
(0.999753 -0.00123017 -5.29515e-21)
(1.0001 0.000118459 0)
(1.00004 5.13063e-05 -3.52058e-22)
(1.00002 4.88337e-05 1.52127e-24)
(1.00005 6.35395e-05 -9.37579e-23)
(1.00007 7.78377e-05 8.17699e-22)
(1.00008 8.85652e-05 0)
(1.00009 -3.16251e-05 2.72144e-22)
(1.00011 -4.56417e-05 9.8024e-22)
(1.00006 -2.22469e-05 0)
(1.00005 -1.62827e-05 4.12611e-23)
(1.00019 -7.09519e-05 -4.89331e-22)
(1.00015 -6.16976e-05 4.54186e-22)
(1.00005 -2.6814e-05 5.46153e-24)
(1.00026 -9.2436e-05 -2.17611e-21)
(1.00063 0.000134066 5.08831e-22)
(1.00064 4.45261e-05 0)
(1.00059 -7.89198e-05 0)
(1.0004 -0.000112323 3.59506e-21)
(1.00029 -0.000111173 -8.64388e-22)
(1.00051 -0.000116809 -3.34484e-21)
(1.00059 0.000392238 -6.43331e-21)
(1.0006 0.000659598 -6.11486e-23)
(1.0007 0.000278398 -1.75486e-21)
(1.0005 0.000735768 -1.64706e-22)
(1.00011 0.000977849 3.71693e-22)
(1.00027 0.000890746 8.55356e-22)
(0.999716 0.00103912 4.14599e-21)
(0.999427 0.00086899 7.78985e-21)
(0.999767 0.000282244 6.44128e-21)
(0.990048 0.00116497 -1.55366e-20)
(0.987675 -0.000451237 8.6982e-21)
(1.00107 -6.092e-05 1.09985e-21)
(1.00075 0.000240802 -9.81237e-22)
(1.00094 0.000114802 4.37383e-21)
(1.00112 -0.000347558 0)
(1.00119 -0.000667908 0)
(1.00111 -0.00106247 0)
(1.0005 -0.00158009 0)
(1.0009 -0.001308 0)
(1.0002 -0.00149138 3.64021e-22)
(1.00045 0.000274782 0)
(1.00026 0.000262145 8.19504e-22)
(1.00034 0.000297081 1.96138e-21)
(1.00051 0.000287725 5.10404e-21)
(1.00066 0.00030628 6.80675e-21)
(1.00011 0.00012896 -7.70954e-22)
(1.00013 0.000170936 0)
(1.00015 0.000182479 0)
(1.00019 0.000240477 -9.10695e-24)
(0.999167 -0.000743158 9.22586e-21)
(0.988519 -0.000799949 -1.43488e-20)
(0.999095 -0.00104714 -1.0874e-20)
(0.999411 -0.00111284 6.82399e-21)
(0.999616 -0.00139074 1.1235e-21)
(1.00008 0.000108116 7.95501e-22)
(1.00003 4.811e-05 3.71431e-22)
(1.00001 5.82288e-05 0)
(1.00004 6.29389e-05 -2.56433e-22)
(1.00005 7.27542e-05 -1.99047e-21)
(1.00007 9.33956e-05 0)
(1.00006 -2.55491e-05 -3.60667e-22)
(1.00008 -3.69818e-05 9.71132e-23)
(1.00008 -4.01835e-05 -1.14919e-22)
(1.00012 -5.78469e-05 -3.97634e-22)
(1.00004 -2.21695e-05 4.90805e-24)
(1.00016 -7.10391e-05 -1.24915e-21)
(1.00022 -9.71878e-05 3.80211e-21)
(1.00003 -2.34536e-05 1.62221e-24)
(1.00071 0.000180116 3.04835e-22)
(1.00071 1.1727e-05 -9.81153e-21)
(1.00067 -0.000102189 6.19259e-21)
(1.0004 -0.000162657 6.95543e-21)
(1.00029 -0.000127519 -5.40821e-22)
(1.00051 -0.000177228 -4.54563e-21)
(1.00071 0.000462729 0)
(1.00071 0.000676981 -4.64228e-21)
(1.00076 0.000348882 -2.88588e-21)
(1.00042 0.000931937 -6.48303e-22)
(1.0001 0.00106553 1.26527e-22)
(0.999491 0.0011797 -3.85208e-21)
(0.999897 0.00121323 0)
(0.999345 0.000992773 0)
(0.999413 0.000530964 0)
(0.990017 0.00161384 -2.36671e-21)
(1.00108 3.2687e-05 -3.89885e-21)
(1.00115 -0.000303484 -1.19579e-20)
(1.00087 0.000370852 -4.7495e-21)
(1.00098 0.000302627 2.86176e-22)
(1.00143 -0.000681477 0)
(1.00136 -0.00112011 5.75035e-22)
(1.00058 -0.00182746 0)
(1.00106 -0.00159719 0)
(1.00004 -0.00160836 -4.57144e-22)
(1.0004 0.000343343 0)
(1.00022 0.000270444 0)
(1.00029 0.000313426 -1.14965e-21)
(1.00053 0.000372188 -5.07623e-21)
(1.00062 0.00038844 -5.68393e-21)
(1.00009 0.000138009 6.50675e-22)
(1.00011 0.000172343 2.02441e-21)
(1.00013 0.00021513 -4.3909e-22)
(1.00015 0.000253735 5.53704e-22)
(0.997701 -0.000734861 0)
(0.988465 -0.000993574 8.95099e-21)
(0.999127 -0.00127751 -3.9762e-21)
(0.999091 -0.00103252 4.54465e-21)
(0.999511 -0.0016068 0)
(1.00007 0.000113246 -7.23351e-22)
(1.00003 5.33355e-05 0)
(1.00001 5.03646e-05 0)
(1.00004 6.39029e-05 -1.01094e-22)
(1.00005 7.60288e-05 1.18837e-21)
(1.00006 8.49387e-05 -7.91948e-23)
(1.00005 -2.69481e-05 0)
(1.00006 -3.26193e-05 2.60995e-22)
(1.00008 -4.9032e-05 -3.57853e-22)
(1.00011 -6.31757e-05 0)
(1.00004 -3.12184e-05 -4.90887e-24)
(1.00016 -8.51698e-05 -1.24593e-22)
(1.00021 -0.000115059 -1.15681e-21)
(1.00079 0.000134319 0)
(1.0008 1.33012e-05 0)
(1.00067 -0.000138417 -5.37247e-21)
(1.00045 -0.000206629 1.01396e-20)
(1.00034 -0.00017962 -9.78196e-21)
(1.00026 -0.000152451 1.87582e-21)
(1.00059 -0.000216261 -1.92157e-21)
(1.0008 0.000551884 6.23988e-21)
(1.00077 0.000782393 1.79475e-21)
(1.0009 0.000327266 0)
(1.0005 0.00103014 0)
(1.00023 0.00127755 1.08287e-21)
(0.999475 0.00137219 -6.58706e-22)
(0.99989 0.00150813 -1.78728e-21)
(0.999213 0.00111376 0)
(0.998503 0.00074298 -4.68266e-22)
(0.982377 0.000141324 2.1354e-21)
(1.00119 0.00013181 3.30613e-21)
(1.00131 -0.000217064 1.26143e-20)
(1.0008 0.000478876 8.31258e-21)
(1.00113 0.000318654 -3.23867e-22)
(1.00166 -0.000480883 0)
(1.00157 -0.00095078 0)
(1.00129 -0.00157385 -5.81235e-22)
(1.00094 -0.00193055 0)
(1.00029 -0.00203244 -4.42802e-22)
(0.999691 -0.00174511 1.68448e-21)
(1.0004 0.000378779 0)
(1.0002 0.000305684 0)
(1.00028 0.000363413 -3.26279e-22)
(1.00047 0.000415567 -4.24503e-21)
(1.00066 0.000466783 -1.57161e-21)
(1.00007 0.000129548 2.37452e-21)
(1.00008 0.000171925 -2.07072e-21)
(1.0001 0.000214215 -2.64302e-21)
(1.00014 0.000267268 -7.47113e-22)
(0.993639 -0.0006948 0)
(0.999253 -0.00164689 0)
(0.998481 -0.00103918 -1.37932e-21)
(1.00005 9.79994e-05 2.07506e-21)
(1.00002 4.77295e-05 0)
(1.00001 5.96333e-05 0)
(1.00002 5.74714e-05 9.72365e-22)
(1.00003 6.91561e-05 0)
(1.00005 8.72638e-05 -1.83262e-21)
(1.00005 -3.37286e-05 -2.14365e-22)
(1.00009 -5.44782e-05 4.31016e-22)
(1.00006 -4.43147e-05 1.12335e-23)
(1.00011 -7.38202e-05 0)
(1.00003 -3.68973e-05 2.21321e-23)
(1.00013 -8.45244e-05 7.43199e-22)
(1.00018 -0.000106191 1.05074e-21)
(1.00022 -0.00012777 -8.05289e-22)
(1.0009 0.000190857 1.74152e-21)
(1.00088 -3.44702e-05 2.61698e-21)
(1.00075 -0.000179146 -3.05421e-21)
(1.00045 -0.00026029 -3.55469e-21)
(1.00032 -0.000225396 1.42062e-21)
(1.00025 -0.000184794 1.04129e-21)
(1.00059 -0.000266536 2.87912e-21)
(1.00094 0.000559972 -2.19533e-21)