/*--------------------------------*- C++ -*----------------------------------*\
| =========                 |                                                 |
| \\      /  F ield         | OpenFOAM: The Open Source CFD Toolbox           |
|  \\    /   O peration     | Version:  v2012                                 |
|   \\  /    A nd           | Website:  www.openfoam.com                      |
|    \\/     M anipulation  |                                                 |
\*---------------------------------------------------------------------------*/
FoamFile
{
    version     2.0;
    format      ascii;
    class       volScalarField;
    location    "350";
    object      yPlus;
}
// * * * * * * * * * * * * * * * * * * * * * * * * * * * * * * * * * * * * * //

dimensions      [0 0 0 0 0 0 0];


internalField   uniform 0;

boundaryField
{
    flap
    {
        type            calculated;
        value           nonuniform List<scalar> 
202
(
10.4487
9.43317
9.48167
10.5292
10.8098
12.0745
11.7197
11.7209
11.7932
11.9321
12.0862
12.2466
12.4077
12.5657
12.7258
12.8814
13.0439
13.2003
13.3642
13.5244
13.6858
13.8477
14.0107
14.17
14.329
14.4897
14.6483
14.8095
14.9662
15.1258
15.2782
15.4269
15.5766
15.7226
15.8661
16.0093
16.1472
16.2845
16.4176
16.5471
16.6748
16.7978
16.9198
17.0381
17.1528
17.2649
17.3766
17.4881
17.5988
17.7061
17.8122
17.914
18.0132
18.1076
18.1986
18.2892
18.3788
18.4694
18.556
18.6459
18.7372
18.8299
18.9271
19.0362
19.1604
19.3044
19.4733
19.6756
19.9169
20.2116
20.5778
21.0272
21.5616
22.1806
22.8715
23.5503
23.9183
23.8293
23.423
22.8875
22.3097
21.7089
21.1081
20.5041
19.8377
19.6215
20.1761
21.6322
22.995
24.1732
25.0114
25.602
26.047
26.3773
26.5962
26.6898
26.6525
26.432
25.9605
24.9985
22.9798
16.2851
5.63452
10.7273
11.9799
11.6221
11.6236
11.6977
11.8387
11.9952
12.1583
12.3225
12.4841
12.6477
12.8073
12.9745
13.1359
13.3044
13.4692
13.6356
13.8023
13.9676
14.1252
14.2794
14.436
14.5899
14.7479
14.9021
15.0608
15.2133
15.3622
15.5118
15.6575
15.8005
15.9433
16.0803
16.216
16.3472
16.4745
16.5999
16.7205
16.8401
16.9563
17.0689
17.1791
17.2889
17.3984
17.5071
17.6128
17.7177
17.8184
17.9162
18.0091
18.0986
18.1877
18.276
18.3653
18.4507
18.5391
18.6287
18.7192
18.8137
18.9195
19.0395
19.1782
19.3406
19.5354
19.7686
20.0549
20.4133
20.8574
21.3878
22.0066
22.7022
23.3933
23.7832
23.7224
23.3325
22.8005
22.2165
21.6362
21.1297
20.7767
20.5421
21.0179
22.4225
23.8206
24.7752
25.3342
25.6887
25.937
26.1225
26.2356
26.2587
26.168
25.9468
25.5376
24.8611
23.6721
21.3245
14.8842
7.39681
)
;
    }
    freestream
    {
        type            calculated;
        value           uniform 0;
    }
    main
    {
        type            calculated;
        value           nonuniform List<scalar> 
231
(
15.6378
9.07376
11.8656
13.9864
15.4744
16.584
17.3146
17.7837
18.0446
18.1502
18.1344
17.9842
17.7507
17.4
16.9645
16.4435
16.1708
17.0031
17.9054
18.6724
19.236
19.5845
19.7726
19.779
19.6343
19.3095
18.7497
17.8932
16.6149
14.8875
12.4049
9.65089
15.7794
4.8286
5.33266
6.10992
7.03179
8.04375
9.12019
10.2496
11.3812
12.6249
14.0182
15.5558
17.1857
18.8551
20.5151
22.1121
23.5934
24.9154
26.0446
26.9585
27.6495
28.1261
28.4012
28.4995
28.4493
28.2796
28.0211
27.6988
27.3368
26.9505
26.5531
26.1531
25.7589
25.3784
25.015
24.6784
24.3721
24.0966
23.8556
23.6507
23.4797
23.343
23.2379
23.1645
23.1199
23.0998
23.1043
23.129
23.1683
23.2143
23.2624
23.3084
23.3474
23.3798
23.4005
23.41
23.4118
23.404
23.3904
23.3721
23.3558
23.3381
23.3196
23.3013
23.2832
23.2618
23.2431
23.2201
23.1952
23.1732
23.1495
23.1239
23.0965
23.0698
23.0412
23.0131
22.984
22.9579
22.9322
22.9059
22.8804
22.8575
22.8325
22.8075
22.7811
22.7531
22.722
22.6892
22.6509
22.6132
22.5711
22.5245
22.4726
22.4197
22.3556
22.3148
22.273
22.4247
22.359
20.1487
20.101
22.2925
22.3616
22.2103
22.2536
22.2962
22.3621
22.417
22.471
22.5197
22.5639
22.6036
22.6438
22.6786
22.7115
22.7413
22.7694
22.7962
22.8228
22.8473
22.8743
22.9021
22.9293
22.9568
22.9873
23.0166
23.0465
23.0744
23.103
23.1298
23.1545
23.1777
23.2036
23.2272
23.2464
23.2683
23.2857
23.3046
23.3249
23.3421
23.3588
23.3784
23.3924
23.4007
23.3996
23.3909
23.3705
23.338
23.2976
23.2526
23.2054
23.1585
23.1223
23.0968
23.0902
23.1103
23.1566
23.2317
23.3386
23.4738
23.6394
23.8396
24.0825
24.3732
24.7056
25.0668
25.4504
25.8371
26.2152
26.586
26.9425
27.2867
27.6132
27.9114
28.1638
28.3429
28.4179
28.3537
28.1134
27.6639
26.9852
26.0704
24.9284
23.5845
22.0787
20.4642
18.796
17.1252
15.5071
13.9905
12.6135
11.374
10.2425
9.10936
8.0312
7.02177
6.10641
5.33374
4.82729
)
;
    }
    BaseAndTop
    {
        type            empty;
    }
}


// ************************************************************************* //
