/*--------------------------------*- C++ -*----------------------------------*\
| =========                 |                                                 |
| \\      /  F ield         | OpenFOAM: The Open Source CFD Toolbox           |
|  \\    /   O peration     | Version:  v2012                                 |
|   \\  /    A nd           | Website:  www.openfoam.com                      |
|    \\/     M anipulation  |                                                 |
\*---------------------------------------------------------------------------*/
FoamFile
{
    version     2.0;
    format      ascii;
    class       volScalarField;
    location    "400";
    object      omega;
}
// * * * * * * * * * * * * * * * * * * * * * * * * * * * * * * * * * * * * * //

dimensions      [0 0 -1 0 0 0 0];


internalField   nonuniform List<scalar> 
12639
(
0.30208
0.301477
0.326795
0.312008
0.300155
0.345672
0.332406
0.313684
0.311306
0.37263
0.350234
0.326001
0.315534
0.31427
0.347732
0.37588
0.345451
0.387713
0.329891
0.325599
0.32474
0.339732
0.357678
0.370762
0.400411
0.341156
0.334642
0.333445
0.330454
0.298026
0.359702
0.408811
0.36738
0.386915
0.344392
0.345919
0.34377
0.341206
0.324579
0.304169
0.334452
0.427369
0.389818
0.383421
0.347524
0.35301
0.355862
0.353838
0.348909
0.340388
0.313585
0.303807
0.348273
0.437039
0.398302
0.365567
0.44125
0.357764
0.357368
0.36694
0.362531
0.359438
0.347371
0.34207
0.309499
0.297387
0.311313
0.342482
0.435857
0.377363
0.382989
0.460285
0.368612
0.369574
0.375704
0.372525
0.367687
0.357629
0.35641
0.320725
0.316587
0.326509
0.318059
0.384023
0.441828
0.411844
0.522329
0.381406
0.377057
0.385521
0.379946
0.367987
0.380549
0.367358
0.340779
0.323555
0.334993
0.330984
0.3337
0.360091
0.4331
0.511627
0.387013
0.390957
0.383329
0.39024
0.380914
0.394824
0.381744
0.349108
0.32744
0.336515
0.35305
0.350051
0.395647
0.381746
0.50793
0.54713
0.399124
0.404145
0.398571
0.4
0.39342
0.408227
0.395841
0.352635
0.336846
0.325203
0.347204
0.36335
0.369194
0.378594
0.409208
0.517845
0.554368
0.409527
0.415266
0.405117
0.411274
0.405522
0.412353
0.423018
0.410292
0.362367
0.34536
0.340008
0.353172
0.365632
0.379942
0.417455
0.385729
0.454852
0.394034
0.614224
0.416729
0.419781
0.430619
0.420664
0.427804
0.421061
0.431331
0.436373
0.426394
0.369828
0.345231
0.343892
0.363765
0.377583
0.385299
0.387336
0.411755
0.399228
0.490239
0.40532
0.621141
0.432115
0.431504
0.444939
0.428936
0.443293
0.435382
0.443313
0.451509
0.433666
0.43748
0.372733
0.380477
0.355294
0.356546
0.364457
0.396925
0.401903
0.439829
0.403763
0.371829
0.674208
0.431263
0.561974
0.43405
0.443251
0.441174
0.458367
0.436777
0.462684
0.452968
0.461808
0.461777
0.456726
0.455492
0.384479
0.391898
0.365211
0.376429
0.406622
0.412046
0.393315
0.408355
0.412102
0.413598
0.675051
0.433822
0.609397
0.448515
0.455364
0.450742
0.44398
0.469298
0.46575
0.441023
0.484882
0.467788
0.4792
0.486996
0.474607
0.39171
0.403824
0.375814
0.36705
0.388797
0.422022
0.410506
0.423841
0.417006
0.423008
0.42316
0.394385
0.478042
0.871896
0.433376
0.419455
0.455398
0.468707
0.459814
0.454611
0.483805
0.484547
0.450055
0.508675
0.488161
0.499402
0.503373
0.496352
0.408896
0.414933
0.387899
0.384942
0.402174
0.435329
0.429782
0.43517
0.433363
0.42864
0.430777
0.404889
0.524087
0.850803
0.437863
0.53541
0.466098
0.479849
0.469847
0.462063
0.456754
0.496659
0.500154
0.452815
0.514163
0.531779
0.526445
0.532589
0.521698
0.420377
0.43068
0.399983
0.394712
0.416261
0.441722
0.448856
0.445217
0.437939
0.434449
0.439111
0.418813
0.655736
0.960456
0.385743
0.474303
0.496334
0.480806
0.471488
0.465905
0.512914
0.515707
0.459315
0.538182
0.562042
0.555392
0.529927
0.557546
0.562821
0.43948
0.447426
0.412271
0.411802
0.427815
0.459662
0.461997
0.450652
0.45155
0.436115
0.441696
0.449077
0.424186
0.709362
0.958702
0.502721
0.486464
0.506715
0.488091
0.479738
0.469937
0.528164
0.539541
0.459711
0.465092
0.558642
0.601255
0.593713
0.567844
0.597232
0.600878
0.451593
0.444131
0.465346
0.427384
0.42686
0.46918
0.470846
0.47439
0.463209
0.461485
0.448066
0.450062
0.456034
0.41774
0.659847
0.964966
0.425186
0.499175
0.520569
0.498679
0.485441
0.484652
0.48011
0.466293
0.543752
0.561526
0.451786
0.47191
0.582535
0.635827
0.628092
0.59803
0.63064
0.67023
0.472781
0.463922
0.483836
0.442142
0.442731
0.485228
0.49327
0.477556
0.488655
0.471847
0.468425
0.450879
0.447871
0.45906
0.4637
0.492086
0.887718
1.06095
0.535573
0.509695
0.526812
0.507637
0.501223
0.495199
0.493588
0.484348
0.475119
0.557718
0.549904
0.573389
0.47774
0.401395
0.612543
0.68204
0.62723
0.677413
0.64403
0.681873
0.706892
0.49244
0.483113
0.457527
0.502872
0.457676
0.500143
0.506926
0.490479
0.50339
0.478919
0.478779
0.458621
0.457031
0.467438
0.470542
0.789071
1.03962
0.461148
0.512206
0.538891
0.518582
0.50931
0.498265
0.4973
0.492592
0.481262
0.575462
0.56305
0.602032
0.470409
0.479876
0.63641
0.697717
0.710456
0.677959
0.725659
0.702944
0.812095
0.521974
0.498606
0.467175
0.521959
0.480604
0.518744
0.530493
0.488797
0.500829
0.519732
0.505678
0.486217
0.465192
0.46062
0.472613
0.477895
0.905611
1.1648
0.598672
0.530153
0.540719
0.515328
0.528745
0.511898
0.506823
0.50502
0.496148
0.486331
0.576878
0.592597
0.557831
0.62886
0.603971
0.412134
0.488597
0.781961
0.678588
0.749239
0.762729
0.700204
0.788821
0.834834
0.538304
0.530149
0.4866
0.521987
0.543592
0.514181
0.535189
0.542217
0.496853
0.51097
0.535527
0.522967
0.484025
0.495556
0.473748
0.467436
0.463971
0.48074
1.14038
0.56369
0.535569
0.523397
0.534587
0.51929
0.509024
0.508302
0.492876
0.504718
0.487907
0.590605
0.607718
0.568068
0.656408
0.634698
0.436928
0.487581
0.953849
0.708621
0.79844
0.800509
0.756507
0.862835
0.814175
0.927815
0.577188
0.559802
0.498413
0.549326
0.572123
0.577316
0.553958
0.566181
0.506748
0.523149
0.532672
0.555177
0.529846
0.493809
0.50242
0.483089
0.476471
0.453006
0.487368
1.32814
0.992558
0.291063
0.547718
0.531146
0.544285
0.536903
0.52261
0.516464
0.516355
0.497874
0.509179
0.495226
0.587544
0.625031
0.562207
0.691106
0.649857
0.44117
0.469577
0.496919
0.874796
0.759076
0.88144
0.876122
0.789496
0.988834
0.997623
0.92413
0.599887
0.580519
0.577073
0.541944
0.58922
0.602543
0.574174
0.513635
0.530882
0.551422
0.569264
0.545535
0.495337
0.511052
0.48756
0.486301
0.482429
0.527886
1.33594
0.978397
0.364311
0.53461
0.552321
0.546318
0.530113
0.522305
0.503291
0.515926
0.508036
0.601183
0.621838
0.647104
0.575666
0.717604
0.683705
0.550939
0.473038
0.501034
1.49914
0.793291
1.00458
0.912352
0.922604
0.860475
1.20267
1.26099
0.646683
0.615413
0.619166
0.620557
0.676428
0.597302
0.523678
0.543934
0.556457
0.587556
0.551984
0.502157
0.517742
0.495603
0.492741
0.488809
0.503702
0.335434
1.54055
0.543384
0.561778
0.549819
0.533627
0.529387
0.521439
0.503328
0.517541
0.512766
0.595254
0.63737
0.669155
0.571251
0.767379
0.698255
0.707842
0.478966
0.505287
1.49147
0.856422
1.23389
1.02816
1.02323
0.899867
1.51837
0.649166
0.676469
0.634816
0.696203
0.624803
0.653605
0.729612
0.60008
0.528217
0.550058
0.576683
0.596327
0.56715
0.508761
0.519073
0.49763
0.494333
0.496462
0.492337
0.504386
0.418537
1.5232
0.545584
0.566229
0.559299
0.540789
0.534068
0.528156
0.508381
0.522416
0.51305
0.608568
0.661652
0.627511
0.583827
0.801246
0.725583
1.43869
0.778829
0.445906
0.518591
0.506365
0.897918
1.17695
2.02738
1.07899
1.08146
0.992956
0.701459
0.727595
0.707047
0.778553
0.655248
0.6957
0.860165
0.624857
0.536934
0.545859
0.562079
0.580668
0.619791
0.571182
0.515308
0.509408
0.529052
0.504744
0.500264
0.501791
0.498978
0.508034
0.461214
1.34307
1.80122
0.552159
0.576397
0.562314
0.541981
0.534207
0.528925
0.52095
0.526884
0.517245
0.6044
0.677778
0.638601
0.594294
0.583508
0.867564
0.788975
0.758645
0.726774
0.474679
1.64614
0.463969
0.515608
0.512578
0.982624
1.53293
4.76529
1.24678
1.2209
1.04184
0.751732
0.765197
0.766324
0.749764
0.941658
0.694416
0.652289
0.9232
0.536162
0.554132
0.565189
0.599959
0.636704
0.584457
0.521447
0.516004
0.529073
0.506747
0.503911
0.501438
0.502187
0.508087
0.348062
1.58299
0.558446
0.547807
0.579899
0.571931
0.540667
0.534467
0.525044
0.530409
0.518547
0.622036
0.701116
0.656694
0.601317
0.594134
0.90906
0.853932
0.78882
0.754621
0.678068
1.81739
0.516586
0.462065
0.516657
1.03436
1.511
2.45924
1.31265
1.30103
1.17038
0.853967
0.894154
0.842042
0.805936
1.01562
0.73406
0.68162
0.543845
0.551576
0.57476
0.597414
0.621907
0.664977
0.585133
0.520702
0.517977
0.535225
0.511959
0.508658
0.506595
0.50721
0.497127
0.483986
2.51553
0.562816
0.551557
0.590069
0.571276
0.546569
0.538082
0.534947
0.529523
0.523583
0.519629
0.624761
0.701193
0.660695
0.613562
0.598624
0.982814
0.880497
0.821793
0.748131
1.16452
0.518303
0.493998
1.15381
2.05032
5.86256
1.61855
1.49932
1.24334
1.03167
0.893444
0.874543
0.813113
1.1876
0.789831
0.720118
0.680795
0.54317
0.558382
0.576196
0.611736
0.641189
0.67871
0.595665
0.526951
0.517041
0.523999
0.53229
0.511206
0.511038
0.507443
0.508424
0.498486
0.611622
2.36736
0.559225
0.550574
0.593633
0.577029
0.549901
0.541685
0.538625
0.533369
0.526355
0.524171
0.642512
0.725225
0.681803
0.618156
0.610105
1.02889
0.867604
0.95405
0.804844
0.773249
1.58597
0.523418
0.529892
0.471918
1.232
2.13635
3.44043
1.72689
1.59124
1.45147
1.10058
1.25411
0.963232
1.02005
0.909881
0.835614
0.756575
0.714115
0.549415
0.564752
0.572071
0.587172
0.605152
0.627019
0.665873
0.639957
0.711218
0.59585
0.527683
0.52109
0.525572
0.537734
0.515948
0.514761
0.510723
0.512543
0.51364
0.897787
2.57965
0.563228
0.557844
0.590834
0.605275
0.584234
0.570072
0.555393
0.546325
0.540819
0.537235
0.532046
0.529926
0.52624
0.643988
0.728456
0.688456
0.631343
0.614406
1.13908
0.909577
0.976289
0.830509
0.75642
1.65089
0.523258
0.526637
0.528795
0.513644
1.39027
3.84836
6.82773
2.2199
1.95674
1.61697
1.59275
1.47489
1.08666
1.16286
0.970144
0.805856
0.912089
0.745573
0.549455
0.563255
0.577469
0.585672
0.613738
0.635185
0.68396
0.661803
0.732778
0.605796
0.533433
0.521778
0.529871
0.543914
0.519623
0.517888
0.51297
0.515525
0.527932
0.741611
2.96952
0.559541
0.598058
0.606261
0.584384
0.57247
0.557279
0.548288
0.545388
0.539599
0.538746
0.535462
0.5315
0.530434
0.660005
0.714276
0.677296
0.633437
0.625593
1.20635
0.878939
1.03996
0.803736
0.771008
1.17081
0.527531
0.527161
0.562938
1.57598
1.43858
6.66758
3.9768
2.23909
1.95487
2.09442
1.19402
1.50302
1.0926
0.842761
0.959826
0.780761
0.557698
0.571021
0.592062
0.625483
0.65198
0.710759
0.680129
0.664256
0.773504
0.609292
0.535022
0.527534
0.546764
0.522508
0.518659
0.517593
0.513161
0.517445
0.576796
1.16081
2.82155
0.565728
0.592439
0.61438
0.579851
0.571298
0.563747
0.556928
0.552847
0.546522
0.543268
0.542724
0.538563
0.535023
0.533288
0.655769
0.727276
0.691508
0.645235
0.63076
1.36314
1.18133
0.909511
1.12437
1.0258
0.816693
0.755806
1.97483
0.530262
0.526513
0.697912
1.85067
1.69367
7.08006
2.91603
2.30314
4.94297
1.19196
1.39575
2.51094
1.16557
0.898739
0.821642
1.0501
0.559234
0.572536
0.588158
0.601181
0.631179
0.658792
0.727477
0.701383
0.685346
0.802617
0.61986
0.540303
0.530405
0.553622
0.544695
0.526569
0.522864
0.520595
0.521487
0.520759
0.642099
0.962574
3.36964
0.595087
0.60987
0.626536
0.582243
0.576649
0.567262
0.561448
0.552503
0.549742
0.545736
0.542124
0.537533
0.533794
0.536839
0.667131
0.715068
0.682474
0.644307
1.46827
1.33135
0.966598
0.857044
1.19357
1.09853
0.775919
1.56993
0.532022
0.569333
2.3739
1.85427
4.76975
2.90844
1.40253
1.60481
5.71098
1.12609
1.34286
0.920115
0.859863
1.0917
0.566262
0.579935
0.595392
0.603474
0.645152
0.676476
0.755096
0.703009
0.691674
0.790114
0.852233
0.613662
0.541452
0.535217
0.554697
0.549646
0.527837
0.525827
0.523041
0.522222
0.528312
0.565517
1.3444
3.33272
0.588561
0.602551
0.617441
0.634976
0.578245
0.5717
0.5653
0.559868
0.556255
0.550968
0.545503
0.549571
0.540964
0.53556
0.539208
0.654672
0.73208
0.693407
1.66565
1.39037
0.977339
0.868974
1.29158
1.06542
0.77744
2.18908
0.526815
0.549846
0.658453
3.13191
2.13816
8.03487
4.48908
1.51353
2.08097
3.34668
1.27566
1.45225
0.989086
1.20349
0.567899
0.57682
0.597606
0.648725
0.681022
0.756382
0.728091
0.712949
0.831188
0.88691
0.618701
0.53903
0.546125
0.535157
0.559686
0.550266
0.531924
0.528343
0.526879
0.524367
0.538555
0.635429
0.687776
3.52095
0.589509
0.603411
0.6121
0.62609
0.645647
0.584443
0.575451
0.57179
0.567808
0.562862
0.555088
0.548438
0.552371
0.543088
0.539428
0.541815
0.658534
0.712206
0.756747
0.685091
1.81317
1.5609
0.938269
0.849161
1.33715
1.12772
0.812378
0.855722
4.71462
0.53474
0.557655
0.596126
3.20651
5.20228
2.64294
2.13478
1.88367
2.30474
6.85094
1.3251
1.72831
0.988795
1.2494
0.564563
0.581425
0.606892
0.58917
0.641124
0.665974
0.700915
0.786124
0.727084
0.723627
0.827924
0.937955
0.628112
0.542288
0.538579
0.56071
0.555182
0.532033
0.529251
0.528718
0.513652
0.531165
0.601788
1.44042
0.595461
0.601557
0.614773
0.630345
0.643595
0.583636
0.578712
0.575248
0.566792
0.563148
0.557579
0.548104
0.551439
0.555788
0.545829
0.541662
0.543188
0.671728
0.709142
0.767248
0.693123
1.81411
1.52243
0.982285
0.883101
1.20971
1.15532
0.797362
1.5864
4.65674
0.537811
0.550251
5.33273
8.04799
3.31723
2.59094
2.12083
4.00495
1.49406
1.90445
1.06257
1.1495
1.42019
0.569459
0.579218
0.60407
0.590426
0.648809
0.664818
0.697752
0.779591
0.752066
0.746528
0.870553
0.964371
0.62087
0.544752
0.537803
0.541765
0.565364
0.553526
0.535119
0.533049
0.532436
0.523832
0.532588
0.600817
1.69202
0.592919
0.60721
0.62217
0.629789
0.654137
0.587817
0.579482
0.573967
0.569927
0.566789
0.560965
0.557492
0.550391
0.553681
0.55724
0.545478
0.543365
0.543245
0.666303
0.723704
0.74567
0.679216
2.16159
1.68017
1.0493
0.926678
0.849166
1.26225
1.12586
0.815356
0.156868
4.61334
4.19839
0.535801
0.656278
8.03529
5.29967
2.80804
2.86007
6.84188
1.73934
1.486
2.50327
1.04847
1.21273
1.54422
0.575054
0.585678
0.612646
0.59784
0.639864
0.677671
0.714969
0.813053
0.762916
0.849445
0.935607
0.629392
0.549256
0.540678
0.543283
0.567135
0.557398
0.535928
0.533807
0.535265
0.534023
0.524931
0.534293
0.630939
0.0542561
0.597431
0.604176
0.624255
0.640425
0.656378
0.588271
0.583929
0.577207
0.56931
0.567476
0.562688
0.560657
0.552457
0.550959
0.556224
0.559991
0.547205
0.545625
0.546507
0.714742
0.750841
0.681789
2.19066
1.93457
1.66594
1.0359
0.923209
0.84884
1.35527
1.20633
0.7963
0.775193
4.93497
4.19154
0.553774
0.523801
0.665065
7.90916
3.72282
3.0882
4.5433
1.99528
1.73113
3.07942
1.10916
1.32962
1.49779
1.81449
0.577693
0.588343
0.614395
0.600643
0.647478
0.676733
0.697539
0.737572
0.825908
0.789439
0.896858
0.991648
0.630316
0.549316
0.541216
0.546348
0.563511
0.573016
0.555571
0.560406
0.53932
0.53694
0.537928
0.537059
0.537847
0.537393
0.640231
0.201779
0.596557
0.608806
0.62061
0.633689
0.649832
0.66979
0.592369
0.58373
0.581117
0.575754
0.572464
0.57061
0.565659
0.561899
0.554041
0.552994
0.54939
0.557512
0.559851
0.546629
0.697829
0.728681
0.772273
2.85037
2.12901
1.51076
1.91904
1.11628
0.979387
0.884371
0.814633
1.31288
0.2478
2.60378
7.61449
1.22356
0.551766
0.553171
0.661793
5.67688
3.74097
5.11223
7.90492
2.53903
5.05347
1.09452
1.33823
1.72333
2.12911
0.583123
0.594094
0.62186
0.606825
0.638498
0.656659
0.667859
0.702725
0.748629
0.859545
0.778909
0.954132
0.907711
0.552608
0.544313
0.546688
0.566127
0.573098
0.557856
0.560662
0.54027
0.538289
0.538631
0.538851
0.540519
0.543169
0.612317
0.0573032
0.600688
0.605191
0.61481
0.625872
0.634309
0.656149
0.668654
0.591961
0.588281
0.582705
0.5782
0.5721
0.567068
0.564858
0.55606
0.553952
0.550202
0.557695
0.561598
0.549502
0.694176
0.729318
0.76899
3.09074
2.49179
1.59801
2.08426
1.13822
0.992691
0.899882
0.814006
1.42469
0.0918119
3.04037
7.14714
1.97478
0.554859
0.563039
0.65384
8.68847
5.81017
7.78702
3.16837
7.79386
1.18693
1.47843
2.06811
1.70981
2.76071
0.582797
0.592004
0.62107
0.602985
0.637636
0.655634
0.677202
0.718053
0.688613
0.757261
0.831871
0.804491
1.01366
0.947496
0.552198
0.545057
0.549741
0.56971
0.563417
0.577825
0.558159
0.542858
0.541063
0.541332
0.542127
0.544149
0.550851
0.615124
0.088045
0.595905
0.607711
0.614003
0.625551
0.642083
0.650584
0.678969
0.587064
0.583633
0.581449
0.577441
0.575193
0.569899
0.56497
0.556024
0.55401
0.552838
0.559793
0.563494
0.551542
0.70755
0.72367
0.752243
0.790789
4.06292
2.50768
1.80942
2.08478
1.24443
1.05569
0.946201
0.873885
0.844317
1.46611
0.0471691
5.17001
8.98705
3.80985
0.56272
0.552857
0.57198
0.62503
8.2079
5.21164
1.1686
1.43296
2.56773
1.911
3.61149
0.5874
0.596829
0.613924
0.629053
0.60709
0.645848
0.664578
0.702946
0.736684
0.688467
0.785441
0.860758
0.813625
1.08692
1.00267
0.904179
0.55528
0.547978
0.550418
0.570752
0.564152
0.577331
0.561247
0.543558
0.543287
0.541835
0.542911
0.543807
0.544875
0.553773
0.561258
0.652827
0.2408
0.596947
0.605595
0.618803
0.632177
0.644391
0.65829
0.675083
0.589954
0.5875
0.582185
0.579661
0.57508
0.570423
0.56742
0.557544
0.556129
0.554171
0.56015
0.564342
0.554128
0.697829
0.738863
0.75707
0.795499
4.10347
6.00079
3.08872
1.83607
2.48332
1.19884
1.38112
1.03923
0.936602
0.889939
0.818389
1.68775
0.316121
4.44386
9.40882
3.84034
0.565724
0.558788
0.585529
0.667855
8.06596
1.30907
1.64666
2.78998
3.21485
2.26663
5.71807
0.588162
0.593671
0.614324
0.62771
0.601807
0.642017
0.663731
0.708551
0.742408
0.676404
0.771776
0.844103
1.12657
1.04732
0.931916
0.555568
0.548157
0.553251
0.567492
0.574078
0.580905
0.561986
0.546305
0.546023
0.544223
0.544918
0.547467
0.549203
0.553661
0.584134
0.594531
0.255656
0.596886
0.602312
0.610796
0.618722
0.629327
0.638445
0.65274
0.667968
0.686575
0.59352
0.586972
0.584533
0.579304
0.57725
0.573056
0.569257
0.566489
0.559202
0.556913
0.556849
0.562287
0.563787
0.557222
0.703304
0.731633
0.77514
6.11011
8.94596
3.07854
2.13616
2.48873
1.28528
1.10081
1.50577
0.974588
0.868378
0.808556
1.82083
0.609995
9.7702
7.69186
0.572294
0.560635
0.593
0.738042
0.622664
1.37508
1.75677
3.58023
4.8926
2.41068
8.57905
0.584965
0.596082
0.609047
0.621025
0.634508
0.603169
0.648575
0.657143
0.696231
0.726995
0.743384
0.674165
0.789185
0.869947
1.22415
0.995435
0.920803
0.558491
0.550795
0.554236
0.567651
0.57442
0.578065
0.560637
0.565644
0.54675
0.545945
0.548678
0.549889
0.55041
0.558656
0.613475
0.565229
0.611658
0.654462
0.600993
0.604268
0.607913
0.615135
0.624449
0.632606
0.638661
0.656922
0.673879
0.683197
0.592214
0.589324
0.584681
0.581506
0.577576
0.572699
0.570546
0.567479
0.560315
0.559399
0.55731
0.559861
0.562158
0.565323
0.561091
0.715767
0.690593
0.743514
0.763055
8.35767
4.01969
2.19147
2.97321
1.43512
1.2295
1.05035
1.71358
0.9436
0.830938
0.893098
0.777671
2.09924
0.695642
9.56692
7.68223
0.571587
0.583089
0.567016
0.614922
0.65568
1.53298
1.72298
2.12469
3.1975
5.40357
0.587123
0.592142
0.609969
0.621069
0.634441
0.59947
0.641578
0.662201
0.700052
0.683546
0.72751
0.765877
0.816453
0.846005
1.21428
1.02673
0.960704
0.558994
0.55302
0.55065
0.557289
0.571459
0.579852
0.562842
0.567311
0.548774
0.548479
0.550869
0.553909
0.556336
0.559603
0.62214
0.57258
0.61231
1.23135
0.601095
0.608615
0.616789
0.621397
0.633202
0.643979
0.66575
0.650135
0.594519
0.587403
0.583563
0.579701
0.576064
0.574201
0.569535
0.566959
0.560394
0.561503
0.560305
0.562667
0.563542
0.565071
0.567612
0.711903
0.680529
0.727452
6.09655
3.62359
2.62789
3.04545
1.57161
1.32375
1.11015
0.976196
1.88234
0.809468
0.864704
0.766365
2.37394
3.99237
0.0113987
9.97765
6.63001
0.579968
0.592703
0.568552
0.758134
0.631129
1.55064
1.94671
2.40057
4.07708
8.35514
0.584103
0.594184
0.606217
0.615715
0.627786
0.601305
0.645041
0.656051
0.688391
0.713021
0.679509
0.74437
0.762824
0.825817
0.880992
1.10191
1.33899
0.931965
0.561343
0.554729
0.552715
0.558213
0.572091
0.57957
0.56508
0.570006
0.549211
0.550356
0.553213
0.556625
0.558563
0.60368
0.683299
0.580276
0.52703
0.650414
0.604643
0.597737
0.612412
0.623683
0.62821
0.63784
0.661958
0.65144
0.591786
0.587496
0.584854
0.579806
0.576258
0.573396
0.570533
0.568118
0.562869
0.563904
0.566934
0.563911
0.566358
0.571811
0.698942
0.668172
0.684652
0.729669
8.85209
4.56419
2.78968
3.80248
1.80838
1.48644
2.21014
0.783526
0.74681
5.61915
1.06201
15.3189
8.68296
0.581599
0.608793
0.571441
0.74743
0.659097
1.483
1.7999
2.24917
2.97671
3.97042
6.06969
0.585645
0.592563
0.607406
0.616184
0.627586
0.599902
0.641661
0.660963
0.688732
0.714128
0.670725
0.562202
0.554671
0.557108
0.552722
0.560727
0.57488
0.57713
0.582653
0.56499
0.570863
0.551614
0.552782
0.555479
0.554633
0.561314
0.564638
0.629512
0.660964
0.582191
0.61205
2.237
0.603069
0.59687
0.610714
0.61811
0.623782
0.63246
0.646443
0.591919
0.589245
0.583653
0.581481
0.577715
0.574452
0.572014
0.569501
0.567267
0.564354
0.564172
0.568317
0.569944
0.57204
0.566511
0.567305
0.574535
0.700309
0.659854
0.674698
6.56963
3.40763
4.58949
2.08804
1.63505
2.49189
9.35995
0.956156
14.7282
0.590132
0.617699
0.903303
0.688011
0.647434
1.97467
2.52841
3.09535
6.00733
8.90198
0.588977
0.595935
0.611871
0.603002
0.621934
0.634329
0.648106
0.65603
0.677284
0.669352
0.562028
0.556527
0.558549
0.555053
0.561771
0.573486
0.577524
0.582576
0.566998
0.569501
0.553294
0.560159
0.557439
0.56473
0.563918
0.574223
0.624804
0.669198
0.603671
0.910163
2.81938
0.599214
0.605831
0.594095
0.613733
0.617865
0.626125
0.63481
0.640151
0.651686
0.589714
0.587056
0.584824
0.580287
0.57738
0.573815
0.571271
0.569868
0.568154
0.566956
0.56781
0.570852
0.578667
0.579298
0.568304
0.567682
0.568799
0.584985
0.663127
9.06005
3.05058
4.38594
6.71614
2.50238
2.16089
1.87679
10.2655
1.55202
17.4468
0.60239
0.589736
0.615433
0.904157
0.712145
0.672087
2.35017
3.90067
8.33472
0.588261
0.594676
0.613852
0.602052
0.622416
0.632425
0.64306
0.660008
0.564582
0.557693
0.558029
0.560511
0.555171
0.556919
0.563974
0.56139
0.574835
0.579935
0.585383
0.566536
0.5712
0.561288
0.558599
0.57304
0.57012
0.582304
0.659991
0.684742
0.617966
0.854319
5.49925
0.596848
0.603879
0.592322
0.610486
0.616767
0.625259
0.629122
0.639951
0.64519
0.589764
0.587537
0.583125
0.578855
0.581393
0.576437
0.575131
0.572311
0.569468
0.569128
0.569677
0.574609
0.584452
0.585184
0.571278
0.570032
0.570225
0.5902
0.656196
3.66788
6.12297
9.19968
3.09936
2.65494
19.3358
5.98427
0.80709
0.614164
0.608721
0.638585
0.910834
0.755178
0.667885
2.70448
5.96866
3.35769
0.591154
0.597666
0.610595
0.619239
0.605829
0.627799
0.636856
0.646867
0.559512
0.559465
0.561756
0.5568
0.558517
0.565212
0.563356
0.575246
0.580207
0.585491
0.568354
0.573655
0.570289
0.56563
0.561642
0.576888
0.574166
0.595627
0.660448
0.728928
0.613829
1.19551
3.05281
0.598088
0.593634
0.600622
0.606518
0.612249
0.620501
0.629215
0.63458
0.641421
0.588128
0.585641
0.583723
0.578389
0.580593
0.577063
0.57503
0.572686
0.570944
0.573793
0.574729
0.581387
0.584339
0.59433
0.595065
0.572397
0.575313
0.571458
0.571226
0.602547
5.38461
3.85591
3.28357
19.8559
9.60097
1.28762
0.636821
0.620305
0.96574
0.747981
0.700066
8.66983
4.10374
0.59061
0.596708
0.612821
0.621877
0.603588
0.62642
0.630471
0.560987
0.56114
0.563333
0.56123
0.564765
0.567045
0.578022
0.582895
0.58813
0.568307
0.574496
0.571581
0.57082
0.566697
0.564806
0.562464
0.588426
0.584627
0.601372
0.688183
0.77157
0.638168
0.900791
5.47168
0.595985
0.592401
0.599304
0.60432
0.610112
0.61706
0.623014
0.634448
0.588784
0.586028
0.582824
0.579406
0.581516
0.577505
0.574251
0.576513
0.572682
0.572349
0.577193
0.590752
0.595224
0.599241
0.602144
0.607233
0.575299
0.580873
0.574407
0.573841
0.617126
8.52884
5.97384
15.8271
21.5991
2.90396
0.852401
0.654902
0.648824
0.953295
0.808118
0.694661
6.118
0.593503
0.599754
0.609419
0.6176
0.605532
0.628537
0.56267
0.562381
0.564843
0.56311
0.56585
0.567359
0.577963
0.582377
0.588995
0.570093
0.576583
0.573401
0.576911
0.574391
0.568347
0.566538
0.594075
0.591651
0.621536
0.675568
0.736044
0.638738
0.952707
0.530046
0.596571
0.593828
0.590367
0.600963
0.606187
0.61249
0.618434
0.621918
0.587268
0.585132
0.583713
0.579686
0.581505
0.577473
0.579073
0.575317
0.57735
0.574402
0.573823
0.583704
0.591966
0.600156
0.614839
0.618268
0.621391
0.580603
0.582967
0.586599
0.576114
0.575045
0.63787
8.57701
16.3514
22.4687
6.46181
0.97255
0.666484
1.0206
0.820826
0.724419
0.592023
0.59719
0.608152
0.616758
0.60337
0.565986
0.564353
0.565424
0.566433
0.566143
0.568982
0.580205
0.584463
0.587042
0.570593
0.577274
0.57458
0.586744
0.57789
0.57365
0.569482
0.612137
0.604267
0.629128
0.701508
0.797507
0.670322
0.9561
4.61201
0.595084
0.592181
0.589417
0.599381
0.604245
0.611968
0.614776
0.587108
0.585982
0.583496
0.580833
0.582574
0.578698
0.579666
0.576905
0.579153
0.575484
0.588215
0.600585
0.613172
0.627584
0.625543
0.62971
0.630629
0.638612
0.586168
0.592838
0.59375
0.579527
0.579101
0.657087
24.5825
19.5124
0.971553
0.949134
0.694052
0.991625
0.76914
0.71912
0.593881
0.597907
0.604788
0.61147
0.600656
0.566427
0.568368
0.568014
0.568299
0.568896
0.568764
0.569385
0.570324
0.579418
0.583538
0.587626
0.572778
0.576699
0.574487
0.596953
0.58665
0.57795
0.575483
0.618292
0.615358
0.658942
0.745949
0.787782
0.685448
0.94889
4.41739
0.596434
0.592786
0.590399
0.588117
0.601023
0.606017
0.608775
0.61048
0.586286
0.585265
0.584295
0.581607
0.582548
0.580037
0.581053
0.578899
0.581478
0.578003
0.598021
0.614477
0.628687
0.622657
0.648826
0.645118
0.650037
0.652713
0.659602
0.593518
0.585293
0.597501
0.601766
0.581348
0.581078
0.682967
23.7935
22.5319
4.48887
0.957334
0.710717
1.04932
0.808209
0.777046
0.591484
0.594896
0.602182
0.599431
0.568748
0.571907
0.569417
0.569083
0.569115
0.573938
0.574118
0.570949
0.571951
0.580594
0.58223
0.584775
0.586172
0.589609
0.573762
0.572937
0.578035
0.576255
0.612725
0.597075
0.591047
0.585013
0.580189
0.636306
0.634709
0.671053
0.762562
0.889745
0.732991
0.303455
1.22187
11.8031
0.595409
0.59121
0.589062
0.587105
0.599421
0.60274
0.607326
0.58553
0.586248
0.583806
0.582682
0.581878
0.58358
0.582851
0.583184
0.581558
0.580062
0.584626
0.604872
0.629062
0.623057
0.649524
0.648533
0.669315
0.662167
0.67067
0.658597
0.671829
0.68563
0.601695
0.590679
0.608167
0.614351
0.587524
0.585818
32.607
16.1072
1.08911
0.949581
0.746335
0.853935
1.34871
0.788475
0.59143
0.592997
0.594531
0.603694
0.59723
0.57025
0.57247
0.576871
0.571889
0.572048
0.571355
0.578716
0.577812
0.571897
0.571965
0.57955
0.582241
0.583478
0.586398
0.587986
0.574654
0.573944
0.577378
0.575687
0.628817
0.61445
0.602128
0.591913
0.589773
0.65235
0.649489
0.705132
0.812917
0.903999
0.755654
1.5195
1.36623
12.687
0.593362
0.597095
0.59169
0.589469
0.587695
0.600548
0.601312
0.584925
0.585518
0.583894
0.584457
0.583919
0.583868
0.584645
0.584062
0.584897
0.584978
0.584717
0.584246
0.588916
0.62315
0.652117
0.652152
0.671822
0.663018
0.688808
0.68444
0.690536
0.684065
0.695363
0.712876
0.614481
0.603287
0.597859
0.617048
0.618484
0.620369
0.630218
0.592616
0.587323
0.592981
32.4248
22.1209
3.89706
0.658105
0.769192
0.927273
1.28764
0.834677
0.589582
0.590816
0.592722
0.598121
0.572989
0.577432
0.581797
0.573443
0.573829
0.58643
0.583973
0.572989
0.57336
0.579929
0.581111
0.583625
0.585116
0.588038
0.574621
0.57802
0.576367
0.64784
0.631274
0.617746
0.605845
0.594381
0.676122
0.672373
0.708645
0.741224
0.853366
1.02563
0.809144
2.92118
1.30978
25.0672
0.592941
0.595775
0.590249
0.588552
0.586919
0.597899
0.584784
0.585571
0.584648
0.585035
0.58631
0.585945
0.585867
0.587544
0.58764
0.587734
0.588567
0.586688
0.594068
0.661794
0.675776
0.698591
0.688911
0.715604
0.711238
0.709794
0.69953
0.72314
0.757489
0.626383
0.62179
0.602449
0.636089
0.63595
0.641183
0.643742
0.592711
0.600654
36.6825
14.8972
1.78109
0.828453
1.01479
0.88446
1.60682
0.589255
0.590532
0.593635
0.596404
0.578126
0.581504
0.590007
0.576307
0.578374
0.588863
0.591185
0.574573
0.57546
0.579135
0.580456
0.582428
0.585126
0.586391
0.575231
0.576331
0.577814
0.577698
0.576896
0.671701
0.656657
0.636214
0.618059
0.604122
0.688533
0.740055
0.779886
0.998632
0.856661
6.14045
1.34175
26.2775
0.594357
0.591966
0.596402
0.589937
0.589114
0.58762
0.586286
0.585305
0.585407
0.586077
0.585531
0.589215
0.589206
0.588574
0.58983
0.594845
0.594595
0.592461
0.601067
0.67912
0.682416
0.694349
0.729025
0.706438
0.71082
0.72959
0.74878
0.743912
0.73305
0.723919
0.743974
0.792722
0.649415
0.631853
0.61335
0.651507
0.653877
0.65578
0.662983
0.599552
0.59592
0.611261
37.3803
21.9226
1.0394
4.44583
0.869635
1.18315
0.946628
1.53388
0.587659
0.589201
0.592696
0.58168
0.589283
0.595712
0.580518
0.577443
0.581539
0.581599
0.600508
0.604032
0.576672
0.579355
0.581142
0.582011
0.582972
0.583869
0.586267
0.577215
0.577808
0.578861
0.57891
0.578612
0.677871
0.666656
0.635839
0.65627
0.622931
0.60854
0.620077
0.720736
0.747378
0.774016
0.827066
1.07698
0.957822
0.382716
21.0099
1.40551
0.593624
0.590913
0.592527
0.59438
0.588829
0.58857
0.587953
0.586521
0.586076
0.58603
0.586066
0.587915
0.588047
0.595813
0.594571
0.590916
0.59708
0.60289
0.60061
0.612308
0.706599
0.718087
0.737508
0.763697
0.743167
0.743103
0.778944
0.796802
0.779109
0.77714
0.80638
0.844426
0.666213
0.652471
0.627956
0.617785
0.679787
0.676768
0.677882
0.684467
0.608993
0.607644
0.621156
38.1043
18.4977
0.910072
6.25491
0.92486
0.872927
1.58919
1.05858
1.30038
0.587548
0.590452
0.588287
0.593013
0.608071
0.586396
0.581723
0.589055
0.588741
0.616207
0.579173
0.579486
0.58065
0.58232
0.583784
0.584928
0.579428
0.57992
0.579371
0.579851
0.579593
0.580664
0.708429
0.700002
0.649355
0.684215
0.642985
0.62794
0.635607
0.742965
0.79419
0.820571
0.864839
1.32885
1.07812
3.49537
25.3214
1.34607
0.589994
0.591011
0.589101
0.588175
0.587517
0.587226
0.586492
0.589071
0.586902
0.587038
0.590456
0.589642
0.600381
0.598193
0.602095
0.595859
0.603392
0.603459
0.613997
0.611413
0.618263
0.619589
0.744976
0.726768
0.751892
0.754527
0.772749
0.805344
0.763724
0.780558
0.807569
0.797822
0.833288
0.827069
0.816254
0.83416
0.867753
0.662791
0.697348
0.670338
0.649058
0.633372
0.705764
0.699449
0.698691
0.709109
0.617964
0.614896
0.637596
42.2372
38.0596
0.0623987
12.3894
0.980597
0.952034
1.59379
1.19235
1.21356
0.58642
0.589619
0.593909
0.605671
0.619276
0.615741
0.587043
0.592711
0.584878
0.592958
0.594439