/*--------------------------------*- C++ -*----------------------------------*\
| =========                 |                                                 |
| \\      /  F ield         | OpenFOAM: The Open Source CFD Toolbox           |
|  \\    /   O peration     | Version:  v2012                                 |
|   \\  /    A nd           | Website:  www.openfoam.com                      |
|    \\/     M anipulation  |                                                 |
\*---------------------------------------------------------------------------*/
FoamFile
{
    version     2.0;
    format      ascii;
    class       volVectorField;
    location    "400";
    object      U;
}
// * * * * * * * * * * * * * * * * * * * * * * * * * * * * * * * * * * * * * //

dimensions      [0 1 -1 0 0 0 0];


internalField   nonuniform List<vector> 
12639
(
(0.999936 -3.23923e-05 -2.92011e-22)
(1.0003 -2.45914e-05 2.52823e-22)
(0.999221 -1.47072e-05 1.53548e-22)
(1.00016 -2.45611e-05 -2.20851e-22)
(1.00025 1.14832e-05 1.95828e-22)
(0.998563 -2.29503e-05 0)
(0.999265 -3.31234e-05 -6.80455e-23)
(1.00027 -1.04189e-05 0)
(1.00022 -2.45984e-06 5.7366e-24)
(0.998245 3.39238e-05 0)
(0.99922 -3.38784e-05 0)
(1.00021 -1.70005e-05 0)
(1.00023 1.82839e-06 -5.75125e-24)
(1.00018 -8.73267e-06 0)
(0.99864 6.01334e-05 -2.24881e-22)
(0.998332 3.12872e-05 0)
(0.99932 -2.17897e-05 0)
(0.998202 5.16955e-06 0)
(1.00022 -7.3319e-06 0)
(1.0002 -4.42875e-06 0)
(1.00018 -7.17758e-06 4.93569e-23)
(0.999044 3.79414e-05 1.2607e-22)
(0.99886 5.37771e-05 1.47663e-22)
(0.999098 -2.74493e-05 0)
(0.998216 7.61034e-07 0)
(1.00023 -7.53871e-06 -4.49262e-24)
(1.00022 -7.24276e-06 0)
(1.0002 -3.61419e-06 1.36083e-23)
(1.00017 -9.18965e-06 -6.43489e-23)
(0.99995 3.68914e-05 -1.12372e-23)
(0.998909 4.74554e-05 -6.67671e-22)
(0.998174 -2.86953e-06 0)
(0.999222 -4.22656e-05 3.90059e-24)
(0.998498 5.15656e-05 7.45484e-22)
(1.00022 -5.67188e-06 0)
(1.00021 -1.08553e-05 -4.51123e-22)
(1.00017 -1.01902e-05 -8.98216e-24)
(1.00017 -9.6425e-06 1.43218e-23)
(1.00017 -8.41783e-06 1.02241e-23)
(1.00013 3.80264e-05 2.8328e-22)
(0.999618 3.68241e-05 6.56883e-22)
(0.998084 -1.35901e-06 0)
(0.999111 -5.00937e-05 0)
(0.998698 4.69672e-05 -8.38579e-22)
(1.00023 -1.11291e-05 3.39777e-22)
(1.00021 2.08059e-07 -2.12797e-22)
(1.00018 -1.26783e-05 2.64817e-22)
(1.00018 -1.09008e-05 -6.21977e-23)
(1.00016 -9.23154e-06 -5.70765e-23)
(1.00015 -8.55163e-06 -2.01902e-24)
(1.00003 3.53663e-05 -2.86362e-22)
(1.00031 1.49701e-05 -3.11122e-23)
(0.99955 6.72031e-05 -7.18327e-22)
(0.998107 -7.95842e-06 0)
(0.998597 6.50007e-05 4.09552e-22)
(0.999807 -3.35386e-06 0)
(0.998051 -0.000100307 0)
(1.00023 -4.82866e-06 4.16733e-24)
(1.00027 -2.42875e-05 1.06456e-21)
(1.00018 -1.85334e-05 -3.72657e-23)
(1.00017 -1.20466e-05 0)
(1.00017 -9.76706e-06 8.04181e-23)
(1.00016 -7.82924e-06 1.74466e-23)
(1.00016 -8.91315e-06 3.89463e-24)
(1.00036 2.25128e-05 -1.16318e-22)
(1.0003 1.89824e-05 2.10856e-23)
(1.00031 9.18154e-06 -2.63133e-23)
(0.999719 9.19011e-05 7.62125e-22)
(0.99832 0.000170197 -7.82994e-22)
(0.999126 0.000124095 8.54267e-23)
(0.999658 -1.74456e-05 9.88361e-22)
(0.998132 -0.000183118 -6.82479e-21)
(1.00019 -1.87733e-05 3.24216e-23)
(1.00023 -2.6459e-05 -6.61345e-22)
(1.00018 -1.6757e-05 2.04704e-24)
(1.00017 -1.33788e-05 6.00341e-23)
(1.00016 -9.82355e-06 1.71657e-23)
(1.00015 -7.37389e-06 1.90162e-23)
(1.00014 -7.65171e-06 0)
(1.00028 1.28026e-05 1.55328e-22)
(1.00016 3.68837e-05 0)
(1.00016 3.42941e-05 -8.58459e-24)
(1.0004 1.34935e-05 -1.21115e-22)
(0.999213 0.000146553 7.63753e-22)
(0.998481 0.000215291 1.82797e-21)
(0.999246 -6.33453e-05 4.88553e-21)
(0.997054 8.47566e-05 -1.43492e-21)
(1.0002 -1.8233e-05 0)
(1.00018 -1.4807e-05 0)
(1.00018 -1.94536e-05 4.43262e-23)
(1.00017 -1.31218e-05 -2.46133e-22)
(1.00015 -7.66111e-06 -9.43972e-23)
(1.00016 -1.03416e-05 1.61207e-22)
(1.00014 -7.26941e-06 -1.39166e-23)
(1.00018 3.03465e-05 -4.49128e-24)
(1.00017 3.4112e-05 -5.91314e-24)
(1.00019 3.26586e-05 3.41642e-24)
(1.00028 -4.64547e-06 -3.67424e-22)
(1.00036 4.91217e-07 8.13055e-22)
(1.00019 9.28605e-05 -1.27582e-21)
(0.999125 -0.000135601 0)
(0.997466 0.000135535 1.1334e-21)
(1.00019 -2.50141e-05 0)
(1.00019 -2.35238e-05 0)
(1.00021 -2.97649e-05 4.21477e-22)
(1.00017 -1.42053e-05 7.42465e-23)
(1.00014 -5.70368e-06 -7.9395e-23)
(1.00015 -9.29307e-06 0)
(1.00013 -5.38933e-06 9.64579e-23)
(1.00019 3.18395e-05 -7.35011e-25)
(1.00017 3.20786e-05 8.04428e-24)
(1.00017 3.28362e-05 2.7571e-24)
(1.00019 3.56494e-05 -3.49182e-22)
(1.00015 1.18092e-05 0)
(0.99973 0.000125271 0)
(1.00017 -6.90747e-05 -4.29472e-22)
(0.997912 -0.000118152 0)
(0.997208 0.00010777 -5.49446e-22)
(1.00019 -3.26394e-05 -1.33365e-22)
(1.00019 -2.6492e-05 9.2366e-23)
(1.0002 -2.03534e-05 1.73512e-22)
(1.00018 -1.69904e-05 -8.50833e-22)
(1.00014 -5.81946e-06 -1.52538e-22)
(1.00016 -9.693e-06 -2.70933e-22)
(1.00012 -3.67498e-06 0)
(1.00018 3.39495e-05 0)
(1.00017 3.1899e-05 1.3188e-25)
(1.00017 3.258e-05 1.13806e-23)
(1.00018 3.31465e-05 -2.75707e-24)
(1.00019 3.48565e-05 -1.68677e-22)
(1.0002 3.64843e-05 0)
(1.00001 6.19395e-05 -1.93272e-21)
(0.999859 -6.67827e-05 7.173e-22)
(0.997952 -0.000149274 0)
(0.997051 0.000163167 6.09149e-22)
(1.00018 -4.66296e-05 0)
(1.00019 -3.06296e-05 0)
(1.00019 -2.90801e-05 5.70867e-22)
(1.00017 -1.6409e-05 6.51702e-22)
(1.00013 -2.92594e-06 1.65631e-22)
(1.00016 -1.16102e-05 3.60998e-22)
(1.00015 -4.01249e-06 0)
(1.00011 -2.71553e-06 -1.74324e-22)
(1.00018 3.57341e-05 0)
(1.00017 3.25457e-05 0)
(1.00015 3.11195e-05 -1.54272e-23)
(1.00017 3.32992e-05 0)
(1.00018 4.07418e-05 2.96124e-22)
(1.00019 3.54244e-05 4.08475e-22)
(0.999623 0.000100547 5.54691e-22)
(1.00018 6.32664e-05 2.49048e-21)
(0.999023 -0.000185367 -8.02886e-22)
(1.0003 -4.60191e-05 -6.83414e-22)
(0.996591 0.000103224 5.23878e-22)
(1.00019 -4.06538e-05 1.03806e-22)
(1.00018 -6.24755e-05 1.26351e-23)
(1.00019 -3.0329e-05 -8.73085e-22)
(1.00015 -7.52115e-05 -6.67881e-22)
(1.00018 -1.93727e-05 5.85304e-22)
(1.00013 -2.43403e-06 0)
(1.00016 -8.24119e-06 0)
(1.00015 -3.29021e-06 0)
(1.00011 -4.81927e-07 2.78717e-22)
(1.00018 3.86521e-05 2.30909e-23)
(1.00016 3.06093e-05 6.30342e-23)
(1.00015 3.31701e-05 -2.44877e-24)
(1.00017 3.42128e-05 3.20162e-23)
(1.00018 5.01382e-05 2.74737e-22)
(1.00018 5.52336e-05 -3.16977e-22)
(1.00019 3.69708e-05 -4.68533e-22)
(0.999603 9.1276e-05 -1.23465e-21)
(1.00014 9.73468e-05 0)
(0.998993 -0.000270402 -1.08083e-21)
(1.00017 -2.72761e-05 -1.32183e-21)
(0.996641 0.0001213 4.15981e-21)
(1.0002 -5.51032e-05 1.04016e-23)
(1.0002 -8.21621e-05 -1.20111e-22)
(1.0002 -3.38809e-05 -1.02142e-21)
(1.00016 -8.50528e-05 8.66131e-22)
(1.00018 -1.31688e-05 -6.30862e-22)
(1.00013 6.10996e-07 -1.76461e-22)
(1.00017 -8.03928e-06 7.81056e-22)
(1.00015 -5.45444e-07 1.1031e-23)
(1.0001 1.18345e-06 0)
(1.00011 2.83177e-06 -1.07909e-22)
(1.00017 3.51062e-05 0)
(1.00018 4.17228e-05 -1.5848e-23)
(1.00015 3.04956e-05 -2.95458e-23)
(1.00014 3.00893e-05 7.32059e-23)
(1.00016 3.12824e-05 8.90836e-23)
(1.00018 6.02301e-05 -1.21928e-22)
(1.00018 7.73087e-05 1.30711e-22)
(0.999701 8.37879e-05 2.26913e-22)
(1.00017 8.52565e-05 0)
(1.00051 -2.97589e-05 3.86495e-23)
(0.996206 -0.000276742 3.56011e-23)
(1.00009 -6.98609e-05 1.57859e-21)
(0.997356 0.000302267 -5.54278e-21)
(1.00021 -6.77476e-05 4.28868e-22)
(1.00021 -4.85865e-05 1.26764e-22)
(1.0002 -0.000101065 0)
(1.00021 -2.86468e-05 2.15922e-21)
(1.00016 -0.000105284 -5.70151e-24)
(1.00019 -1.20362e-05 -1.43521e-21)
(1.00013 1.36109e-06 1.46968e-22)
(1.00016 3.48744e-07 3.61468e-22)
(1.00013 3.77215e-06 -8.6951e-24)
(1.00008 4.47822e-06 0)
(1.0001 5.67041e-06 1.41497e-22)
(1.00017 3.73652e-05 -1.33331e-22)
(1.00018 4.37909e-05 0)
(1.00014 3.10773e-05 -1.2945e-22)
(1.00015 3.15066e-05 -9.90699e-23)
(1.00019 6.37414e-05 0)
(1.00018 7.68667e-05 0)
(1.0003 7.48395e-05 2.88176e-22)
(1.00015 0.000107443 1.90048e-21)
(1.00017 8.65844e-05 0)
(0.999937 -5.14028e-05 0)
(0.996607 -0.000417071 -2.74036e-21)
(1.00009 -7.44011e-05 0)
(0.997278 0.000468256 1.19554e-21)
(1.00022 -8.09174e-05 0)
(1.00022 -5.79803e-05 0)
(1.00022 -0.000120732 0)
(1.00018 -0.000120348 7.34508e-22)
(1.00023 -3.62997e-05 -1.33686e-21)
(1.0002 -1.47192e-05 1.13734e-21)
(1.00013 -0.000144216 -7.29612e-22)
(1.00018 1.81053e-06 -3.00152e-23)
(1.0001 7.08005e-06 -1.06679e-23)
(1.00016 2.25622e-06 -3.61449e-22)
(1.00013 8.07996e-06 6.17572e-22)
(1.00008 7.69765e-06 0)
(1.00016 3.41343e-05 3.67365e-22)
(1.00018 4.5397e-05 -3.17412e-22)
(1.00014 2.84856e-05 0)
(1.00014 3.17912e-05 2.7715e-24)
(1.00015 3.14098e-05 -4.1903e-22)
(1.0002 8.01405e-05 -1.26871e-22)
(1.00019 5.30409e-05 3.93973e-22)
(1.00019 9.83868e-05 1.4415e-22)
(1.00007 4.78991e-05 -1.06872e-21)
(1.00013 0.000118864 -1.56635e-21)
(1.00016 0.00011546 -5.67646e-22)
(1.00034 -9.68213e-05 -3.77276e-21)
(0.999107 -0.000138942 3.65183e-21)
(0.994227 -0.000160052 1.12572e-22)
(1.00002 -7.67936e-05 3.19575e-21)
(0.999512 0.000315011 4.22826e-21)
(1.00023 -8.79213e-05 -6.39029e-22)
(1.00023 -5.87612e-05 2.70566e-22)
(1.00025 -0.000144445 3.23219e-22)
(1.00019 -0.000143969 0)
(1.00024 -2.35914e-05 1.89662e-21)
(1.00021 -9.50803e-06 -3.8427e-22)
(1.00011 -0.000162348 -2.93981e-21)
(1.00018 5.21727e-06 4.6662e-22)
(1.0001 9.44416e-06 2.18221e-22)
(1.00014 1.13489e-05 1.26498e-22)
(1.00011 1.21966e-05 6.4353e-22)
(1.00007 8.05367e-06 -4.76401e-23)
(1.00016 3.49372e-05 -2.40956e-22)
(1.00017 3.82802e-05 5.07958e-22)
(1.00013 2.61207e-05 0)
(1.00012 2.64341e-05 0)
(1.00014 2.73571e-05 2.14717e-22)
(1.00021 8.26763e-05 0)
(1.00019 5.52255e-05 -7.44434e-22)
(1.00019 0.000112911 -2.13865e-22)
(1.00024 0.000123838 -1.53625e-21)
(1.00013 0.000135535 4.43508e-22)
(1.00018 0.000131457 6.44291e-22)
(1.00035 -0.000110027 8.25072e-22)
(0.998732 -0.000225205 -1.66109e-21)
(0.994761 -0.000200828 7.40941e-24)
(1.00007 -0.000173736 -5.51786e-22)
(0.998845 0.000448039 -2.25137e-21)
(1.00026 -0.000100863 1.59665e-21)
(1.00026 -6.41831e-05 -7.78843e-22)
(1.00027 -0.000141466 7.93755e-22)
(1.00023 -0.000174899 -3.16623e-22)
(1.00016 -0.000199477 1.63051e-21)
(1.00025 -2.12807e-05 -2.127e-21)
(1.00022 1.48814e-07 0)
(1.00005 -0.000182388 2.8933e-21)
(1.0002 8.50354e-06 0)
(1.00016 1.99176e-05 2.44476e-22)
(1.00014 1.72231e-05 -6.22222e-22)
(1.0001 1.61767e-05 -7.09135e-22)
(1.00008 1.18065e-05 -2.62288e-23)
(1.00016 2.90432e-05 -6.85334e-22)
(1.00018 4.12914e-05 1.47865e-21)
(1.00013 2.58083e-05 0)
(1.00011 2.82021e-05 0)
(1.00014 2.68221e-05 3.7898e-22)
(1.0002 5.83964e-05 7.44398e-22)
(1.00023 9.26151e-05 0)
(1.00021 0.000128904 3.90157e-22)
(1.00015 0.000103604 -2.86522e-22)
(1.0001 0.000164995 1.16521e-21)
(1.00017 0.000151474 -4.16759e-22)
(1.00009 -6.76079e-05 1.92637e-21)
(0.997513 -0.000243437 0)
(0.993308 -1.38468e-06 0)
(1.00003 0.000172281 1.46711e-21)
(1.00028 -7.8662e-05 -3.07611e-21)
(1.00027 -4.16734e-05 2.50446e-21)
(1.0003 -0.000143295 -7.80794e-23)
(1.00023 -0.000216045 -2.73242e-23)
(1.00019 -0.000240011 2.97737e-23)
(1.00026 -1.44384e-06 3.62622e-21)
(1.00024 8.39858e-06 0)
(1.00005 -0.000232671 -1.61068e-21)
(1.0002 2.29225e-05 0)
(1.00016 2.73244e-05 8.90312e-22)
(1.00013 2.22401e-05 -3.2051e-22)
(1.00008 1.64483e-05 7.24382e-23)
(1.0001 1.9962e-05 3.95201e-22)
(1.00007 1.74436e-05 -3.44299e-23)
(1.00015 2.68766e-05 4.63414e-22)
(1.00018 3.51539e-05 -7.79702e-22)
(1.00012 2.23385e-05 1.31223e-22)
(1.0001 2.20695e-05 -7.32131e-23)
(1.00013 2.17844e-05 0)
(1.00021 5.43646e-05 -1.78666e-21)
(1.00024 8.84609e-05 -1.11258e-21)
(1.00024 0.000111606 -5.60218e-22)
(1.00021 0.000162087 1.46382e-22)
(1.00017 0.000111931 -1.46942e-21)
(1.00009 0.000199693 -8.16642e-22)
(1.00019 0.000175348 3.54743e-22)
(1.00016 -7.94008e-05 -3.7231e-21)
(0.997054 -0.00029716 0)
(0.993608 8.08713e-05 0)
(0.999299 0.000272516 0)
(1.00031 -8.89409e-05 -2.99462e-21)
(1.0003 -4.26919e-05 -1.86864e-21)
(1.00034 -0.000154515 -1.11756e-22)
(1.00026 -0.000234609 0)
(1.00018 -0.000270274 -1.16137e-22)
(1.00028 2.71577e-06 -3.19999e-21)
(1.00023 2.80972e-05 1.09104e-21)
(0.999982 -0.000211776 -2.18123e-21)
(1.00006 -0.000264122 0)
(1.00018 3.41862e-05 -1.23717e-21)
(1.00014 3.48878e-05 1.26589e-21)
(1.00012 3.08086e-05 -1.17779e-21)
(1.00007 2.0378e-05 -1.01259e-22)
(1.00009 2.66059e-05 -4.29535e-22)
(1.00006 1.93434e-05 1.14857e-22)
(1.00016 2.56974e-05 -1.07563e-21)
(1.00014 2.0337e-05 -5.71659e-22)
(1.00019 3.23664e-05 -1.64861e-21)
(1.00012 2.13473e-05 2.26633e-22)
(1.0001 2.14725e-05 -4.3898e-23)
(1.00024 6.06707e-05 2.29257e-21)
(1.00021 3.58109e-05 2.13306e-21)
(1.00027 9.44872e-05 7.86696e-22)
(1.00025 0.000130353 -9.60447e-22)
(1.00024 0.000176521 -1.13607e-21)
(1.00012 0.000222478 1.08003e-21)
(1.00008 0.000226488 0)
(1.00019 0.000195893 0)
(1.00022 -0.000255154 6.61209e-21)
(0.997309 -0.000239101 -1.82163e-21)
(0.993297 0.000197323 0)
(0.999601 0.000215628 0)
(1.00032 -8.17714e-05 3.25949e-21)
(1.00031 -1.39179e-05 1.45807e-21)
(1.00038 -0.000144758 1.2644e-22)
(1.00033 -0.00020847 0)
(1.00028 -0.000308424 0)
(1.00023 -0.000346408 -2.228e-23)
(1.00009 -0.000276069 2.34065e-22)
(1.00029 2.51266e-05 0)
(1.00023 4.08448e-05 -1.09098e-21)
(0.999952 -0.000231486 1.43085e-21)
(1.00003 -0.000309001 1.30122e-21)
(1.0002 4.73382e-05 1.58249e-21)
(1.00014 4.10888e-05 0)
(1.0001 3.40725e-05 2.59043e-22)
(1.00007 2.42958e-05 8.51174e-24)
(1.00009 3.04734e-05 0)
(1.00006 2.69205e-05 0)
(1.00016 1.55132e-05 0)
(1.00012 1.5577e-05 -1.36849e-22)
(1.00017 1.61584e-05 4.94105e-22)
(1.00011 1.73819e-05 -3.54877e-22)
(1.00009 1.76326e-05 1.69178e-22)
(1.00025 5.02034e-05 -1.88109e-22)
(1.00021 2.80658e-05 -1.70228e-21)
(1.00029 0.000106586 0)
(1.00027 6.10074e-05 1.50531e-21)
(1.00029 0.000135602 4.77739e-22)
(1.00025 0.000200019 1.73678e-21)
(1.00003 0.000251842 -2.3296e-21)
(1.00017 0.00022667 2.21041e-21)
(1.00015 0.000249454 0)
(1.00022 0.00023974 0)
(0.999454 -0.000291288 -4.06781e-21)
(0.994964 -0.00014012 2.74525e-21)
(0.99303 0.000185244 0)
(0.999105 0.000242793 2.81743e-21)
(1.00034 -7.69032e-05 -3.64946e-21)
(1.00033 -1.26706e-05 8.24759e-22)
(1.00042 -0.000114122 0)
(1.00042 -0.000204378 5.01573e-21)
(1.00038 -0.000252097 -4.40993e-21)
(1.00033 -0.000340544 0)
(1.0002 -0.000421448 1.53098e-23)
(1.00007 -0.000388683 -1.10715e-21)
(1.00027 4.81022e-05 0)
(1.00033 2.72715e-05 1.85917e-21)
(1.00024 5.07817e-05 1.22468e-21)
(0.999899 -0.000381725 4.03239e-22)
(1.00026 -0.00023066 3.65813e-21)
(1.00018 5.67696e-05 -2.85621e-22)
(1.00012 4.60473e-05 2.22574e-23)
(1.00016 4.98629e-05 2.10384e-22)
(1.0001 4.07952e-05 -7.3492e-22)
(1.00006 2.53072e-05 3.46912e-23)
(1.00007 3.38457e-05 1.3845e-22)
(1.00005 2.63576e-05 0)
(1.00014 9.99459e-06 1.30017e-22)
(1.00012 1.24768e-05 9.32102e-22)
(1.00011 1.57995e-05 4.34875e-22)
(1.00018 1.13811e-05 -1.10245e-21)
(1.00009 1.50686e-05 -1.05329e-22)
(1.00024 2.95233e-05 -8.5409e-22)
(1.0002 1.1863e-05 1.85929e-23)
(1.00033 0.000112227 0)
(1.00029 5.66568e-05 -2.22244e-21)
(1.00031 0.000168253 1.44158e-21)
(1.00029 0.000216222 -1.02379e-21)
(1.00003 0.000306777 1.06227e-21)
(1.00009 0.000270752 1.9275e-22)
(1.00018 0.000308408 -1.0692e-23)
(1.00022 0.000271683 -1.45147e-22)
(0.996157 -0.000218913 3.92114e-21)
(0.992862 0.000220133 -3.50418e-21)
(0.999108 0.00025642 -1.07855e-20)
(1.0004 -7.41857e-05 4.92794e-21)
(1.00035 -9.12773e-07 -2.42806e-21)
(1.00048 -0.000113723 0)
(1.00047 -0.000209431 -1.91815e-21)
(1.00038 -0.000304842 1.51992e-21)
(1.00034 -0.000426057 -7.93633e-22)
(1.00026 -0.00048452 7.56102e-22)
(1.0001 -0.000410475 0)
(1.00029 6.95299e-05 0)
(1.00035 5.33294e-05 0)
(1.00023 7.94766e-05 1.26688e-22)
(0.99988 -0.000449205 0)
(1.00001 -0.000184215 0)
(1.00019 7.40686e-05 -2.36458e-21)
(1.0001 4.2659e-05 5.45155e-22)
(1.00012 5.7279e-05 -2.18591e-22)
(1.00014 6.46796e-05 8.80484e-22)
(1.00007 3.69228e-05 -5.37512e-23)
(1.00006 2.96374e-05 -3.46877e-23)
(1.00004 3.69663e-05 4.04379e-23)
(1.00013 2.79462e-06 -1.52773e-21)
(1.00011 5.79215e-06 -1.32478e-22)
(1.00009 1.03393e-05 0)
(1.00017 4.62259e-07 3.5921e-21)
(1.00008 1.31853e-05 3.35651e-24)
(1.00025 1.79038e-05 -3.08901e-22)
(1.0002 1.40878e-06 -9.83326e-22)
(1.00034 0.000159885 0)
(1.00035 9.79722e-05 9.10276e-22)
(1.00028 2.19292e-05 -7.17605e-23)
(1.00033 6.17104e-05 3.37833e-22)
(1.00032 0.000240862 2.21818e-21)
(1.00002 0.000355822 -1.59466e-21)
(1.0001 0.000297622 -2.19998e-21)
(1.00019 0.000337416 0)
(1.00025 0.00030321 1.56594e-22)
(0.9951 -0.000242628 -2.76513e-21)
(0.992401 0.00026234 7.23669e-21)
(0.998571 0.000376721 7.79407e-21)
(1.00042 -2.29664e-05 -6.94836e-21)
(1.00039 1.11919e-05 0)
(1.00051 -0.000161824 0)
(1.0005 -6.90564e-05 -2.46466e-21)
(1.0005 -0.000269538 0)
(1.00045 -0.000332038 0)
(1.00044 -0.000478133 2.31627e-21)
(1.00027 -0.000607788 0)
(1.00007 -0.000489128 -4.32916e-22)
(1.00033 7.645e-05 1.03435e-21)
(1.00028 0.000100254 0)
(1.00039 4.86846e-05 0)
(1.00021 8.02908e-05 1.1765e-21)
(1.00026 9.9604e-05 -1.76601e-21)
(1.0002 -0.000179483 0)
(0.999837 -0.00043503 1.69495e-21)
(0.996614 -0.000445256 0)
(1.00017 8.34945e-05 -2.64023e-22)
(1.00009 5.19597e-05 6.69724e-22)
(1.00011 5.90112e-05 0)
(1.00014 7.11153e-05 -1.29779e-21)
(1.00006 3.97877e-05 -3.76995e-23)
(1.00004 3.33668e-05 -4.81878e-23)
(1.00014 -9.48788e-07 -2.12074e-22)
(1.00012 -2.39957e-06 0)
(1.0001 8.42632e-06 0)
(1.0001 2.03863e-06 0)
(1.00018 -8.85128e-06 7.6703e-22)
(1.00007 5.79455e-06 -2.78816e-22)
(1.00024 1.19391e-06 7.84755e-22)
(1.00021 -4.8102e-06 1.37127e-21)
(1.00039 0.000172083 -5.96465e-22)
(1.00039 0.000102835 -1.23743e-21)
(1.00029 1.11039e-05 2.35244e-21)
(1.00035 3.40443e-05 -6.70261e-22)
(1.00031 0.000295232 3.51852e-22)
(1.00038 0.000234435 -1.94568e-21)
(1.00013 0.000392303 1.99918e-21)
(0.999959 0.000456764 9.93551e-22)
(0.999964 0.00035932 3.35788e-21)
(1.00025 0.00039086 5.22576e-22)
(0.992322 0.000319614 -4.948e-21)
(0.998468 0.000517931 0)
(1.00048 -1.32603e-05 7.17436e-21)
(1.00057 -0.000168713 0)
(1.00056 -6.19857e-05 1.30723e-21)
(1.00057 -0.000279652 0)
(1.00049 -0.000391049 0)
(1.0005 -0.000569791 -2.91806e-21)
(1.00013 -0.000630108 4.98636e-22)
(1.00042 -0.000689518 0)
(0.999923 -0.000526213 0)
(1.00034 0.000106928 -1.03447e-21)
(1.00031 0.000124131 -1.31286e-21)
(1.0004 6.66514e-05 9.72087e-22)
(1.00021 0.000106025 1.98216e-21)
(1.00024 0.000125873 0)
(0.999862 -0.00023941 -2.71177e-21)
(0.999742 -0.00060031 -2.82123e-21)
(0.995413 -0.000571289 1.3565e-21)
(1.00016 9.64711e-05 6.9308e-22)
(1.00007 5.02103e-05 -6.57444e-22)
(1.00011 6.33833e-05 -1.96141e-22)
(1.00013 7.83233e-05 6.57176e-22)
(1.00005 3.3631e-05 5.58583e-23)
(1.00006 4.68962e-05 0)
(1.00004 4.09179e-05 3.73648e-23)
(1.00013 -1.3896e-05 -9.52257e-22)
(1.00011 -8.88196e-06 0)
(1.00008 3.97587e-06 2.76383e-22)
(1.00008 -5.03838e-06 -5.04996e-22)
(1.00017 -1.9805e-05 -1.4594e-21)
(1.00007 3.11184e-06 -7.60185e-25)
(1.00025 -1.42095e-05 0)
(1.00021 -2.64377e-05 0)
(1.00042 0.000148505 4.61834e-21)
(1.00043 7.29328e-05 5.75636e-21)
(1.00033 6.29212e-06 -1.03523e-21)
(1.00028 -1.98659e-05 -2.39485e-21)
(1.0004 2.55175e-05 1.80242e-21)
(1.00039 0.000339663 -3.51783e-22)
(1.00041 0.000278405 0)
(1.00016 0.000502276 -5.9829e-22)
(0.999975 0.000543789 1.31211e-21)
(0.999935 0.000391107 -1.98901e-21)
(1.00029 0.00041117 -5.22528e-22)
(0.991187 0.000316923 4.74044e-21)
(0.994377 0.000691224 8.16086e-21)
(1.00081 0.000363278 -2.42018e-22)
(1.00051 4.05062e-05 0)
(1.00065 -0.000144027 0)
(1.00057 3.43988e-05 8.00425e-21)
(1.00063 -6.71699e-05 1.9027e-21)
(1.00064 -0.00033871 0)
(1.0006 -0.000425215 2.06206e-21)
(1.0006 -0.000578466 2.23789e-21)
(1.00005 -0.000741101 0)
(1.00046 -0.000797856 0)
(0.99993 -0.000689818 0)
(1.00038 0.000128043 -1.68061e-22)
(1.0003 0.000143006 3.54271e-21)
(1.00047 8.96371e-05 1.49857e-21)
(1.00018 0.00011725 -2.47485e-21)
(1.00023 0.000135644 -5.97266e-22)
(0.999614 -0.00024761 0)
(0.999744 -0.000586985 3.6641e-21)
(0.999806 -0.000771964 0)
(0.995887 -0.000747016 -1.4157e-21)
(1.00014 0.000101893 -7.19903e-22)
(1.00007 5.69692e-05 0)
(1.00009 6.65963e-05 2.1525e-22)
(1.00012 8.57946e-05 -1.61468e-24)
(1.00003 3.83577e-05 0)
(1.00004 4.27708e-05 2.7078e-24)
(1.00005 4.47966e-05 0)
(1.00014 -1.98781e-05 5.79797e-24)
(1.00011 -1.31241e-05 0)
(1.00008 -1.04078e-05 0)
(1.00007 -2.12253e-06 5.61734e-22)
(1.00018 -2.89072e-05 0)
(1.00005 -2.92969e-06 0)
(1.00023 -3.38819e-05 0)
(1.00047 0.000156965 -4.61933e-21)
(1.00049 7.07642e-05 -3.04223e-21)
(1.00033 -2.43592e-05 3.21635e-21)
(1.0003 -3.895e-05 0)
(1.00041 -1.22299e-05 7.7303e-21)
(1.00039 0.000391091 0)
(1.00046 0.000271629 8.27623e-22)
(1.00028 0.00051866 0)
(1.00009 0.000579353 6.26665e-22)
(0.999892 0.000635769 -3.56652e-21)
(0.999649 0.000571981 -5.58368e-21)
(0.990991 0.000164273 -5.9273e-21)
(0.994675 0.00100702 -9.12501e-21)
(0.999993 0.000276623 2.42104e-22)
(1.00074 -0.000181455 -6.08203e-21)
(1.00063 6.3844e-05 -5.11038e-21)
(1.00068 -1.8085e-05 0)
(1.00072 -0.000323582 4.2527e-21)
(1.00072 -0.000604695 -4.03539e-21)
(1.00009 -0.000822192 0)
(1.0006 -0.000912813 0)
(1.00028 -0.000914075 0)
(1.00038 0.000153914 2.90396e-22)
(1.00033 0.000186245 0)
(1.00026 0.000163391 -2.6945e-21)
(1.00049 0.000142494 0)
(1.00018 0.000138904 4.98183e-22)
(1.0002 0.000161107 6.16951e-22)
(0.998624 -0.000496198 4.34091e-21)
(0.999655 -0.000609647 -5.5695e-21)
(0.999802 -0.000857159 0)
(0.99013 -0.000280154 -3.40929e-21)
(1.00013 0.000112744 0)
(1.00005 4.51476e-05 6.45031e-23)
(1.00006 5.78077e-05 1.72828e-25)
(1.00009 7.51312e-05 0)
(1.0001 8.55157e-05 2.14274e-22)
(1.00003 5.41504e-05 1.9171e-22)
(1.00003 4.45155e-05 4.71074e-23)
(1.00012 -3.18992e-05 1.77444e-22)
(1.0001 -2.01182e-05 0)
(1.00007 -1.36122e-05 0)
(1.00018 -4.38642e-05 0)
(1.00005 -6.15984e-06 0)
(1.00023 -4.67523e-05 0)
(1.00052 0.000129182 0)
(1.00051 2.36969e-05 0)
(1.00037 -4.07634e-05 -3.74313e-21)
(1.00029 -5.83907e-05 0)
(1.00046 -3.41527e-05 -5.49908e-21)
(1.00042 0.000448982 -4.35173e-22)
(1.00054 0.000283491 2.39848e-21)
(1.00037 0.000569865 -1.53407e-21)
(1.00012 0.0006696 -4.39566e-24)
(0.999871 0.00076599 2.87173e-21)
(0.999633 0.000648254 1.94894e-21)
(1.00035 0.000401431 0)
(0.9899 0.000566128 1.29613e-20)
(1.00081 -0.000143425 -7.13632e-21)
(1.00064 0.000117808 0)
(1.00077 -3.54123e-06 4.6412e-21)
(1.00085 -0.000356391 -3.55202e-21)
(1.00087 -0.000520348 3.32442e-21)
(1.00078 -0.000846172 0)
(0.999949 -0.00102439 0)
(1.00052 -0.00115643 1.08609e-21)
(1.00031 -0.00110599 1.71206e-21)
(1.00043 0.000197967 -2.59713e-21)
(1.00032 0.000212323 -4.57349e-22)
(1.00024 0.000197212 2.39814e-22)
(1.00056 0.00016909 -4.78212e-21)
(1.00016 0.000142112 0)
(1.00021 0.000189675 0)
(0.998201 -0.000623404 4.17161e-21)
(0.999417 -0.000711232 1.88862e-21)
(0.999698 -0.00090597 7.1503e-22)
(0.990656 -0.00053041 -7.65121e-21)
(1.00011 0.000110911 0)
(1.00004 4.61224e-05 -6.99323e-23)
(1.00005 6.26114e-05 -3.72619e-22)
(1.00007 7.23968e-05 -1.08533e-22)
(1.0001 9.24711e-05 -1.25636e-22)
(1.00002 5.40461e-05 -2.30128e-22)
(1.0001 -2.64146e-05 7.39086e-22)
(1.00013 -3.75404e-05 -1.36031e-21)
(1.00008 -1.76982e-05 0)
(1.00006 -1.1775e-05 -3.94417e-23)
(1.0002 -5.58356e-05 0)
(1.00015 -4.60302e-05 1.07824e-21)
(1.00005 -8.17789e-06 0)
(1.00025 -6.28523e-05 0)
(1.00056 0.00014407 2.43445e-22)
(1.00057 4.48992e-06 0)
(1.00036 -8.34163e-05 -2.54174e-21)
(1.00032 -8.57017e-05 -3.12639e-21)
(1.00046 -8.09347e-05 3.23982e-21)
(1.00051 0.000470316 5.03445e-21)
(1.00061 0.000323584 -5.75684e-22)
(1.00039 0.000628168 2.06562e-21)
(0.999984 0.000846517 -3.52922e-22)
(1.00028 0.000708929 6.64086e-24)
(0.999744 0.000881802 -2.84257e-21)
(0.999629 0.000752691 -3.25118e-21)
(0.999274 0.000487171 -7.04394e-21)
(0.990144 0.000914115 3.33762e-21)
(1.00094 -0.000136532 3.78853e-21)
(1.00073 0.000180338 -2.05554e-21)
(1.0008 4.74055e-05 0)
(1.00097 -0.000275823 0)
(1.00109 -0.00055368 0)
(1.001 -0.000886703 0)
(0.999933 -0.00119206 0)
(1.00061 -0.00124389 -2.51658e-21)
(1.00013 -0.00131575 -9.5305e-23)
(1.00042 0.000236572 0)
(1.00027 0.000229422 1.12759e-21)
(1.00035 0.000248844 -3.83681e-21)
(1.00057 0.0002396 4.78272e-21)
(1.00013 0.000150977 0)
(1.00019 0.00019825 0)
(0.990444 -0.000678439 8.21321e-21)
(0.997008 -0.000834096 -7.72257e-21)
(0.999352 -0.000765264 5.08128e-21)
(0.99947 -0.000894408 -6.32651e-22)
(0.999753 -0.00123099 -5.28367e-21)
(1.0001 0.000118526 0)
(1.00004 5.1327e-05 -3.51222e-22)
(1.00002 4.88505e-05 1.51746e-24)
(1.00005 6.35681e-05 -9.42461e-23)
(1.00007 7.78785e-05 8.16377e-22)
(1.00008 8.8613e-05 0)
(1.00009 -3.18526e-05 2.70526e-22)
(1.00011 -4.58696e-05 9.74866e-22)
(1.00006 -2.24671e-05 0)
(1.00005 -1.64938e-05 4.11414e-23)
(1.00019 -7.12301e-05 -4.88518e-22)
(1.00015 -6.19445e-05 4.51615e-22)
(1.00005 -2.71564e-05 5.10153e-24)
(1.00026 -9.275e-05 -2.169e-21)
(1.00063 0.000133382 5.0847e-22)
(1.00064 4.38885e-05 0)
(1.00059 -7.947e-05 0)
(1.0004 -0.000112735 3.58785e-21)
(1.00029 -0.000111506 -8.61984e-22)
(1.00051 -0.000117303 -3.33945e-21)
(1.0006 0.000391397 -6.42517e-21)
(1.0006 0.000658568 -6.10811e-23)
(1.0007 0.000277587 -1.75287e-21)
(1.0005 0.000734683 -1.64447e-22)
(1.00011 0.000976543 3.71874e-22)
(1.00027 0.000889564 8.53533e-22)
(0.999717 0.00103776 4.14643e-21)
(0.99943 0.000867535 7.78823e-21)
(0.999774 0.00027973 6.4364e-21)
(0.990044 0.00116475 -1.55338e-20)
(0.987653 -0.000452174 8.69216e-21)
(1.00107 -6.08502e-05 1.10092e-21)
(1.00075 0.000240953 -9.82604e-22)
(1.00094 0.000114911 4.37792e-21)
(1.00112 -0.000347568 0)
(1.00119 -0.000667989 0)
(1.00111 -0.00106273 0)
(1.0005 -0.00158065 0)
(1.0009 -0.00130834 0)
(1.0002 -0.00149207 3.52346e-22)
(1.00045 0.000274928 0)
(1.00026 0.000262291 8.21605e-22)
(1.00034 0.000297241 1.96493e-21)
(1.00052 0.000287861 5.11044e-21)
(1.00066 0.000306441 6.81383e-21)
(1.00011 0.000129031 -7.69691e-22)
(1.00013 0.000171034 0)
(1.00015 0.000182578 0)
(1.00019 0.00024061 -8.32819e-24)
(0.999163 -0.00074473 9.22133e-21)
(0.988496 -0.000801723 -1.43407e-20)
(0.999093 -0.00104836 -1.08671e-20)
(0.99941 -0.00111375 6.81513e-21)
(0.999615 -0.0013916 1.11949e-21)
(1.00008 0.000108177 7.94689e-22)
(1.00003 4.81272e-05 3.7055e-22)
(1.00001 5.82568e-05 0)
(1.00004 6.29744e-05 -2.56652e-22)
(1.00005 7.27918e-05 -1.98805e-21)
(1.00007 9.3446e-05 0)
(1.00006 -2.57685e-05 -3.5847e-22)
(1.00008 -3.71986e-05 9.64837e-23)
(1.00008 -4.03937e-05 -1.14161e-22)
(1.00012 -5.80676e-05 -3.95383e-22)
(1.00004 -2.2386e-05 4.40429e-24)
(1.00016 -7.12827e-05 -1.24363e-21)
(1.00022 -9.74684e-05 3.7894e-21)
(1.00003 -2.36884e-05 1.6513e-24)
(1.00071 0.00017936 3.04633e-22)
(1.00071 1.10557e-05 -9.79973e-21)
(1.00067 -0.000102778 6.18514e-21)
(1.0004 -0.000163052 6.93992e-21)
(1.00029 -0.000127853 -5.38481e-22)
(1.00051 -0.000177703 -4.53726e-21)
(1.00071 0.00046181 0)
(1.00071 0.000675908 -4.63762e-21)
(1.00076 0.000348002 -2.88287e-21)
(1.00042 0.000930754 -6.46594e-22)
(1.0001 0.00106418 1.25304e-22)
(0.999493 0.00117818 -3.85245e-21)
(0.999899 0.00121178 0)
(0.999348 0.000991078 0)
(0.99942 0.000528599 0)
(0.990014 0.00161397 -2.35692e-21)
(1.00108 3.27909e-05 -3.9025e-21)
(1.00116 -0.000303448 -1.19692e-20)
(1.00087 0.000371053 -4.75413e-21)
(1.00098 0.000302793 2.86426e-22)
(1.00143 -0.000681524 0)
(1.00136 -0.00112029 5.75723e-22)
(1.00058 -0.00182801 0)
(1.00106 -0.00159756 0)
(1.00004 -0.0016091 -4.4992e-22)
(1.0004 0.000343518 0)
(1.00022 0.000270589 0)
(1.00029 0.000313586 -1.1526e-21)
(1.00053 0.000372382 -5.0826e-21)
(1.00062 0.000388629 -5.69023e-21)
(1.00009 0.00013809 6.4961e-22)
(1.00011 0.00017245 2.02214e-21)
(1.00013 0.000215258 -4.36973e-22)
(1.00015 0.000253878 5.503e-22)
(0.997694 -0.000736759 0)
(0.988442 -0.000995383 8.94748e-21)
(0.999125 -0.00127862 -3.97182e-21)
(0.999088 -0.00103381 4.54188e-21)
(0.99951 -0.00160772 0)
(1.00007 0.000113314 -7.22613e-22)
(1.00003 5.33602e-05 0)
(1.00001 5.03872e-05 0)
(1.00004 6.39359e-05 -1.01268e-22)
(1.00005 7.60726e-05 1.18727e-21)
(1.00006 8.4988e-05 -7.91313e-23)
(1.00005 -2.71485e-05 0)
(1.00006 -3.28196e-05 2.58879e-22)
(1.00008 -4.92277e-05 -3.51627e-22)
(1.00011 -6.33844e-05 0)
(1.00004 -3.14421e-05 -4.40502e-24)
(1.00016 -8.54009e-05 -1.22228e-22)
(1.00021 -0.000115321 -1.15098e-21)
(1.00079 0.000133569 0)
(1.0008 1.25909e-05 0)
(1.00067 -0.000139 -5.36494e-21)
(1.00045 -0.000207048 1.01212e-20)
(1.00034 -0.000179969 -9.75893e-21)
(1.00026 -0.000152739 1.86994e-21)
(1.00059 -0.000216764 -1.91783e-21)
(1.0008 0.000550889 6.2336e-21)
(1.00077 0.000781247 1.79277e-21)
(1.0009 0.000326359 0)
(1.0005 0.00102888 0)
(1.00023 0.00127613 1.08251e-21)
(0.999477 0.00137053 -6.58754e-22)
(0.999892 0.00150654 -1.78838e-21)
(0.999216 0.0011119 0)
(0.998513 0.000740649 -4.68415e-22)
(0.982358 0.000140186 2.1251e-21)
(1.00119 0.00013194 3.30886e-21)
(1.00131 -0.000217016 1.26263e-20)
(1.0008 0.000479112 8.321e-21)
(1.00113 0.00031885 -3.24149e-22)
(1.00166 -0.000480851 0)
(1.00157 -0.000950887 0)
(1.00129 -0.00157412 -5.8193e-22)
(1.00094 -0.00193104 0)
(1.00029 -0.00203315 -4.51246e-22)
(0.999691 -0.00174601 1.67925e-21)
(1.0004 0.000378969 0)
(1.0002 0.000305844 0)
(1.00028 0.000363591 -3.27402e-22)
(1.00047 0.000415765 -4.25084e-21)
(1.00066 0.000466997 -1.57251e-21)
(1.00007 0.000129625 2.37335e-21)
(1.00008 0.000172031 -2.0684e-21)
(1.0001 0.000214341 -2.64072e-21)
(1.00014 0.000267415 -7.45777e-22)
(0.993619 -0.000696306 0)
(0.999252 -0.00164814 0)
(0.998477 -0.00104043 -1.37935e-21)
(1.00005 9.8058e-05 2.07446e-21)
(1.00002 4.77504e-05 0)
(1.00001 5.96686e-05 0)
(1.00002 5.75062e-05 9.71639e-22)
(1.00003 6.91962e-05 0)
(1.00005 8.73135e-05 -1.83195e-21)
(1.00005 -3.39176e-05 -2.12626e-22)
(1.00009 -5.46735e-05 4.23517e-22)
(1.00006 -4.44975e-05 1.19072e-23)
(1.00011 -7.40246e-05 0)
(1.00003 -3.71435e-05 2.22893e-23)
(1.00013 -8.47339e-05 7.36581e-22)
(1.00018 -0.000106432 1.04646e-21)
(1.00022 -0.000128045 -8.02105e-22)
(1.0009 0.000190027 1.73987e-21)
(1.00088 -3.51885e-05 2.61441e-21)
(1.00075 -0.000179753 -3.05075e-21)
(1.00045 -0.000260686 -3.54703e-21)
(1.00032 -0.000225723 1.41677e-21)
(1.00025 -0.000185084 1.03718e-21)
(1.00059 -0.000267025 2.87502e-21)
(1.00094 0.000558944 -2.19332e-21)
(1.00066 0.000990816 -1.50117e-21)