/*--------------------------------*- C++ -*----------------------------------*\
| =========                 |                                                 |
| \\      /  F ield         | OpenFOAM: The Open Source CFD Toolbox           |
|  \\    /   O peration     | Version:  v2012                                 |
|   \\  /    A nd           | Website:  www.openfoam.com                      |
|    \\/     M anipulation  |                                                 |
\*---------------------------------------------------------------------------*/
FoamFile
{
    version     2.0;
    format      ascii;
    class       volScalarField;
    location    "400";
    object      yPlus;
}
// * * * * * * * * * * * * * * * * * * * * * * * * * * * * * * * * * * * * * //

dimensions      [0 0 0 0 0 0 0];


internalField   uniform 0;

boundaryField
{
    flap
    {
        type            calculated;
        value           nonuniform List<scalar> 
202
(
10.4586
9.4413
9.47887
10.5228
10.8031
12.0668
11.7121
11.7134
11.7858
11.9247
12.079
12.2394
12.4006
12.5587
12.7189
12.8746
13.0373
13.1938
13.3577
13.518
13.6795
13.8415
14.0046
14.1639
14.323
14.4839
14.6426
14.8039
14.9607
15.1204
15.273
15.4217
15.5716
15.7177
15.8613
16.0046
16.1426
16.28
16.4133
16.543
16.6708
16.794
16.9161
17.0346
17.1495
17.2619
17.3738
17.4855
17.5964
17.704
17.8104
17.9125
18.012
18.1068
18.1981
18.2889
18.3789
18.4697
18.5566
18.6466
18.7379
18.8307
18.9277
19.0365
19.1603
19.3037
19.472
19.6735
19.9139
20.2078
20.5734
21.0228
21.5575
22.1779
22.871
23.5534
23.9262
23.8425
23.4407
22.9088
22.3339
21.736
21.1382
20.5387
19.8745
19.6634
20.2175
21.6728
23.034
24.2024
25.0298
25.6098
26.0447
26.3654
26.5753
26.6606
26.6154
26.3876
25.9093
24.9405
22.9176
16.2371
5.60909
10.7366
11.9903
11.6323
11.6335
11.7074
11.8481
12.0044
12.1673
12.3313
12.4927
12.6561
12.8155
12.9825
13.1438
13.3122
13.4768
13.6431
13.8096
13.9747
14.1321
14.2863
14.4426
14.5965
14.7543
14.9084
15.0669
15.2193
15.368
15.5176
15.6631
15.806
15.9487
16.0856
16.2213
16.3523
16.4796
16.6049
16.7255
16.8451
16.9612
17.0738
17.1841
17.2939
17.4035
17.5122
17.618
17.7231
17.8238
17.9218
18.0149
18.1045
18.1938
18.2823
18.3717
18.4571
18.5455
18.635
18.7253
18.8195
18.9248
19.0442
19.1821
19.3436
19.5375
19.7696
20.0549
20.4126
20.8565
21.3871
22.0071
22.7049
23.3994
23.7941
23.7383
23.3525
22.8235
22.2416
21.6627
21.1572
20.8061
20.5762
21.0616
22.4665
23.8623
24.8051
25.3522
25.6954
25.933
26.1083
26.2119
26.2264
26.1277
25.8989
25.4829
24.8
23.6051
21.2539
14.8241
7.36132
)
;
    }
    freestream
    {
        type            calculated;
        value           uniform 0;
    }
    main
    {
        type            calculated;
        value           nonuniform List<scalar> 
231
(
15.6378
9.01391
11.8116
13.9138
15.3942
16.5012
17.2314
17.7021
17.9657
18.0748
18.063
17.9175
17.6892
17.3447
16.9157
16.3993
16.1303
16.9607
17.8613
18.624
19.1832
19.5278
19.7116
19.7139
19.5654
19.2372
18.675
17.8176
16.5408
14.8199
12.3546
9.59968
15.7796
4.82869
5.33282
6.11012
7.03201
8.04399
9.12044
10.2498
11.3815
12.6253
14.0186
15.5562
17.1862
18.8557
20.5157
22.1128
23.5941
24.9161
26.0453
26.9592
27.6501
28.1267
28.4017
28.5
28.4497
28.2799
28.0214
27.6991
27.3371
26.9508
26.5533
26.1533
25.7591
25.3786
25.0152
24.6786
24.3724
24.0968
23.8559
23.651
23.4801
23.3433
23.2383
23.1649
23.1203
23.1002
23.1047
23.1295
23.1688
23.2147
23.2628
23.3088
23.3478
23.3802
23.4009
23.4103
23.4121
23.4043
23.3907
23.3724
23.356
23.3383
23.3198
23.3015
23.2834
23.262
23.2433
23.2204
23.1955
23.1734
23.1498
23.1241
23.0967
23.0701
23.0414
23.0134
22.9843
22.9582
22.9325
22.9062
22.8808
22.8579
22.833
22.808
22.7817
22.7538
22.7227
22.69
22.6519
22.6144
22.5724
22.526
22.4744
22.4218
22.3581
22.3177
22.2764
22.4289
22.3634
20.1554
20.1087
22.2975
22.3666
22.2143
22.257
22.2991
22.3646
22.4192
22.4728
22.5212
22.5652
22.6047
22.6448
22.6793
22.7122
22.7418
22.7698
22.7965
22.823
22.8474
22.8744
22.9021
22.9292
22.9567
22.9871
23.0164
23.0463
23.0741
23.1027
23.1295
23.1542
23.1773
23.2032
23.2269
23.246
23.2679
23.2853
23.3041
23.3245
23.3417
23.3583
23.378
23.3919
23.4002
23.3991
23.3904
23.3699
23.3374
23.297
23.252
23.2048
23.1579
23.1216
23.0961
23.0896
23.1097
23.156
23.2311
23.3381
23.4733
23.639
23.8391
24.0821
24.3728
24.7052
25.0664
25.45
25.8368
26.2148
26.5856
26.9421
27.2863
27.6128
27.911
28.1633
28.3423
28.4173
28.3531
28.1127
27.6631
26.9844
26.0696
24.9276
23.5837
22.0779
20.4634
18.7954
17.1246
15.5066
13.9901
12.6131
11.3737
10.2422
9.10908
8.03093
7.02152
6.10618
5.33355
4.82719
)
;
    }
    BaseAndTop
    {
        type            empty;
    }
}


// ************************************************************************* //
