/*--------------------------------*- C++ -*----------------------------------*\
| =========                 |                                                 |
| \\      /  F ield         | OpenFOAM: The Open Source CFD Toolbox           |
|  \\    /   O peration     | Version:  v2012                                 |
|   \\  /    A nd           | Website:  www.openfoam.com                      |
|    \\/     M anipulation  |                                                 |
\*---------------------------------------------------------------------------*/
FoamFile
{
    version     2.0;
    format      ascii;
    class       surfaceScalarField;
    location    "0.58";
    object      meshPhi;
}
// * * * * * * * * * * * * * * * * * * * * * * * * * * * * * * * * * * * * * //

dimensions      [0 3 -1 0 0 0 0];


internalField   nonuniform List<scalar> 
18811
(
0.0047041
0.000727152
0.00135331
0.00935776
-0.00583418
0.0120391
0.0093546
-0.00585542
0.0206531
0.00122387
0.0120015
0.0104281
0.00857123
0.0129265
0.0152359
0.012745
-0.00463566
-0.00511129
0.0229861
0.030465
0.0189457
-0.00179698
-0.0163443
0.0384408
0.0187211
0.000717245
0.000960816
0.0196301
0.0123737
0.0155545
0.0235618
0.0164305
0.00952633
0.00705784
0.0209769
0.0257919
0.0188346
-0.0124713
0.00923312
-0.00331439
0.0261911
-0.000544341
0.0449056
0.0399216
0.0528448
-0.0127707
0.0292647
0.00244755
-0.0264799
0.0604276
0.0221505
0.00180731
0.00153881
0.00115847
0.0279877
0.0273784
0.0166749
0.0319121
0.0244732
0.03801
0.025669
0.0117053
0.0183988
-0.00510312
0.0263475
0.0435201
-0.0174631
0.0243002
0.0157258
-0.00958001
0.00685629
-0.00216713
0.0393338
-0.00624036
-0.0303317
0.0673824
0.0506024
0.0653363
0.0731441
-0.018091
0.0377945
0.00811837
0.00143158
-0.0240718
0.0762063
0.00274805
0.0247191
0.00359591
0.000351309
-0.0018997
0.00226662
0.0162374
0.0222628
0.0531822
0.011705
0.0486065
0.0244875
0.0509956
0.0391754
0.0445866
0.0297717
0.0142239
0.0269563
-0.0110024
0.00794803
0.0336433
0.0502089
-0.0131274
0.0201994
-0.0190207
0.0264265
-0.00794879
0.0119537
0.000104002
-0.00368969
-0.0380978
0.0611535
-0.0117419
0.0625762
-0.00202528
0.048858
0.0835065
0.101185
0.0863274
-0.0204508
0.0409113
0.013825
0.00687646
-0.0253953
0.0836114
0.00333261
0.00581708
0.0196576
0.00249578
-0.000884715
0.00109261
0.0565823
0.0146262
0.0449466
0.0624716
-0.0144657
0.0701537
0.0590892
0.0376463
0.0335304
0.0770803
0.00243398
0.0930209
0.0323384
-0.0182494
0.0405811
0.0163769
-0.00199959
0.0948881
0.0155532
-0.00781644
-0.0145059
0.024879
-0.0199275
0.0456187
0.000345995
0.00433148
-0.00150961
-0.0436495
0.0677927
-0.03919
0.0913199
0.030196
0.0371655
0.0404065
0.101852
0.0844007
-0.000558212
0.0867619
0.103197
-0.0203961
0.0600782
0.00515261
0.0281497
0.00521811
0.0151871
0.0860053
0.0053846
-0.00695373
0.00193557
0.00998449
0.010789
0.000946504
-0.00120066
0.000421537
0.0430611
0.0340909
0.0680373
0.0343685
0.0813241
-0.0266333
0.0736016
0.00642472
0.104264
-0.0174777
0.110226
0.100559
0.0880506
0.0250494
0.0408934
-0.0123257
0.0249242
0.0422039
-0.00773867
-0.000722273
0.0896994
0.0760177
0.0157611
-0.00819673
0.0174753
0.00688337
-0.00247768
-0.0147328
0.0294631
-0.0264574
0.0439662
-0.00124216
0.00119697
-0.0237813
0.0656253
-0.0492849
0.0918491
0.0389925
0.0632195
0.0372702
0.0755441
0.0464959
0.0751785
0.0170612
0.0925323
0.114166
0.110352
-0.0281979
0.0767032
0.0305602
0.00184795
0.0198073
0.0291275
0.00722814
0.111399
0.00290485
0.00710975
0.00780143
0.0543348
-0.00398062
0.03852
0.0340561
0.0394638
-0.00498722
0.104087
0.0798268
-0.0269049
0.0976888
0.0921934
0.00377226
0.077476
-0.0312249
0.11471
0.103375
0.0302897
0.0931415
0.0834909
0.0354943
0.0578601
-0.0157254
0.0251706
-0.0300461
0.0553707
0.00371109
-0.0004384
0.0722537
0.0487831
0.00586411
-0.00689137
0.0177373
-0.0128624
0.0240969
-0.0299026
0.0311982
-0.0143922
0.0584713
-0.0323453
0.0789135
0.0815326
0.0446394
0.0681498
0.0750434
0.00524162
0.0953073
0.0895235
0.0376845
0.0865667
0.0377738
0.0744229
0.122496
0.14103
0.115655
-0.0242555
0.0902644
0.0211821
0.00936489
0.0576799
0.0029813
0.0295564
0.00802651
0.101914
0.00271206
0.00801565
-0.00235056
0.0383246
-0.00294278
0.0289065
0.032039
0.0251382
0.0596242
0.00500497
0.0842143
-0.0115243
0.0845686
-0.0149978
0.0960059
0.143041
0.173107
-0.0266669
0.120024
0.105655
0.0254289
0.00964163
0.141795
0.0828702
0.0404786
0.0398418
0.0821678
-0.0101388
0.024873
-0.041297
0.0494606
-0.00680686
0.0143941
-0.000320716
0.0622866
0.0459203
0.00589737
0.0162802
-0.00537735
0.0173499
-0.0230259
0.0241797
-0.00910538
0.0418649
-0.0190569
0.0553575
-0.0350013
0.0644808
0.0712575
0.0779841
0.0533174
0.0364078
0.0756715
0.0970162
0.0585651
0.0886816
0.0979774
0.0484309
0.078685
0.123576
0.115587
0.0414291
0.110178
0.1093
-0.0318503
0.0765082
0.0151906
0.0709678
0.00978733
0.0230186
0.0221208
0.00562858
0.105191
0.00425128
-0.00193095
0.0246345
0.00254198
0.0186622
0.0268371
0.0243806
0.0482968
0.0199666
0.00619753
0.0688131
0.0494295
0.0328863
0.0899077
-0.0151592
0.0949412
0.15399
0.158853
0.149554
-0.0328194
0.116113
0.0199907
0.110572
0.0982282
0.0239966
-0.00775511
0.124861
0.0785896
0.0360058
0.0562226
0.025303
0.0758398
0.0592588
-0.00747338
0.0221265
-0.012067
0.0407544
-0.0263746
0.0536096
0.00367466
0.0434962
0.0659193
0.00817115
0.011226
-0.0135379
0.0191031
-0.010489
0.0319632
-0.0125743
0.0427574
-0.019353
0.0465882
0.0576876
-0.0405999
0.0642692
0.036865
0.0354837
0.0739457
0.0273018
0.0667421
0.0662111
0.0991889
0.0633369
0.13337
0.0364568
0.0779847
0.0784498
0.0597495
0.0609066
0.124746
0.1093
0.108311
0.0322215
0.0998138
0.0831212
-0.040289
0.0700615
0.0233908
0.0552355
0.0851926
0.0150717
0.0189496
0.0170528
-0.00301891
0.0141509
0.00397276
0.0653136
0.00292867
0.0118028
0.0229907
0.0263619
0.00921095
0.0371461
0.0234453
0.0286971
0.0382346
0.0755478
0.0469942
0.0301629
0.0776387
0.0745369
-0.0243261
0.0931907
-0.0205724
0.126545
0.128452
0.119369
0.121314
0.116597
-0.0368032
0.100402
0.0857774
0.0449795
0.0128201
0.101524
0.0969141
0.015141
-0.016383
0.121296
0.0121277
0.074654
0.0553251
0.0168178
-0.0102919
0.0676403
0.0634013
-0.00901589
0.0292766
-0.0152516
0.0380205
-0.0314463
0.0523835
0.00167444
0.0103031
0.0806579
0.00744537
-0.00736554
0.0229193
-0.00673783
0.0327126
0.0393784
-0.010175
0.051906
0.054563
-0.00523321
0.0460873
0.0347543
0.0439181
0.0676571
0.0260746
0.0543686
0.0190236
0.0586295
0.0588709
0.0851934
0.0458007
0.0448139
0.0871757
0.0686496
0.0568781
-0.00313977
0.130252
0.118841
0.0428935
0.0598423
0.103193
-0.0554731
0.105427
0.0894663
0.0455233
0.0930942
0.0699456
0.0558245
0.0470282
-0.0378612
0.0570136
0.00495131
0.0638433
0.0693199
0.0175052
0.00942767
0.0176588
0.00624841
-0.00549922
0.0208997
0.00854151
0.074529
0.00448545
0.019763
0.0260592
0.050273
0.00586695
0.00317605
0.0535693
0.0484569
0.0513694
-0.0105516
0.0566471
0.0406264
0.0293542
0.0690956
0.0764743
0.0693474
-0.0247098
0.0847024
-0.00245336
0.0916946
0.118543
0.0897868
0.0887773
-0.0528769
0.115247
0.0826707
0.0238334
0.100333
-0.0362772
0.0969659
0.0347188
0.0724353
0.0547992
0.0543622
0.00855728
0.0835465
-0.0415716
0.089633
0.054174
0.0980936
-0.038693
0.0974969
-0.014832
0.0628493
0.0431624
0.0294963
0.0343948
0.0453794
0.0284951
-0.00747137
0.0410562
-0.0298406
0.0508541
0.00724274
0.0181214
0.0336683
0.0421548
0.00906504
0.0215749
0.00130869
-0.00740819
0.0362551
-0.033424
0.0430886
0.0451128
0.00931415
0.0423125
0.0105954
0.0426967
0.0343953
0.0241101
0.0659365
0.0524222
0.0190518
0.0145533
0.0639921
0.0151284
0.0562643
0.0487607
-0.0282205
0.124266
0.0951907
0.0118108
0.080766
0.103382
0.110204
0.010107
-0.0109959
0.0980016
0.0940803
0.0299102
0.0678749
0.092897
0.0835289
-0.0159904
0.0727691
0.0472489
0.0833412
0.00896103
-0.0101611
0.0668123
0.0254462
0.0757534
0.0591264
0.0411456
0.0393965
0.0233825
0.0385983
0.00513979
0.0694085
0.0801605
0.014082
0.0409186
0.0118436
0.0122468
-0.000221034
-0.00764013
0.0305207
0.0499059
0.0335756
0.0104614
0.00299071
0.0162734
0.0147795
0.00579288
0.0388366
0.00736829
0.00483668
0.0422655
0.0516342
0.0551901
0.0497296
0.0683556
0.0387386
0.0288657
0.0689957
0.0596742
0.0193972
0.0466265
0.0781684
-0.0256752
0.0743266
0.0183416
0.11063
-0.0092142
0.108854
0.111805
0.126278
0.105377
0.112503
-0.000203845
0.0977702
0.0745822
-0.00746169
0.0675197
0.0273154
0.0364575
0.0491753
0.0700253
0.0409032
0.0335519
0.0855815
0.0779159
0.0872149
0.0783543
-0.0428602
0.0860903
0.0622366
0.0471236
0.0411469
0.026888
0.0540264
-0.0204685
0.0378093
-0.0273176
0.0413318
0.00836799
0.00418925
0.0133268
0.084922
0.00686451
-0.00720314
0.0258926
0.0104666
0.0346304
-0.0284408
0.0388047
0.0477662
0.00657275
0.0139254
0.0436059
0.065828
0.0266643
0.0440088
0.057096
0.025874
0.0449232
-0.00764449
0.0690404
0.0741455
0.0471863
0.0332062
0.0619545
0.0112124
0.0121569
0.102712
0.0706262
0.0419251
0.0355362
0.0780682
0.0606803
0.0688416
0.0608605
0.0483347
0.0212765
0.0953702
0.0484267
0.0518017
0.0165668
0.0569961
0.0538861
0.0167173
0.0523336
0.0697382
0.0675746
0.0585682
0.0135856
0.094131
0.044767
0.0701461
0.0102754
0.0601941
0.0294363
0.0158638
0.0642204
0.0507433
0.037176
0.0244166
0.0361826
-0.00215598
0.0500944
-0.00564624
0.0459077
0.0504121
0.0472447
0.012414
0.031672
0.0108686
-0.00599686
0.0183039
0.00176721
-0.00900886
0.0247617
0.0330289
0.0541264
0.00752793
0.00321346
0.0219954
0.00961386
0.0371307
0.00482754
0.0132259
0.0375921
0.0464588
0.0600293
0.0174988
0.0509975
0.0638457
0.0510675
-0.0187882
0.0655179
0.0521013
0.0346929
0.0414993
0.0840701
0.068071
0.0576775
0.0859544
0.0522445
0.0544437
0.105787
0.0980469
0.00550161
0.0722415
0.124914
-0.034837
0.0861461
0.0722288
0.0631928
-0.0174284
0.0710689
-0.0415967
0.0573201
0.0621514
0.0107039
-0.0124086
0.0661143
0.0590171
0.0447584
0.024522
0.0862831
0.0370619
0.0594091
0.0916038
0.0665298
0.0778623
0.0821639
0.0485491
-0.0337443
0.0723149
-0.0170124
0.0526011
0.0301116
0.0323655
0.00182276
0.0422913
0.0502819
-0.0219645
0.036698
-0.0195193
0.0316469
0.0121587
0.00667512
0.00497044
0.00723592
0.0162612
0.00934495
0.0291207
-0.0204879
0.0276489
-0.0235966
0.0638975
0.025618
0.00345324
0.0588667
0.0563388
0.0133812
0.0526349
0.0663993
0.0353906
0.0317374
0.000973398
0.0527971
0.0788063
0.0335178
0.0523516
0.0171684
0.0530219
0.0433307
0.0122064
0.065057
0.0240126
0.122989
0.0535407
0.0549008
0.0437655
0.0562807
0.0145819
0.0583801
0.0369763
0.0905591
0.0148177
0.0731756
0.00343558
0.0706325
0.0666683
-0.00119075
0.0763621
0.0417029
0.0129027
0.0125955
0.0481939
0.0524509
0.092555
0.098283
0.082354
0.00591584
-0.0258922
0.0875076
0.0594884
0.0858881
0.026683
0.052514
0.0731843
0.0107463
0.0765008
0.0522098
0.0212005
0.0262473
0.0243937
-0.0116562
0.0425339
-0.00652964
0.0389586
0.0525852
0.0109366
0.0371728
0.0189815
0.0207322
0.0152743
-0.000380568
0.00925289
0.00116885
0.0222986
0.00755341
0.00365898
0.0204761
0.0107817
0.0345992
-0.00518765
0.0364843
0.0301246
-0.0253045
0.0544848
0.0293184
0.0317149
0.0171633
0.0413283
0.0721911
0.069672
0.0863104
0.0286736
0.0522816
0.0886579
0.0829199
0.0800542
0.0918172
0.035443
-0.0186307
0.0756945
0.0824529
0.0715897
0.0067936
0.0509497
0.0467932
0.0460914
0.0831839
0.0565862
0.0719911
0.0647734
0.0131883
0.0527504
-0.0349054
0.0455761
0.0542954
0.0147031
0.0637179
0.0308589
0.0454467
0.0551389
0.0584766
0.0940233
0.032574
0.0568557
0.0592484
0.00197547
-0.00873578
0.0627462
0.0662659
0.0642646
0.060845
0.0173442
0.0816758
0.0356892
-0.0179305
0.0416228
0.0360048
0.0203607
0.0277286
0.0219079
0.0140684
0.0208932
-0.00927985
0.0302764
-0.0120115
0.0337918
0.0120465
0.00458363
0.0252429
-0.000567953
0.0078756
0.011615
0.0121096
0.0246509
0.0119729
0.0211513
-0.0182974
0.0571723
0.0620135
0.0390784
0.0751339
0.00392348
0.0705572
0.0757261
0.0399821
0.0484145
0.0944148
0.00351349
0.0874361
0.0887189
-0.0149698
0.097214
0.0213454
0.0736733
-0.0468582
0.084911
0.0625266
0.0305254
0.0544733
0.0230533
0.0493693
0.00200041
0.0492273
0.0791575
0.0698895
0.021102
0.064109
0.0793348
-0.0123024
0.0863117
0.0539917
0.0756818
0.0262619
0.0238517
0.0400748
0.00193842
0.0175758
0.0355277
0.0402517
0.0676609
0.0781309
0.0896263
-0.0288742
0.0889089
0.0671363
-0.0276345
0.0862554
0.0816057
0.0758658
-0.00798526
-0.0143401
0.0799142
0.0688831
0.0129824
0.0209517
0.0138105
0.0260354
0.0259723
0.0105481
0.046339
0.0338331
0.0324611
0.0179359
0.0192622
0.0321318
0.00275887
0.0121877
0.00193672
0.00599015
0.00148239
0.0133367
0.00706628
0.00554753
0.0230084
-0.0250315
0.0396282
-0.00172726
0.0353414
0.0235399
0.0288734
0.0354722
-0.00538078
0.0473159
0.0329732
0.0444927
0.0166671
0.0557078
0.0230486
0.0544357
0.073249
0.0632113
0.0333138
0.00492605
0.0848196
0.00971707
0.0808553
0.0530198
0.0755674
0.00067528
0.0591653
0.0278096
-0.0121653
0.0764768
0.078658
0.0516537
0.00392048
0.0446944
-0.00660284
0.0881038
0.0652004
0.056378
0.00898547
0.0690858
0.0432011
0.0449616
-0.025368
0.0806929
0.0517502
-0.0102991
0.034233
0.0399432
0.0272923
-0.0226053
0.022562
0.0389031
0.0153569
-0.0300619
0.0996533
0.0499174
0.0396227
0.0515816
0.0631817
0.0739471
0.0286712
0.0593809
0.00149401
0.0819855
0.0791418
0.0737273
-0.0149421
0.0858016
0.0334387
-0.0105758
0.0361316
0.0433908
0.0350874
0.0120015
0.0194368
0.00965924
0.0199954
0.0247604
-0.00497368
0.025828
-0.00531582
0.0295028
0.0100792
0.00432481
0.0189829
-0.00392372
0.0106286
0.0245978
0.0402609
0.00235605
-0.0073801
0.0444043
0.0542578
0.0706969
0.0380351
0.0421264
0.0630396
0.00170797
0.055751
0.0577667
0.0475464
0.0272418
0.0746187
0.0826571
0.0389557
0.0476596
0.0435321
0.0390967
-0.0251121
0.079917
0.00569768
0.0721825
0.0618883
-0.0410662
0.070428
0.0530843
0.00675147
0.07307
0.0592166
-0.00360013
0.0485269
0.0405967
0.0499126
0.0730914
-0.000366669
0.057823
0.0533444
0.0078273
0.0626868
-0.0314261
0.0779685
0.051125
-0.0185575
0.0717525
0.0249927
0.00646288
0.00337706
0.0353082
0.0187728
0.0064685
0.026918
-0.00603222
0.0411566
0.0255716
0.0871593
0.0913435
0.0817938
-0.0248497
0.0897663
0.0505888
-0.0293409
0.0904378
0.0649831
0.0717694
0.00906862
-0.0113094
0.0870241
0.0766233
0.00688914
0.0248774
0.0210621
0.0143682
0.0380291
0.00725821
0.00489148
0.0309722
0.026901
0.0254475
0.020855
0.0159306
0.0392302
-0.00792369
0.00787506
0.00403583
0.00283138
0.00481633
0.0104698
0.0215667
0.00602046
0.026294
-0.00366728
0.0495891
0.0521337
0.0270898
0.0451935
0.040478
0.00014475
0.0020242
0.0419667
0.0274101
0.0372504
0.0849539
0.0866513
0.0404281
0.0352961
0.0457673
0.0388424
0.0910962
0.0933943
0.0808052
0.0404885
0.0584596
0.0156281
0.0629246
0.000228425
0.0434258
0.0281278
-0.0167064
0.071207
0.015517
0.0597707
0.0560165
-0.00295989
0.0507918
-0.0248238
0.067062
0.0674361
0.0501223
0.0539729
0.067065
0.0472526
0.0158805
0.0635001
-0.0346518
0.0874291
0.0384355
-0.00496205
0.0279052
0.0232919
0.0283766
-0.019073
0.0230885
0.00483318
0.0178806
0.0375084
0.0875809
0.00174597
-0.00374494
0.0971014
0.0798762
0.0622219
0.023123
0.069035
0.0148731
0.0515533
0.088562
0.0981933
-0.00977752
0.0880423
0.00899817
0.0149799
-0.0033531
0.024562
0.0227102
0.0435318
0.0481177
0.0276831
0.00273387
0.0215011
0.00660052
0.0171965
0.0227277
-0.000705517
0.0205761
-0.00271363
0.0161125
0.0142857
0.0055288
0.00961805
0.019789
0.0343615
-0.00545716
0.00849619
0.042512
0.00230662
0.0515276
0.065898
0.0489041
0.0448011
0.037665
0.0520862
0.0299152
0.0566622
0.0500039
0.0384991
0.0825417
0.0907715
0.031337
0.0614947
0.0336464
0.0615522
0.000227506
0.0818665
-0.0276982
0.0694989
0.00605485
0.0537246
-0.042396
0.0595621
0.0217688
0.0445298
-0.0246449
0.0537183
0.0449065
7.74209e-05
0.0607185
0.057116
0.0137757
0.0371207
0.0288029
0.0397755
0.0133403
0.0557463
0.05749
0.0711437
0.0274651
0.0408899
0.0759002
0.0512446
0.0135889
0.0488427
0.0400066
0.0914135
0.0159855
0.00972274
-0.00183538
0.0225658
0.0027281
0.0240781
0.018558
-0.0186387
0.0211654
0.0383151
0.0794271
0.101395
0.10491
0.0952595
-0.0330754
0.103889
0.0845754
0.00574315
0.0679006
0.0320442
0.0519032
0.0379558
0.0205928
0.00970701
0.0150651
0.013049
0.00936459
0.0181276
0.0273245
0.0154467
0.0351454
0.0126922
0.0158296
0.00112147
0.0178846
0.0163653
0.0211815
0.0138789
-0.0122688
0.0294183
0.00155123
0.00595118
0.00848064
0.00456241
0.0171315
-0.00541767
0.0491085
0.0472261
0.00493734
0.0623683
0.0550374
0.0407405
0.00625807
0.0335076
0.00718265
0.0122472
0.0414233
0.06993
-0.000355574
0.0584937
0.0841483
0.0273175
0.0653495
0.0968737
-0.0153727
0.0783971
0.0679629
0.0461936
0.0410079
0.0140808
0.0416363
0.0191995
-0.0517156
0.0746207
-0.00620137
0.0486423
-0.0236513
0.0698043
0.0346685
0.0272621
0.0378542
0.0203348
0.0518135
-0.00286383
0.0394347
-0.0306909
0.0607632
0.0543721
0.0156172
0.0412778
0.0281423
0.0436468
0.0290999
0.0863626
0.0537316
0.0817459
0.0638014
-0.0361795
0.0775473
0.0571939
-0.00670779
0.0200099
0.031708
0.0129507
0.0119827
0.00391262
-0.000816328
0.0189653
0.0347637
0.0653502
0.0155609
0.0630781
0.0400706
0.0448502
0.0621644
0.0639122
0.0410317
0.0646523
0.0187069
0.0672773
0.0751257
0.0856751
0.105017
0.00780938
0.0121303
0.0228703
0.0282238
0.0168561
0.0349038
-0.00804183
0.0372098
-0.0159316
0.0330093
0.0290521
0.0146734
0.0017085
0.0133213
0.0100423
0.000821833
0.0148155
0.0360117
-0.00511838
0.00308554
0.0082512
0.00186317
0.0103427
0.0245988
0.0238462
0.0265954
0.00409999
0.0442938
0.0637732
0.0604665
0.0549617
0.0421951
-0.0214076
0.0317493
0.0670975
0.0137147
0.0574323
0.0734894
0.0193552
0.0661687
0.086534
0.086285
0.0394642
0.0591017
0.0436791
0.0359951
0.00556504
0.0635001
-0.0207808
0.068253
0.0704482
0.0570948
-0.0325383
0.0527236
0.0432674
-0.0202815
0.0700726
0.0504186
0.055803
0.043863
0.0344589
0.0181177
0.00712458
0.0322575
0.037725
0.0240612
0.0180857
0.0374592
0.00632323
0.0359277
0.0200726
0.0680405
0.0752241
0.0773187
0.0061364
-0.00476362
0.0697432
0.0741638
0.0773486
0.0111248
0.00623925
0.0133416
0.0164057
-0.00342182
0.0139547
0.00668371
-0.00766567
0.00951703
0.00832544
0.00745613
0.0254265
0.0801576
0.0866299
0.104996
0.105113
-0.0368717
0.103084
0.0587821
0.00965358
-0.00573359
0.0823828
0.081661
0.0856663
0.0211542
0.0128543
0.0170643
0.00619196
0.00722554
0.0224461
0.00394058
0.0126925
0.0122694
0.0245933
0.00972311
0.0293651
0.0222258
0.00676349
0.0278409
0.0371981
0.00116583
0.0115303
0.0129109
-0.00839772
0.0197327
0.00772691
0.0157826
0.00123149
0.00284266
0.00611157
0.00323331
0.00615002
-0.00608428
0.0190034
0.0722531
0.00301888
0.0621382
0.0649835
0.0438513
0.0130006
0.0392253
0.00557708
0.0278063
0.00624006
0.010753
0.0583177
0.0136813
0.061101
0.0729575
0.0117122
0.0760388
0.0132566
0.0744467
0.104447
0.100832
0.0490481
0.0336359
0.0380483
-0.00026865
0.0586952
0.0513601
0.00228689
0.0506058
-0.00625556
0.0541482
0.0169179
-0.0178557
0.0695721
0.0467693
0.0100471
0.0108204
0.0341236
0.041582
-0.0220625
0.0407707
0.0075832
0.0242269
0.00217507
0.0364504
0.0429689
0.0448005
0.0477214
-0.00444499
0.0742305
0.0588726
0.074764
0.0774367
0.00581434
0.0700452
0.017356
0.0610574
-0.00506486
0.0136046
0.0175167
0.0223684
0.0064947
-0.00444825
0.00924912
0.00314699
-0.00237071
0.0089915
0.032272
-0.0137571
0.0956474
0.0746901
0.0415
0.0651243
0.0698609
0.0388525
0.0656779
0.0771336
0.093677
-0.00129435
0.0845528
0.0860376
0.118858
0.0166426
0.0253895
0.0192516
0.0362541
0.0359094
0.00173816
0.0299069
-0.00757372
0.0310695
-0.00922449
0.0384678
0.0420626
0.00746617
0.00455381
0.0071511
0.0149303
0.0259551
-0.00884173
0.00211297
0.00708965
0.00778298
0.00140197
0.0182931
0.0037823
0.000650749
0.0733225
0.0772477
0.0670181
0.0564964
0.0544503
0.0359248
0.0270217
-0.00814497
0.0681253
0.0739576
0.0874301
0.0258442
0.0514747
0.102123
0.0271843
0.078727
0.0152008
0.0870782
0.0611396
-0.0107628
-0.0151118
0.0498525
0.0411791
0.0522601
0.0449046
0.053809
0.049053
0.0790863
0.0605227
0.0254553
0.0449591
0.0137464
0.0282054
0.0429794
-0.00133409
0.0381211
-0.00774121
0.0449803
0.0360628
0.00634816
0.0394674
0.00195469
0.0470018
0.0104149
0.0650718
0.0704916
0.0784835
-0.00201425
0.0113072
0.0674143
0.0684532
0.0827362
0.00799786
0.00288345
-0.000360998
0.0164478
0.0204959
-0.00381316
0.00817249
0.00331264
-0.00372208
0.00549466
0.0039405
0.0158548
0.015461
0.118154
0.105443
0.0983587
-0.0365551
0.103696
0.0370975
0.0413817
0.0471482
0.0478008
0.0390299
0.0472383
0.0545071
0.0327025
0.0500892
0.0702569
0.00583358
0.0103201
0.0271228
-0.00027325
0.00363263
0.0162265
0.0132753
0.0258498
0.0263213
0.0119687
0.0585046
0.0199777
0.0233951
0.0105281
0.0294587
0.0543426
-3.85473e-05
0.00623142
0.0101559
0.00616733
0.00734749
-0.000599828
0.00350046
0.00732288
0.0145164
0.00524458
0.0667006
0.0143025
0.0643171
0.0828767
-0.0100226
0.0682589
0.0463452
-0.0174067
0.0564593
0.0123151
0.0194587
0.0502579
0.0429833
0.0320965
0.104138
0.0956491
0.0473432
0.0560393
-0.00602082
0.085953
0.0823004
0.00164522
0.0492384
0.0436857
0.00171978
0.0514563
-0.0153541
0.0615904
0.0539145
0.000962017
-0.0105736
0.0605541
0.0698964
-0.0330769
0.0952909
-0.0144616
0.0407065
0.0316225
-0.0134781
0.0424813
0.0303606
0.0401507
0.00870395
0.0290887
0.00473564
0.0414276
0.0433185
0.0424601
0.0136368
0.0345496
0.0117112
0.0547197
0.0386193
0.0921132
0.0669254
0.107046
0.0318932
0.0523551
-0.00500642
0.0103789
-0.00454635
0.00572919
0.00903329
0.00646241
0.0125134
0.00187473
0.00503476
-0.00365503
0.00522586
-0.000929092
-0.00158778
0.00446632
0.0241915
0.0205662
0.081116
0.0387893
0.0557625
0.0510567
0.0633095
0.0278365
0.0769797
0.0898761
0.0884375
0.103219
0.0839574
0.00348864
0.0680847
0.0145992
0.0129786
0.0160875
0.0172553
0.0280311
0.0399759
0.0576947
0.00469113
0.0231814
-0.00213362
-0.0062198
0.0305724
-0.00489777
0.0354142
0.00675032
0.0491381
0.0035514
0.00337209
0.00656862
0.00120387
0.00428507
0.015915
0.00426588
-0.00263447
0.0205831
0.00623022
0.00283317
0.0654435
0.0979385
0.0874994
0.0901082
-0.016316
0.0654
0.0428882
0.0375112
0.117761
0.0430765
0.0623994
0.0325207
0.0646111
0.0917569
0.0898058
0.0373627
0.0495383
0.0338413
0.0494186
0.000485206
0.0497251
0.0496477
0.0566182
0.0373696
0.0632926
0.0627272
0.0653842
0.00625164
0.0668441
0.0302279
0.0464559
0.0256931
0.0177891
-0.00737765
0.038646
0.0374165
0.00388243
0.00241468
0.0270861
-0.00852196
0.0508945
0.0356167
0.000176044
0.0434672
-0.00244067
0.0377732
0.0946633
0.0651642
0.0283124
0.100313
0.0295023
0.0791408
0.0833154
-0.000457255
0.008432
0.00641834
-0.00265438
0.019752
-0.00400646
0.004254
-0.000737133
0.000239625
0.00273364
0.00602029
0.0176498
0.0259494
0.0863178
0.095949
0.0798318
0.101959
0.0233457
0.0543722
0.00487937
0.0860583
0.0944335
0.0882901
0.0162079
0.0159504
0.0690558
0.0850547
0.00522657
0.0102995
0.0230264
-0.00523878
-0.000468253
0.0192244
-0.00118433
0.0316267
0.0437811
0.000200531
0.0355718
0.0251211
0.0511536
0.0179872
-0.0122041
0.0108623
0.027012
0.0434332
0.0179055
0.0338035
-0.00159288
0.00411892
0.0044836
0.00332587
0.00413269
0.00212613
0.00454001
0.00287169
0.00212187
0.0123131
0.0458505
0.0535315
0.13557
0.0239717
0.0681217
0.0464215
0.0203479
0.0420951
0.003484
0.0306705
0.0102433
0.0522309
0.067502
0.0974155
0.119764
0.014995
0.0777464
0.105955
0.0998823
0.0101529
0.0406643
0.0610853
0.0384094
0.0192155
0.0769543
0.0190995
0.0454385
0.00614019
0.0580178
0.0731576
0.0749904
-0.040718
0.0721063
0.0273336
0.020035
0.0284744
-0.0146001
0.0331785
0.0309095
0.0250185
0.032047
0.00559483
0.0215607
0.03462
0.0173681
0.0367646
0.0419001
0.0184222
0.0202783
0.0553387
0.0126449
0.0538859
-0.0364915
0.0658865
0.0652997
0.0487623
0.0313784
0.0163059
0.0682177
0.00396175
0.00210119
0.00467926
3.7299e-05
0.00811084
0.00943334
0.00209272
-0.00443341
-0.00418622
0.00330884
-0.00269392
0.0232214
0.00580782
0.0187524
0.0691046
0.0183026
0.0589492
0.0379411
0.0254071
0.0553285
0.0599448
0.0431241
0.0842533
0.080532
0.0375989
0.0497044
0.0356506
0.0600411
0.0330615
0.0567594
0.0863554
0.0178359
0.0682858
0.00931464
0.0110472
0.0238601
0.0160792
0.0348983
0.0562389
-0.0403222
0.0682324
0.0149098
-0.00419841
0.0226239
0.0156752
-0.00428373
-0.00634092
0.0337555
0.0192118
0.0251533
0.0539224
0.000482263
0.00117777
0.00335935
0.00591211
-0.00160728
0.0032516
0.00801685
0.00228891
0.0110911
0.00570435
0.0411212
0.0963176
0.0724583
0.122531
0.0642631
0.0371599
0.0250257
0.11072
0.0515905
0.0470412
0.00068781
0.120739
0.130993
0.108055
0.0480882
0.052745
0.0607619
0.0221603
0.0404433
0.0786321
0.0149711
0.0634959
-0.0102581
0.0571133
0.00618204
0.0684518
0.0620353
0.0143269
0.0624964
0.0107459
0.0392658
0.024571
0.0047184
0.0181786
0.0157073
-0.00411702
0.0359578
-0.00734393
0.0332779
-0.00259212
0.0355192
0.00339804
0.0185713
0.0581563
0.0551049
0.0208949
0.0217636
0.041879
0.0693779
-0.0314943
0.0864946
0.0352877
0.0102109
0.0564079
0.065926
0.070095
0.0801126
-0.00175068
0.00393573
0.00847074
-0.00146062
0.00462384
-0.0048425
0.00270911
0.0140932
-0.00448231
-0.0027884
0.00150784
0.0217679
0.0031945
0.0146308
0.0881176
0.0782622
0.0942595
0.0922105
0.030967
0.0541197
0.112433
0.0862862
0.0947841
-0.0576104
0.115687
0.029872
0.099396
0.002981
0.00800981
0.0153859
-0.00796706
0.0348392
-0.00548706
0.023883
-0.0137978
0.0527941
0.014131
0.0441768
0.0374523
0.0330848
-0.0316109
0.0497409
0.0119094
0.0166823
0.00414012
0.0177848
0.0162308
0.0433355
0.0106412
0.0447225
-0.00367692
0.00310771
0.00184718
0.0048108
0.00205255
-0.000830295
0.00654303
0.0111507
0.00657788
0.091001
-0.0218219
0.0963391
0.0714422
0.0516903
0.0441759
-0.00840687
0.0479318
0.0185836
0.0174562
0.0942903
0.100791
0.129012
0.0340139
0.098193
0.143639
0.0212406
0.0410347
0.0630563
0.0399387
0.0399421
0.0559185
0.0548053
0.0182419
0.0398668
0.0696089
0.0156881
0.0541345
0.0782302
0.081337
0.0376702
0.0284531
0.0234607
-0.00955341
0.0258622
0.0323189
0.0296194
0.0245639
0.0201341
0.0197826
0.0397437
0.0209321
0.0356896
0.0436879
0.00301612
0.0398602
0.0351185
0.0527708
0.0928439
-0.0117821
0.0786312
0.0592075
-0.00619255
0.0877814
-0.0044985
0.00125774
0.00107914
0.00224283
0.0047638
0.00544257
-0.00363901
0.00425999
0.00901509
-0.00441417
-0.00121488
-0.00570099
0.00141688
0.0129234
0.00849036
0.015547
0.00179611
0.0123271
0.082373
0.00694883
-0.00787646
0.0869644
0.087378
0.0693649
0.023756
0.124771
0.02001
0.0939067
0.025839
0.0615809
0.0165641
0.0793242
0.0636834
0.0531888
0.0161314
0.0842759
-0.00159682
0.0113194
0.0123066
0.0187869
0.0243268
0.024614
0.0531893
0.0559705
-0.0221264
0.0578562
0.0677994
-0.0144522
-0.00248708
0.0144014
-0.00416635
0.0208908
-0.00854083
0.0248109
0.0122542
0.030912
0.000226361
0.0442347
-0.00353756
-0.000679651
0.00271647
0.00516563
0.00218461
-0.00407505
0.00286304
0.00415649
0.0045426
0.00957142
0.10939
0.0199689
0.0769325
0.0923134
0.147228
-0.0220956
0.0684571
0.0273222
0.0255704
0.125679
0.0567725
0.0732802
-0.0263835
0.126019
0.115721
0.0292726
0.0604299
0.0156423
0.0489307
0.0567582
-0.00307047
0.060143
0.00345442
0.0523349
-0.0092244
0.0501536
0.0125816
0.0582084
-0.00035377
0.0553626
0.0590216
0.0205086
0.0266677
0.0560536
-0.000903022
0.0397915
0.0172819
0.0116776
-0.00243401
0.0264043
0.023915
-0.00391023
0.0373832
-0.00123439
0.0316882
-0.00970508
0.0353111
0.0141964
0.00637268
0.0567476
0.0566681
0.0477351
0.0401921
-0.0347339
0.0708294
0.0808899
0.0593311
0.0738264
0.0861235
0.00169659
0.0876048
0.00382259
-0.0039513
0.00312356
0.00799588
0.000229538
0.00388064
-0.00657346
0.0015095
0.0103711
-0.00396443
0.00358001
-0.00592248
0.0227494
-0.00126181
0.01671
-0.00091056
0.0126671
0.0995964
0.0952398
0.108735
0.0470618
0.0791215
0.142466
0.0790839
0.0225164
0.0577961
-0.0168626
0.0815224
0.0767558
0.068409
0.0077705
0.00645885
0.0229885
-0.0107512
0.0330478
-0.0177166
0.0460046
0.059382
-0.0306944
-0.0090827
0.0640986
0.00213925
0.0545207
0.0483254
0.0500958
0.0479522
0.0102899
0.0123887
0.0187797
0.00551414
0.0307859
0.0310847
-0.000289767
0.0440927
-0.00444306
0.00040352
-0.00111686
0.00740197
-0.00050502
0.0010696
0.00206014
-0.00177019
0.0037171
0.0101279
0.0024111
0.167747
0.051083
0.0256919
0.0278431
0.0635361
0.0661836
0.0804048
0.0416403
0.0266442
-0.0156611
0.0451732
0.0115505
0.10059
0.191177
0.156652
0.0137214
0.0478907
0.000604754
0.049466
0.0548299
0.0647723
0.044327
0.0650014
0.0728445
0.0588026
0.0188099
0.0374745
0.0778152
0.0371604
0.0240635
-0.0170926
0.0293446
0.00996358
-0.000510637
0.0251209
0.0371038
0.0230396
0.0357372
0.0300549
0.0278548
0.017599
0.0403675
0.0100007
0.0391047
0.00248649
0.0388895
0.0190148
0.0530489
0.0313344
0.0505455
0.0620521
-0.025866
0.101038
0.0614318
0.0597082
0.0287978
-0.00442687
-0.000522788
0.00314654
-0.00125467
0.00116754
0.00601368
0.00237672
0.000517385
0.00242515
-0.00404429
-0.00366882
0.0107204
0.00247655
-0.007313
-0.00404953
0.0213859
0.0152777
0.00648515
0.00588138
0.0337092
0.0668689
-0.00521881
0.101515
0.10467
0.181462
-0.0387061
0.183333
0.0451512
0.0349546
0.103985
0.00184396
0.080681
0.0795308
0.102996
-0.00464469
0.013201
0.016024
0.0191903
0.0197136
0.0667338
0.0536372
0.0752084
-0.023818
-0.0261959
0.0780468
0.0712824
-0.0188361
-0.000276422
0.0102161
0.0148541
-0.00281984
0.0198479
0.00648894
0.0231984
0.0366326
-0.00254122
0.0448299
0.00437183
-0.00439482
-0.00237867
0.00155301
0.00470988
0.00246666
0.000461665
0.00459552
-0.00659129
0.00312916
0.0236867
0.00644595
0.0764574
0.090712
0.0784991
0.0673253
0.129437
0.156777
-0.0195253
0.0466557
0.0259049
0.0804332
0.110919
-0.0351408
0.193812
0.0496458
0.0181551
0.0325391
0.074899
0.0298058
0.036106
0.0752515
0.0254617
0.0408858
0.0270783
0.0468756
0.0346574
0.025012
0.0730194
0.0248519
0.0542027
-0.00297331
0.0412486
-0.00174494
0.0262899
0.028095
0.0356598
0.0217783
0.016486
0.0459293
0.0303693
0.00666776
0.0411775
0.0464187
0.059861
0.0427756
0.0369585
0.0822479
0.0855372
0.0765626
0.0405509
0.0617552
0.0975926
0.00515566
0.0552088
0.0702435
0.00335523
-0.00478207
-0.00434999
0.00165107
0.00532707
0.00170345
-3.73319e-05
0.00337133
-0.00761657
0.00257047
0.00176152
-0.00619198
0.00371784
0.00653409
-0.00337511
0.00290155
-0.00775663
0.0180638
0.00373237
0.00767318
0.00764318
0.00957154
0.0136997
-0.036534
0.104545
0.0659488
0.0671894
0.14795
0.038101