/*--------------------------------*- C++ -*----------------------------------*\
| =========                 |                                                 |
| \\      /  F ield         | OpenFOAM: The Open Source CFD Toolbox           |
|  \\    /   O peration     | Version:  v2012                                 |
|   \\  /    A nd           | Website:  www.openfoam.com                      |
|    \\/     M anipulation  |                                                 |
\*---------------------------------------------------------------------------*/
FoamFile
{
    version     2.0;
    format      ascii;
    class       surfaceScalarField;
    location    "1.07";
    object      meshPhi;
}
// * * * * * * * * * * * * * * * * * * * * * * * * * * * * * * * * * * * * * //

dimensions      [0 3 -1 0 0 0 0];


internalField   nonuniform List<scalar> 
18811
(
0.00252148
0.000786954
9.08857e-05
0.00605456
-0.00294127
0.00695573
0.0050475
-0.00220003
0.0114101
0.00129176
0.00812759
0.00753596
0.00346674
0.00507999
0.0106759
0.00768963
-0.00243769
-0.00117212
0.0125099
0.016753
0.0109793
-0.00214763
-0.00656123
0.0209518
0.00950996
0.00168455
0.000954711
0.0115918
0.00902521
0.00490041
0.0168403
0.0127439
0.00266026
0.00368456
0.00758317
0.0178836
0.0109449
-0.00639155
0.0055843
-0.0017429
0.0121652
0.00242589
0.0243361
0.0223744
0.028955
-0.00958891
0.0167049
-0.000410339
-0.0106238
0.0326799
0.0107474
0.00256513
0.00171575
0.000964882
0.0162494
0.0183627
0.0037368
0.0237284
0.00718233
0.0269087
0.0195745
0.00239399
0.0111901
-0.00427478
0.00863687
0.0287604
-0.00841985
0.0132339
0.0088479
-0.00481379
0.00395128
-0.00099291
0.0195457
-0.00111214
-0.0118393
0.0348281
0.0283208
0.0358128
0.0399145
-0.0144645
0.0221519
0.00222006
0.000428079
-0.00756162
0.0404673
0.0025295
0.0116321
0.00327431
0.000718822
-0.000990743
0.00139739
0.0112579
0.0121257
0.0322238
-0.00222316
0.0365247
0.00461355
0.0364113
0.0122972
0.0325738
0.0223339
0.00404143
0.0175242
-0.0096575
0.00511781
0.01181
0.031798
-0.00614469
0.0106381
-0.00835291
0.0131634
-0.00405059
0.00658748
0.000143124
-0.0016388
-0.0165353
0.0307499
-0.00321954
0.0322039
0.00411855
0.0248227
0.0468706
0.0539453
0.0477141
-0.0181885
0.0266317
0.00481007
0.00308312
-0.00565143
0.0403479
0.00248235
0.00419575
0.0113385
0.00138132
-0.000435179
0.000892893
0.0256104
0.0109746
0.0292136
0.0341538
-0.0160483
0.0453525
0.0470562
0.00661855
0.00896602
0.048997
0.00991982
0.0409386
0.0146816
-0.016698
0.0279102
0.0112681
-0.00245859
0.053236
0.00786253
-0.00347142
-0.00626648
0.0122927
-0.00787943
0.0209843
0.000252857
0.00238669
-0.000697406
-0.0162424
0.0323839
-0.0164706
0.0480741
0.0211311
0.0322967
0.0178531
0.0602021
0.0443505
0.0124902
0.0397041
0.0568288
-0.0206776
0.0405753
0.000124164
0.0132255
0.00318593
0.0138664
0.0407522
0.00341158
-0.00351038
0.00125702
0.00615985
0.00752426
0.000514347
-0.000473874
0.00028053
0.0174351
0.0198593
0.0244852
0.0252677
0.0423556
-0.0272089
0.0493786
0.0155769
0.0480702
-0.0235354
0.0722922
0.057914
0.0337587
0.0254847
0.0184783
-0.0100531
0.0161038
0.0299479
-0.0117444
-0.00174874
0.039702
0.0275345
0.0144726
-0.00346517
0.0084043
0.00345079
-0.00119929
-0.00609055
0.0138747
-0.0115568
0.0214203
-0.0006233
0.000669749
-0.00662654
0.0301892
-0.0204843
0.046459
0.0234008
0.0300612
0.00253861
0.0490447
0.0480022
0.0298843
0.0244743
0.0358147
0.0602833
0.0549066
-0.0295582
0.0537152
0.0245718
-0.00232501
0.00495083
0.0178705
0.0046594
0.0553843
0.00159722
0.00407205
0.00520682
0.0225552
-4.2574e-05
0.0188835
0.0108674
0.0213374
0.00314683
0.0440602
0.0356077
-0.0312765
0.066246
0.0541052
0.0188814
0.0320915
-0.0379625
0.0721909
0.0568171
0.0302832
0.0316593
0.0281752
0.0281445
0.0281425
-0.0132817
0.0172656
-0.0255602
0.034978
-0.00371599
-0.00183066
0.0243594
0.032348
0.00267812
-0.00222766
0.00745936
-0.00552127
0.012676
-0.0149228
0.0158896
-0.00424257
0.0246974
-0.0108856
0.0346437
0.0395922
0.0107046
0.0346777
0.0334599
0.0264824
0.0302362
0.0602294
0.046601
0.0287185
0.0401372
0.0186925
0.0596193
0.0735529
0.0535314
-0.0320566
0.066788
0.0186514
0.00340997
0.0453266
-0.00552103
0.019
0.00523983
0.0440341
0.00110212
0.00403334
-0.000330508
0.0163172
-0.000203638
0.0136216
0.0156317
0.0133555
0.0227921
0.00784444
0.0332548
0.000623935
0.0347635
-0.0268691
0.0640966
0.0794079
0.0805683
-0.0403017
0.0735796
0.0345323
0.0260841
0.0230796
0.051657
0.0258956
0.0286493
0.0186414
0.0445208
-0.0110329
0.0191975
-0.0349113
0.0341878
-0.0113312
0.0115134
-0.00102783
0.0181692
0.0267497
0.00187522
0.00749192
-0.0015811
0.00911039
-0.0111673
0.0112828
-0.00256006
0.0174622
-0.00620052
0.0230529
-0.0123611
0.0269484
0.0319868
0.0347874
0.014853
0.0205989
0.0296469
0.0189867
0.0624589
0.0159002
0.0673197
0.0539241
0.0200548
0.0582919
0.0526123
-0.00669428
0.058909
0.047651
-0.0314834
0.054784
-0.00524606
0.053131
0.00539671
0.0124728
0.00758472
0.00406417
0.0423264
0.00203114
-0.000245143
0.0101015
0.00187653
0.00862652
0.0124576
0.0117625
0.0176571
0.0102581
0.00553176
0.0271963
0.016606
0.0187829
0.0376124
-0.030845
0.0661026
0.0744765
0.0794192
0.0613345
-0.0454405
0.0678466
0.0228619
0.0355904
0.0300404
0.0229086
0.0158805
0.04289
0.0249798
0.0231157
0.0559391
0.00566209
0.0550035
0.027309
-0.00747751
0.0172256
-0.01344
0.0313579
-0.0272213
0.0403625
0.00153206
0.0114586
0.0312515
0.00340791
0.00542753
-0.00569336
0.00828727
-0.00365261
0.0133029
-0.00392824
0.0173768
-0.0064302
0.0189426
0.0238896
-0.0142765
0.0255276
0.0107815
0.0169141
0.0301063
0.0159262
0.0219318
0.0250027
0.0793455
-0.00115494
0.0324203
0.0479144
0.0123148
0.0486906
0.0589834
0.010993
0.0529613
0.0513626
0.0481969
-0.0112801
0.053427
0.034822
-0.0405923
0.0522062
0.0322679
0.0278838
0.0647635
0.00860981
0.0091614
0.00477476
-0.00317497
0.0113876
0.00861891
0.0227889
0.00163072
0.00574144
0.0104775
0.0117251
0.00546616
0.0123616
0.0120052
0.00958065
0.0164465
0.0297085
0.0149859
0.0154153
0.0311374
0.0307412
-0.0378273
0.0671233
0.0233772
0.0594627
0.0622219
0.0585594
0.0597157
0.0368054
-0.0498232
0.0622334
0.023028
0.0296852
0.0193646
0.031666
0.0343676
0.0137939
0.0103491
0.0422953
0.0121667
0.0226592
0.0529752
0.00432214
-0.027664
0.0608539
0.0312967
-0.0100845
0.0237564
-0.016812
0.0301731
-0.0318782
0.0415528
0.000957761
0.00622405
0.0350012
0.00329946
-0.00255049
0.00943829
-0.00184779
0.0131842
0.0149665
-0.00254574
0.0212761
0.0219746
0.000314867
0.0166504
0.0104795
0.0195656
0.0261551
0.0141004
0.0171116
0.0132574
0.0174144
0.019783
0.0147548
0.0452852
-0.00200458
0.0656944
0.00157989
0.0551261
0.0205393
0.0382696
0.0562869
0.0546502
0.0101692
0.0420748
-0.00953104
0.0388888
0.0415111
0.0245962
0.0364501
0.00863885
0.0327577
0.0299586
-0.0419725
0.0511591
0.0207952
0.043799
0.0555343
0.0109527
0.00176398
0.00542193
0.00503082
-0.00610166
0.0171656
0.00841906
0.0265218
0.00218073
0.00863704
0.0115217
0.0180115
0.00421675
0.00326762
0.0190038
0.0189988
0.0202463
-0.00132984
0.0211228
0.0120489
0.0141298
0.0261777
0.0303562
0.0257965
-0.0384999
0.0611164
-0.0399133
0.0549722
0.0454142
0.0547445
0.0269004
0.00654873
0.0468973
0.0433133
0.030997
0.0241265
-0.0514059
0.0645182
0.0247332
0.016794
0.010611
0.0278176
0.0146497
0.0264286
-0.0101127
0.0344988
0.0261723
0.0385283
-0.000726549
0.0327549
-0.0232832
0.0569859
0.0321336
0.00557391
0.041447
0.019457
0.0256719
-0.0106762
0.0310605
-0.0297474
0.0403655
0.00480496
0.0115142
0.0150369
0.0113898
0.00375948
0.00835282
0.00122353
-0.00199476
0.014217
-0.0116028
0.0166804
0.0179253
0.00600606
0.013469
0.0059704
0.0145197
0.00996982
0.0112755
0.0241899
0.015099
0.0109569
0.0094065
0.0209007
-7.85086e-05
0.0256826
0.0127334
0.0189713
0.0334351
0.0614286
0.0415782
0.0140997
0.0686903
0.0161951
0.028942
0.021974
0.0201174
0.0446494
0.0511877
0.0170004
0.0348504
0.0310326
0.00354731
0.0238919
0.0251996
0.0235948
0.0105044
0.00498819
0.02089
0.0241768
0.0134002
0.0065521
0.0253833
0.0484711
0.0111237
0.0446006
-0.00844023
0.058695
0.0638428
0.00500935
0.0414138
0.00253057
0.0101655
-0.000861991
-0.0082867
0.024629
0.0148507
0.0161644
0.00370643
0.00141732
0.00690176
0.00582101
0.00331563
0.0128697
0.00442488
0.00476678
0.013295
0.0194063
0.0197317
0.0194558
0.0246771
0.0114324
0.0127514
0.0244349
0.0223473
0.000827409
0.0198743
0.026262
-0.0347796
0.0501783
-0.0296243
0.0606115
0.0254758
0.0339069
0.0680606
0.0376943
0.0394294
0.0473445
0.018961
0.0244627
0.0484085
-0.0283349
0.017143
0.0172552
0.00334042
0.0271874
0.0267756
0.00513985
0.0182963
0.0280396
0.0310624
0.0298405
0.0313925
-0.00397106
0.0286669
0.0577166
0.0375308
0.0470106
0.0143264
0.0315838
-0.0208549
0.0296848
-0.0273557
0.0332264
0.00512594
0.00324894
0.00763099
0.030805
0.00266131
-0.00189347
0.00942549
0.00468348
0.0134627
-0.00945602
0.0144889
0.0154576
0.00428827
0.00257058
0.0173399
0.0221656
0.0064462
0.0182238
0.0191584
0.00482367
0.0194879
0.00075279
0.0214218
0.0244959
0.0209534
0.00489507
0.0590603
-0.0067627
0.0372046
0.0210631
-0.00357988
0.0354215
0.0515522
0.0168914
-0.013061
0.0488842
-0.00282562
0.0403659
0.0300332
0.0155631
-0.00258904
0.0260691
-0.00902466
0.0609505
0.033046
-0.00470812
0.0214427
0.0219998
0.021995
0.0123965
0.0138444
0.0301497
0.0234433
0.0185886
0.0119753
0.0060205
0.022811
0.0175941
0.0131028
0.00620376
0.0217262
0.0357434
0.0254398
-0.00979266
0.0510908
0.0129202
0.0366364
0.0526845
0.047182
0.00539599
0.0314129
0.00410911
-0.00604926
0.0145522
0.000561603
-0.00926367
0.0196737
0.0173972
0.0130579
0.00232767
0.00142296
0.00810506
0.00477821
0.0114498
0.00355765
0.00122192
0.0143755
0.0160905
0.0187475
0.00261447
0.0195078
0.0208051
0.0197729
-0.00213896
0.0214825
0.019109
0.00609312
0.0180936
0.0267023
0.0219473
0.0422473
0.0314813
-0.0260823
0.0438214
0.030779
0.038433
-0.0301905
0.0497264
0.0201558
0.0127116
0.0260399
0.0262994
0.0269316
0.0116343
0.013565
-0.0437614
0.037437
0.0341447
-0.0105611
0.00578619
0.0151505
0.0271661
0.0036241
0.0177456
0.0317993
0.00264028
0.026662
0.026323
0.0246269
0.0228585
0.028124
0.0239099
-0.00148036
0.0226116
-0.0265011
0.0547924
0.0237871
0.0268684
-0.010191
0.0487982
0.0443722
-0.0216198
0.0300754
-0.0210002
0.0269816
0.00815312
0.00509586
0.000649202
0.0025979
0.0049513
0.00400555
0.0104491
-0.00625143
0.0101813
-0.00575285
0.0202539
0.010558
-0.00170835
0.0204147
0.0177456
0.000637443
0.0199747
0.0202136
0.00686305
0.0143581
0.005127
0.013724
0.0245564
0.00510991
0.0210587
-0.00266397
0.0240047
0.0475942
-0.00353681
-0.00666975
0.035926
0.0341164
-0.00344005
0.0325342
0.0439064
-0.00693814
0.0381904
0.0108943
-0.0202387
0.0378289
0.0192942
0.00562806
0.0167104
0.0085844
0.0024074
0.0231752
0.0292609
0.0496399
-0.00933434
-0.0147004
0.0511566
0.0373847
0.0321629
0.0289666
0.0222726
0.0089321
0.00143204
0.0243859
0.0241968
0.0213007
-0.00204196
0.0242279
0.0123219
0.0147981
0.021175
0.00780744
0.0142373
0.0368143
0.0210085
-0.0159263
0.041358
-0.0121283
0.0408324
0.0471155
0.00324851
0.0436364
0.0114973
0.0124426
0.0132291
-0.00248227
0.00824772
0.000318746
0.0161744
0.00207317
0.00151542
0.00696556
0.00462103
0.0109807
-0.000575383
0.0135869
0.00648916
-0.00579825
0.0166345
0.0127816
0.0074376
0.00138522
0.0161497
0.021127
0.0250006
0.0278214
0.00232453
0.0215236
0.0284725
0.0227234
0.0305334
-0.00610514
0.0363739
0.0190993
0.0119539
0.0223206
0.0308486
-0.0261432
0.0366912
-0.00671044
0.0422088
0.0206082
0.0232973
0.0301845
0.0103867
0.0178925
0.0375826
-0.038826
0.0327813
0.0248444
0.000120819
0.0113969
0.019784
0.00291629
0.024957
0.0229691
0.0295865
3.51577e-05
0.0234341
0.00825285
0.0150508
0.012336
0.0110204
0.0235897
0.0218753
0.00300078
0.0171015
0.0218103
0.0418954
-0.0252172
0.0481551
0.0308853
0.0167451
0.0365499
0.01344
0.025105
0.0206066
-0.011784
0.0253009
-0.0141494
0.0277452
0.00875061
0.00348346
0.0215836
-0.00315002
0.00261137
0.0029225
0.00470544
0.00801408
0.00539992
0.00765751
-0.00305594
0.0165488
0.0190765
0.0135493
0.0232988
-0.00319614
0.0238543
0.021351
0.00747178
0.0197536
0.0282664
0.00846212
0.0190728
0.0303056
0.0170075
0.0117207
-0.0341621
0.0244045
0.0163517
0.0175063
0.0274848
0.0418918
-0.0225687
0.0333802
-0.00347208
0.0320602
0.00437112
0.0328947
0.00550513
-0.0121195
0.0312587
0.00989874
0.0130834
0.0156553
0.0224492
0.0198409
0.00122957
0.0385003
0.0471923
-0.00997561
-0.00895832
0.0333819
0.0380509
0.0254228
0.02181
0.0240502
-0.00182061
0.0241398
0.0269857
0.00147997
0.021033
0.0271356
0.0107169
0.0117182
0.00671004
0.0142738
0.0275219
0.0213432
0.0225336
0.0218937
0.0269769
0.0290507
0.00247006
0.0466025
0.0412125
0.0437346
0.0116216
0.012043
0.0309289
-0.00276962
0.0105131
9.53017e-05
0.00551125
0.000510581
0.00891054
0.00145421
0.00211294
0.00697416
-0.00718255
0.0128572
0.00079083
0.012026
0.00435802
0.0119049
0.00683821
0.00131234
0.0122499
0.0133097
0.00956682
0.00932316
0.0141077
0.00220296
0.018733
0.0214976
0.0123751
0.0150692
-0.00724024
0.0253163
0.00931467
0.0201406
0.0257385
-0.00965869
0.031137
-0.00959666
0.0250662
0.016719
0.00923491
0.00943025
0.02805
-0.026027
0.0301613
0.0257557
0.00435814
0.0288167
0.0124763
0.0178542
0.0249905
-0.00737225
0.0215924
0.0062035
0.0152118
0.0249781
-0.0241878
0.0285726
0.0295989
0.0254334
-0.0293961
0.0218338
0.00721617
0.0112172
0.00406313
0.0201474
0.0247507
0.00170235
0.0214341
0.0246742
0.0189056
-0.00300442
0.0229266
0.0150127
0.0106901
0.0243797
0.0247524
0.0101836
0.0159352
0.0454337
-0.0155894
0.0425289
0.0339489
0.0305038
0.0214386
0.0219852
0.0180475
0.0276884
0.0198558
-0.00685256
0.0213561
-0.00859397
0.018838
0.00752645
0.00309656
0.015014
-0.00470255
0.00321847
0.00819792
0.0105222
0.00252983
0.00113251
0.0107506
0.0160334
0.0197653
0.0118272
0.0132057
0.0184801
-0.00547285
0.0190722
0.0127906
0.00810113
0.0127976
0.0209512
0.0224565
0.00286739
0.0214321
0.00232952
0.016773
0.015148
0.00887886
-0.0291883
0.0164603
0.0191066
0.0129612
0.0104328
0.0228026
-0.0272641
0.0346447
-0.000345337
0.0327062
-0.00293657
0.0263359
-0.0255803
-0.00312042
0.0148555
-0.00345064
0.00962777
0.0185955
0.00505915
0.0105239
0.00967794
0.0241835
0.0101633
0.0136635
0.0360017
-0.00471771
0.0211197
0.00834918
0.0266417
0.000316133
0.0362375
-0.0127551
0.0283232
0.034483
0.0286358
0.0253526
0.0174632
0.00199986
0.0216705
0.0200548
0.00239432
0.0193391
0.0196569
0.00610151
0.0167875
0.0132871
0.00985876
0.027557
0.0122283
0.0335531
0.0211263
0.0207354
0.0338994
-0.00157033
-0.00189483
0.0309617
0.0422712
0.040362
0.0119717
0.00944587
0.0289577
-0.010401
0.00414231
0.0039763
0.00105988
0.00173943
0.00216504
0.00562162
0.00297815
0.00829008
-0.0041411
0.0146501
0.0116284
0.00399872
0.0152658
0.00904509
0.00271487
0.00392741
0.00899126
0.00304151
0.014913
0.0215066
0.0249437
0.00589515
0.0144555
0.0044439
0.0169371
0.022001
0.022483
0.0219156
0.020154
-0.0132454
0.0270315
-0.00101706
0.0185589
-0.00848489
0.0176278
0.0151615
0.00616536
0.0422884
-0.0112765
0.0312101
-0.0267431
0.0232016
0.0259253
-0.00210047
0.0132133
0.0200642
0.0235143
0.0137697
0.0189391
-0.0119752
0.0203106
0.00734507
0.0152881
0.0198123
0.0139164
0.0247174
0.0238002
0.0247607
-0.0335281
0.0359406
0.00498913
0.0231249
0.000851575
0.0128875
0.0141168
0.0106752
0.0131443
0.0267745
0.0228524
-0.00601786
0.0238203
0.0198849
-0.00158534
0.0241971
0.0248284
0.0103921
0.0157369
0.0102722
0.023251
-0.00686207
0.0271275
0.0305649
0.03004
0.0255444
0.0229948
0.00703633
0.0369582
0.0109743
0.0298731
0.0159953
-0.00363792
0.014948
-0.00439733
0.00522551
0.00999949
0.0033922
0.00257
0.00558898
0.00817314
0.000218452
0.00591864
0.00828218
-0.00394635
0.0150578
0.0183793
0.0108924
0.01262
0.0107785
0.0143904
0.00285653
0.0179446
0.00776619
0.0162513
0.0180622
0.0236719
-0.00180297
0.0224753
-0.00106378
0.0221374
0.00634334
0.0146053
0.014226
0.00441208
-0.0236117
0.00833772
0.0189961
0.00579459
0.0162716
0.00898029
0.0158453
0.000583317
0.0188235
-0.0272366
0.0139024
0.00223223
0.0325545
-0.0099292
0.0196196
-0.0244082
0.0284033
-0.0182044
-0.00554451
0.0102658
-0.0106014
0.022921
0.00697509
-0.00219134
0.0210515
-0.00475071
0.0185898
0.0168189
0.00664964
0.0205086
-0.00702317
0.0325375
0.0230656
0.00208055
0.0302378
-0.0317281
0.038302
0.0248567
0.0219291
0.0253815
0.0190063
0.0197447
0.00357199
0.0185584
0.00601095
0.016363
0.003222
0.0200003
-0.00658341
0.0204407
0.0341925
0.0133906
0.0123928
0.0155031
0.0142412
0.016592
0.010158
0.00204355
0.021184
0.0135946
0.00751197
0.00338195
0.03496
0.0338673
0.0117041
0.00681918
-0.00908058
0.0141197
0.000366815
0.00435643
0.00251064
0.000321809
0.00591267
-0.0049245
0.0127514
0.00970443
0.00565396
0.0120818
0.0160179
0.00710868
0.00499259
0.00603489
0.00446362
0.00691813
0.00673164
0.0183738
0.00607537
0.0110951
0.023398
0.0145059
0.00752331
0.0200224
0.00504841
0.0159087
0.0185057
0.0186247
-0.019245
0.025283
-0.0164849
0.020332
0.0118694
0.00264299
0.0194333
0.018389
0.0144787
0.00277083
-0.0183126
0.0293508
-0.0270372
0.0265647
0.00408171
-0.0247129
0.0148665
0.0255972
-0.00836401
0.00155734
-0.029207
0.00869416
0.0176743
-0.0126
0.0210461
0.00816605
0.0196775
0.0171623
0.0148102
0.0106189
0.00646496
0.0253429
-0.0167292
0.0253727
0.0238295
0.0165522
0.0233679
0.00894999
0.000715938
0.0397028
8.14554e-05
0.00253904
0.0178487
0.00271935
0.0209479
-0.00532609
0.0222281
0.0217293
-0.00386884
0.0205801
-0.0114318
0.0159358
0.0180967
0.011663
0.0211459
0.0127664
0.0210956
0.0275952
0.02441
0.0263397
0.0216225
-0.011211
0.0181598
-0.0123067
0.0127367
0.00685284
0.0368638
0.00701423
0.0269655
0.00271291
-0.00116227
0.00900782
0.0192238
-0.00551343
0.00163748
0.00406731
0.000996117
0.00184942
0.00645712
0.0102564
0.00175619
-0.00392471
0.0130137
0.0172356
0.0113902
0.0131937
0.0104582
-0.00361256
0.00784975
0.0159492
0.00875761
0.00867896
0.0188986
0.0120264
0.0102273
0.021712
0.0181892
-0.00150506
0.0199525
-0.000919454
0.0154669
0.00964496
0.00782127
0.0177713
-0.000879743
-0.00394403
0.00645454
0.0138389
0.00490717
0.0146868
0.014777
0.00189024
0.0186925
0.00605862
-0.0019032
-0.0272593
0.0279767
0.0225728
-0.00874176
0.00986653
-0.0203078
0.021054
-0.0220285
0.0260146
-0.0194469
-0.0156505
0.021619
0.00218704
-0.00406733
0.018999
0.0145096
-0.00116051
0.0192944
0.0122932
0.00938864
0.0171387
0.00347929
0.0221137
-0.00698839
0.0255636
0.0176183
-0.0146859
0.0250292
0.0268444
-0.0180163
0.0192212
0.0190026
0.0139138
0.0164814
0.0186038
0.00417017
0.0146134
-0.00190614
0.0164142
0.0153767
0.000819661
0.0249155
0.00252234
0.016473
0.0278552
0.0165368
0.00919806
0.00953121
0.0116394
0.00587629
0.0195689
0.0112402
0.00686535
0.0092355
0.00564486
0.00506449
0.00717534
0.00311094
0.0116974
0.00981781
0.0279459
0.0369759
-0.00724445
0.010229
0.00206399
0.00434788
0.000245877
0.00203074
0.00435285
0.000211026
0.00141618
-0.00283121
0.00469903
0.0139346
0.00657631
0.00969679
0.0169542
0.00590203
0.00652953
0.00450803
0.00520011
0.00412271
0.00342557
0.00771674
0.0069564
0.00976393
0.00792458
0.0187459
0.00874687
0.0116287
-0.00591623
0.0224923
0.0172956
0.0218847
0.0123787
0.0130342
-0.0194095
0.022421
-0.018476
-0.013867
0.0171234
-0.00920209
0.0220723
-0.0125973
0.0129428
0.0179746
-0.00115261
-0.0177935
0.0213797
0.0242831
-0.0288873
-0.00617623
0.027593
-0.00174944
-0.0194824
0.0103438
0.0244864
-0.0165385
-0.0010469
0.00168272
0.00231175
0.021509
-0.00227333
0.0180858
0.0149109
0.0158338
0.0214297
-0.00444903
0.0146692
-0.00374147
-0.010642
0.022467
0.021364
0.00515963
0.0162543
-0.00655698
0.025568
0.0197768
0.00162741
0.0263453
-0.000299859
0.0131538
0.00377039
0.0249349
-0.0060842
0.0204459
0.0209037
-0.00529662
0.0180038
0.0114833
0.015211
0.0156788
0.00713692
0.0160994
0.0177929
0.0328333
0.0233132
0.0270702
0.0193612
0.0129308
-0.00734565
0.00882619
-0.00598353
0.00998171
-0.00664287
0.00753477
-0.00121032
0.0304027
0.0209177
0.0160886
0.00683742
0.0101394
-0.00599851
0.00100984
0.00283791
0.000868297
0.000655238
0.00223334
0.00234898
-0.00622194
0.0186984
0.0181537
0.00951564
0.0125482
0.0101267
0.00863718
0.00536422
-0.00798157
0.0134198
0.0154756
0.0114221
-0.00470649
0.0148285
0.015653
-0.0053702
0.0207352
0.0115606
0.00853569
-0.0130939
0.0233467
0.0261658
-0.0153803
0.00305028
0.00635019
0.0050253
0.00626802
0.00754882
-0.00189041
0.019494
0.00779331
-0.00954158
-0.0236363
0.0148035
-0.0257497
0.0215635
-0.0152321
-0.0183171
-8.40088e-05
-0.021276
0.0216704
-0.0223825
0.022443
-0.0230798
-0.0159094
0.0118658
0.000439329
-0.00829902
0.0206543
0.0169872
-0.0029342
0.0155938
0.0105982
0.0158628
0.00856787
0.00919801
0.0124552
0.014896
-0.00463144
0.0226824
0.0224633
-0.00420463
0.0249283
0.0229459
0.0119382
-0.0123144
0.0163217
0.01316
0.0137933
0.00717982
0.00875337
-0.0114583
0.0209857
-0.00556203
0.0190152
-0.0162545
0.0208896
-0.0041787
0.0185763
-0.00437174
0.0202003
0.00847886
0.0230262
0.0179091
0.0021043
0.00552462
0.0194395
0.0100128
0.00452985
0.000865653
0.00800665
0.00477814
0.00297154
0.00130296
0.00543335
-0.00058417
0.00046432
0.0140323
0.0169789
0.0282933
0.0302156
0.000728428
0.000635719
0.000756429
0.0038544
0.00314972
0.000861273
0.00929689
0.0106256
0.00593408
0.0183778
0.00409591
0.00721785
0.0129103
5.36608e-05
0.0078986
0.00491865
0.0103879
0.00157675
0.000522081
0.0135857
0.0211289
0.0139523
-0.00136838
0.0151409
0.00810203
0.0111047
0.0150887
-0.0206355
0.00304601
-0.0194709
0.0182081
-0.0137066
0.0284386
-0.0264654
-0.0156607
0.0198678
0.0178688
-0.01207
0.0134525
0.0165015
0.000212685
0.0265433
-0.0207156
0.0141283
0.0307947
-0.0187716
0.00225937
-0.0014738
-0.0196495
0.00356999
0.0238191
-0.0267338
-0.00179262
-0.00251411
-0.0289841
0.00296818
0.0222515
-0.0125268
0.0150795
0.0109388
0.0154955
0.00188665
-0.0143975
0.0226312
0.000850582
0.0169719
-0.00821904
0.0186433
0.0150921
0.0183277
-0.00336242
0.0162932
0.0209671
0.00304519
0.0158215
0.0100191
0.0107794
0.0128416
-0.00808676
0.00664896
-0.00345414
0.0171275
-0.00541476
0.0165138
0.0188345
-0.0075362
0.0145279
0.013454
0.000395636
0.0145613
0.0125524
0.018255
-0.000136481
0.0265451
0.00333384
0.0113008
0.0189231
0.00991355
0.00832372
-0.00555618
0.004053
0.00559266
-0.00314756
-0.00423773
0.00419354
-0.00462962
0.00173205
-0.00360519
0.000924693
0.0282383
0.00351635
0.0240362
0.021001
0.00915512
0.00474409
0.00157986
0.00091422
0.00214034
0.00161863
-0.00948436
0.0167554
0.0176424
0.00653069
0.0155751
0.00208741
0.00949989
0.00871808
0.0064643
0.0160356
0.0180713
0.000756565
-0.00578839
0.0174715
0.014584
0.00748866
-0.0046307
0.0142015
0.0149204
-0.001409
0.0195672
-0.0187218
0.00141724
0.000572593
0.0119497
-0.0096847
0.00546733
-0.0153564
0.025651
-0.0201028
0.0172823
-0.0178704
-0.0306805
0.00872349
0.026458
-0.026911
-0.0278578
0.0233157
0.0209224
-0.0196127
-0.0168545
-0.0122573
-0.0206416
0.0237044
-0.0291922
0.0205238
-0.0196515
0.000374462
-0.00850306
0.0172406
-0.00132397
-0.0136387
0.0131367
0.00670986
0.00285439
0.0158004
0.0159229
0.00451957
0.0123891
0.000657125
0.0172368
0.0231854
0.0197432
0.02336
-0.0167327
0.00812798
-0.0107645
0.0121862
0.00966256
0.00748627
0.0122621
0.0142109
-0.00113562
0.0122936
-0.000510864
0.0109454
-0.00282507
0.0150863
0.0151171
-0.00442991
0.0131418
0.0089455
0.0154835
0.0082881
5.77649e-05
0.000980949
0.0151012
0.00310067
0.0029783
-0.00305886
0.00493827
-0.00979011
-0.00123005
-0.00387038
7.98722e-05
-0.00459367
0.00104255
-0.00290627
-0.00452426
0.0040683
-0.00821188
0.0188354
0.00992495
0.0239037
0.0134925
0.00872346
0.0279346
0.000115764
0.00156898
0.00023614
0.00166864
0.0178022
-0.00301167
0.0205332
0.0128213
-0.000238571
0.000715524
0.00739735
0.0015199
0.00588778
0.00231433
0.00345456
0.0159809
-0.00354741
0.0136986
0.011574
0.0127879
-0.000367112
0.0178133
0.0112162
-0.0249725
0.00365318
-0.026722
-0.0186522
0.0171488
-0.00936062
-0.0225009
0.00988047
0.0231767
-0.0205429
0.00462605
0.00216242
0.015095
0.000158949
-0.0284551
0.00808453
-0.0115352
0.0275596
-0.0212007
-0.00402808
-0.00208238
-0.00744737
-0.0154675
-0.00526772
0.00951813
-0.0246912
0.000611991
-0.0110719
-0.0308375
0.00852783
0.0131891
-0.0233736
0.0124631
0.0155191
-3.75866e-05
0.0118772
-0.00621875
0.0176649
0.0170969
-0.0125949
0.0203178
0.00642709
0.010391
0.0230946
0.00153678
0.0122168
0.0202029
0.00451874
-0.00409498
0.0246512
0.0201492
-0.00843345
-0.0121986
0.00107291
-0.00621588
0.0162141
-0.00518366
0.0130949
0.0145444
-0.0089695
-0.00508247
0.0151274
0.00726108
0.0118114
-0.015521
0.0129277
-0.0111118
0.0198585
-0.0201365
0.0144114
0.00875234
0.0174513
-0.0066352
0.020494
0.0142627
0.00809343
0.0118242
0.00275156
-0.0119272
0.0116465
-0.0181806
0.00130549
-0.00247894
0.00190853
0.00291538
-0.00191198
-0.00274687
-0.0016374
0.000214689
-0.0076573
-0.0110172
0.0305771
0.0177345
0.00543842
0.0250211
0.0202659
0.00761807
0.0018395
0.000711551
-8.17978e-05
0.00125649
0.0153938
0.00161094
0.0110369
0.0118764
0.00748428
0.00691231
0.0029013
0.00831913
0.0191123
-0.00820477
-0.0162524
0.023017
0.0152643
-0.00239803
-0.00466617
0.0139891
-0.0212841
-0.032659
0.00205971
-0.00629676
0.0165321
-0.0292182
0.0290008
-0.022515
0.0209279
-0.0191954
-0.0191121
0.0186703
-0.0183715
0.0163922
-0.0251984
-0.0300022
0.0157019
-0.0250142
0.00183219
0.0238133
-0.0308652
0.0250424
-0.0299352
0.0206793
-0.0307683
0.0128766
-0.0203406
-0.0268576
-0.0267454
-0.0222963
0.00899655
-0.0158959
-0.0126872
0.0155197
-0.00513643
0.0138951
0.0234828
-0.014022
0.00933057
0.000257612
0.00789305
0.0130522
0.00900155
0.00909131
0.00308803
0.00865628
0.00465286
0.0207648
-0.000102484
0.0265408
0.0304934
0.00873596
-0.0187036
0.0119436
-0.0123226
0.00879566
0.00911216
0.00216642
0.00858051
-0.0102463
0.0154684
-0.000719059
0.000127325
-0.00349609
0.0112088
0.00049119
0.0175565
0.00824995
0.00352669
0.0143908
0.0154068
0.00136636
0.00199756
-0.001018
0.00924342
0.00368613
-0.007378
-0.000588167
-0.0156739
-0.0139999
-0.00856827
0.00892979
-0.0131952
-0.000205001
-0.00197487
-9.39338e-05
0.000952703
-0.00415213
-0.00940217
0.000567545
-0.0153793
0.0192825
0.0119397
0.0249727
0.0225761
0.000505689
0.0268342
0.000819387
0.00105229
-0.0138539
0.0119998
0.00494158
0.00354925
0.0155173
-0.0086024
0.0101334
0.00173805
0.00417761
0.00382487
-0.0140654
0.0177503
0.00350203
0.0046602
0.0159483
-0.00442643
0.00913417
-0.0306901
0.00564059
-0.0322429
-0.0205467
0.0117017
-0.00622234
-0.00384041
-0.0244071
-0.000544475
-0.000883437
-0.0254853
0.00345948
-0.00236896
0.00140216
-0.00752053
-0.0193278
-0.0111015
0.0250385
-0.0251412
-0.00996074
-0.00890196
-0.00747457
-0.0127756
-0.029981
-0.000646869
-0.0347444
0.00365607
-0.0287744
0.0169901
-0.035846
0.0148633
-0.0227101
-0.00230096
0.015128
-0.00767226
0.013598
0.0200981
-0.0152764
0.000994109
0.0136996
0.0134338
0.000982197
0.00852128
0.0102798
0.0236633
-0.0043197
0.00415829
0.00771206
0.0200321
0.0151202
0.0167009
-0.0191313
-0.000196183
-0.00823212
-0.0102956
-0.002471
-0.0117802
0.0177461
0.0126762
-0.0055407
0.0125182
-0.00778335
0.0140944
0.00468872
-0.0169827
0.0124989
-0.0163814
0.0141949
-0.0151605
0.00927208
0.0124006
-0.0147813
0.0142476
-0.00835784
-0.00501346
0.0163999
0.0109001
0.00631734
0.000580095
-0.00366118
-0.0183222
-0.0186513
0.0110711
-0.0243116
-0.0259153
0.00722631
-0.00107868
0.00071273
-0.0014402
-0.00109061
-0.000771899
-0.00424882
-0.00472523
-0.00599047
-0.00331972
-0.0142503
0.0276421
0.0206687
0.00350087
0.0145521
0.0196772
0.0214668
0.00532911
-0.000313211
-0.000985068
0.00136381
-0.00588444
-0.00831465
0.00821132
0.00361708
0.00330276
0.00318949
0.0046154
0.0056777
0.0022738
0.0147807
0.0160584
-0.0167275
-0.0198478
0.0107523
0.0227428
-0.020192
-0.0216527
-0.0302228
-0.00613179
-0.0161758
0.022153
-0.0310927
0.018563
-0.0247794
0.0275645
-0.0308443
0.0186309
-0.0220092
0.017647
-0.0160973
-0.0222498
0.0172333
0.0184537
-0.019832
0.0237332
-0.0351033
-0.0234844
0.00235881
0.014756
-0.0275464
-0.0120828
0.0263957
-0.0402352
0.0197001
-0.0313183
0.0295788
-0.0404046
-0.022709
0.00768027
-0.0300193
-0.0344704
-0.0148996
-0.0159459
0.0169231
-0.00401029
-0.00710928
0.0123042
0.00964026
-0.00502916
-0.0206875
0.00219885
-0.00290616
0.0180597
0.0125424
0.0043207
0.00532642
0.00596141
0.0146945
0.0107376
-0.00681746
0.0253152
0.00432845
0.0169119
-0.0241527
0.0105769
-0.0208199
0.00842469
-0.0121506
-2.01758e-05
0.00917614
-0.00787338
-0.0200126
0.0197334
-0.0122785
-0.00303069
0.0193538
-0.0125509
0.0187976
-0.00891946
0.00206105
0.00785852
0.00421979
0.00823923
0.0108225
0.000316566
0.00103369
0.00430709
-0.00988354
-0.0211481
0.0113398
0.00623641
-0.0285072
0.00181876
-0.0235687
-0.019882
-0.0214565
-0.0188323
-0.00119679
-0.00245508
-0.00221149
-0.00264867
-0.00813059
-0.0111593
0.00266835
-0.0188523
0.0143285
0.0136614
0.0242142
0.0174516
-0.00559238
0.0226822
-0.00472081
0.0196136
0.000214897
-8.4335e-05
0.000906399
0.00428332
-0.00313401
0.0091868
0.0115267
-0.0113656
0.013468
-0.0160242
-0.0050014
0.00713198
0.00151214
0.00293987
0.00294686
-0.00960972
-0.00306503
-0.0153124
0.0134151
-0.0381292
0.0220936
-0.0313578
0.00331608
-0.0153347
-0.000194274
-0.0203963
-0.006231
-0.00638676
-0.0245206
0.00628345
-0.00517907
-0.0129319
-0.017608
0.034111
-0.0338977
0.00435612
0.0178805
-0.0324487
-0.0237207
-0.00505066
-0.0259048
-0.0340247
0.000634134
-0.0316496
-0.00663832
0.0182902
-0.0372053
0.0200501
-0.0396061
0.0203204
-0.0272795
0.010891
-0.0200976
-0.0106413
0.0190937
-0.0123774
0.0115004
-0.0133825
0.0135444
0.00557675
0.014183
0.000549967
0.0133913
0.00487802
-0.000522057
0.00707687
0.00264791
0.00359618
0.0201924
0.0175003
-0.00180275
0.00385347
0.0223627
0.021404
-0.0156794
-0.0135739
-0.0122409
-0.000568579
-0.0173092
0.014348
0.0155007
-0.00920534
0.00448506
0.00405555
-0.0224701
0.00271068
0.0152096
-0.0208172
-5.18598e-05
-0.0191202
0.0073788
-0.019735
-0.0120295
-0.00559116
0.0107487
0.00607356
-0.000546036
-0.00509455
-0.0298961
-0.0228854
-0.0377099
0.0127781
0.0141355
-0.0394614
-0.0348206
0.00973678
-0.000675476
-0.000488724
-0.00178514
-0.000879746
-0.00505461
-0.000264976
-0.00854038
-0.0122042
-0.00118557
-0.0185984
-0.0044822
0.0184597
0.0178223
0.00571474
0.00911451
0.0143515
0.0118816
-0.00853882
0.0281497
-0.000402109
0.00222373
0.000540097