/*--------------------------------*- C++ -*----------------------------------*\
| =========                 |                                                 |
| \\      /  F ield         | OpenFOAM: The Open Source CFD Toolbox           |
|  \\    /   O peration     | Version:  v2012                                 |
|   \\  /    A nd           | Website:  www.openfoam.com                      |
|    \\/     M anipulation  |                                                 |
\*---------------------------------------------------------------------------*/
FoamFile
{
    version     2.0;
    format      ascii;
    class       volScalarField;
    location    "150";
    object      omega;
}
// * * * * * * * * * * * * * * * * * * * * * * * * * * * * * * * * * * * * * //

dimensions      [0 0 -1 0 0 0 0];


internalField   nonuniform List<scalar> 
12639
(
0.302533
0.299943
0.332299
0.311723
0.299452
0.358357
0.337621
0.312158
0.310984
0.390023
0.358471
0.325714
0.314921
0.314416
0.360801
0.392416
0.350358
0.405543
0.328578
0.325641
0.324861
0.348869
0.369589
0.380156
0.419652
0.340704
0.334276
0.333372
0.330545
0.298124
0.370588
0.428008
0.373562
0.403187
0.342829
0.345619
0.343953
0.341297
0.324576
0.302876
0.338413
0.449317
0.399518
0.397147
0.346728
0.351896
0.356081
0.353979
0.348871
0.340352
0.313191
0.301992
0.353672
0.459093
0.414141
0.367161
0.462849
0.357065
0.355625
0.367103
0.362506
0.359417
0.347343
0.342073
0.306256
0.295929
0.309669
0.345039
0.456307
0.386853
0.386691
0.483716
0.36879
0.368865
0.375697
0.372513
0.367692
0.357634
0.356421
0.318258
0.317234
0.327443
0.313826
0.393158
0.461417
0.421059
0.560472
0.381449
0.375918
0.385526
0.379949
0.367991
0.380552
0.367358
0.341872
0.323996
0.335676
0.327416
0.329408
0.358208
0.444856
0.54463
0.386943
0.390964
0.381975
0.390242
0.380915
0.394824
0.381745
0.349844
0.327189
0.336243
0.353692
0.347163
0.400216
0.379379
0.536692
0.586978
0.399118
0.404148
0.398438
0.400002
0.39342
0.408228
0.395841
0.352572
0.336723
0.325139
0.347072
0.363857
0.369525
0.376998
0.410756
0.546426
0.594239
0.409508
0.415269
0.404351
0.411274
0.405522
0.412354
0.423018
0.410292
0.362294
0.345392
0.340045
0.353149
0.365573
0.380148
0.422778
0.386121
0.465671
0.390781
0.666677
0.41673
0.419827
0.43062
0.421175
0.427805
0.421061
0.431332
0.436373
0.426394
0.369828
0.345244
0.34389
0.363778
0.377545
0.38529
0.387628
0.413599
0.399564
0.507543
0.402071
0.673066
0.432116
0.431474
0.44494
0.429345
0.443293
0.435381
0.443314
0.451508
0.433665
0.437479
0.372736
0.38046
0.355298
0.356544
0.364463
0.396889
0.401888
0.446437
0.40372
0.358044
0.736706
0.433392
0.598867
0.434048
0.443252
0.441158
0.458368
0.436839
0.462684
0.452968
0.461808
0.461776
0.456726
0.455492
0.384483
0.391899
0.365207
0.376426
0.406621
0.412078
0.386395
0.407738
0.412172
0.408506
0.735748
0.434322
0.655134
0.448516
0.455365
0.45075
0.443911
0.469299
0.46575
0.441526
0.484881
0.467787
0.4792
0.486996
0.474606
0.391708
0.403823
0.37581
0.367048
0.388795
0.422011
0.410506
0.423817
0.413903
0.424428
0.423378
0.382
0.491075
0.977978
0.432742
0.418999
0.4554
0.468707
0.459815
0.454574
0.483805
0.484547
0.450534
0.508675
0.48816
0.499401
0.503372
0.496351
0.408895
0.414931
0.387897
0.38494
0.402172
0.435328
0.42978
0.435116
0.431788
0.429353
0.430474
0.392996
0.545752
0.951236
0.435687
0.560476
0.466098
0.479849
0.469848
0.462065
0.456717
0.49666
0.500154
0.45372
0.514163
0.531778
0.526444
0.532588
0.521696
0.420375
0.430679
0.399981
0.39471
0.416259
0.44172
0.448853
0.445228
0.435924
0.43608
0.439249
0.409416
0.710913
1.08466
0.373247
0.474302
0.496334
0.480807
0.471486
0.465939
0.512914
0.515707
0.459547
0.538181
0.562041
0.555391
0.529926
0.557545
0.562816
0.439478
0.447424
0.412269
0.4118
0.427813
0.45966
0.461996
0.450649
0.451519
0.431225
0.442775
0.448863
0.413809
0.774899
1.08283
0.518485
0.486463
0.506715
0.488092
0.479735
0.469855
0.528164
0.53954
0.460442
0.46525
0.558641
0.601253
0.593711
0.567842
0.597231
0.600873
0.451592
0.444129
0.465344
0.427382
0.426858
0.469178
0.470844
0.474387
0.463208
0.461487
0.444477
0.45119
0.455871
0.400833
0.711963
1.09006
0.419003
0.499174
0.520569
0.498679
0.485444
0.484651
0.480156
0.465704
0.543752
0.561525
0.44669
0.47292
0.582534
0.635826
0.628091
0.598028
0.630638
0.670222
0.472779
0.463919
0.483834
0.44214
0.442729
0.485225
0.493268
0.477555
0.488653
0.471844
0.46844
0.453083
0.439878
0.458404
0.46386
0.49428
0.999912
1.20949
0.558154
0.509694
0.526811
0.507637
0.501224
0.4952
0.493587
0.484355
0.474961
0.557718
0.549904
0.573389
0.480082
0.377059
0.612542
0.682038
0.627228
0.67741
0.644026
0.681871
0.706883
0.492437
0.48311
0.457526
0.50287
0.457674
0.500141
0.506924
0.490477
0.503387
0.478915
0.478763
0.45908
0.450951
0.467117
0.470558
0.873183
1.18152
0.461971
0.512205
0.53889
0.518582
0.50931
0.498266
0.497299
0.492605
0.481195
0.575461
0.563049
0.60203
0.467144
0.475503
0.636409
0.697715
0.710454
0.677958
0.725656
0.702939
0.812082
0.521971
0.498605
0.467174
0.521957
0.480598
0.518742
0.530491
0.488795
0.500827
0.519729
0.505675
0.486209
0.466969
0.453657
0.472146
0.477971
1.01843
1.33741
0.635287
0.530152
0.540718
0.515328
0.528744
0.511899
0.506824
0.50502
0.496148
0.486232
0.576877
0.592597
0.55783
0.628859
0.60397
0.387527
0.490111
0.861916
0.678587
0.749237
0.762727
0.700202
0.788817
0.834821
0.538301
0.530148
0.486599
0.521986
0.543589
0.514175
0.535187
0.542215
0.49685
0.510968
0.535524
0.522965
0.484005
0.495554
0.47313
0.468921
0.45685
0.480817
1.30727
0.588729
0.535568
0.523398
0.534587
0.519291
0.509024
0.508301
0.492763
0.504717
0.488079
0.590604
0.607718
0.568066
0.656406
0.634697
0.417854
0.486355
1.07689
0.708619
0.798437
0.800507
0.756505
0.862825
0.814172
0.927799
0.577185
0.5598
0.498411
0.549323
0.572121
0.577304
0.553956
0.566179
0.506746
0.523147
0.532669
0.555175
0.529843
0.493812
0.502416
0.482774
0.478447
0.440396
0.487373
1.54045
1.11897
0.250475
0.547716
0.531146
0.544285
0.536903
0.52261
0.516464
0.516354
0.497801
0.50918
0.495711
0.587542
0.62503
0.562205
0.691105
0.649856
0.429869
0.455761
0.497653
0.976644
0.759074
0.881436
0.876119
0.789494
0.988816
0.997609
0.924124
0.599884
0.580517
0.577069
0.54194
0.589218
0.602532
0.574172
0.513632
0.53088
0.55142
0.569262
0.545533
0.495332
0.511049
0.487568
0.485991
0.485507
0.529755
1.55111
1.10075
0.340509
0.53461
0.552321
0.546318
0.530113
0.522304
0.503264
0.515926
0.508044
0.601182
0.621837
0.647103
0.575664
0.717603
0.683704
0.566606
0.458594
0.501462
1.75778
0.79329
1.00457
0.912349
0.922601
0.860473
1.20264
1.26096
0.64668
0.615412
0.61916
0.620555
0.676413
0.5973
0.523676
0.543931
0.556455
0.587554
0.551982
0.502152
0.517738
0.49559
0.492596
0.491312
0.495167
0.317396
1.78624
0.543384
0.561777
0.549819
0.533626
0.529386
0.521438
0.503214
0.517542
0.51276
0.595253
0.637369
0.669154
0.57125
0.767377
0.698255
0.770193
0.465393
0.506833
1.74746
0.85642
1.23388
1.02815
1.02323
0.899864
1.51833
0.649164
0.676465
0.634812
0.696191
0.624801
0.653602
0.729596
0.600078
0.528214
0.550056
0.576681
0.596325
0.567148
0.508756
0.519068
0.497627
0.494179
0.496485
0.495792
0.497142
0.413282
1.77325
0.545583
0.566229
0.559298
0.540788
0.534066
0.528155
0.508235
0.522421
0.513028
0.608566
0.661651
0.62751
0.583826
0.801244
0.725582
1.69335
0.855916
0.41309
0.526418
0.505545
0.897916
1.17694
2.02734
1.07899
1.08145
0.992953
0.701457
0.727592
0.707038
0.778538
0.655246
0.695697
0.860144
0.624854
0.536931
0.545856
0.562076
0.580666
0.619789
0.57118
0.515303
0.509404
0.529048
0.504733
0.500339
0.501772
0.501502
0.493046
0.48047
1.54368
2.14342
0.552158
0.576397
0.562314
0.541979
0.534205
0.528924
0.520989
0.526881
0.517185
0.604398
0.677776
0.638599
0.594293
0.583507
0.867562
0.788974
0.758644
0.726772
0.467564
1.95346
0.43738
0.518385
0.513053
0.982622
1.53292
4.76525
1.24677
1.22089
1.04184
0.751723
0.765193
0.766323
0.74976
0.941635
0.694414
0.652287
0.923178
0.536158
0.554129
0.565186
0.599956
0.636701
0.584455
0.521442
0.515999
0.529068
0.50673
0.503693
0.508196
0.500555
0.494904
0.335512
1.84018
0.558445
0.547805
0.579898
0.57193
0.540665
0.534466
0.525034
0.530409
0.518426
0.622035
0.701115
0.656692
0.601316
0.594134
0.909058
0.85393
0.788819
0.75462
0.738423
2.16462
0.518346
0.428742
0.517023
1.03436
1.51099
2.4592
1.31265
1.30102
1.17038
0.853951
0.894139
0.842039
0.805932
1.0156
0.734058
0.681618
0.543842
0.551573
0.574758
0.597412
0.621905
0.664975
0.585131
0.520697
0.517972
0.535221
0.511941
0.508779
0.510427
0.506702
0.466787
0.540783
2.94191
0.562814
0.551555
0.590068
0.571274
0.546567
0.53808
0.534946
0.529527
0.523494
0.519974
0.624759
0.701191
0.660693
0.613561
0.598624
0.982812
0.880496
0.821792
0.748129
1.41459
0.518618
0.474423
1.1538
2.0503
5.86253
1.61854
1.49932
1.24334
1.03165
0.893439
0.87454
0.81311
1.18757
0.789828
0.720116
0.680793
0.543166
0.558378
0.576193
0.611734
0.641187
0.678708
0.595663
0.526946
0.517038
0.523995
0.532286
0.51117
0.511074
0.51455
0.506897
0.475239
0.678809
2.79024
0.559223
0.550572
0.593632
0.577027
0.549899
0.541683
0.538624
0.533367
0.526313
0.524651
0.642511
0.725224
0.681801
0.618155
0.610104
1.02889
0.867602
0.954048
0.804843
0.773248
1.90992
0.525266
0.539998
0.430314
1.232
2.13634
3.4404
1.72688
1.59124
1.45146
1.10056
1.25408
0.963227
1.02005
0.909877
0.835612
0.756573
0.714113
0.54941
0.564748
0.572068
0.587169
0.60515
0.627017
0.665871
0.639955
0.711216
0.595848
0.527678
0.521083
0.525567
0.537729
0.515945
0.514731
0.514629
0.512765
0.476584
1.07353
3.03219
0.563225
0.557842
0.590833
0.605274
0.584232
0.57007
0.555391
0.546323
0.540818
0.537234
0.53204
0.529935
0.526714
0.643987
0.728454
0.688455
0.631342
0.614404
1.13908
0.909575
0.976287
0.830508
0.756419
1.98446
0.520949
0.531223
0.542233
0.455127
1.39027
3.84834
6.82771
2.21989
1.95673
1.61697
1.59271
1.47484
1.08665
1.16285
0.97014
0.805854
0.912086
0.745571
0.549451
0.563251
0.577465
0.585669
0.613736
0.635184
0.683958
0.661801
0.732776
0.605794
0.533429
0.52177
0.529866
0.543909
0.519615
0.517878
0.518846
0.514963
0.498949
0.867873
3.50872
0.559539
0.598056
0.606259
0.584381
0.572467
0.557277
0.548287
0.545387
0.539598
0.538745
0.535462
0.531499
0.530437
0.660004
0.714275
0.677295
0.633436
0.625592
1.20634
0.878938
1.03996
0.803735
0.771006
1.41284
0.525876
0.524318
0.532735
1.57597
1.43858
6.66757
3.97679
2.23908
1.95487
2.09437
1.19402
1.50301
1.0926
0.842759
0.959823
0.780759
0.557694
0.571017
0.592059
0.625481
0.651978
0.710757
0.680127
0.664254
0.773502
0.609289
0.535017
0.527527
0.54676
0.522503
0.518644
0.517107
0.52391
0.517542
0.520265
1.47257
3.35916
0.565726
0.592437
0.614378
0.579848
0.571296
0.563745
0.556927
0.552846
0.54652
0.543267
0.542722
0.538562
0.535023
0.533296
0.655768
0.727274
0.691507
0.645234
0.630758
1.36314
1.18133
0.90951
1.12437
1.0258
0.816691
0.755805
2.44913
0.530832
0.533194
0.710385
1.85066
1.69367
7.08005
2.91602
2.30314
4.94292
1.19196
1.39574
2.51091
1.16556
0.898736
0.82164
1.05009
0.55923
0.572532
0.588155
0.601178
0.631177
0.65879
0.727475
0.701381
0.685344
0.802615
0.619857
0.540298
0.530398
0.553617
0.544691
0.526563
0.522835
0.521436
0.522915
0.520675
0.642085
1.18805
3.99903
0.595084
0.609868
0.626534
0.582241
0.576647
0.56726
0.561446
0.552501
0.54974
0.545734
0.542122
0.537533
0.532394
0.536847
0.66713
0.715067
0.682473
0.644305
1.46827
1.33135
0.966596
0.857043
1.19357
1.09853
0.775918
1.93803
0.532768
0.532144
2.3739
1.85426
4.76974
2.90843
1.40252
1.6048
5.71096
1.12609
1.34285
0.920112
0.859861
1.09169
0.566258
0.579932
0.595389
0.603471
0.64515
0.676474
0.755094
0.703007
0.691672
0.790112
0.852231
0.613659
0.541447
0.53521
0.554693
0.549641
0.52783
0.525804
0.523194
0.523067
0.527599
0.513129
1.67386
3.97097
0.588558
0.602549
0.617439
0.634974
0.578243
0.571698
0.565298
0.559866
0.556253
0.550966
0.545501
0.54957
0.540963
0.536835
0.539129
0.654671
0.732079
0.693406
1.66565
1.39037
0.977338
0.868973
1.29158
1.06542
0.777439
2.71905
0.541928
0.522909
0.666419
3.13191
2.13816
8.03486
4.48908
1.51352
2.08095
3.34666
1.27566
1.45224
0.989084
1.20349
0.567895
0.576817
0.597603
0.648722
0.68102
0.756381
0.72809
0.712948
0.831186
0.886909
0.618698
0.539024
0.54612
0.535148
0.559682
0.550261
0.531918
0.528309
0.527088
0.526561
0.532628
0.611679
0.867574
4.21013
0.589507
0.603408
0.612097
0.626088
0.645645
0.58444
0.575449
0.571788
0.567806
0.56286
0.555086
0.548435
0.552369
0.543085
0.538757
0.541804
0.658533
0.712204
0.756746
0.685089
1.81317
1.5609
0.938268
0.84916
1.33715
1.12772
0.812377
1.13572
5.60016
0.540848
0.530652
0.537093
3.2065
5.20228
2.64294
2.13478
1.88366
2.30473
6.85091
1.3251
1.7283
0.988793
1.2494
0.564559
0.581421
0.606889
0.589167
0.641121
0.665971
0.700913
0.786122
0.727083
0.723625
0.827923
0.937954
0.628109
0.542282
0.538571
0.560706
0.555177
0.532027
0.529188
0.528844
0.526554
0.52884
0.558193
1.82475
0.595459
0.601555
0.614771
0.630343
0.643592
0.583634
0.578709
0.575246
0.56679
0.563146
0.557577
0.548099
0.551436
0.555786
0.545819
0.541418
0.543179
0.671726
0.709141
0.767247
0.693121
1.81411
1.52242
0.982284
0.883099
1.20971
1.15532
0.797361
2.01483
5.59131
0.543141
0.541399
5.33272
8.04798
3.31722
2.59093
2.12082
4.00494
1.49405
1.90445
1.06257
1.1495
1.42019
0.569455
0.579214
0.604067
0.590423
0.648806
0.664816
0.69775
0.77959
0.752065
0.746527
0.870551
0.964369
0.620867
0.544745
0.537794
0.541758
0.565359
0.55352
0.535108
0.533052
0.532355
0.531334
0.532204
0.563902
2.03644
0.592916
0.607208
0.622168
0.629787
0.654135
0.587814
0.57948
0.573965
0.569924
0.566787
0.560963
0.55749
0.550383
0.553677
0.557237
0.545436
0.54365
0.541629
0.666301
0.723702
0.745668
0.679214
2.16158
1.68017
1.0493
0.926677
0.849165
1.26225
1.12586
0.815355
0.334803
5.43661
5.21328
0.547667
0.591508
8.03529
5.29967
2.80803
2.86006
6.84187
1.73934
1.48599
2.50326
1.04847
1.21273
1.54421
0.57505
0.585674
0.612643
0.597836
0.639862
0.677669
0.714967
0.813052
0.762914
0.849444
0.935605
0.629389
0.54925
0.540669
0.543275
0.567131
0.557392
0.535917
0.533807
0.535247
0.533972
0.535889
0.534411
0.52646
0.0708067
0.597428
0.604174
0.624253
0.640423
0.656376
0.588269
0.583927
0.577205
0.569307
0.567474
0.562686
0.560655
0.552452
0.550945
0.556219
0.559987
0.547204
0.54579
0.544843
0.71474
0.75084
0.681787
2.19065
1.93457
1.66594
1.0359
0.923208
0.848839
1.35527
1.20633
0.796298
1.0518
5.83435
5.2055
0.543756
0.563825
0.529861
7.90916
3.72281
3.08819
4.54329
1.99527
1.73113
3.07941
1.10916
1.32961
1.49779
1.81449
0.577688
0.588339
0.614393
0.60064
0.647476
0.676731
0.697537
0.73757
0.825907
0.789438
0.896857
0.991646
0.630314
0.549309
0.541207
0.54634
0.563506
0.573011
0.555564
0.560401
0.539309
0.536914
0.537917
0.537044
0.541488
0.537219
0.568168
0.755041
0.596555
0.608804
0.620608
0.633686
0.64983
0.669788
0.592367
0.583727
0.581115
0.575752
0.572462
0.570607
0.565657
0.561896
0.554032
0.552986
0.549398
0.557507
0.559846
0.546831
0.697827
0.72868
0.772271
2.85037
2.12901
1.51076
1.91903
1.11628
0.979386
0.884369
0.814632
1.31288
0.0599966
3.53474
8.42181
2.39998
0.552218
0.569448
0.561233
5.67688
3.74097
5.11222
7.90491
2.53903
5.05346
1.09452
1.33823
1.72333
2.1291
0.58312
0.59409
0.621857
0.606822
0.638495
0.656657
0.667856
0.702723
0.748628
0.859543
0.778907
0.954131
0.90771
0.552601
0.544304
0.54668
0.566122
0.573093
0.557849
0.560656
0.540258
0.538256
0.538618
0.53887
0.539303
0.548154
0.51042
0.189887
0.600686
0.605189
0.614808
0.62587
0.634307
0.656147
0.668652
0.591958
0.588279
0.582703
0.578198
0.572098
0.567065
0.564854
0.556052
0.553941
0.55022
0.557688
0.561592
0.54927
0.694174
0.729317
0.768989
3.09074
2.49179
1.59801
2.08426
1.13822
0.99269
0.899881
0.814005
1.42469
0.726077
3.98467
8.12452
3.12803
0.553787
0.578703
0.560004
8.68847
5.81017
7.78701
3.16837
7.79385
1.18693
1.47843
2.06811
1.70981
2.7607
0.582792
0.592
0.621067
0.602982
0.637633
0.655631
0.677199
0.718051
0.688611
0.757259
0.831869
0.80449
1.01366
0.947495
0.552191
0.545046
0.549733
0.569705
0.563412
0.57782
0.558152
0.542846
0.541036
0.541313
0.542071
0.544485
0.551142
0.515498
0.681076
0.595903
0.607709
0.614001
0.625549
0.642081
0.650582
0.678968
0.587062
0.583631
0.581446
0.577438
0.57519
0.569896
0.564965
0.556015
0.553994
0.552812
0.559785
0.563488
0.551446
0.707549
0.723668
0.752242
0.790788
4.06292
2.50768
1.80942
2.08478
1.24442
1.05569
0.9462
0.873884
0.844316
1.46611
0.694995
6.19023
9.70031
5.32525
0.560075
0.55366
0.578732
0.573232
8.2079
5.21163
1.1686
1.43296
2.56773
1.911
3.61148
0.587396
0.596825
0.613921
0.62905
0.607087
0.645845
0.664576
0.702944
0.736682
0.688465
0.785439
0.860757
0.813624
1.08692
1.00267
0.904178
0.555273
0.547967
0.550409
0.570747
0.564147
0.577326
0.56124
0.543544
0.543254
0.541811
0.542895
0.543768
0.544837
0.559298
0.591741
0.437258
0.828977
0.596945
0.605593
0.618801
0.632175
0.644389
0.658289
0.675081
0.589951
0.587497
0.582182
0.579658
0.575077
0.570419
0.567414
0.557531
0.55611
0.554166
0.56014
0.564334
0.55409
0.697828
0.738861
0.757069
0.795498
4.10347
6.00079
3.08872
1.83607
2.48332
1.19884
1.38112
1.03923
0.936601
0.889938
0.818387
1.68775
1.59833
5.48218
10.2491
5.30366
0.564938
0.559001
0.600076
0.555543
8.06595
1.30907
1.64666
2.78997
3.21485
2.26663
5.71807
0.588158
0.593667
0.614321
0.627707
0.601803
0.642014
0.663729
0.708549
0.742407
0.676402
0.771775
0.844101
1.12657
1.04732
0.931914
0.55556
0.548145
0.553242
0.567487
0.574073
0.580901
0.561979
0.546291
0.54599
0.544199
0.544899
0.547415
0.549117
0.552025
0.576181
0.528595
1.76197
0.596884
0.602309
0.610793
0.61872
0.629325
0.638443
0.652738
0.667966
0.686573
0.593518
0.586969
0.58453
0.5793
0.577247
0.573052
0.569252
0.566483
0.55919
0.556893
0.556831
0.562278
0.563779
0.557118
0.703302
0.731631
0.775139
6.11011
8.94596
3.07854
2.13616
2.48873
1.28528
1.10081
1.50577
0.974587
0.868376
0.808554
1.82083
1.79408
10.4208
8.97533
0.571444
0.560803
0.60062
0.509245
0.624633
1.37508
1.75677
3.58022
4.8926
2.41068
8.57905
0.584961
0.596078
0.609044
0.621022
0.634505
0.603166
0.648572
0.657141
0.696229
0.726994
0.743382
0.674163
0.789184
0.869946
1.22415
0.995434
0.920802
0.558483
0.550782
0.554226
0.567646
0.574415
0.57806
0.56063
0.565638
0.546732
0.545915
0.548642
0.549839
0.550399
0.559493
0.600185
0.569135
0.578933
2.01712
0.60099
0.604266
0.60791
0.615133
0.624447
0.632604
0.638659
0.65692
0.673877
0.683195
0.592211
0.589321
0.584678
0.581502
0.577572
0.572694
0.570541
0.567472
0.560302
0.559385
0.557305
0.559809
0.562148
0.565314
0.561078
0.715765
0.690591
0.743512
0.763053
8.35767
4.01969
2.19147
2.97321
1.43512
1.2295
1.05035
1.71358
0.943599
0.830937
0.893097
0.77767
2.09924
3.08737
10.4243
9.02254
0.570084
0.591608
0.567268
0.938415
0.616588
1.53298
1.72298
2.12469
3.1975
5.40357
0.587119
0.592138
0.609965
0.621066
0.634438
0.599466
0.641575
0.662199
0.70005
0.683544
0.727508
0.765876
0.816452
0.846004
1.21428
1.02673
0.960703
0.558986
0.553008
0.550633
0.557279
0.571454
0.579847
0.562835
0.567304
0.548754
0.54845
0.550831
0.55384
0.5563
0.559315
0.572138
0.573076
0.750924
3.57151
0.601091
0.608612
0.616786
0.621394
0.633199
0.643977
0.665748
0.650132
0.594515
0.587399
0.583559
0.579696
0.576058
0.574196
0.569528
0.56695
0.56038
0.5615
0.560305
0.562638
0.563532
0.565062
0.567688
0.711901
0.680526
0.72745
6.09655
3.62359
2.62789
3.04545
1.57161
1.32375
1.11015
0.976195
1.88234
0.809467
0.864703
0.766363
2.37394
6.39109
1.77294
10.8374
8.27711
0.578892
0.602455
0.568591
0.636653
0.615765
1.55064
1.94671
2.40056
4.07707
8.35513
0.584099
0.59418
0.606213
0.615712
0.627783
0.601301
0.645039
0.656048
0.688389
0.713019
0.679507
0.744369
0.762823
0.825816
0.880991
1.10191
1.33899
0.931964
0.561334
0.554715
0.552695
0.558202
0.572085
0.579565
0.565073
0.57
0.549186
0.550322
0.55317
0.556571
0.558464
0.616506
0.456844
0.584236
1.30729
2.74539
0.604639
0.597734
0.612409
0.62368
0.628207
0.637837
0.661956
0.651437
0.591782
0.587492
0.58485
0.579801
0.576252
0.573389
0.570526
0.56811
0.562858
0.563907
0.566903
0.563904
0.566349
0.57188
0.69894
0.66817
0.68465
0.729667
8.85209
4.56419
2.78968
3.80248
1.80838
1.48644
2.21014
0.783524
0.746808
7.69669
3.30071
14.902
10.0638
0.581891
0.625268
0.571544
0.841595
0.609079
1.483
1.7999
2.24917
2.97671
3.97042
6.06969
0.585641
0.592559
0.607402
0.616181
0.627583
0.599898
0.641658
0.66096
0.68873
0.714126
0.670722
0.562193
0.554653
0.557095
0.552698
0.560716
0.574874
0.577125
0.582648
0.564982
0.570857
0.551587
0.552747
0.555375
0.554591
0.561383
0.564301
0.606121
0.6646
0.586365
1.36463
5.19277
0.603065
0.596866
0.61071
0.618106
0.623778
0.632457
0.64644
0.591915
0.589241
0.583648
0.581476
0.577709
0.574445
0.572007
0.569493
0.567258
0.564345
0.564177
0.568304
0.569966
0.572194
0.566505
0.567298
0.574522
0.700307
0.659852
0.674696
6.56963
3.40763
4.58949
2.08804
1.63505
2.49189
11.1309
3.05352
14.6905
0.5898
0.623092
1.50546
0.568879
0.622235
1.97467
2.52841
3.09535
6.00733
8.90198
0.588973
0.595931
0.611868
0.602998
0.621931
0.634326
0.648103
0.656027
0.677282
0.669349
0.562018
0.556507
0.558534
0.555026
0.561759
0.57348
0.577519
0.582571
0.566991
0.569494
0.553263
0.560066
0.557393
0.564592
0.563944
0.571838
0.614872
0.543536
0.619081
2.15247
5.36259
0.59921
0.605827
0.594091
0.613729
0.617861
0.626122
0.634807
0.640148
0.651684
0.589709
0.587052
0.58482
0.580282
0.577374
0.573808
0.571264
0.569861
0.568146
0.566948
0.567828
0.57085
0.578839
0.579512
0.568302
0.567677
0.568793
0.584571
0.663125
9.06005
3.05058
4.38594
6.71614
2.50238
2.16089
1.87679
11.8209
4.82854
16.5895
0.601061
0.589875
0.626606
2.00733
0.654833
0.628252
2.35017
3.90067
8.33472
0.588256
0.594671
0.613848
0.602048
0.622412
0.632422
0.643057
0.660006
0.564572
0.55767
0.558011
0.560496
0.555139
0.556893
0.563963
0.561377
0.574829
0.57993
0.585378
0.566528
0.571193
0.561222
0.558557
0.572466
0.570222
0.581763
0.605336
0.607464
0.618741
1.94141
8.30284
0.596844
0.603875
0.592317
0.610482
0.616764
0.625255
0.629119
0.639948
0.645187
0.589759
0.587532
0.58312
0.57885
0.581388
0.576431
0.575125
0.572304
0.56946
0.569144
0.569692
0.574605
0.584651
0.585619
0.571282
0.57003
0.57022
0.589865
0.656194
3.66788
6.12297
9.19968
3.09936
2.65494
18.1554
8.86167
3.60124
0.617832
0.610288
0.655976
1.48193
0.760497
0.635443
2.70447
5.96866
3.35768
0.591149
0.597661
0.610591
0.619235
0.605825
0.627796
0.636853
0.646864
0.559488
0.559445
0.561739
0.556769
0.558486
0.565201
0.563341
0.57524
0.580202
0.585486
0.568345
0.573648
0.570281
0.565584
0.561594
0.576283
0.574009
0.595003
0.616415
0.770412
0.620879
3.28918
6.20107
0.598084
0.593629
0.600618
0.606514
0.612246
0.620497
0.629212
0.634577
0.641418
0.588123
0.585637
0.583719
0.578384
0.580588
0.577058
0.575024
0.57268
0.570938
0.573826
0.574732
0.581503
0.584557
0.594379
0.595135
0.572403
0.575337
0.571457
0.571223
0.600818
5.38461
3.85591
3.28357
18.7061
11.6703
4.58119
0.649377
0.623783
2.23401
0.741014
0.636604
8.66983
4.10374
0.590605
0.596704
0.612817
0.621874
0.603584
0.626416
0.630468
0.560962
0.561121
0.563317
0.561197
0.564751
0.567034
0.578016
0.582889
0.588125
0.568298
0.574489
0.571573
0.570956
0.566658
0.564744
0.562423
0.586889
0.583753
0.602128
0.642231
1.16056
0.641818
2.49033
8.52079
0.595981
0.592396
0.5993
0.604316
0.610108
0.617056
0.623011
0.634445
0.588779
0.586023
0.582819
0.579401
0.581512
0.5775
0.574246
0.576508
0.572676
0.572343
0.577189
0.590947
0.595577
0.598821
0.601244
0.606523
0.57531
0.580914
0.574413
0.573841
0.620002
8.52884
5.97384
16.1837
19.8748
6.99022
3.58766
0.663265
0.65886
1.88084
0.983008
0.644699
6.118
0.593499
0.59975
0.609415
0.617596
0.605529
0.628534
0.562643
0.562359
0.564826
0.563079
0.565836
0.567346
0.577956
0.582371
0.58899
0.570084
0.576576
0.573393
0.576853
0.574444
0.568294
0.56649
0.593077
0.590757
0.625218
0.626806
0.789973
0.642335
3.28256
4.61712
0.596566
0.593824
0.590363
0.600959
0.606183
0.612486
0.61843
0.621914
0.587263
0.585128
0.583708
0.579681
0.581501
0.577468
0.579068
0.575312
0.577346
0.574397
0.57382
0.583658
0.592113
0.600149
0.612237
0.612876
0.62053
0.580628
0.583
0.586602
0.576121
0.575044
0.646869
8.57701
16.7234
20.7588
9.62388
4.522
0.671642
2.62305
1.05533
0.648726
0.592018
0.597186
0.608148
0.616754
0.603366
0.565958
0.564331
0.565405
0.566417
0.566109
0.568969
0.580199
0.584458
0.587037
0.570582
0.577268
0.574572
0.586042
0.57794
0.573573
0.569436
0.611061
0.602823
0.632694
0.632775
1.2548
0.665803
2.77368
8.2024
0.595079
0.592177
0.589413
0.599377
0.604241
0.611964
0.614772
0.587104
0.585978
0.583491
0.580829
0.58257
0.578694
0.579662
0.576901
0.57915
0.575481
0.588255
0.600887
0.61312
0.62801
0.626546
0.632292
0.63073
0.64698
0.586199
0.592894
0.593788
0.579539
0.579106
0.671859
22.7281
18.5524
5.77112
3.88712
0.653032
2.10301
0.737698
0.644078
0.593877
0.597903
0.604784
0.611467
0.600652
0.566403
0.56834
0.567994
0.568283
0.568857
0.568731
0.56937
0.570312
0.579412
0.583533
0.587621
0.572768
0.576692
0.574479
0.596083
0.586953
0.57796
0.575416
0.618301
0.614886
0.667991
0.628488
1.09029
0.660641
3.62726
8.0284
0.596429
0.592782
0.590395
0.588112
0.601019
0.606013
0.608771
0.610476
0.586283
0.585261
0.584291
0.581603
0.582544
0.580034
0.58105
0.578897
0.581477
0.578003
0.598274
0.614392
0.627487
0.622773
0.656656
0.652831
0.666666
0.665799
0.675157
0.593558
0.585319
0.597553
0.602062
0.581359
0.581083
0.685242
22.3268
20.9685
8.40538
4.72819
0.648141
2.50281
0.960845
0.674344
0.59148
0.594892
0.602178
0.599427
0.568724
0.57188
0.569399
0.569062
0.569098
0.573901
0.574087
0.570935
0.571939
0.580588
0.582225
0.58477
0.586167
0.589604
0.573753
0.572926
0.578027
0.576246
0.611878
0.596249
0.591043
0.585323
0.580168
0.639385
0.637605
0.669154
0.75878
1.86851
0.65147
4.72661
3.12147
13.6627
0.595405
0.591206
0.589058
0.587101
0.599417
0.602736
0.607322
0.585527
0.586244
0.583803
0.582679
0.581874
0.583577
0.582849
0.583181
0.581558
0.580063
0.584626
0.605179
0.629333
0.62324
0.649958
0.650375
0.68195
0.674161
0.681258
0.671599
0.687308
0.680753
0.601752
0.590711
0.608219
0.61481
0.587544
0.585827
28.7095
16.298
5.98281
4.5375
0.608899
1.59042
3.917
0.752778
0.591425
0.592993
0.594527
0.60369
0.597226
0.570226
0.572446
0.576844
0.57187
0.572028
0.571338
0.578674
0.577777
0.571884
0.57195
0.579544
0.582235
0.583473
0.586393
0.587981
0.574644
0.573934
0.57737
0.575677
0.628927
0.612449
0.601613
0.591999
0.589902
0.667216
0.654221
0.672892
0.992341
1.85231
0.726354
5.79723
4.49207
14.3713
0.593358
0.59709
0.591686
0.589465
0.587691
0.600544
0.601308
0.584922
0.585514
0.583891
0.584455
0.583917
0.583865
0.584643
0.584061
0.584896
0.584977
0.584718
0.584249
0.588918
0.623301
0.654133
0.653601
0.684028
0.66756
0.694088
0.697366
0.693786
0.689714
0.696094
0.683287
0.614572
0.603338
0.597895
0.617174
0.618786
0.620543
0.630279
0.592638
0.58733
0.593
28.7124
20.874
8.23698
5.75499
0.697928
2.05305
4.15564
0.963066
0.589577
0.590811
0.592718
0.598116
0.572968
0.577409
0.581774
0.573426
0.573811
0.586418
0.583899
0.572975
0.573345
0.579923
0.581105
0.583619
0.585111
0.588033
0.57461
0.578013
0.576358
0.652188
0.63187
0.616492
0.605311
0.594532
0.682836
0.678722
0.677757
0.674387
1.31754
2.86355
0.93699
7.80712
4.33156
22.8124
0.592936
0.595771
0.590245
0.588548
0.586915
0.597895
0.584781
0.585568
0.584646
0.585032
0.586309
0.585944
0.585866
0.587545
0.587642
0.587734
0.588571
0.586692
0.594073
0.664211
0.678978
0.716737
0.70882
0.70308
0.683115
0.710467
0.698016
0.702178
0.659225
0.62649
0.621867
0.602487
0.636312
0.636318
0.64056
0.642945
0.592723
0.600677
32.227
15.631
6.65928
0.941689
3.20585
1.56648
5.18415
0.589251
0.590528
0.593631
0.5964
0.578107
0.581484
0.589991
0.57629
0.578355
0.588899
0.591168
0.574559
0.575443
0.579128
0.58045
0.582422
0.585121
0.586386
0.575218
0.57632
0.577806
0.577689
0.576885
0.680271
0.661305
0.63467
0.617131
0.604369
0.693752
0.681709
0.743657
2.53303
1.29858
9.96322
5.24343
24.0522
0.594353
0.591961
0.596398
0.589933
0.589111
0.587616
0.586283
0.585303
0.585405
0.586075
0.585529
0.589215
0.589207
0.588573
0.589831
0.594849
0.594603
0.592468
0.601076
0.680803
0.686614
0.69682
0.700204
0.708354
0.715266
0.687822
0.668104
0.665759
0.696799
0.703201
0.703026
0.697479
0.649599
0.631947
0.613397
0.65173
0.653164
0.654845
0.659577
0.599569
0.595931
0.611291
32.7929
20.8761
5.76096
9.09383
1.20243
3.76284
2.23358
5.16104
0.587654
0.589196
0.592692
0.581661
0.589271
0.5957
0.580499
0.577426
0.581522
0.581581
0.60083
0.604246
0.576655
0.579348
0.581135
0.582005
0.582966
0.583863
0.586262
0.5772
0.577794
0.578853
0.5789
0.5786
0.684765
0.671851
0.634669
0.659751
0.621997
0.608479
0.61922
0.711445
0.689863
0.730041
1.01386
3.01981
2.32282
5.9752
20.1643
4.97585
0.59362
0.590909
0.592522
0.594375
0.588825
0.588566
0.587949
0.586518
0.586075
0.586027
0.586063
0.587914
0.588046
0.595814
0.594573
0.590916
0.597083
0.602896
0.60062
0.612322
0.714976
0.734043
0.735563
0.671505
0.699982
0.700972
0.622495
0.636103
0.661584
0.632129
0.696841
0.929749
0.666348
0.65266
0.628015
0.617826
0.679263
0.675372
0.677047
0.685288
0.609014
0.607661
0.621188
33.3901
18.4074
6.36787
10.2359
1.94877
1.2588
4.74263
3.29227
5.95243
0.587543
0.590447
0.588269
0.593004
0.608062
0.586376
0.581705
0.589043
0.588726
0.616409
0.579157
0.579478
0.580644
0.582314
0.583779
0.584924
0.579412
0.579906
0.579363
0.57984
0.579581
0.58065
0.714167
0.71093
0.647967
0.691873
0.64128
0.626621
0.633967
0.703301
0.667882
0.868682
1.30476
4.16669
3.03608
8.19506
23.6293
5.76261
0.58999
0.591006
0.589097
0.588171
0.587514
0.587223
0.58649
0.58907
0.5869
0.587037
0.590456
0.589642
0.600385
0.598196
0.6021
0.595862
0.603398
0.603466
0.61401
0.611428
0.61828
0.619606
0.748684
0.735957
0.746262
0.744499
0.671986
0.64501
0.693145
0.700295
0.698714
0.660014
0.822523
0.746871
0.670523
0.71682
1.12519
0.663003
0.696758
0.670531
0.649129
0.633422
0.705337
0.700919
0.699873
0.718886
0.617989
0.614914
0.637636
36.638
32.0022
6.8957
13.5938
2.56869
2.20422
5.25915
3.90916
6.04767
0.586415
0.589614
0.593889
0.605678
0.619353
0.615757
0.587022
0.59269
0.584859
0.592937
0.594418
0.632933
0.583713
0.580168
0.580862