/*--------------------------------*- C++ -*----------------------------------*\
| =========                 |                                                 |
| \\      /  F ield         | OpenFOAM: The Open Source CFD Toolbox           |
|  \\    /   O peration     | Version:  v2012                                 |
|   \\  /    A nd           | Website:  www.openfoam.com                      |
|    \\/     M anipulation  |                                                 |
\*---------------------------------------------------------------------------*/
FoamFile
{
    version     2.0;
    format      ascii;
    class       volScalarField;
    location    "150";
    object      p;
}
// * * * * * * * * * * * * * * * * * * * * * * * * * * * * * * * * * * * * * //

dimensions      [0 2 -2 0 0 0 0];


internalField   nonuniform List<scalar> 
12639
(
-1.59784e-05
3.38272e-05
9.38157e-06
-3.35724e-06
-2.52098e-06
3.65592e-05
2.6673e-06
1.26074e-05
-2.66343e-06
-5.39506e-05
1.37363e-06
7.78371e-06
1.57841e-07
2.16424e-06
2.05714e-05
5.65143e-06
-6.26968e-06
-2.71214e-05
7.6693e-06
-2.5286e-06
1.33706e-06
-1.51889e-07
2.35577e-05
2.9487e-05
7.38348e-06
-9.25178e-06
5.717e-06
2.169e-07
-3.28694e-07
-4.14709e-06
3.4806e-05
2.63686e-05
-3.0153e-06
-2.37197e-06
-1.00229e-05
9.11156e-06
-2.26092e-06
-1.2574e-06
3.58287e-07
-9.3844e-06
6.81192e-06
4.24626e-05
-3.10902e-05
2.44891e-05
8.03567e-06
-1.23924e-06
1.9222e-06
-1.32635e-06
-2.38676e-06
-1.70929e-06
-3.88254e-05
-4.16529e-06
-1.30582e-05
0.000145062
8.86995e-05
2.99246e-05
3.55301e-06
4.62955e-07
1.88076e-05
-5.206e-07
-2.81644e-06
-3.72341e-06
-1.8881e-06
1.14783e-06
3.31599e-05
1.30465e-06
2.82579e-06
-4.50539e-05
-2.00905e-05
1.45527e-05
-1.98408e-05
0.000166362
-4.71807e-06
3.4032e-05
-5.10686e-06
-5.26615e-06
-4.9838e-06
-2.36025e-06
-2.28981e-06
5.37861e-06
6.71145e-08
-8.0328e-06
1.14707e-06
-6.31787e-05
6.50617e-05
0.000103197
-0.000143916
-3.91381e-06
1.21493e-05
-7.36335e-06
-7.6578e-06
-4.33321e-06
-7.74238e-06
1.05406e-06
-5.71361e-06
-1.07563e-06
-7.94408e-07
1.08346e-05
4.73212e-05
0.000150989
-6.30423e-05
-3.67404e-05
2.18469e-06
-5.33228e-06
1.40042e-05
-9.61315e-06
-4.43872e-06
-8.73597e-06
-3.54477e-06
1.0362e-06
-3.48237e-07
-1.0839e-06
1.11578e-05
1.33051e-05
1.91014e-05
2.60099e-05
-1.03797e-06
3.69798e-06
1.26345e-05
-1.0002e-05
1.77606e-05
-1.28375e-05
-7.83103e-06
-1.18306e-05
1.35973e-06
-1.76914e-06
-1.20531e-06
4.0286e-07
-1.46372e-06
1.44257e-05
8.36163e-06
8.31374e-05
-7.09717e-05
0.000266671
3.39379e-05
3.8596e-06
-1.41921e-05
4.83891e-05
-1.72381e-05
-7.13772e-06
-1.55865e-05
-1.27824e-05
-5.265e-06
-1.35576e-06
-2.50985e-06
-1.57289e-06
-2.29885e-06
6.33383e-06
7.65735e-06
0.000113436
5.87825e-05
0.000139477
8.25194e-05
1.58803e-05
-8.94213e-06
8.66583e-06
-2.3545e-05
2.67587e-05
-2.60564e-05
-1.00963e-05
-1.91419e-05
-1.72321e-05
-4.42709e-06
-4.08166e-06
-2.54865e-06
1.40955e-06
-3.40944e-06
-8.04478e-07
7.36393e-06
1.8785e-05
1.84377e-05
4.01144e-05
-0.000153697
7.6645e-05
0.000310017
-2.31993e-05
-5.8251e-06
-3.43966e-05
4.04018e-05
-2.98773e-05
-1.03936e-05
-2.57366e-05
-1.99404e-05
1.06528e-06
-7.69621e-06
-5.09311e-06
-6.82401e-06
-2.88395e-06
-3.01986e-06
-4.6441e-06
1.5968e-06
9.0741e-06
-0.000108657
4.45025e-05
0.000103037
-0.000160871
4.9288e-05
0.000109349
-2.25532e-05
-3.6066e-05
-4.22356e-06
-4.66009e-05
3.31989e-05
-3.728e-05
-1.24854e-05
-2.6338e-05
-1.71182e-05
-3.30769e-06
-6.70784e-06
-9.56893e-06
-8.55224e-06
-2.12234e-06
-6.20327e-06
-1.17875e-05
7.86246e-06
5.08164e-05
7.36995e-05
1.87561e-05
8.43799e-05
0.000178798
7.83109e-05
0.000355429
-3.97298e-05
-4.69777e-05
-3.38244e-05
1.31593e-05
-6.40834e-05
-4.59566e-05
7.07206e-05
-3.70519e-05
-1.1213e-05
-2.99755e-05
-1.81301e-05
2.27716e-06
-1.23978e-05
-1.54324e-05
-4.93065e-06
7.35709e-07
-9.5612e-06
-2.16593e-05
-1.99133e-05
-8.39284e-06
5.00329e-06
5.85879e-05
2.97205e-05
0.000217077
0.000321484
-0.000217462
0.000119706
0.000319738
-4.85818e-05
-6.09199e-05
-6.28016e-05
-1.23479e-06
-6.94945e-05
-6.01671e-05
8.12521e-05
-4.13085e-05
-9.72676e-06
-2.60865e-05
-1.49639e-05
-6.36964e-06
-1.79478e-05
-2.05479e-05
-4.51641e-06
-3.2917e-06
-9.91087e-06
-3.5833e-05
-3.02626e-05
-7.65569e-06
7.30323e-05
7.05934e-05
1.31545e-05
0.000168835
1.50856e-05
0.000143731
0.00015893
9.20403e-05
-7.95728e-05
-8.20874e-05
-8.22886e-05
-4.45873e-05
4.56678e-05
-8.75558e-05
-6.4165e-05
0.000105559
-5.25342e-05
-3.82252e-05
-2.90237e-05
-1.43732e-05
-5.97122e-06
-1.83813e-05
-3.12765e-05
-7.30333e-06
5.26814e-07
-1.40832e-05
-4.0554e-05
-5.19108e-05
-2.77799e-05
0.000105295
3.74258e-05
1.39711e-05
0.000115675
0.000173256
-0.000265665
0.000258096
-9.73035e-05
-9.58068e-05
-0.000118178
-3.55597e-05
7.30095e-06
-9.54313e-05
-8.71309e-05
0.000132523
-5.88425e-05
-3.75732e-05
-2.4e-05
-1.07697e-05
-1.72815e-05
1.06939e-06
-1.99765e-05
-3.47038e-05
-6.79106e-06
-4.2308e-06
-1.35479e-05
-5.40659e-05
-7.15976e-05
-5.09177e-05
-2.72378e-05
0.000179358
8.64818e-05
-1.72407e-06
0.000176368
0.000287636
0.000122062
0.000219097
-0.000128741
-0.000128182
-0.000142949
-7.46638e-05
2.3272e-05
-0.000111351
-8.09525e-05
0.00017795
0.000122001
-4.81024e-05
-3.21245e-05
-2.50295e-05
-9.40804e-06
-1.49862e-05
-4.24776e-06
-2.80205e-05
-1.99241e-05
-4.34689e-05
-9.74114e-06
8.74044e-07
-7.35122e-05
-5.43652e-05
-0.000101292
-6.84586e-05
-5.82352e-05
0.000184489
9.80491e-05
-2.11702e-06
0.000390457
0.000276977
0.000150224
0.000235876
-0.00014111
-0.000135933
-0.000193226
-0.000126783
-8.71224e-05
-3.32936e-05
7.79156e-05
-0.000120655
-7.44455e-05
0.000320702
0.000148824
-6.15268e-05
-3.15696e-05
-1.96213e-05
-1.01298e-05
-1.41466e-05
2.44359e-06
-3.2605e-05
-1.88756e-05
-4.19721e-05
-8.89748e-06
-4.77861e-06
-8.90241e-05
-6.5936e-05
-0.000114594
-0.000105617
-9.47319e-05
-6.83747e-05
0.000121068
0.000253803
6.08586e-05
-4.16383e-05
0.000223628
0.000247397
0.000268005
0.000286494
-0.00016587
-0.000165264
-0.000222838
-0.000217887
-0.000188185
-0.000141936
5.7155e-06
0.000116841
-0.000111344
-0.000154044
-8.58976e-05
0.000230602
0.000386408
-5.28752e-05
-2.28721e-05
-3.81145e-05
-1.4562e-05
-9.1478e-06
-1.03128e-05
-4.20081e-06
-2.80211e-05
-2.08966e-05
-1.23051e-05
-4.83419e-05
-4.49608e-06
-8.23095e-05
-6.23757e-05
-0.000146663
-0.000123408
-0.000121329
-0.000104459
0.000166989
0.000234559
1.24205e-05
-3.87299e-05
0.000274885
0.000283639
0.000305584
-0.000205602
-0.000172594
-0.000287462
-0.00027417
-0.000188035
-0.000136172
-6.76091e-05
7.28503e-05
-0.000125496
-0.000177332
-7.99959e-05
0.000327278
0.000111686
-5.14684e-05
-1.46934e-05
-2.01124e-05
-2.85204e-05
-1.20857e-05
-7.84933e-06
4.54924e-06
-2.91398e-05
-1.82064e-05
-1.0558e-05
-4.46895e-05
-1.9256e-07
-9.84771e-05
-6.25641e-05
-0.000152086
-0.00016806
-0.00012224
-0.000158686
-0.000141243
0.000144945
0.000291819
8.26902e-06
-7.34906e-05
0.00060396
0.000446237
0.000551164
-0.000232922
-0.000215907
-0.000314555
-0.000308583
-0.000302998
-0.000261989
-0.000242248
-4.795e-05
0.000105736
-0.000159861
-0.000119591
-0.000208019
-6.30295e-05
-9.8948e-05
0.000231105
0.000330964
0.0002902
-3.59287e-05
-1.18394e-05
-1.32631e-05
-2.62043e-05
-7.98227e-06
-3.08178e-06
-3.49555e-05
-2.40647e-05
-1.24221e-05
-1.86035e-05
-5.46507e-05
-5.5718e-06
-9.4428e-05
-7.46957e-05
-0.000197718
-0.000212096
-0.000132637
-0.000178942
-0.000130351
-0.000195308
6.66323e-05
0.000227141
0.000315487
-4.75455e-05
0.000631467
1.39548e-05
-0.000279181
-0.000380684
-0.000370309
-0.0003886
-0.000305684
-0.000310905
4.55247e-05
-0.000232856
0.000237642
-0.000159688
-0.000135738
-0.000228231
-5.96313e-05
-7.65968e-05
0.000523393
0.000468789
0.000433912
-2.62525e-05
-6.16179e-06
-8.92042e-06
-1.36872e-05
-2.80547e-06
-3.26857e-06
7.92639e-06
-3.30459e-05
-2.2297e-05
-1.03099e-05
-1.16979e-05
-4.8421e-05
9.41626e-07
-9.99207e-05
-7.22614e-05
-0.000230035
-0.000243318
-0.000162844
-0.000118875
-0.000223794
-0.000219766
-0.000235068
2.29784e-05
0.00018892
0.000471634
-0.000111704
0.000638773
0.000610668
0.00053287
-0.00031507
-0.000454323
-0.00036756
-0.000444424
-0.000443752
-0.000420069
-0.000407039
0.000109884
-0.000265935
0.000230387
-0.000196003
-0.000128459
-0.000282902
-3.75496e-05
-6.72439e-05
0.000971394
0.000600854
0.000369618
0.000622638
-1.03542e-05
2.86531e-06
1.07427e-07
-4.98181e-06
1.72993e-06
-1.37562e-06
-7.20073e-07
-3.86458e-05
-2.56923e-05
-1.62722e-05
-7.11985e-06
-5.65104e-05
-3.12281e-06
-8.81184e-05
-0.000289186
-0.0003059
-0.00016239
-0.000138844
-0.00022999
-0.000209308
-0.000277908
-7.03918e-05
8.67681e-05
0.000283339
0.00038391
0.00112511
0.00052183
0.000691154
-0.000538743
-0.000433922
-0.00048781
-0.000526531
-0.000530388
6.7464e-05
-0.000409831
-9.23607e-05
-0.000194761
-0.00015434
-9.31129e-05
-0.000296071
-2.52492e-05
-3.87837e-05
0.000746963
0.000754727
0.000379073
0.000157437
1.85595e-06
3.05894e-06
5.02219e-06
8.30334e-06
6.20079e-06
1.10088e-05
4.38272e-06
-3.10588e-05
-2.18891e-05
-1.54298e-05
-5.43724e-05
1.54924e-06
-8.33446e-05
-0.000329649
-0.000314653
-0.000194539
-0.000131857
-0.000278304
-0.00023483
-0.000355685
-0.000184548
5.17634e-05
0.000286084
0.000574456
0.00117479
0.000398702
-0.000607655
-0.000433351
-0.000573198
-0.000649151
-0.000664133
-0.000539954
0.000199874
-0.00034901
-0.000157715
-0.00024686
-0.000134274
-6.59593e-05
-0.000361208
-7.51882e-06
-4.3026e-05
0.00120341
0.000794893
0.000503669
0.000923679
1.60327e-05
4.92027e-06
1.24932e-05
1.73111e-05
1.84147e-05
1.6371e-05
-2.28125e-05
-2.99417e-05
-1.63618e-05
-1.31793e-05
-6.71829e-05
-4.13479e-05
-1.16058e-05
-0.000101507
-0.000370335
-0.000376578
-0.000181832
-0.000153979
-0.00026969
-0.000322396
-0.000412562
-0.00020163
0.000169706
-7.31609e-05
0.00044043
0.00059785
0.000859157
0.0015847
-0.000730394
-0.000532538
-0.000592591
-0.000768499
-0.000919744
-0.00079257
0.000246343
-0.000462957
4.0873e-05
-0.000221329
-8.59269e-05
-0.000163282
-0.000360099
1.81437e-05
-1.78036e-05
0.0012281
0.000904768
0.00112266
0.000680739
0.000388247
3.15764e-05
1.20514e-05
1.26463e-05
1.84287e-05
2.72171e-05
2.77422e-05
-1.58018e-05
-2.1786e-05
-1.15599e-05
-8.72232e-06
-5.75157e-05
-3.35224e-05
4.06766e-07
-0.000102387
-0.000430827
-0.000443903
-0.000390589
-0.000218889
-0.000129708
-0.000324326
-0.000397493
-0.000382878
-0.000511605
-0.000318421
3.35523e-05
-8.4739e-05
0.00048053
0.000829875
0.000684038
0.00114301
0.00136375
-0.000879764
-0.000540475
-0.000730398
-0.000927149
-0.000968942
-0.000897292
-0.000336293
-0.000709648
-3.41159e-05
-0.000253437
-7.11476e-05
-0.000147682
-0.000316452
-0.000463033
3.71645e-05
3.0453e-05
1.70626e-05
-9.32928e-06
0.00124917
0.00114899
0.00130959
0.000768247
0.000566517
4.53357e-05
1.58869e-05
2.52301e-05
2.67069e-05
3.60581e-05
4.17295e-05
-1.01067e-05
-1.03493e-05
-1.23499e-05
-2.46988e-05
2.7569e-06
-4.06823e-05
-7.92968e-05
6.13372e-06
-0.000508888
-0.000520424
-0.000474587
-0.000213971
-0.000126319
-0.000318012
-0.000529336
-0.000506092
-0.00057728
-0.000230071
3.3494e-05
0.00068855
0.000283866
0.000889316
0.00109634
0.00142669
-0.000873956
-0.000944323
-0.000673157
-0.000777913
-0.00121158
-0.00118726
-0.000409827
-0.000941029
0.000129242
-0.000190672
-3.80388e-05
-9.83312e-05
-0.000331218
-0.000404611
5.99342e-05
5.55353e-05
4.2742e-05
2.79209e-05
0.0012068
0.00155667
0.00107328
0.00147519
0.000695631
6.53862e-05
2.49367e-05
2.25835e-05
3.50132e-05
4.644e-05
4.94029e-05
-8.50935e-06
-8.36918e-06
-5.97646e-06
-1.52884e-05
1.92009e-07
-2.99503e-05
-6.63562e-05
-0.000601925
-0.000595663
-0.00046663
-0.000259505
-0.000168625
-9.76517e-05
-0.000395313
-0.000567545
-0.000573806
-0.000723734
-0.000313602
-0.00011505
0.000709174
0.000302304
0.0011228
0.00218008
0.000385652
-0.000977296
-0.00110975
-0.000596498
-0.000896631
-0.00142977
-0.00134063
-0.00115254
-0.000781078
-0.000185613
0.000483148
-0.000193867
-7.15214e-06
-8.10821e-05
-0.000261638
-0.000463708
7.30077e-05
8.05998e-05
7.65374e-05
5.15073e-05
0.00160598
0.000897282
0.00168826
7.31296e-05
2.66437e-05
3.48526e-05
3.75001e-05
5.42269e-05
6.50681e-05
-6.16436e-06
-4.68677e-06
1.00366e-07
-6.19859e-06
1.09213e-05
-1.24682e-05
-4.09305e-05
-6.45212e-05
-0.000729577
-0.00069089
-0.000546484
-0.000260552
-0.000143811
-7.98893e-05
-0.00038448
-0.000726656
-0.000460125
-0.000754508
-0.000817352
-0.000289027
0.000132244
0.0011029
0.000471672
0.00132042
0.00183921
0.00207206
-0.0011267
-0.00137146
-0.000624777
-0.00103352
-0.00182864
-0.00156898
-0.00146126
-0.000912246
-1.51498e-05
0.000394972
-0.000118011
3.32202e-05
-2.86331e-05
-0.000274245
-0.000373465
9.76573e-05
9.43591e-05
0.000106015
0.000101116
8.69869e-05
0.00239707
0.00107535
0.00152302
0.00226498
9.11295e-05
3.45671e-05
3.24411e-05
4.7977e-05
6.48846e-05
7.07128e-05
-6.98743e-07
6.8237e-06
3.95105e-06
7.66231e-06
3.71739e-06
3.53616e-07
-2.50955e-05
-4.21562e-05
-0.000772979
-0.000709006
-0.00066104
-0.000566256
-0.000325296
-0.00021506
-0.000101086
-0.00016051
-5.02998e-05
-0.000486658
-0.000843136
-0.000693116
-0.000856881
-0.00102593
-0.000354257
-0.000105499
0.00094401
0.00057982
0.00168623
0.00232493
0.00183863
-0.0013353
-0.00145126
-0.00077873
-0.000503513
-0.000956651
-0.00125508
-0.00191935
-0.00189792
-0.00172231
-0.00132631
-0.000644866
-0.000212369
0.000756097
-0.000112458
7.59996e-05
2.4541e-05
-0.000195753
-0.000403234
0.000103978
0.00012808
0.000124395
0.000136426
9.80569e-05
0.00283489
0.00110524
0.00176095
0.00216951
0.0027998
9.98796e-05
4.31078e-05
4.34724e-05
5.49005e-05
6.34462e-05
8.25913e-05
7.6548e-06
1.52608e-05
1.00793e-05
9.30348e-06
1.43623e-05
-4.98991e-06
1.47498e-05
-2.3331e-05
-0.000923007
-0.000876048
-0.000737
-0.000655604
-0.000336553
-0.000202792
-6.61982e-05
-0.000109324
-2.71313e-05
-0.000414443
-0.00108608
-0.000785424
-0.0010972
-0.00104582
-0.000593371
-0.000351684
0.00119554
0.000568951
0.00180635
0.00207425
0.00169417
-0.00171969
-0.000711945
-0.000557333
-0.00102558
-0.0013728
-0.00233352
-0.00220162
-0.00219878
-0.00172245
-0.00163695
-0.000732438
9.86471e-05
0.000586129
-3.85535e-05
7.37932e-05
2.751e-05
-0.000177827
-0.000283784
0.000121295
0.000146462
0.000143405
0.000163903
0.000141367
0.0028541
0.00148479
0.00269088
0.00289758
9.45822e-05
0.000113245
5.65189e-05
5.97967e-05
7.06472e-05
8.41974e-05
1.22166e-05
1.75999e-05
1.21102e-05
2.26342e-05
1.34143e-05
2.94006e-05
-3.69823e-06
-0.00098268
-0.000829764
-0.00064631
-0.000263173
-0.000141008
-2.81732e-05
-6.78395e-05
-9.7062e-05
-5.95567e-06
-0.000421554
-0.00114015
-0.00106833
-0.0012499
-0.000573239
-0.000269484
0.000865876
0.00159544
0.000241708
0.00226665
0.00314487
0.00308216
-0.00197735
-0.000843195
-0.00043804
-0.00122629
-0.00177608
-0.00223758
-0.00266006
-0.00254475
-0.00240331
-0.00229375
-0.00223625
-0.00130486
-0.000345626
0.000888599
-9.6392e-06
0.000155776
0.000118384
-8.46512e-05
-0.000187905
0.000123153
0.000140683
0.000184903
0.000151
0.000178118
0.000209654
0.000177883
0.00412171
0.00178247
0.00238131
0.00316273
0.000105064
0.000113462
7.38684e-05
7.61271e-05
8.83055e-05
2.08785e-05
2.4906e-05
1.8372e-05
1.91264e-05
3.62388e-05
3.10076e-05
1.29194e-05
4.61408e-05
-0.00122703
-0.000945011
-0.000824929
-0.000538766
-0.000289302
-0.000122022
-6.36979e-06
-1.96562e-05
-3.6557e-05
2.59512e-05
-0.000354353
-0.00131613
-0.00115575
-0.00137127
-0.00141731
-0.000974472
-0.000250049
0.000863019
0.00171561
-1.56841e-05
0.00257262
0.00300752
0.00368009
-0.000959761
-0.000463852
-0.000242275
-0.00138992
-0.00168136
-0.00244465
-0.00320788
-0.00304462
-0.00294366
-0.00259487
-0.00146674
-0.000219206
0.00149238
0.000449879
5.28812e-05
0.00017438
0.000113899
-9.90309e-05
0.000138043
0.000146672
0.000192698
0.000215087
0.000175331
0.000190065
0.000220826
0.00374724
0.00274511
0.00355944
9.90109e-05
0.00012362
7.84848e-05
8.57484e-05
3.15947e-05
2.6505e-05
3.25486e-05
4.82449e-05
4.4623e-05
4.44664e-05
3.96335e-05
6.40366e-05
-0.00116101
-0.000966294
-0.000701774
-0.000551646
-0.000191353
-3.48266e-05
2.72228e-05
-5.4352e-06
1.12929e-06
4.50488e-05
4.8276e-05
-0.000404623
-0.00168186
-0.00157171
-0.00162059
-0.0017423
-0.00109527
-0.000629824
0.000367308
0.00127165
0.00232383
0.00279199
0.00302593
0.00323194
-0.00119767
-0.000733774
-0.000258887
-8.28299e-05
-0.00186124
-0.00254237
-0.00301404
-0.00370778
-0.00373418
-0.00365648
-0.00227235
-0.0035358
-0.00100014
0.00203856
0.000816333
2.52484e-05
0.000249264
0.000200798
0.000138847
0.000161783
0.000230731
0.00025261
0.000178164
0.000215748
0.000256472
0.00479062
0.00265875
0.00344657
0.00442429
0.000102659
0.000127354
8.19616e-05
9.06215e-05
3.99172e-05
2.80673e-05
3.20396e-05
5.80143e-05
5.60442e-05
6.14919e-05
7.496e-05
-0.00131166
-0.00113359
-0.000713731
-0.000108544
3.59576e-05
5.54794e-05
4.01052e-05
6.66238e-05
7.57765e-05
7.15028e-05
-0.000393061
-0.00180406
-0.00206557
-0.00177205
-0.00171638
-0.00200051
-0.00154673
-0.000964088
5.04639e-05
0.00146401
0.0027758
0.00328068
0.00372707
0.00537702
-0.00127765
-0.000577769
-0.000296183
-0.000114439
6.71765e-05
-0.00160792
-0.00232297
-0.00306669
-0.00342461
-0.00431807
-0.00394725
-0.0028201
-0.00414149
-0.000946023
0.00164023
2.44578e-05
9.64599e-05
0.000287852
0.000277611
0.00025348
0.000147769
0.000170161
0.000252351
0.000292341
0.00019883
0.00022039
0.000295219
0.00534712
0.00403448
0.00350199
0.0040254
0.00460535
0.000111866
0.000100732
0.000121563
0.000142462
4.13921e-05
3.53066e-05
4.16389e-05
6.9558e-05
6.20233e-05
7.99369e-05
9.60467e-05
-0.0015702
-0.00110587
-0.000518996
-0.000908198
-0.00015229
1.47391e-05
0.000126189
9.80474e-05
8.43076e-05
0.000135653
0.000100368
8.47069e-05
-0.000282959
-0.00214444
-0.00219325
-0.00216318
-0.00240402
-0.00139062
-0.000633899
0.000487922
0.00234118
0.00120975
0.00325071
0.00545123
-0.00107575
-0.000761496
-0.000268914
0.000111847
0.000175654
-0.00186056
-0.00226119
-0.00327896
-0.00406302
-0.00505875
-0.00458907
-0.00230288
-0.00382942
-0.00491289
-0.00139617
0.00178595
1.90865e-05
0.000200703
0.000363976
0.000365428
0.000395116
0.000160637
0.000188702
0.00027634
0.000323444
0.000213177
0.000242075
0.000354666
0.00459474
0.00623174
0.00351325
0.00560771
0.000115837
0.000103717
0.000132948
0.00014242
5.3012e-05
4.16871e-05
8.00817e-05
7.42186e-05
9.68115e-05
0.000106449
0.0001032
-0.00180946
-0.00138411
-0.000524237
-0.000930646
5.4946e-05
9.16226e-05
0.000202665
0.000141793
0.000141187
0.000157179
0.000131757
0.000115501
-0.00022559
-0.00243043
-0.00232458
-0.00257774
-0.00209979
-0.00282044
-0.00188159
-0.0010513
4.02226e-05
0.00254841
0.00186847
0.00390094
0.00366113
-0.0012407
-0.000395847
6.85675e-06
0.000204633
0.000328273
-0.00167291
-0.002758
-0.0038394
-0.00430354
-0.00543913
-0.00522149
-0.0052147
-0.00300735
-0.0044741
-0.00582621
-0.000992433
0.000955441
0.00258852
0.0003414
0.000407905
0.000414876
0.000426978
0.00016315
0.000192911
0.000273782
0.000316047
0.000370666
0.000224238
0.000259902
0.000386168
0.00632753
0.0052703
0.0045175
0.00433763
0.00599392
0.000121645
0.00013433
0.000151698
5.62197e-05
5.58297e-05
8.28991e-05
9.5799e-05
7.30385e-05
0.000119235
0.000124976
0.000116981
-0.00170132
-0.00116637
-0.000342425
-0.000730643
9.678e-05
0.000184096
0.000301731
0.000175697
0.000208634
0.000171268
0.000136339
-4.7939e-05
-0.00288463
-0.00296116
-0.00303217
-0.00245342
-0.00305427
-0.0021939
-0.000726727
-0.00177164
0.000599686
0.00342538
0.00153563
0.00503888
0.00573288
-0.000885463
-0.000441238
0.00033242
0.000452301
0.00048954
-0.00195858
-0.0025177
-0.00439572
-0.00506549
-0.00653798
-0.00626398
-0.00641528
-0.00415448
-0.00231661
-0.00545898
-0.00730147
-0.000599014
0.000435685
0.0028102
0.00054723
0.000487649
0.000512288
0.00017587
0.000187934
0.000209698
0.00030431
0.000347334
0.000407474
0.000227848
0.000267696
0.000456145
0.00641862
0.0100586
0.00723635
0.00366621
0.00546032
0.00715729
0.000140237
0.000157823
6.55533e-05
5.88302e-05
9.44401e-05
0.000101907
8.38055e-05
0.000134621
0.000134627
0.000129408
0.000113765
-0.00183744
-0.00129249
-0.000317356
-0.00075102
0.000198773
0.00030794
0.000357272
0.000306027
0.000218604
0.00023676
0.000193203
0.000163123
4.19195e-05
-0.003464
-0.00328129
-0.00349649
-0.002901
-0.0022094
-0.00380131
-0.00308141
-0.00297556
-0.00116096
-0.00240528
0.000501474
0.0036464
0.0021016
0.00565996
0.00674457
-0.000990913
-0.000126109
0.000402509
0.000564223
0.000552359
0.000578323
-0.00150998
-0.00281692
-0.00373418
-0.00534757
-0.00593656
-0.00674929
-0.00705589
-0.00734595
-0.00478967
-0.00383202
-0.00134942
-0.00692656
-0.00790196
0.00140921
0.000601124
0.000558561
0.00049937
0.000174715
0.000193239
0.0002218
0.000206298
0.000286344
0.000333793
0.0003885
0.000448665
0.000252801
0.0082077
0.00943028
0.00637664
0.0087536
0.00439883
0.005595
0.00789973
0.000154548
0.000169555
7.17681e-05
6.65948e-05
9.36242e-05
8.93154e-05
0.000156813
0.000156891
0.000140408
0.000120029
-0.0016138
-0.00104377
-7.68708e-05
-0.000473876
0.000221791
0.000296351
0.000361957
0.00044528
0.000343186
0.00024318
0.000313847
0.000186921
0.000229283
-0.00394413
-0.00402808
-0.00406826
-0.00320865
-0.00252434
-0.00418094
-0.00379152
-0.0029752
-0.000447416
-0.00203692
0.00120759
0.00311091
0.00503901
0.00667526
0.00784251
-0.000723167
-0.000296959
0.000214173
0.000860453
0.000790092
0.000798146
0.000736659
-0.00170327
-0.00217981
-0.00342281
-0.00547968
-0.00775767
-0.00822007
-0.00862376
-0.00612553
-0.00467222
-0.000771367
-0.00708544
-0.00874652
0.000742076
0.000751677
0.00063259
0.000556918
0.000183522
0.000192646
0.000230349
0.000208744
0.00029804
0.000348101
0.000405798
0.000485769
0.000245632
0.00919727
0.0072984
0.0102569
0.0077225
0.00446766
0.00684676
0.00948558
0.000152925
0.000170083
8.12007e-05
0.000104363
9.76623e-05
0.000167046
0.00016186
0.000133768
0.000153441
0.000116932
-0.00185922
-0.00104442
0.000128538
-0.000458072
0.000379474
0.000522081
0.000514833
0.000525394
0.000535081
0.000410287
0.000293149
0.00032301
0.000204541
0.000253888
-0.00475362
-0.00450402
-0.00487526
-0.00301165
-0.00372841
-0.00225354
-0.00501661
-0.00390267
-0.00113208
-0.00267226
0.00165887
0.00383347
0.00489851
0.00744
0.00909562
-0.000983732
0.000331214
0.00052858
0.00106484
0.000958151
0.000957198
0.000833164
-0.00237132
-0.00409877
-0.00501947
-0.00697913
-0.00808572
-0.0085686
-0.00991305
-0.00616008
-0.00364167
-0.00163701
-0.00894868
-0.00978793
0.00192052
0.000822792
0.000757479
0.000619914
0.000536029
0.000188282
0.000201942
0.000227229
0.000216253
0.000287364
0.000327265
0.000382572
0.000464578
0.00050292
0.000253594
0.0100946
0.00894076
0.00990403
0.00980471
0.00612024
0.00362001
0.00726378
0.00998645
0.000174786
0.000108587
0.000189184
0.000179457
0.00013687
0.000162782
0.00012886
-0.0014901
-0.000754179
6.56292e-05
0.000361808
-0.0002132
0.000552185
0.000583759
0.000636571
0.000500767
0.000675887
0.000423833
0.000315006
0.000385228
0.000207993
0.000242963
0.000292824
-0.00549502
-0.00581244
-0.0058464
-0.0033758
-0.00435948
-0.00242065
-0.00504332
-0.00447559
-0.000656829
-0.00227431
-0.00378058
0.00072516
0.00297591
0.00561789
0.00693851
0.00895007
0.00960385
-0.000628112
0.000521418
0.000950596
0.00135283
0.00135461
0.001129
0.000983584
-0.00230928
-0.00311456
-0.00585328
-0.00693295
-0.00979629
-0.0101329
-0.0113534
-0.00661884
-0.0060144
-0.00132652
-0.00988888
-0.0119686
0.00030743
0.000943563
0.000774006
0.000693764
0.000595954
0.000198569
0.000186077
0.000201694
0.000232118
0.000215001
0.000296078
0.000270131
0.000342064
0.000400169
0.000439851
0.000546103
0.000243505
0.0115913
0.00859381
0.0114527
0.00883541
0.00577654
0.00425092
0.00891674
0.011806
0.000114309
0.000191099
0.000177398
0.000149467
0.000136982
0.000162117
0.000127474
-0.00134326
-0.000897681
0.00044048
0.000616872
-0.000235714
0.000733608
0.000726383
0.000717231
0.000522959
0.000776802
0.000474074
0.000363435
0.000235129
0.000253644
0.000296067
-0.00638522
-0.00633806
-0.0066913
-0.00407007
-0.00300752
-0.00225661
-0.00576011
-0.00563395
-0.00183949
-0.0035971
-0.00430098
0.00164501
0.00351424
0.0048283
0.00862839
0.0100609
0.0115836
-0.00108497
2.72799e-05
0.00104382
0.00138539
0.00182698
0.00151142
0.00135522
0.0011114
0.0010057
-0.00167417
-0.00349263
-0.0050164
-0.00800701
-0.00940943
-0.011149
-0.0114326
-0.0125417
-0.00864569
-0.00640714
-0.00237046
-0.0120461
-0.0128585
0.00169269
0.00105633
0.000855349
0.000666664
0.00019894
0.000185687
0.000207384
0.000227532
0.000220565
0.000277593
0.000319235
0.000257645
0.000376692
0.000470996
0.00057091
0.000241655
0.0122449
0.00769095
0.010935
0.00708465
0.00356835
0.00998006
0.0132845
0.0113799
0.000212988
0.000186093
0.00015492
0.0001434
0.000169419
0.000130621
-0.0016955
-0.000585124
0.000466434
0.000669354
0.000767189
0.000138448
0.000911283
0.000892782
0.000864969
0.000694875
0.000607066
0.00092584
0.00050931
0.000378294
0.000233262
0.000276718
0.000338358
-0.00687262
-0.00760905
-0.00812366
-0.00461841
-0.00356949
-0.00279368
-0.00666949
-0.00548121
-0.00547977
-0.00332275
-0.000862969
0.000774354
0.00308742
0.00578342
0.00982461
0.00784657
0.0119475
0.0117195
0.000258499
0.000585118
0.00121312
0.00137102
0.00194441
0.00203013
0.00182966
0.00156079
0.00133168
0.00120742
-0.00169538
-0.00290913
-0.00515226
-0.00830579
-0.0108418
-0.0126094
-0.0133738
-0.0144673
-0.0112661
-0.00836975
-0.00437681
-0.000644283
-0.0127751
-0.0155309
0.00150529
0.000984367
0.00122903
0.000807001
0.000715436
0.000202721
0.000210753
0.00022845
0.000218793
0.000262258
0.000278273
0.000324228
0.000247232
0.000386619
0.00052838
0.000429703
0.000651775
0.000234666
0.0156171
0.0150466
0.0166056
0.00679427
0.00915727
0.00472248
0.0148313
0.0128263
0.000210132
0.000197547
0.000179626
0.000166858
0.000149411
-0.00130942
-0.00074458
0.000928077
0.00104776
0.00114246
0.000155721
0.00111426
0.00105941
0.000924912
0.000948085
0.000764158
0.000575264
0.000476918
0.000414942
0.000253251
0.000301064
0.000333274
-0.00866045
-0.00849261
-0.00803218
-0.00939802
-0.00422711
-0.00240826
-0.00754114
-0.00642855
-0.00655522
-0.00469181
-0.00269854
0.00175334
0.00476473
0.00624141
0.0107922
0.00704781
0.0128989
0.0124842
0.00091633
0.00192973
0.00226103
0.00230902
0.00244919
0.00210499
0.00150529
0.00191296
-0.000796728
-0.00347242
-0.00687541
-0.00950029
-0.0126786
-0.0134341
-0.0147888
-0.0160155
-0.0108241
-0.00784325
-0.00511934
-0.00348011
-0.015589
-0.0168676
0.00216128
0.00100735
0.00137474
0.00088025
0.000209956
0.000215106
0.000225204
0.000221986
0.000248965
0.000258808
0.000295984
0.000351002
0.000239669
0.000546105
0.000435581
0.000666811
0.000230432
0.018938
0.0165628
0.0182151
0.0151339
0.00854537
0.00990237
0.00381142
0.0147663
0.0129057
0.000221436
0.000201032
0.000185872
0.000172036
0.000151467
-0.00158376
-0.000233506
0.00108211
0.00117061
0.00128353
0.000704865
0.00131494
0.00123446
0.00105957
0.000869529
0.00112654
0.00070508
0.000616694
0.000487719
0.000395546
0.000287198
0.000246402
0.000355742
-0.00858633
-0.0105567
-0.00966861
-0.0111644
-0.00462642
-0.00283446
-0.00743209
-0.00583922
-0.00633434
-0.00470201
-0.00301935
0.00077212
0.00392655
0.010228
0.0124155
0.0081553
0.0145447
0.0141763
0.00205124
0.000514986
0.00254681
0.00268946
0.00273939
0.00237773
0.00166716
0.00194233
-0.001245
-0.00375206
-0.0055531
-0.0105487
-0.0144622
-0.0162821
-0.0165897
-0.0177557
-0.0125179
-0.00963067
-0.00365708
-0.0171003
-0.0191682
0.00288636
0.00113934
0.00162014
0.00128945
0.000866275
0.00021139
0.000216331
0.000226142
0.000219968
0.000241234
0.000245612
0.000233467
0.000600999
0.000763434
0.0155278
0.0181775
0.0121517
0.0170406
0.0065593
0.0112247
0.00485857
0.0168973
0.0146145
0.0002326
0.00021464
0.000196358
0.000185816
0.000182017
0.000167589
-0.0013517
-0.000163888
0.00165915
0.00165906
0.00160423
0.000979305
0.00160622
0.00131403
0.00118288
0.000934455
0.00127185
-0.00957666
-0.0110324
-0.0118514
-0.00975258
-0.0118367
-0.00431309
-0.00366472
-0.00184311
-0.00839734
-0.0067727
-0.00793465
-0.00600356
-0.0013599
-0.00534408
0.00200695
0.00508407
0.0120614
0.0143003
0.00871178
0.0151877
0.0198814
0.00321688
0.00205875
0.00342869
0.00351921
0.00322595
0.0026387
0.00217848
0.000460675
-0.00269819
-0.00654523
-0.00903375
-0.0131596
-0.0166168
-0.0178461
-0.0181789
-0.0194997
-0.0152271
-0.0121169
-0.00780577
-0.0054952
-0.000512303
-0.0203492
-0.0221922
0.00257903
0.00107294
0.00179844
0.00144238
0.000215856
0.000224368
0.000220508
0.000228961
0.000232782
0.000227881
0.0199899
0.0188476
0.0194189
0.00739575
0.0119319
0.0190066
0.0166651
0.0141064
0.000216219
0.00019922
0.000192408
0.000182198
0.000166631
-0.000633983
0.000682427
0.00191696
0.00185271
0.00182702
0.00172741
0.00176707
0.00159543
0.00135542
0.00142732
-0.0111299
-0.0132043
-0.0136254
-0.0109579
-0.0139996
-0.00543008
-0.003755
-0.0019001
-0.00924306
-0.00817307
-0.00728848
-0.00123358
-0.00570575
0.00412851
0.000442393
0.00753751
0.0124616
0.0142253
0.0107931
0.0169926
0.0179268
0.00350279
0.0039309
0.00204223
0.00386618
0.00364201
0.00309872
0.00275599
0.00256175
0.00206908
0.000492236
-0.00283424
-0.00465424
-0.00981298
-0.0141142
-0.0191144
-0.0206018
-0.022157
-0.022426
-0.0193317
-0.0138187
-0.0117615
-0.00491098
-0.00168175
-0.0218817
-0.0227497
-0.023748
0.00448531
0.00167583
0.000217339
0.000223973
0.000222121
0.000219631
0.000225053
0.000223312
0.000224603
0.0241659
0.0211051
0.0188026
0.010175
0.00722372
0.0117109
0.0209782
0.0173852
0.0162155
0.000209307
0.000197878
0.000185893
-0.000229765
0.00107447
0.00255045
0.0022978
0.00220314
0.00207997
0.00212093
0.00161937
-0.0122547
-0.0141618
-0.0144083
-0.0151523
-0.0096369
-0.0134255
-0.0137265
-0.0155115
-0.00478121
-0.0028247
-0.000764991
-0.0110901
-0.00837742
-0.00405157
-0.00864128
0.00553006
0.00184084
0.00745982
0.0145277
0.015475
0.0123435
0.0177379
0.0214944
0.00474568
0.0051729
0.00316323
0.00481662
0.00427977
0.00365284
0.00329745
0.00258256
0.00225899
0.00286987
-0.00100942
-0.00543888
-0.0123484
-0.00788636
-0.0177552
-0.0204348
-0.0213186
-0.0241298
-0.019419
-0.0166996
-0.0146759
-0.00698277
0.000191889
-0.0248615
-0.026154
-0.0269967
0.0033165
0.00186464
0.000220093
0.000219614
0.000219143
0.000220333
0.000217121
0.0198021
0.0234454
0.0219754