/*--------------------------------*- C++ -*----------------------------------*\
| =========                 |                                                 |
| \\      /  F ield         | OpenFOAM: The Open Source CFD Toolbox           |
|  \\    /   O peration     | Version:  v2012                                 |
|   \\  /    A nd           | Website:  www.openfoam.com                      |
|    \\/     M anipulation  |                                                 |
\*---------------------------------------------------------------------------*/
FoamFile
{
    version     2.0;
    format      ascii;
    class       surfaceScalarField;
    location    "150";
    object      phi;
}
// * * * * * * * * * * * * * * * * * * * * * * * * * * * * * * * * * * * * * //

dimensions      [0 3 -1 0 0 0 0];
oriented        oriented;


internalField   nonuniform List<scalar> 
20094
(
-1.12873
-0.842668
-1.48991
0.361183
0.890308
-1.73298
0.0018449
-1.49175
-1.57151
-1.09801
-1.73113
-1.83726
0.345507
-1.56745
-0.00406787
0.755469
-1.85348
-1.67659
-0.0545453
0.112173
-1.94943
-1.22194
-1.87803
-1.23292
-1.55574
-0.297735
-1.56441
-1.61029
-1.46626
-0.483174
0.823723
-2.04566
-1.05431
-1.55504
0.322123
-1.85278
0.179105
-1.74352
-1.49627
-0.114013
0.0474333
-1.51369
1.23462
-1.71779
-0.811041
-1.71051
0.656205
-1.64926
-1.13386
-0.718916
-1.31717
-1.69608
-1.24787
-0.250726
-1.26297
-1.09991
-0.617881
0.860869
-1.67191
-0.849642
-1.14048
-1.64363
-0.0056248
0.760398
-1.47931
-1.9142
0.597033
-1.09591
-0.600178
0.163558
-1.41143
-1.35064
-0.340645
-0.922322
0.946641
-1.56452
-0.725269
-1.68262
0.832977
-1.47696
0.336476
-0.883235
1.59163
-1.59726
-1.31576
-1.12335
-0.790853
-0.814399
-1.43655
-1.72353
-0.502008
-0.848631
-1.42433
-0.855493
-0.709029
0.904656
-1.62992
-0.777963
-0.643981
-1.3651
0.960197
-1.84343
-0.341142
-0.637059
-0.866469
-0.449286
1.01893
-1.80978
-1.68087
-0.462268
-0.974284
-1.07103
-0.652497
-1.70412
-1.8866
0.783788
-1.49282
-0.846137
0.890102
-1.66806
1.09276
-1.73674
-0.272348
-1.1563
-0.687134
-2.21503
1.05605
-1.69311
-1.60558
-0.66194
-0.960417
-0.849365
-2.04531
-1.61291
-1.42178
-0.282341
-0.41333
-1.47327
-1.2265
-0.266314
0.643804
-1.48994
-0.846636
-1.02426
-1.86196
0.98179
-1.66892
-1.15897
-0.711322
-1.02782
-0.577761
-1.68976
0.896876
-1.74624
-1.13043
-0.914882
0.000385581
-1.6133
-1.83511
-1.50884
-0.315387
-1.15788
-1.75625
1.08916
-1.93579
0.990455
-2.01472
-0.772805
-1.11019
-0.558737
-1.60173
0.442755
0.656495
-1.36782
-1.68795
-0.792887
-1.74586
-1.44582
0.40104
-1.31592
-1.21226
-0.252497
-1.58262
0.564822
-2.07366
-1.41038
-1.19143
-0.945338
-1.51173
-0.502981
-2.23447
1.23922
-1.79796
-0.945234
-1.35391
-0.128593
-1.15611
-0.53184
-1.949
-0.985989
-0.759866
-0.480023
-0.965795
-0.811507
-0.504415
-0.254126
-0.958134
-0.420974
-1.16164
-1.06497
-1.0087
-0.212192
-1.19819
0.505898
-1.69733
0.837416
-1.78275
-1.00584
1.08037
-1.58335
-1.39706
-0.905725
-0.892235
-1.26502
0.319786
-1.36891
0.0149971
-1.39361
-1.43757
-0.250064
-1.69893
-1.24012
0.594712
-1.35458
-1.29153
-1.17799
-1.46255
-1.48594
0.115767
-1.27741
0.813445
-1.82214
-1.08242
-0.883885
-0.702387
0.472079
-1.47792
-1.11127
-0.0025917
-1.39446
0.372771
-1.26501
-1.04912
-1.68655
-1.86292
0.469307
-1.68021
0.24264
-1.93027
-1.10422
0.0234208
-1.26354
-1.33116
-0.837837
-0.453692
-0.23136
-0.946628
-0.644184
-0.818366
-0.816986
-0.668956
-0.133485
-1.14392
-0.45856
-1.36358
-0.0396738
-1.04275
0.94613
-1.83002
0.662594
-1.36498
-0.531786
-1.12419
0.0129187
-1.32202
-0.731871
-1.49015
-1.02237
0.536445
-1.58556
-1.15011
-1.11626
-0.696382
-1.23389
-1.8006
-0.340331
-0.923206
-0.96154
-0.369617
-1.0692
-1.09788
-0.986301
-1.1587
-0.950472
-1.12752
-0.870375
-0.273548
-1.1514
-0.212186
-0.672008
-0.370739
-1.26211
-0.567901
-1.42651
0.0615246
-1.65597
-1.41359
-0.656981
-0.665043
-1.38885
-1.01451
-0.475637
-2.03688
-1.41151
0.261399
0.755985
-1.87224
-1.57458
0.340687
-0.760187
-1.04041
0.100703
-1.02391
-0.860837
-1.1298
-0.821071
-0.248126
-0.543412
-0.554464
-0.573295
-0.413006
-0.422898
-0.735799
0.0647823
-1.01525
-1.06273
-0.0563113
-0.814064
-0.945555
-0.167486
-0.983909
-1.4743
-0.944034
1.27334
-1.84124
-1.32733
-0.382636
-1.55604
0.142456
-1.82905
1.1917
-1.66734
-1.64084
-0.396043
-0.65552
-1.32818
-0.68054
-0.345257
-1.22932
-1.30015
-1.38567
-0.247658
-0.77625
0.177254
-1.03809
-0.95255
-0.3387
-0.482371
-0.791538
-0.977362
-0.751707
-0.983457
-1.07157
-1.23022
-0.617623
-0.196441
-0.634593
-0.310962
0.297533
-1.28144
-1.17677
-0.678812
-0.265222
-1.35389
-0.487349
-1.59308
0.265752
-1.93868
-1.45062
-1.5633
-1.37394
-0.293403
-1.76998
1.01281
-1.66833
-0.315371
1.04563
-1.72617
0.35557
-1.58489
0.62367
-1.92382
-0.0426985
-1.34297
0.224474
-1.00072
-0.813617
-0.995248
0.320855
-0.803226
-0.470683
-0.376832
-0.600529
-0.640456
-0.11125
-0.112216
-0.871241
-0.451171
-0.620394
-0.307492
-0.922728
-1.06879
-0.831034
-0.989774
-0.253456
-1.02799
-0.0622023
-1.11457
-0.905679
-1.41609
1.24734
-1.73469
-0.691338
0.362577
-1.8132
-1.28381
-0.279482
1.19737
-1.49077
-1.14631
-0.622704
-1.777
-0.5288
-1.56825
-1.05805
-0.52684
-0.572765
-0.770207
-0.688754
-0.31197
-0.0949594
-0.718658
-1.09021
-0.914476
-0.847515
-0.712746
-0.1811
-0.69014
-0.927886
-1.17618
-0.0215586
-1.04724
0.247521
-1.07855
-0.742253
0.251597
-1.27958
-0.862968
-0.0616453
-0.844033
-0.743307
-0.672785
-0.918237
-0.816452
1.03547
-1.72681
-0.921238
-0.777727
-1.27647
-2.15815
0.667382
0.682296
-1.82861
1.05231
-1.67501
-0.724699
-1.44521
0.916405
-1.38989
-0.17836
0.122337
-1.18039
-1.09961
0.12657
-0.896776
-0.869855
-1.03063
-0.963638
-0.61486
-0.299616
0.00163009
-0.849145
-0.711116
0.0327542
-0.722895
-0.949445
-0.174851
-1.00133
-0.925685
-0.121551
-0.607784
-0.47077
-0.783768
0.0415145
0.170678
-1.45026
-1.60628
-0.676505
-0.418674
-0.425359
-1.59102
1.22754
-2.04399
-0.499276
0.659784
-1.58102
0.890426
-1.66815
-0.61669
-1.47586
-0.777824
-1.42171
-0.406898
-0.758605
-2.0441
-1.26755
-1.60007
-0.605823
-0.574563
0.033275
-1.13288
-0.863501
-0.354355
-0.515499
-0.431421
-0.599207
-0.266221
-0.697417
0.344941
-0.644557
-0.504204
-0.678362
-0.135748
-0.587147
-1.1243
-0.830655
-0.69044
-0.235245
-0.729335
0.287526
-0.758296
-0.496242
-0.37716
-0.967857
-0.482404
-0.0687313
-1.53754
-0.62501
-0.0514959
-0.370917
-0.0544417
-1.65975
-0.896651
-1.14734
1.03706
-1.53633
-0.690596
-0.631097
-1.43688
-1.44985
-0.0260114
-1.80744
1.02962
-1.85674
0.732066
-1.49067
-1.31203
-0.832378
-0.435174
-1.18097
-0.419102
0.375645
-0.981469
-1.40694
-0.757235
0.00704228
-0.870544
-0.785776
-0.651247
-0.865428
-0.690375
-0.568911
-0.075646
0.0591816
-0.563385
-0.61918
0.0513372
-0.638484
-0.307358
-0.816938
-1.13801
-0.0152202
-0.675219
0.476421
-0.711667
-0.252914
-0.412477
-0.34582
-0.676121
0.179879
-0.748077
0.038578
-1.00643
0.498963
-0.981367
-1.49897
-0.679451
-0.620407
-0.0696964
-1.59006
0.28162
-1.17827
-1.21703
-1.71023
0.173895
0.685688
-1.37628
-1.86395
1.23285
-0.751188
1.54831
-1.57432
-0.259131
-0.461055
-1.0412
-0.815542
-1.0335
-0.278536
-1.61614
-1.4603
0.00374193
-0.98521
-0.545059
-0.861882
0.0491935
-0.806428
-0.82135
0.0532871
-0.839063
-0.59796
-0.115674
-0.749754
-0.806049
-0.639031
-0.567843
-0.113453
-0.525031
-0.832158
-0.639051
0.103375
-0.778594
-0.554582
-0.157084
-0.66539
0.29826
-0.64408
-0.37786
-0.568199
-0.0330547
-0.97338
-0.841835
-0.139532
-0.748613
-0.750354
0.0165315
-0.695983
-0.617176
-0.00323133
-0.39964
-1.19042
-1.42861
-0.29024
-0.888031
-1.50727
-1.69005
-0.143434
-1.38627
-1.74806
0.173738
1.32824
-1.58737
-1.49455
0.56171
-1.37725
-1.44251
-0.690339
-0.925801
0.0766362
-1.53694
-0.802687
-0.203992
-0.781218
-1.2354
-1.06587
-0.157944
-0.663406
-0.3382
-0.500863
-0.711413
-0.330822
-0.418932
-0.494255
-0.311794
-0.0574674
-0.581564
-0.62531
0.127874
-0.652905
-0.202464
-0.629694
-0.841515
-0.451208
-0.176279
-0.602315
0.418862
-0.575947
-0.246528
-0.303139
-0.340941
0.211566
-0.589426
-0.493151
-0.0750479
-0.874889
-0.423181
-0.550199
-0.981047
-1.14825
-1.17353
-0.600644
-0.344211
-0.351771
-0.584795
0.239486
-1.4299
-0.735471
-0.693136
-1.6235
-1.26779
-0.207932
-1.48212
-1.52971
-1.18635
1.41427
-1.24053
-0.166309
-0.173103
-1.30062
-1.03159
-0.410925
0.279781
-1.20558
-1.25716
0.0874003
-0.890087
0.199535
-0.980753
-0.618079
-0.617319
-0.33231
-0.733564
-0.652199
-0.576006
-0.669022
0.131716
-0.632579
-0.579697
-0.730725
-0.497436
-0.295473
-0.357433
-0.805972
0.312552
-0.76376
-0.497714
-0.104602
-0.263394
-0.549667
0.170038
-0.510979
-0.281585
-0.419389
-0.419259
-0.606922
-0.267967
-1.15712
-0.766859
-0.214188
0.0663191
-1.21457
-1.10722
-0.156487
-0.444157
0.065879
-0.41765
-0.0246481
-0.560147
-0.0853211
-1.34458
0.762136
-1.45527
-0.263963
-1.35954
-1.53175
0.932411
-1.14034
-0.719982
-1.97349
-1.68925
0.502905
-1.671
0.430468
-1.19789
-1.71204
1.53894
0.297506
-1.59812
-1.40789
-0.558983
-0.646599
-0.237993
-1.01917
-0.690552
-0.311365
-0.669388
-0.950388
-1.1763
-1.04493
-0.36109
-0.291109
-0.937096
-0.307801
-0.361221
-0.277311
-0.355268
-0.105964
-0.473734
-0.381392
-0.349334
-0.522084
0.208744
-0.504217
-0.463396
-0.0607584
-0.745214
-0.489687
-0.274073
-0.558472
-0.594288
0.430273
-0.693668
-0.119394
-0.630372
0.277768
-0.559353
-0.503351
0.0839625
-0.141491
-1.03483
-0.235116
-0.922006
-0.959402
-1.29989
-0.0354486
-1.07177
0.340697
-0.497184
-0.378278
-0.559141
-0.21945
0.207702
-1.55228
0.0953988
-1.55067
0.118446
-1.47799
-1.32405
-1.04108
-0.869522
-0.270821
-1.5895
-1.39175
-1.16809
-1.28158
0.341046
-1.83611
-1.06684
-1.66577
0.104599
-0.795151
0.335429
-1.00482
-0.131005
-0.819384
-1.30731
-0.308588
-0.736341
-0.6725
-0.832497
-0.657135
-0.638532
0.172844
-0.528112
-0.300889
-0.31334
-0.232713
-0.271503
-0.206249
-0.257148
0.341517
-0.61559
0.316799
-0.875271
-0.277489
-0.352151
-0.546068
-0.0843041
-0.455267
-0.104086
-0.418638
-0.0847126
-0.371305
-0.74915
-0.285676
-0.984266
-0.957454
-0.683869
-0.275533
0.325288
-1.62518
-0.746479
-0.208183
-0.289001
-0.586461
-0.263833
-0.295308
-0.53279
-0.110032
-1.44225
-1.49411
-1.43223
-0.129564
-1.34842
-1.45361
-1.28907
-1.5599
0.732854
-2.1246
-1.65308
0.484988
-1.34052
0.0589429
-0.936257
-0.899857
-1.887
-0.755276
-0.910489
-0.459723
-0.300466
-0.704351
-1.12797
-0.447479
-0.859827
-1.03681
0.183858
-0.856358
-0.388117
-0.444379
-0.473277
-0.216261
-0.422271
-0.257138
-0.270974
-0.507138
-0.489861
0.142342
-0.413846
-0.432926
-0.182664
-0.575618
-0.299654
-0.710415
0.158756
-0.510907
-0.387312
-0.502943
-0.367919
0.338868
-0.423581
-0.032436
-0.969545
-0.896641
-0.0876246
-0.879571
-0.0778836
-0.851151
-1.73521
-1.62605
0.117713
-0.406714
-0.284368
-0.302093
-0.0317769
-0.263531
-0.390448
0.0643961
-1.50665
-1.50091
0.00680227
0.0784176
-1.51064
0.155146
-1.50357
-1.38922
-1.60968
-0.920228
-0.656175
-1.46843
-0.855531
1.43152
-1.37258
-1.69153
-1.55603
-0.455476
-1.35797
-0.84784
0.0832824
-0.787634
-0.35031
-0.777661
-1.21014
-0.486059
-0.550748
-0.612668
-0.243691
0.118056
-0.562435
0.056608
-0.529885
-0.473399
-0.365663
0.231943
-0.502917
-0.275195
-0.144657
-0.345205
-0.366853
-0.046993
0.31611
-0.498775
0.433534
-0.733188
-0.276881
-0.194797
-0.335284
-0.0520278
-0.349913
-0.153029
-0.411043
0.0431238
0.011686
-0.435267
-0.443479
-0.612882
-0.356663
-0.974525
-0.700506
-0.723466
-0.127685
-1.07228
-0.66293
-1.28722
-0.338828
-0.272735
-0.34016
-0.0665543
0.0588281
-0.343196
-0.33387
-0.220408
-0.141845
-1.3648
-1.42249
-1.60288
-1.3555
-0.0753621
-1.4282
-1.46458
0.768807
-1.68904
-0.232126
-1.2363
0.880092
-1.73562
-0.492485
-0.870544
-0.820989
-0.541158
-1.01487
-1.09055
-0.327063
-1.03091
-0.64989
-0.19795
-0.566607
-0.455007
-0.332626
-1.26372
-1.5372
-1.00575
-0.494612
0.382487
-0.626178
-0.40428
-0.158155
-0.147398
-0.0505704
-0.422829
-0.416233
-0.174857
-0.32806
-0.419851
0.00425704
-0.349462
-0.362596
-0.319728
-0.576876
0.0781018
-0.520777
-0.212411
0.237325
-0.514206
-0.530081
-0.401941
0.197472
-0.350501
0.274717
-0.263031
-0.237795
-0.168762
0.319886
-0.676549
-1.2928
0.318271
0.220809
-0.921315
-0.40358
-0.648461
-1.21413
0.67021
-1.33314
-0.617011
0.729579
-1.06841
-0.281332
-0.386282
-0.147239
-0.195957
-0.154073
-0.179797
-0.37448
0.0155874
-1.38039
-1.34459
-0.0779012
-1.45397
0.0192165
-1.37471
0.0646364
-1.49284
-1.44899
-0.966816
-1.6925
0.00346936
-1.92463
-1.77746
1.5343
-2.02679
-1.88542
-1.85189
-0.602231
-0.567991
0.00138421
-0.900618
-0.225932
-1.03779
-0.218446
-1.31876
-0.717185
-0.28857
-0.364403
-0.130209
-0.341521
-0.284657
-0.522558
-0.563631
0.00295319
-0.425782
0.212149
-0.387006
-0.325107
-0.207702
-0.159763
-0.189699
-0.185309
-0.177287
-0.339551
-0.451979
0.506249
-0.71866
-0.0079577
-0.493584
0.0916431
-0.327597
-0.0229038
-0.360388
0.0973573
-0.323731
0.0859357
-0.252895
0.0841327
-0.45574
-0.563217
-0.603044
0.324046
-0.727626
-0.324415
0.224602
-1.43873
-1.10854
0.708449
-1.32546
-0.359959
-0.24136
-0.039972
-0.147522
-0.23876
-0.327036
-0.437316
-0.379611
0.00513072
0.137789
-1.51818
-1.32537
-1.53187
-1.31008
-0.0676513
-1.42519
-1.51664
-1.5047
0.537882
-1.50123
-1.26248
-0.662145
-0.335331
-1.44213
-1.4889
-1.21725
-0.668168
-0.925745
-0.92615
-0.484937
-0.117294
-0.483553
-0.536711
-0.363906
-0.943117
-1.25623
-0.322979
-0.995776
-0.825282
-0.47173
0.10632
-0.390977
-0.482529
-0.040029
-0.467036
-0.0965954
-0.265792
-0.15999
-0.167401
-0.219605
-0.236623
-0.0884839
-0.367465
-0.375008
-0.324809
-0.446208
0.106657
-0.392233
-0.0597459
-0.352755
-0.365905
-0.454166
-0.303
-0.190585
-0.235954
-0.346635
-0.274452
-0.155537
-0.295479
0.364029
-0.819769
-1.02896
0.465748
0.515655
-1.1187
-0.363598
-0.67717
-1.30094
0.194715
-1.30325
-1.2882
-0.0372645
0.532707
-0.892666
-0.278732
-0.321906
-0.176219
-0.261097
0.112796
-1.63097
-1.17966
-0.145711
-1.18577
0.180525
-1.4906
-0.0423993
-1.38279
-1.40385
-1.8232
0.321972
-1.59782
1.10494
-1.76708
-0.300905
-1.14122
-1.73687
-1.51816
-1.59391
-1.24913
-0.599822
0.262258
-0.745811
0.196774
-0.56068
0.174093
-1.11721
-0.891753
-0.364481
-0.143162
-0.852614
-0.66673
-0.158551
-0.353601
-0.118129
-0.360715
-0.294847
-0.09613
-0.39363
-0.362388
-0.396613
0.168179
-0.33558
-0.308089
-0.199286
-0.136868
-0.23814
-0.0604359
-0.264373
-0.285576
-0.362745
0.135091
-0.500996
-0.612194
0.158028
-0.435749
0.245165
0.137205
-0.373159
-0.20943
-0.345988
0.0715353
0.175936
-0.331474
-0.119542
-0.304114
-0.496257
-0.652951
0.385335
-0.748933
-0.291835
0.606279
-1.90722
-1.09348
-0.696973
0.945164
-0.982428
0.0524973
-0.339168
-0.0436584
-0.278247
-0.219878
-0.149782
-0.111315
0.0898126
-1.72079
-0.999136
-1.33148
-1.533
-0.351535
-1.03126
-1.75538
-0.718265
-1.4149
-0.649673
-0.948143
-0.959728
-0.807352
-1.7909
-0.242822
-1.27533
-1.17434
-0.419569
-0.321731
-0.927398
-0.337564
-0.539197
-0.206614
-0.342423
-0.500033
-0.0606466
-0.492638
-0.636406
-0.480803
-1.03491
-1.00089
-1.17435
-0.658584
-0.412976
-0.227092
-0.133624
-0.323222
0.235864
-0.629495
0.033236
-0.395624
-0.363377
-0.0479759
-0.287604
-0.356065
-0.336154
0.0525952
-0.290735
-0.211778
0.214306
-0.499881
-0.14844
0.431731
-0.29664
-0.412626
-0.08837
-0.180463
-0.341854
-0.218473
-0.217276
-0.127994
-0.267982
0.0585524
-0.234152
-0.111836
0.242004
-0.170468
-0.0894702
0.181576
-0.301119
0.475049
-0.779163
-0.849873
0.353616
-0.979863
0.326912
-0.273884
-0.704461
-1.81741
-1.20729
0.113815
-1.90427
-1.26675
0.284318
-0.797376
-0.0434671
-0.295701
-0.0966709
-0.0545472
-0.16533
-0.204329
0.0888845
-0.2002
-0.49797
-1.22282
0.791472
-1.79061
-0.741896
-0.791106
-1.77315
-0.807256
-0.948127
1.46468
-2.18294
-1.90787
0.73908
-1.54643
-0.1652
-1.6257
-1.41716
-1.44053
-1.34697
0.232988
-0.570552
0.302503
-0.509117
-0.545288
0.202864
-0.605934
0.343541
-0.836178
0.508654
-0.989457
-0.790617
-0.244297
-0.656883
-0.344005
-0.0667474
-1.1076
-0.315044
-0.177111
0.190316
-0.32394
-0.378576
0.0553547
-0.396507
-0.205308
-0.193603
-0.169774
-0.21173
-0.0758736
-0.0800774
-0.275988
-0.21612
-0.120034
-0.119657
-0.171078
-0.255245
-0.366913
-0.470044
0.173404
-0.558414
-0.42613
0.245667
-0.405232
0.0633786
-0.29958
0.0823038
0.197438
-0.325432
-0.0705446
-0.175599
-0.224654
0.112818
-0.254824
0.0843561
0.137511
-0.226981
-0.163608
-0.889524
0.110361
-0.626247
-0.562611
0.329886
-0.60377
-0.374575
-1.19838
-0.619029
-1.15293
-1.58077
-0.323495
0.98236
-0.698043
0.184984
-0.206817
-0.262001
0.00795554
-0.212285
-0.192244
-1.30523
-0.0646558
-1.15816
-1.06229
-1.85339
-0.479288
-1.29386
-1.42741
-1.44386
-1.32863
-0.579241
-1.04471
-0.501726
0.140942
-1.76664
-1.28446
-0.132707
0.360131
-1.80066
-0.246214
-1.10075
-0.268049
-0.306253
-0.0538228
-0.552112
-0.327524
-0.612962
-0.376495
-0.857365
-0.90118
-0.956967
-1.35381
0.264861
-0.579905
-0.555688
-0.268585
-0.438805
0.0422985
-0.398911
0.0653061
-0.23508
-0.291808
-0.291993
-0.210682
-0.239691
0.0403428
-0.211421
-0.214902
-0.429341
0.0624286
-0.252726
0.0120205
-0.570434
-0.159565
-0.365962
-0.237152
0.315979
-0.233676
-0.00945275
0.226906
-0.297451
0.0513066
-0.173348
-0.142006
-0.142625
0.0735333
-0.237141
0.56427
-0.453909
-1.04905
0.4228
-0.920073
0.357462
-0.0395004
0.16331
-0.537886
-1.26304
0.720044
-1.33907
-1.74396
0.591027
-0.860729
0.948098
-1.27159
-1.40101
0.702971
-0.864063
0.0228565
-0.229673
-0.0138615
-0.24814
-0.226146
0.0218301
-0.214074
-0.460722
-0.844504
-1.61888
-0.943865
-0.40082
-0.893044
-1.00839
-0.419027
-1.29494
-1.18769
-1.62395
-1.79667
-0.691874
-1.07476
-0.924326
-1.23346
-0.782762
-1.0179
0.29168
-0.559729
0.217287
-0.52354
0.487417
-0.541239
-0.287251
0.664458
-0.991982
0.520127
-0.896622
0.43073
-1.28809
-0.47045
-0.599265
-0.357702
-0.440459
-0.913353
0.0845528
-0.381138
-0.17455
0.175877
-0.444462
-0.147125
-0.338839
-0.223034
0.0966399
-0.33172
-0.207627
-0.0841803
-0.169612
-0.122382
-0.114042
0.0015394
-0.24123
-0.209882
-0.192045
0.304036
-0.556762
0.364244
-0.352223
-0.407124
0.223366
-0.382931
-0.142597
-0.333809
0.096657
-0.295144
0.0614684
0.210899
-0.220352
-0.0865518
0.0991278
-0.272475
-0.25984
0.117833
0.0798393
-0.222464
-0.174606
-0.157302
-0.827522
0.373613
-0.497273
-0.47006
-0.577386
0.314667
-1.5777
-1.02441
-0.79586
-0.809987
0.959721
-1.82045
-0.311872
-0.161092
-0.207843
-0.166324
-0.0598226
-0.0786405
-0.135434
-1.85289
0.0519018
-1.67078
-1.34469
-1.31207
0.369598
-1.55729
-1.25435
-1.45055
-1.47464
0.268529
-1.34329
0.871025
-1.79535
-0.362436
0.776543
-1.79445
-0.342442
-0.036123
-0.243178
-0.298061
-0.530429
-0.471855
-0.587432
-0.30919
-0.781415
-0.50668
-1.06971
-0.945134
-1.22187
-1.27579
-0.445876
0.0828544
-0.257404
-0.350886
-0.0935767
0.302148
-0.449273
-0.0366916
0.0901192
-0.313153
-0.2416
-0.321669
-0.253792
0.0861889
-0.208571
-0.155041
-0.027176
-0.182706
-0.219221
-0.0788952
-0.192518
0.213728
-0.565951
0.173075
-0.580199
-0.294881
0.152284
-0.377744
0.0439349
-0.198487
0.294022
-0.232554
0.0736707
0.156318
-0.24287
-0.160712
-0.116157
-0.104631
0.0382738
-0.21288
0.0410524
-0.198354
-0.203773
0.642894
-1.14017
-0.713025
0.242965
-1.5258
0.703279
-1.72768
-1.48836
0.692496
-1.35236
0.542374
-1.11717
-1.80023
0.737265
-0.898357
-0.157909
-0.0499337
-0.12805
-0.138463
-0.00933929
-0.126095
-1.61255
-0.240343
-0.970927
-0.699858
-0.263063
-1.57513
-1.28876
0.0431823
-1.29753
-1.40736
-0.167265
-1.30737
-1.51056
-1.01881
-0.52896
-1.26549
-0.452448
0.110006
-0.488571
-0.513128
0.215067
0.237215
-0.70907
0.551108
-0.860298
0.721052
-1.22773
-0.348663
-0.592113
-0.353021
-0.584351
-0.637524
-1.86014
0.327825
-0.773701
-0.268031
-0.341532
0.0841282
0.224722
-0.318299
-0.387334
-0.0619391
-0.378224
-0.0884307
-0.202592
-0.0390081
-0.20294
-0.118729
-0.0362614
-0.217531
-0.158458
-0.0501131
0.0317665
-0.186808
-0.150939
-0.129597
-0.0896249
0.284172
-0.363068
-0.34924
0.156722
-0.135512
-0.392876
-0.44339
-0.136809
-0.0107083
-0.225459
0.261509
-0.217574
0.0630224
-0.246554
0.0139996
-0.169199
0.054262
-0.214974
0.113639
-0.229796
0.0786929
-0.183324
-0.171828
-0.119661
-0.647163
-0.0701304
-0.402902
0.59105
-0.348085
-0.880332
-0.645469
-1.30393
-0.423759
-0.659865
1.20005
-0.657676
-1.68972
0.572548
-1.17665
-0.62358
0.301693
-0.167249
-0.17953
0.0956498
-0.2237
-0.0428133
-0.168908
-0.424693
-1.18786
-1.81548
-1.39562
-1.58019
0.3565
-1.64526
-0.941032
-0.867351
-1.83633
0.102907
-1.61346
0.607972
-1.62678
0.33738
-1.60287
-0.277328
-0.434602
-0.0539694
-0.185303
-0.219535
0.717386
-0.48017
-0.157962
-0.596623
-0.263676
-0.9004
-0.327332
-0.940776
-0.949643
-1.53792
-1.25217
-0.0563156
-0.183903
-0.0430374
-0.275262
0.344646
-0.406585
-0.0335774
-0.291023
-0.241948
0.110948
-0.229677
-0.194719
-0.106583
-0.236921
-0.240564
-0.414374
0.0513063
-0.257651
0.37523
-0.510743
-0.452817
0.0599412
-0.589626
0.279618
-0.290327
0.0541588
-0.302953
0.085378
-0.183531
-0.179573
0.193573
-0.219558
0.050359
0.21754
-0.163278
-0.101335
-0.194865
-0.0349309
0.0342164
-0.142395
-0.029433
-0.131086
0.0114247
-0.0561131
0.687213
-0.757343
-0.972014
0.569111
0.339128
-1.9494
-2.11348
-1.60244
0.942576
-1.30616
0.648484
-0.6041
-1.15697
0.533394
-0.670321
-0.12938
-0.0378685
-0.102936
-0.0765942
-0.0967013
-0.126998
-0.00708796
-0.16182
0.572337
-1.76019
0.226129
-1.62175
-1.35406
-1.54235
-1.80838
-0.860314
-0.976016
-0.395231
-1.21823
-1.33282
-0.293961
-0.995439
-0.201469
-1.4014
0.17718
-0.454508
0.312276
-0.366246
-0.551996
0.366693
0.242221
-0.461756
-0.665854
0.185683
-0.823816
0.541088
-0.804764
1.02544
-1.35277
0.0846658
-0.864977
-0.284715
-1.25321
-1.1499
-0.102266
0.475801
-0.532117
0.151101
-0.335004
0.172856
-0.215894
-0.124161
-0.229406
0.261384
-0.294961
-0.118167
-0.0167067
-0.225241
-0.171939
-0.0577383
-0.109274
-0.0854448
-0.215857
-0.110772
-0.126149
-0.080974
-0.15959
0.305293
-0.253986
0.117579
-0.369936
-0.140807
-0.309994
-0.443603
-0.146023
0.0149661
-0.248794
0.25379
-0.168412
0.0702589
-0.186256
0.00668296
-0.0259855
-0.144506
-0.159008
-0.00426957
0.0962848
-0.19762
0.108155
-0.143086
-0.0968695
-0.13097
-0.126134
-0.499716
-0.843711
0.0863677
-0.274599
-0.160589
-0.691647
-1.25775
-1.55603
-0.557452
-1.48308
-0.119362
-0.363584
0.940157
-0.291673
-1.76107
-0.949686
0.269836
-0.136468
-0.140805
-0.157568
-0.0946571
-0.0323411
-0.0813511
-0.0804688
-0.368147
-1.9899
-2.04571
-1.25023
-0.292119
-1.08006
-1.25555
-1.17749
0.217692
-1.43593
-1.44386
0.880016
-1.87545
-0.502473
-0.898924
-0.142231
-0.124025
-0.0761944
-0.0950633
0.485019
-0.299335
-0.282728
0.344257
-1.14902
-1.00751
-0.345259
0.256861
-1.12184
-1.29223
-1.35547
-0.0470983
-0.07362
-0.147405
-0.0684886
-0.271566
0.116383
-0.345789
0.0221263
-0.317087
0.0747685
-0.192935
-0.188645
-0.150473
0.0998059
-0.157544
-0.196216
-0.116051
0.0243937
-0.150543
-0.135196
-0.341954
0.0879679
-0.224375
0.202593
-0.3434
0.263935
-0.573929
0.317554
-0.463577
0.264997
-0.250031
0.0162037
-0.29314
0.124728
-0.115997
-0.164073
0.170756
0.15829
-0.184275
0.0137837
-0.0627237
-0.147992
0.143723
-0.0894645
-0.17595
0.0328641
0.0924758
-0.189345
-0.0384943
0.00267608
-0.12881
0.788856
-0.702488
0.567183
-0.841783
0.482321
-0.64291
0.498302
-1.75605
-1.05773
1.10023
-1.65769
-1.30429
1.18493
-1.26624
0.902651
-1.16733
0.875656
-1.92693
0.165856
1.01365
-1.96334
0.917955
-0.648119
-0.10907
-0.0273982
-0.0885593
-0.0522453
-0.0682647
-0.0893036
-0.0919811
-0.113692
0.0345883
-0.115057
-0.462538
-1.10825
-0.937457
-1.03254
-1.37218
0.218689
-1.47423
-0.958797
-0.227491
-1.20844
-0.563846
-1.11473
-0.760723
-1.6172
-1.85772
0.213911
-0.356142
0.251502
-0.375526
-0.515632
0.439437
0.306879
-0.401943
0.369979
-0.669314
-0.632746
0.350019
-0.28849
-0.89216
0.78375
-1.12901
-0.338088
-1.15714
-0.13509
-1.19658
-0.158899
0.408397
-0.455495
0.202216
-0.275836
0.148344
-0.216833
-0.0693505
0.257759
-0.141376
-0.131878
0.247597
-0.22547
-0.0593279
-0.0445912
-0.00935399
-0.179291
-0.16073
0.0102573
-0.166737
0.00919274
-0.125634
-0.0705822
-0.134516
0.0184651
-0.0648289
-0.0857142
-0.0193903
-0.115806
0.263877
-0.175909
0.149927
-0.374303
0.436187
-0.233594
-0.0794651
-0.256376
0.0187441
0.0138455
0.190211
-0.174007
-0.102929
0.24926
-0.124532
0.133263
-0.03081
-0.0135197
-0.162167
0.0686392
-0.131363
-0.0793531
-0.0456226
-0.120871
0.0314061
-0.0880066
-0.167305
0.145946
-0.135305
0.0761721
-0.781249
-0.974802
0.402259
-1.45998
-0.826696
-1.25543
-0.290643
-0.081302
-0.264678
0.227537
-1.79748
-0.0744816
-0.115957
-0.12051
-0.108694
0.0510877
-0.143069
-0.0626045
-0.0539873
-0.0610697
-1.57079
-1.71871
0.462656
-1.49519
-1.70173
0.413566
-1.622
-1.76042
1.02082
-1.78154
-1.08154
-0.535669
-0.751007
-1.10671
-0.10464
-0.0686471
-0.107235
0.0374949
-0.0855168
-0.627147
-0.0421668
-0.277128
-0.748588
0.460099
-0.674544
-0.217616
-1.01183
-0.117182
-1.01263
-1.31604
-1.14692
-0.028239
-0.178977
-0.0378554
-0.248328
-0.290853
0.149477
0.189947
-0.321825
-0.184233
-0.041237
-0.243561
-0.205321
-0.176091
-0.169034
-0.125323
-0.107169
-0.135411
0.0481943
-0.133908
-0.0676117
-0.346289
0.17038
-0.196361
0.0618847
-0.354809
0.121215
-0.434275
-0.479972
0.223596
-0.461228
0.281768
-0.267922
0.107761
-0.16612
0.0631916
-0.19528
0.0707479
-0.177806
0.146996
0.161061
-0.17458
-0.00110587
-0.156318
0.024955
-0.103292
0.023939
0.103244
-0.148867
-0.124912
0.0976231
-0.18563
-0.0640606
0.586756
-0.44081
0.484324
-0.619629
0.709344
-0.633171
0.945707
-1.92051
-0.514278
1.06108
-1.88778
-1.08807
-0.167355
-1.69708
1.40643
-1.25306
1.17176
-1.00646
0.741783
0.761046
-0.533508
-0.736401
0.0355405
-0.110022
-0.080417
-0.0814291
-0.0390808
-0.0492742
-0.0594197
-0.0345979
-0.108471
-0.116592
0.049878
-0.110948
0.0765732
-1.64213
-0.49309
-1.20864
-0.378863
-0.739604
-0.980962
-0.80058
-1.83254
-1.51663
-1.5998
0.271328
-0.375969
0.226001
-0.294648
0.335808
-0.443043
0.36639
-0.328895
0.377929
-0.463445
0.491664
-0.53383
-0.630392
0.353264
0.320737
-1.06933
-0.170293
0.534154
-0.75177
0.788405
-0.905587
-0.224227
-1.57824
0.262198
-1.26485
0.117929
0.210227
-0.238466
0.155465
-0.19332
-0.0381009
-0.100906
-0.0940842
-0.0504966
0.206761
-0.247998
-0.0498563
-0.0448158
-0.131275
-7.29761e-05
-0.168961
-0.168196
0.0428721
0.0258714
-0.13304
-0.10954
-0.0949909
-0.0389175
-0.116886
-0.0975427
-0.322624
0.126263
-0.26074
0.325204
-0.203989
-0.444852
0.0105772
-0.221256
0.125528
-0.0583596
0.195407
-0.132216
0.000126967
0.192632
-0.121884
0.0148256
-0.027584
0.116464
-0.11757
-0.0783372
0.1322
-0.108261
-0.0166666
-0.0272886
-0.0691653
0.0553166
-0.119377
-0.842305
0.401495
-0.357981
0.0897146
0.127874
-0.515643
-1.40487
-1.60235
-1.36272
-0.525058
-1.53007
0.495735
-2.19281
0.153368
0.165301
1.27302
-0.531233
0.739508
1.08228
-1.81868
-0.060144
0.00310791
-0.0835249
-0.0783212
-0.0985005
0.0694499
-0.104048
-0.0531542
-0.0471419
-0.040704
-0.0702437
0.108869
-1.5875
1.00702
-1.74662
0.862311
-1.66289
-1.02391
-0.808631
0.157687
-1.67432
-0.56746
-1.03234
-0.149968
0.0717416
0.482275
-0.146467
-0.0651144
0.153381
0.0282183
-0.180567
0.671343
-0.350606
-0.535171
0.501049
-0.847305
0.0955351
-1.11884
0.213253
-1.07153
-0.571219
-1.00265
-1.00091
-0.0317051
-0.20237
0.00905003
-0.240471
0.168042
-0.268948
0.15422
-0.248304
0.190156
-0.240653
-0.0937777
0.0951561
-0.145012
0.103261
-0.148076
-0.131348
-0.0738051
-0.0649349
-0.0901683
-0.00248132
-0.107058
-0.0974723
0.0662304
-0.105148
-0.0506555
0.138659
-0.236201
0.237626
-0.111363
0.0644645
0.134809
-0.338798
0.402464
-0.391886
0.287002
-0.508257
0.436441
-0.310912
0.161635
-0.219994
0.029419
0.167022
-0.166895
0.0451384
-0.142604
0.157429
-0.124968
0.0973836
-0.163822
0.0462515
0.0797424
-0.15808
-0.0285187
0.09221
-0.108877
0.0879156
-0.115204
-0.120621
0.0514555
-0.0271672
0.538205
-0.13671
-0.647663
0.289682
-0.557949
-0.653596
0.78147
1.28448
-1.80013
-1.296
-0.317864
1.08715
-1.61221
-1.27903
-0.251041
-1.29601
1.79174
-1.11053
-1.21199
1.36536
1.05297
-0.887671
0.521739
0.0859116
-0.731524
0.0520812
-0.112225
-0.0314437
-0.0439298
-0.0343914
-0.0503733
-0.0481272
-0.0418655
-0.0621823
-0.0950197
-0.0878459
-0.00989654
-0.0603472
-0.195453
-0.884309
-1.5052
0.470117
-1.49403
-1.37609
-1.2042
-1.2278
-0.302195
0.152227
-0.230453
0.264506
-0.410973
0.347457
-0.412571
0.35098
-0.1976
0.373831
-0.345613
-0.491152
0.310585
0.431309
-0.781915
-0.659688
0.124517
0.00989697
-0.564153
-0.858279
1.30726
-1.87848
0.304612
-1.12413
0.123221
0.17818
-0.209885
0.167409
-0.158359
-0.0622911
-0.0802625
-0.0787916
-0.319848
0.0791948
0.112558
-0.206335
0.0223965
-0.102453
-0.0456232
-0.0867883
-0.0445598
-0.160593
-0.135233
0.0702982
0.0346476
-0.124816
-0.0724108
-0.0206871
-0.0767851
-0.0665159
-0.0386321
-0.101029
0.320682
-0.182023
0.00142407
0.174785
-0.286148
0.25729
-0.192826
0.339483
-0.204674
0.0636653
-0.104885
-0.0718169
0.227293
0.100687
0.140138
-0.110719
-0.0267575
0.132921
-0.0877822
-0.00968316
0.0324617
-0.0664381
-0.0743693
-0.0701639
-0.0933164
0.0647977
-0.11318
0.00430284
-0.139843
0.0246385
-0.0883872
0.0604387
-0.0876059
-0.655534
0.518824
0.637035
-0.347353
0.223522
-0.541254
-1.25887
-1.5969
-1.15866
-0.453546
-1.40971
-1.88432
0.588314
0.579754
0.809894
-1.92043
0.477685
1.1882
-0.666458
-0.757282
0.843194
0.851229
-1.58275
-0.0525274
-0.0596978
-0.0753735
-0.0825185
-0.0735822
0.0113999
-0.034581
-0.00910338
-0.0787425
-0.0624239
-0.0694506
1.19954
-2.08385
-0.102146
-1.40306
-0.58937
-0.904658
-0.299554
-1.07654
0.0793365
-1.28354
-0.167621
0.120527
0.354641
-0.0901353
-0.0635159
-0.0387403
0.157041
-0.551609
0.205996
-0.241023
-0.17291
0.604219
-0.741053
-0.0408624
-0.616535
0.509644
-0.499747
0.670813
-1.23497
-1.00342
0.145138
-0.67894
-0.819519
-0.880196
-0.191421
-0.0184646
-0.218658
0.0602988
0.135417
-0.197708
0.149328
-0.229591
-0.274547
0.195755
-0.195352
-0.078863
-0.0570069
-0.138197
-0.147013
0.0905028
-0.136126
-0.0447303
-0.0545178
0.0042918
-0.0767026
-0.087203
-0.0724933
0.0430787
-0.0817108
-0.0579502
-0.206124
0.0241016
-0.2047
-0.0299153
-0.0288574
0.146657
-0.265804
0.0611299
-0.202138
-0.360115
0.25523
-0.484495
0.412678
-0.257202
0.220435
-0.119747
0.109716
-0.117888
0.0911308
-0.178867
0.0910848
-0.118137
0.108453
0.135058
-0.102596
0.0686198
-0.121058
0.0466883
-0.121441
0.0512769
-0.115718
0.0224017