/*--------------------------------*- C++ -*----------------------------------*\
| =========                 |                                                 |
| \\      /  F ield         | OpenFOAM: The Open Source CFD Toolbox           |
|  \\    /   O peration     | Version:  v2012                                 |
|   \\  /    A nd           | Website:  www.openfoam.com                      |
|    \\/     M anipulation  |                                                 |
\*---------------------------------------------------------------------------*/
FoamFile
{
    version     2.0;
    format      ascii;
    class       surfaceScalarField;
    location    "0.65";
    object      meshPhi;
}
// * * * * * * * * * * * * * * * * * * * * * * * * * * * * * * * * * * * * * //

dimensions      [0 3 -1 0 0 0 0];


internalField   nonuniform List<scalar> 
18811
(
0.00456159
0.000329134
0.00186094
0.00817615
-0.00583463
0.0111423
0.00908371
-0.00654167
0.0196819
0.000502589
0.00989651
0.00863459
0.00928143
0.0140985
0.0124736
0.0114127
-0.00460683
-0.00654678
0.0218431
0.0292846
0.0181002
-0.00094268
-0.0177082
0.0365197
0.0184076
-0.000874341
0.00039552
0.0174464
0.00941195
0.017799
0.0194831
0.0133468
0.0111948
0.00711458
0.0232338
0.0209987
0.0167237
-0.0123563
0.0082581
-0.00332776
0.0265821
-0.00358028
0.0418888
0.0384375
0.0504091
-0.0109913
0.0285838
0.00360938
-0.0283951
0.0569806
0.0218739
-0.000410152
0.000263255
0.000660049
0.0242673
0.0218179
0.0199713
0.0264739
0.0280412
0.031315
0.0218148
0.0142802
0.0179218
-0.00432112
0.0295951
0.0361686
-0.0174001
0.0217452
0.0141593
-0.00956592
0.00624201
-0.00231007
0.0374793
-0.00841201
-0.0326645
0.0635837
0.0493986
0.0628028
0.0690678
-0.0155177
0.0372076
0.00966299
0.00169084
-0.0275942
0.0718169
0.000963702
0.0242212
0.00131426
-0.000479107
-0.00182988
0.00184693
0.0116183
0.0194015
0.045254
0.0168288
0.0415852
0.0293507
0.0428774
0.043543
0.0353687
0.0263249
0.016683
0.0261844
-0.00928264
0.00768601
0.0366489
0.0422874
-0.0131306
0.0182444
-0.0193147
0.0242929
-0.00766296
0.0106719
-4.57231e-05
-0.00392473
-0.0373065
0.0554644
-0.014006
0.0597208
-0.00749435
0.0500019
0.0805142
0.0966358
0.0795817
-0.0170372
0.039512
0.0159479
0.00758905
-0.0308274
0.0806115
0.00182679
0.00335933
0.0150448
0.00226332
-0.000887866
0.000482418
0.0564406
0.00856913
0.036208
0.0564898
-0.0101459
0.0664993
0.0481719
0.0445578
0.0377168
0.0676665
-0.00476841
0.0927868
0.0348441
-0.015499
0.0393668
0.0159188
-0.0013514
0.084121
0.0142477
-0.00804902
-0.0148218
0.0226659
-0.0207194
0.0416635
0.000207512
0.00378554
-0.00156372
-0.044441
0.0622444
-0.041246
0.0842688
0.0217833
0.030403
0.0430129
0.0944178
0.0837811
-0.00934479
0.0854401
0.09346
-0.0160564
0.0577446
0.00696933
0.0307348
0.00535654
0.00835334
0.0816479
0.00367497
-0.00658636
0.00129794
0.00684908
0.00571311
0.000867805
-0.00136099
0.000282603
0.0451767
0.0260668
0.071531
0.0231839
0.0747113
-0.0205522
0.0696633
-0.00123439
0.103742
-0.010377
0.101846
0.0910492
0.0890566
0.0135756
0.0441451
-0.0113405
0.0252432
0.0407858
-0.00416699
-2.14184e-05
0.0860055
0.0783814
0.00864173
-0.00836699
0.0159995
0.00630261
-0.00241581
-0.0151512
0.0267569
-0.0266033
0.0389922
-0.0011844
0.00100937
-0.0276692
0.0613645
-0.0507368
0.081749
0.0305978
0.0658586
0.0449489
0.0666597
0.0335018
0.07884
0.00594141
0.0934112
0.103392
0.100679
-0.0222289
0.0734249
0.0284191
0.0038447
0.0239674
0.0301508
0.00740595
0.10025
0.00221929
0.00521533
0.00491077
0.0522181
-0.00690829
0.0323863
0.0385209
0.0305439
-0.0112028
0.0998557
0.0757053
-0.019419
0.0923161
0.0861583
-0.00578106
0.0776481
-0.0213876
0.107878
0.0941454
0.0174344
0.0944543
0.0852071
0.0234702
0.061506
-0.0145351
0.0254724
-0.0273477
0.0564478
0.00712726
0.000425245
0.0740362
0.0351729
0.00546024
-0.0072591
0.0163535
-0.0131074
0.0215031
-0.0288034
0.0271495
-0.0170613
0.0549678
-0.0348392
0.0723832
0.0709464
0.0508524
0.0572371
0.0788806
-0.00647325
0.10019
0.0774182
0.0247618
0.091859
0.0230345
0.0791097
0.110732
0.126774
0.1049
-0.016401
0.0855126
0.0191921
0.0112961
0.0544514
0.00697733
0.0306541
0.00839047
0.0940485
0.00208478
0.00643564
-0.00383382
0.0364278
-0.00507031
0.0243258
0.0259519
0.0184817
0.0596137
-0.00347545
0.0818336
-0.017507
0.079426
-0.00682614
0.0912691
0.13412
0.164834
-0.0159938
0.114085
0.105959
0.0127073
-0.00251657
0.138657
0.084491
0.0275814
0.0441187
0.0851276
-0.00814229
0.0244618
-0.038572
0.0503888
-0.00330443
0.0139465
0.000154095
0.065184
0.0347716
0.00556588
0.0154022
-0.00595757
0.0150485
-0.0220125
0.0211026
-0.0111475
0.0393751
-0.0211615
0.0513724
-0.0362435
0.0590275
0.0626
0.0694156
0.0573101
0.0269995
0.0811615
0.10399
0.0414762
0.0956483
0.0814571
0.0355702
0.0850541
0.111043
0.104012
0.0515251
0.0960071
0.0989165
-0.027627
0.0762427
0.0221613
0.0667576
0.0110203
0.0258076
0.0270151
0.00578449
0.097723
0.00351692
-0.003116
0.0235198
0.00066164
0.0155581
0.0222482
0.0191181
0.0483497
0.0144131
0.000846293
0.0654315
0.0504298
0.0231312
0.081326
-0.00620098
0.0911873
0.147251
0.147603
0.142106
-0.0229458
0.11222
0.00868064
0.108683
0.0986078
0.0119467
-0.0181729
0.12037
0.0786362
0.025253
0.0488938
0.0321745
0.0752027
0.0638075
-0.00643492
0.0220353
-0.00966864
0.0408073
-0.022647
0.0544563
0.00454523
0.0461954
0.0554831
0.00778987
0.00990896
-0.0134805
0.0172968
-0.0113461
0.0297914
-0.0144083
0.0400597
-0.0208836
0.0428756
0.0523397
-0.041291
0.0594173
0.0402797
0.0285854
0.0674888
0.0184955
0.0667495
0.0720333
0.083449
0.0716526
0.136152
0.0212018
0.0825627
0.0657238
0.0485928
0.0678215
0.113394
0.0963632
0.0961628
0.0419114
0.0849049
0.0748657
-0.0356923
0.0720894
0.0164487
0.0614685
0.0826794
0.0171459
0.0225379
0.0222692
-0.00247401
0.0140305
-0.00428825
0.0629167
0.00189948
0.0092194
0.019049
0.0221534
0.00482161
0.0383173
0.0168682
0.0297451
0.0323321
0.0697576
0.04806
0.0224982
0.0697437
0.0660761
-0.0160389
0.0905011
-0.0313524
0.120867
0.125081
0.11078
0.109932
0.112911
-0.0273096
0.0975075
0.0859413
0.0325893
0.00262688
0.0981226
0.09263
0.0070883
-0.024439
0.113908
0.00366644
0.0745783
0.0517405
0.0223169
-0.00112326
0.0645979
0.0690417
-0.00708247
0.0291016
-0.0127104
0.0388837
-0.028377
0.0542445
0.00195266
0.0117698
0.0695843
0.00679449
-0.00813764
0.0213274
-0.00830167
0.0304313
0.0377539
-0.0126964
0.0459543
0.0490256
-0.0093384
0.0442959
0.0366548
0.036126
0.0618079
0.0181443
0.0542567
0.0100716
0.0589445
0.0653909
0.0890502
0.0358136
0.0511798
0.0772341
0.0741095
0.0421224
-0.0122663
0.127303
0.10543
0.0327222
0.0670274
0.092628
-0.0603543
0.0972934
0.0775697
0.0359227
0.0848173
0.0730854
0.0447831
0.0526034
-0.0327962
0.0572483
-0.00213195
0.067847
0.0678234
0.0198999
0.0133298
0.0240652
0.00623341
-0.00410723
0.0205459
0.0021443
0.0696793
0.00333367
0.0167366
0.0213346
0.0489587
0.00132271
-0.000822545
0.052008
0.0430746
0.045561
-0.0142739
0.0525394
0.0418444
0.0221974
0.0622911
0.0672422
0.0631418
-0.017045
0.0833299
0.0090036
0.0837136
0.113523
0.0858102
0.0898919
-0.0598671
0.106824
0.0721059
0.0116981
0.0984111
-0.0273406
0.0952378
0.0234643
0.0725234
0.0568135
0.0435162
0.00079665
0.0791811
-0.0430349
0.0811885
0.0441225
0.0886052
-0.0428977
0.0903321
-0.0097202
0.0632437
0.0484471
0.0387827
0.0291914
0.0514194
0.0275001
-0.00421359
0.0439343
-0.0277569
0.0545934
0.00799624
0.0207382
0.0279982
0.0428707
0.00827687
0.0204124
-0.000433272
-0.00892522
0.0331445
-0.0333134
0.0385376
0.0398008
0.00363545
0.0426759
0.00596344
0.0415104
0.0360006
0.0183423
0.0603194
0.0528426
0.0117132
0.00808355
0.0611139
0.0197014
0.0453541
0.0564953
-0.0356361
0.123092
0.082132
0.00199097
0.0864422
0.0944781
0.110878
0.000325524
-0.0207082
0.0965818
0.0818721
0.0205693
0.0757182
0.0831431
0.075609
-0.0219051
0.0674592
0.0384109
0.08163
0.00188965
-0.0176712
0.0640726
0.0158358
0.0754775
0.0612499
0.0315184
0.0333767
0.0299288
0.0351117
0.0137389
0.0726546
0.0808845
0.0191042
0.0383199
0.0175568
0.0120007
0.000338586
-0.00536575
0.0303774
0.0487292
0.0266531
0.0107729
0.00216969
0.0136575
0.0135303
0.00286844
0.0385186
0.00330224
-0.000669944
0.0424342
0.0457364
0.0509495
0.0430107
0.062719
0.0390638
0.0228552
0.0628497
0.0525801
0.0246455
0.0383675
0.0723566
-0.0203297
0.076833
0.0271483
0.100114
-0.0177892
0.103715
0.108226
0.125595
0.0968874
0.100759
-0.00853811
0.0934269
0.0755924
-0.000404262
0.065732
0.0192374
0.0390787
0.0384349
0.0619628
0.0437095
0.0253491
0.079156
0.0678739
0.0794157
0.0693823
-0.0450738
0.0784312
0.0652938
0.0529466
0.0377228
0.0338082
0.0602733
-0.0174129
0.0398046
-0.0250911
0.0442719
0.00969475
0.00440775
0.0160269
0.0767172
0.00633959
-0.00855743
0.0247021
0.00797847
0.0306115
-0.028055
0.0345095
0.0460684
0.00243247
0.0168043
0.0364788
0.0619722
0.0289738
0.035992
0.0533452
0.0286333
0.0359217
-0.0116741
0.0659026
0.0685547
0.037604
0.0368209
0.0586666
0.0172833
0.00266177
0.101016
0.0740461
0.0327908
0.0267568
0.0833936
0.0678181
0.0608974
0.0634775
0.0366816
0.0108295
0.0934976
0.0519271
0.0436453
0.0230478
0.0517333
0.0578923
0.0221259
0.0450685
0.0644239
0.0621654
0.0590383
0.00483709
0.0862034
0.035894
0.0684508
0.00169861
0.0613507
0.0201708
0.00877183
0.0621094
0.0515486
0.0284785
0.0185299
0.0453669
0.0039084
0.0495398
-0.0136551
0.0506275
0.0515473
0.0456381
0.0166495
0.0296651
0.015443
-0.0050198
0.0178912
0.00255249
-0.0067891
0.025161
0.0240987
0.0546685
0.00802433
0.00239445
0.0202002
0.00613216
0.0369078
0.000920707
0.0176793
0.0314476
0.042165
0.0573632
0.0213795
0.043199
0.0596638
0.0432224
-0.0225422
0.0601765
0.0451203
0.0375719
0.0328952
0.0772214
0.0626286
0.0623488
0.0793922
0.0596204
0.0448228
0.0988221
0.0963289
0.0135747
0.0698874
0.123765
-0.0403002
0.0795382
0.0649543
0.0554913
-0.0231989
0.068436
-0.0386625
0.060993
0.0653537
0.0178439
-0.0179672
0.0643192
0.0480482
0.0474853
0.016208
0.0755835
0.0402717
0.0480642
0.085241
0.0583178
0.0716983
0.0734632
0.0404347
-0.0358993
0.0656099
-0.0108071
0.0555118
0.034014
0.0379876
0.00858356
0.0404527
0.0584629
-0.0191516
0.0381446
-0.0164658
0.0328279
0.0136324
0.006944
0.00801816
0.00669164
0.016857
0.00714627
0.0264297
-0.0205569
0.0239586
-0.0250253
0.0591902
0.0199121
0.0076583
0.0519833
0.0527329
0.017589
0.0441741
0.0626954
0.0376808
0.0240121
-0.00521454
0.0519337
0.072391
0.0359135
0.0429719
0.0230747
0.041504
0.0411438
0.0193085
0.0673162
0.0146649
0.115063
0.0551268
0.045939
0.0368144
0.0614426
0.00791116
0.0627355
0.0424266
0.0838626
0.00870973
0.0724231
-0.00295726
0.0694954
0.0668858
-0.0094423
0.0670839
0.0383903
0.020253
0.0191512
0.0452463
0.0575975
0.0822792
0.0903411
0.0779317
-0.00054587
-0.0307739
0.0808342
0.0507914
0.0834043
0.0289058
0.0439468
0.071167
0.00382194
0.0704392
0.0516256
0.0149353
0.0220833
0.0315297
-0.00719355
0.0416487
-0.00166935
0.039503
0.0580722
0.0183038
0.0381736
0.0230901
0.026038
0.0143612
0.00157392
0.0084963
0.00171096
0.0242891
0.00807037
0.00283525
0.0190073
0.00816507
0.0326364
-0.0067974
0.0299081
0.0320173
-0.0270177
0.0505657
0.0215056
0.0326317
0.0214737
0.0333621
0.0679931
0.0596791
0.0776403
0.0327305
0.0416715
0.0793874
0.077473
0.0719043
0.0923864
0.0262439
-0.0245547
0.0723465
0.0808298
0.0700808
0.0132877
0.0490811
0.0484383
0.0372818
0.0770648
0.049635
0.0622541
0.0621652
0.0062813
0.0563931
-0.0328762
0.0510907
0.0581614
0.0217123
0.0626958
0.0213853
0.0482555
0.0441423
0.0489712
0.0848898
0.0361096
0.0464502
0.0589384
-0.00661332
-0.0149643
0.0601971
0.0577761
0.0565892
0.0614129
0.0104653
0.0749463
0.038998
-0.0131518
0.0438336
0.0397555
0.0255246
0.0255537
0.0298579
0.00889536
0.0273941
-0.00578802
0.0304984
-0.00869644
0.0353978
0.012846
0.00471345
0.0244471
0.00179866
0.00732322
0.0125567
0.0098887
0.0231191
0.00836219
0.0181121
-0.0205055
0.0528293
0.0561088
0.0329984
0.0680572
0.00917984
0.0610185
0.0709087
0.0414345
0.0381697
0.0851281
-0.00358332
0.0850834
0.0759976
-0.0195799
0.0933301
0.0283956
0.0665851
-0.0502606
0.0787192
0.0543024
0.0230944
0.0600034
0.0177653
0.052922
-0.00386702
0.0530263
0.0730047
0.0676254
0.0249335
0.0538405
0.0759546
-0.0173911
0.0813497
0.0460613
0.0691129
0.0340657
0.0200554
0.0402949
0.00816643
0.0230942
0.0341408
0.0449828
0.0578232
0.0712853
0.0819697
-0.0316188
0.0820028
0.0550758
-0.03181
0.079858
0.0719608
0.0731287
-0.0139577
-0.0185788
0.0762991
0.0577096
0.00944056
0.0279368
0.00931182
0.0326584
0.0226731
0.0170429
0.0478914
0.0368428
0.035533
0.02023
0.0224226
0.0290265
0.0068992
0.0113988
0.0031867
0.00516783
0.00198105
0.0146307
0.00786625
0.00444795
0.0217979
-0.0241231
0.0351523
-0.00376976
0.0296922
0.0248737
0.0215374
0.0368886
-0.00892103
0.0448653
0.0252367
0.0450972
0.00963901
0.0531513
0.0263646
0.0462183
0.0662295
0.0625895
0.0245119
0.0117726
0.0754303
0.00265217
0.0750693
0.0453371
0.0749295
-0.00617983
0.059548
0.020914
-0.0168989
0.0726816
0.0786516
0.0491834
0.00937722
0.0431283
-0.0113958
0.0860091
0.057581
0.0519284
0.00296217
0.0606613
0.045722
0.0371893
-0.028085
0.0752747
0.042244
-0.00588738
0.0380952
0.0419119
0.0325669
-0.0216894
0.0283634
0.0430983
0.0212422
-0.0345799
0.0941089
0.0383329
0.0416441
0.0417238
0.0519082
0.0685764
0.032924
0.0485434
-0.00520548
0.0787665
0.0694562
0.0639019
-0.0212023
0.0806277
0.0358626
-0.00645196
0.0382943
0.0461608
0.0402955
0.00871477
0.0264016
0.00510422
0.027925
0.0239902
-0.00233171
0.0247952
-0.00156637
0.0321492
0.010176
0.00439304
0.0183664
-0.00237179
0.00982403
0.0215133
0.0387835
-0.000479647
-0.0109163
0.0423155
0.0482677
0.0643474
0.0331073
0.0361779
0.056562
0.00828356
0.0465535
0.0560738
0.0484437
0.0192436
0.0668153
0.0746587
0.0411145
0.0359605
0.0470132
0.0296819
-0.0286176
0.0754557
0.0113171
0.0655402
0.0551057
-0.0429278
0.0651603
0.0455109
0.0116338
0.067791
0.0613212
-0.00927281
0.0525592
0.0344305
0.0534783
0.0707013
-0.00517545
0.058
0.0496643
0.00202436
0.0598268
-0.0350961
0.0736198
0.041744
-0.0229998
0.0664763
0.023645
0.012132
-0.000505044
0.0413626
0.0189364
0.0120938
0.0306324
-0.00321897
0.041618
0.0284668
0.07504
0.0815817
0.0760247
-0.0291687
0.0826525
0.0407601
-0.033282
0.0833683
0.0570999
0.0694206
0.00147982
-0.0181692
0.0837853
0.0642979
0.00354937
0.030666
0.0260991
0.0110716
0.0345188
0.012314
0.0104102
0.0298775
0.0296425
0.0300592
0.0233176
0.0175108
0.0368737
-0.00379469
0.00915785
0.00299119
0.00339253
0.00385804
0.0108735
0.020918
0.00376195
0.0229357
0.000536809
0.0432696
0.0503367
0.0285834
0.0373161
0.0389791
-0.00320085
-0.00224808
0.0403429
0.0298523
0.0282825
0.0781434
0.0768914
0.0406469
0.0271974
0.0479056
0.0285886
0.0832927
0.08501
0.0715132
0.0339168
0.0579014
0.00928331
0.0601589
-0.00399406
0.0434854
0.0226216
-0.0205273
0.0672134
0.00833566
0.0612079
0.0523758
0.00140924
0.0504267
-0.0284594
0.0642604
0.0632352
0.0437458
0.0453244
0.0612138
0.0403605
0.019662
0.0551421
-0.03728
0.0804245
0.0303213
-0.0102527
0.0321422
0.0294726
0.0293912
-0.0170525
0.0273478
0.0109711
0.0243641
0.042443
0.0830076
-0.00607859
-0.0103691
0.0937163
0.0672645
0.0509776
0.0279563
0.0569281
0.00645269
0.051871
0.077509
0.0870702
-0.0153248
0.0810422
0.0151128
0.0144797
0.000419249
0.0254485
0.0252976
0.0446343
0.0496203
0.0299279
-0.00189759
0.0292318
0.0119142
0.0164731
0.0222336
0.00182612
0.0195046
-0.000586195
0.0190872
0.0140175
0.00555644
0.00890037
0.0181199
0.032863
-0.00717365
0.0034043
0.041294
0.00741517
0.0446023
0.058384
0.0461304
0.0390749
0.032906
0.0453839
0.0320601
0.0476426
0.0500606
0.0285896
0.0764908
0.0804693
0.0350251
0.0498296
0.0370568
0.0495931
-0.00499389
0.0776896
-0.0303719
0.0653927
0.0102114
0.0488492
-0.0441874
0.0547784
0.0170218
0.040233
-0.0273462
0.0507621
0.0380177
0.00440507
0.0576179
0.0575437
0.00940762
0.0411284
0.0237271
0.0419418
0.00811161
0.0566164
0.0551069
0.066062
0.0296957
0.0325965
0.0710417
0.0503763
0.00588062
0.0494404
0.0321785
0.0834008
0.0227134
0.00762387
0.00171515
0.0255449
-0.0016084
0.0296644
0.0267576
-0.0206949
0.0295271
0.0391481
0.0690837
0.0898688
0.0969123
0.0875419
-0.0368364
0.0953481
0.0803891
-0.00139212
0.0658832
0.0226813
0.0547473
0.0278375
0.02536
0.00660156
0.0185852
0.017615
0.00704372
0.0145682
0.030729
0.018632
0.0322284
0.0102262
0.0198812
0.00730047
0.0195552
0.0219197
0.0221549
0.0151099
-0.0106779
0.0302991
0.00184183
0.00515596
0.00725603
0.00524339
0.0138921
-0.000971484
0.0434434
0.0447494
-0.000265336
0.0600296
0.0470438
0.0394813
0.00185343
0.0325832
0.00344374
0.00677872
0.0402509
0.0620995
-0.00647517
0.0555423
0.0727647
0.0174631
0.0647944
0.0884583
-0.0205021
0.0714448
0.0585287
0.0391722
0.0417456
0.00827772
0.0421217
0.0137291
-0.0513647
0.0693505
-0.0103072
0.0414046
-0.0265952
0.0656553
0.0366677
0.0221088
0.0423541
0.0162935
0.0519448
0.00089789
0.0396527
-0.0332656
0.058234
0.0511883
0.0195575
0.0380644
0.023096
0.0461177
0.0212746
0.080239
0.0456881
0.0728276
0.0564743
-0.0392451
0.0725672
0.0457957
-0.00339172
0.0238541
0.0356269
0.0197711
0.0140824
0.0103322
0.00418797
0.0224826
0.0394099
0.0639901
0.00637073
0.0623224
0.0290741
0.0485815
0.0501579
0.0522462
0.0438744
0.0530391
0.0228293
0.0587477
0.0657541
0.0789161
0.0932984
0.0125063
0.0120027
0.0239274
0.0287981
0.0190068
0.0346129
-0.00281653
0.0342561
-0.0117515
0.0311269
0.0301414
0.0215048
0.00719876
0.0131925
0.0121394
0.00207858
0.0142693
0.0338566
-0.00276548
0.00297
0.00829263
0.00106051
0.0100649
0.0221797
0.0166497
0.0281569
0.00871286
0.0372013
0.0552535
0.0570966
0.0482719
0.0369154
-0.0212202
0.0278787
0.058777
0.00727043
0.0559897
0.0640288
0.0111556
0.0628814
0.0751298
0.0774262
0.0420984
0.0478635
0.0460666
0.0265124
-0.00139691
0.0609324
-0.024212
0.0644529
0.0659889
0.0515699
-0.0332764
0.0478381
0.0370721
-0.0225808
0.0649482
0.0426112
0.0538499
0.042507
0.0384593
0.0141674
0.00422606
0.0353827
0.0333699
0.0258244
0.0135526
0.0387244
0.00204138
0.0369115
0.0236097
0.0580837
0.0704779
0.0746542
-0.00041396
-0.00968879
0.0671436
0.0640318
0.0698436
0.0182737
0.00340331
0.0182578
0.0157292
0.0001341
0.0176053
0.0126508
-0.00490076
0.0133581
0.0149204
0.0124841
0.025366
0.0700103
0.0791491
0.095608
0.0958947
-0.0398156
0.0942187
0.0571109
0.00261035
-0.0122473
0.0792781
0.0681182
0.0821064
0.0127104
0.0181054
0.0202754
0.00346269
0.00397797
0.0252768
0.00132681
0.0171412
0.00880516
0.0266463
0.00570005
0.029356
0.0231405
0.00307829
0.0286652
0.0337373
0.00676308
0.0127946
0.018342
-0.00621798
0.0191341
0.008852
0.0169856
0.00137167
0.00223505
0.00491163
0.00406068
0.00549599
-0.00395335
0.0166806
0.0667396
-0.00284551
0.0594642
0.0557254
0.0422517
0.00798094
0.038599
0.00108147
0.0268083
0.00348221
0.00454459
0.0563134
0.0062885
0.0589948
0.0625981
0.005255
0.0710325
0.0181396
0.0605795
0.0954252
0.0886399
0.042779
0.0285993
0.0384841
-0.00463224
0.0573226
0.0500679
-0.00144845
0.0486578
-0.0106739
0.0531364
0.0126419
-0.0215968
0.0652843
0.0480888
0.00671748
0.00682407
0.0366907
0.0426574
-0.0252878
0.039987
0.0110968
0.0239049
-0.00214945
0.0363275
0.0401508
0.0416925
0.0446373
-0.010733
0.0702567
0.0501309
0.065493
0.0680263
-0.00223633
0.0676623
0.0109458
0.0597811
-0.0025015
0.0185955
0.0199639
0.0269933
0.0131193
-0.00166789
0.0126912
0.0100443
0.00187381
0.0114716
0.0358353
-0.0203051
0.0917866
0.0603886
0.0441619
0.0528332
0.0574821
0.0412187
0.0542412
0.0688887
0.0832757
-0.00832482
0.0777872
0.0751779
0.106243
0.0189314
0.0245951
0.0204741
0.0346445
0.0330006
0.00635223
0.0240269
-0.00477054
0.0284357
-0.00561703
0.0347604
0.0414067
0.0130987
0.0103979
0.00653341
0.014431
0.0243895
-0.0067461
0.00192891
0.00693674
0.00776514
0.000886595
0.0180851
0.00183248
0.00625348
0.0622099
0.0671381
0.0633948
0.0487345
0.0489037
0.0305393
0.0241611
-0.0017565
0.0597735
0.0653352
0.0818424
0.0303988
0.0418183
0.0926851
0.0307847
0.0659042
0.00755287
0.082366
0.0596532
-0.015771
-0.0186033
0.0481461
0.0371994
0.0464297
0.0398492
0.0479911
0.0434408
0.0731602
0.0509378
0.0235102
0.044148
0.0169606
0.0260469
0.0447011
-0.00398462
0.0410201
-0.00422086
0.041256
0.0366751
0.00261003
0.0399904
-0.00136772
0.0471158
0.014211
0.0570848
0.0653341
0.0752217
-0.00833879
0.00492071
0.0641553
0.0588564
0.0737201
0.00741461
0.0089412
-0.00311812
0.0219253
0.0226274
-0.000788179
0.0121128
0.0101273
-0.00129003
0.0101031
0.00900541
0.015331
0.0197097
0.106246
0.0953048
0.089407
-0.0398875
0.0953846
0.0390935
0.0308877
0.0467715
0.0375501
0.0435355
0.0356608
0.053415
0.0227346
0.0498606
0.0576263
0.00276439
0.0151447
0.0280143
-0.00292641
0.00114725
0.0192571
0.00967265
0.0264365
0.0263469
0.00781941
0.0512724
0.0203139
0.0234101
0.00685278
0.0284906
0.0488196
0.00534968
0.00644679
0.012504
0.0108351
0.00833835
-0.00115916
0.00350202
0.00622031
0.012661
0.00483414
0.0620253
0.00630618
0.062197
0.0712552
-0.0138587
0.0644576
0.037114
-0.0184459
0.0522764
0.00856949
0.0116454
0.0497618
0.0437648
0.0226432
0.0907322
0.0867086
0.0482848
0.0455316
-0.0112889
0.0782402
0.0721592
0.00504854
0.0439886
0.042986
-0.00209508
0.0493035
-0.0191863
0.0601604
0.052243
-0.00335623
-0.0137206
0.057926
0.06059
-0.0348616
0.0871953
-0.0172295
0.041478
0.0279786
-0.0168296
0.0435256
0.0285846
0.0381544
0.0117976
0.0289514
0.000450763
0.041837
0.0401013
0.0395642
0.0166293
0.0315688
0.00437988
0.0538148
0.0314606
0.0811798
0.0570641
0.0991742
0.0341405
0.0407994
-0.0110913
0.0163533
-0.00299992
0.0105257
0.00885583
0.00398925
0.0173439
0.00766359
0.0078331
0.000607479
0.00598555
0.00305339
0.00329483
0.00471341
0.0268317
0.0225296
0.0792649
0.0284496
0.0562594
0.0402003
0.0508073
0.0307273
0.0655992
0.0787591
0.0824198
0.0902989
0.0735653
-0.00539701
0.0641243
0.0163303
0.0149268
0.0141215
0.0168847
0.0254459
0.0352536
0.0519361
0.00132583
0.0209017
-0.000207888
-0.00351427
0.0271452
-0.00136934
0.0300418
0.00830226
0.0410923
0.00867062
0.00139862
0.0105493
0.00649847
0.00343381
0.0151895
0.00381377
-0.00355937
0.0198035
0.00503312
0.0101422
0.0534547
0.0863088
0.0832286
0.0785378
-0.0186285
0.0586239
0.0365448
0.0331376
0.105271
0.0308956
0.0610356
0.0361523
0.0519244
0.0803711
0.0828352
0.0392671
0.0397845
0.0239046
0.0491011
-0.00304165
0.047855
0.0445128
0.0509875
0.0311921
0.0581629
0.0555896
0.0624373
-0.000430073
0.0656575
0.0229908
0.045692
0.0285353
0.015871
-0.010086
0.0394193
0.0384139
0.000724059
-0.000164435
0.0294971
-0.00520265
0.047876
0.0356231
-0.00325501
0.0438698
-0.00504957
0.0373129
0.0863634
0.0616039
0.0206705
0.0924121
0.0320863
0.0683873
0.0740713
0.00427768
0.0100995
0.00722492
0.0016828
0.0247189
-0.000314198
0.00659347
0.00601319
0.00543008
0.00702166
0.00906016
0.0173637
0.0311125
0.0752997
0.0858887
0.071718
0.0911965
0.0144944
0.0517278
-0.000223358
0.0798454
0.08311
0.082675
0.00866132
0.00818214
0.0662366
0.0731407
0.00381684
0.0127414
0.0222364
-0.0072621
-0.00276273
0.0202744
-0.0032731
0.0300388
0.0404993
-0.00307054
0.0346626
0.0188408
0.0431622
0.0176639
-0.0106011
0.0106687
0.0260737
0.0387299
0.0110835
0.0310964
0.00398222
0.00359961
0.00751889
0.00751915
0.00324024
0.00667971
0.00492404
0.00208993
0.00205563
0.0112293
0.0328998
0.0548269
0.11829
0.0142712
0.0665001
0.0456005
0.0145802
0.0406001
-0.00109743
0.0291959
0.00754382
0.0396512
0.0676369
0.0859824
0.108304
0.00652703
0.0747262
0.0903965
0.0896934
0.0132686
0.0355281
0.0588834
0.0381158
0.0137077
0.0702851
0.0208401
0.0383712
0.000426163
0.0563265
0.0642058
0.0667845
-0.0409255
0.0648665
0.0290547
0.0174563
0.0286688
-0.0169116
0.0334757
0.0290595
0.0233809
0.0304946
0.00764408
0.0219265
0.02955
0.0192999
0.0332364
0.0396033
0.0208671
0.0172843
0.0465683
0.0178723
0.0448268
-0.0379907
0.0595383
0.0556146
0.0466906
0.022503
0.00906251
0.0659666
0.00986416
-0.000623789
0.00938967
0.00696607
0.0135733
0.00923778
0.00530876
-0.000719005
-0.00234819
0.00673055
0.00352538
0.0250149
0.00951179
0.0200582
0.066797
0.00939293
0.0576028
0.0290541
0.0163705
0.0560817
0.0596132
0.0325226
0.0749225
0.0687139
0.0401602
0.0406837
0.0367569
0.0473605
0.0381118
0.0457806
0.0757828
0.008653
0.0653409
0.0114853
0.0105565
0.020095
0.014172
0.0286722
0.0467812
-0.0366427
0.0569132
0.00885199
-0.00240017
0.0199485
0.0139179
-0.00311805
-0.00374732
0.0294829
0.0138213
0.024797
0.04484
0.00612488
0.00504951
0.00215415
0.00838869
0.00327834
0.00267693
0.00727121
0.00190227
0.0111969
0.00465151
0.0294577
0.0906992
0.0620742
0.108427
0.0571682
0.0312917
0.0225314
0.099142
0.037835
0.0492009
0.0103563
0.0994837
0.114002
0.102049
0.0483553
0.0421466
0.0572128
0.0248473
0.0353662
0.071194
0.00995302
0.0615827
-0.0143734
0.0539276
0.00069697
0.0646913
0.0596754
0.00821612
0.0604275
0.00534979
0.0390461
0.0267705
0.0026013
0.0198287
0.014275
-0.0066292
0.0365238
-0.00963996
0.0338797
-0.00494368
0.0362215
0.00172815
0.0205373
0.0556028
0.0533987
0.0219131
0.0183702
0.0398337
0.0655641
-0.0327313
0.0784452
0.0275135
0.00182628
0.0548389
0.0564371
0.0635689
0.0691419
0.00410712
0.00429098
0.0115425
0.00327474
0.00481223
-0.000937126
0.0060528
0.0175889
0.00288239
0.00453614
0.000405051
0.0246716
0.00162303
0.0180183
0.0763976
0.067817
0.0859501
0.0817299
0.0336279
0.0419658
0.103095
0.0781865
0.0868287
-0.0568178
0.10364
0.0198428
0.0861584
0.00493199
0.00741347
0.0161055
-0.00906747
0.0308458
-0.00703595
0.0224382
-0.0141256
0.0451297
0.00803939
0.0395445
0.0337531
0.0243248
-0.0289579
0.0395541
0.011411
0.0159655
0.00424129
0.013244
0.0157893
0.0374315
0.00530607
0.0396462
0.0015474
0.00342799
0.00518
0.00812512
0.000475713
0.00362376
0.00589391
0.0101496
0.0146015
0.0773259
-0.024179
0.0885428
0.0563886
0.0529691
0.0349808
-0.00950545
0.043399
0.0151972
0.0242351
0.0758839
0.0922115
0.115783
0.0225623
0.0924733
0.125959
0.0236999
0.034808
0.0602449
0.0394224
0.0327823
0.0502046
0.0485195
0.0201451
0.034624
0.0614988
0.0192458
0.046551
0.0697853
0.0718961
0.0349959
0.0288788
0.022912
-0.0116064
0.0264294
0.030421
0.0278346
0.0230417
0.0209775
0.0219055
0.0349181
0.0236159
0.0311548
0.0428792
0.000399322
0.0403425
0.026762
0.0527714
0.0832633
-0.0157862
0.0729484
0.048486
-0.0119632
0.082261
-0.00131118
0.00417529
0.0063895
0.00653412
0.00393229
0.010208
0.0031546
0.00735867
0.00942202
-0.000955368
0.00279466
-0.000342063
0.00343303
0.0159847
0.00850977
0.017293
0.00417373
0.0131659
0.0788288
-0.00148279
-0.0130588
0.0815269
0.0736767
0.0679699
0.014503
0.11099
0.0259381
0.0783036
0.0289872
0.050082
0.0203934
0.0672935
0.0516557
0.0528816
0.00849608
0.0784413
-0.00376863
0.0119587
0.0104498
0.0150875
0.0187043
0.0182533
0.0423609
0.0448366
-0.0218447
0.0475559
0.0563075
-0.0146439
-0.0015937
0.0126266
-0.00260787
0.0181749
-0.00619959
0.0215934
0.0121812
0.0245512
0.00350349
0.035095
0.00208674
0.00327035
0.0016697
0.00537291
0.00401235
0.000800056
0.00217465
0.00394061
0.00511258
0.00816446
0.102446
0.0238641
0.0655382
0.0814118
0.130245
-0.0233281
0.0608463
0.0219165
0.022889
0.107643
0.0420061
0.0745808
-0.0136678
0.107282
0.0909827
0.0360344
0.0559335
0.0183515
0.0432275
0.052941
-0.00715167
0.0582755
-0.000563807
0.0498751
-0.0129603
0.0484536
0.00662151
0.0558096
-0.00424459
0.0514906
0.0571142
0.0136936
0.0185923
0.0543957
-0.00386143
0.0399768
0.0188307
0.0104522
-0.00389788
0.0272557
0.0229646
-0.00675031
0.0382249
-0.00344725
0.0320573
-0.0120969
0.0360938
0.0162838
0.00501849
0.0541948
0.0543986
0.0442279
0.0376202
-0.0355268
0.063052
0.0725131
0.0486774
0.062068
0.0783173
0.00772601
0.075709
0.000453635
0.00267567
0.00551436
0.0104338
0.00466305
0.00452852
-0.000917903
0.00279603
0.0130716
0.00158101
0.00267019
-0.000861739
0.0248631
-0.0025957
0.0199552
-0.00224443
0.0151512
0.0881726
0.0810848
0.100665
0.051118
0.0609178
0.130577
0.0712062
0.0127183
0.0553307
-0.0222853
0.0746821
0.0664016
0.0568983
0.00876385
0.00490896
0.0208036
-0.0109448
0.0280927
-0.0167475
0.0378116
0.0483291
-0.0276545
-0.0113403
0.0544281
-0.00217833
0.0467848
0.0358611
0.0366453
0.035476
0.00964189
0.0116332
0.0146163
0.00609872
0.0260293
0.0273116
-0.00377645
0.0377921
-0.000535318
0.00201026
0.0023286
0.00836566
-0.00213319
0.00409889
0.000188839
0.001277
0.00316346
0.00965014
0.00163548
0.145629
0.0480367
0.0177062
0.0181716
0.0629721
0.0509409
0.0792984
0.0414352
0.0198427
-0.0159082
0.0402462
0.00884545
0.0950092
0.167277
0.144391
0.00940213
0.0475122
-0.00313672
0.0473315
0.046703
0.0586606
0.0379075
0.0587945
0.0647192
0.0523255
0.02142
0.0307929
0.0690826
0.0344087
0.0241505
-0.0193675
0.0302838
0.00842861
-0.00249858
0.0260939
0.0356676
0.0209452
0.0344443
0.0311295
0.0241108
0.0199481
0.035628
0.00618237
0.0392709
-0.000506583
0.0392171
0.0106893
0.053289
0.024223
0.0490537
0.0571945
-0.029124
0.092235
0.0500944
0.0555983
0.0208003
-0.00111425
0.00280822
0.000556351
0.00387864
-0.000235826
0.010035
0.00437332
-0.00227786
0.00612173
0.000788561
0.000929649
0.012184
0.00197983
-0.00124615
0.000521379
0.0222749
0.017423
0.00881475
0.00600787
0.0363051
0.052603
-0.0113882
0.0932862
0.0901523
0.157241
-0.0239664
0.15611
0.0341865
0.0377787
0.0902912
0.00863176
0.0667888
0.0757241
0.0938659
-0.0054127
0.0115096
0.0122128
0.0137814
0.0129493
0.0518262
0.0417972
0.0603771
-0.0227972
-0.0243257
0.0616946
0.0567899
-0.0185462
0.000266038
0.00877415
0.0125283
-0.00153017
0.0177216
0.00354099
0.0210279
0.0295499
0.000942423
0.0346518
0.0019547
-0.000432874
0.000847051
0.00140621
0.00410372
0.00301168
0.00134736
0.00182979
-0.000984313
0.00286036
0.0206334
0.00566608
0.0571783
0.0879709
0.0661859
0.0595623
0.11424
0.136636
-0.0196051
0.0402261
0.0212508
0.0592242
0.108124
-0.0205088
0.166342
0.04536
0.0208609
0.0275369
0.0691184
0.0304383
0.0291247
0.0692377
0.0194154
0.0404542
0.0198376
0.0457322
0.0346606
0.0183388
0.0661488
0.0173975
0.0526325
-0.00544788
0.0408648
-0.00291602
0.0274373
0.0277461
0.0350113
0.0232701
0.013468
0.0452353
0.031331
0.004304
0.0383234
0.0449344
0.0576624
0.0398585
0.0347227
0.0687807
0.0784018
0.0673497
0.0419715
0.0512269
0.0887935
0.00917748
0.0469092
0.0634608
0.00254501
-0.000578511
0.000177434
0.0028137
0.00691673
-0.000783906
0.00450255
0.00464093
-0.00225865
0.00221206
0.00182097
-0.00158162
0.00287253
0.00878667
0.000183171
0.00216221
-0.00241445
0.0198376
0.00262306
0.00963938
0.00773817
0.0112476
0.0154981
-0.0401275