/*--------------------------------*- C++ -*----------------------------------*\
| =========                 |                                                 |
| \\      /  F ield         | OpenFOAM: The Open Source CFD Toolbox           |
|  \\    /   O peration     | Version:  v2012                                 |
|   \\  /    A nd           | Website:  www.openfoam.com                      |
|    \\/     M anipulation  |                                                 |
\*---------------------------------------------------------------------------*/
FoamFile
{
    version     2.0;
    format      ascii;
    class       volScalarField;
    location    "0";
    object      nut;
}
// * * * * * * * * * * * * * * * * * * * * * * * * * * * * * * * * * * * * * //

dimensions      [0 2 -1 0 0 0 0];


internalField   nonuniform List<scalar> 
11941
(
0.000307146
0.000302398
0.000306645
0.000296125
0.000307148
0.000298409
0.000307448
0.000295617
0.000292711
0.000303997
0.000299485
0.00030409
0.000287151
0.000296415
0.000286927
0.000306852
0.000291842
0.00030407
0.000286455
0.000290926
0.000291547
0.000284605
0.0003024
0.000291762
0.000285732
0.000306151
0.00028101
0.000285667
0.000295515
0.000282353
0.000307512
0.000288648
0.000282153
0.000303287
0.000282377
0.000282369
0.000284352
0.000292381
0.00028047
0.000306865
0.000295021
0.000284249
0.000280865
0.000305883
0.000277159
0.000280592
0.000285899
0.00029232
0.000275951
0.000277099
0.00030723
0.000296781
0.000289419
0.000284906
0.00027576
0.000276579
0.000305227
0.000275495
0.000277192
0.000281605
0.000285315
0.00027416
0.000275127
0.000303284
0.000296209
0.000289441
0.000282911
0.000274032
0.000277637
0.000274605
0.000304692
0.000273691
0.000274715
0.000278544
0.000286648
0.00027172
0.000273599
0.000307178
0.0002926
0.000288004
0.000283695
0.000271553
0.000274561
0.000271407
0.000301748
0.000269828
0.00027621
0.000271997
0.000278634
0.000283945
0.000270133
0.000304311
0.000293413
0.00029183
0.000275617
0.000270175
0.000272817
0.000269823
0.000304964
0.000269402
0.000273961
0.000271596
0.000277786
0.000283878
0.000269686
0.000307664
0.000295133
0.000289049
0.000274901
0.000266742
0.000270491
0.000267886
0.000299004
0.000267458
0.000273893
0.000269868
0.000275425
0.000279375
0.000280498
0.000267506
0.000304287
0.000291712
0.000290806
0.000280009
0.000272639
0.000266431
0.000266345
0.000269599
0.000267282
0.000265564
0.000304785
0.000267302
0.000267776
0.000270286
0.000269858
0.000272856
0.000277573
0.00028627
0.000266576
0.000293045
0.000306772
0.000288217
0.000280925
0.000271074
0.000265232
0.000265039
0.000265948
0.000268053
0.000266399
0.000264821
0.000300508
0.000264651
0.000266674
0.000271415
0.000266942
0.000272963
0.000277471
0.000282117
0.000282715
0.000264594
0.000292996
0.000303491
0.000286853
0.000275221
0.000274384
0.000268861
0.000263624
0.000263586
0.000266
0.000264373
0.000301933
0.00026406
0.000265424
0.000269304
0.000266183
0.000269828
0.000274137
0.000279551
0.000287494
0.000262545
0.000303866
0.000286147
0.000279515
0.000271976
0.000266773
0.000262789
0.000263429
0.000263278
0.000264506
0.000240374
0.000262894
0.000302593
0.000286458
0.000262522
0.000262706
0.000264513
0.000268591
0.000266848
0.000265038
0.000272455
0.000277051
0.000282403
0.00028817
0.000296228
0.000307369
0.000278822
0.000272872
0.000267042
0.000255195
0.000262628
0.000261527
0.000261511
0.000229522
0.000207664
0.000262263
0.000302265
0.000288049
0.000262258
0.000263548
0.000262118
0.00026463
0.000268091
0.000265626
0.000263904
0.000272172
0.000279751
0.000286154
0.000289058
0.000297791
0.000304354
0.00027923
0.000272884
0.00027153
0.00014949
0.000261534
0.000261456
0.000261098
0.000261067
0.000100217
0.000125325
0.000261932
0.000302869
0.000292351
0.000261411
0.000261125
0.000262911
0.000263271
0.000266411
0.000266143
0.000264214
0.000263844
0.000273706
0.000269015
0.00028071
0.000286311
0.000294175
0.000306311
0.000276568
0.000269822
0.00026921
0.000252335
0.000136339
0.000260564
0.000260573
0.000260736
0.000260058
3.38994e-05
0.000136094
0.00018898
0.000229667
0.000303188
0.000291025
0.000260722
0.000260992
0.000261771
0.000262994
0.000265076
0.000268188
0.00026386
0.00026403
0.000262347
0.000276169
0.000272082
0.000282381
0.000292002
0.000299635
0.000301157
0.000274478
0.000270545
0.000256621
0.000264777
0.000202911
0.000259886
0.000260655
0.000264315
0.000259955
0.000259659
2.02034e-07
1.81151e-05
5.01082e-05
0.000260274
0.000298302
0.000260521
0.000156534
0.000260547
0.000260038
0.000265469
0.00026477
0.00026878
0.0002618
0.000261863
0.000260662
0.000276949
0.000272341
0.000297259
0.000283038
0.000290177
0.000305468
0.0002769
0.000267078
0.000269938
0.000313978
0.000200485
0.000259942
0.000242969
0.000268966
0.000259525
0.000259081
1.51944e-07
4.37204e-07
1.61795e-05
0.00104888
0.00314077
0.00029701
0.000243214
9.43933e-05
0.000168386
0.000259204
0.000265461
0.00034945
0.000263008
0.000261616
0.000261633
0.000259103
0.000280245
0.000274395
0.000730559
0.000288796
0.000298202
0.000302458
0.000279781
0.000266284
0.000269823
0.000299728
7.90793e-05
0.000162017
0.000258736
0.00163595
0.000228491
0.000259132
0.000258277
4.99963e-10
3.36744e-07
1.27398e-06
0.00216779
0.00425891
0.000299082
1.95481e-05
0.000152996
0.000258354
0.000231177
0.000759181
0.00026324
0.000261492
0.000259328
0.000269604
0.000256874
0.00027496
0.000281507
0.000273151
0.000279979
0.000493704
0.000291014
0.000305939
0.000277828
0.000266962
0.000275547
0.000221925
4.65573e-05
6.95023e-05
0.000198164
0.000126439
0.000433869
0.000206131
0.000257937
2.59431e-11
7.29575e-08
4.7979e-08
5.38296e-08
0.00316462
4.13172e-08
0.000291483
3.49075e-05
5.7479e-06
0.00013848
0.000310315
0.000194171
0.000520713
0.000264628
0.000258103
0.000254495
0.000301899
0.000292998
0.000277721
0.000286575
0.000273986
0.00120313
0.000746835
0.000293963
0.000302382
0.000267074
0.000271659
0.000207793
5.75881e-05
6.44863e-07
5.39804e-05
9.56799e-05
0.000117737
2.89066e-09
0.000749372
0.000308397
0.000131292
2.09064e-11
2.37664e-12
2.28295e-10
1.71396e-08
0.00119243
3.9267e-10
0.000297359
9.98655e-07
5.23561e-05
1.18144e-07
0.00015945
8.16414e-09
0.000217942
0.000244519
0.000256694
0.000321169
0.000284511
0.000274819
0.000278872
0.000511303
0.00106406
0.000134993
0.000784056
0.000283771
0.000306375
0.000267707
0.000208478
0.000288075
0.000112095
9.63724e-06
5.60089e-07
3.15634e-07
1.56682e-05
3.15921e-07
9.05557e-10
0.000173786
9.02136e-05
7.77133e-05
7.6674e-12
4.22372e-12
1.80719e-10
8.84141e-11
3.78013e-10
1.4327e-10
3.17556e-08
1.39283e-07
0.000104623
4.86145e-07
0.000121891
0.000153387
2.82275e-09
2.07906e-09
0.000228788
0.000267264
0.000435891
0.000284101
0.000156479
0.00027617
0.000282932
0.00176534
2.04573e-09
0.000399402
0.000289426
0.000301834
0.00025252
0.000241875
0.000292457
8.91407e-05
2.99019e-06
2.07142e-08
1.06555e-05
1.1248e-07
1.69995e-08
2.18311e-06
5.97906e-11
5.1492e-06
6.98503e-05
5.50383e-06
1.4887e-12
1.14225e-11
8.26785e-13
8.35392e-13
4.48416e-11
3.07214e-11
3.48552e-11
3.65382e-10
7.62228e-09
0.000157121
1.70691e-08
3.92793e-05
4.21444e-06
4.37946e-09
1.56125e-09
0.000141972
0.000612468
0.000206401
0.000279522
0.000725719
0.00127428
2.36548e-10
9.02544e-11
0.000289671
0.000305685
0.000262948
0.000188184
0.000280493
1.57715e-05
2.74014e-07
4.40438e-12
1.82017e-08
1.35856e-09
1.68381e-10
4.76045e-09
1.60715e-07
2.67871e-11
1.60151e-11
1.85775e-08
8.30757e-06
3.41119e-06
5.95175e-13
1.61121e-12
7.92043e-13
9.64499e-13
5.96986e-12
2.74054e-11
8.86293e-09
2.62771e-11
9.46589e-06
1.45388e-07
1.81144e-05
2.18335e-07
3.0127e-11
9.81011e-11
4.68708e-10
0.000145028
0.000154756
0.000147674
1.63441e-06
0.000283793
0.000376292
0.000568383
4.1407e-10
6.93296e-10
3.73597e-11
0.000299278
0.000259758
0.000214219
0.000273547
6.83161e-07
0.000199335
3.19678e-08
4.08502e-12
1.19539e-11
9.06614e-10
8.14111e-11
1.95479e-09
3.36297e-09
1.43434e-11
6.18843e-12
1.96283e-08
1.75879e-06
5.73744e-06
5.93009e-13
2.62624e-13
1.0793e-12
3.20986e-13
4.50837e-13
1.09644e-12
1.75753e-12
8.97907e-13
1.59564e-11
2.73895e-06
7.79369e-09
1.06213e-08
1.4936e-09
4.43083e-13
3.42791e-11
5.46897e-11
2.76811e-10
3.85496e-06
3.15953e-05
7.10739e-05
6.35145e-06
0.000282098
0.00120504
4.60493e-05
1.42613e-11
9.39964e-10
1.90907e-11
0.000303968
0.000259981
0.000269287
0.000163882
0.00048327
5.67566e-09
4.18008e-12
1.60394e-12
5.86695e-12
2.69717e-11
1.74027e-11
2.16837e-11
6.05094e-07
1.19064e-11
1.68995e-12
1.49125e-11
5.8552e-08
2.02487e-07
4.75575e-06
7.58818e-13
3.66795e-13
2.50574e-13
9.10614e-14
1.27624e-13
7.11644e-13
1.44989e-12
9.40923e-13
3.11091e-12
1.27267e-10
5.29433e-13
3.40805e-08
5.00743e-09
5.29421e-09
8.0697e-11
5.24109e-11
1.83753e-14
3.38712e-14
8.07489e-11
3.46637e-06
3.34711e-05
6.57725e-09
1.59953e-08
0.000286436
0.000698029
0.00011276
2.53209e-12
2.30637e-10
5.41522e-09
2.37637e-13
0.000298389
0.000388947
0.000283896
2.15805e-06
0.000856511
2.46619e-07
4.45672e-12
1.62272e-12
9.76898e-11
1.33685e-11
4.98805e-12
3.35137e-11
6.51944e-11
1.04594e-12
2.02026e-12
1.1061e-12
1.78965e-07
4.67152e-07
8.80874e-07
5.12476e-13
1.48777e-13
4.79721e-13
4.63442e-14
6.33059e-14
1.07442e-13
8.05926e-14
6.99285e-13
8.20716e-13
6.47809e-13
2.01623e-13
3.3995e-13
4.56387e-09
2.54197e-13
2.97006e-09
4.02715e-11
6.13388e-12
5.7526e-16
2.68679e-12
8.35084e-16
1.72e-11
2.74004e-07
2.73378e-05
1.30324e-05
4.05718e-08
0.000290875
0.000537519
0.000277736
5.48099e-13
2.10648e-11
4.53377e-05
3.76734e-13
0.000304238
0.000275745
0.000275497
6.74706e-06
0.000287647
2.72845e-08
8.05395e-12
4.54166e-12
7.39357e-13
9.02241e-11
1.5951e-11
3.15418e-12
3.3261e-12
4.68445e-08
1.91101e-12
5.48887e-13
8.98559e-13
6.50584e-14
1.70314e-07
2.31771e-07
5.62815e-07
4.8744e-13
1.30209e-13
1.91727e-13
4.72655e-14
6.64877e-14
7.49691e-14
5.22612e-14
5.6141e-13
4.08554e-13
1.72643e-13
1.13321e-11
1.71012e-13
3.17485e-13
5.46339e-12
1.1548e-10
2.25152e-11
3.6434e-11
4.5077e-12
3.26326e-16
4.5918e-16
9.2836e-16
1.0517e-06
9.0525e-06
1.70487e-07
9.98896e-11
0.000298597
0.000307337
0.000265867
7.91583e-14
2.61174e-10
1.70767e-14
3.08188e-07
9.06553e-16
0.000280963
6.25686e-06
3.08529e-06
7.68819e-05
2.5314e-07
1.02821e-11
3.71704e-12
1.50865e-12
3.44868e-11
4.37213e-12
2.3847e-12
2.29082e-12
8.51255e-10
2.2359e-14
3.19032e-13
1.80347e-13
2.44231e-14
2.06355e-11
5.32322e-08
5.54563e-08
3.48037e-13
1.17688e-13
3.08348e-13
1.14385e-13
9.8305e-14
2.3448e-13
3.91211e-14
3.4644e-13
3.6913e-13
7.01875e-14
1.6779e-13
7.48343e-14
3.04015e-13
2.46298e-11
9.71742e-11
1.95754e-11
2.41556e-12
4.73251e-12
2.45654e-16
1.32354e-16
4.8533e-16
1.92062e-16
1.14407e-15
1.03269e-07
2.41855e-07
2.56262e-07
2.17208e-08
0.000298239
0.000300693
0.00011318
2.65311e-15
4.15978e-12
8.69633e-13
2.67699e-06
1.7387e-15
0.000266802
3.42308e-05
6.7915e-06
2.49143e-08
2.47363e-11
7.58604e-12
4.4374e-12
9.57081e-13
9.77387e-11
3.67992e-12
6.59781e-14
2.44343e-12
2.25855e-12
1.03456e-09
2.61862e-12
1.85592e-14
2.52163e-14
2.84391e-13
3.70017e-14
1.98274e-14
8.40233e-11
4.65705e-08
1.88418e-13
3.05131e-13
2.13938e-13
2.12535e-13
1.74546e-13
4.21377e-14
2.00746e-13
9.80314e-14
2.6315e-14
1.69251e-13
5.16734e-14
1.38351e-13
1.86252e-14
1.76754e-10
1.57028e-12
9.70138e-13
1.09162e-12
3.27937e-16
2.16834e-16
1.17224e-16
3.31009e-17
9.88651e-16
6.32485e-08
4.67958e-08
1.79278e-10
1.03198e-09
0.000302067
0.000297501
0.00017227
2.63703e-15
2.18686e-06
1.04232e-11
3.85919e-15
7.96689e-05
1.18429e-15
0.000289995
5.6173e-05
1.45441e-05
3.75837e-06
5.29527e-11
3.83964e-11
1.07497e-11
6.76555e-12
1.43081e-12
2.50917e-10
2.59164e-13
1.43399e-12
3.43076e-13
1.21848e-10
9.85274e-13
2.58879e-14
2.57582e-14
7.73863e-13
4.22749e-14
8.91471e-15
1.46407e-11
2.15852e-11
2.14985e-13
4.5947e-13
5.93112e-13
2.14854e-13
2.04184e-13
5.72608e-14
4.31004e-14
1.73767e-13
5.4048e-14
8.02821e-15
1.49081e-14
1.42979e-11
4.91493e-14
5.16031e-14
9.39996e-14
1.9327e-14
3.18478e-14
2.18242e-17
1.84673e-15
4.78999e-16
4.45717e-17
4.67411e-17
6.93982e-16
4.31244e-10
6.63264e-11
5.11504e-14
1.18936e-09
0.000296196
0.000243538
1.55703e-15
2.69684e-09
1.70167e-12
4.5541e-15
2.77841e-06
0.000111169
1.48171e-15
0.000497342
6.82083e-05
6.45722e-06
4.14085e-07
4.27672e-11
1.76555e-11
3.92591e-11
1.16343e-11
4.45038e-12
1.25713e-12
6.64092e-12
5.53512e-13
1.22288e-12
2.30597e-13
2.6544e-14
7.39927e-13
2.20943e-13
4.87572e-14
4.65204e-13
1.84006e-13
1.41559e-13
3.34082e-14
4.10332e-15
2.79271e-14
1.31549e-11
3.2593e-13
9.30911e-13
6.28619e-13
3.74635e-13
2.45574e-13
4.80447e-14
1.07692e-14
1.55263e-13
1.40542e-14
6.92742e-15
9.60706e-15
1.94549e-14
3.49136e-14
2.51642e-14
1.23296e-13
3.18286e-14
9.77208e-18
1.22815e-17
1.36706e-17
6.93809e-17
2.01341e-16
6.86645e-17
1.7178e-17
5.8442e-16
4.2458e-10
5.60957e-11
5.71793e-12
5.90555e-14
0.000296163
0.000298621
2.06368e-15
1.69925e-11
3.49339e-14
1.06133e-11
2.68773e-15
2.71823e-05
0.000131028
2.67642e-16
0.000118892
6.2098e-06
8.84203e-08
3.78646e-07
2.10607e-10
1.5267e-11
2.42966e-11
1.94508e-10
1.45121e-11
1.09258e-11
2.61069e-12
1.13916e-12
8.72055e-14
1.41238e-13
1.45388e-13
1.8152e-15
5.80624e-15
5.56594e-14
9.2674e-14
2.15275e-12
7.72475e-13
7.87426e-14
2.75442e-14
1.0166e-14
3.08623e-15
4.88581e-15
6.90424e-13
7.67961e-13
1.06135e-12
1.44868e-13
2.54275e-13
3.48227e-13
4.39341e-14
3.68682e-15
8.14686e-15
2.85356e-15
8.69906e-16
7.11953e-16
1.05278e-14
3.03659e-14
1.71666e-14
3.11484e-15
3.662e-16
6.03041e-18
1.02671e-17
1.60345e-17
1.98084e-17
1.66443e-16
5.05647e-17
1.37247e-17
1.43563e-17
2.35475e-16
1.47905e-14
1.35168e-15
1.48806e-12
0.000273783
9.96862e-16
1.77979e-09
5.53024e-14
1.04253e-13
4.11066e-15
3.40652e-05
1.21712e-08
6.82524e-16
6.90847e-06
1.29542e-07
2.74592e-09
1.34096e-11
2.74821e-10
5.26243e-12
2.34713e-11
3.53272e-11
4.29559e-11
2.41541e-10
1.41474e-11
5.26493e-12
1.14507e-12
1.12991e-14
4.05492e-14
1.08993e-14
3.205e-16
6.87449e-15
6.11593e-15
3.87372e-14
3.55367e-15
2.12114e-15
4.14038e-13
4.8946e-13
2.18509e-14
6.96138e-14
2.74029e-14
3.4754e-13
3.59713e-15
4.21982e-15
1.79094e-12
1.64561e-12
1.73131e-12
1.34635e-13
2.4617e-13
9.24955e-13
2.17085e-13
3.75777e-16
1.00704e-16
2.19342e-15
4.0637e-17
5.63396e-17
4.4448e-17
7.09467e-15
4.7544e-15
3.87407e-15
3.16644e-15
1.99975e-15
1.85098e-18
1.16089e-18
2.51192e-18
6.69256e-18
1.68432e-17
1.55096e-17
6.52316e-17
5.17955e-17
1.41827e-17
1.34005e-17
7.83987e-17
6.48414e-18
7.44386e-16
1.67921e-18
1.93512e-15
1.20097e-12
1.22987e-14
2.20223e-12
3.70464e-15
1.15344e-14
2.04199e-06
1.39295e-16
1.00024e-08
1.3703e-09
9.1288e-13
1.50966e-11
2.0078e-10
1.38919e-12
1.4119e-10
0.00232035
1.36608e-10
1.0934e-10
6.25937e-12
2.42313e-11
4.60169e-12
6.6462e-13
1.56696e-14
2.47909e-14
3.56907e-16
1.74504e-16
6.46833e-16
1.08644e-15
2.97072e-15
1.72743e-15
2.37011e-14
4.31449e-14
1.7938e-14
1.3836e-13
3.87328e-14
6.63854e-15
2.08441e-15
6.07357e-16
3.41367e-12
1.14647e-12
2.7443e-12
1.73662e-12
5.06409e-13
6.41806e-13
7.66275e-13
2.39744e-13
2.37227e-16
1.48621e-16
3.43432e-17
2.14372e-17
2.39504e-18
5.75728e-16
2.05549e-15
2.48852e-15
4.70518e-16
1.754e-16
1.8823e-16
9.79544e-19
1.04229e-18
2.1421e-18
5.91799e-18
1.77921e-17
1.56523e-17
7.49748e-17
2.45422e-17
2.12128e-17
1.24877e-17
8.12001e-17
1.47913e-18
1.47115e-18
1.0435e-18
5.87301e-16
2.09295e-12
5.64795e-14
6.04829e-14
4.41065e-15
1.7704e-14
2.21015e-12
2.04786e-16
3.62783e-09
5.86583e-13
3.51959e-13
3.35465e-12
1.02832e-10
8.44573e-13
2.60591e-11
2.01422e-10
8.90979e-10
1.81475e-10
3.95807e-09
2.51868e-11
4.38072e-11
1.4707e-11
5.27624e-13
2.59865e-15
6.61549e-16
6.9346e-17
1.38129e-16
7.05336e-16
5.01682e-16
8.8047e-16
8.53756e-16
3.50892e-14
1.70465e-14
3.18816e-14
7.56817e-14
2.75408e-14
3.68287e-15
6.55387e-15
8.16808e-16
5.74373e-12
7.16541e-12
3.08471e-12
3.28936e-12
7.71738e-13
2.11047e-12
5.23831e-13
2.6469e-17
6.42065e-17
2.33124e-17
1.65279e-17
3.72757e-18
1.88729e-16
1.14477e-16
2.91259e-16
6.991e-16
1.03392e-16
8.28938e-17
1.01905e-18
1.02132e-18
1.2161e-18
2.74405e-18
9.83215e-18
3.46111e-18
7.12664e-17
4.6256e-17
1.64971e-17
8.56764e-18
1.00524e-16
1.07988e-18
9.18968e-19
9.69686e-19
1.07572e-18
6.58936e-16
2.71194e-13
2.98526e-14
1.09656e-13
1.39674e-15
9.51116e-15
2.4294e-14
1.35807e-16
6.81446e-13
1.99202e-13
9.93356e-14
1.478e-12
1.21263e-11
1.58227e-10
5.42368e-13
8.75869e-11
1.08881e-10
0.000283989
5.19849e-10
4.42284e-09
3.85464e-11
6.43976e-11
1.51873e-11
5.58835e-11
1.78207e-13
2.61297e-15
9.71444e-16
2.03724e-17
1.52268e-16
6.64224e-16
3.82022e-17
1.21539e-17
2.64722e-16
2.77935e-14
1.96342e-14
2.16761e-14
2.03482e-13
1.18255e-13
3.98699e-14
5.36354e-15
2.53043e-16
3.08495e-11
5.51151e-12
4.0961e-12
3.65139e-11
5.82651e-13
1.11585e-12
2.1662e-12
8.14459e-13
4.11769e-17
7.20641e-17
2.23661e-17
4.43562e-18
9.0389e-19
1.22367e-16
1.09699e-16
3.18202e-16
2.0923e-16
1.2397e-16
8.89884e-17
6.80669e-17
1.05092e-18
9.11639e-19
1.0394e-18
1.30567e-18
2.58803e-18
2.20518e-18
7.94898e-17
7.85024e-17
3.54301e-17
1.773e-17
2.97031e-17
6.55194e-18
1.15046e-17
1.14792e-18
5.29074e-19
7.96321e-19
1.069e-18
7.82631e-16
3.7813e-13
5.14304e-14
6.53817e-14
2.09228e-15
5.95404e-15
1.87747e-14
2.56151e-16
5.05071e-13
2.99229e-13
6.50163e-14
8.78585e-13
2.09553e-11
2.35138e-07
2.08107e-10
8.61738e-14
8.04297e-11
0.016966
0.000369441
0.00529843
0.000305938
4.51459e-07
8.91168e-11
6.08484e-10
6.58543e-10
7.01505e-11
0.00070186
2.73727e-15
5.10696e-15
1.44429e-15
2.57957e-17
3.31312e-16
1.96156e-16
8.13529e-16
1.01595e-17
1.22481e-17
2.24926e-16
5.96761e-17
1.87581e-14
4.63938e-14
1.32254e-13
5.18658e-13
1.54365e-13
1.41387e-13
3.16816e-14
9.25324e-14
1.59505e-14
2.05886e-10
1.40675e-10
3.19341e-11
6.4977e-11
1.7578e-12
2.51928e-12
6.10751e-12
8.86674e-13
4.34027e-17
6.10269e-17
3.06406e-17
5.26488e-18
1.41995e-18
1.57796e-18
8.84602e-17
9.84125e-17
1.13592e-16
7.81915e-17
6.92425e-17
1.60685e-17
1.59862e-17
1.09546e-18
1.31918e-18
6.55959e-19
1.48171e-18
1.61065e-18
1.16669e-18
1.50189e-16
7.49122e-17
4.75403e-17
2.58895e-17
4.07666e-17
3.07716e-18
1.07495e-17
7.08367e-19
4.50391e-19
4.90305e-19
5.11464e-19
3.47846e-16
9.74304e-16
2.15803e-13
3.19987e-14
3.47003e-15
1.11325e-15
1.14351e-14
2.73927e-14
2.46858e-16
3.60059e-13
1.65342e-11
8.34929e-15
9.8977e-13
2.14836e-11
3.28776e-09
2.82362e-11
3.19674e-15
2.96916e-10
0.053258
0.000310627
0.000290034
0.000441444
0.000125633
1.94062e-08
3.20103e-08
0.00259136
4.06779e-05
0.0267727
0.00228185
2.62891e-12
7.36693e-15
4.57817e-15
7.18452e-17
1.15613e-17
1.68982e-15
7.31315e-16
3.84349e-15
8.24585e-18
5.80273e-18
1.17258e-16
5.01776e-18
7.3775e-14
9.01749e-14
8.01209e-14
6.7368e-13
3.55931e-13
5.83202e-13
5.24292e-14
2.39916e-13
1.24103e-14
0.0430615
2.05514e-08
0.000748773
2.52202e-10
1.02897e-11
4.75736e-11
6.34694e-11
5.59802e-12
2.42869e-11
2.77591e-12
4.8972e-17
2.8965e-17
2.66589e-17
8.57222e-18
1.98167e-18
1.44928e-19
9.44725e-17
5.353e-17
1.08668e-16
2.21699e-17
1.50865e-17
1.28182e-17
2.09045e-17
8.84956e-19
1.51253e-18
5.80222e-19
1.5093e-18
3.18079e-18
3.65336e-18
1.52271e-16
8.77061e-17
1.13798e-16
2.33495e-17
5.26916e-17
3.66985e-18
9.5646e-18
5.48895e-19
2.28803e-19
2.50831e-19
7.98159e-20
7.23593e-16
8.75943e-16
3.42196e-13
2.2444e-13
2.08796e-15
1.85784e-15
1.03105e-14
3.67981e-14
4.4351e-16
2.65966e-11
4.11109e-15
9.70222e-14
1.23795e-12
1.30148e-10
1.08903e-12
1.69956e-12
0.00228124
0.0155422
0.000308651
0.000301519
0.000300478
0.000293526
0.000379591
4.36049e-07
0.000185311
0.000452115
0.000251017
0.00191252
7.21068e-05
0.0381025
0.00194857
0.000225546
3.01409e-11
7.08528e-15
4.5757e-15
6.08715e-17
6.76829e-18
2.04529e-15
5.51487e-15
1.87041e-15
2.84748e-15
5.03688e-18
5.56796e-17
2.85989e-18
1.23167e-13
3.82411e-13
1.97978e-12
2.18009e-12
3.80201e-13
1.58655e-13
3.32077e-14
2.58463e-13
1.65439e-13
1.11914e-14
0.11389
4.1305e-05
0.00315855
0.000579624
3.82051e-11
3.06746e-10
3.32839e-05
2.23142e-11
2.75213e-11
1.02904e-10
8.6528e-12
3.25951e-17
1.67146e-13
2.22886e-17
3.734e-18
3.40542e-19
1.49121e-19
5.1456e-17
3.46864e-17
9.70689e-17
2.44175e-17
1.45138e-17
7.55838e-18
3.62918e-13
8.59375e-19
1.5622e-18
1.98013e-19
1.98607e-18
5.26413e-17
4.21849e-18
2.14529e-17
1.95161e-16
1.59039e-16
1.63247e-16
2.61378e-17
4.01081e-17
1.9429e-17
2.8248e-16
2.33997e-19
1.80928e-19
1.45654e-19
4.76529e-20
7.6838e-16
9.2811e-16
1.93527e-13
6.68767e-15
3.02992e-15
1.09701e-14
9.44878e-15
4.749e-16
6.98576e-16
1.09479e-10
2.52773e-14
1.71511e-16
5.07318e-14
5.84848e-14
1.02328e-12
6.28296e-11
9.68769e-12
0.00172071
0.000295138
0.000295905
0.000300393
0.00029466
0.000293771
0.00030623
5.04278e-10
9.64664e-06
0.000315555
0.000213161
0.00101737
0.00147929
0.000297563
0.000280085
0.00029605
0.00029641
1.23646e-10
1.05719e-11
6.6159e-15
8.03153e-17
5.40661e-18
5.64732e-15
1.53822e-14
3.88872e-15
6.45903e-15
4.75193e-18
1.96146e-17
2.20302e-18
5.03729e-13
4.26448e-13
5.55107e-13
5.77805e-12
1.09004e-11
3.96562e-12
7.14048e-14
5.02079e-14
7.7518e-13
6.68662e-13
1.20627e-14
0.156825
0.000114075
0.0502698
0.00259793
0.142824
0.00237919
0.160918
7.37052e-05
1.36556e-10
1.66196e-11
8.07627e-10
8.91989e-09
6.78789e-11
1.39537e-13
6.5026e-13
4.65324e-18
9.94951e-19
1.48857e-19
3.46277e-19
5.73212e-20
3.55059e-17
1.67302e-17
5.54016e-17
4.47244e-17
1.25839e-17
5.40017e-18
4.09567e-14
9.66842e-19
1.21187e-18
7.82267e-20
1.93033e-19
3.76544e-16
5.09207e-17
1.26717e-17
8.15084e-16
2.21944e-16
1.6461e-16
6.95351e-17
2.49971e-17
7.14003e-17
1.42778e-16
8.69547e-17
1.03545e-19
3.2437e-19
1.62292e-19
4.29464e-20
8.83956e-16
2.68817e-15
1.40661e-15
3.08837e-13
3.87717e-15
3.6925e-15
8.4278e-15
1.68379e-14
4.02444e-16
8.54737e-16
1.74864e-14
2.60664e-16
1.22439e-14
9.76545e-15
2.65149e-15
1.11676e-14
8.2097e-12
0.000294187
0.000883018
0.000293217
0.000294425
0.000294777
0.000293048
0.000293949
0.00029476
0.000265712
4.8033e-14
1.35194e-11
0.00010705
0.000295886
0.000294832
0.000294273
0.000294339
0.000297565
0.000288627
0.000295694
0.000817496
0.000297012
1.70615e-10
3.825e-11
3.20019e-14
2.84351e-17
4.71562e-18
7.68686e-18
6.8876e-15
1.8146e-14
5.24254e-15
5.97778e-13
2.41053e-18
2.36694e-18
1.87415e-18
2.39223e-12
1.24048e-12
1.90786e-12
2.13388e-11
3.99038e-11
2.14564e-12
1.43348e-12
2.40153e-13
7.92104e-13
4.62875e-12
1.53087e-12
3.8768e-13
0.000299205
0.000258158
0.000299756
0.000950486
0.0413128
0.0060674
0.0528894
0.00028056
0.0144215
0.00611154
4.28687e-10
0.000208351
4.11133e-05
9.63433e-11
3.16003e-17
2.30759e-13
2.1553e-18
1.10819e-18
8.53744e-20
6.84359e-19
2.41683e-20
2.10689e-17
1.44515e-17
1.68133e-17
1.98025e-17
6.88815e-18
5.37758e-18
5.66985e-18
4.70992e-18
1.2195e-18
5.86972e-20
2.13036e-20
4.23523e-16
1.52476e-16
1.18858e-17
1.51338e-15
1.77158e-16
1.07121e-16
8.28619e-17
1.59769e-17
2.23782e-17
2.72069e-15
2.42084e-15
3.12154e-14
3.72644e-19
5.43343e-20
1.33124e-20
6.03953e-20
9.32742e-16
1.14644e-15
2.85631e-15
2.62551e-15
2.12735e-13
6.29761e-15
4.04685e-15
7.25532e-15
6.61052e-14
2.47478e-16
8.54985e-16
6.16436e-15
1.08174e-12
6.55348e-19
2.09656e-15
1.4928e-16
6.98348e-15
2.37624e-11
0.000294033
0.000293711
0.000293329
0.000291236
0.000292246
0.000292795
0.000291396
0.000292605
0.000292606
0.000293466
1.14889e-13
1.89352e-12
7.65553e-05
0.000295458
0.000294864
0.000294362
0.000293716
0.000297336
0.000297756
0.000295805
0.000296458
0.000296995
1.21503e-10
3.99175e-14
8.20956e-18
7.73367e-17
2.3699e-18
2.4592e-18
3.13244e-14
2.74538e-14
1.27337e-14
1.27241e-12
1.82803e-18
3.70616e-18
1.7664e-18
1.30372e-11
1.34697e-12
5.99245e-12
1.38383e-10
5.03474e-11
6.21647e-11
1.96456e-11
1.79785e-12
8.15374e-12
2.99384e-11
1.35752e-11
2.36702e-13
0.000299368
0.000299217
0.000298928
0.000299705
0.000605815
0.000300505
0.0572718
0.000235513
0.000290481
0.00657035
0.00567314
1.28327e-09
0.000464216
0.000120678
4.11704e-10
2.00653e-16
1.20865e-13
2.00647e-18
1.69589e-18
1.21486e-19
2.00213e-20
3.27063e-19
1.10289e-17
2.55307e-18
1.35751e-17
1.71823e-17
2.0312e-17
7.29166e-18
1.83459e-18
4.4897e-14
4.59588e-18
1.1767e-16
2.56825e-13
1.0984e-20
1.66837e-16
3.77336e-18
1.96988e-16
4.32568e-18
3.11168e-15
1.57979e-16
1.09767e-16
3.19518e-17
9.08462e-17
1.52699e-16
5.36157e-15
2.03886e-16
9.4471e-19
4.10318e-14
3.246e-13
1.46241e-20
2.10564e-20
1.78893e-15
1.17712e-15
8.18528e-15
2.46819e-15
3.07491e-13
6.72271e-15
1.25642e-14
6.78176e-15
5.73405e-14
5.19127e-16
2.57885e-15
8.88632e-19
1.72402e-16
1.89097e-18
6.89745e-19
1.25126e-17
1.46692e-17
2.03953e-14
1.50291e-14
0.000293632
0.000293529
0.000292716
0.000290861
0.000291768
0.000291241
0.000291987
0.000292807
0.000292224
0.000290883
4.25185e-13
1.6636e-12
1.78024e-10
0.000276828
0.000295672
0.000294519
0.000294411
0.000293326
0.000297339
0.000297862
0.000298256
0.000295856
0.000296072
0.000296504
0.000296768
3.18608e-11
6.66178e-12
5.92183e-17
1.00458e-14
1.96431e-18
2.33105e-18
3.75755e-18
2.42071e-14
1.41563e-13
2.43311e-13
2.23404e-14
1.99343e-07
1.79114e-18
1.81677e-18
6.76054e-11
6.35058e-11
1.10156e-11
1.61968e-10
0.00248687
6.44027e-11
2.93895e-10
5.98607e-11
3.09357e-11
2.03724e-11
2.14011e-11
5.5704e-12
1.79358e-11
6.86783e-11
2.5738e-11
1.37113e-12
0.000299261
0.000298989
0.000298861
0.00029974
0.000300053
0.000300354
0.126039
0.000251195
0.00448648
0.00100846
0.000123509
4.32064e-05
0.000265367
0.0569749
7.19827e-08
1.07767e-16
2.47503e-18
1.72994e-18
9.69122e-19
1.91726e-20
1.95195e-20
6.51377e-20
4.36045e-18
2.64809e-18
8.33654e-18
1.0629e-17
1.34143e-17
6.22559e-18
1.82613e-18
5.10226e-19
1.87019e-18
9.15896e-13
1.28783e-13
3.39015e-18
8.66096e-18
5.00079e-17
1.24199e-15
3.7008e-18
3.1795e-15
1.87811e-16
1.2036e-16
3.05003e-17
5.89001e-17
8.42787e-17
1.01435e-14
2.63319e-15
2.58874e-19
7.89178e-14
4.33688e-13
1.45329e-20
4.13593e-20
1.56884e-15
2.00232e-15
1.81147e-15
3.20824e-15
9.32068e-15
3.20731e-15
2.91003e-13
6.95877e-15
6.06949e-14
9.69749e-15
1.68399e-13
5.79947e-16
8.18459e-16
3.39271e-15
5.70408e-19
9.21699e-15
5.27043e-19
8.97618e-18
7.1927e-19
1.9967e-17
2.93336e-16
4.45827e-14
4.1245e-12
0.00029299
0.000292951
0.000292888
0.000290587
0.000290638
0.000290755
0.000291347
0.00029248
0.000292387
0.000290401
2.31051e-12
1.32146e-12
3.87015e-05
0.000290906
0.000290207
0.000295458
0.000295208
0.000294255
0.000294293
0.000293206
0.0002972
0.000297738
0.000297946
0.000295638
0.000295984
0.000296333
0.000296517
8.95205e-08
2.85884e-16
3.17222e-18
2.10447e-18
2.17743e-18
1.80762e-18
2.67349e-14
2.16957e-13
6.20389e-13
1.37538e-14
1.73418e-07
2.00648e-18
1.82552e-18
5.48224e-11
3.81173e-11
1.00454e-10
1.95074e-07
0.00790774
4.88515e-10
9.95877e-10
9.85624e-11
6.44812e-12
1.8545e-11
3.76399e-11
2.39696e-11
4.3991e-11
3.60297e-11
3.23734e-12
3.00143e-12
6.83294e-12
0.000299063
0.000299466
0.000298594
0.000299567
0.00030027
0.000300489
0.0516378
0.000300532
0.000302508
0.000302021
0.0002638
5.77952e-05
0.000301925
0.000301661
0.000211579
1.78749e-18
8.08068e-19
1.37882e-18
5.3523e-19
6.31747e-21
2.16293e-20
5.10819e-20
4.66287e-20
2.63251e-18
1.88393e-18
4.49025e-18
7.00673e-18
7.59797e-18
5.04693e-18
2.70979e-18
1.64664e-18
2.33443e-19
2.57943e-18
1.37966e-18
7.45822e-13
3.10176e-12
3.01982e-18
3.98294e-18
4.09282e-16
3.95959e-15
9.14435e-18
6.14236e-15
2.24777e-16
1.1684e-16
3.41243e-17
9.36113e-16
1.07388e-16
1.67591e-14
3.57892e-17
2.30872e-14
6.62308e-14
1.73988e-13
2.55068e-27
1.72755e-12
1.28966e-20
1.06632e-19
3.51285e-15
2.9698e-15
1.0826e-14
3.4273e-15
4.77814e-15
5.54085e-14
4.26074e-15
2.86485e-13
6.97301e-15
5.48075e-14
1.14571e-14
1.78191e-13
1.45457e-15
8.73176e-16
4.73724e-15
4.40869e-19
1.83669e-14
2.67675e-15
5.23353e-19
5.87912e-19
5.36365e-19
7.95495e-16
1.71872e-16
4.86203e-14
8.00105e-13
0.000292876
0.000292501
0.000290773
0.00029062
0.000291331
0.000291951
0.000292394
0.000292161
0.000290524
2.02075e-11
3.60412e-12
4.71684e-10
0.000918167
0.000289541
0.000290279
0.000295349
0.000295105
0.000294396
0.00029317
0.000297023
0.000297685
0.000298118
0.00029544
0.00029611
0.000296273
0.000296998
2.46976e-11
3.3422e-16
1.96841e-17
2.05949e-18
2.14185e-18
1.60027e-18
1.38912e-18
8.69231e-14
7.01446e-13
4.26564e-15
7.30371e-08
1.92514e-18
3.60035e-11
1.16457e-10
7.9012e-11
8.85574e-08
0.00590328
8.75811e-10
7.6687e-09
1.13699e-09
7.76673e-13
1.69744e-11
1.63295e-11
1.26005e-11
7.42178e-11
1.51408e-11
3.2687e-11
3.19494e-12
3.5763e-10
6.99373e-13
0.000298784
0.0002991
0.000298295
0.00029993
0.000300202
0.000300394
0.0264949
0.000300893
0.000302476
0.000302139
0.000302826
0.000303718
0.000301555
0.000301379
0.000241552
9.72289e-19
3.62595e-19
2.13005e-19
5.94815e-21
3.3149e-20
2.12302e-20
2.12308e-20
3.10608e-18
1.88719e-18
7.12762e-18
3.61202e-18
2.77163e-18
2.22952e-18
1.74064e-18
9.1722e-19
3.68362e-20
5.67028e-19
1.19455e-19
8.49344e-13
2.80245e-12
1.69063e-18
2.18249e-18
9.5542e-18
6.46116e-12
8.89276e-18
1.40373e-14
4.20235e-16
1.35045e-15
2.93278e-16
7.87711e-17
1.65128e-15
4.72711e-17
4.17242e-14
4.3954e-17
3.89129e-20
4.07558e-13
1.55492e-12
5.84464e-13
1.99431e-12
5.82879e-20
1.81201e-20
3.32495e-20
5.5582e-15
4.47897e-15
4.4492e-15
1.91355e-14
5.71823e-15
8.56231e-15
1.52782e-13
5.6225e-15
1.16458e-14
2.89556e-14
2.05323e-14
3.54051e-13
1.50646e-15
8.39981e-16
1.743e-15
2.73868e-19
4.90836e-14
2.76125e-19
5.73672e-16
6.71997e-19
5.29608e-19
1.29438e-15
2.55062e-16
3.90003e-14
2.78547e-13
2.85335e-13
0.000293426
0.000292644
0.000292447
0.000291066
0.000290919
0.000291064
0.000291557
0.000292381
0.000290479
9.91989e-12
6.84467e-11
8.02664e-10
0.00551613
0.000289833
0.000289403
0.00029502
0.000294975
0.000294589
0.00029381
0.000293483
0.000297352
0.000297987
0.000298143
0.000295412
0.000295831
0.000296258
0.000296798
9.83294e-12
3.72624e-16
2.94298e-15
9.65246e-18
1.87451e-18
2.10127e-18
1.54663e-18
1.38657e-18
1.45586e-17
5.80122e-14
2.28081e-13
5.55678e-12
6.79269e-14
1.95494e-18
1.14888e-10
4.5543e-12
8.64976e-11
7.55647e-10
2.29747e-10
0.0045177
1.07728e-09
2.06553e-10
6.47283e-13
6.89239e-13
2.82449e-12
6.93543e-12
3.09879e-11
1.13398e-11
5.29644e-12
1.18627e-12
1.04466e-12
2.69714e-10
0.000298784
0.000298928
0.00029925
0.000299566
0.000299912
0.000300241
0.000300569
0.000300758
0.000301972
0.000302101
0.000303773
0.000303141
0.00030361
0.00030187
0.000301328
0.0174952
6.71297e-19
9.08775e-20