/*--------------------------------*- C++ -*----------------------------------*\
| =========                 |                                                 |
| \\      /  F ield         | OpenFOAM: The Open Source CFD Toolbox           |
|  \\    /   O peration     | Version:  v2012                                 |
|   \\  /    A nd           | Website:  www.openfoam.com                      |
|    \\/     M anipulation  |                                                 |
\*---------------------------------------------------------------------------*/
FoamFile
{
    version     2.0;
    format      ascii;
    class       volScalarField;
    location    "0";
    object      p;
}
// * * * * * * * * * * * * * * * * * * * * * * * * * * * * * * * * * * * * * //

dimensions      [0 2 -2 0 0 0 0];


internalField   nonuniform List<scalar> 
11941
(
0.00032425
0.000350468
0.000285146
0.000349006
0.000382391
0.000268834
0.000255558
0.00038855
0.000320269
0.000407834
0.00025647
0.00022317
0.00038604
0.000395247
0.000335646
0.000437491
0.000200942
0.000215486
0.000376934
0.000438663
0.000441446
0.000305859
0.000461748
0.000191026
0.000230524
0.000187773
0.000373415
0.000461137
0.000464761
0.000316934
0.000484034
0.000143676
0.000202579
0.000140567
0.000401484
0.000447505
0.000491987
0.000490918
0.000312495
0.000507191
0.0001172
0.000127505
0.00015432
0.000113434
0.000404649
0.000511127
0.000508754
0.000499013
0.000262905
0.000391925
0.00052416
0.000512964
5.17387e-05
8.04157e-05
0.00025356
0.000107078
4.34907e-05
0.000482221
0.000547986
0.000519616
0.000535131
0.000322276
0.000377177
0.000541274
0.000544829
4.18228e-05
4.54716e-05
0.000194575
5.03657e-05
0.000117608
3.5066e-05
0.000461568
0.000553921
0.00058481
0.00055126
0.000313817
0.000447442
0.000553737
0.000540213
-3.23478e-07
-2.467e-06
0.000220232
-1.19685e-05
4.22144e-05
-5.72858e-06
0.00057702
0.000595179
0.000602766
0.000607591
0.00057621
0.000396581
0.000563543
0.00056321
-3.47094e-05
-5.58546e-05
0.000161097
-2.88625e-05
4.37088e-05
-2.43707e-05
0.000580745
0.00063972
0.000650731
0.000621691
0.000578229
0.000409103
0.000572037
0.000562909
-7.53739e-05
-0.000111611
0.000225821
-0.00011703
-5.05822e-05
-6.89315e-05
0.000644289
0.000676513
0.000711149
0.000657901
0.000618796
0.000613169
0.000413561
0.000576296
0.000578431
-9.94559e-05
-0.000125745
-0.000146474
0.000217362
0.00035063
-0.000165433
-0.000160055
-6.00031e-05
-8.94329e-05
0.000637294
0.000771179
0.000764666
0.00077295
0.000720169
0.000642492
0.000588764
0.000568501
0.000576311
0.000580094
-0.000141348
-0.000158145
-0.00022281
-4.65249e-05
0.000180576
0.000369779
-0.000280649
-0.00026534
-0.000279185
-0.000129279
0.000886547
0.000874297
0.000759433
0.000903808
0.000716201
0.000646522
0.000614571
0.000610101
0.000484065
0.000578051
0.00057866
-0.000145915
-0.000230326
-0.000239091
-0.000291307
-7.79309e-05
0.000254658
-0.000341934
-0.000312981
-0.000147594
0.000802146
0.000937204
0.00082426
0.000997495
0.000755751
0.000679666
0.000620509
0.000583958
0.000595935
0.000575764
-0.000199452
-0.000229195
-0.000308737
-0.00043217
0.000156699
-0.000219143
0.00045293
-0.000478789
-0.000547085
-0.00038755
-0.000151314
-0.000199291
0.00115801
0.000801953
0.0011004
0.000828346
0.000951094
0.00111927
0.000687411
0.00064613
0.000602898
0.000578209
0.000566648
0.000580039
-0.000227623
-0.000321553
-0.000427674
-0.000499395
0.000142557
-0.000205226
0.000515422
-0.000570651
-0.000598066
-0.000531214
-0.000193498
-0.000209703
0.00118244
0.00118055
0.00100919
0.00110638
0.00084658
0.00100214
0.00124098
0.000683567
0.000608233
0.000577083
0.000576299
0.000560325
0.000569355
-0.000276381
-0.000327245
-0.000461351
-0.000643886
-0.000174247
0.000294547
-0.000533182
0.00068448
-0.000713944
-0.000747524
-0.00054516
-0.000201724
-0.000233484
0.00110321
0.00152389
0.00140931
0.00137637
0.000814726
0.000915883
0.00112502
0.00126254
0.000646487
0.000714743
0.000604073
0.000575141
0.00054246
0.00056645
-0.000284663
-0.000392663
-0.000404348
-0.000547237
-0.00066575
-5.79113e-05
2.15572e-05
-0.000459269
0.000910567
-0.000861557
-0.000671773
-0.000904932
-0.000864569
-0.000234736
-0.000235335
0.00139541
0.00156387
0.0015251
0.0013927
0.000879969
0.000746247
0.00106088
0.00111804
0.00142065
0.000587791
0.000623113
0.000563354
0.000556604
0.000545926
0.000547915
-0.000321178
-0.0003974
-0.000549815
-0.000557192
-0.000766849
-0.000440311
0.000255105
-0.000832284
0.00103163
0.000589948
-0.0011501
-0.000916031
-0.00112864
-0.000797738
-0.000252682
0.00146954
0.00213042
0.00176245
0.00176392
0.000834143
0.000945847
0.000736352
0.00130723
0.00141588
0.00173434
0.000581588
0.00061578
0.000655751
0.000559547
0.000519978
0.000540287
-0.000307903
-0.000485177
-0.000392195
-0.000638141
-0.000784251
-0.000488018
-7.98324e-05
-0.00104655
0.00135332
0.000571508
-0.00114837
-0.00121767
-0.000933374
-0.00134134
-0.00137038
-0.000256555
0.001936
0.00220436
0.00212597
0.00186606
0.000844001
0.000764653
0.00102857
0.00129976
0.00147208
0.00179541
0.000532412
0.000541691
0.000561723
0.000522191
0.000496654
0.000513678
-0.000304406
-0.000495144
-0.00039266
-0.000638636
-0.000864654
-0.000464227
0.000114608
-0.00113811
0.00207074
0.00119498
0.000531057
-0.00129663
-0.00142713
-0.00101894
-0.00138589
-0.001376
-0.000274939
0.00261414
0.0023462
0.00193525
0.000824119
0.000659027
0.00105297
0.00132318
0.00166137
0.00187901
0.00217717
0.000535072
0.000528053
0.000524478
0.000551105
0.000618642
0.000478425
0.000516004
-0.000302088
-0.000439201
-0.000308074
-0.000642802
-0.000801841
-0.000684067
-0.000225469
-0.00131887
0.00196471
0.00136512
0.000557572
-0.00139706
-0.00151726
-0.00179949
-0.0011313
-0.00147931
-0.00179457
-0.000279824
0.00266714
0.00298579
0.00240511
0.000912347
0.000700299
0.00063497
0.00116486
0.00147786
0.00167547
0.00215426
0.00235511
0.000488122
0.000508003
0.000481921
0.000454343
0.000490609
0.000441586
0.000474695
-0.000415889
-0.000328177
-0.000529702
-0.00077498
-0.000919645
-0.00111927
-0.0006099
5.22151e-05
-0.0018195
0.00221522
0.00194232
0.00100053
-0.00145564
-0.00182486
-0.00198442
-0.00104981
-0.00172242
-0.00196152
-0.000292007
0.00343588
0.00279298
0.00355581
0.000928634
0.000665442
0.000525306
0.00124569
0.00185383
0.00221242
0.00238445
0.00046726
0.000482862
0.000451814
0.000452646
0.000526012
0.000482374
0.000433745
0.000483604
-0.000402241
-0.000516226
-0.000294121
-0.000579965
-0.000703122
-0.000894847
-0.00169922
-0.00098223
-8.07713e-05
-0.00228368
0.0030989
0.00228326
0.00103644
-0.00148961
-0.00166519
-0.00181044
-0.00227304
-0.00114935
-0.00226269
0.00379246
0.00365581
0.00305344
0.00373672
0.00109573
0.000901423
0.00055131
0.000653243
0.00124729
0.00194166
0.00155942
0.0025661
0.00288855
0.000435155
0.000459711
0.000402946
0.000402676
0.000472768
0.000404008
0.000431694
-0.000423614
-0.000455423
-0.000329283
-0.000539551
-0.000682926
-0.000862393
-0.00106231
-0.00189988
-0.000634616
0.000452763
-0.00257017
0.00306596
0.00238038
0.00146566
-0.00171281
-0.00144698
-0.00191069
-0.0021542
-0.00233454
-0.00110241
-0.00253718
0.00455062
0.00434501
0.00283166
0.00434495
0.000985885
0.000783325
0.000488132
0.000624671
0.00238205
0.00144533
0.00254181
0.000416418
0.000398119
0.000369911
0.000341452
0.000371677
0.000368775
0.000420859
-0.000355972
-0.00046467
-0.000330548
-0.000582873
-0.000718894
-0.000977722
-0.00084173
-0.00171892
-0.00230225
-0.000809299
0.000476536
-0.00294117
-0.00311634
0.00377801
0.00266531
0.00145845
-0.00186942
-0.001247
-0.00213568
-0.00241277
-0.00292367
0.00486998
0.00452031
0.00486915
0.00344129
0.00421443
0.000982527
0.000749021
0.000343391
0.000426427
0.000506054
0.00206316
0.00183846
0.00130463
0.00318275
0.000365472
0.000362629
0.000357281
0.000378797
0.00032762
0.000356522
0.000377619
-0.000355446
-0.000452094
-0.000395992
-0.000578021
-0.000451536
-0.00064734
-0.000956637
-0.000729061
-0.0016846
-0.00244173
-0.000711601
-0.000135247
-0.00339187
-0.00355761
0.00375535
0.00352991
0.00166184
-0.00166022
-0.00217718
-0.00120767
-0.00234814
-0.00278414
-0.00325611
0.00619988
0.00576205
0.0059034
0.00350888
0.00462161
0.000665348
0.000570363
0.000249186
0.000350772
0.00036377
0.000464739
0.00240776
0.0015337
0.00131635
0.00278046
0.000339008
0.000336281
0.000303182
0.000300943
0.000275555
0.000308511
0.000365409
-0.000356656
-0.000379913
-0.00052554
-0.000394009
-0.000647872
-0.000827494
-0.00103506
-0.000722417
-0.00209552
-0.00281647
-0.0019875
0.000778789
-0.00341275
-0.00405034
-0.00324688
0.00532343
0.00430985
0.00156273
-0.00136475
-0.00167194
-0.00236395
-0.00232298
-0.0029097
-0.00368698
0.00639928
0.00584281
0.00554278
0.00536412
0.00690321
0.00404969
0.0048233
0.000642018
0.000297593
0.000346719
0.000161067
0.000236474
0.000298815
0.0023588
0.00154244
0.000611954
0.00344432
0.000302102
0.000304396
0.000294694
0.000263463
0.000276156
0.000245168
0.000235381
0.000322506
-0.000382047
-0.0004431
-0.000528695
-0.000453324
-0.000572015
-0.000729317
-0.000957654
-0.000589803
-0.00205619
-0.00342845
-0.00100572
-0.0008157
-0.00460437
-0.00408765
-0.00456446
0.00454334
0.00394029
0.00241168
-0.00136032
-0.00187682
-0.00143537
-0.0027067
-0.00226066
-0.00329301
-0.00385311
0.00734588
0.00628346
0.00591037
0.00721484
0.00765085
0.00407441
0.00548801
0.000463991
2.90274e-05
0.000160223
0.00017066
0.000135858
0.000178954
0.000187997
0.00248345
0.00136785
0.000910952
0.00317166
0.000285381
0.000297944
0.000269598
0.000226726
0.000231306
0.000234393
0.000221448
0.000310788
-0.000381943
-0.000387268
-0.000468089
-0.000421614
-0.000552169
-0.00063199
-0.000707333
-0.00103241
-0.000577293
-0.00217729
-0.00462641
-0.00266951
0.000622483
-0.00460868
-0.00487714
-0.00381594
-0.00529445
0.00452547
0.00475363
0.00141829
-0.00121187
-0.00187608
-0.00149142
-0.00270226
-0.00241422
-0.0034106
-0.00399094
0.00813382
0.00712922
0.00564037
0.00658523
0.0074199
0.00917417
0.00473796
0.000112841
-7.87987e-05
-3.10477e-06
1.22046e-05
0.000103411
-9.88955e-05
0.000174285
0.00208652
0.00153898
0.000670085
0.00351834
0.000272186
0.000243915
0.000241199
0.00020648
0.000206067
0.000215376
0.000210616
0.000177357
-0.000470791
-0.00043048
-0.000449724
-0.000371738
-0.000489869
-0.000531112
-0.000771238
-0.00092814
-0.000513835
-0.00402585
-0.00493773
-0.00268795
0.000855114
-0.00607804
-0.00500109
-0.00514177
-0.00611012
0.00670145
0.00544149
0.00306513
-0.00125312
-0.0017551
-0.00129508
-0.00295784
-0.00229172
-0.00303003
-0.00434787
0.00842715
0.0072803
0.00633563
0.00913191
0.00883543
0.0094628
0.00440784
-0.000135382
-0.000115882
-0.000465194
-1.2393e-05
5.78733e-05
-3.49409e-05
-0.000128194
-3.00897e-05
0.000152062
0.00229219
0.00102356
0.000639388
0.00304059
0.000265844
0.000218279
0.000192438
0.000194384
0.000192652
0.000206145
0.000169647
0.000183779
-0.000444504
-0.000358376
-0.000441497
-0.000476381
-0.000450559
-0.000572604
-0.000773357
-0.000930466
-0.000448381
-0.00422108
-0.00634674
-0.00486529
-0.00153117
0.00205927
-0.00128425
-0.00609319
-0.00610178
-0.00529728
-0.00480876
-0.00689761
0.00645775
0.00372625
-0.00182062
-0.00120097
-0.0029263
-0.00201142
-0.00396127
-0.0042665
0.00956686
0.00731191
0.00603028
0.00933748
0.0107438
0.0116908
0.00479634
-0.000182196
-0.000499218
-0.000437047
-0.000398147
6.03651e-05
3.14854e-05
-0.000292
-0.000268048
0.000111452
0.00160448
0.00145306
-0.000101268
0.00319889
0.000255758
0.000215912
0.000185403
0.000202839
0.000165443
0.000178983
0.000199978
0.000150265
0.000184342
-0.00044153
-0.000346697
-0.000407695
-0.000412197
-0.000424137
-0.000388336
-0.000507699
-0.000657968
-0.000774431
-0.000405921
-0.00702551
-0.00632691
-0.00377799
0.00216441
0.000166126
-0.00723774
-0.00700305
-0.00612161
-0.00561612
-0.0084279
0.00828808
0.00562529
-0.00151241
-0.00101736
-0.00311263
-0.00201837
-0.00395796
-0.00430867
0.00940878
0.0106851
0.00834868
0.00757305
0.00502929
0.00827869
0.0111522
0.0110641
0.0133055
-0.00084235
-0.000775315
-0.000901924
-0.000456238
6.15095e-05
-0.000137516
-0.000167893
0.000125963
0.00229882
0.000169495
-0.000688903
0.00319817
0.000220343
0.000160185
0.000204869
0.000145793
0.000175357
0.000187705
0.000120213
0.000146491
0.000194945
-0.000557421
-0.000344338
-0.000323381
-0.000424433
-0.000370101
-0.000415889
-0.000382327
-0.000538616
-0.000557944
-0.000667721
-0.000344403
-0.00717198
-0.00648853
-0.00499489
-0.00397404
0.000340301
0.00394724
-0.00240151
-0.00818963
-0.00693115
-0.00628566
-0.00560835
-0.00959944
0.00785214
0.00626263
-0.00142625
-0.000783294
-0.00327473
-0.00259781
-0.00179541
-0.00425556
0.0105524
0.0129712
0.00848263
0.00752211
0.0055351
0.0121639
0.0123772
0.0134506
0.0133347
-0.00080541
-0.00144072
-0.00122524
-0.000883468
-0.000648735
7.84288e-05
-4.6705e-05
-0.000277877
0.00012667
0.00224246
-8.93515e-05
0.000679528
0.00366821
0.000206561
0.000173345
0.000205476
0.000151096
0.000184497
0.000153534
0.000203769
0.000120682
0.000142875
0.000192777
-0.000432874
-0.00032326
-0.000318037
-0.000373119
-0.000315901
-0.000340229
-0.000372049
-0.000257325
-0.00044597
-0.000430024
-0.000530036
-0.000322329
-0.00856567
-0.00799647
-0.00775586
-0.00527371
-0.000285399
0.00407186
-0.000914334
-0.00914215
-0.00774311
-0.00733128
-0.00632825
-0.0111544
0.0105402
0.0082782
-0.00113898
-0.000779489
-0.000733282
-0.00347606
-0.00250192
-0.00193822
-0.00488259
0.00993266
0.0119148
0.0133363
0.00752917
0.00412214
0.0109806
0.012746
0.0143935
0.0165145
-0.00183719
-0.0015513
-0.00132336
-0.00103883
-0.000598937
7.24605e-05
-2.70837e-05
-0.000237537
-0.000407336
0.000190235
0.0019813
-0.00140405
0.000185385
0.000165374
0.000232234
0.000103896
0.000164773
0.000162465
0.000210633
0.000122646
9.11008e-05
0.000213055
-0.000550722
-0.000415266
-0.00029594
-0.000348299
-0.00030214
-0.000266254
-0.000380265
-0.000256385
-0.000255062
-0.000243983
-0.00030112
-0.000352665
-0.000316173
-0.0100951
-0.00965684
-0.00749757
-0.00517906
-0.00722105
0.00193796
0.00372869
0.00593838
-0.00190041
-0.0108495
-0.00896666
-0.00759778
-0.00527047
-0.00657932
-0.0109615
-0.0124865
0.00864205
-0.00103433
-0.000584655
-0.000435819
-0.00356358
-0.00243477
-0.00136447
-0.00369646
0.0107443
0.0127285
0.0136206
0.00850117
0.00521823
0.00504193
0.0144331
0.0146748
0.0177031
0.0181814
0.0166537
-0.00247693
-0.00217441
-0.00209472
-0.00169254
-0.000781726
-0.00135621
8.14604e-05
-6.04231e-06
-0.000255338
-0.00052485
0.000200735
0.00272559
-0.00176224
-0.000622942
0.000232915
0.000117222
0.000181353
0.000134753
0.000214507
0.000182518
9.16421e-05
0.00024374
-0.000429173
-0.000295023
-0.000315536
-0.000266436
-0.000226249
-0.00028306
-0.000207612
-0.000149273
-0.000176568
-0.000195963
-0.000340053
-0.000227664
-0.000286051
-0.000296932
-0.0101301
-0.0100425
-0.00410996
-0.00789855
0.000540839
0.00524807
0.00602925
-0.00182917
-0.0118625
-0.0100423
-0.0087245
-0.00496944
-0.00707224
-0.0140238
-0.0125092
0.0122794
-0.000641239
-0.00122578
-0.000523618
-0.000432186
-0.00295578
-0.00202986
-0.00185485
-0.00419986
0.0111432
0.0141144
0.0083517
0.00717059
0.00295479
0.0145915
0.0165025
0.0182022
0.0186716
0.0200881
0.0180098
-0.0030377
-0.00283929
-0.00222438
-0.00189385
-0.0010406
-0.00139
0.000174235
2.61265e-06
-1.30364e-05
-0.000554855
0.000233035
0.000240799
-0.00284543
-0.00187829
0.000274813
0.000113667
0.000150231
0.000130601
0.000232463
0.00018988
0.000114052
0.000276896
-0.000475979
-0.00036918
-0.000296241
-0.000229456
-0.000185161
-0.000260365
-0.00021758
-0.000202008
-0.000146936
-0.000165369
-0.000122906
-0.000161447
-0.000131361
-0.000114732
-0.000277969
-0.0139572
-0.0114252
-0.00422976
-0.00844477
-0.0113873
0.000768064
0.00518092
0.00978614
-0.0105478
-0.014011
-0.00943952
-0.00671767
-0.00840162
-0.0147928
-0.0166269
0.0127972
-0.000410867
-0.00063758
-0.000235949
-0.000241862
-0.0030076
-0.0014834
-0.00379288
0.0113279
0.0161693
0.0108574
0.00554397
0.0040433
0.0172547
0.0193809
0.0221553
0.0197932
0.0226005
0.0196076
-0.00351377
-0.00416076
-0.00271843
-0.00235437
-0.00118389
-0.00176246
0.000259749
0.000141003
-0.000180561
-0.000730272
0.000316265
0.000189169
-0.00306838
-0.00364773
-0.00143507
0.000277436
0.000116024
0.000151565
0.000116164
0.000256846
0.000210132
0.000165288
0.000317829
-0.00038284
-0.000281351
-0.000253761
-0.000220314
-0.000209763
-0.000156711
-0.000232824
-0.000120915
-0.000118818
-6.88911e-05
-0.000123543
-0.000111576
-0.000100451
-0.000107641
-8.49186e-05
-8.39673e-06
-0.000261083
-0.0141062
-0.013815
-0.00235753
-0.00869926
-0.0131568
0.000476335
0.00544192
0.00960652
-0.0120497
-0.0150045
-0.0105728
-0.00586765
-0.00819498
-0.0184078
-0.0170546
0.0151342
-7.94409e-05
-0.000419468
-0.0010436
-9.56163e-05
-0.0036803
-0.00225787
-0.001629
-0.0044087
0.0132751
0.0182835
0.0102974
0.00678218
0.00181768
0.0177094
0.0201079
0.0221571
0.024273
0.0251117
0.0228786
0.022326
-0.00429382
-0.0052254
-0.00329132
-0.00271235
-0.00134191
-0.00171481
0.000277591
0.000350177
0.000191157
-0.000202041
0.000154871
-0.000805238
-0.000410274
0.00129697
-0.00424998
-0.00484753
-0.00238463
0.000315282
0.00013449
0.000123304
0.000122957
0.000257211
0.000209499
0.000176236
0.000347076
-0.000514102
-0.000429034
-0.000226345
-0.000212548
-0.000180694
-0.00010197
-0.000150028
-0.000216097
-8.00247e-05
-6.05982e-05
-6.86487e-05
-4.13067e-05
-6.69902e-05
-9.44632e-05
-6.10351e-06
7.36929e-06
-1.06453e-05
2.28494e-05
0.000115766
-0.000239556
-0.0170304
-0.0158399
-0.00346624
-0.0113559
-0.0080115
-0.0135923
0.00279131
0.00565154
0.0151658
0.011128
-0.013041
-0.0167842
-0.0110457
-0.00544889
-0.00786323
-0.010589
-0.0218111
-0.0197779
-0.0218975
3.1835e-05
3.86017e-05
-0.000329981
0.000134861
-0.00281083
-0.00253302
-0.00106514
-0.00418735
0.0149336
0.019221
0.0118372
0.00717292
0.0042854
0.00453215
0.0203412
0.0226732
0.0244371
0.026695
0.0259531
0.0281513
0.0239638
-0.00503182
-0.00381466
-0.0066512
-0.00337886
-0.00238381
-0.00223198
0.000399426
0.000378522
0.000261258
3.632e-05
0.000212044
-0.00111592
-0.000416211
-0.00164424
-0.0043482
-0.00568036
-0.00416423
0.000385921
0.000287211
0.000126324
0.00012493
0.000232085
0.000277611
0.000190891
0.000153889
0.00043449
-0.000481112
-0.000376432
-0.000190443
-0.000187031
-0.000136157
-0.000119523
-0.00013533
-0.000243989
1.57756e-05
2.99287e-05
3.95126e-06
2.1568e-05
-5.81975e-05
-6.24226e-05
8.77767e-05
8.36964e-05
7.07144e-05
0.00020138
0.000276345
0.000195067
-0.000206055
-0.0197678
-0.0183689
-0.00654295
-0.000811958
-0.0136937
-0.0105808
-0.0179093
0.00226248
0.00606787
0.0156504
0.0111453
-0.0128813
-0.0163952
-0.0127015
-0.0062847
-0.00776697
-0.00911748
-0.0242305
-0.0207916
-0.0223232
0.000369518
0.000208074
0.000352985
5.64427e-05
-0.000644938
-0.000148498
0.000166829
-0.00178488
-0.000849595
-0.00380283
0.0170614
0.0221849
0.0116017
0.00991343
0.00603932
0.000273628
0.0226435
0.0211181
0.0251439
0.0294964
0.0303458
0.0290517
0.0273099
-0.00607972
-0.00458371
-0.00697815
-0.00347413
-0.00306775
-0.00143013
0.000411552
0.000404335
0.000477111
0.000137912
0.000275558
-0.0012695
-0.000326572
-0.000289471
-0.00758487
-0.00757302
-0.00580267
0.000363393
0.000344589
0.000146196
0.00013838
0.000251128
0.000255316
0.000191961
0.000129544
0.000507904
-0.000362747
-0.000185895
-0.000178863
-0.000139331
-9.63031e-05
-0.000106655
-0.000211879
7.90609e-05
5.42785e-05
1.06678e-05
3.99549e-05
6.11918e-05
2.50147e-05
-2.04359e-05
-4.5624e-05
-3.46315e-05
0.00020876
0.000170163
0.000127183
0.000231084
0.000299668
0.000202813
0.00033291
-0.000192568
-0.0201754
-0.018637
-0.0068832
-0.000618387
-0.0141062
-0.0176818
-0.011501
-0.0198935
0.00810376
0.0176423
0.0134917
-0.0169384
-0.0142308
-0.0061829
-0.0041208
-0.0106724
-0.0270347
-0.0284263
-0.0208669
-0.0244099
-0.025487
0.000607504
0.000341253
0.000597848
0.000382284
-7.16437e-05
0.000316554
0.000375215
-0.00176728
-0.00109542
-0.000195031
-0.00274247
0.0156865
0.0225519
0.0149207
0.00791485
0.00359837
0.000102913
0.0257363
0.0208991
0.0286565
0.0318646
0.0310058
0.0325593
0.0281277
-0.00623634
-0.00539816
-0.00860003
-0.00407635
-0.00234491
-0.0032192
-0.00177817
0.000544677
0.000515817
0.000587636
0.000207305
0.000478938
-0.000951808
-0.000217591
-0.00347898
-0.00926375
-0.0103336
-0.00634147
0.000444987
0.000340547
0.000137357
0.000206916
0.000262932
0.000188943
0.000166517
0.000555842
0.000515384
-0.00048658
-0.00016289
-0.000185245
-0.000129043
-0.00012584
-0.000106404
-9.44768e-05
-0.000182801
0.000149397
9.4194e-05
2.551e-05
4.57322e-05
6.37815e-05
8.18542e-05
9.04954e-06
-2.68746e-05
4.24766e-06
0.000233587
0.000184576
0.00014916
0.000180757
0.000422259
0.00050922
0.000351324
0.000357825
-0.000323452
-0.000179605
-0.0225763
-0.00809924
-0.00160568
-0.0165882
-0.0187301
-0.0124809
-0.0225062
0.00589426
0.0177359
0.0139699
-0.0190188
-0.0147244
-0.012462
-0.00695275
-0.00422778
-0.00984361
-0.0284786
-0.0294585
-0.0253367
-0.0257105
-0.0256272
0.000668705
0.000411017
0.000778929
0.000587837
0.00078543
0.000386269
0.000748717
0.000412176
-0.000951127
-0.00201397
-0.000516307
0.000205311
-0.00253952
0.0201266
0.0251752
0.0129187
0.00895959
0.00160862
0.00294013
-0.00224139
0.0251859
0.0264461
0.0316333
0.0318502
0.0341035
0.035936
0.0344392
-0.00775459
-0.00633176
-0.00976009
-0.00916027
-0.00551504
-0.0024019
-0.00373921
-0.00122885
0.00065027
0.000604721
0.000810818
0.000470873
0.00061369
-0.000511605
0.000121847
-0.0110122
-0.0098287
-0.0107956
-0.00801208
0.000432774
0.000288499
0.000364732
0.000174441
0.000220499
0.000242782
0.000180967
0.000147953
0.000684784
0.000577821
-0.000158845
-0.000176111
-0.000136603
-0.000102759
-8.92999e-05
-5.00153e-05
-0.000155975
0.000170759
0.00016833
0.000138728
2.93998e-05
4.92571e-05
0.000103614
9.41642e-05
7.88279e-05
2.08807e-05
-2.40203e-05
-6.83067e-06
4.30934e-05
0.000304933
0.000291008
0.000225381
0.000258678
0.00045219
0.000534707
0.00034424
0.000323854
0.000518496
-0.000448588
-0.000159757
-0.0270753
-0.0083651
0.00286624
-0.00588726
-0.0169725
-0.0225875
-0.0147718
-0.026834
0.0103323
0.0199281
0.0181356
-0.0197459
-0.0163233
-0.0121539
-0.00502076
-0.0072874
-0.0118935
-0.0299508
-0.0310507
-0.0315041
-0.024798
-0.0285189
-0.0312695
0.00106743
0.000597533
0.00101705
0.000914728
0.00104465
0.000725093
0.000824131
0.000678155
0.000102609
-0.00054982
-0.00151631
0.000126392
0.000821209
-0.00242384
0.0180316
0.0251746
0.015149
0.0092791
-0.000481574
0.00421834
-0.003274
0.0320917
0.0271675
0.0349012
0.0382591
0.0373824
0.0355258
0.0367462
0.0377383
-0.00753362
-0.0115631
-0.0105791
-0.00564183
-0.00206402
-0.00391414
-0.00118547
0.000691075
0.000861078
0.000905388
0.00064427
0.000867983
-0.000580459
0.000622156
-0.0142148
-0.0101123
-0.0144243
-0.00790258
-0.00826365
0.000387376
0.000470777
0.000303271
0.000312998
0.000158452
0.000200646
0.000243732
0.000168596
0.000124736
0.000776524
0.000599074
-0.000154756
-0.000180119
-0.00011382
-9.07203e-05
-7.18358e-05
-4.68696e-05
-0.00014161
0.000174158
0.000240371
0.000176584
2.87208e-05
6.99209e-05
3.21801e-05
0.000153375
0.000133149
0.00012742
5.33229e-05
-1.21083e-05
5.79727e-06
4.48867e-05
0.000339274
0.000304253
0.000262067
0.000258053
0.000643284
0.000655321
0.000414232
0.000412163
0.000523536
-0.000305747
-0.0267931
-0.00774897
-0.0120541
0.00361142
-0.00118008
-0.0196597
-0.0232523
-0.0179465
-0.0275509
0.0116408
0.0240369
0.0196502
-0.02212
-0.0169158
-0.0160329
-0.00462906
-0.00728319
-0.0119545
-0.0344318
-0.0353895
-0.0352991
-0.0271086
-0.0303867
-0.0308512
0.00112981
0.00094204
0.000889365
0.00107084
0.00100129
0.00140674
0.000998034
0.00156498
0.000704551
0.000828323
0.000704449
-0.000675854
0.00110716
0.000973726
-0.0022795
0.0214379
0.0294784
0.0147846
0.0101481
-0.000462658
-0.00443434
0.00358755
0.0314333
0.0282131
0.0388145
0.0412696
0.0413438
0.0391877
0.0432079
0.0315356
0.0387851
-0.00738155
-0.0128111
-0.0105405
-0.0049129
-0.00811028
-0.00196032
-0.00389716
-0.000714346
0.000838434
0.000895764
0.00097749
0.00110318
0.00108674
0.000384609
0.0010057
-0.0125899
-0.0144835
-0.0163974
-0.00838063
-0.0106173
0.000387285
0.000530634
0.000252297
0.000326971
0.000204236
0.000193608
0.000217459
0.000175128
9.30991e-05
0.000800962
0.000678459
-0.000122328
-0.000181592
-9.83572e-05
-0.00010269
-6.84635e-05
-6.11167e-05
-2.54853e-05
-0.000153915
0.00020194
0.000191491
0.000186942
6.1173e-05
7.71416e-05
0.000101175
0.000158219
0.000165625
0.000138263
6.93047e-05
-5.1908e-08
7.29554e-06
3.18222e-05
6.15734e-05
0.000423344
0.000380554
0.000376645
0.000337936
0.000670384
0.000756173
0.000787322
0.000461577
0.000426294
0.0004986
0.000581724
-0.00048601
-0.0313368
-0.0115664
-0.0149022
0.00875982
0.00257343
-0.00589956
-0.0196134
-0.0231958
-0.0255205
-0.0180704
-0.0318601
0.0185361
0.0242904
-0.0220481
-0.0198864
-0.0161859
-0.0047433
-0.00252494
-0.0099513
-0.00605396
-0.012278
-0.0339295
-0.0350472
-0.038184
-0.0348249
-0.0360793
-0.0266434
-0.0335687
-0.0324749
0.00137517
0.00117238
0.000903815
0.0012639
0.00124918
0.00147743
0.00140054
0.00166331
0.000841082
0.00140638
0.000896674
-0.000197002
0.00130103
0.00172984
-0.00116418
0.0209883
0.0277711
0.0166393
0.00858674
-0.0030061
-0.00603509
0.000477801
0.0335942
0.0291124
0.0414746
0.045458
0.0454618
0.0426519
0.0439652
0.0350534
0.044701
-0.0147788
-0.011389
-0.00524972
-0.00791207
-0.0032774
-0.00109567
-0.00419045
-0.000643192
0.000991249
0.00106574
0.00124392
0.00133645
0.00114772
0.000618351
0.00150805
-0.0135704
-0.0172264
-0.0168713
-0.00815552
-0.0126619
0.000420897
0.000381029
0.000555124
0.000458518
0.000252063
0.00032261
0.000168966
0.000196218
0.000204511
0.000170476
0.00014793
0.000786204
0.000963646
0.000678818
-0.000124728
-0.000167315
-0.00014722
-7.63017e-05
-0.00010514
-6.55704e-05
-3.49509e-05
-2.02917e-05
-0.000251145
0.000270659
0.000263058
0.000214909
9.76787e-05
9.83752e-05
4.8252e-05
0.000106176
0.000160473
0.000133886
3.88641e-05
7.45153e-06
1.54781e-05
4.9081e-05
7.50867e-05
3.65308e-05
0.000474101
0.000445744
0.000364301
0.000357531
0.000352226
0.000754538
0.000856301
0.000776119
0.000533656
0.000537769
0.000555244
0.000478711
-0.0330545
-0.0163967
-0.0101371
0.011398
-0.000244448
-0.00430493
-0.020848
-0.0248439
-0.0295478
-0.0185735
-0.0338608
0.0166702
0.0249194
-0.0251884
-0.0178396
-0.0124216
-0.00312646
-0.00220226
-0.00896396
-0.00712804
-0.0120464
-0.0398257
-0.0381609
-0.0402575
-0.0369146
-0.0406229
-0.0272018
-0.0328467
-0.0332819
-0.0355028
0.00121077
0.00159439
0.00102241
0.00145207
0.00149749
0.00209574
0.00173491
0.0020739
0.00214605
0.00167435
0.00175907
0.000500072
0.00197303
0.00204512
0.000194686
0.0234651
0.0302552
0.0163559
0.0109595
-0.00655497
-0.00293932
6.97015e-05
0.0044931
0.0371252
0.0331382
0.0415723
0.0481071
0.0479791
0.0476238
0.04722
0.0484918
0.0397316
0.0494198
0.0445059
-0.0139169
-0.0177018
-0.0100732
-0.00626817
-0.00209536
-0.00104264
-0.00329801
5.16915e-05
0.00100557
0.00108961
0.00129432
0.0014888
0.001698
0.00131043
0.00192973
-0.0172677
-0.0172508
-0.0189546
-0.0193628
-0.0192263
-0.0116001
-0.0142419
0.000447402
0.000371102
0.000595906
0.000515555
0.000274436
0.000233683
0.000298046
0.000160859
0.000190655
0.000200673
0.000168849
0.000158236
0.000843111
0.000964688
0.000714858
-0.000108341
-0.000139218
-0.000139981
-7.54641e-05
-7.55182e-05
-9.64167e-05
-5.69604e-05
-3.44124e-05
-6.89392e-06
-0.00037218
0.000253285
0.000180842
0.000161541
0.000105538
0.000118932
0.000182285
0.000175762
0.000165787
0.000183776
3.3311e-05
1.06999e-05
4.98827e-05
2.62175e-05
6.58017e-05
0.000106116
0.000557797
0.000471722
0.000311817
0.000349643
0.000993619
0.000867459
0.0010321
0.000582262
0.000624732
0.00037864
0.00108879
-0.0358464
-0.0170603
-0.0148159
0.016414
0.0109638
0.000596364
-0.00360463
-0.0236169
-0.0303615
-0.0232482
-0.0350061
0.024874
-0.023526
-0.0189325
-0.014589
-0.00436377
-0.00188321
-0.0075109
-0.00471005
-0.0108731
-0.0388168
-0.0399768
-0.0427791
-0.0448315
-0.0399282
-0.037299
-0.0416738
-0.0297572
-0.0336622
-0.0386841
0.00127131
0.00165398
0.000984957
0.00181905
0.0017632
0.00238141
0.00186592
0.00227038
0.00230725
0.00285071
0.00237771
0.00189236
0.00188654
0.00253184
0.000293375
0.0223294
0.0275421
0.00896036
-0.00928088
-0.0059838
-0.00419165
0.00364693
0.0379593
0.0346071
0.0467533
0.0524915
0.052916
0.0522098
0.0509897
0.056021
0.0389278
0.0544485
0.0502323
-0.0152593
-0.0176496
-0.0102431
-0.00633597
-0.00318391
0.000349749
-0.00478525
0.000359762
0.00115916
0.00141116
0.00123705
0.00171427
0.00166005
0.00178618
0.0017302
0.00200655
-0.0185758
-0.0214738
-0.0216904
-0.0216158
-0.0196857
-0.0136781
-0.0113128
-0.0165274
0.000430328
0.000368721
0.000666054
0.000549963
0.00043917
0.000250936
0.000215503
0.000287008
0.000177477
0.000180924
0.000151891
0.000250943
0.000860581
0.00108614
0.000763486
-0.000106056
-0.000131885
-0.000124263
-4.79189e-05
-6.87691e-05
-8.20198e-05
-4.46936e-05
-3.28574e-05
-7.39244e-06
7.95423e-06
-0.000249837
0.000343526
0.00030228
0.000166636
8.85836e-05
0.000111697
0.000106524
7.48293e-05
0.000173564
0.000172883
3.35576e-05
2.6958e-05
4.71794e-05
5.74125e-05
7.56783e-05
5.17853e-05
0.00061862
0.000558699
0.000449161
0.000309922
0.000368223
0.00103829
0.000881055
0.00103285
0.000594577
0.000571673
0.000622134
0.00102381
-0.0387876
-0.0179317
-0.0232667
-0.015408
0.0212219
0.0101162
0.00505005
-0.00284455
-0.0165398
-0.0254261
-0.033379
-0.0398822
-0.0358925
0.0256773
-0.0194242
-0.0249201
-0.0149751
-0.0114875
-0.00160956
0.000224526
-0.00881776
-0.00385798
-0.0447409
-0.0448591
-0.0460353
-0.0459444
-0.0421881
-0.0402456
-0.0447984
-0.0299472
-0.0354756
-0.0390193
0.00129091
0.00171401
0.00169958
0.00191053
0.00195336
0.00182161
0.00270698
0.00270414
0.00335883
0.00288259
0.00215434
0.0035148
0.00158278
0.0027776
0.002729
0.000598938
0.0193387
0.0291193
0.0119222
-0.00887548
-0.00693718
-0.00582506
-0.000664003
0.00924179
0.0430861
0.0386789
0.0429287
0.0515438
0.0565937
0.0583551
0.0557625
0.0571613
0.0573957
0.0488193
0.0343937
0.0600228
0.0502663
-0.0149957
-0.0199381
-0.0136125
-0.00837982
-0.00207166
-0.00113714
0.000432928
-0.00469391
0.00122948
0.00118106
0.00154503
0.00137694
0.00188101
0.00173843
0.00243768
0.00233592