/*--------------------------------*- C++ -*----------------------------------*\
| =========                 |                                                 |
| \\      /  F ield         | OpenFOAM: The Open Source CFD Toolbox           |
|  \\    /   O peration     | Version:  v2012                                 |
|   \\  /    A nd           | Website:  www.openfoam.com                      |
|    \\/     M anipulation  |                                                 |
\*---------------------------------------------------------------------------*/
FoamFile
{
    version     2.0;
    format      ascii;
    class       pointVectorField;
    location    "0.35";
    object      pointDisplacement;
}
// * * * * * * * * * * * * * * * * * * * * * * * * * * * * * * * * * * * * * //

dimensions      [0 1 0 0 0 0 0];


internalField   nonuniform List<vector> 
14482
(
(0 0 0)
(0 0 0)
(0 0 0)
(0 0 0)
(0 0 0)
(0 0 0)
(0 0 0)
(0 0 0)
(0 0 0)
(0 0 0)
(0 0 0)
(0 0 0)
(0 0 0)
(0 0 0)
(0 0 0)
(0 0 0)
(0 0 0)
(0 0 0)
(0 0 0)
(0 0 0)
(0 0 0)
(0 0 0)
(0 0 0)
(0 0 0)
(0 0 0)
(0 0 0)
(0 0 0)
(0 0 0)
(0 0 0)
(0 0 0)
(0 0 0)
(0 0 0)
(0 0 0)
(0 0 0)
(0 0 0)
(0 0 0)
(0 0 0)
(0 0 0)
(0 0 0)
(0 0 0)
(0 0 0)
(0 0 0)
(0 0 0)
(0 0 0)
(0 0 0)
(0 0 0)
(0 0 0)
(0 0 0)
(0 0 0)
(0 0 0)
(0 0 0)
(0 0 0)
(0 0 0)
(0 0 0)
(0 0 0)
(0 0 0)
(0 0 0)
(0 0 0)
(0 0 0)
(0 0 0)
(0 0 0)
(0 0 0)
(0 0 0)
(0 0 0)
(0 0 0)
(0 0 0)
(0 0 0)
(0 0 0)
(0 0 0)
(0 0 0)
(0 0 0)
(0 0 0)
(0 0 0)
(0 0 0)
(0 0 0)
(0 0 0)
(0 0 0)
(0 0 0)
(0 0 0)
(0 0 0)
(0 0 0)
(0 0 0)
(0 0 0)
(0.0686958 -0.17213 0)
(0.0688845 -0.172012 0)
(0.0690877 -0.171886 0)
(0.0693066 -0.171749 0)
(0.0695423 -0.171602 0)
(0.0697962 -0.171444 0)
(0.0700696 -0.171273 0)
(0.0703639 -0.17109 0)
(0.0706808 -0.170892 0)
(0.071022 -0.170679 0)
(0.0713894 -0.17045 0)
(0.0717848 -0.170203 0)
(0.0722104 -0.169938 0)
(0.0725942 -0.16956 0)
(0.0730003 -0.169144 0)
(0.0734373 -0.168697 0)
(0.0738618 -0.168177 0)
(0.074307 -0.167606 0)
(0.0747479 -0.166966 0)
(0.0752012 -0.166263 0)
(0.0756461 -0.165481 0)
(0.0760871 -0.16462 0)
(0.0765232 -0.163677 0)
(0.0769501 -0.162644 0)
(0.0773652 -0.161518 0)
(0.0777592 -0.160291 0)
(0.0781362 -0.158959 0)
(0.0784889 -0.157515 0)
(0.0788162 -0.155954 0)
(0.0791126 -0.154268 0)
(0.0793744 -0.152452 0)
(0.0795991 -0.150496 0)
(0.0797822 -0.148395 0)
(0.0799195 -0.14614 0)
(0.0800059 -0.143722 0)
(0.0800371 -0.141132 0)
(0.0800083 -0.138361 0)
(0.0799144 -0.135401 0)
(0.0797498 -0.13224 0)
(0.0795088 -0.128868 0)
(0.0791846 -0.125275 0)
(0.0787713 -0.121451 0)
(0.0782619 -0.117383 0)
(0.0776491 -0.113061 0)
(0.0769256 -0.108474 0)
(0.0760837 -0.103611 0)
(0.0751153 -0.0984599 0)
(0.0740121 -0.0930109 0)
(0.072766 -0.0872535 0)
(0.0713685 -0.0811775 0)
(0.0698109 -0.0747736 0)
(0.0680851 -0.0680336 0)
(0.0661822 -0.0609493 0)
(0.0640948 -0.0535147 0)
(0.0618149 -0.0457244 0)
(0.0593355 -0.0375747 0)
(0.0566496 -0.0290628 0)
(0.0537524 -0.0201899 0)
(0.0506382 -0.0109558 0)
(0.0473037 -0.00136502 0)
(0.0437464 0.00857665 0)
(0.0399653 0.0188608 0)
(0.0359607 0.0294772 0)
(0.031735 0.0404117 0)
(0.0272916 0.0516496 0)
(0.0226365 0.0631717 0)
(0.0177772 0.0749572 0)
(0.0127225 0.0869839 0)
(0.00748433 0.0992248 0)
(0.00207482 0.111654 0)
(-0.00349115 0.12424 0)
(-0.00919771 0.136953 0)
(-0.0150273 0.14976 0)
(-0.0209618 0.162629 0)
(-0.0269813 0.175522 0)
(-0.0330663 0.188407 0)
(-0.0391958 0.201249 0)
(-0.0453498 0.214013 0)
(-0.0515075 0.226666 0)
(-0.0576485 0.239175 0)
(-0.0637536 0.251509 0)
(-0.069804 0.263639 0)
(-0.0757817 0.275537 0)
(-0.08167 0.287177 0)
(-0.0874537 0.298538 0)
(-0.0931188 0.309599 0)
(-0.0986526 0.320341 0)
(-0.104044 0.330751 0)
(-0.109283 0.340815 0)
(-0.114362 0.350524 0)
(-0.119275 0.359871 0)
(-0.124015 0.36885 0)
(-0.12858 0.37746 0)
(-0.132966 0.3857 0)
(-0.137173 0.393572 0)
(-0.141199 0.401078 0)
(-0.145047 0.408226 0)
(-0.148717 0.41502 0)
(-0.152211 0.42147 0)
(-0.155534 0.427583 0)
(-0.158688 0.433369 0)
(-0.161679 0.43884 0)
(-0.164511 0.444006 0)
(-0.167188 0.448878 0)
(-0.169717 0.453468 0)
(-0.172103 0.457789 0)
(-0.174351 0.461852 0)
(-0.176468 0.46567 0)
(-0.17846 0.469254 0)
(-0.180331 0.472615 0)
(-0.182087 0.475765 0)
(-0.183736 0.478717 0)
(-0.185281 0.481479 0)
(-0.186729 0.484063 0)
(-0.188085 0.48648 0)
(-0.189353 0.488737 0)
(-0.19054 0.490847 0)
(-0.191648 0.492816 0)
(-0.192684 0.494653 0)
(-0.193651 0.496367 0)
(-0.194554 0.497966 0)
(-0.195396 0.499455 0)
(-0.196182 0.500844 0)
(-0.196914 0.502137 0)
(-0.197596 0.503341 0)
(-0.198232 0.504463 0)
(-0.198825 0.505507 0)
(-0.199377 0.506479 0)
(-0.19989 0.507383 0)
(-0.200368 0.508223 0)
(-0.200813 0.509006 0)
(-0.201226 0.509733 0)
(-0.201611 0.510409 0)
(-0.201969 0.511038 0)
(-0.202302 0.511622 0)
(-0.202611 0.512166 0)
(-0.202899 0.51267 0)
(-0.203166 0.513139 0)
(-0.203415 0.513575 0)
(-0.203646 0.51398 0)
(-0.20386 0.514355 0)
(-0.20406 0.514705 0)
(-0.204245 0.51503 0)
(-0.204417 0.515331 0)
(-0.204576 0.51561 0)
(-0.204725 0.51587 0)
(-0.204863 0.516111 0)
(-0.204991 0.516336 0)
(-0.20511 0.516544 0)
(-0.20522 0.516737 0)
(-0.205426 0.516654 0)
(-0.205609 0.516581 0)
(-0.205776 0.516515 0)
(-0.205934 0.516452 0)
(-0.206087 0.51639 0)
(-0.206241 0.516329 0)
(-0.206398 0.516266 0)
(-0.206566 0.5162 0)
(-0.206748 0.516127 0)
(-0.206955 0.516044 0)
(-0.206902 0.515828 0)
(-0.206845 0.515596 0)
(-0.206783 0.515345 0)
(-0.206717 0.515075 0)
(-0.206646 0.514784 0)
(-0.206569 0.514472 0)
(-0.206487 0.514135 0)
(-0.206397 0.513772 0)
(-0.206301 0.513381 0)
(-0.206198 0.512961 0)
(-0.206087 0.512508 0)
(-0.205967 0.512021 0)
(-0.205838 0.511497 0)
(-0.205699 0.510933 0)
(-0.205549 0.510326 0)
(-0.205389 0.509673 0)
(-0.205215 0.508971 0)
(-0.205029 0.508216 0)
(-0.204828 0.507403 0)
(-0.204612 0.506529 0)
(-0.20438 0.505591 0)
(-0.20413 0.504582 0)
(-0.203861 0.503498 0)
(-0.203571 0.502332 0)
(-0.20326 0.501081 0)
(-0.202926 0.499738 0)
(-0.202567 0.498296 0)
(-0.202181 0.496747 0)
(-0.201766 0.495088 0)
(-0.20132 0.493307 0)
(-0.200841 0.491398 0)
(-0.200327 0.489352 0)
(-0.199776 0.487161 0)
(-0.199184 0.484814 0)
(-0.198549 0.482303 0)
(-0.197868 0.479618 0)
(-0.197139 0.476746 0)
(-0.196358 0.473679 0)
(-0.195521 0.470404 0)
(-0.194626 0.46691 0)
(-0.193669 0.463184 0)
(-0.192646 0.459214 0)
(-0.191552 0.454987 0)
(-0.190385 0.450493 0)
(-0.18914 0.445716 0)
(-0.187814 0.440647 0)
(-0.186401 0.435269 0)
(-0.184898 0.429573 0)
(-0.1833 0.423547 0)
(-0.181604 0.417178 0)
(-0.179804 0.410457 0)
(-0.177898 0.403374 0)
(-0.175882 0.39592 0)
(-0.17375 0.388087 0)
(-0.171502 0.379871 0)
(-0.169133 0.371266 0)
(-0.16664 0.36227 0)
(-0.164023 0.352883 0)
(-0.161278 0.343107 0)
(-0.158406 0.332947 0)
(-0.155404 0.322409 0)
(-0.152274 0.311502 0)
(-0.149017 0.300241 0)
(-0.145634 0.28864 0)
(-0.142127 0.276718 0)
(-0.138499 0.264497 0)
(-0.134754 0.252001 0)
(-0.130898 0.239257 0)
(-0.126934 0.226294 0)
(-0.122869 0.213146 0)
(-0.11871 0.199846 0)
(-0.114464 0.18643 0)
(-0.110138 0.172936 0)
(-0.105742 0.159403 0)
(-0.101283 0.145869 0)
(-0.0967712 0.132374 0)
(-0.0922151 0.118955 0)
(-0.0876249 0.105654 0)
(-0.08301 0.0925048 0)
(-0.0783805 0.0795445 0)
(-0.0737461 0.0668064 0)
(-0.0691168 0.0543225 0)
(-0.0645019 0.0421202 0)
(-0.0599114 0.0302275 0)
(-0.0553541 0.0186663 0)
(-0.050839 0.00745703 0)
(-0.046375 -0.00338229 0)
(-0.0419696 -0.0138388 0)
(-0.0376308 -0.0239004 0)
(-0.0333656 -0.0335595 0)
(-0.0291804 -0.0428108 0)
(-0.025081 -0.0516517 0)
(-0.0210729 -0.0600813 0)
(-0.0171601 -0.0681035 0)
(-0.013347 -0.075721 0)
(-0.00963664 -0.0829404 0)
(-0.00603162 -0.0897692 0)
(-0.00253388 -0.0962171 0)
(0.000855119 -0.102293 0)
(0.00413476 -0.10801 0)
(0.00730467 -0.113379 0)
(0.0103651 -0.118412 0)
(0.0133168 -0.123123 0)
(0.0161609 -0.127525 0)
(0.0188989 -0.131632 0)
(0.0215325 -0.135457 0)
(0.0240636 -0.139013 0)
(0.026495 -0.142314 0)
(0.0288286 -0.145372 0)
(0.0310672 -0.148201 0)
(0.0332138 -0.150812 0)
(0.0352709 -0.153218 0)
(0.0372414 -0.155429 0)
(0.0391279 -0.157458 0)
(0.0409336 -0.159315 0)
(0.0426612 -0.161009 0)
(0.0443136 -0.16255 0)
(0.0458932 -0.163948 0)
(0.0474023 -0.165211 0)
(0.0488431 -0.166349 0)
(0.0502186 -0.167367 0)
(0.0515308 -0.168274 0)
(0.0527806 -0.169078 0)
(0.0539711 -0.169784 0)
(0.055102 -0.170403 0)
(0.0561784 -0.170934 0)
(0.0571987 -0.171389 0)
(0.0581646 -0.171773 0)
(0.059077 -0.172093 0)
(0.0599381 -0.172354 0)
(0.0607509 -0.172552 0)
(0.0615117 -0.172713 0)
(0.0622272 -0.17282 0)
(0.0628936 -0.172905 0)
(0.0635182 -0.172929 0)
(0.0640988 -0.17295 0)
(0.0646374 -0.17296 0)
(0.0651288 -0.172859 0)
(0.0655854 -0.172766 0)
(0.0660096 -0.172679 0)
(0.0664036 -0.172599 0)
(0.0667696 -0.172524 0)
(0.0671094 -0.172454 0)
(0.0674251 -0.17239 0)
(0.0677183 -0.17233 0)
(0.0679905 -0.172274 0)
(0.0682432 -0.172223 0)
(0.0684779 -0.172175 0)
(-0.0109223 0.0932398 0)
(-0.0142225 0.105824 0)
(-0.0136344 0.101517 0)
(-0.0177743 0.112246 0)
(-0.0150253 0.102001 0)
(-0.0145443 0.102599 0)
(-0.024582 0.122239 0)
(-0.0234357 0.120223 0)
(-0.0272439 0.131448 0)
(-0.00498013 0.0633143 0)
(-0.00240201 0.0563955 0)
(-0.00504089 0.0665643 0)
(-0.0116799 0.115679 0)
(-0.0108995 0.116167 0)
(-0.017622 0.13507 0)
(-0.00446854 0.0701359 0)
(-0.00229292 0.0662358 0)
(-0.00562583 0.0764873 0)
(-0.0297544 0.157313 0)
(-0.0294495 0.157431 0)
(-0.0312828 0.162196 0)
(-0.0267946 0.147281 0)
(-0.0256292 0.145268 0)
(-0.0281762 0.152123 0)
(-0.0395321 0.172906 0)
(-0.045647 0.190041 0)
(-0.0441724 0.184127 0)
(-0.0134359 0.0862486 0)
(-0.0153656 0.0937621 0)
(-0.0148339 0.09036 0)
(0.000415134 0.049388 0)
(0.00221242 0.047992 0)
(-0.00134944 0.0589957 0)
(-0.00549552 0.0979264 0)
(-0.00626489 0.104335 0)
(-0.0269589 0.157822 0)
(-0.0226048 0.144193 0)
(-0.0218362 0.143549 0)
(0.00179652 0.059362 0)
(0.00605201 0.046126 0)
(0.00357698 0.0570914 0)
(-0.0318655 0.164622 0)
(-0.0335056 0.168996 0)
(-0.0332886 0.167734 0)
(-0.0359845 0.170242 0)
(-0.0385924 0.178166 0)
(-0.0391589 0.178322 0)
(-0.0244891 0.131394 0)
(-0.0254556 0.132259 0)
(-0.0221595 0.122285 0)
(-0.0096651 0.0588797 0)
(-0.0100253 0.0591555 0)
(-0.00880455 0.0545373 0)
(-0.000117493 0.0328426 0)
(-0.0017522 0.040123 0)
(-0.00146 0.0353341 0)
(-0.00320869 0.0436792 0)
(0.00304116 0.0256959 0)
(0.00376269 0.0198038 0)
(0.00458776 0.0199953 0)
(0.0103893 0.0519998 0)
(0.00802085 0.0560195 0)
(0.0119178 0.0413739 0)
(-0.00637029 0.114576 0)
(-0.0112774 0.1266 0)
(-0.00472345 0.106459 0)
(-0.0531962 0.228696 0)
(-0.051298 0.22348 0)
(-0.0467004 0.212301 0)
(0.00788392 0.0121199 0)
(0.0100984 0.00571115 0)
(0.00832843 0.0153161 0)
(0.0227889 -0.0129957 0)
(0.0238957 -0.0104232 0)
(0.0211801 -0.00367043 0)
(-0.0347609 0.17305 0)
(-0.0342296 0.172131 0)
(-0.0344503 0.172403 0)
(-0.0338967 0.169429 0)
(-0.0350352 0.172025 0)
(-0.0347519 0.171654 0)
(-0.0533435 0.217894 0)
(-0.0487747 0.206922 0)
(-0.0553957 0.223797 0)
(-0.0883046 0.302843 0)
(-0.0784232 0.280285 0)
(-0.0864013 0.299511 0)
(-0.0660002 0.242818 0)
(-0.065414 0.24292 0)
(-0.0718551 0.257867 0)
(-0.0506987 0.186699 0)
(-0.0471565 0.179509 0)
(-0.0526759 0.193916 0)
(-0.0379754 0.15821 0)
(-0.038844 0.158187 0)
(-0.0352 0.149106 0)
(-0.0166208 0.0894518 0)
(-0.0152569 0.0860295 0)
(-0.0176023 0.0940492 0)
(-0.00472873 0.0479202 0)
(-0.0064299 0.0530154 0)
(-0.00470747 0.0450271 0)
(0.000943529 0.0183525 0)
(7.37005e-05 0.0228787 0)
(0.00031416 0.0192968 0)
(0.00427933 0.0121921 0)
(0.00315758 0.0159724 0)
(0.00360013 0.0115099 0)
(0.00743731 -0.00139323 0)
(0.00610237 0.00302582 0)
(0.00619197 -0.00157733 0)
(0.010377 0.0634537 0)
(0.0179773 0.0436472 0)
(0.0116107 0.066506 0)
(-0.0482311 0.218334 0)
(-0.0399558 0.198386 0)
(-0.0468029 0.215614 0)
(0.00438265 0.0864398 0)
(-0.00290406 0.109719 0)
(-0.00222536 0.104901 0)
(-0.0451038 0.2089 0)
(-0.0392225 0.194706 0)
(-0.0476866 0.21626 0)
(-0.0448063 0.204535 0)
(-0.0511917 0.220967 0)
(-0.0458444 0.206575 0)
(0.0251268 -0.0411496 0)
(0.0227568 -0.0385631 0)
(0.0252909 -0.0450937 0)
(0.0376064 -0.0556638 0)
(0.0405251 -0.0535606 0)
(0.0369746 -0.0457716 0)
(-0.0368465 0.180461 0)
(-0.0395392 0.187822 0)
(-0.0375667 0.182076 0)
(-0.0525858 0.224138 0)
(-0.0580578 0.238132 0)
(-0.0534089 0.220652 0)
(-0.0579309 0.232449 0)
(-0.0601546 0.237989 0)
(-0.104083 0.340632 0)
(-0.0928288 0.316281 0)
(-0.0982727 0.329051 0)
(-0.0670146 0.240923 0)
(-0.0661876 0.241256 0)
(-0.07219 0.254651 0)
(-0.0512157 0.194001 0)
(-0.0569925 0.210116 0)
(-0.0557597 0.203954 0)
(-0.0346988 0.130914 0)
(-0.0358172 0.130166 0)
(-0.0305421 0.11658 0)
(-0.0144301 0.0752106 0)
(-0.0136006 0.0732723 0)
(-0.0151254 0.0788246 0)
(-0.00662419 0.0448487 0)
(-0.00668458 0.044104 0)
(-0.00616731 0.0422545 0)
(-0.00338421 0.0337957 0)
(-0.00281285 0.0329706 0)
(-0.00376752 0.0372229 0)
(-0.00473506 0.0423348 0)
(-0.00361936 0.0387848 0)
(0.000850084 0.0242511 0)
(1.51259e-05 0.0294124 0)
(-0.000343774 0.0278174 0)
(0.00212025 0.0044123 0)
(0.00265684 0.00597795 0)
(0.00211907 0.00621959 0)
(0.000634696 0.0225048 0)
(0.0180782 0.049646 0)
(0.0113881 0.0722964 0)
(0.0306404 0.0126419 0)
(0.0248511 0.031238 0)
(0.0287537 0.0113278 0)
(-0.0542568 0.233506 0)
(-0.0507605 0.225625 0)
(-0.0447916 0.212181 0)
(-0.034238 0.190273 0)
(-0.0285497 0.177778 0)
(-0.0350768 0.192311 0)
(-0.0552642 0.235127 0)
(-0.0574027 0.236968 0)
(-0.066108 0.258183 0)
(-0.0634079 0.251453 0)
(0.0385973 -0.0825847 0)
(0.0351533 -0.0786837 0)
(0.0369088 -0.0854538 0)
(0.0326652 -0.0516643 0)
(0.0326441 -0.057603 0)
(0.0355674 -0.0595861 0)
(0.0394657 -0.0764277 0)
(0.0432637 -0.0832341 0)
(0.0426314 -0.0754612 0)
(-0.062542 0.247095 0)
(-0.0568487 0.232683 0)
(-0.055312 0.2293 0)
(-0.0357578 0.175913 0)
(-0.0384585 0.183564 0)
(-0.037916 0.181617 0)
(-0.0673902 0.259274 0)
(-0.0707449 0.267637 0)
(-0.0763205 0.280019 0)
(-0.0359593 0.175781 0)
(-0.0373655 0.179142 0)
(-0.0374904 0.179534 0)
(-0.0595033 0.236575 0)
(-0.0554462 0.22498 0)
(-0.0619779 0.241901 0)
(-0.105834 0.343007 0)
(-0.114034 0.35874 0)
(-0.106147 0.342282 0)
(-0.103819 0.325311 0)
(-0.106766 0.328013 0)
(-0.0972226 0.30909 0)
(-0.0800057 0.250539 0)
(-0.0812945 0.25826 0)
(-0.0853316 0.265462 0)
(-0.0529251 0.190187 0)
(-0.0577306 0.200667 0)
(-0.0519712 0.184721 0)
(-0.0570298 0.204765 0)
(-0.0552436 0.198095 0)
(-0.0333333 0.130197 0)
(-0.0377742 0.142255 0)
(-0.0202534 0.0855574 0)
(-0.0173102 0.0759536 0)
(-0.0180263 0.0799216 0)
(-0.00606783 0.0408925 0)
(-0.00557845 0.0395111 0)
(-0.00183627 0.0299665 0)
(-0.00186772 0.0270533 0)
(-0.00559147 0.0414279 0)
(-0.00481282 0.0374226 0)
(-0.00514391 0.0406597 0)
(0.000705248 0.015413 0)
(0.0011143 0.0122604 0)
(0.00142118 0.0138695 0)
(0.0051827 0.00265762 0)
(0.00286742 0.00383279 0)
(0.00159771 0.0101668 0)
(0.00129097 0.00769492 0)
(0.00174967 0.00732325 0)
(0.00912908 -0.0241455 0)
(0.00780861 -0.0245356 0)
(0.0103834 -0.0283154 0)
(0.0236353 0.0415715 0)
(0.0173387 0.0578954 0)
(0.0174224 0.0628831 0)
(0.0230692 0.0476161 0)
(0.0484809 -0.0463786 0)
(0.0442766 -0.0413961 0)
(0.0477372 -0.0576081 0)
(-0.0613385 0.248723 0)
(-0.0606133 0.247048 0)
(-0.0653573 0.256859 0)
(-0.0544209 0.233548 0)
(-0.048538 0.221021 0)
(-0.0407565 0.204249 0)
(-0.0443409 0.21211 0)
(-0.0252495 0.17072 0)
(-0.0226191 0.164333 0)
(-0.0675485 0.262403 0)
(-0.0749722 0.278098 0)
(-0.0662549 0.259596 0)
(-0.0926334 0.314202 0)
(-0.0904386 0.309426 0)
(-0.0986591 0.324794 0)
(-0.0740861 0.276831 0)
(-0.0765048 0.282083 0)
(-0.0864377 0.303862 0)
(-0.0875038 0.306199 0)
(-0.0802245 0.290209 0)
(0.0126866 -0.0261401 0)
(0.0121229 -0.0213303 0)
(0.0109792 -0.0227087 0)
(0.0267743 -0.0565665 0)
(0.0260847 -0.0611931 0)
(0.0293812 -0.0667808 0)
(0.0304681 -0.0624311 0)
(0.0330949 -0.0642914 0)
(0.0310393 -0.0586171 0)
(0.0370427 -0.0676307 0)
(0.0348939 -0.064061 0)
(0.0357779 -0.0702406 0)
(-0.0536164 0.225469 0)
(-0.0484591 0.21252 0)
(-0.055468 0.230671 0)
(-0.048542 0.210772 0)
(-0.0507024 0.216672 0)
(-0.0554423 0.228598 0)
(-0.0404494 0.188892 0)
(-0.0848378 0.298854 0)
(-0.0765377 0.27999 0)
(-0.0489095 0.205982 0)
(-0.0400617 0.182536 0)
(-0.0488163 0.204897 0)
(-0.0613488 0.240102 0)
(-0.0686012 0.258564 0)
(-0.0720406 0.26754 0)
(-0.0646626 0.249683 0)
(-0.106052 0.340609 0)
(-0.0964643 0.321265 0)
(-0.0865319 0.293625 0)
(-0.0930246 0.309137 0)
(-0.0966376 0.315285 0)
(-0.158708 0.402288 0)
(-0.157124 0.39238 0)
(-0.154354 0.397584 0)
(-0.0908658 0.28398 0)
(-0.0921304 0.281233 0)
(-0.0858098 0.270726 0)
(-0.0459748 0.160617 0)
(-0.0500448 0.168446 0)
(-0.0462502 0.157174 0)
(-0.0227432 0.0908538 0)
(-0.0185216 0.0780444 0)
(-0.0310988 0.110684 0)
(-0.0293185 0.107922 0)
(-0.033492 0.120192 0)
(-0.00775984 0.04277 0)
(-0.00735064 0.0417691 0)
(-0.00822571 0.0452295 0)
(-0.0108039 0.0542777 0)
(-0.0120783 0.0584078 0)
(-0.0108185 0.0534596 0)
(-0.00438421 0.0314739 0)
(-0.00451445 0.0329602 0)
(-0.00482193 0.0337908 0)
(-0.00170883 0.0325999 0)
(-0.000881458 0.0268112 0)
(-0.00258946 0.0286069 0)
(-0.0035432 0.0325455 0)
(-0.00281297 0.0273245 0)
(-0.00201814 0.0228075 0)
(-0.00167205 0.0231102 0)
(0.000269914 0.0138876 0)
(5.67539e-05 0.0178831 0)
(-0.000193797 0.0166335 0)
(0.00104631 0.000546298 0)
(0.00214251 -0.000573084 0)
(0.0013819 0.00109804 0)
(0.002242 0.0082869 0)
(0.00223366 0.0117085 0)
(0.00331148 0.000797382 0)
(0.00245115 0.00163681 0)
(0.00261027 7.55221e-05 0)
(0.000985752 0.00966488 0)
(0.000738408 0.012307 0)
(0.000548748 0.0104073 0)
(0.00220582 -0.00843091 0)
(0.0029241 -0.0071505 0)
(0.000445609 -0.00343732 0)
(-0.00985078 0.13639 0)
(-0.00479106 0.124542 0)
(-0.00963589 0.136431 0)
(0.00796084 0.0920252 0)
(0.0141561 0.0752103 0)
(0.0112141 0.085116 0)
(0.0396521 -0.0139174 0)
(0.0441418 -0.0307542 0)
(0.0432509 -0.0190708 0)
(-0.0713213 0.2686 0)
(-0.0753726 0.277 0)
(-0.0680515 0.262592 0)
(-0.0420141 0.206342 0)
(-0.0474915 0.218826 0)
(-0.049892 0.224024 0)
(-0.028041 0.175371 0)
(-0.0204064 0.156516 0)
(-0.0230171 0.164329 0)
(-0.0242439 0.168777 0)
(-0.0201567 0.159104 0)
(-0.088948 0.306029 0)
(-0.0925561 0.311998 0)
(-0.0963146 0.319747 0)
(-0.0789426 0.285851 0)
(-0.0852367 0.29775 0)
(-0.0839147 0.295925 0)
(-0.082488 0.293692 0)
(-0.0873175 0.304233 0)
(-0.0946365 0.318485 0)
(-0.0975621 0.325701 0)
(-0.0988903 0.328595 0)
(-0.0893076 0.309497 0)
(-0.103897 0.337712 0)
(-0.108379 0.346125 0)
(-0.0958387 0.323232 0)
(-0.104272 0.339438 0)
(-0.102038 0.335405 0)
(-0.103563 0.338496 0)
(-0.112796 0.355258 0)
(-0.00184328 -0.0150519 0)
(0.00136881 -0.0211029 0)
(-0.000314512 -0.0150872 0)
(0.0085714 -0.0492962 0)
(0.00684251 -0.0487806 0)
(0.0100036 -0.0538431 0)
(0.0273141 -0.0785568 0)
(0.0239487 -0.0721535 0)
(0.0234517 -0.0743113 0)
(0.0514605 -0.103733 0)
(0.054174 -0.109389 0)
(0.0543463 -0.102247 0)
(-0.0919608 0.312721 0)
(-0.100451 0.329452 0)
(-0.0966478 0.322255 0)
(-0.0421022 0.191485 0)
(-0.0441276 0.198799 0)
(-0.0418148 0.190422 0)
(-0.115578 0.360421 0)
(-0.104262 0.339978 0)
(-0.0618461 0.240628 0)
(-0.0740838 0.269672 0)
(-0.06807 0.256552 0)
(-0.0654536 0.248037 0)
(-0.0847781 0.291979 0)
(-0.0648882 0.24727 0)
(-0.0844899 0.296901 0)
(-0.0939591 0.318519 0)
(-0.0911378 0.312892 0)
(-0.0519338 0.21562 0)
(-0.0520824 0.215892 0)
(-0.0560347 0.226429 0)
(-0.0986252 0.333544 0)
(-0.100895 0.339654 0)
(-0.0980555 0.332675 0)
(-0.108625 0.355828 0)
(-0.114496 0.367976 0)
(-0.113752 0.36597 0)
(-0.13015 0.362347 0)
(-0.136053 0.366311 0)
(-0.129557 0.352032 0)
(-0.0807987 0.237345 0)
(-0.0785627 0.222669 0)
(-0.073502 0.216301 0)
(-0.0330324 0.113644 0)
(-0.0386784 0.130201 0)
(-0.0353319 0.117139 0)
(-0.0317836 0.101375 0)
(-0.0272443 0.0886658 0)
(-0.0296617 0.0978781 0)
(-0.0249052 0.0943547 0)
(-0.0211481 0.0830848 0)
(-0.00621633 0.0336599 0)
(-0.00632006 0.0348819 0)
(-0.00679135 0.0363411 0)
(-0.00582119 0.0333671 0)
(-0.00565308 0.031885 0)
(-0.00517516 0.0303693 0)
(-0.00055116 0.020211 0)
(-0.00114079 0.0220178 0)
(-0.000605201 0.0176206 0)
(-0.00104345 0.0186415 0)
(-0.00138029 0.0188782 0)
(-0.000917287 0.0153321 0)
(-0.00234177 0.0228283 0)
(-0.000596066 0.0147729 0)
(0.00230317 -0.00202278 0)
(0.00377161 -0.00457596 0)
(0.00325627 -0.0021434 0)
(0.000585624 0.00282726 0)
(0.000152099 0.00337914 0)
(0.00105277 0.00273634 0)
(0.00108437 0.0033504 0)
(0.00100435 0.0028722 0)
(0.00147809 0.00385113 0)
(0.00100173 0.00280447 0)
(0.000664567 0.00255651 0)
(0.000989177 0.00366846 0)
(0.00129923 0.00421911 0)
(0.00120945 0.00487562 0)
(-0.0113711 0.0236958 0)
(-0.0146592 0.0331387 0)
(-0.0141161 0.0287409 0)
(-0.00078357 0.115493 0)
(0.00157066 0.108647 0)
(0.000279657 0.113692 0)
(-0.00476204 0.125364 0)
(0.0134568 0.080927 0)
(0.0180397 0.0692683 0)
(0.015098 0.0782888 0)
(0.00997821 0.0908045 0)
(0.0517308 -0.0364079 0)
(0.0524243 -0.0310857 0)
(0.0489704 -0.0220626 0)
(0.0398001 0.0134488 0)
(0.0376789 0.0182923 0)
(0.0423582 0.00287522 0)
(-0.0356209 0.190856 0)
(-0.0343175 0.18871 0)
(-0.0460003 0.215637 0)
(-0.0180785 0.154765 0)
(-0.0774176 0.282394 0)
(-0.0700726 0.267407 0)
(-0.0759365 0.279077 0)
(-0.0822676 0.294207 0)
(-0.0782473 0.28557 0)
(-0.113162 0.355122 0)
(-0.112794 0.354942 0)
(-0.082925 0.296051 0)
(-0.0883559 0.306964 0)
(-0.0912272 0.31314 0)
(-0.0941047 0.319922 0)
(-0.0211126 0.0479493 0)
(-0.0253037 0.057293 0)
(-0.0200918 0.0417257 0)
(0.0103519 -0.0497591 0)
(0.0105833 -0.0464261 0)
(0.00711448 -0.0421126 0)
(0.00959374 -0.0600619 0)
(0.0119324 -0.0653185 0)
(0.0134576 -0.0658723 0)
(0.0363239 -0.0925602 0)
(0.036015 -0.096205 0)
(0.0395364 -0.0999811 0)
(0.063442 -0.0727168 0)
(0.0614497 -0.0717573 0)
(0.063974 -0.0826333 0)
(0.0576973 -0.108287 0)
(0.057337 -0.115153 0)
(-0.0882757 0.305561 0)
(-0.0884281 0.305371 0)
(-0.0803267 0.288228 0)
(-0.0725654 0.270588 0)
(-0.0792942 0.285814 0)
(-0.0822454 0.292231 0)
(-0.0553602 0.228078 0)
(-0.0606149 0.240698 0)
(-0.0589415 0.236682 0)
(-0.0714145 0.264902 0)
(-0.0681911 0.259701 0)
(-0.0712925 0.269047 0)
(-0.0499504 0.21411 0)
(-0.049333 0.212508 0)
(-0.0467384 0.204672 0)
(-0.0456169 0.201245 0)
(-0.0446497 0.199326 0)
(-0.0426262 0.193085 0)
(-0.0737332 0.265111 0)
(-0.0591097 0.232058 0)
(-0.0559641 0.224176 0)
(-0.113606 0.358776 0)
(-0.0993658 0.331578 0)
(-0.0896395 0.311643 0)
(-0.0917116 0.316976 0)
(-0.0861493 0.303137 0)
(-0.101681 0.339418 0)
(-0.0962246 0.326597 0)
(-0.101168 0.336876 0)
(-0.160739 0.440637 0)
(-0.1644 0.443678 0)
(-0.159135 0.437838 0)
(-0.113535 0.361324 0)
(-0.105547 0.344849 0)
(-0.106593 0.347975 0)
(-0.121984 0.366199 0)
(-0.131532 0.384416 0)
(-0.12998 0.379579 0)
(-0.142723 0.35805 0)
(-0.136056 0.341544 0)
(-0.139591 0.36296 0)
(-0.126871 0.36357 0)
(-0.12303 0.351345 0)
(-0.102889 0.230847 0)
(-0.104486 0.221238 0)
(-0.0982843 0.201933 0)
(-0.0564146 0.138344 0)
(-0.0575407 0.150789 0)
(-0.0635609 0.163772 0)
(-0.0407866 0.13125 0)
(-0.0472973 0.148964 0)
(-0.0433854 0.134685 0)
(-0.0126868 0.0529737 0)
(-0.0148693 0.0624897 0)
(-0.0153045 0.0618191 0)
(-0.0182582 0.0680795 0)
(-0.0207333 0.0775456 0)
(-0.0224951 0.0809283 0)
(-0.0121873 0.0543911 0)
(-0.0121119 0.055993 0)
(-0.0139463 0.0612082 0)
(-0.00301455 0.0195764 0)
(-0.00317328 0.0198021 0)
(-0.00276923 0.0178242 0)
(-0.0101315 0.0463716 0)
(-0.00979856 0.0439555 0)
(-0.00846688 0.0395175 0)
(-0.00331577 0.0222154 0)
(-0.00293486 0.020627 0)
(-0.00318095 0.022277 0)
(-0.00264438 0.0212824 0)
(-0.00232931 0.018696 0)
(-0.00218608 0.018451 0)
(-0.0015447 0.01856 0)
(-0.00183822 0.0199613 0)
(-0.00147247 0.0167399 0)
(-0.00130821 0.0131681 0)
(-0.00156604 0.0146448 0)
(-0.00133274 0.0127624 0)
(-0.000533916 0.0098462 0)
(-0.000578961 0.0121578 0)
(-0.00077537 0.0125648 0)
(0.000197931 0.0106595 0)
(0.000140223 0.00755667 0)
(0.000381719 0.00803291 0)
(-0.00289316 0.0089219 0)
(-0.00291464 0.00875638 0)
(-0.00195317 0.00687323 0)
(-0.000275208 0.00384032 0)
(-0.000952597 0.00501517 0)
(-0.00144152 0.00567989 0)
(0.000824643 0.00389787 0)
(0.000680869 0.00274924 0)
(0.000301446 0.00259278 0)
(0.00156319 0.00310573 0)
(0.00106578 0.00571334 0)
(0.000725645 0.00459863 0)
(0.000264971 0.0055 0)
(-0.0115587 0.0297426 0)
(-0.0144907 0.0369815 0)
(-0.0111689 0.0274792 0)
(0.00427018 0.100123 0)
(0.00886351 0.0925203 0)
(0.0258657 0.0512099 0)
(0.0262902 0.0483937 0)
(0.0294321 0.0407002 0)
(0.0507512 -0.0173116 0)
(0.0525664 -0.0210705 0)
(0.0495814 -0.0116979 0)
(0.0618189 -0.0531916 0)
(0.063394 -0.0620961 0)
(0.0636311 -0.0592461 0)
(0.0308795 0.0283721 0)
(0.0355889 0.0157862 0)
(0.0309022 0.0332419 0)
(-0.0634596 0.253353 0)
(-0.0717656 0.270435 0)
(-0.0144539 0.147215 0)
(-0.100804 0.330127 0)
(-0.0974708 0.324559 0)
(-0.0919001 0.31361 0)
(-0.0152738 0.023163 0)
(-0.0151323 0.0200156 0)
(-0.0109357 0.0111977 0)
(-0.0122851 -0.00166075 0)
(-0.0174684 0.00836438 0)
(-0.012342 -0.00571622 0)
(0.011819 -0.0552391 0)
(0.0127556 -0.0709427 0)
(0.00964696 -0.0667297 0)
(0.0121248 -0.0714588 0)
(0.0405496 -0.0964867 0)
(0.038112 -0.0909208 0)
(0.0712527 -0.0935193 0)
(0.0697804 -0.0913344 0)
(0.0705465 -0.0989897 0)
(0.072443 -0.117474 0)
(0.0716568 -0.111186 0)
(0.0707615 -0.116533 0)
(-0.111515 0.350894 0)
(-0.100076 0.329254 0)
(-0.0751666 0.276395 0)
(-0.0823505 0.29146 0)
(-0.0832037 0.293506 0)
(-0.0606858 0.241307 0)
(-0.0659893 0.254102 0)
(-0.064658 0.250845 0)
(-0.0783339 0.278224 0)
(-0.0715352 0.264049 0)
(-0.0788305 0.279298 0)
(-0.048694 0.211697 0)
(-0.102071 0.335124 0)
(-0.110792 0.350817 0)
(-0.098647 0.327567 0)
(-0.072744 0.262295 0)
(-0.055676 0.223275 0)
(-0.0858189 0.299797 0)
(-0.120942 0.379807 0)
(-0.12687 0.389852 0)
(-0.11627 0.369985 0)
(-0.0772721 0.28141 0)
(-0.0741255 0.273553 0)
(-0.0804536 0.289106 0)
(-0.172067 0.458733 0)
(-0.1728 0.458597 0)
(-0.169166 0.455213 0)
(-0.121815 0.383658 0)
(-0.123884 0.386113 0)
(-0.132944 0.402529 0)
(-0.139485 0.413741 0)
(-0.155586 0.438045 0)
(-0.13851 0.412696 0)
(-0.168692 0.442248 0)
(-0.166281 0.441222 0)
(-0.171602 0.447956 0)
(-0.158511 0.428497 0)
(-0.163043 0.435444 0)
(-0.160758 0.428937 0)
(-0.140372 0.338742 0)
(-0.128573 0.329199 0)
(-0.129463 0.316897 0)
(-0.123818 0.308469 0)
(-0.0764803 0.171984 0)
(-0.0823994 0.195054 0)
(-0.0809313 0.181848 0)
(-0.0630296 0.180264 0)
(-0.0576878 0.159871 0)
(-0.0565057 0.164965 0)
(-0.0558071 0.074286 0)
(-0.0484437 0.0589652 0)
(-0.0541974 0.0781703 0)
(-0.0281389 0.0847964 0)
(-0.0319672 0.0977856 0)
(-0.0312005 0.0921514 0)
(-0.0318673 0.0907096 0)
(-0.0279314 0.0807007 0)
(-0.0173736 0.067303 0)
(-0.0147963 0.0567346 0)
(-0.0132953 0.0532312 0)
(-0.020638 0.0679125 0)
(-0.023455 0.0778282 0)
(-0.0236714 0.0757967 0)
(-0.0233877 0.0814715 0)
(-0.0200942 0.0709404 0)
(-0.0185153 0.067236 0)
(-0.00528235 0.0273379 0)
(-0.00465291 0.0249548 0)
(-0.00511702 0.0273286 0)
(-0.00530214 0.0291354 0)
(-0.00480702 0.0273131 0)
(-0.00546298 0.030379 0)
(-0.00845774 0.0382514 0)
(-0.0102598 0.0445169 0)
(-0.00840573 0.0368115 0)
(-0.00249172 0.0176826 0)
(-0.00272168 0.0185123 0)
(-0.00239148 0.0166686 0)
(-0.00223943 0.0166187 0)
(-0.00192626 0.0148484 0)
(-0.00214705 0.0165887 0)
(-0.00169551 0.0164865 0)
(-0.00110805 0.0147024 0)
(-0.000693705 0.0102587 0)
(-0.00141225 0.0150371 0)
(-0.00181089 0.0184929 0)
(-0.000172334 0.0135904 0)
(-6.33818e-05 0.00540443 0)
(3.4157e-05 0.00566618 0)
(-5.75905e-05 0.00797788 0)
(-0.000802697 0.00459221 0)
(-0.000669624 0.0038609 0)
(-0.0013652 0.00540935 0)
(-0.0103514 0.027529 0)
(-0.0131288 0.0352684 0)
(0.000558736 0.00311501 0)
(0.000472877 0.00172669 0)
(0.000593895 0.00218953 0)
(0.000701989 0.00231833 0)
(3.32385e-05 0.00146467 0)
(-0.000102868 0.0020974 0)
(0.000121691 0.00211418 0)
(0.000439005 0.00302439 0)
(0.000541719 0.00494889 0)
(0.000440697 0.00602772 0)
(0.000306 0.00389944 0)
(-0.028791 0.0708942 0)
(-0.0246153 0.0594196 0)
(-0.026451 0.0684281 0)
(-0.00887671 0.0187909 0)
(-0.0121449 0.0282809 0)
(0.0231872 0.058046 0)
(0.0189451 0.0694424 0)
(0.0217706 0.0602881 0)
(0.058177 -0.0383014 0)
(0.0578363 -0.0401368 0)
(0.0597373 -0.0464105 0)
(0.0515401 -0.0231369 0)
(0.0484311 -0.0125018 0)
(0.0613319 -0.0560172 0)
(0.0384021 0.0134588 0)
(0.0427882 0.0053288 0)
(0.0456761 -0.00213951 0)
(0.0429037 0.00745665 0)
(-0.0176951 0.0400119 0)
(-0.0176786 0.0374057 0)
(-0.012327 0.0100622 0)
(-0.00921391 0.00405845 0)
(-0.0160009 0.00024435 0)
(-0.0146805 -0.0070039 0)
(-0.012057 -0.00989193 0)
(-0.00162488 -0.0481407 0)
(-0.00413369 -0.0421805 0)
(-0.00536955 -0.0424238 0)
(0.0289193 -0.100566 0)
(0.0337746 -0.109105 0)
(0.0321836 -0.104959 0)
(0.0717197 -0.130737 0)
(0.0722845 -0.134052 0)
(0.074179 -0.131768 0)
(0.06548 -0.0677676 0)
(0.0667395 -0.0774535 0)
(0.0672646 -0.073373 0)
(0.0685475 -0.0799453 0)
(0.0683778 -0.0750766 0)
(0.0665232 -0.140215 0)
(0.0666744 -0.136356 0)
(0.0637836 -0.137932 0)
(-0.115259 0.358359 0)
(-0.0906943 0.308026 0)
(-0.0928084 0.313093 0)
(-0.0722276 0.267227 0)
(-0.061886 0.242945 0)
(-0.0660358 0.255636 0)
(-0.0705857 0.2653 0)
(-0.0515804 0.218128 0)
(-0.0551722 0.229502 0)
(-0.0534757 0.224314 0)
(-0.0360214 0.173919 0)
(-0.0347533 0.169938 0)
(-0.0364388 0.175214 0)
(-0.0958146 0.321495 0)
(-0.0396386 0.180287 0)
(-0.0489494 0.204353 0)
(-0.0488674 0.204534 0)
(-0.124041 0.385307 0)
(-0.143026 0.415862 0)
(-0.12617 0.389305 0)
(-0.180551 0.468255 0)
(-0.178083 0.465713 0)
(-0.185653 0.474855 0)
(-0.169312 0.456651 0)
(-0.171754 0.459506 0)
(-0.173633 0.461052 0)
(-0.12665 0.392561 0)
(-0.130133 0.399084 0)
(-0.128364 0.396345 0)
(-0.13876 0.414421 0)
(-0.155118 0.438581 0)
(-0.141259 0.418409 0)
(-0.186037 0.470236 0)
(-0.188857 0.473876 0)
(-0.189461 0.473315 0)
(-0.159946 0.432144 0)
(-0.155008 0.424397 0)
(-0.154305 0.425282 0)
(-0.168462 0.426563 0)
(-0.167589 0.424672 0)
(-0.169953 0.423519 0)
(-0.161727 0.405632 0)
(-0.165093 0.41663 0)
(-0.166439 0.410879 0)
(-0.154087 0.351697 0)
(-0.154694 0.345113 0)
(-0.15148 0.338993 0)
(-0.137829 0.317754 0)
(-0.131262 0.29668 0)
(-0.134566 0.321144 0)
(-0.120792 0.244333 0)
(-0.121058 0.255999 0)
(-0.12453 0.262257 0)
(-0.0905263 0.14661 0)
(-0.0936683 0.149954 0)
(-0.0882939 0.131138 0)
(-0.054241 0.112784 0)
(-0.0545591 0.106421 0)
(-0.0488422 0.0906261 0)
(-0.0760536 0.145107 0)
(-0.0763923 0.154522 0)