/*--------------------------------*- C++ -*----------------------------------*\
| =========                 |                                                 |
| \\      /  F ield         | OpenFOAM: The Open Source CFD Toolbox           |
|  \\    /   O peration     | Version:  v2012                                 |
|   \\  /    A nd           | Website:  www.openfoam.com                      |
|    \\/     M anipulation  |                                                 |
\*---------------------------------------------------------------------------*/
FoamFile
{
    version     2.0;
    format      ascii;
    class       volVectorField;
    location    "1.16";
    object      cellDisplacement;
}
// * * * * * * * * * * * * * * * * * * * * * * * * * * * * * * * * * * * * * //

dimensions      [0 1 0 0 0 0 0];


internalField   nonuniform List<vector> 
11961
(
(-0.00132816 0.00295254 0)
(-0.0031833 0.00710419 0)
(-0.00296168 0.00655316 0)
(-0.00198647 0.00446327 0)
(-0.00600835 0.0133804 0)
(-0.00159156 0.00350642 0)
(-0.00567988 0.0125754 0)
(-0.00497137 0.0111968 0)
(-0.00874442 0.0195126 0)
(-0.00287853 0.00631868 0)
(-0.00776529 0.0171547 0)
(-0.00912272 0.020463 0)
(-0.00527261 0.0119316 0)
(-0.0116279 0.0258516 0)
(-0.00572688 0.0125686 0)
(-0.00127592 0.00279092 0)
(-0.00784439 0.0172597 0)
(-0.0109168 0.0241581 0)
(-0.0126608 0.0284643 0)
(-0.00967781 0.0219509 0)
(-0.00217506 0.00494241 0)
(-0.0150712 0.0335614 0)
(-0.00629477 0.0137612 0)
(-0.00225915 0.00492719 0)
(-0.0109026 0.0239587 0)
(-0.0128908 0.0284206 0)
(-0.0130453 0.0295019 0)
(-0.0158963 0.0356043 0)
(-0.00964082 0.0220005 0)
(-0.00530751 0.0121252 0)
(-0.0175435 0.0389038 0)
(-0.0086294 0.0188501 0)
(-0.00448296 0.00977646 0)
(-0.000954536 0.00207635 0)
(-0.0111336 0.0243734 0)
(-0.0159941 0.0352744 0)
(-0.0170408 0.038664 0)
(-0.0197765 0.044404 0)
(-0.0131641 0.0301535 0)
(-0.00458754 0.0105454 0)
(-0.0211443 0.0469547 0)
(-0.00872315 0.0189936 0)
(-0.00493065 0.0107243 0)
(-0.00180332 0.00391566 0)
(-0.0132941 0.0290517 0)
(-0.0178605 0.0392184 0)
(-0.0171365 0.0391429 0)
(-0.020555 0.0464685 0)
(-0.0226114 0.0505393 0)
(-0.0127913 0.0294972 0)
(-0.0087536 0.0202382 0)
(-0.00158391 0.00364493 0)
(-0.023285 0.0514765 0)
(-0.00681491 0.014811 0)
(-0.0105847 0.0230208 0)
(-0.00363515 0.00789367 0)
(-0.00139944 0.00303444 0)
(-0.016217 0.035464 0)
(-0.0126233 0.0274913 0)
(-0.0215215 0.0472878 0)
(-0.021122 0.0484757 0)
(-0.0246589 0.0559377 0)
(-0.0267813 0.0599852 0)
(-0.0160442 0.0371522 0)
(-0.00854048 0.0198918 0)
(-0.00152555 0.00355995 0)
(-0.0268178 0.0593666 0)
(-0.00675871 0.0146542 0)
(-0.0104567 0.022681 0)
(-0.00362581 0.0078567 0)
(-0.000492201 0.00106656 0)
(-0.0024086 0.00521649 0)
(-0.0168322 0.0366449 0)
(-0.0143295 0.0311435 0)
(-0.0234207 0.051279 0)
(-0.0203551 0.0470417 0)
(-0.0251304 0.0574842 0)
(-0.0281487 0.0635354 0)
(-0.0288316 0.0642193 0)
(-0.0157556 0.0367313 0)
(-0.0123758 0.0289446 0)
(-0.00451445 0.0105603 0)
(-0.0289693 0.0638287 0)
(-0.00482368 0.0104439 0)
(-0.00850143 0.0184128 0)
(-0.0127742 0.027692 0)
(-0.000742763 0.00160792 0)
(-0.00165818 0.0035889 0)
(-0.0192994 0.0419458 0)
(-0.0274166 0.0601054 0)
(-0.0224913 0.0490033 0)
(-0.0225102 0.0523645 0)
(-0.0297387 0.0683572 0)
(-0.0318819 0.0721826 0)
(-0.032654 0.0726891 0)
(-0.0193799 0.0453266 0)
(-0.0123896 0.0292204 0)
(-0.00484221 0.0114067 0)
(-0.0326737 0.0721477 0)
(-0.00445626 0.00963031 0)
(-0.00813878 0.0175865 0)
(-0.0128937 0.0278731 0)
(-0.000202162 0.000437329 0)
(-0.0015238 0.0032946 0)
(-0.018876 0.0408188 0)
(-0.0287025 0.0626388 0)
(-0.0255013 0.0554412 0)
(-0.0260288 0.0606466 0)
(-0.0330546 0.07554 0)
(-0.0298548 0.0692365 0)
(-0.0351329 0.0791877 0)
(-0.0355805 0.079556 0)
(-0.0198728 0.0468332 0)
(-0.00890091 0.0210444 0)
(-0.0162471 0.0384735 0)
(-0.00189853 0.00449199 0)
(-0.0348474 0.076715 0)
(-0.00597655 0.0128994 0)
(-0.00298313 0.00644129 0)
(-0.0100652 0.0217194 0)
(-0.0155486 0.0335548 0)
(-0.000169625 0.000366743 0)
(-0.00203493 0.00439507 0)
(-0.000656351 0.00141869 0)
(-0.0220252 0.0475259 0)
(-0.0324692 0.0707658 0)
(-0.0255375 0.0552694 0)
(-0.0267564 0.0629031 0)
(-0.0371204 0.0849303 0)
(-0.0330382 0.0771719 0)
(-0.0383721 0.0869542 0)
(-0.0397032 0.0885323 0)
(-0.0236513 0.0559111 0)
(-0.00800115 0.019073 0)
(-0.0167338 0.0399233 0)
(-0.00390251 0.00930259 0)
(-0.0350317 0.0766343 0)
(-0.0381109 0.08399 0)
(-0.00513578 0.0110609 0)
(-0.00201182 0.00433454 0)
(-0.00932138 0.0200612 0)
(-0.014366 0.0308856 0)
(-0.000997857 0.00215392 0)
(-0.000369084 0.000797031 0)
(-0.0219415 0.0471308 0)
(-0.0323941 0.0701893 0)
(-0.0286736 0.0619399 0)
(-0.0304766 0.0718161 0)
(-0.0398204 0.0916147 0)
(-0.0372166 0.0870045 0)
(-0.0421001 0.0952031 0)
(-0.0430906 0.0966234 0)
(-0.0405008 0.0896252 0)
(-0.0240569 0.0574308 0)
(-0.0102138 0.0244883 0)
(-0.0206876 0.0495595 0)
(-0.0140203 0.0336127 0)
(-0.00205473 0.00493065 0)
(-0.0382954 0.0837918 0)
(-0.002649 0.0057013 0)
(-0.00655459 0.0140933 0)
(-0.000671813 0.00144737 0)
(-0.0110729 0.0237825 0)
(-0.0158086 0.0338785 0)
(-0.0190539 0.040811 0)
(-0.0258785 0.0554778 0)
(-0.0349378 0.0754468 0)
(-0.0288432 0.0620062 0)
(-0.0313488 0.0746076 0)
(-0.0400281 0.0928949 0)
(-0.0439549 0.100787 0)
(-0.0387824 0.0918051 0)
(-0.0450261 0.102436 0)
(-0.0472436 0.105708 0)
(-0.0445166 0.0982931 0)
(-0.0278624 0.0667862 0)
(-0.00821388 0.0198349 0)
(-0.0197762 0.0477572 0)
(-0.0157665 0.038061 0)
(-0.00425055 0.0102658 0)
(-0.0410227 0.0895362 0)
(-0.00129011 0.00277147 0)
(-0.00540012 0.011583 0)
(-0.00966004 0.0206945 0)
(-0.0131901 0.028175 0)
(-0.0193367 0.0412372 0)
(-0.0256232 0.0546711 0)
(-0.0324825 0.0697731 0)
(-0.0385306 0.0832349 0)
(-0.0353388 0.0843602 0)
(-0.0454249 0.105762 0)
(-0.0473122 0.109166 0)
(-0.0433744 0.103021 0)
(-0.0494897 0.11247 0)
(-0.047894 0.106279 0)
(-0.0508436 0.114522 0)
(-0.0448765 0.0983701 0)
(-0.0282892 0.0685876 0)
(-0.0103714 0.0251804 0)
(-0.0213541 0.0518921 0)
(-0.0141403 0.0343059 0)
(-0.00218198 0.0053031 0)
(-0.0413005 0.0895979 0)
(-0.0027014 0.00579173 0)
(-0.0068722 0.0147117 0)
(-0.0105121 0.0224611 0)
(-0.0135095 0.0287684 0)
(-0.0163583 0.0348015 0)
(-0.0222008 0.0472639 0)
(-0.0282704 0.060166 0)
(-0.0339146 0.0725608 0)
(-0.0396859 0.0852773 0)
(-0.0358592 0.0865955 0)
(-0.0472566 0.111143 0)
(-0.051288 0.117746 0)
(-0.0440809 0.106058 0)
(-0.0518394 0.114688 0)
(-0.0550714 0.12363 0)
(-0.0484589 0.105955 0)
(-0.0249934 0.0608967 0)
(-0.0321713 0.0783173 0)
(-0.00964263 0.0235403 0)
(-0.0188003 0.0459869 0)
(-0.0156588 0.0382452 0)
(-0.00362224 0.00885698 0)
(-0.0453006 0.0980736 0)
(-0.00139506 0.00298301 0)
(-0.00575136 0.0122833 0)
(-0.00786437 0.0167716 0)
(-0.0105635 0.0224457 0)
(-0.0161548 0.0342577 0)
(-0.0216867 0.0459957 0)
(-0.0269588 0.0571391 0)
(-0.0318863 0.0679312 0)
(-0.0375777 0.0804103 0)
(-0.0429189 0.0921078 0)
(-0.0399856 0.0969392 0)
(-0.0526306 0.124189 0)
(-0.0554237 0.127605 0)
(-0.0484474 0.11715 0)
(-0.0553387 0.122968 0)
(-0.0520002 0.114132 0)
(-0.0588424 0.132704 0)
(-0.0484715 0.105287 0)
(-0.0244242 0.0601153 0)
(-0.0327131 0.0804512 0)
(-0.00685096 0.0167626 0)
(-0.012934 0.0316999 0)
(-0.0204763 0.050405 0)
(-0.00151443 0.00371799 0)
(-0.0454896 0.0979038 0)
(-0.00306685 0.00654368 0)
(-0.00777551 0.0165387 0)
(-0.0106878 0.0226523 0)
(-0.0134257 0.028426 0)
(-0.0186737 0.0395383 0)
(-0.0239428 0.0506773 0)
(-0.0287427 0.0607763 0)
(-0.0333059 0.0707102 0)
(-0.0393548 0.0839393 0)
(-0.0427172 0.0912406 0)
(-0.0399988 0.0981645 0)
(-0.0532137 0.127481 0)
(-0.0566519 0.132186 0)
(-0.0593281 0.135236 0)
(-0.0478712 0.117442 0)
(-0.0588057 0.130099 0)
(-0.0554743 0.121317 0)
(-0.0624792 0.139905 0)
(-0.0515149 0.111599 0)
(-0.0266145 0.0659998 0)
(-0.0302342 0.0749999 0)
(-0.0364826 0.0900219 0)
(-0.00698277 0.0171843 0)
(-0.0129217 0.0318493 0)
(-0.0189759 0.046989 0)
(-0.00369577 0.00910319 0)
(-0.0483916 0.103987 0)
(-0.00174886 0.00371915 0)
(-0.00428738 0.00910321 0)
(-0.00813395 0.017206 0)
(-0.0128131 0.0270592 0)
(-0.0180883 0.038188 0)
(-0.0229982 0.0485387 0)
(-0.0314403 0.0665296 0)
(-0.0273478 0.0576289 0)
(-0.0360665 0.0765166 0)
(-0.0386328 0.0820982 0)
(-0.0448099 0.0954957 0)
(-0.0435528 0.107533 0)
(-0.057583 0.138882 0)
(-0.0622525 0.145399 0)
(-0.0635312 0.145151 0)
(-0.0511824 0.126536 0)
(-0.05874 0.128886 0)
(-0.0620826 0.137813 0)
(-0.0549191 0.119298 0)
(-0.0662739 0.14881 0)
(-0.0510953 0.110125 0)
(-0.0243455 0.0608411 0)
(-0.0321029 0.0804147 0)
(-0.0359416 0.0897479 0)
(-0.0094397 0.0232886 0)
(-0.0154835 0.038326 0)
(-0.020805 0.051866 0)
(-0.00338589 0.00836868 0)
(-0.0490957 0.105085 0)
(-0.00445002 0.00942261 0)
(-0.00946978 0.0199876 0)
(-0.014966 0.0315573 0)
(-0.0202302 0.0426458 0)
(-0.0246637 0.0519382 0)
(-0.0329469 0.0695586 0)
(-0.0289731 0.0609513 0)
(-0.0356881 0.0754288 0)
(-0.040982 0.0869064 0)
(-0.0437759 0.092939 0)
(-0.0477425 0.101844 0)
(-0.0424653 0.106277 0)
(-0.0620342 0.148421 0)
(-0.0559977 0.137491 0)
(-0.0640413 0.151132 0)
(-0.065047 0.150027 0)
(-0.0667992 0.151305 0)
(-0.0494011 0.124092 0)
(-0.061686 0.134882 0)
(-0.0648623 0.143281 0)
(-0.0570126 0.123413 0)
(-0.0689212 0.1537 0)
(-0.0534887 0.114993 0)
(-0.0252089 0.063535 0)
(-0.0311799 0.0789237 0)
(-0.0384292 0.0966379 0)
(-0.00923445 0.0228766 0)
(-0.0144166 0.0358357 0)
(-0.0188828 0.0472795 0)
(-0.00118297 0.00292351 0)
(-0.00616583 0.0152753 0)
(-0.0523295 0.112035 0)
(-0.00192334 0.00406529 0)
(-0.0080705 0.016997 0)
(-0.0141763 0.0298247 0)
(-0.0197754 0.0415851 0)
(-0.0226109 0.04751 0)
(-0.0318727 0.0671216 0)
(-0.0285371 0.0598968 0)
(-0.0375499 0.0792624 0)
(-0.0402348 0.085051 0)
(-0.045538 0.096491 0)
(-0.0495944 0.105496 0)
(-0.0450827 0.113807 0)
(-0.0654768 0.157806 0)
(-0.0585422 0.145192 0)
(-0.0691397 0.162889 0)
(-0.0693766 0.159537 0)
(-0.0701738 0.159492 0)
(-0.0519607 0.131948 0)
(-0.0645374 0.141579 0)
(-0.0619443 0.134589 0)
(-0.0678895 0.150288 0)
(-0.059918 0.129726 0)
(-0.0559384 0.120442 0)
(-0.0721458 0.160963 0)
(-0.0281158 0.0712781 0)
(-0.0228061 0.057735 0)
(-0.0336858 0.0860432 0)
(-0.0371795 0.094585 0)
(-0.0115019 0.0285742 0)
(-0.0160379 0.0400472 0)
(-0.0200451 0.0505214 0)
(-0.00108708 0.00269407 0)
(-0.00609681 0.0151341 0)
(-0.053314 0.113862 0)
(-0.00419216 0.00883043 0)
(-0.0106217 0.0223263 0)
(-0.0168768 0.0354504 0)
(-0.0232174 0.048679 0)
(-0.0329726 0.069313 0)
(-0.0262891 0.0550876 0)
(-0.0310204 0.065075 0)
(-0.0370938 0.0780961 0)
(-0.0419996 0.0886491 0)
(-0.0444896 0.0939952 0)
(-0.0484157 0.10267 0)
(-0.0519971 0.110684 0)
(-0.0430278 0.110246 0)
(-0.0657796 0.160546 0)
(-0.0695841 0.165927 0)
(-0.0562877 0.142024 0)
(-0.0628875 0.155376 0)
(-0.0721241 0.168334 0)
(-0.0719532 0.166187 0)
(-0.0732727 0.165765 0)
(-0.0493532 0.127674 0)
(-0.0671244 0.146775 0)
(-0.0647596 0.140427 0)
(-0.06979 0.153818 0)
(-0.0601894 0.129716 0)
(-0.0578365 0.124288 0)
(-0.0739681 0.165923 0)
(-0.0735292 0.162914 0)
(-0.0268784 0.068788 0)
(-0.0237666 0.060605 0)
(-0.0332656 0.08598 0)
(-0.0392912 0.10088 0)
(-0.0112867 0.0281177 0)
(-0.0139006 0.0347351 0)
(-0.017819 0.0449194 0)
(-0.00297822 0.00738312 0)
(-0.00873163 0.0217118 0)
(-0.0552869 0.118047 0)
(-0.00224863 0.00472647 0)
(-0.010132 0.0212553 0)
(-0.0160421 0.0336304 0)
(-0.0207194 0.0433527 0)
(-0.0350663 0.0737021 0)
(-0.0270726 0.056611 0)
(-0.0314878 0.0659606 0)
(-0.0390138 0.082051 0)
(-0.0412102 0.0867539 0)
(-0.0460297 0.0970882 0)
(-0.049575 0.104926 0)
(-0.0539097 0.114598 0)
(-0.0448073 0.116239 0)
(-0.0706095 0.172017 0)
(-0.0727823 0.174439 0)
(-0.0591805 0.150855 0)
(-0.063717 0.160189 0)
(-0.0765021 0.178447 0)
(-0.0758078 0.173874 0)
(-0.0763008 0.173411 0)
(-0.0514127 0.134949 0)
(-0.0670634 0.145867 0)
(-0.0693883 0.152099 0)
(-0.0652128 0.140833 0)
(-0.0722727 0.159388 0)
(-0.0618969 0.133105 0)
(-0.0581781 0.124608 0)
(-0.0771179 0.172493 0)
(-0.0760844 0.168401 0)
(-0.027713 0.071625 0)
(-0.022893 0.0587193 0)
(-0.0304645 0.0792345 0)
(-0.0367226 0.0954674 0)
(-0.0146741 0.0367728 0)
(-0.0181277 0.0458762 0)
(-0.00319125 0.00790562 0)
(-0.00822855 0.0204518 0)
(-0.0554901 0.118154 0)
(-0.0571388 0.122109 0)
(-0.00422233 0.00884924 0)
(-0.0129051 0.0270361 0)
(-0.00763251 0.015988 0)
(-0.0177604 0.0371636 0)
(-0.0216295 0.0451637 0)
(-0.0357357 0.0749642 0)
(-0.0249161 0.0520107 0)
(-0.029826 0.0623648 0)
(-0.0341126 0.0714472 0)
(-0.0380843 0.0799114 0)
(-0.0425914 0.0895658 0)
(-0.048257 0.10186 0)
(-0.0449097 0.09451 0)
(-0.0519583 0.109971 0)
(-0.0538785 0.114242 0)
(-0.0417328 0.109816 0)
(-0.0721371 0.177675 0)
(-0.076285 0.181628 0)
(-0.0573324 0.149119 0)
(-0.0681469 0.171254 0)
(-0.0779718 0.183231 0)
(-0.0784715 0.18085 0)
(-0.0791878 0.179038 0)
(-0.048341 0.129274 0)
(-0.0690475 0.149882 0)
(-0.0715467 0.156527 0)
(-0.0639705 0.13769 0)
(-0.0675172 0.145684 0)
(-0.0732516 0.160803 0)
(-0.0607838 0.1302 0)
(-0.0777208 0.172697 0)
(-0.0792377 0.177821 0)
(-0.0767545 0.168984 0)
(-0.0249155 0.0645751 0)
(-0.0204597 0.052221 0)
(-0.0300837 0.0793684 0)
(-0.0375575 0.0987108 0)
(-0.0127831 0.0319473 0)
(-0.0159117 0.0400306 0)
(-0.00560798 0.0138987 0)
(-0.00117315 0.00289873 0)
(-0.0100001 0.0248831 0)
(-0.0572279 0.121966 0)
(-0.00197332 0.00412684 0)
(-0.0123902 0.0259084 0)
(-0.0093408 0.0195258 0)
(-0.0151183 0.0315854 0)
(-0.0192472 0.0401286 0)
(-0.0255566 0.0532652 0)
(-0.0313827 0.0655559 0)
(-0.034209 0.0715362 0)
(-0.0395641 0.0829459 0)
(-0.0418929 0.0879146 0)
(-0.0497517 0.104902 0)
(-0.0456174 0.0958555 0)
(-0.0519462 0.109679 0)
(-0.0561795 0.119072 0)
(-0.0414837 0.110821 0)
(-0.0766175 0.187869 0)
(-0.0792489 0.189648 0)
(-0.0602367 0.158397 0)
(-0.0695344 0.177144 0)
(-0.0818411 0.191801 0)
(-0.0817136 0.187578 0)
(-0.0816955 0.185013 0)
(-0.0490427 0.133527 0)
(-0.043833 0.117901 0)
(-0.0709724 0.154256 0)
(-0.0689954 0.149168 0)
(-0.072048 0.157054 0)
(-0.0654472 0.140498 0)
(-0.0675137 0.145156 0)
(-0.0752104 0.164994 0)
(-0.0619434 0.132411 0)
(-0.0802111 0.177879 0)
(-0.0813896 0.182075 0)
(-0.0787499 0.17319 0)
(-0.024707 0.064689 0)
(-0.0193797 0.049528 0)
(-0.0322981 0.0860551 0)
(-0.0271423 0.0718991 0)
(-0.0353344 0.0939767 0)
(-0.0136095 0.0340305 0)
(-0.0158606 0.0398659 0)
(-0.00493412 0.0121866 0)
(-0.00250731 0.0061806 0)
(-0.00881687 0.0218452 0)
(-0.0585617 0.124669 0)
(-0.003951 0.008247 0)
(-0.00787707 0.0164393 0)
(-0.0156964 0.0327394 0)
(-0.02005 0.0417309 0)
(-0.0283732 0.0591085 0)
(-0.0230585 0.047982 0)
(-0.0309722 0.0645844 0)
(-0.0363864 0.0760594 0)
(-0.038992 0.0815967 0)
(-0.0436428 0.0915511 0)
(-0.0493841 0.103927 0)
(-0.0474282 0.0996528 0)
(-0.0537123 0.113365 0)
(-0.0559148 0.118206 0)
(-0.0582174 0.123588 0)
(-0.03722 0.100203 0)
(-0.0794948 0.19224 0)
(-0.078662 0.195081 0)
(-0.0825545 0.195442 0)
(-0.0662112 0.17196 0)
(-0.0574852 0.154676 0)
(-0.0759878 0.191743 0)
(-0.0840014 0.19523 0)
(-0.0827266 0.188343 0)
(-0.0839291 0.193491 0)
(-0.0837451 0.188585 0)
(-0.0440849 0.122146 0)
(-0.0523471 0.143046 0)
(-0.0416258 0.114253 0)
(-0.0722808 0.156639 0)
(-0.0711036 0.153655 0)
(-0.074352 0.16197 0)
(-0.0645645 0.138149 0)
(-0.0693374 0.148986 0)
(-0.0758157 0.1656 0)
(-0.0609378 0.129875 0)
(-0.0817366 0.181842 0)
(-0.080533 0.177673 0)
(-0.0834177 0.186943 0)
(-0.0789973 0.173058 0)
(-0.0222516 0.0581271 0)
(-0.017285 0.0437214 0)
(-0.0200907 0.0517765 0)
(-0.0304151 0.0822838 0)
(-0.0272436 0.073256 0)
(-0.0118238 0.0293527 0)
(-0.0142468 0.0354851 0)
(-0.00639698 0.0157805 0)
(-0.00134037 0.00328655 0)
(-0.00978457 0.0241916 0)
(-0.0020102 0.00418689 0)
(-0.00976932 0.0203527 0)
(-0.0133645 0.027838 0)
(-0.0178082 0.0370244 0)
(-0.0276102 0.0574217 0)
(-0.0242307 0.0503657 0)
(-0.0334997 0.0698329 0)
(-0.0360913 0.0753191 0)
(-0.0412176 0.0862292 0)
(-0.043566 0.0912584 0)
(-0.0511628 0.107608 0)
(-0.0478011 0.100291 0)
(-0.0532646 0.112169 0)
(-0.0576798 0.121907 0)
(-0.0604484 0.128272 0)
(-0.0355269 0.097152 0)
(-0.0834109 0.201726 0)
(-0.0834944 0.204683 0)
(-0.0851956 0.201895 0)
(-0.0688196 0.180769 0)
(-0.0608067 0.165025 0)
(-0.0776927 0.198207 0)
(-0.0869459 0.201916 0)
(-0.0855118 0.194231 0)
(-0.087036 0.199659 0)
(-0.0858081 0.193605 0)
(-0.0420833 0.119418 0)
(-0.0502292 0.140977 0)
(-0.0374888 0.103823 0)
(-0.0742539 0.161114 0)
(-0.0714483 0.153968 0)
(-0.0655438 0.139982 0)
(-0.0694425 0.148764 0)
(-0.0776216 0.169484 0)
(-0.0621972 0.132274 0)
(-0.0836062 0.185857 0)
(-0.0823233 0.1813 0)
(-0.0846643 0.189022 0)
(-0.0805423 0.176269 0)
(-0.0216138 0.0570622 0)
(-0.0161212 0.0404501 0)
(-0.018328 0.0468293 0)
(-0.0316383 0.0868271 0)
(-0.0252871 0.0684782 0)
(-0.0124227 0.0307351 0)
(-0.014551 0.0361098 0)
(-0.00611538 0.0150083 0)
(-0.00233014 0.00568201 0)
(-0.00815918 0.020019 0)
(-0.00406123 0.00844563 0)
(-0.00786019 0.0163456 0)
(-0.014663 0.0304951 0)
(-0.0177103 0.0367756 0)
(-0.0293943 0.0610931 0)
(-0.0226085 0.0469355 0)
(-0.0341866 0.0711812 0)
(-0.0384118 0.0801431 0)
(-0.0409265 0.0854778 0)
(-0.0459143 0.0961816 0)
(-0.0501145 0.105198 0)
(-0.0550916 0.11599 0)
(-0.0601585 0.127376 0)
(-0.0573443 0.12093 0)
(-0.0857557 0.205279 0)
(-0.0868268 0.213204 0)
(-0.087702 0.206232 0)
(-0.0739173 0.192207 0)
(-0.0659755 0.176823 0)
(-0.0584904 0.162398 0)
(-0.0817686 0.207917 0)
(-0.0885627 0.203964 0)
(-0.0882834 0.205923 0)
(-0.0874881 0.199337 0)
(-0.0874605 0.196826 0)
(-0.0448112 0.128363 0)
(-0.0372043 0.106936 0)
(-0.0533862 0.150765 0)
(-0.0352927 0.0998122 0)
(-0.0757074 0.164041 0)
(-0.0735184 0.158375 0)
(-0.0676794 0.144609 0)
(-0.064179 0.136609 0)
(-0.0715636 0.153287 0)
(-0.0787049 0.171356 0)
(-0.0846411 0.187516 0)
(-0.0841711 0.185708 0)
(-0.0820655 0.179966 0)
(-0.0864719 0.192936 0)
(-0.0805232 0.175569 0)
(-0.0228466 0.0613134 0)
(-0.0192772 0.050217 0)
(-0.0165692 0.0416551 0)
(-0.0181395 0.0464884 0)
(-0.0297931 0.0832081 0)
(-0.025094 0.069355 0)
(-0.0112533 0.0275421 0)
(-0.0134467 0.0329512 0)
(-0.00449968 0.0109761 0)
(-0.00100604 0.00243236 0)
(-0.008116 0.0197618 0)
(-0.00208291 0.00432377 0)
(-0.00984655 0.0204516 0)
(-0.0130027 0.0270102 0)
(-0.0195793 0.0406275 0)
(-0.0148354 0.0307903 0)
(-0.0280493 0.0582248 0)
(-0.0326182 0.0678318 0)
(-0.024663 0.0511607 0)
(-0.0374232 0.0779623 0)
(-0.0432769 0.0903984 0)
(-0.0459097 0.0960449 0)
(-0.0513854 0.107816 0)
(-0.0542835 0.114059 0)
(-0.0615408 0.130187 0)
(-0.0595679 0.125675 0)
(-0.0888636 0.212056 0)
(-0.0873534 0.217148 0)
(-0.0903265 0.218814 0)
(-0.0898925 0.21214 0)
(-0.0763974 0.200777 0)
(-0.0684932 0.185275 0)
(-0.0615139 0.172238 0)
(-0.080958 0.209956 0)
(-0.0851707 0.214585 0)
(-0.0907564 0.209023 0)
(-0.0908827 0.210941 0)
(-0.0896563 0.203482 0)
(-0.0893321 0.201523 0)
(-0.087732 0.196345 0)
(-0.0427039 0.126051 0)
(-0.0339016 0.100262 0)
(-0.051321 0.148664 0)
(-0.0314925 0.0895321 0)
(-0.0780531 0.169399 0)
(-0.0754428 0.162904 0)
(-0.0735182 0.157866 0)
(-0.0678136 0.144559 0)
(-0.0655421 0.139379 0)
(-0.0716024 0.152984 0)
(-0.0866162 0.192252 0)
(-0.0856457 0.188461 0)
(-0.0832588 0.18222 0)
(-0.0821203 0.17905 0)
(-0.0213486 0.057819 0)
(-0.0183023 0.0478055 0)
(-0.0155359 0.0385044 0)
(-0.0162543 0.0406597 0)
(-0.0266856 0.0747769 0)
(-0.0223571 0.0617718 0)
(-0.00949009 0.0230499 0)
(-0.0119352 0.0290349 0)
(-0.013202 0.031911 0)
(-0.00480968 0.0116355 0)
(-0.00192762 0.00462065 0)
(-0.00643458 0.015544 0)
(-0.00447455 0.00927908 0)
(-0.00841695 0.0174572 0)
(-0.0174705 0.0362218 0)
(-0.0144548 0.0299742 0)
(-0.0297569 0.0617478 0)
(-0.0342071 0.0710935 0)
(-0.0237922 0.0493153 0)
(-0.0387692 0.0807314 0)
(-0.0433084 0.0903562 0)
(-0.0480035 0.100438 0)
(-0.0504115 0.105602 0)
(-0.0556071 0.116794 0)
(-0.0636715 0.134818 0)
(-0.0597141 0.12582 0)
(-0.090713 0.217328 0)
(-0.0919121 0.227361 0)
(-0.0933373 0.226201 0)
(-0.0921194 0.216356 0)
(-0.0738085 0.197611 0)
(-0.0662594 0.182871 0)
(-0.0592698 0.170091 0)
(-0.08419 0.218399 0)
(-0.0871606 0.221884 0)
(-0.0920659 0.211188 0)
(-0.092539 0.215459 0)
(-0.0917099 0.208395 0)
(-0.0906423 0.203739 0)
(-0.089673 0.200573 0)
(-0.0380908 0.114989 0)
(-0.0464143 0.137484 0)
(-0.0343145 0.103716 0)
(-0.0303058 0.0897273 0)
(-0.0543868 0.158558 0)
(-0.0295233 0.085628 0)
(-0.0792099 0.171498 0)
(-0.0775453 0.167374 0)
(-0.0753156 0.161729 0)
(-0.0696368 0.148432 0)
(-0.0654 0.138809 0)
(-0.07353 0.157117 0)
(-0.0880193 0.194961 0)
(-0.0875492 0.192959 0)
(-0.0850016 0.186253 0)
(-0.0827221 0.17993 0)
(-0.019184 0.0513158 0)
(-0.0165673 0.0421608 0)
(-0.0140573 0.0340216 0)
(-0.0157319 0.039017 0)
(-0.0251213 0.0720201 0)
(-0.0209552 0.058905 0)
(-0.00882879 0.0211308 0)
(-0.0111287 0.0266519 0)
(-0.0118432 0.0281216 0)
(-0.00363444 0.00871302 0)
(-0.000919631 0.00217975 0)
(-0.00615196 0.0146869 0)
(-0.00242389 0.00501956 0)
(-0.0111978 0.0232106 0)
(-0.0177117 0.0366923 0)
(-0.0289333 0.0599931 0)
(-0.0326765 0.0678399 0)
(-0.0371463 0.077245 0)
(-0.0207033 0.0428833 0)
(-0.0263514 0.0546062 0)
(-0.0414546 0.0863745 0)
(-0.0459367 0.0958712 0)
(-0.0478573 0.0999895 0)
(-0.0519047 0.108704 0)
(-0.057889 0.121713 0)
(-0.0542138 0.113647 0)
(-0.0648447 0.137145 0)
(-0.0618447 0.130332 0)
(-0.0936066 0.222513 0)
(-0.092985 0.232221 0)
(-0.0941408 0.230119 0)
(-0.0956109 0.229563 0)
(-0.0939824 0.221406 0)
(-0.074914 0.203522 0)
(-0.0695649 0.193065 0)
(-0.0622627 0.180416 0)
(-0.0853335 0.223741 0)
(-0.0904795 0.229242 0)
(-0.0941944 0.216234 0)
(-0.0923771 0.210806 0)
(-0.0944649 0.219131 0)
(-0.093263 0.210842 0)
(-0.0925495 0.208163 0)
(-0.0904468 0.201615 0)
(-0.0357378 0.112074 0)
(-0.0458432 0.139286 0)
(-0.0303914 0.094736 0)
(-0.0271596 0.0820337 0)
(-0.0512552 0.153809 0)
(-0.0265628 0.0773596 0)
(-0.0813027 0.176157 0)
(-0.0774078 0.166644 0)
(-0.0753004 0.161268 0)
(-0.0695058 0.147848 0)
(-0.0675487 0.143393 0)
(-0.0734445 0.156591 0)
(-0.0897979 0.199255 0)
(-0.088927 0.195612 0)
(-0.0862325 0.188485 0)
(-0.0850857 0.185239 0)
(-0.0180434 0.0486424 0)
(-0.0155272 0.0391519 0)
(-0.0131677 0.0308368 0)
(-0.0145435 0.0349078 0)
(-0.0220826 0.0635829 0)
(-0.0187746 0.0521705 0)
(-0.0097484 0.0231421 0)
(-0.00722702 0.0171509 0)
(-0.0110569 0.025556 0)
(-0.00448892 0.0106637 0)
(-0.00194647 0.00456084 0)
(-0.00464566 0.00961425 0)
(-0.0111699 0.0231335 0)
(-0.0146606 0.0303517 0)
(-0.0310893 0.0644712 0)
(-0.0333989 0.0693139 0)
(-0.0385422 0.0801367 0)
(-0.0204819 0.0424043 0)
(-0.0260106 0.0538811 0)
(-0.0427225 0.088985 0)
(-0.045495 0.094845 0)
(-0.0502868 0.105147 0)
(-0.0587067 0.123364 0)
(-0.0554938 0.116304 0)
(-0.0672203 0.142423 0)
(-0.0640697 0.135228 0)
(-0.060965 0.128251 0)
(-0.0956125 0.227673 0)
(-0.0963448 0.239876 0)
(-0.0969914 0.236306 0)
(-0.0977416 0.234683 0)
(-0.0959987 0.225 0)
(-0.0787816 0.213985 0)
(-0.0680404 0.193127 0)
(-0.05917 0.176656 0)
(-0.0899194 0.233342 0)
(-0.0834363 0.222821 0)
(-0.0919091 0.235006 0)
(-0.0944205 0.215589 0)
(-0.0951472 0.219195 0)
(-0.0961107 0.223686 0)
(-0.0950578 0.215176 0)
(-0.0935356 0.209489 0)
(-0.0924485 0.206134 0)
(-0.0373846 0.118934 0)
(-0.0311039 0.0992751 0)
(-0.0423021 0.132132 0)
(-0.0261676 0.0830265 0)
(-0.025142 0.0783162 0)
(-0.0251987 0.0750862 0)
(-0.0529392 0.161067 0)
(-0.0821174 0.177514 0)
(-0.0788093 0.169466 0)
(-0.0773113 0.165689 0)
(-0.0714213 0.151926 0)
(-0.0753234 0.160672 0)
(-0.0913449 0.202253 0)
(-0.0910078 0.200659 0)
(-0.0883019 0.193343 0)
(-0.0856923 0.186129 0)
(-0.0164616 0.0436972 0)
(-0.0144873 0.0351589 0)
(-0.0154664 0.0398246 0)
(-0.0135236 0.0314143 0)
(-0.011746 0.0267377 0)
(-0.0141472 0.0334991 0)
(-0.020623 0.0609941 0)
(-0.0168938 0.0473852 0)
(-0.00917049 0.0213899 0)
(-0.00670658 0.0156459 0)
(-0.00981274 0.0225118 0)
(-0.0038084 0.0089265 0)
(-0.00101485 0.00234415 0)
(-0.00225808 0.00466925 0)
(-0.00857985 0.017756 0)
(-0.0144246 0.0298484 0)
(-0.0310493 0.0643656 0)
(-0.0355686 0.0738438 0)
(-0.0414483 0.0862456 0)
(-0.0377881 0.0785042 0)
(-0.0232888 0.0482161 0)
(-0.01727 0.0357331 0)
(-0.0287027 0.0594677 0)
(-0.0470417 0.0981019 0)
(-0.0511645 0.106952 0)
(-0.0577481 0.121161 0)
(-0.0540483 0.113105 0)
(-0.0688416 0.145872 0)
(-0.0658264 0.138953 0)
(-0.0614776 0.129272 0)
(-0.0976972 0.231154 0)
(-0.097021 0.243761 0)
(-0.0985917 0.242972 0)
(-0.0986046 0.241046 0)
(-0.098219 0.237236 0)
(-0.0994569 0.237352 0)
(-0.0977912 0.229692 0)
(-0.0771851 0.214574 0)
(-0.0718008 0.204131 0)
(-0.061319 0.185523 0)
(-0.0919764 0.240064 0)
(-0.0869563 0.233226 0)
(-0.0951692 0.241871 0)
(-0.095535 0.2175 0)
(-0.0971356 0.22373 0)
(-0.0977223 0.226442 0)
(-0.0965805 0.218063 0)
(-0.0953326 0.213518 0)
(-0.0929811 0.206488 0)
(-0.0343705 0.11405 0)
(-0.0274852 0.0909908 0)
(-0.043143 0.138254 0)
(-0.0238703 0.0788336 0)
(-0.0215031 0.0670717 0)
(-0.0224814 0.06778 0)
(-0.0485132 0.153169 0)
(-0.0842249 0.182288 0)
(-0.0808343 0.174073 0)
(-0.0774383 0.165637 0)
(-0.071082 0.150919 0)
(-0.0750347 0.159729 0)
(-0.0923149 0.203156 0)
(-0.0895901 0.195866 0)
(-0.0877573 0.19066 0)
(-0.0156425 0.0423618 0)
(-0.013568 0.0320309 0)
(-0.0140144 0.0352221 0)
(-0.0129129 0.028665 0)
(-0.0112151 0.0245976 0)
(-0.0134261 0.0305242 0)
(-0.0177111 0.0527566 0)
(-0.0162052 0.0468079 0)
(-0.00773154 0.0178738 0)
(-0.00497084 0.011516 0)
(-0.00893631 0.0201385 0)
(-0.00167919 0.00380878 0)
(-0.0048252 0.00997569 0)
(-0.0107959 0.0223305 0)
(-0.0332762 0.0690109 0)
(-0.0353831 0.073423 0)
(-0.0421393 0.0876733 0)
(-0.0399175 0.0829683 0)
(-0.0231774 0.0479821 0)
(-0.0172163 0.0356157 0)
(-0.0286591 0.0593821 0)
(-0.0497179 0.103798 0)
(-0.0464315 0.096755 0)
(-0.0592909 0.124449 0)
(-0.0549865 0.115068 0)
(-0.0682624 0.144362 0)
(-0.0652521 0.137533 0)
(-0.0632231 0.133028 0)
(-0.0995239 0.235893 0)
(-0.0998489 0.250437 0)
(-0.101157 0.249348 0)
(-0.101014 0.244908 0)
(-0.10052 0.24224 0)
(-0.101198 0.242177 0)
(-0.0995033 0.232602 0)
(-0.0800228 0.223409 0)
(-0.0714023 0.207197 0)
(-0.0673774 0.20064 0)
(-0.0567203 0.177987 0)
(-0.0956703 0.247424 0)
(-0.0908533 0.240328 0)
(-0.0865813 0.235586 0)
(-0.0968252 0.247575 0)
(-0.0975465 0.222332 0)
(-0.0983828 0.225425 0)
(-0.0993598 0.230676 0)
(-0.0982906 0.222799 0)
(-0.0966791 0.217325 0)
(-0.0960982 0.214321 0)
(-0.0948361 0.210616 0)
(-0.0296842 0.102086 0)
(-0.0381394 0.127036 0)
(-0.0264962 0.0910154 0)
(-0.0207863 0.0708569 0)
(-0.0183957 0.0587797 0)
(-0.0500962 0.161049 0)
(-0.0851307 0.183953 0)
(-0.0819621 0.176278 0)
(-0.0793712 0.169854 0)
(-0.0728164 0.154646 0)
(-0.0767021 0.163333 0)
(-0.0940976 0.20744 0)
(-0.0915788 0.20068 0)
(-0.0893924 0.194704 0)
(-0.0873291 0.189076 0)
(-0.0141983 0.0379263 0)
(-0.0132688 0.0317447 0)
(-0.0131199 0.0295502 0)
(-0.0134892 0.0345407 0)
(-0.0130336 0.0286392 0)
(-0.0122506 0.0260658 0)
(-0.0101126 0.0216553 0)
(-0.0116359 0.0247116 0)
(-0.0163546 0.0507727 0)
(-0.0135124 0.0387136 0)
(-0.00760469 0.017276 0)
(-0.00450017 0.010255 0)
(-0.00855882 0.0187939 0)
(-0.000683933 0.0015293 0)
(-0.0031054 0.00701631 0)
(-0.00448415 0.00926693 0)
(-0.00936512 0.0193646 0)
(-0.0337851 0.0700755 0)
(-0.0373411 0.0775385 0)
(-0.0442742 0.0921655 0)
(-0.0395884 0.0822652 0)
(-0.0260755 0.0540016 0)
(-0.0204607 0.0423371 0)
(-0.0143783 0.0297304 0)
(-0.0317488 0.0658235 0)
(-0.0505945 0.105633 0)
(-0.0486166 0.101381 0)
(-0.0592478 0.124295 0)
(-0.0529996 0.110759 0)
(-0.0573961 0.120236 0)
(-0.0698306 0.147733 0)
(-0.0667834 0.140798 0)
(-0.0631941 0.132878 0)
(-0.101345 0.239076 0)
(-0.0998398 0.253073 0)
(-0.101713 0.252839 0)
(-0.102769 0.251427 0)
(-0.102691 0.249071 0)
(-0.102793 0.244977 0)
(-0.10131 0.237293 0)
(-0.0770538 0.220612 0)
(-0.0838579 0.231732 0)
(-0.0690628 0.209527 0)
(-0.0586173 0.186407 0)
(-0.0973358 0.252875 0)
(-0.0935084 0.248138 0)
(-0.0900799 0.244895 0)
(-0.100369 0.230386 0)
(-0.100831 0.233047 0)
(-0.0999405 0.226242 0)
(-0.0983086 0.220622 0)
(-0.0978677 0.218509 0)
(-0.0952399 0.210803 0)
(-0.027447 0.09985 0)
(-0.0365914 0.126202 0)
(-0.0217775 0.0786904 0)
(-0.0195598 0.0703097 0)
(-0.0179906 0.0618526 0)
(-0.0168461 0.0564679 0)
(-0.0455985 0.153281 0)
(-0.0842207 0.181465 0)
(-0.0813838 0.174548 0)
(-0.0789129 0.168444 0)
(-0.0721557 0.152959 0)
(-0.0760077 0.161532 0)
(-0.0950949 0.209172 0)
(-0.092706 0.202787 0)
(-0.0914238 0.199247 0)
(-0.0883374 0.191107 0)
(-0.0130198 0.0355389 0)
(-0.0122676 0.0281 0)
(-0.0125036 0.0267665 0)
(-0.0121666 0.0303182 0)
(-0.0126558 0.0263231 0)
(-0.0122263 0.0246823 0)
(-0.00902765 0.0193707 0)
(-0.010265 0.021105 0)
(-0.0111053 0.0226129 0)
(-0.0135256 0.0424425 0)
(-0.0121582 0.0362244 0)
(-0.00664673 0.0148773 0)
(-0.00541419 0.0121268 0)
(-0.00711999 0.0155792 0)
(-0.00119498 0.00262186 0)
(-0.00329093 0.0072841 0)
(-0.00191508 0.00395643 0)
(-0.0083572 0.017273 0)
(-0.0110353 0.0228111 0)
(-0.0364054 0.0755673 0)
(-0.044093 0.0917827 0)
(-0.0416736 0.0866641 0)
(-0.026189 0.0542534 0)
(-0.0206155 0.0426674 0)
(-0.0148208 0.0306472 0)
(-0.0317809 0.0659226 0)
(-0.0485846 0.101313 0)
(-0.061445 0.129018 0)
(-0.0529458 0.110637 0)
(-0.0585749 0.122768 0)
(-0.0689233 0.145541 0)
(-0.0653709 0.137604 0)
(-0.102936 0.243386 0)
(-0.101637 0.258137 0)
(-0.104218 0.25877 0)
(-0.104734 0.256025 0)
(-0.104482 0.252198 0)
(-0.104413 0.249016 0)
(-0.102906 0.240062 0)
(-0.0792197 0.228248 0)
(-0.0857426 0.239565 0)
(-0.0646107 0.201917 0)
(-0.0745006 0.223089 0)
(-0.0549748 0.180762 0)
(-0.0999562 0.258583 0)
(-0.0962682 0.253058 0)
(-0.0929337 0.249835 0)
(-0.0894773 0.247027 0)
(-0.101848 0.23285 0)
(-0.102626 0.237779 0)
(-0.101659 0.230925 0)
(-0.0998781 0.224737 0)
(-0.0990563 0.220705 0)
(-0.0968883 0.214435 0)
(-0.02245 0.0865333 0)
(-0.0308503 0.111757 0)
(-0.0397404 0.137719 0)
(-0.0199995 0.0766836 0)
(-0.0157805 0.0598839 0)
(-0.0149016 0.0548977 0)
(-0.0134232 0.0461099 0)
(-0.0487005 0.165286 0)
(-0.0851069 0.183131 0)
(-0.0833467 0.178829 0)
(-0.0804564 0.171821 0)
(-0.0736865 0.156255 0)
(-0.0774084 0.164573 0)
(-0.096654 0.213056 0)
(-0.0944757 0.207018 0)
(-0.0916887 0.199421 0)
(-0.0902792 0.195675 0)
(-0.0870483 0.1876 0)
(-0.0115392 0.0299327 0)
(-0.0119947 0.0255806 0)
(-0.0116322 0.0271655 0)
(-0.0124782 0.0254186 0)
(-0.0124722 0.0249556 0)
(-0.0119953 0.0229588 0)
(-0.00808288 0.0168198 0)
(-0.00959123 0.0191912 0)
(-0.0114261 0.0221016 0)