/*--------------------------------*- C++ -*----------------------------------*\
| =========                 |                                                 |
| \\      /  F ield         | OpenFOAM: The Open Source CFD Toolbox           |
|  \\    /   O peration     | Version:  v2012                                 |
|   \\  /    A nd           | Website:  www.openfoam.com                      |
|    \\/     M anipulation  |                                                 |
\*---------------------------------------------------------------------------*/
FoamFile
{
    version     2.0;
    format      ascii;
    class       volScalarField;
    location    "3";
    object      k;
}
// * * * * * * * * * * * * * * * * * * * * * * * * * * * * * * * * * * * * * //

dimensions      [0 2 -2 0 0 0 0];


internalField   nonuniform List<scalar> 
27222
(
0.00328722
0.00323797
0.00346521
0.00335413
0.00311323
0.0035943
0.00349715
0.00331367
0.00298054
0.00308453
0.0037628
0.00364031
0.0031849
0.00344262
0.0028551
0.00298978
0.00378534
0.00392429
0.00367745
0.00306392
0.0033505
0.00360052
0.00273464
0.0028673
0.00297104
0.00396132
0.00410929
0.00385373
0.0030703
0.00320353
0.00343996
0.00368133
0.00261417
0.00278803
0.00283922
0.0039867
0.0041216
0.00429185
0.00385366
0.00293087
0.00316785
0.00341295
0.00357877
0.00364934
0.00259515
0.0025009
0.00268963
0.00281544
0.00416443
0.00429936
0.00449191
0.00398051
0.00291623
0.00328068
0.00303532
0.00353595
0.00366848
0.00380929
0.00250206
0.00240061
0.00258508
0.00269223
0.00432765
0.00415192
0.00446257
0.00470724
0.00394881
0.0027888
0.00326073
0.00300896
0.00354028
0.00379267
0.00249883
0.00240729
0.00229364
0.00258307
0.00268043
0.00449759
0.00429885
0.00464615
0.00492638
0.0040928
0.00278432
0.00311833
0.00337398
0.00289976
0.00366613
0.00393569
0.00240478
0.00232951
0.00220818
0.0024656
0.00254965
0.0045468
0.00424769
0.00444975
0.00483076
0.0049847
0.00514208
0.00411471
0.00271004
0.00306114
0.00333723
0.00285295
0.00359882
0.00377585
0.00392295
0.00238162
0.00232995
0.00222877
0.0020986
0.00244991
0.0025153
0.00474606
0.00438978
0.00453315
0.00491354
0.00522765
0.00538547
0.00428294
0.00262279
0.00274704
0.00292975
0.00315092
0.00327546
0.00349067
0.00369666
0.00409735
0.00226908
0.00223829
0.00218752
0.00204582
0.00235067
0.0024395
0.00470119
0.00445997
0.00510965
0.00542163
0.00524837
0.00561369
0.00428737
0.00255544
0.00265498
0.00292614
0.0030423
0.00336433
0.00350386
0.00381552
0.00412207
0.0022544
0.00220212
0.0020994
0.00196139
0.00229393
0.00234273
0.0024645
0.00486401
0.00464422
0.0052084
0.00564802
0.00546572
0.00587709
0.00448319
0.00256244
0.00268911
0.00282134
0.00309483
0.00326139
0.00362317
0.00397635
0.00375941
0.00431534
0.00218331
0.00210277
0.00205555
0.00192446
0.00188258
0.00219907
0.00226717
0.00241037
0.00511029
0.00480656
0.00466546
0.00546053
0.00585729
0.00564516
0.00615036
0.00450233
0.00245312
0.0026208
0.00281534
0.00305317
0.00331636
0.003573
0.00398386
0.00384567
0.00431181
0.00209303
0.00204622
0.00197104
0.00184508
0.00180957
0.00213862
0.00217582
0.00230406
0.00529572
0.00497866
0.0048514
0.00565143
0.00608034
0.00586516
0.00640367
0.00468832
0.00243312
0.00267857
0.00252466
0.00292327
0.0031587
0.00328392
0.00346919
0.00371532
0.00413564
0.00450946
0.00203351
0.00194627
0.00191384
0.00179023
0.00179666
0.00172872
0.00205879
0.0020943
0.00226304
0.0051794
0.00553711
0.00495717
0.00565415
0.00592281
0.0063093
0.00664115
0.00646053
0.00485883
0.00468309
0.00233832
0.00263488
0.00244133
0.00290716
0.00312085
0.0033806
0.00351006
0.00378022
0.00416557
0.00452293
0.00194755
0.00190009
0.00183007
0.00171224
0.00171874
0.00167853
0.00198158
0.00208696
0.00200524
0.00217005
0.00531645
0.00569681
0.00520121
0.00593446
0.00617338
0.00645471
0.00691628
0.00673407
0.00499327
0.00485371
0.00235034
0.00254324
0.00273007
0.00245066
0.00300807
0.00281889
0.00322227
0.0033691
0.0036382
0.00394467
0.00436743
0.00408522
0.0047235
0.00192211
0.00180795
0.0017725
0.00167694
0.00167798
0.00160156
0.0020078
0.00194265
0.00217384
0.00558068
0.00594848
0.00532527
0.00614318
0.00643823
0.00677254
0.00718116
0.00518858
0.00495088
0.00226964
0.00256593
0.00265667
0.00235913
0.00290593
0.00281408
0.00319969
0.0034878
0.00363461
0.00392033
0.00435864
0.00419463
0.00468685
0.00490789
0.00185604
0.00175526
0.00170524
0.00160076
0.00160844
0.00155253
0.00194772
0.00196807
0.0018664
0.00210272
0.0057468
0.00618076
0.00556787
0.00639115
0.00670312
0.00703602
0.00730211
0.00740962
0.00528907
0.00517648
0.00226753
0.00247975
0.00269307
0.00232701
0.00295325
0.00333205
0.00309555
0.00346128
0.00376745
0.00404482
0.00450321
0.00418137
0.0048502
0.00508044
0.00179474
0.00182075
0.00169172
0.00162661
0.00156999
0.00158135
0.00150785
0.00188664
0.0018946
0.00201713
0.00183772
0.00212082
0.00600724
0.00620799
0.00643798
0.00565742
0.00662152
0.00694926
0.0071172
0.00758452
0.00777199
0.00552782
0.00528354
0.00220516
0.0024731
0.00238506
0.00265501
0.00223045
0.00286196
0.00333942
0.00313274
0.00358259
0.00371086
0.00406505
0.0044789
0.00432391
0.00482945
0.00506463
0.00174222
0.00175091
0.00162056
0.00169051
0.00149813
0.00151576
0.0012586
0.00148954
0.00184074
0.0019472
0.00177492
0.00206108
0.006064
0.00649442
0.00669899
0.00593353
0.0068521
0.00708537
0.00744588
0.00769578
0.0077824
0.00809503
0.00566802
0.00548824
0.00236205
0.00255611
0.00232169
0.00274968
0.00218072
0.00290923
0.0034736
0.00325337
0.0030341
0.00358708
0.00381673
0.00396461
0.00423515
0.00463079
0.00499994
0.00526828
0.00168899
0.00155988
0.00163474
0.00147259
0.00147472
0.00137057
0.00142558
0.00176968
0.00186882
0.00197035
0.00170484
0.00208854
0.0063613
0.00675317
0.00694109
0.0060999
0.00735337
0.00769398
0.00801018
0.00810466
0.00846599
0.00591969
0.00556343
0.00236261
0.00257408
0.00222714
0.00267252
0.00285246
0.00345427
0.00330556
0.00303657
0.00370986
0.00404249
0.00432539
0.00452643
0.00520374
0.00499272
0.00548366
0.00162529
0.00149938
0.00157516
0.00140884
0.00141054
0.00141348
0.00137235
0.00171376
0.00179816
0.00191448
0.00163649
0.00203456
0.00654563
0.00701528
0.00723788
0.00637964
0.00759552
0.00796586
0.00818447
0.00841078
0.00885618
0.00600953
0.00583262
0.00224604
0.00246539
0.00218239
0.00272759
0.00291305
0.00355661
0.00327208
0.00313958
0.00377447
0.00394788
0.00422365
0.00463832
0.00536999
0.00522482
0.00485504
0.00565666
0.00157003
0.00143831
0.00151688
0.00137762
0.00139463
0.00162684
0.00135539
0.00163964
0.00173029
0.00178336
0.00184426
0.00195297
0.00157677
0.002082
0.00684092
0.00721568
0.00714412
0.00752103
0.006532
0.00795494
0.00812697
0.00848405
0.00871857
0.00925139
0.00630707
0.00590661
0.00220128
0.0024669
0.00267235
0.00286187
0.00353467
0.00369303
0.00339079
0.00308112
0.00403095
0.00431417
0.00450716
0.00560683
0.00533425
0.004942
0.00151042
0.00145263
0.00131895
0.001338
0.000849749
0.00126957
0.00159562
0.00168056
0.00172202
0.00179962
0.00188667
0.00152007
0.00200788
0.00697657
0.00702739
0.00751517
0.00749957
0.00778465
0.0068453
0.00817896
0.008492
0.00862237
0.00905473
0.00967606
0.00927039
0.0064055
0.00614619
0.00212314
0.0022787
0.00237057
0.00257882
0.00274796
0.00294471
0.00364992
0.00377587
0.00332979
0.00317035
0.00392511
0.00420963
0.00458356
0.00583071
0.0051486
0.00555282
0.00478297
0.00145967
0.0013989
0.00129911
0.00128171
0.00131191
0.000530485
0.00497294
0.00125566
0.00154377
0.00162209
0.00167488
0.00172986
0.00182191
0.00186454
0.00150237
0.00146849
0.00191854
0.00203792
0.00727551
0.00732401
0.00776042
0.00775673
0.00806736
0.00705121
0.00856616
0.00870833
0.00899242
0.00925216
0.0101256
0.00970576
0.00671006
0.00619496
0.00212507
0.0021943
0.0023835
0.00258005
0.00267649
0.00288524
0.00371315
0.00343714
0.00312406
0.00400497
0.00429579
0.00448447
0.00574734
0.0060885
0.00516668
0.00554213
0.00482291
0.00140149
0.00134393
0.00124818
0.00121422
0.00125623
0.00029343
0.00100758
0.00128196
0.00150336
0.00159689
0.0016251
0.00169345
0.00177639
0.0017918
0.00145943
0.00142355
0.00187897
0.00199625
0.00750185
0.00763486
0.00803021
0.00810697
0.00830109
0.0069851
0.00740202
0.00881852
0.00907814
0.00962704
0.0106023
0.0100888
0.00671305
0.00649529
0.00204115
0.00221699
0.00248255
0.00230824
0.0027442
0.00297164
0.00390063
0.0036059
0.00337106
0.00322621
0.00419197
0.00458333
0.00594377
0.00625528
0.00503027
0.00538532
0.00577437
0.00477015
0.00136328
0.00130098
0.00120305
0.00122537
0.00123108
0.000544081
0.00467356
0.00122723
0.00151132
0.00146235
0.00155202
0.00158334
0.00164473
0.00172445
0.00176329
0.0014193
0.00137913
0.00180679
0.0019211
0.00780485
0.00788739
0.00843363
0.00861485
0.0072985
0.00761545
0.00918594
0.0094214
0.00994815
0.0110334
0.0105086
0.00699947
0.00651112
0.00198116
0.00220188
0.00246627
0.00227603
0.00266789
0.00293255
0.00399087
0.00367655
0.00345907
0.00315884
0.00428656
0.00448818
0.00618505
0.00510803
0.00545798
0.00588161
0.0049172
0.00131106
0.0012563
0.00115204
0.00117326
0.00118744
0.000528242
0.00110427
0.00132021
0.00146292
0.00142641
0.00153571
0.00159869
0.00163226
0.00167462
0.00169234
0.00138338
0.00134283
0.00176408
0.0018553
0.00803491
0.00823368
0.00849266
0.00874248
0.00883345
0.00761379
0.00728914
0.00793634
0.00937002
0.00940674
0.00984203
0.010403
0.0114748
0.0110816
0.0109176
0.00700537
0.0067343
0.00202733
0.00187839
0.00213675
0.00255646
0.00235309
0.00273074
0.00304056
0.00283381
0.0041773
0.00385345
0.00360883
0.00338673
0.00323893
0.00459915
0.0063984
0.00529814
0.00568474
0.00614847
0.00482892
0.00128371
0.00121848
0.00113948
0.00113831
0.00115502
0.00116685
0.000436287
0.00108947
0.00476413
0.00143405
0.00142823
0.00138805
0.00150337
0.00155655
0.00157667
0.00166169
0.00134561
0.00130792
0.00170315
0.00178666
0.00835696
0.00886886
0.00906833
0.00925675
0.00792318
0.00760792
0.00818087
0.00977497
0.00983169
0.0102374
0.0107555
0.0119389
0.0115971
0.0112261
0.00725683
0.00668389
0.0019745
0.00183042
0.00216221
0.00253756
0.00234125
0.00262078
0.00295178
0.002845
0.00428077
0.00386452
0.00369611
0.00347473
0.00314778
0.00449221
0.00640392
0.00539216
0.00572475
0.00611723
0.00497665
0.00125247
0.00122004
0.00118519
0.00107876
0.00109291
0.00112077
0.00113413
0.000337925
0.0011299
0.00208043
0.00139027
0.00145921
0.00138762
0.00136054
0.00151813
0.00154031
0.00156088
0.00161079
0.00131356
0.00127867
0.0016661
0.00172549
0.00868531
0.00909396
0.00943749
0.0095597
0.00811346
0.00751919
0.00790519
0.00854921
0.0100812
0.0101874
0.0106726
0.0112007
0.0116879
0.00722019
0.00692823
0.00202118
0.00188073
0.00176189
0.00210646
0.00225584
0.00243564
0.00263028
0.00300101
0.00275205
0.00427047
0.00400821
0.00363362
0.00346985
0.00319768
0.00459925
0.00666241
0.00563433
0.00522533
0.00595581
0.00635215
0.00480014
0.0012507
0.00118642
0.00115646
0.00103815
0.00106598
0.00111209
0.00108345
0.0011298
0.000248854
0.000947208
0.000550684
0.00136457
0.00138036
0.00144088
0.0013609
0.00132259
0.00149359
0.00150319
0.0015278
0.0015876
0.00127982
0.00161352
0.00167708
0.00171253
0.00904543
0.00953893
0.00975884
0.00999
0.00848756
0.00773402
0.00805407
0.00884282
0.0105197
0.0105834
0.0110561
0.0116325
0.0120216
0.00748269
0.0068741
0.00196046
0.00183972
0.00170443
0.00213773
0.00222827
0.00240323
0.00257755
0.0029673
0.00273503
0.0041786
0.00445972
0.00388983
0.00373085
0.00333572
0.00361224
0.00306466
0.00677372
0.00578588
0.00534427
0.00602155
0.00659124
0.00621355
0.00486874
0.00122083
0.00115707
0.00118952
0.000999885
0.00101913
0.00108381
0.00106621
0.00110522
0.000105219
0.0010878
0.00478931
0.00133321
0.00140615
0.00134649
0.00146109
0.00133049
0.00130927
0.00147085
0.00148866
0.00154454
0.00125375
0.00159561
0.00162805
0.00166034
0.00938422
0.00977034
0.0102097
0.0103151
0.00878147
0.00839599
0.00803043
0.0092455
0.0108976
0.0110136
0.0115243
0.0120276
0.00764987
0.00715875
0.00188586
0.00199294
0.0017743
0.00165674
0.00171338
0.00208757
0.0022922
0.0024788
0.00263841
0.00283605
0.00428692
0.00447347
0.0039679
0.00334169
0.00368748
0.00307699
0.00704484
0.00566117
0.00527544
0.00670625
0.00636416
0.00508887
0.00465244
0.0012193
0.00113004
0.00116398
0.00095267
0.000995334
0.00106482
0.00104127
0.00107637
0.00110497
0.000186832
0.000888533
0.000993628
0.00117699
0.00132555
0.00130387
0.00138722
0.00133391
0.00143326
0.00130161
0.00128089
0.00143711
0.00146156
0.00146085
0.00151018
0.00125648
0.00155257
0.0016198
0.00949507
0.0101963
0.0105618
0.0107811
0.00910697
0.00865743
0.00832674
0.00946926
0.0114314
0.0114438
0.011941
0.00805385
0.0074125
0.00181671
0.00193617
0.00175986
0.0016147
0.00165588
0.0021352
0.00224254
0.0024601
0.00256172
0.00277757
0.00417741
0.0038787
0.00321012
0.00347778
0.00361095
0.00297428
0.00719913
0.00584228
0.00550369
0.0066617
0.00703721
0.00615622
0.00513599
0.00469362
0.00120965
0.00111943
0.00116412
0.00113696
0.000914522
0.00097098
0.00101689
0.00103611
0.0010554
0.00108674
6.94636e-05
0.00103998
0.000924574
7.75918e-05
0.00539997
0.0012954
0.00128434
0.00135342
0.00140184
0.00130449
0.00126764
0.00125857
0.00141506
0.00142491
0.00142584
0.00147127
0.00151505
0.0012303
0.00153612
0.00157403
0.00997772
0.0105618
0.0103092
0.0110229
0.0111451
0.00904764
0.00865705
0.00836268
0.00983502
0.0118885
0.00812217
0.0074877
0.00183937
0.00197925
0.00168364
0.00158142
0.00157441
0.0016344
0.0016042
0.00208108
0.00230569
0.00240831
0.00257334
0.00286799
0.00266895
0.00427253
0.00397837
0.00320496
0.00345578
0.003713
0.00298411
0.00574089
0.00535869
0.00689471
0.00720833
0.00627761
0.00495865
0.00460765
0.00118543
0.00109301
0.00113958
0.00112437
0.000937794
0.000884765
0.000973546
0.000994101
0.00101962
0.0010613
0.00103095
0.000681583
0.000960742
3.18367e-05
0.00122367
0.0012852
0.001262
0.00133603
0.00137797
0.00128368
0.00124976
0.00123447
0.00138521
0.00140755
0.00140238
0.00144236
0.00147138
0.00122011
0.00149792
0.0100995
0.0110236
0.0107969
0.0113646
0.011628
0.00940503
0.00898242
0.00873867
0.0100242
0.00777748
0.00848372
0.00178324
0.00192544
0.00165211
0.00153613
0.00153735
0.00157656
0.00156447
0.00213493
0.00224241
0.00246179
0.0027946
0.00268796
0.00414812
0.00444741
0.00385875
0.00308524
0.0033268
0.00357693
0.00284898
0.00592706
0.00549113
0.00681703
0.00748865
0.00657726
0.00618566
0.00496161
0.00475136
0.00117906
0.00107724
0.00113654
0.00110547
0.000921242
0.0008593
0.000953177
0.000980794
0.000993956
0.00104522
0.00101233
0.000783179
0.000918025
0.000130936
0.00503128
0.00126142
0.00123863
0.00135286
0.00131356
0.00125762
0.00129062
0.00122663
0.00121
0.00136375
0.00137447
0.00136864
0.00141079
0.00144243
0.00146031
0.0011962
0.00150111
0.01055
0.0113597
0.0111522
0.0109203
0.0117337
0.0119257
0.00984351
0.00933013
0.00895713
0.0105203
0.00783789
0.00849085
0.00880121
0.00182697
0.00170825
0.00197176
0.00159118
0.00150597
0.00152663
0.00152282
0.00207447
0.00229632
0.00241356
0.00259077
0.0042016
0.00438499
0.00393354
0.0030925
0.00331296
0.00357925
0.00283479
0.0057861
0.00539239
0.00712431
0.00777293
0.00742871
0.00663725
0.00636463
0.00515266
0.00469208
0.00115552
0.00105444
0.00108533
0.00111379
0.0010995
0.000903192
0.00093446
0.000816059
0.000876172
0.000952778
0.000980919
0.00102717
0.000991406
0.00101222
0.000670339
0.000861579
3.48796e-05
0.00140171
0.00124731
0.00123943
0.00121993
0.00133227
0.001311
0.00124108
0.00126795
0.00120654
0.001191
0.00133667
0.00135388
0.00135243
0.00139326
0.00140773
0.00142866
0.00146204
0.0117218
0.011628
0.0114429
0.0119833
0.0101618
0.00966042
0.00944678
0.0108994
0.00825007
0.00882792
0.00911915
0.00178762
0.00164597
0.001928
0.00158753
0.00153602
0.00145909
0.00147509
0.00147877
0.00212113
0.00229448
0.00248241
0.00260557
0.00413005
0.00449453
0.0038777
0.00295781
0.00320806
0.00344265
0.00371971
0.00271644
0.00594146
0.00557661
0.00713676
0.0080324
0.00771726
0.00687386
0.00624975
0.00506498
0.00484287
0.00114299
0.0010453
0.00107234
0.00110794
0.00107915
0.000902118
0.000916364
0.000804338
0.000859134
0.000943636
0.000960781
0.00101719
0.000983024
0.000994931
0.000788
0.000828497
8.3963e-05
0.000436722
0.00557613
0.00122144
0.00121831
0.00119937
0.00129115
0.00122195
0.00124709
0.00126845
0.00118269
0.00117016
0.00131772
0.00132638
0.00136931
0.00132948
0.0013814
0.0013938
0.00143208
0.0119214
0.0118985
0.0114154
0.0106035
0.010069
0.0097163
0.0109071
0.00831426
0.0089023
0.00949969
0.0017184
0.00184347
0.00165067
0.00197385
0.00154157
0.00148048
0.00144487
0.00145114
0.00143067
0.00205329
0.00221544
0.00239224
0.00250178
0.0042478
0.0044338
0.004012
0.00292034
0.00325769
0.00341554
0.00368924
0.0026937
0.00584719
0.00546691
0.00742489
0.00797423
0.00785853
0.00688909
0.00644318
0.00521981
0.00475843
0.00115292
0.00112369
0.0010565
0.00102673
0.00109179
0.00106686
0.000883888
0.000902139
0.000839666
0.000790731
0.000866395
0.000926419
0.000947297
0.00099803
0.000966718
0.000813478
0.000773624
0.000132188
0.000457102
0.00133992
0.00120863
0.00119947
0.00117975
0.00129379
0.00120714
0.00122816
0.00124788
0.00116471
0.00130193
0.00134622
0.00130322
0.00132802
0.00134363
0.00137679
0.0013958
0.0119146
0.0107831
0.0103717
0.0101811
0.011451
0.00858034
0.00926927
0.00978012
0.00169755
0.00181436
0.0015947
0.00192647
0.00154423
0.00148289
0.00143383
0.00140996
0.0014074
0.00139654
0.00206245
0.00222132
0.00240184
0.00249237
0.00418485
0.00456084
0.00397234
0.00279454
0.0030288
0.00317639
0.00353248
0.00381881
0.00259005
0.00604705
0.00561905
0.00719074
0.00769264
0.00829548
0.0081904
0.00673165
0.00633487
0.00511404
0.00488976
0.00113326
0.00112006
0.00104123
0.0010265
0.00108793
0.00107527
0.00104807
0.00087957
0.000909581
0.00082691
0.000764198
0.000809032
0.000846556
0.000922158
0.000932265
0.000951148
0.000989442
0.000961815
0.000803592
0.000746102
0.000207316
0.000630293
0.00501063
0.00119166
0.00117733
0.00115981
0.00127639
0.00119104
0.00121049
0.00122826
0.00125224
0.00114394
0.00127996
0.00132674
0.00128371
0.00130452
0.00133091
0.00135206
0.00138201
0.0111592
0.0104412
0.0104031
0.011501
0.009261
0.00966152
0.0102542
0.00161677
0.00174331
0.00185868
0.00196692
0.00149151
0.00145666
0.00138533
0.00137457
0.00137284
0.00135753
0.00213655
0.00230823
0.00240063
0.00430543
0.00448334
0.00409746
0.00276892
0.00296927
0.00326191
0.003527
0.00381229
0.00259099
0.00589547
0.00549983
0.00720174
0.00787859
0.00841421
0.00824503
0.00687255
0.00653444
0.00525427
0.00479225
0.00112776
0.00110068
0.00103553
0.00101426
0.00107284
0.00106614
0.00104236
0.000871535
0.00089968
0.000828033
0.000771505
0.000794884
0.000841102
0.000906718
0.000921504
0.000938209
0.00100166
0.000974381
0.000946562
0.000784831
0.000729446
0.000737942
0.000140394
0.000679613
0.00108724
0.00117531
0.0011647
0.00115994
0.00114161
0.00117662
0.00119339
0.00120853
0.00124401
0.00125918
0.00129833
0.00128601
0.00126127
0.00131028
0.00133138
0.001346
0.0112836
0.0109326
0.0108561
0.0119654
0.00909773
0.00975533
0.0100182
0.0105641
0.00158912
0.00172222
0.00177835
0.00196478
0.0014404
0.00141309
0.00134982
0.00137437
0.00134331
0.00133061
0.00132272
0.00213507
0.00230926
0.00240937
0.00423955
0.00459678
0.00410049
0.00286228
0.0026873
0.00304822
0.00340639
0.00317921
0.00367522
0.00395714
0.00250545
0.00605195
0.00564482
0.00746329
0.00778035
0.00875172
0.00852722
0.00685811
0.00637999
0.00513779
0.004913
0.00110735
0.00109261
0.00101818
0.00100885
0.00105824
0.00105293
0.00102774
0.000856403
0.000884394
0.000812531
0.000754401
0.000786264
0.000829215
0.000906839
0.000924833
0.00093666
0.000991747
0.000977597
0.000937076
0.00075793
0.000698911
0.000720716
0.000234636
0.000478953
0.00478373
0.0011563
0.00114517
0.0011415
0.00112481
0.00117732
0.00115725
0.00119132
0.00120863
0.00122628
0.00124819
0.00127734
0.00126557
0.00125322
0.00128544
0.00131131
0.00132141
0.0117102
0.0110381
0.0111104
0.00941532
0.0099605
0.0104369
0.0110242
0.00151798
0.00164644
0.00179704
0.00189427
0.00205621
0.00145422
0.00138298
0.00137486
0.00131069
0.00133275
0.00131328
0.00130376
0.00129069
0.0022238
0.00233073
0.00434812
0.00450346
0.00423792
0.00281166
0.00271574
0.00299105
0.00341902
0.00323643
0.00366464
0.00396109
0.00253037
0.00591769
0.00550794
0.0075007
0.00809635
0.00873798
0.00715595
0.00657618
0.00526551
0.00479757
0.00110658
0.00107354
0.00101578
0.000994145
0.00104177
0.00105838
0.00103972
0.00102693
0.000850423
0.000873198
0.000798058
0.000814819
0.000748805
0.000772396
0.000834259
0.000898732
0.000915545
0.000920839
0.000968713
0.000920159
0.000944352
0.000717977
0.000701819
0.000675753
0.000720774
0.000172322
0.000443326
0.00211414
0.00114249
0.00113313
0.00112644
0.0011636
0.00114362
0.0011743
0.00119122
0.0012142
0.0012236
0.00124648
0.00124229
0.00123393
0.00126967
0.00129428
0.00129797
0.0119145
0.0115325
0.011575
0.00980782
0.00916656
0.0103806
0.0108043
0.0113526
0.00149319
0.00161481
0.00174308
0.00191891
0.00207147
0.00138401
0.0013384
0.00133624
0.001302
0.00128444
0.00129169
0.0012709
0.00125716
0.00223527
0.00235157
0.0045975
0.0043062
0.00287207
0.00262863
0.00306595
0.00354776
0.00335758
0.00319205
0.003805
0.00413309
0.00244024
0.00607679
0.00563411
0.00780392
0.00842749
0.00867884
0.00713357
0.00688903
0.00636996
0.00511785
0.00489919
0.00109341
0.00106658
0.000999119
0.000988317
0.00102978
0.00104224
0.00101448
0.000858771
0.00087704
0.000786147
0.000803185
0.000735694
0.000760352
0.000772429
0.00083176
0.000887907
0.000904936
0.000974332
0.000957492
0.00091329
0.000934614
0.00070674
0.000687889
0.000659908
0.000707893
0.000225227
0.000522554
0.000823269
0.00112719
0.00111508
0.00111059
0.00114876
0.00116153
0.00112976
0.00117565
0.00119328
0.00121766
0.00123279
0.0012191
0.00121703
0.00124764
0.00127604
0.00127341
0.0119423
0.0100738
0.00935652
0.010693
0.0104749
0.0112794
0.0117452
0.00142876
0.00154838
0.00166953
0.00178238
0.00201412
0.00186942
0.00216544
0.00136745
0.001335
0.0012887
0.00129356
0.00126301
0.00124968
0.00126418
0.00127329
0.00124497
0.00125923
0.00123676
0.00227694
0.00448876
0.00275183
0.00263471
0.00294161
0.00352306
0.0034149
0.00328177
0.00380883
0.00415438
0.00242677
0.00589084
0.00540545
0.00789739
0.00857392
0.00904846
0.00747567
0.00696713
0.00649124
0.00519312
0.00483135
0.00109809
0.00107893
0.00105237
0.000992823
0.00101694
0.00103108
0.00103914
0.00100931
0.00100238
0.00085633
0.000865545
0.00078836
0.000807049
0.000735452
0.000746869
0.000762416
0.000843733
0.000819261
0.000882523
0.000890445
0.000964802
0.000949837
0.000922794
0.000901372
0.000937465
0.000652605
0.000652924
0.000692329
0.000671896
0.000636369
0.000710332
9.22316e-05
0.000444491
5.34627e-05
0.0051853
0.00111385
0.00111222
0.00110335
0.00113936
0.00114508
0.00111539
0.00111994
0.0011574
0.00118426
0.00119731
0.00121031
0.00119943
0.00119678
0.00123978
0.00125332
0.00125084
0.0100716
0.00975649
0.0111489
0.0108259
0.0116197
0.0119701
0.00143506
0.00155933
0.00162456
0.00174686
0.00205854
0.0019135
0.00219287
0.00130979
0.0012802
0.0012563
0.00125813
0.00123802
0.0012544
0.00121812
0.0012297
0.00121619
0.00224717
0.0046046
0.00278453
0.00252197
0.00364513
0.00397058
0.00435181
0.002321
0.00600743
0.00542841
0.00829888
0.00776639
0.00891836
0.0091656
0.00729616
0.00681239
0.00630753
0.00497357
0.0010841
0.00107526
0.00105078
0.000980688
0.00101014
0.00101742
0.0010299
0.000995815
0.000993185
0.000868859
0.000780314
0.000795682
0.000723806
0.000747626
0.000766574
0.000834733
0.000814534
0.000887418
0.000952774
0.000969147
0.000912774
0.000895898
0.0009344
0.000626012
0.000663371
0.000679849
0.000659737
0.000641857
0.000702174
0.000556137
0.00011152
0.00165399
0.00109854
0.00109566
0.00108728
0.00112487
0.00114297
0.00110321
0.00110565
0.00115094
0.00116499
0.00118665
0.00120549
0.00119481
0.0011809
0.00118001
0.00122051
0.00123049
0.0105288
0.00989346
0.0115887
0.0109391
0.0118583
0.00150247
0.00137912
0.0016645
0.00178617
0.00199509
0.00213953
0.00185523
0.0012566
0.0013187
0.00124136
0.00121657
0.00122149
0.00120459
0.00123221
0.00121129
0.00118832
0.00121459
0.00118514
0.00119609
0.00216722
0.00455215
0.00592218
0.00518586
0.00568346
0.00833206
0.00798581
0.00905103
0.00955602
0.00746354
0.00698458
0.006418
0.00496979
0.00107722
0.00106105
0.00103685
0.000975537
0.000996291
0.00101771
0.000989213
0.000981621
0.000860184
0.000785607
0.00079351
0.00071991
0.000739562
0.000765428
0.000839669
0.000823248
0.000803336
0.00087917
0.000943598
0.000961114
0.000913443
0.000901223
0.000884624
0.000924772
0.000616258
0.000631303
0.000681773
0.000667684
0.000656214
0.000629857
0.000692909
0.00070717
0.000577243
0.000398085
0.000353505
0.00568917
0.0010863
0.00108482
0.0011163
0.00112535
0.00108968
0.00109581
0.00113271
0.0011581
0.00116991
0.00118964
0.00117166
0.00116561
0.0011629
0.00120616
0.00121097
0.0105677
0.0102724
0.0118997
0.0114409
0.00150939
0.00139189
0.00163072
0.00173345
0.00200255
0.00185109
0.00120625
0.00126793
0.00118882
0.00120003
0.00117245
0.00119565
0.00118494
0.0011916
0.00117635
0.00119232
0.00117803
0.00208642
0.004747
0.00614097
0.00862092
0.00798433
0.00948626
0.0089695
0.00731252
0.00782003
0.00671426
0.00106387
0.0010532
0.00102661
0.000963996
0.0009884
0.0010068
0.00097816
0.0009742
0.000849906
0.000867937
0.000775112
0.000783333
0.000728132
0.000746209
0.00075593
0.000829868
0.000821447
0.000802625
0.00094918
0.000906357
0.000894323
0.000878017
0.000922725
0.000605053
0.000610406
0.000674418
0.000659021
0.000645072
0.000632162
0.000688605
0.00070595
0.000597862
5.55975e-05
0.000373782
0.0022702
0.00107045
0.00106985
0.00110128
0.0011198
0.00107754
0.00107999
0.00112948
0.00114247
0.00115531
0.00117077
0.00117715
0.00114961
0.00114824
0.00115073
0.00118453
0.00119023
0.0110034
0.0104205
0.0114491
0.00145668
0.00157088
0.00136117
0.00167309
0.00175876
0.00191879
0.00121365
0.00117217
0.00125932
0.00115541
0.00116286
0.00114704
0.00116422
0.00115525
0.00117209
0.00115891
0.00117222
0.00115604
0.00837546
0.00977315
0.00933212
0.00751898
0.00801799
0.00683196
0.00106007
0.00104423
0.00103082
0.00101353
0.000956378
0.000996771
0.00097891
0.00100535
0.000967308
0.000961307
0.000850798
0.000860505
0.000773417
0.000783704
0.000726817
0.000735045
0.000754372
0.000831134
0.000812334
0.000793463
0.000941483
0.000897288
0.000910985
0.000882933
0.00086595
0.0009306
0.000590555
0.000609665
0.00058935
0.000598828
0.000678013
0.000663025
0.000647056
0.000621564
0.000694744
0.000715518
0.000577359
0.000167683
0.000652769
0.000470126
0.00608965
0.0010615
0.00106167
0.00109001
0.00110602
0.00106631
0.0010708
0.0011127
0.00114189
0.00115909
0.00116348
0.00113442
0.00113487
0.00113388
0.0011771
0.0108666
0.0101564
0.0119049
0.00143971
0.00155357
0.0013895
0.00130637
0.0016056
0.0011725
0.00112757
0.00119724
0.00110582
0.00114673
0.00111541
0.0011444
0.00114216
0.00115715
0.00115998
0.0011402
0.00115243
0.0011375
0.00851814
0.00975079
0.00922233
0.00721309
0.00784677
0.00831965
0.00104852
0.00102208
0.00100238
0.000945026
0.000991018
0.000981107
0.00096863
0.000994747
0.000957259
0.000841271
0.000764007
0.000775115
0.000735131
0.000746699
0.000821796
0.00081255
0.000794025
0.000887196
0.000905972
0.000879449
0.000858308
0.000921298
0.000587077
0.000596891
0.000570854
0.000575807
0.00067121
0.00065453
0.000638857
0.000625336
0.000687918
0.000712554
0.000560315
0.000563804
0.000165426
0.00010714
0.000464708
0.00258744
0.00104731
0.00105031
0.00107791
0.00109321
0.00110124
0.00105465
0.00106117
0.00111327
0.00112855
0.00114487
0.00114813
0.00111975
0.00113227
0.00112703
0.00112085
0.00112359
0.00115609
0.0111489
0.0103486
0.0116276
0.00148865
0.00133447
0.00128853
0.00112778
0.00109135
0.00116032
0.00107403
0.00111547
0.00109863
0.0010863
0.00111686
0.00111813
0.00114196
0.00113519
0.00111944
0.00113436
0.00111317
0.00884851
0.0100656
0.00957006
0.00803154
0.00839905
0.00103729
0.00101367
0.00102703
0.000990835
0.00100346
0.000934651
0.000974096
0.000958114
0.000987445
0.000948618
0.000839934
0.000765385
0.000776185
0.000731423
0.000748342
0.000822764
0.000803266
0.000785649
0.000887673
0.000896398
0.00091206
0.000870857
0.00084865
0.000862031
0.000923417
0.000576661
0.000594717
0.000565246
0.000658698
0.00067585
0.000642625
0.000617365
0.000693277
0.000722721
0.000704145
0.000543148
0.000546003
0.000314772
2.36912e-05
0.000510569
0.00231039
0.00104195
0.00103645
0.00104724
0.00107066
0.0010829
0.00108665
0.00104529
0.00105021
0.00106069
0.00110038
0.00113874
0.00114117
0.00110844
0.00111436
0.00111214
0.00110899
0.0011107
0.010762
0.0119191
0.00123734
0.00108188
0.00105416
0.0011115
0.00118366
0.00103936
0.00110147
0.00107016
0.00105711
0.0011048
0.00110345
0.00112445
0.00112609
0.00110484
0.00111653
0.00868472
0.0102838
0.00999652
0.0093708
0.00101052
0.00101653
0.000982182
0.000997104
0.00093235
0.000965675
0.000977322
0.000949714
0.000957459
0.000939487
0.000831733
0.000756861
0.000769529
0.00073887
0.000819119
0.000802261
0.000785075
0.000877528
0.000894466
0.000902827
0.000869897
0.000846324
0.000853718
0.00091676
0.000568448
0.000606064
0.000584654
0.000555622
0.000653322
0.000670561
0.000633816
0.000622317
0.000687716
0.000721498
0.000705812
0.000529797
0.000544821
0.000536278
0.000517777
0.000355144
8.03061e-08
0.000460935
0.00153089
0.000539088
0.00103173
0.00102313
0.001036
0.00107303
0.00107789
0.00103189
0.00104283
0.00105439
0.00108606
0.00109902
0.00112438
0.00112222
0.00109729
0.00111092
0.00110425
0.00109811
0.0107743
0.0119179
0.00104741
0.00105049
0.0010134
0.00109521
0.0010676
0.00113322
0.00103293
0.00100894
0.00107588
0.00104944
0.00105873
0.00108178
0.00108261
0.00111177
0.00111194
0.00108645
0.00111012
0.00110042
0.00895699
0.0103301
0.0100979
0.00965893
0.00100102
0.00101419
0.000985723
0.000973711
0.000921184
0.00095953
0.000971389
0.000940499
0.000949395
0.000934871
0.00082426
0.000759212
0.000771084
0.000738111
0.00081098
0.00079374
0.000778386
0.000873374
0.000887033
0.000901027
0.000861236
0.000839432
0.000853747
0.000908248
0.000572995
0.000557801
0.000600153
0.000583278
0.000645705
0.000661016
0.000677014
0.00063618
0.000616259
0.000692775
0.000714619
0.000729201
0.000701507
0.000524528
0.000535597
0.000509187
0.000501461
0.000209166
0.000479109