/*--------------------------------*- C++ -*----------------------------------*\
| =========                 |                                                 |
| \\      /  F ield         | OpenFOAM: The Open Source CFD Toolbox           |
|  \\    /   O peration     | Version:  v2012                                 |
|   \\  /    A nd           | Website:  www.openfoam.com                      |
|    \\/     M anipulation  |                                                 |
\*---------------------------------------------------------------------------*/
FoamFile
{
    version     2.0;
    format      ascii;
    class       volScalarField;
    location    "3";
    object      nut;
}
// * * * * * * * * * * * * * * * * * * * * * * * * * * * * * * * * * * * * * //

dimensions      [0 2 -1 0 0 0 0];


internalField   nonuniform List<scalar> 
27222
(
1.82985e-05
1.80245e-05
1.92896e-05
1.86711e-05
1.73301e-05
2.00071e-05
1.94672e-05
1.84432e-05
1.65914e-05
1.71641e-05
2.09461e-05
2.02625e-05
1.77285e-05
1.91637e-05
1.58933e-05
1.66384e-05
2.10691e-05
2.1844e-05
2.04682e-05
1.70554e-05
1.86508e-05
2.00426e-05
1.52225e-05
1.59597e-05
1.65388e-05
2.20466e-05
2.2875e-05
2.14517e-05
1.70911e-05
1.78328e-05
1.91488e-05
2.04922e-05
1.45521e-05
1.55179e-05
1.58047e-05
2.21924e-05
2.29393e-05
2.389e-05
2.14521e-05
1.63149e-05
1.7634e-05
1.89986e-05
1.99218e-05
2.03144e-05
1.44428e-05
1.39215e-05
1.497e-05
1.56724e-05
2.31813e-05
2.3929e-05
2.50049e-05
2.21577e-05
1.62335e-05
1.82622e-05
1.68964e-05
1.96831e-05
2.04209e-05
2.12047e-05
1.39279e-05
1.336e-05
1.43898e-05
1.49865e-05
2.40906e-05
2.31123e-05
2.48366e-05
2.62027e-05
2.19815e-05
1.5524e-05
1.81512e-05
1.67497e-05
1.97074e-05
2.11124e-05
1.39075e-05
1.34004e-05
1.27664e-05
1.43789e-05
1.49209e-05
2.50361e-05
2.39298e-05
2.58612e-05
2.74234e-05
2.27829e-05
1.54992e-05
1.73584e-05
1.87816e-05
1.61418e-05
2.04077e-05
2.19084e-05
1.33864e-05
1.29674e-05
1.22908e-05
1.37249e-05
1.41928e-05
2.531e-05
2.36453e-05
2.47699e-05
2.68873e-05
2.77478e-05
2.86229e-05
2.29051e-05
1.50856e-05
1.70401e-05
1.8577e-05
1.58811e-05
2.00332e-05
2.10188e-05
2.18375e-05
1.32577e-05
1.29667e-05
1.24067e-05
1.16804e-05
1.36377e-05
1.40018e-05
2.64195e-05
2.4436e-05
2.52342e-05
2.73516e-05
2.9098e-05
2.99789e-05
2.38412e-05
1.45998e-05
1.52918e-05
1.63087e-05
1.75399e-05
1.82332e-05
1.94312e-05
2.05777e-05
2.28083e-05
1.26308e-05
1.24575e-05
1.21754e-05
1.13879e-05
1.30852e-05
1.35796e-05
2.61696e-05
2.48268e-05
2.84435e-05
3.018e-05
2.92125e-05
3.12476e-05
2.38661e-05
1.4225e-05
1.47791e-05
1.62887e-05
1.69353e-05
1.87277e-05
1.95046e-05
2.12394e-05
2.29459e-05
1.25495e-05
1.22583e-05
1.16865e-05
1.0918e-05
1.27693e-05
1.30412e-05
1.37189e-05
2.7076e-05
2.58525e-05
2.89929e-05
3.14399e-05
3.04254e-05
3.27157e-05
2.49561e-05
1.4264e-05
1.49693e-05
1.57053e-05
1.72277e-05
1.81549e-05
2.01687e-05
2.21348e-05
2.09271e-05
2.40217e-05
1.21535e-05
1.17053e-05
1.14392e-05
1.07126e-05
1.04777e-05
1.22414e-05
1.26203e-05
1.34176e-05
2.84469e-05
2.67562e-05
2.59707e-05
3.03967e-05
3.26015e-05
3.14208e-05
3.42351e-05
2.50627e-05
1.36555e-05
1.45889e-05
1.56719e-05
1.69958e-05
1.84608e-05
1.98893e-05
2.21765e-05
2.14072e-05
2.40021e-05
1.16512e-05
1.13904e-05
1.09719e-05
1.02708e-05
1.00718e-05
1.19048e-05
1.21119e-05
1.28258e-05
2.9479e-05
2.77142e-05
2.70058e-05
3.14591e-05
3.38434e-05
3.26486e-05
3.56468e-05
2.6098e-05
1.35442e-05
1.49105e-05
1.40538e-05
1.62727e-05
1.75833e-05
1.82803e-05
1.93116e-05
2.06817e-05
2.30214e-05
2.51024e-05
1.13195e-05
1.08343e-05
1.06526e-05
9.96538e-06
1.00004e-05
9.62098e-06
1.14605e-05
1.16582e-05
1.25975e-05
2.88316e-05
3.08229e-05
2.75945e-05
3.14744e-05
3.297e-05
3.51172e-05
3.69657e-05
3.59632e-05
2.70471e-05
2.60688e-05
1.30165e-05
1.46674e-05
1.35898e-05
1.61829e-05
1.73725e-05
1.88184e-05
1.95391e-05
2.1043e-05
2.3188e-05
2.51773e-05
1.08413e-05
1.05769e-05
1.01856e-05
9.53128e-06
9.56753e-06
9.34227e-06
1.10307e-05
1.16172e-05
1.11623e-05
1.20798e-05
2.95945e-05
3.17118e-05
2.8953e-05
3.30348e-05
3.43647e-05
3.59308e-05
3.85001e-05
3.74827e-05
2.77955e-05
2.70187e-05
1.30834e-05
1.4157e-05
1.51972e-05
1.36419e-05
1.67448e-05
1.56915e-05
1.79371e-05
1.87544e-05
2.02524e-05
2.19584e-05
2.43117e-05
2.27408e-05
2.62938e-05
1.06995e-05
1.00642e-05
9.86669e-06
9.33477e-06
9.33941e-06
8.9134e-06
1.11767e-05
1.08139e-05
1.21009e-05
3.10654e-05
3.31128e-05
2.96436e-05
3.41964e-05
3.5839e-05
3.76966e-05
3.99726e-05
2.88827e-05
2.75596e-05
1.26342e-05
1.42836e-05
1.47885e-05
1.31323e-05
1.61762e-05
1.56647e-05
1.78114e-05
1.94152e-05
2.02324e-05
2.18229e-05
2.42626e-05
2.33499e-05
2.60898e-05
2.73203e-05
1.0332e-05
9.77075e-06
9.49143e-06
8.91078e-06
8.9535e-06
8.64201e-06
1.0842e-05
1.09553e-05
1.03895e-05
1.17049e-05
3.19901e-05
3.44058e-05
3.09941e-05
3.55772e-05
3.73135e-05
3.91667e-05
4.06427e-05
4.12434e-05
2.94421e-05
2.88154e-05
1.26224e-05
1.38037e-05
1.49912e-05
1.29536e-05
1.64395e-05
1.85482e-05
1.72316e-05
1.92676e-05
2.09719e-05
2.25159e-05
2.50676e-05
2.3276e-05
2.69991e-05
2.82807e-05
9.99042e-06
1.01353e-05
9.41712e-06
9.05452e-06
8.7394e-06
8.80129e-06
8.39302e-06
1.05022e-05
1.05464e-05
1.12286e-05
1.02297e-05
1.18059e-05
3.34399e-05
3.45574e-05
3.58376e-05
3.14926e-05
3.68591e-05
3.86835e-05
3.96186e-05
4.22197e-05
4.32638e-05
3.07711e-05
2.94113e-05
1.22752e-05
1.37669e-05
1.32766e-05
1.47795e-05
1.2416e-05
1.59314e-05
1.85893e-05
1.74388e-05
1.99428e-05
2.06569e-05
2.26285e-05
2.49321e-05
2.40695e-05
2.68836e-05
2.81927e-05
9.69828e-06
9.74669e-06
9.0211e-06
9.4101e-06
8.33949e-06
8.4352e-06
7.00394e-06
8.2916e-06
1.02467e-05
1.08392e-05
9.88031e-06
1.14731e-05
3.37559e-05
3.61518e-05
3.72908e-05
3.30296e-05
3.81429e-05
3.94414e-05
4.14482e-05
4.28393e-05
4.33106e-05
4.50583e-05
3.15516e-05
3.05508e-05
1.31485e-05
1.42288e-05
1.2924e-05
1.53063e-05
1.21391e-05
1.61946e-05
1.93361e-05
1.811e-05
1.68895e-05
1.99678e-05
2.12462e-05
2.20694e-05
2.35753e-05
2.57777e-05
2.78327e-05
2.93264e-05
9.40194e-06
8.68317e-06
9.10012e-06
8.19725e-06
8.20928e-06
7.62945e-06
7.9357e-06
9.85102e-06
1.0403e-05
1.09682e-05
9.49014e-06
1.16262e-05
3.54108e-05
3.75922e-05
3.86382e-05
3.39557e-05
4.09333e-05
4.28293e-05
4.45894e-05
4.51146e-05
4.71272e-05
3.29525e-05
3.09694e-05
1.31516e-05
1.43288e-05
1.23976e-05
1.48769e-05
1.58785e-05
1.92285e-05
1.84008e-05
1.69033e-05
2.06513e-05
2.25029e-05
2.40777e-05
2.51968e-05
2.89671e-05
2.77924e-05
3.05253e-05
9.0472e-06
8.34644e-06
8.76819e-06
7.84247e-06
7.84929e-06
7.86628e-06
7.63926e-06
9.53982e-06
1.00096e-05
1.06571e-05
9.1097e-06
1.13255e-05
3.64369e-05
3.90512e-05
4.02903e-05
3.55129e-05
4.22812e-05
4.43427e-05
4.55599e-05
4.68113e-05
4.92955e-05
3.34526e-05
3.24679e-05
1.25028e-05
1.37239e-05
1.21484e-05
1.51833e-05
1.62158e-05
1.97982e-05
1.82142e-05
1.74768e-05
2.1011e-05
2.19762e-05
2.35113e-05
2.58196e-05
2.98925e-05
2.90845e-05
2.7026e-05
3.14883e-05
8.73987e-06
8.00651e-06
8.44383e-06
7.66843e-06
7.76334e-06
9.05588e-06
7.54492e-06
9.12722e-06
9.63185e-06
9.92729e-06
1.02663e-05
1.08715e-05
8.77711e-06
1.15897e-05
3.80806e-05
4.01668e-05
3.97682e-05
4.18663e-05
3.6361e-05
4.42819e-05
4.52396e-05
4.7227e-05
4.85328e-05
5.14985e-05
3.51089e-05
3.28797e-05
1.22537e-05
1.37321e-05
1.48759e-05
1.59309e-05
1.96761e-05
2.05576e-05
1.88751e-05
1.71514e-05
2.24387e-05
2.40153e-05
2.50895e-05
3.1211e-05
2.96936e-05
2.75101e-05
8.40778e-06
8.08621e-06
7.34207e-06
7.44664e-06
4.72987e-06
7.06713e-06
8.88211e-06
9.35502e-06
9.58577e-06
1.00178e-05
1.05022e-05
8.4617e-06
1.11771e-05
3.88358e-05
3.91186e-05
4.18339e-05
4.17473e-05
4.3334e-05
3.8105e-05
4.5529e-05
4.72715e-05
4.79973e-05
5.04038e-05
5.38582e-05
5.15956e-05
3.56568e-05
3.42134e-05
1.18187e-05
1.26845e-05
1.31961e-05
1.43553e-05
1.52968e-05
1.6392e-05
2.03175e-05
2.10188e-05
1.85355e-05
1.76481e-05
2.18495e-05
2.34333e-05
2.55148e-05
3.24572e-05
2.86602e-05
3.09103e-05
2.66249e-05
8.12542e-06
7.78704e-06
7.23089e-06
7.13476e-06
7.30291e-06
2.95301e-06
2.76775e-05
6.98975e-06
8.59353e-06
9.0295e-06
9.32339e-06
9.62939e-06
1.01418e-05
1.03793e-05
8.36302e-06
8.17447e-06
1.06796e-05
1.13443e-05
4.04998e-05
4.07696e-05
4.31991e-05
4.31783e-05
4.49077e-05
3.92513e-05
4.76844e-05
4.84758e-05
5.00571e-05
5.15027e-05
5.63659e-05
5.40277e-05
3.73522e-05
3.44848e-05
1.18293e-05
1.22149e-05
1.3268e-05
1.43621e-05
1.48989e-05
1.6061e-05
2.06696e-05
1.91332e-05
1.73904e-05
2.22941e-05
2.39129e-05
2.49632e-05
3.19931e-05
3.38922e-05
2.87608e-05
3.08508e-05
2.68472e-05
7.80148e-06
7.48117e-06
6.9481e-06
6.75907e-06
6.99138e-06
1.63341e-06
5.60844e-06
7.13606e-06
8.36872e-06
8.88918e-06
9.0463e-06
9.42684e-06
9.88842e-06
9.97411e-06
8.12425e-06
7.92435e-06
1.04596e-05
1.11123e-05
4.17598e-05
4.25004e-05
4.47009e-05
4.51282e-05
4.62088e-05
3.88833e-05
4.12041e-05
4.90891e-05
5.05344e-05
5.35898e-05
5.90148e-05
5.61525e-05
3.73688e-05
3.61567e-05
1.13622e-05
1.23409e-05
1.38194e-05
1.28492e-05
1.52758e-05
1.65419e-05
2.17131e-05
2.00725e-05
1.87654e-05
1.7959e-05
2.3335e-05
2.55136e-05
3.30866e-05
3.48206e-05
2.80015e-05
2.99779e-05
3.21436e-05
2.65535e-05
7.58874e-06
7.24201e-06
6.6969e-06
6.82036e-06
6.85294e-06
3.02868e-06
2.60112e-05
6.83151e-06
8.41288e-06
8.14013e-06
8.63949e-06
8.81383e-06
9.15538e-06
9.59934e-06
9.8156e-06
7.90056e-06
7.67716e-06
1.00576e-05
1.06939e-05
4.34464e-05
4.39059e-05
4.69466e-05
4.79554e-05
4.06278e-05
4.23921e-05
5.11344e-05
5.24451e-05
5.53773e-05
6.14191e-05
5.84975e-05
3.89632e-05
3.62448e-05
1.10284e-05
1.2257e-05
1.37287e-05
1.26696e-05
1.48511e-05
1.63243e-05
2.22156e-05
2.0466e-05
1.92553e-05
1.7584e-05
2.38615e-05
2.49839e-05
3.44297e-05
2.84343e-05
3.03824e-05
3.27406e-05
2.73721e-05
7.2982e-06
6.99335e-06
6.41296e-06
6.53107e-06
6.60789e-06
2.94051e-06
6.14674e-06
7.34907e-06
8.14354e-06
7.94032e-06
8.54865e-06
8.89935e-06
9.08623e-06
9.32193e-06
9.42057e-06
7.70089e-06
7.475e-06
9.81986e-06
1.03278e-05
4.47271e-05
4.58336e-05
4.72749e-05
4.86658e-05
4.91723e-05
4.23829e-05
4.05757e-05
4.41784e-05
5.21591e-05
5.23635e-05
5.47866e-05
5.79091e-05
6.38693e-05
6.16717e-05
6.07734e-05
3.8996e-05
3.74871e-05
1.12853e-05
1.04561e-05
1.18945e-05
1.42308e-05
1.30988e-05
1.52009e-05
1.69256e-05
1.57747e-05
2.32533e-05
2.14505e-05
2.00889e-05
1.88526e-05
1.80298e-05
2.56016e-05
3.56173e-05
2.94926e-05
3.16447e-05
3.4226e-05
2.68806e-05
7.14559e-06
6.78285e-06
6.34304e-06
6.33649e-06
6.42798e-06
6.49534e-06
2.42865e-06
6.06461e-06
2.65138e-05
7.98274e-06
7.95026e-06
7.72649e-06
8.3686e-06
8.66449e-06
8.77654e-06
9.24986e-06
7.49044e-06
7.28064e-06
9.48087e-06
9.94564e-06
4.65198e-05
4.93693e-05
5.04797e-05
5.15286e-05
4.41051e-05
4.23502e-05
4.55396e-05
5.44133e-05
5.4729e-05
5.6987e-05
5.98716e-05
6.64527e-05
6.45444e-05
6.24919e-05
4.03958e-05
3.72065e-05
1.09913e-05
1.01893e-05
1.20362e-05
1.41256e-05
1.30328e-05
1.45888e-05
1.64313e-05
1.58369e-05
2.38293e-05
2.15122e-05
2.05749e-05
1.93423e-05
1.75224e-05
2.50063e-05
3.5648e-05
3.0016e-05
3.18674e-05
3.40521e-05
2.7703e-05
6.97215e-06
6.7914e-06
6.59756e-06
6.00504e-06
6.08379e-06
6.2388e-06
6.30866e-06
1.88112e-06
6.28968e-06
1.15798e-05
7.73915e-06
8.12281e-06
7.72443e-06
7.57372e-06
8.45095e-06
8.57442e-06
8.68884e-06
8.96674e-06
7.31208e-06
7.11797e-06
9.27438e-06
9.60508e-06
4.83476e-05
5.06224e-05
5.25347e-05
5.3215e-05
4.51644e-05
4.18563e-05
4.4005e-05
4.759e-05
5.61179e-05
5.67094e-05
5.94105e-05
6.23497e-05
6.50624e-05
4.01919e-05
3.85667e-05
1.1251e-05
1.04692e-05
9.80766e-06
1.17258e-05
1.25573e-05
1.35582e-05
1.46417e-05
1.67054e-05
1.53196e-05
2.3772e-05
2.23121e-05
2.02269e-05
1.93152e-05
1.78002e-05
2.56022e-05
3.7087e-05
3.1364e-05
2.90873e-05
3.31536e-05
3.53599e-05
2.67205e-05
6.96196e-06
6.60438e-06
6.43753e-06
5.77897e-06
5.93387e-06
6.19003e-06
6.03115e-06
6.28902e-06
1.38525e-06
5.27273e-06
3.06532e-06
7.59587e-06
7.6838e-06
8.02079e-06
7.57548e-06
7.36241e-06
8.31396e-06
8.36768e-06
8.50485e-06
8.83773e-06
7.12421e-06
8.98178e-06
9.33569e-06
9.53294e-06
5.03522e-05
5.30993e-05
5.43235e-05
5.56103e-05
4.72468e-05
4.30522e-05
4.48338e-05
4.92244e-05
5.85592e-05
5.89134e-05
6.15441e-05
6.47547e-05
6.69117e-05
4.16531e-05
3.82653e-05
1.09131e-05
1.0241e-05
9.48784e-06
1.18999e-05
1.24039e-05
1.33778e-05
1.43482e-05
1.65178e-05
1.52248e-05
2.32604e-05
2.48255e-05
2.16532e-05
2.0768e-05
1.85681e-05
2.01079e-05
1.70588e-05
3.77066e-05
3.22076e-05
2.97494e-05
3.35196e-05
3.66908e-05
3.45883e-05
2.71023e-05
6.79585e-06
6.441e-06
6.62152e-06
5.56596e-06
5.67308e-06
6.03314e-06
5.93519e-06
6.14748e-06
5.85707e-07
6.05535e-06
2.66572e-05
7.42151e-06
7.82748e-06
7.49553e-06
8.13341e-06
7.40649e-06
7.28803e-06
8.18737e-06
8.28644e-06
8.59773e-06
6.97903e-06
8.88216e-06
9.06275e-06
9.24242e-06
5.22381e-05
5.43875e-05
5.68335e-05
5.74199e-05
4.88829e-05
4.67371e-05
4.47022e-05
5.14659e-05
6.06627e-05
6.13088e-05
6.41527e-05
6.69433e-05
4.25837e-05
3.98499e-05
1.04978e-05
1.10939e-05
9.87671e-06
9.2224e-06
9.53778e-06
1.16206e-05
1.27597e-05
1.37985e-05
1.4687e-05
1.57871e-05
2.38636e-05
2.49019e-05
2.20877e-05
1.86018e-05
2.05262e-05
1.71284e-05
3.92156e-05
3.15133e-05
2.93662e-05
3.7331e-05
3.54267e-05
2.83277e-05
2.58982e-05
6.7875e-06
6.29045e-06
6.47927e-06
5.30313e-06
5.54062e-06
5.92741e-06
5.79635e-06
5.99133e-06
6.15121e-06
1.04002e-06
4.94611e-06
5.53112e-06
6.55054e-06
7.37858e-06
7.25846e-06
7.72215e-06
7.42516e-06
7.97831e-06
7.24528e-06
7.13024e-06
7.9999e-06
8.13646e-06
8.13256e-06
8.40672e-06
6.99438e-06
8.64248e-06
9.01678e-06
5.28552e-05
5.67588e-05
5.87932e-05
6.00138e-05
5.06948e-05
4.81924e-05
4.63516e-05
5.27116e-05
6.36348e-05
6.37032e-05
6.64643e-05
4.48325e-05
4.12624e-05
1.01129e-05
1.07779e-05
9.79645e-06
8.98831e-06
9.21759e-06
1.18858e-05
1.24833e-05
1.36945e-05
1.426e-05
1.54608e-05
2.3254e-05
2.15913e-05
1.78694e-05
1.93594e-05
2.00999e-05
1.65566e-05
4.00747e-05
3.25216e-05
3.06368e-05
3.7083e-05
3.91733e-05
3.42692e-05
2.859e-05
2.61275e-05
6.73346e-06
6.23127e-06
6.48016e-06
6.32939e-06
5.09077e-06
5.40506e-06
5.66061e-06
5.76761e-06
5.875e-06
6.04435e-06
3.86676e-07
5.78916e-06
5.14673e-06
4.3192e-07
3.00559e-05
7.21111e-06
7.14916e-06
7.53395e-06
7.80349e-06
7.26156e-06
7.05662e-06
7.00582e-06
7.87735e-06
7.93142e-06
7.93651e-06
8.18971e-06
8.4337e-06
6.84858e-06
8.55095e-06
8.76192e-06
5.55419e-05
5.87934e-05
5.73872e-05
6.13598e-05
6.20405e-05
5.03645e-05
4.81903e-05
4.65517e-05
5.47476e-05
6.61731e-05
4.52128e-05
4.1681e-05
1.0239e-05
1.10177e-05
9.37215e-06
8.80336e-06
8.7642e-06
9.09802e-06
8.92977e-06
1.15845e-05
1.28348e-05
1.34061e-05
1.43246e-05
1.59649e-05
1.48561e-05
2.37834e-05
2.21451e-05
1.78407e-05
1.9237e-05
2.06688e-05
1.66113e-05
3.19572e-05
2.98295e-05
3.83801e-05
4.01259e-05
3.49449e-05
2.76028e-05
2.56489e-05
6.59886e-06
6.08474e-06
6.34399e-06
6.25844e-06
5.22032e-06
4.92513e-06
5.41934e-06
5.53376e-06
5.6758e-06
5.90709e-06
5.73888e-06
3.7941e-06
5.34806e-06
1.77224e-07
6.81053e-06
7.15406e-06
7.02508e-06
7.43712e-06
7.6708e-06
7.14579e-06
6.95673e-06
6.872e-06
7.71059e-06
7.83611e-06
7.80676e-06
8.02914e-06
8.19068e-06
6.79181e-06
8.33843e-06
5.62196e-05
6.13641e-05
6.01018e-05
6.32625e-05
6.47286e-05
5.2354e-05
5.00015e-05
4.86447e-05
5.58007e-05
4.32941e-05
4.72254e-05
9.92658e-06
1.07181e-05
9.19665e-06
8.55099e-06
8.55771e-06
8.77606e-06
8.70873e-06
1.18843e-05
1.24826e-05
1.37038e-05
1.55564e-05
1.49628e-05
2.3091e-05
2.47569e-05
2.14801e-05
1.71743e-05
1.8519e-05
1.99113e-05
1.58591e-05
3.29936e-05
3.05669e-05
3.79477e-05
4.16863e-05
3.66129e-05
3.44331e-05
2.76193e-05
2.64489e-05
6.56322e-06
5.99655e-06
6.32642e-06
6.15382e-06
5.12818e-06
4.78338e-06
5.30595e-06
5.45968e-06
5.53295e-06
5.81634e-06
5.63523e-06
4.35964e-06
5.11028e-06
7.2886e-07
2.80018e-05
7.02233e-06
6.89538e-06
7.53078e-06
7.31236e-06
7.00088e-06
7.18415e-06
6.82847e-06
6.73549e-06
7.59177e-06
7.6504e-06
7.61843e-06
7.85308e-06
8.02917e-06
8.12894e-06
6.65895e-06
8.35604e-06
5.87276e-05
6.32347e-05
6.20796e-05
6.0789e-05
6.53179e-05
6.63791e-05
5.47949e-05
5.19371e-05
4.98607e-05
5.85621e-05
4.36304e-05
4.72651e-05
4.89928e-05
1.01699e-05
9.50915e-06
1.0976e-05
8.85745e-06
8.38314e-06
8.49813e-06
8.47689e-06
1.15477e-05
1.27826e-05
1.34352e-05
1.44218e-05
2.33885e-05
2.44096e-05
2.18964e-05
1.72147e-05
1.84419e-05
1.99242e-05
1.57801e-05
3.22089e-05
3.00172e-05
3.96582e-05
4.32687e-05
4.13526e-05
3.69469e-05
3.54293e-05
2.86828e-05
2.61189e-05
6.43238e-06
5.85912e-06
6.04196e-06
6.20019e-06
6.12027e-06
5.02771e-06
5.20173e-06
4.54267e-06
4.87729e-06
5.30373e-06
5.46038e-06
5.7178e-06
5.51873e-06
5.63464e-06
3.73151e-06
4.79606e-06
1.94161e-07
7.80114e-06
6.9428e-06
6.89893e-06
6.79039e-06
7.41639e-06
7.2975e-06
6.90871e-06
7.05847e-06
6.71638e-06
6.62959e-06
7.44046e-06
7.53676e-06
7.52834e-06
7.75548e-06
7.8362e-06
7.95272e-06
8.13854e-06
6.52521e-05
6.47297e-05
6.36988e-05
6.66978e-05
5.65668e-05
5.37757e-05
5.25864e-05
6.06723e-05
4.59248e-05
4.91414e-05
5.07626e-05
9.95098e-06
9.16245e-06
1.07323e-05
8.83712e-06
8.55039e-06
8.12208e-06
8.21128e-06
8.23173e-06
1.18074e-05
1.27717e-05
1.38165e-05
1.45042e-05
2.2989e-05
2.50192e-05
2.15856e-05
1.64649e-05
1.7858e-05
1.91638e-05
2.07061e-05
1.51213e-05
3.30737e-05
3.10427e-05
3.97275e-05
4.47129e-05
4.29589e-05
3.8264e-05
3.47898e-05
2.81947e-05
2.69583e-05
6.36254e-06
5.81456e-06
5.96582e-06
6.16731e-06
6.00718e-06
5.02173e-06
5.10103e-06
4.47742e-06
4.78245e-06
5.25281e-06
5.34825e-06
5.66227e-06
5.47206e-06
5.53835e-06
4.38648e-06
4.61191e-06
4.67388e-07
2.43106e-06
3.10366e-05
6.79927e-06
6.78196e-06
6.67668e-06
7.18753e-06
6.80239e-06
6.94168e-06
7.06053e-06
6.58361e-06
6.51387e-06
7.33511e-06
7.38325e-06
7.62247e-06
7.40082e-06
7.69005e-06
7.75854e-06
7.97184e-06
6.63555e-05
6.62291e-05
6.35455e-05
5.90254e-05
5.60502e-05
5.40867e-05
6.07156e-05
4.62821e-05
4.95555e-05
5.28809e-05
9.56505e-06
1.02609e-05
9.1886e-06
1.09862e-05
8.58127e-06
8.24122e-06
8.04298e-06
8.07792e-06
7.96398e-06
1.14278e-05
1.23309e-05
1.33166e-05
1.39264e-05
2.36442e-05
2.46812e-05
2.23332e-05
1.62564e-05
1.81343e-05
1.9013e-05
2.05365e-05
1.49947e-05
3.25489e-05
3.04321e-05
4.13314e-05
4.43893e-05
4.37452e-05
3.83488e-05
3.58666e-05
2.90566e-05
2.64883e-05
6.41783e-06
6.25554e-06
5.87526e-06
5.71518e-06
6.07759e-06
5.93146e-06
4.92025e-06
5.02184e-06
4.67408e-06
4.40168e-06
4.82287e-06
5.157e-06
5.27319e-06
5.5556e-06
5.3813e-06
4.52831e-06
4.30643e-06
7.3583e-07
2.5445e-06
7.45629e-06
6.72749e-06
6.67671e-06
6.56701e-06
7.20199e-06
6.71922e-06
6.83665e-06
6.94647e-06
6.48331e-06
7.24728e-06
7.49386e-06
7.25455e-06
7.3925e-06
7.47939e-06
7.66399e-06
7.76972e-06
6.6318e-05
6.00254e-05
5.77353e-05
5.66741e-05
6.37438e-05
4.77633e-05
5.15983e-05
5.4442e-05
9.44854e-06
1.00991e-05
8.87562e-06
1.07223e-05
8.59606e-06
8.25459e-06
7.98156e-06
7.8486e-06
7.83446e-06
7.7737e-06
1.14808e-05
1.23652e-05
1.33701e-05
1.3874e-05
2.32954e-05
2.53882e-05
2.21124e-05
1.55561e-05
1.68601e-05
1.76817e-05
1.96639e-05
2.12578e-05
1.44178e-05
3.36615e-05
3.1279e-05
4.00279e-05
4.28218e-05
4.61776e-05
4.55927e-05
3.74724e-05
3.52637e-05
2.84678e-05
2.72193e-05
6.30905e-06
6.23441e-06
5.7957e-06
5.71415e-06
6.05537e-06
5.98325e-06
5.83241e-06
4.89621e-06
5.06324e-06
4.60305e-06
4.25398e-06
4.50356e-06
4.71243e-06
5.13322e-06
5.18951e-06
5.2946e-06
5.50779e-06
5.354e-06
4.47327e-06
4.15325e-06
1.15405e-06
3.50859e-06
2.78912e-05
6.63381e-06
6.55372e-06
6.45618e-06
7.10493e-06
6.62975e-06
6.7387e-06
6.83694e-06
6.97091e-06
6.36801e-06
7.12498e-06
7.38543e-06
7.14577e-06
7.26139e-06
7.40871e-06
7.52632e-06
7.69311e-06
6.2119e-05
5.81219e-05
5.79099e-05
6.40227e-05
5.15522e-05
5.37818e-05
5.70813e-05
8.99988e-06
9.70429e-06
1.03465e-05
1.0949e-05
8.30263e-06
8.10867e-06
7.71092e-06
7.65177e-06
7.64163e-06
7.55554e-06
1.18933e-05
1.2849e-05
1.33633e-05
2.39666e-05
2.4955e-05
2.28089e-05
1.54134e-05
1.65287e-05
1.81577e-05
1.96334e-05
2.12215e-05
1.4423e-05
3.28177e-05
3.06153e-05
4.00892e-05
4.38569e-05
4.68385e-05
4.58965e-05
3.82567e-05
3.63746e-05
2.92484e-05
2.66764e-05
6.27756e-06
6.12713e-06
5.76431e-06
5.646e-06
5.96345e-06
5.92947e-06
5.80235e-06
4.85146e-06
5.00815e-06
4.6093e-06
4.29466e-06
4.42473e-06
4.68205e-06
5.04733e-06
5.12959e-06
5.2226e-06
5.57579e-06
5.42396e-06
5.2691e-06
4.36876e-06
4.06053e-06
4.10783e-06
7.81516e-07
3.78313e-06
6.05143e-06
6.54247e-06
6.48342e-06
6.45683e-06
6.35485e-06
6.5495e-06
6.64268e-06
6.72766e-06
6.92448e-06
7.00946e-06
7.22718e-06
7.15892e-06
7.02101e-06
7.29374e-06
7.41109e-06
7.49261e-06
6.28111e-05
6.08573e-05
6.04313e-05
6.65996e-05
5.06434e-05
5.4304e-05
5.57674e-05
5.8806e-05
8.84601e-06
9.5869e-06
9.89935e-06
1.09371e-05
8.0156e-06
7.86602e-06
7.51383e-06
7.64973e-06
7.47766e-06
7.406e-06
7.36299e-06
1.18851e-05
1.28547e-05
1.3412e-05
2.35999e-05
2.5585e-05
2.28258e-05
1.59331e-05
1.49591e-05
1.69682e-05
1.8962e-05
1.76973e-05
2.04585e-05
2.20278e-05
1.39468e-05
3.36887e-05
3.14222e-05
4.15451e-05
4.33101e-05
4.87173e-05
4.74676e-05
3.81763e-05
3.55149e-05
2.85998e-05
2.7345e-05
6.16392e-06
6.08229e-06
5.66779e-06
5.61582e-06
5.89009e-06
5.86082e-06
5.721e-06
4.76725e-06
4.92304e-06
4.52301e-06
4.19933e-06
4.37679e-06
4.61588e-06
5.04798e-06
5.14814e-06
5.21398e-06
5.52063e-06
5.44186e-06
5.21629e-06
4.21909e-06
3.89056e-06
4.01194e-06
1.30613e-06
2.66614e-06
2.66236e-05
6.43722e-06
6.37564e-06
6.35457e-06
6.26102e-06
6.55423e-06
6.44173e-06
6.63158e-06
6.7277e-06
6.82643e-06
6.94835e-06
7.1105e-06
7.04466e-06
6.97619e-06
7.15567e-06
7.29972e-06
7.35582e-06
6.51873e-05
6.14446e-05
6.1847e-05
5.24113e-05
5.54461e-05
5.80978e-05
6.1367e-05
8.45e-06
9.16504e-06
1.00034e-05
1.05446e-05
1.14461e-05
8.09506e-06
7.69624e-06
7.65215e-06
7.2961e-06
7.41851e-06
7.30907e-06
7.25733e-06
7.18477e-06
1.2379e-05
1.29742e-05
2.42042e-05
2.50689e-05
2.35908e-05
1.56514e-05
1.51174e-05
1.66499e-05
1.90323e-05
1.80159e-05
2.03995e-05
2.20498e-05
1.40856e-05
3.29414e-05
3.06583e-05
4.17534e-05
4.50691e-05
4.86408e-05
3.98343e-05
3.66067e-05
2.93066e-05
2.67057e-05
6.16016e-06
5.97172e-06
5.6544e-06
5.53398e-06
5.79921e-06
5.88677e-06
5.7877e-06
5.71646e-06
4.73394e-06
4.86071e-06
4.44242e-06
4.53572e-06
4.16829e-06
4.29961e-06
4.64396e-06
5.00285e-06
5.09647e-06
5.12591e-06
5.3924e-06
5.12213e-06
5.2568e-06
3.99651e-06
3.90674e-06
3.76164e-06
4.01226e-06
9.59239e-07
2.46783e-06
1.17685e-05
6.3588e-06
6.3072e-06
6.27056e-06
6.47709e-06
6.36584e-06
6.53683e-06
6.63133e-06
6.7589e-06
6.8114e-06
6.93863e-06
6.91548e-06
6.86859e-06
7.06803e-06
7.20448e-06
7.2253e-06
6.63171e-05
6.41977e-05
6.44345e-05
5.45962e-05
5.10265e-05
5.77845e-05
6.01431e-05
6.31953e-05
8.31201e-06
8.98901e-06
9.70303e-06
1.06818e-05
1.15311e-05
7.70425e-06
7.45027e-06
7.43549e-06
7.24769e-06
7.14994e-06
7.18889e-06
7.07461e-06
6.99809e-06
1.24428e-05
1.30903e-05
2.55924e-05
2.39709e-05
1.59875e-05
1.46325e-05
1.70656e-05
1.97489e-05
1.86898e-05
1.77671e-05
2.11809e-05
2.30071e-05
1.35837e-05
3.38267e-05
3.13621e-05
4.34413e-05
4.69124e-05
4.83116e-05
3.97097e-05
3.83486e-05
3.54592e-05
2.84881e-05
2.72718e-05
6.08591e-06
5.929e-06
5.56166e-06
5.50153e-06
5.73236e-06
5.80132e-06
5.64716e-06
4.78041e-06
4.8821e-06
4.37614e-06
4.47098e-06
4.09531e-06
4.23255e-06
4.2998e-06
4.63004e-06
4.94259e-06
5.03736e-06
5.42368e-06
5.32994e-06
5.08386e-06
5.20259e-06
3.93413e-06
3.8292e-06
3.67344e-06
3.94056e-06
1.25375e-06
2.90878e-06
4.58212e-06
6.27546e-06
6.20778e-06
6.18223e-06
6.3948e-06
6.46583e-06
6.28911e-06
6.54392e-06
6.64231e-06
6.77821e-06
6.86259e-06
6.78618e-06
6.7746e-06
6.94381e-06
7.10255e-06
7.08728e-06
6.64714e-05
5.60767e-05
5.2084e-05
5.95233e-05
5.83097e-05
6.2788e-05
6.53823e-05
7.95336e-06
8.61921e-06
9.29361e-06
9.9218e-06
1.12118e-05
1.04062e-05
1.20541e-05
7.61206e-06
7.43138e-06
7.17366e-06
7.20064e-06
7.03069e-06
6.95648e-06
7.0352e-06
7.08781e-06
6.93027e-06
7.00965e-06
6.88457e-06
1.26748e-05
2.49871e-05
1.53156e-05
1.46662e-05
1.63706e-05
1.96095e-05
1.90071e-05
1.82678e-05
2.11996e-05
2.31239e-05
1.3508e-05
3.27859e-05
3.00899e-05
4.39616e-05
4.77275e-05
5.03691e-05
4.1614e-05
3.8783e-05
3.61327e-05
2.8908e-05
2.68942e-05
6.11324e-06
6.00694e-06
5.85404e-06
5.52661e-06
5.66084e-06
5.73961e-06
5.78418e-06
5.61835e-06
5.5798e-06
4.76689e-06
4.81811e-06
4.38846e-06
4.49249e-06
4.09394e-06
4.15749e-06
4.24404e-06
4.69656e-06
4.56047e-06
4.91262e-06
4.95669e-06
5.37063e-06
5.2873e-06
5.13676e-06
5.01755e-06
5.21843e-06
3.63279e-06
3.63457e-06
3.85392e-06
3.74017e-06
3.54241e-06
3.95411e-06
5.13413e-07
2.4742e-06
2.97597e-07
2.88646e-05
6.19982e-06
6.19075e-06
6.14145e-06
6.34244e-06
6.37405e-06
6.20974e-06
6.23589e-06
6.44322e-06
6.59208e-06
6.665e-06
6.73457e-06
6.6765e-06
6.66216e-06
6.89972e-06
6.97452e-06
6.96279e-06
5.60643e-05
5.43104e-05
6.20617e-05
6.02637e-05
6.46834e-05
6.66247e-05
7.98841e-06
8.68017e-06
9.04322e-06
9.724e-06
1.14591e-05
1.06516e-05
1.22068e-05
7.29106e-06
7.12637e-06
6.99333e-06
7.00351e-06
6.89156e-06
6.97976e-06
6.78079e-06
6.84523e-06
6.77005e-06
1.25082e-05
2.56319e-05
1.55004e-05
1.40367e-05
2.029e-05
2.21013e-05
2.42229e-05
1.29192e-05
3.34407e-05
3.02181e-05
4.61965e-05
4.32324e-05
4.96446e-05
5.10212e-05
4.0615e-05
3.79219e-05
3.51038e-05
2.76859e-05
6.03291e-06
5.97225e-06
5.84923e-06
5.45906e-06
5.62299e-06
5.66352e-06
5.73308e-06
5.54327e-06
5.52863e-06
4.83653e-06
4.34367e-06
4.42921e-06
4.02911e-06
4.16171e-06
4.26721e-06
4.64659e-06
4.53415e-06
4.93987e-06
5.30365e-06
5.39482e-06
5.08099e-06
4.98707e-06
5.2014e-06
3.48475e-06
3.69272e-06
3.78445e-06
3.67249e-06
3.57296e-06
3.90872e-06
3.09579e-06
6.20789e-07
9.20636e-06
6.11473e-06
6.09359e-06
6.05148e-06
6.26082e-06
6.36208e-06
6.13643e-06
6.14772e-06
6.40647e-06
6.48532e-06
6.6054e-06
6.70992e-06
6.64901e-06
6.57062e-06
6.56717e-06
6.79398e-06
6.84965e-06
5.86096e-05
5.50729e-05
6.45106e-05
6.08934e-05
6.60053e-05
8.36364e-06
7.67694e-06
9.26558e-06
9.94295e-06
1.11056e-05
1.19099e-05
1.03273e-05
6.99498e-06
7.34069e-06
6.91017e-06
6.77217e-06
6.79956e-06
6.70544e-06
6.85898e-06
6.74273e-06
6.61488e-06
6.76111e-06
6.59717e-06
6.65814e-06
1.2064e-05
2.53375e-05
3.29668e-05
2.88663e-05
3.16363e-05
4.63812e-05
4.44538e-05
5.03834e-05
5.31945e-05
4.15463e-05
3.88734e-05
3.57264e-05
2.7665e-05
5.98804e-06
5.905e-06
5.77175e-06
5.43039e-06
5.54539e-06
5.66462e-06
5.50588e-06
5.46423e-06
4.78824e-06
4.37313e-06
4.41713e-06
4.00743e-06
4.11685e-06
4.2608e-06
4.67405e-06
4.58266e-06
4.47182e-06
4.89396e-06
5.25257e-06
5.3501e-06
5.08471e-06
5.01669e-06
4.92432e-06
5.14777e-06
3.43046e-06
3.51421e-06
3.79516e-06
3.71673e-06
3.65288e-06
3.50616e-06
3.85712e-06
3.93653e-06
3.21328e-06
2.21596e-06
1.96782e-06
3.1664e-05
6.03605e-06
6.03329e-06
6.20985e-06
6.26436e-06
6.05888e-06
6.09636e-06
6.30375e-06
6.44694e-06
6.51279e-06
6.62219e-06
6.51906e-06
6.486e-06
6.46809e-06
6.71418e-06
6.74096e-06
5.88263e-05
5.71821e-05
6.62355e-05
6.36874e-05
8.40215e-06
7.74812e-06
9.07755e-06
9.64836e-06
1.11462e-05
1.03024e-05
6.71471e-06
7.05805e-06
6.61771e-06
6.68006e-06
6.52656e-06
6.65571e-06
6.59611e-06
6.63317e-06
6.54826e-06
6.63717e-06
6.5576e-06
1.16123e-05
2.64232e-05
3.41818e-05
4.79892e-05
4.44453e-05
5.28062e-05
4.99296e-05
4.06988e-05
4.35309e-05
3.73729e-05
5.92103e-06
5.86276e-06
5.71452e-06
5.36612e-06
5.5019e-06
5.60434e-06
5.44408e-06
5.42244e-06
4.73106e-06
4.8314e-06
4.31471e-06
4.36048e-06
4.05319e-06
4.15382e-06
4.20793e-06
4.61949e-06
4.57256e-06
4.46787e-06
5.28364e-06
5.04527e-06
4.97828e-06
4.88751e-06
5.13638e-06
3.36809e-06
3.39788e-06
3.75421e-06
3.66851e-06
3.59085e-06
3.51899e-06
3.83317e-06
3.92959e-06
3.32805e-06
3.09482e-07
2.08069e-06
1.2636e-05
5.95721e-06
5.95491e-06
6.12462e-06
6.22584e-06
5.99772e-06
6.01166e-06
6.28294e-06
6.35395e-06
6.42418e-06
6.51708e-06
6.55267e-06
6.39923e-06
6.39144e-06
6.40461e-06
6.59378e-06
6.62549e-06
6.12516e-05
5.80065e-05
6.37331e-05
8.10881e-06
8.74453e-06
7.57707e-06
9.31307e-06
9.78881e-06
1.06792e-05
6.75589e-06
6.52497e-06
7.01008e-06
6.43172e-06
6.47316e-06
6.38509e-06
6.48075e-06
6.43081e-06
6.52454e-06
6.45118e-06
6.52522e-06
6.43521e-06
4.66228e-05
5.44032e-05
5.19481e-05
4.18549e-05
4.4626e-05
3.80253e-05
5.90093e-06
5.8128e-06
5.7377e-06
5.64193e-06
5.32374e-06
5.54878e-06
5.44941e-06
5.59644e-06
5.38446e-06
5.35106e-06
4.7361e-06
4.79006e-06
4.30528e-06
4.36237e-06
4.04587e-06
4.09167e-06
4.19926e-06
4.62654e-06
4.52186e-06
4.4165e-06
5.2408e-06
4.99473e-06
5.07103e-06
4.91487e-06
4.82034e-06
5.18021e-06
3.28738e-06
3.39376e-06
3.28067e-06
3.33343e-06
3.7742e-06
3.69077e-06
3.6019e-06
3.45999e-06
3.86733e-06
3.98255e-06
3.21392e-06
9.33423e-07
3.6337e-06
2.617e-06
3.38913e-05
5.90892e-06
5.90987e-06
6.06716e-06
6.15341e-06
5.93577e-06
5.96067e-06
6.19357e-06
6.35144e-06
6.45218e-06
6.47658e-06
6.31486e-06
6.31734e-06
6.31194e-06
6.55242e-06
6.04906e-05
5.65365e-05
6.62644e-05
8.01418e-06
8.64771e-06
7.73364e-06
7.27195e-06
8.93546e-06
6.52681e-06
6.27671e-06
6.66454e-06
6.15564e-06
6.38337e-06
6.20905e-06
6.37042e-06
6.35797e-06
6.44138e-06
6.45713e-06
6.34705e-06
6.41508e-06
6.33199e-06
4.7417e-05
5.42787e-05
5.13367e-05
4.01468e-05
4.36747e-05
4.63039e-05
5.83667e-06
5.68959e-06
5.5798e-06
5.26052e-06
5.51687e-06
5.46109e-06
5.39215e-06
5.53726e-06
5.32743e-06
4.68283e-06
4.2529e-06
4.31471e-06
4.09213e-06
4.15655e-06
4.57455e-06
4.52311e-06
4.41997e-06
4.93858e-06
5.0431e-06
4.89545e-06
4.7778e-06
5.12844e-06
3.26802e-06
3.32265e-06
3.1777e-06
3.20529e-06
3.73633e-06
3.6435e-06
3.55626e-06
3.48097e-06
3.82934e-06
3.96645e-06
3.11905e-06
3.13842e-06
9.2086e-07
5.96383e-07
2.58681e-06
1.44025e-05
5.82994e-06
5.84659e-06
6.0003e-06
6.0852e-06
6.13004e-06
5.87076e-06
5.90707e-06
6.19713e-06
6.2818e-06
6.37299e-06
6.39115e-06
6.23316e-06
6.30288e-06
6.27366e-06
6.23927e-06
6.25453e-06
6.43547e-06
6.20609e-05
5.76062e-05
6.47284e-05
8.28493e-06
7.42761e-06
7.17174e-06
6.27791e-06
6.07513e-06
6.45907e-06
5.97871e-06
6.20937e-06
6.11561e-06
6.04699e-06
6.2171e-06
6.2242e-06
6.35678e-06
6.3192e-06
6.23144e-06
6.31444e-06
6.19656e-06
4.92503e-05
5.60314e-05
5.32646e-05
4.47019e-05
4.67539e-05
5.77363e-06
5.64288e-06
5.71689e-06
5.51561e-06
5.58616e-06
5.20271e-06
5.4224e-06
5.33337e-06