/*--------------------------------*- C++ -*----------------------------------*\
| =========                 |                                                 |
| \\      /  F ield         | OpenFOAM: The Open Source CFD Toolbox           |
|  \\    /   O peration     | Version:  v2012                                 |
|   \\  /    A nd           | Website:  www.openfoam.com                      |
|    \\/     M anipulation  |                                                 |
\*---------------------------------------------------------------------------*/
FoamFile
{
    version     2.0;
    format      ascii;
    class       volScalarField;
    location    "3";
    object      p;
}
// * * * * * * * * * * * * * * * * * * * * * * * * * * * * * * * * * * * * * //

dimensions      [1 -1 -2 0 0 0 0];


internalField   nonuniform List<scalar> 
27222
(
92688.7
92769.3
92646.7
92875.5
93422.5
91805.4
92971.8
93617.4
94243.9
93337.4
92798.6
93333.7
93726.9
94093.7
93801.3
93254.8
93094.9
91979
93786.1
93799.5
94441.8
94034.7
93505.6
93046.2
93704.1
93240.9
93350.5
93962
94097.8
94461.3
94790.8
94357.9
93289.1
93377
93912.3
93745.5
93336.7
92261.3
94288
94380.6
94995.5
95222.9
94891.8
94708
92884.9
92348.7
93425.8
94137.2
93950.8
93299.1
92985.1
94511.1
94773.8
95296.9
95076.3
95524.5
95346.4
94993.5
93142.8
93352.3
93712.4
94251.6
93663.1
94353.5
93201.3
92540.4
94884.1
94883.9
95729.7
95468.4
95871.5
95380.6
93622.9
93329.2
91978.5
94026.7
94627.2
93901
94579.8
93587.2
92986.4
95125.1
95232
95810.5
96003.8
95533.4
96113.6
95689.8
93693.9
93309.8
93463.4
94083.1
94663.3
94279.6
94984.9
94551
93567.5
93276.9
92280.7
95542.5
95421.4
96170.9
96384.4
95921.5
96514.4
96268.1
96144
93855.1
93547.3
93275
93656.4
94374.1
94978.7
94435
95171.3
94900.7
94186.4
93507.2
93175
95773
95277.8
95885.4
96224.7
96548.4
96626.9
96639.8
96616.6
96423.5
93801.6
93458.6
93025.3
93261.3
94331.2
95019.2
94828.4
95555.7
94293.5
93348.7
94048.8
92318.9
96210.7
95521.4
96097
96672.1
96889.9
97044.7
97024.9
96925.3
96875.2
94056.5
93615.2
92679.9
93513.3
94553.7
94909
95393.4
95105.8
95729.7
94668.9
93362
94157.1
93443.3
96430.5
95904.4
96508.5
96809.3
97284.8
97362
97301.9
97091.1
97264.8
97110.4
94024.2
93607.1
93195.7
92603.3
94431.1
94401.6
95101.8
95620.4
95062.4
95536.7
96187.4
94575.8
93120.8
93972.2
93361.9
96884.4
95964.4
96801.8
97281.9
97666.4
97726.4
97720
97592.6
97677.1
97561.6
93843
93541.2
93135.6
92474.9
94085.1
94491.9
94899.3
95512.2
95461
95877.5
96277.2
94766.1
93852.8
94165.6
94494.3
97124.5
96231.4
97293.2
96663.2
97668.3
98120.9
98108.1
97884.5
97947.5
97820.6
97817.5
93919
93303.3
92984.7
92164.2
92710.1
91808.4
94233.9
94953.5
95800.2
95863
95478.3
96641.3
95155
94568.1
93716.2
94287.2
93467.7
97014.6
97615.3
96162.9
97625.5
96846.1
98109.5
98584.7
98452.7
98324.3
98369.2
98241.5
98287.7
93712.7
93386.2
92783
91880.9
92559.7
92188.4
94255.1
95364.9
94523.8
95755.9
96257.5
95893.8
96641.4
95341.2
94676.6
94196.2
93584.5
93479.6
97381.2
97743.1
96529.8
97629.3
98022.6
97303.7
98582.7
98213.7
98978.9
98863.6
98575.7
98673.9
98447.6
98587.2
98601.4
93846.5
93065.1
92696.2
92519.3
92204.5
91271.9
95309.3
94549.2
96227.6
96273.4
95803.8
97030.1
95161.7
94395.3
93965.9
93631.9
97394.6
98078.2
96593.6
98173.8
98354.5
97359.7
98924.5
98712
99465.1
99171.2
99017.9
99220.3
98876.6
98975.9
99087.5
98487.2
93719.9
93030.3
92332.5
91855
91818.1
91394.2
94905.3
95538.4
94237.9
96286.2
96690
96059.5
97066.3
95363.6
94643.2
93916.7
93166.8
93530.3
97786
98110.1
96982.9
98347.2
98769.5
97710.5
99398.2
99789.8
99671
99620.7
99354.6
99496.7
99195.1
99346
99409.6
98796.2
93318.2
93897.5
92621
92167.3
91616.3
91748.3
91063.8
94902.9
95285.2
95983.4
94534.2
96847.2
96766.5
96495.2
95811
97492.2
95132.2
94593.5
94383.5
93379.3
93306.7
97850.6
98549.8
97107.5
98852.5
98096.5
99139.3
97562.3
99734.4
100240
100282
99905.3
99790.3
99949.2
99642.1
99689.4
99918.5
99233.5
93266.2
93639.8
92280.3
92920.6
91306.4
91354
91279.2
90910.5
95318.2
96144.2
94429.1
97001.4
97205.3
96768.1
96027.1
97559.9
95311.2
94986.4
94483.6
93784.5
93250.3
92370.6
98279.3
98652.8
98891
99178
98470.9
99596.3
97818.6
100219
100547
100513
100490
100393
100182
100256
100053
100031
100211
99577
93590.5
91932
92751.2
90996.5
91153.4
90673.6
90377.4
94904.7
95817.1
96687.2
94019.8
97584.2
97208.9
96543.5
95723.3
98009.7
94897.2
94247.4
93671.3
93363.1
92654.6
98373.3
99071.5
99357.2
99734.2
98340
99979.5
100566
101012
101012
101016
100569
100740
100442
100465
100047
100684
99495.9
93133.8
91483.6
92306
90546.8
90714
90175.8
90140.6
94856.4
95813
96887.4
93914.3
97825.2
97613.4
96691.7
95910.8
98070.1
95188.6
94330.1
93980.2
93063.8
92478.3
98842.4
99172.2
99311.4
99859.7
98716.3
100446
101033
101370
101441
101449
101005
101106
100820
100913
100433
100818
101007
99879.7
92978.6
91195.2
92042.4
90190
90600.1
89771.5
89690
94403.6
95323.7
96181.6
96611.9
97513.5
93441.8
98475.7
97689.1
96342.8
97059.3
95662.5
98558.8
95053.4
94666.2
93906.9
93464.2
92706.9
98965.2
99675.3
99716.6
100407
100844
101435
101910
101377
101989
101978
101597
101274
101343
100358
101265
101508
92445.9
91490
89600.1
90206.2
88691.1
88984.4
94395.3
95323.1
96109.4
96855.2
97599.5
93252.3
98766.4
98155.1
97429
96546.6
96967.2
95931.9
98579.8
95425.4
94617.3
94228.8
93399.6
92360.2
92998.4
99457.9
99836.6
99679.8
100264
100579
100863
101357
101946
102201
101875
102483
102477
101991
101685
101803
100756
101630
101447
101885
92259
91189.7
89488.1
89011.9
90016.6
88385.7
87336.9
88673.7
94055.6
94930.9
95798.7
96555.4
97201
97988
93542.9
92661.7
98465.1
99313.2
98144.9
97737.3
96377.2
97232
95832
98979.1
95345
94928.2
94235.8
93915.2
92767.2
93219.3
99671.3
100280
100303
100612
101178
101470
101742
102439
102730
103026
102973
102513
102169
102227
101242
100689
102124
101962
102318
91703.7
90534.2
88881.2
88479.1
89333.6
88008.2
86245.8
87974.9
94063
95102.1
95654.9
96720
97412.5
97821.7
93274.8
92502.9
98828.1
99610.3
98457.4
97656.4
96575.2
97025.9
96226.4
99468
98879.9
95708.5
94657.4
93855.9
92406.1
92936.5
100213
100445
100226
101032
101617
101326
102324
102971
102905
103113
103541
103509
102601
102695
101660
101084
102448
102286
102082
102717
91568.1
90394.9
88354.3
88735.7
89264.3
87879.3
85860.4
87384.7
94530.3
93710.6
94901.6
95773.6
96517.8
97188.6
98059.8
92893.1
91995.2
98540.4
99369.1
98383.3
97978.4
97228.5
96208.1
99801.3
99159.1
95688.8
94854.2
94152.8
92785.1
93376.8
100480
100930
100616
101512
102172
101745
102727
103456
103534
103651
104045
104023
103102
103139
101576
102984
102775
102539
103148
90990.2
89791
87637
87971.3
88553.2
87167.6
86050.7
87144
94403.3
93604.6
95409.1
96164.1
97060.9
97351.3
97753.8
92777.6
91935.3
98737
99666.5
98673.6
98035.1
97736.5
97014.3
96578.9
99627.3
100304
99038.9
96075.3
95313.7
94595.4
93973.5
92153.8
92893.6
93258.5
100997
101202
101259
100267
101698
102638
102196
103314
103991
103604
103627
103859
104064
104604
104584
103599
101924
103166
102921
102767
103589
91013.4
89643.3
87120.8
87550
87907.1
88541.5
87794.9
86197.3
83820.5
94702.8
93944.5
93177.2
95453.9
96142.4
96973.6
97956.7
92349.5
91490.7
98437.6
99333.2
98501.2
97794
97352
96483.8
99767.3
100637
99383.9
95974.8
95518.7
94879.3
94254.4
92472.6
93001.2
93627.5
101278
101721
101669
100663
102305
103254
102730
103622
104453
104270
104057
104411
104509
105024
105046
103997
102502
103688
103368
103301
104127
90479.7
90032.2
88992.2
86426.7
86721.1
87335.6
87909.4
86411.7
85154.1
83608.5
94519.2
95100.9
93792.8
93071.5
95853.6
96585.6
97281
97730.4
92272.7
91453.3
98582.2
99392.6
98775.2
98136.1
97281.2
96836.4
100133
101117
100542
99294.8
96254.5
95339.5
94720.6
94074.3
93456.2
101802
102025
102318
101332
100349
102603
102784
103323
104129
104956
104495
104529
104845
104932
105635
105635
104472
102755
103758
104177
103529
103662
104594
90982.3
89763.9
88840.3
85494.4
86214.9
87385.2
86564.3
88108.1
84805.5
84165
81768.9
94136.2
94819
95347
93390.3
92644.8
95946.8
96456.3
97292.4
97991.2
91845.9
98332.9
98980.6
99763.4
98622.2
98094.6
97672.9
96717.4
100262
101494
100879
99614.8
96079.2
95616.8
95008.3
94388
93611.7
101937
102495
102715
101719
100497
103241
103364
103958
104476
105537
105098
104863
104779
105400
105384
105931
105836
105962
103245
104190
104680
104042
103660
104148
105150
90813.7
89126.9
90246.5
84725.1
85086.9
86947.3
86236.5
87735.9
85396.7
83928.7
78028.8
94049.5
95175.1
94658.2
95726.5
93238.6
92718
96485.2
97043.1
97787.3
91767.4
98635.1
99013
99684.9
98861.3
98515.3
97536.4
97020.1
100074
100710
101356
99598.1
96355.7
95444
94880.9
94208.9
102425
102830
102410
103399
101556
100090
101010
103669
103936
104461
105070
105620
105446
105320
105869
106595
106331
106566
103293
104622
105149
104116
104610
105367
105558
91204.1
88892
90116.4
83831.4
84585.8
86721.2
85429.4
87020.2
88160.3
86166.8
82970.7
83939.7
82337.4
94355.8
93682.3
95406.2
94950.4
95863.7
93382.1
92413.7
96153.7
96736.6
97201.4
97834.9
92010.4
98557.1
99314.2
99285.8
98644
97836.2
96825.7
100322
100939
101601
100072
96111.6
95678.4
95322.8
102535
102886
102728
103841
102240
99976.1
100960
104354
104528
105044
105377
106211
105890
106371
106895
106944
106805
106909
103727
105073
105600
104590
104150
105086
105968
106062
91221
89028.1
90432.9
89445
82972.7
83665.8
84846.3
85888.2
86734.8
87927.9
84589.4
82867.2
82763.8
86412
85053.1
94237.5
93863.4
95244.1
95705.6
94834.4
93052.7
92620.8
96322.4
96564
97022
97539.8
98194.7
91792.6
98885
99250.1
99440.1
98343.7
99144.5
97599.2
97113
100751
101349
102095
100170
96397.2
103150
103510
103431
104605
102122
100151
99498.7
101439
100524
104881
105207
105382
105983
106740
106376
106398
106857
107538
107550
107384
107559
105581
106076
104963
104682
105560
106250
106512
90866.9
88481.5
90225.1
89638.9
82921
81728.1
83553.6
84322.4
85471.3
87241.1
85987.6
82047.9
82517.2
84317.5
82333.9
94455.7
93675.6
95477.6
95879.1
95005.9
93279.6
92387.1
96172.6
96739
97145.2
97597.7
98153.4
91959.7
98826.6
99844.6
98593.5
99359.7
97872
96923.5
101026
101601
102041
100540
103709
103284
103914
105139
102630
99779.4
99482.6
101086
100565
105694
105893
106066
107279
107127
106876
106630
107407
107863
107834
107811
107762
106056
106564
105470
104968
105718
106022
106807
106953
91235
88416.8
90465.4
89311.4
82092.3
80604.7
82744
84185.7
84653.3
87121.3
85775.2
81254.5
81352.9
82947.2
85570.9
94320.4
93767.7
95752.6
95451.9
94841.9
95268.6
93071.5
92472.5
96296.8
96538.2
96936.5
97381.1
97888.3
98475.7
91638.9
99162.1
100030
98350.8
99103.2
99841.6
97729.4
97272.3
100926
101459
102331
100469
104278
104035
102876
104797
103529
105929
102547
99786
101283
100148
106234
106511
106524
107534
107285
107209
107862
108618
108410
108395
108375
106538
107083
105836
104783
105645
106312
106453
107180
107436
91038.8
87753
88801.7
90079.5
89579.3
81115.3
82138.5
79645.9
80425.7
83276.6
84382.2
86602.1
84925.6
86114.1
80919.7
80050.4
82386.1
83561.4
94564.9
94019.5
93500.6
95870.6
95768.5
95039.7
95425.4
92743.7
92045.4
96150.3
96683
97033.5
97482.6
97737.2
98452
99078.1
98527.7
99346.3
100118
98127.6
101262
101732
102083
100681
104421
104204
103150
105407
103842
106477
103237
101962
99398.1
100764
99953.7
107079
107214
107242
108340
107763
107553
108441
108918
108848
108724
108696
108668
107002
107564
106351
105230
105975
106565
106943
107749
107840
91219.8
87741.6
88624
90431.7
89266
80791.9
81473.8
78580.8
79353.8
82926
83641.9
86670.2
84862.9
85654.7
80597.3
79086.6
83536.5
81085.6
88646.5
94472.1
94116.4
93507.2
95842.9
94938.2
95304.3
95677.1
92785.2
91988.3
96232.5
96530.9
97327.6
96923.9
97880.8
98182.3
98775.4
98991
99860.7
100543
101281
101664
102309
101066
105081
105445
102665
105244
106259
104507
107223
103248
101921
99481.8
100140
100748
107544
107504
107672
108719
108166
108060
108805
109616
109462
109297
109325
109461
107512
108110
106791
105754
106478
107019
107393
108170
108346
91597.5
90911.2
88125
87159.7
90299.7
89306.3
79799.7
81193.9
78661
77648.6
79043.2
82132.9
83323.2
86116.2
84339.4
79809.7
77154.8
83819.5
80521
84775.1
94661.4
93936.2
93169.7
96074.2
95079.8
95425.5
95811.3
92432.3
96531.3
97262.5
96728.4
97093
97651.8
98266.8
98557.5
100868
101680
101895
102343
101198
105615
106083
102734
105915
106828
104704
107902
104050
102573
101228
99167.8
99879.5
100196
108253
108389
108360
109514
108638
108424
109353
109869
110082
109999
109658
109611
109837
107980
108535
107174
106851
106062
106771
107381
107937
108686
108753
91684.2
91297.7
88057.6
87313
90669.1
89809.2
88759.8
80063.3
81478
77578.5
77071.6
76795
78087.2
82158
82520
83696.9
85970.9
84511.8
78299.9
75651
82240.8
79150.6
86093.7
94590.5
93954.2
93189.6
96130.8
94982.6
95316.2
95712.5
95986.2
92456.8
96352.3
97419.2
96756.4
97113.4
97737.5
98085.3
98706.1
101811
102266
102555
101572
107686
105292
101661
105586
106660
107774
108565
103671
102679
101062
99067.8
99381.4
99999.7
108739
108756
109970
109012
108911
109598
110439
110812
110996
110504
110241
110526
108493
109040
107575
107331
106632
107258
107751
108355
109100
109230
92054.8
91150.8
88210
86983
90514.8
89883.2
89001.1
79451.3
80718.7
77204.7
75371
75698.2
77972.7
81294.8
82161.4
83236.7
86450.1
85127.5
84051.8
76633.8
75556.5
74228.2
81181
78445.7
82766.5
94411.8
94178.2
93533.6
92842.8
95112.9
95428.9
95784.4
96160.9
96343.6
97276.3
96958.5
96601.7
97684
97993.5
98455.9
102258
102580
102981
101852
107459
108659
107802
101490
106214
107581
108298
109275
103987
102225
100347
101423
98639.6
99110.5
99368.4
109643
109632
110836
109431
109293
110061
110897
110664
110718
111205
111718
110666
110422
110926
108932
109473
107807
107661
107179
107471
108224
108876
109541
109615
92084.4
91624.4
87788.8
87199
90608.4
89499
88602.2
78523.9
79866.8
75963.8
74188.1
74968.3
76748.4
81399.6
82408.4
83367.3
86268.2
85579.1
83988.7
76231
73595
72663.1
82317.4
79290.2
78749.8
94701
94151.4
93561
92901
95347.3
94968.8
95649.8
95922.3
96117.7
96454.5
97304.9
96846.2
96706.7
97468.2
97803.9
98165.8
102339
103086
102772
107543
109039
107307
99841.4
106046
107597
108949
109608
110100
105040
103042
102286
100091
101111
98485.3
98667.1
99180.5
110089
111409
109765
109745
110115
111380
111260
111021
111415
111475
111027
110907
111412
109410
109936
108261
108003
107856
108529
109293
109982
110048
92517.5
91607.3
88013.2
86855.9
90078.1
91034.7
89613.6
89072.7
78104.2
79429.7
75136.2
75913.6
73132.4
73651.4
77059.4
80907.3
81827.5
82570.8
85380.5
82783.1
84245.9
74592.7
72285
73179.9
71484.2
80904.8
78205.7
81614.6
94654.5
93891.7
93267.8
95467.8
95223.5
95763.2
96046.1
96227.1
96370.9
97088.6
96935.2
96654.4
97439
97754.3
97884.8
102937
103435
103828
107598
107935
110127
109829
100408
107193
108387
109503
111446
111176
105002
103009
101551
100436
99499.7
98178.2
98217.6
98626.7
111122
111805
110173
110539
110322
112042
112613
110920
111869
113835
111116
111138
111289
109858
110308
108392
108125
108102
108998
109365
109734
110338
110425
92610.2
91971.8
87604.9
86795.2
90198.5
91112.2
88960.5
78450.7
79637.2
74213.1
74934
71838.2
72915.9
73165.7
76406.7
80192.6
81214.2
86172.1
84805.7
82282.7
83725.5
74317.2
70456.5
71404.3
69865.5
82015.9
76523.5
79633.2
94688.3
93976.4
93339.5
95376.3
95658.6
95209.2
96007.7
96220.4
96514.6
97147.1
96839.6
96680.1
97286.1
97565
97767.8
102583
106923
108274
112134
106950
106498
100502
107244
108302
109105
110867
112277
112296
112094
106085
103769
101974
101309
100047
99105.6
97832.1
97827.4
98217.4
97838
98575.9
111312
110675
110649
113956
113295
112422
114268
115520
112355
111873
113975
110348
110818
108711
108364
108389
109233
109822
110341
110776
110791
93014.1
92265
91994.1
87705.6
89757.1
90709.8
91566.1
89299.2
88296.4
77809.7
78725.8
74087.5
74701.8
70575.6
71470.2
72001.7
77057.7
75346.4
79972.9
80867.5
86135.5
84991.5
82921.5
81531.3
84361.1
71760.8
75148.7
69200.3
70157.5
70939.9
69088.7
78455.4
76679.2
81092.9
73388.2
94292.2
94834.1
93725.8
95648.6
95753.4
94988.9
95502.7
96066.4
96355.3
96489.3
97004.4
96807.4
96607.3
97291.7
97419.2
97523.4
107279
108137
110961
106911
106811
103420
108723
109489
110185
111543
111930
112103
112579
106103
103237
101930
100413
99263.2
97805.6
97738.2
97514.8
98197.4
115116
110975
112621
115517
113644
112077
111844
117476
110586
111478
108733
109137
108457
108672
109728
110185
110719
111292
93124.6
92762.1
92404.9
87201.3
90235.3
90794.5
91690.9
89165.6
88446.1
79019.8
73040.5
73543.7
69382.9
71037.3
72004.5
76709.3
74946.7
80887.8
85449.5
86581.4
82732.6
81374.7
84397.2
70095.6
73421
67582.6
68747.8
69000.6
67501.3
74897.2
79336
82278.6
94373.1
94806.1
93799.6
95690.1
95952.8
95355.4
95599.5
96182.7
96299.9
96513
97001.6
96861.8
96695.4
96665.2
97147.3
97471.2
106927
108640
110620
107112
109004
109618
109275
110983
112598
110658
111828
111809
104940
107871
103596
101027
99843.4
98822.8
97584.4
97424.4
97446.8
97360.1
97619.4
97874.5
115620
111608
111272
111380
111532
109180
109446
108537
108830
110136
110239
111372
111940
93508.1
92770.2
92331.2
87509.5
90064.4
91322.6
89380.6
88053.1
78527.8
72787
73156.4
68559.6
69807.6
71007.3
76907.9
75551.6
73844.2
79906.4
85229.1
86399.5
83177.8
81844.4
80403.6
83962.1
68283.1
71135.4
66846.9
67021.1
67544.6
67794.1
66678.1
67165.8
74069.5
83340.2
75950.9
80676.7
94204.3
95092
95944.3
96049.1
95391.5
95840.8
96292.8
96384.4
96517.5
96894.7
96733.7
96782.5
96640.1
97065.6
97199.6
106308
108356
108430
107166
110122
110384
110642
113424
116215
114380
104651
107794
102822
100011
100574
98955.4
98057.3
97165.7
97072.6
97015.1
97502.6
118997
111614
111899
109303
109873
108905
108988
110393
110154
110389
93586.3
93188.5
92543.6
87074.4
90327.5
91391.4
88985.9
88298.5
77533.7
79047.2
71675.8
71993.2
68614.7
69397.8
69897.4
76028.3
75080.3
73454.6
85729.1
82629.8
81449
79861.6
84196.3
66920.1
70068.2
65215.8
65457.9
66254.1
66342.2
65299.9
65938.2
72132.3
79338.8
74955
77005.9
94328.1
94960.7
96041.9
96260
95670.9
95900.5
96444.4
96439.8
96513.7
96742.2
96783.7
96703.6
96624.1
96558.8
96855
96940.2
106518
109805
106438
110118
110741
110295
113324
113404
114269
106040
103621
108187
101281
99253.9
99320.1
98368.2
97555.7
96770.2
96677.8
96727.9
97127.1
109831
109492
109091
111057
110500
111214
93920.2
93295.3
93046.9
92271.5
87063.9
90844.6
90056.3
91724.4
89094.1
87800.7
77511.8
78540.2
71209.8
71565.3
67234.8
67975.2
69328.6
75879.4
74110.9
72357.3
85591.3
81809
83455.5
80478.8
78885.9
84809.7
67131.7
65193.3
68176.8
70935.3
64274.8
64565.1
64877.9
64886.4
64765
65877.4
70962.8
76471.6
81765.5
73681.3
63189.1
94639.9
95309.5
96170.6
96373
95736.8
96133.1
96530.5
96554.7
96722.4
96679.7
96588.6
96619.3
96632.9
96829.2
109094
110128
107308
113692
114588
114538
109264
116314
106433
102962
107093
100650
98432.7
98479.5
97604.4
96990.6
96535.5
96577.6
96489.5
96472.4
96664.5
110278
108583
110101
111429
111442
110536
93940.3
93413
92727
86539.7
91112.8
90805.5
89548.9
91686.1
88347.7
76733.7
70025.8
70380.7
67555.2
68228.5
74745.1
73724.2
71965.5
81413.9
83382.7
80305.4
78364.5
84834.4
64963
63827.2
67263.8
68756.5
62931.7
62873.1
63536.3
63389.6
63392
64867
68552
71616.2
75931.1
84613.3
73973.6
75161.4
94737.3
95327.4
96255.2
96293.7
96521.1
95972.4
96287.2
96652.5
96644.9
96611.4
96467.7
96544.5
96561.3
96626.3
96581.4
96683.3
96597.7
109699
109904
109156
116600
118061
114273
104782
101620
106859
99139.2
97631.3
97525.5
98339.8
96982.9
96429.9
96276.6
96230.9
95984.9
96311.1
96008.7
110406
108610
110484
111800
111239
94108.2
93323.1
93844.5
92504
93048.1
86576
90967.5
89654.9
91964.7
88262.7
76472.7
69556.8
69981.3
66119.8
67502.9
74758.9
72739.6
70780.9
81492.5
82425.3
84115
79510.8
77171.6
78713.1
85638.7
64423
62303.8
65629.2
62089.5
62317.9
62298.7
61807.8
62867.1
65123
63551.3
67121.6
69514.8
75974.1
78430.1
72269.4
73934.6
95194.3
94457.9
95788.6
96466.9
96572.6
96671.2
96166.4
96264.7
96553.5
96781.8
96467.7
96465.2
96569.9
96418.7
96687
96644.7
96728
110155
109647
114042
104151
101116
107076
110169
98066.5
96896.4
96630.5
97150.2
96364.8
95858.8
95888.1
96070.3
95748
96033
110736
109178
110454
110814
93892.1
94132.7
92833.8
93509.7
86974.5
90620.9
91665.7
88975.3
90151.2
87561.5
75463
68243.8
68826.3
66365.1
73693.8
72319.9
70432.1
80776
82911.3
84019.7
79749.5
76944.5
77976.2
85716.8
62963.7
61465.3
61437.3
65149.6
60737.5
60722.8
60769.4
60616
61201.6
64065
62825.9
66920.9
65847.5
70285.6
67458.6
75421.1
79614
73779
70937.6
79926.5
95413.1
94792.7
95959.8
96675.9
96808.6
96428.7
96673.5
96817.7
96828.8
96741.8
96351.1
96191.4
96568.4
96346.4
96757.4
96647.8
109877
110248
102249
105014
99477.1
110120
106401
110908
96836.9
98079.2
96137.1
96375.9
95941
95720.3
95378.9
95617.9
95823.6
95243
95963.7
95586.2
111022
109953
111232
110761
94022.3
94596.3
93404.6
92602.1
86742.8
91028.5
91961.8
88896.9
90062.5
88161.6
75118.1
67930.6
68302.7
65455.6
72747
71141.1
69104.9
80906.2
82557
84434.2
78953.2
76182.6
77996.9
85211.2
61729.6
63168.6
59639
59895.4
59796.6
59990
60115.1
59639.5
58932.8
60596.5
62984
64272.2
61359.2
65065.1
64620.6
68867.7
66257.5
77382.5
72789.3
83800
62941.2
79929.6
95202.1
95751.3
96346.3
96784.6
96933.2
96784.3
96947.9
96825.2
96965.2
96868.8
96205.7
96395.5
96287
96770.6
96606.3
110410
110603
101319
103879
99583.6
111123
107098
95657.5
96607.4
95547.5
95288.6
95005.4
95224.2
94920.4
95186.4
95499.1
94811.2
95011.1
95758.6
95373.8
95574.6
110452
111341
94420
94832.5
93860.9
92856.6
87147.3
91589.1
90821.8
89475.1
87953.7
75386.5
66551
67144.5
65451.4
72338.6
70465.8
68974.2
79960.4
81690.4
83075.8
83887.2
79067.3
75991.9
76983.1
85449.8
59896.9
62257.7
59010.7
58462.9
58828.3
58379.2
58641.2
58626.5
57984.3
57856.6
59044.7
61948.8
63250.9
60780
64012.6
63269.6
70278.7
66804.1
64423
77702.8
74780.5
83740
77802.4
95498
95957.3
96602.5
96876.3
97046
96987.1
97107.3
97151.1
97125.4
96977.6
96043
96289.6
96530.9
96067.4
96769.5
111347
101905
105088
98168.7
109293
94932.7
94868.4
96630.6
95113.2
94781.6
94654.7
94484.3
94568.9
94310.2
95131.9
94351.3
94520.5
95835.4
95042.9
95388.1
111278
94473.9
95209.3
93865
92028.4
93191.9
86700.8
91080.2
89487.2
88200.2
74633.7
66563.8
64385.8
72818.8
70925.6
68033.2
79875.5
81692.5
82806.5
84697.3
78344.3
75197.8
77249.7
86042.2
59594.6
60936.9
57478.5
56625
57452.4
56610.2
57629.3
58150.6
57515.4
56267.9
56179.9
58422.3
61933.9
63229.7
59471
62553
62326.5
69123.6
65584.1
63184.2
76703.7
73676.5
91354.3
77992.9
84004.6
95461.2
96229.5
96932
96456.3
97137.8
97248.8
97308.1
97255.9
97391.6
97251.4
96977
96232.8
96529.4
96000.4
96826.4
111928
100051
104791
98206.1
109535
93865.2
93547.5
95093.5
93936
94334.4
93595
93537.9
94125.8
94030.1
94797.4
94171.1
94413.2
95637.3
95036.8
94731.7
95223.7
94868.4
95437.8
93587.6
94769.7
91803.1
93046.9
87639.1
90733.2
90078.8
88803.9
73686.3
66889.1
65091.1
64271.1
72049.1
70211.8
68270.8
79070.5
80798.2
83081.2
84530.6
78377.5
74797.9
76537.7
86192.1
58162.7
60998.7
56212.7
55726.6
56194.6
55938.7
56641.5
56010.4
54970.5
57098.2
60801
62111.8
59464.6
61315
67593.6
69956.2
63627.4
66262.2
61610.9
62906.8
77309.7
72277.9
77089.6
85979.4
79974.9
89038.7
95911.2
96269.7
97251.7
96880.2
97197
97413
97619.2
97624.1
97626
97498.3
97195.5
96819
97075.2
96310.2
96512.5
95834.1
96648.5
100413
106185
102373
96299.7
112270
93156
92462.4
94838.5
93933.8
92632.6
93711.6
93067.9
93256.1
93586
93486.8
93621.9
93917.6
95347
94672.8
94333.4
94914.7
95314.4
96040.9
94320.8
95078.6
92184.3
93547
87630.7
91215.1
89938.2
89075.6
73663.4
65906.7
64744.7
62817.9
70981.2
72765.3
69053.4
66978.3
78980.4
81366.1
83768.4
82454.6
85414.4
77294.1
74835.1
75611.8
86786.5
56998.8
58541.9
59732.1
54538.9
54248.6
54459.2
56026.8
54633
55692.3
56190.5
54786.6
53787.5
56582
61006
61707.5
58304.7
59877.5
66971.9
68145.3
70611.8
62296.2
64789
60457.8
61213.6
72842.9
77033.2
81644.7
81048
90741.2
96713.8
97577.9
96983.2
97614.3
97978.2
97739.9
97939.2
97729.5
97447.9
96934.6
97190.5
96104.3
96480.5
95746.8
96913.4
97559.1
106213
102451
95715.2
110629
92000.8
92021.3
91531
92971.6
92456.8
91749.3
93334
92047.2
92550.3
93186.5
93184.1
93483.9
93895.3
95193.8
94366
94775.6
95977.8
96426.6
94300.1
95534.9
91922.9
93268.1
88651.4
90822.1
65778.5
63702.2
62625.6
70411.5
72203.2
68712.6
67404.5
77465.6
79053.7
81119.9
83864.6
83011.8
85533.5
76773.7
73624.8
75630.3
86696.3
56052.9
57226.9
53238.1
53115
53401.9
52848.5
54014.2
53332.1
54256.5
54765
53509
53028.3
55070.9
57011.8
59775.8
60447.9
58566.8
58426.8
65326.3
67646
69420.2
60561.2
63161.1
59240
60001.6
71471.8
74761.9
79296.8
84294.5
82567.8
88737.2
96779.9
97702.7
97365.6
97879.5
98281.1
98172
98211.1
97905.5
97608
97466.7
97290.7
95835.2
96175.9
96665.6
95420.2
96962.6
97450.3
103861
100163
93565.8
108493
91414.7
90559.1
90437.4
91915.2
92452.3
90409.4
92761.6
91556.1
91822.9
92656.1
92594.8
92975.4
93500.2
94947.1
94006.2
94258.1
96020
96456
94749.7
95589.4
92453.9
93741.3
88818.8
90884.8
64713.6
63492.1
61408.2
69203.8
71014.9
66805.7
77502.5
79367.5
82597
80271.9
84752
73764
74978.7
86969.7
54644.6
57156.6
51541.7
51228.5
51628.4
52718.2
51367.7
53413.5
52807.7
51867
53745.8
54364.1
52202.5
51077.7
54234.1
56033.8
59789
57692.6
58282.2
64554.2
66488
69911.7
59540.8
59520.4
62165.3
58602.5
72317.6
74480.2
78576.3
85896.7
83214.7
91271.8
87430.9
97199.2
98127.3
97480.2
97980.2
98431.2
98337.5
98437
98337
98150.7
97826.2
97687.4
97194.1
95786
96140.7
96833.3
96496.8
95357.3
95349
104415
100362
92255.8
107147
90246.7
89904.9
89822.3
89711.3
90192.5
90533.4
89491.2
92407.4
90604.7
91340.1
92169.1
92316.6
92111.1
92435.4
92713.3
93543
92911
94824.2
93983.6
94395.8
96572.5
97082.4
95321.3
94528.9
96515.8
92202.4
93357
87855.6
89366.7
90023
91645.9
64666.9
62230.4
60140.4
61209.4
68524.8
70528.1
65523.2
67315
76839.9
79043.7
82549
81240.3
84926.1
72621.1
74952.7
86379.3
54438.4
55730.2
49994.2
49917.4
50948
49954
51860.7
50382.9
50227.5
52180.6
52834.9
51131.3
49529.5
54554.5
52822.1
56395.1
58269.6
56688.8
64921.2
62933.7
66680.3
68733.3
57657.8
57874.8
60487.4
57395.2
71555.2
75125
76679.2
80334.6
84893.7
81972
87788.7
88875.2
97308.2
98252.1
97894.3
98350.3
98902.5
98834.8
98950.3
98774.7
98027.7
98417.6
97725.6
97348.5
95597.9
96208.9
97028.8
96621.9
95025.7
92840.6
95870.7
102065
98311.2
91648.2
90109.8
106876
90008.6
89577.1
88558
88424.3
88615
89364.2
88097.5
91680.1
90133.3
90530.8
91552.5
91695.4
91473.7
91966.8
92184.9
93195.9
92773
94772.1
93604.9
94175.3
96980.2
97319.9
96058.2
94977.1
96932.8
93671.3
88362
89361.6
90934.4
91865.9
63336.1
62219.4
58867.3
59922.5
69001.7
70845
65342.5
66570.2
77636.5
75570.1
79666.7
83296.2
80880.7
84250
73774.4
71507.3
86813.1
53057.7
55519.5
48416.5
48483.2
49893.6
50421.5
48631.8
51706.8
48978.2
48858.8
51871.1
51133.8
49416.2
48312.3
53294
51693.4
55345.5
57337.5
56372.1
63472.2
62080.6
65607.9
68915.9
56770.9
56738.2
57164.6
59741.9
72451.7
70207.8
73903.3
76907
79805.4
85234.8
84062
85974.5
87716.4
97984.1
98689.8
98649.5
99198.7
99169.9
99125.2
99076.3
98140.3
98516.7
98638.1
97597.1
98084.7
95565.5
95979.5
97012.9
96417
95196.3
91181.4
93447.9
101415
98872.2
88821.4
88580.8
104953
88999.9
88481.6
88116.3
87936.8
87625.8
87968.5
87660.9
86877.1
89205.5
90265.6
90936.8
91494.7
90905.7
91929.9
93159.9
92329
94527.5
93767.3
97513.7
97870.7
96734.5
95970.9
94490.4
97556.9
93131
88101.4
89907.1
90790.5
92487.3
63063.7
61099.3
57716.4
59799
68078.6
69491.1
64263.1
66807.3
77035
75036.3
78785.3
83256.9
81054.2
84964.5
73433.1
71349.3
85981.8
87470.5
52918
54116.3
46688
46731.8
48371.8
48862
47488.9
50354.5
47301.1
47423.9
50470.6
49694.2
48455.9
46607.2
53770.3
51727.1
50332.6
55819.1
55091.5
62969.8
60616.3
66187.7
64133.7
67571.8
55228.4
55189.4
58228.5
55633.1
71487.7
69906.1
74172.3
77937.9
75640.7
80983.1
85143.6
82827
87858.8
88745.9
98353.1
98813.1
99545.5
99680.9
99683.5
99413.1
98884.8
99020.7
97641.8
98268.3
95731
96094.6
97106.6
96525.1
95008.1
88946.8
93669.2
102691
96451
86775.5
86792.9
105853
88183.4
86914.3
86767.6
86130.9
86968
86684.4
86552.5
85542.8
88608.4
89505.8
90874.6
90272.8
91203.7
92684.3
92111.6
94348.6
93433.7
98121.3
98326.4
97540.3
96464.5
94834.9
98025.7
94029.6
89435.6
91185.8
92415.9
61907.4
60877.5
56962.7
58284.9
68147.4
70177
64654
65988.3
75857.2
77683
73761.3
79848.6
82536
84543.8
81676.5
72112.4
86593
87673.9
51554.6
53941.4
45132.4
45083.1
47531.9
48521.9
47697.4
46141.6
49151.5
50383.4
45913.4
46802.6
46356.5
49245.8
46839.7
45229.5
53047.4
50456.3
48969.3
54900.3
61214.8
59727.6
65107.3
63691.3
67568.1
54083.3
54728.1
54058.9
57931.3
54844.5
71575.4
68774.8
73011.1
77543.8
75914.2
80525.3
85983.5
83457.1
85985.1
87304.7
99454
99692.9
99562.4
100050
100016
99411.8
99583.6
98954.1
97399.1
98002.4
98626.4
95619.6
96022.4
96865.9
96264.6
94621.6
95318.4
87722.4
86828
91279.2
101198
96270.5
84751
84975.6
104023
87222.9
86238.2
85792.7
86062.3
85075.4
84750.5
84473
87465.2
88801.7
89531.9
90721.7
90195.6
91040.7
92542.4
91498.6
93743.9
92864.2
98910.3
98970.8
97725.1
97118.1
95913.8
95346.3
98615.6
94218.1
89801.5
90735.8
93081.3
61588.6
59500.4
55307.5
56869.7
57133.7
67183.9
69647.6
63777.6
65769.7
75452.2
77153.5
73121.4
79564.4
83108.7
84859.1
81392.3
71740
86117.7
88411
51328.4
52583.8
45071.3
43432.2
43458.7
45630.8
46514.1
46136.8
48099.2
49014.8
44242.1
44934.3
44801.3
45938.7
47525.8
46186.6
43591.1
51497.7
53607.4
48905.3
50430.6
47473.1
59850
60801.3
65332
62461
66681.4
52610.4
53373.4
52513.7
56859.5
55329.4
53548.1
70427.9
69063.8
73122.6
78024
75349.9
79188.3
81445.4
85508.9
84329.2
82933.4
78483.2
89194.8
87370
99738.6
100275
100118
100614
100425
99656.6
99986.6
99290.5
97572.5
98179.5
98751
96968.7
96098.1
94368.4
95260.7
85254.6
88366.8
84843.8
92955.3
98353.2
82464.2
83483.3
105080
86204.4
86814.5
85054.9
84527.8
84848.5
84178.7
83430.9
83373.1
86855.1
87476.6
88168
88850.8
90121
89505.4
90358.8
91888.2
91371.8
93555.1
92748.3
99133.6
98508.2
97521
96853.7
95408.9
98990
93868.4
89248.5
91063.1
92665
62404.9
60399.1
59299.7
54121.9
55145.7
56497.3
67524.2
70612.6
68502.2
64591.4
75980
74111.4
78178
73098.3
80353.8
82484.5
84104.4
86462.5
88325.5
49808.6
42931.5
41927.7
41806.8
44281.2
45639.6
44594.3
46680.5
48641
43187.6
43574.8
43353.7
44310
44665.9
42095.9
51278.8
52652.9
47226.9
48897.8
45997.6
57962.9