/*--------------------------------*- C++ -*----------------------------------*\
| =========                 |                                                 |
| \\      /  F ield         | OpenFOAM: The Open Source CFD Toolbox           |
|  \\    /   O peration     | Version:  v2012                                 |
|   \\  /    A nd           | Website:  www.openfoam.com                      |
|    \\/     M anipulation  |                                                 |
\*---------------------------------------------------------------------------*/
FoamFile
{
    version     2.0;
    format      ascii;
    class       volScalarField;
    location    "3";
    object      p_rgh;
}
// * * * * * * * * * * * * * * * * * * * * * * * * * * * * * * * * * * * * * //

dimensions      [1 -1 -2 0 0 0 0];


internalField   nonuniform List<scalar> 
27222
(
102274
101993
101999
101603
102600
101369
101828
101863
103782
102020
102140
101955
101974
101871
103058
101821
101990
101553
101979
101706
101694
101844
103020
101826
101826
101919
102696
101984
101537
101581
101624
101794
102584
101780
101896
101979
102233
101829
101887
101570
101555
101590
101699
101757
101731
101925
101857
101655
101959
101977
102268
101880
101461
101522
101452
101587
101658
101763
101843
102714
101760
101548
101898
101920
102044
102052
101810
101324
101433
101336
101523
101694
101877
102263
101560
101601
101350
101993
101901
102066
102251
101800
101197
101339
101438
101236
101513
101688
101756
102054
102794
101404
101154
101998
101857
101948
101974
102028
101830
101746
101074
101242
101384
101128
101488
101575
101636
101457
101865
102196
103202
101186
101017
101995
101868
101904
102047
102080
102491
101746
100973
101046
101138
101239
101299
101431
101497
101641
101229
101667
101625
102441
100999
100797
101914
101824
102049
102202
102172
101882
101703
100839
100877
101069
101136
101288
101368
101477
101594
101059
101394
101323
102708
100784
100736
100759
101878
101816
101987
102007
102108
102744
101712
100798
100832
100945
101126
101219
101378
101533
101435
101609
100784
101344
101406
101273
103991
100675
100462
100626
101951
101837
101766
102039
101967
102165
102896
101670
100640
100686
100869
101046
101214
101347
101496
101443
101574
100702
100848
101358
101130
103482
100430
100327
100463
101917
101824
101777
102038
102326
102215
103832
101673
100545
100728
100572
100916
101085
101165
101289
101391
101515
101594
100401
100624
100747
101181
100945
101441
100281
100053
100289
101849
101930
101750
101982
102185
102229
103887
102390
101706
101641
100344
100637
100385
100849
101026
101195
101268
101372
101494
101570
100200
100264
100573
100914
100842
101602
100002
99916.4
99832.7
100031
101818
101883
101772
101970
102094
102321
102835
102315
101693
101652
100277
100451
100659
100353
100932
100751
101078
101170
101302
101412
101524
101460
101587
99868.1
99957.2
100059
101238
100138
100849
99649.5
99577.5
99958.7
101841
101908
101746
102036
102051
102348
102826
101710
101638
100105
100466
100570
100179
100835
100747
101064
101218
101283
101391
101508
101472
101564
101617
99595.6
99540.6
99791.1
100635
99797.4
100651
99512.4
99442.5
99297.5
99684.5
101804
101881
101760
101981
101992
102151
101797
103073
101689
101660
100055
100331
100631
100095
100860
101137
100980
101209
101329
101418
101523
101458
101575
101619
99418.7
99276.7
99068.4
99350.3
100005
99273.7
100364
99279
99253.1
99476.6
99140.6
99734.7
101807
101840
101900
101733
101986
102017
102156
101930
102608
101702
101649
99889.1
100334
100146
100587
99925.5
100789
101147
101022
101257
101311
101423
101515
101481
101566
101601
99061.6
99019.6
99003.2
98889.4
99700.2
98836.7
100899
99738.3
99001.2
99211.5
98809.8
99507.1
101767
101810
101879
101743
101956
101966
102048
101967
102123
101925
101682
101656
100149
100436
100067
100666
99794
100836
101218
101103
100946
101267
101345
101397
101461
101534
101581
101610
98643.6
98381.8
98477.7
98938.3
98209.5
100294
99204.3
98770.2
99010.3
99277.7
98596.5
99596.3
101771
101824
101894
101711
101932
102002
101933
102004
101916
101683
101639
100130
100461
99883.2
100601
100805
101223
101155
100977
101313
101420
101482
101518
101601
101581
101629
98360.4
98085.7
98238.1
98478.1
97758.4
99475.1
98522.9
98445.9
98726.1
99076.3
98151.5
99406
101732
101804
101862
101706
101881
101912
101935
101841
101981
101663
101649
99944.1
100324
99782.5
100674
100880
101271
101142
101062
101341
101399
101463
101536
101606
101593
101571
101622
97923.7
97466.4
97676
97650.5
97153.8
98887.8
98185.6
98168.7
98450.6
98680.9
98816
99186.3
97873.9
99542.7
101728
101807
101754
101848
101676
101854
101883
101891
101891
101952
101657
101641
99890.8
100353
100651
100870
101294
101328
101241
101077
101435
101488
101524
101620
101606
101584
97592.6
97310.4
96981.6
96661
97908.3
97181.9
97807.2
98208.7
98376.5
98694.2
98973.5
97445.1
99398
101684
101733
101782
101763
101809
101669
101817
101859
101865
101825
101899
101759
101637
101632
99696
100031
100237
100533
100763
100981
101343
101375
101256
101184
101420
101480
101544
101624
101605
101624
101580
97113.1
96674.6
96354.6
96717.9
95997.6
97136
96913.2
97025
97515.8
97925.9
98238.3
98452.7
98725.9
98950.7
97335.7
97075.1
99100.5
99487
101679
101693
101792
101722
101808
101633
101813
101830
101833
101861
102031
101741
101621
101616
99771.1
99941.7
100319
100605
100736
101003
101407
101364
101212
101466
101513
101550
101626
101625
101620
101640
101595
96709.2
96089.6
95650.5
96043.6
95280.3
96835.4
95539.9
95923.1
97201.8
97779.9
97986.4
98337.9
98643.7
98716.2
96917.5
96686.7
99028.7
99383.1
101652
101698
101763
101730
101764
101624
101633
101765
101771
101861
101927
101668
101612
101613
99563.6
100032
100511
100246
100875
101131
101462
101410
101397
101332
101510
101585
101637
101623
101627
101649
101648
101606
96270.4
95533.9
95497.1
95059
94821.8
96369.1
95374.1
95394.5
97298.9
96997.8
97475.6
97831.7
98046.5
98454.4
98643.6
96706.3
96316.7
98757.4
99164.8
101645
101665
101698
101751
101580
101598
101753
101767
101836
102112
101771
101587
101617
99522.9
100112
100567
100265
100872
101176
101556
101497
101485
101378
101560
101597
101639
101651
101665
101670
101633
95755.5
94966.4
94658.8
94216.5
94093
95619.1
95345.2
94842.4
96996.9
96731
97591.2
97871.1
98162.3
98322.8
98379.9
96400.1
96016.9
98623.5
99036.9
101614
101650
101660
101694
101711
101588
101585
101597
101714
101742
101778
101837
101756
101811
101776
101592
101607
99707.4
99184.1
100038
100734
100438
101002
101322
101136
101593
101549
101535
101553
101482
101638
101641
101677
101689
101684
101654
95481.3
94513.4
94404.7
94120.2
93757.8
93775.1
96584.1
94152.6
93397.2
96973.9
96747.6
96468.3
97420.6
97638.3
97892.2
98282.6
96102.8
95655.7
98390.6
98777.9
101616
101640
101659
101705
101544
101540
101563
101717
101730
101765
101779
101748
101867
101773
101577
101631
99671.3
99125.3
100154
100838
100499
100972
101351
101273
101640
101624
101602
101620
101534
101652
101675
101706
101706
101719
101716
94869.9
94558.7
93938.3
93434.9
93293.9
93079.5
93081.5
95185.7
92847.9
92887.7
96713.5
97114.2
96471.3
96218.7
97485
97720.2
97853
98057.1
95817.1
95401.9
98274
98571.1
101578
101603
101657
101673
101515
101550
101513
101545
101697
101737
101768
101758
101870
101599
101623
99866.2
99338.7
98820.5
100107
100392
100732
101080
101467
101255
101685
101701
101641
101726
101660
101711
101684
101725
101734
101729
101750
101740
95044.1
94079.1
93574.3
92655.7
92451.7
92756.6
92435.4
92978.1
93264.4
92102.9
90986.9
96528.4
96739.8
97068.5
96248.3
95914.5
97358.9
97548.1
97667.1
97975.8
95502.2
98055.5
98339.8
98579.4
101583
101594
101619
101673
101469
101514
101462
101496
101696
101720
101747
101687
101782
101554
101654
99839
99299.4
98626.3
100307
100481
100842
101125
101578
101381
101713
101718
101760
101717
101755
101766
101681
101715
101759
101777
101767
101760
101781
101787
94699.8
93573.5
94249.6
91516.9
91389.6
92265.2
91833.2
92458.4
94080.4
91604.3
87544.3
96339.3
96880.9
96525
97182.2
96047.4
95784
97393.7
97455.6
97799.5
95280.7
98045.9
98208.2
98372.2
101537
101556
101615
101646
101462
101432
101460
101477
101683
101726
101711
101726
101563
101666
99563.4
100079
99022.2
98408.8
98720.8
100335
100689
101033
101296
101542
101784
101782
101821
101872
101851
101822
101716
101782
101804
101798
101821
101819
101810
94834
93207.6
93955.7
90675
90566.3
91802.3
90917
91839.6
92615.8
94613.1
90929.9
91163.6
91652.7
96393.7
96071.4
96870
96567.3
97089.3
95986.7
95484.6
97152.4
97379.3
97333.4
97607.9
95279.5
97844.4
98200
101497
101537
101590
101649
101401
101370
101396
101422
101690
101726
101718
101488
101657
99490.1
100103
99176
98198.7
98446.4
100585
100796
101178
101324
101648
101826
101886
101910
101958
101924
101882
101756
101824
101841
101839
101810
101846
101855
101859
94666.6
93098.8
94012.9
93337
89428.3
89601.9
90462.2
91043.2
91339.6
92235.2
93109.1
90652.7
89834.1
95266.5
94648.9
96233.1
96058.6
96672.8
96955
96426.8
95670.1
95447.4
97126.8
97154.3
97181.8
97394.7
97638.5
95021.5
97830.9
98009.9
101474
101553
101495
101594
101631
101358
101332
101376
101402
101671
101552
101719
99745.4
100415
98864.3
98102.3
97963.8
98487
98181.7
100676
101055
101213
101483
101805
101639
101901
101951
102049
102065
102036
102023
101854
101861
101887
101890
101885
101868
101913
94287.7
92557.1
93728.4
93309.8
89010.6
88359.4
89156.9
89765.2
90421.6
91600.8
90649.5
90140.2
89865.5
93196.4
91673.6
96255.8
95894.6
96696.4
96915.7
96404.5
95705.2
95231.2
96991
97127
97096.4
97252.2
97401.8
95008
97618.6
101429
101535
101483
101577
101640
101275
101241
101218
101336
101734
101454
99778.1
100515
98932.5
97817.1
97820.8
98109.8
97969.2
101009
101226
101438
101911
101859
101974
101930
102038
102106
102107
102114
102040
101901
101915
101928
101948
101920
101909
101940
101943
94403.4
92339.2
93773
92930.6
87936.3
86996.7
88167.3
89365.4
89620.6
91297.3
90258.9
89114.8
88701.9
91510.3
95110.8
96090.2
95839.7
96793.6
96579.6
96264.7
96461.7
95455.3
95169.6
96918.4
96943.4
96920.6
97104.1
97265.7
97413.8
94651.6
97641.1
101411
101547
101502
101445
101581
101613
101273
101188
101092
101368
101851
101689
101187
100174
99415.6
100855
98667.5
97665.9
98009.4
97688.3
101115
101463
101533
101951
101992
101999
102084
102309
102217
102219
102195
101917
101953
101990
101944
102037
101971
101941
101962
101993
94170.5
91723.4
92525.3
93341
92984.7
86936.1
87649
86146.4
86414.8
88428.7
89078.2
90767.9
89426.5
90395.5
88972.1
87009.3
91000.5
92920.6
96151.2
95915.6
95672.2
96732.9
96679
96301.9
96457.3
95243.6
94851
96811.4
96893
96833.6
97002.1
97031.3
97210.4
97374.8
101545
101509
101431
101558
101207
101057
100903
101343
101855
101645
100972
100322
99327.1
100987
98887.5
98254.3
97396.1
97586.5
97395.6
101483
101695
101811
102217
102057
102013
102181
102373
102340
102293
102246
102283
101953
101971
102030
102076
102150
102005
101962
102012
102022
94173.6
91565.1
92208.4
93497.4
92661.6
86323.4
86840.4
84756.3
85140.6
87864.4
88336.5
90642.5
89136.5
89816.7
88439
86053.7
92486.2
89284.6
98261.9
96067.6
95889.9
95591.1
96623.1
96224.3
96381.1
96513.3
95182.1
94694.4
96736.7
96800.3
96891.4
96700.5
96953.2
97011.9
97205.2
101517
101456
101396
101221
101107
100680
101298
102101
102338
100489
100061
100757
99568.3
101347
98662.5
97932.8
97237.2
97303.6
97318.9
101607
101741
101915
102294
102098
102074
102191
102570
102462
102362
102330
102538
101972
102021
102078
102204
102199
102019
101979
102025
102065
94374.4
93845
91761.4
90995.4
93302.8
92555
85182.7
86334.7
84525.9
83747.6
84513.3
87022
87825.3
90101.9
88528.8
87203.4
83666.6
92764.2
88667.8
94129.4
96117.2
95797.9
95362.7
96649.4
96241.1
96362.9
96504.2
94926.7
96666.7
96703.8
96638.2
96662.3
96706.1
96840.2
96884.4
101351
101177
101087
100723
101294
102307
102726
100106
100243
100914
99414.4
101596
98947.8
98177.7
97422.2
96967.1
96974
96941
101876
102098
102147
102580
102144
102075
102267
102651
102632
102570
102433
102333
102669
101982
102010
102060
102150
102374
102369
102004
101997
102065
102078
94342.1
94053.4
91603.7
90985.5
93477.7
92888.3
92015.3
85201.9
86442
83219.2
83245.5
82542.7
83372.1
86829.1
87047.9
87990.9
89829.9
88461
85659.1
82060.1
90797.9
86905.6
95628.6
95996.6
95740.5
95295.5
96586.5
96203
96314.2
96461.6
96503.7
94855.2
96603
96658.3
96558.6
96582
96572.8
96682.5
96793.9
101221
101043
100470
101288
103797
102177
99114.9
99862
100675
101443
101950
98478.2
97971.8
97093.2
96654.9
96666.1
96611.8
102175
102254
102757
102170
102132
102248
102757
102851
103073
102771
102461
102848
102005
102044
102021
102192
102546
102351
101983
101959
102064
102112
94545.8
93843.9
91599.3
90612.3
93305.4
92833
92108.7
84400.1
85461.5
82582.4
81221.9
81321.9
83011.6
85899
86535.6
87412.3
90154.3
88957
87951.6
83654.9
82178.3
80233.4
89658.6
86088.1
92037.5
95876.8
95795.5
95454.9
95056.4
96243.5
96323.3
96424.9
96530.1
96540.8
96525.1
96526.8
96469.4
96459.6
96434
96497.1
101274
101269
100924
101302
103155
104713
104289
98543.5
100045
101111
101602
102219
98452.5
97581.5
96620.7
97118.2
96396.4
96247.9
96182.5
102603
102638
103116
102205
102140
102265
102875
102768
102319
103176
103336
102660
102387
102975
101993
102036
102038
102086
102808
102526
101962
101971
102071
102118
94488.3
94132.6
91141
90664.7
93282.4
92470.5
91683.4
83437.5
84596.6
81143
79973.1
80355.9
81619.1
85828.3
86638.4
87388.9
89862.3
89224.3
87747
83432.1
79943.9
78513.1
91099.3
87244.8
88282
96036.8
95740.3
95417
95035.1
96315
96155.9
96374.9
96402.3
96479.6
96493.8
96400.4
96361.3
96406
96338.6
96358.9
96376.4
101335
101406
100373
102739
104721
103881
97013.6
99719
100997
101798
102272
102806
99004.4
97688.7
97337.2
96248.8
96708.6
96128
95992.8
95859
102830
103428
102185
102174
102175
102922
102888
102164
102893
102671
102507
102377
102943
101993
102051
101949
102006
102564
101936
101914
102105
102132
94749.2
94045.2
91205.2
90314
92797
93557.3
92470.7
91997.5
82794.8
83986
80337.7
80831.8
78636.3
78913
81725.2
85214.8
85908.5
86530.1
88909.3
86600.8
87873.4
81507.2
78266
79641.7
77027.8
89400.7
86181.4
90808.8
96072.5
95584.3
95228.7
96348.8
96289.8
96407.2
96438.7
96428.5
96421.7
96221.6
96267.3
96369.6
96164
96200.1
96097.2
101503
101653
101607
102839
102718
105714
106021
97267.6
100288
101332
101971
103597
103401
98692.3
97446.2
96784.7
96252.6
95860.4
95933.4
95486.4
95417.1
103383
103313
102218
102153
101467
103371
103302
102180
103032
104560
102327
102400
102540
101983
101939
101934
102044
102325
101909
101936
101862
102100
102174
94757.3
94245.9
90780.8
90123.7
92818.8
93541.5
91821.5
83003.1
84023.9
79214.9
79689.3
77256
78212
78199.3
80895.8
84493
85318.3
89520.1
88338.5
85995.6
87235.1
81231
76219.2
77600.9
75228.2
90663.1
84211.1
88814.3
96072.2
95619.4
95237.6
96299.4
96385.2
96270.2
96479.8
96449.6
96409.9
96087.3
96201.1
96240.6
96043.4
96085.9
95868.9
100057
101839
102617
107888
102077
102857
97485
100102
101100
101635
102838
104226
104135
104092
99248.3
97751.4
96653
96380.7
95766.9
95391.9
95759.4
95495.5
95256.4
95336.6
95120
102596
102263
101341
104744
103668
103161
104960
105929
103063
102625
104706
101967
102049
101851
101712
102394
101808
101886
102000
102130
102134
95000.8
94436.4
94220.5
90744.7
92381.2
93192
93863
92014.1
91207.6
82160.3
82986.4
78904.1
79247.9
75727.9
76554.2
76861.2
81369.9
79784.2
84085.1
84870.2
89367.5
88379.6
86457.1
85260.1
87745.8
78225.6
82373.2
74651.1
76023
77140.2
74202
86757.9
84542.3
89665.4
82907.2
95797.5
96098.8
95469.5
96444.3
96431
96133.8
96413.1
96483.2
96458.7
96409.3
95931.3
96042.5
96204.5
95859.5
95842.1
95759.7
101754
102338
106309
101882
102967
99990.3
101043
101757
102285
103138
103376
103461
104112
98991.5
97177
96345.3
95751.5
95250.5
95645.8
94830.7
95041.5
94754.5
105877
102195
102995
105988
104100
102532
102344
107940
101790
102210
101763
101820
101700
102267
101798
101830
101958
102382
95054.6
94790.7
94491.7
90225
92722.4
93201.6
93904.2
91853.2
91242
83123.9
77718.8
77979.7
74411.8
75912.7
76694
80865
79186.3
84741.6
88717.6
89679.4
86153.8
84963
87646.3
76429.7
80488
72834.3
74456
74895
72423
82365.8
87724.3
91563.4
95827.3
96120.6
95496.6
96478.4
96492.4
96398.9
96510.6
96449.8
96422.4
96289.6
95733.7
95920.5
95988.3
96121.2
95703.3
95598.3
101185
102313
105876
101654
104672
101644
101315
102644
103769
101825
103083
102875
98044.8
100173
97189.3
95588.9
95129.5
94752.1
95489.1
94774.7
94396.3
95120.7
94374.4
94281.2
106367
102343
101990
101817
102031
101785
101825
101368
102236
101780
101431
102124
102611
95302.8
94761.8
94411.9
90399.3
92524.6
93593.3
91950.6
90842.9
82497.3
77294
77413.2
73357.1
74504.5
75523.7
80905.3
79686
78012.9
83672.9
88399.6
89404.3
86459.3
85302.4
84014.4
87166
74237.5
77761
71856.3
72311.1
73017.1
73573.1
71565.1
71897.4
81465.9
92102.9
83766.7
90238.5
95749.5
96316.1
96591.6
96566
96464.3
96641.6
96538.8
96369.6
96340.1
95608.8
95737.7
95927.5
96112.1
95458.2
95403.9
100155
101893
103120
101520
101627
101931
101900
104157
106894
105008
97459.5
99873.1
96413
94991.5
94947.9
94565.4
94229.2
94510
94170.3
94884.9
94107.1
109447
102052
102322
101598
101851
101853
101371
101580
101781
101108
95348.3
95048.9
94516.6
89961.1
92680.4
93601
91557.6
90981.8
81462.8
82851.9
76083.8
76163.9
73285
73901.8
74333.3
79917.8
79051
77451.9
88770.3
85812.2
84804.1
83355.1
87261.2
72704.1
76534.4
70067.6
70541.8
71622.2
71830.6
69966.1
70462.9
79065.2
87943.9
82684.1
86369.8
95842.3
96213.6
96700.9
96632.9
96626.9
96716.9
96544.9
96424.2
96253.7
95596.4
95331.7
95871.3
95955.6
96163.1
95257.7
95031.3
100127
102929
100270
101426
101930
101529
104078
103804
104703
98408.8
96725
99767.3
95236.3
94281.7
94026
93967.5
93675
94238.1
93785
94542
93720
101713
102178
101072
101770
101691
101603
95553.4
95092.6
94882.1
94255.8
89832.4
93103.4
92370.9
93811.6
91580.9
90465.6
81250.8
82216.9
75460.8
75573.7
71684.1
72337.1
73564.8
79624.5
78015.3
76280.4
88527.1
85028.2
86515.4
83847
82407.2
87762.6
72966
70642.4
74245
77548.1
68933.7
69453.1
70014.7
70215.3
69258.9
70247
77682.4
84615.6
90694.9
80970.9
72787.2
96025.1
96451.9
96723.9
96712.6
96733.6
96843.4
96602.8
96400.8
95502.9
95265.7
95654.3
95965.9
96207.9
95054.3
102259
102902
100824
104468
105273
105266
100486
106734
98528.7
95919.6
98688
94496.6
93755.3
93237.8
93470.3
93333.1
93868.4
94229.9
93475.2
94465
93434.6
101781
100750
101567
101818
102177
101699
95590
95151.5
94603.1
89320.9
93286.7
93003.2
91916.8
93765.9
90894.2
80396.7
74185.6
74305.4
71758.2
72374
78405.1
77462.3
75733.1
84559.1
86346.3
83546.3
81778.9
87662.9
70498.2
69148.5
73274.6
75034.9
67432.9
67575.5
68520.6
68445.6
67703
69042.9
74845.2
78446.4
83996.9
93439.9
81287.4
84422.6
96103.9
96476.5
96844.2
96714.1
96705.4
96908.5
96964.3
96576.8
96459.3
95420.6
94984.7
95676.5
95483.2
96084.1
95830.5
96362.4
94780.1
102427
102319
102013
107070
108483
104990
97170.1
94956.3
98103
93294.7
92986.6
92638.4
92881.9
92850
92757.1
93667.1
93943.9
93071.8
94223.3
92745.7
101700
100641
101596
102212
101946
95681.8
95059
95469
94398.6
94828.4
89264.2
93088.2
91955.5
93960.2
90745.4
79982.6
73552.7
73755.5
70184.1
71472.6
78301.4
76415.1
74483.3
84505.3
85360.2
86959.3
82707.3
80588.7
81983.2
88357.1
69932.2
67375.4
71380.3
66597.9
66643.6
67044.4
66674.4
67005.5
69167.9
67639.2
73156.3
75981.6
83649.1
86854.3
79236.2
83069.3
96435.3
95906.5
96824.6
96972.3
96904.4
96861.1
96995.6
96981.8
97100.7
96649.7
95115.6
94804
95604.2
95323
96113.7
95946.6
96370.6
102484
102131
104541
96465
94326.6
98282.6
100893
92214.4
92529.4
91825.8
91859.2
92469.8
92403.4
93154.1
93656.5
92690.3
94038.1
101483
100927
101546
101460
95520
95699.8
94634.5
95207.9
89541.8
92747.3
93678.1
91331.1
92347.7
90054.6
78937.6
72140.4
72525.1
70281.6
77135.1
75847.7
74003.8
83738.5
85722.1
86779.6
82799.9
80222.3
81174.9
88326.5
68240
66341.8
66417.9
70806.5
65086.7
64881.5
65349.6
65245.4
65189.6
67939.7
66743.6
72885.3
71603.2
76864.8
73540.6
82994.1
87941.9
80910.1
80158
88530.4
96630.7
96189.2
96980.8
97057.2
96897.6
97251.3
97295.6
97278.9
96766.6
96463.4
94990
94518.6
95648.5
95129
96264.9
95878.3
101808
102080
95006.9
96960
92969.6
100806
97882.9
101337
91356.9
91979.8
91802.1
91383.4
91410.7
91826.2
91903.7
92981.7
93393.3
92235
94160.9
93534
101473
101303
101858
101159
95633.4
96060.4
95104.6
94427.6
89265.9
93062.5
93898.3
91193.9
92203.9
90529.3
78491.5
71680.6
71858.6
69228.9
76165.3
74630.2
72605.5
83739.1
85304
87093.6
81956.6
79411.1
81075
87800.9
66790.6
68528.8
64283.4
64657.3
64084
64165
64108.9
64001.6
63379
64426.8
66819.4
68023.1
65169.6
70728.4
70196.4
75115.5
72070.5
85250
79625.5
92452.3
72486.1
88302.2
96493
96862
97260.8
97128.8
97058.4
97509
97444.1
97461.5
96810.4
96510.6
94702.2
95411
95064.5
96275.1
95861.2
101988
102055
94110.7
95941.5
92804.3
101585
98388.6
90334.5
90642.4
91447.3
90420
90553.1
91532.4
91597.5
92525.4
93147.4
91677.1
92205.7
94001.3
93180.7
93685.7
101610
101773
95935.4
96261.5
95469.3
94639.7
89573.9
93541.4
92868
91661.8
90299.1
78664.4
70181
70647.4
69083.3
75626
73829.9
72345
82757.4
84440.7
85706
86480.6
81946.9
79081.1
80000.9
87938
64731.6
67506.3
63631.4
62914.4
63498.9
62483.6
62690.3
62464.8
62209.1
62116.2
62735
65635.1
66860.4
64450.9
69502.4
68635
76619.2
72670.6
69945
85602.6
81800.8
92270.9
87144
96729.1
97074.6
97498.1
97123.4
97084.4
97701
97554.1
97690.9
97035
96673.3
94556.5
95180.1
95654.9
94718.2
96156.4
102152
94369.6
96758
91537
100084
89922.6
89507.5
90405.1
89505.7
90717.7
90052
90263.6
90877.1
90953.5
92642.8
91286.9
91753.4
94225.1
92871.4
93492.6
101984
95984.7
96546.1
95445.7
93897.2
94890.7
89074.4
93047.8
91617.9
90447.4
77817.6
69950.9
67877.1
76005.5
74197.4
71310.3
82540.6
84335.3
85384.9
87194
81190.3
78266.8
80159.1
88441.3
64422.1
65967.7
61912.5
60872.3
61927.8
60570.8
61525
61843.2
61319.1
60274.2
60275.4
61959.8
65518.1
66720.9
63009
67801.9
67538.6
75184.5
71173.5
68486.2
84276.1
80441.7
100250
85997.9
93597.3
96711.7
97278
97725
97412
97356.6
97342.5
97930.3
97606.9
97928
97109
96600.9
95069
95615
94690.4
96223.7
102406
92692.2
96380.9
91322.6
100258
88981.6
88487.5
89006.8
88375.7
90476.6
89099.9
89411.3
90616.9
90834.1
92337.3
91271.1
91819.6
94072.3
92999.6
92430.8
93428.4
96296.2
96735.1
95200.4
96236.7
93675.1
94748.2
89902.4
92699.1
92111
90964.8
76842
70175.1
68416.1
67627.6
75122.9
73364.5
71432.5
81719.2
83391.7
85571.1
86948.8
81124.5
77782.9
79378.6
88512.6
62807.4
66015
60466.3
59804.6
60513.9
59761.5
60192.7
59660.2
58902.8
60512.1
64252.7
65487.1
62885.5
66367.8
73348.5
75980.6
68897.9
71848.9
66684.7
68101.2
84902.5
78628
84198.2
94829.3
87961.9
98334.4
97082
97352.2
98054
97779.1
97451.9
97470.1
98209
97979.6
98073.9
97448
96940.5
96323.9
96732.8
95233
95686.6
94432.1
95948
92831.2
97329.4
94313
89643
102663
88521.7
87509.7
88572.3
88154.8
87316.7
89892
88817.3
89324.5
90083.9
90304.8
90757.8
91361.2
93688.8
92660.5
92059.4
93041.6
96646.7
97239
95841.4
96514.4
93973
95167.9
89818
93087.2
91933.3
91140
76694.4
69081.9
67936.1
66054.9
74036.5
75752.9
72167.7
70040.3
81557.9
83859.8
86185.9
84909
87745.5
80038.6
77711.2
78431.9
89005.5
61442.2
63221.4
64579.9
58616.9
58160.5
58561.4
60332.9
58302.5
59235.4
59615.7
58375.2
57579.3
59859.5
64367.2
64963.4
61591.6
64725
72546.1
73816.5
76685
67343.8
70109.4
65368
66163.9
79076.4
83918.4
90111.7
88641
100240
97735.2
98318.9
97913.8
97764
98457.2
98380.3
98204.6
97639.5
97175.7
96411.9
96746.6
94987.9
95584.5
94386.3
96282.6
90306.7
97250.3
94208
88912.5
101245
87482.9
86948.8
86871.2
86917.7
86811.8
86367.7
89687.3
87897.5
88736.2
89850.8
90169.8
90790
91499.3
93596
92246.2
92956.7
97228.1
97562.5
95826.1
96886.9
93713.5
94896.5
90726.1
92721.6
68845.3
66803.4
65740.9
73349.7
75073
71710.1
70374.2
80059.8
81555.3
83539.8
86189.4
85364
87781.8
79436.6
76429.1
78325.9
88870.5
60419.7
61737.2
57119.8
56945.8
57190.7
56780.7
58094
56899.1
57667.5
58072.7
56947.2
56659.4
58256.9
60236.9
63016.8
63620
61764.3
63079.7
70663.2
73190.5
75165.1
65344.1
68261.4
63960.1
64769.8
77348.7
81186.9
86394.4
92642.4
90372.8
98043.8
97827.4
98483.8
98239.8
98035.2
98711.5
98759.2
98478.6
97872.1
97408.7
97097.2
96836.7
94598.1
95152.1
95826.6
93957.2
96316.6
90002.9
95160.5
92202.7
87060.6
98919.5
87136.9
85654.2
85876.5
86174.8
86305.4
85189.2
89119.4
87618.1
88017.9
89304.4
89592.7
90307.7
91145.2
93266.4
91908.9
92397.7
97284.7
97609.3
96199.3
96911.4
94164.8
95302.4
90823.8
92726.9
67680
66476.9
64418.1
72122.7
73853.8
69684.8
80020.8
81792.4
84921
82660.3
86994.7
76467.7
77629.7
89052.6
58838
61640.5
55271.8
54869
55264.9
56641.2
55124.2
57457.4
56357.6
55257.9
57047.4
57569
55545.4
54610.8
57296.6
59111.5
62841
60763.1
62888.3
69702.9
71747.5
75576.9
64221.9
64139.2
67067.3
63226.3
78146.6
80636.5
85318.5
94404.5
90897.8
100875
96311.2
98187.2
98857.6
98385.8
98051
98919.3
98677.1
99074
98527.4
98051
97583.2
97337.8
96646.1
94572.9
95051
96101.6
95580.3
93941.3
88111.7
95547.8
92222.4
85811.8
97826.8
86097.1
85218.7
84835.6
85348.9
84655.8
84623.4
84211.4
88893.9
86742.9
87720.9
88920.5
89435.5
88994.1
89671.2
90175.6
91332.5
90486.8
93168.2
92012.9
92635.4
97767.7
98149.2
96680.3
96005.9
97746.8
93887.6
94947.9
89868.4
91278.3
91877.5
93379
67523.1
65121.4
63122.3
64111.5
71340.6
73261.4
68351.8
70118.7
79300
81383.6
84786.4
83503.5
87078
75250
77503.7
88445.5
58591.9
60030.7
53549.5
53434.1
54682.9
53576.7
55714.5
53733.1
53507.9
55355.9
55928.6
54336.4
52908.9
57561
55828.5
59407.6
61263.5
61087.3
70014.7
67867.6
71852.6
74111
62080.3
62271.8
65172.7
61853.5
77165.5
81222.1
82965.1
87168.4
92990.4
89230.2
97150.4
97810.6
98298.2
99028.2
98752.5
98453.8
99346.4
99126.7
99543.2
98982.6
97827.7
98332.2
97325
96767.1
94308.5
95169.6
96334.1
95741.7
93556.1
86019.1
88363
93474.6
90413.9
85127.5
84066.5
97333.7
86063.3
85375.6
83992.5
83589.4
84303.8
83750.8
83003.8
88180.6
86459.9
86967
88211.4
88781.7
88435.6
89270.3
89609
90994.1
90450.7
93203.6
91636.1
92428.5
98100.8
98380.9
97349.1
96393.9
98119.1
95211.9
90291.5
91239.1
92692.6
93559.2
66102.8
65002.7
61708.3
62722.3
71731.1
73487
68068.7
69288.6
79994.9
78038.9
81922.7
85453
83096.5
86375.1
76311.5
74114.5
88796.4
57038.1
59781.5
51842
51834.3
53503.9
54123.2
52098.2
55537
52255.8
51988.6
54941.4
54272.3
52518.8
51605.7
56162.5
54586.3
58228
60209.6
60719.3
68296.4
66830.7
70546.9
74182.1
61073.3
61082.3
61428.4
64284.1
78017.4
75579
79628.6
82955.9
86206.9
93355.2
91287.2
95528.5
96302.9
98892.7
99425.1
98708.6
99537.4
99668.9
99770.7
99209.5
97900.8
98344.3
98619.2
97081.7
97751.1
94292.7
94887.5
96247.2
95466.9
93815.2
84330.5
86172.2
92822.9
90721.4
82660.2
82665.6
95599.2
85187.4
84427.1
83727.2
83304.5
82743.6
83833.8
82240.9
81821.8
85561.5
86883.4
87657.7
88700.7
87798
89446.1
91073.2
89985.2
92903.4
91922.4
98582.8
98855.6
97943.8
97292.4
95940.9
98656
94674.3
89982
91710.5
92531.7
94091.9
65720.3
63801.2
60505.6
62506.4
70714.1
72035.1
66906.8
69443.8
79316.7
77406.4
80974.4
85328.7
83181.7
86990.6
75893
73847.7
87951.6
89370.1
56867
58200.1
49952.7
49960.9
51840.7
52401.1
50872.9
54037.7
50409.7
50452.6
53412.5
52694.3
51436
49750.2
56579.9
54537.9
53184.4
58637.8
59267.1
67643.1
65191.3
71064.8
68868
72570.7
59321.3
59354
62571
59710.6
76799.2
75111.1
79748.1
84010.8
81351.3
87355.4
92817.4
89598.7
97054.6
97400.3
99222.8
99591.7
99852.4
100132
100317
99521.3
98727.4
98962.5
97089.8
97899.3
94540
95055.5
96359.3
95589.8
93629.2
82362.1
86210.4
93788.1
88506.7
80749.8
81165
96246.1
84313.6
82647.4
82262
81418.6
82866.2
81517.3
81116.8
80744.6
85096.2
86206.7
88103.2
87236.9
88701.2
90581.9
89872.7
92758.9
91620.7
99118.1
99232.8
98676.9
97734.3
96249.6
99091.4
95495.6
91232.2
92843
94001.4
64485.9
63484.7
59642.2
60884.5
70688.9
72644.2
67215.2
68550.2
78142
79879.2
76136.4
81964.1
84580
86545.8
83742.8
74555.2
88473.6
89509.1
55338.1
57990.2
48276.9
48163.9
50914
52003.3
51097.5
49392.4
52690.2
54051.2
48973.4
49818.6
49259.1
52154.3
49700.2
48282
55745.7
53144.1
51700.2
57601.4
65615.8
64137.4
69766.4
68261.2
72456.7
58053.6
58729.2
58065.8
62196
58794
76754.8
73764.4
78295.2
83319.1
81491.1
86531.2
93712.9
90063.3
95158.9
95548.6
100175
100058
99796.9
100533
100583
99406.6
99740.7
98738.9
96746.5
97529.7
98314.7
94436.2
94930.1
96019
95232
93150.5
94055.4
81134.6
80633.3
84023.6
92305.3
88198.3
79071.5
79447.6
94680
83452.8
81921.5
81254.5
82106.7
80034.5
79568.3
79745.5
83997.1
85442.3
86407.6
88094.3
87313.3
88657.5
90535
89238.9
92063.5
90979.6
99832.2
99828.5
98852.1
98304.7
97205.9
96694.7
99607.6
95641.2
91533.5
92390.7
94595.3
64059.6
62038.3
57952.2
59465.5
59690.2
69634.6
72022.6
66254.7
68239.8
77660.7
79272.2
75432.8
81607.7
85061.5
86780.9
83374.7
74094
87974.2
90169.7
55073.7
56459.7
48216.8
46422.6
46421
48865.7
49816.9
49396.3
51540.4
52536.4
47169.8
47814.4
47630.8
48771.8
50299.3
48932.2
46518.9
54112.1
56261
51554.2
53030.9
50159
64162.8
65056.6
69878.5
66824.3
71335.4
56387.7
57212.4
56358.6
60963.2
59290.5
57345.1
75348.6
73901.2
78257.3
83628.6
80660.5
84866.6
87378
92876.2
91193.5
89066.8
88015.3
97872
95658.7
100502
100590
100362
101032
100976
99621.8
100104
99087.3
96916.5
97685
98399.1
96134.4
95042.4
92917.2
94012.7
78994.9
81521.5
78793.5
85330.8
89838.1
76960.6
78211.9
95547.1
82387.4
83195.9
80834.3
80163.8
80914.7
79320.3
78313.1
78817.8
83349.4
84173.7
84918.1
85802.5
87507.2
86676.9
87968.5
89844.5
89212.4
91903
90921.5
100051
99564.5
98684.9
98076
96756.1
99952.5
95310.3
90965.2
92652.6
94156.1
64835.2
62814.4
61753.2
56656.2
57649.3
58929.3
69887.6
72929.9
70835.7
67009.4
78108
76300.4
80217.3
75329.1
82325.1
84409
86004.8
88240.9
90026.5
53368.8
45917
44821.4
44639.4
47396.9
48860.8
47716.6
49982.8
52093.2
46007
46375.3
46068.3
47013.6
47295
44922.3
53799.2
55201.6
49750.1
51380.6
48567.4
62067.9
63350.1
68560.8
66976.4
72128.1
56154.6
54988.9
56779.2
54896.1
58039.3
56280.1
75299.2
76831.1
79241
81923.1
84602
86357.3
94615.9
92095.9
89156.1
94661.6
97269.7
95746
100981
101049
100695
101523
101088
100107
99570.2
99035.9
97408.7
96588.7
98095.5
95687.6
95238.2
94395.3
93442
92303.6
77285.6
78992
77112.2
84424.9
89458.4
75690.8
76203.9
76456.7
93076.6
81649.2
82219
80315.1
79089.7
80240.5
77984.1