/*--------------------------------*- C++ -*----------------------------------*\
| =========                 |                                                 |
| \\      /  F ield         | OpenFOAM: The Open Source CFD Toolbox           |
|  \\    /   O peration     | Version:  v2012                                 |
|   \\  /    A nd           | Website:  www.openfoam.com                      |
|    \\/     M anipulation  |                                                 |
\*---------------------------------------------------------------------------*/
FoamFile
{
    version     2.0;
    format      ascii;
    class       surfaceScalarField;
    location    "3";
    object      phi;
}
// * * * * * * * * * * * * * * * * * * * * * * * * * * * * * * * * * * * * * //

dimensions      [0 3 -1 0 0 0 0];
oriented        oriented;


internalField   nonuniform List<scalar> 
43406
(
1.14898
-1.15341
-0.827393
1.97638
-1.26541
0.112004
-1.56451
0.737119
1.41411
0.562276
-1.26803
-1.4525
1.82742
-1.09029
1.40607
-0.740395
1.30268
-0.0586864
-1.20934
-1.17494
-0.277557
1.08703
0.748776
-1.83906
1.54517
-0.139096
1.20727
0.0954058
-1.23362
-1.21205
0.904413
-1.18197
1.14046
-0.0534327
1.80674
-1.05796
-0.934646
1.53824
1.06818
1.23587
0.0115616
-1.24518
0.028102
-1.24015
-1.21325
0.0312812
-1.48425
1.43082
0.322501
0.495336
-1.5533
-1.14997
0.215326
0.333728
1.20452
-0.871377
1.93957
0.364502
-1.20168
-1.21707
-1.24373
-1.11868
1.3322
0.0986309
-1.2827
1.6052
1.50912
-1.01378
-1.19603
-0.35726
-0.980705
-0.924635
1.25837
1.19889
1.01494
1.69671
-1.22574
0.0240597
-0.0530681
-1.164
0.305003
-1.54873
-1.22942
0.110742
-1.33762
1.43625
0.22643
0.267593
-1.17063
0.156852
-1.52789
-1.32146
0.340757
0.112173
1.1462
0.019191
1.17971
1.19401
-0.179068
1.59078
0.105935
-1.2788
-1.20536
-0.858997
-1.55197
-1.21072
1.46653
-0.0302717
1.58696
-1.36053
-1.19464
1.46224
1.24924
-1.09239
-1.18713
1.30619
1.1654
1.17467
1.41172
1.57247
-0.834415
-0.444384
0.12115
-1.32651
-1.69341
-0.208793
-1.34318
-1.26595
0.0552389
-1.18004
1.14977
0.39232
-0.111279
0.282205
0.133599
-1.22598
-1.38721
0.20008
0.126879
1.17931
0.0934568
1.07195
-0.201195
1.37587
1.22885
0.182872
1.39292
0.179557
0.779858
-1.22424
-1.1448
-0.546649
-1.2576
-0.435807
-1.46639
-1.34603
-1.33197
1.69523
-0.545457
1.32786
-0.935533
1.02818
-1.13945
1.54876
-1.26655
1.25168
-1.11808
-1.59819
0.372207
-1.39811
1.35574
1.27278
0.870757
1.36975
1.5758
-0.919411
1.09897
-1.3145
0.0902656
-0.843624
-0.301174
-1.39027
-1.75031
-1.18638
-0.280011
-0.0781705
-1.26786
-1.2101
-0.12186
0.775824
1.0033
0.06131
-1.69546
0.759926
-0.667276
0.11223
-0.745871
-1.30862
-0.089481
0.255277
1.10047
0.702861
0.56992
1.57362
-0.640407
2.01017
0.984029
0.591776
1.6223
-0.523327
-1.3
-1.51127
-1.01158
-0.738729
-1.26454
-1.29159
-1.27073
-1.43048
1.16463
-0.388807
1.55087
-0.547565
-1.51145
1.57276
-0.751519
-1.3275
0.660223
-1.21526
-1.43835
0.692476
1.3436
-1.43308
1.23931
1.67039
0.933223
0.711433
1.29874
-0.838212
1.42999
0.784098
0.64131
-1.62795
0.327945
-1.30072
-0.210557
0.658884
-1.39761
-1.22011
-0.0444361
-0.0659365
-1.22565
0.155021
-1.42575
-1.28131
-0.149169
1.16207
-1.50408
0.956521
0.0686828
-1.46026
0.708745
-0.800036
-1.35316
0.137896
-0.0947411
-0.660681
-1.29923
-0.133847
-0.365357
1.60467
0.813454
0.856948
1.74668
-0.881949
1.59339
1.29015
1.06464
1.73893
-0.954828
-0.816152
1.45747
-0.969058
-0.972769
-1.49186
-1.46355
-1.06508
-1.27008
-1.4306
-1.4484
0.34592
-0.915316
1.87184
1.50724
-1.43855
1.78788
-1.07913
0.564191
-1.36422
1.25523
-1.11733
1.52462
-1.61936
0.863941
1.24051
-1.37435
0.705707
0.898975
1.56266
0.864744
0.800836
0.792563
0.393555
0.896606
-0.424019
1.48867
1.31492
0.502642
0.751803
-1.72086
0.643118
-1.61589
-0.848742
-0.348061
-1.11548
0.832362
-1.89744
-0.437718
-1.07045
-0.360142
-1.45012
0.0017254
-0.830962
1.17688
0.591923
1.04088
0.34933
-1.56903
0.489905
-1.00484
-0.108996
-0.253386
-0.378851
-1.42591
0.0515594
-0.477607
1.37659
0.790404
0.772268
1.65516
1.1944
-0.727161
1.51973
0.893107
1.01106
-0.0772165
1.39214
-1.08263
1.58528
-0.86408
-0.98599
-0.734866
0.658006
-1.50675
-1.33405
-1.5532
-0.846262
-1.05118
-1.07881
-1.2064
-0.792115
-1.42418
0.0942585
1.40901
-0.817089
1.2082
-0.167319
-1.0052
1.35453
1.79308
-1.30318
-1.16471
0.159868
-1.2737
1.30287
-1.55626
-1.18937
0.810524
1.34552
-1.29396
0.887575
0.489017
1.65985
0.928003
0.30849
0.885914
0.541739
0.978002
1.2016
-0.177605
1.18867
-1.69278
1.61556
1.21454
-0.107494
0.72569
-1.58977
0.823247
-1.55811
-0.781054
0.101498
-1.43555
-0.0218694
-1.53133
0.237621
-1.2888
0.836514
-1.91532
-0.369888
0.637938
-1.43005
-0.786243
1.30247
1.64259
-0.233571
-1.4642
0.64711
1.47527
0.787886
-0.109667
-1.38739
0.0842132
-1.22752
0.0291742
-1.70875
0.152498
0.156143
-0.898228
0.285434
-1.57939
1.6777
0.711509
0.948352
1.63952
1.42766
-0.409736
1.38774
1.19985
1.09624
0.519327
-0.160836
1.37538
-1.39861
1.29112
-0.766519
-1.45661
0.7714
-1.55245
-1.45741
-1.2937
-1.65868
-0.529414
-1.38591
-0.65865
0.497066
-1.28331
-0.0961449
-1.49598
1.26241
-0.848869
1.10408
0.37119
1.40265
-0.614763
1.29299
-1.36384
1.44806
-1.26327
0.0357519
-1.23409
1.56092
-1.40842
1.2587
-1.10256
0.360476
1.51018
-1.22474
-1.08232
1.3041
0.3736
-0.454528
1.40289
1.22979
0.559262
0.868409
0.737693
0.650059
1.75912
0.935409
1.30317
-0.78384
1.05975
0.31564
1.72987
-0.438746
0.904714
-1.67123
-0.00433438
-1.45228
-0.647737
-0.0225567
-1.43486
0.153381
-1.44708
-1.1813
-0.477381
-1.71072
-1.39036
0.838568
-1.49722
-0.44474
1.00794
-0.200577
1.46299
0.444117
-0.911627
1.28282
-1.67407
1.05931
-1.29384
-0.0700017
-0.22601
-1.25809
0.326827
-1.21792
-0.190498
0.407622
-0.857445
0.196797
-1.42154
-1.19531
0.112992
0.849581
1.43335
1.31278
0.090112
1.12589
0.103916
1.60611
1.77596
0.971052
0.78808
-0.184568
1.11998
1.11861
0.946039
1.43562
-1.50714
1.06839
-1.16869
-0.502537
-1.17303
-1.47483
0.93957
-1.58731
-1.28147
-0.883405
-0.563678
-1.36078
-0.74424
-0.966474
-0.0661574
-1.3242
-0.557646
-1.64005
-0.499194
1.29218
-1.49276
0.551365
1.42171
-0.977596
0.783627
1.62456
-0.565253
-1.11958
1.04958
-1.67544
1.44943
-1.26327
0.00518511
-0.936444
1.05553
-1.24602
1.40168
-0.994059
0.544237
1.62514
-1.42834
-1.30855
-0.388671
1.23826
1.04469
1.41671
1.32837
0.849009
0.757113
0.901426
0.87454
0.968781
1.6371
1.39136
-0.272752
1.56434
-0.618294
-0.134791
1.57042
1.6619
-0.593504
0.963857
-1.46639
0.497274
-1.6703
-0.144165
-1.33066
-0.623447
-0.996085
-0.285387
-1.55976
0.257936
-1.61872
0.312005
-1.05624
-1.03263
-1.32805
0.973535
-1.53118
-0.666514
1.02757
0.264616
-0.0710412
1.57893
0.646964
1.63074
-0.847114
-1.33914
0.773888
-1.36839
0.248811
-0.625861
0.110288
-1.3632
-1.63926
0.702812
-0.583728
-0.701787
0.631082
-1.32757
-0.100774
0.416938
-1.72548
-0.377923
1.42262
1.63177
-0.215057
-0.110874
1.43925
1.65855
-0.593173
1.46772
0.968017
0.80211
0.834998
1.25657
1.29159
1.04361
1.1925
1.03724
-0.969118
-1.81446
-1.61605
1.06431
-1.68776
-1.30183
-1.30671
-0.30402
-0.752224
-1.33665
0.282594
-1.61065
-0.466866
0.760086
-1.4266
1.63676
-1.37214
-1.48864
1.4176
0.73182
-0.841676
1.51029
-0.736407
1.40389
-1.15508
0.778026
1.37422
-1.26393
-0.660391
0.893924
-1.47765
-1.48326
0.781477
-0.852182
-0.91063
-1.2794
1.17862
-0.965398
1.31175
1.03861
1.2242
0.828587
0.829972
0.960358
0.507372
1.77014
1.66359
1.39516
-0.138575
1.27712
0.0144685
1.59013
-0.546514
-0.315323
1.50783
1.77506
-0.737814
0.978089
-1.94721
-1.06837
-0.746094
-0.125175
-1.49087
-0.709668
0.323258
-1.62508
-0.633975
-0.672737
-1.3862
-1.05405
-1.61313
1.16445
-1.63131
-0.262152
1.03793
0.59883
0.0454603
1.76975
0.668618
0.637814
0.300553
-1.45563
1.80192
-1.0239
0.537986
-1.54248
0.882089
-0.648556
-0.696174
-1.73174
0.879557
0.767011
-1.67764
-0.512387
-0.553113
-1.38831
0.422908
-0.144188
1.45594
1.25802
-0.219406
-0.226255
1.45047
1.79034
1.7654
-0.216466
1.98662
1.44714
1.07984
1.13855
-0.974882
0.989353
0.615247
1.22854
1.36365
1.03194
-0.539494
-1.40771
-1.19354
0.483372
-1.22947
-1.16761
1.17136
-1.88102
-0.703831
-0.921249
-1.37657
-0.591623
-0.794574
-1.64568
-1.41152
-0.201609
-0.459954
-1.65046
1.47472
-0.875891
1.46882
-1.42336
1.46733
-0.798717
1.52712
-0.889307
1.68503
-1.38448
-0.57354
0.661132
1.55776
-1.01978
0.960985
-1.60954
-1.57812
0.881944
-0.698562
-1.25473
1.11299
-1.62537
-1.50514
0.952023
1.2297
1.23107
0.502694
1.28766
1.07971
0.685708
0.768196
1.21843
0.00190681
1.44524
1.63951
-0.559668
1.19753
-0.0589745
1.30242
-0.313063
1.03106
-0.415812
1.09691
0.131638
0.171047
1.19261
1.65103
-0.619087
0.859863
-1.39936
-0.924339
0.18929
-1.38283
-1.04018
0.206235
-1.37385
-1.02116
0.622894
-1.54414
-0.532368
-0.844199
-1.32694
-1.05494
-0.590741
-1.4138
-1.25654
1.19429
-1.65425
-0.456163
1.4692
0.00552503
-1.62513
0.749236
-0.156308
0.0439727
0.728402
0.668451
-1.02628
-0.358197
-1.59982
1.6109
-0.94977
0.59112
-0.638839
-0.727598
-1.54168
0.843118
0.490597
-1.74533
-0.392149
-1.4129
-0.21247
-0.589657
-0.176459
1.40616
-0.424765
1.65585
1.58241
1.28957
-0.873343
1.55906
-0.604613
1.37282
1.22547
0.840634
0.836511
0.803003
0.637866
1.24345
0.718
0.681098
-1.02109
1.15273
1.00756
1.01616
0.629935
0.850109
-0.510247
-0.889108
-1.43459
-1.17659
0.450999
-1.49117
-0.750955
0.519952
-1.54111
-0.499296
-1.04485
-1.34349
-1.00244
-0.324499
-1.59318
-1.51308
0.0992781
0.26191
-1.51845
-1.72114
0.0668952
0.882041
-1.3382
-1.5228
1.52832
-0.773564
-1.36363
1.20732
-1.46262
1.50659
-0.734221
1.693
-1.02455
-1.53522
1.17702
-1.7248
0.775031
1.54751
-0.95639
1.01999
-1.65883
-1.60026
0.872666
-0.757148
-0.922308
-0.863287
1.12686
-1.51901
1.12595
-1.33842
-1.35104
0.76138
0.981403
0.782511
1.06838
0.514039
0.808881
0.480701
0.909287
0.649781
0.354867
1.01796
1.58035
1.64952
-0.139392
0.942398
-0.548668
1.18654
0.694779
1.22173
-0.503733
-0.516332
1.19743
0.636397
-0.0114325
1.019
-0.0919397
1.1081
1.3615
-0.731566
-0.727726
1.57783
0.469989
-1.3591
-0.983586
-0.137161
-1.03943
-1.62833
-1.79039
-1.20119
-1.07112
0.723117
-1.76796
-1.66799
-1.33127
-1.51516
-1.41917
1.38476
-1.31786
0.046552
0.800592
-1.05402
0.280449
0.142961
0.153302
0.958777
0.522949
-0.51523
-0.547789
1.69822
-0.923194
0.741828
-0.786163
-1.54226
0.785108
0.826739
-1.74905
-1.30947
0.446179
-0.224182
-0.393056
-0.511682
-0.780878
-0.28678
1.26819
-0.667513
1.45003
1.54909
1.42333
-0.61499
1.26478
-0.509646
1.52761
1.58834
1.13988
-1.22364
1.08425
0.930968
-0.0371041
0.955548
-0.260767
1.21871
0.00302686
0.693699
-0.550113
1.18651
0.927062
0.821326
0.811388
0.846267
-0.517507
-0.841589
-1.50109
-0.202546
-1.42579
-1.06727
-1.55828
0.357091
0.194411
-1.26553
-0.768943
-0.999018
-0.238974
-1.42902
0.176738
-1.50801
-1.06859
-0.446573
0.340251
-1.75942
-1.53747
0.219608
-1.26291
-0.823773
1.62436
-1.13395
1.41439
-1.22838
1.37134
-0.980647
1.49183
-0.53306
-0.869274
1.39222
-1.9185
1.40326
-1.30245
0.754654
-1.51209
0.588895
1.60505
-0.863223
-1.61188
0.825717
-0.826776
-1.30287
1.4659
-1.69008
1.08767
-1.48073
1.06158
-1.57326
0.68502
0.600681
0.835048
1.17867
0.370424
0.984245
0.439098
0.784656
0.480129
1.24549
0.282132
0.350751
1.2376
-0.104318
1.24421
0.242601
0.841656
0.0406561
0.890315
0.918446
0.957944
-1.1119
1.11493
-0.418205
0.768306
-0.0505933
0.977658
-0.233476
1.05481
1.2595
-0.448117
-0.749439
1.5957
0.410448
-1.25204
-1.38247
-0.118623
-1.58501
-0.469177
-0.956609
-1.53645
-1.36387
-1.18038
-0.855085
0.577101
-1.34604
-1.23799
-1.25228
-1.16776
-1.07055
0.739836
-1.18641
-1.01959
1.50217
-1.28256
0.239252
-1.70267
0.878888
0.874917
-0.288279
0.263445
0.390689
-1.54956
1.01649
0.735768
-0.15734
-1.09278
0.100814
-0.757442
1.7662
-1.17731
0.902969
-1.52873
0.701952
-1.46576
0.162894
-0.60241
-0.419151
-1.68622
0.11296
-0.843712
-0.389534
0.990219
-0.263822
1.09888
1.07436
1.35468
1.22376
-0.448565
0.928698
1.59625
1.52635
1.25174
0.926921
-0.684317
0.882315
0.839724
1.15171
-0.233263
0.906349
0.0515961
1.01393
0.101002
-0.457647
1.22595
0.744186
0.665275
0.801857
1.14758
-1.37066
-0.62862
-0.956393
-1.58523
-0.959344
-0.822867
-0.541
0.54379
-1.72417
-1.67795
-0.198052
-1.14799
-1.43604
0.210591
-1.46287
0.357636
-1.52539
0.729448
-0.45696
0.287393
-1.30698
-1.41297
0.130415
-1.22651
-0.734675
1.61356
-0.858294
1.7332
0.978022
-1.26631
-1.31324
1.57668
1.61048
-1.2198
-0.29675
1.5032
-0.767438
1.34586
-1.27916
0.18638
1.31848
-1.21767
0.561036
-1.35147
0.174155
1.38768
-0.484717
-0.577214
-1.52333
-1.62316
1.02075
0.888902
-1.30805
1.17939
-1.06643
-1.93482
1.09111
1.06022
-0.0699952
0.7964
0.650314
-0.386596
1.46097
0.968088
0.157526
1.06624
0.857597
0.0711047
0.437552
1.15871
-0.240761
1.76712
1.6893
0.686417
0.240506
0.467396
0.135053
0.747264
0.0814588
0.758267
0.673088
1.06553
-0.774902
0.875904
0.451052
-0.193582
0.937771
0.822381
-0.157104
0.970589
-0.168733
1.0081
0.13948
0.465221
-1.83588
0.502516
-1.45891
-0.577976
-1.00725
-1.53732
0.811349
-1.35235
-0.869182
-0.912818
-1.21273
0.30766
-1.45565
-1.22545
-1.10523
-1.238
-1.76394
1.4816
-1.35118
0.255086
-1.60142
0.86674
0.755257
0.827339
0.905861
-0.623406
0.344171
0.356872
-1.172
0.875249
0.620238
0.173848
1.25396
-1.06758
-1.86598
0.648307
-0.790434
1.59463
-1.42048
-1.63355
1.14883
-1.58567
1.00845
-1.18598
-0.337349
-0.734263
-0.914073
-0.128665
-1.70512
0.638689
-0.494567
0.752389
0.938222
-0.141818
0.7526
-0.102283
1.22022
-0.548359
1.51645
1.01513
0.517887
0.823708
-0.168329
1.32704
1.59881
0.082104
1.60721
0.821472
-0.572151
0.812658
0.917942
-0.450545
0.828725
0.564687
-0.299871
0.97296
0.765658
1.18637
-0.310463
-0.642065
1.09312
0.78067
0.328523
0.839368
0.966815
-1.33336
-0.778042
-0.680866
-1.78529
-1.22966
-1.50387
0.151523
0.858009
-1.72719
-1.32246
0.409644
0.353871
-1.5666
-0.187318
-1.26833
-1.41277
0.237977
-1.34321
0.59806
-1.83606
0.0360582
-0.493173
-0.930898
1.57684
-0.710111
-0.706969
1.46222
1.03902
-0.133162
-1.4139
0.790489
-1.06974
1.64761
-1.29075
1.352
-0.476759
-1.18517
1.80541
1.44218
-1.26834
-0.612027
-0.0591282
1.50502
-0.856714
0.714578
-0.0389289
-0.705905
-0.036355
1.0032
-1.34055
-1.30332
0.569059
-1.50995
0.595874
-1.43199
-0.701926
-0.793302
-1.71062
1.21605
0.923496
-0.171104
0.835942
0.781682
-0.640013
1.86024
0.876451
0.486305
0.528824
1.0042
0.91828
-0.0945688
1.40916
1.32673
0.27208
1.61951
0.105459
0.716015
0.345792
0.55673
0.255929
0.522416
0.376193
0.452534
0.940883
0.705929
0.0597304
0.680834
0.505533
0.782654
0.651891
0.128781
-0.729173
1.0577
0.110193
0.122175
0.844638
-1.06764
-0.26572
-1.74851
-0.277766
-1.50753
-1.50742
-1.15
-1.17094
-1.31755
-1.22422
-0.342379
0.138734
-1.40707
-1.17479
-0.745152
-1.7808
1.28763
0.600825
-1.53172
0.869867
-1.56119
0.851075
1.37597
0.086245
1.16119
1.2428
-0.770714
0.577869
0.0612471
0.965419
0.537055
-1.56108
0.949049
-1.62021
-1.59561
0.738887
1.36352
-1.40246
-1.53718
0.831273
-1.39276
1.3564
-0.739721
-0.940893
1.51609
-0.920216
0.59454
-1.29647
-1.68538
0.892077
-0.194541
-0.404164
0.48079
0.653936
0.182009
-0.00625816
0.787942
0.959208
0.901038
1.1903
-0.313844
-0.322697
0.851525
1.15951
-0.155313
0.595586
0.559369
-0.0116217
1.42078
1.31512
1.23129
0.461886
1.15763
0.66219
0.301023
0.414992
0.754895
-0.409102
-0.556476
0.812406
-0.289064
0.811481
0.753559
0.563577
0.377308
0.416865
0.740565
0.852754
-0.347221
0.996449
-0.213796
0.69236
1.00512
0.0525714
0.954829
-1.48994
-1.49433
-0.25418
0.00751829
-1.51505
-1.36869
-1.34625
0.196248
-1.45299
0.282051
-1.29437
-0.0231819
-1.68863
0.119943
-1.52701
-1.05485
-1.51758
-0.26322
-0.244096
1.4256
-0.555743
1.56918
-0.718113
1.51184
0.513498
0.647688
0.158864
1.08393
-1.58201
0.811285
-1.00415
-1.04557
1.10682
-0.0801603
-0.845502
1.38255
-0.646562
-0.798303
-0.0292488
-1.48934
0.0868755
-0.65807
1.50828
-0.151888
0.825543
-1.56526
-1.68661
0.74571
-1.68937
0.769154
-1.09084
-0.470925
-0.794532
-1.59069
1.39615
-1.28547
0.881303
-0.378828
0.85962
-0.529401
0.711413
-0.646853
0.640597
0.258544
-0.355626
1.25667
1.16376
0.0265484
0.845673
0.696215
-0.306063
0.901652
-0.194935
0.754306
1.0068
0.41399
0.98321
0.331912
0.0623145
1.16899
1.46869
1.17466
0.358857
0.303334
0.773851
0.198421
0.402379
0.410943
0.401464
0.413071
0.34049
0.790381
-0.359357
0.776222
0.381208
0.365284
0.48747
0.649228
0.791325
0.313533
-0.798601
0.85117
0.156226
-1.24294
-0.247005
-1.48681
-1.49712
-0.179191
-1.33585
-1.54788
-1.25674
-1.01232
-1.54077
-0.990813
-0.697815
0.272989
1.25763
-1.52085
-1.80936
1.01342
-1.61577
0.897644
1.13996
0.371862
-0.313819
0.827313
0.803912
1.29882
0.770104
-0.804496
-1.71768
0.713517
-0.610868
-1.48573
1.40556
0.662771
-0.103189
0.784642
-1.43121
-1.57714
0.778829
1.37066
-1.39991
1.33866
-1.25179
-1.74065
1.08258
-1.43208
1.28019
-0.943665
-0.821541
-1.19744
0.106593
-1.66836
-1.51098
0.716443
0.110673
1.77277
-0.891473
0.212768
0.516481
0.449013
0.191586
0.707558
0.808136
1.31899
-0.688198
0.714749
0.157477
-0.316625
1.01284
0.448246
0.58503
1.3972
1.5009
0.318291
1.15041
1.49296
0.714278
0.306124
0.467727
-0.392377
0.590798
-0.353541
0.755921
0.653039
-0.251574
0.646615
0.30838
0.482002
0.422682
0.746492
0.773482
-0.286012
0.746782
-0.0975551
0.853235
-0.0619117
0.621915
0.89197
-0.0408024
-1.23782
-1.46519
-0.0216197
-1.50751
0.0103976
0.0816702
-1.41753
-1.27489
-1.77487
0.518128
0.598755
-1.61107
-0.942012
0.721498
-1.41931
-0.55173
0.0208388
-1.54169
-0.880873
1.89428
1.64602
-0.748386
-0.880246
1.2521
0.0439272
0.783383
0.847837
0.290617
1.00819
1.06071
-1.8126
1.00809
-1.09909
0.794684
1.52273
-0.859961
1.41953
-0.7925
0.341559
-0.961831
-0.0614357
-0.0612611
-0.169217
0.420218
-1.61434
0.670676
-1.62079
0.799242
1.4722
-1.36561
-1.7254
0.0570379
-0.0387832
-0.897903
1.38134
-1.27067
0.489862
-0.538508
0.751278
0.675683
-0.1592
-0.446736
0.638324
0.574955
0.132605
1.05919
-0.251054
1.44661
-0.127611
1.06853
-0.353782
-0.641094
0.798574
0.371752
-0.288764
0.737012
0.702743
-0.117711
-0.341532
1.73874
1.15938
-0.311241
1.46165
1.50419
0.224616
0.489663
-0.0458042
0.513532
0.363545
0.707013
-0.116214
0.292148
0.360892
0.455439
0.052245
0.594372
-0.0347711
0.516775
-0.300649
0.723331
0.445843
0.320338
0.453144
0.460769
0.755679
0.830056
0.0834081
0.807031
-1.36453
0.12671
-1.38352
-1.52913
-1.35413
-0.525108
-0.892417
-1.05337
-1.09294
0.745538
-1.68756
-1.2926
0.677981
-1.22971
1.32282
-1.30198
-0.796156
0.765127
1.01402
-1.5588
0.810402
-0.102028
1.35411
-0.028857
0.812236
-0.310507
1.31869
1.03185
-0.550729
-1.37405
0.274947
-0.579375
1.61642
-0.196902
-1.36457
0.572065
-1.02301
-1.47674
0.5149
1.59395
-1.6554
1.16123
-1.22249
1.37392
-1.54315
-1.22517
1.64537
-0.950115
1.82472
-1.02548
-1.57039
0.204786
-1.04742
-1.51336
1.48157
-1.52036
0.583669
0.554048
1.48406
-0.994203
0.304544
0.38692
0.415756
0.481581
0.156745
0.614187
0.970457
0.0887385
0.817483
0.734099
0.712515
0.84285
0.444795
-0.53029
0.902045
0.539513
0.1975
0.172455
0.421803
1.42751
1.89348
0.859149
0.602508
0.452075
1.05212
0.516764
0.44386
0.565778
0.585302
-0.221757
0.469087
0.589877
-0.228984
0.636521
-0.181081
0.559602
0.600184
0.501575
0.766181
-0.227469
0.680612
-0.36047
0.821239
0.395207
0.916409
-0.0863545
-0.142385
0.949414
-0.907583
-0.475938
-1.32406
-0.205072
-1.59493
0.240799
-1.49628
0.44291
0.618333
-1.71128
-1.06924
-1.18047
-0.11213
0.0931088
-1.15077
-0.151211
-1.94695
1.62944
-0.864333
1.30378
-0.289778
1.51863
-0.708243
1.20174
1.0436
0.669847
0.478924
0.839758
0.501758
0.530089
1.04919
-1.59993
1.47254
-1.1976
1.03703
-1.53503
1.33811
-0.904679
0.461042
1.68032
-1.16543
0.368773
-0.49418
0.151423
0.137164
0.11033
-1.68703
0.736909
-1.75405
0.728566
1.25321
-1.04843
-1.04966
0.00223751
-1.13793
-0.375432
-0.26715
-1.10336
1.58466
-1.03062
0.59045
-0.238219
0.542764
-0.157836
0.544758
-0.223252
0.639009
-0.447041
0.603788
0.390937
-0.587283
0.676023
0.230202
-0.423493
1.13601
1.05321
-0.210353
-0.418585
0.863382
0.483462
-0.355676
0.553177
-0.58223
0.754687
-0.160426
0.880557
0.546953
1.13166
0.761835
1.31123
1.48307
1.0664
0.199568
0.317197
0.643429
0.013754
0.552025
0.599474
-0.130387
0.24977
0.340107
0.407537
0.418393
0.00451867
0.555084
0.652569
-0.052384
-0.135786
0.637361
0.630395
0.593769
0.588513
0.0920992
-0.446839
0.842044
0.469568
0.863056
-0.939674
-1.0794
-0.416887
-1.26837
0.787379
-1.85663
-1.19153
-0.95655
1.71955
-1.87075
-1.15961
1.28995
0.339482
0.654286
1.00016
-1.30447
0.596217
0.0301766
1.17156
-0.159784
1.20337
1.1716
1.00901
-0.0441834
0.883935
-0.255293
-0.127407
-0.160579
1.45156
-0.113456
-1.42452
0.519833
-0.96348
-1.43565
0.270222
1.51839
-1.14963
-1.54037
1.04618
-1.38896
1.452
-1.31485
-1.29575
1.40607
-1.01715
1.6942
-0.965643
0.903512
-1.95194
-1.13569
0.989845
-1.36528
-1.16593
0.898781
-1.80551
0.702142
0.663585
1.54347
-0.953021
0.414352
0.0957231
0.481174
0.189083
0.074042
0.529747
-0.215256
0.606194
0.957288
-0.281263
0.701957
-0.471753
0.629714
1.17335
-0.0373412
0.746938
0.757959
0.105425
0.685159
-0.201695
0.392753
0.677723
0.0769659
1.67861
-0.723878
1.48572
0.44568
0.865548
0.888568
0.594501
1.51208
0.566968
0.657184
0.556545
0.506975
0.436584
-0.096477
0.537075
-0.129537
0.605418
-0.187025
0.502702
0.0308658
0.599529
0.44033
0.153438
0.619378
0.532429
0.499004
0.343038
-0.472589
0.942154
0.390464
0.860326
0.940932
-1.35782
-0.327441
-1.01903
-0.837614
-0.331205
0.763003
-0.34484
-1.52593
0.543299
-1.7031
1.37106
-1.03159
1.37925
-0.724975
1.61082
-0.610671
1.63058
-1.03438
1.64098
1.01176
1.15917
0.430379
0.741218
0.113802
0.895198
0.997731
1.10001
-1.35532
1.2891
-1.41652
1.29097
-1.44166
1.32819
-0.915827
0.579982
1.42662
-1.15641
0.222631
-1.85237
0.70273
-0.806207
0.0630374
0.111767
-0.0356041
-1.78508
0.767923
-1.67871
0.71306
-0.262422
-0.962101
-0.372688
-1.05838
-0.306903
-0.906728
-1.08294
1.58904
-0.925457
0.636011
0.439656
-0.0253031
0.53538
0.371312
0.109863
0.560396
-0.470654
0.544697
0.314492
0.392904
0.213291
0.420695
0.286208
0.880302
-0.250585
0.449479
0.842962
0.871273
-0.124333
-0.37411
0.479536
0.31105
0.476029
-0.173027
0.565781
-0.598959
0.675927
0.739692
0.938923
1.36938
0.116344
1.75412
1.33419
1.5324
-0.0386103
0.605579
0.208725
0.448459
0.0521172
0.504429
0.524716
-0.0177417
0.397974
0.440598
0.475881
0.337692
0.498441
0.00426112
0.581787
0.652441
-0.000645044
0.620023
-0.108969
0.641398
-0.342557
0.685594
0.599596
0.820839
-0.900733
-0.457094
-1.34647
0.70925
-1.54683
-1.23194
1.06215
-1.40693
-0.98263
-0.994047
0.760373
0.347646
0.905594
0.0656218
0.514938
1.12603
1.52669
0.834296
0.32487
0.0254074
0.715806
0.920599
0.170094
0.82763
-0.0662259
-0.125568
1.39823
-0.0700503
-1.39865
0.482814
-0.818669
-1.18673
0.0303237
-1.02435
1.24697
1.64663
-0.943912
-1.66649
0.860277
1.40138
-1.33836
1.44328
-1.33152
-1.38154
1.34593
-0.910789
1.62238
-0.909328
1.25613
-1.51855
-1.42279
0.46069
-1.43107
-1.7297
0.349396
-1.81527
0.732327
0.696921
1.47356
-0.837558
0.473139
0.0647266
0.502768
0.455876
0.104521
0.204846
0.339852
0.519339
-0.225691
0.438983
0.814052
-0.393356
-0.518152
0.804361
0.620689
-0.695925
1.14541
0.147038
-0.655377
0.531045
-0.0386158
0.513233
-0.202182
0.494626
-0.0185963
0.28285
-0.033177
0.390948
0.28498
-0.261535
1.20046
1.10784
-0.84743
0.963776
1.28657
0.467548
0.112649
1.22155
0.0169863
1.51541
0.266245
0.339335
0.474971
0.500577
0.508691
-0.0619796
0.459954
0.475484
-0.0348856
0.469691
0.00619055
-0.282159
0.619851
0.299628
0.543471
0.640752
0.274048
0.345975
0.667796
0.0177962
0.504623
0.0949714
0.179446
0.64139
0.813094
-1.27019
-0.533369
-0.682796
-0.864002
0.568062
1.94188
-0.879731
-0.66558
-0.74128
-1.64811
0.504706
-1.49925
1.80941
-1.04906
-1.25757
1.6052
-0.351992
1.36942
-1.30382
-0.207452
1.33346
0.65815
0.86853
1.00438
0.983011
0.895248
0.105329
0.815263
0.932952
1.24284
-1.30908
1.27265
-1.44532
1.37526
-0.703926
0.654889
1.29846
-1.26814
0.622277
-0.134587
-1.71088
0.76696
-0.265121
-0.850617
0.104913
-0.0330638
-0.0994035
-1.71787
0.807078
-1.72036
0.81103
-1.44618
-0.0723766
-0.985491
0.510816
-1.21889
-1.46588
-0.985549
1.45775
-0.760837
0.62019
0.48022
-0.00707992
0.544948
0.353791
0.148978
0.458313
0.455998
-0.116145
0.293648
0.395626
0.0433579
0.158677
0.411007
0.907859
-0.287168
0.297978
-0.520411
0.667451
0.867067
-0.336021
0.474618
0.292445
0.372352
0.463488
-0.180636
0.430312
0.424364
-0.139383
1.31311
-0.209809
1.31765
1.02669
-0.0629113
1.30355
1.68909
1.55177
-0.115214
0.454549
0.085669
0.389302
0.0681793
0.432399
0.463169
0.0455227
0.413505
0.34474
0.434805
-0.388858
0.395049
0.230993
0.573676
-0.176516
0.719986
0.293104
0.347647
0.639078
0.491278
0.522418
0.736359
-0.702137
-1.21614
0.340332
-1.20422
-1.69344
0.813657
0.638171
-1.37942
-1.14325
-1.1595
1.60874
0.200649
0.55612
-1.57535
1.22334
-0.20595
-0.0609996
1.40126
0.120957
1.21249
0.989478
0.218203
0.786172
0.137173
0.84583
0.103179
0.792065
0.918437
0.101946
0.831001
-0.0364425
1.34541
0.0298334
-1.4764
0.772467
-0.821513
-0.49568
1.36514
-0.742868
1.23054
1.57742
-0.810476
-1.30718
1.04205
-1.4692
0.618573
1.48444
-1.37954
1.39424
-1.42731
-1.50361
1.40419
-0.913289
1.54854
-0.737516
1.47628
-1.54866
0.87682
-1.86232
-1.40187
0.182995
0.0103965
-1.88303
0.89748
0.787699
1.46715
-0.846961
0.45609
0.481717
0.0632314
0.544605
0.277677
0.133452
0.322547
0.365573
0.427101
0.470459
0.629875
-0.471198
0.612337
-0.20133
0.387448
0.5799
0.783303
-0.485324
0.897283
-0.229831
0.293855
0.666594
-0.191975
-0.37031
0.662755
0.00204272
-0.206929
0.637241
0.426407
-0.442327
0.302946
-0.449109
1.76222
0.816882
0.868547
-0.814917
0.752007
-0.307806
1.61135
1.38128
-0.386786
1.93855
0.540219
0.457482
0.477922
0.41697
-0.00346544
-0.203997
0.548738
0.414432
0.0203737
0.489778
-0.0947294
-0.249818
0.48081
0.323858
0.346865
0.37312
0.694511
0.268452
0.370626
0.608908
-0.11763
-0.0851588
0.607575
0.651198
1.09786
-0.118257
-1.32233
-1.05533
-0.588206
-1.27123
-0.108118
0.454946
-1.59801
0.223759
-1.3838
1.54236
-1.34174
1.42406
-0.867961
1.71534
-0.492028
-1.42862
1.22265
1.31969
-1.3807
0.134591
1.26664
0.207353
1.00512
1.12664
1.06403
0.888112
0.284787
0.507276
0.515027
0.403406
0.316981
0.514015
1.30895
-1.43125
1.46107
0.645628
1.18609
-1.68178
0.834543
-0.273081
-1.75643
0.945943
0.177255
-0.427151
-1.13787
0.0146874
-0.241227
-0.0270721
-1.72259
0.809298
-1.86403
1.12651
-0.671839
-1.45384
-0.408485
-1.27084
1.26969
-1.2593
-0.613347
-0.825116
1.22282
-0.435124
0.375854
-0.0193747
0.475465
-0.35327
0.416502
0.279719
0.264887
0.557397
0.429646
-0.107098
0.424398
-0.0588243
0.048416
0.422044
0.141141
-0.546629
0.3453
0.644769
-0.25732
0.673385
-0.0934837
-0.0316134
0.41196
0.414939
-0.394488
0.688344
0.119966
0.470781
0.350469
0.194914
-0.194442
0.62085
0.554781
-0.251835
0.466199
1.29602
-0.246024
1.06291
-0.217982
1.08653
1.00105
-0.249044
1.22456
0.0632558
1.31802
0.387076
1.55146
0.291652
0.248567
0.095309
0.362174
0.411948
0.0659751
0.212973
0.410967
0.391113
0.157625
0.510152
0.386081
0.59231
-0.319014
0.692132
0.196536
0.497974
0.567162
0.289893
0.489943
0.137199
0.513996
0.47767
-1.1534
0.0979354
1.02235
-1.61054
-0.815936
-1.26179
-1.37422
-0.906553
1.46837
0.0739663
0.0823084
0.847364
-1.49148
0.999429
-0.10895
-0.268839
-0.071767
1.60294
1.47398
-0.12198
1.12709
1.00465
0.337411
0.726607
0.493082
0.395025
0.421984
0.325985
0.18129
0.832002
0.729387
1.00709
1.24813
0.212919
-1.03616
1.75911
-0.924593
1.48601
0.937746
1.5767
-1.39945
1.14954
1.40763
-1.39296
1.40006
-1.6413
-1.47228
1.44518
-1.05474
1.46008
-0.333576
-1.34091
0.669065
1.2798
-1.68832
-0.248486
-1.84718
0.58788
-1.52483
0.911479
-1.69791
0.872789
1.02495
1.3868
-1.01095
0.392573
0.122196
0.355598
0.0609043
-0.229886
0.494774
0.33625
0.0933961
0.3173
0.296774
0.384667
0.192159
-0.549992
0.691133
-0.204692
0.416065
-0.623001
0.529518
-0.759121
0.727508
-0.347161
0.794911
-0.379972
0.296646
0.0653435
-0.413352
0.533319
0.0574296
0.463127
-0.112658
0.381675
-0.18676
0.36034
0.37583
0.24502
0.129841
-0.837677
1.30388
1.35927
0.755028
0.844925
0.248854
-0.700486
0.451442
-0.318639
1.54319
0.999379
1.93025
1.59827
0.386962
-0.114281
0.362849
0.428149
-0.274819
0.487792
0.136148
0.276833
-0.268666
0.426291
0.332271
0.177881
-0.201802
0.587883
0.390507
0.244749
0.447382
0.0123947
0.485579
0.182462
0.3847
-0.410543
0.700435
0.0793986
0.593393
1.37339
-1.27549
-0.237126
0.972881
-1.78864
-0.289386
-0.893448
-0.480742
-1.39586
1.46981
-1.47297
1.55526
-0.625627
1.57532
-0.575915
1.3462
-1.45516
-1.43908
1.17022
1.17635
1.61703
-0.0141186
0.418203
1.05576
1.54528
1.34205
1.12162
0.603272
0.216163
0.615835
0.561941
0.167443
0.434148
0.57294
-1.42817
1.64107
0.350637
-1.64612
-1.48203
0.427288
1.29126
-1.62484
-0.0611088
-1.17812
-0.989017
-0.69933
-1.23748
-0.936952
-0.786434
-0.609245
0.0139939
0.313911
0.0786625
0.436108
-0.352967
0.413872
0.388494
0.10628
-0.333613
0.42701
-0.0163127
-0.1295
0.426275
0.23437
0.150298
0.426529
0.328628
0.560982
-0.144916
0.570974
-0.0414555
0.0270227
0.447751
0.18101
-0.218538
0.515185
-0.457961
0.523305
0.43326
0.276368
0.275837
-0.117492
0.477832
-0.195206
0.440227
-0.387335
0.517176
0.0975315
1.20634
0.935058
0.424213
-0.167441
0.922469
0.695519
0.149405
0.944372
0.880057
-0.428616
1.93443
1.38713
0.543096
0.303413
1.29484
-0.00908876
0.396051
0.35376
0.345381
0.0827691
0.219127
0.468419
-0.172538
0.44937
0.253753
-0.295734
0.473615
0.292149
0.572969
-0.353901
0.598649
0.459776
0.193186
0.292392
0.577885
0.346532
-0.0717176
0.665108
-1.09819
-0.177284
1.29565
-1.53274
-1.31926
-0.469178
-1.38757
0.159371
1.60368
-0.133897
0.949674
-1.35408
0.778148
-0.0929075
-0.278825
-0.183872
0.406978
1.21003
1.58953
1.46272
0.307486
1.23778
0.739207
0.602831
0.427204
0.694412
0.531552
0.778101
0.0701982
0.545632
0.698992
0.504343
0.20325
0.369686
1.36223
-1.29549
1.62871
-1.20142
1.2864
1.00708
-1.06819
-0.171034
-1.28391
0.584511
0.0581794
0.827687
-1.76464
-1.58706
0.800627
1.20575
-1.815
1.30039
0.424044
0.0831411
0.284372
-0.260801
0.367081
0.277228
0.149783
0.409962
0.427526
0.165729
0.579926
-0.251298
0.426058
-0.50773
0.466275
0.653037
-0.626014
0.705849
-0.258098
-0.453469
0.63448
-0.599075
0.380537
0.0572246
0.0155753
-0.157024
0.590285
-0.110967
-0.161011
0.436849
-0.416681
0.29919
0.282626
0.283203
0.100495
-0.914282
1.01181
1.63055
-0.664892
0.49745