/*--------------------------------*- C++ -*----------------------------------*\
| =========                 |                                                 |
| \\      /  F ield         | OpenFOAM: The Open Source CFD Toolbox           |
|  \\    /   O peration     | Version:  v2012                                 |
|   \\  /    A nd           | Website:  www.openfoam.com                      |
|    \\/     M anipulation  |                                                 |
\*---------------------------------------------------------------------------*/
FoamFile
{
    version     2.0;
    format      ascii;
    class       volScalarField;
    location    "3";
    object      rAU;
}
// * * * * * * * * * * * * * * * * * * * * * * * * * * * * * * * * * * * * * //

dimensions      [-1 3 1 0 0 0 0];


internalField   nonuniform List<scalar> 
27222
(
3.34032e-08
3.31799e-08
3.32806e-08
3.32641e-08
3.32667e-08
3.34034e-08
3.32942e-08
3.33521e-08
3.34024e-08
3.32305e-08
3.33675e-08
3.33358e-08
3.31187e-08
3.33551e-08
3.33649e-08
3.31795e-08
3.33639e-08
3.34038e-08
3.33424e-08
3.33997e-08
3.3323e-08
3.31495e-08
3.34026e-08
3.33636e-08
3.31758e-08
3.33596e-08
3.33905e-08
3.32853e-08
3.33982e-08
3.33228e-08
3.32553e-08
3.3338e-08
3.33273e-08
3.31707e-08
3.33498e-08
3.33573e-08
3.33875e-08
3.34041e-08
3.32878e-08
3.33683e-08
3.33087e-08
3.31763e-08
3.3065e-08
3.33187e-08
3.33447e-08
3.34019e-08
3.31707e-08
3.33485e-08
3.33697e-08
3.32877e-08
3.33612e-08
3.32897e-08
3.33683e-08
3.33178e-08
3.33223e-08
3.33818e-08
3.30792e-08
3.31719e-08
3.32335e-08
3.33529e-08
3.33567e-08
3.33668e-08
3.32922e-08
3.33713e-08
3.3367e-08
3.34044e-08
3.32929e-08
3.3375e-08
3.33198e-08
3.33214e-08
3.33994e-08
3.3239e-08
3.32267e-08
3.3353e-08
3.34012e-08
3.33556e-08
3.33663e-08
3.32922e-08
3.32298e-08
3.31925e-08
3.33834e-08
3.33262e-08
3.33756e-08
3.3316e-08
3.33263e-08
3.31816e-08
3.31644e-08
3.3387e-08
3.33154e-08
3.32118e-08
3.33318e-08
3.33505e-08
3.34053e-08
3.33053e-08
3.32101e-08
3.31191e-08
3.32757e-08
3.33881e-08
3.34046e-08
3.33283e-08
3.31212e-08
3.33321e-08
3.3334e-08
3.32257e-08
3.31009e-08
3.30465e-08
3.33795e-08
3.33161e-08
3.32269e-08
3.3323e-08
3.34015e-08
3.33612e-08
3.33944e-08
3.32745e-08
3.33205e-08
3.30813e-08
3.32595e-08
3.32848e-08
3.33681e-08
3.33609e-08
3.31359e-08
3.3158e-08
3.33107e-08
3.32116e-08
3.31656e-08
3.32541e-08
3.32429e-08
3.33991e-08
3.33692e-08
3.32514e-08
3.3152e-08
3.32562e-08
3.32121e-08
3.31451e-08
3.32985e-08
3.3316e-08
3.32009e-08
3.33641e-08
3.32846e-08
3.34044e-08
3.3367e-08
3.31674e-08
3.33235e-08
3.33016e-08
3.32643e-08
3.32675e-08
3.32735e-08
3.32813e-08
3.34004e-08
3.33504e-08
3.32741e-08
3.32483e-08
3.32553e-08
3.33149e-08
3.32675e-08
3.31942e-08
3.33396e-08
3.32442e-08
3.33443e-08
3.32669e-08
3.32526e-08
3.33702e-08
3.33824e-08
3.31202e-08
3.33201e-08
3.33409e-08
3.33309e-08
3.33219e-08
3.32953e-08
3.32478e-08
3.31478e-08
3.33458e-08
3.31923e-08
3.32896e-08
3.32375e-08
3.32528e-08
3.34007e-08
3.32161e-08
3.32326e-08
3.31137e-08
3.3365e-08
3.33142e-08
3.32729e-08
3.32475e-08
3.33673e-08
3.32687e-08
3.34037e-08
3.33777e-08
3.32992e-08
3.32209e-08
3.33496e-08
3.32775e-08
3.32573e-08
3.3267e-08
3.32309e-08
3.31489e-08
3.33441e-08
3.33017e-08
3.33452e-08
3.32506e-08
3.32782e-08
3.32237e-08
3.32714e-08
3.32832e-08
3.33328e-08
3.33109e-08
3.31648e-08
3.32564e-08
3.33437e-08
3.31853e-08
3.33332e-08
3.32448e-08
3.32572e-08
3.33248e-08
3.33395e-08
3.3176e-08
3.33254e-08
3.32636e-08
3.31424e-08
3.32584e-08
3.33694e-08
3.33428e-08
3.3382e-08
3.32287e-08
3.32959e-08
3.32811e-08
3.32791e-08
3.32907e-08
3.34011e-08
3.31832e-08
3.33479e-08
3.32832e-08
3.32909e-08
3.32077e-08
3.33253e-08
3.33624e-08
3.33184e-08
3.3178e-08
3.34017e-08
3.32992e-08
3.32599e-08
3.32569e-08
3.32672e-08
3.3337e-08
3.33308e-08
3.32889e-08
3.32638e-08
3.32889e-08
3.32414e-08
3.33524e-08
3.33566e-08
3.33829e-08
3.32861e-08
3.32901e-08
3.32758e-08
3.328e-08
3.32661e-08
3.32302e-08
3.33218e-08
3.33424e-08
3.33363e-08
3.33486e-08
3.32747e-08
3.32895e-08
3.32805e-08
3.32648e-08
3.33313e-08
3.33794e-08
3.31583e-08
3.32177e-08
3.31432e-08
3.32245e-08
3.32568e-08
3.32048e-08
3.31442e-08
3.33249e-08
3.31251e-08
3.31377e-08
3.33631e-08
3.3294e-08
3.33285e-08
3.32712e-08
3.32228e-08
3.31456e-08
3.32995e-08
3.319e-08
3.3348e-08
3.33089e-08
3.32768e-08
3.32409e-08
3.34016e-08
3.31377e-08
3.32286e-08
3.33517e-08
3.33525e-08
3.32769e-08
3.3262e-08
3.33316e-08
3.33847e-08
3.32039e-08
3.3263e-08
3.32492e-08
3.32984e-08
3.33254e-08
3.32506e-08
3.30876e-08
3.3211e-08
3.33202e-08
3.31317e-08
3.33571e-08
3.33352e-08
3.33293e-08
3.32607e-08
3.32388e-08
3.32235e-08
3.33006e-08
3.3218e-08
3.31754e-08
3.32925e-08
3.31997e-08
3.32857e-08
3.32532e-08
3.3274e-08
3.3188e-08
3.32822e-08
3.3265e-08
3.32491e-08
3.33161e-08
3.34014e-08
3.32926e-08
3.33218e-08
3.32604e-08
3.3344e-08
3.32594e-08
3.34017e-08
3.32357e-08
3.32209e-08
3.33214e-08
3.32796e-08
3.33249e-08
3.32818e-08
3.33434e-08
3.32885e-08
3.32703e-08
3.33346e-08
3.32818e-08
3.32204e-08
3.32379e-08
3.32097e-08
3.33011e-08
3.33575e-08
3.31686e-08
3.32624e-08
3.32198e-08
3.34169e-08
3.32673e-08
3.32054e-08
3.33396e-08
3.31571e-08
3.31919e-08
3.32649e-08
3.31832e-08
3.32534e-08
3.3236e-08
3.34013e-08
3.33221e-08
3.32877e-08
3.3234e-08
3.31469e-08
3.3343e-08
3.30888e-08
3.33507e-08
3.32832e-08
3.3177e-08
3.31544e-08
3.32482e-08
3.3204e-08
3.33406e-08
3.32226e-08
3.32794e-08
3.32893e-08
3.32766e-08
3.32325e-08
3.3287e-08
3.32613e-08
3.32519e-08
3.31332e-08
3.33066e-08
3.3369e-08
3.31454e-08
3.32148e-08
3.34198e-08
3.32037e-08
3.32677e-08
3.32756e-08
3.33987e-08
3.32893e-08
3.32852e-08
3.32928e-08
3.32744e-08
3.32122e-08
3.32669e-08
3.32594e-08
3.33096e-08
3.33002e-08
3.33262e-08
3.31114e-08
3.32333e-08
3.32359e-08
3.33436e-08
3.34009e-08
3.32603e-08
3.32809e-08
3.33124e-08
3.3262e-08
3.31362e-08
3.31822e-08
3.32381e-08
3.32439e-08
3.32068e-08
3.31511e-08
3.32599e-08
3.32318e-08
3.31078e-08
3.32569e-08
3.32336e-08
3.32527e-08
3.33139e-08
3.33026e-08
3.33252e-08
3.32976e-08
3.32569e-08
3.32522e-08
3.33071e-08
3.3399e-08
3.31683e-08
3.32783e-08
3.32915e-08
3.33315e-08
3.33145e-08
3.32484e-08
3.33487e-08
3.33158e-08
3.33216e-08
3.32881e-08
3.32851e-08
3.31824e-08
3.3185e-08
3.31628e-08
3.33421e-08
3.33025e-08
3.32977e-08
3.33188e-08
3.3271e-08
3.32627e-08
3.32478e-08
3.31687e-08
3.32567e-08
3.32562e-08
3.32836e-08
3.32175e-08
3.32492e-08
3.32481e-08
3.33232e-08
3.32745e-08
3.33283e-08
3.31827e-08
3.32614e-08
3.32044e-08
3.3293e-08
3.32912e-08
3.32414e-08
3.33065e-08
3.3239e-08
3.32831e-08
3.33386e-08
3.32655e-08
3.33062e-08
3.32966e-08
3.32988e-08
3.31847e-08
3.32992e-08
3.3293e-08
3.3334e-08
3.32064e-08
3.3089e-08
3.33566e-08
3.34011e-08
3.33009e-08
3.329e-08
3.33801e-08
3.34306e-08
3.32706e-08
3.3327e-08
3.32531e-08
3.32149e-08
3.32514e-08
3.32674e-08
3.32791e-08
3.32592e-08
3.32697e-08
3.32796e-08
3.31875e-08
3.33255e-08
3.32843e-08
3.33186e-08
3.32738e-08
3.33472e-08
3.32917e-08
3.32753e-08
3.3204e-08
3.3161e-08
3.31659e-08
3.33103e-08
3.32807e-08
3.33399e-08
3.31446e-08
3.3227e-08
3.32722e-08
3.3336e-08
3.31878e-08
3.32952e-08
3.33676e-08
3.33009e-08
3.33196e-08
3.32917e-08
3.33153e-08
3.32208e-08
3.32218e-08
3.33707e-08
3.33729e-08
3.32635e-08
3.33785e-08
3.34303e-08
3.32465e-08
3.32831e-08
3.31766e-08
3.32135e-08
3.3311e-08
3.32825e-08
3.32615e-08
3.32599e-08
3.32641e-08
3.33648e-08
3.33112e-08
3.32656e-08
3.3297e-08
3.33666e-08
3.32635e-08
3.32636e-08
3.31585e-08
3.32967e-08
3.32053e-08
3.31552e-08
3.31698e-08
3.31998e-08
3.32498e-08
3.32469e-08
3.33539e-08
3.32429e-08
3.33174e-08
3.3248e-08
3.32624e-08
3.32079e-08
3.32747e-08
3.32732e-08
3.31707e-08
3.32057e-08
3.31657e-08
3.34008e-08
3.33708e-08
3.33405e-08
3.33347e-08
3.31891e-08
3.3174e-08
3.33188e-08
3.32619e-08
3.31647e-08
3.32871e-08
3.33186e-08
3.3153e-08
3.33424e-08
3.33105e-08
3.32744e-08
3.32539e-08
3.3253e-08
3.33456e-08
3.32665e-08
3.32077e-08
3.32272e-08
3.32649e-08
3.32738e-08
3.32533e-08
3.32962e-08
3.33067e-08
3.32088e-08
3.33948e-08
3.32001e-08
3.29922e-08
3.31875e-08
3.3142e-08
3.3246e-08
3.31622e-08
3.329e-08
3.32607e-08
3.32507e-08
3.32346e-08
3.32761e-08
3.32202e-08
3.31628e-08
3.3183e-08
3.33234e-08
3.32271e-08
3.33663e-08
3.33165e-08
3.32762e-08
3.32875e-08
3.32104e-08
3.33876e-08
3.32299e-08
3.33462e-08
3.33392e-08
3.31897e-08
3.32432e-08
3.33064e-08
3.32558e-08
3.32813e-08
3.33069e-08
3.33608e-08
3.32901e-08
3.331e-08
3.32862e-08
3.32673e-08
3.32152e-08
3.32851e-08
3.31586e-08
3.32615e-08
3.32217e-08
3.32216e-08
3.32561e-08
3.32175e-08
3.32518e-08
3.32821e-08
3.3229e-08
3.33172e-08
3.32601e-08
3.31426e-08
3.31832e-08
3.29824e-08
3.29816e-08
3.31217e-08
3.30619e-08
3.3127e-08
3.30853e-08
3.31681e-08
3.3247e-08
3.31445e-08
3.32613e-08
3.33501e-08
3.33333e-08
3.33313e-08
3.31153e-08
3.33286e-08
3.32448e-08
3.32652e-08
3.32188e-08
3.32673e-08
3.34004e-08
3.33886e-08
3.33443e-08
3.32599e-08
3.32852e-08
3.32914e-08
3.33493e-08
3.31185e-08
3.33482e-08
3.33578e-08
3.32951e-08
3.33229e-08
3.32738e-08
3.327e-08
3.32781e-08
3.32459e-08
3.31832e-08
3.32559e-08
3.32084e-08
3.32513e-08
3.33359e-08
3.31363e-08
3.31819e-08
3.31905e-08
3.3275e-08
3.32634e-08
3.32162e-08
3.32282e-08
3.33911e-08
3.31944e-08
3.31763e-08
3.30876e-08
3.31029e-08
3.32099e-08
3.30603e-08
3.30192e-08
3.31907e-08
3.31557e-08
3.31506e-08
3.31892e-08
3.32424e-08
3.31874e-08
3.32388e-08
3.32869e-08
3.32542e-08
3.33549e-08
3.32771e-08
3.31465e-08
3.33382e-08
3.33627e-08
3.32285e-08
3.32894e-08
3.32916e-08
3.32645e-08
3.33816e-08
3.3136e-08
3.33618e-08
3.31856e-08
3.3332e-08
3.33124e-08
3.33062e-08
3.32828e-08
3.32631e-08
3.32739e-08
3.32875e-08
3.32746e-08
3.32754e-08
3.31814e-08
3.32427e-08
3.33006e-08
3.32661e-08
3.31848e-08
3.31421e-08
3.31722e-08
3.32999e-08
3.31287e-08
3.33069e-08
3.3235e-08
3.33505e-08
3.31278e-08
3.31115e-08
3.31131e-08
3.31656e-08
3.30609e-08
3.31667e-08
3.32334e-08
3.30563e-08
3.30829e-08
3.31978e-08
3.32773e-08
3.3276e-08
3.33008e-08
3.33191e-08
3.32845e-08
3.33261e-08
3.32578e-08
3.33656e-08
3.32877e-08
3.32489e-08
3.33434e-08
3.33549e-08
3.32742e-08
3.33993e-08
3.32982e-08
3.31499e-08
3.32974e-08
3.32918e-08
3.33496e-08
3.33085e-08
3.33508e-08
3.32596e-08
3.33415e-08
3.32362e-08
3.31535e-08
3.3219e-08
3.32862e-08
3.33396e-08
3.32057e-08
3.32601e-08
3.32734e-08
3.33072e-08
3.33608e-08
3.32782e-08
3.32593e-08
3.33412e-08
3.33408e-08
3.30522e-08
3.3179e-08
3.33444e-08
3.32262e-08
3.32546e-08
3.30792e-08
3.33046e-08
3.3244e-08
3.33842e-08
3.3157e-08
3.31172e-08
3.30523e-08
3.30383e-08
3.2994e-08
3.32609e-08
3.31797e-08
3.30451e-08
3.2902e-08
3.31351e-08
3.31759e-08
3.32731e-08
3.32619e-08
3.31827e-08
3.32593e-08
3.33575e-08
3.32527e-08
3.32097e-08
3.32519e-08
3.32289e-08
3.33212e-08
3.32947e-08
3.32025e-08
3.32727e-08
3.32626e-08
3.32473e-08
3.32886e-08
3.33011e-08
3.33129e-08
3.33268e-08
3.32296e-08
3.33343e-08
3.33123e-08
3.32475e-08
3.3234e-08
3.33557e-08
3.33611e-08
3.32709e-08
3.33165e-08
3.33093e-08
3.32829e-08
3.33561e-08
3.33418e-08
3.32508e-08
3.33423e-08
3.3316e-08
3.29294e-08
3.31155e-08
3.2895e-08
3.31842e-08
3.32395e-08
3.2996e-08
3.30289e-08
3.31112e-08
3.33425e-08
3.31065e-08
3.29523e-08
3.29644e-08
3.30615e-08
3.28605e-08
3.29892e-08
3.30185e-08
3.32525e-08
3.29433e-08
3.30403e-08
3.29961e-08
3.31034e-08
3.32461e-08
3.33121e-08
3.33047e-08
3.33026e-08
3.32897e-08
3.33552e-08
3.32262e-08
3.31716e-08
3.33517e-08
3.32832e-08
3.33147e-08
3.32911e-08
3.32697e-08
3.32202e-08
3.32323e-08
3.33392e-08
3.32821e-08
3.33248e-08
3.30642e-08
3.31715e-08
3.31903e-08
3.33154e-08
3.33329e-08
3.32909e-08
3.32559e-08
3.33093e-08
3.32781e-08
3.3282e-08
3.32889e-08
3.32359e-08
3.31906e-08
3.3191e-08
3.3121e-08
3.33241e-08
3.31159e-08
3.3114e-08
3.33706e-08
3.295e-08
3.30603e-08
3.30541e-08
3.33543e-08
3.32692e-08
3.3021e-08
3.31973e-08
3.30022e-08
3.33258e-08
3.3319e-08
3.32942e-08
3.30621e-08
3.2967e-08
3.28874e-08
3.28969e-08
3.30403e-08
3.27559e-08
3.28244e-08
3.29146e-08
3.30324e-08
3.29879e-08
3.30842e-08
3.305e-08
3.32706e-08
3.32369e-08
3.33255e-08
3.32931e-08
3.32865e-08
3.323e-08
3.31635e-08
3.32256e-08
3.33177e-08
3.33259e-08
3.3314e-08
3.3283e-08
3.33056e-08
3.2976e-08
3.33447e-08
3.33454e-08
3.32739e-08
3.32569e-08
3.33047e-08
3.32375e-08
3.32431e-08
3.33302e-08
3.31306e-08
3.32174e-08
3.32999e-08
3.32047e-08
3.32731e-08
3.32943e-08
3.32034e-08
3.33921e-08
3.32913e-08
3.33718e-08
3.32655e-08
3.33215e-08
3.33806e-08
3.31227e-08
3.32553e-08
3.32236e-08
3.33375e-08
3.29864e-08
3.30523e-08
3.30745e-08
3.32747e-08
3.32799e-08
3.28189e-08
3.28916e-08
3.29738e-08
3.32847e-08
3.32913e-08
3.33798e-08
3.27449e-08
3.28669e-08
3.28452e-08
3.28276e-08
3.28673e-08
3.27727e-08
3.29825e-08
3.29095e-08
3.29424e-08
3.28241e-08
3.29705e-08
3.31199e-08
3.30497e-08
3.33497e-08
3.32453e-08
3.33009e-08
3.3291e-08
3.32509e-08
3.32449e-08
3.32529e-08
3.32554e-08
3.33382e-08
3.32731e-08
3.33196e-08
3.29599e-08
3.3356e-08
3.3158e-08
3.31553e-08
3.32922e-08
3.32193e-08
3.30567e-08
3.33018e-08
3.3277e-08
3.33039e-08
3.32994e-08
3.31075e-08
3.33616e-08
3.3276e-08
3.32694e-08
3.32922e-08
3.33894e-08
3.33461e-08
3.33743e-08
3.31587e-08
3.33747e-08
3.33369e-08
3.32526e-08
3.33407e-08
3.3279e-08
3.33795e-08
3.29846e-08
3.28049e-08
3.2891e-08
3.31415e-08
3.31291e-08
3.30309e-08
3.29227e-08
3.2981e-08
3.2962e-08
3.32325e-08
3.32218e-08
3.33073e-08
3.32366e-08
3.27942e-08
3.28189e-08
3.28442e-08
3.28793e-08
3.28221e-08
3.29735e-08
3.27711e-08
3.27688e-08
3.3037e-08
3.29186e-08
3.30782e-08
3.29031e-08
3.30752e-08
3.31305e-08
3.33707e-08
3.33251e-08
3.33637e-08
3.33402e-08
3.33465e-08
3.3293e-08
3.33438e-08
3.32288e-08
3.34096e-08
3.34172e-08
3.31996e-08
3.33849e-08
3.32329e-08
3.32948e-08
3.33145e-08
3.32115e-08
3.29049e-08
3.31721e-08
3.33002e-08
3.33385e-08
3.32815e-08
3.33087e-08
3.3349e-08
3.33773e-08
3.33033e-08
3.3316e-08
3.32671e-08
3.32524e-08
3.32407e-08
3.32616e-08
3.33325e-08
3.32153e-08
3.32284e-08
3.33392e-08
3.33605e-08
3.32985e-08
3.34014e-08
3.26427e-08
3.29419e-08
3.28872e-08
3.28677e-08
3.32542e-08
3.29928e-08
3.29676e-08
3.29701e-08
3.28768e-08
3.27408e-08
3.32932e-08
3.31568e-08
3.33036e-08
3.33171e-08
3.33717e-08
3.27714e-08
3.2594e-08
3.28751e-08
3.27568e-08
3.2698e-08
3.2855e-08
3.28206e-08
3.2707e-08
3.27616e-08
3.28494e-08
3.2879e-08
3.30395e-08
3.26874e-08
3.30705e-08
3.30669e-08
3.33129e-08
3.33629e-08
3.33237e-08
3.32845e-08
3.32938e-08
3.33661e-08
3.32965e-08
3.33483e-08
3.3213e-08
3.33098e-08
3.33676e-08
3.31797e-08
3.33555e-08
3.33298e-08
3.33585e-08
3.31703e-08
3.306e-08
3.32072e-08
3.31294e-08
3.33246e-08
3.33009e-08
3.31756e-08
3.32993e-08
3.31618e-08
3.33049e-08
3.32914e-08
3.32866e-08
3.33156e-08
3.3256e-08
3.31531e-08
3.32169e-08
3.33132e-08
3.33011e-08
3.33913e-08
3.3251e-08
3.32896e-08
3.33335e-08
3.32238e-08
3.27364e-08
3.27807e-08
3.2706e-08
3.27013e-08
3.32328e-08
3.32916e-08
3.2982e-08
3.29097e-08
3.28956e-08
3.2884e-08
3.28517e-08
3.31728e-08
3.32013e-08
3.33446e-08
3.32803e-08
3.27519e-08
3.24717e-08
3.27815e-08
3.27265e-08
3.28272e-08
3.27195e-08
3.2548e-08
3.26767e-08
3.28605e-08
3.28093e-08
3.28657e-08
3.30914e-08
3.26978e-08
3.30384e-08
3.33031e-08
3.32971e-08
3.33518e-08
3.32078e-08
3.3292e-08
3.32657e-08
3.32002e-08
3.3289e-08
3.33242e-08
3.33385e-08
3.32857e-08
3.33436e-08
3.33309e-08
3.33525e-08
3.30265e-08
3.30189e-08
3.31964e-08
3.30999e-08
3.33294e-08
3.32895e-08
3.32772e-08
3.31492e-08
3.33228e-08
3.31736e-08
3.31658e-08
3.32639e-08
3.33196e-08
3.33232e-08
3.33428e-08
3.33508e-08
3.33064e-08
3.33638e-08
3.33883e-08
3.33175e-08
3.32871e-08
3.31816e-08
3.3349e-08
3.32579e-08
3.27211e-08
3.28115e-08
3.27293e-08
3.24818e-08
3.28721e-08
3.3231e-08
3.27457e-08
3.29738e-08
3.28329e-08
3.26886e-08
3.27626e-08
3.32083e-08
3.32885e-08
3.33087e-08
3.33728e-08
3.25383e-08
3.28388e-08
3.2427e-08
3.24464e-08
3.2572e-08
3.27198e-08
3.26279e-08
3.28859e-08
3.27583e-08
3.27696e-08
3.28787e-08
3.27466e-08
3.2824e-08
3.30959e-08
3.27164e-08
3.30391e-08
3.32854e-08
3.31903e-08
3.32986e-08
3.33519e-08
3.3126e-08
3.31852e-08
3.3344e-08
3.32687e-08
3.33666e-08
3.33074e-08
3.33587e-08
3.32827e-08
3.3299e-08
3.33488e-08
3.31752e-08
3.33221e-08
3.32221e-08
3.3056e-08
3.32941e-08
3.30537e-08
3.33469e-08
3.33434e-08
3.33241e-08
3.33572e-08
3.32663e-08
3.32007e-08
3.33288e-08
3.33227e-08
3.33216e-08
3.33343e-08
3.33384e-08
3.33072e-08
3.33297e-08
3.33462e-08
3.31828e-08
3.33136e-08
3.32824e-08
3.32921e-08
3.32898e-08
3.32951e-08
3.26818e-08
3.2569e-08
3.26811e-08
3.27225e-08
3.25574e-08
3.28391e-08
3.27559e-08
3.32573e-08
3.32023e-08
3.29352e-08
3.27846e-08
3.23491e-08
3.26985e-08
3.26304e-08
3.32526e-08
3.33121e-08
3.32637e-08
3.32267e-08
3.26293e-08
3.28207e-08
3.26028e-08
3.25892e-08
3.25058e-08
3.25532e-08
3.25999e-08
3.28809e-08
3.26511e-08
3.25874e-08
3.28273e-08
3.26533e-08
3.26427e-08
3.28907e-08
3.28744e-08
3.30317e-08
3.31399e-08
3.32823e-08
3.33923e-08
3.29912e-08
3.32485e-08
3.33057e-08
3.334e-08
3.33608e-08
3.32425e-08
3.33402e-08
3.31751e-08
3.32983e-08
3.33358e-08
3.32891e-08
3.32255e-08
3.32528e-08
3.30484e-08
3.3028e-08
3.312e-08
3.33019e-08
3.32991e-08
3.32374e-08
3.33429e-08
3.3263e-08
3.32407e-08
3.3306e-08
3.33485e-08
3.32222e-08
3.32655e-08
3.33024e-08
3.33424e-08
3.33246e-08
3.32924e-08
3.33499e-08
3.32669e-08
3.33003e-08
3.32642e-08
3.33363e-08
3.33098e-08
3.32769e-08
3.26593e-08
3.24864e-08
3.24058e-08
3.26712e-08
3.25988e-08
3.27752e-08
3.27335e-08
3.3022e-08
3.29344e-08
3.28308e-08
3.26324e-08
3.24471e-08
3.25431e-08
3.2459e-08
3.32758e-08
3.33039e-08
3.33131e-08
3.3189e-08
3.33698e-08
3.27331e-08
3.25288e-08
3.27338e-08
3.26234e-08
3.22238e-08
3.2463e-08
3.25797e-08
3.27544e-08
3.26743e-08
3.2668e-08
3.26741e-08
3.24837e-08
3.26153e-08
3.29947e-08
3.28451e-08
3.28464e-08
3.31972e-08
3.32929e-08
3.34106e-08
3.32502e-08
3.31778e-08
3.33109e-08
3.33732e-08
3.32494e-08
3.33308e-08
3.33038e-08
3.3229e-08
3.32573e-08
3.33027e-08
3.32117e-08
3.31943e-08
3.32551e-08
3.28853e-08
3.31682e-08
3.32259e-08
3.32552e-08
3.33014e-08
3.33431e-08
3.33265e-08
3.32747e-08
3.32475e-08
3.32864e-08
3.33682e-08
3.33277e-08
3.32833e-08
3.3298e-08
3.33438e-08
3.33284e-08
3.33008e-08
3.31703e-08
3.32667e-08
3.33155e-08
3.32946e-08
3.33012e-08
3.32959e-08
3.32789e-08
3.23272e-08
3.24575e-08
3.23537e-08
3.24952e-08
3.22323e-08
3.26201e-08
3.26294e-08
3.28884e-08
3.2755e-08
3.27689e-08
3.29236e-08
3.24995e-08
3.26874e-08
3.26385e-08
3.26055e-08
3.33324e-08
3.32294e-08
3.33233e-08
3.32476e-08
3.32503e-08
3.25233e-08
3.27397e-08
3.27583e-08
3.26312e-08
3.24248e-08
3.24731e-08
3.25714e-08
3.26601e-08
3.2914e-08
3.26401e-08
3.29202e-08
3.25362e-08
3.28831e-08
3.27172e-08
3.29547e-08
3.32631e-08
3.31824e-08
3.32775e-08
3.32503e-08
3.33765e-08
3.31529e-08
3.33087e-08
3.33459e-08
3.32368e-08
3.32284e-08
3.32045e-08
3.31448e-08
3.31997e-08
3.32618e-08
3.32265e-08
3.28783e-08
3.30616e-08
3.30399e-08
3.32225e-08
3.32978e-08
3.33466e-08
3.33234e-08
3.32629e-08
3.32369e-08
3.32731e-08
3.32877e-08
3.32642e-08
3.33576e-08
3.33716e-08
3.3296e-08
3.33143e-08
3.33208e-08
3.32833e-08
3.32991e-08
3.31717e-08
3.33542e-08
3.31304e-08
3.31766e-08
3.32866e-08
3.3302e-08
3.32575e-08
3.2643e-08
3.24107e-08
3.25202e-08
3.22797e-08
3.23205e-08
3.24211e-08
3.23979e-08
3.27785e-08
3.26104e-08
3.28819e-08
3.30095e-08
3.27596e-08
3.28824e-08
3.25161e-08
3.22154e-08
3.25189e-08
3.24829e-08
3.2632e-08
3.31567e-08
3.3102e-08
3.32769e-08
3.32237e-08
3.33721e-08
3.2314e-08
3.26128e-08
3.26215e-08
3.25489e-08
3.23373e-08
3.24322e-08
3.24638e-08
3.26067e-08
3.26837e-08
3.25358e-08
3.2826e-08
3.24938e-08
3.26806e-08
3.273e-08
3.24142e-08
3.30099e-08
3.31597e-08
3.33269e-08
3.32698e-08
3.33341e-08
3.33547e-08
3.32994e-08
3.32455e-08
3.33559e-08
3.32513e-08
3.31746e-08
3.33867e-08
3.31792e-08
3.30911e-08
3.31637e-08
3.31529e-08
3.31598e-08
3.3087e-08
3.33378e-08
3.33204e-08
3.32972e-08
3.32234e-08
3.3241e-08
3.32228e-08
3.32834e-08
3.32738e-08
3.32875e-08
3.33664e-08
3.32898e-08
3.33136e-08
3.33348e-08
3.32931e-08
3.32598e-08
3.33614e-08
3.33159e-08
3.31471e-08
3.33114e-08
3.33362e-08
3.32814e-08
3.32746e-08
3.26527e-08
3.26795e-08
3.26166e-08
3.2026e-08
3.22385e-08
3.21093e-08
3.22874e-08
3.26689e-08
3.23225e-08
3.29237e-08
3.2773e-08
3.29611e-08
3.2823e-08
3.24978e-08
3.2375e-08
3.2407e-08
3.22042e-08
3.24591e-08
3.21672e-08
3.32939e-08
3.32668e-08
3.3079e-08
3.31554e-08
3.33222e-08
3.33555e-08
3.23011e-08
3.27103e-08
3.26325e-08
3.26879e-08
3.23854e-08
3.24804e-08
3.26755e-08
3.23134e-08
3.24563e-08
3.27732e-08
3.2494e-08
3.25189e-08
3.25633e-08
3.26669e-08
3.29745e-08
3.32218e-08
3.3242e-08
3.31627e-08
3.31397e-08
3.32759e-08
3.33184e-08
3.32322e-08
3.32777e-08
3.33102e-08
3.32134e-08
3.33688e-08
3.33852e-08
3.33959e-08
3.30218e-08
3.30953e-08
3.3201e-08
3.2918e-08
3.31347e-08
3.31247e-08
3.33379e-08
3.33167e-08
3.3297e-08
3.31934e-08
3.31993e-08
3.32176e-08
3.30998e-08
3.31811e-08
3.32457e-08
3.3253e-08
3.32272e-08
3.3285e-08
3.33346e-08
3.32843e-08
3.33192e-08
3.32848e-08
3.33101e-08
3.33886e-08
3.31641e-08
3.3241e-08
3.33292e-08
3.33855e-08
3.32924e-08
3.32623e-08
3.2687e-08
3.26628e-08
3.23427e-08
3.21618e-08
3.25364e-08
3.20597e-08
3.23927e-08
3.24615e-08
3.25624e-08
3.27014e-08
3.28876e-08
3.29311e-08
3.23637e-08
3.25548e-08
3.22751e-08
3.23824e-08
3.19584e-08
3.2505e-08
3.25971e-08
3.32897e-08
3.30853e-08
3.29823e-08
3.33606e-08
3.32127e-08
3.3369e-08
3.25112e-08
3.23108e-08
3.24961e-08
3.24803e-08
3.23897e-08
3.26076e-08
3.24636e-08
3.26773e-08
3.22132e-08
3.26773e-08
3.28278e-08
3.25186e-08
3.22728e-08
3.27355e-08
3.25513e-08
3.27934e-08
3.31869e-08
3.32458e-08
3.32515e-08
3.32837e-08
3.32741e-08
3.32746e-08
3.32585e-08
3.3355e-08
3.33377e-08
3.33881e-08
3.33456e-08
3.33319e-08
3.33801e-08
3.32324e-08
3.32269e-08
3.30593e-08
3.30803e-08
3.29241e-08
3.29594e-08
3.2927e-08
3.33309e-08
3.32957e-08
3.30805e-08
3.32092e-08
3.32176e-08
3.31967e-08
3.31982e-08
3.32462e-08
3.3231e-08
3.32124e-08
3.32842e-08
3.33344e-08
3.32823e-08
3.33212e-08
3.32967e-08
3.3316e-08
3.32111e-08
3.33444e-08
3.34453e-08
3.33394e-08
3.32862e-08
3.32584e-08
3.26924e-08
3.25507e-08
3.23815e-08
3.21945e-08
3.24132e-08
3.24603e-08
3.23567e-08
3.23316e-08
3.24901e-08
3.25883e-08
3.24692e-08
3.26078e-08
3.28496e-08
3.24642e-08
3.25761e-08
3.21459e-08
3.19712e-08
3.26031e-08
3.21361e-08
3.26043e-08
3.24913e-08
3.31776e-08
3.30438e-08
3.31101e-08
3.29742e-08
3.31506e-08
3.31807e-08
3.32172e-08
3.22924e-08
3.25131e-08
3.24997e-08
3.2204e-08
3.22481e-08
3.24521e-08
3.23936e-08
3.24084e-08
3.24788e-08
3.27771e-08
3.27701e-08
3.2476e-08
3.24487e-08
3.25198e-08
3.25807e-08
3.32358e-08
3.3313e-08
3.32844e-08
3.31464e-08
3.33095e-08
3.31503e-08
3.33576e-08
3.32134e-08
3.33488e-08
3.33502e-08
3.33062e-08
3.33469e-08
3.33341e-08
3.34067e-08
3.32231e-08
3.30624e-08
3.30747e-08
3.29561e-08
3.21622e-08
3.28709e-08
3.29656e-08
3.33309e-08
3.32907e-08
3.32134e-08
3.32629e-08
3.32568e-08
3.32878e-08
3.33305e-08
3.31669e-08
3.30414e-08
3.3102e-08
3.33553e-08
3.33908e-08
3.33117e-08
3.32918e-08
3.32792e-08
3.3297e-08
3.32635e-08
3.33055e-08
3.34445e-08
3.32397e-08
3.33195e-08
3.32766e-08
3.3256e-08
3.22692e-08
3.25829e-08
3.24407e-08
3.22968e-08
3.21241e-08
3.23205e-08
3.21348e-08
3.238e-08
3.22764e-08
3.25749e-08
3.26518e-08
3.26687e-08
3.24339e-08
3.25129e-08
3.24173e-08
3.20054e-08
3.199e-08
3.20757e-08
3.18537e-08
3.22815e-08
3.19152e-08
3.31491e-08
3.29118e-08
3.2917e-08
3.27218e-08
3.31675e-08
3.32897e-08
3.32069e-08
3.21717e-08
3.23704e-08
3.23422e-08
3.20504e-08
3.22023e-08
3.18022e-08
3.24671e-08
3.25102e-08
3.24879e-08
3.26679e-08
3.2542e-08
3.25431e-08
3.25048e-08
3.23781e-08
3.28162e-08
3.31811e-08
3.33526e-08
3.32418e-08
3.33399e-08
3.31473e-08
3.31763e-08
3.31433e-08
3.33654e-08
3.33013e-08
3.32027e-08
3.32862e-08
3.32967e-08
3.33022e-08
3.3295e-08
3.34067e-08
3.32674e-08
3.32518e-08
3.32653e-08
3.30324e-08
3.29376e-08
3.28484e-08
3.26069e-08
3.30333e-08
3.27836e-08
3.27393e-08
3.31899e-08
3.32449e-08
3.33296e-08
3.32963e-08
3.33946e-08
3.32016e-08
3.30697e-08
3.33948e-08
3.33512e-08
3.33752e-08
3.33097e-08
3.32951e-08
3.33763e-08
3.33318e-08
3.32718e-08
3.33031e-08
3.32302e-08
3.3272e-08
3.3316e-08
3.3206e-08
3.32056e-08
3.22385e-08
3.20877e-08
3.20547e-08
3.24136e-08
3.19783e-08
3.19244e-08
3.2267e-08
3.22248e-08
3.20491e-08
3.225e-08
3.21658e-08
3.25226e-08
3.25906e-08
3.26767e-08
3.2487e-08
3.24791e-08
3.23958e-08
3.25005e-08
3.19956e-08
3.26729e-08
3.23446e-08
3.19139e-08
3.22114e-08
3.19136e-08
3.20979e-08
3.30731e-08
3.32969e-08
3.29193e-08
3.28296e-08
3.29096e-08
3.27124e-08
3.32795e-08
3.32973e-08
3.3149e-08
3.33758e-08
3.23512e-08
3.25611e-08
3.23653e-08
3.17443e-08
3.21708e-08
3.24265e-08
3.18894e-08
3.2455e-08
3.23665e-08
3.23375e-08
3.24054e-08
3.26017e-08
3.25212e-08
3.227e-08
3.27171e-08
3.27101e-08
3.33494e-08
3.32827e-08
3.31503e-08
3.3303e-08
3.32423e-08
3.30546e-08
3.33594e-08
3.32907e-08
3.33004e-08
3.32517e-08
3.32907e-08
3.32855e-08
3.32887e-08
3.33651e-08
3.32878e-08
3.32025e-08
3.30759e-08
3.29607e-08
3.22576e-08
3.261e-08
3.28877e-08
3.22376e-08
3.32306e-08
3.33797e-08
3.33991e-08
3.33973e-08
3.33956e-08
3.33959e-08
3.33973e-08
3.33987e-08
3.33324e-08
3.33518e-08
3.33295e-08
3.3207e-08
3.31706e-08
3.33005e-08
3.32935e-08
3.32967e-08
3.32828e-08
3.33801e-08
3.22071e-08
3.19067e-08
3.21378e-08
3.17397e-08
3.18656e-08
3.2337e-08
3.19487e-08
3.18798e-08
3.17079e-08
3.25318e-08
3.23917e-08
3.24108e-08
3.26262e-08
3.26198e-08
3.24745e-08
3.24895e-08
3.2478e-08
3.26751e-08
3.16734e-08
3.22005e-08
3.222e-08
3.20292e-08
3.18817e-08
3.30822e-08
3.32154e-08
3.27479e-08
3.29106e-08
3.27834e-08
3.22502e-08
3.31359e-08
3.32872e-08
3.32679e-08
3.24021e-08
3.24184e-08
3.22579e-08
3.20611e-08
3.22748e-08
3.19307e-08
3.21237e-08
3.25317e-08
3.23395e-08
3.24967e-08
3.23938e-08
3.26181e-08
3.2336e-08
3.24371e-08
3.24236e-08
3.27124e-08
3.33386e-08
3.32733e-08
3.32897e-08
3.32985e-08
3.33086e-08
3.33525e-08
3.33839e-08
3.33472e-08
3.32303e-08
3.33198e-08
3.31672e-08
3.32528e-08
3.3246e-08
3.33608e-08
3.33237e-08
3.30725e-08
3.29962e-08
3.29187e-08
3.27052e-08
3.2742e-08
3.30079e-08
3.27743e-08
3.29938e-08
3.28086e-08
3.32129e-08
3.33642e-08
3.32663e-08
3.33982e-08
3.33996e-08
3.3317e-08
3.32932e-08
3.32875e-08
3.32882e-08
3.32872e-08
3.33118e-08
3.32284e-08
3.33791e-08
3.22372e-08
3.23436e-08
3.22191e-08
3.18641e-08
3.22649e-08
3.23619e-08
3.2005e-08
3.19816e-08
3.24067e-08
3.22571e-08
3.23903e-08
3.26372e-08
3.24984e-08
3.22041e-08
3.20827e-08
3.21146e-08
3.23646e-08
3.20057e-08
3.20902e-08
3.17134e-08
3.20758e-08
3.20178e-08
3.20604e-08
3.19452e-08
3.30517e-08
3.31853e-08
3.26302e-08
3.2491e-08
3.2924e-08
3.28926e-08
3.21872e-08
3.23446e-08
3.32963e-08
3.3267e-08
3.33155e-08
3.33746e-08
3.22788e-08
3.22268e-08
3.2156e-08
3.23637e-08
3.21327e-08
3.21013e-08
3.22485e-08
3.22443e-08
3.20709e-08
3.20569e-08
3.25792e-08
3.22559e-08
3.22376e-08
3.2558e-08
3.23996e-08
3.33262e-08
3.31804e-08
3.32821e-08
3.34156e-08
3.33537e-08
3.33827e-08
3.32309e-08
3.31593e-08
3.33288e-08
3.32422e-08
3.33478e-08
3.3275e-08
3.32278e-08
3.31231e-08
3.32587e-08
3.29665e-08
3.29303e-08
3.22533e-08
3.23449e-08
3.2679e-08
3.22928e-08
3.34005e-08
3.33974e-08
3.33995e-08
3.31919e-08
3.33244e-08
3.32975e-08
3.32902e-08
3.32872e-08
3.32595e-08
3.3353e-08
3.17525e-08
3.22118e-08
3.23022e-08
3.19318e-08
3.21729e-08
3.1755e-08
3.17156e-08
3.18756e-08
3.21095e-08
3.19934e-08
3.24353e-08
3.23376e-08
3.23295e-08
3.22208e-08
3.23443e-08
3.22102e-08
3.206e-08
3.23591e-08
3.22145e-08
3.17688e-08
3.19067e-08
3.20477e-08
3.20901e-08
3.27844e-08
3.28591e-08
3.22505e-08
3.25927e-08
3.26434e-08
3.28816e-08
3.22773e-08
3.24018e-08
3.32253e-08
3.31803e-08
3.31852e-08
3.31861e-08
3.23444e-08
3.20708e-08
3.21084e-08
3.23186e-08
3.20981e-08
3.22748e-08
3.22698e-08
3.21402e-08
3.23458e-08
3.25047e-08
3.23429e-08
3.21916e-08
3.22447e-08
3.25045e-08
3.24856e-08
3.26517e-08
3.3208e-08
3.32764e-08
3.34091e-08
3.32101e-08
3.32523e-08
3.31271e-08
3.31729e-08
3.34064e-08
3.34038e-08
3.33438e-08
3.31883e-08
3.33288e-08
3.33033e-08
3.30017e-08
3.30188e-08
3.29189e-08
3.27875e-08
3.27447e-08
3.24323e-08
3.24283e-08
3.2743e-08
3.33252e-08
3.32267e-08
3.33784e-08
3.33453e-08
3.32414e-08
3.34007e-08
3.2017e-08
3.17908e-08
3.2208e-08
3.18939e-08
3.1922e-08
3.15609e-08
3.16993e-08
3.19858e-08
3.21673e-08
3.21864e-08
3.21163e-08
3.21465e-08
3.24346e-08
3.23345e-08
3.22494e-08
3.23386e-08
3.23351e-08
3.22139e-08
3.22524e-08
3.22431e-08
3.19493e-08
3.17762e-08
3.20631e-08
3.21029e-08
3.22683e-08
3.19769e-08
3.27135e-08
3.27533e-08
3.29339e-08
3.29267e-08
3.24082e-08
3.26107e-08
3.26714e-08
3.28029e-08
3.24048e-08
3.26308e-08
3.30096e-08
3.32033e-08
3.32078e-08
3.32613e-08
3.33562e-08
3.23717e-08
3.18608e-08
3.22423e-08
3.18993e-08
3.16578e-08
3.18749e-08
3.2375e-08
3.19735e-08
3.18354e-08
3.18233e-08
3.23194e-08
3.18463e-08
3.21238e-08
3.23017e-08
3.32477e-08
3.32603e-08
3.32822e-08
3.325e-08
3.32255e-08
3.3166e-08
3.33496e-08
3.34036e-08
3.33343e-08
3.32571e-08
3.33834e-08
3.32752e-08
3.30073e-08
3.30145e-08
3.28886e-08
3.27067e-08
3.23569e-08
3.2811e-08
3.2713e-08
3.25735e-08
3.281e-08
3.32737e-08
3.31971e-08
3.33998e-08
3.33994e-08
3.31492e-08
3.30832e-08
3.18867e-08
3.1748e-08
3.21205e-08
3.2006e-08
3.14462e-08
3.18588e-08
3.21351e-08
3.16575e-08
3.20942e-08
3.22784e-08
3.22572e-08
3.22462e-08
3.24167e-08
3.21747e-08
3.21815e-08
3.22431e-08
3.22353e-08
3.21949e-08
3.18676e-08
3.17499e-08
3.20459e-08
3.19599e-08
3.25703e-08
3.28898e-08
3.29572e-08
3.28265e-08
3.24356e-08
3.25403e-08
3.26104e-08
3.28389e-08
3.25549e-08
3.25786e-08
3.30944e-08
3.31841e-08
3.31475e-08
3.30969e-08
3.30332e-08
3.30646e-08
3.20445e-08
3.17477e-08
3.13834e-08
3.20999e-08
3.20897e-08
3.19849e-08
3.15234e-08
3.22623e-08
3.2155e-08
3.21509e-08
3.23687e-08
3.21675e-08
3.24397e-08
3.21245e-08
3.21769e-08
3.21894e-08
3.26804e-08
3.32342e-08
3.31507e-08
3.32803e-08
3.34062e-08
3.34079e-08
3.32699e-08
3.32594e-08
3.32691e-08
3.33452e-08
3.31892e-08
3.28922e-08
3.2991e-08
3.31441e-08
3.27842e-08
3.27016e-08
3.21994e-08
3.27052e-08
3.26916e-08
3.26593e-08
3.26807e-08
3.31696e-08
3.31745e-08
3.32781e-08
3.34005e-08
3.30917e-08
3.23335e-08
3.11695e-08
3.14228e-08
3.1727e-08
3.19014e-08
3.21539e-08
3.15929e-08
3.20591e-08