/*--------------------------------*- C++ -*----------------------------------*\
| =========                 |                                                 |
| \\      /  F ield         | OpenFOAM: The Open Source CFD Toolbox           |
|  \\    /   O peration     | Version:  v2012                                 |
|   \\  /    A nd           | Website:  www.openfoam.com                      |
|    \\/     M anipulation  |                                                 |
\*---------------------------------------------------------------------------*/
FoamFile
{
    version     2.0;
    format      ascii;
    class       volVectorField;
    location    "3";
    object      U;
}
// * * * * * * * * * * * * * * * * * * * * * * * * * * * * * * * * * * * * * //

dimensions      [0 1 -1 0 0 0 0];


internalField   nonuniform List<vector> 
27222
(
(17.8487 0.0912013 -6.4072e-23)
(17.8909 0.0991924 7.67141e-24)
(17.8251 0.0429167 4.26536e-24)
(17.9523 0.0559938 -6.20726e-24)
(17.882 0.069048 -7.29311e-24)
(17.8297 0.0567622 0)
(17.9248 0.0448871 2.88294e-24)
(17.9805 0.0629702 -1.55861e-23)
(17.8727 0.163229 0)
(17.9258 0.0557319 -5.00774e-24)
(17.7975 0.0498164 -2.374e-23)
(17.9591 0.0487072 2.59675e-24)
(17.9766 0.0704361 0)
(18.0086 0.0470197 -5.62223e-25)
(17.8497 0.113435 0)
(17.939 0.0739331 -4.97656e-24)
(17.9061 0.0350329 1.13933e-24)
(17.8028 0.0580914 1.44822e-24)
(18.0134 0.0475421 -1.70717e-24)
(17.9991 0.0646402 -1.97905e-24)
(17.9902 0.0477472 -6.40423e-24)
(18.0041 0.0468627 5.49767e-24)
(17.8639 0.144109 1.40581e-23)
(17.9226 0.0503866 2.31583e-23)
(17.9825 0.0723529 -3.93748e-24)
(17.9454 0.0343071 -9.42203e-24)
(17.7788 0.0523079 -2.40145e-24)
(18.012 0.043205 -5.53367e-25)
(17.9961 0.0598341 -6.47927e-25)
(17.9892 0.0529241 -1.49789e-24)
(17.9712 0.050784 -2.22572e-24)
(17.9907 0.0450668 6.55055e-24)
(17.8559 0.113942 -1.59605e-23)
(17.9595 0.0630644 0)
(17.988 0.0820169 9.7208e-24)
(18.0068 0.0427213 0)
(17.8965 0.0306103 -1.83893e-24)
(17.7942 0.0751607 0)
(17.9975 0.0417002 5.16106e-24)
(17.9857 0.0661134 1.42826e-23)
(17.9691 0.057474 -2.302e-24)
(17.9668 0.050381 -4.60505e-24)
(17.9739 0.0460376 5.94519e-25)
(17.9771 0.0452876 0)
(17.9228 0.0640218 1.99331e-23)
(17.8849 0.118458 0)
(17.9636 0.0714106 0)
(17.9884 0.0724106 3.88065e-23)
(18.0164 0.0367094 0)
(17.9466 0.044945 2.69355e-24)
(17.7761 0.0560783 0)
(17.9905 0.0406756 0)
(17.9696 0.0661933 2.33689e-24)
(17.9619 0.0532763 -4.79799e-24)
(17.9634 0.0610994 5.32349e-24)
(17.9654 0.0447154 0)
(17.9681 0.0436746 -1.03308e-24)
(17.9721 0.0410149 2.53764e-24)
(17.9278 0.0714331 0)
(17.8885 0.0927306 0)
(17.9825 0.0745132 9.45779e-24)
(17.9835 0.07312 -4.34531e-25)
(18.0077 0.0367789 0)
(17.9981 0.0380694 -1.13909e-24)
(17.9143 0.038239 -2.82844e-24)
(17.7988 0.0690643 0)
(17.9762 0.0393602 9.68905e-25)
(17.9624 0.069678 0)
(17.9592 0.051297 0)
(17.9578 0.0591093 3.90489e-24)
(17.9632 0.044557 0)
(17.9686 0.0413103 1.61978e-24)
(17.9667 0.0802311 1.25901e-24)
(17.908 0.0662224 0)
(17.9345 0.106758 0)
(17.9846 0.0731594 -2.44693e-24)
(17.9674 0.0711595 0)
(18.0163 0.0344314 -3.93124e-24)
(17.9906 0.0356972 1.9496e-24)
(17.9989 0.0301346 1.00792e-23)
(17.7796 0.0452672 2.87264e-24)
(17.972 0.0369381 1.18882e-24)
(17.9567 0.0675407 -1.74983e-24)
(17.9561 0.054886 -6.69793e-24)
(17.9596 0.0474619 0)
(17.9549 0.0627011 -2.38947e-24)
(17.963 0.041202 -1.36106e-24)
(17.9682 0.0386093 1.82861e-24)
(17.9786 0.08056 1.14572e-23)
(17.9158 0.0742788 1.63652e-24)
(17.9218 0.0612259 2.51567e-23)
(17.985 0.0770579 0)
(17.9629 0.0761023 0)
(18.0068 0.0343321 2.32759e-25)
(17.9764 0.0350819 -3.86998e-25)
(17.9941 0.0339268 2.95019e-24)
(17.9938 0.0233594 0)
(17.9665 0.0225202 4.09636e-24)
(17.7732 0.0609113 1.9727e-23)
(17.9707 0.0355845 5.25478e-25)
(17.9526 0.0689753 0)
(17.9533 0.0546758 -2.81153e-24)
(17.9568 0.0461069 0)
(17.95 0.0623834 0)
(17.9597 0.0398478 2.68093e-24)
(17.964 0.0383354 -9.96573e-25)
(17.9657 0.0366685 1.99707e-24)
(17.9872 0.0760499 0)
(17.9609 0.0770526 1.47689e-23)
(17.903 0.0577391 1.87652e-23)
(17.9569 0.125059 0)
(17.9718 0.0785906 0)
(17.9571 0.0780941 0)
(18.0021 0.0315282 1.07106e-25)
(17.9724 0.0322688 -5.986e-25)
(17.9786 0.0311287 1.81218e-24)
(18.0045 0.0296457 -1.63347e-24)
(17.9888 0.0209618 6.39345e-24)
(17.7684 0.0366335 1.46286e-23)
(17.9713 0.0329466 -9.2885e-25)
(17.9515 0.0737607 0)
(17.9478 0.0660053 0)
(17.9497 0.0583651 3.4018e-24)
(17.9519 0.0503302 -1.3112e-24)
(17.9539 0.04639 -5.76307e-25)
(17.9572 0.0414038 6.09228e-24)
(17.9609 0.0368203 -8.68003e-25)
(17.9669 0.0322016 8.33548e-24)
(17.9905 0.0796003 0)
(17.9791 0.0836312 2.69145e-23)
(17.9482 0.071752 0)
(17.9481 0.126307 0)
(17.9698 0.0827747 1.88532e-24)
(17.9517 0.0814142 0)
(17.9834 0.0299722 7.02085e-24)
(17.9726 0.0317464 0)
(18.0029 0.0265884 -4.90555e-25)
(17.9395 0.0119031 -1.67846e-24)
(18.0153 0.0286202 1.49725e-24)
(17.7728 0.062632 -2.20926e-23)
(17.9699 0.0306852 6.77145e-24)
(17.9463 0.0745624 -8.56281e-25)
(17.9439 0.067596 6.72638e-24)
(17.9449 0.0555837 -1.49801e-23)
(17.9463 0.0506442 3.27656e-24)
(17.9525 0.0426991 -4.92596e-24)
(17.9551 0.0396281 0)
(17.9613 0.0344072 0)
(17.9656 0.0300461 -1.98056e-25)
(17.9818 0.0848006 -1.36133e-25)
(17.9887 0.0861473 1.79297e-23)
(17.9468 0.0693522 0)
(17.9443 0.0597705 -1.52736e-22)
(17.96 0.085661 1.35032e-23)
(17.9524 0.0853467 -4.18142e-24)
(17.9436 0.0800441 -9.71601e-24)
(17.9775 0.0287921 -1.10775e-24)
(17.9738 0.0296937 0)
(17.9823 0.0247861 -9.28059e-25)
(17.9816 0.0139547 -8.39187e-25)
(18.011 0.0242147 -4.07265e-24)
(17.781 0.0519485 -7.15287e-23)
(17.9711 0.0271813 -8.62437e-24)
(17.9429 0.0711125 -9.00131e-24)
(17.9403 0.0644639 -1.00957e-23)
(17.9412 0.0577723 -1.94734e-23)
(17.9453 0.0467583 5.9723e-25)
(17.949 0.0421511 -6.50014e-24)
(17.9561 0.0363738 1.99732e-24)
(17.9632 0.0307631 0)
(17.9592 0.033737 2.38526e-24)
(17.9673 0.0263841 -1.0557e-24)
(17.9775 0.0889296 1.45737e-23)
(17.9944 0.082365 0)
(17.9619 0.0801727 0)
(17.9664 0.0397225 0)
(17.9064 0.173145 4.56014e-23)
(17.9624 0.0897828 -1.33494e-23)
(17.9449 0.0893753 -1.79455e-23)
(17.9416 0.0810421 -1.45144e-23)
(17.98 0.0263629 1.93028e-25)
(17.9762 0.0286287 -1.24351e-24)
(17.9731 0.0268428 -7.26914e-24)
(17.9889 0.0232643 -4.08075e-24)
(17.9444 0.000346121 -1.16353e-23)
(18.0123 0.0249418 7.32807e-24)
(17.7952 0.102122 3.54834e-23)
(17.9698 0.0257682 -7.74588e-25)
(17.9407 0.0757532 -8.56966e-24)
(17.9334 0.0644817 -9.31531e-24)
(17.9357 0.0538697 7.42482e-24)
(17.9404 0.0455886 0)
(17.9482 0.0386068 4.96752e-24)
(17.9536 0.0331879 0)
(17.9611 0.027507 0)
(17.9589 0.0292088 4.38435e-24)
(17.9661 0.0240717 -1.13069e-24)
(17.9829 0.0933883 8.85513e-24)
(17.9982 0.0844737 0)
(17.9609 0.0881524 0)
(17.9889 0.0582435 -1.31974e-23)
(17.883 0.103079 -6.45698e-23)
(17.9568 0.0952543 -1.33307e-23)
(17.9462 0.094347 -5.69362e-24)
(17.9393 0.087533 4.47564e-25)
(17.9801 0.0248323 8.84349e-25)
(17.9771 0.0251887 0)
(17.9746 0.0248436 3.62792e-25)
(17.9825 0.0237721 1.39058e-24)
(18.0005 0.00880077 1.68826e-23)
(18.0089 0.0162582 3.42534e-24)
(17.8159 0.079835 -1.91498e-22)
(17.9711 0.0230849 9.25048e-27)
(17.9356 0.0755738 -4.5612e-24)
(17.9301 0.0586039 0)
(17.9309 0.0701452 1.02449e-23)
(17.936 0.0486413 7.52375e-24)
(17.939 0.0397631 0)
(17.9434 0.0365834 4.13198e-24)
(17.9506 0.0342033 0)
(17.9555 0.0286276 4.45008e-24)
(17.9627 0.0247303 1.64128e-24)
(17.9675 0.0208584 -1.32838e-24)
(17.9757 0.09838 -1.87564e-24)
(18.0134 0.0842359 0)
(17.9963 0.0896316 0)
(18.0004 0.0208985 -6.75434e-23)
(17.9908 0.0824596 -1.6781e-23)
(17.8263 0.0736719 0)
(17.9611 0.0989076 5.64602e-24)
(17.9424 0.100633 -1.12171e-24)
(17.9348 0.0876831 0)
(17.978 0.0238153 -6.64974e-24)
(17.9811 0.0233666 -3.61369e-24)
(17.9743 0.0231383 0)
(17.9828 0.0238117 -3.75065e-24)
(17.9874 0.0215832 0)
(17.9804 -0.00246831 0)
(17.8399 0.167335 7.22202e-23)
(17.9553 -0.0223418 0)
(17.973 0.0223266 0)
(17.9698 0.0206212 1.04265e-26)
(17.9316 0.0815799 -6.65939e-24)
(17.9248 0.0580051 0)
(17.9233 0.0715903 1.17591e-23)
(17.9307 0.0456025 9.28162e-24)
(17.9338 0.0357705 0)
(17.943 0.0319591 -4.76756e-24)
(17.9478 0.0307532 -5.32395e-24)
(17.9539 0.0263264 1.03869e-23)
(17.9614 0.0226526 1.23416e-24)
(17.9663 0.0184753 -9.95459e-25)
(17.9779 0.106099 -2.33485e-23)
(18.0006 0.0978234 0)
(18.0022 0.0798797 0)
(18.0212 0.00870467 9.13205e-24)
(17.9951 0.0802052 0)
(17.889 0.0432066 0)
(17.9564 0.107126 0)
(17.9322 0.0996835 -1.14233e-24)
(17.9475 0.107259 0)
(17.9294 0.0932645 1.78091e-24)
(17.9775 0.0220782 -2.25019e-24)
(17.9806 0.0210239 -6.43969e-24)
(17.9762 0.0214049 1.85494e-24)
(17.9833 0.0222781 0)
(17.9869 0.0213484 2.01714e-24)
(17.9883 0.0405567 1.04516e-23)
(17.913 0.0361037 0)
(17.96 0.022642 0)
(17.9735 0.019667 -2.29739e-26)
(17.9714 0.0186549 0)
(17.9238 0.0787959 0)
(17.9186 0.0604635 0)
(17.9233 0.051761 5.36193e-25)
(17.9172 0.0670906 0)
(17.9298 0.0386838 0)
(17.9264 0.0465625 1.28884e-23)
(17.9349 0.0302493 0)
(17.9402 0.0289946 5.45114e-25)
(17.9494 0.0271478 4.36417e-24)
(17.9552 0.0223452 6.34393e-24)
(17.9637 0.0190447 0)
(17.9581 0.0212014 0)
(17.9677 0.0152924 1.66517e-24)
(17.966 0.109757 -2.20621e-23)
(18.0149 0.104243 0)
(18.0209 0.0930114 1.18886e-23)
(18.0179 0.0463694 1.46532e-23)
(18.0183 0.080985 -1.38945e-23)
(17.8975 0.0384627 -5.92019e-23)
(17.928 0.106907 0)
(17.9463 0.115474 0)
(17.9187 0.0912783 1.70722e-24)
(17.9792 0.0203812 -6.90795e-24)
(17.9824 0.0199596 4.6523e-24)
(17.9767 0.0191825 1.92916e-24)
(17.9836 0.0231235 0)
(17.9923 0.0231296 -3.13404e-24)
(17.9793 0.0298266 -5.96995e-24)
(17.9262 0.0899911 0)
(17.9753 0.0183038 -2.05135e-26)
(17.9721 0.0167048 -1.95889e-24)
(17.9169 0.0833559 -4.83577e-25)
(17.9121 0.0551859 5.06396e-24)
(17.9158 0.0494702 1.56984e-24)
(17.9108 0.0709573 -8.38374e-24)
(17.9239 0.0370219 1.2124e-24)
(17.9209 0.0407796 0)
(17.9323 0.0264253 -1.77067e-23)
(17.9421 0.0244082 4.62483e-24)
(17.9467 0.0236218 4.83123e-24)
(17.9518 0.0187733 -6.73966e-24)
(17.9614 0.0163371 -2.97876e-24)
(17.958 0.0171871 -1.44809e-24)
(17.965 0.0126893 0)
(17.9704 0.014849 6.04298e-26)
(17.967 0.117459 0)
(18.0122 0.114837 0)
(18.031 0.092694 3.55899e-23)
(18.0527 0.0523873 4.3716e-23)
(18.0291 0.0832176 -3.89671e-25)
(17.9591 0.0580424 -5.92685e-23)
(17.9337 0.115099 0)
(17.9174 0.109651 0)
(17.949 0.12671 -8.23491e-24)
(17.9105 0.0956264 1.68137e-23)
(17.9796 0.0183887 2.97198e-24)
(17.9835 0.0188884 2.9481e-24)
(17.9785 0.0175212 3.06652e-24)
(17.9843 0.0227427 -1.50837e-24)
(17.9925 0.0214741 7.63938e-26)
(17.9884 0.0186827 0)
(17.991 0.0189297 -5.65415e-24)
(17.9159 0.090996 2.84385e-23)
(17.9759 0.0159129 -2.39705e-24)
(17.9744 0.0149963 -2.26874e-24)
(17.9103 0.0799253 -9.27957e-24)
(17.9069 0.0557647 -6.88655e-24)
(17.9153 0.0432084 0)
(17.9033 0.0681182 0)
(17.924 0.0316695 -1.61225e-23)
(17.9356 0.0212651 -1.08463e-23)
(17.9282 0.0261543 -2.07352e-23)
(17.9399 0.0213462 -9.17823e-24)
(17.9483 0.0194348 -4.63423e-24)
(17.9535 0.015392 -5.79059e-24)
(17.9622 0.0132873 -2.48021e-24)
(17.9567 0.015421 -3.20075e-24)
(17.9659 0.0102012 0)
(17.9715 0.0118551 -3.68227e-25)
(17.9767 0.122094 0)
(17.9579 0.127967 0)
(18.0182 0.126491 2.04374e-23)
(18.055 0.109155 3.6105e-23)
(18.0553 0.0647163 4.36562e-23)
(18.0534 0.104223 1.68287e-23)
(17.9593 0.0487351 5.23296e-23)
(17.9258 0.123353 -1.12866e-23)
(17.9176 0.119336 0)
(17.9103 0.10544 1.53329e-23)
(17.9336 0.129848 -1.95167e-23)
(17.8994 0.0908238 1.34277e-23)
(17.9814 0.0169286 2.45916e-24)
(17.9827 0.0174405 0)
(17.9854 0.0190948 -1.91092e-24)
(17.9791 0.0152479 0)
(17.9868 0.0227404 1.81931e-25)
(17.9924 0.0207294 2.26954e-24)
(17.9908 0.0247275 8.80064e-25)
(17.9918 0.0189586 1.10735e-23)
(17.9289 0.0347392 -3.12509e-23)
(17.9779 0.0143607 0)
(17.9742 0.0122449 0)
(17.9022 0.0810329 -1.11961e-24)
(17.9023 0.0485337 0)
(17.903 0.062131 -6.18251e-24)
(17.9117 0.0406894 -1.0307e-23)
(17.8969 0.0752747 -7.96765e-25)
(17.9189 0.030296 -1.1584e-23)
(17.9345 0.0172756 3.43302e-24)
(17.9269 0.019522 3.63968e-24)
(17.9426 0.0171585 -4.04071e-24)
(17.9464 0.0167501 0)
(17.9533 0.012082 4.04628e-24)
(17.961 0.0108565 -6.6943e-25)
(17.9584 0.0117523 1.67829e-24)
(17.9656 0.00717024 -2.85457e-24)
(17.9692 0.00967931 -1.43762e-24)
(17.9686 0.134159 0)
(17.9625 0.135462 2.7176e-23)
(18.0476 0.121136 1.54116e-23)
(17.9835 0.137042 0)
(18.0831 0.0643477 8.4418e-24)
(18.0686 0.113775 2.38292e-23)
(17.9585 0.0460844 0)
(18.0374 0.0528734 4.49193e-23)
(17.9091 0.127476 4.7345e-25)
(17.8962 0.11086 1.79977e-24)
(17.928 0.140868 1.70965e-23)
(17.8889 0.0919142 1.33798e-23)
(17.982 0.0146209 -1.62493e-24)
(17.9847 0.0155395 0)
(17.9868 0.0182306 -2.03832e-24)
(17.9811 0.0137288 -4.23067e-24)
(17.9866 0.020204 3.58562e-24)
(17.9898 0.0208444 1.08572e-24)
(17.9919 0.0255111 7.42503e-24)
(18.0004 0.0333544 4.9469e-24)
(17.9656 0.0100624 0)
(17.9381 0.0806894 0)
(17.9785 0.0119101 1.68266e-24)
(17.9759 0.0107381 3.08181e-24)
(17.893 0.0508677 -7.14804e-24)
(17.9054 0.0419053 -9.956e-24)
(17.8932 0.0577991 -7.55808e-24)
(17.9137 0.0334608 -2.56328e-24)
(17.8879 0.0726502 0)
(17.9193 0.0236839 -1.25268e-24)
(17.9381 0.0123248 4.55862e-24)
(17.9308 0.0153963 1.0703e-23)
(17.9235 0.0190029 3.37536e-25)
(17.9413 0.0128002 6.07587e-24)
(17.9478 0.012352 0)
(17.9509 0.0104154 5.01974e-24)
(17.9566 0.00938384 1.40851e-24)
(17.9628 0.00766174 1.24569e-24)
(17.968 0.00451344 -2.28432e-24)
(17.9706 0.00705251 -2.62575e-24)
(17.9576 0.147755 2.92987e-23)
(18.0457 0.138971 0)
(17.9804 0.152544 1.9738e-23)
(18.0898 0.0885236 -9.86887e-25)
(18.0781 0.126887 0)
(17.9729 0.0158092 0)
(18.0531 0.0623347 8.92887e-24)
(17.9137 0.139844 0)
(17.8957 0.123142 2.04033e-23)
(17.8846 0.104413 -2.47825e-23)
(17.9359 0.151344 4.35819e-23)
(17.882 0.0827355 0)
(17.9838 0.0136593 -3.98203e-26)
(17.9863 0.0160336 0)
(17.9875 0.018857 2.11375e-24)
(17.9822 0.0117995 0)
(17.9909 0.0204744 -9.78473e-24)
(17.9973 0.0269263 3.06379e-24)
(17.9971 0.0253932 3.99299e-24)
(17.9811 0.0317751 1.06251e-24)
(17.9319 0.0428829 2.09097e-23)
(17.9803 0.0104527 -1.93131e-24)
(17.9756 0.00858755 1.03625e-24)
(17.8915 0.0442685 0)
(17.9029 0.035036 5.37252e-24)
(17.8855 0.064191 0)
(17.9076 0.0300566 3.34809e-25)
(17.9147 0.0208594 3.6374e-24)
(17.937 0.00805429 9.27255e-24)
(17.9321 0.0102265 3.37804e-24)
(17.9219 0.0133445 1.53171e-23)
(17.9447 0.00968786 4.26884e-24)
(17.9524 0.0060551 3.73654e-24)
(17.9581 0.00657842 0)
(17.9616 0.00511381 1.05834e-24)
(17.9704 0.0050035 0)
(17.9683 0.00197299 1.83682e-24)
(17.973 0.0066932 -1.11468e-24)
(17.971 0.156627 2.8997e-23)
(18.0698 0.139576 0)
(17.9987 0.156818 -1.58101e-23)
(18.1208 0.0876126 -5.62728e-23)
(18.0939 0.141525 -3.29831e-23)
(18.0209 0.0285622 1.9689e-23)
(18.1019 0.0853144 0)
(17.9059 0.15205 0)
(17.8858 0.132196 4.1427e-23)
(17.8734 0.106187 -2.8094e-23)
(17.9271 0.169123 6.27434e-24)
(17.8731 0.081096 8.13358e-24)
(17.9845 0.0123264 2.19596e-25)
(17.9878 0.0149078 0)
(17.989 0.0180597 2.76434e-24)
(17.9839 0.0107735 2.12205e-24)
(17.9916 0.0194375 -6.5705e-24)
(17.9984 0.0199411 3.07534e-24)
(18.0054 0.0215171 3.94363e-25)
(17.9818 0.0252792 -1.41173e-24)
(17.939 0.0531326 -2.69518e-24)
(17.9801 0.00812425 -1.73519e-24)
(17.9778 0.0070924 0)
(17.8839 0.0488162 -7.31499e-24)
(17.8964 0.0357001 0)
(17.8804 0.0591924 2.49201e-25)
(17.9083 0.024606 -1.30394e-24)
(17.9159 0.0150155 -8.63124e-25)
(17.9393 0.00451707 9.93368e-24)
(17.9297 0.00626819 -3.35224e-24)
(17.9246 0.00780327 1.22906e-23)
(17.9462 0.00588925 3.69028e-24)
(17.9502 0.00365617 6.93691e-24)
(17.9561 0.00429705 2.25925e-24)
(17.9634 0.00189726 -1.17951e-24)
(17.9728 0.00227443 0)
(17.9717 0.000148122 6.06866e-26)
(17.9664 0.000431378 2.24149e-24)
(17.9737 0.0039366 0)
(17.9661 0.17492 2.91242e-23)
(18.074 0.166249 0)
(17.9956 0.178502 -3.62095e-23)
(18.1242 0.115601 -4.67046e-23)
(18.096 0.163978 -3.11024e-23)
(18.0606 0.0224828 0)
(18.1112 0.0780773 1.08933e-22)
(17.9114 0.169415 1.09483e-24)
(17.8908 0.148976 4.0855e-23)
(17.8712 0.130495 -9.96107e-24)
(17.8682 0.117236 0)
(17.8664 0.0929191 0)
(17.9383 0.180739 -2.24279e-23)
(17.8728 0.06858 7.87232e-24)
(17.9862 0.0114695 -2.99919e-25)
(17.9899 0.016161 0)
(17.9875 0.0132207 2.60357e-24)
(17.9907 0.0177488 0)
(17.9848 0.00832963 2.03233e-24)
(17.9937 0.0181105 0)
(17.9949 0.0187444 0)
(18.0046 0.0183609 0)
(18.008 0.0161708 -8.83169e-26)
(17.9399 0.0316816 -2.91332e-23)
(17.9822 0.00683295 -1.66956e-24)
(17.9764 0.0041916 0)
(17.8764 0.0447787 -7.13331e-24)
(17.8922 0.0296749 0)
(17.9034 0.0203797 6.38694e-24)
(17.9116 0.0107016 4.71275e-24)
(17.9366 -0.000839747 -5.22494e-24)
(17.9435 0.00341766 -3.72252e-24)
(17.9321 -0.000461467 0)
(17.9203 0.00239838 -1.14103e-23)
(17.9515 -0.000415939 1.55138e-24)
(17.9576 0.000676061 1.23575e-24)
(17.9611 -0.000729184 -6.58711e-25)
(17.975 0.00185188 0)
(17.9734 -0.00258136 -3.78763e-24)
(17.9677 -0.00306842 1.23615e-24)
(17.9826 0.185687 -3.38214e-23)
(18.0218 0.183322 8.5929e-23)
(18.1538 0.131568 9.3214e-24)
(18.1139 0.183816 4.57206e-23)
(18.064 0.0672371 3.52145e-23)
(18.1452 0.0976515 1.14384e-22)
(17.8991 0.181145 0)
(17.8803 0.158008 3.35238e-23)
(17.8575 0.139543 6.90929e-24)
(17.8558 0.117553 4.81849e-24)
(17.8574 0.0952364 -9.95461e-24)
(17.9346 0.202483 -2.58741e-23)
(17.8622 0.0659756 -2.35598e-24)
(17.988 0.00911326 -1.28124e-24)
(17.987 0.0119798 7.26599e-25)
(17.9908 0.014266 -4.28586e-25)
(17.9904 0.0128651 2.90614e-24)
(17.9922 0.0152652 0)
(17.9866 0.00743815 1.54725e-24)
(17.9944 0.0155301 0)
(17.9976 0.0169928 -1.9862e-24)
(18.0014 0.0171843 0)
(18.0041 0.0109444 1.89248e-24)
(17.9413 0.0483118 0)
(18.0013 0.00537822 7.00267e-24)
(17.981 0.00444273 -1.43445e-24)
(17.9784 0.00308422 1.01314e-24)
(17.8674 0.0456702 0)
(17.8777 0.034401 -1.49419e-23)
(17.8835 0.0290846 -1.50434e-23)
(17.8968 0.0211748 0)
(17.9056 0.0125518 5.8189e-24)
(17.9138 0.00407003 1.09027e-23)
(17.9394 -0.00451766 -6.8408e-24)
(17.9444 -0.00178753 -4.56529e-24)
(17.9278 -0.00427936 0)
(17.922 -0.00338944 -1.51075e-23)
(17.9478 -0.00352838 -5.24301e-24)
(17.9551 -0.00204373 0)
(17.9619 -0.00420077 0)
(17.9785 -0.000528695 0)
(17.9705 -0.00435111 -2.78812e-25)
(17.9756 -0.00421191 -2.22451e-24)
(17.965 -0.00517153 1.78778e-24)
(17.9797 0.208414 -6.52138e-23)
(18.0236 0.209868 8.65533e-23)
(18.1487 0.169345 5.30314e-23)
(18.1713 0.119734 -4.01498e-23)
(18.0897 0.211936 3.95886e-23)
(18.1047 0.0803606 5.20692e-23)
(18.153 -0.141545 0)
(18.1647 0.0760185 0)
(17.8992 0.200589 9.81459e-24)
(17.8814 0.177377 1.20382e-23)
(17.8569 0.151637 5.49498e-24)
(17.8484 0.132966 -6.73387e-24)
(17.8515 0.109149 -1.45953e-23)
(17.8495 0.0870743 2.12698e-24)
(17.9187 0.210818 1.99101e-23)
(17.9532 0.216826 -6.46002e-23)
(17.8528 0.0742708 -2.37214e-24)
(17.8605 0.055837 0)
(17.9895 0.00845521 -2.54238e-24)
(17.9896 0.00973497 -2.71624e-24)
(17.9919 0.0139182 -5.00681e-25)
(17.9917 0.0109447 6.25145e-25)
(17.9936 0.015016 0)
(17.9872 0.0056274 1.62187e-24)
(17.9952 0.0142867 -1.35333e-24)
(17.9968 0.0136906 -3.23217e-24)
(18.0027 0.0146287 0)
(18.0031 0.0156114 1.59115e-25)
(17.9528 0.0220783 1.23368e-23)
(18.0094 0.0049388 -2.34692e-25)
(17.9832 0.00292096 3.8495e-25)
(17.9795 0.000853657 5.99577e-25)
(17.8566 0.0335039 1.46665e-23)
(17.8629 0.0282498 -2.88192e-24)
(17.8799 0.018691 0)
(17.8936 0.0131132 1.28698e-23)
(17.8989 0.00712312 -8.85275e-24)
(17.9075 -0.00197565 0)
(17.9386 -0.00857059 -1.98411e-24)
(17.9284 -0.00942636 -2.92897e-25)
(17.9166 -0.00755236 0)
(17.948 -0.00789343 -4.00149e-24)
(17.9562 -0.00580177 -3.60999e-25)
(17.9594 -0.00672221 -3.44982e-25)
(17.9781 -0.00301068 -1.71826e-24)
(17.9804 -0.000380899 0)
(17.9696 -0.00732025 -2.11936e-24)
(17.9741 -0.00706125 -6.73085e-25)
(17.9651 -0.00772764 3.01672e-24)
(17.9993 0.224532 -3.30808e-23)
(18.0443 0.227121 0)
(18.1736 0.187779 0)
(18.2052 0.138129 -2.41787e-23)
(18.1138 0.233407 0)
(18.1249 0.126902 0)
(18.2715 -0.00995703 0)
(18.2149 0.111122 1.40235e-24)
(17.8796 0.215998 -8.81687e-24)
(17.8657 0.181456 9.61096e-24)
(17.8473 0.165615 -1.65486e-23)
(17.8378 0.133977 -1.44762e-23)
(17.839 0.107426 -5.25633e-24)
(17.837 0.095717 1.0573e-23)
(17.9124 0.230192 0)
(17.949 0.23906 -5.15107e-23)
(17.8384 0.0687768 0)
(17.8476 0.0494825 8.50748e-24)
(17.9905 0.00693728 -4.40492e-24)
(17.9912 0.00939015 -1.97094e-24)
(17.9929 0.0126753 3.66192e-25)
(17.9934 0.0110623 -6.32834e-25)
(17.994 0.0128853 9.73569e-25)
(17.9852 0.00382948 2.27336e-24)
(17.9893 0.00564249 -1.85392e-24)
(17.9955 0.0127208 0)
(17.9997 0.0121306 0)
(18.0027 0.0112514 0)
(17.9582 0.0439714 -5.11051e-23)
(18.0012 0.000250409 -1.04821e-23)
(17.9831 0.000317224 -1.34585e-24)
(17.9824 -0.000320621 2.34625e-25)
(17.846 0.0356984 7.70548e-24)
(17.8622 0.0217438 -1.98759e-23)
(17.8857 0.0110009 1.52771e-23)
(17.8723 0.0170598 0)
(17.9 0.000664923 -9.1265e-24)
(17.9093 -0.00774297 3.05022e-24)
(17.9429 -0.0114221 0)
(17.9335 -0.0113913 4.80379e-24)
(17.9229 -0.014052 0)
(17.9169 -0.0130374 0)
(17.952 -0.00918267 -8.9455e-25)
(17.96 -0.0100892 2.42751e-25)
(17.9794 -0.00543651 -1.81917e-24)
(17.9836 -0.00263821 -4.95661e-25)
(17.9676 -0.00867617 8.0588e-25)
(17.9716 -0.00838599 -1.20393e-24)
(17.9763 -0.00781711 -2.4675e-24)
(17.9632 -0.0104255 -2.43812e-26)
(17.9962 0.250009 -1.08706e-23)
(18.0403 0.264166 0)
(18.2104 0.1694 0)
(18.1592 0.219793 0)
(18.1033 0.269133 1.46235e-23)
(18.1497 0.131558 0)
(18.3192 -0.166843 0)
(18.2312 0.0967695 -6.51494e-23)
(17.8606 0.212208 -5.32373e-26)
(17.8864 0.231918 0)
(17.8565 0.195969 0)
(17.8311 0.167507 -2.11765e-23)
(17.8282 0.141883 -2.2615e-23)
(17.831 0.118526 0)
(17.8265 0.0908379 -3.95996e-25)
(17.925 0.245195 0)
(17.9668 0.257469 -1.74617e-23)
(17.8275 0.0780171 -2.01355e-23)
(17.8369 0.056614 6.53187e-25)
(17.9919 0.00660053 8.95959e-25)
(17.9926 0.00753749 1.1937e-24)
(17.9948 0.00952474 0)
(17.995 0.0119141 -6.36432e-26)
(17.9865 0.00188923 1.30218e-24)
(17.9897 0.00423353 4.68394e-25)
(17.9964 0.0113286 1.42615e-25)
(17.9989 0.00972602 4.58115e-25)
(18.0015 0.00811143 -1.10084e-25)
(17.9698 0.0195342 -1.99981e-23)
(18.0105 0.00430514 1.2842e-23)
(17.9858 -0.000791004 -2.58865e-24)
(17.9849 -0.00226729 -7.61267e-27)
(17.8363 0.0277865 6.63304e-24)
(17.8594 0.0154611 2.76738e-24)
(17.8798 0.00287107 -2.50273e-23)
(17.8655 0.00770978 -1.24823e-23)
(17.8917 -0.00429707 0)
(17.9019 -0.0133194 9.52742e-24)
(17.9414 -0.0166337 4.39928e-25)
(17.933 -0.0166373 3.55292e-24)
(17.9229 -0.0194721 -4.31285e-24)
(17.9097 -0.0196388 -9.17466e-24)
(17.9515 -0.0132513 0)
(17.9559 -0.0140248 -2.74772e-24)
(17.9815 -0.00507518 -4.90247e-25)
(17.9672 -0.0117299 0)
(17.971 -0.0106059 -2.09529e-25)
(17.9753 -0.00984638 -1.23005e-24)
(17.9644 -0.0128349 -8.92474e-25)
(18.0161 0.274521 -1.08361e-23)
(18.0607 0.284991 1.24514e-23)
(18.2357 0.182029 0)
(18.1906 0.240937 4.30771e-23)
(18.1308 0.293908 0)
(18.1433 0.0880233 -1.62459e-22)
(18.4315 -0.0308645 -4.45547e-23)
(18.2922 0.132885 -5.54973e-23)
(17.8474 0.232848 1.19196e-23)
(17.8773 0.250871 0)
(17.8298 0.188933 -6.20746e-24)
(17.825 0.1589 -1.73417e-23)
(17.8087 0.130974 8.6903e-24)
(17.815 0.116014 -2.80446e-24)
(17.8146 0.103839 -3.53193e-24)
(17.9142 0.267356 1.3585e-25)
(17.9569 0.281129 1.22238e-23)
(17.8134 0.071164 -1.05072e-23)
(17.8208 0.0462442 -8.93361e-24)
(17.9927 0.00503035 0)
(17.9942 0.00684211 0)
(17.9956 0.00786706 0)
(17.9958 0.00956 2.3352e-24)
(17.9958 0.00999888 0)
(17.9886 0.00247019 -1.387e-24)
(17.9873 -3.86664e-05 -1.366e-24)
(17.9917 0.00428043 4.16782e-25)
(17.9971 0.00902044 0)
(17.9971 0.0105801 7.04272e-25)
(17.9995 0.00744295 1.09424e-24)
(18.003 0.00793389 1.74169e-24)
(17.9796 0.0407252 -7.84809e-23)
(18.0021 -0.00768748 0)
(18.0034 -0.00182358 2.74697e-24)
(17.988 -0.00267475 3.1563e-25)
(17.9868 -0.00351833 0)
(17.8397 0.0160904 1.84457e-23)
(17.8208 0.0328084 -5.76894e-24)
(17.85 0.0120033 1.742e-23)
(17.8833 -0.00353188 -2.6315e-23)
(17.8698 0.00395871 -1.81228e-23)
(17.8901 -0.0122706 -2.81107e-24)
(17.9031 -0.0196642 7.89013e-24)
(17.8946 -0.0154364 -3.70407e-24)
(17.9456 -0.0180433 3.26256e-25)
(17.9374 -0.0189556 -1.70638e-24)
(17.9287 -0.0200815 5.06344e-24)
(17.9173 -0.0257685 1.00567e-23)
(17.9104 -0.0263364 -8.19088e-24)
(17.9559 -0.0170784 -4.34444e-24)
(17.9822 -0.00672302 0)
(17.9691 -0.0126923 -2.84202e-24)
(17.9733 -0.0114473 2.07882e-25)
(17.978 -0.0106926 2.48198e-24)
(17.961 -0.0165245 4.39349e-24)
(18.0134 0.298505 1.47998e-23)
(18.065 0.321194 -1.34659e-23)
(18.2809 0.159306 0)
(18.2283 0.22339 0)
(18.1832 0.277426 6.17293e-24)
(18.1276 0.324946 0)
(18.1973 0.063282 2.26228e-25)
(18.278 0.0854608 0)
(18.463 -0.286975 0)
(17.8233 0.233912 2.3128e-23)
(17.8572 0.250607 5.55126e-24)
(17.8883 0.269763 1.37021e-25)
(17.8174 0.196103 7.45383e-24)
(17.8095 0.165724 0)
(17.7931 0.136169 1.12738e-23)
(17.8017 0.0987612 0)
(17.9274 0.285506 1.89804e-24)
(17.9719 0.301469 9.84422e-24)
(17.802 0.0811965 0)
(17.8088 0.0544561 0)
(17.9939 0.00494089 2.67201e-24)
(17.9968 0.00674572 1.51034e-24)
(17.9972 0.00744771 3.5405e-24)
(17.9969 0.00880095 -2.17973e-24)
(17.9899 0.00138966 -5.68886e-24)
(17.9901 -0.00143043 -2.25841e-24)
(17.9919 0.00264897 0)
(17.9975 0.0076315 0)
(17.9976 0.00735026 0)
(17.9988 0.00740209 0)
(17.9996 0.00588781 1.12831e-24)
(18.0009 -0.00301141 6.09399e-24)
(18.0016 6.36147e-05 0)
(18.0005 0.00741932 -1.26766e-24)
(17.9898 -0.00370985 2.06137e-24)
(17.985 -0.00555291 0)
(17.8271 0.00685978 -9.88109e-24)
(17.808 0.0198794 -5.79467e-24)
(17.8472 0.00084309 0)
(17.8757 -0.0122689 -1.13589e-23)
(17.8628 -0.00475702 -1.40205e-23)
(17.8803 -0.017564 -1.23909e-23)
(17.8963 -0.0259524 9.4368e-24)
(17.8909 -0.0238748 0)
(17.9464 -0.0216533 0)
(17.9357 -0.0232045 1.01968e-24)
(17.9302 -0.0239819 4.55734e-24)
(17.9197 -0.030399 1.4988e-23)
(17.9059 -0.0321 0)
(17.952 -0.0207199 1.28652e-24)
(17.9802 -0.00881727 5.74122e-25)
(17.9699 -0.0153248 -2.77166e-24)
(17.9745 -0.0133283 3.84828e-25)
(17.9776 -0.0132219 -5.32633e-25)
(17.9612 -0.0201202 3.45511e-24)
(18.0177 0.327099 1.2535e-23)
(18.0433 0.337408 0)
(18.0892 0.337642 9.28502e-24)
(18.3027 0.188102 0)
(18.2686 0.227545 0)
(18.2088 0.302583 -3.59828e-23)
(18.1498 0.352929 0)
(18.2426 0.115395 8.05465e-23)
(18.3564 0.128605 -1.06669e-22)
(18.5107 -0.225862 6.41439e-25)
(17.8107 0.254459 6.10265e-24)
(17.8117 0.216806 2.77384e-23)
(17.8483 0.27532 -6.48781e-24)
(17.8802 0.288383 -8.35608e-24)
(17.8049 0.184977 0)
(17.7886 0.152421 1.1244e-24)
(17.7845 0.128433 -8.6217e-24)
(17.7899 0.107985 -9.92998e-24)
(17.9152 0.310893 -1.82366e-23)
(17.9564 0.327035 -1.16156e-23)
(17.789 0.0761051 1.52582e-24)
(17.7941 0.0496788 1.08557e-23)
(17.9945 0.00423285 2.88981e-24)
(17.9976 0.00558299 0)
(17.9979 0.00670038 -2.67875e-25)
(17.9978 0.00713369 -2.22659e-24)
(17.9907 0.000285989 -5.87958e-24)
(17.9908 -0.00296307 1.80026e-24)
(17.9914 -0.000700182 -6.1945e-24)
(17.9932 0.00252552 0)
(17.9979 0.00641873 7.86212e-25)
(17.9979 0.0066593 0)
(17.9996 0.00651059 0)
(18.0015 0.00513531 3.24783e-25)
(17.9999 0.00227107 1.05587e-24)
(17.9878 -0.00552278 -1.49771e-25)
(17.9854 -0.00676084 0)
(17.8274 -0.00486292 -1.22163e-23)
(17.8136 0.00650418 4.90303e-24)
(17.7958 0.0243552 0)
(17.8378 -0.00617295 -1.56671e-23)
(17.8542 -0.00539981 -6.16316e-24)
(17.8666 -0.0137113 3.76621e-24)
(17.8794 -0.0225782 2.26699e-24)
(17.8978 -0.0309414 1.79651e-23)
(17.8854 -0.0262201 0)
(17.946 -0.024285 -4.32738e-24)
(17.9378 -0.0273358 4.5389e-24)
(17.927 -0.0284045 0)
(17.9192 -0.0370208 1.68692e-24)
(17.9074 -0.038823 -1.99066e-24)
(17.9532 -0.0242924 2.96655e-24)
(17.9816 -0.00982185 7.51544e-25)
(17.9723 -0.0158301 -8.40631e-25)
(17.9654 -0.0195749 -3.83718e-24)
(17.976 -0.0140804 0)
(17.9788 -0.0143932 0)
(17.9573 -0.024126 -3.40443e-24)
(17.9777 0.34433 -1.26448e-23)
(18.0395 0.379838 2.75408e-23)
(18.0935 0.37503 3.93655e-23)
(18.3573 0.181996 0)
(18.2884 0.272183 0)
(18.1836 0.347097 0)
(18.2561 0.304638 0)
(18.1294 0.378549 1.59665e-23)
(18.2607 0.046376 8.97945e-23)
(18.3739 0.0755178 -5.47222e-23)
(18.5772 0.087499 -6.06132e-22)
(17.8212 0.27618 5.98459e-24)
(17.7872 0.255326 0)
(17.7902 0.218391 6.78274e-24)
(17.8581 0.291663 2.55013e-25)
(17.8896 0.311943 3.16685e-25)
(17.7885 0.185501 0)
(17.7765 0.165665 1.42697e-24)
(17.7669 0.126917 -9.44078e-24)
(17.7713 0.0962594 0)
(17.9281 0.33037 -1.868e-23)
(17.7733 0.0824963 0)
(17.7845 0.0596516 1.21052e-23)
(17.7905 0.0395321 -1.11055e-23)
(17.9959 0.00443392 2.23748e-24)
(17.9984 0.00508314 0)
(17.9989 0.00524899 0)
(17.9984 0.00618361 8.1746e-25)
(17.9929 -0.000311775 -1.98923e-24)
(17.9916 -0.00394247 2.0605e-24)
(17.9934 -0.00235832 -2.57595e-24)
(17.9937 0.0016655 0)
(17.9984 0.00512197 0)
(17.9979 0.00530836 0)
(18.0001 0.005049 0)
(18.0005 0.00169673 -1.28821e-24)
(18.0001 6.11934e-06 0)
(17.9888 -0.00594745 -2.7571e-25)
(17.9835 -0.00825919 0)
(17.8166 -0.0162023 2.51497e-24)
(17.8027 -0.00401564 1.94502e-23)
(17.7792 0.0123081 1.98127e-23)
(17.8382 -0.0161478 -1.70932e-23)
(17.8487 -0.0155987 3.06616e-24)
(17.8618 -0.0219597 3.40235e-23)
(17.8738 -0.0267204 2.76709e-24)
(17.8948 -0.0375127 -3.15467e-25)
(17.8823 -0.0339269 -1.35926e-24)
(17.9426 -0.0282203 -3.36669e-24)
(17.9504 -0.0274269 0)
(17.9353 -0.0321415 -7.57794e-25)
(17.9297 -0.0326575 0)
(17.9134 -0.0413254 -5.12018e-25)
(17.9258 -0.0395993 -5.76351e-24)
(17.9005 -0.0433459 -1.07712e-23)
(17.9826 -0.0117831 1.23587e-24)
(17.9725 -0.0174195 -5.73915e-25)
(17.9656 -0.022102 -3.68492e-24)
(17.9753 -0.016499 7.64308e-26)
(17.9807 -0.0140488 0)
(17.9769 -0.0171916 6.60576e-25)
(17.9583 -0.0284002 -1.5638e-24)
(17.9717 0.375268 0)
(18.0707 0.393157 2.60701e-23)
(17.9971 0.396867 0)
(18.3829 0.231718 -1.06932e-23)
(18.3464 0.273547 -8.30287e-23)
(18.2043 0.368062 7.83495e-24)
(18.2584 0.338487 1.02251e-23)
(18.1442 0.414742 0)
(18.2882 0.20425 1.74774e-22)
(18.4673 0.138468 1.61715e-23)
(18.7554 -0.25001 3.71171e-22)
(17.8097 0.295143 5.58489e-24)
(17.7781 0.237326 -1.72036e-25)
(17.7743 0.276337 2.65029e-25)
(17.7806 0.202363 4.10526e-25)
(17.8551 0.317523 -3.36865e-24)
(17.8766 0.328286 5.5636e-24)
(17.764 0.167732 -3.97014e-24)