/*--------------------------------*- C++ -*----------------------------------*\
| =========                 |                                                 |
| \\      /  F ield         | OpenFOAM: The Open Source CFD Toolbox           |
|  \\    /   O peration     | Version:  v2012                                 |
|   \\  /    A nd           | Website:  www.openfoam.com                      |
|    \\/     M anipulation  |                                                 |
\*---------------------------------------------------------------------------*/
FoamFile
{
    version     2.0;
    format      ascii;
    class       surfaceVectorField;
    location    "3";
    object      Uf;
}
// * * * * * * * * * * * * * * * * * * * * * * * * * * * * * * * * * * * * * //

dimensions      [0 1 -1 0 0 0 0];


internalField   nonuniform List<vector> 
43406
(
(17.8773 0.0849817 -2.8428e-20)
(17.8232 0.060384 -2.69124e-23)
(17.921 0.0744313 4.31402e-25)
(17.8901 0.0846093 3.29197e-21)
(17.8327 0.0443319 2.41982e-24)
(17.869 0.0443499 1.91415e-22)
(17.9417 0.0494353 -1.79447e-24)
(17.9621 0.0632686 5.1491e-21)
(17.8518 0.0980577 -3.5666e-24)
(17.9078 0.0639501 -4.21738e-21)
(17.8048 0.0483842 -1.23778e-23)
(17.9434 0.0476608 2.74068e-24)
(17.9751 0.0676617 -6.17498e-24)
(17.9947 0.0553983 -8.12304e-24)
(17.8878 0.124598 0)
(17.9507 0.0645535 -2.69995e-24)
(17.9329 0.0651582 -4.99147e-24)
(17.8527 0.0415942 -1.10781e-23)
(17.8103 0.0461062 1.62447e-20)
(17.9282 0.0438219 1.83141e-24)
(17.9889 0.0489062 -4.79383e-22)
(17.9909 0.0641527 -9.58062e-25)
(17.9994 0.0463777 -3.6108e-24)
(18.0043 0.0470466 -4.37395e-22)
(17.8341 0.113693 6.71972e-24)
(17.8901 0.0700578 1.30116e-23)
(17.9377 0.0673161 9.24411e-21)
(17.9614 0.0737813 -1.401e-22)
(17.9271 0.0355269 2.10976e-21)
(17.7809 0.0482248 -4.85294e-25)
(18.0103 0.0454711 1.73822e-24)
(18.0108 0.04443 -1.10382e-24)
(17.9875 0.0680605 -3.13531e-24)
(17.9978 0.0634194 -1.17476e-22)
(17.9901 0.0502538 -3.95062e-24)
(17.9789 0.0488852 1.8125e-21)
(17.9973 0.0462436 6.34478e-22)
(17.8857 0.114224 3.28791e-20)
(17.9341 0.0618418 1.219e-23)
(17.9833 0.0769675 1.17294e-21)
(17.9766 0.0399053 -4.63773e-24)
(17.9205 0.0333765 -5.75442e-24)
(17.8378 0.0399395 1.01971e-22)
(17.7987 0.054802 -1.22176e-24)
(18.0109 0.0419922 -2.97495e-25)
(18.0045 0.0426228 -1.3753e-23)
(17.9938 0.0572669 -1.0677e-24)
(17.9888 0.0639709 7.22088e-24)
(17.9782 0.0565066 -7.05882e-22)
(17.9686 0.0512489 -3.51345e-24)
(17.9735 0.0480242 -1.17284e-22)
(17.9942 0.0433092 4.50242e-23)
(17.9839 0.0454539 3.27296e-24)
(17.8929 0.0827422 -2.43455e-21)
(17.8497 0.100697 -7.68305e-24)
(17.9764 0.0758789 5.13584e-24)
(17.9614 0.0672169 0)
(17.989 0.0739668 -4.45371e-21)
(18.0103 0.0390598 0)
(17.9269 0.0404119 6.97644e-25)
(17.771 0.0555462 0)
(17.9944 0.0414 2.67121e-24)
(17.9878 0.0696953 2.34241e-21)
(17.9777 0.0660274 -2.75131e-23)
(17.9647 0.0547109 -3.57659e-24)
(17.9672 0.0589544 1.45691e-24)
(17.9651 0.0515051 4.59438e-22)
(17.9659 0.0475721 -2.47321e-24)
(17.9751 0.0458873 3.21919e-25)
(17.971 0.044683 -2.17931e-25)
(17.9744 0.0429736 1.3757e-24)
(17.9464 0.0734058 1.04983e-23)
(17.9185 0.0704452 8.87871e-24)
(17.9072 0.0894399 0)
(17.9733 0.0734268 5.04188e-24)
(17.985 0.0731448 1.13138e-21)
(18.011 0.0373266 0)
(18.0073 0.037541 -5.67534e-25)
(17.9762 0.0397356 1.38615e-24)
(17.9272 0.0437425 -3.582e-21)
(17.8549 0.0439819 -1.60481e-24)
(17.8003 0.0545532 0)
(17.994 0.0394509 -5.19914e-25)
(17.9836 0.0399369 4.65434e-25)
(17.9663 0.0635122 -5.55745e-22)
(17.9662 0.0678145 1.18981e-24)
(17.9605 0.0525455 -2.46408e-24)
(17.9605 0.0600373 -7.51146e-24)
(17.9671 0.0440242 -5.88888e-25)
(17.9644 0.0446258 0)
(17.9683 0.0426497 -2.83503e-23)
(17.9739 0.0402891 1.83744e-24)
(17.9706 0.0411084 -2.39353e-23)
(17.947 0.0762208 6.21572e-25)
(17.9215 0.0712172 0)
(17.8984 0.0804915 0)
(17.8948 0.0900626 0)
(17.973 0.0770272 -1.53478e-21)
(17.9834 0.0737591 -4.41611e-23)
(17.9843 0.0732693 -4.91327e-22)
(17.9751 0.0718633 -2.08906e-25)
(18.0129 0.0359583 -1.96559e-24)
(17.9936 0.036427 6.47484e-22)
(17.9597 0.0398711 -8.62467e-21)
(17.7775 0.0502764 1.47249e-24)
(17.974 0.0380959 -1.62352e-22)
(17.9648 0.0703604 0)
(17.9592 0.06817 -9.68653e-25)
(17.9576 0.0531053 -3.36211e-24)
(17.9594 0.0492077 0)
(17.9571 0.0571601 -1.20991e-24)
(17.9561 0.0611734 3.54822e-25)
(17.9613 0.046102 0)
(17.9629 0.0422019 -8.41301e-25)
(17.9684 0.0400846 1.71327e-24)
(17.9728 0.080126 5.92812e-24)
(17.9092 0.0728271 9.3036e-25)
(17.9396 0.073395 1.26071e-23)
(17.9848 0.0752541 -1.1436e-24)
(17.9652 0.0735164 0)
(18.0095 0.0303953 3.53481e-21)
(18.0115 0.034276 -1.8316e-24)
(17.9832 0.0357017 1.2346e-22)
(17.9929 0.0346391 -3.15146e-22)
(17.9918 0.026524 5.41209e-24)
(17.875 0.0324723 -6.17219e-22)
(17.7849 0.0475966 1.23728e-20)
(17.9746 0.0358176 3.14525e-25)
(17.9714 0.0364535 2.60003e-23)
(17.956 0.0650794 4.21592e-22)
(17.9543 0.0685096 -8.26809e-25)
(17.9547 0.054637 1.58932e-22)
(17.9581 0.0466241 0)
(17.9527 0.0625348 -1.27364e-24)
(17.9612 0.04108 -1.26452e-22)
(17.964 0.0399017 1.9729e-22)
(17.9696 0.0369648 1.1338e-24)
(17.967 0.0379002 1.08732e-22)
(17.983 0.0767241 5.83741e-24)
(17.9686 0.0783846 -4.88908e-22)
(17.9371 0.0752978 -4.72961e-23)
(17.9122 0.0677372 9.65664e-24)
(17.9112 0.0593869 1.04032e-22)
(17.9158 0.0823238 1.35731e-23)
(17.9871 0.0773112 0)
(17.9788 0.077462 0)
(17.9678 0.0776306 0)
(17.9594 0.0774512 0)
(17.9996 0.0342379 1.75497e-24)
(18.0043 0.0328945 1.1392e-22)
(17.9745 0.0337703 6.61054e-23)
(17.9862 0.0324363 -8.68777e-23)
(17.9815 0.0222533 1.94817e-24)
(18 0.0293162 -8.15658e-25)
(17.9794 0.02186 -6.84592e-22)
(17.7626 0.0430479 1.7067e-23)
(17.9708 0.0341466 -1.90377e-25)
(17.9523 0.0713548 0)
(17.9502 0.0676454 0)
(17.9516 0.056524 -1.19905e-22)
(17.9526 0.0525745 -2.06664e-24)
(17.9553 0.04634 -2.75706e-25)
(17.9573 0.0438157 3.14478e-24)
(17.9486 0.0643115 0)
(17.9497 0.0602098 1.69483e-24)
(17.9588 0.0404051 -2.95299e-22)
(17.9597 0.0382753 -4.70229e-22)
(17.9644 0.0378659 7.36384e-26)
(17.9626 0.0371184 -9.30641e-25)
(17.9662 0.0342757 5.30292e-24)
(17.9877 0.0781439 0)
(17.9697 0.0802954 1.03585e-22)
(17.9244 0.0649751 9.73276e-24)
(17.9692 0.110261 0)
(17.9703 0.0810725 1.0799e-24)
(17.954 0.0755831 0)
(17.9545 0.0796686 0)
(18.0038 0.0301682 -6.51793e-25)
(17.9933 0.030634 3.38607e-24)
(17.9758 0.0316389 7.35401e-25)
(17.9725 0.0320794 -3.39082e-25)
(17.9803 0.0306822 3.94908e-24)
(18.0026 0.0278406 -5.74845e-22)
(17.9632 0.017421 2.39723e-24)
(18.0034 0.0275528 3.79016e-24)
(17.8569 0.0221156 2.52087e-22)
(17.7835 0.0411763 -1.96143e-20)
(17.9723 0.032095 -4.71163e-25)
(17.9706 0.0320824 -5.91968e-23)
(17.9483 0.074458 -4.97234e-25)
(17.9464 0.0663329 2.86056e-24)
(17.9474 0.0576063 -5.09915e-24)
(17.953 0.0482889 8.08968e-24)
(17.9491 0.0504237 1.00613e-24)
(17.9532 0.0444988 2.4683e-23)
(17.9562 0.0403825 3.19048e-24)
(17.9612 0.0359181 -5.03407e-25)
(17.9684 0.0314596 1.45986e-22)
(17.9662 0.031144 5.44785e-24)
(17.9858 0.0830733 -7.25575e-26)
(17.9902 0.0835124 8.92742e-24)
(17.965 0.0794027 1.37529e-23)
(17.9839 0.0829441 -2.33763e-21)
(17.9525 0.0709221 0)
(17.9444 0.0879228 0)
(17.9471 0.0930357 -7.64285e-23)
(17.9754 0.083508 -5.56451e-22)
(17.9652 0.0840454 7.41409e-24)
(17.952 0.083149 -1.87381e-24)
(17.9472 0.0806956 -5.46678e-24)
(17.9807 0.0293225 -3.92316e-22)
(17.9731 0.0305906 0)
(18.0111 0.0261859 5.78772e-25)
(17.9928 0.0256097 -7.03825e-25)
(17.9649 0.0144002 -1.21666e-24)
(18.0112 0.02563 2.81263e-21)
(17.7622 0.0462524 2.21733e-20)
(17.9705 0.0289744 -7.87028e-25)
(17.9452 0.0772648 -7.6945e-23)
(17.9448 0.0728801 1.11184e-22)
(17.9433 0.0696407 8.96028e-23)
(17.942 0.0658497 -1.8443e-24)
(17.9452 0.0528755 2.36015e-22)
(17.9433 0.0564575 6.17574e-22)
(17.9459 0.04886 8.17088e-23)
(17.9538 0.0411819 -2.47724e-24)
(17.951 0.0423471 1.32386e-22)
(17.9555 0.0379753 9.67859e-25)
(17.9626 0.0325673 0)
(17.96 0.0342235 1.36545e-24)
(17.9642 0.0304854 -8.33117e-26)
(17.9664 0.0280564 -1.10555e-22)
(17.9803 0.0864506 7.38352e-24)
(17.9887 0.0846646 9.09894e-24)
(17.9485 0.081955 0)
(17.9567 0.0483473 -6.73638e-23)
(17.8976 0.0924698 7.95741e-20)
(17.9563 0.0854579 -1.13333e-22)
(17.961 0.0878718 -1.17168e-24)
(17.9487 0.0873396 1.70934e-23)
(17.9426 0.0806003 -1.55888e-22)
(17.9797 0.0274077 5.80593e-22)
(17.9767 0.0291041 -2.43134e-22)
(17.9749 0.0291952 -6.26344e-25)
(17.9735 0.0282611 -3.56129e-24)
(17.981 0.0263217 -4.22906e-25)
(17.9858 0.0239927 -5.34468e-23)
(17.9562 0.0119053 -5.77085e-24)
(17.9969 0.0200491 5.83806e-23)
(18.0006 0.0236202 -4.07647e-24)
(18.0127 0.0238119 1.59001e-24)
(17.8699 0.0175024 -3.91661e-23)
(17.8164 0.0608847 3.8618e-20)
(17.9722 0.026969 8.6845e-23)
(17.9705 0.0265142 -1.52761e-23)
(17.9417 0.0734778 -2.08101e-22)
(17.941 0.0613886 -1.45759e-23)
(17.9367 0.0647185 -4.23762e-22)
(17.9384 0.05571 -1.91595e-23)
(17.9471 0.0444326 -2.98463e-24)
(17.9429 0.0463138 3.12627e-25)
(17.9485 0.0399771 2.95719e-22)
(17.958 0.0348525 -8.79391e-23)
(17.9548 0.0348637 9.33969e-25)
(17.9622 0.02919 0)
(17.9591 0.0316482 -3.73329e-23)
(17.9686 0.0260404 -9.21014e-25)
(17.9667 0.0252284 -1.09405e-24)
(17.9698 0.0898918 3.95632e-22)
(17.9795 0.0908244 5.24921e-22)
(17.9773 0.0805814 0)
(17.9979 0.0804115 0)
(17.9607 0.0840943 0)
(17.9664 0.0668702 0)
(17.9775 0.0487639 -6.44018e-24)
(17.9171 0.123232 -1.85131e-20)
(17.96 0.0921356 3.31208e-22)
(17.9452 0.0916903 -1.71732e-22)
(17.9421 0.0884992 8.91579e-23)
(17.9412 0.0785599 -1.16785e-23)
(17.9408 0.0836588 2.22015e-23)
(17.9799 0.0253392 -6.30812e-22)
(17.9767 0.0268735 -6.05248e-25)
(17.9738 0.0258259 2.52347e-24)
(17.9863 0.0236591 -7.22708e-22)
(17.9782 0.0118186 -1.276e-20)
(18.0095 0.0204003 1.76689e-21)
(17.7897 0.076518 4.7381e-20)
(17.9705 0.0242209 -3.33893e-25)
(17.9383 0.0754954 -1.08626e-22)
(17.9318 0.0616667 -4.68917e-24)
(17.932 0.0674071 8.31882e-25)
(17.9326 0.056324 3.67159e-24)
(17.9358 0.0513841 9.11127e-23)
(17.9385 0.0470031 3.58055e-24)
(17.9395 0.0423353 0)
(17.9456 0.0379385 6.11735e-22)
(17.9499 0.0365085 2.48637e-24)
(17.9521 0.0337292 0)
(17.9543 0.0309456 2.11637e-24)
(17.9598 0.0284617 2.40609e-24)
(17.9618 0.0262516 7.30955e-25)
(17.9574 0.0287544 -2.56849e-22)
(17.9645 0.0243913 1.43831e-25)
(17.9667 0.0225543 -2.65803e-23)
(17.9909 0.0904068 4.57078e-24)
(17.9787 0.0962859 2.71602e-24)
(18.005 0.0842645 0)
(17.9817 0.0843285 0)
(18.0048 0.053282 -4.42216e-23)
(17.9872 0.0750211 -6.50448e-21)
(17.9458 0.0455297 1.19447e-20)
(17.8387 0.0718672 -3.23648e-23)
(17.952 0.0950233 -9.85052e-24)
(17.9593 0.0972725 -1.29339e-22)
(17.9444 0.097481 -3.30682e-24)
(17.937 0.0876957 2.21843e-25)
(17.9791 0.0241424 2.00534e-22)
(17.9805 0.0240315 -1.58018e-24)
(17.9758 0.0250451 1.74394e-25)
(17.9775 0.0245817 -2.95615e-24)
(17.9744 0.024017 1.94608e-25)
(17.9827 0.0239227 -1.24504e-24)
(17.9857 0.0220704 6.97045e-25)
(18.0054 0.0121487 9.73721e-24)
(17.9896 0.00315759 8.39127e-24)
(17.9992 0.019313 1.85724e-24)
(17.8578 0.10829 2.7221e-20)
(17.8856 0.0169735 -9.25826e-23)
(17.9721 0.0226981 4.63724e-27)
(17.9704 0.0219681 7.32002e-25)
(17.9336 0.0732876 2.78062e-22)
(17.9338 0.0786319 2.70096e-22)
(17.9274 0.0581701 0)
(17.9271 0.0706658 -4.60024e-22)
(17.9329 0.0466721 8.55546e-24)
(17.9417 0.0379707 2.27687e-24)
(17.9365 0.0380885 0)
(17.943 0.0340411 -4.1464e-25)
(17.9491 0.0323371 -2.79456e-24)
(17.9548 0.0277152 6.9892e-24)
(17.9619 0.0233934 -1.68178e-22)
(17.969 0.0206095 -5.71748e-25)
(17.9669 0.0196498 -1.15728e-24)
(17.9683 0.0983819 1.88309e-24)
(17.9768 0.102037 -2.08152e-24)
(18.006 0.0888764 0)
(18.0071 0.0910173 0)
(17.9973 0.0844856 0)
(17.9947 0.0145644 -8.52695e-22)
(17.9947 0.0779164 -8.62598e-24)
(17.9932 0.0813167 -8.19281e-24)
(17.8795 0.0378464 0)
(17.9587 0.102965 2.86708e-24)
(17.9378 0.100227 -4.90107e-24)
(17.945 0.103998 -5.53916e-25)
(17.9326 0.0838398 -3.87051e-24)
(17.9326 0.0901051 8.0134e-25)
(17.9778 0.0229573 -5.03197e-23)
(17.9819 0.0235976 -2.57703e-23)
(17.9809 0.0222416 -4.99108e-24)
(17.9736 0.0227057 0)
(17.9753 0.0222316 9.69516e-25)
(17.9828 0.0229036 -1.75472e-24)
(17.9868 0.0213128 9.94929e-25)
(17.9601 -0.00469527 0)
(17.9859 0.0206558 5.20944e-24)
(17.8524 0.0784233 3.78819e-23)
(17.9631 0.00343245 0)
(17.9733 0.0208902 -1.26945e-26)
(17.9705 0.0195739 5.0591e-27)
(17.9278 0.0808739 -3.46576e-24)
(17.9218 0.0592274 0)
(17.9238 0.0540731 3.09518e-25)
(17.9231 0.0751129 5.66856e-24)
(17.9207 0.0698171 6.73844e-24)
(17.9305 0.0424113 4.64085e-24)
(17.9282 0.0462213 2.74466e-22)
(17.9314 0.0374172 0)
(17.9342 0.0327698 0)
(17.9456 0.0312665 2.99965e-22)
(17.9417 0.0307915 5.62291e-23)
(17.9484 0.0290335 -9.44749e-25)
(17.9514 0.026778 -8.3156e-24)
(17.9546 0.0243031 -1.48457e-22)
(17.9628 0.0207801 5.73408e-25)
(17.9596 0.0221331 6.07917e-25)
(17.9647 0.0188415 -4.1743e-25)
(17.9671 0.0169357 1.48137e-22)
(17.9882 0.102358 -1.28048e-23)
(17.972 0.107955 -9.45473e-23)
(18.0065 0.100801 0)
(18.0115 0.0859641 5.77805e-24)
(17.9526 0.0284982 4.3691e-24)
(18.0154 0.0326546 9.5679e-21)
(18.0059 0.0607948 7.48033e-24)
(18.01 0.0773901 -7.42261e-24)
(17.8869 0.0388305 -2.43615e-23)
(17.9524 0.107374 0)
(17.9607 0.108219 -1.04833e-23)
(17.9306 0.0963582 3.09529e-25)
(17.9293 0.104186 -4.5347e-25)
(17.9468 0.111828 0)
(17.9236 0.0925178 1.01076e-22)
(17.9768 0.0217529 -1.54061e-25)
(17.9783 0.0212951 3.92276e-24)
(17.98 0.020742 -4.25659e-23)
(17.9815 0.0204987 -8.25315e-25)
(17.9765 0.0202788 -1.53107e-23)
(17.9829 0.021387 2.20459e-24)
(17.984 0.0223402 0)
(17.9852 0.0222392 9.76952e-25)
(17.9869 0.023393 -3.27376e-21)
(17.9907 0.0280059 4.28447e-24)
(17.9841 0.0346147 -8.48398e-22)
(17.9423 0.0262814 0)
(17.9212 0.0609919 0)
(17.9698 0.0312858 -2.54914e-24)
(17.9726 0.0191476 -1.22294e-26)
(17.9743 0.0190458 -4.54905e-25)
(17.9717 0.0176399 -9.6275e-25)
(17.921 0.080677 -2.169e-25)
(17.9178 0.0633259 0)
(17.9154 0.0583596 2.54797e-24)
(17.9252 0.0492275 -1.81045e-22)
(17.9193 0.0508032 -2.3784e-22)
(17.9132 0.069454 -4.86353e-24)
(17.9272 0.0375496 5.76404e-25)
(17.9236 0.0437854 6.27609e-24)
(17.9379 0.0295101 2.92535e-25)
(17.9336 0.0285139 -8.72418e-24)
(17.9411 0.0266537 2.59342e-24)
(17.948 0.0253562 4.60111e-24)
(17.9569 0.0216794 2.83293e-24)
(17.9534 0.0205914 4.51024e-23)
(17.9626 0.0176016 -1.51776e-24)
(17.9579 0.0188908 -7.8799e-25)
(17.9663 0.0139088 8.14829e-25)
(17.9692 0.0150486 -1.56482e-23)
(17.9664 0.113702 -1.09001e-23)
(18.0187 0.099915 6.22764e-24)
(18.0136 0.109765 0)
(18.0269 0.0929409 -2.51703e-22)
(18.0391 0.0493845 2.90624e-23)
(18.0245 0.0870118 -3.29116e-22)
(18.0231 0.082086 -1.81758e-23)
(17.9272 0.0472004 1.62494e-21)
(17.9315 0.11176 0)
(17.9231 0.107639 0)
(17.9391 0.115313 0)
(17.9482 0.120975 -3.98095e-24)
(17.9177 0.0871813 5.8081e-25)
(17.9149 0.0932772 9.23924e-24)
(17.9794 0.0193508 -1.89765e-24)
(17.9829 0.0194853 3.1407e-23)
(17.9759 0.0187407 9.02979e-25)
(17.9776 0.0183758 4.41169e-24)
(17.9837 0.0228141 -7.6195e-25)
(17.9932 0.0228511 -1.2754e-24)
(17.982 0.0245375 -3.38387e-24)
(17.9584 0.0465567 -2.9957e-24)
(17.9359 0.0785998 1.438e-23)
(17.9756 0.0171114 -1.19604e-24)
(17.9712 0.0159685 -2.25331e-22)
(17.9734 0.015789 -1.87595e-24)
(17.9132 0.0812424 2.42034e-23)
(17.914 0.051919 1.70288e-22)
(17.9098 0.0552211 -8.15414e-25)
(17.9156 0.0466944 8.87434e-25)
(17.9108 0.0757913 4.50607e-22)
(17.9071 0.0691776 -4.17016e-24)
(17.9218 0.0390587 5.0607e-25)
(17.9239 0.03473 -1.00841e-22)
(17.9188 0.0417078 0)
(17.9341 0.0235486 -1.11863e-22)
(17.9302 0.0263012 -7.32277e-23)
(17.9443 0.0240498 1.16118e-22)
(17.941 0.022956 -2.19831e-24)
(17.9475 0.0217006 3.70483e-25)
(17.9502 0.0190541 1.28347e-22)
(17.9526 0.0168663 -1.82453e-22)
(17.9597 0.0167568 1.95908e-23)
(17.9618 0.0149319 -4.23989e-23)
(17.9573 0.0163298 -2.34923e-24)
(17.9636 0.0129707 -1.31352e-24)
(17.9654 0.011359 0)
(17.9708 0.0132441 -1.54223e-25)
(17.9729 0.120263 0)
(17.9626 0.122278 0)
(17.9917 0.118644 0)
(18.0168 0.120867 1.09064e-23)
(18.0404 0.101514 2.68969e-21)
(18.011 0.0568362 -3.00708e-24)
(18.0554 0.0559394 -3.24912e-21)
(18.0412 0.075035 1.97413e-23)
(18.04 0.0934132 7.52444e-24)
(17.9608 0.0538215 -7.19645e-24)
(17.93 0.119082 -5.72301e-24)
(17.9168 0.11472 0)
(17.9144 0.108044 6.71568e-24)
(17.953 0.1269 -4.19214e-24)
(17.9406 0.129464 -8.37085e-22)
(17.9103 0.100448 6.75005e-23)
(17.9047 0.0933628 -1.85292e-22)
(17.979 0.0178946 -4.48241e-23)
(17.9806 0.0176084 2.69589e-24)
(17.9831 0.0181094 1.31528e-24)
(17.9844 0.019091 -2.0702e-22)
(17.9788 0.0164131 1.54294e-24)
(17.9848 0.0206104 -1.70841e-24)
(17.9859 0.0226124 3.07264e-22)
(17.9895 0.0230638 1.30652e-25)
(17.9923 0.0210822 6.94629e-23)
(17.9836 0.0248039 -3.02441e-24)
(17.9896 0.0215889 4.83824e-25)
(17.9948 0.0194968 -1.88449e-21)
(17.9048 0.0523732 2.51209e-20)
(17.9751 0.0153755 5.73838e-23)
(17.9768 0.0151705 -1.25132e-24)
(17.9744 0.01385 -1.23121e-24)
(17.9062 0.0805492 -5.21895e-24)
(17.9046 0.0520884 -3.37674e-24)
(17.9053 0.0592619 3.1984e-22)
(17.9136 0.0420404 -4.82381e-24)
(17.903 0.0648773 -3.10596e-24)
(17.8996 0.0718913 -4.20092e-25)
(17.9264 0.0287617 2.34124e-22)
(17.9211 0.0311063 -5.48249e-22)
(17.9378 0.0212519 1.2726e-22)
(17.935 0.0189227 -3.01172e-24)
(17.9276 0.0229765 -8.62799e-24)
(17.9413 0.0189573 -1.55901e-22)
(17.9473 0.0177801 -2.08516e-24)
(17.9552 0.0153962 3.41507e-23)
(17.9534 0.0137382 1.42778e-23)
(17.9616 0.012126 -5.8376e-23)
(17.9575 0.013617 -7.82207e-25)
(17.9657 0.00892921 -1.32407e-24)
(17.9675 0.00994381 -6.66236e-25)
(17.973 0.0119409 -1.81545e-25)
(17.9705 0.0109747 -2.91836e-23)
(17.9725 0.128384 0)
(17.9592 0.131764 1.41689e-23)
(18.0283 0.123182 4.417e-21)
(18 0.133474 9.80206e-24)
(18.0552 0.107568 2.61126e-23)
(18.0517 0.113816 2.6526e-23)
(18.0651 0.064718 2.60541e-23)
(18.0603 0.108731 1.39969e-22)
(17.9524 0.0362449 2.03063e-23)
(18.0018 0.0508983 -6.53403e-23)
(17.9222 0.122254 -6.22584e-24)
(17.9285 0.125757 -1.16946e-21)
(17.9143 0.122589 2.09306e-25)
(17.9031 0.108118 8.40749e-24)
(17.9319 0.134338 -3.4899e-24)
(17.9008 0.0854909 5.54651e-24)
(17.8943 0.0912667 -1.68311e-22)
(17.982 0.0172363 1.22596e-24)
(17.9817 0.0156456 -1.26495e-22)
(17.9838 0.0165405 0)
(17.9861 0.0186681 -1.97545e-24)
(17.9785 0.0147809 0)
(17.9801 0.0145002 -2.08921e-24)
(17.9864 0.0213932 1.82783e-24)
(17.9927 0.0210632 1.67736e-24)
(17.9914 0.0212828 1.68395e-24)
(17.9908 0.0249287 -7.47319e-22)
(17.9977 0.0286005 -2.6736e-21)
(17.9778 0.0148516 5.37888e-24)
(17.95 0.0187305 -1.32098e-23)
(17.9425 0.0504239 -1.61797e-23)
(17.9782 0.0131537 8.50234e-25)
(17.9749 0.0115439 1.39989e-24)
(17.8995 0.0782194 1.05452e-22)
(17.8979 0.0496015 -3.60981e-24)
(17.9037 0.0451894 -4.91519e-24)
(17.8977 0.0605575 -6.88163e-24)
(17.9085 0.0413061 8.84185e-23)
(17.9129 0.0368971 -6.1171e-24)
(17.8931 0.074014 -4.5122e-25)
(17.916 0.0320098 1.31284e-23)
(17.919 0.0261915 -5.1897e-22)
(17.9365 0.0149467 3.98179e-24)
(17.9326 0.0166099 4.28259e-22)
(17.9291 0.0172403 -4.21923e-24)
(17.9252 0.0191415 1.84364e-24)
(17.9443 0.0169932 -2.12299e-24)
(17.942 0.0152595 8.17887e-25)
(17.9472 0.0146304 0)
(17.9522 0.0114155 1.76571e-22)
(17.9549 0.0106967 -2.32262e-24)
(17.9595 0.0113498 6.1991e-25)
(17.9618 0.00936789 2.16969e-25)
(17.9575 0.0105445 -7.91305e-23)
(17.9642 0.00740921 -6.97891e-25)
(17.9668 0.00572762 -1.52252e-22)
(17.9699 0.00842319 8.0298e-23)
(17.9662 0.135523 1.18384e-23)
(17.9749 0.135221 0)
(17.9611 0.140143 -1.44982e-21)
(18.0475 0.130052 7.17736e-24)
(17.9829 0.143693 9.01382e-24)
(18.0635 0.0627145 5.83744e-21)
(18.0877 0.0741016 3.73476e-24)
(18.0797 0.100342 -1.45127e-22)
(18.0735 0.120991 1.11529e-23)
(17.9761 0.0291913 0)
(18.044 0.0583478 2.50069e-23)
(17.9112 0.133607 2.35117e-25)
(17.9029 0.126011 3.73295e-22)
(17.8952 0.116746 1.11122e-23)
(17.8909 0.108115 -3.1222e-22)
(17.9205 0.140773 8.06369e-24)
(17.9314 0.145693 5.60005e-22)
(17.887 0.097457 -3.53793e-24)
(17.8855 0.0873501 6.84083e-24)
(17.9815 0.0142735 -1.90144e-22)
(17.9828 0.0141815 -6.57923e-24)
(17.9843 0.0144999 -1.94026e-26)
(17.9854 0.0157483 0)
(17.9866 0.0174918 -1.13078e-24)
(17.9873 0.0184177 2.41833e-22)
(17.9816 0.0127699 -2.15476e-24)
(17.9884 0.0205517 -1.21253e-25)
(17.987 0.0195564 -2.58364e-23)
(17.9899 0.0207066 -3.55935e-24)
(17.9916 0.0220402 -9.25021e-25)
(17.9943 0.0264602 5.15053e-24)
(17.9994 0.0297252 4.16154e-24)
(17.9969 0.02955 4.44927e-24)
(17.976 0.023091 5.52009e-25)
(17.9235 0.0548889 1.01591e-23)
(17.9773 0.0113481 -1.00431e-23)
(17.9793 0.0112002 -4.75273e-23)
(17.9757 0.00951817 -1.10348e-22)
(17.8927 0.0541164 -7.66711e-22)
(17.8923 0.0482748 -4.01625e-24)
(17.9042 0.0388591 6.22961e-23)
(17.8902 0.0606443 -4.18011e-24)
(17.9108 0.0315968 3.20751e-22)
(17.8851 0.0776515 0)
(17.8867 0.0683525 0)
(17.9216 0.02154 -5.00699e-25)
(17.9167 0.0226778 7.19714e-22)
(17.9398 0.0124852 -1.61829e-22)
(17.9376 0.010249 5.10562e-23)
(17.9313 0.0125835 3.75999e-22)
(17.9227 0.0160462 4.77446e-23)
(17.9428 0.0111432 1.8427e-22)
(17.9492 0.0115027 2.20421e-24)
(17.9463 0.0109216 2.14494e-24)
(17.9517 0.00800055 4.34027e-24)
(17.9573 0.00817954 7.74365e-25)
(17.9622 0.00634561 -9.2031e-23)
(17.9692 0.00479094 -1.05588e-24)
(17.9681 0.00320272 -1.41492e-25)
(17.9705 0.00582852 -1.10662e-24)
(17.972 0.00683619 8.58058e-23)
(17.9472 0.14993 3.61683e-23)
(17.9643 0.152316 2.91383e-23)
(18.0589 0.139341 0)
(18.0207 0.14951 -8.43517e-24)
(17.9757 0.155105 2.43752e-23)
(17.9884 0.154244 1.06114e-21)
(18.1044 0.0881166 -1.27194e-22)
(18.0736 0.13286 0)
(18.0859 0.134696 -1.75281e-23)
(17.9936 0.0181736 7.93561e-24)
(18.0418 0.0511162 5.44698e-21)
(18.0761 0.0726003 4.76684e-24)
(17.9103 0.145644 0)
(17.8908 0.127674 -3.9866e-22)
(17.8784 0.105483 -3.33247e-22)
(17.9317 0.160255 -4.82446e-22)
(17.8779 0.0820375 3.70917e-24)
(17.9842 0.0131521 7.8378e-26)
(17.9871 0.0153945 0)
(17.9884 0.018493 1.13192e-22)
(17.9813 0.0110336 -9.98723e-25)
(17.9829 0.0112754 1.05605e-24)
(17.9915 0.0202672 -8.17403e-22)
(17.9976 0.0230408 -1.95045e-22)
(17.9903 0.0265258 -1.37767e-21)
(18.0016 0.02443 1.62637e-21)
(17.9784 0.030098 4.81241e-26)
(17.9588 0.0330516 -1.92853e-22)
(17.946 0.0418505 -2.61583e-20)
(17.9803 0.00939538 -9.45278e-23)
(17.9742 0.00776543 -4.86057e-26)
(17.9768 0.00784368 5.14173e-25)
(17.8879 0.0464223 -3.40865e-24)
(17.8937 0.0401858 0)
(17.9049 0.0323884 2.45256e-22)
(17.9005 0.035075 3.09936e-24)
(17.8831 0.0619779 1.16617e-25)
(17.908 0.0276437 -4.15142e-25)
(17.9123 0.0224693 -2.23415e-23)
(17.9151 0.0177912 1.44384e-24)
(17.9347 0.00912429 6.32363e-24)
(17.9382 0.00623716 5.99868e-23)
(17.931 0.00861974 -1.82258e-22)
(17.9188 0.0142195 6.9948e-24)
(17.9232 0.0110259 -4.12522e-22)
(17.9454 0.00807358 -8.04314e-23)
(17.9513 0.00491299 6.94963e-23)
(17.9542 0.00519452 -1.32875e-24)
(17.9596 0.00590005 4.90473e-25)
(17.9571 0.00543787 1.1092e-24)
(17.9625 0.00361381 -2.31584e-26)
(17.9716 0.00373123 0)
(17.9698 0.00101655 1.24046e-22)
(17.9674 0.00130281 6.23654e-23)
(17.9732 0.00519315 -5.66496e-25)
(17.9688 0.165423 -2.94569e-22)
(18.0709 0.153609 0)
(17.9979 0.167126 1.13533e-21)
(18.1111 0.0867393 -2.68004e-23)
(18.1228 0.10072 6.86548e-22)
(18.1077 0.131024 -3.89524e-23)
(18.0955 0.150519 2.27621e-21)
(18.0394 0.0267553 9.13164e-24)
(18.1044 0.0813061 5.78161e-23)
(17.9082 0.16033 5.32654e-25)
(17.898 0.15081 2.13749e-23)
(17.8885 0.141161 -5.87938e-23)
(17.8775 0.130971 -8.11986e-24)
(17.8709 0.112274 -1.26124e-23)
(17.87 0.0998205 -1.43284e-23)
(17.919 0.169586 1.94221e-22)
(17.9323 0.174854 -7.67695e-22)
(17.8692 0.0873411 3.8031e-24)
(17.8731 0.0752916 -2.55999e-22)
(17.9842 0.0113928 1.24418e-24)
(17.9856 0.0118678 5.06817e-23)
(17.9889 0.0156996 0)
(17.9876 0.0139778 1.32391e-24)
(17.9895 0.0167081 1.16932e-24)
(17.9898 0.017949 1.32892e-24)
(17.9844 0.00979522 1.90722e-22)
(17.9911 0.0186213 -3.03164e-24)
(17.9928 0.0187313 -3.14252e-24)
(18.0023 0.0204736 1.65236e-24)
(17.9969 0.0195332 1.73314e-24)
(18.0049 0.0200987 2.17517e-25)
(17.9972 0.0229472 -7.30615e-25)
(17.9301 0.036607 2.25936e-20)
(17.9789 0.0075522 -8.00303e-25)
(17.981 0.00751745 -1.70492e-24)
(17.9772 0.00580765 0)
(17.882 0.0544168 -3.24205e-24)
(17.8801 0.0463923 5.98308e-22)
(17.8943 0.032821 0)
(17.8767 0.0635769 5.4864e-24)
(17.9056 0.0223659 -8.7647e-23)
(17.9139 0.0130791 -6.05717e-23)
(17.938 0.00214673 2.66501e-24)
(17.9414 0.00396465 3.09684e-24)
(17.9272 0.00703136 -1.64325e-23)
(17.9309 0.00301239 -1.71677e-24)
(17.9224 0.00487472 -2.50556e-25)
(17.9483 0.00475474 -5.59845e-24)
(17.9447 0.00454933 -3.43487e-25)
(17.9509 0.00169953 -4.07271e-23)
(17.9568 0.00252818 3.37082e-24)
(17.965 0.00117684 3.62393e-23)
(17.9622 0.000480959 -9.03214e-25)
(17.9723 0.00106683 3.0552e-26)
(17.9737 0.00209812 0)
(17.9725 -0.000929618 1.69762e-22)
(17.9671 -0.00148581 1.99313e-23)
(17.9752 0.00394481 0)
(17.9742 0.00325417 0)
(17.9525 0.178279 3.75977e-24)
(17.974 0.180103 -1.6368e-24)
(18.0862 0.166325 -1.50668e-23)
(18.0503 0.173592 3.89861e-23)
(17.9892 0.182568 -3.50241e-23)
(18.0068 0.18031 1.99915e-23)
(18.1393 0.123654 -1.83793e-23)
(18.1024 0.173821 5.279e-24)
(18.0885 0.0550566 5.90708e-23)
(18.059 0.0444908 1.76419e-23)
(18.1305 0.0851433 -8.34889e-21)
(17.9053 0.175227 5.38222e-25)
(17.8847 0.154216 2.54977e-22)
(17.8697 0.124183 -5.27254e-24)
(17.8645 0.134967 2.9567e-22)
(17.861 0.117383 2.81849e-24)
(17.8613 0.0941954 -5.78108e-24)
(17.9362 0.192462 -2.42774e-23)
(17.8675 0.0672221 2.68227e-24)
(17.9872 0.0100445 1.70282e-22)
(17.9865 0.0118357 3.92936e-22)
(17.9904 0.0152781 -2.08106e-25)
(17.9873 0.0125825 -2.54695e-23)
(17.9892 0.0129808 2.77132e-24)
(17.9915 0.0163401 0)
(17.9835 0.0074719 1.58675e-25)
(17.9857 0.00786407 1.77895e-24)
(17.9943 0.0185118 0)
(17.994 0.0166797 0)
(17.9966 0.0177407 -1.12286e-24)
(18.0064 0.0169004 -4.03532e-26)
(18.0028 0.0175791 0)
(18.0053 0.013421 5.06553e-23)
(17.9499 0.0346394 -1.41297e-23)
(17.9742 0.0150343 -8.83123e-24)
(17.9816 0.00562178 -2.29869e-23)
(17.9773 0.00364688 4.70473e-25)
(17.8709 0.0453419 -2.91059e-24)
(17.8771 0.0388627 -1.1619e-23)
(17.8875 0.0293965 -8.12967e-24)
(17.8949 0.0246216 0)
(17.9002 0.0207542 3.23831e-24)
(17.9046 0.0162825 -1.33439e-23)
(17.9083 0.0117263 -7.0132e-24)
(17.9127 0.00740037 5.39432e-23)
(17.9347 -0.000723815 -2.92952e-24)
(17.9376 -0.00276361 -4.19072e-22)
(17.944 0.000898143 1.44306e-22)
(17.93 -0.0024473 0)
(17.9171 0.00322925 -7.07455e-24)
(17.9211 -0.000368845 -2.01131e-23)
(17.9497 -0.00200375 6.95413e-23)
(17.9533 -0.00123718 7.70274e-25)
(17.9593 -2.72907e-05 -1.0541e-23)
(17.9563 -0.000665755 6.20517e-25)
(17.9615 -0.00250348 -3.22147e-25)
(17.9767 0.000654485 0)
(17.9718 -0.00352545 -2.60577e-23)
(17.9746 -0.00345687 1.23801e-22)
(17.9691 -0.00371306 4.79298e-25)
(17.9663 -0.00411394 1.51825e-24)
(17.9813 0.197434 2.96615e-22)
(18.0234 0.196383 -2.14079e-21)
(18.1509 0.152406 8.65055e-22)
(18.1649 0.125927 3.49593e-21)
(18.133 0.176655 -8.8611e-22)
(18.1019 0.197407 -9.3509e-22)
(18.0882 0.0734866 -2.31708e-21)
(18.1295 -0.0166205 1.74111e-23)
(18.159 0.109185 3.26259e-23)
(18.1545 0.0855018 5.21126e-23)
(17.8993 0.192377 5.66109e-24)
(17.8886 0.178714 7.04142e-24)
(17.8812 0.167553 -3.35956e-22)
(17.8689 0.154866 1.9957e-23)
(17.8568 0.145453 6.10751e-22)
(17.8529 0.136855 -2.63295e-25)
(17.8517 0.124856 2.70578e-22)
(17.8536 0.113105 -4.88556e-24)
(17.8546 0.103282 4.84061e-22)
(17.8536 0.0905736 -3.95226e-24)
(17.9256 0.206835 -1.35407e-22)
(17.9448 0.2103 5.18604e-22)
(17.8572 0.070626 3.17766e-23)
(17.8609 0.0594349 -1.01571e-24)
(17.9874 0.00845079 4.00796e-23)
(17.9888 0.00877837 5.85712e-25)
(17.9886 0.0107941 -1.93019e-22)
(17.9906 0.013653 1.31476e-24)
(17.9915 0.0140503 8.46448e-23)
(17.9908 0.0119586 -1.88693e-22)
(17.9921 0.014609 -2.547e-25)
(17.9929 0.0151487 0)
(17.9869 0.00649966 1.58469e-24)
(17.994 0.0152954 0)
(17.9951 0.0149036 -6.47587e-25)
(17.9994 0.0172769 -1.00366e-24)
(17.9972 0.0154449 4.95077e-23)
(18.0018 0.015989 0)
(18.0016 0.00955183 4.29072e-24)
(18.0039 0.0137291 -8.47905e-22)
(17.9383 0.0296396 6.05701e-24)
(18.007 0.00592875 2.25103e-21)
(17.9797 0.00380296 -2.01782e-25)
(17.9822 0.00373363 -5.48545e-25)
(17.979 0.00165302 -2.30515e-22)
(17.8646 0.0505645 0)
(17.8621 0.0401805 7.19835e-24)
(17.8803 0.0321159 8.71328e-23)
(17.8706 0.0312971 -9.07474e-24)
(17.8815 0.0231593 -6.77079e-24)
(17.8952 0.0174896 6.38546e-24)
(17.9027 0.00983248 -9.28068e-25)
(17.9108 0.00136608 5.78496e-24)
(17.9422 -0.00320325 -5.61614e-24)
(17.9391 -0.00616921 9.95124e-23)
(17.9458 -0.00257949 -3.73287e-23)
(17.9248 -0.0038162 -7.80814e-24)
(17.9281 -0.00687467 -1.49385e-25)
(17.9193 -0.00546938 -7.39869e-24)
(17.9479 -0.00561222 4.2213e-23)
(17.9556 -0.00390937 -1.78762e-25)
(17.9636 -0.00468394 9.14565e-25)
(17.9606 -0.00542724 -1.75079e-25)
(17.9783 -0.00214417 -1.00207e-24)
(17.9797 -0.000448203 0)
(17.97 -0.00593307 -1.19908e-24)
(17.9767 -0.00354356 -1.8411e-22)
(17.9748 -0.00578613 9.51532e-24)
(17.965 -0.00671636 2.60318e-22)
(17.9652 0.213185 -6.48779e-23)
(17.9889 0.216297 -1.04219e-21)
(18.0105 0.218848 2.08863e-23)
(18.0351 0.21908 4.10684e-23)
(18.1611 0.178582 2.64822e-23)
(18.1846 0.129904 -3.02212e-21)
(18.0652 0.218847 1.87388e-23)
(18.1026 0.223461 1.8345e-23)
(18.1337 0.0772371 2.65134e-23)
(18.1053 0.0990938 2.86756e-23)
(18.1887 -0.0640704 0)
(18.1904 0.0919234 6.87252e-25)
(17.9093 0.205781 2.39514e-22)
(17.8876 0.209773 -5.49197e-22)
(17.8721 0.180184 1.06429e-23)
(17.8508 0.159686 -4.90995e-22)
(17.843 0.133451 3.80928e-23)
(17.8446 0.108858 -6.60291e-22)
(17.8513 0.0818876 1.61948e-25)
(17.8418 0.092042 1.29933e-22)
(17.9162 0.221437 8.60587e-24)
(17.9512 0.228899 5.4142e-22)
(17.8449 0.0714176 -1.08541e-24)
(17.8531 0.0529344 4.58192e-24)
(17.9896 0.00903722 -2.63239e-24)
(17.99 0.00774873 -6.31298e-23)
(17.9901 0.009631 -2.40812e-24)
(17.9923 0.013303 -9.30292e-26)
(17.9915 0.0101627 1.30628e-23)
(17.9926 0.0109513 -1.254e-22)
(17.9938 0.0140326 4.66251e-25)
(17.9862 0.00477945 4.3848e-23)
(17.9884 0.00561461 -3.29685e-25)
(17.9961 0.0139767 -2.83364e-23)
(17.9952 0.0133751 -6.88148e-25)
(17.9977 0.0131289 -1.70612e-24)