/*--------------------------------*- C++ -*----------------------------------*\
| =========                 |                                                 |
| \\      /  F ield         | OpenFOAM: The Open Source CFD Toolbox           |
|  \\    /   O peration     | Version:  v2012                                 |
|   \\  /    A nd           | Website:  www.openfoam.com                      |
|    \\/     M anipulation  |                                                 |
\*---------------------------------------------------------------------------*/
FoamFile
{
    version     2.0;
    format      ascii;
    class       volScalarField;
    location    "0.7";
    object      k;
}
// * * * * * * * * * * * * * * * * * * * * * * * * * * * * * * * * * * * * * //

dimensions      [0 2 -2 0 0 0 0];


internalField   nonuniform List<scalar> 
13611
(
0.000196875
0.000156585
0.00100879
0.00018747
0.000218402
0.00025436
0.00013809
0.000335443
0.000254167
0.00022932
0.000257236
0.000156907
0.000189218
0.00107949
0.000252821
0.00023347
0.000252046
0.000250112
0.00012057
0.000187323
0.000314929
0.000254559
0.000253291
0.000250742
0.000249642
0.000250024
0.000128934
0.000217379
0.000989382
0.000255215
0.000251988
0.000250534
0.000248052
0.000248001
0.000244749
0.000133082
0.000194677
0.000354839
0.000254641
0.000252072
0.000248864
0.000246191
0.000246078
0.000245378
0.000115571
0.000203549
0.00114332
0.000122448
0.000253432
0.000255733
0.00025066
0.000248968
0.000245326
0.000244325
0.000242872
0.000245722
0.000157322
0.000227186
0.000399237
0.000104264
0.000253712
0.00025509
0.000250421
0.00024785
0.000257191
0.000243975
0.000246494
0.000242948
0.000241
0.000242003
0.000151333
0.000230117
0.00101836
9.67117e-05
0.000253022
0.000255781
0.000249382
0.000251695
0.000248105
0.000244392
0.000245676
0.000241613
0.000238664
0.000240395
0.000240749
0.000193662
0.000237317
0.000483906
7.30045e-05
0.000254089
0.000255925
0.000249733
0.000250992
0.000247256
0.000257456
0.000243625
0.000245971
0.000242162
0.00023763
0.000239011
0.00023746
0.000186771
0.000236598
0.00025853
8.40467e-05
0.00025547
0.000253314
0.000248806
0.000251769
0.000247628
0.000257787
0.00025908
0.000244254
0.00024547
0.000241413
0.000236713
0.000239047
0.000235347
0.000235438
0.000217717
0.000232304
0.000234907
0.00108658
6.12732e-05
5.85248e-05
0.00025642
0.000254211
0.000249369
0.000250989
0.000246402
0.000259423
0.000243372
0.000242178
0.000240204
0.000237487
0.000233472
0.000232631
0.000197605
0.000231324
0.000232149
0.000373779
2.84046e-05
0.000105368
0.000256777
0.000253662
0.000255909
0.000249159
0.000251463
0.000245935
0.000258472
0.000260785
0.00024367
0.000241429
0.000240199
0.000237164
0.000234377
0.000231421
0.000233746
0.000232812
0.000230131
0.000229935
0.000230797
0.00108846
8.85237e-05
7.63555e-05
0.00025267
0.000254692
0.000256633
0.000248384
0.000250426
0.000244876
0.000247105
0.000259017
0.000261398
0.000242673
0.000241617
0.000239742
0.00023602
0.000238548
0.000233761
0.000232433
0.000157454
0.000229961
0.000227282
0.000229032
0.000227729
0.000379545
3.29004e-05
0.000253035
0.000255983
0.000254135
0.000258204
0.000248964
0.0002508
0.000245346
0.000246503
0.000260547
0.000262962
0.000243163
0.000240468
0.000235948
0.000238197
0.000234561
0.000231566
0.000163386
0.000227956
0.000226379
0.000225918
0.00022723
0.000230273
8.72083e-05
0.00109464
0.000106596
0.000252249
0.000256833
0.000255102
0.000259215
0.000248447
0.000250179
0.000244521
0.000247176
0.00026168
0.000264383
0.000242372
0.000240871
0.000236965
0.000239093
0.000234582
0.000231455
0.000201521
0.000227323
0.000223384
0.00022476
0.000228009
0.000229703
4.08836e-05
0.000354772
0.000128682
0.000251999
0.000256524
0.000258425
0.000254986
0.000260992
0.000249133
0.000250791
0.000244867
0.000246813
0.00026366
0.000242736
0.000240298
0.000237041
0.000239184
0.000233772
0.000236011
0.000232558
0.000230083
0.000182729
0.000226782
0.000222259
0.000221897
0.000223274
0.000225824
0.000227337
5.9615e-05
9.87714e-05
0.00100485
0.000252985
0.000257519
0.000258869
0.000256409
0.000254342
0.000262596
0.00025036
0.000248809
0.000244007
0.000246002
0.000247784
0.000264746
0.000242222
0.000241181
0.000238227
0.000240347
0.000234345
0.000236306
0.000232543
0.000229605
0.00020164
0.000221193
0.000219575
0.000218947
0.00022079
0.000223058
0.000225467
0.000228066
4.58952e-05
0.000113153
0.00049659
0.000252529
0.000257627
0.000260607
0.000256485
0.000255243
0.000262373
0.000264567
0.000251229
0.00024972
0.000244151
0.000246396
0.00024748
0.000267201
0.000268503
0.000242916
0.000238414
0.000240652
0.000233572
0.000235481
0.000237526
0.00023185
0.000230576
0.000168194
0.000221946
0.000216915
0.000219159
0.000221549
0.000224179
0.000226639
0.000227911
8.46039e-05
0.000275768
0.000253351
0.000259567
0.000261078
0.000257976
0.000254821
0.000264363
0.000266189
0.000250883
0.000249453
0.000245111
0.000246109
0.000248319
0.00026785
0.000270958
0.000243219
0.000239616
0.0002418
0.000233885
0.000235814
0.000237824
0.000232109
0.000230353
0.000181038
0.000215624
0.000214326
0.00021637
0.000218159
0.000220969
0.000224506
0.000226015
0.000229217
8.53076e-06
0.00108297
3.39207e-05
0.000253093
0.000259575
0.000262966
0.000258669
0.000256154
0.000266543
0.000264352
0.000267273
0.000251786
0.00025034
0.000245514
0.000247024
0.000248016
0.000269922
0.000271478
0.000244723
0.000242533
0.000239638
0.000241992
0.00023306
0.000235012
0.00023698
0.000238872
0.000231174
0.000177061
0.0002132
0.000216845
0.000215492
0.000219128
0.000222071
0.000223726
0.000226958
0.000229289
8.96186e-05
0.000445433
3.28126e-05
0.000254229
0.000261346
0.000263702
0.000258013
0.000260643
0.000255774
0.000267357
0.000266057
0.00026961
0.000251612
0.000250146
0.000246559
0.000248877
0.000274061
0.000245019
0.000242772
0.000240812
0.000241762
0.000233406
0.00023534
0.000237322
0.000239281
0.000231419
0.000207237
0.00021076
0.000213489
0.000216149
0.000212037
0.000216701
0.000218602
0.00022223
0.00022457
0.000226905
0.000228535
0.000230524
0.000113649
0.000105716
0.00116409
6.36228e-05
0.000266209
0.000259428
0.000254486
0.000263118
0.000265582
0.000259353
0.000261904
0.000257158
0.000269609
0.000271733
0.000253156
0.000251446
0.000247364
0.000248724
0.000276338
0.000275091
0.000244006
0.000246222
0.000240451
0.000242644
0.000232603
0.000234559
0.000236491
0.00023848
0.000239248
0.000183754
0.000209721
0.000213118
0.000212961
0.000209067
0.00021671
0.000219923
0.000223724
0.000221547
0.000226018
0.00022807
0.000228976
0.000231007
0.000105331
0.000436502
9.04631e-05
0.000255086
0.000262938
0.000252319
0.000149498
0.00100463
0.00025611
0.000264775
0.000267486
0.000261279
0.000258777
0.000264065
0.000271685
0.000271095
0.00027451
0.000252974
0.000251399
0.000247247
0.000249999
0.000278493
0.000243862
0.000246975
0.000241002
0.000242901
0.00023322
0.000234893
0.000236892
0.000238946
0.00024024
0.000202579
0.000207737
0.000211203
0.000214962
0.000210771
0.000206878
0.000218227
0.000219536
0.000224174
0.000222461
0.000226365
0.00022847
0.000230152
0.000232385
3.48193e-05
0.00103149
6.28699e-05
0.000178397
0.000228778
0.000250831
0.000262264
0.000249482
0.000142565
0.000265295
0.000256917
0.000266909
0.000270287
0.000262872
0.000260246
0.000265138
0.000274952
0.000274177
0.000277602
0.000254441
0.000252554
0.000248933
0.000250181
0.00028009
0.000279907
0.000244883
0.000248667
0.000247182
0.000242139
0.000244141
0.000234391
0.00023614
0.00023815
0.00024003
0.000240557
0.00020722
0.00021116
0.000214831
0.000208249
0.000204737
0.000218713
0.000220733
0.000223784
0.000225583
0.000222031
0.000227613
0.000229777
0.000230611
0.000232874
6.34611e-05
0.00052324
0.000101188
0.000195282
0.000251726
0.000247524
0.000254965
0.000252482
0.000250148
0.000255968
0.000149188
0.000994051
0.000256244
0.000258959
0.000268773
0.000272447
0.000264798
0.000262314
0.000260023
0.000267787
0.000277771
0.000275945
0.000254138
0.000253117
0.000251892
0.000285047
0.000282969
0.000282568
0.000246343
0.000249692
0.000248791
0.000242659
0.000244865
0.000235189
0.000236429
0.000238584
0.000241152
0.000241871
0.000204982
0.000208695
0.000210423
0.000213287
0.000216587
0.00020736
0.000203928
0.00021833
0.00022032
0.000224776
0.000225947
0.000223057
0.000228181
0.000230346
0.000231978
0.000234427
2.69726e-07
0.000285572
0.000178239
6.79839e-05
0.000203806
0.000222515
0.000245094
0.000247311
0.000254125
0.000253924
0.000249009
0.000256815
0.000142399
0.000238836
0.000257946
0.000260003
0.000271681
0.000269171
0.000275143
0.000266839
0.000264171
0.000261699
0.000268704
0.000281777
0.000280102
0.000255589
0.000254811
0.000252111
0.000284591
0.000285822
0.000247225
0.000251179
0.000249824
0.000244015
0.000246412
0.000235507
0.000237536
0.000239935
0.000242354
0.000241014
0.000204945
0.000209069
0.000211669
0.000213126
0.000216462
0.000202249
0.000200294
0.000219993
0.000221352
0.000224633
0.000227217
0.000223039
0.000229605
0.000231807
0.000232555
0.00023471
5.37559e-05
0.00104883
0.0001991
9.86136e-05
0.000202977
0.000234817
0.000243686
0.000245366
0.000244967
0.00024818
0.000253197
0.000250928
0.000255705
0.000126508
0.000973977
0.000257333
0.000259749
0.000261545
0.000273552
0.000271839
0.000278056
0.000267426
0.000263493
0.000266578
0.00027116
0.00028586
0.000282549
0.000281214
0.000255891
0.00025412
0.000291575
0.000289639
0.000290395
0.000248967
0.000252319
0.000251742
0.000244706
0.0002473
0.00023721
0.000238237
0.000240619
0.000243715
0.000242452
0.000203117
0.000207446
0.00021075
0.000214655
0.000217928
0.000199752
0.000200614
0.000221674
0.000219723
0.000226146
0.000228283
0.00022473
0.000230774
0.000232976
0.000233946
0.000236377
1.529e-05
0.000342502
0.000175252
6.50352e-05
0.000200541
0.000162594
0.000240774
0.000246299
0.000242058
0.000251317
0.000254216
0.000250414
0.000256856
0.000255459
0.000302873
0.000258345
0.000261247
0.000262787
0.000276515
0.00027309
0.000278649
0.000270375
0.000264319
0.00026901
0.000272226
0.00029042
0.000287588
0.000285118
0.00025562
0.000257804
0.000253933
0.000295421
0.000294155
0.000249791
0.000253124
0.00024635
0.000248926
0.000238242
0.000239866
0.000241989
0.000244258
0.000243836
0.000203636
0.000207832
0.00021206
0.000214624
0.000218832
0.000197596
0.000198363
0.000223614
0.000222078
0.000226379
0.000227961
0.00023032
0.000225039
0.000232548
0.00023478
0.000235235
0.00023657
0.000237695
7.25235e-05
0.00105575
0.000191019
8.87885e-05
0.00019843
0.000152833
0.000242041
0.000248952
0.000244996
0.000240201
0.00023879
0.000203684
0.00024854
0.000253097
0.000251749
0.000257105
0.000254338
0.00108149
0.000135144
0.000260482
0.000261809
0.000263145
0.000278946
0.000277083
0.000283426
0.000271363
0.000266685
0.000268868
0.0002756
0.000291149
0.000294567
0.000288415
0.000286254
0.000257262
0.00025937
0.000255498
0.000298452
0.000298147
0.00025175
0.000252915
0.000255111
0.000247049
0.000250294
0.000240333
0.000241061
0.00024325
0.000246034
0.000245346
0.000202353
0.000206112
0.000210343
0.000212432
0.000216721
0.000218964
0.000221429
0.000195138
0.000199374
0.00022491
0.000223948
0.000228346
0.000229575
0.000232109
0.000227348
0.000233859
0.000235683
0.000237892
0.000239041
1.5602e-05
0.000337465
0.000160138
0.000197524
5.64624e-05
0.000197313
0.000195241
0.000240622
0.00024858
0.000245746
0.000236656
0.00023837
0.000198509
0.000248142
0.000252987
0.000250783
0.000256044
0.000254609
0.000320362
0.000106793
0.000261088
0.000264822
0.000265742
0.000282757
0.000278164
0.000274576
0.000267636
0.000271491
0.000277082
0.000296079
0.000297949
0.000292968
0.000290192
0.000257242
0.000259148
0.000302773
0.000302163
0.000252467
0.000254681
0.000256433
0.000248903
0.000250129
0.000252121
0.0002416
0.000242868
0.000245063
0.00024668
0.000204024
0.000207428
0.000211522
0.000215987
0.000218201
0.000221201
0.000222913
0.000194562
0.000199025
0.000224462
0.000227192
0.000225752
0.000228863
0.000229846
0.000231605
0.000233966
0.000235598
0.000237622
0.000238596
0.000240792
7.46405e-05
0.00104135
0.000177887
0.000194861
8.6474e-05
0.000194061
0.000192816
0.000241715
0.000247496
0.000249518
0.000245067
0.000236357
0.000234474
0.000240175
0.000218463
0.000121902
0.000244061
0.000239559
0.000252297
0.000250986
0.000258719
0.000256368
0.00025412
0.001006
0.000263853
0.000265827
0.000266687
0.000286121
0.000282307
0.000276475
0.000269991
0.000274838
0.000280419
0.000296608
0.000299182
0.000301752
0.00029344
0.000292173
0.000259155
0.000260801
0.000305864
0.000305824
0.000254129
0.00025629
0.00025888
0.000249549
0.000251815
0.000253221
0.00024389
0.000244319
0.000246632
0.000248453
0.000205482
0.000201685
0.000209952
0.000214398
0.000216191
0.000222026
0.000223663
0.000225267
0.000192529
0.00019679
0.000227055
0.000229389
0.000226676
0.000231111
0.000231592
0.000233049
0.000235808
0.000237497
0.000238886
0.000240681
0.000242067
1.63523e-05
0.000342005
0.00015938
0.000195089
5.76856e-05
0.000192806
0.000191501
0.000243854
0.000246975
0.000248986
0.00024581
0.000236769
0.0002322
0.00024055
0.000221352
0.000102722
0.000246173
0.000235526
0.000253023
0.000250927
0.000257599
0.000255102
0.000313012
0.00026444
0.000268391
0.000269869
0.000285775
0.00029104
0.000282883
0.000281109
0.000271757
0.00027735
0.000282766
0.000300346
0.000302497
0.000304525
0.000297264
0.000296344
0.00026109
0.000260078
0.000263308
0.000309443
0.000309476
0.000254632
0.000258523
0.000260269
0.000251109
0.000253232
0.000245059
0.000244927
0.000246395
0.000248636
0.000249228
0.000202659
0.000205541
0.000211034
0.000215456
0.000219443
0.000224008
0.000227663
0.000228162
0.000191464
0.000197419
0.000229147
0.000232176
0.000230836
0.000232847
0.000232924
0.00023551
0.000237677
0.00023678
0.000241015
0.000241937
0.000241948
0.00024429
7.94705e-05
0.00105352
0.000175438
0.000192902
6.16558e-05
0.000189833
0.000189689
0.000243383
0.000247674
0.000249773
0.000245141
0.000235661
0.000239262
0.000233679
0.000230777
0.000242212
0.00016499
0.000238399
0.00011662
0.000237107
0.000252016
0.000257588
0.000255045
0.000995539
0.000267586
0.000270494
0.000270619
0.000289567
0.000293725
0.000286449
0.000283136
0.000275537
0.000281362
0.000286085
0.000300289
0.000303993
0.000304747
0.00030811
0.000298812
0.000263418
0.000263132
0.000264838
0.000315204
0.000312338
0.000310119
0.000312767
0.000256871
0.00025888
0.000262857
0.0002522
0.000255279
0.000247287
0.000247367
0.000248271
0.000249774
0.000251179
0.000224375
0.000213533
0.000201795
0.000212777
0.000221405
0.000225288
0.000230465
0.000231272
0.000231473
0.000189441
0.000194699
0.00023219
0.000234695
0.000233393
0.000235697
0.000236764
0.000237156
0.000237029
0.000240297
0.000239701
0.000242896
0.000243789
0.000243982
0.000245717
2.40897e-05
0.000327648
0.000175663
0.000192577
3.92447e-05
0.000120625
0.000188591
0.000189155
0.000243997
0.000247418
0.00024971
0.000245491
0.00023661
0.000239002
0.000233119
0.000229611
0.000241869
0.000150646
0.000240635
9.64223e-05
0.000231678
0.000252465
0.00026001
0.000256363
0.000258824
0.0002541
0.000469628
0.000266908
0.000269979
0.000274028
0.00027426
0.00028932
0.000293218
0.000297585
0.000287348
0.000277957
0.000283666
0.000288334
0.000302926
0.000307129
0.000309212
0.000310389
0.000302588
0.000264628
0.000264381
0.000319348
0.000314822
0.000315754
0.000257334
0.000261706
0.000264674
0.000254584
0.000255953
0.000249037
0.000248517
0.000249818
0.000251809
0.000252544
0.000286536
0.000206532
0.000210529
0.000229224
0.000250751
0.000241405
0.000244995
0.000231631
0.000236621
0.000235685
0.000188435
0.000205917
0.000235361
0.000238446
0.000238588
0.000238025
0.000239448
0.000240147
0.000239844
0.000242634
0.000241593
0.000245824
0.000246
0.000245578
0.000248163
6.25231e-05
0.000964581
0.000188593
0.000192002
3.28729e-05
0.000119365
0.000185908
0.000185495
0.000243704
0.000246545
0.000248593
0.000251016
0.000244517
0.000238057
0.000235708
0.000240093
0.000234274
0.000231276
0.000227284
0.00024108
0.000242736
0.00017882
0.000234373
0.000227023
0.000112597
0.000229537
0.000252137
0.000256494
0.000258959
0.000254285
0.000365297
0.000269038
0.000273258
0.000276619
0.000277245
0.000292395
0.000295574
0.000299177
0.000288392
0.000289175
0.000282328
0.000287069
0.000291789
0.000306465
0.000304085
0.000310822
0.000311737
0.000314086
0.000304903
0.000267679
0.000267243
0.000319535
0.000317428
0.000259796
0.000261986
0.000264302
0.000267801
0.000255997
0.000258704
0.000251707
0.000251194
0.000251828
0.000253513
0.000254979
0.000182854
0.000221492
0.000214252
0.000200877
0.000207918
0.000225852
0.000236428
0.000245934
0.00025772
0.000237686
0.00024886
0.000238981
0.000183657
0.000197483
0.000199105
0.00023947
0.000241805
0.00024148
0.000241896
0.000243579
0.000241604
0.000243146
0.000245765
0.000244404
0.000249102
0.000248141
0.000247446
0.000249249
3.06852e-05
0.000424065
0.000184768
0.000187545
6.84108e-05
0.000148448
0.000184706
0.000247064
0.000248798
0.000250969
0.000245188
0.000238252
0.000235505
0.000239304
0.000233716
0.000231023
0.000227384
0.000241212
0.000242264
0.000154472
0.000233183
0.000235841
8.72836e-05
0.000225691
0.000253189
0.000261729
0.000255373
0.000257785
0.00026041
0.000993228
0.00013912
0.000272341
0.000276451
0.000279638
0.000279941
0.000295343
0.000298352
0.000303012
0.000291579
0.000291906
0.000283707
0.000289387
0.000293408
0.000309677
0.000308079
0.000315763
0.000315445
0.000317007
0.000305083
0.000308747
0.000268999
0.00026877
0.000334442
0.000325278
0.000322387
0.000260453
0.000264702
0.000267265
0.000270201
0.000258481
0.000259677
0.000253306
0.000252481
0.000252976
0.00025353
0.000255869
0.000256915
9.67535e-06
2.86106e-05
0.000165448
0.000154195
0.000180733
0.000131806
0.000132946
0.00024511
0.000308381
0.000253236
0.000260784
0.000241644
0.000186597
0.000196368
0.000202937
0.000182195
0.000245779
0.00024737
0.000245003
0.000246903
0.000245671
0.000246391
0.000249084
0.0002462
0.000246979
0.000252209
0.000251093
0.000251901
1.6279e-05
0.000202193
0.000194687
0.00018481
6.63848e-05
0.00014895
0.000182975
0.000246556
0.00024824
0.000250084
0.000252052
0.000244543
0.000237553
0.000234304
0.000236398
0.000239352
0.000232507
0.000229703
0.000225243
0.000240536
0.000243199
0.000183291
0.000228876
0.000220232
5.58683e-05
0.000223857
0.000253175
0.000263518
0.000255638
0.000258103
0.000260897
0.00119167
7.576e-05
0.000274345
0.000279626
0.000282703
0.000282971
0.000298143
0.000300735
0.000303417
0.000293827
0.000292008
0.000293828
0.000287075
0.000289128
0.000296586
0.000314254
0.00030999
0.000321004
0.000320381
0.000324148
0.000309315
0.000311375
0.000271956
0.000272472
0.000331591
0.00032856
0.000262907
0.000265016
0.00026725
0.000270173
0.000273065
0.000260371
0.000262815
0.000256146
0.000253758
0.000254907
0.000255679
0.000257111
0.00025808
0.000259672
0.000399896
4.38632e-05
8.82775e-05
0.000240788
0.000175742
7.17005e-05
0.000176152
0.000184998
0.00021919
0.000284612
0.000269516
0.000260341
0.000247055
0.000183029
0.000194086
0.000182597
0.000159542
0.000250006
0.000249747
0.000250075
0.000251
0.00024675
0.000250387
0.000252388
0.000250069
0.000250129
0.00025541
0.000252218
0.00025306
1.839e-06
0.00101575
7.22431e-06
0.000188271
0.000176117
0.000181715
0.00010989
0.000181342
0.000247403
0.000248964
0.000250015
0.000252057
0.000245118
0.000237989
0.000233811
0.000235711
0.000239095
0.000231873
0.000230374
0.000225705
0.000241003
0.000242889
0.000121948
0.000223189
0.00022564
0.000233614
0.000222879
0.000254427
0.000266635
0.000263831
0.000256986
0.000259677
0.000262613
0.000567748
7.04712e-05
0.000274147
0.000278364
0.000280072
0.000282772
0.000285772
0.000285803
0.000300938
0.00029852
0.000306044
0.000296615
0.000294703
0.000296819
0.000287969
0.000291134
0.000317035
0.000314115
0.000328903
0.000325885
0.000328706
0.000309273
0.000314379
0.00027374
0.000339842
0.000347084
0.000338824
0.000264192
0.0002683
0.000270013
0.000273508
0.000275775
0.000262892
0.000256953
0.000258175
0.000256595
0.000258624
0.000259352
0.000261455
0.000262347
0.00096529
0.000323179
0.00100022
0.000277663
0.00135378
0.000180185
0.000475667
0.000739387
0.00024448
6.66089e-05
0.000270776
0.000237699
0.000279441
0.000248043
0.000185376
0.000186822
0.000193233
0.000157687
0.000137746
0.000254514
0.000252381
0.000251977
0.000252066
0.000254306
0.000252155
0.000252754
0.000256187
0.000254409
0.000257836
0.000257089
0.000256077
0.000256191
3.90049e-06
0.000295314
1.3996e-05
0.000185387
0.000180828
0.00017937
0.000109893
0.000179997
0.000248669
0.000247227
0.000250923
0.000253181
0.000246397
0.000244748
0.000237617
0.000234548
0.00023246
0.00023627
0.00023997
0.000229517
0.000228103
0.000223809
0.000242068
0.000243824
0.000126837
0.000220715
0.00022034
0.000229099
0.000189878
0.000221166
0.000254431
0.000268174
0.000265317
0.000257512
0.000260327
0.000263366
0.000355111
4.17738e-05
0.000277386
0.000279401
0.000283173
0.000285168
0.00028789
0.000303928
0.000302033
0.00030654
0.000299242
0.000297109
0.000295379
0.000299224
0.000289667
0.000293824
0.000325803
0.000315379
0.000335873
0.000332924
0.000333427
0.000337363
0.000312838
0.00032003
0.00027685
0.00035276
0.000345556
0.000267435
0.000270351
0.000273149
0.000276239
0.000278624
0.000265127
0.000260004
0.000261088
0.000258053
0.000260906
0.000262807
0.000263899
0.000265129
0.00236359
0.00162094
0.00199092
0.000980563
0.00143155
0.0025234
0.00207791
0.00123237
0.00149528
0.00057566
7.34794e-05
7.57224e-05
0.000239629
6.426e-06
0.00027444
0.000181806
0.00017228
0.00019097
0.000112332
0.000253911
0.000259508
0.000258746
0.000256314
0.000257284
0.000257462
0.000254761
0.000256456
0.000258913
0.000257812
0.000261313
0.000261547
0.000257759
5.4215e-05
6.07241e-05
0.00100615
4.06933e-05
0.000184434
0.000180332
0.000149309
0.000178624
0.000249487
0.000248339
0.000250785
0.000253831
0.000246466
0.000245491
0.000238555
0.000233931
0.000231973
0.000236396
0.000240357
0.000230031
0.000227871
0.000223773
0.00024249
0.000243463
0.000218062
0.000224279
0.000199918
0.000220617
0.000255973
0.000267789
0.000266189
0.000259375
0.000257229
0.000262259
0.00026522
0.0010958
0.000121472
0.000115345
0.000281606
0.000283567
0.000285353
0.000287651
0.000290487
0.000304461
0.000301975
0.000310041
0.000301301
0.000299771
0.000298909
0.0002913
0.000295561
0.000331667
0.00032701
0.000323137
0.000343872
0.000343793
0.000339051
0.000345019
0.000319396
0.000322985
0.000278959
0.00035499
0.000352796
0.000353053
0.0002686
0.000272296
0.000274249
0.000278556
0.000280909
0.000267893
0.000262251
0.000263424
0.000261729
0.000264005
0.000265039
0.000267726
0.000267387
0.00357184
0.00336702
0.00147912
0.00240477
0.00297804
0.00404432
0.00367068
0.00399276
0.00136668
0.000282343
5.23693e-05
0.000204216
0.000182294
0.00029124
0.000185053
0.000126638
0.000183031
0.000191129
0.0002353
0.0011595
0.000263725
0.000286979
0.000258555
0.000260211
0.00026048
0.000259163
0.000259371
0.000262668
0.00026157
0.000263251
0.000263214
0.000263638
0.000261351
2.21305e-05
0.000241143
5.86094e-05
0.000184333
0.000177598
0.000155099
0.000177291
0.000249508
0.000248481
0.000251857
0.000255457
0.000253265
0.000247397
0.000245469
0.000239745
0.000238556
0.000234394
0.000232902
0.000231136
0.000237702
0.000235471
0.000241763
0.000228931
0.000226947
0.000225557
0.000221926
0.000244289
0.000218569
0.000216879
0.000223248
0.000216987
0.000271222
0.000269327
0.000259792
0.000258542
0.000262502
0.00026587
0.000516723
7.62788e-05
0.000114092
0.000282923
0.000286089
0.000287566
0.000289738
0.000292508
0.00030702
0.000304706
0.00031073
0.000301895
0.000304027
0.00030085
0.000298411
0.000294622
0.000338934
0.000334618
0.000345839
0.000348185
0.000345778
0.00034679
0.000349872
0.000323648
0.000323633
0.000333234
0.000282089
0.00035169
0.00035107
0.000352008
0.000271959
0.000273865
0.00027705
0.000280857
0.000279806
0.000283413
0.000270053
0.00026532
0.000266587
0.000263348
0.000266268
0.00026838
0.000269642
0.00026895
0.000270061
0.00325139
0.00419078
0.00166344
0.00240339
0.00299169
0.00314881
0.0041983
0.00490828
0.00440529
0.00482838
0.00142265
0.00401974
0.000684593
0.000174743
0.00021783
0.00191299
0.000182954
9.17634e-05
0.000170888
0.00018858
0.000940838
0.00136253
0.000274355
0.000293631
0.000262544
0.00026555
0.00026404
0.000262957
0.000262527
0.000264515
0.000262958
0.000263761
0.000266772
0.000266814
0.000267137
4.14426e-05
3.29321e-05
0.000947568
0.000123397
0.000172828
0.000182
0.000176836
0.000175704
0.000178968
0.000250968
0.000249764
0.000252072
0.000256506
0.000254199
0.000247728
0.000246653
0.000240293
0.000239496
0.000233401
0.000232674
0.000231586
0.00023802
0.000235858
0.000242128
0.000228976
0.000227119
0.00022479
0.000221834
0.00024426
0.000218586
0.000214602
0.000220064
0.000224059
0.000273643
0.000269696
0.000261218
0.00025872
0.000264059
0.000268134
0.00026557
0.000374105
5.98274e-05
0.000175496
0.00028558
0.000287871
0.000289665
0.000292074
0.000295351
0.000310195
0.000308558
0.000316657
0.000304621
0.000306582
0.000304577
0.000300243
0.000296181
0.000340217
0.000345672
0.000336995
0.000348512
0.000348797
0.000347716
0.000352149
0.000331564
0.000322152
0.00033344
0.000336211
0.000283915
0.000351114
0.00035028
0.000272341
0.000273879
0.000276982
0.000279282
0.000283152
0.000282603
0.000284995
0.000267551
0.000269059
0.000266846
0.000269633
0.000270641
0.000272892
0.000272165
0.00027269
0.00290538
0.00311636
0.0023522
0.00245338
0.00218758
0.001866
0.00417787
0.0045866
0.00544127
0.00551059
0.00359285
0.00549215
0.00174116
0.000541976
0.00017018
0.00362015
0.00261783
0.000191918
3.56543e-05
0.000758243
0.000195682
0.0013542
0.00193649
0.000271198
0.000275833
0.000266383
0.000268846
0.000268682
0.000266547
0.000267269
0.000267131
0.00026701
0.000268158
0.000268252
0.000268378
0.000268757
3.87605e-05
1.8909e-05
0.000220053
0.000141564
0.000169685
0.000181436
0.000173501
0.000174603
0.000176035
0.000250932
0.000250212
0.000253307
0.000258053
0.000255683
0.000249239
0.000246542
0.000241368
0.000239968
0.000233704
0.000231264
0.000239197
0.000237136
0.000235107
0.000243367
0.000228353
0.000230263
0.000226618
0.000225291
0.000223545
0.000220574
0.000245453
0.000217438
0.000212048
0.000215564
0.000223922
0.000213114
0.000275362
0.000272723
0.000261541
0.000260432
0.000264386
0.000268837
0.000267164
0.00112438
0.000122549
3.15414e-05
0.000172673
0.000287212
0.000290393
0.000291542
0.000294353
0.000296869
0.000315968
0.000312955
0.000306774
0.000310557
0.000305338
0.000303715
0.000298838
0.000345177
0.000347061
0.000343516
0.000347984
0.000348431
0.000347231
0.000349555
0.000335976
0.000328532
0.000334767
0.000342161
0.000286441
0.000352289
0.000349552
0.000274827
0.000276992
0.000278476
0.000281193
0.000284978
0.000284278
0.000287488
0.000270668
0.000271936
0.000268921
0.000271588
0.00027372
0.000274506
0.000274509
0.000274413
0.000274956
0.00145601
0.00188529
0.0022616
0.0021568
0.00195809
0.00156625
0.00102662
0.00262972
0.00408259
0.00583055
0.0041261
0.003878
0.00665023
0.0028298
0.000526619
1.40878e-05
0.00642002
0.00552152
0.000189973
0.000156511
0.0013288
0.000640143
0.000173819
0.00197545
0.00227631
0.000248002
0.000281938
0.000272379
0.000275766
0.000273267
0.000269486
0.000269013
0.000269035
0.000270556
0.000270833
0.000271256
0.000271697
8.33661e-05
8.0943e-06
0.000909471
2.87212e-05
0.000137284
0.000175967
0.000178067
0.000172714
0.000172676
0.000181362
0.000252239
0.00025155
0.000253787
0.000259164
0.000256342
0.000249444
0.000247671
0.000241975
0.0002413
0.000233387
0.000232284
0.000240078
0.000237369
0.000235261
0.000243869
0.00022916
0.000230247
0.000227468
0.000225582
0.000222816
0.000221238
0.00024586
0.000218584
0.00021245
0.000214489
0.000220911
0.000209097
0.000278179
0.00027514
0.000272931
0.000263094
0.000260642
0.000266245
0.000270992
0.00026785
0.000548458
0.000111103
8.14965e-05
0.000201698
0.000289691
0.000292094
0.000290749
0.000293899
0.000296622
0.000299474
0.000321127
0.000320417
0.000311989
0.000314808
0.000311689
0.000305802
0.00030642
0.000300673
0.000345922
0.000346817
0.000344518
0.000347135
0.000348247
0.000349278
0.000346661
0.000348759
0.000342466
0.0003283
0.000338305
0.000288236
0.000351861
0.000356044
0.000277115
0.000278942
0.000280685
0.000283535
0.00028686
0.000286622
0.000288537
0.000272205
0.000274406
0.000271405
0.000274512
0.000275424
0.00027693
0.000277334
0.000277249
0.000277313
0.000858683
0.00168116
0.00208291
0.000898454
0.000612796
0.000348901
0.00219677
0.00414851
0.00622307
0.00259749
0.00625383
0.00665914
0.00429998
0.00190456
0.000249148
0.00687719
0.00762398
0.000183449
0.000189229
9.7805e-05
0.00164477
0.000923573
0.00187925
0.00165549
2.05908e-05
0.000232285
0.000276461
0.000278133
0.000278483
0.000279736
0.000273653
0.000272421
0.000273565
0.000272136
0.000272702
0.000273503
0.000274586
8.10646e-05
4.27311e-05
0.000350618
1.0785e-05
0.000156379
0.000173587
0.00017747
0.000168683
0.000172738
0.000176125
0.00025342
0.000252261
0.000255448
0.000259229
0.000258035
0.000248819
0.000250966
0.000247089
0.000243231
0.000242262
0.000234258
0.000232219
0.000241695
0.000239788
0.000236268
0.000238651
0.000245162
0.00022868
0.000231191
0.00022691
0.000224696
0.000223165
0.000220326
0.000217535
0.000211217
0.000215557
0.000211076
0.00022142
0.00020908
0.000280797
0.000278579
0.000275651
0.000263571
0.000262105
0.000267119
0.000272134
0.000270537
0.000468431
4.25339e-05
6.20614e-05
0.000198897
0.000291092
0.000293894
0.00029314
0.000295153
0.00029903
0.000301135
0.000323595
0.000324793
0.000317049
0.000322005
0.000310285
0.000316098
0.00031209
0.000304425
0.000345199
0.000346407
0.000344137
0.000348241
0.000349582
0.000350762
0.000347359
0.000355098
0.000343088
0.000333857
0.000338212
0.000342299
0.000290581
0.000362636
0.000367937
0.000278972
0.000280836
0.000282084
0.000284665
0.00028749
0.000288339
0.000290607
0.000274887
0.00027404
0.000276185
0.000275934
0.000277737
0.000278449
0.000279235
0.000279057
0.000279174
7.70217e-05
0.000241021
0.00118685
0.000583581
0.000363776
0.000140636
4.10053e-05
0.00104169
0.00332976
0.0025016
0.00554152
0.00131368
0.00670375
0.00733964
0.00264313
0.00106132
0.00690108
0.00677182