/*--------------------------------*- C++ -*----------------------------------*\
| =========                 |                                                 |
| \\      /  F ield         | OpenFOAM: The Open Source CFD Toolbox           |
|  \\    /   O peration     | Version:  v2012                                 |
|   \\  /    A nd           | Website:  www.openfoam.com                      |
|    \\/     M anipulation  |                                                 |
\*---------------------------------------------------------------------------*/
FoamFile
{
    version     2.0;
    format      ascii;
    class       volScalarField;
    location    "0.7";
    object      nut;
}
// * * * * * * * * * * * * * * * * * * * * * * * * * * * * * * * * * * * * * //

dimensions      [0 2 -1 0 0 0 0];


internalField   nonuniform List<scalar> 
13611
(
1.05735e-05
1.0082e-05
1.30877e-05
1.05901e-05
1.08785e-05
1.11716e-05
9.7692e-06
1.16832e-05
1.11728e-05
1.09772e-05
1.12019e-05
1.0059e-05
1.05792e-05
1.31754e-05
1.11696e-05
1.10268e-05
1.11722e-05
1.11592e-05
9.32531e-06
1.05729e-05
1.16258e-05
1.11873e-05
1.11806e-05
1.116e-05
1.11637e-05
1.11688e-05
9.56009e-06
1.09219e-05
1.30965e-05
1.11943e-05
1.11796e-05
1.11682e-05
1.11592e-05
1.11583e-05
1.11403e-05
9.66666e-06
1.06781e-05
1.18379e-05
1.11978e-05
1.11873e-05
1.11634e-05
1.11524e-05
1.11513e-05
1.11552e-05
9.26631e-06
1.08004e-05
1.31433e-05
9.37698e-06
1.11966e-05
1.12105e-05
1.11845e-05
1.11716e-05
1.11526e-05
1.11455e-05
1.11399e-05
1.11664e-05
1.01664e-05
1.1029e-05
1.20321e-05
8.87381e-06
1.12088e-05
1.12184e-05
1.11932e-05
1.11715e-05
1.12362e-05
1.11493e-05
1.11636e-05
1.1143e-05
1.11341e-05
1.11482e-05
1.00822e-05
1.10711e-05
1.30184e-05
8.69452e-06
1.12152e-05
1.12299e-05
1.11931e-05
1.12078e-05
1.11832e-05
1.11576e-05
1.11661e-05
1.11412e-05
1.11234e-05
1.11349e-05
1.11465e-05
1.07064e-05
1.11311e-05
1.22931e-05
7.77093e-06
1.1238e-05
1.12407e-05
1.12044e-05
1.12145e-05
1.11851e-05
1.12589e-05
1.11597e-05
1.11759e-05
1.1151e-05
1.11218e-05
1.11315e-05
1.113e-05
1.06355e-05
1.11344e-05
1.1237e-05
8.29021e-06
1.1249e-05
1.12458e-05
1.12081e-05
1.1233e-05
1.11992e-05
1.12763e-05
1.12925e-05
1.11734e-05
1.11814e-05
1.11526e-05
1.11224e-05
1.11397e-05
1.1116e-05
1.11217e-05
1.1e-05
1.11133e-05
1.11227e-05
1.30854e-05
7.14561e-06
7.07961e-06
1.12707e-05
1.12702e-05
1.12236e-05
1.12363e-05
1.11948e-05
1.13083e-05
1.11755e-05
1.11665e-05
1.1149e-05
1.11335e-05
1.11117e-05
1.11067e-05
1.0795e-05
1.11102e-05
1.11098e-05
1.1903e-05
4.63762e-06
9.0676e-06
1.12856e-05
1.12762e-05
1.12865e-05
1.12341e-05
1.12562e-05
1.12026e-05
1.13068e-05
1.13264e-05
1.1189e-05
1.11682e-05
1.11574e-05
1.11407e-05
1.11254e-05
1.11052e-05
1.11829e-05
1.11473e-05
1.11039e-05
1.1097e-05
1.11052e-05
1.30666e-05
8.39956e-06
8.03221e-06
1.12722e-05
1.12981e-05
1.13086e-05
1.12357e-05
1.12543e-05
1.12011e-05
1.12241e-05
1.13283e-05
1.13503e-05
1.1189e-05
1.11787e-05
1.11632e-05
1.11375e-05
1.11571e-05
1.11306e-05
1.11219e-05
1.02501e-05
1.11271e-05
1.10902e-05
1.10972e-05
1.10913e-05
1.19144e-05
5.11438e-06
1.12905e-05
1.13117e-05
1.13049e-05
1.13289e-05
1.12569e-05
1.12685e-05
1.12198e-05
1.12329e-05
1.13513e-05
1.13745e-05
1.12056e-05
1.11765e-05
1.11483e-05
1.11674e-05
1.11425e-05
1.11223e-05
1.03647e-05
1.11227e-05
1.10904e-05
1.10832e-05
1.10892e-05
1.11127e-05
8.34469e-06
1.30354e-05
9.13048e-06
1.1288e-05
1.13336e-05
1.13255e-05
1.13576e-05
1.1262e-05
1.12705e-05
1.12219e-05
1.12514e-05
1.13802e-05
1.1408e-05
1.12079e-05
1.11906e-05
1.11616e-05
1.11849e-05
1.11543e-05
1.11339e-05
1.08761e-05
1.11223e-05
1.1075e-05
1.10846e-05
1.1103e-05
1.11166e-05
5.83318e-06
1.17828e-05
9.72461e-06
1.12983e-05
1.13403e-05
1.13556e-05
1.13364e-05
1.13843e-05
1.12785e-05
1.12858e-05
1.12417e-05
1.12578e-05
1.14107e-05
1.12246e-05
1.11941e-05
1.11764e-05
1.1199e-05
1.11539e-05
1.11729e-05
1.11465e-05
1.11259e-05
1.06594e-05
1.11262e-05
1.1071e-05
1.10699e-05
1.10796e-05
1.10987e-05
1.11067e-05
7.06392e-06
8.9071e-06
1.29577e-05
1.13205e-05
1.13639e-05
1.13802e-05
1.1366e-05
1.13367e-05
1.14293e-05
1.12909e-05
1.12862e-05
1.12413e-05
1.12571e-05
1.12767e-05
1.14487e-05
1.12312e-05
1.12194e-05
1.11955e-05
1.12188e-05
1.11739e-05
1.1191e-05
1.11588e-05
1.1132e-05
1.0903e-05
1.10889e-05
1.10632e-05
1.10519e-05
1.10712e-05
1.10916e-05
1.11072e-05
1.11221e-05
6.30019e-06
9.36516e-06
1.22723e-05
1.13279e-05
1.13803e-05
1.14173e-05
1.13842e-05
1.13655e-05
1.14425e-05
1.14628e-05
1.13123e-05
1.13074e-05
1.12557e-05
1.12715e-05
1.12839e-05
1.14992e-05
1.15151e-05
1.12472e-05
1.12126e-05
1.12372e-05
1.11742e-05
1.11903e-05
1.1211e-05
1.11592e-05
1.11482e-05
1.04821e-05
1.11062e-05
1.10504e-05
1.10612e-05
1.10843e-05
1.11044e-05
1.11263e-05
1.11339e-05
8.31276e-06
1.1292e-05
1.13505e-05
1.1425e-05
1.14458e-05
1.14183e-05
1.13719e-05
1.1497e-05
1.1504e-05
1.13201e-05
1.13164e-05
1.12706e-05
1.12776e-05
1.13035e-05
1.15291e-05
1.15767e-05
1.12626e-05
1.12336e-05
1.12557e-05
1.11919e-05
1.12093e-05
1.12291e-05
1.11774e-05
1.11586e-05
1.0675e-05
1.10461e-05
1.10442e-05
1.10545e-05
1.10656e-05
1.10947e-05
1.11209e-05
1.11359e-05
1.11536e-05
1.95731e-06
1.30157e-05
4.74337e-06
1.13613e-05
1.14398e-05
1.14921e-05
1.14458e-05
1.14114e-05
1.15382e-05
1.15101e-05
1.15423e-05
1.13438e-05
1.13388e-05
1.12894e-05
1.13e-05
1.13113e-05
1.15822e-05
1.16062e-05
1.1286e-05
1.12595e-05
1.12451e-05
1.12664e-05
1.1192e-05
1.12092e-05
1.12284e-05
1.12451e-05
1.11753e-05
1.06335e-05
1.1038e-05
1.10798e-05
1.10614e-05
1.1083e-05
1.11134e-05
1.11236e-05
1.11562e-05
1.11704e-05
8.8509e-06
1.21588e-05
9.78994e-06
1.13931e-05
1.14883e-05
1.15201e-05
1.14458e-05
1.14881e-05
1.14181e-05
1.15758e-05
1.15551e-05
1.15941e-05
1.13555e-05
1.13498e-05
1.13065e-05
1.13332e-05
1.16651e-05
1.13065e-05
1.12758e-05
1.1265e-05
1.1273e-05
1.12086e-05
1.12253e-05
1.12442e-05
1.12557e-05
1.11914e-05
1.09907e-05
1.10237e-05
1.10499e-05
1.10833e-05
1.10401e-05
1.10826e-05
1.10951e-05
1.11303e-05
1.11486e-05
1.1169e-05
1.11704e-05
1.11904e-05
9.47012e-06
1.03332e-05
1.30047e-05
8.20264e-06
1.12457e-05
1.11627e-05
1.14147e-05
1.15212e-05
1.15595e-05
1.1489e-05
1.15278e-05
1.14618e-05
1.16315e-05
1.16504e-05
1.13953e-05
1.13836e-05
1.13271e-05
1.13446e-05
1.17006e-05
1.17015e-05
1.12986e-05
1.13302e-05
1.12686e-05
1.12937e-05
1.12092e-05
1.1225e-05
1.12422e-05
1.12613e-05
1.12645e-05
1.07283e-05
1.10327e-05
1.10635e-05
1.10642e-05
1.10238e-05
1.11036e-05
1.11214e-05
1.11515e-05
1.1135e-05
1.11673e-05
1.11891e-05
1.11906e-05
1.12091e-05
1.04947e-05
1.21704e-05
9.16807e-06
1.11845e-05
1.12317e-05
1.1154e-05
9.98213e-06
1.31045e-05
1.14531e-05
1.15738e-05
1.16146e-05
1.15295e-05
1.1493e-05
1.15731e-05
1.16644e-05
1.1677e-05
1.17027e-05
1.14079e-05
1.13986e-05
1.13371e-05
1.13771e-05
1.17772e-05
1.13083e-05
1.13548e-05
1.12871e-05
1.13105e-05
1.12292e-05
1.12391e-05
1.12596e-05
1.12829e-05
1.12841e-05
1.0946e-05
1.10225e-05
1.10555e-05
1.10929e-05
1.10514e-05
1.10123e-05
1.11293e-05
1.11333e-05
1.11689e-05
1.11626e-05
1.11882e-05
1.12081e-05
1.12085e-05
1.12293e-05
7.63127e-06
1.29285e-05
8.32597e-06
1.07217e-05
1.09887e-05
1.11541e-05
1.1239e-05
1.11408e-05
9.88832e-06
1.12156e-05
1.14867e-05
1.16195e-05
1.16731e-05
1.15792e-05
1.15392e-05
1.16114e-05
1.17445e-05
1.17427e-05
1.17773e-05
1.14521e-05
1.14325e-05
1.13789e-05
1.13974e-05
1.17989e-05
1.18179e-05
1.1339e-05
1.13857e-05
1.13722e-05
1.13061e-05
1.13371e-05
1.12441e-05
1.12572e-05
1.12801e-05
1.13023e-05
1.12993e-05
1.10397e-05
1.10733e-05
1.11145e-05
1.10427e-05
1.10061e-05
1.11528e-05
1.11612e-05
1.11772e-05
1.11879e-05
1.11732e-05
1.12085e-05
1.12288e-05
1.12284e-05
1.12504e-05
8.91112e-06
1.23698e-05
9.33037e-06
1.09028e-05
1.11828e-05
1.11398e-05
1.11975e-05
1.11718e-05
1.11554e-05
1.12005e-05
1.00001e-05
1.31076e-05
1.14867e-05
1.15341e-05
1.16715e-05
1.17319e-05
1.16195e-05
1.15812e-05
1.15471e-05
1.16717e-05
1.17952e-05
1.1786e-05
1.14598e-05
1.14597e-05
1.14423e-05
1.18768e-05
1.18521e-05
1.18622e-05
1.13652e-05
1.14209e-05
1.14135e-05
1.133e-05
1.13645e-05
1.12634e-05
1.12757e-05
1.13031e-05
1.13323e-05
1.13242e-05
1.1023e-05
1.10661e-05
1.10784e-05
1.11041e-05
1.11504e-05
1.1048e-05
1.1004e-05
1.11661e-05
1.11748e-05
1.12007e-05
1.12105e-05
1.11998e-05
1.12312e-05
1.12509e-05
1.12496e-05
1.12764e-05
2.1051e-07
1.16104e-05
1.07164e-05
8.79991e-06
1.10112e-05
1.0953e-05
1.11283e-05
1.11469e-05
1.12003e-05
1.11885e-05
1.11572e-05
1.1212e-05
9.90905e-06
1.10201e-05
1.15398e-05
1.157e-05
1.17283e-05
1.16921e-05
1.17848e-05
1.16722e-05
1.16374e-05
1.1595e-05
1.17044e-05
1.18683e-05
1.18598e-05
1.15038e-05
1.15002e-05
1.14623e-05
1.18828e-05
1.19139e-05
1.14017e-05
1.14528e-05
1.14499e-05
1.13591e-05
1.13966e-05
1.12836e-05
1.12961e-05
1.13313e-05
1.13494e-05
1.13422e-05
1.10437e-05
1.10933e-05
1.111e-05
1.11247e-05
1.1177e-05
1.10053e-05
1.09822e-05
1.12106e-05
1.11998e-05
1.12167e-05
1.12314e-05
1.1219e-05
1.12536e-05
1.12744e-05
1.12726e-05
1.1298e-05
1.11545e-05
1.29239e-05
1.09634e-05
9.31773e-06
1.10181e-05
1.10774e-05
1.11266e-05
1.11413e-05
1.11434e-05
1.11761e-05
1.11921e-05
1.11793e-05
1.1212e-05
9.59469e-06
1.30981e-05
1.15401e-05
1.15784e-05
1.16044e-05
1.17775e-05
1.17526e-05
1.18422e-05
1.16952e-05
1.16336e-05
1.16895e-05
1.17575e-05
1.19232e-05
1.18898e-05
1.18881e-05
1.15366e-05
1.15169e-05
1.1972e-05
1.19529e-05
1.19713e-05
1.14443e-05
1.14917e-05
1.14925e-05
1.13885e-05
1.14349e-05
1.13188e-05
1.13247e-05
1.13602e-05
1.138e-05
1.13845e-05
1.10377e-05
1.10862e-05
1.11202e-05
1.11603e-05
1.12121e-05
1.09922e-05
1.10056e-05
1.12296e-05
1.12277e-05
1.12528e-05
1.12643e-05
1.12589e-05
1.12894e-05
1.13103e-05
1.12965e-05
1.13375e-05
1.00702e-05
1.18188e-05
1.07074e-05
8.77363e-06
1.10037e-05
1.02699e-05
1.11129e-05
1.11581e-05
1.11327e-05
1.12128e-05
1.12047e-05
1.11844e-05
1.12244e-05
1.12159e-05
1.15238e-05
1.15768e-05
1.16223e-05
1.16379e-05
1.18337e-05
1.17861e-05
1.18596e-05
1.17605e-05
1.16651e-05
1.17494e-05
1.17887e-05
1.19806e-05
1.19603e-05
1.19443e-05
1.15448e-05
1.1578e-05
1.15279e-05
1.20062e-05
1.2005e-05
1.14781e-05
1.15358e-05
1.14265e-05
1.14741e-05
1.13561e-05
1.13584e-05
1.13902e-05
1.1406e-05
1.14104e-05
1.10738e-05
1.11229e-05
1.11562e-05
1.11909e-05
1.12494e-05
1.099e-05
1.10025e-05
1.12742e-05
1.12968e-05
1.12804e-05
1.12781e-05
1.12993e-05
1.12861e-05
1.13205e-05
1.13436e-05
1.13364e-05
1.13604e-05
1.13588e-05
1.18867e-05
1.29047e-05
1.08899e-05
9.15473e-06
1.09947e-05
1.01485e-05
1.11342e-05
1.11798e-05
1.11575e-05
1.11235e-05
1.1119e-05
1.08206e-05
1.11945e-05
1.12047e-05
1.1199e-05
1.12381e-05
1.12169e-05
1.31299e-05
9.70089e-06
1.16272e-05
1.16475e-05
1.16583e-05
1.1881e-05
1.18579e-05
1.19331e-05
1.17924e-05
1.17199e-05
1.17568e-05
1.18508e-05
1.1992e-05
1.20144e-05
1.1976e-05
1.19663e-05
1.15922e-05
1.16222e-05
1.15728e-05
1.20182e-05
1.20214e-05
1.15249e-05
1.15425e-05
1.1578e-05
1.14597e-05
1.15168e-05
1.14004e-05
1.14001e-05
1.14285e-05
1.14479e-05
1.14557e-05
1.10751e-05
1.11176e-05
1.1177e-05
1.11971e-05
1.12462e-05
1.12809e-05
1.13047e-05
1.09779e-05
1.10365e-05
1.13216e-05
1.13324e-05
1.13337e-05
1.13275e-05
1.13578e-05
1.13496e-05
1.13653e-05
1.13813e-05
1.13959e-05
1.14082e-05
9.63557e-06
1.17289e-05
1.05381e-05
1.09796e-05
8.46191e-06
1.09915e-05
1.09771e-05
1.11307e-05
1.11864e-05
1.11709e-05
1.11103e-05
1.11247e-05
1.07829e-05
1.12002e-05
1.12091e-05
1.12004e-05
1.12386e-05
1.12281e-05
1.16659e-05
9.00032e-06
1.16556e-05
1.17185e-05
1.17189e-05
1.19345e-05
1.18848e-05
1.18521e-05
1.17502e-05
1.18156e-05
1.18852e-05
1.20065e-05
1.20151e-05
1.20044e-05
1.20046e-05
1.16068e-05
1.16304e-05
1.20188e-05
1.19871e-05
1.15524e-05
1.15961e-05
1.16197e-05
1.1507e-05
1.15255e-05
1.15551e-05
1.14466e-05
1.14378e-05
1.14644e-05
1.14801e-05
1.11437e-05
1.11773e-05
1.12442e-05
1.12938e-05
1.1326e-05
1.13525e-05
1.13713e-05
1.09973e-05
1.10527e-05
1.13291e-05
1.13703e-05
1.1398e-05
1.13725e-05
1.13555e-05
1.13657e-05
1.13931e-05
1.13989e-05
1.14249e-05
1.14323e-05
1.1447e-05
1.15698e-05
1.28665e-05
1.07596e-05
1.0959e-05
9.09162e-06
1.09736e-05
1.09636e-05
1.11493e-05
1.1184e-05
1.11963e-05
1.11732e-05
1.11158e-05
1.10984e-05
1.11434e-05
1.09945e-05
9.45337e-06
1.11828e-05
1.11404e-05
1.12128e-05
1.12065e-05
1.12672e-05
1.12524e-05
1.12343e-05
1.30396e-05
1.17199e-05
1.17517e-05
1.17489e-05
1.19745e-05
1.19477e-05
1.18888e-05
1.17972e-05
1.1873e-05
1.19405e-05
1.20052e-05
1.20053e-05
1.19927e-05
1.20076e-05
1.20029e-05
1.16588e-05
1.16771e-05
1.19536e-05
1.19421e-05
1.15929e-05
1.16302e-05
1.16739e-05
1.15353e-05
1.15763e-05
1.15903e-05
1.14996e-05
1.1482e-05
1.1513e-05
1.15226e-05
1.11568e-05
1.11143e-05
1.12334e-05
1.13233e-05
1.13443e-05
1.1437e-05
1.14463e-05
1.14322e-05
1.09897e-05
1.10358e-05
1.1419e-05
1.14434e-05
1.14446e-05
1.14358e-05
1.14064e-05
1.1424e-05
1.14468e-05
1.14545e-05
1.14765e-05
1.1487e-05
1.14926e-05
1.01228e-05
1.16815e-05
1.05444e-05
1.09785e-05
8.79069e-06
1.09669e-05
1.09769e-05
1.11685e-05
1.11905e-05
1.12025e-05
1.11851e-05
1.11293e-05
1.10924e-05
1.11553e-05
1.10496e-05
8.94995e-06
1.12e-05
1.11175e-05
1.12275e-05
1.1217e-05
1.12651e-05
1.12479e-05
1.16341e-05
1.17423e-05
1.18043e-05
1.18122e-05
1.19794e-05
1.20099e-05
1.19604e-05
1.19554e-05
1.18378e-05
1.19157e-05
1.19659e-05
1.19393e-05
1.19601e-05
1.19127e-05
1.19697e-05
1.19856e-05
1.16939e-05
1.169e-05
1.17279e-05
1.18691e-05
1.17807e-05
1.16187e-05
1.16862e-05
1.17167e-05
1.15727e-05
1.16042e-05
1.15447e-05
1.15101e-05
1.15222e-05
1.15552e-05
1.15548e-05
1.10517e-05
1.12916e-05
1.13399e-05
1.14147e-05
1.14791e-05
1.1532e-05
1.15495e-05
1.15288e-05
1.0956e-05
1.10677e-05
1.14637e-05
1.15056e-05
1.15649e-05
1.14586e-05
1.1502e-05
1.14853e-05
1.14764e-05
1.14857e-05
1.15282e-05
1.15335e-05
1.15049e-05
1.15413e-05
1.13949e-05
1.28058e-05
1.07583e-05
1.09636e-05
8.54657e-06
1.0959e-05
1.09619e-05
1.11747e-05
1.11989e-05
1.12135e-05
1.1189e-05
1.11282e-05
1.11515e-05
1.11144e-05
1.10844e-05
1.11714e-05
1.03491e-05
1.11681e-05
9.30945e-06
1.11358e-05
1.12299e-05
1.12802e-05
1.12583e-05
1.29678e-05
1.18081e-05
1.18459e-05
1.18337e-05
1.19886e-05
1.19768e-05
1.19847e-05
1.19708e-05
1.18999e-05
1.1965e-05
1.19881e-05
1.19294e-05
1.18523e-05
1.18384e-05
1.18012e-05
1.18891e-05
1.17452e-05
1.17558e-05
1.17666e-05
1.15598e-05
1.16994e-05
1.17084e-05
1.16353e-05
1.16716e-05
1.17058e-05
1.17704e-05
1.16108e-05
1.16574e-05
1.1599e-05
1.15707e-05
1.15789e-05
1.15937e-05
1.16011e-05
1.19891e-05
1.15764e-05
1.11923e-05
1.13845e-05
1.15786e-05
1.16049e-05
1.16382e-05
1.16692e-05
1.16016e-05
1.0931e-05
1.10301e-05
1.15534e-05
1.15869e-05
1.16171e-05
1.15312e-05
1.15971e-05
1.15493e-05
1.15082e-05
1.15536e-05
1.15557e-05
1.15889e-05
1.1578e-05
1.15656e-05
1.15876e-05
9.88086e-06
1.16861e-05
1.07586e-05
1.09759e-05
8.20802e-06
1.00556e-05
1.09707e-05
1.09548e-05
1.11841e-05
1.12081e-05
1.12248e-05
1.12013e-05
1.11463e-05
1.11583e-05
1.11198e-05
1.10865e-05
1.11776e-05
1.01225e-05
1.11949e-05
8.76438e-06
1.1104e-05
1.12417e-05
1.13049e-05
1.12756e-05
1.12991e-05
1.12564e-05
1.22391e-05
1.18053e-05
1.18462e-05
1.19006e-05
1.18947e-05
1.19919e-05
1.19833e-05
1.19161e-05
1.19819e-05
1.19331e-05
1.19775e-05
1.19863e-05
1.17931e-05
1.16345e-05
1.16369e-05
1.1603e-05
1.17473e-05
1.17766e-05
1.17889e-05
1.1321e-05
1.13882e-05
1.13983e-05
1.16942e-05
1.177e-05
1.18111e-05
1.16648e-05
1.16835e-05
1.16521e-05
1.16129e-05
1.16101e-05
1.16388e-05
1.16432e-05
1.42066e-05
1.16258e-05
1.17105e-05
1.19546e-05
1.22602e-05
1.19552e-05
1.16719e-05
1.15492e-05
1.16737e-05
1.16617e-05
1.09413e-05
1.15793e-05
1.16235e-05
1.16731e-05
1.17808e-05
1.16084e-05
1.16778e-05
1.16276e-05
1.15891e-05
1.16017e-05
1.16175e-05
1.16536e-05
1.16394e-05
1.15986e-05
1.16442e-05
1.17005e-05
1.27206e-05
1.09183e-05
1.09822e-05
7.56037e-06
9.99772e-06
1.09222e-05
1.09354e-05
1.11926e-05
1.12099e-05
1.12222e-05
1.12426e-05
1.12029e-05
1.11583e-05
1.11454e-05
1.11719e-05
1.11354e-05
1.11092e-05
1.10729e-05
1.11781e-05
1.1189e-05
1.05742e-05
1.11444e-05
1.10921e-05
9.23581e-06
1.10945e-05
1.12486e-05
1.12931e-05
1.13202e-05
1.1272e-05
1.18341e-05
1.18486e-05
1.19023e-05
1.19369e-05
1.19328e-05
1.19588e-05
1.19236e-05
1.18306e-05
1.19682e-05
1.19757e-05
1.1976e-05
1.19804e-05
1.19666e-05
1.16349e-05
1.17012e-05
1.14483e-05
1.14528e-05
1.1361e-05
1.15975e-05
1.18335e-05
1.18422e-05
1.12589e-05
1.12737e-05
1.17497e-05
1.1786e-05
1.1814e-05
1.18636e-05
1.17064e-05
1.17457e-05
1.171e-05
1.16781e-05
1.16619e-05
1.16874e-05
1.16959e-05
1.07117e-05
1.16773e-05
1.19924e-05
1.17845e-05
1.16779e-05
1.18033e-05
1.17514e-05
1.22798e-05
1.21825e-05
1.11561e-05
1.17308e-05
1.1671e-05
1.07928e-05
1.13922e-05
1.14085e-05
1.17254e-05
1.17634e-05
1.17958e-05
1.17008e-05
1.17669e-05
1.16451e-05
1.17102e-05
1.16855e-05
1.16827e-05
1.17334e-05
1.16808e-05
1.165e-05
1.16828e-05
9.48657e-06
1.22792e-05
1.08816e-05
1.09547e-05
9.03906e-06
1.04421e-05
1.09405e-05
1.12262e-05
1.12345e-05
1.12546e-05
1.12197e-05
1.11673e-05
1.11541e-05
1.1175e-05
1.11386e-05
1.11155e-05
1.10879e-05
1.1189e-05
1.1197e-05
1.02155e-05
1.11465e-05
1.11752e-05
8.48151e-06
1.10756e-05
1.1266e-05
1.13551e-05
1.12888e-05
1.13156e-05
1.13485e-05
1.30915e-05
9.75567e-06
1.18988e-05
1.19431e-05
1.19655e-05
1.19621e-05
1.19192e-05
1.18502e-05
1.1643e-05
1.19168e-05
1.19444e-05
1.19779e-05
1.19422e-05
1.19179e-05
1.14478e-05
1.14892e-05
1.12865e-05
1.12764e-05
1.12993e-05
1.15616e-05
1.14045e-05
1.18626e-05
1.18704e-05
1.15441e-05
1.1219e-05
1.11389e-05
1.17727e-05
1.18389e-05
1.18678e-05
1.19013e-05
1.17585e-05
1.17723e-05
1.17506e-05
1.17138e-05
1.17048e-05
1.17066e-05
1.17351e-05
1.17448e-05
7.20191e-07
1.75115e-06
9.85823e-06
8.92056e-06
1.06077e-05
8.5648e-06
7.68236e-06
1.50145e-05
1.55042e-05
1.19433e-05
1.22316e-05
1.14704e-05
1.09748e-05
1.14051e-05
1.16117e-05
1.08155e-05
1.18287e-05
1.19621e-05
1.17742e-05
1.18246e-05
1.17396e-05
1.17779e-05
1.17499e-05
1.17091e-05
1.17535e-05
1.17901e-05
1.17463e-05
1.17404e-05
9.12836e-06
1.1089e-05
1.09975e-05
1.09414e-05
8.92798e-06
1.04246e-05
1.09138e-05
1.12326e-05
1.12376e-05
1.12507e-05
1.12729e-05
1.12234e-05
1.11713e-05
1.11481e-05
1.11655e-05
1.11822e-05
1.1132e-05
1.11127e-05
1.10776e-05
1.11911e-05
1.12132e-05
1.06642e-05
1.11174e-05
1.10521e-05
7.00927e-06
1.1067e-05
1.12795e-05
1.13879e-05
1.13107e-05
1.13376e-05
1.13737e-05
1.30674e-05
7.83815e-06
1.19261e-05
1.19663e-05
1.19717e-05
1.19818e-05
1.17938e-05
1.1718e-05
1.15919e-05
1.18663e-05
1.18946e-05
1.18825e-05
1.19675e-05
1.19424e-05
1.18134e-05
1.12702e-05
1.1384e-05
1.12219e-05
1.12373e-05
1.1274e-05
1.13378e-05
1.12671e-05
1.19081e-05
1.19217e-05
1.13202e-05
1.14114e-05
1.18226e-05
1.1851e-05
1.18752e-05
1.19077e-05
1.19353e-05
1.18001e-05
1.18311e-05
1.18018e-05
1.17686e-05
1.17606e-05
1.17659e-05
1.17762e-05
1.17841e-05
1.17974e-05
1.59975e-05
2.41812e-06
5.70473e-06
1.13557e-05
1.04004e-05
3.60769e-06
9.05224e-06
8.95056e-06
1.26126e-05
1.47445e-05
1.4319e-05
1.21851e-05
1.1595e-05
1.08763e-05
1.13924e-05
1.08515e-05
9.69744e-06
1.18452e-05
1.1795e-05
1.18568e-05
1.1864e-05
1.17696e-05
1.18504e-05
1.18218e-05
1.17979e-05
1.18149e-05
1.18517e-05
1.17775e-05
1.1774e-05
9.03743e-07
1.28808e-05
3.90843e-06
1.09663e-05
1.07835e-05
1.09207e-05
9.95626e-06
1.09109e-05
1.12504e-05
1.12533e-05
1.12625e-05
1.12886e-05
1.12409e-05
1.11844e-05
1.11531e-05
1.1173e-05
1.11907e-05
1.11366e-05
1.11257e-05
1.10953e-05
1.12067e-05
1.12205e-05
9.58262e-06
1.10648e-05
1.10982e-05
1.1183e-05
1.1073e-05
1.13032e-05
1.14604e-05
1.14137e-05
1.13348e-05
1.13667e-05
1.14052e-05
1.24507e-05
7.76294e-06
1.19289e-05
1.19636e-05
1.19667e-05
1.19733e-05
1.19649e-05
1.19658e-05
1.16788e-05
1.17476e-05
1.14248e-05
1.17237e-05
1.17697e-05
1.17899e-05
1.1951e-05
1.18651e-05
1.12761e-05
1.12417e-05
1.14799e-05
1.12913e-05
1.14196e-05
1.13001e-05
1.12024e-05
1.19329e-05
1.20745e-05
1.28242e-05
1.19802e-05
1.18491e-05
1.18985e-05
1.19118e-05
1.19418e-05
1.19551e-05
1.18422e-05
1.18075e-05
1.1845e-05
1.18256e-05
1.182e-05
1.18227e-05
1.18418e-05
1.18466e-05
2.29776e-05
1.27039e-05
2.34939e-05
1.38359e-05
2.90525e-05
1.032e-05
1.22661e-05
1.69649e-05
7.13597e-06
4.41734e-06
1.50114e-05
1.26535e-05
1.29718e-05
1.11772e-05
1.10419e-05
1.11109e-05
1.14096e-05
9.7048e-06
8.39745e-06
1.17984e-05
1.14369e-05
1.18514e-05
1.18517e-05
1.18101e-05
1.18591e-05
1.18396e-05
1.18758e-05
1.18653e-05
1.18778e-05
1.18745e-05
1.18468e-05
1.18332e-05
9.37468e-06
1.17084e-05
2.75227e-05
1.09613e-05
1.0841e-05
1.09057e-05
9.86494e-06
1.09026e-05
1.12615e-05
1.12612e-05
1.12801e-05
1.13103e-05
1.12566e-05
1.12465e-05
1.11933e-05
1.11662e-05
1.11461e-05
1.11861e-05
1.12049e-05
1.11263e-05
1.11204e-05
1.10864e-05
1.12188e-05
1.12387e-05
9.73014e-06
1.10531e-05
1.10543e-05
1.11412e-05
1.07566e-05
1.10639e-05
1.13191e-05
1.15035e-05
1.14476e-05
1.1358e-05
1.13942e-05
1.14397e-05
1.18564e-05
5.99627e-06
1.19586e-05
1.19713e-05
1.19542e-05
1.19434e-05
1.19056e-05
1.14859e-05
1.15266e-05
1.13716e-05
1.16017e-05
1.16647e-05
1.1704e-05
1.16341e-05
1.19032e-05
1.17692e-05
1.14874e-05
1.12346e-05
1.20221e-05
1.20251e-05
1.17497e-05
1.20166e-05
1.12447e-05
1.12541e-05
1.19606e-05
1.38242e-05
1.29107e-05
1.18935e-05
1.19219e-05
1.19439e-05
1.19603e-05
1.19615e-05
1.18769e-05
1.18607e-05
1.18898e-05
1.18545e-05
1.18647e-05
1.18778e-05
1.18835e-05
1.18865e-05
3.30867e-05
2.73957e-05
2.9512e-05
2.65616e-05
2.98735e-05
3.41057e-05
2.94343e-05
2.27375e-05
2.25786e-05
1.32285e-05
3.03611e-06
4.99343e-06
1.21088e-05
2.16894e-07
1.27393e-05
1.0945e-05
1.04944e-05
1.13787e-05
7.20661e-06
1.32662e-05
1.16102e-05
1.15207e-05
1.18078e-05
1.18207e-05
1.17365e-05
1.18692e-05
1.18822e-05
1.18912e-05
1.18822e-05
1.19119e-05
1.19095e-05
1.18634e-05
1.03108e-05
1.18942e-05
1.28462e-05
1.04061e-05
1.09255e-05
1.09243e-05
1.04352e-05
1.08915e-05
1.12811e-05
1.12848e-05
1.12938e-05
1.13338e-05
1.12716e-05
1.12629e-05
1.12112e-05
1.11702e-05
1.115e-05
1.12006e-05
1.12191e-05
1.11411e-05
1.1128e-05
1.10988e-05
1.12356e-05
1.12471e-05
1.10476e-05
1.11095e-05
1.08928e-05
1.10709e-05
1.1354e-05
1.15143e-05
1.14821e-05
1.13891e-05
1.13685e-05
1.14316e-05
1.14793e-05
1.29765e-05
9.48832e-06
9.42142e-06
1.19653e-05
1.19423e-05
1.19323e-05
1.19021e-05
1.18311e-05
1.14133e-05
1.1493e-05
1.12638e-05
1.14416e-05
1.14744e-05
1.14725e-05
1.18146e-05
1.16383e-05
1.18629e-05
1.15464e-05
1.13678e-05
1.3375e-05
1.36639e-05
1.22581e-05
1.28049e-05
1.13103e-05
1.15029e-05
1.19589e-05
1.35053e-05
1.36528e-05
1.40714e-05
1.19106e-05
1.1945e-05
1.1951e-05
1.19548e-05
1.19314e-05
1.19093e-05
1.18944e-05
1.19103e-05
1.19026e-05
1.19079e-05
1.19092e-05
1.19299e-05
1.19206e-05
3.62969e-05
3.52245e-05
3.07744e-05
3.39791e-05
3.45738e-05
3.71596e-05
3.51391e-05
3.23046e-05
1.70223e-05
5.89154e-06
2.06626e-06
9.51576e-06
3.98057e-06
1.38421e-05
1.11568e-05
8.10422e-06
1.10582e-05
1.1442e-05
1.28905e-05
2.91369e-05
1.15965e-05
1.34787e-05
1.17386e-05
1.17573e-05
1.14652e-05
1.18106e-05
1.18902e-05
1.18832e-05
1.18393e-05
1.19085e-05
1.18945e-05
1.1863e-05
1.19077e-05
1.24206e-05
1.1522e-05
1.03623e-05
1.09371e-05
1.09011e-05
1.04314e-05
1.08895e-05
1.12956e-05
1.1301e-05
1.13188e-05
1.13608e-05
1.13355e-05
1.12916e-05
1.12754e-05
1.12207e-05
1.1223e-05
1.11864e-05
1.11635e-05
1.11506e-05
1.12202e-05
1.11986e-05
1.12362e-05
1.11401e-05
1.11293e-05
1.11203e-05
1.10891e-05
1.12646e-05
1.10611e-05
1.10441e-05
1.11127e-05
1.10758e-05
1.1583e-05
1.15543e-05
1.14119e-05
1.13994e-05
1.14562e-05
1.15104e-05
1.23278e-05
8.05014e-06
9.40596e-06
1.19334e-05
1.18692e-05
1.18554e-05
1.18032e-05
1.17059e-05
1.12617e-05
1.13316e-05
1.1246e-05
1.13833e-05
1.1313e-05
1.13941e-05
1.14637e-05
1.16688e-05
1.3049e-05
1.25135e-05
1.40957e-05
1.43339e-05
1.42299e-05
1.39125e-05
1.44934e-05
1.15701e-05
1.16961e-05
1.24682e-05
1.19442e-05
1.05232e-05
1.18842e-05
1.40625e-05
1.19429e-05
1.19485e-05
1.19435e-05
1.19253e-05
1.19189e-05
1.18898e-05
1.19348e-05
1.1923e-05
1.19183e-05
1.19116e-05
1.19198e-05
1.19371e-05
1.19303e-05
1.19314e-05
1.19387e-05
3.40337e-05
3.64765e-05
3.2174e-05
3.44796e-05
3.47946e-05
3.39614e-05
3.60492e-05
3.69834e-05
3.31271e-05
3.64558e-05
1.78882e-05
3.12569e-05
1.1228e-05
4.1626e-06
1.02032e-05
1.73863e-05
1.11282e-05
6.12839e-06
1.05838e-05
1.13762e-05
2.78266e-05
3.09387e-05
1.23995e-05
1.4246e-05
1.14723e-05
1.15475e-05
1.15233e-05
1.17268e-05
1.18564e-05
1.18129e-05
1.17472e-05
1.17825e-05
1.18883e-05
1.1844e-05
1.17707e-05
1.06184e-05
1.26258e-05
1.28678e-05
1.03165e-05
1.071e-05
1.09538e-05
1.09083e-05
1.08673e-05
1.09888e-05
1.13264e-05
1.13279e-05
1.13373e-05
1.13931e-05
1.13659e-05
1.13122e-05
1.13019e-05
1.12397e-05
1.12393e-05
1.11851e-05
1.11732e-05
1.11649e-05
1.12399e-05
1.12172e-05
1.12541e-05
1.11514e-05
1.11441e-05
1.11294e-05
1.10995e-05
1.12775e-05
1.10742e-05
1.10369e-05
1.10892e-05
1.11637e-05
1.16339e-05
1.15799e-05
1.1442e-05
1.14164e-05
1.14979e-05
1.1558e-05
1.15195e-05
1.19048e-05
7.29656e-06
1.06048e-05
1.18755e-05
1.18221e-05
1.17851e-05
1.17049e-05
1.15608e-05
1.12593e-05
1.12238e-05
1.13546e-05
1.12707e-05
1.12598e-05
1.1268e-05
1.13526e-05
1.15407e-05
1.33222e-05
1.4307e-05
1.29436e-05
1.55211e-05
1.46791e-05
1.46324e-05
1.50299e-05
1.2309e-05
1.15529e-05
1.2765e-05
1.29084e-05
1.18836e-05
9.44536e-06
1.24673e-05
1.19491e-05
1.19458e-05
1.19456e-05
1.1925e-05
1.18435e-05
1.18504e-05
1.18075e-05
1.19112e-05
1.1875e-05
1.1909e-05
1.19211e-05
1.19102e-05
1.19149e-05
1.19407e-05
1.19356e-05
3.17421e-05
3.21207e-05
3.48801e-05
3.41132e-05
3.04485e-05
2.79196e-05
3.43767e-05
3.53974e-05
3.76732e-05
3.93872e-05
2.6764e-05
3.5389e-05
1.57928e-05
7.99836e-06
7.32174e-06
2.32525e-05
2.14256e-05
1.15967e-05
2.81166e-06
2.58198e-05
1.17582e-05
3.1237e-05
3.3147e-05
1.26674e-05
1.25428e-05
1.15591e-05
1.15535e-05
1.19431e-05
1.14983e-05
1.16889e-05
1.15392e-05
1.16046e-05
1.18587e-05
1.18027e-05
1.17293e-05
1.16368e-05
1.04906e-05
1.17088e-05
1.13042e-05
1.04359e-05
1.06717e-05
1.09525e-05
1.08633e-05
1.08648e-05
1.09145e-05
1.13401e-05
1.13499e-05
1.13624e-05
1.14183e-05
1.13928e-05
1.13427e-05
1.13132e-05
1.12547e-05
1.12583e-05
1.11974e-05
1.11735e-05
1.12602e-05
1.12371e-05
1.12153e-05
1.12739e-05
1.11553e-05
1.11682e-05
1.11503e-05
1.11436e-05
1.11218e-05
1.1096e-05
1.13027e-05
1.1075e-05
1.10226e-05
1.10597e-05
1.11473e-05
1.10345e-05
1.16872e-05
1.16552e-05
1.14667e-05
1.14541e-05
1.1523e-05
1.15901e-05
1.15623e-05
1.29764e-05
9.53278e-06
5.15766e-06
1.05827e-05
1.17851e-05
1.16812e-05
1.1667e-05
1.15495e-05
1.14501e-05
1.13097e-05
1.13515e-05
1.1264e-05
1.12697e-05
1.12647e-05
1.12361e-05
1.13752e-05
1.44164e-05
1.45339e-05
1.43307e-05
1.34677e-05
1.32774e-05
1.23853e-05
1.06475e-05
1.30524e-05
1.2212e-05
1.29514e-05
1.42132e-05
1.18021e-05
4.58177e-06
6.86122e-06
1.193e-05
1.19127e-05
1.19115e-05
1.18521e-05
1.17877e-05
1.17528e-05
1.16932e-05
1.1884e-05
1.18124e-05
1.18682e-05
1.18698e-05
1.1864e-05
1.18499e-05
1.18811e-05
1.18981e-05
1.1924e-05
2.45348e-05
2.49511e-05
3.31975e-05
3.10966e-05
2.95687e-05
2.61934e-05
2.09699e-05
2.73144e-05
3.29287e-05
3.7881e-05
3.2669e-05
2.80662e-05
4.17234e-05
2.02943e-05
7.87591e-06
4.02955e-07
3.54943e-05
3.4568e-05
1.15616e-05
1.02116e-05
3.15346e-05
2.4224e-05
1.08574e-05
3.37025e-05
3.35264e-05
1.12186e-05
1.28929e-05
1.21026e-05
1.1881e-05
1.22247e-05
1.14651e-05
1.15481e-05
1.15101e-05
1.17636e-05
1.16621e-05
1.15549e-05
1.1455e-05
1.03538e-05
1.35275e-05
1.27945e-05
1.09363e-05
1.03658e-05
1.07913e-05
1.0947e-05
1.08761e-05
1.08352e-05
1.12192e-05
1.13748e-05
1.13771e-05
1.1384e-05
1.14519e-05
1.14209e-05
1.13618e-05
1.13438e-05
1.12773e-05
1.12794e-05
1.12036e-05
1.11945e-05
1.12879e-05
1.12576e-05
1.12313e-05
1.12962e-05
1.11744e-05
1.11836e-05
1.11704e-05
1.11613e-05
1.11277e-05
1.11113e-05
1.13218e-05
1.10993e-05
1.10437e-05
1.10648e-05
1.11283e-05
1.10096e-05
1.17467e-05
1.16978e-05
1.16751e-05
1.15067e-05
1.14758e-05
1.1569e-05
1.1643e-05
1.15931e-05
1.23746e-05
9.25039e-06
8.40455e-06
1.09538e-05
1.16695e-05
1.16081e-05
1.16307e-05
1.15486e-05
1.14338e-05
1.13167e-05
1.16244e-05
1.1653e-05
1.13414e-05
1.14618e-05
1.14103e-05
1.12591e-05
1.12965e-05
1.13086e-05
1.44047e-05
1.34961e-05
1.47461e-05
9.78324e-06
8.39282e-06
9.66381e-06
9.04494e-06
6.71771e-06
1.43689e-05
1.21961e-05
1.37208e-05
1.16746e-05
4.10976e-06
3.29555e-06
1.19033e-05
1.18894e-05
1.18584e-05
1.17697e-05
1.1676e-05
1.16383e-05
1.15982e-05
1.18165e-05
1.16429e-05
1.17415e-05
1.17896e-05
1.17685e-05
1.17612e-05
1.17651e-05
1.18359e-05
1.18497e-05
1.87204e-05
2.42285e-05
3.05574e-05
2.30756e-05
1.90744e-05
1.39948e-05
2.50674e-05
2.79342e-05
3.91067e-05
2.36832e-05
3.80725e-05
3.99463e-05
2.38989e-05
1.42837e-05
4.7852e-06
3.80958e-05
3.92071e-05
1.1327e-05
1.15749e-05
6.87984e-06
3.27698e-05
2.81914e-05
3.25111e-05
3.0133e-05
6.03218e-07
9.32504e-06
1.23464e-05
1.24672e-05
1.20181e-05
1.23308e-05
1.14746e-05
1.13784e-05
1.1413e-05
1.16254e-05
1.15257e-05
1.14414e-05
1.14148e-05
1.03099e-05
1.0508e-05
1.21775e-05
9.75038e-06
1.05187e-05
1.07498e-05
1.09367e-05
1.0788e-05
1.08916e-05
1.10385e-05
1.13913e-05
1.14032e-05
1.14159e-05
1.14687e-05
1.14552e-05
1.13616e-05
1.13982e-05
1.13459e-05
1.12979e-05
1.13096e-05
1.1223e-05
1.12062e-05
1.1314e-05
1.12964e-05
1.12504e-05
1.12844e-05
1.13203e-05
1.1182e-05
1.12012e-05
1.1179e-05
1.1163e-05
1.11454e-05
1.11159e-05
1.1104e-05
1.10459e-05
1.10852e-05
1.10358e-05
1.11453e-05
1.10249e-05
1.18058e-05
1.17824e-05
1.17439e-05
1.15342e-05
1.15135e-05
1.16043e-05
1.16814e-05
1.16579e-05
1.21784e-05
6.1699e-06
7.50416e-06
1.094e-05
1.15488e-05
1.14996e-05
1.14639e-05
1.14543e-05
1.13152e-05
1.12646e-05
1.1887e-05
1.20889e-05
1.16561e-05
1.1851e-05
1.13371e-05
1.15914e-05
1.14905e-05
1.12551e-05
1.21684e-05
9.76696e-06
1.47957e-05
7.36065e-06
5.32916e-06
5.10432e-06
7.40061e-06
3.70525e-06
1.46076e-05
1.30322e-05
1.37816e-05
1.45618e-05
1.15459e-05
2.53285e-06
1.94189e-06
1.18289e-05
1.182e-05
1.17821e-05
1.16799e-05
1.16138e-05
1.15043e-05
1.14522e-05
1.17065e-05
1.16302e-05
1.15568e-05
1.16705e-05
1.16597e-05
1.16562e-05
1.17041e-05
1.1739e-05
1.18024e-05
4.4601e-06
9.66632e-06
2.60068e-05
1.91984e-05
1.45215e-05