/*--------------------------------*- C++ -*----------------------------------*\
| =========                 |                                                 |
| \\      /  F ield         | OpenFOAM: The Open Source CFD Toolbox           |
|  \\    /   O peration     | Version:  v2012                                 |
|   \\  /    A nd           | Website:  www.openfoam.com                      |
|    \\/     M anipulation  |                                                 |
\*---------------------------------------------------------------------------*/
FoamFile
{
    version     2.0;
    format      ascii;
    class       volScalarField;
    location    "0.7";
    object      omega;
}
// * * * * * * * * * * * * * * * * * * * * * * * * * * * * * * * * * * * * * //

dimensions      [0 0 -1 0 0 0 0];


internalField   nonuniform List<scalar> 
13611
(
18.6197
15.5312
77.0787
17.7023
20.0765
22.7685
14.1352
28.7115
22.7488
20.8906
22.9636
15.5987
17.8858
81.9325
22.6347
21.1729
22.5601
22.413
12.9293
17.7173
27.0889
22.7543
22.6546
22.4678
22.362
22.386
13.4867
19.9031
75.5456
22.7986
22.54
22.4329
22.2286
22.2258
21.9697
13.7672
18.2315
29.9749
22.7403
22.532
22.2928
22.0753
22.0673
21.9967
12.4721
18.8465
86.9891
13.0583
22.6347
22.812
22.4113
22.2858
21.9971
21.9215
21.802
22.0056
15.4747
20.5991
33.181
11.7496
22.6351
22.7386
22.3727
22.1859
22.8895
21.8825
22.0801
21.8027
21.6452
21.7079
15.0099
20.7854
78.2241
11.1233
22.5607
22.7767
22.2799
22.4572
22.1856
21.9037
22.0019
21.6864
21.456
21.5894
21.5986
18.0885
21.3202
39.364
9.39456
22.6098
22.7677
22.2888
22.3811
22.1058
22.8669
21.8308
22.009
21.7167
21.366
21.4716
21.3351
17.5611
21.2492
23.0071
10.1381
22.7104
22.5251
22.1987
22.4133
22.1112
22.8609
22.9426
21.8603
21.9534
21.6463
21.2825
21.4589
21.1718
21.1693
19.7924
20.9033
21.1196
83.0373
8.57495
8.26668
22.7511
22.5561
22.2182
22.3373
22.0105
22.9409
21.7773
21.6879
21.5449
21.3309
21.0115
20.9451
18.3053
20.8209
20.8958
31.4021
6.12483
11.6203
22.7525
22.4954
22.6738
22.1789
22.3399
21.9534
22.8598
23.0246
21.7776
21.6176
21.5283
21.2881
21.0668
20.8389
20.9021
20.8851
20.7253
20.7204
20.7828
83.3012
10.5391
9.50616
22.4153
22.5429
22.6937
22.1067
22.2516
21.8617
22.0155
22.8645
23.0301
21.6885
21.614
21.4761
21.1915
21.3808
21.0016
20.8987
15.3612
20.6667
20.4939
20.6387
20.5322
31.8561
6.43292
22.4114
22.6299
22.48
22.7915
22.1167
22.2568
21.8672
21.9448
22.9531
23.1185
21.7
21.5155
21.1645
21.3297
21.0511
20.82
15.7636
20.4947
20.4122
20.3838
20.491
20.7216
10.4507
83.975
11.6747
22.3467
22.6613
22.5245
22.823
22.0606
22.1978
21.7896
21.9684
22.9943
23.1753
21.6251
21.5245
21.2303
21.3763
21.0306
20.7884
18.5288
20.4384
20.1701
20.2767
20.5358
20.663
7.0088
30.1094
13.2326
22.3042
22.6205
22.7575
22.4927
22.9256
22.0891
22.2218
21.7821
21.9238
23.1065
21.6253
21.4664
21.2091
21.3576
20.9588
21.1235
20.8638
20.68
17.1425
20.3826
20.0757
20.0451
20.1518
20.347
20.4685
8.43937
11.0891
77.5489
22.3475
22.6611
22.7473
22.5593
22.4352
22.9757
22.1737
22.0454
21.7062
21.8531
21.973
23.1245
21.5668
21.4967
21.2789
21.4236
20.9725
21.1158
20.8394
20.6257
18.4939
19.9473
19.8474
19.8108
19.9426
20.1105
20.2991
20.5057
7.28473
12.0823
40.4642
22.2927
22.638
22.8256
22.5299
22.4576
22.9297
23.0805
22.2084
22.0847
21.6912
21.8602
21.9321
23.2365
23.3175
21.598
21.2631
21.4156
20.9029
21.0434
21.1869
20.7766
20.6828
16.0459
19.984
19.6297
19.8133
19.9877
20.1884
20.3697
20.47
10.1776
24.4216
22.3206
22.7191
22.8099
22.5932
22.408
22.994
23.1389
22.1626
22.0435
21.7478
21.8228
21.9684
23.2325
23.4055
21.5953
21.3303
21.4825
20.8978
21.0374
21.1793
20.7659
20.6435
16.9591
19.5204
19.4061
19.5729
19.715
19.9165
20.1878
20.296
20.5511
4.35841
83.2049
7.15117
22.2767
22.6906
22.8824
22.5994
22.4471
23.101
22.9669
23.1559
22.1959
22.0781
21.7473
21.8605
21.9264
23.3048
23.3907
21.6838
21.5403
21.3104
21.479
20.8238
20.966
21.1055
21.2423
20.6862
16.6512
19.3152
19.5712
19.4814
19.7715
19.9823
20.1127
20.3436
20.5266
10.1254
36.6347
3.35166
22.3142
22.7489
22.8906
22.5422
22.688
22.4008
23.0963
23.025
23.2541
22.1577
22.0396
21.8068
21.9599
23.4941
21.6707
21.5304
21.377
21.4461
20.8238
20.9652
21.1063
21.2586
20.6784
18.8557
19.1188
19.3204
19.5022
19.206
19.5533
19.7027
19.9663
20.1433
20.3157
20.459
20.6001
12.0008
10.2307
89.5132
7.75639
23.6721
23.2407
22.2947
22.8377
22.9752
22.574
22.7193
22.436
23.1793
23.3238
22.2159
22.0885
21.8383
21.9245
23.6175
23.509
21.5961
21.7314
21.3382
21.4849
20.751
20.8961
21.0361
21.1769
21.2392
17.128
19.009
19.2631
19.2477
18.965
19.5172
19.7748
20.0622
19.8965
20.2393
20.3832
20.4614
20.6089
10.0366
35.8659
9.86719
22.8072
23.4103
22.6214
14.9765
76.663
22.3616
22.8771
23.0302
22.6618
22.516
22.8171
23.2918
23.2162
23.4571
22.1754
22.0553
21.8086
21.9738
23.6467
21.5649
21.7507
21.3519
21.4758
20.7692
20.8996
21.0392
21.1776
21.2901
18.5072
18.8466
19.1039
19.3783
19.072
18.786
19.6083
19.7188
20.0714
19.9292
20.2325
20.3844
20.5336
20.6946
4.56272
79.7843
7.55106
16.6389
20.8195
22.4878
23.3353
22.3936
14.4175
23.6541
22.3665
22.9707
23.1548
22.702
22.5532
22.8342
23.4111
23.3486
23.5709
22.2179
22.091
21.8767
21.9507
23.7385
23.6851
21.5966
21.8402
21.7356
21.4166
21.5347
20.8458
20.9768
21.1124
21.2372
21.2897
18.7704
19.0693
19.3289
18.8585
18.6021
19.6107
19.7769
20.0215
20.1632
19.8718
20.3073
20.4631
20.5382
20.6991
7.12156
42.2997
10.845
17.9113
22.5102
22.2197
22.7698
22.6
22.4239
22.8532
14.9186
75.8379
22.3078
22.4516
23.0282
23.2227
22.789
22.65
22.5184
22.9433
23.5495
23.413
22.1766
22.0876
22.014
24.0004
23.8751
23.8209
21.6752
21.8626
21.7979
21.4174
21.5465
20.8809
20.968
21.1077
21.2801
21.3588
18.5958
18.8589
18.994
19.208
19.4241
18.769
18.5321
19.5529
19.7158
20.068
20.1549
19.9162
20.3168
20.4736
20.621
20.7891
1.2813
24.5962
16.6324
7.72552
18.509
20.3155
22.0244
22.1865
22.6891
22.6951
22.3182
22.9053
14.3706
21.6727
22.3526
22.4722
23.1645
23.0216
23.3473
22.8612
22.7002
22.57
22.9575
23.742
23.6179
22.2178
22.1571
21.9948
23.9499
23.9906
21.6832
21.9316
21.8189
21.4818
21.6215
20.8715
21.028
21.1746
21.3539
21.2493
18.5576
18.8464
19.0522
19.1578
19.3667
18.3773
18.238
19.6237
19.764
20.0266
20.2306
19.8804
20.4029
20.5605
20.6301
20.7746
4.81923
81.1548
18.1605
10.5834
18.4222
21.1978
21.9013
22.0231
21.9833
22.2063
22.6227
22.4458
22.8064
13.1852
74.3604
22.299
22.4339
22.5385
23.2267
23.1301
23.4801
22.8663
22.6493
22.8049
23.0627
23.9751
23.7641
23.6551
22.1807
22.0651
24.3548
24.2317
24.2577
21.7547
21.9567
21.9049
21.4871
21.6268
20.9572
21.037
21.1808
21.416
21.2967
18.4021
18.7121
18.952
19.2338
19.4368
18.1721
18.2284
19.7401
19.5697
20.0969
20.266
19.9601
20.4416
20.5986
20.7096
20.849
1.51834
28.9794
16.3674
7.41257
18.2249
15.8321
21.6661
22.0736
21.743
22.4135
22.6884
22.3896
22.8836
22.7766
26.2823
22.3157
22.4781
22.5803
23.3667
23.1706
23.4957
22.9901
22.6589
22.8956
23.0922
24.2409
24.0452
23.8707
22.1416
22.2667
22.0276
24.6058
24.5028
21.7624
21.9426
21.5595
21.6947
20.9792
21.1179
21.2454
21.4148
21.3696
18.389
18.6851
19.0084
19.1785
19.4528
17.9795
18.0289
19.8342
19.6585
20.0683
20.2127
20.3835
19.9395
20.5422
20.6971
20.7504
20.8242
20.9261
6.10124
81.8112
17.541
9.69864
18.0478
15.0597
21.7386
22.268
21.958
21.5941
21.4759
18.8238
22.202
22.5883
22.4795
22.878
22.6745
82.3685
13.9311
22.4029
22.4776
22.5715
23.4783
23.367
23.7511
23.0117
22.7549
22.8692
23.2559
24.2787
24.5178
24.0827
23.9218
22.1928
22.3167
22.0774
24.8333
24.8013
21.8441
21.9117
22.0342
21.5581
21.7329
21.0812
21.1456
21.2845
21.4916
21.4169
18.2709
18.5392
18.8193
18.972
19.2706
19.4102
19.5873
17.7755
18.065
19.8656
19.7618
20.1476
20.2671
20.4362
20.0314
20.5765
20.7079
20.8752
20.9534
1.61921
28.7721
15.1961
17.9901
6.67254
17.9513
17.7862
21.6178
22.2217
21.9987
21.3006
21.4271
18.4097
22.1551
22.5698
22.3905
22.7826
22.6761
27.4614
11.8654
22.4002
22.5986
22.6764
23.6924
23.405
23.1669
22.7771
22.9774
23.3132
24.6599
24.7979
24.4049
24.1735
22.1631
22.2819
25.1915
25.2074
21.8541
21.9627
22.0688
21.6305
21.7022
21.8191
21.1067
21.2337
21.376
21.4877
18.3084
18.5579
18.8117
19.1244
19.2655
19.4848
19.6032
17.6917
18.007
19.8129
19.9811
19.8062
20.1243
20.2409
20.3775
20.5357
20.6684
20.7986
20.8703
21.0355
6.45131
80.9348
16.5329
17.7808
9.5114
17.6844
17.587
21.6798
22.1294
22.2858
21.9334
21.2633
21.1269
21.5532
19.8702
12.8951
21.8247
21.5036
22.5008
22.3964
22.9622
22.7835
22.6201
77.1495
22.5134
22.6203
22.6989
23.8941
23.6285
23.255
22.886
23.1482
23.4846
24.7066
24.9209
25.1612
24.4378
24.3419
22.2283
22.3344
25.5876
25.609
21.9211
22.0367
22.1759
21.6335
21.7526
21.8476
21.2086
21.2785
21.4221
21.5622
18.4177
18.1464
18.6899
18.9342
19.0573
19.413
19.5403
19.7046
17.5191
17.832
19.884
20.0454
19.8063
20.2095
20.3038
20.4
20.6003
20.7339
20.8153
20.9523
21.0629
1.61539
29.2775
15.1151
17.77
6.56213
17.5807
17.4458
21.8342
22.0701
22.226
21.9766
21.2744
20.9332
21.5637
20.0326
11.4773
21.9796
21.1851
22.536
22.3703
22.867
22.68
26.9047
22.5202
22.7367
22.8467
23.8554
24.2335
23.6516
23.5132
22.9567
23.2761
23.631
25.1561
25.2921
25.5631
24.8347
24.725
22.327
22.248
22.4514
26.0714
26.2698
21.9157
22.1222
22.2135
21.6984
21.8225
21.227
21.2793
21.3844
21.5173
21.5693
18.3374
18.203
18.6099
18.8754
19.1167
19.425
19.712
19.7905
17.4757
17.8374
19.9889
20.1794
19.9601
20.3208
20.2507
20.5052
20.7102
20.6152
20.9065
20.9769
21.0299
21.1665
6.97421
82.2693
16.3072
17.5947
7.2141
17.3221
17.3044
21.7797
22.1159
22.2743
21.9091
21.1769
21.4556
21.0249
20.82
21.6815
15.9424
21.3464
12.5271
21.2923
22.4415
22.8354
22.654
76.7698
22.6613
22.8344
22.8685
24.1535
24.5245
23.9012
23.6522
23.1546
23.5154
23.864
25.1721
25.6483
25.7422
26.1084
25.1334
22.4278
22.3831
22.5076
27.2671
26.6969
26.4869
26.8808
22.0083
22.1155
22.3321
21.7212
21.8985
21.3198
21.3789
21.4416
21.5438
21.6513
18.7148
18.4455
18.0299
18.6901
19.1219
19.4131
19.8026
19.819
19.9518
17.3306
17.6515
20.0972
20.2552
20.0905
20.4398
20.4158
20.5342
20.5966
20.7984
20.743
20.9594
21.0562
21.0954
21.2052
2.43801
28.0373
16.3277
17.5454
4.78126
11.9958
17.1905
17.2669
21.8163
22.0749
22.2464
21.9164
21.2278
21.4193
20.9643
20.711
21.6386
14.8823
21.4951
11.0016
20.8644
22.4579
22.9998
22.7361
22.9066
22.5739
38.371
22.6092
22.7903
23.0265
23.0574
24.1263
24.4689
24.9732
23.9818
23.293
23.6833
24.0553
25.6867
26.3982
26.5717
26.7507
25.7581
22.4707
22.4262
28.2084
27.6446
27.7018
22.0052
22.235
22.4088
21.825
21.9072
21.3727
21.4
21.5172
21.6354
21.6902
20.1693
17.7649
17.9779
19.1745
20.4524
20.1924
20.9902
20.0561
20.2696
20.2101
17.2224
17.7832
20.2487
20.427
20.2523
20.5046
20.5045
20.6531
20.6956
20.9137
20.7956
21.0941
21.135
21.1731
21.3122
5.34364
75.8285
17.2731
17.4829
4.34805
11.9392
17.0211
16.9629
21.7738
21.9936
22.1518
22.3272
21.8262
21.3345
21.1485
21.4908
21.0387
20.8184
20.5261
21.5672
21.6943
16.911
21.0306
20.4671
12.1913
20.6892
22.415
22.7124
22.8758
22.5589
30.8682
22.7064
22.9584
23.1734
23.2339
24.4501
24.7889
25.2883
24.0965
24.1468
23.5745
23.9614
24.3837
26.3403
25.9874
27.1501
27.2192
27.646
26.2904
22.6203
22.5669
28.3807
28.1566
22.1109
22.2284
22.3719
22.5733
21.8681
22.0254
21.495
21.5098
21.5941
21.6912
21.8006
17.0705
18.9677
17.8657
17.046
17.8044
19.1347
20.1191
20.0275
21.1549
21.3054
21.2141
20.4765
17.0166
17.3349
17.4523
20.4232
20.5556
20.4716
20.6733
20.7003
20.7473
20.7635
21.0316
20.9202
21.2301
21.2434
21.2399
21.3346
3.23459
34.5352
16.9799
17.1201
7.56835
14.2164
16.8828
22.0078
22.1459
22.2992
21.8534
21.3349
21.1137
21.4143
20.9826
20.7838
20.5074
21.5579
21.6365
15.1214
20.9199
21.1041
10.291
20.3774
22.4738
23.0494
22.6219
22.7814
22.9466
75.8684
14.2604
22.8881
23.1472
23.3703
23.4023
24.7789
25.1769
26.0253
24.468
24.4388
23.6858
24.2323
24.6192
27.0512
26.8147
27.9771
27.9739
28.0555
26.3876
27.0723
22.6762
22.642
28.9709
28.9934
28.9425
22.1234
22.3586
22.5202
22.7034
21.9824
22.0583
21.5568
21.5543
21.6131
21.6571
21.8037
21.8747
13.4344
16.3382
16.7827
17.2854
17.0379
15.3893
17.3054
16.3249
19.8902
21.2033
21.3205
21.0668
17.0024
17.2175
17.4769
16.8457
20.7782
20.6795
20.8085
20.8805
20.9267
20.9199
21.1987
21.0264
21.0132
21.3915
21.3764
21.4558
1.78335
18.2335
17.7029
16.891
7.43559
14.2883
16.7656
21.9501
22.0901
22.2283
22.3591
21.7886
21.2646
21.0173
21.1722
21.4049
20.8863
20.6703
20.3333
21.4936
21.6887
17.1875
20.5872
19.9267
7.97063
20.2274
22.4456
23.1403
22.6014
22.7653
22.9386
91.1938
9.66554
23.0038
23.3677
23.6142
23.6168
25.2797
25.6644
26.1749
24.7616
24.5496
24.7278
23.9878
24.2102
25.1058
27.8837
27.2303
28.6051
28.5104
28.7518
27.2816
27.6358
22.8379
22.8552
29.2919
28.7924
22.2376
22.3622
22.5048
22.6889
22.8789
22.0651
22.2139
21.704
21.5622
21.6746
21.7305
21.833
21.9008
22.011
24.9974
18.1394
15.4744
21.2041
16.8975
19.8743
19.4595
20.6689
17.3786
19.303
18.8223
21.3656
21.3071
16.8282
17.0364
16.8269
16.452
21.1061
21.1739
21.0913
21.1566
20.965
21.1289
21.3495
21.196
21.1706
21.5504
21.4153
21.4931
2.03487
78.8574
1.84839
17.1683
16.3321
16.6395
11.0373
16.6202
21.9906
22.1235
22.1988
22.3284
21.8059
21.2787
20.9637
21.0965
21.3655
20.8208
20.7064
20.3425
21.5052
21.6468
12.726
20.1711
20.3312
20.8901
20.128
22.5093
23.2658
23.1153
22.6722
22.8455
23.0256
45.5997
9.07789
22.9818
23.2677
23.4043
23.6169
23.8842
23.8851
25.7678
25.4111
26.7876
25.3004
25.0391
25.1757
24.0959
24.5371
28.1157
27.942
28.6504
28.8616
28.7844
27.3691
28.0635
22.9399
28.1455
27.0647
28.282
22.2964
22.549
22.6676
22.9034
23.0676
22.1996
21.7617
21.7961
21.6983
21.8801
21.9368
22.079
22.1453
42.01
25.4393
42.5735
20.0682
46.5977
17.4598
38.779
43.5833
34.2602
15.0789
18.038
18.7852
21.5422
22.1918
16.7885
16.8144
16.936
16.2483
16.4033
21.5719
22.0672
21.2613
21.2683
21.5329
21.2626
21.3482
21.5723
21.4414
21.7073
21.6504
21.6157
21.6502
0.316223
25.2223
0.508527
16.9128
16.68
16.4473
11.1398
16.5096
22.0813
21.9539
22.2448
22.3849
21.8892
21.7621
21.2285
21.0053
20.8557
21.1218
21.4165
20.6284
20.512
20.1877
21.5769
21.6949
13.0355
19.9685
19.9325
20.5631
17.6521
19.9899
22.478
23.3124
23.1767
22.6723
22.8474
23.0222
29.9508
6.96663
23.1956
23.3394
23.6883
23.8767
24.181
26.461
26.2031
26.9568
25.7929
25.4708
25.2374
25.7196
24.3353
24.9654
28.3617
28.0722
27.938
27.6858
28.3774
28.0746
27.821
28.4367
23.1468
25.5175
26.765
22.4858
22.6768
22.8693
23.0963
23.2934
22.323
21.9215
21.9589
21.7684
21.99
22.1259
22.2073
22.305
71.4363
59.1678
67.4615
36.9166
47.9203
73.9876
70.5948
54.2
66.2254
43.5165
24.2018
15.1644
19.7896
29.6273
21.5428
16.6108
16.4163
16.7831
15.5873
19.1397
22.3517
22.4591
21.7071
21.7656
21.9368
21.464
21.5833
21.7736
21.6974
21.9371
21.9611
21.7272
5.25806
5.10535
78.3228
3.91053
16.8811
16.5073
14.3082
16.4004
22.1154
22.0065
22.2055
22.396
21.8661
21.7964
21.2782
20.9424
20.8047
21.1057
21.424
20.6471
20.4773
20.1619
21.5823
21.6468
19.7385
20.188
18.3532
19.9276
22.5448
23.2571
23.183
22.774
22.6265
22.9415
23.1041
84.4443
12.8023
12.2428
23.5353
23.7447
23.9143
24.1681
24.5528
26.676
26.2747
27.5255
26.3338
26.1251
26.0544
24.656
25.3955
27.9583
28.3213
28.4256
25.7101
25.1606
27.6594
26.9444
28.2395
28.0786
23.3264
26.2852
25.8405
25.0901
22.5514
22.7959
22.9478
23.3007
23.5438
22.4945
22.0482
22.1173
21.9892
22.1706
22.255
22.4416
22.4306
98.4061
95.5876
48.0634
70.7721
86.1356
108.837
104.461
123.597
80.2874
47.9235
25.3449
21.4608
45.796
21.0401
16.5867
15.6262
16.5516
16.7042
18.2538
39.7949
22.7417
21.2912
22.0261
22.1319
22.7192
21.9432
21.8138
22.1042
22.0934
22.1062
22.129
22.2236
21.9481
1.78176
20.9289
5.65601
16.8538
16.2918
14.8685
16.281
22.0889
21.9876
22.2512
22.4858
22.3426
21.9098
21.7704
21.3662
21.2561
20.9534
20.8629
20.7286
21.1851
21.0268
21.5164
20.5502
20.3919
20.2834
20.0131
21.6864
19.7602
19.6376
20.0894
19.5912
23.4156
23.3096
22.765
22.6803
22.9135
23.0983
41.9153
9.47547
12.1298
23.7085
24.1034
24.2561
24.5474
24.9881
27.2623
26.89
27.6302
26.5209
26.8742
26.404
26.0309
25.2486
25.974
26.7407
24.535
24.291
24.2993
24.9266
24.1401
27.9727
27.6702
26.7267
23.6171
33.4205
29.5408
25.0317
22.7716
22.9204
23.1967
23.5513
23.4759
23.8366
22.6272
22.2528
22.3678
22.1086
22.3383
22.4828
22.6015
22.5413
22.6206
95.5343
114.89
51.7013
69.7046
85.9815
92.7173
116.46
132.716
132.981
132.445
79.5302
128.603
60.9718
41.9792
21.3492
110.028
16.4406
14.9735
16.1461
16.5766
33.8108
44.0398
22.1264
20.6114
22.885
22.9964
22.9137
22.4235
22.1421
22.3922
22.3847
22.3859
22.44
22.5274
22.695
3.90291
2.60832
73.6389
11.9611
16.1371
16.6152
16.2112
16.1682
16.2864
22.1578
22.0486
22.2338
22.5142
22.3651
21.8991
21.824
21.379
21.3089
20.8672
20.8242
20.7423
21.1764
21.0265
21.5146
20.5334
20.3802
20.1978
19.986
21.6591
19.7382
19.444
19.8448
20.0703
23.5212
23.29
22.8297
22.6622
22.966
23.199
23.0539
31.4247
8.19939
16.5488
24.0478
24.3501
24.5788
24.9531
25.5476
27.55
27.4915
27.8879
27.0277
27.2281
27.0303
26.4471
25.664
25.5377
24.1611
26.0357
22.454
23.7614
23.7635
23.43
26.9368
27.8849
26.1214
26.046
23.8913
37.1731
28.0959
22.7917
22.9268
23.187
23.4198
23.9079
23.8476
24.1369
22.4622
22.6576
22.4071
22.6182
22.7234
22.9035
22.793
22.8468
91.5306
97.0203
67.4369
71.9186
71.8452
66.8348
121.532
129.575
144.433
139.908
134.242
155.194
110.25
67.7609
23.2431
155.689
122.182
16.5494
12.6809
29.3667
16.6422
43.3524
58.4215
21.4091
21.9914
23.0454
23.2697
22.4968
23.1814
22.8652
23.1499
23.0089
22.6126
22.7281
22.8811
23.0953
3.69479
1.61493
19.4666
13.565
15.9005
16.5657
15.9712
16.0705
16.1285
22.1279
22.0454
22.2934
22.6
22.4426
21.9736
21.7924
21.4459
21.3148
20.8713
20.6975
21.2428
21.1029
20.9631
21.5868
20.4704
20.6178
20.3239
20.2171
20.0997
19.8787
21.7162
19.6332
19.2376
19.4909
20.0876
19.3134
23.5611
23.3993
22.8088
22.7371
22.9443
23.1954
23.1064
86.6484
12.8555
6.11544
16.3166
24.3707
24.8598
24.9887
25.4863
25.9273
27.9378
27.5696
27.2349
27.5569
27.1058
27.0302
26.271
23.9433
23.8794
23.9707
25.8385
26.2425
28.0356
32.8297
25.7405
26.9023
25.848
24.0734
24.2704
76.8892
50.946
23.0366
23.2518
23.3787
23.7252
24.1759
24.1881
24.5859
22.7759
23.0213
22.6591
22.8806
23.0716
23.1651
23.1047
23.0636
23.0591
59.3444
75.5593
68.1256
69.3579
66.2217
59.7955
48.957
96.2757
123.983
153.917
126.3
138.173
159.388
139.438
66.8645
34.9614
180.875
159.729
16.4314
15.3268
42.1379
26.426
16.0092
58.6145
67.8962
22.1062
21.8676
22.5057
23.2108
22.3537
23.5049
23.295
23.3738
22.9994
23.2233
23.4754
23.7187
8.05177
0.598358
71.0828
2.62623
13.2439
16.3064
16.2663
15.8802
15.9366
16.1654
22.1752
22.1103
22.2933
22.6307
22.4451
21.9547
21.8331
21.4568
21.3929
20.8313
20.7498
21.2686
21.0852
20.9469
21.5886
20.5075
20.5879
20.3635
20.2111
20.0236
19.911
21.7156
19.6934
19.2371
19.3847
19.8514
18.9923
23.6815
23.5207
23.3772
22.8645
22.7123
23.0137
23.2751
23.1043
44.3212
12.0106
9.69671
18.4136
24.8245
25.1629
24.9984
25.4489
25.9426
26.463
27.6253
27.4966
27.5087
27.4659
27.3166
27.1603
27.1251
26.5881
24.0146
25.6976
23.3633
35.4826
41.4934
36.1429
38.3265
50.9653
23.8339
26.9185
24.6564
24.6891
80.2644
107.712
23.2805
23.4614
23.6698
24.0903
24.5684
24.6274
24.8777
23.036
23.5686
23.1151
23.2843
23.4034
23.546
23.5725
23.4243
23.4025
45.8688
69.3876
68.1639
38.9353
32.1266
24.9308
87.6345
148.51
159.131
109.676
164.261
166.702
179.924
133.338
52.0663
180.524
194.454
16.1958
16.3483
14.2162
50.1918
32.7608
57.8032
54.9393
34.1349
24.9099
22.3921
22.3091
23.1719
22.686
23.8485
23.9419
23.9696
23.4088
23.6603
23.9046
24.0552
7.86281
4.06652
28.7923
1.10611
14.8667
16.1479
16.227
15.6361
15.8598
15.9555
22.2468
22.1219
22.3766
22.6031
22.5255
21.8999
22.0181
21.7779
21.5289
21.421
20.873
20.7223
21.3624
21.2269
21.0008
21.1488
21.6569
20.4507
20.6399
20.2979
20.1287
20.0232
19.8208
19.5907
19.1217
19.4455
19.1266
19.8667
18.9643
23.7847
23.6436
23.4719
22.8512
22.765
23.019
23.2962
23.2064
38.4642
6.89378
8.27026
18.1807
25.2054
25.5569
25.5707
25.7678
26.4273
26.7327
27.2225
26.8671
27.2003
27.1712
27.369
27.2701
27.1606
27.0478
28.3685
35.4673
23.2592
47.3112
65.5979
68.7187
46.869
95.8365
23.4869
25.6179
24.5408
23.5066
25.1674
135.848
171.568
23.5839
23.7594
23.9417
24.3722
24.7541
25.0635
25.3757
23.4816
23.5627
23.898
23.6438
23.8202
23.8885
23.8579
23.7719
23.654
17.2691
24.9341
45.6362
30.3974
25.0509
18.2016
13.3572
63.5798
136.284
105.94
166.041
70.2974
172.198
222.462
150.291
108.349
181.371
193.831
201.785
16.0979
16.3045
13.6832
50.4446
57.5947
32.5415
46.6603
54.9859
42.359
68.1921
34.9776
22.9016
22.5887
23.0898
23.6971
23.9758
24.0024
24.2588
24.4638
24.4306
11.0581
3.28158
22.1628
1.47034
14.6664
16.2624
15.9827
15.6682
15.5989
16.2361
22.2944
22.2194
22.0852
22.3764
22.6685
22.5118
21.9196
21.982
21.7906
21.5403
21.4981
20.8505
20.779
21.368
21.2662
21.0001
21.1439
21.665
20.4894
20.6453
20.3355
20.1428
19.9459
19.8205
19.5904
19.1893
19.3407
18.758
19.3332
18.8265
23.7769
23.5954
23.4017
22.9272
22.7523
23.1423
23.2378
97.9078
15.4945
6.53224
12.4303
18.9761
25.6164
25.9414
25.9457
26.2789
26.5098
27.0425
25.9811
25.6197
26.6212
26.378
27.0903
26.3458
26.8977
27.0965
36.6099
29.493
29.8172
81.6505
101.193
96.9333
72.3232
140.834
24.7332
26.3411
23.6349
24.2749
25.6622
207.236
229.921
224.442
23.947
24.0534
24.2468
24.9209
25.4088
25.5261
25.1737
25.616
25.6768
24.1342
24.4634
24.1916
24.2583
24.3647
24.2036
24.2192
23.909
16.3131
18.5269
21.6841
18.1277
17.0102
15.5552
15.0746
27.8161
100.342
45.8566
166.581
27.7707
217.987
218.501
127.281
188.064
198.794
181.107
13.6098
16.3755
23.5723
52.735
53.4621
43.3001
50.2353
42.5534
27.9952
76.1786
42.5252
27.0287
22.8959
23.2658
34.8337
28.8248
23.8521
24.3615
24.5023
24.3257
23.6747
11.2717
7.15675
69.5854
5.9355
0.360224
15.9439
16.1649
16.0287
15.7742
15.4138
16.1946
22.2862
22.2147
22.1429
22.44
22.6437
22.5645
21.8645
22.0319
21.7333
21.6121
21.5451
20.9156
20.7272
21.3311
21.4494
21.2057
21.0767
20.5893
20.4409
20.3113
20.2379
20.0623
19.9718
19.7964
19.5035
19.7114
19.0758
19.363
18.6471
19.2411
18.9023
23.9113
23.736
23.467
22.9331
22.8357
23.1347
23.3706
51.1084
23.6654
5.78775
10.5828
19.4578
26.0147
26.4125
26.3077
26.8392
26.9957
25.0946
24.6965
25.5095
25.0674
26.4812
25.4829
26.2807
27.0542
64.9228
50.5337
45.8332
96.4088
106.871
150.549
155.744
101.013
195.289
31.098
36.4192
24.1476
31.2509
26.0926
270.802
308.924
305.676
24.1793
24.5913
24.6798
25.0721
25.8221
25.7213
25.8877
25.9679
24.7775
24.6203
24.8154
24.3987
24.8237
24.531
24.8958
24.5276
24.3063
19.1681
18.5688
19.2318
16.8506
15.0894
14.5755
15.5583
18.9564
15.4161
88.5013
47.1345
29.1224
161.383
190.86
219.673
201.905
165.992
203.622
166.438
194
13.1008
13.839
25.702
51.2142
45.2159
44.2551
52.5973
27.9561
16.1813
25.5795
125.818
70.2902
22.8292
28.3671
64.2924
46.2132
24.7539
24.7003
24.0369
22.7141
14.3884
6.40757
83.2486
3.93834
1.70665
15.9303
15.7055
15.2557
15.401
15.9761
22.3686
22.2808
22.116
22.4425
22.7101
22.5799
21.8754
22.0082
21.7441
21.6155
21.5132
20.9064
20.7647
21.3857
21.4518
21.2076
21.0652
20.6169
20.4805
20.3936
20.2597
20.0886
19.8876
19.5412
19.7237
19.0903
19.303
18.5312
19.041
18.7756
24.129
24.0423
23.9494
23.6368
23.033
22.8614
23.2461
23.4465
94.0734
9.1445
5.4341
12.5332
17.357
19.2818
26.3504
26.679
26.6842
26.8587
27.0035
26.8473
23.4296
23.3277
24.1652
24.1487
25.8452
24.4815
25.8139
25.6542
26.7178
68.205
97.1397
65.9233
149.083
156.999
211.236
220.04
149.961
258.061
232.554
38.2763
55.5151
28.615
35.444
26.4647
387.897
390.975
24.6685
24.986
25.5199
26.1957
25.956
25.8404
26.2112
26.3852
24.7672
24.8691
25.1351
25.2187
24.8491
25.062
25.1768
25.4264
25.11
24.8106
18.9946
18.9246
18.9169
18.9578
16.9965
17.0088
17.854
19.1158
19.4454
17.8678
29.7902
114.966
11.2775
18.8181
200.325
209.664
203.317
132.988
213.009
121.643
139.364
215.33
19.3612
13.5522
36.5672
40.3724
33.2055
47.2087
47.7427
20.414
13.812
16.5031
127.275
88.6516
22.1529
43.7186
26.4074
82.0759
65.2667
24.6242
23.9595
23.1058
23.5142
14.4984
10.2833
40.1119
0.750288
3.86217
15.5333
15.8576
16.0021
15.2634
15.7277
13.8294
22.3654
22.2923
22.1663
22.5139
22.6583
22.8024
21.9479
21.8154
22.0672
21.6804
21.5635
20.8517
20.9935
20.704
21.3645
21.507
21.1279
21.2875
20.5706
20.4644
20.3446
20.1899
20.0134
19.9078
19.5003
19.6577
19.8307
18.9774
19.2184
19.399
18.6211
18.3266
18.4955
18.8021
24.4244
24.3507
24.2059
23.7508
23.0611
22.9879
23.3877
23.1748
23.6425
45.1096
4.51745
9.94355
18.0396
18.8394
26.6381
26.729
26.7732
26.8361
26.8234
26.621
23.8572
23.8701
24.1464
23.1187
24.6242
23.9094
24.2568
24.8066
24.8174
25.94
103.513
148.166
107.552
176.615
206.863
288.7
301.415
198.787
325.355
313.467
58.0921
74.2941
32.0724
57.6544
26.509
26.6771
439.615
399.957
480.213
24.9986
25.5101
25.6277
26.1927
26.2814
26.1958
26.504
24.6768
25.1224
25.2115
25.1845
25.032
25.4874
25.3122
25.43
25.6172
25.4411
25.2071
19.5675
18.6438
19.5063
20.3313
17.242
18.4417
18.9454
18.3928
18.6855
18.3163
89.093
17.2624
19.0333
218.309
213.6
265.068
181.165
51.6764
72.2998
218.976
21.8343
17.6782
39.0432
40.2468
32.8631
19.7777
44.922
48.1692
14.5612
16.753
186.768
164.992
58.7275
37.9184
148.97
118.467
24.4281
23.3479
23.2367
27.3669
15.3885
9.66252
17.3068
3.4058
2.61586
15.476
15.7079
16.1172
15.638
15.126
13.1063
22.4383
22.4044
22.2504
22.1374
22.5562
22.722
22.8525
21.9666
21.8448
22.0327
21.7107
21.6356
20.8866
20.9717
20.715
21.4553
21.3506
21.5422
21.1369
21.2961
20.6029
20.5304
20.3914
20.2204
20.0452
19.5737
19.6924
19.8641
18.9938
19.2816
19.3989
18.4858
18.3077
18.2778
18.7511
24.7192
24.5912
24.195
24.5464
24.0079
23.0193
23.5725
23.2317
23.8465
25.1113
8.1019
13.4542
18.6711
18.7742
26.821
26.7605
26.7697
26.6636
25.9545
26.8299
26.2283
24.424
25.0779
24.2014
23.6816
23.6857
23.5955
25.3474
125.572
145.679
199.688
129.265
233.504
262.987
356.796
391.095
264.542
392.482
75.558
78.4661
111.968
48.7267
62.5934
77.9389
26.5628
26.653
597.331
488.156
602.981
25.4811
25.8181
26.0536
26.3597
26.5113
26.3689
26.2437
26.5999
24.4035
24.6428
25.2325
25.5633
24.6233
25.5766
25.6135
25.6941
25.6525
25.4838
25.7088
25.5479
18.935
18.4749
19.6742
19.8032
20.2633
17.6535
17.9716
17.8296
18.2203
20.8103
19.2264
34.3769
20.2915
21.1306
225.338
228.201
225.081
246.398
166.982
27.8037
44.5672
55.3241
208.327
33.2441
18.1456
30.9936
22.9961
16.4188
45.1036
40.1467
15.3469
17.1731
207.304
95.63
44.41
168.249
197.073
145.605
23.871
24.9887
31.7114
15.5829
12.9504
74.7096
0.956987
6.12669
15.2821
15.7223
14.2677
15.3829
15.033
14.7915
22.5231
22.4632
22.3924
22.307
22.1988
22.6716
22.821
22.9601
21.9242
21.8024
22.0887
21.6853
21.6758
20.8649
21.0266
20.6686
20.7977
21.4148
21.5153
21.6365
21.2373
21.1074
21.3677
20.5533
20.4042
20.5033
20.3311
20.1473
19.9715
19.6561
19.4876
19.7992
18.8781
19.1234
19.2526
18.4333
18.1402
18.0939
18.6817
25.0204
25.4829
24.9443
24.5662
24.8973
24.169
23.134
23.5709
23.8084
23.4161
24.1183
80.9821
4.51595
13.5242
18.7682
18.2721
26.75
26.5113
26.6655
26.0607
25.4743
30.5976
34.1771
30.7992
23.2036
26.4184
25.3932
23.9321
23.2425
23.3398
23.5746
172.31
188.857
262.054
184.202
279.721
330.038
463.949
484.64
330.063
490.781
112.361
112.5
133.239
55.0101
91.8924
113.244
26.5168
26.5412
26.4777
649.944
662.817
615.052
727.119
25.8396
26.1058
26.4613
26.4229
26.5116
26.1601
26.2229
24.1969
23.8872
24.7711
25.2909
24.3964
23.9878
25.0642
25.7146
25.6979
25.1375
25.9078
26.0088
25.8895
18.6494
18.5032
18.967
19.1079
19.4579
17.7281
17.4225
17.5354
17.7893
18.1769
20.7117
20.0442
21.0235
202.061
202.662
239.673
276.809
126.371
15.888
17.1404
71.296
22.6375
36.1815
27.6192
30.949
22.111
15.1846
14.801
42.4371
43.6485
40.1716
17.2435
17.3845
269.4
117.551
74.5726
251.22
275.801
222.584
24.3428
29.4874
45.5261
12.207
18.3189
2.07583
3.52848
5.96225
15.1228
15.6829
13.8992
15.3812
14.268
14.9445
15.3242
22.5838
22.5418
22.4575
22.2847
22.1752
22.7064
22.9059
23.0006
21.963
21.8368
22.0481
21.7535
21.7395
20.9394
21.0152
20.7056
20.7843
21.4291
21.5608
21.6396
21.2282
21.1564
21.3902
20.6568
20.4941
20.5447
20.3452
20.165
19.9969
19.7242
19.5132
19.8227
18.8947
19.1323
19.3802
18.5461
18.2785
18.1305
17.8855
18.7816
25.401
25.3279
24.4937
24.8913
25.2866
23.1836
23.8045
24.0832
23.4846
24.3523
31.3118
8.96436
9.7171
16.7404
18.5879
18.1409
26.0167
26.1765
25.565
23.7442
46.2377
46.2612
46.2361
36.4973
35.3472
30.0536
27.5606
25.3315
23.2912
208.953
244.012
271.845
327.052
203.568
220.084
366.175
392.273
521.35
511.554
600.435
410.047
603.951
151.216
172.593
76.2728
117.645
97.0052
149.72
25.9535
26.0268
25.7474
719.252
683.295
733.739
26.055
26.1679
25.9303
26.1851
26.1698
25.8709
26.0858
26.152
24.4169
23.8025
24.3596
24.9716
23.6227
23.3163
24.8386
25.8606
25.6637
24.6407
25.9735
25.9354
25.831
26.0688
18.6689
18.4448
18.8602
19.2554
19.6119
17.2697
17.0161
17.6996
17.3198
18.0463
18.3001
19.8614
21.4101
19.6179
21.2122
175.038
218.311
227.689
252.983
124.678
18.0598
18.3588
28.6363
18.1813
35.7794
29.3447
24.2779
16.4706
14.5998
15.7986
42.7076
44.2967
30.726
17.0827
16.9454
290.865
191.555
84.4465
282.071
262.074
239.973
26.4307
32.3241
49.0826
14.2766
72.4612
1.37434
3.31349
11.0095
15.2902
15.3374
13.7007
15.2325
13.7911
14.8648
23.1992
22.6664
22.5975
22.4436
22.5704
22.3614
22.2378
22.8239
22.9155
23.0987
21.92
21.8165
22.1112
21.8005
20.9062
21.0909
20.7132
20.8345
21.5118
21.5761
21.6984
21.2797
21.1603
21.352
21.4716
20.6929
20.5381
20.6345
20.2788
20.453
20.1617
20.0985
19.9143
19.7437
19.6703
19.5093
19.0104
19.2659
19.3905
17.9593
17.7945
25.9026
26.4551
25.8161
24.6018
25.2558
25.5781
23.3652
23.8578
24.0501
24.3636
23.7094
80.2808
10.6879
4.63388
15.4655
18.4644
17.6915
25.1416
25.6344
23.8527
23.398
61.7946
45.3329
64.0712
42.3254
36.7532
32.865
32.1573
29.2389
26.0507
24.5813
274.833
287
347.197
400.366
275.72
294.75
422.817
486.5
625.83
623.26
665.85
478.255
202.023
212.055
93.0217
165.048
136.355
190.125
25.4214
25.4291
25.5254
25.054
713.37
725.312
775.951
26.188
25.35
25.3883
25.8769
24.9908
25.3529
25.6139
25.8349
26.4265
24.5357
23.8797
24.0975
24.7594
26.4773
24.3921
25.1172
24.6313
24.3645
25.9123
25.4709
25.4966
25.9851
19.5451
17.0662
16.7264
17.7725
17.4208
17.9198
19.908