/*--------------------------------*- C++ -*----------------------------------*\
| =========                 |                                                 |
| \\      /  F ield         | OpenFOAM: The Open Source CFD Toolbox           |
|  \\    /   O peration     | Version:  v2012                                 |
|   \\  /    A nd           | Website:  www.openfoam.com                      |
|    \\/     M anipulation  |                                                 |
\*---------------------------------------------------------------------------*/
FoamFile
{
    version     2.0;
    format      ascii;
    class       volScalarField;
    location    "0.7";
    object      p;
}
// * * * * * * * * * * * * * * * * * * * * * * * * * * * * * * * * * * * * * //

dimensions      [1 -1 -2 0 0 0 0];


internalField   nonuniform List<scalar> 
13611
(
89991.2
91096.6
89306.5
91303
91675.6
92438.1
91293.8
90061.5
93127
91946.5
92632.2
91175.8
91547.4
89867.9
93201.3
91964.7
92983.9
92420
91054.2
91600.9
90418.1
93492
93461.5
93196
93123
92656.4
91221.3
92080.3
90187.6
93633
93565.3
93455.7
93411.9
93024.6
92534.7
91498
91937.5
90491.7
93790.7
93797.2
93554.1
93507.6
93281.8
92863.7
91460.1
92094.7
90279.3
91175.9
93885.5
93922.6
93899.2
93795.5
93700.8
93388.9
93259.2
92858.1
91737.1
92489.6
90432.6
91148
94071.9
94071.8
94085.2
93936.5
94131.4
93808.3
93894.5
93717.3
93512.5
93285.6
91701
92629.4
89933.2
91347.1
94213.6
94169.2
94202.8
94228.9
94151.4
94029.6
94057.7
93887.8
93551.7
93817.2
93381
92218.5
93056.8
90687.8
91472.9
94405.2
94295.6
94373.4
94376.5
94274.2
94325.7
94180.3
94236
94142.2
93856.6
93979
93744.9
92189.7
93280.6
90501.6
91684.2
94417.9
94542.2
94519.5
94534.3
94482
94444.8
94507.3
94403.6
94413.2
94312.9
94062.8
94239.2
94046
93890.6
92587.2
93069.5
93758.5
89720.9
91300.7
91671.3
94507.4
94702.4
94663.2
94667.1
94560
94631.2
94551.2
94502.8
94368.1
94323.5
94293.2
94227.9
92501.4
93394.7
94034.5
90452
91668.4
92096
94641.8
94838
94740.7
94827.6
94810.3
94722.3
94708.7
94677.8
94752.1
94636.4
94591.7
94568.4
94538.2
94426.3
92753.2
93183.9
93815.1
94363.6
94055.9
90198.3
91599.9
92055.5
94883.8
94961.8
94874
94925.7
94890.7
94819.6
94885.6
94829.6
94785
94870.1
94807.4
94767.7
94652.1
94788.7
94782.6
94749.6
92443.4
93511
94118.7
94585.9
94439.4
90777.9
91698.3
95056.1
94972.6
95084.6
94919.2
95085.3
95012.1
95020.4
95039.3
94866.8
94797.4
95054.6
94910.7
94908.3
95019.1
94986.9
94902.8
92486.4
93435.5
94022.6
94498.9
94635.6
94808
91592.8
90391.2
92051.8
95113
95079.7
95196
95049.4
95196.1
95115.5
95132.1
95189.2
94976.2
94895.6
95177.2
95097.1
95068.4
95192
95219.5
95141.3
93001.9
93844.4
94340.5
94814.4
94917.5
94987.6
91739.9
90782.1
92342.3
95229.4
95189.4
95124.1
95314.6
95082.8
95338
95242.4
95330.3
95337.7
94986.5
95345.1
95221.6
95303.5
95395.5
95327.6
95374
95289.1
95195.8
92893.6
93955.9
94260.1
94730.4
94906.3
95099.8
95111
91587.8
92130.2
90162.2
95353.3
95275.7
95225.6
95408.4
95385.6
95196.5
95354.1
95462.6
95424.6
95402.6
95465.5
95077.5
95488.5
95442.4
95457.6
95529
95561.8
95597.4
95541.9
95387
93199.4
93709.2
94458
94586.2
95014.3
95274.9
95381.8
95377.7
91954.8
92336.7
90938.5
95480
95385.4
95313.1
95519.9
95530
95293.7
95192.9
95481
95589.5
95584.2
95563.4
95579.3
95130.3
95090.9
95638.3
95659.7
95715
95662.9
95681
95733.6
95644.3
95580.7
92892.5
94075.6
94747.8
94957.6
95343.1
95461.6
95637.4
95625.4
91956.2
90895.7
95599.7
95478.7
95449.5
95600.9
95624.8
95384.8
95265.8
95594
95710.4
95689.9
95674.9
95706
95213.5
95149.1
95802
95796.2
95824.2
95868.1
95897.5
95940.9
95854.7
95784.4
93171.8
94623.8
93865.6
95194.7
95260.7
95641.8
95790.4
95864.8
95831.8
92099.9
90222.5
91809.7
95726.4
95573
95516.4
95730.4
95756.9
95441.5
95484.6
95382.5
95724.6
95834.9
95872.9
95814.7
95824.2
95283.6
95244
95932.8
95859.8
95956.3
96000.1
95961.5
95985.9
96024.3
96028.7
95936.5
93012.6
95039.8
94153.2
95532.1
95633.3
95902.1
95955.1
96076.9
96070.2
92559
90876.6
92069.2
95838.3
95672.2
95635.7
95801.3
95756.4
95850.5
95527.3
95567.6
95378.4
95843.4
95951.9
95924.4
95950.5
95300.3
96100.9
95991.4
96102.9
96119.4
96165.4
96182.1
96221.3
96178.2
96141.2
93477.7
95041.4
95508.2
93916.5
94656.7
95906.8
95937
96196.9
96223.2
96305.8
96163.8
96222.1
92787.6
91833.7
90682.7
92460.1
106735
108668
95967.3
95709.6
95650.7
95919
95867.5
95972.3
95588.8
95472.8
95978.2
96072.3
96058.6
96069.2
95235.4
95408.4
96135.3
96201.8
96211.7
96257.8
96262
96268.4
96295.8
96343.9
96307.5
93319.1
95548.3
95888.4
94341.8
94777.7
96266.3
96256.5
96353
96343.3
96369.3
96482.4
96397.4
96441.3
91780
91119.7
92713.2
107301
106502
105603
108724
108804
96050.3
95830.3
95751.5
95959
96004.1
95910.9
95568
95717
95488
96084.3
96192.5
96173.8
96191.1
95449.7
96267.4
96351.2
96338.3
96398.3
96481
96442.1
96478.1
96531.5
96411.6
93659.8
95603.4
95919.1
96275.2
94250.1
95204.9
96540.6
96508.7
96577.3
96648.6
96633.5
96699.3
96527.9
96579.6
91941
90736.3
92438.7
93423.5
107576
105982
106835
105668
108357
108743
96177.6
95843.8
95794
96085.7
96125.5
96010
95661.1
95742.5
95575.7
96209.8
96294.9
96308.1
96315.9
95400.2
95537.2
96403.7
96397.3
96470
96436.2
96489.9
96557.7
96542.6
96597.5
96612.6
96538.1
96012.1
96283.4
96619
94639.9
95425.7
96866.6
96779.7
96726.1
96719.1
96837.4
96786.4
96837.7
96747
96782
91898.9
91261.3
92897.6
93695.9
107312
105812
106535
105024
105272
104525
108791
108895
96255.8
96241.4
95936.5
95902
96102.9
96166.8
96219.8
96070.5
95665.3
95832.8
96306.8
96423.7
96443.4
95374.8
95434.2
95574.2
96496.4
96514.9
96578.3
96590.8
96629.9
96733
96706.9
96766
96779.1
96634.8
95955.7
96352.1
96427.2
96599.9
96965.1
94582.3
95219.9
97053.3
96990.8
96983.7
96962.9
97112.5
97022.9
97053
96868
96939
92153.6
91182.3
93427.3
92659.3
94201
107584
106013
105384
106633
104715
105143
104213
108329
108805
96397.9
96363.5
95973.1
96046.8
95919.4
96197.2
96284.5
96299.5
96166.8
95764.5
95898.8
96421.3
96498.6
96554.3
95522.1
95674
96663.1
96581.7
96713.7
96686.1
96724.7
96907.3
96825.2
96874.6
96774
96883.9
96348
96760.3
96821.7
96909.2
97286
95141.2
95510.1
97437.4
97250.1
97171.6
97119.4
97312.7
97151.3
97166.8
97072.6
97118.4
91906.7
90704.6
93803.8
92973.9
94297.2
107573
105704
105315
106136
107158
104596
104788
104103
108633
108892
96473.7
96441
96381.2
96067.7
96120.2
96021.6
96291.5
96350.4
96336.7
96235.7
95763.2
95871.9
95994.8
96619.5
96669.7
95526.9
95577.3
95646.5
96763.9
96724.2
96793.9
96828.7
96885.8
97060.8
97003.8
97048.2
96873.8
97027.1
96382.9
96805.5
97026.1
97256.8
97570.7
95263.4
96002.2
97493.9
97638.9
97419.7
97362.9
97570.4
97379.5
97369.4
97175.1
97259.6
92175.1
91183.3
93597.8
92675.7
94800.2
108192
105720
105018
106006
107204
104283
104624
103579
103803
108943
96585.7
96557.1
96469.5
96125.3
96214.9
96108.9
96372
96437
96471.8
96341.1
95847.1
95948.2
96070.5
96701.7
96661.5
96766.3
95530.6
95718.1
96900.3
96928.8
96938.9
96966
97249.1
97115.5
97121.5
97010.4
97080.1
96892.9
97211.8
97404.7
97542.3
97839.4
95823.6
96204.4
97739.6
97922.5
97620.8
97497.8
97495.6
97757.6
97481.3
97472.4
97379.3
97417.6
97328.6
91967
90956.5
93813.9
92936.5
94940
108312
105339
104712
105014
106199
105563
107699
106704
104152
104291
103312
103712
109247
108885
96668.6
96657.7
96563.3
96251.3
96299.9
96203.8
96472.5
96513.1
96546.7
96416.6
95943
95825
96048.5
96187.4
96826
96779.1
96896.8
95619.2
95713.3
96983.6
97006.1
96981.3
97078.2
97110.1
97370.3
97294.1
97267.4
97111.5
97242.6
97009.3
97259.9
97604.1
97676.2
97899.1
97995.4
98045.2
95934.3
96697
97992.2
98056
97859.9
97735.2
97762.3
98008.1
97690.9
97647.6
97568.8
97515.5
92217.8
91348.8
93450.8
94265.3
92655.3
94685.3
95507
105310
104450
104714
105857
105390
107770
106726
103866
104104
103270
103464
109200
108939
96778.7
96755.5
96654
96284.9
96390.4
96560.2
96632.7
96647.8
96528.7
96035.6
95893.7
96138.4
96258.6
96925.5
96857.3
95608.6
95804.6
97104.2
97129.3
97087.4
97175
97189
97159.8
97543.8
97366.4
97330.1
97248.5
97509.2
97677.3
97995.2
98138.6
98221
98308.7
98291.7
96451.9
97002.5
98083.4
98151.3
98364.6
98058.8
97897.2
97875.2
97846.6
97760.1
97770.8
97735.7
97620.6
92013.3
91129
93703.5
94189.8
92962
95143.2
95596
105002
104471
104175
104628
105477
105939
105063
107505
108357
107051
106292
103740
103845
102823
103053
103370
109284
96883.4
96865.4
96747.7
96394.7
96474.7
96672
96704.7
96711.4
96595.8
96126.6
96006.1
95889.6
96238
96373.6
97036.7
96951.1
95691.2
95787.1
97184
97167.9
97165.3
97311.1
97322.8
97274.1
97661.1
97510.6
97472.7
97349.2
97817.2
97549.3
98021.8
98325.9
98411.9
98594.7
98581.6
98488.7
96477.7
96924.5
98343.2
98376.5
98524
98286.3
98109.5
98084
98039.4
97971.6
97965.2
97871.1
97797.8
92186.6
91367.3
93510.1
94532.1
92673
95065.4
96043.5
104734
104226
103950
104299
105212
105690
104839
107662
108565
106873
106218
103488
103653
102821
103113
109112
96984.7
96949.2
96845.4
96487.1
96433
96575.8
96752.8
96818.3
96830.6
96710.2
96209.8
96049.2
95965.2
96323.8
96406.6
97040.3
97145.4
96998.3
95678
95860.4
97276.5
97301.1
97286.4
97391.3
97360.4
97826.1
97640.9
97562.2
97539.5
97480.9
98313.3
97919
98406
98673
98791
98933.2
98840
98760.1
96957.1
97377.3
98484
98539.5
98783.5
98297.6
98496.9
98255.6
98089.2
98202.7
98098.4
98047.6
97893.4
97884.4
91914
91181.8
93857.8
94393.2
92850.5
95413.8
96190.3
104501
103988
103693
104160
105208
104902
105404
105872
104555
108064
107235
108965
106473
103409
102620
102959
109076
97079.9
97069.9
96934.4
96588.1
96531.6
96654
96855.2
96889.4
96896.2
96736.3
96315.2
96218.8
96146.4
95985.2
96504
97128.4
97235.7
97101.2
95700.8
95745.5
95949.1
95829.9
97375.6
97395
97370.2
97510.6
97477.6
97941.6
97777.9
97717.9
97670.6
97561.2
98548.8
98378.5
97849.8
98731.6
98966.6
99026.2
99210.4
99140.3
98938
96807.8
97382.8
98743.9
98771.2
98888
98495.7
98710.2
98476
98291
98272.6
98356.8
98293.5
98144.2
98050.8
98030.9
92052.7
91354.8
93768.1
94739.2
92480
93326.7
95915.4
95218.6
104264
103777
103492
103918
104918
104697
105298
105744
104350
108158
107195
108754
106264
103209
102290
102693
102380
103008
109200
97149.9
97127.7
97108.5
97024.4
96672.2
96609.2
96573
96934.9
97000.8
97014.8
96815
96391.2
96310.3
96162.4
96084.4
96543.2
97218.3
97338
95761.3
96016.1
95878
97481.2
97509.7
97494.2
97593.3
97579.8
98106.9
97906.5
97765.3
97733.9
97686.1
99040.5
98800.9
98219
99219.5
99320.6
99482.7
99540.5
99269
99362
99231.6
97006.8
97855
98865.4
98938.4
99164.7
98699.7
98918.5
98656.9
98519.7
98378.5
98516.5
98409.9
98317.1
98102.5
98141.4
91844.9
91045.2
94222.1
94662.7
92521.5
93322.7
96204.4
95488.2
104069
103759
103539
103256
103846
104720
104886
104470
105062
105456
105870
104342
104112
107892
106769
107515
108996
106388
103152
102519
102211
102811
109225
97255.1
97248.5
97210.1
97060.7
96774.2
96705.4
96659.2
97028.2
96911.9
97063.4
97065.3
96841.3
96388.7
96496.3
96326.4
96246.3
96083.6
96634.9
97300.3
97419.3
95847.7
95979.9
97583.7
97601.4
97554.4
97551
97721.2
97680.9
98200.7
98013.3
97889.6
97855.4
97763.9
99391.9
99359.9
98674.2
99169.5
98231.7
99464.7
99611.3
99714.8
99695.6
99561.1
99647.1
99345.9
96668.5
97473.4
98072.7
99116.2
99147.6
99262.8
98906.9
99106
98673.9
98867.5
98595.5
98663.5
98600.5
98368.6
98253.9
98263.2
92121.2
91493.2
94139.7
95149.1
92886.6
93672.3
95959
103520
103362
103096
103631
104502
104690
104352
104992
105330
105652
104097
103947
108097
106902
107328
108539
106074
102889
101851
102596
102287
101965
109296
109201
97316.2
97287.5
97242.4
97168.3
96787.7
96720.7
96712.4
97100
96963.5
97150
97180.8
96913
96461.6
96528.3
96432.1
96244.1
96154.7
96712.2
96667.5
97395.3
97519.1
95831.3
95907
95992.6
97681.4
97708.9
97673.1
97660.2
97791.9
97776.8
98324.1
98153.3
98056.8
98009.7
97931.9
97889.3
99928.7
99856.2
99032.4
99479.9
98689.6
99658
99875.1
100085
99971.5
99741.7
99835.4
99607.3
96924.7
97401.3
97905.6
98601.7
99330.5
99485.8
99101.6
99304.7
98884.5
99010.7
98704.3
98707.4
98867.1
98681.9
98509
98380
92085.8
91447.3
94410.8
95245.4
92860.1
93649.4
96258.1
103454
103366
103170
102876
103589
104406
104774
104496
104175
105098
105382
105713
104047
103745
107977
106671
107568
108702
106098
102770
101619
102438
102141
101821
109591
109506
97415.6
97396.8
97344.7
97198.6
96881.2
96810.9
96789
97112.3
97188.6
97049.2
97209.9
97239.7
96970
96503.4
96611.4
96420.4
96327.3
96197.2
96811.4
96767.3
97468.7
97603.8
95900.6
96082.4
97770.9
97788.3
97743.2
97722.9
97681.4
97912.3
97874.4
98405.5
98400.6
98243.2
98186.9
98100.3
98055.8
97963.9
100065
100268
99416.2
100265
98787.5
99961.2
100283
100352
100213
100038
100189
99828.9
99650.8
96769.9
97736.1
98422.4
98900
99550.4
99612.2
99299.2
99460.9
99018.3
99230.8
98887.6
98901.6
99000.4
98859.5
98631.3
98508.4
92427.5
91055.7
92018.4
94849.4
94071.6
95710.7
93269.5
96126.7
103248
103167
103044
102753
103395
104179
104676
104358
104090
104986
105166
105464
103872
103664
108282
106320
106702
107427
105805
102534
101140
101487
102216
101920
101599
110008
108549
97477.6
97481.2
97481.8
97417.4
97373.4
97308.7
96885.9
96964.5
96854.2
97194.8
97273.3
97048.3
97303.2
97315.7
96585.5
96647.1
96481.7
96284
96175.3
96875.6
96779.6
97583.2
95994.2
95944.3
96070.5
97870.8
97897.7
97838.5
97844.4
97770.2
97951.2
98368.1
98519.7
98535.4
98270.1
98223.4
98146.2
98093
100674
100186
100340
99460.4
100267
99223.1
100569
100798
100861
100504
100255
100426
100061
99854.9
97082.6
98290
97552.8
98782
99438.1
99724.1
99832.8
99463.9
99357.7
99661.2
99187.2
98981.4
98997.2
99202
98876.5
98984.3
98755.2
98630.9
92431.3
91379.8
92219.4
95002.6
94134.2
95797.9
93270.4
96492.3
103109
103169
102858
102552
103247
103383
104068
104469
104782
104159
103895
105101
105204
105545
103724
103484
108225
106165
106348
106989
107830
105892
102433
100961
101285
102088
101796
101479
108866
108566
97580
97577
97572.2
97508.5
97462
96958.2
97053
96943.1
97194.6
97273.8
97354.3
97117.9
97364
97363.6
96647.2
96719.3
96430.8
96583.5
96339.5
96225
96951.3
96831.1
97642.5
95996
96146.7
97957.2
97916.8
97900
97864.9
97797.4
98046.9
98451.8
98616.2
98640.7
98405.5
98315.9
98273.7
98136
100555
100617
101471
99966
100505
100630
100323
100953
100542
100402
100648
100570
100336
100564
100060
96933.9
98609.6
97830.5
99249.4
99649.8
99960.4
100024
99641.3
99569.5
99767.6
99302.9
99169
99160.5
99287.8
99005.7
99132.5
98750.9
92862.3
92008
91138
92707.3
94618.4
95479.8
93708.5
96284.9
102912
102959
102771
102432
103124
103220
103889
104386
104672
104043
103763
104835
105027
105350
103572
103429
106149
106799
107822
105724
102246
100982
101183
101891
102110
101581
101247
108801
108963
108185
97647.9
97649
97584.5
97531.2
97500.9
97040.5
97132.6
97013.7
97262.3
97351.5
97441.6
97457.1
97464.3
96646
96748.3
96768.9
96468.7
96603.7
96307.3
96220.7
96996.5
96898.7
97737
95958.5
96094.7
96158.3
98042.2
97999.8
97976.3
97952.5
97897.4
98082.8
98578.8
98749.2
98767.7
98491.4
98446.8
98371.2
98236.7
101105
101711
100353
100899
101577
100882
100822
100952
101297
101129
100663
100503
101007
100255
97290.9
99090
98307.2
97718.3
99530.1
99963
100082
100244
99710.7
99659.7
99956.4
99531.6
99232.5
99280.6
99472.7
99009.8
99134.1
99272.7
98878
92198.1
91494.6
92950.6
94641.1
95696.6
93765.5
96444.2
102847
102875
102601
102221
102466
102972
103167
103776
103810
104221
104485
104688
103859
104077
103582
104804
104993
105104
105450
103276
105804
106329
107004
107436
100636
100807
101788
101914
101486
101121
109097
109110
108154
97749.9
97738.2
97673.7
97621.2
97592
97101.7
97215.1
97087.7
97341.2
97279.8
97440.2
97503.4
97507.4
96713.1
96814.5
96572.2
96397.3
96674.6
96350.7
96321.3
96979.4
97090.8
96939.4
97786.8
95999
96133.7
96252.5
98119.7
98095.2
98045.8
97965.4
98050.9
97933
98197.3
98665.3
98843.5
98882.2
98621.5
98535.4
98493.5
98343.8
98260.8
102297
101217
100220
100722
101070
101249
102181
101193
102116
101345
101188
101646
100634
100630
100466
101192
97249.1
99311.2
98460.7
98126.1
100001
100522
100312
100449
99921.1
99925
100039
99637.9
99404.7
99420.5
99611.9
99516.8
99134.7
99268.9
99416.6
92647.9
92023.7
91216.2
93432
94205.8
95035.5
95495.9
96169.2
96883.3
102658
102713
102552
102082
102311
102898
103001
103617
103642
104239
104396
104496
103726
103932
103444
104637
104754
104951
105283
103217
105571
106088
106790
107455
100466
100788
101620
101854
101314
100936
101178
109025
108564
107793
97797.2
97751.5
97688
97650.1
97628.3
97204.1
97254.6
97147.8
97401.1
97353.6
97522.3
97583.6
97585.8
96791.6
96735.2
96907
96580.3
96461.8
96689.9
96323.7
97035.5
97145.7
97162.8
97007.9
97880.8
96118.5
96262.6
98210.3
98147.3
98124.3
98086.4
98057.6
98113.2
98018.8
98794.1
98987.8
98997.5
98710.4
98670.4
98576.4
98417.2
98356.3
102095
102225
100535
101310
102068
101860
101721
102270
102261
101166
101331
100883
101049
101145
100628
101835
101342
97644.2
98917.7
99513.9
98070.3
99999.1
100951
100515
100367
100050
100004
100217
99864.7
99556.8
99779.4
99678.1
99123.9
99262.3
99408.2
99556.6
92775.9
92347.5
91529.2
93689.9
94155.1
94920.4
95836.8
96440.1
96892.1
102600
102642
102375
101921
102137
102728
102948
103476
103533
104127
104407
103558
103768
103974
103288
104625
104474
104671
104744
105042
105319
103054
105524
106124
105705
107102
106404
100389
100593
101566
101679
101273
100870
101015
109041
109076
108627
107877
97880.8
97841.8
97760.2
97740.2
97710
97213.3
97342.5
97486.9
97390.8
97591.8
97641.4
97634.7
96846.5
96812.5
96958.1
96643
96504.4
96744.5
96357.1
97131.3
97226.1
97215.9
97074.5
97931.9
96115.3
96262.3
98305.9
98260.5
98200.6
98186.5
98077.2
98202.7
98069.7
98879.8
99058.4
99051.9
98836.8
98752.6
98708.1
98594.7
98525.5
98385.1
101790
102523
100977
101876
101995
102224
102085
101387
101755
101849
102750
100875
101201
101410
101089
100917
101588
101030
97734.4
99050.2
100046
99768.1
98407.2
100596
100750
100779
100571
100234
100225
100295
99921.4
99692.7
99806.3
99235.3
99386.8
99545.5
99696.6
93161.4
92380.6
91157.6
92086.4
93579.8
94470.2
95244.9
95701.3
96305.6
97217.1
102446
102459
102288
101783
102031
102649
102817
103356
103386
104111
104205
103434
103661
103872
103181
104440
104339
104486
104594
104936
105112
102994
105216
105783
105569
106965
106286
100187
100436
100585
101398
101629
101105
100728
100986
109247
109195
108211
107531
97926.1
97834.1
97914.4
97788.8
97763.7
97755.3
97278.9
97391.9
97530.7
97482.4
97642.3
97634.3
97741.8
97724.1
96921.5
96846.4
97048.9
96688.3
96605.9
96453
96780.5
96387
97134.7
97290.9
97288.7
98033.4
96343
96131.7
98334.1
98273.6
98234.9
98245.1
98163.5
98248.6
98143.4
99003.3
99216.6
99186.8
98930
98881.4
98779.6
98708.5
98560.4
98487.9
102468
101707
101286
102166
102409
102418
102051
101578
101874
103008
101232
101828
101047
101255
100871
101511
101457
98185.9
97591.1
98766.6
100805
100114
101462
101779
100986
100766
100503
100362
100246
100403
100073
99841.1
99974.4
99362.1
99527.3
99689.3
99842.5
93155.1
92791.8
91599.3
92365.9
93937.6
94361.5
95098.9
96047
96649.9
97116.1
102324
102362
102119
101765
101873
102708
102502
102846
103213
103260
103952
104122
103275
103433
103738
103519
103043
104378
104184
104430
104582
104741
105048
105126
105689
105301
106540
107131
105918
100063
100268
100462
101350
101480
101065
100709
100823
109398
108650
108264
107651
98024.8
97889
97983.6
97851.8
97850.8
97832.7
97365.2
97483.2
97621.8
97521.1
97691
97671.5
97802.7
97772.2
96975.4
96901.1
97118.2
96742.6
96635.6
96433.8
96898
96327.5
97201.6
97375.3
97369
97341.1
98076.9
96257.7
96178.7
98422.7
98357
98321.3
98332.7
98234.5
98340.8
98200.4
99092.6
99284
99225
99058.3
98946.3
98887.7
98728.4
98650.3
98499.4
102942
102554
101967
102398
102573
102771
102998
102556
102055
101805
101603
102176
101799
101682
101070
101166
102655
102868
102236
98253.8
97932.9
98970
100698
100893
99701.9
100416
101615
102007
101347
101048
100526
100386
100686
100109
99991.9
99475.7
99652.4
99822.1
99985.4
93490.3
92761.1
91544.9
92254.3
93864.1
94662
95346.8
96526.2
95842.1
97500.3
102166
102209
102399
102046
101585
101810
102606
102472
102769
103111
103126
103887
103968
103160
103288
103661
103453
102950
104204
104076
104276
104380
104702
104832
104872
105357
105173
106456
106808
105795
100087
100301
100539
101192
101450
100900
100772
109478
109239
108786
108040
107345
98048
97969.7
98012.7
97902.4
97912.5
97883.4
97409.8
97528.8
97651.3
97608.9
97767.7
97766.4
97882.6
97850.2
96963.8
97095.5
97200.7
96738.5
96648.6
96521.8
96987.7
96260
97308.2
97233.4
97431.5
97407.5
98172
96349
96274.9
96027.5
98475.9
98450.4
98364.5
98397.7
98309.3
98364.5
98405.5
98293.7
98225.4
99426
99320
99145.6
99052.6
98952.3
98826.3
98716.1
98579.2
102979
102669
102688
102694
102866
103005
103321
102631
102753
102638
102547
102873
101604
101413
101102
101998
102215
101310
98671.7
97916.7
99299.8
101196
101411
100269
100570
101884
102118
101057
100790
100665
100289
100562
100785
100686
100148
99626
99800
99975.8
100146
93491.6
93108
91171
92096.1
92601.8
94171.9
94548.7
94979.9
96872.7
96139
97385.1
102120
102131
102253
101911
101557
101671
102637
102358
102813
102987
102995
103731
103929
103183
103045
103302
103517
104078
104162
104199
104222
104370
104516
104712
104796
104704
105234
104915
106090
106908
105438
99939.6
100185
100482
101159
101287
100874
100595
109105
109367
108526
108218
107292
98126.6
97973.7
98085.1
97990.4
97960.3
97485.2
97614.5
97732
97650.9
97807.8
97789.6
97935.1
97902.1
96970.7
97110.6
97255.7
96903.4
96672.1
96794.4
96517.1
97024.9
96415.9
97331.3
97260.3
97516.7
97453.8
98189.6
96390.3
96198.1
96278
98555.4
98508.9
98462.2
98474.6
98421.5
98494.6
98334.7
98289.9
99534.5
99277.3
99445.6
99132.9
99120.6
98924.8
99075.4
98802.4
98683.3
103148
102832
102956
102885
103041
103200
103300
103495
102829
102132
102604
102510
102479
101247
101791
101915
102137
101663
102033
101832
98864.1
98419.1
99691.3
101271
101693
100444
101032
102464
102852
102423
101748
101266
100315
100699
101068
100899
99739.9
99916.4
100099
100287
93930.7
93060.3
91251.5
92053.4
92522.8
95045.2
96886.6
95943.7
96637.9
97668.3
101941
101990
102238
101849
101438
101629
102554
102353
102734
102902
102967
103649
103801
103069
102991
103219
103432
103932
104019
104025
104075
104211
104515
104582
104503
104896
104766
105929
106701
105273
99759.3
99921.8
100015
100291
101012
101243
100752
100527
109503
109209
108713
108023
107566
106949
98139.6
98027
98122.6
98042.9
98004.7
98004.8
97543.4
97654.1
97762.9
97728.6
97879.4
97877.2
97935.8
98021.1
97984.8
97164.6
97011.7
97269
96807.4
96729.7
96759.4
96582.9
97053.5
96490.5
96475.9
97407.4
97327.6
97571.9
97561.2
98269.9
95914.2
96438.3
98623.6
98590.6
98548.2
98474.9
98490.5
98560.5
98410.2
98335.8
99704.5
99531.2
99360
99532
99221.7
99208.6
98988.6
99131
98865.9
98712.1
103153
103489
103030
103096
103431
103470
103676
103576
103701
102922
102600
101918
102724
102748
102057
101841
101245
102817
101971
102154
102165
101835
99215.4
98527.4
100106
101812
101957
100900
101346
102639
103191
102949
101438
101217
100467
100940
100622
100920
100994
99889.1
100076
100262
100449
93953.4
93457.1
91600.9
92338.3
92896
95498.8
94719.6
97363.5
96295.2
96965.7
98164.6
101881
101945
102118
101697
101486
101315
102433
102607
102233
102779
102837
103677
103503
103801
103026
102871
103291
103098
103922
103957
103945
104069
104207
104361
104489
104461
104353
104816
104716
104548
105479
106050
106356
104972
99638.3
99720.4
99910
100219
100989
101083
100608
100826
100349
109438
108713
108299
107569
106747
98218.1
98101.5
98199.5
98098.1
98077.2
98065.4
97623.7
97730.3
97816.6
97773.3
97941.7
97882.9
97933.1
98008.2
98048.5
98042.1
97244.5
96973.4
97247.5
96827.5
96763.3
96739.8
96521.9
96999
96594.8
96494.3
97488.3
97439.9
97660.4
97590.9
98338.2
98279.4
96094.9
96827.9
96226.2
98642.9
98629.1
98617.6
98528.2
98477.1
98635.2
98405
99807.1
99661.8
99491
99324
99645.6
99291.9
98960
99084.8
99247
98903.4
98784.6
103404
103756
103320
103288
103702
103785
103807
103998
102948
102669
102404
102696
102853
101812
102373
101706
102153
102580
102491
102028
99343
98914.1
100093
101620
102147
102682
100695
101114
103077
103536
101656
100889
100837
100742
101461
101309
100006
100196
100391
100647
94295.6
93382
91568.5
92135.6
92799.1
95385.6
94962.4
97380.4
96831.6
96149.8
98303.8
101755
101804
102000
102128
101620
101409
101229
102369
102521
102245
102690
102744
103556
103446
103693
102902
103044
102801
103225
103047
103797
103813
103815
103926
104058
104287
104293
104196
104533
104461
104386
105411
105721
106372
104776
99482.7
99642.4
99960.7
99725.3
100072
101029
100497
100781
100281
109415
109044
107994
107231
106832
98135.8
98242.6
98144.8
98139.6
98121.5
97684.9
97791.6
97881.3
97854.4
98005.3
97906.1
97997.7
98126.5
98106.6
97200.5
97191.1
97091.5
97372.9
97072.1
96781.7
96725.6
96843.9
97000
96431.6
97491.4
97592.4
97387.1
97700
97715.9
97621.3
98420.9
98350.2
96374.5
96638.8
96282.3
98732.8
98712.9
98684.8
98594
98535.5
98656.4
98696.7
98459.2
99965
99783
99537.2
99367.4
99737.8
99317.7
99017
99127.8
99280.7
98874.1
98979.9
98791.6
103666
104073
103487
103435
103286
104123
104184
104105
104197
103108
102779
102559
102789
103026
101959
102000
102358
101713
102178
102486
102438
102525
102278
99868.4
99157.6
101962
102439
102934
100834
101607
103373
103864
101142
101140
100728
101272
101573
101183
100162
100345
100535
94222
93791.5
91236.5
92346.4
93165.5
95674
94669.9
97863
97159.9
96411.5
98725.4
101660
101725
101769
101900
102024
101461
101281
101109
102404
102554
102160
102693
102661
103523
103328
103703
103584
102922
102819
102688
103109
103242
102925
103711
103749
103718
103781
103924
104057
104213
104227
104182
104523
104307
104286
105126
105725
106075
104681
99380.7
99129.6
99466
99840
99629
100052
100895
100539
100341
100661
100134
109546
108912
108061
107261
106472
98207.5
98316.9
98209.4
98198.7
98189.2
97765.9
97859.8
97898
98066.8
97944.8
98025
98067.1
98138.1
98180.6
98171.4
97427.3
97227.3
97215.5
97323.6
97057.4
96916.9
96571.2
96890.1
97038.9
96538.4
97515.3
97675.7
97491.4
97782.6
97771.1
97633.9
98422.3
98477.2
98365
96523.3
96303.7
96402.3
96345
98755.8
98740.5
98627.9
98601.3
98524.8
98735.6
98771.7
100032
99886.4
99647.8
99465.2
99746.7
99857.4
99447.5
99095
99221.9
99364.1
98912.7
99029.6
98861.9
103862
104290
103760
103667
103481
104299
104379
104569
104412
104588
103145
102865
103005
102515
101914
102287
101881
102264
102679
102607
102324
102577
100155
99541.2
102085
102501
103044
103411
101321
100469
101535
103761
104276
101764
101006
101003
101454
101639
101550
100271
100515
100763
93689.6
91568
92100.3
92810.5
93163.4
95661.9
94796.9
97995.1
96864.3
97684
96128.4
98894.7
101558
101595
101684
101922
102038
101386
101178
101064
102319
102467
102193
102571
102556
103383
103297
103612
103531
102866
102722
102623
103063
103147
102863
103588
103618
103609
103658
103815
103913
104064
104068
104038
104290
104083
104021
104798
105089
105357
106088
104352
99217.1
99383.3
99912.9
99697.8
99466.3
100870
100425
100243
100663
100049
109623
108394
109391
107640
106916
106511
98350.5
98264.5
98259.3
98243.9
97792.3
97890.6
97915.1
97970
98076.4
98119.3
98191.6
98234.2
98242
97552
97256.5
97316.1
97246.4
97584.4
97348.2
97111
97011.7
96917.2
96460.6
97043.1
97016
96623.3
97629.2
97647.8
97870.4
97747.3
97910
97723.5
98488
98553.7
98436.3
96510.7
96477.2
96381.8
98826.4
98821.6
98714.5
98643.5
98580.9
98756.6
98786.7
98834.1
99996.2
100165
99671.9
99513.9
99869.1
99955.9
99456.2
99147.4
99220.1
99405
98994
99047.2
99122.7
98877.6
104167
104589
103861
103678
103483
104737
104810
104641
104891
104687
104770
103329
102991
102826
103082
102562
102036
101912
102494
101834
102641
102606
102449
102437
99796.4
99754.5
102311
102917
103332
103825
100979
100533
101944
104206
104659
101892
101094
100768
101226
101431
101227
100270
100391
100610
93971.4
91312.7
92446.4
92862.4
93633.1
95312.1
94441.7
98496.7
97043.6
97856.1
96289.5
99276.4
101453
101523
101719
101587
101829
101947
101276
101176
100956
102362
102488
102101
102461
103354
103176
103566
103441
102750
102696
102538
102975
103115
102891
102759
103483
103527
103511
103708
103519
103777
103788
103919
103938
103931
103962
104080
103876
103842
105375
105744
99139.6
98875.4
99220.6
99893.6
99603.4
99386
100765
100455
100302
100096
100559
109741
108268
109151
107813
106803
106154
98408.1
98330.5
98315
98306.3
97928.3
97986.6
97994.2
98061.4
98128.9
98183.2
98249.1
98277.3
98300.3
98299.2
97426.9
97336.7
97163.1
97258
97426.2
97523.2
97118.6
96991.1
96922.8
96756.9
96938.9
97103.5
97652.6
97658.7
97913.4
97709.4
97849.3
97818.3
98488.4
98551.9
98580.8
98448.4
96602.8
96542.4
96410.8
98863.3
98741.4
98713.7
98631.7
98832
98859.8
98902.5
100111
100189
99609.2
99764.7
99874.8
99946.3
100091
99515.1
99285.2
99372.7
99481.2
99012.5
99123.9
99165.1
98957.1
103635
104991
105006
105046
105318
105059
103390
103024
102835
103224
102398
102237
101972
102411
102460
102694
102749
102535
100414
100298
102945
102500
103393
103756
104193
101403
101762
104651
101991
100983
101085
101322
101614
101571
100454
100557
100708
91554.2
92431.2
93229.7
93661.2
95465.9
94639.1
98707.1
96767.8
97531.9
98337.9
95976.6
99493.2
101382
101523
101406
101635
101537
101844
101944
101265
101054
100902
102310
102397
102127
101990
102382
102422
103256
103134
103449
102701
102588
102467
102534
103005
102804
102709
103367
103432
103483
103667
103432
103669
103787
103786
103772
103783
105776
98973.9
99149.8
99795.2
99645.7
99452.4
99249.2
100768
100350
100237
100005
100560
109738
108506
109469
107587
107073
106312
98443.3
98381.7
98379.4
98355.2
97929.4
98001.2
98083.6
98151.7
98161.1
98225.1
98309.8
98337
98359.2
98350.3
97254.1
97578.6
97266.8
97357
97739.9
97680.7
97142.1
97049.1
96878.3
97025.6
96862.5
97113.6
97583.8
97972
97743.5
97954.6
97796.5
98551.6
98609.8
98656.6
98507.6
96655.9
96568.2
96434.9
98937.5
98806.7
98730.6
98685.5
98880.4
98851.1
98908.6
98963.6
100260
99684.1
99762.8
99951.9
100034
100160
99596.7
99254.4
99445.5
99546.2
99064.4
99169.6
103584
105435
105438
105390
105620
103337
102937
103144
102789
103247
103054
102404
102237
102379
102621
102773
102580
100544
100288
103200
102855
103790
104013
104611
101507
102092
105000
101919
101568
101286
100689
101721
101930
101744
101633
100555
100608