/*--------------------------------*- C++ -*----------------------------------*\
| =========                 |                                                 |
| \\      /  F ield         | OpenFOAM: The Open Source CFD Toolbox           |
|  \\    /   O peration     | Version:  v2012                                 |
|   \\  /    A nd           | Website:  www.openfoam.com                      |
|    \\/     M anipulation  |                                                 |
\*---------------------------------------------------------------------------*/
FoamFile
{
    version     2.0;
    format      ascii;
    class       volScalarField;
    location    "0.7";
    object      p_rgh;
}
// * * * * * * * * * * * * * * * * * * * * * * * * * * * * * * * * * * * * * //

dimensions      [1 -1 -2 0 0 0 0];


internalField   nonuniform List<scalar> 
13611
(
99222.9
99771.1
98856.5
99702
99609
99507.1
99850
99412.5
99248.6
99559.3
99452.8
100090
99588.4
99464.9
99289.8
99600.1
99396.6
99580.4
99924.5
99625.6
99724.9
99135.2
99202.1
99334.5
99423.4
99599.4
99717
99719.6
99693.4
99041.7
99183.1
99272.4
99362.2
99515.5
99688
99878
99785.8
99809.6
99015.1
99135
99294.7
99412.8
99509.9
99669.7
99997.1
99824.3
99887.5
100077
99058.2
98934.2
99153.8
99254
99392
99560.6
99617.5
99755.4
99872.1
99803.2
99804.7
100104
98979.5
98904
99111
99287.4
98755.1
99457.5
99350.3
99524.1
99639.3
99759.7
99859.5
99911.5
99493.2
99961.8
98974.6
98828
99169.9
99052.2
99239.8
99429.4
99351.5
99549.3
99703.1
99612.1
99827.3
99940
99895
99898.1
100154
98897.6
98792.5
99126.4
99039.8
99255.5
98677.4
99451.4
99318
99517.3
99716.5
99643.5
99832.2
99965.9
99956.7
99690.4
99964.1
98821.1
98893.6
99163.6
98994.3
99233.2
98638.3
98558.9
99420.5
99347
99542.4
99755.8
99642.6
99811.7
99906.4
100009
99998.2
99971.3
99259.4
100004
99995
98705.2
98834.6
99121.5
99031
99277.6
98516.3
99446.8
99506.9
99601.6
99709.6
99833.7
99909.6
100093
100082
100024
99735.9
100187
100086
98680.4
98867.6
98744.9
99152.9
98997.2
99289.8
98576.7
98418.9
99431.1
99544.3
99613.3
99733.7
99832.5
99955.9
100122
100141
100100
100004
100076
99739.8
100350
100149
98943.9
98811.9
98679
99212.5
99053.4
99375
99262.4
98526.7
98367.8
99479.7
99537.3
99648.9
99796
99701.4
99905.3
99966.3
100161
100218
100185
100043
100124
100080
100218
98938.5
98726.3
98855.9
98587.7
99178.2
99039
99373.8
99296
98422.7
98256.5
99476.8
99596.1
99814.6
99724.7
99884.6
100001
100175
100277
100242
100195
100107
100036
100408
99948.3
100114
98986.5
98679.9
98817.1
98541.8
99210.5
99111.1
99421.7
99277.5
98373.4
98198.6
99539.5
99602.1
99789
99695.7
99919.5
100017
100264
100332
100293
100249
100144
100092
100341
100069
100230
98989.6
98736
98599.6
98843.7
98444.9
99191.6
99080.7
99435.2
99323.1
98254.5
99539.3
99652
99820.6
99730.9
99973.7
99879.2
100004
100098
100308
100383
100346
100317
100307
100242
100197
100406
100261
99688.5
98967.9
98678.5
98577
98785.8
98910.4
98392.3
99128.8
99234
99494.1
99388.5
99294.8
98215.9
99601.2
99648.3
99791.3
99688.9
99984.7
99904.6
100067
100148
100375
100400
100444
100404
100394
100358
100295
100200
100389
100332
100125
99022.1
98711.1
98530.6
98809.3
98891.8
98432.8
98294.3
99105
99213.8
99507
99393.2
99329.6
98148.1
98064.3
99583.5
99819
99709.5
100037
99959.9
99878.4
100121
100148
100406
100483
100500
100435
100419
100350
100306
100259
100519
100094
99002.5
98656.5
98570.6
98772.4
98937.2
98379.5
98242.1
99149.8
99257.6
99486
99434.2
99321.3
98141.4
97973.9
99618.4
99791.9
99688.3
100068
99988.7
99909.5
100142
100205
100435
100534
100508
100537
100496
100478
100412
100360
100258
100393
99761
100469
99065.8
98684.6
98514.9
98810.9
98932.4
98327.1
98435.3
98262.1
99135.2
99244.7
99525.4
99423.9
99368.9
98090.7
97992.4
99583.2
99667.1
99816.7
99726
100123
100047
99967.6
99876.5
100196
100447
100602
100563
100601
100531
100492
100470
100376
100306
100413
100216
100598
99052
98659.2
98539
98877.3
98723.5
98990.8
98304.5
98394.5
98140.1
99185
99293.4
99469.5
99358.7
97926.1
99602.4
99660.5
99814
99771.5
100159
100078
100001
99897.9
100237
100528
100639
100638
100563
100613
100635
100601
100564
100496
100446
100357
100289
100503
100703
100280
100484
99477.8
99379.7
99107.4
98604.7
98444.7
98870.6
98731.2
98990.5
98258.7
98117.9
99175
99284.8
99471.8
99410.2
97799.7
97960.5
99664.7
99572.2
99849.2
99763.1
100218
100136
100059
99990.8
99949.4
100566
100716
100707
100641
100671
100709
100632
100551
100618
100492
100445
100390
100326
100660
100470
100512
99536.2
99475.5
99261.3
99942.1
99258.5
99067.8
98598.5
98440.2
98811.8
98933.1
98667.6
98176.8
98299.3
98041.6
99220.4
99342.5
99518.5
99402.8
97893.7
99706.8
99602.3
99861.1
99808.7
100257
100167
100095
100030
99925.6
100627
100759
100740
100747
100673
100728
100730
100695
100589
100659
100542
100490
100382
100314
100504
100286
100484
100633
99561.7
99385.4
99571.7
99304.7
99829.7
99450.9
99099.2
98515
98381.2
98818.9
98938.5
98673.7
98139.9
98209.4
98005.3
99217
99332.9
99507.2
99454.4
97809.2
97910.1
99714.2
99550.7
99653.9
99853
99781.4
100229
100151
100083
100008
99954.3
100814
100801
100810
100720
100767
100799
100729
100642
100591
100711
100540
100485
100428
100352
100629
100508
100620
100671
99568.6
99386.1
99575.9
99154.3
99244.2
99016
100011
99352.2
99172.5
99059.1
98504.1
98378.7
98754.1
98882.9
98999.3
98637.2
98056.4
98216.7
99278.4
99388.3
99446.7
97652.4
97743.6
97856.8
99698.6
99561.2
99627.8
99890.2
99815.1
100250
100190
100123
100039
99942.3
100837
100844
100839
100834
100846
100722
100765
100845
100787
100684
100640
100755
100590
100532
100415
100353
100603
100415
100670
100620
100694
99569.9
99462.1
99323.1
99642.7
99088.3
99246
98930
99791.8
99554.5
99187.9
99090.7
98447.7
98575.5
98308.2
98746.8
98886.7
98980.6
98666.6
98032.2
98178
99287.3
99357.9
99483.7
97776.2
97872.1
99734.8
99537.5
99660
99872.8
99798.4
100305
100189
100116
99982.5
100083
100899
100918
100897
100893
100915
100804
100825
100913
100828
100735
100646
100812
100586
100522
100464
100399
100613
100241
100712
100670
100751
99672.9
99447.3
99346.9
99592.4
99725.2
99098.4
99179.3
98937.4
99876.2
99388.1
99248.5
99145.4
99038.7
98455.3
98538.4
98310.8
98787.1
98951
98847.7
98638.8
97944.1
98095.6
98216.9
99383.7
99478.5
97648.4
97730.3
97759.4
99714.1
99575.9
99633
99911.8
99842.7
100299
100242
100173
99970.6
100090
100909
100944
100941
100945
100959
100836
100876
100891
100962
100771
100698
100855
100639
100569
100454
100409
100676
100469
100722
100655
100811
99806.6
99501.9
99320.2
99629.1
99784.8
99020.6
99186
98737.6
98853
99646.7
99266.5
99151.6
99042.6
98422.6
98574.3
98361.7
98759.4
98964.6
98872.4
98685.8
97915.4
98051.3
98195.4
99440.8
99338.4
99534.3
97564.9
97738.5
99750.1
99659.5
99903.7
99820.3
100346
100230
100147
100010
100066
100976
100995
101001
101004
101021
100885
100915
100924
100993
100837
100754
100696
100909
100628
100559
100510
100479
100400
100743
100502
100761
100692
100827
99906
99472
99249
99379.3
99697.6
99584.1
99791.7
99757.1
99027.9
99103.7
98679.9
98874.8
99659
100062
99249.9
99199.2
99096.1
98469.5
98549.5
98342.4
98803.8
98956.8
98922.9
98662.3
97977.4
97817.9
98110
98265.2
99451.1
99354.9
99557.7
97572.7
97656.2
99735.4
99709.9
99617.6
99946.9
99860.7
100332
100274
100179
100002
100101
101003
101012
101038
101049
101055
101059
101046
100910
100970
100989
101005
100877
100799
100760
100952
100673
100596
100501
100439
100747
100652
100746
100789
100685
100809
100870
99515.8
99227.4
99342.9
99728.6
99612.5
99823.1
99846.1
98951.9
99091.7
98709.7
98807
99887.3
100100
99293.2
99181
99086.7
98406.5
98584.7
98792.4
99021.6
98927.9
98718
97955.2
97796.3
98094.9
98241
99513.1
99406.2
97477.7
97646
99781.6
99719.7
99630.7
99940.6
99908.7
99831.4
100374
100243
100151
100055
101061
101072
101100
101120
101120
101119
101096
100962
101007
101019
101000
101099
100938
100858
100815
100738
100657
100605
100560
100438
100810
100683
100776
100808
100736
100860
100894
99491.5
99277
99153.5
99383.4
99674.6
99791.1
99556.4
99915.6
99895.3
99903.2
99836.9
98951.3
99021
98547
98667.3
98827.2
99763.2
99294.2
99227
99126.1
98426.6
98568.5
98838.9
99001.7
98903.6
98698.6
98009.9
97869.2
97718.2
98162.5
98295.4
99521.6
99412
97476.1
97554.8
99768.4
99692.3
99619
99999.1
99928.4
99851.1
100370
100268
100179
100057
101099
101078
101117
101142
101166
101185
101175
101129
100967
100997
101064
101043
101138
100980
100901
100858
100774
100714
100670
100569
100493
100766
100704
100786
100838
100729
100870
100933
99446.1
99256.7
99132.4
99314.3
99690.7
99807.5
99564.6
100013
100094
99964.3
99896.3
98890.9
99008.7
98578.2
98737.7
99839
99342.9
99214.4
99114.4
98509.5
98368
98634.6
98811.7
99049.7
98942
98747.8
97993.6
97821.3
97716.3
98152.9
98231.6
99474.6
99572.8
99388.9
97395.2
97534.4
99799.9
99720
99660.6
99983.7
99902.2
100420
100328
100240
100157
100103
101173
101111
101164
101184
101210
101247
101221
101193
101003
101036
101084
101067
101178
100961
101039
100882
100760
100831
100683
100636
100550
100477
100783
100760
100811
100830
100772
100898
100943
99442.9
99194.9
99063.8
99328
99750.7
99637.2
99795
99887.4
99505.5
100049
100031
100156
99966.1
98906.9
98551.7
98729.2
99526.8
99339.6
99264.2
99154.3
98512
98382.3
98627.7
98846
99023.3
98914.3
98695.7
98076.6
97927.2
97853.3
97661.4
98252.9
99474.4
99557.4
99422.8
97290.4
97385.2
97589
97443.6
99808.2
99769
99654.1
100023
99918.4
100425
100330
100274
100190
100084
101170
101150
101104
101194
101246
101263
101289
101284
101224
101000
101036
101147
101126
101190
100999
101078
100960
100870
100794
100850
100746
100638
100583
100521
100754
100702
100820
100855
100758
100810
100922
100883
99401.3
99187
99044
99301.8
99764.8
99643.6
99856.2
99946.1
99505.9
100067
100087
100179
100027
98869.1
98399.4
98627.7
98470.2
98791.8
99958.8
99398.2
99318.3
99220.8
99153.9
98582.4
98458.2
98334.4
98828.3
99059.2
98959.2
98707.1
98071.2
97930.1
97781.2
97693.5
98205.4
99509.3
99595.6
97269.4
97555.7
97414
99866.4
99780.1
99701.3
100012
99968.7
100490
100369
100252
100175
100126
101259
101252
101135
101286
101309
101363
101368
101308
101334
101294
101016
101060
101161
101158
101253
101058
101136
100992
100931
100798
100896
100746
100692
100570
100532
100783
100610
100834
100856
100772
100818
100946
100903
99410
99242.5
99106.4
98982.6
99335.6
99713.1
99810.1
99616
99848.9
99927.7
100005
99563.8
99462.3
100076
100099
100117
100264
100088
98912.8
98608.9
98453.3
98758.7
99905.2
99432.6
99341.3
99244.7
99122.7
98597.5
98474.4
98357
98869.4
98771.7
99025.7
98930.3
98660.9
98002.4
98138.7
97870.6
97791.2
97609.3
98226.1
99496
99587.5
97328.2
97475.7
99875.9
99837.4
99755
99674.9
100062
99970.3
100488
100373
100273
100215
100116
101359
101328
101207
101219
101104
101290
101383
101420
101388
101365
101387
101303
100974
101036
101072
101228
101217
101267
101101
101175
100984
101058
100861
100924
100799
100673
100614
100576
100782
100723
100839
100884
100793
100823
100929
99212.5
99092.7
98975
99318.4
99716.8
99825.7
99644
99912.5
99977.3
100061
99542.2
99462.5
100094
100180
100176
100105
100147
98826.4
98256.6
98686.2
98526.3
98357.8
99668.8
100328
99407.2
99306.4
99208.9
99144.8
98544.6
98427.8
98331.6
98860.1
98745.7
99052.8
98971.9
98675
98004.5
98085.9
97888
97719.8
97621
98288.9
98186.2
99532.2
99630.4
97163
97318.2
97412
99929.7
99855.3
99776.4
99707.6
100051
100013
100527
100438
100360
100317
100208
100158
101539
101447
101278
101195
101136
101146
101339
101502
101448
101418
101398
101358
100975
101015
101052
101111
101261
101316
101156
101238
101041
101087
100864
100918
101005
100792
100703
100597
100821
100661
100860
100893
100788
100824
100940
99246.3
99149.1
99038.1
98914.2
99367.4
99759.1
99894
99812.5
99632.7
99964.8
100035
100124
99582
99438
100181
100227
100205
100205
100210
98833.1
98179.5
98683.6
98516.7
98349.5
99963.4
100638
99437
99329.8
99231.2
99112.1
98557.2
98450
98375.4
98823.1
98917.3
98773.5
99041.9
99020.1
98661.3
97964.1
98116.5
97809.6
97735.7
97590.5
98294.1
98221.1
99526.4
99628.1
97252.4
97440.8
99934.8
99906.5
99826.7
99756.2
99666.2
100097
100021
100528
100575
100440
100385
100300
100248
100148
101361
101565
101245
101582
101076
101216
101517
101581
101535
101496
101525
101405
101359
100969
101037
101119
101143
101325
101346
101204
101274
101086
101171
100918
100970
101028
100852
100754
100661
100774
100605
100745
100872
100844
100909
100810
100925
99221.3
99113.7
99039.3
98925.9
99347.1
99746.1
99936.9
99861.8
99684.9
100008
100072
100175
99581.1
99480.3
100194
100235
100282
100258
100241
98763.1
98001.7
98176.3
98598
98434.6
98269.3
100693
100120
99494.8
99422.8
99385.5
99286.3
99195
99147
98506.1
98612.8
98376.6
98828.1
98927
98710.9
99096.7
99026.9
97988.6
98079.8
97794.3
97643.3
97523.3
98336.9
98182.9
99585.2
97275.6
97169.3
97350.3
99986
99930.1
99844.2
99786.9
99682.3
100066
100487
100569
100609
100386
100337
100241
100188
101626
101386
101313
101011
101192
101033
101511
101706
101795
101593
101552
101588
101444
101403
100987
101089
100996
101065
101225
101369
101397
101263
101214
101342
101118
100974
100930
101092
100823
100906
100771
100682
100785
100685
100797
100877
100850
100911
100822
100941
99145.3
99254.4
98997.7
98861.6
99313.1
99405.5
99781
99932.8
99998.3
99844.7
99641.7
100124
100169
100242
99540.8
99457.2
100200
100288
100328
100296
100291
100303
98773.6
97950.4
98100
98597.5
98437.7
98280.6
99598
100178
99516.2
99471
99390.2
99301.3
99209.1
98503.7
98615
98443.5
98777.5
98881.3
98974.2
98716.7
99091.9
99012.9
97975.7
98115.3
97697.3
97854.4
97633.5
97497.3
98351.8
98177.9
99569.1
97151.6
97360
99987.6
99899.7
99834.8
99748.9
99651.1
100091
100487
100583
100656
100436
100336
100283
100160
101154
101428
102160
101098
101366
101181
101021
101748
101277
101291
101665
101675
101531
101517
101458
100972
101110
100999
101105
101188
101437
101461
101308
101262
101360
101142
101038
100990
101094
100853
100935
100736
100808
100828
100690
100788
100862
100894
100837
100930
99107.3
99207.7
99020.9
98870.8
99321
99385.4
99765.8
99973.2
100041
99898.4
99661.1
100133
100229
100304
99559.4
99498.3
100386
100367
100339
100358
98740.9
98013.4
98115.8
98520.4
98670.1
98367
98185.4
99220.5
100181
100255
99475.4
99438.4
99355.6
99267.1
99182.7
98555.5
98673.8
98442.7
98784.4
98885.9
98977.3
99133.5
99057.1
97923.6
98049.8
98108.4
97670.4
97796.1
97559.6
97436.8
98332.1
98208.5
99597.5
97066.1
97219.4
97306.7
100019
99914.4
99859.1
99763.2
99677.1
100069
100535
100637
100680
100438
100385
100284
100186
101384
102060
101210
101301
101724
101308
101288
101429
101976
101942
101598
101535
101798
101517
100980
101079
101034
101000
101220
101033
101464
101529
101318
101275
101418
101213
101035
101015
101150
100824
100907
100991
100761
100803
100762
100806
100871
100902
100840
100932
99141.5
99231.5
98987.2
98777
98930.6
99296.2
99422.9
99722.2
99821.9
99979.5
100021
100104
99876.8
99956.4
99613
100189
100292
100320
100366
99485.8
100407
100426
100390
100357
97842.9
97962.7
98523.4
98615.3
98377.6
98173.7
99844.4
100344
100252
99528.7
99455.1
99373
99288.3
99208.4
98547
98689.3
98492.2
98840.6
98750.8
98936.6
99026
99110.6
97921.4
98049
97741.5
97550.2
97819.4
97526.7
97473.3
98283.3
98379
98176.5
99574.6
97034.1
97185.9
97342.7
100017
99960.7
99865.1
99730.2
99813.6
99652.1
100112
100540
100645
100729
100490
100388
100332
100241
100159
102207
101256
101004
101137
101133
101076
102286
101437
102465
101605
101863
102094
101406
101468
101552
101781
100953
101135
101012
101021
101210
101427
101540
101579
101385
101367
101432
101224
101096
101072
101207
101145
100850
100937
101027
100785
100829
100728
100837
100854
100884
100894
100917
100938
99106.9
99200.6
99037.3
98775.1
98914.7
99336.2
99402.5
99727.8
99787.6
100046
100072
100129
99913.5
99988.7
99628
100215
100315
100394
100417
99528.7
100467
100488
100448
100371
97777.6
98009.2
98471.9
98640.1
98335.4
98108.7
98256.8
99766
100218
100332
99504.7
99425
99340.1
99263.1
99184.2
98603
98662.6
98491.2
98836.6
98772.2
98942.3
99052.5
99133.8
97983.6
97889.1
98111.6
97686.8
97556.4
97771.9
97414.6
98269.6
98442.2
98377
98210.3
99601.2
97129.2
97297.6
100073
99999.4
99925.4
99851.1
99750.1
99799.7
99677.1
100592
100702
100750
100495
100447
100333
100232
100179
101738
101927
100879
101467
101692
101273
101583
102231
102314
101161
101818
101215
101658
101844
101622
102277
101866
100954
101077
100897
100979
100913
101402
101618
101549
101425
101370
101485
101309
101111
101250
101191
100815
100905
100997
101086
100822
100821
100773
100851
100858
100881
100901
100920
100944
99134.1
99239.9
98984.8
98713.6
98851.6
99309.3
99432.1
99691.7
99817.7
100072
100172
99879.4
99971.2
100049
99592.9
100282
100215
100366
100405
100441
100463
99494.8
100520
100512
100527
100450
100499
97803.5
97951.4
98508.6
98589.7
98377.3
98126
98220.3
99454.1
100290
100267
100390
99531.7
99443.3
99353.7
99288.4
99214.1
98548.9
98690.8
98881.1
98752.8
98975.8
99045.6
99118.7
97969.4
97912.6
98092
97709.8
97545.2
97784.9
97382.4
98323.2
98465.7
98403.9
98215.7
99586.7
97053.7
97237.9
100098
100025
99946.3
99879.9
99723.8
99826.8
99667.2
100597
100697
100748
100546
100448
100398
100314
100266
100155
101046
101910
101013
101634
101483
101520
101195
100912
101489
101755
102502
101337
101347
101914
101791
101744
101825
101355
100946
100999
101011
101220
101014
101036
100801
101722
101628
101477
101433
101502
101309
101171
101243
100838
100934
101032
101125
100845
100845
100686
100859
100851
100867
100886
100897
100910
100950
99122.9
99176.4
99003
98707.8
98862.9
99334.8
99428.1
99718.9
99783.5
100129
100167
99911.2
100010
100082
99620.4
100314
100259
100391
100477
100494
100515
99536.5
100585
100594
100592
100484
100561
97691.4
97872.2
97993.8
98463.4
98617.3
98335
98083
98259.3
99954.1
100375
100268
100425
99518.5
99402.8
99485
99332.5
99263.5
99203.3
98563.5
98675.2
98859.7
98796.2
98966
99016.8
99100.7
99159.9
98016.1
97895.8
98154.1
97691
97594.5
97462.4
97766.4
97352.2
98264.3
98526.3
98427.9
99626.1
97263.5
97026.2
100073
99995.6
99927.5
99874.1
99746.1
99811.9
99695.4
100648
100757
100788
100554
100499
100395
100338
100234
100181
101563
101008
100920
101190
101273
101131
101508
101234
101848
102513
101529
101963
101463
101789
101635
101697
101547
100983
100947
100931
101334
101257
101516
101354
101804
101708
101582
101494
101426
101506
101354
101214
101296
100893
100996
101095
101191
100857
100847
100783
100879
100859
100866
100883
100903
100912
100934
99073.2
99189.8
98945
98754.5
98822.7
99395.3
99315.6
99490.6
99679
99807.8
100137
100212
99866.4
99971.2
100075
100004
99590.9
100365
100256
100452
100531
100533
100574
100648
100647
100650
100549
100463
100631
97666.6
97838.4
97977
98498.1
98584.5
98373
98132.8
98215.2
100051
100180
100246
100460
99563.2
99403.1
99489.7
99351.1
99287.6
99238.4
98626
98719.9
98899.5
98774.5
99013.2
98950.1
99098.8
99147.8
98004.3
97895.6
98165.2
97706.1
97568.8
97373.7
97852.7
97229
98282.3
98557.6
98506.7
98426.8
99611.7
97119.6
97013.5
100095
100010
99958.8
99910
99784.8
99845.6
99699.2
100658
100806
100722
100611
100492
100436
100311
100256
100149
101702
101488
101170
101260
101301
101355
101407
101800
101647
101286
101374
101450
101772
101945
101563
101765
102651
102748
102354
100939
100952
100946
101123
100984
100890
101073
101203
101136
102032
101859
101550
101467
101637
101358
101284
100918
101026
101130
101232
100858
100848
100822
100894
100864
100873
100886
100908
100899
100931
99051.6
99153.3
99265.8
98969.6
98716.2
98857.6
99423
99358.5
99515.4
99702.9
99766.2
100189
100230
99883.3
99995.4
100128
100065
99617.9
100387
100309
100484
100578
100595
100615
100701
100722
100720
100599
100550
100686
97734.6
97901.2
98061.6
98457.4
98632.4
98335.8
98247.9
99836.6
100245
100197
100391
100512
99538.8
99438.5
99475.3
99350.6
99327.6
99235.7
98602.8
98704.5
98868.1
98816.7
99048.6
98982.2
99139
99184.5
97946.3
98105.6
98212.9
97644.8
97531.3
97413.9
97895
97113.3
98371.4
98257.7
98516.4
98457.5
99642.4
97154.6
97070.6
96824.8
100087
100052
99951.2
99913.8
99789.3
99819.8
99890.4
99752.7
99684.4
100860
100739
100620
100533
100433
100339
100254
100167
101418
101354
101496
101116
101132
101168
101374
101595
102156
101850
102327
101910
101831
101752
101665
101833
101972
101286
100978
100925
100838
101101
101135
100973
100973
101079
100809
101737
101584
101564
101422
101528
101640
101585
101333
100988
101093
101204
101311
100864
100847
100793
100914
100870
100869
100875
100882
100906
100899
100912
99089.4
99180.6
99256.5
98938.8
98751.2
98821
99480.2
99357.1
99578.9
99672.8
99777.5
100186
100279
99961.8
99864
100047
100123
100364
100449
100543
100576
100636
100635
100676
100766
100709
100779
100774
100677
100571
100753
97692.1
97898.8
98087.3
98499.6
98589.8
98370.3
98184.6
99624.2
100239
100227
100407
100509
99563.9
99397.2
99493.6
99341.9
99273.3
98639.7
98750.2
98900.2
98801.9
99027.5
98955.9
99138.8
99180.1
97891.4
98061.4
98206
97784.7
97544.5
97625.4
97350.8
97895.1
97219
98328.8
98237.9
98580.6
98447.9
99610.1
97149.9
96946.3
97025
100117
100039
99992.5
99959.8
99831.3
99909.3
99746
99698
100877
100686
100793
100585
100533
100394
100485
100286
100217
101235
101208
101406
101037
101163
101180
101237
101207
101666
101475
101803
101509
102110
101330
102086
102330
101801
101489
101606
101809
101062
100985
101112
101005
100987
101069
101031
101241
101099
101016
102299
101935
101415
101588
101779
101657
101010
101118
101233
101351
100870
100854
100873
100935
100876
100884
100908
100892
100909
100935
99048.9
99153.8
99301.4
98977.6
98741.7
98865.9
99502.7
99413
99608.1
99710.7
99818.4
100229
100312
99979.9
99917
100087
100173
100399
100474
100574
100650
100694
100689
100818
100768
100849
100836
100717
100621
100811
97575.2
97742.4
97828.2
98002.3
98455.4
98628
98361.1
98210.1
99867.7
100259
100186
100456
100481
100598
99538.1
99406.5
99484.7
99383.5
99316.5
99262.4
98637.1
98735.4
98881
98838.5
99055
98986.2
99111.7
99187.9
99225.4
98072.4
97883.4
98178.6
97635.8
97549.6
97540.7
97365.4
97871.2
97256.4
97252.2
98371.5
98252.3
98574.5
98528.9
99627.7
96617.5
97138.8
100128
100064
99975.5
99836.5
99879.6
99948.4
99776
99695.3
100964
100847
100695
100796
100604
100569
100391
100476
100292
100190
101253
101206
101298
101453
101078
101122
101142
101156
101143
101510
101728
101358
101757
101484
102095
101980
101654
102314
101716
101610
101659
101674
100965
100980
101098
101113
100860
101112
101067
101047
101076
101041
101995
101847
101462
101713
101531
101586
101701
101080
101198
101312
101429
100876
100868
100941
100855
100858
100888
100882
100926
100888
100904
100967
99076.9
99193.7
99299.7
98932.4
98811.5
98696.6
99471
99569.2
99404.7
99678.5
99816.2
100287
100229
100376
100010
99882.8
100160
100086
100455
100539
100628
100706
100744
100737
100869
100817
100779
100908
100863
100872
100794
100703
100665
100878
97551.7
97641.9
97832.8
98016.5
98503.2
98577.7
98299.4
98441.9
98133.7
100135
100433
100491
100567
100648
99559
99454.1
99517.6
99398.4
99333.5
99291.9
98684.3
98775.6
98897.6
98831.7
99062.5
98956.7
99023.9
99133.4
99167.9
99224.2
98100.1
97788.8
98098.1
97628.4
97543.9
97469.8
97250.2
97772.3
97318.3
97219.1
98399.2
98325.9
98638.6
98502.6
99670.2
99596.4
96771.8
97511.6
96895.7
100109
100047
100018
99869.1
99817.7
99962.5
99735
100982
100882
100754
100655
100844
100587
100349
100433
100522
100284
100208
101236
101168
101260
101363
101022
101066
101099
101088
101472
101702
101760
101527
101533
101714
102444
101997
101749
101849
101821
101836
100934
100839
100940
100906
101065
101118
101061
100912
101071
100999
102114
101391
101567
101550
101996
101896
101107
101228
101347
101523
100876
100876
100827
100854
100861
100891
100881
100881
100903
100894
100962
99058
99174.5
99253.4
99356.8
98954.3
98831.3
98706.6
99505.3
99589.2
99457.9
99701.4
99796.8
100328
100279
100408
100002
100055
99906.8
100204
100154
100493
100548
100661
100761
100802
100919
100865
100838
100961
100953
100937
100846
100783
100700
100932
97477.5
97648.9
97904.3
97740.4
97963.2
98599.9
98301.3
98469.5
98156.7
100243
100473
100526
100626
100660
99442.1
99510.8
99401.7
99374.1
99299.3
98691.4
98790.1
98913.7
98872.4
99100.4
98931.4
99032.4
99198
99256.9
98030.5
98003.2
97860.9
98189.6
97824.2
97521.1
97413.4
97524.3
97726.9
97114.7
98375.3
98466
98224.2
98626.1
98610.3
98492.8
99687.9
99609
96990.5
97283.8
96904.2
100136
100081
100025
99889.9
99815.5
99941.8
100003
99742.7
101061
100946
100736
100640
100860
100572
100351
100424
100503
100254
100304
100178
101178
101100
101248
101264
101343
100989
101020
101056
101071
101383
101596
101722
101499
101451
101784
102145
102253
102048
101738
101603
101660
101783
101956
100985
100962
100858
100901
100965
101029
100997
100962
100969
101570
101770
101518
101778
102013
101736
101184
101294
101401
100875
100871
100776
100873
100868
100889
100880
100924
100937
100904
100913
99014.8
99116.7
99201.2
99263.3
99359.7
98894.4
98777.3
98667.4
99557.8
99646.5
99474.5
99756.6
99841
100382
100294
100475
100411
100050
99969
99888.1
100205
100259
100142
100595
100741
100647
100783
100811
100855
100916
100969
100878
100990
101005
101008
100899
100802
100763
100952
97470.9
97300.9
97559.9
97891.5
97737.9
98010.5
98558.1
98373.1
98228.7
98443.8
98090.3
100042
100541
100571
100641
100717
99473.3
99541.4
99440.5
99379.7
99343.2
98746.4
98822.6
98867
99116.8
98942.5
99026.9
99086.8
99170.3
99242
99270.2
98205.8
97996.6
97936.8
98087.7
97777.2
97614.8
97211.2
97525.6
97722.4
97181.5
98347.5
98499.8
98298.5
98688.1
98616.3
98453.7
99656.7
99725.1
99585.8
97107
96895.8
97002.6
96891.5
100116
100064
99874.7
99844.2
99783.5
99963.5
100022
101057
100969
100777
100678
100840
100921
100620
100391
100462
100529
100231
100306
100191
101139
101059
101176
101218
101279
100974
100956
101002
101010
101004
101377
101569
101470
102199
101971
102117
102134
101698
101627
101682
101633
101674
101041
100875
101008
100955
101086
101009
101096
100914
100939
100917
100949
102066
101608
101686
101846
101955
102000
101207
101377
101535
100877
100824
100883
100875
100883
100885
100879
100934
100911
100957
100895
100953
99015.5
99075.3
99204.4
99320
99417.5
98901.7
98777
98699.6
99581.7
99653
99539.5
99751.2
99799.5
100403
100362
100504
100459
100081
99979.5
99911.3
100241
100283
100188
100601
100745
100689
100844
100856
100909
100965
101018
100928
101048
101082
101073
100936
100906
100852
100766
101044
97390.5
97563.1
97962.8
97822.5
97652.6
98594
98356.4
98234.1
98503.2
98092
100380
100513
100681
100601
100704
100731
99525.8
99450.2
99417.3
99349.8
98724.1
98812
98837.1
98922.3
99030.5
99093.9
99176.5
99248
99320.1
98295.7
97986.6
98025.8
97928.1
98326.9
98084.2
97783.1
97674.7
97524.5
97081.2
97633.3
97659.3
97218.4
98411.3
98413
98731.5
98558
98742.4
98503.4
99667.7
99749.2
99605
97047
97043.4
96894.8
100134
100092
99909.9
99838.8
99784.1
99943.7
100001
100065
101020
101121
100756
100668
100878
100949
100593
100393
100429
100523
100256
100295
100359
100171
101086
100997
101161
101216
101269
100930
100925
100992
100933
100965
100977
101331
101471
101601
101430
102113
101957
102033
102181
101253
101594
101627
101632
101493
100759
100983
100832
100888
100986
100997
100791
100747
100879
100932
100906
102129
101594
101443
101524
101801
101651
101188
101250
101385
100881
100825
100893
100873
100877
100881
100880
100904
100888
100926
100891
100847
98972.5
99088.7
99275.9
99188.7
99331.8
99417.6
98881
98823.3
98664.4
99633.4
99710.2
99553.6
99804.3
100457
100379
100560
100482
100077
100036
99909
100263
100338
100246
100167
100660
100794
100710
100881
100867
100911
100933
100951
101020
101044
101067
101100
101143
101138
100876
100819
97401.9
97206.3
97485.6
97995.4
97824.2
97650.4
98572.2
98421.8
98305.2
98161.9
98487.3
100207
100573
100678
100638
100718
100779
99548.1
99490.7
99423.9
99390
98813.9
98904.9
98874.1
98989.8
99070.8
99140.8
99208.5
99250.3
99303.5
99329.2
98128.4
98033.7
97827.3
97896.6
98119.6
98206.8
97757.6
97611.2
97485.6
97328.8
97493.5
97709.6
98389.9
98390.7
98749.2
98471.5
98637.7
98557.9
99640.3
99703.1
99737.2
99585.3
97128.9
97045.1
96895.8
100126
99895.6
99871.7
99808.7
99967.7
100020
100082
101052
101091
100704
100788
100859
100913
101019
100597
100439
100483
100554
100226
100315
100355
100192
101191
100914
100899
100921
100884
100927
101297
101415
101485
101349
101951
102088
102025
102071
101711
101509
101609
101435
100896
101074
100954
101018
100983
100975
100927
100887
100739
100901
102111
101448
101677
101526
101881
101893
101293
101344
101398
100858
100893
100870
100880
100883
100880
100959
100893
100904
100918
100884
100908
98987.3
99142.9
99035.5
99274.5
99209.8
99376.2
99469.4
98923
98809.6
98690.2
99652.3
99707.1
99617.7
99518.3
99751.4
99841.6
100493
100426
100547
100114
100022
99890.3
99969.9
100328
100284
100204
100645
100753
100852
100933
100939
101005
101016
101054
101102
101129
100824
97309
97493.4
97989.3
97901.2
97735.6
97585.8
98618.5
98404
98315.8
98164.7
98543
100483
100559
100743
100685
100711
100781
99545.1
99488.2
99462.3
99395.8
98774.9
98874.2
98915.6
99037.3
99063.1
99138.1
99218.8
99277.3
99317.9
99364.9
97920.3
98238.2
97899.5
97960.1
98425.5
98343.3
97741
97638.2
97425
97561.1
97378.6
97686.8
98277.1
98762
98474.4
98707.2
98494.5
99652.9
99711.1
99763.5
99599.5
97148.4
97043
96896.6
100152
99915.1
99854.1
99818.8
100003
99949.4
100053
100119
101098
100713
100751
100874
100929
101028
100631
100398
100491
100570
100234
100315
101212
100873
100867
100871
100853
101292
101427
101348
101474
101317
102485
102139
102156
101929
101818
101554
101439
100946
100882
100903
100894
100958
100943
100897
101047
100711
100879
101978
101937
101791
101293
101828
102126
101988
101936
101340
101313
100871
100911
100872
100883
100873
100880
100878
100889
100891
100903
100957
100880
100960
99099.6
99039.6
99319.1
99206.1
99383.4
99442.1
98922.1
98865
98750.5
99659.9
99628.2
99534.7
99720.5
99810.8
100477
100565
100433
100585
100119
100054
99910.6
99962.1
100373
100341
100256
100173
100686
100774
100906
100976
100989
100968
101044
101025
101115
101143
101191
97296.7
97169.8
97436.2
98066
97869
97713
97611.9
98616.7
98447.2
98292.7
98232.6
98513.1
100418
100594