/*--------------------------------*- C++ -*----------------------------------*\
| =========                 |                                                 |
| \\      /  F ield         | OpenFOAM: The Open Source CFD Toolbox           |
|  \\    /   O peration     | Version:  v2012                                 |
|   \\  /    A nd           | Website:  www.openfoam.com                      |
|    \\/     M anipulation  |                                                 |
\*---------------------------------------------------------------------------*/
FoamFile
{
    version     2.0;
    format      ascii;
    class       volScalarField;
    location    "0.7";
    object      rAU;
}
// * * * * * * * * * * * * * * * * * * * * * * * * * * * * * * * * * * * * * //

dimensions      [-1 3 1 0 0 0 0];


internalField   nonuniform List<scalar> 
13611
(
1.60872e-07
1.59898e-07
1.63088e-07
1.60517e-07
1.61205e-07
1.60938e-07
1.61878e-07
1.61407e-07
1.59019e-07
1.61368e-07
1.61189e-07
1.61611e-07
1.62059e-07
1.63037e-07
1.55899e-07
1.61943e-07
1.61536e-07
1.60896e-07
1.62639e-07
1.6017e-07
1.6156e-07
1.55335e-07
1.55769e-07
1.57906e-07
1.57981e-07
1.6162e-07
1.61631e-07
1.62539e-07
1.63067e-07
1.56641e-07
1.57324e-07
1.55777e-07
1.58243e-07
1.61539e-07
1.62616e-07
1.60325e-07
1.60338e-07
1.61531e-07
1.54915e-07
1.57522e-07
1.58067e-07
1.57083e-07
1.57076e-07
1.61342e-07
1.618e-07
1.61457e-07
1.63044e-07
1.62683e-07
1.55837e-07
1.53011e-07
1.56034e-07
1.57418e-07
1.57186e-07
1.58556e-07
1.60787e-07
1.6109e-07
1.6025e-07
1.62023e-07
1.61532e-07
1.61801e-07
1.55627e-07
1.53825e-07
1.56135e-07
1.56077e-07
1.52747e-07
1.55912e-07
1.5497e-07
1.58164e-07
1.57581e-07
1.60045e-07
1.61512e-07
1.6207e-07
1.63049e-07
1.61619e-07
1.55634e-07
1.54468e-07
1.5442e-07
1.52737e-07
1.56048e-07
1.55701e-07
1.5522e-07
1.57431e-07
1.58826e-07
1.57097e-07
1.60355e-07
1.61614e-07
1.61542e-07
1.61511e-07
1.61289e-07
1.55434e-07
1.50318e-07
1.54068e-07
1.55622e-07
1.53452e-07
1.50961e-07
1.55508e-07
1.55066e-07
1.57476e-07
1.56804e-07
1.55781e-07
1.59476e-07
1.61087e-07
1.61632e-07
1.61749e-07
1.61261e-07
1.51435e-07
1.56789e-07
1.5672e-07
1.55669e-07
1.53676e-07
1.53294e-07
1.52182e-07
1.55507e-07
1.52927e-07
1.54274e-07
1.55893e-07
1.57093e-07
1.57246e-07
1.58302e-07
1.62703e-07
1.62614e-07
1.61509e-07
1.63104e-07
1.61198e-07
1.59888e-07
1.53205e-07
1.56714e-07
1.56837e-07
1.52299e-07
1.55117e-07
1.50441e-07
1.54988e-07
1.53707e-07
1.56e-07
1.57113e-07
1.58748e-07
1.57993e-07
1.60947e-07
1.61862e-07
1.58665e-07
1.62559e-07
1.60868e-07
1.61127e-07
1.51651e-07
1.51286e-07
1.52305e-07
1.50763e-07
1.53677e-07
1.55534e-07
1.50732e-07
1.50297e-07
1.55384e-07
1.53103e-07
1.54372e-07
1.56581e-07
1.58536e-07
1.57044e-07
1.62468e-07
1.62447e-07
1.61875e-07
1.5832e-07
1.58218e-07
1.63106e-07
1.62555e-07
1.61349e-07
1.49687e-07
1.51081e-07
1.51601e-07
1.5287e-07
1.5035e-07
1.53099e-07
1.53255e-07
1.50162e-07
1.4972e-07
1.53666e-07
1.53682e-07
1.51001e-07
1.54391e-07
1.55284e-07
1.54983e-07
1.5698e-07
1.59811e-07
1.61524e-07
1.59433e-07
1.56495e-07
1.5795e-07
1.62352e-07
1.61952e-07
1.47857e-07
1.50141e-07
1.5332e-07
1.49718e-07
1.52303e-07
1.49367e-07
1.52614e-07
1.54141e-07
1.50149e-07
1.50439e-07
1.5361e-07
1.54226e-07
1.5486e-07
1.54714e-07
1.56758e-07
1.5443e-07
1.60513e-07
1.62348e-07
1.61458e-07
1.60098e-07
1.58003e-07
1.55822e-07
1.62355e-07
1.63106e-07
1.61962e-07
1.4682e-07
1.49498e-07
1.53037e-07
1.49951e-07
1.51854e-07
1.49356e-07
1.53029e-07
1.54327e-07
1.49672e-07
1.5043e-07
1.52915e-07
1.53804e-07
1.5429e-07
1.5317e-07
1.54983e-07
1.5707e-07
1.62225e-07
1.60473e-07
1.60776e-07
1.59284e-07
1.55969e-07
1.55774e-07
1.61697e-07
1.62425e-07
1.62086e-07
1.53626e-07
1.47969e-07
1.45524e-07
1.47207e-07
1.51176e-07
1.51784e-07
1.48572e-07
1.53581e-07
1.49095e-07
1.49655e-07
1.52493e-07
1.50206e-07
1.53117e-07
1.4962e-07
1.51141e-07
1.53009e-07
1.55756e-07
1.56093e-07
1.62048e-07
1.60712e-07
1.59285e-07
1.60595e-07
1.56874e-07
1.57915e-07
1.56769e-07
1.62353e-07
1.6178e-07
1.63113e-07
1.53578e-07
1.47822e-07
1.50862e-07
1.45659e-07
1.47594e-07
1.50471e-07
1.50591e-07
1.5016e-07
1.49079e-07
1.50834e-07
1.48013e-07
1.49435e-07
1.51483e-07
1.50595e-07
1.5232e-07
1.51579e-07
1.51523e-07
1.52325e-07
1.52096e-07
1.56751e-07
1.62889e-07
1.62918e-07
1.60282e-07
1.60037e-07
1.57677e-07
1.57513e-07
1.56083e-07
1.56679e-07
1.60728e-07
1.62624e-07
1.61212e-07
1.49931e-07
1.49165e-07
1.50193e-07
1.49687e-07
1.46059e-07
1.48545e-07
1.48372e-07
1.50596e-07
1.50031e-07
1.5112e-07
1.48506e-07
1.49371e-07
1.44294e-07
1.48269e-07
1.52592e-07
1.51752e-07
1.53288e-07
1.5182e-07
1.51004e-07
1.51189e-07
1.51141e-07
1.55857e-07
1.62293e-07
1.61823e-07
1.60455e-07
1.60099e-07
1.58434e-07
1.58274e-07
1.55155e-07
1.55982e-07
1.60854e-07
1.61709e-07
1.49899e-07
1.49088e-07
1.4892e-07
1.49926e-07
1.48389e-07
1.48288e-07
1.48285e-07
1.50119e-07
1.49973e-07
1.49442e-07
1.48182e-07
1.4942e-07
1.46017e-07
1.47979e-07
1.49357e-07
1.51165e-07
1.48965e-07
1.52038e-07
1.51398e-07
1.51069e-07
1.51556e-07
1.51025e-07
1.62221e-07
1.61984e-07
1.62214e-07
1.60509e-07
1.59543e-07
1.59262e-07
1.57092e-07
1.58036e-07
1.56137e-07
1.62516e-07
1.63146e-07
1.6117e-07
1.49592e-07
1.45876e-07
1.4857e-07
1.43875e-07
1.48776e-07
1.4178e-07
1.42078e-07
1.41904e-07
1.50105e-07
1.49958e-07
1.45129e-07
1.47891e-07
1.49702e-07
1.45932e-07
1.49258e-07
1.48274e-07
1.39022e-07
1.50325e-07
1.42559e-07
1.52052e-07
1.51421e-07
1.50996e-07
1.5091e-07
1.52738e-07
1.61093e-07
1.60725e-07
1.61478e-07
1.59852e-07
1.59562e-07
1.58824e-07
1.56541e-07
1.57855e-07
1.53689e-07
1.62842e-07
1.61311e-07
1.62679e-07
1.49407e-07
1.47494e-07
1.41398e-07
1.46191e-07
1.45155e-07
1.44489e-07
1.48587e-07
1.42153e-07
1.47336e-07
1.49043e-07
1.49324e-07
1.50678e-07
1.49668e-07
1.49286e-07
1.50924e-07
1.46136e-07
1.47693e-07
1.49734e-07
1.51823e-07
1.51034e-07
1.51119e-07
1.48453e-07
1.52412e-07
1.62147e-07
1.61311e-07
1.60465e-07
1.62123e-07
1.62004e-07
1.59579e-07
1.59511e-07
1.55572e-07
1.56799e-07
1.52166e-07
1.52565e-07
1.52539e-07
1.61972e-07
1.61764e-07
1.63137e-07
1.62437e-07
1.62704e-07
1.62575e-07
1.4637e-07
1.45362e-07
1.45384e-07
1.4544e-07
1.45911e-07
1.4629e-07
1.48277e-07
1.48062e-07
1.49025e-07
1.49286e-07
1.5036e-07
1.49198e-07
1.47128e-07
1.43651e-07
1.47391e-07
1.50392e-07
1.45076e-07
1.49639e-07
1.52698e-07
1.51384e-07
1.49842e-07
1.4905e-07
1.44952e-07
1.61851e-07
1.6105e-07
1.5981e-07
1.60811e-07
1.62002e-07
1.5877e-07
1.58917e-07
1.55401e-07
1.56934e-07
1.5418e-07
1.52952e-07
1.53005e-07
1.52384e-07
1.61513e-07
1.61132e-07
1.62376e-07
1.62706e-07
1.61882e-07
1.59095e-07
1.62544e-07
1.63055e-07
1.48373e-07
1.44938e-07
1.47141e-07
1.45225e-07
1.48476e-07
1.45458e-07
1.42053e-07
1.40578e-07
1.43221e-07
1.48206e-07
1.48323e-07
1.46943e-07
1.49148e-07
1.41108e-07
1.4746e-07
1.44533e-07
1.48143e-07
1.44723e-07
1.52448e-07
1.50567e-07
1.49783e-07
1.47623e-07
1.46551e-07
1.62553e-07
1.60184e-07
1.60937e-07
1.59556e-07
1.62815e-07
1.615e-07
1.58376e-07
1.5642e-07
1.55105e-07
1.56909e-07
1.53695e-07
1.52988e-07
1.5311e-07
1.53034e-07
1.6274e-07
1.63142e-07
1.62555e-07
1.62383e-07
1.62438e-07
1.61929e-07
1.62853e-07
1.58727e-07
1.62472e-07
1.6269e-07
1.47641e-07
1.46089e-07
1.44028e-07
1.45187e-07
1.46661e-07
1.45346e-07
1.43234e-07
1.42485e-07
1.40926e-07
1.48787e-07
1.48127e-07
1.46916e-07
1.48243e-07
1.40895e-07
1.42678e-07
1.49749e-07
1.42658e-07
1.42552e-07
1.46432e-07
1.45921e-07
1.52391e-07
1.4812e-07
1.49482e-07
1.48456e-07
1.46158e-07
1.60926e-07
1.59653e-07
1.598e-07
1.62331e-07
1.61301e-07
1.56419e-07
1.55641e-07
1.53479e-07
1.51876e-07
1.55975e-07
1.53759e-07
1.53017e-07
1.5316e-07
1.53674e-07
1.60921e-07
1.61452e-07
1.6261e-07
1.61959e-07
1.62833e-07
1.58904e-07
1.61038e-07
1.58571e-07
1.57876e-07
1.56035e-07
1.62699e-07
1.63041e-07
1.44702e-07
1.44114e-07
1.44369e-07
1.43294e-07
1.44381e-07
1.42369e-07
1.39213e-07
1.41997e-07
1.463e-07
1.4438e-07
1.42324e-07
1.42636e-07
1.48449e-07
1.43237e-07
1.40998e-07
1.43968e-07
1.47063e-07
1.46443e-07
1.44118e-07
1.46497e-07
1.47241e-07
1.52609e-07
1.50221e-07
1.50779e-07
1.46792e-07
1.44341e-07
1.61677e-07
1.60147e-07
1.57774e-07
1.57243e-07
1.59105e-07
1.61999e-07
1.61993e-07
1.5781e-07
1.5679e-07
1.5426e-07
1.53463e-07
1.56039e-07
1.53582e-07
1.52778e-07
1.52847e-07
1.52074e-07
1.62415e-07
1.61485e-07
1.62535e-07
1.62426e-07
1.62435e-07
1.61727e-07
1.60384e-07
1.58981e-07
1.62162e-07
1.58486e-07
1.59322e-07
1.56006e-07
1.61657e-07
1.6289e-07
1.4423e-07
1.3779e-07
1.39024e-07
1.40272e-07
1.43251e-07
1.42395e-07
1.44504e-07
1.40117e-07
1.42498e-07
1.4598e-07
1.42042e-07
1.44272e-07
1.45576e-07
1.45597e-07
1.39566e-07
1.36744e-07
1.45992e-07
1.43737e-07
1.45195e-07
1.46542e-07
1.47093e-07
1.51465e-07
1.50631e-07
1.49291e-07
1.4745e-07
1.47454e-07
1.60793e-07
1.57793e-07
1.57821e-07
1.58965e-07
1.58727e-07
1.612e-07
1.62441e-07
1.57946e-07
1.57053e-07
1.56872e-07
1.55785e-07
1.55915e-07
1.53698e-07
1.52613e-07
1.52472e-07
1.51421e-07
1.61063e-07
1.63174e-07
1.61717e-07
1.62296e-07
1.62724e-07
1.61946e-07
1.5758e-07
1.5851e-07
1.60805e-07
1.62636e-07
1.57239e-07
1.59335e-07
1.56912e-07
1.6295e-07
1.63053e-07
1.44662e-07
1.4458e-07
1.4007e-07
1.43531e-07
1.40394e-07
1.40425e-07
1.40958e-07
1.35069e-07
1.42159e-07
1.42572e-07
1.42574e-07
1.43389e-07
1.43168e-07
1.43858e-07
1.45705e-07
1.37637e-07
1.39385e-07
1.42051e-07
1.46386e-07
1.40509e-07
1.46275e-07
1.46673e-07
1.47269e-07
1.52043e-07
1.49392e-07
1.45238e-07
1.48872e-07
1.48206e-07
1.61656e-07
1.60914e-07
1.6099e-07
1.59175e-07
1.58804e-07
1.61987e-07
1.62648e-07
1.56394e-07
1.5718e-07
1.56607e-07
1.54949e-07
1.55912e-07
1.53417e-07
1.52091e-07
1.50015e-07
1.49136e-07
1.6232e-07
1.62743e-07
1.62333e-07
1.62278e-07
1.62129e-07
1.60965e-07
1.59205e-07
1.58729e-07
1.59888e-07
1.62369e-07
1.57229e-07
1.56423e-07
1.57097e-07
1.56848e-07
1.61902e-07
1.44282e-07
1.42543e-07
1.38778e-07
1.42247e-07
1.42501e-07
1.38997e-07
1.40344e-07
1.44315e-07
1.3793e-07
1.44149e-07
1.41873e-07
1.43325e-07
1.43388e-07
1.4388e-07
1.42225e-07
1.44072e-07
1.41728e-07
1.43857e-07
1.46841e-07
1.43782e-07
1.46495e-07
1.4734e-07
1.50253e-07
1.49887e-07
1.47584e-07
1.46534e-07
1.45285e-07
1.61294e-07
1.60983e-07
1.60967e-07
1.59731e-07
1.55988e-07
1.62096e-07
1.62742e-07
1.56872e-07
1.57591e-07
1.54621e-07
1.55214e-07
1.53662e-07
1.53911e-07
1.53594e-07
1.51855e-07
1.48478e-07
1.4929e-07
1.47075e-07
1.62721e-07
1.63174e-07
1.61175e-07
1.62554e-07
1.61549e-07
1.62344e-07
1.5861e-07
1.56626e-07
1.58041e-07
1.60227e-07
1.59746e-07
1.62233e-07
1.61968e-07
1.5552e-07
1.5596e-07
1.57406e-07
1.55808e-07
1.63036e-07
1.62642e-07
1.40626e-07
1.43452e-07
1.43169e-07
1.38927e-07
1.42652e-07
1.39874e-07
1.45016e-07
1.44264e-07
1.37407e-07
1.44089e-07
1.4105e-07
1.4188e-07
1.4199e-07
1.4522e-07
1.42983e-07
1.40381e-07
1.44495e-07
1.41713e-07
1.41383e-07
1.44525e-07
1.37435e-07
1.42609e-07
1.48183e-07
1.44236e-07
1.4985e-07
1.49053e-07
1.47209e-07
1.43782e-07
1.43842e-07
1.60292e-07
1.60711e-07
1.60153e-07
1.5993e-07
1.59674e-07
1.55918e-07
1.54468e-07
1.62148e-07
1.62508e-07
1.53564e-07
1.52755e-07
1.54555e-07
1.55018e-07
1.53675e-07
1.5348e-07
1.53317e-07
1.51968e-07
1.51101e-07
1.4952e-07
1.62608e-07
1.62551e-07
1.62445e-07
1.62902e-07
1.62595e-07
1.62294e-07
1.61831e-07
1.55967e-07
1.5555e-07
1.57256e-07
1.58957e-07
1.55737e-07
1.61805e-07
1.6072e-07
1.551e-07
1.5423e-07
1.52254e-07
1.5553e-07
1.62006e-07
1.62547e-07
1.45831e-07
1.4341e-07
1.43123e-07
1.4341e-07
1.43854e-07
1.45036e-07
1.40009e-07
1.42292e-07
1.42568e-07
1.40625e-07
1.40841e-07
1.42029e-07
1.44689e-07
1.45984e-07
1.42362e-07
1.41035e-07
1.41011e-07
1.36396e-07
1.39959e-07
1.43562e-07
1.46538e-07
1.41007e-07
1.4022e-07
1.50838e-07
1.50635e-07
1.47719e-07
1.47583e-07
1.60626e-07
1.60421e-07
1.59875e-07
1.59756e-07
1.58664e-07
1.56949e-07
1.56124e-07
1.62671e-07
1.60503e-07
1.49492e-07
1.54878e-07
1.52775e-07
1.54523e-07
1.51654e-07
1.51357e-07
1.54163e-07
1.5082e-07
1.47901e-07
1.514e-07
1.51236e-07
1.62552e-07
1.63175e-07
1.61971e-07
1.62109e-07
1.62988e-07
1.6116e-07
1.62402e-07
1.57356e-07
1.53086e-07
1.54675e-07
1.52911e-07
1.58978e-07
1.57474e-07
1.56239e-07
1.62255e-07
1.6218e-07
1.61793e-07
1.60159e-07
1.53147e-07
1.53109e-07
1.51989e-07
1.53183e-07
1.51623e-07
1.6307e-07
1.45906e-07
1.44333e-07
1.42165e-07
1.43983e-07
1.44502e-07
1.41216e-07
1.40832e-07
1.42113e-07
1.42023e-07
1.41575e-07
1.39934e-07
1.3668e-07
1.37507e-07
1.35753e-07
1.4501e-07
1.41933e-07
1.39999e-07
1.40912e-07
1.36029e-07
1.42438e-07
1.39573e-07
1.41545e-07
1.41575e-07
1.37095e-07
1.49321e-07
1.49324e-07
1.48208e-07
1.48721e-07
1.61261e-07
1.61232e-07
1.59161e-07
1.59287e-07
1.59578e-07
1.59548e-07
1.56647e-07
1.55694e-07
1.60858e-07
1.62279e-07
1.51199e-07
1.55634e-07
1.54543e-07
1.55076e-07
1.52464e-07
1.54364e-07
1.54338e-07
1.50821e-07
1.49763e-07
1.49001e-07
1.4957e-07
1.62215e-07
1.6236e-07
1.6305e-07
1.62127e-07
1.62352e-07
1.62045e-07
1.62015e-07
1.55939e-07
1.53905e-07
1.53698e-07
1.534e-07
1.57452e-07
1.59339e-07
1.55887e-07
1.61697e-07
1.60405e-07
1.62172e-07
1.59665e-07
1.52661e-07
1.50342e-07
1.5338e-07
1.53706e-07
1.62531e-07
1.37949e-07
1.44182e-07
1.42186e-07
1.39933e-07
1.41174e-07
1.36938e-07
1.41253e-07
1.43053e-07
1.41441e-07
1.341e-07
1.42318e-07
1.40759e-07
1.41003e-07
1.39684e-07
1.37849e-07
1.38531e-07
1.41442e-07
1.34873e-07
1.36685e-07
1.38983e-07
1.46281e-07
1.41385e-07
1.434e-07
1.44366e-07
1.45746e-07
1.47724e-07
1.43958e-07
1.43774e-07
1.45272e-07
1.44997e-07
1.61088e-07
1.61829e-07
1.59774e-07
1.58293e-07
1.59347e-07
1.58836e-07
1.58273e-07
1.53773e-07
1.62011e-07
1.6183e-07
1.55105e-07
1.53424e-07
1.5382e-07
1.52843e-07
1.5283e-07
1.52751e-07
1.49851e-07
1.47108e-07
1.51345e-07
1.44158e-07
1.45451e-07
1.4639e-07
1.62421e-07
1.63176e-07
1.62163e-07
1.62123e-07
1.61583e-07
1.62957e-07
1.61565e-07
1.54112e-07
1.55257e-07
1.53634e-07
1.5393e-07
1.56606e-07
1.56515e-07
1.59008e-07
1.59744e-07
1.55578e-07
1.61544e-07
1.60757e-07
1.62564e-07
1.62168e-07
1.55514e-07
1.53859e-07
1.52972e-07
1.63077e-07
1.40304e-07
1.3627e-07
1.39626e-07
1.39648e-07
1.38532e-07
1.38052e-07
1.41837e-07
1.4369e-07
1.41091e-07
1.39287e-07
1.41732e-07
1.38699e-07
1.37709e-07
1.39453e-07
1.41183e-07
1.38292e-07
1.41373e-07
1.34381e-07
1.37034e-07
1.3293e-07
1.32719e-07
1.37047e-07
1.46562e-07
1.43981e-07
1.44493e-07
1.46567e-07
1.44989e-07
1.46091e-07
1.45241e-07
1.45198e-07
1.43758e-07
1.4393e-07
1.61975e-07
1.61376e-07
1.61846e-07
1.60896e-07
1.59822e-07
1.58703e-07
1.56689e-07
1.57288e-07
1.55826e-07
1.61493e-07
1.62952e-07
1.54787e-07
1.52318e-07
1.55314e-07
1.52619e-07
1.51875e-07
1.50453e-07
1.48026e-07
1.51e-07
1.45992e-07
1.49026e-07
1.47558e-07
1.45673e-07
1.44975e-07
1.60392e-07
1.6238e-07
1.6199e-07
1.61959e-07
1.61051e-07
1.62477e-07
1.62937e-07
1.61653e-07
1.52903e-07
1.54327e-07
1.53609e-07
1.52687e-07
1.56446e-07
1.5577e-07
1.57507e-07
1.58999e-07
1.53274e-07
1.61071e-07
1.61017e-07
1.60868e-07
1.60071e-07
1.55354e-07
1.49515e-07
1.51843e-07
1.52474e-07
1.49679e-07
1.62219e-07
1.37074e-07
1.39612e-07
1.38083e-07
1.41643e-07
1.36918e-07
1.3786e-07
1.37091e-07
1.41135e-07
1.39992e-07
1.39396e-07
1.36442e-07
1.39017e-07
1.3711e-07
1.37502e-07
1.32254e-07
1.39395e-07
1.39441e-07
1.41227e-07
1.37592e-07
1.33739e-07
1.358e-07
1.43653e-07
1.44232e-07
1.3955e-07
1.44898e-07
1.42996e-07
1.45742e-07
1.48991e-07
1.4735e-07
1.41017e-07
1.43163e-07
1.61849e-07
1.61183e-07
1.61283e-07
1.60259e-07
1.5968e-07
1.58573e-07
1.54575e-07
1.55717e-07
1.5623e-07
1.55835e-07
1.61246e-07
1.62129e-07
1.52259e-07
1.49136e-07
1.55356e-07
1.51044e-07
1.51796e-07
1.5038e-07
1.48527e-07
1.51058e-07
1.50469e-07
1.50069e-07
1.47226e-07
1.45267e-07
1.41833e-07
1.62299e-07
1.6318e-07
1.62299e-07
1.62529e-07
1.60736e-07
1.61373e-07
1.62642e-07
1.63101e-07
1.51075e-07
1.53374e-07
1.52513e-07
1.51607e-07
1.5441e-07
1.55448e-07
1.5317e-07
1.53092e-07
1.57303e-07
1.58638e-07
1.59881e-07
1.52513e-07
1.50781e-07
1.62596e-07
1.61822e-07
1.62575e-07
1.61964e-07
1.61468e-07
1.49737e-07
1.52223e-07
1.51885e-07
1.51029e-07
1.62519e-07
1.40567e-07
1.39587e-07
1.38522e-07
1.3931e-07
1.37538e-07
1.37096e-07
1.36705e-07
1.36255e-07
1.34575e-07
1.38461e-07
1.38235e-07
1.30975e-07
1.31351e-07
1.32437e-07
1.35666e-07
1.36898e-07
1.34722e-07
1.325e-07
1.39844e-07
1.40893e-07
1.32955e-07
1.37755e-07
1.43595e-07
1.39339e-07
1.38963e-07
1.37298e-07
1.41914e-07
1.42621e-07
1.45904e-07
1.47171e-07
1.47244e-07
1.42462e-07
1.41895e-07
1.6023e-07
1.59575e-07
1.60236e-07
1.61047e-07
1.60843e-07
1.60041e-07
1.58711e-07
1.58697e-07
1.54921e-07
1.55726e-07
1.56925e-07
1.55244e-07
1.62626e-07
1.62702e-07
1.61842e-07
1.52474e-07
1.5131e-07
1.55213e-07
1.51051e-07
1.51406e-07
1.48504e-07
1.48487e-07
1.50327e-07
1.48621e-07
1.50452e-07
1.49939e-07
1.44007e-07
1.47777e-07
1.6013e-07
1.61694e-07
1.61116e-07
1.61523e-07
1.61504e-07
1.6157e-07
1.63138e-07
1.53156e-07
1.51224e-07
1.50664e-07
1.5424e-07
1.55392e-07
1.55403e-07
1.53199e-07
1.54201e-07
1.56175e-07
1.58739e-07
1.5251e-07
1.54884e-07
1.60567e-07
1.62075e-07
1.61515e-07
1.60892e-07
1.5995e-07
1.50343e-07
1.53052e-07
1.50896e-07
1.51632e-07
1.51536e-07
1.6313e-07
1.61914e-07
1.42125e-07
1.41087e-07
1.37801e-07
1.38083e-07
1.37414e-07
1.34359e-07
1.35078e-07
1.36643e-07
1.35535e-07
1.37139e-07
1.32004e-07
1.35438e-07
1.34587e-07
1.33311e-07
1.36624e-07
1.36056e-07
1.38812e-07
1.29949e-07
1.2816e-07
1.42323e-07
1.36711e-07
1.35218e-07
1.3799e-07
1.39667e-07
1.4148e-07
1.39428e-07
1.37485e-07
1.33174e-07
1.40632e-07
1.38251e-07
1.41418e-07
1.40234e-07
1.38435e-07
1.42408e-07
1.43087e-07
1.40751e-07
1.60723e-07
1.60897e-07
1.61524e-07
1.61313e-07
1.60338e-07
1.60656e-07
1.59393e-07
1.58861e-07
1.55724e-07
1.53017e-07
1.55268e-07
1.55957e-07
1.61474e-07
1.61698e-07
1.62156e-07
1.61776e-07
1.53083e-07
1.55061e-07
1.51565e-07
1.50779e-07
1.48487e-07
1.46994e-07
1.48601e-07
1.47087e-07
1.44964e-07
1.47622e-07
1.50202e-07
1.47818e-07
1.61418e-07
1.61535e-07
1.62686e-07
1.62559e-07
1.61257e-07
1.6131e-07
1.62229e-07
1.52961e-07
1.50357e-07
1.47014e-07
1.50339e-07
1.52656e-07
1.53793e-07
1.54632e-07
1.54831e-07
1.53033e-07
1.55356e-07
1.58385e-07
1.59006e-07
1.52356e-07
1.54511e-07
1.6197e-07
1.60843e-07
1.62035e-07
1.61224e-07
1.57339e-07
1.51452e-07
1.51518e-07
1.51712e-07
1.50947e-07
1.51344e-07
1.62984e-07
1.617e-07
1.39984e-07
1.38659e-07
1.36223e-07
1.34896e-07
1.35146e-07
1.29726e-07
1.31542e-07
1.34518e-07
1.35798e-07
1.28578e-07
1.36201e-07
1.29191e-07
1.34539e-07
1.35093e-07
1.35827e-07
1.41223e-07
1.32796e-07
1.3705e-07
1.28857e-07
1.3305e-07
1.41315e-07
1.35242e-07
1.36267e-07
1.35581e-07
1.4125e-07
1.35236e-07
1.36832e-07
1.36756e-07
1.39413e-07
1.35945e-07
1.37882e-07
1.37172e-07
1.40912e-07
1.41262e-07
1.40779e-07
1.40845e-07
1.41775e-07
1.41723e-07
1.60621e-07
1.59803e-07
1.61634e-07
1.62173e-07
1.60393e-07
1.59227e-07
1.59022e-07
1.57017e-07
1.57819e-07
1.54533e-07
1.546e-07
1.53746e-07
1.49999e-07
1.62195e-07
1.62066e-07
1.61709e-07
1.59526e-07
1.511e-07
1.50087e-07
1.5044e-07
1.4907e-07
1.46121e-07
1.44519e-07
1.49018e-07
1.4763e-07
1.48954e-07
1.46293e-07
1.44719e-07
1.45022e-07
1.61268e-07
1.63192e-07
1.61111e-07
1.62978e-07
1.60576e-07
1.62562e-07
1.61456e-07
1.61182e-07
1.53126e-07
1.50239e-07
1.49485e-07
1.507e-07
1.52573e-07
1.54054e-07
1.54684e-07
1.54694e-07
1.50151e-07
1.56243e-07
1.56518e-07
1.59223e-07
1.53338e-07
1.50428e-07
1.60233e-07
1.59921e-07
1.60994e-07
1.62878e-07
1.58572e-07
1.51356e-07
1.4749e-07
1.5018e-07
1.52406e-07
1.50108e-07
1.50245e-07
1.62501e-07
1.61349e-07
1.32287e-07
1.35921e-07
1.372e-07
1.35841e-07
1.36062e-07
1.30845e-07
1.33823e-07
1.35005e-07
1.31335e-07
1.33086e-07
1.35125e-07
1.31722e-07
1.34563e-07
1.34923e-07
1.39935e-07
1.3484e-07
1.38274e-07
1.36152e-07
1.33936e-07
1.29414e-07
1.34762e-07
1.33492e-07
1.31379e-07
1.36042e-07
1.34235e-07
1.37252e-07
1.37098e-07
1.35642e-07
1.37667e-07
1.4067e-07
1.41312e-07
1.41902e-07
1.40856e-07
1.41196e-07
1.40432e-07
1.4216e-07
1.4185e-07
1.41769e-07
1.6108e-07
1.5724e-07
1.58178e-07
1.63433e-07
1.61843e-07
1.60932e-07
1.57314e-07
1.57795e-07
1.56695e-07
1.57559e-07
1.56624e-07
1.54768e-07
1.54198e-07
1.52214e-07
1.61852e-07
1.62044e-07
1.61856e-07
1.62236e-07
1.59905e-07
1.49965e-07
1.50829e-07
1.49261e-07
1.51464e-07
1.46083e-07
1.47023e-07
1.48066e-07
1.46061e-07
1.48336e-07
1.44781e-07
1.43568e-07
1.43187e-07
1.45067e-07
1.59953e-07
1.6269e-07
1.61338e-07
1.63117e-07
1.61522e-07
1.61756e-07
1.62212e-07
1.62188e-07
1.50988e-07
1.49691e-07
1.50134e-07
1.50808e-07
1.45849e-07
1.48012e-07
1.54252e-07
1.5442e-07
1.56853e-07
1.54829e-07
1.5305e-07
1.5695e-07
1.58546e-07
1.58744e-07
1.50709e-07
1.48659e-07
1.61492e-07
1.5858e-07
1.60687e-07
1.62808e-07
1.61591e-07
1.59189e-07
1.51159e-07
1.4812e-07
1.49333e-07
1.50168e-07
1.4953e-07
1.49327e-07
1.60525e-07
1.61156e-07
1.32034e-07
1.40487e-07
1.37041e-07
1.35616e-07
1.37123e-07
1.32832e-07
1.35291e-07
1.31963e-07
1.31445e-07
1.33832e-07
1.29784e-07
1.3276e-07
1.35374e-07
1.33636e-07
1.40591e-07
1.27402e-07
1.33022e-07
1.33558e-07
1.35772e-07
1.32917e-07
1.40685e-07
1.28121e-07
1.3888e-07
1.35013e-07
1.36453e-07
1.39976e-07
1.41055e-07
1.32379e-07
1.42094e-07
1.37853e-07
1.43052e-07
1.41206e-07
1.41812e-07
1.42544e-07
1.41746e-07
1.41724e-07
1.43888e-07
1.43892e-07
1.61305e-07
1.58048e-07
1.60503e-07
1.63696e-07
1.60873e-07
1.62148e-07
1.57914e-07
1.57623e-07
1.59418e-07
1.55964e-07
1.54097e-07
1.55228e-07
1.53702e-07
1.55055e-07
1.52417e-07
1.62577e-07
1.63006e-07
1.6155e-07
1.61002e-07
1.62964e-07
1.49824e-07
1.5183e-07
1.48202e-07
1.51131e-07
1.50855e-07
1.516e-07
1.47542e-07
1.42817e-07
1.48806e-07
1.45054e-07
1.42976e-07
1.44142e-07
1.61417e-07
1.62663e-07
1.63189e-07
1.61296e-07
1.61978e-07
1.6296e-07
1.61582e-07
1.61548e-07
1.50982e-07
1.48945e-07
1.52047e-07
1.47443e-07
1.47976e-07
1.48498e-07
1.53029e-07
1.53604e-07
1.54054e-07
1.52645e-07
1.51977e-07
1.56973e-07
1.55696e-07
1.59123e-07
1.49196e-07
1.51288e-07
1.60221e-07
1.61902e-07
1.61673e-07
1.59129e-07
1.5033e-07
1.4869e-07
1.45321e-07
1.46379e-07
1.49298e-07
1.48746e-07
1.50696e-07
1.63113e-07
1.61125e-07
1.61361e-07
1.4028e-07
1.30659e-07
1.34388e-07
1.33537e-07
1.33897e-07
1.38158e-07
1.3222e-07
1.30931e-07
1.3026e-07
1.33583e-07
1.30766e-07
1.32132e-07
1.2738e-07
1.32917e-07
1.36447e-07
1.30625e-07
1.31708e-07
1.32399e-07
1.29245e-07
1.27398e-07
1.39939e-07
1.31887e-07
1.38961e-07
1.34849e-07
1.2946e-07
1.3325e-07
1.41421e-07
1.39378e-07
1.37859e-07
1.40696e-07
1.36726e-07
1.39877e-07
1.41985e-07
1.42737e-07
1.4298e-07
1.41507e-07
1.42813e-07
1.42771e-07
1.41743e-07
1.61978e-07
1.61839e-07
1.60705e-07
1.62064e-07
1.62459e-07
1.60897e-07
1.60076e-07
1.60953e-07
1.57168e-07
1.54895e-07
1.52245e-07
1.54616e-07
1.55949e-07
1.52191e-07
1.61674e-07
1.63038e-07
1.61412e-07
1.61205e-07
1.63139e-07
1.63505e-07
1.52726e-07
1.52688e-07
1.50823e-07
1.50165e-07
1.50966e-07
1.51297e-07
1.44503e-07
1.3861e-07
1.49142e-07
1.43153e-07
1.4349e-07
1.42003e-07
1.43933e-07
1.60895e-07
1.6256e-07
1.62708e-07
1.61943e-07
1.62631e-07
1.60536e-07
1.61346e-07
1.4966e-07
1.48686e-07
1.51163e-07
1.49221e-07
1.46161e-07
1.48274e-07
1.48797e-07
1.49697e-07
1.4801e-07
1.5397e-07
1.5173e-07
1.54291e-07
1.51319e-07
1.52245e-07
1.51106e-07
1.5552e-07
1.56931e-07
1.58064e-07
1.58965e-07
1.52048e-07
1.60625e-07
1.62022e-07
1.61369e-07
1.62069e-07
1.50155e-07
1.47628e-07
1.48388e-07
1.49821e-07
1.50639e-07
1.48346e-07
1.60346e-07
1.60741e-07
1.61738e-07
1.29448e-07
1.32123e-07
1.34018e-07
1.32699e-07
1.31813e-07
1.36767e-07
1.34842e-07
1.30973e-07
1.32161e-07
1.24346e-07
1.37467e-07
1.30448e-07
1.31412e-07
1.28909e-07
1.35704e-07
1.27844e-07
1.26327e-07
1.29486e-07
1.27865e-07
1.32033e-07
1.29335e-07
1.29274e-07
1.29369e-07
1.35741e-07
1.35779e-07
1.30246e-07
1.26234e-07
1.40366e-07
1.32204e-07
1.40103e-07
1.31373e-07
1.28909e-07
1.32695e-07
1.36851e-07
1.4236e-07
1.43827e-07
1.45124e-07
1.41335e-07
1.41943e-07
1.43305e-07
1.3564e-07
1.34618e-07
1.62023e-07
1.62163e-07
1.62429e-07
1.61039e-07
1.63115e-07
1.62406e-07
1.61146e-07
1.60832e-07
1.58764e-07
1.59198e-07
1.54361e-07
1.56727e-07
1.55273e-07
1.55059e-07
1.51296e-07
1.56412e-07
1.62407e-07
1.61677e-07
1.62498e-07
1.6053e-07
1.63255e-07
1.61673e-07
1.53111e-07
1.50657e-07
1.50859e-07
1.50127e-07
1.50834e-07
1.46072e-07
1.43882e-07
1.42801e-07
1.43364e-07
1.44011e-07
1.4301e-07
1.43251e-07
1.41502e-07
1.61073e-07
1.6261e-07
1.63192e-07
1.62661e-07
1.61539e-07
1.63001e-07
1.62767e-07
1.62615e-07
1.62213e-07
1.49351e-07
1.4807e-07
1.46262e-07
1.50686e-07
1.47419e-07
1.48823e-07
1.48857e-07
1.50244e-07
1.50548e-07
1.53542e-07
1.50861e-07
1.54459e-07
1.50519e-07
1.51988e-07
1.51807e-07
1.55385e-07
1.56884e-07
1.56563e-07
1.573e-07
1.49541e-07
1.58954e-07
1.60693e-07
1.62266e-07
1.62214e-07
1.49964e-07
1.49199e-07
1.47971e-07
1.46823e-07
1.49908e-07
1.44152e-07
1.46032e-07
1.6025e-07
1.61404e-07
1.6203e-07
1.31994e-07
1.35442e-07
1.3207e-07
1.2945e-07
1.30078e-07
1.29615e-07
1.3256e-07
1.34429e-07
1.32154e-07
1.30985e-07
1.3776e-07
1.36496e-07
1.30419e-07
1.29135e-07
1.23252e-07
1.3131e-07
1.27876e-07
1.35302e-07
1.284e-07
1.35911e-07
1.27961e-07
1.29551e-07
1.27729e-07
1.28292e-07
1.33561e-07
1.32294e-07
1.30218e-07
1.38145e-07
1.36286e-07
1.34158e-07
1.33851e-07
1.3298e-07
1.3101e-07
1.30895e-07
1.41903e-07
1.41036e-07
1.44478e-07
1.41331e-07
1.40337e-07
1.41575e-07
1.39659e-07
1.3585e-07
1.6174e-07
1.61766e-07
1.62923e-07
1.62978e-07
1.62627e-07
1.61491e-07
1.61691e-07
1.60551e-07
1.607e-07
1.60718e-07
1.55479e-07
1.57897e-07
1.55196e-07
1.52946e-07
1.55108e-07
1.56609e-07
1.53634e-07
1.61468e-07
1.62359e-07
1.62855e-07
1.60064e-07
1.61622e-07
1.62898e-07
1.51355e-07
1.46006e-07
1.4948e-07
1.4849e-07
1.50751e-07
1.4458e-07
1.43568e-07
1.41606e-07
1.44152e-07
1.38132e-07
1.41891e-07
1.42689e-07
1.4219e-07
1.61034e-07
1.60444e-07
1.62895e-07
1.61129e-07
1.61399e-07
1.62157e-07
1.6234e-07
1.61127e-07
1.61634e-07
1.49045e-07
1.45381e-07
1.48968e-07
1.48772e-07
1.4798e-07
1.49544e-07
1.48008e-07
1.49852e-07
1.50696e-07
1.52157e-07
1.53966e-07
1.52012e-07
1.5125e-07
1.4795e-07
1.49343e-07
1.5373e-07
1.50767e-07
1.53902e-07
1.56703e-07
1.55885e-07
1.57751e-07
1.48346e-07
1.59795e-07
1.60673e-07
1.60059e-07
1.61467e-07
1.62476e-07
1.44405e-07
1.49249e-07
1.47718e-07
1.45215e-07
1.46739e-07
1.46573e-07
1.45648e-07
1.63147e-07
1.60832e-07
1.61267e-07
1.62164e-07
1.3622e-07
1.34646e-07
1.29733e-07
1.29097e-07
1.27486e-07
1.32434e-07
1.34741e-07
1.33645e-07
1.31776e-07
1.21268e-07
1.33974e-07
1.29556e-07
1.27618e-07
1.2929e-07
1.31107e-07
1.29966e-07
1.32237e-07
1.27811e-07
1.31638e-07
1.26836e-07
1.24503e-07
1.28381e-07
1.29653e-07
1.31626e-07
1.33346e-07
1.30883e-07
1.38587e-07
1.3543e-07
1.33648e-07
1.325e-07
1.33278e-07
1.34856e-07
1.27653e-07
1.41612e-07
1.37962e-07
1.34878e-07
1.41232e-07
1.3994e-07
1.35338e-07
1.35478e-07
1.37649e-07
1.38395e-07
1.60405e-07
1.5977e-07
1.61435e-07
1.6286e-07
1.62889e-07
1.62311e-07
1.61939e-07
1.60491e-07
1.59278e-07
1.60982e-07
1.60422e-07
1.53731e-07
1.6095e-07
1.53227e-07
1.51557e-07
1.55624e-07
1.59861e-07
1.57333e-07
1.60091e-07
1.62208e-07
1.63045e-07
1.62718e-07
1.62477e-07
1.62412e-07
1.62803e-07
1.52899e-07
1.49892e-07
1.49954e-07
1.49422e-07
1.44732e-07
1.446e-07
1.43811e-07
1.43904e-07
1.3979e-07
1.41965e-07
1.42678e-07
1.42357e-07
1.62118e-07
1.60418e-07
1.63188e-07
1.62859e-07
1.6155e-07
1.62165e-07
1.62561e-07
1.62587e-07
1.62427e-07
1.62351e-07
1.49168e-07
1.49144e-07
1.47215e-07
1.46462e-07
1.49554e-07
1.4794e-07
1.48593e-07
1.49847e-07
1.50478e-07
1.49325e-07
1.53071e-07
1.51133e-07
1.52549e-07
1.50626e-07
1.47976e-07
1.53944e-07
1.52305e-07
1.53399e-07
1.53968e-07
1.5831e-07
1.56529e-07
1.44545e-07
1.59687e-07
1.5996e-07
1.60787e-07
1.6117e-07
1.61706e-07
1.44058e-07
1.45142e-07
1.42038e-07
1.47137e-07
1.48154e-07
1.46626e-07
1.46202e-07
1.45811e-07
1.60184e-07
1.60485e-07
1.61824e-07
1.62545e-07
1.32911e-07
1.28174e-07
1.28628e-07
1.23525e-07
1.28581e-07
1.23545e-07
1.29022e-07
1.33131e-07
1.3403e-07
1.32212e-07
1.26343e-07
1.1656e-07
1.28967e-07
1.31661e-07
1.31755e-07
1.31206e-07
1.34396e-07
1.29967e-07
1.26285e-07
1.26875e-07
1.26421e-07
1.30672e-07
1.33983e-07
1.24619e-07
1.33064e-07
1.3192e-07
1.31429e-07
1.34606e-07
1.37387e-07
1.34897e-07
1.28826e-07
1.30846e-07
1.3064e-07
1.33123e-07
1.35058e-07
1.40207e-07
1.36515e-07
1.37834e-07
1.40872e-07
1.4e-07
1.38587e-07
1.36927e-07
1.37549e-07
1.38381e-07
1.60647e-07
1.60932e-07
1.62527e-07
1.62253e-07
1.61748e-07
1.61734e-07
1.58794e-07
1.59371e-07
1.60021e-07
1.59045e-07
1.57789e-07
1.59561e-07
1.55362e-07
1.51777e-07
1.49419e-07
1.58764e-07
1.60165e-07
1.6005e-07
1.61956e-07
1.62425e-07
1.62326e-07
1.62711e-07
1.62697e-07
1.62391e-07
1.5036e-07
1.51526e-07
1.44925e-07
1.44546e-07
1.41866e-07
1.50971e-07
1.4512e-07
1.43898e-07
1.43897e-07
1.422e-07
1.41694e-07
1.42934e-07
1.42791e-07
1.61411e-07
1.61167e-07
1.62038e-07
1.60582e-07
1.61863e-07
1.62008e-07
1.61981e-07
1.62481e-07
1.6192e-07
1.61808e-07
1.4847e-07
1.48759e-07
1.44304e-07
1.47621e-07
1.47471e-07
1.45638e-07
1.45611e-07
1.46079e-07
1.49007e-07
1.49668e-07
1.49719e-07
1.50516e-07
1.50436e-07
1.48144e-07
1.51019e-07
1.507e-07
1.47029e-07
1.56199e-07
1.53309e-07
1.56207e-07
1.56413e-07
1.58454e-07
1.59083e-07
1.60135e-07
1.6085e-07
1.60787e-07
1.61298e-07
1.62069e-07
1.61564e-07
1.42789e-07
1.44926e-07
1.43869e-07
1.46936e-07
1.48283e-07
1.45559e-07
1.41193e-07
1.46043e-07
1.60064e-07
1.61234e-07
1.61463e-07
1.62485e-07
1.26135e-07
1.29136e-07
1.29968e-07
1.29823e-07
1.25379e-07
1.31588e-07
1.26373e-07
1.30169e-07
1.29942e-07
1.31545e-07
1.19605e-07
1.27473e-07
1.29181e-07
1.30984e-07
1.32691e-07
1.24306e-07
1.33226e-07
1.34365e-07
1.30783e-07
1.28745e-07
1.3332e-07
1.32252e-07
1.3248e-07
1.29164e-07
1.31133e-07
1.28368e-07
1.3353e-07
1.32693e-07
1.33307e-07
1.36672e-07
1.35489e-07
1.32358e-07
1.33297e-07
1.28422e-07
1.24788e-07
1.34588e-07
1.37485e-07
1.41666e-07
1.42812e-07
1.432e-07
1.41471e-07
1.40086e-07
1.39621e-07
1.38226e-07
1.37519e-07
1.60929e-07
1.60052e-07
1.62291e-07
1.62889e-07
1.61892e-07
1.61568e-07
1.60571e-07
1.59466e-07
1.58353e-07