/*--------------------------------*- C++ -*----------------------------------*\
| =========                 |                                                 |
| \\      /  F ield         | OpenFOAM: The Open Source CFD Toolbox           |
|  \\    /   O peration     | Version:  v2012                                 |
|   \\  /    A nd           | Website:  www.openfoam.com                      |
|    \\/     M anipulation  |                                                 |
\*---------------------------------------------------------------------------*/
FoamFile
{
    version     2.0;
    format      ascii;
    class       surfaceVectorField;
    location    "0.7";
    object      Uf;
}
// * * * * * * * * * * * * * * * * * * * * * * * * * * * * * * * * * * * * * //

dimensions      [0 1 -1 0 0 0 0];


internalField   nonuniform List<vector> 
21399
(
(8.11578 -0.0365361 0)
(8.13282 -0.0841917 0)
(8.15194 -0.0641749 5.69038e-24)
(8.12792 -0.0470971 7.47968e-23)
(8.13103 -0.138758 -6.5885e-23)
(8.17947 -0.0813177 -9.61118e-23)
(8.19109 -0.0822924 -1.54423e-21)
(8.19464 -0.0835736 -8.75005e-24)
(8.19615 -0.0910069 -2.35204e-21)
(8.09478 -0.0662641 -3.32411e-20)
(8.14219 -0.0817558 8.71033e-21)
(8.13238 -0.0732465 9.67514e-21)
(8.20624 -0.134415 -1.78869e-22)
(8.22215 -0.0896723 -7.10349e-22)
(8.19086 -0.0877741 -1.41008e-23)
(8.19815 -0.0978514 -2.04544e-24)
(8.18908 -0.0959311 -2.11983e-21)
(8.10981 -0.0441659 4.97313e-22)
(8.18339 -0.0864191 -1.07435e-20)
(8.16423 -0.0965236 -4.99921e-23)
(8.14884 -0.143297 -7.14061e-20)
(8.22797 -0.0993067 1.73448e-24)
(8.21893 -0.0975039 -1.48861e-23)
(8.19001 -0.0925766 1.62483e-23)
(8.21198 -0.100998 -1.23185e-21)
(8.20138 -0.108011 -5.96816e-25)
(8.18411 -0.10017 3.81764e-24)
(8.14676 -0.0817644 6.18919e-23)
(8.11789 -0.0658156 -2.55056e-20)
(8.14642 -0.0859961 4.01875e-21)
(8.16284 -0.099945 -9.03722e-24)
(8.20187 -0.128865 -1.92333e-23)
(8.23605 -0.10038 0)
(8.24307 -0.100834 3.19006e-24)
(8.23244 -0.10877 -1.31659e-23)
(8.21987 -0.110166 -3.20035e-23)
(8.20415 -0.11816 -3.71526e-24)
(8.19412 -0.11289 -1.34982e-23)
(8.1843 -0.112762 9.36032e-25)
(8.1767 -0.108207 -3.61234e-22)
(8.11303 -0.0791893 1.01885e-22)
(8.1676 -0.108179 4.96144e-22)
(8.15537 -0.103785 -1.53993e-21)
(8.14378 -0.129269 -6.11186e-20)
(8.2464 -0.107389 2.35073e-22)
(8.22609 -0.115067 4.0936e-22)
(8.23147 -0.118 -2.85125e-22)
(8.21956 -0.119318 -2.22438e-23)
(8.21242 -0.123956 -1.64255e-22)
(8.20434 -0.127507 -1.19496e-23)
(8.18688 -0.121026 8.81458e-24)
(8.17041 -0.118618 -6.54047e-24)
(8.13044 -0.095632 -1.71226e-22)
(8.10363 -0.0918838 -4.57831e-22)
(8.14638 -0.106384 -5.40023e-22)
(8.17842 -0.138117 4.37954e-23)
(8.14492 -0.111117 3.99866e-21)
(8.24297 -0.117296 7.45192e-23)
(8.25194 -0.11337 -1.43057e-24)
(8.2375 -0.123245 -3.47403e-22)
(8.23012 -0.129514 -1.74804e-23)
(8.21725 -0.129544 3.43689e-23)
(8.19544 -0.1291 -2.30582e-24)
(8.20038 -0.135686 4.87408e-22)
(8.18421 -0.128883 0)
(8.17112 -0.128855 1.46058e-22)
(8.163 -0.125323 1.56185e-23)
(8.10124 -0.105309 7.31268e-21)
(8.10925 -0.109935 -9.6567e-24)
(8.1336 -0.111951 5.8069e-24)
(8.14914 -0.115458 2.04396e-23)
(8.10449 -0.134891 0)
(8.12836 -0.0928977 -1.39172e-23)
(8.24438 -0.128739 -1.19844e-23)
(8.25676 -0.121409 -4.90478e-23)
(8.22197 -0.134092 -7.66959e-25)
(8.22728 -0.140305 1.88796e-22)
(8.21385 -0.138833 2.41341e-24)
(8.19475 -0.142272 -2.3603e-22)
(8.20211 -0.140779 5.2722e-22)
(8.1778 -0.132023 4.38693e-24)
(8.1827 -0.139572 0)
(8.17065 -0.137968 6.13524e-24)
(8.15522 -0.122865 8.59159e-22)
(8.15661 -0.132446 -2.49423e-24)
(8.12015 -0.117999 0)
(8.14505 -0.121779 -4.56247e-22)
(8.1372 -0.111314 3.38518e-26)
(8.14008 -0.149609 -9.42554e-23)
(8.13568 -0.104353 3.78296e-26)
(8.25338 -0.130143 1.32387e-22)
(8.24661 -0.138081 3.86122e-24)
(8.26182 -0.129997 4.83753e-24)
(8.22306 -0.148929 1.31025e-23)
(8.23272 -0.145976 6.62565e-22)
(8.20728 -0.143859 6.45111e-24)
(8.21173 -0.149112 7.95007e-24)
(8.27024 -0.127147 -1.10985e-24)
(8.18903 -0.14478 2.78986e-24)
(8.19222 -0.150386 2.21741e-24)
(8.2019 -0.149564 4.07712e-22)
(8.18094 -0.148332 -1.01894e-23)
(8.16461 -0.142209 -7.42839e-23)
(8.17019 -0.146216 -8.4665e-24)
(8.15814 -0.141753 4.02933e-22)
(8.15078 -0.139273 3.18498e-23)
(8.12091 -0.116797 0)
(8.11745 -0.118287 0)
(8.13331 -0.123149 5.7418e-24)
(8.14219 -0.13099 1.37588e-21)
(8.057 -0.155491 -6.65584e-20)
(8.1196 -0.111527 -6.67165e-24)
(8.23991 -0.147156 8.56482e-24)
(8.25066 -0.149581 1.41969e-24)
(8.26687 -0.136398 0)
(8.21683 -0.153124 1.20268e-22)
(8.22276 -0.158552 7.23669e-24)
(8.23603 -0.156336 8.33047e-22)
(8.21037 -0.158453 6.01934e-24)
(8.19555 -0.153914 3.58311e-24)
(8.18948 -0.157965 -5.98836e-24)
(8.19942 -0.157368 -1.134e-23)
(8.17443 -0.152287 9.09743e-23)
(8.17861 -0.157826 -9.06824e-24)
(8.15852 -0.14907 -9.93393e-24)
(8.16791 -0.155225 -8.62547e-24)
(8.1441 -0.138156 4.8179e-24)
(8.14376 -0.147367 1.25352e-23)
(8.12168 -0.119775 1.56317e-23)
(8.13655 -0.137347 1.0364e-24)
(8.11351 -0.135246 9.37415e-23)
(8.09019 -0.139568 6.2141e-22)
(8.13815 -0.12281 2.03827e-20)
(8.26226 -0.152919 -4.27451e-24)
(8.25511 -0.162209 5.02401e-22)
(8.27557 -0.14078 0)
(8.2661 -0.144776 -3.99342e-24)
(8.22872 -0.162175 7.6616e-25)
(8.22172 -0.166996 -1.02393e-24)
(8.23719 -0.164451 8.79474e-25)
(8.20401 -0.161568 -3.68962e-24)
(8.20909 -0.167113 -3.06812e-23)
(8.28683 -0.144479 3.43472e-25)
(8.18322 -0.161708 -4.31338e-23)
(8.18679 -0.16608 -8.74185e-23)
(8.19691 -0.165431 4.28874e-22)
(8.17596 -0.165253 -2.74064e-23)
(8.16123 -0.15544 0)
(8.15376 -0.155785 0)
(8.16328 -0.161987 7.40276e-24)
(8.14342 -0.154356 9.32698e-22)
(8.13678 -0.151592 -2.22333e-22)
(8.12836 -0.116122 3.64848e-21)
(8.11464 -0.119671 8.17705e-22)
(8.13013 -0.136801 0)
(8.12925 -0.144394 -2.7511e-23)
(8.12026 -0.12375 7.53624e-20)
(8.10447 -0.091127 -3.24699e-22)
(8.13976 -0.120391 -2.86956e-23)
(8.27378 -0.157072 5.89037e-22)
(8.24625 -0.169823 1.71537e-24)
(8.25889 -0.173557 -2.16068e-24)
(8.21341 -0.173543 -1.33404e-24)
(8.2202 -0.177577 5.40456e-23)
(8.23782 -0.175356 -4.83928e-24)
(8.20741 -0.176093 -2.17372e-25)
(8.297 -0.150545 1.2234e-24)
(8.28652 -0.154514 3.09305e-23)
(8.30556 -0.158658 6.95141e-24)
(8.1914 -0.170991 -5.55178e-24)
(8.18448 -0.175245 -6.49358e-24)
(8.19835 -0.175251 -4.53607e-24)
(8.17439 -0.172897 -1.13824e-24)
(8.16983 -0.169356 1.44403e-23)
(8.14771 -0.15982 3.47149e-24)
(8.15143 -0.165937 -5.11156e-24)
(8.16391 -0.169177 1.38064e-22)
(8.15728 -0.168333 -6.73447e-24)
(8.14062 -0.16387 3.03522e-24)
(8.13066 -0.151015 8.44179e-23)
(8.13182 -0.158585 -2.74061e-24)
(8.11705 -0.127849 5.33501e-24)
(8.10557 -0.121988 2.41469e-21)
(8.12116 -0.13587 1.0825e-23)
(8.12203 -0.150783 1.46114e-22)
(8.07302 -0.144833 1.35176e-22)
(8.12597 -0.103704 -3.84471e-23)
(8.108 -0.0891411 -4.01298e-23)
(8.13326 -0.119658 0)
(8.28221 -0.163477 -3.24098e-24)
(8.2608 -0.184399 -8.92919e-23)
(8.27117 -0.178093 -6.49498e-24)
(8.22939 -0.179307 -1.46773e-22)
(8.22069 -0.18442 4.50873e-22)
(8.23825 -0.183544 -3.99834e-24)
(8.20066 -0.182573 9.07107e-25)
(8.30375 -0.168974 1.11553e-23)
(8.31449 -0.166415 9.32509e-23)
(8.17767 -0.177429 4.88115e-23)
(8.18153 -0.182601 -2.24312e-24)
(8.17168 -0.179836 -8.64894e-24)
(8.16292 -0.175641 9.26035e-24)
(8.1496 -0.173626 8.00973e-24)
(8.13302 -0.164986 -2.2416e-25)
(8.13486 -0.170392 1.88411e-23)
(8.12658 -0.164698 0)
(8.11774 -0.121594 -8.4885e-24)
(8.10161 -0.12301 -1.00219e-23)
(8.11363 -0.134067 3.37544e-22)
(8.1141 -0.141689 1.64406e-23)
(8.11813 -0.159584 -2.67344e-22)
(8.11521 -0.152662 -5.90314e-24)
(8.1222 -0.136572 0)
(8.10037 -0.0963833 0)
(8.08824 -0.0900106 0)
(8.11369 -0.113599 0)
(8.128 -0.122623 0)
(8.28048 -0.173989 1.67852e-22)
(8.29317 -0.171752 3.34067e-23)
(8.25383 -0.189933 7.83079e-23)
(8.26348 -0.194161 -5.39755e-24)
(8.28119 -0.185976 6.57265e-24)
(8.21681 -0.192036 3.87018e-23)
(8.2271 -0.192438 -5.27379e-24)
(8.24601 -0.189442 -2.39594e-24)
(8.23684 -0.191367 -7.07702e-25)
(8.19303 -0.188425 -6.70326e-23)
(8.2024 -0.18977 3.2365e-24)
(8.302 -0.179617 1.13756e-23)
(8.32258 -0.173883 9.17444e-24)
(8.18608 -0.18881 3.49295e-24)
(8.17815 -0.189908 1.2637e-22)
(8.16514 -0.180613 1.77228e-23)
(8.16846 -0.185684 5.93382e-23)
(8.15813 -0.181452 -4.00793e-22)
(8.14215 -0.178487 5.81653e-24)
(8.14785 -0.181894 -7.72531e-24)
(8.13691 -0.175943 7.29332e-22)
(8.12807 -0.176175 5.61971e-24)
(8.12105 -0.164634 6.37074e-24)
(8.12042 -0.170901 9.4885e-24)
(8.10019 -0.125392 2.08239e-22)
(8.09958 -0.125062 2.5e-24)
(8.10327 -0.131175 8.99766e-24)
(8.11132 -0.148466 5.84962e-22)
(8.10379 -0.145383 7.71279e-24)
(8.11437 -0.165456 -5.19934e-23)
(8.10688 -0.156304 8.88412e-24)
(8.05881 -0.134335 1.05623e-23)
(8.09839 -0.082607 1.71878e-23)
(8.11608 -0.124132 2.5101e-24)
(8.25034 -0.19865 -7.2769e-24)
(8.27159 -0.199547 2.71469e-24)
(8.26394 -0.204024 -5.07221e-24)
(8.28057 -0.195477 -1.26659e-24)
(8.29048 -0.192008 1.23131e-22)
(8.2092 -0.194379 -4.3942e-25)
(8.21557 -0.20235 -2.33883e-24)
(8.23388 -0.199054 7.69479e-23)
(8.19001 -0.195927 -7.71356e-24)
(8.20255 -0.198902 2.60822e-22)
(8.30009 -0.189733 1.12312e-23)
(8.31071 -0.187694 -4.91704e-23)
(8.32113 -0.184384 6.92362e-23)
(8.33083 -0.180302 1.82798e-25)
(8.17094 -0.191056 2.52285e-24)
(8.17486 -0.196876 9.1853e-24)
(8.16448 -0.191584 -2.68003e-25)
(8.15317 -0.185746 2.84652e-24)
(8.15733 -0.1906 3.32609e-24)
(8.13613 -0.184377 2.71568e-22)
(8.14607 -0.190851 -1.81378e-22)
(8.1208 -0.178141 6.12732e-24)
(8.12373 -0.184086 2.77297e-22)
(8.1144 -0.177917 3.59605e-22)
(8.10665 -0.12421 2.00179e-22)
(8.09702 -0.129329 0)
(8.09685 -0.136583 0)
(8.09677 -0.144561 1.08752e-24)
(8.0968 -0.151976 2.19926e-23)
(8.10796 -0.166307 1.03401e-23)
(8.11011 -0.171852 6.26749e-24)
(8.09939 -0.157854 1.72582e-23)
(8.10315 -0.162686 -1.14569e-22)
(8.08437 -0.0963111 -5.20356e-22)
(8.10191 -0.132854 1.02557e-23)
(8.07324 -0.082625 -1.34168e-20)
(8.09409 -0.104326 1.45027e-23)
(8.25495 -0.207882 2.03409e-22)
(8.2476 -0.207848 -5.8057e-24)
(8.27964 -0.206335 2.46488e-24)
(8.26208 -0.213224 -5.37839e-24)
(8.29773 -0.200373 1.09395e-23)
(8.21523 -0.210013 -1.01817e-25)
(8.22288 -0.206911 2.08053e-25)
(8.23975 -0.205842 -2.41967e-25)
(8.23007 -0.205324 7.9908e-25)
(8.19456 -0.202705 5.36783e-22)
(8.18733 -0.204003 -1.41574e-23)
(8.20135 -0.207639 -1.37023e-23)
(8.31841 -0.19561 7.25625e-24)
(8.33886 -0.18646 -1.4794e-24)
(8.17939 -0.203942 -9.97234e-23)
(8.17108 -0.203684 -1.29429e-23)
(8.15889 -0.196157 1.83065e-22)
(8.12926 -0.187701 4.08643e-24)
(8.13441 -0.190847 9.95765e-23)
(8.13923 -0.19444 3.28674e-24)
(8.14457 -0.198924 -2.57144e-24)
(8.12104 -0.190576 -1.98213e-24)
(8.1103 -0.176444 4.68607e-24)
(8.10761 -0.182997 -3.27281e-22)
(8.10603 -0.11503 -1.12909e-23)
(8.10119 -0.120876 4.60385e-22)
(8.09545 -0.123699 -9.3254e-24)
(8.08908 -0.128635 -6.29193e-24)
(8.08894 -0.142797 0)
(8.09005 -0.158509 2.89251e-23)
(8.0995 -0.168017 2.25847e-24)
(8.10412 -0.176068 0)
(8.08858 -0.0847333 1.19189e-20)
(8.0426 -0.121735 -2.04061e-23)
(8.09242 -0.11012 0)
(8.24328 -0.215292 -3.9439e-22)
(8.27727 -0.213804 0)
(8.28647 -0.211534 0)
(8.27084 -0.217109 0)
(8.26136 -0.221618 0)
(8.29492 -0.21077 4.98494e-24)
(8.30496 -0.2093 3.58543e-23)
(8.20864 -0.21291 -4.52668e-25)
(8.21457 -0.218029 -7.32822e-24)
(8.22901 -0.213395 -3.21735e-23)
(8.18285 -0.211276 -5.75338e-24)
(8.19985 -0.215535 9.57596e-25)
(8.31537 -0.206369 5.78698e-24)
(8.32601 -0.203067 -2.39099e-24)
(8.33689 -0.19888 -2.47253e-24)
(8.16347 -0.203715 2.53629e-23)
(8.16749 -0.210698 -7.08011e-23)
(8.15517 -0.202723 -6.29201e-24)
(8.13277 -0.198203 2.22312e-24)
(8.14988 -0.202789 -1.26072e-25)
(8.1437 -0.205728 2.57819e-24)
(8.11466 -0.194669 0)
(8.12111 -0.198851 0)
(8.10506 -0.188762 -9.11411e-25)
(8.09884 -0.184738 -1.35324e-22)
(8.09404 -0.116455 -4.14655e-22)
(8.08261 -0.128265 -1.04443e-22)
(8.08298 -0.134864 -4.56062e-24)
(8.08219 -0.14095 0)
(8.07976 -0.149033 -3.35478e-24)
(8.08078 -0.15975 6.21685e-23)
(8.08339 -0.166392 1.02716e-23)
(8.09815 -0.174994 0)
(8.09298 -0.172328 0)
(8.09794 -0.179935 1.10155e-23)
(8.07145 -0.0799854 -1.301e-23)
(8.08363 -0.0982212 8.08023e-23)
(8.07457 -0.0823601 -1.82828e-23)
(8.08718 -0.117889 3.53111e-20)
(8.09223 -0.109168 1.83684e-24)
(8.09088 -0.106564 -9.44403e-25)
(8.23482 -0.218966 -8.70675e-25)
(8.24205 -0.222293 1.79782e-24)
(8.27679 -0.22209 -1.61362e-24)
(8.291 -0.220543 -1.44768e-24)
(8.26206 -0.230834 0)
(8.25493 -0.22761 0)
(8.31196 -0.217047 1.25178e-23)
(8.22027 -0.223041 -1.4229e-22)
(8.21281 -0.22547 -4.15146e-24)
(8.22756 -0.220893 -3.64492e-24)
(8.17811 -0.218037 0)
(8.18686 -0.219109 1.1143e-24)
(8.19398 -0.219644 -7.47995e-24)
(8.20036 -0.223321 9.78788e-25)
(8.33304 -0.210691 2.48394e-22)
(8.17149 -0.216332 -1.84745e-25)
(8.16366 -0.216158 2.82047e-25)
(8.15356 -0.21008 2.46825e-24)
(8.12709 -0.201925 0)
(8.13287 -0.205943 0)
(8.13903 -0.209726 2.58277e-24)
(8.14497 -0.214047 -1.81125e-22)
(8.11024 -0.192969 0)
(8.11102 -0.200556 -1.73518e-24)
(8.1216 -0.206681 3.26163e-24)
(8.10249 -0.194276 -1.97905e-24)
(8.09264 -0.184988 2.85385e-22)
(8.09001 -0.111483 -2.2253e-24)
(8.07891 -0.123375 -7.681e-24)
(8.07366 -0.129318 -5.18523e-24)
(8.07537 -0.13952 0)
(8.0781 -0.155046 -6.94075e-22)
(8.07108 -0.151754 -1.01595e-23)
(8.07231 -0.161839 -6.25108e-24)
(8.08567 -0.171871 0)
(8.07759 -0.172337 0)
(8.08442 -0.179241 2.62946e-24)
(8.07696 -0.0770415 5.9029e-24)
(8.08101 -0.107658 -4.83659e-24)
(8.02765 -0.125109 6.41581e-23)
(8.24806 -0.228254 3.02574e-24)
(8.23896 -0.231061 1.12022e-22)
(8.28287 -0.226102 9.22492e-23)
(8.27588 -0.230056 -1.69549e-24)
(8.29198 -0.228383 -1.45421e-24)
(8.26808 -0.234923 0)
(8.26161 -0.239888 -5.38152e-24)
(8.25079 -0.237119 -6.34665e-24)
(8.3101 -0.228396 6.84007e-24)
(8.32059 -0.223484 1.4811e-22)
(8.22523 -0.228516 2.21754e-24)
(8.20585 -0.228147 0)
(8.21087 -0.233223 0)
(8.17398 -0.224045 -3.35485e-24)
(8.1897 -0.226574 2.73267e-23)
(8.1998 -0.230815 0)
(8.32798 -0.219284 6.042e-24)
(8.33972 -0.216587 -1.24786e-24)
(8.15738 -0.217375 5.36489e-25)
(8.16152 -0.223231 -9.19789e-23)
(8.15173 -0.216875 2.07723e-24)
(8.13275 -0.214152 -9.13998e-25)
(8.1464 -0.221585 1.97729e-24)
(8.10641 -0.204393 1.01341e-23)
(8.11152 -0.206913 -5.79665e-25)
(8.11618 -0.210488 -4.62704e-23)
(8.12191 -0.214342 6.00113e-24)
(8.10148 -0.201591 1.03166e-22)
(8.09669 -0.197357 -1.66862e-24)
(8.08565 -0.184481 1.15086e-22)
(8.08862 -0.190554 8.90008e-24)
(8.08222 -0.115617 -1.27137e-22)
(8.08325 -0.108561 8.71827e-22)
(8.07225 -0.117939 -8.04586e-25)
(8.06935 -0.136602 0)
(8.06523 -0.132602 3.0151e-24)
(8.06674 -0.142514 -2.10784e-23)
(8.06499 -0.149765 8.70152e-23)
(8.06364 -0.155929 1.595e-22)
(8.0635 -0.161932 -3.26984e-24)
(8.06645 -0.167151 2.29389e-22)
(8.07094 -0.172268 1.42444e-24)
(8.07187 -0.178042 2.87059e-24)
(8.07848 -0.184151 3.13339e-25)
(8.07213 -0.0979008 1.6964e-21)
(8.06191 -0.0824048 -4.82537e-21)
(8.07803 -0.105567 1.13188e-23)
(8.05747 -0.104394 -7.82763e-24)
(8.04731 -0.108726 -2.04742e-23)
(8.23042 -0.233623 3.83038e-24)
(8.23522 -0.239942 3.44299e-24)
(8.27558 -0.239322 0)
(8.30009 -0.233361 7.1406e-25)
(8.2913 -0.238744 0)
(8.25375 -0.244014 2.23356e-22)
(8.25984 -0.248158 -8.22675e-24)
(8.24702 -0.24573 -6.17863e-24)
(8.30937 -0.241197 -1.06275e-22)
(8.32786 -0.229589 8.63537e-24)
(8.22281 -0.236139 1.9313e-25)
(8.21524 -0.238353 -1.08558e-26)
(8.20812 -0.240808 -4.68831e-24)
(8.16773 -0.227025 1.7575e-23)
(8.17468 -0.230613 -5.601e-23)
(8.19332 -0.23211 -9.70486e-26)
(8.18664 -0.232774 -1.06271e-25)
(8.19717 -0.236859 -8.02873e-24)
(8.34918 -0.218754 -1.94412e-24)
(8.34517 -0.227741 1.99881e-24)
(8.36122 -0.223455 -3.90911e-24)
(8.1605 -0.229678 -6.77976e-25)
(8.12708 -0.217776 -1.82631e-24)
(8.13325 -0.221609 -1.68294e-22)
(8.1389 -0.225716 1.31531e-23)
(8.14729 -0.230487 1.40014e-24)
(8.10079 -0.207897 -6.39937e-24)
(8.11075 -0.214471 -3.26084e-23)
(8.1212 -0.221512 -4.00867e-23)
(8.09203 -0.194774 0)
(8.0916 -0.201922 0)
(8.08526 -0.194559 0)
(8.08057 -0.105747 2.62561e-21)
(8.06252 -0.120897 3.35626e-24)
(8.06641 -0.114153 -4.63664e-25)
(8.05903 -0.128821 2.59693e-23)
(8.05395 -0.136556 -1.43274e-23)
(8.05785 -0.146788 -6.93352e-22)
(8.05577 -0.161303 -1.00576e-24)
(8.06079 -0.172808 -2.24462e-22)
(8.07192 -0.184177 2.66565e-23)
(8.06509 -0.183625 2.80047e-22)
(8.0752 -0.190294 -7.26577e-24)
(8.07834 -0.0861853 -8.8077e-24)
(8.06839 -0.0869787 5.36282e-20)
(8.05064 -0.0631212 1.3896e-21)
(8.23913 -0.246644 0)
(8.23026 -0.248069 5.42406e-24)
(8.28339 -0.243885 0)
(8.27583 -0.248869 0)
(8.29148 -0.248435 0)
(8.26743 -0.25176 -2.61982e-24)
(8.25903 -0.255056 3.75999e-22)
(8.24219 -0.253893 0)
(8.31658 -0.246212 4.51424e-22)
(8.30729 -0.248579 -1.98249e-22)
(8.3374 -0.232452 -3.98459e-23)
(8.32888 -0.237755 2.52053e-24)
(8.21873 -0.244311 4.55057e-24)
(8.20088 -0.242717 9.51087e-23)
(8.2044 -0.248135 -7.84303e-24)
(8.18071 -0.234433 -1.48392e-24)
(8.17371 -0.237988 -5.35597e-24)
(8.18419 -0.240313 0)
(8.19385 -0.243882 -6.60617e-23)
(8.34743 -0.236188 1.89608e-24)
(8.36474 -0.235359 -3.04136e-22)
(8.16176 -0.239095 0)
(8.15457 -0.233668 5.31857e-25)
(8.13268 -0.229376 -2.76268e-24)
(8.15185 -0.232647 2.35717e-22)
(8.14604 -0.235137 -3.87989e-24)
(8.09507 -0.210754 -2.9123e-24)
(8.10004 -0.214306 -6.1635e-23)
(8.10488 -0.217648 -5.23896e-24)
(8.11014 -0.221544 -2.10046e-24)
(8.11531 -0.22539 1.88555e-24)
(8.12112 -0.229181 7.05562e-25)
(8.09053 -0.207262 0)
(8.08616 -0.204155 0)
(8.07993 -0.195379 -3.82818e-24)
(8.08253 -0.200407 0)
(8.07139 -0.107051 5.39819e-23)
(8.07798 -0.100077 3.68715e-24)
(8.05207 -0.124611 3.04245e-24)
(8.06241 -0.108842 -4.454e-25)
(8.05071 -0.143685 -3.17644e-23)
(8.04403 -0.140153 -1.27739e-22)
(8.04781 -0.15126 -1.53989e-23)
(8.04612 -0.159111 0)
(8.04584 -0.16661 0)
(8.05758 -0.181215 6.44848e-24)
(8.05271 -0.176184 2.01381e-24)
(8.05907 -0.187585 -1.0184e-22)
(8.07204 -0.196118 5.37702e-23)
(8.06227 -0.0713143 -4.54672e-23)
(8.07784 -0.0880761 -3.98054e-25)
(8.03632 -0.10438 1.313e-22)
(8.05472 -0.0590958 -1.20419e-21)
(8.2226 -0.250352 7.39592e-23)
(8.22612 -0.2563 3.94278e-24)
(8.27438 -0.257116 1.13013e-24)
(8.30087 -0.251423 2.42911e-24)
(8.29245 -0.256729 0)
(8.25359 -0.261386 -2.20749e-24)
(8.26175 -0.264014 -4.9937e-25)
(8.24551 -0.260684 0)
(8.23724 -0.260774 -2.66781e-24)
(8.32459 -0.247583 1.37175e-24)
(8.32065 -0.257283 1.28998e-24)
(8.30783 -0.257002 2.17554e-24)
(8.33496 -0.250517 -1.12846e-24)
(8.21471 -0.252285 2.614e-25)
(8.20763 -0.253649 -1.53001e-23)
(8.20041 -0.255172 -9.11102e-24)
(8.16836 -0.243301 -4.05574e-24)
(8.17341 -0.246799 3.6993e-22)
(8.18686 -0.245307 -3.38253e-24)
(8.18085 -0.246889 -3.5141e-24)
(8.18959 -0.25092 -1.04387e-23)
(8.3559 -0.24275 -1.9738e-24)
(8.34758 -0.248395 -1.27044e-24)
(8.36785 -0.246915 5.18053e-24)
(8.16191 -0.248412 -2.37849e-24)
(8.15108 -0.23952 -4.29058e-22)
(8.12674 -0.231333 3.54411e-24)
(8.13128 -0.234897 -1.13865e-22)
(8.14533 -0.240966 -6.2882e-24)
(8.14159 -0.240101 -4.87493e-23)
(8.0891 -0.21342 0)
(8.09906 -0.220947 -2.88845e-24)
(8.10917 -0.228887 -1.22221e-24)
(8.1213 -0.234711 9.03134e-24)
(8.08004 -0.205398 1.73352e-24)
(8.0792 -0.0940179 1.5795e-21)
(8.07289 -0.0954276 -5.94096e-24)
(8.04441 -0.121529 -4.95719e-25)
(8.03937 -0.129859 -5.07588e-26)
(8.06055 -0.102926 -1.27433e-23)
(8.05365 -0.109831 -2.25236e-24)
(8.03652 -0.136968 -1.61473e-23)
(8.03336 -0.144861 -1.35365e-23)
(8.0387 -0.155595 0)
(8.04813 -0.172123 0)
(8.04018 -0.169636 6.00357e-24)
(8.04731 -0.18002 -9.98167e-25)
(8.0546 -0.19041 4.51196e-22)
(8.06186 -0.193316 5.02481e-22)
(8.06604 -0.19781 -2.2815e-24)
(8.06973 -0.203014 -1.5326e-24)
(8.07262 -0.0873729 -3.46292e-25)
(8.0434 -0.0692041 -4.86118e-21)
(8.0686 -0.0932978 6.9416e-23)
(8.0309 -0.0650231 -1.97413e-20)
(8.05639 -0.079663 4.15698e-23)
(8.23012 -0.260929 -6.30072e-23)
(8.22226 -0.26301 -9.57556e-23)
(8.27089 -0.264574 5.77772e-23)
(8.27935 -0.263872 1.34413e-24)
(8.2878 -0.264229 1.59203e-25)
(8.29628 -0.266646 0)
(8.24872 -0.269336 1.21399e-24)
(8.26585 -0.270825 1.44892e-24)
(8.23335 -0.26821 -2.39054e-24)
(8.31316 -0.262994 -1.16456e-24)
(8.32293 -0.265584 -4.70335e-23)
(8.30663 -0.266237 0)
(8.34363 -0.257507 -1.39542e-22)
(8.21109 -0.259547 2.44762e-25)
(8.19284 -0.25655 6.72749e-23)
(8.19653 -0.262376 -6.64138e-24)
(8.17516 -0.252267 3.3701e-23)
(8.18547 -0.257677 -1.4914e-23)
(8.37925 -0.250531 -7.74075e-23)
(8.36883 -0.256623 -1.05177e-22)
(8.1541 -0.252251 -2.70962e-24)
(8.15934 -0.256769 1.28455e-22)
(8.14978 -0.244595 -3.42074e-22)
(8.13454 -0.2408 3.17115e-23)
(8.12893 -0.241218 2.06975e-24)
(8.138 -0.248358 -1.23377e-25)
(8.0833 -0.215802 2.09599e-24)
(8.08844 -0.219826 0)
(8.09344 -0.22339 0)
(8.09845 -0.22716 -2.56822e-24)
(8.10298 -0.231114 -3.75605e-24)
(8.10803 -0.235548 -7.22199e-23)
(8.12346 -0.239651 3.50544e-24)
(8.11739 -0.238225 -2.45316e-22)
(8.07405 -0.207342 4.17553e-24)
(8.07827 -0.212011 -1.1919e-22)
(8.06419 -0.0972027 -1.20705e-23)
(8.06667 -0.09093 1.25158e-23)
(8.04592 -0.1135 -2.31749e-24)
(8.03453 -0.118052 2.43183e-24)
(8.0288 -0.133173 -5.33326e-25)
(8.0547 -0.0983631 5.97834e-22)
(8.04481 -0.107142 2.30023e-22)
(8.03201 -0.151794 0)
(8.02469 -0.148058 0)
(8.03071 -0.15953 0)
(8.03821 -0.176768 4.49154e-24)
(8.03487 -0.170493 4.53553e-23)
(8.04191 -0.180777 -8.12305e-25)
(8.04612 -0.184724 -2.66204e-22)
(8.04953 -0.190323 -7.02285e-24)
(8.05186 -0.196911 -2.37307e-24)
(8.06083 -0.200719 3.18941e-24)
(8.06815 -0.209526 2.03911e-23)
(8.07125 -0.0823943 -4.6736e-24)
(8.0693 -0.0852467 1.26857e-23)
(8.03758 -0.0472101 2.46129e-23)
(8.02058 -0.084985 3.52905e-20)
(8.06477 -0.0825559 -1.74427e-21)
(8.22934 0.0819536 1.06833e-23)
(8.22241 0.0905261 -1.12551e-21)
(8.1737 0.0581174 -4.36409e-23)
(8.19794 0.123216 0)
(8.21532 -0.266264 -3.91398e-23)
(8.22062 -0.27141 9.67433e-24)
(8.28334 -0.273063 2.58855e-23)
(8.30212 -0.27329 -2.25153e-24)
(8.25218 -0.27633 1.7628e-24)
(8.24456 -0.275769 1.45678e-23)
(8.26039 -0.277804 6.45064e-25)
(8.27051 -0.279625 0)
(8.228 -0.2744 2.06541e-24)
(8.23581 -0.275777 1.14781e-24)
(8.33328 -0.269723 -9.2367e-25)
(8.32395 -0.275233 -8.68159e-25)
(8.34146 -0.267439 -6.18239e-24)
(8.35305 -0.26494 -3.30803e-22)
(8.20766 -0.267875 4.85806e-24)
(8.19984 -0.268387 -2.19709e-24)
(8.19201 -0.269053 5.85945e-23)
(8.17835 -0.258564 1.39629e-24)
(8.17088 -0.25824 -5.14116e-23)
(8.18151 -0.264368 -1.84778e-24)
(8.36143 -0.263882 -3.48406e-24)
(8.36898 -0.265583 7.03706e-23)
(8.14774 -0.253376 -2.85336e-25)
(8.16508 -0.259195 6.99209e-23)
(8.15761 -0.262698 4.8861e-24)
(8.12553 -0.245139 1.87907e-24)
(8.14176 -0.252939 0)
(8.13489 -0.253492 -3.27677e-25)
(8.0771 -0.218086 5.33931e-24)
(8.08769 -0.225924 0)
(8.09706 -0.233807 -7.22947e-23)
(8.11261 -0.239688 -5.32993e-23)
(8.10578 -0.24214 -1.69481e-24)
(8.11558 -0.244692 4.19918e-24)
(8.06343 -0.0866664 8.39478e-22)
(8.02516 -0.115077 -1.25379e-22)
(8.02289 -0.122774 -6.65808e-24)
(8.02204 -0.129925 -3.84152e-23)
(8.01971 -0.137334 -4.85983e-25)
(8.04578 -0.100857 -9.28054e-23)
(8.04838 -0.0950913 1.17058e-22)
(8.03745 -0.104192 -5.81544e-23)
(8.0178 -0.144988 0)
(8.0175 -0.152541 -8.68089e-25)
(8.0306 -0.165662 4.98362e-24)
(8.02453 -0.161375 -7.06111e-25)
(8.03634 -0.181725 -2.74654e-24)
(8.02822 -0.172723 3.87368e-24)
(8.04263 -0.191188 -5.14142e-25)
(8.05501 -0.201659 3.91381e-24)
(8.04893 -0.202147 -2.30592e-23)
(8.05887 -0.206064 1.68046e-22)
(8.06251 -0.211122 3.41524e-24)
(8.06683 -0.216038 2.48161e-24)
(8.03711 -0.0654173 -2.88539e-23)
(8.04829 -0.0552242 -1.73868e-20)
(8.04291 -0.0865016 -3.892e-23)
(8.06686 -0.0777285 6.84611e-24)
(8.063 -0.0776893 2.12488e-23)
(8.23075 0.0915811 -5.93879e-24)
(8.21953 0.101176 1.47573e-22)
(8.21439 0.0991965 4.43964e-25)
(8.23004 0.0944548 1.67174e-22)
(8.18059 0.0544505 -1.53902e-20)
(8.15296 0.140239 1.29302e-22)
(8.22004 -0.278797 -7.65615e-23)
(8.27934 -0.281017 -3.44713e-24)
(8.28831 -0.281489 8.34657e-23)
(8.29819 -0.280969 -5.71251e-24)
(8.30859 -0.280568 -2.08598e-22)
(8.25483 -0.284621 -1.85107e-23)
(8.23891 -0.283062 -4.0737e-24)
(8.27308 -0.28839 -4.16925e-25)
(8.33907 -0.278078 7.48332e-25)
(8.31768 -0.28221 -3.06666e-24)
(8.32579 -0.285989 7.86643e-25)
(8.35698 -0.274081 -6.79363e-24)
(8.20271 -0.275167 4.2178e-24)
(8.18489 -0.269919 -2.08412e-24)
(8.18722 -0.2757 -2.65123e-24)
(8.16801 -0.265045 4.28591e-24)
(8.17758 -0.270912 -1.76367e-25)
(8.37548 -0.268681 1.57368e-24)
(8.36822 -0.275854 1.6579e-24)
(8.14287 -0.258835 2.72846e-25)
(8.15872 -0.269572 4.52159e-24)
(8.15233 -0.26748 -2.38438e-22)
(8.11977 -0.247742 -2.81299e-23)
(8.12545 -0.250686 3.06684e-22)
(8.12946 -0.255545 1.58092e-23)
(8.13196 -0.259785 8.78813e-23)
(8.07132 -0.220911 3.30397e-24)
(8.07646 -0.225427 -1.97624e-22)
(8.08226 -0.227958 2.92526e-24)
(8.08723 -0.231299 -2.7503e-24)
(8.09097 -0.235595 -5.32296e-24)
(8.09553 -0.240005 -2.66974e-24)
(8.09977 -0.244669 0)
(8.10376 -0.248823 6.15827e-25)
(8.1144 -0.249761 1.66289e-23)
(8.05285 -0.0881384 -1.31726e-22)
(8.05724 -0.0814504 2.02935e-21)
(8.02779 -0.108579 -1.14893e-24)
(8.01729 -0.112015 -5.84232e-22)
(8.0136 -0.125939 1.37575e-22)
(8.01146 -0.140963 0)
(8.04359 -0.0901796 -3.75374e-24)
(8.02952 -0.102168 1.55596e-23)
(8.01985 -0.158246 -5.35331e-23)
(8.01247 -0.155599 -1.00622e-23)
(8.01926 -0.164737 -5.60623e-25)
(8.03067 -0.182368 -1.13787e-23)
(8.03412 -0.186647 -5.29407e-24)
(8.02657 -0.17879 -4.37337e-24)
(8.02243 -0.174507 9.21354e-25)
(8.03614 -0.191623 -2.87182e-24)
(8.03933 -0.197289 1.3187e-25)
(8.04257 -0.202745 3.24195e-23)
(8.0456 -0.207998 5.10951e-24)
(8.05586 -0.212204 9.22313e-25)
(8.06447 -0.223004 0)
(8.05811 -0.0649612 3.32533e-23)
(8.03966 -0.0584018 2.71624e-23)
(7.99879 -0.0830728 3.51827e-20)
(8.05784 -0.0694695 -6.48878e-24)
(8.05631 -0.0748778 7.48191e-22)
(8.19491 0.0878644 -1.10109e-23)
(8.22087 0.103016 -5.64732e-21)
(8.22561 0.101742 1.97968e-24)
(8.21883 0.112598 4.56355e-24)
(8.22067 0.101668 2.27412e-22)
(8.20942 0.108038 -2.57098e-21)
(8.22984 0.107297 1.63823e-23)
(8.15166 0.0661181 3.15346e-24)
(8.18089 0.0858598 1.26102e-22)
(8.21893 0.142308 -7.68416e-20)
(8.21232 -0.283967 5.03826e-24)
(8.22068 -0.287685 2.90353e-23)
(8.29267 -0.289929 -2.80285e-24)
(8.31064 -0.291291 -1.74871e-22)
(8.25857 -0.293865 3.91726e-23)
(8.24949 -0.292093 -4.72973e-24)
(8.2424 -0.29033 -1.43218e-22)
(8.23348 -0.289243 1.38935e-22)
(8.2661 -0.293742 1.51771e-23)
(8.27393 -0.294527 1.37794e-24)
(8.33472 -0.287936 1.3205e-23)
(8.34305 -0.287008 4.62837e-25)
(8.32753 -0.295579 7.57395e-25)
(8.36035 -0.281791 0)
(8.35289 -0.284704 -3.39976e-25)
(8.20545 -0.281974 2.24907e-22)
(8.19719 -0.281092 3.35255e-24)
(8.19059 -0.280213 -2.12217e-24)
(8.1832 -0.281123 1.40352e-22)
(8.17051 -0.27175 -1.75001e-25)
(8.16429 -0.271767 0)
(8.17339 -0.277612 -2.63523e-23)
(8.38245 -0.273705 -7.36427e-25)
(8.36625 -0.285599 7.59386e-25)
(8.13565 -0.262088 -1.34459e-23)
(8.14196 -0.264525 2.95576e-25)
(8.1593 -0.276414 -1.2263e-24)
(8.14676 -0.269272 4.51819e-24)
(8.14863 -0.275914 3.42064e-24)
(8.12256 -0.257757 2.27406e-24)
(8.12967 -0.265002 -8.85308e-25)
(8.07636 -0.231 1.39837e-23)
(8.08475 -0.23761 -1.98382e-22)
(8.09288 -0.246897 0)
(8.1089 -0.251593 1.52422e-23)
(8.10258 -0.254147 4.79278e-24)
(8.11295 -0.255085 7.21365e-23)
(8.01092 -0.107339 -2.51662e-23)
(8.00731 -0.11342 -1.84991e-23)
(8.00767 -0.123793 -7.32291e-24)
(8.00733 -0.130571 1.09445e-24)
(8.00594 -0.136977 8.86504e-24)
(8.00467 -0.144086 0)
(8.04022 -0.0850795 -2.38877e-22)
(8.03342 -0.0915717 -3.30964e-22)
(8.01737 -0.100643 -1.18788e-23)
(8.02609 -0.0962236 3.99623e-22)
(8.00664 -0.156302 -3.93811e-22)
(8.00846 -0.162311 -7.75982e-24)
(8.01775 -0.170646 9.26119e-25)
(8.01282 -0.166574 0)
(8.02482 -0.184168 9.30942e-23)
(8.03007 -0.192242 -1.71982e-22)
(8.01556 -0.176908 -1.56305e-23)
(8.03553 -0.203109 4.76637e-24)
(8.04912 -0.212907 0)
(8.04214 -0.213621 0)
(8.05328 -0.218359 0)
(8.0572 -0.223421 0)
(8.06154 -0.228863 2.98246e-24)
(8.03056 -0.0684999 -6.20974e-23)
(8.05235 -0.0591122 1.19784e-25)
(8.01649 -0.0724299 -6.92564e-23)
(8.05585 -0.0675598 -1.12965e-22)
(8.05714 -0.0645182 -1.26813e-21)
(8.05374 -0.0700803 -2.57855e-22)
(8.04882 -0.0758904 -7.04961e-22)
(8.22518 0.1071 1.08538e-20)
(8.21278 0.120009 1.13214e-24)
(8.21827 0.122578 8.08181e-23)
(8.20617 0.120982 3.76027e-24)
(8.1995 0.119121 5.49579e-24)
(8.23533 0.109498 -2.13784e-22)
(8.24414 0.11091 6.24788e-24)
(8.2289 0.117714 1.59323e-23)
(8.25492 0.111207 -3.38733e-22)
(8.26496 0.112777 -7.7874e-24)
(8.17211 0.0703013 -1.98756e-23)
(8.15847 0.149996 -2.28118e-22)
(8.2071 -0.290366 3.18768e-24)
(8.22716 -0.290525 -3.76073e-24)
(8.22039 -0.294316 -1.3808e-24)
(8.29656 -0.296786 9.06825e-25)
(8.28679 -0.296804 0)
(8.30341 -0.299238 3.95817e-24)
(8.3114 -0.300934 -2.07218e-23)
(8.26188 -0.300355 -7.67638e-24)
(8.2442 -0.299073 -1.95789e-24)
(8.23112 -0.297138 -2.53845e-24)
(8.28039 -0.299367 1.62939e-24)
(8.27338 -0.303542 2.29378e-22)
(8.34756 -0.295215 -1.24663e-23)
(8.3193 -0.301779 3.35763e-24)
(8.32757 -0.303436 -4.81119e-24)
(8.19362 -0.287152 2.23354e-24)
(8.17738 -0.283557 5.79094e-25)
(8.18202 -0.288674 -2.73946e-24)
(8.16991 -0.284991 1.14164e-22)
(8.38908 -0.277146 6.88028e-23)
(8.38181 -0.28261 -1.49268e-22)
(8.37513 -0.287535 2.40605e-24)
(8.36739 -0.293494 -2.43861e-22)
(8.13923 -0.272969 -1.1963e-24)
(8.15257 -0.279593 -1.19355e-24)
(8.15864 -0.28269 -1.46105e-23)
(8.14657 -0.281777 0)
(8.11602 -0.259309 -4.91346e-24)
(8.11931 -0.26343 6.13717e-24)
(8.1228 -0.267435 -8.6319e-25)
(8.12759 -0.271326 0)
(8.0778 -0.237313 4.35377e-23)
(8.07155 -0.235649 -1.25887e-24)
(8.08125 -0.242349 -3.7952e-24)
(8.08495 -0.247457 0)
(8.08907 -0.252873 -1.61646e-24)
(8.10271 -0.261373 3.61648e-24)
(8.09747 -0.259145 2.02182e-23)
(8.10985 -0.261149 3.82573e-25)
(8.00699 -0.101862 1.383e-23)
(8.00536 -0.118575 -6.17256e-24)
(7.99964 -0.113558 3.81954e-22)
(8.00141 -0.123547 0)
(8.00116 -0.133103 2.19969e-22)
(8.00292 -0.150367 -5.88746e-24)
(7.99764 -0.145031 0)
(8.04196 -0.0784697 -4.35328e-24)
(8.03208 -0.0798468 -5.79418e-25)
(8.02293 -0.0896212 -5.23355e-24)
(7.99745 -0.15711 -9.42776e-23)