/*--------------------------------*- C++ -*----------------------------------*\
| =========                 |                                                 |
| \\      /  F ield         | OpenFOAM: The Open Source CFD Toolbox           |
|  \\    /   O peration     | Version:  v2012                                 |
|   \\  /    A nd           | Website:  www.openfoam.com                      |
|    \\/     M anipulation  |                                                 |
\*---------------------------------------------------------------------------*/
FoamFile
{
    version     2.0;
    format      ascii;
    class       volVectorField;
    location    "0.08";
    object      cellDisplacement;
}
// * * * * * * * * * * * * * * * * * * * * * * * * * * * * * * * * * * * * * //

dimensions      [0 1 0 0 0 0 0];


internalField   nonuniform List<vector> 
11961
(
(7.6491e-08 4.3326e-07 0)
(2.10682e-07 1.18591e-06 0)
(1.42291e-07 8.13831e-07 0)
(1.60795e-07 8.92417e-07 0)
(3.71158e-07 2.10055e-06 0)
(6.32941e-08 3.64384e-07 0)
(2.7929e-07 1.59678e-06 0)
(4.31861e-07 2.38917e-06 0)
(5.79261e-07 3.2718e-06 0)
(1.0085e-07 5.85129e-07 0)
(3.54082e-07 2.03541e-06 0)
(6.93647e-07 3.88127e-06 0)
(5.0779e-07 2.78242e-06 0)
(6.76465e-07 3.85962e-06 0)
(1.9969e-07 1.16003e-06 0)
(3.70717e-08 2.16143e-07 0)
(3.04213e-07 1.76125e-06 0)
(5.311e-07 3.05115e-06 0)
(1.04536e-06 5.84546e-06 0)
(1.0055e-06 5.50432e-06 0)
(2.32708e-07 1.26064e-06 0)
(9.35588e-07 5.34378e-06 0)
(1.83086e-07 1.07154e-06 0)
(5.7629e-08 3.38045e-07 0)
(4.11532e-07 2.39496e-06 0)
(5.56177e-07 3.22604e-06 0)
(1.25998e-06 6.96852e-06 0)
(1.18078e-06 6.68297e-06 0)
(1.17592e-06 6.35223e-06 0)
(6.58583e-07 3.53374e-06 0)
(9.54927e-07 5.52039e-06 0)
(2.46893e-07 1.44997e-06 0)
(1.14024e-07 6.69439e-07 0)
(2.07484e-08 1.222e-07 0)
(3.55251e-07 2.08232e-06 0)
(7.09712e-07 4.13095e-06 0)
(1.82788e-06 1.01042e-05 0)
(1.60945e-06 9.12573e-06 0)
(1.76821e-06 9.51473e-06 0)
(6.37993e-07 3.37393e-06 0)
(1.22555e-06 7.10927e-06 0)
(2.13599e-07 1.26255e-06 0)
(1.10883e-07 6.54652e-07 0)
(3.59364e-08 2.12501e-07 0)
(4.03415e-07 2.38022e-06 0)
(6.85422e-07 4.03521e-06 0)
(2.16902e-06 1.18268e-05 0)
(2.01393e-06 1.12945e-05 0)
(1.61192e-06 9.27223e-06 0)
(1.98658e-06 1.05149e-05 0)
(1.40214e-06 7.33496e-06 0)
(2.16392e-07 1.13975e-06 0)
(1.17216e-06 6.88686e-06 0)
(1.49298e-07 8.84137e-07 0)
(2.52055e-07 1.49666e-06 0)
(7.32896e-08 4.33631e-07 0)
(2.54233e-08 1.50684e-07 0)
(5.18156e-07 3.06429e-06 0)
(3.24471e-07 1.92514e-06 0)
(8.59047e-07 5.08309e-06 0)
(3.04444e-06 1.65712e-05 0)
(2.69425e-06 1.51511e-05 0)
(2.0749e-06 1.2004e-05 0)
(2.76259e-06 1.45653e-05 0)
(1.63866e-06 8.41257e-06 0)
(3.04435e-07 1.54697e-06 0)
(1.43148e-06 8.4569e-06 0)
(1.34213e-07 7.99328e-07 0)
(2.21004e-07 1.32052e-06 0)
(6.70256e-08 3.9856e-07 0)
(8.54947e-09 5.07214e-08 0)
(4.19838e-08 2.49633e-07 0)
(4.5536e-07 2.72342e-06 0)
(3.47541e-07 2.07722e-06 0)
(8.34328e-07 4.99092e-06 0)
(3.40385e-06 1.8194e-05 0)
(3.37238e-06 1.86902e-05 0)
(2.69671e-06 1.54611e-05 0)
(1.88156e-06 1.10515e-05 0)
(3.11041e-06 1.61078e-05 0)
(2.574e-06 1.31276e-05 0)
(9.38047e-07 4.74188e-06 0)
(1.31719e-06 7.89038e-06 0)
(8.6809e-08 5.17686e-07 0)
(1.6366e-07 9.78935e-07 0)
(2.74903e-07 1.64991e-06 0)
(1.25379e-08 7.45944e-08 0)
(2.80085e-08 1.66776e-07 0)
(4.9896e-07 3.00919e-06 0)
(1.03479e-06 6.2294e-06 0)
(6.55513e-07 3.95291e-06 0)
(4.39343e-06 2.33097e-05 0)
(4.5634e-06 2.53791e-05 0)
(3.33385e-06 1.92292e-05 0)
(2.12859e-06 1.26593e-05 0)
(4.13649e-06 2.14183e-05 0)
(3.10011e-06 1.54596e-05 0)
(1.15975e-06 5.74852e-06 0)
(1.61384e-06 9.72408e-06 0)
(7.44098e-08 4.45936e-07 0)
(1.43348e-07 8.62669e-07 0)
(2.48466e-07 1.50315e-06 0)
(3.18332e-09 1.89516e-08 0)
(2.4801e-08 1.48055e-07 0)
(3.91387e-07 2.38984e-06 0)
(9.31059e-07 5.68121e-06 0)
(6.97621e-07 4.25601e-06 0)
(5.31221e-06 2.83873e-05 0)
(4.38257e-06 2.49557e-05 0)
(5.58835e-06 3.05649e-05 0)
(3.31003e-06 1.94329e-05 0)
(2.65568e-06 1.58151e-05 0)
(4.98103e-06 2.53438e-05 0)
(2.30536e-06 1.13431e-05 0)
(4.4028e-06 2.18568e-05 0)
(4.81307e-07 2.34661e-06 0)
(1.59375e-06 9.72293e-06 0)
(9.64935e-08 5.81052e-07 0)
(4.665e-08 2.79767e-07 0)
(1.71584e-07 1.03873e-06 0)
(2.85037e-07 1.73975e-06 0)
(2.65807e-09 1.58507e-08 0)
(3.17431e-08 1.901e-07 0)
(1.02471e-08 6.11591e-08 0)
(4.28161e-07 2.64816e-06 0)
(1.01533e-06 6.27967e-06 0)
(5.80771e-07 3.58624e-06 0)
(6.53479e-06 3.42556e-05 0)
(5.11042e-06 2.95221e-05 0)
(7.30987e-06 4.00053e-05 0)
(4.12502e-06 2.43037e-05 0)
(2.75807e-06 1.67488e-05 0)
(6.33779e-06 3.23527e-05 0)
(2.41446e-06 1.15452e-05 0)
(5.28103e-06 2.5664e-05 0)
(1.14865e-06 5.4789e-06 0)
(1.26389e-06 7.81166e-06 0)
(1.81183e-06 1.11561e-05 0)
(7.62521e-08 4.62012e-07 0)
(2.86427e-08 1.72823e-07 0)
(1.42095e-07 8.66612e-07 0)
(2.22059e-07 1.36951e-06 0)
(1.51662e-08 9.09409e-08 0)
(5.57065e-09 3.33336e-08 0)
(3.45338e-07 2.17059e-06 0)
(7.89512e-07 4.95527e-06 0)
(6.06205e-07 3.79649e-06 0)
(7.83931e-06 4.14963e-05 0)
(6.22762e-06 3.60295e-05 0)
(8.35167e-06 4.64999e-05 0)
(4.30297e-06 2.58402e-05 0)
(3.48049e-06 2.12374e-05 0)
(2.20132e-06 1.35654e-05 0)
(7.85043e-06 3.91422e-05 0)
(3.47456e-06 1.6356e-05 0)
(7.0981e-06 3.44852e-05 0)
(4.77936e-06 2.2686e-05 0)
(6.90234e-07 3.19943e-06 0)
(1.39998e-06 8.74829e-06 0)
(3.67665e-08 2.22712e-07 0)
(9.21437e-08 5.61791e-07 0)
(9.24723e-09 5.57156e-08 0)
(1.56599e-07 9.63445e-07 0)
(2.11273e-07 1.32309e-06 0)
(2.53717e-07 1.60245e-06 0)
(3.77448e-07 2.41976e-06 0)
(7.37233e-07 4.72909e-06 0)
(4.89962e-07 3.12814e-06 0)
(9.91225e-06 5.16e-05 0)
(7.59609e-06 4.34169e-05 0)
(6.26036e-06 3.7177e-05 0)
(1.11712e-05 6.13808e-05 0)
(5.29843e-06 3.19783e-05 0)
(3.58072e-06 2.23593e-05 0)
(2.24773e-06 1.41515e-05 0)
(9.85921e-06 4.94465e-05 0)
(3.19581e-06 1.45415e-05 0)
(7.98682e-06 3.76507e-05 0)
(6.17774e-06 2.87389e-05 0)
(1.6264e-06 7.36968e-06 0)
(1.36618e-06 8.68105e-06 0)
(1.67637e-08 1.02185e-07 0)
(6.82966e-08 4.197e-07 0)
(1.1987e-07 7.43331e-07 0)
(1.44151e-07 9.11044e-07 0)
(2.03791e-07 1.32021e-06 0)
(2.84467e-07 1.87429e-06 0)
(5.29581e-07 3.44009e-06 0)
(8.26434e-07 5.3714e-06 0)
(1.1776e-05 6.22308e-05 0)
(9.16611e-06 5.38023e-05 0)
(7.70454e-06 4.61839e-05 0)
(1.31005e-05 7.37356e-05 0)
(5.67244e-06 3.51145e-05 0)
(2.79732e-06 1.77221e-05 0)
(4.55141e-06 2.86739e-05 0)
(1.73761e-06 1.11078e-05 0)
(1.25181e-05 6.10847e-05 0)
(4.53117e-06 2.024e-05 0)
(9.73138e-06 4.52615e-05 0)
(6.10473e-06 2.76774e-05 0)
(9.66951e-07 4.22462e-06 0)
(1.06532e-06 6.89137e-06 0)
(3.25604e-08 1.9997e-07 0)
(7.99204e-08 4.95319e-07 0)
(1.14042e-07 7.15873e-07 0)
(1.23803e-07 7.98455e-07 0)
(1.44784e-07 9.46147e-07 0)
(2.12328e-07 1.40404e-06 0)
(2.68201e-07 1.82936e-06 0)
(4.45688e-07 2.98653e-06 0)
(6.41664e-07 4.30465e-06 0)
(1.48561e-05 7.6986e-05 0)
(1.15429e-05 6.77152e-05 0)
(7.37377e-06 4.56845e-05 0)
(1.66679e-05 9.25661e-05 0)
(2.6699e-06 1.73845e-05 0)
(4.35546e-06 2.8294e-05 0)
(1.65857e-06 1.08813e-05 0)
(1.20297e-05 5.65086e-05 0)
(1.52746e-05 7.56249e-05 0)
(4.74407e-06 2.05626e-05 0)
(9.60896e-06 4.29236e-05 0)
(7.70645e-06 3.4167e-05 0)
(1.83752e-06 7.80834e-06 0)
(1.03232e-06 6.88645e-06 0)
(1.48845e-08 9.244e-08 0)
(5.98389e-08 3.7505e-07 0)
(7.67217e-08 4.85431e-07 0)
(8.28315e-08 5.40331e-07 0)
(1.16104e-07 7.84535e-07 0)
(1.61576e-07 1.11097e-06 0)
(1.89904e-07 1.35554e-06 0)
(3.22985e-07 2.21838e-06 0)
(4.85468e-07 3.31235e-06 0)
(6.31932e-07 4.372e-06 0)
(1.74951e-05 9.27094e-05 0)
(1.34133e-05 8.14629e-05 0)
(8.31541e-06 5.27103e-05 0)
(1.94881e-05 0.000111564 0)
(3.18021e-06 2.09589e-05 0)
(1.99905e-06 1.32397e-05 0)
(5.09489e-06 3.37135e-05 0)
(1.25125e-06 8.38021e-06 0)
(1.43153e-05 6.47205e-05 0)
(1.86615e-05 9.03968e-05 0)
(3.51278e-06 1.49263e-05 0)
(6.94161e-06 2.98119e-05 0)
(1.18497e-05 5.19659e-05 0)
(8.18281e-07 3.36177e-06 0)
(7.65284e-07 5.27856e-06 0)
(2.96136e-08 1.86023e-07 0)
(6.40312e-08 4.12092e-07 0)
(7.08254e-08 4.75167e-07 0)
(8.42988e-08 5.76338e-07 0)
(1.20916e-07 8.40385e-07 0)
(1.51913e-07 1.08754e-06 0)
(1.65841e-07 1.25977e-06 0)
(2.63743e-07 1.91945e-06 0)
(4.10637e-07 2.93997e-06 0)
(4.67887e-07 3.38909e-06 0)
(2.1468e-05 0.000111476 0)
(1.7537e-05 0.000105859 0)
(1.10855e-05 7.00637e-05 0)
(6.70515e-06 4.40156e-05 0)
(2.43378e-05 0.000136506 0)
(2.79404e-06 1.90472e-05 0)
(1.77659e-06 1.22153e-05 0)
(4.13338e-06 2.8369e-05 0)
(1.1355e-06 7.89249e-06 0)
(1.78716e-05 8.00886e-05 0)
(2.01141e-05 9.31603e-05 0)
(2.1578e-05 0.000107234 0)
(4.04169e-06 1.65432e-05 0)
(7.76556e-06 3.2289e-05 0)
(1.25927e-05 5.30507e-05 0)
(2.16469e-06 8.7073e-06 0)
(7.20335e-07 5.17235e-06 0)
(1.42064e-08 9.14518e-08 0)
(3.17227e-08 2.07214e-07 0)
(4.65975e-08 3.20115e-07 0)
(6.62294e-08 4.75973e-07 0)
(9.29864e-08 6.8617e-07 0)
(1.147e-07 8.76235e-07 0)
(1.91156e-07 1.45757e-06 0)
(1.13121e-07 9.51082e-07 0)
(2.62389e-07 1.98556e-06 0)
(3.1151e-07 2.33978e-06 0)
(4.07091e-07 3.14677e-06 0)
(2.51044e-05 0.000133512 0)
(2.04294e-05 0.000127857 0)
(1.16369e-05 7.72077e-05 0)
(7.17483e-06 4.86618e-05 0)
(2.83531e-05 0.000163683 0)
(2.03615e-06 1.4199e-05 0)
(3.12103e-06 2.16576e-05 0)
(1.30889e-06 9.22331e-06 0)
(4.45095e-06 3.14781e-05 0)
(8.64447e-07 6.18901e-06 0)
(1.91359e-05 8.09472e-05 0)
(2.52158e-05 0.000115686 0)
(2.59283e-05 0.000125263 0)
(5.80741e-06 2.35339e-05 0)
(1.01466e-05 4.17361e-05 0)
(1.57308e-05 6.49653e-05 0)
(2.2136e-06 8.6052e-06 0)
(5.60593e-07 4.2533e-06 0)
(2.73163e-08 1.83875e-07 0)
(4.57796e-08 3.29663e-07 0)
(6.8203e-08 5.12538e-07 0)
(9.02765e-08 7.02179e-07 0)
(9.69713e-08 8.11121e-07 0)
(1.59169e-07 1.33343e-06 0)
(9.66599e-08 9.12473e-07 0)
(1.84801e-07 1.54497e-06 0)
(2.66905e-07 2.19466e-06 0)
(2.97764e-07 2.47904e-06 0)
(4.39922e-07 3.4751e-06 0)
(3.0439e-05 0.000157358 0)
(1.80619e-05 0.000118649 0)
(2.64986e-05 0.000162188 0)
(1.41175e-05 9.4882e-05 0)
(8.90573e-06 6.07224e-05 0)
(5.66764e-06 3.98216e-05 0)
(3.49208e-05 0.000195491 0)
(1.74097e-06 1.27393e-05 0)
(2.58689e-06 1.87132e-05 0)
(1.09291e-06 8.10231e-06 0)
(3.47318e-06 2.56083e-05 0)
(7.43699e-07 5.65208e-06 0)
(2.31999e-05 9.57634e-05 0)
(2.92291e-05 0.000128929 0)
(3.04293e-05 0.000148927 0)
(6.38119e-06 2.49065e-05 0)
(1.07194e-05 4.23043e-05 0)
(1.62109e-05 6.35938e-05 0)
(7.56647e-07 2.91412e-06 0)
(4.34146e-06 1.65468e-05 0)
(5.64888e-07 4.48638e-06 0)
(1.04088e-08 7.24159e-08 0)
(3.2512e-08 2.506e-07 0)
(5.22123e-08 4.28187e-07 0)
(6.81688e-08 5.95868e-07 0)
(6.93438e-08 6.56429e-07 0)
(1.17311e-07 1.08467e-06 0)
(6.8303e-08 7.85327e-07 0)
(1.64095e-07 1.51706e-06 0)
(1.94088e-07 1.76754e-06 0)
(2.43805e-07 2.3102e-06 0)
(3.4354e-07 3.0802e-06 0)
(3.55418e-05 0.000187611 0)
(2.04488e-05 0.0001399 0)
(3.10054e-05 0.000195344 0)
(1.37254e-05 9.74971e-05 0)
(8.19242e-06 5.86136e-05 0)
(6.07635e-06 4.41227e-05 0)
(4.11068e-05 0.000236961 0)
(1.94906e-06 1.4469e-05 0)
(1.26426e-06 9.74103e-06 0)
(2.69715e-06 2.00478e-05 0)
(1.06688e-06 8.23973e-06 0)
(8.02747e-07 6.20351e-06 0)
(3.34871e-06 2.58398e-05 0)
(2.78736e-05 0.000117083 0)
(2.37864e-05 9.24444e-05 0)
(3.54032e-05 0.000158362 0)
(3.53488e-05 0.000167287 0)
(8.55045e-06 3.29577e-05 0)
(1.31949e-05 5.09841e-05 0)
(1.9893e-05 7.56379e-05 0)
(8.47619e-07 3.04494e-06 0)
(4.74808e-06 1.73898e-05 0)
(4.65539e-07 4.01812e-06 0)
(1.6963e-08 1.28524e-07 0)
(3.52251e-08 2.96647e-07 0)
(5.13591e-08 4.64821e-07 0)
(5.08291e-08 6.01871e-07 0)
(9.23425e-08 1.01674e-06 0)
(4.86487e-08 6.60262e-07 0)
(6.37377e-08 8.38685e-07 0)
(1.16983e-07 1.27085e-06 0)
(1.60089e-07 1.70395e-06 0)
(1.75291e-07 1.90348e-06 0)
(2.54733e-07 2.53609e-06 0)
(3.52442e-07 3.27936e-06 0)
(4.25844e-05 0.000216371 0)
(2.48789e-05 0.000171016 0)
(1.68111e-05 0.000120475 0)
(3.84916e-05 0.000235563 0)
(2.95599e-05 0.000196434 0)
(1.11065e-05 8.16795e-05 0)
(8.8584e-06 6.51121e-05 0)
(5.18314e-06 3.93839e-05 0)
(5.06449e-05 0.000281088 0)
(1.60943e-06 1.2764e-05 0)
(1.06387e-06 8.92146e-06 0)
(2.19934e-06 1.71875e-05 0)
(8.04026e-07 6.7371e-06 0)
(6.8957e-07 5.74415e-06 0)
(3.92545e-06 3.05914e-05 0)
(2.48425e-06 2.02346e-05 0)
(3.24736e-05 0.000129359 0)
(2.84938e-05 0.000108263 0)
(4.20876e-05 0.000182874 0)
(4.15487e-05 0.000199781 0)
(9.43561e-06 3.49119e-05 0)
(1.24774e-05 4.59305e-05 0)
(1.95769e-05 7.02466e-05 0)
(2.3732e-06 8.45789e-06 0)
(7.23676e-06 2.61205e-05 0)
(4.28977e-07 3.97719e-06 0)
(7.37143e-09 6.19204e-08 0)
(2.65608e-08 2.54998e-07 0)
(3.74373e-08 3.97602e-07 0)
(3.12949e-08 4.75872e-07 0)
(9.0402e-08 1.07385e-06 0)
(2.59677e-08 6.41085e-07 0)
(4.42766e-08 8.14605e-07 0)
(9.55311e-08 1.27037e-06 0)
(1.08456e-07 1.42663e-06 0)
(1.27217e-07 1.82713e-06 0)
(1.91002e-07 2.36502e-06 0)
(2.87023e-07 3.155e-06 0)
(5.04137e-05 0.000260701 0)
(2.36141e-05 0.000173943 0)
(1.79789e-05 0.00013473 0)
(4.43252e-05 0.00028316 0)
(3.71221e-05 0.000251774 0)
(1.04003e-05 8.16182e-05 0)
(7.19687e-06 5.59586e-05 0)
(5.59567e-06 4.41478e-05 0)
(6.01144e-05 0.000344841 0)
(1.20641e-06 1.0164e-05 0)
(1.71837e-06 1.38829e-05 0)
(7.96931e-07 7.39831e-06 0)
(2.09992e-06 1.71311e-05 0)
(6.49255e-07 6.05731e-06 0)
(5.28301e-07 4.87719e-06 0)
(3.30736e-06 2.76871e-05 0)
(2.20575e-06 1.93087e-05 0)
(3.87922e-05 0.000152463 0)
(3.23495e-05 0.000116704 0)
(4.4248e-05 0.000180534 0)
(4.74114e-05 0.000216868 0)
(1.46894e-05 5.23763e-05 0)
(2.29271e-05 7.87581e-05 0)
(2.73179e-06 9.41213e-06 0)
(7.60127e-06 2.62859e-05 0)
(3.26827e-07 3.4762e-06 0)
(4.46155e-07 4.26517e-06 0)
(9.59659e-09 9.95376e-08 0)
(2.75232e-08 3.01875e-07 0)
(1.61208e-08 1.74718e-07 0)
(2.91546e-08 3.99118e-07 0)
(1.48452e-08 4.67487e-07 0)
(5.8682e-08 1.01154e-06 0)
(1.04325e-08 5.50216e-07 0)
(2.31503e-08 7.16216e-07 0)
(3.88927e-08 8.90788e-07 0)
(5.74845e-08 1.10248e-06 0)
(8.02e-08 1.42974e-06 0)
(1.29589e-07 1.99335e-06 0)
(8.29852e-08 1.57888e-06 0)
(1.68083e-07 2.47228e-06 0)
(2.02151e-07 2.78571e-06 0)
(5.82659e-05 0.000285859 0)
(2.742e-05 0.000207846 0)
(1.55424e-05 0.000122416 0)
(5.49265e-05 0.000345607 0)
(3.6523e-05 0.000264811 0)
(1.18164e-05 9.49637e-05 0)
(7.66109e-06 6.19383e-05 0)
(4.50537e-06 3.79628e-05 0)
(7.15999e-05 0.000392953 0)
(9.9412e-07 9.32939e-06 0)
(1.4621e-06 1.2809e-05 0)
(6.44717e-07 6.32807e-06 0)
(6.71372e-07 7.14188e-06 0)
(1.64508e-06 1.44356e-05 0)
(4.81543e-07 4.96979e-06 0)
(2.48582e-06 2.19757e-05 0)
(3.49451e-06 3.01852e-05 0)
(1.65591e-06 1.58137e-05 0)
(3.97922e-05 0.000144446 0)
(2.92817e-05 0.00010041 0)
(5.379e-05 0.000212596 0)
(5.48673e-05 0.000251546 0)
(1.34609e-05 4.59005e-05 0)
(2.03875e-05 6.66226e-05 0)
(5.03217e-06 1.71292e-05 0)
(1.005e-06 3.38728e-06 0)
(9.94133e-06 3.35763e-05 0)
(3.33929e-07 3.80936e-06 0)
(3.00415e-09 4.11861e-08 0)
(1.80918e-08 2.69111e-07 0)
(1.29243e-08 1.96851e-07 0)
(1.69619e-08 3.20119e-07 0)
(4.58488e-09 3.96311e-07 0)
(-8.45925e-09 5.82725e-07 0)
(5.24419e-09 7.77691e-07 0)
(1.30434e-08 8.85223e-07 0)
(3.47236e-08 1.15655e-06 0)
(4.31622e-08 1.28138e-06 0)
(8.27896e-08 2.02177e-06 0)
(3.95527e-08 1.56708e-06 0)
(9.54099e-08 2.24477e-06 0)
(1.46311e-07 2.95318e-06 0)
(6.78985e-05 0.000331596 0)
(2.43655e-05 0.00019843 0)
(1.6143e-05 0.000134423 0)
(6.16129e-05 0.000408509 0)
(4.24463e-05 0.000318339 0)
(1.0409e-05 8.98261e-05 0)
(6.45514e-06 5.58725e-05 0)
(4.37058e-06 3.88981e-05 0)
(8.42556e-05 0.000474206 0)
(7.34842e-05 0.000374001 0)
(9.95137e-07 9.76432e-06 0)
(7.35519e-07 7.76376e-06 0)
(1.15486e-06 1.09695e-05 0)
(4.60985e-07 5.7622e-06 0)
(4.67543e-07 6.18765e-06 0)
(1.46504e-06 1.39381e-05 0)
(3.59238e-07 4.64157e-06 0)
(2.05677e-06 2.03606e-05 0)
(2.8701e-06 2.69904e-05 0)
(1.40472e-06 1.50983e-05 0)
(4.77419e-05 0.000166722 0)
(3.27582e-05 0.000104355 0)
(6.14917e-05 0.000252115 0)
(5.55226e-05 0.000202749 0)
(6.16616e-05 0.000269373 0)
(1.58584e-05 5.18722e-05 0)
(2.27841e-05 7.07666e-05 0)
(4.74545e-06 1.54924e-05 0)
(2.30018e-06 7.50223e-06 0)
(9.19159e-06 2.97795e-05 0)
(2.64413e-07 3.71455e-06 0)
(3.26258e-09 8.11736e-08 0)
(6.18219e-09 1.61569e-07 0)
(8.27256e-09 3.19152e-07 0)
(-9.72925e-09 4.19952e-07 0)
(-2.24575e-08 6.85587e-07 0)
(-1.73694e-08 5.05196e-07 0)
(-1.79382e-08 7.63521e-07 0)
(-4.3867e-09 9.87031e-07 0)
(3.23729e-09 1.099e-06 0)
(1.9747e-08 1.38597e-06 0)
(3.52156e-08 1.88349e-06 0)
(1.92162e-08 1.67509e-06 0)
(5.03256e-08 2.41218e-06 0)
(6.29539e-08 2.70364e-06 0)
(1.65861e-07 3.27673e-06 0)
(7.15608e-05 0.000321655 0)
(1.90157e-05 0.000160353 0)
(2.76643e-05 0.000237062 0)
(1.23908e-05 0.000109011 0)
(5.28098e-05 0.000381873 0)
(7.63801e-05 0.000493216 0)
(3.51775e-05 0.000293493 0)
(8.16927e-06 7.37918e-05 0)
(4.97455e-06 4.46409e-05 0)
(6.7171e-06 6.09085e-05 0)
(3.31281e-06 3.22424e-05 0)
(9.67235e-05 0.000500395 0)
(8.72151e-05 0.000521964 0)
(8.78104e-05 0.000431382 0)
(7.25985e-07 8.64522e-06 0)
(6.10424e-07 7.74454e-06 0)
(9.7495e-07 1.0745e-05 0)
(3.28911e-07 4.98618e-06 0)
(3.55259e-07 6.3285e-06 0)
(1.08325e-06 1.18603e-05 0)
(2.59949e-07 4.02617e-06 0)
(2.21776e-06 2.23656e-05 0)
(1.53165e-06 1.68346e-05 0)
(2.79799e-06 2.78363e-05 0)
(1.06733e-06 1.31184e-05 0)
(4.79056e-05 0.000153543 0)
(2.78725e-05 8.54195e-05 0)
(3.98453e-05 0.000123206 0)
(7.17508e-05 0.000278142 0)
(6.69235e-05 0.000238804 0)
(1.42409e-05 4.43611e-05 0)
(2.04902e-05 6.08462e-05 0)
(6.43535e-06 2.05769e-05 0)
(1.3002e-06 4.07997e-06 0)
(1.09473e-05 3.42282e-05 0)
(2.38514e-10 3.86035e-08 0)
(1.18775e-09 1.97933e-07 0)
(8.21655e-10 2.68527e-07 0)
(-1.40497e-08 3.68244e-07 0)
(-4.37011e-08 7.04103e-07 0)
(-3.52559e-08 5.82455e-07 0)
(-3.86237e-08 9.04932e-07 0)
(-3.11666e-08 9.83617e-07 0)
(-2.50196e-08 1.27154e-06 0)
(-1.63072e-08 1.4026e-06 0)
(-1.19962e-08 2.04694e-06 0)
(-3.24719e-08 1.75578e-06 0)
(-1.20642e-08 2.28052e-06 0)
(2.54238e-09 2.97392e-06 0)
(8.59313e-08 3.54703e-06 0)
(8.25457e-05 0.000358475 0)
(1.76098e-05 0.000161788 0)
(2.13056e-05 0.000200143 0)
(1.18145e-05 0.00011085 0)
(5.76314e-05 0.000442938 0)
(8.07418e-05 0.000559554 0)
(3.84907e-05 0.000338297 0)
(7.22696e-06 7.10507e-05 0)
(4.1495e-06 4.12591e-05 0)
(5.26674e-06 5.32052e-05 0)
(3.23013e-06 3.37478e-05 0)
(0.000115733 0.000586874 0)
(0.000108395 0.000640695 0)
(9.31986e-05 0.000422594 0)
(7.00146e-07 9.15734e-06 0)
(4.2376e-07 7.15993e-06 0)
(2.00981e-07 4.86327e-06 0)
(1.88779e-07 5.79984e-06 0)
(9.25647e-07 1.1715e-05 0)
(1.29493e-07 3.92106e-06 0)
(1.92513e-06 2.18381e-05 0)
(1.19806e-06 1.59905e-05 0)
(2.2311e-06 2.48585e-05 0)
(8.59638e-07 1.27835e-05 0)
(5.76946e-05 0.000174029 0)
(2.90665e-05 8.22648e-05 0)
(4.03031e-05 0.000114209 0)
(8.29962e-05 0.00032933 0)
(7.29979e-05 0.000243649 0)
(1.63289e-05 4.85941e-05 0)
(2.36069e-05 6.63176e-05 0)
(6.48253e-06 1.99733e-05 0)
(2.3917e-06 7.23518e-06 0)
(9.19802e-06 2.78175e-05 0)
(-2.29469e-09 8.26897e-08 0)
(-4.23684e-09 1.58637e-07 0)
(-8.05925e-09 2.96661e-07 0)
(-2.56461e-08 4.01932e-07 0)
(-6.64093e-08 8.35145e-07 0)
(-4.7973e-08 5.9345e-07 0)
(-6.56478e-08 9.92043e-07 0)
(-6.05272e-08 1.17416e-06 0)
(-6.10712e-08 1.30117e-06 0)
(-4.82437e-08 1.61674e-06 0)
(-5.51145e-08 1.96761e-06 0)
(-7.49164e-08 2.61458e-06 0)
(4.21579e-09 3.37077e-06 0)
(-7.25155e-08 2.90459e-06 0)
(1.39488e-05 0.000133569 0)
(2.00676e-05 0.000206929 0)
(9.325e-06 9.32919e-05 0)
(4.91892e-05 0.000410901 0)
(7.00963e-05 0.000525387 0)
(9.76901e-05 0.000667379 0)
(3.4449e-05 0.000329648 0)
(5.45668e-06 5.76779e-05 0)
(7.622e-06 7.77704e-05 0)
(4.18643e-06 4.42273e-05 0)
(2.66911e-06 3.14536e-05 0)
(0.00012465 0.000675438 0)
(0.00012448 0.000570994 0)
(0.000112302 0.000711153 0)
(0.000108795 0.000474352 0)
(5.14419e-07 9.00642e-06 0)
(2.84607e-07 7.42328e-06 0)
(1.39415e-07 5.16096e-06 0)
(9.62712e-08 4.29432e-06 0)
(6.62685e-08 6.20728e-06 0)
(6.29375e-07 1.08102e-05 0)
(1.46609e-06 1.94479e-05 0)
(1.156e-06 1.70126e-05 0)
(8.78155e-07 1.38137e-05 0)
(1.9111e-06 2.44302e-05 0)
(5.81803e-07 1.14107e-05 0)
(6.78426e-05 0.000209673 0)
(5.49627e-05 0.000149494 0)
(3.37049e-05 9.18877e-05 0)
(4.61428e-05 0.000123593 0)
(9.62841e-05 0.000364689 0)
(8.77366e-05 0.000289339 0)
(1.52516e-05 4.32396e-05 0)
(2.22667e-05 5.95488e-05 0)
(4.6964e-06 1.41607e-05 0)
(1.01671e-06 2.98663e-06 0)
(9.59549e-06 2.78202e-05 0)
(-2.69374e-09 4.44684e-08 0)
(-1.14149e-08 2.14239e-07 0)
(-1.39264e-08 2.76768e-07 0)
(-3.92551e-08 4.8724e-07 0)
(-2.30678e-08 3.36438e-07 0)
(-8.31831e-08 8.70071e-07 0)
(-7.83631e-08 9.76765e-07 0)
(-7.15544e-08 7.35952e-07 0)
(-8.4796e-08 1.18649e-06 0)
(-9.91468e-08 1.57832e-06 0)
(-9.30275e-08 1.73296e-06 0)
(-1.09095e-07 2.23878e-06 0)
(-1.30889e-07 2.59322e-06 0)
(-1.0106e-07 3.75158e-06 0)
(-1.44199e-07 3.41864e-06 0)
(1.19317e-05 0.000125264 0)
(2.32049e-05 0.000247792 0)
(1.46032e-05 0.000163877 0)
(9.22517e-06 9.94597e-05 0)
(5.2684e-05 0.000472761 0)
(7.41061e-05 0.000592811 0)
(0.000101753 0.000748298 0)
(4.25791e-05 0.000415387 0)
(2.87847e-05 0.000294977 0)
(4.92933e-06 5.79099e-05 0)
(6.04614e-06 6.94469e-05 0)
(3.24658e-06 3.99021e-05 0)
(2.60224e-06 3.3487e-05 0)
(2.02855e-06 2.66033e-05 0)
(0.000152346 0.000815029 0)
(0.000147408 0.000641676 0)
(0.000134683 0.000847294 0)
(0.000110914 0.000441791 0)
(4.60108e-07 9.73635e-06 0)
(3.15083e-07 8.11936e-06 0)
(9.66511e-08 6.89374e-06 0)
(5.04069e-09 5.09689e-06 0)
(-6.30064e-09 4.51014e-06 0)
(-8.52919e-08 6.10235e-06 0)
(1.38389e-06 2.07558e-05 0)
(7.43923e-07 1.634e-05 0)
(5.8483e-07 1.35288e-05 0)
(4.17133e-07 1.2007e-05 0)
(7.79392e-05 0.000222677 0)
(6.33049e-05 0.000158363 0)
(3.52164e-05 8.78281e-05 0)
(4.27584e-05 0.000103477 0)
(9.76112e-05 0.000338084 0)
(8.9807e-05 0.000265858 0)
(1.20171e-05 3.38524e-05 0)
(1.77506e-05 4.79095e-05 0)
(2.42096e-05 5.99692e-05 0)
(5.22264e-06 1.5144e-05 0)
(2.03785e-06 5.76986e-06 0)
(7.25938e-06 2.07319e-05 0)
(-9.07316e-09 1.09635e-07 0)
(-1.60916e-08 2.01645e-07 0)
(-4.56278e-08 4.84164e-07 0)
(-3.11017e-08 3.62919e-07 0)
(-1.11174e-07 1.05476e-06 0)
(-1.19062e-07 1.22382e-06 0)
(-9.09393e-08 8.30842e-07 0)
(-1.23906e-07 1.42098e-06 0)
(-1.39451e-07 1.71681e-06 0)
(-1.37998e-07 2.03654e-06 0)
(-1.46733e-07 2.24499e-06 0)
(-2.10466e-07 3.03676e-06 0)
(-1.48843e-07 4.2143e-06 0)
(-2.26413e-07 3.68017e-06 0)
(1.19136e-05 0.000133595 0)
(1.84389e-05 0.000229839 0)
(1.28561e-05 0.000163634 0)
(7.55894e-06 9.02671e-05 0)
(6.37622e-05 0.000560182 0)
(8.79014e-05 0.000694093 0)
(0.000122303 0.000894612 0)
(3.955e-05 0.000423579 0)
(3.0332e-05 0.000338709 0)
(4.01992e-06 5.20856e-05 0)
(5.99374e-06 7.44673e-05 0)
(2.93024e-06 4.10083e-05 0)
(1.95724e-06 3.07341e-05 0)
(1.64855e-06 2.66211e-05 0)
(0.000171474 0.00084433 0)
(0.000155039 0.000907535 0)
(0.000167993 0.000754939 0)
(0.000144165 0.000569087 0)
(0.000138261 0.000935595 0)
(0.000125837 0.000479887 0)
(1.75519e-07 9.78611e-06 0)
(1.17749e-07 8.71564e-06 0)
(-4.85798e-08 7.60646e-06 0)
(-9.56873e-08 5.49089e-06 0)
(-1.00701e-07 4.51079e-06 0)
(-2.27126e-07 6.86787e-06 0)
(9.91039e-07 2.01863e-05 0)
(6.32667e-07 1.75843e-05 0)
(4.83676e-07 1.44277e-05 0)
(1.55487e-07 1.19386e-05 0)
(7.55505e-05 0.000193971 0)
(5.86926e-05 0.000131623 0)
(2.93874e-05 7.0074e-05 0)
(4.69884e-05 0.000105053 0)
(0.000115861 0.000382598 0)
(0.00010476 0.000291701 0)
(1.15159e-05 3.08185e-05 0)
(1.69299e-05 4.34025e-05 0)
(1.97577e-05 4.809e-05 0)
(3.88146e-06 1.09685e-05 0)
(9.58725e-07 2.63524e-06 0)
(7.17176e-06 1.96291e-05 0)
(-6.9923e-09 6.79592e-08 0)
(-2.80773e-08 3.01198e-07 0)
(-6.0518e-08 5.63546e-07 0)
(-1.32082e-07 1.15782e-06 0)
(-1.29191e-07 1.22093e-06 0)
(-1.43073e-07 1.43819e-06 0)
(-8.3128e-08 7.34261e-07 0)
(-1.22857e-07 1.05544e-06 0)
(-1.49166e-07 1.65081e-06 0)
(-1.92774e-07 2.10945e-06 0)
(-1.91098e-07 2.21441e-06 0)
(-2.22887e-07 2.70942e-06 0)
(-2.48223e-07 3.43332e-06 0)
(-2.57243e-07 3.05288e-06 0)
(-2.83626e-07 4.73399e-06 0)
(-3.2992e-07 4.33585e-06 0)
(9.03602e-06 0.000114927 0)
(1.99062e-05 0.000266251 0)
(1.41439e-05 0.000188784 0)
(9.7071e-06 0.000137552 0)
(7.30172e-06 9.52951e-05 0)
(7.03081e-05 0.000653982 0)
(8.86893e-05 0.000759912 0)
(0.000127313 0.00101091 0)
(4.21783e-05 0.000480043 0)
(2.59024e-05 0.000321862 0)
(3.48423e-06 5.32811e-05 0)
(3.28197e-06 4.54421e-05 0)
(4.80949e-06 6.89966e-05 0)
(1.98607e-06 3.63388e-05 0)
(1.63667e-06 3.15584e-05 0)
(1.18519e-06 2.47421e-05 0)
(0.000208207 0.00101638 0)
(0.000181104 0.00108325 0)
(0.000194752 0.000808046 0)
(0.000159011 0.000579666 0)
(0.000166329 0.00110477 0)
(0.000127725 0.000446603 0)
(2.45942e-08 1.06728e-05 0)
(-5.65801e-08 8.57314e-06 0)
(-2.11908e-07 7.46494e-06 0)
(-2.2579e-07 5.68956e-06 0)
(-2.17285e-07 5.15167e-06 0)
(-3.87503e-07 7.17506e-06 0)
(8.81205e-07 2.16687e-05 0)
(2.38568e-07 1.79512e-05 0)
(1.04026e-07 1.46759e-05 0)
(-5.42091e-08 1.32294e-05 0)
(8.62684e-05 0.000204959 0)
(6.48647e-05 0.000130325 0)
(2.95443e-05 6.29602e-05 0)
(4.37792e-05 8.87412e-05 0)
(0.000119775 0.000352816 0)
(0.000101876 0.000252747 0)
(1.36455e-05 3.50102e-05 0)
(8.81832e-06 2.34698e-05 0)
(1.86996e-05 4.25423e-05 0)
(4.97495e-06 1.35985e-05 0)
(2.1418e-06 5.67419e-06 0)
(-1.76506e-08 1.5492e-07 0)
(-3.65786e-08 3.4406e-07 0)
(-5.46927e-08 4.86317e-07 0)
(-1.69948e-07 1.43622e-06 0)
(-1.70799e-07 1.49104e-06 0)
(-1.93045e-07 1.77549e-06 0)
(-1.0926e-07 8.98634e-07 0)
(-1.5522e-07 1.26527e-06 0)
(-2.11735e-07 2.04753e-06 0)
(-2.45109e-07 2.35504e-06 0)
(-2.54698e-07 2.72553e-06 0)
(-3.45174e-07 3.97745e-06 0)
(-3.67776e-07 3.7638e-06 0)
(-3.31168e-07 5.40654e-06 0)
(-3.66671e-07 4.83481e-06 0)
(-3.97278e-07 4.47007e-06 0)
(8.28664e-06 0.000117431 0)
(1.61214e-05 0.000256691 0)
(1.14699e-05 0.000179849 0)
(8.426e-06 0.000137948 0)
(5.67703e-06 8.65927e-05 0)
(6.52448e-05 0.000668404 0)
(0.000104847 0.00090941 0)
(0.000155424 0.00122042 0)
(3.31252e-05 0.000431555 0)
(5.15569e-05 0.000577518 0)
(2.67744e-05 0.0003625 0)
(2.79434e-06 4.67684e-05 0)
(3.64417e-06 5.84511e-05 0)
(4.65414e-06 7.41242e-05 0)
(1.6796e-06 3.87042e-05 0)
(1.00633e-06 2.94249e-05 0)
(8.44284e-07 2.56153e-05 0)
(0.000225546 0.001173 0)
(0.0002195 0.000954755 0)
(0.000208386 0.00119472 0)
(0.0002032 0.000752026 0)
(0.000183038 0.00064406 0)
(0.000145308 0.000491694 0)
(0.000179257 0.00126176 0)
(-2.67951e-07 1.12478e-05 0)
(-2.99844e-07 9.41234e-06 0)
(-3.83444e-07 8.69389e-06 0)
(-3.65513e-07 6.44884e-06 0)
(-5.78198e-07 8.52133e-06 0)
(4.03046e-07 2.19029e-05 0)
(9.88641e-08 2.00062e-05 0)
(-4.55868e-08 1.62522e-05 0)
(-3.58211e-07 1.38073e-05 0)
(8.57312e-05 0.000182629 0)
(5.81165e-05 0.000105864 0)
(7.68002e-05 0.000151189 0)
(3.49211e-05 6.91295e-05 0)
(2.20342e-05 4.69048e-05 0)
(4.87792e-05 8.90705e-05 0)
(0.000141058 0.000395178 0)
(0.0001147 0.000255597 0)
(1.29006e-05 3.17289e-05 0)
(8.30315e-06 2.11636e-05 0)
(1.4796e-05 3.43203e-05 0)
(4.29079e-06 1.13241e-05 0)
(1.07572e-06 2.78206e-06 0)
(-1.09302e-08 8.89893e-08 0)
(-3.23951e-08 2.84532e-07 0)
(-7.02284e-08 5.81126e-07 0)
(-2.07899e-07 1.68481e-06 0)
(-2.14294e-07 1.82009e-06 0)
(-2.29059e-07 2.08487e-06 0)
(-2.20544e-07 1.90921e-06 0)
(-1.45026e-07 1.16235e-06 0)
(-9.72309e-08 7.82265e-07 0)
(-2.00882e-07 1.60184e-06 0)
(-3.21954e-07 2.91496e-06 0)
(-3.4014e-07 3.27455e-06 0)
(-4.07329e-07 4.16359e-06 0)
(-4.15454e-07 3.90877e-06 0)
(-4.80463e-07 6.36283e-06 0)
(-5.4582e-07 6.04566e-06 0)
(-5.18075e-07 5.22506e-06 0)
(6.2403e-06 0.000105471 0)
(1.7311e-05 0.000295277 0)
(1.22015e-05 0.000220357 0)
(1.08161e-05 0.000191138 0)
(9.10195e-06 0.000153227 0)
(6.47495e-06 0.000125132 0)
(5.16915e-06 9.0747e-05 0)
(7.91366e-05 0.000821039 0)
(0.000100513 0.000956923 0)
(0.000163158 0.00138355 0)
(3.21032e-05 0.000466174 0)
(4.80244e-05 0.000616381 0)
(2.17426e-05 0.00034092 0)
(2.15994e-06 4.48088e-05 0)
(2.95871e-06 6.06409e-05 0)
(3.47356e-06 6.92849e-05 0)
(1.01898e-06 3.77654e-05 0)
(5.89736e-07 3.08046e-05 0)
(3.60322e-07 2.42511e-05 0)
(0.000270729 0.00136682 0)
(0.000251627 0.00102027 0)
(0.000238082 0.0014464 0)
(0.000236746 0.000838842 0)
(0.000181804 0.000553696 0)
(0.00015329 0.000473296 0)
(0.000219395 0.00148893 0)
(-4.36221e-07 1.2578e-05 0)
(-4.11604e-07 1.04974e-05 0)
(-5.89375e-07 9.38799e-06 0)
(-5.11476e-07 6.96142e-06 0)
(-7.62227e-07 9.19667e-06 0)
(-3.56493e-07 2.11787e-05 0)
(-4.20302e-07 1.74462e-05 0)
(-6.73393e-07 1.56443e-05 0)
(0.00010131 0.000203624 0)
(6.19114e-05 9.74036e-05 0)
(8.16412e-05 0.00013686 0)
(3.3535e-05 5.92734e-05 0)
(2.02299e-05 4.04448e-05 0)
(4.67123e-05 7.60421e-05 0)
(0.000148858 0.000362582 0)
(0.000133254 0.000290678 0)
(1.00165e-05 2.4706e-05 0)
(5.77079e-06 1.47324e-05 0)
(1.27417e-05 2.90901e-05 0)
(1.82539e-06 4.54127e-06 0)
(-2.79223e-08 2.20496e-07 0)
(-5.15518e-08 4.23649e-07 0)
(-2.57013e-07 2.05667e-06 0)
(-2.59369e-07 2.10918e-06 0)
(-3.02139e-07 2.58373e-06 0)
(-2.92027e-07 2.44182e-06 0)
(-1.85142e-07 1.4402e-06 0)
(-1.24214e-07 9.66021e-07 0)
(-2.54476e-07 1.98231e-06 0)
(-3.66501e-07 3.32649e-06 0)
(-3.81639e-07 3.26147e-06 0)
(-5.25902e-07 5.03105e-06 0)
(-5.66682e-07 4.96777e-06 0)
(-5.99927e-07 6.73454e-06 0)
(-6.48417e-07 6.47209e-06 0)
(-6.17396e-07 5.98987e-06 0)
(5.50891e-06 0.000109973 0)
(1.39423e-05 0.000295837 0)
(9.89411e-06 0.000228206 0)
(7.67503e-06 0.000170885 0)
(7.21524e-06 0.000151127 0)
(5.79764e-06 0.000135931 0)
(3.75993e-06 8.53982e-05 0)
(7.58192e-05 0.000863852 0)
(0.000114469 0.00113142 0)
(0.000139033 0.00131941 0)
(0.000203659 0.00166362 0)
(2.47767e-05 0.000426346 0)
(3.749e-05 0.000537919 0)
(5.36902e-05 0.000709093 0)
(2.09831e-05 0.000372473 0)
(1.65927e-06 4.8524e-05 0)
(1.93211e-06 5.53568e-05 0)
(3.02839e-06 7.40864e-05 0)
(8.88482e-07 4.34552e-05 0)
(5.94291e-07 3.43839e-05 0)
(8.44797e-09 2.93772e-05 0)
(-5.30961e-08 2.61344e-05 0)
(0.000301548 0.00138554 0)
(0.000279201 0.00158033 0)
(0.000287588 0.00118685 0)
(0.000258094 0.00083508 0)
(0.000197309 0.000533692 0)
(0.000237317 0.00172498 0)
(-7.62442e-07 1.39225e-05 0)
(-7.18944e-07 1.19574e-05 0)
(-8.48655e-07 1.12191e-05 0)
(-7.06113e-07 8.29097e-06 0)
(-1.01526e-06 1.10184e-05 0)
(-5.85977e-07 2.35813e-05 0)
(-5.75373e-07 1.95316e-05 0)
(-7.17536e-07 1.70498e-05 0)
(-9.51223e-07 1.58396e-05 0)
(0.000105776 0.000186977 0)
(7.19402e-05 0.000107636 0)
(5.31712e-05 7.76944e-05 0)
(9.42556e-05 0.000151004 0)
(3.94366e-05 6.27599e-05 0)
(2.72862e-05 4.66706e-05 0)
(1.57763e-05 3.17455e-05 0)