/*--------------------------------*- C++ -*----------------------------------*\
| =========                 |                                                 |
| \\      /  F ield         | OpenFOAM: The Open Source CFD Toolbox           |
|  \\    /   O peration     | Version:  v2012                                 |
|   \\  /    A nd           | Website:  www.openfoam.com                      |
|    \\/     M anipulation  |                                                 |
\*---------------------------------------------------------------------------*/
FoamFile
{
    version     2.0;
    format      ascii;
    class       volScalarField;
    location    "0.1";
    object      nut;
}
// * * * * * * * * * * * * * * * * * * * * * * * * * * * * * * * * * * * * * //

dimensions      [0 2 -1 0 0 0 0];


internalField   nonuniform List<scalar> 
13611
(
1.19629e-05
1.1931e-05
1.19656e-05
1.19106e-05
1.19105e-05
1.19899e-05
1.19424e-05
1.18952e-05
1.18995e-05
1.1877e-05
1.20047e-05
1.19553e-05
1.18712e-05
1.19158e-05
1.18679e-05
1.18547e-05
1.19916e-05
1.20361e-05
1.19555e-05
1.18465e-05
1.19055e-05
1.19445e-05
1.18559e-05
1.18435e-05
1.18348e-05
1.20143e-05
1.20578e-05
1.19889e-05
1.18558e-05
1.1881e-05
1.19256e-05
1.19639e-05
1.18313e-05
1.18147e-05
1.18086e-05
1.20129e-05
1.20472e-05
1.20906e-05
1.19914e-05
1.18329e-05
1.18762e-05
1.192e-05
1.19483e-05
1.19606e-05
1.18013e-05
1.18292e-05
1.17977e-05
1.18093e-05
1.20423e-05
1.20707e-05
1.21152e-05
1.20147e-05
1.18301e-05
1.18968e-05
1.18523e-05
1.19404e-05
1.19632e-05
1.19875e-05
1.17762e-05
1.18007e-05
1.17714e-05
1.17867e-05
1.20703e-05
1.20418e-05
1.21007e-05
1.21501e-05
1.20104e-05
1.18061e-05
1.18923e-05
1.18472e-05
1.19407e-05
1.19841e-05
1.17603e-05
1.17687e-05
1.17977e-05
1.17666e-05
1.17849e-05
1.20972e-05
1.20668e-05
1.2122e-05
1.21793e-05
1.20343e-05
1.18054e-05
1.18669e-05
1.19121e-05
1.18269e-05
1.19621e-05
1.20078e-05
1.17359e-05
1.17402e-05
1.17598e-05
1.17422e-05
1.17598e-05
1.21053e-05
1.20593e-05
1.20906e-05
1.21496e-05
1.21737e-05
1.22163e-05
1.20374e-05
1.17911e-05
1.18563e-05
1.19058e-05
1.18179e-05
1.19508e-05
1.19806e-05
1.20054e-05
1.17257e-05
1.17242e-05
1.17245e-05
1.17628e-05
1.17398e-05
1.17535e-05
1.21352e-05
1.20824e-05
1.21043e-05
1.21588e-05
1.22054e-05
1.22495e-05
1.20649e-05
1.17743e-05
1.1798e-05
1.18321e-05
1.18722e-05
1.18943e-05
1.19319e-05
1.19673e-05
1.20343e-05
1.17022e-05
1.16992e-05
1.16996e-05
1.17223e-05
1.17201e-05
1.17381e-05
1.21292e-05
1.20932e-05
1.21855e-05
1.22403e-05
1.22051e-05
1.22916e-05
1.20655e-05
1.17607e-05
1.17799e-05
1.18307e-05
1.18518e-05
1.19092e-05
1.19334e-05
1.19869e-05
1.20381e-05
1.17004e-05
1.16885e-05
1.16806e-05
1.17095e-05
1.17086e-05
1.17186e-05
1.17427e-05
1.21524e-05
1.21211e-05
1.22007e-05
1.22741e-05
1.22375e-05
1.23302e-05
1.20967e-05
1.17618e-05
1.17858e-05
1.18108e-05
1.18607e-05
1.18905e-05
1.19535e-05
1.20133e-05
1.19765e-05
1.20693e-05
1.16858e-05
1.16673e-05
1.16626e-05
1.16624e-05
1.17101e-05
1.16889e-05
1.17026e-05
1.17316e-05
1.21863e-05
1.21442e-05
1.21241e-05
1.22372e-05
1.23152e-05
1.22691e-05
1.23746e-05
1.20996e-05
1.17401e-05
1.17723e-05
1.18093e-05
1.18534e-05
1.19002e-05
1.19446e-05
1.20135e-05
1.19903e-05
1.20679e-05
1.16665e-05
1.16554e-05
1.16415e-05
1.16401e-05
1.16904e-05
1.16757e-05
1.16834e-05
1.17099e-05
1.22133e-05
1.21675e-05
1.21502e-05
1.22704e-05
1.23466e-05
1.23068e-05
1.24071e-05
1.21271e-05
1.17355e-05
1.17834e-05
1.17533e-05
1.18297e-05
1.1873e-05
1.18951e-05
1.19267e-05
1.19687e-05
1.20388e-05
1.20996e-05
1.16529e-05
1.16333e-05
1.16256e-05
1.16485e-05
1.16078e-05
1.17153e-05
1.16583e-05
1.16655e-05
1.17008e-05
1.21956e-05
1.22515e-05
1.21645e-05
1.22724e-05
1.23161e-05
1.23836e-05
1.24391e-05
1.24096e-05
1.21508e-05
1.21259e-05
1.17161e-05
1.17756e-05
1.17368e-05
1.18277e-05
1.18672e-05
1.19127e-05
1.19346e-05
1.19803e-05
1.20442e-05
1.21017e-05
1.16337e-05
1.16228e-05
1.16033e-05
1.16358e-05
1.15841e-05
1.16816e-05
1.16409e-05
1.16633e-05
1.16462e-05
1.1681e-05
1.22167e-05
1.22808e-05
1.21981e-05
1.23207e-05
1.23593e-05
1.24013e-05
1.24721e-05
1.24447e-05
1.21682e-05
1.21494e-05
1.17183e-05
1.17579e-05
1.17945e-05
1.17393e-05
1.18468e-05
1.18114e-05
1.1886e-05
1.19114e-05
1.19569e-05
1.2008e-05
1.2077e-05
1.20312e-05
1.21315e-05
1.16276e-05
1.16019e-05
1.15897e-05
1.16002e-05
1.15647e-05
1.17104e-05
1.16458e-05
1.16319e-05
1.16815e-05
1.22594e-05
1.23246e-05
1.22168e-05
1.23571e-05
1.23997e-05
1.24484e-05
1.25091e-05
1.21948e-05
1.21621e-05
1.17017e-05
1.17632e-05
1.17809e-05
1.17209e-05
1.18285e-05
1.1811e-05
1.18822e-05
1.19324e-05
1.19571e-05
1.20052e-05
1.20761e-05
1.20499e-05
1.21266e-05
1.21568e-05
1.16123e-05
1.15899e-05
1.15706e-05
1.15852e-05
1.15418e-05
1.16612e-05
1.16325e-05
1.16367e-05
1.16145e-05
1.16664e-05
1.22902e-05
1.23654e-05
1.22558e-05
1.23959e-05
1.24382e-05
1.24854e-05
1.25251e-05
1.25444e-05
1.22087e-05
1.2192e-05
1.17018e-05
1.17463e-05
1.17884e-05
1.17149e-05
1.18375e-05
1.19055e-05
1.18633e-05
1.1928e-05
1.19799e-05
1.20264e-05
1.20994e-05
1.20485e-05
1.21499e-05
1.21804e-05
1.15983e-05
1.1604e-05
1.15757e-05
1.15502e-05
1.15514e-05
1.15341e-05
1.16618e-05
1.16184e-05
1.162e-05
1.16476e-05
1.16073e-05
1.1671e-05
1.23351e-05
1.23695e-05
1.24038e-05
1.22708e-05
1.24279e-05
1.24722e-05
1.24973e-05
1.25669e-05
1.25971e-05
1.22464e-05
1.22085e-05
1.16891e-05
1.17454e-05
1.17273e-05
1.17812e-05
1.16949e-05
1.18205e-05
1.1907e-05
1.18701e-05
1.19489e-05
1.19706e-05
1.203e-05
1.20964e-05
1.20721e-05
1.21476e-05
1.21793e-05
1.15855e-05
1.15876e-05
1.15565e-05
1.15737e-05
1.15288e-05
1.15158e-05
1.16801e-05
1.1583e-05
1.16077e-05
1.16325e-05
1.15924e-05
1.16584e-05
1.23437e-05
1.24116e-05
1.24403e-05
1.23197e-05
1.24602e-05
1.24922e-05
1.25446e-05
1.25831e-05
1.25991e-05
1.26478e-05
1.22724e-05
1.22413e-05
1.17232e-05
1.1762e-05
1.17146e-05
1.17994e-05
1.16848e-05
1.18294e-05
1.193e-05
1.18915e-05
1.1852e-05
1.19496e-05
1.19885e-05
1.20131e-05
1.20578e-05
1.21196e-05
1.21713e-05
1.22093e-05
1.15724e-05
1.1542e-05
1.15596e-05
1.15097e-05
1.15122e-05
1.17244e-05
1.15616e-05
1.15909e-05
1.16145e-05
1.16384e-05
1.15757e-05
1.16651e-05
1.23908e-05
1.24476e-05
1.2473e-05
1.23488e-05
1.25314e-05
1.2583e-05
1.26306e-05
1.26466e-05
1.2704e-05
1.23172e-05
1.22554e-05
1.17231e-05
1.17654e-05
1.16951e-05
1.17845e-05
1.18184e-05
1.19262e-05
1.19005e-05
1.18521e-05
1.19704e-05
1.2026e-05
1.20727e-05
1.21041e-05
1.21998e-05
1.21704e-05
1.22434e-05
1.15568e-05
1.1527e-05
1.15447e-05
1.14893e-05
1.14969e-05
1.16587e-05
1.15054e-05
1.15776e-05
1.15984e-05
1.16262e-05
1.15587e-05
1.16535e-05
1.24158e-05
1.24835e-05
1.25151e-05
1.23923e-05
1.2569e-05
1.26247e-05
1.26584e-05
1.26947e-05
1.27649e-05
1.23334e-05
1.23017e-05
1.16991e-05
1.17438e-05
1.16856e-05
1.1795e-05
1.18295e-05
1.19438e-05
1.18943e-05
1.18707e-05
1.19811e-05
1.20098e-05
1.20557e-05
1.2121e-05
1.2226e-05
1.22026e-05
1.21516e-05
1.22754e-05
1.15427e-05
1.15122e-05
1.15291e-05
1.14831e-05
1.14983e-05
1.16074e-05
1.15019e-05
1.15595e-05
1.1582e-05
1.15956e-05
1.16101e-05
1.16354e-05
1.15439e-05
1.16642e-05
1.24562e-05
1.25126e-05
1.25023e-05
1.25577e-05
1.24138e-05
1.26232e-05
1.26496e-05
1.27044e-05
1.27418e-05
1.28276e-05
1.23818e-05
1.23177e-05
1.16894e-05
1.17438e-05
1.1784e-05
1.18197e-05
1.19398e-05
1.1967e-05
1.1915e-05
1.18599e-05
1.20234e-05
1.20704e-05
1.21009e-05
1.22653e-05
1.22186e-05
1.21632e-05
1.15274e-05
1.15125e-05
1.14668e-05
1.1484e-05
1.16093e-05
1.14711e-05
1.15488e-05
1.15703e-05
1.15813e-05
1.16001e-05
1.16205e-05
1.15293e-05
1.16477e-05
1.24753e-05
1.24832e-05
1.25562e-05
1.25529e-05
1.25981e-05
1.24571e-05
1.26593e-05
1.27048e-05
1.27264e-05
1.27945e-05
1.28962e-05
1.283e-05
1.23981e-05
1.23593e-05
1.16726e-05
1.17054e-05
1.17242e-05
1.17658e-05
1.17983e-05
1.1835e-05
1.19595e-05
1.19807e-05
1.19042e-05
1.1876e-05
1.20056e-05
1.20528e-05
1.21124e-05
1.23048e-05
1.21909e-05
1.22534e-05
1.21413e-05
1.15139e-05
1.14974e-05
1.14685e-05
1.14569e-05
1.14747e-05
1.15225e-05
1.16411e-05
1.14558e-05
1.15356e-05
1.15558e-05
1.15697e-05
1.15835e-05
1.16056e-05
1.16154e-05
1.15248e-05
1.15159e-05
1.16278e-05
1.16542e-05
1.25175e-05
1.25242e-05
1.25943e-05
1.25932e-05
1.26415e-05
1.24868e-05
1.27179e-05
1.27394e-05
1.27831e-05
1.28265e-05
1.29702e-05
1.28978e-05
1.24412e-05
1.23675e-05
1.16728e-05
1.16876e-05
1.17267e-05
1.17658e-05
1.17845e-05
1.18239e-05
1.19701e-05
1.19231e-05
1.18677e-05
1.20188e-05
1.20668e-05
1.20969e-05
1.22893e-05
1.23495e-05
1.21929e-05
1.22514e-05
1.21465e-05
1.14984e-05
1.14818e-05
1.14542e-05
1.14399e-05
1.14585e-05
1.15267e-05
1.16117e-05
1.14347e-05
1.15256e-05
1.155e-05
1.15577e-05
1.1575e-05
1.1595e-05
1.15986e-05
1.15137e-05
1.15039e-05
1.16185e-05
1.16448e-05
1.25535e-05
1.2572e-05
1.26356e-05
1.26462e-05
1.26776e-05
1.24786e-05
1.25371e-05
1.27594e-05
1.27961e-05
1.28858e-05
1.30515e-05
1.29628e-05
1.24433e-05
1.2413e-05
1.16546e-05
1.16923e-05
1.17465e-05
1.17112e-05
1.17975e-05
1.18401e-05
1.20012e-05
1.19519e-05
1.19116e-05
1.18862e-05
1.20496e-05
1.21122e-05
1.23241e-05
1.23762e-05
1.21743e-05
1.22249e-05
1.22924e-05
1.21393e-05
1.14878e-05
1.147e-05
1.14395e-05
1.14486e-05
1.14504e-05
1.14814e-05
1.16308e-05
1.14254e-05
1.15284e-05
1.15147e-05
1.1539e-05
1.15477e-05
1.15632e-05
1.15827e-05
1.15918e-05
1.15029e-05
1.14919e-05
1.16019e-05
1.1628e-05
1.25988e-05
1.26103e-05
1.26966e-05
1.27263e-05
1.25248e-05
1.25707e-05
1.28164e-05
1.28525e-05
1.29406e-05
1.31272e-05
1.3033e-05
1.24826e-05
1.24145e-05
1.16412e-05
1.1689e-05
1.17433e-05
1.17046e-05
1.17829e-05
1.18331e-05
1.20166e-05
1.19642e-05
1.19271e-05
1.18742e-05
1.20654e-05
1.20975e-05
1.2365e-05
1.21852e-05
1.22381e-05
1.23124e-05
1.21595e-05
1.14734e-05
1.14571e-05
1.14285e-05
1.14327e-05
1.14375e-05
1.14502e-05
1.16096e-05
1.13973e-05
1.15162e-05
1.15055e-05
1.15356e-05
1.15517e-05
1.15603e-05
1.15707e-05
1.15749e-05
1.14934e-05
1.1482e-05
1.15917e-05
1.16129e-05
1.26359e-05
1.26633e-05
1.27041e-05
1.27454e-05
1.27605e-05
1.25715e-05
1.25243e-05
1.26191e-05
1.28467e-05
1.28529e-05
1.292e-05
1.30154e-05
1.32094e-05
1.3132e-05
1.31042e-05
1.2482e-05
1.24448e-05
1.16514e-05
1.1618e-05
1.16752e-05
1.17613e-05
1.17205e-05
1.17952e-05
1.18529e-05
1.18147e-05
1.20474e-05
1.19936e-05
1.19526e-05
1.19145e-05
1.18887e-05
1.21146e-05
1.23974e-05
1.22127e-05
1.22765e-05
1.23581e-05
1.21476e-05
1.14656e-05
1.14463e-05
1.14119e-05
1.14237e-05
1.14275e-05
1.14312e-05
1.14959e-05
1.13953e-05
1.16559e-05
1.15093e-05
1.15067e-05
1.1495e-05
1.15275e-05
1.15413e-05
1.15466e-05
1.15673e-05
1.1483e-05
1.14723e-05
1.15772e-05
1.15969e-05
1.26838e-05
1.2762e-05
1.27954e-05
1.28262e-05
1.26203e-05
1.2572e-05
1.26572e-05
1.29106e-05
1.29198e-05
1.29863e-05
1.30785e-05
1.32926e-05
1.32228e-05
1.31628e-05
1.25178e-05
1.24374e-05
1.16398e-05
1.1607e-05
1.1681e-05
1.17578e-05
1.17183e-05
1.17742e-05
1.18366e-05
1.18168e-05
1.20646e-05
1.19955e-05
1.19676e-05
1.19298e-05
1.18722e-05
1.20982e-05
1.23979e-05
1.2228e-05
1.22845e-05
1.23531e-05
1.21679e-05
1.14568e-05
1.14474e-05
1.14365e-05
1.14051e-05
1.141e-05
1.14171e-05
1.14215e-05
1.1486e-05
1.13717e-05
1.16081e-05
1.14979e-05
1.15161e-05
1.14963e-05
1.14878e-05
1.15316e-05
1.15374e-05
1.15425e-05
1.15548e-05
1.14744e-05
1.14642e-05
1.15682e-05
1.15824e-05
1.27355e-05
1.27984e-05
1.28543e-05
1.28755e-05
1.2652e-05
1.25573e-05
1.26173e-05
1.27142e-05
1.29634e-05
1.29802e-05
1.30605e-05
1.31561e-05
1.32437e-05
1.25118e-05
1.24705e-05
1.16504e-05
1.16186e-05
1.15909e-05
1.16689e-05
1.17006e-05
1.17376e-05
1.1776e-05
1.18457e-05
1.17992e-05
1.20629e-05
1.20196e-05
1.19568e-05
1.19288e-05
1.18811e-05
1.21147e-05
1.24336e-05
1.22675e-05
1.22025e-05
1.23249e-05
1.23893e-05
1.21435e-05
1.14563e-05
1.14378e-05
1.14283e-05
1.13886e-05
1.14011e-05
1.14147e-05
1.14057e-05
1.14201e-05
1.14183e-05
1.1364e-05
1.15907e-05
1.14908e-05
1.14955e-05
1.15116e-05
1.14887e-05
1.14772e-05
1.15254e-05
1.1528e-05
1.15341e-05
1.1549e-05
1.14648e-05
1.15554e-05
1.15708e-05
1.15792e-05
1.27915e-05
1.28683e-05
1.29068e-05
1.29451e-05
1.27073e-05
1.25902e-05
1.26387e-05
1.27615e-05
1.30366e-05
1.30482e-05
1.31284e-05
1.32353e-05
1.33078e-05
1.25519e-05
1.2463e-05
1.16368e-05
1.16092e-05
1.15772e-05
1.16757e-05
1.16948e-05
1.17309e-05
1.17656e-05
1.18395e-05
1.1796e-05
1.20477e-05
1.20931e-05
1.19996e-05
1.19732e-05
1.19054e-05
1.19529e-05
1.18574e-05
1.24487e-05
1.22957e-05
1.22215e-05
1.23362e-05
1.24235e-05
1.23683e-05
1.21525e-05
1.14479e-05
1.1429e-05
1.14387e-05
1.138e-05
1.13861e-05
1.14062e-05
1.14007e-05
1.1413e-05
1.1453e-05
1.13342e-05
1.16094e-05
1.14825e-05
1.15026e-05
1.14866e-05
1.15171e-05
1.14806e-05
1.14741e-05
1.15198e-05
1.15242e-05
1.15383e-05
1.14577e-05
1.15509e-05
1.15588e-05
1.15665e-05
1.28471e-05
1.2908e-05
1.29806e-05
1.30004e-05
1.27542e-05
1.26911e-05
1.26355e-05
1.28243e-05
1.31037e-05
1.31229e-05
1.32129e-05
1.33084e-05
1.2577e-05
1.25026e-05
1.162e-05
1.16441e-05
1.15939e-05
1.15656e-05
1.15794e-05
1.16648e-05
1.17082e-05
1.17462e-05
1.17775e-05
1.18152e-05
1.20657e-05
1.20951e-05
1.20127e-05
1.19061e-05
1.19654e-05
1.18593e-05
1.2486e-05
1.2272e-05
1.22101e-05
1.24395e-05
1.23906e-05
1.21821e-05
1.2122e-05
1.14477e-05
1.14211e-05
1.14315e-05
1.13687e-05
1.13783e-05
1.14003e-05
1.13931e-05
1.1404e-05
1.14135e-05
1.14211e-05
1.13449e-05
1.13491e-05
1.15979e-05
1.14808e-05
1.14746e-05
1.14979e-05
1.14836e-05
1.15101e-05
1.14734e-05
1.14663e-05
1.15111e-05
1.15173e-05
1.1517e-05
1.15295e-05
1.1459e-05
1.15401e-05
1.15566e-05
1.28657e-05
1.29789e-05
1.30425e-05
1.308e-05
1.28057e-05
1.27324e-05
1.26819e-05
1.28627e-05
1.31985e-05
1.32028e-05
1.32928e-05
1.26378e-05
1.254e-05
1.1604e-05
1.16313e-05
1.15905e-05
1.15553e-05
1.15655e-05
1.16751e-05
1.16978e-05
1.17424e-05
1.17624e-05
1.18041e-05
1.20472e-05
1.19972e-05
1.18829e-05
1.19297e-05
1.19526e-05
1.18405e-05
1.25098e-05
1.23055e-05
1.22457e-05
1.24336e-05
1.24854e-05
1.23584e-05
1.21875e-05
1.21272e-05
1.14453e-05
1.14183e-05
1.14321e-05
1.14236e-05
1.13588e-05
1.13706e-05
1.13856e-05
1.13915e-05
1.13982e-05
1.14083e-05
1.1406e-05
1.13222e-05
1.13407e-05
1.14792e-05
1.16487e-05
1.14727e-05
1.14695e-05
1.14891e-05
1.1502e-05
1.14759e-05
1.14644e-05
1.14611e-05
1.15053e-05
1.15078e-05
1.1508e-05
1.15196e-05
1.15307e-05
1.14518e-05
1.15358e-05
1.15452e-05
1.29431e-05
1.30425e-05
1.29995e-05
1.3122e-05
1.31456e-05
1.27933e-05
1.27325e-05
1.26867e-05
1.29228e-05
1.32835e-05
1.2649e-05
1.25516e-05
1.16091e-05
1.1641e-05
1.15723e-05
1.15471e-05
1.15453e-05
1.15602e-05
1.15528e-05
1.16634e-05
1.1711e-05
1.17319e-05
1.17647e-05
1.1821e-05
1.17833e-05
1.20628e-05
1.20141e-05
1.18824e-05
1.19264e-05
1.19704e-05
1.18424e-05
1.22875e-05
1.22205e-05
1.24663e-05
1.25101e-05
1.23786e-05
1.21633e-05
1.2115e-05
1.14386e-05
1.14104e-05
1.14253e-05
1.14204e-05
1.13592e-05
1.13461e-05
1.13724e-05
1.13788e-05
1.13867e-05
1.14007e-05
1.13906e-05
1.13456e-05
1.13283e-05
1.14995e-05
1.16127e-05
1.14704e-05
1.14635e-05
1.14847e-05
1.14957e-05
1.14707e-05
1.14599e-05
1.14546e-05
1.14975e-05
1.15032e-05
1.15018e-05
1.15121e-05
1.15195e-05
1.14497e-05
1.1526e-05
1.2968e-05
1.31223e-05
1.30826e-05
1.31851e-05
1.32331e-05
1.28503e-05
1.27835e-05
1.27444e-05
1.29537e-05
1.25966e-05
1.27042e-05
1.1596e-05
1.16289e-05
1.15644e-05
1.15357e-05
1.1536e-05
1.15458e-05
1.15428e-05
1.16751e-05
1.16978e-05
1.17427e-05
1.18072e-05
1.1787e-05
1.20422e-05
1.20907e-05
1.19952e-05
1.18614e-05
1.19045e-05
1.19479e-05
1.18176e-05
1.23218e-05
1.22437e-05
1.24543e-05
1.25518e-05
1.24215e-05
1.23649e-05
1.21637e-05
1.21354e-05
1.1438e-05
1.14061e-05
1.14254e-05
1.14153e-05
1.13534e-05
1.13369e-05
1.13662e-05
1.13746e-05
1.13789e-05
1.13962e-05
1.13855e-05
1.13249e-05
1.13181e-05
1.14326e-05
1.16552e-05
1.14642e-05
1.14575e-05
1.14892e-05
1.14788e-05
1.14638e-05
1.14727e-05
1.14538e-05
1.14485e-05
1.14918e-05
1.14946e-05
1.1493e-05
1.1504e-05
1.1512e-05
1.15164e-05
1.14434e-05
1.15268e-05
1.30419e-05
1.31842e-05
1.31468e-05
1.3108e-05
1.32531e-05
1.32911e-05
1.2922e-05
1.28385e-05
1.27799e-05
1.30352e-05
1.26056e-05
1.27053e-05
1.27545e-05
1.16063e-05
1.1578e-05
1.16395e-05
1.15492e-05
1.1528e-05
1.15331e-05
1.15322e-05
1.16622e-05
1.17092e-05
1.1733e-05
1.17684e-05
1.20514e-05
1.2081e-05
1.20087e-05
1.18649e-05
1.19041e-05
1.19495e-05
1.18164e-05
1.2295e-05
1.2226e-05
1.24971e-05
1.25954e-05
1.25425e-05
1.24297e-05
1.23918e-05
1.21897e-05
1.21275e-05
1.14316e-05
1.13994e-05
1.14091e-05
1.14195e-05
1.14148e-05
1.13476e-05
1.13601e-05
1.13264e-05
1.13382e-05
1.1366e-05
1.13757e-05
1.13911e-05
1.13794e-05
1.13864e-05
1.1333e-05
1.1315e-05
1.14186e-05
1.1612e-05
1.14609e-05
1.14581e-05
1.14523e-05
1.14837e-05
1.14781e-05
1.14597e-05
1.14668e-05
1.14482e-05
1.14429e-05
1.14847e-05
1.14892e-05
1.14887e-05
1.14994e-05
1.15031e-05
1.15081e-05
1.15167e-05
1.32513e-05
1.32332e-05
1.32006e-05
1.33015e-05
1.29756e-05
1.28932e-05
1.2856e-05
1.31044e-05
1.26668e-05
1.2757e-05
1.28038e-05
1.15972e-05
1.15629e-05
1.16299e-05
1.15483e-05
1.15353e-05
1.1516e-05
1.15198e-05
1.1521e-05
1.16726e-05
1.17091e-05
1.17471e-05
1.1772e-05
1.20406e-05
1.20986e-05
1.19995e-05
1.18403e-05
1.18862e-05
1.19267e-05
1.19731e-05
1.1794e-05
1.23244e-05
1.22585e-05
1.24988e-05
1.2635e-05
1.25872e-05
1.24617e-05
1.23753e-05
1.2178e-05
1.21485e-05
1.14292e-05
1.13975e-05
1.14062e-05
1.14192e-05
1.14091e-05
1.13498e-05
1.13551e-05
1.13219e-05
1.13334e-05
1.13638e-05
1.13697e-05
1.13892e-05
1.13781e-05
1.13821e-05
1.12865e-05
1.13036e-05
1.14826e-05
1.13328e-05
1.17408e-05
1.14541e-05
1.14529e-05
1.14472e-05
1.14728e-05
1.14548e-05
1.14614e-05
1.1467e-05
1.14421e-05
1.14378e-05
1.14797e-05
1.1482e-05
1.14931e-05
1.14828e-05
1.1496e-05
1.14991e-05
1.15089e-05
1.32904e-05
1.32852e-05
1.3195e-05
1.305e-05
1.29594e-05
1.29017e-05
1.31064e-05
1.26776e-05
1.27693e-05
1.2865e-05
1.15806e-05
1.16104e-05
1.15641e-05
1.16406e-05
1.15367e-05
1.15208e-05
1.15122e-05
1.15137e-05
1.15081e-05
1.16581e-05
1.16926e-05
1.17292e-05
1.17518e-05
1.20607e-05
1.20897e-05
1.20216e-05
1.18322e-05
1.18945e-05
1.19206e-05
1.19662e-05
1.17904e-05
1.23069e-05
1.22388e-05
1.25414e-05
1.26267e-05
1.26083e-05
1.24642e-05
1.24041e-05
1.22006e-05
1.2137e-05
1.1433e-05
1.14243e-05
1.14016e-05
1.13924e-05
1.14155e-05
1.14071e-05
1.13446e-05
1.13512e-05
1.13264e-05
1.1317e-05
1.13386e-05
1.1359e-05
1.13669e-05
1.13835e-05
1.1374e-05
1.12834e-05
1.13037e-05
1.14595e-05
1.12995e-05
1.15892e-05
1.14511e-05
1.14477e-05
1.14418e-05
1.14734e-05
1.14511e-05
1.14566e-05
1.14616e-05
1.14371e-05
1.14756e-05
1.14871e-05
1.14759e-05
1.14825e-05
1.14861e-05
1.14945e-05
1.14994e-05
1.32883e-05
1.30822e-05
1.30124e-05
1.29774e-05
1.32013e-05
1.27193e-05
1.28279e-05
1.29115e-05
1.15757e-05
1.16042e-05
1.15503e-05
1.16304e-05
1.15375e-05
1.15215e-05
1.15086e-05
1.15032e-05
1.15021e-05
1.14991e-05
1.166e-05
1.16937e-05
1.17314e-05
1.17511e-05
1.20503e-05
1.21092e-05
1.2012e-05
1.18081e-05
1.18497e-05
1.18751e-05
1.19393e-05
1.19858e-05
1.17695e-05
1.23433e-05
1.22669e-05
1.2506e-05
1.25824e-05
1.26757e-05
1.26578e-05
1.24437e-05
1.23894e-05
1.21841e-05
1.21543e-05
1.14287e-05
1.14245e-05
1.13979e-05
1.13932e-05
1.14165e-05
1.14109e-05
1.14024e-05
1.13441e-05
1.13539e-05
1.13228e-05
1.13115e-05
1.13177e-05
1.13337e-05
1.13591e-05
1.13627e-05
1.13693e-05
1.13819e-05
1.13745e-05
1.12665e-05
1.12971e-05
1.13585e-05
1.12691e-05
1.18425e-05
1.14468e-05
1.14423e-05
1.14369e-05
1.14689e-05
1.1447e-05
1.14521e-05
1.14566e-05
1.14626e-05
1.14321e-05
1.14698e-05
1.14818e-05
1.14709e-05
1.14762e-05
1.14826e-05
1.1488e-05
1.14958e-05
1.31488e-05
1.30221e-05
1.30188e-05
1.32143e-05
1.28272e-05
1.28911e-05
1.29887e-05
1.15558e-05
1.15872e-05
1.16151e-05
1.16396e-05
1.15242e-05
1.15148e-05
1.14956e-05
1.14938e-05
1.1493e-05
1.14886e-05
1.16757e-05
1.17121e-05
1.17329e-05
1.20697e-05
1.20979e-05
1.20314e-05
1.17962e-05
1.18351e-05
1.18842e-05
1.19333e-05
1.19817e-05
1.1763e-05
1.23157e-05
1.22426e-05
1.25091e-05
1.26113e-05
1.2694e-05
1.26658e-05
1.24642e-05
1.24182e-05
1.22039e-05
1.21412e-05
1.14278e-05
1.14204e-05
1.13978e-05
1.13902e-05
1.14128e-05
1.14097e-05
1.14026e-05
1.13431e-05
1.13526e-05
1.13272e-05
1.13084e-05
1.13121e-05
1.13341e-05
1.13554e-05
1.1361e-05
1.13666e-05
1.13867e-05
1.13787e-05
1.13707e-05
1.12668e-05
1.12858e-05
1.12968e-05
1.13421e-05
1.12433e-05
9.89862e-06
1.14427e-05
1.14396e-05
1.14375e-05
1.1432e-05
1.14436e-05
1.1448e-05
1.14514e-05
1.14605e-05
1.14645e-05
1.14743e-05
1.14714e-05
1.14651e-05
1.14771e-05
1.14824e-05
1.14862e-05
1.31687e-05
1.31054e-05
1.30947e-05
1.32969e-05
1.28002e-05
1.2905e-05
1.29498e-05
1.30416e-05
1.15487e-05
1.15825e-05
1.15962e-05
1.16386e-05
1.15106e-05
1.15032e-05
1.14862e-05
1.14927e-05
1.14855e-05
1.14816e-05
1.14793e-05
1.1675e-05
1.17134e-05
1.17332e-05
1.20569e-05
1.21144e-05
1.20294e-05
1.18143e-05
1.17819e-05
1.18493e-05
1.19101e-05
1.18727e-05
1.19577e-05
1.2005e-05
1.17523e-05
1.2343e-05
1.22678e-05
1.2549e-05
1.25975e-05
1.27449e-05
1.27105e-05
1.24624e-05
1.23945e-05
1.21845e-05
1.21557e-05
1.14232e-05
1.14194e-05
1.13939e-05
1.13905e-05
1.14108e-05
1.14066e-05
1.14001e-05
1.13395e-05
1.13486e-05
1.13248e-05
1.13034e-05
1.13139e-05
1.13329e-05
1.13563e-05
1.1363e-05
1.13672e-05
1.13852e-05
1.13813e-05
1.13713e-05
1.12492e-05
1.12826e-05
1.12923e-05
1.13142e-05
1.12637e-05
1.27774e-05
1.14386e-05
1.14351e-05
1.14334e-05
1.14282e-05
1.1444e-05
1.14391e-05
1.14472e-05
1.14516e-05
1.14561e-05
1.14617e-05
1.14687e-05
1.14663e-05
1.1463e-05
1.14707e-05
1.14773e-05
1.14796e-05
1.32462e-05
1.31289e-05
1.31416e-05
1.28509e-05
1.29417e-05
1.30201e-05
1.31213e-05
1.15302e-05
1.15637e-05
1.1601e-05
1.16254e-05
1.16584e-05
1.15131e-05
1.14955e-05
1.14931e-05
1.14753e-05
1.14813e-05
1.14774e-05
1.14745e-05
1.14704e-05
1.16949e-05
1.17234e-05
1.20738e-05
1.20995e-05
1.20531e-05
1.1816e-05
1.17938e-05
1.18585e-05
1.19121e-05
1.18878e-05
1.19589e-05
1.20094e-05
1.17669e-05
1.23168e-05
1.22406e-05
1.25544e-05
1.26465e-05
1.27445e-05
1.25043e-05
1.24211e-05
1.22015e-05
1.21411e-05
1.14234e-05
1.14154e-05
1.13959e-05
1.13868e-05
1.14065e-05
1.1412e-05
1.14046e-05
1.14011e-05
1.13402e-05
1.1347e-05
1.1321e-05
1.13284e-05
1.13031e-05
1.13123e-05
1.13363e-05
1.13554e-05
1.13619e-05
1.13641e-05
1.13809e-05
1.1366e-05
1.13749e-05
1.12537e-05
1.12849e-05
1.12736e-05
1.12948e-05
1.13983e-05
1.12761e-05
1.22516e-05
1.1435e-05
1.14321e-05
1.14293e-05
1.14407e-05
1.14362e-05
1.1443e-05
1.14474e-05
1.1453e-05
1.14554e-05
1.14606e-05
1.14599e-05
1.14583e-05
1.14664e-05
1.14726e-05
1.14733e-05
1.3289e-05
1.3215e-05
1.32233e-05
1.29139e-05
1.28104e-05
1.30098e-05
1.30868e-05
1.31813e-05
1.15261e-05
1.15568e-05
1.15929e-05
1.16361e-05
1.16624e-05
1.14941e-05
1.14833e-05
1.14825e-05
1.14728e-05
1.14683e-05
1.14717e-05
1.14655e-05
1.14612e-05
1.16992e-05
1.17394e-05
1.2113e-05
1.20652e-05
1.18376e-05
1.17901e-05
1.18892e-05
1.1942e-05
1.19099e-05
1.19018e-05
1.19887e-05
1.20404e-05
1.17627e-05
1.2344e-05
1.22664e-05
1.26012e-05
1.26973e-05
1.27374e-05
1.25012e-05
1.24641e-05
1.23908e-05
1.21806e-05
1.2153e-05
1.14207e-05
1.14143e-05
1.13926e-05
1.13878e-05
1.14054e-05
1.14094e-05
1.13992e-05
1.13437e-05
1.13501e-05
1.13201e-05
1.13276e-05
1.13007e-05
1.13087e-05
1.13162e-05
1.13381e-05
1.13532e-05
1.13592e-05
1.13846e-05
1.13785e-05
1.1367e-05
1.13749e-05
1.12438e-05
1.12825e-05
1.12712e-05
1.12938e-05
1.15313e-05
1.12472e-05
1.14809e-05
1.14319e-05
1.14281e-05
1.14262e-05
1.14375e-05
1.14401e-05
1.14333e-05
1.14435e-05
1.14478e-05
1.1454e-05
1.14569e-05
1.1454e-05
1.14538e-05
1.14607e-05
1.14679e-05
1.14668e-05
1.32936e-05
1.29589e-05
1.28441e-05
1.30675e-05
1.30244e-05
1.31689e-05
1.32537e-05
1.1511e-05
1.1543e-05
1.15733e-05
1.16146e-05
1.16616e-05
1.16415e-05
1.16885e-05
1.14905e-05
1.14812e-05
1.14697e-05
1.14707e-05
1.14618e-05
1.14586e-05
1.14644e-05
1.14669e-05
1.1458e-05
1.14628e-05
1.14553e-05
1.17347e-05
1.20965e-05
1.1845e-05
1.18202e-05
1.18696e-05
1.19584e-05
1.19405e-05
1.19305e-05
1.20029e-05
1.20496e-05
1.17864e-05
1.2316e-05
1.22295e-05
1.2615e-05
1.27193e-05
1.27951e-05
1.25492e-05
1.24726e-05
1.24073e-05
1.2193e-05
1.21449e-05
1.1423e-05
1.14176e-05
1.14119e-05
1.13929e-05
1.1404e-05
1.14075e-05
1.14092e-05
1.1401e-05
1.13966e-05
1.13456e-05
1.13489e-05
1.13229e-05
1.13322e-05
1.13043e-05
1.13086e-05
1.13165e-05
1.13436e-05
1.13368e-05
1.13538e-05
1.13568e-05
1.1385e-05
1.13794e-05
1.13727e-05
1.13654e-05
1.13773e-05
1.12527e-05
1.12398e-05
1.12879e-05
1.12762e-05
1.1266e-05
1.12984e-05
1.13613e-05
1.12564e-05
1.11856e-05
1.28902e-05
1.14284e-05
1.14291e-05
1.14253e-05
1.14352e-05
1.14363e-05
1.14301e-05
1.14311e-05
1.14393e-05
1.14457e-05
1.14491e-05
1.14511e-05
1.14489e-05
1.1449e-05
1.14584e-05
1.14618e-05
1.14608e-05
1.29621e-05
1.29085e-05
1.31451e-05
1.30872e-05
1.32351e-05
1.32989e-05
1.15217e-05
1.15541e-05
1.15749e-05
1.16236e-05
1.16886e-05
1.16696e-05
1.17065e-05
1.14791e-05
1.14659e-05
1.14601e-05
1.14606e-05
1.1455e-05
1.14617e-05
1.14507e-05
1.1455e-05
1.14495e-05
1.1761e-05
1.2114e-05
1.18662e-05
1.18094e-05
1.19852e-05
1.20294e-05
1.20806e-05
1.17828e-05
1.23427e-05
1.22472e-05
1.26749e-05
1.2594e-05
1.27721e-05
1.28141e-05
1.25199e-05
1.24514e-05
1.23884e-05
1.21646e-05
1.1421e-05
1.14183e-05
1.14136e-05
1.13913e-05
1.1405e-05
1.14064e-05
1.14085e-05
1.13996e-05
1.13972e-05
1.13507e-05
1.13234e-05
1.13322e-05
1.13034e-05
1.13122e-05
1.13203e-05
1.13444e-05
1.13396e-05
1.13595e-05
1.13823e-05
1.13887e-05
1.13738e-05
1.13678e-05
1.13801e-05
1.12485e-05
1.12264e-05
1.12871e-05
1.12729e-05
1.12665e-05
1.13004e-05
1.12315e-05
1.10568e-05
1.15992e-05
1.1426e-05
1.14262e-05
1.14223e-05
1.14322e-05
1.14359e-05
1.14279e-05
1.14285e-05
1.14379e-05
1.14411e-05
1.14466e-05
1.14498e-05
1.14474e-05
1.14445e-05
1.14447e-05
1.14535e-05
1.14553e-05
1.3039e-05
1.29311e-05
1.32265e-05
1.31103e-05
1.32797e-05
1.15514e-05
1.15207e-05
1.15989e-05
1.1651e-05
1.16917e-05
1.17102e-05
1.16718e-05
1.14607e-05
1.14963e-05
1.1455e-05
1.14488e-05
1.14501e-05
1.14454e-05
1.14559e-05
1.14496e-05
1.14424e-05
1.14511e-05
1.1441e-05
1.14438e-05
1.17494e-05
1.21105e-05
1.23399e-05
1.22079e-05
1.22977e-05
1.26797e-05
1.26274e-05
1.27915e-05
1.28741e-05
1.2546e-05
1.24769e-05
1.24101e-05
1.21725e-05
1.14202e-05
1.14164e-05
1.14114e-05
1.13932e-05
1.14038e-05
1.14065e-05
1.14013e-05
1.13958e-05
1.1352e-05
1.13288e-05
1.1336e-05
1.13082e-05
1.13142e-05
1.13247e-05
1.13488e-05
1.13434e-05
1.13397e-05
1.13614e-05
1.13839e-05
1.13895e-05
1.13775e-05
1.13714e-05
1.13665e-05
1.13806e-05
1.1255e-05
1.12339e-05
1.12928e-05
1.1283e-05
1.12759e-05
1.1264e-05
1.12991e-05
1.13068e-05
1.12308e-05
1.08585e-05
1.11528e-05
1.28571e-05
1.1423e-05
1.14244e-05
1.14304e-05
1.14323e-05
1.14256e-05
1.14268e-05
1.14341e-05
1.14397e-05
1.14428e-05
1.14459e-05
1.14416e-05
1.14404e-05
1.14409e-05
1.14493e-05
1.14501e-05
1.30473e-05
1.29937e-05
1.32857e-05
1.32001e-05
1.15858e-05
1.15509e-05
1.16234e-05
1.168e-05
1.17269e-05
1.16984e-05
1.14487e-05
1.14949e-05
1.14389e-05
1.1444e-05
1.1436e-05
1.14427e-05
1.14402e-05
1.14444e-05
1.14396e-05
1.14452e-05
1.14387e-05
1.17429e-05
1.21423e-05
1.23782e-05
1.27245e-05
1.26264e-05
1.28597e-05
1.27791e-05
1.2524e-05
1.26001e-05
1.24472e-05
1.14183e-05
1.14162e-05
1.14114e-05
1.13917e-05
1.14033e-05
1.14055e-05
1.14006e-05
1.13976e-05
1.13524e-05
1.13591e-05
1.133e-05
1.13374e-05
1.13134e-05
1.13222e-05
1.13255e-05
1.13513e-05
1.13472e-05
1.13445e-05
1.13875e-05
1.13811e-05
1.13741e-05
1.13694e-05
1.13855e-05
1.12532e-05
1.12288e-05
1.12961e-05
1.12855e-05
1.12745e-05
1.1268e-05
1.13062e-05
1.13148e-05
1.12187e-05
1.05525e-05
1.11785e-05
1.16026e-05
1.14207e-05
1.1422e-05
1.14278e-05
1.14314e-05
1.14238e-05
1.14244e-05
1.14337e-05
1.14365e-05
1.14398e-05
1.14414e-05
1.14422e-05
1.14367e-05
1.14369e-05
1.14385e-05
1.14437e-05
1.14446e-05
1.31202e-05
1.30167e-05
1.32023e-05
1.15881e-05
1.16225e-05
1.15798e-05
1.16749e-05
1.17054e-05
1.17204e-05
1.14623e-05
1.14349e-05
1.15428e-05
1.14296e-05
1.14332e-05
1.14286e-05
1.14337e-05
1.14317e-05
1.14393e-05
1.14351e-05
1.144e-05
1.14325e-05
1.26851e-05
1.29078e-05
1.2838e-05
1.25595e-05
1.2632e-05
1.24662e-05
1.14183e-05
1.14153e-05
1.14138e-05
1.14105e-05
1.13946e-05
1.14045e-05
1.14039e-05
1.14082e-05
1.1402e-05
1.1398e-05
1.13594e-05
1.13626e-05
1.13334e-05
1.13428e-05
1.13209e-05
1.13258e-05
1.13317e-05
1.13577e-05
1.13493e-05
1.13473e-05
1.13896e-05
1.13796e-05
1.13854e-05
1.13734e-05
1.13675e-05
1.13892e-05
1.12485e-05
1.12611e-05
1.12381e-05
1.1219e-05
1.13039e-05
1.12919e-05
1.12795e-05
1.12675e-05
1.13138e-05
1.13226e-05
1.1212e-05
1.09406e-05
1.07581e-05
1.12044e-05
1.2786e-05
1.14202e-05
1.14212e-05
1.1426e-05
1.1429e-05
1.14222e-05
1.14234e-05
1.14305e-05
1.14367e-05
1.14385e-05
1.1439e-05
1.14331e-05
1.14343e-05
1.14351e-05
1.14414e-05
1.30922e-05
1.29712e-05
1.32862e-05
1.16499e-05
1.16703e-05
1.16485e-05
1.15787e-05
1.16925e-05
1.14701e-05
1.14224e-05
1.15189e-05
1.14141e-05
1.14285e-05
1.14194e-05
1.14282e-05
1.14283e-05
1.14351e-05
1.14363e-05
1.14297e-05
1.14352e-05
1.14278e-05
1.27084e-05
1.29043e-05
1.28193e-05
1.25134e-05
1.26087e-05
1.26779e-05
1.14166e-05
1.14136e-05
1.1412e-05
1.13936e-05
1.14057e-05
1.14054e-05
1.14033e-05
1.14077e-05
1.14002e-05
1.13617e-05
1.13361e-05
1.13468e-05
1.13316e-05
1.13349e-05
1.13624e-05
1.13577e-05
1.1356e-05
1.13831e-05
1.13885e-05
1.13786e-05
1.13713e-05
1.13929e-05
1.12516e-05
1.12583e-05
1.12331e-05
1.12227e-05
1.13102e-05
1.12984e-05
1.12831e-05
1.12757e-05
1.13217e-05
1.13307e-05
1.12152e-05
1.12012e-05
1.10347e-05
1.01142e-05
1.12111e-05
1.19782e-05
1.1419e-05
1.14203e-05
1.14243e-05
1.14269e-05
1.14282e-05
1.14215e-05
1.14225e-05
1.14313e-05
1.14343e-05
1.14353e-05
1.14353e-05
1.143e-05
1.14325e-05
1.14334e-05
1.14308e-05
1.14331e-05
1.1436e-05
1.31454e-05
1.30056e-05
1.32326e-05
1.16802e-05
1.16678e-05
1.16425e-05
1.14432e-05
1.14084e-05
1.15423e-05
1.14051e-05
1.14194e-05
1.14144e-05
1.14106e-05
1.14203e-05
1.14214e-05
1.14313e-05
1.14302e-05
1.14247e-05
1.14305e-05
1.14211e-05
1.27595e-05
1.29585e-05
1.28757e-05
1.26402e-05
1.2693e-05
1.14161e-05
1.14138e-05
1.14151e-05
1.14121e-05
1.14135e-05
1.13962e-05
1.14073e-05