/*--------------------------------*- C++ -*----------------------------------*\
| =========                 |                                                 |
| \\      /  F ield         | OpenFOAM: The Open Source CFD Toolbox           |
|  \\    /   O peration     | Version:  v2012                                 |
|   \\  /    A nd           | Website:  www.openfoam.com                      |
|    \\/     M anipulation  |                                                 |
\*---------------------------------------------------------------------------*/
FoamFile
{
    version     2.0;
    format      ascii;
    class       volScalarField;
    location    "0.1";
    object      omega;
}
// * * * * * * * * * * * * * * * * * * * * * * * * * * * * * * * * * * * * * //

dimensions      [0 0 -1 0 0 0 0];


internalField   nonuniform List<scalar> 
13611
(
48.5049
48.0694
49.9571
48.9928
47.0366
51.0453
50.189
48.6611
45.9514
46.7838
52.4468
51.3748
47.5983
49.7355
44.9174
46.0046
52.6082
53.8285
51.6853
46.611
48.9856
51.0498
43.942
45.008
45.8497
54.0984
55.4032
53.1767
46.6772
47.7741
49.739
51.7453
42.9536
44.3605
44.7762
54.3137
55.4866
56.9982
53.1933
45.538
47.4842
49.5142
50.8941
51.4857
42.7943
42.0474
43.5586
44.5915
55.8476
57.0256
58.7505
54.2861
45.4179
48.4181
46.3942
50.5399
51.6495
52.8341
42.029
41.2174
42.7052
43.587
57.2705
55.7552
58.4696
60.6847
54.021
44.374
48.2512
46.1777
50.5739
52.6988
41.9985
41.2564
40.3613
42.6944
43.4888
58.7741
57.0409
60.0971
62.6836
55.2603
44.3371
47.0763
49.1898
45.2812
51.6271
53.9166
41.225
40.61
39.643
41.7353
42.4174
59.227
56.5997
58.3654
61.7746
63.1957
64.703
55.451
43.729
46.6051
48.8882
44.8979
51.0637
52.5535
53.8053
41.0437
40.6094
39.7852
38.7706
41.6032
42.1374
61.011
57.8497
59.1114
62.5417
65.4612
67.0095
56.9136
43.015
44.0311
45.526
47.3406
48.3669
50.1556
51.8864
55.3009
40.1216
39.8504
39.4373
38.3109
40.7874
41.5146
60.617
58.47
64.3607
67.331
65.6594
69.2438
56.9513
42.4616
43.2737
45.4865
46.4371
49.0887
50.2516
52.8812
55.5073
39.998
39.5628
38.7086
37.6109
40.3206
40.7206
41.7162
62.1037
60.1113
65.3093
69.5323
67.7381
71.8636
58.6743
42.517
43.5458
44.6261
46.8611
48.2331
51.2439
54.2459
52.3925
57.179
39.41
38.7408
38.3454
37.2664
36.98
39.5378
40.0955
41.271
64.3776
61.5826
60.3047
67.7014
71.637
69.5004
74.6848
58.8371
41.6205
42.9851
44.5756
46.5237
48.6898
50.822
54.296
53.1146
57.1315
38.6617
38.2728
37.6342
36.5893
36.3627
39.0366
39.3414
40.3965
66.1307
63.1611
61.9923
69.5853
73.9107
71.6999
77.3683
60.492
41.4525
43.4568
42.1977
45.4602
47.3983
48.4291
49.9567
52.0179
55.5994
58.8703
38.1653
37.4377
37.1581
36.1542
36.1633
35.767
38.3738
38.664
40.0568
65.0359
68.4539
62.9695
69.6038
72.2924
76.3218
80.0021
77.9343
62.0484
60.4255
40.6742
43.1073
41.5172
45.3395
47.0993
49.2375
50.3086
52.5759
55.8643
58.9961
37.4467
37.0509
36.4447
35.5034
35.492
35.3115
37.7278
38.6014
37.9223
39.2882
66.3525
70.0499
65.2377
72.3973
74.8786
77.9201
83.0626
80.9413
63.2686
61.9722
40.7701
42.3615
43.8922
41.6014
46.1736
44.6197
47.943
49.1529
51.386
53.9766
57.6209
55.1796
60.7947
37.2308
36.2721
35.9612
35.1688
35.1396
34.715
37.9418
37.3979
39.3165
68.9002
72.5677
66.4132
74.5635
77.7066
81.3898
86.1749
65.0917
62.8589
40.1084
42.554
43.2982
40.8531
45.343
44.5885
47.7614
50.1464
51.3695
53.788
57.5625
56.1386
60.4889
62.4714
36.6731
35.8235
35.382
34.5139
34.5355
34.2866
37.4396
37.6102
36.7553
38.7317
70.5582
74.9996
68.7511
77.1887
80.5966
84.4415
87.6087
88.9823
66.0284
64.9514
40.0974
41.8521
43.6009
40.5956
45.7351
48.856
46.9031
49.9291
52.4942
54.8626
58.8537
56.0367
61.9892
64.08
36.1553
36.3722
35.2815
34.7031
34.2111
34.3046
33.6695
36.9267
36.9934
38.0184
36.5132
38.8885
73.1799
75.305
77.7179
69.6095
79.7014
83.396
85.3822
91.0881
93.5243
68.3209
65.9769
39.5874
41.8041
41.075
43.2932
39.8004
44.9875
48.9181
47.209
50.9431
52.0205
55.0403
58.651
57.287
61.8083
63.9563
35.7052
35.7774
34.6651
35.2642
33.5943
33.7281
33.1749
33.3183
36.5413
37.4397
35.9812
38.3983
73.7333
78.333
80.598
72.3673
82.3062
84.986
89.3038
92.4679
93.6881
97.8462
69.7057
67.9504
40.8955
42.4848
40.5603
44.0686
39.3954
45.3744
50.03
48.2032
46.3967
50.9797
52.9167
54.176
56.5108
60.0146
63.3856
65.8881
35.2472
34.1374
34.7812
33.3678
33.377
32.6035
32.7993
35.9381
36.7797
37.6406
35.3824
38.6316
76.8457
81.2079
83.3471
74.0821
88.1958
92.4474
96.5567
97.8971
103.023
72.224
68.6997
40.8986
42.6309
39.7824
43.4361
44.9063
49.8639
48.6315
46.4125
52.0112
54.8432
57.3029
59.0747
65.2882
63.3178
67.9506
34.6976
33.6077
34.2643
32.7872
32.8064
32.3812
32.5155
35.4627
36.1853
37.1776
34.7952
38.186
78.8452
84.2117
86.8323
77.0224
91.2425
96.0053
98.9725
102.209
108.852
73.1628
71.362
39.9387
41.7402
39.4141
43.8848
45.3997
50.7172
48.3511
47.2578
52.554
54.0251
56.4063
60.0767
66.8828
65.4815
62.0361
69.6807
34.2179
33.0652
33.7518
32.5015
32.6719
31.9827
32.0834
34.8251
35.6046
36.0681
36.5864
37.5044
34.2767
38.5819
82.1239
86.5886
85.7296
90.3097
78.6905
95.8744
98.1972
103.194
106.703
115.174
76.2669
72.1597
39.5695
41.7509
43.4311
44.9784
50.53
51.8618
49.3322
46.774
54.7342
57.1949
58.893
69.1826
66.516
62.8289
33.6949
33.1834
31.9769
32.1588
31.5919
31.6994
34.4454
35.1822
35.5481
36.2121
36.9496
33.7812
37.9663
83.6883
84.3069
90.2181
89.9944
93.6721
82.1725
98.9797
103.277
105.246
111.9
122.464
115.468
77.3684
74.649
38.9236
40.2062
40.9612
42.6659
44.0468
45.655
51.4961
52.5577
48.8237
47.5074
53.825
56.2751
59.571
71.4128
64.7452
68.6217
61.3626
33.2472
32.7027
31.806
31.6087
31.9176
31.2035
31.2089
31.2541
33.9935
34.6756
35.1427
35.6174
36.4021
36.765
33.6288
33.3249
37.2185
38.2159
87.1916
87.7633
93.3554
93.2874
97.4208
84.5883
104.433
106.522
110.83
115.132
130.824
122.816
80.716
75.1888
38.9382
39.5097
41.0657
42.6741
43.4618
45.1672
52.0262
49.7152
47.1252
54.5072
57.0249
58.6823
70.5572
74.043
64.9115
68.5115
61.7245
32.7276
32.2051
31.3267
31.0788
31.4051
30.7573
30.7817
30.921
33.6422
34.4633
34.7151
35.308
36.018
36.1503
33.2511
32.9269
36.8862
37.8683
90.0226
91.6374
96.9147
97.9046
100.655
83.8538
88.751
108.32
112.174
121.466
140.571
130.04
80.7981
78.3642
38.2412
39.6962
41.8768
40.4483
44.014
45.8748
53.6116
51.1237
49.1655
47.9678
56.1165
59.5652
72.5263
75.7771
63.6247
66.9836
70.8033
61.2425
32.385
31.8158
30.9515
31.1182
31.1714
30.4225
30.3859
30.5323
33.7163
33.2789
34.0747
34.3568
34.89
35.5753
35.9083
32.893
32.5272
36.276
37.239
93.8429
94.8741
102.477
105.191
87.5905
91.4491
114.073
117.916
127.442
150.262
138.43
84.0541
78.5154
37.7413
39.5718
41.7432
40.1827
43.3913
45.5554
54.3845
51.7199
49.8982
47.4124
56.9432
58.7129
75.024
64.3539
67.6934
71.8901
62.5923
31.9105
31.404
30.543
30.6165
30.7645
29.9505
29.9424
30.0755
33.2906
32.9611
33.9402
34.4909
34.7849
35.1495
35.3022
32.5732
32.202
35.9146
36.6861
96.9675
99.544
103.256
107.066
108.493
91.4703
87.5003
95.5781
117.175
117.814
125.292
136.266
161.351
151.114
147.399
84.0879
80.9937
38.1244
36.8797
39.0337
42.4799
40.8144
43.9043
46.4402
44.7472
55.989
53.2102
51.1476
49.2938
48.0722
59.705
77.2988
66.1553
69.9088
74.6244
61.7735
31.6611
31.0546
30.1169
30.3441
30.4487
30.5708
29.6991
29.7321
29.5447
33.0424
32.9802
32.617
33.6581
34.1255
34.3033
35.0392
32.2318
31.8832
35.3941
36.1059
101.347
108.837
112.065
115.159
95.5303
91.4387
98.9059
124.151
125.178
132.865
143.948
173.728
163.793
154.976
87.0601
80.4147
37.6839
36.4745
39.2418
42.3258
40.7171
43.0062
45.7122
44.8387
56.8908
53.3016
51.8803
50.0242
47.3186
58.7448
77.344
67.0545
70.3091
74.3062
63.1331
31.3741
31.0726
30.742
29.7995
29.9083
30.1242
30.2612
29.3288
29.3161
29.2684
32.6532
33.2689
32.6182
32.3708
33.7882
33.9863
34.1666
34.6002
31.9431
31.6181
35.0777
35.5859
106.16
112.419
118.149
120.334
98.1984
90.2816
95.2845
104.137
130.017
132.022
141.882
154.183
166.568
86.6098
83.1966
38.0716
36.8968
35.8937
38.7807
40.0149
41.4911
43.0842
46.1146
44.0783
56.7997
54.5287
51.3507
49.9796
47.7269
59.6995
80.1661
69.4024
65.4544
72.6226
76.7654
61.5094
31.3588
30.7598
30.4722
29.3578
29.6206
30.0486
29.7615
30.218
28.9419
28.9241
28.9018
32.4193
32.5663
33.1075
32.3765
32.0267
33.5744
33.6611
33.8786
34.3999
31.6337
34.624
35.172
35.4745
111.687
119.751
123.806
128.08
103.357
93.0122
97.2185
108.613
138.777
140.172
150.588
165.24
176.097
89.8371
82.57
37.5662
36.553
35.4046
39.0393
39.7866
41.2236
42.6507
45.836
43.9358
55.9966
58.4536
53.5119
52.1667
48.8667
51.167
46.6336
81.4063
70.9184
66.5959
73.2945
79.3678
75.3048
62.1355
31.0848
30.482
30.7904
29.0256
29.1602
29.7777
29.5987
29.9845
28.6549
28.4975
28.573
32.1378
32.798
32.2616
33.2869
32.1005
31.9064
33.3777
33.5345
34.0251
31.3955
34.4701
34.7506
35.0272
117.32
123.972
132.254
134.482
107.782
101.946
96.9122
114.968
147.163
149.742
162.175
176.216
91.9218
85.848
36.9416
37.8366
36.0003
34.9963
35.4811
38.6228
40.3113
41.8414
43.145
44.7608
56.9381
58.5733
54.1754
48.916
51.7962
46.7348
84.499
69.66
65.9335
80.6538
76.921
64.1643
60.1738
31.0761
30.2263
30.5524
28.6488
28.9116
29.5949
29.3573
29.7053
29.9853
28.3328
28.2386
28.3798
28.169
32.0712
31.8711
32.6306
32.1498
33.0426
31.8441
31.6467
33.0791
33.2958
33.2907
33.7256
31.4217
34.0967
34.679
119.254
132.026
139.592
144.305
112.889
105.803
101.033
118.862
159.982
160.47
173.779
97.1777
88.9151
36.3595
37.363
35.8795
34.6345
34.9901
39.0147
39.9008
41.6872
42.5174
44.2821
55.9749
53.4102
47.8322
50.0474
51.1582
45.8957
86.3609
71.484
68.1099
80.1462
84.4024
74.6907
64.594
60.534
30.9869
30.1274
30.5592
30.2954
28.3066
28.6646
29.1174
29.3142
29.504
29.8113
27.9401
27.9022
27.9892
27.8233
27.9241
31.7972
31.6949
32.3268
32.7624
31.8827
31.533
31.446
32.8835
32.971
32.9799
33.3832
33.7689
31.1793
33.954
34.2828
127.851
139.587
134.373
149.773
152.801
111.789
105.802
101.514
125.39
172.332
98.1253
89.8384
36.5501
37.721
35.2298
34.3473
34.2855
34.8075
34.5433
38.5684
40.4185
41.2616
42.6119
45.0228
43.395
56.7987
54.2641
47.8
49.8751
52.0233
45.9853
70.446
66.7003
82.7941
86.4242
75.9696
62.9362
59.7613
30.7612
29.8731
30.3289
30.1806
28.3401
27.969
28.6847
28.8913
29.1533
29.5644
29.264
27.7115
27.7591
27.4437
27.4428
31.7055
31.4901
32.1723
32.5509
31.6954
31.3734
31.2232
32.6171
32.8169
32.7727
33.1289
33.3859
31.0874
33.6198
130.461
149.801
144.641
158.198
165.004
117.66
110.783
106.988
128.913
93.5467
103.179
36.0771
37.2753
34.9597
33.9542
33.9635
34.3083
34.2001
39.015
39.9024
41.6987
44.4317
43.5583
55.7221
58.3331
53.2571
46.8192
48.8108
50.8906
44.8835
72.3168
67.9874
81.8965
89.8432
79.1797
74.9768
62.9751
61.0606
30.7038
29.7239
30.3016
30.0011
28.1445
27.6793
28.4838
28.7664
28.9004
29.41
29.0829
27.3926
27.3796
27.0856
27.427
31.4879
31.2766
32.3252
31.9697
31.4566
31.7605
31.1608
30.9994
32.425
32.521
32.4705
32.8484
33.1304
33.2894
30.8653
33.6466
139.418
158.077
152.973
147.701
167.902
173.452
125.414
116.411
110.413
138.683
94.3148
103.27
107.941
36.4465
35.4393
37.6649
34.4346
33.6909
33.8751
33.8373
38.5212
40.3483
41.3096
42.7698
56.1959
57.7906
53.9055
46.8871
48.7072
50.9211
44.773
70.8814
67.0419
85.4226
93.4516
89.1015
79.8302
76.8814
64.7673
60.5313
30.4825
29.5025
29.8063
30.086
29.9477
27.954
28.2928
27.3154
27.6889
28.4861
28.7713
29.2337
28.8755
29.0854
27.1087
27.1436
26.7572
26.5311
31.3607
31.2845
31.1025
32.1407
31.9481
31.3065
31.5551
30.9723
30.82
32.1811
32.337
32.3261
32.693
32.8226
33.01
33.3038
167.608
165.015
160.277
175.06
131.502
122.18
118.312
147.229
99.7837
108.244
112.862
36.1184
34.9072
37.3063
34.403
33.9553
33.2794
33.4241
33.4502
38.9149
40.3421
41.8815
42.8992
55.5847
58.7718
53.4378
45.7839
47.8414
49.7837
52.1017
43.8074
72.4775
68.8528
85.559
96.876
92.7442
82.5033
75.6575
63.9557
61.9139
30.3674
29.4167
29.6835
30.0333
29.752
27.9595
28.1127
27.1346
27.5022
28.3961
28.5697
29.1399
28.7965
28.917
26.7102
26.7282
26.3257
26.5716
27.6629
31.122
31.0907
30.913
31.7683
31.1298
31.3634
31.5613
30.7521
30.6275
32.0104
32.0889
32.4784
32.1195
32.5898
32.7001
33.0393
173.335
172.601
159.527
140.492
129.659
123.143
147.457
100.721
109.419
119.213
35.5315
36.5952
34.9478
37.696
34.0057
33.4689
33.1525
33.2108
33.0325
38.3592
39.6968
41.1499
42.0538
56.6187
58.2423
54.5876
45.4779
48.2509
49.5555
51.8432
43.6253
71.5339
67.7831
89.0174
96.1192
94.5545
82.6687
77.7604
65.4271
61.1495
30.464
30.185
29.5295
29.2357
29.88
29.6367
27.7777
27.9729
27.2909
26.9595
27.5938
28.2228
28.4369
28.9502
28.6356
26.5059
26.5482
25.6676
26.2989
25.9482
31.0052
30.9153
30.7287
31.793
30.9943
31.191
31.3738
30.582
31.8679
32.2722
31.8808
32.1072
32.2511
32.5478
32.7168
173.062
144.48
135.791
131.779
160.421
104.575
115.313
124.203
35.3627
36.3589
34.4701
37.308
34.0316
33.4906
33.0584
32.8425
32.8237
32.7299
38.4427
39.7539
41.2348
41.9791
56.0744
59.3796
54.2417
44.4461
46.3639
47.5765
50.5295
52.9348
42.7745
73.6059
69.2854
86.1708
92.3847
100.502
98.955
80.9188
76.6098
64.4242
62.3556
30.2812
30.1536
29.3827
29.2362
29.8472
29.7207
29.4554
27.7408
28.0515
27.1336
26.743
26.9755
27.3938
28.1818
28.2851
28.4785
28.8675
28.5922
26.1526
26.2932
25.7057
26.0916
29.376
30.8482
30.7094
30.5432
31.6351
30.8443
31.0272
31.1936
31.4143
30.3889
31.6679
32.099
31.7046
31.8961
32.1366
32.326
32.5939
153.197
137.082
136.485
162.042
115.209
122.026
133.12
34.6689
35.7565
36.7401
37.6501
33.5708
33.2613
32.6268
32.5284
32.5146
32.382
39.0564
40.469
41.224
57.1267
58.6887
55.311
44.2234
45.868
48.2757
50.4751
52.8714
42.7679
72.0352
68.0914
86.3668
94.8239
102.183
99.6992
82.5879
78.8041
65.747
61.4551
30.2343
29.971
29.3309
29.1173
29.7019
29.6348
29.4026
27.661
27.9527
27.1951
26.6495
26.7739
27.3446
28.0256
28.1786
28.3504
28.9917
28.7198
28.4401
25.8913
26.0017
26.2739
25.6544
25.7172
13.2351
30.6952
30.5946
30.5453
30.3708
30.7116
30.8704
31.0119
31.3389
31.4782
31.8429
31.7273
31.499
31.9504
32.1403
32.2704
156.043
147.631
146.078
174.429
112.497
123.614
128.583
139.478
34.4374
35.584
36.0622
37.6289
33.1271
32.8747
32.3108
32.5293
32.2472
32.1361
32.0685
39.0419
40.4768
41.2853
56.5431
59.6988
55.3288
44.9884
43.557
46.5141
49.4693
47.5905
51.712
54.0984
42.0781
73.6411
69.4994
89.5887
93.6012
107.068
103.772
82.396
77.074
64.6276
62.5531
30.0434
29.9006
29.163
29.069
29.5667
29.5069
29.2617
27.5056
27.7959
27.0409
26.4599
26.7302
27.2231
28.0281
28.2147
28.3383
28.8976
28.7557
28.3508
25.5784
25.8135
26.0821
24.0943
25.5265
67.2942
30.5192
30.4123
30.373
30.2135
30.7204
30.5303
30.8526
31.0125
31.1758
31.3786
31.6527
31.5413
31.4267
31.7249
31.9595
32.0494
167.044
150.44
152.121
117.725
127.57
136.861
149.687
33.8203
34.9365
36.2157
37.0354
38.3862
33.2578
32.6151
32.5374
31.9578
32.1555
31.9777
31.8931
31.7798
39.7697
40.6483
57.4836
58.8535
56.5153
44.5912
43.8008
46.0631
49.5705
48.0586
51.6174
54.1278
42.3093
72.2157
68.1326
90.0444
97.8287
106.958
85.8759
79.1911
65.8194
61.4823
30.0395
29.7205
29.1433
28.9249
29.4059
29.5739
29.382
29.2561
27.4463
27.6832
26.8926
27.0711
26.3604
26.5996
27.278
27.948
28.124
28.1804
28.6717
28.1778
28.427
25.4007
25.879
25.5598
26.0544
25.6862
25.381
39.9825
30.3888
30.2982
30.2295
30.5936
30.405
30.6949
30.852
31.0657
31.1527
31.3717
31.3318
31.2493
31.5813
31.8049
31.8374
173.131
162.429
163.585
124.584
113.575
135.647
145.01
157.735
33.6073
34.6635
35.7557
37.2354
38.5009
32.6372
32.2188
32.1896
31.8787
31.7214
31.7809
31.5952
31.4739
39.852
40.8581
59.6824
57.106
45.0961
43.1238
46.6898
50.6371
49.0554
47.7048
52.7973
55.5986
41.607
73.8276
69.3602
93.9214
102.45
106.191
85.598
82.6724
76.8988
64.4183
62.4029
29.9153
29.658
28.9805
28.8711
29.2947
29.422
29.1368
27.5345
27.7258
26.7704
26.9508
26.2126
26.4642
26.6244
27.2544
27.838
28.0159
28.733
28.5603
28.1129
28.3339
25.1143
25.7091
25.4342
25.9042
26.7801
25.0347
24.9121
30.2456
30.1289
30.0809
30.455
30.5759
30.2754
30.7072
30.8725
31.0985
31.2451
31.1193
31.0971
31.3795
31.6392
31.6154
173.871
129.632
116.916
142.534
137.494
156.001
168.066
33.0389
34.0873
35.1283
36.09
38.0439
36.8437
39.2875
32.4938
32.195
31.7664
31.8053
31.5242
31.4048
31.5333
31.612
31.3609
31.4869
31.2876
40.2761
58.7093
44.1806
43.231
45.6818
50.4256
49.5262
48.4469
52.8172
55.769
41.5605
71.9208
67.1526
95.1268
104.542
111.878
89.6559
83.5094
78.1954
65.1259
61.7798
29.9608
29.7771
29.5226
28.9208
29.1718
29.3138
29.3956
29.0937
29.0172
27.5126
27.6094
26.7924
26.9945
26.2047
26.3311
26.5175
27.3825
27.1252
27.7867
27.8702
28.6418
28.4892
28.2148
27.9934
28.3666
25.0623
24.9329
25.7315
25.5405
25.25
25.9265
25.1114
24.8545
22.5875
79.3789
30.1179
30.1074
30.0167
30.3688
30.4234
30.1387
30.1859
30.5373
30.7891
30.9101
31.0382
30.9393
30.9096
31.3081
31.4322
31.4092
129.84
123.861
152.781
145.236
165.09
174.673
33.088
34.1768
34.7483
35.8304
38.467
37.2667
39.5552
31.9765
31.6984
31.4742
31.4816
31.2972
31.4416
31.115
31.2156
31.0983
40.1175
59.7411
44.462
42.347
51.4415
54.1921
57.4853
40.7383
73.131
67.4067
100.506
93.3616
109.702
113.771
87.3787
81.742
76.244
63.0927
29.8294
29.7435
29.5093
28.8026
29.1128
29.1851
29.3071
28.9644
28.9334
27.6455
26.7086
26.8771
26.0808
26.358
26.561
27.2938
27.0812
27.8463
28.5225
28.6877
28.119
27.9436
28.3407
24.8705
24.606
25.5901
25.3758
25.2336
25.8495
24.5602
21.3388
26.7931
29.9749
29.9515
29.8659
30.2337
30.4027
30.0266
30.0523
30.4784
30.6099
30.8133
30.9932
30.8961
30.7689
30.7579
31.1311
31.223
139.022
126.373
164.012
148.051
171.646
33.6988
32.6146
35.1092
36.2188
37.9773
39.1584
36.824
31.4908
32.0591
31.3485
31.1086
31.1454
30.9894
31.239
31.0491
30.842
31.0762
30.8109
30.9138
39.4686
59.2615
72.3214
65.0895
69.9148
100.956
96.2365
111.723
120.196
89.4534
83.7952
77.5233
63.0615
29.7689
29.6091
29.3745
28.7576
28.9801
29.1888
28.9069
28.8208
27.5626
26.7683
26.8601
26.0552
26.2732
26.5526
27.3515
27.1759
26.9668
27.7676
28.4352
28.6119
28.1323
28.0016
27.8295
28.2472
24.9065
24.6188
25.6182
25.4498
25.3214
25.0859
25.7473
25.9197
24.528
19.3007
23.0643
78.3684
29.8578
29.8507
30.1534
30.2379
29.8987
29.961
30.3088
30.5467
30.6575
30.8464
30.6821
30.6272
30.5994
30.9995
31.0433
139.942
133.632
172.664
160.215
33.8301
32.7835
34.9186
35.9123
38.1349
36.8921
31.0228
31.6103
30.8623
30.9515
30.7006
30.9067
30.81
30.8683
30.7311
30.8708
30.745
38.8415
61.0157
74.6177
105.13
96.1764
118.824
110.438
87.658
93.961
80.7982
29.6434
29.5405
29.2813
28.6442
28.906
29.0847
28.8003
28.7551
27.4602
27.6521
26.6601
26.7571
26.1515
26.3468
26.4539
27.2562
27.1643
26.9675
28.4928
28.0665
27.9374
27.7682
28.2328
24.7702
24.4456
25.5423
25.3579
25.1882
25.0515
25.7104
25.9105
24.2779
16.9537
23.3006
26.779
29.708
29.7086
30.0128
30.1872
29.7867
29.8127
30.2798
30.4012
30.5232
30.6718
30.7313
30.4791
30.4654
30.484
30.7995
30.8523
149.421
136.512
160.488
33.4052
34.422
32.5965
35.416
36.2082
37.4795
31.0827
30.7072
31.623
30.5482
30.6057
30.4608
30.6144
30.5347
30.6845
30.5698
30.6846
30.5398
101.497
123.97
116.365
90.3329
96.6389
82.1983
29.6082
29.4558
29.328
29.1561
28.5777
28.9874
28.8156
29.0747
28.7
28.6324
27.4805
27.5831
26.648
26.7694
26.14
26.2319
26.4463
27.2787
27.0742
26.8769
28.4227
27.9746
28.1167
27.8229
27.6444
28.315
24.6269
24.7862
24.4792
24.2348
25.5916
25.4115
25.217
24.9186
25.7872
26.0192
24.0416
20.2365
18.0217
23.6989
76.7256
29.6271
29.6336
29.9079
30.0588
29.6801
29.7281
30.1227
30.3969
30.5635
30.6046
30.3375
30.3412
30.3281
30.731
146.01
131.169
172.768
33.4164
34.4103
32.9936
32.1115
34.9088
30.726
30.2891
31.0328
30.0814
30.4534
30.1628
30.4315
30.4124
30.5487
30.5713
30.3968
30.5014
30.3679
103.598
123.558
114.49
86.5789
94.4946
100.765
29.4978
29.2468
29.0557
28.4655
28.9343
28.8385
28.7157
28.9729
28.5996
27.3874
26.5538
26.6853
26.2429
26.3699
27.1895
27.0883
26.8946
27.879
28.0721
27.7954
27.573
28.2316
24.5415
24.6187
24.3002
24.1676
25.5252
25.3261
25.1309
24.9694
25.7224
26
23.965
23.831
20.9639
13.9756
23.687
33.5577
29.4938
29.5264
29.7946
29.9385
30.0148
29.572
29.6379
30.1291
30.2733
30.4303
30.4627
30.2023
30.3139
30.2669
30.2123
30.23
30.5359
152.828
135.125
164.957
33.8946
32.5714
32.1021
30.2986
29.9456
30.7686
29.7786
30.1597
30.002
29.8906
30.1732
30.1875
30.4056
30.3409
30.2038
30.3329
30.1394
108.521
129.554
120.403
97.0944
102.038
29.3934
29.1677
29.2953
28.9457
29.0708
28.3701
28.7747
28.6163
28.9084
28.5189
27.3835
26.5781
26.7082
26.2121
26.4002
27.2079
26.9973
26.8135
27.8906
27.9816
28.1394
27.713
27.4775
27.6211
28.26
24.4167
24.6031
24.2754
25.384
25.5873
25.1869
24.8861
25.7925
26.1209
25.9154
23.8607
23.5831
22.5003
16.8239
23.5456
30.6163
29.4462
29.3895
29.4993
29.727
29.8425
29.8787
29.4879
29.5349
29.6341
30.0098
30.3745
30.3973
30.0943
30.1464
30.129
30.1017
30.1108
143.765
173.264
31.6633
29.8608
29.5913
30.3362
31.1467
29.4472
30.0281
29.731
29.6106
30.0614
30.0485
30.2451
30.256
30.0651
30.1662
106.251
133.86
128.128
117.181
29.1407
29.1987
28.8685
29.0138
28.3594
28.6945
28.8117
28.5347
28.6124
28.4327
27.3025
26.4959
26.6466
26.3025
27.1794
27.0001
26.82
27.7943
27.9707
28.0575
27.7128
27.4632
27.5431
28.2061
24.3005
24.7533
24.4873
24.1616
25.3326
25.5408
25.0958
24.9597
25.7454
26.1226
25.9494
23.7336
24.0277
23.3689
23.5368
23.144
16.2066
23.3832
18.1983
29.3503
29.2658
29.3952
29.7494
29.7976
29.3639
29.4666
29.5749
29.8747
30.0006
30.2407
30.2207
29.9912
30.1144
30.054
30.0002
143.97
173.224
29.5261
29.6151
29.1961
30.3402
29.8774
30.7474
29.3807
29.1548
29.786
29.5344
29.6222
29.8441
29.8511
30.125
30.1237
29.8927
30.1076
30.0152
110.552
134.745
130.3
122.382
29.0532
29.1801
28.9071
28.7879
28.2568
28.6442
28.761
28.4501
28.5409
28.3943
27.2373
26.534
26.678
26.3098
27.0988
26.9167
26.7586
27.7658
27.9054
28.0522
27.6313
27.3976
27.5516
28.1271
24.34
24.1742
24.6995
24.4889
25.2518
25.4319
25.6259
25.1376
24.9028
25.8177
26.0527
26.218
25.9148
23.7845
23.9278
23.1582
23.4279
20.5574
23.2071
29.2433
29.3259
29.3191
29.631
29.6738
29.3188
29.4937
29.3783
29.7715
29.9026
30.1543
29.8575
29.9866
29.9267
29.8675
152.685
164.675
29.1642
29.0551
28.9712
29.9409
29.4969
29.1495
28.8074
29.6993
29.2782
29.3889
29.7475
29.7212
29.9917
29.9576
29.7437
29.866
29.9196
29.9009
29.8794
144.658
138.779
29.0025
29.0592
28.8592
28.7039
28.2459
28.6767
28.5561
28.4598
28.3221
27.2978
26.5099
26.5855
26.4193
27.0794
26.9055
26.8039
27.6841
27.8269
27.9192
27.9814
27.617
27.4
27.4695
28.0783
24.2947
24.0742
24.5901
24.7799
24.3792
25.2705
25.3762
25.6049
25.0828
24.9707
25.7954
26.0594
26.217
25.9724
23.6951
23.9379
22.942
23.2254
23.533
29.186
29.2402
29.229
29.579
29.5997
29.2134
29.3993
29.3421
29.6528
29.7887
30.0084
29.8526
29.7885
29.9283
29.8273
172.512
28.88
29.0561
28.6282
29.5267
29.1054
28.9139
28.5353
28.7213
29.4988
29.2101
29.3305
29.5718
29.5577
29.8934
29.5868
29.7036
29.883
29.7241
29.7507
148.321
28.9189
29.0133
28.7882
28.6491
28.6627
28.1876
28.5179
28.3912
28.2757
27.2753
26.5812
26.3888
27.1533
26.9801
26.7668
27.6588
27.7936
27.8446
27.9926
27.5541
27.3365
27.4696
28.1154
24.1737
24.0669
24.5557
24.7632
24.4195
25.2371
25.4168
25.701
25.5134
25.1478
24.9632
25.8783
26.1341
26.2999
25.9734
23.7384
23.8717
23.1216
23.4566
29.1014
29.1651
29.1682
29.1581
29.4964
29.5142
29.196
29.3377
29.2696
29.5599
29.6843
29.7413
29.6724
29.7937
29.7149
160.458
28.4579
28.6768
28.3172
29.1731
28.868
28.7555
28.2566
28.4751
29.4407
28.9915
29.1368
29.4811
29.4962
29.7465
29.5746
29.6493
29.7381
29.6632
29.6501
29.6239
28.8265
28.9408
28.7159
28.7648
28.5705
28.5698
28.1985
28.4468
28.3903
28.3128
27.2234
26.6866
26.5423
26.456
27.1164
26.9715
26.8324
27.5851
27.713
27.8319
27.9593
27.5367
27.2841
27.4359
28.0719
24.0972
23.9388
24.6414
24.8585
24.3711
25.3127
25.6871
25.5155
25.0587
25.8604
26.1409
26.2893
26.0598
23.6741
22.8577
23.2229
22.9893
23.5524
23.3526
29.0502
29.081
29.0883
29.0856
29.3945
29.4195
29.1263
29.2131
29.1895
29.4429
29.5219
29.655
29.5868
29.6417
29.5595
29.7016
29.5851
28.1071
28.7395
28.1838
27.9934
28.8688
28.8214
28.5556
27.9683
28.2457
28.3107
29.297
28.9658
29.1286
29.3256
29.3408
29.4166
29.4907
29.6164
29.5245
29.5005
29.5093
28.8434
28.9648
28.6553
28.6781
28.5302
28.5365
28.1575
28.4018
28.318
28.2777
27.2234
26.6808
26.6042
26.4348
27.0515
27.1581
26.9111
26.8091
27.5422
27.7098
27.8985
27.7899
28.0062
27.4796
27.3162
27.3839
28.0958
24.1447
23.9708
23.8922
24.5947
24.83
24.4665
24.2586
25.3434
25.6104
25.766
25.4616
25.0302
25.9494
26.2214
26.363
26.0858
23.7533
23.1249
22.9389
23.4901
23.3606
29.0154
29.0177
29.0184
29.3525
29.1196
29.0461
29.1803
29.3624
29.4301
29.5496
29.5171
29.5319
29.4449
29.5717
29.5104
27.6597
28.4396
27.8467
27.621
28.5045
28.6112
28.366
28.4657
27.7594
28.0605
28.0903
29.2428
28.7752
29.0319
29.2511
29.2952
29.3768
29.4115
29.4792
29.44
29.4114
28.7858
28.912
28.5854
28.645
28.4423
28.4713
28.201
28.3257
26.7415
26.5797
26.5004
27.0413
27.1729
26.9202
26.8526
27.471
27.5537
27.704
27.8686
27.8138
27.9822
27.4391
27.2428
27.3799
28.0272
24.0405
23.9532
24.6771
24.7899
24.9359
24.4415
24.2431
25.2934
25.6021
25.7672
25.5078
25.1306
25.9259
26.0423
26.2389
26.3174
26.1871
23.738
23.1516
23.0032
23.5357
23.3455
28.9384
28.9397
28.9461
29.2623
29.0394
28.9736
29.097
29.2571
29.3582
29.3654
29.4112
29.4868
29.4337
29.337
29.4663
29.416
27.357
28.0194
27.435
27.3815
28.23
28.5929
28.1614
28.2711
27.8322
27.5263
27.9363
29.0991
28.7429
28.8882
29.1229
29.1649
29.2489
29.2895
29.3858
29.3021
29.2998
28.7132
28.8274
28.5157
28.5857
28.4123
28.4302
28.1442
28.2732
26.7025
26.6284
26.4823
26.9769
27.1019
26.8367
27.4819
27.6055
27.7705
27.6655
27.9099
27.2432
27.3304
28.0205
24.0374
23.8508
24.6453
24.8744
24.9636
24.3348
24.5368
24.1383
25.2273
25.375
25.678
25.8505
25.4771
25.0554
25.9917
26.0961
26.3576
26.2213
23.6407
23.2705
23.0756
22.9243
23.4487
28.8832
28.8764
28.8896
29.2025
28.9676
29.0196
28.8997
29.07
29.1977
29.2858
29.2893
29.3612
29.368
29.346
29.3187
29.2479
29.3611
26.9971
27.6778
27.1648
27.1802
27.6508
28.4367
28.1194
27.983
28.1813
27.6552
27.3523
27.7077
29.0405
28.595
28.8189
29.0031
29.1008
29.0228
29.1507
29.1441
29.233
29.1758
29.2878
29.2347
29.2447
28.6613
28.7826
28.5181
28.4485
28.5975
28.3598
28.3704
28.0797
28.1643
28.2199
28.3021
26.7378
26.6087
26.4378
26.5478
26.9555
27.0755
26.8062
26.901
27.4632
27.5667
27.7443
27.6831
27.8932
27.2256
27.344
27.956
23.9348
23.8398
24.7316
24.8434
24.3381
24.5163
24.1327
25.2703
25.361
25.7096
25.8694
25.5559
25.0881
26.0656
25.9486
26.1825
26.3105
23.646
23.31
23.1206
22.9619
23.4619
28.8151
28.8097
28.8202
29.1163
28.8974
28.9545
28.8285
28.9825
29.2225
29.1344
29.2048
29.2603
29.304
29.2558
29.2232
29.1542
29.2483
26.7515
26.7404
27.2796
26.776
26.9102
27.1775
27.8429
28.4491
28.2942
27.948
27.8055
28.0551
27.4247
27.5764
28.9092
28.5625
28.6697
28.8871
28.958
28.9219
29.0338
29.0163
29.1153
29.0901
29.1937
29.0969
29.1539
28.67
28.7234
28.4723
28.4011
28.5611
28.3349
28.0719
28.1244
28.2115
28.249
26.7251
26.6588
26.4718
26.5358
27.0053
27.1245
26.8421
26.9013
27.5082
27.4081
27.588
27.7869
27.6505
27.8498
27.2881
27.1846
27.954
23.9312
23.7445
24.7042
24.9236
24.4308
24.2336
24.609
24.0287
25.2131
25.4611
25.8174
25.6608
25.5544
25.0396
26.1209
25.9878
26.2282
26.3423
23.5691
23.2326
23.4102
23.0484
28.7836
28.7555
29.0494
28.8906
28.8264
28.7654
28.9748
29.1428
29.1025
29.054
29.1875
29.1316
29.1941
29.1687
29.1423
29.0854
29.1708
26.3969
26.4245
26.9862
26.6305
26.7932
26.9598
26.0297
28.3396
28.1666
27.9164
27.7904
27.6527
28.0585
27.2561
27.42
28.3952
28.6463
28.7778
28.9415
28.7998
28.9392
29.0405
28.9846
29.1168
29.0699
28.6191
28.6784
28.5011
28.4111
28.3538
28.5748
28.2864
28.0521
28.1276
28.1668
28.2414
26.7855
26.6538
26.4272
26.5933
27.0118
27.1214
26.8478
26.9542
27.4924
27.3982
27.5851
27.7869
27.6743
27.8715
27.2926
27.2075
27.9177
28.0106
23.8339
23.7432
24.7938
24.9047
24.4516
24.231
24.5634
23.9986
25.2739
25.4371
25.8485
25.7082
25.6362
25.1059
26.1974
26.0776
25.9369
26.309
23.5713
23.2616
23.4689
22.9539
23.0845
28.7205
28.6967
28.8272
28.7654
28.6978
28.9174
29.0315
28.9973
29.0929
29.0587
29.1298
29.0983
29.0454
28.9939
29.0739
26.1976
26.2195
26.4054
26.3289
26.5722
26.9082
31.6861
28.1948
27.8302
27.6735
27.4816
27.9103
27.2871
27.0745
27.3657
28.3145
28.5378
28.8313
28.6912
28.8197
28.9215
28.8984
29.0142
28.9747
28.6256
28.678
28.4836
28.3739
28.3192
28.5212
28.2828
28.083
28.1526
28.1901
26.7834
26.7187
26.4571
26.6347
27.0738
27.1669
26.9067
26.9548
27.4412
27.5378
27.3522
27.6327
27.7617
27.8392
27.7252
27.2575
27.9384
27.9854
23.8229
23.6496
24.7893
24.9898
24.4327
24.1773
24.3509
24.6104
24.0827
23.9064
25.2127
25.3815
25.5265
25.7939
25.664
25.0834
26.2471
26.1323
25.9853
26.3564
23.3702
23.1956
23.4522
23.0492
28.6581
28.7681
28.8068
28.714
28.6714
28.9308
28.8502
28.9817
29.0195
29.0383
28.9978
29.0255
29.0163
28.9692
28.9623
28.9938
28.992
25.9669
26.357
25.8187
25.5191
25.9945
26.5176
26.7155
14.3024
28.0608
27.7081
27.4977
27.842
27.1026
26.9973
27.2299
28.211
28.4189
28.5626
28.7592
28.7138
28.7493
28.8386
28.7914
28.9403
28.8773
28.5941
28.6185
28.4429
28.3996
28.3274
28.2999
28.5084
28.2548
28.0746
28.1158
28.181
26.864
26.7183
26.4369
26.5527
26.617
27.0712
27.1963
26.9303
27.0156
27.4514
27.56
27.3389
27.6562
27.7978
27.861
27.7375
27.2833
27.9132
28.0079
23.7301
23.6426
24.7114
24.8963
24.9826
24.521
24.2563
24.3488
24.0284
23.9285
25.2394
25.4329
25.5217
25.6161
25.8425
25.7796
25.1497
26.2852
26.3397
26.095
26.2455
25.9452
23.3839
23.2279
23.5476
23.1136
28.6091
28.7272
28.7401
28.6661
28.6299
28.8655
28.8
28.9109
28.9256
28.9744
28.9353
28.899
28.8905
28.8839
28.8919
25.9955
25.6793
26.1893
25.7164
26.2175
26.3587
26.6945
69.1999
27.9306
28.0287
27.5594
27.4424
27.7053
27.0844
26.8442
27.1294
28.1107
28.2306
28.335
28.4723
28.6569
28.6071
28.6328
28.7287
28.7093
28.85
28.8033
28.5512
28.4229
28.3719
28.3349
28.2585
28.4754
28.2283
28.0525
28.1011
28.1683
26.9354
26.8627
26.7842
26.5232
26.5921
26.7235
27.1281
27.2686
27.188
27.0076
27.5205
27.4374
27.6232
27.3782
27.7114
27.7785
27.8406
27.931
28.0074
23.7577
24.7504
24.8488
25.0774
24.5445
24.2054
24.443
24.091
23.8627
25.3378
25.4223
25.6031
25.6805
25.8485
25.1731
26.4023
26.4284
26.2079
26.342
26.0398