/*--------------------------------*- C++ -*----------------------------------*\
| =========                 |                                                 |
| \\      /  F ield         | OpenFOAM: The Open Source CFD Toolbox           |
|  \\    /   O peration     | Version:  v2012                                 |
|   \\  /    A nd           | Website:  www.openfoam.com                      |
|    \\/     M anipulation  |                                                 |
\*---------------------------------------------------------------------------*/
FoamFile
{
    version     2.0;
    format      ascii;
    class       volScalarField;
    location    "0.1";
    object      p;
}
// * * * * * * * * * * * * * * * * * * * * * * * * * * * * * * * * * * * * * //

dimensions      [1 -1 -2 0 0 0 0];


internalField   nonuniform List<scalar> 
13611
(
92331
92532.5
92381.5
92824.2
92699.2
92076.1
92677.8
93527.2
92663.6
93081.2
92359.7
92971.3
93537.5
94011.8
92755.7
93176.7
92677.2
92042.6
93484.2
93838.9
94500.4
93913.1
92598
92930.5
93677
92880.9
92426.6
93637.2
94307.4
94645.1
94916.7
94262.1
92636.9
93376
93868.7
93398.6
92683.3
92073.2
94068.3
94649.3
95272.3
95420.2
94933
94666.9
92854.5
92378.6
93371.6
94338.3
93612.3
92856.9
92334.2
94290.2
95188.7
95593.4
95487.2
95705.1
95438.3
94938
93109
92698.9
93843.9
94603.3
93349.5
94064.3
92662.2
92139.9
94756.3
95475.9
96141.6
96019.9
96132.4
95411.9
93673.5
92907.8
92382.9
94336.7
95214.8
93489.1
94307.3
93073.2
92347.4
94997.3
95969.1
96349.4
96394.1
96221.7
96378.7
95719.2
93913.8
93160.6
92827.6
94637.4
95492.8
93874
94778.9
94215.4
93130.7
92729.3
92055.5
95485.7
96328.2
96829.4
96839.5
96748.9
96829.3
96456.7
96248.6
94362.7
93677.8
92999.8
92945.8
95187.1
95968.2
94021.5
94942.7
94615.3
93723.8
92921.3
92300.2
95702.4
96304.9
96827.6
97029.9
97210.3
97201.4
97034.5
96892.9
96500.4
94581.8
93790.5
93306.1
93017.9
95377.3
96274.4
94504.6
95381
93806.7
92616.9
93427.3
92003.3
96196
96717.9
97240.6
97571.4
97689.6
97626.8
97496.4
97220.7
97010
95053.1
94251
93194.9
93136
95843.4
96255.8
96700.7
94815
95550.9
94233.8
92813.9
93579.1
92280.9
96389.7
97159.6
97703.8
97868.5
98091.8
98035.3
97750.9
97311.7
97626.9
97209.9
95335.3
94385.1
93880.1
93391.8
93221.9
95837.4
96781
97100.7
94681.8
95307
96069.4
94066.7
92570.5
93322.1
92118.1
96896
97416.1
98197.9
98436.9
98585.2
98399.7
98214.4
97863.4
98025.3
97703.7
95260.6
94794.7
93921.5
93318.7
93059
96217.2
96752.8
97195.2
95116.3
95659
96128.5
94253.2
93009.6
93452.8
92321.1
97119.7
97801.5
98637.8
98209.3
98754.8
98986.5
98861.5
98461.4
98365.7
98054.2
97921.1
95677.7
94805.7
94347.7
92834.7
93946.9
92511.2
96127.6
97123.2
97696.1
95601.3
95101.7
96518.8
94705.2
93889.2
92957.8
92093.8
92509.7
96952.5
97653.1
97979.4
99085.2
98616
99282.4
99536.4
99160
98928.7
98812.3
98497.4
98425
95708.9
95312.6
94358.7
92932.8
93964.8
92863.8
96475.1
97702.5
96934.9
97963.7
96026.6
95562.4
96474.9
94892.7
94075.2
93358.6
92268.6
92599.5
97329
97749.7
98440.7
99328.6
99450.6
99123.9
99662.8
99523.6
99854.4
99609.8
99123
99063.7
98652.5
98901.4
98707.6
96220.4
95328.5
94817.2
93449.5
94221.4
92731.2
97969.9
97260
98536.8
96000.3
95429.7
96887.9
94634.4
93803.3
93088.3
92296.3
97306.7
98095.2
98725.1
99873.6
99911.7
99403.7
100124
100038
100364
99846.9
99593.2
99642.2
99105.2
99262.4
99225.7
98541.2
96398.4
95730.3
94726.1
93186.2
94171
92831
97705.4
98443.4
97261.9
98927.8
96455.4
95701.7
96891.9
94879.1
94108.8
93206.9
92696.9
92025.2
97717.2
98084.8
99179.6
100217
100246
99860.2
100568
100586
100689
100314
99863.9
99872.5
99393.6
99657.5
99520.4
98831.1
96159.3
96933.5
95813.2
95023.7
93706.8
94653.2
92910.5
97992.4
98433.8
98871.3
97775.8
99455.5
96512.2
96189.2
95415
97344.9
94625.8
94024.6
93679.6
92795.1
92142.4
97750
98537.2
99524.2
100726
100188
100679
99941
101012
101025
101256
100529
100328
100320
99861.5
99964.2
100048
99293.1
96520.6
96980.5
95532.2
96354.5
93649
94704.6
92762.9
93008.4
98773.1
99367.8
98058.2
99893.1
96990.6
96480.1
95641.5
97385.4
94822.7
94471.1
93865
93192.8
92463.6
91836.7
98198.7
98615.8
100993
100920
100688
101040
100373
101435
101237
101375
101563
101012
100674
100672
100358
100216
100309
99616
97355.9
95855.1
96640.3
94216.4
95190.2
92629.3
92789
98618.4
99299.8
99858.1
97878.7
100386
96970.8
96224.3
95302.8
97866
94399.3
93647.3
93097.4
92690.4
92073.6
98272.2
99047.1
101502
101458
100791
101520
101845
101703
101802
102061
101112
101121
100718
100677
100103
100783
99497.2
97197.4
95699.5
96424.9
94277.4
95205.4
92412.1
93777.7
98957.9
99643.5
100323
98295
100871
97412.1
96379.8
95513.7
97913.1
94736.7
93800.5
93410.7
92510.8
91866.9
98761.4
99119.9
101701
101763
101309
101898
102212
101994
102260
102386
101511
101525
101130
101097
100470
100877
101134
99871.5
97539.3
96073.3
96773.6
94726.8
95769.5
93137.9
93614.4
98817.9
99466.5
100084
100363
100839
98122.4
101372
97480.4
96006.5
96795.5
95259.5
98430.8
94608.7
94174
93367.9
92895.3
92073.7
98870.1
99633.6
102178
102284
102338
102641
102520
101914
102679
102911
101968
101547
101555
100361
101308
101612
97331.7
96585.5
94827.7
95886
93534.2
93970.8
99258.2
99778.6
100405
100777
101186
98424.5
101854
97988.2
97196.8
96228.4
96678.7
95561.9
98441.8
95017.6
94134.3
93718.3
92883.2
91776
92510.8
99383.6
99785.8
102400
102561
102619
102520
102711
103014
102727
102352
103169
103274
102394
101984
101983
100742
101691
101455
102007
97690.5
96981.3
95395.7
94476.7
96405.2
93428.5
93763.9
93852.3
99251.5
99702.1
100271
100795
101089
101614
98879.9
98200.4
101920
102287
97969.9
97538
96037.7
96979.3
95449.6
98870.4
94929.1
94478.9
93745.6
93393
92035
92755.5
99598.4
100242
102953
103037
103122
103052
103143
103503
103183
103578
103752
102855
102420
102417
101231
100656
102161
101949
102413
97540.1
96903.5
95498.2
94638.8
96433.1
93112.4
93463.9
94263.9
99650.6
100090
100443
101132
101450
101760
99101.3
98499.6
102401
102739
98307
97437.3
96256.2
96750.4
95891.7
99377.7
98756.8
95342.3
94239.9
93323.9
91764.9
92513.9
100153
100396
103130
103345
103324
103378
103563
103873
103266
103580
104072
104140
102867
102835
101622
101041
102492
102277
102039
102813
97910.5
97394
95060
95968.7
96885.1
93467.6
93530.7
94196.7
100081
99536.7
100257
100768
101286
101471
102117
98937.2
98361.5
102456
102780
98227.2
97791.1
96978.4
95877
99741
99064.4
95326.4
94442.9
93646.2
91946.8
92878.7
100431
100879
103588
103756
103821
103781
103984
104317
103784
104010
104463
104616
103303
103275
101521
102998
102742
102469
103195
97849.5
97356.6
95142
96024.7
96868.5
93426.8
93114.6
94380.5
100349
99766.8
100710
101139
101757
101820
102152
99200
98672.4
102827
103246
98544.5
97852.8
97534
96753.9
96288.6
99548.6
100245
98932.8
95756.2
94942.2
94158.6
93448
91590.8
92327.2
92750.3
100946
101147
104009
103659
104050
104084
104023
104420
104676
104543
103810
104127
104402
104961
105041
103677
101852
103135
102845
102662
103620
98218.7
97721.9
94797.9
95622.7
96474.8
97233.3
92795.4
94128.3
93294.4
100736
100158
99606.2
101000
101429
102011
102505
99071.6
98588.9
102836
103244
98358.8
97601
97127.4
96188.9
99719.1
100612
99309.2
95644.6
95161.3
94462.4
93788.7
91928.4
92391.9
93135.3
101231
101645
104483
104152
104504
104598
104496
104781
105116
105050
104168
104599
104749
105283
105460
104065
102395
103615
103265
103158
104080
98309.5
98147.6
97606.8
95052.1
95566.7
96543.3
97261.6
92972.6
94371.3
93122.1
100907
100997
100363
99817.5
101345
101838
102376
102579
99359.8
98878.7
103133
103548
98665.2
97980.2
97049.6
96576.3
100114
101086
100534
99226.7
95948.5
94964.3
94288.1
93614.8
92870.4
101734
101942
104891
104546
104210
104884
104698
104809
105164
105478
105311
104591
104936
105136
105782
105904
104465
102623
103646
104086
103389
103476
104530
98752
98419.4
97862
94822.1
95893.7
96986.4
96337.7
97651.9
93548.2
94128.3
93072.8
100727
101257
101377
100181
99699.7
101636
101963
102661
102958
99255.8
103182
103442
103900
98498.8
97939
97481.6
96449.1
100279
101489
100912
99591.7
95765.2
95264.4
94604.7
94011.8
93107.3
101896
102379
105329
104975
104565
105277
105180
105331
105487
105956
105783
104913
104775
105433
105489
106070
105902
106232
103074
104024
104521
103857
103451
103933
105025
98986.4
98241.5
98846.2
95099.7
95715
97018.7
96609.2
97802.2
93005.9
94088.5
93257.8
100910
101468
101394
101645
100302
99994.5
102192
102691
103007
99463.6
103521
103665
104098
98777
98401.1
97341.7
96781.2
100090
100766
101396
99585.2
96060.8
95076.4
94498.2
93793
102369
102692
105353
105723
105146
104455
104958
105686
105499
105604
105873
106109
105389
105246
105818
106599
106288
106683
103107
104432
104962
103853
104341
105186
105426
99323.4
98406.5
99067.2
94928.9
95998.5
97282.4
96649.6
97628.4
98179.7
92996.7
93736.2
94447.1
92566.7
101230
100826
101781
101731
101936
100579
100022
102158
102476
103028
103293
99778.6
103705
103966
99245.6
98545
97667.6
96577.1
100391
101050
101696
100115
95800.3
95321
94955.1
102541
102745
105753
106146
105641
104594
105220
106069
105984
106025
106161
106586
105796
106260
106884
106831
106692
106987
103486
104825
105353
104288
103857
104792
105732
105865
99586.8
98715.8
99412.1
98968.2
95230.8
95904
96433.6
97105.8
97868.9
98352.3
92840.9
93708
94414.2
92276
92215.1
101355
101134
101902
101987
101848
100622
100366
102429
102617
103087
103285
103612
99872.3
104028
104141
99416.8
98221.8
99093.7
97421.2
96887.2
100866
101498
102208
100226
96112.6
103086
103298
106150
106547
105862
104866
104413
105629
105124
106510
106370
106348
106598
106929
106800
106212
106659
107370
107314
107132
107472
105302
105809
104593
104301
105212
106010
106270
99628.3
98703.3
99540.5
99299.8
95642.3
94857.4
96284.3
96580.1
97310
98227.9
97727.1
93384.2
94021.3
92292.6
92218.2
101633
101161
102175
102273
102120
100909
100399
102483
102876
103355
103545
103873
100128
104235
99869.1
98487.5
99317.7
97712.1
96687.3
101217
101835
102300
100661
103469
103306
106605
106981
106269
104853
104597
105707
105404
106944
106890
106752
107367
107307
106627
106391
107127
107659
107572
107490
107677
105710
106223
105052
104515
105316
105650
106486
106645
100002
98908.4
99831.9
99364.9
95789.1
94947.8
96388.1
96876.7
97190.7
98458
97928.3
93469.5
93874.4
92650.1
91898.1
101738
101389
102336
102354
102180
102343
101008
100628
102742
102945
103409
103553
103819
104160
100200
104526
100068
98228.9
99038.1
99841.9
97564.5
97066.9
101113
101738
102707
100553
103911
103815
103158
107025
106629
107380
106490
105040
106010
105332
107378
107225
107114
107642
106990
106888
107505
108201
108022
107956
108126
106173
106703
105333
104325
105090
105847
106025
106810
107073
100090
98785.9
99195.7
99897.5
99676.6
95663.9
96192
94668.4
95370.2
96792.7
97486.6
98423.4
97803.1
98223.4
93216.1
94138.2
92466.7
91838.7
102005
101621
101324
102571
102596
102437
102606
100896
100522
102777
103214
103635
103811
103965
104391
104744
98407
99272.4
100132
97989.5
101511
102135
102640
100788
104038
104015
103633
107470
107004
107791
106893
106378
104994
105982
105462
107821
107682
107532
108151
107405
107193
107981
108457
108359
108232
108196
108361
106576
107135
105801
104624
105291
106050
106492
107321
107422
100359
98990.2
99381.8
100215
99704.6
95959.5
96277.3
94841.8
95426.8
97006
97399.1
98683.6
98092.7
98328.4
93139
93874.6
92025.3
92756.6
91439.8
102091
101870
101501
102797
102486
102637
102811
101098
100692
103004
103243
103835
103744
104207
104396
104681
98904.8
99845.5
100593
101511
102013
103080
101218
104446
104554
103625
107596
107836
107383
108142
107122
106640
105257
105714
106215
108167
107948
107873
108468
107737
107633
108299
108939
108794
108706
108717
108885
107062
107625
106174
105013
105732
106474
106902
107701
107878
100605
100403
99281.6
98914.7
100327
99920.3
95992.2
96498.4
95208.4
94755.4
95768.6
96935.3
97601.5
98619.8
98138.4
93413.4
94173.4
91894.5
92634
91595.3
102315
101832
101396
103007
102691
102864
103050
101005
103448
103990
103679
103951
104319
104672
104822
100962
101951
102258
103065
101350
104760
104794
104066
108040
108223
107732
108563
107578
106980
106516
105276
105843
106116
108580
108454
108305
108960
108156
107966
108758
109131
109261
109206
108967
108968
109162
107493
108034
106573
106153
105135
105843
106851
107419
108172
108246
100820
100703
99409.9
99169.7
100638
100190
99878.8
96338.3
96749.5
95316.5
94576.5
95057.1
95845.1
97207.4
97447.1
97907.4
98771.1
98469.2
93247.7
94067.3
92147.9
92894.6
91267.6
102452
102001
101579
103194
102701
102876
103077
103212
101189
103410
104203
103872
104128
104535
104712
105054
102035
102669
103522
101729
105310
104548
103980
108103
108316
108608
108834
107652
107262
106680
105479
105728
106256
108743
108616
109264
108477
108391
108992
109555
109776
109777
109515
109471
109635
107976
108498
106998
106564
105524
106331
107214
107844
108558
108680
101088
100820
99643.4
99197.3
100700
100413
100132
96476.5
96910.8
95586.9
94707.8
95034.1
96116.5
97179.7
97600.5
97998
99030.7
98706.4
98484.7
93462.8
93782.1
94321.8
92154.1
92823.4
91379.2
102429
102249
101859
101478
102881
103071
103272
103436
103547
104294
104098
103882
104670
104868
105179
102426
102752
103491
101992
105722
105360
104933
104372
108504
108782
108963
109257
107957
107230
106519
106952
105411
105894
106133
109197
109079
109782
108850
108734
109415
109892
109807
110158
109883
110250
109741
109678
109929
108400
108910
107197
106994
105797
106359
107697
108344
108980
109030
101267
101145
99671
99447.7
100894
100370
100147
96360.2
96808.7
95633.2
94601.8
95203
96134.6
97421.4
97817.1
98223.7
99165.9
99023.7
98651
93100
93793.5
94272.3
91832.4
92477.7
90953.8
102703
102385
102027
101653
103074
102897
103265
103451
103526
103749
104485
104214
104108
104650
104838
105079
102444
103116
103827
106202
105722
104845
104251
108656
108931
109355
109535
109472
108405
107804
107473
106638
107056
105560
105796
106273
109360
110094
109170
109142
109520
110341
110297
110440
110242
110447
110115
110091
110329
108869
109349
107720
107396
106692
108004
108784
109370
109445
101550
101292
99934.9
99433.6
100819
101155
100567
100449
96567.3
96949.9
95455.9
95937.8
94777.2
95141.4
96448
97497.4
97923.1
98188.4
99158.2
98413.2
98863.2
93183.5
94059.4
93563.2
94477.7
91944.9
92314.2
91221.3
102691
102288
101924
103248
103142
103448
103657
103731
103842
104555
104432
104187
104823
104980
105126
102869
103215
103648
106155
106609
105810
105214
104558
109173
109356
109711
110103
109936
108636
107978
107327
106894
106504
105522
105865
106225
109877
110414
109520
109925
110278
110618
111244
110268
110532
111315
110312
110277
110532
109308
109781
107847
107467
107161
108480
108820
109266
109727
109767
101727
101569
99930.7
99619
101006
101347
100546
96800
97188.1
95564.8
95988.5
94683.7
94995
95365
96555.2
97384.1
97801.4
99516.6
99067.9
98477.1
98955.8
93086.7
94057
93653.5
94455
91783.4
92469.3
91084.9
102817
102445
102086
103271
103425
103237
103664
103813
104063
104772
104519
104382
104873
104971
105247
103950
106467
107034
105646
106258
105050
104432
109378
109483
109667
110306
110273
110506
110220
109087
108356
107766
107458
106970
106567
105379
105592
106055
105735
106409
110554
109960
110680
111419
111690
111031
111373
111939
111069
110916
111536
109786
110167
108233
108014
107366
108779
109306
109746
110090
110136
101982
101708
101705
100149
100973
101265
101595
100797
100394
96959.4
97212.8
95769.8
96195.6
94820.4
95037.1
95391
96879
96433.5
97596.3
97872.7
99678.4
99302.8
98811.3
98329.2
99229.6
93306.6
92813.1
94249.2
93874.9
93562.6
94634.4
91917.1
92241.6
91563
90676.2
102680
103020
102353
103497
103570
103169
103480
103821
104018
104145
104873
104682
104460
105052
105094
105241
106897
107167
106039
106410
105250
104841
109941
109999
110124
110703
110568
110662
110636
109302
108367
107965
107245
106775
105528
106056
105784
106414
111543
110265
111474
112136
111574
111318
111173
112243
110147
110734
108327
108670
108109
107763
109273
109721
110138
110377
102140
102006
101982
100120
101267
101424
101790
100860
100610
97457.6
95770.8
96150.7
94793.5
95230.6
95597.5
97012.2
96613.5
98067.6
99542.6
99931.3
98933.3
98490.9
99437.7
93266.1
92753.4
94255
93873.1
93662.2
94625.3
92411.6
91675.7
90851
102848
103082
102504
103594
103771
103438
103586
104017
104100
104342
105045
104820
104735
104652
105128
105394
107102
107676
106133
106827
105727
110245
110239
110522
110896
110593
110813
110761
109071
109902
108637
107816
107266
106823
105535
105923
106156
105668
106282
106494
111736
110848
110721
111036
110986
108743
108961
108496
107940
109673
110007
110667
110892
102396
102127
102059
100366
101323
101709
101084
100588
97546.1
95941.2
96306.1
94936.4
95250
95645.6
97229.7
96842.4
96525.2
98021.7
99662.2
100058
99190.9
98745.1
98315.8
99434.6
93460.7
92989
94423.5
94119.8
93986.9
93634.1
94548.8
94829.1
92365
91409.4
91992.5
90431.1
102783
103310
103838
103920
103505
103809
104176
104286
104408
105135
104954
104931
104750
105267
105386
107501
107803
106675
107003
110529
110623
110750
111544
111841
111757
109234
110068
108588
107480
107907
107026
106651
105978
106102
105639
106400
112534
111135
111101
109034
109364
108381
108939
110055
109700
110430
102517
102387
102283
100334
101534
101845
101058
100796
97422.7
97836.3
95888.7
96219.8
95108.6
95409.4
95570.2
97230
96973.4
96669.4
99921.9
99251.6
98825.7
98381
99660.9
93494.6
93022.7
94379.4
94147.4
93919.9
93777.6
94610.7
94870.6
92664.9
91421.7
91983.9
90429.7
102927
103342
103944
104135
103763
103914
104373
104407
104553
105084
105277
105001
104911
104695
105339
105493
107726
108201
107507
110585
110742
110780
111667
112134
112077
109643
108954
110374
108230
107421
107613
107019
106677
105922
106103
105717
106428
109439
108630
109319
110615
110078
110900
102766
102551
102523
102297
100523
101720
101599
102077
101218
100771
97670.2
97919.8
96002.3
96345.7
95147.7
95364
95717.7
97391.5
96897.9
96580.6
100060
99075.1
99564.1
98647.7
98184.3
99915.7
93438.2
93652.5
93264.7
92910
94478.6
94250.3
94007.4
93781.1
94733.5
95045.9
92734.8
91606.4
91191.6
92285.8
89667.7
103176
103583
104140
104291
103811
104117
104535
104575
105223
105313
105125
105002
104852
105477
108155
108539
107813
111565
111853
111818
110659
112478
109861
108994
110113
108254
107193
107520
106829
106543
106024
105821
106189
105677
106328
109788
109133
109793
110971
110651
110097
102830
102759
102565
100444
101930
101898
101471
102147
101048
97639.6
95922.6
96252.6
95483
95656.6
97308.8
97039.2
96701.9
99111.5
99694
98795.9
98233.8
100109
93501.5
93640.8
93211.5
93042.7
94469.4
94239.8
94010.4
93897.8
94740.4
95101.5
92975.7
92637.9
91615.7
91199
92244.9
90301.4
103318
103668
104212
104275
104498
103996
104276
104716
104715
105276
105401
105180
105235
104972
105128
104858
105573
108568
108880
108434
112410
112610
111809
109571
108642
110187
107935
107127
107254
107641
106809
106540
106024
105854
106162
105805
106326
109949
109253
110096
111019
110624
103010
102806
102970
102580
102746
100596
102068
101622
102351
101152
97778.9
96036.5
96365.2
95415.4
95742.1
97461.7
96947.2
96581.2
99306.5
99567.3
99985.3
98720
98016.2
98474.7
100401
93457.4
93732.1
93322.9
94343.3
94569.6
94105.1
93921
94847.7
95275.1
94996.6
93117
92842.3
91979.7
91299.5
92471.1
90318
103586
103232
103924
104395
104509
104630
104191
104302
104448
104901
105396
105543
105331
105337
105122
105205
104995
108957
108806
112108
109564
108660
110350
111266
107826
106930
107146
107448
106658
106413
106085
105937
106247
105799
110535
109515
110095
110601
103074
103156
102832
102998
100833
102035
102328
101456
101868
101031
97662.4
95942.8
96259.7
95628.9
97410.8
97049.2
96676.4
99261.7
99844.3
100096
98960
98167.6
98448.8
100604
93562.5
93837.4
93721.1
93372.4
94336.2
94530.4
94103.8
94017.2
94766.7
95301.1
95070.2
93162.3
93307.9
92744.2
93095.7
92044.9
91467.7
92352.9
91157
103733
103444
104066
104559
104832
104365
104548
104661
104953
105015
105474
105615
105388
105451
105139
105329
109341
109437
109047
109916
108344
111239
110275
111746
107512
107960
106868
107223
106953
106631
106429
106057
105997
106224
105702
105842
110866
109866
110629
110805
103182
103394
103052
102809
100887
102267
102522
101564
101980
101349
97722.8
96060.9
96336.4
95642.7
97274.3
96891.2
96532.7
99461.8
99881.7
100312
98885.3
98097
98612.7
100557
93669.1
93476.7
93881
93786.9
94279.8
94414.5
94621.2
94190.3
94011.1
94845.5
95184.1
95477.6
94971.6
93309.6
93381.7
92960.3
93236.9
91800.7
92573.5
103664
103964
104304
104705
104936
104587
104725
104649
105167
105201
105590
105484
105553
105247
105420
109676
109811
108910
109633
108488
111681
110321
107307
107735
106716
107059
106840
106512
106347
106066
105984
106255
106143
105772
105918
105853
110052
110810
103435
103569
103301
102956
101109
102475
102260
101845
101371
97882.4
95969.4
96208.5
95783.7
97349.8
96919.5
96665.5
99360.2
99714.1
100142
100328
99078.3
98243.4
98511.2
100746
93700.9
93507.1
93836.2
93954.8
93777.5
94291.9
94381.3
94578.6
94138.3
94096.4
94775
95187.4
95463.9
95039.7
93400.9
93471.1
92927.4
93203.3
93399.4
103875
104071
104457
104858
105113
104736
104883
104867
105244
105281
105664
105558
105537
105642
105410
110434
109155
109978
108244
110971
107091
107241
107857
107387
106647
106878
106696
106472
106325
106041
106235
106142
105764
105971
105922
110534
103520
103788
103402
102719
103168
101132
102458
101958
101570
97873.2
96235.2
95769.3
97543.4
97120.3
96609
99532.7
99884.1
100171
100620
98992.8
98136
98701.6
100988
93674.8
93613.5
93872
93957.3
93819
94222
94410.3
94653.4
94474.2
94132.8
94072.4
94831.9
95292.5
95589.4
94978.7
93520.4
93540.3
93399.6
93526.8
103908
104261
104678
104413
105049
105186
104940
105061
105000
105418
105427
105694
105670
105711
105529
110778
108852
110024
108383
111209
106925
106962
107606
107222
106529
106728
106573
106374
106263
106056
106178
106099
105821
105964
106021
105929
103751
103967
103349
103745
102717
103202
101478
102430
102220
101812
97734.4
96395.8
96048.3
95884
97550.3
97137.9
96770.2
99414.4
99801
100358
100730
99131.1
98163.7
98663.1
101151
93741
93614.8
93898.2
94024.7
93860.6
94280.6
94590.7
94438
94067.2
94771.5
95255.4
95532.6
95093.9
93621.8
93357.4
93599.4
93449.4
93630.4
93625.6
104141
104310
104812
104642
105114
105343
105133
105253
105199
105486
105539
105496
105538
105743
105711
105813
105645
109002
110440
109529
108028
111883
106739
106781
107657
107324
106965
106470
106579
106478
106350
106240
106160
106096
105893
105988
106043
106007
103969
104209
103679
103907
102941
103456
101614
102688
102295
102050
97900.3
96351.8
96143.4
95770.8
97384.4
97799.7
96968
96656.2
99488.7
100043
100599
100299
101010
98933.3
98300.3
98516.7
101423
93842.1
93739.7
93688.2
93912.4
94025.1
93893.8
93881.1
94262.1
94479.7
94639.1
94345.6
94077
94809.9
95373.8
95583.3
95044.1
93696.9
93735.3
93618.9
93713.9
93736.4
104539
105018
104696
105367
105322
105172
105470
105676
105715
105648
105699
105826
105863
105896
105748
108453
110389
109623
108016
111367
106564
106785
106561
107309
107070
106868
106382
106441
106367
106266
106175
106123
106075
105965
106034
106039
104287
104428
103730
104152
102937
103443
101988
102624
96449.3
96062.2
95867.7
97418.2
97842.6
97036.7
96842.3
99167.8
99587.5
100107
100755
100570
101174
98946.8
98168.3
98701.9
101485
93821.8
93795.6
93964.8
93988.5
94039.2
93912.3
93907.5
94204.3
94422.9
94558.7
94307.4
94141.3
94693
94914.6
95306.4
95476.1
95164.6
93781.3
93892.7
93749.2
93806.6
93827.4
104593
105081
104906
105511
105517
105408
105629
105763
105756
105853
105838
105886
105879
105978
105974
105869
108502
109996
109136
107585
111318
106412
106534
106397
107038
107280
106624
106342
106319
106291
106243
106147
106112
106078
106026
106070
106046
104346
104491
103973
104294
103189
103671
102138
102758
96369.4
96143.9
95770.3
97218.6
97663
96834.9
99302.3
99757.6
100540
99995.5
101049
98323.3
98631.2
101688
93873.8
93827.8
93944.1
93948.9
93990.8
93935.8
93926.7
93895.6
94177.7
94194.9
94445.9
94588.4
94245.2
94019.6
94674.6
94898.2
95479.3
95143.9
93833.5
93913.2
94006
93895.5
93866.3
104806
105304
104956
105695
105577
105645
105488
105779
105955
105937
105982
105934
105982
106014
105970
106088
106046
108126
110089
109224
107377
110877
106225
106370
106455
106245
106719
106922
106524
106269
106196
106198
106185
106112
106143
106094
106077
106075
106064
106095
106075
106099
104597
104791
104223
103952
104607
103231
103607
101960
102384
102594
103074
96474.1
96022
95597.2
95840
97214.2
97684.3
96651.6
97010.7
99258.5
99816.4
100650
100387
101240
98211.8
98749.3
101638
93918.4
93900.8
93944.6
93947.8
93950.3
93929.4
93953.7
94061.4
94120.2
94354.8
94479.1
94232.8
93993.1
94767.9
94544.3
95009.8
95304.1
93914.2
94032.3
94125.7
94016.2
93939.3
104908
105347
105162
105847
105820
105903
105739
105956
106014
106096
106123
106120
106054
106092
106118
106210
106105
107629
108310
109622
108802
107349
106909
110923
106151
106160
106142
106215
106077
106632
106262
106194
106093
106105
106150
106085
106074
106070
106086
106105
106085
106116
106123
106137
104793
104915
104541
104188
104812
103785
102223
102476
102951
103217
96338.1
96129.2
95519
95724.5
97406.4
97847.1
96741.3
96967.3
99546.4
98986
100060
100912
100381
101157
98546.9
98022.8
101859
93984.2
93942.7
93928.4
93950.4
93966.7
93953.8
93934.9
93991.3
93995
94060.2
94385.2
94269.6
94127.5
93961.1
94682
94476.7
94950.2
95259.3
93957.1
94119.7
94034.1
94248.7
105180
105561
106035
106007
105908
105784
106143
106164
106245
106133
106209
106251
106167
106167
106247
106288
106192
107372
107862
109519
108981
106782
106648
110476
105993
105992
106032
106081
106115
105937
106314
106069
105991
106040
106080
106055
106045
106073
106117
106091
106193
106163
105063
105166
104794
104536
104088
105081
103714
102280
102715
102986
103505
96401.4
96007.6
95387.5
95785.8
97342.5
97709.6
96624.2
97105.2
99533.1
99010.5
100010
101057
100533
101451
98577.4
98116.6
101733
102136
94030.8
94011.8
93901.9
93903.7
93954.1
93985
93921.3
94036.8
93964.3
93999.1
94309.2
94210.8
94096.1
93918.9
94790.2
94526
94342.9
95072.8
94040.5
94229
94077.2
94250.9
94342.6
105380
105599
106196
106163
106001
106344
106403
106367
106365
106422
106208
106257
106388
106423
106261
106962
107958
109740
108571
106430
106279
110575
105902
105823
105874
105841
105798
106085
106162
105773
105890
105941
106012
105987
106028
106140
106090
106251
106187
105278
105377
105126
104766
104248
105277
104047
102660
103236
103573
96269.2
96055.3
95347.3
95620.1
97469.1
97941.4
96777.4
97029.8
99287.7
99788.5
98767.3
100332
100966
101417
100747
98335.3
102023
102288
94095.2
94057.3
93883.9
93875.3
93978.9
94047.4
94005.4
93938.9
94076.4
94092.7
93878.7
93970.9
93974.3
94205.5
94001.3
93878.1
94764.4
94438.6
94255
95014.1
94247.6
94319.3
94165.7
94455
105887
106253
106319
106288
106205
106474
106405
106543
106435
106467
106540
106294
106359
106483
106460
106296
106338
106809
106513
107556
109561
108598
106012
105977
110138
105756
105734
105742
105633
105806
105792
105593
105720
105874
105923
105998
105965
106035
106163
106069
106241
106180
105606
105659
105245
105043
104675
104481
105535
104206
102852
103184
103842
96296.3
95880.5
95114.6
95383
95463.6
97368.2
97948.6
96708.2
97092.6
99310.8
99790.3
98715.7
100387
101227
101618
100848
98395.6
101983
102561
94145.7
94133.4
93922.8
93857.3
93850.9
93929.1
94033.9
94026.1
94099.9
94127.3
93840.3
93874.9
93877
93946.7
94090
93976.5
93808.3
94593.8
94867.1
94278.6
94468.9
94125.2
94337.5
94389
94189.8
94516.9
105962
106514
106527
106559
106417
106660
106615
106738
106613
106625
106694
106608
106538
106382
106450
106336
107009
106184
107897
109064
105617
105657
110217
105614
105678
105544
105488
105444
105606
105569
105384
105650
105717
105796
105848
105961
105902
106000
106143
106090
106301
106237
105724
105546
105230
105027
104548
105741
104127
102796
103374
103842
96498.6
96131.2
95905.1
94999.8
95178.8
95430.1
97524.4
98218.9
97770.2
96933
99544.5
99061.9
100113
98809.6
100673
101159
101513
102186
102674
94215.9
93881.5
93844.6
93787.8
93942.9
94070.5
94014
94127.7
94202.4
93806.6
93820.1
93775.7
93872.4
93896.6
93769
94614.8
94789.7
94129.3
94331.3
94013.2
94394.6
94361.5
94479.4
94274.2
94606.3
106198
106665
106725
106673
106471
106749
106813
106853
106697
106675
106724
106664
106642
106525
106474
106371
106030
106526
105832
107744
108975
105251
105566
105312
109801
105472
105532
105401
105301
105283
105331
105249
105202
105274
105527
105631
105775
105839
105948
105910
106019
106178
106068
106278
106222
105991
105690
105721
105552
105118
104826
106106
104359
103164
103676
104198
96592.4
96116.4
95703.8
94851.7
95181.1
95500.4
97368.9
98308.7
97799.7
96884.3
99517
99195.1
100152
98614.2
100704
101322
101713
102496
102049
103166
94272.9
93878.8
93822
93748.7
94112.4
94039.8
94178.1
94227.2
93724.4
93757.2
93717.9
93823.5
93857.3
93717.5
94497
93985.1
94174
94343.8
93890.1
94492.3
94454.2
94539.8
94608.7
106177
106398
106951
106924
106881
106853
106999
107048
107038
106858
106836
106902
106814
106758
106613
106558
106443
105671
106045
106430
108290
107169
109372
104888
105129
105068
109923
105318
105436
105205
105107
105119
105155
104930
104990
105520
105590
105670
105766
105907
105850
105969
106166
106101
106330
106282
106025
106008
105698
105430
104844
106334
104606
103930
104378
96492.6
96219.3
95836.3
94751.5
95021.3
95353
97566.7
97066.6
98108.3
99584.9
99029.1
99863.7
100462
98705.9
100995
101235
101606
102699
102227
103316
94345.8
93900.2
93769.5
93821.4
93698
94176
94078.4
93990.5
94224.5
94292.8
93646.6
93671.3
93669
93694
93728.2
93680.2
94535.6
93900.3
94057.4
94190.3
93781.6
94511.7
94446.1
94707.6
106533
106653
107150
107106
107117
107050
107135
107158
107154
107034
106985
106957
106914
106891
106627
106546
106380
106509
105309
105622
105887
106656
108158
107056
109225
104647
104808
105010
104799
109632
105216
105299
105099
105070
104926
104960
104838
104806
105422
105516
105677
105782
105868
105902
106009
106199
106063
106282
106248
106242
105990
105490
105216
106589
104698
103878
104301
96534.9
96023.2
95701.2
94802.5
95059.4
95154.5
95470.4
97460.2
97040.8
98234.4
99336.6
100024