/*--------------------------------*- C++ -*----------------------------------*\
| =========                 |                                                 |
| \\      /  F ield         | OpenFOAM: The Open Source CFD Toolbox           |
|  \\    /   O peration     | Version:  v2012                                 |
|   \\  /    A nd           | Website:  www.openfoam.com                      |
|    \\/     M anipulation  |                                                 |
\*---------------------------------------------------------------------------*/
FoamFile
{
    version     2.0;
    format      ascii;
    class       surfaceScalarField;
    location    "0.1";
    object      phi;
}
// * * * * * * * * * * * * * * * * * * * * * * * * * * * * * * * * * * * * * //

dimensions      [0 3 -1 0 0 0 0];
oriented        oriented;


internalField   nonuniform List<scalar> 
21888
(
0.505131
-0.512129
-0.368391
0.873522
-0.558373
0.046244
-0.691258
0.322868
0.627512
0.24601
-0.563638
-0.645014
0.807992
-0.485124
0.619998
-0.329378
0.575388
-0.0292827
-0.534355
-0.518641
-0.126373
0.478613
0.328898
-0.814022
0.684746
-0.0647483
0.535375
0.0400128
-0.547924
-0.53957
0.398039
-0.524412
0.505825
-0.0272113
0.799886
-0.470988
-0.415983
0.677431
0.470627
0.545838
0.00211193
-0.550036
0.00906848
-0.548639
-0.535726
0.0113142
-0.659745
0.632533
0.140141
0.217319
-0.688307
-0.508615
0.0926325
0.14313
0.534301
-0.388074
0.858701
0.157764
-0.533614
-0.540967
-0.553901
-0.497301
0.592076
0.0404575
-0.569816
0.709957
0.667713
-0.450394
-0.528468
-0.159839
-0.435835
-0.411986
0.555116
0.525998
0.446715
0.749839
-0.541524
0.00791005
-0.0258945
-0.515073
0.132585
-0.686486
-0.544061
0.0467595
-0.59414
0.634597
0.0978969
0.115817
-0.517266
0.0668722
-0.677105
-0.584914
0.149079
0.0458591
0.509257
0.00319147
0.522807
0.530138
-0.0834226
0.706588
0.0432512
-0.567419
-0.536151
-0.382487
-0.690903
-0.538155
0.651107
-0.0165101
0.701984
-0.604087
-0.530568
0.646385
0.552681
-0.485809
-0.528027
0.575997
0.512448
0.51371
0.623165
0.694358
-0.368175
-0.199244
0.0518871
-0.588038
-0.750662
-0.0953704
-0.595533
-0.560515
0.02236
-0.523442
0.506932
0.171416
-0.0514061
0.122943
0.0578512
-0.54366
-0.614291
0.0862646
0.0517751
0.524222
0.0371837
0.475265
-0.0943383
0.608048
0.546436
0.0767299
0.61873
0.0756281
0.344236
-0.54348
-0.508627
-0.243801
-0.555782
-0.19488
-0.651153
-0.599991
-0.591931
0.750034
-0.243102
0.587421
-0.416005
0.454182
-0.505589
0.685178
-0.562235
0.553744
-0.495892
-0.707234
0.163575
-0.62097
0.598211
0.561405
0.380926
0.598198
0.69546
-0.408687
0.484315
-0.58168
0.0381999
-0.372894
-0.135734
-0.616695
-0.77656
-0.525053
-0.1261
-0.0371761
-0.562815
-0.535807
-0.0561239
0.341347
0.442075
0.0251868
-0.751155
0.33515
-0.296973
0.0481552
-0.332318
-0.579256
-0.041714
0.107835
0.490375
0.314668
0.246737
0.695595
-0.288869
0.887067
0.437269
0.258191
0.717909
-0.233594
-0.578495
-0.671541
-0.447184
-0.329376
-0.562229
-0.573284
-0.567143
-0.63538
0.515197
-0.173849
0.68659
-0.244515
-0.669573
0.69476
-0.334423
-0.58791
0.290937
-0.539755
-0.637992
0.305674
0.594696
-0.63641
0.545104
0.737112
0.406726
0.30847
0.578597
-0.373771
0.631962
0.344138
0.281603
-0.722197
0.143702
-0.576545
-0.0949955
0.290473
-0.619849
-0.540728
-0.0215013
-0.0308496
-0.542434
0.0665926
-0.633735
-0.567344
-0.0680357
0.512741
-0.666121
0.421606
0.0286393
-0.646715
0.312292
-0.355778
-0.599458
0.0597028
-0.0432962
-0.293784
-0.575503
-0.0609062
-0.164592
0.709697
0.363609
0.373503
0.770335
-0.394193
0.702663
0.567022
0.46737
0.768487
-0.424348
-0.362179
0.643782
-0.431724
-0.432844
-0.66234
-0.650698
-0.474135
-0.563935
-0.637915
-0.643539
0.150562
-0.406214
0.82782
0.666468
-0.637829
0.791138
-0.478846
0.248902
-0.60468
0.555305
-0.495602
0.675627
-0.718923
0.381843
0.549491
-0.610397
0.31645
0.393246
0.689953
0.376142
0.359943
0.342721
0.166068
0.400955
-0.190467
0.657837
0.57802
0.219434
0.332195
-0.763919
0.284204
-0.717048
-0.378135
-0.156365
-0.494334
0.367753
-0.841888
-0.196182
-0.475974
-0.16194
-0.64313
-0.000408636
-0.368884
0.519446
0.260254
0.458935
0.153309
-0.694732
0.215887
-0.44583
-0.0493754
-0.113759
-0.169433
-0.631908
0.0215117
-0.214085
0.607331
0.353965
0.335989
0.730106
0.52601
-0.326342
0.669062
0.388949
0.443752
-0.0370828
0.615103
-0.479552
0.698986
-0.384853
-0.436499
-0.32742
0.290637
-0.668772
-0.592864
-0.690516
-0.374234
-0.467655
-0.481085
-0.536174
-0.352493
-0.632317
0.0398935
0.622694
-0.362439
0.534543
-0.0756079
-0.445588
0.598896
0.793637
-0.57775
-0.515662
0.0698326
-0.565038
0.576981
-0.69074
-0.527967
0.358534
0.596347
-0.574836
0.395683
0.211648
0.731672
0.403765
0.143076
0.382934
0.244705
0.424357
0.532025
-0.0819965
0.525748
-0.748662
0.711579
0.533106
-0.0496762
0.320889
-0.705742
0.364064
-0.691485
-0.347883
0.0437856
-0.636649
-0.0111766
-0.679339
0.10385
-0.571504
0.370663
-0.851748
-0.165511
0.282285
-0.634779
-0.350032
0.574437
0.726947
-0.104253
-0.648084
0.285645
0.651339
0.348049
-0.049188
-0.614209
0.0364581
-0.544376
0.0119431
-0.757487
0.0667475
0.0683801
-0.398953
0.125696
-0.700531
0.737396
0.319205
0.412467
0.72297
0.62764
-0.185881
0.610238
0.521849
0.484488
0.227092
-0.0732213
0.606327
-0.618428
0.568752
-0.341678
-0.647699
0.341408
-0.689292
-0.647826
-0.575489
-0.737016
-0.236712
-0.615036
-0.293371
0.219637
-0.569668
-0.0439914
-0.661659
0.557406
-0.376014
0.488358
0.162981
0.620894
-0.272844
0.571706
-0.6043
0.640758
-0.559478
0.0151019
-0.547535
0.691686
-0.624938
0.558055
-0.489675
0.159102
0.669753
-0.544057
-0.480895
0.576026
0.16137
-0.204057
0.616524
0.537089
0.253938
0.373702
0.330449
0.279789
0.775786
0.411266
0.574787
-0.347696
0.469848
0.13648
0.763805
-0.195053
0.400622
-0.7423
-0.00335661
-0.644342
-0.28867
-0.0112693
-0.636556
0.0669906
-0.64248
-0.523503
-0.213513
-0.760215
-0.618444
0.371416
-0.664787
-0.198252
0.444367
-0.0892601
0.646666
0.195692
-0.403602
0.566582
-0.741207
0.468363
-0.572865
-0.0314352
-0.100449
-0.557763
0.144151
-0.539841
-0.0850973
0.180078
-0.380739
0.0865835
-0.630641
-0.530075
0.0491802
0.371969
0.631218
0.580732
0.0357913
0.499126
0.0379625
0.704152
0.778915
0.434129
0.341657
-0.0832152
0.494482
0.491572
0.416109
0.630961
-0.66566
0.470607
-0.518159
-0.224141
-0.521515
-0.655612
0.416264
-0.704934
-0.569566
-0.391334
-0.251146
-0.604847
-0.331507
-0.428708
-0.0307715
-0.587672
-0.248523
-0.728327
-0.221293
0.570792
-0.660052
0.243064
0.628375
-0.432684
0.345289
0.718661
-0.250298
-0.496082
0.464647
-0.74196
0.641511
-0.559649
0.0018861
-0.415498
0.467482
-0.55258
0.621591
-0.441513
0.240852
0.720883
-0.634299
-0.58146
-0.174196
0.546165
0.457022
0.618695
0.581956
0.381073
0.323078
0.401872
0.377043
0.42454
0.72273
0.613542
-0.12197
0.690098
-0.273988
-0.061602
0.692563
0.733323
-0.262716
0.427109
-0.65125
0.219777
-0.741292
-0.0651414
-0.59047
-0.277825
-0.441573
-0.127993
-0.692719
0.113495
-0.718342
0.137541
-0.469049
-0.459479
-0.590746
0.431545
-0.680068
-0.296782
0.454171
0.116622
-0.0316769
0.697235
0.285978
0.719822
-0.374533
-0.592696
0.342398
-0.606075
0.109993
-0.277313
0.0488145
-0.604189
-0.726684
0.311187
-0.259202
-0.311727
0.279369
-0.589025
-0.0452745
0.184398
-0.765859
-0.169634
0.626656
0.718004
-0.0993092
-0.0524318
0.634388
0.724951
-0.265993
0.643036
0.407302
0.363276
0.359454
0.55194
0.568128
0.459334
0.522929
0.457106
-0.431473
-0.806434
-0.718463
0.471891
-0.749716
-0.579224
-0.580801
-0.134219
-0.33483
-0.593698
0.12461
-0.715356
-0.208177
0.336792
-0.633574
0.722814
-0.606192
-0.658192
0.626515
0.322702
-0.372214
0.668095
-0.325698
0.621816
-0.511823
0.344503
0.608216
-0.559401
-0.293002
0.396018
-0.65522
-0.657891
0.346164
-0.378522
-0.404627
-0.567902
0.522627
-0.429066
0.574225
0.452011
0.535079
0.370858
0.354093
0.42655
0.216486
0.770577
0.730312
0.614477
-0.0625367
0.562801
0.00532709
0.700738
-0.241404
-0.141042
0.663971
0.78279
-0.325684
0.433673
-0.865145
-0.474125
-0.332309
-0.0565608
-0.661902
-0.316043
0.14258
-0.721804
-0.280958
-0.299843
-0.615787
-0.469088
-0.717593
0.516488
-0.724665
-0.117086
0.458157
0.264657
0.0203223
0.780859
0.295881
0.282518
0.133154
-0.644977
0.797822
-0.453319
0.238421
-0.683736
0.390733
-0.287718
-0.309056
-0.768394
0.389872
0.34002
-0.744647
-0.227882
-0.245767
-0.616148
0.187081
-0.0662918
0.640516
0.554152
-0.102141
-0.103286
0.638365
0.780643
0.770637
-0.105598
0.876175
0.624714
0.473434
0.500264
-0.429964
0.435291
0.270774
0.541386
0.59768
0.455176
-0.240329
-0.624817
-0.530686
0.213703
-0.546011
-0.519322
0.519545
-0.835588
-0.311744
-0.41006
-0.611588
-0.262002
-0.353786
-0.73109
-0.626997
-0.0905963
-0.20512
-0.733234
0.650885
-0.386228
0.64925
-0.628928
0.648861
-0.35298
0.675551
-0.393033
0.746471
-0.613317
-0.254244
0.293152
0.689362
-0.450941
0.425947
-0.713664
-0.699966
0.39091
-0.310094
-0.557565
0.493736
-0.721618
-0.667992
0.422226
0.53723
0.536225
0.212562
0.568081
0.476269
0.294368
0.332301
0.543874
-0.00785338
0.632568
0.720509
-0.247075
0.526855
-0.0265912
0.573377
-0.138086
0.453979
-0.183205
0.483198
0.058188
0.0732284
0.524451
0.727631
-0.272455
0.381298
-0.621627
-0.411114
0.0833237
-0.61401
-0.462688
0.0908994
-0.610222
-0.45429
0.275972
-0.686032
-0.235868
-0.37572
-0.589653
-0.468044
-0.263046
-0.629
-0.55864
0.529991
-0.735111
-0.203243
0.647837
0.00304819
-0.71752
0.331292
-0.0682697
0.0199334
0.322572
0.296329
-0.454851
-0.158466
-0.709095
0.713287
-0.420135
0.262345
-0.283149
-0.322754
-0.68397
0.373876
0.217351
-0.774916
-0.174256
-0.627054
-0.0945643
-0.261744
-0.0800887
0.617319
-0.189763
0.725988
0.688831
0.560228
-0.386505
0.680873
-0.273635
0.605936
0.527039
0.358933
0.368439
0.35207
0.27978
0.546786
0.315893
0.299993
-0.449508
0.507696
0.441667
0.444363
0.278123
0.375381
-0.226052
-0.395575
-0.637166
-0.52311
0.199509
-0.662197
-0.334249
0.230217
-0.684507
-0.22104
-0.464992
-0.59676
-0.44469
-0.144963
-0.707736
-0.672274
0.0432739
0.115665
-0.674305
-0.764214
0.0291036
0.391274
-0.594516
-0.671615
0.674663
-0.340323
-0.602106
0.533836
-0.646437
0.66637
-0.323865
0.748807
-0.452478
-0.680393
0.521927
-0.76402
0.343885
0.685013
-0.422667
0.45233
-0.735478
-0.709757
0.387003
-0.335881
-0.409703
-0.383642
0.499996
-0.674252
0.499653
-0.594217
-0.599526
0.337782
0.427556
0.339482
0.470302
0.218529
0.358268
0.20196
0.401158
0.279715
0.161819
0.444117
0.688858
0.717201
-0.061948
0.414018
-0.241486
0.521266
0.3053
0.537387
-0.221494
-0.227057
0.527051
0.280638
-0.0059012
0.447569
-0.0418456
0.486208
0.599659
-0.321536
-0.320138
0.695519
0.20818
-0.603754
-0.437657
-0.0617728
-0.461337
-0.723969
-0.795587
-0.533997
-0.476328
0.320727
-0.785719
-0.741723
-0.592071
-0.673762
-0.631031
0.614779
-0.585675
0.0202626
0.354525
-0.465223
0.1249
0.0642645
0.0686129
0.424942
0.232534
-0.228063
-0.242092
0.752043
-0.408158
0.329375
-0.348475
-0.68421
0.348328
0.366822
-0.776524
-0.581395
0.197753
-0.09953
-0.1746
-0.227396
-0.346428
-0.127768
0.555324
-0.294695
0.634177
0.672262
0.619688
-0.27176
0.551475
-0.228744
0.672861
0.675668
0.488457
-0.537781
0.475833
0.408117
-0.0165157
0.419899
-0.114599
0.535754
0.00163338
0.305557
-0.241509
0.522147
0.405723
0.35844
0.35815
0.373983
-0.229381
-0.374373
-0.667038
-0.0906539
-0.633316
-0.474859
-0.692012
0.158015
0.0858276
-0.562155
-0.342171
-0.443548
-0.106911
-0.634812
0.0778704
-0.669941
-0.474862
-0.1989
0.15066
-0.781691
-0.682765
0.09709
-0.561133
-0.361406
0.715931
-0.500561
0.625461
-0.541922
0.606186
-0.431948
0.659551
-0.234609
-0.383922
0.616456
-0.850583
0.62252
-0.577077
0.334985
-0.669892
0.261734
0.710585
-0.38121
-0.714867
0.366392
-0.366539
-0.578771
0.650521
-0.750051
0.482751
-0.65735
0.471241
-0.698636
0.304093
0.260629
0.362417
0.516394
0.155868
0.433617
0.186071
0.34505
0.206425
0.558854
0.114007
0.142112
0.533555
-0.0541343
0.542591
0.106451
0.369382
0.017402
0.390715
0.403383
0.421155
-0.488808
0.490442
-0.183251
0.338896
-0.0229808
0.428704
-0.103394
0.461834
0.554352
-0.196202
-0.328749
0.702732
0.181776
-0.556149
-0.613718
-0.0533202
-0.704372
-0.207821
-0.425494
-0.68268
-0.606185
-0.524751
-0.38038
0.255914
-0.598085
-0.55046
-0.556941
-0.519282
-0.476005
0.328366
-0.527266
-0.453325
0.667025
-0.569935
0.105893
-0.75073
0.389324
0.387182
-0.125269
0.117629
0.174238
-0.684908
0.450299
0.326664
-0.0684525
-0.484191
0.0454424
-0.334907
0.78227
-0.520536
0.40106
-0.678224
0.311685
-0.650815
0.0720443
-0.2673
-0.186109
-0.748702
0.0500651
-0.374131
-0.171697
0.432327
-0.117393
0.47981
0.46226
0.589485
0.531121
-0.1976
0.404025
0.700966
0.656598
0.519033
0.406504
-0.300053
0.386784
0.367734
0.505489
-0.102106
0.397985
0.0231695
0.444947
0.0454947
-0.200302
0.539198
0.32531
0.290137
0.35405
0.506531
-0.609469
-0.278865
-0.425507
-0.70436
-0.426766
-0.365192
-0.240993
0.241179
-0.765929
-0.745572
-0.0875537
-0.510531
-0.638013
0.0930953
-0.650037
0.158563
-0.677844
0.323995
-0.203271
0.127473
-0.580798
-0.627553
0.0576178
-0.544923
-0.321925
0.711249
-0.375943
0.763125
0.433002
-0.558271
-0.579747
0.697376
0.712008
-0.53777
-0.129447
0.66494
-0.338276
0.596488
-0.5674
0.0832093
0.584527
-0.539084
0.24962
-0.598947
0.0784106
0.614248
-0.213187
-0.255715
-0.676657
-0.720522
0.453222
0.394661
-0.580771
0.523677
-0.473612
-0.858583
0.484452
0.46401
-0.0316834
0.346617
0.28221
-0.173749
0.636009
0.415736
0.065862
0.465259
0.375086
0.0289387
0.1986
0.502366
-0.112331
0.768929
0.717633
0.300619
0.105884
0.205436
0.0592478
0.327537
0.0354052
0.332329
0.295879
0.468116
-0.339922
0.385417
0.199276
-0.0853645
0.410674
0.359773
-0.0696357
0.426957
-0.0729074
0.443109
0.0634216
0.206149
-0.815618
0.222799
-0.648305
-0.256321
-0.448039
-0.683087
0.360105
-0.601098
-0.386375
-0.405824
-0.539423
0.136266
-0.646798
-0.544918
-0.491474
-0.550372
-0.784069
0.657942
-0.600324
0.113019
-0.706313
0.384389
0.335305
0.362711
0.400414
-0.273311
0.153738
0.159606
-0.517887
0.38844
0.275971
0.0786004
0.556548
-0.473338
-0.827306
0.288222
-0.349327
0.707224
-0.628813
-0.722595
0.509408
-0.703371
0.447656
-0.52668
-0.149977
-0.32586
-0.405362
-0.0570936
-0.757254
0.283642
-0.218919
0.328089
0.409773
-0.0631563
0.328577
-0.0463671
0.523678
-0.2431
0.658836
0.440948
0.222158
0.357516
-0.0818103
0.584177
0.687119
0.0351925
0.682441
0.359867
-0.250353
0.356237
0.402656
-0.19722
0.362942
0.246965
-0.131171
0.42705
0.336945
0.520676
-0.135259
-0.281032
0.480307
0.341038
0.145926
0.370202
0.426133
-0.592819
-0.345278
-0.303027
-0.793317
-0.546821
-0.668056
0.0669582
0.380892
-0.767267
-0.587467
0.181643
0.15681
-0.696233
-0.0828297
-0.563968
-0.627748
0.105457
-0.596931
0.26556
-0.815931
0.0159312
-0.219432
-0.413661
0.695079
-0.310691
-0.309562
0.644868
0.456301
-0.0558865
-0.624426
0.351115
-0.470689
0.728358
-0.568752
0.597941
-0.209501
-0.523418
0.799389
0.637996
-0.559396
-0.270758
-0.0256827
0.666884
-0.378662
0.317557
-0.015371
-0.311256
-0.0140107
0.445479
-0.595457
-0.578767
0.252906
-0.670275
0.264913
-0.63586
-0.311775
-0.352218
-0.758721
0.539803
0.403591
-0.0755018
0.363406
0.340435
-0.282957
0.806635
0.375879
0.2131
0.227848
0.435258
0.400169
-0.0426529
0.619369
0.574903
0.112216
0.673049
0.0465878
0.313279
0.152303
0.24337
0.112867
0.229831
0.164749
0.198193
0.411714
0.309651
0.0272947
0.297681
0.222995
0.345049
0.28514
0.0558984
-0.319886
0.465812
0.0503153
0.0555137
0.370619
-0.474208
-0.118611
-0.777235
-0.123032
-0.670285
-0.669853
-0.511246
-0.520509
-0.585623
-0.543707
-0.152526
0.0612856
-0.625254
-0.52229
-0.331372
-0.791304
0.571872
0.266804
-0.680465
0.385517
-0.68881
0.378119
0.60435
0.0405171
0.511815
0.548464
-0.337695
0.257669
0.0291887
0.428495
0.239994
-0.692474
0.421715
-0.718157
-0.707167
0.328504
0.604665
-0.620036
-0.68097
0.369714
-0.615683
0.601672
-0.328652
-0.417369
0.672934
-0.408021
0.264087
-0.575862
-0.748525
0.396307
-0.0857873
-0.178354
0.209638
0.285085
0.0783214
-0.00320322
0.343638
0.419813
0.386823
0.514987
-0.139109
-0.142466
0.370314
0.504897
-0.0696386
0.257703
0.242432
-0.00891762
0.628287
0.565986
0.532028
0.187761
0.485288
0.289958
0.131437
0.181842
0.33094
-0.178637
-0.242974
0.355841
-0.126002
0.355833
0.32963
0.246712
0.165002
0.183649
0.324976
0.374027
-0.151032
0.43727
-0.0922218
0.30261
0.440888
0.0249244
0.420934
-0.662318
-0.663869
-0.113366
0.0029478
-0.673233
-0.608567
-0.598012
0.0867657
-0.645477
0.124967
-0.575013
-0.0106106
-0.750537
0.0536621
-0.678916
-0.468628
-0.674088
-0.117216
-0.108593
0.627014
-0.241497
0.691648
-0.313529
0.667531
0.228012
0.283803
0.07271
0.475754
-0.698641
0.360946
-0.440972
-0.461664
0.490853
-0.0331691
-0.372153
0.612147
-0.285451
-0.352466
-0.0110181
-0.660102
0.0400669
-0.290388
0.666976
-0.0653044
0.366638
-0.69529
-0.748768
0.331399
-0.749774
0.341753
-0.484438
-0.209224
-0.35246
-0.705615
0.619828
-0.569942
0.391588
-0.165669
0.375307
-0.231384
0.309705
-0.282516
0.279313
0.112254
-0.15889
0.545713
0.506098
0.00888907
0.365788
0.300676
-0.134249
0.391952
-0.0856529
0.328085
0.453815
0.174472
0.428918
0.137068
0.0212671
0.510761
0.641576
0.476825
0.156513
0.133445
0.338355
0.087966
0.177196
0.179206
0.176635
0.180402
0.149228
0.345404
-0.156657
0.340306
0.168319
0.158893
0.215134
0.286238
0.348666
0.136942
-0.350115
0.375039
0.0708193
-0.552151
-0.110167
-0.660922
-0.665516
-0.0793362
-0.593896
-0.687903
-0.558711
-0.450045
-0.684699
-0.440094
-0.310444
0.121084
0.558691
-0.675907
-0.803883
0.450151
-0.712891
0.399363
0.499375
0.168156
-0.135341
0.363352
0.354622
0.572085
0.340413
-0.351945
-0.758704
0.317733
-0.267852
-0.655244
0.622075
0.294823
-0.0430973
0.348545
-0.633997
-0.698784
0.346319
0.607958
-0.618976
0.593935
-0.553868
-0.77122
0.480831
-0.632805
0.567501
-0.418375
-0.363862
-0.531923
0.0474846
-0.741147
-0.670795
0.318335
0.0498853
0.786313
-0.394725
0.0927908
0.224052
0.195914
0.0833989
0.308168
0.347208
0.56698
-0.299697
0.308586
0.0660909
-0.139064
0.43974
0.193836
0.252888
0.60339
0.647829
0.14189
0.499686
0.618715
0.312651
0.133448
0.204907
-0.171167
0.259133
-0.154069
0.331265
0.285564
-0.108929
0.282676
0.13468
0.210723
0.186237
0.327211
0.339179
-0.124044
0.32749
-0.0412522
0.373668
-0.0250016
0.271622
0.390916
-0.015877
-0.550261
-0.651019
-0.00990249
-0.669782
0.00426579
0.0360699
-0.629966
-0.566819
-0.788623
0.229912
0.265823
-0.715868
-0.418876
0.320227
-0.63067
-0.245193
0.0091704
-0.685077
-0.384413
0.834564
0.725825
-0.326462
-0.384757
0.552913
0.0171706
0.346182
0.371793
0.124987
0.447098
0.4654
-0.800351
0.448406
-0.482618
0.354223
0.673194
-0.378371
0.630097
-0.350239
0.152316
-0.424901
-0.0248473
-0.0250414
-0.0730367
0.18913
-0.716531
0.298156
-0.719233
0.355371
0.653894
-0.60641
-0.766538
0.0253911
-0.0169011
-0.398195
0.612945
-0.563059
0.21822
-0.235032
0.327823
0.293806
-0.0697542
-0.194835
0.278234
0.250541
0.0576275
0.458088
-0.110879
0.626576
-0.0595959
0.463786
-0.1552
-0.279731
0.345822
0.160009
-0.126023
0.319859
0.304912
-0.0520239
-0.153133
0.756523
0.494697
-0.141592
0.641278
0.614343
0.099101
0.21355
-0.0191679
0.224075
0.160098
0.309071
-0.0499376
0.126827
0.158737
0.200142
0.0233851
0.259291
-0.0147514
0.225475
-0.13053
0.316767
0.196681
0.138803
0.200376
0.203446
0.332415
0.365915
0.03659
0.355916
-0.606246
0.0559849
-0.614949
-0.679685
-0.60198
-0.233181
-0.396786
-0.468396
-0.485956
0.331089
-0.749965
-0.574686
0.301188
-0.54638
0.587784
-0.578614
-0.353988
0.341412
0.449807
-0.687715
0.361253
-0.0412775
0.59419
-0.010268
0.35645
-0.132574
0.579672
0.455132
-0.239309
-0.607533
0.124915
-0.25331
0.713861
-0.0837637
-0.605072
0.254833
-0.452755
-0.654789
0.229888
0.707334
-0.732182
0.515639
-0.54068
0.609781
-0.682818
-0.540627
0.729758
-0.421078
0.809774
-0.454403
-0.697613
0.0912035
-0.46535
-0.672222
0.657808
-0.67471
0.259613
0.246715
0.658297
-0.440077
0.132988
0.167783
0.180786
0.209802
0.0684316
0.26743
0.421868
0.0362193
0.352906
0.32303
0.303546
0.362273
0.190622
-0.230969
0.390977
0.234579
0.0852794
0.0739434
0.182555
0.614931
0.817726
0.382211
0.259067
0.178866
0.435477
0.225928
0.194382
0.24746
0.256213
-0.0961157
0.206276
0.257761
-0.0990241
0.278138
-0.0779959
0.24454
0.262065
0.220651
0.335483
-0.0984692
0.298845
-0.156737
0.360183
0.175678
0.401937
-0.0360227
-0.060129
0.416045
-0.403214
-0.211735
-0.588265
-0.0914196
-0.70858
0.1066
-0.664981
0.196585
0.274492
-0.760449
-0.475473
-0.524509
-0.0501764
0.0414039
-0.511407
-0.0672065
-0.865395
0.719142
-0.37773
0.572842
-0.123035
0.670214
-0.308961
0.531565
0.461616
0.296321
0.207717
0.371955
0.218322
0.23681
0.46613
-0.705439
0.65276
-0.527844
0.46055
-0.677554
0.59379
-0.399956
0.205542
0.74547
-0.515582
0.166707
-0.216543
0.0691008
0.0626526
0.052204
-0.748871
0.327793
-0.778628
0.324225
0.556541
-0.465337
-0.466408
0.00105816
-0.505594
-0.166628
-0.118169
-0.489258
0.703106
-0.456391
0.263029
-0.103585
0.236574
-0.0688789
0.236662
-0.0972483
0.278035
-0.194503
0.262935
0.170181
-0.255232
0.291451
0.0976744
-0.185523
0.489069
0.455812
-0.0935396
-0.182567
0.37319
0.20841
-0.154827
0.240106
-0.252728
0.326672
-0.0701728
0.387208
0.227723
0.495087
0.322639
0.561077
0.646275
0.433127
0.0861757
0.139752
0.280558
0.00688593
0.240575
0.26206
-0.0557842
0.108247
0.149514
0.179113
0.184064
0.00268705
0.241852
0.284404
-0.022339
-0.0581985
0.27885
0.277285
0.261714
0.256812
0.042033
-0.194025
0.369703
0.207913
0.380022
-0.417909
-0.47946
-0.185521
-0.563863
0.349733
-0.825205
-0.529637
-0.425005
0.764086
-0.831292
-0.515662
0.565648
0.153493
0.292483
0.442613
-0.575191
0.26623
0.0170621
0.514503
-0.0659047
0.527521
0.514643
0.444528
-0.0153399
0.387295
-0.109061
-0.0526791
-0.0672941
0.640408
-0.0466183
-0.631888
0.231932
-0.426346
-0.637062
0.121479
0.673773
-0.507066
-0.68324
0.466697
-0.614139
0.644627
-0.581974
-0.571788
0.623992
-0.450835
0.751939
-0.427714
0.401497
-0.866834
-0.504535
0.439746
-0.606374
-0.517601
0.399432
-0.801649
0.312391
0.295548
0.684854
-0.421825
0.180818
0.0420705
0.209156
0.0818351
0.0325423
0.230393
-0.0934195
0.263601
0.414794
-0.123343
0.303471
-0.205797
0.270289
0.507649
-0.0185799
0.321254
0.328631
0.0445581
0.296581
-0.088171
0.169934
0.293897
0.032775
0.72281
-0.316695
0.639334
0.198385
0.362692
0.394545
0.25173
0.631512
0.247999
0.287444
0.243262
0.223066
0.190478
-0.0409639
0.234498
-0.0553845
0.264439
-0.0803751
0.219513
0.015526
0.261759
0.192447
0.0692675
0.272338
0.23448
0.216864
0.152839
-0.205681
0.413593
0.174341
0.382091
0.418047
-0.603568
-0.145816
-0.452667
-0.372538
-0.147546
0.339081
-0.153142
-0.678151
0.241437
-0.757099
0.604838
-0.451344
0.608998
-0.316515
0.706837
-0.264224
0.719702
-0.453472
0.723899
0.448598
0.512181
0.186718
0.327925
0.0532841
0.391244
0.440579
0.487817
-0.596878
0.572066
-0.624745
0.573114
-0.636309
0.589691
-0.40513
0.258508
0.633461
-0.511981
0.101984
-0.82154
0.314475
-0.354843
0.0304875
0.0514866
-0.012317
-0.792689
0.341854
-0.745188
0.317474
-0.116104
-0.427088
-0.165454
-0.47017
-0.136204
-0.402217
-0.480298
0.705201
-0.409653
0.283376
0.191236
-0.0104184
0.233307
0.161449
0.0477069
0.243284
-0.204418
0.23696
0.136973
0.170704
0.0928964
0.180129
0.122835
0.381136
-0.110846
0.190954
0.362556
0.376972
-0.0557178
-0.162676
0.207234
0.133905
0.205726
-0.0753695
0.245303
-0.259904
0.292679
0.325173
0.397636
0.593363
0.0459708
0.757237
0.576904
0.631081
-0.0157861
0.263785
0.092369
0.195075
0.0237026
0.219559
0.229503
-0.00643701
0.174692
0.193534
0.209055
0.149128
0.216877
0.00263688
0.255322
0.286132
0.00121905
0.271119
-0.0457302
0.28021
-0.148864
0.301703
0.264729
0.361059
-0.40019
-0.203378
-0.598483
0.314983
-0.687521
-0.547736
0.47191
-0.625051
-0.436714
-0.442116
0.340614
0.157654
0.403187
0.0343444
0.223237
0.500661
0.671836
0.364643
0.147538
0.0148125
0.313113
0.406056
0.0786868
0.361892
-0.024812
-0.0516309
0.617071
-0.0273796
-0.620696
0.215566
-0.362188
-0.526892
0.014911
-0.450724
0.552708
0.728576
-0.414102
-0.738246
0.383403
0.62302
-0.592532
0.64124
-0.589754
-0.609196
0.596879
-0.403334
0.72004
-0.402566
0.558035
-0.674139
-0.632091
0.205003
-0.635624
-0.768295
0.155818
-0.806411
0.326113
0.310387
0.654015
-0.370639
0.206458
0.0288892
0.218411
0.197993
0.0452915
0.0887089
0.148251
0.225682
-0.097832
0.190728
0.351284
-0.171155
-0.224836
0.34767
0.266126
-0.302045
0.492999
0.0605112
-0.283942
0.228224
-0.0176017
0.222078
-0.0881727
0.214273
-0.00854742
0.122623
-0.0146014
0.169493
0.123186
-0.119738
0.517374
0.473625
-0.3675
0.413471
0.562991
0.194246
0.0399508
0.536953
-0.00723537
0.638317
0.115013
0.148773
0.207382
0.218777
0.222196
-0.0257563
0.200448
0.20734
-0.0138057
0.204622
0.00443257
-0.12239
0.271518
0.132931
0.240401
0.281429
0.118195
0.152924
0.292025
0.00967718
0.220809
0.0439204
0.0817475
0.279312
0.361172
-0.56455
-0.237311
-0.303268
-0.384254
0.252264
0.862635
-0.390725
-0.295753
-0.329299
-0.732467
0.224357
-0.666473
0.799093
-0.458479
-0.552307
0.709961
-0.14912
0.608499
-0.574155
-0.0847068
0.585368
0.286292
0.385544
0.44333
0.43383
0.39486
0.0503417
0.355714
0.412234
0.552323
-0.577135
0.56544
-0.637061
0.609681
-0.311326
0.291826
0.577239
-0.562328
0.277852
-0.0564873
-0.756764
0.342662
-0.115226
-0.373361
0.0487079
-0.0125141
-0.0401822
-0.762527
0.359193
-0.763424
0.360858
-0.64248
-0.0316587
-0.437477
0.22701
-0.541285
-0.650593
-0.436415
0.647053
-0.336666
0.276414
0.208683
-0.00222521
0.237573
0.153571
0.0648409
0.198862
0.198026
-0.0497747
0.12785
0.17153
0.0191981
0.0673421
0.176515
0.39152
-0.125394
0.125499
-0.226041
0.286553
0.374316
-0.146092
0.204476
0.1261
0.160946
0.201049
-0.0784256
0.186447
0.183817
-0.0606304
0.557325
-0.0949297
0.568555
0.444141
-0.03067
0.555755
0.731199
0.63992
-0.0487379
0.197511
0.0384719
0.16891
0.0308947
0.187883
0.201436
0.0207599
0.181583
0.15171
0.190816
-0.169062
0.173495
0.102456
0.251127
-0.0750607
0.315462
0.126965
0.154463
0.279889
0.216965
0.230486
0.323232
-0.312286
-0.540579
0.150882
-0.535136
-0.752346
0.361621
0.283533
-0.612831
-0.508109
-0.515591
0.704601
0.0944922
0.251482
-0.693963
0.544843
-0.0854643
-0.021832
0.619894
0.0483749
0.536993
0.433919
0.100009
0.343321
0.064318
0.369512
0.048432
0.346428
0.404146
0.0482507
0.363983
-0.0116947
0.592705
0.0169762
-0.655271
0.343945
-0.363444
-0.218384
0.603525
-0.325672
0.547037
0.699318
-0.356656
-0.578024
0.462797
-0.649346
0.275986
0.658944
-0.610236
0.61928
-0.631794
-0.663999
0.623817
-0.404231
0.687193
-0.326334
0.656111
-0.687769
0.389877
-0.827354
-0.622828
0.0815429
0.00551763
-0.835422
0.399007
0.350527
0.651026
-0.374612
0.199211
0.209073
0.0284997
0.236371
0.120436
0.0574283
0.140598
0.159298
0.185278
0.204476
0.271661
-0.204319
0.264391
-0.0878758
0.165479
0.248921
0.336668
-0.21117
0.3873
-0.100748
0.125569
0.287873
-0.0833967
-0.160474
0.286575
0.0004711
-0.0896562
0.276103
0.184288
-0.191697
0.131067
-0.199045
0.75637
0.349211
0.36951
-0.352539
0.321869
-0.142811
0.698566
0.588388
-0.179173
0.819092
0.235982
0.199805
0.208643
0.181812
-0.000228222
-0.0877432
0.239453
0.180301
0.0105152
0.21315
-0.0396557
-0.10767
0.210126
0.143456
0.149595
0.165867
0.304058
0.115769
0.164121
0.266718
-0.0497536
-0.0353567
0.265843
0.287875
0.487714
-0.0528652
-0.588001
-0.468814
-0.261206
-0.564722
-0.0481088
0.202152
-0.710261
0.099428
-0.615019
0.682518
-0.588025
0.629875
-0.378393
0.756039
-0.211195
-0.63021
0.544746
0.58713
-0.608962
0.0667127
0.553182
0.0967111
0.440282
0.498237
0.469521
0.391571
0.12296
0.223468
0.229728
0.174418
0.135319
0.228664
0.581011
-0.631663
0.64864
0.287582
0.527356
-0.74574
0.373645
-0.116962
-0.776319
0.419663
0.0809208
-0.186549
-0.500333
0.00904396
-0.104438
-0.00784639
-0.763944
0.359713
-0.826706
0.500372
-0.297892
-0.646181
-0.181173
-0.564638
0.564177
-0.55866
-0.271245
-0.364937
0.542523
-0.191996
0.167911
-0.00757086
0.206782
-0.152841
0.181341
0.121221
0.11515
0.241658
0.18649
-0.0458919
0.183941
-0.0246428
0.0215082
0.182968
0.0600722
-0.236571
0.148695
0.277997
-0.112518
0.290499
-0.0415773
-0.0158708
0.176131
0.177249
-0.170738
0.296307
0.0513021
0.203178
0.152002
0.0844063
-0.0841981
0.268486
0.239997
-0.10893
0.193636
0.562734
-0.10908
0.458292
-0.0974097
0.46692
0.431398
-0.109529
0.519394
0.0175532
0.570835
0.152272
0.66682
0.126221
0.109761
0.0428332
0.156971
0.178807
0.0298351
0.0940685
0.180073
0.169613
0.0698406
0.223666
0.17047
0.259225
-0.137686
0.303553
0.0839907
0.220068
0.248111
0.129032
0.216089
0.0633833
0.224492
0.211999
-0.512535
0.043721
0.454545
-0.715752
-0.362571
-0.560644
-0.610833
-0.40302
0.643441
0.0390767
0.0418495
0.377646
-0.65594
0.444744
-0.0430798
-0.111194
-0.0279517
0.710154
0.649893
-0.0593551
0.499637
0.438881
0.152727
0.316794
0.213945
0.177626
0.186344
0.146017
0.0774513
0.365048
0.320434
0.442609
0.550038
0.0986015
-0.458158
0.774587
-0.400941
0.657625
0.412537
0.695252
-0.614331
0.508703
0.621094
-0.61205
0.618325
-0.722763
-0.647559
0.639713
-0.466993
0.646958
-0.146587
-0.595585
0.297693
0.569035
-0.750208
-0.110093
-0.8202
0.26154
-0.676063
0.404818
-0.752962
0.388025
0.454962
0.615271
-0.44736
0.171237
0.0539407
0.153969
0.0273717
-0.0992918
0.214442
0.145348
0.0411415
0.138049
0.129326
0.166856
0.0836763
-0.237705
0.297777
-0.0890101
0.177981
-0.269081
0.227503
-0.327237
0.311366
-0.151107
0.342267
-0.165018
0.127039
0.0272265
-0.178968
0.23027
0.0242099
0.200478
-0.0484763
0.165183
-0.0807767
0.155799
0.162718
0.105768
0.0562528
-0.363978
0.557613
0.580287
0.322318
0.360882
0.102942
-0.301752
0.192223
-0.149194
0.668588
0.42164
0.82086
0.671236
0.169054
-0.0480193
0.157781
0.186806
-0.118999
0.213067
0.0610743
0.121593
-0.116
0.185841
0.14384
0.0798255
-0.0866682
0.257139
0.172557
0.109325
0.194228
0.00776062
0.212307
0.0777422
0.170369
-0.178578
0.30761
0.0375113
0.262003
0.610587
-0.566866
-0.105165
0.432159
-0.79473
-0.128484
-0.39698
-0.213853
-0.610106
0.649183
-0.644977
0.686826
-0.267331
0.691056
-0.246312
0.596583
-0.639663
-0.63084
0.519646
0.522086
0.70937
0.000783291
0.178546
0.471347
0.678183
0.591608
0.49442
0.263795
0.0922136
0.272834
0.250247
0.0701871
0.188781
0.253828
-0.628572
0.727173
0.157113
-0.727565
-0.657316
0.190323
0.571961
-0.718547
-0.0265497
-0.522507
-0.439749
-0.310459
-0.549842
-0.414523