/*--------------------------------*- C++ -*----------------------------------*\
| =========                 |                                                 |
| \\      /  F ield         | OpenFOAM: The Open Source CFD Toolbox           |
|  \\    /   O peration     | Version:  v2012                                 |
|   \\  /    A nd           | Website:  www.openfoam.com                      |
|    \\/     M anipulation  |                                                 |
\*---------------------------------------------------------------------------*/
FoamFile
{
    version     2.0;
    format      ascii;
    class       volScalarField;
    location    "0.1";
    object      rAU;
}
// * * * * * * * * * * * * * * * * * * * * * * * * * * * * * * * * * * * * * //

dimensions      [-1 3 1 0 0 0 0];


internalField   nonuniform List<scalar> 
13611
(
1.9644e-07
1.93069e-07
1.94588e-07
1.94335e-07
1.94377e-07
1.96431e-07
1.94788e-07
1.95668e-07
1.96433e-07
1.93828e-07
1.95858e-07
1.95382e-07
1.9215e-07
1.95707e-07
1.95849e-07
1.93059e-07
1.95807e-07
1.96429e-07
1.95483e-07
1.96364e-07
1.95217e-07
1.92598e-07
1.96447e-07
1.95816e-07
1.93006e-07
1.95778e-07
1.96241e-07
1.94649e-07
1.96335e-07
1.95214e-07
1.94173e-07
1.95435e-07
1.95319e-07
1.92917e-07
1.95633e-07
1.95742e-07
1.96202e-07
1.96429e-07
1.94672e-07
1.95915e-07
1.95003e-07
1.92998e-07
1.91315e-07
1.95144e-07
1.95566e-07
1.96437e-07
1.92917e-07
1.95617e-07
1.95928e-07
1.94635e-07
1.95783e-07
1.94699e-07
1.95916e-07
1.95135e-07
1.95209e-07
1.96108e-07
1.91525e-07
1.92923e-07
1.93885e-07
1.95728e-07
1.95703e-07
1.95897e-07
1.94718e-07
1.95941e-07
1.95875e-07
1.96435e-07
1.94746e-07
1.95987e-07
1.95168e-07
1.95196e-07
1.9637e-07
1.93924e-07
1.93787e-07
1.9571e-07
1.96438e-07
1.95691e-07
1.95895e-07
1.94716e-07
1.93777e-07
1.93223e-07
1.96098e-07
1.9525e-07
1.95993e-07
1.9511e-07
1.95235e-07
1.93086e-07
1.92782e-07
1.96183e-07
1.95123e-07
1.93587e-07
1.95364e-07
1.95655e-07
1.96488e-07
1.94907e-07
1.9349e-07
1.92112e-07
1.94482e-07
1.96183e-07
1.96429e-07
1.95285e-07
1.92176e-07
1.95349e-07
1.95351e-07
1.93738e-07
1.91854e-07
1.91051e-07
1.96073e-07
1.95134e-07
1.93785e-07
1.95195e-07
1.96464e-07
1.95819e-07
1.96323e-07
1.9447e-07
1.95132e-07
1.91543e-07
1.94227e-07
1.94603e-07
1.95848e-07
1.95758e-07
1.92393e-07
1.92725e-07
1.95023e-07
1.93516e-07
1.92823e-07
1.94158e-07
1.9396e-07
1.96352e-07
1.9594e-07
1.94157e-07
1.92654e-07
1.94242e-07
1.93567e-07
1.92533e-07
1.94815e-07
1.95072e-07
1.93342e-07
1.95799e-07
1.94597e-07
1.96415e-07
1.95856e-07
1.92858e-07
1.95216e-07
1.949e-07
1.94313e-07
1.94358e-07
1.94446e-07
1.9455e-07
1.96369e-07
1.95672e-07
1.94505e-07
1.94102e-07
1.94228e-07
1.95101e-07
1.94373e-07
1.93258e-07
1.95446e-07
1.9398e-07
1.95517e-07
1.94315e-07
1.9411e-07
1.95899e-07
1.96092e-07
1.92152e-07
1.95163e-07
1.95499e-07
1.95324e-07
1.95185e-07
1.94774e-07
1.94049e-07
1.9255e-07
1.95533e-07
1.93252e-07
1.9474e-07
1.93962e-07
1.94194e-07
1.96408e-07
1.9361e-07
1.93863e-07
1.92078e-07
1.95836e-07
1.9506e-07
1.94423e-07
1.94023e-07
1.95869e-07
1.9435e-07
1.96404e-07
1.96017e-07
1.94861e-07
1.93676e-07
1.95623e-07
1.94524e-07
1.94194e-07
1.94354e-07
1.93784e-07
1.92563e-07
1.95505e-07
1.94901e-07
1.95578e-07
1.94158e-07
1.94573e-07
1.9378e-07
1.94446e-07
1.94626e-07
1.95374e-07
1.95005e-07
1.92794e-07
1.9417e-07
1.9549e-07
1.93105e-07
1.95335e-07
1.93955e-07
1.94185e-07
1.9525e-07
1.95468e-07
1.92999e-07
1.95251e-07
1.94304e-07
1.92477e-07
1.94208e-07
1.95891e-07
1.95487e-07
1.96098e-07
1.93817e-07
1.94832e-07
1.94617e-07
1.94592e-07
1.94777e-07
1.96411e-07
1.93119e-07
1.95607e-07
1.9464e-07
1.94702e-07
1.9344e-07
1.9522e-07
1.95778e-07
1.95104e-07
1.92995e-07
1.96361e-07
1.94806e-07
1.94229e-07
1.94184e-07
1.94382e-07
1.95429e-07
1.95328e-07
1.94694e-07
1.9431e-07
1.94678e-07
1.93944e-07
1.95634e-07
1.95691e-07
1.96109e-07
1.9468e-07
1.94757e-07
1.94537e-07
1.94602e-07
1.94405e-07
1.93817e-07
1.95199e-07
1.95517e-07
1.95428e-07
1.95612e-07
1.94453e-07
1.94678e-07
1.94539e-07
1.94307e-07
1.95304e-07
1.96052e-07
1.92676e-07
1.93571e-07
1.92463e-07
1.93682e-07
1.9423e-07
1.93422e-07
1.92502e-07
1.95238e-07
1.92225e-07
1.92404e-07
1.95816e-07
1.9476e-07
1.95283e-07
1.94409e-07
1.93672e-07
1.92513e-07
1.94834e-07
1.93273e-07
1.95632e-07
1.9504e-07
1.94578e-07
1.94034e-07
1.96473e-07
1.92468e-07
1.93816e-07
1.95656e-07
1.95638e-07
1.94486e-07
1.94255e-07
1.95307e-07
1.96134e-07
1.9337e-07
1.94262e-07
1.9406e-07
1.94801e-07
1.95252e-07
1.94111e-07
1.91668e-07
1.93534e-07
1.95159e-07
1.92316e-07
1.95726e-07
1.95383e-07
1.95293e-07
1.94249e-07
1.93907e-07
1.93674e-07
1.94849e-07
1.93596e-07
1.93054e-07
1.9481e-07
1.93398e-07
1.94714e-07
1.9422e-07
1.94521e-07
1.93176e-07
1.94615e-07
1.94361e-07
1.94114e-07
1.95079e-07
1.96375e-07
1.94722e-07
1.95157e-07
1.94229e-07
1.95501e-07
1.94212e-07
1.96385e-07
1.93853e-07
1.93628e-07
1.95181e-07
1.94555e-07
1.95234e-07
1.9459e-07
1.95515e-07
1.9467e-07
1.94406e-07
1.95374e-07
1.9457e-07
1.93625e-07
1.93896e-07
1.93466e-07
1.94855e-07
1.95713e-07
1.92903e-07
1.94335e-07
1.93721e-07
1.96731e-07
1.94462e-07
1.93534e-07
1.95511e-07
1.92723e-07
1.93256e-07
1.94351e-07
1.93164e-07
1.9417e-07
1.9386e-07
1.9637e-07
1.95163e-07
1.94645e-07
1.93836e-07
1.92515e-07
1.95478e-07
1.91636e-07
1.95592e-07
1.94575e-07
1.92966e-07
1.92683e-07
1.94077e-07
1.93413e-07
1.9548e-07
1.937e-07
1.94547e-07
1.94674e-07
1.94494e-07
1.93818e-07
1.94645e-07
1.94244e-07
1.94106e-07
1.92316e-07
1.94939e-07
1.9589e-07
1.92567e-07
1.93623e-07
1.96777e-07
1.93501e-07
1.9447e-07
1.94582e-07
1.96365e-07
1.94743e-07
1.94667e-07
1.94781e-07
1.94508e-07
1.93563e-07
1.94327e-07
1.94221e-07
1.94972e-07
1.94835e-07
1.9522e-07
1.91981e-07
1.93822e-07
1.93843e-07
1.95472e-07
1.96372e-07
1.94227e-07
1.9454e-07
1.95056e-07
1.94285e-07
1.92408e-07
1.93082e-07
1.93944e-07
1.94e-07
1.93431e-07
1.92602e-07
1.94242e-07
1.93808e-07
1.91944e-07
1.94187e-07
1.93824e-07
1.94121e-07
1.95039e-07
1.94875e-07
1.95286e-07
1.94886e-07
1.9425e-07
1.94263e-07
1.9506e-07
1.96541e-07
1.92929e-07
1.94563e-07
1.9476e-07
1.95362e-07
1.95116e-07
1.94102e-07
1.95575e-07
1.95068e-07
1.95153e-07
1.94651e-07
1.94602e-07
1.9305e-07
1.93072e-07
1.92746e-07
1.95475e-07
1.9487e-07
1.94792e-07
1.95161e-07
1.94422e-07
1.9431e-07
1.94069e-07
1.92876e-07
1.94185e-07
1.94181e-07
1.946e-07
1.93588e-07
1.94068e-07
1.94049e-07
1.95191e-07
1.94447e-07
1.9526e-07
1.93059e-07
1.94324e-07
1.93488e-07
1.94799e-07
1.94845e-07
1.94078e-07
1.95101e-07
1.94029e-07
1.94646e-07
1.95488e-07
1.94373e-07
1.95003e-07
1.94839e-07
1.94814e-07
1.93078e-07
1.9481e-07
1.94727e-07
1.95349e-07
1.93395e-07
1.91636e-07
1.95691e-07
1.96377e-07
1.94844e-07
1.94676e-07
1.96094e-07
1.96861e-07
1.9444e-07
1.95265e-07
1.94139e-07
1.93552e-07
1.94116e-07
1.94359e-07
1.94522e-07
1.94224e-07
1.94378e-07
1.94529e-07
1.9313e-07
1.95217e-07
1.94599e-07
1.95117e-07
1.94521e-07
1.95622e-07
1.94792e-07
1.94628e-07
1.93555e-07
1.92827e-07
1.92938e-07
1.95056e-07
1.94598e-07
1.95494e-07
1.92556e-07
1.93786e-07
1.94489e-07
1.9543e-07
1.9313e-07
1.94743e-07
1.95854e-07
1.94846e-07
1.95132e-07
1.94705e-07
1.95055e-07
1.9362e-07
1.9364e-07
1.95903e-07
1.95947e-07
1.94273e-07
1.96066e-07
1.96853e-07
1.94047e-07
1.94598e-07
1.92981e-07
1.93532e-07
1.95015e-07
1.94589e-07
1.94255e-07
1.94229e-07
1.94293e-07
1.95825e-07
1.95001e-07
1.94309e-07
1.94871e-07
1.95925e-07
1.9445e-07
1.9444e-07
1.92792e-07
1.94919e-07
1.93497e-07
1.92728e-07
1.92931e-07
1.93374e-07
1.94123e-07
1.94143e-07
1.95707e-07
1.93958e-07
1.95094e-07
1.94035e-07
1.94254e-07
1.93427e-07
1.94448e-07
1.94419e-07
1.92864e-07
1.93387e-07
1.92795e-07
1.96369e-07
1.95902e-07
1.95448e-07
1.95359e-07
1.93201e-07
1.92972e-07
1.95158e-07
1.94281e-07
1.92815e-07
1.94658e-07
1.95126e-07
1.92621e-07
1.95496e-07
1.9501e-07
1.94454e-07
1.94141e-07
1.94121e-07
1.95529e-07
1.94323e-07
1.9343e-07
1.93729e-07
1.94404e-07
1.94557e-07
1.94312e-07
1.94855e-07
1.9508e-07
1.93527e-07
1.96395e-07
1.93469e-07
1.9034e-07
1.93207e-07
1.92516e-07
1.94063e-07
1.92804e-07
1.94728e-07
1.94334e-07
1.9417e-07
1.939e-07
1.94516e-07
1.93612e-07
1.92751e-07
1.93053e-07
1.95186e-07
1.93718e-07
1.95843e-07
1.95079e-07
1.94462e-07
1.9463e-07
1.93467e-07
1.96171e-07
1.93766e-07
1.9554e-07
1.95421e-07
1.93202e-07
1.94011e-07
1.94963e-07
1.94185e-07
1.94577e-07
1.94965e-07
1.9577e-07
1.947e-07
1.95004e-07
1.94631e-07
1.94342e-07
1.93553e-07
1.94606e-07
1.92694e-07
1.94243e-07
1.93637e-07
1.93638e-07
1.94273e-07
1.93715e-07
1.94287e-07
1.94749e-07
1.93919e-07
1.95157e-07
1.94405e-07
1.92684e-07
1.9315e-07
1.90186e-07
1.90158e-07
1.92218e-07
1.91324e-07
1.92282e-07
1.91701e-07
1.92951e-07
1.94087e-07
1.92546e-07
1.94233e-07
1.95591e-07
1.95324e-07
1.953e-07
1.92035e-07
1.95271e-07
1.93989e-07
1.94297e-07
1.93586e-07
1.94331e-07
1.96363e-07
1.96188e-07
1.95506e-07
1.94218e-07
1.94646e-07
1.94718e-07
1.95605e-07
1.92112e-07
1.95592e-07
1.95731e-07
1.94771e-07
1.95196e-07
1.9445e-07
1.94393e-07
1.94508e-07
1.94012e-07
1.93062e-07
1.94156e-07
1.93439e-07
1.9409e-07
1.95373e-07
1.92359e-07
1.93185e-07
1.93331e-07
1.94656e-07
1.94457e-07
1.93738e-07
1.9384e-07
1.96457e-07
1.93448e-07
1.93045e-07
1.91726e-07
1.91951e-07
1.93537e-07
1.91307e-07
1.90695e-07
1.93242e-07
1.92744e-07
1.92691e-07
1.93215e-07
1.94011e-07
1.93115e-07
1.93894e-07
1.94624e-07
1.94131e-07
1.9567e-07
1.94474e-07
1.92502e-07
1.95404e-07
1.95786e-07
1.9373e-07
1.94667e-07
1.94702e-07
1.94286e-07
1.96123e-07
1.92371e-07
1.95797e-07
1.93127e-07
1.95344e-07
1.9503e-07
1.94936e-07
1.94578e-07
1.94283e-07
1.94451e-07
1.9465e-07
1.94451e-07
1.94458e-07
1.93035e-07
1.93959e-07
1.94838e-07
1.94313e-07
1.93224e-07
1.92613e-07
1.93136e-07
1.94996e-07
1.92442e-07
1.9502e-07
1.94232e-07
1.95739e-07
1.92336e-07
1.92099e-07
1.92096e-07
1.92872e-07
1.91312e-07
1.92888e-07
1.93879e-07
1.91287e-07
1.91703e-07
1.93348e-07
1.94546e-07
1.94453e-07
1.94833e-07
1.95115e-07
1.9459e-07
1.95225e-07
1.94188e-07
1.95834e-07
1.94633e-07
1.94044e-07
1.95479e-07
1.95667e-07
1.94437e-07
1.96333e-07
1.94788e-07
1.92554e-07
1.94789e-07
1.94704e-07
1.95635e-07
1.95014e-07
1.95649e-07
1.94245e-07
1.95486e-07
1.93892e-07
1.92636e-07
1.93632e-07
1.94634e-07
1.95433e-07
1.93413e-07
1.9424e-07
1.94442e-07
1.94943e-07
1.9576e-07
1.94501e-07
1.94209e-07
1.9546e-07
1.95458e-07
1.91286e-07
1.9316e-07
1.95616e-07
1.93907e-07
1.94345e-07
1.9172e-07
1.95009e-07
1.9427e-07
1.96482e-07
1.92763e-07
1.92181e-07
1.91209e-07
1.91005e-07
1.90328e-07
1.94292e-07
1.9308e-07
1.91124e-07
1.8906e-07
1.92406e-07
1.93019e-07
1.94409e-07
1.94245e-07
1.93049e-07
1.94206e-07
1.95699e-07
1.94109e-07
1.93458e-07
1.9409e-07
1.93743e-07
1.95148e-07
1.94743e-07
1.93329e-07
1.94402e-07
1.94253e-07
1.94023e-07
1.94657e-07
1.94897e-07
1.95083e-07
1.95279e-07
1.93786e-07
1.95379e-07
1.95047e-07
1.94053e-07
1.93849e-07
1.95681e-07
1.95768e-07
1.9439e-07
1.95087e-07
1.94986e-07
1.94569e-07
1.95689e-07
1.95471e-07
1.94072e-07
1.95467e-07
1.95082e-07
1.89462e-07
1.92191e-07
1.89007e-07
1.93284e-07
1.94104e-07
1.90554e-07
1.90979e-07
1.92128e-07
1.95644e-07
1.92383e-07
1.89748e-07
1.89919e-07
1.91352e-07
1.88433e-07
1.90262e-07
1.9069e-07
1.94151e-07
1.89584e-07
1.91062e-07
1.90422e-07
1.91923e-07
1.94039e-07
1.95014e-07
1.94895e-07
1.94867e-07
1.94669e-07
1.95662e-07
1.93705e-07
1.92883e-07
1.95619e-07
1.94568e-07
1.95049e-07
1.94688e-07
1.94364e-07
1.93606e-07
1.93799e-07
1.95424e-07
1.94602e-07
1.95256e-07
1.91353e-07
1.92936e-07
1.93199e-07
1.95089e-07
1.95349e-07
1.94706e-07
1.94162e-07
1.94962e-07
1.94507e-07
1.94559e-07
1.94664e-07
1.93881e-07
1.93177e-07
1.93173e-07
1.92126e-07
1.95207e-07
1.92041e-07
1.92017e-07
1.95916e-07
1.89755e-07
1.914e-07
1.91297e-07
1.95817e-07
1.94558e-07
1.90889e-07
1.9344e-07
1.90613e-07
1.95303e-07
1.95293e-07
1.95095e-07
1.91357e-07
1.89951e-07
1.88793e-07
1.88951e-07
1.91032e-07
1.86885e-07
1.87851e-07
1.89184e-07
1.90886e-07
1.90292e-07
1.91634e-07
1.91142e-07
1.94411e-07
1.9387e-07
1.95214e-07
1.94724e-07
1.94621e-07
1.93761e-07
1.9276e-07
1.93694e-07
1.95095e-07
1.9522e-07
1.95037e-07
1.94563e-07
1.9491e-07
1.89916e-07
1.95506e-07
1.95513e-07
1.9448e-07
1.94217e-07
1.9496e-07
1.93912e-07
1.93998e-07
1.95315e-07
1.9229e-07
1.93595e-07
1.94846e-07
1.93394e-07
1.94419e-07
1.94754e-07
1.93376e-07
1.9626e-07
1.94712e-07
1.95951e-07
1.94295e-07
1.95147e-07
1.96065e-07
1.92142e-07
1.94145e-07
1.93663e-07
1.95411e-07
1.903e-07
1.91277e-07
1.91593e-07
1.9466e-07
1.9472e-07
1.87976e-07
1.89055e-07
1.90157e-07
1.94696e-07
1.94965e-07
1.9645e-07
1.86747e-07
1.88486e-07
1.88174e-07
1.87908e-07
1.8852e-07
1.87186e-07
1.90107e-07
1.89095e-07
1.89567e-07
1.87939e-07
1.89946e-07
1.92131e-07
1.91106e-07
1.9558e-07
1.93993e-07
1.94843e-07
1.94689e-07
1.94079e-07
1.93985e-07
1.9411e-07
1.94145e-07
1.95408e-07
1.94413e-07
1.95121e-07
1.89682e-07
1.95684e-07
1.92673e-07
1.92696e-07
1.9475e-07
1.93648e-07
1.91208e-07
1.94919e-07
1.94519e-07
1.94917e-07
1.94836e-07
1.91943e-07
1.95786e-07
1.94468e-07
1.94373e-07
1.94722e-07
1.96218e-07
1.95544e-07
1.95985e-07
1.92682e-07
1.95973e-07
1.95393e-07
1.94103e-07
1.95451e-07
1.94519e-07
1.96056e-07
1.90229e-07
1.87748e-07
1.88932e-07
1.92698e-07
1.92519e-07
1.91006e-07
1.89438e-07
1.90267e-07
1.89953e-07
1.9385e-07
1.93863e-07
1.9516e-07
1.94434e-07
1.87434e-07
1.87806e-07
1.88151e-07
1.88673e-07
1.87826e-07
1.90065e-07
1.87154e-07
1.87044e-07
1.9093e-07
1.89225e-07
1.9157e-07
1.8905e-07
1.91488e-07
1.92294e-07
1.95903e-07
1.95209e-07
1.958e-07
1.95439e-07
1.95534e-07
1.94718e-07
1.95489e-07
1.93741e-07
1.96502e-07
1.96614e-07
1.93286e-07
1.96129e-07
1.93806e-07
1.94806e-07
1.95094e-07
1.93519e-07
1.88969e-07
1.92924e-07
1.94865e-07
1.95447e-07
1.94536e-07
1.94981e-07
1.95587e-07
1.9602e-07
1.94893e-07
1.95098e-07
1.94335e-07
1.94113e-07
1.93951e-07
1.94238e-07
1.9533e-07
1.9355e-07
1.93741e-07
1.95419e-07
1.95757e-07
1.94811e-07
1.96384e-07
1.85367e-07
1.89673e-07
1.88829e-07
1.88584e-07
1.94332e-07
1.90535e-07
1.90096e-07
1.9013e-07
1.88792e-07
1.86822e-07
1.94766e-07
1.9297e-07
1.95099e-07
1.95212e-07
1.96459e-07
1.871e-07
1.84619e-07
1.88587e-07
1.86884e-07
1.86068e-07
1.88344e-07
1.87871e-07
1.86161e-07
1.8693e-07
1.88206e-07
1.88644e-07
1.91e-07
1.85955e-07
1.91402e-07
1.91348e-07
1.95018e-07
1.95789e-07
1.95186e-07
1.94588e-07
1.94729e-07
1.95837e-07
1.94769e-07
1.95562e-07
1.93502e-07
1.94965e-07
1.9586e-07
1.93002e-07
1.95717e-07
1.9532e-07
1.95747e-07
1.92909e-07
1.91226e-07
1.93467e-07
1.92321e-07
1.95242e-07
1.94875e-07
1.92981e-07
1.94856e-07
1.92762e-07
1.94944e-07
1.94709e-07
1.94636e-07
1.95088e-07
1.94155e-07
1.92621e-07
1.93596e-07
1.95035e-07
1.94853e-07
1.96219e-07
1.9408e-07
1.94671e-07
1.95336e-07
1.93676e-07
1.86689e-07
1.87362e-07
1.86256e-07
1.86224e-07
1.93997e-07
1.94968e-07
1.90381e-07
1.89323e-07
1.89084e-07
1.88863e-07
1.88431e-07
1.93175e-07
1.93598e-07
1.95629e-07
1.9506e-07
1.86835e-07
1.82899e-07
1.87194e-07
1.86444e-07
1.87911e-07
1.8639e-07
1.83996e-07
1.85729e-07
1.88365e-07
1.87624e-07
1.88437e-07
1.91771e-07
1.86098e-07
1.90982e-07
1.94864e-07
1.94776e-07
1.95617e-07
1.93418e-07
1.94703e-07
1.94308e-07
1.9331e-07
1.94657e-07
1.95193e-07
1.95414e-07
1.94607e-07
1.95541e-07
1.95339e-07
1.95648e-07
1.90774e-07
1.90683e-07
1.93301e-07
1.91889e-07
1.95312e-07
1.94704e-07
1.94492e-07
1.92575e-07
1.95197e-07
1.92928e-07
1.92801e-07
1.94293e-07
1.95153e-07
1.95203e-07
1.95495e-07
1.95601e-07
1.9493e-07
1.95809e-07
1.96177e-07
1.95093e-07
1.94632e-07
1.93039e-07
1.95577e-07
1.94188e-07
1.86473e-07
1.87799e-07
1.86593e-07
1.83133e-07
1.88801e-07
1.94008e-07
1.86943e-07
1.90224e-07
1.88187e-07
1.86103e-07
1.87151e-07
1.93628e-07
1.94886e-07
1.95049e-07
1.96454e-07
1.83796e-07
1.88075e-07
1.82212e-07
1.82517e-07
1.84266e-07
1.86366e-07
1.85084e-07
1.88778e-07
1.86899e-07
1.87055e-07
1.88617e-07
1.86709e-07
1.87851e-07
1.91828e-07
1.86357e-07
1.9098e-07
1.94599e-07
1.93155e-07
1.948e-07
1.95618e-07
1.92188e-07
1.93067e-07
1.955e-07
1.94351e-07
1.95845e-07
1.94935e-07
1.95716e-07
1.94555e-07
1.9481e-07
1.95613e-07
1.92998e-07
1.95202e-07
1.93723e-07
1.91218e-07
1.94789e-07
1.91197e-07
1.95579e-07
1.9551e-07
1.95212e-07
1.9573e-07
1.94318e-07
1.93325e-07
1.95274e-07
1.95196e-07
1.95174e-07
1.95369e-07
1.95415e-07
1.94944e-07
1.95289e-07
1.95531e-07
1.93048e-07
1.95035e-07
1.94562e-07
1.94707e-07
1.9468e-07
1.94756e-07
1.85906e-07
1.84381e-07
1.85895e-07
1.86484e-07
1.84178e-07
1.8832e-07
1.87092e-07
1.94401e-07
1.93541e-07
1.89661e-07
1.87515e-07
1.81376e-07
1.8625e-07
1.85212e-07
1.94285e-07
1.95232e-07
1.9437e-07
1.94398e-07
1.85059e-07
1.87809e-07
1.84705e-07
1.84473e-07
1.83296e-07
1.83993e-07
1.84665e-07
1.88716e-07
1.85434e-07
1.84458e-07
1.87899e-07
1.85341e-07
1.85224e-07
1.88752e-07
1.8857e-07
1.90879e-07
1.92396e-07
1.94553e-07
1.96239e-07
1.90149e-07
1.9404e-07
1.94914e-07
1.95439e-07
1.95746e-07
1.93941e-07
1.95435e-07
1.92932e-07
1.94834e-07
1.95428e-07
1.94691e-07
1.9376e-07
1.94182e-07
1.91104e-07
1.90814e-07
1.92125e-07
1.94898e-07
1.94813e-07
1.93913e-07
1.95517e-07
1.94269e-07
1.93929e-07
1.94923e-07
1.95568e-07
1.93673e-07
1.94297e-07
1.94867e-07
1.95478e-07
1.95208e-07
1.94717e-07
1.95586e-07
1.94306e-07
1.94828e-07
1.94285e-07
1.95386e-07
1.94982e-07
1.94481e-07
1.85559e-07
1.8321e-07
1.82086e-07
1.85756e-07
1.84747e-07
1.87434e-07
1.86826e-07
1.90991e-07
1.89675e-07
1.88198e-07
1.85368e-07
1.82691e-07
1.84116e-07
1.82863e-07
1.94701e-07
1.95114e-07
1.95278e-07
1.93307e-07
1.96424e-07
1.86512e-07
1.83713e-07
1.86562e-07
1.84975e-07
1.79427e-07
1.82733e-07
1.84357e-07
1.86879e-07
1.85786e-07
1.85611e-07
1.85698e-07
1.82966e-07
1.84791e-07
1.90301e-07
1.88139e-07
1.88169e-07
1.93247e-07
1.94707e-07
1.96516e-07
1.94063e-07
1.92973e-07
1.94995e-07
1.95936e-07
1.94041e-07
1.95297e-07
1.94886e-07
1.93781e-07
1.94211e-07
1.94938e-07
1.93525e-07
1.93229e-07
1.94219e-07
1.88715e-07
1.92855e-07
1.9377e-07
1.94182e-07
1.9489e-07
1.95522e-07
1.95268e-07
1.94443e-07
1.94031e-07
1.94619e-07
1.95868e-07
1.9525e-07
1.94572e-07
1.94792e-07
1.95489e-07
1.95267e-07
1.94844e-07
1.92864e-07
1.94307e-07
1.95059e-07
1.94738e-07
1.94851e-07
1.9477e-07
1.94509e-07
1.80949e-07
1.82737e-07
1.8136e-07
1.83311e-07
1.79671e-07
1.85065e-07
1.85317e-07
1.88987e-07
1.87122e-07
1.873e-07
1.89503e-07
1.83541e-07
1.86115e-07
1.85337e-07
1.84979e-07
1.9554e-07
1.94028e-07
1.95429e-07
1.94177e-07
1.94536e-07
1.83539e-07
1.86654e-07
1.86919e-07
1.8507e-07
1.82165e-07
1.82869e-07
1.84248e-07
1.85577e-07
1.89072e-07
1.85062e-07
1.89153e-07
1.83596e-07
1.88663e-07
1.86277e-07
1.89681e-07
1.94253e-07
1.93031e-07
1.94471e-07
1.94071e-07
1.95985e-07
1.92595e-07
1.9496e-07
1.95526e-07
1.93898e-07
1.93766e-07
1.93457e-07
1.92512e-07
1.93336e-07
1.94304e-07
1.93783e-07
1.8861e-07
1.91266e-07
1.90917e-07
1.93699e-07
1.94831e-07
1.95571e-07
1.95215e-07
1.94261e-07
1.9387e-07
1.94408e-07
1.94635e-07
1.94289e-07
1.95713e-07
1.95917e-07
1.94759e-07
1.95077e-07
1.95149e-07
1.94578e-07
1.94808e-07
1.92887e-07
1.95642e-07
1.9226e-07
1.9296e-07
1.94629e-07
1.94861e-07
1.94183e-07
1.85314e-07
1.82084e-07
1.83633e-07
1.80365e-07
1.80868e-07
1.82259e-07
1.81971e-07
1.87433e-07
1.85021e-07
1.88896e-07
1.90758e-07
1.87161e-07
1.88916e-07
1.83712e-07
1.79606e-07
1.83738e-07
1.83188e-07
1.85331e-07
1.92948e-07
1.92159e-07
1.94672e-07
1.93877e-07
1.96403e-07
1.80711e-07
1.84848e-07
1.84972e-07
1.83892e-07
1.80953e-07
1.82277e-07
1.82735e-07
1.84696e-07
1.8586e-07
1.83745e-07
1.87815e-07
1.83056e-07
1.85778e-07
1.86393e-07
1.81977e-07
1.90501e-07
1.92689e-07
1.95228e-07
1.94363e-07
1.9533e-07
1.95661e-07
1.94815e-07
1.93996e-07
1.95706e-07
1.9411e-07
1.92961e-07
1.96139e-07
1.93032e-07
1.91734e-07
1.92765e-07
1.92568e-07
1.92709e-07
1.91615e-07
1.95445e-07
1.95175e-07
1.94816e-07
1.93658e-07
1.93926e-07
1.93639e-07
1.94571e-07
1.94446e-07
1.94649e-07
1.95827e-07
1.94659e-07
1.9507e-07
1.95363e-07
1.94726e-07
1.94214e-07
1.9576e-07
1.95064e-07
1.92512e-07
1.94995e-07
1.95383e-07
1.94547e-07
1.94437e-07
1.85468e-07
1.85832e-07
1.85e-07
1.76929e-07
1.79739e-07
1.78028e-07
1.80419e-07
1.85924e-07
1.81115e-07
1.89512e-07
1.87437e-07
1.901e-07
1.8803e-07
1.83371e-07
1.8173e-07
1.82145e-07
1.793e-07
1.82858e-07
1.78943e-07
1.9494e-07
1.94512e-07
1.9184e-07
1.92878e-07
1.95336e-07
1.96057e-07
1.80528e-07
1.86192e-07
1.85114e-07
1.85907e-07
1.81646e-07
1.82955e-07
1.85582e-07
1.8059e-07
1.82532e-07
1.87055e-07
1.83058e-07
1.83468e-07
1.83998e-07
1.85412e-07
1.89971e-07
1.93626e-07
1.93934e-07
1.92739e-07
1.92377e-07
1.94463e-07
1.95102e-07
1.93795e-07
1.94481e-07
1.95007e-07
1.93525e-07
1.9593e-07
1.96109e-07
1.96345e-07
1.90704e-07
1.91743e-07
1.9333e-07
1.89118e-07
1.92334e-07
1.92164e-07
1.95438e-07
1.95111e-07
1.94821e-07
1.93194e-07
1.93297e-07
1.93552e-07
1.91826e-07
1.93069e-07
1.94025e-07
1.94123e-07
1.93746e-07
1.94586e-07
1.95364e-07
1.94631e-07
1.95127e-07
1.94602e-07
1.94984e-07
1.96179e-07
1.92771e-07
1.93927e-07
1.95274e-07
1.96143e-07
1.9471e-07
1.94252e-07
1.85977e-07
1.85611e-07
1.81204e-07
1.78744e-07
1.83846e-07
1.77345e-07
1.81845e-07
1.83045e-07
1.84414e-07
1.86388e-07
1.89053e-07
1.89673e-07
1.81698e-07
1.842e-07
1.80341e-07
1.81753e-07
1.76053e-07
1.83446e-07
1.84737e-07
1.94995e-07
1.91865e-07
1.90339e-07
1.95906e-07
1.93689e-07
1.96376e-07
1.83439e-07
1.80612e-07
1.8318e-07
1.82988e-07
1.81676e-07
1.84733e-07
1.82729e-07
1.85574e-07
1.79204e-07
1.85684e-07
1.87867e-07
1.83399e-07
1.80038e-07
1.86546e-07
1.83752e-07
1.87326e-07
1.93102e-07
1.93989e-07
1.94079e-07
1.94579e-07
1.94425e-07
1.94438e-07
1.94188e-07
1.95691e-07
1.95413e-07
1.96212e-07
1.95564e-07
1.95356e-07
1.96124e-07
1.93866e-07
1.93779e-07
1.91201e-07
1.9152e-07
1.89195e-07
1.89748e-07
1.89223e-07
1.95331e-07
1.94756e-07
1.91508e-07
1.93443e-07
1.93575e-07
1.93278e-07
1.93302e-07
1.94013e-07
1.93799e-07
1.93524e-07
1.9458e-07
1.95369e-07
1.94586e-07
1.95157e-07
1.94781e-07
1.95072e-07
1.93478e-07
1.955e-07
1.97055e-07
1.9544e-07
1.94617e-07
1.94191e-07
1.86008e-07
1.84023e-07
1.81769e-07
1.79171e-07
1.82127e-07
1.82814e-07
1.81368e-07
1.80999e-07
1.83419e-07
1.84745e-07
1.83157e-07
1.85069e-07
1.88504e-07
1.83052e-07
1.84605e-07
1.78687e-07
1.76341e-07
1.84814e-07
1.78481e-07
1.84886e-07
1.8325e-07
1.93254e-07
1.91237e-07
1.92227e-07
1.90211e-07
1.92738e-07
1.93216e-07
1.93921e-07
1.8035e-07
1.83394e-07
1.83238e-07
1.79086e-07
1.79739e-07
1.82417e-07
1.81772e-07
1.81901e-07
1.82883e-07
1.87138e-07
1.87037e-07
1.82841e-07
1.82446e-07
1.83451e-07
1.84284e-07
1.93834e-07
1.95012e-07
1.94574e-07
1.92502e-07
1.94967e-07
1.92553e-07
1.95703e-07
1.935e-07
1.95578e-07
1.95601e-07
1.94959e-07
1.95571e-07
1.95376e-07
1.96465e-07
1.93644e-07
1.91239e-07
1.91435e-07
1.89676e-07
1.78525e-07
1.8845e-07
1.89883e-07
1.95336e-07
1.94669e-07
1.93512e-07
1.9427e-07
1.94171e-07
1.94669e-07
1.95315e-07
1.928e-07
1.90965e-07
1.91872e-07
1.95662e-07
1.96232e-07
1.95035e-07
1.94716e-07
1.94523e-07
1.94779e-07
1.94272e-07
1.94904e-07
1.97039e-07
1.93923e-07
1.95137e-07
1.94466e-07
1.94151e-07
1.80114e-07
1.84414e-07
1.82582e-07
1.80638e-07
1.78182e-07
1.80864e-07
1.78316e-07
1.81878e-07
1.80389e-07
1.8458e-07
1.85659e-07
1.85852e-07
1.82646e-07
1.83733e-07
1.82464e-07
1.7681e-07
1.76608e-07
1.77664e-07
1.74736e-07
1.80499e-07
1.75579e-07
1.92839e-07
1.89348e-07
1.89447e-07
1.86658e-07
1.92988e-07
1.94936e-07
1.93773e-07
1.78692e-07
1.81403e-07
1.81036e-07
1.77025e-07
1.79109e-07
1.73758e-07
1.82662e-07
1.83306e-07
1.8302e-07
1.85535e-07
1.83784e-07
1.83797e-07
1.83229e-07
1.81466e-07
1.8753e-07
1.93003e-07
1.95619e-07
1.93938e-07
1.95429e-07
1.92505e-07
1.92946e-07
1.92448e-07
1.95832e-07
1.94855e-07
1.93396e-07
1.94671e-07
1.94806e-07
1.94911e-07
1.94782e-07
1.9646e-07
1.94359e-07
1.94069e-07
1.94289e-07
1.9081e-07
1.89402e-07
1.87941e-07
1.84533e-07
1.90852e-07
1.87176e-07
1.86548e-07
1.93137e-07
1.93996e-07
1.95326e-07
1.94824e-07
1.96272e-07
1.93382e-07
1.91412e-07
1.963e-07
1.95647e-07
1.96029e-07
1.95031e-07
1.94764e-07
1.96005e-07
1.95308e-07
1.94394e-07
1.94867e-07
1.9377e-07
1.94414e-07
1.95083e-07
1.93414e-07
1.93393e-07
1.79702e-07
1.77644e-07
1.77179e-07
1.82196e-07
1.7622e-07
1.75554e-07
1.80092e-07
1.79514e-07
1.77226e-07
1.80167e-07
1.78932e-07
1.83858e-07
1.84785e-07
1.86003e-07
1.83376e-07
1.83291e-07
1.82136e-07
1.83594e-07
1.76721e-07
1.85874e-07
1.81255e-07
1.75462e-07
1.79532e-07
1.75598e-07
1.77884e-07
1.91755e-07
1.95036e-07
1.89471e-07
1.88167e-07
1.89344e-07
1.8651e-07
1.94644e-07
1.94925e-07
1.92875e-07
1.96363e-07
1.81098e-07
1.84041e-07
1.81347e-07
1.72941e-07
1.78527e-07
1.82205e-07
1.74883e-07
1.82495e-07
1.81332e-07
1.80927e-07
1.81822e-07
1.84413e-07
1.83475e-07
1.79917e-07
1.86099e-07
1.86014e-07
1.95573e-07
1.94559e-07
1.92561e-07
1.94865e-07
1.93942e-07
1.91097e-07
1.95753e-07
1.94705e-07
1.94914e-07
1.94169e-07
1.9474e-07
1.94684e-07
1.94689e-07
1.95875e-07
1.94668e-07
1.93417e-07
1.91472e-07
1.89753e-07
1.79802e-07
1.84724e-07
1.88683e-07
1.79475e-07
1.93769e-07
1.96046e-07
1.96407e-07
1.96346e-07
1.96338e-07
1.96339e-07
1.96357e-07
1.9636e-07
1.95328e-07
1.95646e-07
1.95272e-07
1.93418e-07
1.92861e-07
1.94825e-07
1.9474e-07
1.94789e-07
1.94574e-07
1.9604e-07
1.79147e-07
1.75213e-07
1.78311e-07
1.73194e-07
1.74763e-07
1.81076e-07
1.75892e-07
1.7492e-07
1.72743e-07
1.83921e-07
1.82049e-07
1.82293e-07
1.85393e-07
1.85247e-07
1.83185e-07
1.83379e-07
1.83273e-07
1.85905e-07
1.72369e-07
1.79265e-07
1.79632e-07
1.77076e-07
1.75106e-07
1.91883e-07
1.93834e-07
1.87039e-07
1.89409e-07
1.87611e-07
1.80213e-07
1.92629e-07
1.94896e-07
1.94685e-07
1.81949e-07
1.82076e-07
1.7987e-07
1.77137e-07
1.80023e-07
1.75519e-07
1.77992e-07
1.83578e-07
1.80951e-07
1.83154e-07
1.81627e-07
1.84721e-07
1.80877e-07
1.82274e-07
1.82042e-07
1.86201e-07
1.95407e-07
1.94413e-07
1.94671e-07
1.94798e-07
1.94947e-07
1.95646e-07
1.96195e-07
1.95611e-07
1.93835e-07
1.95202e-07
1.92883e-07
1.94171e-07
1.94081e-07
1.95839e-07
1.95215e-07
1.91477e-07
1.90289e-07
1.89135e-07
1.86083e-07
1.86532e-07
1.90316e-07
1.87116e-07
1.90053e-07
1.87382e-07
1.93499e-07
1.95838e-07
1.9433e-07
1.96352e-07
1.96372e-07
1.95084e-07
1.94724e-07
1.94627e-07
1.94633e-07
1.94648e-07
1.95009e-07
1.93757e-07
1.96054e-07
1.7958e-07
1.81058e-07
1.79411e-07
1.74762e-07
1.80057e-07
1.81418e-07
1.76639e-07
1.76282e-07
1.82246e-07
1.80198e-07
1.82001e-07
1.85508e-07
1.83569e-07
1.79597e-07
1.7785e-07
1.7831e-07
1.81708e-07
1.76824e-07
1.77819e-07
1.72894e-07
1.77682e-07
1.76925e-07
1.77503e-07
1.75933e-07
1.91468e-07
1.93412e-07
1.85331e-07
1.8346e-07
1.89575e-07
1.89146e-07
1.7936e-07
1.81499e-07
1.94993e-07
1.94671e-07
1.95285e-07
1.96322e-07
1.80178e-07
1.7951e-07
1.78471e-07
1.81246e-07
1.78218e-07
1.77728e-07
1.79651e-07
1.79573e-07
1.77287e-07
1.76997e-07
1.84159e-07
1.79766e-07
1.79509e-07
1.83923e-07
1.8178e-07
1.95213e-07
1.93007e-07
1.94544e-07
1.96595e-07
1.95634e-07
1.96135e-07
1.93777e-07
1.92656e-07
1.95249e-07
1.93923e-07
1.95541e-07
1.94472e-07
1.93766e-07
1.92187e-07
1.94189e-07
1.89843e-07
1.89275e-07
1.79641e-07
1.80921e-07
1.85603e-07
1.80202e-07
1.96323e-07
1.96351e-07
1.96357e-07
1.93193e-07
1.95205e-07
1.94775e-07
1.94684e-07
1.94635e-07
1.94225e-07
1.95649e-07
1.7313e-07
1.79171e-07
1.80617e-07
1.75654e-07
1.7871e-07
1.73169e-07
1.7283e-07
1.74885e-07
1.78203e-07
1.76676e-07
1.82574e-07
1.81271e-07
1.81254e-07
1.7976e-07
1.81401e-07
1.79511e-07
1.77587e-07
1.81631e-07
1.79491e-07
1.73677e-07
1.7546e-07
1.77385e-07
1.77846e-07
1.87539e-07
1.88701e-07
1.80167e-07
1.84823e-07
1.85491e-07
1.8901e-07
1.80562e-07
1.82292e-07
1.93978e-07
1.93401e-07
1.93356e-07
1.93433e-07
1.81065e-07
1.77403e-07
1.77807e-07
1.80605e-07
1.77774e-07
1.80052e-07
1.79919e-07
1.78132e-07
1.80795e-07
1.83047e-07
1.8092e-07
1.7887e-07
1.7956e-07
1.83097e-07
1.8289e-07
1.8515e-07
1.93423e-07
1.94454e-07
1.96495e-07
1.93445e-07
1.94099e-07
1.92202e-07
1.92862e-07
1.96397e-07
1.96358e-07
1.95502e-07
1.93151e-07
1.9529e-07
1.94892e-07
1.90385e-07
1.90644e-07
1.89138e-07
1.87192e-07
1.86649e-07
1.8212e-07
1.82042e-07
1.86562e-07
1.95216e-07
1.93703e-07
1.96032e-07
1.95518e-07
1.93941e-07
1.96371e-07
1.7668e-07
1.73763e-07
1.79293e-07
1.75131e-07
1.75638e-07
1.70758e-07
1.72676e-07
1.76239e-07
1.78769e-07
1.78994e-07
1.783e-07
1.78698e-07
1.82591e-07
1.81233e-07
1.80235e-07
1.81316e-07
1.81272e-07
1.7959e-07
1.80153e-07
1.80041e-07
1.76039e-07
1.73778e-07
1.77446e-07
1.78043e-07
1.80341e-07
1.76384e-07
1.86543e-07
1.87075e-07
1.8971e-07
1.89581e-07
1.82325e-07
1.85103e-07
1.85919e-07
1.8778e-07
1.82327e-07
1.85437e-07
1.90747e-07
1.93675e-07
1.93803e-07
1.94438e-07
1.96211e-07
1.81438e-07
1.74524e-07
1.79592e-07
1.74919e-07
1.71944e-07
1.74519e-07
1.81364e-07
1.75802e-07
1.74061e-07
1.73884e-07
1.80352e-07
1.74145e-07
1.77825e-07
1.80299e-07
1.94021e-07
1.94211e-07
1.94544e-07
1.93979e-07
1.93604e-07
1.92694e-07
1.95577e-07
1.96356e-07
1.95453e-07
1.94191e-07
1.96124e-07
1.94466e-07
1.90451e-07
1.90577e-07
1.88685e-07
1.86026e-07
1.81113e-07
1.87528e-07
1.85946e-07
1.84037e-07
1.87485e-07
1.94436e-07
1.9327e-07
1.96363e-07
1.96333e-07
1.92545e-07
1.91563e-07
1.7492e-07
1.7304e-07
1.7809e-07
1.76749e-07
1.69278e-07
1.74567e-07
1.78399e-07
1.71917e-07
1.77689e-07
1.80479e-07
1.80213e-07
1.8004e-07
1.82381e-07
1.79104e-07
1.79136e-07
1.80057e-07
1.79939e-07
1.79233e-07
1.74901e-07
1.73474e-07
1.77351e-07
1.76167e-07
1.84573e-07
1.89104e-07
1.90038e-07
1.88161e-07
1.82707e-07
1.84151e-07
1.851e-07
1.88322e-07
1.84353e-07
1.84723e-07
1.92014e-07
1.93298e-07
1.92857e-07
1.92192e-07
1.91087e-07
1.91731e-07
1.76983e-07
1.73003e-07
1.68298e-07
1.77736e-07
1.77513e-07
1.75999e-07
1.70169e-07
1.79735e-07
1.78252e-07
1.78267e-07
1.81132e-07
1.7849e-07
1.82137e-07
1.7774e-07
1.78572e-07
1.78689e-07
1.85634e-07
1.93826e-07
1.92559e-07
1.94525e-07
1.96409e-07
1.96372e-07
1.94203e-07
1.94258e-07
1.94366e-07
1.95488e-07
1.93161e-07
1.88762e-07
1.90223e-07
1.92396e-07
1.87163e-07
1.85947e-07
1.7893e-07
1.86001e-07
1.85842e-07
1.85459e-07
1.85622e-07
1.92861e-07
1.92929e-07
1.94498e-07
1.96353e-07
1.91674e-07
1.80932e-07
1.65667e-07
1.68988e-07
1.72931e-07
1.75083e-07
1.78652e-07
1.71172e-07
1.77359e-07