/*--------------------------------*- C++ -*----------------------------------*\
| =========                 |                                                 |
| \\      /  F ield         | OpenFOAM: The Open Source CFD Toolbox           |
|  \\    /   O peration     | Version:  v2012                                 |
|   \\  /    A nd           | Website:  www.openfoam.com                      |
|    \\/     M anipulation  |                                                 |
\*---------------------------------------------------------------------------*/
FoamFile
{
    version     2.0;
    format      ascii;
    class       volVectorField;
    location    "0.1";
    object      U;
}
// * * * * * * * * * * * * * * * * * * * * * * * * * * * * * * * * * * * * * //

dimensions      [0 1 -1 0 0 0 0];


internalField   nonuniform List<vector> 
13611
(
(7.91429 0.136472 0)
(7.91304 0.10885 1.34548e-23)
(7.88516 0.073001 -2.30623e-23)
(7.92525 0.0450358 0)
(7.89706 0.0706585 4.79307e-23)
(7.90116 0.106134 9.88497e-23)
(7.92907 0.0478429 -2.46792e-23)
(7.93815 0.0580258 0)
(7.88762 0.146405 -1.73128e-22)
(7.91439 0.0523759 4.66533e-24)
(7.87771 0.0730493 -8.90294e-23)
(7.94118 0.0521738 2.20472e-23)
(7.93719 0.0655929 6.45946e-25)
(7.9631 0.0520059 -7.10586e-25)
(7.865 0.0988378 3.96676e-23)
(7.92339 0.0612451 -2.10893e-23)
(7.92095 0.0372197 1.79838e-23)
(7.89285 0.104705 7.69312e-23)
(7.96573 0.0579751 0)
(7.95217 0.0617254 1.11107e-23)
(7.96069 0.0464176 -6.49374e-24)
(7.96274 0.0544867 -1.7728e-23)
(7.88003 0.146262 0)
(7.91223 0.0469744 3.87297e-23)
(7.94122 0.0632787 -5.32519e-25)
(7.94024 0.0439528 -1.16165e-24)
(7.87734 0.0723182 -5.68911e-23)
(7.96893 0.0497086 8.73116e-24)
(7.96055 0.0544025 -7.86646e-24)
(7.96106 0.0488813 2.09808e-23)
(7.95488 0.0482604 0)
(7.96459 0.0464449 -8.00714e-24)
(7.86041 0.110538 0)
(7.93072 0.0569345 0)
(7.94552 0.0710668 1.25342e-23)
(7.96628 0.0517078 1.83973e-23)
(7.92325 0.0357318 1.37993e-23)
(7.89518 0.105057 8.44842e-23)
(7.96906 0.0469985 -5.62537e-24)
(7.95399 0.0585408 4.46669e-24)
(7.94931 0.0509821 0)
(7.95204 0.0454043 0)
(7.95764 0.0449928 0)
(7.95976 0.0458157 3.86998e-24)
(7.907 0.0629464 0)
(7.88427 0.164945 0)
(7.93333 0.0695038 0)
(7.95124 0.0642428 -8.24072e-24)
(7.97448 0.0454209 1.22291e-23)
(7.94592 0.0458555 1.25872e-23)
(7.8849 0.0657947 0)
(7.9697 0.0439882 9.70013e-27)
(7.94498 0.0576911 3.25082e-24)
(7.94707 0.0461542 0)
(7.94387 0.0522289 -4.39131e-24)
(7.95308 0.0404949 0)
(7.95654 0.0412871 2.64004e-24)
(7.96036 0.0425381 2.0336e-23)
(7.91065 0.0769236 0)
(7.86582 0.119734 -8.77845e-24)
(7.94125 0.0739444 1.59733e-23)
(7.94813 0.0655946 -1.17126e-23)
(7.97136 0.0459126 1.62151e-23)
(7.97342 0.0423481 2.54438e-24)
(7.93519 0.0357679 -3.88492e-24)
(7.90183 0.0896597 1.35295e-22)
(7.96394 0.0417871 1.56857e-23)
(7.93796 0.0579401 0)
(7.94512 0.0426305 0)
(7.93992 0.0479582 -5.16966e-24)
(7.95227 0.0387492 0)
(7.95848 0.0398888 -5.86929e-25)
(7.92914 0.084909 -3.52966e-23)
(7.89233 0.0698404 -5.88501e-24)
(7.90269 0.180656 -2.38772e-22)
(7.9465 0.0697728 2.616e-23)
(7.93827 0.0627147 -2.87576e-24)
(7.9772 0.039443 0)
(7.97361 0.0392746 -2.7581e-24)
(7.9677 0.0361876 0)
(7.89087 0.0603243 -1.37239e-22)
(7.96424 0.038156 0)
(7.9339 0.0541865 -6.75314e-24)
(7.94148 0.0436689 0)
(7.94779 0.0392384 -1.4128e-24)
(7.93623 0.049168 -5.15775e-24)
(7.95453 0.035187 2.34471e-24)
(7.96029 0.0366731 -4.84846e-24)
(7.93261 0.0856916 -3.2715e-23)
(7.896 0.0850311 4.15929e-23)
(7.87552 0.116008 1.80804e-22)
(7.94389 0.0736164 1.76839e-23)
(7.9305 0.0640723 -5.24155e-24)
(7.97987 0.0374169 2.41815e-24)
(7.96766 0.0376439 -6.12464e-24)
(7.97571 0.0372984 1.55729e-24)
(7.9684 0.0284937 0)
(7.9592 0.026805 9.12979e-24)
(7.89814 0.0893023 8.68483e-23)
(7.96358 0.0356433 0)
(7.93032 0.0536614 0)
(7.94047 0.0415561 9.05948e-25)
(7.94739 0.0365383 -8.65492e-24)
(7.9338 0.046056 1.16333e-23)
(7.95274 0.0329337 -5.50699e-24)
(7.95644 0.0337239 5.26981e-24)
(7.9591 0.0335435 0)
(7.94154 0.0779779 1.26522e-23)
(7.91846 0.0900457 -6.12279e-24)
(7.88116 0.0711139 -5.97744e-23)
(7.90682 0.192043 0)
(7.9321 0.0706897 2.03424e-23)
(7.92489 0.0617804 -5.78901e-24)
(7.97909 0.0346247 3.69591e-25)
(7.96755 0.0344817 -4.83306e-24)
(7.97129 0.0343798 6.70545e-25)
(7.97753 0.0344823 6.35133e-26)
(7.97205 0.0293584 -8.58968e-24)
(7.89689 0.0555876 -2.92842e-23)
(7.96571 0.0328712 0)
(7.92772 0.0561696 0)
(7.93049 0.0482022 0)
(7.93612 0.0423636 1.0356e-23)
(7.94228 0.0369937 4.08229e-25)
(7.94537 0.0348942 8.51758e-25)
(7.95036 0.0329694 -4.64245e-24)
(7.95507 0.0306944 -5.72526e-24)
(7.96202 0.0296413 0)
(7.93832 0.0798744 1.39531e-23)
(7.9261 0.100798 -1.77019e-23)
(7.9092 0.0900983 1.23173e-23)
(7.8986 0.170247 0)
(7.92533 0.0730435 1.65745e-23)
(7.92106 0.0620314 0)
(7.97409 0.0325406 5.84915e-24)
(7.96807 0.0326823 4.6799e-24)
(7.97858 0.0330226 4.44998e-24)
(7.9559 0.0215872 0)
(7.9809 0.0361635 1.24762e-24)
(7.90731 0.086776 8.93774e-23)
(7.96543 0.0299454 0)
(7.92478 0.0540988 -2.51138e-24)
(7.92623 0.0460434 1.18514e-23)
(7.93417 0.0377053 3.30496e-23)
(7.93778 0.03403 1.53038e-24)
(7.94695 0.0308023 1.1219e-23)
(7.95026 0.0297983 1.52659e-24)
(7.95736 0.0283418 2.50739e-25)
(7.96245 0.0266588 0)
(7.92777 0.0803299 -3.16343e-23)
(7.9311 0.0933274 -2.01166e-23)
(7.9005 0.0913185 -2.81674e-23)
(7.88903 0.107109 3.77611e-22)
(7.91844 0.07081 -2.75885e-24)
(7.91704 0.0663527 -9.07605e-24)
(7.92122 0.0578072 0)
(7.97349 0.030494 -7.49909e-25)
(7.9701 0.0300909 1.72958e-23)
(7.97672 0.0288606 0)
(7.9739 0.0279105 0)
(7.98179 0.0316412 -8.4762e-24)
(7.90926 0.0530856 0)
(7.9679 0.0266776 1.03255e-24)
(7.92292 0.049228 8.9708e-24)
(7.92621 0.0417526 -2.17693e-23)
(7.93046 0.0371486 3.02186e-23)
(7.93867 0.0302506 1.19833e-24)
(7.94388 0.0283526 1.10215e-23)
(7.95271 0.0270176 0)
(7.9601 0.0261469 0)
(7.95607 0.0265641 -1.11921e-24)
(7.96562 0.0238793 0)
(7.9208 0.0806453 -1.38236e-23)
(7.92606 0.0929167 -1.5234e-23)
(7.90149 0.0974397 -5.12062e-23)
(7.89733 0.0791877 2.41325e-23)
(7.87 0.224062 -4.31899e-22)
(7.91471 0.074649 2.93116e-24)
(7.91104 0.0640872 0)
(7.91682 0.0552444 0)
(7.97561 0.0287051 0)
(7.97235 0.0296467 1.18836e-23)
(7.97011 0.0270784 3.95742e-24)
(7.9797 0.0286941 0)
(7.96241 0.0198938 0)
(7.98241 0.0329787 1.14352e-24)
(7.91892 0.0838599 0)
(7.96812 0.0243648 1.03725e-24)
(7.91728 0.0500674 5.87268e-24)
(7.92178 0.0384094 -2.26833e-23)
(7.92912 0.0317574 -8.62774e-24)
(7.93679 0.027623 0)
(7.94494 0.0247969 5.3558e-24)
(7.95098 0.0233999 5.70135e-24)
(7.95976 0.0219223 0)
(7.95737 0.0223606 -1.05339e-23)
(7.96575 0.020833 1.86473e-23)
(7.918 0.0859383 0)
(7.92425 0.0873839 0)
(7.89369 0.110191 -1.18439e-23)
(7.90563 0.100042 0)
(7.84511 0.161181 1.65076e-22)
(7.90894 0.0743844 0)
(7.90673 0.0687279 0)
(7.91156 0.0580345 0)
(7.97659 0.026909 0)
(7.97391 0.0263065 0)
(7.97225 0.0249657 4.1756e-24)
(7.97973 0.0273505 8.2104e-24)
(7.98097 0.0257991 -1.31246e-23)
(7.98433 0.0280143 -1.60451e-23)
(7.92343 0.0562348 0)
(7.97048 0.0217114 -1.62944e-26)
(7.91536 0.0473692 1.71874e-23)
(7.92336 0.0323339 8.80221e-24)
(7.91779 0.0410845 -2.22172e-24)
(7.93239 0.027572 -2.08603e-23)
(7.93923 0.0224824 0)
(7.94313 0.021883 6.77188e-24)
(7.94843 0.0227068 5.04396e-24)
(7.95444 0.0205852 -4.87716e-24)
(7.96243 0.0197334 1.15076e-23)
(7.96843 0.0182003 2.50289e-23)
(7.91123 0.0856916 4.84505e-24)
(7.92472 0.0907574 -3.22244e-23)
(7.91092 0.104092 8.67749e-24)
(7.91532 0.0881092 7.99627e-23)
(7.89348 0.116139 1.21617e-23)
(7.8524 0.233826 0)
(7.90645 0.0792222 -1.51722e-23)
(7.9013 0.0682089 1.32154e-24)
(7.90694 0.0545443 2.11525e-23)
(7.97561 0.0252273 8.61159e-25)
(7.97859 0.0256934 -8.59756e-24)
(7.97331 0.022805 5.3424e-25)
(7.97948 0.0267129 -8.93003e-24)
(7.98207 0.0262113 8.61017e-24)
(7.97595 0.0186739 0)
(7.9341 0.098515 1.86516e-22)
(7.96877 0.0110215 0)
(7.97242 0.0216054 -1.76108e-24)
(7.97054 0.018934 1.88735e-23)
(7.90974 0.0486102 9.66891e-24)
(7.92039 0.0298837 0)
(7.91321 0.0386675 -1.25549e-24)
(7.93051 0.0229679 -4.76181e-24)
(7.9364 0.017562 -1.89905e-23)
(7.94518 0.0181329 7.07063e-24)
(7.94888 0.018945 1.00347e-23)
(7.95539 0.0177001 0)
(7.96253 0.0171557 0)
(7.96821 0.0155636 1.64722e-23)
(7.90573 0.0904716 -9.41869e-24)
(7.91247 0.0934215 -7.72404e-24)
(7.90625 0.101945 -2.31132e-23)
(7.8942 0.0656569 4.29516e-23)
(7.88734 0.119877 -1.03902e-23)
(7.84854 0.141546 -4.15607e-23)
(7.89866 0.0793355 -2.4674e-23)
(7.89752 0.0612592 -1.96512e-23)
(7.89753 0.0745718 -3.04923e-24)
(7.90096 0.0550017 2.21145e-23)
(7.97674 0.0227242 1.92458e-25)
(7.98016 0.0226506 0)
(7.97576 0.0214779 1.5267e-26)
(7.98137 0.024394 5.84612e-24)
(7.98334 0.0247516 2.23776e-25)
(7.98145 0.0322955 -3.51032e-24)
(7.96031 0.0373561 -1.29674e-22)
(7.97424 0.0260868 0)
(7.97403 0.0186734 -1.48984e-24)
(7.97267 0.0172301 -1.96822e-24)
(7.90923 0.0439089 -1.52675e-24)
(7.91506 0.0287902 0)
(7.92323 0.0246201 7.27677e-24)
(7.91131 0.0333993 1.86074e-23)
(7.93265 0.0178571 -1.07553e-23)
(7.92666 0.0220965 7.07531e-24)
(7.93916 0.0135305 -2.0367e-23)
(7.94399 0.0148972 8.80341e-24)
(7.95184 0.0167029 1.02437e-23)
(7.958 0.014761 0)
(7.96601 0.0149804 9.82568e-24)
(7.96073 0.0150192 0)
(7.97061 0.0130154 8.24191e-24)
(7.89767 0.0855639 2.98792e-24)
(7.9105 0.0996521 5.7478e-25)
(7.9089 0.101909 -1.2939e-23)
(7.88932 0.100058 1.35271e-22)
(7.89897 0.110777 0)
(7.88824 0.200823 1.99498e-22)
(7.89195 0.0629908 -1.91546e-23)
(7.89304 0.0750214 0)
(7.89905 0.0492434 2.48733e-24)
(7.97899 0.0214186 0)
(7.98204 0.0219904 -8.63805e-24)
(7.97707 0.0189804 -4.92586e-25)
(7.98219 0.0246139 6.92949e-24)
(7.98543 0.0249037 -1.78414e-23)
(7.97841 0.029089 1.53436e-23)
(7.96508 0.0612728 4.25961e-23)
(7.97601 0.0176639 1.39935e-25)
(7.9741 0.0152571 5.33704e-24)
(7.90351 0.043312 0)
(7.91385 0.0224883 0)
(7.9183 0.0198458 8.51498e-24)
(7.90594 0.0330838 3.67094e-23)
(7.92831 0.0139616 -2.65674e-23)
(7.9248 0.0160429 -3.30348e-23)
(7.93808 0.00937423 1.26898e-23)
(7.94687 0.0116012 -4.64888e-24)
(7.95118 0.0127 -2.30652e-23)
(7.95688 0.0107485 0)
(7.96546 0.0121198 -5.2007e-24)
(7.96262 0.0115369 -5.64843e-24)
(7.96963 0.0103288 7.90015e-24)
(7.97305 0.0132732 6.59797e-24)
(7.8934 0.088396 1.25909e-23)
(7.90368 0.0990676 1.71204e-24)
(7.90757 0.106487 1.25214e-23)
(7.88764 0.100645 0)
(7.90287 0.117864 -1.91118e-23)
(7.87858 0.168632 4.92641e-25)
(7.88996 0.0690953 0)
(7.88676 0.0590891 0)
(7.88793 0.0805041 1.08826e-23)
(7.89286 0.0474515 0)
(7.98015 0.019134 -6.7333e-24)
(7.98378 0.0202947 7.71749e-27)
(7.97923 0.0177881 -6.69549e-24)
(7.98357 0.0227838 8.99437e-26)
(7.98727 0.0231011 3.08993e-24)
(7.984 0.0239663 0)
(7.98763 0.0236865 7.05415e-24)
(7.96075 0.067002 0)
(7.9774 0.0152738 0)
(7.97645 0.0141764 0)
(7.90132 0.0385442 1.31234e-23)
(7.90943 0.0202603 -6.96389e-25)
(7.91919 0.0152295 -1.71659e-23)
(7.90267 0.0278118 5.81253e-24)
(7.92979 0.00954645 -4.0547e-23)
(7.94211 0.00636254 2.54969e-23)
(7.93456 0.00700082 -1.40748e-23)
(7.9458 0.00840824 1.3532e-23)
(7.95383 0.00971688 -8.03034e-24)
(7.95899 0.00844377 0)
(7.96714 0.00990889 2.21591e-24)
(7.96181 0.00967443 -6.33244e-24)
(7.97135 0.00832603 6.20136e-24)
(7.97484 0.0107097 0)
(7.89323 0.0940577 1.29537e-24)
(7.88748 0.0854883 1.34486e-24)
(7.89952 0.103702 2.71943e-24)
(7.90713 0.114056 3.18392e-23)
(7.89591 0.110695 0)
(7.9058 0.119833 -6.11048e-24)
(7.90299 0.120329 -3.05179e-24)
(7.88341 0.0696211 3.53873e-24)
(7.8815 0.0645461 3.15317e-24)
(7.88792 0.0527509 0)
(7.88156 0.0769545 0)
(7.89066 0.0406117 2.25486e-23)
(7.98231 0.0178746 -2.81341e-25)
(7.98371 0.0185833 4.68939e-24)
(7.98532 0.0204617 1.17661e-23)
(7.98053 0.0154215 0)
(7.985 0.0228789 1.85134e-24)
(7.98778 0.022229 8.14533e-25)
(7.98752 0.0246831 2.27844e-24)
(7.99035 0.0222849 0)
(7.9638 0.0379704 1.53667e-23)
(7.97951 0.0142185 0)
(7.97711 0.0116313 0)
(7.89573 0.0360752 -2.2326e-25)
(7.90778 0.0140146 -3.73476e-25)
(7.90482 0.0227991 0)
(7.91679 0.011876 9.9493e-24)
(7.89581 0.0302579 -1.02176e-24)
(7.92579 0.005761 -2.75874e-23)
(7.94194 0.00272082 0)
(7.93547 0.00125303 5.34841e-23)
(7.9488 0.00569449 0)
(7.95207 0.00679372 6.35347e-24)
(7.95881 0.00557792 7.60579e-25)
(7.96624 0.00723722 8.56364e-24)
(7.96372 0.00713589 -1.22087e-23)
(7.97088 0.00520773 0)
(7.97418 0.00859715 0)
(7.88537 0.0962609 4.54517e-24)
(7.88321 0.0913024 0)
(7.90171 0.112068 5.32548e-24)
(7.88612 0.102427 2.14508e-24)
(7.89438 0.140061 6.7427e-23)
(7.90552 0.125439 -1.70052e-23)
(7.80036 0.178765 0)
(7.9306 0.103385 1.99004e-23)
(7.87495 0.0640708 0)
(7.87908 0.0495421 2.02429e-23)
(7.87529 0.0783786 -4.2039e-24)
(7.88437 0.0366122 2.3948e-23)
(7.98341 0.015433 2.31306e-25)
(7.98592 0.0162872 3.68796e-25)
(7.98702 0.0188801 1.12015e-23)
(7.98259 0.0143367 0)
(7.98594 0.0207416 -1.46867e-24)
(7.98736 0.0211286 0)
(7.98912 0.0239654 0)
(7.99268 0.0284601 0)
(7.98197 0.0157458 0)
(7.96989 0.061533 -5.61896e-23)
(7.98061 0.0119167 1.10654e-23)
(7.97888 0.0104945 6.93955e-24)
(7.90086 0.0123157 1.64748e-23)
(7.91146 0.0104691 1.99827e-23)
(7.89893 0.0175529 1.21243e-23)
(7.92061 0.00654943 0)
(7.89042 0.02554 0)
(7.92793 0.000193406 3.9589e-24)
(7.94583 0.000127825 -1.36622e-24)
(7.93938 -0.000357533 8.08407e-24)
(7.9327 -0.00132385 3.80227e-23)
(7.94849 0.00183136 0)
(7.9538 0.00369726 4.13429e-24)
(7.9567 0.00329846 -1.53027e-24)
(7.96198 0.00445266 -5.13034e-24)
(7.96817 0.00478276 6.17231e-24)
(7.97303 0.00316746 0)
(7.97602 0.00642949 -8.05633e-24)
(7.87626 0.0926173 0)
(7.89275 0.116994 5.10948e-24)
(7.88011 0.106072 0)
(7.89658 0.144857 -1.39097e-23)
(7.89961 0.127437 0)
(7.9708 0.334926 0)
(7.9442 0.110959 3.9133e-23)
(7.87103 0.0716887 -4.03389e-24)
(7.87287 0.0562697 4.8116e-23)
(7.87765 0.0418209 -5.01777e-23)
(7.872 0.086799 -2.78017e-23)
(7.88382 0.0289711 4.45909e-23)
(7.98547 0.0146599 -4.45621e-24)
(7.98732 0.0165137 0)
(7.98782 0.0190223 5.35561e-24)
(7.98398 0.012318 -1.71746e-24)
(7.98885 0.0205922 0)
(7.9922 0.0240819 4.18216e-24)
(7.99225 0.0235788 0)
(7.98855 0.0235468 0)
(7.9678 0.0341106 -8.44743e-24)
(7.98265 0.0108548 2.94119e-24)
(7.97966 0.00849541 5.77823e-24)
(7.9005 0.00570847 4.20045e-24)
(7.91235 0.00385148 -8.98542e-24)
(7.89221 0.0187079 -1.40968e-24)
(7.91732 0.00132519 6.31397e-24)
(7.92552 -0.00327345 1.10299e-23)
(7.94577 -0.00371975 1.79157e-23)
(7.94176 -0.00419759 0)
(7.93288 -0.00644327 0)
(7.95162 0.000325468 0)
(7.95846 -0.000127991 1.25153e-23)
(7.96343 0.00221352 6.75084e-24)
(7.96673 0.001972 9.21961e-24)
(7.97544 0.00432704 0)
(7.97294 0.000942535 2.06867e-23)
(7.97817 0.00667566 -8.67315e-24)
(7.87458 0.100643 0)
(7.89315 0.124143 0)
(7.88081 0.113244 -1.30489e-23)
(7.89074 0.151032 9.1653e-24)
(7.89841 0.135987 0)
(7.97283 0.212328 2.89962e-22)
(7.90242 0.150313 1.38992e-22)
(7.86367 0.0718356 0)
(7.8642 0.0550532 2.64677e-23)
(7.86972 0.0372982 -5.0163e-23)
(7.86262 0.0886941 -3.73342e-23)
(7.87745 0.02276 4.50124e-23)
(7.98654 0.0128346 0)
(7.98894 0.0149225 0)
(7.98958 0.0174465 7.57694e-24)
(7.98586 0.0114254 -2.49136e-24)
(7.99037 0.0186084 0)
(7.99364 0.0195469 3.28483e-24)
(7.99569 0.020835 0)
(7.98815 0.0187549 3.16642e-25)
(7.97247 0.0454643 1.458e-23)
(7.98334 0.00865496 -6.17027e-25)
(7.98178 0.00756353 2.26648e-25)
(7.89227 0.00437512 -7.24664e-24)
(7.9066 0.000453478 0)
(7.88785 0.011172 2.03656e-25)
(7.92024 -0.00302039 1.32418e-23)
(7.92837 -0.00734079 0)
(7.94829 -0.00596091 1.93223e-23)
(7.94025 -0.0083764 5.35448e-24)
(7.93587 -0.00945309 1.48489e-23)
(7.95343 -0.00252366 3.03851e-24)
(7.95701 -0.00291252 1.74543e-23)
(7.96188 -0.000388201 9.82598e-24)
(7.96845 -0.00063583 1.7393e-23)
(7.97726 0.0021877 -2.46795e-25)
(7.976 -1.46677e-05 -3.60374e-25)
(7.97128 -0.000962139 2.71522e-23)
(7.97933 0.00439961 -5.06085e-24)
(7.86737 0.103643 0)
(7.88438 0.130603 0)
(7.87368 0.117983 -2.67156e-23)
(7.8943 0.144414 1.04169e-23)
(7.8885 0.136993 0)
(7.92316 0.216943 3.94047e-22)
(7.89685 0.168782 0)
(7.85823 0.0818465 -9.45155e-24)
(7.85915 0.0637419 3.56289e-23)
(7.8592 0.0491823 1.66109e-23)
(7.86298 0.0405672 0)
(7.87019 0.0265613 0)
(7.85954 0.0974637 0)
(7.87982 0.0130713 1.92139e-25)
(7.98812 0.0118816 0)
(7.99031 0.015906 0)
(7.98934 0.0132497 -4.52218e-24)
(7.99072 0.0172743 8.28352e-24)
(7.98707 0.00907741 -7.39475e-25)
(7.99229 0.0176181 0)
(7.99328 0.0183763 0)
(7.99652 0.0192556 0)
(7.99751 0.0178486 0)
(7.97267 0.0274866 4.7265e-23)
(7.98539 0.00774237 0)
(7.98162 0.00510718 -7.63936e-26)
(7.8892 -0.00121044 -3.45058e-23)
(7.90685 -0.005068 -3.28868e-23)
(7.91738 -0.00726152 0)
(7.92539 -0.0117793 -4.57723e-24)
(7.94722 -0.0108312 1.35276e-23)
(7.95177 -0.00525909 0)
(7.94326 -0.0125719 -2.31015e-23)
(7.93303 -0.0149555 8.04048e-24)
(7.95891 -0.00603973 -2.8414e-24)
(7.96374 -0.0032986 7.54055e-24)
(7.9669 -0.00346968 2.69634e-24)
(7.97946 0.00232557 1.36367e-23)
(7.9773 -0.00221068 -1.39008e-23)
(7.97278 -0.00388726 -2.4604e-24)
(7.86649 0.113497 0)
(7.87387 0.127441 4.2853e-23)
(7.89116 0.149467 1.94814e-23)
(7.88659 0.143874 2.03979e-23)
(7.89927 0.143798 1.41091e-22)
(7.8872 0.157562 0)
(7.84808 0.0801407 0)
(7.85101 0.0639661 3.3162e-23)
(7.84877 0.0478527 4.14433e-23)
(7.8555 0.0351607 0)
(7.86335 0.0228168 0)
(7.85198 0.10129 -7.09876e-24)
(7.87294 0.00703907 -9.55238e-24)
(7.98961 0.00980868 0)
(7.98886 0.0123485 -8.12199e-24)
(7.99169 0.0140801 6.28493e-24)
(7.99133 0.0127616 -2.37848e-24)
(7.99249 0.0150655 -2.12416e-24)
(7.9888 0.00840166 0)
(7.99351 0.01507 0)
(7.99499 0.0164028 0)
(7.99682 0.0168487 0)
(7.99652 0.0130833 -1.19815e-23)
(7.97549 0.0401682 8.06006e-24)
(7.99564 0.0105547 -1.11146e-23)
(7.98552 0.00564925 5.63719e-24)
(7.98342 0.00423291 0)
(7.88294 -0.00338756 -2.46762e-23)
(7.89503 -0.00783897 -1.39573e-23)
(7.90075 -0.00901105 0)
(7.91246 -0.00936436 -3.33582e-23)
(7.92048 -0.0122716 -4.4786e-24)
(7.92796 -0.0159194 1.86051e-24)
(7.95011 -0.0127652 2.50583e-23)
(7.95364 -0.00906193 -6.04144e-24)
(7.94055 -0.0169927 -1.94725e-23)
(7.93536 -0.0183913 3.85029e-24)
(7.95665 -0.00933185 -1.26927e-23)
(7.96213 -0.00626207 -8.63568e-24)
(7.96827 -0.00621305 -5.83416e-24)
(7.9819 0.000407302 1.58533e-23)
(7.97532 -0.00419013 -6.35262e-24)
(7.97936 -0.00307309 -3.12643e-25)
(7.97096 -0.00620652 -5.53051e-24)
(7.85867 0.117925 0)
(7.86607 0.133156 4.54174e-23)
(7.88941 0.150143 4.42309e-23)
(7.88857 0.153905 0)
(7.87649 0.146202 -9.42735e-25)
(7.9236 0.126796 1.26826e-22)
(7.8474 0.317484 0)
(7.87853 0.167428 -2.92637e-23)
(7.84253 0.0874735 -3.01806e-23)
(7.84513 0.0715939 0)
(7.84369 0.0540737 1.85878e-23)
(7.84613 0.0404188 3.25477e-24)
(7.85595 0.0281311 1.58446e-23)
(7.85969 0.0148197 -4.05923e-24)
(7.84414 0.0970133 -1.82203e-23)
(7.85067 0.111516 -3.50406e-23)
(7.86429 0.00804739 1.75552e-23)
(7.8759 -0.000194534 -2.61477e-23)
(7.99099 0.0092146 -1.53437e-24)
(7.99101 0.0103891 -3.06388e-24)
(7.99258 0.0139979 1.02125e-23)
(7.99244 0.0113369 -2.72367e-24)
(7.99343 0.0146278 -1.17745e-24)
(7.98985 0.00673538 0)
(7.9948 0.0140919 7.44004e-24)
(7.99527 0.0143042 8.88361e-24)
(7.99775 0.0153116 0)
(7.99711 0.0155496 -7.1021e-24)
(7.97928 0.0194473 -4.2786e-23)
(8.00009 0.0107611 -1.06668e-23)
(7.98735 0.00441803 5.86739e-24)
(7.98419 0.00233495 -6.52722e-24)
(7.88263 -0.0137442 0)
(7.8884 -0.0155455 1.79516e-23)
(7.90124 -0.0171693 1.61934e-23)
(7.91164 -0.0160104 0)
(7.91638 -0.0178495 0)
(7.92469 -0.0213538 -5.86416e-24)
(7.95098 -0.0158373 1.46043e-24)
(7.94279 -0.0203199 -1.99852e-23)
(7.93347 -0.0227265 2.29224e-23)
(7.95821 -0.0125162 -9.14997e-24)
(7.96383 -0.00910396 -5.8095e-24)
(7.96673 -0.00888082 -5.78985e-24)
(7.98121 -0.00175954 5.27808e-24)
(7.98382 0.000932233 8.17641e-24)
(7.97552 -0.00663171 8.06905e-24)
(7.97917 -0.00536041 -9.7197e-24)
(7.97171 -0.00821995 -2.4154e-24)
(7.85708 0.128467 0)
(7.86529 0.143425 2.73161e-23)
(7.88991 0.157287 -2.18002e-24)
(7.88739 0.150464 0)
(7.87733 0.156685 -8.65768e-25)
(7.94481 0.0678139 3.61975e-22)
(7.84372 0.187139 7.04335e-22)
(7.87485 0.160422 5.23104e-25)
(7.83229 0.087388 -1.8061e-23)
(7.838 0.0684951 8.54518e-24)
(7.83625 0.0570937 -3.30823e-23)
(7.83925 0.0372004 -1.10705e-23)
(7.84828 0.0235841 1.5023e-23)
(7.85025 0.0158935 1.57322e-24)
(7.83633 0.101957 -3.6901e-26)
(7.8424 0.116194 -3.42382e-23)
(7.85934 0.000428834 1.71166e-23)
(7.87158 -0.0080497 5.37966e-24)
(7.99196 0.0079306 -1.48049e-24)
(7.99235 0.0101826 -2.3015e-24)
(7.99356 0.012566 2.60065e-24)
(7.99396 0.0111426 -4.65718e-24)
(7.99434 0.012538 1.87526e-24)
(7.98901 0.00520365 0)
(7.99153 0.00679442 0)
(7.99573 0.0119794 0)
(7.99752 0.0128835 0)
(7.99754 0.012883 -1.40478e-23)
(7.98235 0.0299069 3.73494e-23)
(7.9975 0.00713984 2.06764e-24)
(7.98741 0.00239165 -5.51877e-24)
(7.98643 0.00155949 -1.1339e-23)
(7.87577 -0.0164258 3.2729e-23)
(7.89031 -0.0199469 1.21605e-23)
(7.90647 -0.0194391 0)
(7.89661 -0.0196111 6.19242e-24)
(7.91881 -0.0220916 0)
(7.92777 -0.0248755 7.9731e-24)
(7.95533 -0.0163512 3.41398e-24)
(7.94759 -0.0195097 -7.6409e-24)
(7.94077 -0.0249491 -1.02206e-23)
(7.93646 -0.0262719 1.11045e-23)
(7.96169 -0.0124117 3.81596e-24)
(7.96804 -0.0113794 4.08333e-24)
(7.98277 -0.00350778 0)
(7.98559 -0.000922722 -6.6531e-24)
(7.97415 -0.00836491 -1.67314e-24)
(7.97761 -0.0069609 2.24065e-24)
(7.98129 -0.00560182 -3.96444e-24)
(7.97075 -0.0108071 -8.36513e-24)
(7.84964 0.132972 0)
(7.8558 0.149526 2.95419e-23)
(7.89214 0.15359 0)
(7.88637 0.159938 -4.25461e-24)
(7.86819 0.163776 0)
(7.94305 0.0972947 -1.18913e-22)
(7.83991 0.259623 -2.71963e-22)
(7.88165 0.165822 -8.28654e-23)
(7.82597 0.0797956 -6.42987e-24)
(7.82891 0.0962566 5.93792e-24)
(7.82938 0.0705032 8.99729e-24)
(7.82625 0.0520151 -3.73534e-23)
(7.83151 0.0368317 1.18441e-23)
(7.84125 0.0265966 -7.38884e-24)
(7.84541 0.00936606 4.58483e-24)
(7.83439 0.111309 -1.97803e-23)
(7.84118 0.126856 4.02431e-23)
(7.85069 0.00169377 0)
(7.86373 -0.00760041 2.39368e-23)
(7.99325 0.00761598 0)
(7.99368 0.0084931 -5.38702e-25)
(7.99508 0.00944811 -5.11017e-24)
(7.99521 0.0113903 0)
(7.99044 0.00355671 1.40254e-24)
(7.9924 0.00552405 -5.28043e-25)
(7.99668 0.0106581 0)
(7.99812 0.0104277 0)
(7.99839 0.00982929 1.75673e-24)
(7.98657 0.0134538 -5.79719e-23)
(8.00184 0.00791015 6.24895e-24)
(7.98922 0.00142784 5.46168e-24)
(7.9871 -0.00019068 -6.20506e-24)
(7.86995 -0.0238197 2.0706e-23)
(7.88822 -0.0244728 -2.96102e-24)
(7.90483 -0.0257533 3.17776e-23)
(7.89325 -0.0268123 -3.10141e-24)
(7.91499 -0.026637 -5.04888e-24)
(7.92576 -0.0292998 0)
(7.95632 -0.0200249 -9.69362e-24)
(7.94908 -0.0235148 -5.56836e-24)
(7.94295 -0.0283529 -1.29986e-23)
(7.9339 -0.0315365 0)
(7.96277 -0.0152056 1.10574e-24)
(7.96606 -0.0146679 3.59033e-24)
(7.98448 -0.00288714 0)
(7.97474 -0.0110803 8.75442e-24)
(7.97813 -0.00892204 7.93355e-24)
(7.98177 -0.00724099 0)
(7.9726 -0.0126858 -7.95043e-24)
(7.8478 0.144799 0)
(7.85561 0.160166 0)
(7.89878 0.160854 0)
(7.88972 0.170775 -1.09554e-22)
(7.87053 0.175382 1.70419e-23)
(7.9715 0.132402 -2.95244e-22)
(7.83157 0.171097 5.23083e-23)
(7.8796 0.163437 -3.74842e-23)
(7.81451 0.0835049 9.02721e-24)
(7.82024 0.099954 3.41705e-24)
(7.81899 0.0611165 -5.06955e-23)
(7.82576 0.0444769 -2.84022e-24)
(7.82589 0.0256909 2.12205e-23)
(7.83263 0.0198581 -4.25205e-24)
(7.83508 0.0124971 1.76604e-24)
(7.82603 0.115871 -1.81271e-23)
(7.8325 0.131582 2.94853e-23)
(7.84497 -0.00611487 0)
(7.85629 -0.0169677 1.53926e-23)
(7.99419 0.00636804 0)
(7.99479 0.00780013 1.42195e-25)
(7.99552 0.00809766 -4.49831e-25)
(7.99597 0.00928535 2.59753e-25)
(7.99599 0.00967469 -2.24555e-24)
(7.99197 0.00417422 -4.49176e-25)
(7.99053 0.00214096 7.04762e-24)
(7.99377 0.0056165 0)
(7.99699 0.00877288 -6.05295e-24)
(7.99751 0.0103651 7.28424e-25)
(7.99871 0.00906386 1.44197e-24)
(7.99978 0.00890417 3.22236e-24)
(7.99187 0.0225937 0)
(7.99829 0.00141073 -1.62066e-24)
(7.99975 0.00375674 -1.03612e-23)
(7.98976 -0.000164772 -4.76168e-24)
(7.98844 -0.00104826 -5.22429e-24)
(7.87368 -0.0304138 -8.4944e-24)
(7.8594 -0.0248588 0)
(7.88263 -0.0294024 -6.01719e-24)
(7.90915 -0.028831 3.72137e-23)
(7.89824 -0.0286568 0)
(7.91729 -0.0318461 -9.30017e-24)
(7.92969 -0.0329519 0)
(7.92145 -0.0324533 0)
(7.95979 -0.0195152 -2.18165e-23)
(7.9536 -0.0232783 -5.24294e-24)
(7.94705 -0.0269669 5.65025e-24)
(7.94078 -0.0332955 2.29614e-23)
(7.93657 -0.0352551 0)
(7.96727 -0.0166896 0)
(7.98566 -0.00406228 0)
(7.97659 -0.0114084 3.96586e-24)
(7.98023 -0.00913067 8.64317e-24)
(7.98398 -0.00757453 9.13995e-24)
(7.97095 -0.0155634 0)
(7.8413 0.149148 0)
(7.84928 0.168952 0)
(7.90285 0.158023 1.49379e-23)
(7.89718 0.17188 -7.53592e-23)
(7.88321 0.178516 -1.84293e-23)
(7.86454 0.181778 2.06791e-23)
(7.97644 0.116868 1.41151e-22)
(7.90519 0.169469 0)
(7.84468 0.279374 2.88123e-22)
(7.80257 0.0766312 -3.00538e-24)
(7.81234 0.0934108 2.36641e-24)
(7.81838 0.110281 2.03544e-24)
(7.81045 0.0590445 -4.40095e-23)
(7.81661 0.0423578 -3.97404e-23)
(7.81552 0.022332 -7.54209e-24)
(7.82909 0.00539198 7.54287e-24)
(7.82431 0.126057 -1.042e-23)
(7.83145 0.141812 0)
(7.83588 -0.00498107 8.21682e-24)
(7.84811 -0.016116 2.16586e-23)
(7.99528 0.00637664 0)
(7.99653 0.00694767 1.72499e-25)
(7.99695 0.00745076 -1.59758e-24)
(7.99691 0.00859981 -8.5025e-24)
(7.99318 0.00329281 3.59895e-24)
(7.99217 0.00100007 -3.77368e-24)
(7.99445 0.00431695 3.43777e-24)
(7.99767 0.00758981 -1.4615e-24)
(7.99816 0.00779971 -9.56372e-25)
(7.99925 0.00749016 -7.28098e-24)
(7.99946 0.00570745 -2.31656e-24)
(8.00019 0.000234012 -1.52931e-23)
(7.99952 0.00225209 -1.87185e-23)
(8.00016 0.00551464 -4.93245e-24)
(7.99101 -0.00102018 4.93762e-24)
(7.98766 -0.00281282 0)
(7.86903 -0.0386079 1.14329e-23)
(7.85336 -0.0354724 -1.70596e-23)
(7.88445 -0.0375899 -5.33493e-24)
(7.90754 -0.0357636 0)
(7.89667 -0.0355741 1.78316e-23)
(7.91219 -0.0377137 0)
(7.92671 -0.0383056 0)
(7.92247 -0.0384996 0)
(7.96136 -0.0216376 -2.09297e-23)
(7.95357 -0.0270061 1.91635e-23)
(7.94966 -0.0293233 1.19947e-23)
(7.94325 -0.0356338 2.70162e-23)
(7.93412 -0.0399295 0)
(7.96539 -0.0194499 -7.48257e-24)
(7.98552 -0.00579134 3.2055e-24)
(7.97773 -0.0136609 -7.05057e-24)
(7.98117 -0.0107669 -4.45757e-25)
(7.98403 -0.00960876 6.00252e-24)
(7.97219 -0.0179504 -7.1816e-24)
(7.83681 0.159089 -2.80561e-23)
(7.83994 0.167704 -8.96394e-24)
(7.85239 0.178647 0)
(7.90971 0.173456 2.0033e-23)
(7.90511 0.177708 1.56718e-23)
(7.886 0.188976 7.21572e-24)
(7.86588 0.194179 2.99231e-23)
(7.97244 0.0808541 -3.18066e-23)
(7.89862 0.169197 -1.09527e-23)
(7.86265 0.215142 3.72207e-26)
(7.79078 0.0813683 -2.20041e-23)
(7.80289 0.0655603 0)
(7.80191 0.0991383 -2.34664e-24)
(7.81113 0.114437 -5.26091e-25)
(7.80934 0.0497009 -2.11002e-23)
(7.80934 0.029559 -2.72663e-23)
(7.81148 0.0152596 0)
(7.82023 0.00578071 1.12584e-23)
(7.81506 0.13141 0)
(7.82169 0.147561 0)
(7.83021 -0.0113049 -2.62953e-24)
(7.84027 -0.023364 3.65598e-24)
(7.99603 0.00524204 -2.74782e-24)
(7.99718 0.00588449 5.07864e-24)
(7.99762 0.00669033 3.96672e-24)
(7.99777 0.00708618 4.64141e-24)
(7.99392 0.00232136 0)
(7.99213 -0.00030166 1.68046e-24)
(7.99331 0.00141279 -5.4949e-24)
(7.99557 0.00408839 -2.70974e-24)
(7.99794 0.0063221 -3.87028e-24)
(7.99866 0.00705206 -4.72181e-24)
(7.99981 0.00622259 -1.74253e-24)
(8.00029 0.00451377 0)
(7.99967 0.00283793 6.16004e-24)
(7.9904 -0.00251238 0)
(7.98875 -0.00369423 0)
(7.87343 -0.045901 3.08511e-23)
(7.85998 -0.0429836 -2.70973e-26)
(7.84545 -0.037428 -1.33408e-23)
(7.88043 -0.0439574 1.2561e-23)
(7.89124 -0.0388535 1.65475e-23)
(7.90191 -0.0395538 3.28979e-25)
(7.9133 -0.0416824 8.10078e-24)
(7.92864 -0.041191 3.68791e-24)
(7.91902 -0.0421015 0)
(7.96151 -0.0239919 -2.18388e-23)
(7.95577 -0.0287862 1.96187e-23)
(7.94788 -0.0327819 -1.48375e-24)
(7.94298 -0.039905 -1.53602e-23)
(7.9354 -0.043843 0)
(7.96704 -0.0217991 -1.27276e-23)
(7.98712 -0.00641355 -6.8818e-24)
(7.98002 -0.0132306 1.02046e-24)
(7.97504 -0.0170344 0)
(7.98293 -0.0108711 -3.66618e-24)
(7.98546 -0.0103401 4.63844e-24)
(7.96975 -0.0211241 -1.25178e-23)
(7.82336 0.158215 -1.78131e-23)
(7.83175 0.180315 1.64017e-23)
(7.84736 0.190997 1.22702e-23)
(7.9179 0.16315 -1.1922e-23)
(7.90649 0.189709 4.07917e-23)
(7.87459 0.197367 2.38815e-23)
(7.89669 0.19481 3.71582e-23)
(7.85653 0.198485 1.72269e-23)
(7.96847 0.120224 -5.2912e-23)
(7.91659 0.158319 0)
(7.85452 0.113502 -5.53775e-22)
(7.78858 0.0929955 -1.25841e-23)
(7.782 0.0751847 -4.92816e-24)
(7.79346 0.0599781 0)
(7.8013 0.108657 -6.96908e-25)
(7.80818 0.12647 -3.21102e-23)
(7.80127 0.0446375 5.52581e-24)
(7.80054 0.0322959 0)
(7.80294 0.00874798 0)
(7.81509 -0.00462769 3.88901e-23)
(7.813 0.14225 -2.50806e-23)
(7.82018 -0.0121277 2.3408e-23)
(7.83228 -0.020608 -1.91686e-23)
(7.83925 -0.030987 1.54666e-23)
(7.99691 0.00506887 5.77374e-24)
(7.99808 0.00510333 0)
(7.99828 0.00525846 -4.74679e-25)
(7.99832 0.00614912 -3.27096e-24)
(7.9952 0.0016875 -9.54855e-26)
(7.9929 -0.00128317 -3.55935e-24)
(7.99411 8.13429e-05 0)
(7.9964 0.00295015 -4.61563e-25)
(7.99855 0.00510738 2.02072e-24)
(7.99871 0.0053096 2.94997e-24)
(8.00033 0.00437355 6.17017e-24)
(8.00018 0.00211604 0)
(8.00002 0.000800972 0)
(7.99161 -0.00288293 2.23295e-24)
(7.98835 -0.00493906 0)
(7.86921 -0.0543126 0)
(7.85679 -0.0511894 -2.09672e-23)
(7.83953 -0.0477346 0)
(7.88386 -0.0497543 0)
(7.89035 -0.0467156 -1.0218e-24)
(7.90061 -0.0462906 -1.63926e-23)
(7.91018 -0.0452896 8.24965e-24)
(7.92692 -0.0464479 -1.39366e-23)
(7.91798 -0.0479428 -2.77148e-23)
(7.95914 -0.0272695 -1.28118e-23)
(7.965 -0.024766 -5.89581e-24)
(7.95349 -0.0336066 1.04363e-23)
(7.94998 -0.0352027 0)
(7.93941 -0.043973 0)
(7.94709 -0.0402056 -5.4745e-24)
(7.93095 -0.0489914 -1.7584e-23)
(7.98801 -0.00796947 1.05145e-25)
(7.98103 -0.0145368 0)
(7.97585 -0.0187115 -9.7737e-25)
(7.98321 -0.0129289 0)
(7.98681 -0.00965946 -8.61941e-25)
(7.98449 -0.0128514 0)
(7.97029 -0.0236774 0)
(7.81578 0.166323 -1.98732e-23)
(7.83656 0.191221 0)
(7.81772 0.178964 0)
(7.93033 0.177292 0)
(7.92104 0.194862 0)
(7.87749 0.207754 1.59474e-23)
(7.89516 0.20492 1.57008e-23)
(7.85537 0.211196 -9.65013e-24)
(7.97281 0.0719672 -2.49476e-23)
(7.92732 0.147739 3.91881e-23)
(7.80809 0.181526 2.57053e-22)
(7.77924 0.0969764 -1.29231e-23)