/*--------------------------------*- C++ -*----------------------------------*\
| =========                 |                                                 |
| \\      /  F ield         | OpenFOAM: The Open Source CFD Toolbox           |
|  \\    /   O peration     | Version:  v2012                                 |
|   \\  /    A nd           | Website:  www.openfoam.com                      |
|    \\/     M anipulation  |                                                 |
\*---------------------------------------------------------------------------*/
FoamFile
{
    version     2.0;
    format      ascii;
    class       surfaceVectorField;
    location    "0.1";
    object      Uf;
}
// * * * * * * * * * * * * * * * * * * * * * * * * * * * * * * * * * * * * * //

dimensions      [0 1 -1 0 0 0 0];


internalField   nonuniform List<vector> 
21888
(
(7.92859 0.105658 6.41989e-24)
(7.87754 0.0944038 -1.25409e-23)
(7.91768 0.0734855 6.4352e-24)
(7.90526 0.0912777 -3.60435e-22)
(7.90523 0.0765955 2.96904e-23)
(7.90469 0.0596828 7.17751e-22)
(7.92758 0.0462003 -1.19806e-23)
(7.92743 0.0575636 0)
(7.87034 0.092952 -6.50102e-23)
(7.9078 0.0593056 2.11824e-23)
(7.87068 0.0781542 2.78097e-20)
(7.93952 0.0524558 -5.93528e-21)
(7.93784 0.0625785 3.90032e-25)
(7.94972 0.0538593 -3.53019e-25)
(7.90149 0.109649 -3.45995e-20)
(7.92629 0.0603622 -3.65993e-21)
(7.91835 0.0572476 -8.76643e-24)
(7.89964 0.052651 -3.45661e-23)
(7.90236 0.0754524 2.74213e-20)
(7.92628 0.0475509 1.99133e-23)
(7.95483 0.0566195 9.97345e-24)
(7.94661 0.0614985 5.71181e-24)
(7.96286 0.0468289 2.63142e-21)
(7.96147 0.0535828 3.65502e-22)
(7.85045 0.107544 2.0708e-23)
(7.89106 0.0634267 3.91406e-23)
(7.92288 0.057744 6.93407e-21)
(7.93247 0.0633526 -1.05085e-23)
(7.93477 0.0432521 6.58321e-21)
(7.86767 0.0761261 9.71578e-24)
(7.9652 0.0551493 -8.47704e-24)
(7.96589 0.0529729 4.56584e-24)
(7.94361 0.061327 -3.58272e-21)
(7.95584 0.0593252 2.84158e-24)
(7.96059 0.0477119 7.2458e-24)
(7.95758 0.047712 -2.78908e-24)
(7.96365 0.0501301 1.50051e-22)
(7.89371 0.11432 0)
(7.91618 0.0561019 2.03879e-23)
(7.94279 0.0666267 1.85223e-22)
(7.95346 0.0486853 8.77027e-24)
(7.92766 0.0429266 -6.78202e-21)
(7.90038 0.0515343 -2.149e-23)
(7.90309 0.076351 2.63529e-20)
(7.96901 0.0496713 2.11083e-21)
(7.969 0.048313 7.30742e-25)
(7.96171 0.0524055 -2.40199e-21)
(7.95533 0.0573851 -1.36675e-24)
(7.95454 0.0510272 9.71834e-24)
(7.95324 0.0469839 0)
(7.95676 0.0463696 0)
(7.96692 0.0467514 -6.75452e-24)
(7.96214 0.0463998 -2.06415e-24)
(7.8865 0.0803649 0)
(7.84532 0.118661 0)
(7.93959 0.0659238 6.62272e-24)
(7.932 0.0632158 0)
(7.94847 0.0657263 2.75942e-21)
(7.96901 0.0478218 1.53727e-23)
(7.93979 0.0442727 6.16018e-21)
(7.87154 0.0730187 4.4719e-23)
(7.96958 0.0456945 -3.73164e-22)
(7.95327 0.0616621 -1.48909e-24)
(7.9495 0.0580799 1.43335e-23)
(7.94761 0.0480871 0)
(7.94731 0.0513511 -2.16459e-24)
(7.95004 0.045665 0)
(7.95226 0.0429409 0)
(7.95849 0.0454777 1.77452e-24)
(7.95709 0.0431328 1.3179e-24)
(7.96017 0.0440985 1.902e-22)
(7.92368 0.0718612 0)
(7.90258 0.0727916 0)
(7.90038 0.121518 -4.6482e-24)
(7.93736 0.0720583 8.51466e-24)
(7.94941 0.0650289 3.46771e-22)
(7.97314 0.0454381 5.14126e-22)
(7.97395 0.0435724 7.40363e-24)
(7.95827 0.0458747 1.43481e-23)
(7.93649 0.0431094 -3.65517e-21)
(7.91393 0.0458849 -2.20423e-24)
(7.90839 0.0683244 6.4129e-23)
(7.97121 0.043345 1.16665e-24)
(7.96693 0.0430268 -2.41832e-23)
(7.94413 0.0547455 -5.51719e-25)
(7.94193 0.0576219 1.65522e-24)
(7.94609 0.0446458 0)
(7.94181 0.0499255 -4.54297e-23)
(7.95527 0.0407378 1.50497e-24)
(7.95269 0.0397819 0)
(7.9572 0.0406945 -6.08539e-23)
(7.96193 0.0422183 -2.73244e-23)
(7.95958 0.0412335 1.22784e-22)
(7.91968 0.0819502 -1.74261e-23)
(7.90742 0.0776899 -2.70516e-24)
(7.87928 0.0928377 1.13611e-22)
(7.85541 0.132079 -1.18251e-22)
(7.93341 0.0790926 -2.10257e-21)
(7.94346 0.0717307 2.03491e-23)
(7.94738 0.0678455 2.69362e-22)
(7.94299 0.0644125 8.25672e-23)
(7.97413 0.0426188 8.10752e-24)
(7.97363 0.0407395 1.72944e-22)
(7.95427 0.0405616 -1.97542e-24)
(7.88186 0.0663211 3.56816e-20)
(7.96399 0.0399247 7.94114e-24)
(7.9378 0.0600512 -1.40243e-24)
(7.93571 0.0556223 -3.73872e-24)
(7.94343 0.0431017 0)
(7.94649 0.0407736 -7.55681e-25)
(7.94077 0.0459733 -2.6757e-24)
(7.93767 0.0487057 -5.16294e-24)
(7.94975 0.0390918 -7.35595e-25)
(7.95359 0.0364519 1.44935e-24)
(7.9593 0.0384586 -3.42269e-23)
(7.93179 0.0848126 -1.611e-21)
(7.88864 0.0820479 -9.5532e-21)
(7.91266 0.126517 -7.76265e-20)
(7.9451 0.0718248 8.25246e-24)
(7.93484 0.0632456 -4.00292e-24)
(7.97322 0.0371854 0)
(7.97846 0.0381277 1.21939e-24)
(7.9705 0.0385866 5.61121e-23)
(7.97488 0.0381718 -4.07724e-25)
(7.96661 0.0324852 0)
(7.92548 0.0403046 1.4731e-21)
(7.90955 0.0653922 2.12855e-20)
(7.96627 0.0377977 -3.39815e-24)
(7.96392 0.0370487 0)
(7.93545 0.0516449 -4.7424e-22)
(7.93172 0.0541672 -3.19106e-24)
(7.94097 0.0424049 4.85539e-25)
(7.94756 0.0375245 -8.32396e-23)
(7.9351 0.0477254 2.68372e-24)
(7.95356 0.0343661 -1.7298e-24)
(7.95573 0.0345281 1.19133e-22)
(7.96217 0.0360623 -2.26324e-24)
(7.9597 0.0354564 -2.57362e-24)
(7.93711 0.0804501 -1.04635e-23)
(7.92363 0.0870645 2.00587e-21)
(7.90654 0.0880959 1.52774e-22)
(7.89454 0.0813155 -4.97539e-21)
(7.8783 0.0871651 4.4516e-23)
(7.85737 0.138871 9.75561e-23)
(7.94337 0.0764988 1.50248e-23)
(7.93836 0.0725282 1.89244e-23)
(7.93121 0.067439 8.21203e-24)
(7.92718 0.0625233 -1.00868e-22)
(7.97747 0.0374583 1.93594e-24)
(7.97916 0.0359295 -2.60997e-22)
(7.96752 0.0361038 1.50954e-22)
(7.97351 0.0358685 -3.57215e-23)
(7.96167 0.0300281 4.34217e-24)
(7.97332 0.0326655 3.17167e-26)
(7.96958 0.0295074 4.30204e-21)
(7.88371 0.0628468 2.62562e-23)
(7.96449 0.0341854 0)
(7.92915 0.0549076 0)
(7.9304 0.0508679 0)
(7.93827 0.0419636 5.73612e-24)
(7.94147 0.0394313 2.08047e-22)
(7.94625 0.0359237 -4.107e-24)
(7.94918 0.0348266 -4.44619e-22)
(7.93202 0.0471912 5.48945e-24)
(7.93478 0.0440519 -5.3285e-22)
(7.95184 0.0328597 -5.12836e-24)
(7.95342 0.0317663 3.56661e-22)
(7.95727 0.0337371 3.38579e-24)
(7.95585 0.0318169 2.89018e-22)
(7.9605 0.0314402 0)
(7.93937 0.0791381 -9.22427e-22)
(7.92315 0.0950805 -7.39884e-22)
(7.89121 0.0844003 -7.66467e-21)
(7.9279 0.158288 0)
(7.92802 0.0720984 -2.30012e-22)
(7.92644 0.0589988 -2.8038e-24)
(7.92265 0.0620765 -2.76106e-24)
(7.97946 0.0337047 2.36134e-25)
(7.97671 0.0338382 2.96841e-24)
(7.9697 0.034331 -1.78759e-24)
(7.96779 0.0337608 -7.08593e-25)
(7.97215 0.0336578 2.79511e-24)
(7.97713 0.0335317 -5.29799e-22)
(7.96088 0.0279784 -4.33699e-24)
(7.97696 0.034073 -3.35896e-24)
(7.92731 0.0351502 -1.41212e-23)
(7.91683 0.0614859 2.24909e-20)
(7.96704 0.0326624 2.30607e-24)
(7.96558 0.0315656 0)
(7.92619 0.0547396 -1.45834e-24)
(7.92884 0.0471012 5.03979e-24)
(7.93521 0.0405076 6.98883e-23)
(7.94391 0.0359072 6.38392e-25)
(7.94007 0.0354072 9.75012e-25)
(7.94614 0.0326847 -1.46035e-22)
(7.95032 0.0313763 2.72755e-23)
(7.95611 0.0298576 -2.00806e-22)
(7.96373 0.0298324 0)
(7.96223 0.0281667 0)
(7.93258 0.0808619 3.9832e-22)
(7.93508 0.0869683 -3.00861e-24)
(7.91832 0.0963589 -3.02467e-24)
(7.92886 0.0960289 -2.19767e-21)
(7.91154 0.0910076 -6.29153e-24)
(7.89702 0.120116 -1.59e-23)
(7.89342 0.138642 1.88956e-22)
(7.92651 0.0766145 -7.16857e-24)
(7.92223 0.0715504 7.37364e-24)
(7.91954 0.0640517 -4.06734e-24)
(7.92107 0.0594564 0)
(7.97393 0.0317421 3.09702e-22)
(7.96913 0.0312815 -2.51065e-23)
(7.98069 0.0338567 2.72724e-24)
(7.97759 0.0308401 2.28067e-24)
(7.96904 0.0270387 0)
(7.9803 0.0334253 1.59184e-21)
(7.89333 0.0588598 4.54276e-23)
(7.96667 0.0283543 5.0693e-25)
(7.92288 0.0558919 -1.28316e-24)
(7.92407 0.0523065 3.1946e-22)
(7.92398 0.0478181 -3.64407e-22)
(7.92617 0.0437112 -1.73609e-22)
(7.93587 0.0357097 1.64063e-23)
(7.93248 0.0373771 2.53122e-22)
(7.93822 0.0322604 3.57124e-23)
(7.94866 0.030288 6.4008e-24)
(7.94556 0.0297117 -2.16829e-24)
(7.95143 0.0284332 7.86806e-25)
(7.95891 0.0272293 1.214e-25)
(7.95658 0.0274007 -5.33498e-25)
(7.96109 0.0263599 0)
(7.9641 0.0251635 0)
(7.92433 0.0804103 -2.07733e-22)
(7.92599 0.0934774 -1.77118e-23)
(7.89496 0.102225 1.24036e-20)
(7.89377 0.0913255 -8.60132e-23)
(7.84777 0.136988 -9.32891e-20)
(7.91777 0.0686522 7.98938e-23)
(7.91622 0.0728831 3.50788e-25)
(7.91395 0.0653533 -4.55042e-24)
(7.919 0.0568035 0)
(7.97484 0.0295569 -3.85564e-25)
(7.97281 0.0301458 6.43812e-24)
(7.97119 0.0298847 -4.27461e-23)
(7.9701 0.0286299 1.07607e-23)
(7.97606 0.0292063 0)
(7.9783 0.0287783 0)
(7.96403 0.026528 0)
(7.97816 0.0309765 5.69506e-25)
(7.9808 0.0300891 -4.48195e-24)
(7.98282 0.0318101 -3.69806e-24)
(7.93834 0.0311355 0)
(7.9315 0.0585253 0)
(7.96916 0.0268521 2.63419e-24)
(7.96801 0.0255328 -1.90331e-24)
(7.92037 0.0495052 7.43732e-24)
(7.92859 0.0396772 3.06723e-24)
(7.92377 0.0404167 5.01269e-22)
(7.92978 0.0343768 1.05636e-23)
(7.9413 0.0292927 6.17141e-24)
(7.93773 0.0291023 6.27264e-25)
(7.94436 0.0262143 7.91311e-24)
(7.95458 0.0267687 -6.31525e-25)
(7.95178 0.0251291 3.03548e-24)
(7.95994 0.0241929 0)
(7.9567 0.0246195 -3.74932e-23)
(7.96684 0.0240974 4.96982e-25)
(7.96568 0.0222903 9.53634e-24)
(7.91761 0.0774098 8.95544e-23)
(7.91971 0.083075 -7.59895e-24)
(7.91292 0.094396 1.2291e-21)
(7.92662 0.0876677 -7.8041e-24)
(7.89742 0.103734 -3.1757e-23)
(7.89821 0.0979848 5.82039e-21)
(7.90181 0.0893737 1.2356e-23)
(7.8901 0.174928 -7.86749e-23)
(7.91201 0.0745359 1.56836e-24)
(7.90873 0.0662497 0)
(7.91126 0.0610329 0)
(7.91686 0.0525607 2.80168e-24)
(7.91496 0.0563474 0)
(7.97608 0.027737 0)
(7.97315 0.0279365 5.78378e-24)
(7.97114 0.0259947 -3.18909e-23)
(7.97995 0.0282287 3.71228e-24)
(7.97509 0.0267764 -6.27215e-24)
(7.9824 0.030277 1.38539e-21)
(7.90998 0.0594475 0)
(7.96947 0.0228846 4.44909e-25)
(7.91637 0.0486963 5.06852e-23)
(7.92249 0.0352753 -7.04605e-24)
(7.9196 0.0397879 1.65756e-23)
(7.92623 0.0320426 1.52613e-23)
(7.9306 0.0297366 1.52177e-22)
(7.93482 0.0275725 -9.92723e-24)
(7.93803 0.0247728 0)
(7.94388 0.0235751 6.08295e-24)
(7.94702 0.0238333 2.47547e-22)
(7.94967 0.0231227 5.38364e-24)
(7.95246 0.0219996 -1.38457e-22)
(7.95848 0.0221537 -5.78088e-24)
(7.9609 0.0209218 5.12495e-24)
(7.95606 0.0214064 -1.73194e-22)
(7.96415 0.0203826 -1.06562e-22)
(7.96702 0.0196051 3.97191e-23)
(7.9214 0.08751 0)
(7.91409 0.0858379 2.77178e-24)
(7.92402 0.0891249 -1.69423e-23)
(7.90486 0.103367 -1.60291e-24)
(7.91853 0.106117 4.56418e-23)
(7.89651 0.113237 6.15027e-24)
(7.88275 0.114815 -7.15623e-21)
(7.81469 0.162294 8.27524e-23)
(7.908 0.0720332 0)
(7.90777 0.0770356 -8.17334e-24)
(7.90421 0.0681882 6.89858e-25)
(7.90915 0.0565246 1.06678e-23)
(7.97614 0.0258918 4.52688e-25)
(7.97767 0.0262433 -4.7107e-24)
(7.97311 0.0256581 2.00717e-24)
(7.97461 0.0258317 3.8283e-25)
(7.97274 0.023964 2.48744e-24)
(7.97959 0.0269739 -5.76954e-25)
(7.9809 0.0267768 2.03993e-23)
(7.98299 0.02663 -5.77499e-22)
(7.9785 0.0222135 -6.52339e-24)
(7.98331 0.02724 -4.75791e-24)
(7.94622 0.0685916 9.10496e-23)
(7.94588 0.0287069 0)
(7.9714 0.0216743 -8.86439e-25)
(7.97051 0.0203636 9.81491e-24)
(7.91669 0.044857 5.44047e-22)
(7.9124 0.0480207 2.42227e-23)
(7.92185 0.0309906 4.24173e-24)
(7.91567 0.0394418 -1.70232e-24)
(7.93135 0.0246099 -1.71113e-22)
(7.94153 0.0221248 3.7316e-24)
(7.93786 0.0203292 -8.86178e-24)
(7.94401 0.0198194 -3.0891e-22)
(7.94866 0.0206916 7.6638e-24)
(7.95486 0.0194497 -2.79103e-24)
(7.96245 0.0180648 4.96156e-24)
(7.96974 0.0185361 3.33603e-22)
(7.96832 0.016836 2.18904e-23)
(7.90878 0.0822965 1.17309e-22)
(7.90883 0.0879675 3.53407e-23)
(7.91854 0.0984999 1.5272e-21)
(7.91829 0.092855 1.11093e-21)
(7.90705 0.102829 -7.29982e-24)
(7.89704 0.0767797 6.14739e-23)
(7.8981 0.106047 4.25531e-21)
(7.89006 0.118034 6.19822e-25)
(7.88754 0.150574 -2.14486e-23)
(7.90263 0.0792697 -3.78167e-23)
(7.89958 0.0651279 -1.97965e-23)
(7.89933 0.0714106 -8.90845e-25)
(7.90831 0.0508686 1.44779e-23)
(7.90444 0.0546761 2.54318e-22)
(7.97622 0.0239881 6.27125e-23)
(7.97898 0.026251 8.68353e-23)
(7.97932 0.0241582 -4.40689e-24)
(7.97284 0.0221245 -7.09424e-25)
(7.97461 0.0221109 1.50314e-24)
(7.98044 0.0254576 -1.06672e-24)
(7.98276 0.0255263 4.47359e-24)
(7.96877 0.0188307 0)
(7.97887 0.0256563 -1.74972e-24)
(7.93399 0.0544559 4.53553e-20)
(7.97425 0.0198834 0)
(7.97334 0.020023 -6.92375e-23)
(7.97155 0.018038 8.14462e-24)
(7.90948 0.0465876 4.53103e-23)
(7.91753 0.0293282 0)
(7.92198 0.0267709 4.20083e-24)
(7.91086 0.0412519 -1.39599e-24)
(7.91243 0.0367545 1.09481e-22)
(7.93188 0.0206754 -7.75868e-24)
(7.92817 0.022619 1.69621e-24)
(7.93421 0.0177441 -1.43979e-23)
(7.93766 0.0153689 4.24853e-22)
(7.94721 0.0184522 8.55276e-24)
(7.94462 0.0168451 7.85746e-24)
(7.95007 0.0178435 -2.10055e-22)
(7.95345 0.0171261 5.70649e-24)
(7.95687 0.0162586 0)
(7.96456 0.016062 5.26048e-24)
(7.96149 0.0162754 0)
(7.96685 0.0152795 -1.14321e-22)
(7.96955 0.0143633 1.99322e-22)
(7.90843 0.091239 1.50435e-21)
(7.90157 0.0885435 7.00879e-22)
(7.91147 0.0963456 -1.44511e-23)
(7.9076 0.101837 -1.58628e-22)
(7.87052 0.105827 -1.11921e-24)
(7.88486 0.0923548 -1.54946e-20)
(7.88756 0.107736 2.91769e-21)
(7.89667 0.110956 -4.83989e-24)
(7.83146 0.15149 5.38366e-20)
(7.89816 0.0773443 3.56947e-23)
(7.89774 0.0820259 -1.15302e-23)
(7.89929 0.0581869 1.09221e-24)
(7.89388 0.0624018 3.11612e-22)
(7.89494 0.0749114 -1.35642e-24)
(7.89992 0.0518696 8.12782e-24)
(7.97623 0.022106 1.01983e-25)
(7.97779 0.0221229 1.03944e-25)
(7.97961 0.0220992 0)
(7.98112 0.0223139 -4.37231e-24)
(7.97641 0.0202077 2.58021e-23)
(7.98168 0.0233251 -1.01762e-24)
(7.98197 0.0243685 2.98873e-22)
(7.98275 0.0247809 -2.67177e-25)
(7.98339 0.0252619 -8.32663e-24)
(7.9835 0.0270829 9.71495e-22)
(7.98032 0.0303539 7.08252e-22)
(7.96914 0.0300005 -5.31771e-23)
(7.96284 0.0483047 -5.12255e-23)
(7.97669 0.0297995 6.5517e-24)
(7.9734 0.0179807 -1.71357e-24)
(7.97492 0.0182134 -9.69809e-25)
(7.97334 0.0161964 8.85199e-23)
(7.90666 0.0436436 -8.41987e-25)
(7.91337 0.0308242 8.25487e-24)
(7.91448 0.0257949 0)
(7.92511 0.0233963 1.1269e-22)
(7.92061 0.0222619 7.91522e-24)
(7.90814 0.0332395 -3.92936e-23)
(7.9308 0.0156935 -5.23804e-22)
(7.92572 0.0191093 -1.35048e-23)
(7.94188 0.0142131 -4.71224e-24)
(7.93862 0.0115279 -4.07798e-24)
(7.94542 0.0132295 -2.55833e-23)
(7.9515 0.0146585 -6.65527e-24)
(7.95957 0.0148911 0)
(7.95741 0.0126262 0)
(7.96574 0.013418 2.16896e-24)
(7.96166 0.0130244 -3.07369e-24)
(7.97012 0.0115644 5.76789e-23)
(7.97191 0.0131561 7.35774e-24)
(7.89552 0.0869928 1.947e-23)
(7.91007 0.101775 -6.50302e-24)
(7.90702 0.0986605 1.22343e-24)
(7.90803 0.104397 1.07062e-24)
(7.90072 0.100444 6.82045e-23)
(7.90363 0.110523 5.96528e-24)
(7.89828 0.114267 -9.44995e-24)
(7.91092 0.156869 1.05103e-22)
(7.89114 0.0667187 -8.1189e-24)
(7.8896 0.0605827 -9.73816e-24)
(7.89123 0.071323 0)
(7.89093 0.0777085 5.26104e-24)
(7.90142 0.046236 1.20849e-24)
(7.89591 0.0483848 1.24726e-24)
(7.97958 0.0202731 -3.41474e-24)
(7.98278 0.0212026 1.03129e-22)
(7.9765 0.0183068 -1.59674e-25)
(7.97812 0.0184017 -3.50309e-24)
(7.98277 0.0236318 3.47447e-24)
(7.98689 0.0242079 -1.20742e-21)
(7.98043 0.0267184 8.69694e-24)
(7.97614 0.0389656 -3.26309e-21)
(7.97333 0.0558385 2.10568e-23)
(7.97669 0.0164727 7.0715e-26)
(7.97354 0.0144339 -1.84772e-22)
(7.97539 0.0146778 2.47589e-24)
(7.90227 0.0404015 7.35987e-24)
(7.91626 0.0209796 4.81259e-24)
(7.91179 0.0212937 -3.42602e-25)
(7.9186 0.0177238 -2.02319e-22)
(7.90371 0.0360318 3.17181e-22)
(7.90438 0.0301162 2.45183e-22)
(7.92591 0.0150391 4.72168e-22)
(7.92902 0.0121403 -3.27722e-23)
(7.92267 0.015551 -4.84171e-22)
(7.94032 0.00772428 4.46593e-23)
(7.93618 0.00824199 -9.24255e-25)
(7.94891 0.0122197 1.81999e-22)
(7.94634 0.0100037 5.81983e-24)
(7.95251 0.0113522 -1.43322e-22)
(7.95544 0.0102231 -3.93414e-24)
(7.958 0.00948098 0)
(7.96401 0.011828 1.68136e-24)
(7.96624 0.0111244 -1.82535e-24)
(7.9622 0.0106004 -6.00013e-24)
(7.96837 0.0100837 4.88982e-24)
(7.97048 0.00926293 -6.34123e-23)
(7.9738 0.0118828 3.29395e-24)
(7.894 0.0919339 1.04116e-21)
(7.89058 0.0864312 6.95064e-24)
(7.89756 0.0957845 1.47341e-24)
(7.90161 0.101521 5.16353e-23)
(7.90728 0.110029 -1.15108e-22)
(7.88214 0.127981 2.23459e-25)
(7.88727 0.112398 0)
(7.8995 0.114254 -1.0379e-23)
(7.90456 0.118077 -1.03928e-21)
(7.87973 0.145324 -2.82259e-21)
(7.88657 0.0694033 1.79428e-24)
(7.8833 0.0618988 1.70386e-24)
(7.88743 0.0566426 0)
(7.88766 0.0828824 1.89655e-22)
(7.88444 0.0791942 5.16762e-24)
(7.89054 0.0500937 0)
(7.89166 0.0437293 1.20059e-23)
(7.97968 0.0183915 -4.72487e-23)
(7.9814 0.0184651 -3.2598e-24)
(7.98374 0.0193286 2.75446e-24)
(7.98463 0.0203783 2.22973e-23)
(7.97988 0.0166152 -3.36875e-24)
(7.98444 0.0215339 9.74701e-24)
(7.98447 0.0227684 1.05176e-24)
(7.98606 0.0233116 -1.14045e-22)
(7.9874 0.0226475 1.84318e-24)
(7.98267 0.0269517 3.77337e-24)
(7.98581 0.0239033 1.25262e-24)
(7.99125 0.0232346 3.04303e-24)
(7.95027 0.0456865 8.13774e-24)
(7.97691 0.0146406 0)
(7.9784 0.014769 0)
(7.97679 0.0131129 0)
(7.89833 0.0374897 6.48195e-24)
(7.90859 0.0171086 1.04547e-23)
(7.90724 0.0216705 -3.24517e-25)
(7.91805 0.0137464 9.40842e-23)
(7.90377 0.025321 2.89213e-24)
(7.89881 0.0291014 2.57064e-24)
(7.93257 0.00823417 -2.81281e-22)
(7.92754 0.00761617 3.09543e-22)
(7.94394 0.00734985 5.59737e-23)
(7.94201 0.00417711 1.15068e-23)
(7.93501 0.00413067 1.94855e-23)
(7.94746 0.00689449 6.01452e-24)
(7.9529 0.00795099 -1.18045e-25)
(7.96048 0.00912333 -3.42442e-24)
(7.95889 0.00693941 3.89549e-25)
(7.96667 0.00857701 -1.94291e-23)
(7.96279 0.00844704 -8.38232e-23)
(7.97112 0.00697195 3.32477e-24)
(7.97269 0.00844265 3.32741e-24)
(7.97613 0.0110674 0)
(7.97453 0.00986654 0)
(7.88893 0.0953755 2.99182e-24)
(7.88464 0.088454 6.43672e-25)
(7.90011 0.10677 3.74463e-24)
(7.8925 0.103705 2.4205e-24)
(7.90652 0.117129 -1.3476e-22)
(7.90462 0.113196 4.73703e-24)
(7.89499 0.125381 3.37044e-23)
(7.90592 0.12242 -1.49715e-22)
(7.81812 0.119026 -1.18456e-24)
(7.92385 0.100078 9.43181e-24)
(7.88261 0.0677128 -1.43509e-22)
(7.8823 0.0725818 2.0237e-24)
(7.87892 0.06408 1.75935e-24)
(7.88344 0.0510575 1.03583e-23)
(7.87907 0.0774591 -1.84003e-24)
(7.89357 0.0381992 1.02123e-23)
(7.8875 0.0386872 -7.34448e-23)
(7.9829 0.0183424 2.21139e-24)
(7.98284 0.0164959 -1.65329e-22)
(7.98488 0.0175184 1.65943e-22)
(7.98614 0.0196444 -3.61046e-23)
(7.98 0.0148013 0)
(7.98159 0.014888 0)
(7.98527 0.0217694 2.45892e-25)
(7.98807 0.0227067 8.9401e-22)
(7.98772 0.021947 4.11599e-25)
(7.98823 0.0242771 1.11502e-24)
(7.99198 0.0262453 0)
(7.98454 0.0202419 0)
(7.9742 0.0229618 6.49542e-24)
(7.97525 0.043295 -1.2493e-20)
(7.98007 0.013075 5.59155e-24)
(7.97785 0.0111022 3.15222e-24)
(7.89571 0.0329638 1.02991e-22)
(7.9047 0.0129858 8.13486e-24)
(7.90956 0.0122418 9.67594e-24)
(7.90163 0.0205273 6.16252e-24)
(7.91387 0.0111722 -1.37754e-22)
(7.91898 0.00915105 4.56578e-24)
(7.89342 0.0282862 -5.78642e-25)
(7.92287 0.00618196 -1.2609e-23)
(7.9269 0.00238515 -9.78131e-24)
(7.94401 0.00153749 -6.6607e-25)
(7.94052 0.00151809 3.71712e-24)
(7.93775 0.000380609 9.29681e-23)
(7.93407 -0.000229863 6.14493e-22)
(7.95022 0.00626384 3.01538e-24)
(7.94865 0.00391613 0)
(7.95306 0.00533784 2.33944e-22)
(7.95783 0.00466949 -2.33725e-25)
(7.96042 0.00500036 -3.92218e-24)
(7.96482 0.00719267 -2.84423e-24)
(7.96714 0.00611402 3.24807e-23)
(7.9629 0.00576869 -9.82488e-23)
(7.96948 0.00497427 3.24649e-24)
(7.97199 0.00411298 0)
(7.97514 0.00759288 -3.9273e-24)
(7.88457 0.0945724 2.56497e-24)
(7.88522 0.0988736 -7.74218e-22)
(7.88049 0.0914656 0)
(7.8967 0.114841 5.21008e-24)
(7.88385 0.103839 1.16556e-24)
(7.91608 0.128746 -9.52008e-21)
(7.89583 0.14182 2.68233e-23)
(7.90018 0.134828 -1.37515e-21)
(7.90212 0.126952 -7.95973e-24)
(7.8841 0.257094 0)
(7.94368 0.106955 3.05414e-23)
(7.87288 0.0678645 -2.03069e-24)
(7.87404 0.0608079 2.25109e-23)
(7.87556 0.0527619 -4.72404e-22)
(7.87842 0.0459702 -1.2515e-23)
(7.87304 0.074808 -1.61958e-23)
(7.87378 0.0824546 -1.55339e-23)
(7.88155 0.038949 -8.91368e-24)
(7.88405 0.0327678 -1.27555e-22)
(7.98299 0.0149766 1.23954e-25)
(7.98432 0.0150799 -1.91718e-24)
(7.98574 0.0153737 -1.47617e-22)
(7.98656 0.0163823 2.02148e-25)
(7.98716 0.0179751 6.21393e-24)
(7.98747 0.0188992 1.15733e-22)
(7.98327 0.0133404 -8.42768e-25)
(7.98677 0.0208895 -6.68333e-25)
(7.98678 0.020007 1.9541e-23)
(7.9878 0.0209105 0)
(7.98908 0.0218297 0)
(7.99045 0.0241793 2.18114e-24)
(7.99259 0.0261426 1.74419e-24)
(7.99223 0.0259564 0)
(7.98738 0.0213014 0)
(7.95913 0.041953 -3.29933e-23)
(7.97979 0.0112502 -1.32188e-24)
(7.98155 0.0114021 -1.60096e-23)
(7.97926 0.00936129 6.32805e-24)
(7.89943 0.0146565 -7.71242e-22)
(7.90061 0.00995143 -3.16853e-22)
(7.91191 0.00726001 -8.06493e-24)
(7.89626 0.0180601 -1.91333e-23)
(7.91908 0.00380985 3.11619e-24)
(7.88732 0.0272469 2.20894e-23)
(7.89122 0.0220104 -7.00445e-25)
(7.93034 -0.000489226 -9.35629e-23)
(7.92652 -0.00125303 -5.05351e-22)
(7.94719 0.000927139 -6.97961e-25)
(7.94581 -0.00170882 -8.04157e-24)
(7.94043 -0.00255085 4.04472e-24)
(7.93279 -0.00392925 1.89295e-23)
(7.94993 0.00102044 0)
(7.9551 0.00352284 -1.6318e-24)
(7.95276 0.00192056 2.0569e-24)
(7.95759 0.00138054 5.90745e-24)
(7.96266 0.00348861 2.19179e-25)
(7.96749 0.00335378 7.66014e-24)
(7.97427 0.00381278 0)
(7.97298 0.00198678 1.07568e-23)
(7.97571 0.00513154 -3.39524e-24)
(7.97724 0.00655958 -4.0476e-23)
(7.87425 0.0899752 -1.3374e-23)
(7.87511 0.0967853 0)
(7.89295 0.120866 2.33703e-24)
(7.88634 0.114685 9.41205e-23)
(7.87736 0.103543 0)
(7.88046 0.109542 -6.29896e-24)
(7.89351 0.147854 -2.79986e-24)
(7.89629 0.12584 0)
(7.89897 0.131981 0)
(7.99655 0.235262 1.16875e-22)
(7.95931 0.157513 7.74508e-21)
(7.91638 0.141592 -1.93274e-20)
(7.86756 0.0716373 -2.0294e-24)
(7.86854 0.0554869 3.40789e-22)
(7.87321 0.0395171 4.03518e-22)
(7.86724 0.0877239 -1.40219e-22)
(7.8809 0.0261567 -1.14284e-23)
(7.986 0.0138893 -2.42575e-24)
(7.9882 0.0156153 0)
(7.98878 0.0182471 6.49175e-24)
(7.98333 0.0115228 6.91591e-25)
(7.98486 0.0118672 1.52181e-23)
(7.98968 0.0197976 0)
(7.99283 0.021566 -1.10228e-22)
(7.99061 0.023466 0)
(7.99385 0.0222712 0)
(7.98644 0.0222372 1.29817e-25)
(7.97899 0.0244315 -8.05336e-22)
(7.9777 0.0352609 1.86463e-20)
(7.983 0.00981324 -3.15128e-23)
(7.97885 0.00768306 -1.55866e-22)
(7.98078 0.0080323 2.98129e-24)
(7.89685 0.00502354 -1.13337e-24)
(7.90318 0.00310046 2.22665e-24)
(7.9147 0.00250973 1.18439e-22)
(7.91011 0.00228475 -5.18385e-24)
(7.89008 0.0153452 -6.54677e-25)
(7.91869 -0.000595865 1.81821e-22)
(7.92348 -0.00316031 -5.43359e-24)
(7.92677 -0.00547579 5.65377e-24)
(7.94393 -0.00398612 8.95294e-24)
(7.94706 -0.00486109 2.12763e-23)
(7.94101 -0.00587208 2.35748e-24)
(7.93057 -0.00690718 0)
(7.93434 -0.00764139 6.53959e-24)
(7.95244 -0.000889406 1.34117e-24)
(7.95775 -0.00145752 -4.77038e-23)
(7.96018 -0.000253155 4.79703e-24)
(7.9649 0.00210183 7.89496e-24)
(7.96267 0.00093674 7.39925e-24)
(7.96758 0.000749225 1.10544e-22)
(7.97635 0.00334382 -1.18501e-25)
(7.97438 0.000437545 -6.42856e-23)
(7.97215 0.000139025 -1.29051e-22)
(7.97862 0.00544076 2.30591e-22)
(7.8712 0.102018 0)
(7.88911 0.127103 0)
(7.87731 0.115565 -1.16803e-22)
(7.89383 0.145683 7.71532e-23)
(7.89346 0.146046 2.28652e-21)
(7.89721 0.140417 4.53063e-24)
(7.89369 0.136603 0)
(7.92798 0.224162 -3.97058e-20)
(7.90727 0.160638 6.5222e-23)
(7.86091 0.0766568 -4.59839e-24)
(7.86133 0.0678378 1.86434e-23)
(7.86153 0.0596866 3.1345e-23)
(7.86138 0.0513159 2.08947e-23)
(7.86595 0.0390999 -2.25197e-23)
(7.86998 0.0321267 -2.55786e-23)
(7.86035 0.0851408 -2.91275e-23)
(7.86067 0.0930585 -1.80457e-23)
(7.87333 0.0247439 2.10459e-23)
(7.87863 0.0181948 2.34764e-23)
(7.98619 0.0120568 -1.34174e-24)
(7.98753 0.012325 0)
(7.98962 0.0155311 0)
(7.98911 0.0140092 -2.29956e-24)
(7.98999 0.0164079 3.20496e-24)
(7.99011 0.0173874 -7.35293e-23)
(7.98644 0.0104088 -8.30888e-23)
(7.99055 0.0179098 4.46149e-24)
(7.99142 0.0180832 0)
(7.99489 0.019981 1.5413e-24)
(7.99357 0.0192165 1.85117e-24)
(7.99602 0.0201259 0)
(7.99454 0.0201804 1.53673e-25)
(7.96528 0.0319387 -1.7563e-20)
(7.98251 0.0080561 -1.62471e-25)
(7.98426 0.00822886 -3.32474e-25)
(7.98172 0.00648483 -6.1627e-23)
(7.88976 0.00786236 -3.23509e-24)
(7.89072 0.00121326 -2.446e-22)
(7.90672 -0.00222843 -1.61624e-23)
(7.88422 0.0120587 1.23447e-24)
(7.91869 -0.00537365 6.00454e-24)
(7.92697 -0.00929914 -2.1039e-24)
(7.94775 -0.00819573 1.65435e-23)
(7.95 -0.00560656 9.64872e-24)
(7.938 -0.00888978 -8.90629e-23)
(7.94168 -0.0104626 6.00079e-23)
(7.9344 -0.012477 1.1246e-23)
(7.95528 -0.00271915 1.95399e-23)
(7.95253 -0.00401561 1.38502e-24)
(7.95794 -0.00442364 7.54227e-24)
(7.96278 -0.00183203 -2.32762e-23)
(7.96993 -0.000787607 1.05139e-22)
(7.96764 -0.00215371 9.59584e-24)
(7.97669 0.000975657 -1.52811e-22)
(7.97816 0.00224741 -1.97708e-24)
(7.97662 -0.00090178 -6.42569e-24)
(7.97207 -0.00260464 -5.71857e-23)
(7.98061 0.00464646 -2.64822e-24)
(7.97935 0.00366662 2.94336e-24)
(7.86355 0.100941 0)
(7.86684 0.10842 0)
(7.88601 0.133422 0)
(7.87964 0.129401 1.94443e-23)
(7.87014 0.115987 -1.34528e-23)
(7.8736 0.122258 -2.17967e-22)
(7.89168 0.147118 1.5e-23)
(7.88733 0.140308 9.66075e-24)
(7.90812 0.186638 1.80324e-22)
(7.90944 0.180085 2.67325e-22)
(7.88971 0.165264 0)
(7.85283 0.0812033 -4.64686e-24)
(7.85437 0.06397 -2.03963e-22)
(7.86128 0.0454641 8.79227e-24)
(7.85364 0.0486141 -1.95734e-22)
(7.85876 0.0371278 0)
(7.86642 0.0242141 0)
(7.85562 0.0994421 -3.80957e-24)
(7.87625 0.0101234 -4.75278e-24)
(7.98891 0.0106199 0)
(7.98841 0.0121935 -4.23205e-24)
(7.99103 0.0150473 3.05177e-24)
(7.9891 0.0128176 7.26097e-24)
(7.99052 0.0129536 -3.33364e-24)
(7.99172 0.0160315 2.42477e-24)
(7.98626 0.00834517 -3.65207e-25)
(7.98797 0.00872443 -3.53221e-25)
(7.9928 0.0180515 0)
(7.99287 0.0162157 0)
(7.99434 0.0172544 0)
(7.99702 0.0185029 0)
(7.99651 0.0177548 0)
(7.9968 0.0153505 -6.27035e-24)
(7.98086 0.0299478 -9.25289e-21)
(7.9854 0.016398 1.44657e-23)
(7.98546 0.00667363 2.90216e-24)
(7.98238 0.00467186 -4.09186e-26)
(7.88511 -0.00236341 4.74989e-22)
(7.89274 -0.00472467 -2.27009e-23)
(7.90346 -0.0071278 -1.51146e-23)
(7.91034 -0.00751737 -4.62756e-22)
(7.91483 -0.00825803 -1.64444e-23)
(7.91905 -0.00983967 -2.35012e-24)
(7.92264 -0.0120469 8.22336e-24)
(7.92663 -0.0138554 -1.40212e-24)
(7.94565 -0.0116512 -1.90059e-22)
(7.94841 -0.011869 -5.66233e-22)
(7.95274 -0.00709331 -3.02816e-24)
(7.94191 -0.0147298 -2.13061e-23)
(7.93054 -0.0154393 2.71327e-23)
(7.93413 -0.0166036 6.03878e-24)
(7.9578 -0.00768328 -7.72171e-24)
(7.96054 -0.00615126 -7.32573e-24)
(7.9653 -0.00338489 1.72393e-24)
(7.96292 -0.0047466 -5.13156e-25)
(7.96759 -0.00488376 -1.66243e-24)
(7.98069 0.00137871 5.35186e-23)
(7.97621 -0.00326223 2.51059e-23)
(7.97852 -0.00265191 -1.16181e-22)
(7.97406 -0.00403629 -4.40487e-24)
(7.97182 -0.00503625 6.02928e-23)
(7.86249 0.115743 0)
(7.86972 0.130497 -3.49232e-22)
(7.89033 0.149541 4.27017e-22)
(7.89012 0.152364 8.46266e-24)
(7.88866 0.147809 -1.01005e-21)
(7.8818 0.144291 9.51574e-24)
(7.91774 0.127979 -1.14249e-20)
(7.8411 0.198116 6.97623e-23)
(7.88793 0.154634 0)
(7.87988 0.162209 -1.59306e-23)
(7.84471 0.0843391 -1.74091e-23)
(7.84612 0.0745742 0)
(7.84865 0.0678087 1.70115e-23)
(7.84747 0.0592013 2.6106e-23)
(7.84596 0.0508899 -2.87967e-22)
(7.8474 0.0440213 -3.47979e-23)
(7.85076 0.0376451 1.56161e-24)
(7.85571 0.0315934 7.92176e-24)
(7.85937 0.0258875 8.95331e-24)
(7.86154 0.018662 -2.01704e-24)
(7.8476 0.0982527 -2.25746e-22)
(7.85142 0.106803 -2.19533e-23)
(7.86818 0.007607 5.60275e-24)
(7.87445 0.00245896 5.34513e-22)
(7.98924 0.00928079 0)
(7.99032 0.00950481 -7.82399e-25)
(7.99011 0.0112786 -9.13674e-23)
(7.99149 0.0134416 1.75582e-24)
(7.99218 0.0140255 3.816e-23)
(7.99177 0.0121322 5.2905e-23)
(7.99254 0.0145274 2.25166e-24)
(7.9929 0.0148662 3.6932e-23)
(7.98928 0.00750832 0)
(7.99347 0.0148141 -6.47583e-25)
(7.99423 0.0145897 3.56016e-24)
(7.99581 0.0168247 0)
(7.99513 0.0154496 4.0863e-24)
(7.99715 0.0161317 0)
(7.99507 0.0129903 -1.15746e-23)
(7.99695 0.0145682 4.61686e-22)
(7.97103 0.0257875 1.73765e-20)
(7.99926 0.0113593 -2.0158e-21)
(7.98443 0.00496363 2.79817e-24)
(7.98648 0.0050814 9.53991e-23)
(7.98381 0.00306011 -3.58815e-24)
(7.88009 -0.00173306 -2.53566e-23)
(7.88279 -0.00836069 -1.25623e-23)
(7.8974 -0.0083793 -7.89627e-24)
(7.89195 -0.0117648 -3.66848e-22)
(7.901 -0.0137092 8.9059e-24)
(7.91205 -0.0126349 -1.68051e-23)
(7.91867 -0.0149493 -2.41891e-24)
(7.92636 -0.0183155 2.03449e-22)
(7.95212 -0.0108815 8.32091e-24)
(7.95053 -0.0140281 -5.81183e-23)
(7.95492 -0.00918977 2.77513e-23)
(7.93788 -0.0177183 -7.41856e-24)
(7.94172 -0.0186381 -1.64979e-22)
(7.93438 -0.0205634 -3.60344e-23)
(7.9574 -0.0108985 1.75939e-23)
(7.96296 -0.00769894 3.4717e-23)
(7.96973 -0.0061981 -5.67882e-24)
(7.96745 -0.00750813 8.99066e-23)
(7.98154 -0.000983364 -1.40327e-22)
(7.98307 0.000708039 6.60253e-23)
(7.9754 -0.00548267 8.5836e-25)
(7.98015 -0.00234742 -1.8281e-22)
(7.97924 -0.00439003 -3.43129e-23)
(7.97131 -0.00740535 -3.86301e-24)
(7.85428 0.114413 -1.9185e-23)
(7.85769 0.123181 0)
(7.86114 0.130595 2.04828e-23)
(7.86586 0.138597 3.59047e-23)
(7.8888 0.153884 -5.0859e-22)
(7.88752 0.152257 0)
(7.87067 0.144866 1.39421e-23)
(7.8765 0.151845 -7.09444e-23)
(7.90404 0.152668 8.43692e-21)
(7.94304 0.102816 2.32474e-22)
(7.89826 0.228479 3.57985e-22)
(7.87831 0.162145 -1.46661e-23)
(7.8438 0.0929667 9.87893e-22)
(7.83709 0.0870739 -4.91577e-22)
(7.84081 0.070148 4.91209e-24)
(7.83948 0.0557843 -1.06834e-23)
(7.84254 0.0389266 -4.03313e-24)
(7.85164 0.0262501 -4.87022e-22)
(7.86192 0.0121521 5.3819e-24)
(7.85423 0.0154379 1.71654e-23)
(7.83963 0.0998465 -7.89665e-24)
(7.84595 0.11421 2.41861e-22)
(7.86163 0.00386635 9.38776e-23)
(7.87336 -0.00417846 4.76682e-22)
(7.99102 0.00977921 -2.32615e-24)
(7.99148 0.00861446 -4.77414e-23)
(7.99148 0.0103284 -2.7487e-24)
(7.99299 0.013304 -6.74683e-23)
(7.99241 0.0106984 -2.51462e-24)
(7.99318 0.0112353 -3.63992e-24)
(7.99393 0.013708 -1.52033e-22)
(7.98942 0.00602058 0)
(7.99086 0.00674902 0)
(7.99509 0.0141226 1.17954e-22)
(7.99522 0.0129969 3.78304e-24)
(7.99605 0.0137301 4.68925e-24)
(7.99787 0.0148381 -3.47752e-24)