/*--------------------------------*- C++ -*----------------------------------*\
| =========                 |                                                 |
| \\      /  F ield         | OpenFOAM: The Open Source CFD Toolbox           |
|  \\    /   O peration     | Version:  v2012                                 |
|   \\  /    A nd           | Website:  www.openfoam.com                      |
|    \\/     M anipulation  |                                                 |
\*---------------------------------------------------------------------------*/
FoamFile
{
    version     2.0;
    format      ascii;
    class       surfaceScalarField;
    location    "0.85";
    object      meshPhi;
}
// * * * * * * * * * * * * * * * * * * * * * * * * * * * * * * * * * * * * * //

dimensions      [0 3 -1 0 0 0 0];


internalField   nonuniform List<scalar> 
18811
(
0.00405689
-0.000194407
0.00236976
0.00612169
-0.0053847
0.00917923
0.00811906
-0.00692685
0.017052
-0.000448428
0.00650428
0.00578687
0.00953822
0.0145732
0.00811567
0.00882225
-0.00419527
-0.00784345
0.0187189
0.0257549
0.0157944
0.000210057
-0.0180705
0.0313967
0.0165346
-0.00281644
-0.0003542
0.0132758
0.00495175
0.0193771
0.0130237
0.00854683
0.0125505
0.00670431
0.0243398
0.0134452
0.0126631
-0.0111786
0.00633251
-0.00306149
0.024895
-0.00709724
0.0347429
0.0339344
0.0437456
-0.00793494
0.025739
0.00485759
-0.0285134
0.0482686
0.0196924
-0.00316923
-0.00137712
-3.08791e-05
0.0175591
0.0131069
0.0228293
0.0180897
0.0305
0.0208432
0.0155671
0.0166354
0.0160439
-0.00300394
0.0313665
0.0243569
-0.0158037
0.0166361
0.0109501
-0.00871453
0.00491791
-0.00228884
0.0319357
-0.0103999
-0.0327176
0.0534249
0.0449981
0.0556961
0.0591342
-0.0112887
0.0343411
0.0110832
0.00191391
-0.0296217
0.0607356
-0.00138252
0.0214635
-0.00167864
-0.0014945
-0.00157702
0.00114659
0.00483044
0.0140804
0.0315571
0.02225
0.0310187
0.0336255
0.030654
0.0458737
0.0219075
0.0206654
0.018951
0.0238048
-0.00651812
0.00681803
0.0375039
0.029357
-0.0119492
0.0141242
-0.0179166
0.0193755
-0.00661237
0.00808932
-0.000233323
-0.00387065
-0.0328814
0.0432599
-0.0155323
0.0508582
-0.0135422
0.0492161
0.0732439
0.0857316
0.0659971
-0.01218
0.0363499
0.017957
0.00808127
-0.0346935
0.0703352
-0.000251383
-5.32033e-05
0.00784665
0.00176249
-0.000811489
-0.0003394
0.0508823
0.000219834
0.0222876
0.0436415
-0.00437743
0.0591065
0.0334658
0.0508255
0.0407127
0.052893
-0.0128782
0.0858821
0.0365265
-0.011248
0.0364342
0.0150354
-0.000690826
0.0644205
0.0112766
-0.00760212
-0.0138269
0.0177356
-0.0197135
0.0326881
1.16003e-05
0.00274553
-0.0014903
-0.0409496
0.0490149
-0.0396826
0.0676665
0.00927008
0.0207849
0.0440195
0.0817919
0.0793134
-0.0189195
0.0790823
0.0756968
-0.0097682
0.0513389
0.0089809
0.0319969
0.00568062
-0.000513491
0.0697237
0.00116848
-0.0055176
0.000368461
0.00225062
-0.0011815
0.000688509
-0.00144003
7.93697e-05
0.0429908
0.0133433
0.0687057
0.00733202
0.0586591
-0.0115022
0.0598855
-0.00983128
0.0985727
-0.000989356
0.0859995
0.0751916
0.083774
-0.000666247
0.0446394
-0.0105711
0.0250214
0.0356136
0.000781509
0.000777449
0.073262
0.0744817
-0.00044744
-0.00778607
0.0126026
0.00497807
-0.00211407
-0.0141936
0.0207212
-0.0240978
0.0287558
-0.00100216
0.000677526
-0.0293984
0.0491821
-0.0470032
0.0607072
0.0169004
0.0637025
0.0517962
0.0539082
0.0176884
0.0787653
-0.00691852
0.0889668
0.0838088
0.0809805
-0.0124694
0.0624759
0.0244243
0.00624799
0.0273744
0.0294311
0.00779988
0.0773797
0.0011425
0.00232686
0.000811465
0.0439558
-0.00978992
0.021147
0.0394665
0.015982
-0.017398
0.0834824
0.0617576
-0.00744886
0.0759264
0.0763055
-0.0159917
0.0743389
-0.00771438
0.0938074
0.0785543
0.00166417
0.0888093
0.0796322
0.00754454
0.0594189
-0.0126248
0.0245292
-0.0219405
0.0537486
0.0112819
0.00163025
0.0687879
0.0155684
0.00442388
-0.00700324
0.0129889
-0.0120961
0.0160801
-0.0244263
0.0191764
-0.0183726
0.0442101
-0.0337082
0.0554847
0.0494638
0.0524718
0.0373239
0.0756944
-0.0187211
0.101689
0.061101
0.00986133
0.0926737
0.00562782
0.0794655
0.0877267
0.101991
0.0821185
-0.00514522
0.0724788
0.0153214
0.013182
0.0471713
0.0120745
0.0303313
0.00828484
0.074305
0.00109188
0.00381946
-0.00527096
0.0299703
-0.00712743
0.0158296
0.015321
0.00800881
0.0520344
-0.0133054
0.068558
-0.0224515
0.0631798
0.00455564
0.077646
0.119723
0.147484
-0.00213679
0.101171
0.0964378
-0.00269097
-0.0153927
0.124579
0.0775456
0.00991317
0.0488763
0.0837039
-0.00315971
0.019851
-0.0322158
0.0495419
0.00218972
0.0107865
0.00104688
0.0612064
0.0176861
0.004592
0.012741
-0.0060687
0.0106176
-0.0183909
0.0149351
-0.0123206
0.0315606
-0.0211065
0.0400172
-0.0330608
0.0445661
0.0438692
0.0498023
0.0546434
0.0121534
0.0810667
0.107788
0.0230639
0.098254
0.0597519
0.0202056
0.0864729
0.0869974
0.0800852
0.0582231
0.0733702
0.0757814
-0.0232532
0.077584
0.0310629
0.0598919
0.0102918
0.0265485
0.0338594
0.00427081
0.0766376
0.00224608
-0.0042375
0.0194357
-0.00170812
0.00990653
0.0138461
0.0101917
0.0418696
0.00571598
-0.00572348
0.0525849
0.0445592
0.00817425
0.0597001
0.00476234
0.0838838
0.134375
0.130604
0.125251
-0.0107247
0.103429
-0.00442065
0.0960154
0.0877089
-0.00301375
-0.0273011
0.105188
0.0693321
0.00994449
0.04175
0.0431053
0.079673
0.0709872
-0.00227654
0.0154193
-0.00239351
0.03403
-0.015453
0.0566761
0.00478996
0.0436495
0.0362428
0.00651216
0.00720873
-0.0119123
0.0131157
-0.011028
0.0234979
-0.0148051
0.0315812
-0.0199811
0.0325807
0.0387109
-0.0363565
0.0451358
0.0388795
0.0164068
0.0501535
0.00526199
0.0571202
0.0781851
0.0667317
0.0771533
0.13339
0.0056199
0.0818957
0.0483047
0.033118
0.0715462
0.0877761
0.0730245
0.0703198
0.0479532
0.0619983
0.0561524
-0.0327913
0.0804137
0.00953353
0.0745184
0.0842358
0.016083
0.0251069
0.0292887
-0.00132531
0.010165
-0.0132379
0.0520496
0.00044347
0.00500048
0.0118455
0.0140947
-0.00115527
0.034523
0.00673364
0.0267559
0.0205417
0.0533301
0.0423568
0.0102624
0.0501014
0.0468433
-0.00839084
0.0922134
-0.0404091
0.11306
0.115499
0.0989185
0.0926546
0.100187
-0.0190958
0.0950433
0.0761864
0.0150674
-0.00828485
0.0842379
0.0755936
-0.00289913
-0.0300259
0.0950826
-0.00630938
0.0646778
0.0512119
0.0300735
0.00948146
0.0663655
0.0830334
-0.00191839
0.0218122
-0.00573178
0.0368127
-0.0227416
0.0578332
0.0021181
0.0121258
0.0476873
0.0052417
-0.00810862
0.0168157
-0.00910452
0.023605
0.0305826
-0.0139976
0.0322269
0.03559
-0.0128436
0.0354637
0.0335255
0.0216902
0.0457044
0.00618514
0.0457374
-0.00186274
0.0507662
0.0793215
0.0907969
0.0266497
0.054296
0.0651
0.0762343
0.027419
-0.0199487
0.116482
0.0838923
0.0197267
0.0757115
0.0706628
-0.0576911
0.0757517
0.0568187
0.0203109
0.0639491
0.0686692
0.0289904
0.0622274
-0.0278691
0.0591259
-0.0103141
0.0782137
0.0742357
0.020755
0.0180419
0.0322347
0.00539464
-0.00178236
0.0171135
-0.00535716
0.0545317
0.00156554
0.0109104
0.012699
0.0400332
-0.00429501
-0.00543394
0.042831
0.0299438
0.031788
-0.0166441
0.0400172
0.0368234
0.0102575
0.044422
0.0461522
0.0467481
-0.012654
0.0947918
0.0186123
0.0766132
0.106094
0.0776493
0.0886758
-0.0626204
0.093983
0.0575847
-0.000896186
0.0880348
-0.0235812
0.0994947
0.00892814
0.0638538
0.0516085
0.026075
-0.0071878
0.0655088
-0.0386504
0.0604744
0.0268386
0.070404
-0.0419838
0.0726596
-0.00382596
0.0670563
0.056188
0.0529007
0.0263223
0.0654566
0.0235057
0.000935375
0.0459485
-0.0237292
0.0585064
0.00830203
0.022745
0.0176427
0.0375991
0.00634359
0.0161813
-0.00245344
-0.0094798
0.0247056
-0.0283197
0.0272206
0.0279209
-0.00364466
0.0361991
-0.000449894
0.0337101
0.0321347
0.00883158
0.043836
0.0448638
0.0013737
-0.000612044
0.0481403
0.0218488
0.0261147
0.0743825
-0.0406457
0.120737
0.0694236
-0.00702608
0.0892546
0.0863899
0.10501
-0.00784727
-0.027647
0.0879319
0.0633716
0.0115725
0.0917503
0.0623687
0.058128
-0.0251431
0.05257
0.0248265
0.0680112
-0.0060487
-0.0234066
0.0517073
0.00500353
0.0670894
0.055885
0.0182317
0.0280142
0.0392981
0.031468
0.0246875
0.0822267
0.0945511
0.0247322
0.0346771
0.0242535
0.010703
0.00101991
-0.00246177
0.0288999
0.0401083
0.0150938
0.00973772
0.000886629
0.00857756
0.010124
-0.00101324
0.0319098
-0.00201055
-0.00694522
0.0363464
0.0311503
0.0376262
0.0284099
0.0460695
0.0329837
0.0120701
0.045659
0.0358036
0.0266327
0.0229036
0.054508
-0.0191414
0.093205
0.0334916
0.0918824
-0.0236866
0.0962258
0.107176
0.12441
0.0844327
0.082887
-0.0151687
0.0804026
0.0850974
0.00581486
0.0551283
0.00837718
0.0366272
0.0226253
0.0443415
0.0404101
0.0131435
0.0624638
0.0468988
0.0623645
0.0534482
-0.0412436
0.0605839
0.0709476
0.0596316
0.0370898
0.0445192
0.0754131
-0.0127227
0.0403867
-0.0205039
0.0456585
0.0107874
0.00434116
0.01848
0.0560507
0.00481757
-0.00890516
0.0196549
0.00387999
0.0212772
-0.0231657
0.0237135
0.0361812
-0.00280192
0.0173491
0.022077
0.047448
0.0268098
0.0210181
0.0401244
0.0269913
0.0199292
-0.0142647
0.0513691
0.0510871
0.021015
0.0348421
0.0661878
0.0263878
-0.00375206
0.0988248
0.0738375
0.0247753
0.0204564
0.0923074
0.0732862
0.056806
0.0615191
0.0251734
0.00107926
0.0839337
0.0498333
0.0318782
0.0327759
0.0527308
0.0717501
0.0245744
0.0314659
0.0497325
0.0481995
0.0506197
-0.00507547
0.0649034
0.0222681
0.0560882
-0.00774624
0.0547557
0.00903047
0.00131965
0.0530107
0.0452861
0.0162346
0.0117431
0.057998
0.0113519
0.0475297
-0.0244257
0.0614513
0.0557946
0.0508187
0.0208171
0.0254874
0.0199398
-0.00342349
0.0165965
0.00324229
-0.00404094
0.0242212
0.0106012
0.0467361
0.00741066
0.00107548
0.0150345
0.00110081
0.0302202
-0.00375381
0.0197077
0.018838
0.0297017
0.0442899
0.022255
0.026938
0.044794
0.0270761
-0.0229578
0.0440853
0.0296477
0.0344319
0.0179542
0.056839
0.0465505
0.0766953
0.072335
0.06363
0.0387298
0.0880649
0.0988584
0.0213551
0.0739829
0.124029
-0.0412579
0.0680685
0.0522333
0.0441113
-0.0254766
0.0582156
-0.0427381
0.0751226
0.0769799
0.0283865
-0.0208687
0.0531303
0.0298476
0.0433736
0.00570325
0.0524581
0.0372228
0.0289413
0.0667712
0.0402287
0.0570692
0.0554661
0.0283363
-0.0327412
0.0497213
-0.00266429
0.0591795
0.0364438
0.0432778
0.0179454
0.042571
0.0727192
-0.0143016
0.0363976
-0.0109898
0.0308698
0.0142817
0.00664908
0.0108092
0.0050187
0.0148882
0.00346596
0.0189515
-0.0171299
0.0154412
-0.0220914
0.0430514
0.0097894
0.0110723
0.0349057
0.0393988
0.0192528
0.0270038
0.0476458
0.033672
0.0114298
-0.0110843
0.0418496
0.0528793
0.0322882
0.0255812
0.0254031
0.0223654
0.0454708
0.0304089
0.0660689
0.0081677
0.107221
0.0529351
0.0365386
0.0345679
0.0676488
0.00447589
0.0721735
0.0461509
0.0811033
0.0033243
0.065657
-0.0079025
0.0609329
0.0600407
-0.0148632
0.0511173
0.0427661
0.0319645
0.0278973
0.0497665
0.0732822
0.0598517
0.0683061
0.0607091
-0.00714457
-0.0306372
0.0607524
0.0348737
0.0668973
0.0271375
0.030609
0.0592936
-0.00301209
0.0561143
0.0433814
0.00684454
0.0166214
0.0400124
-0.000947262
0.0363711
0.00455952
0.0373405
0.0722535
0.0288054
0.0418876
0.0252107
0.0288273
0.0119675
0.00365606
0.00665862
0.00207945
0.0237624
0.00733434
0.00141473
0.0141487
0.00376799
0.0244355
-0.00739829
0.0169685
0.0281348
-0.02388
0.036598
0.00887873
0.0276187
0.0223814
0.0184933
0.0510436
0.0380866
0.0544296
0.0311515
0.0229665
0.0558976
0.0578307
0.0625474
0.0897336
0.0202128
-0.0266288
0.0642116
0.0829762
0.0745759
0.0192566
0.0540287
0.0496884
0.0334816
0.0642288
0.0400182
0.0472656
0.0520837
-0.000280856
0.0711785
-0.0378042
0.069361
0.0703407
0.0344438
0.0519349
0.00889719
0.0432173
0.0261879
0.0311122
0.0610192
0.0334091
0.0282546
0.0493657
-0.0136567
-0.0182889
0.0494438
0.0416414
0.0410061
0.053373
0.00314499
0.0568007
0.0437378
-0.00600867
0.0438948
0.0393198
0.0292429
0.0267181
0.0441291
0.00236332
0.0379175
-0.000848951
0.0261236
-0.00341612
0.0313574
0.012059
0.00416879
0.0200713
0.00421829
0.00543628
0.0114561
0.00562483
0.0172638
0.00275698
0.0113656
-0.0189665
0.0377716
0.0389486
0.0198904
0.0476035
0.0131851
0.039356
0.0526719
0.0353876
0.0202879
0.0596246
-0.0101578
0.0672845
0.0488944
-0.0209398
0.0846572
0.0308395
0.0612631
-0.0488001
0.0705794
0.0442554
0.0211726
0.064688
0.0168232
0.0591982
-0.00679475
0.0621106
0.0726233
0.066199
0.0249418
0.0401638
0.065667
-0.0191658
0.0673016
0.0335637
0.0537984
0.0497521
0.0213185
0.0502359
0.0178898
0.0315109
0.0392106
0.060306
0.0392171
0.0530077
0.0605221
-0.0288551
0.0607675
0.0331686
-0.0301691
0.0592522
0.052938
0.0590627
-0.0168731
-0.0193549
0.0609106
0.0380939
0.0045346
0.0372996
0.00257364
0.0379453
0.0150347
0.0215862
0.0420824
0.045052
0.0409539
0.0192184
0.0218256
0.0196723
0.00992537
0.00880142
0.00407051
0.00332945
0.00210997
0.0135077
0.00731536
0.00238303
0.0164153
-0.0185398
0.0234052
-0.00533196
0.0176861
0.0213779
0.00944005
0.0311771
-0.0109248
0.0331495
0.012085
0.0371095
0.000315075
0.0402595
0.0249697
0.028794
0.0463509
0.04998
0.0108156
0.0165325
0.0519521
-0.00499181
0.0548733
0.0373745
0.0712196
-0.0084691
0.0556862
0.0159902
-0.0182476
0.0633567
0.0832094
0.0534922
0.0136269
0.0492675
-0.0127443
0.0873011
0.0550041
0.0424895
-0.00180237
0.0483452
0.0417607
0.0263648
-0.0262014
0.06029
0.0282061
-0.00249727
0.0519536
0.0530161
0.0473036
-0.025713
0.0428719
0.0536304
0.033416
-0.0328204
0.0728557
0.0209375
0.0361866
0.0249734
0.0314583
0.0506826
0.03078
0.0292025
-0.0099696
0.0633851
0.0495454
0.0446553
-0.0230933
0.0619706
0.0373358
-0.000202974
0.0350576
0.0382835
0.0377912
0.00469214
0.038837
-0.00168203
0.0400355
0.0181008
0.00106751
0.0180862
0.00291204
0.0265882
0.00835857
0.00354377
0.0139986
-0.000178077
0.00704839
0.013957
0.0294206
-0.00344864
-0.0124122
0.0314069
0.0321738
0.0448339
0.0210344
0.0224443
0.0386712
0.0134978
0.0278616
0.043343
0.0399388
0.00730485
0.045894
0.0517939
0.0352396
0.0175943
0.0411178
0.0145834
-0.0279227
0.0661673
0.0124865
0.0602285
0.0483812
-0.039938
0.0567267
0.0362543
0.0137535
0.0707095
0.0682661
-0.011666
0.0625202
0.0342156
0.0555422
0.0689507
-0.00777344
0.0506758
0.040482
-0.00202218
0.0509987
-0.0326968
0.0597147
0.0283199
-0.0229522
0.0518134
0.0288146
0.0223248
-0.0030576
0.0563135
0.0240718
0.0228048
0.0413126
0.000642709
0.0507709
0.0370046
0.0507229
0.0578611
0.0563836
-0.0278816
0.0601552
0.0234848
-0.0304643
0.0603766
0.0411412
0.0551213
-0.00498357
-0.0207339
0.0660905
0.0419902
-0.00150331
0.0364288
0.026541
0.00474676
0.0203451
0.0134568
0.0136812
0.0202305
0.0351472
0.0364302
0.0200282
0.0149921
0.0227352
0.00157288
0.00847149
0.00113903
0.00297188
0.00202915
0.00911671
0.0160274
0.000553881
0.0145915
0.00478568
0.027694
0.0380798
0.0243434
0.0215439
0.0291427
-0.00598086
-0.00612846
0.0300466
0.0263625
0.0133722
0.0553824
0.0516319
0.0326911
0.0137593
0.0401577
0.0126665
0.0594671
0.0598037
0.0478942
0.027032
0.0543612
0.00692669
0.0542721
-0.00529928
0.0394248
0.0178327
-0.0203783
0.0572106
0.00819413
0.0659397
0.0582047
0.00308549
0.0603376
-0.0287077
0.0641955
0.066182
0.0416308
0.0331143
0.0492909
0.0311276
0.0194204
0.0407784
-0.0332718
0.0622233
0.0190545
-0.0177815
0.0465162
0.0458438
0.0384001
-0.0177085
0.0397703
0.0223488
0.0366253
0.0548344
0.0632833
-0.0117602
-0.0142923
0.0728844
0.0427536
0.0303983
0.0265846
0.0343963
-0.00130473
0.0430664
0.0546839
0.061833
-0.0170713
0.059639
0.0217874
0.0121433
0.00487245
0.0192896
0.0238179
0.0292214
0.0316108
0.0223259
-0.00979643
0.0427649
0.0192207
0.0146446
0.0153916
0.00393565
0.0130163
0.00176265
0.0152324
0.0101678
0.00396482
0.00625948
0.0125556
0.024311
-0.0074406
-0.00244149
0.0311771
0.0110936
0.0281351
0.0387288
0.0336162
0.024772
0.020869
0.0287882
0.0275771
0.0287618
0.0397913
0.0128927
0.054689
0.0535075
0.0313567
0.0288105
0.0325057
0.0280561
-0.00887127
0.0573319
-0.0282597
0.0558576
0.0103711
0.0448913
-0.0409874
0.0487162
0.0138322
0.0345494
-0.0254222
0.0436461
0.0295168
0.00489248
0.0626836
0.0648138
0.011571
0.050672
0.023323
0.0419339
0.00870795
0.0591226
0.0529015
0.0529714
0.0269746
0.0227764
0.0585287
0.0415574
-0.000366419
0.0416438
0.0210333
0.0627071
0.0380633
0.00828758
0.00757291
0.0369069
-0.00456792
0.0430962
0.0457516
-0.0253182
0.046561
0.0504267
0.0467727
0.0620674
0.0700285
0.0624672
-0.0323752
0.0674317
0.061826
-0.00656625
0.0515539
0.0108405
0.0460279
0.0141158
0.0294079
0.000546966
0.0159886
0.0190008
0.00211769
0.00463074
0.019977
0.013126
0.0150199
0.00334017
0.0161209
0.0175592
0.0224717
0.0297442
0.0161643
0.0116864
-0.0054667
0.0195351
0.0014206
0.00269635
0.00439603
0.00480216
0.0075292
0.00366124
0.0283371
0.0325808
-0.00538089
0.044983
0.0289863
0.0292967
-0.00287743
0.0243137
-0.0010291
-5.92904e-05
0.0299683
0.0413435
-0.0110682
0.0406794
0.0464282
0.00440075
0.0499478
0.0620199
-0.0208724
0.0495652
0.0370768
0.0309539
0.0387859
0.00688201
0.0381917
0.0110403
-0.0455305
0.0598264
-0.0106407
0.0334032
-0.0245197
0.0544847
0.0397831
0.0250497
0.0478845
0.0191103
0.0611242
0.00152719
0.0500134
-0.0321192
0.0563612
0.0517138
0.0201051
0.0406716
0.0217505
0.0405961
0.0128602
0.064004
0.0345133
0.0548426
0.0417053
-0.0342908
0.0557423
0.0289865
0.000307083
0.0369878
0.0512722
0.035942
0.0207805
0.023418
0.0132982
0.0307656
0.0530774
0.0496816
-0.00245202
0.0488387
0.0137824
0.0414597
0.0292261
0.0307193
0.0365831
0.0313859
0.0214449
0.0408011
0.045481
0.0574189
0.0642914
0.0172052
0.0099246
0.0168475
0.0168518
0.0172129
0.0172525
0.00341053
0.0126268
-0.00261301
0.0132351
0.0144885
0.0335873
0.0152596
0.011347
0.00990301
0.00260385
0.00896235
0.0175868
0.000516806
0.00174519
0.00528555
3.53463e-05
0.00748322
0.0148135
0.00598392
0.0232171
0.0112743
0.0220398
0.0349157
0.0411275
0.0305823
0.0232146
-0.0162273
0.0176242
0.0371283
-0.000455108
0.0423882
0.0408421
0.00110304
0.0459057
0.0475633
0.0517297
0.0352368
0.0273983
0.0378034
0.0121646
-0.00734951
0.0448531
-0.0224643
0.0538691
0.0613255
0.0457764
-0.0297058
0.0411578
0.030608
-0.0203994
0.0541793
0.0324959
0.0607963
0.0465114
0.044424
0.0185451
0.00628159
0.0447633
0.0321822
0.0247801
0.0140124
0.0384687
0.0033044
0.0380957
0.0218403
0.0426677
0.0567713
0.0596431
-0.00439005
-0.0111497
0.0531732
0.0449769
0.0508707
0.0351007
0.00126567
0.030069
0.0209874
0.00652258
0.0281551
0.0261967
-0.000379697
0.0223047
0.0281371
0.0190859
0.0341342
0.0468571
0.0558039
0.0663863
0.0665998
-0.033174
0.0650127
0.0440149
-0.00291228
-0.0144409
0.0602578
0.0433679
0.0612183
0.00345773
0.0227916
0.0152599
-0.00160752
-0.00186702
0.0146351
-0.0030716
0.0178455
0.000295172
0.0131183
-0.00145914
0.0107649
0.0121568
-0.00182347
0.0123099
0.0100725
0.016524
0.0144816
0.0250881
-0.0019096
0.0110942
0.00642226
0.0105018
0.000880499
0.000775917
0.00186446
0.0031137
0.00356586
-0.000949322
0.0105137
0.0460929
-0.00775387
0.0434152
0.0341709
0.0305567
0.00137964
0.0286495
-0.00335139
0.0194382
4.52097e-05
-0.00225384
0.0407295
-0.00198954
0.0434082
0.0390189
-0.00183842
0.049854
0.0181347
0.0340662
0.0657755
0.0574604
0.0338177
0.0261147
0.0357228
-0.00453425
0.0507766
0.043494
-0.00200189
0.0414544
-0.0104756
0.045228
0.00922043
-0.0199267
0.052792
0.0529818
0.00883713
0.0090279
0.0382515
0.0516253
-0.026867
0.0466063
0.0139623
0.031278
-0.00151529
0.0340981
0.0393438
0.04252
0.0475833
-0.0123576
0.0554628
0.0372496
0.0477619
0.049174
-0.00697636
0.0522901
0.00431686
0.0467909
0.00132822
0.0330543
0.0308585
0.0403966
0.0285192
0.00376018
0.0212181
0.0247903
0.0101941
0.016379
0.0488076
-0.0208467
0.0681
0.0353609
0.0359986
0.0306583
0.0338449
0.0332191
0.0320359
0.0485714
0.0577763
-0.0116258
0.055294
0.0498948
0.0720054
0.017104
0.00994678
0.0133268
0.0110434
0.00845512
0.00591443
0.0012839
4.9583e-05
0.0104101
0.000678128
0.0091454
0.0109958
0.0229202
0.0182443
0.00386036
0.00790348
0.0111911
-0.00184525
0.000906527
0.00374213
0.00586802
0.00019443
0.0135248
-0.000433628
0.00992402
0.037128
0.0420499
0.044914
0.0295112
0.0316514
0.0180152
0.0155468
0.00441915
0.0372442
0.0419972
0.0575506
0.0270897
0.0232095
0.0618119
0.0265394
0.0395332
-0.000742038
0.0585913
0.0493118
-0.0151398
-0.0165157
0.0429409
0.0346031
0.0393865
0.0345843
0.0397887
0.0351446
0.0588168
0.0380973
0.0272035
0.0477793
0.0190717
0.0335123
0.0499019
-0.00222158
0.0511764
-0.00483445
0.0393964
0.0350273
0.00384441
0.0394032
0.000294272
0.0481969
0.0135557
0.042205
0.0510884
0.0581147
-0.0100837
7.21112e-05
0.0493171
0.0401331
0.0526018
0.00914627
0.0229783
-0.00683217
0.0375323
0.0333865
0.00535535
0.0222294
0.0254927
0.00375494
0.0199679
0.019061
0.021245
0.0277521
0.07176
0.0641242
0.0606668
-0.0326022
0.0648804
0.0315769
0.0171412
0.0359103
0.0219975
0.0362016
0.0192252
0.0397425
0.0102587
0.0376948
0.0344619
-0.00343769
0.0163587
0.010599
-0.00464503
-0.00312339
0.0129771
-0.00118619
0.00794336
0.00701722
-0.00189166
0.00418968
0.00933934
0.00874498
-0.000880295
0.00757384
0.00674277
0.015159
0.00583523
0.0114963
0.0169239
0.00514278
-0.00105837
0.0016889
0.00236206
0.00780869
0.00325265
0.0424296
-0.00232801
0.0450968
0.0433981
-0.0136486
0.0444795
0.0194951
-0.0146858
0.0352104
0.00307344
0.00194711
0.0362966
0.0336261
0.00885641
0.0572228
0.0573389
0.0368481
0.0252725
-0.0129122
0.0527068
0.045948
0.00405753
0.0391676
0.0388842
-0.00219347
0.0418168
-0.0161364
0.0510912
0.0437349
-0.00365717
-0.012272
0.0476682
0.0469184
-0.0291159
0.0675902
-0.0167287
0.0448269
0.032198
-0.0165245
0.0512918
0.0344493
0.0434961
0.0139011
0.0376686
0.00167056
0.0383938
0.0395157
0.0404104
0.0151752
0.0339328
-5.84824e-05
0.0425036
0.0222019
0.0584019
0.0394766
0.0719086
0.02772
0.0250189
-0.0242674
0.0327102
-0.000381699
0.022857
0.0126781
0.0048532
0.0284924
0.0211754
0.014138
0.0101475
0.0074979
0.0115832
0.013292
0.00468234
0.035521
0.0327365
0.0582016
0.0137022
0.0423887
0.0218581
0.02831
0.0249574
0.040007
0.0531677
0.0583806
0.0591076
0.0480529
-0.0103844
0.0449384
0.0100342
0.0066559
0.00100703
0.00528113
0.00230758
0.00249744
0.00316009
-0.00308598
0.00669752
0.00142973
0.000800941
0.00625698
0.00237048
0.00293808
0.00304727
0.00120388
0.017645
-0.00296229
0.0120206
0.0142954
0.00041954
0.00677256
0.00147105
-0.0034512
0.0140605
0.00268615
0.0137378
0.029399
0.0546084
0.0580172
0.0479272
-0.0157959
0.0373554
0.0215197
0.0207007
0.0667496
0.0131727
0.044331
0.0297051
0.0280941
0.0503074
0.0553652
0.0308321
0.0219916
0.00992954
0.0362213
-0.00217409
0.041725
0.0411726
0.0418094
0.0260114
0.0493851
0.0443512
0.0495025
-0.00229896
0.052224
0.0156075
0.0483097
0.031174
0.0210859
-0.00790519
0.0432815
0.0406428
0.00393941
0.00281999
0.0355165
-0.00622363
0.0452287
0.0338352
-0.00115867
0.0423324
-0.00314285
0.0376227
0.0649414
0.0461325
0.0123582
0.06733
0.0262467
0.0458255
0.0514154
0.0150339
0.0169876
0.010427
0.0117273
0.0410354
0.00815009
0.0122179
0.0212543
0.0166924
0.0154722
0.0113838
0.0243143
0.0445026
0.0479294
0.0562355
0.0468976
0.0593595
0.00420775
0.0357893
-0.00336098
0.0565715
0.0550766
0.0575331
0.00154443
0.000858118
0.0471952
0.0457993
-0.000923902
0.00790266
0.00243025
-0.00413102
-0.00415972
0.00613306
-0.00308881
0.00241467
0.00221283
-0.00407605
0.00418122
-0.00409838
-0.00403912
0.00588205
-0.00361202
0.00415184
0.00611428
0.00375864
-0.00420553
0.00198813
0.0145722
0.00138243
0.00938705
0.00977363
-0.000683621
0.0131699
0.00250834
0.000323187
0.000786442
0.00734383
0.0136928
0.0413165
0.072347
0.00269341
0.0466712
0.0325271
0.00596177
0.0282801
-0.00452649
0.0201638
0.00328223
0.0187542
0.0487252
0.0544954
0.0698697
-0.00166979
0.0521455
0.053888
0.0583755
0.010623
0.0315809
0.0523756
0.0312779
0.0106986
0.0575104
0.0169074
0.0327949
-0.000694948
0.045276
0.0490834
0.0502407
-0.0323082
0.0480758
0.0288761
0.0202407
0.0344634
-0.0160046
0.0379009
0.0335554
0.0282195
0.033539
0.00800064
0.027748
0.0294146
0.0166232
0.0332906
0.0397973
0.0185732
0.0197518
0.0327857
0.0158292
0.0303648
-0.0299453
0.0423935
0.0374921
0.033987
0.0118812
0.00298491
0.0483948
0.0248631
-0.00509432
0.0215966
0.0232345
0.0267269
0.0137865
0.0119726
0.00819903
0.00234903
0.0133033
0.0166785
0.032646
0.0150671
0.0289254
0.0470076
0.000847114
0.0411544
0.0150357
0.0056137
0.0411918
0.0433658
0.0160098
0.0475692
0.04133
0.0316147
0.0249989
0.0277279
0.0273002
0.0308074
0.0265777
0.0487161
0.000364995
0.045312
0.00599042
0.00132927
-0.00312648
-0.00090418
-0.00506878
-0.00414287
0.000790635
-0.00774789
-0.00616171
0.00050703
0.00426826
0.00393637
-0.000354621
0.000898047
0.00346769
-0.00250079
0.00370179
-0.00294119
0.0164873
0.00894519
-0.00158914
0.00594613
0.0112714
-3.42366e-05
0.00248021
0.000479647
0.00824827
0.00252221
0.0121608
0.0605258
0.0365342
0.0664025
0.0356148
0.017943
0.014314
0.0614063
0.017297
0.0371871
0.0144023
0.0553493
0.0695497
0.0681946
0.0355223
0.0229381
0.0487593
0.020484
0.0326112
0.0562108
0.00806421
0.049587
-0.0108771
0.0438771
-0.000485912
0.0496289
0.0456174
0.00468977
0.0458005
0.0023159
0.0394602
0.0285612
0.00662459
0.0201531
0.0185096
-0.00351484
0.0379626
-0.00672247
0.035828
-0.00223722
0.0365007
0.00479188
0.0231364
0.0506125
0.0505999
0.0202065
0.0201167
0.0404471
0.0486901
-0.0251194
0.0554778
0.0172415
-0.0026226
0.040095
0.0369575
0.0435501
0.0457558
0.0183483
0.00602634
0.0212379
0.0143279
0.00695923
0.00863461
0.0134882
0.0287384
0.0195077
0.0201777
0.00210785
0.0306752
0.00374238
0.0253367
0.0472552
0.0419386
0.0561709
0.0516106
0.0256945
0.0217149
0.0668592
0.0527161
0.0580211
-0.0403407
0.066747
0.00819401
0.053309
0.0037993
-0.000547768
0.00253136
-0.00195127
-0.00448764
-0.00282843
-0.00123441
-0.000990641
-0.00781573
-0.00513641
-0.000830124
-0.00113992
-0.0077936
0.00189328
-0.0106712
0.00339669
0.00377085
0.00168365
-0.000991723
0.00275755
0.000144096
-0.00425256
-0.000736239
0.0121175
0.00258659
0.00770593
0.00590994
-0.00289024
0.0104385
0.00165477
0.0065246
0.016159
0.0442611
-0.018916
0.0568373
0.0287031
0.0376016
0.0179731
-0.00769197
0.0275839
0.00826409
0.0213595
0.0398902
0.0601198
0.0714929
0.00808643
0.0611052
0.0758755
0.018444
0.0305947
0.0513974
0.0311065
0.0251752
0.0392596
0.038939
0.0153751
0.0286212
0.0452095
0.0151138
0.0345401
0.0505785
0.0510628
0.0380073
0.033588
0.027272
-0.00900277
0.0281389
0.0338151
0.0321594
0.0276081
0.0253113
0.0176606
0.0332985
0.019613
0.0318478
0.0403811
0.0031693
0.0379787
0.0165343
0.0387938
0.0572904
-0.013636
0.0505183
0.0298429
-0.011261
0.0568187
0.00646812
0.0112276
0.0200624
0.0160603
0.004726
0.0228029
0.0188371
0.0138829
0.0145708
0.00754519
0.0111102
0.012066
0.0066007
0.0190775
0.0116008
0.0228862
0.00615054
0.018997
0.0530548
-0.00610526
-0.0125828
0.0543304
0.0433555
0.0473401
0.00404095
0.0688333
0.0217569
0.0446806
0.0226012
0.0299028
0.0165895
0.0411506
0.0294983
0.0368282
0.00154557
0.0514615
-0.0037197
-3.89711e-05
-0.00319579
-0.00596711
-0.00807986
-0.00811952
-0.00779052
-0.00694487
-0.000680641
-0.00833432
-0.0117222
-0.00041794
0.000114898
0.00259322
0.000379697
0.00250257
0.000392168
0.001296
0.0015018
-0.00267221
0.00312467
-0.00547054
0.0131127
0.00746268
-0.00186534
-0.000884502
0.00241779
0.00958836
-0.00099756
0.00104016
0.0040885
0.00473212
0.0655388
0.0193842
0.0374283
0.0482437
0.0773366
-0.0174617
0.0371098
0.0114639
0.014245
0.0638441
0.0191451
0.0516648
-0.0012923
0.0616782
0.0465603
0.0283424
0.0460949
0.0133057
0.0380828
0.040317
-0.00517668
0.0443824
0.000203699
0.0387381
-0.00864936
0.0372455
0.00388252
0.0412814
-0.00355519
0.0380511
0.0420174
0.00846158
0.0112065
0.0397494
-7.98083e-06
0.0389612
0.0190816
0.0146329
-0.00137452
0.029225
0.0273078
-0.00226564
0.0371578
0.000334813
0.0326259
-0.00764333
0.0361694
0.0166521
0.00890284
0.0498053
0.046615
0.0442602
0.0388709
-0.0261059
0.0425157
0.0498854
0.0309753
0.0390627
0.052263
0.00789306
0.0486037
-0.00790298
0.0190382
0.0123026
0.0183805
0.0152813
0.00711906
0.0130039
0.00506279
0.0206632
0.0132555
-0.000711865
0.0110538
0.0283874
-0.00103849
0.0238096
-0.00174059
0.0206288
0.0542924
0.0478922
0.0647577
0.037246
0.0306537
0.0811759
0.0462711
0.00380864
0.0370054
-0.018263
0.0473431
0.0402955
0.0327316
0.000890821
-0.00395089
-0.00581068
0.000340417
-0.00943379
0.00201977
-0.0129214
-0.0148066
0.00442849
-0.00282183
-0.00595197
-0.00408089
-0.00340252
-0.0132877
-0.0119299
-0.0163053
0.00217815
0.00201568
-0.00116487
0.00141331
-0.0010112
-0.000945346
-0.00334349
-0.0028476
0.00800763
0.00399432
0.00582971
-0.00142608
-0.00215927
0.00303924
-0.00312218
0.00583847
0.00056342
0.00644481
0.000583537
0.0841329
0.0305328
0.00669407
0.00583789
0.0414922
0.024351
0.0517564
0.0283335
0.00888143
-0.0113958
0.0245508
0.00423407
0.0618384
0.096952
0.0891861
0.00921133
0.0368844
-0.000131539
0.0383204
0.035098
0.0445988
0.0300585
0.0464463
0.045858
0.0376917
0.0156821
0.0222353
0.0481278
0.0378285
0.0282556
-0.0163341
0.0313067
0.01317
0.00196698
0.0259429
0.0383788
0.025829
0.0388527
0.0261028
0.0240825
0.0142333
0.0325144
0.00978049
0.0351319
0.00367302
0.0358943
0.00487953
0.0372414
0.0151703
0.03451
0.0386476
-0.0220574
0.0607938
0.029911
0.0369546
0.011392
0.00738156
0.0109192
-0.00527918
0.0178639
-0.00142676
0.0195743
0.0102518
-0.00750256
0.0144352
0.0114878
0.0118279
0.0190447
-0.000357271
0.0127472
0.010022
0.0271571
0.0219136
0.0114833
0.00882024
0.0258076
0.0279157
-0.0113487
0.0588422
0.0529367
0.0913448
-0.00814382
0.0876805
0.018365
0.0274225
0.0549424
0.00897332
0.0378276
0.0487747
0.0580531
0.00010377
-0.00640376
-0.00837324
-0.0097198
-0.0102947
-0.0106346
-0.00743729
-0.0148003
0.000860919
0.00103321
-0.0135964
-0.0179854
0.00055059
0.000447717
0.00131895
0.000743187
0.000563437
0.00104402
-0.00210402
0.000361786
-0.00381921
0.0031397
-0.00669704
-0.00458408
0.00774878
0.00489364
-0.000667422
-0.00340071
-0.00164795
9.32481e-05
-0.00505306
0.00950289
0.000614968
0.0121958
0.00339544
0.0266265
0.0558042
0.0356982
0.0348649
0.0647065
0.0767254
-0.0136117
0.0228739
0.0113779
0.0271027
0.0677065
-0.00558956
0.0932706
0.03684
0.0136096
0.0248182
0.0506146
0.02202
0.0224362
0.0519568
0.016867
0.0293163
0.0130568
0.0325618
0.024878
0.012643
0.0469448
0.0107162
0.0371126
-0.00111132
0.039694
-0.000162261
0.0288707
0.031496
0.0392011
0.0200038
0.0193093
0.0466249
0.0294142
0.0105231
0.0363296
0.0384093
0.0462926
0.0394713
0.035478
0.04318
0.0521174
0.0449691
0.0295116
0.0308629
0.0568656
0.00761127
0.0290895
0.0406423