/*--------------------------------*- C++ -*----------------------------------*\
| =========                 |                                                 |
| \\      /  F ield         | OpenFOAM: The Open Source CFD Toolbox           |
|  \\    /   O peration     | Version:  v2012                                 |
|   \\  /    A nd           | Website:  www.openfoam.com                      |
|    \\/     M anipulation  |                                                 |
\*---------------------------------------------------------------------------*/
FoamFile
{
    version     2.0;
    format      ascii;
    class       pointVectorField;
    location    "0.85";
    object      pointDisplacement;
}
// * * * * * * * * * * * * * * * * * * * * * * * * * * * * * * * * * * * * * //

dimensions      [0 1 0 0 0 0 0];


internalField   nonuniform List<vector> 
14482
(
(0 0 0)
(0 0 0)
(0 0 0)
(0 0 0)
(0 0 0)
(0 0 0)
(0 0 0)
(0 0 0)
(0 0 0)
(0 0 0)
(0 0 0)
(0 0 0)
(0 0 0)
(0 0 0)
(0 0 0)
(0 0 0)
(0 0 0)
(0 0 0)
(0 0 0)
(0 0 0)
(0 0 0)
(0 0 0)
(0 0 0)
(0 0 0)
(0 0 0)
(0 0 0)
(0 0 0)
(0 0 0)
(0 0 0)
(0 0 0)
(0 0 0)
(0 0 0)
(0 0 0)
(0 0 0)
(0 0 0)
(0 0 0)
(0 0 0)
(0 0 0)
(0 0 0)
(0 0 0)
(0 0 0)
(0 0 0)
(0 0 0)
(0 0 0)
(0 0 0)
(0 0 0)
(0 0 0)
(0 0 0)
(0 0 0)
(0 0 0)
(0 0 0)
(0 0 0)
(0 0 0)
(0 0 0)
(0 0 0)
(0 0 0)
(0 0 0)
(0 0 0)
(0 0 0)
(0 0 0)
(0 0 0)
(0 0 0)
(0 0 0)
(0 0 0)
(0 0 0)
(0 0 0)
(0 0 0)
(0 0 0)
(0 0 0)
(0 0 0)
(0 0 0)
(0 0 0)
(0 0 0)
(0 0 0)
(0 0 0)
(0 0 0)
(0 0 0)
(0 0 0)
(0 0 0)
(0 0 0)
(0 0 0)
(0 0 0)
(0 0 0)
(0.102961 -0.202187 0)
(0.103177 -0.202022 0)
(0.103411 -0.201845 0)
(0.103663 -0.201654 0)
(0.103934 -0.201448 0)
(0.104225 -0.201227 0)
(0.10454 -0.200988 0)
(0.104878 -0.200732 0)
(0.105242 -0.200455 0)
(0.105635 -0.200158 0)
(0.106057 -0.199837 0)
(0.106511 -0.199492 0)
(0.107001 -0.199121 0)
(0.107426 -0.198618 0)
(0.107875 -0.198066 0)
(0.108358 -0.197472 0)
(0.108818 -0.19679 0)
(0.109297 -0.196045 0)
(0.109763 -0.195215 0)
(0.110237 -0.194307 0)
(0.110692 -0.193304 0)
(0.111134 -0.192206 0)
(0.11156 -0.191007 0)
(0.111965 -0.189701 0)
(0.112346 -0.188281 0)
(0.112689 -0.186741 0)
(0.113 -0.185075 0)
(0.113269 -0.183275 0)
(0.113494 -0.181336 0)
(0.113667 -0.179248 0)
(0.113783 -0.177004 0)
(0.113839 -0.174595 0)
(0.113828 -0.172013 0)
(0.113743 -0.169248 0)
(0.113579 -0.16629 0)
(0.113328 -0.163129 0)
(0.112984 -0.159755 0)
(0.112539 -0.156156 0)
(0.111985 -0.15232 0)
(0.111315 -0.148237 0)
(0.110519 -0.143893 0)
(0.109588 -0.139276 0)
(0.108513 -0.134374 0)
(0.107284 -0.129173 0)
(0.10589 -0.123662 0)
(0.104321 -0.117826 0)
(0.102565 -0.111655 0)
(0.100612 -0.105135 0)
(0.0984505 -0.0982547 0)
(0.0960686 -0.0910031 0)
(0.0934549 -0.0833695 0)
(0.0905987 -0.0753451 0)
(0.0874882 -0.0669205 0)
(0.0841137 -0.0580897 0)
(0.0804647 -0.0488465 0)
(0.0765324 -0.0391875 0)
(0.072308 -0.0291099 0)
(0.0677856 -0.0186158 0)
(0.0629584 -0.00770556 0)
(0.0578228 0.00361495 0)
(0.0523764 0.0153384 0)
(0.046619 0.0274544 0)
(0.0405519 0.0399505 0)
(0.0341798 0.0528097 0)
(0.0275085 0.0660145 0)
(0.0205474 0.0795423 0)
(0.0133079 0.0933683 0)
(0.00580325 0.107467 0)
(-0.00194901 0.121806 0)
(-0.00993107 0.136354 0)
(-0.0181215 0.151078 0)
(-0.0264975 0.165941 0)
(-0.0350339 0.180904 0)
(-0.0437051 0.19593 0)
(-0.0524826 0.210977 0)
(-0.0613392 0.226007 0)
(-0.0702451 0.240979 0)
(-0.0791724 0.255854 0)
(-0.0880916 0.270593 0)
(-0.0969744 0.285157 0)
(-0.105794 0.299513 0)
(-0.114524 0.313626 0)
(-0.12314 0.327464 0)
(-0.131617 0.340999 0)
(-0.139936 0.354203 0)
(-0.148078 0.367056 0)
(-0.156023 0.379536 0)
(-0.163757 0.391625 0)
(-0.171268 0.40331 0)
(-0.178544 0.41458 0)
(-0.185576 0.425426 0)
(-0.192358 0.435845 0)
(-0.198883 0.445832 0)
(-0.205151 0.455388 0)
(-0.211158 0.464515 0)
(-0.216904 0.473218 0)
(-0.222393 0.481503 0)
(-0.227625 0.489377 0)
(-0.232605 0.496849 0)
(-0.237338 0.503931 0)
(-0.24183 0.510634 0)
(-0.246086 0.516969 0)
(-0.250115 0.522951 0)
(-0.253923 0.528593 0)
(-0.257519 0.533906 0)
(-0.26091 0.538909 0)
(-0.264104 0.543611 0)
(-0.267111 0.548029 0)
(-0.269939 0.552176 0)
(-0.272595 0.556065 0)
(-0.275088 0.55971 0)
(-0.277427 0.563124 0)
(-0.279619 0.566319 0)
(-0.281673 0.569308 0)
(-0.283595 0.572103 0)
(-0.285394 0.574714 0)
(-0.287076 0.577153 0)
(-0.288647 0.57943 0)
(-0.290115 0.581554 0)
(-0.291485 0.583536 0)
(-0.292764 0.585384 0)
(-0.293957 0.587106 0)
(-0.29507 0.588712 0)
(-0.296107 0.590206 0)
(-0.297074 0.591598 0)
(-0.297974 0.592895 0)
(-0.298813 0.594102 0)
(-0.299594 0.595225 0)
(-0.300321 0.596269 0)
(-0.300997 0.597241 0)
(-0.301627 0.598145 0)
(-0.302212 0.598986 0)
(-0.302757 0.599767 0)
(-0.303263 0.600494 0)
(-0.303734 0.601168 0)
(-0.304172 0.601797 0)
(-0.304579 0.60238 0)
(-0.304958 0.602922 0)
(-0.305309 0.603425 0)
(-0.305636 0.603893 0)
(-0.305939 0.604327 0)
(-0.306221 0.604731 0)
(-0.306483 0.605106 0)
(-0.306727 0.605454 0)
(-0.306952 0.605777 0)
(-0.307162 0.606077 0)
(-0.307357 0.606356 0)
(-0.307538 0.606615 0)
(-0.307707 0.606855 0)
(-0.307863 0.607078 0)
(-0.308105 0.606955 0)
(-0.30832 0.606846 0)
(-0.308516 0.606746 0)
(-0.308701 0.606651 0)
(-0.308882 0.60656 0)
(-0.309062 0.606468 0)
(-0.309247 0.606373 0)
(-0.309443 0.606273 0)
(-0.309658 0.606164 0)
(-0.309901 0.606041 0)
(-0.309812 0.605783 0)
(-0.309716 0.605506 0)
(-0.309613 0.605207 0)
(-0.309503 0.604886 0)
(-0.309383 0.604539 0)
(-0.309255 0.604167 0)
(-0.309117 0.603765 0)
(-0.308967 0.603332 0)
(-0.308807 0.602867 0)
(-0.308634 0.602366 0)
(-0.308448 0.601827 0)
(-0.308247 0.601246 0)
(-0.308032 0.600622 0)
(-0.307799 0.59995 0)
(-0.307549 0.599226 0)
(-0.30728 0.598448 0)
(-0.30699 0.597611 0)
(-0.306679 0.596711 0)
(-0.306343 0.595743 0)
(-0.305982 0.594702 0)
(-0.305594 0.593584 0)
(-0.305177 0.592382 0)
(-0.304728 0.59109 0)
(-0.304245 0.589701 0)
(-0.303727 0.58821 0)
(-0.303169 0.58661 0)
(-0.30257 0.584892 0)
(-0.301926 0.583048 0)
(-0.301235 0.58107 0)
(-0.300493 0.578949 0)
(-0.299696 0.576675 0)
(-0.298842 0.574238 0)
(-0.297925 0.571629 0)
(-0.296941 0.568834 0)
(-0.295887 0.565843 0)
(-0.294758 0.562645 0)
(-0.293548 0.559226 0)
(-0.292253 0.555574 0)
(-0.290868 0.551674 0)
(-0.289387 0.547514 0)
(-0.287804 0.543078 0)
(-0.286113 0.538353 0)
(-0.284308 0.533322 0)
(-0.282384 0.527973 0)
(-0.280333 0.522288 0)
(-0.27815 0.516255 0)
(-0.275828 0.509858 0)
(-0.273359 0.503081 0)
(-0.270739 0.495912 0)
(-0.26796 0.488337 0)
(-0.265016 0.480344 0)
(-0.261902 0.471922 0)
(-0.258612 0.463059 0)
(-0.255139 0.453747 0)
(-0.251481 0.443981 0)
(-0.247632 0.433755 0)
(-0.24359 0.423066 0)
(-0.239351 0.411914 0)
(-0.234914 0.400302 0)
(-0.230278 0.388235 0)
(-0.225443 0.375723 0)
(-0.22041 0.362775 0)
(-0.215182 0.34941 0)
(-0.209762 0.335644 0)
(-0.204156 0.321501 0)
(-0.198369 0.307006 0)
(-0.19241 0.292189 0)
(-0.186285 0.277082 0)
(-0.180006 0.261721 0)
(-0.173584 0.246145 0)
(-0.167029 0.230395 0)
(-0.160355 0.214513 0)
(-0.153575 0.198544 0)
(-0.146705 0.182536 0)
(-0.139759 0.166533 0)
(-0.132752 0.150584 0)
(-0.1257 0.134734 0)
(-0.118619 0.119029 0)
(-0.111526 0.103514 0)
(-0.104435 0.0882296 0)
(-0.0973634 0.0732171 0)
(-0.0903264 0.058514 0)
(-0.0833384 0.0441525 0)
(-0.0764146 0.0301658 0)
(-0.0695683 0.0165795 0)
(-0.0628128 0.0034176 0)
(-0.0561607 -0.009299 0)
(-0.0496229 -0.0215554 0)
(-0.0432104 -0.0333378 0)
(-0.0369325 -0.0446378 0)
(-0.0307976 -0.0554494 0)
(-0.0248132 -0.0657704 0)
(-0.018986 -0.0756001 0)
(-0.0133204 -0.0849437 0)
(-0.00782155 -0.093805 0)
(-0.00249235 -0.102193 0)
(0.00266483 -0.110116 0)
(0.00764869 -0.117586 0)
(0.0124585 -0.124616 0)
(0.0170949 -0.131219 0)
(0.0215586 -0.137411 0)
(0.0258515 -0.143206 0)
(0.0299758 -0.14862 0)
(0.0339345 -0.153669 0)
(0.0377308 -0.158371 0)
(0.0413684 -0.16274 0)
(0.0448512 -0.166793 0)
(0.0481837 -0.170545 0)
(0.0513701 -0.174014 0)
(0.054415 -0.177212 0)
(0.0573235 -0.180156 0)
(0.0600998 -0.18286 0)
(0.0627489 -0.185336 0)
(0.0652754 -0.187599 0)
(0.067684 -0.189661 0)
(0.0699792 -0.191534 0)
(0.0721658 -0.193228 0)
(0.0742476 -0.194756 0)
(0.0762284 -0.196128 0)
(0.0781119 -0.197354 0)
(0.0799024 -0.198441 0)
(0.0816034 -0.199401 0)
(0.0832168 -0.200241 0)
(0.0847471 -0.20097 0)
(0.0861949 -0.201598 0)
(0.0875664 -0.202125 0)
(0.0888611 -0.202566 0)
(0.0900815 -0.202926 0)
(0.0912296 -0.203215 0)
(0.0923085 -0.203437 0)
(0.0933216 -0.203587 0)
(0.094267 -0.203699 0)
(0.0951512 -0.203749 0)
(0.0959732 -0.203779 0)
(0.0967374 -0.203738 0)
(0.0974476 -0.203699 0)
(0.0981053 -0.203651 0)
(0.0986933 -0.203474 0)
(0.0992395 -0.203309 0)
(0.0997469 -0.203156 0)
(0.100218 -0.203014 0)
(0.100656 -0.202882 0)
(0.101063 -0.202759 0)
(0.10144 -0.202645 0)
(0.101791 -0.202539 0)
(0.102117 -0.202441 0)
(0.102419 -0.20235 0)
(0.1027 -0.202265 0)
(-0.0888123 0.216601 0)
(-0.104128 0.245439 0)
(-0.102265 0.23945 0)
(-0.122745 0.271484 0)
(-0.109599 0.247711 0)
(-0.10711 0.245739 0)
(-0.15173 0.307142 0)
(-0.147339 0.301697 0)
(-0.160857 0.322696 0)
(-0.0608717 0.156585 0)
(-0.0483196 0.135124 0)
(-0.060843 0.159317 0)
(-0.0708564 0.210741 0)
(-0.0636016 0.201395 0)
(-0.0849864 0.23921 0)
(-0.057545 0.158647 0)
(-0.0474937 0.14365 0)
(-0.062813 0.170889 0)
(-0.193567 0.397007 0)
(-0.193643 0.398826 0)
(-0.20515 0.415762 0)
(-0.173293 0.363048 0)
(-0.167608 0.356198 0)
(-0.182461 0.378706 0)
(-0.203624 0.395518 0)
(-0.220657 0.421435 0)
(-0.213991 0.408969 0)
(-0.106037 0.231965 0)
(-0.11435 0.246979 0)
(-0.112982 0.243291 0)
(-0.0355809 0.11376 0)
(-0.028296 0.104602 0)
(-0.0434188 0.131927 0)
(-0.0504242 0.174331 0)
(-0.0491011 0.177057 0)
(-0.133945 0.31776 0)
(-0.122779 0.296359 0)
(-0.111523 0.279897 0)
(-0.0304618 0.119121 0)
(-0.0145626 0.0898394 0)
(-0.0235754 0.110008 0)
(-0.212511 0.428477 0)
(-0.224193 0.445949 0)
(-0.218133 0.435428 0)
(-0.208625 0.412796 0)
(-0.220844 0.432271 0)
(-0.217531 0.425144 0)
(-0.15246 0.318448 0)
(-0.155637 0.321222 0)
(-0.142202 0.299664 0)
(-0.0954917 0.202806 0)
(-0.0974069 0.205141 0)
(-0.091244 0.19454 0)
(-0.0348626 0.0963642 0)
(-0.0441615 0.115451 0)
(-0.0416343 0.107652 0)
(-0.0523088 0.129682 0)
(-0.0206905 0.0721478 0)
(-0.0159689 0.0598523 0)
(-0.0136711 0.058113 0)
(-0.00338751 0.0885286 0)
(-0.0102905 0.0986237 0)
(0.00186492 0.0727799 0)
(-0.044646 0.180966 0)
(-0.0558816 0.199721 0)
(-0.0418846 0.171663 0)
(-0.174504 0.393209 0)
(-0.18347 0.405337 0)
(-0.168994 0.382041 0)
(-0.0014288 0.0372822 0)
(0.00644349 0.0229126 0)
(-0.00140154 0.0417156 0)
(0.0378506 -0.0156939 0)
(0.0385972 -0.0117036 0)
(0.0321866 -0.000835453 0)
(-0.25081 0.488953 0)
(-0.246523 0.483653 0)
(-0.252891 0.493045 0)
(-0.27174 0.521749 0)
(-0.27714 0.529899 0)
(-0.272789 0.522899 0)
(-0.264008 0.496768 0)
(-0.260145 0.493151 0)
(-0.272014 0.509653 0)
(-0.308444 0.560152 0)
(-0.301338 0.551082 0)
(-0.310929 0.566108 0)
(-0.261528 0.480933 0)
(-0.264803 0.487945 0)
(-0.271546 0.496294 0)
(-0.212104 0.386933 0)
(-0.20734 0.382729 0)
(-0.217575 0.397374 0)
(-0.190346 0.362596 0)
(-0.190802 0.360226 0)
(-0.18272 0.349697 0)
(-0.124506 0.256522 0)
(-0.118431 0.247596 0)
(-0.127918 0.263275 0)
(-0.0616533 0.146419 0)
(-0.0728906 0.166621 0)
(-0.0621607 0.145416 0)
(-0.0224558 0.0631163 0)
(-0.0286722 0.0767971 0)
(-0.0249078 0.0671196 0)
(-0.0106168 0.0437258 0)
(-0.0155137 0.0535467 0)
(-0.0116996 0.0430476 0)
(0.00311444 0.0127095 0)
(-0.00179474 0.0226407 0)
(0.000397977 0.0130994 0)
(-0.00428405 0.101232 0)
(0.0125926 0.0708225 0)
(-0.00227693 0.103785 0)
(-0.137857 0.338604 0)
(-0.121115 0.310757 0)
(-0.129519 0.32704 0)
(-0.0194503 0.135998 0)
(-0.0351043 0.168638 0)
(-0.0353322 0.165827 0)
(-0.154743 0.360733 0)
(-0.133356 0.326635 0)
(-0.145841 0.349256 0)
(-0.212479 0.443834 0)
(-0.223076 0.462263 0)
(-0.22647 0.464754 0)
(0.051505 -0.0618401 0)
(0.0469056 -0.0582676 0)
(0.0531556 -0.0684855 0)
(0.0699674 -0.0764707 0)
(0.0715553 -0.0711298 0)
(0.0656753 -0.0614131 0)
(-0.246923 0.48909 0)
(-0.251655 0.498106 0)
(-0.253825 0.499593 0)
(-0.233868 0.478775 0)
(-0.231969 0.478088 0)
(-0.293281 0.548772 0)
(-0.303513 0.565622 0)
(-0.301937 0.561269 0)
(-0.327889 0.591664 0)
(-0.323601 0.588769 0)
(-0.328028 0.59472 0)
(-0.254338 0.464523 0)
(-0.257507 0.47233 0)
(-0.263518 0.479086 0)
(-0.218752 0.404146 0)
(-0.230517 0.422731 0)
(-0.22509 0.410908 0)
(-0.16701 0.30584 0)
(-0.165343 0.298152 0)
(-0.154205 0.283341 0)
(-0.116586 0.237157 0)
(-0.11341 0.232966 0)
(-0.11952 0.243153 0)
(-0.0789203 0.171737 0)
(-0.0793827 0.171752 0)
(-0.0760475 0.165904 0)
(-0.0528015 0.123202 0)
(-0.0483649 0.115409 0)
(-0.0559089 0.130569 0)
(-0.063038 0.145223 0)
(-0.0547507 0.129752 0)
(-0.0271277 0.076988 0)
(-0.0329291 0.0902199 0)
(-0.0334715 0.0890009 0)
(-0.00868213 0.0246355 0)
(-0.00928587 0.0294232 0)
(-0.00969799 0.0291653 0)
(-0.0266272 0.0739729 0)
(0.0117375 0.0781199 0)
(-0.00205252 0.108321 0)
(0.0388556 0.0238014 0)
(0.0267943 0.0494404 0)
(0.0370136 0.0219978 0)
(-0.126958 0.328424 0)
(-0.127226 0.326995 0)
(-0.115249 0.307857 0)
(-0.0819864 0.257768 0)
(-0.0718673 0.240704 0)
(-0.0791211 0.253796 0)
(-0.145478 0.353379 0)
(-0.22137 0.462365 0)
(-0.2228 0.467804 0)
(-0.229733 0.476832 0)
(0.08133 -0.11907 0)
(0.0770668 -0.116995 0)
(0.0813783 -0.126266 0)
(0.0641876 -0.0741064 0)
(0.0664407 -0.0840108 0)
(0.0697662 -0.0844121 0)
(0.0794025 -0.107838 0)
(0.0847752 -0.114558 0)
(0.0813654 -0.103197 0)
(-0.268463 0.533723 0)
(-0.271469 0.53639 0)
(-0.26442 0.524538 0)
(-0.263777 0.512803 0)
(-0.265324 0.516784 0)
(-0.268084 0.520502 0)
(-0.260527 0.52379 0)
(-0.25413 0.51524 0)
(-0.260479 0.526557 0)
(-0.255822 0.495453 0)
(-0.26471 0.508677 0)
(-0.260254 0.501308 0)
(-0.318596 0.60734 0)
(-0.317404 0.602923 0)
(-0.318819 0.60684 0)
(-0.325165 0.585431 0)
(-0.326761 0.584274 0)
(-0.321914 0.578653 0)
(-0.295356 0.521974 0)
(-0.292803 0.51359 0)
(-0.286599 0.507241 0)
(-0.247381 0.428365 0)
(-0.253248 0.441784 0)
(-0.255811 0.443117 0)
(-0.214007 0.386956 0)
(-0.220162 0.393861 0)
(-0.209366 0.3768 0)
(-0.224666 0.407169 0)
(-0.219718 0.397497 0)
(-0.167339 0.310403 0)
(-0.176914 0.324007 0)
(-0.126049 0.240551 0)
(-0.116861 0.226057 0)
(-0.121642 0.235958 0)
(-0.0753996 0.163919 0)
(-0.0719953 0.158164 0)
(-0.0413462 0.10207 0)
(-0.0399569 0.0971268 0)
(-0.071447 0.158462 0)
(-0.0655622 0.146703 0)
(-0.0674281 0.151509 0)
(-0.0201458 0.0554585 0)
(-0.0161148 0.0457328 0)
(-0.0173632 0.0503917 0)
(-0.00354915 0.022393 0)
(-0.00798733 0.0245748 0)
(-0.0134497 0.0396375 0)
(-0.0109158 0.0315185 0)
(-0.0106124 0.0314558 0)
(0.0152256 -0.0324698 0)
(0.0123108 -0.0328868 0)
(0.0197517 -0.0409836 0)
(0.0233365 0.0621044 0)
(0.00984712 0.0870114 0)
(0.0102508 0.0908963 0)
(0.0210306 0.0702896 0)
(0.0754611 -0.0569145 0)
(0.0704533 -0.0515985 0)
(0.0786656 -0.072969 0)
(-0.136559 0.344471 0)
(-0.131948 0.337923 0)
(-0.137739 0.347716 0)
(-0.136749 0.341361 0)
(-0.105603 0.296884 0)
(-0.0967857 0.281556 0)
(-0.0972863 0.28349 0)
(-0.0654054 0.230233 0)
(-0.0620342 0.223577 0)
(-0.162463 0.382324 0)
(-0.172029 0.39837 0)
(-0.167316 0.388517 0)
(-0.195308 0.436268 0)
(-0.188758 0.426546 0)
(-0.193457 0.434779 0)
(-0.220548 0.467137 0)
(-0.230054 0.481639 0)
(-0.235087 0.492047 0)
(-0.241396 0.501709 0)
(-0.239191 0.49613 0)
(0.0239778 -0.0371473 0)
(0.0210097 -0.0279179 0)
(0.0189627 -0.0302241 0)
(0.0593376 -0.0874411 0)
(0.0603956 -0.0965034 0)
(0.0665226 -0.103091 0)
(0.0659765 -0.0942839 0)
(0.0694171 -0.0947963 0)
(0.0652069 -0.0872431 0)
(0.0741301 -0.0961428 0)
(0.0709758 -0.0925422 0)
(0.0741314 -0.101892 0)
(-0.256713 0.512467 0)
(-0.246777 0.495854 0)
(-0.250666 0.504664 0)
(-0.27685 0.541013 0)
(-0.276004 0.541368 0)
(-0.279935 0.54962 0)
(-0.268931 0.523206 0)
(-0.262873 0.532955 0)
(-0.265831 0.53482 0)
(-0.30238 0.576525 0)
(-0.290178 0.55307 0)
(-0.300871 0.574107 0)
(-0.315904 0.605135 0)
(-0.31846 0.608837 0)
(-0.318487 0.609931 0)
(-0.31903 0.60908 0)
(-0.31836 0.571186 0)
(-0.315252 0.569859 0)
(-0.291732 0.526746 0)
(-0.300305 0.540132 0)
(-0.299195 0.535475 0)
(-0.300126 0.513359 0)
(-0.29425 0.50191 0)
(-0.302559 0.515358 0)
(-0.267519 0.46647 0)
(-0.263491 0.454615 0)
(-0.260248 0.454062 0)
(-0.18987 0.338335 0)
(-0.194885 0.342352 0)
(-0.186407 0.328081 0)
(-0.129659 0.242317 0)
(-0.117586 0.224301 0)
(-0.146763 0.261239 0)
(-0.144851 0.261716 0)
(-0.15603 0.279286 0)
(-0.0814257 0.169112 0)
(-0.0800893 0.167614 0)
(-0.0846375 0.175527 0)
(-0.0952244 0.192445 0)
(-0.0994128 0.198628 0)
(-0.093791 0.188761 0)
(-0.0628235 0.138483 0)
(-0.0639542 0.141386 0)
(-0.0663895 0.145613 0)
(-0.041857 0.105341 0)
(-0.0350237 0.0898265 0)
(-0.0454897 0.107303 0)
(-0.0542051 0.124717 0)
(-0.04715 0.10919 0)
(-0.0386258 0.0910979 0)
(-0.0362871 0.0874963 0)
(-0.0192705 0.0513586 0)
(-0.0242298 0.0639671 0)
(-0.0236063 0.0610856 0)
(-0.0134686 0.0201109 0)
(-0.00986804 0.0169789 0)
(-0.0119132 0.0202116 0)
(-0.0112887 0.0349934 0)
(-0.0142267 0.0442757 0)
(-0.00657147 0.0186366 0)
(-0.0083802 0.0200312 0)
(-0.00830124 0.0175542 0)
(-0.0132503 0.0373993 0)
(-0.0166336 0.0459185 0)
(-0.0145193 0.0396126 0)
(-0.00837502 0.00241686 0)
(-0.00678041 0.00442527 0)
(-0.0150568 0.0137378 0)
(-0.0377143 0.183343 0)
(-0.0290676 0.168072 0)
(-0.035486 0.179978 0)
(-0.00721432 0.127318 0)
(0.00449217 0.104827 0)
(-0.00154178 0.117818 0)
(0.0571798 -0.0138574 0)
(0.0667253 -0.0362973 0)
(0.0624776 -0.0207607 0)
(-0.141409 0.354374 0)
(-0.149189 0.366455 0)
(-0.144066 0.357374 0)
(-0.106411 0.294936 0)
(-0.111659 0.305183 0)
(-0.118163 0.314826 0)
(-0.0757423 0.244875 0)
(-0.0650895 0.225138 0)
(-0.0652593 0.227753 0)
(-0.0614218 0.224127 0)
(-0.0576913 0.216685 0)
(-0.183431 0.41879 0)
(-0.179316 0.413365 0)
(-0.186983 0.425147 0)
(-0.1697 0.396447 0)
(-0.171655 0.400947 0)
(-0.176698 0.407796 0)
(-0.182111 0.415069 0)
(-0.197256 0.43764 0)
(-0.201269 0.445323 0)
(-0.221421 0.474821 0)
(-0.226695 0.482795 0)
(-0.222421 0.474245 0)
(-0.224694 0.480885 0)
(-0.228923 0.487959 0)
(-0.236411 0.496677 0)
(-0.237101 0.499614 0)
(-0.241013 0.504807 0)
(-0.246164 0.512764 0)
(-0.243696 0.510358 0)
(-0.0126165 -0.0127153 0)
(-0.00264926 -0.0259821 0)
(-0.0101283 -0.0120498 0)
(0.032638 -0.0925407 0)
(0.0312128 -0.0946942 0)
(0.0386704 -0.10271 0)
(0.0709025 -0.12883 0)
(0.0641547 -0.121167 0)
(0.0654527 -0.126961 0)
(0.0975853 -0.136266 0)
(0.1011 -0.1416 0)
(0.0984988 -0.131481 0)
(-0.273658 0.552543 0)
(-0.273815 0.553914 0)
(-0.274348 0.555743 0)
(-0.282462 0.543775 0)
(-0.284683 0.547298 0)
(-0.282389 0.543356 0)
(-0.247913 0.517027 0)
(-0.250164 0.519145 0)
(-0.313149 0.601755 0)
(-0.313848 0.606371 0)
(-0.31461 0.606285 0)
(-0.311959 0.600532 0)
(-0.313851 0.605932 0)
(-0.312411 0.60135 0)
(-0.319525 0.610607 0)
(-0.319061 0.610551 0)
(-0.320684 0.610777 0)
(-0.314793 0.597558 0)
(-0.310181 0.591987 0)
(-0.314542 0.600609 0)
(-0.336304 0.612724 0)
(-0.341559 0.613624 0)
(-0.338998 0.612812 0)
(-0.343978 0.611465 0)
(-0.347178 0.61106 0)
(-0.344482 0.609276 0)
(-0.297712 0.507205 0)
(-0.295715 0.500189 0)
(-0.288933 0.487302 0)
(-0.235702 0.396646 0)
(-0.225787 0.373471 0)
(-0.223223 0.374317 0)
(-0.149098 0.261402 0)
(-0.163856 0.285566 0)
(-0.152145 0.262372 0)
(-0.137597 0.23181 0)
(-0.124315 0.210579 0)
(-0.133752 0.22875 0)
(-0.131563 0.240414 0)
(-0.120332 0.223231 0)
(-0.0679155 0.140983 0)
(-0.0701878 0.146294 0)
(-0.0718943 0.148621 0)
(-0.0682898 0.1437 0)
(-0.0658151 0.138075 0)
(-0.0638259 0.135202 0)
(-0.0284659 0.0726584 0)
(-0.032547 0.0806171 0)
(-0.0260487 0.0656793 0)
(-0.0290148 0.0712672 0)
(-0.031199 0.0749788 0)
(-0.0249859 0.060967 0)
(-0.0416891 0.0964822 0)
(-0.0228218 0.0569935 0)
(-0.00947916 0.0144502 0)
(-0.00481386 0.00853245 0)
(-0.00654624 0.0133453 0)
(-0.00991041 0.0188186 0)
(-0.0131381 0.0222474 0)
(-0.0101624 0.0202932 0)
(-0.00691826 0.0179171 0)
(-0.00735756 0.0172312 0)
(-0.00806304 0.0212485 0)
(-0.00881189 0.0187458 0)
(-0.00793599 0.0162826 0)
(-0.00659576 0.0179257 0)
(-0.0077246 0.0211277 0)
(-0.00798477 0.0224901 0)
(-0.0577191 0.0764665 0)
(-0.0699415 0.0970119 0)
(-0.0658978 0.0870222 0)
(-0.0216895 0.155397 0)
(-0.0186447 0.148841 0)
(-0.0191216 0.151282 0)
(-0.0269023 0.165103 0)
(0.00273896 0.110793 0)
(0.0114279 0.0944161 0)
(0.00651713 0.104582 0)
(-0.00271704 0.121703 0)
(0.0734415 -0.039563 0)
(0.071788 -0.0316536 0)
(0.0665058 -0.0206007 0)
(0.0476488 0.0237831 0)
(0.0445339 0.0297881 0)
(0.053458 0.010178 0)
(-0.0983925 0.279574 0)
(-0.0923435 0.271248 0)
(-0.106929 0.298219 0)
(-0.0534719 0.210052 0)
(-0.164917 0.389591 0)
(-0.156792 0.376004 0)
(-0.159956 0.382366 0)
(-0.200846 0.441584 0)
(-0.191592 0.427178 0)
(-0.234062 0.49623 0)
(-0.239236 0.503919 0)
(-0.215091 0.462245 0)
(-0.210415 0.456983 0)
(-0.217404 0.467653 0)
(-0.244059 0.507569 0)
(-0.0890647 0.125569 0)
(-0.100057 0.14196 0)
(-0.0831249 0.112126 0)
(0.0343617 -0.0904876 0)
(0.0313184 -0.0811995 0)
(0.0237206 -0.0748382 0)
(0.0478733 -0.124293 0)
(0.055656 -0.134885 0)
(0.0551544 -0.130668 0)
(0.0845094 -0.13978 0)
(0.0864374 -0.147088 0)
(0.0899636 -0.147269 0)
(0.0929127 -0.0851429 0)
(0.0920138 -0.0858093 0)
(0.0966948 -0.098681 0)
(0.102349 -0.137268 0)
(0.104661 -0.146837 0)
(-0.267922 0.541415 0)
(-0.272164 0.547767 0)
(-0.270352 0.542872 0)
(-0.274997 0.547567 0)
(-0.273139 0.546523 0)
(-0.275393 0.551682 0)
(-0.285672 0.556906 0)
(-0.287691 0.563018 0)
(-0.288154 0.562237 0)
(-0.288058 0.571587 0)
(-0.287335 0.567979 0)
(-0.287691 0.571263 0)
(-0.288188 0.556619 0)
(-0.287791 0.555171 0)
(-0.285919 0.551883 0)
(-0.285106 0.549545 0)
(-0.284858 0.547941 0)
(-0.282851 0.544818 0)
(-0.30891 0.594836 0)
(-0.308628 0.591963 0)
(-0.306693 0.587752 0)
(-0.318338 0.610215 0)
(-0.320149 0.610573 0)
(-0.331613 0.611096 0)
(-0.33395 0.610475 0)
(-0.330036 0.609713 0)
(-0.327597 0.611322 0)
(-0.326378 0.611251 0)
(-0.323763 0.610871 0)
(-0.346169 0.597468 0)
(-0.340832 0.588328 0)
(-0.343639 0.593633 0)
(-0.334597 0.59882 0)
(-0.331228 0.596961 0)
(-0.333678 0.600984 0)
(-0.315527 0.55469 0)
(-0.32132 0.562421 0)
(-0.317419 0.553796 0)
(-0.281809 0.47101 0)
(-0.276071 0.458249 0)
(-0.289177 0.485746 0)
(-0.30226 0.520313 0)
(-0.295315 0.505812 0)
(-0.219432 0.337119 0)
(-0.20959 0.314194 0)
(-0.199448 0.292905 0)
(-0.17032 0.260199 0)
(-0.178852 0.281744 0)
(-0.187885 0.295223 0)
(-0.164377 0.280696 0)
(-0.178471 0.303271 0)
(-0.16712 0.281029 0)
(-0.0849576 0.161585 0)
(-0.0982358 0.187363 0)
(-0.0952927 0.178718 0)
(-0.100082 0.180803 0)
(-0.111884 0.202748 0)
(-0.114956 0.204467 0)
(-0.0906917 0.176982 0)
(-0.0946987 0.186859 0)
(-0.0989911 0.191863 0)
(-0.0457376 0.099475 0)
(-0.0460059 0.099269 0)
(-0.0423544 0.0920461 0)
(-0.0805674 0.158801 0)
(-0.0758656 0.14851 0)
(-0.0711925 0.14143 0)
(-0.0503762 0.110044 0)
(-0.0473035 0.10429 0)
(-0.0501047 0.11031 0)
(-0.0452319 0.101857 0)
(-0.0413162 0.0930755 0)
(-0.0394684 0.0895564 0)
(-0.0323058 0.0766177 0)
(-0.0357474 0.0838382 0)
(-0.030541 0.071961 0)
(-0.0268121 0.0622921 0)
(-0.0307149 0.070706 0)
(-0.0270351 0.0624413 0)
(-0.0164629 0.0403745 0)
(-0.0195907 0.0484485 0)
(-0.0211233 0.0513797 0)
(-0.0153124 0.0405659 0)
(-0.011118 0.0293654 0)
(-0.0115134 0.0311463 0)
(-0.0251193 0.0369465 0)
(-0.0265345 0.0382894 0)
(-0.0220533 0.0325964 0)
(-0.0163338 0.025513 0)
(-0.0178702 0.0273995 0)
(-0.0211214 0.0309233 0)
(-0.00632643 0.0176343 0)
(-0.00493437 0.0133181 0)
(-0.00868547 0.0161116 0)
(-0.00869077 0.0207429 0)
(-0.0086158 0.0245138 0)
(-0.00694118 0.019511 0)
(-0.00802006 0.0216434 0)
(-0.0611927 0.0893107 0)
(-0.0717741 0.105295 0)
(-0.0593087 0.0846237 0)
(-0.0147304 0.139839 0)
(-0.00588077 0.126872 0)
(0.0242195 0.0711361 0)
(0.0252299 0.0683017 0)
(0.0301097 0.0590582 0)
(0.065426 -0.0141254 0)
(0.0675827 -0.0186125 0)
(0.0625677 -0.00731849 0)
(0.0837917 -0.0576314 0)
(0.0880833 -0.0693066 0)
(0.0866718 -0.0649357 0)
(0.0353387 0.0434131 0)
(0.0430151 0.0281256 0)
(0.0339444 0.0493749 0)
(-0.144829 0.356664 0)
(-0.152372 0.370275 0)
(-0.044047 0.194746 0)
(-0.206348 0.453937 0)
(-0.21037 0.459074 0)
(-0.204779 0.449665 0)
(-0.062574 0.0721013 0)
(-0.0598153 0.0646744 0)
(-0.047365 0.0465252 0)
(-0.0359743 0.010882 0)
(-0.0496492 0.0305938 0)
(-0.0311637 -0.00117683 0)
(0.0411247 -0.102753 0)
(0.0667621 -0.154069 0)
(0.0626936 -0.152106 0)
(0.0700941 -0.160703 0)
(0.0887394 -0.139588 0)
(0.0847096 -0.133902 0)
(0.101359 -0.107077 0)
(0.100584 -0.105076 0)
(0.10343 -0.115113 0)
(0.109605 -0.138057 0)
(0.107618 -0.130487 0)
(0.109235 -0.138235 0)
(-0.27337 0.553261 0)
(-0.273198 0.551006 0)
(-0.282985 0.563501 0)
(-0.279573 0.561356 0)
(-0.281176 0.564087 0)
(-0.285024 0.559257 0)
(-0.286108 0.563838 0)
(-0.286833 0.564076 0)
(-0.289547 0.574478 0)
(-0.288894 0.571516 0)
(-0.288673 0.574459 0)
(-0.287789 0.554428 0)
(-0.26529 0.541432 0)
(-0.266612 0.544507 0)
(-0.267629 0.543551 0)
(-0.307246 0.591208 0)
(-0.306184 0.587365 0)
(-0.318469 0.610423 0)
(-0.347424 0.608703 0)
(-0.346388 0.608801 0)
(-0.342969 0.607261 0)
(-0.325925 0.605795 0)
(-0.324559 0.606423 0)
(-0.327147 0.608718 0)
(-0.348255 0.604438 0)
(-0.347261 0.602598 0)
(-0.350187 0.605713 0)
(-0.352633 0.618295 0)
(-0.350205 0.616853 0)
(-0.350827 0.617432 0)
(-0.356468 0.620106 0)
(-0.35083 0.617386 0)
(-0.357338 0.620499 0)
(-0.329447 0.569923 0)
(-0.335129 0.578547 0)
(-0.331968 0.576022 0)
(-0.329748 0.5679 0)
(-0.330502 0.569498 0)
(-0.325007 0.558965 0)
(-0.269239 0.445602 0)
(-0.273965 0.453644 0)
(-0.262623 0.429 0)
(-0.26247 0.428851 0)
(-0.190578 0.284573 0)
(-0.205281 0.315567 0)
(-0.196018 0.29407 0)
(-0.199308 0.327698 0)
(-0.185066 0.298851 0)
(-0.189105 0.312278 0)
(-0.115365 0.124297 0)
(-0.103611 0.104558 0)
(-0.120701 0.138102 0)
(-0.12222 0.199266 0)
(-0.134813 0.222462 0)
(-0.130105 0.210874 0)
(-0.129418 0.206287 0)
(-0.119201 0.190387 0)
(-0.100414 0.184831 0)
(-0.0859629 0.157219 0)
(-0.0830538 0.155044 0)
(-0.100194 0.169539 0)
(-0.111797 0.190586 0)
(-0.110426 0.18475 0)
(-0.115388 0.201874 0)
(-0.102673 0.180448 0)
(-0.0983593 0.175277 0)
(-0.055704 0.114602 0)
(-0.0527067 0.109577 0)
(-0.0568404 0.117927 0)
(-0.0608134 0.126966 0)
(-0.0583987 0.123002 0)
(-0.0631348 0.13211 0)
(-0.0675312 0.132678 0)
(-0.0748158 0.144577 0)
(-0.0633733 0.122952 0)
(-0.0419334 0.0927442 0)
(-0.0437202 0.0959544 0)
(-0.0401178 0.0885073 0)
(-0.0394394 0.0878957 0)
(-0.0354098 0.079429 0)
(-0.038674 0.0867143 0)
(-0.032842 0.0759592 0)
(-0.0256876 0.0614671 0)
(-0.0180044 0.0434588 0)
(-0.0289149 0.0676165 0)
(-0.0348346 0.081066 0)
(-0.0199518 0.0513678 0)
(-0.00836379 0.0214572 0)
(-0.0085376 0.0222786 0)
(-0.0121123 0.0312412 0)
(-0.0154128 0.0242203 0)
(-0.0124023 0.0197673 0)
(-0.0163875 0.0250931 0)
(-0.0565409 0.0835024 0)
(-0.0674341 0.101026 0)
(-0.00491375 0.0137025 0)
(-0.00445503 0.0100779 0)
(-0.00614861 0.0133084 0)
(-0.00574635 0.0134231 0)
(-0.00476902 0.00855001 0)
(-0.00688558 0.0118046 0)
(-0.00694103 0.0126155 0)
(-0.00459812 0.0128354 0)
(-0.00723051 0.0201245 0)
(-0.00869812 0.023859 0)
(-0.00570391 0.0156468 0)
(-0.113188 0.168007 0)
(-0.101246 0.147882 0)
(-0.109507 0.165697 0)
(-0.0495059 0.0654954 0)
(-0.0620232 0.0865609 0)
(0.0200377 0.0791175 0)
(0.0130284 0.0927047 0)
(0.0176842 0.0828772 0)
(0.0765475 -0.0394788 0)
(0.0774027 -0.0419758 0)
(0.0805065 -0.0495155 0)
(0.0682711 -0.0214779 0)
(0.0625372 -0.00837433 0)
(0.0851698 -0.0622356 0)
(0.0470631 0.0232172 0)
(0.0526717 0.01341 0)
(0.0570336 0.00434125 0)
(0.0518788 0.0157929 0)
(-0.079247 0.11072 0)
(-0.0772164 0.104584 0)
(-0.048025 0.042528 0)
(-0.0390806 0.0300763 0)
(-0.0398617 0.0102087 0)
(-0.0304495 -0.00897183 0)
(-0.0258659 -0.0131966 0)
(0.0301537 -0.114218 0)
(0.0197463 -0.0984141 0)
(0.0188879 -0.100122 0)
(0.093798 -0.178388 0)
(0.0994734 -0.181775 0)
(0.095689 -0.177138 0)
(0.113179 -0.155098 0)
(0.114017 -0.158826 0)
(0.113333 -0.154667 0)
(0.0907163 -0.0758399 0)
(0.0951625 -0.0888047 0)
(0.0931682 -0.0823684 0)
(0.0959596 -0.0904247 0)
(0.0937065 -0.0838049 0)
(0.114867 -0.169991 0)
(0.113986 -0.165465 0)
(0.114144 -0.170366 0)
(-0.26889 0.547794 0)
(-0.280005 0.56327 0)
(-0.282126 0.565929 0)
(-0.29124 0.572049 0)
(-0.290308 0.566289 0)
(-0.290683 0.569414 0)
(-0.286485 0.567729 0)
(-0.28864 0.559222 0)
(-0.290259 0.563017 0)
(-0.289965 0.561139 0)
(-0.276864 0.532163 0)
(-0.274947 0.528822 0)
(-0.276922 0.532654 0)
(-0.270356 0.546484 0)
(-0.288382 0.550503 0)
(-0.299495 0.572132 0)
(-0.300058 0.572914 0)
(-0.343894 0.614607 0)
(-0.341812 0.613635 0)
(-0.347218 0.615836 0)
(-0.342254 0.602281 0)
(-0.344773 0.604037 0)
(-0.336108 0.600568 0)
(-0.350825 0.606912 0)
(-0.349422 0.6069 0)
(-0.34775 0.605064 0)
(-0.354531 0.619196 0)
(-0.354292 0.619299 0)
(-0.355993 0.619654 0)
(-0.358267 0.620357 0)
(-0.351538 0.617323 0)
(-0.358279 0.620037 0)
(-0.330202 0.587491 0)
(-0.327672 0.587835 0)
(-0.324772 0.584861 0)
(-0.333269 0.574825 0)
(-0.330829 0.571745 0)
(-0.337453 0.585437 0)
(-0.306233 0.531441 0)
(-0.304294 0.533301 0)
(-0.299018 0.523772 0)
(-0.297733 0.513341 0)
(-0.302516 0.523713 0)
(-0.29323 0.510655 0)
(-0.258896 0.435646 0)
(-0.250918 0.422038 0)
(-0.250729 0.418303 0)
(-0.252171 0.410195 0)
(-0.241954 0.38626 0)
(-0.259751 0.424038 0)
(-0.209015 0.31439 0)
(-0.219971 0.337262 0)
(-0.221 0.340624 0)
(-0.154312 0.192877 0)
(-0.154187 0.192437 0)
(-0.142563 0.167303 0)
(-0.151979 0.214188 0)
(-0.146771 0.200147 0)
(-0.134464 0.177604 0)
(-0.169432 0.234083 0)
(-0.176895 0.251542 0)
(-0.183239 0.262905 0)
(-0.101603 0.16734 0)
(-0.10029 0.162362 0)
(-0.0902515 0.147342 0)
(-0.107061 0.205464 0)
(-0.113709 0.214407 0)
(-0.0844771 0.143718 0)
(-0.0903389 0.156888 0)
(-0.099274 0.170065 0)
(-0.0693876 0.124019 0)
(-0.0869664 0.15389 0)
(-0.0734426 0.128938 0)
(-0.0574626 0.113477 0)
(-0.0514241 0.100415 0)
(-0.052375 0.109888 0)
(-0.0486606 0.101881 0)
(-0.0358868 0.0771914 0)
(-0.0389364 0.0840317 0)
(-0.0397838 0.0851735 0)
(-0.0607009 0.114885 0)
(-0.0688136 0.129029 0)
(-0.0565134 0.10554 0)
(-0.0487168 0.0926136 0)
(-0.0573956 0.110165 0)
(-0.0387659 0.0860432 0)
(-0.0364568 0.0808138 0)
(-0.0353809 0.0780453 0)
(-0.0335259 0.0743889 0)
(-0.031644 0.0719771 0)
(-0.0272613 0.0625679 0)
(-0.0337727 0.0770816 0)
(-0.0142537 0.0355745 0)
(-0.0183609 0.0428154 0)