/*--------------------------------*- C++ -*----------------------------------*\
| =========                 |                                                 |
| \\      /  F ield         | OpenFOAM: The Open Source CFD Toolbox           |
|  \\    /   O peration     | Version:  v2012                                 |
|   \\  /    A nd           | Website:  www.openfoam.com                      |
|    \\/     M anipulation  |                                                 |
\*---------------------------------------------------------------------------*/
FoamFile
{
    version     2.0;
    format      ascii;
    class       volScalarField;
    location    "0.3";
    object      nut;
}
// * * * * * * * * * * * * * * * * * * * * * * * * * * * * * * * * * * * * * //

dimensions      [0 2 -1 0 0 0 0];


internalField   nonuniform List<scalar> 
13611
(
1.06498e-05
1.01475e-05
1.30677e-05
1.06252e-05
1.08899e-05
1.11686e-05
9.83922e-06
1.17146e-05
1.11712e-05
1.09821e-05
1.1197e-05
1.01385e-05
1.06017e-05
1.31581e-05
1.11679e-05
1.10272e-05
1.1169e-05
1.11543e-05
9.43284e-06
1.05934e-05
1.16635e-05
1.1186e-05
1.11791e-05
1.11584e-05
1.11605e-05
1.1163e-05
9.62892e-06
1.0926e-05
1.30847e-05
1.11931e-05
1.11781e-05
1.11666e-05
1.1157e-05
1.11542e-05
1.11348e-05
9.72603e-06
1.06919e-05
1.18731e-05
1.11966e-05
1.1186e-05
1.11619e-05
1.11502e-05
1.1148e-05
1.11492e-05
9.33542e-06
1.08083e-05
1.31355e-05
9.48046e-06
1.11955e-05
1.12095e-05
1.11833e-05
1.11702e-05
1.11508e-05
1.11422e-05
1.11362e-05
1.11595e-05
1.01956e-05
1.10273e-05
1.20648e-05
9.00638e-06
1.12078e-05
1.12175e-05
1.1192e-05
1.11702e-05
1.12354e-05
1.11475e-05
1.11621e-05
1.11407e-05
1.1131e-05
1.11433e-05
1.01089e-05
1.10683e-05
1.30181e-05
8.79225e-06
1.12142e-05
1.12291e-05
1.1192e-05
1.12068e-05
1.11819e-05
1.1156e-05
1.11647e-05
1.11392e-05
1.11207e-05
1.11326e-05
1.11419e-05
1.07126e-05
1.11269e-05
1.23159e-05
7.89956e-06
1.12371e-05
1.12399e-05
1.12034e-05
1.12135e-05
1.1184e-05
1.12579e-05
1.11583e-05
1.11747e-05
1.11494e-05
1.11196e-05
1.11294e-05
1.11268e-05
1.06408e-05
1.11309e-05
1.12997e-05
8.36153e-06
1.12481e-05
1.12449e-05
1.12072e-05
1.12321e-05
1.11982e-05
1.12753e-05
1.12914e-05
1.11721e-05
1.11803e-05
1.11511e-05
1.11204e-05
1.1138e-05
1.1114e-05
1.11189e-05
1.09979e-05
1.11101e-05
1.11199e-05
1.30901e-05
7.34357e-06
7.17075e-06
1.12696e-05
1.12691e-05
1.12227e-05
1.12353e-05
1.11938e-05
1.13072e-05
1.11743e-05
1.11652e-05
1.11475e-05
1.11318e-05
1.111e-05
1.11049e-05
1.07935e-05
1.11081e-05
1.11077e-05
1.1945e-05
4.88819e-06
9.09103e-06
1.12845e-05
1.1275e-05
1.12854e-05
1.12331e-05
1.12551e-05
1.12016e-05
1.13057e-05
1.13253e-05
1.1188e-05
1.1167e-05
1.11561e-05
1.11392e-05
1.11238e-05
1.11036e-05
1.11768e-05
1.11437e-05
1.11022e-05
1.10955e-05
1.11033e-05
1.30732e-05
8.54588e-06
8.06541e-06
1.12711e-05
1.12969e-05
1.13074e-05
1.12347e-05
1.12532e-05
1.12002e-05
1.12232e-05
1.13272e-05
1.13492e-05
1.11881e-05
1.11778e-05
1.11621e-05
1.1136e-05
1.1156e-05
1.11292e-05
1.11204e-05
1.02502e-05
1.11245e-05
1.10891e-05
1.10957e-05
1.10898e-05
1.19574e-05
5.37381e-06
1.12893e-05
1.13105e-05
1.13037e-05
1.13278e-05
1.12557e-05
1.12673e-05
1.12189e-05
1.12319e-05
1.13501e-05
1.13734e-05
1.12048e-05
1.11756e-05
1.11471e-05
1.11665e-05
1.11414e-05
1.11209e-05
1.03576e-05
1.11193e-05
1.10892e-05
1.10819e-05
1.10879e-05
1.11112e-05
8.52304e-06
1.30418e-05
9.15053e-06
1.12867e-05
1.13324e-05
1.13243e-05
1.13564e-05
1.12608e-05
1.12693e-05
1.1221e-05
1.12503e-05
1.13791e-05
1.14068e-05
1.12071e-05
1.11898e-05
1.11607e-05
1.11842e-05
1.11535e-05
1.11329e-05
1.08675e-05
1.11204e-05
1.10743e-05
1.10835e-05
1.11016e-05
1.11152e-05
6.11389e-06
1.18292e-05
9.71995e-06
1.1297e-05
1.13391e-05
1.13544e-05
1.13351e-05
1.13831e-05
1.12773e-05
1.12846e-05
1.12407e-05
1.12567e-05
1.14095e-05
1.12238e-05
1.11934e-05
1.11757e-05
1.11983e-05
1.11531e-05
1.11723e-05
1.11457e-05
1.11248e-05
1.06482e-05
1.11249e-05
1.10705e-05
1.10691e-05
1.10786e-05
1.10974e-05
1.11055e-05
7.37385e-06
8.93232e-06
1.29624e-05
1.13193e-05
1.13627e-05
1.1379e-05
1.13648e-05
1.13355e-05
1.1428e-05
1.12896e-05
1.1285e-05
1.12404e-05
1.1256e-05
1.12756e-05
1.14475e-05
1.12304e-05
1.12186e-05
1.11948e-05
1.1218e-05
1.11733e-05
1.11904e-05
1.11582e-05
1.11312e-05
1.08911e-05
1.1085e-05
1.10629e-05
1.10517e-05
1.10705e-05
1.10907e-05
1.11063e-05
1.11212e-05
6.49638e-06
9.3637e-06
1.22918e-05
1.13267e-05
1.13791e-05
1.14161e-05
1.1383e-05
1.13643e-05
1.14412e-05
1.14615e-05
1.13111e-05
1.13062e-05
1.12547e-05
1.12703e-05
1.12827e-05
1.14978e-05
1.15137e-05
1.12462e-05
1.12119e-05
1.12364e-05
1.11736e-05
1.11897e-05
1.12104e-05
1.11586e-05
1.11477e-05
1.04686e-05
1.11043e-05
1.10502e-05
1.10607e-05
1.10834e-05
1.11035e-05
1.11257e-05
1.11333e-05
8.47162e-06
1.13596e-05
1.13494e-05
1.14238e-05
1.14445e-05
1.14171e-05
1.13707e-05
1.14956e-05
1.15025e-05
1.13189e-05
1.13153e-05
1.12695e-05
1.12765e-05
1.13023e-05
1.15276e-05
1.15751e-05
1.12616e-05
1.12328e-05
1.12547e-05
1.11914e-05
1.12087e-05
1.12284e-05
1.1177e-05
1.11582e-05
1.06634e-05
1.10457e-05
1.1041e-05
1.10541e-05
1.10651e-05
1.10941e-05
1.11203e-05
1.11355e-05
1.11532e-05
2.31543e-06
1.30171e-05
5.3273e-06
1.13602e-05
1.14385e-05
1.14906e-05
1.14445e-05
1.14102e-05
1.15366e-05
1.15086e-05
1.15408e-05
1.13427e-05
1.13377e-05
1.12883e-05
1.12989e-05
1.13101e-05
1.15806e-05
1.16045e-05
1.12849e-05
1.12585e-05
1.12443e-05
1.12655e-05
1.11915e-05
1.12086e-05
1.12277e-05
1.12443e-05
1.11749e-05
1.06204e-05
1.10376e-05
1.10774e-05
1.1061e-05
1.10824e-05
1.1113e-05
1.11232e-05
1.1156e-05
1.11701e-05
8.78666e-06
1.21626e-05
4.8771e-06
1.1392e-05
1.14868e-05
1.15185e-05
1.14445e-05
1.14867e-05
1.14169e-05
1.15741e-05
1.15535e-05
1.15924e-05
1.13544e-05
1.13487e-05
1.13055e-05
1.13322e-05
1.16634e-05
1.13055e-05
1.12748e-05
1.1264e-05
1.1272e-05
1.12081e-05
1.12246e-05
1.12434e-05
1.12548e-05
1.1191e-05
1.09932e-05
1.10233e-05
1.10494e-05
1.10809e-05
1.10388e-05
1.10821e-05
1.10946e-05
1.113e-05
1.11484e-05
1.11687e-05
1.11701e-05
1.11901e-05
9.41048e-06
1.043e-05
1.30085e-05
8.10722e-06
1.12526e-05
1.12922e-05
1.14135e-05
1.15197e-05
1.15579e-05
1.14876e-05
1.15263e-05
1.14605e-05
1.16297e-05
1.16487e-05
1.13941e-05
1.13825e-05
1.1326e-05
1.13435e-05
1.16988e-05
1.16998e-05
1.12976e-05
1.13292e-05
1.12676e-05
1.12927e-05
1.12088e-05
1.12244e-05
1.12414e-05
1.12604e-05
1.12636e-05
1.07191e-05
1.10322e-05
1.1063e-05
1.10611e-05
1.10226e-05
1.11032e-05
1.11211e-05
1.11513e-05
1.11347e-05
1.1167e-05
1.11888e-05
1.11903e-05
1.12086e-05
1.01053e-05
1.21445e-05
8.91586e-06
1.11959e-05
1.12197e-05
1.11528e-05
1.01932e-05
1.32027e-05
1.14518e-05
1.15722e-05
1.16129e-05
1.1528e-05
1.14916e-05
1.15714e-05
1.16626e-05
1.16752e-05
1.17009e-05
1.14067e-05
1.13975e-05
1.13361e-05
1.13761e-05
1.17755e-05
1.13073e-05
1.13538e-05
1.12862e-05
1.13095e-05
1.12285e-05
1.12384e-05
1.12588e-05
1.12821e-05
1.12832e-05
1.09493e-05
1.10219e-05
1.10548e-05
1.10925e-05
1.10481e-05
1.10115e-05
1.1129e-05
1.1133e-05
1.11686e-05
1.11623e-05
1.11878e-05
1.12076e-05
1.12081e-05
1.12287e-05
6.92946e-06
1.29238e-05
7.87131e-06
1.07014e-05
1.1068e-05
1.11519e-05
1.12133e-05
1.11433e-05
1.02845e-05
1.1554e-05
1.14853e-05
1.16178e-05
1.16713e-05
1.15776e-05
1.15377e-05
1.16097e-05
1.17428e-05
1.1741e-05
1.17756e-05
1.14508e-05
1.14313e-05
1.13778e-05
1.13964e-05
1.17973e-05
1.18162e-05
1.1338e-05
1.13847e-05
1.13712e-05
1.13052e-05
1.13362e-05
1.12433e-05
1.12564e-05
1.12793e-05
1.13014e-05
1.12983e-05
1.10389e-05
1.10727e-05
1.1114e-05
1.10392e-05
1.10055e-05
1.11523e-05
1.11608e-05
1.11768e-05
1.11875e-05
1.11727e-05
1.1208e-05
1.12283e-05
1.12278e-05
1.12497e-05
7.77462e-06
1.22712e-05
9.08246e-06
1.09095e-05
1.12054e-05
1.11409e-05
1.11751e-05
1.1173e-05
1.11591e-05
1.11986e-05
1.06003e-05
1.32238e-05
1.14854e-05
1.15326e-05
1.16697e-05
1.17301e-05
1.16178e-05
1.15796e-05
1.15456e-05
1.16699e-05
1.17935e-05
1.17843e-05
1.14585e-05
1.14585e-05
1.14412e-05
1.18753e-05
1.18505e-05
1.18606e-05
1.13642e-05
1.14198e-05
1.14124e-05
1.13291e-05
1.13636e-05
1.12626e-05
1.12749e-05
1.13023e-05
1.13314e-05
1.13233e-05
1.10222e-05
1.10653e-05
1.10778e-05
1.11036e-05
1.11498e-05
1.10424e-05
1.10029e-05
1.11654e-05
1.11742e-05
1.12002e-05
1.121e-05
1.11991e-05
1.12305e-05
1.12502e-05
1.12489e-05
1.12756e-05
7.22603e-07
1.14062e-05
1.06899e-05
8.22561e-06
1.10093e-05
1.10069e-05
1.11317e-05
1.11515e-05
1.11864e-05
1.11877e-05
1.11611e-05
1.12096e-05
1.04266e-05
1.13999e-05
1.15384e-05
1.15684e-05
1.17266e-05
1.16903e-05
1.17831e-05
1.16704e-05
1.16356e-05
1.15933e-05
1.17027e-05
1.18668e-05
1.18582e-05
1.15024e-05
1.14988e-05
1.1461e-05
1.18813e-05
1.19125e-05
1.14007e-05
1.14516e-05
1.14487e-05
1.13582e-05
1.13956e-05
1.12828e-05
1.12953e-05
1.13304e-05
1.13485e-05
1.13413e-05
1.10428e-05
1.10925e-05
1.11093e-05
1.1124e-05
1.11759e-05
1.1003e-05
1.09824e-05
1.12095e-05
1.11989e-05
1.1216e-05
1.12307e-05
1.12181e-05
1.12528e-05
1.12735e-05
1.12718e-05
1.12971e-05
9.98743e-06
1.28652e-05
1.09761e-05
8.95583e-06
1.1016e-05
1.10588e-05
1.1133e-05
1.11456e-05
1.11441e-05
1.116e-05
1.11906e-05
1.1179e-05
1.12097e-05
1.00224e-05
1.3212e-05
1.15387e-05
1.15768e-05
1.16027e-05
1.17758e-05
1.17509e-05
1.18406e-05
1.16934e-05
1.16319e-05
1.16877e-05
1.17558e-05
1.19219e-05
1.18883e-05
1.18866e-05
1.15352e-05
1.15155e-05
1.19708e-05
1.19517e-05
1.19701e-05
1.14432e-05
1.14904e-05
1.14912e-05
1.13875e-05
1.14338e-05
1.13179e-05
1.13238e-05
1.13593e-05
1.13791e-05
1.13835e-05
1.10366e-05
1.10852e-05
1.11194e-05
1.11593e-05
1.12107e-05
1.09893e-05
1.1005e-05
1.12284e-05
1.12263e-05
1.12518e-05
1.12635e-05
1.12578e-05
1.12885e-05
1.13093e-05
1.12956e-05
1.13367e-05
6.79345e-06
1.16244e-05
1.0671e-05
8.15361e-06
1.09999e-05
1.02732e-05
1.11188e-05
1.11588e-05
1.11345e-05
1.12275e-05
1.1202e-05
1.11831e-05
1.12236e-05
1.12148e-05
1.17395e-05
1.15753e-05
1.16206e-05
1.16362e-05
1.18321e-05
1.17844e-05
1.18581e-05
1.17588e-05
1.16634e-05
1.17477e-05
1.1787e-05
1.19795e-05
1.19591e-05
1.1943e-05
1.15433e-05
1.15765e-05
1.15266e-05
1.20052e-05
1.2004e-05
1.14769e-05
1.15344e-05
1.14255e-05
1.14729e-05
1.13552e-05
1.13575e-05
1.13892e-05
1.14051e-05
1.14094e-05
1.10723e-05
1.11213e-05
1.11549e-05
1.11894e-05
1.12476e-05
1.09886e-05
1.10021e-05
1.12727e-05
1.12948e-05
1.12792e-05
1.12771e-05
1.12983e-05
1.12847e-05
1.13195e-05
1.13426e-05
1.13354e-05
1.13594e-05
1.13579e-05
1.02168e-05
1.28467e-05
1.09189e-05
8.85649e-06
1.09901e-05
9.97048e-06
1.11353e-05
1.11785e-05
1.11569e-05
1.11252e-05
1.11171e-05
1.07497e-05
1.12166e-05
1.12025e-05
1.11966e-05
1.1237e-05
1.12162e-05
1.32533e-05
9.71695e-06
1.16255e-05
1.16459e-05
1.16566e-05
1.18796e-05
1.18564e-05
1.19319e-05
1.17908e-05
1.17182e-05
1.17551e-05
1.18493e-05
1.1991e-05
1.20135e-05
1.19749e-05
1.19651e-05
1.15906e-05
1.16206e-05
1.15713e-05
1.20174e-05
1.20206e-05
1.15235e-05
1.15411e-05
1.15765e-05
1.14585e-05
1.15155e-05
1.13994e-05
1.13991e-05
1.14275e-05
1.14468e-05
1.14546e-05
1.10734e-05
1.11158e-05
1.11749e-05
1.11952e-05
1.12442e-05
1.12787e-05
1.13025e-05
1.09765e-05
1.10347e-05
1.13197e-05
1.13303e-05
1.13322e-05
1.13262e-05
1.13566e-05
1.13478e-05
1.13642e-05
1.13802e-05
1.13949e-05
1.14072e-05
6.10979e-06
1.15636e-05
1.05159e-05
1.10017e-05
7.88311e-06
1.09827e-05
1.09738e-05
1.113e-05
1.11848e-05
1.11696e-05
1.11077e-05
1.11221e-05
1.07297e-05
1.12282e-05
1.12083e-05
1.11988e-05
1.12376e-05
1.12272e-05
1.18022e-05
8.89758e-06
1.1654e-05
1.17169e-05
1.17172e-05
1.19333e-05
1.18834e-05
1.18506e-05
1.17486e-05
1.18141e-05
1.18838e-05
1.20058e-05
1.20144e-05
1.20036e-05
1.20036e-05
1.16052e-05
1.16288e-05
1.20183e-05
1.19867e-05
1.1551e-05
1.15946e-05
1.16181e-05
1.15058e-05
1.15242e-05
1.15537e-05
1.14455e-05
1.14368e-05
1.14633e-05
1.14789e-05
1.11393e-05
1.11728e-05
1.12411e-05
1.12905e-05
1.13228e-05
1.13498e-05
1.13687e-05
1.09975e-05
1.10522e-05
1.13271e-05
1.13684e-05
1.13956e-05
1.13708e-05
1.13541e-05
1.13644e-05
1.13919e-05
1.13978e-05
1.14237e-05
1.14312e-05
1.14458e-05
9.78831e-06
1.28035e-05
1.07796e-05
1.09856e-05
8.84194e-06
1.09629e-05
1.09604e-05
1.1148e-05
1.11825e-05
1.11946e-05
1.1172e-05
1.11123e-05
1.10937e-05
1.11416e-05
1.09864e-05
9.32625e-06
1.12116e-05
1.11501e-05
1.12122e-05
1.12061e-05
1.12663e-05
1.12515e-05
1.12334e-05
1.31664e-05
1.17182e-05
1.17501e-05
1.17473e-05
1.19735e-05
1.19465e-05
1.18875e-05
1.17957e-05
1.18716e-05
1.19393e-05
1.20047e-05
1.20048e-05
1.19924e-05
1.20069e-05
1.20022e-05
1.16572e-05
1.16755e-05
1.19535e-05
1.1942e-05
1.15914e-05
1.16286e-05
1.16723e-05
1.1534e-05
1.15749e-05
1.15889e-05
1.14983e-05
1.14808e-05
1.15117e-05
1.15213e-05
1.1153e-05
1.11133e-05
1.12292e-05
1.13194e-05
1.13411e-05
1.14329e-05
1.1443e-05
1.14294e-05
1.0987e-05
1.10361e-05
1.14165e-05
1.14412e-05
1.14418e-05
1.14339e-05
1.14047e-05
1.14224e-05
1.14454e-05
1.14532e-05
1.14752e-05
1.14858e-05
1.14913e-05
5.99034e-06
1.15421e-05
1.05262e-05
1.09905e-05
8.08422e-06
1.09549e-05
1.09711e-05
1.11673e-05
1.11893e-05
1.12014e-05
1.1184e-05
1.11267e-05
1.10858e-05
1.11541e-05
1.10539e-05
8.80584e-06
1.123e-05
1.11215e-05
1.12267e-05
1.12164e-05
1.12643e-05
1.12471e-05
1.17641e-05
1.17408e-05
1.18028e-05
1.18107e-05
1.19784e-05
1.20091e-05
1.19593e-05
1.19543e-05
1.18364e-05
1.19145e-05
1.19648e-05
1.19392e-05
1.19601e-05
1.19128e-05
1.19694e-05
1.19852e-05
1.16923e-05
1.16884e-05
1.17263e-05
1.18694e-05
1.17813e-05
1.16172e-05
1.16846e-05
1.17152e-05
1.15713e-05
1.16027e-05
1.15433e-05
1.15088e-05
1.15209e-05
1.15538e-05
1.15534e-05
1.10551e-05
1.12758e-05
1.13464e-05
1.14098e-05
1.14789e-05
1.15329e-05
1.1546e-05
1.15255e-05
1.09602e-05
1.10531e-05
1.14612e-05
1.15032e-05
1.15616e-05
1.14567e-05
1.14998e-05
1.14837e-05
1.1475e-05
1.14842e-05
1.15268e-05
1.15321e-05
1.15036e-05
1.154e-05
9.79344e-06
1.27382e-05
1.07622e-05
1.09756e-05
8.04513e-06
1.09422e-05
1.09576e-05
1.11738e-05
1.11979e-05
1.1213e-05
1.11881e-05
1.11259e-05
1.11504e-05
1.11113e-05
1.1078e-05
1.11707e-05
1.03106e-05
1.11915e-05
9.26871e-06
1.11464e-05
1.12291e-05
1.12796e-05
1.12576e-05
1.31101e-05
1.18067e-05
1.18445e-05
1.18323e-05
1.19879e-05
1.19764e-05
1.19839e-05
1.19699e-05
1.18986e-05
1.1964e-05
1.19873e-05
1.19295e-05
1.18527e-05
1.18388e-05
1.18018e-05
1.18893e-05
1.17436e-05
1.17543e-05
1.17651e-05
1.1561e-05
1.17002e-05
1.17092e-05
1.16364e-05
1.167e-05
1.17043e-05
1.17689e-05
1.16093e-05
1.16559e-05
1.15975e-05
1.15693e-05
1.15775e-05
1.15923e-05
1.15996e-05
1.19957e-05
1.1555e-05
1.11688e-05
1.13824e-05
1.158e-05
1.16051e-05
1.16368e-05
1.16688e-05
1.15982e-05
1.09389e-05
1.1029e-05
1.15506e-05
1.15843e-05
1.16139e-05
1.15293e-05
1.15948e-05
1.15475e-05
1.15066e-05
1.1552e-05
1.15541e-05
1.15873e-05
1.15765e-05
1.15642e-05
1.15862e-05
7.05311e-06
1.15129e-05
1.07691e-05
1.09798e-05
7.21427e-06
9.89947e-06
1.09605e-05
1.09394e-05
1.11833e-05
1.12075e-05
1.12243e-05
1.12007e-05
1.11453e-05
1.11576e-05
1.11179e-05
1.10808e-05
1.11771e-05
1.00811e-05
1.12211e-05
8.68522e-06
1.11068e-05
1.12411e-05
1.13044e-05
1.12751e-05
1.12987e-05
1.12558e-05
1.2379e-05
1.18039e-05
1.18449e-05
1.18994e-05
1.18934e-05
1.19912e-05
1.19829e-05
1.19162e-05
1.19813e-05
1.1932e-05
1.19767e-05
1.19857e-05
1.17938e-05
1.16355e-05
1.1638e-05
1.16041e-05
1.17482e-05
1.17751e-05
1.17875e-05
1.13222e-05
1.13894e-05
1.13998e-05
1.16927e-05
1.17686e-05
1.18098e-05
1.16633e-05
1.1682e-05
1.16506e-05
1.16115e-05
1.16087e-05
1.16373e-05
1.16418e-05
1.41806e-05
1.17074e-05
1.17817e-05
1.18628e-05
1.22956e-05
1.19361e-05
1.16443e-05
1.15445e-05
1.16703e-05
1.16588e-05
1.0955e-05
1.1601e-05
1.16206e-05
1.16704e-05
1.17772e-05
1.16063e-05
1.16753e-05
1.16257e-05
1.15873e-05
1.16001e-05
1.16158e-05
1.1652e-05
1.16379e-05
1.15971e-05
1.16427e-05
9.74976e-06
1.26253e-05
1.09403e-05
1.09894e-05
6.65453e-06
9.86768e-06
1.0921e-05
1.09155e-05
1.1192e-05
1.12094e-05
1.12219e-05
1.12422e-05
1.12025e-05
1.11578e-05
1.11447e-05
1.11714e-05
1.11345e-05
1.11071e-05
1.10665e-05
1.11776e-05
1.11884e-05
1.0555e-05
1.1159e-05
1.11128e-05
9.19911e-06
1.10978e-05
1.12481e-05
1.12929e-05
1.13201e-05
1.12717e-05
1.19922e-05
1.18473e-05
1.19012e-05
1.19359e-05
1.19317e-05
1.19586e-05
1.19237e-05
1.18311e-05
1.19678e-05
1.19753e-05
1.19752e-05
1.19799e-05
1.19663e-05
1.1636e-05
1.17022e-05
1.14497e-05
1.14541e-05
1.13624e-05
1.15986e-05
1.18322e-05
1.18409e-05
1.12601e-05
1.12749e-05
1.17482e-05
1.17847e-05
1.18127e-05
1.18624e-05
1.17049e-05
1.17442e-05
1.17085e-05
1.16766e-05
1.16604e-05
1.16859e-05
1.16945e-05
1.0607e-05
1.15821e-05
1.21379e-05
1.18948e-05
1.17e-05
1.16531e-05
1.17173e-05
1.22694e-05
1.2148e-05
1.11365e-05
1.17202e-05
1.16671e-05
1.08165e-05
1.13591e-05
1.13553e-05
1.17223e-05
1.17606e-05
1.17929e-05
1.16987e-05
1.17645e-05
1.16432e-05
1.17082e-05
1.16838e-05
1.16809e-05
1.17318e-05
1.16793e-05
1.16485e-05
1.16813e-05
7.69168e-06
1.20573e-05
1.09062e-05
1.0946e-05
8.59197e-06
1.04091e-05
1.09327e-05
1.1226e-05
1.12342e-05
1.12544e-05
1.12194e-05
1.11669e-05
1.11537e-05
1.11746e-05
1.1138e-05
1.11142e-05
1.10842e-05
1.11886e-05
1.11965e-05
1.01785e-05
1.11642e-05
1.12024e-05
8.39511e-06
1.10743e-05
1.12657e-05
1.13552e-05
1.12886e-05
1.13155e-05
1.13486e-05
1.32506e-05
9.81925e-06
1.18976e-05
1.19421e-05
1.19647e-05
1.19613e-05
1.19192e-05
1.18506e-05
1.1644e-05
1.19168e-05
1.19442e-05
1.19773e-05
1.19421e-05
1.19179e-05
1.1449e-05
1.14904e-05
1.12871e-05
1.12776e-05
1.13001e-05
1.15628e-05
1.14058e-05
1.18614e-05
1.18692e-05
1.15419e-05
1.12187e-05
1.1139e-05
1.17713e-05
1.18376e-05
1.18666e-05
1.19003e-05
1.17571e-05
1.17709e-05
1.17492e-05
1.17123e-05
1.17033e-05
1.17051e-05
1.17337e-05
1.17434e-05
6.76095e-07
1.97772e-06
9.71151e-06
8.37511e-06
1.04797e-05
7.9512e-06
7.50606e-06
1.52707e-05
1.54607e-05
1.19231e-05
1.22261e-05
1.14653e-05
1.09823e-05
1.13717e-05
1.15518e-05
1.06133e-05
1.1826e-05
1.19601e-05
1.1772e-05
1.18222e-05
1.17378e-05
1.17759e-05
1.17483e-05
1.17074e-05
1.17517e-05
1.17886e-05
1.17447e-05
1.17389e-05
6.93247e-06
1.08457e-05
1.10354e-05
1.09274e-05
8.52943e-06
1.04137e-05
1.09105e-05
1.12325e-05
1.12375e-05
1.12505e-05
1.12728e-05
1.12233e-05
1.11709e-05
1.11477e-05
1.11651e-05
1.11817e-05
1.11315e-05
1.1112e-05
1.10734e-05
1.11907e-05
1.1213e-05
1.06469e-05
1.11302e-05
1.10691e-05
6.85965e-06
1.10654e-05
1.12794e-05
1.13882e-05
1.13108e-05
1.13378e-05
1.13742e-05
1.32129e-05
7.93194e-06
1.19251e-05
1.19656e-05
1.19712e-05
1.19811e-05
1.17944e-05
1.17188e-05
1.15931e-05
1.18666e-05
1.18948e-05
1.18827e-05
1.19672e-05
1.19423e-05
1.1814e-05
1.12711e-05
1.13851e-05
1.12216e-05
1.12373e-05
1.12733e-05
1.1339e-05
1.12681e-05
1.1907e-05
1.19207e-05
1.13183e-05
1.14099e-05
1.18213e-05
1.18498e-05
1.18741e-05
1.19067e-05
1.19343e-05
1.17988e-05
1.18298e-05
1.18004e-05
1.17672e-05
1.17592e-05
1.17645e-05
1.17748e-05
1.17827e-05
1.1796e-05
1.59993e-05
3.23114e-06
4.87518e-06
1.0306e-05
1.03268e-05
4.08367e-06
8.69814e-06
8.47025e-06
1.2074e-05
1.47265e-05
1.43454e-05
1.21865e-05
1.15889e-05
1.08829e-05
1.13684e-05
1.08132e-05
9.72451e-06
1.18429e-05
1.1792e-05
1.18548e-05
1.18619e-05
1.17677e-05
1.18486e-05
1.18202e-05
1.17963e-05
1.18132e-05
1.18503e-05
1.17759e-05
1.17725e-05
1.62025e-06
1.27605e-05
4.38707e-06
1.09731e-05
1.0814e-05
1.09089e-05
9.83051e-06
1.09067e-05
1.12505e-05
1.12533e-05
1.12625e-05
1.12888e-05
1.1241e-05
1.11841e-05
1.11528e-05
1.11728e-05
1.11904e-05
1.11363e-05
1.11255e-05
1.10932e-05
1.12066e-05
1.12205e-05
9.51066e-06
1.10652e-05
1.11091e-05
1.12145e-05
1.10708e-05
1.13033e-05
1.14613e-05
1.14144e-05
1.13352e-05
1.13672e-05
1.1406e-05
1.25893e-05
7.71229e-06
1.19279e-05
1.19628e-05
1.1966e-05
1.19727e-05
1.19646e-05
1.19654e-05
1.16798e-05
1.17484e-05
1.14262e-05
1.17247e-05
1.17705e-05
1.17906e-05
1.19508e-05
1.18654e-05
1.12761e-05
1.12424e-05
1.14768e-05
1.12899e-05
1.14178e-05
1.13013e-05
1.12029e-05
1.19319e-05
1.20708e-05
1.28195e-05
1.19763e-05
1.18479e-05
1.18975e-05
1.19109e-05
1.1941e-05
1.19544e-05
1.1841e-05
1.18062e-05
1.18437e-05
1.18242e-05
1.18187e-05
1.18214e-05
1.18405e-05
1.18454e-05
2.35369e-05
1.37899e-05
2.46805e-05
1.35e-05
2.83013e-05
1.04612e-05
1.34672e-05
1.71551e-05
6.2252e-06
8.24042e-09
1.50848e-05
1.26608e-05
1.29828e-05
1.11682e-05
1.10438e-05
1.1088e-05
1.13997e-05
9.75647e-06
8.83375e-06
1.17965e-05
1.14302e-05
1.18497e-05
1.18501e-05
1.18084e-05
1.18574e-05
1.1838e-05
1.18743e-05
1.18639e-05
1.18765e-05
1.18732e-05
1.18454e-05
1.18318e-05
4.54195e-06
1.16027e-05
1.81351e-05
1.09562e-05
1.08848e-05
1.0893e-05
9.78242e-06
1.09002e-05
1.12616e-05
1.12614e-05
1.12802e-05
1.13107e-05
1.12568e-05
1.12467e-05
1.11932e-05
1.11659e-05
1.11458e-05
1.11859e-05
1.12049e-05
1.11261e-05
1.11205e-05
1.1084e-05
1.12189e-05
1.12389e-05
9.6484e-06
1.10511e-05
1.10551e-05
1.11631e-05
1.0751e-05
1.10617e-05
1.13195e-05
1.15046e-05
1.14485e-05
1.13587e-05
1.1395e-05
1.14407e-05
1.20145e-05
5.88104e-06
1.19578e-05
1.19706e-05
1.19539e-05
1.19432e-05
1.19057e-05
1.14873e-05
1.15279e-05
1.1373e-05
1.1603e-05
1.16658e-05
1.1705e-05
1.16353e-05
1.19034e-05
1.17701e-05
1.14844e-05
1.12348e-05
1.20169e-05
1.20204e-05
1.17457e-05
1.20118e-05
1.12447e-05
1.12524e-05
1.19598e-05
1.3824e-05
1.29059e-05
1.18925e-05
1.1921e-05
1.19431e-05
1.19597e-05
1.1961e-05
1.18758e-05
1.18594e-05
1.18886e-05
1.18532e-05
1.18635e-05
1.18766e-05
1.18823e-05
1.18854e-05
3.31423e-05
2.89563e-05
3.07859e-05
2.62292e-05
2.91788e-05
3.38643e-05
3.08785e-05
2.35738e-05
2.27268e-05
1.21071e-05
3.58496e-06
5.26156e-06
1.20805e-05
9.83537e-08
1.2756e-05
1.09431e-05
1.04805e-05
1.13733e-05
7.91384e-06
1.43722e-05
1.16086e-05
1.15182e-05
1.18067e-05
1.18199e-05
1.17351e-05
1.18678e-05
1.18808e-05
1.189e-05
1.1881e-05
1.19107e-05
1.19084e-05
1.18621e-05
9.67097e-06
1.32265e-05
1.27264e-05
1.00574e-05
1.09436e-05
1.09099e-05
1.04548e-05
1.08861e-05
1.12814e-05
1.12852e-05
1.12942e-05
1.13344e-05
1.1272e-05
1.12633e-05
1.12114e-05
1.11701e-05
1.11498e-05
1.12007e-05
1.12192e-05
1.11409e-05
1.1128e-05
1.10975e-05
1.12359e-05
1.12474e-05
1.10461e-05
1.11257e-05
1.08976e-05
1.1069e-05
1.13548e-05
1.15156e-05
1.14833e-05
1.139e-05
1.13693e-05
1.14327e-05
1.14806e-05
1.30897e-05
9.61868e-06
9.35218e-06
1.19649e-05
1.19421e-05
1.19322e-05
1.19022e-05
1.18316e-05
1.14147e-05
1.14944e-05
1.12644e-05
1.14431e-05
1.14759e-05
1.14739e-05
1.18151e-05
1.16395e-05
1.18583e-05
1.15426e-05
1.13651e-05
1.33667e-05
1.36551e-05
1.22527e-05
1.27986e-05
1.1308e-05
1.15e-05
1.19584e-05
1.3518e-05
1.36603e-05
1.4069e-05
1.19096e-05
1.19441e-05
1.19503e-05
1.19544e-05
1.19312e-05
1.19083e-05
1.18933e-05
1.19092e-05
1.19014e-05
1.19068e-05
1.19081e-05
1.19289e-05
1.19196e-05
3.66045e-05
3.57787e-05
3.12352e-05
3.40225e-05
3.4816e-05
3.83642e-05
3.61219e-05
3.24829e-05
1.6342e-05
5.43409e-06
3.70516e-07
9.44693e-06
3.90941e-06
1.38768e-05
1.11599e-05
8.22945e-06
1.10335e-05
1.14486e-05
1.36518e-05
3.04632e-05
1.15957e-05
1.35174e-05
1.17375e-05
1.17565e-05
1.14627e-05
1.18101e-05
1.18891e-05
1.18823e-05
1.18387e-05
1.19074e-05
1.18936e-05
1.18623e-05
1.19065e-05
1.823e-05
1.15117e-05
9.95312e-06
1.09542e-05
1.08867e-05
1.04718e-05
1.08858e-05
1.12962e-05
1.13017e-05
1.13195e-05
1.13617e-05
1.13363e-05
1.12923e-05
1.12759e-05
1.1221e-05
1.12233e-05
1.11865e-05
1.11633e-05
1.11504e-05
1.12206e-05
1.11987e-05
1.12365e-05
1.11398e-05
1.11293e-05
1.11204e-05
1.10876e-05
1.12651e-05
1.1059e-05
1.10447e-05
1.11325e-05
1.10936e-05
1.15843e-05
1.15557e-05
1.14131e-05
1.14006e-05
1.14575e-05
1.15118e-05
1.24315e-05
8.28269e-06
9.32591e-06
1.19333e-05
1.18695e-05
1.18558e-05
1.18038e-05
1.17069e-05
1.12629e-05
1.13328e-05
1.12464e-05
1.13847e-05
1.13143e-05
1.13955e-05
1.14652e-05
1.167e-05
1.30424e-05
1.25072e-05
1.40904e-05
1.433e-05
1.42295e-05
1.39088e-05
1.44923e-05
1.15668e-05
1.16925e-05
1.24618e-05
1.1944e-05
1.05572e-05
1.19189e-05
1.4083e-05
1.19422e-05
1.19478e-05
1.19431e-05
1.19252e-05
1.19187e-05
1.189e-05
1.1934e-05
1.1922e-05
1.19174e-05
1.19105e-05
1.19188e-05
1.19362e-05
1.19295e-05
1.19305e-05
1.19379e-05
3.44331e-05
3.68876e-05
3.30661e-05
3.47741e-05
3.5074e-05
3.45045e-05
3.65298e-05
3.76275e-05
3.309e-05
3.69028e-05
1.735e-05
3.10743e-05
1.0786e-05
4.15746e-06
1.01244e-05
1.74516e-05
1.11272e-05
5.93786e-06
1.0559e-05
1.14994e-05
2.91363e-05
3.22158e-05
1.24044e-05
1.42962e-05
1.14707e-05
1.1546e-05
1.15215e-05
1.17267e-05
1.18558e-05
1.18125e-05
1.1747e-05
1.17822e-05
1.18876e-05
1.18435e-05
1.17706e-05
1.06787e-05
1.75596e-05
1.27712e-05
1.02997e-05
1.07444e-05
1.09541e-05
1.08906e-05
1.08626e-05
1.09855e-05
1.13273e-05
1.13289e-05
1.13382e-05
1.13943e-05
1.1367e-05
1.13131e-05
1.13028e-05
1.12401e-05
1.12397e-05
1.11851e-05
1.11732e-05
1.11648e-05
1.12404e-05
1.12175e-05
1.12546e-05
1.11512e-05
1.11439e-05
1.11294e-05
1.10985e-05
1.12782e-05
1.10725e-05
1.10352e-05
1.11061e-05
1.119e-05
1.16352e-05
1.15814e-05
1.14434e-05
1.14177e-05
1.14994e-05
1.15595e-05
1.1521e-05
1.20194e-05
7.36423e-06
1.0594e-05
1.18758e-05
1.18227e-05
1.17859e-05
1.17059e-05
1.15622e-05
1.12595e-05
1.12244e-05
1.1353e-05
1.12717e-05
1.12604e-05
1.12687e-05
1.13539e-05
1.15421e-05
1.3316e-05
1.43021e-05
1.29375e-05
1.55303e-05
1.46986e-05
1.46531e-05
1.50465e-05
1.23023e-05
1.15496e-05
1.27582e-05
1.29015e-05
1.18838e-05
9.47989e-06
1.25081e-05
1.19484e-05
1.19452e-05
1.19452e-05
1.19248e-05
1.18438e-05
1.18507e-05
1.1808e-05
1.19104e-05
1.18744e-05
1.19082e-05
1.19204e-05
1.19096e-05
1.19144e-05
1.19401e-05
1.1935e-05
3.20629e-05
3.21703e-05
3.54197e-05
3.43795e-05
3.10795e-05
2.87372e-05
3.43741e-05
3.5652e-05
3.82142e-05
3.9847e-05
2.63534e-05
3.53498e-05
1.54913e-05
8.0879e-06
7.17937e-06
2.34611e-05
2.1399e-05
1.15612e-05
3.02576e-07
2.55205e-05
1.17545e-05
3.167e-05
3.34621e-05
1.26833e-05
1.25477e-05
1.15576e-05
1.15512e-05
1.19409e-05
1.14986e-05
1.16891e-05
1.15394e-05
1.1605e-05
1.18582e-05
1.18024e-05
1.17292e-05
1.1637e-05
1.03054e-05
2.1241e-05
1.12725e-05
1.04486e-05
1.07048e-05
1.09559e-05
1.08494e-05
1.08628e-05
1.09119e-05
1.13411e-05
1.13511e-05
1.13635e-05
1.14197e-05
1.13941e-05
1.13438e-05
1.13142e-05
1.12553e-05
1.1259e-05
1.11976e-05
1.11735e-05
1.12609e-05
1.12377e-05
1.12157e-05
1.12746e-05
1.11551e-05
1.11681e-05
1.11501e-05
1.11433e-05
1.11217e-05
1.10951e-05
1.13037e-05
1.10733e-05
1.10189e-05
1.10576e-05
1.11722e-05
1.1037e-05
1.16887e-05
1.16567e-05
1.14682e-05
1.14556e-05
1.15246e-05
1.15917e-05
1.15639e-05
1.30567e-05
9.72026e-06
5.33051e-06
1.0575e-05
1.17858e-05
1.16823e-05
1.16681e-05
1.15508e-05
1.14515e-05
1.13081e-05
1.13502e-05
1.12643e-05
1.12691e-05
1.12651e-05
1.12368e-05
1.13767e-05
1.44198e-05
1.45451e-05
1.433e-05
1.34953e-05
1.33203e-05
1.24186e-05
1.06832e-05
1.30452e-05
1.22058e-05
1.29432e-05
1.4211e-05
1.18027e-05
4.59765e-06
6.88773e-06
1.19296e-05
1.19125e-05
1.19114e-05
1.18523e-05
1.17883e-05
1.17535e-05
1.16942e-05
1.18834e-05
1.18121e-05
1.18676e-05
1.18693e-05
1.18637e-05
1.18498e-05
1.18808e-05
1.18978e-05
1.19236e-05
2.45169e-05
2.43166e-05
3.32868e-05
3.1168e-05
2.98641e-05
2.72049e-05
2.14507e-05
2.68936e-05
3.29396e-05
3.86641e-05
3.30005e-05
2.78702e-05
4.22146e-05
2.05902e-05
8.00103e-06
1.73681e-07
3.5874e-05
3.47136e-05
1.1548e-05
9.18896e-06
3.15552e-05
2.37565e-05
1.08921e-05
3.37563e-05
3.34966e-05
1.12094e-05
1.29028e-05
1.21011e-05
1.18718e-05
1.22246e-05
1.14645e-05
1.15483e-05
1.151e-05
1.17636e-05
1.16624e-05
1.15552e-05
1.14552e-05
1.02442e-05
4.41525e-06
1.26893e-05
1.15375e-05
1.03681e-05
1.08137e-05
1.09412e-05
1.08606e-05
1.08344e-05
1.12084e-05
1.13761e-05
1.13785e-05
1.13854e-05
1.14535e-05
1.14224e-05
1.13631e-05
1.13451e-05
1.12782e-05
1.12803e-05
1.12039e-05
1.11947e-05
1.12889e-05
1.12584e-05
1.12318e-05
1.12971e-05
1.11745e-05
1.11837e-05
1.11704e-05
1.11611e-05
1.11277e-05
1.1111e-05
1.1323e-05
1.10987e-05
1.10407e-05
1.1063e-05
1.115e-05
1.10074e-05
1.17484e-05
1.16994e-05
1.16767e-05
1.15083e-05
1.14774e-05
1.15707e-05
1.16446e-05
1.15947e-05
1.24513e-05
9.49557e-06
8.36075e-06
1.09685e-05
1.16706e-05
1.16094e-05
1.16319e-05
1.155e-05
1.14353e-05
1.1318e-05
1.16203e-05
1.16487e-05
1.13399e-05
1.14594e-05
1.14082e-05
1.12592e-05
1.1296e-05
1.13096e-05
1.44149e-05
1.35274e-05
1.47502e-05
9.82111e-06
8.42612e-06
9.69818e-06
9.08154e-06
6.75728e-06
1.43644e-05
1.21893e-05
1.37183e-05
1.16756e-05
4.12766e-06
3.30748e-06
1.19031e-05
1.18893e-05
1.18585e-05
1.17703e-05
1.1677e-05
1.16394e-05
1.15994e-05
1.18163e-05
1.16432e-05
1.17415e-05
1.17896e-05
1.17686e-05
1.17614e-05
1.17654e-05
1.1836e-05
1.18497e-05
1.7891e-05
2.35594e-05
3.01862e-05
2.30907e-05
2.00289e-05
1.46551e-05
2.47968e-05
2.87077e-05
3.9916e-05
2.41324e-05
3.81134e-05
4.04033e-05
2.42743e-05
1.45812e-05
4.74544e-06
3.84658e-05
3.97835e-05
1.13034e-05
1.15624e-05
7.33967e-06
3.26435e-05
2.78734e-05
3.24141e-05
2.97303e-05
3.25581e-07
9.30056e-06
1.23506e-05
1.24674e-05
1.2012e-05
1.23357e-05
1.14723e-05
1.13782e-05
1.14114e-05
1.16257e-05
1.15259e-05
1.14413e-05
1.14139e-05
1.01385e-05
1.03021e-05
1.21203e-05
1.24644e-05
1.05329e-05
1.07728e-05
1.09374e-05
1.0779e-05
1.08917e-05
1.10314e-05
1.13928e-05
1.14048e-05
1.14174e-05
1.14704e-05
1.14569e-05
1.13631e-05
1.13998e-05
1.13472e-05
1.12989e-05
1.13107e-05
1.12235e-05
1.12065e-05
1.13152e-05
1.12975e-05
1.12511e-05
1.12853e-05
1.13214e-05
1.1182e-05
1.12015e-05
1.1179e-05
1.11627e-05
1.11451e-05
1.11156e-05
1.11034e-05
1.1043e-05
1.10843e-05
1.104e-05
1.11719e-05
1.10215e-05
1.18076e-05
1.17843e-05
1.17457e-05
1.1536e-05
1.15152e-05
1.1606e-05
1.16832e-05
1.16596e-05
1.22572e-05
6.58216e-06
7.48295e-06
1.09573e-05
1.15502e-05
1.1501e-05
1.14653e-05
1.14557e-05
1.13163e-05
1.12654e-05
1.18821e-05
1.20833e-05
1.16525e-05
1.18458e-05
1.13354e-05
1.15879e-05
1.14877e-05
1.12552e-05
1.22049e-05
9.80402e-06
1.48265e-05
7.39064e-06
5.34984e-06
5.12303e-06
7.44347e-06
3.71706e-06
1.46201e-05
1.30258e-05
1.37778e-05
1.45735e-05
1.15473e-05
2.53855e-06
1.94372e-06
1.18291e-05
1.18203e-05
1.17826e-05
1.16808e-05
1.16149e-05
1.15057e-05
1.14537e-05
1.17067e-05
1.16306e-05
1.15573e-05
1.16707e-05
1.16602e-05
1.16567e-05
1.17046e-05
1.17394e-05
1.18027e-05
3.8948e-06
8.9609e-06
2.52089e-05
1.85808e-05
1.52168e-05
8.51371e-06