/*--------------------------------*- C++ -*----------------------------------*\
| =========                 |                                                 |
| \\      /  F ield         | OpenFOAM: The Open Source CFD Toolbox           |
|  \\    /   O peration     | Version:  v2012                                 |
|   \\  /    A nd           | Website:  www.openfoam.com                      |
|    \\/     M anipulation  |                                                 |
\*---------------------------------------------------------------------------*/
FoamFile
{
    version     2.0;
    format      ascii;
    class       volScalarField;
    location    "0.3";
    object      omega;
}
// * * * * * * * * * * * * * * * * * * * * * * * * * * * * * * * * * * * * * //

dimensions      [0 0 -1 0 0 0 0];


internalField   nonuniform List<scalar> 
13611
(
18.7771
15.58
77.2335
17.6987
20.0765
22.781
14.1679
28.9214
22.7558
20.8955
22.977
15.6938
17.9
82.1293
22.6407
21.1769
22.5695
22.4234
13.0116
17.7311
27.2909
22.753
22.6542
22.474
22.3696
22.3957
13.5283
19.9123
75.6912
22.7973
22.538
22.4335
22.2303
22.2346
21.9803
13.8039
18.2492
30.1518
22.7387
22.5301
22.2922
22.076
22.0725
22.0053
12.5081
18.8629
87.1237
13.1575
22.633
22.8106
22.409
22.2837
21.996
21.9256
21.8071
22.0142
15.4982
20.6117
33.3353
11.8582
22.6337
22.7375
22.3706
22.1834
22.8888
21.8805
22.0775
21.8022
21.6481
21.7126
15.032
20.797
78.3698
11.1933
22.5592
22.776
22.2778
22.4556
22.1831
21.9006
21.9989
21.6844
21.4584
21.5882
21.6028
18.102
21.3269
39.5108
9.47483
22.6086
22.7668
22.287
22.3796
22.1033
22.8658
21.8275
22.0061
21.7133
21.3653
21.4691
21.3362
17.5732
21.255
23.2009
10.1917
22.7092
22.5237
22.1969
22.4118
22.1092
22.8594
22.9408
21.8574
21.9507
21.6427
21.2803
21.4553
21.1698
21.1695
19.7906
20.9059
21.1217
83.2073
8.72844
8.32166
22.7494
22.5541
22.2167
22.3358
22.0084
22.9388
21.7744
21.6846
21.541
21.3268
21.0079
20.9424
18.3012
20.8265
20.8961
31.6895
6.24055
11.6399
22.7506
22.4932
22.6717
22.1771
22.3379
21.9514
22.8576
23.0223
21.7752
21.6144
21.5247
21.284
21.0623
20.8353
20.88
20.8791
20.7289
20.7171
20.7833
83.5444
10.729
9.53021
22.413
22.5405
22.6913
22.1048
22.2495
21.8597
22.0136
22.8621
23.0276
21.6862
21.6114
21.4728
21.1872
21.3773
20.9971
20.8942
15.3549
20.6637
20.4958
20.6346
20.5296
32.2535
6.5878
22.4089
22.6273
22.4774
22.789
22.1143
22.2544
21.8652
21.9429
22.9506
23.116
21.6979
21.5129
21.1608
21.3267
21.0472
20.8153
15.7361
20.4884
20.4147
20.3815
20.4866
20.7167
10.7274
84.3163
11.7081
22.3441
22.6586
22.5218
22.8203
22.0581
22.1953
21.7876
21.966
22.9916
23.1727
21.623
21.5222
21.2272
21.374
21.0273
20.7844
18.4955
20.4383
20.172
20.273
20.5308
20.6581
7.23126
30.6266
13.2161
22.3015
22.6178
22.7548
22.4899
22.9229
22.0864
22.2192
21.7797
21.9213
23.1038
21.623
21.4641
21.2064
21.3552
20.9555
21.1208
20.8604
20.6758
17.0993
20.3875
20.0797
20.0424
20.1478
20.3419
20.4637
8.80667
11.1371
78.0234
22.3446
22.6583
22.7445
22.5564
22.4324
22.9728
22.1709
22.0426
21.7037
21.8505
21.9702
23.1215
21.5644
21.4943
21.2766
21.4212
20.9698
21.1133
20.8364
20.6219
18.4448
19.9378
19.8524
19.8131
19.9388
20.1059
20.2945
20.5016
7.46795
12.0683
40.9912
22.2898
22.6351
22.8226
22.527
22.4547
22.9266
23.0774
22.2055
22.0817
21.6885
21.8574
21.9293
23.2332
23.3141
21.5953
21.2606
21.413
20.9002
21.041
21.1845
20.7736
20.6797
15.9832
19.9873
19.6325
19.8103
19.983
20.1837
20.3661
20.4665
10.4351
25.0877
22.3176
22.7161
22.8067
22.5901
22.405
22.9906
23.1355
22.1597
22.0405
21.7449
21.82
21.9654
23.229
23.4016
21.5925
21.3277
21.4796
20.8953
21.0349
21.1766
20.7633
20.6406
16.9003
19.526
19.397
19.5693
19.7109
19.9125
20.1843
20.293
20.5482
4.52812
83.7124
7.55735
22.2737
22.6874
22.8789
22.5962
22.444
23.0974
22.9634
23.1523
22.1929
22.0751
21.7443
21.8575
21.9234
23.3009
23.3866
21.6808
21.5375
21.3076
21.4761
20.8213
20.9635
21.1029
21.2395
20.6836
16.5613
19.3173
19.5746
19.4773
19.7674
19.979
20.1094
20.341
20.5239
10.1308
37.4039
3.70793
22.3111
22.7454
22.887
22.539
22.6845
22.3976
23.0923
23.0211
23.25
22.1547
22.0366
21.8037
21.9569
23.4897
21.6676
21.5274
21.3741
21.4431
20.8212
20.9626
21.1035
21.2557
20.6758
18.7727
19.1227
19.3161
19.493
19.2122
19.5497
19.6991
19.9635
20.1406
20.3132
20.4564
20.5976
11.9183
10.7653
90.0997
7.81931
23.6216
24.11
22.2915
22.834
22.9713
22.5705
22.7155
22.4326
23.1749
23.3194
22.2128
22.0854
21.8353
21.9215
23.613
23.5044
21.593
21.7284
21.3353
21.4818
20.7485
20.8935
21.0333
21.1739
21.2362
17.0122
19.0086
19.2593
19.2569
18.9739
19.5145
19.7723
20.0597
19.894
20.2368
20.3807
20.4589
20.6064
10.6508
36.6776
9.82233
22.8635
23.1838
22.6113
16.2025
77.8064
22.3582
22.873
23.0259
22.658
22.5125
22.813
23.2874
23.2116
23.4525
22.1723
22.0522
21.8055
21.9707
23.6419
21.5618
21.7476
21.3489
21.4727
20.7665
20.8968
21.0363
21.1746
21.287
18.3938
18.8466
19.0994
19.3758
19.0661
18.7919
19.6064
19.7166
20.069
19.9269
20.2301
20.3819
20.5311
20.6919
5.02994
80.4333
7.64807
16.5094
21.5465
22.441
22.9499
22.4204
16.4924
26.859
22.3629
22.9664
23.1502
22.6979
22.5493
22.8299
23.4064
23.3439
23.5661
22.2145
22.0877
21.8736
21.9475
23.7336
23.6801
21.5935
21.8371
21.7325
21.4135
21.5316
20.8429
20.9739
21.1094
21.2342
21.2866
18.7684
19.0659
19.3271
18.8666
18.6067
19.6088
19.7748
20.0192
20.1608
19.8696
20.3047
20.4604
20.5356
20.6963
7.78447
43.0705
10.8211
17.755
22.6542
22.2126
22.4573
22.6189
22.4636
22.8381
18.214
78.724
22.3042
22.4477
23.0236
23.218
22.7847
22.6458
22.5145
22.9387
23.5446
23.4082
22.1731
22.0841
22.0107
23.9953
23.8701
23.8159
21.6721
21.8594
21.7947
21.4143
21.5433
20.878
20.965
21.1047
21.2771
21.3557
18.595
18.8558
18.9912
19.2065
19.4225
18.7953
18.54
19.551
19.7137
20.0656
20.1524
19.9139
20.3142
20.4708
20.6182
20.7862
1.98816
25.6517
16.4873
8.01284
18.4721
20.8599
22.032
22.2288
22.4154
22.6918
22.3598
22.8828
17.1455
25.0692
22.3487
22.4681
23.1598
23.017
23.3424
22.8566
22.6958
22.5658
22.9528
23.7369
23.6129
22.2141
22.1535
21.9913
23.9448
23.9855
21.6799
21.9282
21.8155
21.4787
21.6183
20.8686
21.025
21.1716
21.3508
21.2462
18.5568
18.8451
19.0511
19.1569
19.365
18.398
18.2443
19.6214
19.7617
20.0241
20.228
19.878
20.4002
20.5577
20.6273
20.7716
5.85751
81.8869
18.0305
10.8164
18.4004
21.0961
21.9508
22.0668
21.9259
21.9651
22.6102
22.4459
22.7835
15.2771
76.5912
22.2951
22.4297
22.5342
23.2218
23.1253
23.4752
22.8617
22.6449
22.8002
23.0579
23.9699
23.759
23.6501
22.1768
22.0613
24.3495
24.2264
24.2523
21.7513
21.953
21.9012
21.4839
21.6234
20.9542
21.034
21.1777
21.4129
21.2936
18.4016
18.7112
18.952
19.2325
19.4347
18.1954
18.2304
19.7377
19.5674
20.0943
20.2632
19.9574
20.4388
20.5957
20.7067
20.846
2.70155
30.3708
16.3517
8.08124
18.2354
16.2743
21.7229
22.0835
21.7111
22.3629
22.6627
22.3777
22.8736
22.7649
28.3656
22.3116
22.4738
22.5759
23.3618
23.1657
23.4907
22.9854
22.6544
22.8908
23.0874
24.2355
24.04
23.8656
22.1377
22.2625
22.0237
24.6002
24.4972
21.7588
21.9386
21.5562
21.6911
20.9761
21.1148
21.2422
21.4115
21.3664
18.389
18.6846
19.0075
19.1769
19.4504
17.9899
18.0303
19.8314
19.6557
20.0655
20.2099
20.3806
19.9367
20.5393
20.6941
20.7474
20.8211
20.923
7.67958
82.7792
17.484
10.2495
18.0586
14.8085
21.7554
22.2548
21.9553
21.5544
21.4671
18.5938
22.2319
22.5655
22.4539
22.8656
22.6643
83.5679
14.2845
22.3986
22.4732
22.567
23.4733
23.3621
23.746
23.0069
22.7502
22.8645
23.251
24.2732
24.5121
24.0774
23.9166
22.1886
22.3124
22.0733
24.8272
24.7952
21.8402
21.9077
22.03
21.5546
21.7291
21.078
21.1424
21.2811
21.4882
21.4135
18.2713
18.539
18.8186
18.9709
19.2685
19.4077
19.5845
17.7859
18.066
19.8625
19.7587
20.1445
20.2641
20.4331
20.0283
20.5735
20.7048
20.872
20.9502
3.26707
30.4615
15.3056
17.9433
7.63608
17.9474
17.7952
21.6223
22.2033
21.9844
21.2637
21.4133
18.3215
22.2117
22.5592
22.3712
22.7696
22.6634
28.0721
11.8717
22.3957
22.5939
22.6717
23.6874
23.4001
23.1621
22.7723
22.9726
23.3083
24.6537
24.7916
24.3991
24.168
22.1588
22.2775
25.1846
25.2002
21.8501
21.9584
22.0645
21.6267
21.6984
21.815
21.1033
21.2303
21.3725
21.4841
18.3083
18.5574
18.8107
19.1224
19.263
19.4817
19.5998
17.6998
18.0091
19.8098
19.9778
19.8025
20.121
20.2378
20.3744
20.5325
20.6652
20.7953
20.8669
21.0321
8.36118
82.0967
16.5273
17.7101
10.026
17.6831
17.5922
21.6712
22.1112
22.2656
21.9181
21.2456
21.0789
21.5411
19.9249
12.824
21.9089
21.4915
22.4908
22.3874
22.9501
22.7708
22.6069
77.4087
22.5087
22.6157
22.6942
23.8889
23.6235
23.2501
22.8813
23.1434
23.4798
24.7003
24.9142
25.1541
24.4319
24.3361
22.2238
22.3298
25.5795
25.6007
21.9169
22.0323
22.1714
21.6296
21.7485
21.8434
21.2049
21.275
21.4183
21.5584
18.4177
18.1482
18.689
18.9323
19.0551
19.4096
19.5365
19.7007
17.5283
17.8356
19.8802
20.0415
19.8023
20.2058
20.3004
20.3966
20.5968
20.7304
20.8117
20.9488
21.0593
3.44845
31.1211
15.1176
17.705
7.42642
17.5673
17.453
21.8193
22.0534
22.2102
21.9605
21.259
20.8891
21.5501
20.1851
11.4803
22.0033
21.1569
22.5232
22.3588
22.8547
22.6671
26.9673
22.5155
22.732
22.842
23.8502
24.2278
23.6466
23.5083
22.9519
23.2712
23.626
25.1484
25.2843
25.5546
24.8277
24.7183
22.3224
22.2435
22.4467
26.062
26.2596
21.9114
22.1176
22.2089
21.6944
21.8182
21.2231
21.2756
21.3806
21.5133
21.5653
18.3395
18.1991
18.6115
18.8729
19.1132
19.4202
19.7073
19.7858
17.4822
17.834
19.9848
20.1752
19.9551
20.3171
20.2466
20.5015
20.7066
20.6115
20.9027
20.9731
21.0263
21.1626
8.96511
83.5245
16.1889
17.5001
7.692
17.3229
17.3116
21.7646
22.1002
22.2628
21.8938
21.1628
21.4421
21.007
20.7713
21.6672
16.0736
21.4255
12.5474
21.2676
22.4274
22.8238
22.6415
76.8121
22.6566
22.8297
22.8638
24.1477
24.5181
23.8958
23.6471
23.1499
23.5104
23.8587
25.1643
25.6394
25.7331
26.0985
25.1253
22.4232
22.3785
22.5029
27.255
26.686
26.4764
26.8693
22.0038
22.1109
22.3275
21.717
21.8941
21.3156
21.3748
21.4376
21.5397
21.6471
18.7111
18.4374
18.0226
18.6881
19.1183
19.4088
19.7943
19.8137
19.9463
17.3393
17.6522
20.0924
20.2504
20.0851
20.4358
20.4112
20.5301
20.5928
20.7945
20.739
20.9554
21.0522
21.0915
21.2011
4.27072
29.9162
16.1225
17.4804
5.68218
11.9951
17.1979
17.2669
21.8011
22.0611
22.2342
21.9021
21.2145
21.4059
20.9518
20.6735
21.6242
15.0449
21.5567
11.0811
20.8276
22.4446
22.9893
22.7244
22.8959
22.5614
38.4219
22.6046
22.7856
23.0218
23.0527
24.1206
24.4625
24.9656
23.9761
23.2881
23.6781
24.0496
25.6771
26.3874
26.5605
26.7394
25.7483
22.466
22.4216
28.1958
27.6323
27.6887
22.0006
22.2304
22.4043
21.8206
21.9027
21.3684
21.3958
21.513
21.6311
21.6858
20.1289
17.805
18.0106
19.1413
20.4468
20.19
20.9731
20.0462
20.261
20.2033
17.2335
17.8017
20.2436
20.4218
20.2459
20.5001
20.4995
20.6487
20.6914
20.9096
20.7913
21.0898
21.1308
21.169
21.3079
7.38197
77.1826
17.1228
17.4353
5.04765
11.819
17.0306
16.9904
21.759
21.9798
22.1396
22.3142
21.8118
21.3211
21.1353
21.4767
21.026
20.8055
20.4848
21.5528
21.6793
17.0652
21.0293
20.5514
12.2782
20.6485
22.4022
22.7014
22.8659
22.5472
31.0149
22.7017
22.9537
23.1687
23.2291
24.4436
24.7816
25.2798
24.0905
24.1408
23.5694
23.9557
24.3772
26.3293
25.9773
27.138
27.2072
27.6333
26.2798
22.6157
22.5623
28.3679
28.1438
22.1063
22.2239
22.3673
22.5687
21.8636
22.0209
21.4906
21.5054
21.5897
21.6867
21.7961
17.0572
18.9328
17.9292
17.1112
17.8291
19.0927
20.1063
20.0434
21.1493
21.2827
21.2029
20.4691
17.0314
17.3366
17.4504
20.4175
20.5497
20.4646
20.6685
20.6949
20.7429
20.7588
21.0272
20.9157
21.2256
21.239
21.2356
21.3302
4.69486
36.085
16.8268
17.1329
7.78928
14.0376
16.8979
21.9948
22.1334
22.2868
21.8401
21.3205
21.0997
21.3997
20.9694
20.7727
20.4835
21.5431
21.6219
15.2836
20.9229
21.1498
10.4159
20.3421
22.4619
23.0407
22.6108
22.7714
22.9377
76.1406
14.4234
22.8834
23.1425
23.3654
23.3973
24.7715
25.1685
26.015
24.4611
24.4321
23.6805
24.2259
24.6121
27.0397
26.8033
27.9662
27.9616
28.0439
26.3768
27.0608
22.6716
22.6374
28.9671
28.9843
28.9321
22.1189
22.3541
22.5156
22.6988
21.9779
22.0538
21.5523
21.5498
21.6087
21.6527
21.7992
21.8702
13.4633
16.3949
16.7853
17.1998
17.0385
15.3252
17.3073
16.4601
19.9323
21.1958
21.3111
21.0592
17.0138
17.219
17.4724
16.8117
20.7719
20.6705
20.8033
20.8745
20.922
20.9149
21.1941
21.0219
21.0086
21.3869
21.3718
21.4513
3.25207
19.8633
17.6094
16.9268
7.52882
14.103
16.7786
21.9374
22.0776
22.2158
22.3476
21.7756
21.25
21.0034
21.1576
21.3896
20.8735
20.662
20.3098
21.4788
21.6751
17.3222
20.5744
19.9894
8.10586
20.1916
22.4342
23.1325
22.5912
22.7561
22.9304
91.7004
9.92751
22.999
23.3627
23.6088
23.6116
25.2709
25.6549
26.1643
24.7539
24.5423
24.7203
23.9819
24.2038
25.0974
27.8722
27.2189
28.5963
28.5008
28.7438
27.2703
27.6244
22.8333
22.8506
29.2869
28.7865
22.2331
22.3577
22.5002
22.6843
22.8742
22.0606
22.2094
21.6995
21.5577
21.6701
21.726
21.8285
21.8963
22.0065
25.1122
18.4213
15.3566
20.9496
16.893
19.976
19.3468
20.4461
17.4037
19.3151
18.7989
21.3536
21.3001
16.8397
17.0385
16.8142
16.4422
21.0987
21.1663
21.0858
21.1503
20.9602
21.1238
21.3448
21.1913
21.1658
21.5458
21.4108
21.4886
2.83346
79.9748
3.49048
17.1749
16.2026
16.6688
10.9373
16.6319
21.9785
22.1114
22.1868
22.3175
21.7936
21.2639
20.9494
21.0817
21.3509
20.8068
20.6948
20.326
21.4915
21.6337
12.8591
20.1358
20.3156
20.9267
20.1033
22.4989
23.2597
23.1082
22.6629
22.8372
23.0184
46.1574
9.25472
22.9771
23.2628
23.3992
23.6116
23.8784
23.8793
25.7579
25.402
26.7761
25.2913
25.0305
25.167
24.0897
24.5297
28.1064
27.9311
28.6489
28.8553
28.7794
27.3575
28.0532
22.9352
28.1463
27.0688
28.283
22.2919
22.5444
22.663
22.8987
23.0627
22.1951
21.7572
21.7915
21.6937
21.8756
21.9322
22.0745
22.1407
42.5454
25.8546
43.5357
19.8365
45.6162
17.4394
39.1262
43.157
33.3487
14.96
18.0473
18.7374
21.5235
22.1874
16.7989
16.8101
16.9435
16.2433
16.4456
21.5643
22.0612
21.2552
21.2627
21.5257
21.2574
21.3434
21.5675
21.4362
21.7026
21.6456
21.6111
21.6456
0.958727
26.3248
0.512229
16.9492
16.5821
16.4738
10.9965
16.5159
22.0695
21.9423
22.2337
22.3749
21.8774
21.7502
21.2144
20.9905
20.8415
21.1073
21.4029
20.616
20.5005
20.1718
21.5639
21.6827
13.1304
19.9342
19.9013
20.5655
17.6949
19.9644
22.4682
23.3071
23.1705
22.6638
22.8399
23.0157
30.7646
7.11403
23.1907
23.3343
23.6826
23.8707
24.1743
26.4499
26.1924
26.9452
25.7826
25.4612
25.2284
25.7096
24.3283
24.9569
28.3601
28.0624
27.9422
27.6888
28.3785
28.078
27.812
28.4316
23.142
25.5154
26.7697
22.4812
22.6722
22.8646
23.0914
23.2883
22.3185
21.9169
21.9543
21.7638
21.9855
22.1214
22.2028
22.3005
71.4722
60.4464
68.8988
36.0083
46.6547
73.1943
71.7522
54.2415
65.3613
42.5148
23.9024
15.2204
19.7482
29.5699
21.5225
16.62
16.4155
16.7948
15.7185
19.3996
22.344
22.4513
21.7001
21.7589
21.9294
21.4586
21.5782
21.7684
21.6919
21.9322
21.9559
21.7226
5.45118
4.77448
79.3053
3.9301
16.8707
16.5409
14.1708
16.4112
22.1045
21.9958
22.1949
22.3868
21.855
21.7851
21.2653
20.9278
20.7903
21.0923
21.4112
20.633
20.4645
20.1485
21.57
21.635
19.7106
20.1831
18.3596
19.908
22.5362
23.252
23.1773
22.7664
22.6184
22.935
23.0985
85.1811
13.2841
12.278
23.5299
23.7389
23.9082
24.1614
24.5452
26.6646
26.2638
27.5153
26.3228
26.1144
26.044
24.6481
25.386
27.961
28.3216
28.4229
25.7211
25.1725
27.6642
26.9518
28.2358
28.0767
23.3213
26.2595
25.8245
25.0923
22.5468
22.7912
22.943
23.2954
23.5381
22.4899
22.0436
22.1125
21.9845
22.166
22.2504
22.437
22.4261
98.7181
96.3764
47.6086
70.0285
85.9256
110.091
105.03
122.568
78.4625
47.0247
25.1855
21.4424
45.8765
21.0093
16.5998
15.6539
16.5567
16.721
18.4678
40.4429
22.7348
21.2646
22.0191
22.1252
22.7119
21.9365
21.8084
22.0985
22.087
22.1012
22.1236
22.2177
21.9434
1.20934
21.626
5.71047
16.8559
16.3189
14.7252
16.2891
22.0785
21.9775
22.2416
22.4775
22.3335
21.8994
21.7595
21.3536
21.2437
20.9395
20.848
20.714
21.1728
21.0134
21.5043
20.5357
20.3788
20.2709
19.9998
21.6752
19.7405
19.6123
20.0856
19.5771
23.4113
23.3049
22.758
22.6731
22.9074
23.0931
42.7644
10.0554
12.104
23.7026
24.0966
24.249
24.5397
24.9794
27.251
26.8792
27.6206
26.5099
26.8631
26.3933
26.0204
25.2393
25.9815
26.7474
24.5411
24.2949
24.2977
24.9298
24.1397
27.9721
27.6704
26.7336
23.6114
33.3116
29.4542
24.9947
22.7669
22.9156
23.1915
23.5456
23.4702
23.8302
22.6226
22.2481
22.3628
22.1038
22.3335
22.4781
22.5966
22.5367
22.6159
95.4698
115.07
51.9314
69.2904
85.9001
93.1355
116.773
132.906
131.718
132.197
78.1215
127.065
60.2702
42.2451
21.3344
110.261
16.4538
14.8954
16.1614
16.6009
34.6789
45.0479
22.1222
20.5793
22.8779
22.9905
22.9074
22.4163
22.136
22.3856
22.3776
22.379
22.4344
22.5212
22.6881
3.75837
1.94069
74.2703
11.8531
16.0674
16.6399
16.2411
16.1794
16.2962
22.1485
22.0394
22.2249
22.5068
22.3569
21.8895
21.814
21.3671
21.2971
20.8534
20.8098
20.7278
21.1648
21.0141
21.5032
20.5188
20.3658
20.1844
19.9734
21.6484
19.7232
19.4209
19.8506
20.0427
23.5174
23.2856
22.8233
22.6553
22.9606
23.1944
23.0488
32.4771
8.48221
16.4828
24.0411
24.3428
24.5709
24.9443
25.5377
27.5411
27.4816
27.8831
27.0173
27.2183
27.0207
26.4367
25.654
25.5447
24.1665
26.0424
22.4403
23.7296
23.7299
23.4041
26.944
27.8844
26.1294
26.0541
23.8849
37.0356
28.0042
22.7869
22.9219
23.1818
23.4142
23.9013
23.8411
24.1298
22.4571
22.6521
22.4019
22.6131
22.7183
22.8983
22.7881
22.8418
91.0023
96.05
67.877
71.8198
72.8515
67.3878
121.094
129.756
144.457
140.053
132.777
154.167
109.496
68.2866
23.256
156.383
122.086
16.5729
12.6495
29.2321
16.6737
43.9317
59.0182
21.389
21.9858
23.0398
23.2652
22.4953
23.1734
22.8576
23.1419
23.0008
22.6068
22.7216
22.874
23.0877
3.60918
0.875369
20.1169
13.4516
15.8225
16.5904
15.9958
16.0807
16.1388
22.1191
22.0369
22.2852
22.5932
22.4352
21.965
21.7829
21.4346
21.3037
20.8582
20.6834
21.2318
21.0913
20.9507
21.576
20.456
20.6036
20.3097
20.2027
20.0867
19.8667
21.7064
19.6191
19.2126
19.4753
20.0857
19.2991
23.5579
23.3958
22.8029
22.731
22.9392
23.1912
23.1019
87.5086
13.559
6.40509
16.2143
24.3632
24.8512
24.9799
25.4766
25.9171
27.9328
27.5641
27.2261
27.5498
27.097
27.0207
26.2603
23.9362
23.8605
23.9699
25.7854
26.1585
27.9604
32.7191
25.7493
26.9087
25.8587
24.0751
24.2631
76.5997
50.7421
23.0315
23.2463
23.3731
23.7189
24.1687
24.1808
24.5777
22.7704
23.0152
22.6534
22.875
23.0659
23.1594
23.0992
23.0582
23.0538
58.4907
73.9121
68.2984
69.7138
66.9701
60.9574
48.7862
95.3055
124.108
154.611
126.948
137.317
159.304
140.374
67.4385
35.1309
181.093
159.59
16.4554
15.2197
42.3117
26.1606
16.0306
58.9763
68.0202
22.0721
21.8581
22.5065
23.2165
22.3524
23.4982
23.287
23.3664
22.9927
23.2157
23.4674
23.7106
7.98823
0.166222
71.7003
2.59153
13.1284
16.2692
16.3021
15.909
15.949
16.1786
22.1674
22.1026
22.2857
22.6246
22.4383
21.9465
21.8245
21.4463
21.3826
20.8186
20.7367
21.2586
21.0744
20.9352
21.5786
20.4939
20.5745
20.3499
20.1975
20.0105
19.8986
21.7064
19.681
19.2202
19.3718
19.8526
18.9763
23.6792
23.5176
23.3738
22.8593
22.7066
23.0092
23.2714
23.1001
45.3598
12.8449
9.7472
18.337
24.816
25.1537
24.9895
25.4392
25.9323
26.4528
27.6265
27.4982
27.5041
27.4632
27.3133
27.1521
27.1184
26.5782
23.9969
25.6388
23.3561
35.3439
41.3249
36.0125
38.1688
50.7475
23.8393
26.926
24.6576
24.6808
79.9484
107.326
23.275
23.4556
23.6636
24.0832
24.5602
24.6192
24.869
23.0299
23.5613
23.1083
23.278
23.397
23.5395
23.5661
23.4183
23.3966
44.678
68.127
67.9153
39.3497
32.8644
25.0834
87.2987
150.177
159.517
110.953
163.859
166.545
181.068
134.497
52.3599
180.695
194.628
16.2262
16.3673
14.1611
50.0995
32.4669
57.754
54.3351
34.163
24.8791
22.3824
22.3112
23.1761
22.6819
23.845
23.9343
23.9645
23.4012
23.6526
23.8972
24.0489
7.85191
4.04025
29.1813
0.861091
14.7808
16.1075
16.2603
15.659
15.8721
15.9686
22.2393
22.1148
22.3698
22.5972
22.5194
21.8919
22.0108
21.7695
21.519
21.4116
20.8611
20.7098
21.3532
21.2172
20.9898
21.1388
21.6477
20.4375
20.6273
20.2848
20.1152
20.0096
19.8084
19.5787
19.1062
19.4336
19.1173
19.8724
18.9485
23.7832
23.6417
23.4694
22.8463
22.7598
23.0149
23.293
23.2029
39.6865
7.40555
8.34071
18.0799
25.1961
25.5472
25.561
25.7579
26.4175
26.7235
27.2259
26.8721
27.2006
27.1751
27.3647
27.2701
27.1593
27.0398
28.2833
35.3309
23.2119
47.1111
65.3241
68.4462
46.6575
95.4851
23.4666
25.6252
24.5443
23.4876
25.1581
135.411
171.053
23.5777
23.7529
23.9349
24.3646
24.7458
25.0547
25.3663
23.4747
23.5552
23.8903
23.6368
23.8131
23.8814
23.851
23.7652
23.6476
16.9643
24.4948
45.0277
30.2463
25.6253
18.4278
13.3382
63.7117
137.969
107.492
167.053
71.057
172.407
223.058
151.372
109.134
181.69
194.095
201.927
16.1286
16.3276
13.6625
50.3076
57.5337
32.3292
46.4458
54.5424
41.3576
68.4002
34.9187
22.885
22.5974
23.0519
23.6962
23.9726
23.9943
24.2516
24.4581
24.4282
11.0545
3.16834
22.7124
1.09097
14.6056
16.2554
16.0227
15.6819
15.626
16.25
22.2878
22.213
22.0782
22.3701
22.6634
22.5061
21.9123
21.9751
21.7827
21.5313
21.4893
20.8391
20.7674
21.3595
21.2577
20.9898
21.1346
21.6566
20.4772
20.6334
20.3233
20.1305
19.9324
19.8071
19.5778
19.1775
19.3296
18.7477
19.3417
18.8119
23.7758
23.5936
23.3991
22.9228
22.7475
23.1391
23.2349
98.8371
16.6036
7.2042
12.3521
18.9103
25.6066
25.9315
25.9357
26.2689
26.5003
27.0355
25.9894
25.628
26.6278
26.3844
27.0905
26.3519
26.8995
27.0911
36.4605
29.3913
29.7177
81.3163
100.815
96.5644
72.0044
140.371
24.696
26.2632
23.6213
24.2365
25.6528
206.685
229.361
223.893
23.94
24.0463
24.2393
24.9123
25.3998
25.517
25.1649
25.6068
25.6674
24.1266
24.4553
24.1839
24.2507
24.357
24.1961
24.2118
23.9021
16.3068
18.2959
21.6354
17.9467
17.0977
15.5602
15.0594
27.8715
101.913
46.8491
167.425
28.2511
218.508
219.549
127.976
188.427
198.803
181.373
13.6285
16.3935
23.4892
52.8596
53.6219
43.2113
50.1519
42.4238
27.3699
76.2622
42.4108
26.9617
22.9036
23.24
34.7049
28.7305
23.8561
24.3551
24.4977
24.3248
23.679
11.3814
7.14442
70.0405
6.33923
0.00813555
15.8828
16.1569
16.0519
15.7869
15.4358
16.2078
22.2799
22.2087
22.1366
22.4342
22.6387
22.5594
21.8572
22.0255
21.7256
21.6037
21.5372
20.9051
20.7159
21.3229
21.4416
21.1972
21.0673
20.5776
20.4292
20.2998
20.2264
20.0502
19.9593
19.7834
19.4911
19.6986
19.0654
19.351
18.6334
19.2477
18.8915
23.9113
23.7355
23.4652
22.929
22.8314
23.1316
23.3685
52.4792
24.9081
6.17238
10.5793
19.4031
26.0053
26.4026
26.2987
26.8328
26.9915
25.1
24.7007
25.5172
25.0753
26.4877
25.4919
26.2873
27.054
64.645
50.3132
45.6271
96.0287
106.471
150.057
155.263
100.623
194.743
30.9867
36.271
24.121
31.1401
26.0833
270.227
308.357
305.088
24.172
24.5831
24.6716
25.0633
25.8138
25.713
25.8791
25.9594
24.7707
24.6126
24.8088
24.391
24.8159
24.5233
24.8883
24.5199
24.2988
19.261
18.6155
19.166
16.6748
15.0994
14.5296
15.5075
18.9973
15.6822
89.353
47.959
29.6744
162.316
190.692
220.325
202.759
166.207
203.718
165.589
194.131
13.138
13.8639
25.7442
51.3869
45.4376
44.2783
52.7102
27.7353
15.9966
25.1087
125.889
70.0316
22.836
28.2714
63.9002
45.9043
24.7502
24.6991
24.0411
22.7225
14.4157
6.4601
83.611
4.30698
0.513104
15.9518
15.719
15.2769
15.4149
15.9911
22.363
22.2754
22.1099
22.4371
22.7057
22.5752
21.8687
22.002
21.7369
21.6079
21.5055
20.8966
20.7544
21.3783
21.4445
21.1997
21.0565
20.6062
20.4696
20.3831
20.2493
20.0777
19.8753
19.5294
19.7118
19.0795
19.2914
18.5191
19.0683
18.7663
24.1299
24.0431
23.95
23.6361
23.0296
22.8575
23.2441
23.4453
95.1951
10.3695
6.12131
12.4391
17.2748
19.2964
26.3417
26.6706
26.6768
26.8524
26.9994
26.8486
23.4226
23.3192
24.1702
24.1487
25.851
24.4791
25.8205
25.661
26.7204
67.9036
96.7464
65.639
148.599
156.503
210.678
219.466
149.464
257.475
231.987
38.1147
55.2639
28.5237
35.2993
26.4575
387.336
390.404
24.6604
24.9777
25.5115
26.1886
25.948
25.8325
26.2035
26.3781
24.7642
24.8634
25.1281
25.215
24.8414
25.0549
25.1688
25.4194
25.1019
24.8024
19.037
18.9622
18.8798
18.889
16.9804
17.0088
17.8507
19.1438
19.4892
17.7647
30.0402
115.681
11.2663
18.7628
200.347
209.538
203.772
132.752
212.744
120.981
138.231
215.557
19.4381
13.5764
36.672
40.6811
33.5533
47.2754
47.8691
20.4143
13.7733
16.3916
127.093
88.2634
22.1495
43.4446
26.3419
81.5545
64.8137
24.6233
23.9619
23.1058
23.4938
14.5525
10.4151
40.5244
1.0221
4.10491
15.5525
15.8817
16.0177
15.2847
15.7449
13.8409
22.3602
22.2872
22.1609
22.509
22.6539
22.7985
21.9416
21.8086
22.0615
21.6732
21.5565
20.8421
20.9846
20.694
21.3573
21.5001
21.12
21.2803
20.5602
20.4542
20.3347
20.1796
20.0027
19.8963
19.4891
19.6462
19.8194
18.9671
19.2072
19.3878
18.6118
18.313
18.5006
18.7925
24.4264
24.3528
24.2077
23.751
23.0582
22.9847
23.3865
23.1726
23.6424
46.44
4.9161
9.91422
17.9531
18.8559
26.6319
26.7221
26.7684
26.8328
26.8241
26.6245
23.8323
23.8376
24.1358
23.1005
24.6251
23.8956
24.251
24.8096
24.8215
25.9466
103.108
147.673
107.136
176.084
206.296
288.087
300.813
198.231
324.764
312.862
57.8248
73.9748
31.9508
57.3927
26.503
26.6719
439.077
399.378
479.682
24.9903
25.5018
25.6197
26.1854
26.2749
26.1897
26.4978
24.678
25.1199
25.2081
25.178
25.0307
25.4827
25.3045
25.4232
25.6131
25.4334
25.1989
19.5425
18.6168
19.5009
20.3367
17.2513
18.4396
18.9607
18.3933
18.5839
18.2334
89.108
17.2262
18.9926
218.924
213.657
265.595
180.117
51.2399
71.5574
219.024
21.9667
17.7712
39.2092
40.4475
33.2702
19.9478
45.0418
48.241
14.5606
16.77
186.527
164.458
58.3273
37.7181
148.052
117.611
24.4287
23.3484
23.2171
27.2822
15.4339
9.87993
17.5723
3.36713
2.73758
15.4873
15.7154
16.137
15.6571
15.1463
13.1131
22.4336
22.4
22.2453
22.1321
22.5518
22.7182
22.8491
21.9607
21.8385
22.0271
21.704
21.629
20.8778
20.9634
20.7056
21.4487
21.3435
21.5357
21.1294
21.2893
20.5934
20.521
20.3824
20.2112
20.0355
19.5637
19.6819
19.8539
18.9844
19.2713
19.3887
18.4784
18.2964
18.2845
18.7422
24.7222
24.5941
24.1969
24.5493
24.0093
23.0166
23.5725
23.2302
23.8475
26.5477
8.85824
13.3766
18.6401
18.7987
26.8169
26.7593
26.7704
26.6657
25.9611
26.7507
26.1484
24.379
25.0237
24.2003
23.6444
23.656
23.5887
25.3546
125.115
145.179
199.116
128.796
232.906
262.38
356.202
390.492
263.923
391.908
75.2297
78.126
111.532
48.5027
62.3034
77.5938
26.5612
26.652
596.974
487.675
602.608
25.4731
25.8107
26.0471
26.3551
26.5081
26.3647
26.2383
26.5965
24.4023
24.6435
25.2326
25.5588
24.6245
25.5733
25.6068
25.6889
25.6515
25.4762
25.7027
25.5401
18.9221
18.4632
19.6665
19.8057
20.2656
17.657
17.9724
17.8261
18.2109
20.8074
19.2278
34.3421
20.2987
21.121
225.526
228.403
225.322
246.589
165.954
27.6022
44.0926
54.7726
207.647
33.4314
18.239
31.1092
23.2621
16.5585
45.2167
40.1416
15.3778
17.192
206.693
94.9511
44.1665
167.27
196.315
144.661
23.8633
24.954
31.5963
15.6288
13.121
74.8789
0.886727
6.30701
15.2936
15.7419
14.2777
15.4014
15.0571
14.8388
22.5187
22.4589
22.3882
22.3024
22.1939
22.6677
22.8177
22.9572
21.9183
21.7962
22.0836
21.6788
21.6696
20.8564
21.019
20.6596
20.789
21.4082
21.5089
21.6304
21.2304
21.1001
21.3613
20.5446
20.3958
20.4947
20.3227
20.1383
19.962
19.6463
19.4781
19.7892
18.8693
19.1144
19.2433
18.4265
18.1285
18.0916
18.6735
25.0245
25.4883
24.9483
24.5694
24.9014
24.1711
23.1322
23.5711
23.8094
23.4157
24.1203
82.0365
5.10569
13.4207
18.749
18.2895
26.7493
26.5132
26.6678
26.0669
25.482
30.4865
34.037
30.6781
23.1876
26.3522
25.3327
23.8938
23.218
23.3325
23.5793
171.761
188.293
261.441
183.639
279.111
329.417
463.441
484.153
329.448
490.264
111.924
112.055
132.747
54.75
91.5048
112.802
26.5177
26.5405
26.48
649.8
662.651
614.771
727.431
25.8322
26.0995
26.4603
26.4222
26.51
26.1606
26.2214
24.1913
23.8914
24.7725
25.2902
24.3967
23.9885
25.0656
25.7095
25.6961
25.14
25.9016
26.005
25.8833
18.6465
18.5008
18.9586
19.0988
19.4497
17.7287
17.4244
17.5369
17.7879
18.1717
20.7058
20.0655
21.0172
201.605
202.743
239.755
277.012
125.446
15.9196
17.0704
70.6566
22.5105
36.3597
27.751
30.9511
22.2793
15.3247
14.8324
42.4647
43.7869
40.1405
17.2625
17.3871
269.287
116.818
74.1053
250.179
275.403
221.426
24.3152
29.3975
45.2929
12.4126
18.2433
1.85931
3.66531
6.19188
15.1331
15.6817
13.9105
15.4031
14.2799
14.964
15.3729
22.5799
22.538
22.4538
22.2802
22.1704
22.703
22.9032
22.9983
21.9575
21.8309
22.043
21.7475
21.7337
20.9319
21.0079
20.697
20.7761
21.4228
21.5547
21.6337
21.2215
21.1495
21.3841
20.6488
20.4863
20.5367
20.3374
20.1567
19.9883
19.7152
19.5046
19.8137
18.8873
19.1248
19.3723
18.5383
18.2737
18.1228
17.8832
18.774
25.4063
25.3332
24.4968
24.8955
25.2919
23.1822
23.8056
24.0852
23.4847
24.3551
32.7251
9.1022
10.6236
16.6541
18.6
18.1626
26.0229
26.1822
25.5725
23.752
46.0257
46.0423
46.0254
36.339
35.2008
29.9484
27.478
25.2861
23.2917
208.365
243.393
271.228
326.423
202.98
219.481
365.563
391.691
520.947
511.124
600.168
409.461
603.692
150.696
172.029
75.9258
117.186
96.5975
149.193
25.9594
26.031
25.7541
719.596
683.238
734.344
26.0494
26.1648
25.9338
26.1887
26.173
25.875
26.0872
26.1517
24.4092
23.7868
24.3606
24.974
23.6178
23.3125
24.8418
25.8586
25.6642
24.645
25.9707
25.9332
25.8299
26.064
18.6635
18.4391
18.8538
19.2472
19.605
17.2696
17.0146
17.6989
17.3192
18.0423
18.295
19.8544
21.4041
19.6484
21.2047
174.497
218.529
228.092
252.892
124.059
18.065
18.3098
28.4575
18.1568
35.9505
29.4694
24.2363
16.5253
14.6518
15.8026
42.7468
44.3949
30.6777
17.0888
16.9441
290.966
190.558
83.967
281.744
261.188
238.96
26.3875
32.2247
48.8553
14.5009
72.3349
1.30372
3.5139
11.2676
15.2919
15.4143
13.7288
15.2539
13.8033
14.888
23.293
22.663
22.5941
22.4401
22.5672
22.3575
22.2335
22.8212
22.9131
23.0971
21.9145
21.8107
22.1067
21.795
20.8988
21.0841
20.7051
20.8268
21.5058
21.5703
21.6929
21.2734
21.1536
21.3458
21.4657
20.6855
20.5307
20.6271
20.271
20.4456
20.1537
20.0906
19.9059
19.7355
19.6623
19.5013
19.0036
19.2591
19.3832
17.9528
17.7893
25.9097
26.4639
25.823
24.6053
25.2615
25.5847
23.3649
23.8592
24.0521
24.3665
23.7104
81.3561
10.7311
5.3181
15.4076
18.4834
17.7008
25.1502
25.6411
23.8619
23.4013
61.5079
45.1218
63.7695
42.1264
36.5929
32.7354
32.0392
29.1409
25.9946
24.5493
274.196
286.366
346.579
399.785
275.088
294.117
422.264
486.022
625.673
623.052
665.825
477.774
201.423
211.455
92.6268
164.501
135.858
189.543
25.4289
25.436
25.5326
25.0628
713.771
725.94
776.655
26.1849
25.3571
25.3949
25.8816
24.9981
25.3591
25.6189
25.8015
26.3818
24.5363
23.8798
24.0852
24.7415
26.4381
24.3947
25.1211
24.6345
24.3656
25.9129
25.4731
25.4987
25.9845
19.5384
17.0647