/*--------------------------------*- C++ -*----------------------------------*\
| =========                 |                                                 |
| \\      /  F ield         | OpenFOAM: The Open Source CFD Toolbox           |
|  \\    /   O peration     | Version:  v2012                                 |
|   \\  /    A nd           | Website:  www.openfoam.com                      |
|    \\/     M anipulation  |                                                 |
\*---------------------------------------------------------------------------*/
FoamFile
{
    version     2.0;
    format      ascii;
    class       surfaceScalarField;
    location    "0.3";
    object      phi;
}
// * * * * * * * * * * * * * * * * * * * * * * * * * * * * * * * * * * * * * //

dimensions      [0 3 -1 0 0 0 0];
oriented        oriented;


internalField   nonuniform List<scalar> 
21399
(
0.181314
0.603232
-0.592562
0.773876
0.612493
-0.0838308
0.574137
0.140519
0.654991
0.466561
0.307316
0.122242
0.490251
0.503394
0.714656
0.181088
0.473903
0.588803
-0.504406
0.811722
0.5008
-0.0119671
0.515361
0.21025
-0.369032
0.55012
0.684153
0.219972
0.36883
0.336782
0.47494
0.720773
0.373444
-0.109884
0.361477
0.146329
0.0981479
0.451973
-0.0598905
0.744043
0.705613
-0.141714
0.616654
0.728624
0.220482
0.290414
0.0710634
0.436742
-0.328358
0.426506
0.392082
0.602329
0.0588168
0.646796
0.675471
0.463801
0.264823
0.351683
-0.131201
-0.342684
0.413747
0.108384
0.200544
0.225961
0.592626
-0.113238
0.715567
0.303478
0.343317
0.342215
0.333255
0.4733
0.568301
0.008999
0.189792
0.271243
0.142505
0.379627
0.333357
-0.107396
0.522077
0.0705496
0.408839
0.356938
0.358629
0.685533
0.690193
-0.111327
0.584626
0.456974
-0.317128
0.326127
-0.127336
0.302345
-0.15984
0.36968
0.00994736
0.251605
0.320421
0.0129364
0.262284
0.390971
0.455875
-0.0470364
-0.334012
0.692642
0.271102
0.414431
0.392557
0.297637
0.594194
0.728076
0.372651
-0.0465235
0.124269
0.28029
0.0220552
0.21281
0.290238
-0.291552
0.304489
-0.0292688
0.424062
-0.0330909
0.121863
0.377025
0.411612
0.28103
0.806988
0.709249
-0.273029
0.867224
0.455047
-0.354496
0.307972
-0.155886
0.280155
-0.235888
0.257943
-0.0230778
0.270277
0.0199602
0.0943001
0.327553
-0.0230643
0.241009
0.294462
-0.269147
0.391009
0.107879
-0.197897
0.478926
0.263132
0.543856
0.683887
0.0253616
0.63164
0.235584
0.718178
-0.0743406
0.300763
0.00720879
0.286207
-0.0282637
0.277686
0.306167
-0.148846
0.243146
0.122335
-0.334313
0.311249
-0.0933044
-0.029343
0.323805
0.5287
-0.137691
-0.272517
0.380396
0.330803
0.444774
0.0341523
-0.0635384
0.607395
0.620349
0.470136
0.641213
-0.331251
0.566835
0.386927
0.168806
0.25402
-0.246811
-0.210712
0.182448
0.0669737
0.212863
0.270797
-0.148462
0.272318
0.0389304
0.242975
0.0512882
0.242705
0.353305
-0.0225027
0.387458
0.105149
0.502246
0.520834
0.0995148
-0.0989138
0.56905
0.625086
0.0161271
0.681009
-0.114174
0.492076
0.326328
-0.157522
0.258397
-0.00437697
0.079517
0.300315
-0.117867
-0.167335
0.234309
0.278484
-0.0656215
0.113275
0.101244
-0.230613
0.269543
0.203152
0.0398232
0.25444
0.407528
-0.164823
-0.283378
0.260875
0.403208
-0.0157503
0.0689453
0.4333
0.589779
-0.37936
0.478875
0.304294
0.189689
0.633957
0.697136
0.377902
0.0910611
-0.200918
0.196541
0.256449
-0.176932
0.269208
0.0311068
0.116442
0.0478718
0.203587
0.27434
-0.161065
0.252431
-0.151188
0.201399
0.0681443
0.241222
0.394428
-0.139988
0.12415
0.229605
0.392959
-0.132084
0.377209
0.811203
0.675527
-0.0857475
0.624288
-0.145413
0.347742
-0.0434478
0.445973
-0.256283
0.0470435
0.586913
0.571743
0.125393
-0.185563
0.276624
0.055531
0.0109778
0.0974078
0.217226
-0.186119
-0.105205
0.221647
-0.224933
0.272805
-0.0213467
0.0913664
0.0694408
-0.197147
0.265292
0.101234
0.30359
-0.17944
0.344789
-0.115184
0.171506
0.269048
0.108161
0.435726
0.375477
0.237532
0.437995
0.53854
0.30056
0.0914586
0.2256
0.618786
0.595527
0.561119
0.17142
0.187093
-0.131562
-0.183433
0.194411
0.268254
-0.170847
0.219311
-0.00208491
0.0355279
0.075658
0.197964
0.241094
-0.149728
0.245544
0.20712
0.0581716
0.308354
0.165349
-0.278618
0.163434
0.354942
-0.183435
-0.171565
0.279726
0.61301
0.629526
-0.191531
0.562323
-0.0237824
0.494272
-0.193712
-0.255214
0.346673
-0.0296142
0.564702
0.0540837
-0.0683693
0.663896
0.0176405
0.543479
0.174223
-0.00280362
0.00365961
0.136693
-0.0427982
0.237209
0.0702479
-0.187564
0.185479
0.209751
0.261772
-0.186114
0.229253
-0.0312887
0.095816
-0.153168
0.211339
0.0297357
0.322143
-0.156794
0.298017
-0.134583
0.294819
0.0601221
0.138708
0.123254
0.250112
0.63065
0.570701
0.0588255
0.370791
-0.369249
0.345467
0.125023
-0.432007
0.238295
-0.0853344
0.496333
0.597562
0.671582
-0.195754
0.19295
-0.178629
0.182288
-0.0419358
-0.192655
0.149857
0.0414554
0.250932
-0.180684
0.0221874
0.196152
-0.0106727
0.108604
0.0431387
0.164863
0.178381
-0.0825655
0.251488
-0.0401483
0.281223
0.141223
0.146641
0.258544
-0.198422
0.30484
-0.166133
-0.171458
0.294713
0.310079
-0.0599665
0.0368178
0.593832
0.607518
-0.460799
0.519624
-0.0900076
0.474738
-0.129272
0.409703
-0.28468
0.364308
-0.126013
0.224744
-0.374484
0.870817
0.223078
-0.166115
0.837697
0.169615
0.0233353
-0.0103671
-0.20569
0.163755
0.171796
-0.0219388
0.213251
0.0452417
-0.00230272
0.191802
-0.184627
0.173955
0.209194
-0.100589
-0.1593
0.202438
0.00556324
-0.216601
0.134036
-0.0126162
0.169045
0.272604
-0.131381
0.273017
-0.126377
0.0870859
0.106418
0.106471
0.233574
0.0611382
0.173608
0.81691
-0.113028
0.720547
0.624007
-0.104382
0.384731
0.280431
0.0796281
-0.372513
0.2465
-0.147769
0.704702
0.629073
0.208624
-0.157339
0.180674
-0.194253
0.183886
-0.0304987
-0.150043
0.128104
0.0559122
-0.115328
0.16057
-0.14067
0.138367
0.00717471
0.174087
-0.000132464
-0.212
0.111411
-0.00956149
0.17965
-0.00663405
0.164798
-0.107421
0.276467
0.141636
-0.183433
0.0570561
0.258206
-0.17112
0.264401
-0.157983
0.267823
-0.161352
-0.171297
0.232436
0.293015
-0.119407
-0.0114067
0.828317
0.510979
0.70914
-0.496832
0.39245
-0.112102
0.453385
-0.172954
-0.291411
0.371039
-0.0449108
0.145246
0.487186
0.217516
0.636065
0.69581
0.173361
0.00731371
0.0338436
-0.149413
0.118914
0.202257
-0.0741531
-0.129877
0.185789
-0.238948
0.123619
0.0111575
-0.10058
0.180535
-0.171239
0.171107
0.252768
-0.141357
-0.174102
0.164541
0.00554819
-0.175296
0.168661
-0.0104977
0.145346
0.0930339
0.20036
-0.0587238
-0.15757
0.214626
0.0869084
0.0932813
0.10984
0.0390082
0.113029
0.378218
0.450099
0.736347
-0.225368
0.551343
0.157796
0.560558
-0.168108
0.341284
-0.331603
0.158649
0.0394355
0.196083
-0.240994
0.318494
-0.173247
0.595734
0.150591
0.485474
0.517523
0.178287
-0.135027
0.142341
0.164647
-0.130803
0.205503
-0.086589
0.0723798
0.0904938
0.0507623
0.154251
-0.0306318
0.165409
0.0680812
0.00929618
0.162231
0.00887528
0.0231836
0.16778
-0.150711
0.140214
0.258139
-0.112793
-0.0645363
-0.233514
0.17479
-0.0188878
0.241035
-0.154127
0.232857
-0.139576
0.243547
-0.133707
-0.116781
0.155789
0.280628
-0.167599
-0.110633
0.560732
0.40753
0.328816
0.33519
0.44071
0.565327
-0.450888
0.28278
-0.109605
-0.211231
0.36988
0.267276
-0.227841
0.337431
-0.141347
0.0774997
0.10738
0.547138
0.048596
0.668114
0.491885
0.725425
-0.000732542
0.634679
0.0198224
0.626041
0.183312
-0.0409715
0.0746997
0.0788195
-0.107891
0.180271
0.183894
-0.0934
0.169123
-0.11836
-0.151602
0.12097
0.195045
-0.126964
0.192609
-0.152622
0.161498
-0.165086
0.18827
0.00269316
0.172356
-0.0321425
0.193603
-0.186846
0.0740528
0.0580093
-0.152774
0.133886
0.0734365
0.0787302
0.103971
-0.225585
0.0918782
-0.069796
0.609328
0.641777
-0.312961
0.532888
-0.197698
-0.294464
0.735174
0.270863
0.524943
-0.242163
-0.373167
0.263562
0.0560456
-0.00328613
0.10959
-0.249734
0.108386
-0.172234
0.272925
-0.165545
0.113045
0.555069
0.60493
0.722501
0.0029244
0.645964
0.0640756
0.570603
0.53136
0.646295
0.635873
0.128151
0.187005
-0.112305
0.178136
-0.0993167
0.0760029
0.0619102
0.0936047
0.0434427
0.185456
-0.0644853
0.0453925
0.0399862
0.156364
0.0051341
0.00142425
0.159057
-0.138987
0.106845
0.0408286
-0.107192
0.181245
0.166491
-0.108482
0.211044
-0.0771572
0.274208
-0.200772
0.194917
-0.116187
0.217973
-0.114002
0.22994
-0.138062
0.0966951
-0.119248
0.728576
0.343141
0.298636
0.219928
0.327245
0.615926
0.614004
-0.345568
0.103405
-0.0820066
0.244612
-0.188567
-0.282235
0.278949
0.297003
-0.187413
0.278741
-0.170354
0.100691
0.108664
-0.107191
0.662261
0.610355
0.615309
0.731501
0.00631584
0.639648
-0.445266
0.509342
0.0243541
0.546249
0.0860944
0.652611
0.000133782
0.635739
0.194438
-0.0662867
0.0658313
0.0861389
-0.114579
0.190582
-0.109375
0.171285
0.137754
-0.0441495
0.178161
-0.134719
0.113676
-0.142347
0.187739
-0.129482
0.169468
-0.119374
0.124508
-0.17722
0.178644
-0.0181635
-0.0100728
-0.0355024
0.167002
-0.126174
0.0714521
0.234455
-0.0532101
0.102562
0.0898451
-0.00585425
0.101786
0.115938
-0.169408
0.0313463
-0.0727128
0.519075
-0.220439
0.426982
-0.207055
0.482988
-0.155743
0.717231
-0.101305
-0.08865
0.702654
0.386896
-0.283491
-0.322417
0.240411
-0.0376229
0.108436
-0.0434682
0.0913273
-0.251788
0.081434
-0.151097
0.236988
-0.128324
0.1334
0.528861
0.743755
-0.0619206
0.67723
0.570523
0.160977
0.664002
0.48303
0.0263121
-0.183541
0.72979
0.309431
0.0122325
0.395526
0.290785
-0.00103159
0.652745
0.645944
0.064956
-0.13791
0.071623
-0.0822427
0.148074
0.176649
-0.0905103
0.0231748
0.0812071
0.0333757
-0.155745
0.111595
0.0530206
0.142699
-0.0290231
0.0500944
0.180689
-0.0561811
0.162525
0.127161
0.117088
-0.126092
0.0905893
0.108282
0.158032
-0.0865795
0.104821
0.178214
-0.0756517
0.182289
-0.0924442
-0.187242
0.181387
-0.0854555
0.198436
-0.0824989
-0.166972
0.198318
0.105501
0.430425
-0.467018
0.246579
-0.040036
0.275934
-0.436476
0.280733
0.453429
0.263801
0.60135
-0.0495802
-0.04308
-0.287222
0.249599
-0.178786
-0.291135
0.247667
0.268983
-0.177656
0.242785
-0.161351
0.0858905
-0.282667
0.154342
-0.018529
0.54739
0.110345
0.633409
0.508603
0.658701
0.614407
-0.0525151
0.716517
0.299488
-0.407264
0.433576
0.279668
0.450122
0.303017
-0.011738
0.281681
0.600229
-0.0878815
0.733826
0.184667
-0.119711
0.155996
-0.0843734
0.0944065
-0.00767071
0.0521889
-0.117821
0.140996
0.173675
-0.0924678
0.109361
-0.0759856
-0.00622579
-0.125814
0.178834
-0.155369
0.126346
0.142795
-0.0927009
0.0866141
0.159364
0.00316114
-0.00900393
0.176515
-0.0859254
0.19268
-0.0843985
0.0727848
0.199132
-0.094311
0.106638
0.100236
-0.101279
0.112981
-0.174843
0.0923442
-0.0614714
0.0234753
0.7132
-0.282775
0.589902
-0.343323
-0.39929
0.359254
-0.123357
0.450926
-0.170193
-0.452193
0.715994
0.149157
-0.392011
0.342431
-0.297884
0.254804
-0.0415355
0.0901972
-0.0502171
0.0651291
-0.230438
0.069087
-0.144548
0.196009
-0.0416663
0.657735
0.638187
-0.244128
0.752731
0.0337471
0.624954
0.370278
0.391694
0.324823
-0.248521
0.548009
0.185055
-0.382768
0.662435
0.841817
0.329627
-0.0266101
0.31789
0.291454
-0.00977226
0.512348
0.7433
0.0919665
0.0362849
0.024988
0.133116
-0.0387091
0.125445
-0.107785
0.159974
0.15309
-0.0120939
0.0976892
0.0606219
-0.134681
0.128455
0.050701
0.0234653
0.0185612
0.178202
-0.0915875
-0.13927
0.142432
0.143557
-0.0469279
0.134553
0.0486278
0.114734
0.16833
-0.0955454
0.0740193
0.176138
-0.0695002
0.191976
-0.0917406
-0.220452
0.119173
-0.107471
0.198563
-0.106219
0.114666
0.162092
-0.138617
0.47795
0.23525
0.307127
0.0159312
0.327569
-0.313781
0.143589
0.47151
0.244485
0.627107
-0.137207
0.0286494
0.231362
-0.272898
0.288228
-0.198031
-0.281143
0.230926
0.250407
-0.185277
0.220497
-0.15141
0.0514608
0.129328
-0.170994
0.0479809
0.609754
0.02619
0.611997
0.786478
0.672935
0.841788
0.837171
0.165242
-0.241441
0.426496
0.683373
-0.0209374
0.403788
0.438029
0.264844
0.412903
-0.0950138
0.265248
0.0277895
0.255475
0.520383
0.222917
0.13859
-0.0466238
0.154767
-0.118483
-0.10214
0.127128
-0.136455
0.0977463
-0.0092358
0.0235183
-0.133687
0.121593
-0.00445109
-0.121194
0.181816
-0.0052324
0.159473
-0.108772
-0.127838
0.151303
-0.120207
0.138768
0.0389313
0.0470028
0.0468861
0.0835991
0.149211
-0.100583
0.159868
-0.0451339
0.172735
-0.0987155
0.122476
0.0681272
0.242065
-0.122892
0.091092
0.055873
0.173465
-0.0587987
0.0348483
0.603447
-0.368197
0.581237
-0.27411
-0.421093
0.437025
-0.093524
0.330576
-0.186988
-0.536141
0.780625
0.090966
-0.269516
0.132309
0.3047
-0.27605
-0.0497808
0.0153305
0.0523758
-0.03859
0.0352199
-0.21815
0.0667397
-0.166689
-0.0373613
0.0710707
0.635944
0.616039
0.461919
0.324559
0.0823401
0.590594
0.663435
0.178353
0.392593
0.444578
-0.330615
0.495857
0.171462
0.0958809
0.334604
0.348769
-0.335641
0.314703
0.796381
0.772632
0.316954
-0.0521104
0.22194
0.266557
0.268161
-0.0126858
0.531162
0.667494
-0.161238
0.114614
-0.00647064
0.00864578
0.154459
-0.0567131
0.145224
-0.128588
0.152106
0.000398973
-0.114145
0.109694
0.0676712
-0.122716
0.117484
0.0316349
0.0404392
0.0310965
0.0101799
0.144298
-0.105367
-0.112282
0.159285
0.169373
-0.122487
0.156947
-0.073348
0.0563641
-0.13291
0.0877763
0.0398246
0.0706577
0.162157
-0.0396803
0.161942
-0.0938149
-0.222867
0.0999749
-0.131775
0.173368
-0.117495
0.103358
0.175968
-0.141119
0.441271
0.162176
0.21304
-0.553012
0.278902
-0.115987
-0.422129
0.328605
-0.0915529
0.117712
0.44367
0.336956
0.532237
0.317408
-0.1851
-0.275803
-0.000247046
0.208072
-0.257853
0.199414
-0.184083
0.298261
-0.245886
0.241474
-0.280064
0.218846
-0.183626
0.183476
-0.116736
-0.1896
0.152239
-0.118529
0.0103849
0.625559
0.0269382
0.589101
0.544259
-0.252457
0.577017
0.600979
0.410978
0.622023
0.160216
0.35894
-0.187478
-0.232823
0.328703
-0.238732
0.587501
0.472579
-0.157876
0.522385
0.273996
0.583722
0.18891
0.216051
0.340603
-0.118663
0.200759
0.0657981
0.188073
-0.158931
0.690092
0.508564
0.00233237
0.131169
-0.137639
-0.124952
0.133597
0.0953932
0.0225076
-0.129072
0.129471
-0.0152577
0.123446
-0.0557745
-0.0115887
0.163748
-0.132113
0.120539
-0.0801001
-0.114839
0.145935
-0.103493
0.113673
0.0218111
0.0539177
0.0654826
0.155716
-0.0993524
0.134309
-0.0465323
0.147685
-0.10786
0.129895
-0.0592373
-0.136042
0.0963613
0.0259005
0.0404937
0.196701
-0.0967257
0.0415933
0.0584724
-0.0377616
-0.474972
0.637149
0.502713
-0.289673
0.52229
-0.243388
-0.522956
0.406968
-0.194351
-0.289588
0.198035
-0.171876
0.69261
-0.355654
-0.20708
0.739316
0.0416051
0.0563746
-0.246695
0.246448
-0.071992
-0.0584396
0.114178
-0.0270397
-0.000150032
-0.220821
0.104085
-0.0685826
0.0781712
0.652498
0.59244
-0.0810816
0.625341
0.495935
-0.032129
0.633108
-0.327552
0.73853
0.29447
0.369676
-0.209459
0.126117
0.153125
0.405321
-0.0766174
0.233847
0.285341
0.30216
0.2118
-0.0890714
0.611456
0.78256
0.494651
0.474251
0.258128
-0.0420771
0.139465
0.302268
-0.17288
0.238679
0.271099
-0.0830256
0.699251
-0.145725
0.148058
-0.0145567
-0.00404187
0.166062
-0.0706693
-0.108403
0.13091
0.157142
-0.0276706
0.108188
0.101367
-0.101926
0.0903371
0.0489091
-0.0115736
0.0756164
0.0424423
0.156427
-0.042754
-0.111849
0.13366
0.112695
-0.0587774
0.139101
-0.0736187
0.039749
0.101152
0.022035
-0.157399
0.0981616
0.145311
-0.0489492
0.145443
-0.119543
-0.0991786
0.139672
0.110446
-0.207172
0.160694
-0.119101
0.165371
-0.106898
0.107549
0.0277403
0.430069
0.232617
-0.430061
0.186673
-0.0230924
-0.429946
0.235595
-0.231911
-0.287938
0.116062
0.377425
0.315184
0.383663
-0.20509
0.259445
-0.20307
-0.04149
-0.249777
0.177785
-0.216297
0.157857
-0.102119
-0.166544
0.139504
-0.195132
0.194982
-0.091047
0.0942548
-0.162837
0.179036
-0.100864
0.100933
0.551565
0.0636939
0.528746
0.593212
-0.185981
0.681916
0.734041
0.552549
0.671896
0.195861
0.328259
-0.202141
0.322302
-0.169177
0.251641
0.454995
-0.221147
-0.0637504
0.36591
0.417377
-0.205577
0.352518
0.258939
0.313746
0.468814
0.489802
0.00484897
-0.0307075
0.504958
0.229022
0.329074
-0.189609
0.129388
0.155653
0.083874
0.615377
0.126978
0.0210797
0.0975266
-0.112083
-0.142406
0.138364
0.0576598
0.0857574
0.0289845
-0.145666
0.117996
-0.0342183
0.140329
-0.0389619
-0.0553291
0.1366
-0.0876913
-0.113363
0.10179
-0.037747
0.136977
-0.0945344
0.0942227
0.000846333
-0.023739
0.0682006
0.0399901
0.138913
-0.0991645
0.00197372
-0.131236
0.153271
-0.033074
0.0964942
0.0201293
0.181304
-0.0708576
-0.046478
0.0462698
-0.16758
0.0606824
-0.0600315
-0.528309
0.556049
-0.179274
0.609343
-0.295692
0.4931
-0.306428
0.385453
-0.408546
0.472901
-0.237305
-0.328765
0.0968538
-0.212703
0.702129
-0.386945
-0.266195
0.649858
0.0543551
-0.290868
0.0877975
0.248082
-0.289572
-0.0919193
-0.113083
0.149649
-0.251768
0.0284381
0.227583
-0.0880787
-0.194233
0.103186
-0.0999779
0.0161983
0.0804395
0.615258
0.531836
-0.165346
0.758557
0.51657
0.424106
0.309935
-0.0434112
0.595961
0.0506561
0.62124
0.358389
-0.162527
0.120161
0.159897
0.301579
-0.0499379
0.381003
0.0739917
0.196229
0.317253
0.335203
0.152812
0.666264
0.748741
0.552688
0.509807
0.0394129
0.266768
-0.13738
-0.126081
0.281734
0.625568
0.118903
-0.0978228
0.157048
-0.0595211
0.0262812
0.137518
-0.0798583
0.137584
-0.0518269
0.111495
-0.0825104
0.136846
-0.0188501
0.106111
0.0978837
0.0561658
0.042066
-0.149676
0.0619843
-0.0478857
-0.119466
0.0817188
0.145458
-0.0512353
-0.108493
0.10934
-0.132642
0.108903
-0.0402927
0.0824914
0.0133757
0.122481
0.0194476
0.0233169
-0.125419
0.127393
0.0278514
-0.12954
0.0964656
0.14369
-0.0471957
-0.110879
0.131008
0.0961991
-0.167057
-0.178599
0.132121
-0.132329
0.13244
-0.0717578
0.0836584
0.600231
-0.0441815
0.420956
0.343148
0.197409
0.0790256
0.0643548
0.103273
-0.340579
0.34343
-0.246576
0.0353795
0.752785
0.262913
0.275108
-0.220753
0.214377
-0.12658
-0.0144644
-0.238301
0.146382
-0.254929
0.141847
-0.0886522
-0.0241846
0.200294
-0.171856
0.112215
0.229272
-0.126086
-0.142445
0.042467
-0.126247
0.148547
-0.0681075
0.147379
0.467879
-0.0296549
0.561491
0.341322
0.417236
-0.102596
0.619166
0.571485
0.651257
0.577828
0.493365
0.139052
0.307413
-0.187252
0.283741
-0.123844
-0.292151
0.242213
-0.299867
0.373859
0.300904
-0.104674
-0.0221482
0.339401
-0.0869817
0.422184
0.304454
-0.151642
0.104342
0.561922
0.26667
0.482071
0.65703
-0.15088
0.660688
-0.18
0.219413
0.27776
0.140687
0.14038
0.101734
-0.140409
0.765977
0.0786099
0.0592248
-0.113316
0.0537948
-0.0870346
0.0550077
0.057726
0.0936311
0.110749
-0.129599
0.1492
-0.0430888
0.139528
-0.0416445
0.111908
-0.0557423
-0.0685636
0.11063
0.133862
-0.0718776
-0.128093
0.080207
-0.0463738
-0.129602
0.0783672
-0.0233025
-0.0206367
0.126358
0.137177
-0.11773
-0.0761916
0.0995086
0.0165141
0.131147
-0.103296
0.152691
-0.0562256
-0.141025
0.0938297
-0.0100171
0.16946
-0.0732606
-0.0349358
0.00011104
-0.141198
0.0694398
-0.0575392
0.381963
-0.426144
0.593964
-0.173008
-0.211976
0.555124
0.661718
-0.464309
0.397025
-0.318
0.453626
-0.389271
0.367493
-0.26422
0.00285135
-0.330187
0.0836105
-0.294807
0.49233
0.260455
-0.442265
0.705178
-0.00637574
-0.246025
0.119445
0.231811
-0.246276
-0.108547
-0.104178
-0.215674
0.127022
-0.184923
0.160738
0.0574163
-0.0727078
-0.189794
0.0637081
-0.147327
0.0223003
0.101352
0.438224
0.564629
-0.318598
0.735834
0.300568
0.20584
0.365645
0.273215
0.378042
-0.0198213
0.59765
0.504292
-0.0109271
-0.204133
0.343185
0.0152617
0.0964881
-0.284756
0.160912
0.0380806
0.00103657
0.254616
0.119243
-0.307932
0.203258
0.232468
0.252419
0.271304
-0.00347785
0.191543
-0.00870773
0.57063
-0.333111
0.599781
0.473363
0.516621
0.327576
-0.0653431
0.26305
-0.122363
0.24299
-0.10261
0.232436
-0.130702
0.411574
0.354403
0.131645
-0.0530354
0.142325
-0.0831004
0.131598
-0.0778028
0.062165
0.133575
-0.0785673
0.118568
-0.0608423
0.10386
-0.0102291
0.105272
0.00547697
-0.0176911
0.0964395
0.0636276
0.0778327
0.0652983
-0.0189729
-0.136329
0.0644518
-0.0561224
0.0908035
0.123803
-0.0454355
0.108343
-0.116936
0.0962997
0.0501662
-0.0182212
-0.103986
0.1205
0.0271612
0.0493952
-0.115332
0.0591066
0.138086
-0.0442567
-0.117588
0.107571
0.071041
-0.144302
0.0893361
-0.124272
-0.122591
0.122702
-0.0531507
0.0805473
0.559896
-0.177933
0.235573
0.381988
0.386889
0.112859
-0.067284
0.135626
-0.0217782
-0.230604
-0.0336158
-0.227753
0.314428
-0.230818
-0.0629961
0.472509
0.599335
-0.33888
0.757263
-0.0520851
-0.23463
0.228254
-0.115185
-0.0180212
-0.259477
0.15093
-0.223868
0.11969
-0.0549361
-0.132455
-0.145786
0.203203
-0.18131
0.108602
0.208306
-0.144598
-0.137432
-0.00989557
-0.115131
-0.0137791
0.644064
-0.250595
0.815223
0.194827
0.541006
0.80486
0.63886
0.572869
0.586723
0.233985
-0.218723
0.220524
-0.124036
0.254403
-0.0934911
-0.254549
0.29263
-0.250957
0.251994
0.267673
-0.14843
-0.0476997
-0.0657763
0.298244
-0.0879072
0.340326
-0.24824
0.519544
-0.256956
0.253478
-0.0654137
0.0784488
0.492181
0.11161
0.488171
0.584973
0.59507
-0.254902
0.582478
0.167093
0.245121
-0.0976864
0.132348
0.120627
0.142512
0.420763
-0.338233
0.692636
0.0892898
0.0484972
-0.12281
0.045007
-0.0606449
0.0400011
0.0430178
-0.106857
0.096628
-0.0935978
0.0990748
-0.0854615
0.0677703
0.100766
-0.00432626
-0.0757041
0.139332
-0.00762879
0.107757
-0.0424585
0.0887839
0.148537
-0.0840855
-0.101517
0.0453945
-0.0107134
0.0169456
-0.109273
0.0638373
-0.00859355
-0.0190325
0.106899
0.0989345
-0.0487683
0.0807133
0.00291251
0.117406
-0.0902453
0.135602
-0.0862072
0.130634
-0.0715274
-0.114035
0.0697784
-0.0064645
-0.0575643
0.128605
-0.0549655
-0.18322
0.0589484
-0.0605188
-0.142733
0.089582
-0.0621855
-0.492324
0.314391
-0.256751
0.484135
-0.102147
0.642732
-0.255844
0.596994
-0.427236
0.359953
-0.29161
0.310439
-0.332217
0.261534
-0.29515
0.0866758
0.122776
-0.353594
0.207172
-0.270168
-0.126889
0.599397
0.472447
0.418383
-0.492967
0.440882
-0.222263
0.107078
0.17742
-0.195441
-0.0729385
-0.102572
-0.218499
0.163563
-0.155474
0.0230183
0.0625198
0.021893
-0.109897
0.0144129
-0.159011
0.126191
-0.136086
-0.13456
0.120781
0.39347
0.597382
0.217842
0.123789
0.417217
0.509477
0.295383
0.305105
0.333755
0.2613
0.311569
-0.10291
0.689633
-0.0205644
0.00180071
0.130367
-0.246573
0.153082
0.255333
0.0372964
0.336532
-0.0845383
0.201897
0.188102
-0.212494
0.164794
0.210337
0.0920863
0.264642
0.0409849
0.189919
0.0695542
0.422627
-0.0795964
0.567768
0.654527
0.256837
0.407933
0.174545
-0.0794804
0.151834
0.256083
-0.123735
0.218966
-0.0983389
0.236697
-0.0941857
0.433605
0.34758
0.345055
0.116097
-0.0268075
0.128917
-0.0804196
0.119022
-0.0740145
0.0401209
-0.0828451
0.122846
-0.0648673
0.107885
0.0317607
-0.124715
0.031117
0.0233707
-0.0569445
-0.0827342
0.078408
0.0565975
-0.101527
0.0938981
0.106079
-0.0204889
-0.112345
0.0282595
-0.0669505
0.0871064
-0.0978198
-0.112988
0.129934
-0.0491512
-0.0905932
0.0819996
0.103575
-0.122607
0.0581304
0.133886
-0.0531728
-0.0893655
0.092278
0.028041
0.0453571
0.0444269
0.0320473
0.133554
-0.0637751
-0.116099
0.109634
-0.13174
0.0741759
-0.00595437
-0.132091
0.0771256
-0.0731427
-0.149854
0.0893353
-0.060272
0.071368
0.587582
-0.273191
-0.486007
0.229256
0.540585
0.331738
0.104027
0.497273
-0.13732
-0.428146
0.136536
-0.117707
-0.0706832
-0.208474
0.311183
-0.188407
-0.146422
-0.0927481
0.496487
-0.162183
0.63463
0.757152
-0.338769
0.597966
-0.157084
0.259758
-0.152681
0.0643174
0.145501
-0.21844
-0.175413
0.0728408
0.00808893
0.199116
-0.176097
0.167462
-0.104942
0.164381
-0.142488
0.0544842
-0.127612
0.142025
-0.0328201
-0.0153059
0.698575
0.600315
-0.369498
0.58734
0.633267
0.678517
-0.296259
0.591641
0.645324
0.393374
-0.222049
0.201485
-0.190521
0.192321
-0.0601532
0.238926
-0.0858443
-0.142358
0.179655
-0.287227
0.202689
-0.0762624
0.278159
0.307887
-0.119785
-0.122433
0.286429
-0.0760922
0.378515
-0.215684
0.480326
0.220687
-0.179702
0.235956
-0.0460364
0.679464
0.328336
0.0409464
0.526821
0.126099
0.528428
-0.213244
0.387789
0.176602
0.0231878
0.17361
0.222779
-0.0709446
0.0952309
0.138359
0.128593
0.781186
-0.396358
0.741414
0.0255041
-0.113164
0.0863564
0.0157529
0.038602
-0.124312
0.0502976
-0.0841912
0.0250401
0.0213192
-0.0641197
0.0958805
-0.0686064
0.0997234
-0.0880051
0.111376
0.0369536
-0.00578327
0.0868544
-0.0302569
0.0976467
0.00843215
0.0771578
-0.0823237
0.110583
0.0201559
0.0360663
0.0658143
-0.0667051
0.0175539
-0.0406077
-0.0694864
0.127617
0.0239209
0.074444
-0.023821
0.12101
-0.0929692
0.100631
-0.0552737
0.136294
-0.0918667
0.107603
-0.0755554
0.0458594
-0.0546146
0.118014
-0.0438379
0.112059
-0.148345
0.0752021
-0.0590094
-0.15556
0.0952876
-0.0841916
-0.512738
0.239547
0.011266
-0.283482
0.578333
-0.0377481
0.656757
-0.325019
0.68236
0.259461
-0.396781
0.481424
-0.344888
0.285439
-0.403146
0.2369
-0.307583
0.102709
-0.306746
0.118339
0.120935
-0.267358
-0.213268
0.12052
-0.118466
0.614952
0.594969
0.516164
0.259198
0.525276
-0.213994
0.0613128
-0.148951
-0.0299119
-0.019324
-0.141153
-0.168009
0.0249737
-0.181113
0.0761715
0.221656
-0.167172
-0.106923
-0.020689
-0.0390888
-0.139743
-0.131868
0.116562
0.329077
0.00915305
0.591162
0.579268
0.00807216
0.482307
0.150959
0.282192
0.396326
0.498116
0.0935256
0.301636
0.343688
-0.164262
0.557636
-0.0297281
0.25571
-0.0542254
0.178773
-0.19705
0.111205
0.113352
0.204495
-0.0248407
0.270775
-0.0680864
0.231625
0.202067
0.15099
0.0982537
0.372557
0.0059585
0.156873
0.267082
0.0562536
0.158459
0.283105
0.422623
-0.0942868
0.46357
0.652921
0.811533
0.293502
-0.0204471
0.15326
0.102665
-0.0990966
0.194328
0.216257
-0.0778981
0.234332
-0.105739
0.528769
0.252416
0.425348
0.316066
-0.0836422
0.109146
0.00271418
0.0997543
-0.0840014
0.10773
-0.0691284
0.10936
-0.0590625
-0.0796568
0.104697
-0.0933871
0.114706
0.0162237
-0.102236
0.0336297
0.0117182
0.101121
0.0102553
-0.0652824
0.0810712
0.0708636
-0.0836672
0.0920993
0.0104527
-0.0993543
0.0170305
0.127461
-0.0168779
-0.0791984
0.0938793
-0.057813
0.0845775
-0.0187631
-0.076477
0.0940308
0.0685387
-0.0850459
0.108967
0.113369
-0.0389248
0.0971892
0.00766166
0.0810199
0.015736
-0.120272
0.0447166
0.109769
-0.0639098
-0.131925
0.0773104
-0.13297
0.0891325
-0.0198085
-0.056723
-0.145941
0.0869311
-0.050653
0.0255776
0.501071
-0.261524
0.424514
-0.413248
0.141032
-0.459489
0.421741
0.197268
0.176052
-0.153787
0.0846428
-0.0594487
-0.166247
-0.255047
-0.0525355
-0.152339
-0.185811
0.314917
-0.196578
-0.146838
0.450691
0.0285813
0.566387
-0.0344905
0.550655
-0.451495
0.710693
0.073781
0.251289
-0.189976
0.102339
0.148107
-0.178019
0.182656
-0.20198
0.0069546
0.0536472
0.157896
-0.132922
0.142075
-0.0659036
-0.00927591
-0.140311
0.119622
-0.152149
0.11306
-0.0231808
0.630712
0.588421
0.593668
0.638784
0.764499
0.649075
0.740014
0.651162
-0.20864
0.178912
-0.211889
0.157664
-0.029867
-0.12505
0.236256
0.180054
-0.066702
0.155214
-0.208512
0.140426
0.0115418
0.220083
-0.0938534
0.29592
-0.14395
0.294941
0.25166
-0.153406
-0.304004
0.309962
-0.21061
0.367482
-0.145459
0.412542
-0.186889
0.243143
-0.0284302
-0.196812
0.660382
-0.0971658
0.750086
0.39945
0.412083
-0.154858
0.44836
-0.213537
0.19309
0.121037
0.0322225
0.223702
0.11716
-0.0192093
0.156434
0.117964
0.538907
0.677764
0.715516
-0.0795091
0.0822232
0.0202452
0.023729
0.0402317
-0.118245
0.0591823
0.0113098
0.0494239
0.100801
0.0828473
-0.0492176
-0.0829519
0.0946701
-0.0989558
0.109211
-0.0371736
-0.0348916
0.105755
0.043794
0.0660243
0.0260751
0.0843995
-0.067369
-0.0935441
0.0766662
0.0146809
0.0555559
-0.100151
0.0813879
0.107144
-0.0131127
-0.0517333
0.0242524
0.0966284
0.0123384
0.0577036
0.104481
-0.00729172
-0.0688453
0.0765069
0.0121746
-0.0733785
0.0891145
0.105693
-0.0609768
0.0405712
-0.05566
0.142765
-0.0536329
0.122957
-0.136451
0.0797279
-0.0495197
0.0964078
-0.147061
0.0994096
-0.0738321
-0.41031
0.148786
-0.269278
0.576674
-0.154933
0.526312
-0.329043
0.485472
-0.30942
-0.307102
0.153315
-0.222459
-0.266868
0.207419
-0.262797
0.0965509
0.183529
-0.236065
0.162578
0.0921044
-0.277915
-0.277786
0.0812081
-0.211739
0.064901
-0.23667
0.68736
-0.665081
0.693662
0.531897
0.313985
0.0456118
-0.573841
0.647622
-0.17464
-0.0153368
-0.1094
0.004637
-0.213467
0.0114867
-0.167685
-0.15982
0.00915319
-0.161404
0.0955
0.146011
-0.155287
-0.110992
-0.0293187
-0.0325269
-0.0483438
-0.134173
0.0580584
0.530362
-0.0959966
0.689665
0.559166
0.0796184
0.311402
0.453097
0.658256
-0.00918104
0.470281
0.269733
0.47649
0.174672
-0.0329769
0.208604
-0.0509401
-0.166342
0.136475
0.0680395
0.0699136
0.141902
0.193045
-0.0378311
0.0431477
0.258263
-0.117837
-0.196291
0.207832
0.12623
-0.00808329
0.114313
0.09865
0.0897363
0.0993524
0.384217
-0.0167341
0.238757
0.257684
0.164615
0.251548
0.563216
0.185058
0.565029
0.597141
0.165371
-0.0566847
0.197593
0.163692
-0.0465322
0.144483
0.181621
-0.0251873
-0.0629955
0.180959
-0.272309
0.811216
0.405455
0.362695
0.352821
0.117745
-0.0355216
0.0996746
-0.0794294
0.0934479
-0.0697189
0.0997504
-0.0595187
0.0998686
-0.0406862
-0.0712303
0.0825401
0.100281
-0.0508574
0.0295709
-0.000104666
0.0510636
-0.00428563
0.0743195
0.0685816
0.0892214
-0.0454274
-0.0769175
0.102993
-0.00914458
-0.116591
0.0492216
0.0995334
-0.0228673
-0.10191
-0.0463538
0.0069925
0.0935239
-0.012136
-0.0937524
0.0806396
0.0660115
0.102299
-0.0784188
0.0907572
0.106304
-0.0486009
0.0943565
-0.101648
0.124461
-0.0479538
0.0886408
-0.0764662
0.0323149
0.128311
-0.0391964
-0.111441
0.0504638
0.109269
-0.0686975
-0.129225
0.0735655
-0.12605
0.0724168
-0.0112159
-0.0494976
-0.127176
0.0776561
-0.0307681
-0.0476511
0.0354366
0.445116
-0.29633
-0.430028
0.16075
0.00283285
0.371378
0.156428
0.135696
-0.276713
-0.322866
0.100407
-0.305703
0.0388353
-0.115448
-0.0792683
-0.209152
-0.0734861
-0.185681
-0.213014
-0.177489
0.258697
0.409315
0.278045
0.434404
0.259258
0.392715
0.139182
0.7067
-0.44826
0.493872
0.199362
0.183373
-0.19871
0.169347
-0.278747
0.167316
-0.162679
0.218948
-0.207461
-0.000369178
-0.184921
0.0251012
-0.128758
0.137911
-0.033258
-0.0389101
-0.0173757
-0.13223
0.102911
-0.140865
0.108338
-0.152229
0.103885
0.617224
0.434366
0.691858
0.549899
0.581135
-0.172156
0.625253
0.486101
0.467309
0.583987
-0.211386
0.178409
-0.175012
0.124072
-0.0749106
-0.150041
0.218081
0.1803
-0.110386
0.212413
-0.0705107
0.174581
0.200462
-0.157314
0.0826248
0.118714
0.0891186
0.244943
0.23686
-0.160016
0.274329
-0.141031
0.239681
0.225648
-0.135912
0.264626
-0.165274
-0.281253
0.264519
-0.165786
0.404543
-0.116006
0.37369
0.219996
-0.0553813