/*--------------------------------*- C++ -*----------------------------------*\
| =========                 |                                                 |
| \\      /  F ield         | OpenFOAM: The Open Source CFD Toolbox           |
|  \\    /   O peration     | Version:  v2012                                 |
|   \\  /    A nd           | Website:  www.openfoam.com                      |
|    \\/     M anipulation  |                                                 |
\*---------------------------------------------------------------------------*/
FoamFile
{
    version     2.0;
    format      ascii;
    class       volScalarField;
    location    "0.3";
    object      rAU;
}
// * * * * * * * * * * * * * * * * * * * * * * * * * * * * * * * * * * * * * //

dimensions      [-1 3 1 0 0 0 0];


internalField   nonuniform List<scalar> 
13611
(
1.93374e-07
1.91958e-07
1.96571e-07
1.92845e-07
1.93824e-07
1.93427e-07
1.94813e-07
1.94141e-07
1.90661e-07
1.94056e-07
1.93789e-07
1.94431e-07
1.95063e-07
1.96493e-07
1.86187e-07
1.9489e-07
1.94293e-07
1.93367e-07
1.95917e-07
1.92333e-07
1.94357e-07
1.85391e-07
1.86011e-07
1.8906e-07
1.89167e-07
1.94414e-07
1.94452e-07
1.95755e-07
1.96537e-07
1.87258e-07
1.88233e-07
1.86021e-07
1.89549e-07
1.94297e-07
1.9586e-07
1.92566e-07
1.92573e-07
1.94314e-07
1.84796e-07
1.88519e-07
1.89298e-07
1.87885e-07
1.87872e-07
1.94013e-07
1.94694e-07
1.9419e-07
1.96499e-07
1.95976e-07
1.8611e-07
1.82093e-07
1.86392e-07
1.88371e-07
1.88036e-07
1.89995e-07
1.9321e-07
1.93647e-07
1.9245e-07
1.95004e-07
1.94309e-07
1.94699e-07
1.85811e-07
1.83249e-07
1.86537e-07
1.86452e-07
1.81719e-07
1.86214e-07
1.84873e-07
1.89437e-07
1.88596e-07
1.9214e-07
1.94272e-07
1.95072e-07
1.96503e-07
1.94431e-07
1.85822e-07
1.84162e-07
1.84093e-07
1.81706e-07
1.86412e-07
1.85917e-07
1.8523e-07
1.88386e-07
1.90384e-07
1.87907e-07
1.92587e-07
1.94415e-07
1.94307e-07
1.94275e-07
1.93954e-07
1.85536e-07
1.7829e-07
1.83593e-07
1.85805e-07
1.82719e-07
1.79194e-07
1.85641e-07
1.85012e-07
1.88454e-07
1.87491e-07
1.86029e-07
1.91323e-07
1.93652e-07
1.94438e-07
1.9462e-07
1.93909e-07
1.79865e-07
1.87471e-07
1.87373e-07
1.85872e-07
1.83038e-07
1.82493e-07
1.8092e-07
1.85642e-07
1.81975e-07
1.83886e-07
1.86188e-07
1.87907e-07
1.88121e-07
1.89636e-07
1.95992e-07
1.95859e-07
1.94261e-07
1.96579e-07
1.93819e-07
1.91928e-07
1.82367e-07
1.87363e-07
1.87541e-07
1.81085e-07
1.85086e-07
1.78463e-07
1.84902e-07
1.83082e-07
1.86345e-07
1.87935e-07
1.90279e-07
1.89196e-07
1.93448e-07
1.94772e-07
1.90159e-07
1.95789e-07
1.9334e-07
1.93712e-07
1.80169e-07
1.79655e-07
1.81094e-07
1.78918e-07
1.83037e-07
1.8568e-07
1.78873e-07
1.78261e-07
1.85467e-07
1.82226e-07
1.84027e-07
1.87176e-07
1.89976e-07
1.87836e-07
1.95654e-07
1.9562e-07
1.94792e-07
1.89665e-07
1.89516e-07
1.96579e-07
1.95782e-07
1.94033e-07
1.77404e-07
1.79366e-07
1.80099e-07
1.81894e-07
1.78336e-07
1.8222e-07
1.82439e-07
1.78071e-07
1.7745e-07
1.83023e-07
1.83047e-07
1.79255e-07
1.84055e-07
1.85325e-07
1.84896e-07
1.87747e-07
1.91812e-07
1.94283e-07
1.91264e-07
1.87052e-07
1.89134e-07
1.95486e-07
1.94908e-07
1.74838e-07
1.78041e-07
1.82532e-07
1.77447e-07
1.81092e-07
1.76955e-07
1.81532e-07
1.83697e-07
1.78053e-07
1.78461e-07
1.82944e-07
1.83819e-07
1.84722e-07
1.84513e-07
1.87429e-07
1.84112e-07
1.92824e-07
1.95477e-07
1.94187e-07
1.92224e-07
1.89212e-07
1.86093e-07
1.95492e-07
1.96578e-07
1.94919e-07
1.7339e-07
1.77138e-07
1.8213e-07
1.77776e-07
1.80457e-07
1.76939e-07
1.8212e-07
1.83962e-07
1.77383e-07
1.78449e-07
1.81959e-07
1.8322e-07
1.83911e-07
1.82321e-07
1.84898e-07
1.87876e-07
1.95299e-07
1.92764e-07
1.93202e-07
1.91054e-07
1.86305e-07
1.86025e-07
1.94537e-07
1.95593e-07
1.95099e-07
1.82967e-07
1.74995e-07
1.71585e-07
1.73931e-07
1.79499e-07
1.80359e-07
1.75839e-07
1.82902e-07
1.76574e-07
1.77358e-07
1.81362e-07
1.78136e-07
1.82247e-07
1.77312e-07
1.79455e-07
1.82093e-07
1.85999e-07
1.8648e-07
1.95041e-07
1.93109e-07
1.91053e-07
1.92943e-07
1.87596e-07
1.89088e-07
1.87446e-07
1.9549e-07
1.94656e-07
1.96587e-07
1.82899e-07
1.74789e-07
1.79059e-07
1.71774e-07
1.74472e-07
1.78507e-07
1.78676e-07
1.7807e-07
1.76551e-07
1.79019e-07
1.75057e-07
1.77051e-07
1.79934e-07
1.78683e-07
1.81117e-07
1.8007e-07
1.79993e-07
1.81125e-07
1.80803e-07
1.87421e-07
1.9626e-07
1.96302e-07
1.92489e-07
1.92138e-07
1.88747e-07
1.88512e-07
1.86468e-07
1.87318e-07
1.9314e-07
1.95879e-07
1.93838e-07
1.77747e-07
1.76671e-07
1.78118e-07
1.77405e-07
1.7233e-07
1.75801e-07
1.75562e-07
1.78683e-07
1.77889e-07
1.79422e-07
1.75748e-07
1.76961e-07
1.69879e-07
1.75417e-07
1.81502e-07
1.80315e-07
1.82487e-07
1.80413e-07
1.7926e-07
1.7952e-07
1.79455e-07
1.86143e-07
1.95395e-07
1.94716e-07
1.9274e-07
1.92228e-07
1.89833e-07
1.89603e-07
1.85144e-07
1.86322e-07
1.93321e-07
1.94558e-07
1.77702e-07
1.76565e-07
1.76329e-07
1.77741e-07
1.75584e-07
1.75442e-07
1.75439e-07
1.78012e-07
1.77808e-07
1.77061e-07
1.75294e-07
1.7703e-07
1.72273e-07
1.75012e-07
1.76942e-07
1.79485e-07
1.76391e-07
1.8072e-07
1.79815e-07
1.79351e-07
1.80039e-07
1.79292e-07
1.95293e-07
1.94951e-07
1.95282e-07
1.9282e-07
1.91427e-07
1.91023e-07
1.87909e-07
1.89261e-07
1.86543e-07
1.95722e-07
1.96638e-07
1.93778e-07
1.77272e-07
1.72074e-07
1.75839e-07
1.69298e-07
1.76127e-07
1.66403e-07
1.66813e-07
1.66575e-07
1.77992e-07
1.77787e-07
1.71038e-07
1.74888e-07
1.77426e-07
1.72156e-07
1.76805e-07
1.75424e-07
1.62617e-07
1.78303e-07
1.67478e-07
1.8074e-07
1.79849e-07
1.79248e-07
1.79127e-07
1.81711e-07
1.93661e-07
1.9313e-07
1.94213e-07
1.91873e-07
1.91455e-07
1.90393e-07
1.87121e-07
1.89e-07
1.83058e-07
1.96194e-07
1.9398e-07
1.95963e-07
1.77011e-07
1.74332e-07
1.65878e-07
1.72515e-07
1.71073e-07
1.70149e-07
1.75864e-07
1.66917e-07
1.74111e-07
1.765e-07
1.76895e-07
1.78799e-07
1.77378e-07
1.76843e-07
1.79147e-07
1.72438e-07
1.74611e-07
1.77472e-07
1.80417e-07
1.79302e-07
1.79421e-07
1.75675e-07
1.81249e-07
1.95185e-07
1.93977e-07
1.92757e-07
1.95152e-07
1.94977e-07
1.91479e-07
1.91381e-07
1.85737e-07
1.87489e-07
1.80902e-07
1.81466e-07
1.81429e-07
1.94932e-07
1.94641e-07
1.96624e-07
1.95607e-07
1.96004e-07
1.95767e-07
1.72765e-07
1.71361e-07
1.7139e-07
1.7147e-07
1.72124e-07
1.72653e-07
1.7543e-07
1.75126e-07
1.76476e-07
1.76842e-07
1.78351e-07
1.76719e-07
1.7382e-07
1.68989e-07
1.74188e-07
1.78397e-07
1.70965e-07
1.77338e-07
1.81653e-07
1.79796e-07
1.77624e-07
1.76511e-07
1.70792e-07
1.94749e-07
1.936e-07
1.91812e-07
1.9325e-07
1.94975e-07
1.90316e-07
1.90527e-07
1.85493e-07
1.87684e-07
1.83756e-07
1.82014e-07
1.82089e-07
1.81209e-07
1.94278e-07
1.93727e-07
1.95518e-07
1.95992e-07
1.94814e-07
1.90786e-07
1.95726e-07
1.96458e-07
1.75563e-07
1.70773e-07
1.73839e-07
1.71171e-07
1.75706e-07
1.71494e-07
1.6678e-07
1.64751e-07
1.68393e-07
1.75329e-07
1.75492e-07
1.73564e-07
1.76648e-07
1.65481e-07
1.74286e-07
1.7021e-07
1.75242e-07
1.70474e-07
1.81299e-07
1.78645e-07
1.77541e-07
1.74514e-07
1.73017e-07
1.95775e-07
1.9235e-07
1.93437e-07
1.91446e-07
1.96153e-07
1.94248e-07
1.89749e-07
1.86948e-07
1.85071e-07
1.87647e-07
1.83068e-07
1.82065e-07
1.82237e-07
1.82129e-07
1.96058e-07
1.96633e-07
1.95785e-07
1.95521e-07
1.95591e-07
1.94881e-07
1.96213e-07
1.90258e-07
1.95613e-07
1.95926e-07
1.74538e-07
1.72372e-07
1.69511e-07
1.71118e-07
1.7317e-07
1.7134e-07
1.68412e-07
1.67376e-07
1.65228e-07
1.76143e-07
1.75218e-07
1.73525e-07
1.75381e-07
1.65189e-07
1.67646e-07
1.77493e-07
1.67615e-07
1.6747e-07
1.72852e-07
1.72139e-07
1.81219e-07
1.75209e-07
1.77118e-07
1.75679e-07
1.7247e-07
1.93422e-07
1.91583e-07
1.91796e-07
1.9545e-07
1.93964e-07
1.86943e-07
1.85836e-07
1.82761e-07
1.80492e-07
1.86313e-07
1.83157e-07
1.82105e-07
1.82308e-07
1.83037e-07
1.93427e-07
1.94192e-07
1.95865e-07
1.94906e-07
1.96166e-07
1.9052e-07
1.93591e-07
1.90037e-07
1.89041e-07
1.86395e-07
1.95949e-07
1.96431e-07
1.70445e-07
1.69629e-07
1.69983e-07
1.68495e-07
1.7e-07
1.67216e-07
1.62877e-07
1.66704e-07
1.72666e-07
1.69999e-07
1.67154e-07
1.67585e-07
1.7567e-07
1.68418e-07
1.65331e-07
1.6943e-07
1.73731e-07
1.72866e-07
1.69635e-07
1.72942e-07
1.7398e-07
1.81527e-07
1.78157e-07
1.78943e-07
1.73353e-07
1.69945e-07
1.94508e-07
1.92299e-07
1.88887e-07
1.88125e-07
1.90796e-07
1.94969e-07
1.94967e-07
1.88936e-07
1.87476e-07
1.83869e-07
1.82738e-07
1.86402e-07
1.82906e-07
1.81767e-07
1.81864e-07
1.80771e-07
1.95591e-07
1.9424e-07
1.95751e-07
1.95599e-07
1.95599e-07
1.94564e-07
1.92643e-07
1.90627e-07
1.95217e-07
1.89916e-07
1.91108e-07
1.86359e-07
1.9443e-07
1.96207e-07
1.6979e-07
1.60933e-07
1.6262e-07
1.64331e-07
1.68435e-07
1.67252e-07
1.7017e-07
1.64117e-07
1.67395e-07
1.72222e-07
1.66768e-07
1.69849e-07
1.71659e-07
1.71688e-07
1.63364e-07
1.59509e-07
1.72238e-07
1.69107e-07
1.7113e-07
1.73004e-07
1.73773e-07
1.7991e-07
1.78734e-07
1.7685e-07
1.74272e-07
1.74278e-07
1.93228e-07
1.88911e-07
1.88954e-07
1.90595e-07
1.90253e-07
1.93811e-07
1.9561e-07
1.8913e-07
1.87852e-07
1.87593e-07
1.8604e-07
1.86226e-07
1.8307e-07
1.81533e-07
1.81333e-07
1.79849e-07
1.9363e-07
1.96684e-07
1.94562e-07
1.954e-07
1.96018e-07
1.94882e-07
1.88618e-07
1.8995e-07
1.93259e-07
1.95897e-07
1.8812e-07
1.91129e-07
1.87654e-07
1.96309e-07
1.96444e-07
1.7039e-07
1.70275e-07
1.64053e-07
1.68824e-07
1.64499e-07
1.64541e-07
1.65274e-07
1.57233e-07
1.66928e-07
1.67498e-07
1.67501e-07
1.68625e-07
1.68321e-07
1.69275e-07
1.71839e-07
1.60727e-07
1.63116e-07
1.66778e-07
1.72787e-07
1.64656e-07
1.72632e-07
1.73187e-07
1.7402e-07
1.80726e-07
1.76993e-07
1.71191e-07
1.76262e-07
1.7533e-07
1.94476e-07
1.93402e-07
1.93511e-07
1.90897e-07
1.90363e-07
1.94951e-07
1.95911e-07
1.86909e-07
1.88031e-07
1.87214e-07
1.84848e-07
1.86221e-07
1.82671e-07
1.80795e-07
1.77868e-07
1.76633e-07
1.95448e-07
1.96061e-07
1.95446e-07
1.95375e-07
1.95153e-07
1.93429e-07
1.9095e-07
1.90264e-07
1.91934e-07
1.95509e-07
1.88106e-07
1.86958e-07
1.87928e-07
1.87561e-07
1.94762e-07
1.69863e-07
1.67457e-07
1.62284e-07
1.67051e-07
1.674e-07
1.62583e-07
1.64431e-07
1.6991e-07
1.61125e-07
1.6968e-07
1.66533e-07
1.68537e-07
1.68624e-07
1.69306e-07
1.67018e-07
1.69571e-07
1.66333e-07
1.69274e-07
1.73422e-07
1.69171e-07
1.72939e-07
1.74118e-07
1.78202e-07
1.77688e-07
1.7446e-07
1.72994e-07
1.71255e-07
1.9395e-07
1.93501e-07
1.93476e-07
1.91697e-07
1.86327e-07
1.95109e-07
1.96048e-07
1.87592e-07
1.8862e-07
1.84382e-07
1.85226e-07
1.83019e-07
1.83373e-07
1.82922e-07
1.80461e-07
1.75711e-07
1.7685e-07
1.73749e-07
1.96031e-07
1.96691e-07
1.93767e-07
1.95776e-07
1.94312e-07
1.95434e-07
1.90095e-07
1.87248e-07
1.89277e-07
1.92422e-07
1.91723e-07
1.95294e-07
1.94938e-07
1.85669e-07
1.86296e-07
1.88367e-07
1.86078e-07
1.96415e-07
1.9585e-07
1.64818e-07
1.68714e-07
1.68321e-07
1.6249e-07
1.67609e-07
1.63785e-07
1.70881e-07
1.6984e-07
1.60411e-07
1.69597e-07
1.654e-07
1.66543e-07
1.66694e-07
1.71164e-07
1.68065e-07
1.64481e-07
1.70159e-07
1.66314e-07
1.65858e-07
1.702e-07
1.60451e-07
1.67548e-07
1.75297e-07
1.69799e-07
1.77636e-07
1.76516e-07
1.73936e-07
1.6917e-07
1.69253e-07
1.92502e-07
1.93107e-07
1.92304e-07
1.91983e-07
1.91615e-07
1.8623e-07
1.84162e-07
1.95186e-07
1.95706e-07
1.82879e-07
1.81737e-07
1.84288e-07
1.84946e-07
1.83037e-07
1.82761e-07
1.8253e-07
1.80621e-07
1.79397e-07
1.77172e-07
1.95868e-07
1.95786e-07
1.95605e-07
1.96277e-07
1.95836e-07
1.954e-07
1.94725e-07
1.86314e-07
1.85716e-07
1.88155e-07
1.90596e-07
1.85984e-07
1.94671e-07
1.93134e-07
1.8507e-07
1.83838e-07
1.81041e-07
1.85679e-07
1.94908e-07
1.95712e-07
1.72014e-07
1.68657e-07
1.68259e-07
1.68656e-07
1.69269e-07
1.70908e-07
1.63971e-07
1.67112e-07
1.67493e-07
1.64815e-07
1.65112e-07
1.66747e-07
1.70426e-07
1.72227e-07
1.67207e-07
1.6538e-07
1.65347e-07
1.59036e-07
1.63902e-07
1.68866e-07
1.73e-07
1.65342e-07
1.6426e-07
1.79027e-07
1.7874e-07
1.74648e-07
1.74459e-07
1.92983e-07
1.92688e-07
1.91902e-07
1.91733e-07
1.90162e-07
1.87703e-07
1.86523e-07
1.95945e-07
1.92808e-07
1.77131e-07
1.84745e-07
1.81762e-07
1.84243e-07
1.80178e-07
1.79758e-07
1.83732e-07
1.79002e-07
1.74904e-07
1.79819e-07
1.79587e-07
1.95789e-07
1.96697e-07
1.94928e-07
1.95126e-07
1.9642e-07
1.93755e-07
1.95553e-07
1.88297e-07
1.82216e-07
1.8447e-07
1.81967e-07
1.90622e-07
1.8847e-07
1.867e-07
1.95334e-07
1.95185e-07
1.94679e-07
1.9233e-07
1.823e-07
1.82246e-07
1.80663e-07
1.82352e-07
1.80144e-07
1.96463e-07
1.7212e-07
1.69935e-07
1.66937e-07
1.69449e-07
1.70168e-07
1.65629e-07
1.65102e-07
1.66866e-07
1.66742e-07
1.66122e-07
1.6387e-07
1.59422e-07
1.60548e-07
1.58163e-07
1.70873e-07
1.66616e-07
1.63956e-07
1.65211e-07
1.58537e-07
1.67313e-07
1.63373e-07
1.66081e-07
1.66123e-07
1.59988e-07
1.76893e-07
1.76897e-07
1.75332e-07
1.76052e-07
1.93901e-07
1.93859e-07
1.90873e-07
1.91057e-07
1.91476e-07
1.91433e-07
1.87271e-07
1.85911e-07
1.9332e-07
1.95377e-07
1.79535e-07
1.85824e-07
1.84271e-07
1.85029e-07
1.81323e-07
1.84016e-07
1.8398e-07
1.79003e-07
1.77515e-07
1.76445e-07
1.77243e-07
1.95302e-07
1.95513e-07
1.96494e-07
1.9515e-07
1.95486e-07
1.95036e-07
1.9499e-07
1.86269e-07
1.83378e-07
1.83085e-07
1.82662e-07
1.88435e-07
1.91143e-07
1.86199e-07
1.94524e-07
1.92602e-07
1.95235e-07
1.91615e-07
1.8161e-07
1.78345e-07
1.82631e-07
1.83094e-07
1.95675e-07
1.61152e-07
1.69726e-07
1.66966e-07
1.63867e-07
1.65572e-07
1.59773e-07
1.6568e-07
1.68163e-07
1.6594e-07
1.55923e-07
1.67147e-07
1.65001e-07
1.65336e-07
1.63525e-07
1.61015e-07
1.61947e-07
1.6594e-07
1.56969e-07
1.59429e-07
1.62564e-07
1.72641e-07
1.65861e-07
1.68643e-07
1.69981e-07
1.71897e-07
1.74656e-07
1.69415e-07
1.69159e-07
1.71238e-07
1.70856e-07
1.93648e-07
1.94723e-07
1.91756e-07
1.89627e-07
1.91147e-07
1.90409e-07
1.89599e-07
1.83176e-07
1.94988e-07
1.94724e-07
1.8507e-07
1.82683e-07
1.83246e-07
1.81859e-07
1.8184e-07
1.8173e-07
1.77637e-07
1.73795e-07
1.79742e-07
1.69693e-07
1.71486e-07
1.72793e-07
1.95604e-07
1.96704e-07
1.952e-07
1.95145e-07
1.94371e-07
1.9636e-07
1.94338e-07
1.83673e-07
1.853e-07
1.82995e-07
1.83413e-07
1.87226e-07
1.87094e-07
1.90664e-07
1.91727e-07
1.85758e-07
1.94281e-07
1.93187e-07
1.95735e-07
1.95232e-07
1.85669e-07
1.83311e-07
1.82056e-07
1.96469e-07
1.64376e-07
1.58866e-07
1.63445e-07
1.63476e-07
1.61949e-07
1.61292e-07
1.66485e-07
1.69045e-07
1.65459e-07
1.62981e-07
1.6634e-07
1.62176e-07
1.60824e-07
1.6321e-07
1.65584e-07
1.6162e-07
1.65846e-07
1.56304e-07
1.59903e-07
1.54341e-07
1.54057e-07
1.59921e-07
1.73033e-07
1.69446e-07
1.70158e-07
1.7304e-07
1.70846e-07
1.72377e-07
1.71194e-07
1.71135e-07
1.69137e-07
1.69377e-07
1.94935e-07
1.94068e-07
1.94748e-07
1.93376e-07
1.91828e-07
1.90219e-07
1.87334e-07
1.88186e-07
1.86097e-07
1.94233e-07
1.96352e-07
1.84616e-07
1.81115e-07
1.85369e-07
1.81543e-07
1.8049e-07
1.78486e-07
1.75079e-07
1.79255e-07
1.7224e-07
1.7648e-07
1.74424e-07
1.71795e-07
1.70825e-07
1.92676e-07
1.95564e-07
1.9495e-07
1.94905e-07
1.93614e-07
1.95659e-07
1.96334e-07
1.9447e-07
1.81959e-07
1.8398e-07
1.82959e-07
1.81649e-07
1.86998e-07
1.86034e-07
1.88512e-07
1.90657e-07
1.82488e-07
1.93594e-07
1.93562e-07
1.93262e-07
1.92202e-07
1.85442e-07
1.77177e-07
1.80457e-07
1.81346e-07
1.77412e-07
1.95213e-07
1.5996e-07
1.63427e-07
1.61336e-07
1.66218e-07
1.59747e-07
1.61031e-07
1.59983e-07
1.65519e-07
1.63948e-07
1.63132e-07
1.59099e-07
1.62611e-07
1.60008e-07
1.60542e-07
1.53432e-07
1.6313e-07
1.63193e-07
1.65646e-07
1.60665e-07
1.55434e-07
1.58226e-07
1.68992e-07
1.69795e-07
1.63342e-07
1.70719e-07
1.68085e-07
1.71892e-07
1.76431e-07
1.74133e-07
1.65355e-07
1.68315e-07
1.94753e-07
1.9379e-07
1.93931e-07
1.92452e-07
1.91626e-07
1.90037e-07
1.8432e-07
1.8594e-07
1.86672e-07
1.86108e-07
1.93875e-07
1.95155e-07
1.81034e-07
1.76634e-07
1.85429e-07
1.79318e-07
1.80379e-07
1.78383e-07
1.75782e-07
1.79337e-07
1.78509e-07
1.77945e-07
1.73961e-07
1.71231e-07
1.6648e-07
1.95446e-07
1.96715e-07
1.95393e-07
1.95732e-07
1.93158e-07
1.94059e-07
1.95904e-07
1.96572e-07
1.7938e-07
1.82628e-07
1.81407e-07
1.80125e-07
1.841e-07
1.85575e-07
1.82341e-07
1.82226e-07
1.88219e-07
1.90134e-07
1.91925e-07
1.81406e-07
1.78966e-07
1.95813e-07
1.9473e-07
1.95811e-07
1.94859e-07
1.94217e-07
1.77493e-07
1.80994e-07
1.80515e-07
1.7931e-07
1.95654e-07
1.64738e-07
1.63394e-07
1.61935e-07
1.63013e-07
1.60591e-07
1.59988e-07
1.59457e-07
1.58843e-07
1.56567e-07
1.61852e-07
1.61544e-07
1.51713e-07
1.52217e-07
1.5368e-07
1.58045e-07
1.5972e-07
1.56765e-07
1.53763e-07
1.63745e-07
1.65186e-07
1.54375e-07
1.60889e-07
1.68913e-07
1.63054e-07
1.62538e-07
1.60266e-07
1.66592e-07
1.67566e-07
1.72118e-07
1.73885e-07
1.73985e-07
1.67347e-07
1.66565e-07
1.92412e-07
1.91466e-07
1.92421e-07
1.93593e-07
1.93295e-07
1.92139e-07
1.90235e-07
1.90219e-07
1.84818e-07
1.85954e-07
1.87666e-07
1.8527e-07
1.95881e-07
1.95986e-07
1.9474e-07
1.81338e-07
1.79693e-07
1.85226e-07
1.79329e-07
1.79829e-07
1.7575e-07
1.75726e-07
1.78308e-07
1.75914e-07
1.78484e-07
1.77763e-07
1.69484e-07
1.74732e-07
1.92316e-07
1.94579e-07
1.93678e-07
1.9427e-07
1.94259e-07
1.94335e-07
1.96624e-07
1.82321e-07
1.79589e-07
1.78797e-07
1.83859e-07
1.85499e-07
1.85511e-07
1.82378e-07
1.838e-07
1.86611e-07
1.90283e-07
1.81403e-07
1.8477e-07
1.92868e-07
1.95096e-07
1.9428e-07
1.93304e-07
1.92028e-07
1.78345e-07
1.82164e-07
1.79121e-07
1.80157e-07
1.80022e-07
1.96548e-07
1.94775e-07
1.66883e-07
1.65452e-07
1.60951e-07
1.61336e-07
1.60423e-07
1.56274e-07
1.5725e-07
1.59373e-07
1.57868e-07
1.60049e-07
1.53096e-07
1.57736e-07
1.56582e-07
1.54857e-07
1.59348e-07
1.58574e-07
1.62332e-07
1.50339e-07
1.47949e-07
1.67156e-07
1.59466e-07
1.57435e-07
1.61209e-07
1.63502e-07
1.65993e-07
1.63176e-07
1.6052e-07
1.54674e-07
1.64828e-07
1.61566e-07
1.65908e-07
1.64281e-07
1.61816e-07
1.67272e-07
1.6821e-07
1.64991e-07
1.93116e-07
1.93368e-07
1.94288e-07
1.93985e-07
1.92568e-07
1.93038e-07
1.9122e-07
1.90455e-07
1.85956e-07
1.82102e-07
1.853e-07
1.86284e-07
1.94208e-07
1.9453e-07
1.95196e-07
1.94649e-07
1.822e-07
1.85008e-07
1.80053e-07
1.78945e-07
1.75727e-07
1.73639e-07
1.75884e-07
1.73767e-07
1.70813e-07
1.74515e-07
1.78132e-07
1.74789e-07
1.94168e-07
1.9435e-07
1.95944e-07
1.95774e-07
1.93901e-07
1.93959e-07
1.95301e-07
1.82038e-07
1.7837e-07
1.73682e-07
1.78339e-07
1.81614e-07
1.83222e-07
1.84414e-07
1.84696e-07
1.82144e-07
1.85442e-07
1.89773e-07
1.90666e-07
1.81192e-07
1.84238e-07
1.94905e-07
1.93318e-07
1.95029e-07
1.93788e-07
1.88282e-07
1.79907e-07
1.79992e-07
1.80272e-07
1.79193e-07
1.79751e-07
1.96324e-07
1.94462e-07
1.63938e-07
1.62123e-07
1.58802e-07
1.57001e-07
1.57338e-07
1.50039e-07
1.52474e-07
1.56488e-07
1.58223e-07
1.48506e-07
1.58774e-07
1.49325e-07
1.56519e-07
1.57268e-07
1.58264e-07
1.65638e-07
1.54162e-07
1.59929e-07
1.48878e-07
1.54507e-07
1.65767e-07
1.5747e-07
1.58862e-07
1.57929e-07
1.65677e-07
1.57462e-07
1.59631e-07
1.59527e-07
1.63155e-07
1.58425e-07
1.61062e-07
1.60094e-07
1.65214e-07
1.65694e-07
1.6503e-07
1.6512e-07
1.664e-07
1.66328e-07
1.92964e-07
1.91796e-07
1.94449e-07
1.95213e-07
1.92647e-07
1.9098e-07
1.9069e-07
1.87816e-07
1.88962e-07
1.8426e-07
1.84346e-07
1.83135e-07
1.77844e-07
1.95252e-07
1.95061e-07
1.94542e-07
1.91394e-07
1.79396e-07
1.77969e-07
1.78469e-07
1.76543e-07
1.72421e-07
1.70196e-07
1.76471e-07
1.74527e-07
1.76381e-07
1.7266e-07
1.70472e-07
1.70893e-07
1.93939e-07
1.96744e-07
1.93729e-07
1.96378e-07
1.92884e-07
1.9578e-07
1.94175e-07
1.93785e-07
1.82272e-07
1.78207e-07
1.77139e-07
1.78847e-07
1.81497e-07
1.83593e-07
1.84488e-07
1.84502e-07
1.78079e-07
1.86707e-07
1.87103e-07
1.90978e-07
1.82578e-07
1.78469e-07
1.92373e-07
1.91987e-07
1.93535e-07
1.96251e-07
1.90046e-07
1.79771e-07
1.74344e-07
1.78109e-07
1.81252e-07
1.78011e-07
1.78201e-07
1.95631e-07
1.93966e-07
1.53477e-07
1.58392e-07
1.60131e-07
1.58283e-07
1.58583e-07
1.51539e-07
1.55548e-07
1.57147e-07
1.52197e-07
1.54554e-07
1.57311e-07
1.52717e-07
1.56552e-07
1.57039e-07
1.63867e-07
1.56927e-07
1.61594e-07
1.58704e-07
1.55701e-07
1.49622e-07
1.5682e-07
1.55103e-07
1.52255e-07
1.58555e-07
1.56105e-07
1.60204e-07
1.59993e-07
1.58013e-07
1.60768e-07
1.6488e-07
1.65762e-07
1.66576e-07
1.65136e-07
1.65604e-07
1.64554e-07
1.66931e-07
1.66503e-07
1.66391e-07
1.93635e-07
1.8813e-07
1.89453e-07
1.97059e-07
1.94724e-07
1.93434e-07
1.88251e-07
1.88941e-07
1.87352e-07
1.88585e-07
1.87232e-07
1.8458e-07
1.83776e-07
1.80967e-07
1.94752e-07
1.95029e-07
1.94757e-07
1.95311e-07
1.91953e-07
1.77799e-07
1.79012e-07
1.76812e-07
1.79913e-07
1.72369e-07
1.7368e-07
1.75137e-07
1.72338e-07
1.75515e-07
1.70559e-07
1.68878e-07
1.6835e-07
1.70955e-07
1.92045e-07
1.96016e-07
1.94056e-07
1.9658e-07
1.94255e-07
1.94612e-07
1.95271e-07
1.95243e-07
1.79253e-07
1.77431e-07
1.78051e-07
1.78999e-07
1.72062e-07
1.75076e-07
1.83874e-07
1.84114e-07
1.8758e-07
1.84693e-07
1.8217e-07
1.87719e-07
1.90004e-07
1.9029e-07
1.78865e-07
1.75981e-07
1.94199e-07
1.90062e-07
1.93089e-07
1.96156e-07
1.94372e-07
1.90931e-07
1.79493e-07
1.75221e-07
1.76918e-07
1.781e-07
1.77199e-07
1.76912e-07
1.92746e-07
1.93685e-07
1.53137e-07
1.64628e-07
1.59914e-07
1.57978e-07
1.60027e-07
1.54211e-07
1.57536e-07
1.5304e-07
1.52345e-07
1.5556e-07
1.50117e-07
1.54114e-07
1.5765e-07
1.55298e-07
1.64769e-07
1.46937e-07
1.54466e-07
1.55191e-07
1.58187e-07
1.54325e-07
1.64902e-07
1.47893e-07
1.62426e-07
1.57157e-07
1.59114e-07
1.63927e-07
1.6541e-07
1.53602e-07
1.6684e-07
1.61023e-07
1.68162e-07
1.65617e-07
1.66452e-07
1.67462e-07
1.6636e-07
1.6633e-07
1.6932e-07
1.69325e-07
1.93939e-07
1.89312e-07
1.92836e-07
1.9744e-07
1.93316e-07
1.95162e-07
1.89102e-07
1.88695e-07
1.91271e-07
1.86307e-07
1.83649e-07
1.85232e-07
1.83064e-07
1.84981e-07
1.8125e-07
1.95804e-07
1.96422e-07
1.94312e-07
1.93522e-07
1.96379e-07
1.77601e-07
1.80428e-07
1.75329e-07
1.79445e-07
1.79055e-07
1.80104e-07
1.74405e-07
1.6784e-07
1.76175e-07
1.70938e-07
1.6806e-07
1.69673e-07
1.94139e-07
1.95969e-07
1.96742e-07
1.93953e-07
1.94921e-07
1.96355e-07
1.94342e-07
1.94309e-07
1.79244e-07
1.76382e-07
1.80746e-07
1.74283e-07
1.75026e-07
1.75757e-07
1.82137e-07
1.82959e-07
1.83595e-07
1.81598e-07
1.80654e-07
1.87753e-07
1.8593e-07
1.90833e-07
1.76741e-07
1.79676e-07
1.92419e-07
1.94848e-07
1.9449e-07
1.90844e-07
1.78321e-07
1.76019e-07
1.71318e-07
1.72793e-07
1.76871e-07
1.76098e-07
1.78837e-07
1.9653e-07
1.93635e-07
1.94011e-07
1.64344e-07
1.5129e-07
1.56314e-07
1.55163e-07
1.55651e-07
1.61437e-07
1.53387e-07
1.51653e-07
1.50755e-07
1.55225e-07
1.51434e-07
1.5327e-07
1.46911e-07
1.54326e-07
1.59105e-07
1.51244e-07
1.52697e-07
1.53629e-07
1.49397e-07
1.46935e-07
1.63878e-07
1.52939e-07
1.62536e-07
1.56935e-07
1.49682e-07
1.54777e-07
1.65913e-07
1.63107e-07
1.6103e-07
1.64915e-07
1.59487e-07
1.63791e-07
1.6669e-07
1.67728e-07
1.68063e-07
1.66032e-07
1.67832e-07
1.67775e-07
1.66356e-07
1.94942e-07
1.9474e-07
1.93107e-07
1.9506e-07
1.95621e-07
1.93408e-07
1.92227e-07
1.93449e-07
1.87993e-07
1.84754e-07
1.8099e-07
1.84367e-07
1.8626e-07
1.80934e-07
1.94491e-07
1.96465e-07
1.94111e-07
1.93812e-07
1.96621e-07
1.97169e-07
1.81693e-07
1.81636e-07
1.7901e-07
1.78083e-07
1.79211e-07
1.79677e-07
1.70173e-07
1.6206e-07
1.76646e-07
1.68304e-07
1.6877e-07
1.66717e-07
1.69382e-07
1.93419e-07
1.95839e-07
1.96e-07
1.94871e-07
1.95883e-07
1.92826e-07
1.94016e-07
1.77386e-07
1.76021e-07
1.79496e-07
1.76771e-07
1.72496e-07
1.75444e-07
1.76176e-07
1.77445e-07
1.7508e-07
1.83476e-07
1.80306e-07
1.83931e-07
1.79725e-07
1.81033e-07
1.79425e-07
1.8568e-07
1.87693e-07
1.89315e-07
1.90607e-07
1.80749e-07
1.92998e-07
1.9502e-07
1.94079e-07
1.95074e-07
1.78071e-07
1.74535e-07
1.75598e-07
1.77608e-07
1.78756e-07
1.75539e-07
1.92504e-07
1.93076e-07
1.94559e-07
1.4967e-07
1.53258e-07
1.55813e-07
1.54033e-07
1.5284e-07
1.59539e-07
1.56929e-07
1.5171e-07
1.5331e-07
1.42889e-07
1.60497e-07
1.51008e-07
1.52301e-07
1.48948e-07
1.58096e-07
1.47529e-07
1.4551e-07
1.49721e-07
1.47554e-07
1.53137e-07
1.49517e-07
1.49437e-07
1.49565e-07
1.58148e-07
1.58196e-07
1.50734e-07
1.45387e-07
1.64464e-07
1.53367e-07
1.64102e-07
1.52249e-07
1.48949e-07
1.54028e-07
1.59657e-07
1.67207e-07
1.69234e-07
1.71035e-07
1.65794e-07
1.66632e-07
1.68513e-07
1.5801e-07
1.56626e-07
1.95008e-07
1.95211e-07
1.95601e-07
1.93577e-07
1.96576e-07
1.95563e-07
1.93739e-07
1.93284e-07
1.9023e-07
1.90928e-07
1.83984e-07
1.87295e-07
1.85293e-07
1.84991e-07
1.79663e-07
1.86908e-07
1.95555e-07
1.94487e-07
1.95683e-07
1.92833e-07
1.96796e-07
1.94514e-07
1.82241e-07
1.7877e-07
1.79062e-07
1.78033e-07
1.79023e-07
1.72357e-07
1.69313e-07
1.6782e-07
1.68599e-07
1.69494e-07
1.68106e-07
1.6844e-07
1.66027e-07
1.93641e-07
1.959e-07
1.96749e-07
1.95908e-07
1.94279e-07
1.96412e-07
1.9608e-07
1.95863e-07
1.95273e-07
1.7695e-07
1.75156e-07
1.72633e-07
1.78827e-07
1.74248e-07
1.76212e-07
1.7626e-07
1.78212e-07
1.78639e-07
1.82869e-07
1.79081e-07
1.84169e-07
1.78598e-07
1.80669e-07
1.80412e-07
1.85487e-07
1.87625e-07
1.87167e-07
1.88218e-07
1.77221e-07
1.90589e-07
1.93098e-07
1.95368e-07
1.95285e-07
1.77802e-07
1.76735e-07
1.75012e-07
1.73412e-07
1.77725e-07
1.69693e-07
1.72309e-07
1.92364e-07
1.94059e-07
1.95e-07
1.53084e-07
1.57742e-07
1.53187e-07
1.49672e-07
1.50512e-07
1.49893e-07
1.53845e-07
1.56369e-07
1.53299e-07
1.51729e-07
1.60897e-07
1.59174e-07
1.50969e-07
1.4925e-07
1.41446e-07
1.52162e-07
1.47571e-07
1.57551e-07
1.4827e-07
1.58378e-07
1.47682e-07
1.49808e-07
1.47377e-07
1.48124e-07
1.55197e-07
1.53484e-07
1.50697e-07
1.61421e-07
1.58888e-07
1.56003e-07
1.55588e-07
1.54412e-07
1.51762e-07
1.51608e-07
1.66577e-07
1.65383e-07
1.70138e-07
1.65789e-07
1.64422e-07
1.66125e-07
1.63492e-07
1.58297e-07
1.94591e-07
1.94629e-07
1.9632e-07
1.96371e-07
1.95871e-07
1.94246e-07
1.94487e-07
1.92856e-07
1.9308e-07
1.93105e-07
1.85539e-07
1.89007e-07
1.85167e-07
1.81998e-07
1.85064e-07
1.8722e-07
1.82947e-07
1.94188e-07
1.95478e-07
1.96201e-07
1.92161e-07
1.94412e-07
1.9627e-07
1.79754e-07
1.72263e-07
1.77123e-07
1.75735e-07
1.7891e-07
1.70284e-07
1.6888e-07
1.66174e-07
1.6969e-07
1.61406e-07
1.66562e-07
1.67663e-07
1.66976e-07
1.93584e-07
1.92766e-07
1.96319e-07
1.93689e-07
1.94077e-07
1.95185e-07
1.9546e-07
1.93702e-07
1.94434e-07
1.76528e-07
1.7141e-07
1.76414e-07
1.76138e-07
1.75031e-07
1.77223e-07
1.75078e-07
1.7766e-07
1.78846e-07
1.8091e-07
1.83471e-07
1.80702e-07
1.79627e-07
1.74996e-07
1.76943e-07
1.83136e-07
1.7895e-07
1.8338e-07
1.87367e-07
1.862e-07
1.88865e-07
1.75544e-07
1.91799e-07
1.93069e-07
1.92183e-07
1.94206e-07
1.95671e-07
1.70045e-07
1.76802e-07
1.74659e-07
1.71171e-07
1.73291e-07
1.73057e-07
1.71776e-07
1.9659e-07
1.93223e-07
1.9386e-07
1.95194e-07
1.588e-07
1.56663e-07
1.5005e-07
1.49201e-07
1.47053e-07
1.53676e-07
1.56792e-07
1.5531e-07
1.52792e-07
1.38837e-07
1.55757e-07
1.49815e-07
1.47225e-07
1.49459e-07
1.5189e-07
1.50362e-07
1.53411e-07
1.47485e-07
1.52601e-07
1.4619e-07
1.43097e-07
1.48244e-07
1.49943e-07
1.5259e-07
1.54899e-07
1.51586e-07
1.62025e-07
1.57726e-07
1.55314e-07
1.53766e-07
1.54814e-07
1.56948e-07
1.47276e-07
1.66176e-07
1.61171e-07
1.56977e-07
1.65653e-07
1.63878e-07
1.57601e-07
1.5779e-07
1.60744e-07
1.61763e-07
1.92678e-07
1.91707e-07
1.94144e-07
1.96206e-07
1.96251e-07
1.95432e-07
1.94894e-07
1.92754e-07
1.91023e-07
1.93555e-07
1.92675e-07
1.83045e-07
1.93424e-07
1.82408e-07
1.80033e-07
1.85804e-07
1.91872e-07
1.88195e-07
1.92197e-07
1.95266e-07
1.9648e-07
1.96001e-07
1.95655e-07
1.95565e-07
1.9613e-07
1.81944e-07
1.77706e-07
1.77791e-07
1.77044e-07
1.70499e-07
1.70314e-07
1.69218e-07
1.69348e-07
1.63673e-07
1.66663e-07
1.67648e-07
1.67206e-07
1.95136e-07
1.9273e-07
1.96745e-07
1.96254e-07
1.94298e-07
1.9519e-07
1.95774e-07
1.95818e-07
1.95586e-07
1.95472e-07
1.76696e-07
1.76663e-07
1.73964e-07
1.72913e-07
1.77235e-07
1.74977e-07
1.75892e-07
1.77652e-07
1.78539e-07
1.76922e-07
1.822e-07
1.79462e-07
1.81461e-07
1.78749e-07
1.7503e-07
1.83438e-07
1.81119e-07
1.82666e-07
1.83472e-07
1.89665e-07
1.87114e-07
1.70252e-07
1.91642e-07
1.92034e-07
1.93226e-07
1.93777e-07
1.94556e-07
1.69563e-07
1.71067e-07
1.66775e-07
1.73846e-07
1.75268e-07
1.73132e-07
1.72538e-07
1.71996e-07
1.92292e-07
1.92719e-07
1.94685e-07
1.95754e-07
1.54321e-07
1.4797e-07
1.48573e-07
1.41806e-07
1.48512e-07
1.41834e-07
1.49098e-07
1.54617e-07
1.55831e-07
1.53378e-07
1.45534e-07
1.32704e-07
1.49029e-07
1.52637e-07
1.5276e-07
1.52024e-07
1.56323e-07
1.50361e-07
1.45454e-07
1.46236e-07
1.45635e-07
1.51303e-07
1.55766e-07
1.43249e-07
1.54525e-07
1.52985e-07
1.52317e-07
1.566e-07
1.60388e-07
1.57004e-07
1.48838e-07
1.51543e-07
1.51266e-07
1.54606e-07
1.57223e-07
1.64244e-07
1.59199e-07
1.60998e-07
1.65158e-07
1.6396e-07
1.62025e-07
1.59761e-07
1.60609e-07
1.61744e-07
1.93006e-07
1.9339e-07
1.95722e-07
1.95324e-07
1.946e-07
1.94592e-07
1.90302e-07
1.91224e-07
1.92118e-07
1.90723e-07
1.88852e-07
1.91413e-07
1.85429e-07
1.80361e-07
1.77023e-07
1.90293e-07
1.92335e-07
1.92137e-07
1.949e-07
1.95581e-07
1.95429e-07
1.95994e-07
1.95974e-07
1.95526e-07
1.78364e-07
1.80004e-07
1.7077e-07
1.70243e-07
1.66537e-07
1.79224e-07
1.71037e-07
1.69338e-07
1.69338e-07
1.66987e-07
1.66291e-07
1.68003e-07
1.67808e-07
1.94111e-07
1.93781e-07
1.95089e-07
1.92974e-07
1.94749e-07
1.94962e-07
1.94931e-07
1.95664e-07
1.94849e-07
1.94685e-07
1.75717e-07
1.76123e-07
1.69912e-07
1.74525e-07
1.74315e-07
1.71767e-07
1.71724e-07
1.72382e-07
1.76473e-07
1.77402e-07
1.77473e-07
1.78596e-07
1.7848e-07
1.75266e-07
1.79302e-07
1.78849e-07
1.73706e-07
1.86647e-07
1.82537e-07
1.86658e-07
1.86952e-07
1.89871e-07
1.90778e-07
1.92286e-07
1.93317e-07
1.93225e-07
1.93965e-07
1.95085e-07
1.94347e-07
1.67808e-07
1.70768e-07
1.69303e-07
1.73566e-07
1.75448e-07
1.71646e-07
1.65608e-07
1.72319e-07
1.9212e-07
1.93817e-07
1.9416e-07
1.95668e-07
1.45258e-07
1.49253e-07
1.50366e-07
1.50172e-07
1.44255e-07
1.5254e-07
1.45574e-07
1.50635e-07
1.5033e-07
1.52482e-07
1.36665e-07
1.47035e-07
1.49314e-07
1.51728e-07
1.54019e-07
1.42834e-07
1.54741e-07
1.56276e-07
1.51451e-07
1.48724e-07
1.54865e-07
1.53423e-07
1.53737e-07
1.4929e-07
1.51927e-07
1.4823e-07
1.55154e-07
1.54014e-07
1.54836e-07
1.59413e-07
1.57807e-07
1.53575e-07
1.5484e-07
1.483e-07
1.43474e-07
1.56587e-07
1.60521e-07
1.6625e-07
1.67832e-07
1.68368e-07
1.65982e-07
1.64078e-07
1.63441e-07
1.61533e-07
1.60567e-07
1.93423e-07
1.9214e-07
1.95377e-07
1.96249e-07
1.94809e-07
1.94353e-07
1.92918e-07
1.91293e-07
1.89766e-07
1.88747e-07