/*--------------------------------*- C++ -*----------------------------------*\
| =========                 |                                                 |
| \\      /  F ield         | OpenFOAM: The Open Source CFD Toolbox           |
|  \\    /   O peration     | Version:  v2012                                 |
|   \\  /    A nd           | Website:  www.openfoam.com                      |
|    \\/     M anipulation  |                                                 |
\*---------------------------------------------------------------------------*/
FoamFile
{
    version     2.0;
    format      ascii;
    class       volVectorField;
    location    "0.3";
    object      U;
}
// * * * * * * * * * * * * * * * * * * * * * * * * * * * * * * * * * * * * * //

dimensions      [0 1 -1 0 0 0 0];


internalField   nonuniform List<vector> 
13611
(
(8.06998 -0.0467681 0)
(8.12041 -0.0367357 0)
(8.11527 -0.178024 0)
(8.16109 -0.0829167 1.41737e-23)
(8.19131 -0.0794974 -7.26371e-23)
(8.20714 -0.0835965 6.13865e-24)
(8.10128 -0.0580649 2.06257e-22)
(8.14975 -0.124086 -1.37264e-22)
(8.2345 -0.0848553 2.80788e-24)
(8.19731 -0.0868674 -2.27454e-23)
(8.20605 -0.0952573 4.18131e-23)
(8.07622 -0.0502498 -1.35249e-22)
(8.16288 -0.0911136 -1.37512e-22)
(8.16849 -0.207603 -2.75693e-22)
(8.23083 -0.0946793 5.81522e-24)
(8.19778 -0.0876124 -1.9474e-23)
(8.21444 -0.102078 -4.27395e-23)
(8.19747 -0.0938832 4.49985e-23)
(8.08453 -0.0313902 9.31748e-23)
(8.16335 -0.0970704 1.91426e-23)
(8.17049 -0.13181 7.24121e-23)
(8.2445 -0.0981751 0)
(8.23828 -0.103637 0)
(8.22595 -0.101667 -4.97362e-23)
(8.21031 -0.111402 2.27696e-23)
(8.1917 -0.105772 -4.08678e-23)
(8.11327 -0.0726435 2.02782e-22)
(8.16859 -0.101677 -4.74371e-23)
(8.14122 -0.161882 -1.24571e-22)
(8.25111 -0.103404 7.65338e-24)
(8.23517 -0.11468 -3.52087e-23)
(8.22823 -0.115274 -3.44192e-23)
(8.21482 -0.123354 -2.68164e-23)
(8.19799 -0.113903 2.58807e-23)
(8.18099 -0.107503 -4.18897e-23)
(8.10551 -0.0814949 7.27169e-23)
(8.1466 -0.099556 -1.50122e-23)
(8.15999 -0.129952 1.08979e-22)
(8.24999 -0.112698 1.5277e-24)
(8.23649 -0.12433 -3.74186e-23)
(8.22257 -0.124397 -1.93074e-23)
(8.20813 -0.130569 -5.60235e-24)
(8.19707 -0.125171 0)
(8.17848 -0.121641 1.62085e-23)
(8.08301 -0.0955556 -2.82319e-23)
(8.14929 -0.105079 1.32043e-23)
(8.10683 -0.190192 0)
(8.10207 -0.0958645 -2.97911e-23)
(8.24405 -0.12346 -4.07714e-23)
(8.25938 -0.115523 -4.22745e-24)
(8.23022 -0.134076 -8.34871e-24)
(8.22162 -0.133676 7.15276e-24)
(8.20461 -0.138328 1.51227e-23)
(8.19001 -0.131359 0)
(8.1824 -0.130697 1.22867e-23)
(8.16883 -0.123363 2.48863e-23)
(8.11746 -0.111718 0)
(8.15641 -0.115618 3.78009e-23)
(8.12676 -0.134324 0)
(8.12409 -0.0843948 8.30584e-26)
(8.25101 -0.133112 8.93127e-24)
(8.26051 -0.12897 1.29508e-23)
(8.23053 -0.144639 1.19638e-23)
(8.21471 -0.143161 -3.05008e-25)
(8.27822 -0.124331 -2.53719e-24)
(8.19714 -0.14518 5.61441e-24)
(8.20835 -0.143837 1.51105e-23)
(8.18989 -0.143145 0)
(8.17695 -0.139044 5.1666e-24)
(8.16346 -0.135217 -2.69617e-23)
(8.11388 -0.116978 0)
(8.14857 -0.119286 1.03271e-23)
(8.06096 -0.19091 -2.42084e-22)
(8.11927 -0.107294 0)
(8.24855 -0.144998 0)
(8.26893 -0.132086 0)
(8.22357 -0.153071 1.94913e-23)
(8.23969 -0.149201 1.88382e-23)
(8.21532 -0.15324 1.72491e-23)
(8.19603 -0.153687 0)
(8.20261 -0.153189 7.82801e-24)
(8.18297 -0.151963 -2.45717e-23)
(8.16786 -0.141654 -3.13594e-23)
(8.17678 -0.150495 -2.40995e-23)
(8.15442 -0.138232 8.29652e-24)
(8.1247 -0.117483 0)
(8.14801 -0.132078 -5.67938e-25)
(8.07936 -0.172069 2.54791e-22)
(8.12438 -0.109446 -1.86555e-23)
(8.25852 -0.155644 3.41411e-24)
(8.27095 -0.140972 0)
(8.22732 -0.162783 0)
(8.23702 -0.161363 1.8811e-24)
(8.21079 -0.161954 -4.94882e-25)
(8.28675 -0.141752 0)
(8.18976 -0.161326 -1.5158e-23)
(8.20243 -0.160564 -8.09075e-24)
(8.18257 -0.160735 -8.73691e-25)
(8.16285 -0.151069 0)
(8.16928 -0.156596 0)
(8.14786 -0.148184 2.01202e-23)
(8.11984 -0.113118 3.06439e-23)
(8.14011 -0.136419 0)
(8.08236 -0.10617 -4.12253e-22)
(8.1327 -0.115303 -7.87499e-23)
(8.26908 -0.152582 -1.15116e-23)
(8.25662 -0.168943 4.52691e-24)
(8.22066 -0.173126 -3.06456e-24)
(8.24401 -0.17081 0)
(8.2129 -0.17346 -5.2159e-25)
(8.29433 -0.151006 9.03301e-25)
(8.30596 -0.152204 2.12111e-24)
(8.18957 -0.170884 -2.143e-24)
(8.19755 -0.170489 -9.98811e-24)
(8.17663 -0.16722 1.35793e-23)
(8.15485 -0.158693 0)
(8.16471 -0.16622 2.03282e-23)
(8.14867 -0.157812 9.87077e-24)
(8.13908 -0.151301 -7.84894e-24)
(8.1131 -0.117307 6.42603e-24)
(8.13027 -0.131379 0)
(8.13233 -0.145611 -5.33591e-23)
(8.09143 -0.189393 3.06899e-22)
(8.10929 -0.0791599 -9.27729e-23)
(8.14123 -0.118329 0)
(8.28387 -0.159625 -1.16481e-23)
(8.26635 -0.178981 -8.44373e-24)
(8.22487 -0.180353 -1.79802e-23)
(8.23848 -0.179026 -1.01034e-23)
(8.2051 -0.178601 0)
(8.31074 -0.165751 1.40048e-23)
(8.18362 -0.177812 -1.32628e-23)
(8.17733 -0.17627 -1.45047e-23)
(8.16825 -0.170125 2.17717e-23)
(8.15532 -0.168379 -1.15817e-23)
(8.13965 -0.165065 -7.16437e-25)
(8.13402 -0.161691 0)
(8.10703 -0.118245 -2.22234e-23)
(8.12453 -0.134933 2.34687e-23)
(8.12308 -0.151707 -2.73487e-23)
(8.10778 -0.135654 0)
(8.09799 -0.0956063 0)
(8.12805 -0.118994 0)
(8.28763 -0.170739 5.28904e-24)
(8.26198 -0.188701 -1.49821e-23)
(8.28024 -0.179141 -7.34955e-24)
(8.2231 -0.189139 -1.26403e-23)
(8.24375 -0.188161 0)
(8.20141 -0.186047 2.1418e-24)
(8.30279 -0.174095 1.3044e-23)
(8.32338 -0.169146 1.82201e-23)
(8.1842 -0.186865 6.46098e-24)
(8.1709 -0.181905 -7.13917e-24)
(8.16326 -0.177893 4.15498e-24)
(8.1485 -0.176752 -1.24482e-23)
(8.13535 -0.172233 1.9881e-23)
(8.12567 -0.165011 0)
(8.09689 -0.119649 -5.38453e-25)
(8.11177 -0.128742 2.26105e-23)
(8.11468 -0.142385 1.75676e-23)
(8.12095 -0.16175 1.59639e-23)
(8.11604 -0.150425 1.42024e-23)
(8.08269 -0.17959 0)
(8.08567 -0.0691674 0)
(8.12396 -0.122447 0)
(8.25286 -0.191733 -5.31705e-24)
(8.26979 -0.199685 0)
(8.28683 -0.19146 1.94852e-23)
(8.21588 -0.195659 -6.9292e-24)
(8.23589 -0.194255 -1.62039e-24)
(8.192 -0.190172 2.2254e-24)
(8.20773 -0.193657 5.21402e-24)
(8.30703 -0.18675 1.45284e-23)
(8.32753 -0.180595 4.17606e-24)
(8.17672 -0.191755 5.57011e-24)
(8.17044 -0.189282 6.11197e-25)
(8.15764 -0.185167 1.02442e-23)
(8.14101 -0.178047 2.31165e-23)
(8.15058 -0.185215 -6.46949e-24)
(8.125 -0.178544 -5.62238e-24)
(8.11928 -0.17533 2.18672e-23)
(8.10812 -0.12542 6.30477e-24)
(8.10388 -0.130739 0)
(8.10238 -0.145662 1.77897e-24)
(8.11393 -0.166259 1.70978e-23)
(8.10561 -0.158267 8.89223e-24)
(8.08763 -0.132606 2.38162e-23)
(8.08279 -0.0834007 4.05036e-23)
(8.25361 -0.206156 -1.2088e-23)
(8.28044 -0.20043 7.15979e-24)
(8.26276 -0.209892 -1.32208e-23)
(8.29918 -0.194289 1.26958e-23)
(8.21998 -0.20641 0)
(8.23734 -0.203512 1.31438e-24)
(8.19311 -0.20124 -2.0218e-23)
(8.20217 -0.203061 -1.58876e-23)
(8.31973 -0.190083 1.82544e-23)
(8.33964 -0.18157 -3.41901e-24)
(8.17771 -0.201246 -1.54076e-23)
(8.16155 -0.192777 -9.60558e-25)
(8.13506 -0.187071 1.30043e-23)
(8.14538 -0.193977 -7.25483e-24)
(8.12545 -0.186687 -5.23032e-24)
(8.11223 -0.178051 1.23526e-23)
(8.10726 -0.121214 -2.78177e-23)
(8.09788 -0.126002 0)
(8.09746 -0.140312 0)
(8.09736 -0.155066 3.56311e-23)
(8.10518 -0.164201 6.41653e-24)
(8.10996 -0.173887 0)
(8.07751 -0.0710399 2.3801e-23)
(8.05848 -0.175031 0)
(8.10091 -0.116054 0)
(8.24734 -0.210164 -2.11122e-24)
(8.28374 -0.211057 0)
(8.26684 -0.217626 0)
(8.30186 -0.208004 1.38144e-23)
(8.21568 -0.213588 -2.48582e-25)
(8.2299 -0.208013 4.9943e-25)
(8.18585 -0.206325 -1.40346e-23)
(8.20589 -0.212278 -9.43265e-25)
(8.32261 -0.20277 0)
(8.34382 -0.194434 0)
(8.16992 -0.205618 -1.61383e-23)
(8.16073 -0.200594 -1.69098e-23)
(8.13692 -0.19362 6.13588e-24)
(8.14763 -0.20108 0)
(8.11977 -0.193828 0)
(8.10487 -0.185329 -1.78682e-24)
(8.10042 -0.121147 -2.04375e-23)
(8.08948 -0.130478 -1.19768e-23)
(8.08673 -0.14321 0)
(8.08614 -0.160603 2.74139e-23)
(8.09733 -0.17036 0)
(8.10051 -0.176826 0)
(8.0789 -0.0903289 -3.32431e-23)
(8.0717 -0.115719 -5.52477e-23)
(8.09322 -0.110461 0)
(8.24355 -0.219875 -3.09902e-24)
(8.27758 -0.217997 0)
(8.29464 -0.214305 0)
(8.26171 -0.225861 0)
(8.31326 -0.212259 1.47369e-23)
(8.21855 -0.222192 -1.03781e-23)
(8.23336 -0.218257 7.87576e-25)
(8.18503 -0.216313 0)
(8.20039 -0.218223 2.63321e-24)
(8.33516 -0.204991 -5.77099e-24)
(8.16977 -0.213688 -3.55349e-25)
(8.15503 -0.203848 -2.36734e-25)
(8.13255 -0.201174 0)
(8.14472 -0.20942 5.77689e-24)
(8.11356 -0.194354 0)
(8.12499 -0.201569 0)
(8.10737 -0.190572 0)
(8.09653 -0.18277 2.75618e-23)
(8.0951 -0.112859 4.41665e-24)
(8.08275 -0.127511 -1.36818e-23)
(8.08356 -0.138913 0)
(8.07811 -0.151516 -6.6876e-24)
(8.07887 -0.158562 -9.52403e-24)
(8.08272 -0.169502 0)
(8.08852 -0.173042 0)
(8.0726 -0.0660635 0)
(8.0865 -0.109315 -2.3856e-24)
(8.04412 -0.154101 1.49826e-22)
(8.24599 -0.227147 8.10354e-24)
(8.28129 -0.226876 -3.80919e-24)
(8.29181 -0.226338 -3.35429e-24)
(8.26683 -0.23575 0)
(8.25399 -0.230316 0)
(8.31594 -0.223632 1.55233e-23)
(8.22695 -0.224541 -1.02507e-23)
(8.21258 -0.228857 0)
(8.17753 -0.21912 0)
(8.19241 -0.221166 2.2904e-24)
(8.20497 -0.227611 0)
(8.33563 -0.215603 -3.16287e-24)
(8.16275 -0.218834 1.2821e-24)
(8.15652 -0.215366 9.93281e-26)
(8.13672 -0.209247 0)
(8.15024 -0.217714 5.21712e-24)
(8.11141 -0.203584 -3.55804e-24)
(8.12169 -0.210173 7.36241e-24)
(8.10134 -0.197021 -4.185e-24)
(8.08952 -0.185946 2.55702e-23)
(8.09017 -0.112391 -1.14617e-23)
(8.08279 -0.121116 -1.82904e-24)
(8.07181 -0.133581 0)
(8.07174 -0.14045 0)
(8.0671 -0.152689 -1.67617e-23)
(8.06727 -0.163896 -5.81923e-24)
(8.07455 -0.173804 0)
(8.08264 -0.182178 5.43613e-24)
(8.06703 -0.0873098 1.11989e-23)
(8.07693 -0.114157 -1.27462e-23)
(8.0464 -0.142065 1.5343e-24)
(8.23786 -0.234487 8.50643e-24)
(8.27545 -0.235175 0)
(8.2972 -0.234037 0)
(8.26049 -0.245202 -1.37835e-23)
(8.25281 -0.243374 -1.38601e-23)
(8.30921 -0.233962 1.80118e-24)
(8.32736 -0.225105 1.71249e-23)
(8.22866 -0.232791 5.11354e-25)
(8.2142 -0.23753 0)
(8.17499 -0.227576 -7.84958e-24)
(8.192 -0.230319 -2.67027e-25)
(8.19939 -0.233547 0)
(8.34742 -0.221045 0)
(8.35769 -0.217944 -5.28212e-24)
(8.16504 -0.226148 -1.49909e-24)
(8.13298 -0.217621 -2.19592e-24)
(8.14693 -0.225517 -6.31047e-25)
(8.1045 -0.204446 -8.31958e-24)
(8.11478 -0.210129 2.73714e-24)
(8.1254 -0.217351 6.76811e-24)
(8.09508 -0.196947 0)
(8.08976 -0.192144 0)
(8.08428 -0.109893 4.06656e-23)
(8.07111 -0.120037 0)
(8.0609 -0.133957 7.80328e-24)
(8.06364 -0.146685 -5.03518e-23)
(8.06072 -0.160147 -2.04282e-24)
(8.06631 -0.170004 3.36378e-24)
(8.06996 -0.182045 6.39931e-24)
(8.07546 -0.185994 -5.23096e-24)
(8.06201 -0.0839913 -2.4007e-23)
(8.03887 -0.0850191 -3.19564e-22)
(8.23761 -0.245334 0)
(8.28079 -0.244872 0)
(8.29093 -0.244251 0)
(8.26397 -0.251899 -6.32717e-24)
(8.24542 -0.249226 0)
(8.31328 -0.245795 1.14716e-23)
(8.33276 -0.233475 5.06507e-24)
(8.22154 -0.239553 -2.72594e-26)
(8.20708 -0.244131 -1.09347e-23)
(8.17889 -0.233453 -3.83459e-24)
(8.18648 -0.235479 0)
(8.1999 -0.241361 -2.00621e-23)
(8.34651 -0.233141 4.09173e-24)
(8.3684 -0.22965 -4.31417e-24)
(8.1609 -0.233766 0)
(8.13719 -0.225544 -5.79536e-24)
(8.15118 -0.23211 2.88559e-24)
(8.1002 -0.210956 -7.13379e-24)
(8.11043 -0.217658 -4.90455e-24)
(8.12108 -0.225265 4.32035e-24)
(8.09091 -0.204571 0)
(8.08375 -0.196427 0)
(8.0812 -0.108982 2.67142e-23)
(8.0605 -0.126539 7.35002e-24)
(8.07071 -0.114384 -1.13168e-24)
(8.04958 -0.141274 -3.63841e-23)
(8.05224 -0.147854 -3.74834e-23)
(8.04914 -0.162762 0)
(8.05662 -0.176947 4.8204e-24)
(8.06062 -0.184482 9.99517e-24)
(8.07655 -0.193174 -1.11163e-23)
(8.07565 -0.0910768 0)
(8.05373 -0.138758 2.16552e-22)
(8.05406 -0.0587695 -9.74673e-23)
(8.22887 -0.251838 1.29022e-23)
(8.27571 -0.252723 0)
(8.29637 -0.252127 0)
(8.25991 -0.260116 -4.89851e-24)
(8.24393 -0.258812 0)
(8.32311 -0.250528 6.65242e-24)
(8.30814 -0.252402 5.07343e-24)
(8.3311 -0.246399 5.17275e-25)
(8.22088 -0.249538 1.20475e-23)
(8.20653 -0.25247 -1.07631e-23)
(8.17391 -0.242871 -8.9979e-24)
(8.18666 -0.244258 0)
(8.19236 -0.246551 -8.63974e-24)
(8.35379 -0.243804 0)
(8.36471 -0.242927 -5.29677e-24)
(8.16656 -0.24378 0)
(8.15523 -0.233594 1.15281e-24)
(8.13258 -0.230951 -1.71921e-24)
(8.14616 -0.238508 -1.06162e-23)
(8.09299 -0.210043 0)
(8.1031 -0.217207 -7.64773e-24)
(8.11339 -0.225122 0)
(8.12497 -0.231401 -1.85853e-24)
(8.08387 -0.203212 0)
(8.08264 -0.102697 -1.66033e-23)
(8.04718 -0.127537 -1.35946e-25)
(8.06414 -0.111878 0)
(8.03822 -0.141997 -3.59286e-23)
(8.04359 -0.15672 0)
(8.04428 -0.169227 0)
(8.0501 -0.176016 0)
(8.05937 -0.189528 -1.12697e-23)
(8.07009 -0.198621 -1.05311e-23)
(8.07904 -0.100528 -1.72183e-24)
(8.05503 -0.102799 1.07297e-22)
(8.03997 -0.0712942 1.18471e-22)
(8.22826 -0.259721 -1.69854e-24)
(8.27791 -0.262822 2.67703e-24)
(8.29403 -0.263149 0)
(8.25118 -0.263873 0)
(8.2686 -0.267124 3.20802e-24)
(8.23639 -0.263095 -5.70732e-24)
(8.32114 -0.263313 -3.233e-24)
(8.31236 -0.263598 0)
(8.3444 -0.254469 -3.08621e-24)
(8.21344 -0.255257 -1.06589e-23)
(8.19899 -0.258048 -1.11342e-23)
(8.17827 -0.249494 -9.0445e-24)
(8.19152 -0.255211 -1.60383e-23)
(8.37461 -0.252719 1.61401e-23)
(8.16068 -0.253314 -6.39125e-24)
(8.15051 -0.242416 -4.52598e-24)
(8.13386 -0.239336 6.18997e-24)
(8.13966 -0.242316 -2.26056e-25)
(8.08858 -0.216284 0)
(8.09879 -0.223654 0)
(8.10877 -0.231667 -2.91206e-24)
(8.12222 -0.236763 8.59835e-24)
(8.07868 -0.208115 4.67107e-24)
(8.07454 -0.100809 0)
(8.04392 -0.12094 -1.32111e-25)
(8.03438 -0.135402 0)
(8.0667 -0.105315 -2.73908e-23)
(8.05119 -0.114621 -4.87666e-24)
(8.02962 -0.149713 0)
(8.03398 -0.156582 0)
(8.03825 -0.172399 1.26662e-23)
(8.04617 -0.182163 -2.14673e-24)
(8.05309 -0.192305 -1.41465e-23)
(8.06468 -0.197091 4.79748e-24)
(8.0718 -0.206343 5.29294e-24)
(8.07404 -0.0910083 0)
(8.02233 -0.0583992 -2.32317e-23)
(8.03935 -0.128863 5.6827e-23)
(8.06325 -0.0936819 -1.66702e-23)
(8.2237 0.0720064 4.57186e-24)
(8.2353 0.0989798 0)
(8.22122 -0.267557 1.76481e-23)
(8.28537 -0.267048 3.88577e-25)
(8.30383 -0.270569 0)
(8.25074 -0.274308 2.68486e-24)
(8.26805 -0.277022 0)
(8.23498 -0.27407 0)
(8.32898 -0.270047 -2.32075e-24)
(8.34794 -0.26425 -1.75741e-23)
(8.21345 -0.265252 1.19735e-23)
(8.19866 -0.26686 -4.96455e-24)
(8.17655 -0.256637 9.10091e-24)
(8.18403 -0.2603 -4.51317e-24)
(8.38882 -0.250068 7.0623e-24)
(8.36811 -0.261898 8.37288e-24)
(8.15333 -0.251303 -8.60792e-25)
(8.16234 -0.2588 -2.27887e-24)
(8.12867 -0.242015 0)
(8.1405 -0.251411 0)
(8.08087 -0.215056 5.33636e-24)
(8.09158 -0.222905 0)
(8.1016 -0.230437 -5.85919e-24)
(8.11075 -0.238759 -4.28009e-24)
(8.11679 -0.240365 5.59975e-24)
(8.0726 -0.0942281 2.81982e-23)
(8.02841 -0.121601 5.22853e-24)
(8.02391 -0.135508 -1.14556e-24)
(8.0547 -0.103496 -2.28883e-23)
(8.04555 -0.108687 3.7454e-23)
(8.02017 -0.149979 0)
(8.02902 -0.163011 0)
(8.03986 -0.180472 0)
(8.03211 -0.169908 1.05726e-23)
(8.04724 -0.188469 -1.44293e-24)
(8.05311 -0.200524 6.13966e-24)
(8.05962 -0.2031 3.19328e-24)
(8.06736 -0.212543 5.59276e-24)
(8.02697 -0.0464927 7.74912e-23)
(8.03285 -0.0902394 -1.27319e-22)
(8.06824 -0.0898642 1.34143e-23)
(8.24399 0.0735692 2.27422e-23)
(8.21334 0.0889597 1.97084e-23)
(8.23037 0.0814792 1.76618e-23)
(8.22244 0.0214494 -1.04933e-22)
(8.21823 0.195009 0)
(8.22481 -0.275597 5.20614e-24)
(8.28584 -0.279509 -8.12241e-24)
(8.30528 -0.278776 -5.90745e-24)
(8.25801 -0.279723 1.45769e-24)
(8.24209 -0.278503 3.02632e-24)
(8.27717 -0.283868 0)
(8.3408 -0.271439 0)
(8.32436 -0.281601 0)
(8.35948 -0.267637 -1.63553e-23)
(8.20597 -0.270564 0)
(8.19044 -0.271726 -4.87705e-24)
(8.17045 -0.25981 1.03932e-23)
(8.18345 -0.268524 0)
(8.3729 -0.270424 3.73724e-24)
(8.1471 -0.254826 0)
(8.15801 -0.265712 1.12593e-23)
(8.12618 -0.248022 4.88027e-24)
(8.134 -0.256399 -8.37015e-25)
(8.07634 -0.221736 7.87197e-24)
(8.08764 -0.228008 0)
(8.09638 -0.236474 -6.08956e-24)
(8.10487 -0.245263 0)
(8.11846 -0.247457 4.32411e-24)
(8.06525 -0.0936013 2.73518e-23)
(8.02417 -0.116158 -2.55583e-23)
(8.01903 -0.128748 -1.852e-23)
(8.01598 -0.143442 0)
(8.05431 -0.0980171 2.18774e-24)
(8.03465 -0.109256 2.67991e-23)
(8.01715 -0.15615 -1.71653e-24)
(8.02269 -0.162604 -1.47392e-24)
(8.03493 -0.183905 -6.13688e-24)
(8.02675 -0.176006 0)
(8.04056 -0.193785 0)
(8.04697 -0.204552 1.26237e-23)
(8.06056 -0.209854 2.4437e-24)
(8.06919 -0.220074 0)
(8.04445 -0.065887 8.22945e-23)
(8.00115 -0.110079 6.46375e-23)
(8.06129 -0.0845631 0)
(8.06509 -0.0849532 3.57084e-23)
(8.24183 0.0942944 -3.70216e-23)
(8.21596 0.0977819 1.07152e-23)
(8.20915 0.0903342 -2.23445e-23)
(8.22516 0.0932237 -2.94737e-24)
(8.21209 0.0591602 9.04267e-24)
(8.27101 0.124445 2.90465e-22)
(8.21971 -0.283332 1.78266e-24)
(8.29567 -0.284422 -7.72347e-24)
(8.31486 -0.284603 -7.94561e-24)
(8.25613 -0.290896 -5.79648e-24)
(8.24028 -0.287709 -1.16913e-23)
(8.27339 -0.291921 -8.63694e-25)
(8.3414 -0.285917 1.75206e-24)
(8.33192 -0.291524 1.91542e-24)
(8.35842 -0.281854 0)
(8.20399 -0.279716 9.72942e-24)
(8.18864 -0.278559 -5.0414e-24)
(8.16993 -0.270099 0)
(8.17581 -0.2737 -4.57143e-25)
(8.38226 -0.268642 0)
(8.36609 -0.283041 0)
(8.14269 -0.26203 6.47533e-25)
(8.16339 -0.273226 0)
(8.15111 -0.270187 9.53158e-24)
(8.1283 -0.254616 3.37684e-24)
(8.13426 -0.262218 -1.98565e-24)
(8.07978 -0.227894 7.7578e-24)
(8.09 -0.234799 -6.27324e-24)
(8.09818 -0.243984 0)
(8.10666 -0.25116 1.29563e-24)
(8.11423 -0.251915 5.28623e-24)
(8.01202 -0.115045 -2.76215e-23)
(8.01038 -0.129036 -1.85172e-23)
(8.00826 -0.142615 0)
(8.04599 -0.0962207 -1.01179e-23)
(8.02699 -0.104169 1.04211e-23)
(8.01035 -0.159359 -2.09129e-23)
(8.01799 -0.168852 0)
(8.02847 -0.182111 -8.9338e-24)
(8.03503 -0.190694 -6.28302e-24)
(8.01992 -0.174748 2.1948e-24)
(8.04048 -0.201404 3.73781e-25)
(8.04701 -0.211621 0)
(8.0543 -0.214661 0)
(8.06301 -0.225257 0)
(8.03375 -0.0614245 0)
(8.00383 -0.0970764 -1.62172e-22)
(8.05848 -0.0765111 -1.47379e-23)
(8.06149 -0.081756 9.6586e-24)
(8.2391 0.0992878 3.43628e-24)
(8.21228 0.110253 2.62637e-24)
(8.19796 0.106448 1.27197e-23)
(8.23758 0.10123 3.37665e-23)
(8.22782 0.105368 3.55242e-23)
(8.25717 0.103632 -1.78165e-23)
(8.21375 0.0399383 0)
(8.23983 0.204692 -3.25258e-22)
(8.21051 -0.285145 9.56069e-24)
(8.22478 -0.290713 -3.60213e-24)
(8.29382 -0.294482 0)
(8.31021 -0.298084 7.89783e-24)
(8.26407 -0.296708 -8.23201e-24)
(8.24785 -0.294142 -5.58148e-24)
(8.23315 -0.291398 -5.30912e-24)
(8.2782 -0.299435 4.00403e-24)
(8.34953 -0.290274 -9.37579e-25)
(8.32723 -0.300523 0)
(8.1965 -0.28265 0)
(8.18248 -0.28483 -4.6963e-24)
(8.17519 -0.282406 8.01182e-24)
(8.39671 -0.276397 -8.7809e-24)
(8.3863 -0.27929 -1.64239e-24)
(8.37014 -0.289421 1.75833e-24)
(8.14501 -0.268419 0)
(8.1592 -0.279943 -3.0822e-24)
(8.15071 -0.279526 0)
(8.12129 -0.260256 2.27408e-24)
(8.1286 -0.268198 0)
(8.07644 -0.234426 -2.57074e-24)
(8.08281 -0.239764 -8.538e-24)
(8.09117 -0.249118 0)
(8.10234 -0.258522 1.02495e-23)
(8.11537 -0.258457 1.81856e-24)
(8.01213 -0.107476 -3.1892e-23)
(8.00501 -0.118134 -1.66794e-23)
(8.00626 -0.12471 0)
(8.00584 -0.136866 1.81728e-23)
(8.00399 -0.14845 0)
(8.04605 -0.0890793 -1.22692e-24)
(8.03054 -0.098763 -1.16785e-23)
(8.00397 -0.155689 -1.2815e-23)
(8.01002 -0.166816 0)
(8.0232 -0.188764 1.21182e-23)
(8.02698 -0.194281 -6.28716e-24)
(8.01399 -0.180948 2.31501e-24)
(8.0335 -0.205487 -6.17788e-24)
(8.04041 -0.216008 0)
(8.05532 -0.222091 0)
(8.06298 -0.233603 7.17385e-24)
(8.04448 -0.0671386 1.49749e-25)
(8.00261 -0.0614242 0)
(8.06199 -0.0769083 -7.5084e-24)
(8.05181 -0.0727598 3.228e-25)
(8.05247 -0.0846885 -8.70425e-24)
(8.23546 0.104931 9.35626e-23)
(8.202 0.116917 0)
(8.21566 0.122413 8.06852e-24)
(8.18517 0.117304 0)
(8.24599 0.108733 -1.69522e-23)
(8.22393 0.119365 0)
(8.26834 0.109955 -1.38566e-24)
(8.20879 0.0699992 -4.47947e-23)
(8.28512 0.140213 -2.19311e-22)
(8.20791 -0.295483 -1.51526e-24)
(8.22086 -0.298551 0)
(8.3021 -0.301532 2.05068e-24)
(8.28608 -0.300695 0)
(8.31602 -0.304523 7.75232e-24)
(8.26383 -0.304997 3.90273e-24)
(8.24435 -0.304499 9.12474e-25)
(8.23305 -0.300603 -1.4321e-24)
(8.27245 -0.307282 8.10973e-24)
(8.34942 -0.301726 8.18106e-24)
(8.33134 -0.309183 -1.12413e-23)
(8.19495 -0.29142 5.13905e-24)
(8.18588 -0.292094 -1.84983e-24)
(8.16929 -0.287098 7.98861e-24)
(8.38176 -0.287868 3.74677e-24)
(8.36907 -0.300444 1.80412e-24)
(8.13816 -0.276331 -2.57282e-24)
(8.16203 -0.285444 -2.41738e-24)
(8.14614 -0.285515 0)
(8.12127 -0.266765 -1.8946e-24)
(8.13043 -0.275042 0)
(8.06903 -0.23768 0)
(8.08302 -0.245859 0)
(8.09089 -0.255529 -3.48148e-24)
(8.10745 -0.263684 -1.07347e-24)
(8.09622 -0.259844 4.47187e-24)
(8.00363 -0.105127 -4.84322e-23)
(7.99715 -0.116654 -2.46741e-23)
(7.9991 -0.128187 0)
(7.9985 -0.134068 2.66105e-23)
(7.99424 -0.145697 0)
(8.03145 -0.0869401 0)
(8.02202 -0.0933767 0)
(7.99435 -0.162219 6.7878e-25)
(8.005 -0.171479 1.05986e-23)
(8.01573 -0.188029 1.25695e-23)
(8.02645 -0.200872 0)
(8.0062 -0.179002 -1.80824e-24)
(8.03324 -0.212415 0)
(8.04074 -0.222911 0)
(8.04833 -0.226255 8.67554e-25)
(8.05588 -0.236695 6.44434e-24)
(8.03113 -0.0480778 0)
(8.011 -0.0949342 0)
(8.05734 -0.0750148 0)
(8.05517 -0.0681405 0)
(8.04884 -0.0785161 0)
(8.22692 0.11733 4.13865e-23)
(8.19926 0.130085 -9.70616e-24)
(8.20836 0.132793 6.27583e-24)
(8.18052 0.133676 0)
(8.19677 0.121297 0)
(8.24526 0.121373 4.00639e-24)
(8.23266 0.126878 0)
(8.2674 0.121821 -7.43248e-25)
(8.20963 0.0583246 1.18014e-22)
(8.24084 0.192888 2.95397e-22)
(8.20016 -0.297172 2.66549e-24)
(8.213 -0.301437 -3.06385e-25)
(8.2254 -0.303819 -1.79545e-24)
(8.29663 -0.311282 -2.19934e-24)
(8.28787 -0.311389 -4.55849e-24)
(8.31437 -0.314271 0)
(8.25764 -0.310832 -6.61648e-25)
(8.23724 -0.306127 -2.42731e-24)
(8.24955 -0.311305 0)
(8.27402 -0.315964 0)
(8.35948 -0.307064 9.42039e-24)
(8.3404 -0.310614 -8.79846e-24)
(8.32344 -0.318018 -2.8088e-24)
(8.18165 -0.298728 5.29553e-25)
(8.16903 -0.296295 4.82421e-27)
(8.39582 -0.296206 -4.54371e-24)
(8.38717 -0.297422 -7.95702e-25)
(8.38003 -0.307083 0)
(8.13872 -0.28455 -2.21292e-24)
(8.15747 -0.292424 0)
(8.14952 -0.2923 0)
(8.11477 -0.272083 -3.71655e-24)
(8.12234 -0.281952 -1.37996e-24)
(8.06827 -0.246248 -1.10678e-24)
(8.07567 -0.250021 6.15349e-26)
(8.08316 -0.26034 0)
(8.10743 -0.269385 -7.35841e-25)
(8.09165 -0.267221 -5.69212e-24)
(8.00185 -0.0985015 -3.26827e-23)
(7.99476 -0.110856 -1.69137e-23)
(7.9933 -0.122721 -6.1945e-24)
(7.99218 -0.138456 7.25547e-24)
(7.98709 -0.151025 -5.32341e-25)
(8.02746 -0.0815583 0)
(8.00981 -0.0932078 -4.08761e-23)
(7.99593 -0.169709 7.71633e-24)
(7.98842 -0.159739 -7.79524e-25)
(8.01025 -0.193869 0)
(8.01938 -0.204202 -1.76943e-25)
(7.99959 -0.184637 0)
(8.02596 -0.217193 0)
(8.03412 -0.22772 -8.98511e-25)
(8.04869 -0.233063 4.4383e-24)
(8.05243 -0.243725 -1.77256e-24)
(8.02877 -0.0539039 -6.8077e-23)
(8.00644 -0.0675986 1.13185e-22)
(8.05637 -0.0699058 0)
(8.04703 -0.067027 4.4157e-24)
(8.03775 -0.0764935 0)
(8.208 0.0849571 1.84971e-23)
(8.19086 0.137619 -8.86929e-24)
(8.21147 0.142222 0)
(8.17374 0.144334 0)
(8.19111 0.123848 0)
(8.25536 0.127444 3.98471e-24)
(8.23208 0.138639 8.73492e-24)
(8.29092 0.120928 0)
(8.27813 0.127304 1.77091e-24)
(8.28163 0.153476 -2.12002e-22)
(8.19521 -0.304401 -8.1842e-25)
(8.21001 -0.309868 -3.05358e-25)
(8.22374 -0.310723 3.44767e-26)
(8.29893 -0.318057 8.00574e-24)
(8.28166 -0.318469 0)
(8.30701 -0.320295 7.71909e-24)
(8.25853 -0.321009 7.3693e-24)
(8.23115 -0.313406 -3.63204e-24)
(8.24442 -0.322697 3.74296e-24)
(8.26637 -0.322906 9.12902e-24)
(8.35829 -0.321111 0)
(8.34134 -0.3246 -1.16428e-23)
(8.32355 -0.3285 -3.67414e-24)
(8.17405 -0.300686 2.21362e-24)
(8.18659 -0.305163 -9.06493e-25)
(8.16101 -0.298359 -9.19e-25)
(8.40221 -0.304533 -5.83687e-24)
(8.37842 -0.317121 9.44684e-24)
(8.13301 -0.290055 7.46407e-25)
(8.14541 -0.300279 6.16038e-24)
(8.11496 -0.279828 7.04841e-24)
(8.12341 -0.288852 7.88144e-25)
(8.06068 -0.252024 -9.30999e-24)
(8.07547 -0.257558 1.55326e-24)
(8.08356 -0.266904 0)
(8.10123 -0.273834 0)
(8.09396 -0.272285 -4.72351e-24)
(7.99264 -0.0969725 6.33276e-24)
(7.98788 -0.109136 0)
(7.98598 -0.125995 3.23107e-23)
(7.98336 -0.134122 0)
(7.97925 -0.149875 -8.3306e-24)
(8.0131 -0.0814842 2.21009e-23)
(8.00394 -0.0858629 -4.70279e-25)
(7.98989 -0.174889 -1.36951e-23)
(7.97905 -0.161864 4.44434e-24)
(8.00125 -0.192025 0)
(8.01196 -0.20124 0)
(8.01822 -0.213009 1.18898e-25)
(7.99259 -0.182862 5.80869e-25)
(8.0261 -0.224691 -1.58452e-24)
(8.03422 -0.235437 -9.74519e-25)
(8.04111 -0.237632 3.23058e-24)
(8.04301 -0.243541 1.91791e-24)
(8.05433 -0.249554 -7.8498e-24)
(8.0107 -0.0362237 3.77769e-23)
(8.00218 -0.0821675 -1.16815e-22)
(8.0551 -0.067194 2.22772e-24)
(8.05209 -0.0632147 2.08729e-23)
(8.03566 -0.0720342 -1.70091e-23)
(8.19725 0.107437 -4.50823e-24)
(8.19241 0.149784 0)
(8.22342 0.145234 -9.26167e-24)
(8.20318 0.151377 0)
(8.16244 0.144913 0)
(8.17641 0.155123 1.11506e-23)
(8.19565 0.126726 0)
(8.17208 0.136746 0)
(8.2546 0.139073 -8.43081e-24)
(8.24415 0.144639 1.57702e-23)
(8.29513 0.129687 -3.56298e-24)
(8.27382 0.139414 -2.51223e-25)
(8.21416 0.215873 -1.1873e-22)
(8.21072 0.103587 -9.25655e-23)
(8.19698 -0.312562 0)
(8.20327 -0.314897 1.92155e-25)
(8.21605 -0.314898 0)
(8.29196 -0.328603 -3.26562e-24)
(8.28341 -0.327824 0)
(8.30566 -0.333776 -8.65659e-24)
(8.24984 -0.328499 0)
(8.23178 -0.320449 -5.68431e-24)
(8.23765 -0.325565 -2.5078e-24)
(8.26783 -0.332306 -8.14351e-24)
(8.34931 -0.328338 -8.6825e-24)
(8.36742 -0.325044 0)
(8.33237 -0.332027 -3.20819e-24)
(8.31259 -0.336306 -1.34215e-23)
(8.17151 -0.309695 -6.32762e-25)
(8.18362 -0.312828 0)
(8.15798 -0.305993 -4.30345e-24)
(8.39737 -0.3156 -8.38622e-24)
(8.38645 -0.321713 1.03705e-23)
(8.13466 -0.29686 -4.21524e-24)
(8.13941 -0.300799 4.83661e-24)
(8.15018 -0.30746 -2.88702e-24)
(8.10778 -0.284331 7.79089e-24)
(8.11915 -0.294141 -2.8526e-24)
(8.061 -0.261475 7.25492e-24)
(8.06857 -0.263829 0)
(8.07931 -0.272296 1.9791e-24)
(8.10118 -0.281869 -4.58543e-24)
(8.08924 -0.279732 0)
(7.99004 -0.0910341 -7.59812e-24)
(7.9862 -0.102477 0)
(7.9808 -0.113357 0)
(7.97884 -0.12062 2.74247e-23)
(7.97491 -0.137618 0)
(7.97298 -0.144883 -7.5827e-24)
(7.97308 -0.157227 -7.96973e-24)
(8.01044 -0.0752657 3.15215e-23)
(7.99571 -0.0851756 -2.95272e-23)
(7.98045 -0.177032 -1.43523e-23)
(7.97631 -0.166723 0)
(7.99345 -0.197607 -1.47352e-23)
(8.00315 -0.206767 0)
(8.00757 -0.219255 -1.69278e-23)
(7.98373 -0.188709 -1.92385e-24)
(8.0185 -0.228858 -1.53148e-24)
(8.02711 -0.23959 -3.98089e-24)
(8.03982 -0.24967 1.89765e-24)
(8.04596 -0.25509 9.15601e-25)
(8.0133 -0.0453997 -2.62349e-23)
(7.99254 -0.0649848 1.05477e-23)
(8.05605 -0.0622055 1.22537e-23)
(8.04787 -0.0659876 -2.43487e-24)
(8.04118 -0.0646746 -1.53152e-25)
(8.04061 -0.0675224 -1.04155e-23)
(8.02075 -0.0711454 2.7428e-23)
(8.1861 0.156345 0)
(8.22544 0.158195 -7.1194e-24)
(8.20628 0.161325 0)
(8.15599 0.157587 1.04829e-23)
(8.1723 0.164083 2.11274e-23)
(8.19184 0.129054 0)
(8.16114 0.142075 0)
(8.26438 0.14476 -8.50299e-24)
(8.24433 0.155661 0)
(8.28933 0.14159 -8.55305e-24)
(8.27762 0.145373 -1.63878e-24)
(8.24734 0.15727 8.91201e-23)
(8.23167 0.093511 -5.8587e-24)
(8.18922 -0.317594 0)
(8.20384 -0.324579 2.0193e-25)
(8.21647 -0.322608 5.65177e-24)
(8.29616 -0.337651 -1.20785e-24)
(8.27594 -0.334794 -7.74976e-24)
(8.25046 -0.336367 4.11531e-24)
(8.22414 -0.325484 0)
(8.23282 -0.334964 0)
(8.25887 -0.339046 4.96064e-24)
(8.34722 -0.341593 -3.75797e-24)
(8.36526 -0.335924 0)
(8.32987 -0.344177 3.19262e-25)
(8.3111 -0.345521 0)
(8.16319 -0.31215 0)
(8.1762 -0.315317 0)
(8.40502 -0.32143 -1.01629e-23)
(8.3828 -0.335872 0)
(8.12939 -0.301052 -5.19337e-24)
(8.13472 -0.308902 0)
(8.14571 -0.313638 -1.4057e-24)
(8.10787 -0.290508 0)
(8.11308 -0.294691 -2.43781e-24)
(8.12312 -0.300344 3.85008e-25)
(8.05406 -0.266266 7.75897e-24)
(8.07057 -0.271148 0)
(8.08223 -0.279372 2.02612e-24)
(8.09333 -0.285039 -4.4895e-24)
(7.98114 -0.087949 -1.23741e-24)
(7.97842 -0.100111 0)
(7.97137 -0.109634 1.31904e-23)
(7.96559 -0.124506 -2.98453e-23)
(7.964 -0.132318 1.78851e-23)
(7.96306 -0.148553 0)
(7.96443 -0.155658 -4.22647e-24)
(8.00128 -0.0711408 -3.4034e-23)
(7.99142 -0.0792696 -3.25431e-24)
(7.9779 -0.172621 0)
(7.9769 -0.185444 -3.04435e-24)
(7.96551 -0.169075 -1.55045e-23)
(7.98443 -0.195214 -1.67476e-23)
(7.99514 -0.204498 0)
(8.00097 -0.215359 -1.22306e-23)
(8.0083 -0.227072 0)
(8.01885 -0.236198 -4.30322e-24)
(8.0249 -0.246903 -4.65466e-24)
(8.03061 -0.251632 1.90603e-24)
(8.04584 -0.261775 -4.91364e-24)
(7.99929 -0.0397544 3.67051e-23)
(7.98279 -0.0689141 0)
(8.05419 -0.0600083 -3.4828e-24)
(8.04932 -0.0629428 -5.68029e-24)
(8.04918 -0.0606226 -1.8173e-23)
(8.02922 -0.0630799 0)
(8.01876 -0.0652894 -1.98373e-23)
(8.18703 0.167691 7.15378e-25)
(8.21905 0.164584 -4.00003e-24)
(8.23612 0.162238 0)
(8.20304 0.170758 6.38246e-24)
(8.16304 0.166902 1.71885e-23)
(8.14704 0.159315 -4.75692e-24)
(8.17786 0.170852 1.11059e-23)
(8.17151 0.131049 -9.73962e-24)
(8.22187 0.116485 0)
(8.15999 0.139604 6.16247e-24)
(8.14788 0.152733 0)
(8.26206 0.155387 8.5044e-24)
(8.25339 0.160303 3.79851e-24)
(8.30804 0.145615 2.58539e-23)
(8.29287 0.155264 2.21829e-23)
(8.27422 0.158704 1.0341e-23)
(8.17532 0.187788 -1.77033e-22)
(8.18861 -0.32628 7.02985e-24)
(8.19621 -0.330507 7.36925e-24)
(8.21014 -0.327839 5.20044e-24)
(8.29 -0.347006 6.09221e-25)
(8.27312 -0.344711 1.11859e-23)
(8.24294 -0.343083 0)
(8.22482 -0.333851 0)
(8.2353 -0.341571 0)
(8.25655 -0.346216 7.83152e-24)
(8.33802 -0.349023 -3.46161e-24)
(8.35515 -0.345081 -1.41427e-24)
(8.3734 -0.341524 -2.11318e-25)
(8.32089 -0.349517 5.24543e-26)
(8.30388 -0.35416 -5.42055e-24)
(8.1594 -0.318715 -2.56791e-25)
(8.17222 -0.321734 0)
(8.4018 -0.33316 -1.03131e-23)
(8.39076 -0.34092 0)
(8.12934 -0.308638 -5.13696e-24)
(8.1379 -0.31415 -1.14354e-24)
(8.14671 -0.320378 -7.27733e-24)
(8.10144 -0.294404 0)
(8.10844 -0.303165 0)
(8.11858 -0.307452 -2.47493e-24)
(8.05386 -0.273599 -7.28555e-24)
(8.06618 -0.276391 1.37808e-23)
(8.07762 -0.285508 5.66233e-24)
(8.09417 -0.290487 9.62448e-24)
(7.97673 -0.092349 2.16726e-24)
(7.98205 -0.0815571 -7.90389e-25)
(7.97065 -0.103765 0)
(7.96205 -0.112984 1.55134e-23)
(7.95921 -0.118668 -2.2311e-23)
(7.95269 -0.136843 3.88391e-23)