/*--------------------------------*- C++ -*----------------------------------*\
| =========                 |                                                 |
| \\      /  F ield         | OpenFOAM: The Open Source CFD Toolbox           |
|  \\    /   O peration     | Version:  v2012                                 |
|   \\  /    A nd           | Website:  www.openfoam.com                      |
|    \\/     M anipulation  |                                                 |
\*---------------------------------------------------------------------------*/
FoamFile
{
    version     2.0;
    format      ascii;
    class       surfaceVectorField;
    location    "0.3";
    object      Uf;
}
// * * * * * * * * * * * * * * * * * * * * * * * * * * * * * * * * * * * * * //

dimensions      [0 1 -1 0 0 0 0];


internalField   nonuniform List<vector> 
21399
(
(8.09508 -0.0357683 0)
(8.1083 -0.0865416 0)
(8.13976 -0.0638057 7.71392e-24)
(8.11358 -0.0458659 8.72614e-23)
(8.10693 -0.141793 -7.98686e-23)
(8.17454 -0.0818719 -2.1363e-22)
(8.19367 -0.0824969 -1.54858e-21)
(8.20263 -0.0832875 -8.56469e-24)
(8.20826 -0.0908009 -2.30673e-21)
(8.07725 -0.0654073 -3.53295e-20)
(8.13383 -0.0804289 8.75136e-21)
(8.11018 -0.0730789 1.00719e-20)
(8.18493 -0.136784 -2.02393e-22)
(8.23167 -0.0902993 -6.32369e-22)
(8.19494 -0.0872685 -2.1192e-23)
(8.21023 -0.097854 -2.86081e-24)
(8.20064 -0.0953045 -2.03242e-21)
(8.09209 -0.0419914 5.32469e-22)
(8.18498 -0.084923 -1.16994e-20)
(8.16226 -0.0945409 -6.253e-23)
(8.12836 -0.145026 -7.3248e-20)
(8.23517 -0.0997235 2.43145e-24)
(8.22843 -0.0978846 -1.9175e-23)
(8.19785 -0.0918554 1.63147e-23)
(8.22224 -0.101197 -1.18654e-21)
(8.21207 -0.107915 -2.17081e-24)
(8.19467 -0.0991253 6.40844e-24)
(8.12783 -0.0809046 8.27748e-23)
(8.10444 -0.0632075 -2.62066e-20)
(8.14105 -0.0831692 4.22254e-21)
(8.16357 -0.0969113 -1.20405e-23)
(8.18397 -0.129703 -1.10172e-23)
(8.2413 -0.100926 0)
(8.2476 -0.101409 3.82551e-24)
(8.23757 -0.109105 -1.65613e-23)
(8.22751 -0.110212 -4.06493e-23)
(8.21282 -0.118054 -4.75574e-24)
(8.20507 -0.112461 4.60864e-23)
(8.19553 -0.111721 8.0721e-25)
(8.18704 -0.106477 -2.68662e-22)
(8.10396 -0.0756815 1.31037e-22)
(8.17399 -0.105212 4.64589e-22)
(8.15702 -0.0999804 -1.42578e-21)
(8.12652 -0.129455 -6.21904e-20)
(8.2503 -0.107963 2.3317e-22)
(8.23143 -0.115249 4.63652e-22)
(8.23562 -0.118238 -2.99277e-22)
(8.22559 -0.119284 -2.77354e-23)
(8.21879 -0.123774 -1.6312e-22)
(8.21131 -0.127194 -1.55515e-23)
(8.19723 -0.120165 1.09402e-23)
(8.18054 -0.116349 -8.87009e-24)
(8.12658 -0.0915155 -1.43285e-22)
(8.09456 -0.0882096 -7.09271e-22)
(8.14754 -0.101987 -3.82285e-22)
(8.1639 -0.138436 5.08882e-23)
(8.12938 -0.10904 4.35346e-21)
(8.24662 -0.117808 6.5063e-23)
(8.25537 -0.114052 -1.69874e-24)
(8.24111 -0.123649 -3.2631e-22)
(8.23371 -0.129716 -2.18061e-23)
(8.22202 -0.129428 4.6402e-23)
(8.20335 -0.128507 -3.25258e-24)
(8.20635 -0.135226 3.8537e-22)
(8.19359 -0.12797 0)
(8.18087 -0.126842 1.7891e-22)
(8.17279 -0.122635 2.06372e-23)
(8.08964 -0.102046 7.50668e-21)
(8.10325 -0.106386 -1.27707e-23)
(8.13269 -0.107729 6.0316e-24)
(8.15306 -0.110934 2.47601e-23)
(8.09158 -0.135239 0)
(8.11654 -0.0896369 -1.73707e-23)
(8.2477 -0.129209 -1.47595e-23)
(8.25996 -0.122106 -3.49188e-23)
(8.22572 -0.13415 -7.96414e-25)
(8.2305 -0.140422 1.82722e-22)
(8.21779 -0.138667 3.17928e-24)
(8.20003 -0.141855 -1.94062e-22)
(8.20681 -0.140574 4.6142e-22)
(8.1871 -0.130736 5.61885e-24)
(8.18997 -0.138818 0)
(8.17916 -0.136128 7.78569e-24)
(8.16349 -0.118944 1.17543e-21)
(8.16584 -0.129764 -3.45714e-24)
(8.1172 -0.114097 0)
(8.15075 -0.117235 -5.4107e-22)
(8.1254 -0.10981 4.11146e-26)
(8.12943 -0.150213 -1.02098e-22)
(8.12649 -0.100948 4.59458e-26)
(8.25653 -0.130756 1.32897e-22)
(8.24971 -0.138561 4.76228e-24)
(8.26505 -0.130738 5.91246e-24)
(8.22609 -0.149013 1.60098e-23)
(8.23575 -0.146207 6.55358e-22)
(8.21123 -0.14356 7.887e-24)
(8.21506 -0.148869 9.61747e-24)
(8.27355 -0.127998 -1.35561e-24)
(8.19438 -0.144227 3.34226e-24)
(8.19656 -0.149811 2.65646e-24)
(8.20562 -0.149301 3.9062e-22)
(8.18648 -0.147573 -1.22748e-23)
(8.17253 -0.140281 -5.74456e-23)
(8.1769 -0.144829 -1.03423e-23)
(8.16609 -0.139564 4.26097e-22)
(8.15906 -0.136693 -4.44809e-24)
(8.11624 -0.112822 0)
(8.11646 -0.11379 0)
(8.13698 -0.118568 5.354e-24)
(8.14882 -0.1272 1.66523e-21)
(8.04709 -0.156338 -6.82139e-20)
(8.11262 -0.107972 -9.59149e-24)
(8.24295 -0.147514 1.05293e-23)
(8.25377 -0.150101 1.76475e-24)
(8.27014 -0.137182 0)
(8.21978 -0.153062 1.14274e-22)
(8.22563 -0.158607 8.83839e-24)
(8.23898 -0.156606 8.31186e-22)
(8.2132 -0.158222 7.4016e-24)
(8.19918 -0.153553 4.08248e-24)
(8.19301 -0.157424 -7.37383e-24)
(8.20251 -0.157078 -8.10944e-24)
(8.17977 -0.15124 2.86116e-23)
(8.18273 -0.156987 -1.12508e-23)
(8.1649 -0.147269 -1.2795e-23)
(8.17279 -0.154009 -1.0587e-23)
(8.15199 -0.134984 4.32856e-24)
(8.15079 -0.14521 1.56168e-23)
(8.12307 -0.115187 1.59956e-23)
(8.14338 -0.134004 -2.86221e-25)
(8.10606 -0.133884 1.03648e-22)
(8.08254 -0.140005 7.96857e-22)
(8.13392 -0.119466 2.10303e-20)
(8.26544 -0.153582 -5.19516e-24)
(8.25824 -0.162746 5.00064e-22)
(8.27882 -0.141637 0)
(8.26933 -0.14554 -4.87715e-24)
(8.23159 -0.162347 9.19225e-25)
(8.22452 -0.167062 -1.27241e-24)
(8.24016 -0.164742 1.05518e-24)
(8.20673 -0.161283 -4.17441e-24)
(8.21178 -0.166961 -2.99119e-23)
(8.29005 -0.145405 4.20103e-25)
(8.18657 -0.161037 -4.73054e-23)
(8.18971 -0.165636 -8.52996e-23)
(8.19958 -0.165146 4.12483e-22)
(8.17911 -0.164439 -5.25545e-23)
(8.1662 -0.154071 0)
(8.15881 -0.154227 0)
(8.16711 -0.160933 9.46698e-24)
(8.14871 -0.152606 8.94426e-22)
(8.14265 -0.149716 -2.28519e-22)
(8.12774 -0.111823 3.8315e-21)
(8.11685 -0.115561 1.20081e-21)
(8.13628 -0.133684 0)
(8.1354 -0.141978 -3.23084e-23)
(8.11479 -0.124896 7.64701e-20)
(8.0992 -0.0891467 -7.75415e-23)
(8.13763 -0.116982 -3.53539e-23)
(8.27695 -0.157837 5.85717e-22)
(8.24931 -0.170241 2.1181e-24)
(8.26196 -0.174094 -2.59181e-24)
(8.21611 -0.173509 -1.66435e-24)
(8.22303 -0.177668 5.28544e-23)
(8.24082 -0.175662 -5.92952e-24)
(8.21002 -0.175994 -2.76456e-25)
(8.30014 -0.151485 1.50461e-24)
(8.28968 -0.155373 2.96032e-23)
(8.30861 -0.15961 8.42223e-24)
(8.19396 -0.170674 -6.4793e-24)
(8.18693 -0.174849 -8.02525e-24)
(8.20091 -0.175044 -5.22243e-24)
(8.17701 -0.172325 -1.97578e-24)
(8.17272 -0.168565 1.73651e-23)
(8.15217 -0.158233 4.61274e-24)
(8.15486 -0.164613 -6.39341e-24)
(8.16676 -0.168373 9.74074e-23)
(8.16017 -0.167307 -6.66091e-24)
(8.14428 -0.162381 3.96499e-24)
(8.13634 -0.149096 4.62525e-23)
(8.13623 -0.156996 -3.44954e-24)
(8.12125 -0.124156 3.3715e-24)
(8.10774 -0.118524 2.64323e-21)
(8.12661 -0.1331 1.31483e-23)
(8.12707 -0.148867 2.4491e-22)
(8.06825 -0.147373 1.44275e-22)
(8.12295 -0.100963 -4.73424e-23)
(8.1047 -0.0870851 -4.94144e-23)
(8.13232 -0.116555 0)
(8.28532 -0.164271 -3.93288e-24)
(8.26379 -0.184911 -8.54945e-23)
(8.27421 -0.178723 -7.86297e-24)
(8.23233 -0.179514 -1.54479e-22)
(8.22355 -0.184539 4.54408e-22)
(8.24122 -0.183853 -4.89912e-24)
(8.20322 -0.182441 1.1007e-24)
(8.30674 -0.169874 1.35289e-23)
(8.31745 -0.167391 9.66368e-23)
(8.18006 -0.176971 2.46719e-23)
(8.18389 -0.182246 -2.8752e-24)
(8.17393 -0.179348 -1.05314e-23)
(8.16532 -0.174947 1.13042e-23)
(8.15191 -0.172486 4.3908e-23)
(8.13629 -0.163611 -3.58982e-25)
(8.13724 -0.169182 2.44449e-23)
(8.12968 -0.163377 0)
(8.11853 -0.118393 -1.01162e-23)
(8.10395 -0.120184 -1.1827e-23)
(8.11852 -0.131832 3.07054e-22)
(8.11905 -0.139662 2.01468e-23)
(8.12166 -0.158236 -3.0679e-22)
(8.11959 -0.151038 -6.03058e-24)
(8.11987 -0.139357 0)
(8.09711 -0.096928 0)
(8.08527 -0.0889461 0)
(8.11225 -0.112219 0)
(8.12773 -0.120362 0)
(8.28353 -0.174734 1.66525e-22)
(8.29618 -0.172583 3.39345e-23)
(8.25679 -0.190374 7.50072e-23)
(8.2664 -0.19469 -6.51427e-24)
(8.28415 -0.18668 7.98302e-24)
(8.21963 -0.192129 3.66867e-23)
(8.22997 -0.192629 -6.38515e-24)
(8.24895 -0.189803 -2.90224e-24)
(8.23975 -0.191641 -9.06655e-25)
(8.19554 -0.18825 -6.65628e-23)
(8.20506 -0.189709 3.84847e-24)
(8.30492 -0.180473 1.37948e-23)
(8.32545 -0.17488 1.1104e-23)
(8.18851 -0.188547 4.17873e-24)
(8.18048 -0.189579 1.27995e-22)
(8.16733 -0.180059 1.12637e-23)
(8.17063 -0.185218 6.06364e-23)
(8.16023 -0.180845 -4.20013e-22)
(8.14405 -0.177421 7.0727e-24)
(8.14975 -0.181073 -9.23219e-24)
(8.13873 -0.174827 7.54094e-22)
(8.12963 -0.175102 6.92652e-24)
(8.12391 -0.163389 7.436e-24)
(8.12245 -0.169825 1.1099e-23)
(8.1037 -0.123153 2.11667e-22)
(8.10162 -0.123174 2.81259e-24)
(8.10753 -0.129588 1.10962e-23)
(8.11577 -0.146783 6.86428e-22)
(8.10775 -0.143853 9.24201e-24)
(8.11676 -0.164289 -1.13974e-22)
(8.11022 -0.155064 1.11892e-23)
(8.05597 -0.137453 1.28655e-23)
(8.09667 -0.0824371 2.14391e-23)
(8.11639 -0.122786 2.73386e-24)
(8.25322 -0.199045 -8.7736e-24)
(8.27446 -0.200132 3.25754e-24)
(8.26678 -0.204539 -6.13893e-24)
(8.28345 -0.196148 5.94438e-25)
(8.29336 -0.19276 1.25606e-22)
(8.21198 -0.194395 -6.1464e-25)
(8.21834 -0.202447 -2.84459e-24)
(8.23674 -0.199305 7.78792e-23)
(8.19255 -0.195749 -9.30931e-24)
(8.20528 -0.198868 2.58565e-22)
(8.30296 -0.190554 1.3599e-23)
(8.31355 -0.18858 -4.67141e-23)
(8.32395 -0.185333 7.12023e-23)
(8.33364 -0.18133 2.13343e-25)
(8.17317 -0.190674 2.95743e-24)
(8.17723 -0.196582 8.9579e-24)
(8.16662 -0.191161 -1.57883e-25)
(8.15517 -0.185142 3.23857e-24)
(8.15937 -0.190144 3.95006e-24)
(8.13781 -0.183457 2.79693e-22)
(8.14791 -0.190185 -1.67407e-22)
(8.12215 -0.177175 6.84334e-24)
(8.12506 -0.183222 2.84247e-22)
(8.11557 -0.177031 3.5928e-22)
(8.10809 -0.123469 1.95993e-22)
(8.101 -0.128577 0)
(8.10057 -0.135453 0)
(8.10018 -0.143416 1.0213e-24)
(8.09957 -0.150933 2.02516e-23)
(8.10998 -0.165309 1.21742e-23)
(8.11159 -0.170955 7.20559e-24)
(8.10182 -0.156886 2.04919e-23)
(8.10529 -0.161703 -1.31094e-22)
(8.08231 -0.0977786 -5.45868e-22)
(8.10128 -0.136461 1.2492e-23)
(8.07086 -0.0830758 -1.40078e-20)
(8.09339 -0.104879 1.80899e-23)
(8.25776 -0.208326 2.0261e-22)
(8.25041 -0.208219 -6.95438e-24)
(8.28245 -0.206979 2.95778e-24)
(8.26483 -0.213718 -6.5095e-24)
(8.30052 -0.201164 1.32568e-23)
(8.21796 -0.210113 -1.25659e-25)
(8.22565 -0.207079 2.71573e-25)
(8.24256 -0.206135 -3.38405e-25)
(8.23287 -0.205555 9.06718e-25)
(8.19723 -0.202612 5.35583e-22)
(8.18992 -0.203849 -1.71736e-23)
(8.20404 -0.207618 -1.52566e-23)
(8.32117 -0.196524 8.78144e-24)
(8.34158 -0.187509 -1.79995e-24)
(8.1819 -0.203728 -1.08925e-22)
(8.17349 -0.203417 -1.57827e-23)
(8.16102 -0.195763 1.84335e-22)
(8.13074 -0.186898 4.68561e-24)
(8.13603 -0.190104 1.01198e-22)
(8.141 -0.193798 2.72217e-24)
(8.14656 -0.198417 -3.02875e-24)
(8.12239 -0.189846 -2.60484e-24)
(8.11134 -0.175586 5.51771e-24)
(8.10861 -0.182275 -3.32147e-22)
(8.10691 -0.115398 -1.3015e-23)
(8.10362 -0.120827 5.4053e-22)
(8.09915 -0.123638 -1.08361e-23)
(8.09305 -0.128906 -7.13622e-24)
(8.09189 -0.142201 0)
(8.09172 -0.157821 -7.63093e-24)
(8.10074 -0.167123 2.87494e-24)
(8.10495 -0.175266 0)
(8.08693 -0.08603 1.23773e-20)
(8.04071 -0.125862 -2.81435e-23)
(8.0928 -0.111401 0)
(8.24603 -0.215637 -3.97148e-22)
(8.28001 -0.214432 0)
(8.28921 -0.212215 0)
(8.27355 -0.217681 0)
(8.26403 -0.222111 0)
(8.29764 -0.211524 6.03489e-24)
(8.30767 -0.210124 3.74393e-23)
(8.21132 -0.212959 -5.63103e-25)
(8.21723 -0.218146 -8.242e-24)
(8.23175 -0.213628 -3.15861e-23)
(8.1854 -0.21115 -7.03228e-24)
(8.20246 -0.215534 1.13413e-24)
(8.31807 -0.207254 7.00604e-24)
(8.32869 -0.20401 -2.85852e-24)
(8.33954 -0.199886 -2.956e-24)
(8.16579 -0.203405 1.68192e-23)
(8.1699 -0.210472 -7.38885e-23)
(8.15737 -0.20237 -7.50749e-24)
(8.13449 -0.197588 2.82394e-24)
(8.15203 -0.202389 -1.24634e-25)
(8.14579 -0.205318 3.14491e-24)
(8.11597 -0.19405 0)
(8.12264 -0.198276 0)
(8.10612 -0.188148 -8.60515e-25)
(8.09975 -0.184094 -1.32789e-22)
(8.09724 -0.117155 -3.73845e-22)
(8.08626 -0.129037 -7.47081e-23)
(8.08619 -0.13511 -5.17259e-24)
(8.08477 -0.140883 0)
(8.08144 -0.148872 -4.07376e-24)
(8.08178 -0.159414 5.84005e-23)
(8.08405 -0.165964 1.16989e-23)
(8.09887 -0.17424 0)
(8.09367 -0.171582 0)
(8.09869 -0.179237 1.29472e-23)
(8.06898 -0.0819626 -1.68828e-23)
(8.08278 -0.100517 8.59125e-23)
(8.07257 -0.0851112 -2.52152e-23)
(8.08692 -0.122428 3.66917e-20)
(8.0941 -0.110777 2.08872e-24)
(8.09147 -0.108681 -1.18907e-24)
(8.23752 -0.219264 -9.96264e-25)
(8.24473 -0.222648 2.18932e-24)
(8.27947 -0.22272 -1.93539e-24)
(8.29367 -0.221262 -1.74778e-24)
(8.26468 -0.231358 0)
(8.25758 -0.228064 0)
(8.31459 -0.2179 1.51312e-23)
(8.22292 -0.223216 -1.46305e-22)
(8.21542 -0.225596 -5.02368e-24)
(8.23024 -0.221133 -4.37862e-24)
(8.1806 -0.21792 0)
(8.1894 -0.219038 1.33095e-24)
(8.19655 -0.21962 -6.41664e-24)
(8.20294 -0.223362 1.17451e-24)
(8.33563 -0.211657 2.46992e-22)
(8.17394 -0.216163 -1.76169e-25)
(8.16604 -0.215956 4.22003e-25)
(8.1558 -0.209774 2.60367e-24)
(8.12881 -0.201378 0)
(8.13479 -0.205463 0)
(8.14111 -0.209343 3.1505e-24)
(8.14714 -0.21373 -1.81733e-22)
(8.11144 -0.192373 0)
(8.11244 -0.200067 -2.0329e-24)
(8.12333 -0.206242 3.87158e-24)
(8.10367 -0.19377 -2.40045e-24)
(8.09346 -0.184385 2.86267e-22)
(8.09346 -0.113103 -2.85003e-24)
(8.08284 -0.124838 -8.82628e-24)
(8.07654 -0.130409 -5.97834e-24)
(8.07757 -0.139919 0)
(8.07913 -0.154876 -7.1996e-22)
(8.07187 -0.151838 -1.20243e-23)
(8.07286 -0.16177 -7.56115e-24)
(8.08618 -0.171301 0)
(8.0779 -0.171998 0)
(8.08499 -0.178741 3.17336e-24)
(8.07475 -0.0799354 5.17852e-24)
(8.08116 -0.11119 -7.14594e-24)
(8.02484 -0.130866 7.02882e-23)
(8.25069 -0.228655 3.62788e-24)
(8.24155 -0.231398 1.11109e-22)
(8.2855 -0.226781 9.20699e-23)
(8.2785 -0.230691 -2.03358e-24)
(8.29457 -0.22911 -1.75566e-24)
(8.27068 -0.235499 0)
(8.26417 -0.24042 -6.46805e-24)
(8.25336 -0.237554 -7.58856e-24)
(8.31266 -0.229227 8.25216e-24)
(8.32314 -0.224376 1.49259e-22)
(8.22784 -0.228754 1.32934e-24)
(8.20842 -0.228237 0)
(8.21341 -0.233364 0)
(8.17642 -0.223943 -4.097e-24)
(8.19221 -0.226545 2.69265e-23)
(8.20233 -0.23088 0)
(8.33053 -0.220221 7.24886e-24)
(8.34225 -0.217569 -1.50639e-24)
(8.1597 -0.217151 7.05429e-25)
(8.16388 -0.223073 -9.22209e-23)
(8.15399 -0.216616 2.57448e-24)
(8.13479 -0.213809 -1.16838e-24)
(8.14863 -0.221358 2.43522e-24)
(8.10792 -0.203994 9.8792e-24)
(8.11315 -0.206518 -6.12265e-25)
(8.11793 -0.210121 -4.94996e-23)
(8.12381 -0.214006 7.03706e-24)
(8.10286 -0.201184 1.02294e-22)
(8.09791 -0.196936 -2.02392e-24)
(8.08636 -0.183987 1.20557e-22)
(8.08956 -0.190101 1.0485e-23)
(8.08645 -0.117704 -1.28895e-22)
(8.08682 -0.111558 8.97621e-22)
(8.07643 -0.120328 -8.9242e-25)
(8.07128 -0.13744 0)
(8.06716 -0.133924 3.49913e-24)
(8.06785 -0.143086 -2.46791e-23)
(8.06552 -0.15016 6.82348e-23)
(8.06391 -0.15626 1.44522e-22)
(8.0637 -0.162137 -4.02644e-24)
(8.06662 -0.167199 2.44549e-22)
(8.07115 -0.172136 1.49134e-24)
(8.07228 -0.177844 3.29675e-24)
(8.0791 -0.183775 4.12905e-25)
(8.07127 -0.102236 1.8503e-21)
(8.05957 -0.0865962 -4.98923e-21)
(8.07951 -0.109814 1.07201e-23)
(8.0551 -0.110132 -1.13505e-23)
(8.04461 -0.114729 -3.41786e-23)
(8.23299 -0.233909 4.58492e-24)
(8.23775 -0.240276 4.11446e-24)
(8.27813 -0.239952 0)
(8.30265 -0.234132 8.584e-25)
(8.29382 -0.239464 0)
(8.25628 -0.244501 2.23435e-22)
(8.26234 -0.248689 -9.83872e-24)
(8.24953 -0.246165 -7.38767e-24)
(8.31186 -0.242013 -1.05487e-22)
(8.33037 -0.230495 1.03522e-23)
(8.22535 -0.236378 2.37963e-25)
(8.21775 -0.238545 -1.33357e-26)
(8.21058 -0.240961 -5.63334e-24)
(8.17011 -0.226919 1.70713e-23)
(8.17708 -0.23055 -5.68456e-23)
(8.19582 -0.232142 -1.23604e-25)
(8.1891 -0.232765 -1.3535e-25)
(8.19963 -0.23694 -9.58847e-24)
(8.35167 -0.219758 -2.35782e-24)
(8.34763 -0.228709 2.38505e-24)
(8.36361 -0.224472 -4.74666e-24)
(8.16282 -0.229566 -7.7178e-25)
(8.12907 -0.217479 -2.23765e-24)
(8.13533 -0.221346 -1.72167e-22)
(8.14104 -0.225514 1.27784e-23)
(8.1495 -0.230342 1.70456e-24)
(8.10233 -0.207575 -7.73101e-24)
(8.11252 -0.214179 -3.59199e-23)
(8.12318 -0.221272 -3.68857e-23)
(8.09315 -0.194369 0)
(8.09289 -0.201597 0)
(8.0863 -0.194207 0)
(8.08399 -0.110169 2.73032e-21)
(8.06553 -0.123361 3.88238e-24)
(8.07066 -0.117414 -5.45248e-25)
(8.06074 -0.130706 1.93003e-23)
(8.05463 -0.138025 -1.66903e-23)
(8.05812 -0.147533 -6.61229e-22)
(8.05581 -0.161729 -1.12395e-24)
(8.06105 -0.172869 -2.24075e-22)
(8.07253 -0.183955 2.42029e-23)
(8.06569 -0.183544 2.81232e-22)
(8.07603 -0.190056 -8.49858e-24)
(8.07644 -0.091807 -1.25018e-23)
(8.06661 -0.0921792 5.596e-20)
(8.04671 -0.0677468 1.5144e-21)
(8.24162 -0.24702 0)
(8.23273 -0.248398 6.50799e-24)
(8.28589 -0.244561 0)
(8.27831 -0.249495 0)
(8.29395 -0.249153 0)
(8.26991 -0.252337 -3.10331e-24)
(8.26147 -0.255591 3.77064e-22)
(8.24464 -0.25432 0)
(8.319 -0.247051 4.53507e-22)
(8.30972 -0.24937 -1.97519e-22)
(8.33986 -0.233385 -3.90102e-23)
(8.33132 -0.238667 3.00575e-24)
(8.2212 -0.244554 5.58849e-24)
(8.20331 -0.242841 9.25777e-23)
(8.2068 -0.248303 -9.71675e-24)
(8.18312 -0.234407 -1.84499e-24)
(8.17606 -0.237966 -6.50799e-24)
(8.18658 -0.240339 0)
(8.19625 -0.243978 -6.86349e-23)
(8.34982 -0.237138 2.26247e-24)
(8.36705 -0.236345 -3.04264e-22)
(8.16403 -0.239043 0)
(8.15683 -0.233578 7.23435e-25)
(8.13477 -0.22919 -3.39517e-24)
(8.15409 -0.232536 2.3845e-22)
(8.14824 -0.235017 -4.49902e-24)
(8.09663 -0.210507 -3.56988e-24)
(8.10171 -0.214062 -6.64988e-23)
(8.10665 -0.217416 -6.2745e-24)
(8.112 -0.221323 -2.43512e-24)
(8.11725 -0.225196 2.15411e-24)
(8.12312 -0.229 7.80125e-25)
(8.09198 -0.207011 0)
(8.08749 -0.203913 0)
(8.08096 -0.195118 -4.44899e-24)
(8.08372 -0.200164 0)
(8.07561 -0.111313 5.7673e-23)
(8.08179 -0.105575 2.9168e-24)
(8.05368 -0.127041 3.5208e-24)
(8.06713 -0.113008 -5.23771e-25)
(8.0508 -0.144823 -3.69705e-23)
(8.044 -0.141655 -8.68847e-23)
(8.04779 -0.15221 -1.79192e-23)
(8.04614 -0.159849 0)
(8.04603 -0.167169 0)
(8.05814 -0.181275 7.58511e-24)
(8.05312 -0.176375 2.34445e-24)
(8.05988 -0.187618 -1.01506e-22)
(8.07307 -0.195991 4.94258e-23)
(8.05866 -0.0770961 -5.49733e-23)
(8.07705 -0.0945221 -9.03304e-25)
(8.0326 -0.110806 1.52256e-22)
(8.05007 -0.0646593 -1.30946e-21)
(8.22504 -0.25064 7.54709e-23)
(8.22853 -0.256631 4.71458e-24)
(8.27681 -0.257739 1.35065e-24)
(8.3033 -0.252175 2.88021e-24)
(8.29485 -0.257442 0)
(8.256 -0.261894 -2.59516e-24)
(8.26415 -0.264573 -5.6712e-25)
(8.24792 -0.261141 0)
(8.23964 -0.261187 -3.18946e-24)
(8.32698 -0.248472 1.96275e-24)
(8.323 -0.258128 1.52999e-24)
(8.31021 -0.25778 2.57954e-24)
(8.33729 -0.251437 -1.3451e-24)
(8.21712 -0.252534 3.14475e-25)
(8.21001 -0.253861 -1.8214e-23)
(8.20275 -0.255352 -1.09524e-23)
(8.17065 -0.243291 -4.88408e-24)
(8.1757 -0.246827 3.70247e-22)
(8.18922 -0.245374 -4.01347e-24)
(8.18318 -0.246938 -4.25474e-24)
(8.19193 -0.251031 -1.2468e-23)
(8.3582 -0.243698 -2.39614e-24)
(8.34989 -0.249326 -1.5133e-24)
(8.37004 -0.247876 6.19988e-24)
(8.16414 -0.248412 -2.89521e-24)
(8.15331 -0.239463 -4.32656e-22)
(8.12878 -0.231164 3.32032e-24)
(8.13336 -0.234754 -1.14141e-22)
(8.14752 -0.240897 -7.3797e-24)
(8.14375 -0.240011 -4.97237e-23)
(8.09068 -0.21325 0)
(8.10083 -0.220781 -3.53451e-24)
(8.11109 -0.228744 -1.51742e-24)
(8.12332 -0.234571 9.60079e-24)
(8.08139 -0.205229 2.14668e-24)
(8.08162 -0.100328 1.766e-21)
(8.07827 -0.101746 -7.4576e-24)
(8.04569 -0.124392 -7.49471e-25)
(8.03974 -0.132188 -5.75352e-26)
(8.06603 -0.108106 -1.46116e-23)
(8.05738 -0.11401 -2.5988e-24)
(8.03644 -0.138837 -1.87347e-23)
(8.03333 -0.146454 -1.57056e-23)
(8.03872 -0.156607 0)
(8.04846 -0.172525 0)
(8.04061 -0.170278 7.05625e-24)
(8.04792 -0.180331 -1.23243e-24)
(8.05556 -0.190525 4.50034e-22)
(8.06285 -0.193332 5.06479e-22)
(8.06711 -0.197775 -2.53843e-24)
(8.07097 -0.202963 -1.78087e-24)
(8.07382 -0.0945395 -7.85841e-25)
(8.03798 -0.0747088 -5.20273e-21)
(8.06631 -0.0994637 8.32982e-23)
(8.02385 -0.0714243 -2.10743e-20)
(8.05272 -0.0873045 5.05873e-23)
(8.2325 -0.261299 -6.45068e-23)
(8.22461 -0.263342 -9.48995e-23)
(8.27328 -0.265175 5.76466e-23)
(8.28174 -0.264512 1.59091e-24)
(8.29017 -0.264913 1.75512e-25)
(8.29862 -0.267367 0)
(8.25108 -0.269821 1.44584e-24)
(8.2682 -0.271409 1.72343e-24)
(8.2357 -0.268617 -2.85797e-24)
(8.31548 -0.263797 -1.39806e-24)
(8.32519 -0.266419 -4.71986e-23)
(8.30895 -0.267001 0)
(8.34586 -0.258434 -1.40647e-22)
(8.21344 -0.259804 2.94506e-25)
(8.19514 -0.256702 6.50606e-23)
(8.19882 -0.26257 -7.95852e-24)
(8.17742 -0.252329 3.37638e-23)
(8.18774 -0.257804 -1.63165e-23)
(8.38134 -0.251511 -7.33933e-23)
(8.37093 -0.257564 -1.05662e-22)
(8.15628 -0.252257 -3.3284e-24)
(8.16151 -0.256805 1.28899e-22)
(8.15197 -0.244558 -3.44768e-22)
(8.13665 -0.240708 3.32914e-23)
(8.13099 -0.241115 2.44385e-24)
(8.1401 -0.248327 -8.93305e-26)
(8.08489 -0.215699 2.5849e-24)
(8.09012 -0.219711 0)
(8.09519 -0.223275 0)
(8.10026 -0.227045 -2.97789e-24)
(8.10486 -0.231011 -4.44736e-24)
(8.10995 -0.235454 -7.39822e-23)
(8.12549 -0.239537 4.13737e-24)
(8.11939 -0.238114 -2.4605e-22)
(8.07541 -0.207264 4.98078e-24)
(8.07975 -0.211916 -1.15537e-22)
(8.07055 -0.103238 -1.38401e-23)
(8.07291 -0.0978815 1.3913e-23)
(8.04808 -0.117193 -2.67244e-24)
(8.03547 -0.12129 2.78743e-24)
(8.02869 -0.13534 -6.1348e-25)
(8.06067 -0.104224 4.06423e-22)
(8.04782 -0.111553 2.2933e-22)
(8.03209 -0.153111 0)
(8.02489 -0.14967 0)
(8.03107 -0.160623 0)
(8.03892 -0.177348 5.2791e-24)
(8.03544 -0.171261 4.18728e-23)
(8.0427 -0.181215 -1.00295e-24)
(8.047 -0.185037 -2.74488e-22)
(8.05051 -0.190548 -8.28213e-24)
(8.05297 -0.19708 -2.79486e-24)
(8.06199 -0.200762 3.91251e-24)
(8.06955 -0.209545 2.43457e-23)
(8.07197 -0.0900385 -7.1527e-24)
(8.07334 -0.0929775 1.41018e-23)
(8.03008 -0.0523691 2.82284e-23)
(8.01495 -0.0910583 3.71605e-20)
(8.06409 -0.0910396 -2.02491e-21)
(8.23377 0.0722489 1.35805e-23)
(8.21896 0.0816906 -1.18454e-21)
(8.22869 0.0519554 -5.25987e-23)
(8.25436 0.123404 0)
(8.21764 -0.266565 -3.71485e-23)
(8.22292 -0.271747 1.15387e-23)
(8.28565 -0.273725 2.55361e-23)
(8.30438 -0.274034 -2.70751e-24)
(8.25449 -0.276843 2.0742e-24)
(8.24686 -0.276237 1.48665e-23)
(8.26268 -0.278363 7.42418e-25)
(8.27278 -0.280224 0)
(8.2303 -0.274785 2.44865e-24)
(8.23811 -0.2762 1.37112e-24)
(8.33546 -0.270588 -1.11318e-24)
(8.3261 -0.276047 -1.04628e-24)
(8.34362 -0.268345 -7.41702e-24)
(8.35516 -0.265859 -3.32233e-22)
(8.20995 -0.268141 5.83865e-24)
(8.20211 -0.268619 -2.61582e-24)
(8.19426 -0.269256 5.82687e-23)
(8.18059 -0.25867 1.65419e-24)
(8.17308 -0.258319 -5.08331e-23)
(8.18373 -0.264513 -2.19542e-24)
(8.3635 -0.264806 -4.13684e-24)
(8.37098 -0.266527 6.99299e-23)
(8.14988 -0.253374 -3.70747e-25)
(8.16726 -0.259258 7.13694e-23)
(8.15974 -0.262752 5.71093e-24)
(8.12757 -0.245059 2.29039e-24)
(8.14387 -0.252931 0)
(8.13696 -0.253481 -4.09709e-25)
(8.07869 -0.218054 6.53455e-24)
(8.08942 -0.225866 0)
(8.0989 -0.233748 -7.42314e-23)
(8.11456 -0.239607 -5.35008e-23)
(8.1077 -0.242093 -2.07025e-24)
(8.11755 -0.24463 4.89406e-24)
(8.06996 -0.0942545 6.95639e-22)
(8.02586 -0.118681 -1.09513e-22)
(8.02308 -0.125805 -7.83829e-24)
(8.022 -0.132422 -4.2631e-23)
(8.01987 -0.139522 -5.59022e-25)
(8.05005 -0.106049 -1.70407e-22)
(8.05426 -0.10131 1.55567e-22)
(8.04004 -0.108871 -9.65915e-23)
(8.01818 -0.14687 0)
(8.01807 -0.154156 -1.05208e-24)
(8.03118 -0.166632 5.86143e-24)
(8.02515 -0.162598 -8.63349e-25)
(8.03726 -0.182287 -3.23935e-24)
(8.02905 -0.173599 4.55598e-24)
(8.0437 -0.191546 -6.6207e-25)
(8.05624 -0.201783 4.66943e-24)
(8.05019 -0.202356 -2.0486e-23)
(8.06021 -0.206164 1.70285e-22)
(8.06395 -0.211212 4.06139e-24)
(8.06835 -0.216097 2.87157e-24)
(8.02993 -0.071184 -3.32445e-23)
(8.04048 -0.0612194 -1.81419e-20)
(8.03738 -0.0929533 -4.99693e-23)
(8.06621 -0.0865473 6.81875e-24)
(8.06668 -0.0863635 2.45118e-23)
(8.24636 0.0822534 -8.00957e-24)
(8.21476 0.0935082 1.18663e-22)
(8.20972 0.0904465 -4.14206e-25)
(8.22689 0.0875333 1.7809e-22)
(8.22901 0.0458261 -1.63262e-20)
(8.21251 0.141243 1.5112e-22)
(8.2223 -0.279155 -7.53285e-23)
(8.28158 -0.281658 -4.12023e-24)
(8.29053 -0.282171 8.16767e-23)
(8.30038 -0.281691 -6.8419e-24)
(8.31074 -0.281325 -2.08755e-22)
(8.25706 -0.285161 -1.89125e-23)
(8.24113 -0.283517 -4.89493e-24)
(8.27526 -0.289008 -4.96674e-25)
(8.34115 -0.278959 8.9e-25)
(8.31979 -0.282994 -3.64999e-24)
(8.32785 -0.286803 9.33467e-25)
(8.35899 -0.274987 -8.08947e-24)
(8.20495 -0.275441 5.08067e-24)
(8.1871 -0.270098 -2.47909e-24)
(8.18942 -0.275914 -3.42838e-24)
(8.17019 -0.265152 5.06486e-24)
(8.17977 -0.27107 -2.22666e-25)
(8.37741 -0.269622 1.86076e-24)
(8.37015 -0.276777 1.96034e-24)
(8.14496 -0.258856 3.24795e-25)
(8.16084 -0.269665 5.33299e-24)
(8.15443 -0.267547 -2.37577e-22)
(8.12176 -0.247689 -2.75994e-23)
(8.12748 -0.250644 3.08669e-22)
(8.13151 -0.255535 1.61267e-23)
(8.13401 -0.259795 8.77888e-23)
(8.07292 -0.220948 4.02038e-24)
(8.07813 -0.22544 -1.93306e-22)
(8.08398 -0.227945 3.57787e-24)
(8.089 -0.23127 -3.20113e-24)
(8.09278 -0.235572 -6.18602e-24)
(8.09738 -0.239985 -3.09721e-24)
(8.10165 -0.244655 0)
(8.10566 -0.248813 7.28342e-25)
(8.11636 -0.249728 1.74337e-23)
(8.05999 -0.0955148 -1.11468e-22)
(8.0644 -0.0896155 1.84582e-21)
(8.02908 -0.11287 -1.4727e-24)
(8.01795 -0.115848 -5.10294e-22)
(8.01377 -0.128727 1.38535e-22)
(8.01207 -0.143086 0)
(8.04994 -0.097115 -4.34784e-24)
(8.03157 -0.107058 1.90231e-23)
(8.02052 -0.15968 -5.07797e-23)
(8.01343 -0.157212 -1.17636e-23)
(8.02015 -0.166014 -6.85463e-25)
(8.03171 -0.183009 -6.36816e-24)
(8.03522 -0.187186 -6.2122e-24)
(8.02762 -0.179566 -5.13517e-24)
(8.02349 -0.17545 1.07459e-24)
(8.03731 -0.192074 -3.35419e-24)
(8.04057 -0.19765 1.92248e-25)
(8.04388 -0.203037 3.0267e-23)
(8.04701 -0.208242 6.0021e-24)
(8.05732 -0.212362 1.17555e-24)
(8.06607 -0.223109 0)
(8.05299 -0.072889 4.21056e-23)
(8.03036 -0.0653751 3.43933e-23)
(7.98942 -0.0897367 3.77213e-20)
(8.05679 -0.078477 -7.56346e-24)
(8.06379 -0.0835196 7.07518e-22)
(8.22701 0.0793629 -1.41432e-23)
(8.23664 0.0944735 -5.49625e-21)
(8.22191 0.0946601 2.4443e-24)
(8.21416 0.105613 5.77813e-24)
(8.22313 0.0926561 2.45995e-22)
(8.2039 0.099313 -1.97533e-21)
(8.22682 0.100805 1.99926e-23)
(8.2 0.0580983 4.62988e-24)
(8.24281 0.0818666 1.4738e-22)
(8.28458 0.143557 -7.94049e-20)
(8.21453 -0.284306 5.98505e-24)
(8.22285 -0.288065 3.02941e-23)
(8.29479 -0.290622 -3.34732e-24)
(8.31269 -0.292053 -1.74311e-22)
(8.2607 -0.294429 3.88505e-23)
(8.25165 -0.292626 -5.68139e-24)
(8.24456 -0.290825 -1.45265e-22)
(8.23564 -0.289683 1.3878e-22)
(8.26824 -0.294339 1.41824e-23)
(8.27604 -0.295165 1.62253e-24)
(8.33673 -0.288784 1.34264e-23)
(8.34502 -0.287881 5.47533e-25)
(8.3295 -0.2964 8.9876e-25)
(8.36228 -0.282698 0)
(8.35484 -0.285596 -4.07174e-25)
(8.20766 -0.282276 2.28008e-22)
(8.19939 -0.281361 4.0384e-24)
(8.19278 -0.280455 -2.51595e-24)
(8.18536 -0.281345 1.398e-22)
(8.17267 -0.271889 -2.20942e-25)
(8.16643 -0.271889 0)
(8.17553 -0.277781 -2.60123e-23)
(8.38431 -0.274625 -8.54361e-25)
(8.36812 -0.286501 9.02727e-25)
(8.1377 -0.262113 -1.36724e-23)
(8.14402 -0.264568 3.51852e-25)
(8.1614 -0.276544 -1.48363e-24)
(8.14883 -0.269337 5.31191e-24)
(8.1507 -0.276014 4.02155e-24)
(8.12456 -0.257753 2.78052e-24)
(8.13169 -0.26503 -1.07229e-24)
(8.07807 -0.231047 1.4211e-23)
(8.08654 -0.237624 -2.00413e-22)
(8.09474 -0.246915 0)
(8.11084 -0.251582 1.57923e-23)
(8.10449 -0.254162 5.6356e-24)
(8.11491 -0.255077 7.31142e-23)
(8.01181 -0.111523 -2.96246e-23)
(8.008 -0.117083 -2.1553e-23)
(8.00816 -0.126719 -8.62953e-24)
(8.00798 -0.133182 1.28853e-24)
(8.00679 -0.139316 1.04455e-23)
(8.0058 -0.146154 0)
(8.04676 -0.0924655 -2.31211e-22)
(8.03786 -0.0980432 -3.28631e-22)
(8.01878 -0.105409 -1.32286e-23)
(8.02847 -0.101727 4.65977e-22)
(8.00789 -0.157953 -3.79986e-22)
(8.00977 -0.163778 -9.04793e-24)
(8.01886 -0.17178 1.08015e-24)
(8.01405 -0.167893 0)
(8.02601 -0.184885 9.00873e-23)
(8.03133 -0.19277 -1.72251e-22)
(8.01683 -0.177896 -1.51995e-23)
(8.0369 -0.203485 1.44393e-24)
(8.05059 -0.213123 0)
(8.04363 -0.213901 0)
(8.05482 -0.21854 0)
(8.05879 -0.223578 0)
(8.06318 -0.228998 3.48848e-24)
(8.02067 -0.0759689 -7.28981e-23)
(8.04296 -0.0671398 7.20603e-26)
(8.00638 -0.0795385 -8.13023e-23)
(8.06036 -0.0771681 -1.39056e-22)
(8.05623 -0.0739948 -1.48454e-21)
(8.06155 -0.0793151 -3.16703e-22)
(8.05705 -0.0844324 -7.23894e-22)
(8.24144 0.0994654 1.15043e-20)
(8.20765 0.113294 1.4071e-24)
(8.21407 0.116207 8.04295e-23)
(8.20012 0.114072 4.77526e-24)
(8.1925 0.111315 6.97924e-24)
(8.23284 0.103308 -2.02054e-22)
(8.24193 0.104997 7.55287e-24)
(8.22595 0.111623 1.95381e-23)
(8.25284 0.105493 -3.44851e-22)
(8.26283 0.107267 -9.4808e-24)
(8.22446 0.0633023 -2.4637e-23)
(8.22589 0.152077 -2.74693e-22)
(8.20924 -0.290694 3.82132e-24)
(8.22932 -0.29093 -4.46112e-24)
(8.22251 -0.294697 -1.65291e-24)
(8.2986 -0.297491 1.06381e-24)
(8.28886 -0.297484 0)
(8.3054 -0.299979 4.6912e-24)
(8.31337 -0.301714 -2.0481e-23)
(8.26394 -0.30093 -8.5104e-24)
(8.24629 -0.299607 -2.36317e-24)
(8.23323 -0.297574 -2.98935e-24)
(8.28244 -0.300026 1.92321e-24)
(8.27539 -0.30418 2.29192e-22)
(8.34945 -0.296086 -1.20877e-23)
(8.32125 -0.302582 3.98786e-24)
(8.32947 -0.304265 -5.70746e-24)
(8.19577 -0.287423 2.66238e-24)
(8.17951 -0.283763 6.86149e-25)
(8.18413 -0.288907 -3.21486e-24)
(8.17201 -0.285178 1.14794e-22)
(8.3909 -0.278046 6.89128e-23)
(8.38365 -0.283511 -1.48069e-22)
(8.37698 -0.288431 2.85475e-24)
(8.36923 -0.294394 -2.44524e-22)
(8.14126 -0.273038 -1.44947e-24)
(8.15464 -0.27972 -1.44401e-24)
(8.16073 -0.282841 -1.51843e-23)
(8.14861 -0.281901 0)
(8.11799 -0.259316 -4.56748e-24)
(8.12129 -0.263453 5.96188e-24)
(8.12479 -0.267472 -9.65933e-25)
(8.12959 -0.271377 0)
(8.07955 -0.237362 4.25305e-23)
(8.07327 -0.235731 -1.49076e-24)
(8.08304 -0.242396 -4.44874e-24)
(8.08677 -0.247505 0)
(8.09091 -0.252922 -1.93004e-24)
(8.10462 -0.261409 4.21056e-24)
(8.09936 -0.259186 2.0964e-23)
(8.11179 -0.261171 4.46536e-25)
(8.0082 -0.106347 4.72452e-23)
(8.00598 -0.121807 -7.12831e-24)
(8.00076 -0.117063 3.34284e-22)
(8.00242 -0.126506 0)
(8.00231 -0.135621 2.3281e-22)
(8.00424 -0.152256 -6.88558e-24)
(7.99914 -0.147131 0)
(8.04963 -0.0864297 -5.09665e-24)
(8.03796 -0.0872966 -5.70249e-25)
(8.02571 -0.0957504 -5.63705e-24)
(7.99899 -0.158808 -9.28437e-23)