/*--------------------------------*- C++ -*----------------------------------*\
| =========                 |                                                 |
| \\      /  F ield         | OpenFOAM: The Open Source CFD Toolbox           |
|  \\    /   O peration     | Version:  v2012                                 |
|   \\  /    A nd           | Website:  www.openfoam.com                      |
|    \\/     M anipulation  |                                                 |
\*---------------------------------------------------------------------------*/
FoamFile
{
    version     2.0;
    format      ascii;
    class       volVectorField;
    location    "0.93";
    object      cellDisplacement;
}
// * * * * * * * * * * * * * * * * * * * * * * * * * * * * * * * * * * * * * //

dimensions      [0 1 0 0 0 0 0];


internalField   nonuniform List<vector> 
11961
(
(-0.00112128 0.00245497 0)
(-0.00269084 0.0059008 0)
(-0.00249769 0.00545656 0)
(-0.00167952 0.00369725 0)
(-0.00507982 0.0111257 0)
(-0.00133883 0.00292093 0)
(-0.00479244 0.0104711 0)
(-0.00420725 0.00927153 0)
(-0.00740162 0.0162219 0)
(-0.00242174 0.00527244 0)
(-0.00655394 0.0143002 0)
(-0.00773398 0.0169965 0)
(-0.00446479 0.00986798 0)
(-0.00984882 0.0215342 0)
(-0.00482015 0.0104909 0)
(-0.00107055 0.00232919 0)
(-0.00661138 0.0144019 0)
(-0.0092275 0.0201402 0)
(-0.0107556 0.0236474 0)
(-0.00821139 0.0181603 0)
(-0.00183675 0.00407277 0)
(-0.0127968 0.0279759 0)
(-0.00529013 0.0114963 0)
(-0.0018943 0.00411574 0)
(-0.00920193 0.0200154 0)
(-0.0109026 0.0237365 0)
(-0.011087 0.0244613 0)
(-0.0135182 0.0296373 0)
(-0.00817349 0.0181509 0)
(-0.00448761 0.00998283 0)
(-0.0149083 0.0324954 0)
(-0.00725928 0.0157602 0)
(-0.00376006 0.00816776 0)
(-0.000798624 0.00173447 0)
(-0.00938385 0.0203791 0)
(-0.0135567 0.0294885 0)
(-0.0145299 0.0320783 0)
(-0.0168745 0.036992 0)
(-0.0111797 0.0248664 0)
(-0.0038775 0.00866201 0)
(-0.0180217 0.0392582 0)
(-0.00732963 0.0158916 0)
(-0.0041329 0.00896641 0)
(-0.0015083 0.00327297 0)
(-0.0112198 0.0243235 0)
(-0.0151501 0.0328575 0)
(-0.0145885 0.0323514 0)
(-0.017561 0.0386415 0)
(-0.019315 0.0421974 0)
(-0.0108505 0.0242558 0)
(-0.00740111 0.0165948 0)
(-0.00133485 0.00298697 0)
(-0.0198678 0.0431434 0)
(-0.00571519 0.0123896 0)
(-0.00890405 0.0192809 0)
(-0.00304201 0.00659914 0)
(-0.00116908 0.00253654 0)
(-0.0137186 0.0297201 0)
(-0.0106368 0.0230334 0)
(-0.0183129 0.0396773 0)
(-0.0180469 0.0400778 0)
(-0.0211552 0.0465561 0)
(-0.0229813 0.0501655 0)
(-0.0136381 0.0305473 0)
(-0.007218 0.0162738 0)
(-0.0012872 0.00291005 0)
(-0.0229677 0.0498319 0)
(-0.00566713 0.0122678 0)
(-0.00879698 0.0190212 0)
(-0.00303309 0.00657203 0)
(-0.000410901 0.000891518 0)
(-0.00201228 0.00436215 0)
(-0.0142524 0.0307882 0)
(-0.0121001 0.0261493 0)
(-0.019962 0.0431299 0)
(-0.0173569 0.0387596 0)
(-0.0215635 0.0476991 0)
(-0.0242135 0.0530495 0)
(-0.0247645 0.0538547 0)
(-0.0133608 0.03009 0)
(-0.0104675 0.0236644 0)
(-0.00380491 0.0086174 0)
(-0.0248489 0.0537321 0)
(-0.00403734 0.00874076 0)
(-0.00713776 0.0154333 0)
(-0.0107761 0.0232664 0)
(-0.000620361 0.00134476 0)
(-0.00138527 0.00300181 0)
(-0.0163789 0.0353126 0)
(-0.0234592 0.0506378 0)
(-0.0191408 0.0412712 0)
(-0.0192259 0.0430806 0)
(-0.025669 0.0568159 0)
(-0.0275596 0.0603599 0)
(-0.0281796 0.0611321 0)
(-0.0164717 0.0371386 0)
(-0.010467 0.0238231 0)
(-0.00408186 0.00929774 0)
(-0.0281541 0.0608367 0)
(-0.00373038 0.00806571 0)
(-0.00683807 0.0147618 0)
(-0.0108833 0.0234529 0)
(-0.000168616 0.000365645 0)
(-0.00127289 0.00275649 0)
(-0.0160247 0.0344558 0)
(-0.024602 0.0529313 0)
(-0.0217716 0.0468223 0)
(-0.0223037 0.0499448 0)
(-0.0286294 0.0630217 0)
(-0.0257082 0.0572532 0)
(-0.0304653 0.0664456 0)
(-0.0308317 0.0669425 0)
(-0.0169009 0.0383199 0)
(-0.0074965 0.0171228 0)
(-0.0137488 0.031367 0)
(-0.00159392 0.00364952 0)
(-0.030107 0.0648699 0)
(-0.00501101 0.0108199 0)
(-0.00249428 0.0053938 0)
(-0.00847374 0.0182638 0)
(-0.0131582 0.0282985 0)
(-0.000141548 0.000306756 0)
(-0.0017005 0.0036793 0)
(-0.000547837 0.00118685 0)
(-0.0187663 0.0402462 0)
(-0.0279426 0.0599737 0)
(-0.0218264 0.0468203 0)
(-0.0229386 0.0517005 0)
(-0.0323401 0.0710439 0)
(-0.0286011 0.0638489 0)
(-0.0334311 0.072994 0)
(-0.0345918 0.0748018 0)
(-0.0201654 0.0457552 0)
(-0.00672033 0.0154699 0)
(-0.0141434 0.0324757 0)
(-0.00326935 0.00753537 0)
(-0.0302352 0.0649423 0)
(-0.0330691 0.0711616 0)
(-0.00430999 0.00929176 0)
(-0.00168232 0.00363259 0)
(-0.00785085 0.0168931 0)
(-0.0121576 0.0260933 0)
(-0.000833831 0.00180353 0)
(-0.000308076 0.00066695 0)
(-0.0186922 0.0399874 0)
(-0.0278713 0.0596434 0)
(-0.0245744 0.0525905 0)
(-0.026245 0.0591112 0)
(-0.0348424 0.0766657 0)
(-0.0324172 0.0721948 0)
(-0.0368762 0.0802118 0)
(-0.0377442 0.0816875 0)
(-0.0352718 0.0759546 0)
(-0.0205124 0.0469052 0)
(-0.00857081 0.0198312 0)
(-0.0175304 0.0403271 0)
(-0.0117926 0.0272516 0)
(-0.001715 0.00398223 0)
(-0.0331963 0.0711718 0)
(-0.00221833 0.00478447 0)
(-0.00550969 0.01186 0)
(-0.00056112 0.00121243 0)
(-0.00934045 0.0200621 0)
(-0.0134041 0.0286993 0)
(-0.0161953 0.0346279 0)
(-0.022147 0.0472471 0)
(-0.0301646 0.0643458 0)
(-0.0247535 0.0528264 0)
(-0.0270486 0.0613261 0)
(-0.0349962 0.077415 0)
(-0.0386806 0.0846856 0)
(-0.0338974 0.0760359 0)
(-0.0396454 0.0863488 0)
(-0.0416585 0.0897776 0)
(-0.0390014 0.0836623 0)
(-0.0238449 0.0545728 0)
(-0.00685268 0.015998 0)
(-0.016695 0.0387267 0)
(-0.0132389 0.0307906 0)
(-0.00353887 0.00827381 0)
(-0.0356911 0.076297 0)
(-0.00108167 0.00232928 0)
(-0.00454271 0.00976264 0)
(-0.00814662 0.0174747 0)
(-0.011166 0.0238839 0)
(-0.0164531 0.035079 0)
(-0.0219203 0.046647 0)
(-0.0279759 0.0595786 0)
(-0.0334086 0.0711501 0)
(-0.0306717 0.0694743 0)
(-0.0401564 0.0885757 0)
(-0.0419075 0.0918247 0)
(-0.0382616 0.0856367 0)
(-0.0439306 0.0952628 0)
(-0.0422038 0.0905573 0)
(-0.0451503 0.0973724 0)
(-0.0392695 0.083936 0)
(-0.0241893 0.0558969 0)
(-0.00863627 0.0202709 0)
(-0.0180159 0.0420145 0)
(-0.0118183 0.0276661 0)
(-0.00180685 0.00425851 0)
(-0.0359375 0.0765919 0)
(-0.00226806 0.00487588 0)
(-0.00578573 0.0124148 0)
(-0.00887686 0.0190077 0)
(-0.0114489 0.0244361 0)
(-0.0138937 0.029611 0)
(-0.0189393 0.0403036 0)
(-0.0242646 0.0514992 0)
(-0.0292634 0.0621397 0)
(-0.0344479 0.0731267 0)
(-0.0311273 0.0711026 0)
(-0.0419744 0.0929912 0)
(-0.0457726 0.0996236 0)
(-0.038968 0.0879286 0)
(-0.0459589 0.0981803 0)
(-0.0492553 0.105674 0)
(-0.0426225 0.0907683 0)
(-0.0211896 0.0493944 0)
(-0.0276428 0.063872 0)
(-0.00798447 0.0188826 0)
(-0.0157144 0.037019 0)
(-0.0130459 0.0307581 0)
(-0.00298497 0.00708733 0)
(-0.0396289 0.0841602 0)
(-0.00117148 0.00251347 0)
(-0.00484379 0.0103758 0)
(-0.0066339 0.0141919 0)
(-0.00894716 0.0190823 0)
(-0.0137405 0.0292163 0)
(-0.0185239 0.0393247 0)
(-0.0231355 0.0490051 0)
(-0.0274613 0.0582333 0)
(-0.0325398 0.0689961 0)
(-0.0374031 0.0792043 0)
(-0.0349943 0.0798258 0)
(-0.0473496 0.104487 0)
(-0.0499088 0.108368 0)
(-0.0433015 0.0975083 0)
(-0.0493706 0.105424 0)
(-0.0459957 0.0979041 0)
(-0.0530427 0.113702 0)
(-0.0425821 0.0904128 0)
(-0.0205485 0.0484443 0)
(-0.0280907 0.0654729 0)
(-0.0056437 0.0134082 0)
(-0.0107085 0.0254066 0)
(-0.0170715 0.0404707 0)
(-0.00123891 0.00296537 0)
(-0.0397624 0.0842027 0)
(-0.00257954 0.00552486 0)
(-0.00657764 0.0140461 0)
(-0.00906332 0.0192921 0)
(-0.0114064 0.0242466 0)
(-0.0159203 0.0337935 0)
(-0.0205015 0.0434369 0)
(-0.0247328 0.0522661 0)
(-0.0287578 0.0608073 0)
(-0.0341614 0.0722269 0)
(-0.0371983 0.0785824 0)
(-0.0349678 0.080538 0)
(-0.048068 0.106954 0)
(-0.0512998 0.112038 0)
(-0.0536823 0.115604 0)
(-0.0427681 0.0973471 0)
(-0.0527277 0.11205 0)
(-0.0493247 0.104532 0)
(-0.0565783 0.120527 0)
(-0.0454467 0.0961607 0)
(-0.0224048 0.0531272 0)
(-0.025688 0.0606187 0)
(-0.0315569 0.0734179 0)
(-0.00572707 0.0137196 0)
(-0.0106451 0.0254548 0)
(-0.0156973 0.0375591 0)
(-0.00301496 0.00724996 0)
(-0.0424754 0.0896966 0)
(-0.00147717 0.0031548 0)
(-0.00362758 0.00773692 0)
(-0.00689956 0.0146692 0)
(-0.0109065 0.023132 0)
(-0.015453 0.0327255 0)
(-0.0197197 0.0416953 0)
(-0.0271135 0.0572658 0)
(-0.0235493 0.0496614 0)
(-0.0312295 0.0659238 0)
(-0.0335221 0.0707534 0)
(-0.0391611 0.0824976 0)
(-0.0384167 0.0884595 0)
(-0.0527205 0.117069 0)
(-0.0571423 0.124095 0)
(-0.0580459 0.124623 0)
(-0.0462242 0.105208 0)
(-0.0525453 0.111266 0)
(-0.0560204 0.118935 0)
(-0.0487099 0.102963 0)
(-0.0605143 0.128634 0)
(-0.0450091 0.0950391 0)
(-0.0202208 0.0486139 0)
(-0.0272869 0.0648533 0)
(-0.0309467 0.0728409 0)
(-0.00772946 0.0185709 0)
(-0.0127254 0.0305629 0)
(-0.0171451 0.041328 0)
(-0.00274634 0.00664396 0)
(-0.0431321 0.0908561 0)
(-0.00376933 0.00802326 0)
(-0.00804964 0.0170778 0)
(-0.012769 0.0270366 0)
(-0.0173257 0.0366293 0)
(-0.0212026 0.0447321 0)
(-0.0284935 0.060031 0)
(-0.0250127 0.0526361 0)
(-0.0309234 0.0651275 0)
(-0.0356953 0.0751231 0)
(-0.0382374 0.0804137 0)
(-0.0418793 0.088123 0)
(-0.0373239 0.0870048 0)
(-0.0573575 0.126087 0)
(-0.0512531 0.115271 0)
(-0.0592326 0.129031 0)
(-0.0598024 0.128767 0)
(-0.061239 0.130603 0)
(-0.0444621 0.102611 0)
(-0.0554599 0.116954 0)
(-0.0587762 0.124207 0)
(-0.0507377 0.106881 0)
(-0.0631234 0.133467 0)
(-0.0473066 0.0995744 0)
(-0.0208289 0.0505606 0)
(-0.0262499 0.0632409 0)
(-0.0332836 0.0785106 0)
(-0.00750312 0.0181582 0)
(-0.011751 0.0284528 0)
(-0.0153903 0.0374658 0)
(-0.000955142 0.00231633 0)
(-0.00498253 0.0121004 0)
(-0.0461976 0.097114 0)
(-0.00163128 0.00346639 0)
(-0.00687483 0.0145527 0)
(-0.0121276 0.0256201 0)
(-0.0169865 0.0358223 0)
(-0.0194754 0.0410092 0)
(-0.0275704 0.0580057 0)
(-0.024726 0.0519155 0)
(-0.0326426 0.0685986 0)
(-0.0350537 0.0736462 0)
(-0.0399289 0.0837376 0)
(-0.0436867 0.0916214 0)
(-0.0399543 0.093338 0)
(-0.0613442 0.13468 0)
(-0.054229 0.122112 0)
(-0.0648228 0.140183 0)
(-0.0644047 0.137817 0)
(-0.0649305 0.138172 0)
(-0.0473155 0.109423 0)
(-0.0583397 0.122947 0)
(-0.0556315 0.116945 0)
(-0.0618951 0.130596 0)
(-0.0535801 0.11263 0)
(-0.0496657 0.104441 0)
(-0.0665623 0.140309 0)
(-0.023353 0.0567714 0)
(-0.0185579 0.0456056 0)
(-0.0284924 0.0689463 0)
(-0.0319546 0.0763959 0)
(-0.00932204 0.0226421 0)
(-0.013011 0.0316983 0)
(-0.0162222 0.0398599 0)
(-0.000869843 0.00212644 0)
(-0.00489493 0.0119491 0)
(-0.047191 0.0989644 0)
(-0.00356546 0.00755272 0)
(-0.00907712 0.0191717 0)
(-0.0144854 0.0305397 0)
(-0.020076 0.0421587 0)
(-0.0286172 0.060064 0)
(-0.0227889 0.0477913 0)
(-0.026939 0.0564756 0)
(-0.0322868 0.0677234 0)
(-0.0367292 0.0769715 0)
(-0.0390082 0.0816863 0)
(-0.042619 0.0892629 0)
(-0.0459658 0.0962935 0)
(-0.037849 0.0898343 0)
(-0.0620322 0.13693 0)
(-0.0656669 0.14268 0)
(-0.0520066 0.118764 0)
(-0.059026 0.131695 0)
(-0.0678728 0.145676 0)
(-0.0673446 0.143971 0)
(-0.068169 0.144307 0)
(-0.0446499 0.105139 0)
(-0.0609711 0.127986 0)
(-0.058496 0.122537 0)
(-0.0638253 0.134152 0)
(-0.0539257 0.11302 0)
(-0.0515534 0.108109 0)
(-0.0686617 0.144782 0)
(-0.0679007 0.142515 0)
(-0.022027 0.0543733 0)
(-0.0192193 0.0476661 0)
(-0.0279552 0.0685971 0)
(-0.0340002 0.0815799 0)
(-0.00907647 0.0221816 0)
(-0.0111724 0.0273758 0)
(-0.0142664 0.0352828 0)
(-0.0023775 0.00581794 0)
(-0.00699086 0.017113 0)
(-0.0491097 0.102814 0)
(-0.0019176 0.0040519 0)
(-0.00868509 0.0183019 0)
(-0.0138091 0.0290494 0)
(-0.0179441 0.037618 0)
(-0.0304978 0.0639425 0)
(-0.0235842 0.0492887 0)
(-0.0274372 0.0573855 0)
(-0.0340804 0.0713277 0)
(-0.0360686 0.0754569 0)
(-0.0405401 0.0846481 0)
(-0.0438136 0.0915103 0)
(-0.047901 0.100063 0)
(-0.0397139 0.0948013 0)
(-0.0676726 0.14807 0)
(-0.0695943 0.150799 0)
(-0.05557 0.126819 0)
(-0.0605413 0.135945 0)
(-0.0728742 0.155491 0)
(-0.0714721 0.151665 0)
(-0.0716284 0.151413 0)
(-0.0471452 0.111477 0)
(-0.0608635 0.127443 0)
(-0.0633242 0.132826 0)
(-0.0589891 0.12323 0)
(-0.0664448 0.139375 0)
(-0.055655 0.116323 0)
(-0.0519736 0.108728 0)
(-0.0720882 0.151273 0)
(-0.0706959 0.147885 0)
(-0.0226022 0.0563975 0)
(-0.0182637 0.045848 0)
(-0.0251124 0.0626209 0)
(-0.0313244 0.0765588 0)
(-0.0117223 0.0288867 0)
(-0.0143262 0.0357444 0)
(-0.00253589 0.00621738 0)
(-0.00653484 0.016049 0)
(-0.049402 0.103207 0)
(-0.0509425 0.106535 0)
(-0.00361602 0.00761426 0)
(-0.0110988 0.0233458 0)
(-0.0065484 0.0137802 0)
(-0.0153484 0.0322074 0)
(-0.0188212 0.0393259 0)
(-0.0312049 0.0652397 0)
(-0.0217413 0.0453596 0)
(-0.0260405 0.054365 0)
(-0.0298045 0.062249 0)
(-0.0333296 0.0696169 0)
(-0.0374242 0.0781059 0)
(-0.0426309 0.0889275 0)
(-0.0395678 0.0825077 0)
(-0.0461278 0.0961549 0)
(-0.0479236 0.0999019 0)
(-0.0364801 0.0888143 0)
(-0.0699881 0.153395 0)
(-0.0735162 0.158061 0)
(-0.0538899 0.124831 0)
(-0.0659162 0.146702 0)
(-0.0749095 0.159954 0)
(-0.0746589 0.15822 0)
(-0.0747683 0.157171 0)
(-0.0438392 0.105888 0)
(-0.0629745 0.13143 0)
(-0.0656225 0.13719 0)
(-0.0577464 0.120533 0)
(-0.0614299 0.127947 0)
(-0.0674661 0.141042 0)
(-0.0545851 0.113922 0)
(-0.0725943 0.151834 0)
(-0.0745624 0.156304 0)
(-0.0713723 0.148805 0)
(-0.0198425 0.0502783 0)
(-0.0161355 0.0406042 0)
(-0.0245106 0.0622668 0)
(-0.0320888 0.0790647 0)
(-0.0101317 0.0250155 0)
(-0.0124708 0.0311112 0)
(-0.0044417 0.0109047 0)
(-0.000927451 0.00227438 0)
(-0.00790908 0.0194838 0)
(-0.0511591 0.106726 0)
(-0.0016927 0.00355571 0)
(-0.0107004 0.022446 0)
(-0.00805958 0.0169075 0)
(-0.0130958 0.0274266 0)
(-0.0167852 0.0350091 0)
(-0.0224229 0.0466216 0)
(-0.0275354 0.0573269 0)
(-0.0300216 0.0625234 0)
(-0.03478 0.072463 0)
(-0.0368792 0.076824 0)
(-0.0441669 0.0918722 0)
(-0.0403756 0.0839537 0)
(-0.046219 0.0961059 0)
(-0.0503162 0.104541 0)
(-0.0361531 0.0892211 0)
(-0.0753851 0.163676 0)
(-0.0773808 0.165937 0)
(-0.0577581 0.133542 0)
(-0.0682589 0.152331 0)
(-0.0794955 0.168634 0)
(-0.0783236 0.165034 0)
(-0.0777232 0.162992 0)
(-0.0449686 0.10958 0)
(-0.0387557 0.0954144 0)
(-0.0650051 0.1355 0)
(-0.0629404 0.131067 0)
(-0.0661395 0.137944 0)
(-0.0593883 0.123488 0)
(-0.0615019 0.12775 0)
(-0.0696231 0.145164 0)
(-0.0558766 0.11625 0)
(-0.0754233 0.157093 0)
(-0.0769938 0.160736 0)
(-0.073642 0.153058 0)
(-0.019427 0.0500541 0)
(-0.0150192 0.0382067 0)
(-0.0265713 0.0676844 0)
(-0.0215079 0.0557146 0)
(-0.0296914 0.0745932 0)
(-0.0106938 0.0265268 0)
(-0.0123354 0.030901 0)
(-0.00389314 0.00954818 0)
(-0.00197517 0.00484096 0)
(-0.00694706 0.0170879 0)
(-0.0525714 0.109396 0)
(-0.00342057 0.00715802 0)
(-0.00682957 0.0142865 0)
(-0.0136547 0.0285197 0)
(-0.0175825 0.0365456 0)
(-0.0249975 0.0518584 0)
(-0.0202736 0.0420791 0)
(-0.027275 0.056622 0)
(-0.0320709 0.06664 0)
(-0.034387 0.0714719 0)
(-0.0386021 0.080226 0)
(-0.0439388 0.0912158 0)
(-0.0421342 0.0874583 0)
(-0.048076 0.0996831 0)
(-0.0501979 0.104031 0)
(-0.0522998 0.1086 0)
(-0.0315611 0.0796715 0)
(-0.0782496 0.168328 0)
(-0.0786944 0.170886 0)
(-0.0809144 0.172045 0)
(-0.0648092 0.146886 0)
(-0.0550398 0.129714 0)
(-0.0761794 0.167221 0)
(-0.0816876 0.172306 0)
(-0.0791391 0.166074 0)
(-0.0811728 0.170796 0)
(-0.0799436 0.166843 0)
(-0.0393129 0.0987971 0)
(-0.0490537 0.11847 0)
(-0.0363923 0.091755 0)
(-0.0664836 0.138096 0)
(-0.0652689 0.135494 0)
(-0.0687241 0.142841 0)
(-0.0585799 0.121611 0)
(-0.0635951 0.131661 0)
(-0.0703246 0.146145 0)
(-0.0549421 0.114158 0)
(-0.0772286 0.160788 0)
(-0.0757138 0.157257 0)
(-0.0793922 0.165454 0)
(-0.0739324 0.153268 0)
(-0.017049 0.0444696 0)
(-0.013347 0.0337286 0)
(-0.0153583 0.0396521 0)
(-0.024416 0.0639136 0)
(-0.0212812 0.0562942 0)
(-0.00926193 0.0228775 0)
(-0.0110547 0.0275122 0)
(-0.00503788 0.0123539 0)
(-0.00105659 0.0025768 0)
(-0.00767771 0.0188904 0)
(-0.0017485 0.00364814 0)
(-0.00852332 0.0177707 0)
(-0.0116667 0.0243143 0)
(-0.0156534 0.032487 0)
(-0.0244582 0.0505721 0)
(-0.0214303 0.0443324 0)
(-0.0296593 0.0614138 0)
(-0.0319351 0.0661818 0)
(-0.0365658 0.075779 0)
(-0.0386701 0.0801582 0)
(-0.0457956 0.0947861 0)
(-0.0426976 0.0883395 0)
(-0.0478151 0.0989008 0)
(-0.0521307 0.1077 0)
(-0.0547422 0.113246 0)
(-0.0296928 0.0766234 0)
(-0.0833902 0.178168 0)
(-0.0844199 0.181051 0)
(-0.0843903 0.178716 0)
(-0.0688024 0.15566 0)
(-0.0596453 0.13976 0)
(-0.0792247 0.173884 0)
(-0.0853185 0.179147 0)
(-0.0824458 0.172166 0)
(-0.08483 0.177362 0)
(-0.0825231 0.171849 0)
(-0.0372327 0.0960036 0)
(-0.0471179 0.116354 0)
(-0.0317827 0.0822386 0)
(-0.0686566 0.142368 0)
(-0.0658044 0.136196 0)
(-0.059795 0.12371 0)
(-0.0639031 0.131909 0)
(-0.0723976 0.150049 0)
(-0.0564332 0.116781 0)
(-0.0794996 0.164981 0)
(-0.0778874 0.161158 0)
(-0.0808485 0.167875 0)
(-0.0757783 0.156645 0)
(-0.0160653 0.0429983 0)
(-0.0123234 0.03107 0)
(-0.0137929 0.0356448 0)
(-0.0254858 0.0674158 0)
(-0.0191612 0.0519067 0)
(-0.00968576 0.0239104 0)
(-0.0112083 0.0278804 0)
(-0.00481523 0.0117556 0)
(-0.00183798 0.00445954 0)
(-0.00641532 0.0156652 0)
(-0.00356221 0.00740419 0)
(-0.00689147 0.0143245 0)
(-0.0128599 0.0267199 0)
(-0.0156399 0.0323576 0)
(-0.0261877 0.0539917 0)
(-0.020098 0.0414525 0)
(-0.0304344 0.0628266 0)
(-0.0341911 0.070651 0)
(-0.0364564 0.0753331 0)
(-0.0409935 0.084754 0)
(-0.0449603 0.0928693 0)
(-0.0498265 0.102706 0)
(-0.0545975 0.112693 0)
(-0.0520141 0.107167 0)
(-0.0857745 0.18203 0)
(-0.0891846 0.190157 0)
(-0.0871156 0.183369 0)
(-0.0751748 0.167452 0)
(-0.0659615 0.151547 0)
(-0.0575368 0.137175 0)
(-0.0847154 0.184188 0)
(-0.0869195 0.181582 0)
(-0.087272 0.18313 0)
(-0.085004 0.177214 0)
(-0.0845569 0.175417 0)
(-0.0407223 0.104261 0)
(-0.0315274 0.0843762 0)
(-0.0513785 0.125756 0)
(-0.0293066 0.0782257 0)
(-0.0704292 0.145542 0)
(-0.0682155 0.140699 0)
(-0.0621114 0.128199 0)
(-0.0585381 0.120904 0)
(-0.0663447 0.136484 0)
(-0.073762 0.152314 0)
(-0.0807197 0.166979 0)
(-0.0801265 0.165507 0)
(-0.0775865 0.160215 0)
(-0.0831076 0.172017 0)
(-0.0758528 0.156395 0)
(-0.0168716 0.0460032 0)
(-0.0139708 0.0374199 0)
(-0.0125269 0.0318088 0)
(-0.0133092 0.0348656 0)
(-0.0233446 0.0637556 0)
(-0.0185481 0.0519223 0)
(-0.00880147 0.0214809 0)
(-0.0104123 0.0255295 0)
(-0.00354689 0.00861044 0)
(-0.000795545 0.00191369 0)
(-0.00639177 0.0154895 0)
(-0.00183766 0.00380603 0)
(-0.00867632 0.0179758 0)
(-0.0114499 0.0237291 0)
(-0.0173829 0.0358652 0)
(-0.0131169 0.027118 0)
(-0.0251148 0.0516294 0)
(-0.0291224 0.060003 0)
(-0.0220654 0.0453602 0)
(-0.0334436 0.0689397 0)
(-0.0388014 0.0799466 0)
(-0.0412329 0.0849913 0)
(-0.0464075 0.0955566 0)
(-0.0492462 0.10127 0)
(-0.0563011 0.115747 0)
(-0.0544529 0.111832 0)
(-0.0897708 0.189316 0)
(-0.0909149 0.194297 0)
(-0.0929643 0.196318 0)
(-0.090237 0.189454 0)
(-0.0794561 0.176531 0)
(-0.070027 0.160276 0)
(-0.0621524 0.147164 0)
(-0.0851102 0.186388 0)
(-0.0888594 0.191404 0)
(-0.0898302 0.186962 0)
(-0.0904565 0.188688 0)
(-0.087697 0.181892 0)
(-0.0870204 0.180181 0)
(-0.0847382 0.17531 0)
(-0.0386788 0.10197 0)
(-0.0277568 0.0778985 0)
(-0.0495562 0.1238 0)
(-0.0250317 0.0689044 0)
(-0.0731038 0.150746 0)
(-0.0702899 0.144895 0)
(-0.0684189 0.140697 0)
(-0.0624816 0.128551 0)
(-0.0601551 0.123832 0)
(-0.0666558 0.136702 0)
(-0.0832093 0.171758 0)
(-0.0821013 0.168828 0)
(-0.0791948 0.162926 0)
(-0.0779033 0.160131 0)
(-0.0150774 0.0425156 0)
(-0.0127468 0.0349531 0)
(-0.0116806 0.0293062 0)
(-0.0119308 0.0305279 0)
(-0.0199747 0.0562226 0)
(-0.0156662 0.0452404 0)
(-0.00746364 0.0180524 0)
(-0.0093198 0.0226249 0)
(-0.010238 0.0247443 0)
(-0.00380416 0.00915035 0)
(-0.00153215 0.00364604 0)
(-0.00508778 0.0122215 0)
(-0.00397198 0.00819533 0)
(-0.00746214 0.0154035 0)
(-0.0155929 0.032085 0)
(-0.0128493 0.0264879 0)
(-0.0268001 0.0549402 0)
(-0.0307901 0.0631928 0)
(-0.0214307 0.0439032 0)
(-0.034891 0.0716907 0)
(-0.0390984 0.0803252 0)
(-0.0433971 0.0892107 0)
(-0.0456564 0.0938214 0)
(-0.0508314 0.104157 0)
(-0.0585823 0.120193 0)
(-0.054872 0.11236 0)
(-0.0925779 0.194842 0)
(-0.0971765 0.205607 0)
(-0.0973188 0.204416 0)
(-0.0929978 0.194203 0)
(-0.0769904 0.173164 0)
(-0.0680572 0.157908 0)
(-0.0602477 0.14514 0)
(-0.0900708 0.195773 0)
(-0.0927877 0.19951 0)
(-0.0913287 0.189434 0)
(-0.0929529 0.193498 0)
(-0.090458 0.187082 0)
(-0.0887018 0.182924 0)
(-0.0873031 0.179939 0)
(-0.0331273 0.0913851 0)
(-0.0436715 0.112985 0)
(-0.0283878 0.0808366 0)
(-0.023505 0.0682466 0)
(-0.0540528 0.133643 0)
(-0.0226956 0.0649518 0)
(-0.074757 0.153449 0)
(-0.0729225 0.149688 0)
(-0.0706539 0.14479 0)
(-0.0645884 0.132502 0)
(-0.0602318 0.123679 0)
(-0.0690105 0.141039 0)
(-0.0850958 0.174971 0)
(-0.0845339 0.173441 0)
(-0.0813704 0.167044 0)
(-0.0788817 0.161574 0)
(-0.0130371 0.0371067 0)
(-0.0114429 0.0306851 0)
(-0.0107863 0.0262031 0)
(-0.0113563 0.0290276 0)
(-0.0179917 0.0531438 0)
(-0.0138534 0.0421129 0)
(-0.0070127 0.0166506 0)
(-0.00878502 0.0209055 0)
(-0.00936639 0.0220715 0)
(-0.00289011 0.00687969 0)
(-0.000738031 0.00173148 0)
(-0.00490773 0.0116126 0)
(-0.00216555 0.00444999 0)
(-0.00997959 0.0205419 0)
(-0.0158947 0.0325979 0)
(-0.0262002 0.0535562 0)
(-0.0294975 0.0604266 0)
(-0.0335516 0.06878 0)
(-0.0186731 0.0382136 0)
(-0.0238856 0.048793 0)
(-0.0374569 0.0768582 0)
(-0.0417374 0.0854978 0)
(-0.043469 0.0890838 0)
(-0.0473757 0.0970006 0)
(-0.0531682 0.108776 0)
(-0.0496848 0.101594 0)
(-0.0601318 0.122875 0)
(-0.0572939 0.116913 0)
(-0.0960395 0.200666 0)
(-0.0998069 0.211142 0)
(-0.0993009 0.208693 0)
(-0.0997855 0.208273 0)
(-0.0958165 0.199621 0)
(-0.0798675 0.179773 0)
(-0.073356 0.168757 0)
(-0.065368 0.156167 0)
(-0.0928817 0.20188 0)
(-0.0974223 0.207792 0)
(-0.0943435 0.194983 0)
(-0.0915214 0.189395 0)
(-0.0954235 0.197725 0)
(-0.0924095 0.190182 0)
(-0.0912745 0.187673 0)
(-0.0883359 0.181476 0)
(-0.0307227 0.0885719 0)
(-0.0437478 0.114948 0)
(-0.0237193 0.0721783 0)
(-0.0197767 0.0609068 0)
(-0.0509833 0.129333 0)
(-0.019369 0.057467 0)
(-0.0773275 0.158247 0)
(-0.0729774 0.149404 0)
(-0.0708712 0.144814 0)
(-0.0647642 0.132455 0)
(-0.0627303 0.128356 0)
(-0.0692158 0.141012 0)
(-0.087436 0.179408 0)
(-0.0865398 0.176782 0)
(-0.0832019 0.170006 0)
(-0.0819037 0.167163 0)
(-0.0115612 0.0342779 0)
(-0.0102717 0.0278754 0)
(-0.0103216 0.0240203 0)
(-0.010703 0.0262051 0)
(-0.0146322 0.0455215 0)
(-0.0116865 0.0363872 0)
(-0.00777405 0.0182751 0)
(-0.00578776 0.0135917 0)
(-0.00898335 0.0203757 0)
(-0.00359808 0.00846189 0)
(-0.00158408 0.00365479 0)
(-0.00418211 0.00855974 0)
(-0.010014 0.0205441 0)
(-0.0131921 0.0270126 0)
(-0.0283027 0.0577116 0)
(-0.0303724 0.0620049 0)
(-0.0350716 0.0716606 0)
(-0.0186265 0.0379595 0)
(-0.0237283 0.0482975 0)
(-0.0389052 0.0795311 0)
(-0.0415462 0.0848445 0)
(-0.0459881 0.0939992 0)
(-0.0542979 0.110717 0)
(-0.0513129 0.104501 0)
(-0.0626701 0.127874 0)
(-0.0596028 0.1215 0)
(-0.0566538 0.115347 0)
(-0.0990374 0.206302 0)
(-0.104792 0.220021 0)
(-0.10335 0.215818 0)
(-0.102987 0.214091 0)
(-0.0983718 0.203864 0)
(-0.0858999 0.19135 0)
(-0.0727579 0.169264 0)
(-0.0626887 0.15299 0)
(-0.0991544 0.212787 0)
(-0.0916713 0.201013 0)
(-0.100691 0.214512 0)
(-0.0943941 0.194637 0)
(-0.0959074 0.198092 0)
(-0.0979872 0.202643 0)
(-0.0950031 0.194951 0)
(-0.0926496 0.1897 0)
(-0.0910534 0.186418 0)
(-0.0332711 0.0952545 0)
(-0.0248 0.0762568 0)
(-0.039677 0.108125 0)
(-0.0185302 0.0611041 0)
(-0.0173343 0.0570667 0)
(-0.0176153 0.0548772 0)
(-0.054225 0.137067 0)
(-0.0786759 0.160307 0)
(-0.0749535 0.152785 0)
(-0.0734241 0.149502 0)
(-0.0670674 0.136699 0)
(-0.0716658 0.145461 0)
(-0.0896716 0.183148 0)
(-0.0893106 0.182022 0)
(-0.0858979 0.175073 0)
(-0.0829909 0.168736 0)
(-0.0100819 0.030164 0)
(-0.00984477 0.0252826 0)
(-0.00959112 0.0275537 0)
(-0.0104737 0.024274 0)
(-0.00963051 0.0214167 0)
(-0.0101652 0.0247832 0)
(-0.0126477 0.0424579 0)
(-0.00942885 0.0316965 0)
(-0.00744696 0.0170764 0)
(-0.00546664 0.0125332 0)
(-0.00807686 0.01811 0)
(-0.00309641 0.00714612 0)
(-0.000838443 0.00189714 0)
(-0.00204891 0.00417663 0)
(-0.00772512 0.0158104 0)
(-0.0130857 0.0266888 0)
(-0.0284513 0.0578335 0)
(-0.0325345 0.0662738 0)
(-0.0378566 0.0772549 0)
(-0.0345562 0.0704299 0)
(-0.0213 0.0433032 0)
(-0.0157457 0.0320402 0)
(-0.0263366 0.0534732 0)
(-0.0432854 0.0881186 0)
(-0.0471505 0.096035 0)
(-0.0535991 0.10904 0)
(-0.0501221 0.101867 0)
(-0.0647305 0.131608 0)
(-0.0618794 0.125587 0)
(-0.0575362 0.116759 0)
(-0.101651 0.210519 0)
(-0.106994 0.224694 0)
(-0.107192 0.223614 0)
(-0.106234 0.221301 0)
(-0.104285 0.216899 0)
(-0.10509 0.217388 0)
(-0.101171 0.209093 0)
(-0.0855878 0.192555 0)
(-0.0789344 0.181453 0)
(-0.0672083 0.163093 0)
(-0.103281 0.220842 0)
(-0.0980418 0.213248 0)
(-0.105335 0.222551 0)
(-0.0959096 0.197083 0)
(-0.0989066 0.203404 0)
(-0.100139 0.206119 0)
(-0.0971749 0.198562 0)
(-0.0952296 0.194295 0)
(-0.0918982 0.187461 0)
(-0.0299989 0.0906782 0)
(-0.0204 0.0682143 0)
(-0.0419341 0.114727 0)
(-0.0156728 0.0566944 0)
(-0.0131107 0.0468656 0)
(-0.0144401 0.0480227 0)
(-0.0494851 0.129797 0)
(-0.0813377 0.16527 0)
(-0.0774067 0.157446 0)
(-0.0739776 0.150106 0)
(-0.0671012 0.136335 0)
(-0.0717887 0.145228 0)
(-0.0913558 0.185355 0)
(-0.0878953 0.178373 0)
(-0.0858285 0.173796 0)
(-0.0086595 0.0281048 0)
(-0.00900867 0.0226555 0)
(-0.00818833 0.0235936 0)
(-0.0104542 0.0227164 0)
(-0.00963053 0.0202843 0)
(-0.00997617 0.0229264 0)
(-0.00933762 0.0348779 0)
(-0.00814291 0.030293 0)
(-0.0063565 0.0143932 0)
(-0.00408602 0.00927808 0)
(-0.00753844 0.0164526 0)
(-0.00141672 0.0031218 0)
(-0.00440925 0.0089601 0)
(-0.00979609 0.0199733 0)
(-0.0306401 0.0621542 0)
(-0.0325399 0.0660771 0)
(-0.0388142 0.0789208 0)
(-0.0368025 0.0747767 0)
(-0.0213834 0.0432973 0)
(-0.0158463 0.0321114 0)
(-0.0265579 0.053726 0)
(-0.0459167 0.0933709 0)
(-0.042986 0.0872477 0)
(-0.0554624 0.112477 0)
(-0.0515076 0.104228 0)
(-0.064469 0.130707 0)
(-0.0616101 0.124711 0)
(-0.0595334 0.120531 0)
(-0.104574 0.215919 0)
(-0.111591 0.232827 0)
(-0.11152 0.231366 0)
(-0.109274 0.22608 0)
(-0.107752 0.222916 0)
(-0.108189 0.223111 0)
(-0.103514 0.212843 0)
(-0.0908319 0.20287 0)
(-0.0802759 0.185669 0)
(-0.0759789 0.179301 0)
(-0.0625073 0.156337 0)
(-0.108442 0.229545 0)
(-0.102918 0.221227 0)
(-0.0991382 0.21644 0)
(-0.108922 0.229528 0)
(-0.0990009 0.202648 0)
(-0.100503 0.205788 0)
(-0.1028 0.210995 0)
(-0.0998864 0.203713 0)
(-0.0972233 0.198209 0)
(-0.0964163 0.195905 0)
(-0.09463 0.192274 0)
(-0.0239607 0.0789969 0)
(-0.035787 0.103928 0)
(-0.0194168 0.0681202 0)
(-0.0118164 0.0489232 0)
(-0.00931992 0.0388636 0)
(-0.0531153 0.138731 0)
(-0.0828764 0.167689 0)
(-0.0792182 0.160402 0)
(-0.0766045 0.15481 0)
(-0.0693805 0.140437 0)
(-0.0741007 0.149329 0)
(-0.0938821 0.190017 0)
(-0.0905269 0.183343 0)
(-0.0878231 0.177705 0)
(-0.085683 0.17297 0)
(-0.00718204 0.0241971 0)
(-0.00815722 0.021593 0)
(-0.00938184 0.0216598 0)
(-0.0070679 0.0221237 0)
(-0.0103119 0.0223055 0)
(-0.0105961 0.0215579 0)
(-0.00902787 0.0183505 0)
(-0.0102615 0.0207337 0)
(-0.00729852 0.0321527 0)
(-0.00519617 0.0229454 0)
(-0.00636226 0.0140462 0)
(-0.00377067 0.00836006 0)
(-0.00746243 0.0156907 0)
(-0.000586676 0.00126764 0)
(-0.00262966 0.00576197 0)
(-0.00412152 0.0083507 0)
(-0.00854918 0.017382 0)
(-0.0314138 0.0634957 0)
(-0.0346108 0.0700889 0)
(-0.0410251 0.0832195 0)
(-0.0367113 0.0743628 0)
(-0.0242261 0.0489384 0)
(-0.0189295 0.0382666 0)
(-0.0132944 0.026889 0)
(-0.0295859 0.0597066 0)
(-0.0471281 0.095471 0)
(-0.0453122 0.0917053 0)
(-0.0557838 0.112789 0)
(-0.0497046 0.100443 0)
(-0.0541283 0.109288 0)
(-0.0666031 0.134506 0)
(-0.063706 0.128426 0)
(-0.0600084 0.12105 0)
(-0.107139 0.220042 0)
(-0.113074 0.236288 0)
(-0.113594 0.23571 0)
(-0.113333 0.233989 0)
(-0.112113 0.231154 0)
(-0.110469 0.226765 0)
(-0.106493 0.218295 0)
(-0.0885587 0.200542 0)
(-0.0962959 0.212364 0)
(-0.081063 0.190678 0)
(-0.0670552 0.166573 0)
(-0.112054 0.236427 0)
(-0.108114 0.230962 0)
(-0.105312 0.227769 0)
(-0.10379 0.211681 0)
(-0.10488 0.214242 0)
(-0.102531 0.208149 0)
(-0.0998086 0.202506 0)
(-0.0991153 0.20074 0)
(-0.0954032 0.193191 0)
(-0.0216445 0.0769135 0)
(-0.0345536 0.103463 0)
(-0.0133107 0.0560055 0)
(-0.010312 0.048042 0)
(-0.00837346 0.040533 0)
(-0.00714546 0.0359537 0)
(-0.0483802 0.131899 0)
(-0.0820331 0.16571 0)
(-0.0788972 0.159317 0)
(-0.0765802 0.154218 0)
(-0.0691234 0.13948 0)
(-0.0738394 0.148325 0)
(-0.0955733 0.192638 0)
(-0.0924602 0.186387 0)
(-0.0908778 0.18305 0)
(-0.087507 0.175907 0)
(-0.0053517 0.0211553 0)
(-0.00737603 0.018677 0)
(-0.0092158 0.0198244 0)
(-0.00572402 0.0183703 0)
(-0.0106057 0.0212183 0)
(-0.0112431 0.0212932 0)
(-0.0080894 0.0164726 0)
(-0.00966832 0.0185824 0)
(-0.0104828 0.0199275 0)
(-0.00400674 0.0243698 0)
(-0.00306837 0.0196633 0)
(-0.00567477 0.01226 0)
(-0.00462281 0.010002 0)
(-0.0062527 0.0130813 0)
(-0.00105127 0.00220812 0)
(-0.00286201 0.0060854 0)
(-0.00176949 0.00357833 0)
(-0.00772595 0.0156142 0)
(-0.0101575 0.020576 0)
(-0.03398 0.0686016 0)
(-0.0412264 0.083302 0)
(-0.0389967 0.0787516 0)
(-0.0246147 0.0495311 0)
(-0.0193702 0.0389779 0)
(-0.0138562 0.0279123 0)
(-0.0300307 0.0603467 0)
(-0.0457646 0.0922977 0)
(-0.0583077 0.117557 0)
(-0.0501921 0.101062 0)
(-0.0558461 0.112281 0)
(-0.0660568 0.133016 0)
(-0.0625229 0.125806 0)
(-0.109917 0.225139 0)
(-0.116681 0.242844 0)
(-0.118017 0.243384 0)
(-0.116735 0.239888 0)
(-0.114753 0.235356 0)
(-0.113285 0.231762 0)
(-0.108904 0.222114 0)
(-0.0932794 0.209983 0)
(-0.101352 0.222638 0)
(-0.0762006 0.183518 0)
(-0.0896248 0.206129 0)
(-0.0635732 0.162042 0)
(-0.11627 0.243626 0)
(-0.111706 0.236744 0)
(-0.108904 0.233445 0)
(-0.106524 0.231216 0)
(-0.105975 0.215109 0)
(-0.107969 0.219854 0)
(-0.105396 0.213469 0)
(-0.1023 0.207121 0)
(-0.101173 0.203987 0)
(-0.0980165 0.197686 0)
(-0.0148916 0.0636389 0)
(-0.0269413 0.0891922 0)
(-0.0399946 0.115877 0)
(-0.0111839 0.0538264 0)
(-0.0053686 0.0377116 0)
(-0.00431033 0.0333007 0)
(-0.0029963 0.0261521 0)
(-0.0546344 0.145873 0)
(-0.08377 0.168382 0)
(-0.0818064 0.164392 0)
(-0.078929 0.158288 0)
(-0.0712717 0.143272 0)
(-0.0759252 0.151956 0)
(-0.0978509 0.196866 0)
(-0.0950001 0.191069 0)
(-0.0918563 0.184352 0)
(-0.0901769 0.18085 0)
(-0.0863491 0.173153 0)
(-0.0042081 0.0167359 0)
(-0.00817078 0.0179877 0)
(-0.00597598 0.0167376 0)
(-0.0102231 0.0201178 0)
(-0.0112855 0.0212477 0)