/*--------------------------------*- C++ -*----------------------------------*\
| =========                 |                                                 |
| \\      /  F ield         | OpenFOAM: The Open Source CFD Toolbox           |
|  \\    /   O peration     | Version:  v2012                                 |
|   \\  /    A nd           | Website:  www.openfoam.com                      |
|    \\/     M anipulation  |                                                 |
\*---------------------------------------------------------------------------*/
FoamFile
{
    version     2.0;
    format      ascii;
    class       volVectorField;
    location    "0.89";
    object      cellDisplacement;
}
// * * * * * * * * * * * * * * * * * * * * * * * * * * * * * * * * * * * * * //

dimensions      [0 1 0 0 0 0 0];


internalField   nonuniform List<vector> 
11961
(
(-0.0010364 0.00234934 0)
(-0.00248564 0.00564393 0)
(-0.00231037 0.00522498 0)
(-0.00154968 0.00353354 0)
(-0.00469547 0.0106469 0)
(-0.00123874 0.00279772 0)
(-0.00443293 0.0100263 0)
(-0.00388288 0.00886349 0)
(-0.00684096 0.0155225 0)
(-0.00224205 0.00505209 0)
(-0.00606491 0.0136969 0)
(-0.00714413 0.0162581 0)
(-0.00412274 0.00944134 0)
(-0.00911095 0.0206192 0)
(-0.00446295 0.0100529 0)
(-0.000991197 0.00223223 0)
(-0.00612055 0.0137988 0)
(-0.00853925 0.0192903 0)
(-0.00993906 0.0226272 0)
(-0.00757911 0.0173674 0)
(-0.00169597 0.00389811 0)
(-0.011841 0.02679 0)
(-0.00489958 0.011019 0)
(-0.00175442 0.00394521 0)
(-0.00852223 0.0191809 0)
(-0.0100961 0.0227436 0)
(-0.0102382 0.0233977 0)
(-0.0125015 0.0283709 0)
(-0.00754014 0.0173569 0)
(-0.00413804 0.00954477 0)
(-0.0138053 0.0311312 0)
(-0.00672514 0.0151078 0)
(-0.00348255 0.00782941 0)
(-0.000739668 0.0016628 0)
(-0.00869328 0.0195337 0)
(-0.0125579 0.0282584 0)
(-0.0134168 0.0306788 0)
(-0.0156088 0.0354124 0)
(-0.0103109 0.023775 0)
(-0.00357263 0.00827935 0)
(-0.0166933 0.0376133 0)
(-0.0067917 0.0152358 0)
(-0.00382886 0.00859645 0)
(-0.00139723 0.00313813 0)
(-0.0103988 0.0233193 0)
(-0.0140434 0.0314983 0)
(-0.0134645 0.0309398 0)
(-0.0162302 0.0369725 0)
(-0.0178822 0.0404154 0)
(-0.00999671 0.0231807 0)
(-0.00681358 0.015855 0)
(-0.00122873 0.00285313 0)
(-0.0184166 0.0413517 0)
(-0.00529562 0.0118791 0)
(-0.00825332 0.018488 0)
(-0.00281817 0.00632727 0)
(-0.00108298 0.00243216 0)
(-0.0127177 0.0284946 0)
(-0.00986018 0.022086 0)
(-0.0169811 0.0380403 0)
(-0.0166589 0.0383331 0)
(-0.019563 0.0445606 0)
(-0.021286 0.0480535 0)
(-0.012561 0.0291881 0)
(-0.00663979 0.0155466 0)
(-0.00118124 0.00277461 0)
(-0.0212978 0.047767 0)
(-0.00525278 0.0117645 0)
(-0.00815652 0.0182422 0)
(-0.00281052 0.00630197 0)
(-0.000380631 0.000854847 0)
(-0.00186438 0.00418289 0)
(-0.0132204 0.0295277 0)
(-0.011222 0.0250791 0)
(-0.0185223 0.0413635 0)
(-0.0159987 0.0370444 0)
(-0.0199241 0.045639 0)
(-0.0224138 0.0507974 0)
(-0.0229564 0.0516094 0)
(-0.0122877 0.0287296 0)
(-0.0096199 0.0225922 0)
(-0.00349396 0.00822353 0)
(-0.0230592 0.0515248 0)
(-0.00374185 0.00838233 0)
(-0.00661777 0.0148018 0)
(-0.0099954 0.0223163 0)
(-0.000574797 0.0012896 0)
(-0.0012836 0.00287867 0)
(-0.0152 0.0338729 0)
(-0.0217753 0.0485687 0)
(-0.0177663 0.0395904 0)
(-0.0177064 0.0411503 0)
(-0.0237155 0.0543452 0)
(-0.0255186 0.0577978 0)
(-0.0261405 0.058598 0)
(-0.0151453 0.0354516 0)
(-0.00960726 0.0227352 0)
(-0.0037459 0.00887408 0)
(-0.0261344 0.0583392 0)
(-0.00345841 0.00773619 0)
(-0.00634213 0.0141602 0)
(-0.0100983 0.0224982 0)
(-0.000156212 0.000350641 0)
(-0.0011796 0.00264353 0)
(-0.0148769 0.0330561 0)
(-0.022853 0.0507878 0)
(-0.0202211 0.0449275 0)
(-0.0205493 0.0477137 0)
(-0.0264808 0.0603062 0)
(-0.0237183 0.0547223 0)
(-0.0282373 0.0636538 0)
(-0.0286017 0.0641619 0)
(-0.0155284 0.0365766 0)
(-0.00687455 0.0163366 0)
(-0.0126145 0.0299297 0)
(-0.00146106 0.00348232 0)
(-0.0279653 0.0622242 0)
(-0.00464709 0.010379 0)
(-0.0023123 0.00517357 0)
(-0.00786216 0.0175221 0)
(-0.0122142 0.0271501 0)
(-0.000131154 0.000294186 0)
(-0.00157623 0.00352895 0)
(-0.000507651 0.00113825 0)
(-0.0174371 0.0386299 0)
(-0.0259739 0.0575623 0)
(-0.0202805 0.0449341 0)
(-0.021113 0.0493779 0)
(-0.0299373 0.0680028 0)
(-0.026383 0.0610154 0)
(-0.0309864 0.0699171 0)
(-0.0321236 0.0717249 0)
(-0.0185299 0.0436752 0)
(-0.00615225 0.0147521 0)
(-0.0129594 0.0309754 0)
(-0.0029922 0.00718611 0)
(-0.028104 0.0623237 0)
(-0.0307304 0.0682679 0)
(-0.00399825 0.00891437 0)
(-0.00156013 0.00348492 0)
(-0.00728698 0.0162105 0)
(-0.0112895 0.0250393 0)
(-0.000772963 0.00172993 0)
(-0.000285511 0.00063966 0)
(-0.0173776 0.0383932 0)
(-0.0259239 0.0572683 0)
(-0.0228474 0.050484 0)
(-0.0241584 0.0564412 0)
(-0.0322533 0.0733781 0)
(-0.0299336 0.0690193 0)
(-0.0342144 0.0768605 0)
(-0.0350547 0.0783194 0)
(-0.0327806 0.0728639 0)
(-0.0188213 0.0447531 0)
(-0.00783762 0.0189046 0)
(-0.0160597 0.0384601 0)
(-0.0107883 0.0259812 0)
(-0.00156674 0.00379547 0)
(-0.0308699 0.068307 0)
(-0.00205783 0.00459061 0)
(-0.00511263 0.0113792 0)
(-0.000520257 0.00116306 0)
(-0.00867393 0.0192565 0)
(-0.012455 0.0275494 0)
(-0.0150571 0.0332511 0)
(-0.0206094 0.0453878 0)
(-0.0280852 0.0618191 0)
(-0.0230381 0.0507497 0)
(-0.0248739 0.0585398 0)
(-0.0323616 0.0740517 0)
(-0.035848 0.081084 0)
(-0.0312624 0.0726463 0)
(-0.036783 0.0827266 0)
(-0.0387338 0.0861132 0)
(-0.0362843 0.0802922 0)
(-0.0218761 0.0520547 0)
(-0.00625263 0.0152414 0)
(-0.0152654 0.0369135 0)
(-0.0120948 0.0293437 0)
(-0.00322765 0.00788198 0)
(-0.0332145 0.0732496 0)
(-0.00100397 0.00223569 0)
(-0.00421565 0.00936595 0)
(-0.0075674 0.0167758 0)
(-0.0103783 0.0229335 0)
(-0.0153108 0.0337045 0)
(-0.0204089 0.0448244 0)
(-0.0260562 0.0572576 0)
(-0.0311267 0.0683791 0)
(-0.0282213 0.0663231 0)
(-0.0371709 0.0847405 0)
(-0.0388449 0.087908 0)
(-0.0353222 0.0818374 0)
(-0.0408103 0.0913074 0)
(-0.0392707 0.0869018 0)
(-0.0419899 0.09339 0)
(-0.0365573 0.0805884 0)
(-0.0221531 0.0532941 0)
(-0.00787086 0.0193067 0)
(-0.0164551 0.0400342 0)
(-0.0107797 0.0263554 0)
(-0.00164456 0.00405463 0)
(-0.0334856 0.0736073 0)
(-0.0021064 0.0046818 0)
(-0.00537179 0.0119138 0)
(-0.00824838 0.0182497 0)
(-0.0106476 0.0234715 0)
(-0.0129274 0.0284486 0)
(-0.0176337 0.0387344 0)
(-0.0226093 0.049508 0)
(-0.027275 0.059742 0)
(-0.0321171 0.0703055 0)
(-0.0286001 0.0678463 0)
(-0.0388363 0.0889362 0)
(-0.0425006 0.0954415 0)
(-0.035926 0.0839745 0)
(-0.0428194 0.0942749 0)
(-0.0458695 0.101409 0)
(-0.0397244 0.0871989 0)
(-0.0193612 0.0470674 0)
(-0.025321 0.0608865 0)
(-0.00726299 0.0179763 0)
(-0.014316 0.0352528 0)
(-0.0118799 0.0292882 0)
(-0.00271202 0.00674526 0)
(-0.0369558 0.0809028 0)
(-0.00108901 0.00241515 0)
(-0.00450001 0.00996117 0)
(-0.00616508 0.0136268 0)
(-0.00832269 0.0183323 0)
(-0.0127914 0.0280765 0)
(-0.0172548 0.0378013 0)
(-0.0215634 0.0471167 0)
(-0.0255968 0.0559888 0)
(-0.030341 0.0663424 0)
(-0.0349013 0.0761818 0)
(-0.0321811 0.0761837 0)
(-0.0438658 0.099948 0)
(-0.0463821 0.103838 0)
(-0.0399501 0.0931071 0)
(-0.0460149 0.101231 0)
(-0.042886 0.094062 0)
(-0.0494188 0.10911 0)
(-0.0397151 0.0869043 0)
(-0.0187204 0.0461166 0)
(-0.0256887 0.0623834 0)
(-0.00512686 0.0127603 0)
(-0.00973467 0.0241836 0)
(-0.0155307 0.0385267 0)
(-0.00112362 0.00282219 0)
(-0.0371077 0.0809877 0)
(-0.0023974 0.00530631 0)
(-0.0061174 0.0134941 0)
(-0.0084343 0.0185373 0)
(-0.010618 0.0233001 0)
(-0.0148278 0.0324829 0)
(-0.0191059 0.0417629 0)
(-0.0230659 0.0502658 0)
(-0.0268235 0.0584821 0)
(-0.0318799 0.0694818 0)
(-0.0347306 0.0756137 0)
(-0.032083 0.0767792 0)
(-0.0444719 0.102223 0)
(-0.0476318 0.107278 0)
(-0.0499796 0.110874 0)
(-0.0393799 0.0928752 0)
(-0.0492102 0.107668 0)
(-0.0460518 0.100502 0)
(-0.052796 0.115759 0)
(-0.0424346 0.0924866 0)
(-0.0203868 0.0505525 0)
(-0.0234137 0.0577017 0)
(-0.0288786 0.0699479 0)
(-0.00519338 0.0130558 0)
(-0.00965763 0.024219 0)
(-0.0142489 0.0357447 0)
(-0.00273171 0.00689986 0)
(-0.0396734 0.0863063 0)
(-0.00137536 0.00303433 0)
(-0.0033752 0.00743493 0)
(-0.0064225 0.0140974 0)
(-0.0101573 0.0222328 0)
(-0.0144001 0.0314635 0)
(-0.0183862 0.0400978 0)
(-0.0252938 0.0550827 0)
(-0.0219721 0.0477716 0)
(-0.0291491 0.0634289 0)
(-0.0312982 0.0680876 0)
(-0.0365959 0.0794191 0)
(-0.0352674 0.0843252 0)
(-0.0488389 0.111919 0)
(-0.0531542 0.118893 0)
(-0.0540978 0.119556 0)
(-0.0425899 0.100368 0)
(-0.0490777 0.106979 0)
(-0.0523124 0.114301 0)
(-0.045503 0.099041 0)
(-0.0565209 0.123584 0)
(-0.0420476 0.0914468 0)
(-0.0183318 0.046223 0)
(-0.0248357 0.0617001 0)
(-0.0282459 0.0693392 0)
(-0.00700325 0.0176675 0)
(-0.0115326 0.0290707 0)
(-0.0155354 0.0393131 0)
(-0.00248588 0.00632583 0)
(-0.0403126 0.0874562 0)
(-0.00350797 0.00771024 0)
(-0.00749699 0.016416 0)
(-0.0118972 0.0259909 0)
(-0.016153 0.0352251 0)
(-0.0197797 0.0430288 0)
(-0.0266058 0.0577747 0)
(-0.0233552 0.050655 0)
(-0.0288866 0.0626976 0)
(-0.033359 0.0723296 0)
(-0.035745 0.0774308 0)
(-0.0391489 0.0848402 0)
(-0.0341759 0.0828644 0)
(-0.0532587 0.120649 0)
(-0.0473657 0.110069 0)
(-0.0550897 0.123577 0)
(-0.0557233 0.123489 0)
(-0.0571611 0.125401 0)
(-0.0408547 0.0977903 0)
(-0.0518603 0.112516 0)
(-0.0549565 0.119453 0)
(-0.047441 0.102859 0)
(-0.059042 0.128337 0)
(-0.0442332 0.095852 0)
(-0.0188418 0.0480533 0)
(-0.02381 0.0601131 0)
(-0.0303742 0.0747141 0)
(-0.00678432 0.0172682 0)
(-0.0106242 0.0270493 0)
(-0.0139059 0.0356222 0)
(-0.000862532 0.00220174 0)
(-0.00450169 0.0115101 0)
(-0.0432038 0.0934999 0)
(-0.00151838 0.00333081 0)
(-0.00640663 0.0139924 0)
(-0.0113069 0.024637 0)
(-0.0158476 0.03446 0)
(-0.0181791 0.0394602 0)
(-0.0257535 0.0558386 0)
(-0.0231163 0.0500068 0)
(-0.030516 0.0660666 0)
(-0.0327702 0.0709201 0)
(-0.0373553 0.0806601 0)
(-0.0408747 0.088245 0)
(-0.0365902 0.0888782 0)
(-0.0570096 0.128868 0)
(-0.0501432 0.116586 0)
(-0.0604128 0.134354 0)
(-0.0601113 0.132257 0)
(-0.0606602 0.132697 0)
(-0.0434921 0.104257 0)
(-0.054576 0.118293 0)
(-0.0520599 0.112569 0)
(-0.0579082 0.125621 0)
(-0.0501284 0.108413 0)
(-0.0464543 0.100544 0)
(-0.0623188 0.134964 0)
(-0.0211241 0.0539408 0)
(-0.016729 0.0433269 0)
(-0.0258309 0.0655143 0)
(-0.0290693 0.072638 0)
(-0.00842063 0.0215269 0)
(-0.0117457 0.0301283 0)
(-0.0146192 0.0378763 0)
(-0.000783703 0.00202125 0)
(-0.00441136 0.0113535 0)
(-0.0441608 0.0953117 0)
(-0.00332129 0.00725995 0)
(-0.00846326 0.0184369 0)
(-0.0135135 0.0293768 0)
(-0.018758 0.0405883 0)
(-0.0267565 0.0578525 0)
(-0.0213099 0.0460369 0)
(-0.0251979 0.0544119 0)
(-0.0301976 0.0652397 0)
(-0.0343619 0.0741468 0)
(-0.0365068 0.0787013 0)
(-0.0398879 0.0859918 0)
(-0.043023 0.0927566 0)
(-0.0345365 0.0854435 0)
(-0.0576152 0.130945 0)
(-0.0611666 0.136667 0)
(-0.0479611 0.113263 0)
(-0.0547106 0.125827 0)
(-0.0633551 0.139736 0)
(-0.0628901 0.138169 0)
(-0.0637777 0.138691 0)
(-0.0408848 0.100039 0)
(-0.057099 0.123208 0)
(-0.0547958 0.118007 0)
(-0.0597716 0.129109 0)
(-0.0504957 0.108851 0)
(-0.0482579 0.104114 0)
(-0.0642909 0.139239 0)
(-0.0636409 0.137188 0)
(-0.0198426 0.051623 0)
(-0.0172802 0.045254 0)
(-0.0252686 0.0651521 0)
(-0.0309213 0.0775396 0)
(-0.00818247 0.0210809 0)
(-0.0100675 0.0260177 0)
(-0.0128274 0.0335219 0)
(-0.00214121 0.00552958 0)
(-0.00629471 0.0162568 0)
(-0.045979 0.0990377 0)
(-0.00178748 0.00389594 0)
(-0.00810274 0.0176051 0)
(-0.0128902 0.0279503 0)
(-0.0167714 0.0362195 0)
(-0.0285257 0.0615999 0)
(-0.022081 0.0475107 0)
(-0.0256825 0.0553071 0)
(-0.0318956 0.06873 0)
(-0.0337611 0.0727099 0)
(-0.0379743 0.0815881 0)
(-0.0410404 0.0881921 0)
(-0.044876 0.0964311 0)
(-0.0362214 0.0901331 0)
(-0.0630078 0.141707 0)
(-0.0649089 0.144486 0)
(-0.0513041 0.120936 0)
(-0.0560868 0.129794 0)
(-0.0681533 0.149269 0)
(-0.0668781 0.145708 0)
(-0.0670664 0.145546 0)
(-0.0431799 0.106033 0)
(-0.0570283 0.122733 0)
(-0.0593234 0.127874 0)
(-0.0552983 0.118729 0)
(-0.0622695 0.134177 0)
(-0.0521536 0.11207 0)
(-0.0486803 0.104744 0)
(-0.0675966 0.145585 0)
(-0.0663418 0.142446 0)
(-0.0203046 0.053506 0)
(-0.0163571 0.0434959 0)
(-0.0225834 0.0594103 0)
(-0.0283617 0.0727037 0)
(-0.010547 0.0274533 0)
(-0.0128448 0.0339465 0)
(-0.00228268 0.00591119 0)
(-0.00588192 0.0152595 0)
(-0.0462854 0.0994606 0)
(-0.047713 0.102635 0)
(-0.00337403 0.00732463 0)
(-0.0103601 0.0224625 0)
(-0.00611139 0.0132574 0)
(-0.0143369 0.0309979 0)
(-0.0176198 0.0379042 0)
(-0.0292131 0.0628765 0)
(-0.0203676 0.043738 0)
(-0.0243891 0.0524116 0)
(-0.0279105 0.0600048 0)
(-0.0312117 0.0671032 0)
(-0.0350572 0.0752899 0)
(-0.0399477 0.0857256 0)
(-0.037077 0.0795421 0)
(-0.043236 0.0926926 0)
(-0.0449224 0.0963038 0)
(-0.0331114 0.0843369 0)
(-0.065194 0.146777 0)
(-0.0686984 0.151583 0)
(-0.0496328 0.118912 0)
(-0.0612276 0.140166 0)
(-0.0700821 0.153538 0)
(-0.0699166 0.152035 0)
(-0.070126 0.15123 0)
(-0.0399654 0.100578 0)
(-0.05907 0.126643 0)
(-0.0615435 0.132151 0)
(-0.0541405 0.116149 0)
(-0.0576442 0.123332 0)
(-0.0632877 0.135863 0)
(-0.0511672 0.109785 0)
(-0.0681469 0.146257 0)
(-0.0699628 0.15046 0)
(-0.0670382 0.143422 0)
(-0.0177262 0.0476524 0)
(-0.0144321 0.038531 0)
(-0.0219263 0.0589922 0)
(-0.0290069 0.075033 0)
(-0.00910847 0.0237819 0)
(-0.0111774 0.0295646 0)
(-0.00399764 0.0103707 0)
(-0.000834717 0.00216307 0)
(-0.00711334 0.0185284 0)
(-0.0479619 0.102883 0)
(-0.00158036 0.00342123 0)
(-0.00999661 0.021605 0)
(-0.00752849 0.0162724 0)
(-0.0122413 0.0264068 0)
(-0.0157216 0.0337507 0)
(-0.0210283 0.0449752 0)
(-0.0258132 0.055291 0)
(-0.02814 0.0602958 0)
(-0.032597 0.0698727 0)
(-0.0345666 0.0740772 0)
(-0.0414263 0.0886039 0)
(-0.0378692 0.0809723 0)
(-0.0433584 0.0926902 0)
(-0.0472229 0.100834 0)
(-0.0327311 0.0846631 0)
(-0.0703972 0.156768 0)
(-0.0723938 0.159171 0)
(-0.0532859 0.12722 0)
(-0.0634322 0.145501 0)
(-0.0745084 0.161994 0)
(-0.073475 0.158722 0)
(-0.0729694 0.156894 0)
(-0.0409645 0.104019 0)
(-0.0351417 0.0905403 0)
(-0.0610074 0.130593 0)
(-0.059069 0.126336 0)
(-0.0620715 0.132938 0)
(-0.0557476 0.11907 0)
(-0.0577549 0.123194 0)
(-0.0653758 0.139905 0)
(-0.0524336 0.112091 0)
(-0.0709009 0.151429 0)
(-0.072339 0.154839 0)
(-0.0692467 0.147604 0)
(-0.0172736 0.0474104 0)
(-0.0133832 0.0362516 0)
(-0.0237723 0.0640974 0)
(-0.0191071 0.052724 0)
(-0.0266972 0.0707061 0)
(-0.00959976 0.025222 0)
(-0.0110396 0.0293722 0)
(-0.00350524 0.00908765 0)
(-0.00177851 0.00460787 0)
(-0.00625054 0.0162619 0)
(-0.049327 0.105498 0)
(-0.00319706 0.00689026 0)
(-0.00638456 0.0137539 0)
(-0.0127774 0.0274758 0)
(-0.0164907 0.0352584 0)
(-0.0234587 0.0500405 0)
(-0.0190232 0.0406045 0)
(-0.0255896 0.0546287 0)
(-0.030083 0.064286 0)
(-0.0322537 0.0689438 0)
(-0.0362096 0.0773837 0)
(-0.0412372 0.0879981 0)
(-0.0395427 0.0843755 0)
(-0.0451425 0.0961778 0)
(-0.0471435 0.100373 0)
(-0.049097 0.104756 0)
(-0.0283744 0.0754926 0)
(-0.0731956 0.161395 0)
(-0.0735523 0.163652 0)
(-0.0758319 0.165196 0)
(-0.0600687 0.140134 0)
(-0.0506141 0.123417 0)
(-0.0710729 0.15995 0)
(-0.0766621 0.165664 0)
(-0.0743053 0.159835 0)
(-0.0762065 0.164294 0)
(-0.0751553 0.160733 0)
(-0.0355359 0.0936295 0)
(-0.0448383 0.112525 0)
(-0.0328167 0.0869407 0)
(-0.0624619 0.133171 0)
(-0.0613232 0.130674 0)
(-0.0645804 0.137747 0)
(-0.0550135 0.117297 0)
(-0.0597916 0.127037 0)
(-0.0660963 0.140931 0)
(-0.0515767 0.110106 0)
(-0.0726246 0.155002 0)
(-0.0712223 0.15166 0)
(-0.0746532 0.15944 0)
(-0.069558 0.147854 0)
(-0.0150825 0.0421059 0)
(-0.0119127 0.0320393 0)
(-0.0136197 0.037587 0)
(-0.0216579 0.0604073 0)
(-0.0187848 0.0531877 0)
(-0.00832337 0.0217749 0)
(-0.00991043 0.0261825 0)
(-0.00453662 0.011763 0)
(-0.000953047 0.00245578 0)
(-0.00690726 0.0179866 0)
(-0.00163499 0.00351157 0)
(-0.00797591 0.0171156 0)
(-0.0109229 0.023428 0)
(-0.0146907 0.0313549 0)
(-0.022978 0.048825 0)
(-0.0201303 0.0427995 0)
(-0.0278516 0.059276 0)
(-0.0299809 0.0638692 0)
(-0.0343324 0.0731321 0)
(-0.0363062 0.0773536 0)
(-0.0430233 0.0914835 0)
(-0.0401149 0.0852689 0)
(-0.0449324 0.0954619 0)
(-0.0490134 0.103967 0)
(-0.0514599 0.109307 0)
(-0.0265304 0.0724889 0)
(-0.0781622 0.170946 0)
(-0.0791221 0.17362 0)
(-0.0791962 0.171684 0)
(-0.06387 0.148506 0)
(-0.0550055 0.133035 0)
(-0.0739857 0.166307 0)
(-0.0801886 0.172353 0)
(-0.0775334 0.16583 0)
(-0.079793 0.170786 0)
(-0.077652 0.165614 0)
(-0.0334679 0.090844 0)
(-0.0429111 0.110375 0)
(-0.0284205 0.0777825 0)
(-0.0645475 0.137328 0)
(-0.061885 0.131419 0)
(-0.056218 0.119387 0)
(-0.0601368 0.127341 0)
(-0.0681068 0.144756 0)
(-0.053047 0.112708 0)
(-0.074841 0.159123 0)
(-0.0733566 0.155517 0)
(-0.0761096 0.161883 0)
(-0.0713675 0.15119 0)
(-0.0140766 0.0406353 0)
(-0.0109991 0.0295449 0)
(-0.0122118 0.0338101 0)
(-0.0225603 0.0636663 0)
(-0.0167619 0.048962 0)
(-0.00870468 0.0227735 0)
(-0.0100477 0.026556 0)
(-0.00434244 0.0112055 0)
(-0.00166093 0.00425587 0)
(-0.00578454 0.0149338 0)
(-0.00333327 0.00712704 0)
(-0.00645592 0.0138042 0)
(-0.0120611 0.0257773 0)
(-0.0146917 0.0312416 0)
(-0.0246272 0.0521498 0)
(-0.0188981 0.0400383 0)
(-0.0286093 0.0606698 0)
(-0.0321302 0.0682105 0)
(-0.0342575 0.072725 0)
(-0.0385213 0.081818 0)
(-0.0422657 0.0896634 0)
(-0.046879 0.0991874 0)
(-0.0513527 0.1088 0)
(-0.0489478 0.103501 0)
(-0.0804991 0.174801 0)
(-0.0837485 0.182465 0)
(-0.081886 0.176337 0)
(-0.0700202 0.159932 0)
(-0.0610927 0.144427 0)
(-0.052931 0.130439 0)
(-0.0793086 0.176317 0)
(-0.0817987 0.174857 0)
(-0.0820652 0.176188 0)
(-0.0800016 0.170731 0)
(-0.079662 0.169161 0)
(-0.0367495 0.0987058 0)
(-0.0279923 0.0796309 0)
(-0.0469782 0.119385 0)
(-0.0259724 0.0738237 0)
(-0.0662949 0.140476 0)
(-0.0642341 0.135845 0)
(-0.0584461 0.123766 0)
(-0.0550633 0.116718 0)
(-0.0625107 0.13183 0)
(-0.0694711 0.147032 0)
(-0.076058 0.161133 0)
(-0.0755193 0.159755 0)
(-0.0731061 0.154659 0)
(-0.0783227 0.165963 0)
(-0.0714852 0.151008 0)
(-0.0146986 0.0433958 0)
(-0.01221 0.0353871 0)
(-0.0111492 0.0302353 0)
(-0.0117173 0.0330443 0)
(-0.0204558 0.0600885 0)
(-0.0160606 0.0488907 0)
(-0.00793659 0.0204959 0)
(-0.00937336 0.024364 0)
(-0.00320487 0.00821748 0)
(-0.00072089 0.00182911 0)
(-0.0057762 0.0147861 0)
(-0.0017231 0.00366883 0)
(-0.00814716 0.0173534 0)
(-0.0107504 0.0229063 0)
(-0.0163436 0.0346416 0)
(-0.0123251 0.0261867 0)
(-0.0236415 0.0498911 0)
(-0.0273937 0.0579616 0)
(-0.020771 0.0438344 0)
(-0.0314546 0.0665878 0)
(-0.0364969 0.0772096 0)
(-0.038785 0.0820846 0)
(-0.0436742 0.0923034 0)
(-0.0463686 0.0978387 0)
(-0.05303 0.111821 0)
(-0.0513037 0.108063 0)
(-0.0844013 0.181948 0)
(-0.0853983 0.18637 0)
(-0.0874665 0.188616 0)
(-0.0849189 0.182255 0)
(-0.074135 0.16862 0)
(-0.0649935 0.152779 0)
(-0.0573421 0.139972 0)
(-0.0796374 0.178256 0)
(-0.083357 0.183412 0)
(-0.084654 0.180147 0)
(-0.0852157 0.181721 0)
(-0.0826675 0.175388 0)
(-0.0820487 0.173799 0)
(-0.0798859 0.169146 0)
(-0.0347049 0.0963783 0)
(-0.0242927 0.0732866 0)
(-0.0451769 0.117403 0)
(-0.0219238 0.064891 0)
(-0.0688748 0.145555 0)
(-0.0662124 0.139915 0)
(-0.0644839 0.13591 0)
(-0.0588613 0.124182 0)
(-0.0566505 0.119612 0)
(-0.0628813 0.132138 0)
(-0.0784727 0.165799 0)
(-0.0774981 0.16309 0)
(-0.0747168 0.157378 0)
(-0.073506 0.154704 0)
(-0.0129535 0.0400147 0)
(-0.0110182 0.0329971 0)
(-0.0104241 0.0279105 0)
(-0.0105678 0.029019 0)
(-0.0172921 0.0528999 0)
(-0.0133617 0.0424988 0)
(-0.00674817 0.0172421 0)
(-0.00841659 0.0216137 0)
(-0.00925149 0.0236664 0)
(-0.00344849 0.00874999 0)
(-0.00139322 0.00349135 0)
(-0.00461281 0.011688 0)
(-0.00373762 0.00792234 0)
(-0.00701835 0.0148843 0)
(-0.014675 0.031005 0)
(-0.0120855 0.0255896 0)
(-0.0252526 0.0531136 0)
(-0.0290027 0.0610818 0)
(-0.020198 0.0424495 0)
(-0.0328552 0.0692841 0)
(-0.0368261 0.0776391 0)
(-0.0408618 0.0861997 0)
(-0.0429959 0.090658 0)
(-0.0479212 0.100685 0)
(-0.0552242 0.11616 0)
(-0.0517532 0.108629 0)
(-0.0871272 0.187307 0)
(-0.0915267 0.197454 0)
(-0.091727 0.196533 0)
(-0.0876476 0.186976 0)
(-0.0717317 0.165262 0)
(-0.0630486 0.150366 0)
(-0.0554971 0.137961 0)
(-0.0844712 0.187364 0)
(-0.0871662 0.191196 0)
(-0.0861491 0.182639 0)
(-0.0876532 0.186412 0)
(-0.08536 0.180466 0)
(-0.0837372 0.176566 0)
(-0.0824117 0.173716 0)
(-0.0293311 0.0861422 0)
(-0.039476 0.10693 0)
(-0.0248055 0.0760135 0)
(-0.0202722 0.0640545 0)
(-0.0494936 0.126837 0)
(-0.0196246 0.061025 0)
(-0.0705481 0.148292 0)
(-0.0688049 0.144659 0)
(-0.0666763 0.139947 0)
(-0.0609149 0.12807 0)
(-0.0567717 0.119518 0)
(-0.0651866 0.136411 0)
(-0.0803583 0.169017 0)
(-0.0798713 0.167614 0)
(-0.0768388 0.16142 0)
(-0.0745213 0.156203 0)
(-0.0111185 0.0349126 0)
(-0.0099395 0.0290401 0)
(-0.00972478 0.0250535 0)
(-0.0100427 0.0276083 0)
(-0.0152919 0.0498227 0)
(-0.0115492 0.0394035 0)
(-0.00637762 0.0159491 0)
(-0.00798171 0.020027 0)
(-0.0085323 0.0211768 0)
(-0.0026279 0.00658812 0)
(-0.000674012 0.00166132 0)
(-0.0044698 0.0111297 0)
(-0.00204217 0.0043078 0)
(-0.00939139 0.0198503 0)
(-0.0149747 0.0315141 0)
(-0.0247115 0.051798 0)
(-0.0278023 0.0584253 0)
(-0.0316186 0.0664965 0)
(-0.0176052 0.0369547 0)
(-0.0225343 0.0471985 0)
(-0.0352908 0.0742971 0)
(-0.0393501 0.0826704 0)
(-0.0409744 0.0861243 0)
(-0.0446728 0.0937837 0)
(-0.0501561 0.105179 0)
(-0.0468735 0.0982436 0)
(-0.0567707 0.118842 0)
(-0.0541112 0.113106 0)
(-0.0905629 0.193133 0)
(-0.0940775 0.202743 0)
(-0.0936446 0.200619 0)
(-0.0941935 0.200452 0)
(-0.0903918 0.192242 0)
(-0.0745044 0.171538 0)
(-0.0681832 0.160809 0)
(-0.0604278 0.1485 0)
(-0.0871919 0.193191 0)
(-0.0917102 0.199317 0)
(-0.0891129 0.188095 0)
(-0.0863658 0.182667 0)
(-0.0901101 0.190632 0)
(-0.0873292 0.183614 0)
(-0.0862592 0.181233 0)
(-0.0834701 0.175303 0)
(-0.0269167 0.0832949 0)
(-0.0394948 0.108719 0)
(-0.0202486 0.0675848 0)
(-0.0166666 0.0569562 0)
(-0.046495 0.122586 0)
(-0.0164852 0.0538626 0)
(-0.0730624 0.153014 0)
(-0.0689096 0.144441 0)
(-0.0669623 0.140076 0)
(-0.0611494 0.128102 0)
(-0.0592125 0.124128 0)
(-0.0654643 0.136487 0)
(-0.0826379 0.173356 0)
(-0.0818991 0.170987 0)
(-0.0787035 0.164432 0)
(-0.0774906 0.161717 0)
(-0.00966428 0.032147 0)
(-0.00884279 0.0263639 0)
(-0.00942131 0.0230961 0)
(-0.0095875 0.0250527 0)
(-0.0121185 0.0425141 0)
(-0.00958431 0.0339894 0)
(-0.00709092 0.0175338 0)
(-0.00528259 0.0130401 0)
(-0.00827725 0.0196491 0)
(-0.00328337 0.00811678 0)
(-0.00145402 0.00351485 0)
(-0.00394717 0.00828703 0)
(-0.00943672 0.0198675 0)
(-0.0124361 0.0261228 0)
(-0.0267164 0.0558347 0)
(-0.0286627 0.0599853 0)
(-0.033091 0.0693197 0)
(-0.0175844 0.036727 0)
(-0.0224118 0.0467398 0)
(-0.0367022 0.0769224 0)
(-0.0392057 0.0820674 0)
(-0.043389 0.090909 0)
(-0.0512879 0.107123 0)
(-0.0484829 0.101126 0)
(-0.0592054 0.123709 0)
(-0.0563192 0.117567 0)
(-0.053549 0.111638 0)
(-0.0934994 0.198642 0)
(-0.0989947 0.211479 0)
(-0.0976469 0.207657 0)
(-0.0973558 0.20618 0)
(-0.0929499 0.196511 0)
(-0.0803512 0.182702 0)
(-0.0676007 0.161203 0)
(-0.05783 0.145345 0)
(-0.0933613 0.203929 0)
(-0.085992 0.192199 0)
(-0.0948972 0.205773 0)
(-0.0891927 0.187824 0)
(-0.0906289 0.1911 0)
(-0.0926113 0.195416 0)
(-0.0898834 0.188306 0)
(-0.0876731 0.183329 0)
(-0.0861452 0.180175 0)
(-0.0293286 0.089669 0)
(-0.0211845 0.07139 0)
(-0.0355223 0.102074 0)
(-0.0152643 0.0569169 0)
(-0.0142257 0.0531504 0)
(-0.0147049 0.0512561 0)
(-0.0496172 0.129972 0)
(-0.0744547 0.155135 0)
(-0.0708982 0.147843 0)
(-0.0694711 0.144703 0)
(-0.0634089 0.132292 0)
(-0.0678777 0.140881 0)
(-0.0848893 0.177118 0)
(-0.0846011 0.176114 0)
(-0.0813457 0.169418 0)
(-0.0786286 0.163361 0)
(-0.00834625 0.0282748 0)
(-0.00862926 0.0240537 0)
(-0.00805032 0.0259236 0)
(-0.00955698 0.0233591 0)
(-0.00892027 0.0207117 0)
(-0.00908894 0.0237131 0)
(-0.0101011 0.0394379 0)
(-0.00739797 0.0294415 0)
(-0.00684445 0.0164402 0)
(-0.0050267 0.0120659 0)
(-0.00747031 0.0174889 0)
(-0.00284186 0.00687238 0)
(-0.000774154 0.00182941 0)
(-0.00193551 0.00404402 0)
(-0.00728635 0.0152966 0)
(-0.0123516 0.0258228 0)
(-0.0268946 0.0559967 0)
(-0.0307313 0.0641443 0)
(-0.0357344 0.0747432 0)
(-0.0326352 0.0681608 0)
(-0.0201262 0.0419141 0)
(-0.0148723 0.0310071 0)
(-0.0249002 0.0517739 0)
(-0.0408943 0.0852769 0)
(-0.0445412 0.0929282 0)
(-0.0506692 0.105545 0)
(-0.0473903 0.0986104 0)
(-0.0612416 0.127414 0)
(-0.0585738 0.121625 0)
(-0.0544532 0.113076 0)
(-0.0961312 0.202915 0)
(-0.101147 0.215949 0)
(-0.101405 0.215158 0)
(-0.100482 0.212995 0)
(-0.0986057 0.208849 0)
(-0.0994832 0.209545 0)
(-0.0957022 0.20163 0)
(-0.0800585 0.183752 0)
(-0.0736009 0.172942 0)
(-0.0622171 0.155006 0)
(-0.0974088 0.211729 0)
(-0.0922254 0.204045 0)
(-0.0994737 0.213692 0)
(-0.0907247 0.190302 0)
(-0.0936067 0.196355 0)
(-0.0947781 0.198927 0)
(-0.0920719 0.191943 0)
(-0.0902298 0.187876 0)
(-0.0870468 0.181312 0)
(-0.0260832 0.0851332 0)
(-0.0168722 0.0635444 0)
(-0.0376651 0.108333 0)
(-0.0123945 0.0525266 0)
(-0.0102554 0.0434071 0)
(-0.0116575 0.0446277 0)
(-0.045006 0.122879 0)
(-0.0770629 0.160022 0)
(-0.0732897 0.152421 0)
(-0.0700849 0.145386 0)
(-0.0635106 0.132013 0)
(-0.0680731 0.14074 0)
(-0.086677 0.179483 0)
(-0.0833748 0.172759 0)
(-0.0814532 0.1684 0)
(-0.0068632 0.0261727 0)
(-0.00791005 0.0216068 0)
(-0.00679693 0.0221938 0)
(-0.00971742 0.0220459 0)
(-0.00906182 0.0197631 0)
(-0.00907693 0.0220947 0)
(-0.00697218 0.0321804 0)
(-0.00601956 0.0279446 0)
(-0.00586688 0.0138832 0)
(-0.00376831 0.00894305 0)
(-0.00702924 0.015945 0)
(-0.00131849 0.00302165 0)
(-0.00416867 0.00867744 0)
(-0.00924917 0.0193299 0)
(-0.0289858 0.0601999 0)
(-0.03077 0.0639847 0)
(-0.0366866 0.0763987 0)
(-0.034799 0.072408 0)
(-0.020247 0.0419609 0)
(-0.0150001 0.031118 0)
(-0.0251563 0.0520761 0)
(-0.0433989 0.0903745 0)
(-0.0406547 0.0844756 0)
(-0.0524986 0.10894 0)
(-0.0487847 0.10098 0)
(-0.0610563 0.126611 0)
(-0.0583759 0.120839 0)
(-0.0563983 0.116783 0)
(-0.0990157 0.208213 0)
(-0.105714 0.223973 0)
(-0.105714 0.222811 0)
(-0.103556 0.217865 0)
(-0.102068 0.214834 0)
(-0.102554 0.215159 0)
(-0.0980682 0.205425 0)
(-0.0851655 0.193683 0)
(-0.0749134 0.176902 0)
(-0.0707496 0.170668 0)
(-0.0576758 0.148431 0)
(-0.102503 0.220321 0)
(-0.0970276 0.211953 0)
(-0.093285 0.207009 0)
(-0.102999 0.220443 0)
(-0.0937915 0.1958 0)
(-0.0952359 0.198809 0)
(-0.0974102 0.20372 0)
(-0.0947267 0.196966 0)
(-0.0921597 0.191666 0)
(-0.0914775 0.189586 0)
(-0.0897665 0.186091 0)
(-0.020187 0.0737903 0)
(-0.0316666 0.0978534 0)
(-0.0158482 0.0633832 0)
(-0.00863333 0.0449667 0)
(-0.00659219 0.0356608 0)
(-0.0485414 0.131446 0)
(-0.0786436 0.162494 0)
(-0.075141 0.155431 0)
(-0.0726929 0.150059 0)
(-0.0657662 0.136082 0)
(-0.0703722 0.144817 0)
(-0.0891594 0.184063 0)
(-0.0859352 0.177611 0)
(-0.0833725 0.172192 0)
(-0.081384 0.167674 0)
(-0.0055123 0.0224642 0)
(-0.00698789 0.020481 0)
(-0.00848616 0.0208631 0)
(-0.00560219 0.0206575 0)
(-0.00957186 0.021663 0)
(-0.010044 0.0211116 0)
(-0.008585 0.0179687 0)
(-0.0097577 0.0203224 0)
(-0.00485264 0.0293895 0)
(-0.00327035 0.0209226 0)
(-0.00591248 0.0135865 0)
(-0.00350232 0.00808441 0)
(-0.00703369 0.0152864 0)
(-0.000549266 0.00123061 0)
(-0.00245131 0.00558157 0)
(-0.00390077 0.00809122 0)
(-0.00808064 0.0168311 0)
(-0.0297589 0.0615386 0)
(-0.0327647 0.0679041 0)
(-0.0388055 0.0805806 0)
(-0.0347501 0.0720402 0)
(-0.022961 0.0474504 0)
(-0.0179322 0.0370924 0)
(-0.0125932 0.0260661 0)
(-0.028043 0.0578811 0)
(-0.0446071 0.0924653 0)
(-0.0429031 0.0888364 0)
(-0.0528656 0.109306 0)
(-0.047093 0.0973246 0)
(-0.0513209 0.105939 0)
(-0.0631786 0.130391 0)
(-0.0604633 0.124541 0)
(-0.0569312 0.11737 0)
(-0.101608 0.212383 0)
(-0.107149 0.22721 0)
(-0.107747 0.226965 0)
(-0.107558 0.22553 0)
(-0.106383 0.222874 0)
(-0.104863 0.218858 0)
(-0.101017 0.210784 0)
(-0.0829612 0.191285 0)
(-0.0904953 0.202928 0)
(-0.0757449 0.181573 0)
(-0.0621286 0.158252 0)
(-0.106068 0.227001 0)
(-0.102155 0.221426 0)
(-0.0993545 0.21803 0)
(-0.0985066 0.204631 0)
(-0.0995268 0.20703 0)
(-0.0973949 0.201415 0)
(-0.0947782 0.195997 0)
(-0.0941585 0.19437 0)
(-0.0906041 0.187106 0)
(-0.0178738 0.0717066 0)
(-0.0304677 0.0973837 0)
(-0.00989183 0.0516358 0)
(-0.00705834 0.044011 0)
(-0.005385 0.0369512 0)
(-0.004355 0.0327019 0)
(-0.043945 0.124797 0)
(-0.0778849 0.160635 0)
(-0.0748928 0.154438 0)
(-0.0727514 0.149569 0)
(-0.0655984 0.135236 0)
(-0.070211 0.14394 0)
(-0.0908969 0.186742 0)
(-0.0879179 0.180711 0)
(-0.0864276 0.177517 0)
(-0.083262 0.170675 0)
(-0.00364187 0.0194126 0)
(-0.00636231 0.0177923 0)
(-0.00848997 0.0192629 0)
(-0.00438657 0.0171047 0)
(-0.0100562 0.0208291 0)
(-0.0108572 0.0210742 0)
(-0.00769176 0.0161232 0)
(-0.00933372 0.0183495 0)
(-0.0101414 0.0197111 0)
(-0.00173228 0.0219097 0)
(-0.00107582 0.0176002 0)
(-0.00530865 0.0118964 0)
(-0.00432365 0.00970425 0)
(-0.00590357 0.012753 0)
(-0.000992651 0.002153 0)
(-0.00269188 0.00592106 0)
(-0.00167606 0.00346864 0)
(-0.00731851 0.0151344 0)
(-0.00961476 0.0199384 0)
(-0.0322063 0.0665026 0)
(-0.0390673 0.0807419 0)
(-0.036963 0.0763433 0)
(-0.0233668 0.0480634 0)
(-0.0183912 0.0378311 0)
(-0.0131474 0.0270812 0)
(-0.0285275 0.0585772 0)
(-0.0433996 0.0894848 0)
(-0.0553252 0.113995 0)
(-0.0476494 0.0980431 0)
(-0.0530467 0.10894 0)
(-0.0627282 0.129021 0)
(-0.059381 0.122045 0)
(-0.104362 0.21739 0)
(-0.110743 0.233644 0)
(-0.112197 0.234599 0)
(-0.110973 0.23139 0)
(-0.109057 0.227124 0)
(-0.107677 0.223803 0)
(-0.103471 0.214664 0)
(-0.0875859 0.200369 0)
(-0.0954466 0.212776 0)
(-0.0710427 0.174603 0)
(-0.0840815 0.196485 0)
(-0.058791 0.153869 0)
(-0.110273 0.234133 0)
(-0.105698 0.22716 0)
(-0.102897 0.223665 0)
(-0.100528 0.221204 0)
(-0.100735 0.208124 0)
(-0.102596 0.212558 0)
(-0.100226 0.206635 0)
(-0.0972383 0.200532 0)
(-0.0962737 0.197684 0)
(-0.0932344 0.191606 0)
(-0.0112498 0.0588034 0)
(-0.0230265 0.0835595 0)
(-0.0357555 0.109313 0)
(-0.007715 0.0494012 0)
(-0.00223282 0.0339685 0)
(-0.00135348 0.0298637 0)
(-0.000410726 0.0232868 0)
(-0.0500866 0.138273 0)
(-0.0796885 0.163385 0)
(-0.0778164 0.159522 0)
(-0.0751187 0.153655 0)
(-0.067742 0.139017 0)
(-0.072307 0.147577 0)
(-0.0931318 0.190884 0)
(-0.0904162 0.185315 0)
(-0.0874788 0.178911 0)
(-0.0858899 0.175546 0)
(-0.0822291 0.168094 0)
(-0.00273141 0.0153247 0)
(-0.00741167 0.0174182 0)