/*--------------------------------*- C++ -*----------------------------------*\
| =========                 |                                                 |
| \\      /  F ield         | OpenFOAM: The Open Source CFD Toolbox           |
|  \\    /   O peration     | Version:  v2012                                 |
|   \\  /    A nd           | Website:  www.openfoam.com                      |
|    \\/     M anipulation  |                                                 |
\*---------------------------------------------------------------------------*/
FoamFile
{
    version     2.0;
    format      ascii;
    class       surfaceScalarField;
    location    "0.89";
    object      meshPhi;
}
// * * * * * * * * * * * * * * * * * * * * * * * * * * * * * * * * * * * * * //

dimensions      [0 3 -1 0 0 0 0];


internalField   nonuniform List<scalar> 
18811
(
0.0039265
-0.000160283
0.00225359
0.00602907
-0.00517739
0.00889457
0.00790894
-0.00663851
0.0165751
-0.000394106
0.00640173
0.00584288
0.00924188
0.0140254
0.00807954
0.00853694
-0.00402745
-0.00746611
0.0181096
0.025181
0.0156141
7.95919e-05
-0.0173378
0.0305068
0.0158938
-0.0026358
-0.000317824
0.0128708
0.00496616
0.0186543
0.0131185
0.00884729
0.0121338
0.00660496
0.0233713
0.0134015
0.0122295
-0.0107242
0.00611151
-0.00293647
0.0239037
-0.00666496
0.0336211
0.0335041
0.0427837
-0.00821549
0.0256885
0.00463625
-0.0273341
0.0468801
0.0188878
-0.00295768
-0.00127762
-1.3518e-05
0.0170082
0.0129503
0.0219264
0.0183463
0.029267
0.0209252
0.0161069
0.0161155
0.0161829
-0.00316882
0.0299861
0.0239947
-0.0151311
0.0160056
0.0105414
-0.00835177
0.00473672
-0.00219162
0.0306868
-0.00987325
-0.0312475
0.0515168
0.0445003
0.0545382
0.0575562
-0.0117811
0.0343611
0.0108093
0.00187185
-0.0282171
0.05866
-0.00127359
0.0205442
-0.00153959
-0.00140888
-0.00151619
0.00111245
0.00482708
0.0135564
0.0307052
0.0211433
0.0313653
0.0320184
0.0304853
0.0437959
0.0217807
0.0212421
0.0184869
0.0237852
-0.00670798
0.00689844
0.0357341
0.0286109
-0.0114218
0.0135429
-0.0170951
0.0185416
-0.00634554
0.00778146
-0.00021965
-0.00370394
-0.0314213
0.0415652
-0.0147551
0.0488789
-0.0126792
0.0485032
0.0715291
0.0827386
0.0636497
-0.0129436
0.0368658
0.0177103
0.00789557
-0.0328536
0.0673523
-0.000208791
-2.06517e-06
0.00759315
0.00169874
-0.000778831
-0.000309791
0.048628
0.000413365
0.0217788
0.0419616
-0.00532272
0.0597503
0.0336223
0.0485973
0.0386447
0.051394
-0.0118172
0.0820318
0.0366144
-0.0119186
0.0376674
0.0139634
-0.000345392
0.0620684
0.0107774
-0.00725553
-0.0131525
0.0169046
-0.0187351
0.0311834
1.50207e-05
0.00264464
-0.00142866
-0.0388927
0.0467607
-0.0378065
0.064954
0.00921016
0.0221437
0.0441414
0.0795392
0.0786711
-0.0173588
0.0755509
0.0728028
-0.0121585
0.0557931
0.00876478
0.0340811
0.00489163
-9.70917e-05
0.0666322
0.00112484
-0.00529463
0.000362159
0.00216606
-0.001056
0.000663087
-0.00137651
7.99217e-05
0.0409051
0.0128994
0.0652668
0.00754111
0.0562193
-0.0141076
0.06415
-0.00867855
0.0949025
-0.00344005
0.089983
0.0726028
0.0796104
0.000174697
0.0479437
-0.00873759
0.0245429
0.0424274
-0.000921013
0.000907698
0.0698998
0.0706653
-6.64552e-06
-0.00738241
0.0119375
0.00475065
-0.00202738
-0.0134325
0.0196357
-0.0228757
0.0273316
-0.000963103
0.000653878
-0.0277917
0.0468347
-0.0447733
0.0583111
0.0164644
0.0677596
0.0489795
0.0526484
0.0196051
0.0797789
-0.0055973
0.0847725
0.0806416
0.0775631
-0.0174297
0.0711918
0.0257405
0.00605675
0.0294472
0.0328358
0.00681754
0.0741568
0.00107079
0.00218033
0.000779513
0.0415016
-0.0092468
0.0199855
0.0374175
0.0154051
-0.0162869
0.0796799
0.0590017
-0.0133356
0.0904714
0.075386
-0.0142315
0.0712323
-0.0135687
0.102024
0.0759879
0.00262912
0.0842177
0.0753631
0.00791811
0.0684588
-0.011718
0.025012
-0.0267839
0.0598059
0.0108885
0.00145689
0.065066
0.0154455
0.00417016
-0.00658002
0.0121887
-0.0114688
0.0153193
-0.0232644
0.0181459
-0.0173198
0.0418256
-0.0319029
0.052895
0.0475464
0.0495203
0.0359908
0.0866627
-0.016345
0.0982086
0.0602758
0.0129393
0.0963539
0.00698201
0.0752611
0.0839616
0.0983518
0.0782928
-0.00952198
0.0863367
0.016742
0.0131815
0.0530291
0.0112047
0.0324691
0.00825814
0.0707266
0.000995499
0.00360834
-0.00499902
0.0280552
-0.00673517
0.014823
0.0145686
0.00775433
0.0494442
-0.0123291
0.0653572
-0.0210867
0.0603801
-0.00157556
0.0971604
0.119468
0.142216
-0.00910446
0.111801
0.0910401
-0.0016586
-0.0134333
0.11843
0.0730268
0.00999326
0.0497285
0.096765
-0.00554174
0.0236758
-0.037646
0.0530576
0.0002044
0.0134934
0.000583281
0.0574675
0.0170725
0.00427315
0.0121902
-0.0057513
0.0102086
-0.0175045
0.0139608
-0.0115834
0.0297153
-0.0199534
0.0380237
-0.0313388
0.0424257
0.041976
0.047892
0.0515189
0.0120054
0.0942491
0.104333
0.0252972
0.0930559
0.0593275
0.0248705
0.0917452
0.0830837
0.0760504
0.0540263
0.0710066
0.0715178
-0.0241401
0.0782711
0.0296357
0.0722591
0.012512
0.0292011
0.0324603
0.00652355
0.07231
0.00217889
-0.00401788
0.0181078
-0.00163838
0.00921864
0.0130983
0.00976876
0.0396737
0.00553474
-0.00528362
0.0499884
0.0423604
0.00822228
0.0569047
-0.00118316
0.0981486
0.13641
0.127442
0.120232
-0.0189092
0.115217
-0.00332182
0.0904679
0.0821086
-0.00223852
-0.0246875
0.0998723
0.0648734
0.00959329
0.0409866
0.0382496
0.0761216
0.0744749
-0.00789893
0.0256243
-0.00685961
0.041497
-0.020236
0.0569517
0.00673219
0.0405825
0.0340556
0.00626158
0.00682474
-0.01124
0.0122199
-0.0103397
0.0220397
-0.0139472
0.0299061
-0.0189207
0.0309745
0.0367484
-0.0344383
0.0428123
0.0366567
0.0156267
0.0476298
0.00537779
0.0538284
0.0851324
0.0701838
0.0759562
0.127378
0.00806493
0.077245
0.0476203
0.0419099
0.0772875
0.0827129
0.0697672
0.0659583
0.0440509
0.0602129
0.0522532
-0.031355
0.0714641
0.0111924
0.0655821
0.0865053
0.0210828
0.0264682
0.0278154
-0.0058276
0.0236973
-0.0121968
0.0480945
0.00039983
0.0046565
0.011134
0.0133772
-0.00100977
0.0323491
0.0063251
0.0251719
0.0193905
0.049877
0.0397507
0.00967306
0.0470349
0.0437882
-0.01171
0.0974119
-0.0365948
0.113151
0.124669
0.0968473
0.0901204
0.0953063
-0.0257662
0.104506
0.0710302
0.0146236
-0.00692731
0.0794299
0.0704623
-0.00245423
-0.0273629
0.0903455
-0.0057783
0.0600195
0.045427
0.0277798
0.00854602
0.0610951
0.0757594
-0.00852358
0.0314173
-0.00935813
0.0399298
-0.0255948
0.0554716
0.00389096
0.0177504
0.0441147
0.00491525
-0.00760584
0.0157122
-0.00857466
0.0222775
0.0289044
-0.0131778
0.0304995
0.0331441
-0.0120278
0.0331628
0.0313856
0.0201882
0.0426034
0.0058144
0.0427815
-0.00146424
0.0470086
0.0763066
0.0887161
0.0286794
0.0563463
0.0729347
0.0718673
0.0293669
-0.0174161
0.111128
0.0812613
0.0291663
0.0774303
0.0666371
-0.0533436
0.0705351
0.0544408
0.0191327
0.0594257
0.0641746
0.0285041
0.0575127
-0.0270815
0.0562788
-0.0088094
0.070241
0.0676336
0.0233583
0.0172758
0.0307979
0.0133241
-0.00685057
0.026113
-0.0049403
0.0503314
0.00142684
0.0102344
0.0119814
0.0377661
-0.004002
-0.00509693
0.0396298
0.0280573
0.0294245
-0.0154349
0.0368633
0.0342807
0.00966151
0.0414738
0.0430609
0.0432871
-0.0122723
0.0914229
0.0143443
0.0788964
0.103766
0.088336
0.0921532
-0.0581468
0.0912174
0.0564538
0.000916398
0.0833815
-0.026321
0.103856
0.00909141
0.0597233
0.0477463
0.0245985
-0.00600934
0.0618603
-0.0357993
0.0562424
0.0250533
0.0675099
-0.0388779
0.0689091
-0.00404361
0.0635124
0.0541588
0.0489283
0.0243314
0.057638
0.0255667
-0.00192064
0.0463242
-0.0241786
0.0571017
0.0110405
0.0252235
0.0162913
0.034711
0.00589178
0.0152321
-0.00231984
-0.00892495
0.0232688
-0.0265487
0.0255195
0.0254157
-0.00338504
0.0336736
-0.000450838
0.0311123
0.0299154
0.00800149
0.0408621
0.0415245
0.00131964
-0.000476543
0.04471
0.0200867
0.0243438
0.0674581
-0.0370832
0.11915
0.0701206
-0.00158285
0.0934572
0.0938265
0.0996689
-0.00533004
-0.0243756
0.083341
0.0617606
0.0183239
0.0887843
0.0586826
0.0550881
-0.0230223
0.0489215
0.0241496
0.0629587
-0.00535802
-0.0214873
0.047899
0.00599007
0.0630386
0.0520171
0.0181382
0.0274526
0.0376591
0.0313441
0.0231867
0.0793001
0.0864497
0.0239966
0.0343852
0.0232006
0.0152876
0.000757134
-0.00481996
0.0306285
0.0369901
0.0140549
0.00906947
0.000800821
0.0080736
0.00944808
-0.000946269
0.0297571
-0.00190276
-0.00654364
0.0332173
0.0288021
0.0347748
0.0259523
0.0424032
0.0306524
0.0112123
0.042223
0.0330707
0.0245503
0.0212739
0.0503025
-0.0180308
0.0884093
0.0296204
0.0929695
-0.0203792
0.0934097
0.115212
0.126883
0.0821639
0.080733
-0.0129121
0.0764163
0.0860726
0.0036392
0.0515717
0.00828962
0.0340179
0.0221521
0.0413508
0.0372702
0.0125934
0.0591088
0.043655
0.0593238
0.0515464
-0.038273
0.0573888
0.0698113
0.0582369
0.0366523
0.0430692
0.0710469
-0.0138441
0.0398841
-0.0206304
0.044658
0.0114758
0.00534522
0.0182921
0.051856
0.00445809
-0.00834149
0.0184456
0.00358811
0.0198562
-0.0215296
0.0218807
0.0333747
-0.00264016
0.0160313
0.0202975
0.0434219
0.0247589
0.0190549
0.0369534
0.0248648
0.0183397
-0.0131456
0.0471883
0.0470437
0.0194992
0.0319943
0.0649678
0.0243386
-0.000395899
0.0965161
0.0696125
0.0262032
0.0265439
0.0929088
0.0713188
0.0597618
0.0576272
0.0267665
0.00310753
0.0797033
0.0461994
0.0313889
0.0303919
0.0570469
0.0694838
0.0224785
0.0299605
0.046545
0.0455808
0.0467126
-0.00431005
0.0603703
0.0217407
0.0518099
-0.00688881
0.0508146
0.00953015
0.00229573
0.0500024
0.0420543
0.0161011
0.0125864
0.0564154
0.0104527
0.0471128
-0.022474
0.0602498
0.0555347
0.0496636
0.0200143
0.0253235
0.019058
-0.00448297
0.0175543
0.00314218
-0.00467457
0.0240599
0.00992315
0.0430523
0.00682513
0.000921744
0.0138669
0.000984224
0.0276806
-0.00355872
0.0181941
0.0172017
0.0269951
0.0406198
0.020458
0.0245607
0.0409408
0.0247276
-0.0210876
0.0404116
0.0271096
0.0315898
0.0165306
0.0522431
0.0429063
0.0748242
0.071426
0.0586404
0.0411594
0.0856751
0.101055
0.0178136
0.0774988
0.121946
-0.0377801
0.0661991
0.0505718
0.0434751
-0.0228622
0.055
-0.0435751
0.0749687
0.077272
0.0263196
-0.0189543
0.0495481
0.0283781
0.0401516
0.00610697
0.0487478
0.0341617
0.0272822
0.0627972
0.0372477
0.0539203
0.0524766
0.0278416
-0.0302172
0.0469258
-0.00350742
0.0586384
0.035414
0.0422003
0.0167516
0.0431164
0.0718601
-0.0144687
0.0354917
-0.011062
0.0299769
0.0141079
0.0067857
0.0102412
0.00451825
0.0136179
0.00291041
0.0171215
-0.0155853
0.0136764
-0.0202479
0.0393072
0.00873696
0.0102066
0.0318279
0.0359323
0.0176651
0.0245192
0.0435173
0.0307888
0.0104222
-0.0101623
0.0381497
0.048334
0.0295344
0.0235649
0.0231336
0.0208083
0.0459928
0.0288637
0.0625692
0.0110685
0.106293
0.0498923
0.0373428
0.0383548
0.0658516
0.00844043
0.0714924
0.0427901
0.0821119
0.00478254
0.0625605
-0.00615829
0.0574334
0.0565975
-0.0120856
0.0495703
0.0451906
0.0301322
0.0256523
0.0528628
0.0727903
0.0563922
0.0636011
0.0559885
-0.00631706
-0.0278951
0.0561574
0.0332851
0.0614688
0.0249061
0.0295347
0.055082
-0.00193865
0.0532382
0.0402826
0.00705911
0.0171937
0.0390049
-0.00134963
0.0356437
0.00392502
0.0368846
0.0720479
0.0278148
0.0422861
0.0240689
0.0274032
0.0119195
0.003315
0.00683468
0.00195757
0.0229144
0.00688578
0.0014619
0.012955
0.00312446
0.0216367
-0.0066959
0.0153368
0.0256813
-0.0216386
0.0330971
0.00796124
0.0251305
0.020442
0.0166632
0.0463078
0.0345506
0.0494801
0.0283445
0.0209512
0.0513675
0.0527693
0.0626093
0.085883
0.0232082
-0.0235391
0.0621354
0.0832664
0.0763518
0.0162299
0.056638
0.0474304
0.0365862
0.0623641
0.0401533
0.046484
0.0490831
0.00102393
0.0720911
-0.0391588
0.0695992
0.0707631
0.0332153
0.0481492
0.00901109
0.0396302
0.0248672
0.0289471
0.0562129
0.0304255
0.0264927
0.0457244
-0.0117502
-0.0160866
0.0462058
0.0396995
0.0388568
0.0496924
0.00407381
0.0532614
0.0435097
-0.00657747
0.0434173
0.0379323
0.0282331
0.0278417
0.0433522
0.00350586
0.0375731
-0.00110632
0.025048
-0.00351912
0.0298793
0.0116323
0.00402365
0.0193997
0.00384707
0.00534304
0.0100041
0.00468785
0.0147259
0.0021917
0.00923295
-0.0172769
0.034204
0.0352035
0.0178444
0.0429577
0.0120333
0.0353815
0.0476207
0.0320967
0.0183189
0.0540314
-0.00906439
0.0613899
0.0446499
-0.0183101
0.0820047
0.0261543
0.0617964
-0.0449338
0.0693083
0.0446714
0.0252323
0.0609717
0.0202253
0.0579672
-0.00324378
0.0616095
0.0743919
0.0645158
0.0224893
0.0403642
0.0629859
-0.0167992
0.0639385
0.0327537
0.0512913
0.048468
0.0240855
0.0522317
0.016712
0.029839
0.041683
0.0607301
0.0371592
0.0493625
0.05606
-0.026267
0.0558723
0.0307638
-0.0273159
0.0544987
0.0507771
0.0549998
-0.0147538
-0.017346
0.0566403
0.0364404
0.00513574
0.0366982
0.00310865
0.0370082
0.0148196
0.0201814
0.0407207
0.0458179
0.0415069
0.0180877
0.0204805
0.0187928
0.00908193
0.00854656
0.00379258
0.00323437
0.00194852
0.0127384
0.00683956
0.00217096
0.0139679
-0.0157989
0.0200911
-0.00487244
0.0158858
0.0193372
0.00834843
0.0280908
-0.00992181
0.0299489
0.0106827
0.0334028
0.000119553
0.0361111
0.0226097
0.0258329
0.0417482
0.0451573
0.00977507
0.0148312
0.0475307
-0.0044005
0.049817
0.037888
0.0674698
-0.00482411
0.0524355
0.0176514
-0.0157069
0.0606588
0.083108
0.0561447
0.0106363
0.0521028
-0.00952954
0.0856663
0.0563415
0.0406284
-0.000231071
0.0475961
0.0382499
0.0260578
-0.0237552
0.0568782
0.0279445
-0.00433587
0.0530562
0.054565
0.0479643
-0.0268363
0.0431288
0.0534745
0.0330961
-0.0297382
0.067601
0.020259
0.0329975
0.0236012
0.0292588
0.0463898
0.027773
0.0273226
-0.00815665
0.0594526
0.0473533
0.0424934
-0.020512
0.0575504
0.0374123
-0.000588895
0.0342727
0.0356933
0.0357493
0.00572209
0.0389515
-0.000880627
0.0400045
0.0169911
0.000869529
0.0169238
0.00254519
0.0243635
0.00788578
0.00330815
0.0131813
-0.00024572
0.00643051
0.0117124
0.0263872
-0.00328012
-0.0112287
0.0281577
0.0287193
0.0399155
0.0188311
0.0200835
0.0344073
0.0122161
0.0247128
0.0388393
0.0359129
0.00650422
0.0414607
0.0464956
0.0318606
0.0163785
0.0370454
0.0134006
-0.0248507
0.0628582
0.00884201
0.0597993
0.0482465
-0.03628
0.0544265
0.0358658
0.0105113
0.0745874
0.0683116
-0.00777815
0.0617176
0.0363146
0.0514348
0.0663737
-0.00597722
0.046836
0.0381478
-0.000305105
0.0478364
-0.0293701
0.0558173
0.0279503
-0.0204552
0.0488168
0.031521
0.0214853
-0.000820321
0.0560572
0.0254561
0.0222796
0.0426643
-0.000138483
0.053233
0.0380405
0.0478186
0.0538776
0.0518925
-0.0251547
0.0550825
0.0217922
-0.0274145
0.0553351
0.0394481
0.0510857
-0.00341225
-0.018094
0.0611285
0.0400293
-0.00108314
0.0361573
0.0252768
0.00495999
0.0185938
0.0119897
0.0124816
0.0189189
0.0363035
0.0369245
0.0183295
0.0137766
0.0203073
0.00139199
0.00781018
0.00107186
0.00266132
0.00180899
0.00826239
0.0135993
0.000352977
0.0127313
0.0043699
0.024548
0.0338874
0.0216832
0.0188896
0.0261236
-0.00541267
-0.00554
0.0267468
0.0235006
0.0116038
0.0490283
0.0460796
0.0294122
0.0124762
0.0359201
0.01136
0.0542479
0.0542709
0.0432832
0.0269647
0.0512175
0.00975636
0.0514785
-0.00310875
0.0364247
0.0183903
-0.0176376
0.0535708
0.013026
0.0643555
0.0623255
-3.47436e-05
0.0628876
-0.0248801
0.0622666
0.0664648
0.0426222
0.0324103
0.0465119
0.0303214
0.0169457
0.0391566
-0.0300565
0.0583706
0.0190327
-0.0160716
0.0478961
0.0469272
0.0401664
-0.0192153
0.0410314
0.0222485
0.0371792
0.0543947
0.0583203
-0.0098889
-0.012415
0.0668775
0.040006
0.0282546
0.0237095
0.0321126
0.000289538
0.0394284
0.0517434
0.0581421
-0.0148807
0.0553014
0.0212205
0.0123437
0.00444132
0.0181865
0.0232856
0.0257
0.0270699
0.0202792
-0.00928796
0.043637
0.0190714
0.0152563
0.0139401
0.00352061
0.0118218
0.0015576
0.0133035
0.00931285
0.00355672
0.00561286
0.0109348
0.0216947
-0.00664962
-0.00228121
0.027529
0.00999851
0.0246055
0.033941
0.0295068
0.0219145
0.0185241
0.0252498
0.0245602
0.0252662
0.0354835
0.0114076
0.0489936
0.0476607
0.0281543
0.0266505
0.0291135
0.0257389
-0.00780495
0.0515133
-0.0250045
0.0524491
0.00730558
0.0445947
-0.0371613
0.0476735
0.0148546
0.0334196
-0.0222274
0.0410248
0.0290914
0.00148685
0.0643869
0.0655404
0.0155019
0.0490148
0.0251463
0.0381184
0.0119645
0.0559282
0.0506435
0.0495904
0.0239768
0.022912
0.0546589
0.038013
0.00135932
0.0378555
0.0207352
0.0587255
0.0377771
0.00990737
0.00696585
0.039384
-0.00195372
0.0424052
0.0472093
-0.0265982
0.047692
0.0527909
0.0438171
0.0577088
0.0642707
0.0569816
-0.0289525
0.0616031
0.0567797
-0.00479622
0.0471826
0.0112518
0.0413715
0.0141892
0.0293848
0.000578942
0.0145801
0.0181415
0.00223044
0.00374859
0.0166631
0.0108707
0.0120915
0.00288013
0.0141702
0.0174602
0.0235443
0.0302586
0.0143618
0.0103977
-0.00475969
0.0166909
0.00121737
0.0023653
0.00391393
0.00430695
0.00666681
0.00336805
0.0246826
0.0284774
-0.00495176
0.0391954
0.0248404
0.025731
-0.00263698
0.0214963
-0.000991567
-0.000216698
0.0261403
0.0366503
-0.00989515
0.0357717
0.0416482
0.00395905
0.0442567
0.056297
-0.0185108
0.0447387
0.0334755
0.0307278
0.0351705
0.00967186
0.0349827
0.0128954
-0.0417127
0.0571688
-0.00799215
0.0333718
-0.021402
0.050913
0.0376021
0.0283882
0.0445048
0.0226976
0.0614167
-0.00151749
0.0513893
-0.0280777
0.0539518
0.0510158
0.0161096
0.0408687
0.0232001
0.0363052
0.0136161
0.0597041
0.0337025
0.05187
0.0394308
-0.0305243
0.0514331
0.0284205
-0.00159834
0.039648
0.0524294
0.0381659
0.0220101
0.0235959
0.0132844
0.0321221
0.0524304
0.0451633
-0.00108358
0.0443885
0.0137017
0.0371354
0.0276141
0.0285404
0.0326981
0.0293183
0.0186772
0.0382601
0.042606
0.052908
0.0596236
0.0168957
0.01008
0.0157428
0.0146992
0.0168363
0.0139628
0.00319962
0.00890574
-0.00177363
0.0096964
0.0107325
0.0347013
0.0151984
0.0118039
0.00863627
0.0022915
0.00784636
0.0144243
0.000548202
0.0014805
0.00452774
2.69689e-05
0.00665271
0.0131668
0.00495963
0.0202423
0.010023
0.0188291
0.0300082
0.0353153
0.0263291
0.020136
-0.0143802
0.0154041
0.0317655
-0.000392693
0.0375928
0.0358896
0.00114057
0.0409174
0.0421353
0.0458788
0.0314888
0.0252802
0.0336637
0.0113808
-0.00627723
0.0400694
-0.0192164
0.0502618
0.058774
0.0447694
-0.0266818
0.0397662
0.0305751
-0.0176002
0.0512189
0.0320261
0.0614192
0.0454871
0.0404742
0.0222144
0.0091122
0.0432741
0.0327564
0.0218212
0.016586
0.0352615
0.00664507
0.035074
0.0187422
0.0412867
0.0527329
0.054381
-0.00239415
-0.00900153
0.0485359
0.0425664
0.0472573
0.0362402
0.00279068
0.0293108
0.0227728
0.00603524
0.0315407
0.0273855
-0.000956205
0.023247
0.0292824
0.0165991
0.0360324
0.0435786
0.0512402
0.0607544
0.0605314
-0.0295015
0.0591527
0.0397378
-0.00138702
-0.0119369
0.0545986
0.0410445
0.0554588
0.00427383
0.022768
0.0137561
-0.00149448
-0.00183636
0.0119867
-0.00292024
0.0171535
-0.000285718
0.0098579
-0.00180345
0.00686776
0.009315
-0.00190379
0.0084287
0.00584099
0.0168241
0.0152515
0.0256935
-0.00159947
0.00934328
0.00545135
0.00855749
0.000715429
0.000615625
0.00151256
0.00261008
0.00315145
-0.000814008
0.00924825
0.0395087
-0.00699789
0.0374979
0.0288972
0.0262333
0.00098792
0.0247217
-0.00305308
0.0169126
-2.69719e-05
-0.00221325
0.0347776
-0.00182105
0.038205
0.0349784
-0.00154745
0.0438102
0.0158365
0.0303437
0.0593801
0.0517795
0.0328772
0.0269184
0.0322516
-0.00166289
0.046369
0.0396974
7.00238e-05
0.0381243
-0.00743581
0.0412829
0.010049
-0.0167384
0.0489566
0.0510257
0.0116258
0.0121221
0.0344805
0.0504588
-0.0232353
0.0462097
0.0113089
0.0324033
0.00168744
0.0314941
0.0389345
0.0426811
0.0481045
-0.00941338
0.0508484
0.0361899
0.0451287
0.0462668
-0.00457078
0.0471491
0.00507941
0.0422133
-5.44038e-05
0.0351404
0.0319316
0.0397264
0.0304461
0.00375046
0.0225364
0.025561
0.01041
0.0173315
0.0480546
-0.0179043
0.061659
0.0335113
0.0319842
0.0288708
0.0313393
0.0294528
0.0298116
0.0448632
0.0533523
-0.00933541
0.0503967
0.0461334
0.0660879
0.0170352
0.00808463
0.0124675
0.00731859
0.00437969
0.00468661
-0.00193655
0.000380998
0.00695053
0.00115223
0.00443074
0.00478721
0.0238535
0.0184919
0.00400238
0.00646932
0.00848833
-0.0013057
0.00071368
0.00300723
0.00514798
0.000157978
0.0118171
-0.000414355
0.00878285
0.0314235
0.0361794
0.0382827
0.0247348
0.0267934
0.0152711
0.0133692
0.00404752
0.0312168
0.0367638
0.0510689
0.0236355
0.0203967
0.0543489
0.0233981
0.0361934
-0.000233007
0.0522769
0.0446867
-0.0116889
-0.012695
0.0397292
0.0343558
0.0379912
0.0338207
0.0382176
0.0339683
0.0548579
0.0374114
0.0283881
0.0469766
0.0158258
0.0356758
0.0468141
0.000840374
0.0491101
-0.00730083
0.0391868
0.0320974
0.0068694
0.0365243
0.00345865
0.0456112
0.0109805
0.0399579
0.0472535
0.052372
-0.00731553
0.00152781
0.0447147
0.0376563
0.0486624
0.0104204
0.0237618
-0.0056243
0.0375031
0.0340513
0.00518864
0.0239275
0.0260696
0.00375314
0.020645
0.0199815
0.0226605
0.0256789
0.0656603
0.0584217
0.0549443
-0.0286607
0.0585774
0.0275655
0.0171738
0.031924
0.0213062
0.0312553
0.0189245
0.0353856
0.0106348
0.0335404
0.0324551
-0.00334448
0.0159631
0.00783912
-0.00413362
-0.00295174
0.0116611
-0.00198965
0.00441956
0.00316841
-0.00265917
-0.00343159
0.00663627
0.00541279
-0.00166271
0.00331319
-0.000674524
0.0156976
0.00607693
0.0115625
0.0173847
0.0040622
-0.000864133
0.0012471
0.00175932
0.00671841
0.00281406
0.0359535
-0.00227365
0.0390557
0.0368402
-0.0117425
0.0373371
0.0160381
-0.0126011
0.0297721
0.00248117
0.0012698
0.0305607
0.0292149
0.00773927
0.0511127
0.0498507
0.0321476
0.0223188
-0.0110805
0.0474743
0.0414041
0.0011844
0.0387865
0.0357636
0.000116794
0.0380825
-0.0118167
0.0458871
0.0394005
-0.00112016
-0.0095187
0.0435153
0.0453967
-0.0252547
0.0627137
-0.0134039
0.0427865
0.0350453
-0.012206
0.0494421
0.0357615
0.0448264
0.0110783
0.0384094
0.00503126
0.0345355
0.0395457
0.0407031
0.0113062
0.0353825
0.00210691
0.0378179
0.0219969
0.0544299
0.0373415
0.0651089
0.0238276
0.0246624
-0.0233889
0.033289
-0.00119164
0.0240131
0.0136432
0.00708042
0.0271946
0.0218471
0.0146342
0.010621
0.00764899
0.0121663
0.0139329
0.0049006
0.034174
0.0331301
0.0519807
0.0135548
0.0375959
0.020758
0.0263928
0.0217775
0.0367423
0.0489467
0.0524173
0.0541374
0.0440711
-0.00792683
0.0402442
0.00951009
0.00478728
-0.000278861
0.0041563
-0.000765188
-0.00230459
-0.00521934
-0.00316714
0.00393918
0.00129012
0.00111545
0.00239677
0.00238262
-0.00151133
0.0016573
-0.00509011
0.0183745
-0.00307409
0.0119482
0.0145906
0.000216765
0.00494366
0.00103344
-0.00298057
0.0120328
0.0022215
0.0119044
0.024472
0.0469704
0.0492861
0.0395662
-0.013471
0.0309395
0.0177691
0.0173056
0.0556475
0.0121844
0.0390048
0.0255847
0.0244656
0.044426
0.0480956
0.0271375
0.0203474
0.00949701
0.0319701
0.00052628
0.0384667
0.0411331
0.0397342
0.0264557
0.0466733
0.0424631
0.0445588
0.000729002
0.0462928
0.016276
0.047539
0.02738
0.0233029
-0.00403502
0.0405426
0.0382915
0.00783905
0.00611074
0.0331138
-0.00871622
0.0436781
0.031256
0.00238128
0.0389591
-0.000101775
0.0360312
0.0597819
0.0412783
0.0129315
0.0609933
0.0225252
0.0424233
0.0470336
0.0151205
0.0179967
0.0116847
0.0120997
0.041103
0.00838646
0.0132079
0.0225435
0.0175049
0.0161906
0.00885973
0.0255213
0.0424412
0.0438678
0.051081
0.0424875
0.0536153
0.00478085
0.0318171
-0.00199845
0.0507479
0.0502278
0.05119
0.00261838
0.00197625
0.0418644
0.0420027
-0.000924522
0.00713862
-0.000147495
-0.00317271
-0.00375592
0.00427315
-0.00247885
-0.0016475
-0.00401046
-0.00342434
-0.00169525
-0.00732182
-0.0109487
0.00322621
-0.00237673
0.00263414
0.0020743
-0.0022903
-0.00583364
-0.00315405
0.0151951
0.00115897
0.00930502
0.00961298
-0.000813061
0.0132169
0.00181353
0.000115216
0.000497867
0.00616558
0.0116288
0.0353467
0.061069
0.00177997
0.0386315
0.027033
0.00464848
0.0234342
-0.00400873
0.0168563
0.00261623
0.0151619
0.0406712
0.0485663
0.0598926
-0.000976816
0.0453768
0.0470959
0.0523204
0.00689766
0.0316394
0.0481138
0.0274053
0.0123103
0.0538917
0.0133373
0.0333088
0.00213121
0.0402455
0.0465912
0.0469128
-0.0281706
0.0443473
0.0259191
0.022563
0.0341121
-0.0121959
0.0364301
0.034823
0.0292982
0.0345606
0.00568477
0.0276252
0.0310496
0.0130451
0.0341232
0.0394429
0.014505
0.0221538
0.0314556
0.0120449
0.0289673
-0.0257079
0.0384881
0.0350671
0.0300101
0.01223
0.00426819
0.0424491
0.0265923
-0.00435947
0.0217292
0.0250602
0.0260172
0.0149899
0.0128257
0.00887801
0.00270036
0.0137115
0.0176537
0.0315687
0.0134014
0.0297472
0.0414471
0.00207297
0.0363631
0.014466
0.00614873
0.0360223
0.0381922
0.0152328
0.0427928
0.0377007
0.0270085
0.0234871
0.0238056
0.0260815
0.0257426
0.0249181
0.0442089
0.00178292
0.0397964
0.00553109
0.000715284
-0.00545352
-0.00218298
-0.00910018
-0.0122623
0.0073058
-0.0182066
-0.00769415
0.000765987
0.00124377
0.00198164
9.17312e-06
0.00137595
-0.00113285
-0.00453332
-0.000176542
-0.0101066
0.0169353
0.00889212
-0.00196594
0.00544962
0.0111296
-0.000760338
0.00152383
0.000239797
0.00691403
0.00203469
0.0100181
0.0508401
0.0295869
0.054241
0.0290084
0.0145329
0.01176
0.0507164
0.0161241
0.0321564
0.0118231
0.0474256
0.0612747
0.0583795
0.0311319
0.021093
0.0449375
0.0154866
0.0327822
0.0524986
0.00995624
0.0437415
-0.00643464
0.0396084
0.00207432
0.0442274
0.0401661
0.00648398
0.040182
0.00393092
0.0377186
0.0249841
0.00981671
0.0170967
0.0200247
0.000277105
0.0350967
-0.00281835
0.0329982
0.00110394
0.0340643
0.0072695
0.0206686
0.0467542
0.0475094
0.0174919
0.0224081
0.0400719
0.0432367
-0.0212296
0.0499333
0.0170323
-8.43464e-05
0.0348419
0.0340648
0.0390346
0.0419748
0.0195488
0.00676504
0.0212107
0.0143422
0.0071849
0.00935303
0.0149903
0.0290202
0.0213517
0.0214252
0.00361973
0.0280046
0.00571325
0.023881
0.0427874
0.0381295
0.0501951
0.0462486
0.0219572
0.0204101
0.0591867
0.047065
0.0513183
-0.0349005
0.0592789
0.00879647
0.0480346
0.00346975
-0.000976555
0.00127573
-0.000821166
-0.0085001
-0.00212222
-0.00376127
0.00105125
-0.014646
-0.00673512
-0.00808166
-0.00764268
-0.0128238
0.00661696
-0.0178297
0.00158193
0.0011438
0.00103726
-0.00295499
0.000180833
-0.00561524
-0.00516875
-0.00743633
0.0125786
0.00199035
0.00661846
0.00561843
-0.00322654
0.00943081
0.000786891
0.00535269
0.0134184
0.036876
-0.0156208
0.0461333
0.0229677
0.0307713
0.0142389
-0.0064165
0.0224676
0.00662799
0.017543
0.0326118
0.0530135
0.0602419
0.0077736
0.0527164
0.0652443
0.0136137
0.0312075
0.0463175
0.0269247
0.0253789
0.0367376
0.0371663
0.0114256
0.028028
0.041996
0.0109792
0.0329415
0.046415
0.0469288
0.039464
0.0326471
0.0273352
-0.00516486
0.0257893
0.0348099
0.0331088
0.0285425
0.0243599
0.0130936
0.0338118
0.014631
0.0334357
0.0374786
0.00635003
0.0341735
0.016622
0.0328354
0.0515792
-0.0108
0.044552
0.0279361
-0.00810126
0.0495008
0.00676795
0.0127083
0.0208
0.0153005
0.00544511
0.0226724
0.0214219
0.0135051
0.016173
0.00838017
0.0120706
0.0130837
0.00653132
0.0159822
0.0118021
0.0216645
0.00450245
0.0189094
0.0459561
-0.00384987
-0.0101093
0.0477821
0.0395375
0.041184
0.00456434
0.0609794
0.0177813
0.0404194
0.0186421
0.0279323
0.0133638
0.0373996
0.0272153
0.0312394
0.00264364
0.0447753
-0.00378731
-0.000751039
-0.00428325
-0.0079196
-0.010723
-0.0110991
-0.0165545
-0.015536
0.00362234
-0.0187994
-0.0227762
0.00213865
0.000328491
0.000538389
0.000788079
-0.000589983
0.00137534
-0.00220803
-0.000426314
-0.00634031
0.00248482
-0.0115328
0.0131215
0.00667432
-0.0027146
-0.00146044
0.00115203
0.00885462
-0.00220856
0.000352592
0.00339882
0.00381345
0.0539953
0.0159441
0.0298802
0.0387557
0.0627738
-0.0143763
0.0298115
0.00908831
0.0115553
0.0569145
0.0162591
0.0426706
-0.00245426
0.0538569
0.040435
0.0229391
0.0424359
0.00847594
0.0377036
0.0361074
-0.0018532
0.0382257
0.00289724
0.034004
-0.00420172
0.0318941
0.00589542
0.0357434
-0.0010572
0.0337281
0.0361737
0.00981485
0.0123064
0.0341743
0.00423505
0.0360118
0.0163688
0.0164296
0.00126313
0.0263843
0.0273259
0.00236011
0.0333044
0.00399974
0.0299187
-0.00272723
0.0322329
0.0132202
0.0109731
0.0466602
0.042192
0.0442418
0.0391072
-0.0218337
0.0381009
0.0446779
0.0292679
0.0359105
0.0461326
0.00492201
0.043863
-0.00808756
0.0206083
0.012655
0.0191291
0.0149095
0.00711955
0.0147017
0.006042
0.0203599
0.0139099
-0.00105268
0.0122622
0.0249799
0.000941354
0.0205252
-0.000171412
0.0187503
0.0479537
0.0431871
0.0564567
0.0309571
0.0284
0.0699342
0.0408367
0.00519113
0.0315507
-0.0143842
0.0408561
0.0357536
0.0295928
0.000443848
-0.00477037
-0.00799607
0.00144258
-0.0133801
0.00423154
-0.018704
-0.0234019
0.00886617
-0.000686957
-0.0176492
-0.00389425
-0.0131273
-0.021417
-0.0209115
-0.0235742
0.000438308
-2.73824e-05
-0.00340476
0.00039746
-0.00499236
-0.00525781
-0.00270586
-0.00991318
0.00830627
0.00308201
0.00366365
-0.00193515
-0.00247802
0.00266729
-0.00344103
0.00421541
2.40051e-05
0.00526045
0.000447338
0.0691323
0.0245374
0.00512486
0.00453517
0.0333829
0.0195901
0.0417048
0.0229738
0.00695553
-0.0093374
0.0197529
0.0033344
0.0531689
0.0807239
0.0751516
0.0113925
0.0306935
0.00359416
0.0338556
0.0339081
0.0408142
0.0294264
0.0429207
0.0417041
0.0344107
0.0114721
0.0218635
0.043591
0.0392336
0.0272677
-0.0112744
0.027952
0.0152566
0.00567468
0.0221529
0.0381371
0.027987
0.0384832
0.0213652
0.0253632
0.00913015
0.0329099
0.0137069
0.0306668
0.00778206
0.0314285
0.00674208
0.030605
0.015075
0.0291372
0.0336971
-0.0177706
0.053001
0.027755
0.0316972
0.011651
0.00825675
0.0123576
-0.00516955
0.0178568
-0.000529273
0.0191643
0.00991217
-0.00679708
0.0138056
0.012856
0.0140728
0.0193138
-0.000986379
0.0136217
0.0103708
0.0256748
0.0199962
0.00917114
0.00892316
0.0210769
0.0259664
-0.00861273
0.0509912
0.046921
0.0795394
-0.00920722
0.0764393
0.0177704
0.0222626
0.0485403
0.00600847
0.0339781
0.0409575
0.0498749
3.35456e-08
-0.00747396
-0.0105263
-0.0123752
-0.0129567
-0.0230434
-0.0168971
-0.0286157
0.00538496
0.0063454
-0.0285148
-0.0300864
0.00378604
0.000398784
-0.000387499
-0.00143502
0.000846003
-0.00188777
-0.00265791
-0.00309409
-0.00868434
0.00291849
-0.0135438
-0.00547482
0.00712969
0.00405039
-0.00159282
-0.00413238
-0.00251621
-0.000582792
-0.00566638
0.00809691
7.72227e-07
0.00981964
0.00274791
0.0219082
0.0448373
0.0284731
0.0279166
0.0517615
0.0614511
-0.0110625
0.0183272
0.00906222
0.0229296
0.0542869
-0.00650392
0.07897
0.0340376
0.00783379
0.0256734
0.0448474
0.0173616
0.0229673
0.0463167
0.0187505
0.0234715
0.0139113
0.0272527
0.0203567
0.0136414
0.0417881
0.0117682
0.0312226
0.00305819
0.0363996
0.00207739
0.0251193
0.0298859
0.0375635
0.0155187
0.0232307
0.0439694
0.0246876
0.0147981
0.0351342
0.0343858
0.0403867
0.038507
0.0346757
0.0397385