/*--------------------------------*- C++ -*----------------------------------*\
| =========                 |                                                 |
| \\      /  F ield         | OpenFOAM: The Open Source CFD Toolbox           |
|  \\    /   O peration     | Version:  v2012                                 |
|   \\  /    A nd           | Website:  www.openfoam.com                      |
|    \\/     M anipulation  |                                                 |
\*---------------------------------------------------------------------------*/
FoamFile
{
    version     2.0;
    format      ascii;
    class       pointVectorField;
    location    "0.89";
    object      pointDisplacement;
}
// * * * * * * * * * * * * * * * * * * * * * * * * * * * * * * * * * * * * * //

dimensions      [0 1 0 0 0 0 0];


internalField   nonuniform List<vector> 
14482
(
(0 0 0)
(0 0 0)
(0 0 0)
(0 0 0)
(0 0 0)
(0 0 0)
(0 0 0)
(0 0 0)
(0 0 0)
(0 0 0)
(0 0 0)
(0 0 0)
(0 0 0)
(0 0 0)
(0 0 0)
(0 0 0)
(0 0 0)
(0 0 0)
(0 0 0)
(0 0 0)
(0 0 0)
(0 0 0)
(0 0 0)
(0 0 0)
(0 0 0)
(0 0 0)
(0 0 0)
(0 0 0)
(0 0 0)
(0 0 0)
(0 0 0)
(0 0 0)
(0 0 0)
(0 0 0)
(0 0 0)
(0 0 0)
(0 0 0)
(0 0 0)
(0 0 0)
(0 0 0)
(0 0 0)
(0 0 0)
(0 0 0)
(0 0 0)
(0 0 0)
(0 0 0)
(0 0 0)
(0 0 0)
(0 0 0)
(0 0 0)
(0 0 0)
(0 0 0)
(0 0 0)
(0 0 0)
(0 0 0)
(0 0 0)
(0 0 0)
(0 0 0)
(0 0 0)
(0 0 0)
(0 0 0)
(0 0 0)
(0 0 0)
(0 0 0)
(0 0 0)
(0 0 0)
(0 0 0)
(0 0 0)
(0 0 0)
(0 0 0)
(0 0 0)
(0 0 0)
(0 0 0)
(0 0 0)
(0 0 0)
(0 0 0)
(0 0 0)
(0 0 0)
(0 0 0)
(0 0 0)
(0 0 0)
(0 0 0)
(0 0 0)
(0.0916503 -0.193456 0)
(0.0918593 -0.193307 0)
(0.0920844 -0.193146 0)
(0.0923268 -0.192973 0)
(0.0925879 -0.192786 0)
(0.0928691 -0.192585 0)
(0.0931719 -0.192369 0)
(0.0934979 -0.192136 0)
(0.093849 -0.191885 0)
(0.0942269 -0.191615 0)
(0.0946337 -0.191324 0)
(0.0950717 -0.191011 0)
(0.0955431 -0.190675 0)
(0.0959583 -0.190211 0)
(0.0963963 -0.189703 0)
(0.0968677 -0.189156 0)
(0.0973194 -0.188525 0)
(0.0977914 -0.187835 0)
(0.0982532 -0.187065 0)
(0.0987249 -0.186222 0)
(0.0991811 -0.185288 0)
(0.0996272 -0.184264 0)
(0.100062 -0.183145 0)
(0.100479 -0.181924 0)
(0.100876 -0.180596 0)
(0.101242 -0.179152 0)
(0.10158 -0.177589 0)
(0.101882 -0.175899 0)
(0.102146 -0.174076 0)
(0.102366 -0.172112 0)
(0.102536 -0.169998 0)
(0.102653 -0.167728 0)
(0.102713 -0.165293 0)
(0.102708 -0.162683 0)
(0.102632 -0.159889 0)
(0.102481 -0.156901 0)
(0.102247 -0.15371 0)
(0.101924 -0.150303 0)
(0.101506 -0.146671 0)
(0.100984 -0.142802 0)
(0.10035 -0.138684 0)
(0.0995969 -0.134305 0)
(0.0987153 -0.129652 0)
(0.097696 -0.124715 0)
(0.0965299 -0.119479 0)
(0.0952074 -0.113934 0)
(0.0937183 -0.108066 0)
(0.0920521 -0.101864 0)
(0.0901989 -0.0953174 0)
(0.0881481 -0.0884143 0)
(0.0858889 -0.0811447 0)
(0.0834116 -0.0734999 0)
(0.0807053 -0.0654709 0)
(0.0777608 -0.0570516 0)
(0.0745687 -0.0482361 0)
(0.0711206 -0.0390207 0)
(0.0674083 -0.0294028 0)
(0.0634262 -0.0193839 0)
(0.0591678 -0.00896442 0)
(0.0546297 0.00185031 0)
(0.0498093 0.0130534 0)
(0.0447062 0.0246352 0)
(0.0393212 0.0365837 0)
(0.0336585 0.0488829 0)
(0.0277229 0.0615161 0)
(0.0215226 0.0744617 0)
(0.0150678 0.0876961 0)
(0.00837032 0.101194 0)
(0.00144581 0.114926 0)
(-0.00568977 0.128862 0)
(-0.0130172 0.142969 0)
(-0.0205158 0.157212 0)
(-0.028163 0.171554 0)
(-0.0359356 0.185958 0)
(-0.043808 0.200386 0)
(-0.0517553 0.214799 0)
(-0.0597508 0.229159 0)
(-0.067769 0.243428 0)
(-0.0757832 0.257569 0)
(-0.0837679 0.271544 0)
(-0.0916984 0.28532 0)
(-0.0995512 0.298866 0)
(-0.107303 0.312149 0)
(-0.114934 0.325141 0)
(-0.122424 0.337819 0)
(-0.129755 0.35016 0)
(-0.136912 0.362143 0)
(-0.14388 0.373753 0)
(-0.150648 0.384976 0)
(-0.157206 0.3958 0)
(-0.163546 0.406219 0)
(-0.16966 0.416228 0)
(-0.175546 0.425822 0)
(-0.181199 0.435004 0)
(-0.186618 0.443774 0)
(-0.191803 0.452136 0)
(-0.196755 0.460097 0)
(-0.201478 0.467664 0)
(-0.205973 0.474846 0)
(-0.210246 0.481652 0)
(-0.214301 0.488094 0)
(-0.218145 0.494184 0)
(-0.221783 0.499935 0)
(-0.225222 0.505357 0)
(-0.228469 0.510466 0)
(-0.231533 0.515275 0)
(-0.234419 0.519795 0)
(-0.237135 0.524043 0)
(-0.23969 0.52803 0)
(-0.24209 0.53177 0)
(-0.244343 0.535274 0)
(-0.246458 0.538557 0)
(-0.248439 0.541629 0)
(-0.250295 0.544504 0)
(-0.252033 0.547191 0)
(-0.253658 0.549702 0)
(-0.255179 0.552048 0)
(-0.256599 0.554238 0)
(-0.257926 0.556281 0)
(-0.259165 0.558187 0)
(-0.260322 0.559964 0)
(-0.2614 0.56162 0)
(-0.262407 0.563164 0)
(-0.263344 0.564602 0)
(-0.264218 0.565941 0)
(-0.265032 0.567188 0)
(-0.265791 0.568349 0)
(-0.266497 0.569429 0)
(-0.267155 0.570434 0)
(-0.267766 0.571368 0)
(-0.268336 0.572238 0)
(-0.268865 0.573046 0)
(-0.269358 0.573798 0)
(-0.269816 0.574497 0)
(-0.270242 0.575146 0)
(-0.270638 0.57575 0)
(-0.271006 0.576311 0)
(-0.271348 0.576832 0)
(-0.271666 0.577316 0)
(-0.271962 0.577767 0)
(-0.272236 0.578184 0)
(-0.272491 0.578572 0)
(-0.272728 0.578934 0)
(-0.272948 0.579268 0)
(-0.273153 0.579579 0)
(-0.273342 0.579868 0)
(-0.273519 0.580136 0)
(-0.273683 0.580385 0)
(-0.273835 0.580616 0)
(-0.273976 0.580831 0)
(-0.274208 0.580721 0)
(-0.274413 0.580624 0)
(-0.274601 0.580535 0)
(-0.274778 0.580451 0)
(-0.274951 0.580369 0)
(-0.275123 0.580287 0)
(-0.2753 0.580203 0)
(-0.275488 0.580114 0)
(-0.275694 0.580017 0)
(-0.275926 0.579907 0)
(-0.275849 0.579662 0)
(-0.275767 0.579398 0)
(-0.275677 0.579113 0)
(-0.275582 0.578807 0)
(-0.275478 0.578477 0)
(-0.275367 0.578122 0)
(-0.275248 0.57774 0)
(-0.275118 0.577328 0)
(-0.27498 0.576885 0)
(-0.27483 0.576408 0)
(-0.274669 0.575894 0)
(-0.274496 0.575341 0)
(-0.274309 0.574746 0)
(-0.274108 0.574106 0)
(-0.273892 0.573417 0)
(-0.273659 0.572676 0)
(-0.273408 0.571879 0)
(-0.273139 0.571022 0)
(-0.272849 0.5701 0)
(-0.272536 0.569108 0)
(-0.272201 0.568043 0)
(-0.271839 0.566898 0)
(-0.271451 0.565667 0)
(-0.271033 0.564345 0)
(-0.270584 0.562925 0)
(-0.270101 0.561401 0)
(-0.269583 0.559765 0)
(-0.269025 0.558008 0)
(-0.268427 0.556124 0)
(-0.267784 0.554104 0)
(-0.267094 0.551938 0)
(-0.266354 0.549617 0)
(-0.265559 0.54713 0)
(-0.264707 0.544468 0)
(-0.263793 0.54162 0)
(-0.262814 0.538573 0)
(-0.261766 0.535316 0)
(-0.260643 0.531837 0)
(-0.259442 0.528121 0)
(-0.258157 0.524158 0)
(-0.256784 0.519932 0)
(-0.255317 0.51543 0)
(-0.25375 0.510637 0)
(-0.25208 0.50554 0)
(-0.250299 0.500124 0)
(-0.248403 0.494375 0)
(-0.246385 0.488279 0)
(-0.24424 0.481822 0)
(-0.241962 0.47499 0)
(-0.239545 0.467771 0)
(-0.236985 0.460154 0)
(-0.234275 0.452126 0)
(-0.23141 0.44368 0)
(-0.228387 0.434804 0)
(-0.2252 0.425495 0)
(-0.221846 0.415747 0)
(-0.218322 0.405557 0)
(-0.214625 0.394926 0)
(-0.210753 0.383855 0)
(-0.206706 0.37235 0)
(-0.202484 0.360419 0)
(-0.198086 0.348073 0)
(-0.193516 0.335327 0)
(-0.188776 0.322198 0)
(-0.18387 0.308709 0)
(-0.178804 0.294883 0)
(-0.173583 0.280749 0)
(-0.168214 0.266336 0)
(-0.162707 0.25168 0)
(-0.157069 0.236817 0)
(-0.151312 0.221787 0)
(-0.145446 0.206629 0)
(-0.139483 0.191386 0)
(-0.133435 0.176103 0)
(-0.127316 0.160824 0)
(-0.121138 0.145594 0)
(-0.114914 0.130455 0)
(-0.10866 0.115453 0)
(-0.102388 0.10063 0)
(-0.0961131 0.0860242 0)
(-0.0898487 0.0716754 0)
(-0.0836086 0.0576193 0)
(-0.0774054 0.0438867 0)
(-0.0712527 0.0305093 0)
(-0.0651623 0.0175116 0)
(-0.0591461 0.00491656 0)
(-0.0532154 -0.00725571 0)
(-0.0473801 -0.0189909 0)
(-0.0416502 -0.0302757 0)
(-0.0360342 -0.0411018 0)
(-0.0305399 -0.0514636 0)
(-0.0251743 -0.0613586 0)
(-0.0199437 -0.0707859 0)
(-0.0148525 -0.0797506 0)
(-0.00990545 -0.0882559 0)
(-0.00510565 -0.0963097 0)
(-0.000455561 -0.103921 0)
(0.00404327 -0.111101 0)
(0.00838985 -0.11786 0)
(0.0125843 -0.124213 0)
(0.0166272 -0.130172 0)
(0.0205195 -0.135753 0)
(0.0242631 -0.14097 0)
(0.0278604 -0.145839 0)
(0.031314 -0.150375 0)
(0.0346267 -0.154594 0)
(0.037802 -0.15851 0)
(0.0408437 -0.162139 0)
(0.0437553 -0.165496 0)
(0.0465407 -0.168595 0)
(0.0492042 -0.171449 0)
(0.0517497 -0.174074 0)
(0.0541813 -0.176481 0)
(0.056503 -0.178683 0)
(0.0587189 -0.180693 0)
(0.060833 -0.182521 0)
(0.0628495 -0.184178 0)
(0.0647716 -0.185675 0)
(0.0666027 -0.187022 0)
(0.068346 -0.188228 0)
(0.0700053 -0.189303 0)
(0.0715836 -0.190253 0)
(0.0730826 -0.19109 0)
(0.0745061 -0.191818 0)
(0.0758546 -0.19245 0)
(0.0771339 -0.192984 0)
(0.078343 -0.193434 0)
(0.0794842 -0.193807 0)
(0.0805592 -0.19411 0)
(0.0815707 -0.194348 0)
(0.0825221 -0.194518 0)
(0.0834107 -0.194648 0)
(0.0842433 -0.19472 0)
(0.0850177 -0.19477 0)
(0.0857395 -0.194751 0)
(0.0864103 -0.194734 0)
(0.0870319 -0.194707 0)
(0.0875911 -0.194555 0)
(0.0881107 -0.194415 0)
(0.0885934 -0.194284 0)
(0.0890418 -0.194163 0)
(0.0894582 -0.19405 0)
(0.089845 -0.193945 0)
(0.0902042 -0.193848 0)
(0.0905378 -0.193758 0)
(0.0908476 -0.193674 0)
(0.0911352 -0.193596 0)
(0.0914023 -0.193523 0)
(-0.0951217 0.227145 0)
(-0.110588 0.256893 0)
(-0.10904 0.250906 0)
(-0.130355 0.284202 0)
(-0.116933 0.259505 0)
(-0.114217 0.257489 0)
(-0.159054 0.318079 0)
(-0.154922 0.313159 0)
(-0.168157 0.333962 0)
(-0.0665895 0.164753 0)
(-0.0535367 0.142533 0)
(-0.0665422 0.167686 0)
(-0.0713956 0.214672 0)
(-0.0636045 0.204406 0)
(-0.0836202 0.241316 0)
(-0.0629567 0.166982 0)
(-0.0524419 0.151356 0)
(-0.0682546 0.179615 0)
(-0.202412 0.415695 0)
(-0.201757 0.4169 0)
(-0.214326 0.435595 0)
(-0.181913 0.380258 0)
(-0.175408 0.372553 0)
(-0.191175 0.396615 0)
(-0.210724 0.408621 0)
(-0.226822 0.433765 0)
(-0.219965 0.420452 0)
(-0.113272 0.242122 0)
(-0.121777 0.257624 0)
(-0.120324 0.253596 0)
(-0.0403267 0.120431 0)
(-0.0327832 0.110982 0)
(-0.0483898 0.139278 0)
(-0.0519698 0.178835 0)
(-0.0493993 0.179776 0)
(-0.131886 0.321139 0)
(-0.122691 0.3016 0)
(-0.110783 0.28393 0)
(-0.0346218 0.125619 0)
(-0.0184659 0.0954518 0)
(-0.0274124 0.115978 0)
(-0.221839 0.449278 0)
(-0.234578 0.468801 0)
(-0.228284 0.457204 0)
(-0.218286 0.431384 0)
(-0.230654 0.451764 0)
(-0.226777 0.443218 0)
(-0.160747 0.332476 0)
(-0.163816 0.33474 0)
(-0.150291 0.312798 0)
(-0.101633 0.210283 0)
(-0.103459 0.212456 0)
(-0.0972273 0.201762 0)
(-0.0390769 0.101689 0)
(-0.0488887 0.121551 0)
(-0.0460642 0.113258 0)
(-0.0573527 0.136191 0)
(-0.0244947 0.0768808 0)
(-0.0193885 0.0639862 0)
(-0.0171868 0.0623816 0)
(-0.00606469 0.0923231 0)
(-0.0131217 0.102978 0)
(-0.00135978 0.0770757 0)
(-0.0423108 0.179728 0)
(-0.0528688 0.198105 0)
(-0.0406609 0.171817 0)
(-0.162393 0.386048 0)
(-0.171591 0.398867 0)
(-0.159708 0.378355 0)
(-0.00471092 0.0410901 0)
(0.00330294 0.0264141 0)
(-0.00491343 0.045887 0)
(0.0340813 -0.0120438 0)
(0.0347041 -0.00795333 0)
(0.0283944 0.00301676 0)
(-0.260483 0.514183 0)
(-0.254862 0.507097 0)
(-0.261465 0.517285 0)
(-0.280001 0.547425 0)
(-0.283611 0.554918 0)
(-0.281306 0.549632 0)
(-0.269893 0.513597 0)
(-0.267922 0.5131 0)
(-0.276822 0.526243 0)
(-0.300452 0.560006 0)
(-0.295986 0.555059 0)
(-0.301939 0.565622 0)
(-0.262569 0.487626 0)
(-0.265893 0.495239 0)
(-0.270936 0.501351 0)
(-0.213603 0.390447 0)
(-0.209895 0.38762 0)
(-0.21907 0.40115 0)
(-0.195366 0.370727 0)
(-0.195165 0.367215 0)
(-0.18792 0.357737 0)
(-0.131309 0.265436 0)
(-0.125369 0.256748 0)
(-0.13484 0.272514 0)
(-0.0670963 0.153438 0)
(-0.0787833 0.17418 0)
(-0.0675187 0.152215 0)
(-0.0253916 0.0666391 0)
(-0.0320404 0.080902 0)
(-0.0278934 0.0707218 0)
(-0.0134011 0.0469484 0)
(-0.0184963 0.0570724 0)
(-0.0142727 0.046 0)
(0.00107319 0.0147936 0)
(-0.00397397 0.0249647 0)
(-0.00127317 0.0147436 0)
(-0.00582229 0.103455 0)
(0.0104648 0.072802 0)
(-0.00292274 0.104276 0)
(-0.126833 0.330637 0)
(-0.111652 0.303692 0)
(-0.118257 0.318292 0)
(-0.0189632 0.136006 0)
(-0.0321308 0.16571 0)
(-0.0334339 0.164698 0)
(-0.145601 0.356352 0)
(-0.125442 0.322481 0)
(-0.135468 0.342643 0)
(-0.205515 0.44549 0)
(-0.213421 0.460131 0)
(-0.219122 0.467236 0)
(0.0483786 -0.0592896 0)
(0.0441211 -0.0560118 0)
(0.0501863 -0.0661486 0)
(0.0652981 -0.072866 0)
(0.066493 -0.0673523 0)
(0.0609382 -0.0577094 0)
(-0.248442 0.505324 0)
(-0.249529 0.510546 0)
(-0.254402 0.515326 0)
(-0.223376 0.475356 0)
(-0.218996 0.47148 0)
(-0.292099 0.566105 0)
(-0.295956 0.576531 0)
(-0.295987 0.572222 0)
(-0.313723 0.582559 0)
(-0.30948 0.581704 0)
(-0.313082 0.585346 0)
(-0.254888 0.469489 0)
(-0.258495 0.478402 0)
(-0.26298 0.483108 0)
(-0.221328 0.409745 0)
(-0.232133 0.427549 0)
(-0.226365 0.414786 0)
(-0.169127 0.308877 0)
(-0.166541 0.299993 0)
(-0.156488 0.286369 0)
(-0.122624 0.244541 0)
(-0.119606 0.240577 0)
(-0.125692 0.250786 0)
(-0.0845668 0.178511 0)
(-0.0849476 0.178384 0)
(-0.0815523 0.172484 0)
(-0.0574071 0.128861 0)
(-0.0527933 0.120885 0)
(-0.0607697 0.136592 0)
(-0.0683178 0.151811 0)
(-0.0596487 0.135888 0)
(-0.0306773 0.081338 0)
(-0.0368931 0.0951595 0)
(-0.0373005 0.0937389 0)
(-0.00990841 0.0259045 0)
(-0.0109115 0.0311771 0)
(-0.0112172 0.0308198 0)
(-0.0299905 0.0780672 0)
(0.0104394 0.0785885 0)
(-0.001601 0.106706 0)
(0.0355728 0.0256369 0)
(0.0241617 0.0510998 0)
(0.0335002 0.024575 0)
(-0.113169 0.316205 0)
(-0.114481 0.316256 0)
(-0.103474 0.297573 0)
(-0.0712825 0.246549 0)
(-0.0622249 0.23025 0)
(-0.0683297 0.242206 0)
(-0.132283 0.343127 0)
(-0.20805 0.456491 0)
(-0.206258 0.45685 0)
(-0.212722 0.467153 0)
(0.0771945 -0.116155 0)
(0.0735005 -0.114559 0)
(0.0776728 -0.123773 0)
(0.0601518 -0.0709127 0)
(0.0626033 -0.0810667 0)
(0.0654956 -0.0811415 0)
(0.0749384 -0.104607 0)
(0.0798064 -0.111005 0)
(0.0763432 -0.0995532 0)
(-0.249213 0.523987 0)
(-0.253753 0.529881 0)
(-0.248938 0.518804 0)
(-0.267243 0.532551 0)
(-0.265389 0.533167 0)
(-0.268782 0.537857 0)
(-0.236091 0.509251 0)
(-0.236591 0.501051 0)
(-0.240062 0.510409 0)
(-0.266425 0.522286 0)
(-0.274546 0.536052 0)
(-0.271008 0.528837 0)
(-0.28696 0.588257 0)
(-0.285637 0.586783 0)
(-0.285568 0.587426 0)
(-0.311939 0.577387 0)
(-0.313623 0.575255 0)
(-0.309603 0.571575 0)
(-0.287425 0.517014 0)
(-0.284379 0.50746 0)
(-0.280036 0.503582 0)
(-0.242179 0.424113 0)
(-0.248352 0.438185 0)
(-0.250015 0.43843 0)
(-0.2147 0.389396 0)
(-0.219645 0.394878 0)
(-0.209751 0.378651 0)
(-0.225289 0.410004 0)
(-0.220306 0.400034 0)
(-0.170288 0.314519 0)
(-0.179038 0.327264 0)
(-0.129808 0.245075 0)
(-0.120934 0.230879 0)
(-0.125979 0.241133 0)
(-0.0807941 0.17033 0)
(-0.0773503 0.164565 0)
(-0.045425 0.107116 0)
(-0.0437914 0.101826 0)
(-0.076905 0.165068 0)
(-0.0707139 0.152922 0)
(-0.0727612 0.158017 0)
(-0.0226907 0.0584928 0)
(-0.0182996 0.0483018 0)
(-0.0198152 0.0532789 0)
(-0.00544351 0.0243746 0)
(-0.0093471 0.025963 0)
(-0.0154291 0.0419178 0)
(-0.0124642 0.0332806 0)
(-0.0122089 0.0332393 0)
(0.0150738 -0.032892 0)
(0.0126787 -0.0339133 0)
(0.0195692 -0.0414147 0)
(0.0215528 0.0623118 0)
(0.00968666 0.0855353 0)
(0.0107435 0.0880261 0)
(0.0203597 0.0684532 0)
(0.0697159 -0.0534692 0)
(0.0650534 -0.0480124 0)
(0.0728445 -0.0691068 0)
(-0.121322 0.330902 0)
(-0.116735 0.324058 0)
(-0.121492 0.332773 0)
(-0.12347 0.330502 0)
(-0.0924134 0.283936 0)
(-0.0850425 0.270063 0)
(-0.0847922 0.270877 0)
(-0.0562151 0.219919 0)
(-0.0536457 0.214215 0)
(-0.146595 0.369739 0)
(-0.154304 0.38383 0)
(-0.151775 0.376641 0)
(-0.174175 0.418832 0)
(-0.167896 0.408915 0)
(-0.171793 0.416463 0)
(-0.201029 0.45282 0)
(-0.210487 0.467459 0)
(-0.211454 0.474159 0)
(-0.219252 0.484029 0)
(-0.218985 0.480828 0)
(0.0228534 -0.0364859 0)
(0.0196177 -0.0268918 0)
(0.01805 -0.0297572 0)
(0.0566591 -0.0855892 0)
(0.0581393 -0.095151 0)
(0.0637534 -0.101297 0)
(0.0627554 -0.0919712 0)
(0.0657366 -0.0920686 0)
(0.061703 -0.0845988 0)
(0.0698436 -0.0929635 0)
(0.0669546 -0.0895265 0)
(0.0701521 -0.0989836 0)
(-0.242231 0.506642 0)
(-0.237264 0.495381 0)
(-0.232413 0.497248 0)
(-0.265557 0.544563 0)
(-0.26171 0.540544 0)
(-0.262759 0.545508 0)
(-0.266801 0.537951 0)
(-0.236886 0.51415 0)
(-0.241584 0.518344 0)
(-0.283291 0.576821 0)
(-0.28531 0.569371 0)
(-0.283175 0.575627 0)
(-0.283606 0.586042 0)
(-0.285132 0.587299 0)
(-0.287301 0.588237 0)
(-0.286477 0.588027 0)
(-0.307027 0.564887 0)
(-0.304884 0.566161 0)
(-0.287018 0.527525 0)
(-0.293494 0.538613 0)
(-0.292075 0.532861 0)
(-0.284496 0.500773 0)
(-0.27765 0.488307 0)
(-0.28724 0.501817 0)
(-0.261349 0.461845 0)
(-0.256548 0.448719 0)
(-0.254822 0.450094 0)
(-0.189886 0.33915 0)
(-0.193762 0.34183 0)
(-0.185694 0.327894 0)
(-0.132542 0.245813 0)
(-0.121094 0.228454 0)
(-0.147442 0.262179 0)
(-0.146261 0.263537 0)
(-0.156922 0.280605 0)
(-0.0862286 0.174686 0)
(-0.0850008 0.173332 0)
(-0.0895848 0.18128 0)
(-0.0999864 0.197969 0)
(-0.103998 0.203951 0)
(-0.0983518 0.194037 0)
(-0.0675724 0.144083 0)
(-0.0688276 0.147158 0)
(-0.0713117 0.151418 0)
(-0.0461226 0.110674 0)
(-0.0387714 0.0944424 0)
(-0.0495824 0.112302 0)
(-0.0587932 0.130301 0)
(-0.0512319 0.11413 0)
(-0.0421312 0.0953434 0)
(-0.0397334 0.0916893 0)
(-0.0215486 0.0540755 0)
(-0.0270233 0.067333 0)
(-0.0262192 0.0642281 0)
(-0.0134415 0.019705 0)
(-0.010175 0.0169805 0)
(-0.0121612 0.0201671 0)
(-0.0131448 0.0370739 0)
(-0.0165479 0.0469577 0)
(-0.00760326 0.0195599 0)
(-0.00922197 0.0207473 0)
(-0.0089301 0.0179699 0)
(-0.0150338 0.0394764 0)
(-0.0187589 0.0484289 0)
(-0.0163322 0.0417486 0)
(-0.00758463 0.00100585 0)
(-0.00646119 0.00358657 0)
(-0.0141356 0.0121887 0)
(-0.0311592 0.174719 0)
(-0.0234379 0.160142 0)
(-0.0289506 0.171182 0)
(-0.00424995 0.121759 0)
(0.00590442 0.100842 0)
(0.000902975 0.112624 0)
(0.0525569 -0.0110552 0)
(0.0615559 -0.0332894 0)
(0.0574034 -0.0179164 0)
(-0.124378 0.338606 0)
(-0.131548 0.350433 0)
(-0.127422 0.342352 0)
(-0.0948022 0.284292 0)
(-0.0986457 0.292939 0)
(-0.104891 0.302657 0)
(-0.0667518 0.235753 0)
(-0.057824 0.217803 0)
(-0.0570374 0.218929 0)
(-0.0523902 0.213726 0)
(-0.0494843 0.207244 0)
(-0.162814 0.401087 0)
(-0.158738 0.395496 0)
(-0.16566 0.40678 0)
(-0.151076 0.380521 0)
(-0.152129 0.383982 0)
(-0.157123 0.391064 0)
(-0.162467 0.39857 0)
(-0.176864 0.42128 0)
(-0.179722 0.427766 0)
(-0.198827 0.456864 0)
(-0.204616 0.465211 0)
(-0.200893 0.457666 0)
(-0.201194 0.461813 0)
(-0.20524 0.468097 0)
(-0.211071 0.476427 0)
(-0.211053 0.478148 0)
(-0.214137 0.483361 0)
(-0.22155 0.493149 0)
(-0.218344 0.490002 0)
(-0.00956333 -0.016827 0)
(-0.000218972 -0.0293911 0)
(-0.00761206 -0.0155347 0)
(0.0347183 -0.0959014 0)
(0.0337096 -0.0985708 0)
(0.0405902 -0.105989 0)
(0.0691869 -0.128318 0)
(0.0630528 -0.12124 0)
(0.0645637 -0.127317 0)
(0.0915211 -0.132168 0)
(0.0946305 -0.137252 0)
(0.0919664 -0.127105 0)
(-0.247329 0.534387 0)
(-0.246331 0.534104 0)
(-0.248352 0.536769 0)
(-0.280476 0.56001 0)
(-0.280888 0.561797 0)
(-0.28138 0.560021 0)
(-0.224169 0.498121 0)
(-0.225034 0.499775 0)
(-0.282269 0.584493 0)
(-0.280701 0.584633 0)
(-0.281848 0.585269 0)
(-0.279523 0.582395 0)
(-0.279975 0.583977 0)
(-0.28087 0.583632 0)
(-0.289685 0.588832 0)
(-0.289036 0.588329 0)
(-0.291744 0.589192 0)
(-0.284361 0.584678 0)
(-0.283588 0.582015 0)
(-0.283593 0.585075 0)
(-0.316652 0.596501 0)
(-0.323742 0.598806 0)
(-0.320855 0.597766 0)
(-0.328806 0.598412 0)
(-0.332735 0.598513 0)
(-0.329979 0.597022 0)
(-0.284896 0.494862 0)
(-0.281726 0.486586 0)
(-0.276269 0.475636 0)
(-0.228823 0.389944 0)
(-0.218298 0.365822 0)
(-0.217066 0.368197 0)
(-0.149019 0.261431 0)
(-0.163174 0.28504 0)
(-0.15123 0.261409 0)
(-0.136002 0.229817 0)
(-0.12323 0.209113 0)
(-0.132857 0.2276 0)
(-0.133443 0.24269 0)
(-0.122764 0.22612 0)
(-0.0719182 0.145589 0)
(-0.074413 0.151167 0)
(-0.0760437 0.153401 0)
(-0.072593 0.148674 0)
(-0.0699033 0.142789 0)
(-0.067969 0.139988 0)
(-0.0315159 0.0763563 0)
(-0.0358191 0.0845985 0)
(-0.0287789 0.0689752 0)
(-0.0318934 0.0747509 0)
(-0.0341608 0.0785625 0)
(-0.0274421 0.0639293 0)
(-0.0453154 0.100841 0)
(-0.0251736 0.0598235 0)
(-0.00961909 0.014224 0)
(-0.00520949 0.00859415 0)
(-0.00708905 0.013618 0)
(-0.0102811 0.0190524 0)
(-0.0133074 0.0221891 0)
(-0.0106702 0.0206595 0)
(-0.0077 0.0187208 0)
(-0.0079972 0.0178401 0)
(-0.00901899 0.0222257 0)
(-0.00937467 0.0192199 0)
(-0.00836999 0.0166348 0)
(-0.00742526 0.0188126 0)
(-0.00871375 0.0221767 0)
(-0.00906869 0.0236751 0)
(-0.0549053 0.0726295 0)
(-0.0667811 0.0927295 0)
(-0.062449 0.0824141 0)
(-0.0166761 0.14775 0)
(-0.0143241 0.142092 0)
(-0.0141611 0.143492 0)
(-0.0212039 0.156835 0)
(0.00506651 0.105346 0)
(0.0128411 0.089692 0)
(0.0086962 0.0989738 0)
(0.000505344 0.115213 0)
(0.0683273 -0.0382495 0)
(0.0668661 -0.031033 0)
(0.0620689 -0.0202072 0)
(0.0454529 0.0216532 0)
(0.0425989 0.0275715 0)
(0.0503813 0.00920041 0)
(-0.08848 0.270692 0)
(-0.0823919 0.261971 0)
(-0.0941001 0.285928 0)
(-0.0455043 0.200635 0)
(-0.146404 0.373492 0)
(-0.13965 0.361213 0)
(-0.14169 0.366261 0)
(-0.180837 0.425784 0)
(-0.17253 0.412052 0)
(-0.210431 0.476245 0)
(-0.212695 0.482353 0)
(-0.194153 0.445763 0)
(-0.189007 0.439902 0)
(-0.195587 0.450356 0)
(-0.220879 0.489031 0)
(-0.0848883 0.120099 0)
(-0.0952414 0.135773 0)
(-0.0786678 0.106336 0)
(0.0359692 -0.0932799 0)
(0.0326457 -0.0836001 0)
(0.0258115 -0.078068 0)
(0.0500059 -0.128134 0)
(0.0573146 -0.138321 0)
(0.0565569 -0.133711 0)
(0.0811086 -0.137683 0)
(0.0831724 -0.145184 0)
(0.0860451 -0.144777 0)
(0.0856404 -0.0819821 0)
(0.0848538 -0.0823159 0)
(0.0891105 -0.0949141 0)
(0.0953305 -0.132633 0)
(0.0977217 -0.142218 0)
(-0.24076 0.522082 0)
(-0.246481 0.530137 0)
(-0.247259 0.526595 0)
(-0.251011 0.533444 0)
(-0.249276 0.531218 0)
(-0.251522 0.53676 0)
(-0.268872 0.55716 0)
(-0.269403 0.558811 0)
(-0.271007 0.560641 0)
(-0.263971 0.556972 0)
(-0.264896 0.555255 0)
(-0.263159 0.555048 0)
(-0.275368 0.564561 0)
(-0.27631 0.56455 0)
(-0.276548 0.562066 0)
(-0.278218 0.561708 0)
(-0.279744 0.561958 0)
(-0.279508 0.559834 0)
(-0.279946 0.579654 0)
(-0.280745 0.579795 0)
(-0.281719 0.578058 0)
(-0.287884 0.587549 0)
(-0.290936 0.588641 0)
(-0.311498 0.594757 0)
(-0.315376 0.595371 0)
(-0.309824 0.594006 0)
(-0.302629 0.591907 0)
(-0.302346 0.592066 0)
(-0.297751 0.59069 0)
(-0.33611 0.587331 0)
(-0.330809 0.578378 0)
(-0.332395 0.582094 0)
(-0.320255 0.58752 0)
(-0.316502 0.586518 0)
(-0.318683 0.589473 0)
(-0.304039 0.545699 0)
(-0.309092 0.552198 0)
(-0.305392 0.54358 0)
(-0.266134 0.457543 0)
(-0.260642 0.444463 0)
(-0.274593 0.472434 0)
(-0.290655 0.509879 0)
(-0.283826 0.495254 0)
(-0.205761 0.324348 0)
(-0.195179 0.301603 0)
(-0.185547 0.280415 0)
(-0.162514 0.251154 0)
(-0.171955 0.273957 0)
(-0.180087 0.286503 0)
(-0.162576 0.278773 0)
(-0.175836 0.300532 0)
(-0.164389 0.277981 0)
(-0.0874575 0.164407 0)
(-0.101201 0.190776 0)
(-0.0976397 0.181389 0)
(-0.101276 0.182083 0)
(-0.113268 0.204292 0)
(-0.11572 0.205286 0)
(-0.0941535 0.180961 0)
(-0.09867 0.191445 0)
(-0.102523 0.195945 0)
(-0.0490557 0.103315 0)
(-0.0492403 0.103001 0)
(-0.0454215 0.0955925 0)
(-0.0839347 0.162657 0)
(-0.0788745 0.151944 0)
(-0.0743759 0.145072 0)
(-0.0540843 0.114349 0)
(-0.0509069 0.108485 0)
(-0.0538994 0.114732 0)
(-0.0489115 0.106199 0)
(-0.044692 0.0970487 0)
(-0.0427608 0.0934515 0)
(-0.0352907 0.080219 0)
(-0.0389672 0.0877176 0)
(-0.0333298 0.0753128 0)
(-0.029199 0.0651403 0)
(-0.0333858 0.0738823 0)
(-0.0294103 0.065266 0)
(-0.0181062 0.0423477 0)
(-0.0215747 0.0508321 0)
(-0.0231949 0.0538747 0)
(-0.0171075 0.0426989 0)
(-0.0124146 0.0308995 0)
(-0.0129278 0.0328098 0)
(-0.0245949 0.0360119 0)
(-0.025906 0.0371931 0)
(-0.0216636 0.0318159 0)
(-0.0162858 0.0251431 0)
(-0.0177145 0.0269194 0)
(-0.0207495 0.0301389 0)
(-0.00716314 0.0185556 0)
(-0.00554392 0.0139718 0)
(-0.00896071 0.0162707 0)
(-0.00950274 0.021501 0)
(-0.00980417 0.0258472 0)
(-0.00787185 0.0205607 0)
(-0.00900073 0.0227928 0)
(-0.0591212 0.0863578 0)
(-0.0692385 0.101766 0)
(-0.0571188 0.0815351 0)
(-0.0112528 0.134217 0)
(-0.00249701 0.120461 0)
(0.024638 0.0667495 0)
(0.0253139 0.0644932 0)
(0.029854 0.0552901 0)
(0.0613354 -0.0148275 0)
(0.0632968 -0.0192942 0)
(0.0588577 -0.00851589 0)
(0.0776253 -0.0565339 0)
(0.0813961 -0.067481 0)
(0.0801665 -0.0635567 0)
(0.0336305 0.0420746 0)
(0.0409761 0.0265923 0)
(0.032887 0.0468192 0)
(-0.129355 0.343371 0)
(-0.135078 0.354973 0)
(-0.0366558 0.18536 0)
(-0.183919 0.435489 0)
(-0.188014 0.440838 0)
(-0.183344 0.432357 0)
(-0.0580359 0.0662168 0)
(-0.0550418 0.0585258 0)
(-0.0433348 0.0412702 0)
(-0.0308017 0.00440087 0)
(-0.0437686 0.0233761 0)
(-0.0259203 -0.00770132 0)
(0.042613 -0.105523 0)
(0.0678818 -0.157239 0)
(0.0643505 -0.155962 0)
(0.0710336 -0.163847 0)
(0.0845649 -0.136791 0)
(0.0808965 -0.131351 0)
(0.0930339 -0.103718 0)
(0.0924309 -0.10172 0)
(0.0949732 -0.11125 0)
(0.100533 -0.133297 0)
(0.0987615 -0.125988 0)
(0.100392 -0.13343 0)
(-0.246108 0.533596 0)
(-0.246042 0.531824 0)
(-0.257824 0.547212 0)
(-0.253979 0.543689 0)
(-0.254745 0.545188 0)
(-0.26827 0.554387 0)
(-0.264639 0.553526 0)
(-0.268482 0.556105 0)
(-0.265607 0.560355 0)
(-0.266019 0.5595 0)
(-0.263679 0.558148 0)
(-0.27704 0.564714 0)
(-0.238831 0.520874 0)
(-0.23893 0.522709 0)
(-0.241304 0.523797 0)
(-0.280333 0.578439 0)
(-0.281559 0.577606 0)
(-0.288201 0.588282 0)
(-0.333543 0.596656 0)
(-0.333037 0.597298 0)
(-0.328617 0.595243 0)
(-0.305065 0.592287 0)
(-0.302024 0.592015 0)
(-0.305458 0.593035 0)
(-0.339658 0.594771 0)
(-0.338404 0.592923 0)
(-0.341291 0.596254 0)
(-0.341437 0.607821 0)
(-0.338672 0.607073 0)
(-0.33969 0.607344 0)
(-0.344806 0.609601 0)
(-0.337592 0.605718 0)
(-0.346182 0.610726 0)
(-0.314341 0.552373 0)
(-0.319492 0.559595 0)
(-0.319496 0.563206 0)
(-0.316421 0.554405 0)
(-0.316417 0.554797 0)
(-0.310716 0.544514 0)
(-0.252383 0.431659 0)
(-0.25976 0.440461 0)
(-0.247166 0.415117 0)
(-0.248164 0.415665 0)
(-0.179655 0.272733 0)
(-0.194225 0.303677 0)
(-0.184642 0.282018 0)
(-0.193403 0.321365 0)
(-0.17908 0.292221 0)
(-0.184181 0.306937 0)
(-0.105965 0.115396 0)
(-0.0948248 0.0958108 0)
(-0.111157 0.128454 0)
(-0.11988 0.196195 0)
(-0.132474 0.219503 0)
(-0.127299 0.20731 0)
(-0.126059 0.202053 0)
(-0.116349 0.186683 0)
(-0.102235 0.186881 0)
(-0.0873628 0.158724 0)
(-0.0849755 0.157174 0)
(-0.0994395 0.168369 0)
(-0.111115 0.189556 0)
(-0.109202 0.183025 0)
(-0.115554 0.201943 0)
(-0.103022 0.180699 0)
(-0.0991245 0.176031 0)
(-0.0588268 0.118176 0)
(-0.0558274 0.113147 0)
(-0.0601735 0.121745 0)
(-0.0644971 0.131194 0)
(-0.0620929 0.127251 0)
(-0.067006 0.136564 0)
(-0.0702998 0.135826 0)
(-0.077432 0.147527 0)
(-0.0656773 0.12553 0)
(-0.0451729 0.0965157 0)
(-0.0470059 0.09977 0)
(-0.0431925 0.0920812 0)
(-0.0425652 0.0915442 0)
(-0.0382782 0.0827853 0)
(-0.0417966 0.0903701 0)
(-0.0357211 0.0793956 0)
(-0.0281159 0.0643905 0)
(-0.0197461 0.0455522 0)
(-0.03152 0.0707374 0)
(-0.0379229 0.084769 0)
(-0.0221439 0.0539926 0)
(-0.0092791 0.0225435 0)
(-0.00950659 0.0234242 0)
(-0.0134527 0.0328339 0)
(-0.0153485 0.0238962 0)
(-0.0123823 0.0195503 0)
(-0.0162136 0.0246564 0)
(-0.0548345 0.0810261 0)
(-0.0654009 0.0981293 0)
(-0.00556175 0.0144232 0)
(-0.00480116 0.010404 0)
(-0.00656129 0.0136765 0)
(-0.00624023 0.0138995 0)
(-0.00488478 0.00860298 0)
(-0.00698499 0.0118051 0)
(-0.00712921 0.0127117 0)
(-0.00520516 0.0135215 0)
(-0.00817761 0.0212132 0)
(-0.00980055 0.0251431 0)
(-0.00642894 0.0164901 0)
(-0.108527 0.16205 0)
(-0.096954 0.1423 0)
(-0.105578 0.160601 0)
(-0.0472189 0.0622953 0)
(-0.059439 0.0829854 0)
(0.0207696 0.0746493 0)
(0.0146345 0.0873995 0)
(0.0185175 0.0785211 0)
(0.071217 -0.0392542 0)
(0.0719706 -0.0415007 0)
(0.0747152 -0.0487234 0)
(0.0637603 -0.0215202 0)
(0.0586904 -0.00907976 0)
(0.0787974 -0.0605858 0)
(0.0445863 0.0218693 0)
(0.0499053 0.0117578 0)
(0.0538638 0.00289397 0)
(0.0493395 0.0136709 0)
(-0.0755743 0.105824 0)
(-0.0732452 0.0993477 0)
(-0.0434284 0.0366296 0)
(-0.0350579 0.0248525 0)
(-0.0341203 0.00318793 0)
(-0.0249234 -0.0157337 0)
(-0.0206744 -0.0196398 0)
(0.033721 -0.119804 0)
(0.0236722 -0.104155 0)
(0.0226981 -0.10576 0)
(0.0912777 -0.177659 0)
(0.0958698 -0.179927 0)
(0.0926249 -0.175773 0)
(0.104026 -0.14991 0)
(0.104723 -0.153572 0)
(0.103779 -0.14941 0)
(0.0837096 -0.0738366 0)
(0.0876311 -0.0859814 0)
(0.0858502 -0.0801346 0)
(0.088307 -0.0878046 0)
(0.0862958 -0.0816467 0)
(0.106592 -0.165028 0)
(0.105658 -0.160423 0)
(0.106221 -0.165229 0)
(-0.241549 0.52708 0)
(-0.253678 0.544225 0)
(-0.253934 0.545276 0)
(-0.269807 0.564931 0)
(-0.271606 0.564871 0)
(-0.269884 0.563745 0)
(-0.263234 0.553093 0)
(-0.275133 0.564531 0)
(-0.27423 0.565867 0)
(-0.275053 0.56627 0)
(-0.282939 0.554281 0)
(-0.281659 0.552653 0)
(-0.282319 0.553719 0)
(-0.242696 0.526557 0)
(-0.285275 0.56863 0)
(-0.283108 0.5744 0)
(-0.283156 0.574871 0)
(-0.326837 0.599998 0)
(-0.323928 0.598452 0)
(-0.33238 0.603368 0)
(-0.333824 0.59223 0)
(-0.336364 0.593917 0)
(-0.324239 0.588408 0)
(-0.341883 0.597067 0)
(-0.341096 0.59697 0)
(-0.339302 0.595011 0)
(-0.343548 0.609181 0)
(-0.343544 0.609544 0)
(-0.344964 0.609584 0)
(-0.347667 0.610469 0)
(-0.338679 0.60551 0)
(-0.348052 0.610571 0)
(-0.319533 0.576318 0)
(-0.316881 0.576589 0)
(-0.313405 0.573354 0)
(-0.319704 0.560538 0)
(-0.31764 0.558691 0)
(-0.325442 0.573567 0)
(-0.289833 0.518513 0)
(-0.287183 0.51962 0)
(-0.281562 0.511586 0)
(-0.281109 0.500289 0)
(-0.285263 0.509014 0)
(-0.274362 0.49564 0)
(-0.238879 0.42203 0)
(-0.230067 0.408449 0)
(-0.230621 0.40508 0)
(-0.23459 0.396837 0)
(-0.224996 0.373258 0)
(-0.243227 0.410254 0)
(-0.192432 0.302899 0)
(-0.203385 0.324738 0)
(-0.203943 0.328257 0)
(-0.141991 0.184675 0)
(-0.141718 0.184802 0)
(-0.130984 0.1606 0)
(-0.142893 0.203647 0)
(-0.137433 0.189558 0)
(-0.12554 0.167321 0)
(-0.157804 0.222557 0)
(-0.16546 0.239862 0)
(-0.171193 0.250959 0)
(-0.100166 0.165316 0)
(-0.0984609 0.15983 0)
(-0.088878 0.145369 0)
(-0.110497 0.209467 0)
(-0.116655 0.217869 0)
(-0.0840392 0.142933 0)
(-0.0903487 0.156676 0)
(-0.0988546 0.169317 0)
(-0.0700221 0.124586 0)
(-0.0874736 0.1543 0)
(-0.0737212 0.129063 0)
(-0.0599046 0.11623 0)
(-0.0534157 0.102638 0)
(-0.0556243 0.113614 0)
(-0.051645 0.105296 0)
(-0.0383894 0.0800789 0)
(-0.0416831 0.0872005 0)
(-0.0424983 0.0882992 0)
(-0.0623877 0.116719 0)
(-0.0705068 0.130867 0)
(-0.0578406 0.106958 0)
(-0.0501626 0.0941896 0)
(-0.0592737 0.112237 0)
(-0.0418002 0.089578 0)
(-0.0393001 0.0841227 0)
(-0.038096 0.0811998 0)
(-0.0361527 0.0774463 0)
(-0.0343145 0.0751278 0)
(-0.0296204 0.0653629 0)
(-0.0366447 0.0804836 0)