/*--------------------------------*- C++ -*----------------------------------*\
| =========                 |                                                 |
| \\      /  F ield         | OpenFOAM: The Open Source CFD Toolbox           |
|  \\    /   O peration     | Version:  v2012                                 |
|   \\  /    A nd           | Website:  www.openfoam.com                      |
|    \\/     M anipulation  |                                                 |
\*---------------------------------------------------------------------------*/
FoamFile
{
    version     2.0;
    format      ascii;
    class       surfaceVectorField;
    location    "1";
    object      ddtCorrDdt0(Uf);
}
// * * * * * * * * * * * * * * * * * * * * * * * * * * * * * * * * * * * * * //

dimensions      [0 1 -2 0 0 0 0];


internalField   nonuniform List<vector> 
18781
(
(8.84545e-06 2.40049e-05 1.23071e-25)
(1.29888e-05 1.80644e-05 5.5039e-23)
(2.44851e-05 7.7204e-05 5.00571e-23)
(8.03909e-06 1.9024e-05 -1.14638e-25)
(2.46076e-05 7.67928e-05 -8.07864e-26)
(1.77284e-05 2.2004e-05 -1.18215e-24)
(3.69653e-05 0.000177134 1.50048e-24)
(5.34535e-05 0.000195084 -3.26003e-25)
(5.39157e-06 2.18117e-05 7.77726e-26)
(5.90938e-05 0.000189638 -4.10205e-23)
(6.9321e-05 0.000176292 2.9709e-25)
(1.39321e-05 1.21236e-05 -1.20826e-22)
(6.47797e-05 0.000266633 -7.47575e-24)
(3.60377e-05 0.000162598 -1.02326e-22)
(9.38766e-05 0.000274263 -2.80151e-25)
(1.23706e-05 7.0078e-05 7.34302e-24)
(6.92817e-06 2.13535e-05 -6.35662e-23)
(6.11322e-05 0.000109952 4.19306e-25)
(9.47091e-05 0.000207654 0)
(3.87495e-05 3.66161e-05 4.7137e-25)
(9.54468e-05 0.000341639 -1.78867e-25)
(7.6293e-05 0.000340049 -7.99594e-25)
(3.36547e-05 0.000176976 1.79856e-25)
(0.000105163 0.000327562 0)
(0.000124442 0.000313901 0)
(7.15117e-06 2.60638e-05 -1.44227e-23)
(9.95347e-05 0.000203291 1.50638e-24)
(0.000132871 0.000256568 0)
(7.14598e-05 0.000121462 1.49661e-24)
(3.51232e-05 3.44905e-05 0)
(0.000114786 0.00036513 0)
(5.50396e-05 0.000284516 4.26033e-24)
(6.51281e-05 0.000357914 5.16826e-26)
(3.60348e-05 0.000210005 -9.32759e-24)
(0.000151286 0.000313977 0)
(0.000146929 0.000337802 0)
(1.34814e-05 0.000105986 -2.34751e-26)
(4.87869e-06 3.5671e-05 -2.31633e-25)
(0.000107598 0.000193672 -5.94836e-23)
(0.000182053 0.000294366 0)
(2.86027e-05 2.27189e-05 7.88201e-25)
(0.000144278 0.000369032 0)
(0.000120862 0.000386462 7.20633e-26)
(6.8236e-05 0.000399852 1.55424e-25)
(4.058e-05 0.000373939 7.20231e-25)
(1.88079e-05 0.000225338 6.31541e-23)
(0.000164252 0.000348373 -1.54054e-24)
(-8.19373e-06 3.21094e-05 6.34282e-23)
(9.25712e-05 0.000175212 8.1735e-24)
(0.000135363 0.00022247 9.14947e-24)
(0.000175406 0.000253038 -7.37807e-25)
(0.000207396 0.000271521 0)
(5.17459e-05 0.000125668 6.7812e-25)
(6.18093e-05 6.52664e-05 -2.4651e-22)
(9.3607e-05 0.000407137 2.29499e-25)
(0.000124985 0.000402734 -2.56266e-24)
(6.73497e-05 0.000423184 4.04319e-23)
(3.07246e-05 0.000318922 2.86182e-23)
(2.14859e-05 0.00037996 -6.21112e-26)
(1.2215e-05 0.000247304 2.70634e-23)
(0.000193759 0.000350001 2.64823e-23)
(0.000165052 0.000386617 -1.28166e-24)
(-4.80534e-06 2.10079e-05 1.20665e-24)
(1.67149e-07 9.04817e-05 6.32677e-25)
(8.67311e-05 0.000159132 -7.61186e-26)
(0.000171672 0.00022091 -7.17794e-25)
(0.000238829 0.000293319 1.0869e-24)
(0.000235807 0.000240888 -4.96684e-25)
(0.000109191 -1.80411e-06 1.39049e-22)
(0.000151609 0.000405641 -7.09825e-25)
(0.000134068 0.000429919 -8.62358e-24)
(7.50357e-05 0.000449373 1.99314e-25)
(5.14036e-05 0.000442253 -2.07507e-22)
(2.06984e-05 0.000408622 -5.1449e-26)
(1.70824e-05 0.000383764 0)
(4.19678e-06 0.000206277 5.89117e-26)
(-2.65925e-06 0.00031244 -9.18887e-26)
(0.000229626 0.000326845 -1.22011e-22)
(0.000220509 0.000350787 1.32588e-24)
(0.000172512 0.000410391 -2.93304e-24)
(3.51977e-06 2.29129e-05 2.26986e-23)
(-6.686e-06 0.000176269 -3.56646e-23)
(0.000136734 0.000164289 -9.25317e-26)
(9.92829e-05 0.000132782 0)
(0.000194159 0.000178267 1.93244e-25)
(0.000277407 0.000307062 1.72006e-23)
(0.000243937 0.000211559 -4.69654e-24)
(0.000270505 0.00022908 1.75708e-24)
(5.29838e-05 -2.47177e-05 1.00367e-24)
(0.000113086 0.000464995 -2.57018e-23)
(0.000154989 0.000464671 1.28108e-24)
(6.59203e-05 0.000477503 6.38008e-23)
(1.68784e-05 0.000454606 -6.02242e-26)
(-1.31088e-05 0.000372165 -7.6265e-25)
(0.000210946 0.000397785 1.37952e-22)
(0.000255481 0.00039594 -6.61627e-24)
(0.000203561 0.000439272 1.52229e-22)
(-7.88112e-06 0.000101137 -5.9324e-25)
(6.34134e-06 3.96647e-05 5.76123e-23)
(-1.51677e-05 0.000215744 -1.65045e-23)
(0.000103647 7.09828e-05 0)
(0.000160795 0.000129114 0)
(0.000230924 0.000185924 5.22314e-25)
(0.00020891 0.000142236 9.31885e-26)
(0.000293604 0.000286435 3.55767e-25)
(0.000335797 0.000327541 1.52296e-22)
(0.000269365 0.000179735 4.16101e-25)
(0.00033124 0.000235329 -1.21922e-22)
(9.14029e-05 1.36149e-05 -3.24789e-25)
(0.000194048 0.000482751 1.47804e-24)
(0.00016104 0.000504242 -4.63405e-23)
(3.91925e-05 0.000477427 -1.36576e-25)
(5.94591e-05 0.000512573 -6.47593e-25)
(1.1574e-05 0.000474111 0)
(-2.2561e-05 0.000466551 1.92204e-24)
(-2.2591e-05 0.000325388 -1.49553e-24)
(-3.89778e-05 0.000386832 -7.86592e-24)
(0.000326881 0.000425285 -3.59207e-23)
(0.000276584 0.000479225 3.06156e-25)
(0.000237092 0.000486472 1.02741e-23)
(-4.24304e-06 4.51599e-05 3.46271e-25)
(-2.19777e-05 0.000263715 3.41716e-25)
(0.000184661 0.000113375 0)
(0.000134378 0.00010897 -1.01522e-24)
(0.000213607 0.000104215 -2.97497e-24)
(0.000401956 0.00040126 2.45185e-23)
(0.000256912 0.000119089 -2.84181e-24)
(0.000306115 0.000144976 1.69929e-24)
(0.000348271 0.00017856 2.36761e-24)
(0.000406203 0.000244532 -3.0911e-23)
(0.000113496 8.63611e-05 -1.30677e-24)
(0.000144838 1.78337e-05 2.12431e-22)
(0.000101868 0.000555478 -1.10552e-22)
(0.000174935 0.000563626 -1.57735e-25)
(1.01428e-05 0.000487813 4.06752e-25)
(4.53958e-05 0.00056678 3.73009e-24)
(-4.56918e-05 0.000417891 3.92225e-23)
(-7.53091e-05 0.000467819 -3.28086e-22)
(-4.44303e-05 0.000391031 5.95874e-23)
(0.000272056 0.000515177 -4.00642e-23)
(-1.17995e-05 4.13171e-05 0)
(-1.92678e-05 0.000128848 -9.0928e-25)
(-4.81336e-05 0.000332177 2.75873e-24)
(-3.05595e-05 0.000243255 -2.25362e-23)
(0.000139439 9.1659e-05 1.90859e-22)
(0.000250976 6.83713e-05 2.12231e-22)
(0.000439697 0.000346894 -5.12241e-24)
(0.00044921 0.000398965 -4.5074e-25)
(0.000362059 0.000112955 -8.26875e-23)
(0.000499915 0.000254853 1.35115e-22)
(0.000103862 -4.79212e-05 -3.62534e-22)
(0.000239191 0.000575609 -5.59497e-25)
(0.000195212 0.000623824 1.51993e-23)
(1.60727e-05 0.000547794 5.02035e-25)
(-4.14502e-05 0.000510317 -2.18732e-23)
(2.90976e-05 0.000604512 8.69319e-26)
(-0.000100643 0.000462827 1.24649e-23)
(-9.78907e-05 0.000447325 -1.62633e-24)
(-6.00858e-05 0.00038227 4.00124e-24)
(0.000309905 0.000523773 1.98651e-24)
(-1.72589e-05 3.32282e-05 -5.13518e-25)
(-4.58826e-05 0.000234685 5.18505e-25)
(0.00011171 1.533e-05 8.58449e-23)
(0.00018648 1.0055e-05 8.48402e-25)
(0.000234839 9.79258e-06 -1.47374e-23)
(0.000293332 1.31529e-05 9.95582e-23)
(0.00049081 0.000406751 -3.05955e-24)
(0.000416789 0.000439138 -2.81968e-24)
(0.000347561 3.7459e-05 1.34599e-25)
(0.000418011 6.91135e-05 1.89719e-23)
(0.000512969 0.000153123 6.35728e-24)
(0.000582776 0.000222673 2.47916e-23)
(0.000109571 2.27943e-05 -1.92043e-22)
(0.000176876 -3.38028e-05 -5.85539e-25)
(0.000229738 0.000732525 -7.05209e-25)
(0.00012657 0.000694881 -1.07329e-24)
(-9.28144e-05 0.000483238 -5.76976e-25)
(-8.84235e-05 0.00056781 2.57702e-23)
(4.46012e-05 0.000675616 -3.58477e-25)
(-2.81273e-05 0.000643393 -1.17916e-24)
(-0.000128047 0.000467011 -1.1769e-24)
(-8.92094e-05 0.000410258 -9.72679e-25)
(-0.000123834 0.000425489 0)
(-7.67927e-05 0.000359215 -7.6089e-25)
(0.000374739 0.000490276 -1.27301e-23)
(0.000396165 0.0006353 2.64634e-24)
(-2.39722e-05 0.000100867 -3.54758e-24)
(-1.26735e-05 3.41909e-05 2.93055e-23)
(-7.13806e-05 0.000299492 7.74729e-24)
(-4.91296e-05 0.000212625 1.19106e-23)
(0.000107302 1.19534e-05 6.42948e-25)
(0.000213212 -2.57568e-05 -1.06513e-24)
(0.000334139 -1.67443e-05 1.52447e-22)
(0.000567597 0.0003697 -9.10289e-25)
(0.000565117 0.00046806 6.37373e-23)
(0.000462599 0.000530417 -2.97246e-24)
(0.000479638 9.29948e-05 -1.31879e-24)
(0.000457666 7.57186e-06 -1.60453e-22)
(0.000564092 7.50578e-05 0)
(0.00062507 0.000239625 7.83932e-23)
(0.000660097 0.000157744 -1.06092e-23)
(7.22157e-05 -0.00018282 1.55641e-22)
(0.000349253 0.000764628 0)
(0.000248288 0.000842468 -4.19024e-25)
(6.28224e-05 0.000747642 -6.76377e-23)
(-8.29512e-05 0.000623955 -8.3118e-23)
(-0.00013085 0.000607863 1.5873e-24)
(-8.11675e-05 0.000687726 -4.966e-24)
(-0.000161345 0.000518305 8.66792e-23)
(-0.000174354 0.000468402 -1.51618e-24)
(-0.000167956 0.000404098 0)
(-0.000136898 0.000380916 -2.06928e-25)
(-9.52551e-05 0.000345062 1.91627e-24)
(0.000487584 0.000746206 0)
(-5.75714e-05 0.000193446 5.73444e-23)
(-1.00312e-05 3.85768e-05 -9.82197e-25)
(0.000110587 -8.81365e-05 -7.75749e-23)
(0.00018334 -2.13674e-05 6.16362e-25)
(0.000201144 -2.39501e-05 -3.65555e-24)
(0.000203868 -6.49449e-05 -5.21877e-24)
(0.000295763 -7.64018e-05 -4.61974e-25)
(0.000378126 -7.80826e-05 1.16437e-22)
(0.000717276 0.000291691 7.12753e-24)
(0.000568617 0.000561585 1.36476e-24)
(0.000649607 0.000571023 1.03391e-24)
(0.000525492 0.000643205 0)
(0.000426982 -8.01797e-05 -8.28088e-24)
(0.000516731 -8.46557e-05 2.42232e-22)
(0.000625226 5.17161e-05 -3.2524e-24)
(0.000584571 6.80358e-06 5.01984e-24)
(0.000713407 6.77287e-05 -4.51667e-23)
(7.17908e-05 -8.87259e-05 -3.72287e-22)
(0.000276007 0.00095171 -3.7402e-23)
(0.000173985 0.000911822 -7.20168e-25)
(-9.30618e-06 0.000780555 2.10207e-22)
(5.08005e-05 0.000826617 -4.46609e-25)
(-0.000202562 0.00059786 -4.73846e-23)
(-0.000111768 0.00077057 7.77961e-23)
(-0.000202381 0.000430148 0)
(-0.000242586 0.000472838 0)
(-0.000199429 0.000383322 2.41962e-24)
(-0.000120389 0.000348938 -1.68585e-24)
(-0.000162879 0.000346321 1.83242e-24)
(-8.95367e-05 0.000312697 7.45586e-24)
(0.00059285 0.000787155 -4.1713e-24)
(-4.39529e-05 0.000151472 -1.03796e-22)
(-7.81249e-05 0.000246612 -8.2814e-24)
(-4.52382e-05 8.29724e-05 -3.40325e-24)
(0.000198265 -5.08777e-05 4.30872e-25)
(0.000234848 -8.92021e-05 1.30547e-24)
(0.000177335 -0.000102332 6.08027e-25)
(0.000276904 -0.000106856 0)
(0.000405516 -0.000123404 1.34449e-22)
(0.000798296 0.000404758 1.42869e-24)
(0.000834385 0.000267535 -1.04716e-22)
(0.000757295 0.000552155 -2.62527e-24)
(0.000753638 0.000678238 2.115e-24)
(0.000604898 -0.000106862 2.21987e-23)
(0.000773322 -2.08639e-05 -1.55158e-23)
(0.000812403 0.000114361 -4.56947e-23)
(0.000234229 -8.75111e-06 1.01128e-24)
(8.0449e-05 8.85351e-05 -4.9405e-22)
(0.000287704 0.00107695 2.96718e-23)
(0.000423355 0.00096728 2.8365e-24)
(4.35692e-05 0.000984419 1.19169e-22)
(-0.000291196 0.000606576 1.06483e-23)
(-0.000234009 0.000694452 -1.92636e-24)
(-0.000196378 0.000773947 3.15087e-24)
(-0.000137065 0.000887149 1.86138e-24)
(-0.000310562 0.000499303 1.13561e-25)
(-0.000270514 0.000427141 -6.23222e-26)
(-0.000246842 0.000379972 -1.39886e-24)
(-0.000213732 0.000345085 7.20841e-23)
(-0.000204593 0.000334601 2.58299e-26)
(-0.000172912 0.000306121 6.69156e-23)
(-0.000110293 0.000280006 -7.33944e-25)
(0.000750986 0.000790357 2.42005e-22)
(0.000576208 0.000878481 1.32695e-23)
(-6.8208e-05 0.000126932 -1.80494e-24)
(-4.13876e-05 5.05644e-05 4.02794e-23)
(0.000116713 -2.10641e-05 -4.74286e-25)
(0.000148226 -9.45112e-05 1.9875e-24)
(0.000166046 -0.000123924 -1.52233e-22)
(0.000181918 -0.000151211 -1.9427e-24)
(0.000234589 -0.000179169 0)
(0.000288612 -0.000194439 0)
(0.000349731 -0.000210352 3.44237e-24)
(0.000450954 -0.000213496 3.53106e-24)
(0.000905028 0.000503366 5.17689e-24)
(0.000858947 0.000191291 -3.09123e-23)
(0.0009579 0.000298317 -8.41098e-24)
(0.000858968 0.000757241 1.0102e-23)
(0.000732871 -0.000118595 -6.14805e-24)
(0.00065485 -0.000199013 7.11295e-23)
(0.000806915 -0.000139868 -9.56277e-23)
(0.000923293 6.72912e-05 2.54518e-24)
(0.000335316 -0.000270056 7.0908e-22)
(-1.1088e-05 8.66321e-06 -4.92079e-25)
(0.000348234 0.00117406 -1.42015e-23)
(0.000185448 0.00116413 -1.06511e-23)
(0.000607344 0.000993142 2.85562e-23)
(6.49259e-05 0.0011332 -2.17754e-24)
(-3.44844e-05 0.00104026 5.19605e-25)
(-0.000382158 0.000556792 1.15305e-25)
(-0.000316195 0.000727044 3.12085e-23)
(-0.000105518 0.000994857 1.91586e-24)
(-0.000244749 0.000946565 -1.98713e-22)
(-0.000307325 0.000387894 1.71317e-24)
(-0.000228074 0.000330369 -2.00905e-24)
(-0.000155661 0.000287795 -1.96987e-24)
(-0.00016606 0.000292685 -2.38916e-24)
(-0.000123568 0.000242965 3.16927e-23)
(-9.17999e-05 0.000183772 -2.02562e-24)
(-7.17142e-05 0.000144759 4.85041e-24)
(-3.76728e-05 2.09014e-05 -2.8896e-24)
(0.00015756 -0.000150375 -4.64505e-22)
(0.000189691 -0.000209616 -1.71577e-24)
(0.000314591 -0.000286668 0)
(0.000566302 -0.000260005 -8.85228e-24)
(0.000443659 -0.000327995 0)
(0.00103711 0.000487468 1.07803e-23)
(0.00104425 0.000659094 -4.27772e-24)
(0.00105434 0.000413009 -2.54402e-24)
(0.00109401 0.000273722 9.23533e-24)
(0.00102047 0.000808757 4.37134e-23)
(0.000883189 0.000907356 7.12565e-24)
(0.000666461 -0.000374131 -2.60016e-24)
(0.000894423 -7.9071e-05 3.30138e-25)
(0.0008888 -0.000278743 1.98448e-24)
(0.000997358 -3.84393e-05 -6.79849e-23)
(6.49917e-05 -0.000276614 -9.04584e-25)
(4.06589e-05 -0.000189674 -1.18908e-24)
(-8.08389e-05 -0.000138388 0)
(0.000503061 0.00121843 3.88952e-25)
(0.000352659 0.00132907 8.95532e-26)
(7.14244e-05 0.00122647 -3.38866e-25)
(0.000774389 0.0010358 3.16369e-24)
(0.00063114 0.00114362 1.60651e-24)
(-0.000115199 0.00110255 2.54256e-24)
(-0.000461054 0.000506536 9.36811e-25)
(-0.000428725 0.000581305 0)
(-0.000397213 0.000662597 4.05087e-24)
(-0.000405286 0.000795745 3.90962e-24)
(-0.000371211 0.00090021 -2.32857e-24)
(-0.000358278 0.000982663 -2.02669e-24)
(-0.000311639 0.000299535 1.96118e-22)
(-0.000370213 0.000356644 1.82868e-24)
(-0.000262058 0.000295815 -2.40382e-24)
(-0.000218945 0.000285432 -1.24887e-24)
(-0.000184588 0.000276672 -1.11768e-24)
(-0.000158009 0.000263911 1.44654e-24)
(-0.000137296 0.000244441 1.32587e-22)
(-6.23637e-05 8.74359e-05 2.16686e-23)
(-9.0369e-05 0.000166614 6.24094e-23)
(-4.4731e-05 3.71914e-05 -3.02709e-24)
(0.000123565 -0.000260133 -4.26248e-25)
(0.000153658 -0.00025115 -9.28577e-25)
(0.000191651 -0.000278326 1.45322e-22)
(0.000292051 -0.00032048 0)
(0.000321914 -0.00035546 0)
(0.000363569 -0.000384353 0)
(0.000439594 -0.000454272 4.54834e-24)
(0.0011784 0.000547141 -9.743e-23)
(0.00116231 0.000802206 -5.33987e-24)
(0.00110873 6.51366e-05 1.87002e-23)
(0.00126684 0.000165001 2.00434e-23)
(0.000995378 0.00113377 -2.07554e-23)
(0.000741776 -0.000489354 1.46919e-23)
(0.000598947 -0.000510483 1.00572e-23)
(0.000893326 -0.000429488 2.64478e-22)
(0.00102208 -0.000377228 -8.93777e-24)
(0.00112334 -0.000155754 -3.25749e-24)
(5.94257e-05 -0.000197357 5.91615e-25)
(0.000241798 -0.000296741 1.41983e-21)
(6.76142e-05 -0.000135336 -4.02775e-25)
(0.000674586 0.00138731 6.03403e-24)
(0.00037976 0.00156369 -3.50829e-23)
(0.000207329 0.00144101 2.93404e-25)
(5.20466e-05 0.00135774 1.09423e-22)
(-5.61559e-05 0.00125517 -2.46294e-24)
(-0.000260859 0.00110248 2.42021e-24)
(-0.000166684 0.00118153 -1.97998e-22)
(-0.000566828 0.000468013 3.73964e-24)
(-0.000482702 0.00042849 9.3225e-25)
(-0.000506169 0.00062238 3.8415e-24)
(-0.000537109 0.000841952 0)
(-0.000424038 0.00107466 -1.91702e-24)
(-0.000287085 0.000254925 -2.47137e-24)
(-0.000434775 0.000386881 0)
(-0.000410041 0.000289579 5.99487e-24)
(-0.000202688 0.000254031 -9.73835e-25)
(-0.000146384 0.000243548 2.57154e-24)
(-0.000130959 0.000207259 2.38478e-24)
(-8.5014e-05 0.000162 1.26263e-24)
(-2.21817e-05 3.2476e-05 0)
(0.000144683 -0.000277259 -3.62804e-23)
(0.0002419 -0.000318179 1.93614e-24)
(0.000169412 -0.000354334 1.94224e-24)
(0.000256927 -0.000359383 2.72731e-24)
(0.000304878 -0.000402198 0)
(0.000501715 -0.000528533 -9.45003e-23)
(0.0003886 -0.000569702 1.34679e-23)
(0.00123361 0.000711118 -7.18764e-24)
(0.00135012 0.000556031 -7.43101e-24)
(0.00129883 0.000844467 3.27158e-24)
(0.00139998 0.000294734 -1.39006e-23)
(0.00143554 3.01062e-05 -1.32012e-23)
(0.00101593 0.00141325 -2.57951e-24)
(0.00122779 0.00122355 -2.76388e-24)
(0.000848404 -0.000582461 1.47809e-23)
(0.000580024 -0.000543376 -2.567e-23)
(0.0011094 -0.000282408 -1.15877e-23)
(0.00112994 -0.000421656 -9.50595e-24)
(0.00127747 -0.000190104 2.12954e-22)
(-3.67004e-05 -0.000383355 -2.27812e-21)
(0.000137712 -0.000229728 -1.21861e-24)
(3.87415e-05 -0.000274112 -1.65066e-22)
(0.000851013 0.00153551 -1.01971e-24)
(0.000672082 0.00164819 -8.77439e-25)
(0.000518047 0.00170305 -6.45393e-25)
(0.000336109 0.00182939 1.12907e-25)
(2.18736e-05 0.00152845 8.79858e-23)
(-0.000197201 0.0013116 -1.96897e-24)
(-0.000654257 0.000409396 -1.74074e-24)
(-0.000630763 0.00051901 -5.05303e-24)
(-0.00051548 0.000348038 -2.70628e-24)
(-0.00058835 0.000703849 3.68105e-24)
(-0.000595949 0.000610767 1.33879e-24)
(-0.000658345 0.00079793 -5.60851e-24)
(-0.000578131 0.00109292 -1.53739e-22)
(-0.000463277 0.00121493 -1.59716e-24)
(-0.00026694 0.00020916 0)
(-0.000315591 0.000211406 -3.34621e-24)
(-0.000376366 0.000201173 1.40925e-22)
(-0.000456025 0.000202521 5.79317e-24)
(-0.000225845 0.00022441 1.22534e-24)
(-0.000195466 0.00022524 2.59467e-26)
(-0.000166189 0.000223751 -9.55655e-24)
(-6.33211e-05 0.000102923 0)
(-0.000105882 0.00016244 0)
(-6.16852e-05 4.1052e-05 0)
(0.000111348 -0.000320468 1.47726e-24)
(0.000178049 -0.000399328 -2.43092e-24)
(0.000145609 -0.000381671 1.49013e-24)
(0.000256559 -0.00042104 2.86043e-24)
(0.000210548 -0.000402912 2.51985e-23)
(0.000280465 -0.000489081 -1.87011e-24)
(0.000306751 -0.000600691 -4.90881e-23)
(0.000357448 -0.000631816 1.23949e-22)
(0.00154077 0.000414413 -7.25608e-24)
(0.00136431 0.00107069 0)
(0.00153738 0.000941221 -1.73085e-23)
(0.00145135 -8.1968e-05 1.06403e-23)
(0.00162592 4.23916e-05 0)
(0.00105906 0.00165416 9.60962e-25)
(0.0014565 0.00130551 -4.97064e-25)
(0.000762105 -0.000696585 6.76449e-24)
(0.000978002 -0.000695861 -7.74523e-23)
(0.000481334 -0.000609152 -1.24569e-22)
(0.00057406 -0.000646831 1.25301e-22)
(0.00115391 -0.000600513 1.23983e-22)
(0.00132039 -0.000503793 -1.8307e-23)
(0.00143487 -0.000122518 7.83337e-24)
(4.03668e-05 -0.000274333 -2.46309e-25)
(0.000689561 0.00188984 0)
(0.000317791 0.00203349 7.46249e-23)
(0.00014463 0.00197448 7.54047e-25)
(-2.19632e-05 0.00176012 4.59728e-25)
(-0.000105928 0.00154662 -3.25077e-24)
(-0.000337387 0.00134533 0)
(-0.000227013 0.00146174 1.84316e-25)
(-0.000776838 0.000350891 5.02798e-24)
(-0.000671318 0.00029806 1.70626e-24)
(-0.000705179 0.000555759 -3.23975e-24)
(-0.000517344 0.000234631 -2.6959e-24)
(-0.000595236 0.000269989 6.38675e-23)
(-0.000695255 0.000964065 2.11952e-22)
(-0.000757503 0.000851806 -8.38697e-24)
(-0.000733138 0.0011741 -1.86915e-23)
(-0.000524915 0.00149402 0)
(-0.000233427 0.000181623 1.09314e-24)
(-0.000328066 0.0001564 2.88874e-23)
(-0.000521964 0.000158536 -1.30201e-24)
(-0.00017323 0.000202313 -1.19178e-24)
(-0.00014612 0.000173689 0)
(-0.000103854 0.000140697 0)
(-4.46989e-05 2.19011e-05 0)
(0.000114181 -0.000365001 2.49496e-22)
(2.88804e-05 -0.000339932 1.4921e-24)
(0.000192591 -0.000428942 -1.20979e-24)
(0.00010912 -0.000402926 -1.64601e-24)
(0.000226738 -0.000598559 -3.3102e-24)
(0.000397922 -0.000693642 -6.65234e-24)
(0.00172331 0.000268352 -6.9119e-24)
(0.00176198 0.000472625 7.06659e-23)
(0.00172135 0.000804009 -4.51527e-23)
(0.00173682 0.00104166 -5.00985e-23)
(0.00183026 0.000121062 -8.36898e-24)
(0.00100743 0.00185023 2.26187e-23)
(0.00123052 0.00172558 1.29613e-24)
(0.00145222 0.00152333 1.77027e-24)
(0.00167437 0.00133905 -3.48796e-25)
(0.000611668 -0.000755517 8.98051e-24)
(0.000701483 -0.000913336 -8.12391e-24)
(0.00112074 -0.0008698 1.43535e-22)
(0.000489976 -0.000797104 -2.72082e-24)
(0.00145423 -0.000308039 -6.71881e-24)
(0.00147612 -0.000665085 4.64017e-23)
(0.00163305 -0.000159 1.3487e-23)
(1.42779e-05 -0.000256599 -4.22111e-22)
(0.000172327 -0.000329911 9.49404e-25)
(0.000593008 0.00204345 -7.41382e-25)
(0.000815792 0.00193974 -8.96071e-25)
(0.000381331 0.00217547 9.29729e-25)
(-4.44461e-05 0.00209299 2.45847e-24)
(-0.000238047 0.00168558 -1.93186e-24)
(-0.000783313 0.000479907 4.37545e-24)
(-0.000883792 0.000341875 3.57374e-23)
(-0.00069631 0.000179146 1.9832e-24)
(-0.000829754 0.000621034 0)
(-0.000849337 0.000838873 -4.18566e-24)
(-0.000875052 0.00100158 5.65371e-23)
(-0.000839805 0.00116042 -3.98771e-23)
(-0.000819138 0.00134632 1.67171e-24)
(-0.000684223 0.00165366 0)
(-0.000501797 0.00179247 1.77396e-24)
(-0.00025788 0.000140115 -6.19907e-23)
(-0.000219309 0.000150669 2.19165e-24)
(-0.000302645 0.000116531 -1.38557e-22)
(-0.000359692 0.00010025 -2.93409e-24)
(-0.000475371 4.36766e-05 -1.38715e-24)
(-0.000595862 2.75123e-05 1.09958e-22)
(-0.000183387 0.000166926 1.09191e-24)
(-8.88265e-05 9.58043e-05 0)
(-0.000126613 0.000136829 2.09674e-24)
(-9.44244e-05 3.24664e-05 1.56877e-24)
(-6.6339e-05 -0.000277833 -5.26e-25)
(0.000191819 -0.000537145 7.3462e-25)
(0.000130091 -0.000498286 6.75617e-23)
(7.25486e-05 -0.000467267 -6.6709e-25)
(-1.14489e-06 -0.000402269 5.91862e-23)
(0.000170066 -0.000619794 1.51356e-23)
(0.000432301 -0.00081192 -1.36008e-23)
(0.000341793 -0.000766397 4.98291e-24)
(0.00208491 0.000546935 1.48809e-23)
(0.00178557 0.00120095 1.28611e-23)
(0.00191833 0.00111441 -1.15269e-23)
(0.00182433 -0.000123491 -2.26061e-22)
(0.00201285 1.36526e-05 -5.09175e-24)
(0.000991135 0.00206017 -5.99007e-24)
(0.00146861 0.00181916 5.35891e-24)
(0.00185169 0.00143817 0)
(0.000627809 -0.00106871 8.70717e-23)
(0.000837892 -0.00103209 2.31858e-23)
(0.0010457 -0.001005 1.20865e-22)
(0.00123276 -0.00098166 -4.95721e-25)
(0.000420263 -0.000916549 3.73481e-23)
(0.00165241 -0.000705537 1.84977e-23)
(0.00153204 -0.000856212 2.00329e-24)
(0.00178364 -0.00041884 1.13678e-23)
(-1.07796e-05 -0.000466785 -1.42275e-21)
(0.00049627 0.00243578 2.62402e-23)
(0.000231267 0.00236035 7.18876e-25)
(-0.000196332 0.00199163 2.69769e-25)
(-0.000139232 0.0021998 2.09692e-22)
(-0.000356081 0.00184322 4.22712e-24)
(-0.00107583 0.000369396 -3.22364e-23)
(-0.000983654 0.000208915 -9.79954e-23)
(-0.000674781 2.62269e-05 1.6974e-24)
(-0.00081355 7.21371e-05 -4.80081e-24)
(-0.00103439 0.000731549 2.77092e-26)
(-0.00100537 0.00106486 1.45424e-23)
(-0.000866328 0.00153347 4.83332e-24)
(-0.00110973 0.00139509 -3.32582e-22)
(-0.000929001 0.00173081 -8.86676e-24)
(-0.000489075 0.00202302 5.84668e-24)
(-0.000247334 8.95983e-05 1.1316e-24)
(-0.000181778 0.000128548 -8.12511e-24)
(-0.000393833 3.9017e-05 0)
(-0.000331318 3.3464e-05 1.13497e-24)
(-0.000420013 -1.28365e-05 2.01974e-25)
(-0.000626995 -4.31285e-05 1.41649e-24)
(-0.000147049 0.000113209 -8.31761e-23)
(-0.000110468 0.000108248 2.08743e-24)
(-6.26761e-05 -3.12698e-06 1.57442e-24)
(-3.24264e-05 -0.000310945 -1.39714e-24)
(1.59001e-05 -0.000329836 -5.76455e-25)
(7.56141e-05 -0.000519552 -5.63774e-25)
(-9.45792e-05 -0.000378383 -3.87433e-22)
(0.000104213 -0.000616191 9.49762e-24)
(0.000140601 -0.000682628 -1.80624e-22)
(0.000197923 -0.000730598 7.82958e-25)
(0.000238422 -0.000863028 -1.68319e-22)
(0.00235353 0.000326053 1.33387e-23)
(0.00225308 0.000685122 3.80605e-24)
(0.00209963 0.00101417 -7.62215e-23)
(0.00211002 0.00121769 5.59412e-23)
(0.00226524 5.052e-05 -6.01545e-24)
(0.00215732 -0.000292543 -5.29138e-24)
(0.000798166 0.00239898 -7.44415e-25)
(0.00117679 0.0023562 2.00594e-24)
(0.00158388 0.00213177 -9.38728e-24)
(0.00178855 0.00187531 3.8845e-24)
(0.00210549 0.00143353 5.57696e-24)
(0.00193678 0.00161571 0)
(0.00046219 -0.0011017 1.62213e-23)
(0.000505838 -0.00124477 3.60197e-24)
(0.000916417 -0.0012244 -1.56864e-22)
(0.00142559 -0.000976484 -1.13018e-23)
(0.00129396 -0.00115288 -3.05374e-23)
(0.00031728 -0.00111292 9.43629e-24)
(0.00188942 -0.000681867 2.16343e-25)
(0.00165219 -0.00101906 5.88402e-25)
(0.000194735 -0.000525657 -1.06604e-24)
(0.000704927 0.00280968 1.12496e-24)
(2.24572e-05 0.00230804 -1.20215e-22)
(0.000129508 0.00270936 -5.43326e-25)
(-0.000354067 0.00222468 1.08751e-24)
(-0.000183164 0.00225687 1.30919e-22)
(-0.00116501 0.000609637 1.51659e-22)
(-0.00130427 0.000365622 1.58743e-23)
(-0.000947594 0.000102975 7.5243e-23)
(-0.00108363 4.45423e-05 -2.08895e-24)
(-0.000871576 -5.49793e-05 -4.48124e-24)
(-0.00121998 0.000805059 -2.43167e-22)
(-0.00118535 0.00114658 -6.28246e-23)
(-0.001165 0.000974313 2.1752e-23)
(-0.00131192 0.00130477 -4.00468e-23)
(-0.00112162 0.00170104 -1.71939e-22)
(-0.000955372 0.00192463 -1.23004e-23)
(-0.000694892 0.00209794 1.54355e-22)
(-0.000245951 5.48489e-05 0)
(-0.000214296 7.57759e-05 0)
(-0.000175588 9.12246e-05 -2.92103e-24)
(-0.000270849 7.93493e-06 1.12723e-24)
(-0.000306887 -3.53585e-05 -4.30142e-23)
(-0.000375902 -7.28391e-05 -8.86512e-25)
(-0.000441199 -9.84953e-05 -2.78398e-24)
(-0.000689758 -0.000136527 0)
(-0.000620057 -0.000113463 -7.67505e-24)
(-0.000110029 8.09238e-05 0)
(-0.000136677 9.60016e-05 0)
(-0.000126895 1.20882e-05 -1.23069e-24)
(2.78774e-05 -0.000503046 3.35778e-23)
(4.59276e-05 -0.000566358 -2.60952e-24)
(2.49521e-06 -0.0004586 -1.07281e-21)
(-2.17124e-05 -0.000519708 3.83173e-24)
(6.03543e-05 -0.000601605 6.69764e-23)
(6.33562e-05 -0.000648281 4.9027e-23)
(8.90412e-05 -0.000735817 -1.34553e-23)
(0.000217726 -0.00107358 6.65466e-24)
(4.24234e-05 -0.000953765 4.61316e-22)
(0.00260595 8.58898e-05 -6.00476e-23)
(0.00242627 0.000746185 9.64767e-23)
(0.00231655 0.00136799 5.68596e-24)
(0.00214332 -0.000605456 -1.03446e-22)
(0.00235868 -0.000539865 -1.60316e-23)
(0.00144559 0.00236906 -2.11768e-25)
(0.00129474 0.0027429 7.66748e-25)
(0.00179502 0.00245741 9.43204e-24)
(0.00213543 0.00189182 -6.13143e-24)
(0.000376871 -0.00138529 -8.03549e-23)
(0.000578786 -0.00140685 6.95119e-24)
(0.000766591 -0.00142513 -3.35007e-23)
(0.000994583 -0.00143546 -1.27549e-23)
(0.00125608 -0.00133933 6.6075e-22)
(0.00150422 -0.00131529 -8.29012e-25)
(0.000205713 -0.00119615 0)
(0.00208335 -0.00083608 -3.13865e-23)
(0.00175864 -0.00119486 2.6819e-23)
(0.00190282 -0.0010398 -5.37271e-23)
(-7.49195e-05 -0.000687947 2.2857e-21)
(0.000563975 0.00318417 2.00328e-23)
(0.000932477 0.00313977 1.91415e-22)
(-0.000322631 0.00231672 2.44579e-24)
(0.000158412 0.00309732 4.10735e-25)
(-0.000270493 0.00297343 1.06729e-24)
(-0.00148838 0.000472787 2.13133e-23)
(-0.00139171 0.000258088 1.95422e-22)
(-0.00106145 -0.000110985 -8.54122e-24)
(-0.00119953 4.14311e-06 2.813e-23)
(-0.000756178 -0.000203456 0)
(-0.000915778 -0.000206942 4.82934e-26)
(-0.00135818 0.000815419 -1.83324e-23)
(-0.00144142 0.00144482 -4.48289e-23)
(-0.00153774 0.00123205 -4.59327e-24)
(-0.00132305 0.00159014 1.67992e-23)
(-0.00127439 0.00180692 5.59878e-24)
(-0.000915628 0.00206458 -4.13472e-23)
(-0.000235244 -1.32039e-06 0)
(-0.000182766 4.64434e-05 0)
(-0.000295709 -8.97414e-05 -1.17617e-24)
(-0.000535935 -0.000173726 2.27424e-22)
(-0.000425872 -0.000219481 -1.67361e-22)
(-0.000653359 -0.000232233 -1.00217e-23)
(-0.000609579 -0.000213701 -1.95386e-23)
(-0.000154098 1.05093e-05 0)
(-7.61049e-05 2.92506e-05 -2.05011e-24)
(-7.62919e-05 -3.80232e-05 -2.08368e-25)
(-2.71123e-05 -0.000482415 -1.39389e-24)
(1.51183e-05 -0.00060457 -2.71373e-24)
(0.000124995 -0.000704202 1.9842e-21)
(6.35329e-05 -0.000744201 -7.36181e-24)
(-1.59069e-05 -0.000706902 1.3928e-24)
(6.20298e-05 -0.000782123 4.28623e-22)
(-1.46793e-05 -0.000856243 2.37204e-23)
(-5.66936e-05 -0.000936876 -2.24282e-22)
(0.00276655 0.000125765 -4.95674e-23)
(0.00273668 -0.000125849 5.21563e-25)
(0.00271282 0.00043948 -1.11246e-22)
(0.00267663 0.000868169 2.26246e-23)
(0.00260529 0.00127086 2.75103e-24)
(0.00258593 0.00154397 1.45614e-23)
(0.00262809 -0.00039657 1.047e-22)
(0.00252615 -0.000701868 1.30338e-23)
(0.00119596 0.00303834 -5.50137e-24)
(0.00149636 0.00303804 9.16972e-25)
(0.00195927 0.00276057 -3.76054e-25)
(0.00211328 0.00247622 6.56996e-24)
(0.00251779 0.00180932 7.14922e-24)
(0.00231119 0.00219923 8.20483e-24)
(0.000379426 -0.0015959 9.10306e-24)
(0.00017819 -0.00144505 2.11295e-24)
(0.000606683 -0.00161798 8.58789e-24)
(0.00117663 -0.00164986 6.67999e-24)
(0.00168897 -0.00148256 2.01819e-22)
(7.59888e-05 -0.0013098 0)
(0.000107281 -0.00116162 0)
(0.00223724 -0.000998658 -3.61666e-23)
(0.000277981 0.00348685 -2.41293e-23)
(0.00109131 0.00345001 -9.88761e-24)
(-0.000533383 0.00263253 1.14769e-24)
(-0.000650108 0.00228875 -5.58654e-24)
(-0.00065476 0.00309398 1.50953e-22)
(-0.00153434 0.000688595 1.71635e-22)
(-0.00172101 0.000531556 -7.75082e-23)
(-0.00136261 0.000155694 -2.51081e-24)
(-0.00156009 0.00027368 -1.0925e-23)
(-0.000993685 -0.000263871 -1.00811e-23)
(-0.00136841 2.4204e-06 -2.87517e-24)
(-0.0015545 0.000900533 -5.03084e-24)
(-0.00159202 0.00167614 6.89193e-24)
(-0.00180188 0.00110103 -1.12309e-23)
(-0.00117105 0.00200919 -4.35783e-23)
(-0.0013723 0.00197641 2.26543e-24)
(-0.000965977 0.00211841 -3.83518e-22)
(-0.000190514 -1.40762e-05 0)
(-0.00021236 -2.90731e-05 -2.07866e-25)
(-0.000238805 -0.000111802 2.60362e-25)
(-0.00029584 -0.000162996 2.21698e-25)
(-0.000352258 -0.000236094 -1.38173e-22)
(-0.000414372 -0.000303334 2.63143e-25)
(-0.000650914 -0.000288607 1.41376e-22)
(-8.89437e-05 2.89571e-05 -9.30643e-25)
(-6.77614e-05 6.34246e-05 1.39269e-22)
(-0.000160983 -2.28521e-05 -3.61188e-22)
(-1.64488e-05 -0.000577621 1.27765e-24)
(-8.31547e-05 -0.000524546 5.63412e-22)
(-1.67988e-05 -0.000602621 -1.74533e-24)
(-0.000136264 -0.000689889 5.24471e-25)
(-4.78558e-05 -0.000646619 -2.60654e-24)
(-8.0254e-05 -0.000680949 5.90214e-23)
(-1.45614e-05 -0.000762433 3.24009e-24)
(-0.000147938 -0.000946879 2.58922e-22)
(-0.000158941 -0.000853568 -1.8893e-22)
(0.00298206 0.000215117 -1.86654e-22)
(0.0030101 -0.000289386 5.65749e-24)
(0.00295612 0.00110323 2.6022e-24)
(0.00291418 0.00176888 -1.8014e-22)
(0.00263062 -0.000950605 2.12209e-23)
(0.00291103 -0.000739336 -3.89699e-23)
(0.00181274 0.00307634 -1.036e-24)
(0.00162636 0.00340327 7.48041e-23)
(0.0022145 0.00311849 -6.85341e-24)
(0.00248644 0.00242775 -1.55056e-23)
(0.000492469 -0.00169389 1.04888e-22)