/*--------------------------------*- C++ -*----------------------------------*\
| =========                 |                                                 |
| \\      /  F ield         | OpenFOAM: The Open Source CFD Toolbox           |
|  \\    /   O peration     | Version:  v2012                                 |
|   \\  /    A nd           | Website:  www.openfoam.com                      |
|    \\/     M anipulation  |                                                 |
\*---------------------------------------------------------------------------*/
FoamFile
{
    version     2.0;
    format      ascii;
    class       surfaceScalarField;
    location    "1";
    object      phi;
}
// * * * * * * * * * * * * * * * * * * * * * * * * * * * * * * * * * * * * * //

dimensions      [0 3 -1 0 0 0 0];
oriented        oriented;


internalField   nonuniform List<scalar> 
18781
(
0.223472
0.700508
0.822118
-0.598646
0.758754
-0.0582456
0.21195
0.610168
0.353304
0.268093
0.490661
0.828896
0.722846
-0.510896
0.878261
0.887281
-0.533977
-0.359827
0.850488
0.469069
0.734432
-0.011586
0.376385
0.134813
0.743447
0.436752
0.0779858
0.772502
0.686591
-0.217522
0.869246
-0.696421
0.684835
-0.320036
0.109608
0.633839
0.95155
-0.514798
0.764577
0.88211
0.624213
0.386965
0.48228
0.970767
-0.285931
0.631514
1.0208
0.465373
-0.0232757
0.787852
-0.211718
1.09383
0.881309
-0.257097
-0.438119
0.920399
0.532648
-0.729264
0.443332
-0.0977498
0.746207
0.274597
-0.403525
0.868898
0.858033
0.576134
0.398617
0.695211
0.531143
0.443587
0.476812
0.877536
-0.344888
0.978094
-0.534761
-0.786064
0.688314
0.325152
0.421054
0.718184
0.576646
0.082834
0.422257
0.435776
0.998391
0.72377
0.082767
0.612444
1.25831
-0.315076
0.791888
0.56246
0.633206
0.153553
-0.260426
0.68148
0.457758
0.821739
-0.245093
0.904573
-0.392007
0.827784
0.629292
0.3691
0.239042
0.484728
0.712059
0.851486
0.866306
0.210466
0.581422
-0.160164
0.722624
0.933876
-0.30067
-0.58223
0.735783
0.551049
0.130431
0.668224
0.725636
0.322342
0.54445
0.283334
0.91355
1.03578
-0.113849
0.825907
0.0671399
0.784346
0.641989
0.224317
-0.332816
0.914238
0.773712
0.389809
-0.952486
0.651817
-0.216704
0.798655
-0.254997
0.980633
0.759272
-0.436929
0.925323
0.799701
0.245698
0.790079
0.893047
1.03004
0.883399
0.197815
0.716422
0.512103
0.261609
0.901912
1.07359
-0.421774
0.542568
0.996471
0.696953
0.543704
0.103245
0.822079
-0.0870522
0.886753
0.778057
0.0120217
0.000738091
0.892309
0.363399
0.666644
0.62701
0.256389
0.786503
-0.0700804
-0.471797
0.733405
0.668635
0.233277
0.601794
-0.892482
0.470707
-0.349914
0.532334
0.464137
0.810935
-0.113982
0.862676
-0.318972
0.730255
0.735026
0.887491
0.563126
0.214932
0.544356
0.285976
0.606333
0.649375
0.135901
0.530744
0.841087
0.187598
0.598905
0.598555
0.57672
0.156686
0.809996
0.693397
-0.0916024
0.936713
-0.466006
0.512762
0.651734
0.491962
0.809997
-0.134257
0.864512
-0.192279
0.927305
0.154873
0.732619
0.699026
-0.477876
0.692808
0.0664795
0.0800974
0.526236
0.289242
0.360133
0.819986
0.70683
0.753176
-0.154271
-0.201768
0.800322
0.850083
0.608229
-0.689067
0.597464
0.247647
-0.875052
0.409047
-0.36229
0.718214
-0.461442
0.953404
0.348555
0.672233
0.50961
0.417695
0.664483
0.812716
0.056001
0.643025
0.539635
0.153173
0.886369
0.392983
0.427003
-0.0655642
0.772394
0.429863
0.323313
0.646051
0.0214252
0.828657
-0.154023
0.762252
0.918439
-0.320975
0.775753
-0.528106
0.808272
-0.399225
0.591114
0.445487
0.272726
0.725664
-0.377109
-0.0461742
0.718407
-0.285722
0.703417
-0.126575
0.791058
-0.0103414
0.823057
0.595636
0.149047
0.493978
0.598661
0.243882
0.642487
0.636864
0.57605
0.439094
0.72622
0.532086
-0.102223
0.59604
0.546732
0.0993192
0.939864
0.674634
0.378443
0.383808
0.454778
0.280166
-0.686918
0.287693
-0.095804
0.704293
0.0213714
0.510027
0.432686
0.576842
0.780717
0.195994
0.627064
0.464975
0.130661
-0.0638732
0.557851
0.399926
0.198735
0.838481
-0.118136
0.755
0.457914
0.858968
0.402331
0.323888
0.245075
0.287011
0.444509
0.348354
0.247686
0.477763
0.419925
0.519939
0.0863155
0.588319
-0.15945
0.543258
-0.601373
1.05615
0.847606
-0.56744
0.775108
-0.487415
0.608489
-0.663154
0.684525
-0.153127
0.835017
-0.401346
0.978188
0.196328
0.584389
-0.144383
0.771446
0.401102
0.530586
0.144239
0.413613
0.547089
0.358231
0.48025
0.396467
0.358534
0.602153
0.412024
0.446945
0.735912
0.492761
0.431199
-0.144189
0.456028
-0.0115186
0.0138995
0.463863
0.746603
-0.326678
0.606255
0.428869
0.557158
0.246233
0.864196
0.191955
0.207668
0.121073
0.644155
0.04037
0.688593
0.433671
0.37436
0.603827
0.570688
0.440006
0.29228
0.479167
-0.102526
0.503628
0.42806
-0.0560413
0.469654
0.0761348
0.470954
0.754698
0.77253
-0.266567
0.6251
0.335586
0.777894
0.53516
0.200752
0.345828
0.146933
0.222074
0.209125
0.311839
0.452344
0.437803
0.3088
0.537518
0.282491
0.323764
0.71136
0.17161
0.385548
-0.619415
0.865648
-0.69684
0.888794
0.804034
-0.596366
0.765229
-0.683419
0.723789
0.00517401
0.968831
0.542693
0.0611341
0.306679
0.264009
0.746685
-0.210813
0.68998
0.447587
-0.0770201
0.50508
0.199835
0.269819
0.421963
0.393934
0.577139
0.177559
0.184277
0.588253
0.456988
0.168112
0.535421
0.978646
0.369007
0.395517
-0.186392
0.334359
-0.0225195
0.0778939
0.374451
0.631162
-0.193358
0.632563
-0.278741
0.81626
0.294544
0.416817
0.466154
0.463441
0.184619
0.168808
0.610053
0.168863
0.641643
0.0821461
0.793383
0.750888
0.217943
0.806702
0.812022
0.535872
0.874256
0.260476
0.187111
0.262312
0.242768
0.530295
0.0389953
0.382968
0.0120002
0.381934
-0.0092357
0.586375
0.634547
0.579017
-0.294474
0.462586
0.240947
0.510462
0.468184
0.0230059
0.346001
0.418523
0.147967
0.351931
-0.0837563
0.714918
0.622902
0.548807
0.0353833
0.381433
0.0416303
0.424523
0.252666
0.210776
0.826288
-0.641669
-0.683445
0.852253
-0.303436
0.913489
0.810506
-0.703792
0.785938
0.0895905
0.728405
0.574843
0.231859
0.704927
0.107096
1.11071
0.145629
0.728627
0.449423
-0.0898729
0.332641
0.181596
0.3487
0.384996
0.394968
0.292061
0.549066
0.0373082
0.465091
0.169456
0.724646
-0.0900639
0.55265
0.422543
0.707098
0.288988
0.129535
-0.211895
0.359862
0.140036
0.422862
0.292056
-0.196147
0.819048
0.58419
0.423064
0.165417
0.259107
0.418082
0.350812
0.142843
0.168837
0.851338
0.000915162
0.547902
0.717342
0.64918
0.136758
0.816687
0.750588
-0.0221831
0.936786
0.857683
0.42628
0.684434
-0.0262919
0.754919
0.377491
0.0719323
0.274277
0.0583632
-0.0446781
0.393378
0.0155651
0.369431
0.166677
0.228291
0.226307
0.0657543
0.0241771
0.524889
0.5024
-0.261578
0.431034
0.748823
0.332479
0.291072
0.684915
0.304553
-0.161846
0.291381
-0.0880072
0.447869
-0.236056
0.658918
-0.372679
0.664735
0.44637
0.348134
0.246696
0.176368
0.505803
0.326499
0.091583
0.262805
0.727771
-0.584928
0.818017
-0.862104
0.863019
-0.43988
0.987782
0.560315
0.157027
-0.64874
0.785499
0.167947
0.096729
0.840057
0.840318
0.017365
-0.314132
0.740412
0.658143
-0.00846706
0.763386
0.332813
0.34621
0.28467
0.116653
0.276725
0.127388
0.242043
0.294065
0.294045
0.639985
-0.115096
0.508684
-0.00628425
0.438311
-0.00727678
0.740356
0.449132
0.376164
-0.0850921
0.829511
0.0358452
0.268708
0.286023
0.247453
0.043928
0.246888
0.41203
0.132098
0.532637
-0.270815
0.717185
0.524502
0.270628
0.235175
0.0992855
0.227214
0.354388
-0.134333
0.233089
0.423139
0.543372
0.44441
0.2895
0.700399
0.633142
0.152356
0.826903
0.937047
0.525925
0.846876
0.210328
0.530084
0.868471
-0.0395666
0.802953
-0.0242743
0.357087
0.301831
0.0443782
0.282997
0.0016733
-0.106976
0.383701
-0.0088438
0.250887
0.138086
0.155979
0.207715
0.0863302
0.126661
0.513324
0.393588
0.432026
0.368887
0.076761
0.663595
0.36404
0.283298
0.259864
0.247818
0.0382044
0.291746
-0.229177
0.476065
0.0279058
0.384124
0.849283
0.560543
0.295325
0.369914
0.530499
-0.0692268
0.29644
0.285161
-0.866231
0.731898
-0.488726
0.911864
-0.583662
1.02807
0.989899
-0.594365
0.746721
0.232539
0.334078
0.60297
0.860003
0.895717
-0.301256
0.83134
0.828904
0.376198
0.426755
0.277557
0.250111
0.327375
0.209388
0.348746
0.0349553
0.111043
0.139844
0.249129
0.242309
-0.515703
0.642364
0.590085
-0.122115
0.418175
0.0138513
0.418901
-0.0500141
0.536803
0.126792
-0.0239009
0.38794
0.266774
0.0165243
0.117065
0.142799
0.323365
0.253626
0.0381205
0.068118
0.407947
0.452242
0.623058
0.226225
0.251781
0.308762
0.0463452
0.323568
0.258536
0.271963
0.342786
0.884534
-0.152636
0.395808
0.328202
0.851011
0.17706
0.0894486
0.90045
1.00427
-0.257554
0.817011
-0.200063
0.803033
0.558746
0.695654
0.857025
-0.0256851
0.386569
0.442335
0.913001
0.813324
0.0182934
0.259264
0.318076
-0.0679654
0.235908
0.0914664
-0.095362
0.30475
0.324845
0.353032
0.256909
0.123109
0.126021
0.146947
0.666302
-0.0239378
0.716877
0.29606
0.432752
0.337926
0.0939889
0.172785
0.27015
0.236788
0.179428
0.143938
0.217548
0.0363562
0.371591
0.0735704
0.378672
0.42502
0.198038
0.478006
0.382333
0.039852
0.283716
0.298388
0.308319
0.097667
0.245119
0.851639
-0.58519
0.980998
-0.508182
0.836385
0.94046
-0.765604
0.942664
0.449764
0.450687
0.559458
0.147213
0.65582
0.70596
0.696562
0.287468
0.569557
0.680274
0.729803
0.771341
0.14166
-0.011764
0.825088
0.254202
0.191298
-0.177144
0.268611
0.127606
-0.0314937
0.356339
0.294138
0.0588935
0.0849945
0.171914
0.208103
0.272968
0.3915
0.274802
-0.444723
0.420786
0.654886
0.0619906
-0.263472
0.559532
0.169281
-0.0981669
0.436093
0.180035
-0.0072501
0.180167
0.0899828
0.153667
0.0831206
0.241605
-0.0402054
0.257754
0.030003
0.341588
0.408675
-0.0780947
0.503114
0.647802
0.0220768
0.455929
0.40441
0.0103076
0.273409
0.0350612
0.263327
0.343381
0.255426
0.266449
0.472816
0.0707806
0.37514
0.56532
0.95686
-0.0141958
0.825827
1.0638
-0.0398342
0.695654
0.656728
0.932012
-0.362456
-0.0498799
0.730154
0.718039
-0.0502401
0.821581
0.796546
0.774848
0.177656
0.0765459
0.368954
0.170314
0.0982967
-0.122566
0.250173
0.262645
0.258172
-0.219069
0.277963
0.0230682
0.148846
0.0307374
0.177366
0.150401
0.453491
-0.222811
0.497612
0.114809
0.419218
0.00156749
-0.251195
0.420476
0.184898
0.10406
0.0759754
0.172917
-0.101379
0.191362
0.176735
0.18718
0.201399
0.156374
-0.0980802
0.439668
-0.0462862
0.454961
0.377834
0.326637
0.176477
0.354014
0.293788
0.358123
0.0288972
0.244512
0.292224
0.2453
0.0200706
0.235356
-0.57524
0.841689
0.794692
-0.321876
0.865473
-0.261004
0.826323
0.695856
-0.785576
0.77138
0.347327
0.4785
0.488562
0.645774
0.657694
0.155972
0.77604
0.367699
0.874011
0.819707
0.00187448
0.748612
0.047934
-0.0832767
0.858125
0.24686
0.149885
-0.151687
0.249984
0.0984853
-0.0190666
0.281711
-0.0874559
0.345628
0.227351
0.0506115
0.179583
0.0843814
0.0929845
0.234783
-0.23982
0.69331
0.196408
0.257793
-0.321375
0.436183
-0.365595
0.367163
0.0991014
-0.181441
0.366339
-0.105138
0.181113
0.0677796
0.117641
0.0737213
0.144569
0.0321657
0.113847
0.0733336
0.22147
0.172529
-0.0161545
0.152203
0.287465
0.283908
0.171053
0.391771
-0.0139363
0.680651
0.568248
0.641115
0.344187
-0.0128458
0.257357
0.0894237
0.2028
0.334724
0.22251
0.835203
0.0064861
0.513327
0.0798965
0.181377
0.644947
-0.157569
0.853425
0.842108
-0.0707278
0.659876
0.907895
0.0924134
0.553361
0.750107
-0.0677168
0.843757
0.92106
0.790735
-0.0371534
0.85686
0.750486
-0.478607
0.526541
0.820972
-0.0274807
0.27434
-0.105592
0.255477
0.222503
-0.0994886
0.197974
0.208285
0.194255
0.164187
-0.14735
0.197961
0.0851451
0.0944383
0.17813
0.135294
0.214703
-0.272416
0.468824
-0.331702
0.589495
0.0705877
0.0947468
-0.25455
0.353651
0.111789
0.0985401
0.082573
0.18542
0.24625
0.0492729
0.0952966
0.146012
0.171874
0.205315
-0.13282
0.285023
0.0760311
0.211434
0.359939
0.51524
0.396125
0.284526
0.137916
0.430332
0.0398187
0.601297
0.0647851
0.192572
0.267585
0.201904
0.0183012
0.204209
0.914381
-0.431295
0.944621
-0.579541
0.659438
-0.119409
0.764356
0.684539
0.734016
-0.848741
0.778013
0.699695
0.750984
-0.74175
0.674033
0.163729
0.680028
0.17931
0.954464
1.03123
-0.174372
0.846513
-0.0960266
0.816043
-0.289502
-0.251002
1.07197
0.168749
0.108127
0.196384
0.0261197
-0.0233479
0.221322
-0.01024
0.218525
-0.0857912
0.280046
-0.143016
0.307203
0.204051
-0.00608996
0.143711
0.00234437
0.175785
0.15839
-0.0230954
-0.377045
0.591748
0.137121
0.21245
-0.332053
0.402641
-0.290007
0.384754
0.0215981
-0.214552
0.326341
-0.0921489
0.174722
0.0932714
0.0843523
0.161898
-0.0620903
0.157387
0.083922
0.056371
0.115503
0.223617
0.0782417
0.206781
0.289676
0.0373202
0.322619
0.213187
0.302053
0.00695836
0.389167
-0.152324
0.43685
0.351103
0.278008
0.608255
-0.0521707
0.244743
0.0975222
0.170063
0.299426
0.152038
0.483086
0.36508
-0.189303
0.0446759
0.71968
-0.202059
0.886599
-0.0712875
0.805304
0.701129
0.0768839
0.744371
0.930294
-0.166246
0.840278
-0.193406
0.873434
0.703462
0.454752
0.576481
0.672141
0.720016
0.302246
0.507102
0.564871
-0.0432899
0.212038
0.201245
-0.093118
0.153094
-0.129515
0.155635
0.135042
0.0918068
0.193811
0.132734
0.13703
0.0926505
0.195155
0.146056
0.15269
-0.325797
0.462919
-0.422028
0.634478
0.112634
0.0589566
-0.246319
0.267917
0.0800229
0.0519293
0.122793
0.177624
0.140582
0.0213158
0.0975476
0.0598393
0.140293
0.00579988
0.109703
0.0674874
0.156129
-0.0840706
0.290852
0.326996
0.00338331
0.319235
0.305436
-0.0191514
0.408318
0.417699
0.262713
0.0883895
0.540721
0.154012
0.454243
0.105871
0.138872
0.275935
0.215356
0.219525
0.81335
0.693477
-0.328396
0.504174
-0.0633306
0.783011
0.499069
0.815311
0.741973
0.746229
-0.669345
0.0407938
0.703577
0.764048
0.646872
0.290871
0.582563
0.994333
0.961854
-0.465931
1.04241
0.93987
-0.267729
0.712115
0.00790082
-0.386134
0.688381
-0.413093
0.977964
0.118921
0.155682
-0.00258847
0.151383
0.00425191
0.159053
-0.024011
-0.0441058
0.135913
0.139947
0.053864
0.272681
-0.102489
0.239519
-0.216968
0.309618
0.1938
0.00135513
-0.00424503
0.150301
0.131557
0.0211332
0.0408908
0.248344
-0.203093
0.315727
-0.308317
0.367274
0.414704
-0.146788
-0.183645
0.263668
-0.0797549
0.131684
0.128592
0.0978688
0.0308554
0.109727
0.177445
0.0933025
-0.0511725
0.111012
0.0891205
0.0375134
0.0721895
0.0516044
0.239247
0.0316841
0.295312
-0.0176751
0.33691
0.393826
0.562331
-0.126738
0.544436
0.413983
0.495036
-0.0546602
0.193532
0.195479
0.0804553
0.226479
-0.0111237
0.164865
0.484953
0.756664
-0.252491
-0.030758
0.813769
-0.496796
0.995865
0.684082
0.131229
-0.0931822
0.835155
0.249433
0.0873191
0.672819
0.764829
-0.124755
0.771628
-0.351599
0.934162
0.58124
0.515362
0.446491
0.473939
0.447488
0.594924
0.444386
-0.659303
0.667204
0.0290775
0.50373
0.474234
-0.0993403
0.218261
0.0563419
0.148794
-0.117167
0.121419
0.114947
0.107546
0.0187453
0.247664
0.170192
0.0225515
0.125973
-0.142719
0.144074
0.0763001
0.0740005
0.0974333
-0.446022
0.486913
-0.265155
0.513499
0.211611
0.00740975
-0.0787489
0.116881
0.00831925
0.123365
0.0574492
0.0711433
0.128724
-0.0499494
0.159676
0.127496
-0.0217324
0.115035
0.0892794
0.126634
0.129639
0.278084
0.270931
0.277637
0.00929582
0.327615
0.403122
0.235796
0.326535
0.241105
0.303332
0.401845
0.012138
0.730833
0.139589
0.0539432
0.184356
0.220044
0.0284855
0.13638
0.722913
0.470423
0.0993439
0.714425
0.635353
0.360513
0.590899
0.766582
0.934499
-0.74856
0.997993
-0.613757
0.701076
-0.0929099
0.765729
0.640073
0.420029
0.38343
0.550732
0.96467
0.962851
0.950221
-0.481152
0.955091
-0.162985
0.757909
-0.420714
0.865101
0.24649
-0.405111
0.434188
-0.449321
0.923556
0.075542
-0.0867213
0.143063
0.062073
-0.0213446
0.142764
0.0948392
0.0201078
0.121915
-0.0143693
0.113584
0.0433702
0.204293
0.191279
-0.0210876
0.213831
0.261398
-0.135425
0.237315
-0.0932406
-0.0297468
0.103747
0.100155
-0.00272204
0.515292
-0.0283783
0.250137
0.108388
0.281936
-0.0703248
0.289346
-0.296996
0.218247
-0.155299
0.27218
0.137043
0.0320137
0.0913512
0.103157
0.0680621
0.091614
0.155981
0.0852881
-0.011164
0.100443
0.11547
0.0970134
0.0326252
0.0842924
0.193792
0.0363022
0.234629
-0.0178211
0.295458
0.238375
0.0892394
0.316742
0.0863797
0.567639
-0.164573
0.467905
0.237272
0.32888
0.637923
0.190323
-0.094968
0.279324
0.125076
-0.125975
0.8404
-0.486646
0.847159
-0.353166
0.944065
0.413416
0.66165
0.272849
0.511348
0.639754
0.640976
1.06101
-0.340276
0.891008
0.515349
0.486511
0.47634
0.526659
0.423562
0.383949
0.804838
0.150253
0.641853
0.600848
0.157061
-0.320805
0.567295
0.742674
-0.308485
0.513308
0.410247
0.13396
-0.0584176
0.175442
-0.0323791
-0.0628565
0.12493
-0.0956549
0.0743103
0.0799073
-0.0841967
0.104304
0.0377182
0.085786
0.0179296
-0.125365
0.168736
0.183206
0.263982
-0.0501515
0.106099
0.128557
0.111949
0.040719
0.101025
0.361519
-0.389898
-0.151836
0.401973
0.424214
-0.315826
-0.330403
0.260078
-0.00765011
0.425892
-0.207645
-0.058223
0.039425
0.0976185
0.0153167
0.0760345
0.0683304
0.0348266
0.107487
-0.0203966
0.112011
0.135584
-0.0214176
0.106706
0.0790259
0.0446043
0.0708656
0.0395002
0.0575133
0.100956
-0.135603
0.219895
0.230094
0.216808
0.199648
0.0958098
0.324755
0.288888
-0.0579259
0.625565
0.409979
-0.30216
0.539432
0.0267202
-0.0175554
0.655478
-0.00324801
0.193571
0.143721
-0.0477034
0.172779
0.237681
0.602719
0.467106
0.380053
0.587282
0.356783
0.880522
0.899331
0.860131
0.510601
-0.0825358
0.72229
0.720729
0.388842
0.502166
0.904191
1.01317
1.07719
0.93687
-0.2747
0.658649
-0.643824
0.794076
0.504133
0.137719
0.661194
0.421869
0.617027
-0.0497321
0.115729
-0.497323
0.907571
0.117025
0.0925504
-0.0643626
0.138673
-0.0428042
0.122711
0.0716149
0.0326896
-0.0809971
0.118715
0.00478894
0.0895445
0.172909
-0.00417357
0.205142
-0.0219357
0.15499
0.247722
-0.141624
0.232201
-0.103643
0.175147
-0.0631976
-0.111511
0.15223
0.0846242
0.016401
0.390702
-0.0291823
0.0359944
0.238866
0.0861464
0.308935
-0.0488566
0.301285
0.0936397
0.189499
0.112935
0.110861
0.0250499
0.0824372
0.137061
0.132336
0.0571507
0.049555
0.00524424
0.0737816
0.0841045
0.0761098
-0.0302668
0.08778
0.0706888
0.15582
0.0640754
0.0385362
0.191558
0.200549
0.0162594
0.296358
0.303365
0.0213898
0.210569
0.0783183
0.60801
-0.195505
0.605484
0.343927
0.330085
0.572942
0.145867
-0.0332698
0.176991
0.182611
-0.0098323
-0.385423
0.988142
-0.509613
0.889666
-0.497757
0.85454
0.382765
0.632306
0.267025
0.618425
0.241706
0.336867
0.721441
-0.188279
0.690446
0.406868
0.449127
0.564043
0.381884
0.695303
0.544783
0.392087
0.342327
0.0148252
0.517724
0.276353
0.655443
-0.318639
0.979833
0.414325
0.00754385
0.364593
-0.318789
0.434518
0.520835
0.386736
0.00551385
-0.0550721
0.147623
0.0251819
0.0958687
0.0676394
-0.0486928
0.0813823
0.0700226
0.0894132
0.150973
0.170973
0.212691
-0.057701
0.0905771
0.109048
-0.174801
0.111603
-0.0225712
0.0735517
0.30758
-0.336762
0.339695
-0.303701
0.334876
-0.0960103
0.421022
-0.232008
0.183151
0.301556
-0.207916
0.263732
-0.0742329
0.0390047
0.0739304
0.0244403
0.0864209
0.121442
0.0269209
0.11014
0.159257
-0.0315074
0.0810624
0.0422742
0.0255712
0.0585333
0.0411562
0.0349536
0.0419768
0.0458032
-0.00325571
0.0739445
0.194356
-0.123528
0.187604
0.207817
0.181102
0.115257
0.231959
0.25942
0.531297
0.0767122
0.426526
0.178958
-0.0477443
0.391671
-0.0782705
0.408356
0.516618
0.056324
0.107681
0.0381868
0.149342
0.0534625
0.0978483
0.217809
0.770333
0.335076
0.55459
0.591765
0.262775
0.717841
0.850116
0.885449
0.83347
0.853485
0.533162
0.508734
0.181712
0.915602
0.99391
0.945927
-0.0208218
0.716125
0.912922
0.561854
-0.219527
0.576679
0.680973
-0.404621
0.336804
0.71185
0.267984
-0.298507
0.306051
0.422044
-0.0574514
0.102233
0.535138
-0.100619
-0.55482
0.941556
-0.104925
0.110439
0.0426976
-0.0756785
0.10086
0.0913544
0.00451423
-0.0399354
0.107575
0.00570381
0.0578382
0.0121844
-0.0144517
0.103865
0.178903
-0.0279294
0.140403
0.0305706
0.121202
0.243777
-0.1532
0.187472
-0.0784245
-0.079262
0.190865
-0.115764
0.0931927
-0.00941211
0.0829638
0.238534
0.0690458
0.00293312
-0.00214474
0.142524
0.0317248
0.337431
-0.15428
0.129515
-0.229073
0.154841
0.0983707
0.0831652
0.0462101
0.0752318
-0.00284848
0.112988
0.0808248
0.0784325
0.0716502
0.0834305
0.0605248
0.0112556
0.0472777
0.0532324
-0.0106726
0.0564758
0.063272
0.0205655
0.17379
0.13963
0.0479735
-0.0158886
0.223706
-0.167785
0.283041
-0.108337
0.340296
0.151084
0.587621
0.503238
-0.279493
0.458451
-0.354016
0.306271
0.112178
0.262025
0.0543401
0.119012
0.110472
0.0388692
0.163935
-0.0513518
0.1492
0.0330651
0.737268
0.553915
-0.576932
0.839707
0.14091
0.251548
0.598568
0.552087
0.333363
0.615581
0.217889
0.827565
0.0259206
0.534021
0.715732
0.360781
0.393712
0.600199
0.340442
0.605485
0.691028
-0.066583
0.782708
0.519473
0.393449
0.202517
0.653372
-0.0766932
0.386534
0.294439
0.248751
0.723338
-0.504771
0.772755
0.23663
0.404633
-0.0985816
0.347181
0.329668
-0.227435
-0.276396
0.175777
0.549612
0.391944
-0.00532519
-0.0687251
0.111423
0.112675
-0.0118141
0.0514191
-0.0579223
0.0624366
0.0388496
0.063542
-0.0581131
0.0702975
0.0685121
0.0457518
0.112473
-0.122549
0.153119
0.192794
-0.0715926
0.0147037
0.0342722
0.11437
-0.136756
0.057494
0.0683167
-0.0435633
-0.16016
0.229205
0.222437
-0.219504
-0.20682
0.204676
-0.125936
0.26846
0.247102
-0.215378
0.0928222
0.209365
-0.0798502
-0.0605372
0.0372396
0.0611311
0.0165716
0.0665936
0.0834497
0.0723833
0.0494131
0.0635751
0.127846
0.000280531
0.0713697
0.0558212
0.0276092
0.0151895
0.0453353
0.0624672
0.00227544
0.050957
0.0587513
0.0057697
0.0575023
0.160196
0.157902
-0.127055
0.175028
0.0559211
0.148098
0.134943
0.299181
0.72692
-0.139298
0.466518
0.0367202
0.412717
0.045734
0.269543
0.0367283
0.381721
0.303944
-0.0419189
0.358284
0.0676598
-0.112542
0.151411
0.0368803
0.0366584
0.86063
0.0789445
0.658323
0.694825
0.579434
0.260273
0.803635
0.677512
0.948944
0.797323
0.75284
0.716372
1.07715
0.913184
0.940641
-0.163005
0.76849
0.624445
0.619703
0.943061
-0.32163
0.524147
-0.452454
0.37576
0.549195
-0.254756
-0.199066
0.447817
0.218567
0.732283
0.040472
0.321458
-0.0848276
0.222876
0.0255511
0.0532718
-0.343494
0.116059
0.344207
-0.16843
-0.42201
0.813953
-0.085188
0.0798628
0.0262348
0.0547522
-0.0993068
0.0874927
-0.0281134
0.0795325
0.0628454
-0.000408865
-0.0475865
0.0864361
-0.0357648
0.0345327
-0.00451986
0.0730319
-0.0366448
0.0823966
-0.0517612
0.164234
0.101358
0.0926418
-0.165012
0.179716
-0.1575
0.191773
-0.0431306
0.12748
-0.069986
0.119576
-0.0512597
-0.109373
0.0658094
-0.270514
0.110354
0.103269
-0.0480762
-0.284931
0.0654267
0.00254472
-0.0802552
-0.075034
-0.139534
0.232356
-0.219317
0.139467
-0.16221
0.101673
0.0777027
0.0723633
0.0234564
0.0599933
0.0958397
-0.0426048
0.10618
0.0415363
0.0863093
0.0561018
0.0668499
0.0729446
-0.000614394
0.0630816
0.0503426
0.00890208
0.0498492
0.0664043
0.0126842
0.147511
0.15583
0.00207172
0.101996
0.0730327
0.211751
0.21724
-0.0822969
0.222456
0.0767252
0.32722
0.449437
-0.332805
0.378539
-0.283379
0.320107
0.0489164
0.180537
0.0749056
0.109196
0.108169
0.0432421
0.145049
-0.0922327
0.128891
0.423818
0.436812
1.08214
0.694193
0.954466
0.276687
0.526948
0.954199
0.363854
0.58509
-0.163337
0.960661
-0.11178
0.86462
0.655144
0.466682
0.446502
0.32103
0.619611
0.620353
0.148137
-0.0878119
0.712257
0.556059
0.0636441
0.413572
0.52949
0.0716936
0.454621
-0.0788601
0.425722
0.123474
-0.521102
0.266346
0.255555
-0.0732846
0.644289
0.644471
-0.531277
0.571749
-0.319913
0.235085
-0.0838619
0.306738
-0.299506
0.325057
0.247475
-0.194203
0.270737
-0.154678
0.0242946
0.0790441
0.0305207
0.783433
-0.0295099
-0.0635957
0.0898305
0.0627479
-0.00799566
0.069784
0.0177087
0.0347321
0.031946
0.062339
0.0228404
-0.0350665
0.0695992
0.0363871
0.0473301
-0.0474368
0.148795
-0.0588778
0.15152
0.0267608
0.0175057
-0.132589
0.0894587
0.121893
0.00558693
-0.10404
0.0340544
0.129985
-0.0104087
0.0706333
-0.0382311
-0.117415
0.227769
0.208473
-0.105203
0.110696
-0.158773
0.195574
-0.130147
-0.15576
0.158305
-0.20053
0.120275
0.133439
0.0757453
-0.215279
0.0130388
-0.0162931
0.175998
-0.0743255
0.0225225
0.0551803
0.017376
0.0549873
0.0825157
0.0532349
0.0768488
0.0293311
0.00991591
0.0763934
-0.0141869
0.0702887
0.0417052
0.0251447
0.0587576
0.0429061
0.0201754
0.0152615
0.0350812
0.0651106
0.00887508
0.0575293
0.11468
0.149583
-0.0376347
0.110667
0.250469
-0.0387181
0.147146
0.0700945
0.168172
0.223871
-0.363433
0.690653
0.0860042
0.455948
-0.0774095
0.273182
0.0469247
0.322099
-0.13129
0.311827
-0.24057
0.315475
0.0169634
0.110671
-0.0674288
0.15266
-0.00761097
0.102322
0.0265691
-0.392635
0.829447
0.424742
0.657399
0.791128
0.890802
0.373177
0.581022
-0.265634
0.850725
0.695026
-0.648664
0.536884
0.471985
0.655704
0.787712
0.860074
-0.0737862
0.693397
0.546566
0.704197
0.775901
-0.186245
0.715734
0.347289
-0.275596
-0.352884
0.274024
0.390835
-0.267361
0.451441
-0.185095
0.3674
-0.111845
0.294115
0.113011
0.798654
-0.154183
0.623225
-0.0514759
0.273242
-0.0381564
0.18938
0.00723238
0.374021
-0.0489642
0.076534
-0.255235
0.100557
0.26236
-0.238065
0.225259
-0.146215
0.686225
0.597188
0.0603207
0.0617883
-0.0486006
0.0663093
-0.0367316
0.0714637
-0.0386565
0.0706025
0.0256074
-0.0527407
0.0755811
0.0796442
-0.010045
0.0780923
0.0547256
-0.00739551
0.0825483
0.0899171
0.0189304
0.177438
-0.150678
0.158247
-0.140742
0.16241
-0.0729516
0.0817783
-0.0761914
0.0964186
-0.0623642
-0.0892312
0.0788225
-0.0185979
-0.0916449
0.0534138
-0.204956
0.0875416
0.122565
-0.0942599
0.0368009
-0.194708
0.0645611
-0.0422255
-0.074433
-0.121796
0.169146
-0.0934011
-0.0392806
-0.140162
0.153201
-0.143761
0.127468
0.0839217
0.0725562
0.0638624
0.0346088
0.0479069
0.0878437
0.0867647
-0.0520472
0.0813782
0.0933568
0.0289228
0.0413659
0.0540675
0.00996553
0.0487921
0.0528717
0.0552566
0.0379155
0.0271952
0.0015208
0.0560085
-0.0352034
0.149883
0.179284
-0.0297004
0.115025
0.075464
0.140565
-0.154183
0.224278
0.0139889
0.0925806
0.0419895
0.541953
-0.30193
0.224521
-0.270452
0.317377
0.0201685
0.0712579
0.0450229
0.0905495
0.0201214
0.0348933
0.0829385
-0.041883
0.0684521
0.867076
-0.0376294
0.797919
-0.0208161
0.678215
0.790638
0.388252
0.50255
0.969274
0.315409
0.535316
-0.103961
0.798987
-0.109107
0.64599
0.737881
-0.265896
0.244162
0.54355
0.446535
0.413539
0.937559
-0.36916
0.915726
0.335037
0.482366
0.293535
0.49858
0.217155
-0.00559473
0.0984254
0.357481
-0.0834567
-0.106691
0.497526
0.18408
-0.406457
0.221362
0.245636
-0.112341
-0.309332
0.422343
0.45456
0.344094
0.469042
-0.531635
0.480159
-0.236659
0.198502
0.226715
-0.0373353
0.233947
-0.315816
0.266852
0.253613
-0.177079
0.183614
-0.0830572
0.0257012
-0.0128065
0.107399
0.686791
0.574658
0.0225299
-0.0313242
-0.00212868
0.063917
0.0310436
0.0591343
0.00717501
0.0328073
0.0178617
-0.0239229
0.0495303
0.0800892
-0.00450814
0.0446806
0.0471506
0.0309417
0.0397551
-0.0296306
0.112179
0.112503
-0.022586
0.131433
0.0366969
0.0117327
0.0584819
0.080812
0.000966312
0.0202273
-0.0671934
0.00482914
0.105615
-0.0267925
0.0622141
-0.0137796
-0.118265
0.205807
0.169598
-0.0470331
-0.152542
0.0582823
-0.115741
0.159559
-0.0949976
-0.157572
0.115346
-0.153405
0.0789722
0.047802
0.0289842
0.0621391
-0.15554
-0.137506
0.0982252
0.00943987
-0.0301037
-0.0535841
0.0220571
0.0504991
0.00856123
0.0553011
0.069964
0.0357966
0.01798
0.0687848
0.0632031
0.0181751
0.0916428
0.00171396
-0.002712
0.0440779
-0.000278081
0.0543456
0.0460801
0.037608
0.0152636
0.01856
0.0366966
0.0394363
0.0457552
0.0267278
0.0292806
0.120183
0.0811733
0.0338522
0.156637
0.211704
-0.071139
0.152366
0.0719115
-0.132836
0.146825
0.244947
-0.481354
0.523343
0.0605988
-0.212739
0.437259
0.266865
0.050512
0.287033
-0.199997
0.271255
-0.245664
0.290687
-0.0768606
0.096982
-0.0538294
0.0887227
-0.0581513
0.14109
0.0497598
0.0146227
0.84626
0.700252
0.106887
0.691032
0.785102
0.686678
0.817959
0.277807
0.691467
-0.156634
0.69195
0.642352
-0.551838
0.442731
0.380095
0.990085
0.912118
0.22814
0.709419
0.544597
0.371129
0.817402
0.748095
0.791813
-0.243053
0.237458
-0.211612
0.310037
-0.325153
0.241696
-0.359047
0.252355
0.188194
-0.174967
0.367632
-0.14627
0.334067
-0.0884314
0.221726
-0.109292
0.630286
-0.286193
0.610112
-0.14107
0.508799
-0.0286391
0.239257
-0.0407548
0.201922
-0.081869
0.0552402
0.00653446
0.0978223
-0.180879
0.156612
-0.130911
-0.23648
0.223674
-0.129082
0.709321
0.048765
0.0570056
0.039994
-0.0283922
0.0594358
-0.0456989
0.0528739
-0.0225084
0.0553157
-0.0349271
0.0527889
0.045851
0.00367937
-0.0579533
0.0534452
0.0581369
-0.0134562
-0.0185612
0.0495029
0.0511628
-0.0114078
0.0759844
0.0899916
0.0221873
0.0674056
-0.0998101
0.136507
-0.102313
0.114045
0.0978496
-0.0393677
0.0523883
-0.051422
0.0740165
-0.0537892
-0.046973
0.0518021
-0.0861882
0.0593957
-0.0239741
0.0431782
-0.0569577
-0.173598
0.055333
0.154872
0.0509341
0.107839
-0.115316
0.0438174
-0.154071
0.0590731
-0.0380591
-0.0750984
0.203642
-0.15584
-0.119399
0.148383
0.116927
-0.0547882
-0.057315
-0.0986498
0.10809
-0.136097
0.105993
-0.121041
0.0674569
0.0590604
0.0162068
0.0390943
0.0361573
0.0338067
0.0719539
0.0811831
0.0704987
-0.0515598
0.0697349
0.0437998
0.0357844
0.00668544
0.0393947
0.0442935
0.0519602
-0.00415285
0.0435891
0.0416023
0.0429346
-0.016524
0.0458046
-0.0586855
0.178868
-0.0892237
0.123076
0.0979518
0.0788684
0.107729
-0.101645
0.173557
0.196282
-0.049457
0.0449502
-0.028495
-0.44238
0.502979
0.0742948
-0.00512059
-0.275753
0.326265
0.025591
0.0149337
0.0118621
0.0388306
0.0518661
0.0586671
-0.00890729
0.0732898
0.196336
0.649924
-0.134568
0.83482
0.968839
-0.117644
0.902746
0.68615
0.117842
0.700117
-0.173286
0.864753
0.809792
-0.124927
0.767279
0.564259
-0.121528
-0.213712
0.593807
0.249151
0.740934
0.239099
0.673019
0.772737
0.958571
-0.466898
0.838027
0.350504
0.516875
0.23122
0.621085
0.170728
0.0669848
-0.0876948
0.346238
-0.104542
0.399042
-0.146687
0.382804
-0.19461
0.192666
-0.336812
0.190542
0.257807
-0.115087
0.273512
0.473413
0.156873
0.32392
0.367729
0.361044
-0.389683
-0.214089
0.173334
0.228745
-0.0268238
0.146876
-0.224295
0.279536
-0.192617
0.199151
-0.0947945
0.0227626
-0.0574765
-0.222036
0.0911252
0.00163763
-0.227666
0.0985849
0.709806
0.0644311
-0.0156661
0.0508444
0.00616121
0.0435793
-0.00358527
0.0297446
0.0137369
0.0549614
-0.00208746
0.0233426
0.0203885
-0.00516447
0.0472587
0.0638073
-0.0103621
0.0377066
0.0380951
0.0704744
0.00551004
0.0926617
-0.053308
0.120714
-0.15187
0.05206
0.0154659
-0.00446321
-0.0378246