/*--------------------------------*- C++ -*----------------------------------*\
| =========                 |                                                 |
| \\      /  F ield         | OpenFOAM: The Open Source CFD Toolbox           |
|  \\    /   O peration     | Version:  v2012                                 |
|   \\  /    A nd           | Website:  www.openfoam.com                      |
|    \\/     M anipulation  |                                                 |
\*---------------------------------------------------------------------------*/
FoamFile
{
    version     2.0;
    format      ascii;
    class       surfaceVectorField;
    location    "1";
    object      Uf_0;
}
// * * * * * * * * * * * * * * * * * * * * * * * * * * * * * * * * * * * * * //

dimensions      [0 1 -1 0 0 0 0];


internalField   nonuniform List<vector> 
18781
(
(1.00005 0.000142862 -1.2871e-24)
(1.00006 0.000129906 1.54632e-22)
(1.00008 0.000266174 4.36101e-23)
(1.00004 0.000136406 8.16128e-25)
(1.00009 0.000247604 2.31413e-24)
(1.00008 0.00012883 8.19294e-24)
(1.00009 0.000355414 5.19351e-23)
(1.00011 0.000368339 8.77856e-25)
(1.00003 0.000137873 -5.44526e-26)
(1.00012 0.000352351 -7.02672e-23)
(1.00014 0.000336099 -1.05289e-24)
(1.00007 8.94776e-05 -1.2254e-22)
(1.0001 0.000428556 1.05805e-23)
(1.00007 0.000344396 -6.01702e-23)
(1.00015 0.00040141 9.92862e-25)
(1.00005 0.000261259 -1.1897e-24)
(1.00002 0.000145841 -2.48018e-23)
(1.00014 0.00025741 -2.2262e-24)
(1.00018 0.00034858 0)
(1.00011 0.000144146 -2.50262e-24)
(1.00014 0.000468407 5.49258e-25)
(1.00009 0.000486733 6.33187e-25)
(1.00007 0.000358469 -9.31725e-25)
(1.00016 0.000448364 0)
(1.00017 0.000441835 0)
(1.00002 0.000147791 -4.47221e-23)
(1.00019 0.000336411 -5.40584e-24)
(1.00022 0.00038818 0)
(1.00015 0.000259457 -5.37077e-24)
(1.0001 0.000141188 0)
(1.00017 0.000503936 0)
(1.00007 0.0004419 5.72992e-24)
(1.00006 0.000484794 -2.95303e-25)
(1.00006 0.000375267 6.24173e-23)
(1.00022 0.000454884 0)
(1.0002 0.000495436 0)
(1.00003 0.000294069 6.89758e-25)
(1.00002 0.000165752 1.07014e-24)
(1.0002 0.000310942 1.46276e-22)
(1.00027 0.000438126 0)
(1.00011 0.00010861 -4.25084e-24)
(1.0002 0.000539961 0)
(1.00015 0.000537557 -1.12907e-25)
(1.00006 0.000522246 -2.04004e-26)
(1.00002 0.000499978 3.64536e-23)
(1.00002 0.000378378 -5.53858e-23)
(1.00023 0.000519636 3.93542e-24)
(0.999989 0.000160706 -7.17904e-23)
(1.0002 0.000276711 7.73749e-24)
(1.00025 0.000347335 3.78759e-23)
(1.00028 0.000390337 2.57154e-24)
(1.00031 0.000434069 0)
(1.00015 0.000223442 -3.80993e-24)
(1.00015 0.000144967 -3.75982e-22)
(1.0001 0.00054565 1.53742e-25)
(1.00014 0.000593973 6.86275e-24)
(1.00005 0.000564481 9.33815e-23)
(1.00001 0.000457944 1.49247e-23)
(1 0.000505127 8.61899e-25)
(1.00001 0.000378805 4.07831e-23)
(1.00028 0.000555795 -1.55446e-22)
(1.00023 0.000609072 3.27409e-24)
(0.999986 0.000128697 -4.64501e-24)
(0.999991 0.000265072 -2.51638e-24)
(1.00019 0.000234178 2.70396e-25)
(1.0003 0.000348078 2.53366e-24)
(1.00037 0.000515108 -2.87714e-24)
(1.00039 0.000422544 1.6553e-24)
(1.00023 6.65321e-06 2.30823e-22)
(1.00018 0.000629224 9.40489e-25)
(1.00013 0.000652879 -8.589e-24)
(1.00003 0.000627291 -6.10804e-25)
(1.00001 0.000567959 -1.048e-22)
(0.999993 0.000519094 8.71919e-25)
(0.999999 0.000494162 0)
(1 0.000346655 -1.84069e-25)
(0.999998 0.000438772 4.19615e-25)
(1.00033 0.000560672 -5.0867e-22)
(1.00032 0.000625054 -2.65481e-24)
(1.00021 0.00067603 5.60524e-24)
(0.999994 0.000123725 9.5794e-24)
(0.999984 0.000332046 -4.56561e-23)
(1.00027 0.000263595 3.53826e-25)
(1.00022 0.000204718 0)
(1.00034 0.000299261 -1.60341e-23)
(1.0004 0.000610915 3.26114e-23)
(1.00042 0.000402748 -3.69084e-23)
(1.00047 0.000487529 -4.93164e-24)
(1.00012 -2.57462e-05 -9.19659e-24)
(1.00007 0.000674707 6.44466e-23)
(1.00011 0.00074585 -1.64567e-24)
(0.99999 0.000664144 -1.82436e-22)
(0.999963 0.000555102 1.02063e-24)
(0.999953 0.000471103 3.13691e-24)
(1.00029 0.000691168 2.70227e-22)
(1.00036 0.0007402 -2.89005e-24)
(1.00026 0.000758083 3.0462e-22)
(0.99998 0.000264183 2.0088e-24)
(0.999987 0.00016317 1.90916e-24)
(0.99996 0.000339077 5.77944e-23)
(1.00022 0.000135922 0)
(1.00028 0.000209401 0)
(1.00042 0.000349962 -1.78605e-24)
(1.0004 0.00024822 -3.56338e-25)
(1.00047 0.000605689 -1.67522e-24)
(1.00048 0.000682841 3.60502e-22)
(1.00048 0.000368823 -1.38674e-24)
(1.00057 0.000539272 2.02831e-22)
(1.00018 3.31446e-05 3.21493e-24)
(1.00019 0.000821332 -2.0898e-24)
(1.00009 0.000839575 -6.85968e-23)
(0.99994 0.000650986 -1.1727e-24)
(0.999965 0.000765643 -3.15652e-24)
(0.99992 0.000591364 0)
(0.999897 0.000545443 -7.67222e-24)
(0.999925 0.000429548 6.17128e-24)
(0.999902 0.000466882 -7.69794e-23)
(1.00044 0.000822149 -5.34432e-22)
(1.00035 0.000881918 8.78255e-25)
(1.00028 0.000863243 -1.68428e-23)
(0.999963 0.000154873 -1.30332e-24)
(0.99994 0.000354461 -8.51975e-25)
(1.00033 0.000184786 0)
(1.00025 0.000167517 6.13125e-24)
(1.00041 0.000206949 1.26489e-23)
(1.00055 0.000819193 9.01097e-23)
(1.00049 0.000283207 1.20827e-23)
(1.00056 0.000363081 -5.35778e-24)
(1.00064 0.000467941 -6.94725e-24)
(1.0007 0.000602972 -4.20079e-23)
(1.00021 0.000126077 8.99987e-24)
(1.00026 3.78276e-05 5.12513e-22)
(1 0.000870197 1.88441e-22)
(1.00007 0.000945808 -2.58375e-25)
(0.999892 0.000647803 -1.71792e-24)
(0.9999 0.000855038 -1.80979e-22)
(0.999885 0.000488271 -8.13125e-24)
(0.999827 0.000521402 -1.64713e-22)
(0.999897 0.000454867 2.96888e-23)
(1.0003 0.000908516 -2.25876e-22)
(0.999951 0.000148591 0)
(0.999942 0.00026595 3.28703e-24)
(0.999913 0.000410202 -1.05867e-23)
(0.99993 0.000333962 1.13084e-22)
(1.00026 0.000125058 4.46785e-23)
(1.00049 0.000192526 -1.32731e-22)
(1.0007 0.000783413 1.32535e-23)
(1.00061 0.000883486 1.05677e-24)
(1.00068 0.000369609 1.19799e-22)
(1.00084 0.00066205 -3.62087e-22)
(1.0002 -0.000104879 -5.32306e-22)
(1.00019 0.00101719 1.93126e-24)
(1.00006 0.00107154 -2.32179e-22)
(0.999841 0.000784727 -3.30263e-24)
(0.999789 0.000667701 1.75579e-22)
(0.999827 0.000861119 -1.49695e-24)
(0.999765 0.000501754 -6.48733e-23)
(0.999791 0.000461211 6.5147e-24)
(0.999875 0.000424107 1.47593e-22)
(1.00035 0.00100012 -3.75762e-24)
(0.999942 0.000122037 1.76415e-24)
(0.999914 0.000316832 -1.61539e-24)
(1.00023 2.21106e-05 9.52054e-23)
(1.00035 7.20376e-05 -5.45815e-24)
(1.00046 0.0001156 -2.3713e-23)
(1.00058 0.000184402 -1.30297e-22)
(1.00073 0.00100032 6.15112e-24)
(1.00059 0.000995865 1.34585e-23)
(1.00069 0.000267326 -1.56017e-25)
(1.00078 0.000364251 4.1717e-22)
(1.00094 0.000543355 -1.51829e-23)
(1.00097 0.000747323 1.85911e-22)
(1.0002 1.4041e-05 -3.43216e-22)
(1.00033 -7.67545e-05 2.86059e-24)
(1.00004 0.00130337 4.68892e-25)
(0.999881 0.00114277 3.05303e-24)
(0.999719 0.000588829 2.33711e-24)
(0.999679 0.000736875 6.47567e-23)
(0.99978 0.00101897 2.37578e-24)
(0.999719 0.000874937 4.65043e-24)
(0.999694 0.000503048 3.94592e-24)
(0.99982 0.000428519 3.85522e-24)
(0.999763 0.000416783 0)
(0.999848 0.000377614 3.07877e-24)
(1.0005 0.00103248 5.58926e-22)
(1.00042 0.00128084 -4.91857e-24)
(0.99993 0.000216786 1.22332e-23)
(0.999932 0.000122477 7.71696e-23)
(0.999883 0.00033595 -7.2762e-24)
(0.999906 0.000288483 7.67292e-23)
(1.00022 7.99032e-06 -6.97175e-24)
(1.00043 4.94575e-05 7.15345e-24)
(1.00068 0.000147949 -4.41823e-23)
(1.00092 0.00100807 1.5284e-24)
(1.00085 0.00123279 -2.24661e-23)
(1.00063 0.00128151 5.50769e-24)
(1.0009 0.000454169 4.0053e-24)
(1.0009 0.000272302 -2.10848e-22)
(1.00102 0.000482026 0)
(1.00103 0.00085474 2.53221e-22)
(1.00114 0.000753585 2.37438e-23)
(1.00013 -0.000331504 3.25352e-22)
(1.00024 0.0014237 0)
(0.999976 0.00148158 2.02466e-25)
(0.999718 0.00118975 1.51335e-22)
(0.999647 0.000780361 -3.64055e-22)
(0.999589 0.000731829 -6.66062e-24)
(0.999593 0.000932735 -2.78623e-25)
(0.999596 0.000587952 -6.61663e-23)
(0.999632 0.000475453 5.35783e-24)
(0.999697 0.000370618 0)
(0.999751 0.000348475 7.74166e-25)
(0.999837 0.000334302 -7.04604e-24)
(1.00045 0.00146702 0)
(0.999899 0.000266246 2.12991e-23)
(0.999939 8.31901e-05 3.48105e-24)
(1.00024 -0.000142119 -1.171e-22)
(1.00034 -3.16054e-05 -5.74694e-24)
(1.0004 -1.80953e-06 1.68245e-23)
(1.00046 1.22736e-05 -5.99787e-23)
(1.00065 5.10876e-05 6.16492e-25)
(1.00079 0.000101053 6.61361e-23)
(1.00118 0.00109064 -1.49416e-23)
(1.00074 0.00140062 -2.82205e-24)
(1.00093 0.00146108 -4.20867e-23)
(1.0006 0.00145946 0)
(1.00087 0.00015507 2.0756e-23)
(1.00105 0.000209332 3.88817e-24)
(1.00115 0.000528809 7.21691e-24)
(1.00114 0.000404249 -1.26665e-23)
(1.00131 0.000649715 -3.56574e-22)
(1.00015 -0.000167784 -7.58305e-22)
(0.999931 0.00170712 -4.4898e-23)
(0.999779 0.00152352 4.0607e-24)
(0.999602 0.00116248 2.6943e-22)
(0.999628 0.00131692 3.52634e-24)
(0.999476 0.000631011 -3.95728e-22)
(0.999433 0.00102114 5.96188e-22)
(0.999613 0.00041543 0)
(0.999523 0.000438456 0)
(0.999635 0.00030908 -8.73876e-24)
(0.9998 0.000312999 7.14455e-24)
(0.999745 0.000286778 -6.78896e-24)
(0.999833 0.000294664 -1.4821e-24)
(1.00053 0.00162631 6.90836e-24)
(0.999899 0.000222992 -2.75303e-22)
(0.999869 0.000267187 -1.16444e-23)
(0.999889 0.00013725 1.14759e-23)
(1.00038 -5.58127e-05 -3.56443e-24)
(1.00054 2.1374e-05 -6.95723e-24)
(1.00049 -6.50561e-05 -9.00557e-24)
(1.00064 -4.37714e-05 0)
(1.00088 6.58661e-05 -1.33577e-22)
(1.00128 0.0013669 -3.33338e-24)
(1.00144 0.00111408 6.8285e-23)
(1.00113 0.00152048 4.99141e-24)
(1.00097 0.00168796 -1.8876e-23)
(1.00122 0.000229106 2.94835e-23)
(1.0015 0.000448026 3.28926e-23)
(1.0015 0.000769217 -3.97998e-22)
(1.00038 -8.10148e-05 -1.33835e-24)
(1.0002 7.64499e-05 -8.66832e-22)
(0.999805 0.0019766 1.39125e-23)
(1.00013 0.00189923 -2.5997e-24)
(0.999506 0.00150433 -2.77462e-22)
(0.999356 0.000521415 9.12477e-24)
(0.999342 0.000698917 5.34581e-24)
(0.99928 0.00087874 1.07079e-22)
(0.999243 0.00110404 -5.26312e-24)
(0.999424 0.000371832 -3.81415e-25)
(0.999511 0.000304467 2.17409e-25)
(0.999587 0.000268204 -9.67578e-24)
(0.999655 0.00024573 -3.26457e-23)
(0.999703 0.000244202 -2.78188e-25)
(0.999752 0.000238632 1.09599e-22)
(0.999831 0.000248604 2.83065e-24)
(1.00077 0.00181526 2.56745e-22)
(1.00041 0.00185656 2.86832e-22)
(0.999877 0.000170675 5.90041e-24)
(0.999901 0.000113189 5.95471e-22)
(1.00026 -2.97498e-05 8.01447e-24)
(1.00032 -0.000108326 -1.49013e-23)
(1.00041 -0.000127827 -3.30517e-24)
(1.0005 -0.000158646 1.08065e-23)
(1.0006 -0.000172451 0)
(1.00071 -0.000138466 0)
(1.00087 -8.25723e-05 -9.42041e-24)
(1.00099 -3.28554e-05 -9.66311e-24)
(1.00135 0.00165724 -2.28369e-22)
(1.00156 0.00092965 -1.95992e-22)
(1.00172 0.00118869 1.732e-23)
(1.00099 0.0020194 -1.89233e-23)
(1.00143 0.00024345 1.16849e-23)
(1.00131 0.000108587 5.47784e-22)
(1.00163 0.000277951 -4.57576e-22)
(1.00172 0.000733852 -6.01998e-24)
(1.00057 -0.000581656 1.51096e-21)
(1.00013 -7.4272e-05 8.31514e-24)
(0.999702 0.00231964 1.87395e-23)
(0.999549 0.001985 3.38057e-23)
(1.00037 0.00225559 -2.34479e-23)
(0.999403 0.00177735 1.1923e-23)
(0.999263 0.00148155 -6.7155e-24)
(0.999281 0.000333995 -3.87271e-25)
(0.999132 0.000685341 -1.17496e-22)
(0.99916 0.00131396 -6.10714e-24)
(0.999035 0.00109681 -4.09442e-22)
(0.99952 0.000242588 -6.05731e-24)
(0.999671 0.000202392 7.2643e-24)
(0.999788 0.000240609 7.44191e-24)
(0.999776 0.000213784 8.85968e-24)
(0.999827 0.000212156 2.96758e-23)
(0.999868 0.00018245 7.0109e-24)
(0.999881 0.000170077 -6.03462e-24)
(0.999904 3.39729e-05 9.38718e-24)
(1.00036 -0.000202261 -3.27697e-22)
(1.00052 -0.000225218 7.01059e-24)
(1.0008 -0.000202507 0)
(1.00119 -3.14696e-05 2.10628e-23)
(1.00107 -0.000194873 0)
(1.00166 0.00163624 -2.13907e-23)
(1.00152 0.0020012 8.19757e-24)
(1.00182 0.00142566 -4.65196e-23)
(1.00196 0.00120675 -1.87644e-23)
(1.00131 0.00228315 3.6533e-22)
(1.00093 0.00241245 -1.31622e-23)
(1.0014 -9.89896e-05 7.07776e-24)
(1.0018 0.000506406 -1.61889e-24)
(1.00184 0.000205911 -4.8292e-24)
(1.00195 0.000708033 7.53575e-24)
(1.00006 -0.000520103 -7.88219e-24)
(1.00024 -0.000276234 1.01538e-23)
(1.00006 -0.000252583 0)
(0.999889 0.00259518 -1.00782e-24)
(0.999532 0.00265551 7.05294e-25)
(0.999257 0.00198322 6.8474e-24)
(1.00064 0.00250845 -5.18306e-24)
(1.00024 0.00257542 -1.94323e-24)
(0.999021 0.00153178 -1.02048e-23)
(0.999198 0.00021443 -2.63393e-24)
(0.999091 0.000386884 0)
(0.999032 0.000532616 -1.21189e-23)
(0.998932 0.000786043 -1.16963e-23)
(0.998902 0.000945118 7.42276e-24)
(0.998778 0.00114596 6.46045e-24)
(0.999543 0.000122663 1.63085e-22)
(0.999436 0.000135082 -6.4624e-24)
(0.999634 0.000126774 8.49489e-24)
(0.999693 0.000154092 4.64226e-24)
(0.999751 0.00016088 4.15462e-24)
(0.999799 0.000173525 -5.04122e-24)
(0.999832 0.000176609 9.23454e-23)
(0.999888 0.000131399 -1.15768e-22)
(0.999856 0.000154639 7.95865e-23)
(0.999872 7.65682e-05 1.00541e-23)
(1.00035 -0.000313854 4.3881e-24)
(1.00043 -0.000293666 8.33318e-26)
(1.00053 -0.000284661 -1.42087e-22)
(1.00074 -0.000262946 0)
(1.00084 -0.000292232 0)
(1.00095 -0.000312431 0)
(1.00113 -0.000331646 -1.05688e-23)
(1.002 0.00173484 -4.03449e-22)
(1.00162 0.00233886 -6.97636e-23)
(1.0021 0.000995707 -3.81085e-23)
(1.00226 0.00129736 5.59971e-22)
(1.00095 0.00281607 -1.31337e-23)
(1.00163 -0.00016768 -3.15827e-23)
(1.0014 -0.000288197 1.73048e-23)
(1.0019 8.03707e-06 4.78406e-22)
(1.00217 0.000207115 1.87249e-23)
(1.00224 0.00068416 6.79814e-24)
(1.00012 -0.000325779 5.16526e-24)
(1.00042 -0.000565944 2.58148e-21)
(1.00018 -0.000212756 4.7534e-24)
(1.00015 0.00303357 -2.51571e-24)
(0.999328 0.0030048 9.8454e-23)
(0.999225 0.00263152 1.69111e-24)
(0.999092 0.00232138 2.09409e-23)
(0.99897 0.00195799 1.19147e-23)
(0.998802 0.00145593 -9.71374e-24)
(0.998838 0.00168021 -5.42164e-22)
(0.999083 9.2395e-05 9.58656e-23)
(0.999247 9.70077e-05 -2.62111e-24)
(0.998925 0.000408316 -1.0743e-23)
(0.998724 0.000821675 0)
(0.998549 0.00126804 5.84129e-24)
(0.999602 4.74726e-05 8.73358e-24)
(0.999336 8.30531e-05 0)
(0.999389 -3.05745e-05 -2.10209e-23)
(0.999727 0.000108073 -1.519e-23)
(0.99982 0.000152792 -9.14626e-24)
(0.99983 0.000138479 -8.36188e-24)
(0.999862 0.000124364 -4.24594e-24)
(0.999921 7.70845e-06 0)
(1.00038 -0.0003459 -2.08718e-22)
(1.00063 -0.000278506 -7.91102e-24)
(1.00055 -0.00037759 -7.9442e-24)
(1.00069 -0.000386602 -8.42463e-24)
(1.00087 -0.000383884 0)
(1.00126 -0.000353003 7.24532e-23)
(1.00116 -0.000502269 -3.14657e-23)
(1.00196 0.00219527 -1.3316e-22)
(1.00235 0.00194446 1.4839e-23)
(1.00189 0.00250375 -6.41294e-24)
(1.00254 0.00159919 2.81872e-23)
(1.0026 0.00121475 2.6769e-23)
(1.00079 0.00326851 4.42034e-24)
(1.00127 0.00309203 4.7363e-24)
(1.00187 -0.000372797 -3.00057e-23)
(1.00141 -0.000429336 5.617e-23)
(1.00234 0.000424893 2.39016e-23)
(1.0024 9.41331e-05 1.86012e-23)
(1.00255 0.000688872 -1.16054e-23)
(0.999951 -0.000656927 -5.03574e-21)
(1.00031 -0.000321445 1.11005e-23)
(1.00018 -0.000420752 1.33292e-23)
(1.00039 0.00333517 1.09946e-24)
(0.999904 0.00339172 9.46057e-25)
(0.999494 0.00330781 -1.11977e-24)
(0.999095 0.00336605 3.44755e-24)
(0.998793 0.00256456 -1.79672e-23)
(0.99863 0.00195172 7.90262e-24)
(0.998968 -7.39073e-05 4.89425e-24)
(0.998853 0.000161966 1.41552e-23)
(0.999231 -6.69103e-05 8.08278e-24)
(0.998715 0.000520068 -1.02944e-23)
(0.99879 0.000346608 4.57189e-23)
(0.998508 0.000658683 1.64128e-23)
(0.99829 0.00114902 -3.39996e-22)
(0.998236 0.00150269 4.86666e-24)
(0.99966 8.70022e-06 0)
(0.999595 -4.19093e-05 1.14173e-23)
(0.999519 -0.000114995 -5.52818e-22)
(0.999423 -0.000191364 -2.03136e-23)
(0.999719 4.47957e-05 -4.55482e-24)
(0.999761 8.62022e-05 -1.54301e-25)
(0.999802 0.000108527 2.87196e-23)
(0.999872 0.000110058 0)
(0.999854 0.000108226 0)
(0.999833 2.85325e-05 0)
(1.00033 -0.000409485 -6.13018e-24)
(1.00057 -0.000461148 7.80499e-24)
(1.00047 -0.000432635 3.96492e-23)
(1.00074 -0.000453995 -8.83584e-24)
(1.00064 -0.000459672 -1.06308e-22)
(1.00085 -0.000519385 4.67333e-24)
(1.001 -0.000605707 -2.71849e-22)
(1.00116 -0.000626806 4.72566e-22)
(1.00268 0.00196864 1.47029e-23)
(1.00174 0.00297266 0)
(1.00232 0.00282265 3.4939e-23)
(1.00273 0.000965506 -2.1972e-23)
(1.003 0.0012787 0)
(1.00069 0.00389023 -1.15107e-24)
(1.00163 0.00361961 8.72658e-25)
(1.00189 -0.000580683 -1.3279e-23)
(1.00214 -0.000434754 1.77398e-22)
(1.00134 -0.000615535 -2.17413e-22)
(1.00143 -0.000621402 -6.3464e-22)
(1.00243 -0.000215103 2.06066e-22)
(1.00277 -4.74471e-05 3.58233e-23)
(1.00285 0.000666344 -5.06685e-23)
(1.00014 -0.000456112 -1.84029e-23)
(0.999686 0.00387433 0)
(0.998727 0.00372672 7.58075e-22)
(0.998693 0.00336139 4.59393e-24)
(0.99855 0.00295996 -5.93678e-24)
(0.998507 0.00245687 -1.52885e-23)
(0.998313 0.00187265 0)
(0.998424 0.00221634 -1.18771e-24)
(0.998821 -0.000219058 -1.37207e-23)
(0.999015 -0.000255257 -5.09605e-24)
(0.998628 0.000189813 9.06021e-24)
(0.999283 -0.000221511 8.0518e-24)
(0.99916 -0.000231592 -1.38752e-22)
(0.99828 0.000891277 -6.49292e-23)
(0.998305 0.000506931 2.40536e-23)
(0.998002 0.00104602 1.4035e-23)
(0.997923 0.0017318 0)
(0.999722 -2.35529e-05 -4.496e-24)
(0.999619 -0.000150578 5.82847e-23)
(0.999396 -0.000296007 4.24692e-24)
(0.999795 6.27436e-05 4.37025e-24)
(0.999829 5.81592e-05 0)
(0.999875 6.02058e-05 0)
(0.999919 -5.86259e-05 0)
(1.00036 -0.000435175 6.44156e-22)
(1.00021 -0.000423579 -1.61496e-24)
(1.00061 -0.000524471 3.35441e-24)
(1.0004 -0.000509067 9.63671e-24)
(1.00082 -0.000640467 8.4226e-24)
(1.0012 -0.000745665 1.53698e-23)
(1.00306 0.00178244 1.40055e-23)
(1.00295 0.00210342 1.73287e-22)
(1.00281 0.00262989 -7.97871e-23)
(1.00269 0.00319334 -2.16867e-22)
(1.00338 0.00139312 1.73238e-23)
(1.00036 0.00449809 3.88279e-23)
(1.00102 0.00437683 -1.79782e-24)
(1.00152 0.00417018 5.0783e-24)
(1.00208 0.00391564 6.12354e-25)
(1.00164 -0.000733972 -2.4766e-23)
(1.0019 -0.000907967 1.51276e-23)
(1.00247 -0.000601468 1.54233e-22)
(1.00141 -0.000899962 3.5416e-24)
(1.003 0.000287811 1.30566e-23)
(1.00314 -0.000127194 -1.83431e-22)
(1.00324 0.00066773 -2.78785e-23)
(1.00013 -0.000358307 -3.79671e-22)
(1.00038 -0.00053481 -3.39282e-24)
(0.999218 0.0042266 -4.51673e-24)
(0.999723 0.00433141 1.07334e-24)
(0.998552 0.00428767 3.51301e-25)
(0.998107 0.00334337 -1.6913e-23)
(0.998229 0.00240826 9.22599e-24)
(0.998589 -6.03128e-05 -1.19401e-23)
(0.998629 -0.000354915 1.51576e-22)
(0.999091 -0.000387297 -5.9232e-24)
(0.998405 0.000152597 0)
(0.99825 0.000348477 1.17057e-23)
(0.998051 0.000513278 -9.68533e-23)
(0.997874 0.000769891 -1.14738e-23)
(0.997724 0.0010882 -5.63677e-24)
(0.997616 0.00163508 0)
(0.997685 0.00198972 -8.66554e-24)
(0.999722 -9.58558e-05 -8.57049e-24)
(0.999764 -3.55509e-05 -8.9342e-24)
(0.999682 -0.000162349 7.30035e-23)
(0.99963 -0.000217858 1.18066e-23)
(0.999517 -0.000392206 4.52464e-24)
(0.999386 -0.000491803 1.96603e-24)
(0.999798 2.40029e-06 -4.41222e-24)
(0.999883 5.67673e-05 0)
(0.999872 3.87203e-05 -8.27361e-24)
(0.99979 -2.14395e-05 -6.89064e-24)
(1.00009 -0.000399105 8.88145e-24)
(1.00067 -0.00062545 -3.03612e-24)
(1.00054 -0.000623393 -4.88973e-23)
(1.00039 -0.000594348 1.58588e-24)
(1.00028 -0.000547052 2.8356e-23)
(1.00074 -0.000671142 -8.46247e-24)
(1.00128 -0.000954063 2.65063e-23)
(1.00109 -0.000861481 -1.01119e-23)
(1.00348 0.00241359 -3.0511e-23)
(1.00258 0.0036507 -2.58001e-23)
(1.00315 0.00351461 2.54667e-23)
(1.00352 0.000886869 -4.27842e-22)
(1.00389 0.00135121 1.04022e-23)
(0.999902 0.00501868 6.39156e-24)
(1.00137 0.0049464 -8.42092e-24)
(1.00252 0.00446941 0)
(1.00184 -0.00118531 6.23186e-23)
(1.00215 -0.00106568 -4.6544e-23)
(1.00245 -0.000915932 -2.97861e-23)
(1.00282 -0.000717157 6.63869e-25)
(1.00134 -0.00106452 -4.29278e-22)
(1.00354 1.52379e-05 -3.59122e-23)
(1.00336 -0.000307591 8.56739e-23)
(1.00361 0.000472976 -2.35312e-23)
(1.00008 -0.000839249 -2.33357e-21)
(0.998486 0.00503898 -8.0234e-24)
(0.997835 0.00443421 1.36312e-23)
(0.997876 0.00288714 -5.54994e-24)
(0.99767 0.00325667 6.46051e-22)
(0.997862 0.00232725 9.16584e-23)
(0.998355 -0.000477552 -6.68682e-23)
(0.998655 -0.000594304 -1.58524e-22)
(0.999225 -0.00052842 -5.53662e-24)
(0.999031 -0.000559706 1.28605e-23)
(0.998159 1.82118e-05 -6.14748e-25)
(0.997755 0.000436817 -4.1913e-23)
(0.997496 0.00128605 -1.51147e-23)
(0.99729 0.000948462 -4.21411e-22)
(0.99716 0.00151356 3.20866e-23)
(0.997429 0.00238517 -2.83496e-23)
(0.999747 -0.00016751 -4.68864e-24)
(0.999805 -4.77795e-05 -3.53307e-23)
(0.999616 -0.000330609 0)
(0.999661 -0.000285244 -5.02446e-24)
(0.99962 -0.000466676 -7.90336e-25)
(0.999391 -0.000597274 -4.62035e-24)
(0.999856 -4.33027e-05 3.26049e-23)
(0.999906 -2.34906e-05 -8.23689e-24)
(0.999901 -0.00015568 -6.91545e-24)
(1.00019 -0.000467452 7.64172e-24)
(1.0002 -0.000536701 -4.43439e-24)
(1.00042 -0.000651028 1.36189e-24)
(1.00016 -0.000553528 -4.79218e-22)
(1.00063 -0.000735758 -2.71536e-23)
(1.00077 -0.000776995 8.49834e-23)
(1.00088 -0.000852783 5.30013e-25)
(1.00097 -0.00107772 -5.36678e-22)
(1.00406 0.00220546 -2.85033e-23)
(1.00392 0.00290125 -1.19673e-22)
(1.00368 0.00349372 -2.27661e-22)
(1.00352 0.00403057 1.67109e-22)
(1.00425 0.00167307 -4.73702e-23)
(1.00442 0.000971186 1.07883e-23)
(0.999124 0.00543362 2.2862e-23)
(0.999937 0.00582436 -2.79484e-22)
(1.00127 0.0056769 -2.13933e-22)
(1.00206 0.00538118 -6.05345e-24)
(1.00318 0.00467241 -1.17021e-23)
(1.00254 0.00501765 0)
(1.00156 -0.0012697 -3.09095e-23)
(1.00173 -0.00143803 -7.33349e-24)
(1.00235 -0.00134331 -2.52767e-22)
(1.00322 -0.000612904 2.17819e-23)
(1.00304 -0.00109837 5.433e-23)
(1.00125 -0.0013156 -1.83901e-23)
(1.00391 0.000222891 -2.41526e-25)
(1.0036 -0.000670355 -1.01138e-24)
(1.00044 -0.0008584 -1.02562e-23)
(0.998432 0.00594296 -2.32114e-24)
(0.997316 0.00405848 -6.72142e-23)
(0.9972 0.00480393 6.89966e-24)
(0.997353 0.00293732 1.91708e-24)
(0.997311 0.00340438 -1.58883e-22)
(0.998116 -0.00026205 1.32214e-22)
(0.998091 -0.000605246 -4.08753e-23)
(0.998845 -0.000632567 -9.29803e-23)
(0.998704 -0.000810732 4.16733e-24)
(0.999038 -0.000822396 1.20044e-23)
(0.997818 -3.61168e-05 -2.25902e-22)
(0.997343 0.000471108 -2.23373e-22)
(0.997619 0.000204508 -3.76509e-23)
(0.997005 0.000604827 -5.98024e-24)
(0.996729 0.00134414 -5.00238e-22)
(0.996704 0.00199994 5.08647e-23)
(0.996935 0.00253155 6.11148e-22)
(0.99978 -0.000217621 0)
(0.999804 -0.00015379 0)
(0.999833 -0.000107794 1.1618e-23)
(0.999769 -0.000283485 -4.99019e-24)
(0.999737 -0.000389928 1.34008e-23)
(0.999684 -0.000483296 4.02284e-24)
(0.999636 -0.000562981 -1.13898e-24)
(0.999371 -0.000805817 0)
(0.999423 -0.000661552 2.67727e-23)
(0.999885 -7.60109e-06 0)
(0.999893 -5.29759e-05 0)
(0.999745 -8.84825e-05 7.02155e-24)
(1.00035 -0.000642856 7.69051e-23)
(1.0004 -0.000697147 7.78106e-24)
(1.00029 -0.000603131 -7.71879e-22)
(1.00019 -0.000703324 -5.55232e-24)
(1.00048 -0.000723951 -4.51929e-22)
(1.00054 -0.000859343 -4.49988e-23)
(1.00073 -0.000942016 3.26031e-23)
(1.00103 -0.0013078 -1.22456e-23)
(1.00078 -0.00120893 -3.07154e-22)
(1.00475 0.00210755 8.8376e-23)
(1.0044 0.00344187 3.73329e-22)
(1.004 0.00479943 -1.19308e-23)
(1.00438 0.000405255 -3.64045e-23)
(1.00492 0.000614971 -5.00556e-22)
(1.00059 0.00606263 3.64615e-24)
(0.99984 0.0066476 -1.45661e-24)
(1.0014 0.00664913 1.53031e-23)
(1.0027 0.00570898 1.23879e-23)
(1.0016 -0.00174906 -9.59212e-23)
(1.00196 -0.00164442 -1.24145e-23)
(1.00223 -0.00161283 7.46885e-23)
(1.00263 -0.00155796 2.38185e-23)
(1.00302 -0.00140701 8.75207e-22)
(1.0034 -0.00132069 2.2492e-23)
(1.00117 -0.00140994 0)
(1.00433 -0.00011484 -1.19428e-22)
(1.00378 -0.00103645 -4.9674e-23)
(1.00403 -0.000726676 -1.90698e-22)
(1.00001 -0.000992028 3.99003e-21)
(0.997558 0.00628461 3.71603e-23)
(0.998363 0.00670722 6.7286e-22)
(0.996664 0.00359571 -1.95624e-23)
(0.996896 0.00549208 -8.42448e-24)
(0.996392 0.00494253 -9.77186e-24)
(0.997739 -0.000648236 7.57862e-23)
(0.998087 -0.000875881 3.36254e-22)
(0.998848 -0.00105828 2.14273e-23)
(0.998604 -0.0010122 -2.62013e-22)
(0.999322 -0.000978764 0)
(0.99913 -0.00109489 -1.18722e-25)
(0.997505 -0.000164967 4.98525e-23)
(0.996566 0.000661633 -1.53716e-23)
(0.996724 0.000203497 1.50531e-23)
(0.996504 0.00105823 -5.85218e-23)
(0.996186 0.00164645 -1.90367e-23)
(0.996409 0.00247544 -7.84681e-23)
(0.999813 -0.000273713 0)
(0.999824 -0.000166979 0)
(0.999787 -0.000457526 5.20683e-24)
(0.999567 -0.000695881 1.24342e-21)
(0.999715 -0.000695532 -1.10786e-22)
(0.999493 -0.000996489 2.96601e-23)
(0.99954 -0.000868785 6.23625e-23)
(0.999875 -0.000185173 0)
(0.999986 -0.000150481 8.0298e-24)
(0.999902 -0.000251851 6.78298e-25)
(1.00027 -0.000669756 7.97646e-24)
(1.00039 -0.000786388 8.73148e-24)
(1.00035 -0.00101979 3.04835e-21)
(1.0006 -0.000970831 1.69104e-23)
(1.00043 -0.000935284 -4.35577e-22)
(1.00069 -0.00100383 -1.63864e-22)
(1.00067 -0.00111318 1.05833e-23)
(1.00067 -0.00124302 -1.48106e-22)
(1.00523 0.00260242 1.03548e-22)
(1.00535 0.00192084 -3.85782e-25)
(1.00514 0.00323685 -9.7838e-23)
(1.00512 0.00413702 1.02735e-22)
(1.00478 0.00504856 -6.2049e-24)
(1.00411 0.00562109 -3.37368e-23)
(1.00546 0.00116829 1.73275e-22)
(1.00546 0.000186549 -2.60567e-23)
(0.999103 0.00698322 -1.13206e-23)
(0.999798 0.00762575 -6.19906e-23)
(1.00143 0.00757108 7.16598e-25)
(1.00219 0.00705151 -1.29574e-23)
(1.00349 0.00589911 -1.81415e-23)
(1.00285 0.00649744 1.05759e-22)
(1.00157 -0.00218668 -1.4956e-23)
(1.00123 -0.00189584 -3.52382e-24)
(1.00199 -0.00199136 -1.52547e-23)
(1.00295 -0.00180955 -1.24956e-23)
(1.0037 -0.00160502 3.33459e-22)
(1.00101 -0.00165268 0)
(1.00097 -0.00143621 0)
(1.00463 -0.00072321 4.26778e-22)
(0.996425 0.006397 2.39723e-22)
(0.998271 0.00781498 1.84783e-24)
(0.996033 0.00415229 -1.05079e-23)
(0.996099 0.00335998 2.63472e-23)
(0.99552 0.00467533 2.03101e-22)
(0.997494 -0.000525437 -2.60624e-22)
(0.997442 -0.000837229 -1.31822e-22)
(0.998292 -0.00103113 5.38726e-23)
(0.998006 -0.00119796 2.75401e-23)
(0.999065 -0.00125796 2.83545e-23)
(0.99853 -0.00128213 5.92236e-24)
(0.997046 -0.00026591 1.32871e-23)
(0.996162 0.00074006 -2.24937e-23)
(0.996549 -0.000337878 3.07927e-23)
(0.99606 0.0022 -2.03222e-23)
(0.995656 0.00180443 -9.20839e-24)
(0.995965 0.00270923 -5.46858e-22)
(0.999849 -0.000248426 0)
(0.999853 -0.00027696 1.01575e-24)
(0.999874 -0.00043582 -1.27227e-24)
(0.999838 -0.000540384 -6.83341e-25)
(0.999827 -0.000640271 1.54742e-22)
(0.999803 -0.000758474 -6.42283e-25)
(0.999573 -0.000953811 3.80104e-22)
(0.999931 -0.000111756 1.5654e-24)
(1.00001 -7.81276e-05 6.04753e-23)
(0.999689 -0.000186914 -1.20621e-21)
(1.00032 -0.000790327 -6.30642e-24)
(1.0002 -0.000738971 2.7982e-22)
(1.00036 -0.000804989 5.85649e-24)
(0.999977 -0.001046 1.07545e-24)
(1.00035 -0.000873336 8.8796e-24)
(1.00035 -0.000935338 1.59224e-22)
(1.00059 -0.00101421 -8.36024e-24)
(1.00059 -0.00132035 7.91898e-22)
(1.00053 -0.00122895 1.53446e-22)
(1.00592 0.00316932 -4.19065e-22)
(1.00611 0.00169206 -1.07496e-23)
(1.00569 0.00504948 -5.86923e-24)
(1.00436 0.00639742 -4.28241e-22)
(1.00581 -0.000358656 -4.12801e-23)
(1.00635 0.000240706 -1.07215e-22)
(1.00056 0.00811933 1.39748e-24)
(0.999604 0.00872228 -7.01863e-24)
(1.00155 0.00887286 4.92125e-24)
(1.00302 0.00751106 8.36107e-24)
(1.00181 -0.00227506 2.10347e-22)
(1.00154 -0.00243734 -1.03729e-23)
(1.00093 -0.00186003 0)
(1.00223 -0.00230536 2.67673e-22)
(1.00274 -0.00218728 -2.20194e-22)
(1.00323 -0.00212495 -4.31368e-24)
(1.00362 -0.00215305 2.21768e-22)
(1.00418 -0.00196642 1.70332e-23)
(1.00078 -0.00145088 7.80366e-24)
(1.00087 -0.00164526 0)
(1.00535 -0.000876183 -1.6332e-23)
(1.00476 -0.00145422 -3.66123e-24)
(0.995905 0.00734385 3.26704e-22)
(0.995334 0.00624208 1.16014e-23)
(0.998752 0.00901274 -1.33056e-23)
(0.997492 0.00856768 8.83438e-22)
(0.995364 0.00304717 -1.24341e-23)
(0.994874 0.0052912 -8.57832e-23)
(0.994689 0.00441084 4.11054e-24)
(0.997657 -0.00127326 8.30926e-24)
(0.997216 -0.00120281 8.42276e-24)
(0.997886 -0.00146079 -1.9313e-23)
(0.999166 -0.00140532 8.01573e-23)
(0.99886 -0.00143632 1.8627e-23)
(0.998646 -0.00143195 1.8394e-23)
(0.998483 -0.00157796 -1.19005e-23)
(0.995549 0.00109002 -2.28455e-23)
(0.995715 0.000436613 0)
(0.996042 -0.000351562 2.23077e-23)
(0.996469 -0.000881073 -2.93625e-22)
(0.995073 0.00167115 3.81325e-22)
(0.999903 -0.000358717 -2.6206e-23)
(0.999919 -0.000241881 1.06864e-24)
(0.999901 -0.000463446 -1.17392e-24)
(0.999903 -0.000605796 -9.98893e-24)
(0.99981 -0.000865749 -3.0528e-24)
(0.999911 -0.000813399 9.01571e-24)
(0.999678 -0.00095468 -2.02546e-23)
(0.9996 -0.00108542 -5.46237e-23)
(0.99994 -0.000128589 -7.30526e-24)
(0.999911 -0.000159842 -6.81695e-24)
(0.999945 -0.000387158 5.00728e-24)
(1.00018 -0.000779613 1.15833e-23)
(1.00022 -0.000796013 5.30004e-24)
(1.00033 -0.000842902 5.83937e-24)
(1.00041 -0.00120759 4.57968e-21)
(1.00036 -0.00092985 1.48632e-24)
(1.00033 -0.000934466 6.22119e-24)
(1.00048 -0.00112601 3.91005e-24)
(1.0005 -0.000990115 4.01472e-22)
(1.00054 -0.00150471 1.14792e-23)
(1.00042 -0.00118141 1.37569e-22)
(1.0067 0.00384985 -7.33756e-24)
(1.0068 0.00268023 -5.5502e-23)
(1.00669 0.00128219 2.52931e-23)
(1.0068 0.00191531 -1.54707e-22)
(1.00665 0.00478335 -6.27653e-24)
(1.0064 0.00586795 5.74077e-24)
(1.00406 0.00764084 6.24253e-23)
(1.00506 0.00712513 3.46307e-23)
(1.00608 -0.0011126 3.87537e-22)
(1.00723 0.00050745 2.7482e-23)
(0.999317 0.009622 -2.55293e-24)
(1.0015 0.00999069 -1.77858e-24)
(1.00255 0.00942291 -2.77341e-23)
(1.00345 0.00838061 8.9257e-22)
(1.00118 -0.00249972 0)
(1.00158 -0.00287935 -2.26432e-23)
(1.00079 -0.001788 -1.27381e-23)
(1.00253 -0.00261409 3.54288e-22)
(1.00338 -0.00258377 -1.99409e-24)
(1.0048 -0.00222161 3.95123e-22)
(0.996247 0.00825711 4.03432e-23)
(0.9949 0.00804581 -8.81053e-23)
(0.994162 0.00591502 1.77922e-22)
(0.996684 0.00978727 3.19061e-23)
(0.994674 0.0037113 -4.55003e-23)
(0.994778 0.00267327 2.36082e-22)
(0.99393 0.00407666 -1.74795e-22)
(0.996754 -0.0012224 -3.22649e-23)
(0.997035 -0.00174133 0)
(0.998198 -0.00170605 -4.04485e-23)
(0.997828 -0.00196442 -5.34848e-23)
(0.999253 -0.00166144 -1.81076e-23)
(0.999424 -0.00141945 -2.79834e-23)
(0.998784 -0.00168522 0)
(0.998441 -0.0018401 4.66515e-24)
(0.995693 -0.000112896 0)
(0.995101 0.000197704 0)
(0.995581 -0.000688991 7.34883e-24)
(0.996268 -0.00134766 -3.0301e-23)