/*--------------------------------*- C++ -*----------------------------------*\
| =========                 |                                                 |
| \\      /  F ield         | OpenFOAM: The Open Source CFD Toolbox           |
|  \\    /   O peration     | Version:  v2012                                 |
|   \\  /    A nd           | Website:  www.openfoam.com                      |
|    \\/     M anipulation  |                                                 |
\*---------------------------------------------------------------------------*/
FoamFile
{
    version     2.0;
    format      ascii;
    class       volVectorField;
    location    "1.8";
    object      cellDisplacement;
}
// * * * * * * * * * * * * * * * * * * * * * * * * * * * * * * * * * * * * * //

dimensions      [0 1 0 0 0 0 0];


internalField   nonuniform List<vector> 
13611
(
(0.000151975 -0.0022519 0)
(0.000273129 -0.00457166 0)
(6.58068e-05 -0.00103779 0)
(0.000356073 -0.00541328 0)
(0.000466179 -0.00705023 0)
(0.000633179 -0.0100822 0)
(0.000266291 -0.00526685 0)
(9.92377e-05 -0.00197729 0)
(0.000874682 -0.0125547 0)
(0.000504874 -0.00840122 0)
(0.000616503 -0.0114823 0)
(0.000180394 -0.00390066 0)
(0.000341414 -0.00748633 0)
(4.10092e-05 -0.000937785 0)
(0.00082185 -0.0132304 0)
(0.000440438 -0.00881431 0)
(0.000671267 -0.0129776 0)
(0.00049725 -0.0107454 0)
(0.000158279 -0.00430444 0)
(0.000295828 -0.00786273 0)
(8.42155e-05 -0.00234473 0)
(0.000939486 -0.014266 0)
(0.000875667 -0.014379 0)
(0.000757829 -0.0135326 0)
(0.000613501 -0.0139175 0)
(0.000467576 -0.0119889 0)
(0.000201676 -0.00601622 0)
(0.000310406 -0.00967092 0)
(4.2169e-05 -0.00143879 0)
(0.000991528 -0.014876 0)
(0.000837401 -0.0152504 0)
(0.000765088 -0.014934 0)
(0.000641982 -0.0152687 0)
(0.000526364 -0.0136673 0)
(0.000373815 -0.0116038 0)
(0.000187204 -0.006674 0)
(0.000243384 -0.00900659 0)
(5.46933e-05 -0.00240625 0)
(0.000985765 -0.0157454 0)
(0.000859371 -0.0163061 0)
(0.000710821 -0.0156787 0)
(0.000580459 -0.0158817 0)
(0.000509563 -0.0149221 0)
(0.000346753 -0.0133083 0)
(0.0001425 -0.00607564 0)
(0.000210543 -0.00971028 0)
(1.76475e-05 -0.000984036 0)
(9.44487e-05 -0.00440387 0)
(0.000927871 -0.0164564 0)
(0.00104618 -0.0161595 0)
(0.000798099 -0.0171232 0)
(0.0007227 -0.0168004 0)
(0.00057312 -0.0168343 0)
(0.00045657 -0.0154784 0)
(0.000389733 -0.0150481 0)
(0.000274806 -0.0132364 0)
(0.000154561 -0.00796293 0)
(0.000220285 -0.0115921 0)
(3.06654e-05 -0.00218827 0)
(6.55996e-05 -0.00421959 0)
(0.000952656 -0.0173882 0)
(0.00102745 -0.0170981 0)
(0.000798286 -0.0180714 0)
(0.00067172 -0.0175953 0)
(0.00114285 -0.0169853 0)
(0.000515985 -0.0173505 0)
(0.000612761 -0.0175736 0)
(0.00046446 -0.0169816 0)
(0.000349547 -0.0162083 0)
(0.000256261 -0.0151318 0)
(0.000119184 -0.00798563 0)
(0.000161264 -0.0119001 0)
(1.13675e-05 -0.00125816 0)
(7.65639e-05 -0.00582537 0)
(0.000915924 -0.0182765 0)
(0.00107191 -0.0174543 0)
(0.000736347 -0.0187468 0)
(0.000846805 -0.0185441 0)
(0.000683332 -0.0186099 0)
(0.000519233 -0.018358 0)
(0.000573018 -0.0184804 0)
(0.000415059 -0.017837 0)
(0.000293888 -0.0163348 0)
(0.000366372 -0.0175256 0)
(0.000196989 -0.0154204 0)
(0.000120093 -0.0100104 0)
(0.000152449 -0.0138463 0)
(2.20012e-05 -0.00304505 0)
(5.25226e-05 -0.00570895 0)
(0.00095367 -0.0190914 0)
(0.00106713 -0.0181686 0)
(0.000739792 -0.0195862 0)
(0.000804434 -0.0195011 0)
(0.000634022 -0.0193585 0)
(0.00113876 -0.0181706 0)
(0.000478354 -0.0191039 0)
(0.000583348 -0.019266 0)
(0.000422841 -0.0189681 0)
(0.000277641 -0.0175987 0)
(0.000320959 -0.0182507 0)
(0.000173387 -0.0169553 0)
(8.034e-05 -0.00981421 0)
(0.000101414 -0.01458 0)
(1.32935e-05 -0.00315232 0)
(5.36729e-05 -0.00752546 0)
(0.00102402 -0.0188909 0)
(0.000897438 -0.0200777 0)
(0.000681517 -0.0204034 0)
(0.000820159 -0.0202003 0)
(0.000628449 -0.0203076 0)
(0.00114069 -0.0188088 0)
(0.00119449 -0.0189365 0)
(0.000487063 -0.0200805 0)
(0.000539385 -0.0201081 0)
(0.000384535 -0.0197282 0)
(0.000237352 -0.0184016 0)
(0.000304947 -0.0193713 0)
(0.000194845 -0.0182309 0)
(0.000125631 -0.0173161 0)
(5.80182e-05 -0.0113719 0)
(6.17753e-05 -0.0135008 0)
(8.96811e-05 -0.0165241 0)
(3.31148e-06 -0.00135727 0)
(1.55616e-05 -0.005485 0)
(3.14051e-05 -0.00733288 0)
(0.00106374 -0.0194116 0)
(0.000912039 -0.0208287 0)
(0.000690129 -0.0210745 0)
(0.000763859 -0.0209592 0)
(0.000562896 -0.0208298 0)
(0.00118107 -0.01971 0)
(0.000439448 -0.0207961 0)
(0.000394002 -0.0205833 0)
(0.000331232 -0.0199418 0)
(0.000246592 -0.0196365 0)
(0.000148812 -0.0192446 0)
(0.000112072 -0.0187009 0)
(2.61319e-05 -0.0105545 0)
(1.49876e-05 -0.0144232 0)
(4.80799e-05 -0.0174128 0)
(-2.25636e-06 -0.00259149 0)
(2.10729e-06 -0.00627233 0)
(2.08964e-05 -0.00878657 0)
(0.00105084 -0.0201427 0)
(0.000855355 -0.0216208 0)
(0.000984292 -0.0207881 0)
(0.000651757 -0.021824 0)
(0.000758767 -0.0216782 0)
(0.000531684 -0.0215906 0)
(0.00111465 -0.0203115 0)
(0.00124035 -0.0197853 0)
(0.000430792 -0.0216855 0)
(0.000351335 -0.0211519 0)
(0.000311037 -0.0208626 0)
(0.000213973 -0.0206111 0)
(0.000139359 -0.0202533 0)
(7.44263e-05 -0.0193337 0)
(-3.69931e-06 -0.0113923 0)
(-1.36e-05 -0.0131288 0)
(-1.68671e-06 -0.0160634 0)
(4.37028e-05 -0.0188634 0)
(1.37979e-05 -0.0172182 0)
(-3.65812e-06 -0.00127915 0)
(-7.53874e-06 -0.00512761 0)
(-2.92206e-07 -0.00819292 0)
(0.000794438 -0.0219197 0)
(0.000866273 -0.0222276 0)
(0.000981519 -0.0215758 0)
(0.000592914 -0.0223191 0)
(0.000692711 -0.0221922 0)
(0.000466508 -0.0219842 0)
(0.00054673 -0.0222395 0)
(0.00110687 -0.0210306 0)
(0.00123517 -0.0204374 0)
(0.000372135 -0.0222262 0)
(0.000339716 -0.0218971 0)
(0.00027246 -0.021549 0)
(0.000166207 -0.0208093 0)
(0.000228329 -0.021578 0)
(8.9763e-05 -0.0209996 0)
(6.1162e-05 -0.0206255 0)
(-1.51778e-05 -0.00974617 0)
(-4.86349e-05 -0.0139673 0)
(-4.47534e-05 -0.0167629 0)
(9.87938e-06 -0.0195674 0)
(-2.47581e-05 -0.0185077 0)
(-1.24581e-05 -0.00237061 0)
(-2.3425e-05 -0.0060451 0)
(0.000761369 -0.0228096 0)
(0.000920728 -0.0221983 0)
(0.000804342 -0.0229406 0)
(0.00104255 -0.0216213 0)
(0.000577524 -0.0231427 0)
(0.000673774 -0.0228178 0)
(0.000440615 -0.0228897 0)
(0.000481853 -0.0230521 0)
(0.00116925 -0.0210609 0)
(0.00129819 -0.0203983 0)
(0.000350214 -0.0230433 0)
(0.000286492 -0.0222766 0)
(0.00013274 -0.0218282 0)
(0.000185527 -0.0225144 0)
(8.58123e-05 -0.021918 0)
(2.30452e-05 -0.0210793 0)
(-3.43137e-05 -0.00974789 0)
(-7.1303e-05 -0.0131408 0)
(-6.57594e-05 -0.0159576 0)
(-5.88833e-05 -0.0182797 0)
(-2.32316e-05 -0.0194181 0)
(3.4538e-06 -0.0205132 0)
(-2.49729e-05 -0.00459321 0)
(-7.96064e-06 -0.0011302 0)
(-3.64359e-05 -0.0080212 0)
(0.000707229 -0.0231834 0)
(0.000917865 -0.0227867 0)
(0.000803813 -0.0234928 0)
(0.00103158 -0.0223649 0)
(0.000522755 -0.0237425 0)
(0.0006195 -0.0232619 0)
(0.000383227 -0.0234046 0)
(0.000472547 -0.0237351 0)
(0.00116249 -0.0217109 0)
(0.00129621 -0.0210018 0)
(0.000295306 -0.0234984 0)
(0.000264314 -0.0230595 0)
(0.000140211 -0.0225544 0)
(0.000186095 -0.0233072 0)
(5.2724e-05 -0.0227342 0)
(-6.49652e-06 -0.0219728 0)
(-6.11289e-05 -0.0113694 0)
(-0.000102855 -0.0142979 0)
(-0.00010315 -0.0167521 0)
(-9.37263e-05 -0.0191761 0)
(-4.78763e-05 -0.0203567 0)
(-3.01505e-05 -0.0209501 0)
(-3.89252e-05 -0.00539045 0)
(-1.99267e-05 -0.00228917 0)
(-5.62395e-05 -0.00853058 0)
(0.000664207 -0.02387 0)
(0.000864239 -0.023354 0)
(0.000968816 -0.0228818 0)
(0.00075805 -0.0241211 0)
(0.00109158 -0.0223813 0)
(0.000513648 -0.0243908 0)
(0.000609603 -0.0239047 0)
(0.000351068 -0.0242552 0)
(0.000424143 -0.0243618 0)
(0.0012268 -0.0216866 0)
(0.000272384 -0.0242299 0)
(0.000219212 -0.0234949 0)
(0.00010153 -0.0234326 0)
(0.00014428 -0.0240756 0)
(1.59813e-05 -0.0229485 0)
(6.12709e-05 -0.0235243 0)
(-8.85272e-06 -0.0226424 0)
(-4.01355e-05 -0.021776 0)
(-7.43356e-05 -0.0104385 0)
(-0.0001245 -0.0141823 0)
(-0.000116385 -0.0159593 0)
(-0.000125578 -0.0181666 0)
(-0.000121491 -0.0190626 0)
(-0.000103467 -0.0204095 0)
(-8.0684e-05 -0.0208023 0)
(-3.71277e-05 -0.00431177 0)
(-5.63366e-05 -0.00734485 0)
(-1.22286e-05 -0.00118002 0)
(0.000659271 -0.0244311 0)
(0.000872511 -0.0238144 0)
(0.000938823 -0.0235434 0)
(0.000773657 -0.0245636 0)
(0.000699799 -0.0245044 0)
(0.0010856 -0.0230316 0)
(0.000559207 -0.0244298 0)
(0.00046164 -0.0249696 0)
(0.000295272 -0.0246195 0)
(0.00037224 -0.0246067 0)
(0.000422382 -0.0249528 0)
(0.00121556 -0.0222464 0)
(0.000219294 -0.0247327 0)
(0.000195766 -0.0244531 0)
(0.000105353 -0.0241596 0)
(0.000149456 -0.0247631 0)
(-1.23331e-05 -0.023857 0)
(2.6296e-05 -0.0243452 0)
(-4.72803e-05 -0.0233693 0)
(-7.43133e-05 -0.0222625 0)
(-9.89619e-05 -0.0110794 0)
(-0.000123767 -0.0128918 0)
(-0.000153252 -0.0157352 0)
(-0.000148509 -0.0167043 0)
(-0.000159462 -0.01866 0)
(-0.00015857 -0.0201265 0)
(-0.000139422 -0.021142 0)
(-9.77449e-05 -0.0218724 0)
(-5.70959e-05 -0.00574865 0)
(-7.26664e-05 -0.00761078 0)
(-2.86794e-05 -0.00252502 0)
(0.000592307 -0.0250903 0)
(0.000827893 -0.0243894 0)
(0.000956013 -0.023898 0)
(0.000721493 -0.0252109 0)
(0.000674329 -0.0252464 0)
(0.00102097 -0.0237078 0)
(0.00114717 -0.0229032 0)
(0.00054814 -0.0250446 0)
(0.000450653 -0.0255681 0)
(0.000256937 -0.0253311 0)
(0.000341784 -0.0253298 0)
(0.000375264 -0.0254751 0)
(0.00125644 -0.0223585 0)
(0.0013196 -0.0220136 0)
(0.000207746 -0.0254189 0)
(6.68472e-05 -0.0249166 0)
(0.000110953 -0.0255045 0)
(-4.56947e-05 -0.0240183 0)
(-9.1384e-06 -0.0244553 0)
(2.83248e-05 -0.0250101 0)
(-7.6597e-05 -0.0234899 0)
(-8.91582e-05 -0.0230506 0)
(-9.56926e-05 -0.00940465 0)
(-0.000153451 -0.0134626 0)
(-0.000180322 -0.0162373 0)
(-0.000169449 -0.0179928 0)
(-0.000179865 -0.0198369 0)
(-0.000165471 -0.0209791 0)
(-0.000154306 -0.0221523 0)
(-0.000135015 -0.0224791 0)
(-5.62429e-05 -0.00508588 0)
(-2.96868e-05 -0.00238583 0)
(0.000576032 -0.0256854 0)
(0.000836365 -0.0248563 0)
(0.000897567 -0.0246416 0)
(0.000724658 -0.0256036 0)
(0.000618032 -0.0257608 0)
(0.00101647 -0.0242476 0)
(0.00115153 -0.0233098 0)
(0.000491392 -0.0256047 0)
(0.000396885 -0.0261214 0)
(0.000258893 -0.0258003 0)
(0.000297777 -0.0257801 0)
(0.000361319 -0.0260401 0)
(0.00121452 -0.0229983 0)
(0.00133927 -0.0223804 0)
(0.000169111 -0.0260333 0)
(6.71995e-05 -0.0255765 0)
(0.00011141 -0.0260144 0)
(-7.62898e-05 -0.0247016 0)
(-4.38099e-05 -0.0252191 0)
(-9.81177e-06 -0.025751 0)
(-0.000106633 -0.0242154 0)
(-0.000124657 -0.0235223 0)
(-0.000116352 -0.00999987 0)
(-0.000183062 -0.0152251 0)
(-0.000149517 -0.0122371 0)
(-0.00020738 -0.0177334 0)
(-0.00020124 -0.0185399 0)
(-0.000214213 -0.0204482 0)
(-0.000196665 -0.0218775 0)
(-0.000190208 -0.0226172 0)
(-0.00014817 -0.0233445 0)
(-7.32238e-05 -0.00589424 0)
(-1.3322e-05 -0.00102387 0)
(-5.74046e-05 -0.00435459 0)
(0.000515383 -0.0262554 0)
(0.000784697 -0.0254265 0)
(0.000907403 -0.0249978 0)
(0.000681623 -0.026188 0)
(0.000593185 -0.0263919 0)
(0.0010606 -0.0242903 0)
(0.000961773 -0.0247831 0)
(0.00111526 -0.0239108 0)
(0.000474828 -0.02622 0)
(0.000380558 -0.0267035 0)
(0.000213953 -0.0265132 0)
(0.000280524 -0.0264171 0)
(0.000310382 -0.0265314 0)
(0.00122315 -0.0233496 0)
(0.00128414 -0.0230797 0)
(0.000172845 -0.0266644 0)
(0.000134485 -0.0261733 0)
(3.04281e-05 -0.026167 0)
(7.73381e-05 -0.0266315 0)
(-0.000107604 -0.0247736 0)
(-7.72183e-05 -0.0252997 0)
(-4.59592e-05 -0.0258446 0)
(-7.36191e-06 -0.0262473 0)
(-0.000133887 -0.0242123 0)
(-0.000114504 -0.00907372 0)
(-0.000214305 -0.016 0)
(-0.00017056 -0.0125846 0)
(-0.000237638 -0.0183035 0)
(-0.000225714 -0.0198059 0)
(-0.000232783 -0.0214204 0)
(-0.000222507 -0.0220247 0)
(-0.00021029 -0.0233695 0)
(-0.000181251 -0.0239782 0)
(-9.6172e-05 -0.00741406 0)
(-2.42764e-05 -0.00168293 0)
(-6.61863e-05 -0.00460616 0)
(0.000497822 -0.0267985 0)
(0.000773893 -0.0259273 0)
(0.000866499 -0.0255979 0)
(0.000624183 -0.0265537 0)
(0.000709144 -0.0264077 0)
(0.000533627 -0.0268575 0)
(0.00101643 -0.0249815 0)
(0.000960083 -0.025213 0)
(0.00116053 -0.0239786 0)
(0.000417671 -0.0267664 0)
(0.000325795 -0.0272126 0)
(0.000228599 -0.0268674 0)
(0.000291393 -0.0271208 0)
(0.0013005 -0.0233671 0)
(0.000124296 -0.0273922 0)
(9.88463e-05 -0.0268113 0)
(1.93723e-05 -0.0267827 0)
(3.99819e-05 -0.0269819 0)
(-0.00013898 -0.0254058 0)
(-0.000111013 -0.0259418 0)
(-8.41468e-05 -0.0265064 0)
(-3.28621e-05 -0.0267858 0)
(-0.000163666 -0.0247921 0)
(-0.000140079 -0.0100329 0)
(-0.000220335 -0.0153295 0)
(-0.000242908 -0.0175817 0)
(-0.000162351 -0.0113737 0)
(-0.000200573 -0.0139103 0)
(-0.00026307 -0.0195534 0)
(-0.00025712 -0.0202544 0)
(-0.000262782 -0.0219862 0)
(-0.000250066 -0.0228622 0)
(-0.00024119 -0.0237562 0)
(-0.00020501 -0.0239683 0)
(-0.000188546 -0.0247466 0)
(-0.000107323 -0.00752218 0)
(-4.91285e-05 -0.00330773 0)
(-1.0849e-05 -0.000713265 0)
(-9.29384e-05 -0.00623726 0)
(-0.00112343 -0.0101152 0)
(-0.000249367 -0.0021746 0)
(0.000438684 -0.0273786 0)
(0.000808395 -0.0260118 0)
(0.000903867 -0.0257138 0)
(0.000588711 -0.0271954 0)
(0.000678862 -0.0269484 0)
(0.000498904 -0.0274805 0)
(0.00102511 -0.0252785 0)
(0.00114665 -0.0244758 0)
(0.000398609 -0.0273841 0)
(0.000306305 -0.0277733 0)
(0.000206807 -0.0274477 0)
(0.000239577 -0.0275894 0)
(0.00137907 -0.0229519 0)
(0.00125773 -0.0239431 0)
(8.67179e-05 -0.0273844 0)
(0.00012063 -0.0279053 0)
(-1.86064e-05 -0.027119 0)
(1.98138e-05 -0.0276075 0)
(-0.000168052 -0.0254288 0)
(-0.000141101 -0.0259736 0)
(-0.000115251 -0.0265207 0)
(-9.09128e-05 -0.0270701 0)
(-6.53805e-05 -0.0271089 0)
(-0.000132676 -0.00900427 0)
(-0.000253859 -0.0162665 0)
(-0.000272248 -0.0182002 0)
(-0.00018585 -0.0120369 0)
(-0.000209552 -0.0134494 0)
(-0.000294654 -0.0201011 0)
(-0.000282619 -0.0212798 0)
(-0.000271784 -0.0228066 0)
(-0.000282823 -0.0219688 0)
(-0.000257513 -0.0235724 0)
(-0.000255151 -0.0245298 0)
(-0.000235237 -0.0246481 0)
(-0.00022013 -0.0253765 0)
(-4.90786e-05 -0.00309034 0)
(-2.41377e-05 -0.00150206 0)
(-0.000105916 -0.00664409 0)
(-0.000919117 -0.00827065 0)
(-0.00117513 -0.0115207 0)
(-0.00148652 -0.0130229 0)
(-0.000482065 -0.00428397 0)
(-0.000121968 -0.00114897 0)
(0.000436622 -0.0278225 0)
(0.000774158 -0.026664 0)
(0.00088095 -0.0262201 0)
(0.000615954 -0.0273705 0)
(0.000523061 -0.0276543 0)
(0.000709149 -0.0271182 0)
(0.00108247 -0.0250649 0)
(0.000975468 -0.0259162 0)
(0.00119356 -0.0244252 0)
(0.000341543 -0.0278843 0)
(0.000252425 -0.0282409 0)
(0.000161291 -0.0278694 0)
(0.000220157 -0.0281478 0)
(0.00127821 -0.0241381 0)
(4.37399e-05 -0.0278311 0)
(8.37205e-05 -0.0284715 0)
(-4.44004e-05 -0.0276106 0)
(-1.8823e-05 -0.0280489 0)
(-0.000200893 -0.0260857 0)
(-0.000170576 -0.0265067 0)
(-0.000150357 -0.0270833 0)
(-0.000131089 -0.0276676 0)
(-7.56058e-05 -0.0276508 0)
(-0.000150204 -0.0094792 0)
(-0.000257606 -0.0156938 0)
(-0.000277641 -0.0175774 0)
(-0.000298685 -0.0194697 0)
(-0.000180652 -0.0111272 0)
(-0.000234159 -0.014285 0)
(-0.00031588 -0.0210665 0)
(-0.00030859 -0.0215324 0)
(-0.000295295 -0.0233685 0)
(-0.000312023 -0.022808 0)
(-0.000289397 -0.0241984 0)
(-0.000283331 -0.0250489 0)
(-0.000242892 -0.0252933 0)
(-0.000228372 -0.0260777 0)
(-6.59484e-05 -0.00398504 0)
(-1.3409e-05 -0.000788079 0)
(-9.31597e-05 -0.00561824 0)
(-0.000137532 -0.00837645 0)
(-0.000789493 -0.00772193 0)
(-0.00132933 -0.0131254 0)
(-0.00104367 -0.0111617 0)
(-0.00144297 -0.0135334 0)
(-0.000577508 -0.0056016 0)
(-0.000231863 -0.00239972 0)
(0.000391671 -0.0283948 0)
(0.000809194 -0.0267565 0)
(0.000915414 -0.0263165 0)
(0.000580725 -0.0279861 0)
(0.000491243 -0.0282322 0)
(0.000673005 -0.0276544 0)
(0.0010669 -0.0256033 0)
(0.00100294 -0.0260977 0)
(0.00117526 -0.024966 0)
(0.000314004 -0.0284791 0)
(0.000233587 -0.028731 0)
(0.000141408 -0.0284925 0)
(0.000167715 -0.028625 0)
(0.00132807 -0.0238659 0)
(0.00122671 -0.024762 0)
(1.45524e-05 -0.0284058 0)
(9.90117e-05 -0.0288055 0)
(4.33732e-05 -0.0288347 0)
(-4.73943e-05 -0.0280506 0)
(-2.63977e-05 -0.0285488 0)
(-0.000201352 -0.0265982 0)
(-0.000175032 -0.0270352 0)
(-0.000159016 -0.0276617 0)
(-0.000135042 -0.0281173 0)
(-0.000104592 -0.028057 0)
(-0.000283222 -0.0162817 0)
(-0.000302711 -0.0181611 0)
(-0.000326305 -0.0198937 0)
(-0.000200716 -0.0116517 0)
(-0.00024629 -0.0141688 0)
(-0.000343002 -0.0216595 0)
(-0.000331877 -0.0223417 0)
(-0.000315224 -0.0233964 0)
(-0.000304602 -0.0240461 0)
(-0.000334009 -0.0229186 0)
(-0.000301615 -0.0249057 0)
(-0.000294344 -0.0257159 0)
(-0.000273958 -0.0258458 0)
(-0.000261136 -0.0266293 0)
(-5.67608e-05 -0.00329158 0)
(-2.92504e-05 -0.00166977 0)
(-0.000109486 -0.00624568 0)
(-0.000149602 -0.00861487 0)
(-0.000864696 -0.00922432 0)
(-0.00134676 -0.014275 0)
(-0.00111502 -0.0127531 0)
(-0.00162819 -0.0150224 0)
(-0.00154427 -0.0149182 0)
(-0.00177835 -0.0158296 0)
(-0.000452607 -0.00472612 0)
(-0.000114365 -0.00127888 0)
(0.000334601 -0.0286989 0)
(0.000398617 -0.0287204 0)
(0.000783869 -0.0272614 0)
(0.000874961 -0.0269505 0)
(0.000608523 -0.0280919 0)
(0.000521616 -0.0283881 0)
(0.000439231 -0.0286336 0)
(0.000684891 -0.0278981 0)
(0.00111339 -0.0255434 0)
(0.000969885 -0.0265924 0)
(0.000260053 -0.0288546 0)
(0.000182486 -0.0292124 0)
(0.000147969 -0.0292047 0)
(0.00139394 -0.0237715 0)
(0.00133571 -0.0241278 0)
(0.00123737 -0.0249669 0)
(1.25877e-05 -0.0288363 0)
(6.74906e-05 -0.0293142 0)
(2.8926e-05 -0.0294055 0)
(-8.65757e-05 -0.0285633 0)
(-6.4076e-05 -0.0290316 0)
(-0.000225256 -0.0272051 0)
(-0.000208256 -0.0274784 0)
(-0.000196307 -0.0281419 0)
(-0.000163677 -0.028678 0)
(-0.000111797 -0.0285236 0)
(-0.00027636 -0.0153811 0)
(-0.000305762 -0.0172436 0)
(-0.000311838 -0.0179474 0)
(-0.000324826 -0.0192364 0)
(-0.000353849 -0.0208963 0)
(-0.000195763 -0.0108903 0)
(-0.000232824 -0.0131475 0)
(-0.000359666 -0.0216362 0)
(-0.000353005 -0.0224452 0)
(-0.000339701 -0.024137 0)
(-0.000334011 -0.0245501 0)
(-0.000359779 -0.0236647 0)
(-0.000331426 -0.0254363 0)
(-0.00032394 -0.0262183 0)
(-0.000283572 -0.0264789 0)
(-0.000275819 -0.0273242 0)
(-7.09087e-05 -0.00395905 0)
(-3.02375e-05 -0.00167106 0)
(-0.000134405 -0.00753776 0)
(-9.59613e-05 -0.00531151 0)
(-0.000175275 -0.00972401 0)
(-0.000733313 -0.00835029 0)
(-0.00126488 -0.0142344 0)
(-0.00146385 -0.0156811 0)
(-0.00105163 -0.0130717 0)
(-0.00170795 -0.015883 0)
(-0.00154973 -0.0159033 0)
(-0.00185497 -0.0165425 0)
(-0.000532955 -0.00600523 0)
(-0.000229754 -0.00278866 0)
(0.000290299 -0.029363 0)
(0.000355399 -0.0292565 0)
(0.000816054 -0.027349 0)
(0.000727442 -0.0277504 0)
(0.000902577 -0.0270411 0)
(0.000587746 -0.0285516 0)
(0.00048031 -0.0290086 0)
(0.000419107 -0.029079 0)
(0.000632608 -0.0284407 0)
(0.00109725 -0.0260491 0)
(0.000981187 -0.0268402 0)
(0.000226996 -0.0293836 0)
(0.000176985 -0.0296215 0)
(0.000101141 -0.0296485 0)
(0.0012965 -0.0246047 0)
(0.00120576 -0.0254652 0)
(-3.73728e-05 -0.0294606 0)
(6.70943e-05 -0.0296611 0)
(-1.14876e-05 -0.0299136 0)
(-9.59442e-05 -0.0290453 0)
(-7.20481e-05 -0.0295026 0)
(-0.000258466 -0.0275689 0)
(-0.00022027 -0.0280006 0)
(-0.000209267 -0.0286455 0)
(-0.000148672 -0.028932 0)
(-0.000193639 -0.0288906 0)
(-0.000296593 -0.0157753 0)
(-0.000328999 -0.0176656 0)
(-0.000338377 -0.0187846 0)
(-0.000346622 -0.0194994 0)
(-0.000378332 -0.0210676 0)
(-0.00022085 -0.0117585 0)
(-0.000243767 -0.0130439 0)
(-0.000391967 -0.0225573 0)
(-0.000376135 -0.0231177 0)
(-0.000362541 -0.0243007 0)
(-0.000348467 -0.0252257 0)
(-0.000380891 -0.0237628 0)
(-0.000342753 -0.026082 0)
(-0.00033416 -0.0268261 0)
(-0.000314236 -0.0269568 0)
(-0.000308717 -0.0277065 0)
(-5.68964e-05 -0.00309365 0)
(-1.38826e-05 -0.000750697 0)
(-0.00014963 -0.00799866 0)
(-0.00010758 -0.00572446 0)
(-0.000173849 -0.00921343 0)
(-0.000738447 -0.00915024 0)
(-0.00133063 -0.015655 0)
(-0.00144865 -0.0165106 0)
(-0.00116457 -0.0151163 0)
(-0.00088048 -0.0113461 0)
(-0.00171635 -0.0168176 0)
(-0.00164015 -0.016958 0)
(-0.00186638 -0.0173474 0)
(-0.000425744 -0.00516815 0)
(-0.000117901 -0.00153623 0)
(0.00023701 -0.0296653 0)
(0.000305205 -0.0295872 0)
(0.000371001 -0.0294152 0)
(0.000773068 -0.0279099 0)
(0.000720718 -0.0281494 0)
(0.000875672 -0.027536 0)
(0.000541336 -0.0290026 0)
(0.000430641 -0.0292864 0)
(0.000490783 -0.0292494 0)
(0.000627978 -0.0287805 0)
(0.00114715 -0.0259504 0)
(0.00103099 -0.0266583 0)
(0.000920733 -0.0274358 0)
(0.000139275 -0.0301208 0)
(7.7422e-05 -0.0301863 0)
(0.00135552 -0.0245625 0)
(0.00130576 -0.0248489 0)
(0.00125209 -0.0253799 0)
(-4.78698e-05 -0.0299737 0)
(2.46275e-05 -0.0301907 0)
(-1.54407e-05 -0.0303488 0)
(-0.000134456 -0.0294952 0)
(-0.000117801 -0.0300362 0)
(-0.000277188 -0.0282724 0)
(-0.000255437 -0.028431 0)
(-0.000244667 -0.0290602 0)
(-0.000161823 -0.0294186 0)
(-0.000222114 -0.0294544 0)
(-0.000293595 -0.0151127 0)
(-0.000327174 -0.0170847 0)
(-0.000349598 -0.0186428 0)
(-0.000372159 -0.0203322 0)
(-0.000401497 -0.0218197 0)
(-0.000221326 -0.0113684 0)
(-0.000268776 -0.0138696 0)
(-0.000398616 -0.0232541 0)
(-0.000408227 -0.0225591 0)
(-0.000388728 -0.0249928 0)
(-0.000377251 -0.0257391 0)
(-0.000405832 -0.0244486 0)
(-0.000372064 -0.0265762 0)
(-0.00036279 -0.0272899 0)
(-0.000324195 -0.0274926 0)
(-0.000328521 -0.0282373 0)
(-6.6037e-05 -0.00347707 0)
(-2.6108e-05 -0.00135456 0)
(-0.000135955 -0.00711468 0)
(-9.15294e-05 -0.00476637 0)
(-0.000194687 -0.00998694 0)
(-0.000546536 -0.00702915 0)
(-0.00129882 -0.0161779 0)
(-0.00151462 -0.0176944 0)
(-0.00116657 -0.0160852 0)
(-0.000828474 -0.0116806 0)
(-0.00179627 -0.0175648 0)
(-0.00166058 -0.0179587 0)
(-0.00201513 -0.0176869 0)
(-0.00194059 -0.0179638 0)
(-0.000187456 -0.00264351 0)
(0.000196377 -0.0301831 0)
(0.000273797 -0.0301246 0)
(0.000350538 -0.0298096 0)
(0.00077628 -0.0281697 0)
(0.000673804 -0.0286339 0)
(0.000822116 -0.028004 0)
(0.000533308 -0.0293993 0)
(0.000386148 -0.0297749 0)
(0.000446147 -0.0298743 0)
(0.000574778 -0.0292904 0)
(0.00112544 -0.0264498 0)
(0.001018 -0.0271169 0)
(0.000907912 -0.0278177 0)
(9.16466e-05 -0.0303939 0)
(0.000148957 -0.0303993 0)
(2.90131e-05 -0.0305021 0)
(0.00137805 -0.0246544 0)
(0.00123855 -0.0257587 0)
(-9.12206e-05 -0.0304582 0)
(-5.34855e-05 -0.0308696 0)
(-0.000147829 -0.0300089 0)
(-0.000126511 -0.0304797 0)
(-0.000311372 -0.0287386 0)
(-0.000267547 -0.0289941 0)
(-0.000252089 -0.0295265 0)
(-0.000196597 -0.0298104 0)
(-0.000223405 -0.0298147 0)
(-0.000318301 -0.0156955 0)
(-0.000349284 -0.0174749 0)
(-0.000374636 -0.0193707 0)
(-0.000390043 -0.0203545 0)
(-0.000420451 -0.0220458 0)
(-0.000246415 -0.0122042 0)
(-0.000270719 -0.013399 0)
(-0.000422061 -0.0239669 0)
(-0.000434876 -0.0231577 0)
(-0.000410662 -0.0250396 0)
(-0.000395417 -0.0256349 0)
(-0.000389869 -0.0264475 0)
(-0.000424014 -0.0245185 0)
(-0.000382025 -0.027179 0)
(-0.000372863 -0.0278807 0)
(-0.000353855 -0.0279478 0)
(-0.00035695 -0.0283694 0)
(-0.000331459 -0.0286646 0)
(-5.11165e-05 -0.00263098 0)
(-1.25693e-05 -0.000637089 0)
(-0.000141152 -0.00714762 0)
(-9.97999e-05 -0.00503228 0)
(-0.000195649 -0.00972108 0)
(-0.000509874 -0.00705334 0)
(-0.00138365 -0.0177187 0)
(-0.00160963 -0.0183227 0)
(-0.0014826 -0.0183738 0)
(-0.00108827 -0.0157659 0)
(-0.0012747 -0.0177606 0)
(-0.000652134 -0.00947868 0)
(-0.000942633 -0.0139122 0)
(-0.00180908 -0.0184346 0)
(-0.0017495 -0.018698 0)
(-0.00207861 -0.0183834 0)
(-0.00194303 -0.0187961 0)
(-7.669e-05 -0.00114871 0)
(-0.000350182 -0.00501752 0)
(0.000191753 -0.0305566 0)
(0.000222976 -0.0305517 0)
(0.000304031 -0.0301853 0)
(0.000719978 -0.0287825 0)
(0.000669912 -0.0290047 0)
(0.000800587 -0.028499 0)
(0.000477362 -0.0299054 0)
(0.000372742 -0.0301282 0)
(0.00039796 -0.0302138 0)
(0.000564729 -0.0296666 0)
(0.00106319 -0.0269984 0)
(0.00117044 -0.0263429 0)
(0.00095504 -0.0276818 0)
(0.000841115 -0.0284114 0)
(5.59244e-05 -0.0309519 0)
(0.000114854 -0.0309071 0)
(-6.1642e-06 -0.031021 0)
(0.00135019 -0.0251102 0)
(0.00128309 -0.0256505 0)
(-0.000103954 -0.0308837 0)
(-8.86414e-05 -0.031051 0)
(-4.9293e-05 -0.0312366 0)
(-0.00018909 -0.0304202 0)
(-0.000164877 -0.0309483 0)
(-0.000325274 -0.0293878 0)
(-0.000302616 -0.029479 0)
(-0.000281161 -0.0299672 0)
(-0.000209979 -0.0302955 0)
(-0.000256177 -0.0303355 0)
(-0.00031604 -0.0151817 0)
(-0.000343798 -0.0167736 0)
(-0.000377212 -0.0185004 0)
(-0.000388226 -0.0193222 0)
(-0.000417357 -0.0211167 0)
(-0.000429184 -0.0218424 0)
(-0.00043986 -0.0228168 0)
(-0.000242696 -0.0116678 0)
(-0.00029337 -0.0140935 0)
(-0.000443707 -0.0242676 0)
(-0.000448696 -0.0237094 0)
(-0.0004361 -0.0256654 0)
(-0.000422726 -0.0261898 0)
(-0.000422042 -0.0270152 0)
(-0.000449325 -0.0251595 0)
(-0.000410483 -0.0276655 0)
(-0.000400031 -0.0282739 0)
(-0.000378309 -0.0288701 0)
(-0.00036594 -0.0291375 0)
(-6.12908e-05 -0.00306031 0)
(-2.35772e-05 -0.00115936 0)
(-0.000121284 -0.00604803 0)
(-0.000159427 -0.00786725 0)
(-8.43601e-05 -0.00417595 0)
(-0.000179476 -0.00879322 0)
(-0.000219108 -0.0105614 0)
(-0.0013613 -0.0183038 0)
(-0.00165314 -0.0194682 0)
(-0.00154329 -0.0194974 0)
(-0.00114616 -0.017515 0)
(-0.00129238 -0.0187645 0)
(-0.000606069 -0.00946206 0)
(-0.000910245 -0.0143405 0)
(-0.00188125 -0.0190418 0)
(-0.00177391 -0.0196185 0)
(-0.00205999 -0.0192281 0)
(-0.00200021 -0.0193526 0)
(-0.000166107 -0.00263284 0)
(-0.000326272 -0.00508513 0)
(0.000137302 -0.0310336 0)
(0.000201574 -0.0310619 0)
(0.000285341 -0.0306197 0)
(0.000735106 -0.0289809 0)
(0.000613568 -0.0295292 0)
(0.000461029 -0.0303221 0)
(0.000318158 -0.0305997 0)
(0.000355499 -0.0307626 0)
(0.000507521 -0.0301864 0)
(0.00104659 -0.0274518 0)
(0.00115309 -0.02673 0)
(0.000937823 -0.0281086 0)
(0.000828954 -0.0287749 0)
(6.42939e-06 -0.0312635 0)
(6.97296e-05 -0.0311848 0)
(0.00138917 -0.0250539 0)
(0.00125604 -0.0261433 0)
(-0.000140856 -0.0312414 0)
(-0.000124919 -0.0315853 0)
(-8.52102e-05 -0.0316947 0)
(-0.000207868 -0.0308743 0)
(-0.00019691 -0.0310842 0)
(-0.000166746 -0.0312898 0)
(-0.000359708 -0.0298187 0)
(-0.000309993 -0.0300009 0)
(-0.000284257 -0.0304192 0)
(-0.000248348 -0.030616 0)
(-0.000338351 -0.0156896 0)
(-0.000363037 -0.0171046 0)
(-0.000395292 -0.0186345 0)
(-0.000420813 -0.0202631 0)
(-0.000434361 -0.0210739 0)
(-0.000453558 -0.0224562 0)
(-0.000458476 -0.0230246 0)
(-0.000260846 -0.0121278 0)
(-0.000299964 -0.0139677 0)
(-0.00045073 -0.0241132 0)
(-0.000461633 -0.0250373 0)
(-0.000471848 -0.0241372 0)
(-0.000456367 -0.0257093 0)
(-0.000440737 -0.026172 0)
(-0.000436243 -0.0268601 0)
(-0.00043309 -0.0276321 0)
(-0.000418293 -0.0281714 0)
(-0.000415103 -0.028806 0)
(-0.00040655 -0.0290963 0)
(-0.000379684 -0.029639 0)
(-4.71585e-05 -0.00231047 0)
(-1.12151e-05 -0.000540058 0)
(-0.00012788 -0.00620833 0)
(-0.000149098 -0.00718606 0)
(-9.27378e-05 -0.00446058 0)
(-0.000192251 -0.0090992 0)
(-0.000213798 -0.0100428 0)
(-0.00141891 -0.0195569 0)
(-0.00162064 -0.0199343 0)
(-0.00172978 -0.0200128 0)
(-0.00154037 -0.0202612 0)
(-0.00124209 -0.0188459 0)
(-0.00109872 -0.0175282 0)
(-0.00137398 -0.0198228 0)
(-0.000684683 -0.0111733 0)
(-0.00043034 -0.00693365 0)
(-0.000807974 -0.0131831 0)
(-0.00100087 -0.0162373 0)
(-0.00188946 -0.0198237 0)
(-0.00184222 -0.0201299 0)
(-0.00219407 -0.0194 0)
(-0.00209985 -0.0199644 0)
(-0.00199957 -0.0201859 0)
(-9.01745e-05 -0.00152328 0)
(0.000114999 -0.0314969 0)
(0.000148221 -0.0315268 0)
(0.000235209 -0.0310497 0)
(0.000696463 -0.0294989 0)
(0.000595564 -0.0299506 0)
(0.000405213 -0.0308494 0)
(0.000306603 -0.0309677 0)
(0.000356175 -0.031043 0)
(0.00049684 -0.0305199 0)
(0.000983972 -0.0279959 0)
(0.00109241 -0.0272819 0)
(0.00119417 -0.0266366 0)
(0.000878339 -0.0286073 0)
(0.000775945 -0.029302 0)
(-2.31066e-05 -0.0317512 0)
(3.8114e-05 -0.0316308 0)
(0.00136184 -0.0254996 0)
(0.00129624 -0.0260446 0)
(-0.000152529 -0.0316478 0)
(-0.000124808 -0.0318552 0)
(-9.36815e-05 -0.0320725 0)
(-0.000246497 -0.0311874 0)
(-0.000231747 -0.0315876 0)
(-0.000197286 -0.0317171 0)
(-0.00037732 -0.0303833 0)
(-0.000338222 -0.0304571 0)
(-0.000315518 -0.0308735 0)
(-0.000266145 -0.0310548 0)
(-0.000359875 -0.0165449 0)
(-0.000328591 -0.0149802 0)
(-0.000386907 -0.0179626 0)
(-0.000418893 -0.0193706 0)
(-0.000432211 -0.0201531 0)
(-0.00046356 -0.0218829 0)
(-0.000470841 -0.0225573 0)
(-0.000476696 -0.023576 0)
(-0.00025139 -0.0114648 0)
(-0.000286468 -0.0131521 0)
(-0.000475267 -0.0245589 0)
(-0.000484146 -0.025412 0)
(-0.000482801 -0.024117 0)
(-0.000480826 -0.0263094 0)
(-0.000463931 -0.0267274 0)
(-0.000463241 -0.0271891 0)
(-0.000458374 -0.0281381 0)
(-0.000445422 -0.0286585 0)
(-0.000445186 -0.0290562 0)
(-0.000428392 -0.0296047 0)
(-0.000410028 -0.0300032 0)
(-5.50818e-05 -0.00263431 0)
(-2.03641e-05 -0.000958942 0)
(-0.000114437 -0.0054567 0)
(-0.000158694 -0.00746837 0)
(-7.75719e-05 -0.00367943 0)
(-0.000181556 -0.00846124 0)
(-0.000228366 -0.0104795 0)
(-0.00149187 -0.0203485 0)
(-0.00165859 -0.0209793 0)
(-0.00176309 -0.0209796 0)
(-0.00161442 -0.0212305 0)
(-0.00128064 -0.0201087 0)
(-0.00112628 -0.0187185 0)
(-0.00140571 -0.0208886 0)
(-0.000629267 -0.0108864 0)
(-0.000415541 -0.00706233 0)
(-0.000819549 -0.0142388 0)
(-0.000988665 -0.0168399 0)
(-0.00195087 -0.020404 0)
(-0.00187104 -0.0209897 0)
(-0.002165 -0.020092 0)
(-0.00205996 -0.020582 0)
(-0.000160979 -0.00285279 0)
(6.87344e-05 -0.0318698 0)
(0.00013205 -0.0319342 0)
(0.000216063 -0.0315212 0)
(0.000629723 -0.0299505 0)
(0.000719564 -0.029634 0)
(0.000535681 -0.0304219 0)
(0.000398309 -0.0312309 0)
(0.000255708 -0.0314493 0)
(0.000300098 -0.0316101 0)
(0.000444045 -0.0310316 0)
(0.000960023 -0.0284416 0)
(0.00109522 -0.0275143 0)
(0.0011609 -0.0270946 0)
(0.000853478 -0.0290481 0)
(0.000790937 -0.0294793 0)
(-4.32303e-06 -0.0318804 0)
(-6.87575e-05 -0.0321082 0)
(4.02844e-05 -0.0318834 0)
(0.00139534 -0.025426 0)
(0.00127815 -0.0264328 0)
(-0.000187623 -0.0319475 0)
(-0.000159444 -0.0323538 0)
(-0.000142489 -0.0325067 0)
(-0.000259825 -0.0316206 0)
(-0.000230269 -0.0318793 0)
(-0.000410971 -0.0307113 0)
(-0.000366547 -0.0306214 0)
(-0.000340752 -0.0308901 0)
(-0.000322931 -0.0313114 0)
(-0.000300727 -0.0313784 0)
(-0.000383461 -0.0171256 0)
(-0.000339191 -0.0150436 0)
(-0.000401718 -0.0180206 0)
(-0.000434109 -0.0194356 0)
(-0.000457806 -0.020686 0)
(-0.000482561 -0.0219929 0)
(-0.000494834 -0.0232918 0)