/*--------------------------------*- C++ -*----------------------------------*\
| =========                 |                                                 |
| \\      /  F ield         | OpenFOAM: The Open Source CFD Toolbox           |
|  \\    /   O peration     | Version:  v2012                                 |
|   \\  /    A nd           | Website:  www.openfoam.com                      |
|    \\/     M anipulation  |                                                 |
\*---------------------------------------------------------------------------*/
FoamFile
{
    version     2.0;
    format      ascii;
    class       volScalarField;
    location    "1.8";
    object      k;
}
// * * * * * * * * * * * * * * * * * * * * * * * * * * * * * * * * * * * * * //

dimensions      [0 2 -2 0 0 0 0];


internalField   nonuniform List<scalar> 
13611
(
0.000996574
0.00051786
0.00174775
0.000333974
0.000223001
0.000244448
0.000439766
0.00119839
0.000288594
0.000220245
0.000253666
0.000673617
0.000278704
0.00188966
0.00028756
0.000199372
0.000277837
0.000224448
0.000620407
0.000259144
0.0011074
0.000277651
0.00028008
0.000289464
0.00027967
0.000238528
0.000412217
0.000213038
0.00166101
0.000273552
0.00027616
0.000281084
0.000280585
0.000274152
0.000225077
0.000375703
0.000247691
0.00112048
0.00027148
0.000271332
0.000278838
0.000280472
0.000278385
0.000241908
0.00038608
0.000223179
0.00181661
0.000653544
0.000270133
0.000270292
0.000268897
0.000271694
0.000276629
0.000278033
0.00027452
0.000233658
0.000282449
0.000219804
0.00113878
0.000705998
0.000269165
0.000270164
0.00026724
0.000268953
0.000272824
0.00027462
0.000269264
0.000276502
0.000276067
0.000257637
0.000273271
0.000211785
0.00166825
0.000491924
0.000268878
0.00027169
0.000265977
0.000267618
0.000265751
0.000266908
0.000265459
0.000272406
0.000278527
0.000273492
0.000257495
0.000224021
0.000232202
0.0010986
0.000503437
0.000270694
0.000272109
0.000266148
0.000267332
0.000264375
0.000273761
0.000264116
0.000263726
0.000264478
0.000275324
0.000270664
0.000264568
0.000219764
0.000237127
0.000903179
0.000339858
0.00027215
0.000270621
0.000265637
0.000268913
0.000264522
0.000275131
0.000277259
0.00026228
0.000262743
0.000262197
0.00026992
0.000263015
0.000270116
0.000265321
0.000198743
0.000224057
0.000257927
0.00163139
0.000532249
0.000322737
0.000273791
0.00027268
0.000267006
0.000268645
0.000263342
0.000279283
0.000261071
0.000260496
0.000260231
0.000261326
0.000266558
0.000267356
0.000199886
0.000233015
0.000260157
0.00100029
0.000410221
0.000249104
0.000275481
0.000272903
0.000275081
0.000267349
0.000270023
0.000263385
0.000278625
0.000282125
0.000261313
0.000259408
0.000258745
0.000257985
0.000257699
0.000264228
0.000181913
0.000211958
0.000249601
0.000264719
0.000259416
0.00160602
0.000553048
0.000265801
0.000271849
0.000275634
0.000277854
0.000266991
0.000269159
0.000262526
0.000265474
0.0002813
0.000284934
0.000260504
0.000259483
0.000258006
0.000256304
0.000256797
0.000254151
0.000255264
0.000215757
0.000223185
0.000253949
0.000261135
0.000260533
0.000982008
0.000426771
0.000273915
0.000277785
0.000276042
0.000280904
0.000268651
0.000270595
0.000264021
0.000265607
0.000284577
0.000288192
0.000261762
0.000258377
0.000254707
0.000256381
0.000253358
0.000252339
0.000203665
0.000216044
0.000247651
0.00025982
0.000260742
0.00025302
0.000577099
0.00158557
0.000277126
0.000273226
0.000280617
0.000278836
0.000284316
0.000268736
0.000270385
0.000263632
0.000267153
0.000287849
0.00029161
0.000261364
0.000259319
0.000254952
0.000257673
0.000253067
0.000250669
0.000195484
0.000228789
0.000250818
0.000254724
0.000252559
0.000249573
0.000462325
0.000923018
0.000237119
0.000274158
0.000281076
0.000283723
0.000279783
0.00028779
0.000270611
0.000272221
0.000265127
0.000267462
0.000291441
0.000262616
0.000259101
0.000255577
0.000258488
0.000252381
0.000254517
0.000251075
0.000249454
0.000201432
0.000230665
0.000248182
0.000253465
0.000253385
0.000248956
0.000250085
0.000566099
0.000297586
0.00148592
0.000277178
0.000283735
0.000285772
0.000283179
0.000279492
0.000291447
0.000272527
0.000271215
0.000264536
0.000266881
0.000269703
0.000294041
0.00026269
0.000261234
0.000257534
0.000260562
0.000253594
0.00025583
0.000251496
0.000248812
0.00019369
0.000216544
0.000245383
0.000250889
0.000250018
0.000246918
0.000246624
0.000247641
0.000391227
0.000260148
0.000984175
0.000277691
0.000284903
0.000289327
0.000284496
0.000282368
0.000291925
0.000294617
0.000275385
0.000274015
0.000265793
0.000268415
0.000270251
0.000298042
0.000299832
0.00026428
0.000258733
0.000262118
0.000253014
0.000255208
0.000258001
0.000251
0.000249579
0.000207992
0.000224357
0.000245874
0.000249823
0.000245679
0.000244561
0.000245981
0.000247251
0.000457062
0.000796381
0.000280111
0.000288962
0.000291163
0.00028757
0.000282531
0.000295963
0.000297614
0.00027594
0.000274747
0.000267675
0.00026892
0.000272828
0.000300154
0.000305083
0.000265901
0.000261051
0.000264347
0.0002543
0.000256795
0.000259525
0.000252153
0.000249884
0.000204107
0.000241904
0.000216678
0.000245448
0.000245887
0.000242329
0.000243771
0.000245207
0.000248748
0.000339427
0.00150514
0.000475494
0.000280692
0.000289784
0.000294742
0.000289396
0.000285715
0.000299696
0.000296635
0.000300536
0.000278585
0.000277292
0.000269862
0.000271777
0.00027342
0.000304815
0.000307429
0.000269093
0.000265191
0.000262063
0.00026552
0.000253678
0.000256227
0.000258931
0.000261471
0.000251352
0.000197652
0.000241304
0.000218389
0.000241465
0.0002413
0.000241092
0.000243011
0.000246946
0.000249632
0.00025143
0.000947586
0.000408532
0.000283358
0.000293401
0.000296739
0.00028893
0.000292827
0.000285785
0.00030253
0.000300382
0.000305264
0.000279297
0.000277967
0.000272189
0.00027594
0.000313515
0.00027112
0.000266887
0.000264647
0.000266006
0.000255065
0.000257655
0.000260466
0.000262745
0.000252496
0.000189755
0.000240294
0.000240362
0.000208676
0.000231097
0.000237639
0.000239391
0.000241751
0.000244647
0.00024765
0.000249046
0.000251726
0.000223922
0.000556397
0.00157208
0.000287168
0.000239707
0.000352337
0.000284657
0.000296363
0.000300222
0.000291976
0.000295933
0.000288886
0.000307829
0.000310741
0.00028268
0.000280887
0.000274469
0.00027664
0.000317687
0.000316889
0.000269803
0.000273925
0.000264737
0.000268547
0.000254493
0.000257057
0.00025974
0.000262685
0.000263543
0.000193623
0.000237075
0.000236971
0.000218199
0.0002297
0.000236805
0.000239635
0.000244065
0.000241454
0.000246797
0.00024978
0.000250575
0.000253331
0.000572041
0.000918508
0.000254916
0.000247451
0.000237731
0.000252966
0.000339763
0.00081937
0.000287693
0.000300718
0.000305181
0.000295473
0.000291653
0.000300114
0.000311587
0.000311988
0.000316527
0.000283264
0.000281672
0.000275037
0.000279506
0.000324817
0.000270479
0.000275988
0.000266797
0.000269924
0.000256456
0.000258405
0.000261423
0.000264785
0.00026604
0.00019038
0.000235667
0.000234966
0.000234785
0.000211624
0.000232299
0.000238332
0.000239846
0.000245428
0.000243712
0.000248435
0.00025139
0.000252602
0.000255816
0.000432489
0.00142579
0.000294007
0.000201298
0.00025816
0.00024622
0.000231836
0.000251733
0.000308427
0.000419396
0.000289994
0.000305054
0.000311136
0.000299613
0.00029524
0.000303327
0.000319557
0.000318771
0.000324071
0.000286515
0.000284202
0.000278741
0.000280694
0.000327394
0.000328658
0.000273284
0.000278925
0.000276989
0.000269141
0.000272639
0.000258453
0.000260712
0.000263961
0.000267167
0.000267393
0.000231804
0.000232421
0.000234869
0.000216211
0.000230983
0.000240233
0.000242414
0.000245585
0.000247729
0.000244043
0.000250766
0.000253795
0.000254402
0.000257802
0.000498805
0.000956063
0.000243519
0.000191745
0.00023715
0.0002462
0.000233902
0.000255233
0.000253149
0.000256809
0.000348284
0.000585569
0.000289547
0.000293927
0.000309928
0.000316717
0.000303524
0.000299249
0.000295508
0.000309229
0.000325239
0.000322871
0.000286706
0.000285945
0.000284141
0.000335946
0.000333074
0.000333483
0.000275991
0.000281332
0.000280239
0.000271007
0.000274636
0.000260572
0.000262319
0.000265814
0.000269873
0.000270098
0.000230236
0.000229579
0.000231341
0.000232826
0.000238115
0.000214051
0.000227146
0.000240466
0.000242908
0.000247863
0.000249448
0.000246373
0.000252727
0.000255708
0.000257013
0.000260922
0.000375454
0.000737924
0.00019563
0.000278878
0.000203731
0.000254945
0.000243355
0.00024955
0.000229533
0.000255409
0.000252062
0.000256504
0.000316728
0.000409253
0.000293738
0.000296866
0.000315963
0.000311645
0.000322219
0.000308478
0.000304245
0.000299687
0.000312079
0.000332876
0.000330891
0.000290061
0.000289216
0.000285222
0.000336075
0.000338652
0.00027837
0.000283972
0.000282714
0.000273701
0.000277474
0.000262172
0.000264571
0.000268744
0.00027183
0.000270252
0.000227651
0.000229161
0.000231643
0.000233254
0.000239171
0.000221294
0.000227522
0.00024404
0.000244995
0.000248564
0.000251901
0.000247288
0.000255255
0.000258352
0.000258963
0.000262399
0.000463174
0.00139798
0.000189086
0.000242455
0.000201387
0.000237548
0.000245141
0.000248366
0.000236611
0.000226569
0.000253922
0.000252286
0.000254964
0.000357964
0.000461701
0.000293287
0.000297202
0.000300123
0.000320782
0.000317811
0.000328239
0.000310443
0.000303481
0.00030943
0.00031755
0.000339148
0.000334432
0.000333421
0.000291928
0.000289414
0.000345559
0.000343353
0.000344903
0.00028172
0.000286685
0.000286247
0.000275633
0.000279863
0.000265654
0.000266737
0.000270728
0.000274431
0.000273544
0.000225402
0.000227017
0.000230789
0.000236791
0.000242001
0.00022113
0.000225233
0.000246431
0.000244303
0.000251867
0.000254557
0.000250614
0.000258065
0.000261174
0.000261606
0.000265881
0.000385181
0.000763585
0.000199779
0.000281409
0.000211306
0.000302033
0.000244391
0.00024817
0.000236509
0.000216646
0.00025373
0.000250866
0.00025555
0.000254276
0.000398644
0.000296165
0.000301035
0.00030319
0.000326789
0.000320942
0.000329698
0.000317138
0.000306112
0.000315262
0.000320429
0.000344258
0.000341149
0.000338738
0.000292049
0.000295712
0.000289751
0.00034905
0.000348009
0.000283982
0.000289552
0.000278691
0.000282972
0.000268219
0.000269926
0.000273353
0.000276011
0.000275903
0.000224481
0.000228689
0.000234379
0.000238109
0.000244158
0.000221337
0.00022259
0.000249938
0.000248864
0.000253041
0.000254729
0.000258036
0.000251793
0.000261097
0.000264435
0.000264656
0.000266988
0.000267886
0.000477073
0.00134717
0.000189408
0.000249306
0.000211122
0.000298866
0.000244973
0.000249327
0.000246453
0.000234033
0.000241529
0.000252125
0.000220081
0.000252169
0.000250871
0.000255483
0.000252926
0.000558978
0.000327689
0.000300761
0.000303071
0.000304765
0.000331295
0.00032863
0.000336846
0.000319949
0.000311552
0.000315607
0.000327201
0.000345125
0.000348402
0.000342349
0.000340443
0.000295919
0.00029951
0.000293406
0.000351457
0.000351115
0.000287888
0.000289776
0.000293362
0.000280611
0.000286198
0.000271926
0.000272677
0.000276078
0.000279248
0.000279046
0.00022283
0.000226557
0.000233361
0.00023572
0.000241969
0.000244983
0.000248362
0.000219808
0.000220438
0.00025272
0.000251927
0.000256863
0.000258156
0.000261743
0.000256105
0.000263886
0.000266506
0.000269418
0.000270929
0.000377585
0.00079618
0.000204356
0.000194844
0.000286037
0.00020766
0.000215709
0.000243792
0.000247894
0.000245672
0.00023638
0.000240875
0.000247721
0.000217416
0.000251645
0.000249493
0.000254292
0.000252912
0.000437142
0.000328591
0.000302918
0.000310098
0.00031082
0.000336618
0.000330943
0.000326288
0.000314295
0.00032129
0.000330028
0.000349061
0.000350653
0.000346483
0.000344254
0.000296667
0.000299686
0.000354833
0.000353712
0.00028994
0.000294031
0.000296728
0.000284273
0.000286359
0.000289752
0.000274817
0.000275972
0.000279204
0.000281115
0.000225609
0.000229399
0.000235887
0.000241328
0.000244484
0.000248959
0.000251186
0.000217628
0.000220155
0.000252411
0.000256483
0.000255297
0.000258342
0.000259141
0.000261469
0.00026473
0.000266768
0.000269902
0.000271267
0.000273981
0.000480791
0.00114815
0.00019475
0.000191662
0.00024969
0.000211022
0.000214239
0.000242808
0.000246574
0.000248084
0.000244456
0.00023937
0.000235292
0.00024131
0.000231058
0.000281525
0.000215133
0.00022687
0.000250737
0.000249407
0.000256799
0.000254464
0.000252275
0.000459198
0.000309381
0.000313005
0.000313485
0.000340277
0.000336525
0.000329355
0.000319073
0.000327382
0.000334802
0.00034952
0.000351443
0.000353249
0.000346948
0.000345803
0.000301269
0.000303924
0.000356753
0.00035638
0.000293468
0.000297171
0.000301828
0.000286055
0.000290256
0.000292482
0.000279176
0.000279129
0.000282679
0.000284441
0.000228483
0.00022326
0.000234266
0.000240529
0.000243164
0.000250206
0.000252752
0.000254953
0.000214782
0.000217626
0.000257179
0.000260462
0.000256973
0.000262268
0.000262291
0.000264403
0.000268037
0.000270307
0.000272585
0.000275181
0.000276887
0.000377058
0.000622459
0.00020343
0.000196023
0.000284555
0.000208176
0.000213011
0.000243194
0.000245421
0.000247251
0.00024427
0.000238322
0.000235454
0.000240239
0.000221935
0.000270765
0.000213377
0.000228166
0.000251204
0.000249109
0.000255629
0.000253166
0.000404621
0.000311188
0.000318201
0.000319825
0.000340318
0.000344983
0.000337487
0.000335672
0.000322796
0.000331312
0.000337445
0.000352027
0.00035354
0.000354999
0.000349705
0.000349007
0.000305057
0.000303807
0.000309319
0.000359475
0.00035899
0.000295187
0.000302257
0.0003055
0.000289278
0.000293053
0.000282048
0.000280849
0.000282905
0.000286226
0.000286622
0.000231138
0.000228544
0.000239171
0.0002462
0.000251021
0.000256271
0.000258867
0.000259562
0.000212701
0.00021705
0.000260565
0.000264835
0.000263667
0.000264791
0.000265657
0.000268624
0.000270944
0.000270082
0.00027654
0.000277941
0.000277178
0.00028097
0.000472587
0.000785434
0.000195583
0.000193011
0.000264374
0.000208908
0.000210924
0.000241978
0.000245817
0.000247901
0.000243343
0.000236833
0.000238721
0.00023557
0.000233253
0.000240599
0.000237348
0.000213253
0.00031638
0.00022308
0.000250069
0.000255402
0.00025299
0.000391584
0.000317594
0.000322029
0.000321582
0.000343668
0.00034698
0.000341012
0.000337947
0.000329195
0.000336365
0.000340768
0.000351906
0.000354451
0.000355041
0.000357574
0.000350697
0.000310244
0.000310362
0.000312867
0.000364342
0.000361703
0.000359381
0.00036178
0.000300028
0.000303689
0.000310933
0.000292016
0.000297691
0.000286625
0.000285924
0.000287201
0.000289105
0.00029055
0.000243473
0.000240046
0.000222452
0.000243664
0.000251878
0.000256762
0.000265141
0.000267174
0.000265041
0.0002112
0.000215443
0.000265689
0.000269226
0.000267531
0.000269689
0.000272057
0.000271889
0.000270918
0.000275889
0.000275172
0.000280285
0.000281391
0.000281382
0.000284173
0.000438381
0.00076229
0.000193208
0.000195571
0.000327798
0.000223791
0.000208974
0.000205594
0.000242145
0.000245394
0.000247668
0.000243452
0.00023564
0.000237612
0.000233954
0.000232393
0.0002399
0.000240714
0.00020978
0.000283945
0.000225598
0.000250424
0.000257557
0.000254177
0.000256411
0.000252011
0.000355722
0.00031687
0.000321671
0.000327697
0.000327608
0.000343611
0.000346644
0.000349737
0.000341847
0.000332563
0.000338931
0.000342661
0.000353548
0.000356498
0.000358218
0.000359299
0.000353271
0.000312987
0.00031332
0.000368316
0.000363556
0.000364518
0.000301657
0.000309864
0.000314845
0.000297083
0.000299577
0.000290329
0.000288631
0.000289989
0.00029292
0.000293763
0.000265356
0.000224063
0.000236255
0.000257573
0.000256305
0.000269423
0.000272534
0.000267202
0.000275376
0.000274274
0.000212323
0.000241263
0.000270463
0.000275204
0.000274854
0.000273917
0.000276698
0.000277168
0.000276095
0.000280034
0.000278836
0.000285619
0.000285698
0.000284258
0.000288977
0.000497698
0.000774177
0.000188626
0.000192633
0.000318961
0.000224079
0.00020677
0.000206595
0.000241687
0.000244448
0.000246499
0.000248852
0.000242423
0.000236257
0.00023435
0.000238014
0.000233322
0.00023253
0.000230679
0.000239012
0.000240693
0.000223341
0.00021638
0.000208788
0.000300228
0.000223704
0.000249986
0.000253979
0.000256081
0.000251965
0.000364925
0.000320852
0.000327009
0.00033151
0.000332005
0.000345878
0.000348182
0.000350841
0.000342874
0.000343357
0.000337813
0.00034204
0.000345442
0.000355965
0.000354356
0.000359207
0.000360167
0.000362583
0.000354923
0.000318857
0.000318886
0.000368397
0.000366109
0.000307027
0.000310998
0.000314678
0.000320493
0.000300326
0.000305613
0.000295422
0.000293957
0.000294058
0.000296658
0.000298603
0.000188969
0.000238282
0.000238872
0.000181167
0.000223989
0.000276061
0.000266698
0.000285988
0.000288
0.00027513
0.000288752
0.000280794
0.000206077
0.00021191
0.000199038
0.000276919
0.000280747
0.000280873
0.000280639
0.000283772
0.000279429
0.000282706
0.000285834
0.000283826
0.00029154
0.000289522
0.000288036
0.000291255
0.000397523
0.000593287
0.000189281
0.000200002
0.000272257
0.000207402
0.000205265
0.00024485
0.000246572
0.000248632
0.000242995
0.000236033
0.00023352
0.000237072
0.000232172
0.000231168
0.000229302
0.000239072
0.000240136
0.000229124
0.0002136
0.000207459
0.000274224
0.000225294
0.000250892
0.00025826
0.000252856
0.00025492
0.000256988
0.000422052
0.000315759
0.000326068
0.000331629
0.000335397
0.000335522
0.000347942
0.000350099
0.000353577
0.000345317
0.000345497
0.000339384
0.000343961
0.000346585
0.000358376
0.00035717
0.000363769
0.00036357
0.000365532
0.000355074
0.000357722
0.000321446
0.000321628
0.000384637
0.00037479
0.000371544
0.000308805
0.00031611
0.000320016
0.000324367
0.000305505
0.000307723
0.000298401
0.000296551
0.000296916
0.000297536
0.000301023
0.000302653
0.000261168
0.000360814
0.000189374
0.000103308
0.000132588
0.000335174
0.00025644
0.000343003
0.000325019
0.000290928
0.000302459
0.000294237
0.000214052
0.000229599
0.000210081
0.000197117
0.000287859
0.000291072
0.000286483
0.000290427
0.000286496
0.000288499
0.000291691
0.000286803
0.000288558
0.000296952
0.000294883
0.000296139
0.000392233
0.000556578
0.000183915
0.000199483
0.000273194
0.000205515
0.000206594
0.000244279
0.000245953
0.000247744
0.000249529
0.000242304
0.000235283
0.000232268
0.000234064
0.000237152
0.000231018
0.000229423
0.000227684
0.000238331
0.000241007
0.000211522
0.000215853
0.000206852
0.000269209
0.000224043
0.000250612
0.000259415
0.000252641
0.000254734
0.000256918
0.000460064
0.000312653
0.000328949
0.00033545
0.000338675
0.000338951
0.000349763
0.000351797
0.000353772
0.000346917
0.000345861
0.000346799
0.00034238
0.000343951
0.000348617
0.000362133
0.000358661
0.000369229
0.000368821
0.000373379
0.000358196
0.000359722
0.000326152
0.000327267
0.000381648
0.000378595
0.000313559
0.000316989
0.000320289
0.000324659
0.000328422
0.000309241
0.000313718
0.000303257
0.000299311
0.000300827
0.000301949
0.000303936
0.00030532
0.000308033
0.00104914
0.000488802
3.08581e-05
0.00213448
0.00027736
0.00015061
0.000215632
0.000193443
0.000284603
0.000303455
0.00030987
0.000302764
0.000299289
0.000212939
0.000199795
0.000254168
0.000885912
0.000298956
0.000299638
0.000296461
0.000299384
0.000288986
0.000296188
0.000297578
0.000293827
0.000294152
0.000302501
0.000296881
0.000298256
0.000330831
0.000580994
0.000432813
0.000192387
0.000191526
0.00020081
0.000237265
0.000203894
0.000244969
0.00024654
0.000247515
0.00024923
0.000242667
0.000235737
0.000231561
0.00023337
0.000236827
0.000229748
0.000228652
0.000225833
0.000238683
0.00024057
0.00023054
0.000222121
0.000215462
0.000204701
0.000223299
0.00025149
0.000261229
0.000259177
0.000253562
0.000255743
0.000258042
0.0003949
0.000257147
0.000328916
0.000334165
0.000336018
0.000338866
0.000341707
0.000341555
0.000351787
0.000349937
0.000355525
0.000349105
0.000347958
0.000348826
0.00034333
0.000345543
0.000365132
0.000362007
0.000379018
0.000375175
0.000378815
0.000358
0.000362276
0.0003288
0.000391388
0.000399441
0.000390398
0.000315978
0.000322268
0.000324431
0.000329156
0.000331654
0.000314029
0.000304507
0.000306767
0.000304185
0.000307097
0.00030803
0.000311447
0.000312866
0.00300916
0.000153931
0.00169791
0.00129194
0.016324
0.00169081
7.01057e-05
0.000349297
3.62059e-05
0.000224287
0.000319078
0.000321021
0.00031489
0.000311531
0.000200858
0.000140363
0.000192336
0.000562828
0.00226534
0.000311099
0.000312422
0.000302407
0.000301522
0.000310454
0.000299923
0.000298493
0.00030401
0.000302983
0.000306563
0.000305371
0.000303524
0.000303595
0.000332463
0.000561576
0.000401528
0.000192703
0.000187163
0.000199326
0.000235896
0.00020062
0.000246125
0.0002446
0.000248209
0.000249974
0.000243787
0.000242162
0.000235309
0.000232172
0.00023015
0.000234007
0.000237617
0.000227528
0.000225775
0.000224096
0.000239709
0.000241292
0.000217425
0.000221749
0.000219517
0.000210347
0.000206471
0.000221742
0.000251109
0.00026207
0.000260039
0.000253554
0.000255797
0.000258122
0.000378314
0.000244504
0.000333049
0.0003355
0.000339108
0.00034098
0.000343345
0.000353796
0.000352302
0.000355792
0.000350865
0.000349641
0.000348591
0.000350603
0.000344601
0.000347503
0.000375648
0.000363392
0.000388248
0.000384608
0.000384876
0.000389766
0.000361275
0.000368712
0.000332649
0.00040594
0.000399344
0.000321202
0.00032525
0.00032892
0.000332511
0.000334754
0.00031792
0.000309759
0.000311672
0.000306665
0.000311078
0.000313882
0.000315535
0.000317919
0.0246642
1.64362e-05
0.00189327
0.00318376
0.0125788
0.0323841
0.000261158
0.000117345
0.00148884
0.000432863
0.000292438
0.000385967
0.000318898
0.000350367
0.00031553
0.000197358
0.000101929
0.00018643
0.00093429
0.00487206
0.000321587
0.000321634
0.000316257
0.000317631
0.000320277
0.000305567
0.000305359
0.0003088
0.000309733
0.00031236
0.000312884
0.000306287
0.000274112
0.000454561
0.000598667
0.000304227
0.000188416
0.000196084
0.000207416
0.000199234
0.000246688
0.000245358
0.000247798
0.0002501
0.000243549
0.000242665
0.000236122
0.000231519
0.000229543
0.000234022
0.000237876
0.000227593
0.000225174
0.000222554
0.000239913
0.000240773
0.000218476
0.000211301
0.000201137
0.000220467
0.000251928
0.000261444
0.000260322
0.000254847
0.000252969
0.000257069
0.000259324
0.000397318
0.000297011
0.000216612
0.000337747
0.000339503
0.000341117
0.000343074
0.000345191
0.000354021
0.000352386
0.00035869
0.000352317
0.000351579
0.000351156
0.000345783
0.000348734
0.000382928
0.000377183
0.000372458
0.000399226
0.000399636
0.000392076
0.000399212
0.000368077
0.000372498
0.000334917
0.000405983
0.000404947
0.000408236
0.000323283
0.000328299
0.00033063
0.000335124
0.000337048
0.00032249
0.000313493
0.00031545
0.000312745
0.000316091
0.000317513
0.00032192
0.000321877
0.0305318
0.00985106
0.00728655
0.0232207
0.0449243
0.000996339
0.00264131
0.00754565
0.00119483
2.03757e-05
0.000370063
0.000325296
0.000350465
0.00031987
0.000183196
0.000223065
0.000141754
0.000179405
0.00189598
0.0203092
0.000328868
0.000320954
0.000321925
0.000324187
0.000327509
0.000319906
0.000310044
0.00031546
0.000321863
0.000315401
0.000315619
0.000316911
0.000312244
0.00041433
0.000557395
0.000264449
0.000186489
0.000195274
0.000201406
0.000200362
0.000246402
0.000245138
0.000248368
0.000251198
0.000249476
0.000244139
0.000242374
0.000237229
0.000235992
0.000232037
0.000230445
0.000228667
0.00023515
0.000233094
0.000239146
0.000226391
0.000224203
0.000222682
0.000220824
0.000241336
0.000218487
0.000216173
0.000208173
0.000200976
0.000263932
0.000262413
0.000254773
0.000253678
0.000256815
0.000259472
0.000345883
0.000284533
0.000209542
0.00033892
0.000341501
0.000342616
0.000344381
0.00034641
0.000355801
0.000354422
0.000359236
0.000352946
0.000354057
0.000352528
0.000350771
0.00034805
0.000393227
0.000387654
0.000401522
0.000403695
0.000401642
0.000401423
0.000404595
0.000373248
0.000373675
0.000385939
0.000338133
0.000394084
0.000395025
0.000401966
0.000328385
0.000330452
0.000333996
0.000337212
0.000336524
0.00033938
0.0003261
0.000318375
0.000320411
0.000315371
0.000319698
0.000322648
0.000324472
0.000324067
0.000326272
0.0427292
0.00824443
0.020867
0.0208136
0.0399187
0.0517466
0.00018271
0.0069403
0.0121536
0.0112527
0.000520135
0.00900069
0.000171769
0.00034802
0.00032424
0.000177641
0.000193084
2.97101e-05
0.000229723
0.000252905
0.0193714
0.0290423
0.000330359
0.000323345
0.00033075
0.000333802
0.000331939
0.000327854
0.000317108
0.000320287
0.000326265
0.000322015
0.000320835
0.000321339
0.000323135
0.000306904
0.000450279
0.000578675
0.000216543
0.00019086
0.000187512
0.000193055
0.000194711
0.000207346
0.000247284
0.000245942
0.000248208
0.000251599
0.000249773
0.000244013
0.000243062
0.000237575
0.000236759
0.000231049
0.000230262
0.000229159
0.000235131
0.000233219
0.000239268
0.000226491
0.000224566
0.000221934
0.000219949
0.000241063
0.000217517
0.000214933
0.000208465
0.000198021
0.000265655
0.000262338
0.000255688
0.000253507
0.000257677
0.000261072
0.00025895
0.000333591
0.000241667
0.000200067
0.000341129
0.000342813
0.000344127
0.000345976
0.000348236
0.00035894
0.000357359
0.000365666
0.000354957
0.000356296
0.000355411
0.000352018
0.000348991
0.000395241
0.000402413
0.000391148
0.000402799
0.000400821
0.00040164
0.000404212
0.000383498
0.000371824
0.000386943
0.000390091
0.000339783
0.000391989
0.000393374
0.000329405
0.000330782
0.000334255
0.000336301
0.000339412
0.00033916
0.00034091
0.000321835
0.000324063
0.000320744
0.000324684
0.000325879
0.000329059
0.000328918
0.000329882
0.0355934
0.0253958
0.0425049
0.0348633
0.0425902
0.0438984
0.00328831
0.00497207
0.0210933
0.0192951
0.00113126
0.0120669
0.000134713
0.00033663
0.000332233
0.000283773
0.000354538
0.000157684
4.78591e-05
0.00400849
0.000201296
0.0217517
0.0428425
0.000328496
0.000331781
0.000334934
0.00033697
0.000333742
0.000334494
0.000325479
0.000332725
0.000329443
0.000322835
0.00032335
0.000324317
0.000326707
0.000285804
0.000375442
0.000557389
0.000202685
0.000189628
0.000184874
0.000194606
0.000203439
0.000218864
0.000246947
0.000245908
0.000248952
0.000252723
0.000250738
0.000244987
0.000242708
0.000238477
0.000236905
0.000231232
0.000228794
0.000236019
0.000234237
0.00023245
0.000240228
0.000225856
0.000227805
0.00022404
0.000222764
0.000220684
0.000218543
0.000241795
0.000216038
0.00021338
0.000214624
0.000202906
0.000210802
0.000266347
0.000264116
0.000255542
0.00025459
0.00025754
0.000261211
0.000259912
0.000341828
0.000271733
0.000230178
0.000197282
0.000342417
0.000344387
0.000345188
0.000347202
0.000349082
0.000364774
0.000362079
0.000357047
0.000359737
0.000356168
0.000354515
0.000350828
0.000401897
0.000403651
0.000400718
0.000399506
0.000394321
0.000398139
0.000393926
0.000390276
0.000380259
0.000388704
0.000399369
0.000341913
0.000397506
0.000389998
0.000332547
0.000334594
0.000336005
0.000338229
0.000341033
0.000340664
0.000343121
0.000326447
0.000328278
0.000323901
0.000327531
0.000330009
0.000330986
0.000331394
0.000331529
0.000332793
0.0277916
0.0241083
0.0516006
0.0478801
0.0448617
0.0482318
0.0299855
0.0080749
0.0123635
0.023124
0.0171603
0.000987648
0.0205087
0.000237255
0.000311976
0.000358191
0.000167189
0.000209817
0.000150323
0.00128676
0.0123145
0.002622
0.000490967
0.0345018
0.0525655
0.000332434
0.000331561
0.000336168
0.000338188
0.000335197
0.000334287
0.000329722
0.000332282
0.000326415
0.000327126
0.000328391
0.000329983
0.000237838
0.000365533
0.000606794
0.000436885
0.000201263
0.000185404
0.000186303
0.000192469
0.000199214
0.00018715
0.00024755
0.000246743
0.000248995
0.00025326
0.000250878
0.000244818
0.000243281
0.000238707
0.000237936
0.000230776
0.000229733
0.000236407
0.000234097
0.000232316
0.000240323
0.000226613
0.000227672
0.000224861
0.000222971
0.00021979
0.000218453
0.000241847
0.000216049
0.000211817
0.00021277
0.000202708
0.000209246
0.000268057
0.000265866
0.000263903
0.00025644
0.000254382
0.000258731
0.000262473
0.000260031
0.000305518
0.000263279
0.000208166
0.000196473
0.000344214
0.000345474
0.00034475
0.000346745
0.000348704
0.000350864
0.000370844
0.000370402
0.000361719
0.000364521
0.000362002
0.000356447
0.000356731
0.000351932
0.000402863
0.000400222
0.000402362
0.000391008
0.000390397
0.000393206
0.000390001
0.00038694
0.000400402
0.000379903
0.000394216
0.000343548
0.00039515
0.000408781
0.000334926
0.000336656
0.000338038
0.000340175
0.000342795
0.000342639
0.00034419
0.000328572
0.000331558
0.000327537
0.000331282
0.000332165
0.000334099
0.000334812
0.000335019
0.000335062
0.025001
0.0151921
0.0513419
0.0552106
0.0528528
0.0197728
0.0143848
0.0143386
0.0244642
0.0147469
0.00128302
0.0133414
0.000138739
0.000198252
0.000335826
0.00107514
0.000335634
0.00029033
0.000126501
0.0014604
0.0152842
0.0110881
0.0310172
0.0456091
0.000355824
0.000340185
0.000334443
0.000337442
0.000334771
0.000338227
0.000331816
0.000331186
0.000331867
0.00032858
0.000329559
0.000330915
0.000331903
0.000231283
0.000288587
0.000554589
0.000379723
0.000189795
0.000184267
0.000183811
0.000190334
0.000199367
0.00019888
0.000248455
0.000246995
0.000250039
0.000253009
0.000251995
0.00024415
0.000245751
0.000242651
0.000239638
0.000238361
0.000231367
0.000229461
0.000237665
0.000235962
0.000233048
0.000234961
0.000241172
0.000226017
0.000228466
0.000224192
0.000222092
0.00022053
0.000217541
0.000214871
0.000210002
0.000213011
0.000206562
0.000200001
0.000208499
0.000269607
0.000267637
0.000265296
0.000256421
0.000255228
0.000258955
0.000262878
0.000261656
0.000298761
0.000228689
0.000203487
0.000193884
0.000345373
0.000346592
0.000346299
0.000347387
0.000350201
0.000351764
0.000374232
0.000376433
0.000367446
0.000372873
0.000360515
0.000366284
0.000362211
0.000354781
0.000396186
0.000392618
0.000399366
0.000389703
0.000390699
0.000394728
0.000386819
0.000407464
0.000400369
0.000388044
0.000394468
0.0004004
0.000345389
0.000434617
0.000453768
0.000336501
0.000338288
0.000339254
0.000341208
0.000343418
0.000344247
0.000345965
0.00033197
0.000331187
0.000333772
0.000333042
0.000334885
0.000335842
0.000337278
0.000336903
0.000336761
0.024664
0.0304725
0.0450808
0.0478379
0.0580318
0.0398346
0.00552397
0.0197772
0.0118807
0.0102177
0.0230901
0.0155475
0.0180312
9.205e-05
0.000205435
0.000225007
0.00785076
0.00290625
0.000405771
0.000191256
0.00010549