/*--------------------------------*- C++ -*----------------------------------*\
| =========                 |                                                 |
| \\      /  F ield         | OpenFOAM: The Open Source CFD Toolbox           |
|  \\    /   O peration     | Version:  v2012                                 |
|   \\  /    A nd           | Website:  www.openfoam.com                      |
|    \\/     M anipulation  |                                                 |
\*---------------------------------------------------------------------------*/
FoamFile
{
    version     2.0;
    format      ascii;
    class       volScalarField;
    location    "1.8";
    object      nut;
}
// * * * * * * * * * * * * * * * * * * * * * * * * * * * * * * * * * * * * * //

dimensions      [0 2 -1 0 0 0 0];


internalField   nonuniform List<scalar> 
13611
(
1.73596e-05
1.73733e-05
1.62695e-05
1.64974e-05
1.28501e-05
1.09989e-05
1.76285e-05
1.70856e-05
1.15446e-05
1.19084e-05
1.0904e-05
1.77344e-05
1.43637e-05
1.67767e-05
1.15464e-05
1.12582e-05
1.13646e-05
1.07645e-05
1.82196e-05
1.41894e-05
1.76775e-05
1.14579e-05
1.14901e-05
1.15957e-05
1.14254e-05
1.08795e-05
1.72279e-05
1.20249e-05
1.66261e-05
1.14086e-05
1.14643e-05
1.15251e-05
1.15218e-05
1.13542e-05
1.08327e-05
1.68169e-05
1.34162e-05
1.76613e-05
1.13971e-05
1.14182e-05
1.15255e-05
1.15528e-05
1.14668e-05
1.0959e-05
1.74306e-05
1.27374e-05
1.64919e-05
1.83995e-05
1.1398e-05
1.13858e-05
1.1405e-05
1.14489e-05
1.15321e-05
1.14888e-05
1.1443e-05
1.07533e-05
1.51832e-05
1.14001e-05
1.77642e-05
1.88338e-05
1.14033e-05
1.1408e-05
1.14049e-05
1.14333e-05
1.14359e-05
1.15312e-05
1.14466e-05
1.15428e-05
1.15019e-05
1.11726e-05
1.53209e-05
1.11272e-05
1.64612e-05
1.82086e-05
1.14207e-05
1.14351e-05
1.14063e-05
1.14159e-05
1.14073e-05
1.1444e-05
1.14177e-05
1.15236e-05
1.15667e-05
1.15367e-05
1.11415e-05
1.27744e-05
1.09984e-05
1.72271e-05
1.86604e-05
1.14589e-05
1.14522e-05
1.14249e-05
1.14349e-05
1.1407e-05
1.14741e-05
1.14262e-05
1.1405e-05
1.14401e-05
1.15845e-05
1.15336e-05
1.13395e-05
1.29312e-05
1.10003e-05
1.80607e-05
1.71517e-05
1.14717e-05
1.14822e-05
1.14394e-05
1.14665e-05
1.14291e-05
1.15157e-05
1.15518e-05
1.14138e-05
1.14115e-05
1.14279e-05
1.15458e-05
1.14553e-05
1.15593e-05
1.13854e-05
1.14413e-05
1.09946e-05
1.12631e-05
1.60296e-05
1.88731e-05
1.76185e-05
1.15101e-05
1.1535e-05
1.14675e-05
1.14804e-05
1.14278e-05
1.16082e-05
1.14173e-05
1.14158e-05
1.14172e-05
1.1451e-05
1.15754e-05
1.15613e-05
1.20748e-05
1.0992e-05
1.13687e-05
1.74736e-05
1.8928e-05
1.54333e-05
1.1557e-05
1.15597e-05
1.1569e-05
1.14907e-05
1.15225e-05
1.14471e-05
1.16135e-05
1.16619e-05
1.14377e-05
1.14177e-05
1.14119e-05
1.14259e-05
1.14502e-05
1.15569e-05
1.07416e-05
1.07957e-05
1.12021e-05
1.157e-05
1.13585e-05
1.5883e-05
1.86404e-05
1.66306e-05
1.1554e-05
1.16234e-05
1.16408e-05
1.15022e-05
1.15247e-05
1.14516e-05
1.14852e-05
1.16862e-05
1.17377e-05
1.14441e-05
1.14326e-05
1.14195e-05
1.14176e-05
1.14131e-05
1.14181e-05
1.14436e-05
1.34738e-05
1.09116e-05
1.13281e-05
1.15498e-05
1.1505e-05
1.73978e-05
1.90808e-05
1.16143e-05
1.16582e-05
1.1654e-05
1.1697e-05
1.15507e-05
1.15652e-05
1.14895e-05
1.15106e-05
1.17507e-05
1.18013e-05
1.14753e-05
1.14337e-05
1.14133e-05
1.14283e-05
1.14096e-05
1.14178e-05
1.31504e-05
1.08453e-05
1.12415e-05
1.15106e-05
1.15782e-05
1.14366e-05
1.88629e-05
1.57491e-05
1.61733e-05
1.16141e-05
1.17282e-05
1.17193e-05
1.17831e-05
1.15712e-05
1.15775e-05
1.15013e-05
1.15525e-05
1.18299e-05
1.18809e-05
1.14866e-05
1.14588e-05
1.142e-05
1.14572e-05
1.14225e-05
1.14129e-05
1.14481e-05
1.0959e-05
1.13432e-05
1.14954e-05
1.14624e-05
1.14008e-05
1.92316e-05
1.7426e-05
1.49286e-05
1.16538e-05
1.17537e-05
1.17863e-05
1.17561e-05
1.18493e-05
1.16176e-05
1.16234e-05
1.15504e-05
1.15762e-05
1.1897e-05
1.15246e-05
1.14711e-05
1.14489e-05
1.1488e-05
1.14263e-05
1.14464e-05
1.1418e-05
1.14079e-05
1.2271e-05
1.09487e-05
1.12899e-05
1.14905e-05
1.15029e-05
1.14451e-05
1.14436e-05
1.94033e-05
1.67535e-05
1.58015e-05
1.17262e-05
1.18169e-05
1.18487e-05
1.1833e-05
1.17654e-05
1.19406e-05
1.16471e-05
1.16488e-05
1.1557e-05
1.15816e-05
1.16272e-05
1.19684e-05
1.1546e-05
1.1525e-05
1.1485e-05
1.15283e-05
1.14651e-05
1.14884e-05
1.14437e-05
1.14177e-05
1.13818e-05
1.09456e-05
1.12861e-05
1.14121e-05
1.14896e-05
1.14513e-05
1.14314e-05
1.14148e-05
1.90292e-05
1.60165e-05
1.66959e-05
1.17577e-05
1.18585e-05
1.19272e-05
1.18808e-05
1.18418e-05
1.19704e-05
1.19999e-05
1.17178e-05
1.17172e-05
1.16004e-05
1.16251e-05
1.16563e-05
1.20517e-05
1.20783e-05
1.1585e-05
1.15271e-05
1.15793e-05
1.14712e-05
1.14939e-05
1.15298e-05
1.14502e-05
1.14362e-05
1.30191e-05
1.0933e-05
1.13734e-05
1.14889e-05
1.14517e-05
1.1423e-05
1.1424e-05
1.14303e-05
1.86645e-05
1.7687e-05
1.18191e-05
1.19516e-05
1.19873e-05
1.19511e-05
1.18625e-05
1.20707e-05
1.20709e-05
1.17483e-05
1.17515e-05
1.16388e-05
1.16516e-05
1.17196e-05
1.21154e-05
1.2204e-05
1.16348e-05
1.15753e-05
1.16254e-05
1.15139e-05
1.1544e-05
1.15799e-05
1.14917e-05
1.14616e-05
1.23262e-05
1.12988e-05
1.10866e-05
1.14828e-05
1.14819e-05
1.14313e-05
1.14231e-05
1.14366e-05
1.14587e-05
1.99743e-05
1.55439e-05
1.96333e-05
1.18505e-05
1.19856e-05
1.20712e-05
1.20045e-05
1.19449e-05
1.21461e-05
1.20999e-05
1.21523e-05
1.18145e-05
1.18145e-05
1.17033e-05
1.17233e-05
1.17503e-05
1.22286e-05
1.22763e-05
1.1701e-05
1.16315e-05
1.16133e-05
1.16618e-05
1.15203e-05
1.15508e-05
1.15863e-05
1.16188e-05
1.14942e-05
1.2532e-05
1.13884e-05
1.09518e-05
1.14699e-05
1.14346e-05
1.14171e-05
1.14297e-05
1.14781e-05
1.14974e-05
1.6445e-05
1.68525e-05
2.06576e-05
1.1918e-05
1.20756e-05
1.21283e-05
1.20095e-05
1.20789e-05
1.19626e-05
1.22315e-05
1.21919e-05
1.22588e-05
1.18481e-05
1.18472e-05
1.17525e-05
1.18131e-05
1.24152e-05
1.1766e-05
1.1686e-05
1.16699e-05
1.16876e-05
1.15642e-05
1.15958e-05
1.16345e-05
1.16525e-05
1.15342e-05
1.12023e-05
1.13882e-05
1.14776e-05
1.08684e-05
1.12088e-05
1.14288e-05
1.1436e-05
1.14501e-05
1.14775e-05
1.1512e-05
1.15036e-05
1.15381e-05
1.51976e-05
1.91671e-05
1.53973e-05
1.81431e-05
1.09388e-05
1.95496e-05
1.19642e-05
1.21349e-05
1.22041e-05
1.20922e-05
1.21622e-05
1.20459e-05
1.23581e-05
1.23928e-05
1.19308e-05
1.19191e-05
1.18097e-05
1.18459e-05
1.24913e-05
1.25043e-05
1.17514e-05
1.18294e-05
1.1686e-05
1.17508e-05
1.15723e-05
1.16015e-05
1.16364e-05
1.16794e-05
1.16837e-05
1.2179e-05
1.14355e-05
1.14624e-05
1.09716e-05
1.12124e-05
1.14471e-05
1.14516e-05
1.14897e-05
1.14682e-05
1.15135e-05
1.15565e-05
1.15531e-05
1.15875e-05
1.92074e-05
1.68332e-05
1.67212e-05
1.12542e-05
1.09098e-05
1.1166e-05
1.48513e-05
1.37531e-05
1.20346e-05
1.22515e-05
1.23317e-05
1.21684e-05
1.21027e-05
1.22541e-05
1.24284e-05
1.2466e-05
1.25117e-05
1.19621e-05
1.19544e-05
1.18371e-05
1.19161e-05
1.26768e-05
1.17825e-05
1.1886e-05
1.1744e-05
1.17967e-05
1.16287e-05
1.16432e-05
1.16886e-05
1.17443e-05
1.17423e-05
1.13203e-05
1.14361e-05
1.14657e-05
1.14338e-05
1.0956e-05
1.13249e-05
1.14793e-05
1.1484e-05
1.15327e-05
1.15313e-05
1.15705e-05
1.16095e-05
1.15923e-05
1.16359e-05
2.01572e-05
1.5378e-05
1.83371e-05
1.24828e-05
1.17557e-05
1.1098e-05
1.08673e-05
1.11738e-05
1.35557e-05
1.74286e-05
1.21035e-05
1.23482e-05
1.24625e-05
1.22788e-05
1.21991e-05
1.23434e-05
1.26133e-05
1.26141e-05
1.26817e-05
1.20476e-05
1.20198e-05
1.19269e-05
1.1961e-05
1.27156e-05
1.2767e-05
1.18578e-05
1.19454e-05
1.19229e-05
1.1793e-05
1.18598e-05
1.16644e-05
1.16886e-05
1.17421e-05
1.17965e-05
1.17844e-05
1.14491e-05
1.14543e-05
1.14714e-05
1.101e-05
1.13608e-05
1.15405e-05
1.15471e-05
1.15586e-05
1.15746e-05
1.15658e-05
1.16187e-05
1.16588e-05
1.16497e-05
1.16985e-05
1.94784e-05
1.62623e-05
1.62089e-05
1.16648e-05
1.1122e-05
1.11283e-05
1.09344e-05
1.12193e-05
1.12045e-05
1.1218e-05
1.48347e-05
1.55252e-05
1.21098e-05
1.21946e-05
1.24699e-05
1.25986e-05
1.23651e-05
1.22862e-05
1.22193e-05
1.2479e-05
1.27218e-05
1.27049e-05
1.20677e-05
1.20758e-05
1.20459e-05
1.28461e-05
1.28187e-05
1.28445e-05
1.19134e-05
1.20133e-05
1.20024e-05
1.18512e-05
1.19184e-05
1.17189e-05
1.17429e-05
1.18026e-05
1.18661e-05
1.18436e-05
1.14321e-05
1.14513e-05
1.14591e-05
1.14535e-05
1.15451e-05
1.09166e-05
1.12844e-05
1.15748e-05
1.15887e-05
1.16182e-05
1.1637e-05
1.16299e-05
1.16812e-05
1.17186e-05
1.1703e-05
1.17648e-05
2.1029e-05
1.71076e-05
1.25789e-05
1.80493e-05
1.10667e-05
1.17737e-05
1.11115e-05
1.11866e-05
1.08912e-05
1.12174e-05
1.12082e-05
1.12076e-05
1.37293e-05
1.74793e-05
1.22227e-05
1.22765e-05
1.25969e-05
1.25223e-05
1.27106e-05
1.24861e-05
1.24175e-05
1.23271e-05
1.25576e-05
1.28538e-05
1.28486e-05
1.21571e-05
1.2153e-05
1.20873e-05
1.28606e-05
1.29036e-05
1.19861e-05
1.20712e-05
1.20736e-05
1.19125e-05
1.19803e-05
1.1774e-05
1.17925e-05
1.187e-05
1.19005e-05
1.18899e-05
1.14389e-05
1.14717e-05
1.14783e-05
1.14957e-05
1.16103e-05
1.11568e-05
1.13615e-05
1.16757e-05
1.16454e-05
1.16613e-05
1.16888e-05
1.1679e-05
1.17321e-05
1.17721e-05
1.17638e-05
1.18187e-05
1.97333e-05
1.50889e-05
1.14081e-05
1.63108e-05
1.09939e-05
1.13068e-05
1.11546e-05
1.11918e-05
1.1045e-05
1.09299e-05
1.12089e-05
1.12075e-05
1.11977e-05
1.46924e-05
1.70824e-05
1.22278e-05
1.23e-05
1.23515e-05
1.27132e-05
1.26633e-05
1.28286e-05
1.25423e-05
1.24125e-05
1.2534e-05
1.26795e-05
1.29198e-05
1.28807e-05
1.28992e-05
1.22291e-05
1.21938e-05
1.29205e-05
1.29197e-05
1.29427e-05
1.20659e-05
1.21483e-05
1.21536e-05
1.19721e-05
1.20548e-05
1.18541e-05
1.1859e-05
1.19318e-05
1.19604e-05
1.19774e-05
1.14357e-05
1.14604e-05
1.14972e-05
1.15812e-05
1.16864e-05
1.11734e-05
1.14032e-05
1.17113e-05
1.17116e-05
1.17473e-05
1.17665e-05
1.17649e-05
1.18125e-05
1.18516e-05
1.1819e-05
1.19039e-05
2.0628e-05
1.64336e-05
1.24955e-05
1.81811e-05
1.10485e-05
1.31973e-05
1.11684e-05
1.11935e-05
1.10715e-05
1.07419e-05
1.11981e-05
1.11969e-05
1.11911e-05
1.1187e-05
1.79878e-05
1.231e-05
1.24e-05
1.24285e-05
1.2832e-05
1.27371e-05
1.28578e-05
1.26938e-05
1.2488e-05
1.26735e-05
1.27513e-05
1.29008e-05
1.29125e-05
1.29302e-05
1.22478e-05
1.23143e-05
1.22186e-05
1.28577e-05
1.28597e-05
1.21348e-05
1.22435e-05
1.20424e-05
1.21285e-05
1.19302e-05
1.19306e-05
1.19914e-05
1.20118e-05
1.20254e-05
1.14775e-05
1.15381e-05
1.15926e-05
1.16547e-05
1.17623e-05
1.1328e-05
1.14291e-05
1.17996e-05
1.18437e-05
1.18036e-05
1.17969e-05
1.18369e-05
1.18183e-05
1.18738e-05
1.19197e-05
1.19042e-05
1.19514e-05
1.19401e-05
1.91062e-05
1.49084e-05
1.17763e-05
1.69234e-05
1.10631e-05
1.29774e-05
1.11839e-05
1.11934e-05
1.11887e-05
1.10567e-05
1.11684e-05
1.16667e-05
1.08019e-05
1.11873e-05
1.11853e-05
1.11974e-05
1.11823e-05
1.61628e-05
1.51862e-05
1.24188e-05
1.2462e-05
1.24791e-05
1.29045e-05
1.28762e-05
1.2926e-05
1.27678e-05
1.26156e-05
1.26937e-05
1.28802e-05
1.28896e-05
1.28488e-05
1.29134e-05
1.29387e-05
1.2349e-05
1.24128e-05
1.23141e-05
1.27506e-05
1.27499e-05
1.22275e-05
1.22618e-05
1.23286e-05
1.21059e-05
1.22169e-05
1.2012e-05
1.20104e-05
1.20649e-05
1.20872e-05
1.21096e-05
1.14825e-05
1.15329e-05
1.16421e-05
1.16654e-05
1.17647e-05
1.18162e-05
1.18597e-05
1.13452e-05
1.14351e-05
1.18879e-05
1.19091e-05
1.19051e-05
1.18943e-05
1.19448e-05
1.19339e-05
1.19561e-05
1.1987e-05
1.20131e-05
1.2032e-05
2.05639e-05
1.58248e-05
1.34054e-05
1.11712e-05
1.87632e-05
1.10052e-05
1.1232e-05
1.11844e-05
1.1178e-05
1.11773e-05
1.11237e-05
1.11711e-05
1.15847e-05
1.07715e-05
1.11774e-05
1.1175e-05
1.11953e-05
1.11868e-05
1.66468e-05
1.56588e-05
1.24861e-05
1.26289e-05
1.26222e-05
1.29473e-05
1.29196e-05
1.28899e-05
1.26888e-05
1.28183e-05
1.29311e-05
1.27289e-05
1.27048e-05
1.28064e-05
1.28805e-05
1.23836e-05
1.24318e-05
1.25941e-05
1.25197e-05
1.22885e-05
1.23773e-05
1.24218e-05
1.21965e-05
1.22347e-05
1.22961e-05
1.20988e-05
1.20826e-05
1.21304e-05
1.215e-05
1.16002e-05
1.16352e-05
1.17516e-05
1.18205e-05
1.18748e-05
1.19356e-05
1.19648e-05
1.14042e-05
1.14802e-05
1.19022e-05
1.19725e-05
1.20176e-05
1.1972e-05
1.19434e-05
1.1962e-05
1.20055e-05
1.20157e-05
1.20645e-05
1.20791e-05
1.21007e-05
1.85645e-05
1.49241e-05
1.24177e-05
1.13239e-05
1.72912e-05
1.11016e-05
1.12524e-05
1.11733e-05
1.11724e-05
1.11694e-05
1.11684e-05
1.11698e-05
1.11297e-05
1.11697e-05
1.10859e-05
1.3862e-05
1.07568e-05
1.09803e-05
1.11759e-05
1.11697e-05
1.12195e-05
1.12058e-05
1.119e-05
1.66581e-05
1.26399e-05
1.27091e-05
1.26933e-05
1.29162e-05
1.29539e-05
1.29298e-05
1.27894e-05
1.29236e-05
1.29785e-05
1.26947e-05
1.26242e-05
1.25273e-05
1.2785e-05
1.27932e-05
1.25023e-05
1.25427e-05
1.23549e-05
1.23185e-05
1.23746e-05
1.24482e-05
1.25411e-05
1.22534e-05
1.23405e-05
1.23722e-05
1.22007e-05
1.21681e-05
1.22258e-05
1.22295e-05
1.16546e-05
1.15795e-05
1.17451e-05
1.18806e-05
1.19226e-05
1.20358e-05
1.20688e-05
1.20626e-05
1.13569e-05
1.14623e-05
1.2052e-05
1.20945e-05
1.20881e-05
1.20775e-05
1.20292e-05
1.20598e-05
1.20949e-05
1.21114e-05
1.2153e-05
1.21776e-05
1.21871e-05
2.06295e-05
1.62279e-05
1.3512e-05
1.11225e-05
1.90303e-05
1.10792e-05
1.12718e-05
1.11655e-05
1.11617e-05
1.11657e-05
1.1158e-05
1.11611e-05
1.11561e-05
1.11572e-05
1.09115e-05
1.35537e-05
1.07512e-05
1.10337e-05
1.11843e-05
1.11745e-05
1.12167e-05
1.1201e-05
1.66129e-05
1.26927e-05
1.28229e-05
1.2825e-05
1.29331e-05
1.28345e-05
1.29608e-05
1.29725e-05
1.28677e-05
1.29648e-05
1.29587e-05
1.24401e-05
1.24159e-05
1.22853e-05
1.25737e-05
1.26154e-05
1.25819e-05
1.25751e-05
1.26628e-05
1.21005e-05
1.19437e-05
1.24321e-05
1.25763e-05
1.26427e-05
1.2331e-05
1.24015e-05
1.22898e-05
1.2225e-05
1.22479e-05
1.23041e-05
1.22975e-05
1.17138e-05
1.18475e-05
1.19582e-05
1.21131e-05
1.21927e-05
1.22643e-05
1.22303e-05
1.22112e-05
1.14228e-05
1.15014e-05
1.21292e-05
1.21965e-05
1.22793e-05
1.21167e-05
1.21904e-05
1.21634e-05
1.21471e-05
1.21623e-05
1.22492e-05
1.22642e-05
1.22119e-05
1.22805e-05
1.85716e-05
1.53501e-05
1.24494e-05
1.12162e-05
1.90778e-05
1.10944e-05
1.12747e-05
1.11545e-05
1.11598e-05
1.11699e-05
1.11547e-05
1.11539e-05
1.11512e-05
1.11526e-05
1.11409e-05
1.11491e-05
1.1866e-05
1.07526e-05
1.49898e-05
1.09585e-05
1.11841e-05
1.12278e-05
1.1209e-05
1.8412e-05
1.28324e-05
1.28919e-05
1.28668e-05
1.28223e-05
1.26801e-05
1.2898e-05
1.29431e-05
1.29642e-05
1.2976e-05
1.29077e-05
1.24123e-05
1.21869e-05
1.21532e-05
1.1993e-05
1.23854e-05
1.27031e-05
1.27266e-05
1.27511e-05
1.14802e-05
1.17554e-05
1.18109e-05
1.16425e-05
1.25504e-05
1.26246e-05
1.27658e-05
1.24122e-05
1.25205e-05
1.24025e-05
1.23496e-05
1.2366e-05
1.23875e-05
1.23924e-05
1.22364e-05
1.22726e-05
1.16869e-05
1.20724e-05
1.22821e-05
1.23231e-05
1.24975e-05
1.25029e-05
1.23508e-05
1.13985e-05
1.15641e-05
1.22825e-05
1.23349e-05
1.2365e-05
1.22414e-05
1.23547e-05
1.22762e-05
1.22037e-05
1.22857e-05
1.22865e-05
1.2362e-05
1.23493e-05
1.23292e-05
1.23748e-05
1.93039e-05
1.56411e-05
1.25445e-05
1.10538e-05
1.96453e-05
1.56078e-05
1.12094e-05
1.10525e-05
1.115e-05
1.11631e-05
1.11774e-05
1.11573e-05
1.1137e-05
1.11412e-05
1.11409e-05
1.1144e-05
1.1144e-05
1.19733e-05
1.07151e-05
1.37808e-05
1.10399e-05
1.11938e-05
1.12474e-05
1.12234e-05
1.12425e-05
1.12067e-05
1.72113e-05
1.28332e-05
1.29009e-05
1.29703e-05
1.29531e-05
1.28307e-05
1.27003e-05
1.24551e-05
1.28407e-05
1.29782e-05
1.29356e-05
1.28298e-05
1.21306e-05
1.17759e-05
1.17263e-05
1.16489e-05
1.20648e-05
1.27711e-05
1.28008e-05
1.10289e-05
1.12328e-05
1.12442e-05
1.26045e-05
1.27725e-05
1.28545e-05
1.25336e-05
1.25796e-05
1.25114e-05
1.24351e-05
1.24271e-05
1.24776e-05
1.24838e-05
1.28939e-05
1.14124e-05
1.2303e-05
1.25344e-05
1.23777e-05
1.26373e-05
1.26375e-05
1.24998e-05
1.26758e-05
1.26175e-05
1.15602e-05
1.28075e-05
1.23955e-05
1.2486e-05
1.25769e-05
1.23788e-05
1.25006e-05
1.24186e-05
1.23492e-05
1.23792e-05
1.24027e-05
1.24905e-05
1.24695e-05
1.2394e-05
1.24927e-05
1.86544e-05
1.54065e-05
1.14918e-05
1.09977e-05
2.03749e-05
1.57955e-05
1.1243e-05
1.10794e-05
1.11514e-05
1.11632e-05
1.11738e-05
1.11926e-05
1.11571e-05
1.11341e-05
1.113e-05
1.11372e-05
1.11282e-05
1.11372e-05
1.11416e-05
1.11415e-05
1.11475e-05
1.13323e-05
1.08946e-05
1.07951e-05
1.41604e-05
1.10386e-05
1.11985e-05
1.1235e-05
1.12555e-05
1.12178e-05
1.67399e-05
1.29106e-05
1.2977e-05
1.3001e-05
1.2993e-05
1.26718e-05
1.25215e-05
1.22736e-05
1.27885e-05
1.27839e-05
1.2965e-05
1.28455e-05
1.2697e-05
1.1797e-05
1.19546e-05
1.14023e-05
1.13801e-05
1.1221e-05
1.1768e-05
1.28879e-05
1.29118e-05
1.0936e-05
1.10098e-05
1.27339e-05
1.2812e-05
1.28661e-05
1.29568e-05
1.26251e-05
1.27262e-05
1.26346e-05
1.25709e-05
1.25336e-05
1.25823e-05
1.25982e-05
9.50533e-06
1.1664e-05
1.22163e-05
9.08086e-06
1.17117e-05
1.31927e-05
1.255e-05
1.30879e-05
1.30647e-05
1.26193e-05
1.29608e-05
1.27586e-05
1.12937e-05
1.15444e-05
1.06371e-05
1.258e-05
1.26552e-05
1.27031e-05
1.25537e-05
1.26774e-05
1.24551e-05
1.25806e-05
1.25435e-05
1.2531e-05
1.26508e-05
1.25549e-05
1.24978e-05
1.25676e-05
2.0119e-05
1.673e-05
1.17209e-05
1.10135e-05
1.87111e-05
1.39223e-05
1.11881e-05
1.11765e-05
1.11836e-05
1.12011e-05
1.11714e-05
1.113e-05
1.11239e-05
1.11346e-05
1.11203e-05
1.11251e-05
1.1128e-05
1.11457e-05
1.11522e-05
1.15756e-05
1.08771e-05
1.07514e-05
1.30261e-05
1.10922e-05
1.12124e-05
1.12798e-05
1.12306e-05
1.12512e-05
1.12744e-05
1.68616e-05
1.45292e-05
1.29832e-05
1.30172e-05
1.3005e-05
1.2992e-05
1.2516e-05
1.23223e-05
1.18869e-05
1.26173e-05
1.26546e-05
1.29343e-05
1.27232e-05
1.25711e-05
1.14113e-05
1.15242e-05
1.09556e-05
1.10178e-05
1.09901e-05
1.17061e-05
1.13675e-05
1.29402e-05
1.29585e-05
1.05298e-05
1.06103e-05
1.06378e-05
1.27872e-05
1.29188e-05
1.29655e-05
1.30116e-05
1.27466e-05
1.27828e-05
1.27153e-05
1.26446e-05
1.26268e-05
1.26282e-05
1.2683e-05
1.27051e-05
1.34093e-05
1.73003e-05
9.88764e-06
5.75239e-06
6.91608e-06
1.53065e-05
1.1666e-05
1.47598e-05
1.42346e-05
1.30525e-05
1.31746e-05
1.30573e-05
1.18213e-05
1.26491e-05
1.13396e-05
1.04889e-05
1.28169e-05
1.2931e-05
1.27127e-05
1.28394e-05
1.26376e-05
1.272e-05
1.26786e-05
1.25875e-05
1.26694e-05
1.2771e-05
1.269e-05
1.26881e-05
2.10285e-05
1.70515e-05
1.10733e-05
1.09942e-05
1.90457e-05
1.39237e-05
1.14101e-05
1.11819e-05
1.11859e-05
1.11975e-05
1.12153e-05
1.11746e-05
1.11309e-05
1.11181e-05
1.11251e-05
1.11383e-05
1.11155e-05
1.11147e-05
1.11242e-05
1.11458e-05
1.11661e-05
1.10729e-05
1.0953e-05
1.0827e-05
1.28359e-05
1.10921e-05
1.12209e-05
1.13001e-05
1.12438e-05
1.12641e-05
1.12887e-05
1.6839e-05
1.41722e-05
1.30034e-05
1.29937e-05
1.29428e-05
1.29627e-05
1.22407e-05
1.20584e-05
1.18015e-05
1.24794e-05
1.25791e-05
1.24999e-05
1.28252e-05
1.27336e-05
1.23139e-05
1.09966e-05
1.12922e-05
1.06458e-05
1.07273e-05
1.06292e-05
1.12311e-05
1.10622e-05
1.30047e-05
1.30237e-05
1.04329e-05
1.0597e-05
1.28937e-05
1.29458e-05
1.29831e-05
1.30286e-05
1.30469e-05
1.28356e-05
1.29094e-05
1.28191e-05
1.2749e-05
1.27411e-05
1.27523e-05
1.27725e-05
1.27873e-05
1.28245e-05
5.27391e-05
2.21976e-05
1.70253e-06
0.000124138
1.46676e-05
7.01566e-06
9.66817e-06
8.75282e-06
1.22084e-05
1.31517e-05
1.29731e-05
1.31291e-05
1.30953e-05
1.18462e-05
1.10245e-05
1.38682e-05
4.84638e-05
1.3024e-05
1.30557e-05
1.29294e-05
1.30116e-05
1.27101e-05
1.2892e-05
1.2828e-05
1.27697e-05
1.28e-05
1.29006e-05
1.27498e-05
1.27525e-05
2.09284e-05
1.67257e-05
1.90958e-05
1.09721e-05
1.21845e-05
1.11289e-05
1.64835e-05
1.13361e-05
1.11966e-05
1.11989e-05
1.12062e-05
1.12252e-05
1.11879e-05
1.11398e-05
1.11173e-05
1.11307e-05
1.11449e-05
1.1108e-05
1.11043e-05
1.11028e-05
1.11584e-05
1.11712e-05
1.17271e-05
1.10759e-05
1.09765e-05
1.07625e-05
1.10914e-05
1.12374e-05
1.13449e-05
1.13144e-05
1.12602e-05
1.12828e-05
1.1308e-05
1.56252e-05
1.26822e-05
1.30136e-05
1.30088e-05
1.29853e-05
1.29438e-05
1.28626e-05
1.28613e-05
1.19935e-05
1.21611e-05
1.14791e-05
1.21987e-05
1.23294e-05
1.22741e-05
1.27805e-05
1.25753e-05
1.08192e-05
1.09261e-05
1.04741e-05
1.05338e-05
1.05676e-05
1.11809e-05
1.08322e-05
1.30283e-05
1.07032e-05
1.09906e-05
1.06489e-05
1.29443e-05
1.30194e-05
1.30282e-05
1.30504e-05
1.30366e-05
1.29299e-05
1.28326e-05
1.29028e-05
1.28608e-05
1.28624e-05
1.28657e-05
1.29108e-05
1.29224e-05
0.000131124
6.90971e-06
7.31837e-05
7.13356e-05
0.000491033
9.30461e-05
3.53526e-06
1.54086e-05
1.74753e-06
9.15314e-06
1.33087e-05
1.28906e-05
1.31414e-05
1.32685e-05
1.12536e-05
7.66658e-06
1.07342e-05
3.10363e-05
0.000127155
1.31942e-05
1.32204e-05
1.30376e-05
1.29913e-05
1.31715e-05
1.29468e-05
1.2867e-05
1.29582e-05
1.29723e-05
1.29676e-05
1.2964e-05
1.28957e-05
1.28715e-05
2.14795e-05
1.69597e-05
1.9493e-05
1.08823e-05
1.18529e-05
1.11368e-05
1.65772e-05
1.13082e-05
1.1205e-05
1.12038e-05
1.12191e-05
1.12396e-05
1.12e-05
1.11911e-05
1.11478e-05
1.11245e-05
1.11104e-05
1.11425e-05
1.11565e-05
1.10996e-05
1.10891e-05
1.10954e-05
1.11691e-05
1.11849e-05
1.14341e-05
1.10898e-05
1.10681e-05
1.08952e-05
1.09728e-05
1.10854e-05
1.1246e-05
1.13727e-05
1.13351e-05
1.12733e-05
1.12979e-05
1.13278e-05
1.52138e-05
1.23377e-05
1.30139e-05
1.30044e-05
1.29006e-05
1.28438e-05
1.27281e-05
1.16278e-05
1.17391e-05
1.13796e-05
1.19489e-05
1.21112e-05
1.2225e-05
1.19854e-05
1.26718e-05
1.23665e-05
1.05372e-05
1.08266e-05
1.06301e-05
1.07034e-05
1.05586e-05
1.06447e-05
1.08774e-05
1.0549e-05
1.30286e-05
1.1461e-05
1.10363e-05
1.30165e-05
1.30486e-05
1.30604e-05
1.3046e-05
1.30017e-05
1.29936e-05
1.29391e-05
1.29943e-05
1.29202e-05
1.29482e-05
1.29735e-05
1.29847e-05
1.3007e-05
0.000570937
7.39595e-07
7.91302e-05
0.00015335
0.000409711
0.000640277
1.11874e-05
5.16694e-06
5.32662e-05
1.87986e-05
1.18108e-05
1.47045e-05
1.28065e-05
1.3327e-05
1.30855e-05
1.1161e-05
5.69402e-06
1.04088e-05
5.46663e-05
0.000257443
1.3221e-05
1.32505e-05
1.32279e-05
1.32132e-05
1.32805e-05
1.30291e-05
1.30026e-05
1.30436e-05
1.30791e-05
1.3063e-05
1.30879e-05
1.29367e-05
1.96511e-05
1.85766e-05
1.64533e-05
1.98225e-05
1.11641e-05
1.10081e-05
1.38958e-05
1.12539e-05
1.12193e-05
1.12202e-05
1.1228e-05
1.12533e-05
1.1209e-05
1.12024e-05
1.11628e-05
1.11276e-05
1.11108e-05
1.11551e-05
1.11681e-05
1.11033e-05
1.10881e-05
1.10825e-05
1.11816e-05
1.11905e-05
1.10721e-05
1.09517e-05
1.08558e-05
1.10763e-05
1.12674e-05
1.13782e-05
1.13567e-05
1.12931e-05
1.12777e-05
1.13211e-05
1.13532e-05
1.59413e-05
1.36184e-05
1.1451e-05
1.29489e-05
1.2878e-05
1.28254e-05
1.27297e-05
1.25596e-05
1.1506e-05
1.17e-05
1.1047e-05
1.16649e-05
1.17732e-05
1.18005e-05
1.25103e-05
1.21432e-05
1.05919e-05
1.04847e-05
1.05049e-05
1.12755e-05
1.14209e-05
1.07366e-05
1.09351e-05
1.05536e-05
1.05892e-05
1.29877e-05
1.13571e-05
1.14651e-05
1.15516e-05
1.30468e-05
1.30807e-05
1.30708e-05
1.3007e-05
1.29254e-05
1.30511e-05
1.30089e-05
1.30531e-05
1.3027e-05
1.30302e-05
1.30325e-05
1.30713e-05
1.30676e-05
0.000604044
0.000312365
0.000317275
0.000523263
0.000655088
3.13997e-05
6.38245e-05
0.000132993
4.8364e-05
9.15434e-07
1.39299e-05
1.25431e-05
1.2932e-05
1.2838e-05
1.04145e-05
1.4191e-05
7.79246e-06
1.01385e-05
0.000107133
0.000676148
1.31961e-05
1.2824e-05
1.3264e-05
1.32411e-05
1.32752e-05
1.32081e-05
1.30742e-05
1.31252e-05
1.32174e-05
1.30838e-05
1.30992e-05
1.3118e-05
1.30416e-05
1.90427e-05
1.69092e-05
1.92857e-05
1.10404e-05
1.10576e-05
1.34636e-05
1.14281e-05
1.12283e-05
1.12296e-05
1.12439e-05
1.12703e-05
1.12541e-05
1.12222e-05
1.12098e-05
1.11697e-05
1.11723e-05
1.11433e-05
1.11211e-05
1.11107e-05
1.11707e-05
1.11539e-05
1.1182e-05
1.11004e-05
1.10884e-05
1.10779e-05
1.10743e-05
1.12025e-05
1.10677e-05
1.10565e-05
1.09226e-05
1.08147e-05
1.14248e-05
1.1405e-05
1.13052e-05
1.1296e-05
1.13343e-05
1.13728e-05
1.50857e-05
1.34437e-05
1.1249e-05
1.28813e-05
1.27286e-05
1.26704e-05
1.25469e-05
1.23396e-05
1.11939e-05
1.13584e-05
1.09633e-05
1.15634e-05
1.13763e-05
1.16183e-05
1.18192e-05
1.22197e-05
1.11618e-05
1.0887e-05
1.17355e-05
1.18755e-05
1.18887e-05
1.16645e-05
1.19947e-05
1.05767e-05
1.06336e-05
1.08496e-05
1.29117e-05
9.79484e-06
1.0822e-05
1.20113e-05
1.30902e-05
1.30762e-05
1.30321e-05
1.29288e-05
1.2953e-05
1.28272e-05
1.30936e-05
1.30729e-05
1.30978e-05
1.30672e-05
1.30697e-05
1.3086e-05
1.30789e-05
1.3083e-05
1.31037e-05
0.000620101
0.000241757
0.000660339
0.000544061
0.000627357
0.000667622
5.21772e-06
0.000103083
0.000157335
0.000135608
2.12048e-05
0.000149654
6.99215e-06
1.29868e-05
1.25388e-05
7.07688e-06
1.10874e-05
1.92724e-06
1.26627e-05
1.40937e-05
0.000670705
0.000788788
1.28239e-05
1.23747e-05
1.32612e-05
1.31624e-05
1.31952e-05
1.32488e-05
1.31516e-05
1.31561e-05
1.32245e-05
1.31803e-05
1.31137e-05
1.31209e-05
1.3123e-05
1.95879e-05
1.86378e-05
1.64836e-05
1.53493e-05
1.19347e-05
1.08887e-05
1.09977e-05
1.11416e-05
1.19404e-05
1.12481e-05
1.12474e-05
1.12551e-05
1.12886e-05
1.12716e-05
1.1234e-05
1.12265e-05
1.11848e-05
1.11848e-05
1.11426e-05
1.1131e-05
1.11238e-05
1.11839e-05
1.11676e-05
1.11954e-05
1.11118e-05
1.11044e-05
1.10872e-05
1.10722e-05
1.1211e-05
1.10615e-05
1.10592e-05
1.09636e-05
1.07745e-05
1.1459e-05
1.14202e-05
1.13236e-05
1.13049e-05
1.13607e-05
1.14054e-05
1.1377e-05
1.51401e-05
1.23097e-05
1.09049e-05
1.27512e-05
1.2625e-05
1.25275e-05
1.23565e-05
1.20637e-05
1.09656e-05
1.10197e-05
1.06907e-05
1.12746e-05
1.1141e-05
1.12448e-05
1.15838e-05
1.20027e-05
1.12889e-05
1.18256e-05
1.10868e-05
1.28411e-05
1.03599e-05
1.25463e-05
1.25627e-05
1.074e-05
1.05636e-05
1.09676e-05
1.10162e-05
1.28043e-05
9.06201e-06
1.14269e-05
1.31109e-05
1.30837e-05
1.30453e-05
1.29784e-05
1.2799e-05
1.28283e-05
1.2706e-05
1.30905e-05
1.30869e-05
1.31068e-05
1.30937e-05
1.30755e-05
1.30704e-05
1.31028e-05
1.30985e-05
0.000520551
0.000437846
0.000831164
0.000718156
0.000638449
0.000628854
5.64822e-05
6.50536e-05
0.000173263
0.000156793
3.59711e-05
0.000158771
5.89641e-06
1.23788e-05
1.25025e-05
1.02822e-05
1.30409e-05
9.01813e-06
2.92214e-06
0.000207116
1.13221e-05
0.000654671
0.000774471
1.23992e-05
1.25965e-05
1.31347e-05
1.30507e-05
1.29074e-05
1.31724e-05
1.31304e-05
1.31556e-05
1.31569e-05
1.30983e-05
1.30949e-05
1.30844e-05
1.30754e-05
2.02456e-05
1.94628e-05
1.69974e-05
1.39271e-05
1.20222e-05
1.08336e-05
1.12152e-05
1.17794e-05
1.27347e-05
1.12558e-05
1.12595e-05
1.12698e-05
1.13043e-05
1.12878e-05
1.12538e-05
1.12333e-05
1.1196e-05
1.11975e-05
1.11526e-05
1.11316e-05
1.11978e-05
1.11819e-05
1.11661e-05
1.12093e-05
1.11155e-05
1.11274e-05
1.11101e-05
1.11049e-05
1.10799e-05
1.10663e-05
1.12269e-05
1.1057e-05
1.10575e-05
1.105e-05
1.08777e-05
1.1028e-05
1.14895e-05
1.14663e-05
1.13373e-05
1.13281e-05
1.1375e-05
1.14241e-05
1.14051e-05
1.58912e-05
1.35784e-05
1.20929e-05
1.08568e-05
1.2605e-05
1.23784e-05
1.23228e-05
1.20801e-05
1.18554e-05
1.06621e-05
1.08241e-05
1.1104e-05
1.08889e-05
1.11731e-05
1.12405e-05
1.1689e-05
1.20376e-05
1.22496e-05
1.19108e-05
1.19677e-05
1.21636e-05
1.14442e-05
1.0112e-05
1.10815e-05
1.07269e-05
1.09802e-05
1.17982e-05
1.26523e-05
4.7704e-06
6.9535e-06
1.30773e-05
1.30257e-05
1.29962e-05
1.2879e-05
1.26968e-05
1.27001e-05
1.25205e-05
1.30877e-05
1.30518e-05
1.30919e-05
1.30654e-05
1.30333e-05
1.30102e-05
1.30346e-05
1.30507e-05
1.30775e-05
0.000407019
0.000346337
0.000793809
0.000764423
0.000695059
0.000660618
0.000496563
0.000106865
0.000117136
0.000173872
0.000151605
3.02479e-05
0.000186578
8.59017e-06
1.15301e-05
1.32577e-05
3.8811e-06
6.08938e-06
8.67096e-06
7.53558e-05
0.000476
0.00014578
2.79676e-05
0.000721933
0.00076885
1.2025e-05
1.2184e-05
1.27627e-05
1.25994e-05
1.26707e-05
1.30329e-05
1.30699e-05
1.30644e-05
1.30524e-05
1.30244e-05
1.29782e-05
1.29329e-05
1.75935e-05
1.98224e-05
1.64272e-05
1.89702e-05
1.4172e-05
1.13647e-05
1.0868e-05
1.11659e-05
1.1614e-05
1.09366e-05
1.12758e-05
1.12761e-05
1.12822e-05
1.13244e-05
1.1304e-05
1.12651e-05
1.12529e-05
1.12114e-05
1.12121e-05
1.11567e-05
1.11496e-05
1.12154e-05
1.11953e-05
1.11769e-05
1.1224e-05
1.11328e-05
1.11405e-05
1.1129e-05
1.1121e-05
1.10847e-05
1.10716e-05
1.12393e-05
1.1065e-05
1.10396e-05
1.10414e-05
1.09034e-05
1.10341e-05
1.15259e-05
1.14944e-05
1.14767e-05
1.13628e-05
1.13402e-05
1.14054e-05
1.14559e-05
1.14224e-05
1.51173e-05
1.36024e-05
1.13461e-05
1.08156e-05
1.23991e-05
1.22349e-05
1.231e-05
1.20978e-05
1.18481e-05
1.15642e-05
1.06054e-05
1.0622e-05
1.08184e-05
1.07586e-05
1.08494e-05
1.11236e-05
1.10741e-05
1.14831e-05
1.21447e-05
1.21038e-05
1.2212e-05
9.74288e-06
8.57257e-06
9.4484e-06
9.24563e-06
7.04127e-06
1.1799e-05
1.06851e-05
1.14996e-05
1.24697e-05
4.61514e-06
3.54263e-06
1.30241e-05
1.29769e-05
1.29053e-05
1.27453e-05
1.25387e-05
1.25234e-05
1.23999e-05
1.30416e-05
1.29277e-05
1.30262e-05
1.2993e-05
1.29562e-05
1.29188e-05
1.2915e-05
1.29745e-05
1.29798e-05
0.000344943
0.000211446
0.000733022
0.000778402
0.000779894
0.000490992
0.000142414
0.00013198
0.000183098
0.000156542
3.07381e-05
0.000155572
4.40679e-06
7.15507e-06
1.2491e-05
2.43426e-05
4.76808e-06
1.67483e-05
7.35447e-06
8.36785e-05
0.000544423
0.000460004
0.000682223
0.000688835
1.32708e-05
1.22881e-05
1.22237e-05
1.23759e-05
1.23929e-05
1.22551e-05
1.27446e-05
1.28728e-05
1.27878e-05
1.29706e-05
1.29087e-05
1.28378e-05
1.27527e-05
1.80831e-05
1.94168e-05
1.74033e-05
1.97477e-05
1.2702e-05
1.1457e-05
1.08558e-05
1.12454e-05
1.17876e-05
1.17883e-05
1.1286e-05
1.12921e-05
1.13007e-05
1.13339e-05
1.13247e-05
1.12647e-05
1.12888e-05
1.12547e-05
1.12253e-05
1.12315e-05
1.11704e-05
1.11576e-05
1.12337e-05
1.12214e-05
1.11902e-05
1.1213e-05
1.12389e-05
1.11387e-05
1.11541e-05
1.11362e-05
1.11234e-05
1.11068e-05
1.10776e-05
1.10693e-05
1.10315e-05
1.10516e-05
1.09996e-05
1.08778e-05
1.10247e-05
1.15649e-05
1.15452e-05
1.15173e-05
1.13789e-05
1.13642e-05
1.14253e-05
1.14777e-05
1.14623e-05
1.51313e-05
1.24528e-05
1.12982e-05
1.07948e-05
1.22196e-05
1.20394e-05
1.20281e-05
1.19258e-05
1.15638e-05
1.13789e-05
1.06608e-05
1.07031e-05
1.07351e-05
1.06379e-05
1.08753e-05
1.07169e-05
1.08299e-05
1.11685e-05
1.1449e-05
9.85317e-06
1.28706e-05
7.75443e-06
5.73811e-06
5.46626e-06
7.95826e-06
4.02206e-06
1.23201e-05
1.10514e-05
1.14641e-05
1.2274e-05
1.22513e-05
2.96945e-06
2.41694e-06
1.29272e-05
1.28784e-05
1.28113e-05
1.26348e-05
1.24559e-05
1.23274e-05
1.21685e-05
1.29465e-05
1.29392e-05
1.28466e-05
1.28971e-05
1.28451e-05
1.28208e-05
1.28449e-05
1.28655e-05
1.29072e-05
0.000308115
0.000322117
0.000676684
0.000741788
0.000803037
0.000798401
0.00016609
0.000204726