/*--------------------------------*- C++ -*----------------------------------*\
| =========                 |                                                 |
| \\      /  F ield         | OpenFOAM: The Open Source CFD Toolbox           |
|  \\    /   O peration     | Version:  v2012                                 |
|   \\  /    A nd           | Website:  www.openfoam.com                      |
|    \\/     M anipulation  |                                                 |
\*---------------------------------------------------------------------------*/
FoamFile
{
    version     2.0;
    format      ascii;
    class       volScalarField;
    location    "1.8";
    object      omega;
}
// * * * * * * * * * * * * * * * * * * * * * * * * * * * * * * * * * * * * * //

dimensions      [0 0 -1 0 0 0 0];


internalField   nonuniform List<scalar> 
13611
(
57.4076
29.8079
107.425
20.244
17.354
22.2247
24.9464
70.1405
24.9981
18.4949
23.2636
37.9836
19.4033
112.636
24.9048
17.7091
24.4476
20.8507
34.0516
18.2632
62.6448
24.2322
24.3757
24.9629
24.4779
21.9247
23.9273
17.7164
99.9041
23.9777
24.0887
24.3889
24.3526
24.1453
20.7776
22.3408
18.4621
63.4424
23.82
23.7631
24.1932
24.2774
24.2776
22.074
22.1496
17.5216
110.152
35.5197
23.7001
23.7395
23.577
23.731
23.9878
24.2004
23.9903
21.729
18.6028
19.2809
64.1055
37.4857
23.6041
23.6819
23.432
23.5236
23.8567
23.8153
23.5235
23.9546
24.0018
23.0597
17.8365
19.0332
101.344
27.016
23.5431
23.7592
23.3183
23.4426
23.2966
23.3229
23.2498
23.6389
24.08
23.7064
23.1113
17.5368
21.1122
63.7718
26.9789
23.623
23.7604
23.2954
23.3786
23.1766
23.8591
23.115
23.1238
23.1184
23.7665
23.4675
23.3316
16.9949
21.5564
50.0079
19.8148
23.7235
23.5686
23.2213
23.4522
23.1446
23.8919
24.0013
22.9792
23.0244
22.9435
23.3783
22.9601
23.3678
23.3035
17.3707
20.3789
22.9003
101.774
28.2014
18.318
23.7871
23.6394
23.2837
23.4003
23.0439
24.0592
22.8663
22.8189
22.7928
22.8212
23.0279
23.1251
16.554
21.1986
22.8837
57.2457
21.6727
16.1407
23.8367
23.608
23.7775
23.2666
23.4344
23.0089
23.9915
24.192
22.8466
22.7198
22.6733
22.5789
22.506
22.8632
16.9353
19.6337
22.2817
22.8797
22.839
101.115
29.6694
15.9827
23.5285
23.7137
23.8689
23.2121
23.3551
22.9249
23.1144
24.0711
24.2751
22.7632
22.6968
22.5935
22.4481
22.5001
22.2586
22.3063
16.013
20.4539
22.4175
22.6096
22.6452
56.4444
22.3666
23.5842
23.8275
23.6864
24.0152
23.2584
23.3973
22.9794
23.075
24.2179
24.4203
22.8109
22.5979
22.3168
22.4338
22.2056
22.1004
15.4873
19.9206
22.0301
22.5723
22.5201
22.1238
30.5943
100.677
17.1348
23.5254
23.9267
23.7928
24.1291
23.2246
23.3543
22.9221
23.1251
24.3323
24.5444
22.7539
22.6305
22.325
22.49
22.155
21.9636
17.0756
20.8769
22.1116
22.1588
22.0336
21.8909
24.0399
52.9679
15.8835
23.5251
23.9139
24.0724
23.7989
24.2876
23.2932
23.4201
22.9539
23.1046
24.497
22.7875
22.5874
22.3233
22.5006
22.0877
22.2355
21.9894
21.8667
16.4152
21.0678
21.9827
22.0586
22.0279
21.7521
21.8537
29.1754
17.7626
94.0367
23.6374
24.0109
24.1183
23.9313
23.7555
24.4081
23.3988
23.2827
22.8896
23.0435
23.1958
24.5681
22.7516
22.6667
22.4235
22.602
22.1189
22.2685
21.9768
21.7918
17.0176
19.7837
21.742
21.9845
21.7604
21.5625
21.5743
21.6948
20.5593
16.2425
58.947
23.6178
24.0252
24.2577
23.9457
23.8451
24.3872
24.5516
23.5014
23.3857
22.9125
23.0894
23.185
24.7303
24.8239
22.8122
22.4456
22.6369
22.0564
22.2037
22.3769
21.9211
21.8236
15.9759
20.521
21.6183
21.7447
21.4535
21.4096
21.5319
21.6312
24.4882
45.0263
23.6998
24.1776
24.2893
24.0621
23.8171
24.5191
24.6554
23.4877
23.3798
22.9985
23.08
23.2797
24.7745
24.9987
22.854
22.5524
22.7387
22.0863
22.2448
22.4116
21.9422
21.8018
16.5587
21.4097
19.5442
21.3753
21.4151
21.1986
21.3402
21.4405
21.7083
16.9932
96.8316
24.2188
23.6861
24.1778
24.4171
24.1074
23.9194
24.6744
24.5154
24.7308
23.58
23.4704
23.0586
23.1827
23.2691
24.9263
25.0424
22.9974
22.7994
22.5659
22.7683
22.0201
22.1826
22.3481
22.5042
21.8678
15.7718
21.1885
19.9408
21.052
21.1025
21.1167
21.2613
21.5145
21.7121
15.2891
56.2283
19.7763
23.7755
24.2971
24.4666
24.0584
24.2428
23.8899
24.7337
24.6377
24.9017
23.5731
23.4626
23.1601
23.3588
25.2524
23.0426
22.8382
22.6777
22.7596
22.0564
22.2196
22.3874
22.5484
21.8911
16.939
21.1002
20.9418
19.2003
20.6175
20.7929
20.9331
21.1135
21.3153
21.5123
21.6494
21.8169
14.734
29.0287
102.101
15.8279
21.9134
18.0227
23.7923
24.4224
24.6001
24.1459
24.3323
23.9822
24.909
25.0743
23.6934
23.5661
23.2411
23.3532
25.4326
25.3424
22.9593
23.1563
22.6541
22.8534
21.9916
22.1571
22.3213
22.4914
22.5564
15.8981
20.7315
20.6738
19.8876
20.4862
20.6869
20.9259
21.2421
21.0542
21.4355
21.6137
21.6889
21.8624
29.7823
54.5651
15.245
21.9875
21.7906
22.655
22.8777
59.5772
23.9056
24.5453
24.7477
24.282
24.0981
24.4909
25.0707
25.0271
25.2985
23.6801
23.5623
23.2352
23.4562
25.623
22.956
23.2196
22.7178
22.8814
22.0537
22.1936
22.3656
22.5458
22.6566
16.8176
20.6072
20.493
20.5343
19.3158
20.5122
20.7619
20.8853
21.281
21.1348
21.4715
21.6538
21.7904
21.985
21.4559
92.7162
16.0335
16.126
21.9604
22.186
21.3333
22.529
22.7526
24.0636
23.9595
24.7044
24.9658
24.4009
24.2019
24.574
25.335
25.2711
25.5542
23.782
23.6444
23.3708
23.4675
25.7474
25.7428
23.0467
23.35
23.2316
22.8222
22.9886
22.1574
22.3048
22.4798
22.6479
22.6905
20.2464
20.2911
20.4743
19.6377
20.3315
20.8164
20.9936
21.2469
21.4029
21.1005
21.5829
21.7686
21.8377
22.0372
25.6081
58.7903
15.0238
16.4379
21.3226
22.1238
21.3914
22.7495
22.5935
22.8927
23.4776
37.7174
23.9101
24.1031
24.8541
25.1392
24.5469
24.3565
24.1836
24.7799
25.5653
25.4131
23.7581
23.6793
23.5881
26.1516
25.9834
25.9631
23.1664
23.4184
23.3485
22.8676
23.043
22.2351
22.3385
22.5217
22.7431
22.8054
20.1394
20.0483
20.1885
20.328
20.6247
19.608
20.1292
20.7749
20.9608
21.334
21.4357
21.1845
21.6353
21.8207
21.9612
22.1783
17.8541
43.1344
15.5521
15.4509
18.4094
21.6538
21.9011
22.308
21.075
22.7691
22.4891
22.8867
23.0694
23.4136
24.0322
24.1816
25.0825
24.8871
25.3505
24.7057
24.5013
24.3112
24.8518
25.8971
25.7532
23.8593
23.7978
23.5968
26.1322
26.2448
23.2243
23.5247
23.4158
22.9759
23.1608
22.267
22.4355
22.6406
22.8418
22.7295
19.9014
19.9762
20.181
20.2906
20.6
19.8349
20.0257
20.9016
21.0379
21.3153
21.5505
21.1737
21.757
21.9461
22.0136
22.202
23.4716
92.6492
16.5747
14.8647
18.3181
21.0094
21.9766
22.1919
21.4224
20.7292
22.6537
22.5105
22.7692
24.3638
27.0279
23.9854
24.1629
24.2985
25.2321
25.0969
25.5865
24.7516
24.4496
24.6872
25.0443
26.2502
25.9639
25.8483
23.8716
23.7344
26.7451
26.5758
26.6485
23.3484
23.5988
23.5525
23.023
23.2159
22.4104
22.4923
22.6896
22.945
22.8383
19.7103
19.8088
20.0734
20.4462
20.7079
19.7907
19.7517
21.0421
20.8599
21.4405
21.6341
21.3019
21.8469
22.0371
22.1344
22.3356
18.6727
46.4647
15.9881
15.4781
19.1253
22.8859
21.8824
22.1709
21.3619
20.1683
22.6583
22.405
22.8351
22.7295
22.1619
24.059
24.277
24.3947
25.4666
25.1975
25.6419
24.9837
24.5125
24.8757
25.129
26.6851
26.42
26.1974
23.8451
24.0137
23.7139
27.1472
27.0619
23.4022
23.6495
23.1425
23.3312
22.4824
22.6247
22.7957
22.9783
22.9434
19.5583
19.8204
20.218
20.4303
20.7576
19.5389
19.4756
21.1819
21.0123
21.4376
21.5928
21.7993
21.3054
21.9893
22.1847
22.2321
22.3395
22.4358
24.9696
90.3636
16.0838
14.7314
19.0834
23.0298
21.904
22.2745
22.027
21.1665
21.626
21.6108
20.3743
22.5407
22.4287
22.8164
22.6183
34.5841
21.578
24.2182
24.3197
24.4221
25.6728
25.5222
26.0596
25.0591
24.6957
24.8633
25.4034
26.7754
27.1156
26.5112
26.3121
23.963
24.1291
23.8268
27.5639
27.5386
23.5444
23.6325
23.7951
23.1796
23.4265
22.6378
22.7033
22.8828
23.1029
23.0433
19.4061
19.6444
20.0446
20.2068
20.5675
20.7328
20.9416
19.3746
19.2774
21.2586
21.1542
21.576
21.7042
21.9126
21.4604
22.0712
22.2329
22.4269
22.5175
18.3615
50.3122
15.2442
17.4416
15.2446
18.8692
19.2049
21.7976
22.177
21.9795
21.2501
21.5623
21.3836
20.1843
22.5138
22.3261
22.7141
22.6081
26.2598
20.9845
24.2605
24.5545
24.6248
25.9991
25.6155
25.3136
24.7694
25.0649
25.522
27.4226
27.5999
27.0555
26.7268
23.9566
24.1064
28.1745
28.2524
23.5944
23.7556
23.8876
23.3078
23.4055
23.5646
22.7144
22.8405
23.0168
23.137
19.4487
19.716
20.0727
20.416
20.5884
20.8585
20.9938
19.0831
19.1768
21.2071
21.4228
21.2436
21.5788
21.6973
21.8583
22.0507
22.2017
22.3716
22.4574
22.6416
25.8985
76.9325
15.6832
16.9254
14.4403
19.0082
19.0394
21.7311
22.0698
22.2111
21.8881
21.4302
21.1409
21.6039
20.8426
20.3092
19.9997
20.6616
22.4355
22.3289
22.8886
22.7082
22.5447
27.566
24.4765
24.6283
24.6969
26.3449
25.9787
25.4726
24.9482
25.332
25.7967
27.5327
27.8388
28.1983
27.1371
27.0303
24.0972
24.2312
28.8756
28.9305
23.7153
23.8726
24.0671
23.345
23.5206
23.6402
22.8819
22.9395
23.1216
23.2586
19.6045
19.2806
19.9459
20.2454
20.3953
20.7885
20.9426
21.1358
18.912
18.9863
21.3391
21.5356
21.2585
21.7154
21.8045
21.9244
22.1612
22.3185
22.4294
22.5973
22.7197
18.2777
38.3573
15.0556
17.6239
14.9527
18.7899
18.8977
21.7809
21.9878
22.1438
21.8919
21.353
21.1053
21.5322
20.3396
19.9772
19.8468
20.6791
22.4603
22.2926
22.7901
22.602
24.3558
24.5171
24.8151
24.9377
26.3138
26.8793
26.0391
25.8755
25.0858
25.5548
26.04
28.2977
28.4748
28.8962
27.8123
27.6652
24.2457
24.1593
24.4274
29.7076
30.0569
23.7439
24.0339
24.1641
23.4593
23.6305
22.9497
22.9734
23.0982
23.2626
23.3073
19.7322
19.2905
20.0006
20.3251
20.5878
20.8958
21.166
21.2561
18.6207
18.8717
21.4824
21.714
21.4725
21.8535
21.7923
22.0845
22.3053
22.2065
22.5761
22.6628
22.6974
22.8794
25.4467
51.168
15.7102
17.2083
13.8576
18.83
18.7078
21.6933
22.0271
22.1937
21.8153
21.2332
21.4077
21.1224
20.9367
21.5802
20.0024
19.8328
21.1064
20.3567
22.3592
22.7472
22.5702
21.2679
24.7493
24.979
24.9932
26.8023
27.3642
26.439
26.1102
25.3926
25.9221
26.4003
28.3514
29.0847
29.2139
29.8154
28.3152
24.4227
24.3869
24.5364
31.7367
30.7691
30.4278
31.074
23.9058
24.0553
24.3568
23.5266
23.7763
23.1103
23.1524
23.2251
23.3385
23.4458
19.8975
19.5595
19.0342
20.1834
20.5076
20.8358
21.2155
21.3689
21.4594
18.5287
18.6304
21.6315
21.8263
21.6362
22.0308
22.0206
22.1476
22.1997
22.4562
22.3962
22.6731
22.786
22.8224
22.9639
22.7095
48.7364
15.4018
17.6927
16.6858
14.3384
18.6428
18.6016
21.7171
21.9827
22.1579
21.82
21.1583
21.3274
20.9996
20.8537
21.5273
20.1043
19.578
20.6044
20.4349
22.3716
22.8992
22.6471
22.8073
22.4875
20.6679
24.6913
24.9339
25.2653
25.2919
26.7803
27.2941
28.0797
26.622
25.6247
26.2015
26.7082
29.1452
30.2737
30.5484
30.8441
29.2813
24.5075
24.4767
33.3957
32.3657
32.4183
23.9326
24.2603
24.493
23.703
23.8145
23.2052
23.2111
23.3352
23.4757
23.5316
20.5799
19.6334
19.2031
20.5493
20.707
21.3197
21.5655
21.3766
21.7246
21.7377
18.3667
18.8377
21.8194
22.0409
21.8538
22.1279
22.1347
22.3187
22.3573
22.6214
22.4819
22.8669
22.9118
22.9351
23.1317
26.68
50.2501
16.4141
17.5158
15.6546
14.1863
18.391
18.6467
21.6733
21.8977
22.0604
22.2335
21.7281
21.2192
21.0557
21.3711
20.9668
20.8787
20.7043
21.4524
21.5916
19.7083
19.8612
19.341
21.2019
20.2657
22.3231
22.6061
22.7515
22.4612
21.7997
24.8519
25.1991
25.4988
25.5527
27.2951
27.8066
28.5849
26.8112
26.8585
26.0557
26.6273
27.2066
30.1742
29.6418
31.503
31.6489
32.3129
30.16
24.7409
24.6973
33.6866
33.2531
24.111
24.2739
24.4579
24.7355
23.7881
24.0146
23.3821
23.384
23.4615
23.5774
23.702
19.8803
20.4287
19.5536
19.9504
19.1252
20.9254
21.2508
21.8514
22.044
21.8024
22.2788
22.0082
18.247
18.3561
18.7118
22.0127
22.1844
22.1106
22.355
22.3841
22.4349
22.4716
22.7874
22.65
23.0453
23.0605
23.0469
23.175
19.7586
35.4624
16.1491
18.1597
14.5505
14.8971
18.3467
21.9076
22.0476
22.1972
21.7515
21.207
20.9927
21.2914
20.8782
20.779
20.6058
21.4497
21.5325
19.7937
19.6376
19.296
21.052
20.3111
22.3763
22.8958
22.5148
22.6572
22.794
25.0304
21.7327
25.1146
25.4762
25.7897
25.8253
27.7997
28.4118
29.7452
27.3686
27.302
26.2391
27.0341
27.5699
31.4053
30.993
33.2039
32.9983
33.2602
30.3323
31.4689
24.8409
24.8198
36.5284
35.3232
34.9269
24.1496
24.469
24.6821
24.9291
23.9675
24.0733
23.468
23.4527
23.5147
23.5612
23.7343
23.8214
19.4766
20.856
19.1526
17.9591
19.171
21.8975
21.9818
23.239
22.8331
22.2891
22.9577
22.5342
18.1074
18.1514
18.5263
18.793
22.4593
22.5096
22.5351
22.6199
22.6702
22.6807
23.0065
22.7848
22.776
23.2521
23.2374
23.34
18.6524
32.641
16.6088
18.1444
14.3442
14.7601
18.1062
21.8458
21.9878
22.1251
22.249
21.6834
21.1379
20.891
21.0392
21.2917
20.7834
20.6414
20.4675
21.383
21.5837
19.1027
19.7072
19.1052
20.9731
20.1984
22.3345
22.9569
22.4695
22.6147
22.7588
27.3213
22.061
25.2971
25.8164
26.1672
26.1482
28.5737
29.1744
29.9768
27.7993
27.4949
27.7442
26.6959
27.0114
28.3109
32.9315
31.7619
34.6832
34.3816
35.1276
31.8931
32.5182
25.0796
25.1285
36.5813
35.7268
24.3189
24.4859
24.6697
24.9189
25.1723
24.0925
24.3015
23.6567
23.4773
23.6108
23.6781
23.7962
23.8769
24.0192
19.893
22.0205
18.1249
17.1945
18.9097
21.4676
22.3033
22.1006
23.312
23.0734
23.8857
23.0605
22.8546
17.9753
18.1228
18.3273
18.2799
22.9542
22.9507
22.9292
23.0089
22.7367
22.9746
23.1976
23.0097
22.9807
23.4487
23.2852
23.3882
15.8077
34.7367
22.6654
17.5342
15.7189
18.044
14.3941
17.9863
21.8789
22.0147
22.0873
22.2027
21.6901
21.1616
20.829
20.9664
21.2499
20.683
20.5913
20.3401
21.3903
21.5348
19.6587
20.0544
19.6294
19.0197
20.1327
22.3797
23.0261
22.9068
22.5184
22.6666
22.8195
25.2732
20.2763
25.2749
25.6876
25.8767
26.1799
26.566
26.5568
29.3315
28.7751
30.9714
28.6181
28.2218
28.4197
26.8637
27.4778
33.7485
33.1322
36.1864
35.6163
35.8469
32.0189
33.4445
25.2374
36.5674
36.3438
36.6607
24.4107
24.753
24.9023
25.222
25.4402
24.287
23.7292
23.7752
23.6521
23.8756
23.942
24.123
24.2111
22.949
22.2775
23.2006
18.1107
33.2442
18.1717
19.8305
22.669
20.7184
24.5038
23.9751
24.9035
23.9617
23.479
17.8484
18.3084
17.918
18.1345
17.8156
23.5784
23.6318
23.195
23.2096
23.5701
23.1659
23.1983
23.4608
23.3562
23.6407
23.5552
23.5369
23.5865
15.4781
33.1125
20.5986
17.7081
15.7904
17.8979
14.2302
17.7411
21.9657
21.8318
22.1238
22.2406
21.7668
21.6388
21.1082
20.8703
20.7147
21.0013
21.2984
20.4987
20.3602
20.1973
21.4618
21.5731
19.0154
19.9957
19.8333
19.3064
18.8166
20.0029
22.3287
23.0438
22.941
22.4916
22.6411
22.7866
24.8665
19.8177
25.5917
25.799
26.2861
26.5482
26.9754
30.4268
30.0109
31.2657
29.3637
28.8692
28.5147
29.2527
27.1943
28.1004
35.6496
33.5648
36.5233
35.9334
36.4516
36.6159
33.2135
34.9522
25.5323
35.4193
36.1846
24.6764
24.9259
25.1845
25.4877
25.7469
24.4673
23.9397
23.9852
23.7354
24.0249
24.194
24.3005
24.4422
43.1994
22.2233
23.926
20.7614
30.7017
50.5782
23.3439
22.7107
27.9509
23.0263
24.7602
26.2482
24.9012
26.29
24.113
17.6829
17.9011
17.9107
17.0908
18.9248
24.3239
24.2734
23.9084
24.0388
24.1164
23.4526
23.4844
23.6744
23.6815
23.9119
23.9063
23.6759
13.949
24.4696
36.3859
15.3476
16.877
17.8128
14.9265
17.7035
21.9879
21.8675
22.0697
22.2246
21.7281
21.6619
21.1526
20.8059
20.6595
20.9789
21.2996
20.4977
20.3077
20.0816
21.456
21.5159
19.7321
19.2939
18.528
19.9044
22.359
22.9777
22.9224
22.5666
22.4309
22.7071
22.8414
24.9238
21.8096
18.9165
26.083
26.363
26.597
26.9507
27.4842
30.7684
30.1184
32.4693
30.2031
29.8625
29.7577
27.6399
28.7183
36.1528
35.9745
35.4557
35.4063
34.9916
36.5176
36.5074
34.8768
35.1772
25.7872
35.7471
35.3199
35.34
24.7787
25.098
25.2953
25.7649
26.0764
24.7098
24.0984
24.1667
24.0075
24.2584
24.3632
24.628
24.6317
50.5457
31.537
22.9661
44.3767
68.5775
31.7308
41.3839
56.7374
24.705
22.258
26.566
25.9342
27.1007
24.9159
17.5905
15.7187
18.1912
17.6954
17.6973
30.0367
24.9216
25.0276
24.2706
24.4833
24.6706
24.2205
23.7142
24.0347
24.3516
24.1062
24.0946
24.1585
23.9421
21.758
32.9641
13.7122
16.8915
17.6597
14.9592
17.5324
21.9449
21.8296
22.0892
22.2886
22.1675
21.7551
21.6216
21.2386
21.1229
20.8231
20.7214
20.5807
21.0505
20.8981
21.3867
20.3949
20.2196
20.1014
19.9402
21.543
19.741
19.5517
19.059
18.5836
23.1018
23.0085
22.536
22.4573
22.6582
22.8151
22.9279
21.1648
18.6276
26.3109
26.8294
27.0406
27.4474
28.073
31.7854
31.2035
32.7672
30.5226
31.1223
30.3425
29.678
28.4827
35.2295
35.6072
34.2142
33.994
33.7836
34.414
33.7312
35.2895
35.1409
35.5717
26.1882
40.2338
36.5019
33.4655
25.0863
25.2712
25.6288
26.0823
25.9804
26.4578
24.9053
24.3539
24.4629
24.1346
24.461
24.656
24.8089
24.7701
24.8992
68.9069
34.1021
31.6005
38.256
63.63
77.5088
35.0172
67.3272
77.2469
82.9795
24.5291
60.1432
24.566
26.798
25.859
25.1016
17.4147
15.4159
18.1418
17.9445
28.8822
36.8189
25.7611
26.1296
24.9412
25.3602
25.1561
24.746
24.1117
24.3451
24.6712
24.4315
24.4657
24.4907
24.6236
15.6681
24.1594
35.1061
14.1077
15.992
17.2209
17.5541
17.476
17.365
21.9845
21.8667
22.053
22.2879
22.1595
21.721
21.6508
21.2409
21.1679
20.7355
20.6866
20.6008
21.024
20.8835
21.3721
20.383
20.2231
20.0171
19.865
21.5024
19.6643
19.4348
19.0143
18.3786
23.183
22.9714
22.5801
22.4245
22.6815
22.8902
22.7608
22.0336
19.6322
18.3464
26.7527
27.1534
27.4697
27.9994
28.8665
32.7333
32.4293
34.2043
31.4829
31.9805
31.6066
30.3889
29.0761
35.0116
34.0289
35.2804
31.368
31.9904
32.0125
32.1756
35.7074
35.1985
35.2806
35.4106
26.5367
43.2563
34.4252
25.1245
25.282
25.6226
25.9125
26.5186
26.4384
26.8306
24.5853
24.7624
24.4715
24.797
24.923
25.1758
25.1028
25.1848
68.3764
58.0016
51.139
48.5455
66.7088
69.8069
58.2185
76.4304
121.742
123.061
31.449
76.0017
22.8466
27.1941
26.5733
27.5985
27.1867
17.4852
16.3781
19.3539
17.7791
33.2254
55.3184
26.4933
26.3391
25.4999
25.8201
25.8567
25.3935
24.7882
25.2915
25.0396
24.6471
24.6928
24.7866
24.9864
14.1169
19.2902
32.7926
14.5533
15.7732
17.0649
17.352
17.2707
17.1865
21.9395
21.84
22.0903
22.3563
22.2132
21.7693
21.6061
21.3003
21.157
20.7335
20.5536
21.0772
20.9479
20.8174
21.4311
20.319
20.4724
20.1655
20.0601
19.9175
19.7484
21.537
19.5386
19.2973
19.4229
18.6533
19.1151
23.1818
23.034
22.5399
22.4741
22.641
22.8649
22.7892
21.5105
20.0121
19.0342
18.1714
27.1651
27.8215
28.0121
28.7417
29.445
34.212
33.451
32.1547
33.0372
31.8773
31.5392
30.0135
33.3869
32.9522
33.6433
33.3819
32.4182
34.7896
38.9562
35.2187
35.4491
35.4005
33.8499
27.0237
83.3276
56.0866
25.4293
25.6871
25.854
26.2621
26.8597
26.8238
27.4048
24.9429
25.152
24.7405
25.0685
25.3205
25.4404
25.4242
25.4032
25.4477
68.2809
69.6094
65.0038
62.6356
64.5437
73.0102
60.386
75.5617
105.549
132.994
113.191
32.6518
109.92
27.6194
27.0577
27.0176
43.0777
34.4562
17.3364
17.0758
25.8709
17.9859
17.5549
47.7908
68.369
27.6453
27.2128
26.3399
26.8415
26.4545
25.6495
25.2275
25.4342
25.0081
25.1164
25.3033
25.515
13.5185
18.4404
36.9383
23.0301
14.2015
16.3141
17.1422
17.2372
17.1529
17.1123
21.9541
21.882
22.0698
22.3641
22.1936
21.7323
21.6193
21.2914
21.2214
20.6851
20.6046
21.0787
20.9103
20.7855
21.4116
20.3554
20.4365
20.205
20.0495
19.8283
19.7309
21.5179
19.5255
19.1871
19.2702
18.5912
18.9636
23.2568
23.1301
22.9947
22.5684
22.4319
22.685
22.9117
22.765
20.2098
19.3553
18.3469
18.1657
27.7613
28.2368
28.0057
28.6617
29.4311
30.3406
34.9675
34.8711
33.4355
33.8818
33.3661
32.0441
32.2132
30.6477
33.1718
33.0658
32.948
40.1327
45.5403
41.6162
42.1822
54.9531
33.9351
35.5546
34.2807
27.5507
85.6204
115.389
25.7159
25.9428
26.1937
26.6902
27.339
27.3599
27.7576
25.1942
25.647
25.1445
25.497
25.6375
25.8615
25.9242
25.8214
25.8141
72.4786
71.8484
70.0414
70.9282
67.7692
40.2711
101.007
108.642
133.613
94.2041
41.7404
85.7574
31.483
27.7079
26.8854
44.1668
70.3919
17.3349
17.2006
17.4525
28.0741
24.1043
45.465
66.212
26.8126
27.6841
27.3602
27.2661
27.0131
27.5988
26.0358
25.7276
25.9518
25.3326
25.53
25.7767
26.0261
12.79
14.8628
31.8668
19.2287
14.9421
16.0834
16.932
16.9255
16.9133
16.8709
22.0144
21.8732
22.126
22.3232
22.2517
21.674
21.7694
21.5599
21.348
21.2225
20.7125
20.5654
21.1563
21.0278
20.8261
20.9544
21.4587
20.2912
20.4826
20.1318
19.9662
19.8554
19.638
19.4114
19.0366
19.2742
18.7791
18.3861
18.912
23.3126
23.1816
23.0346
22.5348
22.4589
22.665
22.9033
22.8276
19.7446
18.3645
18.0106
17.9609
28.2637
28.788
28.7909
29.1291
30.2843
30.9139
35.1037
35.1704
34.2285
35.0514
33.15
34.178
33.4453
31.7663
34.6044
39.8469
31.0292
50.2555
68.0885
72.2117
48.6061
101.307
32.4973
35.1127
34.4089
32.6217
28.1919
146.363
184.72
26.0306
26.2678
26.4809
27.0054
27.5707
27.9253
28.4313
25.6416
25.5955
25.9814
25.8229
26.0709
26.1952
26.2578
26.1866
26.0908
80.0481
94.6006
66.6201
64.49
72.2655
49.893
33.2589
96.6037
109.26
84.6142
137.643
84.1536
108.576
52.4918
32.292
27.2357
84.788
109.155
83.754
17.1486
17.1423
17.0729
32.0644
37.4761
26.1699
33.0935
57.5145
63.616
26.2258
28.1989
27.8494
27.9683
29.0734
26.4661
26.2879
25.8941
26.1969
26.5127
26.8406
13.2924
14.754
34.4014
20.6824
14.6857
16.4257
16.8951
16.7147
16.8146
17.0674
22.0349
21.9484
21.8289
22.1054
22.3538
22.2187
21.6703
21.7211
21.5544
21.336
21.2841
20.674
20.6038
21.1418
21.0388
20.8067
20.9315
21.4447
20.3162
20.4714
20.1573
19.9635
19.7813
19.6602
19.4246
19.02
19.1527
18.6455
18.4501
18.7426
23.275
23.1213
22.9682
22.5841
22.4258
22.7408
22.8203
19.7898
18.9336
18.2097
17.7956
18.0148
28.8334
29.3758
29.363
29.9597
30.4617
31.8663
35.2774
35.1978
35.234
35.1761
33.8066
34.804
33.9015
32.3609
40.2808
34.7992
34.9699
82.6604
104.143
100.829
71.3696
149.809
32.9146
32.4465
33.0427
32.4902
28.9367
228.06
256.196
250.791
26.4307
26.5669
26.8251
27.6839
28.484
28.6136
28.0612
28.8061
28.9358
26.1533
26.5496
26.3763
26.5148
26.7346
26.6283
26.6792
26.3545
46.9565
83.1512
81.2083
56.6173
63.2573
39.3584
22.3794
80.3755
100.117
58.9115
135.368
50.7731
80.3876
52.1054
30.3508
115.495
148.824
142.741
16.3399
17.2361
21.8557
42.9032
42.2834
37.6823
42.8102
50.8454
53.295
27.3115
28.2004
28.8354
27.5924
29.0919
28.8754
29.3106
27.2283
26.4622
26.8282
27.2021
27.6075
12.9188
13.4263
36.094
26.2494
17.008
15.5889
16.1923
16.5302
16.6846
16.5489
16.9761
22.0107
21.9258
21.864
22.1517
22.317
22.2467
21.6118
21.7544
21.4942
21.3889
21.3063
20.7213
20.5407
21.0938
21.2046
20.975
20.8646
20.4087
20.2576
20.1225
20.0472
19.8784
19.7959
19.6309
19.3308
19.5455
18.883
19.1884
18.6062
18.3108
18.7315
23.3498
23.1711
22.9815
22.5673
22.4805
22.7139
22.8977
19.5759
19.0817
17.6671
17.5995
17.9243
29.5347
30.1573
30.1041
31.5917
32.404
34.8002
34.6226
35.0228
35.0123
34.7417
35.1333
34.6073
33.4313
64.3815
50.7467
46.0288
96.6614
109.066
157.274
165.426
100.383
211.964
35.4181
38.9134
32.9211
35.3652
29.6619
311.439
360.01
354.145
26.6646
27.175
27.327
27.8363
29.1784
28.9553
29.3156
29.5082
26.9802
26.8194
27.1349
26.6408
27.198
26.992
27.3679
27.0218
26.7852
24.3378
45.3356
36.8717
41.3465
57.8083
47.6193
21.3226
16.6495
50.5235
121.806
72.347
37.1837
145.177
150.379
77.7991
43.783
144.429
153.021
156.796
156.584
15.3446
15.8138
21.6538
49.6288
47.3778
38.4386
50.8681
52.2237
42.0334
54.4683
29.5943
27.9496
28.0275
29.8205
28.3862
29.7846
27.3315
27.7744
28.2759
28.8116
14.5509
13.2721
36.3362
27.1886
17.0453
16.4545
16.5238
16.4305
16.3332
16.8029
22.0641
21.9685
21.8283
22.1308
22.3495
22.2406
21.6061
21.7211
21.4887
21.3697
21.2655
20.6957
20.5581
21.1279
21.1896
20.9597
20.835
20.4154
20.2814
20.1861
20.0501
19.8864
19.7093
19.3524
19.5379
18.9014
19.1184
18.4711
18.2562
18.5794
23.5
23.3912
23.3031
23.0817
22.6323
22.4798
22.7581
22.9144
20.1227
18.7479
17.9965
17.4622
17.6804
18.0827
30.1981
30.8584
31.0127
31.6002
32.3962
33.544
33.2659
33.2415
34.4588
34.1645
34.7539
34.2989
34.8059
34.7536
33.878
65.9291
94.6288
63.5222
153.786
164.466
231.189
240.193
152.503
291.922
258.608
39.6893
53.4322
33.553
37.2817
30.6293
471.672
471.31
27.2315
27.6975
28.5456
29.9866
29.3918
29.141
29.9752
30.4283
27.6532
27.3642
27.4917
28.1722
27.1674
27.555
27.7979
28.1525
27.7482
27.3688
29.526
17.8753
33.9544
19.8341
28.0164
34.1241
27.3039
16.8556
13.9284
24.8284
103.592
142.898
72.3147
19.1145
174.187
159.577
54.6277
157.979
172.641
158.057
164.013
175.249
17.4141
15.586
30.3704
51.3686
50.0979
40.2256
50.6604
51.5566
42.557
50.2306
32.7839
30.3981
29.237
30.1049
29.7324
29.5832
29.9366
28.1038
28.6213
29.1384
29.5102
14.6112
13.4613
33.0274
20.6403
14.5332
16.3839
16.2001
16.6636
16.2344
16.2485
16.044
22.0422
21.9608
21.8518
22.1766
22.2948
22.4209
21.6631
21.5444
21.753
21.4214
21.2914
20.635
20.7642
20.4915
21.0978
21.2316
20.8812
21.0195
20.3636
20.254
20.1258
19.9757
19.8065
19.7137
19.2977
19.4634
19.6324
18.7886
19.0291
19.1994
18.4537
18.3254
18.2235
18.6107
23.6429
23.5591
23.4265
23.1165
22.6294
22.566
22.8507
22.6948
23.0248
19.5849
17.5551
17.2883
17.5508
18.0146
31.1577
31.2374
31.6974
32.2453
33.3036
33.9239
32.7813
32.3612
33.7579
32.6168
34.4901
33.5036
34.0664
34.5927
34.7028
34.6278
100.114
149.376
102.972
185.22
223.468
329.501
348.033
209.564
382.919
363.978
54.2329
70.0171
34.8882
52.9611
30.9074
31.4333
540.473
486.229
595.092
27.6723
28.4795
28.7236
29.8958
30.2632
29.9388
30.7411
28.6383
28.3578
28.3465
27.7107
28.8305
28.4721
28.0432
28.2523
28.9169
28.2634
27.895
16.1167
16.8165
21.496
19.5702
20.7157
24.1143
15.4299
17.3705
16.1786
104.567
147.525
28.1081
18.696
189.146
183.805
86.8627
170.494
159.901
139.071
183.298
16.5977
15.378
28.8156
49.417
50.3961
51.0537
33.6313
45.9522
52.3559
29.8155
41.3797
39.6443
30.2349
30.3957
31.5455
30.0598
29.246
29.7823
30.2413
30.4355
15.257
13.2945
31.1009
23.1739
14.3877
16.2819
16.3256
16.4523
16.108
16.1601
15.917
22.0858
22.0341
21.9173
21.8118
22.1933
22.3285
22.4409
21.6604
21.5543
21.7089
21.434
21.3522
20.6526
20.7295
20.4897
21.1623
21.0774
21.2508
20.8751
21.0087
20.3803
20.3059
20.1588
19.9902
19.8233
19.3498
19.4816
19.6496
18.7942
19.0671
19.1783
18.2919
18.2298
18.0657
18.586
23.832
23.704
23.3964
23.6427
23.2593
22.5641
22.9313
22.7014
23.1221
19.4105
18.1062
17.3053
17.6528
17.8884
31.9965
32.5247
33.1597
33.5324
34.5474
32.3549
31.5454
32.1357
32.139
34.3083
32.0255
32.4001
33.5457
34.6729
121.952
144.687
208.16
124.181
253.391
292.906
421.398
469.706
290.608
473.59
70.1479
71.6494
105.616
45.0591
55.3569
69.6656
32.0751
32.4182
764.585
608.617
767.921
28.3757
28.9985
29.5481
30.6605
31.3502
30.671
30.0984
31.5049
29.5504
28.9797
29.3018
28.5066
29.9056
29.0341
28.5532
28.8665
29.7439
28.3647
28.8154
28.4641
16.7248
17.9729
16.483
19.3555
20.1375
17.1782
18.6262
17.1938
18.2441
20.2963
40.6767
134.198
23.0082
19.8902
192.714
171.368
195.478
77.056
168.683
125.693
133.824
106.272
175.606
22.0816
15.4336
45.3559
47.0729
50.6316
31.2161
41.8152
48.2528
28.8689
50.8972
30.3186
30.4745
38.3653
49.5308
34.0183
30.0687
30.3981
30.5545
15.3004
14.0965
32.8109
20.4038
13.61
16.1828
15.9438
16.1421
15.9171
16.0077
15.4463
22.1559
22.0851
22.0078
21.9454
21.846
22.279
22.4029
22.5136
21.6159
21.5099
21.738
21.4015
21.3684
20.6224
20.7684
20.4386
20.5589
21.1216
21.2156
21.327
20.9541
20.8406
21.0588
20.314
20.1555
20.2598
20.0832
19.9127
19.7444
19.4299
19.2506
19.5789
18.6778
18.8965
19.0179
18.2265
18.0786
17.9961
18.4296
24.0351
24.3995
23.9562
23.6104
23.8649
23.3408
22.6267
22.905
23.0735
22.8001
23.2875
19.6784
17.6807
17.1383
17.5098
17.7955
32.7318
33.1979
33.4355
34.3639
34.6298
33.8288
35.0838
32.9683
32.8485
32.5571
31.9957
32.1226
32.4826
33.4528
33.9842
172.126
193.261
286.871
183.566
312.686
380.506
576.094
600.349
378.994
612.685
104.523
102.972
125.21
48.3727
79.6487
101.531
32.7543
32.2165
33.2124
827.468
845.245
786.309
901.907
29.0023
29.6079
31.7076
31.8639
31.8737
31.6372
30.9987
30.5511
30.1403
30.095
29.2655
30.4352
30.5096
30.1399
28.9815
29.6563
30.4439
29.2003
29.6077
29.2349
19.1244
18.3722
18.3816
19.1155
19.3753
16.4298
16.8376
16.4075
17.1037
18.0198
20.2204
27.1518
20.2749
173.411
217.163
197.877
111.005
142.133
68.4693
86.2907
103.149
59.5518
21.4295
17.9128
43.0269
43.8535
47.5507
49.5534
33.6506
26.2514
38.1514
37.315
20.0031
89.3381
32.2508
30.668
57.6096
88.3457
44.1252
31.1245
31.093
30.8937
14.0013
30.7191
23.302
15.3075
13.0198
16.079
16.0279
15.8614
15.8621
15.8993
15.993
15.4078
22.1861
22.1386
22.0375
21.914
21.808
22.2882
22.446
22.5131
21.6268
21.524
21.6882
21.4451
21.4187
20.6768
20.7456
20.4651
20.5372
21.1182
21.2417
21.3105
20.9353
20.8739
21.062
20.4027
20.228
20.2837
20.0744
19.9132
19.75
19.4791
19.2505
19.5816
18.5727
18.8219
19.1058
18.3285
18.0813
18.0066
17.8368
18.3232
24.3205
24.1951
23.5483
23.8347
24.1452
22.6348
23.0216
23.2216
22.8132
23.4246
19.2698
17.22
18.1685
17.2389
17.539
17.6773
34.1878
34.1579
34.4744
34.1595
42.5396
41.698
41.3014
35.3802
34.8065
32.8517
32.2277
32.7575
33.7705
215.045
259.543
298.768
373.691
204.577
226.93
428.505
466.995
655.654
644.219
767.001
490.885
772.815
141.986
166.091
63.9186
103.708
82.5982
137.698
33.7039
33.1805
33.959
891.081
883.181
860.884
29.6569
30.434
32.4886
32.8064
32.8668
32.5037
31.7195
31.1716
30.6358
31.2244
30.8766
30.1437
31.527
31.4606
30.753
29.814
30.2604
31.2754
29.9791
30.0297
30.0599
29.7837
18.6098
18.2039
19.4569
19.1275
19.4112
16.3637
16.6513
16.9643
16.4472
17.8801
18.085
19.8053
21.1843
34.5506
20.5608
148.946
211.368
194.998
178.673
119.599
60.4295
53.8342
50.0639
33.3477
20.5295
19.9718
41.103
36.9324
40.4363
40.9812
34.2502
30.207
39.5387
30.8107
17.7479
122.628
37.8578
31.3549
100.828
72.3627
56.4107
31.267
31.163
31.0658
14.3623
32.5587
19.2961
14.545
13.6495
16.0244
15.4545
15.0798
15.7247
15.6678
15.8436
17.9164
22.2456
22.1677
22.0095
22.1167
21.949
21.8382
22.3626
22.4297
22.5652
21.585
21.4973
21.7148
21.4581
20.6351
20.8023
20.4604
20.5719
21.1753
21.2355
21.3485
20.9643
20.8658
21.0216
21.1209
20.4145
20.2522
20.356
20.0106
20.1552
19.9017
19.8372
19.6616
19.4716
19.388
19.2223
18.6968
18.943
19.0867
17.8355
17.7489
24.6024
24.9625
24.5276
23.5975
24.1043
24.355
22.7318
23.0333
23.1789
23.4083
22.9324
19.3268
17.024
17.6207
17.0928
17.4331
17.5236
34.3127
34.2418
34.2267
33.9524
52.206
39.9417
52.4906
37.46
34.8454
33.3972
33.3979
32.4183
32.6501
33.0015
297.673
316.349
403.2
481.088
294.887
323.256
509.8
604.321
802.041
799.748
851.69
593.934
197.372
212.07
77.8846
152.039
119.821
181.773
34.093
33.8928
33.8718
34.39
880.831
848.032
878.735
30.399
33.2643
33.2953
33.1171
33.2096
32.6075
32.0624
31.5294
31.7041
30.8076
31.607
31.8595
31.68
31.701
31.4263
31.0062
31.4622
31.7292
30.8149
30.8719
30.6964
30.6666
19.2043
16.2286
15.6563
17.6403
17.3917
17.8075
19.8022