/*--------------------------------*- C++ -*----------------------------------*\
| =========                 |                                                 |
| \\      /  F ield         | OpenFOAM: The Open Source CFD Toolbox           |
|  \\    /   O peration     | Version:  v2012                                 |
|   \\  /    A nd           | Website:  www.openfoam.com                      |
|    \\/     M anipulation  |                                                 |
\*---------------------------------------------------------------------------*/
FoamFile
{
    version     2.0;
    format      ascii;
    class       volScalarField;
    location    "1.8";
    object      p;
}
// * * * * * * * * * * * * * * * * * * * * * * * * * * * * * * * * * * * * * //

dimensions      [1 -1 -2 0 0 0 0];


internalField   nonuniform List<scalar> 
13611
(
117005
145723
94663.5
150397
52841.1
35955.2
108198
90796.1
123492
161735
2300.16
91445.8
13357.6
76857.1
48806.9
115676
2302.89
5642.77
58273.2
82970.6
63709.3
10091.7
3517.88
12942.8
2300
47007.2
43197.3
127728
68837.5
49369.9
2300.15
2301.67
2300
2304.69
61665
60455.8
124551
68824.6
31771.4
3065.54
2300
2309.1
2312.58
63645.3
59794.7
117795
88303.7
64093.5
13257.6
45999.4
2450.33
2325.74
2346.18
3005.97
15373.5
85593
87423
107105
84101.5
75942.2
25967.7
37256.5
9633.97
3602
51088.2
5365.38
4493.46
5035.46
21713.4
61935
85507.3
101495
87881
81677.8
27651.9
42533.5
11903.3
21862.8
9489.22
14376.9
13680.5
13153.5
37807.4
18834.6
70340.7
93455.3
87366.1
86752
84626.1
35119.9
41376.9
22402
27013.6
16058
44649.2
20968.4
17388.3
21931.8
38122.1
29008.8
65387.3
91269.9
85562.9
87548.9
88348.4
38836.4
36972.5
26860.9
33420.6
24948.7
43850.6
45386.6
26884.2
25101.1
29480.3
46211.9
36050.1
55039.9
70829.7
89688.5
87966.9
78962.5
83773.2
89145.2
88270.5
41191.6
39863.4
32667.5
35312.1
28938.5
44729.8
33100.5
34098
35420.1
45132.7
60017
66864.9
89684
87753.8
79566.2
87844.7
88124.5
89189.3
42057.2
40995.1
41583.5
36650.3
38638.1
34333.1
43623
45350.6
37966.8
39402.4
41055.1
50905.9
59823
69293.1
88919.1
88757.7
85509.9
74927.7
82510.4
88093.2
89636.5
88528.9
40570.5
42638.8
42899.6
38770.1
39431.5
38175.9
38198.7
43907.8
44876
42825.2
43177
46836
56827.8
50826
63868.8
66137.6
88972.6
88312.8
85799.4
76414.9
82205
89519.9
88104
42977.7
43209
43585.3
43659.8
42498.4
41831.1
42997.1
42736.6
44312.1
44847.5
46747.5
47624.6
61295.6
56333.4
66464.6
69529.9
88709.7
88665.3
86997
84161
80168.6
73335.9
89476.7
88787
88365.2
43560.5
44033.1
44703
44081.4
45052
43148.1
46583.8
45534.9
44084.8
44056.4
50547
51104.3
60857.2
56916.3
71710.5
72901.1
88868.4
88086.7
86779.1
83863.6
79331.1
75484.5
88940.3
88391.2
88586.9
45184.6
44635.6
44284.5
45739.9
44016.7
47218
45300.8
50219.9
48473.6
43723.8
53207.2
54837
64817.9
60646.2
75768.5
69024.2
76690.4
74240.1
88637.8
87913.1
87363.1
85772.2
84712.5
82093.4
80296.4
89231.5
88528.6
87159.5
46482.7
45044.1
44571.6
46114.4
46491.2
43747.5
46975.7
49386.5
53036
50381.7
50048
43087.9
56604.8
57536.6
63684.7
60374.6
77040.4
70324.6
79971.7
76567.5
88509.3
88099.3
87323.8
86994.5
85679
84095.5
82121.5
78609
88135.9
88118.5
87613.9
48108.6
45621.9
44484.4
46936.7
47525.5
43913.1
43116.1
48481.5
50756.1
55603.3
52727.7
52113.9
42298.2
41875.4
57784.8
65800.5
62621.9
78380.7
73337.4
68454.2
80163.9
78844.9
88237
87761.4
87032.6
86245.6
84719
83088.3
80929.3
79730.6
89018.1
87844.3
49049.7
45608.4
44887.6
46960
48557.4
43384.4
42407.9
50163.5
52590.1
56075.3
54771.6
53329.7
41792.5
40486.9
59881.1
65150
62510.5
75054.6
71495.6
69278
77957.5
78868.7
87982.9
87266.1
87893.3
86311.4
85866.2
84360.8
82500
81264.7
79232.7
88327.2
84966
89176
50483.4
46120.6
44418.3
47564.8
49104.1
42551.7
43695.1
42135.9
51164.2
53465
58207.7
55930.4
55141.2
40831.6
39958
59756.2
61416.5
66538
63884.5
75689
72406.6
70686.3
68367.2
78482.5
88338.6
86856
87730.9
85832.3
84980.6
83476.1
82686.7
80651.9
79299.7
88379.8
88039.9
88895.3
50890.4
45954.7
44501.3
48486.4
46777
50178
42120.2
43041
40843.2
52664.2
54999.5
57773.5
55942.2
38619.8
61474.7
62802.1
66446.4
65298.4
75145.9
72390
71015.2
68723
77881.4
88032.8
86940.2
86137.9
87819.2
87351.6
85030.7
84600.4
83044.7
81961.4
80641.1
79758.2
78443.3
88337.2
89372.6
89513.4
88555.4
85669
101741
52150.4
45169.4
43415.4
48717.7
46824.9
50592.5
41173.8
39920.7
53156.7
55431.6
58525.5
57465.8
37454.1
38119.7
62973.5
61238.9
67613.7
65422.6
76391.4
73507.4
71875.9
70505.6
69568.2
88277.3
86472.7
85660.4
87753.3
87423.2
84522.6
83721
82158.9
83106.5
81090
79710.3
79282.4
77943.8
89652.4
89449
88630.3
89855.2
84054.1
77601.4
96949.5
102423
51860.1
44903.9
42954.6
47785.9
49781.5
45739.1
40129.9
40977.9
38623.9
54388.7
56706.1
59877.9
57778.7
36652.9
64231.3
61983
67936.5
66352
75956.2
73740.7
72210.8
70863.3
69056.3
88275.6
86697.4
85870.6
84881.8
87968.5
87180.6
83729.8
83408.7
81582.5
82227.2
80480.7
79211.2
78412.5
76729.6
88906.2
89412.5
88716.3
88558.8
92053.1
80556.6
86610.9
78156.3
95390.4
101179
52427.1
43684.7
41709.7
47621.1
49743.4
45545.6
38903.6
39423.6
37319.8
54591.7
56722
60019.2
58990.9
35788.5
36079.5
64590.7
61014.8
62953.1
67397.9
65834.6
74744.4
73021.2
71644.7
70220.4
69375.6
86372.1
85501.1
84446.3
87941.4
87244.9
83154.5
82615.1
81578.8
80762.8
82059.7
79528.4
78242.7
77860.8
76246.7
89169.3
89479.7
88939.5
88575.2
90333.2
79678.2
84688.3
73664.1
75417.9
70003.9
97494.1
102508
53668.3
51622.7
43085.1
41040.6
46466.7
48510.3
50545.1
44513.9
37373.7
38785.2
55717
57646
58804.7
33353.7
34281.1
34686.8
64013.2
61275.8
62427.3
67891.3
66283.8
74211.6
73221.7
71783.9
70025.2
68791.1
86845
85923.6
85571.8
84853.8
83621
88180.3
87594.4
83064.8
82426.8
80716
80142.4
81214.1
78848.2
77559
76830.9
75088
89317.6
89622.6
88761.3
89193.7
88452.9
92800.8
81234.4
76663.7
85753.6
71475.1
74771.4
67809.4
96249
101501
53765.6
51825.2
41757
43526.2
39644.9
45836.4
48201.9
50085.2
44573.8
35849.1
37286.9
55801.9
56974.6
59504.9
33770.3
33692.8
64547.8
60621.2
62737
67286.9
65615.2
74282.4
72605.2
71177.9
69102.9
70376.4
86767.8
85771.3
85076.3
84617.5
83387
88189.3
87773.9
82131.5
81689.8
80483.9
79212.2
81026
77819.5
76520
76196.9
74697
89938.4
88960.2
88952.1
89304.4
88791.6
92435.6
79351.6
76502.1
82939
89433.5
70633.3
72209.6
66923
98271.2
103474
54831.8
52671.7
50824.1
41267.6
42372.8
38655.8
46039.2
49112.5
47040.6
43502.8
33980.2
35908.3
37094.4
57080.2
59057.7
31055.9
32048.1
31761.8
63772.6
60859.8
61801.3
67535.4
65856.5
73225.3
72548
71140.3
68470
69877.6
87152.1
86157.1
85178.2
83997.3
82688.6
88503
87627.4
81433.4
82045
79584.7
78487
80178.8
77006.2
75708.6
75236.6
73828.7
89734.6
89551.3
89285.6
89568.1
88875.4
95837
79735.2
74478.4
82554.4
90571.5
68350
71096.3
63150
64717.1
102752
54835.9
52194.8
50360.7
40048.6
42302
38856.7
44860.3
49092.4
46456.9
43616.6
32175
34010.1
35679.2
58001.7
55930.7
59861.8
29208.2
30167.6
63987.9
61639.2
66799
65028
72753
71684.6
70325.2
68513
69135.5
87077.8
86016.7
84729.3
83958.4
82428
88495.8
88063
80566.3
81288.4
79490.8
78684.9
77288.2
79999.3
75844.2
74560
74477.9
73675.3
73048.3
90001.1
90150.8
89524.3
89778.6
89171.9
96848.9
77272.2
71999.2
74772.9
84215
79565
94174.2
87805.5
67386.8
68557.4
60966.5
63925.9
104173
99924.1
53837.3
52660.8
50844.9
39680.2
40875.5
37369
45000
48318.2
47012.5
42351.1
32300.2
30259.3
34018.7
35788.8
57558.5
55541.3
59558.6
27845.1
28219.6
63212.9
62261.1
60350.6
66912.1
64909.5
71650.8
71233
69914.1
67738.3
68676.6
87531.7
86545.2
85426.1
84824.3
83316.6
82629.3
81636
88951.5
88019.3
80143.4
80637.2
78652.8
77897.2
76315.6
79150.5
74823.3
73641.9
72720.1
72265
90128.2
90493.2
89837.7
89608.3
89996.3
89472.2
89222.9
77427.1
70221.4
72718.2
82464.6
78749.3
95106.8
88382.9
65206.1
67288.4
60601.1
62015.9
103748
100817
54194.6
51519.9
49939.7
37902.2
40821.2
43808.7
48671.4
46365.1
42388.6
30166.7
28503.9
32201.4
34125.4
58294.9
56233.4
25660.2
26227.1
63322.5
61716.7
59984.8
66227
65404.3
63965.6
71041.5
70272.8
68998
67847.7
87505.1
86550.2
85527.5
84159.7
83415.8
82005
81376
89167.1
88405.1
80242.8
79161.6
80120.5
78495.4
77996.9
76802.6
74904
73694.4
72533.6
72150.2
71389.6
90438.6
90582.5
90043.1
90005
90351.5
89810.3
89681.5
75523.7
70662.8
68034.9
72329.8
79798.9
83503.7
76393.3
93654.6
98655.2
90749.6
86060
64313
65216.6
56922.6
58818.6
61233.1
104939
53291.6
51829.5
50191.4
36873.6
39413.3
43703.3
47535.7
44963.9
41087.9
30086.4
28451.7
26509
32307.3
33624.1
57575.2
55714.2
24013
24233.9
62398.4
60766.8
58883.6
66344.5
64850.4
63521.1
70072.7
69651.9
68452.9
67138.7
87090.2
88132.5
86081.4
85044.2
84402.7
82683.9
81937.2
80732.6
89651.5
88914.9
79591.4
78523.8
80103.4
77672.1
77301.7
76468.6
73705.4
72392.9
71597.7
71074.5
70685.1
90608.6
90698.1
90365.8
90236.4
90693.1
90191.2
89884.4
73406.9
69024.4
66467.6
69913.3
78359.1
82459.4
75085.9
95226.3
100191
90464
86182.7
62280.3
63767.1
56947.3
59238.7
104562
53527.3
50591.7
48892.5
37658.4
34672.8
39707.3
41898.3
47492.3
44558.8
40760.7
28059.1
26294.7
25104.2
30496.7
31252
56352.3
57844
54622.3
22232.9
22257.4
62452.8
60102.3
58861
65454.9
63934.7
69505.8
69573.7
68776.2
67540.1
66983.8
87028.3
88367.1
86292.9
85201.9
84058.2
82688.4
81111.8
80526.9
90083.4
89312.2
78858.7
77582.3
79372.2
77243.8
77199
75638.1
72149.6
73546.7
70342.3
70264.9
70619.3
69806.2
90791
90530.3
90654.5
90567.8
90968.2
90575
90329
72091.4
67036.1
64233.3
69086.6
78851.6
75965.1
80604
84106.8
72901.3
97510.5
93017.7
102596
88208.3
61808.9
55117
57883.9
106666
52549.4
50439.3
49099.8
36234
33471.1
38450.1
41482.2
45933.8
42879.4
39064.8
28387
25879.1
25198.7
23211.8
30032.4
55443.5
56587.9
54431.9
19166.2
20665.9
21932.5
20483.3
61737.4
60498.9
57795.7
65251.3
63260
68648
68536.9
68118.4
67088.9
66018.9
87448.8
88163.2
89043.3
85898.4
84643.7
83383.7
81953.9
80840.3
79705.8
90539.9
89953.5
78272.5
77000.8
78556.4
76731.6
76137.8
76388.2
74371
70561.4
71579.5
68960.5
69486.9
69712.4
69193.8
91119.8
91283.6
90936
90847.3
91152
91123.5
90617.9
90893.2
70158.2
65457.1
62773.3
67073.3
77078.2
74880.5
80408.5
83643.2
71675.1
98650.6
93427.6
101364
87526.3
60172.2
52367.5
55651.2
53002.7
58294.1
105855
53301.2
51268.8
48847.9
48074.7
36822.7
34304.7
31191.1
39652.5
45504.7
42360.8
38118.7
26658.6
24100.3
22818.6
22019.4
27614.7
55432.5
56547
17368.8
19634
18759.2
62091.7
59671.3
57634.4
64307
63424.3
68188.6
68150.5
67373.9
66268.9
65741
87432.6
88693.5
89452.1
86154.9
84678.3
83257.1
81964.8
81227.8
79780.5
79252.6
90974.7
90318.8
77340.5
75984.3
77896.6
76021.7
75436.4
76390
73817.9
68673
71480.5
68026.3
68548.7
69184.2
68450.5
91248.3
92054.1
91253.5
91220.3
91245.3
91397.7
91114.6
91300.1
68928.5
65619.5
63423.4
60639.1
67127.9
75503
77415.1
73124.5
78953.1
81846
85100.7
71916.1
69589.5
97873.8
91430.3
95732.4
102963
88992.9
59628.8
54114
51397.7
56701.3
106782
52998.2
50494.7
48163
46578.5
35501.5
33041.2
30215.1
39394.6
38301.8
43603.5
40689.6
36211.7
24581.2
26437.3
21964.7
21380.3
19749.6
26317.7
54151.5
55365.7
17134.6
18254
61296.2
60146.6
58425.8
56357.2
64167.3
62518
67443.3
67373.8
66676.4
65961.4
64849.9
88002.9
86839.7
89233.5
88644.6
90004.4
85297.6
83904
82510.5
81392.8
80893.8
79551.3
78255.5
91240.9
91320.2
90912.2
76601.4
75557.3
76862.8
75145.3
74158
75512.4
75726
66473.7
70226.2
66770.3
68142.6
68465.5
68062.1
91343.9
91612.5
91569.9
91500.7
91507.1
91556.8
91438.3
63814.4
62123.2
59543.8
65517.4
74127.8
76420.7
72781.9
78835.8
81411.8
84202
70208.4
68784
99721.1
92887.5
95145.1
101593
87656.5
57475.5
48566.1
54773
52025
49264.2
107889
104137
51525.5
48951.1
46583.9
45755.9
33631.3
31237.2
28180
37806.6
36658
43186.6
39860.8
35421.7
23136.9
24161.6
20135.3
19416.8
18590.3
26641.9
24244
54103.6
55390
13197.2
15653.5
16333.9
61549.8
59446.6
57777.7
55955.9
63289.1
62560.6
67027.4
67111
66694.8
66385.1
65132.7
64535.1
87924.1
87154.9
89897.5
89385.2
90375.4
85133.1
84211.3
82479.2
81083.7
80229.4
78658.4
77561.4
91670.6
91753.7
91369.5
91161.1
74355.5
76261.1
73678.5
73324
75776.7
75777.6
65289
67085.7
73669.1
66742.3
67460.9
67444.1
91185.1
92797.2
91867.1
91875.2
91654.5
91782.3
91876.9
63785.4
62360.3
60361.5
57563.4
65566.8
73885.2
77446.3
75002.1
71523.9
79918.4
82374.3
85241
70189.6
67176
99131.3
92034.8
97001.6
102486
88314
56513
46391.3
53348.2
50647
47788.4
108564
104334
51191.7
48059.6
45689.9
44275.6
32128
29967.3
28062.6
36290.8
38085.3
35857
41843.8
40410.4
33831.8
20859.5
23273.4
18093.8
18001.7
16779.6
24355.8
23051.2
53131.5
54305.4
14061.8
15131.7
60772.6
59829.4
58301.3
56561.5
54621.1
63032.4
61711.8
66406.3
67036.7
66427.3
66086.6
65325.2
64772
63602.8
88382.4
86852.9
89878.5
89302.5
90953
85642.9
83727.6
83036.5
81541.6
80242.3
78733
77808.1
76640.7
92006.1
92237.3
92194
91745.1
74150.6
75086.3
71767.1
71922.2
75919.3
73755.5
62955.2
65536.4
72611
66428.4
66996.3
67176.8
91785.5
93612.7
92238.3
92002.7
92004.7
92118
91820.3
92148.3
62059.7
60803.8
59552.4
56644
64156.9
72263.1
77139
74538.8
71210.5
79671.4
81226.4
84247.5
69038.6
66870.5
100901
89997.5
92885.9
96962.8
87078.7
54348.3
41995.1
44908.9
51333.2
48577.5
45667.4
106383
103200
52075.9
49837.3
48544.7
46318.8
43924.7
43407.6
30234.3
32298.7
26596.1
34847.3
36652.6
33973.3
41994.9
39476.3
19851
21273.8
16229.5
16405.6
15339.3
24539.4
21556
53357.8
12635.7
11016.7
12967.1
60915.9
59211
57720.7
55908.9
54019.2
62016.1
66110
66120.7
66479
65364.9
64917.1
63764.6
63160.8
88570
86156.2
87549.2
90940.2
89682.6
91401.4
85510.1
83962.8
82342.1
81178.8
79616.2
78019.5
76941.3
75938.4
92439.1
92371.1
92573
92037.7
91980.4
72513.8
75084.3
71015
70525
71417.4
74338.8
61888.9
65102.6
79951
66160.1
66433.8
66420.1
66594.5
92009
93502.4
92233
92422.8
92269.6
92514.5
92098.5
92619
60553.5
61686.1
57844.3
54788.6
62656.8
64391.2
71950.2
75712.5
78329.5
73136.6
69762.4
81226.1
82520.9
85405.3
67741.6
65460.4
101264
89687.9
91154.6
94989.9
99364.2
88159.5
53537.8
40094.6
42992.4
50045.2
47271.1
44195
108942
104153
51409.5
50113.9
47330.3
45308.8
42894.8
28520.4
30447.6
26743.8
33134.8
35041.2
36801.7
32723.6
40681.7
38042.7
17976.2
20742.1
14576
15593.2
14852.1
13536.3
23310.3
20139
52207.9
9435.66
11546.1
59944
58244.8
56552.8
54647
52646.5
61567.6
65450.2
65574.6
66293.9
65036.5
64051.4
63409.3
62176.3
88516.5
86666.2
86841.9
90748.8
90315.3
89709.4
85827.8
84508.1
83285.9
81770.4
80448
79815.7
77054.2
78122.5
75972.6
92744.7
92945.5
92999.7
92597.5
92332.4
73280.5
74187.2
69335
61465
70502.8
71946.6
60133.2
64052
75865.4
65816.6
66846.7
66297
92137.9
91887.5
92785.9
92537.7
92492.2
92664.6
92365.6
92878.4
58846.1
59870.1
57341.7
53752.7
62054.7
63168
70698.6
75573.6
77919.3
72670.3
69018.8
79715.9
81719.9
84757.1
66844.1
65506.2
90758.7
94798.5
99819
87626.9
51624.7
39787.1
41532.8
48082.6
50192.1
45045.9
41939.5
111346
106416
101871
49143
47697.2
45854.4
43644.7
41149.8
28571.6
30756.2
24879.7
31888.7
33537.1
35010.4
40216.1
37408.5
16305.7
17940.8
19337.9
12875.8
13382.5
13485.3
11971.9
21435.1
19498.2
51757.6
8060.04
8988.05
9834.36
59805.6
57557.6
56360.6
53790.5
51826.9
60639.8
65194.3
65350.5
65739.6
64335
63789.9
62456
61685.6
89034.7
87404
90644.1
91196.1
89717.9
85507.7
84634.4
83496.5
82051.6
80439.2
79161.2
76098.6
77235.2
75166
93202.2
93608.1
93034.8
93281.9
93572.2
92368.2
72561
74284.9
67163.1
49286.9
70861.2
42147.1
62472.4
66961.4
89200.8
65644.8
66331.1
68466.2
65937.4
92710.2
92636
92689
92837.9
93079
92546.5
93247.6
58562.3
59527.4
55800.3
51712
54241.7
60720.5
63053.5
69477.1
70488.6
74599.7
76623.2
78485.2
71274.7
73415.9
67375.9
80076.8
82017.3
83273.8
85989.8
64357.5
88824.5
92352.7
96473
98760.3
36664.3
37864.6
47087.3
48354.3
44015.7
40443.5
109063
105631
102725
49088.1
46618.1
44774.9
42655.3
40288.7
26724.9
29403
24832.5
32106.2
30152.7
33494.8
35457.2
38377
14690.3
16302.5
12390.4
11194.8
12410.6
11536.8
10617.7
20015.4
20717.9
17369.9
50098.1
6475.9
7282.8
8582.8
58912
57485
55632.3
52432.6
53784.4
50273.6
60316.2
64587.8
64818.1
65634.1
64126.7
63036.2
62329.5
61759.9
60745
88611.4
87548
91517.1
91783.1
90117.6
89952.6
86216.7
84485.4
82669.5
83763.9
81055.4
81849.1
79386.7
76326.2
75250.3
77622.6
93611.4
94024.3
93489.7
93762
93456.6
93352.2
73062.9
73828.5
69417
61314
70810.4
39683.4
67824.4
63607.1
56386.5
87308.6
65530.9
66583.1
69268.7
93034.8
92587.2
93078.4
92596
92768
93099.1
93244.9
93272.2
93483.2
56843.9
58079.3
55585.4
50362.1
52990.1
60437.1
61689.8
68585.9
69245.9
75215.2
76346.8
77331.7
70734.2
72787.6
66616.7
79278.2
80743.9
82929.7
85479.5
64233
87982.1
91840.8
96197.1
99755.1
34878.9
37125.7
45316.2
47749.5
42055.3
38355.6
40645.3
109723
104745
101360
47353.9
45204.3
43241.2
41068.3
38615.2
26140.1
27223.3
23318.7
30505
29246.5
31633.7
34701.2
37647
14754.4
13061.8
16043.5
10591.6
9819.43
10571.3
8879.2
18203.7
21615.6
18585.5
16854.8
49418.3
6206.26
7061.08
59312.7
58001
56279.1
54521.7
51568.2
52349.7
49619.4
64408.6
64586.2
65195.6
63455.7
62910.7
61613.2
60847.2
60247
88491.2
87806.3
92375.2
92021.4
91750.1
90458.9
85237.4
84814.4
81555.3
83496.5
80849
80703.3
79287.6
75573.5
74328.8
76523.8
78504.9
93935.4
94102
94789.3
94169.3
94507.5
93923.9
73134.7
72028.2
67022.9
57378
70144.5
28907
65740.6
38296
75172.6
65172.1
65407.6
69499
62678.2
92899.4
92942
93578.5
92758.2
92989
93361.3
93641.6
93645.8
93849
56716.7
57746.2
53930.6
48581.6
51174.1
58912.3
61702.8
67362.6
68731.6
74688.9
77146.3
69454.2
71514.3
73450.1
65244.7
79612.2
77987.7
80723.7
81696.6
83960
86257.9
62941.2
88457.6
92875.4
89911.4
98230.6
94623.7
33337
34841.8
44633.9
45840.6
41478.3
37405
38724.2
112859
106793
105579
102301
46791.3
43988.2
42306.6
40112
37924.3
23938.5
26185.3
30100.8
27492
31282.4
33010
35929.2
12934.5
11913
14121.5
9771.52
8315.35
9692.72
7245.78
17499.7
20329.4
18343.4
15252.1
47841.7
4573.95
5555.86
58831.2
57321.1
55865.4
54039.8
50301
51919.3
48225.1
63820.9
64071.9
64801.2
63318.7
62206.1
61632.8
60858.5
60473.2
59336.4
89471.3
87302.2
93123.9
92974.9
92085.9
91213.7
89956
85018.6
83831.9
80861.3
84247.8
79899.4
80920.9
75847
74706.2
74009.3
76748.4
78663.5
94343.4
94501.6
94962.4
95729.3
94721.1
94005.2
93866.5
72363
71164.1
70960.7
102387
69639.9
34455
79750.4
45479.5
64737.3
65065.7
66647.5
63563.6
92777.1
93091.9
96217.3
92543.1
92961.7
93194.8
93638
93847.3
93871.8
94293.3
55352.8
56073
53225.8
47154.5
50314.1
58648.6
60774.6
66755.9
67480
74940
75876
68844.3
71209.6
73111.8
64793.7
78546.3
77582
79668.2
81099.8
83931.2
85364.9
62758.8
87053.6
91563.1
90036.6
98199.8
94947.5
31612
33260.9
34390.5
42770.8
45442.7
39500.4
35724.1
38165.7
111045
107226
104115
101366
45380.1
42612.2
44155.3
40786.6
38634.2
36410
22756.3
24169.1
28170.3
26821.4
29780.1
31936
32651.2
35394.4
12579.2
10413.9
13831.1
7974.74
7231.74
7137.52
8139.76
5492.65
15491.6
20855.4
17131.6
47304.2
4217.62
3817.29
57790.4
56341.7
54796.5
52880.1
49479.2
50665.1
48076.1
63722.8
63809.6
64580.1
62675.1
62094.5
60901.3
60335.5
59393
58834.3
88953.4
86979.9
93983.2
93663.2
91840.1
90979.7
85085.1
81551.4
80997.4
83871
79837.1
79832.2
75058.1
74328.4
73104.2
78199.7
76351.7
94710.2
94423.5
94495.2
95309.5
96515
95228.2
94942.4
72399.1
71385.1
70331.2
77677.2
102235
86114.8
62396.5
69637.9
53471.4
64175.2
66719.1
61396.9
69507.2
93212.3
92953
95043.8
92083.7
93130.8
93300.5
93782.9
94253.3
94307.9
94516.7
53910.9
55403.3
51455.3
47112.5
48569.9
59645.9
57340.8
61521.8
65551.7
66863.1
73960
75757.6
67494
69273.3
72176.4
70253.8
63580.9
78594.2
76581.2
79825.6
81579.7
82967.8
85607.5
87331
91893.1
88876.6
96526.6
99522.7
93568.7
29892.2
30951
32645
42252
43764
38925.8
35015.6
36128
109972
107087
105192
102527
45012.1
41445.1
43030
40278.6
37510.8
36074.2
22829.3
23545.1
27379
24864.9
30430.6
28270
31019.6
33800.5
10856.3
9092.95
12270.6
7182.86
5597.04
5228.02
7669.59
3625.94
14330.8
19672.4
17906.9
15478
45868.7
2317.87
2906.32
57347.4
55587.3
54584.5
52776.7
49641.7
50297.5
47178.9
63209
64001.6
63284.2
62682.7
61443.6
60785.7
59584.2
59034.5
57898.8
89236.3
88466.7
93773.2
94043.3
92715.4
92747.4
90090.2
85303.6
81341.1
82862.8
81114.1
84382.2
79374.5
74758.7
73424
72819.3
78395.1
76281.3
75027.4
94961.4
94943.5
95269
96257.7
96013.4
96333.7
96255.1
94712.6
94948
71622.4
70700.3
70951.1
88853.1
68554.9
58518.4
59404.9
64024.9
64766
61849.6
66435.8
93155.9
93119.5
92568.7
91905.4
93228.5
93532.1
94094.6
94519.6
94409.3
95053.7
52520.5
53691
56114.2
51003.1
45159
48214
59063.7
57742.8
61170.6
65086.5
65675.9
73890.1
74760.2
67014.9
68536.5
71974.4
70180.3
63213.6
77664.2
76124.5
78967.6
80739.4
83254.8
84529.8
86256.9
90558.9
89041.7
96943.8
98724.9
93785.3
29290
30812.4
33067.5
40396
43474.3
36761.9
35276.3
111120
109955
108148
104215
101520
43633.8
40991.1
41662.8
39114.1
37759
34725.4
20740.6
21620.4
25300.8
24183.1
29878
27029
30668.5
33449.2
9195.18
10838.8
11729.1
5563.71
4331.91
3795.49
6376.87
2452.31
14430.2
12499.8
16682.7
15090.7
45174.6
2377.98
2629.83
2300.22
56386.6
55572.6
53723.5
51927
48515.6
48902.9
50858.3
47438.1
45861.9
63425.6
62841.3
62192.5
61331.3
60121.2
59193.7
58150.6
57406.9
89554.5
88446.8
87251.4
95118.8
93646.6
92581.1
91373.9
85751
80004.6
82100.4
79908.6
84255.6
73653.9
73031.1
72168.7
77531.2
75411.4
74613.3
95390.7
95263.4
95729.1
97938.1
96793.9
96373.5
96871.2
95761.5
95960.5
70951.7
69302.3
68071.2
73798
70151.4
66087.3
63167.3
65701.5
64759.9
62206
63473.3
67887.5
93520.2
93524.8
93055.1
91029
91788
93625.2
93827.5
94119.6
94940.9
94818.7
95216.4
52409.4
53483.8
54957
49533.9
45142.4
46718.1
59868
56900.9
62047.6
63971.6
64861.7
72887.2
74943.2
67641.6
66076.1
69149.6
70966.1
76521.4
77857.7
78899.1
79594.5
81287.5
82438
84283.2
86523
84849
90846.8
87862.3
95647.2
99538.9
92488.3
27286.8
28870
31900.3
39980.6
41565
36429.7
32994.6
115454
111798
107573
105339
101935
42955
39415.9
40948.9
36563.3
34363.8
20185.9
21066.2
24411.6
22282.6
27979.6
25234.5
29299.2
31973.4
7564.67
9308.11
9814.73
5232.46
4382.22
3075.93
2308.04
5565.45
2302.59
12546.3
11466.5
16792.8
13545
43578.7
2440.93
2309.24
2304.33
56416.7
54423.9
53555.6
52436.1
48455
50074.8
46445.7
45356.2
63286.3
62312.9
62748.1
61646
60707.4
59420.5
60148
58225.7
57460.9
90115.2
89729.7
87062.2
96195.7
94200.9
94089.2
92794.2
91656.8
84881.5
79131.2
81409.3
82984.6
78879.8
73474
71991.4
71681.3
78313
74839.1
76393.8
74114.1
95953.1
95769.4
96415.6
98325
96844.6
96801.6
97020.9
97127.4
96195.5
97169.6
70336.9
68627.1
66203
62328
64332.6
60347.5
63958.1
62713.3
63597.7
66238
93720.7
93561.9
92278.1
91547.3
93344.2
94311.7
95153.4
94955.6
95111.1
95631.7
50589.7
52105.7
55323.6
49186.7
43812.6
46290.9
59528.4
57253.1
61691.6
63734.3
65079.2
72671.6
74279.4
66958.9
66050.9
68950.9
70800.7
75814.6
77067.2
77788
78949.3
80623.1
82930.2
85570.7
84087.1
89635.8
87644.3
95703.5
99235.1
92698.1
25884.4
26147.6
26641
29564.7
38184.4
41069.2
34690.5
31761.3
112180
109425
108663
104806
103297
100726
41628.2
38586.8
39670.5
37120.4
35153.7
32802.2
18349.4
19333.2
22590.3
21617.1
27263.2
23893.6
28055.3
29085.9
31719.5
7881.24
6002.8
8857.73
3484.81
3089.05
2305.18
2377.54
3822.08
2302.67
2300.91
12087.5
9823.75
15065.7
13446.7
42643.5
2299.41
2459.02
55899.5
54207.3
51860
47523.4
49039.1
50557.7
46083.5
44319.1
63653.9
62895.1
61890.1
62295.1
61346.4
60799.8
58827.2
59561
57757.8
56550.1
89472.5
91102.3
87871.2
86176.1
95918.8
95544.4
94711
93059.2
92900
85177.9
79980
79163.3
81494.6
83059.4
73127
72102.7
70586.9
77926.3
74184.8
77444.1
75579
73545.2
96437.7
96145.4
96853.1
97529.7
97105
97704.8
97376.5
97064.6
96533.3
96728.1
69301.1
66579.5
62931.7
59987.2
60941.7
61940.2
59319.8
63323.5
62729.6
65542
63877.2
93765.3
93481.9
91599
93068.9
93707.2
94640.4
94245.8
95564.1
95380.4
95591.1
96112
50486.4
52045
54435.6
47483
44668.8
42189.1
58403.4
60535.1
56369.5
62677.4
64405.6
73268.9
71623.6
74744.2
66946.5
65182.1
69867.3
68102.1
76138.3
77048.5
77847.4
79432.7
81160.9
82357.4
85681.1
84457.9
82884.4
90082.6
88309.2
86511.4
94116.1
96829.7
98201.4
91576.3
23960
23907.7
24530.1
28249.7
37745.7
39021.8
32649.6
35658.4
29379.8
111177
107175
105913
103500
100366
40683.6
38763.3
39413.3
36546.7
34065.8
32629.4
18046.7
18854.7
21862.5
19921.4
25610.7
22303.4
24165.7
26988.9
27550.4
30144.1
6554.7
4504.06
7020.59
2870.5
2504.48
2307.72
2300.12
2699.9
2302.17
2302.61
10576.7
9027.98
15003.2
11924.2
43063.1
41010.7
2299.9
2861.78
2300.26
55010.9
53198.4
52269.8
48119.4
46551.4
49951.4
44656.9
63315.2
62753
61909.3
61445.6
62365
60537.1
58139.2
58954.1
59558.1
56972.2
56200.4
89313.7
91086
88367.2
86321.2
97347.6
95674
94648.3
93083.4
84251.5
78824.4
78978.9
81886.2
82644.3
72856.4
71928.3
70678.4
74990.5
77679.4
76512
73072.6
96794.8
96953.5
97069
97989.6
97415.3
97299.4
97702.8
97835.2
97327.1
97329.7
68875.9
67039
60740.8
61260.4
63264.1
61482
63301.5
63215.6
64708
63689.6
93991.1
93542.5
93245.7
93062.5
93378.1
94748
94514.8
95870.8
95710.3
95418.9
96490.5
49193.6
50522.5
53074.2
55154.7
46901.1
43907.5
41349.8
58249.6
60213.9
57059.9
62292.1
63567.3
72631
71633.7
74293
66184.9
67376.2
64953.8
69703.9
68148.6
75537.8
76076.2
77121.9
78868.1
80588.8
84788.9
83762.9
82300.9
89323.2
87202.1
86296.5
94616.1
96144.5
98916.3
91282.8
22341
22205.7
24562.8
22299.9
26117.6
38486.9
30969.1
35078.5
27975
109680
107934
104978
102614
101135
37523.3
38066.3
35439.2
34260.7
31439.2
16428.4
17349.7
20314.7
19314.5
25643.2
20607.7
22624
26559.7
29978.5
6107.79
5051.22
3155.93
6455.23
2660.49
2300.77
2300.88
2388.8
2361.63
2299.72
9440.69
9957.27
7382.72
13495.6
12088.5
10419.5
42003.2
40006.1
2301.27
2302.78
2300.71
54672.7
53127.9
51599.1
47861.4
45530.2
48781.1
50605.8
43934.7
63322.5
62959.1
61475.5
61008.8
62209.1
60036
57700.4
58447.2
58926.6
56382.9
56958.3
55221.5
90089.2
92131.9
88353.2
87236.3
85369.8
97347
97012.5
94550.1
93112.7
84249.9
80199.2
78636.1
81015.4
82607.6
72472.7
71098.8
72166.9
69419.3
74338.3
78121.6
77074.1
76304.8
73750.1
97124
97381.7
98956.6
98613.8
98342.1
98021.9
98876.3
98026.4
98559
66647.1
62037
62519.8
62940.3
65351.3
62616.2
63156.1
64076.3
64384.8
94141.3
94026.7
94184.9
92969
93773.5
95095.3
94547.2
96342.4
96150.9
95741.4
96962.2
47733.9
49317.4
50898.2
52459
54515.9
44933.9
42210.1
39687.8
59023.4
60957.4
56621.5
62722
63355.3
72745.9
70945.7
74747
73471.6
66705.5
65450.2
63962.4
68840.8
70146.8
67389.2
75667.5
77044.2
76114.4
77720.6
79480.2
81169.5
83963.8
85198.9
82774.1
90047.6
88106.5
87125
94054.6
96888.1
98268.1
91747.4
20376.3
19019.6
20330
22394.2
20445.2
25171.9
36660.7
31448.1
28635.5
33320.8
25864.7
111942
107596
105248
103143
100372
37092.2
37620.8
35685.2
32975.4
31560.7
16220.3
16733.5
17603.9
24501.9
20104.2
21121.1
22954.4
24812.5
27062.6
28694.3
4901.16
4133.18
2410.67
4791.33
2302.94
2302.83
2299.71
2310.56
2300.27
2300.42
7974.67
8257.59
6853.39
13542.9
10738.5
9006.35
40565.2
42577.9
38536
2301.19
2299.9
2299.76
2300.3
53732.1
52213.4
46646.6
45644.6
44321.7
48395.6
50208.7
63210.5
62824.4
61479.8
61007.9
61835.7
62486.7
59972.1
57879.9
58429.1
58894.3
55503.4
56529.1
54841.8
89810.5
91964.9
88871.1
87340.5
85522.1
97750
98579.4
96844.4
95424.7
94229.1
83585.1
79649.5
81443.1
73555.5
70711.9
71349.6
69436.4
74004.6
78845.1
77092.5
74729.6
75424.8
97632
97693.6
98632.7
98480.6
98409.1
98706.3
98980.7
98158.1
99247.4
99550.7
99143.2
68230.8
63330
63388.5
65161.5
66961
64686.9
63412.5
64076.5
64382.2
94061.8
93795.3
92909.5
93290.7
93747.4
95254.5
94728.5
96706.1
96141.6
96551.2
95681.1
97417.2
46926.4
47933.9
50293
53167.2
55292.3
44432.5
40991.5
39298.4
58742.5
60591.2
57534.9
62013.8
62460.4
71932
71128.4
74243.1
73452
66640.8
64954.5
63986.8
68921
69666.8
67288.2
74658.3
76101.1
75633.8
77413.6
79047.3
80714.3
83116
84661.7
82346.2
89746
87799.9
85832.4
92733.4
94873.9
96197
98993.8
90722.6
18797.6
18671.9
22950.2
20543.3
18682.5
36396.3
29767
26912.3
33273.5
24235.7
110058
106756
107642
104465
102293
100947
36025.1
34646.8
33085.2
30341.8
14810.5
15121.2
16487.7
18541.3
19847.8
21707.1
23493.6
25966.5
28955.2
4152.47
3050.95
2708.86
2377.85
4470.23
3875.83
2302.13
2300.58
2302.12
2299.51
2526.74
2300.56
2299.99
7094.56
5679.37
12243.9
9293.52
10953.4
7611.97
39569.7
42048
37644.6
2300.29
2300.46
2299.95
53510.6
51961.2
46480.1
44632.4
43237.8
47288.5
49166.7
50960.2
63003.7
63268.5
61072.7
60526.7
61800.5
62433.7
59450.2
57456
57786.4
58414.4
55282.8
55821.3
56854.8
54075.9
90822.2
92810.7
88329.7
86557
84799.4
98348.3
99469.8
96371
98151.8
95562.6
94063
83774.2
80370.9
78841.6
81026.8
72970.8
70980.6
70182.6
71175.4
72833
77582.6
76348.9
74001.2
74454.3
97979.1
98147.9
99574.4
99796.9
99788.4
99333.2
99221.5
98667.1
100028
99445.4
99891.9
68333.5
64753.2
64208.5
66653.9
65640.5
65443
63377.2
63820.7
64395.8
94284.5
93539.4
92613.7
93770
94256.8
95094
94722.1
97135
96446
96951.9
95962
97785.5
45583.4
47354.6
51226.4
48963.2
52556.7
54730.8
42957.5
41308.8
37840.5
59554.1
61151
57201.5
61863.8
72146.5
70413.2
74135.6
72942.4
65889
65137.9
63509.4
68511.7
69719.7
67828.1
66601.8
74240.1
75579.7
74777.8
78134.1
76452.3
79156.7
79762.1
81431.4
82853.1
83460.1
84873
88730.3
86723.8
85799.8
97024.5
98322
17074.5
16158.1
16984.8
22287.4
18676
17237.3
34847.9
30053.2
27636.6
24578.2
31698.7
111820
106425
108027
105033
102409
100377
35574.5
34751.5
31799.5
30473.6
14250.5
17025
14805.6
18487.2
20081
21925.1
23390.8
24485.3
26485.6
27800.1
2878.06
2313.45
2300.25
2300.71
2306.74
2709.99
2300.72
2300.5
2300.33
2299.65
2301.09
2299.69
5576.73
4979.82
11923.8
7838.42
9634.42
6574.67
38142.5
39838
40924.3
36295.3
2299.84
2300.1
2300.64
52673.2
45397.6
44617.5
43435
47027.6
48832.3
50623.5
62959
63195.1
60614.1
61131.1
61454.4
62127.5
62717.6
59335
57464.1
57787.5
58696.7
54294.9
55700
56433
53730.6
84861
99421.5
100170
97256.5
98971.8
96559
83303.4
79737.8
78505
81685
72352.9
70852.5
70223.4
70875.5
72995.8
77263
76598.7
74572.1
98696
98443.1
99991.8
100354
100000
99546.1
100209
99507.5
99931.7
100447
69488.6
65551.6
64915.5
68393.4
67644.2
67374.4
63557.2
63979.5
64547
92988.1
93263.1
93872.7
94348.8
95384.8
94856.2
97565.2
96371.6
96866.5
97441.1
95848.9
98173.4
44928.1
47790
45645.2
50610.2
49184.2
53335.1
55118.9
43326.7
39871.8
37150.6
59635.2
60637.9
58149.1
56042
60885.3
61998.5
71673.7
70404.1
73289.2
65962.3
64497.9
62695.4
63814.6