/*--------------------------------*- C++ -*----------------------------------*\
| =========                 |                                                 |
| \\      /  F ield         | OpenFOAM: The Open Source CFD Toolbox           |
|  \\    /   O peration     | Version:  v2012                                 |
|   \\  /    A nd           | Website:  www.openfoam.com                      |
|    \\/     M anipulation  |                                                 |
\*---------------------------------------------------------------------------*/
FoamFile
{
    version     2.0;
    format      ascii;
    class       volScalarField;
    location    "1.8";
    object      p_rgh;
}
// * * * * * * * * * * * * * * * * * * * * * * * * * * * * * * * * * * * * * //

dimensions      [1 -1 -2 0 0 0 0];


internalField   nonuniform List<scalar> 
13611
(
126214
154353
104203
158743
60706.7
42925.7
116703
100128
129491
169267
9006.56
100322
21325.9
86445.3
54765.7
123225
8588.89
12698.4
67102
90918.9
72993.6
15595
9117.68
18948.9
8464.16
53832.9
51634.6
135273
78329.5
54633
7768.95
7972.45
8100.92
8661.84
68705.2
68770.7
132312
78119.5
36841.8
8244
7886.95
8059.3
8394.74
70321.5
68272.4
125430
97902.5
72952.1
18269.2
50852.8
7537.41
7619.83
7872.6
9025.96
21584.5
92361.1
95480.3
114306
93452.3
84856.7
30705.3
41921.4
14482.9
8780.5
55545.7
10844.6
9777.12
10676.3
27681.6
68261.3
93588.2
108661
97428.9
90235
32234
47021.5
16686.8
26504.5
14395.3
19596.9
18793.2
18640.5
43799
24458
76636.3
101080
94069
95932.7
93252.5
39425.4
45696.1
26963.4
31486.1
20850.1
48823.1
26052.7
22281.9
27121.5
43809.9
34494.9
71308.9
98950.8
92096.7
96707.1
96555
43054.7
41127.2
31305.5
37682.8
29501.4
47860.3
49252.8
31704.8
29838.2
34516.7
51724.9
41264.3
60627.5
76676
96999.7
94764.4
85013.7
93298.6
97794.8
96522.9
45199.5
43791.6
36919.6
39470.7
33452.6
48422
37792.6
38900.6
40458.4
50326.8
65369.6
72363.8
97173.1
94300
85385.2
97103.7
96582.2
97093.8
45898.7
44812.7
45384
40761.9
42612.7
38689.4
47292.2
48898.1
42433.7
44103.3
45872.6
55869.5
64919.4
74633.6
96177
95586.5
91637.4
80383.4
88362.2
97622.7
98336.3
96542.1
44415.9
46271.1
46493.4
42838.4
43376.8
42516.1
42357.7
47399.1
48258.9
47217.3
47692.7
51506.4
61767.9
55527.5
68786.1
71152.7
96595.5
94882.8
91702.3
81680.6
87708.6
98799.5
96565.3
46636.7
46745.1
47131.8
47116.6
46364.6
45634.5
47126.4
46767.6
47661.9
48107
50944.2
52092
65988.2
60818.6
71147.7
74421.9
96303.8
95378.1
93059.9
89678.5
85449.4
78363.3
98247.3
98333.1
96349.1
47206.9
47410.2
48094.1
47354.9
48833.9
46915.7
50644.4
49390.9
47269.5
47153.7
54679.3
55383.7
65356.9
61191.8
76187.8
77562
96020.2
94433.8
92567.7
89110.6
84358.7
80383.6
97488.7
97656.1
96391.4
48711.2
47953.4
47535.8
49032.7
47159.6
50832.6
48905
54087.5
52220.4
46779.5
57164.3
59037.2
69105.6
64745.9
80189.7
73298.9
81184.1
78928.7
95949.9
94201.4
93293.4
91181.4
89927
87035.3
85178.4
98007.9
96588.4
96674.3
49858.2
48213.8
47692.6
49251.1
49775.9
46717.8
50511.2
52913.4
56864.5
54126.6
53633
46008.4
60475.3
61503.2
67782
64292
81229.4
74393.6
84267.5
81110.7
95577.1
94664
93155.9
92649.8
90876.7
88982.1
86827.6
83217
96514.3
96039.6
96775.4
51405
48708.7
47467.8
49979.3
50640.1
46819.9
45993.1
51860.3
54130
59278.1
56309.4
55614.8
45096.9
44633.1
61481.2
69716
66366.8
82519.3
77376.8
72354.3
84410.2
83186.3
95658.6
94037.7
92626.5
91547.6
89601.1
87771.4
85380.9
84144.2
97531.8
97020
52200.9
48542.9
47767.4
49880.9
51617.5
46141.8
45156
53468.5
55881.6
59618.9
58278.4
56690.1
44495.3
43092.6
63442.5
68895.3
66119.7
79012.3
75340
72994.5
82007.6
83059.3
95148.6
93028
94416.9
91480.9
90920.7
88996.7
86907.6
85538.8
83430.6
96563.3
94495
97792.9
53565.7
48983.1
47171.9
50388.8
52021.1
45199.3
46403
44781.4
54318
56613.3
61600.7
59280.9
58426
43410.1
42480.4
63145.5
64967.3
70142.2
67349.6
79607.6
76219.6
74376.6
71958.1
82504.6
95685.1
92262
94017.7
90722.2
89684.5
87856.1
86986.3
84721.9
83300.8
96161.9
97363.7
97379.8
53841.8
48687.8
47153.9
51302.3
49485.5
53055.1
44652.8
45621
43370.2
55743.7
58074.5
61055.7
59085
41016.8
64708
66208.8
69895.3
68686.4
78890.5
76032.4
74535.5
72180.4
81734.7
94985.5
92388
91096.3
94354.2
93172
89568.1
89066.8
87196
86009.9
84548.8
83716.3
82268.2
95978.8
98210.5
99104
96518.5
78313.7
92430.8
55022.6
47809.7
45957.7
51402.9
49424.8
53341.5
43596
42326.2
56085.5
58372
61670.2
60536.7
39793.5
40437.2
66234.9
64336
70985.5
68657.7
80098.6
77120.4
75379.6
73887.5
72944.5
95436
91481.5
90301
93934.6
93185.3
88768.9
87888.4
86133.3
87166.3
84982.2
83432.6
83034
81580.7
98502.8
98785.2
96364.4
82010.4
76915.5
71132.7
88125.5
92866.8
54605.3
47411
45386.5
50370.5
52439.6
48230.3
42493.3
43306.4
40938.3
57251.7
59579.5
62949.7
60714.9
38860.4
67398.3
64955.2
71189
69487.8
79477.1
77206.3
75563
74090.7
72299.5
95149.8
91699.7
90519.7
89162.7
94282.9
92563.7
87713.4
87384.3
85365.6
86014
84152.2
82756.7
82019.2
80208.7
97430
98954.1
96706.7
95686.8
83964.1
73831.4
79238.8
71660.4
86808.8
91864
55070.8
46093.8
44039.1
50080.2
52279.8
47938.5
41131.6
41634.9
39505
57320.1
59478.6
62939.2
61849.1
37963.5
38210
67623.1
63886.2
65854.5
70540.1
68846.6
78155.2
76364.7
74859.2
73340.5
72517.1
91014.7
89840.5
88442.3
93907.2
92448.1
86874.5
86345.7
85265.7
84399.3
85708.9
83038.6
81638.7
81288.7
79555.8
97866.8
98709.2
96601.7
95466.3
82500.2
73112.8
77604.9
67647.8
69244
64339.4
88668.1
92953.9
56303.9
54159
45385.6
43253.2
48842.7
50948.2
53044
46807.2
39514.7
40908.6
58406
60324.5
61522
35398.4
36354.2
36724.9
66933
64035.2
65188.9
70911.1
69184.9
77462.6
76436.1
74865.1
73003.9
71819.3
91575.8
90246.6
89808.1
88899.7
87297.8
94213.7
93011.4
86645
86003.7
84180.4
83578.9
84624.8
82166.4
80780.9
80119
78234.6
97728.7
98839.8
95930.3
97102.9
94851.4
84706
74544.4
70449.5
78635.7
65693.4
68719.4
62364.3
87653.7
92223.3
56267.9
54265.9
43963.6
45783
41768.7
48106.3
50519.9
52481.2
46795
37861.6
39303.1
58380.1
59543.9
62143.9
35783.5
35641.6
67330.9
63286.5
65390.4
70189.3
68400.1
77410.1
75695.2
74138.5
72028.1
73292.2
91164.8
89756.5
88967.8
88410.3
86810
93736.7
92961.2
85386
85041.5
83809.6
82491.6
84292.9
80998.9
79612.8
79323.9
77705.8
98614.8
98489.4
95782.4
96945
95155.4
84446.9
72942.1
70372.9
76247.5
81889.8
64971.5
66435.1
61588.1
89464.2
93955
57316.1
55086.4
53193.4
43381.9
44515.3
40675.2
48250.6
51426.2
49265.1
45623.9
35907
37870.8
39047.8
59549.5
61570.9
32936.9
33957.7
33626.3
66429.3
63415.9
64343.3
70329.7
68519.3
76186.2
75507.7
73981
71278.8
72652
91530.6
90128.2
88910.3
87486.5
85863
93965
92365.7
84602.5
85147.4
82691.7
81570.1
83224.6
80005.5
78640.6
78246.8
76701.7
98201.2
98823.6
96340.5
97501
94788.8
87383.8
73358.8
68607.5
76020.3
83037.5
62915.6
65483.3
58135.2
59591.5
93430.7
57221.2
54494.4
52641.8
42070.1
44381
40835.3
46959.7
51328.4
48565.1
45674.4
33984.3
35847.6
37531.6
60443.3
58309.8
62331.2
31001.2
31935.8
66539.4
64067.7
69469.9
67583.8
75568.5
74515.6
73061.3
71221.1
71829.8
91006.9
89628.6
88135.8
87220.7
85393.3
93438.4
92642.2
83516.3
84132.3
82461.6
81689.8
80229.9
82910.7
78725.1
77373.1
77335.2
76458.5
75839.3
98751.6
99689.8
96401.3
97485.2
94964.5
88375
71232.4
66356.5
68958.2
77559.3
73412.9
86174.5
80723.1
62082.5
63187.1
56154.5
58904.5
94574
91052.5
56119.2
54903.1
53082.2
41616.5
42841.1
39228.6
47038.4
50466.8
49092.8
44306.2
34070.2
31994.4
35809
37588.4
59880.4
57814.3
61915.9
29552.6
29911.3
65662.1
64660.8
62681.1
69483
67356.9
74324.9
73923.9
72532.1
70331.9
71238.1
91376.8
90133.5
88679
88007.6
86265.6
85478.6
84413.8
93813
92154.7
82903
83353.7
81418.9
80704
79048.7
81848.1
77534.3
76313.8
75369.9
74903.5
98627.5
99785.4
97074.1
96055.1
97985.4
95509.8
94483.1
71454.2
64808.2
67155.9
76165.7
72788.4
87068
81362.6
60105.6
62084
55852.6
57169
94410.4
91928.9
56405.2
53641.3
52072.6
39740
42726.2
45743.9
50760.7
48344
44282.3
31817.6
30144.7
33882.6
35826
60576.4
58476.9
27283.8
27812.5
65693.7
63997.8
62217.7
68690.3
67819.6
66330.8
73580.1
72855.3
71521.5
70354.4
90903.1
89777
88449.9
86942.5
86108.6
84595.3
83954.8
93558.5
92273.3
82942
81765.1
82618.5
81122.7
80701.2
79479.2
77524.8
76315.1
75086
74690.1
73917.1
99212.8
100132
97054.4
96552.8
98081.7
95438.4
94881.4
69821.4
65273.7
62817.2
66886.7
73812.8
77185.1
70693
85956.1
90125.7
83472.7
79446.7
59330.2
60195.8
52457
54237.3
56493.2
95404.4
55393.9
53882.3
52265.6
38616.7
41213.8
45568.2
49529.5
46852.1
42891.7
31695.6
30047.6
28076.7
33951.6
35259
59749
57865.3
25548.1
25746.6
64672.9
62979.3
61023.1
68727
67146.6
65787.5
72483.9
72111.1
70856.8
69542
90210.6
91514.4
89001.3
87670.8
86959.2
85059.6
84310
83141.7
94028.5
92858.9
82072.2
80941.2
82481.2
80107.7
79832.1
78976.8
76164.7
74854.7
74017.8
73482.6
73086.4
99162.6
100025
97588.5
96469.4
98713.3
95913.8
94671.4
67920
63850
61444.5
64721.1
72640.7
76394.3
69607.3
87471.6
91652.9
83416.6
79696.9
57483.7
58917
52507.7
54662.2
95261.1
55573.1
52544.2
50852.9
39387.4
36317.6
41468.1
43651.5
49415.8
46360.7
42494.5
29564.3
27797.4
26590
32041.3
32788.3
58474.2
59956.9
56700.6
23701
23672.6
64663.6
62204.3
60916.9
67737.7
66164.3
71798.5
71960.9
71151.3
69851.4
69298.5
89720.6
91412.1
88874.3
87523.1
86275
84786.3
83264.1
82727
94015.7
92841.2
81213.6
79854.5
81525.7
79644.4
79482.2
77993.2
74540.1
75898.3
72637.9
72561.1
72982.7
72100.1
99641.4
100105
97550.6
96937.8
98853.5
95975.6
94982.9
66823.1
62032.4
59394.3
64039.6
73194.1
70493.6
74800.6
77943.8
67639.3
89406.3
85688
93735.4
81545.1
57100.1
50844
53445.8
97104.2
54492.2
52316.4
51006.9
37859.4
35026.2
40121.8
43162.2
47756.1
44584.8
40718.5
29864.4
27309.3
26631.7
24621.7
31487.8
57473.4
58590.5
56437.4
20505
22053.1
23309.1
21840.1
63853.3
62553.6
59757.3
67451.1
65384.2
70825.3
70782.9
70367.5
69298.3
68229.9
89905.6
90779.6
92159.5
88176.9
86725.4
85411.6
83810.4
82752.5
81753.5
94626
93485
80426.4
79098
80612
78966.3
78240
78599.5
76674.3
72797.8
73789.4
71120.5
71684.5
71947.2
71382.1
99800.2
100623
97936.1
96894.3
99401.2
98564.2
95533.3
96481.1
65079.1
60648.2
58107.1
62234.1
71711.7
69610.6
74765
77659.1
66609.1
90475.2
86191.7
92727.4
81122.7
55619.2
48274.1
51375
48885.9
53864
96585.3
55230.6
53140.3
50640.3
49887.2
38430.4
35854.5
32655.3
41231.5
47246.6
43987.3
39701.6
28051.1
25437.2
24162.9
23357.7
28982
57404.1
58482
18623.7
20907
20035.6
64157.8
61617.6
59515.1
66408.5
65494.4
70263.3
70305.1
69549.9
68395.3
67865.6
89480.6
90991.8
92229.7
88036.3
86467.4
84925.7
83569.2
83038.8
81513.4
81073.1
94880.6
93399.8
79381.9
77941.8
79733.9
78110.6
77387.9
78448.3
75948.3
70802.3
73575.1
70064.5
70624
71351
70534.8
100171
101615
97810.1
97349.9
99468.9
98852.9
95767.4
96639
64043.8
60877.4
58767.9
56142.5
62387.6
70277.2
72122.3
68046.4
73529.3
76119.8
79053.5
66911.9
64711.6
89962.5
84615
88220.1
94177.7
82530.9
55168.9
49985.3
47424.4
52428.1
97438.6
54852.8
52263
49873.4
48321.6
37017.7
34506.4
31611.5
40916.9
39848.3
45246.1
42234.1
37721
25908.1
27787.8
23226.1
22646.4
21004.5
27609.3
56023.8
57207.3
18357.5
19485.3
63265.1
62056.8
60299.3
58151.3
66188.4
64484.1
69417.9
69421.2
68745.4
68004.5
66882.8
89803.7
88628.4
91621.7
90536
92744.3
86929.1
85468.9
83996.9
82856.7
82466.2
81049.7
79963.7
95452
94776.8
93792.6
78454.7
77363.4
78610.3
77064.3
75956.4
77541.4
77637.8
68445
72198
68667.3
70143.9
70521.3
70067.8
99985.2
100833
98218.4
97168.1
99381.2
98663.3
96327.2
59273.4
57623.7
55191.6
60966.9
69114.3
71331
67843
73539.7
75854.6
78418.5
65419
64063.8
91633.3
86024.2
87870.7
93092.8
81553.7
53188
44759.8
50639.4
48043.2
45438.5
98253.1
95218.9
53290.2
50643.1
48224.1
47408.8
35080.5
32639.8
29495.5
39244.4
38124.3
44765.5
41326.9
36869.8
24389
25425.4
21303.7
20614
19782.3
27915.5
25462.3
55913.6
57171.6
14272.2
16803.8
17487.7
63472.7
61263
59549.4
57669.7
65224
64472.1
68916
69081.1
68682.1
68375.7
67088
66482
89363.8
88566
92001.2
90945.8
92687
86422.1
85468.1
83673.7
82327.6
81668.4
79973.1
79059.4
95628.5
95268.9
94404.8
93546.9
76018.4
77831.1
75457.8
74985.2
77646.8
77571.2
67149.8
69003.7
75517.7
68546.8
69347.3
69350.8
99902.4
102002
98264.4
97458
99552.4
98915.8
96478.9
59337.2
57908.4
55995.6
53366.7
61101.1
69003.9
72341.4
70085.8
66744
74571.7
76823
79460.2
65485.2
62626
91243
85439.9
89527.7
93927.3
82251
52344.4
42736.7
49361.7
46794.4
44090.7
98928.6
95422.8
52882.7
49661.2
47245.9
45863.5
33492.3
31298.2
29341.2
37679.3
39487.9
37261.8
43349
41863.3
35206.8
22028.6
24480.7
19196.3
19128.1
17897.4
25531.7
24199.9
54858.5
55996.1
15153
16220.8
62607.4
61616.4
60052.1
58260.1
56269.9
64890.9
63529.6
68210.7
68896.6
68305.4
67965.4
67202.9
66640.3
65461.3
89510.3
87965.7
91561.5
90460.7
93111.3
86700.9
84748.9
84045.7
82633.9
81462.9
79821.4
79131.9
78090.2
96118.8
95441
94781.1
93867
75656.2
76554.9
73391.6
73459.7
77700.5
75409.9
64683.7
67308.8
74345.3
68112.1
68810.4
69018.7
100109
103158
100949
97968.5
98731.8
97248.3
99326.4
96872.2
57785.4
56508.8
55307
52574.1
59857.6
67587.5
72170
69802
66561.6
74473.8
75918.7
78756.5
64500.7
62437.6
92733.8
83746.3
86317.6
89677.4
81328.1
50341.1
38634.6
41374.6
47480.8
44861.4
42109.4
97045.7
94709.7
53761.4
51445.2
50114
47854.6
45414
44916.2
31542.9
33631.3
27807.8
36154.4
37976.6
35315.8
43458.1
40855.9
20958
22407.4
17252.7
17484.4
16413.5
25690.4
22653.6
55025.7
13652.7
11978.8
13978.4
62700.2
60908.4
59390.2
57512.5
55591.7
63801.4
67908.4
67850.1
68235.3
67157.6
66705.6
65531.4
64926.2
89348
87165.5
88340.7
92350.7
90450.6
93079.1
86250.8
84658.3
83052.4
82034.2
80670
78928
78065.9
77224
96258.1
95068
95925.7
94205.9
93641
73884.8
76381.6
72534.9
72097.1
72821.8
75980.9
63582.4
66729.4
81545.6
67794.3
68046.4
68123.1
68330.4
100341
102801
100794
98242.7
98941.6
97563.2
99617.4
96993.2
56343.4
57518.4
53739.5
50852
58468.2
60157.9
67414.3
70938.2
73318.3
68574.5
65259.6
76032.3
77272.7
79904.5
63308
61177.9
93159.6
83639.8
84971.9
88162.8
91727.1
82387.5
49635.8
36858.3
39582.3
46313.5
43674.1
40760.9
99650.5
95703.7
53009.8
51670.7
48809.7
46764.3
44305.4
29751
31689.9
27930
34391.3
36319
38088.5
33999.3
42076.6
39358.1
19006.3
21835.6
15555.7
16570.4
15863.5
14531.7
24396.6
21178
53797.3
10326.3
12487.2
61639.6
59890.3
58148.1
56189.4
54158.1
63278.7
67161.5
67217.5
67990.9
66741.5
65742.1
65087.7
63867.4
88944
87284.6
87344.2
91739.3
91026.9
90096.6
86328
85096
83800.7
82428.9
81225.4
80676.7
77989.8
78821.8
77107.5
96703.3
95346.6
96079.2
94338.6
93748.6
74481.9
75352
70718.9
62868.6
71814.6
73492.7
61700
65574.3
77371.3
67347.2
68336
67966.4
100057
100695
102335
100595
98688.6
98020
99456.9
97454.8
54788.7
55859.6
53340
49939
57990.5
59072.1
66319.6
70917.4
73055.1
68271
64660.7
74785.8
76701.3
79505.8
62573.6
61315.5
84826.6
88226.6
92238.6
82072
47871.3
36586.1
38233.6
44469.8
46505.1
41591.2
38639.9
101756
97590.4
93863.6
50630.2
49145.5
47285.7
45041.8
42493.2
29767.6
31974
25992
33081.4
34738.4
36208.8
41555.8
38663.5
17286
18938.9
20372.7
13789.1
14280.4
14456.7
12912
22454.8
20497.3
53277.3
8905.49
9843.76
10710.7
61445.1
59131.8
57901.4
55256
53260.6
62289.6
66825.1
66913.3
67329.7
65951.8
65396.5
64033.3
63298.6
89136.7
87567.3
91364.9
91450.4
89703.9
85733.4
84893
83750.8
82496.2
81011.1
79847.8
76867
77767.2
76161.3
96812.5
95495.5
95669.5
96479.4
95154
93315
73663.1
75298.4
68483.2
50609.3
72040.2
43532.5
63969.8
68384.4
90575.1
67139
67787.9
69870.3
67501.6
101301
101897
100519
99023.1
98227.6
99586.1
97668.5
54598.1
55618.5
51930.1
48014.2
50449.4
56778.8
59042.7
65164.8
66238.4
70108.8
71919.3
73666.8
67030.5
69039.8
63145.8
75233
77094.4
78273.1
80705.8
60301.1
83244
86290.2
89730.6
91570.5
33639.8
34784.6
43574.2
44803.6
40658.9
37252.2
99787.5
96821.5
94747.9
50523.6
47990
46130.5
43979.8
41562.7
27848.6
30550.1
25916.8
33272.9
31293.7
34654
36639.9
39641
15597.6
17230.9
13267.9
12061.5
13257.4
12430
11489.7
21005
21685.6
18295
51542
7246.84
8064.38
9397.33
60468.2
59007.7
57106.5
53850.2
55199.4
51644.2
61891.6
66132.4
66290.9
67158
65663.5
64553.4
63829.7
63319.3
62303.7
88346.8
87396.2
92171.3
92057.8
90027.3
89612.3
86123.3
84516.9
82789.9
83805
81491.4
82063.2
79911.2
76900.2
76068.2
77952.8
97241.9
95752.7
95952.2
96573.6
94555.4
94140.9
74008
74682
70591.8
62459.2
71916.4
40968.9
69207.7
64947.5
57678.6
88629.8
66922.9
67930.6
70561.6
101151
101381
102587
99971.3
99377.3
98901.2
98591
97958.6
97469.2
53028.3
54297.1
51808.2
46795.1
49330.4
56603.7
57819
64431.6
65124.7
70771.7
71777.2
72722.3
66653.9
68582.3
62533.2
74620.2
76073.3
78151.5
80407
60273.6
82685.8
86075
89721.4
92565.1
31957.6
34104.8
41916.9
44277.6
38824.1
35282.3
37474
100442
96340.9
93809.8
48715
46531.6
44548.3
42337
39826.7
27213.3
28303.1
24339.1
31605.3
30331.6
32713.4
35826.6
38852.2
15641.8
13914.8
16938
11405.6
10625.2
11354.7
9690.42
19120.7
22589
19477
17741.5
50791
6948.25
7821.45
60833.6
59510.1
57734.4
55938.8
52909.9
53684.9
50926
65875.3
65970.1
66622.3
64904.7
64350.2
63028.7
62320.1
61728.1
87954.3
87320.8
92589
92042.1
91224.3
89708
84895.9
84565
81379.8
83268.6
81093.8
80795.9
79646.7
76003
75048
76700.9
78774.3
97171.2
96171.9
96077.4
96999.1
95315.9
94259.6
73956.7
72923.4
68104.1
58442.6
71123.6
30048.8
66980.9
39459.8
76374.6
66537.1
66726.9
70767.7
63889.9
100925
101401
102817
99888.1
99656.1
99279.3
98654
98066
97837.1
52981.5
54068.2
50273.7
45111.9
47623.8
55215.9
57910.6
63309
64743.9
70378.4
72664.8
65501.5
67449.8
69262.9
61277.8
75031.7
73485
76184.5
77127.4
79142.8
81198.7
59106.2
83263.7
87103.6
84553.8
91459.7
88572.6
30511.6
31953.8
41318.9
42490.7
38323.2
34408.4
35675.4
103264
97967.7
97164.8
94728.9
48092.5
45239.9
43552
41312.2
39080.7
24947.4
27201
31156.2
28519.2
32322.9
34068.1
37068.1
13750.4
12708.5
14943
10542.7
9067.05
10431.5
7988.43
18370.7
21242.4
19205.2
16075.4
49146.1
5241.38
6254.47
60278.9
58738.2
57262.7
55382.2
51594.8
53189.1
49468.2
65202.8
65375.9
66168.6
64690.8
63560.5
62980.2
62233.9
61869.9
60761
88550.7
86499
93034.7
92596.1
91433
90353.5
88897
84339.7
83351.6
80533.8
83779.4
80114.6
80824.2
76081.4
75134.5
74560.4
76722.1
78734.4
97484.1
96364.8
95828.5
97093.3
97249.6
94337.6
93799
73021.1
71929.6
71908.5
103290
70554.4
35536.2
80914.5
46606.3
66011.1
66285.7
67809.6
64670.8
100437
101542
105743
101305
100205
99553.6
99236.2
98995.8
98420.5
97961.8
51754.2
52511.1
49669.2
43812
46874.2
55051.8
57103.5
62843.4
63600.3
70700.1
71584.5
65040.9
67285.3
69054.8
60955.1
74174.4
73253.7
75331.1
76746.6
79270
80557.3
59020.5
82220.3
86203.8
84877.3
91599.3
89076.6
28877.8
30451.9
31546.4
39574.4
42164.8
36467.4
32823.8
35178.9
101733
98370.2
96105.3
94165.9
46620.1
43830.3
45373.5
41980.7
39784.4
37508.3
23711.5
25118
29158.3
27796.5
30757.6
32973.1
33660.2
36481.6
13363.3
11158.5
14619.8
8681.47
7927.27
7860.37
8823.29
6176.86
16299.7
21761.6
17941.7
48542.9
4862.88
4443.06
59181.4
57714.5
56138.1
54155
50705.8
51871.1
49271.1
65031
65013.7
65850.5
63958.2
63369.5
62170.2
61617.7
60718.5
60179.7
87864.8
86084.2
93488.9
92548.9
90551.5
89527
84332
80973.7
80731.1
83152.5
79885
79720.1
75199.8
74585.8
73586.8
78128.1
76174.5
97433.7
97712.4
96580.1
95742.3
97573.6
95177.6
94403.1
72931.7
72036.6
71115.7
78509.8
103107
86915.1
63368.4
70693.5
54479.8
65376.8
67860.8
62478.7
70534.6
100893
100990
104222
100585
100022
99770.9
99527.5
99062
98514.6
98275.3
50383.6
51946.4
48006.3
43828.9
45244.1
56049
53866.8
57881.8
61737.6
63127.5
69881.2
71590
63799.7
65528.9
68241.6
66458.8
59846.6
74334.4
72398
75604
77294
78533.1
80923.4
82651.9
86681.5
84035.1
90401.5
92744.7
88124.8
27252.9
28270.9
29902.9
39132.6
40598.1
35964.4
32178.5
33256.6
100609
98571.5
97112.7
95249.1
46194.9
42606.2
44180.4
41425.5
38594.7
37126.9
23757.2
24443.3
28311.9
25777.9
31404.7
29201.6
31963.2
34825
11572.4
9779.68
12999.2
7846.62
6237.54
5879.03
8318.24
4243.8
15087
20522.2
18712
16233.7
47047
2902.08
3471.02
58668.9
56887.5
55868.6
53997.3
50834.2
51442
48318
64434.8
65188.6
64441.6
63893.2
62642.8
61985.8
60817
60289.2
59197.7
87812.8
87202.5
92851.3
92775.5
91299.6
91174.2
88330
84334.8
80692.2
82112.9
80641.4
83436.2
79095.8
74746.2
73636.5
73134.3
78133.7
75894.8
74872.4
97576.5
97896
97169.2
96591.7
96005.7
97442.6
96825.7
94193.6
93959.6
72018.5
71216.7
71677
89621.5
69199.4
59454.6
60379.9
65133.8
65808.7
62830.4
67358.5
100500
101190
101841
100535
100200
99708.2
99595.2
98850.1
99423.4
98426
49124.7
50346.8
52692.3
47646
42012.4
44980.1
55590.4
54336.9
57628.1
61393.2
62028.4
69924.3
70757.2
63447.8
64954.5
68164.6
66508.1
59594.3
73592.6
72096.6
74926.1
76695.5
78921.8
80093.9
81876.5
85743.8
84396.8
90954.5
92349.5
88520.5
26688.3
28155.3
30327.9
37389.6
40380.7
33924.4
32482.4
101473
100934
99518.4
96495
94592.5
44767.1
42104
42768.2
40207.5
38818.9
35722.3
21598.7
22455.8
26171.4
25046.8
30807.8
27893.8
31569
34429.1
9866.31
11532.3
12419.4
6169.08
4919.37
4399.96
6977.13
3023.53
15165.1
13199.8
17432.2
15806.7
46284.9
2907.02
3157.91
2824.02
57644.3
56819.3
54954.3
53083.5
49634.3
49995.5
51982
48535
46959.6
64523.4
63917
63321.8
62463.1
61250
60353.9
59334.4
58641
87816.3
86940.2
85854.9
93413.4
91772.6
90591.5
89263.4
84504.7
79165.6
81079.5
79438.7
83070.3
73600.2
73086.6
72444.2
77105.7
74898
74313.5
97626.1
98209.1
97191.6
97753.2
96422.9
96998.9
97191.7
94854
94537.5
71338.2
69797.6
68670.4
74615.8
70803
66637.3
63754.7
66567.3
65788.4
63168.1
64374.7
68729.2
100870
101245
102676
99839.2
100043
100293
100121
99987.4
98922.5
99537
98688.1
49092.1
50238.7
51666.6
46277.9
42053.2
43583.9
56418
53603
58521.8
60368.9
61350.5
69068.2
71026.5
64127.7
62600
65605.1
67289.5
72546.9
73888.9
74990.8
75698.5
77313.4
78323.9
80024.9
82283.8
80634.8
86212.4
83521
90091.2
93091.6
87636.6
24786.8
26320.5
29238.2
37043.6
38587.4
33647.1
30312.4
105963
102649
99226.3
97465.5
95062.1
44031.9
40482.1
41997
37556.1
35318.4
21002.1
21858.1
25230.2
23088.1
28846.1
26048.8
30144.7
32894.6
8171.09
9939.71
10442.6
5809.19
4955.6
3612.71
2851.3
6125.45
2822.05
13213.4
12116.1
17518.1
14203.1
44637
2921.29
2788.23
2778.59
57623.4
55595.6
54727.4
53560.5
49499.8
51124.9
47492.6
46400.1
64289.4
63375.8
63751
62750.7
61767.7
60536
61204.3
59353.4
58639.8
88024
87915.3
85308.9
94227.8
92190.8
91925.7
90574.6
89205.2
83502.5
78226.3
80370.6
81755.9
78257.4
73273.8
71998.2
71805.6
77717.5
74390.2
75696.2
73810.4
98083.6
98272.9
97765.3
97974.2
96042.3
97351.9
96938.9
95801.6
94327.2
95655
70591.6
68994.5
66983.9
62898.8
64735.4
60791.3
64892.1
63581.2
64401.2
66975.6
100634
101338
101899
100422
101686
100118
99126.2
99866.2
99337.1
98845.4
47405.6
48970.8
52088.9
46025.2
40828.2
43238.3
56179.4
54012.3
58270
60248.5
61634.2
68973.3
70517.9
63571.7
62677.5
65524.6
67254.6
72015.1
73260.9
74077.2
75269.9
76860
78873.2
81590.4
80127
85401
83512
90348.6
93041.2
88070.8
23450.9
23710
24190.9
27007.6
35347.5
38169
32016
29166.6
102540
100448
100097
97171.1
96132.9
94273.3
42664.8
39606.6
40670.1
38100.4
36105.6
33699.3
19102.9
20069.2
23357.6
22378.1
28082.4
24647.3
28872.9
29891
32600.3
8470.74
6561.2
9441.75
4007.09
3607.94
2789.73
2870.31
4330.22
2786.42
2790.31
12717.6
10419.8
15727.3
14074.7
43635.8
2722.47
2885.53
57046.5
55320.1
52923.8
48517.8
50062.2
51579.8
47082.5
45312.1
64573.7
63868
62876.7
63211.1
62378.5
61807.5
59872.4
60548.9
58825.6
57670
87388.2
88648.1
85942.4
84323.2
93446.4
93069.3
92038.1
90487.1
90184.9
83549.2
78861.3
78352.2
80285.7
81567.6
72877.3
71950.8
70700.1
77162.3
73650.5
76634
74796.8
73102
98120.2
98539.1
97774.2
96746.9
95917.6
97844.7
97020.1
95375.2
94310.6
94715.8
69557.8
66903.5
63604.7
60439.6
61529.1
62293.8
59709.5
64177.5
63518.2
66262.7
64531.1
100664
100873
100936
101576
101655
99995.4
100379
99076.8
99935.6
99485.1
98859.8
47385.5
48990.9
51314
44425.2
41702.4
39281.3
55139.8
57197.8
53235.3
59279.1
61082.7
69601.4
68064.9
71046.4
63630.4
61891
66443.8
64791.6
72404.3
73367.1
74269.2
75816.4
77455
78497.6
81845.1
80590.4
79077.3
85989
84258.8
82625.6
89276.7
91350.4
92388.3
87307.5
21620.1
21570.4
22183.8
25772.4
34974.4
36228
30057.7
32987.1
26884.9
101859
98852.3
98047.3
96420.1
94163.3
41659.5
39753.9
40366.1
37483.7
34959.1
33492.7
18763.5
19551.4
22590.2
20629.5
26373.1
23021.9
24898.3
27752.9
28306.7
30963.8
7089.72
5003.05
7544.83
3366.92
2985.23
2741.59
2735.45
3161.39
2741.73
2740.84
11152
9582.55
15637
12493.6
44027.7
41960.7
2699.42
3262.81
2697.86
56117.1
54253.4
53306
49092
47523.8
50909.9
45618.5
64147.1
63627.8
62821.7
62426
63214.9
61477.6
59169.3
59944.1
60475.1
57992.3
57262.9
86959.1
88325.3
86113.2
84186.9
94553.8
92825.5
91796.6
90020.2
82553.3
77606.3
78078.2
80477.4
81090.2
72469.3
71704.7
70670.3
74307.1
76681.5
75565.9
72595.5
98322.8
98819.7
97848.5
97196.8
96248.2
95643.2
98001.6
97560.2
95222.6
94686
69031.2
67234.1
61145.8
61743.1
63484
61748.9
64062.7
63911.3
65330.8
64236.7
100546
101019
102500
101774
101427
100222
100405
99324.5
99741.3
100128
99097.3
46195.6
47585.5
50022.4
52076.3
43937.4
41032.7
38533.3
55080.5
56977.7
53964.5
59000.5
60315.6
69119
68179.7
70731.9
62979.8
64086.8
61753.5
66386.3
64952.8
71962.2
72541.8
73701.7
75446.1
77084.9
81198.3
80105.9
78705.1
85561.2
83487.9
82635.5
89899.9
91068.3
93128
87262.9
20083.1
19948.9
22232.4
20046.4
23732.9
35764.7
28484.2
32474.8
25566.7
100490
99329.1
97446
95924.2
94866.1
38465.6
38967
36331
35130
32251.5
17089.2
17998.2
20992.4
19978.8
26376.9
21276
23297.7
27265.1
30763.5
6613.65
5543.75
3609.87
6942
3107.33
2737.64
2689.54
2777.41
2777.43
2693.91
9990.43
10491.9
7887.85
14075.2
12637.3
10949.4
42899.2
40894.7
2639.19
2663.34
2650.75
55713
54130.3
52571.7
48786.7
46438.8
49695.5
51542.3
44847.4
64075.6
63776.2
62320.7
61927.7
62980.3
60932.8
58673.6
59383.1
59787.3
57400.6
57919.9
56245.1
87421.1
88992.7
85917.7
84861.1
83210.1
94102.3
93724.8
91357.7
89830.4
82302.3
78766.2
77542.4
79481.8
80797.3
72005.7
70944
71765.7
69451.3
73614
76976.7
76024.7
75283.7
73140.9
98177.5
99130.8
97777
96994.4
96285.9
98152.4
98197.1
95520.8
95564.4
66765.2
62341
62981.5
63127.6
65477
62844.9
63838.3
64689
64917.8
100772
101087
103723
101487
101461
100279
100732
99356.1
99888.4
100200
99097.8
44787.4
46402.4
48018.8
49511.5
51539.5
42067
39408.6
36950.5
55870.1
57743.7
53622.8
59480.1
60225.1
69319.8
67619.6
71242.5
70017.2
63527
62291.9
60851.7
65635.2
66868.4
64298.9
72277.8
73767.9
72770.9
74457.5
76113.3
77722.9
80439.3
81721.8
79235.8
86329.8
84605.8
83640.3
89673.1
91833.8
92835.5
87847.8
18208.7
16938.7
18160.9
20167
18281
22849.6
34028.5
28988.6
26234.5
30807.9
23536.3
102430
99188.1
97699.1
96444.2
94514.1
37991.5
38474.9
36548.7
33788.5
32346.7
16852.2
17343.4
18218
25188
20742.9
21761.9
23610.3
25478.2
27755.4
29425.2
5354.6
4580.41
2814.22
5224.05
2714.68
2698.52
2640.61
2652.62
2669.95
2655.97
8470.48
8742.71
7325.4
14098.6
11235.8
9481.7
41427.5
43453.5
39385.3
2603.58
2616.55
2615.77
2571.08
54726.4
53168.9
47520.2
46514.1
45208
49249.7
51086.9
63890.4
63558.5
62254
61865.7
62575.2
63199.8
60785
58814.1
59306.6
59695.9
56456.5
57441.1
55805.4
86904
88566.5
86096.4
84687.8
83103.7
94310.5
95053.6
93153.4
91885.1
90495.9
81587.6
78099.6
79667.4
72948
70466.2
70880.1
69382
73152.7
77530.6
75894.9
73754.5
74242.7
98457.1
98972.4
97485.2
96858.8
96369.4
96215.9
98692.2
98540.9
98586.8
96612.6
95717.4
68222.6
63601.4
63739.8
65232.8
66960.9
64808.9
64006.1
64599
64818.4
101232
103048
101686
101344
101454
100448
100787
99600
100152
99782.8
100416
99427.2
44078
45104.4
47497.9
50251.8
52356.6
41643.2
38288
36633.4
55693.1
57467.5
54566.2
58883.5
59390.6
68661.2
67899.7
70855.1
70096
63546.7
61899.8
60960.4
65796.3
66503
64302.1
71391.9
72953.5
72438.1
74332.3
75830.4
77462.1
79783
81387.9
78997.9
86317.2
84597.9
82668.3
88707.7
90544.4
91554.6
93558.3
87235.3
16713.7
16584.3
20717.6
18389.5
16596.5
33819.9
27400.1
24609
30812.9
21990.1
100801
98825.6
98903.7
97358.1
95995
95070
36828.1
35462.6
33873
31077.2
15391.6
15689.4
17051.7
19133
20438.1
22315.5
24109.5
26609.1
29662.8
4568.82
3458.69
3097.87
2742.89
4878.34
4281.71
2666.34
2658.51
2607.38
2623.27
2825.12
2630.6
2605.61
7535.37
6108.42
12753.5
9756.95
11435.2
8047.75
40374.2
42868.3
38438.8
2554.67
2579.45
2536.48
54451
52861
47299.8
45451.9
44065.8
48099.5
50006.5
51818.9
63679.3
63878.4
61798.7
61322.3
62453.3
63073.4
60224.2
58337.6
58630.4
59166.4
56177.2
56701.8
57725.8
55002.1
87563.7
89057.2
85433.5
83886.5
82363.6
94431.9
95486.4
92593.3
94080.4
91701.4
90117.9
81547.2
78599.5
77357.2
79130.3
72228.6
70597.8
69997.1
70561.4
71961.6
76267
75093.7
72897.5
73227.1
98884
99325.4
98027.8
97696.2
97365.2
96423.8
98974.4
98822.7
98900.8
96084.2
96047.8
68257.5
64920.4
64548.6
66632
65684.7
65536.1
63950.1
64337.6
64831.7
101176
103050
101053
101771
101486
100636
101140
99496.5
100256
99982.8
100533
99307.7
42795.4
44607
48463.9
46246.6
49742
51882.6
40254.9
38649.9
35246.4
56511.8
58061
54334.2
58890.2
68957.6
67316.4
70848.5
69696.6
62902.2
62162.1
60562.8
65492.5
66640.2
64871.6
63694.5
71132.9
72569.4
71695.2
75043.8
73526.9
76032.6
76653.3
78220.1
79699.8
80342.4
81756.4
85556.1
83782
82880
92396.8
93279.4
15074.9
14233.2
14982.8
20102
16614.2
15225.5
32352.3
27717.8
25342.1
22350.4
29323
102279
98680.7
99521.8
97796.4
96242.2
94901.7
36339.6
35539.4
32535.6
31184.4
14780.6
17583
15327.4
19052.2
20656.8
22514
23978.4
25085.7
27115.3
28456.9
3252.37
2685.35
2641.86
2620.4
2664.01
3061.81
2629.29
2615.54
2560.62
2574.41
2561.61
2590.11
5972.74
5372.93
12405.2
8250.81
10070
6967.93
38918.3
40612.1
41703.4
37056.5
2537.7
2520.66
2509.63
53565.9
46173.9
45397.7
44235.2
47784.8
49615.9
51427.8
63549.5
63747.8
61349
61795.1
62079.9
62738.6
63293
60052.1
58250.3
58529.7
59403.2
55138.4
56522.1
57254.7
54595.5
82195.2
95242.2
95971.7
93007.5
94429.1
92295
80978.9
77874
76892.1
79566.9
71607.8
70395.8
69965.6
70231.2
71956.3
75807.9
75184.3
73188.2
99122.3
99169.1
97934.3
98809.9
97518.6
96687.5
96861.6
98934.6
98851.1
96610.5
69294.1
65680.3
65168.9
68275.5
67583.8
67363.8
64049.3
64421.8
64894.9
102289
101718
101501
101553
100777
101077
99774
100465
100202
99981.6
100729
99542.7
42222.1
45093.1
42960.8
47927.2
46534.4
50546.9
52322.1
40673.4
37316.9
34632.4
56661.2
57633.1
55317.1
53246.9
57936.4
59098.1
68614.2
67395.3
70101
63058.2