/*--------------------------------*- C++ -*----------------------------------*\
| =========                 |                                                 |
| \\      /  F ield         | OpenFOAM: The Open Source CFD Toolbox           |
|  \\    /   O peration     | Version:  v2012                                 |
|   \\  /    A nd           | Website:  www.openfoam.com                      |
|    \\/     M anipulation  |                                                 |
\*---------------------------------------------------------------------------*/
FoamFile
{
    version     2.0;
    format      ascii;
    class       surfaceScalarField;
    location    "1.8";
    object      phi;
}
// * * * * * * * * * * * * * * * * * * * * * * * * * * * * * * * * * * * * * //

dimensions      [0 3 -1 0 0 0 0];
oriented        oriented;


internalField   nonuniform List<scalar> 
21399
(
0.198774
0.707873
-0.686111
0.894124
0.741679
-0.0691408
0.661147
0.104695
0.760987
0.542719
0.362188
0.133526
0.607488
0.561389
0.80974
0.230009
0.485845
0.67528
-0.556671
0.914371
0.614748
-0.0036366
0.562343
0.298911
-0.388972
0.607776
0.76339
0.276004
0.397906
0.380304
0.540319
0.888663
0.410593
-0.125964
0.401456
0.170648
0.11217
0.484856
-0.0434018
0.809624
0.7726
-0.146301
0.69305
0.888835
0.242087
0.318126
0.0784466
0.484424
-0.359845
0.469482
0.42573
0.656993
0.0597889
0.710633
0.753903
0.565097
0.322124
0.388817
-0.148111
-0.380102
0.456408
0.119465
0.220412
0.247661
0.644075
-0.118571
0.775813
0.33963
0.368734
0.381553
0.372942
0.573774
0.660326
0.00703786
0.208179
0.299945
0.154598
0.418359
0.366324
-0.119394
0.56451
0.0768293
0.442572
0.387966
0.387721
0.749367
0.76044
-0.129895
0.702654
0.529248
-0.351273
0.358068
-0.143399
0.332265
-0.178225
0.40712
0.0105065
0.278933
0.351147
0.0146118
0.287266
0.427223
0.492278
-0.0503717
-0.357408
0.744316
0.301013
0.44708
0.426999
0.333077
0.712846
0.829175
0.411911
-0.0539598
0.13547
0.308617
0.0231624
0.233562
0.318755
-0.319572
0.334063
-0.0323202
0.462216
-0.0357475
0.134047
0.411262
0.439537
0.304002
0.872964
0.771622
-0.307392
1.01875
0.520678
-0.392008
0.337867
-0.17289
0.308249
-0.260163
0.283209
-0.0266671
0.296454
0.0220433
0.102403
0.358841
-0.0249649
0.263924
0.322827
-0.291584
0.425239
0.119304
-0.210909
0.514415
0.285277
0.586685
0.736421
0.0342629
0.741236
0.276191
0.804956
-0.0839097
0.331762
0.00600459
0.314155
-0.0311791
0.304967
0.336015
-0.165497
0.267782
0.133241
-0.365782
0.340622
-0.102002
-0.0312394
0.353843
0.571942
-0.147105
-0.295159
0.414137
0.360573
0.473616
0.0404083
-0.0629563
0.648562
0.672258
0.507294
0.756813
-0.368468
0.643878
0.435626
0.183751
0.277929
-0.27207
-0.231783
0.200479
0.0730883
0.233796
0.297313
-0.164153
0.296757
0.0436971
0.265373
0.0584171
0.266702
0.38002
-0.0197461
0.420127
0.105789
0.542023
0.55684
0.114517
-0.101103
0.607931
0.727564
0.0281381
0.760209
-0.117241
0.540801
0.358165
-0.174534
0.283195
-0.00535226
0.0859707
0.329443
-0.129095
-0.183378
0.256362
0.305137
-0.0715298
0.122695
0.109602
-0.250828
0.294355
0.219708
0.0455421
0.277972
0.443015
-0.176619
-0.30496
0.284946
0.432763
-0.0128825
0.0813882
0.459773
0.637229
-0.398727
0.512594
0.331397
0.208752
0.738994
0.787219
0.422875
0.0997339
-0.220432
0.215007
0.280756
-0.194877
0.294258
0.035033
0.127184
0.0541561
0.222587
0.300312
-0.177692
0.276517
-0.166976
0.218084
0.0761274
0.263484
0.428299
-0.15052
0.137804
0.251403
0.422681
-0.137993
0.409459
0.881806
0.718434
-0.0821282
0.659149
-0.147106
0.37308
-0.0418438
0.476954
-0.268549
0.0596703
0.678321
0.641127
0.144956
-0.203079
0.302724
0.0602429
0.0118452
0.10536
0.237811
-0.202885
-0.1151
0.242203
-0.244207
0.29822
-0.0217415
0.0987619
0.0748523
-0.213458
0.289434
0.112816
0.328311
-0.190697
0.372855
-0.121674
0.19009
0.287339
0.121922
0.467611
0.413225
0.243432
0.473948
0.576252
0.329385
0.104347
0.245394
0.699821
0.688237
0.611717
0.18754
0.204604
-0.14442
-0.200994
0.212754
0.293657
-0.188376
0.238644
-0.000936445
0.0392376
0.084615
0.216773
0.264097
-0.165399
0.269259
0.223416
0.0658775
0.336051
0.181938
-0.301479
0.179638
0.38457
-0.194749
-0.178554
0.300062
0.655749
0.667447
-0.194139
0.591659
-0.0160006
0.528413
-0.19949
-0.271889
0.376061
-0.0266245
0.630692
0.068265
-0.0747649
0.761938
0.0275351
0.583356
0.189854
-0.00239819
0.00355585
0.149177
-0.0465419
0.259225
0.0756496
-0.204124
0.203096
0.229017
0.284846
-0.200384
0.249456
-0.0327782
0.103798
-0.164736
0.230496
0.0344319
0.348067
-0.166332
0.322584
-0.143087
0.316128
0.0682555
0.153114
0.137326
0.273084
0.682352
0.596197
0.0705742
0.397029
-0.387727
0.371328
0.140336
-0.460184
0.260363
-0.0843815
0.555099
0.650814
0.770619
-0.213504
0.211006
-0.195464
0.198969
-0.0463443
-0.210509
0.163916
0.0456469
0.274273
-0.198695
0.0248076
0.212863
-0.00985292
0.119999
0.0489636
0.180009
0.195407
-0.0916547
0.271087
-0.0407181
0.305383
0.15608
0.162153
0.278314
-0.210197
0.328531
-0.175626
-0.180213
0.31732
0.330305
-0.0575596
0.0519006
0.629404
0.647125
-0.481731
0.551817
-0.085131
0.499484
-0.128485
0.434817
-0.294773
0.388133
-0.127994
0.245607
-0.400969
0.955124
0.248866
-0.178921
0.948514
0.184655
0.0262734
-0.0115989
-0.225564
0.179154
0.187215
-0.0233577
0.2328
0.0486443
-0.00333125
0.20938
-0.200055
0.190121
0.226322
-0.106426
-0.172239
0.221118
0.0077015
-0.237897
0.146208
-0.0150127
0.185488
0.294352
-0.138425
0.294752
-0.132761
0.0979482
0.11816
0.118574
0.247259
0.0698524
0.189418
0.877163
-0.105373
0.751629
0.650148
-0.0988885
0.413914
0.306009
0.0930814
-0.395766
0.267537
-0.150407
0.775276
0.714453
0.233068
-0.17123
0.197428
-0.212778
0.201118
-0.0336826
-0.16387
0.140458
0.0614993
-0.126934
0.175538
-0.154096
0.150738
0.0092467
0.188151
0.00189281
-0.229034
0.122514
-0.00800224
0.195775
-0.00791259
0.180026
-0.113797
0.29916
0.156186
-0.196913
0.0640681
0.277101
-0.17926
0.28386
-0.165833
0.288139
-0.169677
-0.179066
0.24883
0.312068
-0.122819
-0.00236883
0.878436
0.544048
0.748366
-0.521595
0.42224
-0.108089
0.477473
-0.171843
-0.305769
0.398598
-0.0384556
0.161412
0.532983
0.2412
0.724283
0.765322
0.187664
0.00969369
0.0371998
-0.163487
0.129766
0.221057
-0.080653
-0.141296
0.202728
-0.261773
0.1348
0.0120218
-0.111074
0.196835
-0.185087
0.186901
0.273434
-0.15101
-0.187345
0.17927
0.00835159
-0.192744
0.184798
-0.0127559
0.15953
0.102173
0.215669
-0.0595768
-0.168382
0.232385
0.0979304
0.104462
0.1222
0.045893
0.125924
0.396478
0.481052
0.76778
-0.22438
0.571287
0.176341
0.587036
-0.16524
0.368992
-0.348251
0.176143
0.0501195
0.21363
-0.252276
0.340557
-0.179308
0.636835
0.173144
0.550482
0.569398
0.194922
-0.146101
0.155737
0.179884
-0.142732
0.224483
-0.0947551
0.0797001
0.0991896
0.0565739
0.169016
-0.0342521
0.181006
0.0736872
0.0116761
0.174794
0.0120319
0.0281786
0.183066
-0.166285
0.15349
0.277412
-0.118012
-0.0662658
-0.248983
0.18931
-0.0167022
0.25813
-0.160294
0.249489
-0.145119
0.260509
-0.138407
-0.123746
0.169572
0.299524
-0.173723
-0.104597
0.584973
0.413834
0.353231
0.362172
0.466039
0.589576
-0.471933
0.306338
-0.103293
-0.217059
0.393011
0.284491
-0.234536
0.357153
-0.143667
0.0881218
0.120091
0.577809
0.0583013
0.741846
0.556149
0.771794
-0.00925929
0.599372
0.0236224
0.514307
0.198598
-0.0429246
0.0817053
0.0862145
-0.117174
0.196821
0.200805
-0.101667
0.184233
-0.127716
-0.166572
0.132281
0.213654
-0.140013
0.210193
-0.164522
0.176479
-0.177337
0.20542
0.00565338
0.189265
-0.0358061
0.211035
-0.201372
0.0832596
0.0655002
-0.16337
0.14659
0.0843115
0.0890977
0.115301
-0.240798
0.102298
-0.0712992
0.642617
0.667295
-0.3146
0.557378
-0.195602
-0.294262
0.759681
0.294715
0.548036
-0.242035
-0.387342
0.283782
0.0672907
0.00545314
0.122448
-0.265101
0.121318
-0.177097
0.290406
-0.170439
0.125292
0.615843
0.680882
0.759202
0.0117215
0.602327
0.0695158
0.530352
0.492969
0.59708
0.517311
0.141244
0.20472
-0.123062
0.195303
-0.109138
0.0835821
0.0690413
0.103003
0.0470494
0.203255
-0.0710063
0.0492208
0.0455954
0.168214
0.00819499
0.00396892
0.173791
-0.152704
0.116877
0.0475802
-0.113862
0.197055
0.17828
-0.112849
0.225945
-0.0794324
0.292912
-0.208726
0.208626
-0.119607
0.232267
-0.117052
0.245502
-0.143292
0.106917
-0.110681
0.752445
0.346014
0.320813
0.242309
0.352062
0.648117
0.640206
-0.360505
0.118248
-0.0769022
0.260151
-0.192983
-0.291917
0.29721
0.313252
-0.190937
0.294727
-0.173534
0.113176
0.122345
-0.108656
0.723634
0.685603
0.649698
0.763367
0.00245839
0.600447
-0.40595
0.475833
0.0173782
0.513551
0.0872439
0.600142
-0.000675472
0.51869
0.211634
-0.0704655
0.0721934
0.0940779
-0.124393
0.207921
-0.118553
0.187533
0.150639
-0.0476732
0.195447
-0.148434
0.124407
-0.156339
0.205531
-0.139071
0.184592
-0.128056
0.136195
-0.190076
0.193971
-0.016363
-0.0118126
-0.0394857
0.179542
-0.132046
0.0800517
0.251439
-0.0544628
0.113012
0.100042
-0.000188868
0.112582
0.128351
-0.181215
0.0378514
-0.0743612
0.534973
-0.214542
0.448078
-0.206043
0.500248
-0.148497
0.738402
-0.0909873
-0.0782827
0.717913
0.408765
-0.290701
-0.333183
0.256129
-0.0318866
0.120153
-0.0361313
0.103657
-0.266763
0.0931095
-0.153708
0.25157
-0.129349
0.144781
0.578288
0.82964
-0.0552184
0.704164
0.584973
0.177675
0.618487
0.445193
0.0308749
-0.164887
0.678966
0.282756
0.0204087
0.370156
0.266801
0.00719543
0.600134
0.519627
0.0724985
-0.149806
0.079296
-0.0897745
0.161934
0.193403
-0.0993627
0.02621
0.0893228
0.0376857
-0.169916
0.122209
0.0570589
0.156617
-0.0322429
0.0564847
0.194385
-0.0582475
0.177939
0.139766
0.127936
-0.138552
0.099045
0.119293
0.170374
-0.0903886
0.115852
0.190192
-0.077251
0.194975
-0.0950126
-0.197718
0.197436
-0.0852149
0.210378
-0.0821212
-0.176441
0.214215
0.115766
0.456267
-0.479321
0.264472
-0.0314772
0.293977
-0.448829
0.300061
0.455318
0.282421
0.626309
-0.0402981
-0.0347131
-0.299646
0.26763
-0.179614
-0.300375
0.2641
0.283632
-0.180098
0.256695
-0.163696
0.0977441
-0.298346
0.168864
-0.0132486
0.590956
0.124721
0.704234
0.52915
0.690239
0.632391
-0.0485373
0.667634
0.28059
-0.372297
0.403385
0.261884
0.417727
0.287335
-0.00194698
0.270412
0.552155
-0.0802383
0.600758
0.200734
-0.128297
0.169672
-0.0904117
0.103598
-0.00801138
0.0572239
-0.128478
0.154654
0.189007
-0.0997323
0.119303
-0.0816445
-0.00629565
-0.138948
0.195972
-0.170571
0.138302
0.154822
-0.0983872
0.0965219
0.171619
0.00625486
-0.0106324
0.193944
-0.0949194
0.206256
-0.0870396
0.0811696
0.21403
-0.0982573
0.117646
0.111159
-0.101036
0.125069
-0.184545
0.102343
-0.0607426
0.0295899
0.734409
-0.278592
0.609269
-0.345058
-0.40829
0.376637
-0.114517
0.462161
-0.16235
-0.455839
0.737776
0.169911
-0.402573
0.362073
-0.306555
0.271687
-0.0329025
0.103869
-0.0425952
0.0764778
-0.243689
0.0798881
-0.146048
0.206234
-0.037455
0.715156
0.707702
-0.239801
0.768305
0.0425043
0.647113
0.391955
0.363434
0.304832
-0.225364
0.506195
0.178222
-0.35037
0.612708
0.78204
0.303509
-0.0160514
0.301725
0.269706
0.000802162
0.472606
0.600538
0.102284
0.0413275
0.0288647
0.145444
-0.0418769
0.137407
-0.117986
0.175182
0.166929
-0.0123102
0.107329
0.0671601
-0.147276
0.140947
0.0549683
0.0253697
0.0202928
0.193511
-0.0970526
-0.148295
0.154494
0.158212
-0.0525033
0.147565
0.0526303
0.126904
0.181559
-0.100442
0.0832314
0.187634
-0.0700602
0.204887
-0.0938133
-0.233521
0.132375
-0.108545
0.210768
-0.108492
0.126808
0.173154
-0.143632
0.478078
0.255806
0.330283
0.0313391
0.347382
-0.321138
0.158621
0.473633
0.263584
0.647458
-0.131061
0.0407816
0.246338
-0.279388
0.304715
-0.200986
-0.288509
0.245787
0.264328
-0.187966
0.23329
-0.153497
0.0601082
0.138799
-0.17632
0.0569253
0.657586
0.0318682
0.675144
0.81011
0.703438
0.864944
0.778119
0.156111
-0.217845
0.39628
0.630829
-0.0177198
0.381105
0.401759
0.253758
0.38287
-0.0809924
0.244764
0.0384296
0.245651
0.425971
0.175329
0.150538
-0.048303
0.169257
-0.127976
-0.110465
0.139298
-0.149385
0.107479
-0.00989951
0.0257705
-0.1455
0.133163
-0.00316559
-0.131401
0.198526
-0.00458651
0.174772
-0.119816
-0.140776
0.166125
-0.132304
0.152571
0.045153
0.0534404
0.0540007
0.0910468
0.163887
-0.111267
0.171296
-0.044466
0.187023
-0.103858
0.134744
0.0774061
0.256761
-0.124487
0.102134
0.0645981
0.185126
-0.0583891
0.0414283
0.6193
-0.363845
0.595749
-0.265794
-0.428196
0.459256
-0.0810547
0.343856
-0.185349
-0.536454
0.79949
0.110458
-0.277355
0.14617
0.315635
-0.274986
-0.0422882
0.0251865
0.0632263
-0.0316637
0.0452185
-0.231236
0.0776419
-0.171206
-0.0324699
0.0803578
0.688829
0.676677
0.468659
0.340888
0.092276
0.610547
0.671588
0.192764
0.361946
0.417039
-0.301879
0.458246
0.165182
0.0945953
0.311463
0.319799
-0.307568
0.290056
0.743869
0.713885
0.294423
-0.0405662
0.213534
0.253521
0.248315
-0.00258534
0.425845
0.593105
-0.173955
0.125606
-0.00474812
0.0112828
0.169289
-0.0618402
0.159354
-0.141157
0.166902
0.00172981
-0.123453
0.120253
0.0750378
-0.134132
0.12951
0.0339823
0.04406
0.0338013
0.0113849
0.157179
-0.112078
-0.120144
0.173536
0.183697
-0.129764
0.172413
-0.0813692
0.0611445
-0.141292
0.0967721
0.0456819
0.0797789
0.171704
-0.0370351
0.174499
-0.0971572
-0.237056
0.112468
-0.13502
0.185682
-0.121157
0.113255
0.189018
-0.147653
0.440665
0.178332
0.231585
-0.56321
0.297134
-0.104228
-0.427044
0.345775
-0.0833312
0.130186
0.441512
0.357421
0.550753
0.331776
-0.185707
-0.282475
0.00740271
0.221465
-0.263856
0.21141
-0.186313
0.313358
-0.25026
0.254249
-0.286011
0.231831
-0.186711
0.193631
-0.116068
-0.198655
0.166099
-0.118375
0.015505
0.672727
0.0297437
0.64637
0.560491
-0.245249
0.585626
0.6255
0.42582
0.633888
0.150871
0.33463
-0.169327
-0.213126
0.307856
-0.219882
0.540001
0.43491
-0.144674
0.479905
0.264725
0.54477
0.169654
0.207825
0.317856
-0.104224
0.183546
0.0700268
0.181014
-0.146234
0.572817
0.447597
0.00542002
0.144022
-0.148813
-0.135054
0.146299
0.105031
0.0251865
-0.140853
0.142545
-0.0148307
0.134389
-0.0593825
-0.0113775
0.179623
-0.145639
0.132367
-0.0883056
-0.126425
0.160216
-0.11362
0.124988
0.0273552
0.0614055
0.0711768
0.170993
-0.109838
0.143723
-0.0469862
0.158126
-0.112489
0.1403
-0.060571
-0.142887
0.10579
0.0315581
0.0465238
0.207815
-0.0954406
0.0505734
0.0677844
-0.0344598
-0.469061
0.647122
0.513574
-0.282216
0.529802
-0.232897
-0.529605
0.42514
-0.184045
-0.29597
0.212526
-0.165887
0.701137
-0.344173
-0.196402
0.746813
0.0492237
0.0684493
-0.252792
0.260128
-0.0646555
-0.0525293
0.126938
-0.0185428
0.00684766
-0.230172
0.11403
-0.0641668
0.0893435
0.701914
0.646289
-0.0742137
0.634257
0.510993
-0.0256172
0.650506
-0.321196
0.746594
0.312261
0.342153
-0.191124
0.121604
0.148629
0.375207
-0.0672355
0.215283
0.264857
0.275418
0.197621
-0.0927292
0.573207
0.713128
0.452546
0.43481
0.240375
-0.0324883
0.136213
0.285214
-0.154314
0.224392
0.25084
-0.0697713
0.571114
-0.157054
0.162417
-0.0130808
-0.00255207
0.182471
-0.0774787
-0.118646
0.143798
0.17164
-0.0291329
0.119527
0.112216
-0.11101
0.0996074
0.0531983
-0.0132699
0.0826957
0.0465857
0.171947
-0.0469776
-0.119156
0.146458
0.12265
-0.0612819
0.152394
-0.0812044
0.042569
0.111101
0.0277638
-0.168507
0.107888
0.153868
-0.0481279
0.15576
-0.124252
-0.104313
0.150797
0.121992
-0.217521
0.173324
-0.122823
0.176836
-0.109126
0.119334
0.0442517
0.450422
0.24738
-0.434205
0.201142
-0.00923941
-0.438717
0.254473
-0.226333
-0.29346
0.127476
0.371054
0.329753
0.402194
-0.203628
0.269686
-0.201336
-0.0334198
-0.256562
0.191806
-0.222961
0.170359
-0.0961078
-0.170824
0.152199
-0.201296
0.208065
-0.0873387
0.10326
-0.167489
0.190137
-0.100869
0.107977
0.593424
0.0650809
0.580726
0.608095
-0.177751
0.68831
0.757936
0.568369
0.682953
0.184235
0.304847
-0.183143
0.300987
-0.152265
0.237709
0.41907
-0.203578
-0.0615991
0.337222
0.385814
-0.18803
0.344789
0.228938
0.279649
0.434068
0.459059
-0.00607338
-0.0335703
0.468664
0.218413
0.308498
-0.172217
0.130957
0.154674
0.0566492
0.515288
0.136865
0.0255145
0.107938
-0.121056
-0.154775
0.152181
0.0637926
0.0944439
0.032764
-0.159367
0.130199
-0.0352907
0.153023
-0.0408436
-0.0597862
0.149936
-0.0967286
-0.124535
0.111279
-0.0418261
0.150435
-0.103853
0.103455
0.00346277
-0.0220998
0.0755528
0.0433418
0.151737
-0.109135
0.00674388
-0.139085
0.166795
-0.0312436
0.107575
0.0264867
0.190688
-0.0687642
-0.0442626
0.0539561
-0.178601
0.0694071
-0.0593331
-0.52952
0.57354
-0.163887
0.614033
-0.282328
0.499186
-0.298195
0.394588
-0.40397
0.483625
-0.229323
-0.338238
0.111777
-0.210845
0.700817
-0.371416
-0.253512
0.655389
0.0659629
-0.300287
0.0988548
0.257718
-0.291219
-0.0862877
-0.108573
0.160931
-0.257135
0.0371705
0.238763
-0.0866334
-0.202301
0.11488
-0.0990949
0.0225913
0.0897565
0.658029
0.579726
-0.159108
0.766695
0.528782
0.438068
0.319398
-0.0295746
0.597499
0.0631339
0.619481
0.332483
-0.148133
0.11795
0.156319
0.279982
-0.042182
0.351916
0.0673411
0.182409
0.290526
0.303873
0.144585
0.624979
0.688524
0.491323
0.463025
0.0462642
0.250185
-0.119171
-0.110031
0.26477
0.507889
0.128887
-0.103405
0.170637
-0.0627358
0.0310888
0.150915
-0.087148
0.151207
-0.0567839
0.122648
-0.0899075
0.149489
-0.0193252
0.117691
0.10861
0.0628364
0.0460902
-0.164405
0.0676948
-0.0531079
-0.131245
0.0894452
0.159772
-0.056326
-0.116681
0.120115
-0.142229
0.120088
-0.0411525
0.0906337
0.0140967
0.134
0.0205154
0.0248933
-0.132108
0.138791
0.034626
-0.138822
0.107527
0.152753
-0.045242
-0.116469
0.142897
0.106077
-0.174904
-0.189296
0.144967
-0.135406
0.141302
-0.0719428
0.0933633
0.599193
-0.0259391
0.435061
0.360249
0.216641
0.0962451
0.0794841
0.114944
-0.344359
0.356744
-0.245065
0.0467903
0.763637
0.283576
0.28665
-0.220775
0.222379
-0.123584
-0.00466587
-0.244485
0.158136
-0.261908
0.153256
-0.0836121
-0.0184474
0.209465
-0.172383
0.122767
0.24049
-0.125701
-0.150017
0.0508721
-0.127471
0.156218
-0.0665061
0.155221
0.50249
-0.0371113
0.616398
0.340314
0.425888
-0.0942366
0.622674
0.592981
0.659273
0.589523
0.502947
0.131935
0.287696
-0.16965
0.264977
-0.108578
-0.268866
0.226765
-0.277912
0.3454
0.278296
-0.0957706
-0.023255
0.313932
-0.0845418
0.388644
0.283231
-0.138552
0.111895
0.513586
0.234138
0.454933
0.603714
-0.146339
0.609753
-0.162979
0.20931
0.259158
0.140204
0.140035
0.101842
-0.141099
0.649779
0.0877052
0.067189
-0.123941
0.0611759
-0.0928864
0.0609838
0.0640379
0.10298
0.122267
-0.141625
0.163
-0.0453489
0.152506
-0.0439322
0.123316
-0.0605031
-0.0752883
0.121389
0.146785
-0.0790669
-0.140692
0.0876156
-0.0512208
-0.142211
0.0858939
-0.0221505
-0.0187761
0.138408
0.150109
-0.129541
-0.0840296
0.108963
0.0222708
0.142216
-0.107645
0.16451
-0.057033
-0.148977
0.103673
-0.00613565
0.176878
-0.0708588
-0.0300103
0.0058383
-0.149814
0.0778245
-0.0565023
0.393741
-0.419832
0.59184
-0.156986
-0.199266
0.559328
0.671541
-0.455094
0.408209
-0.31208
0.466767
-0.387406
0.378956
-0.264083
0.0122999
-0.342384
0.0972232
-0.295687
0.487074
0.276264
-0.431544
0.714836
0.00154281
-0.252333
0.128692
0.242843
-0.247587
-0.103845
-0.0991461
-0.220956
0.137348
-0.189807
0.171291
0.0680049
-0.0671144
-0.200229
0.0744507
-0.149417
0.0287029
0.110323
0.465055
0.610998
-0.311356
0.736806
0.310934
0.216478
0.376208
0.275249
0.383661
-0.00564549
0.594834
0.500167
0.0024423
-0.186866
0.318889
0.0189171
0.0953994
-0.26412
0.155607
0.0399757
0.000494071
0.236479
0.109031
-0.284787
0.189109
0.213334
0.229563
0.242565
-0.00146822
0.180424
-0.0257832
0.539929
-0.319633
0.554225
0.429623
0.463203
0.290609
-0.0547535
0.246174
-0.105921
0.226757
-0.0866795
0.217027
-0.115139
0.360154
0.290464
0.142187
-0.0545221
0.154886
-0.0877412
0.143613
-0.0824722
0.0700752
0.146529
-0.0855693
0.130075
-0.0660537
0.113807
-0.0108343
0.115026
0.00721678
-0.0183333
0.107122
0.0710687
0.0860071
0.0715145
-0.0208148
-0.149288
0.0702584
-0.0616319
0.0989396
0.135539
-0.0496385
0.119997
-0.125432
0.106616
0.0544271
-0.0205289
-0.108853
0.131075
0.0333185
0.0568155
-0.123741
0.0666749
0.146036
-0.0424125
-0.123404
0.117223
0.0799466
-0.150858
0.0979006
-0.127963
-0.129148
0.134931
-0.0513656
0.0894847
0.553558
-0.15997
0.251525
0.392409
0.396403
0.127606
-0.0470242
0.154555
-0.00856328
-0.238858
-0.0252788
-0.226608
0.323566
-0.226428
-0.0529297
0.481198
0.595758
-0.319765
0.748897
-0.0343611
-0.238091
0.239575
-0.109455
-0.00809042
-0.266478
0.162559
-0.229042
0.129834
-0.0496785
-0.12919
-0.145852
0.213688
-0.184305
0.117101
0.218586
-0.1442
-0.146642
-0.00283277
-0.117979
-0.00769929
0.681242
-0.273025
0.883524
0.191355
0.545115
0.810744
0.651126
0.57473
0.596927
0.219398
-0.200414
0.206755
-0.111304
0.236616
-0.0809568
-0.233271
0.273344
-0.23241
0.232996
0.247861
-0.138735
-0.0432272
-0.0631611
0.276589
-0.0850265
0.314713
-0.235605
0.478424
-0.237238
0.235845
-0.0567257
0.0878077
0.45251
0.11979
0.434913
0.549863
0.551434
-0.243123
0.534049
0.162317
0.228644
-0.0805128
0.13108
0.120878
0.142003
0.355503
-0.32983
0.620869
0.100314
0.0558317
-0.134197
0.051693
-0.0641533
0.0444899
0.0477453
-0.116746
0.105914
-0.1015
0.108696
-0.0934706
0.0751215
0.109982
-0.00288436
-0.0815823
0.152625
-0.00747888
0.118323
-0.0467886
0.0975284
0.162908
-0.0925866
-0.111457
0.0498693
-0.012467
0.018799
-0.119833
0.0702095
-0.00547646
-0.0171568
0.117487
0.108454
-0.0539621
0.0879958
0.00762788
0.126908
-0.0936315
0.146133
-0.0893606
0.141097
-0.0744593
-0.120082
0.0776302
-0.00289279
-0.0563739
0.136284
-0.0529967
-0.194365
0.0663533
-0.0594917
-0.150883
0.099464
-0.0614449
-0.483141
0.32305
-0.231749
0.473179
-0.0809108
0.627863
-0.231644
0.600653
-0.430663
0.383521
-0.276205
0.325721
-0.334365
0.274933
-0.300271
0.0968956
0.13513
-0.361644
0.2208
-0.273807
-0.113145
0.594121
0.482402
0.428837
-0.481671
0.447177
-0.227588
0.118056
0.18661
-0.19475
-0.0665439
-0.0978182
-0.223471
0.173848
-0.159156
0.0300137
0.0726565
0.029269
-0.106335
0.0216371
-0.165887
0.13703
-0.139918
-0.137593
0.129843
0.407849
0.647134
0.235942
0.131307
0.413489
0.503966
0.306337
0.3113
0.339496
0.264046
0.31041
-0.0897961
0.686398
-0.0138
0.00639019
0.125355
-0.228987
0.148079
0.234497
0.0389337
0.311403
-0.0783
0.184791
0.172787
-0.196072
0.152911
0.191668
0.0792645
0.235563
0.0398466
0.177862
0.0436081
0.409307
-0.085583
0.520842
0.594015
0.222052
0.382314
0.151963
-0.0666178
0.149797
0.237889
-0.106759
0.204208
-0.0832893
0.220669
-0.0786276
0.344595
0.332931
0.288496
0.126267
-0.0259904
0.141504
-0.0857139
0.130512
-0.0788509
0.0458055
-0.0904806
0.134957
-0.0707602
0.118502
0.0351564
-0.136794
0.0352709
0.0270942
-0.0616905
-0.0891566
0.0862536
0.0634443
-0.110645
0.103152
0.116179
-0.0222854
-0.123201
0.0306881
-0.0732769
0.0953865
-0.107786
-0.12371
0.142529
-0.0534776
-0.0958886
0.0903782
0.113501
-0.130697
0.0635949
0.147066
-0.0589784
-0.0929601
0.100553
0.0339142
0.0524595
0.0516955
0.0390006
0.14182
-0.0642265
-0.121449
0.11852
-0.137838
0.0814325
-0.00134579
-0.138577
0.0855425
-0.0722611
-0.158512
0.0989728
-0.0590983
0.0803284
0.581982
-0.259046
-0.47396
0.242116
0.546782
0.350198
0.118845
0.501474
-0.118045
-0.435461
0.159158
-0.109819
-0.0595039
-0.203429
0.318061
-0.182985
-0.140918
-0.0872452
0.504085
-0.143011
0.625204
0.744378
-0.315771
0.5891
-0.142031
0.268065
-0.150057
0.0732639
0.154625
-0.221213
-0.178444
0.0805744
0.0147286
0.210284
-0.180223
0.174993
-0.102675
0.170698
-0.141691
0.0641155
-0.130734
0.152325
-0.0288987
-0.0101159
0.718828
0.635874
-0.384032
0.619719
0.634918
0.677286
-0.286644
0.592712
0.649597
0.399497
-0.204183
0.190446
-0.175563
0.181997
-0.0501685
0.220722
-0.0725906
-0.12872
0.167705
-0.265324
0.18712
-0.0729156
0.257797
0.285124
-0.112235
-0.112342
0.266307
-0.0745326
0.345718
-0.208475
0.444273
0.204447
-0.164533
0.217976
-0.0400537
0.631774
0.296939
0.0219889
0.499203
0.0894364
0.505199
-0.207289
0.359423
0.171322
0.0309414
0.159965
0.206665
-0.0568389
0.0974949
0.137414
0.128067
0.678262
-0.38789
0.676909
0.0303511
-0.121179
0.0951538
0.0202863
0.0447666
-0.136314
0.0574325
-0.0905335
0.0280161
0.0242977
-0.0700847
0.105246
-0.074485
0.109737
-0.0954509
0.122521
0.0414482
-0.00429781
0.0946163
-0.0311919
0.107248
0.00897804
0.0849947
-0.0906508
0.121425
0.0221649
0.039363
0.0724629
-0.0731366
0.0196786
-0.0403526
-0.076471
0.140153
0.0258481
0.0812701
-0.0209316
0.129501
-0.0956266
0.108733
-0.0563055
0.14683
-0.095186
0.117456
-0.078507
0.0542537
-0.052335
0.12198
-0.0405793
0.120603
-0.156035
0.083728
-0.0571112
-0.164968
0.105815
-0.0846953
-0.523458
0.264318
0.0274384
-0.281414
0.552449
-0.00589428
0.709297
-0.359205
0.671162
0.284783
-0.402874
0.525384
-0.366293
0.30535
-0.415232
0.245589
-0.305157
0.114564
-0.313295
0.130257
0.133731
-0.274706
-0.219491
0.132206
-0.103347
0.607218
0.60115
0.521671
0.273165
0.529016
-0.220326
0.0701877
-0.146261
-0.0238647
-0.0109009
-0.139827
-0.16545
0.0330084
-0.187342
0.0847053
0.231449
-0.166428
-0.115107
-0.01567
-0.0350093
-0.144049
-0.135897
0.12574
0.33453
0.010909
0.624566
0.612409
0.00704654
0.476038
0.158516
0.284702
0.392293
0.491164
0.101314
0.302929
0.346308
-0.149614
0.548883
-0.0221328
0.236204
-0.0456993
0.170605
-0.182518
0.109968
0.107532
0.187859
-0.0201112
0.249997
-0.0627861
0.21231
0.183377
0.137859
0.0921702
0.346296
-0.000436443
0.137987
0.237208
0.0535042
0.14785
0.244393
0.395833
-0.09872
0.418076
0.589196
0.750147
0.260887
-0.0111539
0.146296
0.103147
-0.0860454
0.183575
0.201635
-0.0641887
0.21736
-0.0892603
0.471845
0.206948
0.409286
0.268122
-0.0883547
0.118674
0.00676348
0.10932
-0.0890671
0.117892
-0.0731551
0.11958
-0.0621773
-0.0869527
0.11497
-0.101731
0.126022
0.0182975
-0.112428
0.0379274
0.0142666
0.10978
0.0127221
-0.0709957
0.0902978
0.0785673
-0.0920101
0.101063
0.0118759
-0.10916
0.0185747
0.140107
-0.0186029
-0.086918
0.102765
-0.0633337
0.092808
-0.0203249
-0.0839832
0.103701
0.0782804
-0.0936096
0.119561
0.124243
-0.0428727
0.108523
0.0130661
0.0904813
0.0222166
-0.130891
0.0523332
0.117813
-0.0636068
-0.137985
0.0856086
-0.138262
0.0976431
-0.0153307
-0.0542995
-0.153454
0.0962934
-0.0476937
0.0330702
0.56487
-0.300614
0.467722
-0.440331
0.186237
-0.473172
0.46718
0.236022
0.205598
-0.155599
0.122441
-0.0610054
-0.169704
-0.259915
-0.0452898
-0.145392
-0.179611
0.316526
-0.186319
-0.14255
0.457369
0.0508843
0.550054
-0.0196164
0.541143
-0.434903
0.707935
0.0939692
0.260667
-0.190504
0.114356
0.154219
-0.178124
0.190165
-0.201095
0.0143473
0.0667748
0.165003
-0.13363
0.148127
-0.0636023
-0.00200157
-0.144325
0.128582
-0.156792
0.12172
-0.018353
0.637171
0.622955
0.617761
0.643955
0.760422
0.649373
0.738298
0.649989
-0.191828
0.169744
-0.194905
0.149251
-0.0211721
-0.111581
0.221588
0.165592
-0.0580224
0.145521
-0.192246
0.129524
0.008313
0.204066
-0.089752
0.273217
-0.134107
0.272049
0.232497
-0.140253
-0.285136
0.284817
-0.199125
0.337232
-0.14705
0.384438
-0.171372
0.224934
-0.0234741
-0.199843
0.618229
-0.112737
0.702439
0.393179
0.357524
-0.155798
0.416881
-0.193704
0.182589
0.106414
0.039898
0.209585
0.115617
-0.0100927
0.153203
0.120356
0.457903
0.616656
0.661756
-0.0845558
0.0912858
0.0247379
0.028797
0.0463985
-0.128816
0.0666129
0.0132394
0.0550183
0.111118
0.0910731
-0.0531574
-0.0898079
0.104059
-0.106973
0.119675
-0.0385424
-0.0365366
0.115087
0.048175
0.0720728
0.0290524
0.0927918
-0.0741563
-0.102879
0.0843462
0.0159054
0.060981
-0.110075
0.0897918
0.118073
-0.0143324
-0.0526637
0.0263528
0.106218
0.0134242
0.0634274
0.111267
-0.00278567
-0.0726053
0.0856394
0.0178447
-0.0763879
0.0985617
0.114734
-0.0624408
0.0476211
-0.0526936
0.14793
-0.0503308
0.132555
-0.142649
0.0883049
-0.046403
0.106484
-0.154235
0.108422
-0.0753907
-0.494011
0.193354
-0.307816
0.619214
-0.152109
0.612164
-0.376188
0.59249
-0.38692
-0.405701
0.250051
-0.283303
-0.340326
0.279292
-0.278
0.10826
0.19209
-0.237409
0.171093
0.106706
-0.286373
-0.286558
0.100189
-0.218175
0.0755784
-0.220099
0.677273
-0.630815
0.681533
0.530314
0.320908
0.0769253
-0.598265
0.692123
-0.183357
-0.00718846
-0.103868
0.0120593
-0.220693
0.0181552
-0.169114
-0.157099
0.0141696
-0.166233
0.102781
0.158172
-0.157469
-0.119593
-0.024785
-0.0282629
-0.0444286
-0.137975
0.0621499
0.560585
-0.101425
0.718762
0.563319
0.0802883
0.307842
0.452265
0.650977
-0.00189388
0.468365
0.269674
0.467926
0.181862
-0.0251139
0.191841
-0.0425454
-0.150806
0.129672
0.0710412
0.0708186
0.133863
0.177254
-0.0316893
0.040312
0.238576
-0.108999
-0.183112
0.191489
0.114371
-0.011829
0.104535
0.0890185
0.0847458
0.0857929
0.361072
-0.0237038
0.214177
0.228816
0.153836
0.217279
0.505906
0.193338
0.509553
0.55127
0.151723
-0.0415255
0.191644
0.150866
-0.0352229
0.140801
0.166682
-0.0134496
-0.0506308
0.171012
-0.269231
0.727609
0.347825
0.359669
0.302572
0.127004
-0.0357502
0.108443
-0.0837328
0.102345
-0.0735725
0.109007
-0.0626313
0.108909
-0.0423164
-0.0778991
0.0911431
0.109964
-0.0549541
0.0332275
0.001253
0.0568011
-0.00293411
0.0831179
0.0765245
0.0979807
-0.0497486
-0.0841788
0.113316
-0.010027
-0.128298
0.0542125
0.109433
-0.025016
-0.112315
-0.0512563
0.00803422
0.1026
-0.0127897
-0.102987
0.0887103
0.0743003
0.112529
-0.0863847
0.09986
0.116925
-0.0534374
0.101881
-0.104705
0.133614
-0.0480106
0.0957516
-0.0779435
0.0383138
0.137243
-0.0387168
-0.120082
0.057609
0.117132
-0.0695445
-0.134768
0.0820326
-0.131449
0.0810749
-0.00545838
-0.0465034
-0.132673
0.086224
-0.0262386
-0.0458551
0.0417116
0.516026
-0.322705
-0.57959
0.271737
0.0208517
0.460019
0.216258
0.129071
-0.329567
-0.455305
0.171967
-0.378828
0.0384739
-0.176039
-0.085939
-0.270591
-0.0663497
-0.179894
-0.210841
-0.192818
0.292974
0.392193
0.284861
0.398518
0.282874
0.37396
0.156206
0.694731
-0.465999
0.542844
0.22604
0.195199
-0.202364
0.180138
-0.284054
0.175636
-0.163464
0.228049
-0.209465
0.00657679
-0.190042
0.0317245
-0.131674
0.144521
-0.0297487
-0.0329274
-0.0114571
-0.135735
0.11093
-0.144882
0.116477
-0.156333
0.112192
0.625248
0.45888
0.707567
0.548384
0.577304
-0.166356
0.618333
0.484345
0.465864
0.573869
-0.193802
0.168733
-0.160479
0.117968
-0.0640925
-0.132161
0.203246
0.167718
-0.0968683
0.194835
-0.060924
0.163194
0.185001
-0.14464
0.0760512
0.112385
0.0791652
0.226814
0.215062
-0.148099
0.252701
-0.131899
0.22098
0.208358
-0.123549
0.243122
-0.157249
-0.264579
0.240968
-0.165213
0.379516
-0.117835
0.346767
0.202265
-0.0483734
-0.258511
0.475991
0.595055
-0.0888578