/*--------------------------------*- C++ -*----------------------------------*\
| =========                 |                                                 |
| \\      /  F ield         | OpenFOAM: The Open Source CFD Toolbox           |
|  \\    /   O peration     | Version:  v2012                                 |
|   \\  /    A nd           | Website:  www.openfoam.com                      |
|    \\/     M anipulation  |                                                 |
\*---------------------------------------------------------------------------*/
FoamFile
{
    version     2.0;
    format      ascii;
    class       pointVectorField;
    location    "1.8";
    object      pointDisplacement;
}
// * * * * * * * * * * * * * * * * * * * * * * * * * * * * * * * * * * * * * //

dimensions      [0 1 0 0 0 0 0];


internalField   nonuniform List<vector> 
16294
(
(0 0 0)
(0 0 0)
(0 0 0)
(0 0 0)
(0 0 0)
(0 0 0)
(0 0 0)
(0 0 0)
(0 0 0)
(0 0 0)
(0 0 0)
(0 0 0)
(0 0 0)
(0 0 0)
(0 0 0)
(0 0 0)
(0 0 0)
(0 0 0)
(0 0 0)
(0 0 0)
(0 0 0)
(0 0 0)
(0 0 0)
(0 0 0)
(0 0 0)
(0 0 0)
(0 0 0)
(0 0 0)
(0 0 0)
(0 0 0)
(0 0 0)
(0 0 0)
(0 0 0)
(0 0 0)
(0 0 0)
(0 0 0)
(0 0 0)
(0 0 0)
(0 0 0)
(0 0 0)
(0 0 0)
(0 0 0)
(0 0 0)
(0 0 0)
(0 0 0)
(0 0 0)
(0 0 0)
(0 0 0)
(0 0 0)
(0 0 0)
(0 0 0)
(0 0 0)
(0 0 0)
(0 0 0)
(0 0 0)
(0 0 0)
(0 0 0)
(0 0 0)
(0 0 0)
(0 0 0)
(0 0 0)
(0 0 0)
(0 0 0)
(0 0 0)
(0 0 0)
(0 0 0)
(0 0 0)
(0 0 0)
(0 0 0)
(0 0 0)
(0 0 0)
(0 0 0)
(0 0 0)
(0 0 0)
(0 0 0)
(0 0 0)
(0 0 0)
(0 0 0)
(0 0 0)
(0 0 0)
(0 0 0)
(0 0 0)
(0 0 0)
(0 0 0)
(0 0 0)
(0 0 0)
(0 0 0)
(0 0 0)
(0 0 0)
(0 0 0)
(0 0 0)
(0 0 0)
(0 0 0)
(0 0 0)
(0 0 0)
(0 0 0)
(0 0 0)
(0 0 0)
(0 0 0)
(0 0 0)
(0 0 0)
(0 0 0)
(0 0 0)
(0 0 0)
(0 0 0)
(0 0 0)
(0 0 0)
(-0.00308731 -0.0277674 0)
(-0.00304312 -0.0284219 0)
(-0.00299891 -0.029063 0)
(-0.00295477 -0.0296904 0)
(-0.00291078 -0.0303039 0)
(-0.00286702 -0.0309032 0)
(-0.00282355 -0.0314882 0)
(-0.00278045 -0.0320588 0)
(-0.00273777 -0.0326148 0)
(-0.00269559 -0.0331561 0)
(-0.00265394 -0.0336828 0)
(-0.00261288 -0.0341948 0)
(-0.00257245 -0.0346923 0)
(-0.00253269 -0.0351752 0)
(-0.00249364 -0.0356437 0)
(-0.00245532 -0.0360978 0)
(-0.00241778 -0.0365378 0)
(-0.00238102 -0.0369638 0)
(-0.00234506 -0.037376 0)
(-0.00230993 -0.0377746 0)
(-0.00227565 -0.0381599 0)
(-0.00224221 -0.038532 0)
(-0.00220963 -0.0388913 0)
(-0.00217792 -0.039238 0)
(-0.00214707 -0.0395723 0)
(-0.00211709 -0.0398946 0)
(-0.00208797 -0.0402052 0)
(-0.00205971 -0.0405042 0)
(-0.0020323 -0.0407921 0)
(-0.00200575 -0.0410692 0)
(-0.00198002 -0.0413357 0)
(-0.00195513 -0.041592 0)
(-0.00193105 -0.0418383 0)
(-0.00190778 -0.042075 0)
(-0.00188529 -0.0423023 0)
(-0.00186358 -0.0425206 0)
(-0.00184263 -0.0427301 0)
(-0.00182242 -0.0429312 0)
(-0.00180293 -0.0431241 0)
(-0.00178416 -0.0433091 0)
(-0.00176607 -0.0434865 0)
(-0.00174866 -0.0436565 0)
(-0.00173191 -0.0438194 0)
(-0.00171579 -0.0439755 0)
(-0.00170029 -0.0441251 0)
(-0.00168539 -0.0442683 0)
(-0.00167107 -0.0444054 0)
(-0.00165732 -0.0445367 0)
(-0.00164412 -0.0446623 0)
(-0.00163144 -0.0447826 0)
(-0.00161928 -0.0448976 0)
(-0.00160761 -0.0450076 0)
(-0.00159641 -0.0451129 0)
(-0.00158568 -0.0452136 0)
(-0.00157539 -0.0453098 0)
(-0.00156553 -0.0454019 0)
(-0.00155609 -0.0454898 0)
(-0.00154704 -0.0455739 0)
(-0.00153837 -0.0456543 0)
(-0.00153008 -0.0457311 0)
(-0.00152213 -0.0458045 0)
(-0.00151453 -0.0458745 0)
(-0.00150725 -0.0459415 0)
(-0.00150029 -0.0460055 0)
(-0.00149363 -0.0460666 0)
(-0.00146292 -0.0460675 0)
(-0.00143184 -0.0460685 0)
(-0.00140063 -0.0460694 0)
(-0.00136955 -0.0460704 0)
(-0.00133884 -0.0460713 0)
(-0.00132844 -0.0460108 0)
(-0.00131756 -0.0459474 0)
(-0.00130619 -0.0458809 0)
(-0.00129429 -0.0458115 0)
(-0.00128186 -0.0457387 0)
(-0.00126886 -0.0456626 0)
(-0.00125527 -0.0455829 0)
(-0.00124108 -0.0454995 0)
(-0.00122624 -0.0454123 0)
(-0.00121075 -0.0453211 0)
(-0.00119457 -0.0452256 0)
(-0.00117768 -0.0451258 0)
(-0.00116004 -0.0450214 0)
(-0.00114163 -0.0449123 0)
(-0.00112242 -0.0447982 0)
(-0.00110239 -0.044679 0)
(-0.00108149 -0.0445544 0)
(-0.0010597 -0.0444242 0)
(-0.00103699 -0.0442882 0)
(-0.00101332 -0.0441462 0)
(-0.000988661 -0.0439979 0)
(-0.000962984 -0.043843 0)
(-0.00093625 -0.0436814 0)
(-0.000908429 -0.0435128 0)
(-0.000879483 -0.0433369 0)
(-0.000849378 -0.0431534 0)
(-0.000818083 -0.0429621 0)
(-0.00078556 -0.0427626 0)
(-0.000751776 -0.0425548 0)
(-0.000716697 -0.0423383 0)
(-0.000680291 -0.0421127 0)
(-0.000642523 -0.0418779 0)
(-0.000603359 -0.0416336 0)
(-0.000562772 -0.0413793 0)
(-0.000520729 -0.0411149 0)
(-0.000477201 -0.0408399 0)
(-0.000432162 -0.0405543 0)
(-0.00038559 -0.0402575 0)
(-0.000337448 -0.0399493 0)
(-0.000287725 -0.0396294 0)
(-0.000236393 -0.0392977 0)
(-0.000183447 -0.0389536 0)
(-0.000128862 -0.038597 0)
(-7.26303e-05 -0.0382276 0)
(-1.47428e-05 -0.0378452 0)
(4.47994e-05 -0.0374495 0)
(0.000106008 -0.0370403 0)
(0.000168866 -0.0366173 0)
(0.000233371 -0.0361805 0)
(0.000299512 -0.0357295 0)
(0.00036726 -0.0352643 0)
(0.000436605 -0.0347848 0)
(0.000507515 -0.0342908 0)
(0.000579954 -0.0337822 0)
(0.000653872 -0.0332591 0)
(0.000729231 -0.0327213 0)
(0.000805977 -0.0321691 0)
(0.000884045 -0.0316022 0)
(0.000963365 -0.031021 0)
(0.00104386 -0.0304254 0)
(0.00112545 -0.0298158 0)
(0.00120805 -0.0291923 0)
(0.00129156 -0.0285551 0)
(0.00137586 -0.0279046 0)
(0.000693425 -0.0143852 0)
(0.00081157 -0.0142654 0)
(0.000747251 -0.011917 0)
(0.00109511 -0.0165955 0)
(0.00105421 -0.0152559 0)
(0.000987984 -0.0165695 0)
(0.000749982 -0.0202875 0)
(0.00087307 -0.0192819 0)
(0.000785133 -0.01889 0)
(0.000416331 -0.00572226 0)
(0.000378344 -0.00671458 0)
(0.000601041 -0.00834363 0)
(0.00100183 -0.0180525 0)
(0.00108687 -0.0186901 0)
(0.0011208 -0.017651 0)
(0.000210352 -0.0135213 0)
(0.000139927 -0.0157744 0)
(0.000232918 -0.0168683 0)
(0.000538445 -0.00990509 0)
(0.000389542 -0.00973901 0)
(0.000258306 -0.00380847 0)
(0.000737387 -0.0273004 0)
(0.000677907 -0.0282755 0)
(0.00076423 -0.027684 0)
(0.0014175 -0.0245821 0)
(0.00132276 -0.0255837 0)
(0.0014244 -0.0250004 0)
(0.0002775 -0.0186518 0)
(0.000363707 -0.0188034 0)
(0.000321681 -0.0171837 0)
(0.000610758 -0.0213236 0)
(0.000493967 -0.0210108 0)
(0.000493479 -0.0223512 0)
(0.00017783 -0.0216493 0)
(0.000234632 -0.02254 0)
(0.000272654 -0.0205073 0)
(0.000164321 -0.00986003 0)
(0.000282847 -0.0111612 0)
(0.000187635 -0.00788572 0)
(0.000240631 -0.00580593 0)
(0.000172807 -0.00316766 0)
(0.000707428 -0.03143 0)
(0.000716477 -0.0311591 0)
(0.000632679 -0.0316682 0)
(0.0012159 -0.0262104 0)
(0.00118991 -0.0258912 0)
(0.00110853 -0.0268758 0)
(0.000213248 -0.0259602 0)
(0.000175489 -0.0272371 0)
(0.000255949 -0.0262756 0)
(5.98594e-05 -0.0300378 0)
(0.000113118 -0.0291074 0)
(2.68687e-05 -0.0298056 0)
(3.91405e-05 -0.0218652 0)
(3.59436e-05 -0.0199972 0)
(-1.00561e-05 -0.0212583 0)
(8.22653e-05 -0.0180254 0)
(0.000150949 -0.0180897 0)
(0.000247705 -0.00784617 0)
(0.000112634 -0.00269312 0)
(0.000738921 -0.030812 0)
(0.00109643 -0.0284028 0)
(0.00101435 -0.02887 0)
(0.00102987 -0.029072 0)
(0.00138303 -0.0272141 0)
(0.00140983 -0.0271837 0)
(-0.000226901 -0.0301744 0)
(-0.000173296 -0.0299081 0)
(-0.000187133 -0.0292856 0)
(0.000122776 -0.0211617 0)
(0.000192446 -0.0195984 0)
(0.000104265 -0.0198597 0)
(0.000429247 -0.0296479 0)
(0.000414198 -0.0304244 0)
(0.000497787 -0.0294862 0)
(-0.00159262 -0.013022 0)
(-0.00132347 -0.0119162 0)
(-0.00144618 -0.0145731 0)
(-0.00154349 -0.0141025 0)
(-0.00163111 -0.0159171 0)
(-0.00243668 -0.0209717 0)
(-0.000130359 -0.0201494 0)
(-0.000118442 -0.0214764 0)
(-6.18007e-05 -0.0195644 0)
(4.68622e-05 -0.0156757 0)
(2.39316e-05 -0.0123952 0)
(-2.65731e-05 -0.0150506 0)
(0.000120663 -0.0042086 0)
(0.000108813 -0.00607903 0)
(8.37264e-05 -0.00781139 0)
(0.000509084 -0.0339715 0)
(0.000486803 -0.0340092 0)
(0.000424276 -0.034527 0)
(-5.25382e-05 -0.0353675 0)
(-8.77289e-06 -0.0347795 0)
(-8.59437e-05 -0.0353301 0)
(0.000543671 -0.0331958 0)
(0.000618759 -0.0326422 0)
(0.000577389 -0.0327481 0)
(0.00145719 -0.0264723 0)
(-0.000294613 -0.0270981 0)
(-0.000251677 -0.0259503 0)
(-0.000304035 -0.0263403 0)
(-0.000381349 -0.0361805 0)
(-0.000432248 -0.036649 0)
(-0.000381724 -0.0365129 0)
(-0.0010435 -0.00857733 0)
(-0.000701494 -0.00629202 0)
(-0.00137096 -0.0152713 0)
(-0.0012125 -0.0128454 0)
(-0.00194407 -0.0196007 0)
(-0.00204391 -0.0198626 0)
(-0.00200828 -0.0210381 0)
(1.12414e-05 -0.0184981 0)
(-1.75855e-05 -0.0201611 0)
(-3.54061e-05 -0.0117847 0)
(5.57015e-06 -0.0097344 0)
(-1.64397e-05 -0.00759369 0)
(5.26076e-05 -0.00284036 0)
(1.39351e-05 -0.0072139 0)
(3.14089e-05 -0.00537538 0)
(4.08214e-06 -0.00399783 0)
(6.82255e-05 -0.0359319 0)
(1.18014e-05 -0.0364793 0)
(9.65066e-05 -0.0359154 0)
(0.000606141 -0.0329137 0)
(9.60066e-05 -0.0343444 0)
(6.90687e-05 -0.0348826 0)
(0.000159179 -0.0340338 0)
(0.000693322 -0.0323724 0)
(0.000766241 -0.0319403 0)
(0.000780504 -0.0316591 0)
(0.00137706 -0.0277625 0)
(0.00141137 -0.0274283 0)
(-0.000666171 -0.0317445 0)
(-0.000695251 -0.032407 0)
(-0.000659058 -0.0320898 0)
(-0.000646692 -0.0402072 0)
(-0.000614083 -0.0398225 0)
(-0.000657276 -0.0401306 0)
(-7.66835e-05 -0.0240947 0)
(-0.000108702 -0.0253494 0)
(-4.40803e-05 -0.0245918 0)
(-0.00044781 -0.0388618 0)
(-0.000458647 -0.039166 0)
(-0.000407357 -0.0387838 0)
(-0.00222293 -0.0329394 0)
(-0.00218583 -0.0325906 0)
(-0.00226402 -0.0320706 0)
(-0.0028013 -0.0252232 0)
(-0.00120431 -0.0145019 0)
(-0.00160266 -0.0270845 0)
(-0.00156523 -0.0279603 0)
(-0.00152408 -0.0268567 0)
(-0.00179033 -0.0232649 0)
(-0.00186205 -0.0241198 0)
(-0.00180439 -0.0245972 0)
(-8.4688e-05 -0.0150127 0)
(4.31136e-05 -0.00370723 0)
(4.50758e-05 -0.00923101 0)
(0.000118625 -0.0368135 0)
(8.77424e-05 -0.0369607 0)
(5.85199e-05 -0.0372125 0)
(0.00041306 -0.0347691 0)
(0.000468204 -0.0343932 0)
(0.000451316 -0.034442 0)
(-0.000382836 -0.0394675 0)
(-0.000433055 -0.0396853 0)
(-0.00043172 -0.0398356 0)
(0.000876324 -0.0309828 0)
(0.000907635 -0.0308967 0)
(0.000973797 -0.0302866 0)
(0.00106921 -0.0300616 0)
(0.00100206 -0.030555 0)
(0.00104624 -0.0302834 0)
(0.00124776 -0.0286831 0)
(0.00129407 -0.0284041 0)
(0.001333 -0.0280353 0)
(0.00143545 -0.0271312 0)
(-0.000399566 -0.0294703 0)
(-0.000436069 -0.0293196 0)
(-0.000448056 -0.029984 0)
(-0.000982364 -0.0370251 0)
(-0.000995479 -0.0375527 0)
(-0.000959941 -0.0370979 0)
(-0.000251154 -0.0210236 0)
(-0.000308658 -0.0221416 0)
(-0.00028999 -0.0227225 0)
(-0.00104065 -0.0433287 0)
(-0.00100627 -0.0430655 0)
(-0.00102522 -0.0430923 0)
(-0.00193897 -0.0382741 0)
(-0.00196546 -0.0384627 0)
(-0.00192004 -0.0387879 0)
(-0.00283343 -0.0278204 0)
(-0.00279707 -0.0286341 0)
(-0.00277844 -0.0281878 0)
(-0.00098594 -0.00966934 0)
(-0.000658429 -0.00693833 0)
(-0.000377381 -0.00307045 0)
(-0.00154214 -0.022387 0)
(-0.00144775 -0.0206295 0)
(-0.00156167 -0.0212382 0)
(-0.00165505 -0.0255167 0)
(-0.00166572 -0.0266592 0)
(-0.00160794 -0.0260139 0)
(-0.0018712 -0.0305879 0)
(-0.00181597 -0.0299217 0)
(-0.00187292 -0.0296172 0)
(-0.000184549 -0.0141075 0)
(-0.000122963 -0.0115131 0)
(-0.000142229 -0.0108836 0)
(-0.000210943 -0.0168473 0)
(-0.000246893 -0.0168265 0)
(-0.000268204 -0.0188685 0)
(-5.24887e-05 -0.0096215 0)
(-9.38358e-05 -0.012486 0)
(-7.5704e-05 -0.009068 0)
(-1.23865e-05 -0.00366803 0)
(0.000136407 -0.0365813 0)
(0.000144675 -0.0365939 0)
(0.000196418 -0.0362048 0)
(-6.24205e-05 -0.0379061 0)
(-2.85505e-05 -0.0377419 0)
(-4.12527e-06 -0.0375208 0)
(0.000346893 -0.0350822 0)
(0.000365169 -0.0348503 0)
(0.000385149 -0.0348926 0)
(0.000349792 -0.0352046 0)
(-0.000503289 -0.0395579 0)
(-0.000546938 -0.0397757 0)
(-0.000549264 -0.0399808 0)
(0.000815584 -0.0319776 0)
(0.000890484 -0.0314317 0)
(0.000851146 -0.0316726 0)
(0.000968331 -0.0308598 0)
(0.000924908 -0.0311274 0)
(0.000984384 -0.0303845 0)
(0.00105462 -0.0299439 0)
(0.0010584 -0.0297607 0)
(-0.000536796 -0.0258064 0)
(-0.000575891 -0.0268342 0)
(-0.000541331 -0.0264589 0)
(-0.000681752 -0.0297391 0)
(-0.000712558 -0.0302118 0)
(-0.00070174 -0.0305551 0)
(-0.00104243 -0.040948 0)
(-0.00101663 -0.0408837 0)
(-0.00101812 -0.0406847 0)
(-0.000459037 -0.0235056 0)
(-0.000440306 -0.0224372 0)
(-0.000475011 -0.0231099 0)
(-0.00105766 -0.0424033 0)
(-0.00103008 -0.0421483 0)
(-0.00104793 -0.042175 0)
(-0.000731773 -0.0406253 0)
(-0.000773635 -0.040923 0)
(-0.000762678 -0.0410151 0)
(-0.00289059 -0.0300517 0)
(-0.00289771 -0.0301059 0)
(-0.00285661 -0.0305529 0)
(-0.00228986 -0.0326048 0)
(-0.000331231 -0.00372794 0)
(-0.00035256 -0.00338911 0)
(-0.0010312 -0.015884 0)
(-0.00119029 -0.0190115 0)
(-0.00105499 -0.0175237 0)
(-0.00162958 -0.0227189 0)
(-0.00162879 -0.0240239 0)
(-0.0023697 -0.0322131 0)
(-0.00232727 -0.03194 0)
(-0.000153059 -0.0146226 0)
(-0.000284671 -0.0170248 0)
(-0.000303023 -0.0165723 0)
(-0.000326916 -0.0180569 0)
(-3.93907e-05 -0.00665449 0)
(-8.52375e-05 -0.00752841 0)
(-5.24315e-05 -0.00608135 0)
(-2.4217e-06 -0.0371632 0)
(-4.50378e-05 -0.0375377 0)
(2.11544e-05 -0.0370999 0)
(-3.20563e-05 -0.0376348 0)
(0.000591095 -0.0335763 0)
(0.000661859 -0.0330768 0)
(0.000628678 -0.0332524 0)
(0.000545841 -0.0336228 0)
(-0.000916083 -0.0431608 0)
(-0.000938814 -0.0432277 0)
(-0.000953234 -0.0433867 0)
(-0.00053354 -0.0409854 0)
(-0.000499879 -0.0407392 0)
(-0.00052708 -0.0408762 0)
(0.000790794 -0.0321174 0)
(0.0012285 -0.0287319 0)
(0.00117854 -0.0291566 0)
(-0.0006185 -0.0275989 0)
(-0.000661419 -0.0282828 0)
(-0.000636791 -0.0283938 0)
(-0.00114683 -0.0403484 0)
(-0.0011688 -0.0403924 0)
(-0.00117064 -0.0406873 0)
(-0.00113082 -0.0411296 0)
(-0.0011569 -0.0414497 0)
(-0.00113907 -0.0414502 0)
(-0.000401259 -0.0238448 0)
(-0.000424865 -0.0234483 0)
(-0.000440148 -0.02459 0)
(-0.00117396 -0.0439652 0)
(-0.0011928 -0.0441906 0)
(-0.00117089 -0.0440579 0)
(-0.000954882 -0.0428083 0)
(-0.000940863 -0.0425993 0)
(-0.000973449 -0.0428253 0)
(-0.00308708 -0.0273116 0)
(-0.00245521 -0.032979 0)
(-0.00249387 -0.032359 0)
(-0.0025225 -0.0324554 0)
(-0.00186658 -0.0376287 0)
(-0.00186929 -0.0380448 0)
(-0.00183128 -0.038049 0)
(-0.00175876 -0.0332286 0)
(-0.00179764 -0.03355 0)
(-0.00174186 -0.0339387 0)
(-0.000595399 -0.00714064 0)
(-0.000918205 -0.0107226 0)
(-0.00101758 -0.0138549 0)
(-0.000692615 -0.00928907 0)
(-0.00132188 -0.0213167 0)
(-0.0013263 -0.0199228 0)
(-0.00131232 -0.0286413 0)
(-0.00129943 -0.0276089 0)
(-0.00135402 -0.0283909 0)
(-0.00146041 -0.0358146 0)
(-0.00143108 -0.0352664 0)
(-0.00145554 -0.0352668 0)
(-0.000361906 -0.0194974 0)
(-0.000324874 -0.0187258 0)
(-2.35623e-05 -0.00334765 0)
(0.000185054 -0.0363617 0)
(-0.000109675 -0.038249 0)
(-0.000111614 -0.038323 0)
(-7.40525e-05 -0.0380455 0)
(0.00057109 -0.0336026 0)
(0.000563577 -0.0337257 0)
(0.000261308 -0.0357546 0)
(0.00028745 -0.0356323 0)
(0.000321305 -0.0353385 0)
(-0.000759558 -0.0423703 0)
(-0.000755932 -0.0422932 0)
(-0.000786165 -0.042512 0)
(-0.000492984 -0.0407458 0)
(-0.000449758 -0.0404722 0)
(-0.000472185 -0.0405795 0)
(-0.000588998 -0.0412947 0)
(-0.00057498 -0.041248 0)
(-0.000559916 -0.0411029 0)
(-0.000931631 -0.0347006 0)
(-0.000926223 -0.0341774 0)
(-0.000956959 -0.0347245 0)
(-0.000420983 -0.0224798 0)
(-0.000401292 -0.0212257 0)
(-0.00102503 -0.0358031 0)
(-0.00105313 -0.0360126 0)
(-0.00105258 -0.0363946 0)
(-0.00138888 -0.041953 0)
(-0.00136917 -0.0418757 0)
(-0.00138055 -0.0416623 0)
(-0.00111473 -0.0347421 0)
(-0.00112047 -0.0353463 0)
(-0.00109057 -0.0347586 0)
(-0.00113565 -0.0429991 0)
(-0.00115243 -0.0431929 0)
(-0.00113857 -0.0431933 0)
(-0.00035035 -0.0201543 0)
(-0.00116799 -0.0441436 0)
(-0.00118396 -0.0442204 0)
(-0.00114829 -0.0440368 0)
(-0.00116665 -0.0442479 0)
(-0.00114537 -0.0441018 0)
(-0.00103524 -0.0437214 0)
(-0.00101543 -0.0436525 0)
(-0.00100683 -0.043499 0)
(-0.00294637 -0.029168 0)
(-0.00300213 -0.0285123 0)
(-0.0029607 -0.029183 0)
(-0.0028321 -0.0310136 0)
(-0.00285281 -0.0308402 0)
(-0.00281053 -0.0313998 0)
(-0.00259896 -0.0333201 0)
(-0.00265121 -0.0327987 0)
(-0.00261502 -0.0334038 0)
(-0.00231719 -0.0359721 0)
(-0.00236235 -0.0354433 0)
(-0.00237006 -0.0356213 0)
(-0.00204913 -0.0386498 0)
(-0.00206468 -0.0382473 0)
(-0.00208616 -0.0382977 0)
(-0.0019886 -0.038851 0)
(-0.00202433 -0.0385679 0)
(-0.00200792 -0.0389286 0)
(-0.00157774 -0.0381371 0)
(-0.00157896 -0.0386955 0)
(-0.0015475 -0.0384641 0)
(-0.000338223 -0.00446255 0)
(-0.000479169 -0.00717211 0)
(-0.00090568 -0.01514 0)
(-0.000991677 -0.0176608 0)
(-0.000814594 -0.0149869 0)
(-0.000847938 -0.0180541 0)
(-0.000933412 -0.0192545 0)
(-0.00090698 -0.0198232 0)
(-0.00140355 -0.0281094 0)
(-0.00144725 -0.0292745 0)
(-0.00139938 -0.0290863 0)
(-0.00118428 -0.0335425 0)
(-0.0011994 -0.0331255 0)
(-0.00122167 -0.0338974 0)
(-0.000212868 -0.0128385 0)
(-0.000158632 -0.010509 0)
(-0.000169963 -0.00998039 0)
(-0.000218786 -0.0120984 0)
(-0.00024531 -0.0126073 0)
(-0.000265459 -0.0143572 0)
(-3.52145e-05 -0.00352324 0)
(-8.22095e-05 -0.00600481 0)
(-4.90498e-05 -0.00404932 0)
(0.000239376 -0.0358321 0)
(-0.000241118 -0.0390762 0)
(-0.000231825 -0.0389375 0)
(-0.000283167 -0.039308 0)
(0.000291764 -0.035485 0)
(-0.000674214 -0.0417993 0)
(-0.000651243 -0.0417056 0)
(-0.000644834 -0.0415933 0)
(-0.000737364 -0.0422515 0)
(-0.000755739 -0.0423903 0)
(-0.000442666 -0.0403717 0)
(-0.000470972 -0.0405226 0)
(-0.000615896 -0.0414427 0)
(-0.000610557 -0.0414638 0)
(-0.000557826 -0.0222538 0)
(-0.000570612 -0.0219074 0)
(-0.000599646 -0.0232378 0)
(-0.000819515 -0.0272665 0)
(-0.000793416 -0.0262105 0)
(-0.000835556 -0.0270578 0)
(-0.00125997 -0.0408465 0)
(-0.0012713 -0.0411817 0)
(-0.00124465 -0.0409011 0)
(-0.0013146 -0.0434954 0)
(-0.00132062 -0.0433718 0)
(-0.00133082 -0.0435881 0)
(-0.00125372 -0.0364718 0)
(-0.00123958 -0.036881 0)
(-0.00122221 -0.0363409 0)
(-0.00131947 -0.0441167 0)
(-0.0013348 -0.0442358 0)
(-0.00132621 -0.0442959 0)
(-0.000410362 -0.0186959 0)
(-0.000369259 -0.0177419 0)
(-0.000379001 -0.0173517 0)
(-0.00125084 -0.0453203 0)
(-0.0012617 -0.0454133 0)
(-0.0012456 -0.0453384 0)
(-0.0010865 -0.0440735 0)
(-0.00106181 -0.0439074 0)
(-0.00107648 -0.0439191 0)
(-0.000989945 -0.0438053 0)
(-0.000972346 -0.0437178 0)
(-0.000965569 -0.0436414 0)
(-0.0010206 -0.0439702 0)
(-0.00104033 -0.0440816 0)
(-0.00103191 -0.0440799 0)
(-0.00294216 -0.0295784 0)
(-0.00289413 -0.0302741 0)
(-0.00298412 -0.0289485 0)
(-0.00276407 -0.0319949 0)
(-0.00272657 -0.0323842 0)
(-0.00275421 -0.0319934 0)
(-0.0028174 -0.0310773 0)
(-0.00282137 -0.0308598 0)
(-0.00304711 -0.0279604 0)
(-0.0030716 -0.0277122 0)
(-0.00272713 -0.0322145 0)
(-0.00268741 -0.0327523 0)
(-0.00269451 -0.032459 0)
(-0.00263735 -0.0336106 0)
(-0.00262512 -0.0336173 0)
(-0.00266259 -0.0331923 0)
(-0.00242511 -0.035974 0)
(-0.00238204 -0.0364438 0)
(-0.00240649 -0.0360787 0)
(-0.00217138 -0.0380604 0)
(-0.00221038 -0.0377774 0)
(-0.00218929 -0.0380865 0)
(-0.00210365 -0.038838 0)
(-0.00207022 -0.0389643 0)
(-0.00210568 -0.0386235 0)
(-0.00168626 -0.0402249 0)
(-0.00166791 -0.0406655 0)
(-0.00165343 -0.0404631 0)
(-0.00123306 -0.0381322 0)
(-0.00126553 -0.0382462 0)
(-0.00125532 -0.0385663 0)
(-0.000221331 -0.00330541 0)
(-0.000776024 -0.0118901 0)
(-0.0005481 -0.00911397 0)
(-0.000532809 -0.0106481 0)
(-0.000681483 -0.0133639 0)
(-0.000638137 -0.0135028 0)
(-0.000595051 -0.0109015 0)
(-0.000731944 -0.0124664 0)
(-0.000955423 -0.0215856 0)
(-0.000868481 -0.0199888 0)
(-0.000955084 -0.0243342 0)
(-0.000973141 -0.0239069 0)
(-0.00100993 -0.0252962 0)
(-0.00116422 -0.0310165 0)
(-0.00114687 -0.0313375 0)
(-0.00112151 -0.0306403 0)
(-0.000118152 -0.0086095 0)
(-0.000121094 -0.00787708 0)
(-0.000271503 -0.0129449 0)
(-0.000293472 -0.0145588 0)
(-0.000315263 -0.0147826 0)
(-0.000312344 -0.0140876 0)
(-0.000357285 -0.0160117 0)
(-4.00017e-05 -0.0028936 0)
(-0.00019563 -0.03882 0)
(-0.000242076 -0.0391342 0)
(-0.000724999 -0.0419549 0)
(-0.000763564 -0.0421579 0)
(-0.000763338 -0.0422286 0)
(-0.000818208 -0.0426925 0)
(-0.000836543 -0.0428676 0)
(-0.000810781 -0.0427024 0)
(-0.000406587 -0.0401147 0)
(-0.000366303 -0.0398299 0)
(-0.000402511 -0.0400161 0)
(-0.000704308 -0.0419961 0)
(-0.00068553 -0.0419161 0)
(-0.000908422 -0.0280962 0)
(-0.000918058 -0.0276149 0)
(-0.000943712 -0.028703 0)
(-0.000677748 -0.0227149 0)
(-0.000712326 -0.0239708 0)
(-0.000666569 -0.0230882 0)
(-0.000536895 -0.0207506 0)
(-0.000522294 -0.0209793 0)
(-0.00147814 -0.0428117 0)
(-0.00146968 -0.0429803 0)
(-0.00146358 -0.0427719 0)
(-0.00143363 -0.0451143 0)
(-0.00144503 -0.0451205 0)
(-0.00143905 -0.045222 0)
(-0.00133881 -0.0452086 0)
(-0.00134044 -0.0453247 0)
(-0.00132806 -0.0451951 0)
(-0.000412506 -0.0179225 0)
(-0.000468247 -0.0192679 0)
(-0.000450662 -0.0195829 0)
(-0.00129242 -0.0453371 0)
(-0.00129323 -0.0454554 0)
(-0.00128116 -0.0453225 0)
(-0.00125914 -0.0453446 0)
(-0.00117745 -0.0447855 0)
(-0.00118648 -0.0447943 0)
(-0.00119769 -0.0449214 0)
(-0.0011313 -0.0446202 0)
(-0.00114696 -0.0447544 0)
(-0.00113081 -0.0446638 0)
(-0.000937052 -0.0435353 0)
(-0.000952017 -0.0435918 0)
(-0.000965036 -0.0437041 0)
(-0.00104918 -0.0441777 0)
(-0.00106539 -0.044264 0)
(-0.00298554 -0.0290126 0)
(-0.0027594 -0.0318068 0)
(-0.0027894 -0.0315415 0)
(-0.00304599 -0.0278104 0)
(-0.00272133 -0.0325667 0)
(-0.00260436 -0.0339461 0)
(-0.00268156 -0.0330719 0)
(-0.00269661 -0.0327966 0)
(-0.00243103 -0.0355802 0)
(-0.00243929 -0.0356871 0)
(-0.00240881 -0.0359416 0)
(-0.0024775 -0.0353115 0)
(-0.00245688 -0.0356162 0)
(-0.00217163 -0.0386537 0)
(-0.00218739 -0.0386272 0)
(-0.0021622 -0.038862 0)
(-0.00209043 -0.0396577 0)
(-0.0020579 -0.0399495 0)
(-0.00208018 -0.0396056 0)
(-0.00191422 -0.0413762 0)
(-0.0019392 -0.0411651 0)
(-0.0019299 -0.041331 0)
(-0.00202765 -0.0398436 0)
(-0.00200016 -0.0401524 0)
(-0.00200152 -0.039964 0)
(-0.0016014 -0.0402646 0)
(-0.00161408 -0.0398747 0)
(-0.00162869 -0.0401023 0)
(-0.000269694 -0.00447908 0)
(-0.000807396 -0.0163402 0)
(-0.000759422 -0.0163357 0)
(-0.000460874 -0.00985403 0)
(-0.000218171 -0.00402467 0)
(-0.000410441 -0.00730009 0)
(-0.001005 -0.0266687 0)
(-0.000956652 -0.0257634 0)
(-0.00098484 -0.0255832 0)
(-0.00115382 -0.0258701 0)
(-0.00114188 -0.0266438 0)
(-0.00109575 -0.0254253 0)
(-0.000166226 -0.0084803 0)
(-0.000156553 -0.00861779 0)
(-0.000122174 -0.00665572 0)
(-0.000121685 -0.007173 0)
(-0.000388099 -0.0164754 0)
(-0.000219982 -0.0109184 0)
(-0.000200056 -0.00964354 0)
(-0.000236032 -0.0110572 0)
(-7.46164e-05 -0.00478377 0)
(-0.000279674 -0.0392049 0)
(-0.000239157 -0.0389026 0)
(-0.000273818 -0.0390777 0)
(-0.000668833 -0.0417106 0)
(-0.000695331 -0.0418852 0)
(-0.000853593 -0.0430133 0)
(-0.00082134 -0.0428165 0)
(-0.000333592 -0.0397135 0)
(-0.000315092 -0.0396332 0)
(-0.000287595 -0.0394085 0)
(-0.000895325 -0.0264302 0)
(-0.000880472 -0.0267538 0)
(-0.000640294 -0.0214744 0)
(-0.000642821 -0.0220953 0)
(-0.000504891 -0.0186544 0)
(-0.000524769 -0.0187511 0)
(-0.000552754 -0.0200129 0)
(-0.00148735 -0.043719 0)
(-0.00147875 -0.0435484 0)
(-0.00149516 -0.0435158 0)
(-0.00139707 -0.0447149 0)
(-0.00140658 -0.0448054 0)
(-0.00139556 -0.0448444 0)
(-0.00141671 -0.0453487 0)
(-0.00142064 -0.0452558 0)
(-0.00142721 -0.0453624 0)
(-0.00132008 -0.0455397 0)
(-0.00132692 -0.0454958 0)
(-0.0013331 -0.0456362 0)
(-0.00137119 -0.0453399 0)
(-0.00138575 -0.0454313 0)
(-0.00137756 -0.0454764 0)
(-0.00130793 -0.0454986 0)
(-0.00132189 -0.0456491 0)
(-0.00131452 -0.045682 0)
(-0.00132671 -0.0457888 0)
(-0.00130963 -0.0457235 0)
(-0.00129915 -0.0455907 0)
(-0.00128554 -0.0455359 0)
(-0.00128227 -0.0454534 0)
(-0.00124082 -0.0452549 0)
(-0.00123184 -0.0452834 0)
(-0.00121942 -0.0452234 0)
(-0.00121905 -0.0451818 0)
(-0.00124958 -0.0451646 0)
(-0.00126541 -0.0452256 0)
(-0.00126467 -0.0453184 0)
(-0.0011862 -0.044968 0)
(-0.00120321 -0.0450609 0)
(-0.00119818 -0.0450686 0)
(-0.00116097 -0.0448496 0)
(-0.00115602 -0.0448507 0)
(-0.000979648 -0.043695 0)
(-0.00100184 -0.0438417 0)
(-0.00252 -0.0342273 0)
(-0.00247571 -0.0347785 0)
(-0.00247315 -0.0345417 0)
(-0.00232332 -0.0371443 0)
(-0.00235606 -0.0368314 0)
(-0.00233531 -0.0371163 0)
(-0.00245002 -0.0357939 0)
(-0.00219151 -0.038769 0)
(-0.0021701 -0.0388996 0)
(-0.00219893 -0.0386134 0)
(-0.00222454 -0.0383992 0)
(-0.00205765 -0.0394717 0)
(-0.00205461 -0.0397089 0)
(-0.00212783 -0.0394347 0)
(-0.00209806 -0.0396932 0)
(-0.00211987 -0.0394096 0)
(-0.00164087 -0.0427595 0)
(-0.00161977 -0.0427372 0)
(-0.00163822 -0.0425582 0)
(-0.00179894 -0.0426857 0)
(-0.00179075 -0.0426769 0)
(-0.00180886 -0.0425125 0)
(-0.00190796 -0.0412511 0)
(-0.00193802 -0.0409292 0)
(-0.00193026 -0.0411374 0)
(-0.00197841 -0.0409025 0)
(-0.00196314 -0.0411031 0)
(-0.00196254 -0.0409871 0)
(-0.000688591 -0.0155556 0)
(-0.000528372 -0.0120577 0)
(-0.000400378 -0.00765256 0)
(-0.000720039 -0.0195506 0)
(-0.000787797 -0.0213191 0)
(-0.000754016 -0.0209884 0)
(-8.20324e-05 -0.0047349 0)
(-8.14818e-05 -0.0043885 0)
(-0.000116219 -0.00597236 0)
(-0.000273859 -0.0123414 0)
(-0.000205257 -0.00943397 0)
(-3.97644e-05 -0.00238782 0)
(-3.14947e-05 -0.0020593 0)
(-0.000882326 -0.0431768 0)
(-0.000880642 -0.0431114 0)
(-0.000901738 -0.0432689 0)
(-0.000971396 -0.0273983 0)
(-0.00100922 -0.0282783 0)
(-0.00097972 -0.0281199 0)
(-0.000562341 -0.0209841 0)
(-0.000519211 -0.0197314 0)
(-0.000814665 -0.025475 0)
(-0.000767215 -0.0241571 0)
(-0.000812887 -0.0247859 0)
(-0.00160222 -0.0441117 0)
(-0.00160735 -0.0439219 0)
(-0.00161744 -0.0439827 0)
(-0.00146732 -0.0456807 0)
(-0.00148113 -0.0456786 0)
(-0.00147501 -0.0457673 0)
(-0.00141944 -0.0456365 0)
(-0.0014251 -0.0455535 0)
(-0.00143609 -0.04565 0)
(-0.00136729 -0.0459094 0)
(-0.00137993 -0.0458412 0)
(-0.00139035 -0.0459022 0)
(-0.00136974 -0.045688 0)
(-0.00137776 -0.0456465 0)
(-0.0013839 -0.0457511 0)
(-0.00129326 -0.0456311 0)
(-0.00120943 -0.0451409 0)
(-0.00118671 -0.045016 0)
(-0.00113709 -0.0447417 0)
(-0.000910465 -0.0433547 0)
(-0.000926196 -0.0434248 0)
(-0.00109608 -0.0443843 0)
(-0.00108357 -0.0443401 0)
(-0.0010789 -0.0442438 0)
(-0.00252794 -0.0348665 0)
(-0.002566 -0.034382 0)
(-0.0025555 -0.0346223 0)
(-0.00231446 -0.0371003 0)
(-0.00228917 -0.0374565 0)
(-0.00253134 -0.0347193 0)
(-0.00216076 -0.0390962 0)
(-0.00224573 -0.0380895 0)
(-0.00226675 -0.0377834 0)
(-0.00227337 -0.037813 0)
(-0.0020243 -0.0400581 0)
(-0.00171798 -0.0432057 0)
(-0.00172424 -0.0429928 0)
(-0.00174009 -0.0429997 0)
(-0.00184655 -0.0421188 0)
(-0.00187089 -0.0418838 0)
(-0.00186582 -0.0420326 0)
(-0.0019358 -0.0413724 0)
(-0.00191317 -0.0415255 0)
(-0.00201435 -0.0405983 0)
(-0.00199521 -0.0407398 0)
(-0.00200821 -0.0405573 0)
(-0.000764358 -0.018109 0)
(-0.00062687 -0.0151071 0)
(-0.000359364 -0.00811412 0)
(-0.000293859 -0.00627282 0)
(-0.000236955 -0.00473845 0)
(-0.000643564 -0.0172461 0)
(-0.000714488 -0.0185048 0)
(-0.000702465 -0.0200425 0)
(-7.56877e-05 -0.0038571 0)
(-0.000170082 -0.00814583 0)
(-0.000139769 -0.00689151 0)
(-0.000307958 -0.0133461 0)
(-0.000346144 -0.0149417 0)
(-0.000311335 -0.0130046 0)
(-0.000336721 -0.0141587 0)
(-0.000268777 -0.0115567 0)
(-0.00023723 -0.0101208 0)
(-0.000256348 -0.0106468 0)
(-0.000934267 -0.0433942 0)
(-0.000912768 -0.0432927 0)
(-0.000915885 -0.043245 0)
(-0.000621989 -0.0191092 0)
(-0.000604711 -0.019289 0)
(-0.000567103 -0.0178526 0)
(-0.000342382 -0.0134254 0)
(-0.000386587 -0.0152956 0)
(-0.000345481 -0.0140593 0)
(-0.00159267 -0.0439392 0)
(-0.00157885 -0.0440269 0)
(-0.00158553 -0.043886 0)
(-0.0014975 -0.0452899 0)
(-0.00148933 -0.0452195 0)
(-0.00150145 -0.045211 0)
(-0.00143504 -0.0458631 0)
(-0.00146158 -0.0458655 0)
(-0.00144396 -0.0459216 0)
(-0.0014094 -0.0455323 0)
(-0.00134955 -0.0457378 0)
(-0.00136179 -0.0458321 0)
(-0.00134613 -0.0458521 0)
(-0.00114901 -0.0446987 0)
(-0.00111515 -0.0445851 0)
(-0.00109663 -0.0444872 0)
(-0.00109679 -0.0444557 0)
(-0.00230163 -0.0374672 0)
(-0.00200813 -0.0403403 0)
(-0.00199608 -0.0403316 0)
(-0.00164574 -0.0439717 0)
(-0.00164857 -0.0440309 0)
(-0.00163578 -0.0440917 0)
(-0.00175999 -0.0430711 0)
(-0.00177768 -0.0428649 0)
(-0.00177511 -0.042998 0)
(-0.00183513 -0.0423787 0)
(-0.00184964 -0.0422168 0)
(-0.00184772 -0.0423203 0)
(-0.00188997 -0.0418119 0)
(-0.00189227 -0.0416494 0)
(-0.00204999 -0.0401538 0)
(-0.00202858 -0.0403885 0)
(-0.00202621 -0.0402981 0)
(-0.000118777 -0.00252326 0)
(-0.000398965 -0.00951937 0)
(-0.00026077 -0.00615963 0)
(-0.00047094 -0.0129572 0)
(-0.000478088 -0.0125428 0)
(-0.000558894 -0.0148226 0)
(-4.88105e-05 -0.002737 0)
(-4.07146e-05 -0.0021631 0)
(-0.000190558 -0.00846344 0)
(-0.000167403 -0.00769071 0)
(-9.998e-05 -0.00467972 0)
(-0.000136882 -0.0064856 0)
(-0.000106749 -0.00523029 0)
(-0.000381946 -0.0146509 0)
(-0.000225851 -0.00993273 0)
(-0.000442376 -0.0161935 0)
(-0.000486506 -0.017563 0)
(-0.000461658 -0.0173012 0)
(-0.000521628 -0.0174308 0)
(-0.000515096 -0.0178816 0)
(-0.000480492 -0.0164022 0)
(-0.000515788 -0.0146973 0)
(-0.000495726 -0.0146286 0)
(-0.0004507 -0.0129867 0)
(-0.000418227 -0.0158889 0)
(-0.000434569 -0.0169379 0)
(-0.00154692 -0.0452891 0)
(-0.00153874 -0.045305 0)
(-0.00154775 -0.0452226 0)
(-0.00155694 -0.0451227 0)
(-0.0015662 -0.0450889 0)
(-0.00155771 -0.0451966 0)
(-0.00150934 -0.0455184 0)
(-0.00151279 -0.0454301 0)
(-0.00151856 -0.0454506 0)
(-0.00145962 -0.0457683 0)
(-0.00146916 -0.0458174 0)
(-0.00140362 -0.0457719 0)
(-0.00141236 -0.0458398 0)
(-0.0013953 -0.0458181 0)
(-0.00144316 -0.0457998 0)
(-0.00164539 -0.0442784 0)
(-0.00163312 -0.0443588 0)
(-0.00164013 -0.0442551 0)
(-0.0016482 -0.0443335 0)
(-0.00163432 -0.0444627 0)
(-0.00163755 -0.0443844 0)
(-0.00176099 -0.0431449 0)
(-0.00174467 -0.0432612 0)
(-0.00181836 -0.0425185 0)
(-0.00182825 -0.0425029 0)
(-0.000192378 -0.00433457 0)
(-0.000124736 -0.00294013 0)
(-3.69701e-05 -0.0018588 0)
(-6.97028e-05 -0.00338698 0)
(-0.000161387 -0.00719808 0)
(-0.000267741 -0.0104078 0)
(-0.000302758 -0.0118181 0)
(-0.000272758 -0.0109404 0)
(-0.000289446 -0.0119031 0)
(-0.000305555 -0.0122175 0)
(-0.00031938 -0.012945 0)
(-0.000194397 -0.00817854 0)
(-0.000224514 -0.00939282 0)
(-0.000207784 -0.00893685 0)
(-0.000464579 -0.0164048 0)
(-0.000419422 -0.0150253 0)