/*--------------------------------*- C++ -*----------------------------------*\
| =========                 |                                                 |
| \\      /  F ield         | OpenFOAM: The Open Source CFD Toolbox           |
|  \\    /   O peration     | Version:  v2012                                 |
|   \\  /    A nd           | Website:  www.openfoam.com                      |
|    \\/     M anipulation  |                                                 |
\*---------------------------------------------------------------------------*/
FoamFile
{
    version     2.0;
    format      ascii;
    class       volScalarField;
    location    "1.8";
    object      rAU;
}
// * * * * * * * * * * * * * * * * * * * * * * * * * * * * * * * * * * * * * //

dimensions      [-1 3 1 0 0 0 0];


internalField   nonuniform List<scalar> 
13611
(
2.48234e-08
2.47972e-08
2.48743e-08
2.48126e-08
2.48353e-08
2.48326e-08
2.48479e-08
2.48306e-08
2.47794e-08
2.48387e-08
2.48387e-08
2.48444e-08
2.48575e-08
2.48732e-08
2.47012e-08
2.48459e-08
2.48459e-08
2.48274e-08
2.48712e-08
2.48079e-08
2.48322e-08
2.46812e-08
2.46988e-08
2.47555e-08
2.47584e-08
2.48511e-08
2.48511e-08
2.48703e-08
2.48755e-08
2.47155e-08
2.47382e-08
2.46945e-08
2.4763e-08
2.48548e-08
2.48765e-08
2.48193e-08
2.48154e-08
2.48338e-08
2.46711e-08
2.47424e-08
2.47583e-08
2.47334e-08
2.47356e-08
2.48451e-08
2.48558e-08
2.48438e-08
2.48756e-08
2.48708e-08
2.46971e-08
2.46169e-08
2.47043e-08
2.47409e-08
2.47364e-08
2.47745e-08
2.4832e-08
2.48389e-08
2.48174e-08
2.48602e-08
2.48363e-08
2.48481e-08
2.46928e-08
2.46406e-08
2.4707e-08
2.47055e-08
2.46102e-08
2.47027e-08
2.4676e-08
2.47628e-08
2.47507e-08
2.48141e-08
2.48491e-08
2.48614e-08
2.4877e-08
2.48459e-08
2.46914e-08
2.46583e-08
2.4661e-08
2.46127e-08
2.47053e-08
2.4697e-08
2.46837e-08
2.47442e-08
2.4783e-08
2.47362e-08
2.4822e-08
2.48526e-08
2.48498e-08
2.4839e-08
2.48376e-08
2.46859e-08
2.45448e-08
2.46525e-08
2.46927e-08
2.46353e-08
2.45624e-08
2.46926e-08
2.46798e-08
2.47449e-08
2.47292e-08
2.47013e-08
2.48003e-08
2.48399e-08
2.48521e-08
2.48456e-08
2.48388e-08
2.45746e-08
2.47246e-08
2.47236e-08
2.46941e-08
2.46426e-08
2.46283e-08
2.45964e-08
2.4693e-08
2.46225e-08
2.4661e-08
2.47068e-08
2.47365e-08
2.47423e-08
2.47708e-08
2.48806e-08
2.48776e-08
2.485e-08
2.48796e-08
2.48354e-08
2.48038e-08
2.4626e-08
2.47237e-08
2.47269e-08
2.46037e-08
2.46819e-08
2.45489e-08
2.46791e-08
2.46465e-08
2.47073e-08
2.47372e-08
2.47816e-08
2.47607e-08
2.48383e-08
2.48584e-08
2.4781e-08
2.4866e-08
2.48296e-08
2.48381e-08
2.45843e-08
2.45754e-08
2.46025e-08
2.45624e-08
2.46426e-08
2.4694e-08
2.45573e-08
2.45441e-08
2.46905e-08
2.46289e-08
2.46634e-08
2.47239e-08
2.4777e-08
2.47386e-08
2.48738e-08
2.48731e-08
2.48598e-08
2.47715e-08
2.47701e-08
2.4881e-08
2.48707e-08
2.48439e-08
2.45306e-08
2.45695e-08
2.45842e-08
2.46208e-08
2.45505e-08
2.46284e-08
2.46326e-08
2.45424e-08
2.45289e-08
2.46445e-08
2.46456e-08
2.4574e-08
2.46663e-08
2.46902e-08
2.4685e-08
2.47371e-08
2.48068e-08
2.48524e-08
2.48018e-08
2.47247e-08
2.47628e-08
2.48618e-08
2.48555e-08
2.44793e-08
2.45431e-08
2.46328e-08
2.45298e-08
2.4606e-08
2.45238e-08
2.46156e-08
2.46584e-08
2.45412e-08
2.45488e-08
2.46436e-08
2.46604e-08
2.468e-08
2.46757e-08
2.47299e-08
2.46672e-08
2.48246e-08
2.48724e-08
2.48515e-08
2.48168e-08
2.47635e-08
2.47086e-08
2.48652e-08
2.48819e-08
2.48599e-08
2.44494e-08
2.45259e-08
2.46255e-08
2.45374e-08
2.45959e-08
2.45233e-08
2.46271e-08
2.46637e-08
2.45287e-08
2.45491e-08
2.46247e-08
2.46492e-08
2.46648e-08
2.46351e-08
2.46829e-08
2.47399e-08
2.48685e-08
2.48266e-08
2.48352e-08
2.47962e-08
2.47081e-08
2.47079e-08
2.48484e-08
2.48653e-08
2.48631e-08
2.46433e-08
2.44821e-08
2.44082e-08
2.4461e-08
2.45713e-08
2.45949e-08
2.45016e-08
2.46438e-08
2.45194e-08
2.45272e-08
2.4614e-08
2.45503e-08
2.46335e-08
2.4537e-08
2.45793e-08
2.46309e-08
2.47069e-08
2.47152e-08
2.48628e-08
2.48327e-08
2.4799e-08
2.48316e-08
2.47354e-08
2.47625e-08
2.47331e-08
2.48667e-08
2.48553e-08
2.48825e-08
2.46425e-08
2.44785e-08
2.45641e-08
2.44153e-08
2.44723e-08
2.45524e-08
2.45592e-08
2.45505e-08
2.45195e-08
2.45687e-08
2.449e-08
2.45222e-08
2.45906e-08
2.45632e-08
2.46119e-08
2.45904e-08
2.45913e-08
2.46129e-08
2.4607e-08
2.47329e-08
2.48833e-08
2.48854e-08
2.48214e-08
2.48182e-08
2.47586e-08
2.47528e-08
2.4715e-08
2.47314e-08
2.48279e-08
2.48762e-08
2.48352e-08
2.45405e-08
2.45168e-08
2.45446e-08
2.45339e-08
2.44282e-08
2.44975e-08
2.44892e-08
2.45601e-08
2.45481e-08
2.45791e-08
2.45016e-08
2.45259e-08
2.43665e-08
2.4485e-08
2.46197e-08
2.45974e-08
2.46391e-08
2.45995e-08
2.45769e-08
2.45821e-08
2.45812e-08
2.47124e-08
2.48693e-08
2.48614e-08
2.48284e-08
2.48187e-08
2.47762e-08
2.47712e-08
2.46925e-08
2.47136e-08
2.48312e-08
2.48483e-08
2.45403e-08
2.45145e-08
2.4509e-08
2.45407e-08
2.44964e-08
2.44907e-08
2.44876e-08
2.45464e-08
2.45432e-08
2.45332e-08
2.44972e-08
2.45285e-08
2.44202e-08
2.44757e-08
2.45301e-08
2.45818e-08
2.45238e-08
2.46068e-08
2.45895e-08
2.45803e-08
2.45945e-08
2.45818e-08
2.4869e-08
2.48653e-08
2.48707e-08
2.48289e-08
2.48051e-08
2.47979e-08
2.4739e-08
2.47685e-08
2.47175e-08
2.48721e-08
2.48835e-08
2.48382e-08
2.45313e-08
2.44215e-08
2.44986e-08
2.43634e-08
2.45086e-08
2.42921e-08
2.43039e-08
2.42958e-08
2.45467e-08
2.45434e-08
2.44085e-08
2.44917e-08
2.45363e-08
2.44168e-08
2.45135e-08
2.44997e-08
2.42223e-08
2.45596e-08
2.43304e-08
2.46073e-08
2.45902e-08
2.45784e-08
2.4576e-08
2.46265e-08
2.48418e-08
2.48346e-08
2.48513e-08
2.48127e-08
2.48055e-08
2.47879e-08
2.47246e-08
2.47651e-08
2.46515e-08
2.48829e-08
2.48366e-08
2.48761e-08
2.45262e-08
2.44695e-08
2.4284e-08
2.44325e-08
2.44009e-08
2.43827e-08
2.44977e-08
2.43063e-08
2.44609e-08
2.45169e-08
2.45253e-08
2.45647e-08
2.45358e-08
2.45145e-08
2.45765e-08
2.44438e-08
2.44903e-08
2.45465e-08
2.4602e-08
2.45805e-08
2.45833e-08
2.45032e-08
2.46182e-08
2.48689e-08
2.48489e-08
2.48278e-08
2.48692e-08
2.48652e-08
2.48064e-08
2.48046e-08
2.47016e-08
2.47333e-08
2.46137e-08
2.46217e-08
2.46217e-08
2.48619e-08
2.48515e-08
2.4884e-08
2.48735e-08
2.48858e-08
2.48948e-08
2.44436e-08
2.44052e-08
2.44053e-08
2.44111e-08
2.44241e-08
2.44383e-08
2.4488e-08
2.44819e-08
2.45167e-08
2.45245e-08
2.45555e-08
2.45224e-08
2.44547e-08
2.43482e-08
2.44786e-08
2.45624e-08
2.44072e-08
2.45451e-08
2.46255e-08
2.45902e-08
2.45485e-08
2.45281e-08
2.44111e-08
2.48602e-08
2.48424e-08
2.48116e-08
2.48378e-08
2.48652e-08
2.47863e-08
2.47917e-08
2.46971e-08
2.4739e-08
2.46673e-08
2.4634e-08
2.46354e-08
2.46183e-08
2.48453e-08
2.48332e-08
2.4872e-08
2.48854e-08
2.48666e-08
2.48055e-08
2.48834e-08
2.49064e-08
2.44991e-08
2.43933e-08
2.44577e-08
2.44036e-08
2.45e-08
2.44093e-08
2.43006e-08
2.42553e-08
2.43344e-08
2.44932e-08
2.44971e-08
2.44584e-08
2.4521e-08
2.42667e-08
2.44743e-08
2.43891e-08
2.4501e-08
2.44031e-08
2.46194e-08
2.45679e-08
2.45481e-08
2.44878e-08
2.44558e-08
2.48794e-08
2.48216e-08
2.48392e-08
2.48058e-08
2.48855e-08
2.48527e-08
2.47771e-08
2.47278e-08
2.46893e-08
2.47381e-08
2.46548e-08
2.46358e-08
2.46379e-08
2.4635e-08
2.48777e-08
2.48847e-08
2.48777e-08
2.48739e-08
2.48803e-08
2.48695e-08
2.48901e-08
2.47968e-08
2.48821e-08
2.48985e-08
2.44788e-08
2.44266e-08
2.43627e-08
2.44035e-08
2.44474e-08
2.44076e-08
2.43371e-08
2.43145e-08
2.4264e-08
2.45115e-08
2.44915e-08
2.44594e-08
2.45034e-08
2.42588e-08
2.43167e-08
2.4545e-08
2.43329e-08
2.43376e-08
2.4453e-08
2.44367e-08
2.46276e-08
2.45021e-08
2.454e-08
2.45105e-08
2.44452e-08
2.48404e-08
2.48065e-08
2.48125e-08
2.48741e-08
2.48508e-08
2.47238e-08
2.47105e-08
2.46554e-08
2.46066e-08
2.47189e-08
2.46563e-08
2.46365e-08
2.46403e-08
2.4654e-08
2.48323e-08
2.48425e-08
2.48799e-08
2.48638e-08
2.48893e-08
2.47993e-08
2.48487e-08
2.47903e-08
2.47748e-08
2.47293e-08
2.48869e-08
2.49065e-08
2.43927e-08
2.4377e-08
2.43761e-08
2.43414e-08
2.43784e-08
2.43181e-08
2.42197e-08
2.43055e-08
2.44294e-08
2.43738e-08
2.43208e-08
2.43382e-08
2.45085e-08
2.43324e-08
2.42625e-08
2.4357e-08
2.44704e-08
2.44505e-08
2.43825e-08
2.44563e-08
2.44771e-08
2.46282e-08
2.45639e-08
2.45782e-08
2.44582e-08
2.43943e-08
2.48584e-08
2.48225e-08
2.47646e-08
2.47494e-08
2.47972e-08
2.48663e-08
2.48671e-08
2.47653e-08
2.47409e-08
2.46728e-08
2.46519e-08
2.4721e-08
2.46522e-08
2.46306e-08
2.46323e-08
2.46137e-08
2.48709e-08
2.48434e-08
2.48796e-08
2.48755e-08
2.48764e-08
2.48637e-08
2.48356e-08
2.48015e-08
2.48744e-08
2.47868e-08
2.4813e-08
2.4725e-08
2.48631e-08
2.49016e-08
2.43794e-08
2.41779e-08
2.42076e-08
2.42503e-08
2.4339e-08
2.43165e-08
2.43849e-08
2.42507e-08
2.43222e-08
2.44203e-08
2.42995e-08
2.4383e-08
2.44219e-08
2.44178e-08
2.42173e-08
2.41266e-08
2.44402e-08
2.43728e-08
2.44159e-08
2.44574e-08
2.44724e-08
2.45971e-08
2.45745e-08
2.45402e-08
2.44878e-08
2.44773e-08
2.48369e-08
2.47629e-08
2.4766e-08
2.4794e-08
2.47882e-08
2.48465e-08
2.48752e-08
2.47688e-08
2.47468e-08
2.47419e-08
2.47096e-08
2.47182e-08
2.4655e-08
2.46263e-08
2.46224e-08
2.45966e-08
2.4836e-08
2.48865e-08
2.48606e-08
2.48711e-08
2.48834e-08
2.48687e-08
2.47695e-08
2.47903e-08
2.48444e-08
2.48849e-08
2.4763e-08
2.48116e-08
2.4754e-08
2.48921e-08
2.4906e-08
2.43929e-08
2.43887e-08
2.42493e-08
2.4351e-08
2.4254e-08
2.42511e-08
2.42756e-08
2.40874e-08
2.4313e-08
2.43235e-08
2.43143e-08
2.43414e-08
2.43364e-08
2.43703e-08
2.44254e-08
2.41512e-08
2.42097e-08
2.42986e-08
2.44508e-08
2.42726e-08
2.44454e-08
2.44624e-08
2.44789e-08
2.4612e-08
2.45398e-08
2.44214e-08
2.45248e-08
2.45035e-08
2.48577e-08
2.48395e-08
2.4839e-08
2.47992e-08
2.47903e-08
2.48654e-08
2.48807e-08
2.47302e-08
2.47424e-08
2.47375e-08
2.46867e-08
2.47187e-08
2.46475e-08
2.46118e-08
2.45588e-08
2.45437e-08
2.48675e-08
2.48757e-08
2.48737e-08
2.48707e-08
2.48689e-08
2.48454e-08
2.48077e-08
2.47954e-08
2.48236e-08
2.48788e-08
2.47617e-08
2.47413e-08
2.47495e-08
2.47528e-08
2.48826e-08
2.43832e-08
2.43257e-08
2.42066e-08
2.43107e-08
2.43201e-08
2.42055e-08
2.42567e-08
2.43852e-08
2.4178e-08
2.43735e-08
2.42927e-08
2.43388e-08
2.4342e-08
2.43708e-08
2.43212e-08
2.43771e-08
2.42857e-08
2.43538e-08
2.44658e-08
2.43705e-08
2.44573e-08
2.44806e-08
2.45618e-08
2.45527e-08
2.44857e-08
2.44575e-08
2.44215e-08
2.48489e-08
2.48417e-08
2.48378e-08
2.48136e-08
2.47152e-08
2.48684e-08
2.4883e-08
2.47416e-08
2.47572e-08
2.46861e-08
2.46935e-08
2.46539e-08
2.46662e-08
2.46517e-08
2.46053e-08
2.45126e-08
2.45489e-08
2.44733e-08
2.48776e-08
2.48872e-08
2.48461e-08
2.48774e-08
2.48552e-08
2.48772e-08
2.47933e-08
2.4746e-08
2.47791e-08
2.48311e-08
2.48207e-08
2.48744e-08
2.48708e-08
2.47197e-08
2.47301e-08
2.47609e-08
2.47279e-08
2.4906e-08
2.48886e-08
2.42759e-08
2.43608e-08
2.43439e-08
2.42053e-08
2.43232e-08
2.42326e-08
2.43964e-08
2.43838e-08
2.41612e-08
2.43713e-08
2.42667e-08
2.4292e-08
2.42976e-08
2.43978e-08
2.43435e-08
2.42627e-08
2.43914e-08
2.42857e-08
2.42748e-08
2.44037e-08
2.41736e-08
2.43348e-08
2.4508e-08
2.43867e-08
2.45509e-08
2.45291e-08
2.44749e-08
2.43828e-08
2.43753e-08
2.48249e-08
2.48353e-08
2.48229e-08
2.48175e-08
2.48128e-08
2.47209e-08
2.46777e-08
2.48697e-08
2.48767e-08
2.46515e-08
2.46381e-08
2.46851e-08
2.46869e-08
2.46548e-08
2.46578e-08
2.46433e-08
2.46093e-08
2.45902e-08
2.45472e-08
2.48748e-08
2.48717e-08
2.4876e-08
2.48885e-08
2.48788e-08
2.48748e-08
2.48626e-08
2.47302e-08
2.47188e-08
2.47588e-08
2.48023e-08
2.47256e-08
2.48642e-08
2.48421e-08
2.47105e-08
2.46866e-08
2.46327e-08
2.47247e-08
2.48816e-08
2.48863e-08
2.4424e-08
2.43594e-08
2.43415e-08
2.4344e-08
2.43595e-08
2.43954e-08
2.42536e-08
2.43196e-08
2.43258e-08
2.42537e-08
2.42604e-08
2.42989e-08
2.43818e-08
2.44328e-08
2.43239e-08
2.42634e-08
2.42637e-08
2.4148e-08
2.42603e-08
2.43667e-08
2.44673e-08
2.42892e-08
2.42688e-08
2.45802e-08
2.45706e-08
2.4488e-08
2.44969e-08
2.48339e-08
2.48283e-08
2.48165e-08
2.48142e-08
2.47878e-08
2.47442e-08
2.47235e-08
2.48829e-08
2.48322e-08
2.45419e-08
2.46842e-08
2.46266e-08
2.46846e-08
2.461e-08
2.4593e-08
2.46777e-08
2.45785e-08
2.45039e-08
2.45989e-08
2.45913e-08
2.4874e-08
2.48877e-08
2.48668e-08
2.487e-08
2.48896e-08
2.48479e-08
2.48761e-08
2.47636e-08
2.46578e-08
2.46975e-08
2.46553e-08
2.48024e-08
2.47672e-08
2.47367e-08
2.4875e-08
2.48754e-08
2.4865e-08
2.48307e-08
2.46609e-08
2.46598e-08
2.46291e-08
2.46595e-08
2.46254e-08
2.49049e-08
2.44262e-08
2.43887e-08
2.43203e-08
2.43619e-08
2.4379e-08
2.42834e-08
2.42758e-08
2.43124e-08
2.43095e-08
2.42837e-08
2.42284e-08
2.41228e-08
2.41538e-08
2.40969e-08
2.44014e-08
2.43127e-08
2.42314e-08
2.42601e-08
2.41363e-08
2.43328e-08
2.42502e-08
2.43168e-08
2.43103e-08
2.4165e-08
2.45414e-08
2.45304e-08
2.45038e-08
2.45243e-08
2.48485e-08
2.48485e-08
2.47993e-08
2.48031e-08
2.48101e-08
2.48079e-08
2.47363e-08
2.47133e-08
2.48403e-08
2.48741e-08
2.45952e-08
2.4707e-08
2.4684e-08
2.4697e-08
2.46289e-08
2.46781e-08
2.46802e-08
2.45736e-08
2.45585e-08
2.45409e-08
2.45429e-08
2.48657e-08
2.48676e-08
2.4892e-08
2.48706e-08
2.48736e-08
2.48687e-08
2.48669e-08
2.47293e-08
2.46789e-08
2.46724e-08
2.46662e-08
2.47664e-08
2.48106e-08
2.47281e-08
2.48619e-08
2.48347e-08
2.48748e-08
2.48174e-08
2.46507e-08
2.45867e-08
2.46641e-08
2.46724e-08
2.48939e-08
2.418e-08
2.43839e-08
2.43196e-08
2.42354e-08
2.42737e-08
2.41395e-08
2.42831e-08
2.43454e-08
2.42926e-08
2.40495e-08
2.4308e-08
2.4257e-08
2.42648e-08
2.42254e-08
2.41662e-08
2.42056e-08
2.43071e-08
2.40943e-08
2.41216e-08
2.42002e-08
2.44375e-08
2.42957e-08
2.43717e-08
2.43942e-08
2.44294e-08
2.44957e-08
2.43895e-08
2.43753e-08
2.44227e-08
2.44145e-08
2.48424e-08
2.48634e-08
2.48157e-08
2.4778e-08
2.48082e-08
2.47895e-08
2.47749e-08
2.46604e-08
2.4869e-08
2.48634e-08
2.46934e-08
2.46522e-08
2.46696e-08
2.46395e-08
2.46364e-08
2.46401e-08
2.45462e-08
2.44762e-08
2.45978e-08
2.4398e-08
2.44259e-08
2.44584e-08
2.48713e-08
2.48876e-08
2.48714e-08
2.48706e-08
2.48553e-08
2.48907e-08
2.48563e-08
2.4684e-08
2.4711e-08
2.46705e-08
2.46798e-08
2.47463e-08
2.47431e-08
2.48022e-08
2.48198e-08
2.47199e-08
2.48581e-08
2.48436e-08
2.48866e-08
2.4876e-08
2.47124e-08
2.46772e-08
2.46532e-08
2.4905e-08
2.42634e-08
2.41323e-08
2.42313e-08
2.42273e-08
2.41904e-08
2.41774e-08
2.43026e-08
2.43621e-08
2.42807e-08
2.42182e-08
2.42898e-08
2.41906e-08
2.41586e-08
2.42138e-08
2.42743e-08
2.41909e-08
2.43045e-08
2.40795e-08
2.41352e-08
2.39952e-08
2.39893e-08
2.41356e-08
2.44506e-08
2.43748e-08
2.43997e-08
2.44615e-08
2.44038e-08
2.44534e-08
2.44232e-08
2.4422e-08
2.43769e-08
2.43856e-08
2.4868e-08
2.4854e-08
2.48638e-08
2.48409e-08
2.48133e-08
2.47864e-08
2.4739e-08
2.47471e-08
2.47111e-08
2.48545e-08
2.48897e-08
2.46837e-08
2.46208e-08
2.47074e-08
2.46343e-08
2.46131e-08
2.45772e-08
2.45144e-08
2.45853e-08
2.44465e-08
2.45308e-08
2.449e-08
2.44365e-08
2.44164e-08
2.48209e-08
2.48673e-08
2.48674e-08
2.48669e-08
2.48416e-08
2.48785e-08
2.48906e-08
2.48604e-08
2.4654e-08
2.46872e-08
2.46702e-08
2.46514e-08
2.47421e-08
2.4725e-08
2.47668e-08
2.48028e-08
2.4662e-08
2.48469e-08
2.48494e-08
2.48445e-08
2.48278e-08
2.4708e-08
2.45697e-08
2.46264e-08
2.4645e-08
2.45688e-08
2.48838e-08
2.41616e-08
2.42399e-08
2.41878e-08
2.42999e-08
2.41387e-08
2.41687e-08
2.41427e-08
2.42813e-08
2.42472e-08
2.42278e-08
2.41252e-08
2.42049e-08
2.41397e-08
2.41507e-08
2.39715e-08
2.4216e-08
2.4244e-08
2.43012e-08
2.41524e-08
2.40227e-08
2.40953e-08
2.43643e-08
2.43847e-08
2.4246e-08
2.44183e-08
2.43624e-08
2.44439e-08
2.45339e-08
2.44809e-08
2.42993e-08
2.43632e-08
2.48664e-08
2.48495e-08
2.48502e-08
2.48246e-08
2.48084e-08
2.47811e-08
2.46791e-08
2.4707e-08
2.4721e-08
2.47109e-08
2.48486e-08
2.48694e-08
2.46297e-08
2.45399e-08
2.47082e-08
2.45909e-08
2.46111e-08
2.45756e-08
2.4525e-08
2.45864e-08
2.45775e-08
2.4558e-08
2.4479e-08
2.44251e-08
2.43307e-08
2.4868e-08
2.4888e-08
2.48753e-08
2.48803e-08
2.4834e-08
2.48526e-08
2.48839e-08
2.48944e-08
2.46071e-08
2.46636e-08
2.46427e-08
2.46226e-08
2.46891e-08
2.47173e-08
2.4662e-08
2.46593e-08
2.4761e-08
2.47934e-08
2.48231e-08
2.46452e-08
2.45994e-08
2.48816e-08
2.48678e-08
2.48817e-08
2.48696e-08
2.48597e-08
2.45749e-08
2.4637e-08
2.46294e-08
2.46064e-08
2.489e-08
2.4276e-08
2.42402e-08
2.4203e-08
2.42262e-08
2.41609e-08
2.41454e-08
2.41326e-08
2.41174e-08
2.4068e-08
2.41986e-08
2.41914e-08
2.39381e-08
2.39423e-08
2.39824e-08
2.40892e-08
2.41315e-08
2.40574e-08
2.39859e-08
2.42544e-08
2.42917e-08
2.39953e-08
2.41558e-08
2.43636e-08
2.4235e-08
2.42277e-08
2.41777e-08
2.43285e-08
2.4355e-08
2.44485e-08
2.44928e-08
2.44634e-08
2.43466e-08
2.43282e-08
2.48281e-08
2.48081e-08
2.48271e-08
2.48473e-08
2.48398e-08
2.48253e-08
2.47847e-08
2.47911e-08
2.46974e-08
2.47076e-08
2.47401e-08
2.47056e-08
2.4884e-08
2.48851e-08
2.48659e-08
2.46297e-08
2.46015e-08
2.47047e-08
2.45914e-08
2.46019e-08
2.45248e-08
2.45221e-08
2.45643e-08
2.4533e-08
2.45696e-08
2.45709e-08
2.43808e-08
2.45096e-08
2.48162e-08
2.48515e-08
2.48476e-08
2.48562e-08
2.48547e-08
2.4858e-08
2.48949e-08
2.46571e-08
2.46084e-08
2.45979e-08
2.46848e-08
2.47162e-08
2.47161e-08
2.4662e-08
2.46863e-08
2.47355e-08
2.47971e-08
2.4645e-08
2.47042e-08
2.48338e-08
2.48734e-08
2.4858e-08
2.48442e-08
2.48264e-08
2.45886e-08
2.46595e-08
2.46031e-08
2.46228e-08
2.46213e-08
2.49024e-08
2.48717e-08
2.43196e-08
2.42839e-08
2.41786e-08
2.41876e-08
2.41555e-08
2.4054e-08
2.4078e-08
2.41337e-08
2.41002e-08
2.41585e-08
2.39794e-08
2.40965e-08
2.40558e-08
2.40127e-08
2.41217e-08
2.41027e-08
2.41949e-08
2.38945e-08
2.3829e-08
2.43345e-08
2.41585e-08
2.40727e-08
2.4165e-08
2.42198e-08
2.42982e-08
2.42401e-08
2.41795e-08
2.40372e-08
2.42933e-08
2.42195e-08
2.4309e-08
2.4282e-08
2.42173e-08
2.43388e-08
2.43634e-08
2.42931e-08
2.48405e-08
2.48445e-08
2.48599e-08
2.48551e-08
2.48276e-08
2.48351e-08
2.48048e-08
2.47924e-08
2.47122e-08
2.46395e-08
2.46999e-08
2.47202e-08
2.48571e-08
2.48618e-08
2.48731e-08
2.48655e-08
2.4645e-08
2.47028e-08
2.4606e-08
2.45841e-08
2.45247e-08
2.4483e-08
2.45186e-08
2.44744e-08
2.44273e-08
2.44953e-08
2.45725e-08
2.45114e-08
2.48481e-08
2.48476e-08
2.48833e-08
2.48806e-08
2.48489e-08
2.48519e-08
2.48742e-08
2.46593e-08
2.4586e-08
2.45021e-08
2.45899e-08
2.46449e-08
2.46766e-08
2.4697e-08
2.47018e-08
2.46579e-08
2.47144e-08
2.4788e-08
2.48033e-08
2.46387e-08
2.46957e-08
2.48707e-08
2.48467e-08
2.48743e-08
2.48517e-08
2.47656e-08
2.46186e-08
2.46253e-08
2.46256e-08
2.46045e-08
2.46164e-08
2.49042e-08
2.48668e-08
2.42538e-08
2.4205e-08
2.41262e-08
2.40849e-08
2.40798e-08
2.38906e-08
2.39544e-08
2.40622e-08
2.41058e-08
2.38542e-08
2.41366e-08
2.38801e-08
2.40673e-08
2.40705e-08
2.41e-08
2.42714e-08
2.3991e-08
2.41311e-08
2.38545e-08
2.40064e-08
2.43133e-08
2.41173e-08
2.41048e-08
2.40851e-08
2.42917e-08
2.41053e-08
2.4159e-08
2.4155e-08
2.4231e-08
2.41401e-08
2.42145e-08
2.4187e-08
2.43161e-08
2.43106e-08
2.42958e-08
2.42949e-08
2.43229e-08
2.43201e-08
2.48362e-08
2.482e-08
2.48624e-08
2.48725e-08
2.48289e-08
2.48003e-08
2.47942e-08
2.47445e-08
2.4767e-08
2.46819e-08
2.46817e-08
2.46605e-08
2.45656e-08
2.48738e-08
2.48712e-08
2.48632e-08
2.48116e-08
2.45883e-08
2.45611e-08
2.45798e-08
2.45416e-08
2.44387e-08
2.43942e-08
2.45315e-08
2.44949e-08
2.4532e-08
2.44424e-08
2.44127e-08
2.44301e-08
2.48479e-08
2.489e-08
2.48405e-08
2.48906e-08
2.48348e-08
2.4881e-08
2.48549e-08
2.48498e-08
2.46621e-08
2.45787e-08
2.457e-08
2.46002e-08
2.46431e-08
2.46832e-08
2.46984e-08
2.46988e-08
2.4585e-08
2.47355e-08
2.47465e-08
2.48079e-08
2.4665e-08
2.4592e-08
2.4829e-08
2.48221e-08
2.48501e-08
2.48931e-08
2.47926e-08
2.46162e-08
2.45e-08
2.45896e-08
2.46413e-08
2.45848e-08
2.45911e-08
2.4888e-08
2.48572e-08
2.40014e-08
2.4136e-08
2.41571e-08
2.41137e-08
2.41192e-08
2.39407e-08
2.40345e-08
2.40747e-08
2.39473e-08
2.40136e-08
2.40831e-08
2.39642e-08
2.40841e-08
2.40879e-08
2.42337e-08
2.40655e-08
2.41775e-08
2.41058e-08
2.40275e-08
2.38758e-08
2.40659e-08
2.40587e-08
2.39357e-08
2.40978e-08
2.40357e-08
2.41946e-08
2.41743e-08
2.412e-08
2.4188e-08
2.42757e-08
2.42978e-08
2.43314e-08
2.43067e-08
2.43169e-08
2.42857e-08
2.43372e-08
2.43245e-08
2.43221e-08
2.48425e-08
2.47517e-08
2.47713e-08
2.49052e-08
2.48524e-08
2.48449e-08
2.47517e-08
2.47469e-08
2.47327e-08
2.47636e-08
2.47335e-08
2.46861e-08
2.46705e-08
2.46184e-08
2.48661e-08
2.48709e-08
2.48663e-08
2.48749e-08
2.48208e-08
2.45591e-08
2.45812e-08
2.45464e-08
2.46069e-08
2.44512e-08
2.44828e-08
2.4506e-08
2.44538e-08
2.45112e-08
2.44232e-08
2.43824e-08
2.43751e-08
2.44305e-08
2.48161e-08
2.48789e-08
2.48461e-08
2.48938e-08
2.48572e-08
2.48622e-08
2.48727e-08
2.48744e-08
2.46089e-08
2.45736e-08
2.45853e-08
2.46023e-08
2.44716e-08
2.45322e-08
2.46883e-08
2.46918e-08
2.47508e-08
2.47022e-08
2.46578e-08
2.47569e-08
2.4791e-08
2.47966e-08
2.4599e-08
2.45487e-08
2.48581e-08
2.47912e-08
2.48461e-08
2.48927e-08
2.48623e-08
2.48069e-08
2.46114e-08
2.45249e-08
2.45701e-08
2.45791e-08
2.45694e-08
2.45667e-08
2.48448e-08
2.48527e-08
2.39935e-08
2.42613e-08
2.41544e-08
2.41084e-08
2.4158e-08
2.39998e-08
2.40851e-08
2.39687e-08
2.39559e-08
2.40387e-08
2.38968e-08
2.40018e-08
2.4104e-08
2.40451e-08
2.42525e-08
2.37995e-08
2.39983e-08
2.40167e-08
2.40921e-08
2.39927e-08
2.42612e-08
2.38258e-08
2.42199e-08
2.40632e-08
2.41122e-08
2.42649e-08
2.42917e-08
2.4015e-08
2.43187e-08
2.41889e-08
2.43568e-08
2.43125e-08
2.43325e-08
2.43578e-08
2.43283e-08
2.43253e-08
2.43887e-08
2.43811e-08
2.48315e-08
2.47512e-08
2.48161e-08
2.49041e-08
2.48277e-08
2.4854e-08
2.47554e-08
2.47424e-08
2.47952e-08
2.47141e-08
2.4678e-08
2.46981e-08
2.46583e-08
2.46975e-08
2.46237e-08
2.48828e-08
2.489e-08
2.48595e-08
2.48444e-08
2.48892e-08
2.45512e-08
2.46058e-08
2.45246e-08
2.46046e-08
2.45791e-08
2.45992e-08
2.4487e-08
2.43534e-08
2.45448e-08
2.44292e-08
2.43674e-08
2.44029e-08
2.48536e-08
2.48779e-08
2.4892e-08
2.48508e-08
2.48681e-08
2.48902e-08
2.48585e-08
2.48575e-08
2.46087e-08
2.45556e-08
2.46359e-08
2.45095e-08
2.45303e-08
2.45435e-08
2.46581e-08
2.46751e-08
2.46843e-08
2.46493e-08
2.4631e-08
2.47561e-08
2.47264e-08
2.48048e-08
2.45595e-08
2.46171e-08
2.48302e-08
2.48685e-08
2.48641e-08
2.48054e-08
2.45987e-08
2.45401e-08
2.44563e-08
2.44859e-08
2.45731e-08
2.45513e-08
2.45984e-08
2.49017e-08
2.48529e-08
2.48567e-08
2.42514e-08
2.39382e-08
2.40671e-08
2.40389e-08
2.40528e-08
2.41792e-08
2.39807e-08
2.39309e-08
2.39148e-08
2.40297e-08
2.39369e-08
2.39922e-08
2.3822e-08
2.3993e-08
2.41166e-08
2.39185e-08
2.39515e-08
2.39739e-08
2.38603e-08
2.37891e-08
2.42353e-08
2.39652e-08
2.42241e-08
2.40565e-08
2.38655e-08
2.4e-08
2.43125e-08
2.42184e-08
2.41702e-08
2.42678e-08
2.41529e-08
2.42661e-08
2.43374e-08
2.43609e-08
2.4368e-08
2.4322e-08
2.43602e-08
2.43597e-08
2.43062e-08
2.48401e-08
2.48365e-08
2.48249e-08
2.48476e-08
2.48512e-08
2.47939e-08
2.47682e-08
2.48011e-08
2.47372e-08
2.46929e-08
2.46253e-08
2.46798e-08
2.47132e-08
2.46172e-08
2.4862e-08
2.48933e-08
2.48577e-08
2.48515e-08
2.48943e-08
2.48957e-08
2.46414e-08
2.46302e-08
2.45791e-08
2.45659e-08
2.4578e-08
2.45925e-08
2.44042e-08
2.42345e-08
2.45378e-08
2.43748e-08
2.43821e-08
2.43375e-08
2.43985e-08
2.48345e-08
2.48775e-08
2.4884e-08
2.48673e-08
2.4884e-08
2.48339e-08
2.48528e-08
2.45745e-08
2.45491e-08
2.46179e-08
2.45538e-08
2.44749e-08
2.45379e-08
2.4552e-08
2.45731e-08
2.453e-08
2.46825e-08
2.46242e-08
2.46858e-08
2.46154e-08
2.46391e-08
2.46086e-08
2.47216e-08
2.47506e-08
2.47776e-08
2.4801e-08
2.46346e-08
2.484e-08
2.48715e-08
2.48563e-08
2.48738e-08
2.45931e-08
2.45028e-08
2.4543e-08
2.45795e-08
2.46034e-08
2.45321e-08
2.48371e-08
2.48441e-08
2.48652e-08
2.39118e-08
2.39977e-08
2.40562e-08
2.40115e-08
2.39824e-08
2.41318e-08
2.40733e-08
2.39327e-08
2.39817e-08
2.36953e-08
2.41726e-08
2.3927e-08
2.39671e-08
2.38508e-08
2.40907e-08
2.38096e-08
2.37507e-08
2.38705e-08
2.38087e-08
2.3958e-08
2.38702e-08
2.3872e-08
2.38704e-08
2.41255e-08
2.40849e-08
2.38898e-08
2.37422e-08
2.43013e-08
2.40119e-08
2.42638e-08
2.39734e-08
2.39016e-08
2.40248e-08
2.41632e-08
2.4348e-08
2.43903e-08
2.44325e-08
2.43171e-08
2.43379e-08
2.43774e-08
2.41409e-08
2.40902e-08
2.48467e-08
2.48283e-08
2.48683e-08
2.48193e-08
2.48701e-08
2.48571e-08
2.47963e-08
2.47774e-08
2.47401e-08
2.47223e-08
2.4663e-08
2.46781e-08
2.47026e-08
2.469e-08
2.45919e-08
2.46984e-08
2.4879e-08
2.4862e-08
2.48795e-08
2.48354e-08
2.48864e-08
2.485e-08
2.46459e-08
2.45801e-08
2.45755e-08
2.45585e-08
2.45755e-08
2.44561e-08
2.43792e-08
2.43631e-08
2.4375e-08
2.4403e-08
2.43721e-08
2.43771e-08
2.43238e-08
2.48448e-08
2.48769e-08
2.48935e-08
2.48835e-08
2.48579e-08
2.48923e-08
2.4887e-08
2.48842e-08
2.48748e-08
2.45677e-08
2.45342e-08
2.4487e-08
2.45968e-08
2.4512e-08
2.45533e-08
2.45537e-08
2.45879e-08
2.45957e-08
2.46718e-08
2.46029e-08
2.46931e-08
2.45959e-08
2.46333e-08
2.46274e-08
2.47189e-08
2.47496e-08
2.47427e-08
2.47634e-08
2.45701e-08
2.48039e-08
2.48423e-08
2.48813e-08
2.4877e-08
2.45885e-08
2.45454e-08
2.45342e-08
2.44974e-08
2.45918e-08
2.44348e-08
2.44703e-08
2.48348e-08
2.48583e-08
2.48724e-08
2.39937e-08
2.41037e-08
2.39902e-08
2.38996e-08
2.39229e-08
2.3889e-08
2.39931e-08
2.40556e-08
2.39752e-08
2.39463e-08
2.41778e-08
2.41401e-08
2.39339e-08
2.38578e-08
2.3632e-08
2.39381e-08
2.38083e-08
2.40743e-08
2.38269e-08
2.40906e-08
2.38184e-08
2.38826e-08
2.38143e-08
2.38287e-08
2.40533e-08
2.39626e-08
2.38895e-08
2.42004e-08
2.41465e-08
2.40728e-08
2.40713e-08
2.40369e-08
2.39697e-08
2.39637e-08
2.43337e-08
2.4302e-08
2.4423e-08
2.43178e-08
2.42879e-08
2.43363e-08
2.42566e-08
2.41365e-08
2.48412e-08
2.4842e-08
2.4868e-08
2.4864e-08
2.48705e-08
2.48532e-08
2.48108e-08
2.47697e-08
2.47738e-08
2.47744e-08
2.4658e-08
2.47028e-08
2.46839e-08
2.46279e-08
2.47043e-08
2.46803e-08
2.46195e-08
2.48565e-08
2.48795e-08
2.48881e-08
2.48245e-08
2.48481e-08
2.48703e-08
2.45988e-08
2.44537e-08
2.45408e-08
2.45267e-08
2.45706e-08
2.44037e-08
2.43871e-08
2.43341e-08
2.43989e-08
2.42265e-08
2.43371e-08
2.43598e-08
2.43437e-08
2.48439e-08
2.48255e-08
2.48874e-08
2.48479e-08
2.48546e-08
2.48729e-08
2.48776e-08
2.48499e-08
2.48615e-08
2.45472e-08
2.44612e-08
2.45527e-08
2.45492e-08
2.4526e-08
2.45709e-08
2.45235e-08
2.45776e-08
2.46002e-08
2.46392e-08
2.46815e-08
2.46338e-08
2.46144e-08
2.45293e-08
2.45648e-08
2.46719e-08
2.46009e-08
2.46782e-08
2.47465e-08
2.47263e-08
2.4774e-08
2.45401e-08
2.48233e-08
2.48417e-08
2.48235e-08
2.48626e-08
2.48844e-08
2.44284e-08
2.45531e-08
2.45278e-08
2.4461e-08
2.45062e-08
2.45033e-08
2.44505e-08
2.49009e-08
2.48424e-08
2.48551e-08
2.48753e-08
2.41438e-08
2.40734e-08
2.39068e-08
2.3889e-08
2.38301e-08
2.3987e-08
2.40709e-08
2.40396e-08
2.39703e-08
2.35681e-08
2.4061e-08
2.39035e-08
2.37991e-08
2.38653e-08
2.39293e-08
2.38851e-08
2.39618e-08
2.38075e-08
2.39394e-08
2.37786e-08
2.36922e-08
2.38362e-08
2.38788e-08
2.3991e-08
2.39948e-08
2.39091e-08
2.42182e-08
2.41168e-08
2.40573e-08
2.40271e-08
2.40451e-08
2.41082e-08
2.38567e-08
2.43268e-08
2.42143e-08
2.41093e-08
2.43152e-08
2.4278e-08
2.41346e-08
2.41198e-08
2.41905e-08
2.42116e-08
2.48339e-08
2.48259e-08
2.48314e-08
2.48794e-08
2.48772e-08
2.48727e-08
2.48692e-08
2.48151e-08
2.47628e-08
2.47734e-08
2.47958e-08
2.46061e-08
2.47594e-08
2.45758e-08
2.45899e-08
2.47099e-08
2.47042e-08
2.46535e-08
2.48242e-08
2.4879e-08
2.4884e-08
2.48849e-08
2.48825e-08
2.48572e-08
2.48686e-08
2.46376e-08
2.45555e-08
2.45544e-08
2.45413e-08
2.44074e-08
2.44131e-08
2.43925e-08
2.43935e-08
2.42721e-08
2.43406e-08
2.43602e-08
2.43525e-08
2.48702e-08
2.48249e-08
2.48973e-08
2.48815e-08
2.48577e-08
2.48727e-08
2.48827e-08
2.48833e-08
2.48798e-08
2.48789e-08
2.45567e-08
2.45558e-08
2.45043e-08
2.44763e-08
2.45705e-08
2.45284e-08
2.45439e-08
2.4578e-08
2.45943e-08
2.45626e-08
2.46581e-08
2.46126e-08
2.46468e-08
2.45974e-08
2.45291e-08
2.46797e-08
2.46387e-08
2.46638e-08
2.4685e-08
2.47915e-08
2.47481e-08
2.44369e-08
2.4822e-08
2.48275e-08
2.48421e-08
2.48561e-08
2.48672e-08
2.44186e-08
2.4449e-08
2.43537e-08
2.45156e-08
2.45433e-08
2.45036e-08
2.44974e-08
2.44827e-08
2.48309e-08
2.48342e-08
2.48675e-08
2.48844e-08
2.40435e-08
2.38814e-08
2.38635e-08
2.36837e-08
2.38693e-08
2.36893e-08
2.38641e-08
2.40151e-08
2.40496e-08
2.39872e-08
2.37801e-08
2.34074e-08
2.38856e-08
2.39829e-08
2.39511e-08
2.39306e-08
2.40445e-08
2.3878e-08
2.37395e-08
2.37618e-08
2.37492e-08
2.39011e-08
2.40338e-08
2.36969e-08
2.40067e-08
2.40044e-08
2.39276e-08
2.40398e-08
2.41804e-08
2.41354e-08
2.39016e-08
2.39753e-08
2.39375e-08
2.40555e-08
2.41164e-08
2.42828e-08
2.41639e-08
2.42121e-08
2.4307e-08
2.42805e-08
2.42288e-08
2.41768e-08
2.4186e-08
2.42128e-08
2.48484e-08
2.48521e-08
2.48712e-08
2.4878e-08
2.48692e-08
2.48716e-08
2.47954e-08
2.48016e-08
2.47448e-08
2.47999e-08
2.46695e-08
2.47082e-08
2.465e-08
2.45551e-08
2.45474e-08
2.4661e-08
2.46714e-08
2.48235e-08
2.48701e-08
2.48838e-08
2.48632e-08
2.48839e-08
2.48727e-08
2.48685e-08
2.45605e-08
2.46012e-08
2.4416e-08
2.44134e-08
2.43334e-08
2.45906e-08
2.44327e-08
2.43954e-08
2.43975e-08
2.43471e-08
2.43319e-08
2.43674e-08
2.43638e-08
2.48536e-08
2.48449e-08
2.48711e-08
2.4825e-08
2.48651e-08
2.4869e-08
2.48694e-08
2.48815e-08
2.48688e-08
2.48665e-08
2.4538e-08
2.45459e-08
2.44303e-08
2.45267e-08
2.45219e-08
2.44667e-08
2.44731e-08
2.44769e-08
2.4556e-08
2.45742e-08
2.45739e-08
2.45948e-08
2.45942e-08
2.4536e-08
2.4608e-08
2.45992e-08
2.4504e-08
2.47333e-08
2.46651e-08
2.47303e-08
2.4744e-08
2.47937e-08
2.48e-08
2.48322e-08
2.48477e-08
2.48426e-08
2.48577e-08
2.48718e-08
2.48646e-08
2.43755e-08
2.44419e-08
2.44171e-08
2.4511e-08
2.45452e-08
2.44751e-08
2.43539e-08
2.44856e-08
2.48282e-08
2.48519e-08
2.48592e-08
2.4883e-08
2.37945e-08
2.39062e-08
2.39244e-08
2.39298e-08
2.37439e-08
2.39934e-08
2.37706e-08
2.39121e-08
2.39058e-08
2.39622e-08
2.3519e-08
2.38168e-08
2.38912e-08
2.39594e-08
2.3981e-08
2.36655e-08
2.40008e-08
2.40336e-08
2.39049e-08
2.38281e-08
2.3998e-08
2.39535e-08
2.39813e-08
2.38701e-08
2.39384e-08
2.38366e-08
2.4054e-08
2.39683e-08
2.3997e-08
2.4159e-08
2.41368e-08
2.40347e-08
2.40662e-08
2.38934e-08
2.37423e-08
2.41141e-08
2.42102e-08
2.43227e-08
2.43785e-08
2.43806e-08
2.43217e-08
2.42797e-08
2.42558e-08
2.42123e-08
2.41859e-08
2.48588e-08
2.48509e-08
2.48782e-08
2.48922e-08
2.48725e-08
2.48677e-08
2.48376e-08
2.48292e-08