/*--------------------------------*- C++ -*----------------------------------*\
| =========                 |                                                 |
| \\      /  F ield         | OpenFOAM: The Open Source CFD Toolbox           |
|  \\    /   O peration     | Version:  v2012                                 |
|   \\  /    A nd           | Website:  www.openfoam.com                      |
|    \\/     M anipulation  |                                                 |
\*---------------------------------------------------------------------------*/
FoamFile
{
    version     2.0;
    format      ascii;
    class       volVectorField;
    location    "1.8";
    object      U;
}
// * * * * * * * * * * * * * * * * * * * * * * * * * * * * * * * * * * * * * //

dimensions      [0 1 -1 0 0 0 0];


internalField   nonuniform List<vector> 
13611
(
(9.00317 0.175903 7.50758e-22)
(9.15121 0.0886182 -1.23661e-21)
(9.31968 -0.745188 0)
(9.40652 -0.45527 1.25645e-21)
(9.01809 -0.272214 0)
(8.74839 -0.263619 -5.71505e-22)
(8.8426 -0.0770657 1.67374e-22)
(9.59717 -0.237872 0)
(8.81611 -0.324767 -6.21714e-21)
(8.92867 -0.291944 3.68849e-22)
(8.67747 -0.221998 -4.40306e-22)
(8.83439 0.223117 2.6425e-21)
(8.92513 -0.185188 2.32379e-21)
(9.73802 -0.216458 0)
(8.78502 -0.32049 2.20707e-21)
(8.96314 -0.177012 2.53587e-21)
(8.66584 -0.24426 0)
(8.73602 -0.120882 -5.86979e-21)
(8.80823 0.20034 9.36556e-23)
(8.84294 -0.247357 -4.2712e-23)
(9.62411 -0.0919471 4.35871e-22)
(8.88619 -0.299036 7.63368e-22)
(8.82873 -0.320532 5.7089e-23)
(8.75213 -0.299059 1.34387e-21)
(8.63961 -0.216922 0)
(8.59341 -0.151519 1.36056e-21)
(8.64845 -0.110711 3.71919e-23)
(8.80503 -0.244577 0)
(9.38824 -0.0710607 4.3943e-22)
(8.89569 -0.282659 -3.57523e-22)
(8.82617 -0.312311 0)
(8.79776 -0.29867 5.29166e-23)
(8.73816 -0.26678 0)
(8.56354 -0.244517 0)
(8.57473 -0.179542 0)
(8.52503 -0.0781332 -1.79901e-21)
(8.7512 -0.169633 -4.55614e-22)
(9.6314 -0.171258 -2.98189e-22)
(8.8661 -0.314264 1.71082e-22)
(8.80605 -0.319378 5.32471e-22)
(8.79901 -0.315708 4.94583e-24)
(8.69986 -0.284223 0)
(8.58713 -0.262266 0)
(8.52292 -0.232642 -1.13698e-21)
(8.35962 -0.0738482 5.09159e-22)
(8.76958 -0.200682 9.78746e-22)
(9.30512 -0.199535 0)
(8.9727 -0.227856 7.60016e-25)
(8.82381 -0.327321 9.81939e-22)
(8.88542 -0.339494 2.59338e-22)
(8.77052 -0.344211 -1.40402e-22)
(8.76625 -0.335731 -5.19324e-24)
(8.69434 -0.318385 0)
(8.56343 -0.280652 -2.94745e-23)
(8.51563 -0.280031 -9.75057e-22)
(8.48986 -0.243777 7.19729e-22)
(8.51747 -0.112202 0)
(8.61383 -0.249465 0)
(9.38939 -0.167463 0)
(9.07231 -0.239839 -5.09102e-22)
(8.83616 -0.363055 1.83234e-23)
(8.86912 -0.373359 2.57492e-22)
(8.77452 -0.368817 -5.12089e-22)
(8.7335 -0.352238 -5.37749e-24)
(8.91109 -0.391219 2.77387e-22)
(8.66893 -0.329018 -5.36222e-24)
(8.711 -0.344438 -2.82562e-22)
(8.61846 -0.313067 3.90257e-23)
(8.50598 -0.291831 1.53836e-22)
(8.44672 -0.277694 2.84071e-21)
(8.4442 -0.111017 -2.62192e-22)
(8.59417 -0.285486 0)
(9.1307 -0.236492 0)
(8.77089 -0.185742 -8.92181e-22)
(8.81251 -0.387954 -7.89057e-23)
(8.88041 -0.39036 -2.178e-23)
(8.74256 -0.383583 1.57185e-23)
(8.78822 -0.388535 -4.48175e-22)
(8.72456 -0.385156 -6.84512e-23)
(8.66226 -0.358821 -3.89661e-23)
(8.68782 -0.363512 -2.8371e-22)
(8.60835 -0.337667 -2.97465e-22)
(8.46022 -0.297677 1.68791e-21)
(8.57139 -0.330316 -2.09155e-22)
(8.40115 -0.27468 0)
(8.45934 -0.177964 3.50499e-24)
(8.47907 -0.300182 0)
(9.05241 -0.364715 -1.46825e-22)
(8.86114 -0.255653 -3.19178e-22)
(8.81786 -0.427464 -6.27064e-23)
(8.86493 -0.416761 2.76276e-23)
(8.73435 -0.415266 -2.41891e-23)
(8.76077 -0.417945 -2.80083e-23)
(8.70131 -0.403484 -9.89378e-23)
(8.88607 -0.435637 6.24957e-23)
(8.64116 -0.371217 5.62755e-23)
(8.68259 -0.396717 1.9979e-22)
(8.62003 -0.366409 -3.48438e-23)
(8.50858 -0.325398 -1.41139e-22)
(8.56411 -0.345921 5.11134e-22)
(8.40763 -0.302358 3.99797e-22)
(8.40105 -0.183473 1.01866e-22)
(8.45934 -0.312826 -3.65805e-22)
(9.08202 -0.133237 8.58e-23)
(8.70484 -0.256603 -1.00305e-22)
(8.83961 -0.432678 0)
(8.79068 -0.454932 4.67363e-24)
(8.70043 -0.436718 -1.26276e-22)
(8.7633 -0.453303 0)
(8.6835 -0.434334 0)
(8.87273 -0.460954 -5.82238e-24)
(8.88097 -0.47018 0)
(8.62937 -0.406323 2.63113e-22)
(8.65371 -0.416091 2.94561e-22)
(8.59605 -0.385268 5.09277e-23)
(8.49744 -0.340469 -5.32203e-22)
(8.55459 -0.374891 0)
(8.4713 -0.339681 3.82431e-22)
(8.37955 -0.306045 0)
(8.32231 -0.176114 0)
(8.4392 -0.271779 -2.43429e-22)
(8.35929 -0.302595 -2.57632e-23)
(9.01518 -0.363447 -3.95935e-23)
(8.8533 -0.161099 3.45058e-23)
(8.73425 -0.297344 0)
(8.84115 -0.462066 -4.84877e-24)
(8.7772 -0.487879 -4.75888e-24)
(8.70731 -0.464045 0)
(8.73782 -0.469357 -2.92441e-23)
(8.65506 -0.443878 3.57545e-22)
(8.87337 -0.499587 1.11342e-23)
(8.60019 -0.424568 1.09448e-22)
(8.58191 -0.416319 -2.76498e-23)
(8.56672 -0.390522 2.13005e-23)
(8.52284 -0.379331 2.55378e-22)
(8.47051 -0.358631 -3.79371e-24)
(8.43421 -0.343977 0)
(8.3385 -0.23143 0)
(8.39134 -0.268823 -7.62858e-23)
(8.35427 -0.317888 3.41007e-23)
(9.14519 -0.263648 -4.15807e-23)
(8.68242 -0.190191 -7.00563e-23)
(8.56409 -0.302137 -1.58633e-24)
(8.82878 -0.484926 9.70649e-24)
(8.75356 -0.504085 0)
(8.80145 -0.496564 1.01119e-23)
(8.68623 -0.483396 0)
(8.72292 -0.492457 -2.66255e-23)
(8.63897 -0.459484 3.70223e-22)
(8.8472 -0.508385 8.64458e-25)
(8.88672 -0.517054 -1.75932e-24)
(8.59514 -0.454779 7.06783e-23)
(8.55503 -0.430224 0)
(8.53338 -0.415018 0)
(8.49993 -0.394241 3.31263e-22)
(8.46768 -0.377999 -3.20479e-24)
(8.41839 -0.349497 -7.77628e-24)
(8.29801 -0.237835 0)
(8.34966 -0.244062 4.87184e-23)
(8.32107 -0.290816 -3.92658e-23)
(8.39627 -0.343141 0)
(8.33366 -0.317475 2.86317e-23)
(8.93174 -0.271314 0)
(8.75136 -0.151262 -2.58089e-23)
(8.61039 -0.295308 2.75416e-24)
(8.72777 -0.503968 -1.83369e-23)
(8.75716 -0.537179 0)
(8.79918 -0.530755 -1.0922e-23)
(8.66044 -0.493813 0)
(8.69574 -0.503572 0)
(8.6113 -0.465975 2.76033e-23)
(8.64513 -0.483607 -6.10004e-23)
(8.84107 -0.537033 3.85764e-25)
(8.88183 -0.542354 -9.23172e-24)
(8.56985 -0.460691 8.02053e-24)
(8.55463 -0.451871 7.47746e-23)
(8.51751 -0.428714 0)
(8.48105 -0.395997 0)
(8.49607 -0.420735 -1.44925e-22)
(8.43618 -0.389714 0)
(8.41661 -0.379013 -4.29063e-24)
(8.44717 -0.268732 0)
(8.31584 -0.25088 9.60413e-23)
(8.29391 -0.293523 0)
(8.38674 -0.356987 -3.37061e-23)
(8.34362 -0.332396 -1.03065e-22)
(9.0263 -0.210953 1.86854e-24)
(8.64524 -0.149913 0)
(8.71366 -0.537272 -1.60236e-23)
(8.77621 -0.543989 0)
(8.72925 -0.55409 0)
(8.81663 -0.545225 -1.07044e-23)
(8.65034 -0.52156 0)
(8.68673 -0.522763 0)
(8.59814 -0.494289 3.18395e-23)
(8.61457 -0.50118 -6.04877e-23)
(8.85764 -0.552748 1.43051e-23)
(8.89828 -0.552069 -1.11426e-23)
(8.56208 -0.482054 -6.1098e-23)
(8.53202 -0.454151 7.38184e-23)
(8.45731 -0.412388 0)
(8.48219 -0.434874 -1.36255e-22)
(8.4324 -0.412804 0)
(8.3979 -0.385442 0)
(8.43154 -0.2653 3.08162e-23)
(8.30558 -0.243373 0)
(8.27218 -0.282398 0)
(8.31944 -0.320548 4.22942e-24)
(8.36704 -0.350699 -1.39646e-22)
(8.39116 -0.37581 -3.40915e-23)
(8.78307 -0.128968 -2.95401e-23)
(8.84933 -0.23369 0)
(8.49628 -0.220656 0)
(8.69432 -0.542485 6.5035e-25)
(8.77373 -0.569165 0)
(8.7309 -0.573973 -3.47571e-24)
(8.81124 -0.576091 0)
(8.62875 -0.534139 0)
(8.66472 -0.529596 0)
(8.57176 -0.500357 5.49364e-23)
(8.60851 -0.527238 0)
(8.85624 -0.58069 1.6018e-23)
(8.90079 -0.582333 -1.70097e-23)
(8.53709 -0.488019 -4.03871e-23)
(8.52322 -0.470941 -3.63738e-23)
(8.45585 -0.429777 -1.07076e-22)
(8.49136 -0.460998 1.09568e-22)
(8.41565 -0.424311 0)
(8.3808 -0.400075 0)
(8.36242 -0.254493 3.54912e-23)
(8.26226 -0.255145 3.12119e-23)
(8.2523 -0.288842 -1.12345e-23)
(8.31107 -0.331411 0)
(8.35966 -0.363276 4.66458e-23)
(8.36933 -0.380298 4.05387e-23)
(8.68669 -0.197556 -2.9476e-23)
(8.93986 -0.131148 0)
(8.38985 -0.189536 -1.21622e-24)
(8.67524 -0.560167 0)
(8.75427 -0.58035 -5.59062e-24)
(8.7909 -0.584194 0)
(8.71407 -0.588408 0)
(8.82962 -0.592147 0)
(8.62166 -0.556635 -4.47396e-23)
(8.65809 -0.554244 3.75443e-23)
(8.55417 -0.523369 5.07827e-23)
(8.58647 -0.537793 0)
(8.87649 -0.593985 -4.43734e-26)
(8.52328 -0.506553 8.40275e-24)
(8.50386 -0.472734 4.85158e-23)
(8.44303 -0.445545 -1.01356e-22)
(8.47042 -0.47297 5.5117e-23)
(8.39996 -0.423068 1.99907e-23)
(8.42199 -0.443553 -3.46922e-23)
(8.38789 -0.413064 0)
(8.35777 -0.394833 8.38253e-23)
(8.36601 -0.223385 -1.51722e-24)
(8.24033 -0.25389 0)
(8.22975 -0.277964 7.20788e-23)
(8.27359 -0.308269 -1.26775e-23)
(8.29156 -0.325535 0)
(8.32662 -0.355562 0)
(8.33808 -0.365928 0)
(8.73685 -0.125657 1.71223e-23)
(8.45632 -0.217918 0)
(8.80812 -0.204681 0)
(8.67547 -0.580436 -3.03472e-23)
(8.75425 -0.604517 -1.47901e-23)
(8.777 -0.607187 0)
(8.71787 -0.617423 6.79697e-24)
(8.69239 -0.594325 4.09867e-24)
(8.82661 -0.620598 0)
(8.63523 -0.564901 3.57359e-23)
(8.59821 -0.568572 -4.30825e-23)
(8.5285 -0.524295 5.85491e-23)
(8.56374 -0.539948 1.68657e-24)
(8.58402 -0.563513 0)
(8.87338 -0.615709 0)
(8.49589 -0.512274 -6.20844e-23)
(8.48734 -0.499511 -5.74068e-23)
(8.45123 -0.468914 1.04864e-22)
(8.46611 -0.498364 7.08621e-23)
(8.38321 -0.440965 1.01116e-22)
(8.40429 -0.462502 -1.37009e-22)
(8.36374 -0.425827 1.40621e-23)
(8.33595 -0.397764 1.85383e-22)
(8.32004 -0.220395 -8.41537e-24)
(8.25045 -0.236323 2.48889e-23)
(8.19717 -0.266999 0)
(8.21119 -0.283235 4.47396e-23)
(8.25904 -0.314935 0)
(8.27847 -0.339089 -2.16038e-24)
(8.30319 -0.363707 -6.09455e-24)
(8.32019 -0.386088 5.05028e-23)
(8.52822 -0.1356 -3.01281e-23)
(8.39314 -0.212879 -3.91009e-23)
(8.77696 -0.269138 0)
(8.64696 -0.592873 -2.85003e-23)
(8.73554 -0.618496 -4.55413e-24)
(8.78212 -0.629564 0)
(8.69567 -0.635138 1.76906e-23)
(8.68043 -0.626791 1.97173e-23)
(8.80724 -0.635092 0)
(8.84878 -0.630215 0)
(8.62859 -0.586603 0)
(8.59075 -0.591146 0)
(8.50924 -0.539865 4.63586e-23)
(8.5508 -0.560559 4.91626e-23)
(8.56159 -0.572706 0)
(8.89462 -0.636089 -9.22298e-25)
(8.91651 -0.635388 5.71049e-24)
(8.48561 -0.530734 0)
(8.4255 -0.487312 5.53678e-23)
(8.44382 -0.511412 9.43543e-23)
(8.36328 -0.442548 9.72091e-23)
(8.38316 -0.458515 1.24843e-22)
(8.40465 -0.484637 -8.09416e-23)
(8.34466 -0.42504 -9.86372e-24)
(8.33388 -0.412242 0)
(8.33849 -0.193888 -6.93851e-23)
(8.19692 -0.232433 2.96274e-23)
(8.18484 -0.268616 0)
(8.23855 -0.302352 0)
(8.26035 -0.334314 2.01761e-23)
(8.28394 -0.356859 -1.45696e-23)
(8.28407 -0.38186 5.6138e-24)
(8.29699 -0.390694 2.33517e-23)
(8.54289 -0.142458 5.12546e-24)
(8.80842 -0.0670463 0)
(8.64139 -0.621671 0)
(8.74026 -0.644039 1.01623e-24)
(8.76329 -0.64576 0)
(8.69929 -0.65274 1.41966e-23)
(8.65728 -0.636404 0)
(8.81498 -0.660706 3.61939e-24)
(8.85635 -0.65207 -7.66745e-24)
(8.60449 -0.598693 -5.45007e-25)
(8.56497 -0.603488 9.62051e-25)
(8.51312 -0.559001 -2.63252e-23)
(8.53016 -0.569526 6.30248e-23)
(8.55075 -0.592362 0)
(8.88804 -0.656867 -6.12742e-24)
(8.93103 -0.664177 0)
(8.46445 -0.543502 2.67092e-23)
(8.41796 -0.509423 1.98281e-23)
(8.44416 -0.529352 5.84957e-25)
(8.34103 -0.456073 3.08366e-24)
(8.35923 -0.473146 4.24703e-23)
(8.37711 -0.500328 -7.59431e-24)
(8.32483 -0.440883 6.89017e-23)
(8.31282 -0.417469 0)
(8.29948 -0.190899 -6.22542e-23)
(8.16392 -0.248176 -7.63815e-23)
(8.20335 -0.218307 -4.52985e-23)
(8.20859 -0.290749 0)
(8.22444 -0.306694 0)
(8.23247 -0.340854 2.72704e-23)
(8.25027 -0.369992 -1.67642e-23)
(8.25365 -0.385814 3.67422e-24)
(8.29483 -0.408739 0)
(8.4755 -0.14543 0)
(8.7789 -0.230012 0)
(8.59424 -0.0312863 0)
(8.61465 -0.633269 2.50272e-25)
(8.72537 -0.658194 0)
(8.77384 -0.667056 1.05909e-23)
(8.6876 -0.668879 1.86525e-23)
(8.65121 -0.658251 1.37703e-23)
(8.83158 -0.678427 0)
(8.80098 -0.671585 1.45489e-23)
(8.85002 -0.67574 6.05467e-24)
(8.59689 -0.62478 -4.79305e-25)
(8.55822 -0.625785 -1.70878e-23)
(8.48575 -0.580061 -3.8836e-23)
(8.51591 -0.591393 -2.07104e-23)
(8.52503 -0.600249 0)
(8.89665 -0.684279 -4.61354e-25)
(8.91927 -0.685194 -9.33374e-24)
(8.46463 -0.574351 8.01894e-24)
(8.45209 -0.539163 4.13121e-24)
(8.39605 -0.517738 2.47862e-24)
(8.419 -0.544127 1.61653e-23)
(8.32239 -0.455008 8.64397e-23)
(8.33836 -0.469867 0)
(8.35491 -0.496032 1.38633e-23)
(8.37461 -0.516483 -1.42969e-24)
(8.30691 -0.435791 -8.2566e-24)
(8.30548 -0.17299 0)
(8.15466 -0.252562 -8.30972e-23)
(8.16843 -0.218962 -5.1445e-23)
(8.18957 -0.29319 -2.0775e-24)
(8.21755 -0.327621 -4.47323e-23)
(8.21933 -0.354925 1.93046e-23)
(8.23106 -0.370166 2.3454e-23)
(8.24752 -0.397133 -2.88243e-23)
(8.27093 -0.418279 -1.59957e-23)
(8.36456 -0.153021 0)
(8.91126 -0.179595 1.78399e-23)
(8.48603 -0.0512932 -3.85142e-23)
(8.61107 -0.654275 1.86472e-25)
(8.72792 -0.682311 0)
(8.76459 -0.690644 1.39042e-23)
(8.66437 -0.674018 -5.01161e-24)
(8.70322 -0.688715 1.08592e-23)
(8.63008 -0.666316 1.26808e-23)
(8.8217 -0.70001 0)
(8.80331 -0.699398 0)
(8.87333 -0.69804 1.57736e-23)
(8.57294 -0.635019 0)
(8.53496 -0.634146 9.00967e-24)
(8.48669 -0.5994 -2.18648e-23)
(8.51798 -0.622707 2.34827e-23)
(8.93735 -0.709658 -2.6958e-23)
(8.43978 -0.591241 0)
(8.42531 -0.55765 1.39421e-23)
(8.38424 -0.5403 3.36767e-23)
(8.395 -0.551179 0)
(8.29901 -0.466097 0)
(8.31548 -0.482807 1.67685e-23)
(8.33072 -0.507387 -1.42786e-23)
(8.35779 -0.527299 -2.2801e-23)
(8.28389 -0.443688 -1.42252e-23)
(8.22172 -0.18738 0)
(8.13191 -0.237181 4.50072e-23)
(8.1762 -0.280383 -1.58474e-24)
(8.16544 -0.205678 0)
(8.13813 -0.227707 0)
(8.17978 -0.312121 2.70283e-23)
(8.19104 -0.327531 -5.33674e-23)
(8.19881 -0.360114 -7.66086e-25)
(8.21289 -0.381045 0)
(8.22399 -0.402463 1.58901e-23)
(8.25566 -0.41537 -4.27478e-23)
(8.26643 -0.43844 0)
(8.28891 -0.150007 0)
(8.60332 -0.0438034 -2.97485e-24)
(8.77319 -0.135708 0)
(8.33737 -0.127891 -3.01185e-23)
(8.00227 0.0393196 0)
(7.0379 0.0419074 -3.50454e-22)
(8.58926 -0.668745 5.11179e-24)
(8.74165 -0.695147 0)
(8.78047 -0.711694 1.46114e-23)
(8.66058 -0.696785 -8.63099e-25)
(8.7006 -0.710266 0)
(8.62333 -0.691711 -9.98007e-25)
(8.83813 -0.719314 -1.48029e-23)
(8.88167 -0.719069 -3.78508e-24)
(8.57134 -0.661326 3.10039e-23)
(8.53335 -0.657019 2.57093e-23)
(8.47803 -0.616689 -3.68021e-23)
(8.49465 -0.629963 -3.33074e-25)
(8.96639 -0.708137 0)
(8.92541 -0.724258 -2.95853e-23)
(8.42059 -0.582716 -3.54957e-23)
(8.44103 -0.610554 0)
(8.36486 -0.542757 2.7553e-23)
(8.38848 -0.573761 0)
(8.27899 -0.461912 0)
(8.29584 -0.481297 0)
(8.31197 -0.501446 1.35331e-23)
(8.32574 -0.526157 -1.62157e-23)
(8.33907 -0.531736 -1.84665e-23)
(8.21751 -0.171526 0)
(8.1254 -0.246496 4.33456e-23)
(8.15398 -0.285223 3.76482e-23)
(8.13048 -0.20752 0)
(8.12273 -0.222726 4.10576e-23)
(8.15125 -0.314365 2.8368e-23)
(8.17539 -0.341185 5.85173e-23)
(8.19611 -0.378612 0)
(8.18033 -0.355319 3.92447e-23)
(8.20857 -0.393483 0)
(8.21538 -0.421954 1.44239e-23)
(8.23264 -0.42685 2.98769e-23)
(8.24371 -0.449128 -4.10352e-23)
(8.63623 -0.064425 2.80377e-23)
(8.80833 -0.102287 1.63209e-23)
(8.24917 -0.136408 -4.7405e-23)
(8.0241 0.0154454 0)
(7.97349 0.0383451 0)
(7.89522 0.045946 1.24738e-22)
(7.78021 0.0875728 -2.17506e-22)
(7.04499 0.033812 -6.16857e-22)
(8.59728 -0.691991 5.34602e-24)
(8.7414 -0.722649 -3.32563e-23)
(8.78489 -0.728504 0)
(8.67447 -0.713643 1.94465e-24)
(8.636 -0.703449 1.78483e-24)
(8.71775 -0.729551 0)
(8.86444 -0.727298 -1.81384e-23)
(8.82806 -0.740826 -2.06477e-23)
(8.90497 -0.730255 8.44848e-24)
(8.5494 -0.670065 5.70537e-23)
(8.50975 -0.663726 0)
(8.46107 -0.618921 -3.18176e-23)
(8.49402 -0.651585 -1.57873e-25)
(8.93374 -0.745215 -1.15569e-23)
(8.39955 -0.585897 -2.85259e-23)
(8.42696 -0.624142 4.26436e-23)
(8.3525 -0.554299 -1.36497e-23)
(8.36801 -0.581863 0)
(8.25557 -0.472575 4.97366e-23)
(8.27742 -0.491096 -2.67448e-23)
(8.28843 -0.51203 -1.86945e-23)
(8.30081 -0.536116 0)
(8.3327 -0.549476 3.21903e-24)
(8.16011 -0.181338 0)
(8.10731 -0.238097 -1.87548e-24)
(8.1398 -0.272737 -2.64088e-23)
(8.13859 -0.303392 8.67944e-23)
(8.11752 -0.200911 -4.06191e-23)
(8.10818 -0.225025 4.60835e-23)
(8.14104 -0.328478 0)
(8.15427 -0.339686 2.62764e-23)
(8.1757 -0.383605 0)
(8.15749 -0.367599 0)
(8.18271 -0.403919 -3.33126e-23)
(8.1918 -0.428669 -5.31218e-24)
(8.22673 -0.442696 3.61166e-23)
(8.23674 -0.467354 -4.61714e-23)
(8.52965 -0.128621 -2.60132e-23)
(8.66382 -0.113106 0)
(8.28077 -0.133832 -6.5926e-23)
(8.16353 -0.164575 0)
(8.01656 0.0048973 0)
(7.89464 0.0418747 1.70563e-22)
(8.00166 0.0333445 -2.08453e-22)
(7.88818 0.0481696 1.19202e-22)
(7.98507 0.0616103 1.93161e-22)
(7.01076 0.0136959 4.21061e-23)
(8.58254 -0.707436 -9.84571e-24)
(8.76101 -0.737845 -3.50235e-23)
(8.80406 -0.743711 0)
(8.66725 -0.740386 3.2061e-23)
(8.62952 -0.723935 3.10222e-23)
(8.70989 -0.74546 1.6982e-23)
(8.86627 -0.75882 -4.09875e-23)
(8.84291 -0.767132 -3.10421e-23)
(8.90212 -0.761525 8.97223e-24)
(8.54356 -0.691894 2.7143e-23)
(8.50352 -0.680733 0)
(8.45711 -0.644909 0)
(8.47053 -0.659272 0)
(8.95444 -0.742886 1.88622e-24)
(8.91834 -0.76687 0)
(8.38628 -0.600895 -3.81709e-24)
(8.43676 -0.64926 1.40672e-23)
(8.40687 -0.629641 4.25686e-23)
(8.35377 -0.574273 -2.48505e-23)
(8.36351 -0.598016 -3.52464e-24)
(8.2551 -0.487857 4.27003e-23)
(8.2732 -0.506807 -2.2034e-23)
(8.28389 -0.531256 -1.61387e-23)
(8.29804 -0.551558 0)
(8.31813 -0.556831 0)
(8.09203 -0.241875 -2.99148e-23)
(8.1158 -0.277055 8.54209e-24)
(8.11198 -0.30459 5.51951e-23)
(8.09847 -0.200647 -2.34265e-23)
(8.09285 -0.218904 -4.60607e-23)
(8.11371 -0.335288 -1.84833e-23)
(8.13401 -0.352923 0)
(8.1563 -0.379979 0)
(8.16772 -0.396906 0)
(8.1353 -0.36527 0)
(8.17548 -0.422358 -2.58809e-23)
(8.18425 -0.443903 -2.35568e-24)
(8.20229 -0.45019 -4.32108e-23)
(8.2136 -0.474435 0)
(8.57055 -0.11508 1.58347e-24)
(8.68696 -0.131377 0)
(8.17571 -0.127897 -2.24139e-23)
(8.12633 -0.164902 -2.74706e-23)
(8.03261 0.0154278 0)
(7.88148 0.0422809 0)
(7.94891 0.0354139 -2.08224e-22)
(7.92278 0.0578113 0)
(7.90537 0.052037 -4.92874e-23)
(7.97243 0.062292 4.17241e-23)
(7.80175 0.0294184 2.03161e-22)
(7.0215 -0.00884283 3.75844e-22)
(8.55811 -0.7098 3.14347e-23)
(8.59219 -0.727507 -2.15648e-23)
(8.7578 -0.759588 -1.2479e-23)
(8.79684 -0.773475 -2.20579e-23)
(8.68452 -0.756871 3.82314e-23)
(8.64367 -0.743433 8.38176e-24)
(8.6114 -0.729834 -1.2024e-25)
(8.71973 -0.766777 1.77171e-23)
(8.881 -0.771264 -4.26703e-23)
(8.83758 -0.780273 -1.00403e-23)
(8.52179 -0.695866 0)
(8.48421 -0.692428 0)
(8.46585 -0.683064 0)
(8.98417 -0.76208 0)
(8.96091 -0.767471 -7.9061e-24)
(8.92736 -0.782738 -6.82378e-24)
(8.39146 -0.621356 1.43968e-23)
(8.42473 -0.663388 1.96211e-24)
(8.40229 -0.656868 1.82659e-24)
(8.33107 -0.583128 -4.53577e-24)
(8.34601 -0.608702 0)
(8.23873 -0.500643 4.53988e-24)
(8.24939 -0.514621 2.10122e-23)
(8.26232 -0.537981 0)
(8.2829 -0.56752 0)
(8.31638 -0.575191 0)
(8.08083 -0.228249 1.21105e-23)
(8.09273 -0.255152 -4.4142e-23)
(8.09997 -0.270621 -3.95236e-24)
(8.10458 -0.295679 3.94959e-23)
(8.09446 -0.317431 0)
(8.08872 -0.187364 2.15623e-23)
(8.09043 -0.207948 -4.42936e-23)
(8.09329 -0.330526 1.22695e-23)
(8.10731 -0.349402 -1.94442e-23)
(8.13365 -0.391652 0)
(8.1401 -0.402587 3.55968e-23)
(8.11166 -0.375733 0)
(8.15125 -0.428318 5.3073e-23)
(8.16208 -0.450636 4.26485e-24)
(8.19636 -0.466891 -4.34431e-23)
(8.20529 -0.492876 -1.51407e-23)
(8.44271 -0.121285 -5.56312e-24)
(8.69202 -0.07513 4.90929e-24)
(8.12618 -0.144152 -2.7512e-23)
(8.23109 -0.1258 -1.45652e-23)
(8.09494 -0.17512 0)
(8.00933 0.00463822 -1.16023e-23)
(7.86909 0.0321951 0)
(7.89228 0.0533816 -2.21236e-24)
(7.94624 0.0243189 -1.40352e-22)
(7.951 0.059677 4.14339e-23)
(7.90752 0.0571375 0)
(7.99962 0.0670381 0)
(7.95243 0.00953222 0)
(7.05162 -0.00630288 2.80372e-22)
(8.54936 -0.733591 -3.05934e-23)
(8.58166 -0.744621 -2.25793e-23)
(8.77542 -0.779401 -2.01046e-23)
(8.73875 -0.77036 1.12658e-23)
(8.81244 -0.791088 -3.15135e-23)
(8.68485 -0.777702 0)
(8.63549 -0.767077 -6.10693e-24)
(8.61077 -0.749898 1.65293e-23)
(8.70555 -0.782536 0)
(8.88567 -0.79608 2.47377e-23)
(8.84477 -0.802766 0)
(8.51596 -0.715539 -1.49586e-23)
(8.49164 -0.713805 -1.44405e-24)
(8.44876 -0.689337 0)
(8.95356 -0.782001 -1.89373e-25)
(8.93013 -0.802885 1.15663e-23)
(8.36965 -0.635535 0)
(8.43104 -0.680603 0)
(8.38755 -0.667435 1.29466e-23)
(8.32793 -0.601908 0)
(8.34955 -0.628712 0)
(8.21704 -0.503573 1.9271e-24)
(8.24571 -0.528863 1.76429e-23)
(8.25695 -0.552679 0)
(8.29259 -0.583272 0)
(8.26628 -0.56666 1.47414e-24)
(8.06146 -0.230641 0)
(8.06425 -0.259489 1.54864e-23)
(8.07834 -0.281274 -4.03671e-24)
(8.07806 -0.294338 0)
(8.06122 -0.315108 1.4363e-23)
(8.07476 -0.186755 2.40192e-23)
(8.07406 -0.202448 0)
(8.06013 -0.342822 1.26992e-23)
(8.08889 -0.35802 9.12484e-24)
(8.11128 -0.389747 8.08666e-24)
(8.13441 -0.417776 3.66296e-23)
(8.08916 -0.372619 -5.63587e-24)
(8.14508 -0.443142 4.38746e-23)
(8.15709 -0.465129 0)
(8.17437 -0.472291 -2.2246e-23)
(8.18543 -0.495911 -1.99033e-23)
(8.52845 -0.0849585 -5.4317e-24)
(8.60185 -0.0878592 6.79152e-23)
(8.08446 -0.145308 -5.97218e-23)
(8.15386 -0.125059 2.78214e-23)
(8.0742 -0.16229 0)
(8.0243 -0.0239442 -2.83035e-22)
(7.86714 0.0402634 0)
(7.88671 0.0548766 -2.16266e-24)
(7.87121 0.0257194 -3.15513e-22)
(7.98534 -0.00368462 -2.67191e-22)
(7.95931 0.0670331 0)
(7.93662 0.0644727 0)
(8.003 0.0751483 0)
(7.8572 0.0269954 -1.07583e-22)
(7.11836 -0.0340456 3.26706e-22)
(8.52719 -0.734506 -1.22347e-23)
(8.55992 -0.751407 -3.70726e-23)
(8.59043 -0.757872 -1.97107e-23)
(8.76479 -0.798679 0)
(8.74284 -0.797619 4.83578e-24)
(8.80991 -0.812437 -8.49813e-24)
(8.67186 -0.787634 0)
(8.61577 -0.766267 1.70816e-23)
(8.65135 -0.787949 0)
(8.71317 -0.803957 7.64943e-24)
(8.90955 -0.811979 2.61181e-23)
(8.8667 -0.809463 0)
(8.8281 -0.81596 1.54351e-24)
(8.47982 -0.727247 7.21321e-24)
(8.4477 -0.712754 0)
(8.98446 -0.801414 1.56798e-23)
(8.96638 -0.803838 1.93435e-23)
(8.95324 -0.818621 1.43918e-23)
(8.36821 -0.660474 0)
(8.4175 -0.693979 1.56916e-23)
(8.39563 -0.68915 1.45372e-23)
(8.30907 -0.61018 0)
(8.32652 -0.641077 0)
(8.20916 -0.523172 8.75676e-24)
(8.22412 -0.533853 -1.66092e-24)
(8.23579 -0.558859 -3.29717e-24)
(8.29175 -0.599081 0)
(8.25379 -0.58117 1.75844e-24)
(8.04791 -0.220736 0)
(8.05041 -0.250501 0)
(8.05464 -0.276577 3.0906e-23)
(8.05501 -0.302945 2.42899e-23)
(8.03881 -0.325788 -7.72571e-24)
(8.06084 -0.175593 -7.16609e-23)
(8.05411 -0.20658 0)
(8.0629 -0.356129 0)
(8.04343 -0.340599 -7.87936e-24)
(8.093 -0.400042 8.33009e-24)
(8.11175 -0.422248 0)
(8.06901 -0.382253 -2.59693e-23)
(8.12322 -0.450596 0)
(8.1378 -0.47251 2.37739e-23)
(8.17044 -0.486687 -2.3337e-23)
(8.17439 -0.51064 1.90913e-23)
(8.43681 -0.0991619 -5.59174e-23)
(8.68893 -0.0774728 -4.05327e-23)
(8.08747 -0.134271 -5.89975e-23)
(8.22411 -0.120306 2.63862e-23)
(8.06243 -0.157905 -7.01224e-23)
(7.98765 0.0175523 -1.03772e-22)
(7.84979 0.0367793 -1.74931e-22)
(7.90321 0.0612167 0)
(7.85611 0.0251146 -9.79294e-23)
(7.96322 -0.0205403 2.1736e-22)
(7.98592 0.0744157 2.99198e-23)
(7.94511 0.0723001 -2.93917e-23)
(8.03282 0.0813913 3.34316e-23)
(8.01852 0.0813127 2.96855e-23)
(7.019 -0.0509673 0)
(8.51286 -0.749435 -9.08902e-24)
(8.54875 -0.771631 1.3971e-23)
(8.58105 -0.774818 -1.91392e-23)
(8.77578 -0.817647 -2.09775e-23)
(8.73111 -0.808342 1.53632e-23)
(8.79637 -0.822209 -2.16789e-23)
(8.67892 -0.813267 -2.84143e-24)
(8.59731 -0.779734 -1.08688e-23)
(8.64421 -0.81485 -6.77976e-24)
(8.69768 -0.816953 -1.32517e-24)
(8.9146 -0.839347 2.57816e-24)
(8.8821 -0.839012 0)
(8.84479 -0.840181 2.7823e-23)
(8.45903 -0.728436 6.50765e-24)
(8.48958 -0.74688 0)
(8.42432 -0.712895 1.94889e-23)
(8.99448 -0.81857 0)
(8.953 -0.839003 -1.41264e-23)
(8.35186 -0.668454 1.72622e-24)
(8.38307 -0.706882 -1.7012e-23)
(8.30842 -0.631924 0)
(8.3276 -0.66097 1.57987e-24)
(8.18968 -0.530989 1.72844e-23)
(8.21902 -0.550865 7.73352e-24)
(8.23377 -0.576135 0)
(8.27524 -0.605504 1.49552e-23)
(8.2574 -0.596678 3.76708e-24)
(8.02024 -0.228828 5.32476e-23)
(8.02509 -0.253154 0)
(8.03223 -0.283119 0)
(8.02778 -0.298101 1.13895e-23)
(8.02029 -0.323824 0)
(8.03519 -0.184601 0)
(8.03055 -0.199627 0)
(8.04676 -0.365588 0)
(8.02185 -0.344425 6.0439e-23)
(8.07116 -0.395983 -2.98969e-24)
(8.09425 -0.415528 0)
(8.10551 -0.441363 0)
(8.05234 -0.379246 0)
(8.12032 -0.466273 -1.11959e-23)
(8.13546 -0.48838 2.47353e-23)
(8.1507 -0.492922 1.98172e-23)
(8.15252 -0.506995 2.10539e-23)
(8.17659 -0.524165 1.5197e-23)
(8.51394 -0.0701091 -4.51487e-23)
(8.55466 -0.0445917 -8.01608e-23)
(8.06122 -0.131829 -1.84774e-23)
(8.15152 -0.120466 0)
(8.05145 -0.153455 1.16161e-23)
(8.04621 -0.00655166 0)
(7.86732 0.0491658 9.36458e-23)
(7.93437 0.0711689 3.93881e-23)
(7.89811 0.0624692 9.45783e-23)
(7.84741 0.00988857 -3.17515e-22)
(7.83856 0.0361302 1.1182e-23)
(8.03118 0.000971604 3.41024e-25)
(7.89547 -0.00843867 5.59449e-23)
(7.98858 0.0833296 1.52969e-23)
(7.97512 0.0815181 -1.04196e-23)
(8.03618 0.0879206 0)
(8.01455 0.0902416 3.40521e-23)
(7.03802 -0.0277615 1.9431e-22)
(7.68454 -0.0752835 1.80061e-24)
(8.51614 -0.773449 -1.74439e-24)
(8.531 -0.780954 8.37393e-24)
(8.56128 -0.783414 -7.37868e-24)
(8.7682 -0.837482 0)
(8.74547 -0.833375 5.72597e-24)
(8.80748 -0.851263 0)
(8.65899 -0.829092 -2.48042e-24)
(8.60987 -0.800674 0)
(8.62732 -0.818463 -1.69429e-24)
(8.7085 -0.84032 0)
(8.8989 -0.847122 1.96253e-24)
(8.93202 -0.84805 -7.7201e-24)
(8.86691 -0.848766 2.72783e-23)
(8.82403 -0.854279 0)
(8.45002 -0.748681 5.64496e-24)
(8.4805 -0.76431 -2.06742e-23)
(8.41419 -0.730307 -1.54365e-23)
(8.98569 -0.838011 3.6472e-23)
(8.96547 -0.847039 1.58369e-23)
(8.35637 -0.688002 -1.61025e-23)
(8.36659 -0.704207 -1.91377e-23)
(8.39211 -0.73001 -1.32792e-23)
(8.28855 -0.637115 -1.1154e-23)
(8.31463 -0.67022 0)
(8.18728 -0.552071 -2.71167e-24)
(8.20237 -0.558942 8.86041e-24)
(8.22302 -0.584379 3.03074e-24)
(8.27341 -0.626996 1.163e-23)
(8.24489 -0.611193 0)
(8.00431 -0.222915 -4.51665e-23)
(8.01247 -0.246046 5.22701e-23)
(8.00667 -0.266601 1.14127e-23)
(8.01022 -0.280093 1.12697e-23)
(8.00591 -0.30482 -3.67746e-24)
(8.00603 -0.317345 -1.0965e-23)
(8.00984 -0.338387 3.757e-24)
(8.01763 -0.175994 0)
(8.00751 -0.206775 -4.48024e-23)
(8.02651 -0.368743 0)
(8.01702 -0.352066 5.32165e-23)
(8.05382 -0.405508 -2.79692e-25)
(8.07326 -0.424919 0)
(8.08298 -0.451326 0)
(8.03391 -0.389272 0)
(8.10511 -0.472052 1.36095e-23)
(8.12185 -0.494213 2.72346e-23)
(8.14704 -0.517883 1.52779e-23)
(8.15827 -0.530816 1.44439e-23)
(8.40636 -0.0648012 0)
(8.61702 -0.0381699 0)
(8.08181 -0.119695 0)
(8.04523 -0.139153 -3.14024e-23)
(8.21008 -0.0965319 0)
(8.0492 -0.146677 4.92972e-24)
(8.02752 -0.162809 1.07823e-23)
(7.86048 0.0469956 0)
(7.94792 0.0817119 9.66027e-23)
(7.91863 0.0710921 0)
(7.82591 0.0155934 5.40822e-23)
(7.84509 0.0393601 0)
(8.05986 -0.0633884 3.17134e-25)
(7.8768 -0.0181473 5.98877e-23)
(8.0035 0.0900375 0)
(7.97817 0.0903244 -1.47658e-25)
(8.03012 0.0960399 0)
(8.01998 0.095674 1.82355e-23)
(7.10851 -0.0287841 9.4606e-23)
(7.69427 -0.064943 -2.27358e-22)
(8.49357 -0.780773 -1.38729e-23)
(8.53727 -0.806177 1.46586e-23)
(8.57015 -0.803141 -6.16359e-24)
(8.7867 -0.860392 1.56089e-23)
(8.73098 -0.845467 -2.86756e-24)
(8.6694 -0.849274 -8.54694e-25)
(8.59215 -0.810151 0)
(8.62291 -0.836889 2.51363e-23)
(8.69241 -0.85343 -6.39707e-24)
(8.89796 -0.872014 2.69737e-23)
(8.9306 -0.867704 -4.10387e-23)
(8.86655 -0.872702 3.09635e-23)
(8.82759 -0.875613 1.48306e-23)
(8.4259 -0.750898 -1.49488e-23)
(8.4589 -0.767315 0)
(8.99309 -0.846987 3.63246e-23)
(8.96032 -0.871611 1.53113e-23)
(8.33951 -0.694312 -1.72546e-25)
(8.35103 -0.721443 -2.1264e-23)
(8.38001 -0.741533 2.47526e-23)
(8.28834 -0.653369 -1.18685e-23)
(8.29849 -0.667891 0)
(8.32263 -0.688808 0)
(8.17152 -0.557464 0)
(8.20437 -0.576687 2.28089e-24)
(8.22773 -0.604629 7.61103e-24)
(8.25294 -0.628575 -1.0188e-24)
(7.97841 -0.223503 -5.03132e-23)
(7.98674 -0.248454 0)
(7.97735 -0.266479 -5.95291e-24)
(7.98054 -0.290786 1.5909e-23)
(7.98339 -0.300568 1.23308e-23)
(7.98865 -0.325061 -1.20297e-23)
(7.99307 -0.335538 -2.7926e-23)
(7.99017 -0.180678 0)
(7.9883 -0.203595 0)
(8.02092 -0.361995 5.83407e-24)
(8.02005 -0.384032 0)
(7.99853 -0.356628 2.81363e-24)
(8.03569 -0.401136 -9.3001e-24)
(8.05736 -0.419181 7.66803e-24)
(8.06939 -0.442906 0)
(8.08494 -0.468529 -3.63119e-25)
(8.10633 -0.487685 2.63316e-23)
(8.11909 -0.508849 4.9338e-23)
(8.12919 -0.518934 -1.10806e-23)
(8.15686 -0.546109 4.41903e-23)
(8.47327 -0.0472544 0)
(8.50442 -0.00911351 -3.34492e-23)
(8.05451 -0.123058 0)
(8.03272 -0.134741 -1.33888e-23)
(8.10741 -0.091863 6.07694e-23)
(8.02564 -0.151865 3.19554e-23)
(8.01259 -0.159429 0)
(7.88303 0.0583652 1.02339e-22)
(7.94263 0.0806861 1.93469e-23)
(7.96942 0.0898999 1.44722e-23)
(7.9191 0.0762034 1.58477e-23)
(7.83145 0.0312768 1.41164e-22)
(7.81008 0.00653303 -8.23449e-23)
(7.8719 0.0507894 -1.3209e-24)
(8.00258 -0.0613237 2.02827e-23)
(7.90738 -0.0889174 -1.86763e-22)
(7.90074 -0.0329445 0)
(7.82449 -0.0112516 -2.27507e-23)
(8.00122 0.0980042 7.64698e-24)
(7.99205 0.0975546 -2.31204e-23)
(8.04333 0.10429 0)
(8.02787 0.107623 -6.61933e-23)
(8.01344 0.107279 4.86316e-23)
(7.20266 -0.0603609 0)
(8.49642 -0.804876 1.99943e-24)
(8.51854 -0.818925 3.37971e-24)
(8.55558 -0.815561 5.68415e-24)
(8.78217 -0.878089 1.65185e-23)
(8.73962 -0.869964 -2.96481e-24)
(8.65837 -0.862142 1.42994e-25)
(8.60055 -0.833406 -5.0925e-24)
(8.63748 -0.857543 2.61643e-23)
(8.69845 -0.871771 -1.84359e-23)
(8.87978 -0.881732 3.09974e-23)
(8.91093 -0.878962 4.0239e-23)
(8.94303 -0.880396 -3.36977e-23)
(8.84799 -0.883768 1.52756e-23)
(8.81264 -0.890748 1.32478e-23)
(8.41549 -0.767104 0)
(8.4507 -0.781233 -1.06924e-23)
(8.98759 -0.867038 0)
(8.96831 -0.877658 0)
(8.33576 -0.717613 1.40293e-24)
(8.35848 -0.739678 -1.9226e-23)
(8.38129 -0.762887 1.17147e-23)
(8.27072 -0.65531 5.80593e-24)
(8.28363 -0.683709 -1.7527e-23)
(8.30818 -0.705127 -8.20599e-24)
(8.17001 -0.572018 1.5079e-23)
(8.19565 -0.585847 0)
(8.21928 -0.614759 1.15204e-23)
(8.25633 -0.641402 5.36602e-24)
(7.96997 -0.236354 -5.1438e-23)
(7.97087 -0.216211 0)
(7.96612 -0.258112 -1.0009e-24)
(7.96132 -0.276849 -1.42802e-23)
(7.96562 -0.286274 -1.38779e-23)
(7.96895 -0.310209 -9.88512e-24)
(7.97379 -0.321467 0)
(7.98644 -0.341946 -3.85631e-23)
(7.97557 -0.173925 0)
(7.98104 -0.194631 -4.26532e-24)
(8.00112 -0.367608 -2.65326e-23)