/*--------------------------------*- C++ -*----------------------------------*\
| =========                 |                                                 |
| \\      /  F ield         | OpenFOAM: The Open Source CFD Toolbox           |
|  \\    /   O peration     | Version:  v2012                                 |
|   \\  /    A nd           | Website:  www.openfoam.com                      |
|    \\/     M anipulation  |                                                 |
\*---------------------------------------------------------------------------*/
FoamFile
{
    version     2.0;
    format      ascii;
    class       surfaceVectorField;
    location    "1.8";
    object      Uf;
}
// * * * * * * * * * * * * * * * * * * * * * * * * * * * * * * * * * * * * * //

dimensions      [0 1 -1 0 0 0 0];


internalField   nonuniform List<vector> 
21399
(
(9.07855 0.140422 -1.1035e-20)
(9.21007 -0.17562 4.07756e-22)
(9.26625 -0.224132 -3.43157e-20)
(9.02543 0.0181504 -6.42675e-22)
(9.37936 -0.433547 0)
(9.23199 -0.376293 6.93554e-22)
(8.97418 -0.279868 1.74197e-22)
(8.83788 -0.285859 -6.007e-21)
(8.72054 -0.246669 1.32417e-20)
(8.80286 0.0545739 1.26014e-19)
(8.90353 -0.174392 1.20201e-21)
(9.20782 0.0283893 1.32439e-21)
(9.71102 -0.181675 0)
(8.79717 -0.322002 -1.35858e-21)
(8.93931 -0.237481 9.68723e-22)
(8.66904 -0.224694 -2.07691e-22)
(8.70023 -0.175568 8.46486e-21)
(8.90651 0.211332 1.49277e-21)
(8.97062 -0.150041 -8.04891e-20)
(8.84077 -0.22089 1.56717e-21)
(9.60635 -0.110063 2.10253e-22)
(8.81035 -0.322231 8.00305e-22)
(8.77459 -0.309579 -1.81123e-21)
(8.83958 -0.153618 8.55571e-21)
(8.71937 -0.280814 8.5514e-22)
(8.64605 -0.226163 0)
(8.66097 -0.129492 -1.65163e-20)
(9.20554 0.0214698 -3.93168e-20)
(8.73044 0.038745 6.52467e-23)
(8.76511 -0.162414 -4.664e-24)
(8.81926 -0.240121 -2.27094e-23)
(9.56981 -0.0581424 4.37377e-22)
(8.84992 -0.3133 4.17391e-22)
(8.89472 -0.280448 2.03097e-22)
(8.82495 -0.31576 3.02427e-23)
(8.77973 -0.300118 5.78488e-22)
(8.6941 -0.243987 0)
(8.61998 -0.222699 0)
(8.5732 -0.222083 5.09933e-22)
(8.58965 -0.162357 7.45192e-22)
(8.54251 -0.0794708 4.44424e-20)
(8.70054 -0.219919 0)
(8.79189 -0.19347 -2.59926e-22)
(9.49813 -0.112952 6.97067e-20)
(8.88245 -0.302349 -8.08573e-23)
(8.81575 -0.302795 2.59527e-23)
(8.81692 -0.315629 2.45236e-22)
(8.7966 -0.305897 8.83027e-22)
(8.76758 -0.292125 2.47138e-24)
(8.71178 -0.274841 0)
(8.56749 -0.244589 0)
(8.55328 -0.216073 -6.46195e-22)
(8.64186 -0.136258 -1.11202e-21)
(8.4766 -0.0657201 3.54461e-20)
(8.7429 -0.178902 2.12719e-20)
(9.47768 -0.172281 -1.39348e-22)
(9.30309 -0.216641 -1.4647e-22)
(8.8458 -0.320526 5.61965e-22)
(8.87775 -0.326924 2.20613e-22)
(8.81286 -0.326635 5.1101e-21)
(8.79165 -0.333868 -2.29401e-21)
(8.78037 -0.324417 1.30098e-21)
(8.65507 -0.271599 0)
(8.70071 -0.310103 0)
(8.57968 -0.271373 -1.3555e-23)
(8.51726 -0.266879 3.28649e-21)
(8.50948 -0.237828 -1.89661e-22)
(8.65715 -0.154034 2.60626e-22)
(8.43945 -0.0856856 2.30217e-22)
(8.63696 -0.147279 4.48041e-22)
(8.70107 -0.232969 5.19596e-22)
(9.3418 -0.175845 0)
(9.01417 -0.234376 -3.12431e-22)
(8.83029 -0.344643 4.77624e-22)
(8.8781 -0.356642 -4.77207e-22)
(8.76557 -0.342466 -7.46136e-23)
(8.77351 -0.360148 -1.51751e-21)
(8.74857 -0.344439 -5.29146e-24)
(8.67605 -0.323184 -2.84991e-24)
(8.70388 -0.330126 -1.49001e-22)
(8.54817 -0.276839 -4.61405e-22)
(8.59723 -0.301292 2.28142e-22)
(8.50615 -0.285034 -2.6162e-22)
(8.54582 -0.249683 3.82951e-22)
(8.46252 -0.257143 1.10264e-20)
(8.49325 -0.111707 -1.18207e-22)
(8.59744 -0.266653 0)
(9.23318 -0.197926 -2.52578e-22)
(9.29512 -0.192868 0)
(8.93189 -0.208083 2.07365e-20)
(8.85353 -0.368832 1.48658e-22)
(8.82464 -0.37435 6.36666e-22)
(8.87529 -0.382529 1.05678e-22)
(8.75512 -0.376271 -2.2834e-22)
(8.78379 -0.375637 2.25822e-21)
(8.72244 -0.347734 -6.67865e-22)
(8.72843 -0.372262 -4.87301e-23)
(8.89727 -0.390746 1.38106e-22)
(8.65036 -0.321222 1.26008e-23)
(8.66542 -0.344951 -2.81329e-23)
(8.69914 -0.355612 -1.09289e-21)
(8.61433 -0.325738 -1.29086e-22)
(8.48598 -0.294393 1.15871e-21)
(8.5407 -0.311943 -3.8577e-23)
(8.45298 -0.293448 -3.75109e-21)
(8.42929 -0.276565 1.45159e-21)
(8.59344 -0.162011 -2.31638e-20)
(8.4473 -0.136204 -1.41129e-22)
(8.53348 -0.227572 1.68771e-24)
(8.53573 -0.295619 0)
(9.08354 -0.288274 -7.0787e-23)
(8.8314 -0.222301 -2.63656e-21)
(8.79782 -0.388559 -2.85144e-22)
(8.81517 -0.408919 -2.6379e-22)
(8.87169 -0.404397 -1.99718e-22)
(8.73384 -0.384462 -2.4168e-23)
(8.73804 -0.399814 -5.99814e-23)
(8.77504 -0.40654 -2.33713e-21)
(8.71243 -0.395607 -3.7381e-22)
(8.67388 -0.362002 1.08904e-21)
(8.65341 -0.365651 7.33509e-24)
(8.68493 -0.382063 -3.15652e-23)
(8.58881 -0.334268 4.90931e-22)
(8.61488 -0.354061 -2.24599e-22)
(8.48892 -0.314314 7.31641e-22)
(8.56771 -0.339235 4.24215e-22)
(8.4332 -0.289036 0)
(8.40507 -0.29164 2.47456e-22)
(8.4198 -0.181008 6.50748e-22)
(8.47022 -0.306746 -1.81498e-22)
(8.9502 -0.297357 -1.12605e-20)
(9.03277 -0.247602 -3.29419e-23)
(8.78656 -0.261671 -1.67451e-20)
(8.83215 -0.429882 -2.65149e-23)
(8.80497 -0.441744 5.3459e-22)
(8.87503 -0.427227 6.13179e-22)
(8.85331 -0.423132 1.59276e-23)
(8.74552 -0.417505 7.57202e-22)
(8.72106 -0.424607 -7.43914e-22)
(8.76202 -0.432324 -1.57151e-23)
(8.69298 -0.399827 4.5714e-23)
(8.69267 -0.416769 -5.13023e-23)
(8.87966 -0.446752 3.07636e-23)
(8.6319 -0.368937 2.04996e-22)
(8.63549 -0.387147 1.58599e-22)
(8.6661 -0.404777 -1.87392e-21)
(8.60612 -0.377197 1.45666e-23)
(8.53878 -0.335993 6.39714e-22)
(8.50173 -0.331156 1.74906e-21)
(8.55975 -0.359653 2.73273e-22)
(8.44324 -0.320215 2.98703e-21)
(8.39207 -0.304198 1.85592e-22)
(8.56408 -0.212671 -1.41976e-20)
(8.36763 -0.185314 5.12545e-23)
(8.45915 -0.288925 -2.27129e-20)
(8.39868 -0.304258 -3.72976e-22)
(9.10398 -0.205093 -1.46067e-19)
(8.94338 -0.163821 5.36051e-23)
(8.73293 -0.279597 -4.50369e-23)
(8.83962 -0.451525 -2.72033e-24)
(8.77563 -0.454309 2.19009e-24)
(8.78328 -0.473166 -7.13687e-24)
(8.69016 -0.436065 -5.68197e-23)
(8.70421 -0.453523 -5.41228e-23)
(8.7468 -0.461842 -1.71617e-23)
(8.67197 -0.439083 1.68033e-22)
(8.87721 -0.464917 -2.94436e-24)
(8.85767 -0.461563 3.96594e-23)
(8.87715 -0.486174 5.90175e-24)
(8.64285 -0.411722 2.89548e-22)
(8.61507 -0.416625 9.76422e-22)
(8.65368 -0.431047 3.24583e-22)
(8.58823 -0.40238 -1.24881e-23)
(8.5824 -0.387702 2.93897e-23)
(8.48502 -0.340147 -1.04963e-22)
(8.51139 -0.362099 1.79064e-23)
(8.56152 -0.383654 1.20446e-23)
(8.5373 -0.377043 1.27667e-22)
(8.47379 -0.352555 1.6684e-22)
(8.36907 -0.306064 -1.01693e-23)
(8.41022 -0.327776 0)
(8.37742 -0.226091 -1.15716e-22)
(8.32236 -0.211409 0)
(8.40121 -0.263558 -1.55076e-20)
(8.35837 -0.312404 7.34316e-24)
(9.0213 -0.285102 8.21578e-20)
(8.78434 -0.241359 1.75909e-23)
(8.7811 -0.177231 5.71702e-21)
(8.62858 -0.284974 -8.70135e-25)
(8.83449 -0.470799 1.77584e-24)
(8.76185 -0.49699 -1.8819e-24)
(8.7918 -0.49135 3.14163e-24)
(8.72569 -0.465765 -1.54709e-23)
(8.69471 -0.472597 0)
(8.73052 -0.483084 -4.07295e-22)
(8.64699 -0.452171 7.59156e-22)
(8.86046 -0.503952 6.04719e-24)
(8.88045 -0.508608 -6.23833e-23)
(8.59022 -0.419851 -1.61391e-22)
(8.59758 -0.441018 8.90387e-23)
(8.56728 -0.423755 -1.27232e-23)
(8.54694 -0.405378 8.63465e-24)
(8.51228 -0.387857 1.73111e-21)
(8.45103 -0.35187 -1.90144e-24)
(8.46892 -0.369462 -3.84896e-24)
(8.42504 -0.346204 -4.00744e-24)
(8.46064 -0.273914 -8.64513e-25)
(8.33286 -0.243875 0)
(8.3721 -0.256294 -1.57487e-23)
(8.35221 -0.284917 1.12402e-21)
(8.37925 -0.332806 1.38362e-23)
(8.34567 -0.317501 3.9651e-22)
(9.07737 -0.244633 -2.18906e-23)
(8.95588 -0.204357 -3.40024e-23)
(8.69309 -0.184157 4.4824e-20)
(8.64134 -0.252173 -2.18069e-21)
(8.60017 -0.296303 -5.7243e-21)
(8.81516 -0.490555 9.85162e-23)
(8.83853 -0.498776 4.73507e-24)
(8.74053 -0.503924 -9.64036e-24)
(8.75557 -0.523207 0)
(8.80064 -0.517865 -1.90258e-24)
(8.67428 -0.488215 0)
(8.69063 -0.496257 0)
(8.72584 -0.498409 -2.21008e-23)
(8.70808 -0.49874 -1.17282e-23)
(8.6225 -0.462941 1.81605e-22)
(8.64269 -0.471856 1.30379e-22)
(8.84395 -0.522552 1.60287e-22)
(8.88403 -0.52935 -2.675e-22)
(8.60434 -0.460371 -3.96377e-22)
(8.58086 -0.457729 -2.51486e-22)
(8.54532 -0.422998 0)
(8.55485 -0.440965 3.66107e-23)
(8.52469 -0.420189 0)
(8.48828 -0.395053 1.49436e-22)
(8.49815 -0.407994 4.46111e-22)
(8.4762 -0.385939 -1.56505e-24)
(8.44992 -0.382744 -1.57571e-24)
(8.40835 -0.346478 -4.1555e-24)
(8.41754 -0.363741 -6.53756e-23)
(8.32115 -0.232631 2.24541e-23)
(8.36094 -0.261821 0)
(8.33576 -0.249959 -9.57499e-21)
(8.3274 -0.307486 4.83941e-25)
(8.30459 -0.291032 -1.85441e-23)
(8.39175 -0.352263 -1.9675e-23)
(8.33884 -0.325063 -4.61208e-23)
(8.9417 -0.21629 1.00973e-24)
(8.72123 -0.161952 -1.21463e-23)
(8.53524 -0.278145 1.55934e-24)
(8.72021 -0.52021 2.19852e-22)
(8.76593 -0.540221 0)
(8.74457 -0.545197 0)
(8.7864 -0.537426 -5.20036e-24)
(8.8089 -0.537603 4.18571e-22)
(8.65358 -0.487808 -3.17241e-23)
(8.6546 -0.511463 0)
(8.69108 -0.513914 0)
(8.60437 -0.47952 -1.98092e-22)
(8.62992 -0.493335 -5.41693e-22)
(8.82861 -0.541175 -5.23879e-24)
(8.84938 -0.54553 7.63908e-24)
(8.87072 -0.547655 -1.7732e-22)
(8.88967 -0.548176 5.02544e-22)
(8.56219 -0.455742 4.31488e-23)
(8.56613 -0.472372 -3.93761e-22)
(8.54407 -0.45314 2.98825e-22)
(8.51025 -0.425217 -6.07287e-23)
(8.52448 -0.44468 4.14623e-23)
(8.46802 -0.405997 0)
(8.4887 -0.428687 -3.37038e-22)
(8.42679 -0.385032 -1.94566e-24)
(8.43368 -0.402933 0)
(8.40654 -0.382955 -1.85278e-24)
(8.44613 -0.267875 1.46463e-23)
(8.30858 -0.24802 5.16641e-23)
(8.29291 -0.267986 4.58073e-23)
(8.28695 -0.288073 0)
(8.3077 -0.310151 2.36686e-24)
(8.3761 -0.354115 -8.25345e-23)
(8.38931 -0.367781 -6.77866e-23)
(8.33312 -0.327257 -5.72483e-23)
(8.35719 -0.341993 -8.83159e-22)
(8.90357 -0.177992 1.30905e-21)
(8.97523 -0.203009 9.79846e-25)
(8.70602 -0.145188 -1.5086e-23)
(8.5625 -0.187985 0)
(8.72034 -0.546435 -8.10742e-24)
(8.70313 -0.53994 -2.14133e-23)
(8.77498 -0.559829 0)
(8.73009 -0.56359 -1.76271e-24)
(8.81389 -0.560584 -5.34196e-24)
(8.63928 -0.52785 0)
(8.65845 -0.525739 0)
(8.69156 -0.530673 3.13772e-25)
(8.67477 -0.525926 0)
(8.60498 -0.499059 -1.60455e-23)
(8.58619 -0.497552 4.32116e-23)
(8.61152 -0.514318 -3.01657e-23)
(8.85677 -0.566837 2.14639e-22)
(8.89932 -0.565802 -1.58726e-22)
(8.56757 -0.490758 -2.5651e-24)
(8.54854 -0.484893 -5.04628e-23)
(8.52766 -0.460384 2.44738e-23)
(8.4462 -0.412587 0)
(8.45676 -0.420532 -5.14246e-23)
(8.46854 -0.43229 -1.41044e-22)
(8.48699 -0.451231 6.84e-24)
(8.42352 -0.417654 0)
(8.39508 -0.379728 -1.88655e-23)
(8.3898 -0.394947 0)
(8.468 -0.239584 1.44174e-23)
(8.39428 -0.255882 6.47973e-21)
(8.33573 -0.24927 1.88227e-23)
(8.28096 -0.251979 1.86291e-23)
(8.26026 -0.285287 -6.21645e-24)
(8.31525 -0.326018 2.10726e-24)
(8.36282 -0.35706 -3.6819e-23)
(8.37976 -0.377965 4.27697e-24)
(8.73725 -0.168206 7.29373e-21)
(8.87506 -0.166279 0)
(8.43664 -0.202319 -6.01227e-25)
(8.68689 -0.553505 3.2364e-25)
(8.76228 -0.574404 -2.9231e-24)
(8.78301 -0.575076 0)
(8.74537 -0.577476 -3.59661e-22)
(8.72156 -0.581717 -1.57902e-24)
(8.79904 -0.580525 0)
(8.82039 -0.584374 0)
(8.62029 -0.530665 0)
(8.62492 -0.546473 -2.41091e-23)
(8.66121 -0.542376 1.97217e-23)
(8.56297 -0.511755 1.91013e-23)
(8.59466 -0.532501 0)
(8.84363 -0.586151 8.40199e-24)
(8.86614 -0.587412 -8.76637e-23)
(8.88844 -0.58833 3.83815e-23)
(8.53059 -0.480656 2.80448e-22)
(8.52948 -0.499262 -1.29309e-23)
(8.51208 -0.471867 1.15035e-23)
(8.44888 -0.438214 -3.98953e-23)
(8.49955 -0.466729 6.8315e-22)
(8.47934 -0.466791 -3.38108e-22)
(8.40611 -0.423423 1.14461e-23)
(8.41916 -0.435236 -1.95667e-23)
(8.38436 -0.407027 0)
(8.36621 -0.397668 4.39351e-23)
(8.36758 -0.237867 1.69395e-23)
(8.25292 -0.254773 1.5886e-23)
(8.24348 -0.268815 -6.13129e-22)
(8.24103 -0.282601 3.47395e-23)
(8.2652 -0.30179 2.20974e-22)
(8.29846 -0.327881 0)
(8.32005 -0.345163 0)
(8.36426 -0.373564 -3.70261e-22)
(8.35115 -0.364918 2.67079e-23)
(8.36401 -0.386256 -9.25533e-23)
(8.70292 -0.166423 -6.53221e-24)
(8.57019 -0.207431 -1.45746e-23)
(8.82979 -0.12387 9.32256e-24)
(8.90428 -0.155575 0)
(8.37861 -0.207397 1.5234e-22)
(8.42591 -0.201569 -6.09646e-25)
(8.66423 -0.557813 2.03027e-23)
(8.67538 -0.569229 -1.43082e-23)
(8.75425 -0.592888 -2.02832e-23)
(8.78514 -0.5982 0)
(8.7162 -0.60514 3.88985e-24)
(8.70321 -0.591334 2.02674e-24)
(8.82797 -0.605847 0)
(8.62907 -0.560325 -5.04609e-24)
(8.60941 -0.562702 4.56085e-23)
(8.64726 -0.559162 -3.36713e-23)
(8.53853 -0.523802 5.5266e-23)
(8.55941 -0.533355 -3.19552e-22)
(8.57653 -0.538729 7.95574e-25)
(8.58506 -0.552299 0)
(8.87516 -0.607878 -1.86145e-26)
(8.52694 -0.514491 7.19499e-22)
(8.50973 -0.509038 -2.50684e-23)
(8.49536 -0.486743 -6.12137e-24)
(8.43236 -0.444534 -5.07253e-23)
(8.44768 -0.457655 3.63841e-22)
(8.4613 -0.471116 5.98636e-23)
(8.46833 -0.48522 7.15232e-23)
(8.39649 -0.417804 1.08944e-23)
(8.39069 -0.43452 3.63351e-22)
(8.41306 -0.454222 -8.85102e-23)
(8.37325 -0.41884 8.07776e-24)
(8.34826 -0.396711 1.00115e-21)
(8.34335 -0.220873 -4.67717e-24)
(8.24264 -0.247973 1.01927e-23)
(8.21585 -0.259818 0)
(8.21972 -0.280461 7.40936e-22)
(8.28522 -0.316221 -5.83101e-24)
(8.26477 -0.311024 -5.95454e-24)
(8.28521 -0.334323 -1.14596e-24)
(8.33303 -0.360989 0)
(8.31307 -0.360653 -3.58482e-24)
(8.32744 -0.378422 2.94635e-23)
(8.64483 -0.134012 7.79269e-21)
(8.43297 -0.217624 -1.79683e-23)
(8.77597 -0.227216 0)
(8.6852 -0.587815 -1.13001e-23)
(8.65952 -0.587613 -1.71748e-22)
(8.76286 -0.606167 -8.01578e-24)
(8.74539 -0.610926 7.8581e-23)
(8.77989 -0.616108 0)
(8.7262 -0.617796 1.06104e-22)
(8.70802 -0.626147 1.19081e-23)
(8.68578 -0.611772 -4.00264e-23)
(8.81655 -0.628364 0)
(8.84055 -0.626217 0)
(8.63174 -0.575814 1.70995e-23)
(8.59043 -0.565965 -2.01226e-23)
(8.59435 -0.580277 -2.08184e-23)
(8.51922 -0.53387 8.65575e-22)
(8.55636 -0.551373 2.85901e-23)
(8.57289 -0.568668 0)
(8.8589 -0.62261 0)
(8.88529 -0.62503 -4.83786e-25)
(8.49135 -0.506254 2.48043e-22)
(8.49052 -0.521811 -2.94557e-23)
(8.47746 -0.49904 4.64791e-24)
(8.43803 -0.479492 4.60473e-22)
(8.45555 -0.504642 1.4784e-22)
(8.37288 -0.441645 9.91829e-23)
(8.38386 -0.448648 8.09157e-22)
(8.39246 -0.460274 2.71634e-22)
(8.40484 -0.474231 -5.40275e-22)
(8.36313 -0.435167 -3.84222e-22)
(8.35333 -0.425287 1.70823e-24)
(8.32873 -0.391751 3.5586e-22)
(8.33445 -0.407693 7.60667e-23)
(8.28471 -0.228942 8.50278e-24)
(8.3239 -0.210553 6.71087e-21)
(8.22289 -0.234258 1.91814e-22)
(8.20414 -0.275919 2.40776e-23)
(8.19162 -0.267711 0)
(8.2248 -0.291567 2.28073e-23)
(8.24992 -0.309674 0)
(8.25993 -0.324304 1.03893e-23)
(8.26832 -0.336889 1.07856e-22)
(8.28134 -0.348012 -8.46448e-24)
(8.2947 -0.360674 -1.60619e-23)
(8.29366 -0.372377 -6.80422e-26)
(8.30883 -0.387756 -3.69841e-22)
(8.45439 -0.182376 1.10298e-20)
(8.52809 -0.140325 7.12698e-21)
(8.36648 -0.195133 -1.02798e-20)
(8.66207 -0.195051 2.58708e-24)
(8.76797 -0.172634 0)
(8.637 -0.590425 -1.4527e-23)
(8.64413 -0.608543 -1.37929e-23)
(8.73791 -0.631086 2.0053e-23)
(8.79445 -0.632051 0)
(8.77149 -0.637754 0)
(8.68688 -0.631602 -6.95562e-22)
(8.69758 -0.644467 1.58432e-23)
(8.66996 -0.631392 1.05104e-23)
(8.81242 -0.653476 2.21182e-24)
(8.85299 -0.643106 -4.3119e-24)
(8.6173 -0.593216 -2.76806e-25)
(8.5974 -0.594887 -2.66921e-25)
(8.57755 -0.597549 4.95635e-25)
(8.49699 -0.535653 2.43862e-23)
(8.51119 -0.550044 8.30621e-24)
(8.55606 -0.56738 2.27326e-23)
(8.54017 -0.564745 -1.84551e-22)
(8.55643 -0.581173 0)
(8.9043 -0.635802 -2.06788e-23)
(8.892 -0.649211 5.22798e-22)
(8.9245 -0.65164 2.55026e-24)
(8.47521 -0.536761 1.29578e-23)
(8.41443 -0.48591 -1.41214e-23)
(8.42239 -0.49753 6.02324e-22)
(8.42883 -0.510312 5.42185e-23)
(8.44252 -0.525921 -2.3633e-21)
(8.35222 -0.449177 5.05136e-23)
(8.37075 -0.466743 -1.62946e-22)
(8.39053 -0.492183 -4.38373e-23)
(8.34137 -0.418062 -5.27986e-24)
(8.33409 -0.435161 3.77929e-22)
(8.32192 -0.414414 0)
(8.3241 -0.195287 1.05942e-20)
(8.17929 -0.241734 -2.64282e-23)
(8.20117 -0.225183 -6.49931e-24)
(8.17677 -0.259425 -3.34269e-23)
(8.198 -0.280885 0)
(8.23257 -0.305644 0)
(8.24879 -0.338532 -1.48655e-21)
(8.26587 -0.362228 -4.61339e-22)
(8.29 -0.386145 1.41498e-23)
(8.26997 -0.384579 7.02184e-22)
(8.29571 -0.400878 1.03921e-23)
(8.52594 -0.152165 2.6681e-24)
(8.83589 -0.109095 0)
(8.6896 -0.0556384 0)
(8.65014 -0.627986 0)
(8.62655 -0.626931 1.26315e-25)
(8.75181 -0.644915 5.0505e-25)
(8.73266 -0.652426 4.48166e-25)
(8.76903 -0.65903 6.02623e-24)
(8.7129 -0.655404 6.95716e-24)
(8.69209 -0.659515 -1.09031e-21)
(8.65421 -0.648484 7.26363e-24)
(8.8255 -0.666818 1.8578e-24)
(8.80524 -0.666313 -5.53763e-22)
(8.87289 -0.654751 -6.84752e-24)
(8.85188 -0.661229 -1.3578e-21)
(8.60059 -0.611665 7.32244e-24)
(8.55728 -0.598223 4.80266e-25)
(8.56157 -0.614668 -1.0015e-23)
(8.52334 -0.564035 3.63593e-22)
(8.49797 -0.568534 9.6015e-22)
(8.52226 -0.58187 1.67695e-23)
(8.53845 -0.596499 0)
(8.89203 -0.667741 -3.59815e-24)
(8.92605 -0.674783 -4.50811e-24)
(8.46506 -0.559402 4.93175e-22)
(8.4553 -0.540568 -2.55353e-22)
(8.40561 -0.515154 9.60883e-24)
(8.45098 -0.533373 -7.5568e-22)
(8.42947 -0.534783 9.11721e-24)
(8.33165 -0.455529 3.11376e-23)
(8.33998 -0.462735 1.52729e-24)
(8.34814 -0.47142 2.12587e-23)
(8.35755 -0.484112 3.48661e-22)
(8.36599 -0.498175 2.31579e-24)
(8.37474 -0.510601 -4.06159e-24)
(8.32418 -0.446951 6.6508e-22)
(8.31557 -0.438349 3.19653e-23)
(8.30567 -0.413972 0)
(8.30971 -0.427109 -4.34603e-24)
(8.24799 -0.20582 -5.31728e-23)
(8.30606 -0.180324 -2.805e-23)
(8.15816 -0.249428 -3.4573e-21)
(8.18174 -0.217168 -6.87098e-21)
(8.21592 -0.299468 0)
(8.19967 -0.29245 -1.02589e-24)
(8.22114 -0.316478 -2.3329e-23)
(8.22388 -0.334587 -8.05472e-24)
(8.22422 -0.350387 2.25733e-23)
(8.25044 -0.379215 -5.84456e-24)
(8.23988 -0.369761 5.93828e-22)
(8.25016 -0.392909 -1.42241e-23)
(8.28203 -0.413652 -8.5138e-24)
(8.53086 -0.0909581 0)
(8.41499 -0.141125 0)
(8.80654 -0.185264 1.05019e-23)
(8.55604 -0.0418462 -1.65913e-23)
(8.60605 -0.629005 -1.08821e-25)
(8.61263 -0.645919 1.57592e-23)
(8.72669 -0.670635 0)
(8.78988 -0.669365 2.36221e-22)
(8.76824 -0.678228 1.22973e-23)
(8.67734 -0.671335 -3.64147e-23)
(8.6949 -0.681183 -6.75677e-22)
(8.65867 -0.665678 4.07976e-24)
(8.63898 -0.662656 -1.09129e-22)
(8.84057 -0.677091 3.01828e-24)
(8.82839 -0.69169 0)
(8.80212 -0.684829 7.40209e-24)
(8.86055 -0.689048 -7.46653e-22)
(8.58474 -0.630174 -2.3165e-25)
(8.56573 -0.630355 -8.50576e-24)
(8.54647 -0.630117 -4.27254e-23)
(8.47621 -0.577456 -1.7415e-23)
(8.48477 -0.591547 -2.99373e-23)
(8.51994 -0.595627 -1.1079e-23)
(8.50335 -0.595696 -4.14189e-22)
(8.52139 -0.611696 1.21351e-23)
(8.90578 -0.685268 -4.48061e-24)
(8.88672 -0.691639 -4.95991e-22)
(8.92896 -0.698261 -2.3986e-23)
(8.45418 -0.583014 4.3865e-24)
(8.43919 -0.552097 9.57729e-24)
(8.3861 -0.517177 5.64204e-25)
(8.39022 -0.528786 9.75453e-23)
(8.41917 -0.552306 -1.04621e-21)
(8.41044 -0.547143 9.96262e-24)
(8.31011 -0.460516 4.14045e-23)
(8.32628 -0.477355 9.01725e-24)
(8.34252 -0.50241 -8.13423e-25)
(8.36444 -0.522304 7.13216e-23)
(8.29619 -0.439125 -1.42794e-22)
(8.33274 -0.166714 0)
(8.25765 -0.179364 0)
(8.14453 -0.245232 -2.20256e-23)
(8.16704 -0.268687 -3.60915e-23)
(8.1709 -0.209858 -2.39962e-23)
(8.15281 -0.225914 -2.3997e-23)
(8.18242 -0.28712 1.39682e-22)
(8.18412 -0.303671 1.42988e-23)
(8.2042 -0.327582 -3.37416e-23)
(8.22852 -0.362207 1.88035e-21)
(8.20707 -0.356048 8.10953e-24)
(8.22085 -0.378508 9.98315e-24)
(8.23368 -0.398744 -4.55413e-24)
(8.25354 -0.406237 -1.37434e-21)
(8.26245 -0.416604 3.14426e-22)
(8.26844 -0.42943 -7.15059e-24)
(8.32692 -0.152479 0)
(8.76591 -0.111944 -2.86194e-21)
(8.86678 -0.141465 9.34805e-24)
(8.54056 -0.0588386 -1.88082e-23)
(8.41238 -0.0945993 5.40273e-21)
(8.62116 -0.659962 6.48712e-24)
(8.59992 -0.66087 2.56118e-24)
(8.71529 -0.685818 5.77676e-24)
(8.73531 -0.687536 0)
(8.75449 -0.692691 7.62351e-24)
(8.77175 -0.702324 -4.74897e-22)
(8.66258 -0.686921 -2.23174e-22)
(8.70167 -0.697987 5.83739e-24)
(8.6268 -0.679291 5.85963e-24)
(8.80964 -0.700397 0)
(8.83005 -0.709845 -7.52673e-24)
(8.79406 -0.705526 6.72002e-24)
(8.87685 -0.706621 6.9039e-24)
(8.57217 -0.647048 1.49903e-23)
(8.52615 -0.628625 -1.93875e-22)
(8.53413 -0.645998 1.74052e-23)
(8.48251 -0.606086 6.50773e-23)
(8.50616 -0.626404 1.13939e-23)
(8.95179 -0.708835 -1.37429e-23)
(8.93036 -0.717082 -4.46021e-22)
(8.42846 -0.586636 -1.96451e-23)
(8.43963 -0.604133 0)
(8.42488 -0.563681 -9.66831e-22)
(8.39025 -0.545046 1.78743e-23)
(8.37251 -0.541788 3.06746e-23)
(8.39084 -0.566488 0)
(8.28951 -0.464114 0)
(8.2972 -0.47413 0)
(8.30554 -0.482016 8.48864e-24)
(8.31399 -0.491931 2.32014e-22)
(8.32061 -0.504264 2.08553e-25)
(8.3279 -0.517832 4.12854e-23)
(8.36147 -0.535321 3.34196e-24)
(8.34855 -0.528791 4.40049e-22)
(8.27545 -0.441125 -7.13939e-24)
(8.28113 -0.453544 -6.65755e-24)
(8.19297 -0.198451 0)
(8.21718 -0.180694 0)
(8.13555 -0.23169 2.08984e-23)
(8.12871 -0.242845 -8.61627e-22)
(8.16472 -0.283559 1.94424e-23)
(8.14642 -0.204634 0)
(8.1307 -0.225265 2.05273e-23)
(8.18602 -0.319756 -1.33259e-23)
(8.16561 -0.312894 3.90915e-22)
(8.18196 -0.336162 9.84848e-24)
(8.19652 -0.371539 -3.19434e-25)
(8.19028 -0.357914 -2.72042e-23)
(8.20355 -0.379589 0)
(8.21166 -0.386389 0)
(8.21712 -0.398345 8.55524e-24)
(8.21891 -0.413727 -1.78992e-22)
(8.24328 -0.422772 -2.65055e-24)
(8.25497 -0.444168 -2.0917e-23)
(8.31097 -0.139504 -1.29304e-23)
(8.25297 -0.158153 0)
(8.63316 -0.05447 5.26662e-22)
(8.77018 -0.100272 8.88506e-24)
(8.28806 -0.130127 5.70656e-21)
(8.0131 0.0281757 0)
(7.98453 0.037375 0)
(7.40981 0.0704231 1.4053e-22)
(7.04474 0.0352004 -1.06713e-20)
(8.58088 -0.665568 1.67546e-23)
(8.59309 -0.68056 -1.17604e-22)
(8.74158 -0.709811 -1.75655e-23)
(8.78226 -0.718759 7.92558e-24)
(8.6676 -0.705065 5.35599e-25)
(8.64946 -0.699846 3.46926e-25)
(8.68697 -0.711944 9.90555e-25)
(8.70971 -0.719252 0)
(8.61107 -0.691843 2.21197e-24)
(8.62904 -0.697079 2.63874e-25)
(8.85311 -0.722793 -4.58539e-22)
(8.83142 -0.729962 -1.80119e-23)
(8.87119 -0.723669 1.38419e-22)
(8.89609 -0.725132 3.48344e-24)
(8.5609 -0.666198 5.0424e-22)
(8.5411 -0.663109 1.3885e-22)
(8.5207 -0.660174 1.249e-23)
(8.48703 -0.624006 -1.68425e-23)
(8.46844 -0.617768 1.02636e-22)
(8.49433 -0.641145 -3.43613e-24)
(8.91477 -0.727298 -1.0343e-23)
(8.93052 -0.735603 -1.87167e-22)
(8.40847 -0.584426 5.17665e-23)
(8.45382 -0.614799 -1.75135e-23)
(8.43231 -0.617499 2.51867e-23)
(8.35935 -0.54913 8.20676e-24)
(8.395 -0.579032 -1.35283e-23)
(8.37743 -0.576702 0)
(8.26786 -0.466753 2.35078e-23)
(8.28561 -0.486882 -1.49089e-23)
(8.29967 -0.507306 -3.48989e-24)
(8.33435 -0.52915 -1.74685e-23)
(8.31273 -0.531037 -7.84277e-24)
(8.33521 -0.542208 -6.46593e-24)
(8.1948 -0.176617 0)
(8.11412 -0.2419 5.6429e-22)
(8.13355 -0.260564 4.99727e-24)
(8.14716 -0.279477 8.24922e-24)
(8.14651 -0.293659 9.27076e-22)
(8.12594 -0.21641 2.11323e-23)
(8.12586 -0.204667 -1.66597e-23)
(8.11495 -0.222718 1.52695e-21)
(8.14497 -0.309152 6.9247e-23)
(8.14436 -0.324025 1.09868e-23)
(8.17932 -0.3485 1.39516e-21)
(8.16263 -0.339902 6.62447e-22)
(8.18529 -0.380972 0)
(8.16732 -0.363008 1.69027e-23)
(8.19481 -0.399734 -1.80469e-23)
(8.22345 -0.424284 1.37308e-22)
(8.20419 -0.424995 5.10386e-24)
(8.23022 -0.433961 5.05656e-22)
(8.23522 -0.445949 -3.51622e-24)
(8.24073 -0.457552 -5.61317e-22)
(8.72782 -0.0919981 -5.32434e-21)
(8.59759 -0.101951 4.00554e-24)
(8.76686 -0.101695 9.74204e-24)
(8.26638 -0.134312 -3.94678e-21)
(8.20647 -0.151164 -2.37709e-23)
(8.01266 0.0144669 0)
(7.92994 0.0391365 9.3987e-23)
(7.98772 0.0355633 -9.9895e-23)
(7.8931 0.0469928 1.21908e-22)
(7.86919 0.0678245 -1.14443e-23)
(7.03248 0.0262224 7.58228e-21)
(8.58999 -0.698944 -1.88296e-24)
(8.72961 -0.726036 -1.68704e-23)
(8.75047 -0.730931 5.60197e-22)
(8.77305 -0.733396 -1.80237e-23)
(8.79592 -0.735492 0)
(8.67068 -0.726196 2.1384e-22)
(8.63266 -0.714994 -1.38801e-22)
(8.71391 -0.739993 9.76186e-24)
(8.86549 -0.743825 -2.97371e-23)
(8.81675 -0.74217 -1.11632e-23)
(8.83488 -0.754356 2.85379e-22)
(8.90351 -0.745992 2.36081e-23)
(8.54643 -0.681914 1.0649e-22)
(8.50228 -0.657627 -7.75726e-26)
(8.50621 -0.674115 0)
(8.45903 -0.632335 -1.54986e-23)
(8.48278 -0.655458 -8.09324e-26)
(8.94368 -0.744262 -4.8017e-24)
(8.92759 -0.756354 -6.06361e-24)
(8.39316 -0.594908 -1.61274e-23)
(8.43216 -0.637342 4.6859e-23)
(8.41698 -0.626281 -3.89442e-22)
(8.34102 -0.551671 -9.463e-23)
(8.35383 -0.562588 -7.05424e-22)
(8.36184 -0.578206 -1.18632e-23)
(8.36535 -0.590995 -1.91018e-24)
(8.24632 -0.47001 2.7994e-24)
(8.25452 -0.482001 -7.63496e-22)
(8.26751 -0.489727 -1.00374e-22)
(8.27556 -0.49873 -2.86041e-22)
(8.27997 -0.509246 3.58621e-23)
(8.28649 -0.521051 -2.74074e-22)
(8.29257 -0.533805 -7.62388e-24)
(8.29841 -0.545691 0)
(8.32541 -0.553165 1.60739e-24)
(8.13928 -0.192113 -1.96692e-23)
(8.16284 -0.1723 0)
(8.10817 -0.231504 2.02017e-23)
(8.10023 -0.241626 -1.66124e-23)
(8.12538 -0.275297 -3.21061e-23)
(8.12532 -0.304491 -9.20972e-22)
(8.10671 -0.200102 -1.9306e-21)
(8.10173 -0.222431 -1.13758e-21)
(8.14917 -0.334586 1.44882e-23)
(8.12629 -0.330562 -9.68503e-24)
(8.14334 -0.347095 1.22145e-23)
(8.16633 -0.381952 0)
(8.17214 -0.389966 0)
(8.15651 -0.374841 0)
(8.14651 -0.366382 0)
(8.1738 -0.399998 -1.55287e-23)
(8.17906 -0.41333 -9.95121e-23)
(8.18421 -0.425675 -1.413e-22)
(8.18783 -0.43667 -3.76229e-24)
(8.21402 -0.446531 -5.06572e-24)
(8.22492 -0.471793 -2.19942e-23)
(8.40908 -0.124362 -3.94085e-21)
(8.54168 -0.123769 -9.94517e-24)
(8.67901 -0.125659 0)
(8.22584 -0.130191 -4.35745e-23)
(8.14258 -0.164122 -1.42938e-23)
(8.00093 0.0314262 9.59874e-23)
(8.03264 0.0148374 0)
(7.88926 0.0471835 -2.92565e-21)
(7.88603 0.0418306 6.64472e-23)
(8.01603 0.024745 -1.11712e-22)
(7.97249 0.0328911 -5.62018e-21)
(7.89837 0.0501481 -1.62076e-22)
(7.89726 0.0446961 5.20845e-21)
(7.39967 0.0220182 1.10366e-22)
(7.02138 -0.000924102 8.25027e-21)
(8.56926 -0.708711 9.59269e-24)
(8.58827 -0.720748 2.14927e-22)
(8.75951 -0.751177 -2.22418e-23)
(8.8007 -0.7599 -1.14767e-23)
(8.67691 -0.75062 -4.01351e-22)
(8.65465 -0.742021 1.50272e-23)
(8.63786 -0.733457 4.07761e-22)
(8.61748 -0.726818 -4.27407e-22)
(8.69623 -0.751247 2.78741e-23)
(8.71535 -0.755228 4.39271e-22)
(8.85445 -0.763052 -3.59315e-23)
(8.87285 -0.764428 -1.94636e-23)
(8.84047 -0.77464 1.84319e-22)
(8.91008 -0.764948 4.0665e-24)
(8.89385 -0.76602 -1.34501e-23)
(8.55178 -0.700664 5.00509e-22)
(8.53004 -0.693973 1.12625e-23)
(8.51333 -0.687857 0)
(8.49341 -0.685786 0)
(8.46311 -0.652071 0)
(8.44595 -0.647376 7.80205e-24)
(8.46836 -0.670139 0)
(8.95765 -0.756654 -3.20752e-24)
(8.92279 -0.775606 -3.50335e-24)
(8.3726 -0.599224 7.72331e-23)
(8.3893 -0.609382 4.50072e-24)
(8.43122 -0.656644 8.24713e-24)
(8.40115 -0.625808 2.76501e-22)
(8.40383 -0.64627 1.9027e-23)
(8.34151 -0.57909 -2.41325e-23)
(8.3556 -0.603184 -1.90354e-24)
(8.24674 -0.493617 2.31327e-23)
(8.26162 -0.511554 -2.8821e-25)
(8.27323 -0.535471 -7.82284e-24)
(8.30967 -0.554486 0)
(8.29041 -0.557404 0)
(8.31743 -0.565863 0)
(8.08533 -0.235634 -1.02007e-23)
(8.09234 -0.249414 1.0144e-22)
(8.10702 -0.273476 1.86847e-24)
(8.10987 -0.286907 2.83707e-22)
(8.1075 -0.299483 -4.13048e-24)
(8.10206 -0.312576 2.49893e-23)
(8.09575 -0.193579 -6.83721e-22)
(8.09416 -0.205206 -5.14575e-22)
(8.08625 -0.223341 2.705e-22)
(8.09145 -0.213888 5.98976e-22)
(8.10555 -0.333636 -5.09975e-24)
(8.10917 -0.343722 6.58592e-22)
(8.13474 -0.358966 0)
(8.12057 -0.351177 -9.8189e-24)
(8.14561 -0.384454 0)
(8.155 -0.400734 1.70601e-23)
(8.12292 -0.370761 0)
(8.163 -0.425227 9.10725e-23)
(8.19315 -0.447014 -8.13085e-24)
(8.17288 -0.447402 1.04387e-24)
(8.19908 -0.459036 1.2684e-22)
(8.20447 -0.470501 -2.24102e-23)
(8.20977 -0.483056 -7.36257e-24)
(8.62464 -0.115392 8.71814e-25)
(8.51051 -0.119165 2.47461e-21)
(8.67424 -0.102193 2.4481e-24)
(8.14851 -0.138069 -2.52019e-23)
(8.20409 -0.126753 -2.03294e-22)
(8.12849 -0.152291 -3.36606e-21)
(8.11055 -0.17266 -1.31568e-23)
(8.01734 0.0115827 -6.21521e-24)
(7.87808 0.0366831 0)
(7.88728 0.0481996 -1.18972e-24)
(7.89835 0.03598 -7.8402e-23)
(7.95083 0.030086 -1.77588e-22)
(7.91445 0.055227 -2.31487e-23)
(7.93734 0.0579261 2.14295e-23)
(7.9059 0.054165 -2.71011e-23)
(7.96323 0.0612145 1.05301e-24)
(7.98622 0.064922 2.0565e-23)
(7.88685 0.019644 9.1372e-23)
(7.03086 -0.0108914 7.69236e-21)
(8.55367 -0.722365 -7.03497e-25)
(8.60302 -0.728252 -2.29654e-22)
(8.58593 -0.735817 -2.21142e-23)
(8.76824 -0.768269 -7.93294e-22)
(8.74564 -0.764603 -7.37232e-22)
(8.78427 -0.776732 -2.89785e-23)
(8.80511 -0.783687 1.64188e-22)
(8.68467 -0.767385 1.84396e-23)
(8.63993 -0.755748 2.36559e-22)
(8.61144 -0.743868 2.28507e-22)
(8.73012 -0.768436 1.43622e-23)
(8.71249 -0.776195 7.75395e-24)
(8.88333 -0.783743 -7.89224e-24)
(8.82418 -0.785838 -2.10862e-23)
(8.84164 -0.790261 -4.93647e-24)
(8.51901 -0.706842 -7.74673e-24)
(8.4766 -0.688412 0)
(8.48778 -0.704224 -7.51506e-25)
(8.45651 -0.686854 0)
(8.97145 -0.765091 -4.15848e-24)
(8.95645 -0.774508 -3.31461e-22)
(8.94291 -0.782007 2.30309e-22)
(8.92783 -0.791473 -6.12303e-22)
(8.37942 -0.629678 6.28424e-24)
(8.41244 -0.659907 -1.33994e-23)
(8.42803 -0.672669 9.16573e-25)
(8.39562 -0.660917 6.60114e-24)
(8.32287 -0.578962 -2.14053e-24)
(8.32949 -0.592459 -2.2977e-24)
(8.33672 -0.605242 0)
(8.348 -0.618052 0)
(8.24332 -0.508367 -1.51942e-22)
(8.22972 -0.501998 3.44152e-24)
(8.24795 -0.520732 3.92331e-22)
(8.25336 -0.533446 8.86539e-24)
(8.25896 -0.547 0)
(8.28672 -0.576311 0)
(8.27477 -0.567116 7.23519e-25)
(8.30562 -0.579713 0)
(8.07209 -0.229506 6.56251e-24)
(8.09775 -0.263697 -2.1133e-23)
(8.07746 -0.256509 -1.0244e-21)
(8.08832 -0.276424 6.13377e-24)
(8.09168 -0.295383 1.97763e-23)
(8.09478 -0.324177 6.59197e-24)
(8.07756 -0.316086 7.23409e-24)
(8.09176 -0.181281 1.04003e-23)
(8.08046 -0.185299 2.51958e-21)
(8.08187 -0.205058 -2.13713e-23)
(8.076 -0.336563 1.29366e-22)
(8.09848 -0.353331 -5.70382e-24)
(8.13547 -0.397352 1.83678e-23)
(8.12454 -0.391485 3.54494e-24)
(8.13786 -0.40913 5.19164e-22)
(8.11174 -0.382374 3.87695e-24)
(8.10041 -0.374131 -2.80319e-24)
(8.14369 -0.423558 4.56182e-23)
(8.14787 -0.436235 -1.44641e-22)
(8.15415 -0.44709 1.39973e-22)
(8.15942 -0.458199 2.0654e-24)
(8.18497 -0.469432 -3.2544e-23)