/*--------------------------------*- C++ -*----------------------------------*\
| =========                 |                                                 |
| \\      /  F ield         | OpenFOAM: The Open Source CFD Toolbox           |
|  \\    /   O peration     | Version:  v2012                                 |
|   \\  /    A nd           | Website:  www.openfoam.com                      |
|    \\/     M anipulation  |                                                 |
\*---------------------------------------------------------------------------*/
FoamFile
{
    version     2.0;
    format      ascii;
    class       volVectorField;
    location    "0.74";
    object      cellDisplacement;
}
// * * * * * * * * * * * * * * * * * * * * * * * * * * * * * * * * * * * * * //

dimensions      [0 1 0 0 0 0 0];


internalField   nonuniform List<vector> 
11961
(
(-0.000695411 0.00193512 0)
(-0.00166636 0.00464982 0)
(-0.00155239 0.004303 0)
(-0.00103609 0.00291186 0)
(-0.00315033 0.00877012 0)
(-0.00083244 0.00230245 0)
(-0.00297867 0.0082578 0)
(-0.00259375 0.00730322 0)
(-0.00458838 0.0127877 0)
(-0.00150907 0.00415788 0)
(-0.00408045 0.0112835 0)
(-0.00478458 0.0134008 0)
(-0.00274764 0.00777959 0)
(-0.0061241 0.0169919 0)
(-0.0030062 0.00827776 0)
(-0.000668083 0.00183919 0)
(-0.00412088 0.0113632 0)
(-0.00574482 0.0158924 0)
(-0.00665316 0.0186446 0)
(-0.00504256 0.0142916 0)
(-0.00112596 0.00320859 0)
(-0.00796525 0.0220876 0)
(-0.00330496 0.00907688 0)
(-0.00118355 0.00325025 0)
(-0.00574777 0.0158032 0)
(-0.00680821 0.0187455 0)
(-0.00683072 0.0192681 0)
(-0.00839191 0.0233894 0)
(-0.00500129 0.0142878 0)
(-0.00273802 0.00785063 0)
(-0.00931286 0.0256802 0)
(-0.00454165 0.0124496 0)
(-0.00234948 0.00644943 0)
(-0.000499019 0.00136981 0)
(-0.00587096 0.0160984 0)
(-0.00848199 0.023309 0)
(-0.00895649 0.0252852 0)
(-0.0104871 0.0292103 0)
(-0.00683105 0.019571 0)
(-0.00235437 0.00680708 0)
(-0.0112727 0.0310379 0)
(-0.0045912 0.0125563 0)
(-0.00258595 0.00708286 0)
(-0.000943345 0.00258556 0)
(-0.00703693 0.0192303 0)
(-0.00951095 0.0259938 0)
(-0.00895145 0.025488 0)
(-0.0108735 0.0304951 0)
(-0.0120528 0.0333526 0)
(-0.00658806 0.019065 0)
(-0.00447222 0.0130251 0)
(-0.000807431 0.0023429 0)
(-0.0124731 0.0341413 0)
(-0.00357913 0.00978854 0)
(-0.00558712 0.0152428 0)
(-0.00190309 0.00521288 0)
(-0.000731145 0.00200384 0)
(-0.00861588 0.0235087 0)
(-0.00667685 0.0182127 0)
(-0.0115172 0.0314079 0)
(-0.0110663 0.0315803 0)
(-0.0131142 0.0367656 0)
(-0.0143714 0.0396832 0)
(-0.00826599 0.0240078 0)
(-0.00433424 0.0127666 0)
(-0.000770021 0.00228179 0)
(-0.0144487 0.0394675 0)
(-0.00355478 0.00969653 0)
(-0.0055279 0.0150418 0)
(-0.00189976 0.00519264 0)
(-0.000256958 0.000704289 0)
(-0.00125954 0.00344624 0)
(-0.00897942 0.0243722 0)
(-0.00761479 0.0206912 0)
(-0.0125969 0.0341726 0)
(-0.0105672 0.0304917 0)
(-0.0132943 0.0376315 0)
(-0.0150937 0.0419466 0)
(-0.0155517 0.0426427 0)
(-0.00803846 0.02361 0)
(-0.00626298 0.0185489 0)
(-0.00226943 0.00674997 0)
(-0.015693 0.0425989 0)
(-0.00253131 0.00690782 0)
(-0.00448365 0.0122027 0)
(-0.00678596 0.0184106 0)
(-0.000388412 0.00106275 0)
(-0.000867541 0.00237207 0)
(-0.0103457 0.0279742 0)
(-0.014833 0.0401508 0)
(-0.0120992 0.0327093 0)
(-0.0116609 0.0338649 0)
(-0.0158307 0.0448276 0)
(-0.017208 0.0477584 0)
(-0.0177643 0.0484637 0)
(-0.00990154 0.0291391 0)
(-0.00621412 0.0186681 0)
(-0.00242135 0.00729026 0)
(-0.0178122 0.0482632 0)
(-0.00234243 0.00637698 0)
(-0.00430311 0.0116769 0)
(-0.00686736 0.0185658 0)
(-0.000105506 0.000288926 0)
(-0.000797651 0.00217837 0)
(-0.010147 0.0273058 0)
(-0.015615 0.0420132 0)
(-0.0138094 0.0371467 0)
(-0.0135491 0.0392753 0)
(-0.0177842 0.0498115 0)
(-0.0157446 0.0451138 0)
(-0.0191239 0.0526462 0)
(-0.0194412 0.0530905 0)
(-0.0100963 0.0300558 0)
(-0.00442647 0.0134052 0)
(-0.0081384 0.0245657 0)
(-0.000937689 0.0028562 0)
(-0.0191159 0.0515137 0)
(-0.00315151 0.00855702 0)
(-0.00156568 0.00426414 0)
(-0.0053429 0.014454 0)
(-0.00832366 0.0224163 0)
(-8.86388e-05 0.000242443 0)
(-0.00106677 0.00290853 0)
(-0.000343178 0.000938047 0)
(-0.0119255 0.031932 0)
(-0.0177976 0.0476585 0)
(-0.0138762 0.0371569 0)
(-0.0138345 0.0406256 0)
(-0.0201715 0.056229 0)
(-0.0174953 0.0503207 0)
(-0.0209894 0.0578556 0)
(-0.0219353 0.05942 0)
(-0.0120411 0.0358798 0)
(-0.00392143 0.0120847 0)
(-0.00829685 0.0253993 0)
(-0.00190316 0.00588321 0)
(-0.0192607 0.0516232 0)
(-0.0210476 0.0565587 0)
(-0.00271525 0.00735127 0)
(-0.00105776 0.00287295 0)
(-0.00495888 0.0133745 0)
(-0.00770514 0.0206757 0)
(-0.000523317 0.00142597 0)
(-0.000193105 0.00052713 0)
(-0.0119084 0.0317446 0)
(-0.0178023 0.0474256 0)
(-0.0156724 0.0417755 0)
(-0.015858 0.0464632 0)
(-0.021723 0.0606955 0)
(-0.0199235 0.056977 0)
(-0.0232794 0.0636759 0)
(-0.0239519 0.064929 0)
(-0.0224604 0.0603983 0)
(-0.0121314 0.0367459 0)
(-0.00496307 0.0154728 0)
(-0.0102662 0.0315362 0)
(-0.00684657 0.0212743 0)
(-0.000986165 0.00310219 0)
(-0.0212081 0.0566268 0)
(-0.00139676 0.00378529 0)
(-0.00347675 0.0093857 0)
(-0.000352468 0.000958661 0)
(-0.00591265 0.0158926 0)
(-0.00851925 0.0227577 0)
(-0.010316 0.0274819 0)
(-0.0141679 0.037565 0)
(-0.0193502 0.0512405 0)
(-0.0158444 0.0420233 0)
(-0.0162263 0.0481711 0)
(-0.0216944 0.0612129 0)
(-0.0242847 0.0671626 0)
(-0.0206778 0.059928 0)
(-0.0250305 0.0685717 0)
(-0.0266009 0.0714996 0)
(-0.0249751 0.0666518 0)
(-0.0140973 0.0427416 0)
(-0.00390743 0.0124465 0)
(-0.00965165 0.0302221 0)
(-0.00761057 0.0239983 0)
(-0.00201181 0.00643277 0)
(-0.0228884 0.0607719 0)
(-0.000682364 0.00184378 0)
(-0.00287044 0.00772584 0)
(-0.00516286 0.0138447 0)
(-0.00710014 0.0189378 0)
(-0.0105149 0.0278664 0)
(-0.0140553 0.0371027 0)
(-0.0179637 0.0474473 0)
(-0.0214949 0.0567278 0)
(-0.0184496 0.0545959 0)
(-0.0250423 0.0701507 0)
(-0.0263341 0.0728552 0)
(-0.0234647 0.0675906 0)
(-0.0279239 0.0758007 0)
(-0.0270613 0.0721959 0)
(-0.028866 0.0776017 0)
(-0.0252298 0.0669232 0)
(-0.0141199 0.0437131 0)
(-0.00487928 0.0157462 0)
(-0.010335 0.0327543 0)
(-0.0067153 0.0215167 0)
(-0.00101131 0.00330093 0)
(-0.0231298 0.0610937 0)
(-0.00143354 0.00386129 0)
(-0.00366249 0.00982923 0)
(-0.0056353 0.0150629 0)
(-0.00729931 0.0193913 0)
(-0.00887647 0.0235139 0)
(-0.0121336 0.0320405 0)
(-0.0156151 0.0410139 0)
(-0.0188555 0.0495381 0)
(-0.022243 0.0583655 0)
(-0.0185402 0.0558049 0)
(-0.026092 0.0736153 0)
(-0.0290261 0.0792355 0)
(-0.0236895 0.0692831 0)
(-0.029655 0.0784416 0)
(-0.0317217 0.0844137 0)
(-0.0275315 0.0725106 0)
(-0.0121849 0.0385348 0)
(-0.0161579 0.0499383 0)
(-0.00444595 0.0146284 0)
(-0.00884593 0.0287571 0)
(-0.00732326 0.0238757 0)
(-0.00164741 0.00548129 0)
(-0.0256305 0.0672345 0)
(-0.000742295 0.00199206 0)
(-0.00307206 0.00821836 0)
(-0.00421341 0.011244 0)
(-0.00570723 0.0151431 0)
(-0.00880199 0.0232163 0)
(-0.0118987 0.0312825 0)
(-0.0149143 0.0390372 0)
(-0.0177055 0.0464164 0)
(-0.0210197 0.0550607 0)
(-0.0242472 0.0633187 0)
(-0.0209329 0.0627049 0)
(-0.0296619 0.0828755 0)
(-0.031803 0.086317 0)
(-0.0264732 0.0769229 0)
(-0.0319284 0.0843129 0)
(-0.0297747 0.0782898 0)
(-0.0342611 0.0909234 0)
(-0.0275826 0.0722858 0)
(-0.0115782 0.037632 0)
(-0.0162267 0.051113 0)
(-0.00311145 0.0103668 0)
(-0.00593279 0.0196768 0)
(-0.00950275 0.0313768 0)
(-0.00067263 0.00228889 0)
(-0.0258038 0.0673592 0)
(-0.00163628 0.00437678 0)
(-0.00419017 0.0111447 0)
(-0.00579538 0.0153207 0)
(-0.0073062 0.0192639 0)
(-0.0102214 0.0268726 0)
(-0.0132033 0.0345831 0)
(-0.0159926 0.0416744 0)
(-0.0186084 0.0485223 0)
(-0.0221521 0.0577166 0)
(-0.0241705 0.0628577 0)
(-0.0206568 0.0631176 0)
(-0.0298844 0.0846928 0)
(-0.032542 0.0891446 0)
(-0.034545 0.0923482 0)
(-0.0258194 0.0766 0)
(-0.0343212 0.089814 0)
(-0.0321289 0.0837829 0)
(-0.0368297 0.0966345 0)
(-0.0295912 0.0770376 0)
(-0.0125165 0.0412225 0)
(-0.0145125 0.0471252 0)
(-0.0183246 0.0573583 0)
(-0.00310762 0.0105954 0)
(-0.00580369 0.0196619 0)
(-0.00857529 0.0290351 0)
(-0.00162095 0.00558988 0)
(-0.0276804 0.071866 0)
(-0.000940625 0.00250245 0)
(-0.00231411 0.00614077 0)
(-0.00441709 0.0116521 0)
(-0.00700503 0.0183917 0)
(-0.00994929 0.0260432 0)
(-0.0127309 0.0332192 0)
(-0.0175564 0.045695 0)
(-0.0152592 0.0396127 0)
(-0.0202639 0.0526667 0)
(-0.0217754 0.0565662 0)
(-0.0255542 0.0661009 0)
(-0.0227677 0.0693562 0)
(-0.0329816 0.0928467 0)
(-0.0365982 0.0990119 0)
(-0.0375698 0.0997463 0)
(-0.0280101 0.0828478 0)
(-0.0343107 0.0892725 0)
(-0.0365641 0.0954389 0)
(-0.0317999 0.0825856 0)
(-0.0395712 0.103312 0)
(-0.0293625 0.0761871 0)
(-0.0109847 0.0375517 0)
(-0.0152524 0.0503172 0)
(-0.0176442 0.0567063 0)
(-0.00416805 0.0143256 0)
(-0.00688374 0.023587 0)
(-0.00923916 0.031891 0)
(-0.00145449 0.00511033 0)
(-0.0281918 0.0728685 0)
(-0.00240977 0.00637102 0)
(-0.00516719 0.0135753 0)
(-0.00821949 0.0215103 0)
(-0.0111813 0.0291732 0)
(-0.0137268 0.0356688 0)
(-0.0185166 0.0479656 0)
(-0.0162568 0.0420312 0)
(-0.0201206 0.0520771 0)
(-0.0232893 0.0601641 0)
(-0.0249913 0.0644556 0)
(-0.0273912 0.0706814 0)
(-0.0217375 0.0679812 0)
(-0.0363605 0.100324 0)
(-0.0316237 0.0911277 0)
(-0.0379009 0.102928 0)
(-0.0386575 0.103031 0)
(-0.0399479 0.104808 0)
(-0.0264668 0.0805063 0)
(-0.0364226 0.0940368 0)
(-0.0385993 0.099897 0)
(-0.033283 0.0858869 0)
(-0.04155 0.107457 0)
(-0.0310041 0.0799641 0)
(-0.0111071 0.0389465 0)
(-0.0143069 0.0488558 0)
(-0.0189619 0.0611002 0)
(-0.00397394 0.0139616 0)
(-0.00623697 0.0218979 0)
(-0.00809925 0.0288147 0)
(-0.000501993 0.00177782 0)
(-0.00261236 0.00929122 0)
(-0.0303028 0.0780008 0)
(-0.00104467 0.00275291 0)
(-0.00442647 0.0115791 0)
(-0.00783003 0.0204018 0)
(-0.0109988 0.0285594 0)
(-0.0126403 0.0327251 0)
(-0.0179413 0.0463602 0)
(-0.0161355 0.0415373 0)
(-0.0213138 0.0549317 0)
(-0.0229105 0.0590062 0)
(-0.0262057 0.0672277 0)
(-0.0287085 0.0736162 0)
(-0.0232826 0.0729367 0)
(-0.0390845 0.107296 0)
(-0.033546 0.0965857 0)
(-0.0419367 0.112179 0)
(-0.0420066 0.110592 0)
(-0.0425571 0.111067 0)
(-0.0282134 0.0858619 0)
(-0.0384012 0.0989606 0)
(-0.0366764 0.0941883 0)
(-0.0407839 0.105181 0)
(-0.0352767 0.0906436 0)
(-0.032621 0.0839551 0)
(-0.0440406 0.113186 0)
(-0.0124587 0.0437235 0)
(-0.00959933 0.0349833 0)
(-0.0154559 0.0531953 0)
(-0.0178 0.0592235 0)
(-0.00490079 0.0174006 0)
(-0.00681361 0.0243553 0)
(-0.00835779 0.0305663 0)
(-0.000445119 0.00162514 0)
(-0.00252603 0.00915423 0)
(-0.0310565 0.0795835 0)
(-0.00229071 0.00600069 0)
(-0.00586196 0.0152685 0)
(-0.00937852 0.0243422 0)
(-0.0130834 0.0336936 0)
(-0.0186941 0.0480814 0)
(-0.01489 0.0382448 0)
(-0.0176229 0.0452291 0)
(-0.0211309 0.0542716 0)
(-0.0241004 0.0617663 0)
(-0.025641 0.0656087 0)
(-0.028041 0.0717414 0)
(-0.0302719 0.077445 0)
(-0.0215237 0.0698803 0)
(-0.0393825 0.108973 0)
(-0.0423624 0.114069 0)
(-0.0316471 0.0935907 0)
(-0.037023 0.104494 0)
(-0.0442871 0.116896 0)
(-0.0440566 0.115641 0)
(-0.0449916 0.116289 0)
(-0.0259707 0.0820938 0)
(-0.0403615 0.103248 0)
(-0.0387631 0.0988843 0)
(-0.0422677 0.108255 0)
(-0.0356354 0.0910837 0)
(-0.0340015 0.0870443 0)
(-0.0454799 0.116836 0)
(-0.0451494 0.115193 0)
(-0.0113585 0.041672 0)
(-0.00973981 0.0364538 0)
(-0.0148021 0.0527949 0)
(-0.018905 0.0632274 0)
(-0.00469112 0.0170134 0)
(-0.00574638 0.0209902 0)
(-0.0071897 0.0269876 0)
(-0.00121327 0.00444736 0)
(-0.00358346 0.0131096 0)
(-0.0324088 0.0827707 0)
(-0.00123553 0.00322081 0)
(-0.00562506 0.014587 0)
(-0.00896715 0.0231748 0)
(-0.0117154 0.0300732 0)
(-0.0199617 0.0512324 0)
(-0.0154943 0.0395273 0)
(-0.0180155 0.0460243 0)
(-0.0223843 0.0572413 0)
(-0.0237168 0.0605911 0)
(-0.0267709 0.0681121 0)
(-0.0289488 0.0736669 0)
(-0.0316921 0.0806288 0)
(-0.0224858 0.0736686 0)
(-0.0435359 0.118231 0)
(-0.0451787 0.120764 0)
(-0.034031 0.100053 0)
(-0.0378595 0.107752 0)
(-0.0479932 0.125156 0)
(-0.047205 0.122232 0)
(-0.0474558 0.122181 0)
(-0.0274433 0.0870454 0)
(-0.0403936 0.102909 0)
(-0.042006 0.107249 0)
(-0.0392206 0.0995662 0)
(-0.0441596 0.112633 0)
(-0.0369239 0.0938879 0)
(-0.0343806 0.0876335 0)
(-0.0480797 0.122392 0)
(-0.0472663 0.119804 0)
(-0.011403 0.0430799 0)
(-0.00894979 0.0349006 0)
(-0.0127835 0.0478926 0)
(-0.016829 0.0590194 0)
(-0.00593478 0.0221142 0)
(-0.0070347 0.0272545 0)
(-0.00128493 0.00476212 0)
(-0.00330623 0.0122907 0)
(-0.0327031 0.0831968 0)
(-0.0336878 0.08584 0)
(-0.00234333 0.00606798 0)
(-0.00720605 0.0186216 0)
(-0.00424783 0.0109863 0)
(-0.0100009 0.0257226 0)
(-0.0123548 0.0315079 0)
(-0.0205154 0.0523622 0)
(-0.0143142 0.0363963 0)
(-0.0171427 0.0436403 0)
(-0.0196194 0.049981 0)
(-0.0219512 0.0559209 0)
(-0.0247045 0.0628173 0)
(-0.0282074 0.0716207 0)
(-0.026169 0.0664191 0)
(-0.0305809 0.0775137 0)
(-0.0317956 0.0805797 0)
(-0.0199514 0.0686037 0)
(-0.0451032 0.122502 0)
(-0.0481919 0.126967 0)
(-0.0324737 0.0981282 0)
(-0.0418146 0.116646 0)
(-0.049407 0.128791 0)
(-0.0494955 0.127677 0)
(-0.0499025 0.127185 0)
(-0.0247352 0.0822345 0)
(-0.0420074 0.106349 0)
(-0.0437527 0.111001 0)
(-0.0384108 0.0973947 0)
(-0.0410383 0.103573 0)
(-0.0450332 0.114178 0)
(-0.0362604 0.0919855 0)
(-0.0486153 0.123092 0)
(-0.0498666 0.126593 0)
(-0.0479115 0.120751 0)
(-0.00955391 0.0381533 0)
(-0.00778329 0.0308712 0)
(-0.0119766 0.0473335 0)
(-0.017037 0.0608166 0)
(-0.0050671 0.0191373 0)
(-0.00606018 0.0237183 0)
(-0.00224079 0.00835334 0)
(-0.00046766 0.00174249 0)
(-0.00396146 0.0149127 0)
(-0.0339743 0.0861677 0)
(-0.00110033 0.00283591 0)
(-0.00697402 0.0179247 0)
(-0.00525031 0.0134965 0)
(-0.00855652 0.0219231 0)
(-0.0110454 0.0280706 0)
(-0.0148484 0.0374968 0)
(-0.0182162 0.0461162 0)
(-0.0198561 0.0502974 0)
(-0.0230065 0.0583139 0)
(-0.0244095 0.0618454 0)
(-0.0293666 0.0741464 0)
(-0.0268286 0.0677119 0)
(-0.0307718 0.0776259 0)
(-0.0335864 0.0845466 0)
(-0.0194076 0.0687647 0)
(-0.0492064 0.131175 0)
(-0.0510204 0.1335 0)
(-0.0351362 0.105147 0)
(-0.0433739 0.121118 0)
(-0.0529194 0.1362 0)
(-0.0523365 0.133563 0)
(-0.0521063 0.132117 0)
(-0.0252239 0.0849957 0)
(-0.0210433 0.0736518 0)
(-0.0434708 0.109758 0)
(-0.0420844 0.106141 0)
(-0.0442281 0.111745 0)
(-0.0397361 0.10002 0)
(-0.0412425 0.103574 0)
(-0.0466806 0.117735 0)
(-0.0373056 0.0940616 0)
(-0.0508383 0.127689 0)
(-0.0517964 0.130489 0)
(-0.0496872 0.124464 0)
(-0.0089544 0.0378059 0)
(-0.00695594 0.0289241 0)
(-0.0130245 0.051456 0)
(-0.00990182 0.0420276 0)
(-0.0151307 0.0570213 0)
(-0.00525507 0.0202631 0)
(-0.00587539 0.0235198 0)
(-0.00195391 0.00732191 0)
(-0.000991571 0.00371284 0)
(-0.0034638 0.0130925 0)
(-0.0350557 0.0884708 0)
(-0.00223535 0.00571795 0)
(-0.00446652 0.0114171 0)
(-0.00895903 0.0228322 0)
(-0.0116386 0.0293755 0)
(-0.0166206 0.0417842 0)
(-0.0134581 0.0338709 0)
(-0.0181194 0.0456127 0)
(-0.0212986 0.0537054 0)
(-0.0228361 0.0576091 0)
(-0.0256536 0.0646926 0)
(-0.0293023 0.0737016 0)
(-0.0280894 0.070645 0)
(-0.0321624 0.0806697 0)
(-0.0336205 0.0842282 0)
(-0.0349599 0.087887 0)
(-0.0160708 0.0608926 0)
(-0.0515365 0.13532 0)
(-0.0515775 0.137035 0)
(-0.0538491 0.138881 0)
(-0.0405369 0.116339 0)
(-0.0327614 0.10165 0)
(-0.0494525 0.133659 0)
(-0.0547086 0.139501 0)
(-0.0530877 0.134631 0)
(-0.0544348 0.138386 0)
(-0.0539316 0.135594 0)
(-0.0208328 0.0759398 0)
(-0.0281153 0.0922041 0)
(-0.0189527 0.0703445 0)
(-0.0446859 0.112087 0)
(-0.0438761 0.109973 0)
(-0.0462295 0.116002 0)
(-0.0392689 0.0985685 0)
(-0.0428879 0.106993 0)
(-0.0473552 0.118738 0)
(-0.0367369 0.0924226 0)
(-0.0521426 0.130777 0)
(-0.0511937 0.127989 0)
(-0.0536079 0.134529 0)
(-0.0500358 0.124784 0)
(-0.0074506 0.0333824 0)
(-0.00621193 0.0255874 0)
(-0.00680663 0.0298491 0)
(-0.0111699 0.0481358 0)
(-0.00927467 0.0421461 0)
(-0.0045455 0.017502 0)
(-0.00528542 0.0209889 0)
(-0.00252027 0.00947927 0)
(-0.000532609 0.00198225 0)
(-0.00379841 0.0144733 0)
(-0.001146 0.00291446 0)
(-0.00560124 0.0142244 0)
(-0.00767654 0.019479 0)
(-0.0103838 0.0261311 0)
(-0.0163527 0.0408411 0)
(-0.0143098 0.0357753 0)
(-0.0198017 0.0495886 0)
(-0.0213 0.0534279 0)
(-0.0244187 0.0612365 0)
(-0.0258268 0.0647918 0)
(-0.0306998 0.0767539 0)
(-0.0286219 0.0715184 0)
(-0.0321045 0.0801484 0)
(-0.0351117 0.08741 0)
(-0.0368427 0.0919194 0)
(-0.0144221 0.0581563 0)
(-0.0554944 0.143673 0)
(-0.0561278 0.145853 0)
(-0.0565347 0.144578 0)
(-0.0433898 0.123433 0)
(-0.0360723 0.109812 0)
(-0.0516633 0.139065 0)
(-0.0575415 0.14541 0)
(-0.0557204 0.139984 0)
(-0.0573853 0.144198 0)
(-0.0559162 0.139903 0)
(-0.0188971 0.0732992 0)
(-0.0262928 0.0901275 0)
(-0.0155402 0.0624607 0)
(-0.046299 0.115713 0)
(-0.0444345 0.110745 0)
(-0.0403069 0.100499 0)
(-0.0432831 0.107383 0)
(-0.0489714 0.122136 0)
(-0.0379819 0.0947975 0)
(-0.0539546 0.134462 0)
(-0.052979 0.131486 0)
(-0.0548783 0.136807 0)
(-0.051528 0.127788 0)
(-0.00640202 0.0319202 0)
(-0.0056499 0.0235712 0)
(-0.00593629 0.0267788 0)
(-0.011482 0.0506716 0)
(-0.00765919 0.038459 0)
(-0.0047135 0.0182971 0)
(-0.00529375 0.0212683 0)
(-0.0024142 0.00903805 0)
(-0.000930724 0.00344251 0)
(-0.00320312 0.0120392 0)
(-0.00234773 0.00592555 0)
(-0.00454986 0.0114846 0)
(-0.00850877 0.0214616 0)
(-0.0104307 0.0260851 0)
(-0.0176027 0.0437078 0)
(-0.0134878 0.0335195 0)
(-0.020429 0.050849 0)
(-0.0229262 0.0571684 0)
(-0.0244493 0.0609637 0)
(-0.0275024 0.0686326 0)
(-0.0302318 0.0752891 0)
(-0.0336624 0.0834514 0)
(-0.036852 0.0915546 0)
(-0.035185 0.0871326 0)
(-0.0574637 0.147178 0)
(-0.0598558 0.153612 0)
(-0.0587772 0.14878 0)
(-0.0483291 0.133361 0)
(-0.0409845 0.119725 0)
(-0.0341934 0.107371 0)
(-0.0559426 0.1478 0)
(-0.0589542 0.147759 0)
(-0.0590055 0.14875 0)
(-0.057669 0.144295 0)
(-0.0576224 0.143147 0)
(-0.0212711 0.0799445 0)
(-0.014555 0.0635791 0)
(-0.0293629 0.0977714 0)
(-0.0133537 0.0588565 0)
(-0.0477695 0.118584 0)
(-0.0463402 0.114695 0)
(-0.0420473 0.104337 0)
(-0.0395433 0.0983002 0)
(-0.0452023 0.111381 0)
(-0.050173 0.124266 0)
(-0.0550242 0.136344 0)
(-0.0546919 0.135226 0)
(-0.0528883 0.130837 0)
(-0.0567109 0.140487 0)
(-0.0517542 0.127764 0)
(-0.00641137 0.0339393 0)
(-0.00532445 0.027693 0)
(-0.00557774 0.0240487 0)
(-0.00539432 0.0260179 0)
(-0.00960052 0.047413 0)
(-0.00669372 0.0381386 0)
(-0.00434496 0.0165125 0)
(-0.00502501 0.0195834 0)
(-0.0017914 0.00663955 0)
(-0.000407552 0.00148308 0)
(-0.00321453 0.01194 0)
(-0.00121832 0.00305315 0)
(-0.00576432 0.0144554 0)
(-0.00760764 0.01909 0)
(-0.0116531 0.0289824 0)
(-0.00875486 0.0218626 0)
(-0.0169648 0.04188 0)
(-0.0196073 0.0486191 0)
(-0.0148983 0.0367803 0)
(-0.0225147 0.0558759 0)
(-0.0261628 0.0648516 0)
(-0.0277993 0.068957 0)
(-0.0313808 0.0776536 0)
(-0.0333942 0.0824074 0)
(-0.0382757 0.0943302 0)
(-0.0370592 0.0911703 0)
(-0.0606616 0.153535 0)
(-0.0610736 0.156886 0)
(-0.0630211 0.159255 0)
(-0.061211 0.153993 0)
(-0.0515069 0.140755 0)
(-0.0439871 0.126832 0)
(-0.0375871 0.115476 0)
(-0.0560323 0.14926 0)
(-0.059283 0.154104 0)
(-0.0613182 0.152518 0)
(-0.0616632 0.15378 0)
(-0.0599386 0.148557 0)
(-0.0595366 0.147258 0)
(-0.0579207 0.143264 0)
(-0.0193062 0.0776668 0)
(-0.0113328 0.0578614 0)
(-0.0276965 0.095884 0)
(-0.0102923 0.0512217 0)
(-0.0497979 0.123057 0)
(-0.0478313 0.118211 0)
(-0.0466792 0.114893 0)
(-0.042518 0.104852 0)
(-0.0408678 0.100924 0)
(-0.0456448 0.111808 0)
(-0.0569609 0.140482 0)
(-0.0564386 0.138352 0)
(-0.054311 0.133388 0)
(-0.0534484 0.131125 0)
(-0.00490039 0.0309176 0)
(-0.00427636 0.0255557 0)
(-0.00521798 0.0222306 0)
(-0.00498579 0.0229409 0)
(-0.00724966 0.0412869 0)
(-0.00472971 0.0327007 0)
(-0.00374717 0.013927 0)
(-0.00460525 0.0174289 0)
(-0.00500974 0.0190812 0)
(-0.00194207 0.00707967 0)
(-0.00079611 0.00283645 0)
(-0.00259611 0.0094582 0)
(-0.00265471 0.00660208 0)
(-0.00498739 0.0124152 0)
(-0.0105041 0.0259816 0)
(-0.00862017 0.0214009 0)
(-0.0181951 0.0446648 0)
(-0.0208764 0.0513608 0)
(-0.0145607 0.0356956 0)
(-0.0236278 0.0582552 0)
(-0.0265089 0.0653303 0)
(-0.029402 0.0725329 0)
(-0.0309693 0.0763365 0)
(-0.0346936 0.0849975 0)
(-0.0399877 0.0981362 0)
(-0.0375355 0.091801 0)
(-0.0628508 0.15825 0)
(-0.0661562 0.166782 0)
(-0.0665315 0.166305 0)
(-0.0635265 0.158294 0)
(-0.0494298 0.137673 0)
(-0.0422539 0.124565 0)
(-0.0359577 0.113647 0)
(-0.0599502 0.157197 0)
(-0.0622945 0.160795 0)
(-0.0626265 0.154853 0)
(-0.0636478 0.157945 0)
(-0.0621419 0.153095 0)
(-0.0610423 0.149873 0)
(-0.0600507 0.147427 0)
(-0.0148494 0.0686371 0)
(-0.0229897 0.0867109 0)
(-0.0113798 0.0599422 0)
(-0.00832285 0.0499778 0)
(-0.031042 0.103948 0)
(-0.00822294 0.0476648 0)
(-0.0513133 0.125669 0)
(-0.0500022 0.122527 0)
(-0.0485071 0.118553 0)
(-0.044181 0.108321 0)
(-0.0410852 0.100969 0)
(-0.0475484 0.115653 0)
(-0.0586144 0.143485 0)
(-0.0583667 0.142393 0)
(-0.0560349 0.137001 0)
(-0.0544289 0.132632 0)
(-0.00379575 0.0267699 0)
(-0.00392295 0.0225365 0)
(-0.00515727 0.0201452 0)
(-0.00459717 0.0217657 0)
(-0.00532424 0.0383318 0)
(-0.0030399 0.0298125 0)
(-0.00362373 0.0129502 0)
(-0.00448254 0.016241 0)
(-0.0048255 0.0172139 0)
(-0.00149822 0.00534522 0)
(-0.00039292 0.0013576 0)
(-0.00256207 0.00904559 0)
(-0.00145987 0.003601 0)
(-0.00670552 0.0165973 0)
(-0.0107687 0.0264593 0)
(-0.0178738 0.0436231 0)
(-0.0200578 0.0491653 0)
(-0.0228049 0.055971 0)
(-0.0127048 0.031081 0)
(-0.0163141 0.0397652 0)
(-0.0254361 0.0625387 0)
(-0.0284572 0.0697168 0)
(-0.0296231 0.0726321 0)
(-0.0323539 0.0791606 0)
(-0.0364036 0.0888986 0)
(-0.0340233 0.083016 0)
(-0.041336 0.100632 0)
(-0.0394461 0.0957986 0)
(-0.065798 0.163612 0)
(-0.068181 0.171331 0)
(-0.068024 0.169799 0)
(-0.0686941 0.169991 0)
(-0.0657566 0.162957 0)
(-0.0515494 0.14295 0)
(-0.0463291 0.133534 0)
(-0.039833 0.122636 0)
(-0.0620764 0.162146 0)
(-0.0660716 0.168031 0)
(-0.0651068 0.159787 0)
(-0.0628824 0.154963 0)
(-0.0657708 0.161845 0)
(-0.0639255 0.156114 0)
(-0.0631426 0.154092 0)
(-0.061045 0.14899 0)
(-0.0125256 0.0658463 0)
(-0.0227482 0.0880489 0)
(-0.00749417 0.0524129 0)
(-0.00531985 0.0436822 0)
(-0.0284266 0.100087 0)
(-0.00586259 0.0415249 0)
(-0.0533839 0.129929 0)
(-0.0502445 0.122505 0)
(-0.0488979 0.118849 0)
(-0.0445353 0.108535 0)
(-0.0430769 0.105107 0)
(-0.0479896 0.116001 0)
(-0.0604739 0.147368 0)
(-0.0601947 0.145602 0)
(-0.0577481 0.139909 0)
(-0.056899 0.137628 0)
(-0.00249085 0.0242524 0)
(-0.00308436 0.0202476 0)
(-0.0052908 0.0187936 0)
(-0.0047242 0.0199665 0)
(-0.00294885 0.0320845 0)
(-0.00180964 0.0253618 0)
(-0.00406719 0.0142761 0)
(-0.00305265 0.0106235 0)
(-0.00494022 0.0161674 0)
(-0.00189886 0.00660659 0)
(-0.00086279 0.00287622 0)
(-0.00284435 0.00696024 0)
(-0.00678683 0.0166865 0)
(-0.00896504 0.0219582 0)
(-0.0193899 0.0470868 0)
(-0.0207817 0.0505845 0)
(-0.0239848 0.0584751 0)
(-0.0127635 0.0309609 0)
(-0.0163026 0.0394475 0)
(-0.0265971 0.0648972 0)
(-0.0284585 0.0692939 0)
(-0.0314931 0.0767989 0)
(-0.0374042 0.090727 0)
(-0.0354019 0.085674 0)
(-0.0432154 0.104876 0)
(-0.041133 0.0996719 0)
(-0.0391485 0.0946612 0)
(-0.0682168 0.168523 0)
(-0.0723308 0.179201 0)
(-0.0714239 0.176188 0)
(-0.0713564 0.175158 0)
(-0.0679979 0.166941 0)
(-0.0562603 0.152599 0)
(-0.0457233 0.133709 0)
(-0.0375615 0.119714 0)
(-0.0672211 0.171715 0)
(-0.0609688 0.161069 0)
(-0.0686272 0.173597 0)
(-0.0652713 0.159659 0)
(-0.0663234 0.162432 0)
(-0.067822 0.166108 0)
(-0.0660821 0.160385 0)
(-0.0644892 0.156181 0)
(-0.0633035 0.153433 0)
(-0.014258 0.0712412 0)
(-0.0078776 0.0554373 0)
(-0.019341 0.0821159 0)
(-0.00351616 0.0431114 0)
(-0.00304493 0.0401093 0)
(-0.00413629 0.039007 0)
(-0.0308221 0.106353 0)
(-0.0547175 0.132047 0)
(-0.0520122 0.125719 0)
(-0.0510045 0.12307 0)
(-0.0464143 0.112337 0)
(-0.0500221 0.119998 0)
(-0.0624967 0.150939 0)
(-0.0624139 0.150211 0)
(-0.0599247 0.144401 0)
(-0.0580238 0.139315 0)
(-0.00172465 0.0211113 0)
(-0.00348421 0.0187233 0)
(-0.00200993 0.0194953 0)
(-0.00529338 0.0189827 0)
(-0.00543088 0.0171401 0)
(-0.00432412 0.0188243 0)
(-0.000979044 0.0291141 0)
(2.15619e-05 0.0213145 0)
(-0.0040642 0.0134925 0)
(-0.00300092 0.00990595 0)
(-0.0045541 0.0144527 0)
(-0.00168523 0.00562521 0)
(-0.000471592 0.0015065 0)
(-0.0014044 0.00340865 0)
(-0.00525665 0.0128623 0)
(-0.00895841 0.0217664 0)
(-0.0196309 0.0473692 0)
(-0.0223643 0.0541924 0)
(-0.0259541 0.0631139 0)
(-0.0237392 0.0575851 0)
(-0.0146605 0.0353897 0)
(-0.0108195 0.0261667 0)
(-0.018187 0.0437849 0)
(-0.0298317 0.0721676 0)
(-0.0324972 0.0786795 0)
(-0.0370654 0.0894987 0)
(-0.034697 0.0836296 0)
(-0.0449433 0.108277 0)
(-0.0430653 0.103418 0)
(-0.0400022 0.0960812 0)
(-0.0705492 0.172544 0)
(-0.0740485 0.183024 0)
(-0.0744778 0.182722 0)
(-0.0737767 0.180929 0)
(-0.0723271 0.177435 0)
(-0.0732678 0.178367 0)
(-0.0702982 0.171547 0)
(-0.0559437 0.153399 0)
(-0.050569 0.143828 0)
(-0.0410539 0.127962 0)
(-0.0705302 0.178512 0)
(-0.0660645 0.17138 0)
(-0.0725151 0.180765 0)
(-0.0666659 0.162041 0)
(-0.0689054 0.167281 0)
(-0.069779 0.169459 0)
(-0.0680545 0.163849 0)
(-0.066698 0.160384 0)
(-0.0642397 0.154674 0)
(-0.0112812 0.0670102 0)
(-0.00413749 0.0483587 0)
(-0.0208406 0.0873358 0)
(-0.000808958 0.0389469 0)
(-0.000157299 0.0318435 0)
(-0.00173457 0.0332504 0)
(-0.0268761 0.100016 0)
(-0.0568712 0.136455 0)
(-0.0539539 0.129819 0)
(-0.051697 0.123895 0)
(-0.0466795 0.11228 0)
(-0.0503825 0.120086 0)
(-0.0643345 0.15348 0)
(-0.0617875 0.147629 0)
(-0.0604622 0.143979 0)
(-0.000162764 0.0189602 0)
(-0.00311912 0.0167809 0)
(-0.00125578 0.016451 0)
(-0.00590661 0.0182949 0)
(-0.00593903 0.0166787 0)
(-0.00478675 0.0178414 0)
(0.00140705 0.022858 0)
(0.00157467 0.0196309 0)
(-0.00355468 0.0114451 0)
(-0.00228264 0.00736383 0)
(-0.00445682 0.0133056 0)
(-0.000832034 0.00251321 0)
(-0.00304282 0.00733897 0)
(-0.0067129 0.016301 0)
(-0.0212275 0.0510043 0)
(-0.0225018 0.0541801 0)
(-0.0267925 0.0646677 0)
(-0.0254445 0.0613284 0)
(-0.0148802 0.0356239 0)
(-0.0110131 0.0264108 0)
(-0.0185126 0.0442346 0)
(-0.0317258 0.0765694 0)
(-0.0297825 0.0716152 0)
(-0.0385903 0.0925795 0)
(-0.0359535 0.0858875 0)
(-0.0449731 0.107755 0)
(-0.0430641 0.102883 0)
(-0.04158 0.099394 0)
(-0.0729815 0.177329 0)
(-0.07796 0.190298 0)
(-0.0781693 0.189659 0)
(-0.0765311 0.185556 0)
(-0.0753311 0.18294 0)
(-0.0758822 0.183444 0)
(-0.0724547 0.175193 0)
(-0.060071 0.161942 0)
(-0.0515333 0.147073 0)
(-0.0480478 0.141528 0)
(-0.037207 0.122093 0)
(-0.0748876 0.186327 0)
(-0.0701276 0.178535 0)
(-0.0668461 0.173789 0)
(-0.0754259 0.186681 0)
(-0.0693131 0.167104 0)
(-0.0704376 0.169712 0)
(-0.0720283 0.173831 0)
(-0.0702729 0.168384 0)
(-0.068252 0.163742 0)
(-0.067955 0.162186 0)
(-0.0666221 0.159134 0)
(-0.00631963 0.0569905 0)
(-0.0157168 0.0780106 0)
(-0.00299877 0.0480813 0)
(0.00235312 0.0322257 0)
(0.0028367 0.0250171 0)
(-0.0296562 0.107335 0)
(-0.0583669 0.138891 0)
(-0.0556763 0.132757 0)
(-0.0539421 0.128213 0)
(-0.0486071 0.116024 0)
(-0.0523804 0.123873 0)
(-0.0664294 0.157655 0)
(-0.0638889 0.151983 0)
(-0.0619723 0.147307 0)
(-0.0606106 0.143531 0)
(0.0007309 0.0158692 0)
(-0.00205366 0.0155137 0)
(-0.00421538 0.0166954 0)
(6.71639e-05 0.0147895 0)
(-0.00569901 0.0179192 0)
(-0.00673721 0.0179829 0)
(-0.00591169 0.0153832 0)
(-0.00667236 0.0173926 0)
(0.00361162 0.020002 0)
(0.00354411 0.0136567 0)
(-0.0037033 0.0112916 0)
(-0.00219118 0.00671245 0)
(-0.00467876 0.0129303 0)
(-0.000355802 0.00103149 0)
(-0.00155825 0.00465389 0)
(-0.00286218 0.00686265 0)
(-0.00589409 0.0142315 0)
(-0.0219157 0.0522718 0)
(-0.024071 0.0576261 0)
(-0.0284374 0.0683068 0)
(-0.0255242 0.0611356 0)
(-0.0169356 0.0403505 0)
(-0.0132065 0.0315163 0)
(-0.00927273 0.0221541 0)
(-0.020695 0.0492033 0)
(-0.0327982 0.0785419 0)
(-0.0315808 0.0754886 0)
(-0.0390349 0.0930739 0)
(-0.0347603 0.0828172 0)
(-0.0379635 0.0902695 0)
(-0.0468112 0.111262 0)
(-0.0448843 0.106335 0)
(-0.0422046 0.100138 0)
(-0.0753478 0.181336 0)
(-0.0790647 0.192966 0)
(-0.0798175 0.193234 0)
(-0.079873 0.192341 0)
(-0.0789706 0.190127 0)
(-0.0779994 0.187011 0)
(-0.0749806 0.180085 0)
(-0.058144 0.159599 0)
(-0.0644681 0.170052 0)
(-0.052068 0.150764 0)
(-0.0408256 0.130503 0)
(-0.0778576 0.192197 0)
(-0.0744013 0.186869 0)
(-0.0718703 0.183435 0)
(-0.0732893 0.175093 0)
(-0.0740034 0.177073 0)
(-0.0727105 0.172652 0)
(-0.0706458 0.167897 0)
(-0.0702848 0.166619 0)
(-0.0675228 0.160286 0)
(-0.00408823 0.0550094 0)
(-0.0145898 0.0775767 0)
(0.00205586 0.0376196 0)
(0.00406512 0.0311747 0)
(0.00475314 0.0253939 0)
(0.00511555 0.022036 0)
(-0.0257123 0.101397 0)
(-0.0579116 0.137408 0)
(-0.0556485 0.132033 0)
(-0.0542265 0.128024 0)
(-0.0486874 0.115501 0)
(-0.0524927 0.123357 0)
(-0.0680872 0.160313 0)
(-0.0657758 0.155049 0)
(-0.0646899 0.152334 0)
(-0.0623969 0.146506 0)
(0.00257807 0.0128933 0)
(-0.0018973 0.0134685 0)
(-0.00466638 0.0157128 0)
(0.000831838 0.0118533 0)
(-0.00663765 0.0177155 0)
(-0.00789381 0.0184578 0)
(-0.00530708 0.0138007 0)
(-0.00684764 0.0160663 0)
(-0.00748815 0.0173179 0)
(0.00599025 0.0135257 0)
(0.00576226 0.0103502 0)
(-0.00342505 0.00996561 0)
(-0.00278781 0.00812594 0)
(-0.0039611 0.0108091 0)
(-0.000667025 0.00182615 0)
(-0.00177909 0.00499465 0)
(-0.00123401 0.00294749 0)
(-0.00539373 0.0128667 0)
(-0.00706045 0.0169222 0)
(-0.023773 0.0565597 0)
(-0.0288354 0.0687031 0)
(-0.0273016 0.0649777 0)
(-0.0173442 0.0409965 0)
(-0.0136534 0.0322784 0)
(-0.00973937 0.0230795 0)
(-0.0212395 0.0500528 0)
(-0.0321254 0.0762368 0)
(-0.0410352 0.097272 0)
(-0.0353985 0.0837049 0)
(-0.0395077 0.0931216 0)
(-0.0466551 0.110262 0)
(-0.0441987 0.104326 0)
(-0.0777134 0.185902 0)
(-0.0821412 0.19874 0)
(-0.0837457 0.200293 0)
(-0.0828953 0.197779 0)
(-0.0814276 0.194223 0)
(-0.0804744 0.19159 0)
(-0.0772713 0.183875 0)
(-0.0619224 0.167404 0)
(-0.0684824 0.178448 0)
(-0.048171 0.144636 0)
(-0.0589206 0.163672 0)
(-0.0380105 0.126586 0)
(-0.0815089 0.198718 0)
(-0.0774577 0.192143 0)
(-0.0749068 0.188588 0)
(-0.0727628 0.185988 0)
(-0.0753814 0.178531 0)
(-0.0766667 0.182161 0)
(-0.0751216 0.177405 0)
(-0.0727353 0.172028 0)
(-0.0723021 0.169907 0)
(-0.0698948 0.164568 0)
(0.00161465 0.0434402 0)
(-0.00823274 0.0652969 0)
(-0.0188545 0.0878674 0)
(0.0042849 0.0353032 0)
(0.00814026 0.0221888 0)
(0.00841408 0.0188711 0)
(0.00815515 0.013853 0)
(-0.0307609 0.113032 0)