/*--------------------------------*- C++ -*----------------------------------*\
| =========                 |                                                 |
| \\      /  F ield         | OpenFOAM: The Open Source CFD Toolbox           |
|  \\    /   O peration     | Version:  v2012                                 |
|   \\  /    A nd           | Website:  www.openfoam.com                      |
|    \\/     M anipulation  |                                                 |
\*---------------------------------------------------------------------------*/
FoamFile
{
    version     2.0;
    format      ascii;
    class       pointVectorField;
    location    "0.74";
    object      pointDisplacement;
}
// * * * * * * * * * * * * * * * * * * * * * * * * * * * * * * * * * * * * * //

dimensions      [0 1 0 0 0 0 0];


internalField   nonuniform List<vector> 
14482
(
(0 0 0)
(0 0 0)
(0 0 0)
(0 0 0)
(0 0 0)
(0 0 0)
(0 0 0)
(0 0 0)
(0 0 0)
(0 0 0)
(0 0 0)
(0 0 0)
(0 0 0)
(0 0 0)
(0 0 0)
(0 0 0)
(0 0 0)
(0 0 0)
(0 0 0)
(0 0 0)
(0 0 0)
(0 0 0)
(0 0 0)
(0 0 0)
(0 0 0)
(0 0 0)
(0 0 0)
(0 0 0)
(0 0 0)
(0 0 0)
(0 0 0)
(0 0 0)
(0 0 0)
(0 0 0)
(0 0 0)
(0 0 0)
(0 0 0)
(0 0 0)
(0 0 0)
(0 0 0)
(0 0 0)
(0 0 0)
(0 0 0)
(0 0 0)
(0 0 0)
(0 0 0)
(0 0 0)
(0 0 0)
(0 0 0)
(0 0 0)
(0 0 0)
(0 0 0)
(0 0 0)
(0 0 0)
(0 0 0)
(0 0 0)
(0 0 0)
(0 0 0)
(0 0 0)
(0 0 0)
(0 0 0)
(0 0 0)
(0 0 0)
(0 0 0)
(0 0 0)
(0 0 0)
(0 0 0)
(0 0 0)
(0 0 0)
(0 0 0)
(0 0 0)
(0 0 0)
(0 0 0)
(0 0 0)
(0 0 0)
(0 0 0)
(0 0 0)
(0 0 0)
(0 0 0)
(0 0 0)
(0 0 0)
(0 0 0)
(0 0 0)
(0.125223 -0.216635 0)
(0.125452 -0.216441 0)
(0.125699 -0.216232 0)
(0.125965 -0.216007 0)
(0.126251 -0.215765 0)
(0.12656 -0.215504 0)
(0.126892 -0.215223 0)
(0.127249 -0.21492 0)
(0.127634 -0.214595 0)
(0.128049 -0.214244 0)
(0.128495 -0.213866 0)
(0.128976 -0.21346 0)
(0.129493 -0.213023 0)
(0.129932 -0.212443 0)
(0.130394 -0.211809 0)
(0.130891 -0.211127 0)
(0.131357 -0.210349 0)
(0.131841 -0.209501 0)
(0.132306 -0.208559 0)
(0.132775 -0.207532 0)
(0.133217 -0.2064 0)
(0.133639 -0.205165 0)
(0.134039 -0.203819 0)
(0.134408 -0.202357 0)
(0.134744 -0.200772 0)
(0.135032 -0.199056 0)
(0.135277 -0.197203 0)
(0.135468 -0.195205 0)
(0.135602 -0.193056 0)
(0.13567 -0.190746 0)
(0.135667 -0.188268 0)
(0.135588 -0.185612 0)
(0.135424 -0.182769 0)
(0.135169 -0.179729 0)
(0.134815 -0.176481 0)
(0.134354 -0.173015 0)
(0.133777 -0.169319 0)
(0.133076 -0.165382 0)
(0.132242 -0.16119 0)
(0.131265 -0.156732 0)
(0.130134 -0.151995 0)
(0.128839 -0.146965 0)
(0.127368 -0.141629 0)
(0.12571 -0.135974 0)
(0.123852 -0.129986 0)
(0.121782 -0.123652 0)
(0.119488 -0.116958 0)
(0.116955 -0.109892 0)
(0.114172 -0.102442 0)
(0.111125 -0.0945953 0)
(0.107799 -0.0863417 0)
(0.104184 -0.0776718 0)
(0.100265 -0.0685762 0)
(0.0960322 -0.0590486 0)
(0.0914727 -0.049083 0)
(0.0865767 -0.038676 0)
(0.0813346 -0.0278251 0)
(0.07574 -0.016533 0)
(0.0697852 -0.00480048 0)
(0.0634668 0.00736583 0)
(0.0567827 0.0199577 0)
(0.0497329 0.0329636 0)
(0.04232 0.04637 0)
(0.0345499 0.0601585 0)
(0.02643 0.07431 0)
(0.017972 0.0888002 0)
(0.00919007 0.103603 0)
(0.000100124 0.118689 0)
(-0.00927656 0.134027 0)
(-0.0189186 0.149582 0)
(-0.0288004 0.165317 0)
(-0.0388946 0.181194 0)
(-0.0491714 0.197173 0)
(-0.0596003 0.213213 0)
(-0.0701476 0.22927 0)
(-0.0807809 0.245304 0)
(-0.0914651 0.261271 0)
(-0.102167 0.27713 0)
(-0.112852 0.292839 0)
(-0.123487 0.308358 0)
(-0.13404 0.323652 0)
(-0.144481 0.338683 0)
(-0.154779 0.353418 0)
(-0.164907 0.367827 0)
(-0.174842 0.381882 0)
(-0.18456 0.39556 0)
(-0.19404 0.408838 0)
(-0.203266 0.421698 0)
(-0.212221 0.434128 0)
(-0.220893 0.446112 0)
(-0.229273 0.457646 0)
(-0.237351 0.468722 0)
(-0.245122 0.479339 0)
(-0.252584 0.489496 0)
(-0.259733 0.499196 0)
(-0.266571 0.508443 0)
(-0.2731 0.517246 0)
(-0.279323 0.525611 0)
(-0.285245 0.533549 0)
(-0.290872 0.541071 0)
(-0.296211 0.548189 0)
(-0.301269 0.554917 0)
(-0.306056 0.561269 0)
(-0.31058 0.567259 0)
(-0.314851 0.5729 0)
(-0.318878 0.578211 0)
(-0.322671 0.583202 0)
(-0.326242 0.587892 0)
(-0.329598 0.592293 0)
(-0.332751 0.596421 0)
(-0.33571 0.600288 0)
(-0.338486 0.603911 0)
(-0.341087 0.607301 0)
(-0.343524 0.610473 0)
(-0.345804 0.613438 0)
(-0.347938 0.616209 0)
(-0.349933 0.618797 0)
(-0.351796 0.621212 0)
(-0.353537 0.623466 0)
(-0.355163 0.625568 0)
(-0.356679 0.627528 0)
(-0.358094 0.629354 0)
(-0.359413 0.631057 0)
(-0.360643 0.632643 0)
(-0.361789 0.634119 0)
(-0.362856 0.635494 0)
(-0.363851 0.636775 0)
(-0.364777 0.637965 0)
(-0.365638 0.639073 0)
(-0.36644 0.640103 0)
(-0.367186 0.641063 0)
(-0.36788 0.641954 0)
(-0.368526 0.642782 0)
(-0.369126 0.643553 0)
(-0.369684 0.644269 0)
(-0.370203 0.644935 0)
(-0.370686 0.645553 0)
(-0.371134 0.646128 0)
(-0.37155 0.646661 0)
(-0.371938 0.647158 0)
(-0.372297 0.647618 0)
(-0.372631 0.648046 0)
(-0.372942 0.648444 0)
(-0.37323 0.648813 0)
(-0.373498 0.649155 0)
(-0.373747 0.649474 0)
(-0.373978 0.649769 0)
(-0.374192 0.650044 0)
(-0.374392 0.650299 0)
(-0.374576 0.650536 0)
(-0.374836 0.650385 0)
(-0.375066 0.650252 0)
(-0.375277 0.650131 0)
(-0.375475 0.650016 0)
(-0.375668 0.649904 0)
(-0.375861 0.649793 0)
(-0.37606 0.649678 0)
(-0.37627 0.649556 0)
(-0.3765 0.649424 0)
(-0.37676 0.649273 0)
(-0.376647 0.648995 0)
(-0.376526 0.648695 0)
(-0.376395 0.648372 0)
(-0.376254 0.648025 0)
(-0.376102 0.64765 0)
(-0.375939 0.647247 0)
(-0.375764 0.646813 0)
(-0.375574 0.646345 0)
(-0.37537 0.645842 0)
(-0.37515 0.645301 0)
(-0.374913 0.644718 0)
(-0.374659 0.64409 0)
(-0.374385 0.643415 0)
(-0.374089 0.642689 0)
(-0.373771 0.641906 0)
(-0.37343 0.641065 0)
(-0.373062 0.64016 0)
(-0.372666 0.639188 0)
(-0.37224 0.638141 0)
(-0.371781 0.637016 0)
(-0.371289 0.635807 0)
(-0.370759 0.634508 0)
(-0.370189 0.633111 0)
(-0.369576 0.63161 0)
(-0.368917 0.629999 0)
(-0.36821 0.628269 0)
(-0.367449 0.626412 0)
(-0.366632 0.624419 0)
(-0.365756 0.622282 0)
(-0.364814 0.619989 0)
(-0.363804 0.617531 0)
(-0.362719 0.614898 0)
(-0.361557 0.612077 0)
(-0.36031 0.609057 0)
(-0.358974 0.605826 0)
(-0.357543 0.60237 0)
(-0.356011 0.598675 0)
(-0.354371 0.594729 0)
(-0.352617 0.590515 0)
(-0.350743 0.586021 0)
(-0.34874 0.581228 0)
(-0.346601 0.576123 0)
(-0.344319 0.570689 0)
(-0.341887 0.564911 0)
(-0.339296 0.55877 0)
(-0.336539 0.552254 0)
(-0.333606 0.545345 0)
(-0.330491 0.538026 0)
(-0.327186 0.530285 0)
(-0.323682 0.522105 0)
(-0.319972 0.513475 0)
(-0.31605 0.504382 0)
(-0.311907 0.494814 0)
(-0.307538 0.484763 0)
(-0.302938 0.474222 0)
(-0.298101 0.463186 0)
(-0.293023 0.45165 0)
(-0.287702 0.439617 0)
(-0.282136 0.427089 0)
(-0.276324 0.414072 0)
(-0.270267 0.400575 0)
(-0.263966 0.386611 0)
(-0.257427 0.372198 0)
(-0.250652 0.357356 0)
(-0.24365 0.342108 0)
(-0.236429 0.326484 0)
(-0.228999 0.310516 0)
(-0.22137 0.294238 0)
(-0.213556 0.277689 0)
(-0.205571 0.260911 0)
(-0.197431 0.243949 0)
(-0.189151 0.22685 0)
(-0.18075 0.209661 0)
(-0.172247 0.192433 0)
(-0.16366 0.175216 0)
(-0.15501 0.158063 0)
(-0.146316 0.14102 0)
(-0.137599 0.124139 0)
(-0.128879 0.107468 0)
(-0.120176 0.0910512 0)
(-0.111509 0.0749324 0)
(-0.102899 0.0591522 0)
(-0.0943626 0.0437454 0)
(-0.0859189 0.0287475 0)
(-0.077584 0.0141862 0)
(-0.0693738 8.68091e-05 0)
(-0.0613037 -0.0135282 0)
(-0.0533864 -0.0266431 0)
(-0.0456348 -0.0392433 0)
(-0.0380597 -0.0513202 0)
(-0.0306706 -0.0628676 0)
(-0.023476 -0.0738834 0)
(-0.0164833 -0.0843674 0)
(-0.00969698 -0.0943257 0)
(-0.00312254 -0.103762 0)
(0.00323733 -0.112687 0)
(0.00938057 -0.121111 0)
(0.0153065 -0.129046 0)
(0.0210149 -0.136506 0)
(0.0265073 -0.143507 0)
(0.0317855 -0.150064 0)
(0.0368524 -0.156195 0)
(0.0417112 -0.161916 0)
(0.0463665 -0.167245 0)
(0.0508224 -0.1722 0)
(0.0550841 -0.176799 0)
(0.0591569 -0.181058 0)
(0.0630465 -0.184996 0)
(0.0667586 -0.188629 0)
(0.0702991 -0.191973 0)
(0.0736744 -0.195045 0)
(0.0768902 -0.19786 0)
(0.0799526 -0.200432 0)
(0.0828673 -0.202776 0)
(0.0856405 -0.204906 0)
(0.0882779 -0.206834 0)
(0.0907851 -0.208572 0)
(0.0931671 -0.210133 0)
(0.0954288 -0.211527 0)
(0.0975748 -0.212767 0)
(0.0996103 -0.21386 0)
(0.10154 -0.214817 0)
(0.103366 -0.215649 0)
(0.105094 -0.216361 0)
(0.106725 -0.216968 0)
(0.108266 -0.217469 0)
(0.109718 -0.217878 0)
(0.111083 -0.218203 0)
(0.112364 -0.218454 0)
(0.113565 -0.218635 0)
(0.11469 -0.218742 0)
(0.115737 -0.218809 0)
(0.116714 -0.218813 0)
(0.117621 -0.218798 0)
(0.11846 -0.218707 0)
(0.11924 -0.218624 0)
(0.119962 -0.218532 0)
(0.120599 -0.218302 0)
(0.121191 -0.218089 0)
(0.12174 -0.21789 0)
(0.122251 -0.217706 0)
(0.122726 -0.217535 0)
(0.123166 -0.217376 0)
(0.123575 -0.217229 0)
(0.123955 -0.217092 0)
(0.124308 -0.216965 0)
(0.124636 -0.216846 0)
(0.12494 -0.216737 0)
(-0.0686461 0.189631 0)
(-0.0821833 0.215549 0)
(-0.0801828 0.209998 0)
(-0.0976264 0.238638 0)
(-0.0862486 0.217501 0)
(-0.0841872 0.215603 0)
(-0.125461 0.275828 0)
(-0.120878 0.269739 0)
(-0.133796 0.290262 0)
(-0.0445596 0.136246 0)
(-0.0337024 0.116842 0)
(-0.0444434 0.138566 0)
(-0.0615434 0.19423 0)
(-0.0561037 0.187185 0)
(-0.0782696 0.224681 0)
(-0.0416345 0.13794 0)
(-0.0329755 0.12448 0)
(-0.0462918 0.148943 0)
(-0.157666 0.347361 0)
(-0.158359 0.349351 0)
(-0.167023 0.36318 0)
(-0.140571 0.317893 0)
(-0.13644 0.312215 0)
(-0.148358 0.331475 0)
(-0.172246 0.356677 0)
(-0.189312 0.382801 0)
(-0.18404 0.372491 0)
(-0.0837327 0.204981 0)
(-0.0909989 0.218632 0)
(-0.0899376 0.215557 0)
(-0.0225571 0.0974302 0)
(-0.0160309 0.0890084 0)
(-0.0293285 0.113836 0)
(-0.0407973 0.158313 0)
(-0.0419537 0.163995 0)
(-0.121885 0.293988 0)
(-0.10878 0.271657 0)
(-0.100377 0.258861 0)
(-0.0181996 0.102569 0)
(-0.00384538 0.0758283 0)
(-0.012248 0.0946049 0)
(-0.172889 0.373506 0)
(-0.181678 0.387758 0)
(-0.176962 0.379322 0)
(-0.170942 0.363612 0)
(-0.181175 0.380517 0)
(-0.179525 0.376055 0)
(-0.123626 0.281429 0)
(-0.126915 0.284994 0)
(-0.114847 0.265006 0)
(-0.0759983 0.180294 0)
(-0.0779443 0.182779 0)
(-0.0723579 0.172692 0)
(-0.0234368 0.0827562 0)
(-0.03114 0.0998413 0)
(-0.0294047 0.0930672 0)
(-0.0381691 0.112742 0)
(-0.0108231 0.0604514 0)
(-0.00719349 0.0495768 0)
(-0.00476181 0.0476438 0)
(0.00513456 0.0768918 0)
(-0.00111404 0.0857098 0)
(0.0108358 0.0610657 0)
(-0.0430184 0.174439 0)
(-0.055004 0.19341 0)
(-0.0381836 0.163098 0)
(-0.180808 0.38575 0)
(-0.184627 0.391227 0)
(-0.169211 0.368523 0)
(0.00644013 0.0282201 0)
(0.0136496 0.0147554 0)
(0.00703131 0.0318789 0)
(0.0452733 -0.0235551 0)
(0.0463967 -0.0199293 0)
(0.0400515 -0.00946095 0)
(-0.201275 0.421339 0)
(-0.199289 0.418135 0)
(-0.203312 0.425011 0)
(-0.214274 0.445143 0)
(-0.216254 0.448214 0)
(-0.214125 0.444517 0)
(-0.223754 0.44435 0)
(-0.216508 0.436041 0)
(-0.231421 0.456253 0)
(-0.292611 0.53337 0)
(-0.277188 0.515071 0)
(-0.29463 0.537456 0)
(-0.235986 0.449258 0)
(-0.237414 0.453495 0)
(-0.248209 0.466779 0)
(-0.194573 0.368528 0)
(-0.187478 0.361285 0)
(-0.199544 0.378173 0)
(-0.165811 0.334666 0)
(-0.167949 0.334813 0)
(-0.158509 0.322318 0)
(-0.101613 0.230141 0)
(-0.0956967 0.22112 0)
(-0.104498 0.236142 0)
(-0.0461398 0.12787 0)
(-0.0556945 0.146149 0)
(-0.0467854 0.127091 0)
(-0.0145205 0.053805 0)
(-0.0194637 0.0658998 0)
(-0.016759 0.0575016 0)
(-0.00350101 0.0355745 0)
(-0.00774398 0.0445497 0)
(-0.00499021 0.0353862 0)
(0.00805114 0.00740903 0)
(0.00365972 0.0166467 0)
(0.00469873 0.00859435 0)
(0.00243432 0.0915648 0)
(0.0192584 0.0630792 0)
(0.00236661 0.0975655 0)
(-0.150196 0.341774 0)
(-0.131215 0.313273 0)
(-0.14321 0.332096 0)
(-0.0157336 0.128901 0)
(-0.0359522 0.166411 0)
(-0.033341 0.159479 0)
(-0.15831 0.352485 0)
(-0.137499 0.321301 0)
(-0.155213 0.34855 0)
(-0.195507 0.408152 0)
(-0.211878 0.431769 0)
(-0.207339 0.426067 0)
(0.0564517 -0.0664021 0)
(0.0512782 -0.0623061 0)
(0.05762 -0.0724592 0)
(0.0779439 -0.0831044 0)
(0.0805655 -0.0783541 0)
(0.074161 -0.0686321 0)
(-0.207976 0.43094 0)
(-0.215716 0.442171 0)
(-0.213457 0.439882 0)
(-0.221556 0.44594 0)
(-0.227816 0.454008 0)
(-0.244273 0.48055 0)
(-0.258513 0.499704 0)
(-0.259091 0.499235 0)
(-0.333925 0.586547 0)
(-0.319999 0.570968 0)
(-0.332918 0.586606 0)
(-0.233279 0.4394 0)
(-0.233752 0.44334 0)
(-0.243806 0.455123 0)
(-0.197552 0.380507 0)
(-0.210314 0.400025 0)
(-0.206737 0.391 0)
(-0.1514 0.29007 0)
(-0.151962 0.285177 0)
(-0.139061 0.268048 0)
(-0.0957717 0.213712 0)
(-0.0925066 0.209258 0)
(-0.0982359 0.21914 0)
(-0.061621 0.151498 0)
(-0.0621774 0.151663 0)
(-0.0592372 0.146199 0)
(-0.0395442 0.107392 0)
(-0.0357782 0.100396 0)
(-0.04193 0.113915 0)
(-0.0477311 0.127021 0)
(-0.0407923 0.113115 0)
(-0.0175784 0.0657285 0)
(-0.0221639 0.0774489 0)
(-0.0229872 0.0765604 0)
(-0.00503334 0.0207113 0)
(-0.00474491 0.0244121 0)
(-0.00542149 0.0244145 0)
(-0.0175222 0.0632362 0)
(0.0166555 0.07319 0)
(-0.000419559 0.107118 0)
(0.0462651 0.0181879 0)
(0.0338889 0.0428577 0)
(0.0450458 0.014733 0)
(-0.148202 0.341424 0)
(-0.145094 0.336173 0)
(-0.131802 0.316809 0)
(-0.100403 0.272797 0)
(-0.0886143 0.255107 0)
(-0.0985085 0.270482 0)
(-0.161826 0.359478 0)
(-0.219472 0.441889 0)
(-0.230646 0.456975 0)
(-0.23338 0.461164 0)
(0.0870839 -0.12333 0)
(0.0815199 -0.120141 0)
(0.0858852 -0.129328 0)
(0.0707818 -0.0798804 0)
(0.0723702 -0.0890377 0)
(0.0766681 -0.0901936 0)
(0.0862321 -0.113114 0)
(0.0926382 -0.120458 0)
(0.0896096 -0.109504 0)
(-0.258559 0.498275 0)
(-0.254425 0.493886 0)
(-0.245648 0.481803 0)
(-0.216891 0.447438 0)
(-0.222336 0.454785 0)
(-0.223647 0.457529 0)
(-0.258089 0.496375 0)
(-0.257366 0.494606 0)
(-0.26865 0.509698 0)
(-0.204242 0.42589 0)
(-0.210387 0.435774 0)
(-0.207529 0.430704 0)
(-0.286626 0.538107 0)
(-0.269668 0.517906 0)
(-0.288947 0.541025 0)
(-0.328794 0.578925 0)
(-0.335376 0.585342 0)
(-0.323162 0.570743 0)
(-0.294216 0.518818 0)
(-0.294438 0.51438 0)
(-0.282843 0.50189 0)
(-0.244516 0.427222 0)
(-0.249142 0.438922 0)
(-0.254069 0.442993 0)
(-0.198346 0.37093 0)
(-0.207041 0.380894 0)
(-0.194821 0.362237 0)
(-0.208321 0.389986 0)
(-0.203909 0.381162 0)
(-0.149808 0.292204 0)
(-0.16059 0.307372 0)
(-0.109494 0.222976 0)
(-0.100204 0.208124 0)
(-0.104095 0.217022 0)
(-0.0588249 0.144501 0)
(-0.0557996 0.139107 0)
(-0.0299333 0.0884699 0)
(-0.0291479 0.0842272 0)
(-0.0551211 0.139208 0)
(-0.0502567 0.128573 0)
(-0.0516507 0.132829 0)
(-0.0132299 0.0473383 0)
(-0.0101987 0.0388477 0)
(-0.0107561 0.0427109 0)
(0.00138646 0.0170383 0)
(-0.00401262 0.0203332 0)
(-0.00807313 0.0334561 0)
(-0.00665374 0.0266433 0)
(-0.00618557 0.0264544 0)
(0.0154945 -0.0318591 0)
(0.011626 -0.031114 0)
(0.019777 -0.0400852 0)
(0.0285978 0.0585265 0)
(0.0120654 0.0862584 0)
(0.0105443 0.0935659 0)
(0.0234259 0.0713257 0)
(0.0862565 -0.0637082 0)
(0.0806321 -0.0588849 0)
(0.0893559 -0.0804448 0)
(-0.160564 0.359482 0)
(-0.156845 0.354492 0)
(-0.165113 0.366558 0)
(-0.154852 0.349984 0)
(-0.128154 0.313754 0)
(-0.11592 0.29531 0)
(-0.118879 0.300332 0)
(-0.0814261 0.244562 0)
(-0.0763546 0.236286 0)
(-0.183181 0.390588 0)
(-0.196341 0.409423 0)
(-0.186006 0.394243 0)
(-0.225931 0.451062 0)
(-0.220658 0.44393 0)
(-0.228673 0.455411 0)
(-0.236752 0.465075 0)
(-0.24531 0.476949 0)
(-0.257193 0.493077 0)
(-0.263022 0.500967 0)
(-0.254615 0.489696 0)
(0.0258459 -0.0384707 0)
(0.0236376 -0.0301967 0)
(0.0206699 -0.0313728 0)
(0.062695 -0.0899736 0)
(0.0625866 -0.0977301 0)
(0.069592 -0.105116 0)
(0.0702865 -0.0976431 0)
(0.0747332 -0.0990842 0)
(0.0703134 -0.0914786 0)
(0.0808093 -0.101515 0)
(0.0771223 -0.0975756 0)
(0.0799563 -0.106469 0)
(-0.237686 0.470413 0)
(-0.225276 0.453004 0)
(-0.236427 0.467628 0)
(-0.246346 0.485978 0)
(-0.249135 0.488659 0)
(-0.258373 0.50054 0)
(-0.227785 0.462634 0)
(-0.278928 0.522988 0)
(-0.272502 0.515175 0)
(-0.248274 0.492352 0)
(-0.232915 0.472713 0)
(-0.247489 0.491434 0)
(-0.282748 0.533634 0)
(-0.305616 0.560761 0)
(-0.322266 0.58031 0)
(-0.301634 0.556053 0)
(-0.317021 0.561316 0)
(-0.307176 0.551306 0)
(-0.275904 0.504595 0)
(-0.288567 0.521853 0)
(-0.290888 0.5221 0)
(-0.325295 0.528668 0)
(-0.320581 0.518465 0)
(-0.326919 0.534189 0)
(-0.265669 0.4655 0)
(-0.264352 0.457241 0)
(-0.257097 0.451986 0)
(-0.177644 0.326836 0)
(-0.18513 0.333879 0)
(-0.176192 0.319084 0)
(-0.114771 0.226933 0)
(-0.102102 0.207879 0)
(-0.135706 0.251024 0)
(-0.132251 0.249525 0)
(-0.14394 0.267863 0)
(-0.0655684 0.150949 0)
(-0.0641112 0.149219 0)
(-0.0682536 0.1568 0)
(-0.0784689 0.173679 0)
(-0.0827602 0.18016 0)
(-0.0775611 0.170635 0)
(-0.0484419 0.121438 0)
(-0.0492615 0.123984 0)
(-0.0513871 0.127895 0)
(-0.0299982 0.0912145 0)
(-0.0246628 0.0775073 0)
(-0.033784 0.0933138 0)
(-0.0408663 0.108812 0)
(-0.0353387 0.0950545 0)
(-0.0286113 0.0790882 0)
(-0.0265458 0.0758445 0)
(-0.0130283 0.0439917 0)
(-0.0165652 0.0548955 0)
(-0.0163973 0.0525357 0)
(-0.011803 0.0191336 0)
(-0.00775141 0.0153507 0)
(-0.00983148 0.0186141 0)
(-0.00621379 0.0292563 0)
(-0.00800475 0.0371257 0)
(-0.00324866 0.0153332 0)
(-0.00537818 0.0171093 0)
(-0.00566636 0.0151883 0)
(-0.00839133 0.0317608 0)
(-0.0108496 0.0391471 0)
(-0.00956765 0.0338025 0)
(-0.00856117 0.00378504 0)
(-0.00608558 0.00466361 0)
(-0.0150789 0.0150053 0)
(-0.0494687 0.19604 0)
(-0.0392793 0.180024 0)
(-0.047531 0.193396 0)
(-0.0120463 0.135025 0)
(0.00250361 0.110148 0)
(-0.00576253 0.125482 0)
(0.0665128 -0.0204479 0)
(0.0766723 -0.0426945 0)
(0.0724123 -0.0265739 0)
(-0.171617 0.376207 0)
(-0.179682 0.387493 0)
(-0.171362 0.375267 0)
(-0.123569 0.305344 0)
(-0.132305 0.318983 0)
(-0.138868 0.328146 0)
(-0.0897823 0.255349 0)
(-0.0750276 0.231662 0)
(-0.0785077 0.23866 0)
(-0.0775471 0.239095 0)
(-0.0715022 0.229196 0)
(-0.216061 0.437758 0)
(-0.21397 0.435319 0)
(-0.222775 0.447436 0)
(-0.19761 0.411712 0)
(-0.202896 0.419663 0)
(-0.206752 0.424648 0)
(-0.210545 0.429562 0)
(-0.223791 0.447586 0)
(-0.231334 0.458371 0)
(-0.252661 0.487336 0)
(-0.257746 0.49423 0)
(-0.248819 0.481748 0)
(-0.258182 0.495115 0)
(-0.264222 0.503478 0)
(-0.265238 0.504132 0)
(-0.270807 0.512012 0)
(-0.273326 0.5152 0)
(-0.278904 0.522668 0)
(-0.281073 0.526068 0)
(-0.0177946 -0.00537191 0)
(-0.00707719 -0.0196425 0)
(-0.014172 -0.00604529 0)
(0.025754 -0.0836389 0)
(0.0232258 -0.0845019 0)
(0.0315642 -0.0935814 0)
(0.0705984 -0.127202 0)
(0.0629133 -0.118608 0)
(0.0633457 -0.123461 0)
(0.107656 -0.143172 0)
(0.112077 -0.148976 0)
(0.109752 -0.139019 0)
(-0.296865 0.547172 0)
(-0.303386 0.555994 0)
(-0.302291 0.554536 0)
(-0.244819 0.488933 0)
(-0.24911 0.494098 0)
(-0.244541 0.488929 0)
(-0.286762 0.53375 0)
(-0.282897 0.527944 0)
(-0.276403 0.526066 0)
(-0.296838 0.5504 0)
(-0.29387 0.546888 0)
(-0.277617 0.527868 0)
(-0.29733 0.551029 0)
(-0.277151 0.527076 0)
(-0.355712 0.619998 0)
(-0.364697 0.630483 0)
(-0.361994 0.627566 0)
(-0.25787 0.503583 0)
(-0.256315 0.502343 0)
(-0.269266 0.517581 0)
(-0.371468 0.636355 0)
(-0.37457 0.637274 0)
(-0.370809 0.633195 0)
(-0.371772 0.63406 0)
(-0.374158 0.634667 0)
(-0.370598 0.630457 0)
(-0.313706 0.524171 0)
(-0.315204 0.52043 0)
(-0.305135 0.504179 0)
(-0.238132 0.402144 0)
(-0.230138 0.381347 0)
(-0.224379 0.378505 0)
(-0.139611 0.253175 0)
(-0.154905 0.2781 0)
(-0.144387 0.256321 0)
(-0.132019 0.228349 0)
(-0.118321 0.206432 0)
(-0.126862 0.223615 0)
(-0.118719 0.22768 0)
(-0.107033 0.209663 0)
(-0.0546312 0.12567 0)
(-0.0562898 0.130251 0)
(-0.0580425 0.132725 0)
(-0.0543599 0.127517 0)
(-0.0524923 0.122602 0)
(-0.0505264 0.11966 0)
(-0.0200233 0.0626266 0)
(-0.023402 0.069711 0)
(-0.0184641 0.0566486 0)
(-0.02094 0.0616081 0)
(-0.022826 0.064933 0)
(-0.0180849 0.0526863 0)
(-0.0311913 0.0838689 0)
(-0.0162645 0.0491602 0)
(-0.00769237 0.0132847 0)
(-0.00277794 0.00700873 0)
(-0.00413883 0.0113174 0)
(-0.00798034 0.0170729 0)
(-0.0113105 0.0208139 0)
(-0.00785897 0.0181563 0)
(-0.00448913 0.0153084 0)
(-0.00514579 0.0149601 0)
(-0.00510632 0.018089 0)
(-0.00657098 0.0165651 0)
(-0.00609778 0.0145145 0)
(-0.00414455 0.015224 0)
(-0.00479081 0.0179152 0)
(-0.00487996 0.0190217 0)
(-0.059198 0.0804192 0)
(-0.0714279 0.101283 0)
(-0.0682733 0.0922075 0)
(-0.0309504 0.167174 0)
(-0.0262118 0.158716 0)
(-0.0283386 0.163341 0)
(-0.0376378 0.17808 0)
(-0.00148127 0.119162 0)
(0.00872565 0.10198 0)
(0.00216511 0.113847 0)
(-0.00893203 0.132169 0)
(0.0833679 -0.0429471 0)
(0.0816554 -0.0337967 0)
(0.0747168 -0.0213576 0)
(0.0517033 0.0273339 0)
(0.0481719 0.0333191 0)
(0.0593237 0.0115418 0)
(-0.111873 0.286873 0)
(-0.106699 0.279982 0)
(-0.127657 0.312552 0)
(-0.0672328 0.22304 0)
(-0.192914 0.405332 0)
(-0.181849 0.389468 0)
(-0.188217 0.39895 0)
(-0.224204 0.447846 0)
(-0.214302 0.434115 0)
(-0.272264 0.514504 0)
(-0.277246 0.521087 0)
(-0.238439 0.467414 0)
(-0.236899 0.465536 0)
(-0.245083 0.47676 0)
(-0.271077 0.511889 0)
(-0.0917081 0.131517 0)
(-0.103484 0.14891 0)
(-0.0867217 0.119011 0)
(0.0286809 -0.0829792 0)
(0.0267686 -0.0749901 0)
(0.0177725 -0.0669693 0)
(0.0384915 -0.112537 0)
(0.0464339 -0.123358 0)
(0.0471566 -0.120575 0)
(0.0877961 -0.141583 0)
(0.08903 -0.148172 0)
(0.0943058 -0.149943 0)
(0.106439 -0.0902737 0)
(0.105355 -0.0918677 0)
(0.110855 -0.105218 0)
(0.114675 -0.145301 0)
(0.116708 -0.154729 0)
(-0.285815 0.53226 0)
(-0.290041 0.538095 0)
(-0.280498 0.525729 0)
(-0.276994 0.52203 0)
(-0.2816 0.527461 0)
(-0.288159 0.536076 0)
(-0.262367 0.507231 0)
(-0.271403 0.518384 0)
(-0.269686 0.516615 0)
(-0.28787 0.538444 0)
(-0.2829 0.531253 0)
(-0.289382 0.538974 0)
(-0.258326 0.503732 0)
(-0.256969 0.502461 0)
(-0.25281 0.497726 0)
(-0.250667 0.495544 0)
(-0.249611 0.494433 0)
(-0.245775 0.489793 0)
(-0.276442 0.52654 0)
(-0.265215 0.513418 0)
(-0.259308 0.506052 0)
(-0.36924 0.6374 0)
(-0.367307 0.634276 0)
(-0.356301 0.618846 0)
(-0.357554 0.617467 0)
(-0.344284 0.603832 0)
(-0.371984 0.638618 0)
(-0.369057 0.632359 0)
(-0.369898 0.635016 0)
(-0.368012 0.617251 0)
(-0.365038 0.611285 0)
(-0.365966 0.61416 0)
(-0.350922 0.606517 0)
(-0.342362 0.597178 0)
(-0.347833 0.604377 0)
(-0.323697 0.560069 0)
(-0.333957 0.572759 0)
(-0.329141 0.563433 0)
(-0.301386 0.486254 0)
(-0.29565 0.475456 0)
(-0.308715 0.503571 0)
(-0.314294 0.532226 0)
(-0.307674 0.519149 0)
(-0.238233 0.358499 0)
(-0.228943 0.33563 0)
(-0.220612 0.316156 0)
(-0.177431 0.271693 0)
(-0.183648 0.290498 0)
(-0.19433 0.305802 0)
(-0.157915 0.276296 0)
(-0.173213 0.300336 0)
(-0.162611 0.279018 0)
(-0.0737304 0.149727 0)
(-0.0851607 0.173499 0)
(-0.0837291 0.166723 0)
(-0.0906824 0.171776 0)
(-0.101363 0.192597 0)
(-0.105632 0.195898 0)
(-0.0770417 0.162125 0)
(-0.0796723 0.170332 0)
(-0.084635 0.176359 0)
(-0.0354256 0.0871377 0)
(-0.0358383 0.0871503 0)
(-0.0328056 0.0806016 0)
(-0.067821 0.144777 0)
(-0.0641949 0.135731 0)
(-0.0594828 0.128419 0)
(-0.0389369 0.0963823 0)
(-0.0363196 0.0911085 0)
(-0.0385296 0.0964542 0)
(-0.0342993 0.0886909 0)
(-0.0312822 0.0809453 0)
(-0.0297654 0.0778214 0)
(-0.0238127 0.0664044 0)
(-0.0265261 0.0727449 0)
(-0.0225746 0.0623525 0)
(-0.0199318 0.0539351 0)
(-0.0229544 0.061284 0)
(-0.020153 0.0540682 0)
(-0.0118548 0.0348262 0)
(-0.0140409 0.0417924 0)
(-0.0153043 0.0443771 0)
(-0.0103889 0.0347465 0)
(-0.00755232 0.0251395 0)
(-0.007639 0.0265875 0)
(-0.0238985 0.0366442 0)
(-0.0253564 0.0381417 0)
(-0.0207118 0.0320831 0)
(-0.0146523 0.0244417 0)
(-0.0163516 0.0265284 0)
(-0.0197475 0.0303971 0)
(-0.0039353 0.014944 0)
(-0.00313216 0.0113233 0)
(-0.00712556 0.0147161 0)
(-0.0058975 0.0179057 0)
(-0.00529498 0.0207405 0)
(-0.00434224 0.0165379 0)
(-0.00532599 0.0184663 0)
(-0.0608834 0.0912335 0)
(-0.0718028 0.107869 0)
(-0.0593544 0.0869147 0)
(-0.0199504 0.146931 0)
(-0.0120285 0.136672 0)
(0.0231947 0.0784738 0)
(0.0251692 0.0741453 0)
(0.0306008 0.0649957 0)
(0.0729878 -0.0125546 0)
(0.0754309 -0.0168775 0)
(0.0692793 -0.00471833 0)
(0.0954802 -0.0592386 0)
(0.100897 -0.0725611 0)
(0.0988836 -0.0667605 0)
(0.0391895 0.0442884 0)
(0.0475664 0.0290289 0)
(0.0362744 0.0527887 0)
(-0.167948 0.369636 0)
(-0.179609 0.386801 0)
(-0.0575101 0.208765 0)
(-0.240074 0.470732 0)
(-0.242617 0.473894 0)
(-0.233163 0.460616 0)
(-0.0677588 0.0804882 0)
(-0.0657245 0.0737929 0)
(-0.0523857 0.0543726 0)
(-0.0449264 0.0227815 0)
(-0.0594707 0.0435644 0)
(-0.0408531 0.0113972 0)
(0.0350313 -0.0948049 0)
(0.05616 -0.141142 0)
(0.0506607 -0.137403 0)
(0.0584204 -0.146579 0)
(0.0939934 -0.143176 0)
(0.0892209 -0.13689 0)
(0.117116 -0.112259 0)
(0.116017 -0.110497 0)
(0.119394 -0.1214 0)
(0.126948 -0.146449 0)
(0.124631 -0.138573 0)
(0.126095 -0.146781 0)
(-0.309892 0.564958 0)
(-0.300557 0.552009 0)
(-0.288089 0.536983 0)
(-0.292937 0.543075 0)
(-0.296014 0.547137 0)
(-0.269366 0.515035 0)
(-0.277557 0.524917 0)
(-0.276493 0.523977 0)
(-0.294563 0.54843 0)
(-0.287512 0.538576 0)
(-0.295857 0.549778 0)
(-0.256152 0.501372 0)
(-0.295455 0.544706 0)
(-0.302078 0.553965 0)
(-0.294604 0.543664 0)
(-0.273639 0.52321 0)
(-0.258379 0.504864 0)
(-0.357686 0.622047 0)
(-0.372857 0.631597 0)
(-0.370478 0.628892 0)
(-0.367454 0.625611 0)
(-0.31698 0.572077 0)
(-0.314909 0.570083 0)
(-0.330446 0.588359 0)
(-0.372602 0.627738 0)
(-0.371815 0.625494 0)
(-0.373302 0.628337 0)
(-0.381331 0.645458 0)
(-0.380706 0.644818 0)
(-0.381198 0.645048 0)
(-0.381545 0.644696 0)
(-0.380826 0.644715 0)
(-0.381469 0.644394 0)
(-0.356836 0.593195 0)
(-0.360116 0.600464 0)
(-0.357421 0.594431 0)
(-0.350964 0.586266 0)
(-0.351904 0.585926 0)
(-0.348816 0.578907 0)
(-0.289565 0.460595 0)
(-0.292434 0.472593 0)
(-0.28297 0.449914 0)
(-0.281186 0.449271 0)
(-0.204238 0.30288 0)
(-0.218523 0.333453 0)
(-0.210503 0.312991 0)
(-0.200853 0.332655 0)
(-0.187497 0.304909 0)
(-0.188793 0.31519 0)
(-0.131206 0.140782 0)
(-0.11845 0.120634 0)
(-0.135968 0.155158 0)
(-0.119068 0.198696 0)
(-0.130994 0.22116 0)
(-0.127596 0.21113 0)
(-0.128209 0.208112 0)
(-0.117368 0.19138 0)
(-0.0896729 0.174069 0)
(-0.0770171 0.148379 0)
(-0.073179 0.144896 0)
(-0.094855 0.165772 0)
(-0.105623 0.185982 0)
(-0.105504 0.181738 0)
(-0.107299 0.194914 0)
(-0.0949607 0.173677 0)
(-0.0900034 0.167556 0)
(-0.0451188 0.10242 0)
(-0.042314 0.0975155 0)
(-0.0457175 0.105053 0)
(-0.048676 0.112885 0)
(-0.0464016 0.108985 0)
(-0.0504452 0.117377 0)
(-0.0569273 0.121004 0)
(-0.0640099 0.132925 0)
(-0.0539994 0.112794 0)
(-0.0320879 0.0808641 0)
(-0.0336382 0.0838332 0)
(-0.0307388 0.0771845 0)
(-0.0300157 0.0764798 0)
(-0.026823 0.0689883 0)
(-0.0293275 0.0753817 0)
(-0.0245072 0.0658714 0)
(-0.0188094 0.0531783 0)
(-0.0130962 0.0375307 0)
(-0.021442 0.0585732 0)
(-0.0259364 0.0703322 0)
(-0.0138947 0.0441758 0)
(-0.00582551 0.0184266 0)
(-0.00585999 0.0190905 0)
(-0.00840579 0.0268286 0)
(-0.0139595 0.0232796 0)
(-0.0111741 0.0189255 0)
(-0.0151566 0.0244178 0)
(-0.0558108 0.0847613 0)
(-0.0667164 0.102579 0)
(-0.00307864 0.0116188 0)
(-0.00321713 0.00881207 0)
(-0.00456914 0.0117339 0)
(-0.00404675 0.0116655 0)
(-0.00400205 0.00787816 0)
(-0.00593597 0.011023 0)
(-0.00577542 0.0115859 0)
(-0.00290254 0.0108893 0)
(-0.00461748 0.0170944 0)
(-0.00567259 0.0203168 0)
(-0.00371253 0.0133141 0)
(-0.115596 0.173976 0)
(-0.103458 0.153512 0)
(-0.110489 0.169974 0)
(-0.050345 0.0685122 0)
(-0.0627455 0.0897402 0)
(0.0183719 0.0866852 0)
(0.00963935 0.101696 0)
(0.0160441 0.0899123 0)
(0.0862879 -0.0390283 0)
(0.0869385 -0.0414567 0)
(0.0911897 -0.05017 0)
(0.0773158 -0.0221614 0)
(0.0695859 -0.00688569 0)
(0.0973584 -0.0651985 0)
(0.0520066 0.0248684 0)
(0.0577281 0.0163588 0)
(0.0627969 0.00709508 0)
(0.0563112 0.0199024 0)
(-0.0813142 0.115853 0)
(-0.0800738 0.110563 0)
(-0.0543838 0.0518614 0)
(-0.044694 0.0384032 0)
(-0.0502842 0.0236001 0)
(-0.0413478 0.00475497 0)
(-0.0360455 -0.000215997 0)
(0.017311 -0.098069 0)
(0.00725546 -0.0827389 0)
(0.00615725 -0.0842044 0)
(0.0908782 -0.173754 0)
(0.0994016 -0.179885 0)
(0.094799 -0.17452 0)
(0.130857 -0.164823 0)
(0.131931 -0.16839 0)
(0.132065 -0.164635 0)
(0.103883 -0.0787936 0)
(0.109239 -0.0931484 0)
(0.106799 -0.0853449 0)
(0.11034 -0.0942642 0)
(0.107639 -0.0867488 0)
(0.130488 -0.179082 0)
(0.129656 -0.174723 0)
(0.128734 -0.179267 0)
(-0.308831 0.563484 0)
(-0.300282 0.552696 0)
(-0.305668 0.559584 0)
(-0.287536 0.539213 0)
(-0.274778 0.523528 0)
(-0.282912 0.532401 0)
(-0.284885 0.533939 0)
(-0.260553 0.506553 0)
(-0.26625 0.512516 0)
(-0.264109 0.51009 0)
(-0.231985 0.473026 0)
(-0.227945 0.467606 0)
(-0.232408 0.473276 0)
(-0.294585 0.543775 0)
(-0.23186 0.471937 0)
(-0.246341 0.490425 0)
(-0.246768 0.490787 0)
(-0.379165 0.6451 0)
(-0.379176 0.645732 0)
(-0.379817 0.645083 0)
(-0.369745 0.624779 0)
(-0.370963 0.626838 0)
(-0.369489 0.625555 0)
(-0.373978 0.630515 0)
(-0.37317 0.630311 0)
(-0.372378 0.62844 0)
(-0.381603 0.64527 0)
(-0.381703 0.645188 0)
(-0.381694 0.644743 0)
(-0.381032 0.643442 0)
(-0.380224 0.643441 0)
(-0.380756 0.642963 0)
(-0.364095 0.611135 0)
(-0.363823 0.612158 0)
(-0.362554 0.609663 0)
(-0.355751 0.595734 0)
(-0.351701 0.591102 0)
(-0.357999 0.603383 0)
(-0.337785 0.551903 0)
(-0.338104 0.553108 0)
(-0.336317 0.547543 0)
(-0.325768 0.528051 0)
(-0.332233 0.540922 0)
(-0.324716 0.525179 0)
(-0.285035 0.446572 0)
(-0.284098 0.43905 0)
(-0.280379 0.43348 0)
(-0.268689 0.423479 0)
(-0.263253 0.404288 0)
(-0.279329 0.441407 0)
(-0.223786 0.32411 0)
(-0.229264 0.34666 0)
(-0.232489 0.348024 0)
(-0.175928 0.210232 0)
(-0.175777 0.208654 0)
(-0.163647 0.181262 0)
(-0.162998 0.229773 0)
(-0.158848 0.216411 0)
(-0.146197 0.193499 0)
(-0.186333 0.253715 0)
(-0.192691 0.270786 0)
(-0.200082 0.282958 0)
(-0.0977026 0.165492 0)
(-0.0973198 0.161706 0)
(-0.0869025 0.145964 0)
(-0.0923918 0.189803 0)
(-0.099688 0.19975 0)
(-0.0794866 0.140011 0)
(-0.0840452 0.151632 0)
(-0.0932802 0.165428 0)
(-0.0631378 0.118196 0)
(-0.0798477 0.147461 0)
(-0.0676891 0.123894 0)
(-0.0482207 0.103255 0)
(-0.0435379 0.0917913 0)
(-0.0417291 0.0974499 0)
(-0.0388285 0.0903955 0)
(-0.0279836 0.0677338 0)
(-0.0303013 0.0737008 0)
(-0.0311489 0.0748882 0)
(-0.0527907 0.106597 0)
(-0.0603333 0.12026 0)
(-0.0496821 0.0985413 0)
(-0.0421896 0.0857388 0)
(-0.0493241 0.101534 0)
(-0.0295739 0.0749122 0)
(-0.027822 0.0703433 0)
(-0.0270884 0.0680024 0)
(-0.0255506 0.0646916 0)
(-0.0237815 0.0624064 0)
(-0.0203823 0.0541865 0)
(-0.0253579 0.0668661 0)
(-0.0101442 0.0306482 0)
(-0.0135994 0.0370047 0)