/*--------------------------------*- C++ -*----------------------------------*\
| =========                 |                                                 |
| \\      /  F ield         | OpenFOAM: The Open Source CFD Toolbox           |
|  \\    /   O peration     | Version:  v2012                                 |
|   \\  /    A nd           | Website:  www.openfoam.com                      |
|    \\/     M anipulation  |                                                 |
\*---------------------------------------------------------------------------*/
FoamFile
{
    version     2.0;
    format      ascii;
    class       volScalarField;
    location    "250";
    object      nut;
}
// * * * * * * * * * * * * * * * * * * * * * * * * * * * * * * * * * * * * * //

dimensions      [0 2 -1 0 0 0 0];


internalField   nonuniform List<scalar> 
12639
(
0.000224716
0.00023182
0.000210539
0.000228018
0.000229088
0.000190344
0.000212581
0.000232356
0.000228375
0.000183158
0.000206327
0.000229057
0.000229566
0.000226899
0.000191043
0.000187246
0.000216022
0.000186773
0.000232375
0.000228015
0.000227622
0.000202241
0.000197239
0.000207298
0.000186956
0.000230495
0.000229796
0.000228812
0.000227981
0.000226146
0.000201131
0.000189775
0.000215905
0.000191694
0.000233576
0.000230152
0.000228597
0.000228647
0.000227791
0.000231142
0.000217905
0.000188245
0.000210314
0.000198582
0.000231601
0.000232719
0.000229283
0.00022932
0.000229397
0.00022874
0.000228725
0.000232508
0.000215479
0.000191163
0.000196362
0.000227042
0.000193392
0.000231746
0.000234276
0.000230066
0.000230202
0.000229921
0.000229139
0.000228519
0.000236818
0.000231114
0.000232118
0.000222951
0.000195149
0.000209155
0.000223423
0.000194494
0.000230202
0.000232342
0.000230888
0.000230695
0.000230187
0.000229446
0.000229267
0.000234652
0.000225421
0.000225409
0.000239336
0.000211202
0.000198811
0.000215071
0.000180836
0.000231208
0.000233622
0.00023137
0.000231015
0.00023001
0.000230872
0.000229817
0.000226293
0.000226588
0.000226773
0.000237461
0.000238856
0.000233157
0.00021298
0.000188782
0.000231786
0.000231692
0.000234235
0.000231561
0.000230541
0.000231451
0.000230592
0.000227816
0.000228851
0.000229234
0.000228505
0.000235684
0.000222453
0.000235638
0.000194712
0.000184633
0.000232274
0.000232329
0.00023269
0.000232054
0.000231203
0.000232091
0.000231365
0.000229624
0.00022899
0.00022837
0.000229495
0.000229404
0.000230358
0.000233539
0.000229365
0.000197407
0.000186928
0.000232761
0.00023289
0.000234169
0.000232553
0.000231685
0.000232462
0.00023251
0.00023202
0.000230192
0.000229207
0.000229005
0.00022974
0.000230306
0.000231132
0.000221899
0.000231925
0.000216304
0.00023823
0.000180473
0.000233022
0.000233213
0.00023356
0.000232612
0.000233357
0.000232481
0.00023318
0.000233172
0.000232674
0.000230534
0.000229349
0.000229422
0.000230304
0.000230936
0.000231349
0.000231559
0.000228134
0.000232192
0.000210405
0.000238004
0.000182931
0.000233738
0.000233861
0.000234234
0.000233381
0.000233978
0.000233291
0.000233751
0.000233771
0.000231307
0.00023347
0.000230786
0.000231116
0.000229998
0.000230119
0.000230483
0.000231942
0.00023219
0.000222023
0.000233457
0.000253995
0.000178088
0.000231335
0.000193865
0.000233878
0.000234218
0.000234321
0.000234815
0.000234145
0.000234793
0.000234027
0.00023429
0.000234454
0.000232398
0.000233919
0.000231465
0.00023174
0.000230584
0.000231219
0.000232447
0.000232721
0.000241889
0.000234604
0.000232651
0.000239869
0.000181173
0.000233743
0.00018962
0.000234513
0.000234773
0.000234695
0.000234572
0.000235291
0.000235192
0.000233927
0.000235309
0.000234362
0.000235063
0.000235491
0.000231493
0.000231994
0.000232377
0.000231171
0.000230344
0.000231845
0.000233212
0.000232641
0.000233463
0.000236416
0.000232488
0.000233129
0.000249695
0.000220341
0.000162444
0.000235126
0.000236352
0.000234853
0.000235336
0.000235135
0.000235034
0.000235896
0.000235928
0.00023441
0.00023629
0.000234808
0.00023606
0.000235765
0.000232892
0.000232864
0.00023309
0.000231691
0.000231173
0.000232486
0.000233775
0.00023362
0.000233978
0.00023343
0.000233419
0.000233853
0.000248681
0.000211814
0.000166779
0.000237203
0.00020801
0.000235313
0.000235837
0.000235532
0.000235285
0.000235196
0.000236448
0.000236553
0.000234204
0.000236647
0.000237121
0.000237125
0.000236366
0.000232451
0.00023352
0.000233851
0.000232228
0.000231021
0.000233122
0.000234165
0.00023442
0.000234425
0.000234829
0.000233756
0.000234099
0.000245684
0.000189822
0.000159411
0.000256416
0.000235636
0.000236493
0.000235998
0.000235728
0.000235534
0.000237096
0.000237262
0.000235357
0.000237481
0.000238299
0.000238403
0.000234962
0.000237398
0.000229464
0.000234276
0.000234736
0.000232595
0.000231899
0.000233349
0.00023504
0.000234971
0.000234587
0.000234769
0.000237783
0.000234203
0.000234624
0.000246731
0.000184906
0.000162057
0.000220396
0.000236168
0.000236937
0.000236334
0.000236076
0.000235869
0.000237711
0.000238053
0.000235409
0.000235523
0.000237832
0.000240108
0.000239469
0.000233981
0.000237125
0.000231171
0.00023486
0.000234098
0.000235512
0.000233201
0.000231748
0.000235381
0.000235734
0.000235519
0.000235163
0.000235187
0.000236609
0.000234634
0.000234902
0.000252456
0.000193401
0.000162946
0.000246272
0.000236675
0.000237468
0.000236757
0.000236274
0.000236338
0.000236158
0.000236263
0.00023831
0.000238754
0.000241378
0.000235131
0.000238866
0.000241184
0.000239781
0.000234932
0.000237905
0.000229885
0.000235666
0.000234673
0.000236294
0.000233717
0.000232633
0.000236123
0.000236703
0.000235668
0.000236152
0.000235517
0.000235517
0.000235034
0.000239523
0.000234994
0.000235282
0.00023069
0.000170314
0.000159358
0.00021712
0.000237115
0.000237752
0.000237102
0.000236913
0.000236698
0.000236708
0.000236434
0.000236275
0.000238813
0.000238593
0.000239391
0.000234393
0.000264072
0.000239815
0.000242876
0.000240535
0.000240338
0.000233655
0.00023665
0.000231654
0.000235971
0.000235495
0.000234295
0.000237035
0.000232209
0.000236925
0.000237308
0.00023623
0.000236787
0.00023589
0.00023595
0.000235944
0.000238481
0.000235375
0.000235557
0.000181086
0.000162077
0.000238922
0.000237239
0.000238209
0.000237564
0.000237252
0.000236866
0.000236909
0.000236759
0.000236459
0.000239474
0.000239087
0.000240317
0.000239971
0.000238615
0.000240703
0.000241922
0.000243669
0.000242337
0.000237856
0.000234638
0.000231359
0.000237076
0.00023604
0.00023447
0.000237632
0.000229544
0.000237683
0.000238183
0.000236267
0.000236636
0.000237576
0.0002368
0.000236282
0.000235726
0.000239792
0.000235595
0.000235884
0.000172435
0.0001576
0.000208845
0.000237928
0.000238315
0.000237475
0.000237951
0.000237396
0.000237222
0.000237224
0.000236976
0.000236763
0.000239571
0.000240075
0.00023894
0.000241145
0.000240429
0.000264316
0.000235691
0.000185197
0.000241772
0.000242454
0.000244897
0.000242907
0.000238168
0.000233383
0.000237757
0.000237594
0.000234524
0.000236275
0.000238482
0.000230904
0.000238437
0.000238694
0.00023665
0.000237094
0.000238199
0.000237513
0.000236165
0.000236666
0.000235682
0.000236822
0.000240403
0.000235976
0.000160166
0.000217533
0.000238167
0.000237824
0.000238205
0.000237699
0.000237354
0.000237394
0.000236973
0.000237316
0.000236798
0.000240077
0.000240641
0.000239335
0.000242045
0.000241441
0.000257279
0.000238043
0.000172181
0.000242842
0.000241694
0.000245764
0.000244712
0.000237011
0.000240109
0.000234447
0.000238831
0.000237722
0.000232476
0.000234151
0.000239388
0.000229906
0.00023912
0.000239535
0.000237023
0.000237562
0.000237955
0.000239087
0.000237768
0.000236568
0.000236962
0.000236124
0.00023645
0.00024628
0.000236258
0.000154004
0.000172834
0.000326123
0.000238629
0.00023813
0.000238553
0.000238323
0.000237872
0.000237658
0.000237703
0.00023725
0.000237554
0.000236866
0.000240007
0.000241237
0.000239152
0.000242996
0.000241987
0.000256998
0.000246747
0.000236933
0.000179591
0.000244188
0.000243194
0.000247169
0.000245547
0.00023624
0.000238828
0.000240159
0.00023976
0.000238707
0.000234722
0.000232698
0.000240143
0.000231556
0.000239915
0.000237359
0.000237927
0.00023871
0.000239563
0.000238379
0.000236593
0.000237302
0.000236279
0.00023636
0.000235669
0.000227819
0.000155007
0.000174976
0.000281362
0.000238308
0.000238881
0.000238693
0.000238171
0.000237958
0.000237457
0.000237817
0.000237595
0.000240498
0.000241178
0.000241939
0.000239656
0.000243951
0.000243019
0.000227189
0.000249237
0.000237321
0.000150222
0.000245222
0.000242754
0.000245029
0.000248793
0.000247513
0.000237593
0.00024066
0.000240855
0.000238945
0.000234325
0.000241139
0.00023214
0.00024071
0.000237737
0.000238415
0.000238827
0.000240263
0.00023863
0.000236877
0.000237585
0.000236616
0.000236644
0.000236178
0.000236788
0.000293154
0.000154531
0.00023865
0.000239235
0.000238864
0.000238341
0.000238209
0.000237992
0.000237587
0.000237983
0.00023784
0.00024032
0.000241709
0.000242664
0.000239544
0.000245195
0.000243526
0.000200301
0.000248756
0.000236836
0.000151975
0.00024679
0.000248572
0.000246068
0.000250242
0.000248416
0.000247225
0.000240114
0.000241914
0.000235944
0.000234049
0.000241576
0.000241893
0.000233965
0.000240827
0.000237986
0.000238715
0.000239602
0.000240462
0.000239194
0.000237146
0.000237623
0.000236713
0.000236797
0.000236709
0.000235986
0.000237448
0.000259129
0.000155203
0.000238772
0.000239448
0.000239224
0.000238613
0.00023842
0.000238281
0.000237924
0.000238211
0.000237931
0.000240793
0.000242473
0.000241408
0.00024001
0.000246281
0.000244351
0.0001522
0.000193303
0.000267715
0.000232437
0.000238645
0.000247875
0.000246189
0.0002642
0.00024845
0.00025205
0.000250586
0.000240068
0.000242924
0.000235209
0.000235537
0.000242533
0.000243172
0.000235804
0.000241642
0.00023832
0.000238643
0.000239139
0.000239658
0.000241317
0.000239397
0.000237422
0.000237163
0.000238015
0.000237002
0.000237
0.000236982
0.00023639
0.000240827
0.000242424
0.000162984
0.000145142
0.000239032
0.000239824
0.00023937
0.000238693
0.000238468
0.000238379
0.000238229
0.000238362
0.000238169
0.000240681
0.000243007
0.000241796
0.000240363
0.000240049
0.000247749
0.000246066
0.000245278
0.00024445
0.000252229
0.00014915
0.000261083
0.000236153
0.000237998
0.000249744
0.000254347
0.000295452
0.000250465
0.000253899
0.000251632
0.000236688
0.000240641
0.000242677
0.000244207
0.000238209
0.000243535
0.000242602
0.000237477
0.000238313
0.000238984
0.000239357
0.00024036
0.000241839
0.000239886
0.000237646
0.000237435
0.00023797
0.000237148
0.000237265
0.00023543
0.000237669
0.000241341
0.000288406
0.000156978
0.000239259
0.000238915
0.000239996
0.000239727
0.000238752
0.00023861
0.000238451
0.000238566
0.000238291
0.00024128
0.000243715
0.000242376
0.000240649
0.000240436
0.000248913
0.000247721
0.000246164
0.000245254
0.000205228
0.000147116
0.000236996
0.000268412
0.000238205
0.000250942
0.000253928
0.000270155
0.000252766
0.000256086
0.000254198
0.00023608
0.000238334
0.000243354
0.000245781
0.000239666
0.000244669
0.0002435
0.000238598
0.000238908
0.000239713
0.000240287
0.000241139
0.000242836
0.000240012
0.000237602
0.000237541
0.000238201
0.000237383
0.000237347
0.000236551
0.000237598
0.000251265
0.000228482
0.000145967
0.00023945
0.000239077
0.000240364
0.000239747
0.000238967
0.000238723
0.000238712
0.000238604
0.000238474
0.000238308
0.000241406
0.000243755
0.00024254
0.000241069
0.000240629
0.000250448
0.000248478
0.000247052
0.000245108
0.000155524
0.000238323
0.000255967
0.000253369
0.000264004
0.000298959
0.000257505
0.000258616
0.000255615
0.000240269
0.000249265
0.000236731
0.000245325
0.000242932
0.000245845
0.000244596
0.000243486
0.000238527
0.000239147
0.00023983
0.000240818
0.000241762
0.000243169
0.000240406
0.000237855
0.000237543
0.000237777
0.000238056
0.00023744
0.000237541
0.000236449
0.000238026
0.000249701
0.000210544
0.00014715
0.000239345
0.000239073
0.00024052
0.000239979
0.000239166
0.000238914
0.000238872
0.000238806
0.000238632
0.000238508
0.000241994
0.000244466
0.000243201
0.00024127
0.000241027
0.000251743
0.000248198
0.000250164
0.000246659
0.000245815
0.000149681
0.00023781
0.000235114
0.00027351
0.000254892
0.000265558
0.000282148
0.000259781
0.00026079
0.000259076
0.000242701
0.000244316
0.000249667
0.000241161
0.000247722
0.000247258
0.000245642
0.000244472
0.000238758
0.000239378
0.000239675
0.000240208
0.000240687
0.000241324
0.000242608
0.000241698
0.000244251
0.00024051
0.000237906
0.000237735
0.00023787
0.000238272
0.000237649
0.000237701
0.000237665
0.000237884
0.00025371
0.000176825
0.000147338
0.000239522
0.000239362
0.00024045
0.000240922
0.000240235
0.000239771
0.000239378
0.00023909
0.000239004
0.000238945
0.000238818
0.000238775
0.000238738
0.000242098
0.000244591
0.000243452
0.000241714
0.000241212
0.000253805
0.000249249
0.000250737
0.00024736
0.000245383
0.000150013
0.000239711
0.000239346
0.000239002
0.000270693
0.000257614
0.000285379
0.000301522
0.00026802
0.00026509
0.000261699
0.000252035
0.000247978
0.000251518
0.000240102
0.00024932
0.00024687
0.00024882
0.000245453
0.000238722
0.000239265
0.00023984
0.000240139
0.000241055
0.000241689
0.000243147
0.000242416
0.000244842
0.000240858
0.000238136
0.000237808
0.000238059
0.000238512
0.000237778
0.000237853
0.000237573
0.000238098
0.000249219
0.000190656
0.000144949
0.000239468
0.00024073
0.000241004
0.000240281
0.000239889
0.000239508
0.000239238
0.00023917
0.000239005
0.000239061
0.000239006
0.000238928
0.000239061
0.000242628
0.000244217
0.000243163
0.000241823
0.000241592
0.000255306
0.000248564
0.000252145
0.000246695
0.000245823
0.000158045
0.000239875
0.000246084
0.00025049
0.000261364
0.000258065
0.000301436
0.000286637
0.000268874
0.000265796
0.000266321
0.000252658
0.000252404
0.000251712
0.000247916
0.000250217
0.000246404
0.000239037
0.000239552
0.000240353
0.000241449
0.000242246
0.000244017
0.000242984
0.000242539
0.00024607
0.000241028
0.000238236
0.000238035
0.000238629
0.000237959
0.000237959
0.00023829
0.000238337
0.000238046
0.000250687
0.000157321
0.000145837
0.00023972
0.000240568
0.000241299
0.000240146
0.000239901
0.000239728
0.000239552
0.000239426
0.000239279
0.00023918
0.00023921
0.000239116
0.000239082
0.00023931
0.000242544
0.000244656
0.00024365
0.000242217
0.000241795
0.000257723
0.000254912
0.00024936
0.000253834
0.000251934
0.000247095
0.000245459
0.000139977
0.000240275
0.00024259
0.000220998
0.000265009
0.000261878
0.000302095
0.000276308
0.000270075
0.000295567
0.000254057
0.000253902
0.000270255
0.000253221
0.000249199
0.000247534
0.000252046
0.00023908
0.000239571
0.000240148
0.000240691
0.000241737
0.000242595
0.000244463
0.00024364
0.000243223
0.000246829
0.000241358
0.00023845
0.000238191
0.000238884
0.000238583
0.00023812
0.000238146
0.00023838
0.000241055
0.00023827
0.000226763
0.000169187
0.000144273
0.000240698
0.000241181
0.000241694
0.000240274
0.000240123
0.000239906
0.000239762
0.000239477
0.000239414
0.000239365
0.000239322
0.000239258
0.000239725
0.000239419
0.000242938
0.000244353
0.000243418
0.000242227
0.000259671
0.000257523
0.000250671
0.000248139
0.000255224
0.000253441
0.000246063
0.000146183
0.000245091
0.000251953
0.00027168
0.000264134
0.000291221
0.000275845
0.000256761
0.000257569
0.000298703
0.000253038
0.000256062
0.000249959
0.000248509
0.00025345
0.000239343
0.000239845
0.000240396
0.000240702
0.000242191
0.000243152
0.000245268
0.000243672
0.000243551
0.00024634
0.000248213
0.000241068
0.000238541
0.000238383
0.000238957
0.000238795
0.000238236
0.000238247
0.000238492
0.000238806
0.000243798
0.000252405
0.000156495
0.000146218
0.000240513
0.000240968
0.000241475
0.00024201
0.000240234
0.000240071
0.000239889
0.000239766
0.00023965
0.000239513
0.000239447
0.000239505
0.000239385
0.000240263
0.000239707
0.000242578
0.000244914
0.000243796
0.000262367
0.000258603
0.000250985
0.000248501
0.000256993
0.000252836
0.00024616
0.000139518
0.000239834
0.000253488
0.000223922
0.000279574
0.00026757
0.000304305
0.000289351
0.00025898
0.000265219
0.000281236
0.00025574
0.000258117
0.000251492
0.000255488
0.000239413
0.000239733
0.000240467
0.000242314
0.000243363
0.000245216
0.000244439
0.000244204
0.000247417
0.000249019
0.000241203
0.000238492
0.000238723
0.000238461
0.000239155
0.000238867
0.000238388
0.000238399
0.000238648
0.000239661
0.000243831
0.000233928
0.000180107
0.000145419
0.000240616
0.000241055
0.000241355
0.000241762
0.00024236
0.000240467
0.000240194
0.000240147
0.00024002
0.000239913
0.000239668
0.000239632
0.000239666
0.000239587
0.000240276
0.000239729
0.000242745
0.000244362
0.000245626
0.000243576
0.000264625
0.000261218
0.000250148
0.000248076
0.00025786
0.000254136
0.000247127
0.000142485
0.000144245
0.000244141
0.000252547
0.000256792
0.000279513
0.000293305
0.000273154
0.000268188
0.000263991
0.000268551
0.000301429
0.000256989
0.000262239
0.000251569
0.000256767
0.000239315
0.000239905
0.000240792
0.000240173
0.000241964
0.000242849
0.000243945
0.000246064
0.000244498
0.000244671
0.000247163
0.000250256
0.000241524
0.000238645
0.000238614
0.000239243
0.000239072
0.00023848
0.000238537
0.000238949
0.00024228
0.000238836
0.000244795
0.000151716
0.000240854
0.000241047
0.000241528
0.000241945
0.000242348
0.000240511
0.000240361
0.000240313
0.000240032
0.00023997
0.000239794
0.000239764
0.000239722
0.000239803
0.000239732
0.000240704
0.000239978
0.000243178
0.000244341
0.000245989
0.000243865
0.000264738
0.000260708
0.000251256
0.000249001
0.000255658
0.000254746
0.000246811
0.000137995
0.000144611
0.000244187
0.000242461
0.000293298
0.000304266
0.000279714
0.000273256
0.00026755
0.000286217
0.000259612
0.000264812
0.000253092
0.000254929
0.000259409
0.000239525
0.000239851
0.000240698
0.000240234
0.000242163
0.000242707
0.000243733
0.000245975
0.000245261
0.00024529
0.000248265
0.000250749
0.000241267
0.000238777
0.000238653
0.000238709
0.000239428
0.000239075
0.000238615
0.000238772
0.000239095
0.000242943
0.000239849
0.000242965
0.00014676
0.000240843
0.000241298
0.000241797
0.000242009
0.000242712
0.000240691
0.000240447
0.000240314
0.000240181
0.000240121
0.00023991
0.000239832
0.000239953
0.000239907
0.000239927
0.000239953
0.000240427
0.000241524
0.000243061
0.000244808
0.000245428
0.000243488
0.000269032
0.00026306
0.000252719
0.000250054
0.000248224
0.000256648
0.000254241
0.000247361
0.00014165
0.000142563
0.000146838
0.000246491
0.00024931
0.00030437
0.000293588
0.00027555
0.000276126
0.000301622
0.000262746
0.000259993
0.000271827
0.000252647
0.000256031
0.000261583
0.000239731
0.000240095
0.000241004
0.000240503
0.000241898
0.000243102
0.000244252
0.000246927
0.000245796
0.000247736
0.000249863
0.000241564
0.000238952
0.000238784
0.000238828
0.000239535
0.000239248
0.000238721
0.000239
0.000238778
0.000239472
0.000245364
0.00024015
0.000230052
0.000263914
0.000241048
0.000241265
0.000241931
0.000242421
0.00024285
0.000240768
0.000240639
0.000240465
0.000240196
0.000240177
0.00024002
0.000239979
0.000239953
0.000240228
0.000239996
0.000240066
0.000240292
0.00024078
0.000242504
0.000244652
0.000245668
0.00024364
0.000269294
0.000266319
0.000262963
0.000252574
0.000250082
0.000248346
0.000258308
0.000255864
0.000246936
0.000130791
0.000142993
0.000146711
0.000244356
0.000249801
0.000235084
0.000304027
0.000283275
0.000278349
0.000289782
0.000266293
0.000263292
0.000278157
0.000253876
0.000258095
0.000261041
0.000264912
0.000239876
0.000240229
0.000241114
0.000240645
0.000242189
0.000243092
0.000243736
0.00024493
0.000247505
0.000246502
0.000248981
0.000251113
0.000241637
0.000239017
0.000238867
0.000238953
0.000239446
0.000239744
0.000239239
0.000239351
0.00023885
0.000239227
0.000238968
0.000239801
0.000244726
0.000240873
0.00024068
0.000372105
0.000241068
0.000241482
0.000241881
0.000242261
0.000242731
0.000243313
0.00024094
0.000240672
0.000240601
0.000240453
0.000240337
0.000240306
0.000240144
0.000240092
0.000240166
0.000240403
0.000240463
0.000240144
0.000240183
0.000241663
0.000244182
0.000245126
0.000246325
0.000275894
0.000268698
0.000260766
0.000266214
0.000254293
0.000251437
0.000249287
0.000247517
0.000257747
2.88934e-05
0.000144371
0.00014211
0.000168761
0.000246315
0.000249515
0.000240431
0.000295092
0.000283437
0.000292414
0.000303816
0.00027277
0.000292372
0.000253321
0.000257923
0.000264225
0.000268993
0.000240079
0.000240445
0.000241386
0.000240879
0.000241927
0.000242499
0.000242839
0.000243923
0.000245183
0.000248338
0.000246096
0.000250248
0.000249496
0.000239161
0.000239004
0.000239039
0.000239585
0.000239798
0.000239351
0.000239416
0.000238984
0.000239595
0.000239158
0.000240594
0.000242367
0.000247586
0.0002444
0.00095923
0.000241253
0.000241406
0.000241695
0.000242124
0.000242376
0.00024304
0.000243412
0.000240969
0.000240851
0.000240684
0.000240572
0.000240401
0.000240256
0.000240237
0.000240307
0.000240643
0.000241067
0.000240274
0.000240343
0.00024213
0.000244229
0.000245288
0.000246417
0.000278112
0.000272468
0.000262197
0.000268279
0.000254983
0.000251994
0.000249894
0.00024767
0.000259686
8.82091e-05
0.000144849
0.000142702
0.000158236
0.000246386
0.000249845
0.000239287
0.000305641
0.000295458
0.000303826
0.000279407
0.000303775
0.00025514
0.000260184
0.000268709
0.000263778
0.000275418
0.00024012
0.000240418
0.000241413
0.000240808
0.000241947
0.00024253
0.00024318
0.000244419
0.000243549
0.000245401
0.000247547
0.000246776
0.000251639
0.000250446
0.000239214
0.000239118
0.000239175
0.00023972
0.00023953
0.000239981
0.000239416
0.000239116
0.000239875
0.000239377
0.000241451
0.00024415
0.000246664
0.000245146
0.000216279
0.000241122
0.000241531
0.000241734
0.000242144
0.000242658
0.000242917
0.000243794
0.000240833
0.000240741
0.00024068
0.000240576
0.00024053
0.000240383
0.000240327
0.000240618
0.000241039
0.000241525
0.000240435
0.000240414
0.000243598
0.00024473
0.000245203
0.000245985
0.00024709
0.000285413
0.000272545
0.000265076
0.000268441
0.000257016
0.000253392
0.000250994
0.000249312
0.000248573
0.000260421
0.000286234
0.000140386
0.000140891
0.000148962
0.000248854
0.000245294
0.000248879
0.000242802
0.000304713
0.000293045
0.000254684
0.000259128
0.000274152
0.000266344
0.000282821
0.000240296
0.00024061
0.000241225
0.000241706
0.000240991
0.000242247
0.000242841
0.000244097
0.00024496
0.000243636
0.00024624
0.00024825
0.000246966
0.000253169
0.000251646
0.000249344
0.000239358
0.000239269
0.000239294
0.000239812
0.000239603
0.000240021
0.000239548
0.00023925
0.00024045
0.000239637
0.000239359
0.00024137
0.000243566
0.000248128
0.00024948
0.000241011
0.00029998
0.000241186
0.000241482
0.000241929
0.000242387
0.000242782
0.000243217
0.000243737
0.000240961
0.000240891
0.000240739
0.000240675
0.000240591
0.000240467
0.000240479
0.000240947
0.000241453
0.000242727
0.000240646
0.000240591
0.000243876
0.000244473
0.000245726
0.000246222
0.000247298
0.000285589
0.000296436
0.000278079
0.00026542
0.000272649
0.000256206
0.000259357
0.000253075
0.000250815
0.000249735
0.000247931
0.000263624
0.000189197
0.000141159
0.000141442
0.000148908
0.000248787
0.000247315
0.000248131
0.000237457
0.000304263
0.000257239
0.000262446
0.000276858
0.000279738
0.000270652
0.000295017
0.000240371
0.000240561
0.000241323
0.000241746
0.000240878
0.00024221
0.000242886
0.000244384
0.000245281
0.000243314
0.000246044
0.000247776
0.000254208
0.00025269
0.000249966
0.000239442
0.000239409
0.000239431
0.000239733
0.00023994
0.000240174
0.000239625
0.000239409
0.000240799
0.000239852
0.000239633
0.000242934
0.000245297
0.000247301
0.000247675
0.000244741
0.00021688
0.000241205
0.000241374
0.000241678
0.000241943
0.000242308
0.000242596
0.000243067
0.000243532
0.000244131
0.000241096
0.000240891
0.000240831
0.000240709
0.000240685
0.000240569
0.000240511
0.000240615
0.000241025
0.000242151
0.000243535
0.000240882
0.000240787
0.000245936
0.000244673
0.000245518
0.000246763
0.000296671
0.00030624
0.000278065
0.000268939
0.000272769
0.000257759
0.00025433
0.000261602
0.000251691
0.000249115
0.000247613
0.000265757
0.000183948
0.000139582
0.000144011
0.000249636
0.000247307
0.00024673
0.00023158
0.00023991
0.000258713
0.000263935
0.000282952
0.000291602
0.00027157
0.00030549
0.000240308
0.000240686
0.000241189
0.000241567
0.000242003
0.000240985
0.000242481
0.000242754
0.000244093
0.000244956
0.00024538
0.000243371
0.000246644
0.000248448
0.000256068
0.00025143
0.000249651
0.000239581
0.00023961
0.000239564
0.000239786
0.000240002
0.000240136
0.000239625
0.00023976
0.00023968
0.00024023
0.000241761
0.000243303
0.000245041
0.000248732
0.000242088
0.000250612
0.000234755
0.000191915
0.000241359
0.00024146
0.000241591
0.000241829
0.000242146
0.000242429
0.000242623
0.000243228
0.000243759
0.000244054
0.000241077
0.000240985
0.000240866
0.000240819
0.000240764
0.000240689
0.000240652
0.000240762
0.000241531
0.000242657
0.00024301
0.000245725
0.000241464
0.000241061
0.000246568
0.000245047
0.000244298
0.000245843
0.000246395
0.000305069
0.000285229
0.000269423
0.000277037
0.000260232
0.000256375
0.000253036
0.000264476
0.000250823
0.000248161
0.000249628
0.000246771
0.000269017
0.000148277
0.000140182
0.000143529
0.000249371
0.00024936
0.000248817
0.000221364
0.000236358
0.000261133
0.000263873
0.000268317
0.000278941
0.00029399
0.000240438
0.00024061
0.000241287
0.000241644
0.000242083
0.000240907
0.00024234
0.000243009
0.000244324
0.000243718
0.000245121
0.000246074
0.000247392
0.000248055
0.000255687
0.000252044
0.000250629
0.000239672
0.000239661
0.000239854
0.000239702
0.000239936
0.000240235
0.000239763
0.000239885
0.000239887
0.000240524
0.000242126
0.000245429
0.000247495
0.000248225
0.000241921
0.000249674
0.000226266
0.000167358
0.000241376
0.000241626
0.000241899
0.000242057
0.000242458
0.000242811
0.000243508
0.00024301
0.000241173
0.000240951
0.000240872
0.00024084
0.000240813
0.000240812
0.000240779
0.000240982
0.000242386
0.000244339
0.000244418
0.000246389
0.000241832
0.00024158
0.000248289
0.0002449
0.000243959
0.000245338
0.000296737
0.00028227
0.000273913
0.000277529
0.000262089
0.000257836
0.000254082
0.000251426
0.000266805
0.000247475
0.000248796
0.000246381
0.000272615
0.000149507
7.35951e-05
0.00013956
0.000145268
0.000249512
0.000247907
0.000248785
0.000223813
0.000239542
0.000261292
0.000266671
0.000271409
0.000285731
0.000304881
0.000240373
0.00024073
0.000241194
0.000241503
0.0002419
0.00024102
0.000242526
0.000242884
0.000244011
0.000244738
0.000243691
0.000245655
0.000246129
0.000247804
0.00024906
0.000253658
0.000257904
0.000250231
0.000239776
0.000239908
0.000240152
0.000239873
0.00024002
0.000240275
0.000239849
0.000239991
0.000240237
0.00024124
0.00024326
0.000245936
0.000247526
0.000242471
0.000239696
0.000248633
0.000167285
0.000187524
0.0002415
0.000241273
0.000241757
0.000242144
0.00024229
0.000242611
0.000243383
0.000243047
0.00024111
0.000240983
0.000240933
0.000240911
0.000240947
0.000240949
0.000240972
0.000241241
0.000243403
0.000245272
0.000248037
0.000242549
0.000241914
0.000249015
0.000244477
0.000243574
0.000244051
0.000245335
0.00030609
0.000288285
0.000276216
0.000283334
0.000265366
0.000260499
0.000270546
0.000246779
0.000245801
0.000145908
0.000152792
0.00013646
0.000143108
0.000249161
0.000245328
0.000249284
0.000216948
0.000233967
0.000260184
0.000264672
0.00027005
0.000276922
0.000284963
0.000296462
0.000240485
0.000240727
0.0002413
0.000241587
0.000241971
0.000241018
0.000242469
0.000243114
0.000244068
0.000244841
0.000243433
0.000239854
0.00024019
0.000240001
0.000240471
0.000239999
0.000240143
0.000240216
0.00024041
0.000239912
0.000240071
0.000240613
0.000241786
0.000244915
0.000243124
0.000247944
0.000249146
0.000239233
0.000230545
0.000248532
0.00018995
0.000167102
0.00024145
0.000241256
0.000241702
0.000241949
0.00024213
0.000242418
0.000242867
0.000241131
0.000241053
0.000240955
0.000240981
0.000241016
0.000241066
0.000241042
0.000241209
0.000241596
0.000243487
0.000244738
0.000247409
0.000247932
0.00024877
0.000243407
0.000242546
0.000248988
0.000244451
0.000243273
0.000243699
0.000298252
0.000281432
0.000288626
0.000268565
0.000262456
0.000273284
0.000143857
0.000161254
0.000137189
0.000248651
0.000243271
0.000194695
0.000226809
0.000236669
0.000266913
0.00027299
0.000277928
0.000296222
0.000306156
0.000240619
0.000240889
0.00024147
0.000241166
0.000241805
0.000242233
0.000242732
0.00024299
0.000243727
0.000243444
0.000239943
0.000240505
0.000240283
0.000241039
0.000240159
0.000240152
0.000240285
0.000240451
0.000240021
0.000240084
0.000241405
0.000246664
0.00024417
0.000248777
0.000248155
0.000249453
0.000239498
0.000236269
0.000245318
0.000160817
0.000159639
0.000241333
0.000241543
0.000241183
0.000241802
0.000241929
0.000242202
0.000242482
0.000242654
0.000243013
0.000241091
0.00024103
0.000241019
0.000241069
0.000241188
0.000241315
0.00024142
0.000241475
0.000241991
0.000244907
0.000246402
0.000247783
0.000248571
0.0002489
0.000244888
0.000243372
0.000242728
0.000249046
0.000243338
0.000306583
0.000278363
0.000287868
0.000298498
0.000273026
0.000269153
0.000265683
0.000141494
0.000146612
0.000134901
0.000246607
0.000248381
0.000243902
0.000181547
0.000222628
0.000231339
0.000271013
0.000284443
0.000305007
0.000240647
0.000240884
0.000241576
0.000241163
0.00024186
0.00024221
0.000242602
0.000243151
0.000240107
0.000241167
0.000240488
0.000240422
0.000241774
0.000241415
0.000240227
0.000240303
0.000240224
0.000240385
0.00024057
0.000240143
0.000240215
0.000246485
0.000244
0.000249609
0.000249413
0.000248848
0.000232253
0.000231404
0.00024195
0.000170455
0.000152171
0.00024126
0.00024147
0.000241146
0.000241679
0.000241881
0.000242156
0.000242278
0.000242628
0.000242783
0.0002411
0.000241066
0.000241057
0.000241176
0.000241133
0.000241403
0.000241535
0.000241613
0.000241976
0.000246083
0.000246567
0.000248352
0.000248456
0.000248863
0.000246129
0.00024454
0.000243165
0.000248342
0.000243072
0.000283222
0.000296891
0.000306735
0.000278526
0.000273989
0.000134461
0.000148032
0.000159531
0.000244105
0.00024507
0.000239028
0.000191989
0.000214753
0.000232251
0.000274523
0.00029622
0.000280109
0.000240774
0.000241019
0.000241482
0.000241769