/*--------------------------------*- C++ -*----------------------------------*\
| =========                 |                                                 |
| \\      /  F ield         | OpenFOAM: The Open Source CFD Toolbox           |
|  \\    /   O peration     | Version:  v2012                                 |
|   \\  /    A nd           | Website:  www.openfoam.com                      |
|    \\/     M anipulation  |                                                 |
\*---------------------------------------------------------------------------*/
FoamFile
{
    version     2.0;
    format      ascii;
    class       volVectorField;
    location    "0.46";
    object      cellDisplacement;
}
// * * * * * * * * * * * * * * * * * * * * * * * * * * * * * * * * * * * * * //

dimensions      [0 1 0 0 0 0 0];


internalField   nonuniform List<vector> 
11961
(
(-0.000151443 0.000915769 0)
(-0.000362672 0.00221253 0)
(-0.0003389 0.00202441 0)
(-0.000224252 0.00139891 0)
(-0.000687861 0.00416603 0)
(-0.000181192 0.00107475 0)
(-0.000651002 0.00389106 0)
(-0.000561242 0.00352219 0)
(-0.00100335 0.00609867 0)
(-0.000329257 0.00193076 0)
(-0.000894348 0.00530494 0)
(-0.00104167 0.00642966 0)
(-0.000591099 0.00377503 0)
(-0.0013452 0.00806643 0)
(-0.000656102 0.00384074 0)
(-0.000144913 0.000847009 0)
(-0.000900908 0.00529732 0)
(-0.00126086 0.00749019 0)
(-0.00145235 0.00898306 0)
(-0.00108562 0.00695687 0)
(-0.000240193 0.00156597 0)
(-0.0017564 0.0105187 0)
(-0.000719677 0.00417945 0)
(-0.000256754 0.00148974 0)
(-0.00126375 0.00737049 0)
(-0.00150051 0.00879152 0)
(-0.00148183 0.00935402 0)
(-0.00184588 0.0112279 0)
(-0.00106996 0.00703428 0)
(-0.000580995 0.00386527 0)
(-0.00206604 0.01217 0)
(-0.000991068 0.00572524 0)
(-0.000509968 0.00295557 0)
(-0.000107839 0.000624511 0)
(-0.00128565 0.00743719 0)
(-0.00187782 0.0109459 0)
(-0.00194868 0.0123379 0)
(-0.00232125 0.0140997 0)
(-0.00145844 0.00968041 0)
(-0.000492109 0.00336728 0)
(-0.00251682 0.0147673 0)
(-0.00100244 0.00575082 0)
(-0.000561423 0.00323251 0)
(-0.000203896 0.00117547 0)
(-0.0015491 0.0088772 0)
(-0.00211462 0.0121344 0)
(-0.00193592 0.0125917 0)
(-0.00239438 0.0148516 0)
(-0.00269025 0.0160239 0)
(-0.00138192 0.00948433 0)
(-0.000925065 0.00649003 0)
(-0.000167108 0.00115702 0)
(-0.0028005 0.0161553 0)
(-0.000778542 0.00446416 0)
(-0.00122343 0.00697187 0)
(-0.00041175 0.00237002 0)
(-0.000157696 0.0009086 0)
(-0.00190679 0.0108842 0)
(-0.00146623 0.00835457 0)
(-0.00257741 0.0147047 0)
(-0.00239543 0.015698 0)
(-0.00290956 0.0180335 0)
(-0.00323724 0.0191706 0)
(-0.0017267 0.0119983 0)
(-0.000876532 0.00640271 0)
(-0.000153045 0.00114309 0)
(-0.0032682 0.0187513 0)
(-0.00077429 0.00440685 0)
(-0.00121103 0.0068497 0)
(-0.000411699 0.00235515 0)
(-5.53521e-05 0.000318916 0)
(-0.000272079 0.00156032 0)
(-0.00199359 0.0112128 0)
(-0.00168014 0.00947311 0)
(-0.00283383 0.0159345 0)
(-0.00224595 0.0152612 0)
(-0.00292264 0.0186597 0)
(-0.00339402 0.0204867 0)
(-0.00352762 0.0204675 0)
(-0.00164759 0.0119037 0)
(-0.00125415 0.00934286 0)
(-0.000448164 0.00339403 0)
(-0.00356957 0.020124 0)
(-0.000549464 0.00312955 0)
(-0.000979214 0.0055391 0)
(-0.00149421 0.00838612 0)
(-8.38646e-05 0.000480898 0)
(-0.000187468 0.00107299 0)
(-0.00230955 0.0128575 0)
(-0.00336287 0.0188034 0)
(-0.00271679 0.0151245 0)
(-0.00246424 0.0171076 0)
(-0.00350604 0.0224113 0)
(-0.00390526 0.0234842 0)
(-0.0040739 0.0233078 0)
(-0.00202956 0.0147609 0)
(-0.00120647 0.00949423 0)
(-0.000464872 0.00369311 0)
(-0.00408604 0.0229295 0)
(-0.000509438 0.00288207 0)
(-0.000941946 0.00528484 0)
(-0.00151766 0.0084348 0)
(-2.271e-05 0.000130484 0)
(-0.000172555 0.000984287 0)
(-0.00226553 0.0124444 0)
(-0.00355837 0.0195708 0)
(-0.00312415 0.0171612 0)
(-0.00288984 0.0199238 0)
(-0.00401113 0.0247861 0)
(-0.003442 0.0228278 0)
(-0.00439295 0.0257959 0)
(-0.00448686 0.0257465 0)
(-0.00201739 0.01531 0)
(-0.000837948 0.00681275 0)
(-0.00156286 0.0125283 0)
(-0.000174001 0.00144961 0)
(-0.00441479 0.0244103 0)
(-0.000687465 0.00386168 0)
(-0.000339687 0.00192329 0)
(-0.00117441 0.00653503 0)
(-0.00184808 0.0101663 0)
(-1.91231e-05 0.000109514 0)
(-0.000231096 0.00131224 0)
(-7.40762e-05 0.000423475 0)
(-0.00267923 0.014524 0)
(-0.00409081 0.022218 0)
(-0.00313899 0.0170285 0)
(-0.00288007 0.0207591 0)
(-0.00461206 0.0280907 0)
(-0.00383456 0.0257232 0)
(-0.00485444 0.0286085 0)
(-0.00513472 0.0288164 0)
(-0.00241464 0.0183697 0)
(-0.00070247 0.00616227 0)
(-0.00152986 0.0130082 0)
(-0.000337134 0.00299695 0)
(-0.00445366 0.0242559 0)
(-0.00490455 0.0269183 0)
(-0.000593637 0.0033082 0)
(-0.000229919 0.00129188 0)
(-0.0010915 0.00602283 0)
(-0.00171154 0.00932044 0)
(-0.000113428 0.000642985 0)
(-4.17347e-05 0.000237699 0)
(-0.00268226 0.0143624 0)
(-0.00408988 0.021902 0)
(-0.00357214 0.0191468 0)
(-0.00334315 0.0238736 0)
(-0.0049841 0.0305575 0)
(-0.00444765 0.029255 0)
(-0.0054675 0.0315219 0)
(-0.00565777 0.031816 0)
(-0.00527041 0.0289899 0)
(-0.00233282 0.0189221 0)
(-0.000855644 0.00791468 0)
(-0.00188213 0.0162155 0)
(-0.00119853 0.0108984 0)
(-0.000163491 0.00158207 0)
(-0.00495 0.0266975 0)
(-0.000304445 0.00170046 0)
(-0.000762278 0.00421486 0)
(-7.63881e-05 0.000430732 0)
(-0.0013057 0.0071388 0)
(-0.00189929 0.0102177 0)
(-0.0023126 0.0123544 0)
(-0.00321269 0.0169656 0)
(-0.00447565 0.0235939 0)
(-0.00361286 0.019105 0)
(-0.0033324 0.0249342 0)
(-0.00496303 0.0312883 0)
(-0.00569673 0.0338685 0)
(-0.00454206 0.0311522 0)
(-0.00592586 0.0342988 0)
(-0.00638303 0.0350826 0)
(-0.00594138 0.0320318 0)
(-0.0027275 0.0221545 0)
(-0.000616796 0.00637024 0)
(-0.00165586 0.0155848 0)
(-0.00126383 0.0123345 0)
(-0.000311746 0.00328685 0)
(-0.00538306 0.0286137 0)
(-0.000149163 0.000826458 0)
(-0.000630376 0.00345702 0)
(-0.00113984 0.00619104 0)
(-0.00157604 0.0084393 0)
(-0.00236436 0.0124546 0)
(-0.00319411 0.0166643 0)
(-0.00413164 0.0216202 0)
(-0.00501452 0.0262141 0)
(-0.00385826 0.0284552 0)
(-0.00586128 0.0361161 0)
(-0.00625371 0.0371749 0)
(-0.00527871 0.0354012 0)
(-0.00674708 0.038066 0)
(-0.0065086 0.0350671 0)
(-0.00701742 0.0385776 0)
(-0.00599932 0.0318244 0)
(-0.00257258 0.0227955 0)
(-0.000726112 0.0080762 0)
(-0.00170016 0.0169521 0)
(-0.00103951 0.0110614 0)
(-0.0001404 0.00168451 0)
(-0.00543332 0.0284828 0)
(-0.000314094 0.0017255 0)
(-0.000806051 0.00438599 0)
(-0.00124593 0.00670781 0)
(-0.00162716 0.00861917 0)
(-0.0019871 0.010449 0)
(-0.00274104 0.0143044 0)
(-0.00356785 0.0183759 0)
(-0.00435447 0.0224702 0)
(-0.0051997 0.0267747 0)
(-0.00373951 0.0293262 0)
(-0.00610575 0.0383664 0)
(-0.00705601 0.0403852 0)
(-0.00522386 0.0367201 0)
(-0.00722799 0.0380944 0)
(-0.00784621 0.0419928 0)
(-0.00662104 0.0344903 0)
(-0.00203996 0.0200371 0)
(-0.00300129 0.0262447 0)
(-0.000594863 0.00749855 0)
(-0.00129078 0.0148597 0)
(-0.00104533 0.0122988 0)
(-0.000203469 0.00279771 0)
(-0.00608889 0.0313709 0)
(-0.000163089 0.000886981 0)
(-0.000677662 0.00365551 0)
(-0.000931546 0.00499221 0)
(-0.00126824 0.00669323 0)
(-0.00197559 0.0102698 0)
(-0.00269152 0.0138823 0)
(-0.00340293 0.0173611 0)
(-0.0040712 0.0208778 0)
(-0.00488989 0.0250523 0)
(-0.00571509 0.0290794 0)
(-0.00433574 0.0332235 0)
(-0.00716067 0.0436175 0)
(-0.00788034 0.0443623 0)
(-0.00601389 0.0411851 0)
(-0.00788065 0.0413584 0)
(-0.0072455 0.0375988 0)
(-0.0086028 0.0457028 0)
(-0.0066178 0.0340289 0)
(-0.00172546 0.0196273 0)
(-0.00284355 0.0270006 0)
(-0.000382146 0.00529535 0)
(-0.000759536 0.0101092 0)
(-0.0012831 0.0162514 0)
(-6.9391e-05 0.00116264 0)
(-0.0061294 0.0311741 0)
(-0.000360382 0.00194273 0)
(-0.000927989 0.00492822 0)
(-0.00129342 0.00675974 0)
(-0.00163557 0.00849073 0)
(-0.00230304 0.0118725 0)
(-0.00299795 0.0153151 0)
(-0.00366683 0.018497 0)
(-0.00429938 0.0217459 0)
(-0.00518239 0.0261905 0)
(-0.00570092 0.0286899 0)
(-0.00409734 0.0337322 0)
(-0.00715195 0.0452644 0)
(-0.00808324 0.0465799 0)
(-0.00870479 0.0470873 0)
(-0.00567277 0.0414566 0)
(-0.00857358 0.0439827 0)
(-0.00790744 0.0401951 0)
(-0.00936023 0.0483246 0)
(-0.00716971 0.0362651 0)
(-0.00176842 0.021608 0)
(-0.00224189 0.0248799 0)
(-0.00334419 0.030556 0)
(-0.000316395 0.00539864 0)
(-0.000635341 0.0100652 0)
(-0.000972928 0.0149865 0)
(-0.000146217 0.00283485 0)
(-0.0066347 0.0332993 0)
(-0.000208326 0.00110689 0)
(-0.000513643 0.00271072 0)
(-0.000985887 0.00512243 0)
(-0.00157406 0.00808116 0)
(-0.00224948 0.0114645 0)
(-0.00289697 0.0146519 0)
(-0.00404292 0.0203409 0)
(-0.00350202 0.0174879 0)
(-0.00471046 0.0236354 0)
(-0.00508696 0.0255047 0)
(-0.00606918 0.0301445 0)
(-0.00463972 0.0374345 0)
(-0.00813273 0.0502548 0)
(-0.00937736 0.0521528 0)
(-0.00965451 0.0512723 0)
(-0.00631773 0.045368 0)
(-0.00854367 0.0432032 0)
(-0.00924672 0.047136 0)
(-0.00779163 0.0391923 0)
(-0.0102196 0.0521014 0)
(-0.007092 0.0355614 0)
(-0.00121009 0.0195711 0)
(-0.00222774 0.0267572 0)
(-0.00295445 0.0303774 0)
(-0.000394531 0.007297 0)
(-0.000692093 0.0120881 0)
(-0.000907465 0.0164801 0)
(-0.000100959 0.0025784 0)
(-0.00676833 0.0335905 0)
(-0.000536399 0.00280285 0)
(-0.00115789 0.0059526 0)
(-0.00185411 0.00944027 0)
(-0.00253819 0.0128295 0)
(-0.00313787 0.0157018 0)
(-0.00428984 0.0213258 0)
(-0.00375342 0.0185523 0)
(-0.00468306 0.0232423 0)
(-0.00548641 0.0271328 0)
(-0.00592607 0.0292044 0)
(-0.00655397 0.032376 0)
(-0.00414699 0.0369628 0)
(-0.00928822 0.0542102 0)
(-0.00758601 0.0499993 0)
(-0.00980714 0.0549569 0)
(-0.0100185 0.0536628 0)
(-0.0103732 0.0534926 0)
(-0.00565265 0.0444813 0)
(-0.0091628 0.0454747 0)
(-0.00985229 0.0491964 0)
(-0.00821442 0.040681 0)
(-0.0108155 0.0539015 0)
(-0.00755123 0.0373145 0)
(-0.00100186 0.0203256 0)
(-0.00172961 0.0259818 0)
(-0.0032132 0.0330249 0)
(-0.000282513 0.00706193 0)
(-0.000469658 0.0111513 0)
(-0.00053931 0.0147568 0)
(-3.02983e-05 0.000892266 0)
(-0.000144575 0.00467162 0)
(-0.00734751 0.036114 0)
(-0.000233431 0.00120928 0)
(-0.000996728 0.00506699 0)
(-0.00177499 0.00893615 0)
(-0.00251119 0.0125372 0)
(-0.00290097 0.0143781 0)
(-0.00415754 0.0205304 0)
(-0.00374438 0.0183046 0)
(-0.00499715 0.0245442 0)
(-0.00539747 0.0264795 0)
(-0.00626487 0.0304744 0)
(-0.00692664 0.0336954 0)
(-0.00452475 0.0400888 0)
(-0.0102301 0.0586752 0)
(-0.00821637 0.0536781 0)
(-0.0111865 0.0602106 0)
(-0.0111196 0.0577355 0)
(-0.0112447 0.0572136 0)
(-0.00617011 0.0480709 0)
(-0.00976154 0.0482427 0)
(-0.00921773 0.0451556 0)
(-0.0105323 0.0521508 0)
(-0.00879393 0.0431176 0)
(-0.00800921 0.0393895 0)
(-0.0116269 0.0570845 0)
(-0.00117788 0.0230262 0)
(-0.000479424 0.0180438 0)
(-0.00185984 0.0285686 0)
(-0.00265254 0.0320885 0)
(-0.000297448 0.00879512 0)
(-0.000394768 0.0123807 0)
(-0.000331693 0.0156035 0)
(-6.70175e-06 0.000799874 0)
(-7.32811e-05 0.00454904 0)
(-0.00756775 0.0367921 0)
(-0.000514751 0.00262566 0)
(-0.00132712 0.0066732 0)
(-0.00213762 0.0106572 0)
(-0.00302633 0.0148012 0)
(-0.00436297 0.0212973 0)
(-0.00346127 0.0168208 0)
(-0.00411483 0.0199704 0)
(-0.00496644 0.0241755 0)
(-0.0057255 0.0277554 0)
(-0.00612761 0.0296037 0)
(-0.00675634 0.0326683 0)
(-0.00735218 0.0355817 0)
(-0.00375253 0.0386076 0)
(-0.0103402 0.060355 0)
(-0.0113674 0.0620477 0)
(-0.00744956 0.0525584 0)
(-0.00947399 0.0582707 0)
(-0.0119634 0.0623418 0)
(-0.0118243 0.0608838 0)
(-0.0120348 0.0598332 0)
(-0.00521447 0.0463434 0)
(-0.010358 0.0503089 0)
(-0.00984501 0.0474806 0)
(-0.0109854 0.0535196 0)
(-0.00889836 0.0430769 0)
(-0.00841533 0.0408659 0)
(-0.0121372 0.0595119 0)
(-0.0119451 0.0576791 0)
(-0.000615101 0.0218265 0)
(-0.000251308 0.0187971 0)
(-0.00140529 0.0284466 0)
(-0.00284634 0.0346214 0)
(-0.00015655 0.00852793 0)
(-0.000158369 0.0105387 0)
(-1.08736e-05 0.0135526 0)
(-1.07696e-05 0.00218476 0)
(-6.12122e-05 0.00650824 0)
(-0.00795321 0.0383663 0)
(-0.000279574 0.00140821 0)
(-0.00128148 0.0063714 0)
(-0.00205598 0.0101383 0)
(-0.00271818 0.013183 0)
(-0.00468109 0.022736 0)
(-0.00364424 0.0174173 0)
(-0.00424032 0.0203484 0)
(-0.005303 0.0255454 0)
(-0.00564298 0.0271331 0)
(-0.00645908 0.0307846 0)
(-0.00703374 0.0335726 0)
(-0.00777093 0.0371197 0)
(-0.00392506 0.0412002 0)
(-0.0118704 0.0658353 0)
(-0.01241 0.0663584 0)
(-0.00829865 0.0569568 0)
(-0.00977909 0.0611181 0)
(-0.0132778 0.0671382 0)
(-0.0128625 0.0641439 0)
(-0.012902 0.0635134 0)
(-0.00565142 0.0498765 0)
(-0.0103496 0.0497816 0)
(-0.0108763 0.0525994 0)
(-0.00998613 0.0476066 0)
(-0.0115907 0.0559298 0)
(-0.00928755 0.0444119 0)
(-0.0085278 0.0409788 0)
(-0.0130104 0.0624621 0)
(-0.0126477 0.0601661 0)
(-0.000356088 0.0226365 0)
(0.000193425 0.0178143 0)
(-0.000624211 0.0255244 0)
(-0.00195918 0.0322656 0)
(-1.07568e-05 0.0110267 0)
(0.000275915 0.0135923 0)
(1.81271e-05 0.00232384 0)
(4.19852e-05 0.00602021 0)
(-0.00804698 0.0384514 0)
(-0.00832464 0.0399553 0)
(-0.000534781 0.00264827 0)
(-0.0016501 0.00813253 0)
(-0.000970685 0.00479277 0)
(-0.00230966 0.0112535 0)
(-0.00289844 0.0138336 0)
(-0.00485443 0.0232592 0)
(-0.0033799 0.0160202 0)
(-0.00405258 0.0192753 0)
(-0.00464671 0.0221542 0)
(-0.00522063 0.0249086 0)
(-0.00592963 0.028194 0)
(-0.00684902 0.0324993 0)
(-0.00631768 0.0299226 0)
(-0.00749855 0.0354709 0)
(-0.00782968 0.0370436 0)
(-0.00284953 0.0383593 0)
(-0.0124994 0.0690865 0)
(-0.0134884 0.0696474 0)
(-0.00764061 0.0565638 0)
(-0.0113009 0.0666213 0)
(-0.0138387 0.0698057 0)
(-0.0136972 0.0676385 0)
(-0.0137193 0.066 0)
(-0.00447171 0.0473467 0)
(-0.010867 0.0515175 0)
(-0.0114417 0.0545301 0)
(-0.00974102 0.0462898 0)
(-0.010565 0.0496987 0)
(-0.0118649 0.0564769 0)
(-0.00909481 0.0432303 0)
(-0.013125 0.0622861 0)
(-0.0136422 0.0650787 0)
(-0.0128462 0.0603358 0)
(0.00033575 0.0196447 0)
(0.000438729 0.0154655 0)
(-4.47959e-05 0.0252299 0)
(-0.00184544 0.0335167 0)
(0.000142065 0.0093968 0)
(0.000437039 0.0115756 0)
(5.38243e-05 0.00405727 0)
(1.40852e-05 0.000840729 0)
(0.000129349 0.0072623 0)
(-0.00843327 0.0400259 0)
(-0.000252758 0.00123662 0)
(-0.00161102 0.00783312 0)
(-0.00121148 0.00589152 0)
(-0.00198755 0.00959051 0)
(-0.00260395 0.0123209 0)
(-0.00355194 0.0165642 0)
(-0.0043544 0.0204416 0)
(-0.00474984 0.0223396 0)
(-0.00552643 0.0260573 0)
(-0.00588065 0.0277146 0)
(-0.00720736 0.0337549 0)
(-0.00654058 0.0305706 0)
(-0.00758988 0.0354919 0)
(-0.00839104 0.0390952 0)
(-0.00247712 0.0387786 0)
(-0.0140537 0.0741378 0)
(-0.0145801 0.0739281 0)
(-0.0086668 0.0614776 0)
(-0.0119533 0.0701879 0)
(-0.0151192 0.0740358 0)
(-0.0147039 0.0708392 0)
(-0.014508 0.068966 0)
(-0.00454383 0.0496055 0)
(-0.00301107 0.042019 0)
(-0.011338 0.0534319 0)
(-0.0108941 0.0511818 0)
(-0.0115809 0.0546754 0)
(-0.0101901 0.0476064 0)
(-0.010664 0.0495776 0)
(-0.0124172 0.0584115 0)
(-0.00944753 0.0442722 0)
(-0.0139057 0.0648114 0)
(-0.0143044 0.0670905 0)
(-0.0134629 0.062379 0)
(0.000848077 0.0193459 0)
(0.000904194 0.0141499 0)
(-0.000211991 0.0278448 0)
(0.000779883 0.0219334 0)
(-0.000986463 0.0313117 0)
(0.000332294 0.00982809 0)
(0.000683372 0.0112749 0)
(9.59466e-05 0.00350085 0)
(5.0619e-05 0.00176799 0)
(0.000198515 0.00627273 0)
(-0.00878183 0.0412032 0)
(-0.00052065 0.00250077 0)
(-0.00104124 0.00499358 0)
(-0.00210033 0.0100035 0)
(-0.00277788 0.0129309 0)
(-0.00401357 0.0185264 0)
(-0.00323295 0.0149521 0)
(-0.00437071 0.0202443 0)
(-0.00514486 0.023946 0)
(-0.00552373 0.0257495 0)
(-0.00624278 0.0291065 0)
(-0.0072248 0.0335269 0)
(-0.0069025 0.0320085 0)
(-0.00803288 0.0370772 0)
(-0.00844963 0.0389185 0)
(-0.00879028 0.0408517 0)
(-0.00114259 0.0339135 0)
(-0.0148555 0.0757678 0)
(-0.0150492 0.0784812 0)
(-0.0155587 0.0764083 0)
(-0.0108415 0.0680996 0)
(-0.00764937 0.0600884 0)
(-0.01436 0.0776057 0)
(-0.0157057 0.0753744 0)
(-0.0149024 0.0708362 0)
(-0.0155138 0.0740392 0)
(-0.0151195 0.0705627 0)
(-0.00267793 0.0441932 0)
(-0.00567539 0.0543671 0)
(-0.00201543 0.0403348 0)
(-0.0117581 0.054583 0)
(-0.0115022 0.0532886 0)
(-0.0122674 0.0570287 0)
(-0.0100657 0.0467069 0)
(-0.0112371 0.0514735 0)
(-0.0126512 0.058724 0)
(-0.00929287 0.0433055 0)
(-0.0143862 0.0668299 0)
(-0.0140074 0.0646249 0)
(-0.0149602 0.0695603 0)
(-0.0135949 0.0623642 0)
(0.00140869 0.016559 0)
(0.000910549 0.0122538 0)
(0.00131655 0.0144919 0)
(0.000729127 0.0258502 0)
(0.00133405 0.0220063 0)
(0.000406522 0.0083101 0)
(0.000727471 0.00983452 0)
(0.000158399 0.0044993 0)
(3.59238e-05 0.000928972 0)
(0.000313679 0.00684675 0)
(-0.000269555 0.00127621 0)
(-0.0013214 0.00623812 0)
(-0.00181305 0.00854419 0)
(-0.00248849 0.0115016 0)
(-0.00399427 0.018156 0)
(-0.00348329 0.0158648 0)
(-0.00483102 0.0221151 0)
(-0.00518885 0.0238537 0)
(-0.00598538 0.0275289 0)
(-0.00634142 0.0292071 0)
(-0.00766663 0.0350952 0)
(-0.00711827 0.0325154 0)
(-0.00806659 0.0368221 0)
(-0.00894727 0.0406343 0)
(-0.00941544 0.0430196 0)
(-0.000322899 0.0323853 0)
(-0.0164109 0.0809485 0)
(-0.0167991 0.0833007 0)
(-0.0166081 0.0799745 0)
(-0.0120341 0.0732202 0)
(-0.00903259 0.0658275 0)
(-0.0153292 0.0816958 0)
(-0.0167843 0.0789228 0)
(-0.0158681 0.0738685 0)
(-0.016572 0.077121 0)
(-0.0158718 0.0732756 0)
(-0.00174237 0.0430416 0)
(-0.0049052 0.0540975 0)
(-0.000599313 0.0353731 0)
(-0.0123075 0.0566829 0)
(-0.0117305 0.0536459 0)
(-0.0104478 0.0477475 0)
(-0.0114107 0.0516146 0)
(-0.0132237 0.0606592 0)
(-0.00974051 0.0445701 0)
(-0.0150557 0.0689678 0)
(-0.0146693 0.0665973 0)
(-0.015415 0.0706533 0)
(-0.014136 0.0640564 0)
(0.00213513 0.0154971 0)
(0.00116151 0.0109134 0)
(0.00164111 0.0125037 0)
(0.000843838 0.0275858 0)
(0.00209215 0.0196531 0)
(0.000571435 0.0085345 0)
(0.000956668 0.0097531 0)
(0.000193305 0.0042263 0)
(7.82341e-05 0.00158772 0)
(0.000295649 0.00560266 0)
(-0.000560158 0.00260503 0)
(-0.00108448 0.00504526 0)
(-0.00203068 0.00943464 0)
(-0.00253476 0.0115457 0)
(-0.00435129 0.0195225 0)
(-0.00332038 0.014916 0)
(-0.00504126 0.0227585 0)
(-0.00565969 0.0256762 0)
(-0.00605051 0.0274592 0)
(-0.00683621 0.03112 0)
(-0.00758617 0.0344042 0)
(-0.00859118 0.0386126 0)
(-0.00946798 0.0428315 0)
(-0.00903188 0.0405221 0)
(-0.0170753 0.0823492 0)
(-0.0183437 0.0883533 0)
(-0.0173884 0.0819377 0)
(-0.0140411 0.079098 0)
(-0.0110764 0.0717735 0)
(-0.00824274 0.0651366 0)
(-0.0170745 0.0870901 0)
(-0.0172157 0.0796117 0)
(-0.0174008 0.0813276 0)
(-0.0166345 0.0767193 0)
(-0.0165084 0.0750582 0)
(-0.00268466 0.0477545 0)
(0.000142881 0.0367662 0)
(-0.00616778 0.0593362 0)
(0.000478482 0.0333328 0)
(-0.0128478 0.0582903 0)
(-0.0124088 0.055892 0)
(-0.0110239 0.0498611 0)
(-0.0102501 0.0465009 0)
(-0.0120896 0.0538815 0)
(-0.0136762 0.0617735 0)
(-0.0154403 0.0698571 0)
(-0.0153064 0.0689269 0)
(-0.0146335 0.0659636 0)
(-0.0161086 0.0728303 0)
(-0.0142402 0.0638768 0)
(0.00244514 0.0167311 0)
(0.00245664 0.0127477 0)
(0.00145611 0.0109641 0)
(0.00210623 0.0118167 0)
(0.00180708 0.0256321 0)
(0.00280042 0.0195047 0)
(0.000582839 0.0075259 0)
(0.000933313 0.00876349 0)
(0.000156239 0.00306397 0)
(3.71866e-05 0.000672458 0)
(0.000347242 0.00545342 0)
(-0.000294435 0.00134637 0)
(-0.00139161 0.00637683 0)
(-0.00183397 0.00841757 0)
(-0.00286157 0.0128742 0)
(-0.00213134 0.00967439 0)
(-0.00423791 0.0187642 0)
(-0.00486759 0.0217814 0)
(-0.00371629 0.0164505 0)
(-0.00560106 0.0251298 0)
(-0.0065675 0.0294195 0)
(-0.00698766 0.0313728 0)
(-0.00798434 0.0356989 0)
(-0.00857656 0.0381378 0)
(-0.00999491 0.0444176 0)
(-0.00966403 0.0427483 0)
(-0.018317 0.086074 0)
(-0.0189854 0.091357 0)
(-0.0194658 0.0908822 0)
(-0.0184035 0.0854925 0)
(-0.0154255 0.0844493 0)
(-0.0123741 0.0768625 0)
(-0.00971157 0.0708793 0)
(-0.0172456 0.0891867 0)
(-0.0183842 0.0905402 0)
(-0.0181626 0.0826043 0)
(-0.0183909 0.0840287 0)
(-0.0174776 0.0790147 0)
(-0.0172622 0.0777398 0)
(-0.0165826 0.0747175 0)
(-0.00169799 0.0468951 0)
(0.00169351 0.0333587 0)
(-0.00538824 0.0588047 0)
(0.00175157 0.0283291 0)
(-0.0135606 0.0609334 0)
(-0.0129035 0.0579585 0)
(-0.0125719 0.0559261 0)
(-0.0112484 0.0501681 0)
(-0.010729 0.0479687 0)
(-0.0123043 0.0541231 0)
(-0.0161809 0.0724732 0)
(-0.0159946 0.0707109 0)
(-0.0151966 0.0674367 0)
(-0.0148928 0.0659175 0)
(0.00328075 0.0147023 0)
(0.00312008 0.0111958 0)
(0.00163226 0.00968773 0)
(0.00208801 0.00984436 0)
(0.00277538 0.0216356 0)
(0.00363049 0.0158962 0)
(0.000465457 0.00629212 0)
(0.000733072 0.00778257 0)
(0.00106597 0.00823361 0)
(0.000190434 0.00321232 0)
(7.72233e-05 0.00126642 0)
(0.000274483 0.00426879 0)
(-0.000651618 0.0029285 0)
(-0.00122123 0.00550144 0)
(-0.00260725 0.0115841 0)
(-0.00212273 0.00950827 0)
(-0.00460124 0.0201234 0)
(-0.00527145 0.0231819 0)
(-0.0036847 0.016059 0)
(-0.00596403 0.0263724 0)
(-0.00672917 0.0297521 0)
(-0.00748477 0.0332066 0)
(-0.00792273 0.0351035 0)
(-0.00905107 0.0396185 0)
(-0.0105575 0.0465105 0)
(-0.00989292 0.043193 0)
(-0.0192487 0.0893543 0)
(-0.0210461 0.0973292 0)
(-0.0209221 0.095411 0)
(-0.0192872 0.0878244 0)
(-0.0146471 0.0834432 0)
(-0.011689 0.076291 0)
(-0.00898503 0.0704532 0)
(-0.0189057 0.0943052 0)
(-0.0197857 0.0956376 0)
(-0.0186419 0.0837546 0)
(-0.0192295 0.0869003 0)
(-0.0183464 0.0818871 0)
(-0.0178412 0.0791161 0)
(-0.0174207 0.0772573 0)
(0.000334885 0.0411486 0)
(-0.00328279 0.0531594 0)
(0.00182464 0.0351457 0)
(0.00295015 0.0279876 0)
(-0.00683204 0.0644472 0)
(0.00279165 0.0261857 0)
(-0.014174 0.062458 0)
(-0.0137189 0.0605036 0)
(-0.0132598 0.0581047 0)
(-0.0118336 0.0521268 0)
(-0.0108622 0.0480328 0)
(-0.0130107 0.0563867 0)
(-0.0168356 0.0742191 0)
(-0.016739 0.073265 0)
(-0.0158501 0.0696747 0)
(-0.0153091 0.0667854 0)
(0.00366137 0.0119192 0)
(0.00310619 0.00917288 0)
(0.00134488 0.00854073 0)
(0.00240919 0.00887929 0)
(0.00383801 0.0198172 0)
(0.00458422 0.0139879 0)
(0.000449746 0.00570599 0)
(0.000694997 0.00706586 0)
(0.000824834 0.00732127 0)
(0.00014867 0.00238823 0)
(3.63082e-05 0.000595453 0)
(0.000273105 0.00400046 0)
(-0.000364662 0.00160874 0)
(-0.0016615 0.00739056 0)
(-0.00270882 0.011859 0)
(-0.00457323 0.0197472 0)
(-0.00509494 0.0222192 0)
(-0.00579835 0.0253749 0)
(-0.00322523 0.0139893 0)
(-0.00418141 0.0180007 0)
(-0.00647164 0.0284531 0)
(-0.00733311 0.0320129 0)
(-0.00763863 0.033421 0)
(-0.00841755 0.0366987 0)
(-0.00958567 0.0416886 0)
(-0.00892373 0.0386946 0)
(-0.0110839 0.0479857 0)
(-0.0105624 0.0454403 0)
(-0.0203615 0.0921441 0)
(-0.0220329 0.100997 0)
(-0.0216617 0.0983349 0)
(-0.0216971 0.0970329 0)
(-0.0202302 0.0910128 0)
(-0.0156532 0.0876914 0)
(-0.0134685 0.0824614 0)
(-0.0107177 0.0768956 0)
(-0.0199299 0.0982395 0)
(-0.0213205 0.0999322 0)
(-0.0196474 0.0868969 0)
(-0.0186684 0.0833483 0)
(-0.020055 0.0890769 0)
(-0.019031 0.0834217 0)
(-0.0186802 0.0817883 0)
(-0.0178112 0.0780255 0)
(0.00152875 0.0398939 0)
(-0.00310333 0.0547101 0)
(0.00369369 0.0303457 0)
(0.00436561 0.0239034 0)
(-0.0056571 0.0626815 0)
(0.00379025 0.0220885 0)
(-0.0149511 0.0650337 0)
(-0.0138664 0.0604818 0)
(-0.0134551 0.0582547 0)
(-0.0120387 0.052327 0)
(-0.0115709 0.0503944 0)
(-0.0132544 0.056668 0)
(-0.0175689 0.076723 0)
(-0.0174929 0.0752107 0)
(-0.0165608 0.0714132 0)
(-0.0162623 0.0698709 0)
(0.00442324 0.0101695 0)
(0.00362209 0.00748094 0)
(0.00127246 0.00752124 0)
(0.00220866 0.00766285 0)
(0.00488054 0.0156152 0)
(0.00503861 0.0109364 0)
(0.000540677 0.00617747 0)
(0.000337976 0.00464185 0)
(0.000673192 0.00666291 0)
(0.000188664 0.00290801 0)
(7.41971e-05 0.00124605 0)
(-0.000723572 0.00313749 0)
(-0.00170672 0.00747979 0)
(-0.00226801 0.00985922 0)
(-0.00501962 0.0214455 0)
(-0.00536015 0.0230236 0)
(-0.00619179 0.0267086 0)
(-0.00330236 0.0140638 0)
(-0.00424384 0.017984 0)
(-0.00688149 0.0297584 0)
(-0.00741278 0.0319267 0)
(-0.00823128 0.0356086 0)
(-0.00998815 0.0428117 0)
(-0.00945413 0.0402836 0)
(-0.0117051 0.0503679 0)
(-0.0111007 0.0475576 0)
(-0.0105474 0.0449356 0)
(-0.0213831 0.0954192 0)
(-0.0237709 0.105881 0)
(-0.0230654 0.102226 0)
(-0.0228251 0.100384 0)
(-0.0211039 0.0931653 0)
(-0.0176998 0.0940401 0)
(-0.0132766 0.0835327 0)
(-0.00975275 0.0759736 0)
(-0.0220539 0.10385 0)
(-0.0196068 0.0986325 0)
(-0.0225094 0.104135 0)
(-0.0196614 0.0864051 0)
(-0.0201911 0.0888721 0)
(-0.0209375 0.0920551 0)
(-0.0199307 0.0862432 0)
(-0.0192264 0.0828697 0)
(-0.0187166 0.0808233 0)
(0.000817104 0.0439651 0)
(0.00367378 0.0327949 0)
(-0.00151429 0.0512262 0)
(0.00550074 0.0240359 0)
(0.00555744 0.0217382 0)
(0.0047297 0.0205663 0)
(-0.00672335 0.0674023 0)
(-0.0155292 0.0663411 0)
(-0.0145823 0.0624488 0)
(-0.0142656 0.0608404 0)
(-0.0127316 0.0545484 0)
(-0.0140471 0.0591249 0)
(-0.0184023 0.0788859 0)
(-0.0183779 0.0782145 0)
(-0.0174114 0.074267 0)
(-0.0167658 0.0709248 0)
(0.00472137 0.0079877 0)
(0.00325302 0.00642417 0)
(0.00438822 0.00687191 0)
(0.00157982 0.00725479 0)
(0.000756705 0.0068576 0)
(0.00258922 0.00663538 0)
(0.00599078 0.0137148 0)
(0.0059961 0.00817865 0)
(0.000459929 0.00571767 0)
(0.000284751 0.00423666 0)
(0.000485858 0.00597848 0)
(0.000148909 0.00243469 0)
(3.32563e-05 0.000644488 0)
(-0.000363435 0.00154821 0)
(-0.00133549 0.00579114 0)
(-0.00230895 0.00986446 0)
(-0.00516145 0.021752 0)
(-0.00583295 0.0248203 0)
(-0.00675205 0.0289777 0)
(-0.00618703 0.0263963 0)
(-0.00383415 0.016163 0)
(-0.0028151 0.0119105 0)
(-0.00479168 0.0200933 0)
(-0.00789387 0.0335362 0)
(-0.00862716 0.0367512 0)
(-0.00996783 0.0422958 0)
(-0.00932328 0.039366 0)
(-0.0123677 0.0524156 0)
(-0.0118583 0.0498542 0)
(-0.0109283 0.0459032 0)
(-0.022297 0.0975362 0)
(-0.0246403 0.109053 0)
(-0.0245539 0.107405 0)
(-0.0241234 0.105583 0)
(-0.0233178 0.102333 0)
(-0.0235702 0.102014 0)
(-0.0220942 0.0963034 0)
(-0.017672 0.0956426 0)
(-0.0154227 0.0903457 0)
(-0.0113502 0.0820396 0)
(-0.0235448 0.108637 0)
(-0.0218774 0.105659 0)
(-0.0241217 0.108398 0)
(-0.0202219 0.0877305 0)
(-0.021288 0.0920193 0)
(-0.0217205 0.0938949 0)
(-0.0207401 0.0883034 0)
(-0.0201445 0.0855734 0)
(-0.0191092 0.0814094 0)
(0.00232233 0.0416797 0)
(0.00551538 0.0282189 0)
(-0.00212327 0.0554239 0)
(0.00693462 0.0214733 0)
(0.00679739 0.0159403 0)
(0.0058373 0.0166903 0)
(-0.00491607 0.0640026 0)
(-0.0163592 0.0690797 0)
(-0.0153053 0.0649494 0)
(-0.0146143 0.0614307 0)
(-0.0129313 0.0546623 0)
(-0.014288 0.0593207 0)
(-0.0192043 0.0802804 0)
(-0.0182049 0.0763082 0)
(-0.0177607 0.0738912 0)
(0.00568258 0.00648672 0)
(0.00349532 0.00493191 0)
(0.00477344 0.00466896 0)
(0.00126411 0.00663963 0)
(0.000432736 0.00652988 0)
(0.0023044 0.00586743 0)
(0.00709323 0.00942705 0)
(0.00694389 0.00708652 0)
(0.000327275 0.00482478 0)
(0.000184238 0.00313916 0)
(0.000310663 0.00546507 0)
(4.15262e-05 0.00105559 0)
(-0.000797696 0.00335394 0)
(-0.00173196 0.00738923 0)
(-0.00564813 0.023595 0)
(-0.00596791 0.0250481 0)
(-0.00708895 0.0299431 0)
(-0.00673672 0.0283617 0)
(-0.00398479 0.0165089 0)
(-0.00293171 0.0121863 0)
(-0.0049933 0.0206109 0)
(-0.00845973 0.0357823 0)
(-0.00797591 0.0334485 0)
(-0.010536 0.0441132 0)
(-0.00985576 0.0408442 0)
(-0.0124798 0.0522625 0)
(-0.0119493 0.049688 0)
(-0.01149 0.0478034 0)
(-0.0233567 0.100795 0)
(-0.0263441 0.113743 0)
(-0.0261852 0.112017 0)
(-0.0252236 0.108024 0)
(-0.0245982 0.105791 0)
(-0.0247547 0.1056 0)
(-0.022974 0.098341 0)
(-0.0195281 0.10153 0)
(-0.0159354 0.0933768 0)
(-0.0144586 0.0906408 0)
(-0.00964851 0.0791549 0)
(-0.0253673 0.113215 0)
(-0.023526 0.109544 0)
(-0.0223448 0.108058 0)
(-0.0254712 0.112699 0)
(-0.0213597 0.0911196 0)
(-0.0218882 0.0932146 0)
(-0.0227105 0.0969166 0)
(-0.021716 0.0915489 0)
(-0.0208113 0.0879804 0)
(-0.0206716 0.0865102 0)
(-0.0201104 0.0843045 0)
(0.00470371 0.0350035 0)
(0.00031265 0.04957 0)
(0.00617846 0.0285405 0)
(0.00849016 0.0169028 0)
(0.0082416 0.0112918 0)
(-0.00619636 0.0696132 0)
(-0.0170245 0.0706705 0)
(-0.0160526 0.0668549 0)
(-0.0155191 0.0641546 0)
(-0.0136886 0.056966 0)
(-0.0151027 0.0617228 0)
(-0.0200757 0.0830592 0)
(-0.01905 0.0791659 0)
(-0.0183408 0.0760493 0)
(-0.0179044 0.0736252 0)
(0.00610468 0.00430109 0)
(0.00420371 0.00396295 0)
(0.00277399 0.00485981 0)
(0.00559569 0.0034877 0)
(0.00164769 0.0060162 0)
(0.0006175 0.00656959 0)
(9.52644e-05 0.00606003 0)
(0.000342731 0.00655835 0)
(0.00836404 0.00760643 0)
(0.00786491 0.00289071 0)
(0.000259335 0.0047054 0)
(0.000129583 0.00282314 0)
(0.000140994 0.00523654 0)
(1.10384e-05 0.000428659 0)
(7.2507e-05 0.0019462 0)
(-0.00076044 0.00315854 0)
(-0.0015404 0.00649309 0)
(-0.00593636 0.0244238 0)
(-0.00647669 0.0268651 0)
(-0.00761693 0.0318576 0)
(-0.00686493 0.0285166 0)
(-0.00458883 0.0188283 0)
(-0.0035571 0.0146399 0)
(-0.00248447 0.0102479 0)
(-0.00564305 0.0230622 0)
(-0.00890177 0.0370401 0)
(-0.00858471 0.0355691 0)
(-0.010793 0.0446076 0)
(-0.00955937 0.0393771 0)
(-0.0105331 0.0432599 0)
(-0.0132214 0.0544688 0)
(-0.0126902 0.0518732 0)
(-0.0118417 0.0485012 0)
(-0.0243409 0.103102 0)
(-0.0269924 0.1163 0)
(-0.0270399 0.115032 0)
(-0.0268399 0.113251 0)
(-0.0263111 0.111108 0)
(-0.0256482 0.107687 0)
(-0.0240905 0.101719 0)
(-0.0188102 0.101124 0)
(-0.0214142 0.106416 0)
(-0.0163271 0.0975111 0)
(-0.0113254 0.0853069 0)
(-0.02674 0.117394 0)
(-0.025436 0.115189 0)
(-0.0245662 0.114376 0)
(-0.0231561 0.0969362 0)
(-0.0235278 0.0987394 0)
(-0.0227815 0.0943251 0)
(-0.0218501 0.0906505 0)
(-0.0216752 0.0894977 0)
(-0.0205151 0.0849314 0)
(0.00593592 0.0342651 0)
(0.000856754 0.0500574 0)
(0.00867881 0.0213738 0)
(0.00951869 0.0165599 0)
(0.00954679 0.0120115 0)
(0.00952445 0.00944555 0)
(-0.00435369 0.0665027 0)
(-0.0169106 0.0697595 0)
(-0.0161264 0.0664625 0)
(-0.0157542 0.0642087 0)
(-0.013849 0.0568776 0)
(-0.0152942 0.0616763 0)
(-0.0208165 0.0847686 0)
(-0.0199054 0.0812045 0)
(-0.0195087 0.0793947 0)
(-0.0187213 0.0756699 0)
(0.00717292 0.00224743 0)
(0.00429559 0.00240006 0)
(0.0025653 0.0040024 0)
(0.00599013 0.00135397 0)
(0.00119028 0.0056786 0)
(0.000120263 0.00661731 0)
(2.27204e-05 0.00550725 0)
(-0.000273428 0.00628343 0)
(-0.000260041 0.00664523 0)
(0.00949185 0.00306429 0)
(0.00912662 0.000663423 0)
(0.000152356 0.00411874 0)
(0.000115107 0.00336713 0)
(6.32417e-05 0.00440061 0)
(3.0896e-06 0.000751382 0)
(3.28687e-05 0.0020626 0)
(-0.000330283 0.00136109 0)
(-0.00144828 0.00595429 0)
(-0.00187564 0.00778681 0)
(-0.00648717 0.0265596 0)
(-0.00786635 0.0323463 0)
(-0.00745112 0.030559 0)
(-0.00478423 0.0193175 0)