/*--------------------------------*- C++ -*----------------------------------*\
| =========                 |                                                 |
| \\      /  F ield         | OpenFOAM: The Open Source CFD Toolbox           |
|  \\    /   O peration     | Version:  v2012                                 |
|   \\  /    A nd           | Website:  www.openfoam.com                      |
|    \\/     M anipulation  |                                                 |
\*---------------------------------------------------------------------------*/
FoamFile
{
    version     2.0;
    format      ascii;
    class       surfaceScalarField;
    location    "0.46";
    object      meshPhi;
}
// * * * * * * * * * * * * * * * * * * * * * * * * * * * * * * * * * * * * * //

dimensions      [0 3 -1 0 0 0 0];


internalField   nonuniform List<scalar> 
18811
(
0.00461382
0.00145136
0.000256668
0.010999
-0.00534006
0.0128139
0.00923773
-0.00405036
0.0210551
0.00253862
0.0152068
0.0133248
0.00665058
0.0097035
0.01962
0.0142232
-0.00425179
-0.00185406
0.0234421
0.0308302
0.0196147
-0.00342742
-0.0123777
0.0394346
0.0176807
0.00377846
0.00197679
0.0222678
0.017286
0.0101398
0.0301881
0.0217646
0.00573665
0.00662213
0.0149999
0.0334824
0.0212129
-0.0114877
0.0102442
-0.0029558
0.0231986
0.00551383
0.0472076
0.0407482
0.0542524
-0.0159145
0.029505
1.17339e-05
-0.0205558
0.0627704
0.0206156
0.00599668
0.00388931
0.00201906
0.0327997
0.0361968
0.00924613
0.0411811
0.0158102
0.0490186
0.0325092
0.00611631
0.0189191
-0.00660989
0.0179255
0.0550001
-0.0158536
0.0269522
0.0172357
-0.00864003
0.00736563
-0.00166485
0.0394238
-0.00134832
-0.0229722
0.069212
0.0510407
0.0669195
0.0764872
-0.022943
0.0380562
0.00483794
0.000879307
-0.0150181
0.0791116
0.00598064
0.0232875
0.00773932
0.0019452
-0.00183999
0.00285636
0.0239342
0.0257725
0.0644899
0.000897543
0.0611576
0.0134399
0.0647075
0.0278435
0.0602516
0.0360974
0.00896914
0.0281956
-0.0143839
0.0083476
0.0250319
0.0621875
-0.0117739
0.0219934
-0.0165107
0.02798
-0.00768819
0.0132462
0.000386809
-0.00284507
-0.0359518
0.066688
-0.00608978
0.0628938
0.0091336
0.0453974
0.0863769
0.104688
0.0939053
-0.0272058
0.0432998
0.00942649
0.00538628
-0.0122508
0.0827945
0.00594643
0.0100611
0.0268059
0.00269231
-0.000786103
0.00217658
0.0514883
0.0252375
0.0586209
0.0685819
-0.0231396
0.0763676
0.0791898
0.0222681
0.0232732
0.0918746
0.0168878
0.0867807
0.0269813
-0.0237619
0.0429476
0.0172446
-0.00330868
0.108936
0.0164931
-0.00653637
-0.0123576
0.0266449
-0.0162809
0.048771
0.000581531
0.0049506
-0.00124489
-0.0375426
0.0718695
-0.0313829
0.0971917
0.0441302
0.0503738
0.0345882
0.112903
0.0837177
0.0174893
0.0844473
0.115845
-0.0291725
0.0645902
0.00150258
0.0229519
0.00494294
0.0277526
0.0877606
0.00817371
-0.00694578
0.00298286
0.0151076
0.0196821
0.00100194
-0.000758876
0.000649741
0.034397
0.0463711
0.0547001
0.053684
0.0863051
-0.0389772
0.0811738
0.0219181
0.101034
-0.0320094
0.125377
0.114558
0.0798501
0.0466957
0.0342494
-0.0143304
0.0243425
0.0451504
-0.0148988
-0.00211569
0.0890024
0.0648865
0.0289602
-0.00697802
0.0184973
0.00729332
-0.0023361
-0.0123043
0.0316102
-0.0233002
0.0490301
-0.00122454
0.00143827
-0.0134441
0.0668638
-0.0413916
0.103024
0.0516252
0.057473
0.0200092
0.0908343
0.0724074
0.0665022
0.0390666
0.0855479
0.128778
0.121386
-0.0403212
0.0835591
0.0349146
-0.00208049
0.0116251
0.0272357
0.00690836
0.124033
0.00393487
0.0100459
0.0126361
0.052481
0.00224762
0.0462542
0.0214076
0.0527082
0.00801521
0.101987
0.0793462
-0.0422586
0.108649
0.102271
0.0235447
0.0738599
-0.0515091
0.127865
0.117087
0.0548252
0.0841297
0.0732536
0.0572879
0.0509023
-0.0181381
0.0247219
-0.0355237
0.0536266
-0.00295446
-0.00210572
0.0619628
0.0718441
0.00601619
-0.00539843
0.0184642
-0.0109262
0.0264973
-0.0286657
0.0355453
-0.00743833
0.0586176
-0.0236411
0.0827139
0.0936791
0.0275202
0.0828508
0.0674102
0.0297532
0.0824507
0.11148
0.0643442
0.0750939
0.0666063
0.0606226
0.137416
0.162012
0.127358
-0.0401366
0.100839
0.0251849
0.00570312
0.0645094
-0.00476006
0.0276186
0.0073741
0.107602
0.0036326
0.0101929
0.000833388
0.0375626
0.0015919
0.034483
0.04025
0.0353171
0.0526707
0.0213708
0.0795359
0.00179198
0.08576
-0.0317764
0.106489
0.158834
0.182779
-0.0490068
0.132647
0.0967972
0.0499247
0.0346151
0.1391
0.0721221
0.0632851
0.0320108
0.0775775
-0.0139952
0.0258084
-0.0468081
0.0480714
-0.0135386
0.015322
-0.00121256
0.0500608
0.0637667
0.00587391
0.0161025
-0.00361276
0.0198185
-0.0222921
0.0273444
-0.00397031
0.0416945
-0.0125819
0.0564874
-0.0282633
0.0673616
0.0801189
0.0863551
0.0394096
0.0514284
0.0654572
0.0806029
0.0935764
0.0702646
0.128477
0.075664
0.0660573
0.140419
0.129698
0.0172963
0.132972
0.119924
-0.0402644
0.0781571
0.00175387
0.0809383
0.00750751
0.0178752
0.0130675
0.00535642
0.109067
0.00518409
0.000631523
0.023836
0.00594258
0.0224716
0.0325398
0.0317084
0.0422607
0.0284561
0.0160928
0.0673902
0.0417713
0.0487103
0.0970979
-0.0336767
0.104624
0.167255
0.177919
0.157556
-0.0539818
0.126256
0.0422864
0.105749
0.0897172
0.0475662
0.015149
0.125629
0.0709007
0.0545241
0.0717454
0.0127766
0.0792403
0.0518205
-0.0093601
0.0222852
-0.0165957
0.0408691
-0.0336288
0.0526653
0.00205753
0.0332854
0.0799565
0.00794639
0.0124809
-0.0119809
0.0202703
-0.00747279
0.0321879
-0.00737553
0.0426875
-0.013885
0.0479923
0.0612047
-0.034095
0.0657757
0.0256466
0.0450033
0.0782187
0.0419982
0.0590885
0.0561353
0.132775
0.0458222
0.123178
0.0683015
0.0641675
0.101565
0.0842851
0.047914
0.139109
0.128057
0.124675
0.00896827
0.12491
0.0914635
-0.049442
0.0678863
0.0378499
0.0451307
0.0931586
0.0112412
0.012443
0.00762092
-0.00382646
0.0140791
0.0204155
0.0628828
0.00457158
0.0153423
0.0277916
0.0312733
0.0167077
0.0302242
0.0336211
0.0230038
0.0451305
0.0779066
0.0392562
0.0419939
0.0844357
0.0831925
-0.0418682
0.10185
0.00338369
0.138346
0.13758
0.134931
0.140717
0.11753
-0.0574553
0.109281
0.0775465
0.0675945
0.0334254
0.0999932
0.0980008
0.0306408
0.00241558
0.128213
0.0282456
0.0669146
0.0635518
0.00703893
-0.0280054
0.076357
0.0548318
-0.0122337
0.0292622
-0.0202224
0.0370929
-0.0381857
0.0504344
0.00112957
0.00742929
0.0944001
0.00776936
-0.00488419
0.0230114
-0.00277732
0.0329389
0.0374608
-0.00387576
0.0569807
0.0587793
0.00362886
0.0438465
0.0266955
0.0541691
0.071256
0.0390376
0.048076
0.0351125
0.0510874
0.0479706
0.0767461
0.0675712
0.032293
0.110408
0.05485
0.0879184
0.0172317
0.130596
0.141187
0.0654888
0.0472549
0.115768
-0.0402518
0.112765
0.107191
0.061896
0.101017
0.0577915
0.075507
0.0383541
-0.0475488
0.0575829
0.0189145
0.0592777
0.0754181
0.0131974
0.00236653
0.00628948
0.00601664
-0.00730956
0.0202696
0.0207209
0.0760438
0.00612885
0.0230414
0.0319225
0.0464334
0.0141378
0.0107934
0.0499896
0.0530481
0.0565683
-0.00175878
0.0578835
0.0331796
0.0402803
0.0744879
0.086143
0.0739037
-0.0408651
0.0908345
-0.027967
0.110301
0.127866
0.101183
0.0883718
-0.0349668
0.129821
0.102099
0.0492084
0.098455
-0.0559174
0.105136
0.0549673
0.0647998
0.044574
0.0717228
0.0244689
0.0856328
-0.0343237
0.0987168
0.0693069
0.112013
-0.0261058
0.104905
-0.0244535
0.0643275
0.0344131
0.013702
0.0460449
0.0358435
0.030113
-0.0127248
0.0362881
-0.0349778
0.0448401
0.00537945
0.0127876
0.041474
0.0358579
0.00937822
0.0209454
0.00454383
-0.00341787
0.0374678
-0.0291258
0.0463703
0.0501132
0.0195485
0.0361895
0.0186076
0.0397135
0.0268679
0.0327379
0.0691584
0.0450211
0.0316745
0.0260261
0.0620874
0.003843
0.0720683
0.0361713
-0.0111794
0.127491
0.123188
0.0337127
0.0718905
0.126386
0.104347
0.0318577
0.0115497
0.0959285
0.115726
0.0508012
0.0564074
0.102874
0.0919858
-0.00159833
0.0756284
0.0621603
0.0784099
0.0229558
0.00666957
0.0651246
0.0448496
0.0707536
0.0493444
0.0586468
0.052083
0.0124433
0.0452505
-0.00994453
0.0668963
0.082802
0.00502737
0.0452638
0.00151242
0.0115884
-0.00114181
-0.00989013
0.027914
0.0464226
0.0441219
0.00843472
0.00420281
0.0191395
0.015224
0.0107211
0.0344714
0.0144976
0.0153565
0.0365519
0.0569389
0.0567704
0.0570417
0.0711437
0.033224
0.037482
0.0729462
0.0666349
0.00616819
0.0578737
0.0806266
-0.0372141
0.0739055
-0.00138616
0.135288
0.0106427
0.118483
0.125632
0.131554
0.120656
0.133226
0.0186748
0.101151
0.0781283
-0.0217961
0.0637507
0.0413011
0.0272297
0.0671005
0.0793362
0.0301523
0.0473419
0.0914453
0.0902112
0.0971725
0.092646
-0.0339329
0.0949482
0.0582927
0.0365932
0.0496276
0.0159164
0.045455
-0.0241048
0.0332575
-0.0314238
0.0350457
0.00530346
0.00354621
0.00760896
0.0920059
0.00696858
-0.00353521
0.0244896
0.0138088
0.0375558
-0.0252472
0.0422383
0.045062
0.014123
0.0062868
0.0525002
0.0652247
0.0185547
0.0546795
0.0574555
0.0169028
0.057742
0.0016099
0.0665989
0.0763358
0.0612781
0.0215624
0.0724724
0.00060862
0.0342429
0.107348
0.0614658
0.0620312
0.0570897
0.0723731
0.0472275
0.0893486
0.0524539
0.0731167
0.0439569
0.0943328
0.0372904
0.0667975
0.0054394
0.0717632
0.0505189
0.00330204
0.0622216
0.073162
0.0723654
0.0508243
0.0307234
0.100259
0.0598263
0.0655986
0.0271749
0.0524409
0.0475495
0.0306239
0.0640457
0.0441804
0.0529326
0.0354791
0.0210024
-0.012529
0.0501913
0.00860218
0.0402439
0.0505512
0.0530929
0.00441331
0.0339603
0.00237966
-0.00708589
0.0162884
0.000323871
-0.010963
0.0215135
0.0477139
0.046546
0.00548398
0.00432318
0.0222118
0.0150748
0.0328013
0.0120483
0.00242299
0.0452516
0.0492017
0.0576695
0.00731321
0.0603232
0.0640912
0.0605271
-0.00863372
0.06809
0.059703
0.0242879
0.0540798
0.0877507
0.071103
0.0531925
0.100195
0.0356308
0.0777564
0.118461
0.107891
-0.0107763
0.0840423
0.131286
-0.0203059
0.0970066
0.0842532
0.077117
-0.00288177
0.0718665
-0.0506692
0.0553642
0.0617821
-0.00155495
0.000996135
0.0628113
0.0760999
0.0341952
0.0401243
0.0989495
0.0258241
0.0769868
0.0963786
0.0758736
0.0851491
0.0940829
0.0632208
-0.0255957
0.0801586
-0.0274048
0.0478397
0.0220564
0.0218365
-0.00973297
0.0480659
0.0385458
-0.0247593
0.0322893
-0.0239461
0.0276731
0.00845237
0.00556777
-0.000524783
0.00721113
0.0127001
0.0122548
0.0302762
-0.0175361
0.0314864
-0.0175701
0.0651085
0.0339418
-0.00562102
0.0652367
0.0563141
0.0029786
0.0631029
0.0652983
0.0260269
0.0436407
0.0136559
0.0476161
0.0819665
0.0242084
0.0653786
0.00251965
0.070778
0.0505565
0.000500339
0.0588161
0.0457467
0.141599
0.0481097
0.0738609
0.0627482
0.048834
0.0308216
0.055174
0.0258563
0.110009
0.0282415
0.0711823
0.0179978
0.0685146
0.0618807
0.0181534
0.0921033
0.0517036
0.000948185
0.00124108
0.0592091
0.0475972
0.105095
0.104354
0.0820321
0.0190135
-0.0122598
0.0915979
0.0726673
0.0806669
0.0193451
0.0673754
0.0708396
0.0253466
0.0840625
0.0483265
0.0331206
0.0333732
0.0120859
-0.0185934
0.0416244
-0.0144639
0.0363838
0.0466321
-0.00102702
0.0370907
0.0104711
0.00997825
0.0150288
-0.00356345
0.00956948
0.000134556
0.0170085
0.00543186
0.00476226
0.0203701
0.0144703
0.0340752
-0.0012287
0.0451584
0.0221916
-0.0184275
0.0551904
0.0415149
0.0255627
0.00598371
0.0522517
0.0712087
0.0811207
0.0929613
0.0163774
0.0677417
0.0971332
0.0836652
0.0972524
0.0903455
0.0573199
-0.00370537
0.0805622
0.0919214
0.0816155
-0.00610317
0.0614529
0.0448213
0.0689284
0.0924031
0.0702214
0.0898036
0.0658909
0.0281553
0.0514412
-0.0410968
0.0398162
0.0533247
0.00366805
0.0591122
0.0483008
0.0341008
0.07284
0.0719301
0.101986
0.0209541
0.0727612
0.0537441
0.0209148
0.00628836
0.0628847
0.0792772
0.0752119
0.0543877
0.0316961
0.0882777
0.0305066
-0.0251585
0.0363484
0.0270647
0.010357
0.0333504
0.00996058
0.0232686
0.0111431
-0.0145606
0.027413
-0.0168056
0.0280556
0.00951021
0.00390821
0.0244217
-0.00454647
0.00783386
0.00808973
0.0148663
0.0243733
0.0177554
0.02447
-0.0112533
0.0583727
0.065831
0.0462828
0.079622
-0.00752644
0.0808515
0.0755705
0.0316068
0.063411
0.101482
0.0182268
0.0812881
0.104273
-0.00327462
0.103649
0.0041314
0.0908827
-0.0372571
0.098212
0.07979
0.0510425
0.0452192
0.0375489
0.046021
0.0154969
0.0471567
0.0989784
0.0768057
0.0107099
0.0846941
0.0834147
0.000563514
0.0917587
0.0683299
0.0845153
0.0152254
0.0332999
0.0442131
-0.0080514
0.00899282
0.0434798
0.0348059
0.0822833
0.0844513
0.0959171
-0.0193807
0.0929748
0.0847169
-0.0150925
0.0897611
0.0963887
0.074673
0.00654317
-0.0032078
0.0799763
0.0868909
0.0188145
0.00948247
0.0206032
0.0134065
0.0294457
-0.00173856
0.0397265
0.0307893
0.02822
0.012178
0.0118472
0.0343892
-0.00489266
0.0122868
-0.000401606
0.00676585
0.00044294
0.0097334
0.00445836
0.00701823
0.0222798
-0.0234993
0.0433714
0.002665
0.0422406
0.0175352
0.0401866
0.0276284
0.00270624
0.0458374
0.0445604
0.0371319
0.0290574
0.0534196
0.0129912
0.0642642
0.0781249
0.056067
0.0475468
-0.0104455
0.0941407
0.0235399
0.0826164
0.0699583
0.0765764
0.017904
0.0568777
0.0441277
-5.9325e-05
0.0823171
0.0853479
0.0626462
-0.00726487
0.0544597
0.00533557
0.0970976
0.0848166
0.0637939
0.0227764
0.085938
0.0341623
0.0600897
-0.0168336
0.0868297
0.0694646
-0.0195147
0.0326302
0.0412333
0.0230833
-0.0254332
0.0153218
0.0362716
0.0066826
-0.0165282
0.101016
0.0700374
0.0304374
0.0672684
0.0799644
0.0762397
0.0156959
0.0760706
0.0169022
0.0817626
0.0937123
0.0886518
0.000942827
0.0882633
0.0283696
-0.0166193
0.0293188
0.0334636
0.02221
0.0181902
0.0096844
0.0169372
0.00768149
0.0234679
-0.00905606
0.0248005
-0.0113736
0.0210829
0.00882341
0.00371239
0.0179852
-0.00618607
0.0107906
0.0274992
0.0378025
0.00790216
0.00104084
0.04255
0.0592441
0.0741354
0.0430323
0.0486198
0.067881
-0.0123864
0.0674423
0.0533851
0.0391574
0.0404857
0.0813294
0.088474
0.0291655
0.0668744
0.0301708
0.0543089
-0.0154101
0.0877909
-0.00857745
0.0883378
0.0775889
-0.0348526
0.0810632
0.0692156
-0.00436928
0.0922523
0.0602026
0.00911614
0.046538
0.0569427
0.0433139
0.0793608
0.0113831
0.0537854
0.0585869
0.021577
0.0662335
-0.0200918
0.0822206
0.0690928
-0.00642684
0.077676
0.0314128
-0.00155375
0.0113788
0.0284299
0.0220564
-0.00126089
0.0244225
-0.0109289
0.0466363
0.0227737
0.104794
0.102518
0.0847
-0.0122461
0.0940722
0.065594
-0.0168567
0.0948247
0.0772295
0.0698931
0.0258777
0.00579822
0.0852199
0.0965853
0.011946
0.0141985
0.00996575
0.0184324
0.0391317
-0.00306976
-0.0055759
0.0287415
0.0239253
0.0177295
0.0138868
0.0112076
0.03786
-0.0143105
0.00469108
0.00536969
0.00142904
0.00616351
0.00818287
0.0199393
0.00986006
0.0296974
-0.0119973
0.0558347
0.0485447
0.0201329
0.0554088
0.037908
0.00718716
0.0107575
0.039377
0.0184119
0.0509663
0.0875125
0.0954506
0.0344768
0.0479853
0.0348375
0.055611
0.0964068
0.0993292
0.0901146
0.0550793
0.0592594
0.0317673
0.0684076
0.0109471
0.0417205
0.0408633
-0.00633522
0.0773957
0.0348574
0.0608837
0.0707605
-0.0129818
0.0591581
-0.0156117
0.0749034
0.0811689
0.0663204
0.0711954
0.0771821
0.0615255
0.00549661
0.0785043
-0.0252253
0.0963971
0.0541349
0.00378899
0.0260822
0.0184007
0.0306466
-0.0240828
0.0200564
-0.003429
0.0098005
0.0332249
0.0879025
0.019416
0.0116944
0.093162
0.0985022
0.0792129
0.00924674
0.0875286
0.0333171
0.0457001
0.105562
0.1136
0.00420305
0.0943042
-0.0016306
0.0146288
-0.00945724
0.0195278
0.0158155
0.0343858
0.0371475
0.0193298
0.0098319
0.0105886
-0.00204171
0.0176141
0.0205601
-0.00515723
0.0197614
-0.00615088
0.00809106
0.0129415
0.00470424
0.00979554
0.0205598
0.0327507
-0.00108001
0.0180745
0.0389653
-0.00882009
0.0588584
0.0725
0.0478086
0.0505628
0.042458
0.058838
0.0211202
0.0679517
0.04291
0.0543751
0.0843244
0.100447
0.0190451
0.0792586
0.0215704
0.0797009
0.0116475
0.079835
-0.0195916
0.0763764
-0.00480357
0.0659205
-0.0367701
0.0706885
0.0333598
0.0538617
-0.0166199
0.0587512
0.0596051
-0.0105696
0.073166
0.0620603
0.0260049
0.033971
0.0422152
0.0349286
0.0272451
0.0563789
0.0634196
0.0783332
0.020133
0.0586355
0.0831367
0.0490102
0.0311937
0.0429927
0.0552045
0.101614
0.00910585
0.0155777
-0.00726288
0.0225598
0.0114637
0.0178502
0.00934739
-0.0171726
0.0107821
0.0434007
0.0940131
0.115513
0.109897
0.100101
-0.0202244
0.109739
0.0855641
0.022157
0.0651639
0.0505484
0.0391517
0.0573379
0.0111973
0.0135692
0.00623357
0.00345755
0.0119353
0.0214921
0.0156048
0.00644763
0.03414
0.0149268
0.00553366
-0.00800962
0.0153562
0.00688552
0.0163201
0.00964348
-0.0132697
0.0228418
0.000756311
0.00648593
0.00987515
0.00247408
0.0216047
-0.0141272
0.0541333
0.0457241
0.0153362
0.0584517
0.0642323
0.0374977
0.0148391
0.0306038
0.0141684
0.0222726
0.0378879
0.0769595
0.0128574
0.0565048
0.0974357
0.0450581
0.0573116
0.102697
-0.00191056
0.0831701
0.0794951
0.0615249
0.0385728
0.0293024
0.039399
0.0330615
-0.0505808
0.0855097
0.00464032
0.0649196
-0.0147617
0.0759877
0.0324955
0.0426754
0.0313951
0.0325879
0.0584158
-0.0112775
0.0446901
-0.0238633
0.0679804
0.0641468
0.00635498
0.0517925
0.0415076
0.0342502
0.046047
0.0950677
0.0702736
0.09682
0.0759201
-0.0251566
0.0820789
0.0789237
-0.0132058
0.0193468
0.0320012
0.00571353
0.0103729
-0.00439522
-0.00778955
0.0147169
0.0309195
0.0606238
0.0351376
0.0570533
0.0604723
0.0305169
0.0817974
0.0818001
0.0290523
0.0827675
0.00676204
0.080535
0.0891209
0.0917419
0.119984
-0.000662315
0.0109595
0.0170496
0.0217417
0.010748
0.0283195
-0.0166093
0.0348482
-0.0209143
0.0297629
0.0204897
0.00428288
-0.00692122
0.0119927
0.00460704
-0.00158629
0.013521
0.0335885
-0.00861685
0.00277656
0.00680673
0.00332184
0.00942781
0.026267
0.035965
0.0193231
-0.00643181
0.0532214
0.0729816
0.0589893
0.0614473
0.0473831
-0.0187174
0.0353747
0.0754511
0.0257704
0.0523946
0.0835548
0.0347152
0.0641581
0.0992643
0.0936515
0.0281783
0.0764214
0.0322247
0.0523786
0.0203347
0.0603431
-0.0107936
0.0740136
0.0819352
0.0706341
-0.0294705
0.0639055
0.0576981
-0.0132235
0.0797019
0.0670262
0.0664707
0.0506455
0.0294892
0.0307243
0.0150444
0.0300003
0.0498698
0.019692
0.0307116
0.0353731
0.0181278
0.0353149
0.00966822
0.0876214
0.0817539
0.0771107
0.0219061
0.00785322
0.0695799
0.0916839
0.0874799
0.00382036
0.0124821
0.00887861
0.0215062
-0.00853388
0.0112262
-0.00060575
-0.0115737
0.00455557
-0.000868549
-0.00062543
0.0290531
0.0939447
0.0929471
0.112928
0.111922
-0.0250554
0.109629
0.0562469
0.0257313
0.0106735
0.0803287
0.104512
0.0835283
0.0386545
0.00260322
0.00779603
0.00972944
0.0117244
0.0119895
0.00751398
0.00287129
0.0162778
0.0147751
0.0155554
0.0220662
0.0158541
0.0126606
0.019717
0.0353908
-0.00704071
0.00867626
0.00265115
-0.0110333
0.01744
0.00430733
0.0105311
0.000732159
0.00346071
0.00726053
0.00110634
0.00664805
-0.00977212
0.0211925
0.0737399
0.0153468
0.0589368
0.0757584
0.040838
0.0220738
0.0347214
0.0145872
0.0257993
0.011312
0.0228532
0.0540552
0.027949
0.0568671
0.0858119
0.0243268
0.0761567
0.000336216
0.094848
0.110483
0.11421
0.0622176
0.0470421
0.0367433
0.0115546
0.0609521
0.0529906
0.0122109
0.0534851
0.00570698
0.0539313
0.0271078
-0.00699713
0.0757435
0.0482634
0.0198047
0.0224261
0.0299405
0.0450324
-0.0160916
0.047978
0.00129268
0.0286692
0.0140565
0.0371598
0.0517301
0.0552524
0.0593182
0.0118297
0.0780449
0.0767184
0.0913328
0.0934711
0.0252119
0.0686389
0.0312031
0.057615
-0.00922303
0.0099036
0.0188543
0.0188485
-0.00129127
-0.00803586
0.00508589
-0.0059667
-0.00798602
0.00485508
0.0301237
0.00352835
0.0925125
0.0986624
0.0296501
0.0852299
0.0887706
0.027927
0.0834308
0.0886989
0.108078
0.0158603
0.090591
0.101425
0.133647
0.00978116
0.0208698
0.0129273
0.030352
0.0326126
-0.00860259
0.034213
-0.0114503
0.0294122
-0.0143888
0.036585
0.0318642
-0.00168321
-0.00559983
0.00652844
0.0131329
0.0237267
-0.0111049
0.00205346
0.00603168
0.00664689
0.00231958
0.0159984
0.00747437
-0.0118073
0.0871423
0.0882813
0.0651761
0.0651973
0.058481
0.0423579
0.0292092
-0.0211444
0.076562
0.0823475
0.0874686
0.0118067
0.0656812
0.108527
0.0150656
0.0971315
0.0304723
0.0853777
0.0609847
0.00304113
-0.00520529
0.0538269
0.0522174
0.0661661
0.0576031
0.0669414
0.061228
0.0894873
0.0810876
0.0332941
0.0510387
0.00805293
0.0384069
0.0436802
0.00581019
0.037816
-0.0176806
0.0560149
0.0353193
0.0170085
0.0397785
0.0113856
0.0497641
-0.000185317
0.0798568
0.0781117
0.0792027
0.014359
0.0262279
0.0688965
0.0848028
0.0966207
0.0104511
-0.00419528
0.00415333
0.0129756
0.0211069
-0.00773067
0.00373266
-0.00539473
-0.00663677
-0.00108563
-0.00358103
0.0193838
0.00989062
0.13063
0.114922
0.105366
-0.0234829
0.108638
0.0277588
0.0626816
0.0424096
0.0672643
0.0229178
0.0698338
0.0500694
0.0528092
0.0440118
0.0914471
0.00941433
-0.00043674
0.0180845
0.00473915
0.00702484
0.00663767
0.0169979
0.0173251
0.0186353
0.017429
0.0565709
0.0148853
0.0177032
0.0155903
0.023703
0.0507404
-0.00805408
0.00460743
0.0032172
-0.00296023
0.00396932
0.00059151
0.0027486
0.0079623
0.0163841
0.00534217
0.0672375
0.0300634
0.0595403
0.0967228
0.000118903
0.0663394
0.05996
-0.0124255
0.0571035
0.018762
0.0341866
0.0436815
0.0348368
0.0486536
0.119648
0.101735
0.0380838
0.0717609
0.00700088
0.091528
0.0938165
-0.00793679
0.0631651
0.0455004
0.0121241
0.0553526
-0.00401938
0.0635495
0.055814
0.0126154
-0.00149419
0.0640378
0.0899167
-0.0257229
0.10908
-0.00820049
0.0427231
0.0445099
-0.00620052
0.0463092
0.0390573
0.049851
0.00331421
0.0353227
0.0169687
0.0407413
0.0536945
0.0526618
0.00616686
0.045318
0.0296261
0.0520358
0.0539972
0.111334
0.085228
0.114482
0.0225946
0.076008
0.00179121
0.005262
-0.0066338
0.000305687
0.0119562
0.0117041
0.00765694
-0.00525142
0.000991427
-0.0088502
0.00357933
-0.00625808
-0.00825808
0.00323257
0.0232128
0.0206007
0.0744196
0.0583248
0.0467019
0.0698936
0.0836727
0.0168839
0.0930879
0.106793
0.0921821
0.121732
0.098253
0.0246625
0.0683979
0.00722785
0.00542357
0.0152176
0.0129798
0.0248515
0.0378745
0.0515283
0.0108423
0.0223242
-0.00545756
-0.0102291
0.0298866
-0.0111389
0.0371479
0.00131162
0.0523551
-0.00521996
0.00545979
-0.00268256
-0.00807179
0.00411413
0.0139459
0.00422691
-0.000164983
0.0191458
0.00794294
-0.014238
0.0828905
0.109734
0.084002
0.102552
-0.00859118
0.0705706
0.0505235
0.0414808
0.128369
0.0648513
0.0562631
0.0191793
0.0841778
0.104378
0.0922796
0.0274298
0.0652209
0.0520739
0.0428283
0.0104763
0.0540601
0.0641909
0.0693025
0.0531305
0.075712
0.0783288
0.0685475
0.0237706
0.064592
0.0469212
0.0524901
0.022143
0.0257675
-0.000362512
0.0408872
0.0382162
0.013318
0.00983266
0.0266068
-0.0182119
0.0602924
0.0366593
0.010086
0.044207
0.00500073
0.0414518
0.107786
0.0678158
0.0453314
0.109778
0.0195033
0.0970197
0.097391
-0.00604583
0.00796159
0.00553501
-0.00779505
0.0170234
-0.00834035
0.000953502
-0.00972838
-0.00702608
-0.00413134
0.0010369
0.0225689
0.0221094
0.10116
0.10671
0.0878902
0.112582
0.0412839
0.0526833
0.0171271
0.0910257
0.110727
0.0904403
0.0329178
0.0330275
0.0665608
0.102712
0.00587201
0.00250603
0.0170061
0.000527567
0.00392989
0.0110043
0.00375374
0.0244305
0.0360687
0.00758598
0.0255199
0.0309292
0.0509774
0.0141155
-0.0126584
0.00867604
0.0215402
0.0409832
0.0279772
0.0290628
-0.0101579
0.00348505
-0.00289579
-0.00540079
0.00375041
-0.006945
0.00276982
0.00375455
0.00174705
0.0128174
0.0688607
0.0423324
0.155018
0.0426993
0.06098
0.0409315
0.030384
0.0387774
0.0134048
0.029164
0.0147477
0.0734376
0.0564513
0.109647
0.128165
0.032681
0.0728669
0.126372
0.109112
0.000968434
0.0545779
0.0669436
0.0372327
0.0334657
0.0919829
0.0133645
0.064068
0.0214163
0.0589053
0.0922047
0.0909232
-0.0364141
0.0848984
0.0247239
0.0290869
0.0329228
-0.00975897
0.0367984
0.0391893
0.0325881
0.0392579
0.00171307
0.0253968
0.0498312
0.0119758
0.048077
0.0504419
0.0123992
0.0303453
0.0732465
-0.00264512
0.0723032
-0.0285614
0.0753192
0.083168
0.0480726
0.0502349
0.0331705
0.0658141
-0.00322305
0.0058797
-0.000273748
-0.00891245
0.00290244
0.0117632
-0.003161
-0.00873533
-0.00573202
-0.00276145
-0.0115853
0.024777
0.000629743
0.019768
0.0647909
0.0377342
0.0536723
0.0542169
0.043807
0.045221
0.0517558
0.0621507
0.0941833
0.0974264
0.0262585
0.0663822
0.0280395
0.0843317
0.0155382
0.0768961
0.100873
0.038324
0.0657708
0.00129648
0.00792246
0.0234721
0.0142221
0.0363155
0.058785
-0.0332493
0.0689021
0.0238287
-0.0068255
0.0222692
0.0153887
-0.00558437
-0.010129
0.0333335
0.025518
0.0179752
0.0570059
-0.00946959
-0.00667241
0.00376392
-0.00230234
-0.0101606
0.00248477
0.00761911
0.00250923
0.00908211
0.00719803
0.0621968
0.0944225
0.0850257
0.13598
0.0702917
0.0446644
0.026704
0.120466
0.0765312
0.0345444
-0.0227086
0.152754
0.151356
0.105236
0.0401445
0.0700957
0.0693346
0.0140917
0.0548814
0.0942978
0.0284859
0.0656193
0.00227781
0.063802
0.0209188
0.0733353
0.063026
0.0297931
0.0621117
0.0243565
0.0426561
0.0224686
0.0115955
0.01581
0.0218795
0.00303328
0.0374724
-0.00116233
0.0350028
0.00423045
0.036217
0.00882696
0.0172811
0.0658162
0.0614075
0.0188355
0.0326773
0.0501737
0.0724754
-0.0245682
0.0983673
0.0519479
0.0311489
0.0537695
0.0823656
0.0779305
0.0991521
-0.00892986
0.00331775
0.006386
-0.00710429
0.00457216
-0.00923679
-0.00260385
0.0110835
-0.0148365
-0.0138771
0.00487857
0.0203227
0.00775516
0.0119395
0.104607
0.0926838
0.100655
0.103469
0.0195189
0.0757242
0.11813
0.0956374
0.102039
-0.0512585
0.129887
0.0511177
0.11851
-0.00184434
0.00521389
0.00781822
-0.00242921
0.0300872
-0.000268193
0.017589
-0.0074282
0.0495836
0.0238063
0.0388247
0.031523
0.0413015
-0.0249181
0.0537542
0.00984419
0.0135687
0.00291774
0.0225781
0.0122897
0.0427311
0.0197883
0.0405133
-0.0117946
0.000836842
-0.00644084
-0.00489027
0.00375045
-0.00998674
0.00621639
0.0116404
-0.0138481
0.109471
-0.0126236
0.0987097
0.0957442
0.0397896
0.0584384
-0.00449577
0.0505854
0.0233818
-0.00212125
0.12315
0.105818
0.140363
0.0565323
0.0962615
0.163631
0.0132511
0.0581401
0.0700212
0.038748
0.0572705
0.0686181
0.0700853
0.0116771
0.0534958
0.0858469
0.00429049
0.0709475
0.0938148
0.0984726
0.0482021
0.0321208
0.0282094
-0.00438071
0.0270324
0.0405148
0.0376366
0.0316809
0.0224404
0.0134259
0.0542756
0.0134426
0.0500793
0.0475493
0.011157
0.0403777
0.0537342
0.0465327
0.107237
0.00029747
0.0833087
0.0794247
0.0101197
0.0910201
-0.00786153
-0.00306947
-0.00574859
-0.00233739
0.00695679
0.000295687
-0.0130714
0.000566826
0.00932417
-0.00858602
-0.00785813
-0.012864
-0.00309695
0.00933907
0.0110773
0.0171181
-0.00200381
0.0134603
0.0787167
0.0274916
0.00638867
0.0873804
0.108339
0.0618273
0.0427692
0.139129
0.00174565
0.118318
0.0139965
0.0831647
0.00413125
0.0993821
0.0855323
0.0459506
0.0334125
0.0864461
0.00331491
0.00407704
0.0106221
0.018949
0.0271768
0.0295727
0.0584954
0.0614688
-0.0127075
0.0584307
0.0662026
-0.00700726
-0.00367905
0.0142687
-0.00633386
0.0207943
-0.0111734
0.0243704
0.00834992
0.03536
-0.00779697
0.0497608
-0.0134434
-0.00910965
0.00283663
0.000808241
-0.0044414
-0.0126776
0.00210025
0.00348879
0.00247141
0.0112645
0.107874
0.00718344
0.0910903
0.102834
0.163279
-0.0155105
0.074851
0.0354456
0.0275789
0.149995
0.0839824
0.0572542
-0.0537941
0.151882
0.15827
0.00686187
0.0714105
0.00699385
0.0651123
0.0631357
0.00913672
0.0610976
0.0151613
0.0563037
0.00276584
0.052208
0.0281971
0.0593018
0.0108369
0.0613445
0.0582359
0.0373808
0.0459269
0.0544424
0.0081397
0.0416924
0.0157581
0.0171969
0.00172236
0.0270887
0.0293279
0.00464755
0.0374634
0.00553656
0.0331751
-0.00300478
0.0360578
0.0114671
0.0117085
0.0652841
0.0630562
0.0600898
0.0501172
-0.0281928
0.0832504
0.094417
0.0807023
0.0952966
0.0948631
-0.0150266
0.108095
0.00754832
-0.0124289
-0.000472368
0.00607736
-0.00507056
0.00366563
-0.0135829
-0.00133654
0.00689023
-0.0131131
0.00345997
-0.0129075
0.0228743
0.00216778
0.0152051
0.00197136
0.0113777
0.113581
0.116631
0.111818
0.0286858
0.1123
0.148875
0.0885487
0.0451394
0.0555818
0.000116125
0.0867219
0.0924969
0.0879223
0.00211341
0.00568146
0.016611
-0.00542591
0.029174
-0.0117618
0.0445035
0.0591078
-0.0235947
0.00100762
0.0609641
0.0123825
0.0513941
0.0580344
0.0622618
0.0567518
0.00881125
0.0104063
0.0222995
0.00243384
0.0315319
0.0288879
0.00868982
0.0421505
-0.0103549
-0.00380351
-0.00966728
-0.000217611
0.00327231
-0.008055
0.00481334
-0.00860285
0.00387452
0.00954778
0.00383739
0.193256
0.0494193
0.0405116
0.0471235
0.0536148
0.0929022
0.068575
0.034816
0.0383028
-0.0124458
0.0491408
0.0159795
0.0977835
0.217605
0.160217
0.026341
0.0467153
0.0122665
0.0544363
0.0738688
0.0778745
0.0607348
0.0800946
0.0881411
0.07145
0.00931941
0.0533348
0.0935289
0.0480533
0.0281819
-0.0121934
0.03046
0.0160188
0.00576373
0.0245874
0.0442378
0.0314842
0.0431072
0.0271193
0.0397579
0.0100044
0.0548597
0.0222139
0.0397031
0.0120922
0.0395766
0.0398479
0.0451484
0.0473486
0.0484368
0.0670696
-0.0133747
0.110491
0.0830967
0.0625535
0.046771
-0.00819311
-0.00573721
0.0059948
-0.00827108
0.00334753
0.00187426
-0.00047105
0.0038363
-0.00126635
-0.0115586
-0.0106163
0.00943215
0.00188457
-0.0162527
-0.0118991
0.0253401
0.0170905
0.00301683
0.00823222
0.0212053
0.0937029
0.01164
0.106341
0.124971
0.21236
-0.0710117
0.222693
0.0679446
0.0220324
0.124964
-0.0169177
0.105035
0.0768671
0.110303
-0.000331986
0.00873504
0.0161498
0.0226089
0.0270785
0.0756442
0.0610765
0.0772443
-0.014103
-0.0181239
0.0839578
0.072868
-0.00925203
-0.0013553
0.0104561
0.015615
-0.00484852
0.0184421
0.0113466
0.0203064
0.0404341
-0.0103323
0.0522183
0.00685859
-0.0112904
-0.00934288
1.6704e-05
0.00193905
-0.00240348
-0.00357412
0.00817452
-0.017136
0.00284004
0.0268872
0.00719672
0.111306
0.0803507
0.0952985
0.0741121
0.144961
0.178904
-0.0159507
0.0538805
0.0325401
0.120626
0.0966213
-0.0671602
0.229939
0.0605541
0.00875192
0.0474119
0.0849734
0.0253792
0.0540995
0.0876816
0.0427162
0.0392874
0.0448451
0.044856
0.0309041
0.0417742
0.0855
0.0430785
0.0521819
0.00479268
0.0447407
0.00178316
0.0273809
0.0332107
0.0417548
0.0184612
0.0273136
0.0514481
0.0299824
0.0150799
0.0508255
0.0511144
0.0655219
0.053316
0.0457177
0.108576
0.0940929
0.0931106
0.0306341
0.0815929
0.106768
-0.00693518
0.070405
0.0786217
0.00336438
-0.0105097
-0.00948471
-0.000407739
0.00441683
0.00463647
-0.0061212
0.002315
-0.0146783
0.00162795
0.000484683
-0.012195
0.00528976
0.00359473
-0.0100057
0.00245326
-0.0155926
0.0179876
0.00797891
0.00619273
0.0111139
0.0079324
0.0144721
-0.0208241
0.116
0.0867851
0.055551
0.147251
0.0757204
0.149048
0.0400859
0.0862228
-0.0154231
0.121944
0.118378
0.0962483
-0.000179052
0.0126903
-0.0041349
0.0258454
-0.0144128
0.0429092