/*--------------------------------*- C++ -*----------------------------------*\
| =========                 |                                                 |
| \\      /  F ield         | OpenFOAM: The Open Source CFD Toolbox           |
|  \\    /   O peration     | Version:  v2012                                 |
|   \\  /    A nd           | Website:  www.openfoam.com                      |
|    \\/     M anipulation  |                                                 |
\*---------------------------------------------------------------------------*/
FoamFile
{
    version     2.0;
    format      ascii;
    class       volVectorField;
    location    "1.09";
    object      cellDisplacement;
}
// * * * * * * * * * * * * * * * * * * * * * * * * * * * * * * * * * * * * * //

dimensions      [0 1 0 0 0 0 0];


internalField   nonuniform List<vector> 
11961
(
(-0.00134834 0.00285461 0)
(-0.00323526 0.0068686 0)
(-0.00300335 0.0063369 0)
(-0.00202154 0.0043137 0)
(-0.00610449 0.0129393 0)
(-0.00161164 0.00339037 0)
(-0.00576141 0.0121612 0)
(-0.00506311 0.0108229 0)
(-0.00889061 0.0188712 0)
(-0.00291374 0.00611293 0)
(-0.00787498 0.0165948 0)
(-0.00928637 0.0197876 0)
(-0.00537465 0.0115305 0)
(-0.0118166 0.0250108 0)
(-0.00579729 0.0121601 0)
(-0.0012904 0.00270096 0)
(-0.00794816 0.0167011 0)
(-0.0110785 0.0233716 0)
(-0.0129019 0.0275337 0)
(-0.00987545 0.02122 0)
(-0.00221743 0.0047729 0)
(-0.0153311 0.0324815 0)
(-0.00636283 0.0133099 0)
(-0.00228481 0.00477234 0)
(-0.0110436 0.0231798 0)
(-0.0130723 0.0274989 0)
(-0.0133095 0.0285309 0)
(-0.0161937 0.0344552 0)
(-0.00984356 0.021252 0)
(-0.00541686 0.0117072 0)
(-0.017832 0.0376563 0)
(-0.00871783 0.0182233 0)
(-0.00452964 0.00946021 0)
(-0.000963978 0.00201007 0)
(-0.0112585 0.0235671 0)
(-0.0162238 0.0341285 0)
(-0.0174135 0.0374108 0)
(-0.0201764 0.0429941 0)
(-0.0134585 0.0291358 0)
(-0.0046859 0.0101765 0)
(-0.0215104 0.0454575 0)
(-0.00880203 0.0183574 0)
(-0.00497456 0.0103697 0)
(-0.00182009 0.00379037 0)
(-0.0134368 0.028085 0)
(-0.018098 0.0379425 0)
(-0.0175252 0.0378478 0)
(-0.0210041 0.0449884 0)
(-0.0230503 0.0489406 0)
(-0.0130883 0.0284865 0)
(-0.00895244 0.0195292 0)
(-0.00161694 0.00351522 0)
(-0.0236704 0.0498462 0)
(-0.00687027 0.014312 0)
(-0.0106762 0.0222442 0)
(-0.00366558 0.00763337 0)
(-0.00141162 0.00293714 0)
(-0.0164024 0.0342924 0)
(-0.0127419 0.0265697 0)
(-0.0218316 0.0457767 0)
(-0.0216455 0.0469018 0)
(-0.0252473 0.0541954 0)
(-0.0273466 0.058128 0)
(-0.0164392 0.0358898 0)
(-0.00874291 0.0191848 0)
(-0.00156029 0.00342984 0)
(-0.0273004 0.0575263 0)
(-0.00680606 0.0141531 0)
(-0.0105403 0.0219175 0)
(-0.00365167 0.00759257 0)
(-0.000497059 0.00103382 0)
(-0.00242528 0.00504164 0)
(-0.0170135 0.0354492 0)
(-0.0144673 0.0301157 0)
(-0.0237517 0.0496618 0)
(-0.0208712 0.0454796 0)
(-0.0257708 0.0556753 0)
(-0.0288109 0.0615882 0)
(-0.0294142 0.0622511 0)
(-0.0161498 0.0354518 0)
(-0.0126808 0.0279159 0)
(-0.00461987 0.010175 0)
(-0.0294793 0.0618874 0)
(-0.00485412 0.0100858 0)
(-0.00856048 0.0177848 0)
(-0.0128854 0.0267754 0)
(-0.000748686 0.00155592 0)
(-0.00166915 0.00346813 0)
(-0.0195128 0.0405961 0)
(-0.0278484 0.0582593 0)
(-0.0227745 0.0474534 0)
(-0.0231203 0.0506301 0)
(-0.0305752 0.0662695 0)
(-0.0326982 0.0700273 0)
(-0.0333618 0.0705387 0)
(-0.0198909 0.0437658 0)
(-0.0127029 0.0281552 0)
(-0.00495926 0.010985 0)
(-0.0333175 0.0700263 0)
(-0.00448024 0.00929556 0)
(-0.00819268 0.0169905 0)
(-0.0130011 0.0269579 0)
(-0.00020413 0.00042408 0)
(-0.00153293 0.00318262 0)
(-0.0190665 0.0395208 0)
(-0.0291483 0.0607613 0)
(-0.025842 0.0537399 0)
(-0.0267712 0.0586782 0)
(-0.0339841 0.0732967 0)
(-0.0307277 0.0670699 0)
(-0.0360383 0.0768895 0)
(-0.0364346 0.0772639 0)
(-0.0204223 0.0452085 0)
(-0.00911918 0.0202587 0)
(-0.0166785 0.0370824 0)
(-0.00194499 0.00432495 0)
(-0.0355486 0.0745247 0)
(-0.00600944 0.0124547 0)
(-0.00299759 0.00621641 0)
(-0.0101361 0.0209954 0)
(-0.015684 0.0324715 0)
(-0.000170923 0.000354925 0)
(-0.00204531 0.00424282 0)
(-0.000660143 0.00137046 0)
(-0.02227 0.0460713 0)
(-0.0330126 0.0687204 0)
(-0.0258675 0.0536126 0)
(-0.0275623 0.0608462 0)
(-0.038242 0.0825038 0)
(-0.0341034 0.0748241 0)
(-0.0394586 0.0844925 0)
(-0.0407102 0.0861004 0)
(-0.0243423 0.0540042 0)
(-0.00820127 0.0183454 0)
(-0.0171885 0.038453 0)
(-0.00399908 0.00894742 0)
(-0.0356803 0.074454 0)
(-0.0389417 0.0816662 0)
(-0.0051629 0.0106825 0)
(-0.00201957 0.00418124 0)
(-0.00938197 0.0193948 0)
(-0.0144791 0.0298942 0)
(-0.00100263 0.00207896 0)
(-0.000370982 0.000769603 0)
(-0.022167 0.0457052 0)
(-0.0328952 0.0681831 0)
(-0.0290632 0.0601317 0)
(-0.031454 0.0695341 0)
(-0.0411188 0.089058 0)
(-0.0384964 0.0844661 0)
(-0.0433523 0.0926262 0)
(-0.0443059 0.0940493 0)
(-0.0414668 0.0871973 0)
(-0.0247945 0.0554494 0)
(-0.0104765 0.0235469 0)
(-0.0212881 0.0477712 0)
(-0.0143897 0.0323339 0)
(-0.00210572 0.0047384 0)
(-0.0390656 0.0814911 0)
(-0.00265984 0.00550178 0)
(-0.00659078 0.0136183 0)
(-0.000674256 0.00139613 0)
(-0.011145 0.0230013 0)
(-0.0159379 0.0328234 0)
(-0.0192237 0.0395638 0)
(-0.0261694 0.0538567 0)
(-0.0354903 0.0733545 0)
(-0.0292102 0.0602195 0)
(-0.0324217 0.07224 0)
(-0.0414038 0.0902823 0)
(-0.0454493 0.0981133 0)
(-0.0402454 0.0891643 0)
(-0.0465008 0.0997631 0)
(-0.0486688 0.103065 0)
(-0.0456472 0.0957652 0)
(-0.0287739 0.0645342 0)
(-0.00842395 0.0190539 0)
(-0.0203535 0.0459894 0)
(-0.0161978 0.0366068 0)
(-0.00435904 0.00986295 0)
(-0.0418809 0.0871682 0)
(-0.00129569 0.00267609 0)
(-0.00542731 0.0111937 0)
(-0.00971753 0.020018 0)
(-0.0132843 0.0272992 0)
(-0.0194966 0.039994 0)
(-0.0258845 0.0530875 0)
(-0.0329312 0.0678214 0)
(-0.0391949 0.0809949 0)
(-0.0366408 0.0817906 0)
(-0.0471736 0.103018 0)
(-0.0490865 0.10641 0)
(-0.0451665 0.100245 0)
(-0.0512456 0.109756 0)
(-0.0492506 0.103649 0)
(-0.0525765 0.111825 0)
(-0.0459423 0.0958685 0)
(-0.0292544 0.066236 0)
(-0.010642 0.0241803 0)
(-0.0219993 0.0499656 0)
(-0.0145217 0.0329658 0)
(-0.00223953 0.00509538 0)
(-0.0420969 0.0872297 0)
(-0.00271371 0.00559591 0)
(-0.00690509 0.0142196 0)
(-0.0105787 0.0217486 0)
(-0.0136051 0.0278923 0)
(-0.0164792 0.0337532 0)
(-0.0223931 0.0458671 0)
(-0.0285724 0.0584726 0)
(-0.0343743 0.0705741 0)
(-0.040337 0.0830215 0)
(-0.037253 0.0839392 0)
(-0.0492348 0.108331 0)
(-0.0533052 0.115007 0)
(-0.046039 0.103232 0)
(-0.0533807 0.112009 0)
(-0.0570484 0.120928 0)
(-0.0496593 0.103369 0)
(-0.0257997 0.0586988 0)
(-0.0333546 0.0757271 0)
(-0.00988868 0.0225798 0)
(-0.0193408 0.0441975 0)
(-0.0160889 0.0367328 0)
(-0.00371327 0.00849301 0)
(-0.0462377 0.0956037 0)
(-0.00139986 0.00288068 0)
(-0.00578105 0.0118833 0)
(-0.00790886 0.0162377 0)
(-0.0106305 0.0217619 0)
(-0.0162647 0.0332313 0)
(-0.0218643 0.0446579 0)
(-0.0272188 0.0555402 0)
(-0.0322686 0.0660615 0)
(-0.0381312 0.078264 0)
(-0.0436659 0.0897474 0)
(-0.0416776 0.0941317 0)
(-0.0551097 0.121418 0)
(-0.0578193 0.124904 0)
(-0.0508235 0.114298 0)
(-0.0571566 0.120244 0)
(-0.0534279 0.111457 0)
(-0.0611633 0.129999 0)
(-0.0495792 0.102711 0)
(-0.0252051 0.0578542 0)
(-0.0339672 0.0777776 0)
(-0.00701707 0.0160583 0)
(-0.0132777 0.0304152 0)
(-0.0210762 0.0484222 0)
(-0.0015503 0.00355973 0)
(-0.0463568 0.0954401 0)
(-0.0030797 0.00632669 0)
(-0.00782301 0.0160294 0)
(-0.0107535 0.0219701 0)
(-0.0135084 0.0275728 0)
(-0.0188063 0.038373 0)
(-0.0241479 0.0492382 0)
(-0.0290285 0.0591156 0)
(-0.0337051 0.068811 0)
(-0.039938 0.0817538 0)
(-0.0434114 0.0889176 0)
(-0.0417606 0.0952806 0)
(-0.0559349 0.124699 0)
(-0.0593554 0.129507 0)
(-0.0618796 0.132561 0)
(-0.0503354 0.114556 0)
(-0.0607796 0.127362 0)
(-0.0570447 0.118606 0)
(-0.0649474 0.137207 0)
(-0.0527311 0.108966 0)
(-0.0275135 0.0635419 0)
(-0.031346 0.0723552 0)
(-0.0379928 0.0871665 0)
(-0.00715429 0.0164566 0)
(-0.0132615 0.0305314 0)
(-0.0195143 0.0450795 0)
(-0.00378264 0.00871058 0)
(-0.0493642 0.101462 0)
(-0.00175834 0.00360257 0)
(-0.00431347 0.00882641 0)
(-0.00818376 0.0166961 0)
(-0.0128892 0.0262547 0)
(-0.0182163 0.0370848 0)
(-0.0231891 0.0471801 0)
(-0.0317805 0.0647383 0)
(-0.027603 0.056071 0)
(-0.036527 0.074508 0)
(-0.0391687 0.0799709 0)
(-0.0455655 0.0931379 0)
(-0.0456519 0.104584 0)
(-0.0608825 0.13628 0)
(-0.0655452 0.142919 0)
(-0.0665027 0.142572 0)
(-0.0540756 0.123712 0)
(-0.0605636 0.126149 0)
(-0.0643462 0.135082 0)
(-0.0563496 0.116603 0)
(-0.0691231 0.146199 0)
(-0.0522178 0.107515 0)
(-0.0251117 0.0584301 0)
(-0.0333508 0.0775989 0)
(-0.0374588 0.0868276 0)
(-0.00967442 0.0223008 0)
(-0.0158931 0.0367215 0)
(-0.0214047 0.0497334 0)
(-0.00346301 0.00799913 0)
(-0.0500527 0.102569 0)
(-0.00447841 0.00914461 0)
(-0.00952303 0.0193932 0)
(-0.0150595 0.0306348 0)
(-0.0203836 0.0414425 0)
(-0.0248762 0.0505186 0)
(-0.0333167 0.0677336 0)
(-0.0292566 0.0593399 0)
(-0.0361219 0.073476 0)
(-0.0415811 0.0847271 0)
(-0.044468 0.0906523 0)
(-0.0486133 0.0993937 0)
(-0.0445584 0.103271 0)
(-0.0657429 0.146043 0)
(-0.0593627 0.134848 0)
(-0.0677244 0.148777 0)
(-0.0683594 0.147544 0)
(-0.0698844 0.148751 0)
(-0.0522643 0.12121 0)
(-0.0636637 0.132182 0)
(-0.0672568 0.140595 0)
(-0.0585214 0.120732 0)
(-0.0718612 0.15113 0)
(-0.0547051 0.112373 0)
(-0.0260138 0.0609788 0)
(-0.0323707 0.0760376 0)
(-0.0401753 0.0936175 0)
(-0.00945407 0.0218748 0)
(-0.0147769 0.0342779 0)
(-0.019387 0.04524 0)
(-0.00120825 0.0027915 0)
(-0.00630246 0.0145877 0)
(-0.0534375 0.109461 0)
(-0.00193853 0.00395256 0)
(-0.0081143 0.0164942 0)
(-0.0142692 0.0289726 0)
(-0.0199321 0.0404414 0)
(-0.0228063 0.0462338 0)
(-0.0322135 0.0653725 0)
(-0.0288317 0.0583677 0)
(-0.0380349 0.077266 0)
(-0.0407959 0.0829365 0)
(-0.0462912 0.094193 0)
(-0.0505336 0.103059 0)
(-0.0474965 0.110784 0)
(-0.0697871 0.155738 0)
(-0.0624056 0.142766 0)
(-0.073421 0.160846 0)
(-0.0730962 0.157232 0)
(-0.0736918 0.15711 0)
(-0.0552787 0.129219 0)
(-0.066772 0.138887 0)
(-0.0638255 0.131895 0)
(-0.0705714 0.147656 0)
(-0.0616084 0.127041 0)
(-0.0573052 0.117789 0)
(-0.075413 0.15852 0)
(-0.0290902 0.0684949 0)
(-0.0234594 0.0552528 0)
(-0.0350831 0.0830031 0)
(-0.0388636 0.0915089 0)
(-0.011773 0.027307 0)
(-0.0164321 0.0382703 0)
(-0.020569 0.0482822 0)
(-0.00110614 0.00256169 0)
(-0.00621816 0.0144178 0)
(-0.0544599 0.111323 0)
(-0.004215 0.00857034 0)
(-0.0106835 0.0216798 0)
(-0.0170006 0.0344695 0)
(-0.0234344 0.047415 0)
(-0.0333468 0.0675601 0)
(-0.0265538 0.0536898 0)
(-0.0313616 0.0634447 0)
(-0.0375648 0.0761594 0)
(-0.042621 0.086515 0)
(-0.0451955 0.0917733 0)
(-0.0492871 0.1003 0)
(-0.0530511 0.108204 0)
(-0.0453397 0.107165 0)
(-0.0704001 0.158629 0)
(-0.074211 0.164054 0)
(-0.0601112 0.139545 0)
(-0.0673092 0.153281 0)
(-0.0765491 0.166372 0)
(-0.0760779 0.16407 0)
(-0.077019 0.163505 0)
(-0.0525406 0.124845 0)
(-0.069509 0.144141 0)
(-0.0668192 0.137788 0)
(-0.0725528 0.151238 0)
(-0.0618433 0.127077 0)
(-0.0592994 0.121659 0)
(-0.0775636 0.16361 0)
(-0.0767652 0.160482 0)
(-0.0277621 0.0659548 0)
(-0.0244416 0.0579405 0)
(-0.0346535 0.0828628 0)
(-0.0412187 0.097747 0)
(-0.0115295 0.0268093 0)
(-0.014208 0.0331214 0)
(-0.0182331 0.0428243 0)
(-0.00302987 0.00701864 0)
(-0.00890521 0.0206784 0)
(-0.056539 0.115504 0)
(-0.0022604 0.00458751 0)
(-0.0101955 0.0206542 0)
(-0.0161663 0.0327221 0)
(-0.0209115 0.042243 0)
(-0.0354874 0.0718696 0)
(-0.0273754 0.0552363 0)
(-0.0318575 0.0643565 0)
(-0.0395442 0.0800771 0)
(-0.0418056 0.0846932 0)
(-0.0468106 0.0948905 0)
(-0.0505124 0.102604 0)
(-0.0550742 0.112157 0)
(-0.0474224 0.113186 0)
(-0.0759628 0.170622 0)
(-0.0780262 0.172966 0)
(-0.0636334 0.148751 0)
(-0.0686551 0.15843 0)
(-0.0815113 0.176844 0)
(-0.080235 0.171948 0)
(-0.0805187 0.171373 0)
(-0.0550947 0.132361 0)
(-0.0693478 0.14325 0)
(-0.0720014 0.149503 0)
(-0.0672556 0.138247 0)
(-0.0752723 0.156881 0)
(-0.0636451 0.130513 0)
(-0.0596417 0.122044 0)
(-0.0810129 0.170367 0)
(-0.0795698 0.166096 0)
(-0.0286428 0.0686418 0)
(-0.0234858 0.0559903 0)
(-0.0316119 0.0761102 0)
(-0.0384536 0.0922835 0)
(-0.0149852 0.0350225 0)
(-0.0184949 0.0435982 0)
(-0.00324231 0.00750522 0)
(-0.00837181 0.0194314 0)
(-0.056742 0.115668 0)
(-0.0585135 0.119566 0)
(-0.00424342 0.00859008 0)
(-0.0129982 0.0262991 0)
(-0.007677 0.0155335 0)
(-0.0179119 0.036194 0)
(-0.0218546 0.0440588 0)
(-0.036194 0.0731665 0)
(-0.0251974 0.0507696 0)
(-0.0301809 0.0608781 0)
(-0.0345425 0.0697482 0)
(-0.0386029 0.078028 0)
(-0.0432493 0.0875104 0)
(-0.0491343 0.0996165 0)
(-0.0456531 0.092391 0)
(-0.0530203 0.107644 0)
(-0.0550344 0.11185 0)
(-0.044094 0.106679 0)
(-0.078061 0.176704 0)
(-0.0818953 0.180426 0)
(-0.0618509 0.147055 0)
(-0.0738836 0.170121 0)
(-0.0834249 0.181914 0)
(-0.0833867 0.179198 0)
(-0.0836326 0.177163 0)
(-0.0517726 0.126531 0)
(-0.0714824 0.147354 0)
(-0.0743307 0.154024 0)
(-0.0658793 0.135119 0)
(-0.0697507 0.143192 0)
(-0.0762607 0.158352 0)
(-0.0624198 0.127654 0)
(-0.0814812 0.170496 0)
(-0.0834688 0.175852 0)
(-0.080202 0.166721 0)
(-0.0256096 0.0616124 0)
(-0.0209049 0.0496512 0)
(-0.0312028 0.0761189 0)
(-0.0394237 0.095483 0)
(-0.0130212 0.0303629 0)
(-0.0161811 0.0379516 0)
(-0.00569774 0.0131933 0)
(-0.0011894 0.00274714 0)
(-0.0101687 0.023624 0)
(-0.0586056 0.119488 0)
(-0.00198108 0.00400298 0)
(-0.0124905 0.0252271 0)
(-0.00941176 0.0190059 0)
(-0.0152529 0.0307783 0)
(-0.0194541 0.0391684 0)
(-0.0258814 0.0520571 0)
(-0.0317981 0.0640596 0)
(-0.0346754 0.0699033 0)
(-0.0401511 0.0810658 0)
(-0.0425451 0.0859425 0)
(-0.0507264 0.102706 0)
(-0.0464286 0.0938126 0)
(-0.0530182 0.107419 0)
(-0.0575053 0.116745 0)
(-0.0439108 0.107638 0)
(-0.0832347 0.187456 0)
(-0.0855187 0.188938 0)
(-0.0655114 0.156892 0)
(-0.0759181 0.176556 0)
(-0.0878302 0.190884 0)
(-0.0869768 0.186173 0)
(-0.0865199 0.183363 0)
(-0.0528494 0.131032 0)
(-0.0466407 0.114846 0)
(-0.0735976 0.151781 0)
(-0.0713716 0.146683 0)
(-0.0748152 0.154589 0)
(-0.0674756 0.138042 0)
(-0.0697237 0.142731 0)
(-0.0784174 0.162653 0)
(-0.0636732 0.129955 0)
(-0.0842489 0.175885 0)
(-0.0858217 0.180263 0)
(-0.0824159 0.171074 0)
(-0.0253573 0.0615956 0)
(-0.0197286 0.0469348 0)
(-0.0336506 0.0827293 0)
(-0.0279735 0.0686185 0)
(-0.0370075 0.0906806 0)
(-0.0138325 0.0322698 0)
(-0.0161041 0.0377409 0)
(-0.00500694 0.0115543 0)
(-0.00254073 0.00585401 0)
(-0.00895288 0.0207147 0)
(-0.0600408 0.122255 0)
(-0.00398267 0.00803086 0)
(-0.00794641 0.0160205 0)
(-0.015852 0.0319353 0)
(-0.0202949 0.0407862 0)
(-0.0287698 0.0578186 0)
(-0.0233585 0.0469198 0)
(-0.031411 0.0631708 0)
(-0.0369308 0.0743901 0)
(-0.0395916 0.0798044 0)
(-0.0443892 0.0895945 0)
(-0.0503687 0.101818 0)
(-0.0483334 0.0976129 0)
(-0.0549228 0.111175 0)
(-0.0572514 0.115981 0)
(-0.0596712 0.121235 0)
(-0.0391607 0.0968879 0)
(-0.0861693 0.191855 0)
(-0.0860809 0.195375 0)
(-0.0890198 0.194879 0)
(-0.072404 0.171195 0)
(-0.0626861 0.153145 0)
(-0.0834408 0.192089 0)
(-0.0900432 0.194355 0)
(-0.0878603 0.186871 0)
(-0.089669 0.192406 0)
(-0.088687 0.187051 0)
(-0.0472524 0.119292 0)
(-0.0568162 0.140996 0)
(-0.044301 0.11114 0)
(-0.0750096 0.154279 0)
(-0.0736941 0.151295 0)
(-0.0773665 0.159659 0)
(-0.0665097 0.135746 0)
(-0.0717563 0.146719 0)
(-0.0790271 0.163345 0)
(-0.0625857 0.127471 0)
(-0.0860499 0.179987 0)
(-0.0844907 0.175696 0)
(-0.0881674 0.185316 0)
(-0.0826399 0.171016 0)
(-0.0226926 0.0550802 0)
(-0.0175444 0.041354 0)
(-0.0204254 0.048982 0)
(-0.0315752 0.0788182 0)
(-0.0280652 0.0698181 0)
(-0.0119944 0.0277918 0)
(-0.0144353 0.0335421 0)
(-0.00648954 0.0149561 0)
(-0.00135784 0.00311157 0)
(-0.00992303 0.0229101 0)
(-0.00202767 0.00408063 0)
(-0.00987182 0.0198659 0)
(-0.0135064 0.0271744 0)
(-0.0180362 0.0362108 0)
(-0.0280341 0.0562402 0)
(-0.0245869 0.0493157 0)
(-0.0340292 0.0683798 0)
(-0.036664 0.073735 0)
(-0.0419269 0.0844356 0)
(-0.044347 0.0893777 0)
(-0.0522794 0.105566 0)
(-0.0487899 0.0983739 0)
(-0.0544906 0.11009 0)
(-0.0591802 0.119778 0)
(-0.0621096 0.126041 0)
(-0.0373404 0.0937725 0)
(-0.0908659 0.20202 0)
(-0.0915065 0.205494 0)
(-0.0921923 0.201776 0)
(-0.0759209 0.180852 0)
(-0.0669212 0.164287 0)
(-0.0859319 0.199317 0)
(-0.0934619 0.201413 0)
(-0.0910075 0.193046 0)
(-0.0931281 0.198883 0)
(-0.0911264 0.192334 0)
(-0.0451805 0.116572 0)
(-0.0547628 0.139097 0)
(-0.0396339 0.10051 0)
(-0.0772084 0.158853 0)
(-0.0740839 0.151729 0)
(-0.067605 0.137713 0)
(-0.0718758 0.146593 0)
(-0.0810489 0.167374 0)
(-0.0639782 0.13001 0)
(-0.0881847 0.184219 0)
(-0.0865134 0.179539 0)
(-0.0895081 0.187519 0)
(-0.0843767 0.174382 0)
(-0.0219419 0.0538413 0)
(-0.0163022 0.0381299 0)
(-0.0185464 0.0441375 0)
(-0.0329594 0.0832924 0)
(-0.0259101 0.0649912 0)
(-0.0125805 0.0290504 0)
(-0.0147045 0.0340339 0)
(-0.00620131 0.0142174 0)
(-0.00235999 0.00537755 0)
(-0.00826767 0.0189453 0)
(-0.00410632 0.00824868 0)
(-0.00795169 0.0159731 0)
(-0.0148382 0.0298045 0)
(-0.0179583 0.0360015 0)
(-0.0298961 0.0599108 0)
(-0.0229727 0.0460119 0)
(-0.0347785 0.0697859 0)
(-0.0390936 0.0785532 0)
(-0.041678 0.083794 0)
(-0.0468425 0.0943472 0)
(-0.0512279 0.103276 0)
(-0.0564899 0.114017 0)
(-0.06183 0.125243 0)
(-0.0588739 0.118926 0)
(-0.0932649 0.205605 0)
(-0.0956669 0.214811 0)
(-0.0948526 0.206236 0)
(-0.0819097 0.193107 0)
(-0.0729693 0.17684 0)
(-0.06463 0.161792 0)
(-0.0908708 0.209859 0)
(-0.0950531 0.203477 0)
(-0.0952092 0.205744 0)
(-0.093405 0.198451 0)
(-0.092987 0.195763 0)
(-0.0485484 0.125965 0)
(-0.0395774 0.103716 0)
(-0.0587125 0.149532 0)
(-0.0372459 0.096399 0)
(-0.0788461 0.161951 0)
(-0.0764024 0.156312 0)
(-0.069946 0.142435 0)
(-0.0661412 0.13441 0)
(-0.0742553 0.151308 0)
(-0.0822524 0.169409 0)
(-0.0892952 0.185993 0)
(-0.0886673 0.184142 0)
(-0.0861435 0.178211 0)
(-0.0915952 0.191672 0)
(-0.0843196 0.173755 0)
(-0.0232353 0.0578938 0)
(-0.019412 0.0470823 0)
(-0.0167251 0.0391896 0)
(-0.0182502 0.0435657 0)
(-0.0309261 0.0795483 0)
(-0.0256532 0.0656404 0)
(-0.0113801 0.0259948 0)
(-0.0135739 0.03102 0)
(-0.0045578 0.0103882 0)
(-0.00101825 0.00230096 0)
(-0.00821213 0.0186733 0)
(-0.00210968 0.00422981 0)
(-0.00997584 0.020009 0)
(-0.0131723 0.0264239 0)
(-0.0198847 0.0398199 0)
(-0.0150474 0.0301521 0)
(-0.0285651 0.0571625 0)
(-0.0332035 0.0665481 0)
(-0.0251077 0.0502248 0)
(-0.0381233 0.0764927 0)
(-0.0441707 0.0887481 0)
(-0.0468953 0.0943127 0)
(-0.0526301 0.105993 0)
(-0.0556914 0.112212 0)
(-0.0633958 0.128224 0)
(-0.0613114 0.123785 0)
(-0.0969002 0.212874 0)
(-0.0968596 0.219433 0)
(-0.0993521 0.220566 0)
(-0.0976192 0.212636 0)
(-0.0854219 0.202767 0)
(-0.0764215 0.186255 0)
(-0.0686484 0.17263 0)
(-0.0906801 0.212613 0)
(-0.0947282 0.216953 0)
(-0.0976742 0.208917 0)
(-0.09813 0.211079 0)
(-0.095845 0.202881 0)
(-0.0952552 0.20076 0)
(-0.0931395 0.19526 0)
(-0.0464334 0.123781 0)
(-0.0359247 0.0968865 0)
(-0.056687 0.147605 0)
(-0.0329073 0.0858948 0)
(-0.0814944 0.167467 0)
(-0.0785451 0.1609 0)
(-0.076419 0.155932 0)
(-0.0701361 0.142515 0)
(-0.0676648 0.137317 0)
(-0.0743282 0.151118 0)
(-0.0916313 0.190988 0)
(-0.0903653 0.187164 0)
(-0.0875239 0.180688 0)
(-0.0861803 0.177463 0)
(-0.0215454 0.0542549 0)
(-0.0182902 0.0445272 0)
(-0.0156212 0.0360758 0)
(-0.0162861 0.0379593 0)
(-0.0274297 0.0710051 0)
(-0.022608 0.0580211 0)
(-0.00959365 0.0217544 0)
(-0.0120524 0.0273548 0)
(-0.0133012 0.029966 0)
(-0.0048663 0.0109981 0)
(-0.00194923 0.00436543 0)
(-0.00650519 0.0146787 0)
(-0.00454292 0.00909457 0)
(-0.00854116 0.017102 0)
(-0.0177696 0.0355445 0)
(-0.0146857 0.0293918 0)
(-0.0303607 0.060702 0)
(-0.0349093 0.0698767 0)
(-0.0242698 0.0484863 0)
(-0.0395828 0.0793385 0)
(-0.0442841 0.0888532 0)
(-0.0491503 0.0987886 0)
(-0.0516617 0.103896 0)
(-0.0571792 0.115084 0)
(-0.0657205 0.132931 0)
(-0.0615439 0.124073 0)
(-0.0993128 0.218659 0)
(-0.102341 0.230578 0)
(-0.103097 0.228681 0)
(-0.100132 0.217155 0)
(-0.0828123 0.199646 0)
(-0.0742212 0.183978 0)
(-0.066456 0.170653 0)
(-0.0948383 0.222061 0)
(-0.0977368 0.225367 0)
(-0.0990786 0.211193 0)
(-0.100267 0.216032 0)
(-0.0983247 0.208158 0)
(-0.096717 0.203181 0)
(-0.095427 0.199811 0)
(-0.0411157 0.112295 0)
(-0.0510426 0.135949 0)
(-0.0365891 0.100532 0)
(-0.0317124 0.0860207 0)
(-0.0606637 0.158358 0)
(-0.0307218 0.0818634 0)
(-0.0828515 0.169826 0)
(-0.0809558 0.16563 0)
(-0.0784839 0.160017 0)
(-0.0721674 0.146531 0)
(-0.0675609 0.136869 0)
(-0.0765354 0.155486 0)
(-0.0932578 0.193953 0)
(-0.0926187 0.191925 0)
(-0.0895602 0.184933 0)
(-0.0869022 0.178543 0)
(-0.0191651 0.0477821 0)
(-0.0164491 0.0390356 0)
(-0.0141366 0.0318731 0)
(-0.0156856 0.0362439 0)
(-0.025693 0.0681081 0)
(-0.0210217 0.0549945 0)
(-0.00892041 0.0199239 0)
(-0.0112353 0.0250918 0)
(-0.0119467 0.0264344 0)
(-0.00367544 0.00823217 0)
(-0.000928336 0.00205548 0)
(-0.00621821 0.0138607 0)
(-0.00246613 0.00492819 0)
(-0.0113843 0.022771 0)
(-0.0180411 0.0360418 0)
(-0.02957 0.0590548 0)
(-0.033371 0.0667269 0)
(-0.0379595 0.0759832 0)
(-0.0211222 0.0421711 0)
(-0.0269348 0.0537653 0)
(-0.0423899 0.084964 0)
(-0.0470812 0.0944151 0)
(-0.0490587 0.0984506 0)
(-0.0533171 0.107116 0)
(-0.0596262 0.120034 0)
(-0.055769 0.112065 0)
(-0.0670791 0.135457 0)
(-0.063904 0.128736 0)
(-0.102507 0.224147 0)
(-0.104201 0.236317 0)
(-0.10453 0.233254 0)
(-0.105467 0.232136 0)
(-0.102541 0.222719 0)
(-0.0848258 0.206627 0)
(-0.0786712 0.195419 0)
(-0.0706309 0.182317 0)
(-0.0968216 0.228391 0)
(-0.101747 0.233453 0)
(-0.10169 0.2167 0)
(-0.0992649 0.210761 0)
(-0.102464 0.220001 0)
(-0.100027 0.210826 0)
(-0.0990095 0.207946 0)
(-0.0962736 0.200998 0)
(-0.0387031 0.109521 0)
(-0.0508056 0.138226 0)
(-0.0321404 0.0912899 0)
(-0.0281384 0.0781268 0)
(-0.0573964 0.153737 0)
(-0.0273487 0.0734475 0)
(-0.0852635 0.174723 0)
(-0.0808414 0.165035 0)
(-0.0784936 0.159671 0)
(-0.0721001 0.146111 0)
(-0.0699619 0.141626 0)
(-0.076499 0.155094 0)
(-0.0953951 0.198527 0)
(-0.0942619 0.194901 0)
(-0.0910268 0.187477 0)
(-0.0896687 0.184176 0)
(-0.0178511 0.0449432 0)
(-0.0152632 0.0359172 0)
(-0.0132355 0.0288279 0)
(-0.0144808 0.0323419 0)
(-0.0222616 0.0595505 0)
(-0.0185819 0.048232 0)
(-0.00984613 0.0218004 0)
(-0.00730323 0.0161762 0)
(-0.0111751 0.0240359 0)
(-0.00453768 0.0100666 0)
(-0.00196789 0.00430392 0)
(-0.00473551 0.00945044 0)
(-0.0113721 0.0227173 0)
(-0.0149438 0.0298318 0)
(-0.0318335 0.0635418 0)
(-0.0341892 0.0682921 0)
(-0.0394829 0.0789639 0)
(-0.0209512 0.0417764 0)
(-0.0266362 0.0531132 0)
(-0.0438021 0.0876975 0)
(-0.0467064 0.0935357 0)
(-0.05167 0.103671 0)
(-0.0605921 0.121843 0)
(-0.0572406 0.114898 0)
(-0.0696835 0.140812 0)
(-0.0663117 0.133671 0)
(-0.0630308 0.12678 0)
(-0.105059 0.22984 0)
(-0.108357 0.244848 0)
(-0.107973 0.240076 0)
(-0.108143 0.237831 0)
(-0.104807 0.226605 0)
(-0.0898914 0.218441 0)
(-0.077497 0.196037 0)
(-0.0675537 0.178888 0)
(-0.102284 0.238921 0)
(-0.0952362 0.227947 0)
(-0.10408 0.240274 0)
(-0.101764 0.215977 0)
(-0.102997 0.219973 0)
(-0.104622 0.225037 0)
(-0.102254 0.215568 0)
(-0.100107 0.209484 0)
(-0.098672 0.205883 0)
(-0.0409352 0.116945 0)
(-0.0331934 0.096133 0)
(-0.0468487 0.130913 0)
(-0.027198 0.079166 0)
(-0.0259076 0.0743088 0)
(-0.025833 0.0710605 0)
(-0.0599304 0.161996 0)
(-0.0862675 0.176358 0)
(-0.0825013 0.168138 0)
(-0.0808303 0.164359 0)
(-0.0742685 0.150384 0)
(-0.0787007 0.159467 0)
(-0.0972372 0.201881 0)
(-0.0967743 0.200288 0)
(-0.0934858 0.19264 0)
(-0.0904285 0.185314 0)
(-0.0161052 0.0400043 0)
(-0.014223 0.0321557 0)
(-0.0150801 0.0363128 0)
(-0.0135445 0.0292415 0)
(-0.0118713 0.0251131 0)
(-0.0139877 0.0308041 0)
(-0.0206055 0.0567764 0)
(-0.0164375 0.0432651 0)
(-0.00927435 0.0201591 0)
(-0.00678414 0.0147599 0)
(-0.00993286 0.0212113 0)
(-0.0038522 0.00842664 0)
(-0.00102715 0.00221378 0)
(-0.00230693 0.00459715 0)
(-0.0087458 0.0174532 0)
(-0.0147406 0.0293898 0)
(-0.0318408 0.0634965 0)
(-0.0364812 0.0728471 0)
(-0.0425256 0.0850599 0)
(-0.0387641 0.077444 0)
(-0.0238631 0.0475554 0)
(-0.0176781 0.0352253 0)
(-0.0294518 0.058698 0)
(-0.0484147 0.0969033 0)
(-0.052697 0.105626 0)
(-0.0596471 0.119771 0)
(-0.0557851 0.111828 0)
(-0.0715518 0.144475 0)
(-0.0683512 0.137652 0)
(-0.0636939 0.127985 0)
(-0.107369 0.233601 0)
(-0.109761 0.249607 0)
(-0.110671 0.247987 0)
(-0.110215 0.245511 0)
(-0.109052 0.240832 0)
(-0.110012 0.240699 0)
(-0.107132 0.231831 0)
(-0.0888239 0.219844 0)
(-0.0825802 0.208593 0)
(-0.0708914 0.189276 0)
(-0.10532 0.246829 0)
(-0.100163 0.240064 0)
(-0.108005 0.247878 0)
(-0.103036 0.218101 0)
(-0.105474 0.225036 0)
(-0.106452 0.22808 0)
(-0.104051 0.218791 0)
(-0.102299 0.213912 0)
(-0.0992565 0.206406 0)
(-0.0377076 0.11215 0)
(-0.0290703 0.0876134 0)
(-0.0484371 0.137995 0)
(-0.0246376 0.0748478 0)
(-0.021667 0.0627813 0)
(-0.0227323 0.0635826 0)
(-0.0551059 0.154078 0)
(-0.0887267 0.181402 0)
(-0.084829 0.172946 0)
(-0.0810696 0.164523 0)
(-0.0740046 0.149576 0)
(-0.0784951 0.158739 0)
(-0.0983736 0.203158 0)
(-0.0950607 0.195515 0)
(-0.0928952 0.190223 0)
(-0.0150998 0.0384 0)
(-0.013208 0.0290069 0)
(-0.0134696 0.0316688 0)
(-0.0129808 0.0267156 0)
(-0.0113985 0.0231887 0)
(-0.0132876 0.0280123 0)
(-0.0172782 0.0483397 0)
(-0.0155992 0.0424554 0)
(-0.00782627 0.0168621 0)
(-0.00503155 0.0108717 0)
(-0.00907352 0.0190188 0)
(-0.00170359 0.00360172 0)
(-0.00494011 0.00983601 0)
(-0.0110309 0.0219865 0)
(-0.0341801 0.0681443 0)
(-0.0363432 0.0724977 0)
(-0.0433549 0.0866392 0)
(-0.041064 0.0820019 0)
(-0.0238021 0.0473869 0)
(-0.0176633 0.0351574 0)
(-0.0294754 0.058698 0)
(-0.0512342 0.102582 0)
(-0.0478752 0.0957152 0)
(-0.0613911 0.123212 0)
(-0.0569299 0.114009 0)
(-0.0710131 0.14313 0)
(-0.0678233 0.136387 0)
(-0.0656384 0.131869 0)
(-0.109752 0.238923 0)
(-0.113391 0.25724 0)
(-0.11404 0.255316 0)
(-0.112877 0.249686 0)
(-0.111888 0.246456 0)
(-0.112401 0.246253 0)
(-0.10909 0.235072 0)
(-0.0928871 0.23021 0)
(-0.082926 0.212785 0)
(-0.078521 0.206072 0)
(-0.0659585 0.181848 0)
(-0.109707 0.254965 0)
(-0.104589 0.247663 0)
(-0.100454 0.243371 0)
(-0.110555 0.254678 0)
(-0.105584 0.223489 0)
(-0.106822 0.226919 0)
(-0.108599 0.232848 0)
(-0.106311 0.224036 0)
(-0.104045 0.218042 0)
(-0.103162 0.214936 0)
(-0.101537 0.210975 0)
(-0.0321761 0.0996392 0)
(-0.042659 0.126361 0)
(-0.0281154 0.0877623 0)
(-0.0210603 0.066591 0)
(-0.0180812 0.0542177 0)
(-0.0577051 0.163308 0)
(-0.0898697 0.183386 0)
(-0.0862297 0.175489 0)
(-0.083367 0.169081 0)
(-0.0760344 0.153572 0)
(-0.0804873 0.16266 0)
(-0.100568 0.207811 0)
(-0.0974574 0.200645 0)
(-0.0948208 0.194435 0)
(-0.0924612 0.188804 0)
(-0.0134845 0.0339113 0)
(-0.0127637 0.0284545 0)
(-0.0128683 0.0268565 0)
(-0.0127813 0.0307252 0)
(-0.0130085 0.0264424 0)
(-0.0124296 0.0244662 0)
(-0.0103399 0.0205278 0)
(-0.0118536 0.0233042 0)
(-0.0157006 0.0461046 0)
(-0.0125412 0.034199 0)
(-0.00771237 0.0163131 0)
(-0.00456347 0.00969147 0)
(-0.00872755 0.0178035 0)
(-0.000694673 0.00144736 0)
(-0.0031521 0.00663629 0)
(-0.00459822 0.0091467 0)
(-0.00958548 0.0190892 0)
(-0.0348196 0.0693671 0)
(-0.0384597 0.0767003 0)
(-0.0456545 0.0912118 0)
(-0.0407916 0.0813893 0)
(-0.0268355 0.0534078 0)
(-0.0210286 0.0418373 0)
(-0.0147729 0.029383 0)
(-0.0327325 0.0651694 0)
(-0.0522801 0.104588 0)
(-0.050239 0.100414 0)
(-0.0614588 0.123228 0)
(-0.0548898 0.109805 0)
(-0.0595513 0.119268 0)
(-0.0728701 0.146776 0)
(-0.0696337 0.139919 0)
(-0.0657477 0.13193 0)
(-0.111864 0.242492 0)
(-0.114057 0.260755 0)
(-0.115297 0.259666 0)
(-0.11571 0.257469 0)
(-0.115082 0.254468 0)
(-0.114261 0.249405 0)
(-0.111472 0.24038 0)
(-0.090065 0.227856 0)
(-0.0976093 0.239537 0)
(-0.0817373 0.21718 0)
(-0.0690938 0.192003 0)
(-0.112241 0.261529 0)
(-0.10838 0.256916 0)
(-0.105204 0.254251 0)
(-0.109425 0.232548 0)
(-0.110285 0.235535 0)
(-0.108376 0.227986 0)
(-0.106067 0.221824 0)
(-0.105391 0.219591 0)
(-0.10201 0.211353 0)
(-0.0298293 0.0975033 0)
(-0.0411554 0.12577 0)
(-0.0225414 0.0748656 0)
(-0.0197557 0.0660183 0)
(-0.0177308 0.0572571 0)
(-0.0163203 0.0517268 0)
(-0.0528239 0.155665 0)
(-0.0888601 0.180943 0)
(-0.0856487 0.173906 0)
(-0.0829734 0.167895 0)
(-0.0754352 0.15209 0)
(-0.0798546 0.161077 0)
(-0.101811 0.209895 0)
(-0.0988851 0.203155 0)
(-0.0973326 0.199465 0)
(-0.0937796 0.191233 0)
(-0.0120686 0.0312335 0)
(-0.0116823 0.0248315 0)
(-0.0122585 0.024192 0)
(-0.0112996 0.0264303 0)
(-0.0127103 0.0243588 0)
(-0.0125097 0.0232877 0)
(-0.00923989 0.0183942 0)
(-0.0105834 0.0201373 0)
(-0.0114452 0.0215423 0)
(-0.0124431 0.0375429 0)
(-0.0109227 0.0314042 0)
(-0.00675745 0.014075 0)
(-0.00550245 0.0114743 0)
(-0.00726634 0.0147778 0)
(-0.00121696 0.00248487 0)
(-0.00335164 0.0069049 0)
(-0.00196693 0.00391007 0)
(-0.00858618 0.0170704 0)
(-0.0113222 0.0225238 0)
(-0.0375744 0.0748667 0)
(-0.0455766 0.0909724 0)
(-0.0430714 0.0859153 0)
(-0.027074 0.053844 0)
(-0.0212996 0.0423368 0)
(-0.015283 0.0303697 0)
(-0.0329235 0.0655054 0)
(-0.050345 0.100548 0)
(-0.0638964 0.128096 0)
(-0.0549712 0.109875 0)
(-0.0609755 0.122041 0)
(-0.071997 0.144765 0)
(-0.0681859 0.136829 0)
(-0.114022 0.247428 0)
(-0.116631 0.266827 0)
(-0.118599 0.266614 0)
(-0.11828 0.26283 0)
(-0.117186 0.25802 0)
(-0.116416 0.25408 0)
(-0.113364 0.243566 0)
(-0.0934326 0.237112 0)
(-0.100931 0.249409 0)
(-0.0768044 0.209422 0)
(-0.0888495 0.23273 0)
(-0.0652578 0.186677 0)
(-0.115553 0.268116 0)
(-0.111545 0.262265 0)
(-0.108448 0.259579 0)
(-0.105402 0.257654 0)
(-0.111155 0.235375 0)
(-0.112696 0.240935 0)
(-0.110677 0.233252 0)
(-0.108114 0.226402 0)
(-0.106893 0.222222 0)
(-0.104085 0.215463 0)
(-0.023835 0.0834859 0)
(-0.034296 0.110534 0)
(-0.0455292 0.138762 0)
(-0.0206265 0.0728895 0)
(-0.0152874 0.055144 0)
(-0.0141454 0.0499589 0)
(-0.0123092 0.0409966 0)
(-0.0574552 0.169734 0)
(-0.0900521 0.183027 0)
(-0.0880532 0.178642 0)
(-0.0848853 0.17166 0)
(-0.0772694 0.155687 0)
(-0.0815723 0.164449 0)
(-0.103766 0.214136 0)
(-0.101069 0.207769 0)
(-0.0978004 0.200031 0)
(-0.0961285 0.196153 0)
(-0.0923593 0.187796 0)
(-0.0104544 0.0256798 0)
(-0.0115718 0.0227191 0)
(-0.0108302 0.0235479 0)
(-0.0124378 0.0232793 0)
(-0.0126977 0.0233842 0)
(-0.0124806 0.0220084 0)
(-0.00833858 0.0160856 0)
(-0.00997447 0.0184669 0)
(-0.0119117 0.0212605 0)
(-0.0107684 0.0349858 0)
(-0.00832765 0.0241032 0)