/*--------------------------------*- C++ -*----------------------------------*\
| =========                 |                                                 |
| \\      /  F ield         | OpenFOAM: The Open Source CFD Toolbox           |
|  \\    /   O peration     | Version:  v2012                                 |
|   \\  /    A nd           | Website:  www.openfoam.com                      |
|    \\/     M anipulation  |                                                 |
\*---------------------------------------------------------------------------*/
FoamFile
{
    version     2.0;
    format      ascii;
    class       surfaceScalarField;
    location    "1.09";
    object      meshPhi;
}
// * * * * * * * * * * * * * * * * * * * * * * * * * * * * * * * * * * * * * //

dimensions      [0 3 -1 0 0 0 0];


internalField   nonuniform List<scalar> 
18811
(
0.00213024
0.000946511
-0.000348209
0.0058029
-0.00222552
0.00610889
0.00425576
-0.00121589
0.00991421
0.00155012
0.00805098
0.00751495
0.00212719
0.00306075
0.0107557
0.00691153
-0.00191611
0.000200133
0.0108712
0.0142702
0.00944637
-0.00247163
-0.00414311
0.0181805
0.00688293
0.00244485
0.00115616
0.0102528
0.00949185
0.00187162
0.0167417
0.0127883
0.000578216
0.00287572
0.004041
0.017981
0.00878114
-0.00444365
0.00539987
-0.001626
0.00927913
0.00417386
0.021518
0.0188195
0.0246487
-0.00923996
0.01378
-0.00141135
-0.00672249
0.0280726
0.00782536
0.003496
0.00219172
0.00121057
0.015251
0.0185744
-0.000200114
0.0233117
0.00233467
0.0266226
0.0188984
-0.000586393
0.00931809
-0.00413862
0.00386139
0.0281283
-0.00598781
0.011877
0.00706717
-0.00386795
0.00382291
-0.000676524
0.0168905
0.000700262
-0.00743274
0.029769
0.0229644
0.0297358
0.0340597
-0.013883
0.0178758
0.000252709
9.06636e-05
-0.00267761
0.0337468
0.00316488
0.00944255
0.00418223
0.00111951
-0.000846536
0.00138605
0.0122529
0.0118187
0.0303342
-0.00683086
0.0346471
-0.00126898
0.0351255
0.00568727
0.0333549
0.0207428
0.00072037
0.0145385
-0.00929693
0.00430814
0.00632374
0.0302059
-0.0046469
0.00964922
-0.00650502
0.0122358
-0.00330222
0.00571084
0.000214162
-0.00110759
-0.0146008
0.029295
-0.00128581
0.0250677
0.00732998
0.0177853
0.0380171
0.0455824
0.0426463
-0.0176443
0.0221366
0.0016216
0.0017107
0.000683612
0.0316562
0.00295133
0.00504317
0.0127943
0.00125236
-0.000334672
0.00109207
0.0194015
0.0129735
0.0275932
0.0289502
-0.0168184
0.0382801
0.0457076
-0.00261142
0.00227037
0.04579
0.0137422
0.0312469
0.00878322
-0.0159338
0.0231537
0.00935909
-0.00260182
0.0474949
0.00700778
-0.00247305
-0.00486339
0.0116009
-0.00607142
0.0207919
0.000288103
0.00217557
-0.000497704
-0.0139323
0.0295661
-0.00931366
0.0383213
0.0211988
0.0313715
0.0107417
0.0509527
0.0330184
0.0175911
0.0291618
0.0496269
-0.020603
0.0339098
-0.00171139
0.0077833
0.00240542
0.0156314
0.0328693
0.00384645
-0.00284945
0.00136702
0.00713603
0.00967637
0.000450666
-0.000237687
0.000305829
0.0108803
0.0207649
0.0139571
0.0263459
0.0336701
-0.0273734
0.0417155
0.0190883
0.0334724
-0.0254167
0.0619969
0.0492919
0.0208467
0.0285379
0.0109341
-0.0091159
0.0126222
0.0252309
-0.0129559
-0.00210914
0.0306392
0.0170692
0.0164127
-0.00248564
0.00764608
0.00300948
-0.00089891
-0.00463377
0.0130887
-0.00864009
0.0202032
-0.000511801
0.000607126
-0.00305937
0.0253058
-0.012467
0.0400341
0.0224603
0.019773
-0.00725674
0.0430769
0.0491035
0.0170932
0.0281534
0.021363
0.0488512
0.0450791
-0.0296312
0.045805
0.0220886
-0.00381512
-0.000141919
0.01365
0.00366881
0.0476842
0.00163764
0.00437147
0.00570646
0.0202848
0.00189278
0.0189837
0.0044741
0.0221024
0.00694562
0.0339188
0.0279143
-0.0324254
0.0565899
0.0442937
0.0237348
0.0205769
-0.0396862
0.0602734
0.046261
0.0328701
0.0171804
0.0157212
0.0301787
0.0186458
-0.0122547
0.0142641
-0.0236588
0.0277503
-0.00630727
-0.00234059
0.0147126
0.0338444
0.00225128
-0.00165969
0.00709892
-0.00393627
0.0105176
-0.0108703
0.0144271
-0.00169717
0.0217509
-0.00691541
0.0300523
0.0357319
0.00224777
0.0324865
0.0212014
0.032398
0.0134172
0.0537111
0.0490383
0.0140455
0.0424836
0.00504498
0.0493763
0.0608802
0.0451516
-0.0342123
0.0591978
0.0178261
0.00128512
0.0406733
-0.00838872
0.0153218
0.00414737
0.0365397
0.00141816
0.00410227
0.00076072
0.0141434
0.0011953
0.0135071
0.0159151
0.0142876
0.0165612
0.0115527
0.0250101
0.00497798
0.0278581
-0.0304071
0.0557846
0.0644363
0.0593534
-0.0426993
0.0597396
0.0199884
0.0296026
0.0282692
0.032945
0.0146709
0.0306988
0.0116431
0.0342855
-0.0114886
0.0175239
-0.0326743
0.0288213
-0.0130514
0.0105092
-0.00132032
0.00949004
0.0272958
0.00202367
0.0061722
-0.00108458
0.00802985
-0.0084722
0.010584
-0.00076428
0.0150485
-0.00351799
0.0201423
-0.00863406
0.0234846
0.0288611
0.0304764
0.00683995
0.0212771
0.0163443
0.00176788
0.0636867
-0.00178411
0.0612541
0.055605
0.00600303
0.0482309
0.0441623
-0.0183058
0.0506166
0.0401861
-0.0311244
0.0474768
-0.0110723
0.0496572
0.00392129
0.00888779
0.00255875
0.00359036
0.0342676
0.00213806
0.000524026
0.00852555
0.00254447
0.00843647
0.0122915
0.0121433
0.012896
0.0110711
0.00752956
0.0216502
0.0106542
0.020067
0.032037
-0.0346555
0.0543533
0.0589398
0.061768
0.0423489
-0.0454
0.0535812
0.0262281
0.0215365
0.0174439
0.0263595
0.0225147
0.0272811
0.0155983
0.0245064
0.0546175
-0.00114213
0.0486538
0.0181523
-0.00794493
0.0163185
-0.0143819
0.0286887
-0.0279072
0.035969
0.000915286
0.00512022
0.0291357
0.00308714
0.00484849
-0.00424751
0.00730164
-0.002251
0.0113591
-0.00188654
0.0148024
-0.00397228
0.0165499
0.0207557
-0.0102879
0.0218261
0.00520176
0.0166236
0.0254276
0.0173225
0.0146331
0.0112324
0.0730639
-0.0142996
0.0100517
0.0501725
-0.00238128
0.043616
0.0575178
-0.00270141
0.043089
0.0432714
0.0416132
-0.0211683
0.0469445
0.0294788
-0.0404741
0.0447146
0.0344107
0.0179619
0.0557453
0.00676432
0.00584069
0.000294548
-0.00361456
0.011532
0.0123169
0.0167008
0.00180752
0.00578355
0.0101733
0.0113299
0.00672366
0.00808469
0.0128655
0.00635477
0.0157207
0.0248457
0.00945262
0.015977
0.0267267
0.0268131
-0.0391817
0.0529328
0.0326701
0.0397029
0.0441886
0.0411888
0.0462011
0.021227
-0.0486082
0.0479177
0.0117972
0.0305423
0.0229917
0.0195182
0.0250459
0.0161766
0.0168663
0.0288367
0.0150616
0.0140863
0.0491835
-0.000708604
-0.0321712
0.0547461
0.0192785
-0.0112932
0.023031
-0.0180065
0.0280058
-0.0326762
0.037672
0.000813139
0.00525277
0.0315035
0.0028071
-0.00142161
0.00794322
-0.000459891
0.0111697
0.0121741
-0.000416531
0.0193657
0.0193607
0.00270271
0.01333
0.00596847
0.018842
0.0219113
0.0151715
0.0113735
0.0155944
0.0109111
0.00653418
-0.00258986
0.0409116
-0.0124886
0.0566119
-0.013974
0.0528351
0.0258256
0.0187903
0.045391
0.0531317
-0.00389356
0.0340434
-0.000302281
0.0300592
0.0354817
0.0241581
0.0299212
-0.00311948
0.0306242
0.0209557
-0.0420172
0.0448719
0.0244772
0.0331621
0.0463159
0.00900379
-0.00114565
8.89424e-05
0.00519579
-0.00698242
0.0171487
0.010642
0.0205772
0.00227258
0.00813008
0.0112959
0.0141804
0.00580807
0.0048483
0.0145949
0.0172922
0.0183058
0.00146139
0.0173928
0.00720079
0.0144679
0.0221488
0.0267031
0.0213054
-0.0390452
0.0480978
-0.0451769
0.0410387
0.0253636
0.0415057
0.0107516
0.0189433
0.0315964
0.0357111
0.0337811
0.00986645
-0.0501816
0.0488516
0.0260104
0.00716053
0.00263701
0.0266561
0.0175237
0.0172903
-0.0045312
0.0282556
0.025011
0.0290895
0.00678973
0.0228119
-0.0243088
0.0480008
0.0232782
-0.0038675
0.0398308
0.00933907
0.0254269
-0.0125651
0.0278836
-0.0306188
0.0347999
0.00425113
0.00936816
0.0140788
0.00627291
0.0032244
0.00681609
0.00190477
-0.000578402
0.01226
-0.00854263
0.0148891
0.0161131
0.00784687
0.00977435
0.00719456
0.0112138
0.00561945
0.011521
0.0198778
0.00941401
0.0124259
0.0109558
0.015475
-0.00397937
0.024879
0.000530459
0.0277989
0.0110096
0.0502552
0.0445054
-0.00263019
0.0547115
-0.00304162
0.0321847
0.0286731
0.00527288
0.0364889
0.0500134
0.000226064
0.0278561
0.0240338
0.00847804
0.0175683
0.0233515
0.0146014
0.0130031
0.00987409
0.0145988
0.0254332
0.00236582
-0.002894
0.0246031
0.047024
0.00385345
0.040864
-0.0142089
0.0472217
0.0515174
0.00138063
0.0397711
-0.0016245
0.0102584
-0.00122055
-0.00944274
0.0236837
0.00987889
0.0157846
0.00253281
0.0015054
0.00653349
0.00496886
0.00409901
0.00964943
0.00560966
0.00687448
0.00921926
0.017823
0.0170699
0.0180924
0.0204963
0.00708191
0.0123899
0.020093
0.0192277
-0.00376371
0.0188488
0.0205919
-0.033824
0.0367131
-0.0370341
0.0443126
0.0312106
0.0165753
0.0488172
0.0149649
0.0254844
0.0350573
0.0232374
0.0116313
0.0334182
-0.030905
0.00934239
0.0178551
-0.00286237
0.0261747
0.0224641
-0.00137163
0.018283
0.0197934
0.0270503
0.0213491
0.0243074
0.00299635
0.0206859
0.0474113
0.0292331
0.043449
0.00666016
0.0199578
-0.0218987
0.0274136
-0.0281056
0.029268
0.00421625
0.0031483
0.00554921
0.0253194
0.00223844
-0.000559639
0.00740216
0.00476096
0.0119051
-0.00683714
0.0128039
0.012389
0.00561213
2.6829e-05
0.0168898
0.017957
0.00252471
0.0174625
0.0145874
0.000758276
0.0189564
0.00345036
0.0155016
0.0192086
0.0204106
-0.000490904
0.0509791
-0.0119423
0.0389388
0.00200649
-0.0180833
0.0320069
0.0491797
-0.000599899
-0.0277924
0.0381893
-0.0146385
0.0376548
0.0318336
0.000921808
-0.0118839
0.0222043
-0.015778
0.0502045
0.0219379
-0.00961442
0.0183819
0.0159017
0.0158873
0.00512264
0.016557
0.022615
0.0219422
0.0112724
0.0149927
-0.00325673
0.0232985
0.0188384
0.00456683
-0.00126606
0.0209972
0.0359919
0.0152807
-0.0133492
0.0457366
0.0183974
0.0275409
0.0455006
0.0409929
0.00221811
0.030605
0.000642814
-0.00671235
0.0145147
9.31611e-05
-0.0103294
0.0185978
0.018026
0.00666635
0.00138255
0.00148405
0.00672042
0.00535426
0.00837787
0.00485399
-0.00187197
0.0140673
0.0141883
0.0147974
-0.000840138
0.0182076
0.0160502
0.0177733
0.00156128
0.0170335
0.0167467
0.00100132
0.0176263
0.0207414
0.0169675
0.0310413
0.0181309
-0.0393156
0.0363435
0.0151041
0.0196087
-0.0345916
0.0346191
-0.00568433
0.0211091
0.0144908
0.0184582
0.0202859
0.0171386
0.00395031
-0.0398249
0.0252362
0.0167889
-0.0160667
0.0101281
0.00757713
0.0251993
-0.00365461
0.0187132
0.0268909
-0.00351425
0.0249825
0.0172924
0.0210041
0.0145971
0.0208806
0.0206466
0.00416037
0.0160635
-0.0279913
0.0467939
0.0190863
0.0203965
-0.0144164
0.0447203
0.0339959
-0.0224604
0.0277145
-0.0218785
0.0241502
0.0071461
0.0049872
-0.0013298
0.00215601
0.00294954
0.0039842
0.00855236
-0.00406733
0.00920007
-0.00309031
0.0168541
0.0108435
-0.00392735
0.0180089
0.013674
-0.0027211
0.018283
0.0146238
0.0019939
0.0145489
0.00783271
0.00855482
0.0189927
0.000291242
0.0196921
-0.00742487
0.0235299
0.0430202
-0.00926223
-0.0199333
0.0352098
0.0124835
-0.0137865
0.026745
0.0364733
-0.0203536
0.0378676
-0.00353229
-0.030208
0.0194848
0.0196153
-0.00654587
0.0192829
-0.0020887
-0.00868527
0.0272578
0.021948
0.0422618
-0.0148193
-0.0205011
0.0385603
0.029032
0.025305
0.0205589
0.014687
0.0113602
0.00688793
0.0169605
0.0206006
0.012657
-0.00707946
0.0208208
0.0029304
0.0167096
0.0126972
0.000910983
0.0144428
0.0357482
0.013949
-0.0177125
0.0384887
-0.0144334
0.0366061
0.0382774
-0.00229956
0.0392903
0.00808326
0.00788272
0.0135438
-0.00367752
0.00862018
-4.59439e-05
0.014404
0.00114346
0.00154356
0.00546815
0.00458107
0.00887444
0.000637655
0.0131862
0.00304742
-0.00278116
0.0133178
0.013512
0.00378386
-0.00233605
0.0152788
0.0151047
0.021998
0.0225111
-0.00267745
0.0206844
0.02288
0.0161042
0.0190019
-0.0247828
0.032613
0.0249312
-3.6749e-05
0.00341203
0.0162221
-0.0297536
0.0264897
-0.0177404
0.0346932
0.00954274
0.0166078
0.0231906
0.00153869
0.019197
0.0237014
-0.0371438
0.0243905
0.00940783
-0.00533284
0.00360697
0.0204774
-0.00421464
0.0233679
0.0205891
0.0230863
-0.00567849
0.0214547
0.000462498
0.0190042
0.016645
0.00309128
0.0182491
0.0167091
-0.00644811
0.0178395
0.0140538
0.0356992
-0.0262112
0.0422334
0.0257257
0.0119626
0.0348326
0.00664175
0.0268852
0.014776
-0.0135201
0.0235626
-0.0153868
0.0244925
0.00805665
0.00325359
0.0213247
-0.00457084
0.00213631
0.0012314
0.00442588
0.0060028
0.00587181
0.0069326
-0.000353638
0.0130272
0.0156608
0.012358
0.018413
-0.00596288
0.0204142
0.0154049
0.00250852
0.0191846
0.0222124
0.0113437
0.0102738
0.0262445
0.0215472
-0.00476376
-0.0404713
0.0114345
0.0263399
0.00324885
0.0196926
0.0356509
-0.036641
0.0292539
-0.0148857
0.0330502
-0.00780324
0.0154092
-0.00882851
-0.0173699
0.0251101
-0.00230563
0.0174079
0.00404168
0.0177029
0.0114479
-0.0070017
0.033203
0.041334
-0.0134597
-0.0151174
0.0254589
0.0318631
0.02132
0.015127
0.0164799
0.00285921
0.0168654
0.0249
0.00676764
0.0135018
0.019725
0.00114593
0.0157011
0.0107224
0.00490104
0.023547
0.0218329
0.0158075
0.0229573
0.021053
0.0289597
-0.00204644
0.0421749
0.0362976
0.0384719
0.00962344
0.00916447
0.0305545
-0.00533652
0.0107466
-0.000713905
0.00571846
0.000136552
0.00778235
0.000426221
0.00202604
0.00506238
-0.00531136
0.0110669
0.00184639
0.0110396
0.00160572
0.0123064
0.00259809
0.00335726
0.0085133
0.0131806
0.00444956
0.0105918
0.00925745
-0.00174092
0.0165514
0.0167882
0.00573168
0.0153891
-0.0109965
0.0199633
0.0114349
0.0137249
0.018747
-0.024705
0.0327098
-0.0210856
0.0219278
0.0207774
-0.00291495
-0.00963269
0.0166875
-0.0281743
0.019875
0.0279692
-0.0159446
0.0162442
0.00494811
0.0190638
0.0165177
-0.0155406
0.0178644
0.0113759
0.00509579
0.0215439
-0.0242267
0.0195389
0.0197115
0.018535
-0.0277976
0.0161394
-0.00308009
0.00622232
0.01012
0.00965921
0.0238314
-0.00428352
0.0195937
0.0224159
0.0128069
-0.00853581
0.0206567
0.0179586
6.05784e-05
0.0174881
0.0190893
0.0151531
0.00668968
0.0405753
-0.0172428
0.0389754
0.0296566
0.025431
0.0222159
0.0162245
0.0198249
0.0209227
0.0192946
-0.00826262
0.0205086
-0.0105284
0.015675
0.00704501
0.00279925
0.0148909
-0.00549519
0.00249331
0.00717634
0.00731521
0.0035227
0.00337807
0.00732413
0.0132803
0.0150475
0.0101178
0.0114444
0.0144902
-0.00853915
0.0170983
0.00735708
0.00258184
0.0134025
0.0162164
0.01701
-0.00261286
0.0212878
-0.00415256
0.0165765
0.0209736
-0.00424931
-0.0313231
0.0031219
0.0088205
0.0211678
-0.00119797
0.0161742
-0.029372
0.0161184
-0.0150939
0.0338866
-0.0161594
0.0175349
-0.0376883
-0.0182732
0.0169455
-0.0132402
0.00248862
0.0196354
-0.00468762
0.017129
-0.000908953
0.0203876
0.0150128
0.00516004
0.0307338
-0.00858153
0.0214372
-0.000996204
0.0235724
-0.00313841
0.0316121
-0.013715
0.018876
0.0302104
0.0227514
0.0181616
0.00984997
0.00692094
0.0142296
0.018657
0.00774837
0.0114377
0.0136414
-0.00322467
0.0189747
0.0180388
-0.000865743
0.0227329
0.0134552
0.0284325
0.0172967
0.0218621
0.0338153
-0.00487979
-0.00537717
0.030201
0.0382756
0.035677
0.00961468
0.00798748
0.0282085
-0.0123738
0.00308755
0.00438501
0.000646369
0.00163358
0.000916539
0.00385669
0.00335087
0.00718362
-0.00557956
0.0123385
0.0071224
0.000463116
0.0139389
0.0055739
0.00410774
0.00550668
0.00544105
-0.000949132
0.0147395
0.0153331
0.0198852
0.00131256
0.0141448
-0.00151449
0.0171636
0.0148806
0.0155193
0.0169431
0.0149339
-0.0248857
0.0249666
-0.0125312
0.0195709
-0.016661
0.0139743
0.019525
-0.00506328
0.0383609
-0.0265419
0.0158348
-0.0265142
0.00953404
0.0315048
-0.0168621
-0.00319337
0.0101118
0.0182934
0.00478477
0.0133462
-0.0161579
0.0136879
0.0138349
0.00475189
0.0176034
0.0168403
0.0156628
0.0170086
0.0175319
-0.0329627
0.0322254
0.00164253
0.0180625
-0.00851016
0.00329309
0.0174903
0.0141921
0.00214076
0.0224143
0.0204869
-0.0110727
0.0207008
0.0214837
-0.00941567
0.0161803
0.0159779
0.0142424
0.0068075
0.00629876
0.0228279
-0.0089772
0.0259098
0.028442
0.0275326
0.0224364
0.0207434
0.00937429
0.0313223
0.00764509
0.0292405
0.0151957
-0.00506386
0.0148278
-0.00553419
0.0028048
0.00971093
0.00319069
0.00185827
0.00431857
0.00546044
0.00147541
0.0071914
0.00451125
-0.00635181
0.0127195
0.0145687
0.00695605
0.010492
0.00901516
0.0119036
-0.00128644
0.015688
0.00232711
0.0163703
0.0115718
0.0181725
-0.00717353
0.0204503
-0.00647909
0.0202967
0.00858978
0.00718064
0.0200927
-0.00690994
-0.0251863
-0.00197854
0.0275066
-0.00504915
0.0130612
0.00165931
0.0211227
-0.00850855
0.0132149
-0.0268684
-0.00208682
-0.0132704
0.0276566
-0.0203385
0.0132883
-0.0331307
0.0248134
-0.031502
-0.0173332
0.000664348
-0.016134
0.0192554
-0.00434603
-0.0100684
0.0221044
-0.0126541
0.0157526
0.00656169
-0.00099699
0.01775
-0.00855623
0.0278573
0.0233222
-0.00575223
0.025704
-0.0294806
0.0333873
0.0150879
0.0159359
0.0173586
0.00928122
0.01173
0.00926246
0.0094512
-0.00455815
0.0186518
-0.00555998
0.0196636
-0.0150257
0.0196746
0.0310173
0.0151453
0.0100266
0.0126761
0.0155093
0.0180755
0.00701103
-0.000484031
0.021296
0.0148616
0.00457439
-2.45353e-05
0.0333932
0.0304813
0.0103108
0.00564503
-0.00946792
0.0123327
0.000163785
0.00461826
0.0021667
-0.00042803
0.0055352
-0.00624111
0.0101332
0.00590318
0.00731823
0.00639941
0.0135769
0.00347893
0.00616124
0.00303729
0.00527043
0.00791918
0.00302317
0.0141401
0.00869262
0.00598014
0.0189349
0.0156685
0.000538447
0.0122981
0.00903595
0.00984245
0.0148365
0.0123578
-0.0273518
0.0228261
-0.0245328
0.0173509
0.0214467
-0.0103441
0.0215242
0.011199
0.019602
-0.00817519
-0.0267637
0.0215625
-0.0368439
0.0200842
-0.0114255
-0.0237612
0.00256274
0.0318904
-0.0212681
-0.011018
-0.0323517
-0.00188936
0.0119111
-0.0207833
0.0193765
-0.00398268
0.0132325
0.00739778
0.00775686
0.0174195
-0.00338074
0.0215952
-0.0173387
0.018719
0.0128591
0.0128193
0.0215196
0.00569068
-0.00158197
0.0380741
-0.00965438
-0.0056688
0.0198285
-0.00524871
0.0206204
-0.0127261
0.0195718
0.0191216
-0.0102324
0.0175417
-0.0159525
0.00968617
0.0113793
0.00260751
0.0118952
0.0100852
0.0211789
0.0271146
0.023836
0.0254179
0.0208754
-0.0139519
0.018496
-0.0139752
0.0123992
0.00494637
0.0338026
0.0040969
0.0271415
0.00114996
-0.0018944
0.00882799
0.0188891
-0.00663352
0.00161747
0.00380165
0.00113129
0.000924679
0.00502018
0.0108947
-0.00150394
-0.00626761
0.0114188
0.0138939
0.00644142
0.0103064
0.00827535
-0.00154844
0.00618102
0.0127845
0.00997643
0.00301865
0.0147877
0.0133705
0.00419298
0.0169173
0.0122773
-0.00735811
0.0177989
-0.00704726
0.0153023
0.0119695
0.0016327
0.0224669
-0.0120493
-0.0180547
-0.00424956
0.0200545
-0.00443789
0.00773154
0.0189958
-0.0097002
0.0122159
-0.00927335
-0.0131516
-0.0359072
0.0212029
0.019065
-0.018137
0.00161153
-0.0251428
0.0163962
-0.0301018
0.0234169
-0.0277857
-0.0202675
0.0138197
-0.00909078
-0.0155847
0.0205067
0.0172209
-0.0111069
0.0119414
0.0038163
0.00462268
0.0159074
-0.00301021
0.0169522
-0.00841458
0.0230527
0.0142187
-0.0159101
0.0228906
0.0244417
-0.0204554
0.0111071
0.0127786
0.00591119
0.00715603
0.00984603
0.00993434
0.00553481
-0.00983289
0.017916
0.0189246
-0.00967192
0.0191466
-0.00770299
0.0171686
0.0255936
0.0148005
0.0110371
0.0117384
0.00957543
0.00755533
0.0174563
0.0131977
0.00474116
0.0113644
0.00437171
0.00365113
0.00902009
0.00142825
0.0121134
0.00720428
0.0276179
0.0348912
-0.00818122
0.0098252
0.00118439
0.00309738
0.000137647
0.00229124
0.00483703
-0.000337491
0.0010596
-0.00308321
0.00371098
0.00902664
0.00865922
0.00399091
0.013807
0.00202409
0.00718255
0.000683882
0.00640407
0.00166522
0.00388171
0.00912623
0.00206977
0.0112752
0.00200366
0.014826
0.0101085
0.00524652
-0.00943782
0.0198204
0.00871698
0.0152911
0.00525432
0.00619882
-0.0269071
0.0225948
-0.0295277
-0.0232864
0.0170615
-0.0181805
0.0239321
-0.0221898
0.0107981
0.0221659
-0.0120125
-0.0298432
0.0176689
0.0202069
-0.0363355
-0.0183891
0.0324475
-0.0135264
-0.0209485
0.00171107
0.0234537
-0.0239341
-0.0106706
-0.00925254
-0.0102693
0.0244313
-0.0132443
0.0107813
0.00604797
0.00716033
0.0236722
-0.0142871
0.0146822
-0.0123841
-0.0115653
0.0182688
0.0145337
-0.00327209
0.0132664
-0.00753394
0.0235856
0.0169475
-9.52009e-05
0.0250662
-0.0108724
0.017728
-0.00731938
0.0212051
-0.0125194
0.0172784
0.0176275
-0.0111423
0.0145187
0.00341695
0.00596873
0.0187685
-0.00196026
0.00871533
0.00706674
0.032708
0.0243714
0.0273745
0.0198896
0.0134456
-0.0102033
0.0109322
-0.00726488
0.0102256
-0.00829676
0.00798114
-0.00295382
0.0275504
0.0187046
0.0167636
0.00663433
0.0100791
-0.00686838
0.00105788
0.00272546
8.08036e-05
0.000711258
0.00044043
0.00273132
-0.00859806
0.0164638
0.0136569
0.00424098
0.00983411
0.00658331
0.00699042
0.00368505
-0.00993048
0.0107727
0.0106995
0.00373788
-0.00945444
0.012959
0.00788519
-0.010136
0.0166533
0.0129479
0.000274498
-0.0234738
0.0264093
0.0287904
-0.0249944
-0.00565286
-0.00305642
-0.0035608
-0.00290408
-0.000354296
-0.0145645
0.0114553
9.92239e-05
-0.0210681
-0.0260137
0.00512186
-0.036623
0.0202234
-0.0261832
-0.0158822
-0.0100356
-0.0286137
0.0190918
-0.0309756
0.0205071
-0.034031
-0.0188202
0.00363287
-0.0099378
-0.0198232
0.0230936
0.0175797
-0.0123714
0.00897697
0.00115852
0.0144564
0.00618487
0.00972117
0.0053672
0.00729535
-0.00578088
0.021339
0.019867
-0.00524798
0.0226092
0.0201824
0.00588003
-0.017047
0.00581803
0.00388548
0.00550307
0.0130239
-0.000845802
-0.0176777
0.0189448
-0.0122106
0.0162425
-0.0234982
0.0187744
-0.0112445
0.0180734
-0.0110366
0.0159054
0.0106414
0.0214634
0.0175944
0.00396284
0.00733617
0.0183855
0.0123271
0.00322287
-0.000440885
0.010223
0.00609665
0.0020769
0.000351089
0.00705933
-0.00138227
0.000845029
0.0118665
0.0166623
0.0287626
0.0290255
-4.7251e-05
0.000960087
0.000660566
0.00425652
0.00236856
0.000477584
0.00553503
0.012128
-0.000722886
0.0141341
0.00665325
0.00159241
0.011507
0.00229139
0.0035287
0.00505925
0.0115063
-0.0027382
-0.00467301
0.0136697
0.0145339
0.00656261
-0.00716816
0.0129067
0.0109724
0.00393083
0.00947093
-0.0203447
-0.00697507
-0.0279944
0.0179775
-0.0229871
0.0308364
-0.0375742
-0.0251627
0.020069
0.0201895
-0.0224109
0.00291974
0.0225224
-0.01406
0.0287489
-0.0311375
0.00425817
0.0319707
-0.0301276
-0.00759697
-0.0136036
-0.0210707
-0.00661516
0.0216364
-0.0346714
-0.0119194
-0.013201
-0.0305289
-0.00688417
0.0225259
-0.0212124
0.0105734
-0.00055862
0.00829571
-0.011164
-0.0200461
0.0186411
0.00449323
0.0119398
-0.00867845
0.016451
0.0115026
0.0158548
-0.00844468
0.0142307
0.0205328
0.0014586
0.0155519
0.00833878
0.00864866
0.0124659
-0.0160036
-0.000844904
-0.0133414
0.0162062
-0.0127457
0.0143188
0.0161072
-0.0121646
0.00935049
0.00457625
-0.00986544
0.00514721
0.00520197
0.0212872
-0.00769167
0.0272326
0.00180358
0.0128152
0.0200862
0.0109942
0.00967421
-0.00571767
0.00587218
0.00603415
-0.00414609
-0.0055056
0.00484468
-0.00635847
0.00298273
-0.00481415
0.00286469
0.0261333
0.00489162
0.0235651
0.0195517
0.00994808
0.00465714
0.00171388
0.00154772
0.000278616
0.00140684
-0.0126941
0.0153885
0.0105668
-0.00184733
0.010664
0.00472376
0.00496717
0.00648034
0.00411438
0.00855771
0.0179249
-0.00600254
-0.0109072
0.0149028
0.0083533
-0.000151587
-0.00990286
0.0121165
0.0148563
-0.00716498
0.0188664
-0.0281348
-0.00942686
-0.00927165
0.00495392
-0.0215976
-0.00482156
-0.0260654
0.025654
-0.0310777
0.0138029
-0.0298399
-0.0356215
0.00172025
0.0258195
-0.0366799
-0.0371777
0.0197012
0.0177202
-0.0273194
-0.0138745
-0.0233424
-0.0279448
0.0218934
-0.0382776
0.019421
-0.0285319
-0.0129821
-0.0178928
0.0149911
-0.0143602
-0.0189744
0.00521961
-0.00279972
0.00128196
0.012818
0.0150851
0.00315068
0.00394068
-0.000635372
0.0165735
0.0216625
0.0183238
0.0216506
-0.0176233
0.000282988
-0.0201953
0.00505303
0.00116548
0.000488298
0.00401303
0.0146893
-0.00694439
0.0134748
-0.010717
0.00170052
-0.0130043
0.0156585
0.0159072
-0.0127405
0.00620535
0.010586
0.0149456
0.0084486
0.0016737
0.00265481
0.0149517
0.00474878
0.00267431
-0.0035994
0.00719118
-0.0115517
0.000572857
-0.00232339
-0.000415109
-0.00511022
0.000810664
-0.00363056
-0.00418295
0.00681862
-0.00866206
0.0170523
0.0103204
0.024147
0.011926
0.0102316
0.027504
-0.000222172
0.0019261
0.000219432
0.000763712
0.0169335
-0.00997579
0.0109711
0.0137326
-0.00690912
-0.00408325
0.00728546
-0.00254746
0.00721034
-0.000440948
0.00335394
0.0150651
-0.011059
0.00662048
0.00142352
0.0142632
-0.00833449
0.0113475
0.00318321
-0.0258606
-0.00494554
-0.0385375
-0.0252691
0.0138348
-0.0230529
-0.0252611
0.000670714
0.0225387
-0.0303294
-0.00686445
-0.00899082
0.0217919
-0.0101364
-0.0339877
0.00126631
-0.0203128
0.028943
-0.0301602
-0.0144473
-0.0109616
-0.0170634
-0.0158003
-0.0129697
0.00061784
-0.0269956
-0.00865719
-0.0213652
-0.03304
0.00172287
0.0063844
-0.0266168
0.00619193
0.0216399
-0.00853432
0.00477718
-0.0127207
0.0161303
0.0169835
-0.0221067
0.0179155
0.00646073
0.00762659
0.0210581
-0.00306117
0.00827172
0.0202022
0.00335087
-0.00496988
0.0246957
0.0182394
-0.0170231
-0.013743
-0.00614752
-0.0144597
0.0171229
-0.0123192
0.0115503
0.0146771
-0.0162992
-0.0123335
0.0138976
0.000292292
0.00597104
-0.0218571
0.0088974
-0.0165527
0.0158614
-0.0264772
0.0103591
0.000843041
0.0183972
-0.0147025
0.0209828
0.0156653
0.0101232
0.0135473
0.00500226
-0.0105806
0.0125383
-0.017182
0.0037731
-0.0033181
0.00247445
0.00338895
-0.00243532
-0.00388121
-0.00101025
0.00193046
-0.00886708
-0.00961467
0.0300146
0.0170673
0.00671369
0.0262096
0.0193154
0.00854791
0.00203631
0.000868315
-0.00131995
0.00101712
0.0149186
-0.00836831
0.00660769
0.00302464
0.00291092
0.00496763
0.00108889
-0.000674026
0.0181598
-0.0146282
-0.0198598
0.0158265
0.00596716
-0.0129354
-0.0105837
0.0116767
-0.032679
-0.0353528
-0.00712324
-0.0195091
0.0135317
-0.039973
0.0297974
-0.0325402
0.0203271
-0.0301563
-0.028896
0.0172065
-0.0280462
0.0156781
-0.0343777
-0.0351485
0.0114721
-0.0280442
-0.00444088
0.0219612
-0.0396048
0.0239564
-0.0378293
0.0189661
-0.0388142
0.00969483
-0.0248389
-0.0385281
-0.0384198
-0.0258424
0.00220628
-0.0263066
-0.0228621
0.0206915
-0.0166865
0.0104781
0.0243586
-0.0221338
0.00262379
-0.00775913
-0.000909313
0.011054
0.00826112
0.00486832
0.0018075
0.00713402
0.00350988
0.0199144
-0.00541461
0.0255037
0.0298267
0.00677294
-0.025447
0.00892825
-0.0167851
0.00130392
0.00270488
-0.00691042
0.00123178
-0.0150551
0.0131326
-0.0115686
-0.00948062
-0.0140844
0.0187459
-0.0112976
0.0170125
-0.000554138
0.00231719
0.016346
0.0158482
0.00273974
0.00290359
0.000362256
0.00973612
0.00491971
-0.00600314
0.00138813
-0.016226
-0.0148627
-0.00681347
0.00965702
-0.0113606
-0.000363776
-0.00235464
-0.000265513
0.00242223
-0.00475528
-0.00892296
0.00248533
-0.0156177
0.0182243
0.0127896
0.0256729
0.0229046
0.00184478
0.0271302
0.000986252
0.000198272
-0.0174572
0.00574631
0.00823737
-0.00464437
0.0125664
-0.0149159
0.00841716
0.00306074
0.000506271
0.00299631
-0.0184269
0.0131422
-0.0054679
-0.00602751
0.0160083
-0.0141125
-0.0017563
-0.0330764
-0.00337762
-0.0438072
-0.0271213
0.00499226
-0.0158319
-0.013832
-0.0265722
-0.00839824
-0.0113494
-0.0279307
-0.00509997
-0.0136126
-0.00959006
-0.0185754
-0.0278767
-0.0187902
0.0246551
-0.0312264
-0.0200039
-0.0187951
-0.0159957
-0.0192251
-0.0319819
-0.0103276
-0.0368005
-0.006054
-0.0376896
0.0140205
-0.0433558
0.0112624
-0.0307542
-0.0139371
0.0180686
-0.0174184
0.00842447
0.022575
-0.0266498
0.000247262
0.0123578
0.0111001
-0.000898598
0.00674614
0.00725525
0.0219874
-0.00612371
0.00092717
0.00684505
0.0195536
0.0138929
0.0171529
-0.0222729
-0.00421279
-0.0145474
-0.009988
-0.00732725
-0.0213996
0.0196771
0.0155084
-0.0149767
0.00604582
-0.0157694
0.0145352
-0.005893
-0.0215232
0.0059604
-0.0210361
0.00909093
-0.0186765
0.00205257
0.00759773
-0.0219073
0.0146254
-0.0176838
-0.00377635
0.0175046
0.0128266
0.00838911
0.00301282
-0.00146788
-0.0171966
-0.0171689
0.0125624
-0.0242587
-0.0255095
0.00843552
-0.00148544
0.0011074
-0.00206884
-0.000770786
-0.00153935
-0.00397335
-0.00537849
-0.00486844
-0.00477836
-0.0129255
0.0272927
0.0205282
0.00471768
0.0164877
0.0212232
0.0209488
0.00644048
-0.000358213
-0.00168969
0.000803193
-0.0164683
-0.0119274
0.00337689
-0.00321373
-0.008136
0.00608839
-0.000480064
0.00452974
0.000400193
0.00599797
0.0141324
-0.0257894
-0.0210385
0.00190517
0.0170483
-0.0258397
-0.032811
-0.0309933
-0.0168618
-0.0253619
0.0220802
-0.0406245
0.0171601
-0.0333583
0.0276212
-0.0387118
0.0170578
-0.0309448
0.0176985
-0.0247218
-0.0312047
0.014888
0.0157602
-0.0282076
0.0208308
-0.0432989
-0.0268336
-0.00329367
0.0131191
-0.0338163
-0.0199625
0.0236607
-0.0475248
0.0168419
-0.0383165
0.0280801
-0.0476418
-0.0249031
0.00346331
-0.0417354
-0.0448638
-0.0268366
-0.0263901
0.0223141
-0.0130639
-0.0179354
0.00595977
0.00227064
-0.0149953
-0.0223351
-0.00757723
-0.00220738
0.015664
0.0104799
0.00116536
0.00373737
0.00458572
0.0134566
0.0103973
-0.0098722
0.0246004
0.0049099
0.016004
-0.0304917
0.00901331
-0.02541
0.00736067
-0.0158983
-0.0094237
0.00144982
-0.0190966
-0.0271309
0.0160149
-0.0261911
-0.0117681
0.0192195
-0.0197588
0.0227041
-0.0177497
-0.00532297
0.00231702
0.003291
0.0102944
0.0118756
0.00148874
0.0018603
0.00523754
-0.00793657
-0.019337
0.0119576
0.00771215
-0.0290729
0.00343769
-0.0233625
-0.0182882
-0.0201554
-0.0160251
-0.00139432
-0.00278976
-0.00113916
-0.00322367
-0.00768915
-0.0114073
0.00406346
-0.01876
0.0137102
0.0141171
0.0252657
0.0189322
-0.00476624
0.0236165
-0.00370897
0.0202501
0.00037017
-0.00103913
0.0009066
-0.00841091
-0.00786248
0.00898237
0.0115783
-0.0183151
0.0107576
-0.0249675
-0.00964055
0.00643002
0.00333776
-0.000406189
0.00260585
-0.019922
-0.0183804
-0.0302019
0.00940972
-0.0452025
0.0198299
-0.0397293
-0.00594481
-0.0262535
-0.00867869
-0.0321851
-0.0168065
-0.0152938
-0.027079
0.000236812
-0.0159572
-0.0238713
-0.0254251
0.035136
-0.041032
-0.0012967
0.0145356
-0.0371798
-0.0337549
-0.0137113
-0.0367277
-0.0381071
-0.00695619
-0.0323616
-0.0162111
0.012944
-0.0437774
0.016223
-0.0462383
0.0189665
-0.0349878
0.00731218
-0.0273767
-0.0186562
0.023639
-0.0244629
0.00591886
-0.0209451
0.0113087
0.00477396
0.0124353
0.000740041
0.0106851
0.00426661
-0.00317335
0.00536921
0.00306241
0.00152734
0.01958
0.0162653
-0.00557836
0.00427493
0.0212379
0.0209787
-0.023332
-0.0191801
-0.0130191
-0.00369017
-0.0224517
0.00997081
0.0181426
-0.0196462
-0.00416933
-0.0103339
-0.0220194
-0.011851
0.0119522
-0.0264354
-0.0106437
-0.0212085
0.000527011
-0.0293071
-0.022814
-0.00531652
0.0126812
0.00807753
0.00171621
-0.00218105
-0.0286304
-0.0211606
-0.0378479
0.0139811
0.0152562
-0.0397205
-0.0338591
0.0109797
-0.00094558
-0.000378481