/*--------------------------------*- C++ -*----------------------------------*\
| =========                 |                                                 |
| \\      /  F ield         | OpenFOAM: The Open Source CFD Toolbox           |
|  \\    /   O peration     | Version:  v2012                                 |
|   \\  /    A nd           | Website:  www.openfoam.com                      |
|    \\/     M anipulation  |                                                 |
\*---------------------------------------------------------------------------*/
FoamFile
{
    version     2.0;
    format      ascii;
    class       volScalarField;
    location    "742";
    object      nut;
}
// * * * * * * * * * * * * * * * * * * * * * * * * * * * * * * * * * * * * * //

dimensions      [0 2 -1 0 0 0 0];


internalField   nonuniform List<scalar> 
61389
(
1.88008e-31
7.71537e-29
1.11225e-38
1.54889e-21
4.51648e-31
1.88975e-26
2.17253e-30
5.01868e-28
5.22883e-26
3.65034e-22
4.19686e-20
8.81946e-34
6.23888e-40
6.45745e-37
2.9572e-25
4.01333e-18
9.69054e-35
1.95793e-27
1.45792e-22
1.90509e-20
7.27958e-30
1.33641e-35
2.82727e-20
2.53191e-17
4.51592e-18
2.52169e-27
2.27799e-33
8.81188e-21
3.49209e-32
1.24236e-27
1.84582e-22
1.487e-23
1.04764e-16
3.57839e-39
4.16012e-22
2.1591e-20
5.0537e-18
5.8414e-32
1.60531e-20
1.77142e-22
9.7979e-19
2.88738e-27
1.09812e-30
1.55685e-25
3.81871e-26
1.03313e-17
1.37659e-29
1.45157e-25
1.25918e-26
1.33301e-28
5.89128e-23
2.85839e-41
5.96587e-33
5.18116e-23
2.12675e-31
9.82569e-27
2.83743e-31
4.77658e-32
1.5977e-22
2.68439e-28
2.37402e-23
1.18854e-26
2.10417e-21
1.92087e-22
2.77791e-21
1.11993e-24
5.6077e-34
4.82808e-24
3.24211e-22
1.08831e-44
9.72792e-24
8.4354e-23
2.99313e-28
1.61942e-23
1.18475e-31
3.72327e-33
3.42719e-28
1.27598e-25
8.00609e-26
5.29892e-29
1.46409e-28
3.20312e-19
3.22115e-25
8.70254e-30
5.0295e-31
4.1028e-34
3.24929e-33
3.2494e-36
1.15464e-35
5.07112e-19
1.24902e-23
3.85626e-30
2.49981e-16
1.85326e-26
2.46615e-13
1.5233e-12
3.32306e-14
7.42866e-15
1.38874e-13
2.22534e-12
2.44706e-13
8.34053e-15
1.19773e-21
2.44513e-19
5.70239e-07
0.0148679
0.00130374
7.13558e-09
1.96062e-16
9.2153e-17
5.78847e-16
1.56195e-14
4.3209e-15
2.67874e-13
3.64967e-15
4.66997e-16
1.02034e-14
4.86392e-14
1.35403e-13
1.30049e-12
3.97832e-20
4.8813e-14
7.71621e-13
0.0017566
0.995507
2.0061e-07
0.00181457
0.99433
6.69424e-11
2.75734e-14
1.47385e-11
6.2345e-14
4.14754e-12
1.76013e-15
8.63848e-15
2.82626e-12
0.000289119
0.000288984
0.000290738
0.000290862
0.000289939
0.000289792
0.000291553
0.000291641
0.000298063
0.00029745
5.6154e-18
2.65461e-19
0.000293211
0.000293244
3.08406e-15
1.33055e-15
0.000312053
0.00027809
0.000291366
0.000294218
0.000293155
0.000293819
0.000293912
6.78857e-16
2.89136e-13
0.000293335
8.30566e-16
5.32941e-17
0.000293562
0.000293376
0.000297175
0.000297242
0.00101863
0.00012576
4.28557e-17
3.87883e-16
1.81039e-22
3.83098e-27
0.000301366
0.000276932
0.000242823
0.000298946
0.00029895
0.000298939
0.000299011
1.55224e-16
8.41909e-16
0.000301278
0.000300639
0.000300924
0.00030087
6.18667e-19
7.72573e-22
1.88712e-26
2.92078e-27
9.34771e-16
2.91308e-16
2.51077e-16
1.29596e-14
5.78101e-15
2.16785e-15
5.33718e-18
2.99542e-17
5.68437e-24
8.23202e-27
6.58109e-29
1.40548e-29
4.15366e-30
1.54557e-16
2.96891e-15
3.21231e-22
5.96593e-21
4.29067e-27
2.01433e-26
4.7133e-29
1.31255e-28
1.06062e-16
4.12328e-19
2.89025e-20
4.31307e-15
3.46267e-15
9.55538e-21
2.48543e-21
6.15206e-25
3.82813e-24
5.99738e-17
3.85205e-16
3.5834e-15
8.38637e-15
2.68965e-15
7.6606e-20
2.34014e-16
1.04815e-16
7.65089e-17
4.18808e-24
3.69055e-25
2.54082e-25
5.66819e-16
5.96242e-17
2.30958e-24
9.34997e-25
1.26793e-23
2.10757e-23
2.59496e-24
2.16442e-25
6.24035e-25
2.67823e-26
1.53504e-33
7.21367e-31
1.00147e-37
1.05374e-33
4.95693e-22
2.11362e-23
5.61326e-24
1.66011e-24
1.21102e-29
7.53673e-31
5.8495e-37
3.05399e-41
2.01617e-24
2.28037e-34
1.73537e-34
2.64295e-25
1.49754e-24
1.87355e-27
5.56458e-25
1.34281e-22
1.26332e-22
1.53729e-25
1.71036e-25
9.95463e-32
6.66683e-31
3.94278e-27
3.70155e-25
6.52139e-26
1.05825e-30
1.36489e-26
4.08329e-33
9.15774e-27
6.54534e-33
5.04465e-33
4.42021e-34
9.32637e-33
1.01444e-22
6.25021e-24
6.64394e-23
6.20455e-22
5.13033e-23
2.27819e-24
1.23465e-31
3.89612e-32
4.41023e-24
6.22658e-27
1.719e-28
3.93253e-30
9.19415e-23
4.98162e-28
4.65282e-26
3.56216e-36
5.93835e-36
4.26372e-15
3.39872e-13
5.99242e-27
8.37598e-25
9.26025e-25
3.15072e-23
1.78547e-41
2.19207e-40
6.7681e-23
9.14717e-24
4.55563e-28
3.91164e-28
3.19045e-23
4.38218e-29
5.00627e-27
1.89472e-26
6.425e-26
2.03912e-25
1.83141e-38
3.93036e-30
6.84608e-14
2.39934e-13
0.000301768
0.000302224
0.000301043
0.000301102
0.000300049
0.000300034
0.000256657
0.000300527
0.119931
0.0976821
1.67451e-16
2.52276e-16
0.000297184
0.000297333
1.51465e-24
1.9678e-26
0.000297768
0.000297587
0.000296695
0.000296661
7.07691e-20
5.9552e-23
0.000292586
0.000292887
1.98391e-15
1.5672e-16
1.50304e-22
1.30505e-23
0.000307713
0.000286934
2.77458e-14
4.08465e-14
3.46673e-16
4.82636e-15
1.16116e-14
5.25511e-15
5.38297e-19
2.90001e-19
0.000309075
0.000296807
0.000284774
0.000287413
0.000291406
3.3697e-21
3.37952e-20
3.28607e-19
0.000272764
0.000268309
4.46371e-15
7.71913e-18
0.000288607
0.000286419
3.31227e-22
1.39712e-22
6.78077e-23
0.000260734
0.00111918
0.00026094
4.3027e-14
9.1307e-15
1.36421e-14
5.96928e-15
5.84738e-13
2.37544e-14
9.41548e-14
1.40849e-15
5.64427e-18
5.79749e-13
5.01207e-15
1.60297e-12
1.26535e-13
2.59057e-14
3.23251e-13
1.14398e-14
6.44727e-13
6.9008e-12
4.72305e-13
4.52876e-14
4.2793e-15
5.05734e-16
2.68756e-14
1.78207e-15
3.32417e-14
5.22747e-16
1.21746e-15
5.04444e-14
2.10579e-14
2.10773e-15
9.57679e-15
1.26697e-16
6.6027e-16
4.95999e-15
2.18547e-14
3.36952e-14
4.86161e-15
3.18298e-17
2.36391e-16
1.89239e-14
8.55742e-15
0.00028551
0.000285485
1.34584e-13
1.23238e-15
1.5289e-14
0.000141751
6.24604e-16
6.32253e-15
0.00028542
0.000285216
1.04941e-12
4.83395e-12
0.00028497
0.000284961
0.000288657
0.000288636
0.000288405
0.000288468
1.20044e-13
1.04693e-12
0.00028521
1.35039e-17
1.47404e-17
0.000286925
0.000286656
2.10454e-13
1.31737e-13
7.57628e-13
5.25218e-36
1.06939e-09
1.54273e-12
5.04483e-15
2.05119e-20
7.20757e-20
0.000288991
0.000289121
0.000289147
3.32298e-14
2.51932e-16
1.37566e-16
0.000288601
0.00118764
0.000327452
6.58846e-15
7.74097e-15
0.000288405
0.000288194
6.55515e-15
1.72539e-15
1.04544e-12
2.14051e-14
1.55011e-14
2.65501e-15
3.68762e-16
1.93002e-16
5.7185e-17
0.000289238
0.000289275
0.000289715
0.000289814
2.39145e-13
1.03384e-13
5.31268e-15
1.40481e-15
1.26104e-15
1.52172e-15
2.82735e-15
3.87176e-14
0.000289883
0.000289984
7.20206e-13
6.06158e-13
1.88404e-18
0.000287339
0.000290823
0.000290919
0.000291093
0.0002886
0.000290072
0.000290187
0.000290395
0.000290085
0.00029006
4.71447e-16
1.81546e-14
2.97888e-16
6.39706e-17
0.000296754
0.000296484
0.000283228
0.000253673
0.000295781
0.00029482
0.000292611
0.000292629
0.000291132
0.000291194
0.000290425
0.00029048
0.000294771
0.000294627
0.00029151
0.000291471
0.000292779
0.000292938
0.000293058
0.000293122
0.000293053
0.000291988
0.000292031
3.26535e-16
0.000292793
0.000292749
0.000291795
0.000291703
0.000290521
0.000293762
0.000292147
0.000291975
2.37151e-14
1.12356e-13
1.69672e-19
7.04388e-23
3.41419e-37
1.78307e-36
0.000290687
0.00029329
0.000293211
0.000293347
0.000293453
0.000292939
0.000293069
0.000294426
0.000294607
0.000293618
0.000293907
2.94506e-25
1.62816e-24
2.49069e-15
1.11254e-16
9.19707e-24
7.2415e-19
0.000294242
0.000294549
3.21843e-32
1.80324e-31
5.44426e-24
3.14118e-22
8.53212e-17
4.3438e-17
1.51784e-16
0.000293849
7.89373e-16
7.26573e-13
2.75221e-14
0.000295028
0.000295042
1.80496e-14
1.8677e-13
0.000294904
0.000295023
0.000294195
3.8632e-14
1.78747e-11
0.000296569
0.000296649
0.000294491
0.000296088
0.000296186
4.20318e-15
1.18123e-15
1.4046e-16
1.66005e-14
0.000296276
0.000296361
0.000302364
0.000308791
0.00029599
0.000296006
0.000295887
0.000297104
0.000297182
2.68683e-23
3.27982e-24
1.39415e-15
3.26167e-12
1.3536e-15
0.00087732
0.000296534
0.000296463
8.25668e-17
3.35198e-16
0.00029762
0.000297633
2.27365e-16
1.30163e-16
0.000296328
0.000296335
1.25314e-13
4.72129e-14
9.64079e-15
0.000297529
0.000297493
0.000295131
0.000296376
4.22939e-17
0.000297223
2.01462e-16
4.16184e-17
0.00029889
0.000298778
0.000298882
0.000298826
6.669e-17
3.42397e-16
3.28153e-28
1.6767e-27
0.000297726
0.000297579
5.08076e-16
7.31133e-17
5.53884e-16
0.000299348
0.000299437
0.000300542
0.000300527
0.000300533
1.48747e-20
2.81813e-21
0.000300024
0.000299768
0.000301015
0.000301103
0.000300923
0.000300154
0.000300272
0.00028989
0.000303805
1.85697e-14
6.13203e-16
6.4442e-09
1.18651e-11
4.36541e-23
5.97958e-22
9.0898e-23
1.59486e-20
0.000298818
0.000302179
0.000302135
0.000302198
1.12604e-18
7.54118e-16
2.15425e-16
1.18546e-16
1.45595e-16
2.02468e-20
2.41548e-17
0.0102842
6.37781e-11
2.00859e-11
0.000299904
1.02269e-19
1.99069e-20
0.00030157
0.000301613
0.000300082
0.000302441
0.000302437
0.00030141
0.000301417
0.000299786
0.00030172
0.00030166
6.43721e-14
5.15758e-17
1.71441e-16
9.96477e-16
3.73529e-16
7.50318e-14
6.56232e-17
1.51424e-13
5.98835e-29
1.11761e-29
7.88586e-21
6.82616e-18
7.51121e-19
5.44892e-16
2.61923e-15
1.04965e-20
2.38263e-19
1.17046e-24
0.000301311
3.05559e-17
4.89375e-19
1.43891e-15
4.67015e-15
2.58103e-21
6.59542e-22
4.83599e-14
4.44897e-13
1.40466e-15
2.94046e-12
5.06014e-27
6.11329e-17
2.57296e-17
6.86583e-16
1.93831e-15
0.000301143
0.000293555
1.92067e-17
8.17925e-18
5.27865e-17
1.51923e-17
1.16588e-26
2.07553e-28
1.22129e-15
6.1973e-16
6.25615e-18
3.28012e-17
5.00287e-28
4.23638e-37
3.65953e-19
5.63781e-20
1.65179e-19
8.46344e-19
1.67279e-16
2.6167e-17
9.43821e-18
1.20731e-15
1.17136e-17
3.14296e-17
1.48643e-15
6.5463e-16
1.86667e-43
7.64648e-39
5.73965e-23
1.71105e-22
9.03944e-17
2.2613e-14
3.09704e-14
7.74063e-17
3.56697e-15
1.41268e-15
1.82995e-15
1.93356e-50
1.86571e-18
2.85055e-17
1.93328e-16
3.94284e-16
3.53157e-30
1.33646e-29
4.59833e-21
5.33554e-27
2.96082e-27
4.99304e-21
8.66955e-19
1.3478e-22
1.10358e-16
3.85485e-17
2.53551e-44
7.54894e-36
2.43583e-21
7.49797e-16
1.72782e-16
1.47608e-18
4.71985e-19
1.59336e-20
1.05184e-23
7.43171e-28
4.25093e-27
9.04066e-26
2.54963e-17
8.96973e-41
1.9041e-28
6.56088e-16
1.93587e-15
1.94407e-14
8.21222e-15
7.79456e-19
1.12037e-15
2.64447e-15
3.64085e-27
2.37845e-26
2.90383e-22
6.4519e-24
0.000302895
6.34171e-28
4.31536e-27
2.72242e-17
8.73538e-32
5.08539e-31
2.1858e-13
2.7416e-29
5.95885e-34
2.02749e-28
1.22264e-28
1.12571e-23
1.78349e-18
4.48454e-20
4.56624e-31
5.30979e-32
4.03783e-27
2.43882e-27
2.70002e-21
6.1463e-22
6.13303e-34
3.93954e-34
7.99083e-16
6.29217e-16
3.42064e-14
2.87233e-16
2.45754e-16
1.23302e-33
3.25777e-31
7.37075e-23
5.36401e-27
5.39782e-26
4.97761e-22
3.64381e-17
4.37299e-16
1.98926e-20
1.16952e-19
3.76702e-15
6.51745e-24
1.01935e-24
6.16267e-27
9.42137e-28
1.75913e-17
7.5104e-18
5.71097e-25
3.2707e-24
3.1988e-37
6.61909e-38
1.41479e-25
4.14557e-30
1.22741e-22
7.01131e-24
7.78188e-29
9.39089e-34
2.27141e-17
8.5791e-18
6.81164e-22
4.497e-21
1.66779e-25
9.96705e-30
2.34611e-19
1.35639e-18
2.394e-39
8.13714e-32
4.32998e-31
3.44049e-16
2.10584e-17
2.01944e-21
7.16171e-22
7.04056e-33
7.43259e-34
8.01026e-22
1.06975e-28
5.96993e-25
2.7044e-25
1.56619e-30
1.95258e-25
5.52407e-15
1.62837e-15
2.07972e-16
4.94323e-20
2.09629e-20
1.06694e-20
1.36497e-24
6.1158e-17
2.36089e-16
6.2907e-28
2.74226e-23
5.38409e-26
3.51469e-36
2.54415e-29
5.40054e-25
2.36051e-26
6.65044e-16
3.73331e-15
2.93508e-22
3.35804e-27
1.52103e-22
4.39717e-30
2.68284e-25
5.47858e-45
1.61058e-39
7.19794e-42
8.25683e-43
9.32979e-33
1.4114e-33
3.72565e-26
1.02087e-17
2.73866e-17
2.77324e-33
3.19802e-32
2.85334e-22
7.61189e-22
2.8695e-26
1.02276e-26
1.54998e-27
7.97509e-25
2.09348e-24
1.13248e-16
1.25758e-16
6.90872e-24
4.29415e-23
1.73013e-37
1.03774e-37
1.44095e-15
3.13159e-23
1.60419e-22
6.89745e-26
2.76663e-30
7.48483e-26
2.65229e-26
9.09735e-30
1.49479e-30
2.47088e-21
1.51433e-20
5.4567e-32
8.47345e-33
2.698e-17
1.62769e-25
5.60408e-26
1.58202e-16
1.72461e-17
1.46023e-27
9.1477e-27
6.0783e-26
4.93123e-17
2.23434e-15
1.14058e-31
1.75188e-32
3.32775e-28
7.63166e-33
1.32763e-33
7.00118e-37
1.97429e-32
2.0899e-22
3.83029e-23
6.56557e-23
7.68593e-21
8.90664e-22
5.19262e-21
8.55045e-23
3.84004e-23
5.97645e-29
1.81813e-27
2.00433e-24
1.80079e-28
1.08397e-27
2.06638e-44
2.08575e-34
4.68031e-28
2.83278e-29
1.18279e-20
1.86977e-27
7.19156e-29
6.69065e-33
4.68759e-21
1.23651e-39
2.47507e-28
4.82868e-37
9.70805e-30
3.4784e-21
1.6295e-25
2.94211e-26
4.88055e-27
9.5938e-29
1.07912e-29
1.90156e-24
6.10982e-23
1.16408e-23
3.05737e-24
2.17726e-23
1.50543e-27
5.7298e-37
2.42868e-29
1.65966e-28
8.39305e-31
1.14275e-33
1.86231e-31
3.19659e-24
7.58536e-25
4.11905e-24
1.23715e-35
6.98319e-35
3.56507e-34
5.08046e-25
1.42593e-21
1.83693e-22
1.58027e-35
2.25512e-44
4.61548e-23
8.79164e-24
2.06336e-22
3.89766e-20
4.7148e-20
4.93895e-25
7.4054e-23
3.25639e-22
7.42244e-29
2.03104e-34
5.27505e-23
1.24103e-21
2.15212e-33
2.60066e-28
1.57725e-32
7.50261e-33
2.92318e-28
9.68879e-29
1.4847e-29
7.44595e-31
5.07501e-31
1.79504e-33
2.2712e-24
1.01445e-23
1.35417e-27
1.33477e-35
5.86888e-33
2.41693e-34
2.61746e-39
1.14105e-31
4.4708e-28
2.97284e-28
4.26408e-24
5.23732e-22
3.20247e-31
1.21624e-32
9.18491e-20
3.37249e-20
1.73621e-23
4.78892e-23
6.91147e-27
4.47173e-26
2.51825e-31
9.50022e-31
3.86964e-23
2.27423e-22
1.32787e-34
2.5749e-35
7.80232e-27
1.1589e-27
8.58227e-30
4.17866e-32
2.84579e-23
1.7267e-24
6.47157e-27
2.54826e-34
1.86368e-27
2.06489e-30
4.41825e-34
3.68825e-37
1.27348e-35
5.24464e-26
1.24996e-26
4.62598e-32
1.04769e-33
7.21258e-33
1.10832e-33
4.11777e-21
2.70724e-22
4.67647e-39
1.77572e-37
6.41428e-46
4.91871e-39
1.18169e-16
9.53421e-16
4.01259e-32
6.27179e-30
5.56916e-16
1.3456e-15
6.49131e-27
1.43985e-28
4.41009e-16
9.93439e-17
4.97001e-33
1.02158e-25
1.26596e-35
5.0464e-45
7.98062e-16
3.64958e-15
2.43045e-27
1.52337e-26
9.30642e-26
1.21523e-27
1.35228e-23
7.71692e-19
8.82893e-24
3.45706e-22
6.82559e-17
4.08952e-17
1.58962e-28
5.82662e-29
1.94978e-34
4.95868e-32
8.85347e-31
6.36838e-42
1.45046e-23
2.15049e-27
2.35673e-16
4.12238e-18
3.10281e-22
1.27713e-21
7.67825e-32
5.05721e-34
2.21937e-17
7.71502e-16
2.89187e-28
1.80064e-30
1.11494e-14
1.28749e-38
4.83937e-37
1.33625e-23
1.2228e-23
5.06851e-27
3.38441e-33
3.40213e-27
4.83818e-38
1.76411e-24
5.12728e-23
1.44089e-32
8.26467e-32
7.45763e-15
4.9963e-17
4.52851e-42
1.26734e-40
6.39388e-23
2.1318e-26
2.1975e-32
1.34701e-25
2.16619e-15
2.088e-18
2.063e-29
6.14852e-31
1.04799e-16
3.52123e-16
8.98385e-35
3.16265e-16
4.95797e-15
3.67186e-24
5.10351e-17
5.13257e-31
7.35458e-25
3.89955e-28
6.25403e-29
8.27023e-32
1.62109e-21
2.34328e-29
9.07626e-31
5.89465e-37
1.24816e-28
1.09292e-20
3.37343e-25
2.57154e-35
8.45547e-38
3.80087e-29
8.6225e-29
2.24336e-25
2.67857e-27
6.90995e-35
6.86801e-29
4.11246e-17
2.71096e-17
2.49115e-17
1.01834e-14
5.76052e-26
3.76572e-33
9.70156e-25
2.08116e-23
7.61969e-14
8.10153e-15
1.10211e-30
6.829e-24
1.5013e-29
9.06072e-24
1.74607e-22
6.62683e-24
1.06071e-25
2.9254e-26
5.27512e-22
3.78988e-16
1.123e-22
2.31541e-21
2.94195e-34
6.05269e-34
4.86131e-30
1.9172e-22
1.28128e-16
1.59856e-19
9.94932e-24
2.59864e-25
3.95866e-22
1.13803e-25
4.27111e-20
3.69665e-21
3.54718e-25
4.2246e-25
3.22262e-16
1.51498e-16
1.83648e-36
4.1728e-38
4.45607e-22
9.96237e-24
3.40068e-25
3.92653e-25
4.15857e-15
1.66518e-15
1.17037e-21
4.28496e-23
1.93001e-28
1.13753e-24
1.35577e-32
9.12012e-26
4.16466e-24
1.87e-22
2.85155e-24
1.12833e-20
1.13927e-27
3.53238e-25
1.24689e-26
3.89529e-34
4.52097e-22
5.5031e-26
5.94228e-23
3.9658e-25
1.27405e-13
8.46887e-13
1.78273e-21
1.38724e-20
9.15856e-30
8.69997e-30
5.33954e-16
2.52174e-16
9.34477e-20
8.23367e-22
4.53293e-26
4.44239e-27
9.93431e-21
1.30617e-23
7.12813e-30
1.65283e-29
9.64232e-37
4.05316e-37
5.25317e-17
1.26741e-17
4.91055e-25
4.94326e-24
6.28335e-21
5.32983e-37
1.23598e-36
8.04325e-26
5.56552e-24
2.68942e-25
6.56255e-30
2.65837e-21
8.03055e-23
7.05862e-30
4.24398e-30
1.34733e-29
5.32444e-24
7.2941e-30
7.06221e-30
1.70871e-23
9.90674e-24
4.8534e-15
3.54146e-23
3.35973e-24
4.30153e-22
1.47418e-20
3.42266e-25
3.36818e-36
1.62036e-29
5.31422e-29
1.2213e-25
1.69158e-25
8.37124e-30
8.07743e-28
7.19241e-31
3.88237e-22
7.08592e-23
2.2836e-29
5.78329e-30
5.0187e-28
1.14985e-25
1.60635e-30
5.84698e-24
9.12274e-15
1.38638e-16
5.13809e-14
8.90808e-16
7.35088e-22
1.44099e-27
1.26957e-26
2.38267e-20
2.45063e-15
1.07671e-16
2.49466e-35
1.01329e-23
8.89327e-32
9.04491e-31
2.09608e-17
1.04776e-15
1.30809e-33
3.13886e-31
9.32986e-27
2.6348e-30
3.32366e-16
7.75559e-15
7.93203e-17
3.53164e-21
2.42336e-29
3.08925e-25
5.52833e-45
1.59186e-42
1.57285e-20
9.7424e-23
6.37433e-23
1.88758e-24
6.41317e-22
8.88946e-24
2.33482e-43
5.5325e-45
2.48536e-29
4.51087e-15
2.40632e-19
3.46923e-20
5.97713e-22
1.05181e-22
2.30833e-30
3.92199e-31
6.34684e-25
3.20233e-25
6.02247e-35
1.37602e-51
5.4141e-18
7.70859e-22
9.53994e-21
4.38105e-23
9.89001e-27
1.81273e-34
8.22314e-17
1.18835e-22
1.16101e-21
2.45354e-15
5.46823e-15
5.86544e-17
9.65037e-17
8.80206e-17
2.08597e-16
2.88934e-17
7.60958e-18
1.62317e-16
6.91937e-17
3.13861e-20
1.34698e-16
3.20483e-17
3.09764e-17
9.52063e-24
2.20016e-24
4.53822e-17
4.60562e-17
1.11922e-17
1.34802e-18
9.34919e-19
6.72954e-20
1.14192e-16
8.48388e-17
5.62263e-17
2.31575e-16
1.3069e-18
1.64976e-20
2.30141e-14
9.00527e-17
1.8437e-27
1.27947e-26
8.68209e-25
5.89414e-26
3.27907e-16
1.0186e-16
9.28192e-35
1.07366e-22
1.19468e-16
8.45113e-17
1.47134e-15
2.24809e-17
4.82068e-17
1.18078e-17
4.44037e-25
7.39604e-23
3.62717e-16
8.66615e-17
2.15896e-17
5.24693e-16
5.02761e-18
4.65727e-16
8.37614e-17
2.42127e-17
2.91243e-16
4.30983e-16
7.8509e-24
1.48075e-18
2.44995e-17
1.40197e-15
1.38691e-17
1.33338e-17
5.17055e-16
1.08038e-15
2.28207e-18
2.32117e-20
1.09321e-16
5.33734e-16
1.61649e-15
4.48663e-14
3.26007e-15
1.06716e-19
1.22178e-10
2.03267e-16
5.48227e-15
9.50633e-16
7.39868e-14
1.98426e-16
2.44357e-16
1.32821e-16
0.000303016
0.000302948
1.02405e-15
1.99409e-13
6.54427e-19
3.94573e-19
0.000302142
0.000302214
0.00215225
2.85124e-16
6.06526e-28
5.83188e-33
0.000302173
0.000302085
1.83556e-16
4.69039e-15
6.10104e-05
0.0187244
0.000301788
0.000301879
2.95535e-21
1.75511e-20
0.000246659
0.000290139
5.05007e-14
5.39633e-14
6.19401e-16
8.3065e-17
0.000301516
0.000301391
4.34565e-16
1.79659e-13
0.000301596
0.000301626
0.000301483
0.000301332
0.00030166
0.000301624
0.000301661
0.000299772
5.00095e-23
4.02657e-22
0.000301987
0.000302685
0.000300535
0.000300662
3.35595e-17
7.89795e-17
1.20981e-13
1.39085e-15
8.27139e-15
4.35133e-14
5.78187e-38
2.76257e-26
0.000301009
0.000300871
3.56322e-13
1.29572e-12
5.79107e-14
1.13524e-24
0.000932491
0.00194652
0.000300294
0.000301065
2.96589e-17
8.14141e-17
0.000300078
0.000300108
1.17016e-16
8.21752e-17
0.000847973
0.0016236
1.71912e-15
5.11453e-15
1.41235e-15
2.40325e-14
0.000299691
0.000299562
2.45005e-14
3.39956e-16
1.94091e-18
1.59985e-17
2.63908e-17
1.99857e-15
0.000299735
0.000299285
0.00029934
0.00029935
5.33183e-13
6.82599e-13
7.89093e-12
1.27593e-12
2.18343e-15
3.41195e-14
0.000299587
0.000299672
0.000296536
0.000296605
0.000298857
0.000298706
2.43963e-22
4.30274e-24
0.000296422
0.000297044
1.073e-16
8.74519e-15
0.0002989
0.000299064
4.12407e-17
3.77962e-17
4.92932e-15
3.44193e-15
0.000298837
0.000298918
3.47197e-15
1.04048e-14
0.000298053
0.000298148
1.8031e-14
8.91495e-14
0.000181407
1.7336e-15
0.000298949
0.000298847
6.29983e-22
2.10751e-22
4.07564e-16
2.41144e-12
0.000297728
0.000297574
2.05514e-14
3.06686e-15
0.000297848
0.00029791
9.00158e-16
2.16018e-16
1.48973e-16
3.2706e-16
2.17804e-11
1.26483e-07
0.000297683
0.000297798
0.000298698
0.000298711
2.37503e-14
3.40608e-13
0.000297891
0.000297911
3.9494e-27
1.60973e-25
0.000296826
0.000296814
0.000297729
0.000297824
1.06164e-15
0.000717364
0.000296463
0.000295661
0.000296827
0.000296954
0.000862528
0.000293175
5.71333e-27
1.47351e-28
1.24008e-14
2.21729e-15
0.000296406
0.000296254
3.17512e-16
1.79773e-15
0.000296373
0.000296387
0.000296657
0.000296633
9.4482e-16
3.13476e-15
0.000296467
0.000296346
1.78119e-15
4.10737e-14
3.03538e-11
0.00931438
5.96857e-15
3.10228e-15
0.00029734
0.000297789
0.0002958
0.000295914
1.20711e-13
2.49571e-12
0.000294902
0.000295748
9.20392e-17
1.03016e-15
6.40344e-14
1.57052e-13
0.000295843
0.000295784
0.000295807
0.000296089
0.000295667
0.000295537
6.15246e-14
1.44658e-15
7.08281e-17
5.28155e-16
1.83419e-14
1.8979e-16
6.36233e-14
6.00438e-13
0.000293655
0.000302791
5.32769e-15
6.15924e-14
0.000294269
0.000294213
0.000294959
0.000294831
0.00029434
0.000294261
0.000293987
0.000293995
0.000294591
0.000294614
2.0268e-15
1.4042e-14
1.57935e-19
2.65512e-26
0.000294067
0.000294301
0.000294237
0.000293837
0.000292315
0.000292903
0.000294059
0.000294471
0.000293573
0.000293563
0.000293128
0.000293327
0.000292783
0.000292406
0.000294183
0.000293979
8.26348e-05
4.39103e-16
4.70693e-12
2.4778e-16
0.000277844
0.000293904
0.000293197
0.000293212
0.000292971
0.000293219
3.26231e-13
8.83242e-14
0.000293317
0.000293467
0.000292825
0.000292741
0.000292878
1.02437e-13
1.93224e-13
0.000292543
0.000292436
2.08246e-16
1.26749e-13
0.000291891
0.000291755
0.000292225
0.000292287
0.000291778
0.000291901
0.000292256
0.000292404
0.000291952
0.000292657
0.000292139
0.000291955
0.000291988
0.000291897
3.12801e-15
6.79519e-14
0.000293912
0.000293765
0.000291739
0.000291786
7.68576e-16
3.03054e-16
0.000293422
0.000294225
0.000291587
0.000291441
0.000292137
0.000293276
5.83318e-17
2.36569e-14
0.000290909
0.000290924
0.000291588
0.000291331
2.50937e-15
0.000361076
0.000291222
0.000291047
1.95654e-22
2.6842e-23
0.000290977
0.000290976
0.000290298
0.000290265
0.000290392
0.000290711
0.00029062
2.1278e-15
3.52329e-15
0.000290562
0.000290395
0.000290318
0.000290232
0.000290024
0.000290345
0.000999354
0.000950461
0.000289481
0.000289657
1.55579e-30
1.6653e-23
2.53005e-12
7.52468e-12
1.40151e-22
1.11835e-19
0.000292499
0.000822163
6.13905e-16
1.25459e-14
0.000288908
0.000289234
0.000289455
0.000289421
8.83275e-17
4.48964e-14
0.000289001
0.000288992
0.000289431
0.000289183
0.000288666
0.000299376
0.000288881
0.000288745
0.000288617
0.000288812
1.7764e-12
8.07397e-12
0.000288496
7.89645e-14
5.90357e-14
0.000308478
0.000937564
0.000289425
0.000289266
0.00029348
0.000420858
1.80962e-16
2.32435e-12
1.83054e-10
2.46279e-15
2.85077e-13
0.000279525
1.53138e-14
9.33763e-13
8.52728e-12
1.10612e-11
2.86569e-14
8.0112e-14
8.60566e-13
0.000288501
0.000288142
0.000288743
0.000288873
0.000288615
0.000289061
0.000288519
0.000288262
0.00107608
2.79515e-14
4.28655e-13
4.04324e-13
0.000287464
0.000287792
2.07736e-14
2.50694e-14
0.000123095
7.73273e-15
5.21712e-12
2.34778e-16
0.000605085
3.53563e-05
3.30119e-15
2.04835e-16
2.78799e-16
1.64031e-21
4.31145e-22
0.000287489
0.000287413
0.000883786
0.000885706
4.82116e-13
1.84593e-15
3.50857e-16
5.68309e-15
0.000286179
0.000286161
0.0395783
8.047e-14
0.000285193
0.000301811
1.59434e-11
4.36618e-14
0.000286309
0.000286198
4.71451e-10
1.27344e-06
6.79016e-12
9.94837e-14
7.77106e-16
1.69656e-15
9.25044e-14
2.07578e-14
1.30369e-12
8.81128e-13
7.19105e-15
1.61566e-13
7.82004e-16
8.36886e-16
3.49123e-15
0.000580146
0.000244892
1.05094e-10
1.34085e-14
8.20698e-16
4.67319e-16
2.4993e-12
3.91165e-13
5.07739e-15
1.74327e-18
3.10834e-19
4.52764e-18
1.36856e-19
0.000283716
1.77091e-08
4.59442e-14
1.04378e-15
1.99192e-15
1.52311e-20
2.11588e-21
2.38991e-13
9.50984e-15
7.74035e-06
4.25638e-11
8.58875e-14
4.96398e-14
0.000293513
0.000308181
0.000268575
0.000269043
7.52018e-16
2.49413e-13
0.000278931
0.000275615
2.23351e-16
1.47092e-14
5.32961e-15
2.38892e-16
2.02605e-16
1.33274e-16
6.11996e-16
0.000787398
0.00180577
9.50992e-23
7.70124e-18
0.000284078
0.000285999
7.12726e-21
3.88372e-18
6.78303e-26
6.84588e-19
1.75579e-13
1.79417e-12
0.000264399
4.4126e-32
2.04925e-28
0.000260926
0.000261575
2.88384e-16
1.56381e-10
7.25848e-17
1.19288e-14
1.07239e-12
3.76622e-16
0.000263116
2.00779e-05
0.000262766
0.000259264
2.87887e-13
1.60144e-14
3.43524e-15
9.25223e-16
5.79166e-16
7.71715e-17
3.36683e-11
8.03252e-12
6.01429e-18
8.70124e-14
2.76984e-14
4.22615e-15
7.6491e-16
6.88552e-15
8.05391e-16
4.68438e-15
7.31901e-12
3.33597e-15
3.13879e-15
1.03558e-13
1.12023e-15
1.91692e-16
7.63933e-15
2.86167e-14
1.98655e-16
1.24811e-16
6.30504e-17
1.35272e-11
2.98994e-14
6.03214e-19
3.17757e-17
0.000285767
0.000285876
0.000285991
1.42381e-17
2.58901e-16
1.06082e-15
0.000285397
0.000285454
0.000285639
1.13334e-14
2.57246e-13
2.00056e-13
1.1751e-12
5.87008e-14
4.25193e-16
1.92041e-13
6.33308e-13
1.275e-16
6.14823e-17
2.02087e-10
0.000142861
4.72175e-05
0.0197656
2.33066e-19
1.16599e-19
6.03428e-14
9.60992e-16
0.000285941
0.000285881
1.50663e-18
1.51356e-15
1.57464e-13
8.11188e-14
8.17447e-14
1.3113e-14
0.000285606
2.64805e-14
8.04323e-14
0.000290239
0.000479203
0.00293589
0.000289184
0.000289439
4.46926e-15
1.6866e-15
0.000484218
0.00134114
0.000288744
1.13605e-20
1.62907e-35
1.38962e-34
1.16475e-11
5.51502e-11
0.000301243
0.000301255
0.000288339
0.000288205
0.00028631
3.02295e-22
0.000288761
0.000288668
1.16699e-14
0.000285377
7.03763e-16
3.68089e-16
5.41122e-15
1.07676e-15
5.65389e-16
0.000270845
0.00027696
0.000776793
0.78002
0.737304
2.00788e-14
1.75625e-15
5.04408e-16
0.000288909
0.000288945
0.000288924
0.000288849
0.000289462
0.000289432
0.000289269
0.000289196
0.00028879
0.0002896
0.00028945
0.000290143
0.000290093
4.74724e-10
7.88216e-12
0.000302554
0.000301782
0.000290497
0.000290546
3.35969e-12
2.4698e-13
2.72603e-12
7.68589e-12
0.000288737
0.00029045
0.000290227
0.000663144
0.000289086
0.000291222
0.00029172
0.000289636
0.000299495
0.000301535
0.000291042
0.000291099
0.000292544
0.000292647
0.000292794
0.000291986
0.000292075
0.000292217
0.000290618
0.000290763
0.000292451
0.000292494
0.000292523
3.95606e-14
2.11529e-15
0.000289441
6.58717e-19
3.05735e-15
0.000289782
5.7131e-16
2.38451e-15
6.49666e-15
3.25382e-15
0.000293325
0.000293486
8.7397e-24
6.51361e-23
0.000291146
0.000291141
1.92464e-24
6.1566e-23
0.000290461
0.0172527
0.000294414
0.000294737
0.000290311
3.64602e-48
2.33867e-47
1.55306e-15
9.31213e-16
4.03831e-16
0.000292733
0.00029291
0.00029277
0.000292892
6.17739e-14
7.47463e-15
1.37918e-15
0.000290369
0.000293445
0.000293496
0.000290944
0.000673929
0.000291015
1.58524e-13
5.13724e-15
2.31476e-16
2.21559e-12
0.000294531
0.000294556
0.000293525
0.000293525
0.000295246
0.00029537
0.000295374
0.000292322
3.5685e-16
2.1106e-15
2.54579e-16
2.5431e-16
2.83983e-16
7.06461e-16
0.000294231
0.000294189
1.91358e-13
3.48858e-14
0.000293157
0.00029416
0.000294234
0.000296169
0.000296179
0.000296276
0.000294961
0.000293928
5.67014e-16
2.12472e-16
4.70794e-16
1.50889e-15
8.41699e-16
1.47267e-16
2.55237e-12
2.2346e-13
8.62693e-14
0.000290487
0.000296039
0.000296009
0.000296176
0.000296446
0.000298564
0.000288073
0.000293189
1.26287e-16
2.54047e-21
0.000294225
7.66849e-15
3.12574e-15
9.94982e-17
2.85948e-14
1.65873e-14
0.000293486
0.000295849
0.000295939
5.25422e-23
3.00068e-19
0.000293642
0.000562472
0.00187268
1.19101e-22
2.40364e-23
0.00029473
0.000295927
0.000899809
2.05634e-16
0.00029466
7.57746e-15
1.6755e-15
0.000296421
0.000296404
0.000294626
0.000297161
0.000297201
0.000292684
0.000294194
5.94058e-14
2.44354e-13
8.84288e-16
0.000297751
0.000297802
0.000296977
0.000297063
3.96281e-32
8.86747e-24
1.04859e-13
2.51046e-16
0.000297488
0.00029718
0.000295494
0.00086452
0.00029775
0.000297789
6.58509e-23
1.44369e-21
0.000298348
0.000298395
0.000296147
0.00082286
0.00182194
1.49781e-15
0.000299087
0.00029903
0.000296154
0.000294672
0.000298926
0.000298949
7.20704e-16
7.6098e-15
1.06452e-16
0.000298573
0.000298618
0.000299025
0.000299098
0.000296142
9.70284e-16
4.36718e-16
1.08016e-13
2.57275e-15
2.2293e-13
0.000298041
0.000298656
0.000303576
0.000302127
0.000299838
0.000299863
0.000296534
0.000299374
0.000299463
2.6827e-13
6.07449e-16
2.97883e-16
3.77616e-14
0.00029994
0.000300266
0.00029985
0.000299903
0.000298684
0.000300159
0.000300246
0.000299908
0.000299967
2.58361e-23
0.000300629
0.000300765
2.04832e-16
5.94039e-17
0.000300989
0.00030116
0.000298774
3.93084e-16
2.23106e-15
0.000298785
0.000299237
0.00103354
0.00396341
0.000297758
0.000297776
0.000301449
0.000301295
0.000301608
1.72153e-16
5.81209e-17
0.000299086
0.000300706
0.000300865
0.00029928
1.18625e-39
1.03542e-37
0.000300681
0.000300684
0.000298477
2.02526e-14
1.09081e-12
4.64526e-17
0.000300857
0.000300928
0.000299045
0.000299254
1.38542e-13
8.68333e-16
2.27993e-14
8.84039e-16
0.000932471
0.000273417
0.000299892
1.46664e-21
7.79576e-21
0.000300656
0.00030257
0.000302564
2.40974e-21
3.23732e-16
0.000302219
0.000302318
0.000747125
0.000136264
0.000301653
0.00030263
0.000303007
0.00030302
0.000299668
1.56575e-15
1.99307e-15
2.05019e-48
2.38359e-51
8.58465e-26
0.000300948
0.000302915
0.000302861
1.82528e-26
9.16364e-25
1.53774e-16
9.17258e-17
5.71776e-17
9.02756e-18
1.79391e-17
7.81744e-26
1.18473e-26
2.19744e-15
8.40763e-13
1.27029e-15
2.34466e-16
1.04369e-14
7.68507e-16
0.000301484
0.000303641
0.000303622
4.29847e-17
4.03381e-17
0.00151097
0.0136081
5.3773e-17
2.50751e-20
1.61393e-19
6.84888e-24
7.6236e-56
1.24329e-55
8.55575e-17
5.43171e-14
3.29599e-26
2.34234e-21
1.86908e-16
6.24403e-17
0.000303562
0.000303526
2.77252e-17
1.32565e-17
1.48956e-16
3.22442e-17
1.33184e-21
2.7736e-16
1.43992e-16
5.42772e-16
4.92444e-17
3.71144e-34
3.59779e-41
8.94627e-22
7.49419e-19
2.58058e-22
2.07277e-15
2.4468e-24
1.23962e-23
5.07723e-30
2.28653e-30
2.47145e-29
1.30503e-22
7.20269e-24
3.3191e-17
1.101e-14
3.64794e-17
1.83866e-17
3.03442e-17
0.000699936
1.12602e-24
1.94007e-25
1.45085e-15
1.42575e-14
2.47037e-20
7.41033e-21
1.22546e-24
2.74254e-24
5.73801e-26
1.533e-27
1.42798e-28
6.3542e-18
1.90507e-17
1.94381e-13
3.04882e-14
6.66948e-18
3.91004e-18
3.36832e-15
7.56489e-15
2.8689e-15
3.26669e-16
1.27905e-15
6.89372e-19
3.92253e-18
2.01985e-17
2.67755e-16
9.79988e-19
2.14806e-26
2.74549e-14
2.46776e-17
8.06672e-29
5.22025e-28
8.33871e-28
1.05327e-21
1.12256e-15
3.0346e-16