/*--------------------------------*- C++ -*----------------------------------*\
| =========                 |                                                 |
| \\      /  F ield         | OpenFOAM: The Open Source CFD Toolbox           |
|  \\    /   O peration     | Version:  v2012                                 |
|   \\  /    A nd           | Website:  www.openfoam.com                      |
|    \\/     M anipulation  |                                                 |
\*---------------------------------------------------------------------------*/
FoamFile
{
    version     2.0;
    format      ascii;
    class       volScalarField;
    location    "742";
    object      omega;
}
// * * * * * * * * * * * * * * * * * * * * * * * * * * * * * * * * * * * * * //

dimensions      [0 0 -1 0 0 0 0];


internalField   nonuniform List<scalar> 
61389
(
5.31892e+15
1.29611e+13
8.9908e+22
5.28934e+07
1.45681e+19
5.2917e+10
4.60293e+14
1.99256e+12
1.21538e+12
5.94412e+10
1.44301e+08
1.13386e+18
1.60285e+24
1.5486e+21
3.38158e+09
1.48591e+06
1.03193e+19
5.10745e+11
6.85908e+06
2.8603e+08
1.3737e+14
7.48276e+19
35369.8
177126
462814
3.96559e+11
4.38984e+17
113483
2.86362e+16
8.04917e+11
5.41764e+06
6.72496e+07
18074.2
2.79455e+23
2.40378e+06
46315.7
197350
1.71192e+16
5.76322e+07
5.64518e+06
978535
3.46335e+11
9.10645e+14
6.42324e+09
2.61869e+10
110513
7.26431e+13
6.88908e+09
7.9417e+10
7.50183e+12
1.56566e+10
3.49847e+25
1.6762e+17
1.93007e+07
4.70202e+15
1.01774e+11
2.89925e+18
2.09355e+16
9.28321e+08
3.72523e+12
4.21226e+07
8.41372e+10
6.9785e+07
5.20597e+06
359983
8.92916e+08
1.78326e+18
2.07122e+08
1.72745e+08
3.83336e+30
1.02797e+08
1.18548e+07
3.34098e+12
6.17506e+07
8.22819e+16
2.68581e+17
2.91785e+12
7.83711e+09
1.44707e+11
1.88718e+13
6.83019e+12
3121.96
3.10448e+09
3.87546e+14
1.98827e+15
2.43736e+18
5.87885e+17
3.07749e+20
8.66072e+19
1971.95
8.00628e+07
2.59319e+14
1e-15
5.39591e+10
316538
56204.5
1.3167e+06
4.09291e+06
181524
21960.3
290871
1.07669e+07
2.82133e+08
824104
164.324
1e-15
0.267356
1e-15
3498.74
3508.36
1484.34
239.379
531.326
148.744
3470.09
4.02181e+06
79050.8
1.83409e+06
2.65468e+06
440810
571682
2822.42
175.415
0.240471
1e-15
942.489
0.279963
1e-15
520675
3.87115e+08
732882
3.21935e+08
1.825e+06
9.9198e+09
518353
3518.94
3.56761
3.51609
3.85158
3.8849
3.96367
3.96354
4.07831
4.10665
2.4183
2.53004
285388
1.54988e+07
4.47856
4.49719
4.27331e+08
8.59346e+08
2.35596
2.65947
4.08629
4.74901
4.7265
4.86116
4.88265
9.60982e+09
2.28915e+07
4.71858
3.40605e+09
5.28663e+10
3.73539
3.88601
5.73756
5.76699
1.04231
4.84725
2.48506e+08
3.31806e+07
1.19271e+08
4.78472e+13
6.60355
6.62935
6.7114
6.23511
6.26365
6.29682
6.33156
3.56068e+07
6.72737e+06
6.70991
6.70171
6.84278
6.82717
2.55792e+08
2.04433e+11
6.04271e+12
3.74223e+13
4.19412e+09
1.31304e+10
6.16388e+09
1.19885e+08
1.76212e+07
7.63023e+07
2.77909e+06
160265
1.75921e+08
1.21477e+11
1.5195e+13
3.35064e+15
3.43688e+15
2.16823e+06
126383
2.52648e+09
5.1158e+08
1.46118e+14
2.89801e+13
6.26731e+16
1.82066e+16
1.35616e+12
1.32305e+08
8.51875e+08
1.82356e+08
3.14999e+07
2.18637e+08
8.44911e+08
3.26392e+14
5.20185e+13
1.19587e+10
1.97372e+07
1.05171e+06
422394
1.32734e+06
2.45789e+13
8.04702e+09
1.04901e+09
1.45622e+09
2.11031e+11
2.39595e+12
3.93574e+09
1.46345e+07
1.39638e+08
4.32979e+08
1.06952e+09
6.99448e+10
4.15247e+10
2.84033e+11
1.60111e+10
2.36649e+09
3.7338e+10
1.54078e+18
1.38626e+15
9.98529e+21
9.48998e+17
1.1719e+09
4.17506e+10
1.7815e+08
6.02371e+08
5.43166e+17
1.32683e+15
1.70955e+21
2.61262e+28
1.57325e+11
4.18116e+21
5.43737e+21
3.78365e+09
6.67762e+08
1.21127e+12
1.79708e+09
7.44706e+06
7.91565e+06
9.54376e+11
7.63289e+11
3.28446e+17
9.69162e+15
2.53628e+11
2.70157e+09
1.53342e+10
9.44952e+14
7.3266e+10
2.44901e+17
1.09197e+11
1.52781e+17
1.9823e+17
2.26234e+18
1.07223e+17
9.85767e+06
1.59995e+08
1.41684e+10
1.55841e+09
1.94919e+07
4.38945e+08
8.09949e+15
2.56666e+16
2.26745e+08
1.60602e+11
5.81734e+12
2.54289e+14
3.40293e+09
2.00738e+12
2.14923e+10
2.80728e+20
1.68397e+20
3.35509e+08
1.4951e+07
1.66877e+11
1.19389e+09
9.47943e+11
2.77341e+10
6.92045e+26
2.07279e+25
7.76645e+10
5.20186e+11
4.68486e+15
3.26809e+16
6.7307e+10
4.91781e+16
4.7566e+11
7.34513e+10
4.81116e+15
5.15535e+15
8.98643e+23
3.04172e+15
4.0251e+07
1.11118e+07
7.14471
7.15747
6.87652
6.90334
6.68157
6.66416
3.93631
4.66204
1e-15
1e-15
1.9144e+11
1.3813e+11
5.82739
5.85139
2.56172e+11
9.37741e+12
5.87511
5.84272
5.64824
5.61739
1.26819e+07
1.60214e+10
4.63158
4.68765
319912
3.32971e+06
1.19923e+07
1.39233e+08
2.8177
3.41775
1.14514e+06
1.37441e+06
100025
59680.2
2276.49
4929.89
1.47273e+06
2.76462e+06
10.1785
6.38801
4.02801
4.47819
5.21979
5.06707e+06
878559
167097
2.48767
2.06855
473739
7.09357e+07
4.59838
4.23286
1.80326e+12
5.20109e+08
1.03351e+09
1.48032
0.328963
1.34523
2.80782e+08
1.22725e+09
1.47204e+07
3.14806e+07
1.88337e+07
3.98599e+07
6.99959e+06
239.494
22553.4
47895.8
1.10419e+07
810.088
6129.03
37131.9
8.17368
223.588
15037.4
2434.29
6.62771e+06
5.85811e+07
4.62199e+06
1.22639e+08
3.27201e+08
8.32086e+09
6.39645e+06
4.57941e+08
5.07659e+07
1.23301e+06
2.19429e+06
2118.77
232.76
7.71212e+07
9.31246e+06
92925.5
17986.6
15703.9
101169
215385
34868.5
21000.4
47932.3
2.5897
2.58519
1.59458e+06
1.58837e+08
1.35071e+09
2.87887
3053.02
519.387
2.71961
2.72023
462.013
113.455
2.72342
2.71588
3.3593
3.37217
3.35215
3.38007
5.08128e+06
929475
2.56639
5.44263e+06
4.84055e+06
2.94925
2.91571
44840.2
2.73206e+07
4.8678e+06
2.69274e+24
0.0137498
26322.9
3.32871e+06
2.57103e+06
1.73439e+06
3.45331
3.48027
3.48387
3.30032e+07
3.86268e+09
6.57337e+09
3.41103
0.794316
2.41776
3.15925e+09
2.74661e+09
3.28305
3.26956
5.12294e+06
2.46272e+07
39815.7
787285
977249
1.01528e+06
6.37011e+06
2.23652e+08
6.79411e+08
3.56103
3.58762
3.58438
3.59491
1.0634e+07
2.2759e+07
1.9993e+09
7.84623e+09
1.84648e+10
3.02002e+09
1.62155e+09
1.18371e+08
3.75242
3.72534
1.68671e+07
1.54626e+07
6.84714e+07
3.27061
4.12245
4.1517
4.16806
3.43075
3.93068
3.94833
3.95096
3.78482
3.7728
1.74328e+07
637249
2.74012e+07
1.20057e+08
1.90137
1.88263
4.02976
3.55835
2.20992
2.38043
3.73402
3.73306
4.0984
4.1297
3.78096
3.80429
3.86718
3.94988
4.16564
4.16632
4.11169
4.12597
4.63564
4.62915
4.62575
4.2433
4.26016
5.70849e+10
4.38529
4.39215
4.23169
4.2238
3.86985
2.58946
4.34274
4.31962
3.96445e+07
3.87086e+07
6.60308e+07
1.56665e+11
1.81333e+22
3.22636e+21
4.06458
4.65496
4.67545
4.69034
4.72744
4.75144
4.77193
4.07647
4.00307
4.68072
4.69182
3.39552e+09
6.14189e+08
4.22795e+06
8.6669e+07
2.07677e+11
2.78908e+06
5.00163
5.05166
3.10711e+16
5.54557e+15
1.54222e+11
5.86717e+09
1.22054e+11
2.17371e+11
4.29246e+10
4.3409
3.58953e+09
8.511e+06
6.42231e+08
5.21791
5.22393
491931
55892.7
5.14806
5.17017
4.90225
7.36968e+07
162503
5.51276
5.50756
5.02674
5.53657
5.56852
9.81888e+08
5.6708e+09
3.07872e+11
2.53886e+09
5.44623
5.46817
5.70692
5.7141
5.48345
5.48148
5.26191
5.6796
5.68718
2.97783e+13
2.23921e+14
8.64632e+08
882305
5.05451e+10
0.147038
5.63703
5.59834
7.75789e+08
1.31817e+08
5.83885
5.8351
5.05949e+11
8.86984e+11
5.50266
5.50236
4.09464e+06
2.06357e+07
1.34333e+08
5.85322
5.85434
5.17814
5.52876
2.94872e+11
5.76169
1.00403e+10
4.19352e+10
6.2942
6.35533
6.25293
6.22394
1.84889e+12
3.52683e+11
1.10434e+18
2.0054e+17
5.99668
5.938
7.07458e+07
4.81753e+08
1.42345e+08
6.44935
6.48371
6.71842
6.73031
6.69925
9.86569e+09
4.89045e+10
6.29294
6.3505
6.97318
7.00527
7.00863
6.73356
6.73339
5.47467
5.6418
51119.8
1.42125e+06
1972.17
85759.5
2.29074e+07
2.38594e+06
2.3003e+07
8.48788e+09
6.27571
7.14689
7.1531
7.19285
2.21744e+09
7.12135e+06
1.09761e+10
1.92661e+10
2.26769e+09
1.4478e+13
1.61372e+12
1e-15
6943.17
16358.9
6.51871
1.16224e+07
8.86435e+07
7.00429
7.03455
6.67345
7.31426
7.30108
7.00323
7.00781
6.525
7.1595
7.15104
8.77639e+06
2.54546e+10
1.32081e+11
2.28451e+10
5.7915e+08
8.63891e+07
2.19453e+11
216083
1.66991e+13
8.94768e+13
3.70912e+09
2.30211e+07
1.54683e+08
2.43649e+11
4.70902e+10
4.60517e+10
1.96692e+09
9.71615e+14
6.90864
3.50229e+07
2.27192e+09
114279
40032
3.39949e+14
6.83768e+14
3.20658e+07
5.65562e+06
1.8081e+08
174290
4.00326e+16
1.54089e+11
3.50273e+11
2.89101e+06
750195
7.02866
7.1808
3.26196e+08
7.19139e+08
3.53468e+06
2.37075e+07
2.16075e+16
3.92786e+17
939939
1.85431e+06
1.46968e+10
2.52402e+09
1.99885e+12
2.73702e+21
2.02252e+08
1.23035e+09
3.03896e+07
5.98166e+06
31560.3
4.57056e+12
7.11532e+10
9.72963e+08
2.28187e+06
941206
4.27729e+10
9.80202e+10
1.70542e+32
1.40924e+28
1.38563e+10
4.65513e+09
1.13408e+07
46578.9
2.19598e+07
2.14344e+10
2.95211e+09
7.48745e+09
1.40133e+07
1.98608e+38
2.54714e+06
3.43989e+09
5.30407e+08
1.46061e+09
5.66541e+20
9.13593e+19
2.66665e+11
1.85445e+14
3.34032e+14
4.17856e+08
2.40216e+06
1.53582e+10
6.34138e+09
1.80319e+10
1.49254e+33
1.31566e+24
1.21629e+14
3.94328e+08
1.69898e+09
5.84849e+13
3.11721e+14
5.86931e+07
4.86855e+10
1.92604e+12
3.12474e+11
1.10611e+10
4.16838e+08
3.14316e+29
3.35438e+17
1.48142e+07
4.74437e+06
439716
930878
2.70005e+06
4.68561e+06
2.54087e+06
1.45473e+13
2.63035e+12
2.88398e+09
1.29328e+11
7.42405
5.51713e+12
8.23398e+11
6.81025e+06
1.14477e+16
1.97052e+15
2.95589e+08
7.54496e+14
3.00092e+19
4.9322e+12
8.17902e+12
1.20227e+12
1.77814e+07
4.85128e+07
1.89446e+18
5.89289e+19
2.47658e+11
4.10035e+11
4.45862e+09
3.4582e+09
1.40003e+21
2.18595e+21
9.01024e+08
1.15502e+09
22443.2
6.84426e+07
8.00124e+07
8.11017e+17
3.06959e+15
2.79383e+10
2.31018e+15
1.8526e+10
2.009e+06
2.81297e+09
5.00349e+08
2.66814e+10
4.5554e+09
146851
5.17367e+12
3.31456e+13
1.62267e+11
1.06142e+12
2.09243e+08
4.33966e+08
1.75101e+09
3.05745e+08
2.5014e+24
1.55919e+25
4.08796e+11
2.35912e+16
2.98022e+07
9.21521e+08
1.18723e+14
6.59801e+19
8.32394e+10
2.12001e+11
3.22671e+09
4.9164e+08
4.94279e+12
1.00331e+14
3.79712e+06
660353
4.17711e+23
1.22893e+16
2.30948e+15
1.25387e+07
1.78179e+08
1.35301e+11
9.18362e+11
1.42034e+17
1.34543e+18
1.71137e+08
2.24094e+15
1.67506e+09
3.69768e+09
6.38492e+14
5.12144e+09
55283.6
299335
2.45542e+06
1.76115e+07
3.8113e+07
3.07631e+08
2.15156e+12
8.74086e+06
2.2583e+06
1.58965e+12
3.64662e+07
1.85732e+10
2.1418e+23
2.80229e+16
1.85167e+09
4.23636e+10
7.74136e+07
1.37311e+07
3.03049e+07
2.82374e+12
6.57448e+06
2.27419e+14
3.7274e+09
1.00572e+30
9.48812e+23
3.50174e+27
2.1923e+28
4.99341e+18
3.03939e+19
1.42299e+12
2.1045e+07
6.31732e+06
3.18427e+20
5.7249e+19
1.36124e+07
5.06687e+06
3.48493e+10
9.77743e+10
6.45168e+11
8.55542e+11
4.01171e+11
784987
644823
1.30389e+11
2.10001e+10
5.77991e+21
9.63637e+21
1.42601e+07
3.19327e+07
6.23369e+06
4.86144e+11
3.42878e+16
8.04202e+12
1.98335e+13
1.09922e+14
6.68989e+14
2.27876e+09
3.71867e+08
1.70338e+17
1.02592e+18
1.17392e+10
3.7052e+11
1.13062e+12
1.1919e+08
1.10347e+09
2.46692e+14
9.99988e+13
1.5108e+13
1.46324e+07
354836
8.76746e+15
5.70817e+16
3.00503e+12
3.4751e+17
1.93714e+18
1.42833e+21
5.06512e+16
4.78491e+06
2.61077e+07
1.5231e+07
130108
1.12276e+06
192581
7.82496e+09
1.7144e+10
1.67324e+13
5.50015e+11
4.9892e+08
5.55311e+12
9.22533e+11
4.84246e+28
4.79444e+18
8.2293e+12
3.5301e+13
2.1033e+13
4.78206e+14
1.39052e+13
1.17095e+20
1.55864e+06
1.23291e+24
5.56899e+12
9.4373e+21
1.03007e+14
287489
3.63237e+12
3.39892e+10
2.04895e+11
2.18071e+16
1.44789e+17
5.25883e+08
1.63671e+07
8.59045e+07
3.27079e+08
4.59292e+07
6.6426e+11
1.74526e+21
2.68046e+17
9.2917e+16
1.19146e+15
8.75082e+17
1.24162e+19
3.12833e+08
1.31833e+09
2.42774e+08
8.08312e+19
1.43201e+19
2.80499e+18
1.96833e+09
1.30677e+06
8.11319e+06
6.32803e+19
4.43435e+28
4.22927e+07
2.09863e+08
1.38545e+10
2.58682e+07
8.37607e+08
8.07719e+13
2.43088e+10
5.84587e+09
1.34727e+13
4.92358e+18
7.182e+11
3.15302e+10
7.79214e+20
6.89066e+15
9.52042e+19
1.33287e+17
3.42094e+12
1.03212e+13
6.73537e+13
1.60272e+18
2.35808e+17
7.7617e+19
3.12551e+09
2.97263e+08
4.10238e+13
3.89273e+21
2.63052e+21
9.48363e+22
3.82049e+23
8.76389e+15
2.23674e+12
3.36378e+12
2.34517e+08
1.90937e+06
6.94336e+16
4.95671e+17
7.62611e+07
1.11897e+09
5.75966e+07
2.08815e+07
4.06433e+14
1.14264e+14
3.971e+15
1.05261e+15
2.53369e+10
4.34453e+09
1.63899e+22
3.72601e+22
1.28167e+11
8.6289e+11
1.0761e+17
2.06282e+19
4.91761e+11
1.75138e+13
1.54522e+11
8.19209e+20
1.44057e+14
4.84287e+14
2.26334e+18
2.71131e+21
7.85249e+19
1.90671e+10
8.00024e+10
2.1617e+16
9.54479e+17
1.38647e+17
9.02265e+17
242850
3.6938e+06
2.13836e+23
5.63151e+21
2.55754e+31
8.16124e+24
132080
82434.6
3.02152e+17
5.9722e+15
48386.8
27161.7
1.58717e+14
9.01432e+15
1.83583e+06
2.19903e+06
1.21412e+19
1.14895e+12
4.53689e+20
5.56815e+30
126977
62057.7
4.11447e+11
6.5644e+10
6.52852e+12
3.61816e+14
7.71105e+10
2.64941e+06
3.73705e+08
2.89264e+06
2.7469e+06
4.15555e+06
6.29079e+12
1.71626e+13
5.12879e+18
2.01667e+16
1.1295e+15
1.57026e+26
6.11807e+09
6.38683e+12
104540
4.96836e+06
1.01741e+09
1.05751e+08
2.29246e+20
5.86564e+21
1.27826e+09
8.88591e+06
3.45797e+12
5.55359e+14
50518.6
7.2266e+23
2.50496e+22
2.87109e+08
3.02365e+08
8.74118e+12
9.39637e+18
1.6527e+15
1.25875e+27
2.60423e+12
2.63312e+11
6.94016e+16
1.20997e+16
1.70615e+07
3.82816e+08
2.20823e+26
7.89055e+24
1.92513e+11
1.19708e+15
4.12758e+19
6.73477e+12
1.56482e+06
9.79091e+09
4.20078e+16
1.5342e+18
3.18264e+07
3.79868e+06
1.11311e+19
1.05559e+07
672409
3.87239e+13
4.24463e+06
1.12329e+17
7.9276e+10
3.53124e+14
2.11068e+15
1.10086e+19
7.59697e+08
2.52913e+15
6.45097e+16
1.69645e+21
8.0118e+12
8.22677e+07
1.07342e+12
3.64712e+20
1.18267e+22
1.46531e+17
1.59398e+17
9.96611e+13
4.117e+15
7.25559e+19
2.97883e+13
1.89851e+09
3.63852e+09
8.23276e+08
1.84938e+06
1.73595e+10
2.65554e+17
9.82792e+09
4.53785e+08
1.64978e+06
1.5558e+07
7.66705e+19
3.18177e+13
6.6609e+13
1.10366e+08
4.94846e+11
2.06567e+12
8.32036e+12
4.99538e+13
1.53202e+09
5972.18
1.79783e+10
4.70481e+08
3.39911e+18
1.65216e+18
4.96688e+18
6.2625e+10
2.56435e+07
2.04854e+10
8.87427e+10
3.40065e+12
2.31995e+07
5.27417e+11
2.00701e+09
3.27018e+10
2.49585e+12
2.08844e+12
1.48766e+10
3.1517e+10
5.4452e+20
2.39647e+22
6.94836e+12
3.2632e+14
2.94059e+09
2.54678e+09
1.86502e+08
4.68603e+08
1.7927e+09
6.67915e+10
4.17127e+17
7.41893e+13
7.37587e+16
1.09648e+10
1.3747e+10
3.72853e+08
4.03723e+09
4.44203e+08
8.77755e+11
2.83096e+09
8.01997e+10
2.5672e+18
3.52704e+07
1.03661e+12
1.47163e+10
2.2044e+12
1.75734e+07
5.6876e+06
560937
72085.3
1.09188e+14
1.14943e+14
8.02769e+09
1.58025e+10
557536
1.04996e+08
2.96091e+10
8.56992e+11
3.8258e+06
4.28737e+09
2.57552e+15
1.34993e+15
5.95346e+23
1.09475e+24
1.76929e+09
7.63827e+09
3.05114e+09
1.58815e+09
3.43052e+08
6.08762e+23
2.78396e+23
1.05715e+13
1.53647e+11
3.71828e+09
1.5238e+14
3.38138e+06
1.42709e+08
1.41671e+14
2.35628e+14
1.04792e+14
1.87813e+08
1.87538e+16
1.9414e+16
5.85236e+07
1.0264e+08
1.93953e+07
5.47083e+14
2.97643e+08
2.32475e+06
5.7415e+07
2.46334e+12
2.96896e+20
6.17148e+13
2.16091e+14
4.12017e+10
5.91165e+09
1.19457e+14
4.19209e+14
1.64155e+17
2.18038e+09
1.18981e+10
4.37905e+13
1.72912e+14
1.3608e+15
2.90284e+12
2.08319e+17
1.2621e+11
48473
521645
150274
5.29135e+07
2.81179e+09
1.42554e+15
2.05884e+17
2.10132e+10
1.28416e+06
1.67322e+08
4.00857e+19
9.86881e+07
1.12445e+16
1.10559e+15
8.39242e+08
5.70677e+06
7.64476e+17
3.18587e+15
1.95653e+16
5.66251e+19
2.13618e+09
6.26037e+08
988495
2.07765e+10
1.21212e+14
3.23703e+09
3.90247e+32
1.08484e+31
176393
3.48453e+07
1.29356e+10
4.35705e+11
2.59809e+09
9.15468e+10
1.34728e+32
5.57615e+33
3.10885e+23
9.29979e+08
8.64229e+06
5.82413e+07
2.10413e+10
1.17862e+11
3.53205e+17
8.50164e+18
1.28375e+12
2.5208e+12
1.09619e+24
5.92416e+40
22912
7.50227e+08
5.24759e+08
1.13165e+11
4.75265e+16
3.93862e+24
64166.2
2.93943e+10
3.65418e+09
3.34023e+09
1.33895e+08
512343
225759
2.10265e+11
6.95467e+10
9.84046e+07
3.50339e+08
1.15202e+06
2.69473e+06
8.40985e+11
2.12335e+07
849001
846443
8.35911e+10
3.59404e+11
3.94011e+06
3.23713e+06
2.51088e+06
1.91917e+07
716548
8.86314e+06
1.06655e+12
1.61386e+12
1.85081e+09
1.67006e+09
3.20988e+06
1.18498e+08
5.52344e+08
2.2695e+11
1.12498e+15
6.16356e+13
2.44363e+12
1.64456e+13
2.68138e+11
1.87875e+11
6.65407e+28
6.25066e+15
1.1013e+12
1.59285e+12
1.24052e+06
4.08505e+07
1.99296e+07
9.58597e+07
2.25207e+09
1.35207e+07
1.70101e+11
7.14963e+11
7.62997e+06
341888
2.85008e+11
7.37348e+09
6.67654e+07
2.61798e+08
3.78803e+06
414274
1.08621e+16
6.93988e+10
6.59614e+11
2.83678e+09
8.06175e+07
5.96204e+07
2.15555e+06
5.39381e+06
2.01268e+13
8.3316e+14
6.15712e+07
5.62623e+07
2.54619e+07
4.08503e+06
2.99256e+09
9.10059e+13
1.17725e+06
6.5333e+11
3.79274e+08
2.3216e+09
974382
1.86438e+08
2.52983e+09
4.63408e+09
7.45032
7.42913
1.4836e+09
4.70333e+06
1.53589e+09
3.85701e+08
7.26511
7.23586
0.842166
3.86461e+11
4.71488e+16
2.93804e+22
7.28515
7.28785
1.24956e+11
8.22185e+09
17.8459
1e-15
7.12192
7.20886
3.46988e+11
3.62729e+11
7.27343
7.16931
7.86764e+08
4.20802e+08
2.32477e+11
1.7457e+12
7.07715
7.08737
3.59507e+07
87211.9
7.07701
7.07409
7.06377
7.08846
7.00498
6.97707
7.07994
7.06636
1.12844e+11
2.30416e+10
6.96229
6.95397
6.78356
6.83407
1.54985e+08
7.82018e+07
2.01977e+08
8.1941e+09
1.86253e+06
357956
1.67914e+23
4.83364e+11
6.88226
6.85811
1.18341e+06
70811.6
262958
1.34739e+16
2.22748
1.05896
6.64107
6.63124
1.7328e+10
6.47512e+09
6.64721
6.64721
2.4949e+10
4.25326e+10
2.21459
1.24116
1.21288e+10
4.08542e+09
1.31992e+10
1.42056e+08
6.51634
6.4973
5.20385e+09
3.77157e+11
1.55697e+10
2.05755e+09
5.96376e+11
5.68791e+09
6.4116
6.3421
6.31067
6.30701
2.01689e+06
311449
3.37817e+06
7.85087e+06
6.01239e+08
9.26514e+07
6.38293
6.41073
5.5104
5.45057
6.27403
6.24541
4.05379e+10
1.64624e+12
5.22491
5.48773
7.46374e+10
9.17e+08
6.23625
6.24279
2.49843e+11
3.06001e+11
1.48646e+06
7.2295e+06
6.17962
6.20845
2.29486e+09
7.56379e+08
6.07675
6.09394
740305
913483
4.42181
2.80771e+10
6.25912
6.24817
1.79304e+06
4.74494e+06
6.24006e+10
1.19017e+07
6.00898
5.96605
1.507e+09
9.96506e+09
5.90424
5.93991
7.97842e+07
3.82786e+08
4.47607e+11
2.02975e+11
5.34374e+06
1833.95
5.87759
5.90288
6.10159
6.1884
8.46984e+08
2.04295e+08
6.02267
6.03867
2.53203e+11
6.21222e+09
5.7167
5.71129
5.90589
5.84551
1.0568e+11
0.973546
5.24733
4.8756
5.69164
5.72884
1.3796
4.49126
3.34104e+13
1.34822e+15
1.00772e+06
6.73042e+07
5.58361
5.5426
7.1842e+10
1.16708e+10
5.62346
5.59754
5.55017
5.59345
2.12835e+06
597424
5.53581
5.5639
8.9424e+08
1.51946e+08
1.45342e+06
1e-15
1.02916e+06
646529
5.86278
5.86394
5.45645
5.48388
3.81987e+06
987115
4.39997
4.81366
7.38889e+10
1.53867e+09
1.11252e+06
1.0031e+06
5.40105
5.37524
5.34653
5.35661
5.37716
5.39938
1.08756e+08
4.72446e+09
2.79081e+09
4.16453e+08
1.58669e+08
6.83971e+09
1.69113e+07
1.79819e+06
3.11112
2.88813
1.39542e+08
5.02423e+06
5.03856
5.01164
5.06247
5.0403
4.90438
4.93798
4.88342
4.90612
5.05366
5.0357
7.80899e+09
1.13339e+09
1.61076e+13
6.20282e+20
4.93862
4.96126
4.12125
4.04559
2.21496
2.73752
4.77957
4.82495
4.79367
4.80638
4.7817
4.81428
2.52236
2.90782
4.16417
4.39064
15.7754
8.57418e+10
32998.4
3.67622e+09
4.64059
4.69776
4.59443
4.63254
4.62134
4.60307
2.6657e+08
9.94317e+08
4.15659
3.99877
4.38766
4.39661
4.42598
3.69951e+06
1.68975e+06
4.54553
4.55362
2.56994e+10
1.79421e+08
4.34385
4.33007
4.27916
4.2834
4.25941
4.28594
4.26951
4.28746
4.22135
4.16155
4.2372
4.22291
4.21829
4.20722
4.01992e+08
1.73196e+07
3.61919
3.87626
4.30821
4.29827
105911
962714
3.00018
2.47
4.04701
4.02296
4.0823
3.93203
2.01797e+09
1.03598e+07
4.05467
4.10209
3.98215
3.9715
3.03472e+10
1.08427
4.09373
4.08512
4.12831e+10
1.77667e+12
3.96874
3.98646
3.98112
3.973
3.95337
3.8868
3.87458
2.01284e+09
1.08046e+09
3.84915
3.80281
3.77522
3.68811
3.7068
3.72684
1.1148
1.17799
3.65846
3.67322
4.1954e+15
7.15001e+08
1.83161e+06
3.60233e+06
1.22328e+11
2.88196e+06
3.28045
0.97166
1.3794e+08
3.42359e+06
3.54556
3.5925
3.56542
3.57329
1.13104e+11
6.74565e+07
3.44735
3.48667
3.56987
3.54449
1.6959
1.78037
3.61841
3.61761
3.48094
3.51548
6.20699e+06
1.35891e+06
3.41919
1.35728e+08
1.83588e+08
3.32734
1.10193
3.49676
3.53122
3.41874
2.21881
3.1265e+11
1.12299e+07
144582
1.1348e+08
836007
3.48263
4.27307e+09
25270.4
1937.49
160206
2.22434e+08
193607
17024.8
3.47037
3.43345
3.38461
3.40016
3.25509
3.27319
3.31072
3.30302
0.624818
8.69896e+08
1.35623e+08
1.4586e+08
3.11309
3.14011
57113.7
72403.3
2.71082
3.12485e+09
2.85496e+06
1.01943e+11
1.0813
24.8234
1.84515e+08
1.52684e+10
9.73557e+09
1.89106e+07
4.23866e+07
2.93968
2.95315
0.943761
0.934238
329302
2.11473e+07
1.44612e+09
7.84327e+08
2.89971
2.91367
1e-15
2.67742e+08
2.77004
2.8189
2.55368e+06
1.13783e+09
2.86024
2.86884
84564.3
122.432
137034
5.27844e+06
203332
15667.7
141.408
225.949
415862
613892
1.4595e+09
1.81827e+08
1.13823e+08
9.5709e+08
1.76034e+08
0.896371
2.64112
1e-15
391.353
158718
229916
152003
218181
895.276
62090.9
318939
36682.9
786858
1.31985
1170.6
1.66486e+06
4.00259e+06
2.25739e+06
4.71943e+08
5.42019e+09
2119.31
14723.5
32.3224
57663
763968
569840
5.58501
9.82275
2.04807
2.10085
1.03193e+09
1.54567e+06
3.19449
2.74379
1.01119e+07
152606
116561
2.47269e+06
1.42554e+08
4.92089e+08
1.24576e+08
0.635599
0.260043
1.45725e+13
1.45139e+08
3.78911
4.16317
3.75878e+10
4.41499e+07
8.63745e+14
1.97642e+08
1.77727e+07
4.14726e+06
1.72373
2.46967e+20
3.2946e+16
1.45953
1.49849
260.385
1e-15
6.93942e+10
7.15786e+08
7499.47
1.17169e+07
1.31861
14.7823
1.34643
1.39799
60491.6
1.01341e+06
4.30074e+06
82.9805
243.051
6153.28
1e-15
1e-15
20617.3
92188.5
268290
47599.5
255472
52769
2.16607e+06
388606
204159
6.91945e+06
2.18922e+08
7.02283e+06
8.75357e+07
4.2982e+08
874.701
148.146
7062.5
11893
20187.1
30963.6
1.26957e+07
2.83411e+10
4.73094e+09
2.73307
2.73802
2.72665
1.32639e+07
664494
125084
2.76999
2.76435
2.7883
862098
2.21707e+07
1.1509e+07
468986
9.54966e+06
1.69908e+09
3.15001e+06
167864
4.25513e+09
8.22785e+09
253725
2.77857
16.1489
1e-15
5.29117e+12
3.06543e+13
2.2143e+08
1.05604e+09
2.84172
2.84377
4.82492e+08
102568
16077
85697.6
155087
842455
2.61259
1.56307e+08
5.1291e+07
3.52571
2.11286
0.350467
3.56895
3.6099
4.73661e+09
1.1968e+10
1.86135
0.668252
2.78985
1.006e+06
5.50605e+20
9.12184e+19
798795
175183
1.58388
1.51091
3.27794
3.27602
2.89626
7.02127e+11
3.34489
3.35527
1.03188e+07
2.60481
4.33507e+09
7.50006e+09
2.81114e+09
3.30272e+09
1.0468e+09
1.62575
1.78785
0.697278
1e-15
1e-15
3.7831e+08
414469
2.53841e+06
3.51688
3.54966
3.53081
3.55507
3.49993
3.51191
3.54615
3.50572
3.37362
3.62232
3.60507
3.73768
3.70986
23851.3
1.43075e+06
1.76926
1.85526
3.92056
3.93902
3.66457e+06
1.51171e+08
6.90355e+06
5.47976e+06
3.38987
3.87701
3.85881
1.29713
3.63891
4.12104
4.08007
3.62701
2.19284
1.92704
4.052
4.07787
4.50229
4.48165
4.48931
4.33152
4.34249
4.36734
3.99609
4.01429
4.56098
4.57493
4.58352
7.34745e+06
5.21933e+07
3.53909
6.04845e+07
12005.1
3.69822
2.32407e+10
5.54236e+09
4.89134e+07
9.01905e+07
4.5212
4.5816
1.83995e+10
3.04734e+09
3.83616
4.01418
1.74603e+11
3.32079e+10
3.82758
1e-15
2.27254
2.17694
3.85789
8.80078e+34
1.47204e+34
6.06532e+09
1.01092e+10
2.14475e+10
4.37415
4.42546
4.51894
4.53976
9.39723e+07
7.76754e+08
1.12176e+10
3.8648
4.73582
4.75064
4.09205
0.79755
4.09308
7.13759e+07
2.1307e+09
4.12716e+10
4.18252e+06
5.06647
5.03815
4.78167
4.77866
5.22948
5.27089
5.27006
4.54589
6.83977e+09
1.2039e+09
82034.3
69407.1
6.02075e+07
1.05512e+07
4.97962
4.96118
5.3165e+06
2.97679e+07
4.5558
4.72769
4.75569
5.44801
5.44282
5.43589
3.82481
3.50917
1.12215e+11
2.72104e+11
1.065e+11
6.30644e+09
1.08561e+10
6.97229e+09
432033
4.94761e+06
4.0209e+08
1.0218
5.36063
5.34762
5.40704
5.21381
5.65144
5.19567
5.21072
2.842e+08
1.44699e+13
4.91266
1.0187e+07
2.49304e+07
7.81178e+08
1.44242e+09
2.4955e+09
4.66755
5.3384
5.36579
6.11433e+12
1.02118e+09
4.81145
1.72811
0.499185
7.25336e+09
5.01437e+10
4.97204
4.68932
1.38044
1.74973e+09
5.02589
16247.6
35695.6
5.66621
5.66615
5.01451
5.7703
5.79374
3.80936
4.05638
1.83413e+08
7.08717e+07
1.14493e+09
5.95009
5.92493
5.77936
5.80311
8.43991e+21
3.51649e+13
1.14625e+07
4.80197e+09
5.84794
5.8765
5.0977
1.69613
6.00564
6.00549
5.09772e+08
2.96474e+07
6.14289
6.16444
5.58117
2.14532
0.954414
6.44254e+08
6.30902
6.29761
5.53833
5.24141
6.26823
6.25479
304685
28304.7
1.37217e+06
6.16731
6.2072
6.03469
6.02707
5.25309
7.54697e+09
1.88408e+10
9.18017e+08
3.74339e+10
622553
6.06259
6.23686
6.46521
6.44812
6.51413
6.51621
5.64419
6.32421
6.36647
2.00395e+06
7.74637e+08
4.51433e+09
3.53603e+07
6.46595
6.59978
6.55759
6.54759
6.21372
6.65823
6.66956
6.57892
6.60293
3.10105e+13
6.74176
6.78369
1.06081e+09
3.61039e+09
6.81015
6.80814
6.21797
3.42024e+09
6.33877e+08
6.269
6.33859
1.97793
1e-15
5.92349
5.95263
6.9492
6.94821
7.12955
3.07204e+11
8.60466e+11
6.4275
6.7444
6.80607
6.38688
3.65779e+25
5.80441e+23
6.77428
6.78281
6.19819
1.69032e+08
2.78623e+07
7.97237e+11
6.91209
6.92564
6.19943
5.80201
1.07117e+07
3.17374e+09
1.71184e+09
3.88476e+10
2.36928
7.12329
6.58619
3.54272e+08
6.78081e+07
6.7879
7.30102
7.2981
9.88102e+11
81350.2
7.19114
7.23156
1.69147
5.94099
7.36462
7.39444
7.45921
7.4842
6.48062
2.4857e+10
5.36934e+10
3.64032e+35
9.52147e+38
1.16487e+10
6.85663
7.44556
7.44708
8.93384e+17
3.24635e+16
1.07437e+11
1.69805e+11
1.44148e+09
8.23803e+09
4.01288e+09
1.27919e+10
8.44077e+10
4.11038e+09
9.33404e+07
1.72461e+10
1.00711e+11
9.29268e+08
1.22916e+10
6.97774
7.64011
7.64897
8.86757e+08
9.5298e+08
1.15701
1e-15
2.25011e+12
1.85662e+10
2.90455e+09
6.81097e+13
4.3504e+43
2.60969e+43
5.54386e+09
8.09108e+06
7.44658e+17
1.60789e+15
8.26397e+11
2.44919e+12
7.62307
7.62001
8.40884e+06
1.49303e+07
7.32404e+10
3.59308e+06
2.22758e+10
6.24341e+10
1.11294e+11
1.47408e+08
1.33741e+09
6.63262e+23
3.56108e+30
9.20121e+08
1.10026e+06
5.33733e+09
1.04695e+08
5.3735e+17
8.89863e+16
5.80571e+18
3.22678e+19
4.123e+19
3.79737e+12
5.99293e+13
1.12065e+11
1.26452e+09
8.01935e+07
1.59144e+08
4.77785e+06
2.0175
7.07441e+11
4.10898e+12
4.6934e+08
8.89717e+07
4.81739e+08
3.88624e+09
8.16017e+08
3.64625e+08
1.74277e+10
1.04438e+12
7.00288e+12
2.09945e+09
8.91995e+08
5.39206e+07
3.31431e+08
9.87515e+10
1.42024e+08
318185
405978
1.73247e+06
1.4262e+08
3.6314e+07
1.0598e+12
1.84142e+11
3.56009e+10
3.58866e+06
4.99248e+06
4.05107e+14
40771
4.42607e+07
3.64729e+15
6.35048e+14
3.67446e+15
2.10933e+09
2.45339e+06
2.48978e+06
1.39954e+08
2.44031e+07
1.3737e+08
1.22107e+14
5.39736e+18
1.01719e+18
1.325e+13
693814
1.32841e+09
3.5102e+13
8.7463e+12
6.69376e+07
4.32011e+08
1e-15
1.26967e+12
3.69623e+11
1.10972e+10
3.5478e+09
3.33812e+08
3.54418e+16
1.17402e+15
461142
2.08248e+10
9.2304e+09
2.21217e+09
3.35896e+08
3.28255e+14
5.95148e+13
1.78462e+11
3.23324e+10
1.0323e+12
1.1721e+12
6.06255e+21
7.82394e+12
1.49472e+12
6.62498e+11
3.11417e+10
8.28685e+11
1.26609e+11
1.42269e+33
3.11461e+22
1.93927e+11
4.44109e+10
4.48878e+06
4.29629e+31
3.18871e+22
1.44296e+14
2.19468e+13
7.49595e+07
5.33302e+08
2.12862e+22
3.5619e+21
3.21649e+07
5.93794e+06
4.9307e+09
9.95698e+25
4.10701e+09
3.95813e+08
2.87966e+07
7.56558e+09
1.53615e+10
6.05008e+19
9.51651e+18
2.56334e+20
4.31483e+13
4.7088e+06
9.64011e+07
8.39592e+08
1.1871e+07
8.52967e+11
3.00844e+10
1.65468e+11
1.54106e+06
2.17174e+08
3.53076e+08
2.18575e+15
1.4855e+23
1.19817e+13
8.41853e+09
1.24575e+10
6.71309e+08
4.69147e+11
4.85362e+15
5.45548e+14
8.90227e+06
2.37108e+09
3.73802e+09
2.42667e+10
8.04847e+08
1.80724e+15
1.51059e+11
6.89063e+10
1.80546e+11
8.24162e+31
5.4151e+20
8.84531e+19
1.06698e+16
4.17222e+13
1e-15
40479.5
7.40324e+06
2.23313e+06
9.09689e+23
1.51628e+24
2.07773e+07
9.56634e+06
2.18533e+06
3.49003e+06
9.94382e+06
3.55897e+31
6.3847e+31
3.33717e+15
1.91764e+16
1.61347e+10
7.18659e+10
1.59919e+22
1.42796e+21
1.4565e+20
1.39513e+14
1.22003e+15
3.42921e+08
4.52046e+07
4.63446e+11
1.22368e+13
2.19852e+12
2.77015e+16
7.58243e+16
6.01234e+18
9.64853e+10
1.70184e+09
3.25996e+08
3.14537e+19
2.71967e+15
5.49781e+14
9.05262e+10
3.39239e+06
728306
924917
1.31256e+07
1.14843e+12
8.92308e+11
1.54595e+11
7958.94
4.8802e+12
6.94031e+08
1.01259e+08
7.76074e+13
5.77493e+16
1.25516e+23
1.056e+21
2.45324e+17
3.5789e+22
8.09997e+20
2.49234e+08
8.73774e+13
1.52354e+07
2.02143e+09
1.14035e+06
4.09432e+11
1.58382e+12
1.95444e+12
3.62136e+11
2.27248e+09
1.39201e+10
2.13665e+13
9.90166e+07
2.77773e+09
1.73898e+10
2.57411e+12
2.24082e+12
2.23253e+18
2.04293e+07
1.58057e+06
1.3504e+17
6.19616e+14
3.47129e+06
2.11755e+08
2.1659e+15
4.11776e+14
5.34749e+18
1.61164e+13
59462.2
213346
1.50925e+15
2.69766e+14
4.57584e+10
5.35586e+09
4.25706e+06
5.39037e+09
1.76272e+23
2.93906e+23
2.24375e+28
3.86174e+27
3.50619e+15
6.49409e+14
1e-15
1e-15
3.02283e+21
3.28503e+14
1.13515e+17
7.48382e+14
1.48427e+16
4.50998e+07
3.6592e+16
6994.64
2.98338e+12
4.16818e+12
1.26219e+12
7.13864e+07
1.98358e+22
2.03177e+07
44723.8
6.74459e+21
2.11974e+18
3.13866e+30
6.50571e+18
2.2711e+18
1.4058e+19
7.63747e+24
2.83244e+24
8.52197e+06
7.82389e+07
3.30539e+08
5.65088e+10
564214
1.34192e+06
6.61447e+06
3.56978e+07
1.02466e+21
6.13883e+21
702183
1.04202e+19
3.53471e+20
1.89836e+27
2.21836e+29
1.23562e+11
7.39049e+11
3.05008e+09
2.77971e+12
5.08837e+18
4.24698e+15
9.56753e+27
1.63635e+13
1.47499e+08
4014.83
1e-15
16642.6
1.59258e+06
4.59177e+08
8.03653e+07
6.03635e+06
9.50266e+10
2.07994e+06
8.3049e+06
7.62558e+12
1.19709e+12
5.50378e+07
1.90259e+15
6.62956e+20
3.38138e+20
2.4577e+08
1.74991e+14
6.64023e+17
5.64175e+22
5.15253e+16
1.61358e+22
1.77103e+10
1.02219e+18
6.33037e+18
1.3253e+10
1.99371e+14
1.19557e+15
4.26528e+15
1.94975e+09
8.86067e+20
2.80289e+12
9.58434e+09
2.36749e+15
1.39975e+15
4.8119e+15
2.67509e+19
5.45888e+10
1.71601e+16
4.18571e+14
1.68172e+23
2.73933e+22
3.18982e+14
1.24094e+16
8.06149e+10
2.27494e+11
5.75458e+10
3.0647e+08
7.74055e+12
1.98433e+21
1.40716e+07
5.98661e+09
9.02984e+12
7.49807e+19
5.89317e+16
4.39278e+08
1.01301e+07
3.32455e+06
423468
4.47795e+11
2.0357e+13
4.69953e+08
2.71113e+06
3.0454e+26
2.04276e+19
2.64106e+17
3.83475e+17
6.90542e+08
2.77702e+08
8.58291e+15
1.08002e+31
1.64899e+09
6.46518e+15
1.359e+08
1.11465e+11
2.97069e+08
6.84815e+18
1.42715e+10
4.48713e+09
1.03707e+09
8.71898e+12
1.04383e+18
1.23315e+21
1.03306e+19
5.467e+19
1.42307e+08
5.64192e+09
1.28314e+23
9.75228e+11
2.38107e+07
1.00636e+16
2.07841e+20
2.46813e+06
1.78386e+07
5.19618e+17
9.52991e+10
506113
1.65715e+06
3.32034e+27