/*--------------------------------*- C++ -*----------------------------------*\
| =========                 |                                                 |
| \\      /  F ield         | OpenFOAM: The Open Source CFD Toolbox           |
|  \\    /   O peration     | Version:  v2012                                 |
|   \\  /    A nd           | Website:  www.openfoam.com                      |
|    \\/     M anipulation  |                                                 |
\*---------------------------------------------------------------------------*/
FoamFile
{
    version     2.0;
    format      ascii;
    class       volScalarField;
    location    "742";
    object      p;
}
// * * * * * * * * * * * * * * * * * * * * * * * * * * * * * * * * * * * * * //

dimensions      [0 2 -2 0 0 0 0];


internalField   nonuniform List<scalar> 
61389
(
-0.00493411
0.48185
0.470486
0.0541096
0.0190354
0.0705743
0.471169
0.0720447
0.051598
0.0104694
0.000875895
0.457049
0.451107
0.422532
0.0737337
-0.00996495
0.434597
0.386859
0.0755403
-0.0249583
0.402291
0.343679
0.0773965
-0.0430163
-0.0595194
0.364989
0.297001
0.0781064
0.318388
0.242861
0.0785393
0.0776961
-0.0659114
0.268038
0.18629
0.13143
-0.0600224
0.21201
-0.0438406
0.0772761
-0.0563247
0.100206
0.155437
0.0827095
0.0803424
-0.0517217
0.0367986
0.0858122
0.0833481
0.051412
-0.0288182
0.00450792
-0.0372942
-0.0819332
0.0770224
0.0830146
-0.007183
-0.0350952
0.02397
-0.0672899
-0.100226
0.0581486
0.0191804
-0.12761
-0.108966
-0.116458
-0.128304
0.0425659
0.0144312
0.00959839
-0.14811
0.0155603
-0.14205
-0.0232055
-0.00686857
-0.151739
-0.141671
-0.0522189
-0.0405084
-0.163838
-0.147956
0.0121732
-0.0300033
-0.0643152
-0.169083
-0.142157
-0.044714
-0.168143
-0.128144
-0.014205
-0.0661817
-0.161652
-0.0504921
-0.148378
-0.001817
-0.00198338
-0.000102493
-0.000103589
-6.58261e-05
7.63927e-07
-1.21548e-05
-5.30446e-05
-0.000976682
-0.00103762
0.00311255
0.00245471
0.00225117
0.000251659
0.000256132
-0.00183667
-0.00146312
6.39744e-05
7.60357e-05
0.00024136
0.000253385
-0.0138962
-0.015042
1.92742e-05
1.32012e-05
6.00327e-06
-0.00578112
0.000172035
0.000176285
0.000230776
0.00037504
0.000493024
0.000487671
0.000553665
0.000525434
0.000429937
0.00040806
-0.000110662
-0.000109869
-0.000120716
0.000377282
0.000375222
3.78713e-05
1.97325e-05
0.00015525
0.00016273
-9.01211e-05
-5.17234e-05
-0.000291849
-0.00018446
0.000386749
0.000391672
-0.00418638
-0.00697041
0.00043455
0.00042462
-0.000558056
-0.000942193
0.000746512
0.000742502
-6.26637e-05
0.000254452
0.000262946
0.000606617
0.000722368
0.000551414
0.000531438
0.000532642
0.000700487
0.000736713
0.000797945
0.000780735
0.00108006
0.00110376
0.00154853
0.00131644
0.00123943
0.00115288
0.0646923
0.0633913
0.00281352
0.00288873
0.00252873
0.00206029
0.00207253
0.00199605
0.00200101
0.000633125
0.00064996
0.00260715
0.00268263
0.0039254
0.0038075
0.00434867
0.00419577
-0.00506785
-0.00275787
0.00771105
0.00812463
0.00795812
0.00765969
0.0105438
0.01047
0.0192231
0.02006
-0.00616004
-0.00358295
-0.00173051
-0.0176465
-0.0169389
0.0107755
0.00896826
0.00174264
-0.000649244
-0.0122618
-0.0108429
-0.00512115
-0.00498297
-0.00379627
-0.0418693
-0.0427999
-0.0265853
-0.0275578
-0.0222649
-0.0222768
-0.0305712
-0.0303514
-0.0203996
-0.0266469
-0.0242445
-0.0246305
-0.0248323
-0.0410534
-0.0416988
-0.0387182
-0.0390246
-0.0780507
-0.0786967
-0.0438353
-0.0488564
-0.0495465
-0.095341
-0.0988532
-0.0860851
-0.016379
-0.0153548
-0.0312715
-0.031054
-0.0522333
-0.051277
-0.0960847
-0.0908245
-0.111324
-0.049229
-0.0516681
-0.00542055
-0.00588826
-0.0309683
0.217486
0.23058
0.0120192
0.0210129
0.00104815
0.00492393
-0.0196923
-0.031194
0.0780933
0.0786376
0.0773126
0.0775573
0.0641944
0.0640133
0.0663398
0.0667442
0.489567
0.497345
0.497032
0.497936
0.497021
0.496131
0.497127
0.33876
0.35023
0.377696
0.396498
0.0740361
0.0715621
-0.0295604
-0.0362975
-0.0160579
-0.0118868
-0.00796643
-0.0063206
-0.0351607
-0.0331767
-0.0157468
-0.0144134
-0.0476078
-0.0341721
-0.0331836
-0.132893
-0.131708
-0.0468081
-0.0458817
-0.0828202
-0.0786499
-0.0752014
-0.0755683
0.000190088
0.00682794
-0.0563348
-0.0570874
-0.0539851
-0.0549005
-0.0592203
-0.0601616
-0.073656
-0.0758588
0.0237576
0.0222981
-0.0144756
-0.0161929
-0.0115089
-0.0107363
0.00603589
0.00605517
0.00415833
0.00428094
0.00297628
0.00306154
0.00156571
0.0016022
0.0013837
0.00133006
0.00121002
0.0012144
0.00121842
0.00125275
0.0483912
0.0595175
0.0012532
0.00128482
0.00102743
0.00105496
0.0387989
0.0454506
0.000588832
0.000606395
-0.0264238
-0.0243885
-0.000726117
0.00262316
-2.7204e-05
3.49712e-05
0.000323425
0.000316402
0.00355182
0.0056347
6.85113e-05
6.1992e-05
3.27013e-05
5.3379e-06
0.000569498
0.000596679
0.000620718
0.000616584
0.00060734
3.62837e-06
1.69759e-06
1.6883e-06
-0.000115222
-0.000245611
4.58634e-05
2.59596e-05
0.000544752
0.000569994
-0.00012886
5.92118e-05
5.76014e-05
-0.000756257
0.00175672
0.00188995
0.000251199
0.000224163
-6.80337e-05
-7.17742e-05
0.00024775
0.000285347
0.000213193
-0.0011132
-0.00206801
-0.0002745
-0.000745124
-0.00873575
-0.0101753
-0.0115177
-0.000199675
-0.000409846
0.000802885
0.00137308
0.000360145
0.000317411
-0.000192774
-0.000166139
0.000347822
0.00035293
0.000423268
0.000552806
-0.00338901
-0.00378304
-0.00457719
0.000277965
0.000276345
-0.000276203
-0.000249178
0.000344284
0.000345631
0.000369315
0.000366601
7.57094e-05
8.35923e-05
4.11901e-05
4.6577e-05
-4.89368e-05
-1.15848e-05
-2.64216e-06
-3.40166e-05
0.000118874
0.000158029
0.000935787
0.000832667
4.42806e-05
0.000107691
0.000161874
0.000163879
1.82744e-05
1.23113e-05
0.000116065
2.6026e-05
8.00813e-05
9.46658e-05
9.32849e-05
9.78584e-05
-2.61629e-05
0.000175261
0.000178445
2.09291e-05
-7.52488e-06
2.17268e-05
8.26794e-05
6.34842e-05
0.00100736
0.000896864
0.000146929
0.000146
-0.00167868
-0.000556463
-2.40585e-05
4.49468e-05
7.03264e-05
0.00155584
0.00143103
0.00129273
4.33974e-05
-7.29289e-05
-0.000129875
-5.77823e-05
-8.46879e-05
4.2595e-05
4.30982e-05
0.00034546
0.000375288
0.000118995
-0.000361841
-0.000332108
-0.0188469
-0.0175099
9.60861e-05
9.43685e-05
6.21757e-05
3.003e-05
2.40848e-05
0.000124039
0.000558247
0.000580609
0.000305341
0.000328326
-8.91824e-05
-8.75812e-05
-4.86202e-05
-4.81095e-05
-4.29097e-05
-2.98831e-05
0.00116975
0.00109622
0.0108896
5.60529e-05
0.00027497
0.000280577
0.000284713
2.22341e-05
-5.19141e-05
-2.52415e-05
-3.48765e-05
8.30451e-06
-0.000122298
-0.0242864
-0.023076
0.000787917
0.000806895
0.000443991
0.00044626
-0.0001779
-0.000244087
0.000291445
0.000285827
0.000255859
0.000249265
0.00018464
0.000186927
0.000118409
0.000129681
0.000334524
0.00033097
-0.000102505
-0.000197335
0.000311796
0.000314242
0.000589711
0.000593515
0.000583132
0.000313311
0.000316725
-0.00039491
0.000474247
0.000480825
0.000192731
0.000177979
-4.97069e-05
0.000280462
0.000305002
0.000294637
-0.000358081
-0.000449508
-0.0123544
-0.0123499
-0.00954982
-0.00910905
-0.000252619
0.000394918
0.000381931
0.000611956
0.000618113
0.000641716
0.000644582
0.000547649
0.000545249
0.000558623
0.000552131
-0.00486495
-0.00419354
0.00108053
0.00105455
0.0321149
0.0340904
0.000767014
0.000763335
-0.000524497
0.00172489
-0.00351877
-0.00451279
0.00212007
0.00198511
0.00181785
0.00048778
0.000725723
0.000684842
0.000647872
0.00100335
0.000968733
0.00120969
0.00109435
0.000715284
0.000735878
0.000623157
0.000760057
0.000740468
0.00234013
0.00193497
0.000803917
0.000853891
0.00084972
0.00119758
0.0011689
0.000619105
0.00059288
0.000979953
0.00098074
0.00127221
0.00127591
0.00108923
0.00111144
0.00152103
0.00103794
0.00101611
0.000445493
0.000429088
0.00127487
0.00129569
0.00145542
0.00143604
0.00109135
0.00109317
0.00117012
0.00117718
0.0012207
0.00122679
0.0016204
0.00157934
0.00135412
0.00122597
0.00127802
0.00136041
0.0013891
0.00122968
0.00120288
0.000785937
0.00133282
0.00092773
0.00113578
-0.00614411
-0.00618615
0.00202659
0.0020467
0.00152697
0.00153967
0.00156625
0.0014633
0.00255452
0.00233718
0.00113391
0.00128658
0.000932493
0.000857019
0.00127861
0.00228
0.00233357
0.00284568
0.002843
0.00291238
0.0013901
0.00123134
0.00179024
0.00193302
0.00286207
0.00283129
0.00283389
0.00316772
0.00310333
0.00205791
0.00208314
0.000705833
0.000625821
0.00199537
0.00203336
-0.011068
-0.0107747
-0.0100826
0.00118759
0.0021594
0.00309861
0.00315595
0.00322352
0.000759581
0.000802797
-0.0102145
-0.0106741
-0.0267617
-0.0259425
0.00240033
0.00228986
0.00313354
0.00299688
0.00284182
-0.0228153
-0.0220759
0.00423206
0.00416256
0.00294818
0.00297059
0.00309751
0.00230372
0.00232416
0.00248938
0.00501994
0.00498405
0.00184953
0.0020096
0.00425924
0.00425844
0.00106364
0.0075913
0.00764608
0.00144652
-0.00421402
-0.00628386
0.0169643
0.0164745
0.0164153
0.00733048
0.00727781
0.0221359
0.0215973
0.0216042
0.00334568
0.0148716
0.0148242
0.00561791
0.0056237
0.010815
0.0107223
0.00779317
0.00753136
0.00799216
0.00780089
0.00186106
0.00662968
0.00697203
0.0175183
0.0184935
0.00460516
0.0056998
0.00650327
0.00676045
0.0267492
0.0251347
0.0295343
0.030557
0.00894432
0.00891336
-0.00484418
-0.00479454
0.034173
0.0337436
0.0268029
0.0272795
-0.00192939
-0.00165616
-0.000134342
0.00620512
-0.00574546
-0.00554881
0.0171875
0.0172507
-0.00722291
-0.00736122
0.0035615
0.00413205
0.0258967
0.0255361
-0.0249958
-0.025637
-0.00839007
-0.00861047
-0.00683637
-0.00687518
0.011304
0.0102516
0.010897
0.00240696
0.00187679
0.00982797
-0.0284794
-0.0284629
-0.0289769
0.0612539
0.0602866
-0.0236052
-0.0244518
-0.0240948
-0.0143826
-0.0146445
0.00426169
0.00411166
-0.0335984
-0.0336973
-0.0342527
-0.0133622
-0.0133569
0.0183429
0.0178483
-0.0765022
-0.0785329
-0.0795398
-0.0359904
0.00199089
0.00171619
-0.0326272
-0.0327129
-0.0290671
-0.0284559
0.0327961
-0.0105763
-0.00987392
-0.0356101
-0.0368805
-0.0384182
-0.0394923
0.0023813
-0.0120076
-0.0130069
0.00987029
-0.00355884
-0.00438848
-0.0114184
-0.0330354
-0.0371989
0.0122476
0.00604656
-0.06312
-0.0618968
-0.0610472
-0.0611005
-0.059515
0.0413734
0.0434053
-0.0537922
-0.0529494
-0.0183726
-0.0189587
-0.0357662
-0.0362745
0.00741011
-0.0428396
-0.0427468
-0.0486727
-0.0497577
-0.0764346
-0.0745304
-0.0704964
-0.0689937
-0.0374835
-0.0379859
-0.0625706
-0.0616692
-0.0615748
-0.0646169
-0.0660028
-0.0806753
-0.0824116
-0.0287955
-0.0281889
-0.0668055
-0.0668991
-0.0273497
-0.026872
-0.09571
-0.0968763
-0.0931856
-0.0928234
-0.0593073
-0.0531309
-0.0451402
-0.045682
-0.0282378
-0.0287907
-0.00550707
-0.0359127
-0.0849822
-0.0849501
-0.0516257
0.155325
0.15262
-0.0269694
-0.0270033
-0.0197434
-0.0195398
-0.114612
-0.115884
-0.0494326
-0.0475655
-0.0812803
-0.0796558
-0.11005
-0.112489
-0.0398927
-0.0401243
-0.0401069
-0.0342095
-0.0346938
-0.0370708
-0.0370086
-0.0601382
-0.0609976
-0.0756709
-0.0782313
-0.0780175
-0.0967554
-0.0973196
-0.0995974
-0.103781
-0.0456724
-0.0453299
-0.0551451
-0.0539464
-0.0588211
-0.0872609
-0.085268
-0.123617
-0.122635
-0.00695045
-0.0053653
-0.047942
-0.045318
-0.0443519
-0.0453148
-0.0445321
-0.0242576
-0.0243743
-0.0463627
-0.0467443
-0.0738713
-0.066439
-0.0575632
-0.0701512
-0.0680622
-0.0572827
-0.0581997
-0.0375429
-0.0371392
-0.125041
-0.125667
-0.0316542
-0.013129
-0.0113967
-0.0199722
-0.0199734
-0.021407
-0.0211958
-0.0433547
-0.0434205
-0.0295591
-0.0296547
-0.0804416
-0.0814125
-0.0424377
0.0701109
0.0734383
-0.0338463
-0.0343288
-0.0424268
-0.0608616
-0.0611612
-0.0238061
-0.0244128
-0.0322867
-0.0319238
-0.0663454
-0.0177424
-0.0172382
-0.0424423
-0.051134
-0.0275862
-0.0302501
-0.0247156
-0.0262932
-0.0102326
-0.0114851
-0.0300257
-0.028319
-0.00723143
-0.0362787
-0.0445371
-0.0174338
-0.0183186
-0.0190286
-0.020188
-0.0177989
-0.0175808
-0.0325184
-0.0779962
-0.0992015
-0.023223
-0.027567
-0.06053
-0.030554
-0.0319293
0.00145208
-0.0220617
-0.0230022
0.235026
0.227645
0.0143738
0.0140112
-0.0237701
-0.0348665
-0.0508622
0.0707118
0.0680352
0.268576
0.254022
0.0472695
0.0434781
0.29843
0.295016
0.0727312
0.0776669
0.077154
0.0756867
0.293324
0.287028
0.270011
0.431773
0.0728504
0.0722983
0.345433
0.325173
0.0712501
0.0699142
0.0500036
0.0533565
0.0132657
0.0132423
0.0456739
0.0473479
0.481606
0.479345
0.0194868
0.0173613
0.0389434
0.0397182
0.0396525
0.493804
0.493356
0.496564
0.496359
0.0376526
0.066109
0.0655642
0.0673212
0.0678743
0.0616924
0.0633485
0.0238618
0.0265601
0.460617
0.462933
0.47516
0.469916
0.0786043
0.0783747
0.0610446
0.0598965
0.0358153
0.0352735
0.0790755
0.0790471
0.0714507
0.0728344
0.0261177
0.0340546
-0.0337596
-0.03284
0.0755644
0.0761196
-0.0425334
-0.0551433
0.0101952
0.00620224
0.0161557
0.0179494
-0.0493296
0.0160916
0.0138913
0.205594
0.206528
0.223239
0.204141
-0.0211555
-0.032892
-0.125829
-0.116873
-0.00356874
0.000109177
-0.0226843
-0.0183859
-0.0238731
-0.022355
-0.0177087
-0.0192205
-0.0197585
-0.0199181
-0.0140147
-0.0144659
-0.0241859
-0.0234972
-0.0205037
-0.0233256
-0.0219912
-0.0211398
0.00784318
0.00652731
-0.002424
-0.00678238
-0.0283948
-0.029512
-0.084272
-0.0797508
-0.0224484
-0.0213244
-0.0196078
-0.0179471
-0.0150833
-0.0160411
-0.0202388
-0.0194934
-0.0969486
-0.112349
-0.102313
-0.0908304
-0.0824048
-0.0889818
-0.0279124
-0.0290179
-0.0256564
-0.0258701
-0.0535713
-0.0502504
-0.0246765
-0.0247875
-0.0302681
-0.0310346
-0.0693565
-0.0569493
-0.0394721
-0.0141521
-0.0236329
-0.0488085
-0.0506215
-0.0429437
-0.041217
-0.0284071
-0.0279494
-0.0261395
-0.0271941
0.164438
0.15968
-0.0381826
-0.0385812
-0.138513
-0.140091
-0.0587353
-0.0593911
-0.0344644
-0.0342719
-0.0497755
-0.0482362
-0.0801333
-0.0815117
-0.0492074
-0.0510235
-0.139718
-0.0451921
-0.0442102
-0.0581749
-0.0558337
-0.0490377
-0.0473736
-0.0461881
-0.045248
-0.0361754
-0.0366248
-0.0467427
-0.0464968
-0.127053
-0.118949
-0.0399837
-0.0408992
-0.0509495
-0.0509039
-0.0303409
-0.031637
-0.070692
-0.0683672
0.0010919
0.0075128
-0.0333728
-0.0342614
-0.0530389
-0.0535012
-0.0745268
-0.0767438
-0.11225
-0.1098
-0.0470076
-0.0467333
-0.0664497
-0.0645925
0.15702
0.175225
-0.0678746
-0.0691381
-0.0349578
-0.0345413
-0.0408821
-0.0392429
-0.0367114
-0.0373395
-0.104627
-0.101618
-0.0326132
-0.0323561
-0.0580944
-0.0566079
-0.0812066
-0.0813442
-0.0428267
-0.044161
-0.0670697
-0.0651367
-0.0835788
-0.0807537
-0.043526
-0.0441664
-0.127365
-0.131711
-0.0576663
-0.0569011
-0.068487
-0.0670074
-0.0462713
-0.0468752
-0.0765041
-0.0770991
-0.0634806
-0.0614662
-0.0129352
-0.0130111
-0.0384347
-0.0373358
-0.0744033
-0.0717213
-0.0839638
-0.0870618
-0.0647825
-0.0619709
-0.0172284
-0.0170079
-0.0703111
-0.0709392
-0.0454896
-0.0451293
-0.0690569
-0.0674273
-0.0562064
-0.0549148
-0.040271
-0.0391157
-0.0323691
-0.0305539
-0.0454575
-0.0435121
-0.0286763
-0.027605
-0.0753372
-0.0776848
-0.0513389
-0.0490151
-0.0364347
-0.0371968
-0.0789745
-0.0820538
-0.0610276
-0.057141
-0.0580331
-0.0155372
-0.0155723
-0.0388874
-0.040051
-0.0860277
-0.0824486
-0.026468
-0.0266667
-0.0621151
-0.0634872
-0.0185148
-0.0193009
-0.060333
-0.0578641
-0.0384824
-0.0383433
0.0036304
0.0017954
-0.00910376
-0.00933405
-0.0113823
-0.0125765
-0.0161274
-0.0151429
-0.0144035
-0.0115271
-0.0373807
-0.0389681
-0.00819233
-0.00705204
-0.00568884
-0.00104988
0.0087218
0.00390475
-0.00415133
-0.00432735
-0.0235888
-0.0228998
-0.0267702
-0.0265051
-0.021305
-0.0191474
-0.0314205
-0.0327907
-0.0208714
-0.0212976
0.0192883
0.0190355
-0.000642012
-0.000651811
-0.0214858
-0.0205275
0.0117701
0.0154118
-0.0301546
-0.0304228
-0.0187186
-0.0186549
-0.0161077
-0.0152473
0.00510788
0.00489506
0.000155468
0.00109781
0.0118795
0.0144895
-0.0111133
-0.00817935
-0.00204699
-0.00100148
0.00314107
0.00272369
-0.0198264
-0.0197351
-0.0295735
-0.0288319
-0.014521
-0.0134877
0.00428463
0.00344509
-0.0196072
-0.0201666
0.00757994
0.00771482
0.0299987
0.0284691
-0.0114075
-0.0124115
-0.00439129
-0.00353046
0.00209962
0.0130777
0.0125079
-0.0122162
-0.0113824
0.00760885
0.00750828
-0.0137243
-0.0134792
0.000871871
0.0022067
0.0191427
0.0203663
0.0089338
0.00966601
0.0151025
0.0144637
0.0298368
0.0278096
0.0142484
0.0151489
0.0199134
0.0193952
-0.01303
-0.0109322
-0.00551486
-0.00575626
0.00963924
0.00863429
0.030967
0.0321599
-0.0118839
-0.0123653
0.0243527
0.0250306
0.0426128
0.0478763
-0.00405018
-0.00453306
-0.00269964
-0.00202626
-0.00341912
-0.0035451
0.00646967
0.00654815
0.00713566
0.00764532
0.00851993
0.00720646
0.000573632
0.000353333
0.0058073
0.00614054
-0.00471513
-0.00433436
0.0127258
0.0121684
0.00741735
0.00687334
0.0127689
0.0126947
0.00340538
0.00373733
0.00712558
0.00670434
0.0161825
0.0162518
0.00637404
0.00683475
0.00550668
0.00572665
0.0112887
0.0110671
0.00635885
0.00694593
0.00046495
0.000201405
0.00923868
0.00950669
0.0111259
0.011136
0.00921925
0.00946942
0.00314476
0.00292076
0.00673767
0.00657922
0.00472038
0.00427279
0.00462246
0.00483536
0.00215839
0.00234105
0.00531975
0.00499228
0.00219661
0.00196043
0.00731866
0.00747902
0.0026252
0.00228137
0.00473046
0.0048458
0.00216399
0.00224756
0.00641188
0.0062502
0.00412097
0.00446124
0.0058572
0.00612719
0.00532242
0.0052356
0.00285937
0.00294324
0.00399177
0.00402468
0.00518546
0.00506423
0.003052
0.00310275
0.002775
0.00277897
-0.0099696
-0.0096296
0.00460987
0.00440364
0.00398618
0.0040833
0.00212047
0.00213807
0.000418414
0.000191748
0.001324
0.00134475
-0.014144
-0.0126791
0.00394808
0.003771
0.00164007
0.00156876
0.00129163
0.00111755
0.00253134
0.00257858
0.00280768
0.00314964
0.00151741
0.00150841
0.00313249
0.00320147
0.00170367
0.00174868
0.00238643
0.00271867
0.00177206
0.00173495
0.00168401
0.00162601
0.00254662
0.00245068
0.00180938
0.00161094
0.000753605
0.0008313
0.00179401
0.00177153
0.00183403
0.00190179
0.00205021
0.00200872
0.00122726
0.00122517
0.0019339
0.00169454
0.00138776
0.00143461
0.00217632
0.00223884
0.0017192
0.00169088
0.00164641
0.0016988
-0.0169762
-0.0150812
0.00161483
0.00161562
0.00148805
0.00147849
0.00178029
0.00186
-0.00225773
-0.00203886
-0.0309418
-0.0291418
0.00138401
0.00142064
0.00151617
0.0015444
0.00142858
0.00153492
0.00129755
0.00132571
0.00155041
0.00153617
0.00177066
0.00173583
0.0382693
0.0441847
0.00134465
0.0014076
0.00126803
0.00128185
0.00140459
0.00127009
0.00135251
0.00139442
0.0013275
0.00141021
0.00155498
0.00158571
0.00176622
0.00165792
0.00121165
0.00125594
0.00155567
0.00149519
0.00212198
0.00227697
0.00127228
0.00128551
0.00353875
-0.00231275
0.00114853
0.00111347
0.00124107
0.00127807
0.00125284
0.00104456
0.000934653
0.000921305
0.0010749
0.00108244
0.00116611
0.00101114
0.0291727
0.0388234
0.00113594
0.00123886
0.00108797
0.00111603
0.00105962
0.00101696
0.000916285
0.000914439
0.00095232
0.00100557
0.00100252
0.000856496
0.00092212
0.000926598
-0.00148824
-0.000997606
0.000160622
0.000616033
0.00122262
0.00118119
0.00106903
0.00104615
0.00109149
0.00107564
0.000753487
0.000753869
0.000748357
0.000760811
-0.00207815
-0.00179298
0.000685213
0.000666664
0.000867092
0.000858529
0.00128075
0.00128273
0.00100759
0.0010472
0.000720322
0.000635792
-0.0208118
-0.0191522
0.000597065
0.000152579
0.000492512
0.000432378
0.000777112
0.000760259
0.00060971
0.000708666
0.000926646
0.000977905
0.000860248
0.000813865
0.000655483
0.000672586
0.000716748
0.000711889
0.000797968
0.000729544
-5.04003e-05
2.61638e-05
-5.91757e-05
-5.17503e-05
0.000745658
0.000756818
0.000558105
0.000564377
0.000507814
0.000512052
0.000583131
0.000579382
0.000419473
0.000470977
0.000646613
0.000648731
0.000510775
0.000536201
0.000495036
0.000502677
-0.000266933
-0.000316877
-0.000303969
-0.0002527
5.78614e-05
0.000127384
0.000478311
0.000488587
0.000257795
0.000333049
-0.000467722
-0.000360725
0.00042602
0.000415581
0.000443513
0.000482118
0.00045216
7.73706e-05
0.000134842
0.00047741
0.000446824
-0.000396488
-0.000427627
0.000379328
0.00036716
0.000382018
0.000353623
-0.000231928
-0.000266111
0.000118527
0.000122944
0.000325037
0.000316837
0.000326608
0.000308956
-0.000128554
-0.00014931
0.00169472
0.00162369
0.000311743
0.000306178
-9.87187e-06
5.76538e-05
-0.0209689
-0.0213229
0.000278729
0.000292162
-0.000395407
-0.000311629
0.000290036
0.000294274
-0.000466275
-0.000396797
-0.000331501
-7.14304e-05
0.000134395
0.000130217
-0.000280739
-0.000255867
-4.45025e-05
-3.8808e-05
0.0232683
0.020531
8.92473e-05
8.75638e-05
-1.48807e-05
0.000186916
0.00016897
0.000164574
0.000159415
-0.000274572
-0.000305193
-0.000134217
-0.000142092
-2.02843e-05
-3.91765e-05
8.16711e-05
7.94372e-05
-0.000247187
2.16226e-05
7.41389e-05
6.37313e-05
0.0044419
0.00512173
-6.45881e-05
-0.000128182
0.0139197
0.0154219
8.20264e-05
8.87553e-05
0.000343552
0.000356752
5.042e-05
3.75126e-05
3.21092e-05
3.79983e-05
0.000452225
0.000423788
-1.07535e-06
-7.89516e-06
3.40408e-05
1.82484e-05
0.00026912
0.00026512
-2.39886e-05
2.18745e-05
-2.70554e-05
-4.58453e-05
0.000305857
0.000411378
1.66733e-05
0.000297797
0.000284246
0.000100319
0.000121023
0.000126925
0.000117646
0.0001419
8.67926e-05
0.000105869
0.000135139
0.000407057
0.000307644
0.00031485
0.000161261
6.21278e-05
0.00031861
0.000317126
0.000277273
0.000252412
-0.000409817
-0.000394548
-6.06727e-06
-1.15791e-05
9.81288e-05
0.000132782
6.73428e-05
0.000100802
4.75655e-05
7.49609e-05
-6.17107e-06
1.46348e-05
5.62543e-05
3.2964e-05
2.42775e-05
8.33277e-05
0.000328027
0.000322401
-8.40047e-05
-9.85435e-05
9.97613e-05
9.1222e-05
8.80165e-05
-5.51029e-05
9.69714e-05
-5.56546e-05
-4.81547e-05
-0.00483994
-0.00661095
4.55725e-06
-4.77143e-05
-8.32575e-05
4.96551e-05
0.000121314
0.000126822
-0.00024069
-0.000197783
5.39267e-07
-4.2667e-05
7.01685e-06
-0.000116517
-1.6537e-05
-2.00538e-05
-7.24492e-05
-2.56537e-05
7.72454e-05
2.33588e-05
8.40453e-05
9.75449e-05
4.30207e-05
5.72532e-05
8.62044e-05
8.84943e-05
0.000112341
0.000107034
1.27845e-05
8.49056e-06
0.00044357
0.000531238
8.8084e-06
0.00106932
0.000480467
9.7363e-06
1.82146e-05
0.000217357
0.00021184
0.000721264
0.000567122
0.00538256
0.0059338
0.000261051
-0.00327962
-0.00279091
-0.00155964
-0.00219324
0.000833947
3.18296e-05
-0.000103339
-0.00473352
-0.00472953
-0.000142733
-0.000195556
-6.84845e-05
-6.93133e-06
-0.00171207
-0.00225097
-8.13312e-05
-9.33319e-05
0.000486339
0.000434611
0.00071772
0.000585443
-0.000256666
-0.000465437
0.000531734
0.000589268
-6.36571e-05
-3.93641e-05
1.63668e-06
-5.64119e-06
-4.89132e-06
-1.98954e-06
-2.05078e-07
0.000700749
0.00071048
-8.67434e-06
-3.26433e-06
-0.000193777
-0.000191572
0.000116996
0.000112156
0.000198426
0.000226717
-2.193e-05
-1.34889e-05
0.000523801
-0.000111846
-0.000163866
-0.000786197
-0.000586641
0.000210945
0.00020593
0.000601522
0.000642915
-0.00302923
-0.00276422
-0.000897566
-0.00133387
0.00208119
0.00180756
-0.000199115
-0.00018155
-0.00018064
0.000109811
9.46852e-05
-0.001337
-0.0047247
-0.00487888
-0.00325574
-0.000327534
-0.000313588
0.000329244
0.000326684
0.000335726
-0.00948535
-0.00826349
-0.000438987
-0.00279497
-4.23368e-05
-5.25142e-05
-0.00243356
-0.00277498
0.000200978
0.000201837
0.000671011
0.00091103
0.000700539
-4.44648e-05
-6.3614e-05
-0.0029377
-0.00148793
-3.51958e-05
-3.25232e-05
-2.89243e-05
0.000113968
0.000116298
0.000113739
6.02324e-05
5.23615e-05
-2.53816e-06
-0.000370297
-2.43456e-05
-2.30274e-05
7.85055e-05
8.00909e-05
0.00107181
0.000861785
-0.00169432
-0.000201999
-0.000189801
3.76644e-05
2.71822e-05
-7.29142e-05
3.12206e-05
9.76214e-05
9.65533e-05
-2.67822e-05
-4.48317e-05
0.00010038
2.81487e-05
0.000120301
0.000124296
0.000203279
0.000203818
0.000371118
0.000372176
-2.07263e-05
0.000196269
0.000197065
6.7163e-05
5.05871e-05
8.35642e-05
2.39491e-05
4.03136e-05
-9.94558e-05
-0.000103799
6.50941e-05
6.01988e-05
4.56991e-05
-0.00523154
-0.00774336
-0.00795847
0.000117832
0.000116095
0.000407369
0.000406324
2.98507e-05
2.91425e-05
-2.79487e-06
0.000107379
3.2072e-05
3.81327e-05
-0.000231019
-3.54066e-06
-0.000278426
-0.000323914
9.01316e-05
-0.000321237
-0.000373383
0.000234935
0.000268256
0.000454485
0.000471713
0.0006057
0.000305853
0.000885929
0.000915976
-1.49033e-05
-7.71719e-06
-2.68448e-05
-1.30524e-05
-8.4697e-06
8.35941e-07
-5.944e-05
8.40694e-06
6.62373e-05
1.67277e-06
7.88922e-06
-3.03023e-05
-4.19424e-05
0.000269821
0.000299619
0.000340757
0.000338808
-0.000255233
-0.000197665
0.000297928
0.00024401
0.000543188
0.000456071
8.37732e-05
6.06042e-06
-3.06776e-05
3.05868e-05
-8.52105e-05
0.000276051
0.000279762
-3.65445e-05
0.00037656
0.000374982
0.00019193
0.000194036
0.000485982
0.000525904
0.000519697
-0.000132192
-2.00498e-06
-0.000114772
9.73489e-06
1.40314e-05
0.000508807
0.000523578
0.000491207
-0.00024063
-0.000262691
5.86843e-06
0.000322369
0.00024157
7.6355e-05
-0.000390465
-0.000369
0.000223995
0.000231444
0.0004889
0.000480222
0.0130339
0.0154588
-8.43337e-05
9.77564e-05
0.0227292
0.02245
-9.43535e-05
-9.34804e-05
0.000473524
0.000471309
8.01311e-05
-0.0153693
-0.0155426
0.001899
0.00192291
0.0019131
0.000410523
0.000410795
0.000182924
0.000287232
-0.000430625
-0.00040639
0.000747118
0.000163357
0.000428033
0.000433992
-0.000180227
0.000532934
0.000235541
0.00218165
0.00217487
0.00209887
0.0020269
0.000731103
0.00076326
0.000657792
0.00061513
0.000944606
0.000938642
0.000920758
0.0002859
7.59866e-07
-2.13757e-05
0.00376822
0.00342911
0.00117664
0.00113967
0.000761425
0.000726072
0.000350206
0.000259301
0.000232675
0.00055863
0.000555612
0.00112014
0.00127086
0.00132474
0.000641758
0.00062269
0.00146459
0.00144382
0.00138947
0.00212043
0.00203632
-0.00159756
0.000709564
0.000704315
0.000548543
0.000632513
0.00149176
0.00176623
0.00108888
0.00108714
0.00107955
0.00117488
0.00114964
-0.0264489
-0.0255817
0.000762678
0.00123698
0.00123133
0.00115965
0.000989899
0.000834949
0.00058636
0.000978027
0.000979563
0.000389049
0.000373493
0.000464042
0.000806117
0.000809615
-0.0163813
-0.0153005
0.000681438
0.00103134
0.00103748
-0.000198471
0.000845994
-0.017536
-0.0165436
0.0011461
0.00110001
0.000807497
0.00110709
0.00110999
0.00085728
0.000843328
0.00192459
0.00174309
0.000638927
0.00119756
0.00121587
0.00110038
0.00110261
0.00224982
0.00204605
0.00130125
0.00127291
0.0013131
0.00149491
0.000698598
5.89454e-05
0.00121031
0.00119011
0.0215917
0.0261864
0.00148241
0.00151067
0.000873857
0.00132469
0.00152911
0.000721806
0.00182801
0.00178979
0.00118259
0.00115531
0.0017319
0.00170646
-0.017152
-0.0176249
-0.0153357
0.001642
0.00163152
0.0016211
0.00166312
0.000915559
0.00143278
0.00144653
0.00159435
0.00165213
0.00141461
0.00192693
0.00193837
0.00216035
0.00166142
0.00264838
0.00256722
0.00105636
0.00218854
0.00223992
0.00126811
0.00128218
0.0012852
0.00132881
0.00243416
0.00248364
0.00231817
0.00228588
0.00172789
0.00329347
0.00339279
0.00297213
0.00291913
0.000471562
0.00281299
0.00279428
0.0010838
0.00102344
0.00368592
0.00366947
0.00178441
0.00172944
0.00172481
0.00181018
0.0018832
0.00328665
0.00318693
0.00136007
0.00121749
0.0043026
0.00443688
0.0048054
0.00309513
0.00301614
0.00244579
0.00276246
0.00273559
0.00206381
-0.0159984
-0.0146734
0.00363098
0.00362874
0.00174705
0.00158146
0.00195995
0.00204074
0.00391732
0.0039064
0.0014751
0.00216181
0.00332262
0.00326099
0.00261736
0.00242112
0.00606853
0.00659393
0.0026542
-0.00911744
-0.00785639
0.00341244
0.00252366
0.00263192
0.000623923
0.00483389
0.00299648
0.00296132
0.00578593
0.00624938
0.00134482
0.00146816
0.00216456
0.00235656
0.00249642
0.00679722
0.00667194
-0.0238869
-0.0242137
-0.000238559
0.0037875
0.00358532
0.00366352
0.00394103
0.00398337
-0.00232857
-0.00252604
-0.0340603
-0.0334326
-0.0329022
0.0224702
0.0168187
0.00386266
0.00211863
0.00620554
0.00599903
0.0066472
0.00686296
0.00291162
0.0013911
0.00162583
0.0122602
0.0119931
0.000441557
0.000506611
0.00692884
0.000391815
0.00138825
0.00204301
-0.0256783
-0.0251711
0.00794323
0.0075285
0.00340079
0.00479759
-0.00525088
-0.00551504
0.00147277
0.00157124
-0.0191178
-0.0180123
0.00838584
0.015984
0.017447
-0.0122236
-0.0124156
-0.0343813
-0.0336478
0.00123837
0.00077905
-0.0135879
-0.0131157
-0.0145789
0.0111496
-0.0042132
-0.00463934
0.0375083
0.0364928
-0.031485
-0.0325826
-0.0298769
-0.0130898
-0.0128382
-0.00406543
-0.00477821
0.0059482
-0.000206472
0.0324707
0.0325184
-0.00784604
-0.00756867
-0.0164001
-0.0153031
0.0987457
0.0962704
0.101825
-0.0109541
-0.0101806
-0.0039593
-0.00342719
-0.0191367
-0.0187856
0.00134583
0.00933282
0.00925069
-0.0228189
-0.0228184
-0.0199861
-0.0195682
-0.0328063
-0.0326213
-0.0326635
0.0131589
0.0105606
0.0104042
0.00708663
0.0232791
-0.00305288
-0.00292512
-0.0264852
-0.0266508
0.0169447
0.0170689
-0.0245366
-0.0237079
0.0089998
0.0100395
0.0126153
0.0123727
8.01102e-05
-0.0103405
-0.0112766
-0.00167232
-0.00223176
-0.028474
-0.0278028
0.010965
-0.0405335
-0.0394789
-0.0526745
-0.0513846
-0.0543799
-0.0331701
-0.035009
0.0117346
0.0699301
0.0708039
-0.0258655
-0.0261443
0.139614
0.135354
-0.0116613
-0.0110642
-0.0344057
-0.0342014
0.0424873
-0.0285443
-0.0294759
-0.0131206
-0.0135961
-0.0147731
-0.0152088
-0.0566705
-0.0559446
0.022667
0.0253336
-0.0189386
-0.0596166
-0.0608589
-0.0411387
-0.0409723
-0.00835589
-0.00586052
-0.0628768
-0.0618845
-0.0501677
-0.0503241
-0.0143408
-0.0261854
-0.0675868
-0.0694165
-0.0318915
-0.0313309
-0.0323763
-0.0468605
-0.0469596
-0.0445346
-0.0442182
-0.0276684
-0.0279897
-0.0276944
-0.0251089
0.0137738
-0.0665859
-0.0662224
-0.04573
-0.0452213
-0.0612814
-0.0607397
-0.0920059
-0.0905051
-0.0742157
-0.07382
-0.116597
-0.11781
-0.0860282
-0.0875375
-0.0461865
-0.0457368
-0.0783233
-0.0790119
-0.0834615
-0.085222
-0.0566216
-0.0582153
-0.0573684
-0.0333703
-0.0336603
-0.033848
0.0153108
0.0135346
-0.0303554
-0.0296451
-0.0623527
-0.0617368
-0.104797
-0.104531
-0.0408678
-0.0409767
-0.040647
-0.0598632
-0.0588715
-0.00209107
-0.00602781
-0.0870414
-0.0869085
-0.0442414
-0.04366
0.0130077
0.0162141
-0.0847409
-0.0832109
-0.00471681
-0.063246
-0.0618773
-0.0601704
-0.114287
-0.112255
-0.0432927
-0.0424824
-0.0710282
-0.0887052
-0.0371339
-0.0376538
-0.00244221
-0.0826148
-0.0808009
-0.0142299
-0.0503466
-0.0492958
-0.0566168
-0.0543769
-0.0651987
-0.0205003
-0.0201191
-0.0206298
-0.0833581
-0.0480904
-0.0469622
-0.105012
-0.0748457
-0.0742857
-0.0347297
-0.0334386
0.0253672
0.0132972
0.0553421
0.0534136
-0.0286532
-0.0290316
-0.0309534