/*--------------------------------*- C++ -*----------------------------------*\
| =========                 |                                                 |
| \\      /  F ield         | OpenFOAM: The Open Source CFD Toolbox           |
|  \\    /   O peration     | Version:  v2012                                 |
|   \\  /    A nd           | Website:  www.openfoam.com                      |
|    \\/     M anipulation  |                                                 |
\*---------------------------------------------------------------------------*/
FoamFile
{
    version     2.0;
    format      ascii;
    class       volVectorField;
    location    "742";
    object      U;
}
// * * * * * * * * * * * * * * * * * * * * * * * * * * * * * * * * * * * * * //

dimensions      [0 1 -1 0 0 0 0];


internalField   nonuniform List<vector> 
61389
(
(0.918756 -0.418631 -2.89551e-22)
(0.0858102 -0.177277 1.06506e-20)
(0.112925 -0.223459 -1.3752e-20)
(0.0717035 -0.10488 2.72722e-21)
(-0.209607 0.00260377 0)
(0.0593327 -0.00671577 -3.99678e-21)
(0.0932913 0.21668 -3.48308e-21)
(0.089413 -0.00344473 0)
(-0.0819302 -0.108878 0)
(-0.222689 0.00269572 -3.90726e-23)
(-0.217559 0.00337254 -1.77109e-21)
(0.122013 0.265547 -1.35091e-20)
(0.157471 -0.282672 0)
(0.221712 -0.342513 -1.18865e-20)
(0.128718 0.0109417 -1.26144e-20)
(-0.212608 0.000512552 1.99069e-21)
(0.167643 0.322596 -3.65583e-21)
(0.289116 -0.393963 -1.49293e-23)
(0.165429 0.0277292 1.03448e-20)
(-0.203278 -0.0229529 4.64433e-21)
(0.231752 0.377466 -1.33861e-20)
(0.363984 -0.435413 -2.08472e-20)
(0.194848 0.0462369 -1.41449e-20)
(-0.137593 -0.0111575 0)
(-0.0959578 -0.0270448 0)
(0.300646 0.423232 1.36262e-20)
(0.447786 -0.465593 6.79138e-21)
(0.212084 0.0570053 0)
(0.382365 0.463254 9.20432e-21)
(0.537406 -0.487072 1.69164e-20)
(0.223924 0.0684169 0)
(0.245255 0.0674953 -1.0055e-21)
(-0.0588697 0.0345323 1.06112e-19)
(0.468167 0.489696 0)
(0.62671 -0.495923 0)
(0.714444 -0.48981 0)
(-0.0319402 0.0533119 -4.95699e-20)
(0.555791 0.514697 0)
(0.526686 -0.0221659 9.62155e-22)
(0.278852 0.0582052 0)
(0.0989994 0.0208249 7.66302e-22)
(0.730412 0.510834 0)
(0.643366 0.518433 -1.90572e-21)
(0.796158 -0.469275 4.00648e-22)
(0.314271 0.0455281 -4.21836e-21)
(0.290799 -0.00508242 -1.0444e-20)
(0.861445 -0.44442 0)
(0.459405 0.0534716 2.8258e-20)
(0.377509 0.0387034 0)
(0.806546 0.491544 -6.84444e-22)
(0.759347 -0.033053 0)
(0.874929 0.46531 0)
(0.968882 -0.385428 -7.66915e-22)
(1.0304 -0.334098 1.31629e-21)
(0.691461 0.110441 0)
(0.575455 0.0838182 -9.82841e-22)
(0.923625 -0.0402638 -3.3739e-22)
(0.933893 0.432787 3.72451e-21)
(0.973062 -0.072003 2.34014e-21)
(0.984623 0.396827 0)
(1.06132 -0.295561 0)
(0.798552 0.146722 7.80974e-21)
(0.986624 -0.0955956 0)
(1.07321 0.305174 1.29076e-20)
(1.04423 0.343211 2.5753e-20)
(1.08344 -0.262294 0)
(1.1025 -0.226488 3.622e-20)
(0.874296 0.175364 -3.34307e-21)
(0.988143 -0.105875 6.60088e-22)
(0.988882 -0.111883 0)
(1.13566 -0.134 0)
(0.940924 0.199577 -3.90497e-21)
(1.09645 0.268203 1.27542e-20)
(1.01772 0.185144 1.56443e-20)
(1.00171 -0.124871 6.89317e-22)
(1.11436 0.23099 1.12901e-20)
(1.12368 -0.177613 -1.7279e-20)
(1.05722 0.103899 -7.43328e-22)
(1.03513 -0.135314 1.45783e-21)
(1.13339 0.181377 5.98861e-20)
(1.13833 -0.0932467 1.26773e-20)
(0.98376 0.0540103 -5.09285e-21)
(1.0345 0.0363888 -1.02073e-21)
(1.06376 -0.0909885 0)
(1.14388 0.135688 -4.31429e-21)
(1.1356 -0.0567702 6.36198e-21)
(1.03923 -0.0762973 0)
(1.14775 0.0944271 5.66878e-20)
(1.12379 -0.0158735 0)
(1.00926 0.0903627 0)
(1.06008 -0.0859102 2.31439e-20)
(1.14468 0.0572275 0)
(1.05042 0.0719697 2.94948e-20)
(1.13532 0.0145612 7.05143e-20)
(1.00205 -0.000357463 -8.56503e-21)
(1.00221 -5.497e-05 1.6804e-20)
(1.00108 -9.30729e-05 1.05395e-21)
(1.00107 -9.66725e-05 -8.99336e-22)
(1 -0.00298822 0)
(0.999949 -0.00287754 0)
(0.999959 -0.00271661 -3.03509e-22)
(1.00003 -0.00256308 6.56557e-22)
(1.00167 -0.000853163 -3.81867e-22)
(1.00178 -0.000502815 4.10368e-21)
(0.997454 0.00362793 -7.34019e-21)
(0.99804 0.0036569 5.5612e-21)
(0.998267 0.0031325 0)
(0.999881 -0.000355803 -4.6706e-22)
(0.999869 -0.00037756 4.46638e-24)
(1.00269 0.000406642 3.3955e-21)
(1.00233 0.000239693 -2.44377e-21)
(1.00017 -9.28767e-05 0)
(1.00014 -0.000112153 0)
(0.999941 -0.000274278 4.61011e-22)
(0.999909 -0.000303519 6.26497e-22)
(1.01414 -0.00465642 -3.3745e-20)
(1.01526 -0.0018074 -3.41745e-20)
(1.00097 0.000200826 -5.32377e-23)
(1.00089 0.000199761 1.68532e-24)
(1.00091 0.000201787 4.07378e-24)
(1.0065 -0.005347 -8.68394e-21)
(1.00015 -0.00011081 -4.95865e-22)
(1.00011 -0.000134319 -5.24706e-23)
(0.999803 -0.000879189 -7.05238e-24)
(0.999738 -0.000903717 6.1787e-23)
(0.999591 -0.00139266 2.00413e-23)
(0.999601 -0.00140425 2.24203e-23)
(0.999577 -0.00141564 -2.3587e-23)
(0.999551 -0.00140417 3.50417e-23)
(1.00089 -1.05322e-06 -6.21309e-22)
(1.00077 -0.000132973 1.04683e-21)
(1.00003 0.000302589 3.61777e-23)
(1.00115 0.000226157 -3.27414e-22)
(0.999114 0.000405283 -2.98758e-23)
(0.999722 -0.000674465 0)
(0.99974 -0.000679564 4.98656e-22)
(1.00228 -0.000355814 0)
(1.00243 -0.000387513 6.81986e-23)
(0.999675 -0.000839735 0)
(0.999635 -0.000862081 1.15537e-22)
(1.01001 -0.00123049 0)
(1.01013 -0.00128401 5.08609e-23)
(0.977219 0.00101605 -4.89222e-22)
(0.977303 0.00111533 -4.06454e-23)
(0.999627 -0.00108287 0)
(0.999611 -0.00108801 6.67235e-22)
(1.00435 0.0236059 -2.99191e-21)
(1.00725 0.0219008 -8.52604e-21)
(0.998224 -0.00107238 0)
(0.998281 -0.00106149 0)
(0.998355 -0.0124766 0)
(0.999108 -0.012341 0)
(0.999785 -0.00167676 1.20139e-21)
(0.999777 -0.00167537 -1.37639e-21)
(0.985366 0.000207787 -1.58605e-22)
(0.991075 0.00589121 -1.87104e-22)
(0.986495 0.00671782 1.07104e-22)
(0.977984 0.00499289 -1.76395e-22)
(0.977926 0.00471088 -5.53187e-22)
(1.00778 -0.00221907 3.57968e-22)
(1.00754 -0.00210236 0)
(1.00158 0.00261487 -5.05751e-22)
(1.00803 -0.0029742 -7.65658e-22)
(1.00793 -0.00287729 -3.33081e-22)
(0.999893 -0.00167239 0)
(0.999883 -0.00167692 -3.83768e-22)
(0.994802 -0.0035225 -6.19354e-22)
(0.994876 -0.00351758 -5.71387e-22)
(0.982903 -0.00623492 7.58261e-22)
(0.987209 -0.00585543 0)
(0.995778 0.000776644 -5.31582e-23)
(0.998161 0.000338828 1.67642e-22)
(0.933399 -0.00334521 4.21995e-20)
(0.934524 0.00484436 0)
(0.954881 0.0119255 -9.26006e-22)
(0.955638 0.0118918 1.14508e-21)
(0.956569 0.0120796 1.21448e-21)
(1.00034 -0.00226671 -1.24947e-21)
(1.00026 -0.00219377 -1.2213e-21)
(0.998207 -0.00254531 3.34548e-22)
(0.99823 -0.00249942 0)
(0.993645 0.00277725 -7.92556e-24)
(0.993397 0.0027971 1.72229e-23)
(0.963582 0.0129415 -8.8771e-22)
(0.960437 0.0130121 1.0917e-21)
(0.99113 0.00312168 1.81536e-21)
(0.991768 0.00288009 -2.68304e-21)
(1.00543 -0.00180189 0)
(1.00575 -0.00190965 -2.04688e-21)
(1.00386 0.0551468 -1.40627e-21)
(1.00147 0.0558284 0)
(0.973534 -0.0178162 1.78228e-21)
(0.97268 -0.0183326 -4.52911e-21)
(1.0104 -0.00122117 1.7534e-21)
(1.01026 -0.00109885 0)
(0.960931 -0.0173483 5.10608e-21)
(0.961162 -0.0164771 -4.97597e-21)
(0.994221 -0.00431709 6.456e-21)
(0.992572 -0.00350031 -1.33801e-21)
(1.00581 -0.0621552 1.4578e-21)
(1.00353 -0.0628081 -2.35595e-21)
(1.00157 -0.0612226 7.06125e-22)
(1.01854 -0.0195176 -3.67027e-23)
(1.01771 -0.0200387 0)
(0.984243 -0.0534724 -1.78267e-21)
(0.985692 -0.0526237 -3.98139e-22)
(0.995093 -0.0705894 9.09124e-23)
(0.997608 -0.068847 0)
(1.01148 0.0458678 0)
(1.01018 0.0458652 -5.694e-21)
(1.01292 0.0160861 1.9901e-21)
(1.01256 0.016668 9.41323e-22)
(0.997335 -0.021562 0)
(1.03681 -0.0417085 3.71491e-21)
(1.03773 -0.041277 0)
(1.02018 -0.0276868 5.08709e-21)
(1.02136 -0.0282529 0)
(1.01771 -0.0569357 -6.14298e-21)
(1.01786 -0.0586129 0)
(1.02554 -0.0372948 2.74156e-21)
(1.02532 -0.0383293 0)
(1.01357 -0.0280223 -3.28641e-21)
(1.021 -0.0309292 -3.9513e-21)
(1.0235 0.0303279 0)
(1.02381 0.0302113 0)
(1.02404 0.0296684 -7.05322e-21)
(1.0353 -0.0069392 0)
(1.03583 -0.00719787 0)
(1.03518 -0.00226458 -4.81024e-21)
(1.03533 -0.00167767 -9.01817e-21)
(1.07244 -0.00627225 -2.26495e-20)
(1.07293 -0.007661 1.71408e-20)
(1.04497 0.0422295 -2.29396e-20)
(1.0448 0.0229607 6.01714e-21)
(1.04557 0.02305 -1.64367e-20)
(1.09065 -0.0953124 -2.11295e-22)
(1.094 -0.094179 1.20908e-20)
(1.08005 -0.00330357 2.83772e-20)
(1.01501 0.0510319 3.23052e-21)
(1.01408 0.0508566 1.9847e-21)
(1.03158 -0.0512884 0)
(1.0311 -0.0527821 0)
(1.05308 -0.0488141 4.72014e-21)
(1.05218 -0.0477931 0)
(1.06813 -0.244866 0)
(1.06422 -0.237471 0)
(1.0843 -0.241651 -1.6492e-20)
(1.04446 0.0764408 0)
(1.04668 0.0737017 0)
(0.99036 0.147748 0)
(0.993348 0.134658 5.17127e-21)
(1.03265 -0.0256482 -4.65241e-21)
(0.721234 0.212038 2.13754e-20)
(0.710497 0.196138 -4.1895e-20)
(0.997122 -0.0752722 -2.0319e-21)
(0.983595 -0.0687825 0)
(1.01537 -0.0717501 1.03151e-21)
(1.00858 -0.070604 -1.03155e-21)
(0.94412 0.377825 1.70429e-21)
(0.95959 0.367834 -2.21457e-21)
(0.272993 0.0363799 0)
(0.305555 0.0427498 1.27195e-22)
(0.191887 0.0249908 -5.46221e-21)
(0.205447 0.0226192 0)
(-0.032061 0.014773 0)
(-0.0295199 0.0100944 7.23318e-21)
(0.00841852 0.0125745 1.7468e-20)
(0.0275941 0.0160831 -3.25561e-21)
(0.142697 0.0337791 1.50271e-23)
(0.0763683 -0.00175061 -5.12014e-21)
(0.0798479 0.00182057 4.81218e-21)
(0.0683649 -0.00503622 5.8598e-21)
(0.0687247 0.0363435 0)
(0.0769144 0.0431875 5.64014e-21)
(0.0775257 0.00904261 0)
(0.356021 0.439427 -1.54045e-20)
(0.365817 0.400244 1.27252e-20)
(0.379842 0.31139 -1.08641e-20)
(0.333002 0.306508 0)
(0.344229 0.00322463 8.64452e-21)
(0.427031 -0.00400345 -3.44776e-21)
(0.813528 -0.0517353 3.92564e-22)
(0.906495 -0.0684964 1.56802e-22)
(1.01242 -0.0931044 3.61958e-21)
(1.00857 -0.0961193 -2.167e-21)
(1.00259 -0.124369 1.27575e-21)
(1.00147 -0.119436 -1.31006e-21)
(1.03525 -0.0625671 -3.98509e-21)
(1.03336 -0.0598499 4.68522e-21)
(1.01581 -0.0489444 3.30729e-21)
(1.0147 -0.0470838 -5.03958e-22)
(1.04284 0.0775892 0)
(1.03649 0.0829576 -5.58815e-21)
(1.03638 0.101873 0)
(1.12721 -0.0630235 0)
(1.12646 -0.0588394 0)
(1.04116 -0.00128551 8.66324e-21)
(1.04028 -0.000572725 8.96331e-21)
(1.08137 0.0398424 2.12489e-20)
(1.07752 0.0409216 -3.82518e-21)
(1.06944 -0.0229355 0)
(1.0699 -0.0253334 1.39679e-20)
(0.996216 0.0907386 0)
(0.989436 0.0912944 -2.10768e-21)
(1.05091 -0.0271682 6.0756e-21)
(1.05173 -0.0280379 -1.13386e-20)
(1.04866 -0.032528 -2.72164e-21)
(1.04955 -0.0333186 0)
(1.05384 -0.0258242 0)
(1.05472 -0.0277339 1.45067e-20)
(1.06785 -0.0712006 1.37942e-20)
(1.06968 -0.068768 1.49544e-20)
(0.959619 -0.0435149 1.84684e-21)
(0.959162 -0.0417571 0)
(1.01539 -0.0193124 0)
(1.01678 -0.0199985 0)
(1.00793 -0.0216581 -8.40939e-21)
(1.00721 -0.0213425 -4.41767e-21)
(0.973797 0.00199069 -2.20547e-21)
(0.972455 0.00354041 -3.12279e-21)
(0.989398 0.00288498 1.54883e-21)
(0.988572 0.00271339 -3.46351e-21)
(1.0023 0.00603042 -1.55199e-23)
(1.00097 0.00509767 0)
(0.999536 -0.00191099 -9.89467e-22)
(1.00026 -0.00175101 3.15715e-22)
(1.00041 -0.00129689 -8.29983e-23)
(1.00041 -0.00135626 0)
(1.00005 -0.00135284 0)
(1.00041 -0.00130132 1.54214e-21)
(0.996229 -0.00394373 9.6515e-22)
(0.99613 -0.0038755 0)
(0.950281 0.0112921 -3.19842e-20)
(0.939227 0.00710518 0)
(1.00321 -0.00563645 0)
(1.00199 -0.00537278 6.82573e-22)
(0.993994 -0.00377585 4.8241e-22)
(0.994189 -0.00387554 -4.49549e-22)
(0.960752 0.0220265 -1.24607e-21)
(0.95368 0.0178786 0)
(0.996917 -0.000831328 -4.76469e-22)
(0.997881 -0.000558384 1.16468e-21)
(1.02631 0.00714036 0)
(1.02427 0.00932207 -2.27628e-20)
(1.0012 -0.0158838 -1.15286e-21)
(0.998018 -0.0159179 -8.89467e-21)
(1.00115 -0.000355629 5.70056e-23)
(1.00145 -0.000231283 -2.24353e-22)
(0.999918 -0.000431192 2.92717e-22)
(0.999937 -0.000408255 0)
(0.996485 0.021274 -6.80119e-21)
(0.994404 0.0169871 1.99578e-21)
(1.00037 1.6354e-05 4.2864e-23)
(1.00034 4.15288e-06 4.89231e-23)
(1.00011 -0.000170294 -2.13153e-22)
(1.00013 -0.000177597 -5.23471e-23)
(0.999975 -1.32852e-05 -3.4483e-21)
(0.999956 -3.23797e-05 0)
(0.999949 -3.91846e-05 -6.70909e-21)
(0.999958 -1.94687e-05 -4.0758e-21)
(0.999967 -1.49924e-05 3.96744e-21)
(0.999938 -0.00034014 0)
(0.999942 -0.000333132 1.14301e-24)
(0.999954 -0.000308387 -9.8157e-25)
(1.00026 0.000253552 1.16454e-21)
(1.00041 0.000284402 3.95185e-21)
(1.00031 -0.000399735 1.09767e-21)
(1.00039 -0.000402327 8.00352e-22)
(0.999959 -9.5071e-05 8.17797e-21)
(0.99995 -0.000101427 -8.83876e-21)
(1.00095 -0.000395621 1.65379e-21)
(1.00003 -0.000248362 -2.57365e-22)
(1.00001 -0.000283145 9.53176e-23)
(1.00104 0.000776704 1.4322e-20)
(0.998821 -0.0012185 -2.19675e-20)
(0.998685 -0.00104261 1.09917e-20)
(0.999881 -0.00098345 1.7826e-21)
(0.999909 -0.000979942 -1.39969e-21)
(1.00086 2.83676e-05 1.11989e-22)
(1.00091 2.6886e-06 -2.73852e-22)
(0.999881 -0.000910592 0)
(0.999755 -0.00171981 1.43913e-21)
(0.999863 -0.00175037 -8.64333e-22)
(1.00209 0.000459331 0)
(1.00289 0.000290123 0)
(1.00016 -0.00404573 -1.73028e-21)
(1.00061 -0.00430341 0)
(1.00902 -0.00158682 2.27959e-20)
(1.01031 -0.000851829 1.12023e-22)
(1.01185 -0.00182483 -4.24794e-20)
(1.0014 0.000229922 4.73145e-22)
(1.00153 0.000301248 -3.19966e-22)
(0.999866 -0.00416548 3.34861e-21)
(0.999275 -0.00392897 -1.5478e-21)
(0.99969 -0.00140646 0)
(0.99976 -0.00142978 -1.35511e-21)
(1.00115 -4.54791e-05 1.37484e-21)
(1.00109 -3.07868e-05 -1.55777e-22)
(0.999725 -0.00134572 1.08678e-22)
(0.999717 -0.00131146 -9.2423e-22)
(0.999504 -0.00222032 1.72226e-21)
(0.999279 -0.00233969 7.6077e-23)
(1.00309 -0.00843718 -8.14881e-21)
(1.00352 -0.00864966 0)
(1.00451 -0.00874331 0)
(0.999861 -0.000356151 5.80125e-22)
(0.999854 -0.000369006 -1.10519e-21)
(1.00133 -0.000817494 0)
(1.00152 -0.00080877 -1.83987e-22)
(0.999752 -0.000536685 -4.72119e-22)
(0.999743 -0.000556421 8.34654e-23)
(0.9997 -0.000653336 0)
(0.999697 -0.000642625 0)
(1.00026 -4.02364e-05 1.00994e-22)
(1.00025 -4.48541e-05 1.17671e-22)
(1.00067 0.000124176 -5.85538e-23)
(1.00067 0.000121258 2.37722e-22)
(0.993217 0.00145993 2.5868e-24)
(0.994193 0.0013029 5.84542e-24)
(1.00094 5.90567e-05 1.89497e-22)
(1.00089 2.91467e-05 -3.84908e-22)
(0.999777 0.000127355 0)
(0.999925 0.000137141 -2.72182e-22)
(1.00141 -9.08579e-05 -4.29926e-21)
(1.00154 -0.000205778 -4.10035e-21)
(0.997137 0.00169858 1.02835e-22)
(0.997401 0.0016593 -1.29172e-22)
(1.00013 -0.000118249 5.09925e-22)
(1.00011 -0.000127995 -2.64906e-22)
(0.999166 0.00073487 3.90806e-23)
(0.998877 0.000783048 0)
(0.992253 -0.00192247 1.13266e-22)
(0.991499 -0.00212348 -1.13364e-22)
(0.990824 -0.00209253 -2.13661e-22)
(0.990887 -0.00219885 0)
(1.00011 3.40505e-05 1.80076e-22)
(1.00009 4.10642e-05 -1.92244e-22)
(0.997934 0.000688224 0)
(1.00033 -6.98857e-05 0)
(1.00028 -8.22333e-05 5.30298e-22)
(0.995655 0.0011458 -5.70251e-24)
(0.994006 0.00125333 3.26551e-23)
(1.00094 0.000191321 6.32448e-23)
(0.999509 -1.70903e-05 0)
(0.999251 -2.00721e-05 -1.61519e-23)
(1.00224 -0.000645897 0)
(1.0016 -0.000238559 4.10034e-21)
(1.00076 4.91192e-05 0)
(1.00078 5.49594e-05 -2.24318e-22)
(1.00228 -0.0116558 -9.98653e-22)
(1.00113 -0.0111757 1.01934e-21)
(0.991176 -0.00328714 0)
(0.991435 -0.00334187 -3.12235e-24)
(0.991488 -0.00346092 0)
(0.997696 -0.0035343 0)
(0.997871 -0.00359136 2.76284e-21)
(0.997974 -0.00378963 -2.19088e-21)
(1.00153 -0.000212807 -2.20867e-23)
(1.0011 -0.000314403 1.38869e-22)
(1.0011 -0.000428194 -4.06409e-23)
(1.00049 -6.83406e-05 1.17587e-22)
(1.00062 -9.50382e-05 -6.60384e-23)
(0.99906 -0.000751984 -1.22394e-23)
(0.99954 -0.000740532 -7.31599e-24)
(0.999491 -0.00105976 -2.11662e-21)
(0.999589 -0.00101548 8.6212e-22)
(1.00106 0.000134484 -2.58661e-22)
(1.00148 -0.000951706 -3.66734e-22)
(1.00135 -0.000863333 2.95004e-22)
(1.01889 -0.00713656 -1.10783e-20)
(1.01755 -0.00617894 -5.9683e-20)
(0.999853 -0.00123798 -2.78381e-22)
(0.999863 -0.00116047 2.77553e-22)
(0.991172 -0.00408743 2.10682e-23)
(0.991678 -0.00408094 -2.0647e-23)
(0.994801 -0.00313962 0)
(0.994335 -0.003149 0)
(0.999409 -0.00179915 4.77731e-24)
(0.999295 -0.00185035 1.27786e-21)
(0.999577 -0.000510635 6.39115e-22)
(0.999662 -0.000481996 -4.99922e-22)
(0.994437 0.000122259 2.94611e-22)
(0.994579 0.000177048 -2.90418e-22)
(0.997696 0.000344135 -2.12038e-22)
(0.996409 0.000394274 6.12323e-23)
(1.00373 -0.000651604 -5.93328e-26)
(1.00342 -0.000797748 -1.12622e-23)
(0.998437 -0.00240383 1.25881e-21)
(0.998489 -0.00250777 -2.9749e-21)
(0.989794 0.0167058 0)
(0.995163 -0.0010851 -1.24104e-22)
(0.999327 -0.000954089 -2.34732e-23)
(0.999305 -0.000955929 2.36689e-23)
(0.999313 -0.000962287 -2.00681e-22)
(0.999743 -0.00118206 -2.55073e-24)
(1.00635 -0.00131895 0)
(1.00568 -0.00124854 0)
(1.00548 -0.00129948 0)
(0.991101 -0.00178015 9.92902e-23)
(0.992043 -0.00151852 1.56432e-22)
(1.02425 -2.91021e-05 3.94891e-20)
(1.02308 -0.0026095 0)
(0.99686 -0.00049071 1.37889e-21)
(0.9977 -0.000346753 1.82425e-21)
(0.999579 -0.00120679 0)
(0.999578 -0.00121631 -4.16861e-22)
(0.987405 0.000657256 1.03536e-22)
(0.987636 0.000757558 -1.00577e-22)
(0.999797 -0.000955453 3.2233e-22)
(0.999791 -0.000953241 -4.78844e-22)
(0.999622 -0.000950027 -3.20437e-22)
(0.999627 -0.000947371 -3.12631e-22)
(1.00233 -0.000177895 -1.35062e-22)
(1.00237 -0.00016117 -4.53262e-22)
(0.999897 -0.000766882 4.60875e-23)
(0.999798 -0.000793406 -9.15806e-23)
(0.99952 -0.00101722 0)
(0.999522 -0.0010123 0)
(1.00086 -0.000300033 -6.39259e-23)
(0.995393 -0.00031516 1.40768e-22)
(0.999409 -0.000993814 2.7384e-22)
(0.999406 -0.000996594 -5.8283e-22)
(0.996779 -0.00128122 2.62546e-23)
(0.996864 -0.00130567 0)
(0.996874 -0.00121671 0)
(0.998949 -0.000929624 1.11227e-22)
(0.998905 -0.000938289 -6.09051e-22)
(0.9964 0.00057932 0)
(0.998038 -0.00101522 0)
(0.998003 -0.0010004 0)
(1.00526 0.00036944 -1.79784e-22)
(1.00541 0.000356788 1.46832e-22)
(0.996019 -0.00324097 -3.93346e-27)
(0.999775 -0.000952572 4.39591e-23)
(1.00231 5.30175e-05 1.40774e-22)
(1.00205 -6.53045e-06 0)
(0.999683 -0.000103584 0)
(0.997221 0.000423265 0)
(1.01245 0.020375 0)
(1.01247 0.0188758 0)
(1.01015 -0.0146415 1.19613e-20)
(1.00975 -0.0134303 5.62852e-21)
(0.99997 -0.00142679 2.35596e-22)
(0.980658 0.00728886 -2.74365e-23)
(0.981674 0.0074238 -7.31627e-22)
(0.997117 -0.00153848 9.61183e-22)
(0.99687 -0.00155882 -3.56329e-22)
(0.99776 -0.000601605 3.06514e-22)
(0.998302 -0.000486501 -2.85131e-22)
(0.999233 -0.00142211 -1.0145e-22)
(0.999243 -0.00141382 0)
(0.997853 -0.00143756 -2.36388e-22)
(0.997896 -0.00141063 0)
(1.00583 -0.0193284 -1.609e-22)
(1.00489 -0.0202879 0)
(0.995408 1.85438e-07 -5.11106e-23)
(0.995886 9.3978e-05 -5.42142e-22)
(0.967538 0.0166191 -3.16058e-20)
(0.965532 0.0212579 3.19278e-20)
(0.995069 -0.00214941 -8.31051e-22)
(0.994867 -0.00213336 5.3887e-22)
(1.00096 -0.0266566 -1.2331e-21)
(0.998678 -0.0254937 -5.91242e-21)
(1.00335 0.0310782 4.17907e-21)
(1.00476 0.0272738 -3.61861e-21)
(0.995364 -0.00768803 0)
(0.99561 -0.00787274 0)
(0.996102 -0.00768675 0)
(0.99909 -0.00125059 1.76899e-22)
(1.00801 -0.00301664 -2.49649e-22)
(1.00794 -0.00314195 0)
(1.00803 -0.00324347 5.49784e-24)
(0.99637 -0.00102369 1.12352e-21)
(0.996468 -0.00127986 7.29938e-22)
(0.994473 0.00104383 -4.71431e-22)
(0.99433 0.000970954 1.00775e-23)
(0.997641 -0.00202787 3.65818e-22)
(0.997503 -0.00206069 -6.03705e-22)
(0.998358 0.00291308 -9.6396e-22)
(1.00728 -0.00296041 0)
(1.00736 -0.00293521 0)
(0.998599 -0.00683145 1.13731e-22)
(0.994294 -0.00800992 2.10591e-21)
(0.988945 0.00239011 0)
(0.998392 -0.00239653 0)
(0.998474 -0.00242443 -4.28708e-22)
(0.999187 -0.00175746 -4.95879e-22)
(0.9992 -0.00173151 -1.11114e-23)
(1.00915 -0.004303 -2.41071e-22)
(1.00928 -0.00413024 4.50738e-22)
(0.994497 -0.00310117 7.63215e-22)
(0.99477 -0.00314012 -4.43121e-22)
(0.974289 -0.0123783 1.72474e-23)
(0.973251 -0.0119948 -3.19191e-22)
(0.996728 -0.00398828 -8.37232e-22)
(0.996612 -0.00387223 -8.8637e-22)
(0.996495 -0.000949875 0)
(0.995371 -0.0032968 0)
(0.995275 -0.0033128 0)
(0.997352 0.00219625 -4.77421e-23)
(0.999853 0.00174455 9.49844e-23)
(1.00319 -0.00419185 2.56652e-22)
(1.00332 -0.00464138 2.43962e-22)
(0.999115 -0.00193047 0)
(0.999158 -0.00189935 -1.3911e-23)
(0.99691 -0.00405011 0)
(0.996467 -0.00401673 1.0543e-21)
(0.999986 -0.000724948 2.80272e-22)
(0.997997 -0.000359901 -4.88316e-22)
(1.00019 -0.00480128 7.39994e-22)
(1.00014 -0.00495762 -5.46152e-22)
(0.976323 -0.00948264 -1.15046e-21)
(0.974824 -0.00913183 3.81464e-22)
(0.98996 -0.00556363 0)
(0.990559 -0.00605263 -1.00395e-21)
(0.994175 0.00160775 0)
(0.993927 0.00142714 0)
(0.993545 0.00143722 0)
(1.00278 -0.00665918 0)
(1.00243 -0.00674839 0)
(0.996395 -0.00238521 1.74655e-22)
(0.986426 -0.0093087 0)
(1.00588 -0.00406412 -3.12494e-22)
(1.00088 -0.00643486 0)
(1.00325 -0.0184207 2.66672e-21)
(1.00379 -0.0176673 0)
(1.00141 -0.00205267 -1.89667e-21)
(1.00188 -0.00182169 1.19987e-21)
(1.00082 -0.00155017 -8.61544e-22)
(1.00051 -0.00163287 0)
(0.985876 0.00112787 0)
(0.986378 0.000894773 -3.14924e-22)
(1.00586 -0.00196913 0)
(1.00616 -0.00191373 1.84146e-21)
(1.00086 -0.00178272 0)
(0.996795 -0.0038871 -1.10583e-21)
(0.995473 0.00281587 -3.3347e-22)
(0.995256 0.00282343 1.68448e-22)
(1.00473 -0.00183792 0)
(1.00699 0.00178245 9.11465e-22)
(1.00689 0.00212733 1.34179e-21)
(0.99895 -0.00203511 -2.04483e-24)
(0.998608 -0.00203364 3.15466e-22)
(0.998171 -0.00201487 -2.83312e-22)
(1.0038 -0.000847897 -7.50982e-22)
(1.0051 -0.00101885 0)
(0.976678 0.0065653 1.18616e-21)
(0.967502 0.00739968 -2.1227e-21)
(0.999073 -0.00358311 -1.11179e-21)
(0.999005 -0.00375091 9.86296e-22)
(0.998908 -0.00386816 0)
(1.00104 0.00693022 1.33834e-21)
(1.00099 0.00713945 -1.05791e-21)
(0.998607 -0.00300765 0)
(0.999029 -0.00279216 0)
(0.999176 0.00101346 -3.34068e-23)
(1.00076 0.000819183 2.12013e-22)
(0.993854 0.00661197 -5.11423e-24)
(0.994363 0.006385 -5.90305e-22)
(1.01193 -0.0205901 -7.04441e-21)
(1.0115 -0.0216724 -2.16157e-21)
(1.01081 -0.0217331 -1.9502e-21)
(1.00541 -0.000969664 0)
(1.00036 -0.0018453 1.16896e-21)
(0.993796 -0.00808945 -2.21212e-21)
(0.993306 -0.00804759 0)
(0.993008 -0.00821341 0)
(0.99494 0.00269996 0)
(0.995255 0.00275255 1.77774e-22)
(1.00716 -0.0202625 1.92455e-21)
(1.00784 -0.0200166 4.02559e-21)
(1.02561 -0.0143133 6.42964e-21)
(1.02477 -0.0137762 -2.20127e-20)
(0.994735 -0.00929993 0)
(0.995808 -0.00920869 -1.14303e-22)
(1.00284 0.00300458 2.32321e-21)
(1.00241 0.0028368 -1.20334e-21)
(0.99788 1.74129e-06 -1.20189e-22)
(1.02525 0.00213534 8.38874e-21)
(1.02458 0.00280583 -1.03705e-20)
(0.986909 -0.00392886 1.68343e-21)
(0.987268 -0.00384623 -3.47549e-21)
(1.0018 0.00530764 -1.21683e-22)
(0.993137 -0.0104723 -5.29118e-22)
(0.992565 -0.0103415 -1.1318e-21)
(0.996192 -0.00821131 4.04094e-22)
(0.996318 -0.00803749 -1.24156e-21)
(1.00522 0.00253288 0)
(0.984214 -0.00367534 2.50665e-22)
(0.984514 -0.00316562 -2.49781e-22)
(0.997643 0.00429687 5.62446e-22)
(0.999 0.00413205 1.65902e-21)
(1.00595 0.00506365 1.00621e-21)
(1.00601 0.00466754 1.11239e-21)
(0.994711 0.00248522 0)
(0.967458 -0.00730644 0)
(0.966105 -0.00621924 -1.64064e-21)
(0.998265 0.00306559 1.98493e-23)
(1.00419 -0.044654 2.72089e-21)
(1.0065 -0.0440549 -4.47374e-21)
(0.998699 -0.00531065 6.20637e-21)
(0.999325 -0.00520953 -3.87734e-21)
(0.999809 -0.00578146 6.39064e-22)
(0.95775 0.00101391 2.17174e-22)
(0.957116 0.000315856 0)
(0.954828 -0.0418974 0)
(0.957049 -0.0408616 0)
(0.958987 -0.0407867 5.37459e-21)
(0.994043 -0.00361068 0)
(1.00788 -0.00949527 -4.08029e-21)
(1.00687 -0.00898993 9.14436e-22)
(1.00466 -0.000402224 8.04164e-22)
(1.00443 -0.000781186 -1.72451e-21)
(0.955176 -0.0128917 2.36379e-21)
(0.95384 -0.0136856 -2.36381e-21)
(1.01091 -0.000412557 -1.94657e-21)
(1.01069 -0.000131668 5.20358e-23)
(1.00738 -0.00227393 2.94288e-22)
(1.00736 -0.00214712 0)
(0.998679 0.000296229 0)
(0.976249 -0.0168282 0)
(0.975619 -0.0172287 -1.53598e-21)
(0.905425 -0.0329125 0)
(0.901426 -0.0351116 -4.96678e-21)
(0.9864 -0.00136666 -1.69092e-21)
(0.978473 -0.00276643 0)
(1.00229 -0.00135522 1.01045e-21)
(1.00246 -0.00144646 -5.02054e-21)
(0.96617 -0.0506429 4.11708e-21)
(0.966645 -0.0496148 -4.31724e-21)
(0.963925 -0.0507058 1.07249e-20)
(0.963044 -0.0509908 -5.996e-21)
(1.00053 0.00259949 3.42124e-21)
(1.00049 0.00289387 0)
(0.999175 -0.033335 -1.07386e-21)
(0.999089 -0.0338787 2.04635e-22)
(0.959797 0.11216 3.65469e-21)
(0.960876 0.103242 -4.70739e-21)
(0.965069 -0.0457584 -1.39092e-22)
(0.963252 -0.0472328 4.13234e-21)
(0.998034 -0.0596571 3.65814e-22)
(0.997906 -0.0604391 0)
(0.996465 -0.0611716 -6.32404e-22)
(0.976348 -0.00741269 0)
(1.00002 -0.0290711 0)
(0.999746 -0.028829 3.47914e-22)
(0.99616 -0.00236454 5.31136e-21)
(0.996529 -0.00308147 -2.19558e-21)
(1.00071 -0.025085 -1.121e-21)
(1.00081 -0.0254529 1.01243e-21)
(1.00463 0.0108959 0)
(1.00402 0.0103115 0)
(0.982508 -0.00114035 0)
(0.983556 -0.00241391 0)
(1.02433 0.0266258 7.10536e-21)
(1.02498 0.0259759 1.12478e-20)
(1.00229 -0.0295917 2.75605e-21)
(1.00236 -0.0293266 1.09554e-21)
(1.0001 -0.0272095 1.55618e-23)
(1.00025 -0.0275028 0)
(1.00842 -0.00522422 2.80231e-21)
(0.997699 0.0106307 -2.40746e-21)
(0.997153 0.0105712 -1.76406e-21)
(0.989379 -0.0353213 6.61958e-22)
(0.99015 -0.034997 -3.40264e-22)
(0.963219 -0.0153711 0)
(1.02314 -0.034393 3.513e-21)
(1.02316 -0.0350657 -1.12865e-20)
(1.02387 -0.0355995 4.78962e-21)
(0.980807 -0.0670823 -2.46645e-21)
(0.967476 -0.0664426 2.32358e-20)
(1.01903 -0.0566802 -1.70451e-21)
(1.01991 -0.0557729 0)
(1.01966 -0.0550423 0)
(1.00895 -0.0326183 6.61281e-21)
(1.00935 -0.0330381 -4.34363e-21)
(1.00358 0.0113308 1.02663e-21)
(1.00356 0.0119376 4.41584e-22)
(1.027 -0.0198412 0)
(1.02705 -0.0205249 -4.82602e-21)
(1.0276 -0.0206026 6.46792e-21)
(1.00662 -0.0271012 2.35809e-21)
(1.00683 -0.0265464 2.17363e-21)
(0.988497 0.0134557 0)
(0.98864 0.0148138 5.32685e-21)
(1.07033 -0.0679229 -3.02118e-20)
(1.07237 -0.0671654 1.64441e-20)
(1.07301 -0.0687527 0)
(1.03465 0.00335477 -9.33363e-21)
(1.00544 0.0145907 -6.89942e-22)
(1.00585 0.0141625 0)
(1.03149 0.0198576 0)
(1.03167 0.0189649 0)
(1.02333 -0.0299534 -5.79834e-21)
(1.02265 -0.0301347 0)
(0.917308 -0.0394921 2.63755e-20)
(1.00544 -0.0412178 -4.73962e-21)
(1.0046 -0.0415375 1.71589e-21)
(1.03153 -0.076862 4.68101e-21)
(1.03289 -0.0758015 1.439e-20)
(1.03431 -0.0599514 3.05529e-21)
(1.0354 -0.0609812 0)
(0.993597 -0.0124448 4.35742e-22)
(1.01699 0.0303283 4.92143e-21)
(1.01789 0.030334 -1.37361e-21)
(0.99996 0.00238933 -2.41969e-21)
(1.00658 0.04084 0)
(1.00758 0.0396804 0)
(1.0049 -0.0264077 0)
(1.03199 -0.0965556 -1.08164e-20)
(1.03606 -0.0959973 6.03342e-21)
(0.979148 0.0903838 1.0782e-22)
(0.987834 0.0887341 1.66124e-23)
(1.05766 -0.0227671 0)
(1.05642 -0.0226554 6.17369e-21)
(1.05563 -0.0230896 0)
(1.05557 -0.0310544 1.25395e-23)
(1.05401 -0.0323316 6.617e-21)
(0.947573 0.139674 1.54192e-20)
(0.947239 0.13017 -1.73687e-20)
(1.04858 -0.0316263 0)
(1.04782 -0.0335051 2.7215e-21)
(1.02577 0.0151212 0)
(1.02621 0.015393 -4.3581e-21)
(1.03056 -0.0130979 1.69087e-21)
(1.03092 -0.0128174 0)
(0.986813 -0.0510702 4.54847e-21)
(1.0366 -0.0140007 0)
(1.03642 -0.0146734 0)
(1.05026 0.0336563 0)
(1.05116 0.0333663 0)
(1.07092 -0.00620756 0)
(1.06885 -0.00534207 2.08436e-20)
(1.07111 0.0364888 -1.27283e-20)
(1.06978 0.0371823 -6.16941e-21)
(1.03432 -0.00428519 -3.33082e-21)
(1.03459 -0.00414083 3.83746e-21)
(1.05767 0.00918232 0)
(1.05678 0.00968525 0)
(1.05676 0.0106144 1.45956e-20)
(1.05926 -0.0144553 1.31465e-20)
(1.06046 -0.0147852 0)
(1.08012 0.0365201 -5.43436e-21)
(1.0818 0.0368165 0)
(1.02796 0.0259083 5.81666e-24)
(1.02726 0.0260497 -7.13095e-21)
(1.06683 0.0443586 1.52574e-20)
(1.06712 0.0430245 -1.56877e-20)
(1.03078 -0.0106791 0)
(1.02982 -0.010169 -6.07361e-21)
(1.0893 -0.00630843 0)
(1.09021 -0.00424655 1.9903e-20)
(1.08644 -0.042995 6.98797e-23)
(1.08618 -0.0415195 0)
(1.05351 -0.06917 1.89976e-20)
(1.04817 -0.0629984 -1.23218e-20)
(1.03992 0.00450356 6.30869e-21)
(1.04046 0.00491236 1.01753e-20)
(1.03443 0.00238274 -1.39434e-21)
(1.035 0.00271899 3.6041e-21)
(1.01228 0.0201302 0)
(1.03863 0.0379886 3.78056e-21)
(1.07895 0.00553349 7.97874e-21)
(1.07902 0.00713182 9.40847e-23)
(1.05445 0.024151 -1.04966e-20)
(0.830079 0.0607385 -5.72237e-21)
(0.832947 0.0534519 0)
(1.026 0.0286333 -2.86586e-21)
(1.0262 0.0279393 6.84317e-21)
(1.01929 0.031636 -1.34766e-21)
(1.01916 0.0310382 9.89049e-22)
(1.11206 -0.0104974 0)
(1.11346 -0.0140278 2.97569e-22)
(1.0516 -0.0231473 5.36348e-21)
(1.04983 -0.0222349 5.26429e-21)
(1.08149 -0.00046149 0)
(1.07994 8.53463e-05 -4.90447e-21)
(1.10859 -0.00364885 2.89977e-20)
(1.11046 -0.00666926 -7.22989e-21)
(1.03697 0.0439211 6.41181e-23)
(1.03731 0.0432721 -3.22337e-21)
(1.03737 0.0422799 -2.51506e-21)
(1.03952 0.00527629 0)
(1.03995 0.00557264 6.04605e-23)
(1.04102 -0.00821814 0)
(1.04104 -0.00757539 -4.3725e-21)
(1.05546 0.0126798 -3.33058e-21)
(1.0562 0.0120786 0)
(1.07227 -0.0983512 9.47438e-21)
(1.07434 -0.100864 1.76776e-20)
(1.07349 -0.105303 1.18099e-20)
(1.09001 0.0455723 1.67185e-20)
(1.09047 0.0469166 -2.25805e-20)
(1.09493 -0.0909045 0)
(1.0988 -0.0889749 6.30494e-21)
(1.04166 0.0208678 -2.95494e-21)
(1.04128 0.0203489 -7.38249e-21)
(1.05754 -0.0161203 -6.64302e-21)
(1.05633 -0.0158651 0)
(1.05908 0.0473653 1.93613e-20)
(1.08683 -0.0261077 -1.7077e-20)
(1.08462 -0.0238313 0)
(1.11301 0.0552212 7.46631e-21)
(1.11226 0.053298 -1.36397e-20)
(1.00347 0.0887242 0)
(1.00163 0.090276 0)
(1.04202 0.0944628 1.48038e-22)
(1.03962 0.094538 -3.1585e-21)
(1.03886 0.0922435 6.6302e-21)
(1.04223 0.0422206 3.22918e-21)
(1.04139 0.0438671 -7.34521e-22)
(1.02659 -0.0176726 -8.2005e-22)
(1.02682 -0.0171563 -3.30568e-21)
(1.04755 -0.0412022 -2.12572e-21)
(1.04776 -0.0424948 0)
(1.05418 0.183467 -4.6584e-21)
(1.04715 0.186083 -7.98824e-21)
(1.04066 0.180356 1.498e-20)
(1.06474 0.0613918 0)
(1.0626 0.060337 0)
(1.05312 0.0332153 0)
(1.05408 0.0340445 0)
(1.04041 -0.0156511 0)
(1.04019 -0.0148239 -6.30408e-21)
(1.12071 -0.0587538 2.92515e-20)
(1.121 -0.0617729 -1.45133e-20)
(1.03037 0.0240799 6.07666e-23)
(1.01174 -0.075116 -1.85358e-21)
(1.00967 -0.0748787 2.00647e-22)
(1.02038 -0.0350391 1.51514e-21)
(1.02048 -0.0337729 2.61509e-21)
(1.02257 -0.0274633 -3.32966e-21)
(1.02238 -0.0278753 2.42887e-21)
(1.04402 -0.0562709 3.93947e-21)
(1.04401 -0.0578507 0)