/*--------------------------------*- C++ -*----------------------------------*\
| =========                 |                                                 |
| \\      /  F ield         | OpenFOAM: The Open Source CFD Toolbox           |
|  \\    /   O peration     | Version:  v2012                                 |
|   \\  /    A nd           | Website:  www.openfoam.com                      |
|    \\/     M anipulation  |                                                 |
\*---------------------------------------------------------------------------*/
FoamFile
{
    version     2.0;
    format      ascii;
    class       volScalarField;
    location    "0.6";
    object      nut;
}
// * * * * * * * * * * * * * * * * * * * * * * * * * * * * * * * * * * * * * //

dimensions      [0 2 -1 0 0 0 0];


internalField   nonuniform List<scalar> 
13611
(
1.05746e-05
1.00818e-05
1.30884e-05
1.05894e-05
1.08781e-05
1.11716e-05
9.7687e-06
1.16842e-05
1.11728e-05
1.0977e-05
1.1202e-05
1.00597e-05
1.05788e-05
1.31763e-05
1.11696e-05
1.10266e-05
1.11722e-05
1.11592e-05
9.32639e-06
1.05724e-05
1.16273e-05
1.11873e-05
1.11805e-05
1.116e-05
1.11637e-05
1.11688e-05
9.55971e-06
1.09216e-05
1.30972e-05
1.11943e-05
1.11795e-05
1.11681e-05
1.11591e-05
1.11583e-05
1.11403e-05
9.66611e-06
1.06777e-05
1.18395e-05
1.11978e-05
1.11873e-05
1.11634e-05
1.11523e-05
1.11513e-05
1.11552e-05
9.26549e-06
1.08e-05
1.3144e-05
9.38012e-06
1.11966e-05
1.12104e-05
1.11845e-05
1.11715e-05
1.11526e-05
1.11454e-05
1.11399e-05
1.11664e-05
1.01656e-05
1.10288e-05
1.20339e-05
8.8794e-06
1.12088e-05
1.12183e-05
1.11931e-05
1.11715e-05
1.12362e-05
1.11493e-05
1.11635e-05
1.11429e-05
1.11341e-05
1.11482e-05
1.00812e-05
1.1071e-05
1.30192e-05
8.69667e-06
1.12151e-05
1.12299e-05
1.11931e-05
1.12077e-05
1.11831e-05
1.11575e-05
1.11661e-05
1.11412e-05
1.11234e-05
1.11348e-05
1.11465e-05
1.07058e-05
1.11311e-05
1.22944e-05
7.77482e-06
1.1238e-05
1.12407e-05
1.12044e-05
1.12144e-05
1.11851e-05
1.12588e-05
1.11596e-05
1.11759e-05
1.11509e-05
1.11218e-05
1.11314e-05
1.113e-05
1.06348e-05
1.11345e-05
1.12405e-05
8.29034e-06
1.1249e-05
1.12458e-05
1.12081e-05
1.12329e-05
1.11991e-05
1.12763e-05
1.12925e-05
1.11733e-05
1.11814e-05
1.11526e-05
1.11224e-05
1.11397e-05
1.1116e-05
1.11216e-05
1.09996e-05
1.11132e-05
1.11227e-05
1.30864e-05
7.15706e-06
7.07921e-06
1.12706e-05
1.12701e-05
1.12235e-05
1.12363e-05
1.11947e-05
1.13083e-05
1.11754e-05
1.11664e-05
1.11489e-05
1.11334e-05
1.11116e-05
1.11066e-05
1.07942e-05
1.11102e-05
1.11098e-05
1.19056e-05
4.64964e-06
9.06558e-06
1.12856e-05
1.12761e-05
1.12865e-05
1.1234e-05
1.12561e-05
1.12025e-05
1.13067e-05
1.13263e-05
1.1189e-05
1.11681e-05
1.11573e-05
1.11406e-05
1.11253e-05
1.11052e-05
1.11823e-05
1.11471e-05
1.11039e-05
1.1097e-05
1.11052e-05
1.30676e-05
8.40777e-06
8.02928e-06
1.12721e-05
1.1298e-05
1.13085e-05
1.12356e-05
1.12542e-05
1.12011e-05
1.12241e-05
1.13283e-05
1.13502e-05
1.11889e-05
1.11787e-05
1.11631e-05
1.11374e-05
1.11571e-05
1.11305e-05
1.11218e-05
1.02487e-05
1.1127e-05
1.10902e-05
1.10971e-05
1.10912e-05
1.19173e-05
5.12771e-06
1.12904e-05
1.13116e-05
1.13048e-05
1.13288e-05
1.12568e-05
1.12684e-05
1.12197e-05
1.12328e-05
1.13512e-05
1.13744e-05
1.12056e-05
1.11764e-05
1.11482e-05
1.11673e-05
1.11424e-05
1.11222e-05
1.0363e-05
1.11225e-05
1.10903e-05
1.10831e-05
1.10891e-05
1.11126e-05
8.35617e-06
1.30362e-05
9.12927e-06
1.12879e-05
1.13335e-05
1.13254e-05
1.13575e-05
1.12619e-05
1.12704e-05
1.12218e-05
1.12513e-05
1.13801e-05
1.14079e-05
1.12078e-05
1.11905e-05
1.11616e-05
1.11848e-05
1.11543e-05
1.11338e-05
1.08752e-05
1.11223e-05
1.10749e-05
1.10845e-05
1.11029e-05
1.11165e-05
5.84984e-06
1.17861e-05
9.7225e-06
1.12982e-05
1.13402e-05
1.13555e-05
1.13362e-05
1.13842e-05
1.12784e-05
1.12857e-05
1.12416e-05
1.12577e-05
1.14106e-05
1.12245e-05
1.11941e-05
1.11763e-05
1.11989e-05
1.11538e-05
1.11729e-05
1.11465e-05
1.11258e-05
1.06581e-05
1.11263e-05
1.1071e-05
1.10698e-05
1.10795e-05
1.10986e-05
1.11066e-05
7.08604e-06
8.90646e-06
1.29581e-05
1.13204e-05
1.13638e-05
1.13801e-05
1.13659e-05
1.13366e-05
1.14291e-05
1.12908e-05
1.12861e-05
1.12412e-05
1.1257e-05
1.12766e-05
1.14486e-05
1.12311e-05
1.12193e-05
1.11954e-05
1.12187e-05
1.11738e-05
1.11909e-05
1.11588e-05
1.1132e-05
1.09022e-05
1.10889e-05
1.10632e-05
1.10518e-05
1.10711e-05
1.10915e-05
1.11071e-05
1.1122e-05
6.31028e-06
9.36331e-06
1.22735e-05
1.13278e-05
1.13801e-05
1.14172e-05
1.13841e-05
1.13654e-05
1.14424e-05
1.14627e-05
1.13122e-05
1.13073e-05
1.12556e-05
1.12713e-05
1.12838e-05
1.14991e-05
1.1515e-05
1.12471e-05
1.12125e-05
1.12371e-05
1.11741e-05
1.11902e-05
1.12109e-05
1.11591e-05
1.11482e-05
1.04809e-05
1.11067e-05
1.10505e-05
1.10611e-05
1.10841e-05
1.11042e-05
1.11262e-05
1.11338e-05
8.32382e-06
1.12974e-05
1.13504e-05
1.14249e-05
1.14457e-05
1.14182e-05
1.13717e-05
1.14968e-05
1.15038e-05
1.132e-05
1.13163e-05
1.12705e-05
1.12775e-05
1.13034e-05
1.15289e-05
1.15765e-05
1.12625e-05
1.12335e-05
1.12556e-05
1.11918e-05
1.12092e-05
1.1229e-05
1.11773e-05
1.11586e-05
1.06747e-05
1.10465e-05
1.1045e-05
1.10545e-05
1.10655e-05
1.10946e-05
1.11208e-05
1.11359e-05
1.11535e-05
1.97004e-06
1.30155e-05
4.67511e-06
1.13612e-05
1.14396e-05
1.14919e-05
1.14456e-05
1.14113e-05
1.1538e-05
1.15099e-05
1.15422e-05
1.13437e-05
1.13387e-05
1.12893e-05
1.12999e-05
1.13112e-05
1.15821e-05
1.1606e-05
1.12859e-05
1.12594e-05
1.1245e-05
1.12663e-05
1.11919e-05
1.12091e-05
1.12282e-05
1.1245e-05
1.11752e-05
1.06333e-05
1.10386e-05
1.10811e-05
1.10615e-05
1.10828e-05
1.11132e-05
1.11235e-05
1.11561e-05
1.11703e-05
8.84452e-06
1.21571e-05
6.95783e-06
1.1393e-05
1.14881e-05
1.15199e-05
1.14456e-05
1.14879e-05
1.1418e-05
1.15756e-05
1.15549e-05
1.15939e-05
1.13554e-05
1.13497e-05
1.13064e-05
1.13331e-05
1.16649e-05
1.13064e-05
1.12757e-05
1.12649e-05
1.12729e-05
1.12085e-05
1.12251e-05
1.1244e-05
1.12556e-05
1.11913e-05
1.09917e-05
1.10248e-05
1.10503e-05
1.10848e-05
1.10418e-05
1.10825e-05
1.10949e-05
1.11301e-05
1.11485e-05
1.11688e-05
1.11703e-05
1.11903e-05
9.46803e-06
1.05861e-05
1.30035e-05
8.33631e-06
1.12461e-05
1.11661e-05
1.14145e-05
1.1521e-05
1.15593e-05
1.14888e-05
1.15276e-05
1.14616e-05
1.16312e-05
1.16502e-05
1.13951e-05
1.13835e-05
1.13269e-05
1.13445e-05
1.17003e-05
1.17013e-05
1.12985e-05
1.13301e-05
1.12684e-05
1.12935e-05
1.12091e-05
1.12249e-05
1.1242e-05
1.12612e-05
1.12643e-05
1.07289e-05
1.10342e-05
1.1064e-05
1.10662e-05
1.1026e-05
1.11035e-05
1.11212e-05
1.11513e-05
1.11347e-05
1.11671e-05
1.1189e-05
1.11905e-05
1.1209e-05
1.04174e-05
1.21643e-05
9.1065e-06
1.11844e-05
1.12322e-05
1.11541e-05
9.97992e-06
1.31067e-05
1.14529e-05
1.15736e-05
1.16144e-05
1.15293e-05
1.14928e-05
1.15728e-05
1.16641e-05
1.16767e-05
1.17024e-05
1.14077e-05
1.13984e-05
1.1337e-05
1.1377e-05
1.1777e-05
1.13081e-05
1.13547e-05
1.1287e-05
1.13103e-05
1.1229e-05
1.12389e-05
1.12594e-05
1.12828e-05
1.1284e-05
1.0947e-05
1.10245e-05
1.10565e-05
1.10932e-05
1.1053e-05
1.10146e-05
1.11292e-05
1.11331e-05
1.11687e-05
1.11623e-05
1.1188e-05
1.12079e-05
1.12084e-05
1.12291e-05
7.53883e-06
1.29244e-05
8.28509e-06
1.07195e-05
1.09879e-05
1.11543e-05
1.12395e-05
1.11408e-05
9.8838e-06
1.12203e-05
1.14865e-05
1.16193e-05
1.16728e-05
1.1579e-05
1.1539e-05
1.16112e-05
1.17442e-05
1.17424e-05
1.1777e-05
1.14519e-05
1.14323e-05
1.13787e-05
1.13973e-05
1.17987e-05
1.18176e-05
1.13388e-05
1.13856e-05
1.1372e-05
1.1306e-05
1.1337e-05
1.12439e-05
1.1257e-05
1.128e-05
1.13022e-05
1.12991e-05
1.10419e-05
1.10745e-05
1.11149e-05
1.10441e-05
1.10084e-05
1.11526e-05
1.11609e-05
1.11769e-05
1.11877e-05
1.11729e-05
1.12083e-05
1.12287e-05
1.12282e-05
1.12503e-05
8.71808e-06
1.23562e-05
9.31467e-06
1.0902e-05
1.11827e-05
1.114e-05
1.11979e-05
1.11718e-05
1.11555e-05
1.12007e-05
9.99831e-06
1.31101e-05
1.14865e-05
1.15338e-05
1.16712e-05
1.17316e-05
1.16192e-05
1.15809e-05
1.15469e-05
1.16714e-05
1.17949e-05
1.17856e-05
1.14596e-05
1.14595e-05
1.14421e-05
1.18765e-05
1.18518e-05
1.18619e-05
1.1365e-05
1.14207e-05
1.14133e-05
1.13299e-05
1.13643e-05
1.12632e-05
1.12755e-05
1.1303e-05
1.13321e-05
1.1324e-05
1.10253e-05
1.1068e-05
1.10799e-05
1.11048e-05
1.11506e-05
1.10481e-05
1.10059e-05
1.1166e-05
1.11745e-05
1.12005e-05
1.12103e-05
1.11994e-05
1.12309e-05
1.12507e-05
1.12494e-05
1.12762e-05
7.15223e-06
1.16007e-05
1.07122e-05
8.85141e-06
1.10099e-05
1.09521e-05
1.11284e-05
1.1147e-05
1.12009e-05
1.11886e-05
1.11573e-05
1.12122e-05
9.90482e-06
1.10264e-05
1.15396e-05
1.15697e-05
1.1728e-05
1.16918e-05
1.17845e-05
1.16718e-05
1.1637e-05
1.15947e-05
1.17041e-05
1.1868e-05
1.18594e-05
1.15035e-05
1.14999e-05
1.1462e-05
1.18825e-05
1.19136e-05
1.14015e-05
1.14526e-05
1.14496e-05
1.1359e-05
1.13964e-05
1.12835e-05
1.1296e-05
1.13311e-05
1.13492e-05
1.1342e-05
1.10458e-05
1.10953e-05
1.11113e-05
1.11257e-05
1.11773e-05
1.10052e-05
1.09831e-05
1.12104e-05
1.11994e-05
1.12164e-05
1.12311e-05
1.12187e-05
1.12533e-05
1.12742e-05
1.12724e-05
1.12978e-05
1.1968e-05
1.29153e-05
1.09601e-05
9.23912e-06
1.10154e-05
1.10769e-05
1.11266e-05
1.11413e-05
1.11437e-05
1.11763e-05
1.11923e-05
1.11794e-05
1.12121e-05
9.59099e-06
1.31005e-05
1.15398e-05
1.15781e-05
1.16041e-05
1.17771e-05
1.17522e-05
1.18418e-05
1.16948e-05
1.16333e-05
1.16891e-05
1.17572e-05
1.19229e-05
1.18895e-05
1.18878e-05
1.15363e-05
1.15165e-05
1.19717e-05
1.19526e-05
1.1971e-05
1.1444e-05
1.14914e-05
1.14922e-05
1.13883e-05
1.14346e-05
1.13186e-05
1.13245e-05
1.136e-05
1.13798e-05
1.13842e-05
1.1039e-05
1.10881e-05
1.11218e-05
1.1161e-05
1.12123e-05
1.09907e-05
1.1006e-05
1.12293e-05
1.12275e-05
1.12524e-05
1.1264e-05
1.12585e-05
1.12891e-05
1.131e-05
1.12963e-05
1.13373e-05
9.79268e-06
1.18055e-05
1.0701e-05
8.72125e-06
1.10009e-05
1.02668e-05
1.1113e-05
1.11582e-05
1.11329e-05
1.12132e-05
1.12048e-05
1.11845e-05
1.12246e-05
1.1216e-05
1.153e-05
1.15765e-05
1.16219e-05
1.16376e-05
1.18334e-05
1.17857e-05
1.18592e-05
1.17601e-05
1.16648e-05
1.1749e-05
1.17883e-05
1.19803e-05
1.196e-05
1.1944e-05
1.15445e-05
1.15777e-05
1.15276e-05
1.20059e-05
1.20047e-05
1.14778e-05
1.15354e-05
1.14263e-05
1.14737e-05
1.13559e-05
1.13582e-05
1.13899e-05
1.14058e-05
1.14102e-05
1.10745e-05
1.11247e-05
1.11576e-05
1.11919e-05
1.12496e-05
1.09877e-05
1.10011e-05
1.12738e-05
1.12965e-05
1.128e-05
1.12778e-05
1.1299e-05
1.12856e-05
1.13202e-05
1.13433e-05
1.13361e-05
1.13601e-05
1.13585e-05
1.17594e-05
1.28943e-05
1.08866e-05
9.13807e-06
1.0991e-05
1.01437e-05
1.11342e-05
1.11799e-05
1.11576e-05
1.11238e-05
1.1119e-05
1.08186e-05
1.1195e-05
1.12049e-05
1.11992e-05
1.12382e-05
1.12171e-05
1.31325e-05
9.70428e-06
1.16268e-05
1.16472e-05
1.16579e-05
1.18807e-05
1.18575e-05
1.19328e-05
1.1792e-05
1.17195e-05
1.17564e-05
1.18504e-05
1.19917e-05
1.20142e-05
1.19758e-05
1.1966e-05
1.15918e-05
1.16219e-05
1.15724e-05
1.2018e-05
1.20212e-05
1.15245e-05
1.15421e-05
1.15776e-05
1.14593e-05
1.15164e-05
1.14001e-05
1.13998e-05
1.14282e-05
1.14476e-05
1.14554e-05
1.10746e-05
1.11188e-05
1.11787e-05
1.11988e-05
1.12469e-05
1.12812e-05
1.13045e-05
1.09746e-05
1.10347e-05
1.13211e-05
1.13319e-05
1.13332e-05
1.1327e-05
1.13573e-05
1.1349e-05
1.1365e-05
1.1381e-05
1.13956e-05
1.14079e-05
9.40573e-06
1.17106e-05
1.05307e-05
1.09757e-05
8.41823e-06
1.09876e-05
1.09732e-05
1.11308e-05
1.11865e-05
1.1171e-05
1.11105e-05
1.11248e-05
1.07805e-05
1.12009e-05
1.12092e-05
1.12006e-05
1.12387e-05
1.12282e-05
1.16723e-05
9.00651e-06
1.16552e-05
1.17181e-05
1.17185e-05
1.19342e-05
1.18845e-05
1.18517e-05
1.17499e-05
1.18152e-05
1.18849e-05
1.20063e-05
1.2015e-05
1.20042e-05
1.20043e-05
1.16064e-05
1.163e-05
1.20187e-05
1.1987e-05
1.1552e-05
1.15957e-05
1.16193e-05
1.15067e-05
1.15251e-05
1.15547e-05
1.14463e-05
1.14375e-05
1.14641e-05
1.14797e-05
1.11423e-05
1.11779e-05
1.12456e-05
1.1295e-05
1.13269e-05
1.13527e-05
1.13712e-05
1.09931e-05
1.10496e-05
1.13286e-05
1.13697e-05
1.13975e-05
1.13719e-05
1.1355e-05
1.13652e-05
1.13927e-05
1.13985e-05
1.14245e-05
1.1432e-05
1.14466e-05
1.14751e-05
1.28538e-05
1.07547e-05
1.09557e-05
9.06882e-06
1.09699e-05
1.096e-05
1.11494e-05
1.11842e-05
1.11965e-05
1.11734e-05
1.11158e-05
1.10985e-05
1.11435e-05
1.0993e-05
9.45304e-06
1.11832e-05
1.11408e-05
1.1213e-05
1.12067e-05
1.12673e-05
1.12525e-05
1.12344e-05
1.30421e-05
1.17195e-05
1.17513e-05
1.17485e-05
1.19742e-05
1.19474e-05
1.18885e-05
1.17968e-05
1.18726e-05
1.19402e-05
1.20051e-05
1.20052e-05
1.19927e-05
1.20074e-05
1.20027e-05
1.16584e-05
1.16767e-05
1.19536e-05
1.19421e-05
1.15924e-05
1.16298e-05
1.16735e-05
1.15349e-05
1.15759e-05
1.15899e-05
1.14992e-05
1.14816e-05
1.15126e-05
1.15222e-05
1.11563e-05
1.11115e-05
1.12344e-05
1.13247e-05
1.13458e-05
1.14375e-05
1.14465e-05
1.14319e-05
1.09856e-05
1.10317e-05
1.14184e-05
1.14427e-05
1.14441e-05
1.14351e-05
1.14058e-05
1.14234e-05
1.14463e-05
1.14541e-05
1.1476e-05
1.14866e-05
1.14922e-05
9.79582e-06
1.16613e-05
1.05389e-05
1.09758e-05
8.74522e-06
1.09637e-05
1.09735e-05
1.11686e-05
1.11906e-05
1.12026e-05
1.11853e-05
1.11294e-05
1.10925e-05
1.11555e-05
1.10478e-05
8.94773e-06
1.1201e-05
1.11179e-05
1.12276e-05
1.12171e-05
1.12652e-05
1.1248e-05
1.16414e-05
1.17419e-05
1.18039e-05
1.18118e-05
1.19791e-05
1.20096e-05
1.19601e-05
1.1955e-05
1.18375e-05
1.19153e-05
1.19656e-05
1.19393e-05
1.19602e-05
1.19128e-05
1.19697e-05
1.19855e-05
1.16935e-05
1.16895e-05
1.17275e-05
1.18692e-05
1.1781e-05
1.16183e-05
1.16857e-05
1.17163e-05
1.15722e-05
1.16038e-05
1.15442e-05
1.15097e-05
1.15218e-05
1.15547e-05
1.15544e-05
1.10527e-05
1.12882e-05
1.13402e-05
1.14162e-05
1.14807e-05
1.15331e-05
1.15494e-05
1.15284e-05
1.09531e-05
1.10644e-05
1.1463e-05
1.15048e-05
1.15642e-05
1.14579e-05
1.15012e-05
1.14847e-05
1.14759e-05
1.14851e-05
1.15277e-05
1.1533e-05
1.15045e-05
1.15409e-05
1.12981e-05
1.2792e-05
1.07557e-05
1.09617e-05
8.51422e-06
1.09567e-05
1.09594e-05
1.11749e-05
1.11991e-05
1.12136e-05
1.11891e-05
1.11283e-05
1.11517e-05
1.11145e-05
1.10845e-05
1.11715e-05
1.03459e-05
1.11681e-05
9.31686e-06
1.11363e-05
1.123e-05
1.12804e-05
1.12584e-05
1.29703e-05
1.18077e-05
1.18455e-05
1.18333e-05
1.19884e-05
1.19767e-05
1.19845e-05
1.19705e-05
1.18995e-05
1.19647e-05
1.19879e-05
1.19295e-05
1.18525e-05
1.18387e-05
1.18014e-05
1.18892e-05
1.17448e-05
1.17554e-05
1.17662e-05
1.15603e-05
1.16997e-05
1.17087e-05
1.16357e-05
1.16711e-05
1.17054e-05
1.17699e-05
1.16103e-05
1.16569e-05
1.15985e-05
1.15702e-05
1.15785e-05
1.15933e-05
1.16006e-05
1.19847e-05
1.15706e-05
1.11891e-05
1.13854e-05
1.15803e-05
1.16058e-05
1.16392e-05
1.16697e-05
1.16011e-05
1.09286e-05
1.10272e-05
1.15526e-05
1.1586e-05
1.16163e-05
1.15305e-05
1.15963e-05
1.15486e-05
1.15076e-05
1.1553e-05
1.15552e-05
1.15883e-05
1.15775e-05
1.15651e-05
1.15871e-05
9.66578e-06
1.16646e-05
1.07576e-05
1.09746e-05
8.14732e-06
1.0049e-05
1.09692e-05
1.0953e-05
1.11843e-05
1.12082e-05
1.12249e-05
1.12014e-05
1.11464e-05
1.11585e-05
1.11199e-05
1.10866e-05
1.11778e-05
1.01189e-05
1.11951e-05
8.76689e-06
1.11043e-05
1.12419e-05
1.1305e-05
1.12758e-05
1.12992e-05
1.12565e-05
1.22433e-05
1.18049e-05
1.18459e-05
1.19002e-05
1.18943e-05
1.19917e-05
1.19832e-05
1.19162e-05
1.19818e-05
1.19327e-05
1.19772e-05
1.19861e-05
1.17934e-05
1.16349e-05
1.16374e-05
1.16034e-05
1.17477e-05
1.17762e-05
1.17885e-05
1.13215e-05
1.13887e-05
1.13989e-05
1.16938e-05
1.17695e-05
1.18107e-05
1.16643e-05
1.1683e-05
1.16516e-05
1.16125e-05
1.16097e-05
1.16383e-05
1.16428e-05
1.42787e-05
1.16064e-05
1.1705e-05
1.19528e-05
1.22618e-05
1.19538e-05
1.16734e-05
1.15495e-05
1.16735e-05
1.16616e-05
1.09394e-05
1.15715e-05
1.16226e-05
1.16722e-05
1.17798e-05
1.16076e-05
1.16769e-05
1.16269e-05
1.15884e-05
1.16011e-05
1.16169e-05
1.16531e-05
1.16389e-05
1.15981e-05
1.16437e-05
1.15577e-05
1.27048e-05
1.09178e-05
1.0981e-05
7.50791e-06
9.9951e-06
1.09216e-05
1.09342e-05
1.11927e-05
1.121e-05
1.12224e-05
1.12428e-05
1.12031e-05
1.11585e-05
1.11456e-05
1.11721e-05
1.11355e-05
1.11093e-05
1.1073e-05
1.11782e-05
1.11891e-05
1.05711e-05
1.11447e-05
1.10917e-05
9.24103e-06
1.10949e-05
1.12487e-05
1.12933e-05
1.13204e-05
1.12722e-05
1.18404e-05
1.18482e-05
1.1902e-05
1.19366e-05
1.19325e-05
1.19588e-05
1.19237e-05
1.18308e-05
1.19681e-05
1.19756e-05
1.19757e-05
1.19803e-05
1.19665e-05
1.16353e-05
1.17016e-05
1.14488e-05
1.14534e-05
1.13616e-05
1.1598e-05
1.18331e-05
1.18418e-05
1.12593e-05
1.12742e-05
1.17492e-05
1.17856e-05
1.18136e-05
1.18632e-05
1.17059e-05
1.17452e-05
1.17095e-05
1.16776e-05
1.16614e-05
1.16869e-05
1.16955e-05
1.09176e-05
1.1683e-05
1.19914e-05
1.16147e-05
1.1669e-05
1.17996e-05
1.1749e-05
1.22666e-05
1.21782e-05
1.11541e-05
1.17277e-05
1.16709e-05
1.07911e-05
1.13912e-05
1.14052e-05
1.17244e-05
1.17625e-05
1.1795e-05
1.17e-05
1.1766e-05
1.16444e-05
1.17095e-05
1.16849e-05
1.1682e-05
1.17328e-05
1.16803e-05
1.16495e-05
1.16823e-05
9.35903e-06
1.22564e-05
1.08815e-05
1.09535e-05
9.02336e-06
1.04427e-05
1.09403e-05
1.12264e-05
1.12346e-05
1.12548e-05
1.12198e-05
1.11674e-05
1.11543e-05
1.11752e-05
1.11387e-05
1.11157e-05
1.1088e-05
1.11892e-05
1.11971e-05
1.02115e-05
1.11468e-05
1.11753e-05
8.48206e-06
1.10758e-05
1.12661e-05
1.13553e-05
1.12889e-05
1.13157e-05
1.13487e-05
1.30948e-05
9.766e-06
1.18984e-05
1.19428e-05
1.19653e-05
1.19619e-05
1.19192e-05
1.18504e-05
1.16434e-05
1.19168e-05
1.19443e-05
1.19777e-05
1.19422e-05
1.19179e-05
1.14483e-05
1.14897e-05
1.12868e-05
1.12769e-05
1.12997e-05
1.15621e-05
1.1405e-05
1.18622e-05
1.187e-05
1.15434e-05
1.1219e-05
1.1139e-05
1.17722e-05
1.18385e-05
1.18674e-05
1.1901e-05
1.1758e-05
1.17718e-05
1.17501e-05
1.17132e-05
1.17043e-05
1.1706e-05
1.17346e-05
1.17443e-05
3.6411e-06
3.04986e-07
9.86858e-06
8.88471e-06
1.06047e-05
8.53925e-06
7.66351e-06
1.49806e-05
1.54873e-05
1.19388e-05
1.22288e-05
1.14715e-05
1.0974e-05
1.14056e-05
1.16103e-05
1.08169e-05
1.18279e-05
1.19614e-05
1.17733e-05
1.18238e-05
1.17389e-05
1.17771e-05
1.17493e-05
1.17084e-05
1.17528e-05
1.17895e-05
1.17457e-05
1.17399e-05
8.92953e-06
1.10667e-05
1.09963e-05
1.09398e-05
8.92046e-06
1.04264e-05
1.09139e-05
1.12327e-05
1.12378e-05
1.12508e-05
1.12731e-05
1.12236e-05
1.11714e-05
1.11483e-05
1.11656e-05
1.11823e-05
1.11322e-05
1.11128e-05
1.10776e-05
1.11912e-05
1.12134e-05
1.06606e-05
1.11177e-05
1.10513e-05
7.00901e-06
1.10672e-05
1.12797e-05
1.13881e-05
1.13109e-05
1.13377e-05
1.13739e-05
1.307e-05
7.86333e-06
1.19258e-05
1.19661e-05
1.19715e-05
1.19815e-05
1.17941e-05
1.17183e-05
1.15924e-05
1.18664e-05
1.18947e-05
1.18826e-05
1.19674e-05
1.19424e-05
1.18137e-05
1.12706e-05
1.13845e-05
1.12219e-05
1.12374e-05
1.12739e-05
1.13383e-05
1.12675e-05
1.19077e-05
1.19213e-05
1.13197e-05
1.1411e-05
1.18222e-05
1.18506e-05
1.18748e-05
1.19073e-05
1.19349e-05
1.17996e-05
1.18306e-05
1.18013e-05
1.17681e-05
1.17601e-05
1.17654e-05
1.17757e-05
1.17836e-05
1.17969e-05
1.61436e-05
2.43445e-06
5.75115e-06
1.12137e-05
1.03976e-05
3.61004e-06
9.03092e-06
8.91765e-06
1.25611e-05
1.47409e-05
1.43308e-05
1.21819e-05
1.15952e-05
1.0876e-05
1.13926e-05
1.08541e-05
9.70508e-06
1.18447e-05
1.17947e-05
1.1856e-05
1.18633e-05
1.17688e-05
1.18496e-05
1.18211e-05
1.17973e-05
1.18142e-05
1.18511e-05
1.17769e-05
1.17734e-05
1.01784e-06
1.28643e-05
3.83757e-06
1.09644e-05
1.07835e-05
1.09195e-05
9.95774e-06
1.09109e-05
1.12506e-05
1.12535e-05
1.12627e-05
1.12888e-05
1.12411e-05
1.11845e-05
1.11533e-05
1.11732e-05
1.11909e-05
1.11368e-05
1.11259e-05
1.10954e-05
1.12069e-05
1.12207e-05
9.57745e-06
1.1065e-05
1.10985e-05
1.11831e-05
1.10731e-05
1.13034e-05
1.14606e-05
1.14139e-05
1.1335e-05
1.13668e-05
1.14055e-05
1.24547e-05
7.76849e-06
1.19285e-05
1.19633e-05
1.19664e-05
1.19731e-05
1.19648e-05
1.19657e-05
1.16793e-05
1.1748e-05
1.14254e-05
1.17241e-05
1.177e-05
1.17902e-05
1.19509e-05
1.18652e-05
1.12762e-05
1.1242e-05
1.14789e-05
1.12909e-05
1.14191e-05
1.13006e-05
1.12027e-05
1.19326e-05
1.20732e-05
1.28224e-05
1.19789e-05
1.18486e-05
1.18981e-05
1.19115e-05
1.19415e-05
1.19548e-05
1.18417e-05
1.1807e-05
1.18445e-05
1.18251e-05
1.18195e-05
1.18222e-05
1.18413e-05
1.18461e-05
2.29003e-05
1.26605e-05
2.34278e-05
1.38784e-05
2.90186e-05
1.0335e-05
1.22602e-05
1.69664e-05
7.21588e-06
2.9838e-06
1.50425e-05
1.2669e-05
1.29653e-05
1.11782e-05
1.10415e-05
1.11108e-05
1.14094e-05
9.71091e-06
8.40745e-06
1.17982e-05
1.14371e-05
1.18508e-05
1.1851e-05
1.18098e-05
1.18584e-05
1.18389e-05
1.18752e-05
1.18647e-05
1.18773e-05
1.1874e-05
1.18462e-05
1.18326e-05
2.43398e-06
1.16912e-05
2.36793e-05
1.09586e-05
1.08406e-05
1.0904e-05
9.86821e-06
1.09021e-05
1.12617e-05
1.12614e-05
1.12803e-05
1.13105e-05
1.12568e-05
1.12467e-05
1.11935e-05
1.11664e-05
1.11463e-05
1.11863e-05
1.12051e-05
1.11265e-05
1.11206e-05
1.10864e-05
1.1219e-05
1.12389e-05
9.72376e-06
1.10533e-05
1.10545e-05
1.11416e-05
1.07548e-05
1.10639e-05
1.13193e-05
1.15037e-05
1.14478e-05
1.13582e-05
1.13944e-05
1.14399e-05
1.18646e-05
6.00192e-06
1.19583e-05
1.1971e-05
1.19541e-05
1.19433e-05
1.19057e-05
1.14864e-05
1.15271e-05
1.13721e-05
1.16023e-05
1.16651e-05
1.17044e-05
1.16346e-05
1.19033e-05
1.17696e-05
1.14864e-05
1.12348e-05
1.20203e-05
1.20234e-05
1.17484e-05
1.2015e-05
1.12448e-05
1.12536e-05
1.19603e-05
1.38232e-05
1.29088e-05
1.18931e-05
1.19215e-05
1.19436e-05
1.19601e-05
1.19613e-05
1.18764e-05
1.18602e-05
1.18893e-05
1.1854e-05
1.18642e-05
1.18773e-05
1.1883e-05
1.18861e-05
3.30094e-05
2.73175e-05
2.94244e-05
2.65871e-05
2.98687e-05
3.40449e-05
2.9362e-05
2.27115e-05
2.25679e-05
1.3247e-05
3.37359e-06
4.6551e-06
1.2121e-05
2.98453e-07
1.27343e-05
1.09442e-05
1.04975e-05
1.1375e-05
7.19875e-06
1.3239e-05
1.16097e-05
1.15203e-05
1.18076e-05
1.18205e-05
1.17365e-05
1.18686e-05
1.18816e-05
1.18907e-05
1.18817e-05
1.19115e-05
1.19092e-05
1.18629e-05
1.02575e-05
1.20558e-05
1.283e-05
1.04521e-05
1.09235e-05
1.09218e-05
1.04363e-05
1.08903e-05
1.12813e-05
1.1285e-05
1.1294e-05
1.1334e-05
1.12718e-05
1.12631e-05
1.12114e-05
1.11704e-05
1.11502e-05
1.12007e-05
1.12192e-05
1.11413e-05
1.11282e-05
1.10989e-05
1.12358e-05
1.12473e-05
1.10476e-05
1.111e-05
1.08916e-05
1.1071e-05
1.13542e-05
1.15146e-05
1.14824e-05
1.13893e-05
1.13687e-05
1.14319e-05
1.14796e-05
1.29794e-05
9.50284e-06
9.41937e-06
1.19651e-05
1.19422e-05
1.19323e-05
1.19022e-05
1.18313e-05
1.14139e-05
1.14935e-05
1.12641e-05
1.14422e-05
1.1475e-05
1.14731e-05
1.18148e-05
1.16388e-05
1.18613e-05
1.15451e-05
1.13669e-05
1.33717e-05
1.36603e-05
1.22562e-05
1.28025e-05
1.13096e-05
1.15019e-05
1.19587e-05
1.35082e-05
1.36542e-05
1.40697e-05
1.19102e-05
1.19446e-05
1.19507e-05
1.19547e-05
1.19313e-05
1.19089e-05
1.1894e-05
1.19099e-05
1.19022e-05
1.19074e-05
1.19087e-05
1.19295e-05
1.19202e-05
3.6206e-05
3.51354e-05
3.07455e-05
3.39167e-05
3.44907e-05
3.70674e-05
3.50693e-05
3.22645e-05
1.70698e-05
6.00426e-06
7.563e-08
9.53936e-06
3.98143e-06
1.38341e-05
1.11529e-05
8.10777e-06
1.10559e-05
1.14338e-05
1.28622e-05
2.90669e-05
1.15954e-05
1.34718e-05
1.17385e-05
1.17572e-05
1.14654e-05
1.18105e-05
1.18898e-05
1.1883e-05
1.18392e-05
1.19081e-05
1.18943e-05
1.18628e-05
1.19072e-05
1.23535e-05
1.15127e-05
1.03272e-05
1.0935e-05
1.08984e-05
1.04334e-05
1.08879e-05
1.12958e-05
1.13012e-05
1.1319e-05
1.1361e-05
1.13357e-05
1.12918e-05
1.12756e-05
1.12209e-05
1.12232e-05
1.11866e-05
1.11637e-05
1.11508e-05
1.12204e-05
1.11988e-05
1.12364e-05
1.11403e-05
1.11295e-05
1.11204e-05
1.10891e-05
1.12648e-05
1.10611e-05
1.10443e-05
1.11134e-05
1.10757e-05
1.15832e-05
1.15546e-05
1.14122e-05
1.13996e-05
1.14565e-05
1.15106e-05
1.23331e-05
8.07732e-06
9.40385e-06
1.19334e-05
1.18694e-05
1.18556e-05
1.18035e-05
1.17063e-05
1.12622e-05
1.13321e-05
1.12462e-05
1.13839e-05
1.13135e-05
1.13947e-05
1.14643e-05
1.16693e-05
1.30463e-05
1.2511e-05
1.40931e-05
1.43316e-05
1.42288e-05
1.39105e-05
1.4492e-05
1.1569e-05
1.16948e-05
1.24657e-05
1.19442e-05
1.05333e-05
1.18944e-05
1.40678e-05
1.19426e-05
1.19482e-05
1.19433e-05
1.19253e-05
1.19188e-05
1.18899e-05
1.19345e-05
1.19226e-05
1.19181e-05
1.19112e-05
1.19194e-05
1.19368e-05
1.193e-05
1.1931e-05
1.19384e-05
3.39557e-05
3.63938e-05
3.2117e-05
3.44123e-05
3.47056e-05
3.38696e-05
3.59742e-05
3.69144e-05
3.30821e-05
3.63953e-05
1.79114e-05
3.12171e-05
1.11006e-05
4.15392e-06
1.02231e-05
1.73298e-05
1.11275e-05
6.28703e-06
1.05433e-05
1.14357e-05
2.77452e-05
3.08542e-05
1.23938e-05
1.42408e-05
1.14724e-05
1.15472e-05
1.15228e-05
1.17269e-05
1.18563e-05
1.18129e-05
1.17473e-05
1.17825e-05
1.18882e-05
1.1844e-05
1.1771e-05
1.0609e-05
1.27399e-05
1.28529e-05
1.03155e-05
1.07104e-05
1.09514e-05
1.09058e-05
1.08651e-05
1.09884e-05
1.13266e-05
1.13281e-05
1.13375e-05
1.13933e-05
1.13661e-05
1.13124e-05
1.13021e-05
1.12399e-05
1.12395e-05
1.11853e-05
1.11734e-05
1.11651e-05
1.12401e-05
1.12174e-05
1.12543e-05
1.11516e-05
1.11443e-05
1.11296e-05
1.10996e-05
1.12777e-05
1.10743e-05
1.10372e-05
1.10906e-05
1.11644e-05
1.16341e-05
1.15802e-05
1.14423e-05
1.14166e-05
1.14981e-05
1.15583e-05
1.15198e-05
1.19136e-05
7.31253e-06
1.06046e-05
1.18756e-05
1.18224e-05
1.17855e-05
1.17053e-05
1.15614e-05
1.12595e-05
1.12241e-05
1.13541e-05
1.12711e-05
1.12601e-05
1.12683e-05
1.13531e-05
1.15413e-05
1.33195e-05
1.43044e-05
1.29411e-05
1.55225e-05
1.46841e-05
1.4638e-05
1.50336e-05
1.23065e-05
1.15517e-05
1.27623e-05
1.29056e-05
1.18837e-05
9.45598e-06
1.24793e-05
1.19488e-05
1.19455e-05
1.19454e-05
1.1925e-05
1.18436e-05
1.18505e-05
1.18077e-05
1.19109e-05
1.18749e-05
1.19088e-05
1.19209e-05
1.191e-05
1.19147e-05
1.19405e-05
1.19354e-05
3.16809e-05
3.20667e-05
3.47981e-05
3.40349e-05
3.03425e-05
2.7847e-05
3.43219e-05
3.53342e-05
3.76064e-05
3.93101e-05
2.67113e-05
3.53164e-05
1.57447e-05
7.9731e-06
7.35261e-06
2.3179e-05
2.13683e-05
1.15859e-05
4.42873e-06
2.58854e-05
1.1805e-05
3.11907e-05
3.30755e-05
1.26715e-05
1.25395e-05
1.15587e-05
1.1553e-05
1.19411e-05
1.14985e-05
1.16893e-05
1.15395e-05
1.1605e-05
1.18588e-05
1.18029e-05
1.17296e-05
1.16372e-05
1.0443e-05
1.18024e-05
1.12955e-05
1.04366e-05
1.06738e-05
1.0951e-05
1.08619e-05
1.0863e-05
1.09133e-05
1.13403e-05
1.13501e-05
1.13626e-05
1.14185e-05
1.1393e-05
1.13428e-05
1.13134e-05
1.12549e-05
1.12585e-05
1.11975e-05
1.11737e-05
1.12604e-05
1.12373e-05
1.12155e-05
1.12741e-05
1.11555e-05
1.11684e-05
1.11505e-05
1.11437e-05
1.1122e-05
1.10961e-05
1.1303e-05
1.10751e-05
1.10232e-05
1.10599e-05
1.11487e-05
1.10356e-05
1.16874e-05
1.16554e-05
1.1467e-05
1.14543e-05
1.15232e-05
1.15903e-05
1.15626e-05
1.29798e-05
9.5539e-06
5.1866e-06
1.05829e-05
1.17854e-05
1.16817e-05
1.16674e-05
1.155e-05
1.14507e-05
1.13092e-05
1.1351e-05
1.12642e-05
1.12695e-05
1.12649e-05
1.12364e-05
1.13758e-05
1.44166e-05
1.45366e-05
1.43295e-05
1.34759e-05
1.32903e-05
1.23958e-05
1.06587e-05
1.30495e-05
1.22096e-05
1.29481e-05
1.42116e-05
1.18023e-05
4.58716e-06
6.86993e-06
1.19298e-05
1.19127e-05
1.19115e-05
1.18522e-05
1.1788e-05
1.17532e-05
1.16937e-05
1.18839e-05
1.18125e-05
1.18681e-05
1.18697e-05
1.1864e-05
1.185e-05
1.18811e-05
1.1898e-05
1.19239e-05
2.44996e-05
2.49517e-05
3.31172e-05
3.10019e-05
2.94621e-05
2.60969e-05
2.09435e-05
2.72942e-05
3.28768e-05
3.78142e-05
3.2614e-05
2.80059e-05
4.16447e-05
2.02255e-05
7.8505e-06
4.31649e-07
3.54125e-05
3.44902e-05
1.15489e-05
9.47125e-06
3.15311e-05
2.4257e-05
1.08705e-05
3.36578e-05
3.34552e-05
1.12423e-05
1.28911e-05
1.21005e-05
1.18785e-05
1.22226e-05
1.1465e-05
1.15485e-05
1.15102e-05
1.1764e-05
1.16627e-05
1.15555e-05
1.14554e-05
1.03343e-05
1.38749e-05
1.27798e-05
1.09947e-05
1.03678e-05
1.07933e-05
1.09459e-05
1.08756e-05
1.08341e-05
1.12196e-05
1.1375e-05
1.13772e-05
1.13842e-05
1.14521e-05
1.14211e-05
1.1362e-05
1.1344e-05
1.12776e-05
1.12797e-05
1.12038e-05
1.11947e-05
1.12882e-05
1.12578e-05
1.12315e-05
1.12964e-05
1.11746e-05
1.11838e-05
1.11706e-05
1.11615e-05
1.11278e-05
1.11114e-05
1.1322e-05
1.10995e-05
1.10444e-05
1.10653e-05
1.11303e-05
1.10113e-05
1.1747e-05
1.1698e-05
1.16753e-05
1.15069e-05
1.14761e-05
1.15692e-05
1.16432e-05
1.15933e-05
1.2381e-05
9.27786e-06
8.40917e-06
1.0955e-05
1.167e-05
1.16087e-05
1.16312e-05
1.15492e-05
1.14344e-05
1.13172e-05
1.16229e-05
1.16514e-05
1.13409e-05
1.14609e-05
1.14095e-05
1.12592e-05
1.12963e-05
1.1309e-05
1.44071e-05
1.35057e-05
1.47464e-05
9.79567e-06
8.40393e-06
9.67487e-06
9.05724e-06
6.73123e-06
1.43664e-05
1.21935e-05
1.37192e-05
1.16751e-05
4.11571e-06
3.29946e-06
1.19032e-05
1.18894e-05
1.18585e-05
1.177e-05
1.16765e-05
1.16389e-05
1.15988e-05
1.18167e-05
1.16434e-05
1.17418e-05
1.17898e-05
1.17688e-05
1.17615e-05
1.17654e-05
1.18361e-05
1.18498e-05
1.87324e-05
2.42304e-05
3.04791e-05
2.29798e-05
1.89788e-05
1.39377e-05
2.50551e-05
2.79061e-05
3.90417e-05
2.3661e-05
3.79906e-05
3.98742e-05
2.38188e-05
1.42237e-05
4.78237e-06
3.80119e-05
3.91291e-05
1.13015e-05
1.15785e-05
6.71425e-06
3.27642e-05
2.8228e-05
3.24669e-05
3.00777e-05
6.37307e-07
9.34695e-06
1.2348e-05
1.24654e-05
1.20163e-05
1.23312e-05
1.14739e-05
1.13786e-05
1.14125e-05
1.16259e-05
1.15262e-05
1.14417e-05
1.14147e-05
1.02788e-05
1.04883e-05
1.21648e-05
9.8206e-06
1.05247e-05
1.07543e-05
1.09371e-05
1.07899e-05
1.08914e-05
1.10383e-05
1.13915e-05
1.14034e-05
1.14161e-05
1.1469e-05
1.14555e-05
1.13618e-05
1.13984e-05
1.13461e-05
1.12981e-05
1.13098e-05
1.12232e-05
1.12064e-05
1.13143e-05
1.12967e-05
1.12506e-05
1.12846e-05
1.13205e-05
1.11822e-05
1.12014e-05
1.11792e-05
1.11631e-05
1.11455e-05
1.1116e-05
1.11043e-05
1.1047e-05
1.10857e-05
1.10379e-05
1.11475e-05
1.10266e-05
1.18061e-05
1.17827e-05
1.17442e-05
1.15345e-05
1.15138e-05
1.16045e-05
1.16817e-05
1.16581e-05
1.21867e-05
6.21452e-06
7.51182e-06
1.09403e-05
1.15494e-05
1.15002e-05
1.14645e-05
1.14549e-05
1.13157e-05
1.1265e-05
1.18852e-05
1.20867e-05
1.16547e-05
1.1849e-05
1.13365e-05
1.159e-05
1.14894e-05
1.12551e-05
1.21803e-05
9.77946e-06
1.4805e-05
7.37093e-06
5.33639e-06
5.11085e-06
7.42039e-06
3.70947e-06
1.46109e-05
1.30295e-05
1.37796e-05
1.45649e-05
1.15465e-05
2.53497e-06
1.94261e-06
1.18291e-05
1.18202e-05
1.17824e-05
1.16803e-05
1.16144e-05
1.1505e-05
1.14529e-05
1.17069e-05
1.16308e-05
1.15574e-05
1.16709e-05
1.16602e-05
1.16566e-05
1.17045e-05
1.17393e-05
1.18026e-05
4.56418e-06
9.67832e-06
2.59556e-05
1.91421e-05
1.44228e-05
7.68713e-06
2.9765e-06
1.63485e-05