/*--------------------------------*- C++ -*----------------------------------*\
| =========                 |                                                 |
| \\      /  F ield         | OpenFOAM: The Open Source CFD Toolbox           |
|  \\    /   O peration     | Version:  v2012                                 |
|   \\  /    A nd           | Website:  www.openfoam.com                      |
|    \\/     M anipulation  |                                                 |
\*---------------------------------------------------------------------------*/
FoamFile
{
    version     2.0;
    format      ascii;
    class       volScalarField;
    location    "0.6";
    object      omega;
}
// * * * * * * * * * * * * * * * * * * * * * * * * * * * * * * * * * * * * * //

dimensions      [0 0 -1 0 0 0 0];


internalField   nonuniform List<scalar> 
13611
(
18.6354
15.5349
77.0945
17.7008
20.075
22.7687
14.1369
28.7331
22.749
20.8895
22.9641
15.6071
17.8851
81.9539
22.6349
21.1716
22.5605
22.4128
12.9371
17.7161
27.1121
22.7544
22.6547
22.468
22.3623
22.386
13.4889
19.9014
75.5642
22.7988
22.5401
22.433
22.2287
22.2261
21.9694
13.7685
18.2303
30.0023
22.7404
22.5322
22.2929
22.0754
22.0676
21.9968
12.4732
18.8448
87.013
13.0714
22.6348
22.8122
22.4115
22.2859
21.9972
21.9218
21.8023
22.0057
15.4733
20.5982
33.21
11.7661
22.6352
22.7387
22.3728
22.186
22.8896
21.8826
22.0802
21.8029
21.6455
21.7081
15.0079
20.7846
78.2513
11.1308
22.5608
22.7768
22.2801
22.4573
22.1857
21.9037
22.002
21.6865
21.4563
21.5895
21.599
18.0863
21.3201
39.389
9.40319
22.6099
22.7679
22.2889
22.3812
22.1059
22.8671
21.8309
22.0091
21.7167
21.3662
21.4717
21.3354
17.5585
21.2493
23.0361
10.1407
22.7105
22.5252
22.1988
22.4134
22.1113
22.861
22.9427
21.8604
21.9535
21.6464
21.2826
21.459
21.1719
21.1696
19.7895
20.9027
21.1199
83.0616
8.59115
8.26852
22.7511
22.5562
22.2183
22.3374
22.0106
22.941
21.7774
21.688
21.545
21.3309
21.0115
20.9452
18.3018
20.8211
20.8961
31.4363
6.13438
11.618
22.7526
22.4955
22.6739
22.1789
22.34
21.9535
22.8599
23.0246
21.7777
21.6176
21.5284
21.2881
21.0668
20.8389
20.8983
20.884
20.7257
20.7204
20.7831
83.3295
10.5566
9.50408
22.4153
22.543
22.6938
22.1068
22.2517
21.8618
22.0156
22.8646
23.0301
21.6886
21.6141
21.4761
21.1915
21.3808
21.0016
20.8987
15.3574
20.6663
20.4942
20.6387
20.5323
31.8978
6.44422
22.4114
22.6299
22.48
22.7916
22.1167
22.2568
21.8673
21.9449
22.9532
23.1186
21.7001
21.5156
21.1646
21.3298
21.0511
20.82
15.7581
20.4939
20.4125
20.3839
20.491
20.7216
10.4745
84.0113
11.6741
22.3468
22.6613
22.5245
22.8231
22.0607
22.1978
21.7897
21.9684
22.9944
23.1754
21.6252
21.5246
21.2304
21.3764
21.0306
20.7884
18.5243
20.4384
20.1705
20.2768
20.5357
20.663
7.02465
30.1589
13.227
22.3043
22.6206
22.7575
22.4928
22.9257
22.0891
22.2219
21.7821
21.9238
23.1066
21.6254
21.4665
21.2092
21.3576
20.9589
21.1235
20.8638
20.68
17.1361
20.3833
20.0762
20.0452
20.1518
20.3469
20.4685
8.46862
11.0885
77.5959
22.3475
22.6611
22.7474
22.5593
22.4353
22.9758
22.1737
22.0455
21.7062
21.8532
21.973
23.1246
21.5668
21.4968
21.2789
21.4236
20.9725
21.1158
20.8394
20.6257
18.4877
19.9458
19.8481
19.8113
19.9426
20.1104
20.2991
20.5057
7.29386
12.0741
40.5128
22.2927
22.6381
22.8256
22.53
22.4576
22.9297
23.0805
22.2085
22.0847
21.6912
21.8602
21.9322
23.2366
23.3176
21.598
21.2631
21.4156
20.9029
21.0435
21.1869
20.7766
20.6828
16.0353
19.9844
19.6303
19.8134
19.9877
20.1884
20.3697
20.4701
10.1942
24.4861
22.3206
22.7192
22.8099
22.5932
22.408
22.9941
23.1389
22.1626
22.0435
21.7478
21.8228
21.9684
23.2326
23.4055
21.5953
21.3303
21.4825
20.8978
21.0374
21.1793
20.766
20.6435
16.9492
19.5214
19.4042
19.573
19.715
19.9165
20.1879
20.2961
20.5511
4.36388
83.2572
7.18517
22.2767
22.6906
22.8824
22.5994
22.4472
23.1011
22.9669
23.156
22.1959
22.0782
21.7473
21.8605
21.9265
23.3048
23.3907
21.6838
21.5403
21.3103
21.479
20.8239
20.966
21.1055
21.2422
20.6862
16.6357
19.3159
19.571
19.4815
19.7716
19.9823
20.1128
20.3437
20.5266
10.115
36.7234
3.38246
22.3142
22.7489
22.8906
22.5422
22.688
22.4008
23.0963
23.025
23.2541
22.1577
22.0396
21.8068
21.9599
23.4941
21.6707
21.5304
21.377
21.446
20.8238
20.9652
21.1062
21.2586
20.6784
18.8436
19.12
19.3205
19.5002
19.207
19.5534
19.7027
19.9663
20.1433
20.3157
20.459
20.6001
11.9794
10.2884
89.5873
7.75015
23.674
23.2808
22.2947
22.8377
22.9752
22.574
22.7192
22.436
23.1792
23.3238
22.2159
22.0885
21.8384
21.9245
23.6174
23.5089
21.5961
21.7314
21.3382
21.4849
20.751
20.8961
21.036
21.1769
21.2391
17.1083
19.0097
19.2633
19.2488
18.9666
19.5173
19.7749
20.0622
19.8966
20.2393
20.3832
20.4614
20.6089
10.1151
35.9778
9.84923
22.8068
23.4126
22.6226
14.9811
76.702
22.3616
22.877
23.0301
22.6617
22.516
22.817
23.2917
23.216
23.457
22.1755
22.0553
21.8086
21.9738
23.6465
21.5649
21.7507
21.3519
21.4757
20.7691
20.8995
21.0391
21.1776
21.29
18.4916
18.8474
19.104
19.3785
19.0716
18.7876
19.6084
19.7189
20.0714
19.9292
20.2325
20.3844
20.5336
20.6945
4.61205
79.8819
7.54271
16.6177
20.8178
22.4892
23.3375
22.3947
14.4133
23.7036
22.3664
22.9706
23.1546
22.7019
22.5531
22.8341
23.411
23.3484
23.5707
22.2178
22.091
21.8767
21.9506
23.7383
23.6849
21.5966
21.8402
21.7356
21.4166
21.5347
20.8457
20.9767
21.1123
21.2372
21.2896
18.7709
19.0694
19.3291
18.8605
18.6036
19.6107
19.7769
20.0215
20.1632
19.8718
20.3072
20.463
20.5382
20.699
7.1985
42.4164
10.8152
17.8909
22.5098
22.221
22.7719
22.601
22.4249
22.8543
14.9246
75.886
22.3078
22.4515
23.028
23.2225
22.7889
22.6498
22.5183
22.9431
23.5493
23.4128
22.1765
22.0875
22.014
24.0001
23.8749
23.8207
21.6752
21.8626
21.7978
21.4174
21.5464
20.8808
20.9679
21.1077
21.2801
21.3588
18.5965
18.8591
18.9941
19.2082
19.4242
18.7739
18.5342
19.5529
19.7158
20.068
20.1549
19.9162
20.3167
20.4735
20.621
20.789
1.32739
24.7376
16.6014
7.70916
18.5058
20.314
22.0258
22.1876
22.6917
22.6962
22.3193
22.9065
14.3677
21.7268
22.3525
22.4721
23.1643
23.0214
23.347
22.861
22.7001
22.5699
22.9572
23.7417
23.6176
22.2177
22.157
21.9947
23.9497
23.9903
21.6831
21.9315
21.8188
21.4818
21.6214
20.8715
21.028
21.1746
21.3539
21.2492
18.5582
18.8466
19.0524
19.158
19.3667
18.3815
18.24
19.6236
19.7639
20.0265
20.2305
19.8804
20.4028
20.5604
20.63
20.7745
4.90591
81.2633
18.1411
10.5477
18.4213
21.1961
21.9026
22.0242
21.9852
22.2069
22.6239
22.447
22.8076
13.1873
74.406
22.2988
22.4337
22.5383
23.2264
23.1298
23.4798
22.8661
22.6491
22.8046
23.0624
23.9748
23.7638
23.6548
22.1805
22.0649
24.3545
24.2314
24.2573
21.7546
21.9565
21.9047
21.487
21.6267
20.9571
21.0369
21.1807
21.4159
21.2966
18.4027
18.7125
18.9523
19.2339
19.4367
18.1772
18.2296
19.74
19.5696
20.0968
20.2659
19.96
20.4415
20.5985
20.7095
20.8489
1.58021
29.1347
16.3418
7.39617
18.2292
15.8293
21.6672
22.0747
21.7448
22.4147
22.6896
22.3908
22.8848
22.7778
26.3477
22.3155
22.4779
22.5801
23.3664
23.1703
23.4954
22.9899
22.6587
22.8953
23.0919
24.2405
24.0448
23.8703
22.1414
22.2665
22.0274
24.6054
24.5024
21.7622
21.9423
21.5594
21.6945
20.9791
21.1178
21.2453
21.4147
21.3695
18.3896
18.6854
19.0085
19.1784
19.4526
17.9823
18.0298
19.834
19.6583
20.0682
20.2126
20.3834
19.9394
20.5421
20.6969
20.7503
20.824
20.9259
6.1994
81.9256
17.5174
9.66354
18.0532
15.0521
21.7397
22.2692
21.9592
21.5961
21.4771
18.8179
22.2042
22.5896
22.4808
22.8792
22.6757
82.4259
13.952
22.4027
22.4774
22.5713
23.4779
23.3667
23.7507
23.0114
22.7546
22.8689
23.2556
24.2783
24.5174
24.0823
23.9213
22.1926
22.3165
22.0772
24.8328
24.8008
21.8439
21.9114
22.0339
21.558
21.7327
21.0811
21.1455
21.2843
21.4915
21.4168
18.2716
18.5396
18.8194
18.972
19.2705
19.41
19.5871
17.7783
18.0658
19.8654
19.7616
20.1474
20.2669
20.436
20.0312
20.5763
20.7077
20.875
20.9532
1.68284
28.9292
15.1634
17.9834
6.65611
17.9582
17.7904
21.6189
22.223
22
21.3022
21.4283
18.4024
22.158
22.571
22.3918
22.7839
22.6774
27.5276
11.8896
22.3999
22.5983
22.6761
23.692
23.4047
23.1666
22.7768
22.977
23.3128
24.6593
24.7973
24.4044
24.173
22.1628
22.2816
25.1909
25.2067
21.8539
21.9624
22.0685
21.6303
21.702
21.8188
21.1065
21.2335
21.3758
21.4875
18.309
18.5583
18.8118
19.1243
19.2652
19.4845
19.6029
17.6937
18.0079
19.8127
19.9808
19.8059
20.1241
20.2407
20.3773
20.5354
20.6682
20.7984
20.87
21.0352
6.54756
81.048
16.5076
17.7714
9.47482
17.6918
17.5914
21.6811
22.1307
22.2871
21.9348
21.2644
21.1286
21.5545
19.8638
12.9035
21.826
21.5061
22.502
22.3977
22.9634
22.7847
22.6214
77.2027
22.5131
22.62
22.6985
23.8937
23.6281
23.2546
22.8857
23.1478
23.4843
24.706
24.9202
25.1605
24.4372
24.3413
22.228
22.3341
25.5867
25.608
21.9208
22.0363
22.1756
21.6332
21.7523
21.8473
21.2083
21.2783
21.4218
21.562
18.4181
18.1472
18.6901
18.934
19.0571
19.4126
19.5399
19.7042
17.5212
17.8331
19.8836
20.0451
19.8059
20.2091
20.3035
20.3997
20.6
20.7336
20.815
20.9521
21.0626
1.68543
29.4331
15.085
17.7691
6.55475
17.5886
17.4491
21.8355
22.0715
22.2274
21.9779
21.2757
20.9346
21.565
20.0236
11.4822
21.9839
21.1873
22.5373
22.3716
22.8682
22.6812
26.9754
22.5199
22.7364
22.8464
23.855
24.2329
23.6512
23.5128
22.9563
23.2756
23.6305
25.1551
25.2911
25.562
24.8338
24.7242
22.3266
22.2477
22.4511
26.0701
26.2683
21.9154
22.1218
22.2131
21.6982
21.8222
21.2267
21.2791
21.3841
21.517
21.569
18.3372
18.2036
18.6097
18.8749
19.1161
19.4242
19.7114
19.79
17.4774
17.8388
19.9885
20.179
19.9595
20.3205
20.2503
20.5049
20.7098
20.6148
20.9062
20.9766
21.0297
21.1662
7.07769
82.3825
16.288
17.5923
7.19109
17.3308
17.3074
21.7811
22.1172
22.2757
21.9105
21.1782
21.457
21.0262
20.8215
21.6829
15.9364
21.3453
12.555
21.2952
22.4428
22.8366
22.6552
76.835
22.6609
22.834
22.8681
24.1528
24.5237
23.9006
23.6517
23.1542
23.5149
23.8634
25.171
25.647
25.7408
26.107
25.1321
22.4275
22.3827
22.5072
27.2651
26.6953
26.4852
26.8789
22.0079
22.1151
22.3317
21.7209
21.8982
21.3194
21.3785
21.4413
21.5435
21.651
18.7153
18.4458
18.0311
18.6896
19.1211
19.4122
19.8013
19.818
19.9511
17.3327
17.653
20.0967
20.2546
20.0899
20.4394
20.4153
20.5337
20.5962
20.798
20.7426
20.959
21.0558
21.0951
21.2048
2.52264
28.1871
16.3076
17.5486
4.7962
11.9709
17.195
17.276
21.8177
22.0763
22.2477
21.9178
21.2292
21.4207
20.9656
20.7124
21.6401
14.8776
21.4949
11.0158
20.8667
22.4592
23.001
22.7374
22.9079
22.5752
38.4366
22.6088
22.7899
23.0261
23.057
24.1256
24.4681
24.9721
23.9811
23.2925
23.6827
24.0546
25.685
26.3963
26.5697
26.7488
25.7563
22.4703
22.4258
28.2062
27.6424
27.6994
22.0048
22.2346
22.4084
21.8246
21.9068
21.3723
21.3997
21.5168
21.635
21.6898
20.1723
17.7662
17.9782
19.1749
20.4509
20.1909
20.9883
20.0545
20.2682
20.2089
17.2244
17.7837
20.2481
20.4264
20.2516
20.504
20.5039
20.6526
20.6952
20.9133
20.7951
21.0936
21.1346
21.1727
21.3118
5.4585
75.9469
17.266
17.4871
4.35856
11.9138
17.0244
16.9726
21.7752
21.9949
22.1532
22.3285
21.8276
21.336
21.15
21.4923
21.0402
20.8197
20.5276
21.5687
21.6957
16.9033
21.0323
20.4647
12.2142
20.6917
22.4163
22.7137
22.877
22.5602
30.9488
22.706
22.958
23.173
23.2335
24.4492
24.7877
25.2868
24.0957
24.146
23.5739
23.9607
24.3827
26.3382
25.9856
27.1477
27.2169
27.6436
26.2883
22.62
22.5665
28.3784
28.1542
22.1105
22.228
22.3715
22.5729
21.8677
22.025
21.4946
21.5094
21.5937
21.6908
21.8002
17.0735
18.9685
17.8657
17.0493
17.8045
19.1349
20.1175
20.0263
21.1539
21.3016
21.2119
20.4749
17.0187
17.3369
17.4534
20.4225
20.5547
20.4706
20.6727
20.6995
20.7468
20.7629
21.0311
20.9197
21.2295
21.2429
21.2395
21.3342
3.30558
34.6567
16.9722
17.1286
7.55966
14.1976
16.8876
22.0092
22.1473
22.3005
21.8548
21.3364
21.1153
21.4158
20.9841
20.7852
20.5088
21.5594
21.638
15.115
20.9215
21.1042
10.3018
20.3794
22.4751
23.0507
22.6232
22.7827
22.9479
75.9366
14.3052
22.8876
23.1467
23.3698
23.4017
24.7777
25.1754
26.0232
24.4668
24.4378
23.6851
24.2313
24.618
27.0489
26.8124
27.975
27.9715
28.0533
26.3854
27.0699
22.6758
22.6415
28.9713
28.9921
28.9407
22.123
22.3582
22.5197
22.7029
21.982
22.0579
21.5563
21.5538
21.6127
21.6567
21.8033
21.8743
13.4319
16.33
16.7814
17.2784
17.0377
15.3896
17.3015
16.3275
19.8988
21.2015
21.3198
21.0637
17.0045
17.2199
17.4786
16.8476
20.777
20.678
20.8076
20.8793
20.926
20.9191
21.1981
21.0258
21.0125
21.3909
21.3758
21.4553
1.86409
18.3652
17.7008
16.9004
7.42465
14.2706
16.7692
21.9515
22.0915
22.2297
22.3604
21.7901
21.2662
21.0189
21.1738
21.4063
20.8878
20.6717
20.3346
21.495
21.6901
17.1774
20.5892
19.9237
7.97932
20.2295
22.4469
23.1415
22.6027
22.7666
22.9399
91.2695
9.71377
23.0033
23.3671
23.6134
23.6162
25.278
25.6625
26.1727
24.7601
24.5482
24.7264
23.9869
24.2091
25.1042
27.8813
27.228
28.6036
28.5087
28.7506
27.2791
27.6333
22.8375
22.8547
29.2917
28.792
22.2371
22.3617
22.5043
22.6884
22.8783
22.0646
22.2134
21.7034
21.5616
21.6741
21.73
21.8325
21.9003
22.0105
24.9589
18.1179
15.4703
21.1783
16.8977
19.8654
19.4553
20.6632
17.3782
19.3104
18.8298
21.3649
21.3044
16.8306
17.0385
16.8291
16.4537
21.1043
21.1719
21.0901
21.1551
20.9643
21.1279
21.3487
21.1952
21.1698
21.5496
21.4147
21.4925
2.07287
78.957
1.96355
17.1745
16.3236
16.6465
11.0212
16.6239
21.9921
22.1249
22.2002
22.3297
21.8074
21.2802
20.9653
21.098
21.367
20.8224
20.708
20.3439
21.5067
21.6482
12.7216
20.1733
20.3333
20.8897
20.1297
22.5106
23.2671
23.1166
22.6735
22.8468
23.027
45.6754
9.09486
22.9812
23.2671
23.4036
23.6162
23.8833
23.8842
25.7658
25.4092
26.7851
25.2984
25.0372
25.1739
24.0948
24.5356
28.114
27.9398
28.6513
28.8609
28.7842
27.3665
28.0614
22.9394
28.1474
27.0679
28.2838
22.2959
22.5484
22.667
22.9028
23.0669
22.1991
21.7611
21.7954
21.6976
21.8795
21.9362
22.0785
22.1447
41.9307
25.4156
42.4994
20.076
46.5885
17.4614
38.7512
43.5724
34.2351
15.0555
18.0462
18.7883
21.5444
22.1879
16.7906
16.8162
16.9381
16.2499
16.4034
21.5696
22.0642
21.2598
21.267
21.5307
21.2615
21.3473
21.5714
21.4402
21.7065
21.6495
21.615
21.6495
0.350028
25.3372
0.355227
16.9214
16.6739
16.4536
11.124
16.5121
22.0827
21.9554
22.2462
22.3863
21.8906
21.7636
21.2301
21.0069
20.8573
21.1233
21.418
20.6299
20.5136
20.1891
21.5784
21.6964
13.0266
19.9706
19.9347
20.5648
17.647
19.9916
22.4793
23.3138
23.1781
22.6737
22.8487
23.0235
30.034
6.97873
23.195
23.3386
23.6873
23.8756
24.1797
26.4585
26.2006
26.9541
25.7905
25.4686
25.2353
25.7173
24.3339
24.9635
28.3625
28.0703
27.9409
27.6884
28.3792
28.0773
27.8192
28.4362
23.1462
25.5194
26.7684
22.4852
22.6762
22.8686
23.0955
23.2926
22.3224
21.9208
21.9582
21.7676
21.9894
22.1253
22.2066
22.3044
71.3707
59.1058
67.3671
36.9527
47.9451
73.9588
70.5427
54.185
66.2107
43.4828
24.1665
15.144
19.79
29.5673
21.5442
16.613
16.4179
16.7847
15.5813
19.1292
22.3493
22.4565
21.7048
21.7634
21.9341
21.4627
21.5821
21.7724
21.6959
21.936
21.9599
21.7264
5.26337
5.1033
78.4185
3.91172
16.8841
16.515
14.2975
16.4039
22.1169
22.008
22.2069
22.3973
21.8676
21.7979
21.2797
20.944
20.8064
21.1073
21.4255
20.6487
20.479
20.1634
21.5838
21.6483
19.7404
20.1901
18.3478
19.9292
22.5461
23.2585
23.1843
22.7753
22.6278
22.9429
23.1055
84.5154
12.8451
12.2438
23.5344
23.7436
23.9131
24.1668
24.5511
26.6734
26.2722
27.5233
26.3311
26.1224
26.0517
24.6542
25.3932
27.9607
28.3227
28.426
25.7157
25.1666
27.6625
26.9486
28.2394
28.0792
23.3256
26.28
25.8381
25.0933
22.5507
22.7952
22.947
23.2997
23.5426
22.4938
22.0474
22.1164
21.9883
22.1698
22.2542
22.4408
22.4299
98.358
95.5299
48.1032
70.8026
86.1354
108.798
104.453
123.592
80.2293
47.8434
25.2882
21.4467
45.6792
21.0444
16.5885
15.6258
16.5529
16.7056
18.2413
39.7783
22.74
21.2943
22.0236
22.1295
22.7159
21.941
21.8125
22.1026
22.0913
22.1051
22.1276
22.2219
21.9472
1.80595
21.0176
5.6703
16.8581
16.2983
14.8591
16.2838
22.0903
21.989
22.2526
22.4871
22.344
21.9112
21.7719
21.3677
21.2576
20.955
20.8645
20.7302
21.1867
21.0284
21.5179
20.5519
20.3935
20.2851
20.0145
21.6879
19.7618
19.6395
20.091
19.5881
23.4169
23.3109
22.7664
22.6817
22.9149
23.0997
41.9856
9.51806
12.1287
23.7073
24.1019
24.2545
24.5456
24.986
27.2596
26.8874
27.6281
26.5181
26.8714
26.4012
26.0281
25.2462
25.9784
26.7446
24.5394
24.2948
24.3012
24.9299
24.1426
27.9738
27.6716
26.7307
23.616
33.3893
29.5164
25.0229
22.7708
22.9196
23.1957
23.5501
23.4746
23.8351
22.6265
22.2518
22.3666
22.1076
22.3373
22.4818
22.6004
22.5405
22.6198
95.5582
114.891
51.7151
69.7392
85.985
92.7289
116.455
132.718
132.968
132.451
79.4514
128.568
60.8701
41.8786
21.339
109.846
16.4425
14.9796
16.1466
16.5769
33.7626
43.9937
22.13
20.6146
22.8819
22.9939
22.9113
22.4209
22.1403
22.39
22.3822
22.3836
22.4384
22.5255
22.6927
3.91047
2.60749
73.716
11.9577
16.1351
16.6216
16.2183
16.1717
16.2886
22.1592
22.05
22.2352
22.5156
22.3665
21.9006
21.8255
21.3805
21.3105
20.8688
20.8259
20.744
21.178
21.0281
21.5162
20.5351
20.3819
20.1995
19.9876
21.6606
19.7398
19.4459
19.8477
20.0673
23.5225
23.2913
22.8311
22.6635
22.9674
23.2003
23.0552
31.5021
8.21963
16.5454
24.0463
24.3483
24.5768
24.9508
25.5449
27.5481
27.4891
27.8874
27.0251
27.2257
27.0278
26.4443
25.6613
25.542
24.1652
26.0398
22.4525
23.7539
23.7551
23.4248
26.9408
27.886
26.1259
26.0505
23.8898
37.132
28.0698
22.7908
22.9259
23.1859
23.4186
23.9062
23.8459
24.135
22.461
22.6561
22.4058
22.6169
22.7221
22.9022
22.792
22.8457
91.5997
97.0807
67.4327
71.9424
71.8237
66.8701
121.558
129.578
144.444
139.924
134.149
155.153
110.082
67.5976
23.2174
155.491
122.02
16.5507
12.6828
29.3907
16.6424
43.3208
58.3867
21.4054
21.9933
23.0432
23.2678
22.4977
23.1783
22.8625
23.1469
23.0059
22.6109
22.726
22.8787
23.0926
3.70398
1.60702
19.5555
13.5634
15.8994
16.5721
15.9767
16.073
16.1304
22.1293
22.0468
22.2948
22.6014
22.444
21.9751
21.7939
21.4475
21.3164
20.8729
20.6991
21.2444
21.1045
20.9647
21.5883
20.4721
20.6195
20.3256
20.2188
20.1015
19.8802
21.7178
19.6348
19.2393
19.4925
20.0884
19.3155
23.5623
23.4006
22.8102
22.7385
22.9457
23.1968
23.1078
86.7126
12.9033
6.13479
16.3131
24.3688
24.8575
24.9863
25.4836
25.9244
27.9372
27.5688
27.2328
27.5555
27.1036
27.0277
26.268
23.9433
23.8756
23.9727
25.8235
26.218
28.0127
32.7962
25.7453
26.906
25.8534
24.0762
24.2685
76.7946
50.8809
23.0355
23.2505
23.3774
23.7236
24.1739
24.186
24.5835
22.7743
23.0193
22.6574
22.879
23.0699
23.1634
23.1032
23.0622
23.0578
59.4243
75.6392
68.1245
69.3441
66.1949
59.7943
49.0232
96.31
123.994
153.934
126.305
138.066
159.401
139.233
66.7143
34.8695
180.831
159.668
16.4328
15.3337
42.1435
26.4554
16.0087
58.597
67.8931
22.0844
21.8675
22.5067
23.2124
22.3547
23.5023
23.292
23.371
22.9971
23.2205
23.4724
23.7157
8.06128
0.581274
71.1685
2.62878
13.2447
16.3086
16.2729
15.8861
15.9393
16.1674
22.1767
22.1117
22.2947
22.6321
22.4465
21.9561
21.8346
21.4584
21.3945
20.8329
20.7514
21.2702
21.0869
20.9485
21.5902
20.5092
20.5895
20.3652
20.2129
20.0255
19.9128
21.7172
19.6952
19.2387
19.3863
19.8526
18.9942
23.6828
23.5219
23.3785
22.8659
22.7137
23.0151
23.2764
23.1057
44.3926
12.064
9.70283
18.4111
24.8221
25.1603
24.9959
25.4462
25.9396
26.4601
27.627
27.4984
27.5081
27.4661
27.3164
27.1583
27.1236
26.5853
24.0109
25.6803
23.3632
35.4382
41.4386
36.102
38.2748
50.8951
23.838
26.9226
24.6588
24.6867
80.16
107.583
23.2792
23.4599
23.6682
24.0882
24.5659
24.6248
24.875
23.034
23.5658
23.1127
23.2821
23.4012
23.5438
23.5704
23.4225
23.4008
45.9401
69.434
68.1783
38.9183
32.1187
24.9497
87.6484
148.534
159.152
109.676
164.228
166.702
179.718
133.103
51.9468
180.516
194.506
16.1954
16.3505
14.2172
50.2174
32.7875
57.818
54.9915
34.0533
24.8803
22.3886
22.3101
23.1727
22.6837
23.847
23.9391
23.9678
23.4059
23.6574
23.9019
24.0529
7.88022
4.0679
28.8695
1.10502
14.8685
16.1506
16.2335
15.64
15.8614
15.957
22.2482
22.1233
22.378
22.6045
22.5269
21.9014
22.0195
21.7794
21.5305
21.4226
20.8747
20.724
21.3641
21.2286
21.0024
21.1505
21.6585
20.4524
20.6415
20.2996
20.1305
20.0249
19.8226
19.5925
19.1232
19.4472
19.1283
19.8678
18.9658
23.786
23.6449
23.4732
22.8526
22.7664
23.0204
23.2975
23.2077
38.5468
6.92755
8.27847
18.1776
25.2026
25.554
25.5677
25.7649
26.4245
26.7301
27.2251
26.8702
27.2016
27.1739
27.3684
27.2712
27.1611
27.0458
28.3415
35.4224
23.2456
47.2443
65.5052
68.6268
46.7975
95.7166
23.4822
25.6222
24.544
23.5022
25.1645
135.697
171.39
23.5821
23.7575
23.9397
24.3698
24.7515
25.0606
25.3726
23.4791
23.5598
23.8949
23.6412
23.8175
23.8859
23.8555
23.7696
23.652
17.2896
24.9531
45.6736
30.4087
25.0375
18.2104
13.3607
63.5821
136.331
105.952
166.074
70.2935
172.199
222.397
150.078
108.14
181.373
193.863
201.807
16.0982
16.3069
13.6718
50.476
57.6126
32.5391
46.6874
55.0277
42.4346
68.0275
34.904
22.895
22.5905
23.0739
23.6964
23.9746
23.9992
24.2561
24.4618
24.4299
11.0736
3.28631
22.2534
1.47695
14.6703
16.2667
15.9888
15.6697
15.6034
16.239
22.2958
22.2208
22.0866
22.3778
22.6699
22.5132
21.9211
21.9835
21.7921
21.5419
21.4997
20.8521
20.7806
21.3697
21.268
21.0018
21.1456
21.6666
20.4911
20.647
20.3372
20.1446
19.9477
19.8223
19.5922
19.191
19.3425
18.7595
19.3348
18.828
23.7782
23.5967
23.403
22.9286
22.7538
23.1437
23.2392
97.9727
15.5685
6.577
12.43
18.974
25.6133
25.9384
25.9426
26.2759
26.507
27.0407
25.9857
25.6243
26.6249
26.3817
27.0915
26.3494
26.8994
27.0954
36.5602
29.46
29.7845
81.5341
101.061
96.8066
72.2119
140.673
24.7224
26.3162
23.6323
24.2635
25.6592
207.04
229.723
224.246
23.9447
24.0511
24.2444
24.9179
25.4058
25.523
25.1706
25.613
25.6737
24.1312
24.46
24.1885
24.2552
24.3616
24.2008
24.2165
23.9067
16.3196
18.5392
21.6881
18.1429
17.0107
15.5593
15.0761
27.8207
100.428
45.8804
166.63
27.7766
217.946
218.34
127.078
188.08
198.852
181.154
13.6028
16.3793
23.5472
52.7379
53.4597
43.292
50.2483
42.5734
28.053
76.0232
42.4416
26.9979
22.8975
23.254
34.78
28.7895
23.8535
24.3591
24.5007
24.3255
23.676
11.293
7.17334
69.6598
6.07542
0.320698
15.9455
16.1693
16.0344
15.7756
15.4169
16.197
22.2876
22.2161
22.1443
22.4415
22.6451
22.566
21.866
22.0333
21.7349
21.6137
21.5468
20.9173
20.7289
21.3328
21.4511
21.2075
21.0784
20.591
20.4427
20.3131
20.2397
20.0641
19.9737
19.7982
19.5053
19.7133
19.0776
19.3648
18.6485
19.2424
18.904
23.9127
23.7374
23.4683
22.9344
22.8371
23.136
23.3719
51.2042
23.7505
5.81554
10.5878
19.4557
26.0117
26.4095
26.3049
26.8376
26.995
25.0983
24.6998
25.5138
25.0719
26.4848
25.4877
26.2844
27.0551
64.8254
50.4569
45.7616
96.2746
106.73
150.374
155.574
100.874
195.095
31.0604
36.3682
24.1401
31.213
26.0896
270.592
308.716
305.46
24.1768
24.5885
24.677
25.069
25.8193
25.7184
25.8849
25.9652
24.7748
24.617
24.8128
24.3955
24.8204
24.528
24.8927
24.5246
24.3036
19.1682
18.5713
19.236
16.866
15.0911
14.5802
15.5602
18.9574
15.4189
88.6
47.173
29.1325
161.487
190.995
219.572
201.699
166.104
203.647
166.644
194.061
13.09
13.8383
25.6501
51.2214
45.2039
44.2264
52.5996
27.9924
16.202
25.6314
125.592
70.1328
22.8303
28.3309
64.1603
46.1137
24.7527
24.7002
24.0386
22.7162
14.3984
6.43091
83.3208
3.99451
1.00733
15.9357
15.7063
15.2589
15.4017
15.978
22.37
22.2823
22.1175
22.444
22.7115
22.5814
21.877
22.0097
21.7457
21.6171
21.5149
20.9081
20.7664
21.3874
21.4535
21.2094
21.067
20.6186
20.4823
20.3954
20.2616
20.0905
19.8894
19.5431
19.7255
19.0921
19.3049
18.5326
19.0432
18.7773
24.1304
24.0438
23.9508
23.6382
23.0343
22.8628
23.2475
23.4479
94.1581
9.22914
5.48448
12.5323
17.3545
19.283
26.3477
26.6766
26.6821
26.857
27.0028
26.8488
23.4292
23.3267
24.1688
24.1505
25.8487
24.4823
25.8177
25.6581
26.7198
68.0984
96.9993
65.8218
148.908
156.82
211.033
219.833
149.781
257.85
232.349
38.2197
55.4258
28.5839
35.3932
26.4625
387.682
390.757
24.6655
24.983
25.5169
26.1933
25.9532
25.8376
26.2087
26.383
24.7664
24.8669
25.1322
25.2176
24.8458
25.0591
25.1735
25.4235
25.1068
24.8075
18.9972
18.9261
18.9213
18.9614
16.9989
17.01
17.8562
19.1164
19.4463
17.8709
29.822
115.098
11.2871
18.819
200.406
209.797
203.141
133.172
213.073
121.82
139.57
215.319
19.317
13.5532
36.5133
40.3828
33.1856
47.2026
47.771
20.4292
13.8204
16.5223
127.074
88.4915
22.1486
43.6275
26.3804
81.9227
65.1354
24.6241
23.9603
23.1046
23.5036
14.5096
10.3049
40.2065
0.0459126
4.01179
15.5374
15.8643
16.003
15.2652
15.7281
13.8324
22.3669
22.2938
22.1678
22.5153
22.6597
22.8038
21.9494
21.8169
22.0687
21.682
21.5651
20.8535
20.9953
20.7058
21.3663
21.5087
21.1298
21.2893
20.5723
20.4662
20.3465
20.1918
20.0153
19.9097
19.5022
19.6596
19.8326
18.9793
19.2203
19.401
18.6226
18.3277
18.497
18.8039
24.4259
24.3523
24.2074
23.7523
23.0625
22.9892
23.3891
23.1762
23.644
45.2084
4.54954
9.94773
18.0367
18.8408
26.6364
26.7271
26.7721
26.8357
26.8246
26.6234
23.8502
23.8602
24.1442
23.1141
24.6261
23.906
24.2562
24.8092
24.8204
25.9437
103.367
147.986
107.4
176.422
206.656
288.473
301.191
198.583
325.135
313.242
57.9957
74.1786
32.0297
57.5591
26.5073
26.6758
439.404
399.735
480.002
24.9955
25.5071
25.6248
26.1902
26.2794
26.1937
26.5022
24.6781
25.1218
25.2105
25.1818
25.032
25.4857
25.3091
25.4273
25.6158
25.438
25.2039
19.5716
18.6475
19.5098
20.3349
17.2428
18.4436
18.9469
18.3953
18.6877
18.3379
89.2342
17.2618
19.0341
218.214
213.707
264.964
181.367
51.7729
72.428
218.997
21.7978
17.6644
38.9973
40.2911
32.8536
19.78
44.9065
48.2026
14.572
16.7535
186.539
164.785
58.603
37.8449
148.742
118.253
24.4285
23.3473
23.2264
27.3305
15.3977
9.68973
17.3835
3.26236
2.61133
15.4798
15.7125
16.1178
15.6382
15.1278
13.1071
22.4397
22.4059
22.2519
22.1389
22.5577
22.7235
22.8539
21.9682
21.8463
22.0342
21.7123
21.6372
20.8884
20.9736
20.7168
21.457
21.3524
21.5439
21.1387
21.2979
20.6048
20.5323
20.3934
20.2224
20.0472
19.5758
19.6944
19.8661
18.9958
19.2836
19.4009
18.4873
18.3089
18.2792
18.753
24.7208
24.5928
24.1965
24.548
24.0094
23.0207
23.574
23.2332
23.8481
25.2231
8.16318
13.454
18.6703
18.7761
26.8202
26.7609
26.7709
26.6654
25.9582
26.803
26.2009
24.4091
25.0597
24.2026
23.6697
23.6763
23.5945
25.3514
125.405
145.497
199.477
129.092
233.284
262.762
356.571
390.864
264.312
392.261
75.4388
78.3416
111.808
48.6451
62.4869
77.8121
26.5629
26.6534
597.171
487.962
602.816
25.4781
25.8154
26.0513
26.3584
26.5106
26.3677
26.2419
26.5992
24.403
24.6438
25.2333
25.5617
24.6245
25.5756
25.6109
25.6922
25.6527
25.4808
25.7065
25.5449
18.938
18.4777
19.6775
19.8063
20.2668
17.6552
17.9736
17.8325
18.2231
20.8145
19.2264
34.4282
20.2887
21.1346
225.315
228.319
225.049
246.261
167.184
27.8444
44.646
55.418
208.497
33.2123
18.1445
31.0564
22.9982
16.416
45.0993
40.214
15.3491
17.1735
207.101
95.4345
44.3221
168.032
196.877
145.38
23.8666
24.9718
31.6632
15.5929
12.9729
74.7808
0.954229
6.17072
15.2848
15.7293
14.2675
15.3836
15.034
14.7943
22.5245
22.4647
22.394
22.3085
22.2003
22.673
22.8225
22.9615
21.9257
21.804
22.0903
21.6869
21.6774
20.8667
21.0285
20.6705
20.7995
21.4165
21.517
21.6381
21.2391
21.1093
21.3695
20.5552
20.4062
20.5053
20.3331
20.1493
19.9735
19.6582
19.4897
19.8012
18.8802
19.1256
19.2547
18.435
18.1412
18.095
18.6837
25.0221
25.4847
24.946
24.5679
24.8991
24.1707
23.1355
23.5725
23.8099
23.4176
24.1199
81.0677
4.56615
13.5221
18.7683
18.2737
26.7506
26.5129
26.6673
26.0642
25.4785
30.5584
34.1266
30.7558
23.1992
26.3953
25.3721
23.9193
23.2348
23.3386
23.578
172.107
188.648
261.825
183.992
279.494
329.804
463.747
484.442
329.83
490.574
112.2
112.336
133.057
54.9143
91.7479
113.079
26.518
26.5416
26.4795
649.856
662.72
614.917
727.187
25.8368
26.1036
26.4616
26.4233
26.5116
26.161
26.2229
24.1935
23.8899
24.7725
25.2913
24.397
23.9885
25.0657
25.7127
25.6977
25.1396
25.9055
26.0075
25.8872
18.6517
18.5053
18.9696
19.1104
19.4605
17.7299
17.4242
17.5373
17.7917
18.179
20.7155
20.0406
21.0264
202.203
202.834
239.662
276.771
126.557
15.8843
17.1552
71.4142
22.663
36.1813
27.6461
31.0337
22.1429
15.1831
14.8002
42.4505
43.6611
40.2168
17.2428
17.3863
269.295
117.34
74.408
251.02
275.701
222.338
24.3278
29.4449
45.4295
12.2333
18.3756
2.04301
3.5465
6.00069
15.1249
15.6874
13.8973
15.3817
14.2684
14.9456
15.3192
22.5853
22.5433
22.4591
22.2863
22.1767
22.7079
22.9074
23.002
21.9646
21.8384
22.0497
21.7551
21.7411
20.9413
21.0171
20.7075
20.7862
21.4309
21.5625
21.6413
21.2301
21.1583
21.392
20.6588
20.4961
20.5467
20.3473
20.1671
19.999
19.7263
19.5154
19.8248
18.897
19.1346
19.3825
18.548
18.2801
18.1317
17.8864
18.7838
25.4028
25.3297
24.4954
24.8931
25.2884
23.1851
23.8061
24.0849
23.4862
24.354
31.4322
8.98144
9.79613
16.7372
18.5898
18.1427
26.0202
26.1797
25.5691
23.7487
46.16
46.1806
46.1577
36.4389
35.2929
30.0149
27.5304
25.3153
23.2929
208.734
243.78
271.614
326.814
203.348
219.858
365.942
392.049
521.181
511.375
600.307
409.821
603.826
151.022
172.382
76.1433
117.473
96.8524
149.522
25.9569
26.0294
25.7511
719.332
683.235
733.914
26.053
26.1671
25.9326
26.1874
26.1719
25.8735
26.0871
26.1525
24.4124
23.7932
24.3606
24.9737
23.62
23.3141
24.841
25.8603
25.6647
24.6436
25.9728
25.935
25.8312
26.0672
18.6713
18.4469
18.8625
19.2578
19.6145
17.2712
17.0173
17.7014
17.3211
18.0481
18.3019
19.8641
21.4135
19.6145
21.2164
175.236
218.21
227.858
253.155
124.841
18.0624
18.3705
28.6814
18.1931
35.8042
29.3621
24.3481
16.4902
14.5999
15.7974
42.7133
44.3142
30.7598
17.0831
16.9469
290.857
191.287
84.2724
282.004
261.911
239.75
26.4071
32.2747
48.9824
14.3044
72.5098
1.36086
3.34174
11.046
15.2928
15.3508
13.6958
15.2342
13.7935
14.8653
23.1952
22.6679
22.5991
22.4452
22.572
22.363
22.2394
22.8254
22.917
23.1002
21.9215
21.8181
22.1129
21.8021
20.9081
21.0928
20.7151
20.8364
21.5135
21.5778
21.7001
21.2815
21.1621
21.3537
21.4733
20.6949
20.5402
20.6366
20.2809
20.455
20.1638
20.1007
19.9164
19.7459
19.6725
19.5115
19.0128
19.2683
19.3929
17.9603
17.7953
25.9046
26.4573
25.8181
24.6035
25.2577
25.58
23.3668
23.8594
24.0517
24.3653
23.711
80.3758
10.6981
4.69697
15.4658
18.4664
17.6925
25.1462
25.6382
23.8577
23.4007
61.6874
45.2541
63.9577
42.2508
36.6932
32.8164
32.1127
29.2022
26.0302
24.5702
274.593
286.76
346.961
400.141
275.48
294.51
422.602
486.307
625.739
623.151
665.802
478.062
201.796
211.829
92.873
164.841
136.166
189.905
25.4254
25.4329
25.5293
25.0586
713.472
725.497
776.165
26.1872
25.3539
25.392
25.8797
24.9948
25.3565
25.6169
25.8151
26.401
24.5365
23.8799
24.0903
24.7486
26.4539
24.394
25.1199
24.6336
24.3655
25.9133
25.4727
25.4983
25.9855
19.5476
17.0672
16.7274
17.7736
17.4213
17.921
19.9106
21.6483
23.0969
20.3628
175.294
244.193