/*--------------------------------*- C++ -*----------------------------------*\
| =========                 |                                                 |
| \\      /  F ield         | OpenFOAM: The Open Source CFD Toolbox           |
|  \\    /   O peration     | Version:  v2012                                 |
|   \\  /    A nd           | Website:  www.openfoam.com                      |
|    \\/     M anipulation  |                                                 |
\*---------------------------------------------------------------------------*/
FoamFile
{
    version     2.0;
    format      ascii;
    class       volScalarField;
    location    "0.6";
    object      p;
}
// * * * * * * * * * * * * * * * * * * * * * * * * * * * * * * * * * * * * * //

dimensions      [1 -1 -2 0 0 0 0];


internalField   nonuniform List<scalar> 
13611
(
90154.2
91227.6
89510.6
91425.8
91785.3
92531.8
91432.9
90217
93204.8
92050.3
92728.5
91311.8
91670.9
89996
93282
92075.7
93076
92523.3
91191.7
91724
90556.4
93566.6
93538.1
93281.4
93216.3
92761.8
91354
92199.3
90296.4
93704.1
93644.5
93538.3
93502.2
93122.6
92644.5
91625.2
92059.5
90637.5
93861.6
93873.9
93639.7
93598.9
93379.2
92971.9
91591.4
92214.7
90383.6
91318
93959
93989.9
93978.3
93878.8
93791.2
93487.2
93361.2
92967.2
91862
92605.1
90581.5
91278.9
94142.1
94139.5
94163.4
94021.1
94193.9
93900
93981.4
93811.4
93612.5
93392.1
91826.4
92742.1
90096
91479.3
94285.9
94234
94282.5
94303.6
94233.2
94118.5
94145.5
93982.8
93653.7
93913.5
93487.2
92337.1
93165.8
90822.3
91593.9
94474.3
94360.1
94451.1
94451.9
94357.4
94386.5
94270.1
94321
94233.6
93955.2
94075.9
93848.2
92308.9
93388.4
90661.2
91808.4
94484.8
94612.7
94598.3
94607.6
94563.1
94507.7
94567.8
94491.5
94499.5
94403.9
94162.5
94334.1
94145.9
93992.6
92701.2
93178.6
93861.8
89892.3
91430.9
91790.1
94571.4
94771.4
94740.2
94741.3
94642.9
94691.4
94637.7
94591.2
94460.7
94420
94392.1
94327.4
92614.3
93500
94136.2
90586.8
91775.1
92210.3
94707.2
94907.8
94807.1
94904
94883.6
94804.4
94770.4
94735.7
94837.1
94724.8
94681.4
94661.4
94634.4
94525.4
92861
93289.1
93917.9
94462.4
94157.2
90308.6
91709
92163.1
94955.3
95030.4
94940.1
95003.6
94965
94903
94965.4
94891.9
94843.4
94955.9
94894.9
94857.8
94746
94879.2
94878.1
94845.9
92550.4
93614
94219.6
94683.6
94538.2
90890.7
91812.8
95127.4
95039.5
95154.3
94982.6
95161.9
95086.5
95102.2
95119.9
94926.5
94853.8
95139.2
94998.2
95000.7
95109.3
95080
94998.9
92593.3
93537.8
94122.9
94597.5
94733.1
94904.3
91700.8
90488.4
92161.6
95185.4
95146.4
95265
95113.2
95273.5
95190.4
95215.1
95268.1
95036.1
94951.8
95262.3
95183.9
95159.1
95280
95311.8
95235.7
93106.4
93943.8
94439.8
94911.3
95013.5
95082.8
91844.6
90894.7
92448.7
95302.1
95256.5
95188.8
95384.1
95144
95414.4
95316.9
95412.1
95416.8
95044.1
95429.2
95308.7
95393.6
95483.5
95419.8
95464.4
95382.3
95290.7
92998.2
94053.6
94357.5
94827.2
95002.5
95195
95206.2
91692.4
92234.6
90293.2
95425.7
95342.4
95290.8
95476.7
95456.5
95257.6
95429.1
95539.6
95507.3
95483.2
95543.5
95135.3
95573.2
95528
95546.1
95615.2
95652.7
95687.5
95633.7
95480.6
93300.1
93806.7
94553.1
94682.3
95109.6
95369
95475.7
95471.4
92062.6
92440.9
91043.8
95553.1
95452.5
95377.2
95588.8
95600.1
95355.9
95252.1
95555.4
95665.5
95666.5
95642.9
95657.7
95186.7
95145.6
95721.5
95747.7
95801
95753.7
95771.2
95822
95736
95673.2
92991.8
94169.4
94841.6
95052.4
95437.2
95555
95730.1
95718.1
92050.9
91000.4
95672
95545
95514.4
95669.2
95695.7
95446.8
95323.9
95669
95787
95770.9
95755
95783.7
95270.5
95203
95885.5
95882.8
95909
95958.1
95986.3
96028.6
95945.3
95875.9
93267.8
94715.7
93957.4
95286.9
95354
95734.3
95882.6
95956.5
95923.5
92195
90338
91905.5
95799.5
95639.8
95580.4
95798.7
95827.3
95502.2
95547.4
95442.1
95798.8
95910.7
95954.1
95893.8
95902.4
95339.9
95298.9
96014.7
95943.6
96042.6
96084.1
96051.5
96075
96112.2
96115.4
96027.1
93105.1
95130
94242.6
95622.8
95725.3
95993.6
96046.5
96167.9
96160.9
92650.8
90968.1
92160.6
95910.5
95738.7
95700.1
95870.5
95823.6
95921.8
95588.6
95630.2
95435.7
95918.1
96028.3
96004.1
96027.9
95355.1
96182.2
96075.1
96188.1
96204
96254.7
96270.5
96308.7
96264.2
96231.2
93566.2
95128.7
95597.6
94004.3
94744
95996.4
96027.5
96287.1
96313.5
96395.8
96254.2
96311.9
92877.3
91922.6
90742.8
92547.9
106835
108819
96040.2
95775
95713.9
95988.1
95934.8
96043.3
95649.3
95530.9
96052.2
96148.1
96137.6
96147
95288.3
95463.8
96217.5
96282
96297
96341.4
96351.2
96356.9
96383.4
96430.3
96393.4
93405.5
95633.6
95975.8
94427
94862.5
96354.2
96346.3
96442.7
96432.9
96459.1
96571.7
96487
96530.4
91858.2
91194.9
92795.7
107411
106601
105686
108852
108950
96122.5
95895.7
95814.7
96027.1
96074
95977.2
95627
95778.1
95544.8
96159
96268.7
96253
96268.3
95504.3
96350
96431
96423.1
96481.8
96569.4
96529.9
96565.2
96617.4
96496.6
93742.2
95686.8
96004.6
96362.1
94331
95288.1
96627.8
96597.7
96666.3
96737.4
96722.5
96788
96616.8
96667.9
92019.9
90814.5
92517.8
93502.5
107694
106076
106943
105756
108486
108899
96249.9
95908
95856.1
96153.7
96195.8
96076.4
95720.2
95802.4
95632.4
96284.1
96370.6
96386.6
96393.5
95454
95592.8
96485.7
96476
96550.4
96520.1
96572.6
96645.5
96629.8
96683.8
96697.6
96622.8
96094.2
96367.9
96704.9
94718.8
95506.3
96952.8
96867.8
96814.7
96807.9
96925.6
96875
96925.8
96835.3
96869.7
91973.7
91332
92972.3
93773.3
107428
105906
106639
105104
105356
104601
108923
109040
96329.1
96313.2
96000.7
95964.4
96170.2
96235.4
96290.7
96136.3
95723
95893.2
96381.7
96499.8
96520.4
95427.1
95487.5
95629.2
96577.4
96593.6
96657.5
96674.6
96712.3
96820
96793.5
96851.7
96863.6
96718.9
96036.1
96434.2
96510.3
96684.5
97051
94659
95298.9
97139.9
97077.8
97071.8
97051.2
97200
97110.8
97140.5
96955.7
97025.9
92226.6
91253.7
93501.1
92731.9
94276.8
107707
106111
105474
106742
104793
105229
104287
108463
108955
96471.2
96435.3
96036.4
96111.7
95980.9
96264.3
96354.4
96370.4
96233
95822.3
95958.5
96496
96574
96631.6
95576.1
95729.5
96744.1
96659.7
96793
96769.1
96806.3
96993.9
96911.3
96959.7
96857.8
96968.4
96426.7
96840.1
96904.4
96992.9
97370.7
95215.7
95586.4
97523.4
97336.8
97259.2
97207.2
97399.7
97238.7
97253.8
97159.6
97204.9
91976.3
90775.7
93874.2
93041.8
94368.8
107696
105800
105406
106239
107276
104674
104871
104176
108773
109028
96547.8
96513.5
96452.5
96131.3
96184.5
96083
96359.2
96420.8
96405.4
96301.6
95819.8
95930.6
96055.4
96695
96746.4
95580.1
95631.1
95700.5
96843.9
96802
96872.2
96911.5
96967.3
97146.5
97089.4
97132.8
96957.2
97111.1
96459.4
96885.5
97108.8
97340.7
97655.3
95335.1
96077.7
97580.2
97724.2
97506.8
97450
97657
97466.3
97455.9
97261.6
97345.4
92242.2
91246.8
93664
92740.7
94869.3
108326
105818
105108
106109
107322
104360
104706
103648
103875
109095
96659.7
96629.4
96540.7
96188.2
96279.8
96171
96439.1
96507.6
96540.5
96407.4
95903.8
96006.7
96130.8
96777.8
96736.2
96843.4
95583.6
95773.4
96980.4
97007
97021
97046.8
97334.5
97200.4
97205.5
97093.5
97163.5
96968.5
97290.7
97486.8
97625.4
97924.1
95894.1
96276.7
97825.8
98007.9
97707.5
97584.7
97582.2
97843.9
97567.7
97558.3
97465.3
97503.1
97414
92029.3
91000
93877.7
92999
95006.2
108447
105433
104797
105105
106304
105661
107823
106815
104228
104370
103378
103784
109367
109029
96742.1
96730.5
96634.7
96314.9
96364.4
96265.7
96540.3
96583.2
96616
96482.6
96000.5
95880.9
96107.8
96248.5
96901.5
96853.7
96973.4
95672.7
95767.8
97063.1
97084.7
97058.1
97160.1
97190.6
97455
97378.6
97351.2
97194.1
97325.6
97082.9
97336.9
97683.8
97757.2
97982.3
98079.3
98130
96002
96769.1
98078
98141.7
97946.2
97821.5
97848.4
98094.1
97776.8
97733.1
97653.8
97600.3
92275.8
91396.4
93511.6
94328.6
92713.6
94750
95573.5
105405
104534
104803
105960
105488
107892
106837
103941
104183
103339
103535
109330
109068
96852.6
96827.8
96725.2
96347.7
96455.4
96627.5
96703.2
96717.2
96595.2
96093
95949.5
96197.5
96319.3
97001.5
96932.2
95661.7
95858.8
97183.9
97208.4
97165.7
97256.5
97270
97239.8
97628.4
97450.1
97413
97330.9
97582.1
97754
98073.9
98220
98303.3
98392.9
98376.4
96518.2
97072.1
98169.2
98237
98449.4
98144.8
97983.4
97961.3
97932.4
97845.7
97855.7
97820
97705.7
92065.9
91158.2
93763.3
94249.4
93017.9
95205.7
95659.6
105096
104556
104256
104717
105576
106043
105157
107622
108486
107164
106399
103815
103921
102886
103120
103441
109399
96957
96938.3
96819.4
96457.7
96539.4
96739.9
96774.9
96780.1
96661.8
96184.7
96062.6
95944.6
96297.8
96434.9
97112.8
97026
95743.4
95840.4
97263.5
97246.5
97242.8
97392.3
97403.5
97354.1
97745
97594
97555.3
97431
97891.2
97620.1
98099.2
98405.1
98492.5
98677.7
98665.3
98573.4
96541.3
96991.7
98428.4
98462
98608.7
98372.1
98195.4
98169.8
98124.8
98056.5
98049.9
97954.8
97882.6
92237.1
91412.7
93566.1
94589.6
92723.5
95123.9
96105.9
104824
104310
104030
104384
105310
105792
104932
107778
108682
106983
106324
103561
103730
102887
103182
109250
97058.7
97021.6
96916.6
96551
96495.2
96641.2
96820.1
96888.6
96899.6
96776.8
96267.9
96105.2
96020.3
96383.6
96467.1
97115.7
97222
97072.9
95730
95913.8
97355.9
97379.3
97363.9
97472.3
97440.6
97909.9
97724.3
97644.9
97621.5
97562.4
98387.2
97988.7
98482.3
98752.1
98872
99016.1
98924.2
98844.6
97019.7
97443.6
98569.2
98625
98868.4
98383.3
98582.4
98341
98174.1
98287.9
98182.6
98131.6
97978.7
97968.5
91962.5
91205.5
93910.7
94448.2
92897.8
95470.4
96249.8
104591
104070
103770
104246
105306
104996
105503
105976
104645
108183
107348
109088
106581
103482
102685
103028
109224
97153.8
97142.7
97006.1
96652.2
96594.2
96719.3
96922.8
96959.3
96964.6
96802.2
96374.1
96276.1
96202.9
96040
96565.1
97203.6
97311.8
97176
95753.5
95798
96003.1
95882.6
97454.8
97473.5
97447.2
97591.2
97557.6
98024.7
97860.6
97800.4
97752.2
97642.3
98621.7
98449.9
97916.9
98808.7
99046.6
99108.2
99293.9
99224.4
99022.7
96867.5
97446.5
98829.1
98856.5
98973
98581.2
98795.6
98561.3
98376.2
98357.2
98441.5
98377.5
98228.2
98135
98114.7
92098.4
91399
93819.5
94793.2
92525.3
93375.1
95973
95273.6
104350
103858
103569
104002
105013
104790
105396
105845
104440
108276
107306
108877
106370
103282
102352
102761
102443
103079
109328
97224.4
97201
97180.6
97095.9
96736.9
96672.4
96634.8
97002.2
97071
97083.7
96881
96450
96367.6
96218.2
96139.5
96603.6
97293.7
97414.2
95811.5
96069.9
95930.5
97560.8
97587.8
97571.2
97673.8
97659.7
98189.9
97989.1
97847.2
97815.2
97767
99112.9
98870.4
98285.3
99295.2
99399.7
99564.2
99624.1
99353.1
99446.6
99316.5
97064.3
97918.6
98950.7
99023.6
99249.9
98785
99003.8
98741.7
98604.5
98462.7
98601.1
98493.6
98400.9
98186.4
98224.8
91886.8
91085.3
94271.4
94714.4
92566
93368.4
96259.9
95541
104156
103842
103618
103331
103930
104814
104982
104559
105158
105555
105973
104431
104199
108009
106877
107628
109120
106494
103226
102586
102274
102881
109329
97329.6
97321.9
97282.2
97131.6
96839.1
96768.8
96721.4
97095.8
96978.4
97132.9
97133.7
96907
96446.2
96555.9
96383.1
96302.5
96138.1
96695.8
97375.4
97495.3
95899
96032.9
97662.2
97679.6
97631.8
97627.4
97801.4
97760.4
98283.3
98095.5
97971
97936.4
97844.4
99468.1
99435.3
98740.7
99243.4
98296.6
99542.6
99691.5
99797.7
99779.7
99645.2
99732
99430.9
96724.3
97529.8
98132.9
99201.5
99232.9
99348.1
98992.1
99191.2
98758.7
98952.7
98679.5
98747.8
98683.9
98451.9
98337.5
98346.3
92164.3
91533.2
94186.6
95199.9
92931.3
93716.8
96012.4
103600
103440
103172
103714
104595
104785
104446
105088
105428
105753
104185
104034
108213
107009
107437
108660
106177
102961
101910
102665
102353
102027
109419
109319
97390.3
97360.3
97314
97239.2
96851.8
96783.6
96774.3
97167.4
97029.4
97219.9
97249.5
96978.2
96521
96587.9
96489.5
96299.9
96209.5
96773.6
96727.9
97470.6
97595.1
95881.9
95958.6
96045.3
97760.3
97787
97750.5
97736.7
97871.8
97856.3
98406.5
98235.6
98138
98091
98012.7
97969.8
100005
99931.9
99098.7
99555.7
98753.8
99736.8
99956
100171
100056
99826
99920.8
99692.8
96978.9
97456.3
97962.7
98663.1
99415.7
99571.3
99186.8
99389.7
98969
99095.3
98787.7
98791.4
98951.4
98765.1
98592.2
98462.9
92126
91482.8
94457.2
95293.5
92903.3
93693.6
96309.7
103536
103445
103247
102949
103673
104499
104870
104590
104267
105193
105482
105815
104136
103831
108091
106777
107680
108820
106200
102842
101677
102507
102205
101883
109713
109609
97489.8
97469.5
97416.2
97269.1
96945.2
96873.8
96851.4
97179
97256.5
97115.5
97279.6
97308.7
97035
96561.9
96671.3
96477
96383
96251.8
96872.7
96828.2
97543.8
97679.5
95952
96135.4
97849.7
97866.7
97820.8
97799.7
97757.3
97992
97953.8
98487.7
98483.1
98325.5
98269.3
98181.3
98136.6
98044
100141
100346
99481.8
100336
98850.2
100040
100362
100434
100298
100122
100273
99914.5
99736.3
96822.4
97789.5
98477.5
98959.2
99635.8
99697.7
99384.3
99545.7
99102.8
99315.4
98970.6
98985.2
99084.3
98942.3
98714.5
98591.1
92468.1
91088.6
92056.1
94896
94115.2
95759.7
93312
96176.1
103328
103245
103121
102827
103478
104270
104771
104451
104181
105085
105265
105564
103960
103750
108397
106422
106805
107535
105906
102605
101196
101546
102283
101983
101659
110096
108659
97552.3
97555.1
97555
97489.4
97444.3
97379.2
96949.2
97029
96916.7
97261.5
97341.2
97113.9
97373.2
97384.9
96644.3
96706.6
96538.4
96339.2
96229.1
96937.5
96840.2
97658.5
96045.9
95995.5
96122.9
97949.7
97975.9
97916.1
97921.1
97846
98030.7
98450.2
98601.8
98617.7
98352
98304.8
98226.5
98173
100748
100264
100424
99514.9
100344
99281.4
100640
100880
100944
100588
100339
100513
100147
99940.8
97133.9
98344.3
97604.7
98840.8
99495.8
99809.6
99918.7
99549.2
99442.4
99746.4
99271.5
99064.7
99080.5
99285.7
98958.8
99067.3
98837.5
98713.3
92468.5
91414.9
92257.3
95046.7
94177.1
95844.1
93310.1
96540.9
103187
103249
102933
102624
103328
103466
104158
104563
104879
104250
103984
105198
105302
105644
103811
103569
108339
106266
106449
107094
107939
105992
102504
101016
101342
102155
101860
101539
109039
108672
97654.6
97651.3
97645.2
97580.5
97533
97021.7
97117.5
97005.9
97260.8
97341
97422.7
97183.7
97433.8
97432.4
96705.7
96779
96486.3
96640.5
96394.6
96278.9
97013.4
96891
97717.4
96047.3
96199.5
98035.8
97994.7
97977.1
97941.2
97872.8
98126.1
98533.8
98698.1
98722.9
98487.1
98396.7
98354.1
98215.6
100636
100691
101531
100023
100578
100711
100402
101039
100642
100489
100734
100652
100423
100652
100145
96983.1
98660.6
97882
99308.1
99706.3
100046
100110
99726.2
99654
99852.4
99386.8
99252.1
99243.5
99371.3
99088
99214.9
98833.1
92900.8
92044.8
91160.7
92742
94660
95524.5
93747.1
96331.9
102989
103038
102847
102504
103205
103302
103978
104480
104767
104134
103851
104931
105123
105448
103658
103513
106250
106902
107930
105823
102316
101038
101240
101956
102178
101643
101306
108968
109072
108294
97721.5
97722.2
97656.9
97602.7
97571.4
97104.4
97197.7
97076.6
97328.3
97418.4
97509.6
97527.2
97533.4
96703.9
96807.6
96828.3
96524.6
96660.5
96361.8
96274.1
97058.2
96959
97811.8
96008.9
96146.5
96210.7
98120.8
98077.5
98053.5
98028.5
97972.7
98161.9
98660.5
98830.9
98849.6
98572.6
98527.6
98451.2
98316.1
101187
101770
100412
100972
101637
100961
100906
101047
101371
101214
100749
100590
101094
100341
97339.9
99143.5
98359
97768.3
99586.8
100024
100167
100330
99795.4
99743.9
100041
99615.4
99315.4
99363.2
99555.8
99091.8
99216.3
99355.2
98960.1
92230.8
91521.3
92984.5
94680.9
95739.1
93803.2
96489.6
102925
102954
102676
102291
102539
103052
103250
103864
103899
104313
104579
104783
103949
104169
103669
104899
105088
105201
105548
103360
105903
106429
107106
107541
100690
100863
101853
101981
101549
101180
109232
109217
108263
97823.7
97811.3
97746
97692.6
97662.6
97165.5
97280.2
97150.9
97407.6
97345.4
97507.7
97572
97576.9
96771.1
96873.5
96628.3
96452.2
96731.7
96405.3
96375.2
97040.6
97153.1
96999.4
97861.2
96049.3
96185.5
96305.3
98198.1
98172.8
98122.9
98041
98127.3
98007.9
98276.1
98746.8
98925
98964.1
98702.7
98615.9
98573.5
98423.3
98339.8
102349
101317
100277
100796
101149
101337
102236
101280
102187
101432
101274
101725
100725
100719
100553
101282
97295.9
99365.6
98511.5
98175
100063
100582
100398
100536
100006
100009
100123
99721.2
99487.4
99503.1
99695
99599.5
99216.5
99350.8
99498.7
92681.3
92052.3
91236.9
93467.2
94243.4
95074.7
95536.2
96212.9
96928.8
102735
102791
102627
102152
102384
102978
103082
103704
103729
104331
104489
104590
103814
104023
103530
104731
104848
105046
105380
103300
105669
106186
106890
107559
100519
100845
101684
101922
101377
100995
101239
109166
108673
107899
97870.7
97824.3
97759.9
97721.1
97698.5
97268.2
97319.2
97211
97467.4
97419.4
97589.4
97652.4
97655.6
96850.1
96792.7
96966.4
96636.4
96517.2
96746.7
96377.2
97096.2
97208.6
97224.8
97068.3
97955.3
96169.7
96314.8
98289
98225.3
98201.6
98163.1
98133.1
98189
98093.7
98875.4
99069.1
99079.1
98790.9
98750.6
98656.2
98496.3
98435.3
102163
102297
100615
101384
102129
101932
101826
102332
102339
101285
101424
100992
101137
101232
100715
101921
101429
97690.8
98970.4
99563.9
98117.8
100059
101010
100601
100451
100134
100087
100301
99947.7
99639.1
99862
99760.6
99205.5
99344
99490.1
99638.7
92806
92376.1
91553.5
93724.6
94190.7
94957.4
95876.4
96482.6
96935.4
102677
102720
102449
101990
102208
102807
103029
103562
103620
104218
104501
103646
103857
104065
103372
104719
104567
104765
104838
105138
105415
103136
105620
106222
105801
107203
106502
100443
100649
101631
101745
101337
100930
101075
109194
109190
108734
107982
97954.4
97914.3
97832
97811.3
97780.3
97277
97407.5
97553.4
97456.3
97659.2
97709.9
97704.1
96904.9
96870.3
97017.6
96699.2
96559.4
96801.5
96410.9
97192.8
97289
97278.5
97135
98005.9
96166.7
96314.8
98384.4
98338.4
98277.8
98263.3
98152.5
98278.7
98144.3
98960.5
99139.2
99133.3
98917.2
98832.6
98787.9
98674
98604.7
98463.8
101863
102601
101048
101952
102057
102289
102153
101491
101840
101946
102805
100971
101303
101498
101176
101004
101683
101131
97779.5
99105.8
100100
99819.6
98454.7
100658
100829
100865
100655
100317
100308
100379
100004
99775
99888.8
99316.7
99468.3
99627.1
99778.3
93192.9
92408.7
91179.3
92113.9
93614.6
94505.3
95281.4
95738.7
96346.1
97259.4
102522
102536
102361
101851
102103
102728
102898
103441
103472
104203
104297
103521
103750
103963
103264
104533
104431
104579
104687
105031
105207
103076
105311
105879
105665
107064
106383
100239
100492
100643
101462
101696
101167
100787
101047
109387
109308
108317
107632
97999.5
97906.2
97987.3
97860.2
97834.3
97825.3
97342.7
97456.5
97597.1
97548.1
97709.7
97702.4
97810.7
97793.6
96980.3
96903.8
97108.8
96744.4
96661.5
96507.3
96837.3
96440
97195.7
97354.3
97351.4
98107.6
96395.1
96182.3
98412.3
98351
98311.9
98321.5
98238.7
98324.3
98218.1
99083.9
99297.3
99267.9
99010.2
98961.3
98859.1
98787.8
98639.2
98566.5
102543
101799
101363
102230
102478
102490
102130
101674
101959
103068
101329
101916
101138
101340
100960
101608
101576
98231.2
97633.7
98815.8
100852
100164
101514
101842
101073
100850
100587
100446
100329
100485
100156
99923.2
100057
99443.4
99608.7
99770.8
99924.3
93184.8
92820.7
91622.9
92391.8
93970.2
94396.3
95133.6
96083.8
96689.7
97156.4
102399
102439
102192
101834
101944
102788
102580
102927
103298
103345
104042
104213
103361
103520
103827
103607
103126
104470
104276
104522
104675
104835
105142
105219
105783
105395
106637
107229
106013
100116
100323
100520
101415
101546
101129
100769
100883
109514
108760
108371
107750
98098.1
97960.8
98056.2
97923.3
97921.4
97902.8
97429.4
97548.2
97688.4
97586.5
97758.7
97738.5
97871.2
97841.6
97034.2
96958.8
97177.9
96798.9
96690.8
96488.4
96955.3
96381.1
97262.7
97438.8
97432.3
97403.5
98150.6
96310.5
96229.4
98500.7
98434.3
98398.2
98409.2
98309.9
98416.5
98274.8
99173
99364.9
99305.3
99138.4
99026
98967.1
98807.4
98729
98577.8
103022
102637
102033
102467
102642
102841
103073
102627
102134
101895
101694
102263
101898
101766
101159
101254
102712
102921
102307
98296.1
97974.6
99015.6
100752
100953
99748.8
100474
101679
102073
101430
101130
100610
100469
100768
100192
100074
99556.7
99733.5
99903.4
100067
93519
92786.4
91554.7
92276.4
93895.5
94695.8
95381.1
96564.1
95877
97539.2
102240
102285
102476
102119
101653
101881
102685
102550
102849
103195
103211
103977
104059
103245
103374
103750
103541
103032
104296
104167
104367
104471
104795
104925
104964
105449
105266
106551
106903
105888
100142
100359
100598
101257
101516
100963
100833
109588
109363
108900
108143
107441
98121
98041.7
98085
97973.7
97983.5
97953.4
97473.8
97593.6
97717.5
97674.6
97835.8
97833.7
97951.4
97919.7
97022
97154.6
97261
96795.1
96704
96575.6
97044.3
96314.2
97370.2
97294.3
97494.7
97470.3
98245.7
96402
96324.6
96079.7
98553.6
98527.7
98441.3
98474
98384.3
98439.8
98481.4
98368.4
98299.4
99506.7
99400.1
99225.5
99132.2
99031.5
98905.1
98794.6
98657.3
103058
102752
102769
102763
102938
103077
103395
102711
102832
102721
102614
102956
101685
101501
101190
102083
102291
101420
98713.5
97957
99343.4
101255
101469
100324
100621
101948
102187
101142
100873
100748
100371
100644
100867
100769
100229
99707
99881
100057
100227
93520.2
93133.6
91180.9
92118.8
92621.3
94203.3
94580.8
95011.4
96910.2
96172.8
97423.5
102195
102206
102328
101983
101626
101740
102717
102436
102895
103070
103079
103820
104020
103268
103130
103388
103605
104169
104254
104291
104313
104462
104608
104804
104888
104796
105325
105006
106183
107001
105529
99994.2
100242
100541
101224
101354
100938
100655
109285
109509
108634
108320
107385
98199.5
98045.3
98157.5
98061.2
98030.4
97549.5
97679.5
97798.3
97716.3
97875.5
97856.4
98003.7
97971.4
97029
97169.8
97315.5
96959.4
96728.9
96849
96571.1
97082.2
96468.8
97393.2
97321.7
97580.3
97516.6
98262.9
96446.6
96249.3
96330.5
98633.2
98585.9
98538.9
98551.1
98496.8
98570.5
98409.2
98364
99615.1
99357.1
99525.7
99212.6
99200
99003.7
99154.5
98880.9
98761.5
103227
102916
103041
102954
103112
103272
103371
103572
102918
102213
102690
102594
102549
101360
101883
101999
102217
101754
102122
101919
98903.3
98459.8
99732.4
101326
101754
100484
101078
102524
102920
102488
101830
101348
100397
100781
101151
100982
99820.6
99997
100180
100368
93959.4
93083.9
91265.8
92075.1
92544.3
95075.6
96922.6
95975.1
96671.8
97705.7
102015
102064
102314
101921
101507
101699
102633
102431
102814
102985
103051
103737
103891
103154
103075
103305
103520
104022
104110
104115
104165
104302
104607
104673
104594
104985
104857
106020
106793
105362
99813.2
99977.1
100071
100348
101077
101309
100816
100588
109610
109322
108818
108121
107659
107039
98212.3
98098.5
98194.7
98114.1
98075.2
98074.7
97607.5
97719
97828.9
97794.1
97947.4
97944.3
98004.2
98090.1
98054.4
97223.3
97069.4
97329.1
96864.4
96786.4
96814.1
96636.2
97110.4
96543.6
96528.1
97469.8
97388.9
97635.6
97624.4
98343.2
95970.3
96491
98701.2
98667.6
98624.5
98549.9
98566.1
98636.6
98484.6
98409.8
99785.2
99611.5
99439.6
99611.7
99301.2
99288
99067.3
99209.9
98944.3
98790
103235
103568
103114
103181
103499
103540
103750
103656
103780
103007
102684
102005
102811
102834
102135
101939
101336
102898
102057
102242
102255
101926
99257.4
98566.4
100146
101868
102016
100941
101392
102698
103255
103010
101523
101300
100549
101023
100704
101003
101077
99969.6
100156
100343
100530
93980
93481.7
91619.6
92357
92918.6
95528.8
94747.2
97399.6
96326.7
96998.9
98201.9
101954
102019
102194
101768
101555
101383
102512
102687
102311
102861
102920
103766
103591
103891
103110
102955
103378
103183
104012
104047
104035
104160
104297
104452
104579
104552
104444
104904
104805
104638
105567
106138
106445
105059
99692.2
99775.1
99966.9
100279
101054
101149
100671
100890
100410
109546
108805
108392
107659
106835
98290.7
98173.3
98271.7
98169.4
98147.7
98135.5
97688.2
97795.6
97882.8
97839
98009.4
97949.4
98000.5
98076.5
98117.2
98111.5
97303.3
97031.3
97307.7
96885.9
96818.6
96794.6
96576.4
97055.8
96644.2
96544.6
97550.5
97501.2
97724.4
97654.3
98411.8
98352.3
96149.9
96880.4
96276.8
98720.3
98706
98693.9
98603.6
98551.8
98711.4
98479.2
99886.5
99741.6
99570.6
99403.5
99725.2
99371.1
99038.4
99163.6
99325.9
98981.4
98862.4
103485
103836
103401
103372
103770
103857
103884
104077
103033
102754
102492
102782
102938
101910
102453
101793
102241
102665
102578
102120
99385.3
98954.1
100136
101673
102204
102737
100738
101161
103137
103601
101740
100982
100919
100824
101546
101391
100086
100276
100471
100728
94322
93407.7
91582.6
92153.5
92818.4
95414.4
94990.6
97415.2
96863.7
96180.1
98339.5
101827
101878
102075
102205
101691
101478
101296
102447
102601
102323
102771
102826
103644
103533
103781
102986
103128
102884
103311
103132
103887
103902
103904
104015
104148
104377
104383
104286
104619
104550
104475
105498
105808
106459
104863
99536
99697.4
100019
99781.3
100131
101095
100559
100845
100341
109500
109132
108083
107317
106918
98207.3
98314.6
98215.8
98210.4
98191.6
97749.3
97856.6
97947.4
97920.3
98073.4
97972.5
98065.1
98195.3
98176.3
97260.1
97249.1
97148.6
97433.4
97126.1
96836.2
96779.2
96896.9
97056.2
96482.9
97553.1
97655.2
97448.4
97764.1
97779.7
97684.4
98494.4
98423
96424.3
96691.9
96333.2
98810.2
98789.9
98761.6
98669.5
98610.1
98732.2
98773.2
98533.3
100045
99862.6
99616.6
99446.8
99817.3
99396.8
99095.4
99206.4
99359.4
98952
99058
98869.1
103746
104154
103569
103519
103372
104193
104255
104183
104277
103193
102865
102646
102874
103112
102059
102087
102446
101799
102267
102573
102525
102612
102366
99908.9
99197.8
102015
102494
102990
100874
101656
103433
103928
101232
101221
100809
101355
101658
101265
100242
100425
100616
94249.1
93816.5
91248.5
92365.7
93185.4
95703.7
94697
97897.6
97190.9
96441.1
98760.9
101732
101798
101843
101975
102101
101531
101349
101176
102483
102634
102238
102775
102743
103612
103415
103792
103672
103006
102903
102770
103195
103328
103009
103800
103838
103807
103870
104013
104146
104302
104316
104272
104609
104394
104374
105211
105810
106160
104765
99434.2
99181.5
99520.5
99897.9
99685.2
100111
100960
100602
100402
100725
100194
109635
108996
108146
107343
106555
98279.1
98389
98280.7
98269.4
98259.4
97830.6
97925.1
97963.7
98134.8
98011.4
98092.2
98134.9
98206.5
98249.8
98240.9
97486.2
97285.3
97272.2
97384.7
97112.6
96971.1
96626.7
96942.8
97095
96590.3
97577.1
97737.7
97553.5
97847.1
97834.9
97697.3
98495.5
98551.1
98437.5
96573.7
96353.8
96454.3
96395.5
98833
98817.3
98703.1
98676.2
98599
98811.4
98848.1
100111
99965.8
99727.1
99544.4
99825.9
99936.8
99526.5
99173.4
99300.5
99442.7
98990.3
99108
98939.5
103944
104371
103842
103752
103567
104370
104446
104643
104490
104668
103231
102952
103091
102600
102002
102379
101968
102356
102766
102695
102414
102666
100193
99574.6
102134
102552
103097
103467
101364
100508
101580
103821
104341
101850
101087
101084
101536
101723
101633
100350
100594
100843
93713.5
91585.3
92120
92831.5
93184.9
95689.5
94822.6
98028.4
96894.2
97715.6
96156.9
98928.4
101629
101668
101758
101998
102115
101457
101246
101131
102397
102547
102271
102652
102638
103471
103384
103700
103619
102950
102805
102706
103148
103233
102947
103676
103706
103697
103746
103904
104003
104153
104157
104127
104375
104169
104109
104882
105171
105441
106171
104436
99270.1
99438.1
99971.7
99755.1
99522
100936
100488
100305
100728
100109
109691
108477
109462
107722
106996
106591
98422.3
98335.7
98330.2
98314.1
97857
97955.6
97981.1
98036.6
98143.7
98187
98260.1
98303.5
98311.9
97612
97312.9
97372.6
97303
97645.3
97408.6
97166.2
97066.4
96970.7
96515.8
97094.5
97072.5
96675.5
97691.7
97709
97934.7
97811.1
97974.1
97786.6
98561.1
98627.6
98508.8
96563
96530.7
96432.3
98903.6
98898.4
98789.7
98718.2
98655.2
98832.1
98862.8
98910.7
100076
100244
99751.2
99593
99948.2
100035
99535
99225.8
99298.5
99483.4
99071.8
99125.3
99201
98954.9
104250
104671
103945
103763
103568
104808
104877
104717
104963
104766
104852
103415
103077
102913
103168
102646
102127
102001
102583
101932
102729
102694
102539
102526
99834.1
99787.3
102359
102968
103383
103881
101020
100572
101991
104266
104723
101977
101177
100848
101314
101518
101308
100349
100470
100690
93994
91322.4
92464.7
92880.8
93654.8
95338.4
94464.4
98530.5
97073.1
97886.4
96317.6
99309.9
101524
101595
101794
101660
101904
102023
101346
101244
101023
102441
102569
102178
102542
103442
103263
103653
103528
102833
102779
102620
103060
103201
102976
102843
103571
103614
103598
103796
103607
103865
103877
104008
104027
104019
104050
104165
103962
103929
105456
105825
99192.8
98927.2
99274.8
99953
99660.6
99441.8
100831
100518
100364
100157
100623
109818
108346
109227
107891
106879
106232
98480.1
98402
98385.8
98376.8
97993.3
98052.8
98059.7
98128.3
98196.4
98251.3
98317.8
98346.5
98370
98369
97488
97398.2
97221
97314.7
97487.6
97583.3
97173.9
97045.2
96977
96807.7
96989.9
97159.9
97715.2
97720.7
97978.1
97773.3
97913.7
97881.6
98561.2
98625.3
98654.5
98520.6
96654.3
96593.9
96461.4
98940.3
98816.4
98788.6
98706.2
98907.5
98935.9
98979
100191
100268
99688.3
99843.9
99953.6
100025
100170
99593.6
99363.4
99451
99559.6
99090
99201.9
99243.3
99034.5
103721
105060
105072
105123
105392
105138
103476
103110
102922
103310
102484
102327
102063
102499
102555
102781
102835
102623
100451
100329
102991
102544
103445
103809
104251
101447
101806
104712
102077
101066
101164
101412
101696
101651
100533
100637
100787
91568.9
92449.6
93248
93682.5
95491.7
94662.8
98738.5
96796.4
97561.9
98369
96003.6
99525.9
101453
101595
101477
101709
101610
101920
102021
101335
101122
100968
102390
102477
102205
102067
102462
102503
103343
103220
103536
102785
102670
102548
102616
103090
102888
102792
103453
103519
103571
103756
103520
103757
103875
103874
103860
103871
105855
99026.6
99204.4
99854.2
99703.9
99509.1
99304.7
100834
100414
100300
100066
100624
109809
108582
109538
107662
107147
106388
98515.1
98453.1
98450.4
98425.5
97994.5
98067.8
98149.2
98218.4
98228.8
98293.2
98378.4
98406.3
98428.8
98420.2
97314.7
97637.9
97324.1
97413.5
97801.2
97740.7
97197.6
97103.6
96931.4
97079.3
96914.5
97170.1
97646.9
98036.6
97807.6
98018.9
97859.5
98624.4
98683
98730.3
98579.9
96707.7
96619.7
96485.5
99014.5
98881.9
98805.2
98760
98956.2
98926.4
98984.9
99040.2
100339
99763.2
99842.3
100030
100113
100238
99675.3
99332.5
99523.6
99624.5
99142
99247.4
103670
105505
105503
105466
105693
103423
103023
103230
102876
103336
103129
102491
102322
102465
102710
102860
102667
100580
100321
103246
102901
103841
104066
104668
101545
102140
105060
102003
101645
101365
100769
101805
102007
101821
101711
100634
100688
91290.9
92084
92931.1
93330.6