/*--------------------------------*- C++ -*----------------------------------*\
| =========                 |                                                 |
| \\      /  F ield         | OpenFOAM: The Open Source CFD Toolbox           |
|  \\    /   O peration     | Version:  v2012                                 |
|   \\  /    A nd           | Website:  www.openfoam.com                      |
|    \\/     M anipulation  |                                                 |
\*---------------------------------------------------------------------------*/
FoamFile
{
    version     2.0;
    format      ascii;
    class       volScalarField;
    location    "0.6";
    object      p_rgh;
}
// * * * * * * * * * * * * * * * * * * * * * * * * * * * * * * * * * * * * * //

dimensions      [1 -1 -2 0 0 0 0];


internalField   nonuniform List<scalar> 
13611
(
99386
99902.1
99060.6
99824.7
99718.8
99600.9
99989.1
99568
99326.4
99663.2
99549.1
100226
99711.9
99593.1
99370.4
99711.1
99488.7
99683.8
100062
99748.7
99863.2
99209.8
99278.7
99420
99516.7
99704.7
99849.7
99838.6
99802.1
99112.8
99262.3
99355
99452.5
99613.4
99797.8
100005
99907.8
99955.4
99086
99211.7
99380.4
99504.2
99607.3
99777.9
100128
99944.3
99991.7
100219
99131.7
99001.4
99232.8
99337.3
99482.5
99659
99719.5
99864.5
99997.1
99918.7
99953.6
100235
99049.8
98971.7
99189.2
99372.1
98817.5
99549.2
99437.2
99618.3
99739.4
99866.2
99984.8
100024
99656
100094
99046.9
98892.8
99249.6
99126.9
99321.6
99518.3
99439.2
99644.3
99805.1
99708.4
99933.6
100059
100004
100033
100275
98966.6
98856.9
99204.1
99115.2
99338.7
98738.1
99541.2
99403
99608.7
99815.1
99740.4
99935.6
100085
100064
99850
100088
98888
98964.1
99242.4
99067.7
99314.4
98701.3
98619.3
99508.4
99433.2
99633.4
99855.5
99737.6
99911.7
100008
100123
100107
100075
99430.8
100135
100114
98769.1
98903.6
99198.6
99105.2
99360.5
98576.5
99533.2
99595.4
99694.2
99806
99932.6
100009
100206
100187
100126
99870.8
100294
100200
98745.8
98937.3
98811.3
99229.4
99070.6
99371.9
98638.3
98476.8
99516.1
99632.7
99703
99826.7
99928.7
100055
100230
100246
100202
100103
100177
99850
100459
100256
99015.5
98880.5
98745.1
99290.4
99127.7
99458.4
99342.2
98589
98426.2
99565.4
99624.7
99739
99889.8
99791.9
100001
100063
100268
100321
100286
100141
100223
100193
100333
99009.7
98793.1
98925.6
98651.1
99254.8
99113.4
99455.6
99376.6
98482.4
98312.9
99561.5
99683.6
99907.1
99814.9
99977.7
100097
100282
100379
100342
100293
100204
100132
100516
100045
100224
99058.9
98746.6
98886.1
98605.5
99287.9
99186.1
99504.7
99356.4
98433.3
98254.8
99624.5
99689
99879.8
99783.7
100012
100111
100369
100431
100392
100346
100240
100187
100446
100182
100336
99062.3
98803.1
98664.2
98913.2
98506.1
99267.9
99155.2
99517
99402.2
98312.1
99623.5
99739.1
99910.7
99818.9
100066
99969.5
100098
100192
100412
100481
100444
100414
100403
100337
100292
100511
100366
99819.5
99040.3
98745.2
98642.2
98854.1
98981.3
98453.5
99203.8
99310.9
99576.8
99469
99372.8
98273.7
99685.9
99734
99879.8
99775.1
100076
99994.7
100158
100242
100476
100497
100539
100501
100489
100452
100389
100294
100497
100436
100230
99095.2
98778.2
98594.7
98878.2
98961.9
98495
98353.5
99179.4
99289.8
99589.2
99472.6
99408
98204.4
98119
99666.8
99907
99795.6
100128
100050
99966.7
100212
100240
100505
100577
100594
100530
100513
100443
100398
100352
100614
100199
99074.8
98722.9
98635.5
98840.7
99008.2
98441.6
98300.2
99224.8
99334.3
99567
99514.3
99399
98198.4
98027.9
99701.9
99878.4
99773.1
100158
100077
99997.1
100232
100297
100531
100626
100600
100630
100589
100570
100504
100452
100350
100489
99876.5
100565
99138.9
98751.4
98579
98879.2
99002.9
98387.8
98498.1
98321.7
99209.3
99320.5
99606.6
99503
99447.1
98147
98047.3
99665
99750.8
99903
99810
100213
100136
100055
99963.2
100286
100540
100692
100652
100691
100623
100583
100562
100467
100397
100505
100308
100690
99124.3
98725.8
98603.5
98946.5
98790.8
99062
98365.9
98457.1
98197.4
99259.7
99369.8
99549.2
99436.2
97980.9
99683.7
99744.1
99899.2
99856.1
100248
100167
100088
99984
100327
100617
100726
100728
100650
100700
100725
100692
100654
100586
100536
100447
100379
100592
100792
100340
100572
99578.2
99530.5
99180.4
98670.1
98507.9
98939.7
98798.6
99061.4
98319.2
98176
99249.1
99360.5
99550.9
99488
97852.6
98015.9
99747
99652.4
99934.5
99846.7
100307
100224
100147
100077
100035
100652
100801
100794
100726
100756
100797
100722
100641
100708
100582
100534
100480
100416
100739
100546
100595
99645.9
99574.3
99344.7
100069
99404.4
99140
98663.9
98503.5
98879.8
99003
98734
98235.8
98360.5
98098.4
99295
99418.7
99597.7
99480
97948.3
99789.4
99682.1
99945.9
99892.2
100346
100255
100182
100116
100011
100709
100843
100825
100833
100754
100811
100817
100784
100678
100747
100631
100579
100471
100402
100583
100364
100563
100712
99680
99479
99679.2
99393
99958.8
99606.9
99171.6
98579.2
98443.4
98886.9
99008.9
98740.1
98199
98269.3
98062
99291.3
99408.6
99585.7
99532
97863
97965.8
99796.2
99629.4
99734.3
99936.9
99864.1
100317
100238
100169
100093
100039
100896
100885
100895
100799
100848
100885
100817
100731
100680
100799
100629
100574
100516
100439
100703
100578
100695
100749
99684.4
99480.1
99679.8
99234.7
99327.3
99091
100143
99497.8
99245.8
99130.8
98568.3
98441.1
98821.4
98951.5
99070.1
98702.9
98114.1
98277.1
99353.4
99464.4
99523.6
97704.7
97796.9
97911.7
99779.6
99639.9
99706.9
99973.9
99897.5
100337
100277
100208
100123
100026
100917
100926
100922
100919
100932
100799
100844
100932
100874
100773
100728
100842
100678
100619
100503
100440
100677
100487
100743
100693
100770
99693.1
99559.6
99412.8
99751.7
99166.2
99332
99003.3
99925.9
99704
99261.1
99162.5
98511
98640.4
98369.7
98813.9
98956.6
99051.4
98732.8
98089.9
98237.8
99362
99433.3
99560.9
97830.2
97927.6
99815.8
99615.4
99739.3
99955.8
99880
100392
100275
100201
100066
100167
100978
100998
100980
100976
101000
100878
100901
100999
100915
100823
100733
100899
100673
100609
100551
100485
100683
100312
100782
100738
100823
99795.7
99543.4
99438
99695.2
99842.7
99176.7
99261.4
99010.6
100016
99524
99322.5
99217.9
99109.9
98518.9
98602.7
98372.2
98854.8
99021.4
98916.5
98704.6
98000.7
98154.3
98277.5
99459.2
99555.2
97701.6
97784
97813.4
99794.2
99653.7
99711.3
99994.6
99924.1
100384
100327
100258
100054
100174
100986
101024
101023
101029
101044
100908
100952
100977
101048
100858
100785
100942
100726
100655
100541
100495
100743
100532
100788
100720
100880
99940.9
99599.2
99409.4
99732.4
99902.1
99097
99268
98806.3
98925.3
99798.7
99340.6
99223.9
99113.8
98485.6
98639.2
98423.8
98826.4
99035.3
98941.1
98752.1
97972.1
98109.8
98255.7
99517
99413.1
99611.4
97617.9
97793.9
99830.2
99737.7
99985.8
99901.2
100431
100315
100231
100093
100150
101051
101074
101083
101087
101105
100956
100987
101010
101078
100923
100841
100783
100995
100715
100644
100596
100564
100486
100806
100545
100824
100755
100894
100041
99566.5
99333.9
99469.9
99802.8
99682.2
99915.6
99868.6
99104.2
99182.6
98746.5
98946.8
99779.2
100207
99323.3
99272
99167.6
98533.1
98614
98404.4
98871.5
99026.9
98992.2
98728.3
98034.9
97873.9
98169.3
98326.3
99526.6
99429.5
99634.4
97626.1
97710.7
99814.9
99788.6
99694.4
100029
99941.2
100417
100358
100263
100084
100184
101077
101089
101118
101130
101138
101142
101131
100978
101043
101075
101090
100964
100885
100846
101038
100759
100682
100586
100524
100805
100700
100807
100852
100743
100873
100937
99610.7
99310.9
99431.1
99832
99710.2
99945.7
99956.7
99026.5
99170.4
98778.6
98877.8
100018
100229
99367.1
99253.3
99158
98469.2
98649.7
98859.7
99092.2
98997.3
98784.5
98012.6
97852
98154
98301.7
99589.1
99481.1
97530.8
97700.3
99861.3
99798.8
99709.1
100022
99989.7
99911.4
100459
100326
100234
100137
101133
101148
101179
101201
101202
101203
101181
101028
101077
101105
101086
101184
101024
100944
100901
100824
100742
100690
100645
100523
100862
100712
100835
100867
100791
100923
100958
99584.7
99362.2
99234.2
99472.5
99773.7
99895.3
99650.3
100033
100025
100016
99944
99025.8
99097
98610.2
98734.6
98898.4
99878.7
99367.9
99299.8
99197.7
98489.6
98633.3
98906.8
99071.8
98972.3
98764.6
98068
97925.7
97773.2
98222.3
98356.8
99597.6
99486.9
97528.3
97608.2
99847.9
99770.8
99696.4
100080
100009
99931
100454
100351
100262
100138
101173
101149
101195
101221
101246
101268
101259
101213
101030
101064
101150
101128
101223
101065
100987
100944
100860
100799
100754
100653
100578
100817
100750
100842
100895
100779
100929
100995
99536.6
99341
99212.7
99399.8
99788
99909.9
99658.1
100130
100211
100075
100002
98964.4
99085.1
98643.8
98807.2
99976.9
99416.9
99286.9
99185.7
98573.4
98430.2
98700
98879
99120.1
99011.1
98814.4
98051.7
97877.3
97771.5
98212.6
98292.1
99549.9
99649.4
99463.4
97447.2
97587.9
99879.3
99798.2
99738.1
100065
99982.4
100503
100411
100323
100239
100184
101247
101181
101240
101263
101291
101329
101305
101277
101066
101103
101170
101152
101263
101046
101124
100967
100845
100916
100767
100720
100635
100561
100832
100784
100864
100885
100819
100954
101003
99532.5
99276.8
99141.4
99414
99848.6
99731.1
99894.5
99991.2
99595.8
100168
100143
100279
100073
98980.2
98616.9
98798.3
99675.4
99413.4
99337
99225.9
98576.1
98444.9
98693
98913.6
99093.1
98982.7
98761.6
98135.5
97984.5
97909.7
97716.2
98313.9
99549.7
99633.4
99497.6
97343
97437.8
97643
97496.3
99887.5
99847.5
99731.1
100104
99998.4
100508
100412
100356
100272
100165
101243
101221
101171
101271
101326
101345
101373
101368
101309
101059
101100
101232
101211
101275
101084
101163
101045
100955
100879
100934
100830
100722
100667
100605
100800
100746
100871
100909
100803
100859
100979
100938
99487.9
99267.9
99121.5
99386.3
99860.1
99736.3
99954.4
100048
99595.2
100185
100198
100302
100133
98941.7
98460.5
98695.2
98533.5
98862.4
100086
99472.6
99391.6
99292.9
99225.4
98647.1
98521.5
98396.2
98895.5
99129.4
99028.1
98773.2
98130
97987.4
97837
97748.6
98265.8
99584.8
99671.9
97319.6
97609.5
97466.4
99946
99858.1
99778.3
100092
100049
100573
100452
100334
100256
100207
101331
101321
101202
101362
101388
101445
101452
101392
101419
101379
101073
101123
101247
101243
101338
101143
101221
101077
101015
100882
100980
100830
100775
100654
100615
100825
100650
100884
100907
100817
100863
101002
100955
99496.7
99325.2
99185.1
99057.6
99419.7
99807.4
99905.9
99704.8
99945.7
100027
100108
99652.6
99549.5
100193
100207
100230
100388
100194
98986.1
98676.2
98516.8
98829.2
100009
99507
99414.6
99316.8
99193.5
98662.4
98537.8
98419.3
98937
98838.2
99095.3
98998.7
98726.5
98060
98198.4
97927.3
97847.3
97663.8
98286.9
99571.1
99663.5
97379.6
97528.8
99954.4
99915.6
99832.4
99751.3
100143
100050
100570
100456
100355
100296
100196
101435
101403
101274
101293
101169
101368
101463
101503
101473
101449
101472
101388
101030
101092
101132
101313
101302
101352
101186
101261
101069
101143
100945
101008
100882
100757
100697
100659
100826
100763
100886
100935
100838
100867
100982
99293.1
99170.9
99050.3
99401.5
99809.9
99920.6
99737.8
100008
100076
100162
99630.6
99549.9
100211
100287
100285
100226
100250
98898.2
98316.2
98755.1
98592.6
98419.3
99791.8
100446
99481.3
99379.1
99280.4
99215.7
98608.7
98490.7
98393.5
98927.4
98811.6
99122.7
99040.6
98740.2
98064
98145.5
97945.4
97775.6
97675.8
98350.3
98246.6
99607.5
99706.5
97213.6
97369.8
97464.7
100009
99933.4
99853.8
99784.1
100131
100093
100610
100520
100441
100399
100289
100239
101615
101523
101345
101271
101200
101224
101420
101588
101532
101502
101483
101444
101030
101070
101109
101173
101346
101402
101242
101323
101125
101172
100948
101002
101089
100875
100786
100680
100861
100697
100907
100941
100831
100868
100992
99327.8
99228.1
99114.6
98987.7
99451.3
99852.2
99989.7
99906.5
99724.1
100060
100134
100225
99671.3
99523.8
100295
100333
100317
100323
100312
98905.2
98237.4
98752.2
98580.9
98411.4
100086
100741
99511.2
99402.5
99302.8
99182.6
98621.3
98512.9
98437.8
98889.9
98985.2
98839.8
99111.5
99089.2
98726.4
98022.6
98176.4
97866.2
97791.4
97645.1
98355.4
98282
99601.5
99703.8
97303.8
97493.8
100014
99984.9
99904.3
99833
99742.1
100177
100101
100611
100657
100522
100468
100381
100329
100229
101438
101643
101311
101654
101139
101295
101596
101663
101620
101580
101609
101491
101444
101022
101090
101174
101202
101410
101432
101289
101359
101170
101255
101001
101053
101112
100935
100837
100744
100815
100638
100783
100919
100888
100958
100853
100974
99301.2
99191.6
99116
98999.7
99430
99837.2
100032
99954.9
99775.3
100107
100170
100274
99669.1
99566
100308
100337
100385
100365
100342
98833.6
98057.3
98234.6
98665.1
98498.1
98329.7
100781
100230
99569.5
99496.6
99458.7
99358.3
99265.9
99217.6
98569.5
98677.4
98439.1
98894.8
98994.9
98776.5
99166.7
99096.1
98047.3
98139.4
97850.9
97698.6
97577.1
98398.7
98243.6
99660.5
97327.3
97220.5
97402.7
100065
100008
99921.9
99863.6
99758.1
100146
100569
100651
100691
100468
100418
100322
100268
101700
101464
101396
101065
101269
101091
101582
101788
101878
101677
101635
101675
101530
101489
101038
101143
101048
101123
101282
101454
101483
101349
101299
101427
101202
101058
101013
101176
100906
100989
100853
100764
100823
100720
100835
100921
100893
100958
100861
100990
99223.6
99334.8
99073
98934.1
99394.4
99488.9
99871.5
100027
100095
99936.3
99730.4
100222
100267
100341
99627.6
99541.5
100313
100389
100430
100401
100400
100403
98844.5
98005.6
98157.2
98663.8
98501.3
98341.1
99770.5
100284
99590.8
99545.3
99463.2
99373.3
99280.1
98567.2
98679.5
98506.3
98843.8
98948.5
99042.6
98782.4
99161.7
99081.7
98034.2
98175.1
97752.8
97911.4
97688.6
97551.2
98413.9
98237.7
99644
97202.9
97412.7
100066
99977.6
99911.9
99825.2
99726.5
100170
100569
100664
100738
100518
100417
100364
100240
101235
101501
102220
101155
101439
101261
101100
101835
101377
101378
101751
101757
101618
101605
101544
101021
101161
101051
101163
101245
101523
101547
101393
101346
101445
101226
101121
101073
101178
100935
101018
100818
100847
100865
100713
100823
100904
100938
100875
100977
99184.5
99286.4
99096.6
98943.2
99402.3
99467.6
99855
100067
100136
99989.1
99749
100229
100325
100402
99645
99582.8
100486
100469
100446
100457
98810.5
98069.8
98173.2
98585.7
98738.3
98429.3
98244.7
99386.7
100291
100364
99549
99511.7
99428.1
99338.6
99253.2
98619.5
98738.9
98505.7
98850.4
98952.9
99045.2
99203.6
99126.2
97981.5
98109.1
98167.8
97726.2
97852.9
97614.1
97490.2
98393.9
98268.8
99672.4
97116.5
97271.2
97359.1
100097
99992.2
99936.3
99839.2
99752.4
100148
100617
100719
100762
100519
100466
100364
100265
101466
102119
101270
101374
101784
101388
101372
101523
102049
102027
101684
101622
101885
101604
101029
101132
101086
101049
101277
101094
101549
101616
101402
101359
101503
101296
101118
101097
101234
100906
100990
101073
100843
100836
100789
100840
100911
100945
100878
100977
99219.1
99310.6
99062
98847.8
99003.8
99376.3
99505.2
99810.2
99910.5
100072
100116
100199
99966.1
100048
99699.2
100284
100388
100416
100464
99569.3
100506
100525
100492
100462
97897.3
98018.9
98588.8
98682.3
98440.6
98233.3
99979.4
100451
100361
99602.6
99528.2
99445.2
99359.8
99279
98610.9
98754.5
98555.4
98907.1
98816.4
99004
99094.5
99180.1
97979.4
98108
97797.6
97605.2
97876.5
97581.3
97527.1
98344.5
98441.3
98236.5
99649
97084.4
97237.7
97395.4
100095
100038
99942.2
99805.9
99890
99727
100191
100621
100727
100811
100571
100469
100412
100320
100238
102259
101356
101061
101211
101212
101163
102341
101524
102537
101692
101949
102172
101497
101557
101639
101871
101000
101190
101063
101070
101271
101487
101625
101665
101470
101451
101516
101307
101179
101155
101290
101228
100932
101019
101109
100818
100858
100748
100872
100892
100923
100934
100960
100984
99183.2
99278.5
99112.4
98845.3
98987.6
99416.5
99483.8
99814.9
99875.1
100138
100165
100223
100002
100079
99713.5
100309
100410
100489
100514
99611.9
100564
100586
100549
100475
97831.3
98066.3
98536.6
98707.4
98397.5
98167.3
98318
99907.5
100327
100438
99578.2
99497.8
99412
99334.1
99254.4
98667.1
98727.2
98554.4
98902.9
98837.9
99009.4
99121.3
99203.6
98042.1
97946.7
98171
97742.8
97611.8
97828.7
97468.1
98330.3
98505.1
98439
98270.6
99675.7
97180.4
97349.8
100152
100077
100003
99927.8
99825.6
99875.5
99752.1
100673
100784
100832
100575
100528
100413
100311
100258
101805
101999
100959
101541
101753
101344
101688
102293
102392
101281
101911
101324
101746
101930
101708
102363
101952
101001
101130
100947
101027
100973
101461
101704
101633
101509
101452
101569
101392
101194
101333
101273
100896
100987
101079
101168
100852
100850
100797
100885
100894
100918
100940
100963
100988
99210.9
99318
99058.8
98782.6
98923.2
99388.2
99513.6
99777.7
99904.6
100164
100265
99966.9
100061
100139
99677.1
100376
100308
100460
100499
100537
100559
99577.3
100616
100609
100624
100551
100597
97857.4
98007.9
98573.9
98656.2
98440.5
98185.2
98280.4
99606.7
100403
100374
100494
99605.3
99515.9
99425.5
99359.5
99284.4
98612.6
98755.8
98947.7
98818.4
99043.3
99114
99188.1
98027.8
97970.4
98151.5
97766
97600.2
97841.9
97436.2
98384.7
98528.6
98466.5
98276.1
99660.8
97105
97290.4
100177
100102
100024
99956.7
99799.1
99902.8
99741.8
100677
100778
100830
100626
100528
100478
100394
100346
100233
101119
101988
101084
101709
101546
101585
101264
101016
101573
101853
102557
101433
101448
102001
101878
101832
101921
101456
100992
101054
101065
101271
101061
101099
100880
101808
101711
101561
101516
101586
101392
101253
101326
100920
101015
101113
101206
100876
100873
100708
100886
100886
100902
100922
100934
100951
100992
99198.9
99253.4
99076.8
98775.9
98934.3
99413.8
99508.8
99804
99869.3
100221
100259
99997.9
100099
100172
99703.9
100407
100352
100484
100570
100589
100610
99618.6
100679
100690
100687
100583
100658
97744.3
97927.8
98051.6
98527.7
98684.2
98397.2
98141.7
98320.5
100094
100488
100375
100527
99591.8
99474.9
99557.8
99403.9
99334.1
99273.3
98627.3
98739.9
98926
98861.9
99033.4
99084.9
99169.6
99229.5
98074.9
97953.3
98214
97747.2
97650.1
97516.7
97823.2
97405.2
98325.4
98589.7
98490.6
99700.3
97315.6
97076.8
100151
100073
100005
99950.5
99821.2
99887.6
99770.2
100728
100838
100870
100634
100579
100475
100417
100313
100260
101638
101101
100997
101254
101342
101203
101587
101331
101932
102573
101627
102051
101553
101874
101724
101795
101667
101028
100990
100981
101381
101307
101568
101417
101890
101792
101665
101578
101509
101588
101437
101296
101378
100975
101077
101177
101272
100887
100876
100807
100905
100892
100901
100918
100940
100952
100974
99148
99266.4
99017.8
98823.5
98893.1
99475.3
99393.5
99572.1
99763.1
99893.1
100228
100304
99951.9
100058
100164
100091
99673.6
100458
100348
100544
100624
100626
100669
100742
100742
100745
100646
100561
100726
97720
97894.2
98035
98563.3
98650.8
98436.3
98192.3
98275.7
100166
100291
100353
100558
99636.5
99474.9
99562.4
99422.6
99358.2
99308.6
98690.1
98784.9
98966
98840
99080.9
99017.1
99167.3
99217.1
98063.1
97953.3
98224.9
97762.4
97624
97428.3
97910.1
97282.6
98343.4
98621.1
98570
98489.2
99685.4
97172.4
97064.1
100173
100087
100036
99986.5
99860.2
99921.3
99773.6
100738
100887
100802
100691
100572
100516
100390
100334
100227
101782
101571
101237
101329
101370
101424
101481
101871
101726
101376
101465
101537
101870
102029
101653
101852
102707
102801
102425
100981
100993
100991
101176
101044
100937
101131
101268
101202
102115
101941
101633
101550
101720
101440
101366
100999
101107
101211
101313
100887
100874
100832
100916
100895
100907
100921
100946
100934
100970
99125.7
99229.4
99342.7
99042.4
98784.3
98928.4
99502.1
99436.8
99596.2
99787
99850.5
100279
100320
99968.3
100081
100216
100152
99700.2
100479
100400
100576
100670
100688
100708
100794
100815
100812
100693
100645
100779
97789.6
97958.7
98120.5
98521.7
98699.3
98398.2
98309.1
99947.1
100369
100311
100494
100608
99611.9
99510.5
99547.6
99422
99398.6
99305.6
98666.8
98769.2
98934.2
98882.4
99116.7
99049.5
99207.8
99254
98004.5
98164.7
98273.1
97701.4
97586.8
97467.7
97951.7
97167.4
98433.4
98318.6
98579.6
98520.3
99716.1
97207.6
97120.3
96877
100165
100129
100028
99990
99864.3
99895
99966.4
99827.3
99758.4
100941
100819
100700
100612
100512
100418
100332
100245
101497
101437
101577
101185
101204
101239
101448
101676
102235
101933
102393
101992
101912
101840
101753
101919
102049
101397
101020
100965
100882
101160
101193
101027
101023
101143
100878
101822
101667
101647
101504
101610
101722
101668
101415
101069
101174
101285
101392
100893
100873
100803
100937
100890
100900
100907
100913
100943
100933
100950
99164.2
99254.9
99332.2
99010.7
98820
98891
99560.1
99434.7
99660.4
99756
99861
100275
100370
100047
99948.3
100134
100210
100455
100541
100635
100666
100728
100727
100768
100857
100801
100870
100865
100769
100665
100845
97746.6
97955.2
98146.1
98564.5
98656
98433.8
98245.2
99804.5
100382
100334
100509
100602
99636.9
99468.8
99566
99412.8
99343.4
98704
98815.2
98966.5
98867.3
99095.2
99022.8
99207.4
99249.3
97949.7
98120.7
98265.8
97840.7
97601.3
97680
97404.8
97952.4
97272
98390.7
98299.2
98644.3
98510.7
99683.4
97206.2
96997.5
97077.4
100195
100116
100069
100036
99906.6
99985.2
99820.4
99772.1
100958
100766
100873
100665
100612
100473
100564
100364
100296
101314
101292
101492
101106
101234
101253
101307
101285
101756
101555
101890
101593
102179
101442
102178
102414
101881
101580
101695
101896
101101
101026
101153
101061
101047
101108
101077
101301
101167
101081
102381
102017
101496
101671
101861
101740
101091
101198
101313
101432
100899
100877
100888
100957
100898
100914
100944
100924
100943
100973
99122.1
99227.7
99377.7
99049.7
98810.1
98935.9
99582.1
99490.7
99689
99793.2
99901.9
100317
100401
100064
100001
100173
100260
100489
100565
100664
100741
100785
100781
100908
100859
100939
100926
100807
100713
100900
97629.2
97797.7
97884.3
98059.8
98520
98694.6
98424.3
98271.2
99974.6
100372
100291
100553
100574
100688
99610.8
99478
99556.7
99454.8
99387
99332.3
98701.2
98800.3
98947
98904
99123
99053.2
99180.1
99256.9
99295
98131.1
97941.2
98238.7
97692.8
97606.3
97595.5
97418.7
97928.1
97309.5
97304.3
98433.9
98313.5
98638.2
98592.1
99701
96673.6
97191.5
100206
100141
100052
99911.6
99955.1
100024
99850.5
99769.3
101045
100927
100775
100876
100684
100648
100469
100554
100370
100268
101335
101284
101382
101538
101147
101192
101216
101236
101222
101595
101812
101445
101843
101571
102172
102078
101745
102395
101802
101698
101749
101765
101007
101019
101138
101169
100920
101153
101113
101106
101140
101102
102080
101929
101544
101795
101613
101669
101785
101160
101279
101393
101510
100903
100892
100960
100873
100881
100918
100909
100962
100920
100937
101004
99150.1
99268.1
99375.7
99003.4
98880.9
98764.2
99549.6
99649.2
99482
99760.2
99899.2
100376
100317
100466
100094
99966.2
100247
100172
100545
100629
100718
100796
100835
100828
100959
100907
100870
100996
100953
100962
100882
100791
100754
100965
97605.6
97696.7
97889.7
98076.4
98568.1
98643.5
98362
98506.3
98194.4
100243
100526
100584
100656
100736
99631.6
99525.8
99589.8
99469.6
99404
99362
98748.8
98840.9
98963.9
98897.4
99130.2
99023.2
99091.3
99201.7
99236.7
99293.5
98158.9
97846.7
98158.3
97686.7
97599.2
97524.5
97304.7
97829.1
97367.7
97269.4
98461.4
98387.3
98702.7
98566
99743.8
99669.3
96826.8
97564.1
96946.2
100187
100124
100095
99944.5
99892.5
100039
99809.1
101061
100962
100833
100735
100924
100666
100427
100512
100601
100362
100286
101317
101248
101341
101448
101090
101138
101176
101167
101558
101787
101848
101613
101618
101811
102525
102084
101838
101934
101908
101929
100976
100879
100982
100958
101123
101173
101104
100959
101131
101064
102199
101484
101648
101631
102081
101979
101187
101308
101427
101604
100902
100902
100841
100872
100880
100919
100909
100916
100935
100924
100998
99130.6
99248.1
99328.5
99433.4
99025.3
98900.5
98774.1
99583.6
99669
99535.6
99782.6
99879
100416
100367
100496
100086
100140
99989.8
100290
100239
100583
100638
100750
100851
100892
101009
100955
100928
101048
101042
101026
100932
100870
100787
101018
97530.7
97703.9
97962.4
97796.4
98022.4
98666
98363.3
98534.1
98217.4
100327
100560
100615
100712
100746
99513.6
99582.8
99472.8
99444.9
99369.4
98755.8
98855.1
98979.9
98938.3
99168.5
98997.8
99099.8
99266.8
99326.6
98090.1
98061.2
97918
98250.1
97878.2
97575.6
97466.9
97577.3
97783.1
97166
98436.9
98528.8
98285.5
98690.2
98674.1
98555.9
99761.4
99681.7
97040.3
97336.9
96955.2
100214
100158
100102
99965.4
99890.1
100018
100079
99816.8
101141
101025
100815
100719
100940
100651
100430
100503
100582
100332
100382
100256
101259
101180
101330
101348
101428
101059
101091
101134
101151
101468
101682
101809
101585
101537
101884
102231
102341
102134
101828
101690
101747
101870
102044
101026
101002
100911
100955
101021
101069
101045
101021
101033
101661
101851
101599
101861
102098
101819
101264
101374
101481
100903
100896
100788
100892
100887
100919
100907
100959
100968
100934
100948
99086.5
99189.7
99275.4
99338.2
99435.9
98964.4
98845.6
98734.3
99636.6
99726.4
99551.8
99838
99922.8
100470
100381
100563
100499
100134
100052
99970.4
100290
100346
100227
100684
100830
100736
100872
100901
100945
101006
101058
100968
101076
101092
101096
100984
100887
100848
101037
97524.3
97352.8
97614.3
97949.4
97794.1
98070
98623.7
98436.2
98290.1
98507.9
98150.3
100130
100625
100657
100723
100800
99544.9
99613.4
99511.9
99450.3
99413.5
98811.1
98887.8
98932.7
99184.8
99009.1
99094
99154.6
99238.7
99311.2
99339.8
98264.7
98054.7
97993.5
98148.7
97832.4
97669
97266.7
97578.4
97778.4
97233.4
98409.2
98561.8
98360.6
98752.6
98680.1
98517.1
99730
99799
99658.3
97157.4
96945.9
97054.6
96942.1
100193
100141
99949.9
99919.1
99857.7
100039
100098
101137
101048
100856
100757
100920
101001
100699
100470
100540
100608
100308
100385
100268
101221
101141
101259
101303
101365
101045
101024
101076
101088
101084
101462
101656
101556
102284
102059
102210
102221
101790
101715
101769
101723
101764
101078
100908
101057
101006
101139
101065
101138
100952
100984
100977
101014
102152
101689
101767
101929
102039
102082
101286
101456
101615
100901
100841
100902
100895
100904
100913
100905
100967
100941
100988
100923
100987
99086.9
99147.5
99278.4
99395.4
99494.1
98971.9
98845.1
98766.7
99660
99732.9
99617.3
99832
99880.7
100490
100449
100592
100547
100165
100062
99993.5
100327
100369
100272
100690
100833
100778
100932
100945
100999
101054
101106
101017
101133
101168
101160
101020
100989
100935
100849
101128
97443.4
97617.8
98021.6
97879.7
97708.4
98659.8
98419.4
98295.6
98567.9
98152
100448
100596
100752
100683
100784
100811
99597.7
99521.4
99488.1
99420
98788.8
98877
98903.1
98988.8
99097.7
99161.6
99244.9
99317.3
99390.1
98355.7
98043.1
98082.2
97984.7
98387.9
98144.6
97838.3
97729.4
97578.1
97136.4
97684.7
97715.8
97270.6
98473.8
98474.2
98795.8
98621.8
98806.5
98566.5
99740.8
99823.2
99677.5
97099.3
97096.9
96945.3
100211
100168
99985.2
99913.5
99858.4
100019
100077
100142
101099
101201
100835
100747
100958
101028
100672
100472
100507
100601
100334
100373
100438
100249
101169
101080
101245
101302
101354
101001
100993
101068
101006
101045
101059
101417
101557
101688
101516
102197
102048
102122
102270
101352
101682
101715
101722
101583
100796
101016
100880
100938
101037
101053
100832
100786
100925
100992
100970
102214
101677
101524
101612
101887
101732
101267
101329
101465
100904
100835
100911
100892
100899
100907
100903
100937
100918
100956
100919
100881
99043.4
99160.7
99350.4
99261.9
99407
99494
98950.5
98891.9
98731
99711.9
99790.4
99631.2
99884.9
100544
100466
100648
100570
100160
100119
99990.9
100348
100424
100330
100251
100747
100882
100797
100969
100955
100999
101023
101041
101109
101133
101155
101184
101229
101225
100958
100901
97455.1
97258.1
97539.7
98054.7
97881.4
97706.3
98637.5
98485.4
98367.5
98222.6
98551.4
100283
100652
100753
100716
100795
100857
99620.1
99562.1
99494.7
99460.5
98878.9
98971.1
98939.6
99056.7
99138.3
99208.9
99277.3
99319.4
99373.2
99399
98189.5
98095.2
97885.2
97953.3
98181
98266.9
97813
97665.3
97539.8
97379.7
97544.5
97766
98452.5
98452.7
98813.9
98535.4
98702.1
98621.3
99713.1
99776.4
99810.8
99657.6
97180.5
97096.7
96946.4
100203
99970.7
99946.6
99883.1
100043
100096
100158
101132
101171
100783
100867
100938
100992
101098
100675
100517
100561
100633
100304
100393
100433
100269
101277
100983
100965
100999
100958
101006
101383
101501
101571
101435
102037
102178
102116
102159
101807
101595
101695
101523
100934
101106
101000
101062
101035
101028
100985
100930
100783
100962
102197
101531
101756
101616
101963
101973
101372
101423
101477
100873
100912
100888
100901
100909
100904
100990
100922
100934
100949
100911
100941
99058
99215.4
99106.8
99348.4
99283.1
99451.8
99545.9
98993
98877.9
98756.9
99732.1
99787.4
99695.4
99595.3
99831.6
99922.4
100579
100512
100635
100197
100104
99971.5
100052
100413
100368
100287
100732
100841
100940
101021
101026
101093
101105
101142
101190
101217
100902
97361.8
97548.1
98048.4
97959.4
97792.3
97641.2
98684.3
98467.2
98378.3
98225.4
98607.7
100554
100635
100812
100760
100786
100857
99616.9
99559.6
99533.4
99466.1
98840
98940.9
98981.3
99104
99130.7
99206.2
99287.5
99346.6
99387.5
99434.9
97980.9
98297.5
97956.9
98016.7
98486.8
98403.3
97796.4
97692.7
97478.1
97614.8
97430.6
97743.2
98340.2
98826.6
98538.4
98771.4
98557.4
99725.7
99784.2
99837.2
99671.8
97200.2
97094.4
96947.1
100229
99990.2
99928.7
99893.2
100079
100025
100130
100196
101177
100792
100831
100953
101008
101107
100709
100476
100569
100648
100311
100393
101298
100943
100933
100947
100926
101379
101513
101434
101561
101406
102560
102226
102242
102015
101906
101641
101526
100982
100916
100949
100940
101009
100995
100954
101085
100759
100940
102062
102014
101871
101373
101912
102203
102065
102013
101419
101393
100878
100930
100891
100904
100895
100904
100900
100921
100919
100932
100987
100906
100990
99171.2
99110.6
99393.6
99279.1
99459.1
99518.3
98991.8
98934.1
98817.9
99739
99707.7
99612.1
99800.3
99891.1
100563
100652
100519
100672
100202
100136
99991.8
100044
100458
100425
100340
100256
100772
100861
100992
101064
101077
101055
101133
101113
101203
101231
101278
97349.5
97221.8
97490.5
98125.9
97927.2
97769.6
97667.8
98682.3
98510.8
98354.8
98294
98577.4
100487
100665
100653
100755
100815
100887
99648.8
99585.5
99538.2
99515.1
98826.3
98918.3