/*--------------------------------*- C++ -*----------------------------------*\
| =========                 |                                                 |
| \\      /  F ield         | OpenFOAM: The Open Source CFD Toolbox           |
|  \\    /   O peration     | Version:  v2012                                 |
|   \\  /    A nd           | Website:  www.openfoam.com                      |
|    \\/     M anipulation  |                                                 |
\*---------------------------------------------------------------------------*/
FoamFile
{
    version     2.0;
    format      ascii;
    class       surfaceScalarField;
    location    "0.6";
    object      phi;
}
// * * * * * * * * * * * * * * * * * * * * * * * * * * * * * * * * * * * * * //

dimensions      [0 3 -1 0 0 0 0];
oriented        oriented;


internalField   nonuniform List<scalar> 
21399
(
0.181843
0.605272
-0.593432
0.775275
0.614289
-0.0839031
0.573975
0.14034
0.654065
0.467514
0.307761
0.1226
0.491689
0.502816
0.714316
0.180855
0.47321
0.590114
-0.504177
0.811938
0.502027
-0.0119613
0.514777
0.210139
-0.368571
0.549426
0.683349
0.220416
0.369698
0.336831
0.475107
0.722443
0.373218
-0.109838
0.361257
0.146207
0.098069
0.451357
-0.0596972
0.743046
0.706529
-0.141284
0.616391
0.730217
0.22037
0.290226
0.0710306
0.436433
-0.328089
0.426158
0.39166
0.601762
0.0591194
0.647409
0.675511
0.464675
0.265542
0.351531
-0.131161
-0.342543
0.413573
0.108344
0.20032
0.225838
0.59198
-0.112929
0.714691
0.303607
0.343802
0.341996
0.333515
0.474079
0.56915
0.00898843
0.189711
0.271115
0.142458
0.379459
0.333154
-0.107316
0.521435
0.0705451
0.408505
0.356267
0.358424
0.685797
0.689782
-0.111369
0.585448
0.45778
-0.317015
0.326003
-0.127304
0.302239
-0.159781
0.369495
0.00996406
0.251511
0.320191
0.012963
0.262179
0.390736
0.455427
-0.0469216
-0.333553
0.691977
0.270959
0.414839
0.392027
0.297756
0.594899
0.728739
0.372518
-0.0465152
0.124207
0.280184
0.0220553
0.212737
0.290148
-0.291417
0.30438
-0.0292372
0.423759
-0.0330225
0.121874
0.376837
0.411023
0.280954
0.806865
0.708779
-0.273177
0.868076
0.455562
-0.354368
0.307853
-0.155835
0.280042
-0.235807
0.257862
-0.0230698
0.270181
0.0199673
0.0942473
0.327409
-0.0230294
0.240943
0.294386
-0.268949
0.390823
0.107888
-0.197673
0.478627
0.262848
0.544017
0.683228
0.0255514
0.632168
0.235908
0.71841
-0.0743263
0.300657
0.00719612
0.286107
-0.0282456
0.277587
0.306075
-0.148809
0.243057
0.122274
-0.334203
0.311173
-0.0932593
-0.0293055
0.323692
0.528392
-0.137569
-0.272382
0.380269
0.330719
0.444401
0.0342264
-0.0631308
0.607148
0.620097
0.469952
0.641556
-0.331217
0.567126
0.387193
0.16873
0.253927
-0.24673
-0.210637
0.182392
0.06695
0.212815
0.2707
-0.148426
0.27223
0.0389433
0.242924
0.0513104
0.2427
0.353138
-0.0224196
0.387365
0.104895
0.502253
0.520439
0.0996585
-0.0987891
0.568741
0.625438
0.0161182
0.681208
-0.114083
0.492088
0.326208
-0.157478
0.258308
-0.00438121
0.079478
0.300216
-0.117825
-0.167279
0.234229
0.278403
-0.0655879
0.113222
0.101191
-0.230532
0.269475
0.203087
0.0398373
0.254398
0.407446
-0.164745
-0.283278
0.260859
0.403054
-0.0156895
0.0691533
0.4331
0.589592
-0.379057
0.478716
0.304265
0.189684
0.634098
0.697327
0.378005
0.0910284
-0.200855
0.196474
0.256359
-0.176881
0.269114
0.0311028
0.116405
0.0478716
0.203526
0.274245
-0.161023
0.252344
-0.151153
0.20133
0.068145
0.241167
0.394332
-0.139934
0.124167
0.229586
0.392877
-0.132018
0.377187
0.811105
0.675187
-0.0855949
0.623998
-0.145282
0.347659
-0.0433938
0.445843
-0.256159
0.0469632
0.587135
0.571931
0.125396
-0.185505
0.276533
0.0555042
0.0109686
0.0973639
0.217159
-0.186056
-0.10517
0.221575
-0.224854
0.272726
-0.0213288
0.091321
0.0693988
-0.197077
0.265222
0.101233
0.303538
-0.179371
0.344715
-0.115129
0.171521
0.268999
0.108188
0.435689
0.375416
0.23738
0.437807
0.538403
0.300561
0.0914999
0.225605
0.618894
0.595493
0.561085
0.171364
0.187029
-0.131525
-0.183377
0.194346
0.268167
-0.170803
0.219238
-0.00207899
0.0355185
0.0756491
0.197909
0.241014
-0.149693
0.245463
0.20705
0.058172
0.308283
0.165344
-0.27854
0.16341
0.354899
-0.183378
-0.171503
0.279691
0.612796
0.629248
-0.191441
0.562142
-0.0237389
0.49422
-0.19366
-0.255179
0.346679
-0.0295739
0.564937
0.0539568
-0.0685876
0.664081
0.0175564
0.543528
0.174167
-0.00280366
0.00365204
0.136642
-0.0427891
0.237135
0.0702114
-0.187503
0.185424
0.209686
0.261697
-0.186047
0.229182
-0.0312728
0.0957698
-0.153113
0.211285
0.0297438
0.322081
-0.156737
0.297944
-0.134533
0.294765
0.0601341
0.138703
0.123261
0.250118
0.630352
0.57047
0.0587785
0.3707
-0.369186
0.345447
0.125035
-0.431973
0.238314
-0.0852949
0.49635
0.597485
0.671479
-0.195695
0.192891
-0.178575
0.182227
-0.0419337
-0.192598
0.149809
0.0414405
0.250851
-0.18064
0.0221827
0.196089
-0.0106651
0.108583
0.0431343
0.164816
0.178325
-0.082555
0.251408
-0.0401228
0.281152
0.141207
0.146618
0.258503
-0.198369
0.304782
-0.166079
-0.171415
0.294676
0.310046
-0.0599283
0.0366792
0.593673
0.607149
-0.460699
0.519477
-0.0899986
0.47471
-0.129263
0.409696
-0.284661
0.364302
-0.125988
0.224751
-0.374766
0.871115
0.22272
-0.166497
0.837976
0.169563
0.0233281
-0.0103709
-0.205634
0.1637
0.171747
-0.0219375
0.213187
0.0452171
-0.0023149
0.191745
-0.184571
0.173906
0.209133
-0.10055
-0.159249
0.202383
0.00556736
-0.216545
0.13399
-0.0126286
0.16901
0.272541
-0.131334
0.272948
-0.126329
0.0870886
0.106413
0.106462
0.23353
0.0611462
0.173602
0.816392
-0.113113
0.720261
0.623904
-0.104426
0.384712
0.280433
0.0796403
-0.372483
0.246496
-0.147732
0.704619
0.629545
0.208431
-0.157293
0.180621
-0.194199
0.183829
-0.0304991
-0.150001
0.128063
0.0558938
-0.115304
0.160521
-0.140635
0.13832
0.0071746
0.174034
-0.000128622
-0.211936
0.111386
-0.00955216
0.179602
-0.00664465
0.164746
-0.107384
0.276394
0.141614
-0.183379
0.0570498
0.258161
-0.171073
0.264348
-0.157935
0.267763
-0.161301
-0.171255
0.232401
0.292977
-0.119375
-0.0116453
0.828038
0.510791
0.708616
-0.49684
0.392413
-0.112128
0.453392
-0.17296
-0.291388
0.371028
-0.0448921
0.145245
0.487605
0.217013
0.636195
0.696036
0.17331
0.00731153
0.0338277
-0.149373
0.118874
0.202199
-0.0741359
-0.129843
0.185736
-0.238881
0.123578
0.0111471
-0.100562
0.180485
-0.171189
0.171061
0.252699
-0.141313
-0.17405
0.164498
0.00555198
-0.175257
0.168612
-0.0105111
0.145315
0.0930153
0.200312
-0.0586981
-0.157526
0.214576
0.0869065
0.0932752
0.109828
0.0390106
0.113026
0.378466
0.449572
0.73625
-0.225459
0.551118
0.157498
0.560583
-0.16817
0.341264
-0.331593
0.158633
0.0394354
0.196068
-0.24096
0.318458
-0.173213
0.595479
0.15034
0.485855
0.518246
0.17779
-0.13499
0.142301
0.1646
-0.130772
0.205445
-0.0865709
0.0723567
0.0904639
0.0507468
0.154213
-0.0306355
0.165361
0.0680506
0.00929534
0.162184
0.00887619
0.0231847
0.167736
-0.15068
0.140169
0.25807
-0.112755
-0.0645111
-0.23345
0.174752
-0.0188738
0.240993
-0.154087
0.232811
-0.139536
0.243494
-0.133666
-0.116748
0.155759
0.280585
-0.16756
-0.11092
0.560491
0.40761
0.328641
0.335124
0.440198
0.565108
-0.4509
0.282731
-0.109636
-0.211219
0.369852
0.267252
-0.227817
0.337393
-0.141325
0.0774975
0.107372
0.547353
0.0481264
0.668586
0.491923
0.725143
-0.0016699
0.63546
0.0203081
0.621787
0.183261
-0.0409604
0.0746733
0.0787897
-0.107864
0.180221
0.183844
-0.0933796
0.169077
-0.11833
-0.151569
0.120934
0.194993
-0.126942
0.192557
-0.15258
0.161456
-0.165039
0.188224
0.00269692
0.172315
-0.032146
0.193559
-0.186795
0.0740402
0.0580038
-0.152733
0.133859
0.0734337
0.0787246
0.103958
-0.225531
0.091865
-0.0697722
0.608618
0.641743
-0.313102
0.532906
-0.197781
-0.294585
0.734783
0.270523
0.524935
-0.242204
-0.373156
0.26352
0.0560333
-0.00330385
0.109576
-0.249699
0.108374
-0.172201
0.272881
-0.165509
0.113446
0.55514
0.605369
0.722728
0.00241528
0.644371
0.0647858
0.570674
0.531601
0.642893
0.631389
0.128116
0.186955
-0.112282
0.178089
-0.0992995
0.075979
0.0618913
0.0935752
0.0434234
0.185411
-0.0644771
0.0453723
0.039977
0.15632
0.00513555
0.00142867
0.159017
-0.138961
0.106815
0.040826
-0.107163
0.181203
0.166452
-0.108448
0.210991
-0.0771324
0.274159
-0.200725
0.19488
-0.116156
0.217927
-0.113969
0.229888
-0.138023
0.0966796
-0.119637
0.728255
0.343277
0.298465
0.219804
0.327154
0.615145
0.613801
-0.34555
0.103345
-0.0820298
0.24458
-0.188546
-0.282208
0.278904
0.296962
-0.187386
0.278698
-0.170324
0.100679
0.10865
-0.10775
0.66289
0.610482
0.614978
0.73067
0.00548257
0.638889
-0.445132
0.509918
0.0234373
0.547237
0.0864689
0.648375
0.000588808
0.6308
0.194387
-0.0662704
0.0658076
0.0861115
-0.114554
0.190533
-0.109349
0.17124
0.137719
-0.0441438
0.178119
-0.134696
0.113642
-0.142321
0.187693
-0.129447
0.169424
-0.119341
0.124477
-0.177172
0.178601
-0.0181549
-0.0100806
-0.0355057
0.166962
-0.126136
0.0714383
0.234396
-0.0531928
0.102543
0.0898293
-0.005845
0.101771
0.115919
-0.169369
0.0313461
-0.0726898
0.519081
-0.220616
0.426931
-0.207127
0.482963
-0.15581
0.716798
-0.101652
-0.0889012
0.702702
0.386813
-0.283468
-0.322387
0.240358
-0.0376279
0.108416
-0.0434836
0.0913119
-0.251745
0.0814216
-0.151066
0.236944
-0.128294
0.133898
0.528992
0.74438
-0.0624676
0.677445
0.570323
0.160347
0.662326
0.483242
0.0266759
-0.183198
0.730435
0.309361
0.0125448
0.39583
0.290739
-0.00081418
0.648964
0.640758
0.0649395
-0.137875
0.0716043
-0.0822283
0.148036
0.176608
-0.0904967
0.023165
0.081184
0.0333658
-0.15571
0.111566
0.0529977
0.142667
-0.029025
0.0500828
0.180642
-0.0561649
0.162487
0.127137
0.117057
-0.126068
0.0905619
0.10826
0.157992
-0.0865542
0.1048
0.178171
-0.0756276
0.182246
-0.0924162
-0.187201
0.181356
-0.08543
0.198392
-0.0824734
-0.166932
0.198278
0.105481
0.43018
-0.46706
0.246444
-0.0401292
0.275837
-0.43644
0.28063
0.453536
0.263262
0.60105
-0.0496265
-0.0431103
-0.287178
0.24955
-0.178762
-0.291093
0.247609
0.268938
-0.177626
0.242742
-0.16132
0.0858781
-0.282609
0.154315
-0.0190822
0.548074
0.110118
0.634261
0.507856
0.658363
0.613883
-0.0528447
0.71517
0.300044
-0.407254
0.43393
0.280547
0.449888
0.303284
-0.0114243
0.281943
0.59612
-0.0866767
0.727435
0.184622
-0.119682
0.155958
-0.0843535
0.0943798
-0.00767381
0.0521703
-0.117795
0.14096
0.173633
-0.0924492
0.109334
-0.0759685
-0.00622902
-0.125794
0.178792
-0.15534
0.126315
0.142759
-0.0926767
0.0865946
0.159324
0.00316301
-0.00901083
0.176476
-0.0859137
0.192633
-0.0843733
0.0727697
0.199084
-0.0942846
0.106618
0.100217
-0.101253
0.112962
-0.174802
0.0923287
-0.0614507
0.0234759
0.713115
-0.282935
0.58981
-0.343366
-0.399276
0.359146
-0.123439
0.450872
-0.170242
-0.452339
0.715601
0.148711
-0.391947
0.34232
-0.297841
0.25473
-0.0415431
0.0901754
-0.0502311
0.0651162
-0.230395
0.069075
-0.144517
0.19597
-0.0416544
0.658193
0.638684
-0.244436
0.752292
0.0331409
0.625222
0.369446
0.391909
0.323261
-0.248458
0.548502
0.185472
-0.382846
0.663393
0.841797
0.329664
-0.0263796
0.318239
0.291503
-0.00956052
0.509443
0.736752
0.0919449
0.0362757
0.0249808
0.133087
-0.0387074
0.125413
-0.107766
0.159936
0.153055
-0.0120948
0.0976647
0.0606055
-0.134653
0.128424
0.0506812
0.0234516
0.0185493
0.178159
-0.0915647
-0.139235
0.142398
0.143531
-0.0469276
0.134521
0.048607
0.114711
0.16829
-0.0955204
0.0740056
0.176097
-0.0694786
0.191931
-0.0917141
-0.220406
0.119153
-0.107443
0.19852
-0.106192
0.114646
0.162057
-0.138582
0.478192
0.234923
0.306875
0.0157803
0.327433
-0.313732
0.14349
0.471654
0.243947
0.626903
-0.137217
0.0285881
0.231309
-0.272853
0.288172
-0.197997
-0.281094
0.230863
0.250359
-0.185243
0.220455
-0.15138
0.0514527
0.129303
-0.170957
0.0473507
0.610842
0.0256736
0.61301
0.785433
0.672573
0.8411
0.832704
0.165656
-0.241352
0.426824
0.684058
-0.0206655
0.402863
0.438934
0.265124
0.413098
-0.0948584
0.265293
0.0280189
0.255733
0.515775
0.220977
0.138558
-0.0466126
0.154731
-0.118456
-0.102117
0.127098
-0.136429
0.0977217
-0.00923919
0.0235073
-0.13366
0.121565
-0.00445255
-0.12117
0.181776
-0.00523619
0.159437
-0.108756
-0.127817
0.151268
-0.120186
0.138736
0.038924
0.0469928
0.0468779
0.083572
0.149177
-0.10057
0.15983
-0.0451194
0.172697
-0.0986912
0.122452
0.0681163
0.242016
-0.122863
0.0910773
0.0558657
0.173427
-0.0587807
0.034845
0.603238
-0.368315
0.581081
-0.274206
-0.421044
0.436824
-0.0936112
0.330478
-0.186988
-0.536409
0.780356
0.0904942
-0.269464
0.132248
0.304621
-0.276033
-0.0497847
0.0153195
0.0523624
-0.0386012
0.0352121
-0.218107
0.066727
-0.166654
-0.0373517
0.0710584
0.636516
0.616661
0.461791
0.323642
0.0814863
0.591087
0.663314
0.177786
0.391459
0.441246
-0.33065
0.496306
0.171746
0.0961741
0.334631
0.349427
-0.335779
0.315114
0.794322
0.773565
0.317079
-0.0519552
0.22222
0.266744
0.26825
-0.0125173
0.52621
0.662223
-0.161201
0.114589
-0.00646988
0.00864241
0.154429
-0.056707
0.145189
-0.128566
0.152073
0.000394681
-0.114121
0.109669
0.0676543
-0.122693
0.117456
0.0316202
0.0404216
0.031082
0.0101697
0.144266
-0.105342
-0.112257
0.159249
0.169336
-0.122458
0.156914
-0.0733419
0.0563435
-0.132879
0.0877592
0.0398181
0.0706447
0.162119
-0.0396661
0.161907
-0.0937911
-0.22282
0.0999574
-0.131743
0.173332
-0.117466
0.103338
0.175931
-0.141086
0.441374
0.161863
0.212766
-0.552899
0.278693
-0.116075
-0.422085
0.328474
-0.0916072
0.117634
0.443976
0.33638
0.531869
0.317322
-0.185075
-0.275751
-0.000281659
0.208022
-0.257806
0.199371
-0.184051
0.298203
-0.245841
0.241412
-0.280014
0.218803
-0.183591
0.18344
-0.116713
-0.189561
0.152209
-0.118503
0.00948683
0.627029
0.0262447
0.590416
0.543278
-0.252927
0.576568
0.600573
0.410388
0.621762
0.160527
0.359182
-0.187436
-0.232847
0.329021
-0.238732
0.588159
0.472953
-0.157839
0.521906
0.272416
0.584037
0.189528
0.216295
0.340809
-0.118588
0.200778
0.065966
0.188261
-0.157263
0.683473
0.50496
0.00233201
0.13114
-0.13761
-0.124925
0.133568
0.0953664
0.0224969
-0.129047
0.129442
-0.0152565
0.123421
-0.0557662
-0.011591
0.163711
-0.13209
0.120511
-0.0800897
-0.11482
0.145902
-0.103475
0.113645
0.0218084
0.053907
0.0654603
0.155683
-0.0993398
0.134279
-0.0465199
0.147653
-0.107835
0.129868
-0.0592229
-0.136009
0.096343
0.0258983
0.0404879
0.19666
-0.0967026
0.0415891
0.0584646
-0.0377481
-0.474998
0.636861
0.502492
-0.289726
0.522132
-0.24344
-0.522905
0.40683
-0.194431
-0.289539
0.197931
-0.171905
0.692447
-0.356067
-0.207331
0.7392
0.041571
0.0563376
-0.246644
0.246362
-0.0719919
-0.0584355
0.114152
-0.0270378
-0.000150894
-0.220778
0.104065
-0.0685688
0.0781574
0.653274
0.593325
-0.0816558
0.624933
0.494912
-0.0332028
0.633776
-0.327932
0.738319
0.29383
0.369953
-0.209426
0.126335
0.153372
0.405564
-0.0765434
0.23422
0.285497
0.302662
0.212115
-0.0886468
0.610552
0.777376
0.495391
0.475025
0.258263
-0.0419676
0.139674
0.302436
-0.172856
0.238822
0.271207
-0.0829462
0.692434
-0.145695
0.148027
-0.0145547
-0.0040425
0.166027
-0.0706611
-0.108385
0.130882
0.157111
-0.0276688
0.108164
0.101345
-0.101907
0.0903164
0.0488906
-0.0115791
0.0755935
0.0424268
0.156396
-0.0427507
-0.111825
0.133633
0.112672
-0.0587647
0.139072
-0.0736117
0.0397322
0.101133
0.0220329
-0.157366
0.0981432
0.145278
-0.0489352
0.145413
-0.119515
-0.0991563
0.139644
0.110426
-0.207129
0.160663
-0.119074
0.165337
-0.106872
0.10753
0.0274941
0.42953
0.232407
-0.430011
0.186571
-0.0231805
-0.429893
0.235463
-0.231962
-0.287889
0.115984
0.377722
0.314725
0.383133
-0.205073
0.259385
-0.203047
-0.0415267
-0.249733
0.177741
-0.216258
0.157822
-0.102106
-0.166515
0.139477
-0.195096
0.194945
-0.0910314
0.0942369
-0.162806
0.179001
-0.100843
0.0999361
0.553338
0.0629572
0.530368
0.591731
-0.18645
0.681363
0.733712
0.551869
0.671552
0.196138
0.32849
-0.202155
0.322549
-0.169177
0.251947
0.455413
-0.221193
-0.0636173
0.366279
0.417724
-0.205609
0.351226
0.259326
0.312369
0.465007
0.490183
0.00520753
-0.0305407
0.505566
0.229239
0.329319
-0.189645
0.129581
0.155875
0.0832418
0.609193
0.126952
0.0210753
0.0975066
-0.112061
-0.142378
0.138336
0.0576427
0.0857344
0.0289742
-0.145638
0.117969
-0.0342142
0.140302
-0.0389575
-0.0553217
0.136571
-0.0876801
-0.113342
0.101762
-0.037748
0.136948
-0.0945212
0.0941974
0.000846977
-0.0237329
0.0681872
0.039975
0.138882
-0.09915
0.00197673
-0.131209
0.153242
-0.0330655
0.0964782
0.0201291
0.181268
-0.0708422
-0.0464661
0.0462633
-0.167546
0.0606735
-0.0600157
-0.528148
0.555642
-0.179516
0.609046
-0.295741
0.493016
-0.306445
0.385436
-0.408616
0.472892
-0.23743
-0.328692
0.09673
-0.212709
0.702031
-0.387306
-0.266484
0.649616
0.0543122
-0.290813
0.0877661
0.248012
-0.289538
-0.0919103
-0.113073
0.149622
-0.251727
0.0284303
0.227544
-0.0880663
-0.194198
0.103166
-0.0999607
0.0161952
0.0804249
0.616295
0.533013
-0.165906
0.757636
0.515457
0.425123
0.308589
-0.0440371
0.595906
0.050204
0.621348
0.358678
-0.16254
0.120394
0.160142
0.301807
-0.0498599
0.381231
0.0741822
0.196531
0.317614
0.335739
0.153069
0.663596
0.749509
0.548248
0.510773
0.0395946
0.266919
-0.137338
-0.126053
0.281929
0.619127
0.118879
-0.0978041
0.157017
-0.0595106
0.0262744
0.13749
-0.079847
0.137556
-0.0518219
0.111472
-0.0824976
0.13682
-0.0188505
0.106088
0.0978622
0.0561501
0.0420495
-0.149645
0.0619651
-0.0478828
-0.119445
0.0816968
0.145429
-0.051232
-0.108472
0.109319
-0.132616
0.108883
-0.0402845
0.0824798
0.0133655
0.122455
0.0194375
0.0233048
-0.125393
0.12737
0.0278487
-0.129515
0.0964493
0.143661
-0.0471824
-0.110856
0.130985
0.0961822
-0.167024
-0.178563
0.132097
-0.1323
0.132414
-0.0717409
0.0836449
0.599965
-0.0443233
0.420449
0.342562
0.197275
0.0789907
0.064276
0.103169
-0.340599
0.343325
-0.246595
0.0353031
0.752235
0.262311
0.275038
-0.220726
0.214334
-0.126568
-0.0145005
-0.238265
0.146355
-0.254892
0.141819
-0.0886433
-0.0241839
0.200261
-0.171831
0.112195
0.229235
-0.126069
-0.142419
0.0424583
-0.126224
0.14852
-0.0680948
0.146655
0.46964
-0.0307173
0.56373
0.341885
0.415752
-0.103108
0.618565
0.571778
0.650474
0.577311
0.492798
0.139267
0.307693
-0.187299
0.283965
-0.123823
-0.292313
0.242453
-0.300045
0.374227
0.301185
-0.104655
-0.0220487
0.339663
-0.0869234
0.422662
0.304765
-0.151696
0.103464
0.560132
0.267312
0.482198
0.651712
-0.150923
0.661696
-0.180038
0.219633
0.277881
0.140866
0.140543
0.101891
-0.138937
0.758064
0.0785949
0.0592131
-0.113294
0.0537834
-0.0870196
0.0549922
0.0577094
0.0936075
0.110725
-0.129576
0.149171
-0.043083
0.139502
-0.04164
0.111884
-0.0557344
-0.0685544
0.110604
0.133834
-0.0718692
-0.128067
0.0801844
-0.0463703
-0.129578
0.0783464
-0.0232974
-0.0206317
0.126331
0.137149
-0.117711
-0.0761811
0.0994859
0.0165141
0.131124
-0.103275
0.152663
-0.0562142
-0.140997
0.0938144
-0.0100121
0.169429
-0.073247
-0.0349271
0.000114243
-0.14117
0.0694291
-0.0575251
0.381609
-0.425932
0.593805
-0.173356
-0.212259
0.554822
0.661353
-0.464078
0.397071
-0.318081
0.453808
-0.389532
0.367494
-0.264325
0.00272663
-0.330073
0.0834774
-0.29477
0.492304
0.259931
-0.442302
0.704613
-0.00639179
-0.245986
0.119419
0.231735
-0.246235
-0.108537
-0.104167
-0.215647
0.127004
-0.184898
0.160714
0.0574038
-0.0727027
-0.189763
0.0636945
-0.147305
0.0222959
0.101334
0.438922
0.566404
-0.318936
0.734688
0.299629
0.207079
0.364699
0.273964
0.376509
-0.0203325
0.597643
0.504376
-0.0115777
-0.204228
0.343495
0.0153797
0.0966665
-0.284931
0.161108
0.0382253
0.00114047
0.254789
0.119438
-0.30816
0.203505
0.23274
0.252739
0.271739
-0.00339517
0.191799
-0.00841142
0.568543
-0.333474
0.600785
0.473786
0.512775
0.328222
-0.0652983
0.263202
-0.122337
0.243112
-0.102569
0.232583
-0.130692
0.407718
0.350346
0.131621
-0.0530256
0.142299
-0.0830859
0.131573
-0.0777897
0.0621514
0.133548
-0.0785561
0.118544
-0.060835
0.10384
-0.0102325
0.105253
0.00547243
-0.0176914
0.0964192
0.063613
0.0778139
0.0652798
-0.0189745
-0.136302
0.0644331
-0.0561179
0.0907785
0.123778
-0.0454313
0.108323
-0.116915
0.096283
0.0501495
-0.0182255
-0.103966
0.12048
0.0271585
0.0493881
-0.115311
0.0590973
0.13806
-0.0442455
-0.117565
0.107553
0.0710291
-0.144276
0.089321
-0.124248
-0.122567
0.122681
-0.0531381
0.0805349
0.559667
-0.178058
0.235421
0.381546
0.386311
0.11252
-0.0670068
0.135727
-0.0220378
-0.230532
-0.0337925
-0.227805
0.314323
-0.230846
-0.063035
0.471971
0.598908
-0.338977
0.756854
-0.0522414
-0.23459
0.228198
-0.115172
-0.0180368
-0.259449
0.150912
-0.223844
0.119676
-0.0549333
-0.132445
-0.145771
0.203175
-0.18129
0.108587
0.208278
-0.144583
-0.137408
-0.00989676
-0.115112
-0.0137777
0.646001
-0.252469
0.818874
0.195266
0.539422
0.804005
0.638664
0.571775
0.586066
0.234219
-0.218839
0.220721
-0.124054
0.254578
-0.0934699
-0.254706
0.292932
-0.251159
0.252299
0.267921
-0.148483
-0.0476537
-0.0657626
0.298503
-0.0879091
0.340648
-0.248406
0.520145
-0.257161
0.253766
-0.0653625
0.0779734
0.49057
0.111681
0.489104
0.585468
0.590748
-0.255168
0.58339
0.167285
0.245228
-0.0976337
0.13251
0.120775
0.142659
0.416516
-0.335693
0.686039
0.0892734
0.0484873
-0.122787
0.0449972
-0.0606355
0.0399883
0.0430049
-0.10684
0.0966074
-0.0935828
0.0990552
-0.0854454
0.0677539
0.100747
-0.00432801
-0.0756924
0.139305
-0.00763146
0.107736
-0.0424562
0.0887615
0.148509
-0.0840758
-0.101497
0.0453793
-0.0107187
0.0169379
-0.109253
0.0638212
-0.00859159
-0.0190284
0.10688
0.0989158
-0.0487664
0.0806903
0.00291461
0.117387
-0.090228
0.135579
-0.086191
0.130612
-0.0715144
-0.114014
0.0697682
-0.0064609
-0.0575545
0.128584
-0.054955
-0.183187
0.0589393
-0.060506
-0.142707
0.0895685
-0.0621717
-0.491675
0.313617
-0.256255
0.484287
-0.102742
0.643005
-0.256694
0.596807
-0.427538
0.360531
-0.291811
0.310437
-0.332475
0.261346
-0.295139
0.0865175
0.122605
-0.35345
0.207055
-0.27009
-0.127158
0.59913
0.47175
0.417877
-0.492906
0.440665
-0.222234
0.107062
0.177361
-0.195398
-0.0729315
-0.102557
-0.218479
0.163546
-0.155461
0.0230156
0.0625062
0.0218854
-0.109892
0.0144055
-0.158988
0.126169
-0.136066
-0.134538
0.12076
0.393532
0.600727
0.218147
0.122722
0.4167
0.509441
0.294564
0.306197
0.332467
0.259956
0.31182
-0.103346
0.689411
-0.0204874
0.00188162
0.130523
-0.246728
0.153258
0.255515
0.0374161
0.336837
-0.0845375
0.202158
0.188354
-0.212659
0.165005
0.210594
0.0922425
0.264977
0.0411073
0.190153
0.0693644
0.421206
-0.079727
0.568831
0.654832
0.255055
0.408587
0.174804
-0.0794435
0.151955
0.25623
-0.12372
0.219089
-0.0983142
0.236809
-0.0941506
0.428767
0.34481
0.341229
0.116077
-0.0268031
0.128893
-0.0804062
0.119
-0.0740026
0.0401117
-0.0828324
0.122821
-0.0648578
0.107863
0.0317496
-0.12469
0.0311073
0.0233629
-0.0569362
-0.0827206
0.0783926
0.0565847
-0.10151
0.0938787
0.106053
-0.020491
-0.112322
0.0282457
-0.0669422
0.0870871
-0.0978058
-0.112969
0.129907
-0.0491482
-0.0905769
0.0819853
0.103557
-0.122586
0.0581133
0.133859
-0.0531683
-0.0893485
0.0922631
0.0280381
0.0453511
0.0444206
0.0320429
0.13353
-0.0637618
-0.116077
0.109617
-0.131718
0.0741634
-0.00595423
-0.132068
0.077113
-0.0731287
-0.149828
0.0893216
-0.0602592
0.0713583
0.586563
-0.272946
-0.485777
0.229522
0.540263
0.32987
0.103901
0.497663
-0.137132
-0.428571
0.13676
-0.118134
-0.0711281
-0.208621
0.310985
-0.18838
-0.146395
-0.092729
0.495784
-0.162252
0.634002
0.756215
-0.338338
0.597592
-0.156927
0.259707
-0.152645
0.0643091
0.145495
-0.218427
-0.175399
0.072842
0.00808524
0.199104
-0.176089
0.167445
-0.104939
0.164366
-0.142481
0.0544743
-0.127598
0.142003
-0.0328192
-0.0153059
0.699728
0.603192
-0.371123
0.58927
0.632163
0.676656
-0.296586
0.59115
0.644287
0.392825
-0.222195
0.201707
-0.190641
0.192523
-0.0601175
0.239081
-0.0858223
-0.142419
0.179835
-0.287487
0.20295
-0.0762733
0.278431
0.308184
-0.11983
-0.122482
0.28669
-0.0760964
0.378933
-0.215876
0.480853
0.220904
-0.179796
0.236163
-0.0460097
0.676261
0.32886
0.0408932
0.527938
0.125971
0.528861
-0.213503
0.388307
0.176786
0.0232526
0.173654
0.222856
-0.0709014
0.0953694
0.138495
0.128705
0.773577
-0.394596
0.735825
0.0254996
-0.113144
0.0863411
0.0157493
0.0385936
-0.124289
0.0502864
-0.0841773
0.0250304
0.0213105
-0.0641108
0.0958603
-0.0685963
0.0997036
-0.0879913
0.111354
0.0369425
-0.00578469
0.0868392
-0.0302545
0.0976299
0.00842278
0.0771389
-0.082311
0.110557
0.0201449
0.0360529
0.0657966
-0.0666932
0.017545
-0.0406003
-0.0694782
0.127592
0.0239091
0.0744232
-0.0238143
0.12099
-0.0929517
0.100614
-0.0552632
0.136271
-0.0918504
0.107585
-0.0755422
0.0458547
-0.0546049
0.117995
-0.0438315
0.112041
-0.148319
0.0751904
-0.0589974
-0.155533
0.0952739
-0.0841747
-0.512322
0.239376
0.0118859
-0.2828
0.578834
-0.0385707
0.654741
-0.324871
0.682735
0.26039
-0.397521
0.482385
-0.345625
0.285263
-0.403398
0.236583
-0.307711
0.102363
-0.306462
0.118083
0.120828
-0.267223
-0.213204
0.120475
-0.118745
0.614529
0.593963
0.515257
0.259254
0.525808
-0.21397
0.0613248
-0.148895
-0.0299042
-0.0193223
-0.141128
-0.168004
0.0249639
-0.181096
0.076157
0.221644
-0.16717
-0.106905
-0.0206928
-0.0390922
-0.139724
-0.131848
0.116542
0.328605
0.00853729
0.594654
0.58193
0.00733913
0.48202
0.150143
0.280858
0.395798
0.498134
0.0930161
0.302272
0.342014
-0.164643
0.557468
-0.0296722
0.255909
-0.054202
0.178963
-0.19717
0.111347
0.113491
0.204637
-0.0248025
0.271029
-0.0680789
0.231911
0.202335
0.151199
0.0984213
0.372928
0.0060051
0.157052
0.26735
0.0563664
0.158627
0.281665
0.423338
-0.0944784
0.464231
0.653909
0.810525
0.293828
-0.0203833
0.153325
0.102753
-0.0990941
0.194464
0.216366
-0.0778712
0.234425
-0.105719
0.524127
0.249449
0.422807
0.313018
-0.0836279
0.109128
0.00271315
0.0997369
-0.0839876
0.107711
-0.0691176
0.109341
-0.0590541
-0.0796446
0.104675
-0.093373
0.114683
0.0162158
-0.102216
0.0336195
0.0117124
0.101104
0.0102506
-0.0652733
0.0810546
0.070849
-0.0836572
0.09208
0.0104457
-0.0993319
0.0170209
0.127437
-0.0168807
-0.079187
0.0938597
-0.0578067
0.0845636
-0.0187671
-0.0764623
0.0940073
0.0685272
-0.0850328
0.108942
0.113347
-0.0389241
0.0971754
0.0076626
0.0810078
0.0157347
-0.120252
0.0447097
0.109751
-0.0638964
-0.131903
0.0772979
-0.132949
0.0891173
-0.0198077
-0.0567124
-0.145916
0.0869183
-0.0506418
0.0255764
0.499316
-0.25994
0.425754
-0.413868
0.142955
-0.459792
0.421222
0.194949
0.174445
-0.153479
0.0848641
-0.0603621
-0.166814
-0.25476
-0.0529518
-0.152397
-0.185634
0.314468
-0.196385
-0.146748
0.449886
0.0283211
0.565642
-0.0347391
0.549996
-0.450818
0.710072
0.0749901
0.251255
-0.18993
0.10236
0.148106
-0.17801
0.182659
-0.201982
0.00697798
0.0536404
0.157884
-0.13292
0.142063
-0.065906
-0.0092858
-0.140295
0.119602
-0.152134
0.113042
-0.0231819
0.630878
0.590468
0.596816
0.638217
0.762878
0.648276
0.737812
0.650484
-0.20877
0.179098
-0.212034
0.157832
-0.0298073
-0.125084
0.236431
0.180186
-0.0666953
0.155384
-0.208679
0.1406
0.0116064
0.220305
-0.0939088
0.296244
-0.144041
0.29524
0.25192
-0.153499
-0.304299
0.310304
-0.210821
0.367873
-0.145637
0.412987
-0.187013
0.243379
-0.0283854
-0.197235
0.661466
-0.0976765
0.751586
0.399321
0.411205
-0.155099
0.448927
-0.213618
0.193235
0.121037
0.0322879
0.22379
0.117272
-0.0191546
0.156554
0.118071
0.534025
0.672256
0.712339
-0.0794959
0.082209
0.020241
0.0237236
0.040223
-0.118224
0.0591699
0.011302
0.0494101
0.100779
0.082831
-0.0492114
-0.0829394
0.0946517
-0.0989409
0.109192
-0.0371695
-0.034888
0.105737
0.0437802
0.0660166
0.0260633
0.0843797
-0.0673588
-0.0935277
0.076647
0.0146727
0.0555405
-0.100136
0.0813692
0.107123
-0.0131155
-0.0517247
0.0242404
0.0966115
0.0123303
0.0576875
0.104463
-0.00728793
-0.0688334
0.076496
0.0121744
-0.073366
0.0891007
0.105676
-0.0609666
0.0405669
-0.055651
0.142744
-0.0536264
0.122936
-0.136428
0.0797154
-0.0495095
0.0963938
-0.147036
0.0993947
-0.0738182
-0.410286
0.150346
-0.267332
0.577071
-0.155849
0.525861
-0.330912
0.484194
-0.309749
-0.308169
0.15469
-0.223305
-0.266543
0.206181
-0.262311
0.0954968
0.182809
-0.235761
0.162071
0.0920864
-0.277721
-0.277482
0.0810971
-0.211664
0.0649157
-0.236708
0.686594
-0.663687
0.692008
0.530902
0.313289
0.0463848
-0.573874
0.648864
-0.174646
-0.0152841
-0.109303
0.00464884
-0.213468
0.0114867
-0.167668
-0.159828
0.0091431
-0.161392
0.0954859
0.146001
-0.155287
-0.110973
-0.0293215
-0.0325323
-0.0483501
-0.134155
0.0576488
0.532819
-0.0971544
0.69397
0.559613
0.0786036
0.31115
0.451729
0.657919
-0.00964254
0.469385
0.268427
0.476342
0.174142
-0.0329363
0.208752
-0.0509196
-0.166416
0.136609
0.0681508
0.0700156
0.142057
0.193189
-0.0378056
0.043241
0.258505
-0.117905
-0.196449
0.208055
0.126396
-0.00805546
0.114464
0.0987913
0.0898806
0.099483
0.384627
-0.0167543
0.23899
0.257889
0.164804
0.251692
0.563789
0.185967
0.565619
0.597172
0.165405
-0.0566428
0.197692
0.163768
-0.0464956
0.144613
0.181689
-0.0251351
-0.0629733
0.181044
-0.270726
0.804751
0.40153
0.36204
0.350299
0.117725
-0.0355162
0.0996579
-0.0794169
0.0934318
-0.0697082
0.0997331
-0.0595101
0.0998514
-0.0406814
-0.0712194
0.0825213
0.100263
-0.0508525
0.02956
-0.000108381
0.0510512
-0.00428921
0.0743035
0.0685675
0.0892036
-0.0454234
-0.0769073
0.102971
-0.00914799
-0.116565
0.0492059
0.0995154
-0.0228684
-0.101892
-0.0463516
0.00698648
0.0935077
-0.0121385
-0.0937376
0.0806222
0.0660005
0.102274
-0.0784057
0.090736
0.106283
-0.0485955
0.0943418
-0.10163
0.124441
-0.0479446
0.0886269
-0.0764525
0.0323103
0.12829
-0.0391893
-0.111422
0.0504558
0.109251
-0.0686844
-0.129204
0.073553
-0.126029
0.0724028
-0.0112189
-0.0494886
-0.127154
0.0776445
-0.0307603
-0.0476409
0.0354331
0.445157
-0.29481
-0.430096
0.162764
0.00319676
0.370012
0.153282
0.135407
-0.275406
-0.322871
0.0995667
-0.303758
0.0372149
-0.11669
-0.0795023
-0.208261
-0.0736895
-0.185396
-0.212805
-0.177137
0.258234
0.409255
0.277339
0.433793
0.258214
0.392396
0.138507
0.705684
-0.447606
0.493991
0.201258
0.183413
-0.198697
0.169359
-0.278663
0.167329
-0.16268
0.218969
-0.207482
-0.000339072
-0.184922
0.0250943
-0.128755
0.137898
-0.0332692
-0.0389213
-0.0173884
-0.132213
0.102891
-0.14085
0.108317
-0.152216
0.103866
0.617262
0.435664
0.695844
0.547988
0.579577
-0.17254
0.624268
0.485379
0.466699
0.583397
-0.211514
0.178577
-0.175123
0.124203
-0.0749051
-0.15007
0.218221
0.180422
-0.110406
0.212564
-0.0705074
0.174758
0.200655
-0.157414
0.0827496
0.118802
0.0892531
0.245198
0.237143
-0.160125
0.274589
-0.141129
0.239921
0.225857
-0.135977
0.26492
-0.165437
-0.281558
0.264803
-0.165997
0.404987
-0.116179