/*--------------------------------*- C++ -*----------------------------------*\
| =========                 |                                                 |
| \\      /  F ield         | OpenFOAM: The Open Source CFD Toolbox           |
|  \\    /   O peration     | Version:  v2012                                 |
|   \\  /    A nd           | Website:  www.openfoam.com                      |
|    \\/     M anipulation  |                                                 |
\*---------------------------------------------------------------------------*/
FoamFile
{
    version     2.0;
    format      ascii;
    class       volScalarField;
    location    "0.6";
    object      rAU;
}
// * * * * * * * * * * * * * * * * * * * * * * * * * * * * * * * * * * * * * //

dimensions      [-1 3 1 0 0 0 0];


internalField   nonuniform List<scalar> 
13611
(
1.89151e-07
1.87806e-07
1.92222e-07
1.8866e-07
1.89611e-07
1.89242e-07
1.90543e-07
1.8989e-07
1.86595e-07
1.89836e-07
1.89589e-07
1.90174e-07
1.90795e-07
1.9215e-07
1.82312e-07
1.90634e-07
1.9007e-07
1.89184e-07
1.91598e-07
1.88181e-07
1.90102e-07
1.81542e-07
1.82136e-07
1.85063e-07
1.85167e-07
1.90186e-07
1.90201e-07
1.91461e-07
1.92193e-07
1.83329e-07
1.84265e-07
1.82147e-07
1.85527e-07
1.90074e-07
1.91567e-07
1.88395e-07
1.88413e-07
1.90062e-07
1.80969e-07
1.84536e-07
1.85285e-07
1.83934e-07
1.83925e-07
1.89801e-07
1.90436e-07
1.8996e-07
1.9216e-07
1.9166e-07
1.82228e-07
1.78375e-07
1.82498e-07
1.84394e-07
1.84075e-07
1.85957e-07
1.89034e-07
1.89452e-07
1.88292e-07
1.90744e-07
1.90064e-07
1.90437e-07
1.81941e-07
1.79484e-07
1.82636e-07
1.82556e-07
1.78017e-07
1.82331e-07
1.81043e-07
1.85418e-07
1.84617e-07
1.88008e-07
1.90036e-07
1.90809e-07
1.92167e-07
1.90185e-07
1.81951e-07
1.8036e-07
1.80293e-07
1.78004e-07
1.82516e-07
1.82043e-07
1.81386e-07
1.84412e-07
1.86329e-07
1.83954e-07
1.88436e-07
1.90177e-07
1.90078e-07
1.90034e-07
1.89728e-07
1.81677e-07
1.74727e-07
1.79814e-07
1.81934e-07
1.78975e-07
1.75595e-07
1.81779e-07
1.81175e-07
1.84474e-07
1.83552e-07
1.82152e-07
1.87223e-07
1.89448e-07
1.90203e-07
1.90365e-07
1.89689e-07
1.76238e-07
1.83531e-07
1.83437e-07
1.81999e-07
1.79281e-07
1.7876e-07
1.7725e-07
1.81778e-07
1.78262e-07
1.80095e-07
1.82305e-07
1.83949e-07
1.84157e-07
1.85608e-07
1.91687e-07
1.91564e-07
1.90032e-07
1.92244e-07
1.89601e-07
1.87792e-07
1.78639e-07
1.83428e-07
1.83598e-07
1.77409e-07
1.81245e-07
1.74892e-07
1.81068e-07
1.79323e-07
1.82452e-07
1.83975e-07
1.86222e-07
1.85182e-07
1.89255e-07
1.90521e-07
1.86108e-07
1.91487e-07
1.89145e-07
1.89503e-07
1.76529e-07
1.76036e-07
1.77417e-07
1.75329e-07
1.79281e-07
1.81814e-07
1.75286e-07
1.74698e-07
1.81609e-07
1.78501e-07
1.80228e-07
1.83247e-07
1.8593e-07
1.83881e-07
1.91361e-07
1.91331e-07
1.9054e-07
1.85633e-07
1.85493e-07
1.92246e-07
1.91482e-07
1.8981e-07
1.73875e-07
1.75758e-07
1.76463e-07
1.78184e-07
1.7477e-07
1.78496e-07
1.78708e-07
1.74515e-07
1.73919e-07
1.79266e-07
1.79289e-07
1.7565e-07
1.80254e-07
1.81473e-07
1.81061e-07
1.83794e-07
1.87686e-07
1.90054e-07
1.87165e-07
1.83129e-07
1.85124e-07
1.91199e-07
1.90645e-07
1.7141e-07
1.74487e-07
1.78796e-07
1.73916e-07
1.77414e-07
1.73443e-07
1.77836e-07
1.79914e-07
1.74498e-07
1.7489e-07
1.7919e-07
1.80029e-07
1.80894e-07
1.80694e-07
1.83489e-07
1.80307e-07
1.88655e-07
1.91195e-07
1.89961e-07
1.88082e-07
1.85197e-07
1.82208e-07
1.91205e-07
1.92246e-07
1.90659e-07
1.70018e-07
1.73619e-07
1.7841e-07
1.74231e-07
1.76806e-07
1.73428e-07
1.784e-07
1.80167e-07
1.73855e-07
1.74878e-07
1.78245e-07
1.79454e-07
1.80117e-07
1.78592e-07
1.81062e-07
1.83916e-07
1.91025e-07
1.886e-07
1.89018e-07
1.8696e-07
1.82409e-07
1.82143e-07
1.90292e-07
1.91301e-07
1.90831e-07
1.79213e-07
1.71561e-07
1.68283e-07
1.70537e-07
1.75887e-07
1.76711e-07
1.72371e-07
1.7915e-07
1.73077e-07
1.73831e-07
1.77672e-07
1.74575e-07
1.78521e-07
1.73785e-07
1.75839e-07
1.78373e-07
1.82118e-07
1.82579e-07
1.90779e-07
1.8893e-07
1.86961e-07
1.88769e-07
1.83648e-07
1.85077e-07
1.83504e-07
1.91202e-07
1.90408e-07
1.92256e-07
1.79148e-07
1.71363e-07
1.75463e-07
1.68464e-07
1.71058e-07
1.74933e-07
1.75096e-07
1.74514e-07
1.73054e-07
1.75425e-07
1.7162e-07
1.73535e-07
1.76303e-07
1.75101e-07
1.77438e-07
1.76432e-07
1.76357e-07
1.77444e-07
1.77134e-07
1.8348e-07
1.91945e-07
1.91985e-07
1.88335e-07
1.87998e-07
1.8475e-07
1.84524e-07
1.82565e-07
1.83381e-07
1.88953e-07
1.91578e-07
1.89621e-07
1.74204e-07
1.7317e-07
1.74559e-07
1.73875e-07
1.68999e-07
1.72335e-07
1.72103e-07
1.75102e-07
1.7434e-07
1.75811e-07
1.72283e-07
1.73448e-07
1.66641e-07
1.71965e-07
1.77807e-07
1.76668e-07
1.78752e-07
1.7676e-07
1.75654e-07
1.75904e-07
1.7584e-07
1.82256e-07
1.91118e-07
1.90468e-07
1.88575e-07
1.88084e-07
1.85789e-07
1.85569e-07
1.81297e-07
1.82427e-07
1.89127e-07
1.9031e-07
1.7416e-07
1.73068e-07
1.72841e-07
1.74197e-07
1.72126e-07
1.71989e-07
1.71986e-07
1.74458e-07
1.74262e-07
1.73544e-07
1.71848e-07
1.73514e-07
1.68943e-07
1.71575e-07
1.7343e-07
1.75872e-07
1.72901e-07
1.77055e-07
1.76187e-07
1.75742e-07
1.76401e-07
1.75683e-07
1.91019e-07
1.9069e-07
1.91009e-07
1.88649e-07
1.87316e-07
1.86929e-07
1.83946e-07
1.85243e-07
1.82639e-07
1.91427e-07
1.92303e-07
1.89564e-07
1.73747e-07
1.68753e-07
1.7237e-07
1.66082e-07
1.72647e-07
1.63296e-07
1.63692e-07
1.63461e-07
1.74438e-07
1.74241e-07
1.67755e-07
1.71457e-07
1.73894e-07
1.68829e-07
1.73297e-07
1.71971e-07
1.59649e-07
1.74736e-07
1.64329e-07
1.77074e-07
1.76219e-07
1.75643e-07
1.75527e-07
1.78005e-07
1.89457e-07
1.88947e-07
1.89989e-07
1.87743e-07
1.87343e-07
1.86327e-07
1.83191e-07
1.84994e-07
1.79297e-07
1.91881e-07
1.89758e-07
1.91655e-07
1.73496e-07
1.70923e-07
1.6279e-07
1.69176e-07
1.6779e-07
1.669e-07
1.72393e-07
1.63791e-07
1.7071e-07
1.73005e-07
1.73385e-07
1.75213e-07
1.73848e-07
1.73334e-07
1.75547e-07
1.69102e-07
1.7119e-07
1.73939e-07
1.76764e-07
1.75694e-07
1.75809e-07
1.72211e-07
1.77562e-07
1.90916e-07
1.89758e-07
1.88589e-07
1.90884e-07
1.90717e-07
1.87366e-07
1.87272e-07
1.81865e-07
1.83544e-07
1.77229e-07
1.7777e-07
1.77735e-07
1.90674e-07
1.90387e-07
1.92291e-07
1.91319e-07
1.91688e-07
1.91509e-07
1.69416e-07
1.68066e-07
1.68095e-07
1.68171e-07
1.688e-07
1.69308e-07
1.71976e-07
1.71685e-07
1.72982e-07
1.73333e-07
1.74782e-07
1.73215e-07
1.70431e-07
1.65784e-07
1.70784e-07
1.74827e-07
1.67683e-07
1.7381e-07
1.7795e-07
1.76168e-07
1.74084e-07
1.73015e-07
1.67518e-07
1.90505e-07
1.89397e-07
1.87685e-07
1.89066e-07
1.90715e-07
1.86252e-07
1.86454e-07
1.81632e-07
1.83731e-07
1.79966e-07
1.78296e-07
1.78368e-07
1.77524e-07
1.90039e-07
1.89512e-07
1.91234e-07
1.91691e-07
1.90549e-07
1.86698e-07
1.91466e-07
1.92174e-07
1.72105e-07
1.675e-07
1.70448e-07
1.67883e-07
1.72242e-07
1.68194e-07
1.63658e-07
1.61703e-07
1.6521e-07
1.7188e-07
1.72036e-07
1.70183e-07
1.73147e-07
1.62405e-07
1.70877e-07
1.66958e-07
1.71795e-07
1.67213e-07
1.77611e-07
1.75063e-07
1.74004e-07
1.71096e-07
1.69657e-07
1.9148e-07
1.88201e-07
1.8924e-07
1.87334e-07
1.91842e-07
1.90019e-07
1.85709e-07
1.83026e-07
1.81228e-07
1.83696e-07
1.79307e-07
1.78345e-07
1.7851e-07
1.78407e-07
1.91742e-07
1.92298e-07
1.91485e-07
1.91242e-07
1.91319e-07
1.90613e-07
1.91895e-07
1.86191e-07
1.91367e-07
1.91668e-07
1.7112e-07
1.69038e-07
1.66286e-07
1.67832e-07
1.69805e-07
1.68045e-07
1.65228e-07
1.64231e-07
1.62164e-07
1.72662e-07
1.71773e-07
1.70146e-07
1.7193e-07
1.62124e-07
1.64489e-07
1.73958e-07
1.64461e-07
1.64322e-07
1.69499e-07
1.68813e-07
1.77535e-07
1.71764e-07
1.73598e-07
1.72215e-07
1.69131e-07
1.89226e-07
1.87467e-07
1.8767e-07
1.91171e-07
1.89744e-07
1.83023e-07
1.8196e-07
1.79012e-07
1.76836e-07
1.82418e-07
1.79393e-07
1.78384e-07
1.78578e-07
1.79278e-07
1.89222e-07
1.89956e-07
1.91562e-07
1.90655e-07
1.91867e-07
1.86435e-07
1.8938e-07
1.85976e-07
1.85021e-07
1.82497e-07
1.91682e-07
1.92155e-07
1.67185e-07
1.664e-07
1.6674e-07
1.65308e-07
1.66757e-07
1.64078e-07
1.59899e-07
1.63584e-07
1.69321e-07
1.66754e-07
1.64018e-07
1.64433e-07
1.72207e-07
1.65233e-07
1.6226e-07
1.66206e-07
1.70344e-07
1.69513e-07
1.66405e-07
1.69585e-07
1.70584e-07
1.7783e-07
1.74595e-07
1.7535e-07
1.6998e-07
1.66703e-07
1.90265e-07
1.8815e-07
1.84882e-07
1.84154e-07
1.86713e-07
1.90711e-07
1.90703e-07
1.84931e-07
1.83533e-07
1.80076e-07
1.78991e-07
1.82504e-07
1.79152e-07
1.7806e-07
1.78153e-07
1.77105e-07
1.91292e-07
1.90002e-07
1.91456e-07
1.91306e-07
1.91315e-07
1.90333e-07
1.88476e-07
1.86541e-07
1.90937e-07
1.85859e-07
1.87011e-07
1.82458e-07
1.90236e-07
1.91946e-07
1.66554e-07
1.58025e-07
1.59651e-07
1.61299e-07
1.6525e-07
1.64112e-07
1.6692e-07
1.61094e-07
1.64249e-07
1.68893e-07
1.63644e-07
1.66611e-07
1.68352e-07
1.6838e-07
1.60367e-07
1.56652e-07
1.68908e-07
1.65897e-07
1.67843e-07
1.69645e-07
1.70385e-07
1.76278e-07
1.75149e-07
1.73341e-07
1.70864e-07
1.70869e-07
1.89042e-07
1.84908e-07
1.84947e-07
1.8652e-07
1.86193e-07
1.89603e-07
1.91323e-07
1.85118e-07
1.83893e-07
1.83645e-07
1.82158e-07
1.82335e-07
1.7931e-07
1.77836e-07
1.77644e-07
1.76219e-07
1.89418e-07
1.92343e-07
1.90321e-07
1.91123e-07
1.91716e-07
1.90637e-07
1.84614e-07
1.85892e-07
1.89057e-07
1.91594e-07
1.84147e-07
1.87029e-07
1.83699e-07
1.92031e-07
1.92172e-07
1.67132e-07
1.67021e-07
1.61032e-07
1.65624e-07
1.6146e-07
1.61501e-07
1.62207e-07
1.54457e-07
1.63799e-07
1.64348e-07
1.64351e-07
1.65433e-07
1.6514e-07
1.66059e-07
1.68525e-07
1.57824e-07
1.60127e-07
1.63655e-07
1.69437e-07
1.61612e-07
1.69287e-07
1.69821e-07
1.70621e-07
1.77062e-07
1.73477e-07
1.67901e-07
1.72776e-07
1.7188e-07
1.90236e-07
1.89208e-07
1.89313e-07
1.8681e-07
1.86299e-07
1.90693e-07
1.9161e-07
1.8299e-07
1.84067e-07
1.83282e-07
1.81015e-07
1.82331e-07
1.78927e-07
1.77127e-07
1.74317e-07
1.73132e-07
1.91159e-07
1.91745e-07
1.91172e-07
1.91099e-07
1.90888e-07
1.89279e-07
1.86849e-07
1.86194e-07
1.87792e-07
1.91223e-07
1.84133e-07
1.83028e-07
1.83952e-07
1.83611e-07
1.90575e-07
1.66624e-07
1.64309e-07
1.59327e-07
1.63917e-07
1.64253e-07
1.59615e-07
1.61394e-07
1.66669e-07
1.58209e-07
1.66447e-07
1.63419e-07
1.65348e-07
1.65432e-07
1.66088e-07
1.63887e-07
1.66343e-07
1.63227e-07
1.66058e-07
1.70046e-07
1.65958e-07
1.69583e-07
1.70716e-07
1.74638e-07
1.74145e-07
1.71044e-07
1.69635e-07
1.67963e-07
1.89734e-07
1.89304e-07
1.89282e-07
1.87575e-07
1.82434e-07
1.90843e-07
1.91741e-07
1.83645e-07
1.84631e-07
1.80568e-07
1.81377e-07
1.79261e-07
1.79601e-07
1.79168e-07
1.76806e-07
1.72246e-07
1.7334e-07
1.70361e-07
1.91716e-07
1.92346e-07
1.89567e-07
1.91482e-07
1.90084e-07
1.91189e-07
1.8603e-07
1.83306e-07
1.85247e-07
1.88259e-07
1.87595e-07
1.91035e-07
1.90668e-07
1.81793e-07
1.82395e-07
1.84376e-07
1.82187e-07
1.92148e-07
1.91602e-07
1.61768e-07
1.65519e-07
1.65141e-07
1.59524e-07
1.64454e-07
1.60773e-07
1.67604e-07
1.66601e-07
1.57522e-07
1.66368e-07
1.62328e-07
1.63429e-07
1.63575e-07
1.67876e-07
1.64894e-07
1.61443e-07
1.66909e-07
1.63208e-07
1.62769e-07
1.66948e-07
1.57559e-07
1.64396e-07
1.71849e-07
1.66562e-07
1.74095e-07
1.73019e-07
1.7054e-07
1.65957e-07
1.66037e-07
1.88349e-07
1.88927e-07
1.88158e-07
1.8785e-07
1.87498e-07
1.82339e-07
1.80359e-07
1.90916e-07
1.91415e-07
1.79128e-07
1.78029e-07
1.80478e-07
1.8111e-07
1.79278e-07
1.79013e-07
1.78792e-07
1.7696e-07
1.75785e-07
1.7365e-07
1.9156e-07
1.91481e-07
1.91327e-07
1.91962e-07
1.9154e-07
1.91119e-07
1.90476e-07
1.82404e-07
1.81834e-07
1.84169e-07
1.86508e-07
1.82089e-07
1.90441e-07
1.88939e-07
1.8122e-07
1.80033e-07
1.77346e-07
1.81808e-07
1.9072e-07
1.9147e-07
1.68693e-07
1.65463e-07
1.6508e-07
1.65463e-07
1.66053e-07
1.67629e-07
1.60952e-07
1.63976e-07
1.64342e-07
1.61765e-07
1.62051e-07
1.63626e-07
1.67166e-07
1.68897e-07
1.64068e-07
1.62309e-07
1.62277e-07
1.56195e-07
1.60885e-07
1.65664e-07
1.69641e-07
1.62272e-07
1.6123e-07
1.7543e-07
1.75155e-07
1.71225e-07
1.71043e-07
1.88809e-07
1.88527e-07
1.87774e-07
1.8761e-07
1.86106e-07
1.83751e-07
1.8262e-07
1.91641e-07
1.8864e-07
1.73611e-07
1.80917e-07
1.78056e-07
1.80434e-07
1.76535e-07
1.76132e-07
1.79944e-07
1.75406e-07
1.7147e-07
1.7619e-07
1.75968e-07
1.91483e-07
1.92348e-07
1.90671e-07
1.90862e-07
1.92087e-07
1.89547e-07
1.91268e-07
1.84308e-07
1.78476e-07
1.8064e-07
1.78237e-07
1.86537e-07
1.8447e-07
1.82777e-07
1.91066e-07
1.9096e-07
1.90424e-07
1.88165e-07
1.78558e-07
1.78507e-07
1.76986e-07
1.78608e-07
1.76491e-07
1.92196e-07
1.68794e-07
1.66693e-07
1.63808e-07
1.66225e-07
1.66917e-07
1.62548e-07
1.62041e-07
1.63739e-07
1.6362e-07
1.63023e-07
1.60853e-07
1.56567e-07
1.57653e-07
1.55353e-07
1.67595e-07
1.63499e-07
1.60937e-07
1.62146e-07
1.55714e-07
1.64169e-07
1.60376e-07
1.62984e-07
1.63024e-07
1.57112e-07
1.73382e-07
1.73384e-07
1.71882e-07
1.72573e-07
1.89687e-07
1.89648e-07
1.86789e-07
1.86963e-07
1.87364e-07
1.87323e-07
1.83336e-07
1.82034e-07
1.8913e-07
1.91098e-07
1.75919e-07
1.81951e-07
1.80461e-07
1.81188e-07
1.77633e-07
1.80217e-07
1.80182e-07
1.75407e-07
1.73978e-07
1.72951e-07
1.73717e-07
1.91016e-07
1.91216e-07
1.92169e-07
1.90885e-07
1.91204e-07
1.90772e-07
1.9073e-07
1.82366e-07
1.7959e-07
1.79308e-07
1.78903e-07
1.84438e-07
1.87033e-07
1.82295e-07
1.90292e-07
1.88504e-07
1.9095e-07
1.87484e-07
1.77898e-07
1.74756e-07
1.78875e-07
1.79319e-07
1.91448e-07
1.58235e-07
1.66491e-07
1.63835e-07
1.60851e-07
1.62493e-07
1.56906e-07
1.62597e-07
1.64987e-07
1.62847e-07
1.53191e-07
1.64011e-07
1.61943e-07
1.62266e-07
1.60521e-07
1.58103e-07
1.59001e-07
1.62848e-07
1.54201e-07
1.56573e-07
1.59597e-07
1.69295e-07
1.62772e-07
1.6545e-07
1.66737e-07
1.6858e-07
1.71232e-07
1.66192e-07
1.65946e-07
1.67946e-07
1.67579e-07
1.89449e-07
1.90474e-07
1.87634e-07
1.85594e-07
1.87046e-07
1.86342e-07
1.85568e-07
1.79412e-07
1.90726e-07
1.90475e-07
1.81228e-07
1.78938e-07
1.79477e-07
1.78148e-07
1.7813e-07
1.78023e-07
1.74096e-07
1.70404e-07
1.76116e-07
1.6646e-07
1.68185e-07
1.69441e-07
1.91302e-07
1.9235e-07
1.90936e-07
1.90881e-07
1.90138e-07
1.92037e-07
1.90106e-07
1.79872e-07
1.81433e-07
1.79221e-07
1.79623e-07
1.83279e-07
1.83154e-07
1.86579e-07
1.87593e-07
1.81872e-07
1.9008e-07
1.88992e-07
1.91493e-07
1.90945e-07
1.81785e-07
1.79528e-07
1.78321e-07
1.92205e-07
1.61341e-07
1.5603e-07
1.60445e-07
1.60475e-07
1.59003e-07
1.5837e-07
1.63372e-07
1.65836e-07
1.62384e-07
1.59998e-07
1.63233e-07
1.59222e-07
1.57919e-07
1.60217e-07
1.62505e-07
1.58686e-07
1.62757e-07
1.53559e-07
1.57031e-07
1.51665e-07
1.51391e-07
1.57049e-07
1.69672e-07
1.66222e-07
1.66906e-07
1.69679e-07
1.67568e-07
1.69041e-07
1.67904e-07
1.67847e-07
1.65925e-07
1.66155e-07
1.90677e-07
1.89848e-07
1.90499e-07
1.89183e-07
1.877e-07
1.86159e-07
1.83394e-07
1.84216e-07
1.82214e-07
1.90008e-07
1.92032e-07
1.80794e-07
1.77434e-07
1.81514e-07
1.77844e-07
1.76834e-07
1.7491e-07
1.71637e-07
1.75649e-07
1.68909e-07
1.72984e-07
1.71009e-07
1.68481e-07
1.67549e-07
1.88496e-07
1.91247e-07
1.90697e-07
1.90652e-07
1.89405e-07
1.91374e-07
1.92011e-07
1.90229e-07
1.78227e-07
1.80165e-07
1.79186e-07
1.77934e-07
1.83059e-07
1.82135e-07
1.84514e-07
1.86566e-07
1.7873e-07
1.89425e-07
1.89351e-07
1.89145e-07
1.88043e-07
1.81566e-07
1.73641e-07
1.76788e-07
1.77645e-07
1.73861e-07
1.91015e-07
1.57085e-07
1.60427e-07
1.58412e-07
1.63115e-07
1.5688e-07
1.58118e-07
1.57107e-07
1.62442e-07
1.60929e-07
1.60143e-07
1.56255e-07
1.59642e-07
1.57132e-07
1.57647e-07
1.50787e-07
1.6014e-07
1.60201e-07
1.62564e-07
1.57765e-07
1.5272e-07
1.55414e-07
1.65785e-07
1.66557e-07
1.60345e-07
1.67446e-07
1.64912e-07
1.68575e-07
1.72937e-07
1.70729e-07
1.62285e-07
1.65134e-07
1.90503e-07
1.8958e-07
1.89718e-07
1.88303e-07
1.87505e-07
1.8598e-07
1.80505e-07
1.82064e-07
1.82766e-07
1.82225e-07
1.89665e-07
1.9089e-07
1.77356e-07
1.73131e-07
1.81571e-07
1.75709e-07
1.76727e-07
1.74811e-07
1.72312e-07
1.75727e-07
1.74931e-07
1.74391e-07
1.70563e-07
1.67939e-07
1.63367e-07
1.91136e-07
1.92356e-07
1.91123e-07
1.91443e-07
1.88969e-07
1.89845e-07
1.916e-07
1.92238e-07
1.75748e-07
1.78867e-07
1.77697e-07
1.76469e-07
1.80279e-07
1.81694e-07
1.7859e-07
1.78484e-07
1.84234e-07
1.86069e-07
1.87782e-07
1.77696e-07
1.7535e-07
1.91538e-07
1.90465e-07
1.9151e-07
1.90662e-07
1.89975e-07
1.7394e-07
1.77304e-07
1.76845e-07
1.75686e-07
1.91432e-07
1.6169e-07
1.60395e-07
1.58989e-07
1.60028e-07
1.57694e-07
1.57113e-07
1.56601e-07
1.56009e-07
1.53812e-07
1.58909e-07
1.58612e-07
1.49126e-07
1.49613e-07
1.51025e-07
1.55239e-07
1.56854e-07
1.54004e-07
1.51106e-07
1.60733e-07
1.62121e-07
1.51698e-07
1.5798e-07
1.65709e-07
1.60067e-07
1.5957e-07
1.5738e-07
1.63475e-07
1.64413e-07
1.68791e-07
1.70491e-07
1.70586e-07
1.64202e-07
1.63449e-07
1.88263e-07
1.87359e-07
1.88271e-07
1.89393e-07
1.89109e-07
1.88002e-07
1.8617e-07
1.86151e-07
1.80977e-07
1.82077e-07
1.83717e-07
1.81419e-07
1.91579e-07
1.91684e-07
1.90491e-07
1.77647e-07
1.76069e-07
1.81376e-07
1.75718e-07
1.76198e-07
1.72281e-07
1.72258e-07
1.74738e-07
1.72439e-07
1.74908e-07
1.74216e-07
1.66258e-07
1.71304e-07
1.88138e-07
1.90298e-07
1.89484e-07
1.90046e-07
1.90029e-07
1.90115e-07
1.9229e-07
1.7857e-07
1.75949e-07
1.75192e-07
1.80047e-07
1.81617e-07
1.81633e-07
1.78629e-07
1.79992e-07
1.82688e-07
1.86207e-07
1.77693e-07
1.80925e-07
1.88729e-07
1.90815e-07
1.9004e-07
1.89177e-07
1.87876e-07
1.74759e-07
1.78429e-07
1.75505e-07
1.76502e-07
1.76373e-07
1.92279e-07
1.90593e-07
1.63755e-07
1.62378e-07
1.58041e-07
1.58412e-07
1.57532e-07
1.5353e-07
1.5447e-07
1.56519e-07
1.55067e-07
1.57171e-07
1.50462e-07
1.5494e-07
1.53827e-07
1.52163e-07
1.56495e-07
1.55749e-07
1.59372e-07
1.47799e-07
1.45488e-07
1.64018e-07
1.56608e-07
1.54651e-07
1.58289e-07
1.60499e-07
1.62898e-07
1.60184e-07
1.57624e-07
1.51985e-07
1.61776e-07
1.58633e-07
1.62816e-07
1.61249e-07
1.58874e-07
1.6413e-07
1.65032e-07
1.61933e-07
1.88945e-07
1.89186e-07
1.90052e-07
1.89761e-07
1.88412e-07
1.88852e-07
1.8711e-07
1.86377e-07
1.82075e-07
1.78384e-07
1.81451e-07
1.82393e-07
1.89982e-07
1.90292e-07
1.90927e-07
1.90401e-07
1.78474e-07
1.81169e-07
1.76414e-07
1.75351e-07
1.72258e-07
1.70251e-07
1.72411e-07
1.70376e-07
1.67535e-07
1.71095e-07
1.7457e-07
1.71359e-07
1.89916e-07
1.90078e-07
1.91658e-07
1.91483e-07
1.89687e-07
1.89755e-07
1.91026e-07
1.78305e-07
1.74777e-07
1.70275e-07
1.74753e-07
1.77891e-07
1.79437e-07
1.80581e-07
1.80852e-07
1.78404e-07
1.81568e-07
1.85721e-07
1.86575e-07
1.77484e-07
1.80416e-07
1.90669e-07
1.89109e-07
1.9076e-07
1.89637e-07
1.84283e-07
1.76259e-07
1.76348e-07
1.76611e-07
1.75574e-07
1.76112e-07
1.92076e-07
1.90296e-07
1.60919e-07
1.5917e-07
1.55968e-07
1.54231e-07
1.54557e-07
1.47509e-07
1.49862e-07
1.53736e-07
1.55411e-07
1.46027e-07
1.55941e-07
1.46819e-07
1.53765e-07
1.54489e-07
1.55449e-07
1.62557e-07
1.51491e-07
1.57054e-07
1.46387e-07
1.51823e-07
1.62681e-07
1.54684e-07
1.56026e-07
1.55127e-07
1.62593e-07
1.54675e-07
1.56767e-07
1.56667e-07
1.60164e-07
1.55605e-07
1.58147e-07
1.57214e-07
1.62147e-07
1.6261e-07
1.6197e-07
1.62057e-07
1.6329e-07
1.63221e-07
1.88803e-07
1.87674e-07
1.90205e-07
1.90952e-07
1.88487e-07
1.8688e-07
1.86599e-07
1.83844e-07
1.84945e-07
1.80449e-07
1.8054e-07
1.79376e-07
1.74297e-07
1.90981e-07
1.90802e-07
1.90308e-07
1.87291e-07
1.75784e-07
1.74415e-07
1.74891e-07
1.73043e-07
1.69081e-07
1.6694e-07
1.72974e-07
1.71105e-07
1.72887e-07
1.69312e-07
1.67208e-07
1.67612e-07
1.89707e-07
1.92374e-07
1.89492e-07
1.92065e-07
1.88736e-07
1.91488e-07
1.89959e-07
1.89576e-07
1.7853e-07
1.74618e-07
1.736e-07
1.75241e-07
1.77779e-07
1.79793e-07
1.80651e-07
1.80665e-07
1.74498e-07
1.82781e-07
1.83158e-07
1.86874e-07
1.78817e-07
1.74873e-07
1.88267e-07
1.87836e-07
1.89318e-07
1.9193e-07
1.85978e-07
1.76129e-07
1.70914e-07
1.74538e-07
1.77552e-07
1.74441e-07
1.74626e-07
1.91406e-07
1.89809e-07
1.5083e-07
1.55573e-07
1.5725e-07
1.55467e-07
1.55758e-07
1.48958e-07
1.52829e-07
1.54373e-07
1.49594e-07
1.5187e-07
1.5453e-07
1.50096e-07
1.53797e-07
1.54267e-07
1.60852e-07
1.54159e-07
1.58662e-07
1.55875e-07
1.52977e-07
1.47106e-07
1.54056e-07
1.52399e-07
1.4965e-07
1.55731e-07
1.53367e-07
1.5732e-07
1.57116e-07
1.55207e-07
1.57864e-07
1.61826e-07
1.62675e-07
1.63459e-07
1.62072e-07
1.62523e-07
1.61512e-07
1.63801e-07
1.63389e-07
1.63281e-07
1.89437e-07
1.84148e-07
1.85435e-07
1.927e-07
1.90495e-07
1.89232e-07
1.84249e-07
1.8491e-07
1.83403e-07
1.84588e-07
1.83306e-07
1.8077e-07
1.79992e-07
1.77294e-07
1.90504e-07
1.90772e-07
1.90511e-07
1.91038e-07
1.87814e-07
1.7425e-07
1.75418e-07
1.733e-07
1.76278e-07
1.69031e-07
1.7029e-07
1.71692e-07
1.69001e-07
1.72054e-07
1.67291e-07
1.65673e-07
1.65165e-07
1.67673e-07
1.87891e-07
1.91676e-07
1.89806e-07
1.92257e-07
1.90045e-07
1.90371e-07
1.91006e-07
1.90971e-07
1.75631e-07
1.73878e-07
1.74476e-07
1.75387e-07
1.68714e-07
1.71615e-07
1.80062e-07
1.80292e-07
1.83618e-07
1.80849e-07
1.78426e-07
1.83749e-07
1.85942e-07
1.86214e-07
1.75253e-07
1.72486e-07
1.90007e-07
1.85989e-07
1.88894e-07
1.91832e-07
1.90145e-07
1.86827e-07
1.75862e-07
1.71761e-07
1.73396e-07
1.74521e-07
1.7366e-07
1.73386e-07
1.8867e-07
1.89542e-07
1.50501e-07
1.61583e-07
1.57041e-07
1.55173e-07
1.57149e-07
1.51539e-07
1.54748e-07
1.50408e-07
1.49736e-07
1.52841e-07
1.47584e-07
1.51445e-07
1.54857e-07
1.52587e-07
1.6172e-07
1.44511e-07
1.51785e-07
1.52484e-07
1.55377e-07
1.51649e-07
1.61846e-07
1.45436e-07
1.59461e-07
1.54383e-07
1.56269e-07
1.60908e-07
1.62336e-07
1.5095e-07
1.63713e-07
1.58109e-07
1.64986e-07
1.62536e-07
1.63339e-07
1.64312e-07
1.63252e-07
1.63223e-07
1.661e-07
1.66105e-07
1.8975e-07
1.85255e-07
1.88638e-07
1.93066e-07
1.89152e-07
1.90916e-07
1.85071e-07
1.84675e-07
1.87144e-07
1.82402e-07
1.79855e-07
1.81398e-07
1.79316e-07
1.81162e-07
1.7757e-07
1.9151e-07
1.92106e-07
1.90087e-07
1.89329e-07
1.92049e-07
1.74059e-07
1.76774e-07
1.71875e-07
1.75827e-07
1.75453e-07
1.76461e-07
1.70988e-07
1.64674e-07
1.72687e-07
1.67655e-07
1.64886e-07
1.66438e-07
1.8991e-07
1.9164e-07
1.92369e-07
1.89741e-07
1.90677e-07
1.9204e-07
1.9013e-07
1.90083e-07
1.75623e-07
1.72871e-07
1.77065e-07
1.70851e-07
1.71567e-07
1.72269e-07
1.78398e-07
1.7918e-07
1.79792e-07
1.77876e-07
1.76969e-07
1.83782e-07
1.82033e-07
1.86736e-07
1.73209e-07
1.76037e-07
1.8825e-07
1.90575e-07
1.90258e-07
1.86744e-07
1.74741e-07
1.72528e-07
1.68009e-07
1.69425e-07
1.73348e-07
1.72604e-07
1.75236e-07
1.92255e-07
1.895e-07
1.89826e-07
1.61309e-07
1.48717e-07
1.53567e-07
1.52457e-07
1.52927e-07
1.5851e-07
1.50743e-07
1.49069e-07
1.482e-07
1.52517e-07
1.48856e-07
1.50629e-07
1.44484e-07
1.5165e-07
1.56261e-07
1.48673e-07
1.50077e-07
1.50976e-07
1.46888e-07
1.44508e-07
1.6086e-07
1.5031e-07
1.59568e-07
1.54169e-07
1.47165e-07
1.52084e-07
1.62821e-07
1.60117e-07
1.58115e-07
1.61859e-07
1.56628e-07
1.60777e-07
1.63569e-07
1.64568e-07
1.6489e-07
1.62935e-07
1.64668e-07
1.64613e-07
1.63246e-07
1.90681e-07
1.90487e-07
1.88918e-07
1.908e-07
1.91348e-07
1.89183e-07
1.88048e-07
1.89262e-07
1.84051e-07
1.80942e-07
1.77337e-07
1.80562e-07
1.82382e-07
1.77264e-07
1.90258e-07
1.92152e-07
1.89896e-07
1.89609e-07
1.92292e-07
1.928e-07
1.7799e-07
1.77937e-07
1.75409e-07
1.7452e-07
1.75603e-07
1.76051e-07
1.66919e-07
1.59106e-07
1.7314e-07
1.65121e-07
1.65569e-07
1.63592e-07
1.66159e-07
1.89193e-07
1.91497e-07
1.91698e-07
1.90628e-07
1.91584e-07
1.88683e-07
1.89803e-07
1.73836e-07
1.72523e-07
1.75868e-07
1.73244e-07
1.69132e-07
1.71968e-07
1.72672e-07
1.73885e-07
1.71613e-07
1.79678e-07
1.76635e-07
1.80116e-07
1.76078e-07
1.77333e-07
1.75789e-07
1.81793e-07
1.83724e-07
1.8528e-07
1.86519e-07
1.77066e-07
1.88808e-07
1.90742e-07
1.89838e-07
1.90806e-07
1.74505e-07
1.711e-07
1.72122e-07
1.74054e-07
1.75159e-07
1.72065e-07
1.88423e-07
1.88968e-07
1.90348e-07
1.47151e-07
1.50617e-07
1.53084e-07
1.51366e-07
1.50214e-07
1.56681e-07
1.54161e-07
1.49124e-07
1.50667e-07
1.40594e-07
1.57602e-07
1.48444e-07
1.49694e-07
1.46455e-07
1.55288e-07
1.45082e-07
1.4313e-07
1.472e-07
1.45107e-07
1.50501e-07
1.47004e-07
1.46926e-07
1.4705e-07
1.55337e-07
1.55386e-07
1.48182e-07
1.43011e-07
1.61425e-07
1.50723e-07
1.61076e-07
1.49643e-07
1.46454e-07
1.5136e-07
1.56792e-07
1.64066e-07
1.66017e-07
1.67749e-07
1.62706e-07
1.63513e-07
1.65324e-07
1.55204e-07
1.53868e-07
1.90743e-07
1.90937e-07
1.91306e-07
1.89381e-07
1.92259e-07
1.91274e-07
1.89528e-07
1.89094e-07
1.86242e-07
1.86838e-07
1.80213e-07
1.83445e-07
1.81458e-07
1.81166e-07
1.7605e-07
1.83012e-07
1.91274e-07
1.90263e-07
1.91402e-07
1.88675e-07
1.92452e-07
1.90256e-07
1.78512e-07
1.75186e-07
1.75458e-07
1.74469e-07
1.75425e-07
1.69017e-07
1.66091e-07
1.64653e-07
1.65402e-07
1.66263e-07
1.64931e-07
1.65252e-07
1.62928e-07
1.89435e-07
1.91567e-07
1.92373e-07
1.91627e-07
1.90068e-07
1.92096e-07
1.91772e-07
1.91563e-07
1.91004e-07
1.73418e-07
1.71693e-07
1.69267e-07
1.75221e-07
1.7082e-07
1.72707e-07
1.72753e-07
1.74624e-07
1.75034e-07
1.79095e-07
1.75458e-07
1.80344e-07
1.74995e-07
1.76984e-07
1.76739e-07
1.81608e-07
1.8366e-07
1.8322e-07
1.8423e-07
1.73675e-07
1.86502e-07
1.88903e-07
1.9108e-07
1.91008e-07
1.74247e-07
1.73214e-07
1.71561e-07
1.70019e-07
1.74171e-07
1.66448e-07
1.6896e-07
1.8829e-07
1.89885e-07
1.90753e-07
1.50449e-07
1.54945e-07
1.50549e-07
1.47153e-07
1.47965e-07
1.47367e-07
1.51185e-07
1.53622e-07
1.50657e-07
1.49141e-07
1.57987e-07
1.56326e-07
1.48407e-07
1.46746e-07
1.39196e-07
1.4956e-07
1.45123e-07
1.54762e-07
1.45798e-07
1.5556e-07
1.45231e-07
1.47284e-07
1.44934e-07
1.45658e-07
1.52489e-07
1.50839e-07
1.48146e-07
1.58493e-07
1.56051e-07
1.53267e-07
1.52867e-07
1.51731e-07
1.49172e-07
1.49023e-07
1.6346e-07
1.62311e-07
1.66886e-07
1.62701e-07
1.61385e-07
1.63025e-07
1.60489e-07
1.5548e-07
1.90352e-07
1.90388e-07
1.91992e-07
1.9207e-07
1.91581e-07
1.90005e-07
1.90282e-07
1.88706e-07
1.88912e-07
1.88936e-07
1.81736e-07
1.8505e-07
1.8135e-07
1.78286e-07
1.81234e-07
1.83278e-07
1.79219e-07
1.89972e-07
1.91208e-07
1.91897e-07
1.88032e-07
1.90187e-07
1.91958e-07
1.7613e-07
1.68929e-07
1.73596e-07
1.72262e-07
1.75314e-07
1.67022e-07
1.65674e-07
1.63066e-07
1.66451e-07
1.58477e-07
1.63444e-07
1.64503e-07
1.63841e-07
1.8938e-07
1.8857e-07
1.91961e-07
1.89504e-07
1.89874e-07
1.90924e-07
1.91181e-07
1.895e-07
1.90202e-07
1.73006e-07
1.68089e-07
1.72902e-07
1.72639e-07
1.71573e-07
1.73679e-07
1.7161e-07
1.74094e-07
1.75234e-07
1.77214e-07
1.79673e-07
1.77017e-07
1.75984e-07
1.71531e-07
1.73407e-07
1.79351e-07
1.75331e-07
1.79585e-07
1.83411e-07
1.82292e-07
1.84849e-07
1.72065e-07
1.87662e-07
1.88875e-07
1.88026e-07
1.89973e-07
1.91371e-07
1.66786e-07
1.73281e-07
1.71221e-07
1.67867e-07
1.69907e-07
1.69684e-07
1.68445e-07
1.92302e-07
1.89093e-07
1.89695e-07
1.90938e-07
1.55965e-07
1.53904e-07
1.47518e-07
1.46698e-07
1.44621e-07
1.51022e-07
1.54029e-07
1.52598e-07
1.50167e-07
1.3667e-07
1.53029e-07
1.47291e-07
1.44789e-07
1.46947e-07
1.49298e-07
1.4782e-07
1.50765e-07
1.45039e-07
1.49986e-07
1.43786e-07
1.40794e-07
1.45774e-07
1.47416e-07
1.49972e-07
1.52207e-07
1.49006e-07
1.59074e-07
1.5493e-07
1.52602e-07
1.51108e-07
1.5212e-07
1.54179e-07
1.44836e-07
1.63074e-07
1.58252e-07
1.54208e-07
1.6257e-07
1.60861e-07
1.5481e-07
1.54992e-07
1.5784e-07
1.58822e-07
1.88503e-07
1.87628e-07
1.89929e-07
1.91905e-07
1.91944e-07
1.91141e-07
1.90626e-07
1.88623e-07
1.86948e-07
1.893e-07
1.88528e-07
1.79352e-07
1.89256e-07
1.78661e-07
1.76401e-07
1.81937e-07
1.87748e-07
1.84271e-07
1.88069e-07
1.90999e-07
1.92162e-07
1.91706e-07
1.91372e-07
1.91283e-07
1.91826e-07
1.78224e-07
1.74152e-07
1.74235e-07
1.73518e-07
1.67225e-07
1.6705e-07
1.65997e-07
1.66121e-07
1.60663e-07
1.63542e-07
1.64489e-07
1.64063e-07
1.90877e-07
1.88535e-07
1.92368e-07
1.91912e-07
1.90086e-07
1.90935e-07
1.91485e-07
1.91523e-07
1.91301e-07
1.91196e-07
1.73171e-07
1.73139e-07
1.70545e-07
1.69535e-07
1.73692e-07
1.71519e-07
1.72398e-07
1.74087e-07
1.7494e-07
1.73383e-07
1.78454e-07
1.75825e-07
1.77746e-07
1.7514e-07
1.71567e-07
1.79642e-07
1.77415e-07
1.789e-07
1.79675e-07
1.85617e-07
1.83172e-07
1.66972e-07
1.87514e-07
1.87891e-07
1.89032e-07
1.89562e-07
1.90303e-07
1.66323e-07
1.67769e-07
1.63635e-07
1.70441e-07
1.71808e-07
1.69755e-07
1.69188e-07
1.68664e-07
1.88198e-07
1.88614e-07
1.90467e-07
1.91466e-07
1.51643e-07
1.45508e-07
1.46091e-07
1.39544e-07
1.46032e-07
1.39571e-07
1.466e-07
1.51929e-07
1.53101e-07
1.50733e-07
1.43152e-07
1.30721e-07
1.46531e-07
1.50017e-07
1.50138e-07
1.49427e-07
1.53577e-07
1.47821e-07
1.43077e-07
1.43834e-07
1.43251e-07
1.48733e-07
1.53039e-07
1.40942e-07
1.51841e-07
1.50354e-07
1.49714e-07
1.53849e-07
1.57497e-07
1.54234e-07
1.46347e-07
1.4896e-07
1.48693e-07
1.51918e-07
1.54444e-07
1.61213e-07
1.56351e-07
1.58085e-07
1.62094e-07
1.6094e-07
1.59075e-07
1.56892e-07
1.57709e-07
1.58804e-07
1.8884e-07
1.89233e-07
1.91443e-07
1.91063e-07
1.90362e-07
1.90341e-07
1.86283e-07
1.87077e-07
1.87973e-07
1.86627e-07
1.84898e-07
1.87337e-07
1.81572e-07
1.76694e-07
1.73513e-07
1.86236e-07
1.88168e-07
1.88013e-07
1.9065e-07
1.913e-07
1.91163e-07
1.91696e-07
1.91679e-07
1.91255e-07
1.74783e-07
1.76361e-07
1.67483e-07
1.66977e-07
1.63412e-07
1.75611e-07
1.67744e-07
1.66114e-07
1.66112e-07
1.63854e-07
1.63183e-07
1.6483e-07
1.6464e-07
1.89898e-07
1.89564e-07
1.90774e-07
1.88761e-07
1.90518e-07
1.90718e-07
1.9068e-07
1.91376e-07
1.90599e-07
1.90444e-07
1.72231e-07
1.7262e-07
1.6665e-07
1.71091e-07
1.70889e-07
1.68431e-07
1.68395e-07
1.69021e-07
1.72955e-07
1.73846e-07
1.73914e-07
1.74992e-07
1.74883e-07
1.71792e-07
1.75672e-07
1.7524e-07
1.70295e-07
1.82721e-07
1.78778e-07
1.82732e-07
1.83015e-07
1.85814e-07
1.86682e-07
1.88131e-07
1.89119e-07
1.89032e-07
1.8974e-07
1.90807e-07
1.90108e-07
1.64633e-07
1.67481e-07
1.66071e-07
1.70172e-07
1.71981e-07
1.68326e-07
1.62515e-07
1.68974e-07
1.88034e-07
1.8965e-07
1.89966e-07
1.91384e-07
1.42885e-07
1.46748e-07
1.47823e-07
1.47636e-07
1.41915e-07
1.49923e-07
1.4319e-07
1.48084e-07
1.47789e-07
1.49867e-07
1.34563e-07
1.44604e-07
1.46807e-07
1.49139e-07
1.51354e-07
1.40542e-07
1.52051e-07
1.53535e-07
1.48876e-07
1.46241e-07
1.52173e-07
1.50783e-07
1.51081e-07
1.46784e-07
1.49332e-07
1.45758e-07
1.52448e-07
1.51355e-07
1.52152e-07
1.56557e-07
1.55008e-07
1.50923e-07
1.52145e-07
1.45826e-07
1.41158e-07
1.5383e-07
1.57626e-07
1.63146e-07
1.64668e-07
1.65184e-07
1.62887e-07
1.61053e-07
1.60439e-07
1.586e-07
1.57669e-07
1.89229e-07
1.88017e-07
1.91116e-07
1.91945e-07
1.90562e-07
1.90112e-07