/*--------------------------------*- C++ -*----------------------------------*\
| =========                 |                                                 |
| \\      /  F ield         | OpenFOAM: The Open Source CFD Toolbox           |
|  \\    /   O peration     | Version:  v2012                                 |
|   \\  /    A nd           | Website:  www.openfoam.com                      |
|    \\/     M anipulation  |                                                 |
\*---------------------------------------------------------------------------*/
FoamFile
{
    version     2.0;
    format      ascii;
    class       volVectorField;
    location    "0.6";
    object      U;
}
// * * * * * * * * * * * * * * * * * * * * * * * * * * * * * * * * * * * * * //

dimensions      [0 1 -1 0 0 0 0];


internalField   nonuniform List<vector> 
13611
(
(8.09686 -0.0463797 0)
(8.13598 -0.0381396 0)
(8.13706 -0.173544 0)
(8.17071 -0.0831019 1.3676e-23)
(8.19069 -0.0794053 -6.65128e-23)
(8.19597 -0.0839155 6.0828e-24)
(8.11512 -0.0597138 2.01014e-22)
(8.17494 -0.122192 -1.29021e-22)
(8.22507 -0.0843843 3.0977e-24)
(8.19289 -0.0871451 -2.73072e-23)
(8.19344 -0.0958031 3.8507e-23)
(8.09577 -0.0520525 -1.24837e-22)
(8.16567 -0.0926796 -1.33353e-22)
(8.1877 -0.203702 -2.64127e-22)
(8.22166 -0.0944018 6.25018e-24)
(8.19329 -0.088965 -1.60628e-23)
(8.20328 -0.102263 -3.98296e-23)
(8.1875 -0.095009 4.26231e-23)
(8.10234 -0.0343717 8.57641e-23)
(8.16513 -0.099902 2.01186e-23)
(8.19125 -0.13126 6.67429e-23)
(8.23974 -0.0977442 0)
(8.23275 -0.103439 0)
(8.21645 -0.101654 -4.84664e-23)
(8.19998 -0.111728 2.22372e-23)
(8.18103 -0.107297 -4.01743e-23)
(8.12307 -0.0758469 1.95204e-22)
(8.16525 -0.105349 -4.57408e-23)
(8.15775 -0.160371 -1.21379e-22)
(8.24709 -0.103038 7.57638e-24)
(8.23079 -0.114662 -3.42291e-23)
(8.22207 -0.115442 -3.37001e-23)
(8.20778 -0.123798 -2.61291e-23)
(8.18676 -0.114968 2.58867e-23)
(8.1714 -0.11013 -4.10786e-23)
(8.11387 -0.0856035 6.73843e-23)
(8.14644 -0.104006 -1.43981e-23)
(8.17808 -0.130606 1.05552e-22)
(8.24641 -0.112368 1.33204e-24)
(8.23282 -0.124272 -3.66714e-23)
(8.21713 -0.124794 -1.89394e-23)
(8.20152 -0.131226 -5.35985e-24)
(8.18768 -0.126335 0)
(8.16859 -0.124294 1.57992e-23)
(8.09273 -0.099479 -2.63114e-23)
(8.14768 -0.110062 1.41426e-23)
(8.12033 -0.188554 0)
(8.11583 -0.0993811 -3.00179e-23)
(8.24063 -0.123227 -4.00761e-23)
(8.25622 -0.115028 -4.22966e-24)
(8.2269 -0.134183 -8.11999e-24)
(8.2176 -0.133946 6.84997e-24)
(8.1993 -0.138898 1.52063e-23)
(8.18108 -0.132542 0)
(8.17311 -0.132639 1.26191e-23)
(8.15923 -0.126642 2.47241e-23)
(8.12084 -0.115772 0)
(8.1505 -0.120341 3.69123e-23)
(8.13974 -0.134729 0)
(8.13566 -0.0879459 7.72389e-26)
(8.24796 -0.132829 8.77364e-24)
(8.25744 -0.128519 1.27065e-23)
(8.22752 -0.144744 1.17848e-23)
(8.21107 -0.14369 -3.0227e-25)
(8.27501 -0.123662 -2.4913e-24)
(8.19238 -0.145948 5.60821e-24)
(8.20438 -0.144345 1.50196e-23)
(8.18394 -0.144063 0)
(8.16908 -0.141116 4.96554e-24)
(8.15509 -0.138012 -2.59719e-23)
(8.11679 -0.121323 0)
(8.14309 -0.124072 1.07331e-23)
(8.07151 -0.188756 -2.31331e-22)
(8.12633 -0.111363 0)
(8.24557 -0.144792 0)
(8.26575 -0.13155 0)
(8.22073 -0.153257 1.9123e-23)
(8.23678 -0.149132 1.85521e-23)
(8.21242 -0.15367 1.68766e-23)
(8.19231 -0.154439 0)
(8.19924 -0.153634 8.02753e-24)
(8.17812 -0.153052 -2.4546e-23)
(8.16043 -0.143901 -3.06653e-23)
(8.17138 -0.151934 -2.36446e-23)
(8.1465 -0.141067 8.26225e-24)
(8.12353 -0.122354 0)
(8.14101 -0.135846 1.40602e-25)
(8.08846 -0.171606 2.48282e-22)
(8.13101 -0.113072 -1.83762e-23)
(8.25545 -0.155298 3.40759e-24)
(8.26778 -0.140465 0)
(8.22457 -0.162919 0)
(8.23418 -0.161343 1.88212e-24)
(8.20819 -0.16243 -4.7924e-25)
(8.28364 -0.141124 0)
(8.18662 -0.162111 -1.48199e-23)
(8.19978 -0.161105 -8.19981e-24)
(8.17925 -0.161791 -1.03268e-24)
(8.15745 -0.152891 0)
(8.16497 -0.158021 0)
(8.14176 -0.150413 1.94936e-23)
(8.11882 -0.117966 3.30644e-23)
(8.13371 -0.139727 0)
(8.08994 -0.106679 -3.95613e-22)
(8.13548 -0.119413 -7.49884e-23)
(8.26597 -0.1521 -1.12465e-23)
(8.25361 -0.168665 4.50201e-24)
(8.21798 -0.173334 -2.98901e-24)
(8.24107 -0.170696 0)
(8.21032 -0.173766 -5.01038e-25)
(8.29128 -0.150399 8.8419e-25)
(8.30291 -0.151481 2.09018e-24)
(8.18707 -0.171488 -2.06745e-24)
(8.19508 -0.171008 -1.00304e-23)
(8.17379 -0.168262 1.3692e-23)
(8.15062 -0.160478 0)
(8.16173 -0.167375 1.96733e-23)
(8.14435 -0.159666 9.66011e-24)
(8.13371 -0.153308 -7.87252e-24)
(8.11042 -0.12144 7.6595e-24)
(8.12499 -0.134802 0)
(8.12671 -0.14795 -5.25802e-23)
(8.09639 -0.185991 2.91723e-22)
(8.11339 -0.0819675 -8.96965e-23)
(8.14339 -0.121822 0)
(8.28086 -0.159099 -1.1371e-23)
(8.26342 -0.178661 -8.33214e-24)
(8.22207 -0.180454 -1.76564e-23)
(8.23558 -0.178976 -9.90735e-24)
(8.20262 -0.178973 0)
(8.30782 -0.165064 1.37548e-23)
(8.18134 -0.178453 -1.31203e-23)
(8.17504 -0.177 -1.42545e-23)
(8.16565 -0.171152 2.12106e-23)
(8.15278 -0.169755 -1.06153e-23)
(8.13672 -0.166666 -6.62226e-25)
(8.13063 -0.163357 0)
(8.1054 -0.121758 -2.15289e-23)
(8.11947 -0.137681 2.27227e-23)
(8.11873 -0.15365 -2.69652e-23)
(8.11211 -0.13386 0)
(8.10077 -0.0971601 0)
(8.12862 -0.122351 0)
(8.28469 -0.170221 5.15056e-24)
(8.25911 -0.188447 -1.47726e-23)
(8.27732 -0.178699 -7.2418e-24)
(8.22033 -0.189251 -1.24526e-23)
(8.2409 -0.188083 0)
(8.19894 -0.186423 2.10346e-24)
(8.29991 -0.17349 1.27942e-23)
(8.32055 -0.16838 1.78983e-23)
(8.1819 -0.187424 6.39195e-24)
(8.16881 -0.182619 -7.04411e-24)
(8.16116 -0.178767 4.11002e-24)
(8.14658 -0.178064 -1.17821e-23)
(8.13361 -0.173636 1.94147e-23)
(8.12308 -0.166491 0)
(8.09447 -0.122339 -5.29845e-25)
(8.10757 -0.130986 2.18165e-23)
(8.11021 -0.144408 1.74777e-23)
(8.11818 -0.163243 1.59101e-23)
(8.11196 -0.152244 1.44491e-23)
(8.08536 -0.175531 0)
(8.08863 -0.0704365 0)
(8.12482 -0.124131 0)
(8.25002 -0.19157 -5.22634e-24)
(8.267 -0.199386 0)
(8.28402 -0.19101 1.91481e-23)
(8.21316 -0.195833 -6.83237e-24)
(8.23311 -0.194249 -1.5592e-24)
(8.18961 -0.190617 2.1886e-24)
(8.20507 -0.193921 5.16872e-24)
(8.30424 -0.186146 1.42583e-23)
(8.32479 -0.179848 4.11256e-24)
(8.1745 -0.192334 5.56532e-24)
(8.16833 -0.189959 5.86921e-25)
(8.15568 -0.185969 1.01148e-23)
(8.13934 -0.17936 2.28828e-23)
(8.14879 -0.186146 -6.24194e-24)
(8.12375 -0.179777 -5.42768e-24)
(8.11797 -0.17655 2.16085e-23)
(8.10715 -0.126944 6.60775e-24)
(8.10006 -0.132277 0)
(8.09911 -0.147253 1.67747e-24)
(8.11193 -0.167566 1.6893e-23)
(8.10311 -0.159616 8.43314e-24)
(8.09006 -0.130114 2.25592e-23)
(8.08478 -0.0836556 3.9215e-23)
(8.25088 -0.205993 -1.18626e-23)
(8.27768 -0.200048 7.0539e-24)
(8.26005 -0.209652 -1.29594e-23)
(8.29642 -0.193755 1.24651e-23)
(8.2173 -0.206532 0)
(8.23461 -0.2035 1.32303e-24)
(8.19058 -0.201621 -1.98543e-23)
(8.19953 -0.203348 -1.55542e-23)
(8.31702 -0.18941 1.79314e-23)
(8.33698 -0.180755 -3.37588e-24)
(8.17536 -0.201748 -1.51063e-23)
(8.15956 -0.193448 -1.02021e-24)
(8.13352 -0.188145 1.27717e-23)
(8.14359 -0.194857 -6.99606e-24)
(8.12416 -0.187734 -5.06429e-24)
(8.11129 -0.179149 1.23299e-23)
(8.10596 -0.12181 -2.7308e-23)
(8.09397 -0.126662 0)
(8.09416 -0.141624 0)
(8.09522 -0.156224 3.47311e-23)
(8.10349 -0.165427 6.41676e-24)
(8.10899 -0.175018 0)
(8.07995 -0.0710695 2.35838e-23)
(8.06001 -0.170029 0)
(8.101 -0.115617 0)
(8.24464 -0.210066 -2.10855e-24)
(8.28107 -0.210667 0)
(8.26421 -0.217363 0)
(8.29921 -0.207474 1.35547e-23)
(8.21307 -0.21374 -2.42637e-25)
(8.2272 -0.20805 4.83762e-25)
(8.18336 -0.206731 -1.37921e-23)
(8.20331 -0.212513 -9.20627e-25)
(8.31999 -0.20211 0)
(8.34127 -0.193648 0)
(8.1676 -0.206143 -1.58963e-23)
(8.15859 -0.201198 -1.66964e-23)
(8.13532 -0.194538 6.02274e-24)
(8.14561 -0.201791 0)
(8.11843 -0.194748 0)
(8.10391 -0.186242 -1.83607e-24)
(8.09743 -0.121447 -1.95096e-23)
(8.08583 -0.130491 -1.19867e-23)
(8.08433 -0.143955 0)
(8.08509 -0.161426 2.71983e-23)
(8.09658 -0.171446 0)
(8.09989 -0.177834 0)
(8.08085 -0.0890089 -3.06479e-23)
(8.07331 -0.112177 -5.06721e-23)
(8.09254 -0.109276 0)
(8.24092 -0.21979 -3.09088e-24)
(8.27495 -0.217647 0)
(8.29202 -0.213836 0)
(8.25913 -0.225627 0)
(8.31067 -0.211666 1.44603e-23)
(8.21598 -0.222296 -1.02022e-23)
(8.23072 -0.218248 7.68126e-25)
(8.18258 -0.216669 0)
(8.19787 -0.21847 2.59281e-24)
(8.33262 -0.204271 -5.63231e-24)
(8.16743 -0.214152 -3.63836e-25)
(8.1529 -0.204467 -2.33704e-25)
(8.13082 -0.202003 0)
(8.14266 -0.210062 5.68534e-24)
(8.11231 -0.195225 0)
(8.12338 -0.202374 0)
(8.10629 -0.191434 0)
(8.09574 -0.183702 2.70597e-23)
(8.09245 -0.112187 4.59711e-24)
(8.07924 -0.127039 -1.35062e-23)
(8.08093 -0.139243 0)
(8.07703 -0.151996 -6.70726e-24)
(8.07806 -0.159152 -9.72622e-24)
(8.08241 -0.170281 0)
(8.088 -0.173993 0)
(8.07534 -0.0647009 0)
(8.08661 -0.10735 -2.22877e-24)
(8.04585 -0.148485 1.41902e-22)
(8.24342 -0.227037 7.97406e-24)
(8.27873 -0.22649 -3.74252e-24)
(8.28927 -0.225891 -3.29405e-24)
(8.26431 -0.23546 0)
(8.25143 -0.23014 0)
(8.31344 -0.223039 1.52382e-23)
(8.22438 -0.224568 -1.00786e-23)
(8.21007 -0.228984 0)
(8.17513 -0.219503 0)
(8.18993 -0.221459 2.26034e-24)
(8.20248 -0.227793 0)
(8.33316 -0.214901 -3.06956e-24)
(8.16045 -0.219291 1.2579e-24)
(8.1543 -0.215892 9.41567e-26)
(8.13475 -0.209909 0)
(8.14806 -0.218247 5.13338e-24)
(8.10994 -0.204284 -3.51286e-24)
(8.11996 -0.210841 7.25271e-24)
(8.10013 -0.197743 -4.1051e-24)
(8.08873 -0.186772 2.50563e-23)
(8.08637 -0.111053 -1.13381e-23)
(8.07861 -0.119877 -1.77899e-24)
(8.06961 -0.133101 0)
(8.07016 -0.140399 0)
(8.06667 -0.15287 -1.64465e-23)
(8.06706 -0.164202 -5.62117e-24)
(8.07431 -0.174372 0)
(8.08209 -0.182919 5.30425e-24)
(8.06887 -0.0843294 1.15832e-23)
(8.0766 -0.110578 -1.16858e-23)
(8.0488 -0.136034 1.50315e-24)
(8.23537 -0.234422 8.36468e-24)
(8.27295 -0.234824 0)
(8.29472 -0.233562 0)
(8.25804 -0.244942 -1.35294e-23)
(8.25035 -0.243178 -1.36146e-23)
(8.30675 -0.233421 1.76144e-24)
(8.32492 -0.224456 1.6821e-23)
(8.22616 -0.232787 4.97731e-25)
(8.21176 -0.237616 0)
(8.17264 -0.227928 -7.69987e-24)
(8.18958 -0.230575 -2.58631e-25)
(8.19695 -0.233737 0)
(8.34502 -0.220314 0)
(8.35533 -0.217174 -5.22347e-24)
(8.16275 -0.226545 -1.48051e-24)
(8.131 -0.218193 -2.15644e-24)
(8.14478 -0.225985 -6.19935e-25)
(8.10306 -0.205096 -8.1819e-24)
(8.11311 -0.210757 2.68601e-24)
(8.12349 -0.21792 6.6657e-24)
(8.09391 -0.197621 0)
(8.08877 -0.192834 0)
(8.08149 -0.106946 3.98127e-23)
(8.0673 -0.118292 0)
(8.05958 -0.13311 7.75623e-24)
(8.0632 -0.146601 -4.94826e-23)
(8.06072 -0.160221 -1.98571e-24)
(8.06626 -0.170369 3.38357e-24)
(8.06947 -0.182532 6.33142e-24)
(8.07483 -0.186573 -5.15213e-24)
(8.06414 -0.0803429 -2.15544e-23)
(8.04217 -0.0808913 -2.98578e-22)
(8.23518 -0.245243 0)
(8.27837 -0.244491 0)
(8.28851 -0.243811 0)
(8.26157 -0.251616 -6.23205e-24)
(8.24301 -0.249068 0)
(8.31091 -0.245258 1.12682e-23)
(8.33038 -0.232831 4.97754e-24)
(8.2191 -0.239577 -2.66141e-26)
(8.2047 -0.244237 -1.07443e-23)
(8.17654 -0.233758 -3.76826e-24)
(8.18411 -0.235744 0)
(8.19753 -0.241516 -1.97422e-23)
(8.34418 -0.232453 4.02127e-24)
(8.36617 -0.228893 -4.26191e-24)
(8.15866 -0.234126 0)
(8.13513 -0.226022 -5.68907e-24)
(8.149 -0.232512 2.85646e-24)
(8.09866 -0.211509 -7.01908e-24)
(8.1087 -0.218185 -4.83722e-24)
(8.11917 -0.225749 4.26492e-24)
(8.0896 -0.205127 0)
(8.08271 -0.197009 0)
(8.07761 -0.10543 2.58126e-23)
(8.05855 -0.12509 7.33042e-24)
(8.06635 -0.111751 -1.09756e-24)
(8.04963 -0.14052 -3.58148e-23)
(8.05226 -0.147464 -3.69191e-23)
(8.04917 -0.162618 0)
(8.05627 -0.177181 4.73252e-24)
(8.06 -0.184794 9.85189e-24)
(8.07563 -0.193681 -1.09634e-23)
(8.0773 -0.0860702 0)
(8.05527 -0.132133 2.03305e-22)
(8.05736 -0.0550055 -9.19903e-23)
(8.22649 -0.251777 1.2669e-23)
(8.27332 -0.252373 0)
(8.29401 -0.251669 0)
(8.25756 -0.259848 -4.83426e-24)
(8.24158 -0.258642 0)
(8.32079 -0.249958 6.54065e-24)
(8.30579 -0.251895 5.00054e-24)
(8.3288 -0.2458 5.09924e-25)
(8.21851 -0.249532 1.18299e-23)
(8.20422 -0.252541 -1.05819e-23)
(8.17165 -0.243144 -8.83935e-24)
(8.18435 -0.244471 0)
(8.19005 -0.246722 -8.51776e-24)
(8.35159 -0.243114 0)
(8.36255 -0.242201 -5.22276e-24)
(8.16434 -0.244068 0)
(8.15302 -0.233968 1.13279e-24)
(8.13056 -0.23139 -1.69237e-24)
(8.14403 -0.238878 -1.04393e-23)
(8.09152 -0.210548 0)
(8.10142 -0.217698 -7.51773e-24)
(8.11154 -0.225582 0)
(8.123 -0.231827 -1.83043e-24)
(8.08263 -0.203708 0)
(8.07872 -0.098233 -1.57627e-23)
(8.04623 -0.125894 -1.37145e-25)
(8.05969 -0.108854 0)
(8.03847 -0.140989 -3.54604e-23)
(8.04377 -0.156304 0)
(8.04408 -0.169086 0)
(8.04975 -0.176119 0)
(8.05852 -0.189784 -1.10238e-23)
(8.06903 -0.19899 -1.03897e-23)
(8.07794 -0.0952888 -1.05685e-24)
(8.0581 -0.0974898 1.00299e-22)
(8.04439 -0.0663575 1.09733e-22)
(8.22594 -0.259633 -1.65886e-24)
(8.27558 -0.262464 2.63421e-24)
(8.29172 -0.262712 0)
(8.24885 -0.263652 0)
(8.26629 -0.266808 3.15525e-24)
(8.23407 -0.262954 -5.60823e-24)
(8.31891 -0.262765 -3.16399e-24)
(8.3101 -0.263084 0)
(8.34222 -0.253855 -3.04402e-24)
(8.21112 -0.255275 -1.04804e-23)
(8.19673 -0.258134 -1.09407e-23)
(8.17603 -0.249716 -8.88261e-24)
(8.18927 -0.255346 -1.57664e-23)
(8.37255 -0.251997 1.59054e-23)
(8.15853 -0.253566 -6.25772e-24)
(8.14837 -0.242744 -4.46154e-24)
(8.13182 -0.239712 6.11189e-24)
(8.13759 -0.242668 -2.34002e-25)
(8.08704 -0.216697 0)
(8.09708 -0.224066 0)
(8.10692 -0.232059 -2.86318e-24)
(8.12026 -0.237149 8.45487e-24)
(8.07735 -0.208521 4.5938e-24)
(8.06869 -0.0961535 0)
(8.04283 -0.118799 -1.3368e-25)
(8.03475 -0.134071 0)
(8.06082 -0.101301 -2.71099e-23)
(8.04867 -0.111838 -4.77194e-24)
(8.02977 -0.148787 0)
(8.03398 -0.155959 0)
(8.0378 -0.172131 1.24584e-23)
(8.04549 -0.182172 -2.1419e-24)
(8.05215 -0.19246 -1.38997e-23)
(8.06367 -0.197392 4.73726e-24)
(8.07053 -0.206684 5.22331e-24)
(8.07148 -0.0855047 0)
(8.02807 -0.0542628 -2.11147e-23)
(8.04182 -0.122151 5.08246e-23)
(8.06364 -0.0876162 -1.46644e-23)
(8.22625 0.0817023 4.6399e-24)
(8.1783 0.101866 0)
(8.21896 -0.267494 1.73475e-23)
(8.28307 -0.266654 3.97868e-25)
(8.3016 -0.270094 0)
(8.24848 -0.274084 2.64111e-24)
(8.26581 -0.27671 0)
(8.23273 -0.273925 0)
(8.32688 -0.2695 -2.27102e-24)
(8.34585 -0.263649 -1.72677e-23)
(8.21118 -0.265238 1.17664e-23)
(8.19644 -0.266914 -4.88636e-24)
(8.17436 -0.256827 8.9585e-24)
(8.18183 -0.260443 -4.44507e-24)
(8.38684 -0.249322 6.95259e-24)
(8.36609 -0.261205 8.27354e-24)
(8.15122 -0.251582 -8.52556e-25)
(8.16023 -0.259026 -2.23218e-24)
(8.12667 -0.24237 0)
(8.13845 -0.251705 0)
(8.07938 -0.215416 5.24016e-24)
(8.08992 -0.223277 0)
(8.09981 -0.230804 -5.77863e-24)
(8.10887 -0.239105 -4.2216e-24)
(8.11487 -0.240722 5.5221e-24)
(8.06693 -0.0888838 2.80034e-23)
(8.02821 -0.119323 5.1504e-24)
(8.02422 -0.133999 -1.11356e-24)
(8.04987 -0.0994449 -2.29703e-23)
(8.04294 -0.105411 3.59305e-23)
(8.02 -0.148838 0)
(8.02862 -0.162388 0)
(8.03912 -0.180329 0)
(8.03158 -0.16946 1.03935e-23)
(8.04633 -0.188516 -1.41828e-24)
(8.05197 -0.200653 6.05245e-24)
(8.05844 -0.203307 3.13552e-24)
(8.06598 -0.21279 5.51648e-24)
(8.03334 -0.0430421 7.19105e-23)
(8.03759 -0.0850652 -1.19634e-22)
(8.06654 -0.0835588 1.36275e-23)
(8.23441 0.0842284 2.06485e-23)
(8.21948 0.0977823 1.8422e-23)
(8.23424 0.0887819 1.72958e-23)
(8.17159 0.0308262 -9.59182e-23)
(8.16691 0.190945 0)
(8.22257 -0.275499 5.13632e-24)
(8.28365 -0.279116 -7.96124e-24)
(8.30315 -0.278305 -5.78828e-24)
(8.25579 -0.279451 1.44436e-24)
(8.23987 -0.278325 2.97466e-24)
(8.275 -0.283517 0)
(8.33876 -0.270867 0)
(8.32234 -0.281081 0)
(8.35745 -0.266983 -1.60866e-23)
(8.20376 -0.27057 0)
(8.18827 -0.271794 -4.80121e-24)
(8.16831 -0.260007 1.02546e-23)
(8.18129 -0.268631 0)
(8.37101 -0.269743 3.66954e-24)
(8.14503 -0.255099 0)
(8.15594 -0.265916 1.10817e-23)
(8.12421 -0.248339 4.79935e-24)
(8.132 -0.256674 -8.21189e-25)
(8.07478 -0.222016 7.74144e-24)
(8.08596 -0.228324 0)
(8.0946 -0.236782 -6.00514e-24)
(8.10301 -0.245557 0)
(8.11653 -0.247766 4.26193e-24)
(8.05843 -0.0881243 2.58493e-23)
(8.02399 -0.113453 -2.50778e-23)
(8.0195 -0.126862 -1.82266e-23)
(8.01586 -0.142034 0)
(8.04841 -0.0932703 2.06445e-24)
(8.03323 -0.105987 2.62957e-23)
(8.01663 -0.155086 -1.66068e-24)
(8.02213 -0.161776 -1.4141e-24)
(8.03401 -0.18369 -6.02688e-24)
(8.02588 -0.175538 0)
(8.03948 -0.193733 0)
(8.04572 -0.204612 1.24203e-23)
(8.05922 -0.210034 2.39389e-24)
(8.06767 -0.220298 0)
(8.04947 -0.0611396 7.58038e-23)
(8.0067 -0.103831 5.83918e-23)
(8.06205 -0.0783594 0)
(8.05884 -0.0790977 3.44582e-23)
(8.22216 0.103337 -3.32835e-23)
(8.22152 0.105332 1.06031e-23)
(8.2144 0.0997107 -1.59185e-23)
(8.22953 0.100421 -2.9583e-24)
(8.16902 0.0681015 1.2046e-23)
(8.20417 0.125974 2.6902e-22)
(8.21754 -0.283237 1.79377e-24)
(8.29356 -0.283991 -7.58559e-24)
(8.31283 -0.284115 -7.81333e-24)
(8.25401 -0.290624 -5.67906e-24)
(8.23814 -0.28752 -1.14942e-23)
(8.2713 -0.291578 -8.49577e-25)
(8.33946 -0.285351 1.72278e-24)
(8.33 -0.290988 1.88281e-24)
(8.35652 -0.281229 0)
(8.20182 -0.2797 9.55425e-24)
(8.1865 -0.278604 -4.96326e-24)
(8.16783 -0.270249 0)
(8.1737 -0.273815 -4.47458e-25)
(8.38042 -0.26794 0)
(8.36425 -0.282398 0)
(8.14068 -0.262272 6.37745e-25)
(8.16132 -0.273379 0)
(8.14908 -0.270386 9.39803e-24)
(8.12632 -0.254899 3.33912e-24)
(8.13228 -0.262465 -1.9481e-24)
(8.07814 -0.228157 7.6122e-24)
(8.08826 -0.235087 -6.18409e-24)
(8.09637 -0.244259 0)
(8.10479 -0.251429 1.2759e-24)
(8.11232 -0.2522 5.21185e-24)
(8.01194 -0.112248 -2.70477e-23)
(8.01045 -0.12705 -1.81014e-23)
(8.00771 -0.141064 0)
(8.04099 -0.091259 -9.8623e-24)
(8.02589 -0.100546 1.01002e-23)
(8.00935 -0.158267 -2.05513e-23)
(8.01705 -0.168054 0)
(8.02747 -0.18178 -8.78682e-24)
(8.03393 -0.190544 -6.18679e-24)
(8.0189 -0.174146 2.16818e-24)
(8.03924 -0.201385 3.61475e-25)
(8.04562 -0.211677 0)
(8.05289 -0.214779 0)
(8.06146 -0.225417 0)
(8.04052 -0.0567654 0)
(8.01087 -0.0909374 -1.53865e-22)
(8.05638 -0.0702877 -1.41079e-23)
(8.05412 -0.0759161 9.21289e-24)
(8.22989 0.108379 1.0252e-23)
(8.21809 0.117404 2.6191e-24)
(8.20536 0.114917 1.38238e-23)
(8.2408 0.107602 3.32072e-23)
(8.23171 0.111952 3.48936e-23)
(8.26014 0.10957 -1.74849e-23)
(8.15932 0.0489426 0)
(8.18065 0.20012 -3.0001e-22)
(8.20836 -0.285083 9.40436e-24)
(8.22267 -0.290588 -3.53591e-24)
(8.29181 -0.294064 0)
(8.30827 -0.297613 7.73847e-24)
(8.262 -0.2964 -8.08924e-24)
(8.24575 -0.293899 -5.4821e-24)
(8.23104 -0.291235 -5.23589e-24)
(8.27619 -0.299071 3.94686e-24)
(8.34765 -0.289684 -9.15011e-25)
(8.32535 -0.300001 0)
(8.19437 -0.282657 0)
(8.18039 -0.284879 -4.62618e-24)
(8.17311 -0.282489 7.89779e-24)
(8.39496 -0.275699 -8.62464e-24)
(8.38452 -0.278616 -1.60427e-24)
(8.36834 -0.28879 1.74149e-24)
(8.143 -0.268634 0)
(8.15716 -0.280081 -3.02575e-24)
(8.14869 -0.279679 0)
(8.11935 -0.260514 2.23436e-24)
(8.12665 -0.268427 0)
(8.07476 -0.234644 -2.52889e-24)
(8.08108 -0.24 -8.41368e-24)
(8.08938 -0.249352 0)
(8.10049 -0.25876 1.00951e-23)
(8.11346 -0.258715 1.78907e-24)
(8.01185 -0.1042 -3.11579e-23)
(8.0049 -0.115634 -1.64437e-23)
(8.00612 -0.122578 0)
(8.00531 -0.135122 1.78025e-23)
(8.00292 -0.14698 0)
(8.04037 -0.0836664 -1.21014e-24)
(8.02854 -0.0944581 -1.11262e-23)
(8.00283 -0.154435 -1.24769e-23)
(8.00882 -0.165874 0)
(8.02198 -0.188434 1.1941e-23)
(8.02572 -0.194072 -6.19788e-24)
(8.01272 -0.180374 2.28476e-24)
(8.03215 -0.205415 -6.08753e-24)
(8.03896 -0.216015 0)
(8.0538 -0.222203 0)
(8.06136 -0.233742 7.07577e-24)
(8.05014 -0.0610356 2.38218e-25)
(8.01076 -0.0567794 0)
(8.05504 -0.0705822 -7.38678e-24)
(8.05259 -0.0662755 -1.50358e-25)
(8.0458 -0.0790361 -8.15577e-24)
(8.21527 0.111832 8.66076e-23)
(8.20886 0.123814 0)
(8.22049 0.128739 7.93388e-24)
(8.19506 0.124968 0)
(8.24923 0.114756 -1.66342e-23)
(8.22803 0.125493 0)
(8.27158 0.115571 -1.42446e-24)
(8.16133 0.0768135 -4.18677e-23)
(8.20951 0.140245 -1.97333e-22)
(8.20586 -0.295418 -1.49095e-24)
(8.21882 -0.298431 0)
(8.30017 -0.301088 2.02846e-24)
(8.2841 -0.300304 0)
(8.31414 -0.304033 7.6148e-24)
(8.26187 -0.304688 3.83754e-24)
(8.24235 -0.304258 8.97172e-25)
(8.23101 -0.300424 -1.4118e-24)
(8.27052 -0.306936 7.97264e-24)
(8.34761 -0.301146 8.03781e-24)
(8.32953 -0.30865 -1.10533e-23)
(8.19288 -0.291419 5.05301e-24)
(8.18383 -0.292119 -1.82703e-24)
(8.16725 -0.287183 7.8868e-24)
(8.37999 -0.287214 3.703e-24)
(8.36729 -0.299824 1.78901e-24)
(8.13619 -0.276526 -2.5255e-24)
(8.16 -0.285553 -2.38047e-24)
(8.14417 -0.285661 0)
(8.11935 -0.266997 -1.8773e-24)
(8.12848 -0.275244 0)
(8.06737 -0.237849 0)
(8.08127 -0.246073 0)
(8.08909 -0.255741 -3.43256e-24)
(8.10558 -0.263915 -1.04894e-24)
(8.09439 -0.260064 4.41931e-24)
(8.00302 -0.101798 -4.75737e-23)
(7.99629 -0.114132 -2.44892e-23)
(7.99823 -0.126097 0)
(7.99749 -0.132176 2.61683e-23)
(7.99288 -0.144113 0)
(8.02815 -0.0817453 0)
(8.02072 -0.088721 0)
(7.99284 -0.161045 6.63999e-25)
(8.00363 -0.170613 1.04567e-23)
(8.0144 -0.187614 1.23581e-23)
(8.02509 -0.200702 0)
(8.0048 -0.178331 -1.78358e-24)
(8.03179 -0.212362 0)
(8.03922 -0.222928 0)
(8.04679 -0.226319 8.47757e-25)
(8.05426 -0.236788 6.34584e-24)
(8.039 -0.0432358 0)
(8.01681 -0.0880032 0)
(8.04914 -0.0686913 0)
(8.05296 -0.0612518 0)
(8.04183 -0.07262 0)
(8.21164 0.123538 4.05489e-23)
(8.20577 0.136262 -9.33421e-24)
(8.21345 0.138683 6.14665e-24)
(8.18992 0.140123 0)
(8.19654 0.127602 0)
(8.24888 0.127101 3.94005e-24)
(8.2366 0.132593 0)
(8.27112 0.127195 -7.62053e-25)
(8.14873 0.0641229 1.04804e-22)
(8.17576 0.190048 2.73647e-22)
(8.19813 -0.297138 2.61809e-24)
(8.21099 -0.301342 -3.04507e-25)
(8.2234 -0.303669 -1.76594e-24)
(8.29478 -0.310851 -2.14697e-24)
(8.28599 -0.310989 -4.48249e-24)
(8.31256 -0.313786 0)
(8.25571 -0.31054 -6.48636e-25)
(8.23526 -0.305916 -2.39499e-24)
(8.24762 -0.311047 0)
(8.27217 -0.315609 0)
(8.35771 -0.306466 9.25377e-24)
(8.33861 -0.310061 -8.65071e-24)
(8.32167 -0.317507 -2.76363e-24)
(8.17967 -0.298744 5.14999e-25)
(8.16705 -0.296355 4.46109e-27)
(8.39407 -0.295542 -4.46557e-24)
(8.38541 -0.296772 -7.80846e-25)
(8.37828 -0.306452 0)
(8.13676 -0.284709 -2.17433e-24)
(8.15551 -0.292525 0)
(8.14758 -0.292419 0)
(8.11287 -0.272296 -3.66493e-24)
(8.12044 -0.282139 -1.35887e-24)
(8.06656 -0.246393 -1.08934e-24)
(8.07393 -0.250198 5.51449e-26)
(8.08137 -0.260523 0)
(8.10556 -0.269597 -7.19027e-25)
(8.08983 -0.267414 -5.5993e-24)
(8.00114 -0.09465 -3.27895e-23)
(7.99369 -0.107966 -1.6838e-23)
(7.99203 -0.120478 -6.23678e-24)
(7.99077 -0.136647 7.16999e-24)
(7.98552 -0.149518 -4.90973e-25)
(8.0244 -0.0759925 0)
(8.00897 -0.088744 -3.97358e-23)
(7.99441 -0.168734 7.5848e-24)
(7.98684 -0.158423 -7.45119e-25)
(8.0088 -0.193491 0)
(8.01793 -0.204006 -1.79134e-25)
(7.99805 -0.184028 0)
(8.02446 -0.217109 0)
(8.03256 -0.227702 -8.75264e-25)
(8.0471 -0.233122 4.3619e-24)
(8.05078 -0.243797 -1.74566e-24)
(8.03669 -0.0472494 -6.12753e-23)
(8.01628 -0.0610291 1.02821e-22)
(8.04907 -0.0632791 0)
(8.04845 -0.0590075 4.60815e-24)
(8.03264 -0.0704955 0)
(8.16573 0.0900395 2.29514e-23)
(8.19756 0.143387 -8.75944e-24)
(8.21639 0.147628 0)
(8.18295 0.150389 0)
(8.19257 0.129901 0)
(8.25919 0.132837 3.91858e-24)
(8.23641 0.143991 8.62282e-24)
(8.29501 0.125961 0)
(8.28238 0.13239 1.67155e-24)
(8.2006 0.151185 -2.01453e-22)
(8.19326 -0.304361 -8.05581e-25)
(8.20809 -0.309759 -3.03485e-25)
(8.2218 -0.310562 3.43503e-26)
(8.29713 -0.317621 7.8701e-24)
(8.27983 -0.318086 0)
(8.30522 -0.319832 7.59431e-24)
(8.2567 -0.320699 7.24748e-24)
(8.22924 -0.313207 -3.58033e-24)
(8.2426 -0.322434 3.68206e-24)
(8.26456 -0.32257 8.9709e-24)
(8.35654 -0.320524 0)
(8.33958 -0.324052 -1.14455e-23)
(8.3218 -0.327991 -3.61493e-24)
(8.1721 -0.300721 2.17939e-24)
(8.18467 -0.305146 -8.92088e-25)
(8.15908 -0.298433 -9.06619e-25)
(8.40048 -0.303871 -5.735e-24)
(8.37667 -0.316499 9.27655e-24)
(8.13111 -0.290206 7.34546e-25)
(8.14354 -0.300381 6.06787e-24)
(8.11307 -0.280018 6.9519e-24)
(8.12153 -0.289016 7.75271e-25)
(8.05898 -0.252132 -9.16427e-24)
(8.07371 -0.257719 1.51885e-24)
(8.08177 -0.267075 0)
(8.09938 -0.27403 0)
(8.09214 -0.272471 -4.65295e-24)
(7.99104 -0.0931574 6.22872e-24)
(7.98619 -0.106229 0)
(7.98428 -0.123836 3.17965e-23)
(7.98177 -0.132255 0)
(7.97763 -0.148279 -8.1838e-24)
(8.0113 -0.0759866 2.16173e-23)
(8.00296 -0.0809042 -6.07763e-25)
(7.98827 -0.173996 -1.35055e-23)
(7.97742 -0.160537 4.37893e-24)
(7.99972 -0.191569 0)
(8.01048 -0.200974 0)
(8.01672 -0.212873 1.07513e-25)
(7.99101 -0.182174 5.73149e-25)
(8.02456 -0.22463 -1.55989e-24)
(8.03262 -0.235427 -9.54472e-25)
(8.0395 -0.237658 3.18699e-24)
(8.04137 -0.243574 1.89518e-24)
(8.05266 -0.249633 -7.74044e-24)
(8.02224 -0.0304263 3.42369e-23)
(8.01053 -0.0743563 -1.05815e-22)
(8.04626 -0.0601754 2.68619e-24)
(8.05004 -0.0542807 1.97518e-23)
(8.03076 -0.0657765 -1.57813e-23)
(8.15184 0.111671 -4.4592e-24)
(8.1983 0.154933 0)
(8.22798 0.150443 -9.18419e-24)
(8.20838 0.15649 0)
(8.1733 0.1505 0)
(8.1831 0.159985 1.0682e-23)
(8.17505 0.131743 0)
(8.18043 0.142835 0)
(8.25899 0.144195 -8.27983e-24)
(8.24866 0.149687 1.55011e-23)
(8.29939 0.134404 -3.49475e-24)
(8.27848 0.144264 -2.82827e-25)
(8.14646 0.209273 -1.12128e-22)
(8.14778 0.105536 -8.58504e-23)
(8.1951 -0.312491 0)
(8.2014 -0.314801 1.8798e-25)
(8.21417 -0.314752 0)
(8.2902 -0.32818 -3.20717e-24)
(8.28164 -0.327426 0)
(8.30392 -0.333306 -8.50577e-24)
(8.24807 -0.328204 0)
(8.22995 -0.320239 -5.59282e-24)
(8.23585 -0.325325 -2.46549e-24)
(8.26609 -0.331958 -8.00307e-24)
(8.34756 -0.32777 -8.53182e-24)
(8.36567 -0.32444 0)
(8.33063 -0.331496 -3.16128e-24)
(8.31085 -0.335817 -1.31856e-23)
(8.16964 -0.309719 -6.25329e-25)
(8.18178 -0.312803 0)
(8.15613 -0.306059 -4.23898e-24)
(8.39564 -0.314957 -8.23678e-24)
(8.38472 -0.321083 1.01896e-23)
(8.13281 -0.296987 -4.15363e-24)
(8.13756 -0.300904 4.77815e-24)
(8.14836 -0.307533 -2.84571e-24)
(8.10593 -0.284507 7.68511e-24)
(8.11732 -0.294301 -2.81059e-24)
(8.05927 -0.261578 7.15977e-24)
(8.06683 -0.263961 0)
(8.07753 -0.27245 1.94819e-24)
(8.09934 -0.282045 -4.519e-24)
(8.08744 -0.2799 0)
(7.988 -0.0867937 -7.65455e-24)
(7.98418 -0.0991945 0)
(7.97866 -0.110898 0)
(7.97709 -0.118549 2.67568e-23)
(7.97335 -0.135773 0)
(7.9715 -0.143132 -7.45185e-24)
(7.97148 -0.155733 -7.91121e-24)
(8.0088 -0.069429 3.07598e-23)
(7.99405 -0.0803928 -2.89853e-23)
(7.97878 -0.176134 -1.41728e-23)
(7.97467 -0.165508 0)
(7.99188 -0.197196 -1.45225e-23)
(8.00162 -0.206498 0)
(8.00606 -0.219103 -1.66302e-23)
(7.98211 -0.188109 -1.9082e-24)
(8.01695 -0.228772 -1.50899e-24)
(8.02553 -0.239548 -3.91681e-24)
(8.03817 -0.249688 1.87484e-24)
(8.0443 -0.255133 8.89874e-25)
(8.0243 -0.0365489 -2.36785e-23)
(8.0065 -0.0566562 9.53236e-24)
(8.04821 -0.0538465 1.2083e-23)
(8.04022 -0.0590871 -1.93191e-24)
(8.04378 -0.0538599 -1.22504e-25)
(8.03474 -0.0609733 -9.81985e-24)
(8.01794 -0.064885 2.70809e-23)
(8.19205 0.161183 0)
(8.23051 0.163006 -7.01062e-24)
(8.2116 0.166055 0)
(8.1653 0.162266 1.07812e-23)
(8.17894 0.168562 2.01462e-23)
(8.17021 0.134126 0)
(8.17146 0.148229 0)
(8.26925 0.149627 -8.36784e-24)
(8.24942 0.160454 0)
(8.29389 0.146154 -8.37173e-24)
(8.28242 0.149985 -1.5845e-24)
(8.16392 0.155386 8.08976e-23)
(8.16158 0.0955888 -4.95481e-24)
(8.18741 -0.317539 0)
(8.20208 -0.324461 1.97705e-25)
(8.21468 -0.322445 5.56481e-24)
(8.29443 -0.337207 -1.17391e-24)
(8.27421 -0.334411 -7.61689e-24)
(8.24875 -0.336064 4.04377e-24)
(8.22237 -0.325291 0)
(8.2311 -0.334721 0)
(8.25717 -0.338712 4.87254e-24)
(8.34548 -0.341027 -3.69852e-24)
(8.36352 -0.335328 0)
(8.32813 -0.343644 3.1053e-25)
(8.30938 -0.345027 0)
(8.16137 -0.312188 0)
(8.17439 -0.315309 0)
(8.40331 -0.320784 -9.98665e-24)
(8.38108 -0.335254 0)
(8.12758 -0.301186 -5.11952e-24)
(8.13296 -0.308995 0)
(8.14396 -0.3137 -1.38677e-24)
(8.10606 -0.290669 0)
(8.11128 -0.294849 -2.40734e-24)
(8.12133 -0.300489 3.79411e-25)
(8.05237 -0.266336 7.63653e-24)
(8.06881 -0.271277 0)
(8.08045 -0.279522 1.99345e-24)
(8.09153 -0.285205 -4.42166e-24)
(7.97807 -0.0839482 -1.34311e-24)
(7.9758 -0.096942 0)
(7.96905 -0.107318 1.27349e-23)
(7.96424 -0.122631 -2.87041e-23)
(7.96285 -0.130384 1.79459e-23)
(7.9617 -0.146778 0)
(7.96297 -0.154003 -4.13689e-24)
(7.99936 -0.0654171 -3.26612e-23)
(7.98915 -0.0741648 -3.54635e-24)
(7.97624 -0.171582 0)
(7.97526 -0.184721 -2.99937e-24)
(7.9639 -0.167843 -1.53583e-23)
(7.98285 -0.194743 -1.65223e-23)
(7.9936 -0.204193 0)
(7.99946 -0.215165 -1.2045e-23)
(8.00679 -0.22695 0)
(8.0173 -0.236127 -4.23113e-24)
(8.02334 -0.246856 -4.58339e-24)
(8.02902 -0.251608 1.89935e-24)
(8.04417 -0.261816 -4.83977e-24)
(8.01433 -0.0311397 3.25778e-23)
(7.99588 -0.0602592 0)
(8.04486 -0.051432 -3.35301e-24)
(8.04047 -0.055116 -5.28789e-24)
(8.04604 -0.0488145 -1.52419e-23)
(8.02502 -0.0565447 0)
(8.01608 -0.0588725 -1.88912e-23)
(8.19295 0.17219 6.99895e-25)
(8.22439 0.169222 -3.97282e-24)
(8.24143 0.166884 0)
(8.20876 0.175247 6.34472e-24)
(8.16993 0.17112 1.6966e-23)
(8.15687 0.163742 -4.74904e-24)
(8.18402 0.175099 1.08631e-23)
(8.16154 0.136584 -1.09531e-23)
(8.16942 0.119595 0)
(8.1667 0.145008 8.80269e-24)
(8.15901 0.157908 0)
(8.26724 0.160005 8.33076e-24)
(8.2589 0.164928 3.58233e-24)
(8.31231 0.149787 2.53e-23)
(8.29754 0.159514 2.17506e-23)
(8.27926 0.163081 1.01427e-23)
(8.10362 0.184182 -1.69167e-22)
(8.18689 -0.326205 6.90932e-24)
(8.19451 -0.330397 7.24084e-24)
(8.2084 -0.327689 5.12312e-24)
(8.2883 -0.346564 6.08952e-25)
(8.27142 -0.344317 1.09893e-23)
(8.24126 -0.342791 0)
(8.2231 -0.333638 0)
(8.23363 -0.34131 0)
(8.25487 -0.34587 7.69854e-24)
(8.33629 -0.348471 -3.40748e-24)
(8.35341 -0.344501 -1.38735e-24)
(8.37167 -0.340919 -2.1571e-25)
(8.31916 -0.348997 4.53295e-26)
(8.30217 -0.353674 -5.32912e-24)
(8.15767 -0.318739 -2.56019e-25)
(8.17048 -0.321715 0)
(8.4001 -0.332531 -1.01337e-23)
(8.38905 -0.340304 0)
(8.12759 -0.308744 -5.06333e-24)
(8.13617 -0.314229 -1.12795e-24)
(8.14504 -0.320427 -7.17793e-24)
(8.09968 -0.294561 0)
(8.10671 -0.303311 0)
(8.11685 -0.307582 -2.4402e-24)
(8.05219 -0.273666 -7.20425e-24)
(8.06446 -0.2765 1.35707e-23)
(8.0759 -0.285641 5.57915e-24)
(8.0924 -0.290646 9.48145e-24)
(7.97365 -0.0889132 2.04392e-24)
(7.97878 -0.0769318 -7.35748e-25)
(7.96785 -0.101226 0)
(7.9604 -0.111071 1.49553e-23)
(7.95822 -0.116876 -2.2396e-23)
(7.95188 -0.134789 3.85415e-23)