/*--------------------------------*- C++ -*----------------------------------*\
| =========                 |                                                 |
| \\      /  F ield         | OpenFOAM: The Open Source CFD Toolbox           |
|  \\    /   O peration     | Version:  v2012                                 |
|   \\  /    A nd           | Website:  www.openfoam.com                      |
|    \\/     M anipulation  |                                                 |
\*---------------------------------------------------------------------------*/
FoamFile
{
    version     2.0;
    format      ascii;
    class       surfaceVectorField;
    location    "0.6";
    object      Uf;
}
// * * * * * * * * * * * * * * * * * * * * * * * * * * * * * * * * * * * * * //

dimensions      [0 1 -1 0 0 0 0];


internalField   nonuniform List<vector> 
21399
(
(8.11605 -0.0368632 0)
(8.13281 -0.0843189 0)
(8.15214 -0.0645114 7.44305e-24)
(8.12813 -0.0473493 8.50429e-23)
(8.13127 -0.138915 -7.5072e-23)
(8.17963 -0.0816335 -9.48584e-23)
(8.19125 -0.0825808 -1.54413e-21)
(8.19483 -0.0838408 -1.09143e-23)
(8.19635 -0.0912572 -2.34662e-21)
(8.09494 -0.0664811 -3.33483e-20)
(8.14236 -0.0820351 8.74669e-21)
(8.13264 -0.0735427 9.71298e-21)
(8.20649 -0.134759 -1.92586e-22)
(8.2223 -0.0899141 -7.0664e-22)
(8.19104 -0.0880464 -2.19677e-23)
(8.19835 -0.0980731 -2.88268e-24)
(8.18931 -0.0961669 -2.1088e-21)
(8.11007 -0.0443097 4.98145e-22)
(8.18359 -0.0867064 -1.08002e-20)
(8.16442 -0.0968357 -6.0998e-23)
(8.14947 -0.143471 -7.11935e-20)
(8.22812 -0.0995194 2.61331e-24)
(8.21909 -0.0977301 -1.83645e-23)
(8.19024 -0.0928384 1.65138e-23)
(8.21216 -0.101228 -1.23662e-21)
(8.20155 -0.108232 -1.39266e-24)
(8.18436 -0.100418 5.41224e-24)
(8.14716 -0.0819817 7.62365e-23)
(8.11808 -0.0660235 -2.55535e-20)
(8.14659 -0.0862722 4.04717e-21)
(8.16304 -0.100226 -1.07271e-23)
(8.2024 -0.129061 -1.29329e-23)
(8.23618 -0.100599 0)
(8.24319 -0.101059 3.78702e-24)
(8.23257 -0.108986 -1.61005e-23)
(8.22002 -0.110388 -3.97062e-23)
(8.20431 -0.118393 -4.61103e-24)
(8.19429 -0.113129 -7.44596e-24)
(8.18451 -0.113022 1.07145e-24)
(8.17694 -0.108469 -3.64411e-22)
(8.11314 -0.0794483 1.24697e-22)
(8.16783 -0.108452 4.87146e-22)
(8.15558 -0.104052 -1.55271e-21)
(8.14444 -0.129458 -6.10014e-20)
(8.24651 -0.107612 2.35998e-22)
(8.22622 -0.115289 4.04636e-22)
(8.23158 -0.118224 -2.91547e-22)
(8.2197 -0.119544 -2.71715e-23)
(8.21256 -0.124189 -1.70328e-22)
(8.20448 -0.127746 -1.51004e-23)
(8.18706 -0.121286 1.09428e-23)
(8.17066 -0.118884 -8.75259e-24)
(8.1306 -0.0959021 -1.67908e-22)
(8.10374 -0.0921577 -4.51265e-22)
(8.14659 -0.106643 -5.43083e-22)
(8.17897 -0.138287 4.92877e-23)
(8.14537 -0.111432 4.01199e-21)
(8.24307 -0.117521 7.11417e-23)
(8.25204 -0.113599 -1.78594e-24)
(8.2376 -0.123472 -3.5387e-22)
(8.23022 -0.129744 -2.13374e-23)
(8.21737 -0.129778 3.34991e-23)
(8.1956 -0.129348 -3.11179e-24)
(8.20052 -0.135924 4.88455e-22)
(8.18439 -0.129139 0)
(8.17133 -0.129107 1.50309e-22)
(8.16325 -0.125576 2.0354e-23)
(8.1014 -0.105617 7.3249e-21)
(8.10938 -0.11021 -1.1902e-23)
(8.13379 -0.112212 6.46024e-24)
(8.14939 -0.11571 2.48402e-23)
(8.10525 -0.135116 0)
(8.12866 -0.0931725 -1.68018e-23)
(8.24447 -0.128969 -1.45105e-23)
(8.25686 -0.121644 -4.82442e-23)
(8.22207 -0.134325 -8.26643e-25)
(8.22737 -0.140538 1.89108e-22)
(8.21396 -0.139068 3.03927e-24)
(8.19489 -0.142508 -2.3424e-22)
(8.20224 -0.141011 5.29674e-22)
(8.17799 -0.132276 5.77087e-24)
(8.18287 -0.139824 0)
(8.17084 -0.138209 7.78087e-24)
(8.15548 -0.123111 8.6882e-22)
(8.15685 -0.132694 -2.98954e-24)
(8.12031 -0.118282 0)
(8.14532 -0.122021 -4.5463e-22)
(8.13771 -0.111619 3.82339e-26)
(8.14067 -0.149724 -9.75633e-23)
(8.13597 -0.104627 4.27266e-26)
(8.25347 -0.130381 1.33955e-22)
(8.24669 -0.138314 4.67823e-24)
(8.26192 -0.130242 5.80091e-24)
(8.22315 -0.149158 1.5729e-23)
(8.23281 -0.14621 6.64927e-22)
(8.20739 -0.144092 7.84e-24)
(8.21183 -0.149348 9.54099e-24)
(8.27036 -0.127391 -1.3311e-24)
(8.18918 -0.145024 3.33857e-24)
(8.19235 -0.150621 2.65353e-24)
(8.202 -0.149788 4.09564e-22)
(8.1811 -0.148583 -1.2262e-23)
(8.16479 -0.142444 -7.62956e-23)
(8.17036 -0.146457 -1.01957e-23)
(8.15834 -0.141995 3.99848e-22)
(8.15101 -0.139515 2.95827e-23)
(8.1211 -0.117099 0)
(8.11764 -0.118563 0)
(8.13357 -0.123399 5.56445e-24)
(8.14246 -0.131236 1.38089e-21)
(8.05757 -0.155696 -6.6344e-20)
(8.11983 -0.111831 -9.44787e-24)
(8.24 -0.147388 1.03694e-23)
(8.25074 -0.149813 1.76138e-24)
(8.26696 -0.13666 0)
(8.21692 -0.153355 1.23202e-22)
(8.22284 -0.158779 8.67139e-24)
(8.23611 -0.156567 8.34543e-22)
(8.21047 -0.158683 7.24455e-24)
(8.19565 -0.15414 4.18653e-24)
(8.18959 -0.158197 -7.20935e-24)
(8.19952 -0.157591 -1.13685e-23)
(8.17459 -0.152534 8.63016e-23)
(8.17874 -0.158074 -1.13289e-23)
(8.15869 -0.149306 -1.25118e-23)
(8.16806 -0.155464 -1.03872e-23)
(8.14434 -0.138393 4.62679e-24)
(8.14396 -0.147603 1.52158e-23)
(8.12193 -0.120047 1.7259e-23)
(8.13681 -0.137587 7.08588e-26)
(8.1138 -0.135666 1.00891e-22)
(8.09051 -0.139972 6.03111e-22)
(8.13845 -0.123135 2.04343e-20)
(8.26235 -0.153157 -5.04499e-24)
(8.2552 -0.162437 5.0359e-22)
(8.27568 -0.14107 0)
(8.26618 -0.145044 -4.76482e-24)
(8.22881 -0.162404 9.19724e-25)
(8.2218 -0.167226 -1.24104e-24)
(8.23728 -0.164682 1.05575e-24)
(8.20411 -0.161793 -4.21918e-24)
(8.20918 -0.167338 -3.07965e-23)
(8.28696 -0.144782 4.11215e-25)
(8.18334 -0.161946 -4.45068e-23)
(8.18688 -0.166309 -8.9143e-23)
(8.19701 -0.165666 4.28178e-22)
(8.17608 -0.165501 -2.75349e-23)
(8.16138 -0.155678 0)
(8.15392 -0.156022 0)
(8.16341 -0.162228 9.16196e-24)
(8.14359 -0.154598 9.33899e-22)
(8.13696 -0.151831 -2.20942e-22)
(8.12864 -0.116405 3.6463e-21)
(8.11489 -0.119932 8.07699e-22)
(8.13039 -0.137045 0)
(8.12947 -0.144633 -3.18367e-23)
(8.12057 -0.123814 7.51939e-20)
(8.10467 -0.0912955 -3.42991e-22)
(8.14008 -0.120752 -3.36652e-23)
(8.2739 -0.157335 5.87799e-22)
(8.24633 -0.170052 2.10646e-24)
(8.25899 -0.173788 -2.5418e-24)
(8.21349 -0.173772 -1.61908e-24)
(8.22028 -0.177809 5.21403e-23)
(8.23791 -0.17559 -5.81447e-24)
(8.20749 -0.17633 -2.65564e-25)
(8.2971 -0.150819 1.47967e-24)
(8.28666 -0.154807 3.00267e-23)
(8.30563 -0.158911 8.27512e-24)
(8.19148 -0.17123 -6.46889e-24)
(8.18455 -0.175478 -7.91428e-24)
(8.19843 -0.175499 -5.24456e-24)
(8.17448 -0.173148 -1.78694e-24)
(8.16994 -0.169604 1.71664e-23)
(8.14787 -0.160058 4.51429e-24)
(8.15156 -0.166169 -5.85992e-24)
(8.16402 -0.169423 1.41683e-22)
(8.15739 -0.168572 -5.43198e-24)
(8.14076 -0.164117 3.90208e-24)
(8.13084 -0.151255 8.14398e-23)
(8.13198 -0.158828 -3.4599e-24)
(8.11732 -0.128101 4.01865e-24)
(8.10583 -0.122241 2.41713e-21)
(8.12143 -0.136125 1.27303e-23)
(8.1222 -0.151029 1.42986e-22)
(8.07356 -0.145113 1.3714e-22)
(8.12618 -0.104004 -4.57725e-23)
(8.10812 -0.089283 -4.77758e-23)
(8.13363 -0.120005 0)
(8.28234 -0.163747 -3.84511e-24)
(8.26091 -0.184634 -9.02846e-23)
(8.27129 -0.178338 -7.75342e-24)
(8.22947 -0.179541 -1.49045e-22)
(8.22077 -0.184653 4.48795e-22)
(8.23834 -0.183779 -4.80407e-24)
(8.20074 -0.18282 1.081e-24)
(8.30383 -0.169228 1.3279e-23)
(8.31457 -0.166661 9.7643e-23)
(8.17774 -0.177673 4.63274e-23)
(8.1816 -0.182838 -2.8441e-24)
(8.17176 -0.180079 -1.03649e-23)
(8.16302 -0.175886 1.10498e-23)
(8.1497 -0.173861 5.8058e-24)
(8.13315 -0.165236 -3.31819e-25)
(8.13497 -0.170646 2.07035e-23)
(8.1267 -0.164949 0)
(8.11809 -0.121877 -9.80004e-24)
(8.10188 -0.123263 -1.14613e-23)
(8.1139 -0.134324 3.38289e-22)
(8.11432 -0.141955 1.97701e-23)
(8.11827 -0.159841 -2.68234e-22)
(8.11537 -0.152917 -5.7173e-24)
(8.1227 -0.136998 0)
(8.10079 -0.0967901 0)
(8.08838 -0.0902299 0)
(8.11396 -0.113801 0)
(8.12842 -0.122902 0)
(8.2806 -0.174252 1.67182e-22)
(8.29327 -0.172018 3.30669e-23)
(8.25393 -0.190169 7.68574e-23)
(8.26358 -0.194406 -6.42318e-24)
(8.28129 -0.186234 7.83662e-24)
(8.21689 -0.19227 3.70797e-23)
(8.22719 -0.192674 -6.26924e-24)
(8.24611 -0.189677 -2.85273e-24)
(8.23694 -0.191604 -8.72416e-25)
(8.19311 -0.188664 -6.6699e-23)
(8.20249 -0.190016 3.80626e-24)
(8.30209 -0.179867 1.35347e-23)
(8.32267 -0.174124 1.0913e-23)
(8.18616 -0.189045 4.12706e-24)
(8.17823 -0.190148 1.27211e-22)
(8.16522 -0.180853 1.73677e-23)
(8.16853 -0.185921 5.90208e-23)
(8.15821 -0.181702 -4.00737e-22)
(8.14224 -0.17873 7.24493e-24)
(8.14792 -0.18214 -8.80196e-24)
(8.137 -0.176194 7.32937e-22)
(8.12815 -0.176432 6.79596e-24)
(8.12117 -0.164889 7.4109e-24)
(8.12052 -0.171158 1.09677e-23)
(8.10046 -0.125638 2.11086e-22)
(8.09988 -0.125323 2.96535e-24)
(8.1035 -0.131458 1.07065e-23)
(8.11149 -0.148732 5.87432e-22)
(8.10396 -0.145673 9.14602e-24)
(8.11448 -0.165718 -5.11664e-23)
(8.10702 -0.156579 1.10354e-23)
(8.05934 -0.134717 1.21864e-23)
(8.09866 -0.0829588 2.07571e-23)
(8.11646 -0.124393 2.86524e-24)
(8.25043 -0.198888 -8.61413e-24)
(8.27168 -0.199797 3.20936e-24)
(8.26403 -0.204269 -6.01756e-24)
(8.28067 -0.195734 1.04816e-24)
(8.29057 -0.192267 1.251e-22)
(8.20929 -0.194619 -5.91721e-25)
(8.21565 -0.202587 -2.80484e-24)
(8.23398 -0.199294 7.6926e-23)
(8.19009 -0.196161 -9.14026e-24)
(8.20264 -0.199145 2.60099e-22)
(8.30019 -0.189986 1.33489e-23)
(8.3108 -0.18794 -4.70587e-23)
(8.32122 -0.184623 7.10313e-23)
(8.33094 -0.180547 2.05478e-25)
(8.17102 -0.191297 2.94237e-24)
(8.17494 -0.19712 8.12005e-24)
(8.16455 -0.19183 -1.9947e-25)
(8.15325 -0.186001 3.25877e-24)
(8.1574 -0.190855 3.85983e-24)
(8.1362 -0.184628 2.74018e-22)
(8.14613 -0.191105 -1.81215e-22)
(8.12088 -0.178402 6.83241e-24)
(8.12379 -0.184347 2.76677e-22)
(8.11447 -0.178183 3.61538e-22)
(8.10697 -0.124552 1.99669e-22)
(8.09722 -0.129689 0)
(8.09702 -0.136918 0)
(8.09691 -0.144883 9.63029e-25)
(8.09692 -0.152287 2.57713e-23)
(8.10806 -0.16658 1.20639e-23)
(8.11019 -0.17212 7.11928e-24)
(8.09951 -0.158151 1.98416e-23)
(8.10325 -0.162968 -1.12551e-22)
(8.08475 -0.0967314 -5.20466e-22)
(8.10243 -0.133284 1.18327e-23)
(8.07344 -0.0829819 -1.346e-20)
(8.09433 -0.104748 1.75143e-23)
(8.25504 -0.208123 2.01546e-22)
(8.24769 -0.208089 -6.84359e-24)
(8.27974 -0.206591 2.91404e-24)
(8.26216 -0.213469 -6.3808e-24)
(8.29782 -0.200632 1.30116e-23)
(8.21531 -0.210252 -1.22654e-25)
(8.22296 -0.207153 2.63053e-25)
(8.23984 -0.206085 -3.32636e-25)
(8.23015 -0.205567 9.03207e-25)
(8.19465 -0.202943 5.34336e-22)
(8.18741 -0.204243 -1.68696e-23)
(8.20144 -0.207879 -1.50806e-23)
(8.31851 -0.195859 8.62606e-24)
(8.33897 -0.186711 -1.77725e-24)
(8.17947 -0.204187 -1.02387e-22)
(8.17116 -0.203934 -1.55118e-23)
(8.15896 -0.19641 1.82098e-22)
(8.12931 -0.18796 4.63487e-24)
(8.13446 -0.191103 1.00869e-22)
(8.13929 -0.194698 3.44483e-24)
(8.14464 -0.199188 -2.92073e-24)
(8.12108 -0.190843 -2.52216e-24)
(8.11036 -0.176712 5.50761e-24)
(8.10766 -0.183271 -3.27105e-22)
(8.10632 -0.115474 -1.27766e-23)
(8.10151 -0.121326 4.60868e-22)
(8.09572 -0.124147 -1.03441e-23)
(8.08924 -0.129106 -7.14212e-24)
(8.08906 -0.14317 0)
(8.09014 -0.158832 3.02566e-23)
(8.09958 -0.168302 2.87505e-24)
(8.10417 -0.176341 0)
(8.08882 -0.0851818 1.19576e-20)
(8.04307 -0.122214 -2.58127e-23)
(8.09263 -0.110649 0)
(8.24336 -0.215541 -3.94844e-22)
(8.27735 -0.214063 0)
(8.28656 -0.211791 0)
(8.27092 -0.217365 0)
(8.26143 -0.221866 0)
(8.29501 -0.211029 5.92143e-24)
(8.30505 -0.209561 3.8054e-23)
(8.20872 -0.213149 -5.49601e-25)
(8.21464 -0.21827 -8.21996e-24)
(8.22909 -0.213644 -3.20575e-23)
(8.18293 -0.211524 -6.91077e-24)
(8.19992 -0.215778 1.12015e-24)
(8.31546 -0.206625 6.87455e-24)
(8.32611 -0.20332 -2.78983e-24)
(8.33699 -0.199133 -2.88497e-24)
(8.16354 -0.203969 2.25596e-23)
(8.16756 -0.210955 -7.19799e-23)
(8.15524 -0.202983 -7.41274e-24)
(8.13283 -0.198463 2.77187e-24)
(8.14994 -0.203053 -1.23038e-25)
(8.14376 -0.205995 3.09507e-24)
(8.11469 -0.194942 0)
(8.12115 -0.199129 0)
(8.10509 -0.189037 -8.84232e-25)
(8.09888 -0.185017 -1.33422e-22)
(8.09437 -0.116984 -4.09738e-22)
(8.08272 -0.128818 -1.02348e-22)
(8.08309 -0.135351 -5.17687e-24)
(8.08229 -0.141389 0)
(8.07984 -0.149438 -4.08574e-24)
(8.08085 -0.160102 6.28691e-23)
(8.08344 -0.166719 1.16069e-23)
(8.0982 -0.175276 0)
(8.09303 -0.17262 0)
(8.09798 -0.180214 1.27113e-23)
(8.07155 -0.0805001 -1.55648e-23)
(8.0838 -0.0988267 7.95152e-23)
(8.07478 -0.0828931 -2.31269e-23)
(8.08755 -0.118339 3.53269e-20)
(8.09249 -0.109767 2.17406e-24)
(8.09108 -0.107189 -1.1109e-24)
(8.23489 -0.21922 -1.00305e-24)
(8.24213 -0.222548 2.13249e-24)
(8.27687 -0.222354 -1.90151e-24)
(8.29109 -0.220802 -1.71639e-24)
(8.26214 -0.231088 0)
(8.255 -0.227859 0)
(8.31205 -0.217309 1.48503e-23)
(8.22034 -0.223285 -1.44076e-22)
(8.21288 -0.225713 -4.93853e-24)
(8.22763 -0.221142 -4.30841e-24)
(8.17818 -0.218292 0)
(8.18693 -0.219356 1.31349e-24)
(8.19404 -0.219889 -7.07983e-24)
(8.20043 -0.22357 1.15648e-24)
(8.33313 -0.210948 2.47746e-22)
(8.17156 -0.21659 -1.80376e-25)
(8.16373 -0.216419 4.06055e-25)
(8.15362 -0.210345 2.50122e-24)
(8.12714 -0.202196 0)
(8.13293 -0.206206 0)
(8.1391 -0.209993 3.10057e-24)
(8.14503 -0.214316 -1.80226e-22)
(8.11026 -0.193241 0)
(8.11106 -0.200832 -2.00709e-24)
(8.12165 -0.206966 3.81389e-24)
(8.10252 -0.194549 -2.35462e-24)
(8.09267 -0.18527 2.88114e-22)
(8.09031 -0.112143 -2.69559e-24)
(8.07905 -0.124059 -8.70211e-24)
(8.07377 -0.129953 -5.90161e-24)
(8.07547 -0.140022 0)
(8.07817 -0.15543 -6.97137e-22)
(8.07116 -0.152178 -1.18666e-23)
(8.07237 -0.162214 -7.55128e-24)
(8.08572 -0.17218 0)
(8.07764 -0.172666 0)
(8.08446 -0.17954 3.09637e-24)
(8.07694 -0.0777018 5.35623e-24)
(8.08111 -0.108499 -6.57394e-24)
(8.02779 -0.125736 6.65979e-23)
(8.24813 -0.228507 3.56992e-24)
(8.23903 -0.231315 1.13229e-22)
(8.28295 -0.226366 9.17834e-23)
(8.27596 -0.23032 -1.99799e-24)
(8.29206 -0.228646 -1.72413e-24)
(8.26816 -0.235183 0)
(8.26168 -0.240145 -6.34879e-24)
(8.25086 -0.237371 -7.45414e-24)
(8.31019 -0.228663 8.09706e-24)
(8.32068 -0.223747 1.50525e-22)
(8.2253 -0.228764 1.49789e-24)
(8.20592 -0.228394 0)
(8.21094 -0.233469 0)
(8.17404 -0.224306 -4.01885e-24)
(8.18977 -0.226821 2.74504e-23)
(8.19987 -0.231067 0)
(8.32807 -0.219544 7.1383e-24)
(8.33982 -0.216847 -1.46195e-24)
(8.15744 -0.217642 6.90505e-25)
(8.16158 -0.223498 -9.19381e-23)
(8.15179 -0.217144 2.53131e-24)
(8.13281 -0.214419 -1.14738e-24)
(8.14646 -0.221858 2.3966e-24)
(8.10647 -0.20467 9.37188e-24)
(8.11157 -0.207189 -6.12151e-25)
(8.11624 -0.210771 -4.5721e-23)
(8.12197 -0.214627 6.93135e-24)
(8.10153 -0.201867 1.02218e-22)
(8.09673 -0.197634 -1.98528e-24)
(8.08568 -0.184772 1.17495e-22)
(8.08865 -0.190839 1.02743e-23)
(8.08246 -0.116417 -1.28878e-22)
(8.08351 -0.109461 8.74084e-22)
(8.07242 -0.118818 -8.67999e-25)
(8.06946 -0.137178 0)
(8.06533 -0.133262 3.47803e-24)
(8.06683 -0.143029 -2.42531e-23)
(8.06507 -0.150232 8.22147e-23)
(8.06371 -0.156363 1.5738e-22)
(8.06357 -0.162334 -3.89529e-24)
(8.0665 -0.167522 2.27911e-22)
(8.07098 -0.172613 1.50012e-24)
(8.07191 -0.178368 3.26178e-24)
(8.07852 -0.184451 3.80252e-25)
(8.07206 -0.0988673 1.72718e-21)
(8.0617 -0.0832589 -4.84745e-21)
(8.07812 -0.106583 1.09399e-23)
(8.05737 -0.105298 -1.01287e-23)
(8.04723 -0.109611 -3.81284e-23)
(8.23049 -0.233873 4.50601e-24)
(8.23529 -0.240195 4.04589e-24)
(8.27566 -0.239586 0)
(8.30017 -0.233628 8.3946e-25)
(8.29137 -0.239009 0)
(8.25383 -0.24427 2.21432e-22)
(8.25992 -0.248417 -9.6687e-24)
(8.24709 -0.245986 -7.2568e-24)
(8.30945 -0.241473 -1.05372e-22)
(8.32796 -0.229854 1.01698e-23)
(8.22288 -0.236388 2.31582e-25)
(8.21531 -0.238602 -1.302e-26)
(8.20818 -0.241058 -5.53527e-24)
(8.16779 -0.227292 1.68595e-23)
(8.17473 -0.230877 -5.7083e-23)
(8.19339 -0.232362 -1.19718e-25)
(8.1867 -0.233026 -1.31094e-25)
(8.19723 -0.237114 -9.43557e-24)
(8.34929 -0.21901 -2.33164e-24)
(8.34527 -0.228004 2.34399e-24)
(8.36132 -0.223708 -4.69154e-24)
(8.16055 -0.229946 -7.62216e-25)
(8.12713 -0.218051 -1.71047e-24)
(8.13331 -0.221875 -1.69273e-22)
(8.13895 -0.225988 1.26162e-23)
(8.14733 -0.230762 1.68895e-24)
(8.10084 -0.208176 -7.60473e-24)
(8.11081 -0.214747 -3.27828e-23)
(8.12126 -0.221793 -3.90396e-23)
(8.09207 -0.195056 0)
(8.09165 -0.202204 0)
(8.08529 -0.194846 0)
(8.08075 -0.10689 2.62004e-21)
(8.06269 -0.121804 3.87202e-24)
(8.06663 -0.115226 -5.28807e-25)
(8.05916 -0.129593 2.6472e-23)
(8.05407 -0.137219 -1.63957e-23)
(8.05793 -0.147308 -6.96802e-22)
(8.05584 -0.161731 -1.09253e-24)
(8.06084 -0.173167 -2.23523e-22)
(8.07196 -0.184488 2.6452e-23)
(8.06513 -0.183945 2.80169e-22)
(8.07524 -0.190592 -8.37861e-24)
(8.07799 -0.0873121 -1.12245e-23)
(8.06822 -0.0876022 5.36946e-20)
(8.05008 -0.0639989 1.4004e-21)
(8.23919 -0.246899 0)
(8.23032 -0.248323 6.39033e-24)
(8.28346 -0.24415 0)
(8.2759 -0.249132 0)
(8.29155 -0.248701 0)
(8.26751 -0.252022 -3.05666e-24)
(8.2591 -0.255318 3.7536e-22)
(8.24226 -0.254152 0)
(8.31665 -0.246495 4.54149e-22)
(8.30736 -0.24885 -1.97742e-22)
(8.33751 -0.232717 -3.86137e-23)
(8.32897 -0.23804 2.95453e-24)
(8.2188 -0.244563 5.47873e-24)
(8.20094 -0.242972 9.28483e-23)
(8.20446 -0.24839 -9.48424e-24)
(8.18076 -0.234693 -1.81308e-24)
(8.17376 -0.238256 -6.39392e-24)
(8.18424 -0.240572 0)
(8.19391 -0.244141 -6.81888e-23)
(8.34755 -0.236449 2.22352e-24)
(8.36485 -0.235605 -3.0587e-22)
(8.1618 -0.239364 0)
(8.15462 -0.233947 7.10869e-25)
(8.13273 -0.229641 -3.33567e-24)
(8.15189 -0.232927 2.36196e-22)
(8.14609 -0.235409 -4.41544e-24)
(8.09513 -0.211036 -3.51247e-24)
(8.1001 -0.214585 -6.33109e-23)
(8.10494 -0.217925 -6.17588e-24)
(8.11021 -0.221821 -2.40169e-24)
(8.11538 -0.225668 2.12647e-24)
(8.12117 -0.229451 7.72559e-25)
(8.09059 -0.207545 0)
(8.08621 -0.20444 0)
(8.07997 -0.195669 -4.38779e-24)
(8.08258 -0.200695 0)
(8.0716 -0.108304 5.30431e-23)
(8.07813 -0.101497 2.97236e-24)
(8.05225 -0.125502 3.51062e-24)
(8.06268 -0.110142 -5.07977e-25)
(8.05081 -0.144268 -3.64038e-23)
(8.04417 -0.140799 -1.34744e-22)
(8.04791 -0.151778 -1.76495e-23)
(8.04621 -0.159577 0)
(8.04593 -0.167029 0)
(8.05764 -0.181551 7.46763e-24)
(8.05278 -0.176544 2.3017e-24)
(8.05913 -0.187901 -1.02107e-22)
(8.07208 -0.196419 5.34204e-23)
(8.06153 -0.0725415 -5.18842e-23)
(8.07729 -0.089542 -5.54442e-25)
(8.03598 -0.105246 1.42687e-22)
(8.05372 -0.060358 -1.22511e-21)
(8.22266 -0.250605 7.58586e-23)
(8.22618 -0.256554 4.63438e-24)
(8.27445 -0.25738 1.32905e-24)
(8.30094 -0.25169 2.83883e-24)
(8.29252 -0.256997 0)
(8.25366 -0.261649 -2.56113e-24)
(8.26182 -0.264279 -5.65396e-25)
(8.24558 -0.260945 0)
(8.23731 -0.261033 -3.13409e-24)
(8.32467 -0.247887 1.89195e-24)
(8.32072 -0.257571 1.51189e-24)
(8.3079 -0.25727 2.54248e-24)
(8.33506 -0.250833 -1.32685e-24)
(8.21477 -0.252541 3.01557e-25)
(8.20769 -0.253906 -1.70758e-23)
(8.20046 -0.255431 -1.07649e-23)
(8.16841 -0.243571 -4.79802e-24)
(8.17345 -0.247071 3.68721e-22)
(8.18691 -0.245568 -3.95681e-24)
(8.1809 -0.247155 -4.17859e-24)
(8.18965 -0.251183 -1.22685e-23)
(8.35601 -0.242992 -2.36266e-24)
(8.3477 -0.248674 -1.49261e-24)
(8.36794 -0.24715 6.10833e-24)
(8.16195 -0.248681 -2.83472e-24)
(8.15113 -0.239804 -4.29534e-22)
(8.12678 -0.231596 3.30961e-24)
(8.13133 -0.235162 -1.13773e-22)
(8.14539 -0.241242 -7.26255e-24)
(8.14164 -0.240374 -4.93403e-23)
(8.08917 -0.213703 0)
(8.09913 -0.221226 -3.47443e-24)
(8.10924 -0.229164 -1.49195e-24)
(8.12136 -0.234973 9.54263e-24)
(8.0801 -0.205686 2.11117e-24)
(8.07904 -0.0955888 1.61016e-21)
(8.07325 -0.097137 -7.07999e-24)
(8.04464 -0.122511 -4.41751e-25)
(8.03958 -0.130683 -5.80425e-26)
(8.06092 -0.104504 -1.44618e-23)
(8.05398 -0.111153 -2.54299e-24)
(8.0367 -0.137677 -1.84906e-23)
(8.03354 -0.14547 -1.55009e-23)
(8.03882 -0.156097 0)
(8.0482 -0.172511 0)
(8.04027 -0.170051 6.94047e-24)
(8.04738 -0.18038 -1.22966e-24)
(8.05467 -0.190727 4.49484e-22)
(8.06191 -0.193616 5.02282e-22)
(8.06609 -0.19811 -2.50214e-24)
(8.06979 -0.20332 -1.75614e-24)
(8.07209 -0.0892106 -4.82344e-25)
(8.04239 -0.0703353 -4.92779e-21)
(8.06819 -0.0942418 7.67735e-23)
(8.02935 -0.0665364 -1.99316e-20)
(8.05506 -0.0815691 4.72461e-23)
(8.23018 -0.261186 -6.36098e-23)
(8.22231 -0.263266 -9.46886e-23)
(8.27096 -0.26484 5.82186e-23)
(8.27942 -0.264138 1.57282e-24)
(8.28787 -0.264496 1.79708e-25)
(8.29635 -0.266914 0)
(8.24878 -0.269598 1.42228e-24)
(8.26592 -0.271093 1.69508e-24)
(8.23341 -0.268471 -2.80835e-24)
(8.31323 -0.263267 -1.36822e-24)
(8.32302 -0.26587 -4.72492e-23)
(8.3067 -0.266505 0)
(8.34372 -0.257824 -1.40981e-22)
(8.21114 -0.259807 2.86409e-25)
(8.19289 -0.256813 6.52212e-23)
(8.19658 -0.262639 -7.82439e-24)
(8.1752 -0.252539 3.35733e-23)
(8.18551 -0.257943 -1.63734e-23)
(8.37932 -0.250778 -7.48407e-23)
(8.3689 -0.25686 -1.0457e-22)
(8.15415 -0.252524 -3.26426e-24)
(8.15939 -0.257039 1.27756e-22)
(8.14984 -0.244875 -3.42615e-22)
(8.13459 -0.241074 3.20999e-23)
(8.12897 -0.241478 2.41302e-24)
(8.13804 -0.248638 -9.24707e-26)
(8.08337 -0.216087 2.5383e-24)
(8.08851 -0.220106 0)
(8.0935 -0.223668 0)
(8.09851 -0.227436 -2.93694e-24)
(8.10304 -0.23139 -4.38198e-24)
(8.10808 -0.235822 -7.29715e-23)
(8.12351 -0.239908 4.06833e-24)
(8.11745 -0.238489 -2.44483e-22)
(8.07411 -0.207638 4.90732e-24)
(8.07833 -0.212298 -1.18012e-22)
(8.06468 -0.0989809 -1.36982e-23)
(8.0671 -0.0929117 1.38169e-23)
(8.04624 -0.114687 -2.6171e-24)
(8.03488 -0.119109 2.74417e-24)
(8.02905 -0.133947 -5.96344e-25)
(8.05521 -0.100104 5.8723e-22)
(8.04525 -0.108523 2.31431e-22)
(8.03217 -0.152337 0)
(8.02489 -0.148644 0)
(8.03085 -0.160007 0)
(8.0383 -0.177156 5.19249e-24)
(8.03497 -0.170913 4.67241e-23)
(8.04198 -0.181144 -1.00069e-24)
(8.04619 -0.185073 -2.6677e-22)
(8.04959 -0.190654 -8.13789e-24)
(8.05192 -0.197219 -2.73497e-24)
(8.06088 -0.201007 3.85365e-24)
(8.06822 -0.209833 2.17198e-23)
(8.07049 -0.0844481 -6.29208e-24)
(8.06921 -0.0874061 1.40044e-23)
(8.0358 -0.0485797 2.64127e-23)
(8.01965 -0.0859844 3.53861e-20)
(8.06358 -0.08492 -1.83684e-21)
(8.2303 0.0823392 1.25768e-23)
(8.2234 0.0908889 -1.12636e-21)
(8.17477 0.0584463 -4.808e-23)
(8.19916 0.123693 0)
(8.21537 -0.266524 -3.68946e-23)
(8.22067 -0.271669 1.13514e-23)
(8.28341 -0.27333 2.5191e-23)
(8.30219 -0.273558 -2.65289e-24)
(8.25225 -0.276594 2.04559e-24)
(8.24462 -0.276034 1.49874e-23)
(8.26045 -0.278072 7.35631e-25)
(8.27058 -0.279894 0)
(8.22806 -0.274662 2.41581e-24)
(8.23587 -0.276042 1.34772e-24)
(8.33338 -0.27003 -1.08933e-24)
(8.32404 -0.275516 -1.02386e-24)
(8.34156 -0.267761 -7.28771e-24)
(8.35311 -0.265223 -3.35128e-22)
(8.20771 -0.268138 5.73767e-24)
(8.19989 -0.268651 -2.57463e-24)
(8.19206 -0.269318 5.78637e-23)
(8.17839 -0.258834 1.62693e-24)
(8.17092 -0.258515 -5.00227e-23)
(8.18156 -0.264637 -2.16229e-24)
(8.36148 -0.264133 -4.05001e-24)
(8.36904 -0.265838 7.05193e-23)
(8.14779 -0.253651 -3.672e-25)
(8.16512 -0.259469 7.05345e-23)
(8.15766 -0.262967 5.62526e-24)
(8.12558 -0.245394 2.25241e-24)
(8.14181 -0.253216 0)
(8.13494 -0.253767 -4.01962e-25)
(8.07716 -0.218374 6.42213e-24)
(8.08775 -0.226203 0)
(8.09712 -0.234082 -7.29717e-23)
(8.11266 -0.23996 -5.31862e-23)
(8.10583 -0.242412 -2.04196e-24)
(8.11562 -0.244958 4.82497e-24)
(8.06386 -0.0888924 7.82746e-22)
(8.02562 -0.116171 -1.26707e-22)
(8.02327 -0.123707 -7.712e-24)
(8.02235 -0.130738 -3.8955e-23)
(8.01997 -0.13804 -5.43407e-25)
(8.04634 -0.102445 -9.90453e-23)
(8.04906 -0.0969584 1.13995e-22)
(8.03804 -0.105638 -4.814e-23)
(8.01802 -0.145602 0)
(8.01767 -0.153079 -1.01785e-24)
(8.03072 -0.166106 5.76215e-24)
(8.02466 -0.16185 -8.28314e-25)
(8.03642 -0.182097 -3.18129e-24)
(8.02833 -0.173138 4.47882e-24)
(8.0427 -0.191529 -6.50759e-25)
(8.05507 -0.201951 4.59692e-24)
(8.04899 -0.202451 -2.11712e-23)
(8.05895 -0.20636 1.67545e-22)
(8.06259 -0.211427 3.99798e-24)
(8.0669 -0.216336 2.83241e-24)
(8.03544 -0.066732 -3.16531e-23)
(8.04604 -0.0569672 -1.74749e-20)
(8.04157 -0.0876157 -4.78982e-23)
(8.06556 -0.0803713 6.92713e-24)
(8.06271 -0.0803384 2.39965e-23)
(8.2317 0.0920188 -7.10246e-24)
(8.22057 0.101532 1.49413e-22)
(8.21539 0.0995551 1.98977e-24)
(8.23107 0.0947791 1.67744e-22)
(8.18146 0.0547064 -1.54913e-20)
(8.15435 0.140723 1.39963e-22)
(8.22009 -0.279058 -7.59585e-23)
(8.27941 -0.281286 -4.03847e-24)
(8.28838 -0.28176 8.21963e-23)
(8.29826 -0.28124 -6.7131e-24)
(8.30867 -0.280842 -2.09753e-22)
(8.25489 -0.284889 -1.88109e-23)
(8.23896 -0.283332 -4.81269e-24)
(8.27314 -0.288663 -4.88556e-25)
(8.33916 -0.278386 8.75126e-25)
(8.31776 -0.282489 -3.58923e-24)
(8.32587 -0.286276 9.17574e-25)
(8.35703 -0.274353 -7.9566e-24)
(8.20276 -0.275432 4.98919e-24)
(8.18493 -0.270187 -2.44054e-24)
(8.18727 -0.275968 -3.35957e-24)
(8.16806 -0.265321 4.9973e-24)
(8.17763 -0.271181 -2.17948e-25)
(8.37554 -0.268931 1.82705e-24)
(8.36828 -0.276114 1.92483e-24)
(8.14292 -0.25911 3.19886e-25)
(8.15877 -0.269843 5.24888e-24)
(8.15238 -0.267749 -2.36975e-22)
(8.11981 -0.248002 -2.74578e-23)
(8.1255 -0.250947 3.07072e-22)
(8.12952 -0.255813 1.60319e-23)
(8.13202 -0.260053 8.75401e-23)
(8.07139 -0.2212 3.95372e-24)
(8.07653 -0.225712 -1.96063e-22)
(8.08233 -0.228238 3.51071e-24)
(8.08729 -0.231574 -3.15564e-24)
(8.09102 -0.235869 -6.09911e-24)
(8.09559 -0.240278 -3.05427e-24)
(8.09982 -0.24494 0)
(8.1038 -0.249092 7.17253e-25)
(8.11445 -0.250025 1.74044e-23)
(8.05362 -0.0903917 -1.12033e-22)
(8.05785 -0.0839597 1.90442e-21)
(8.02837 -0.109853 -1.44485e-24)
(8.01785 -0.113136 -5.8244e-22)
(8.014 -0.126787 1.34063e-22)
(8.01173 -0.141607 0)
(8.04452 -0.0922568 -4.26992e-24)
(8.03024 -0.103597 1.86063e-23)
(8.01999 -0.158745 -5.34456e-23)
(8.01265 -0.156107 -1.15477e-23)
(8.01939 -0.165205 -6.57647e-25)
(8.03076 -0.182743 -1.21656e-23)
(8.0342 -0.187009 -6.10929e-24)
(8.02667 -0.179181 -5.05069e-24)
(8.02254 -0.174916 1.06156e-24)
(8.03622 -0.19197 -3.30282e-24)
(8.0394 -0.19762 1.85919e-25)
(8.04264 -0.20306 3.26501e-23)
(8.04568 -0.208304 5.90537e-24)
(8.05594 -0.212506 1.15159e-24)
(8.06454 -0.223296 0)
(8.05593 -0.0674324 3.87847e-23)
(8.03671 -0.0605964 3.16806e-23)
(7.99657 -0.0843681 3.5409e-20)
(8.0563 -0.0724056 -7.24013e-24)
(8.05695 -0.0776704 7.01132e-22)
(8.19572 0.0882636 -1.077e-23)
(8.22177 0.10346 -5.68844e-21)
(8.22667 0.10207 2.39342e-24)
(8.21991 0.11294 5.72999e-24)
(8.22166 0.102052 2.31416e-22)
(8.21046 0.108392 -2.59665e-21)
(8.23089 0.107597 1.96122e-23)
(8.1524 0.0664216 6.16759e-24)
(8.1821 0.0862339 1.36499e-22)
(8.22046 0.142803 -7.68082e-20)
(8.21237 -0.284229 5.9057e-24)
(8.22072 -0.287947 2.90072e-23)
(8.29274 -0.290201 -3.28756e-24)
(8.31071 -0.291576 -1.75013e-22)
(8.25862 -0.294134 3.82347e-23)
(8.24954 -0.29237 -5.57363e-24)
(8.24244 -0.290609 -1.44376e-22)
(8.23352 -0.28951 1.38187e-22)
(8.26616 -0.294013 1.45245e-23)
(8.27399 -0.294806 1.60024e-24)
(8.3348 -0.288234 1.36651e-23)
(8.34311 -0.287306 5.41472e-25)
(8.3276 -0.295872 8.83458e-25)
(8.36041 -0.282061 0)
(8.35295 -0.284985 -3.97374e-25)
(8.2055 -0.282238 2.26503e-22)
(8.19724 -0.281359 3.96569e-24)
(8.19064 -0.280483 -2.47696e-24)
(8.18325 -0.281392 1.39558e-22)
(8.17056 -0.272023 -2.16261e-25)
(8.16435 -0.272041 0)
(8.17344 -0.277882 -2.58564e-23)
(8.3825 -0.27394 -8.34533e-25)
(8.3663 -0.285864 8.94081e-25)
(8.1357 -0.262358 -1.35905e-23)
(8.14201 -0.264799 3.46533e-25)
(8.15935 -0.276687 -1.45646e-24)
(8.1468 -0.269543 5.23749e-24)
(8.14868 -0.276186 3.96521e-24)
(8.12261 -0.258023 2.74173e-24)
(8.12972 -0.265269 -1.05202e-24)
(8.07642 -0.231282 1.4415e-23)
(8.08481 -0.237884 -1.99453e-22)
(8.09293 -0.247168 0)
(8.10895 -0.25186 1.56935e-23)
(8.10263 -0.254417 5.55058e-24)
(8.113 -0.255349 7.28802e-23)
(8.01158 -0.108507 -2.89756e-23)
(8.00789 -0.114456 -2.11668e-23)
(8.00813 -0.124658 -8.43576e-24)
(8.00772 -0.131337 1.27999e-24)
(8.00627 -0.137653 1.02327e-23)
(8.00495 -0.144676 0)
(8.04141 -0.0872718 -2.28946e-22)
(8.03443 -0.0934051 -3.164e-22)
(8.01814 -0.10197 -1.29598e-23)
(8.02696 -0.0977747 4.24234e-22)
(8.00685 -0.156799 -3.94822e-22)
(8.00865 -0.162777 -8.89152e-24)
(8.01788 -0.171079 1.06705e-24)
(8.01298 -0.167025 0)
(8.02491 -0.18454 9.31235e-23)
(8.03015 -0.192592 -1.7268e-22)
(8.01568 -0.177308 -1.53968e-23)
(8.0356 -0.203433 4.02255e-24)
(8.04919 -0.213211 0)
(8.04221 -0.213929 0)
(8.05335 -0.218658 0)
(8.05727 -0.223715 0)
(8.0616 -0.229152 3.44079e-24)
(8.02758 -0.0705569 -6.91639e-23)
(8.049 -0.0616481 1.14632e-25)
(8.01353 -0.0741107 -7.71376e-23)
(8.05561 -0.070845 -1.26015e-22)
(8.05548 -0.0677029 -1.3275e-21)
(8.05445 -0.0731801 -2.39134e-22)
(8.05004 -0.078668 -7.09957e-22)
(8.22614 0.107528 1.09247e-20)
(8.21388 0.120353 1.4032e-24)
(8.21935 0.122903 8.18903e-23)
(8.20726 0.121328 5.18973e-24)
(8.20056 0.119468 7.58501e-24)
(8.23637 0.109783 -2.08068e-22)
(8.24516 0.111185 7.44701e-24)
(8.22995 0.118009 1.91913e-23)
(8.25591 0.11147 -3.41682e-22)
(8.26593 0.113029 -9.33712e-24)
(8.17292 0.0706211 -2.30271e-23)
(8.16009 0.150452 -2.51006e-22)
(8.20714 -0.29063 3.75859e-24)
(8.2272 -0.290788 -4.39137e-24)
(8.22044 -0.294578 -1.62252e-24)
(8.29663 -0.297058 1.05228e-24)
(8.28686 -0.297079 0)
(8.30347 -0.299522 4.60705e-24)
(8.31147 -0.30123 -1.97119e-23)
(8.26192 -0.300626 -8.00389e-24)
(8.24424 -0.299363 -2.32062e-24)
(8.23117 -0.297397 -2.94779e-24)
(8.28045 -0.299649 1.89575e-24)
(8.27343 -0.303829 2.30338e-22)
(8.34761 -0.295503 -1.19465e-23)
(8.31937 -0.302076 3.91712e-24)
(8.32762 -0.303733 -5.61199e-24)
(8.19367 -0.287423 2.6178e-24)
(8.17743 -0.283826 6.7827e-25)
(8.18206 -0.288943 -3.16937e-24)
(8.16995 -0.285263 1.15168e-22)
(8.38913 -0.277361 6.89319e-23)
(8.38187 -0.282846 -1.48813e-22)
(8.37519 -0.287787 2.82306e-24)
(8.36744 -0.293769 -2.44285e-22)
(8.13928 -0.273241 -1.42281e-24)
(8.15262 -0.279866 -1.41756e-24)
(8.15869 -0.282964 -1.5045e-23)
(8.14661 -0.282051 0)
(8.11607 -0.259574 -4.59052e-24)
(8.11936 -0.263697 6.17247e-24)
(8.12285 -0.267702 -9.57109e-25)
(8.12764 -0.271594 0)
(8.07785 -0.23759 4.27833e-23)
(8.07161 -0.235931 -1.46649e-24)
(8.0813 -0.242622 -4.38397e-24)
(8.085 -0.247728 0)
(8.08911 -0.253143 -1.90292e-24)
(8.10276 -0.261643 4.15156e-24)
(8.09752 -0.259416 2.12124e-23)
(8.10989 -0.261415 4.42679e-25)
(8.00779 -0.103078 -1.8374e-24)
(8.00586 -0.119514 -7.02759e-24)
(8.00025 -0.114525 3.66158e-22)
(8.00189 -0.124385 0)
(8.00154 -0.133796 2.21621e-22)
(8.00315 -0.150898 -6.70391e-24)
(7.99791 -0.145588 0)
(8.04341 -0.080933 -4.8047e-24)
(8.03356 -0.0820137 -5.6245e-25)
(8.02406 -0.0912577 -5.37045e-24)