/*--------------------------------*- C++ -*----------------------------------*\
| =========                 |                                                 |
| \\      /  F ield         | OpenFOAM: The Open Source CFD Toolbox           |
|  \\    /   O peration     | Version:  v2012                                 |
|   \\  /    A nd           | Website:  www.openfoam.com                      |
|    \\/     M anipulation  |                                                 |
\*---------------------------------------------------------------------------*/
FoamFile
{
    version     2.0;
    format      ascii;
    class       volScalarField;
    location    "150";
    object      k;
}
// * * * * * * * * * * * * * * * * * * * * * * * * * * * * * * * * * * * * * //

dimensions      [0 2 -2 0 0 0 0];


internalField   nonuniform List<scalar> 
12639
(
6.84242e-05
6.82507e-05
7.47108e-05
7.08981e-05
6.79642e-05
7.98002e-05
7.60866e-05
7.12637e-05
7.07316e-05
8.66659e-05
8.06178e-05
7.43619e-05
7.17664e-05
7.14661e-05
8.04734e-05
8.73779e-05
7.92689e-05
9.02863e-05
7.52987e-05
7.42897e-05
7.40525e-05
7.82148e-05
8.2788e-05
8.57415e-05
9.35321e-05
7.81187e-05
7.65347e-05
7.62268e-05
7.54365e-05
6.73789e-05
8.31772e-05
9.55368e-05
8.47597e-05
9.01798e-05
7.8902e-05
7.93388e-05
7.87729e-05
7.81093e-05
7.39323e-05
6.88244e-05
7.65174e-05
0.000100312
9.04884e-05
8.91329e-05
7.97403e-05
8.10582e-05
8.18047e-05
8.12795e-05
7.99961e-05
7.78173e-05
7.11977e-05
6.87845e-05
8.00208e-05
0.000102682
9.28987e-05
8.41697e-05
0.000103716
8.23037e-05
8.21963e-05
8.45698e-05
8.3428e-05
8.26192e-05
7.95644e-05
7.81713e-05
7.01251e-05
6.72207e-05
7.06669e-05
7.84133e-05
0.000102341
8.73868e-05
8.86278e-05
0.000108584
8.50175e-05
8.52633e-05
8.67374e-05
8.59268e-05
8.46405e-05
8.20611e-05
8.17246e-05
7.29622e-05
7.20555e-05
7.45551e-05
7.21563e-05
8.8997e-05
0.000103775
9.59795e-05
0.000124579
8.82187e-05
8.71375e-05
8.92014e-05
8.77751e-05
8.46446e-05
8.78596e-05
8.4424e-05
7.81605e-05
7.3765e-05
7.66315e-05
7.54378e-05
7.60002e-05
8.25627e-05
0.00010143
0.000121752
8.96479e-05
9.05866e-05
8.87087e-05
9.03646e-05
8.78162e-05
9.13824e-05
8.80272e-05
8.01891e-05
7.46705e-05
7.68834e-05
8.12226e-05
8.01778e-05
9.17615e-05
8.81548e-05
0.000120705
0.000130962
9.27062e-05
9.38964e-05
9.26357e-05
9.2822e-05
9.09601e-05
9.47461e-05
9.15838e-05
8.09296e-05
7.70161e-05
7.4197e-05
7.95724e-05
8.3761e-05
8.52804e-05
8.72227e-05
9.51887e-05
0.000123253
0.000132775
9.53072e-05
9.67133e-05
9.42645e-05
9.56429e-05
9.39535e-05
9.58566e-05
9.83557e-05
9.5196e-05
8.33629e-05
7.9189e-05
7.79034e-05
8.1115e-05
8.4179e-05
8.79396e-05
9.69843e-05
8.957e-05
0.000106672
9.14193e-05
0.000148463
9.71073e-05
9.79354e-05
0.000100575
9.82296e-05
9.9831e-05
9.78886e-05
0.000100578
0.00010175
9.9211e-05
8.526e-05
7.9191e-05
7.8896e-05
8.37884e-05
8.71839e-05
8.91444e-05
8.98542e-05
9.55164e-05
9.2828e-05
0.000115912
9.41817e-05
0.000150185
0.000101002
0.00010089
0.00010422
0.000100364
0.000103721
0.000101571
0.000103625
0.00010555
0.00010031
0.000102138
8.60234e-05
8.79248e-05
8.17221e-05
8.20479e-05
8.40079e-05
9.20554e-05
9.33451e-05
0.00010272
9.40717e-05
8.48936e-05
0.000163971
0.000101162
0.00013472
0.000101513
0.000103817
0.000103367
0.000107632
0.000102306
0.000108635
0.000106007
0.000108197
0.000108266
0.000106142
0.000106548
8.89956e-05
9.0819e-05
8.42096e-05
8.70362e-05
9.45125e-05
9.59378e-05
9.05613e-05
9.52016e-05
9.59526e-05
9.58994e-05
0.000164228
0.000101682
0.000147104
0.000105183
0.000106907
0.000105791
0.000104102
0.000110422
0.000109541
0.000103481
0.000114097
0.000109631
0.000112642
0.000114683
0.000109868
9.08743e-05
9.38386e-05
8.68754e-05
8.45471e-05
9.01405e-05
9.84125e-05
9.54994e-05
9.89334e-05
9.66937e-05
9.91107e-05
9.87984e-05
9.0571e-05
0.000113336
0.000215024
0.000101491
9.77462e-05
0.000106952
0.000110304
0.000108119
0.000106825
0.000114128
0.000114318
0.000105789
0.000120195
0.000114624
0.000117889
0.000118678
0.000115596
9.5217e-05
9.67165e-05
8.98721e-05
8.89878e-05
9.3499e-05
0.00010177
0.000100406
0.000101797
0.000100869
0.000100423
0.000100599
9.31645e-05
0.000125232
0.000209944
0.000102488
0.000127956
0.000109679
0.000113166
0.000110665
0.000108717
0.000107402
0.000117434
0.000118313
0.000106604
0.000121675
0.000126096
0.000124833
0.000125886
0.000121269
9.8166e-05
0.000100715
9.28867e-05
9.1186e-05
9.70391e-05
0.000103436
0.000105219
0.000104376
0.000102065
0.000102184
0.000102855
9.69704e-05
0.000160235
0.000237655
8.89389e-05
0.000111763
0.000117379
0.00011347
0.000111141
0.000109755
0.00012161
0.000122358
0.000108223
0.000127808
0.000133934
0.000132407
0.000124513
0.00013236
0.000129146
0.000102959
0.000105027
9.58913e-05
9.54959e-05
9.98294e-05
0.000108038
0.000108556
0.000105716
0.000105998
0.000101188
0.000103887
0.000105279
9.81766e-05
0.000173946
0.000237987
0.000119907
0.000114887
0.000120059
0.000115353
0.000113253
0.000110794
0.00012555
0.000128439
0.000108565
0.000109641
0.000132863
0.000144366
0.000142175
0.000132865
0.000141619
0.000138904
0.000106061
0.000103969
0.000109594
9.96659e-05
9.89238e-05
0.000110435
0.000110994
0.000111727
0.000108929
0.000108537
0.00010439
0.000106045
0.000107061
9.52272e-05
0.000160998
0.000239696
9.91936e-05
0.000118142
0.000123618
0.000118066
0.000114698
0.000114541
0.000113408
0.00010982
0.000129581
0.000134066
0.000105863
0.000111557
0.000139147
0.000153351
0.000150604
0.000140496
0.000150032
0.000154074
0.000111418
0.000108869
0.000114327
0.000103336
0.000102994
0.000114573
0.000116758
0.000112544
0.000115396
0.000111127
0.000110328
0.000106802
0.000103307
0.000107625
0.000109162
0.000115508
0.000222086
0.000265435
0.000129014
0.000120856
0.00012525
0.000120362
0.000118747
0.000117213
0.000116836
0.000114519
0.000112171
0.00013319
0.000131203
0.000137264
0.000113321
9.09383e-05
0.000146897
0.000165651
0.00015087
0.000162807
0.00015048
0.000161365
0.000163752
0.000116201
0.00011377
0.000107196
0.000119198
0.000106276
0.000118496
0.000120297
0.000115865
0.000119196
0.000112971
0.000112962
0.000108271
0.00010609
0.000109903
0.000110846
0.000195546
0.000259657
0.000108949
0.000121515
0.000128369
0.000123196
0.000120835
0.000118022
0.000117814
0.000116632
0.000113762
0.000137808
0.000134618
0.000144678
0.000110846
0.000112179
0.000153185
0.000168793
0.000173116
0.000164294
0.000172602
0.000164936
0.000187882
0.000123746
0.000117691
0.000109539
0.000124033
0.000110318
0.000123296
0.000126354
0.000115486
0.000118514
0.000123475
0.000119744
0.000114881
0.000110312
0.000106839
0.000111169
0.000112757
0.000226546
0.000293061
0.000146025
0.000126138
0.000128861
0.000122377
0.000125815
0.000121523
0.00012023
0.000119803
0.000117575
0.00011509
0.000138203
0.000142268
0.000133288
0.000151646
0.000145212
9.38024e-05
0.00011602
0.000193821
0.000164063
0.000181655
0.000186789
0.000170084
0.000187871
0.000194832
0.000127985
0.00012596
0.000114119
0.000123332
0.000129636
0.000118725
0.000127608
0.000129423
0.00011758
0.000121147
0.000127561
0.000124211
0.000114303
0.000117281
0.000111417
0.000111088
0.000107903
0.000113474
0.000286973
0.00013638
0.000127555
0.000124477
0.000127341
0.000123435
0.000120819
0.000120667
0.000116742
0.000119778
0.000115611
0.000141791
0.000146242
0.000135958
0.00015888
0.000153242
0.000100592
0.000115412
0.000239609
0.000172082
0.000192978
0.000196736
0.000185126
0.000204499
0.00019549
0.000217519
0.00013785
0.000133077
0.000115869
0.000128624
0.000136959
0.000132725
0.000132462
0.000135619
0.00012011
0.00012428
0.000126751
0.000132735
0.00012598
0.000116821
0.000119053
0.000113946
0.000113376
0.000104624
0.000115147
0.000336335
0.000246823
6.65842e-05
0.000130701
0.000126482
0.000129841
0.000127956
0.000124314
0.000122742
0.000122739
0.000118084
0.000120958
0.000117559
0.000141014
0.00015078
0.000134452
0.000167936
0.000157257
0.000103799
0.000108658
0.000118119
0.000218666
0.000185356
0.00021436
0.00021655
0.000193858
0.000233597
0.000238256
0.000221937
0.000143828
0.000138573
0.000135451
0.000126108
0.000141496
0.000139519
0.000137753
0.000121915
0.000126311
0.000131629
0.000136374
0.000130044
0.000117192
0.000121273
0.000115203
0.000114814
0.000115066
0.000123133
0.000338676
0.000243544
8.56604e-05
0.000127402
0.000131939
0.000130402
0.000126257
0.000124287
0.000119498
0.000122696
0.000120711
0.000144583
0.000149973
0.000156559
0.000137962
0.00017506
0.000166153
0.000133155
0.000109691
0.000119134
0.000383072
0.000194532
0.000243863
0.000223551
0.000229537
0.000212978
0.000285738
0.000303461
0.000155756
0.00014705
0.000145085
0.00014964
0.000157021
0.000143776
0.000124497
0.000129681
0.000132896
0.000141167
0.000131719
0.000118948
0.000123007
0.000117263
0.000116541
0.000116541
0.000115972
8.2611e-05
0.000385226
0.000129679
0.000134397
0.000131332
0.000127185
0.000126104
0.000124098
0.000119529
0.000123167
0.000121955
0.000143051
0.000154058
0.000162379
0.00013684
0.000188157
0.000170043
0.000176805
0.000111448
0.000120504
0.000380596
0.000211356
0.000306709
0.000252995
0.000256055
0.00022354
0.000375368
0.000155873
0.000163646
0.00014978
0.000162942
0.000150937
0.000158101
0.000170699
0.000144515
0.000125708
0.000131307
0.000138174
0.000143394
0.000135658
0.000120649
0.000123342
0.000117795
0.000116992
0.000117528
0.00011775
0.000116871
0.000102423
0.000383675
0.00013027
0.000135582
0.000133798
0.000129039
0.000127332
0.00012585
0.000120872
0.000124448
0.000122064
0.000146538
0.000160432
0.000151486
0.000140124
0.000197331
0.000177297
0.000370984
0.000195063
0.000100294
0.000124964
0.000120348
0.000222571
0.00028975
0.000535621
0.000268074
0.000272581
0.00024882
0.000168397
0.00017675
0.000166301
0.000183373
0.000158919
0.000169174
0.000202822
0.000150991
0.000127961
0.000130264
0.000134414
0.000139161
0.000149566
0.000136739
0.000122344
0.000120812
0.000125921
0.000119621
0.000118597
0.000118908
0.000119126
0.000115729
0.000118096
0.000335003
0.000464589
0.000131983
0.000138234
0.000134601
0.000129367
0.000127391
0.000126084
0.000124125
0.000125588
0.000123162
0.000145467
0.000164705
0.000154411
0.000142846
0.000140071
0.000214938
0.00019414
0.000186079
0.000177659
0.000113686
0.000425151
0.000105825
0.000123372
0.00012223
0.000245404
0.000389893
0.0014079
0.000312272
0.000309983
0.00026216
0.000177923
0.000184136
0.000185969
0.000183096
0.000224303
0.000169114
0.000158246
0.00021923
0.000127774
0.000132428
0.000135281
0.000144205
0.000153979
0.000140202
0.000123919
0.000122516
0.000125902
0.000120168
0.000119464
0.00012117
0.000118612
0.00011665
8.82528e-05
0.000397238
0.000133613
0.000130879
0.000139173
0.000137107
0.000129085
0.000127529
0.000125193
0.000126538
0.000123506
0.000150084
0.000170872
0.000159166
0.000144706
0.000142851
0.000226276
0.000211537
0.000194179
0.000185074
0.000172508
0.000468983
0.000123497
0.000104497
0.000123265
0.000259564
0.000383683
0.000664365
0.000331792
0.000333174
0.000297507
0.000201599
0.000213103
0.000204913
0.000198083
0.000243401
0.000179601
0.000165974
0.000129759
0.000131775
0.000137777
0.000143551
0.000149965
0.00016148
0.000140438
0.000123718
0.000123039
0.00012749
0.000121523
0.000120785
0.00012161
0.000120286
0.000110148
0.000134758
0.000620004
0.000134766
0.000131864
0.000141831
0.000136961
0.000130612
0.000128452
0.000127698
0.000126348
0.000124818
0.000123999
0.00015082
0.000170919
0.000160244
0.000147911
0.000144046
0.000246143
0.000218784
0.000203025
0.000183372
0.000319814
0.000123757
0.000114894
0.000292338
0.000541288
0.00175266
0.000416781
0.000387748
0.000317816
0.000247871
0.000222703
0.000207031
0.000199476
0.000288494
0.000194175
0.000176137
0.000165764
0.000129559
0.000133534
0.000138189
0.000147316
0.000155015
0.000165041
0.000143201
0.000125336
0.000122819
0.000124594
0.000126714
0.000121365
0.000121413
0.000123164
0.000120327
0.000112927
0.000162077
0.000591835
0.000133847
0.000131627
0.00014278
0.000138474
0.000131517
0.000129416
0.000128663
0.000127371
0.000125585
0.000125258
0.000155484
0.000177293
0.000165815
0.000149142
0.000147052
0.000259016
0.000215337
0.000238669
0.000198522
0.000190076
0.000420114
0.000125544
0.000130033
0.000104754
0.000314027
0.000567321
0.000970702
0.00044861
0.000414979
0.000376039
0.000267106
0.000306387
0.000240486
0.000245995
0.000225396
0.000206612
0.000185846
0.000174581
0.000131176
0.000135188
0.00013711
0.000141043
0.000145652
0.000151314
0.000161546
0.000154676
0.000173715
0.000143307
0.000125538
0.000123879
0.000125017
0.000128126
0.000122615
0.00012235
0.000123064
0.00012202
0.000112451
0.000247655
0.000638796
0.000134905
0.000133526
0.000142066
0.000145824
0.000140353
0.000136686
0.000132948
0.00013062
0.000129258
0.00012837
0.00012706
0.000126538
0.000125864
0.000155908
0.000178174
0.000167605
0.000152604
0.000148202
0.000289103
0.000226711
0.000244792
0.000205434
0.000185612
0.000434436
0.000124253
0.000128304
0.000132908
0.00010652
0.000358152
0.00109824
0.00205871
0.000594975
0.00051871
0.00042316
0.000401415
0.000365725
0.000273312
0.000279202
0.000241875
0.000198941
0.000226945
0.000183002
0.000131166
0.000134766
0.000138499
0.000140642
0.000147944
0.000153517
0.000166302
0.000160431
0.000179414
0.00014591
0.000127028
0.000124081
0.000126139
0.000129728
0.000123552
0.000123181
0.00012441
0.000122499
0.000117915
0.000205006
0.000736832
0.000133992
0.00014397
0.000146111
0.000140415
0.000137329
0.000133472
0.000131171
0.00013044
0.000128967
0.000128793
0.000127979
0.00012699
0.000126803
0.000160135
0.000174438
0.000164693
0.00015318
0.000151138
0.000307987
0.000218472
0.00026222
0.000198277
0.000189531
0.000319267
0.000125757
0.000127661
0.000125813
0.000411902
0.000371247
0.00200985
0.0011399
0.000602031
0.000519595
0.000557772
0.000301677
0.000379364
0.00027502
0.000208934
0.000240164
0.000192382
0.000133309
0.000136788
0.000142303
0.000151022
0.000157939
0.000173436
0.00016526
0.000161108
0.000190336
0.000146855
0.00012746
0.000125569
0.000130472
0.000124334
0.000123417
0.000123153
0.000126754
0.000123202
0.000119535
0.000337816
0.000708771
0.000135616
0.000142521
0.000148249
0.000139248
0.000137055
0.000135146
0.000133413
0.000132366
0.000130771
0.000129938
0.000129825
0.000128778
0.000127914
0.000127628
0.000159053
0.000177932
0.000168485
0.000156287
0.000152514
0.000351311
0.000301135
0.000226795
0.000285404
0.000258433
0.0002018
0.000185519
0.000538298
0.000127637
0.000130559
0.000163776
0.000490443
0.000443535
0.00213885
0.00080572
0.000622019
0.00146096
0.000302825
0.000354381
0.000678583
0.000295144
0.000223964
0.000203383
0.000264672
0.0001337
0.000137162
0.000141244
0.000144698
0.000152579
0.000159819
0.00017784
0.000170884
0.000166692
0.000198109
0.000149608
0.000128834
0.000126335
0.00013225
0.000129954
0.000125385
0.000124507
0.000124477
0.000125951
0.000124028
0.000149098
0.000276009
0.00083703
0.000143236
0.000147088
0.000151429
0.000139897
0.000138466
0.000136089
0.000134614
0.000132312
0.000131615
0.00013063
0.000129742
0.000128609
0.000127337
0.000128535
0.000162072
0.000174728
0.000166126
0.000156068
0.000381267
0.000342853
0.000242298
0.000212666
0.000304629
0.000278414
0.000190924
0.000431627
0.000130222
0.000126187
0.000644942
0.000489774
0.00138905
0.000802276
0.000360112
0.000413346
0.00170588
0.000284943
0.000343854
0.00022999
0.000213683
0.00027669
0.00013553
0.000139094
0.000143129
0.000145257
0.00015625
0.000164486
0.0001852
0.000171303
0.000168458
0.000194636
0.000211535
0.000147934
0.000129157
0.000127585
0.000132547
0.000131252
0.000125748
0.000125269
0.000124783
0.000125094
0.000127759
0.000119389
0.000377404
0.000831905
0.000141556
0.000145195
0.000149096
0.00015367
0.000138914
0.000137248
0.000135609
0.000134237
0.000133306
0.000131964
0.000130619
0.000131625
0.000129498
0.00012928
0.000129219
0.000158809
0.000179296
0.000169049
0.00043701
0.000359554
0.000245297
0.000215941
0.000331926
0.000269376
0.000191375
0.000594217
0.000133451
0.000125451
0.000157022
0.000875601
0.000572109
0.00244505
0.00129892
0.000391972
0.000551906
0.0009412
0.000326237
0.000374848
0.000248746
0.000307477
0.000135961
0.000138282
0.000143703
0.000157194
0.000165735
0.000185477
0.000177974
0.000174105
0.00020565
0.000220857
0.000149232
0.000128553
0.000130371
0.000127611
0.000133851
0.000131439
0.000126803
0.000125944
0.000125816
0.000126473
0.000128274
0.000141533
0.000213572
0.000881847
0.000141845
0.000145455
0.000147733
0.000151364
0.000156478
0.000140539
0.000138219
0.000137313
0.000136285
0.000135037
0.000133036
0.000131422
0.000132384
0.000130116
0.000129312
0.000129886
0.000159855
0.000174036
0.000185877
0.000166871
0.00047981
0.000407736
0.000234706
0.000210657
0.000344798
0.000286595
0.00020076
0.000277782
0.00115651
0.000133093
0.0001273
0.000125411
0.00089626
0.00152585
0.00072193
0.000572522
0.000497269
0.000618936
0.00206506
0.000340536
0.000453229
0.00024875
0.000320805
0.000135107
0.000139486
0.000146134
0.000141502
0.000155128
0.00016173
0.000170984
0.000193436
0.00017777
0.00017705
0.000204632
0.000234729
0.000151703
0.000129412
0.00012851
0.000134145
0.000132727
0.000126877
0.000126222
0.00012638
0.000129038
0.000126036
0.00012935
0.000413747
0.000143419
0.000145003
0.000148484
0.000152508
0.000155974
0.00014037
0.000139099
0.000138239
0.000136048
0.000135138
0.000133704
0.000131415
0.000132192
0.000133279
0.000130849
0.00013029
0.00013035
0.000163349
0.000173272
0.000188734
0.000169028
0.000480263
0.000396908
0.000246805
0.000219892
0.000309271
0.000294313
0.000196798
0.0004552
0.00116124
0.000133474
0.000134132
0.00156408
0.00244873
0.000927872
0.00070799
0.000567425
0.00114628
0.000387873
0.000504319
0.000268928
0.000293041
0.00036841
0.000136399
0.000138925
0.000145397
0.00014184
0.000157117
0.000161355
0.000170064
0.00019176
0.000184452
0.000183116
0.000216128
0.000241814
0.000149795
0.000130072
0.000128346
0.000129322
0.000135363
0.000132333
0.000127684
0.000127278
0.000127273
0.000129689
0.000127599
0.000131552
0.000456673
0.0001428
0.000146518
0.000150439
0.000152414
0.000158766
0.000141482
0.000139334
0.000137932
0.000136885
0.000136098
0.000134581
0.000133704
0.000132066
0.000132831
0.000133696
0.000130874
0.000130745
0.000130586
0.000161951
0.000177168
0.000183008
0.000165381
0.000581536
0.000441986
0.000265179
0.000231719
0.000210783
0.000323954
0.000286239
0.000201687
0.00012938
0.00110916
0.00111625
0.000136722
0.00013442
0.0024457
0.00155592
0.000773755
0.000789736
0.00206366
0.000457005
0.000386348
0.000680455
0.000264892
0.000310496
0.00040394
0.000137857
0.000140617
0.000147649
0.000143781
0.000154781
0.000164742
0.000174632
0.000200765
0.000187521
0.000210438
0.000233773
0.000152037
0.000131244
0.000129102
0.000129749
0.000135847
0.000133354
0.000127933
0.000127579
0.000127803
0.000127864
0.000132519
0.000128336
0.000120709
4.80139e-05
0.000144009
0.000145766
0.000151026
0.000155252
0.000159401
0.000141636
0.000140515
0.000138798
0.000136745
0.000136295
0.000135056
0.000134545
0.000132562
0.000132351
0.00013349
0.000134434
0.000131489
0.000131437
0.000131949
0.000174863
0.000184458
0.000166111
0.00058993
0.000515213
0.000438081
0.000261641
0.000230878
0.000210806
0.000350077
0.000308657
0.000196635
0.000273885
0.0011946
0.00111234
0.000131734
0.000145366
0.000119643
0.0024046
0.00105458
0.000859597
0.00131656
0.000531326
0.000455793
0.000856559
0.000281589
0.000343167
0.000390984
0.00048068
0.000138574
0.000141336
0.000148139
0.000144541
0.000156811
0.000164508
0.000170015
0.000180653
0.000204416
0.000194598
0.0002233
0.000249015
0.000152307
0.000131294
0.000129275
0.000130549
0.000134929
0.000137376
0.000132912
0.000134132
0.000128813
0.00012844
0.000128543
0.000128776
0.000132925
0.000129365
0.000129514
0.000210495
0.00014381
0.000147016
0.000150113
0.000153518
0.000157734
0.000162968
0.000142725
0.000140487
0.000139817
0.000138442
0.000137584
0.000137121
0.000135839
0.000134907
0.00013306
0.000132939
0.000132111
0.000133882
0.000134465
0.000132179
0.000170397
0.000178618
0.00019023
0.000786398
0.00057206
0.000393956
0.000510874
0.000283862
0.000246254
0.000220462
0.000201635
0.00033839
7.50094e-05
0.00076124
0.00168646
0.000606158
0.000136093
0.000143104
0.000127888
0.0016752
0.00106033
0.00149488
0.00240164
0.00069257
0.00147749
0.000277264
0.000345159
0.000455347
0.000572713
0.000139995
0.000142846
0.000150107
0.000146171
0.000154469
0.000159238
0.000162181
0.00017141
0.000183551
0.000213458
0.000191686
0.00023877
0.000226469
0.00013216
0.00013009
0.000130677
0.000135634
0.000137426
0.000133521
0.00013423
0.000129112
0.000128957
0.000128812
0.000129634
0.000130588
0.000136296
0.000113064
6.99289e-05
0.000144917
0.000146096
0.000148596
0.000151538
0.00015374
0.00015947
0.000162758
0.000142644
0.000141688
0.000140248
0.000139098
0.000137533
0.000136241
0.000135699
0.000133623
0.000133301
0.000132642
0.000133998
0.000134975
0.000132976
0.000169537
0.000178893
0.000189492
0.000859571
0.000678933
0.000418995
0.000559165
0.000290226
0.000250152
0.000224875
0.000201605
0.000369973
0.000231122
0.00084669
0.00165142
0.000743042
0.000136354
0.000146192
0.000126224
0.00265555
0.00171666
0.0023659
0.000885263
0.00236758
0.000302834
0.000384664
0.00055572
0.000451009
0.000760347
0.00013994
0.000142327
0.000149934
0.000145202
0.000154273
0.00015901
0.000164681
0.000175505
0.00016771
0.000185833
0.000205926
0.000198529
0.000255076
0.000237296
0.000132091
0.000130329
0.000131482
0.00013657
0.000134954
0.000138665
0.00013363
0.000129801
0.000129774
0.000129574
0.000130865
0.000133012
0.000136108
0.00011376
0.000204877
0.000143685
0.00014678
0.000148425
0.000151473
0.000155806
0.000158037
0.000165528
0.000141384
0.000140504
0.000139943
0.000138918
0.000138351
0.000136993
0.000135777
0.000133787
0.000133534
0.000133516
0.000134592
0.000135471
0.000134328
0.000173158
0.000177445
0.00018504
0.000195395
0.00115961
0.000683456
0.000479633
0.000559641
0.000319838
0.000267504
0.00023749
0.00021787
0.000209874
0.000381805
0.00021922
0.0012594
0.00190075
0.00120926
0.000139286
0.000135847
0.000144856
0.000132984
0.00250105
0.00152724
0.000297624
0.00037132
0.000703947
0.000508984
0.0010214
0.000141149
0.000143602
0.000148093
0.000152045
0.000146302
0.000156454
0.000161386
0.000171586
0.000180458
0.000167734
0.000193407
0.000213683
0.000200937
0.000275175
0.000252317
0.000225451
0.000132908
0.00013111
0.000131709
0.000136872
0.000135171
0.00013857
0.000134443
0.000130041
0.000130616
0.000129833
0.000129944
0.000131231
0.000132718
0.000139842
0.000153863
6.72175e-05
0.00023796
0.000143975
0.00014624
0.000149706
0.000153231
0.000156446
0.000160107
0.000164542
0.000142156
0.000141523
0.000140154
0.000139509
0.000138358
0.000137167
0.000136451
0.000134335
0.000134274
0.000134511
0.000134795
0.000135774
0.00013513
0.0001706
0.000181557
0.000186407
0.000196725
0.00117191
0.00177885
0.000858909
0.00048733
0.000677073
0.00030715
0.000358203
0.000263004
0.000234913
0.000222248
0.000202903
0.000444931
0.000442087
0.00113008
0.00202784
0.0011956
0.000140603
0.000138237
0.00015031
0.000116114
0.00245417
0.000336742
0.00043216
0.000772428
0.000899314
0.000613468
0.00168693
0.000141376
0.000142813
0.00014825
0.000151746
0.000144961
0.000155502
0.00016121
0.000173158
0.000182098
0.000164578
0.000189891
0.000209148
0.000286384
0.000264646
0.000232947
0.000133024
0.000131229
0.000132462
0.000136045
0.000137743
0.000139517
0.000134664
0.000130785
0.000131463
0.000130522
0.000130571
0.000132962
0.000134693
0.000136128
0.000144327
0.000101388
0.000526253
0.000143972
0.000145382
0.000147616
0.000149695
0.00015249
0.000154883
0.000158659
0.000162671
0.000167614
0.000143095
0.000141396
0.000140773
0.000139443
0.000138935
0.000137859
0.000136912
0.000136304
0.000134779
0.000134852
0.000135608
0.000135443
0.000135751
0.000137017
0.000172079
0.000179628
0.000191275
0.00181269
0.00273961
0.000856034
0.000574495
0.000678848
0.000331293
0.000279969
0.000393912
0.000245295
0.000216326
0.000200209
0.000483898
0.000472111
0.0020114
0.00186966
0.000142596
0.000138685
0.000149724
5.5897e-05
0.000157142
0.000355751
0.000463674
0.00101303
0.00142669
0.000654668
0.00262081
0.000140571
0.000143467
0.000146894
0.000150018
0.000153552
0.000145354
0.000157266
0.000159523
0.000169944
0.000178081
0.000182411
0.000164071
0.000194648
0.000216136
0.000313467
0.000250282
0.000229879
0.000133801
0.000131971
0.000132772
0.000136113
0.00013786
0.000138813
0.00013434
0.000135617
0.000131037
0.000131138
0.000132625
0.000133758
0.000134881
0.000138938
0.000154758
0.00014086
7.60124e-05
0.000558568
0.000145055
0.000145906
0.000146866
0.000148757
0.000151207
0.000153361
0.000154953
0.000159781
0.000164264
0.000166736
0.000142769
0.000142018
0.000140829
0.000140037
0.000139059
0.000137842
0.000137302
0.000136626
0.00013533
0.000135739
0.000135431
0.000137562
0.000135739
0.000136275
0.000138345
0.000175396
0.00016871
0.000182787
0.000188012
0.00254967
0.00114653
0.000590433
0.000823689
0.000373464
0.000315213
0.000265776
0.000453201
0.000236676
0.000206206
0.000222942
0.000191906
0.000564733
0.000876674
0.00204663
0.00187893
0.000142203
0.00014665
0.000141131
0.000203755
0.000141766
0.000400312
0.000454648
0.00057009
0.000891913
0.00158859
0.000141165
0.000142474
0.000147176
0.000150077
0.000153586
0.000144416
0.000155479
0.00016092
0.000171039
0.000166592
0.000178328
0.000188462
0.000201983
0.000209856
0.000310476
0.000258781
0.00024078
0.000133972
0.000132532
0.000132068
0.000133579
0.000137112
0.000139299
0.000134946
0.000136088
0.000131635
0.000131908
0.000133356
0.000135903
0.000137688
0.000138687
0.000136678
0.000142176
0.000137199
0.00100553
0.000145089
0.000147057
0.0001492
0.000150413
0.000153524
0.000156364
0.000162115
0.000157988
0.000143381
0.000141535
0.000140563
0.000139614
0.000138723
0.000138274
0.000137131
0.000136626
0.000135829
0.000137199
0.00013695
0.000138632
0.000136281
0.000136508
0.000140942
0.000174344
0.000166021
0.000178471
0.00180907
0.00102283
0.000719811
0.000845201
0.000411902
0.000341311
0.000282069
0.000245441
0.000502217
0.000200323
0.000215135
0.000188817
0.000647172
0.00161027
0.000515078
0.00211773
0.00179017
0.000144479
0.000149094
0.000141446
0.000102173
0.000152081
0.00040517
0.000519131
0.000651534
0.00116495
0.00254732
0.000140401
0.000143037
0.000146215
0.000148696
0.000151861
0.000144926
0.000156439
0.000159344
0.000167975
0.000174503
0.00016559
0.000182858
0.000187753
0.000204641
0.00021942
0.000279508
0.000345331
0.000233206
0.000134593
0.000133078
0.000132726
0.000133896
0.000137312
0.000139255
0.000135532
0.000136795
0.000131929
0.000132749
0.000134545
0.000136859
0.000138214
0.00015614
8.655e-05
0.000145402
0.000262963
0.00081272
0.000146021
0.000144217
0.000148054
0.00015102
0.000152208
0.000154746
0.000161109
0.00015833
0.000142685
0.000141576
0.00014091
0.000139681
0.000138847
0.000138158
0.000137481
0.000137052
0.000137003
0.000138315
0.000140618
0.000136776
0.000137008
0.000142396
0.000170875
0.000162749
0.000167089
0.000179012
0.00270954
0.00131579
0.000770554
0.00107737
0.000479883
0.000387217
0.000597944
0.000193357
0.000183566
0.00178676
0.000890004
0.00258382
0.00207455
0.000144973
0.000153091
0.000142464
0.000152925
0.000144742
0.000385854
0.000476383
0.000607388
0.000824314
0.00113142
0.00179943
0.000140838
0.000142645
0.000146566
0.000148861
0.000151857
0.000144586
0.000155582
0.000160688
0.000168097
0.000174847
0.000163276
0.000134843
0.000133218
0.000133701
0.000132902
0.00013457
0.000138052
0.000138634
0.000140074
0.000135545
0.000137046
0.000132712
0.000133634
0.000135996
0.000134817
0.000139178
0.000140577
0.000147271
0.000130263
0.000145445
0.000297843
0.00148357
0.00014561
0.000143998
0.00014761
0.00014955
0.000151035
0.000153319
0.000156999
0.000142729
0.000142038
0.000140633
0.000140125
0.000139238
0.00013848
0.000137878
0.000137367
0.000137048
0.000137413
0.000138079
0.000140609
0.000141316
0.000142334
0.000137894
0.000137597
0.000143045
0.00017119
0.000160524
0.000164423
0.00195941
0.000959016
0.00132465
0.000560774
0.00042913
0.000680992
0.00242519
0.000825939
0.00263286
0.000146514
0.00015254
0.000280878
0.000112736
0.000152614
0.000527063
0.000690231
0.000860283
0.0017795
0.00272539
0.000141718
0.000143553
0.000147748
0.000145422
0.000150386
0.000153654
0.000157316
0.000159408
0.000165072
0.000162949
0.000134851
0.000133838
0.000134203
0.000133776
0.000134909
0.000137722
0.000138769
0.000140079
0.000136089
0.000136726
0.000133551
0.000138128
0.00013608
0.000140453
0.000139933
0.00014251
0.000152227
0.000105782
0.000152078
0.000504504
0.00142376
0.000144609
0.000146333
0.000143285
0.000148401
0.000149479
0.000151648
0.000153929
0.000155334
0.000158368
0.000142174
0.000141498
0.000140953
0.000139888
0.000139257
0.00013847
0.000137915
0.000137608
0.000137487
0.000138854
0.000139919
0.000141453
0.000143881
0.000144237
0.000139175
0.000138159
0.000138064
0.000145615
0.000161364
0.00277765
0.000849169
0.00126257
0.00200475
0.000683214
0.000581611
0.00049863
0.00247565
0.00138518
0.00276615
0.000147251
0.000146472
0.00015321
0.000465494
0.000124912
0.000147235
0.000636925
0.00110952
0.00254215
0.000141562
0.000143247
0.000148291
0.000145192
0.000150537
0.000153179
0.000156007
0.000160481
0.000135556
0.000134485
0.000134191
0.000134752
0.000134207
0.000134435
0.000135477
0.000134898
0.000138087
0.000139406
0.000140824
0.000136046
0.000137208
0.000138315
0.000136272
0.000142875
0.000142214
0.000144591
0.000144649
0.000110138
0.000150623
0.000451491
0.00204659
0.000143995
0.000145817
0.000142835
0.000147541
0.000149183
0.000151409
0.000152421
0.000155269
0.000156641
0.000142191
0.000141634
0.000140566
0.000139605
0.000140192
0.000139153
0.000138914
0.000138277
0.000137797
0.000140062
0.000140473
0.000142709
0.000145263
0.000145823
0.000140615
0.0001394
0.00013866
0.000146476
0.000159502
0.00103882
0.00181786
0.00282186
0.000863253
0.000727425
0.00300019
0.00221046
0.0010569
0.000150513
0.000149047
0.000159361
0.000284709
0.000132963
0.000149888
0.000742441
0.00176804
0.000940518
0.000142333
0.000144048
0.000147447
0.000149712
0.000146196
0.000151965
0.00015437
0.000157037
0.000135129
0.000134762
0.00013529
0.000135082
0.00013553