/*--------------------------------*- C++ -*----------------------------------*\
| =========                 |                                                 |
| \\      /  F ield         | OpenFOAM: The Open Source CFD Toolbox           |
|  \\    /   O peration     | Version:  v2012                                 |
|   \\  /    A nd           | Website:  www.openfoam.com                      |
|    \\/     M anipulation  |                                                 |
\*---------------------------------------------------------------------------*/
FoamFile
{
    version     2.0;
    format      ascii;
    class       volScalarField;
    location    "150";
    object      nut;
}
// * * * * * * * * * * * * * * * * * * * * * * * * * * * * * * * * * * * * * //

dimensions      [0 2 -1 0 0 0 0];


internalField   nonuniform List<scalar> 
12639
(
0.000226171
0.000227546
0.00022483
0.000227439
0.000226962
0.000222684
0.000225361
0.000228293
0.000227445
0.000222207
0.000224894
0.000228304
0.000227887
0.000227298
0.000223041
0.000222667
0.000226251
0.000222631
0.000229166
0.000228133
0.000227951
0.000224196
0.000224
0.000225543
0.00022288
0.000229286
0.000228957
0.000228654
0.000228219
0.00022601
0.000224446
0.000223212
0.000226896
0.000223667
0.00023015
0.000229555
0.000229023
0.00022886
0.000227781
0.000227236
0.000226106
0.000223255
0.000226494
0.000224433
0.000229979
0.000230347
0.000229736
0.000229617
0.0002293
0.000228638
0.00022733
0.000227769
0.000226257
0.000223663
0.000224317
0.000229244
0.000224082
0.0002305
0.000231132
0.00023037
0.000230143
0.00022987
0.000229066
0.000228523
0.000228975
0.000227152
0.000228201
0.00022726
0.00022428
0.000225892
0.000229195
0.000224479
0.000230531
0.00023115
0.000230871
0.000230668
0.000230194
0.000229456
0.000229292
0.000229255
0.000227137
0.000227689
0.000229925
0.000226365
0.000224905
0.000227948
0.000222275
0.000231272
0.000231799
0.000231376
0.000231018
0.000230018
0.000230874
0.000229814
0.000228625
0.000227672
0.00022829
0.000230404
0.000230717
0.000230488
0.000228007
0.00022355
0.000231682
0.0002317
0.000232237
0.000231561
0.00023054
0.000231451
0.000230592
0.000229214
0.000228218
0.000228654
0.000229642
0.000230951
0.00022928
0.000232366
0.000224906
0.000223112
0.000232277
0.000232331
0.000232497
0.000232054
0.000231203
0.000232091
0.000231365
0.000229541
0.000228722
0.000228201
0.000229268
0.000230203
0.000230784
0.000231361
0.00023174
0.000225562
0.000223437
0.000232736
0.000232893
0.000233126
0.000232553
0.000231685
0.000232462
0.00023251
0.00023202
0.000230097
0.000229273
0.000229098
0.000229691
0.000230266
0.00023133
0.000229398
0.000231974
0.000229071
0.00023394
0.000222691
0.000233022
0.000233276
0.000233559
0.000233227
0.000233356
0.000232481
0.00023318
0.000233172
0.000232675
0.00023054
0.000229377
0.000229422
0.000230328
0.000230923
0.00023137
0.000231805
0.00023094
0.000232323
0.000228378
0.000234242
0.000223135
0.000233739
0.000233825
0.000234234
0.000233761
0.000233978
0.000233291
0.000233751
0.000233771
0.000231307
0.00023347
0.000230789
0.000231101
0.00023001
0.00023012
0.000230498
0.000231942
0.000232266
0.000230089
0.000233012
0.000237104
0.000222573
0.000233418
0.000224958
0.000233875
0.000234218
0.000234308
0.000234816
0.000234197
0.000234793
0.000234027
0.00023429
0.000234455
0.000232399
0.000233919
0.000231468
0.000231741
0.00023058
0.000231217
0.000232434
0.000232815
0.000234375
0.000233488
0.000232797
0.000234756
0.000223213
0.000234117
0.000224541
0.000234514
0.000234773
0.0002347
0.000234512
0.000235291
0.000235192
0.000234371
0.000235309
0.000234362
0.000235063
0.000235491
0.000231493
0.000231995
0.000232375
0.000231168
0.000230343
0.000231846
0.000233199
0.000232638
0.000233434
0.000233615
0.000233516
0.000233358
0.000237097
0.000230791
0.000219866
0.00023453
0.000233285
0.000234854
0.000235336
0.000235136
0.000235001
0.000235896
0.000235928
0.000234808
0.00023629
0.000234808
0.00023606
0.000235765
0.000232893
0.000232864
0.00023309
0.000231691
0.000231173
0.000232485
0.000233777
0.000233621
0.000233955
0.000233609
0.000233893
0.000233694
0.000237062
0.000229466
0.000220707
0.000235234
0.000228298
0.000235313
0.000235837
0.000235533
0.000235285
0.000235161
0.000236449
0.000236553
0.000234956
0.000236647
0.000237121
0.000237125
0.000236366
0.000232451
0.00023352
0.000233851
0.000232228
0.000231021
0.000233122
0.000234166
0.000234418
0.000234431
0.000234135
0.000234325
0.000234162
0.000236851
0.000225393
0.000219105
0.000238284
0.000235637
0.000236493
0.000235998
0.000235725
0.000235557
0.000237096
0.000237263
0.0002355
0.000237481
0.000238299
0.000238403
0.000234963
0.000237398
0.000229464
0.000234276
0.000234736
0.000232594
0.000231899
0.000233348
0.00023504
0.000234971
0.000234587
0.000234758
0.000234653
0.000234627
0.000234547
0.000237251
0.000224476
0.000219782
0.000231264
0.000236168
0.000236937
0.000236334
0.000236074
0.000235804
0.000237711
0.000238053
0.000235785
0.000235659
0.000237832
0.000240108
0.000239469
0.000233982
0.000237126
0.000231171
0.00023486
0.000234097
0.000235511
0.000233201
0.000231749
0.000235381
0.000235733
0.000235519
0.000235163
0.000235189
0.000234861
0.000235033
0.00023485
0.000237573
0.000226132
0.000219892
0.000236737
0.000236675
0.000237468
0.000236757
0.000236275
0.000236337
0.00023619
0.000235815
0.00023831
0.000238754
0.000236994
0.00023589
0.000238866
0.000241184
0.000239781
0.000234932
0.000237905
0.000229885
0.000235666
0.000234673
0.000236294
0.000233717
0.000232634
0.000236122
0.000236703
0.000235668
0.000236152
0.000235517
0.000235522
0.000235724
0.000234853
0.000234782
0.000235334
0.00023369
0.000222105
0.00021946
0.000231144
0.000237115
0.000237752
0.000237102
0.000236913
0.000236698
0.000236708
0.000236436
0.00023617
0.000238813
0.000238594
0.000239391
0.000236046
0.000241178
0.000239815
0.000242876
0.000240535
0.000240338
0.000233655
0.000236651
0.000231654
0.000235971
0.000235495
0.000234294
0.000237035
0.00023221
0.000236925
0.000237308
0.00023623
0.000236787
0.00023589
0.000235945
0.000235843
0.000235257
0.000235279
0.000235564
0.000223946
0.000219766
0.000235835
0.000237239
0.000238209
0.000237564
0.000237253
0.000236866
0.000236908
0.000236767
0.000236416
0.000239474
0.000239087
0.000240317
0.000237285
0.000235916
0.000240703
0.000241922
0.000243669
0.000242337
0.000237856
0.000234638
0.000231358
0.000237075
0.00023604
0.000234471
0.000237632
0.000229544
0.000237683
0.000238183
0.000236267
0.000236636
0.000237576
0.0002368
0.00023628
0.000236229
0.000235506
0.000235454
0.000235908
0.000222447
0.000219126
0.000229857
0.000237928
0.000238315
0.000237475
0.000237951
0.000237396
0.000237222
0.000237224
0.000236976
0.000236697
0.000239571
0.000240075
0.00023894
0.000241145
0.000240429
0.000242054
0.000236721
0.000224872
0.000241772
0.000242454
0.000244897
0.000242907
0.000238168
0.000233382
0.000237757
0.000237594
0.000234524
0.000236275
0.000238481
0.000230904
0.000238437
0.000238694
0.00023665
0.000237094
0.000238198
0.000237513
0.00023616
0.000236666
0.000235489
0.000236901
0.00023619
0.000236002
0.000219521
0.000231652
0.000238167
0.000237824
0.000238205
0.0002377
0.000237354
0.000237394
0.000236913
0.000237317
0.00023687
0.000240077
0.000240641
0.000239335
0.000242045
0.000241441
0.000240735
0.000237301
0.000222501
0.000242842
0.000241694
0.000245764
0.000244712
0.000237011
0.000240109
0.000234446
0.000238831
0.000237722
0.000232477
0.000234151
0.000239388
0.000229904
0.000239119
0.000239534
0.000237023
0.000237562
0.000237955
0.000239087
0.000237768
0.000236569
0.000236962
0.000236023
0.000236966
0.000237569
0.000236261
0.000218335
0.000220581
0.000265832
0.000238629
0.00023813
0.000238553
0.000238323
0.000237872
0.000237658
0.000237703
0.000237211
0.000237555
0.000237153
0.000240007
0.000241237
0.000239152
0.000242996
0.000241987
0.000241467
0.000238411
0.000237352
0.000223896
0.000244188
0.000243194
0.000247169
0.000245547
0.000236239
0.000238827
0.000240159
0.000239759
0.000238707
0.000234722
0.000232698
0.000240143
0.000231555
0.000239915
0.000237359
0.000237927
0.00023871
0.000239563
0.000238379
0.000236592
0.000237302
0.000236282
0.000236248
0.000237003
0.000232434
0.000218345
0.000221252
0.000251566
0.000238308
0.000238881
0.000238693
0.000238171
0.000237958
0.000237445
0.000237818
0.0002376
0.000240498
0.000241178
0.000241939
0.000239656
0.000243951
0.000243019
0.000235005
0.000239191
0.000237573
0.00021793
0.000245222
0.000242754
0.000245028
0.000248793
0.000247513
0.000237592
0.000240659
0.000240855
0.000238945
0.000234325
0.000241139
0.000232138
0.00024071
0.000237736
0.000238415
0.000238826
0.000240262
0.00023863
0.000236877
0.000237585
0.000236612
0.000236586
0.000237203
0.000234207
0.000260278
0.000215663
0.00023865
0.000239235
0.000238864
0.000238341
0.000238209
0.000237993
0.000237532
0.000237984
0.00023784
0.00024032
0.000241709
0.000242664
0.000239544
0.000245195
0.000243526
0.000229559
0.000239471
0.00023776
0.000217799
0.00024679
0.000248572
0.000246068
0.000250242
0.000248416
0.000247224
0.000240114
0.000241913
0.000235944
0.000234047
0.000241576
0.000241893
0.000233963
0.000240826
0.000237986
0.000238715
0.000239601
0.000240462
0.000239193
0.000237145
0.000237622
0.000236713
0.000236741
0.000236719
0.000237499
0.000235085
0.000247829
0.000216368
0.000238772
0.000239448
0.000239224
0.000238613
0.00023842
0.000238282
0.000237827
0.000238214
0.000237928
0.000240793
0.000242473
0.000241408
0.00024001
0.000246281
0.000244351
0.000219083
0.000227899
0.00024279
0.000237386
0.000238056
0.000247875
0.000246189
0.000264199
0.00024845
0.00025205
0.000250586
0.000240068
0.000242924
0.000235208
0.000235535
0.000242533
0.000243172
0.000235801
0.000241642
0.000238319
0.000238642
0.000239139
0.000239658
0.000241317
0.000239397
0.000237422
0.000237163
0.000238015
0.000236999
0.000237032
0.000236976
0.000237538
0.000234723
0.000245793
0.000217016
0.000216752
0.000239032
0.000239824
0.00023937
0.000238693
0.000238468
0.000238379
0.000238248
0.000238362
0.000238138
0.000240681
0.000243007
0.000241796
0.000240363
0.000240049
0.000247749
0.000246066
0.000245278
0.00024445
0.000243146
0.00021764
0.000241953
0.000237993
0.00023824
0.000249744
0.000254346
0.000295452
0.000250464
0.000253899
0.000251632
0.000236687
0.00024064
0.000242677
0.000244207
0.000238206
0.000243535
0.000242602
0.000237473
0.000238313
0.000238983
0.000239357
0.00024036
0.000241839
0.000239886
0.000237646
0.000237435
0.00023797
0.000237143
0.000237176
0.000238431
0.000236961
0.000235702
0.000263039
0.000215869
0.000239259
0.000238915
0.000239996
0.000239727
0.000238752
0.00023861
0.000238447
0.000238566
0.000238233
0.00024128
0.000243715
0.000242376
0.000240649
0.000240436
0.000248913
0.000247721
0.000246164
0.000245254
0.000233617
0.000216659
0.000238252
0.000243728
0.000238412
0.000250942
0.000253928
0.000270155
0.000252766
0.000256086
0.000254198
0.000236078
0.000238333
0.000243354
0.000245781
0.000239663
0.000244669
0.0002435
0.000238597
0.000238907
0.000239713
0.000240287
0.000241139
0.000242836
0.000240012
0.000237602
0.000237541
0.0002382
0.000237377
0.000237402
0.000238252
0.000237391
0.000235971
0.00024919
0.000210748
0.00023945
0.000239077
0.000240364
0.000239747
0.000238968
0.000238723
0.000238712
0.000238606
0.000238432
0.000238472
0.000241406
0.000243755
0.00024254
0.000241069
0.000240629
0.000250448
0.000248478
0.000247052
0.000245108
0.000226082
0.000238629
0.000242176
0.000253369
0.000264004
0.000298959
0.000257504
0.000258616
0.000255615
0.000240267
0.000249265
0.000236732
0.000245325
0.000242929
0.000245845
0.000244596
0.000243486
0.000238526
0.000239147
0.00023983
0.000240818
0.000241762
0.000243169
0.000240406
0.000237854
0.000237544
0.000237776
0.000238056
0.000237425
0.000237565
0.000239362
0.00023738
0.000237623
0.000238766
0.000212109
0.000239345
0.000239073
0.00024052
0.000239979
0.000239166
0.000238914
0.000238873
0.000238806
0.000238613
0.000238745
0.000241994
0.000244466
0.000243201
0.00024127
0.000241027
0.000251743
0.000248198
0.000250164
0.000246659
0.000245815
0.000219964
0.00023901
0.000240803
0.000243436
0.000254892
0.000265558
0.000282148
0.000259781
0.00026079
0.000259076
0.000242699
0.000244313
0.000249667
0.00024116
0.000247721
0.000247258
0.000245642
0.000244472
0.000238757
0.000239378
0.000239675
0.000240208
0.000240687
0.000241323
0.000242608
0.000241698
0.000244251
0.000240509
0.000237906
0.000237734
0.00023787
0.000238272
0.00023765
0.000237697
0.000239132
0.000237965
0.000235952
0.000230692
0.000210671
0.000239522
0.000239362
0.00024045
0.000240922
0.000240235
0.000239771
0.000239378
0.00023909
0.000239005
0.000238945
0.000238816
0.000238781
0.000238961
0.000242098
0.000244591
0.000243452
0.000241714
0.000241212
0.000253805
0.000249249
0.000250737
0.00024736
0.000245383
0.000218919
0.000238512
0.000241525
0.000245112
0.000234044
0.000257614
0.000285379
0.000301522
0.00026802
0.00026509
0.000261699
0.000252033
0.000247975
0.000251518
0.000240102
0.00024932
0.000246869
0.00024882
0.000245453
0.000238722
0.000239265
0.00023984
0.000240139
0.000241055
0.000241688
0.000243147
0.000242416
0.000244841
0.000240858
0.000238136
0.000237807
0.000238059
0.000238511
0.000237776
0.000237857
0.000239782
0.00023788
0.000236326
0.000236217
0.00021
0.000239468
0.00024073
0.000241004
0.000240281
0.000239889
0.000239508
0.000239238
0.00023917
0.000239005
0.000239062
0.000239007
0.000238928
0.000239054
0.000242628
0.000244217
0.000243163
0.000241823
0.000241592
0.000255306
0.000248564
0.000252145
0.000246695
0.000245823
0.000225975
0.000239138
0.00024348
0.000236164
0.000261364
0.000258065
0.000301436
0.000286637
0.000268874
0.000265796
0.00026632
0.000252657
0.000252403
0.000251712
0.000247916
0.000250217
0.000246404
0.000239037
0.000239552
0.000240352
0.000241449
0.000242246
0.000244016
0.000242983
0.000242539
0.00024607
0.000241027
0.000238235
0.000238034
0.000238629
0.000237959
0.000237961
0.000238157
0.000241939
0.000238053
0.000229758
0.000229406
0.000210997
0.00023972
0.000240568
0.000241299
0.000240146
0.000239901
0.000239728
0.000239553
0.000239426
0.000239279
0.00023918
0.00023921
0.000239116
0.000239081
0.000239318
0.000242544
0.000244656
0.00024365
0.000242217
0.000241795
0.000257723
0.000254912
0.000249359
0.000253834
0.000251934
0.000247095
0.000245459
0.000219792
0.000240446
0.000244863
0.000230545
0.000265009
0.000261878
0.000302095
0.000276308
0.000270075
0.000295567
0.000254057
0.000253902
0.000270254
0.00025322
0.000249199
0.000247534
0.000252046
0.00023908
0.00023957
0.000240147
0.000240691
0.000241737
0.000242595
0.000244463
0.000243639
0.000243223
0.000246829
0.000241358
0.00023845
0.00023819
0.000238884
0.000238583
0.00023812
0.000238138
0.00023872
0.000240863
0.000238206
0.000232208
0.00023232
0.000209308
0.000240698
0.000241181
0.000241694
0.000240274
0.000240124
0.000239906
0.000239762
0.000239478
0.000239414
0.000239365
0.000239322
0.000239258
0.000239179
0.000239426
0.000242938
0.000244353
0.000243418
0.000242227
0.000259671
0.000257523
0.000250671
0.000248139
0.000255224
0.000253441
0.000246063
0.000222714
0.000244425
0.000237129
0.00027168
0.000264134
0.000291221
0.000275845
0.000256761
0.000257569
0.000298703
0.000253038
0.000256062
0.000249959
0.000248508
0.00025345
0.000239343
0.000239845
0.000240395
0.000240702
0.000242191
0.000243152
0.000245268
0.000243672
0.000243551
0.00024634
0.000248213
0.000241068
0.000238541
0.000238382
0.000238956
0.000238795
0.000238235
0.000238242
0.000238503
0.000239155
0.000242152
0.000232669
0.00022547
0.000209497
0.000240513
0.000240968
0.000241475
0.00024201
0.000240234
0.000240071
0.000239889
0.000239766
0.00023965
0.000239513
0.000239447
0.000239505
0.000239385
0.000240819
0.000239682
0.000242578
0.000244914
0.000243796
0.000262367
0.000258603
0.000250985
0.000248501
0.000256993
0.000252836
0.00024616
0.000218539
0.000246252
0.00023991
0.00023562
0.000279574
0.00026757
0.000304305
0.000289351
0.00025898
0.000265218
0.000281236
0.00025574
0.000258117
0.000251491
0.000255488
0.000239413
0.000239733
0.000240466
0.000242314
0.000243363
0.000245216
0.000244439
0.000244204
0.000247417
0.000249019
0.000241203
0.000238492
0.000238723
0.000238459
0.000239155
0.000238867
0.000238388
0.000238391
0.0002387
0.000240186
0.000240833
0.000231384
0.000246172
0.000209458
0.000240616
0.000241055
0.000241355
0.000241762
0.000242359
0.000240467
0.000240194
0.000240147
0.000240021
0.000239913
0.000239668
0.000239632
0.000239666
0.000239587
0.000240019
0.000239728
0.000242745
0.000244362
0.000245626
0.000243576
0.000264625
0.000261218
0.000250148
0.000248076
0.00025786
0.000254136
0.000247127
0.000244586
0.000206514
0.000246083
0.000239893
0.000233501
0.000279513
0.000293305
0.000273154
0.000268188
0.00026399
0.000268551
0.000301428
0.000256989
0.000262239
0.000251569
0.000256766
0.000239315
0.000239905
0.000240791
0.000240173
0.000241964
0.000242849
0.000243945
0.000246064
0.000244498
0.000244671
0.000247163
0.000250256
0.000241524
0.000238644
0.000238614
0.000239243
0.000239072
0.000238479
0.000238521
0.000238974
0.000245062
0.000238326
0.00023173
0.000226741
0.000240854
0.000241047
0.000241528
0.000241945
0.000242348
0.000240511
0.000240361
0.000240313
0.000240032
0.00023997
0.000239794
0.000239764
0.000239722
0.000239804
0.00023973
0.000240646
0.000239975
0.000243178
0.000244341
0.000245989
0.000243865
0.000264738
0.000260708
0.000251256
0.000249001
0.000255658
0.000254746
0.000246811
0.000225925
0.000207687
0.000245744
0.000247751
0.000293298
0.000304266
0.000279714
0.000273256
0.00026755
0.000286217
0.000259611
0.000264811
0.000253092
0.000254929
0.000259409
0.000239525
0.000239851
0.000240698
0.000240234
0.000242163
0.000242707
0.000243733
0.000245975
0.000245261
0.00024529
0.000248265
0.000250749
0.000241267
0.000238776
0.000238652
0.000238709
0.000239428
0.000239075
0.000238613
0.000238772
0.000239076
0.000244081
0.000239755
0.000233289
0.000224251
0.000240843
0.000241298
0.000241797
0.000242009
0.000242712
0.000240691
0.000240447
0.000240314
0.000240182
0.000240121
0.000239911
0.000239832
0.000239952
0.000239907
0.000239927
0.000239943
0.000240495
0.000241098
0.000243061
0.000244808
0.000245428
0.000243488
0.000269032
0.00026306
0.000252719
0.000250054
0.000248224
0.000256648
0.000254241
0.000247361
0.000386436
0.000204018
0.000214117
0.000249645
0.00022725
0.00030437
0.000293588
0.00027555
0.000276126
0.000301622
0.000262746
0.000259993
0.000271827
0.000252647
0.000256031
0.000261583
0.000239731
0.000240095
0.000241004
0.000240503
0.000241898
0.000243102
0.000244252
0.000246927
0.000245796
0.000247736
0.000249863
0.000241564
0.000238952
0.000238782
0.000238827
0.000239534
0.000239247
0.000238718
0.000238998
0.000238773
0.000239458
0.000247288
0.000240144
0.000229284
0.000393442
0.000241048
0.000241265
0.000241931
0.000242421
0.00024285
0.000240768
0.000240639
0.000240465
0.000240196
0.000240178
0.00024002
0.000239979
0.000239953
0.000240226
0.000239996
0.000240066
0.000240292
0.00024082
0.000242178
0.000244652
0.000245668
0.00024364
0.000269294
0.000266319
0.000262963
0.000252574
0.000250082
0.000248346
0.000258308
0.000255864
0.000246936
0.000260396
0.000204754
0.000213685
0.000242267
0.00025782
0.0002258
0.000304027
0.000283275
0.000278349
0.000289782
0.000266293
0.000263292
0.000278157
0.000253876
0.000258095
0.000261041
0.000264912
0.000239876
0.000240229
0.000241114
0.000240645
0.000242189
0.000243092
0.000243736
0.00024493
0.000247504
0.000246502
0.000248981
0.000251113
0.000241637
0.000239016
0.000238865
0.000238953
0.000239446
0.000239744
0.000239238
0.00023935
0.000238848
0.000239218
0.000238964
0.000239788
0.000245482
0.000240805
0.000227951
0.000278786
0.000241068
0.000241483
0.000241881
0.000242261
0.000242731
0.000243313
0.00024094
0.000240672
0.000240601
0.000240454
0.000240337
0.000240307
0.000240144
0.000240092
0.000240166
0.000240402
0.000240465
0.000240144
0.000240183
0.000241719
0.000244182
0.000245126
0.000246325
0.000275894
0.000268698
0.000260766
0.000266214
0.000254293
0.000251437
0.000249287
0.000247517
0.000257747
0.00109435
0.00021536
0.000200249
0.000252568
0.000246448
0.000251303
0.000227869
0.000295092
0.000283437
0.000292414
0.000303816
0.00027277
0.000292371
0.000253321
0.000257923
0.000264225
0.000268993
0.000240079
0.000240445
0.000241386
0.000240879
0.000241927
0.000242499
0.000242839
0.000243923
0.000245183
0.000248338
0.000246096
0.000250248
0.000249495
0.00023916
0.000239002
0.000239037
0.000239585
0.000239797
0.00023935
0.000239416
0.000238981
0.000239584
0.000239153
0.000240567
0.000242142
0.000248645
0.000221512
0.000368267
0.000241253
0.000241406
0.000241695
0.000242124
0.000242376
0.00024304
0.000243412
0.00024097
0.000240851
0.000240684
0.000240572
0.000240401
0.000240256
0.000240237
0.000240307
0.000240642
0.00024107
0.000240273
0.000240343
0.000242095
0.000244229
0.000245288
0.000246417
0.000278112
0.000272468
0.000262197
0.000268279
0.000254983
0.000251994
0.000249894
0.00024767
0.000259686
0.000318316
0.000212487
0.000203264
0.000237544
0.000246221
0.000252621
0.000225399
0.000305641
0.000295458
0.000303826
0.000279407
0.000303775
0.00025514
0.000260184
0.000268709
0.000263778
0.000275418
0.00024012
0.000240417
0.000241413
0.000240807
0.000241947
0.000242529
0.00024318
0.000244419
0.000243549
0.000245401
0.000247547
0.000246776
0.000251639
0.000250446
0.000239213
0.000239116
0.000239174
0.00023972
0.00023953
0.00023998
0.000239416
0.000239113
0.000239863
0.00023937
0.000241416
0.000244291
0.000246956
0.00022068
0.000300814
0.000241122
0.000241531
0.000241734
0.000242144
0.000242658
0.000242917
0.000243794
0.000240833
0.000240741
0.00024068
0.000240576
0.00024053
0.000240383
0.000240327
0.000240618
0.000241038
0.000241521
0.000240435
0.000240414
0.000243593
0.00024473
0.000245203
0.000245985
0.00024709
0.000285413
0.000272545
0.000265076
0.000268441
0.000257016
0.000253392
0.000250994
0.000249312
0.000248573
0.000260421
0.000315427
0.000203449
0.000195947
0.000227081
0.000248692
0.000245362
0.000250298
0.00023199
0.000304713
0.000293045
0.000254684
0.000259128
0.000274152
0.000266344
0.000282821
0.000240296
0.00024061
0.000241224
0.000241706
0.000240991
0.000242247
0.000242841
0.000244096
0.00024496
0.000243636
0.00024624
0.00024825
0.000246965
0.000253169
0.000251646
0.000249344
0.000239357
0.000239266
0.000239292
0.000239812
0.000239603
0.000240021
0.000239547
0.000239246
0.000240433
0.000239628
0.000239354
0.000241336
0.000243591
0.000250031
0.000260018
0.000153725
0.000287052
0.000241187
0.000241482
0.00024193
0.000242387
0.000242782
0.000243217
0.000243737
0.000240962
0.000240892
0.00024074
0.000240675
0.000240591
0.000240467
0.000240479
0.000240947
0.000241452
0.000242726
0.000240645
0.000240591
0.000243877
0.000244473
0.000245726
0.000246222
0.000247298
0.000285589
0.000296436
0.000278079
0.00026542
0.000272649
0.000256206
0.000259357
0.000253075
0.000250815
0.000249735
0.000247931
0.000263624
0.000276593
0.000206137
0.000197856
0.000225429
0.000248882
0.000247294
0.000250485
0.000209009
0.000304263
0.000257239
0.000262446
0.000276858
0.000279738
0.000270652
0.000295017
0.00024037
0.000240561
0.000241323
0.000241746
0.000240878
0.000242209
0.000242886
0.000244384
0.000245281
0.000243313
0.000246044
0.000247776
0.000254208
0.00025269
0.000249966
0.000239441
0.000239406
0.000239429
0.000239732
0.000239939
0.000240174
0.000239624
0.000239405
0.000240779
0.000239842
0.000239625
0.00024289
0.000245289
0.000246597
0.000250488
0.000191807
0.000298673
0.000241205
0.000241374
0.000241679
0.000241943
0.000242308
0.000242596
0.000243067
0.000243532
0.000244131
0.000241096
0.000240891
0.000240831
0.000240709
0.000240685
0.000240569
0.000240511
0.000240615
0.000241025
0.000242151
0.000243536
0.000240882
0.000240788
0.000245939
0.000244673
0.000245518
0.000246763
0.000296671
0.00030624
0.000278065
0.000268939
0.000272769
0.000257759
0.00025433
0.000261602
0.000251691
0.000249115
0.000247613
0.000265757
0.00026315
0.000193017
0.000208311
0.000249535
0.000247297
0.000249283
0.000109765
0.000251575
0.000258713
0.000263935
0.000282952
0.000291602
0.00027157
0.000305489
0.000240308
0.000240686
0.000241189
0.000241567
0.000242003
0.000240985
0.000242481
0.000242754
0.000244093
0.000244955
0.00024538
0.000243371
0.000246644
0.000248448
0.000256068
0.00025143
0.000249651
0.000239579
0.000239606
0.000239562
0.000239785
0.000240001
0.000240136
0.000239624
0.00023976
0.000239673
0.000240218
0.000241734
0.000243268
0.00024506
0.000248328
0.000257851
0.000247498
0.000131297
0.000276914
0.000241359
0.00024146
0.000241591
0.000241829
0.000242146
0.000242428
0.000242623
0.000243228
0.000243759
0.000244053
0.000241078
0.000240985
0.000240866
0.000240819
0.000240765
0.00024069
0.000240652
0.000240763
0.000241531
0.000242659
0.000243011
0.00024573
0.000241464
0.000241061
0.000246569
0.000245047
0.000244298
0.000245843
0.000246395
0.000305069
0.000285229
0.000269423
0.000277037
0.000260232
0.000256375
0.000253036
0.000264476
0.000250823
0.000248161
0.000249628
0.000246771
0.000269017
0.000283955
0.000196332
0.000208249
0.000249443
0.000247884
0.00024879
0.000217126
0.00022992
0.000261133
0.000263873
0.000268317
0.000278941
0.00029399
0.000240438
0.00024061
0.000241287
0.000241644
0.000242082
0.000240907
0.00024234
0.000243009
0.000244324
0.000243718
0.000245121
0.000246074
0.000247392
0.000248055
0.000255687
0.000252044
0.000250629
0.000239671
0.000239657
0.000239847
0.000239699
0.000239936
0.000240234
0.000239762
0.000239885
0.000239879
0.00024051
0.000242099
0.000245384
0.000247506
0.000247959
0.000238891
0.000248092
0.000182707
0.000281542
0.000241376
0.000241626
0.000241899
0.000242057
0.000242458
0.00024281
0.000243508
0.00024301
0.000241173
0.000240951
0.000240872
0.00024084
0.000240814
0.000240813
0.00024078
0.000240983
0.000242388
0.000244343
0.000244421
0.000246397
0.000241833
0.000241581
0.000248274
0.0002449
0.000243959
0.000245338
0.000296737
0.00028227
0.000273913
0.000277529
0.000262089
0.000257836
0.000254082
0.000251426
0.000266805
0.000247475
0.000248796
0.000246381
0.000272615
0.000251955
0.000290521
0.00019541
0.00021628
0.000249578
0.000247478
0.000248766
0.000160485
0.000246979
0.000261292
0.000266671
0.000271409
0.000285731
0.000304881
0.000240373
0.00024073
0.000241194
0.000241502
0.0002419
0.00024102
0.000242526
0.000242884
0.000244011
0.000244738
0.000243691
0.000245654
0.000246129
0.000247804
0.00024906
0.000253658
0.000257904
0.000250231
0.000239774
0.000239903
0.000240143
0.00023987
0.000240019
0.000240274
0.000239848
0.000239991
0.000240226
0.00024122
0.000243225
0.000245897
0.000247489
0.000253265
0.000189452
0.000248875
0.000201151
0.000296031
0.0002415
0.000241273
0.000241757
0.000242143
0.00024229
0.000242611
0.000243383
0.000243047
0.000241111
0.000240983
0.000240934
0.000240912
0.000240948
0.00024095
0.000240973
0.000241242
0.000243407
0.000245279
0.000248046
0.000242552
0.000241915
0.000248996
0.000244477
0.000243574
0.000244051
0.000245335
0.00030609
0.000288285
0.000276216
0.000283334
0.000265366
0.000260499
0.000270546
0.000246779
0.000245801
0.000232147
0.00026964
0.000173387
0.00020614
0.000249141
0.000244841
0.000249261
0.000181709
0.000237641
0.000260184
0.000264672
0.00027005
0.000276922
0.000284963
0.000296462
0.000240485
0.000240726
0.0002413
0.000241587
0.00024197
0.000241018
0.000242469
0.000243114
0.000244068
0.000244841
0.000243433
0.000239852
0.000240183
0.000239997
0.000240461
0.000239996
0.000240143
0.000240215
0.000240409
0.000239911
0.00024007
0.0002406
0.000241764
0.000244873
0.000243093
0.000247919
0.000249117
0.000242974
0.000196002
0.000248045
0.000218259
0.000285699
0.00024145
0.000241256
0.000241702
0.000241948
0.000242129
0.000242418
0.000242867
0.000241131
0.000241053
0.000240956
0.000240982
0.000241017
0.000241068
0.000241043
0.00024121
0.000241598
0.000243491
0.000244744
0.000247419
0.000247939
0.000248751
0.000243412
0.000242548
0.00024898
0.00024445
0.000243273
0.000243699
0.000298252
0.000281432
0.000288626
0.000268565
0.000262456
0.000273284
0.000217879
0.000270487
0.000179222
0.000248413
0.000244812
0.000186573
0.000198172
0.000245267
0.000266912
0.00027299
0.000277928
0.000296222
0.000306156
0.000240618
0.000240888
0.00024147
0.000241165
0.000241805
0.000242233
0.000242732
0.00024299
0.000243727
0.000243444
0.000239941
0.000240496
0.000240277
0.000241026
0.000240155
0.000240151
0.000240285
0.000240451
0.00024002
0.000240083
0.000241387
0.000246628
0.000244137
0.000248769
0.000248133
0.000249214
0.000247575
0.000194618
0.000245651
0.000234383
0.000265499
0.000241333
0.000241543
0.000241183
0.000241802
0.000241929
0.000242202
0.000242482
0.000242654
0.000243013
0.000241091
0.000241031
0.000241019
0.00024107
0.00024119
0.000241317
0.000241421
0.000241476
0.000241993
0.000244915
0.000246411
0.000247793
0.000248568
0.000248894
0.000244896
0.000243376
0.000242732
0.000249097
0.000243338
0.000306583
0.000278363
0.000287868
0.000298498
0.000273026
0.000269153
0.000265683
0.000209429
0.000286873
0.000166741
0.000244986
0.000248311
0.000244508
0.000231897
0.000190755
0.000234356
0.000271013
0.000284443
0.000305007
0.000240647
0.000240884
0.000241576
0.000241163
0.00024186
0.00024221
0.000242602
0.000243151
0.000240104
0.000241155
0.000240481
0.000240416
0.000241754
0.000241401
0.000240224
0.000240299
0.000240223
0.000240385
0.000240569
0.000240141
0.000240214
0.000246454
0.000243971
0.000249579
0.000249401
0.000248539
0.000238957
0.000181308
0.000243435
0.000232558
0.000246493
0.00024126
0.00024147
0.000241147
0.000241679
0.00024188
0.000242156
0.000242277
0.000242627
0.000242783
0.0002411
0.000241066
0.000241058
0.000241177
0.000241134
0.000241404
0.000241537
0.000241615
0.000241979
0.000246093
0.000246577
0.000248361
0.000248461
0.000249006
0.00024614
0.000244548
0.000243169
0.000248322
0.000243072
0.000283222
0.000296891
0.000306735
0.000278526
0.000273989
0.00016525
0.00024944
0.000293482
0.000243614
0.000244224
0.000242937
0.000192121
0.000174838
0.00023588
0.000274523
0.00029622
0.000280109
0.000240774
0.000241019
0.000241482
0.000241769
0.000241318