/*--------------------------------*- C++ -*----------------------------------*\
| =========                 |                                                 |
| \\      /  F ield         | OpenFOAM: The Open Source CFD Toolbox           |
|  \\    /   O peration     | Version:  v2012                                 |
|   \\  /    A nd           | Website:  www.openfoam.com                      |
|    \\/     M anipulation  |                                                 |
\*---------------------------------------------------------------------------*/
FoamFile
{
    version     2.0;
    format      ascii;
    class       volScalarField;
    location    "150";
    object      yPlus;
}
// * * * * * * * * * * * * * * * * * * * * * * * * * * * * * * * * * * * * * //

dimensions      [0 0 0 0 0 0 0];


internalField   uniform 0;

boundaryField
{
    flap
    {
        type            calculated;
        value           nonuniform List<scalar> 
202
(
11.8351
10.9555
11.1336
12.0983
12.2825
13.6983
13.3193
13.3055
13.3708
13.5048
13.6554
13.811
13.9665
14.1174
14.2693
14.4154
14.5682
14.7139
14.8664
15.014
15.1618
15.3094
15.4576
15.6013
15.7441
15.8879
16.029
16.1725
16.3115
16.4544
16.591
16.7239
16.8578
16.9874
17.114
17.2402
17.361
17.4814
17.5978
17.7104
17.8212
17.9272
18.0324
18.1339
18.2317
18.327
18.422
18.5169
18.6112
18.702
18.7919
18.8775
18.9607
19.0391
19.1142
19.1893
19.2639
19.3398
19.4116
19.4866
19.563
19.6405
19.722
19.8151
19.9229
20.0497
20.2006
20.3838
20.6051
20.879
21.224
21.6527
22.1677
22.7672
23.4369
24.0914
24.4305
24.2986
23.8357
23.2346
22.5867
21.9047
21.2185
20.5051
19.7338
19.3092
19.8612
21.3532
22.7689
24.0085
25.0264
25.8053
26.4277
26.9251
27.2997
27.5383
27.639
27.548
27.2016
26.3629
24.4325
17.501
6.10065
12.0322
13.4243
13.0432
13.0338
13.1041
13.2433
13.3992
13.5603
13.7216
13.8786
14.0364
14.1885
14.3471
14.4979
14.6551
14.8072
14.9602
15.113
15.2647
15.4093
15.551
15.6944
15.8349
15.9789
16.1188
16.2632
16.4013
16.5357
16.6708
16.8017
16.9296
17.0573
17.1792
17.3001
17.4167
17.5295
17.6403
17.7462
17.851
17.9522
18.0498
18.1449
18.2394
18.3335
18.4267
18.5164
18.6053
18.6896
18.7712
18.8479
18.921
18.9937
19.0655
19.1382
19.2067
19.2782
19.3507
19.4238
19.5004
19.5881
19.6896
19.8092
19.9519
20.1264
20.3385
20.6029
20.939
21.3609
21.8699
22.4663
23.1364
23.7969
24.149
24.0358
23.5823
22.9817
22.3313
21.6826
21.1133
20.6748
20.3277
20.5519
21.9494
23.3664
24.4871
25.2336
25.7806
26.2173
26.5862
26.8703
27.0504
27.1022
27.0116
26.7193
26.1458
25.0442
22.6879
15.9313
8.13928
)
;
    }
    freestream
    {
        type            calculated;
        value           uniform 0;
    }
    main
    {
        type            calculated;
        value           nonuniform List<scalar> 
231
(
15.6408
10.1383
12.9113
15.3897
17.0196
18.1705
18.8919
19.3162
19.5121
19.5406
19.4397
19.1971
18.8727
18.4195
17.8858
17.3148
17.0184
17.9124
18.8687
19.7257
20.3765
20.8032
21.0731
21.1597
21.0909
20.8335
20.3246
19.4894
18.1858
16.343
13.5376
10.7177
15.8334
4.82744
5.33045
6.10719
7.02871
8.04039
9.11656
10.2456
11.3771
12.6202
14.0126
15.549
17.178
18.8464
20.5055
22.1018
23.5825
24.9041
26.0332
26.9472
27.6385
28.1156
28.3912
28.4902
28.4406
28.2715
28.0136
27.6919
27.3303
26.9443
26.5471
26.1473
25.7532
25.3728
25.0093
24.6726
24.3661
24.0903
23.8491
23.6439
23.4726
23.3355
23.2301
23.1564
23.1115
23.0912
23.0956
23.1203
23.1596
23.2057
23.2539
23.3001
23.3394
23.3721
23.3933
23.4031
23.4054
23.3981
23.3851
23.3673
23.3516
23.3344
23.3166
23.2988
23.2814
23.2606
23.2426
23.2203
23.1962
23.1749
23.1521
23.1273
23.1008
23.075
23.0473
23.0203
22.9921
22.9669
22.9422
22.9169
22.8923
22.8703
22.8461
22.8217
22.7959
22.7684
22.7375
22.7047
22.6662
22.6279
22.5847
22.5364
22.4822
22.4263
22.3575
22.3112
22.261
22.3973
22.3328
20.0709
19.9767
22.2235
22.2934
22.1615
22.2165
22.2675
22.3409
22.4014
22.46
22.5126
22.5599
22.602
22.6443
22.6806
22.7148
22.7456
22.7744
22.8017
22.8287
22.8534
22.8805
22.9083
22.9353
22.9627
22.993
23.0222
23.0518
23.0794
23.1077
23.1342
23.1587
23.1815
23.2071
23.2305
23.2495
23.2711
23.2882
23.3069
23.3271
23.3441
23.3606
23.3802
23.394
23.4023
23.4013
23.3926
23.3722
23.3399
23.2996
23.2548
23.2078
23.161
23.1249
23.0994
23.0928
23.1129
23.159
23.2339
23.3405
23.4753
23.6407
23.8405
24.0831
24.3735
24.7056
25.0666
25.4502
25.8369
26.215
26.5859
26.9426
27.2871
27.614
27.9128
28.1658
28.3457
28.4216
28.3584
28.1191
27.6704
26.9925
26.0784
24.9368
23.5931
22.0872
20.4724
18.8038
17.1324
15.5135
13.9961
12.6183
11.3782
10.2467
9.11337
8.03502
7.02538
6.10972
5.33653
4.82887
)
;
    }
    BaseAndTop
    {
        type            empty;
    }
}


// ************************************************************************* //
