/*--------------------------------*- C++ -*----------------------------------*\
| =========                 |                                                 |
| \\      /  F ield         | OpenFOAM: The Open Source CFD Toolbox           |
|  \\    /   O peration     | Version:  v2012                                 |
|   \\  /    A nd           | Website:  www.openfoam.com                      |
|    \\/     M anipulation  |                                                 |
\*---------------------------------------------------------------------------*/
FoamFile
{
    version     2.0;
    format      ascii;
    class       volVectorField;
    location    "1.4";
    object      cellDisplacement;
}
// * * * * * * * * * * * * * * * * * * * * * * * * * * * * * * * * * * * * * //

dimensions      [0 1 0 0 0 0 0];


internalField   nonuniform List<vector> 
13611
(
(1.02204e-05 0.000152826 0)
(2.85276e-05 0.000422121 0)
(1.91457e-05 0.000296579 0)
(4.86315e-05 0.000740783 0)
(3.36355e-05 0.000485617 0)
(9.26771e-06 0.000146635 0)
(3.92656e-05 0.000612673 0)
(7.13663e-05 0.00108387 0)
(1.52973e-05 0.000214976 0)
(6.09165e-05 0.00087679 0)
(1.62247e-05 0.000264743 0)
(4.46296e-05 0.000715816 0)
(7.88302e-05 0.00116164 0)
(8.53489e-05 0.0013323 0)
(3.51555e-05 0.000478311 0)
(7.24922e-05 0.00101819 0)
(3.16786e-05 0.000518731 0)
(7.30855e-06 0.00012181 0)
(5.92944e-05 0.000959306 0)
(0.000100401 0.00146162 0)
(0.000109145 0.00170221 0)
(7.65187e-05 0.00122549 0)
(2.03995e-05 0.000267457 0)
(6.55257e-05 0.000893325 0)
(9.78544e-05 0.00137919 0)
(3.56643e-05 0.000598885 0)
(1.3299e-05 0.000227488 0)
(5.95494e-05 0.00098913 0)
(0.00012229 0.00179738 0)
(0.000125869 0.00191196 0)
(0.000116324 0.00186795 0)
(8.34101e-05 0.00137125 0)
(4.00217e-05 0.000506501 0)
(9.53628e-05 0.00127276 0)
(0.00011502 0.00157866 0)
(4.89722e-05 0.000826929 0)
(2.63654e-05 0.000451684 0)
(6.21645e-06 0.000108499 0)
(7.20215e-05 0.00120636 0)
(0.000147999 0.00211721 0)
(0.000149867 0.00230062 0)
(0.000133696 0.00216235 0)
(0.000108281 0.00177766 0)
(9.5334e-05 0.00157976 0)
(7.57134e-05 0.000956633 0)
(1.95544e-05 0.000237989 0)
(0.000101447 0.00131331 0)
(0.000144358 0.00198575 0)
(5.07432e-05 0.000878811 0)
(3.00735e-05 0.000526099 0)
(1.26697e-05 0.000226074 0)
(7.30736e-05 0.0012522 0)
(0.000172901 0.00250212 0)
(0.000149353 0.00237273 0)
(0.000171181 0.00257165 0)
(0.000130383 0.00218247 0)
(0.00011714 0.00197317 0)
(9.53027e-05 0.00162351 0)
(9.57263e-05 0.00116819 0)
(4.19755e-05 0.00049348 0)
(0.000137621 0.00174761 0)
(0.000172611 0.00230699 0)
(4.14651e-05 0.000728309 0)
(6.21799e-05 0.00108379 0)
(2.35283e-05 0.000419777 0)
(6.40509e-06 0.000116371 0)
(8.47357e-05 0.00146412 0)
(0.000202028 0.00285594 0)
(0.000166494 0.00268706 0)
(0.000191729 0.0029249 0)
(0.000140788 0.00238845 0)
(0.000108176 0.00185808 0)
(0.000134089 0.00163935 0)
(8.20192e-05 0.000968046 0)
(2.35275e-05 0.000263909 0)
(0.000170565 0.00218962 0)
(0.000206574 0.00280202 0)
(4.12392e-05 0.000740384 0)
(6.38238e-05 0.00113479 0)
(3.04193e-05 0.000550787 0)
(1.07717e-05 0.000199938 0)
(8.4156e-05 0.00148959 0)
(0.000221715 0.00319852 0)
(0.000187188 0.00296621 0)
(0.000160779 0.00268008 0)
(0.000213703 0.00320099 0)
(0.000138788 0.00241121 0)
(0.000107847 0.00190222 0)
(0.000162554 0.00193142 0)
(0.000108274 0.00123892 0)
(5.46986e-05 0.000594234 0)
(0.000207133 0.00257972 0)
(0.000242598 0.00319831 0)
(4.83719e-05 0.000877336 0)
(7.43718e-05 0.00133136 0)
(5.76584e-05 0.00104064 0)
(2.93839e-05 0.000541503 0)
(2.07927e-05 0.000387303 0)
(4.60969e-06 8.68173e-05 0)
(9.43928e-05 0.0016895 0)
(0.000248834 0.00356273 0)
(0.000203301 0.00327025 0)
(0.000169649 0.00288567 0)
(0.000233288 0.00355772 0)
(0.000148679 0.00261959 0)
(0.000130214 0.00231305 0)
(0.000118393 0.00212079 0)
(0.000203621 0.00243223 0)
(0.000150434 0.00172818 0)
(9.91683e-05 0.00109171 0)
(3.38629e-05 0.000347344 0)
(0.000245398 0.00308875 0)
(0.000269243 0.00360476 0)
(4.72239e-05 0.000874183 0)
(7.1928e-05 0.00131606 0)
(6.27471e-05 0.00115207 0)
(3.89239e-05 0.000726008 0)
(2.19641e-05 0.000416835 0)
(8.08267e-06 0.000154948 0)
(9.16042e-05 0.00168006 0)
(0.000266801 0.00371462 0)
(0.000254794 0.00379568 0)
(0.000227533 0.00358794 0)
(0.000201106 0.00334559 0)
(0.000186383 0.00316964 0)
(0.000160175 0.00280763 0)
(0.00013889 0.00250236 0)
(0.000111848 0.00206699 0)
(0.000240993 0.00277812 0)
(0.000176471 0.00195605 0)
(0.00014292 0.00153672 0)
(8.68376e-05 0.000870814 0)
(0.000280499 0.00342006 0)
(0.000307028 0.00402974 0)
(5.62939e-05 0.00104907 0)
(7.9078e-05 0.00146416 0)
(3.75096e-05 0.000711402 0)
(1.57431e-05 0.000302239 0)
(2.92128e-05 0.000557967 0)
(3.60463e-06 7.00408e-05 0)
(9.89753e-05 0.00184375 0)
(0.000293136 0.00410408 0)
(0.000279264 0.00418038 0)
(0.000238376 0.00387287 0)
(0.000220171 0.00369996 0)
(0.000184279 0.00324607 0)
(0.000168125 0.00300545 0)
(0.00013909 0.0025608 0)
(0.000117604 0.00221927 0)
(0.00027987 0.00325618 0)
(0.000226806 0.00250325 0)
(0.000151308 0.00156297 0)
(9.29665e-05 0.000893821 0)
(0.000320464 0.00392487 0)
(0.000331514 0.00420242 0)
(0.000316489 0.0042923 0)
(5.82011e-05 0.00110359 0)
(7.62701e-05 0.00143957 0)
(4.2593e-05 0.000820016 0)
(1.76104e-05 0.0003429 0)
(2.95139e-05 0.000572237 0)
(6.94596e-06 0.000136922 0)
(9.29593e-05 0.00177569 0)
(0.000300674 0.00434538 0)
(0.000281637 0.00437867 0)
(0.000259075 0.00419773 0)
(0.00021645 0.00377165 0)
(0.000195926 0.00349542 0)
(0.000161779 0.0029719 0)
(0.000129226 0.00243347 0)
(0.000148872 0.00276846 0)
(0.000109945 0.00212868 0)
(0.000324576 0.00368303 0)
(0.000256549 0.0027119 0)
(0.000214726 0.0021848 0)
(0.00018065 0.00170235 0)
(3.91469e-05 0.000365635 0)
(0.000351945 0.00413031 0)
(0.0003792 0.00480754 0)
(0.000342334 0.00467901 0)
(5.07382e-05 0.000977806 0)
(6.70901e-05 0.00127946 0)
(8.29501e-05 0.00159022 0)
(3.66943e-05 0.000715309 0)
(1.33978e-05 0.000264009 0)
(2.41687e-05 0.000472228 0)
(3.31518e-06 6.61512e-05 0)
(9.82674e-05 0.001911 0)
(0.000329563 0.00471551 0)
(0.000306222 0.00481891 0)
(0.000265125 0.00446349 0)
(0.000228171 0.00406375 0)
(0.000191361 0.0035248 0)
(0.000166016 0.00312543 0)
(0.000133662 0.00258188 0)
(0.00014459 0.00277499 0)
(0.000113957 0.0022526 0)
(0.00034695 0.00377059 0)
(0.000317427 0.00332638 0)
(0.000235436 0.00228979 0)
(0.000202927 0.00181865 0)
(7.37526e-05 0.000650679 0)
(0.000396898 0.00462457 0)
(0.000414119 0.00503622 0)
(0.000376544 0.00499895 0)
(5.35379e-05 0.00105066 0)
(6.80834e-05 0.00132264 0)
(7.69877e-05 0.00150177 0)
(3.66244e-05 0.000724467 0)
(1.7419e-05 0.000346842 0)
(2.41453e-05 0.000478816 0)
(5.33038e-06 0.000107635 0)
(9.37977e-05 0.00186157 0)
(0.000343244 0.00501114 0)
(0.000292572 0.00485569 0)
(0.000331806 0.00508121 0)
(0.000249583 0.0043893 0)
(0.000216262 0.00402638 0)
(0.000200899 0.00377581 0)
(0.000177113 0.0033383 0)
(0.000152908 0.00296152 0)
(0.000126124 0.00249274 0)
(0.000106492 0.00215536 0)
(0.000404919 0.00435302 0)
(0.000354366 0.00352424 0)
(0.000313944 0.00300879 0)
(0.000147334 0.00128149 0)
(0.000287912 0.00252961 0)
(3.38828e-05 0.000285345 0)
(0.000426152 0.00475338 0)
(0.000460041 0.00556391 0)
(0.000401026 0.00544871 0)
(6.20639e-05 0.00122144 0)
(4.89678e-05 0.000974103 0)
(7.83087e-05 0.00155526 0)
(4.16876e-05 0.000831524 0)
(2.92263e-05 0.000583067 0)
(1.55818e-05 0.000313418 0)
(2.05935e-06 4.20391e-05 0)
(1.00624e-05 0.000203366 0)
(8.5397e-05 0.00170857 0)
(9.79519e-05 0.00198303 0)
(0.000378475 0.00540769 0)
(0.000301127 0.00514326 0)
(0.000354002 0.00549556 0)
(0.000252808 0.00462188 0)
(0.000220815 0.00426073 0)
(0.000190256 0.00369938 0)
(0.000177304 0.00344629 0)
(0.000153349 0.00305041 0)
(0.000127003 0.00257144 0)
(0.000109107 0.00225661 0)
(0.000446763 0.00459446 0)
(0.000428694 0.00422308 0)
(0.000344786 0.00313766 0)
(0.000161413 0.00132274 0)
(0.000311171 0.00258409 0)
(8.44339e-05 0.000679352 0)
(0.000480327 0.0052874 0)
(0.000476719 0.0060254 0)
(0.000499075 0.00569832 0)
(0.000445032 0.00594094 0)
(6.36465e-05 0.00127542 0)
(5.11965e-05 0.00103624 0)
(7.09771e-05 0.00142914 0)
(4.02521e-05 0.000815007 0)
(2.91423e-05 0.000589085 0)
(1.87128e-05 0.000380746 0)
(5.41181e-06 0.000111101 0)
(1.01958e-05 0.000208257 0)
(8.44316e-05 0.00172301 0)
(9.14024e-05 0.00187927 0)
(0.0003845 0.005697 0)
(0.000327471 0.00555373 0)
(0.000286683 0.00512362 0)
(0.000351603 0.00572199 0)
(0.000236432 0.00453182 0)
(0.000268244 0.00491643 0)
(0.000205701 0.004133 0)
(0.000191398 0.00383584 0)
(0.000166394 0.00332128 0)
(0.000144251 0.00294619 0)
(0.000117996 0.00243926 0)
(0.00013422 0.00275227 0)
(0.000102551 0.00217028 0)
(0.000503495 0.00523672 0)
(0.000479154 0.00446727 0)
(0.000435503 0.00388801 0)
(0.000236616 0.00189546 0)
(0.000396631 0.00323313 0)
(5.56841e-05 0.00041902 0)
(0.000523325 0.00651828 0)
(0.000547123 0.00620523 0)
(0.000451493 0.00633613 0)
(5.75069e-05 0.00116849 0)
(4.56904e-05 0.000933027 0)
(7.15589e-05 0.00146686 0)
(3.4948e-05 0.000711447 0)
(2.39698e-05 0.000488764 0)
(1.45472e-05 0.000298195 0)
(5.4699e-06 0.00011321 0)
(7.80749e-05 0.00161038 0)
(9.03355e-05 0.00189112 0)
(0.000414093 0.00611985 0)
(0.000318181 0.00572326 0)
(0.000295739 0.00545059 0)
(0.000377219 0.00614646 0)
(0.00024201 0.00479071 0)
(0.000261291 0.00503644 0)
(0.000201916 0.00423893 0)
(0.000178507 0.00368855 0)
(0.000166674 0.00342988 0)
(0.000145953 0.00308224 0)
(0.000119274 0.00252069 0)
(0.000127787 0.00269586 0)
(0.000104895 0.0022696 0)
(9.48067e-05 0.00201218 0)
(0.000555547 0.00563338 0)
(0.000554232 0.00512974 0)
(0.000465171 0.00393005 0)
(0.000254327 0.0019204 0)
(0.000428241 0.00330337 0)
(0.000145026 0.00105688 0)
(0.000553294 0.00654726 0)
(0.000547356 0.00701486 0)
(0.000599866 0.00650892 0)
(0.000486757 0.00687286 0)
(5.87215e-05 0.00121355 0)
(4.46247e-05 0.00092482 0)
(6.5508e-05 0.00135942 0)
(3.42605e-05 0.000706726 0)
(2.50039e-05 0.000515649 0)
(1.45438e-05 0.0003012 0)
(1.01137e-05 0.000210354 0)
(2.14489e-06 4.46158e-05 0)
(7.76926e-05 0.00163244 0)
(8.3049e-05 0.00175757 0)
(0.0004094 0.00634252 0)
(0.00032862 0.00604384 0)
(0.000276266 0.00535144 0)
(0.000378132 0.00642864 0)
(0.00023006 0.00478643 0)
(0.000185956 0.00402877 0)
(0.000210795 0.00450624 0)
(0.000176493 0.0037789 0)
(0.000155599 0.00329814 0)
(0.000137306 0.00296625 0)
(0.000112961 0.00244205 0)
(0.000129102 0.00277988 0)
(9.87745e-05 0.00218264 0)
(8.90764e-05 0.00193047 0)
(0.000577842 0.00557459 0)
(0.000608427 0.0063083 0)
(0.00061957 0.00547259 0)
(0.000555259 0.00453744 0)
(0.000359939 0.00266053 0)
(0.000540515 0.00413884 0)
(0.000147021 0.00100799 0)
(0.000599795 0.00703805 0)
(0.000599369 0.00735956 0)
(0.000531906 0.00719672 0)
(0.000637418 0.00710156 0)
(0.000469997 0.00708884 0)
(5.41064e-05 0.00113189 0)
(4.81986e-05 0.00100932 0)
(3.86998e-05 0.00080551 0)
(6.58124e-05 0.00139019 0)
(2.97959e-05 0.00061732 0)
(2.22781e-05 0.000462905 0)
(1.80941e-05 0.000376857 0)
(9.78007e-06 0.000204932 0)
(3.65665e-06 7.68258e-05 0)
(7.15472e-05 0.00152076 0)
(8.26982e-05 0.00178454 0)
(0.000433395 0.00678585 0)
(0.000312848 0.00613549 0)
(0.000357048 0.00638363 0)
(0.000272947 0.0055219 0)
(0.000410996 0.00684003 0)
(0.000234535 0.00506253 0)
(0.00017951 0.004051 0)
(0.000197463 0.00448844 0)
(0.000164973 0.00362432 0)
(0.000155479 0.00339848 0)
(0.000133768 0.0029809 0)
(0.00011435 0.00252845 0)
(0.000122012 0.00269252 0)
(0.000100122 0.00226552 0)
(9.08095e-05 0.00200377 0)
(0.000651255 0.00618987 0)
(0.000671121 0.00664861 0)
(0.00063247 0.00527018 0)
(0.00068515 0.00619412 0)
(0.000396099 0.00275565 0)
(0.000604559 0.00438751 0)
(5.1901e-05 0.000345763 0)
(0.000296578 0.00196687 0)
(0.000640211 0.00789257 0)
(0.00056689 0.00784204 0)
(0.000695296 0.00764403 0)
(0.000487771 0.00757016 0)
(5.51013e-05 0.00117142 0)
(4.57776e-05 0.000973843 0)
(3.7228e-05 0.000784568 0)
(6.01882e-05 0.00128597 0)
(2.87727e-05 0.000603059 0)
(2.46226e-05 0.000516386 0)
(1.77899e-05 0.000374144 0)
(1.19492e-05 0.000251787 0)
(6.71636e-06 0.000141344 0)
(1.60314e-06 3.3874e-05 0)
(7.11197e-05 0.00153934 0)
(7.6846e-05 0.0016768 0)
(0.000327897 0.00654145 0)
(0.000289474 0.00590805 0)
(0.000357477 0.0067211 0)
(0.000252119 0.00537538 0)
(0.00041609 0.00719908 0)
(0.000218496 0.00497884 0)
(0.000165916 0.00384667 0)
(0.000183456 0.00425082 0)
(0.000200858 0.00469366 0)
(0.000160425 0.00366726 0)
(0.000147093 0.00331397 0)
(0.000137583 0.00312297 0)
(0.00012408 0.00279416 0)
(0.00010754 0.00243818 0)
(9.38987e-05 0.00216241 0)
(8.55716e-05 0.00192544 0)
(0.000740121 0.00729291 0)
(0.000741513 0.00594323 0)
(0.000762545 0.00675603 0)
(0.00053204 0.00364941 0)
(0.000722652 0.005214 0)
(6.9289e-05 0.000404326 0)
(0.000327899 0.00204157 0)
(0.000698751 0.00813561 0)
(0.000624705 0.00821474 0)
(0.000536568 0.00799057 0)
(0.000752391 0.00779804 0)
(0.000452982 0.00761858 0)
(4.96867e-05 0.0010663 0)
(4.07694e-05 0.000868935 0)
(3.19151e-05 0.000674098 0)
(6.01958e-05 0.00130848 0)
(2.18986e-05 0.000462464 0)
(1.51532e-05 0.000319852 0)
(1.02434e-05 0.000217078 0)
(7.58525e-06 0.000160653 0)
(3.09716e-06 6.59277e-05 0)
(6.54223e-05 0.00143173 0)
(7.55897e-05 0.00168067 0)
(0.000312048 0.00668937 0)
(0.000271417 0.00596797 0)
(0.00038209 0.00711606 0)
(0.000250881 0.00563435 0)
(0.000217003 0.00517236 0)
(0.000160893 0.003889 0)
(0.000170411 0.0041424 0)
(0.000190136 0.00470486 0)
(0.00014964 0.00347053 0)
(0.000130084 0.00305695 0)
(0.00011836 0.00273416 0)
(0.000109415 0.0025378 0)
(8.71834e-05 0.00200093 0)
(9.22862e-05 0.00217755 0)
(7.91652e-05 0.00178449 0)
(0.000802134 0.00742494 0)
(0.000782904 0.00591132 0)
(0.000805413 0.00671992 0)
(0.000590946 0.00379802 0)
(0.000801683 0.00542651 0)
(0.00019017 0.0010996 0)
(0.000484188 0.00296199 0)
(0.000751276 0.00874844 0)
(0.00066458 0.00880951 0)
(0.000548309 0.00849874 0)
(0.000832047 0.00856746 0)
(0.000454541 0.00805221 0)
(4.96105e-05 0.00108013 0)
(3.81963e-05 0.000822272 0)
(3.05006e-05 0.000650926 0)
(5.49632e-05 0.00120608 0)
(2.2586e-05 0.00048121 0)
(1.46393e-05 0.000311484 0)
(1.15228e-05 0.000245356 0)
(5.93168e-06 0.000126332 0)
(1.46801e-06 3.13934e-05 0)
(6.48015e-05 0.00144435 0)
(6.93668e-05 0.00155789 0)
(0.000330079 0.00716628 0)
(0.000278545 0.00632553 0)
(0.000373484 0.00743805 0)
(0.000231413 0.00550619 0)
(0.000198782 0.00499633 0)
(0.000150501 0.00374659 0)
(0.000165959 0.00422889 0)
(0.000174331 0.004497 0)
(0.000142042 0.00341004 0)
(0.00013206 0.00318749 0)
(0.000120855 0.00285688 0)
(0.000103937 0.00247496 0)
(8.21382e-05 0.00192316 0)
(8.46224e-05 0.00201417 0)
(9.60811e-05 0.00230166 0)
(7.43145e-05 0.00170861 0)
(0.000884263 0.00808129 0)
(0.000914558 0.00669415 0)
(0.000911685 0.0074352 0)
(0.000745266 0.00474628 0)
(0.000937215 0.00638425 0)
(0.000273473 0.00150587 0)
(0.000490807 0.00280356 0)
(0.000824534 0.00902562 0)
(0.000732992 0.0091067 0)
(0.000647438 0.00910549 0)
(0.000596681 0.00896289 0)
(0.000499061 0.00851005 0)
(0.000904332 0.00872957 0)
(0.00040566 0.00794495 0)
(4.55787e-05 0.00100067 0)
(3.33215e-05 0.00071705 0)
(3.84888e-05 0.000838702 0)
(2.63407e-05 0.000563959 0)
(5.4306e-05 0.00121299 0)
(1.93547e-05 0.000414819 0)
(1.60457e-05 0.00034345 0)
(1.01569e-05 0.000217359 0)
(7.24085e-06 0.000155001 0)
(2.32098e-06 4.99407e-05 0)
(5.8873e-05 0.0013265 0)
(6.88101e-05 0.00157524 0)
(0.000309712 0.00732141 0)
(0.000254936 0.00632175 0)
(0.000222543 0.0056427 0)
(0.000191033 0.00509202 0)
(0.000144091 0.00377828 0)
(0.000142272 0.00352735 0)
(0.000149539 0.00399393 0)
(0.000164988 0.00455398 0)
(0.000123911 0.00309801 0)
(0.000114328 0.0027835 0)
(0.000106312 0.00259657 0)
(7.5695e-05 0.00177191 0)
(8.15798e-05 0.00198314 0)
(9.16092e-05 0.00225411 0)
(0.000951237 0.00813827 0)
(0.000980821 0.00744551 0)
(0.000841256 0.00502493 0)
(0.00104592 0.00675869 0)
(0.000251063 0.00130747 0)
(0.000622861 0.00344028 0)
(0.000880262 0.00975325 0)
(0.000770491 0.00965095 0)
(0.00068999 0.00975074 0)
(0.000595025 0.0093856 0)
(0.000503635 0.00893486 0)
(0.000984751 0.00938781 0)
(0.000393178 0.00830698 0)
(4.55505e-05 0.00101547 0)
(4.09992e-05 0.000899729 0)
(3.16207e-05 0.00068702 0)
(3.40072e-05 0.000744399 0)
(2.581e-05 0.000557801 0)
(4.91005e-05 0.00110388 0)
(1.99159e-05 0.000430607 0)
(1.3988e-05 0.000301019 0)
(1.12731e-05 0.000242424 0)
(6.36258e-06 0.000136796 0)
(9.04519e-07 1.952e-05 0)
(4.30739e-06 9.28011e-05 0)
(5.822e-05 0.00133486 0)
(6.35476e-05 0.00146969 0)
(0.000319081 0.00776507 0)
(0.000275382 0.00706864 0)
(0.000254499 0.00667154 0)
(0.000229719 0.00596253 0)
(0.000200481 0.00539952 0)
(0.000172601 0.00485482 0)
(0.000133051 0.00355367 0)
(0.000132576 0.00341765 0)
(0.000142237 0.00402247 0)
(0.000149394 0.00431334 0)
(0.000124159 0.00321063 0)
(0.000115527 0.00289497 0)
(0.000100507 0.0025228 0)
(7.08211e-05 0.00168828 0)
(8.48787e-05 0.00210018 0)
(7.56751e-05 0.00185497 0)
(9.37255e-05 0.00235666 0)
(0.00104966 0.0088605 0)
(0.00111099 0.00825453 0)
(0.00101205 0.00607598 0)
(0.000789346 0.00443857 0)
(0.00118563 0.00773151 0)
(0.000465868 0.00232322 0)
(0.000102222 0.00050906 0)
(0.000614808 0.00315699 0)
(0.000952361 0.0101069 0)
(0.000838768 0.00999539 0)
(0.000743963 0.00998717 0)
(0.00065074 0.00988095 0)
(0.000555322 0.00935795 0)
(0.000473086 0.00908294 0)
(0.000997339 0.00993657 0)
(0.00106155 0.00945554 0)
(0.00042633 0.00886414 0)
(0.000348583 0.00815586 0)
(4.13334e-05 0.000925957 0)
(3.88148e-05 0.000862475 0)
(2.82917e-05 0.00061561 0)
(3.22614e-05 0.000713677 0)
(2.28072e-05 0.000494853 0)
(4.68789e-05 0.0010702 0)
(1.69862e-05 0.000368999 0)
(1.43561e-05 0.000310991 0)
(9.92424e-06 0.000214511 0)
(7.84064e-06 0.000169415 0)
(1.49531e-06 3.24071e-05 0)
(4.44708e-06 9.62351e-05 0)
(5.33394e-05 0.00123684 0)
(6.2379e-05 0.00146754 0)
(0.000278905 0.00774962 0)
(0.000258234 0.00736348 0)
(0.00022437 0.00654335 0)
(0.000205635 0.00588858 0)
(0.000190722 0.00552712 0)
(0.000161723 0.00492458 0)
(0.000123032 0.00343314 0)
(0.000128527 0.00379262 0)
(0.000139794 0.00433058 0)
(0.000114921 0.00308625 0)
(0.000107951 0.00279153 0)
(0.000101064 0.00260906 0)
(7.13597e-05 0.00173537 0)
(6.52746e-05 0.00155594 0)
(8.09608e-05 0.00205259 0)
(7.28656e-05 0.00182757 0)
(8.87687e-05 0.00228511 0)
(0.00113648 0.00897069 0)
(0.00120897 0.00840821 0)
(0.00113427 0.00639031 0)
(0.000916463 0.00480039 0)
(0.00131571 0.00800685 0)
(0.000474746 0.00216944 0)
(0.000252779 0.00115088 0)
(0.000810975 0.00401498 0)
(0.000993643 0.010772 0)
(0.000852014 0.0104983 0)
(0.000785735 0.0104773 0)
(0.000648181 0.0102617 0)
(0.000552071 0.00974734 0)
(0.000500645 0.00960765 0)
(0.00107696 0.0105215 0)
(0.00114588 0.0100971 0)
(0.000399195 0.00917819 0)
(0.000328131 0.00847962 0)
(3.97765e-05 0.00090089 0)
(3.46101e-05 0.000771636 0)
(2.6424e-05 0.000580064 0)
(2.80146e-05 0.000620224 0)
(2.31712e-05 0.000507334 0)
(4.85179e-05 0.00112233 0)
(4.19589e-05 0.000959539 0)
(1.72561e-05 0.000377712 0)
(1.15916e-05 0.000251643 0)
(6.36269e-06 0.000137943 0)
(5.75837e-07 1.2499e-05 0)
(3.02352e-06 6.55762e-05 0)
(5.32632e-05 0.00125695 0)
(5.72403e-05 0.00135825 0)
(0.000279435 0.00813976 0)
(0.000232575 0.00718629 0)
(0.000201953 0.00613121 0)
(0.000218255 0.00678174 0)
(0.000169499 0.00528615 0)
(0.000144517 0.0046354 0)
(0.000113578 0.00317106 0)
(0.000120609 0.00352259 0)
(0.000120904 0.00381555 0)
(0.000125392 0.0040643 0)
(0.000107302 0.00287254 0)
(9.41466e-05 0.00249589 0)
(6.59567e-05 0.00163209 0)
(6.12516e-05 0.00148371 0)
(8.27735e-05 0.00213736 0)
(7.50389e-05 0.00191158 0)
(6.70185e-05 0.00168712 0)
(8.87564e-05 0.00234262 0)
(0.00123766 0.00970943 0)
(0.00134642 0.0093557 0)
(0.00108844 0.00567962 0)
(0.0012945 0.00733111 0)
(0.0014505 0.00886581 0)
(0.000661474 0.0028809 0)
(0.000154472 0.000641851 0)
(0.000847681 0.00388626 0)
(0.000970943 0.0111575 0)
(0.00107068 0.0109862 0)
(0.000902524 0.0109866 0)
(0.000787152 0.0108881 0)
(0.000682381 0.0107456 0)
(0.000589062 0.0101494 0)
(0.000481871 0.00989688 0)
(0.00114429 0.0105978 0)
(0.00123104 0.0102277 0)
(0.000426029 0.00969781 0)
(0.000347478 0.00894107 0)
(3.58105e-05 0.000812957 0)
(3.31746e-05 0.000747299 0)
(2.58459e-05 0.000576797 0)
(2.05289e-05 0.000451379 0)
(4.40438e-05 0.00103324 0)
(3.94137e-05 0.000910892 0)
(1.49621e-05 0.000328691 0)
(1.07816e-05 0.000235293 0)
(6.40818e-06 0.000139578 0)
(6.74632e-07 1.4682e-05 0)
(3.16669e-06 6.89287e-05 0)
(4.89246e-05 0.00116756 0)
(5.69071e-05 0.00137269 0)
(0.000245752 0.00827723 0)
(0.000204587 0.00715017 0)
(0.000177791 0.00604662 0)
(0.00019516 0.00674229 0)
(0.000156774 0.00536478 0)
(0.000132084 0.0046033 0)
(0.000102879 0.00299716 0)
(0.000109783 0.00333433 0)
(0.000109273 0.00358356 0)
(0.00011557 0.00406033 0)
(9.91338e-05 0.00273678 0)
(9.30171e-05 0.00254615 0)
(6.14444e-05 0.00151501 0)
(7.86471e-05 0.00208684 0)
(7.14806e-05 0.00186198 0)
(6.39795e-05 0.00163986 0)
(8.18277e-05 0.00220512 0)
(0.00134348 0.00992611 0)
(0.00145866 0.00952951 0)
(0.00121934 0.00595084 0)
(0.00144459 0.00759047 0)
(0.00157888 0.00905148 0)
(0.000726219 0.00287784 0)
(0.000292897 0.00109823 0)
(0.00103442 0.00450904 0)
(0.00102818 0.0117894 0)
(0.00112731 0.0115169 0)
(0.000862125 0.0112993 0)
(0.000740048 0.0110216 0)
(0.000631406 0.0109589 0)
(0.000579748 0.0105538 0)
(0.000521182 0.0104418 0)
(0.00121636 0.0111851 0)
(0.0013107 0.0108609 0)
(0.000397574 0.0099795 0)
(0.000311461 0.00921646 0)
(3.37053e-05 0.000772862 0)
(2.94845e-05 0.0006681 0)
(2.66071e-05 0.000600564 0)
(2.21706e-05 0.000494949 0)
(2.00608e-05 0.000445038 0)
(4.00599e-05 0.000937344 0)
(4.4451e-05 0.00105751 0)
(3.52066e-05 0.000813943 0)
(1.47911e-05 0.000327412 0)
(1.22355e-05 0.000268426 0)
(8.11261e-06 0.000177251 0)
(4.59915e-06 0.000100325 0)
(1.38603e-07 3.01793e-06 0)
(1.22546e-06 2.66974e-05 0)
(2.15766e-06 4.70159e-05 0)
(4.88099e-05 0.0011836 0)
(5.28667e-05 0.00128876 0)
(0.000201375 0.0079032 0)
(0.000255262 0.0088806 0)
(0.000188757 0.00734914 0)
(0.000160091 0.00571698 0)
(0.000174915 0.00641595 0)
(0.000137546 0.00510954 0)
(0.000118018 0.00429685 0)
(0.000129258 0.00481024 0)
(9.63631e-05 0.00278026 0)
(0.000101304 0.00307086 0)
(0.000105554 0.00337491 0)
(0.000100472 0.00355433 0)
(0.000102305 0.00377515 0)
(8.57134e-05 0.00240255 0)
(5.64727e-05 0.0014103 0)
(7.32529e-05 0.00195085 0)
(6.62611e-05 0.00172993 0)
(5.83876e-05 0.00150625 0)
(8.01193e-05 0.00221909 0)
(0.00142552 0.0106193 0)
(0.00158149 0.010286 0)
(0.00119994 0.00538179 0)
(0.00141151 0.00690232 0)
(0.00159549 0.00845472 0)
(0.001687 0.00975597 0)
(0.000578437 0.00214194 0)
(0.000992504 0.00387749 0)
(0.000142234 0.00047337 0)
(0.00101018 0.0122128 0)
(0.00111059 0.0119343 0)
(0.00120491 0.0116414 0)
(0.00087588 0.0117591 0)
(0.000754237 0.0115381 0)
(0.000640834 0.0114601 0)
(0.00049554 0.0107556 0)
(0.00129538 0.0113075 0)
(0.00139695 0.011014 0)
(0.000427703 0.0104915 0)
(0.000333493 0.00974389 0)
(2.97571e-05 0.000681703 0)
(2.30384e-05 0.000522493 0)
(2.07249e-05 0.000466774 0)
(1.67801e-05 0.000373158 0)
(3.57337e-05 0.000842185 0)
(4.07638e-05 0.000981612 0)
(3.29605e-05 0.000770369 0)
(1.21259e-05 0.000268794 0)
(1.07711e-05 0.000237528 0)
(7.25861e-06 0.000159393 0)
(4.17525e-06 9.14467e-05 0)
(1.55044e-07 3.38043e-06 0)
(6.37989e-07 1.3914e-05 0)
(1.96714e-06 4.29997e-05 0)
(4.50992e-05 0.00110432 0)
(5.23948e-05 0.00129916 0)
(0.000159565 0.00803981 0)
(0.000204584 0.00904148 0)
(0.000152593 0.00705436 0)
(0.000136767 0.00562716 0)
(0.000147801 0.00632756 0)
(0.000126032 0.00526058 0)
(0.00010679 0.00428789 0)
(0.000111033 0.00457942 0)
(8.84398e-05 0.00260632 0)
(9.37608e-05 0.00296848 0)
(9.61085e-05 0.0031564 0)
(9.1365e-05 0.00330755 0)
(9.34186e-05 0.00375449 0)
(8.38128e-05 0.00242362 0)
(5.51975e-05 0.00140712 0)
(6.83335e-05 0.00186297 0)
(6.30144e-05 0.00167587 0)
(5.63025e-05 0.0014816 0)
(7.3025e-05 0.00206924 0)
(0.00153037 0.011012 0)
(0.00160192 0.0109345 0)
(0.00168374 0.0103024 0)
(0.00139812 0.0058883 0)
(0.00153493 0.00686225 0)
(0.00173739 0.00871901 0)
(0.00181448 0.00998258 0)
(0.000632712 0.00207552 0)
(0.00119196 0.00428961 0)
(0.000346652 0.00106599 0)
(0.00107301 0.0127675 0)
(0.00094045 0.0121711 0)
(0.0011745 0.012497 0)
(0.00126111 0.0121325 0)
(0.000815654 0.0118552 0)
(0.000707409 0.0117676 0)
(0.000586882 0.0115865 0)
(0.000523246 0.0112432 0)
(0.00136924 0.0119261 0)
(0.00146934 0.0115957 0)
(0.000397236 0.0107303 0)
(0.000304598 0.0100445 0)
(2.70952e-05 0.000626488 0)
(2.18801e-05 0.000500617 0)
(1.74988e-05 0.000394788 0)
(1.56276e-05 0.000350326 0)
(3.4673e-05 0.000826055 0)
(4.14619e-05 0.00101186 0)
(3.69939e-05 0.000890313 0)
(2.87556e-05 0.000672577 0)
(1.0993e-05 0.00024508 0)
(8.4884e-06 0.000187231 0)
(5.20246e-06 0.000114315 0)
(2.6279e-06 5.7573e-05 0)
(7.97525e-07 1.74181e-05 0)
(4.45709e-05 0.00110882 0)
(4.77002e-05 0.00119481 0)
(0.000121634 0.00760271 0)
(0.00015457 0.00856686 0)
(0.000204351 0.00953642 0)
(0.000124235 0.0071822 0)
(0.000137374 0.00659884 0)
(0.000128782 0.00586759 0)
(0.000109942 0.00504469 0)
(9.53619e-05 0.00402954 0)
(0.000103223 0.00466657 0)
(8.32249e-05 0.00254023 0)
(8.5563e-05 0.00276208 0)
(9.03754e-05 0.00312416 0)
(8.12379e-05 0.0031514 0)
(8.22649e-05 0.00351519 0)
(7.72231e-05 0.00228355 0)
(5.05056e-05 0.00129607 0)
(6.35404e-05 0.00172505 0)
(6.77396e-05 0.00190139 0)
(5.87447e-05 0.00156568 0)
(5.20976e-05 0.00138503 0)
(7.18158e-05 0.00210581 0)
(0.00155557 0.0116509 0)
(0.00173166 0.0115882 0)
(0.00179639 0.01087 0)
(0.00143847 0.00541703 0)
(0.00173369 0.00754863 0)
(0.00184619 0.00956361 0)
(0.00181141 0.00841273 0)
(0.00188387 0.0106815 0)
(0.000844211 0.0025927 0)
(0.00113792 0.0035997 0)
(0.000388089 0.00107161 0)
(0.00115375 0.0128976 0)
(0.00105115 0.0131583 0)
(0.000927605 0.0126353 0)
(0.00124833 0.0125616 0)
(0.0013437 0.0122896 0)
(0.00081168 0.0122564 0)
(0.000737524 0.0122151 0)
(0.000578936 0.0120462 0)
(0.000475541 0.0114708 0)
(0.0014583 0.0120571 0)
(0.000420011 0.0112251 0)
(0.000341222 0.0105383 0)
(0.000252824 0.00994341 0)
(2.35062e-05 0.000542924 0)
(1.79689e-05 0.000412013 0)
(1.59123e-05 0.00036229 0)
(1.25099e-05 0.000280618 0)
(3.06897e-05 0.000735578 0)
(3.83611e-05 0.000947727 0)
(3.41621e-05 0.000831241 0)
(2.65538e-05 0.000627098 0)
(8.15918e-06 0.000181845 0)
(7.07785e-06 0.000156907 0)
(4.16827e-06 9.19562e-05 0)
(1.65817e-06 3.64788e-05 0)
(3.24455e-07 7.09468e-06 0)
(4.00561e-05 0.00100127 0)
(4.71249e-05 0.00119779 0)
(7.84933e-05 0.00760858 0)
(0.000102504 0.00854155 0)
(0.000152427 0.00968785 0)
(9.62175e-05 0.0067636 0)
(0.000106584 0.00643132 0)
(0.000102197 0.00570671 0)
(9.69395e-05 0.00507036 0)
(8.24497e-05 0.00392423 0)
(8.74435e-05 0.00448528 0)
(8.16655e-05 0.00258439 0)
(7.6458e-05 0.00233123 0)
(7.9674e-05 0.0027289 0)
(8.2146e-05 0.00290817 0)
(7.70768e-05 0.00322602 0)
(7.64538e-05 0.00289327 0)
(7.51544e-05 0.00358538 0)
(4.79004e-05 0.00124894 0)
(5.82132e-05 0.00160226 0)
(6.12363e-05 0.00174735 0)
(5.58048e-05 0.00151697 0)
(4.84877e-05 0.00128342 0)
(5.19951e-05 0.00141083 0)
(6.56934e-05 0.00197818 0)
(0.00163951 0.0121913 0)
(0.00182475 0.0114869 0)
(0.00174235 0.0122182 0)
(0.00169561 0.00601446 0)
(0.00185778 0.00721037 0)
(0.00196426 0.00970265 0)
(0.0019657 0.00901652 0)
(0.00200028 0.0110923 0)
(0.000750624 0.00198025 0)
(0.00136254 0.00382998 0)
(0.000200031 0.000497215 0)
(0.00120333 0.0133835 0)
(0.000978847 0.013073 0)
(0.00110465 0.0136449 0)
(0.00085973 0.012611 0)
(0.00131877 0.0129968 0)
(0.00138777 0.0128315 0)
(0.000723912 0.0125132 0)
(0.00061385 0.0124664 0)
(0.000500492 0.0119256 0)
(0.00152849 0.0125501 0)
(0.000366173 0.0113059 0)
(0.000320638 0.0108623 0)
(0.000233406 0.0103342 0)
(2.03061e-05 0.000472662 0)
(1.70399e-05 0.000394349 0)
(1.24293e-05 0.000282865 0)
(1.08989e-05 0.00024606 0)
(2.76599e-05 0.000660747 0)
(3.07488e-05 0.000745936 0)
(3.48324e-05 0.00085848 0)
(2.25871e-05 0.000534525 0)
(6.50649e-06 0.000145736 0)
(4.87372e-06 0.000107976 0)
(2.17082e-06 4.79155e-05 0)
(5.24766e-07 1.15384e-05 0)
(3.7972e-05 0.000962655 0)
(4.35653e-05 0.00111778 0)
(6.66003e-05 0.00802937 0)
(5.02866e-05 0.00711002 0)
(7.52081e-05 0.00890776 0)
(0.000173254 0.0101994 0)
(9.34786e-05 0.00942369 0)
(6.4509e-05 0.0066983 0)
(8.98914e-05 0.00599776 0)
(9.11209e-05 0.0053198 0)
(8.28379e-05 0.00471042 0)
(7.78967e-05 0.00412053 0)
(7.24109e-05 0.00235126 0)
(7.07321e-05 0.00222939 0)
(7.19574e-05 0.0025207 0)
(6.6203e-05 0.00299188 0)
(6.86739e-05 0.00267526 0)
(6.44851e-05 0.00335946 0)
(4.39888e-05 0.00114533 0)
(5.67335e-05 0.0015944 0)
(5.87595e-05 0.00172112 0)
(4.4666e-05 0.0011967 0)
(4.78541e-05 0.00131593 0)
(6.05147e-05 0.00181585 0)
(6.51987e-05 0.00204562 0)
(0.00162293 0.0126294 0)
(0.00193482 0.0119209 0)
(0.00183185 0.0127425 0)
(0.00178203 0.0055754 0)
(0.00205961 0.00782632 0)
(0.00207598 0.0102697 0)
(0.00209861 0.0091936 0)
(0.00209727 0.0109087 0)
(0.00202276 0.0117139 0)
(0.000938746 0.00221905 0)
(0.00124803 0.00304749 0)
(0.00163468 0.00461886 0)
(0.0003625 0.000703756 0)
(0.00117473 0.013729 0)
(0.00127789 0.0135986 0)
(0.000956472 0.0134405 0)
(0.00107782 0.0140288 0)
(0.000841099 0.0129664 0)
(0.00133274 0.0134535 0)
(0.00146667 0.0131425 0)
(0.000780216 0.0129102 0)
(0.000674848 0.0126237 0)
(0.000569099 0.0127988 0)
(0.00046413 0.0122193 0)
(0.00152816 0.0129994 0)
(0.000350375 0.0116653 0)
(0.000266675 0.010762 0)
(2.00532e-05 0.000471596 0)
(1.37717e-05 0.000320144 0)
(1.03245e-05 0.000236521 0)
(7.73762e-06 0.000174434 0)
(2.39541e-05 0.000577039 0)
(2.77373e-05 0.000678178 0)
(3.16657e-05 0.000786829 0)
(2.11393e-05 0.000506406 0)
(3.25933e-06 7.28172e-05 0)
(2.79271e-06 6.21008e-05 0)
(9.94885e-07 2.20639e-05 0)
(3.31154e-05 0.000842758 0)
(3.9772e-05 0.00102084 0)
(1.54128e-05 0.00802757 0)
(8.41342e-06 0.00702116 0)
(9.85728e-06 0.00855 0)
(0.000149949 0.0104832 0)
(4.3071e-05 0.009672 0)
(4.55568e-05 0.00620368 0)
(6.11857e-05 0.00584683 0)
(7.24299e-05 0.00508852 0)
(7.10294e-05 0.00470253 0)
(6.35265e-05 0.00394407 0)
(6.85192e-05 0.00232249 0)
(6.66513e-05 0.00248079 0)
(6.05788e-05 0.00305218 0)
(6.12034e-05 0.00272858 0)
(6.243e-05 0.00260436 0)
(5.66112e-05 0.00337552 0)