/*--------------------------------*- C++ -*----------------------------------*\
| =========                 |                                                 |
| \\      /  F ield         | OpenFOAM: The Open Source CFD Toolbox           |
|  \\    /   O peration     | Version:  v2012                                 |
|   \\  /    A nd           | Website:  www.openfoam.com                      |
|    \\/     M anipulation  |                                                 |
\*---------------------------------------------------------------------------*/
FoamFile
{
    version     2.0;
    format      ascii;
    class       volScalarField;
    location    "1.4";
    object      k;
}
// * * * * * * * * * * * * * * * * * * * * * * * * * * * * * * * * * * * * * //

dimensions      [0 2 -2 0 0 0 0];


internalField   nonuniform List<scalar> 
13611
(
0.000929918
0.000657141
0.000251074
0.000482544
0.00051505
0.00107408
0.000453674
0.000525137
0.00120561
0.000417354
0.00060005
0.000534031
0.000500098
0.000597733
0.000495056
0.000388979
0.000530857
0.00114333
0.000605049
0.000531235
0.000592418
0.000604817
0.00110857
0.000343225
0.000486056
0.000545632
0.000582816
0.000628727
0.000559841
0.000579236
0.00059737
0.000617072
0.000473475
0.000403902
0.000508589
0.000627684
0.000551957
0.00121187
0.000633637
0.000551251
0.000569154
0.000593019
0.000612778
0.000620384
0.000355641
0.00114419
0.000388786
0.000531823
0.000666018
0.000583674
0.000608777
0.000650163
0.000543761
0.00057781
0.00055355
0.000605354
0.000620508
0.000639603
0.000325158
0.000474615
0.000427151
0.000527571
0.000664554
0.000667023
0.000592385
0.00121093
0.000653779
0.000528006
0.000575053
0.00054893
0.000604847
0.000634303
0.000384512
0.000328355
0.00109726
0.000499668
0.000520025
0.000699625
0.000685883
0.000693055
0.000665473
0.000671648
0.000525526
0.000559809
0.000587031
0.000537174
0.000618348
0.000648253
0.000402372
0.000296159
0.000399716
0.000510481
0.000503512
0.000704508
0.00068837
0.000701849
0.000708781
0.000710476
0.00125307
0.000669491
0.000517566
0.000554131
0.00058358
0.000532349
0.000611599
0.000630398
0.000646588
0.000475923
0.000355805
0.000266645
0.00096992
0.000499581
0.000497714
0.0007301
0.00070653
0.000722549
0.000741816
0.000744131
0.000688844
0.000687211
0.000508434
0.000521349
0.000540414
0.000563826
0.000576978
0.000599978
0.000622329
0.00066613
0.000489305
0.000355882
0.000289982
0.000506028
0.000487334
0.000489582
0.000739619
0.000709223
0.00076825
0.000752021
0.000757118
0.000923957
0.000687463
0.000501457
0.000511868
0.000540135
0.000552297
0.00058639
0.000601327
0.000635552
0.000669583
0.000485048
0.000431604
0.000276896
0.000314769
0.000476745
0.000479227
0.000492009
0.000763512
0.000729893
0.000811979
0.000792645
0.000793985
0.000932235
0.000710107
0.000502267
0.00051546
0.000529152
0.000557651
0.00057525
0.000614197
0.000653208
0.000629066
0.000691479
0.000473969
0.000442632
0.00034197
0.000265825
0.00110599
0.000467056
0.000471405
0.000486502
0.000792893
0.000750381
0.000731343
0.000833893
0.000825293
0.00080152
0.00135061
0.000713099
0.000491024
0.000508183
0.000528257
0.000553127
0.000580934
0.00060852
0.000653564
0.000638188
0.000690548
0.00046518
0.000457602
0.000345581
0.000222436
0.000650665
0.000458748
0.000461925
0.000475578
0.000807019
0.000767836
0.000753429
0.000866693
0.000831829
0.000838062
0.00093421
0.000734921
0.000488849
0.000513973
0.000498205
0.000539458
0.000564188
0.00057748
0.000597288
0.00062386
0.000670493
0.000713251
0.000454353
0.000454831
0.000403979
0.000364701
0.000286254
0.00071509
0.000450376
0.000453563
0.000471288
0.000793268
0.00083912
0.000767682
0.000855076
0.000895817
0.000863536
0.0014971
0.000796643
0.000755419
0.00073372
0.000478977
0.000509372
0.00048946
0.000537765
0.00056027
0.00058784
0.0006017
0.000631061
0.000673945
0.000714899
0.000443907
0.00044706
0.000397471
0.000344037
0.000261989
0.000458239
0.000440722
0.000452962
0.000444168
0.000461587
0.000812229
0.000861071
0.000797448
0.00089188
0.000932989
0.000975786
0.000955002
0.00086449
0.000771188
0.000753979
0.000480098
0.000499827
0.000519258
0.000490242
0.000548384
0.000528555
0.000571086
0.000586679
0.000615607
0.000649254
0.000696863
0.00066494
0.000738492
0.000436395
0.000439009
0.000422999
0.000291657
0.000306127
0.00108459
0.000444739
0.000437945
0.000461762
0.00084586
0.000894512
0.0008129
0.000922024
0.000971272
0.000977924
0.00111721
0.000795301
0.00076565
0.000471626
0.000502228
0.000511682
0.000480696
0.000537749
0.00052811
0.000568779
0.000599493
0.000615322
0.000646714
0.000695997
0.000677362
0.00073437
0.000760577
0.000428932
0.000429644
0.00040495
0.000281361
0.000291896
0.000496101
0.000438527
0.000440355
0.000429985
0.000454228
0.000868043
0.000927246
0.000843927
0.000955826
0.00100541
0.00103957
0.00106968
0.00142561
0.000807598
0.000793296
0.000471201
0.000493315
0.00051553
0.000477393
0.000542776
0.000582887
0.000557765
0.000596714
0.000629901
0.000660689
0.000712878
0.000676008
0.000754081
0.000781807
0.000422894
0.000425252
0.000421232
0.000429957
0.000272656
0.000369559
0.000373154
0.000432061
0.000432698
0.000445298
0.000426968
0.000455898
0.000903016
0.000931467
0.000963541
0.000855237
0.000990414
0.0010444
0.0010711
0.00111643
0.00110149
0.000838021
0.000806883
0.000464689
0.000492682
0.000483456
0.000511628
0.000467335
0.000533259
0.000583743
0.000561736
0.00060984
0.000623791
0.000663053
0.000710226
0.000692363
0.000751736
0.000780064
0.000415563
0.00041784
0.000420358
0.000412215
0.000250744
0.000376583
0.00106287
0.00028113
0.000426887
0.00043784
0.000420263
0.000449657
0.000910376
0.000972124
0.00100249
0.000892011
0.00102471
0.00106185
0.00112406
0.00115959
0.00112648
0.00156286
0.00085644
0.000833065
0.000481151
0.000501337
0.000476921
0.000521525
0.000462195
0.000538242
0.000598071
0.000574507
0.000551294
0.00061035
0.000635444
0.000651814
0.000682241
0.000728153
0.000772574
0.000805609
0.000411464
0.000408488
0.000404904
0.000307404
0.000391845
0.00129811
0.000263638
0.000419461
0.000429632
0.000440136
0.00041291
0.00045256
0.000952062
0.00101082
0.00103945
0.000914919
0.00110581
0.00116645
0.00120841
0.00119591
0.00122751
0.000890026
0.000842971
0.000481219
0.00050322
0.000467074
0.000513468
0.000532185
0.000595825
0.000579948
0.000551351
0.000623708
0.000660519
0.000692628
0.000715834
0.000797702
0.000771707
0.000832986
0.000404617
0.000403407
0.000399638
0.000305337
0.000391895
0.000672444
0.000239527
0.000413408
0.000422112
0.000434293
0.000405468
0.000446956
0.00097895
0.00105148
0.00108685
0.000954366
0.00114614
0.00121706
0.00125904
0.00124969
0.00166257
0.000902547
0.000878433
0.000469091
0.000491901
0.000462447
0.000519158
0.00053838
0.000606777
0.00057617
0.000562094
0.000630724
0.000649801
0.000680891
0.000728999
0.000818875
0.000800282
0.000754757
0.000856008
0.000398758
0.00039393
0.000391841
0.000352772
0.000391213
0.000541735
0.000250508
0.000405566
0.000414959
0.000420449
0.000426873
0.000438385
0.000399176
0.00045196
0.00102319
0.00108373
0.00107207
0.00113402
0.000976805
0.00120986
0.00124189
0.00131419
0.00135992
0.00141162
0.00094413
0.000889058
0.00046436
0.000491906
0.000513228
0.000532768
0.000604104
0.00062161
0.000588606
0.000555568
0.000658923
0.000691168
0.000713369
0.00084942
0.00081395
0.000765124
0.00039227
0.000385808
0.000359227
0.000386638
0.000410264
0.000227783
0.000400701
0.000409626
0.000413906
0.000422197
0.00043144
0.000392978
0.000444211
0.00104435
0.00105278
0.00113311
0.00112997
0.00118029
0.00102377
0.001253
0.00131232
0.00134012
0.00142386
0.00180748
0.00146509
0.000958873
0.000922405
0.000456169
0.00047228
0.000481777
0.000503413
0.000520872
0.000541209
0.000616482
0.000630415
0.000581759
0.000564773
0.000646833
0.000678962
0.000722129
0.000879194
0.000790358
0.000841834
0.00074562
0.000386853
0.000379387
0.000375671
0.000321453
0.000376222
0.000192901
0.00134807
0.000186979
0.000395141
0.000403377
0.000408908
0.000414769
0.00042458
0.000429151
0.000390837
0.000387508
0.000434835
0.000447312
0.00109183
0.00109961
0.00117597
0.00117499
0.0012316
0.00105648
0.00132809
0.00135695
0.00141755
0.00147629
0.00164395
0.0015732
0.00100402
0.000929735
0.000456125
0.000463269
0.000482792
0.00050319
0.000513138
0.00053477
0.000623126
0.000593113
0.000559865
0.000655394
0.000688532
0.000710192
0.000867699
0.000914359
0.000792295
0.000840123
0.000750133
0.000380601
0.000372355
0.0003731
0.000341894
0.000369876
0.000180605
0.000564713
0.000260737
0.000390652
0.000400606
0.000403556
0.000410925
0.000419797
0.000421466
0.000386125
0.000382528
0.000430601
0.000442815
0.00113044
0.00115241
0.00122471
0.0012382
0.00127614
0.00104648
0.00111301
0.0013821
0.0014355
0.00156346
0.00199518
0.0016671
0.00100523
0.000972394
0.000447334
0.000465427
0.000493003
0.000474932
0.000519979
0.000543779
0.000643714
0.000611407
0.000586487
0.000570946
0.000676382
0.000721501
0.000893836
0.000937606
0.000775142
0.000819667
0.000870549
0.000743568
0.000376334
0.000368116
0.000361579
0.000369149
0.000363326
0.000179432
0.00131832
0.0002494
0.000391391
0.000386282
0.000395759
0.000399069
0.000405734
0.000414273
0.000418419
0.000381854
0.000377741
0.000422976
0.000434937
0.00118257
0.00119664
0.00130116
0.00133873
0.00109722
0.00114978
0.00146201
0.00151562
0.00165084
0.00194824
0.00180166
0.00104928
0.000974407
0.000440884
0.000463761
0.000491259
0.000471477
0.000512277
0.000540299
0.000653932
0.000619282
0.000596627
0.000564993
0.000686989
0.000710251
0.000927279
0.000784563
0.000828873
0.000884769
0.000761211
0.000370766
0.000362768
0.00036246
0.000362788
0.000358083
0.000150646
0.000612614
0.000294714
0.000386099
0.000382276
0.000393936
0.000400763
0.000404429
0.000408962
0.000410853
0.000377846
0.000373662
0.000418369
0.000427841
0.00122546
0.00126074
0.0013119
0.00136464
0.00138444
0.00115009
0.00109607
0.00120628
0.00150527
0.00151431
0.00161911
0.0017742
0.00222803
0.00196306
0.00192418
0.00104969
0.00100781
0.000445557
0.000430079
0.000457038
0.000500707
0.000479494
0.000519329
0.000552466
0.000530365
0.000675015
0.000639057
0.000612845
0.000590527
0.000574786
0.000723373
0.000957668
0.000808428
0.000858362
0.000921388
0.000750713
0.000367656
0.000358837
0.00034881
0.000360552
0.000356958
0.000354069
0.000262451
0.000244101
0.00143116
0.000382916
0.000382353
0.000378166
0.000390444
0.00039625
0.00039844
0.000407532
0.000373791
0.000369846
0.000411895
0.000420616
0.00128559
0.00138903
0.00143396
0.00147705
0.0012057
0.00114978
0.00125194
0.0016028
0.00161731
0.00172527
0.00188394
0.00229964
0.00214766
0.00204423
0.00108998
0.00099972
0.000440245
0.000424994
0.000459863
0.000499379
0.000478685
0.000508451
0.00054428
0.000532769
0.000687371
0.000641899
0.000623605
0.000601249
0.000565976
0.000711532
0.000957908
0.000820586
0.000863902
0.000917347
0.000769349
0.000364148
0.000360499
0.000354757
0.000355463
0.000356182
0.000352387
0.000349922
0.000258428
0.000281388
0.000867716
0.000378127
0.000385633
0.000377861
0.00037506
0.000392075
0.000394523
0.000396705
0.000402069
0.000370139
0.000366508
0.000407899
0.000414062
0.0013521
0.00143879
0.00151874
0.00154941
0.00124252
0.00113389
0.00120239
0.00132406
0.00168539
0.0017137
0.00185316
0.00203007
0.00220441
0.00108351
0.00103714
0.000445482
0.000430327
0.000417727
0.000454539
0.000469937
0.000488979
0.000510362
0.000550481
0.00052348
0.00068727
0.000658919
0.000618086
0.000601628
0.000572324
0.000725327
0.000995879
0.000852051
0.000800394
0.00089496
0.000950711
0.000749638
0.000363492
0.000356903
0.000351814
0.000346219
0.000349992
0.000348619
0.000348215
0.000348651
0.000158447
0.000258265
0.000589571
0.000375315
0.000377041
0.000383671
0.000374969
0.000370935
0.000389443
0.000390504
0.000393117
0.00039953
0.000366501
0.000402264
0.000408959
0.000412548
0.0014287
0.00154101
0.00159792
0.00165801
0.00131351
0.00117105
0.00122878
0.00138606
0.00180911
0.00182907
0.00197653
0.00218676
0.00234379
0.00112732
0.00102835
0.000439824
0.000426431
0.000411717
0.000458556
0.000468041
0.000486844
0.000505576
0.000547664
0.000522974
0.000678153
0.000710014
0.000647409
0.000629984
0.000587024
0.0006173
0.000558274
0.00101293
0.000872788
0.000817028
0.000904585
0.000985896
0.000931797
0.000760529
0.000360104
0.000353392
0.000356696
0.000347027
0.00034473
0.00034506
0.000344441
0.000346391
0.00020934
0.000283178
0.00146448
0.000371851
0.000379863
0.000373301
0.000385903
0.000371559
0.000369334
0.000386996
0.00038887
0.000394894
0.000363531
0.000400255
0.000403664
0.000406976
0.00150727
0.00160024
0.0017167
0.00174834
0.00137478
0.00129383
0.00122446
0.00147442
0.00192829
0.00196506
0.0021425
0.00234525
0.00115534
0.00107277
0.000431883
0.000444074
0.000419647
0.000406609
0.00041296
0.000454054
0.00047539
0.000495483
0.000513017
0.000533966
0.000692886
0.00071398
0.00065732
0.000586853
0.000625394
0.000558564
0.001055
0.000857738
0.000810786
0.00100417
0.000954749
0.000787946
0.000735788
0.000359831
0.000350678
0.000353761
0.000346499
0.000339291
0.000342112
0.000340858
0.000342818
0.000347857
0.000194636
0.000279309
0.00032641
0.000786712
0.000370999
0.000368618
0.000377808
0.000371906
0.00038289
0.000368366
0.000366169
0.000383331
0.000385957
0.00038583
0.000391134
0.000363606
0.000395583
0.000402681
0.00153431
0.00171357
0.00182058
0.00188751
0.00144575
0.00134708
0.00128106
0.00152895
0.00211146
0.00211881
0.00231001
0.00122756
0.00111468
0.000425156
0.000438588
0.000418847
0.000402101
0.000406967
0.000459813
0.000471014
0.000494358
0.000505078
0.00052719
0.000680607
0.000646328
0.000572303
0.000601085
0.000615809
0.000547219
0.00108105
0.000884112
0.000841749
0.000998509
0.0010552
0.000927186
0.00079514
0.000741442
0.000358593
0.000349057
0.000353644
0.00035074
0.000341193
0.000335643
0.000338468
0.000338964
0.000341247
0.000345802
0.000169008
0.000302855
0.000328782
0.000346836
0.00169034
0.000367658
0.000366441
0.000374067
0.000379439
0.000368632
0.000364594
0.000363616
0.000380921
0.000381966
0.000382014
0.000386927
0.000391568
0.00036067
0.000393702
0.000397747
0.00165482
0.00182055
0.00174675
0.00196529
0.00200867
0.00143013
0.00134706
0.00128698
0.00162045
0.00228916
0.00124163
0.00112845
0.000428247
0.00044354
0.000410831
0.000398657
0.000397759
0.000405245
0.000401274
0.000454233
0.00047812
0.000488789
0.000505712
0.000536019
0.000515482
0.00069128
0.000656275
0.000570869
0.000597735
0.000625601
0.000547452
0.000872722
0.000823264
0.00103563
0.00108418
0.000947068
0.000772765
0.000729907
0.000355887
0.000346089
0.000350922
0.000349317
0.00033293
0.000337502
0.000333175
0.000334833
0.00033697
0.000343074
0.000338337
0.000269726
0.000322383
0.000407866
0.000911225
0.000366508
0.000363973
0.000372176
0.000376849
0.000366334
0.000362626
0.000360927
0.000377672
0.000380047
0.00037943
0.000383743
0.000386772
0.000359444
0.000389546
0.00169195
0.00196571
0.00189227
0.00208581
0.00218353
0.00151186
0.00141599
0.00136264
0.00166983
0.00117975
0.00131225
0.000422424
0.000437481
0.000407947
0.000393714
0.000393774
0.000398932
0.000397209
0.000459766
0.000470938
0.000494022
0.000527569
0.00051651
0.000675351
0.000710756
0.000641879
0.000558246
0.000584041
0.000610913
0.000532999
0.000899548
0.000840111
0.0010266
0.00113189
0.00099048
0.000935003
0.0007712
0.000745326
0.000354979
0.000344258
0.000350385
0.000347173
0.000328261
0.000331894
0.000330063
0.000332715
0.000333997
0.000341144
0.000336664
0.000289777
0.000319484
0.000334873
0.00161875
0.000363855
0.000361357
0.000374088
0.000369717
0.000363421
0.000367149
0.000360085
0.000358197
0.000375297
0.000376421
0.000375727
0.000380318
0.000383661
0.000385486
0.00035675
0.000389847
0.0018184
0.00208412
0.00201108
0.00193616
0.00222523
0.00230536
0.00162052
0.00149437
0.00141012
0.00180766
0.00119202
0.00131577
0.00137797
0.000427102
0.000414369
0.000441758
0.000401427
0.000390538
0.000393785
0.000392613
0.000452472
0.000476019
0.000488388
0.000506033
0.000679814
0.00070116
0.000649685
0.000560239
0.000583794
0.000612429
0.000532087
0.000878718
0.00082465
0.00107592
0.0011807
0.00112529
0.00100082
0.000961242
0.000793931
0.000736562
0.000352322
0.000341762
0.000345065
0.000347814
0.000346335
0.000325538
0.000328124
0.000329163
0.000323779
0.000329383
0.000332767
0.000339214
0.000334293
0.000337526
0.000301075
0.000323357
0.000275342
0.00101047
0.000362285
0.000361421
0.000359314
0.000371849
0.000369497
0.000361618
0.00036468
0.000357855
0.000356091
0.000372331
0.000374118
0.00037391
0.000378336
0.000379843
0.000382014
0.000385607
0.002221
0.00218364
0.00211585
0.00232855
0.00170623
0.00157507
0.0015204
0.00192923
0.00126768
0.00138578
0.00144937
0.000422249
0.000407754
0.000436239
0.000401294
0.00039528
0.000385367
0.000388046
0.00038781
0.000456324
0.00047486
0.000494685
0.000507617
0.000671916
0.000713011
0.000645368
0.000547265
0.000572839
0.000597645
0.000627629
0.000521904
0.000898435
0.000846542
0.00107914
0.00122889
0.00117646
0.00103729
0.000941547
0.000781505
0.000754104
0.000350855
0.000340693
0.000343489
0.000347039
0.000344073
0.000324421
0.000325632
0.000322195
0.000320096
0.000328323
0.000330468
0.000337871
0.000334114
0.000335729
0.000295678
0.000321941
0.000544934
0.000268867
0.00183779
0.000359403
0.000359053
0.000357009
0.000367311
0.000359482
0.000362347
0.000364799
0.000355257
0.00035381
0.000370212
0.000371098
0.000375718
0.00037138
0.000376904
0.000378211
0.000382343
0.00230369
0.00229303
0.00210483
0.0018334
0.00168011
0.00158867
0.00193272
0.00128141
0.00140364
0.00153844
0.000414669
0.000427148
0.000408249
0.000440702
0.000396196
0.000389255
0.000383933
0.000385049
0.00038331
0.000449642
0.000466596
0.000484993
0.000499871
0.000686069
0.000707424
0.000661069
0.000549253
0.000576854
0.000592498
0.000622062
0.000528695
0.000883031
0.000832367
0.00112604
0.00122098
0.00120378
0.00103791
0.000967337
0.000800694
0.000746779
0.000351908
0.000348737
0.000341818
0.00033867
0.00034528
0.000342641
0.00032197
0.000323693
0.00031763
0.000319079
0.00032008
0.00032645
0.000329472
0.00033576
0.000332391
0.000308322
0.000319443
0.000537315
0.000229692
0.00105307
0.000357986
0.000356971
0.000354894
0.000367582
0.000357873
0.000360293
0.000362514
0.000353279
0.000368337
0.000373146
0.000368475
0.000371174
0.000372732
0.000376295
0.000378346
0.00229969
0.00188988
0.00176676
0.00171065
0.00211781
0.00133621
0.00148706
0.0016127
0.000409742
0.000422636
0.000401219
0.000437306
0.000396132
0.00038964
0.000383966
0.000380078
0.000380276
0.000379355
0.000452064
0.000468173
0.000486837
0.000507616
0.000680855
0.000723653
0.000652784
0.000534745
0.00055082
0.000562801
0.000602771
0.000632257
0.000512883
0.000909063
0.000853138
0.00108441
0.00117196
0.00128275
0.00126383
0.00101049
0.000950038
0.000791097
0.00076441
0.00034976
0.000348321
0.000340084
0.00033858
0.000344846
0.000343491
0.000340561
0.000321036
0.000324453
0.000314354
0.00031699
0.000313674
0.000317539
0.000326372
0.000327764
0.000330569
0.000334758
0.000331817
0.000309619
0.000315296
0.000335124
0.000255146
0.0016692
0.000356113
0.000354491
0.000352661
0.000365625
0.000356076
0.000358305
0.00036034
0.000362974
0.000351033
0.000365932
0.000370926
0.000366299
0.000368538
0.000371278
0.000373568
0.000376907
0.00201417
0.0017851
0.001779
0.00214111
0.00148873
0.00158045
0.00173745
0.000401382
0.000414249
0.000428167
0.000443951
0.000390563
0.000386757
0.000378606
0.000376245
0.000376307
0.000375074
0.000461684
0.000479798
0.000492393
0.00069521
0.00071561
0.000662011
0.000507371
0.000487457
0.000552482
0.000590613
0.000614838
0.000486059
0.00088996
0.000838867
0.00108258
0.00120268
0.00130932
0.00127108
0.00102961
0.000978872
0.000809517
0.000748868
0.000349242
0.000346224
0.000339263
0.000337197
0.000343217
0.000342514
0.000339957
0.000320279
0.000323798
0.000315297
0.000311175
0.000309766
0.000316722
0.000324855
0.00032705
0.000329258
0.000335974
0.000333121
0.000330154
0.00032167
0.000316188
0.000308023
0.000250139
0.000262673
0.000962765
0.000354305
0.000353098
0.000352595
0.000350717
0.000354508
0.000356453
0.000358146
0.000361989
0.000363585
0.000367786
0.00036651
0.00036381
0.000368978
0.000371277
0.000372933
0.00205481
0.00193496
0.00191527
0.00231934
0.00145223
0.00160622
0.00167316
0.00183152
0.000397272
0.000415921
0.000426287
0.000453916
0.000383963
0.000381883
0.00037447
0.000377485
0.000372699
0.000371682
0.00037102
0.000469181
0.000487577
0.00046286
0.000681652
0.000727149
0.000646178
0.000472261
0.000463907
0.000442144
0.000552562
0.000462738
0.000584361
0.00061068
0.000437699
0.000912804
0.000853444
0.00112582
0.00118152
0.00137639
0.0013272
0.00102766
0.000958276
0.000780766
0.000755573
0.000347064
0.000345437
0.00033735
0.000336404
0.000341682
0.00034113
0.000338423
0.000318627
0.000322078
0.000313558
0.000307881
0.000309522
0.000315702
0.000325234
0.000327836
0.000329158
0.000334729
0.000333318
0.000329073
0.000311428
0.000309181
0.000303924
0.000401395
0.000238849
0.00163497
0.000352224
0.000350977
0.000350532
0.000348848
0.00035464
0.000352346
0.000356259
0.000358107
0.000360006
0.00036234
0.00036541
0.000364234
0.000362892
0.000366236
0.00036905
0.000370202
0.00221262
0.00197578
0.0020032
0.00152554
0.00166374
0.00178957
0.00197247
0.000390742
0.000406232
0.000441077
0.000442024
0.000458194
0.000382795
0.000378003
0.00037741
0.000370092
0.000372766
0.000369393
0.000368565
0.000367467
0.000474729
0.000423997
0.000683855
0.000699284
0.000649176
0.000367524
0.000370076
0.000411415
0.000500239
0.000421137
0.000519947
0.000546928
0.000326099
0.000885456
0.000801584
0.00113227
0.00123745
0.00136903
0.00107548
0.000985556
0.000775811
0.000711292
0.000346916
0.000343418
0.000337139
0.000334791
0.0003399
0.000341793
0.00033975
0.000338394
0.000318457
0.000321208
0.000311987
0.000313943
0.00030548
0.000308337
0.00031673
0.000324651
0.000326977
0.00032753
0.000332281
0.000327319
0.000329825
0.000312505
0.000302368
0.000308119
0.000301716
0.000271572
0.000231563
0.00107307
0.000350707
0.000349642
0.000348917
0.000353155
0.000350876
0.000354381
0.000356112
0.000358582
0.000359574
0.000361963
0.000361571
0.000360755
0.000364448
0.000367166
0.000367595
0.00230071
0.0021471
0.00216431
0.0016211
0.00146206
0.00177692
0.00190083
0.00208566
0.000397856
0.000415495
0.000418899
0.000410514
0.000432963
0.000376249
0.000372604
0.000373079
0.000369217
0.000367001
0.00036695
0.00036488
0.000363603
0.000452133
0.00031527
0.000689615
0.000622713
0.000350411
0.000328504
0.000509134
0.000521474
0.000455335
0.000625438
0.000524559
0.00055589
0.000319897
0.000890492
0.000776425
0.00118558
0.00130204
0.00135294
0.00107204
0.00102945
0.000924859
0.000719441
0.00069324
0.00034546
0.000342654
0.000335391
0.000334203
0.000338693
0.000340163
0.000337111
0.000319693
0.000322251
0.000310867
0.000313056
0.000303638
0.000306659
0.000309229
0.000317063
0.000323538
0.000325845
0.000332756
0.000331138
0.000326602
0.000328869
0.000314704
0.000298145
0.000302804
0.000299982
0.000340784
0.000241893
0.000904683
0.000349043
0.000347719
0.000347166
0.000351526
0.000352981
0.000349357
0.000354442
0.000356259
0.000358917
0.000360376
0.000358998
0.000358843
0.000361992
0.000365136
0.000364858
0.0023113
0.00169044
0.00150186
0.00187228
0.00180188
0.00205611
0.00222996
0.000387433
0.0004066
0.00042372
0.000373408
0.000373409
0.000338516
0.000402176
0.000381455
0.00037091
0.000367441
0.000368129
0.000364767
0.000363061
0.000363887
0.000364857
0.000362074
0.000363412
0.000361419
0.000320069
0.000633187
0.000661044
0.000382433
0.00103411
0.000664361
0.00048373
0.00109446
0.00054245
0.000563569
0.000432216
0.000809783
0.000717616
0.00120419
0.00133425
0.00143175
0.00112448
0.00103035
0.000911154
0.000677654
0.000647807
0.000345855
0.000343918
0.000341132
0.000334864
0.000337386
0.000339001
0.00033986
0.000336573
0.000335944
0.00032012
0.000321379
0.00031121
0.000314325
0.000304016
0.000305692
0.000308416
0.000318884
0.00031592
0.000323352
0.00032433
0.000331904
0.00033032
0.000327722
0.000325408
0.000329114
0.000305211
0.000298731
0.000297613
0.000296766
0.000298989
0.000300873
0.000181868
0.000228001
0.000384334
0.0016171
0.000347633
0.000347411
0.000346412
0.000350551
0.000351208
0.000347759
0.000348408
0.000352385
0.000355215
0.000356641
0.000357841
0.000356741
0.000356619
0.000361095
0.000362603
0.000362324
0.00168434
0.00160012
0.00201421
0.00190761
0.00218478
0.00232297
0.000380425
0.000399035
0.000387814
0.000277823
0.000240572
0.000212185
0.0002972
0.000372097
0.000363752
0.0003626
0.000364117
0.000361828
0.000362787
0.000358994
0.000360065
0.00035906
0.000566968
0.000617703
0.00115857
0.00108219
0.00107278
0.00115306
0.00115888
0.00101092
0.000802556
0.000781361
0.00127702
0.0011766
0.00140551
0.00146299
0.00107523
0.000970619
0.000868618
0.00065062
0.000344341
0.000343457
0.000340898
0.000333718
0.000336929
0.000337728
0.000338817
0.000335233
0.000334997
0.000321909
0.000310785
0.000313423
0.000302918
0.000306599
0.000309244
0.000318148
0.000315903
0.000323938
0.000330643
0.000332546
0.000326816
0.000324993
0.000328924
0.000298758
0.000311402
0.000296366
0.000292615
0.000292959
0.000300775
0.000274636
0.000278339
0.00111729
0.000345991
0.000345643
0.000344737
0.000349008
0.000350898
0.000346497
0.000346871
0.000351566
0.000353056
0.000355474
0.000357263
0.000356147
0.000354694
0.000354698
0.000358931
0.000360052
0.00181297
0.00163947
0.00217172
0.00194133
0.00227915
0.00036863
0.00034845
0.00031573
0.000174563
0.000263728
0.000261325
0.000222795
0.000369688
0.000357848
0.000362551
0.000358183
0.000359912
0.000357981
0.000360293
0.000358068
0.000355646
0.000358343
0.000355457
0.000356735
0.000340354
0.000630571
0.000895727
0.00130633
0.00132654
0.00127847
0.00121432
0.00143182
0.00155255
0.00109319
0.000997579
0.000950838
0.00071887
0.000343627
0.000341928
0.00033942
0.000333274
0.000335551
0.000337678
0.000334725
0.000333876
0.000321081
0.000312203
0.000313663
0.000303644
0.000306262
0.000309902
0.000318964
0.000317033
0.000314893
0.000323233
0.000329957
0.000331906
0.000326899
0.000325666
0.000323936
0.000328102
0.000289502
0.000303665
0.000297912
0.000294531
0.000292219
0.000289739
0.000299737
0.00030237
0.00027844
0.000548985
0.000265498
0.00170199
0.0003447
0.000344506
0.000348062
0.000348977
0.000345037
0.000345904
0.000349529
0.000352289
0.000353615
0.000355479
0.000353515
0.000352902
0.000352817
0.000357304
0.000357848
0.00183163
0.00174188
0.00229406
0.00211501
0.000246294
0.000274206
0.000201342
0.000290671
0.000494681
0.00035341
0.00036365
0.000338078
0.000356429
0.000357005
0.000352871
0.000356979
0.000355592
0.000355827
0.000354189
0.00035581
0.000354647
0.000992066
0.00122377
0.0014663
0.00133636
0.00121901
0.001531
0.00141098
0.0010778
0.00115465
0.00107221
0.000342286
0.000341117
0.000338428
0.000332241
0.000334885
0.000336569
0.000333658
0.000333221
0.000320125
0.000322131
0.000311456
0.000312842
0.000305122
0.000307867
0.000309101
0.000318252
0.000317162
0.000315199
0.000330769
0.00032654
0.000325201
0.000323492
0.000328335
0.000286756
0.000298421
0.000297672
0.000294565
0.000291042
0.000289068
0.000300181
0.000302959
0.000290986
0.000421725
0.000250253
0.00121469
0.000343055
0.000342945
0.000346483
0.000348228
0.000343847
0.000344263
0.000349147
0.000350573
0.000352032
0.000353381
0.00035405
0.000351127
0.000351089
0.000351532
0.000354868
0.000355519
0.00196335
0.00178022
0.00211999
0.000260359
0.000216507
0.000265199
0.000175782
0.000348422
0.000427167
0.00035391
0.000359249
0.000235109
0.000351311
0.000352771
0.000350383
0.000353336
0.000352134
0.000353583
0.000352167
0.000353555
0.000352107
0.00128371
0.00160218
0.0014908
0.00112942
0.00115898
0.00131227
0.00034197
0.000340275
0.000338943
0.00033715
0.000331611
0.000335683
0.000334045
0.000336352
0.000332844
0.000332066
0.00032055
0.0003216
0.000311589
0.000313328
0.000305733
0.000307027
0.000309574
0.000318709
0.000316471
0.000314564
0.000330193
0.000325693
0.000327323
0.000324168
0.000322294
0.000329282
0.000283952
0.000286381
0.000287429
0.000298594
0.000298867
0.000296149
0.000292568
0.000288111
0.000301639
0.000304648
0.000288071
0.000306756
0.000679317
0.000259434
0.00180182
0.000342079
0.000342157
0.000345197
0.000346711
0.0003427
0.000343301
0.000347302
0.000350531
0.000352047
0.000352515
0.000349376
0.000349619
0.000349681
0.000354032
0.0019135
0.0017033
0.00229535
0.000436297
0.000328296
0.000307292
0.000228744
0.000966807
0.000328649
0.000354444
0.000253978
0.000345459
0.000351126
0.000346752
0.000350963
0.00035055
0.000351891
0.000352197
0.000350062
0.0003513
0.000349892
0.00130647
0.00159358
0.00145486
0.00128034
0.00123122
0.00122919
0.000340822
0.000338149
0.000336162
0.000330642
0.000335067
0.000334247
0.000333148
0.000335325
0.000331797
0.00031982
0.000310914
0.00031281
0.000307549
0.000309068
0.000318142
0.000316997
0.000315133
0.000325121
0.000327179
0.000324172
0.000321847
0.000328744
0.000283003
0.000284614
0.000283317
0.000289492
0.000298636
0.000295846
0.000292414
0.000290223
0.000301492
0.000305052
0.000287113
0.00028578
0.000274385
0.000533878
0.000251098
0.00116796
0.000340616
0.000341057
0.000343976
0.000345412
0.000346104
0.000341524
0.000342316
0.000347416
0.000349118
0.000350458
0.000350797
0.00034776
0.000349093
0.000348855
0.000347984
0.000348587
0.000351663
0.00200893
0.00175692
0.00218287
0.000873868
0.000875415
0.000267477
0.000342348
0.000348514
0.000239629
0.000341162
0.000347488
0.000345241
0.000343106
0.000347727
0.000347728
0.000350159
0.000349375
0.000347592
0.000349264
0.000347085
0.00137832
0.0016768
0.00153695
0.00156961
0.00126044
0.000339711
0.000337361
0.000338726
0.000335122
0.00033635
0.000329898
0.000333661
0.000332321
0.000334726
0.000331237
0.000320043
0.00031161
0.000313425
0.000307686
0.000310005
0.000318673
0.000316296
0.000314576
0.000325745
0.000326701
0.000328047
0.000323697
0.000321093
0.000322713
0.000329061
0.000281286
0.000285889
0.00028041
0.000297027
0.000299905
0.00029415
0.000290064
0.000302881
0.000306814
0.000304362
0.000282538
0.000285584
0.000249593
0.000367412
0.00027016
0.0010828
0.000340142
0.000339581
0.000340795
0.000343192