/*--------------------------------*- C++ -*----------------------------------*\
| =========                 |                                                 |
| \\      /  F ield         | OpenFOAM: The Open Source CFD Toolbox           |
|  \\    /   O peration     | Version:  v2012                                 |
|   \\  /    A nd           | Website:  www.openfoam.com                      |
|    \\/     M anipulation  |                                                 |
\*---------------------------------------------------------------------------*/
FoamFile
{
    version     2.0;
    format      ascii;
    class       volScalarField;
    location    "1.4";
    object      nut;
}
// * * * * * * * * * * * * * * * * * * * * * * * * * * * * * * * * * * * * * //

dimensions      [0 2 -1 0 0 0 0];


internalField   nonuniform List<scalar> 
13611
(
1.25561e-05
1.20248e-05
9.52058e-06
1.14989e-05
1.15586e-05
1.27419e-05
1.12976e-05
1.17124e-05
1.2859e-05
1.1179e-05
1.17516e-05
1.16723e-05
1.16427e-05
1.19522e-05
1.14338e-05
1.10527e-05
1.15901e-05
1.28462e-05
1.19396e-05
1.18135e-05
1.19423e-05
1.19452e-05
1.27791e-05
1.07159e-05
1.16362e-05
1.16464e-05
1.16652e-05
1.19798e-05
1.1891e-05
1.19221e-05
1.19339e-05
1.19601e-05
1.13645e-05
1.12268e-05
1.17788e-05
1.19526e-05
1.16168e-05
1.29331e-05
1.19854e-05
1.18766e-05
1.18904e-05
1.19248e-05
1.19602e-05
1.19723e-05
1.08673e-05
1.27743e-05
1.11758e-05
1.18473e-05
1.20396e-05
1.17271e-05
1.17077e-05
1.201e-05
1.18493e-05
1.18981e-05
1.18607e-05
1.1944e-05
1.19686e-05
1.20031e-05
1.07196e-05
1.1392e-05
1.14531e-05
1.18497e-05
1.20068e-05
1.20342e-05
1.17132e-05
1.29102e-05
1.2023e-05
1.18156e-05
1.18937e-05
1.18503e-05
1.19419e-05
1.199e-05
1.12186e-05
1.06985e-05
1.26577e-05
1.17718e-05
1.18109e-05
1.20803e-05
1.20603e-05
1.20379e-05
1.18541e-05
1.20506e-05
1.18092e-05
1.18682e-05
1.19137e-05
1.18294e-05
1.19628e-05
1.20083e-05
1.13688e-05
1.05214e-05
1.1054e-05
1.18319e-05
1.17721e-05
1.20761e-05
1.20737e-05
1.20819e-05
1.20479e-05
1.20252e-05
1.29537e-05
1.20409e-05
1.17947e-05
1.18589e-05
1.19084e-05
1.1821e-05
1.19529e-05
1.19812e-05
1.20056e-05
1.17212e-05
1.10839e-05
1.02404e-05
1.25022e-05
1.17816e-05
1.17582e-05
1.21126e-05
1.21008e-05
1.21225e-05
1.2119e-05
1.20782e-05
1.18344e-05
1.20643e-05
1.1778e-05
1.18015e-05
1.18353e-05
1.18756e-05
1.18973e-05
1.19345e-05
1.19697e-05
1.20343e-05
1.17934e-05
1.11444e-05
1.05886e-05
1.16343e-05
1.17514e-05
1.17425e-05
1.21418e-05
1.20969e-05
1.21559e-05
1.20622e-05
1.21072e-05
1.23881e-05
1.20644e-05
1.17649e-05
1.17842e-05
1.18346e-05
1.18555e-05
1.19124e-05
1.19363e-05
1.199e-05
1.20401e-05
1.1767e-05
1.15729e-05
1.05278e-05
1.05637e-05
1.17214e-05
1.17221e-05
1.17472e-05
1.21769e-05
1.21236e-05
1.22455e-05
1.21351e-05
1.21663e-05
1.2388e-05
1.20959e-05
1.17664e-05
1.17905e-05
1.18149e-05
1.18641e-05
1.18936e-05
1.19564e-05
1.20159e-05
1.19794e-05
1.20708e-05
1.17359e-05
1.16516e-05
1.11113e-05
1.03472e-05
1.296e-05
1.17025e-05
1.1707e-05
1.17366e-05
1.2213e-05
1.21519e-05
1.21243e-05
1.226e-05
1.21798e-05
1.21582e-05
1.30051e-05
1.21008e-05
1.17454e-05
1.17767e-05
1.18129e-05
1.18564e-05
1.19027e-05
1.1947e-05
1.20155e-05
1.19925e-05
1.20685e-05
1.17189e-05
1.17154e-05
1.11951e-05
9.89961e-06
1.23125e-05
1.16819e-05
1.16881e-05
1.17158e-05
1.22185e-05
1.21701e-05
1.2153e-05
1.2305e-05
1.21645e-05
1.22123e-05
1.23092e-05
1.21298e-05
1.17408e-05
1.17872e-05
1.17581e-05
1.18328e-05
1.18754e-05
1.18974e-05
1.19291e-05
1.19707e-05
1.204e-05
1.20996e-05
1.16857e-05
1.17253e-05
1.15377e-05
1.12359e-05
1.07165e-05
1.25287e-05
1.16645e-05
1.16714e-05
1.17069e-05
1.22028e-05
1.22582e-05
1.21732e-05
1.22775e-05
1.23311e-05
1.2203e-05
1.3086e-05
1.19901e-05
1.21568e-05
1.21272e-05
1.17217e-05
1.1779e-05
1.17415e-05
1.18304e-05
1.18694e-05
1.19148e-05
1.19367e-05
1.19822e-05
1.20452e-05
1.21021e-05
1.16597e-05
1.16911e-05
1.15475e-05
1.12113e-05
1.05345e-05
1.17346e-05
1.16424e-05
1.167e-05
1.16521e-05
1.16874e-05
1.22282e-05
1.2285e-05
1.22097e-05
1.23181e-05
1.23725e-05
1.24322e-05
1.22839e-05
1.21206e-05
1.2176e-05
1.21535e-05
1.17235e-05
1.17614e-05
1.17974e-05
1.17431e-05
1.18491e-05
1.18141e-05
1.1888e-05
1.19133e-05
1.19587e-05
1.20096e-05
1.20773e-05
1.20325e-05
1.21336e-05
1.16356e-05
1.16758e-05
1.16638e-05
1.08842e-05
1.09596e-05
1.34759e-05
1.16531e-05
1.16395e-05
1.16874e-05
1.22674e-05
1.2322e-05
1.22281e-05
1.23526e-05
1.24142e-05
1.23866e-05
1.25443e-05
1.2206e-05
1.21683e-05
1.17069e-05
1.17663e-05
1.17838e-05
1.17248e-05
1.18309e-05
1.18137e-05
1.18843e-05
1.19342e-05
1.19588e-05
1.20065e-05
1.20766e-05
1.20506e-05
1.21287e-05
1.21621e-05
1.1619e-05
1.16422e-05
1.1601e-05
1.08996e-05
1.08763e-05
1.21932e-05
1.16403e-05
1.16436e-05
1.1623e-05
1.1672e-05
1.22931e-05
1.23581e-05
1.22646e-05
1.23864e-05
1.24384e-05
1.24681e-05
1.24859e-05
1.2882e-05
1.22205e-05
1.22028e-05
1.17062e-05
1.17495e-05
1.17912e-05
1.17186e-05
1.18399e-05
1.19075e-05
1.18655e-05
1.19299e-05
1.19815e-05
1.20274e-05
1.21002e-05
1.20492e-05
1.21549e-05
1.21893e-05
1.16064e-05
1.16125e-05
1.16154e-05
1.17414e-05
1.08029e-05
1.14417e-05
1.15111e-05
1.16265e-05
1.16276e-05
1.16537e-05
1.16159e-05
1.16755e-05
1.23316e-05
1.23629e-05
1.23955e-05
1.22769e-05
1.24223e-05
1.24783e-05
1.2504e-05
1.25292e-05
1.24579e-05
1.22566e-05
1.22197e-05
1.16932e-05
1.17484e-05
1.17307e-05
1.1784e-05
1.16988e-05
1.1823e-05
1.19089e-05
1.18721e-05
1.19507e-05
1.19723e-05
1.20311e-05
1.20971e-05
1.20726e-05
1.21523e-05
1.21876e-05
1.15885e-05
1.15967e-05
1.16447e-05
1.15835e-05
1.06401e-05
1.15078e-05
1.36407e-05
1.08831e-05
1.1615e-05
1.16382e-05
1.16013e-05
1.16628e-05
1.23388e-05
1.24045e-05
1.24352e-05
1.23181e-05
1.24562e-05
1.2492e-05
1.25512e-05
1.25801e-05
1.2522e-05
1.29498e-05
1.22781e-05
1.22511e-05
1.17264e-05
1.17649e-05
1.1718e-05
1.1802e-05
1.16886e-05
1.18317e-05
1.19318e-05
1.18934e-05
1.18542e-05
1.19513e-05
1.19901e-05
1.20145e-05
1.20584e-05
1.21216e-05
1.21792e-05
1.22194e-05
1.15831e-05
1.15991e-05
1.15655e-05
1.11202e-05
1.15747e-05
1.35414e-05
1.07614e-05
1.15992e-05
1.16208e-05
1.16431e-05
1.15855e-05
1.1669e-05
1.23828e-05
1.24434e-05
1.24711e-05
1.23432e-05
1.25328e-05
1.25885e-05
1.2618e-05
1.25932e-05
1.25895e-05
1.23159e-05
1.2263e-05
1.17262e-05
1.17681e-05
1.16986e-05
1.17871e-05
1.18206e-05
1.19277e-05
1.1902e-05
1.1854e-05
1.1972e-05
1.20271e-05
1.20731e-05
1.21048e-05
1.22102e-05
1.21781e-05
1.22519e-05
1.15677e-05
1.15905e-05
1.15562e-05
1.11635e-05
1.15858e-05
1.28283e-05
1.05087e-05
1.15857e-05
1.16047e-05
1.16308e-05
1.15688e-05
1.16574e-05
1.24104e-05
1.24827e-05
1.25156e-05
1.23848e-05
1.25684e-05
1.26316e-05
1.26672e-05
1.26344e-05
1.30059e-05
1.233e-05
1.23033e-05
1.17024e-05
1.17467e-05
1.16891e-05
1.17973e-05
1.18314e-05
1.19451e-05
1.18959e-05
1.18725e-05
1.19824e-05
1.20109e-05
1.20562e-05
1.21225e-05
1.22362e-05
1.22133e-05
1.2156e-05
1.22794e-05
1.1555e-05
1.15562e-05
1.15361e-05
1.14464e-05
1.15665e-05
1.25423e-05
1.0702e-05
1.15686e-05
1.15892e-05
1.16011e-05
1.16149e-05
1.16395e-05
1.15551e-05
1.16678e-05
1.24541e-05
1.25131e-05
1.25021e-05
1.25582e-05
1.24081e-05
1.26228e-05
1.26492e-05
1.27091e-05
1.2744e-05
1.27532e-05
1.23745e-05
1.23161e-05
1.16927e-05
1.17465e-05
1.17864e-05
1.18221e-05
1.19415e-05
1.19682e-05
1.19169e-05
1.18627e-05
1.20241e-05
1.20705e-05
1.21009e-05
1.22719e-05
1.22296e-05
1.21689e-05
1.15404e-05
1.15235e-05
1.15141e-05
1.15505e-05
1.195e-05
1.04268e-05
1.15575e-05
1.15774e-05
1.15865e-05
1.16048e-05
1.16247e-05
1.15413e-05
1.16515e-05
1.24746e-05
1.24831e-05
1.25573e-05
1.25541e-05
1.25987e-05
1.24547e-05
1.26593e-05
1.27049e-05
1.27271e-05
1.27873e-05
1.30838e-05
1.28142e-05
1.23906e-05
1.23528e-05
1.16762e-05
1.17085e-05
1.17273e-05
1.17684e-05
1.18007e-05
1.1838e-05
1.19614e-05
1.19818e-05
1.19076e-05
1.18797e-05
1.20067e-05
1.20529e-05
1.21124e-05
1.23059e-05
1.22003e-05
1.22623e-05
1.21434e-05
1.15285e-05
1.15087e-05
1.15482e-05
1.13023e-05
1.1513e-05
9.84981e-06
1.41754e-05
9.90141e-06
1.15453e-05
1.15636e-05
1.15755e-05
1.15884e-05
1.16101e-05
1.16197e-05
1.15361e-05
1.15294e-05
1.16319e-05
1.1658e-05
1.25187e-05
1.25256e-05
1.25949e-05
1.25936e-05
1.26416e-05
1.24866e-05
1.27178e-05
1.27393e-05
1.2784e-05
1.28263e-05
1.29208e-05
1.28883e-05
1.24364e-05
1.23612e-05
1.16767e-05
1.16913e-05
1.17303e-05
1.17691e-05
1.17881e-05
1.1829e-05
1.19737e-05
1.19285e-05
1.18744e-05
1.20204e-05
1.20666e-05
1.20966e-05
1.22924e-05
1.23444e-05
1.22022e-05
1.22596e-05
1.21494e-05
1.15147e-05
1.14924e-05
1.15385e-05
1.14818e-05
1.14961e-05
9.82639e-06
1.30194e-05
1.08604e-05
1.15347e-05
1.15573e-05
1.15636e-05
1.15799e-05
1.15995e-05
1.16031e-05
1.15256e-05
1.15184e-05
1.16228e-05
1.16488e-05
1.25543e-05
1.2573e-05
1.26358e-05
1.26462e-05
1.26776e-05
1.24777e-05
1.25383e-05
1.27594e-05
1.27963e-05
1.28844e-05
1.31698e-05
1.29467e-05
1.24384e-05
1.2405e-05
1.16587e-05
1.16965e-05
1.17506e-05
1.17153e-05
1.18024e-05
1.18473e-05
1.20055e-05
1.19577e-05
1.19216e-05
1.18962e-05
1.20511e-05
1.2113e-05
1.23211e-05
1.23691e-05
1.21816e-05
1.22357e-05
1.22946e-05
1.21423e-05
1.1505e-05
1.14836e-05
1.15397e-05
1.15087e-05
1.14766e-05
9.92898e-06
1.46718e-05
1.0824e-05
1.15366e-05
1.15254e-05
1.15465e-05
1.15532e-05
1.15683e-05
1.15874e-05
1.15963e-05
1.15165e-05
1.15077e-05
1.16063e-05
1.16322e-05
1.25993e-05
1.26106e-05
1.26965e-05
1.27263e-05
1.25254e-05
1.25714e-05
1.28164e-05
1.28526e-05
1.29421e-05
1.311e-05
1.30313e-05
1.2481e-05
1.2407e-05
1.16464e-05
1.16946e-05
1.175e-05
1.17108e-05
1.17908e-05
1.18447e-05
1.20247e-05
1.19735e-05
1.19417e-05
1.189e-05
1.20685e-05
1.21007e-05
1.23574e-05
1.21961e-05
1.22479e-05
1.23107e-05
1.21673e-05
1.14926e-05
1.14719e-05
1.15472e-05
1.14872e-05
1.14649e-05
9.37132e-06
1.34493e-05
1.12107e-05
1.15247e-05
1.15159e-05
1.15418e-05
1.1557e-05
1.15653e-05
1.15754e-05
1.15795e-05
1.15073e-05
1.14989e-05
1.15965e-05
1.16176e-05
1.26361e-05
1.26633e-05
1.27041e-05
1.27454e-05
1.27605e-05
1.25723e-05
1.25247e-05
1.26194e-05
1.28467e-05
1.28529e-05
1.29204e-05
1.3016e-05
1.32725e-05
1.31171e-05
1.30991e-05
1.24811e-05
1.24406e-05
1.1658e-05
1.16233e-05
1.16823e-05
1.17697e-05
1.17279e-05
1.18077e-05
1.18689e-05
1.18285e-05
1.20557e-05
1.20045e-05
1.19669e-05
1.1935e-05
1.19098e-05
1.2122e-05
1.23892e-05
1.22262e-05
1.22831e-05
1.23518e-05
1.21575e-05
1.14854e-05
1.14631e-05
1.15222e-05
1.15041e-05
1.14652e-05
1.14547e-05
1.1454e-05
1.08542e-05
1.52641e-05
1.15169e-05
1.15161e-05
1.15071e-05
1.15337e-05
1.15469e-05
1.15516e-05
1.15721e-05
1.1499e-05
1.14903e-05
1.15821e-05
1.16018e-05
1.26839e-05
1.2762e-05
1.27955e-05
1.28263e-05
1.26204e-05
1.25727e-05
1.26572e-05
1.29106e-05
1.29198e-05
1.29862e-05
1.30794e-05
1.3287e-05
1.32112e-05
1.31656e-05
1.25187e-05
1.24318e-05
1.16492e-05
1.1614e-05
1.16915e-05
1.17711e-05
1.17298e-05
1.17901e-05
1.18571e-05
1.18362e-05
1.20766e-05
1.20136e-05
1.19871e-05
1.19542e-05
1.18953e-05
1.21088e-05
1.23893e-05
1.22453e-05
1.22932e-05
1.23516e-05
1.21859e-05
1.14778e-05
1.1469e-05
1.14543e-05
1.15417e-05
1.14969e-05
1.14548e-05
1.14462e-05
1.18713e-05
1.11402e-05
1.48689e-05
1.1506e-05
1.15227e-05
1.15059e-05
1.14996e-05
1.15374e-05
1.15428e-05
1.15474e-05
1.15597e-05
1.14902e-05
1.14836e-05
1.15733e-05
1.15877e-05
1.27355e-05
1.27984e-05
1.28544e-05
1.28756e-05
1.26522e-05
1.25584e-05
1.26177e-05
1.27141e-05
1.29634e-05
1.29802e-05
1.30606e-05
1.31572e-05
1.32428e-05
1.25119e-05
1.24682e-05
1.16633e-05
1.16278e-05
1.15979e-05
1.16825e-05
1.17131e-05
1.17523e-05
1.17961e-05
1.18694e-05
1.18203e-05
1.20796e-05
1.20408e-05
1.198e-05
1.1954e-05
1.19059e-05
1.21311e-05
1.24286e-05
1.22823e-05
1.22244e-05
1.23287e-05
1.23891e-05
1.21634e-05
1.14769e-05
1.14623e-05
1.14481e-05
1.15218e-05
1.14645e-05
1.14451e-05
1.14444e-05
1.14419e-05
9.87271e-06
1.1173e-05
1.47173e-05
1.14998e-05
1.15033e-05
1.15183e-05
1.14992e-05
1.14906e-05
1.15315e-05
1.15337e-05
1.15393e-05
1.15541e-05
1.14831e-05
1.15606e-05
1.1576e-05
1.15855e-05
1.27916e-05
1.28683e-05
1.29068e-05
1.29451e-05
1.27074e-05
1.25908e-05
1.26389e-05
1.27615e-05
1.30365e-05
1.30482e-05
1.31281e-05
1.32352e-05
1.3308e-05
1.25518e-05
1.24594e-05
1.16531e-05
1.16214e-05
1.15856e-05
1.16933e-05
1.17125e-05
1.17511e-05
1.17879e-05
1.18639e-05
1.18202e-05
1.20681e-05
1.21121e-05
1.20246e-05
1.19989e-05
1.19295e-05
1.19781e-05
1.18814e-05
1.24489e-05
1.23091e-05
1.22483e-05
1.23431e-05
1.24251e-05
1.23732e-05
1.21803e-05
1.14704e-05
1.14538e-05
1.1463e-05
1.15092e-05
1.14508e-05
1.14381e-05
1.14352e-05
1.14376e-05
1.14389e-05
1.12649e-05
1.62262e-05
1.14918e-05
1.15096e-05
1.14946e-05
1.15235e-05
1.14912e-05
1.14863e-05
1.15257e-05
1.15296e-05
1.15436e-05
1.14759e-05
1.15562e-05
1.15643e-05
1.15734e-05
1.28471e-05
1.2908e-05
1.29806e-05
1.30004e-05
1.27543e-05
1.2691e-05
1.26356e-05
1.28243e-05
1.31037e-05
1.31229e-05
1.32127e-05
1.33084e-05
1.25758e-05
1.25026e-05
1.16358e-05
1.16641e-05
1.16069e-05
1.15735e-05
1.15908e-05
1.16851e-05
1.17291e-05
1.17692e-05
1.18024e-05
1.18398e-05
1.20908e-05
1.2119e-05
1.20392e-05
1.19265e-05
1.19889e-05
1.18793e-05
1.24898e-05
1.22947e-05
1.22426e-05
1.24474e-05
1.24008e-05
1.22146e-05
1.21486e-05
1.14693e-05
1.14496e-05
1.14573e-05
1.15177e-05
1.14277e-05
1.14313e-05
1.14279e-05
1.14303e-05
1.14431e-05
1.11895e-05
1.18181e-05
1.14865e-05
1.60125e-05
1.14895e-05
1.14846e-05
1.15047e-05
1.1491e-05
1.15166e-05
1.14841e-05
1.14791e-05
1.15175e-05
1.1523e-05
1.15228e-05
1.15351e-05
1.14744e-05
1.15456e-05
1.1563e-05
1.28657e-05
1.29789e-05
1.30425e-05
1.308e-05
1.28058e-05
1.27324e-05
1.26816e-05
1.28628e-05
1.31984e-05
1.32029e-05
1.32928e-05
1.26377e-05
1.25417e-05
1.16223e-05
1.16525e-05
1.16074e-05
1.15634e-05
1.15779e-05
1.1698e-05
1.17206e-05
1.17673e-05
1.17869e-05
1.18252e-05
1.20722e-05
1.20202e-05
1.19016e-05
1.19484e-05
1.19719e-05
1.18588e-05
1.25183e-05
1.2327e-05
1.22793e-05
1.24444e-05
1.24962e-05
1.23731e-05
1.22231e-05
1.21551e-05
1.14653e-05
1.14484e-05
1.14565e-05
1.14522e-05
1.14787e-05
1.14176e-05
1.14227e-05
1.14259e-05
1.14288e-05
1.14408e-05
1.09489e-05
1.19346e-05
1.14405e-05
1.42799e-05
1.69267e-05
1.1482e-05
1.14794e-05
1.14959e-05
1.15086e-05
1.14834e-05
1.14758e-05
1.14733e-05
1.1512e-05
1.15141e-05
1.15142e-05
1.15255e-05
1.15362e-05
1.14679e-05
1.15422e-05
1.1552e-05
1.29431e-05
1.30425e-05
1.29995e-05
1.3122e-05
1.31456e-05
1.27934e-05
1.27327e-05
1.26846e-05
1.29229e-05
1.32835e-05
1.26539e-05
1.25599e-05
1.163e-05
1.16632e-05
1.15897e-05
1.15567e-05
1.15527e-05
1.1576e-05
1.15643e-05
1.16856e-05
1.17347e-05
1.17554e-05
1.17857e-05
1.18391e-05
1.18031e-05
1.20854e-05
1.20325e-05
1.18979e-05
1.19417e-05
1.19848e-05
1.18579e-05
1.23146e-05
1.22567e-05
1.24828e-05
1.25265e-05
1.23951e-05
1.21942e-05
1.21377e-05
1.14597e-05
1.14428e-05
1.14516e-05
1.14499e-05
1.14141e-05
1.14814e-05
1.14098e-05
1.14139e-05
1.14214e-05
1.14357e-05
1.1423e-05
1.23061e-05
1.16282e-05
1.62231e-05
1.77581e-05
1.14789e-05
1.14742e-05
1.14916e-05
1.15028e-05
1.14779e-05
1.14716e-05
1.14673e-05
1.1505e-05
1.15097e-05
1.15084e-05
1.15183e-05
1.15253e-05
1.14648e-05
1.15328e-05
1.29681e-05
1.31223e-05
1.30826e-05
1.3185e-05
1.32331e-05
1.28503e-05
1.27834e-05
1.27429e-05
1.29537e-05
1.26063e-05
1.27118e-05
1.16167e-05
1.16491e-05
1.15836e-05
1.15447e-05
1.15438e-05
1.15614e-05
1.1556e-05
1.1696e-05
1.17184e-05
1.17635e-05
1.18226e-05
1.18028e-05
1.20602e-05
1.21114e-05
1.20099e-05
1.1877e-05
1.19201e-05
1.19628e-05
1.18322e-05
1.23443e-05
1.22758e-05
1.2475e-05
1.25703e-05
1.24389e-05
1.23821e-05
1.21893e-05
1.21556e-05
1.14563e-05
1.14412e-05
1.14486e-05
1.14456e-05
1.13974e-05
1.14597e-05
1.14057e-05
1.14131e-05
1.14164e-05
1.1435e-05
1.14221e-05
1.21403e-05
1.16584e-05
1.50982e-05
1.70414e-05
1.14729e-05
1.1468e-05
1.14966e-05
1.14863e-05
1.14713e-05
1.14802e-05
1.14666e-05
1.14618e-05
1.14995e-05
1.15015e-05
1.15e-05
1.15106e-05
1.15181e-05
1.1523e-05
1.14589e-05
1.15343e-05
1.30419e-05
1.31842e-05
1.31468e-05
1.31081e-05
1.32531e-05
1.32911e-05
1.29219e-05
1.28385e-05
1.27787e-05
1.30351e-05
1.26212e-05
1.27199e-05
1.27604e-05
1.16266e-05
1.15986e-05
1.16571e-05
1.15686e-05
1.15379e-05
1.15499e-05
1.15446e-05
1.16793e-05
1.17268e-05
1.17511e-05
1.17827e-05
1.20645e-05
1.20948e-05
1.20212e-05
1.18838e-05
1.19224e-05
1.1968e-05
1.18321e-05
1.23194e-05
1.22539e-05
1.25213e-05
1.26121e-05
1.25661e-05
1.24488e-05
1.24091e-05
1.22163e-05
1.21418e-05
1.14507e-05
1.1438e-05
1.14437e-05
1.14435e-05
1.1442e-05
1.13907e-05
1.14017e-05
1.14547e-05
1.1391e-05
1.14076e-05
1.14139e-05
1.14332e-05
1.14182e-05
1.14289e-05
1.28015e-05
1.154e-05
1.44928e-05
1.82392e-05
1.1469e-05
1.14677e-05
1.14644e-05
1.14919e-05
1.14867e-05
1.14676e-05
1.14753e-05
1.14619e-05
1.14572e-05
1.1493e-05
1.14961e-05
1.14959e-05
1.1506e-05
1.15094e-05
1.15153e-05
1.15248e-05
1.32513e-05
1.32332e-05
1.32006e-05
1.33015e-05
1.29756e-05
1.28931e-05
1.28555e-05
1.31043e-05
1.26823e-05
1.27734e-05
1.28177e-05
1.16148e-05
1.15833e-05
1.16439e-05
1.15685e-05
1.15541e-05
1.15251e-05
1.15361e-05
1.15336e-05
1.16852e-05
1.17229e-05
1.17613e-05
1.17856e-05
1.20537e-05
1.211e-05
1.2018e-05
1.18634e-05
1.19062e-05
1.19456e-05
1.19919e-05
1.1817e-05
1.23398e-05
1.22769e-05
1.2524e-05
1.26528e-05
1.2611e-05
1.24843e-05
1.23857e-05
1.2199e-05
1.2164e-05
1.14475e-05
1.14372e-05
1.14397e-05
1.14411e-05
1.14383e-05
1.1395e-05
1.13993e-05
1.1405e-05
1.13819e-05
1.14065e-05
1.14107e-05
1.14348e-05
1.14246e-05
1.14303e-05
1.23681e-05
1.14955e-05
1.79642e-05
1.29603e-05
1.75323e-05
1.14629e-05
1.14623e-05
1.14592e-05
1.1482e-05
1.1463e-05
1.147e-05
1.14765e-05
1.14574e-05
1.14534e-05
1.1488e-05
1.14895e-05
1.15001e-05
1.14903e-05
1.15029e-05
1.15064e-05
1.15168e-05
1.32904e-05
1.32852e-05
1.31949e-05
1.30501e-05
1.29593e-05
1.29027e-05
1.31065e-05
1.26942e-05
1.27874e-05
1.28782e-05
1.15972e-05
1.16243e-05
1.15838e-05
1.16519e-05
1.15561e-05
1.15399e-05
1.15228e-05
1.15278e-05
1.15252e-05
1.16704e-05
1.1706e-05
1.17421e-05
1.17763e-05
1.20752e-05
1.21045e-05
1.20427e-05
1.1878e-05
1.19141e-05
1.19374e-05
1.19831e-05
1.1845e-05
1.23189e-05
1.2261e-05
1.25657e-05
1.2648e-05
1.2634e-05
1.24836e-05
1.24102e-05
1.22228e-05
1.21586e-05
1.14498e-05
1.14441e-05
1.14384e-05
1.14358e-05
1.1439e-05
1.14354e-05
1.13943e-05
1.13992e-05
1.13742e-05
1.13955e-05
1.13907e-05
1.14048e-05
1.14133e-05
1.14322e-05
1.1425e-05
1.17726e-05
1.14207e-05
1.92038e-05
1.18803e-05
1.9411e-05
1.14598e-05
1.14582e-05
1.1456e-05
1.14824e-05
1.14601e-05
1.14664e-05
1.14717e-05
1.14538e-05
1.14827e-05
1.14944e-05
1.14834e-05
1.14901e-05
1.14933e-05
1.15023e-05
1.15076e-05
1.32883e-05
1.30821e-05
1.30123e-05
1.29791e-05
1.32013e-05
1.27376e-05
1.28468e-05
1.29331e-05
1.15829e-05
1.16124e-05
1.15655e-05
1.16439e-05
1.15543e-05
1.15408e-05
1.15272e-05
1.15134e-05
1.15166e-05
1.15152e-05
1.16752e-05
1.17099e-05
1.17467e-05
1.18077e-05
1.20706e-05
1.21285e-05
1.20275e-05
1.18544e-05
1.18695e-05
1.18829e-05
1.1951e-05
1.19937e-05
1.18138e-05
1.23455e-05
1.22874e-05
1.25255e-05
1.26057e-05
1.26978e-05
1.26821e-05
1.24534e-05
1.23895e-05
1.22172e-05
1.21844e-05
1.14468e-05
1.14441e-05
1.14357e-05
1.14356e-05
1.14395e-05
1.14364e-05
1.14323e-05
1.13959e-05
1.1402e-05
1.13712e-05
1.13911e-05
1.13733e-05
1.13913e-05
1.14085e-05
1.14115e-05
1.14199e-05
1.14329e-05
1.14306e-05
1.17463e-05
1.13956e-05
1.59839e-05
1.14561e-05
1.71507e-05
1.14562e-05
1.1453e-05
1.14513e-05
1.14779e-05
1.14565e-05
1.1462e-05
1.14672e-05
1.14725e-05
1.14505e-05
1.14777e-05
1.14892e-05
1.14787e-05
1.14842e-05
1.14902e-05
1.14959e-05
1.15049e-05
1.31487e-05
1.30222e-05
1.30238e-05
1.32143e-05
1.28489e-05
1.29089e-05
1.30063e-05
1.15628e-05
1.15934e-05
1.16238e-05
1.1659e-05
1.15417e-05
1.15335e-05
1.15143e-05
1.15049e-05
1.15064e-05
1.15051e-05
1.16992e-05
1.17377e-05
1.17751e-05
1.20919e-05
1.21194e-05
1.20356e-05
1.17803e-05
1.16577e-05
1.18339e-05
1.19137e-05
1.19455e-05
1.17343e-05
1.23288e-05
1.22761e-05
1.25197e-05
1.26301e-05
1.27195e-05
1.26857e-05
1.24688e-05
1.24184e-05
1.22433e-05
1.2162e-05
1.14473e-05
1.14418e-05
1.14315e-05
1.14335e-05
1.14379e-05
1.14363e-05
1.14327e-05
1.13985e-05
1.14058e-05
1.13871e-05
1.13714e-05
1.13645e-05
1.13945e-05
1.14087e-05
1.14152e-05
1.14224e-05
1.14351e-05
1.14329e-05
1.14308e-05
1.17014e-05
1.14399e-05
1.13642e-05
1.43045e-05
1.1262e-05
1.95646e-05
1.14528e-05
1.14501e-05
1.14499e-05
1.1449e-05
1.14539e-05
1.14591e-05
1.14627e-05
1.14697e-05
1.14722e-05
1.14822e-05
1.14797e-05
1.1473e-05
1.14848e-05
1.14908e-05
1.14955e-05
1.31686e-05
1.31058e-05
1.30993e-05
1.32968e-05
1.28241e-05
1.29247e-05
1.29654e-05
1.30649e-05
1.15536e-05
1.16021e-05
1.1627e-05
1.16938e-05
1.15239e-05
1.15218e-05
1.15041e-05
1.15114e-05
1.14957e-05
1.14957e-05
1.14949e-05
1.17293e-05
1.17695e-05
1.16791e-05
1.20669e-05
1.21342e-05
1.19947e-05
1.16223e-05
1.16244e-05
1.14336e-05
1.18091e-05
1.14936e-05
1.18724e-05
1.19146e-05
1.15504e-05
1.23581e-05
1.22922e-05
1.25582e-05
1.26078e-05
1.27689e-05
1.27297e-05
1.24667e-05
1.24045e-05
1.21958e-05
1.21651e-05
1.14449e-05
1.14424e-05
1.14292e-05
1.14292e-05
1.14373e-05
1.14355e-05
1.14324e-05
1.13982e-05
1.14046e-05
1.13906e-05
1.13627e-05
1.1377e-05
1.13985e-05
1.1411e-05
1.14204e-05
1.14296e-05
1.14314e-05
1.14326e-05
1.14314e-05
1.16967e-05
1.13764e-05
1.13547e-05
1.77726e-05
1.1612e-05
1.71867e-05
1.14494e-05
1.14468e-05
1.14459e-05
1.14455e-05
1.14551e-05
1.14498e-05
1.14593e-05
1.14623e-05
1.14655e-05
1.14693e-05
1.14768e-05
1.1475e-05
1.14715e-05
1.14785e-05
1.14853e-05
1.14887e-05
1.32461e-05
1.31301e-05
1.31486e-05
1.28745e-05
1.29628e-05
1.30339e-05
1.31354e-05
1.15398e-05
1.15803e-05
1.16653e-05
1.16628e-05
1.17036e-05
1.15163e-05
1.15106e-05
1.15103e-05
1.14934e-05
1.14997e-05
1.14881e-05
1.14875e-05
1.14864e-05
1.17399e-05
1.15253e-05
1.20599e-05
1.20795e-05
1.19858e-05
1.10495e-05
1.11131e-05
1.11868e-05
1.16123e-05
1.1254e-05
1.16557e-05
1.17149e-05
1.08645e-05
1.23233e-05
1.21984e-05
1.25631e-05
1.26516e-05
1.27596e-05
1.2513e-05
1.24354e-05
1.21705e-05
1.20735e-05
1.14436e-05
1.14409e-05
1.14307e-05
1.14275e-05
1.14355e-05
1.14394e-05
1.14359e-05
1.14347e-05
1.14039e-05
1.14074e-05
1.13911e-05
1.13963e-05
1.13661e-05
1.13823e-05
1.14045e-05
1.14167e-05
1.14288e-05
1.14335e-05
1.14308e-05
1.14318e-05
1.14329e-05
1.16152e-05
1.13486e-05
1.13739e-05
1.13574e-05
1.51263e-05
1.16173e-05
1.82578e-05
1.14468e-05
1.14446e-05
1.14439e-05
1.1453e-05
1.14479e-05
1.1456e-05
1.14577e-05
1.14615e-05
1.1463e-05
1.14689e-05
1.14688e-05
1.14672e-05
1.14743e-05
1.14812e-05
1.14826e-05
1.3289e-05
1.32159e-05
1.32252e-05
1.29356e-05
1.28263e-05
1.30289e-05
1.30911e-05
1.31913e-05
1.1576e-05
1.16092e-05
1.15919e-05
1.15756e-05
1.16215e-05
1.15022e-05
1.14964e-05
1.14999e-05
1.14911e-05
1.14857e-05
1.1482e-05
1.14789e-05
1.14769e-05
1.16615e-05
1.08302e-05
1.20449e-05
1.19044e-05
1.08488e-05
1.08047e-05
1.15298e-05
1.16495e-05
1.1394e-05
1.19085e-05
1.16368e-05
1.17067e-05
1.07891e-05
1.23155e-05
1.21225e-05
1.26098e-05
1.27038e-05
1.27428e-05
1.2514e-05
1.24748e-05
1.23464e-05
1.20486e-05
1.20117e-05
1.14413e-05
1.14396e-05
1.14303e-05
1.14283e-05
1.14363e-05
1.14399e-05
1.14352e-05
1.14081e-05
1.14152e-05
1.13964e-05
1.14023e-05
1.13676e-05
1.13798e-05
1.1395e-05
1.14132e-05
1.1418e-05
1.14289e-05
1.14285e-05
1.14316e-05
1.14332e-05
1.14347e-05
1.1644e-05
1.13429e-05
1.13398e-05
1.13635e-05
1.67991e-05
1.11923e-05
2.03024e-05
1.14446e-05
1.14424e-05
1.14411e-05
1.14504e-05
1.14536e-05
1.14457e-05
1.14552e-05
1.14569e-05
1.14621e-05
1.1465e-05
1.14636e-05
1.14635e-05
1.14687e-05
1.14764e-05
1.14764e-05
1.32936e-05
1.29778e-05
1.28483e-05
1.30817e-05
1.30422e-05
1.31715e-05
1.32572e-05
1.15502e-05
1.15927e-05
1.1614e-05
1.14382e-05
1.13989e-05
1.13049e-05
1.14669e-05
1.15346e-05
1.14884e-05
1.1485e-05
1.14873e-05
1.148e-05
1.14762e-05
1.14745e-05
1.14769e-05
1.14726e-05
1.14744e-05
1.14719e-05
1.0835e-05
1.19059e-05
1.20081e-05
1.10133e-05
1.26345e-05
1.1983e-05
1.1431e-05
1.26345e-05
1.16415e-05
1.1663e-05
1.13055e-05
1.21677e-05
1.19911e-05
1.26278e-05
1.27305e-05
1.27994e-05
1.25606e-05
1.24711e-05
1.23048e-05
1.19164e-05
1.18836e-05
1.14401e-05
1.14399e-05
1.14383e-05
1.14339e-05
1.14369e-05
1.14398e-05
1.14398e-05
1.1436e-05
1.14369e-05
1.14189e-05
1.1423e-05
1.13998e-05
1.14136e-05
1.13824e-05
1.13888e-05
1.14009e-05
1.14215e-05
1.14179e-05
1.14279e-05
1.14315e-05
1.14319e-05
1.14315e-05
1.14371e-05
1.1435e-05
1.14336e-05
1.14283e-05
1.1621e-05
1.13531e-05
1.13345e-05
1.1303e-05
1.13798e-05
1.23813e-05
1.11628e-05
1.77869e-05
1.65789e-05
1.14432e-05
1.14423e-05
1.14403e-05
1.14498e-05
1.14513e-05
1.14428e-05
1.14465e-05
1.14512e-05
1.14544e-05
1.14573e-05
1.14591e-05
1.14582e-05
1.14595e-05
1.1467e-05
1.1471e-05
1.14705e-05
1.29671e-05
1.29134e-05
1.31532e-05
1.3098e-05
1.32347e-05
1.3299e-05
1.1516e-05
1.15398e-05
1.14647e-05
1.09323e-05
1.03659e-05
1.03949e-05
1.07655e-05
1.15081e-05
1.14684e-05
1.14698e-05
1.14777e-05
1.1473e-05
1.14719e-05
1.14652e-05
1.14666e-05
1.14662e-05
1.18159e-05
1.18279e-05
1.27252e-05
1.26447e-05
1.25676e-05
1.26419e-05
1.26456e-05
1.25694e-05
1.21401e-05
1.21151e-05
1.2686e-05
1.26058e-05
1.2783e-05
1.28252e-05
1.2507e-05
1.23825e-05
1.22549e-05
1.18525e-05
1.14386e-05
1.14386e-05
1.14375e-05
1.14365e-05
1.14418e-05
1.14425e-05
1.14382e-05
1.14376e-05
1.14379e-05
1.1429e-05
1.1407e-05
1.14207e-05
1.13864e-05
1.13982e-05
1.14073e-05
1.14288e-05
1.14287e-05
1.14338e-05
1.14318e-05
1.14366e-05
1.14407e-05
1.14398e-05
1.14366e-05
1.13634e-05
1.17096e-05
1.13609e-05
1.13319e-05
1.13113e-05
1.13904e-05
1.15412e-05
1.65563e-05
1.94697e-05
1.14417e-05
1.14408e-05
1.14393e-05
1.14484e-05
1.145e-05
1.14425e-05
1.14449e-05
1.14483e-05
1.145e-05
1.14559e-05
1.1458e-05
1.14559e-05
1.14545e-05
1.14556e-05
1.14622e-05
1.14653e-05
1.30412e-05
1.2941e-05
1.32297e-05
1.3112e-05
1.32795e-05
1.14186e-05
1.13762e-05
1.11036e-05
1.00756e-05
1.07237e-05
1.04202e-05
1.06702e-05
1.15057e-05
1.14488e-05
1.14734e-05
1.1459e-05
1.14671e-05
1.14634e-05
1.1466e-05
1.14624e-05
1.14575e-05
1.14618e-05
1.14573e-05
1.14606e-05
1.08355e-05
1.17994e-05
1.23424e-05
1.28026e-05
1.2865e-05
1.26876e-05
1.26385e-05
1.28002e-05
1.28846e-05
1.2519e-05
1.2412e-05
1.24099e-05
1.19783e-05
1.14379e-05
1.14374e-05
1.14368e-05
1.14398e-05
1.14434e-05
1.14407e-05
1.14415e-05
1.14399e-05
1.14342e-05
1.14191e-05
1.14314e-05
1.1402e-05
1.14074e-05
1.14197e-05
1.14373e-05
1.14326e-05
1.14348e-05
1.14391e-05
1.14381e-05
1.14418e-05
1.14407e-05
1.14427e-05
1.14432e-05
1.14411e-05
1.13048e-05
1.14866e-05
1.13819e-05
1.13548e-05
1.13399e-05
1.13078e-05
1.13911e-05
1.14039e-05
1.13647e-05
1.93658e-05
1.26742e-05
1.60529e-05
1.14406e-05
1.14402e-05
1.14472e-05
1.14475e-05
1.14409e-05
1.14457e-05
1.14446e-05
1.1449e-05
1.14523e-05
1.14542e-05
1.14498e-05
1.14496e-05
1.14526e-05
1.14586e-05
1.14601e-05
1.30567e-05
1.30029e-05
1.3286e-05
1.32008e-05
1.05264e-05
1.08476e-05
1.01164e-05
1.12778e-05
1.17691e-05
1.15145e-05
1.14948e-05
1.13579e-05
1.14578e-05
1.14583e-05
1.1445e-05
1.14604e-05
1.14577e-05
1.14573e-05
1.14538e-05
1.14558e-05
1.14554e-05
1.2639e-05
1.26961e-05
1.3017e-05
1.27334e-05
1.26464e-05
1.28675e-05
1.2788e-05
1.2511e-05
1.25727e-05
1.25686e-05
1.14382e-05
1.1437e-05
1.1438e-05
1.14436e-05
1.14461e-05
1.14412e-05
1.14435e-05
1.14429e-05
1.14387e-05
1.14414e-05
1.14277e-05
1.14396e-05
1.14102e-05
1.14231e-05
1.14259e-05
1.1447e-05
1.14425e-05
1.14458e-05
1.1444e-05
1.14497e-05
1.14486e-05
1.14494e-05
1.14517e-05
1.13029e-05
1.14297e-05
1.13922e-05
1.1371e-05
1.13445e-05
1.13298e-05
1.14066e-05
1.14197e-05
1.13379e-05
1.95596e-05
1.19823e-05
1.83498e-05
1.14403e-05
1.14397e-05
1.14463e-05
1.14443e-05
1.14422e-05
1.14455e-05
1.14437e-05
1.14462e-05
1.14505e-05
1.14494e-05
1.14513e-05
1.14465e-05
1.14482e-05
1.14507e-05
1.14532e-05
1.1455e-05
1.31243e-05
1.30218e-05
1.32039e-05
1.06485e-05
1.02045e-05
1.07264e-05
1.00125e-05
1.15954e-05
1.16577e-05
1.14618e-05
1.14788e-05
1.05365e-05
1.14416e-05
1.14478e-05
1.144e-05
1.14514e-05
1.14491e-05
1.14519e-05
1.1449e-05
1.14509e-05
1.14494e-05
1.2693e-05
1.29143e-05
1.28449e-05
1.25622e-05
1.25564e-05
1.28779e-05
1.14396e-05
1.14384e-05
1.14395e-05
1.14398e-05
1.1448e-05
1.14443e-05
1.14492e-05
1.14404e-05
1.145e-05
1.14473e-05
1.14485e-05
1.14487e-05
1.14361e-05
1.14519e-05
1.14264e-05
1.14338e-05
1.14407e-05
1.14559e-05
1.14508e-05
1.14557e-05
1.14499e-05
1.14522e-05
1.14569e-05
1.14528e-05
1.14519e-05
1.14551e-05
1.12855e-05
1.13282e-05
1.13247e-05
1.14427e-05
1.14055e-05
1.13889e-05
1.13615e-05
1.13405e-05
1.14196e-05
1.14326e-05
1.13236e-05
1.5322e-05
1.92167e-05
1.13609e-05
1.57758e-05
1.14394e-05
1.14408e-05
1.14441e-05
1.14423e-05
1.14423e-05
1.14453e-05
1.14411e-05
1.14471e-05
1.14466e-05
1.14479e-05
1.14424e-05
1.14461e-05
1.14481e-05
1.14516e-05
1.30948e-05
1.29757e-05
1.32862e-05
1.16259e-05
1.11771e-05
1.09318e-05
1.04019e-05
1.27591e-05
1.13389e-05
1.14697e-05
1.07641e-05
1.14262e-05
1.14448e-05
1.1431e-05
1.14459e-05
1.14454e-05
1.14481e-05
1.14482e-05
1.14443e-05
1.14461e-05
1.14439e-05
1.27078e-05
1.29115e-05
1.28145e-05
1.27988e-05
1.26671e-05
1.26222e-05
1.14404e-05
1.14416e-05
1.14431e-05
1.14528e-05
1.14443e-05
1.14488e-05
1.14529e-05
1.14422e-05
1.14506e-05
1.14562e-05
1.14463e-05
1.14635e-05
1.1446e-05
1.14503e-05
1.1467e-05
1.1464e-05
1.14691e-05
1.14635e-05
1.14661e-05
1.14609e-05
1.14604e-05
1.14657e-05
1.13087e-05
1.13345e-05
1.1299e-05
1.13654e-05
1.14183e-05
1.1403e-05
1.13752e-05
1.13649e-05
1.14368e-05
1.14515e-05
1.13561e-05
1.13145e-05
1.4381e-05
2.00342e-05
1.11569e-05
1.71795e-05
1.14395e-05
1.14423e-05
1.14444e-05
1.14424e-05
1.14402e-05
1.14433e-05
1.14456e-05
1.14428e-05
1.14463e-05
1.14434e-05
1.14448e-05
1.144e-05
1.14412e-05
1.14462e-05
1.14423e-05
1.14466e-05
1.14465e-05
1.31456e-05
1.30082e-05
1.32328e-05
1.25824e-05
1.25704e-05
1.0652e-05
1.14254e-05
1.14468e-05
1.05886e-05
1.14134e-05
1.1436e-05
1.1429e-05
1.14208e-05
1.14381e-05
1.14386e-05
1.14443e-05
1.14421e-05
1.14383e-05
1.14419e-05
1.14376e-05
1.27613e-05
1.29637e-05
1.28701e-05
1.30136e-05
1.26514e-05
1.14416e-05
1.14434e-05
1.1443e-05
1.14467e-05
1.14443e-05
1.14607e-05
1.14521e-05
1.14588e-05