/*--------------------------------*- C++ -*----------------------------------*\
| =========                 |                                                 |
| \\      /  F ield         | OpenFOAM: The Open Source CFD Toolbox           |
|  \\    /   O peration     | Version:  v2012                                 |
|   \\  /    A nd           | Website:  www.openfoam.com                      |
|    \\/     M anipulation  |                                                 |
\*---------------------------------------------------------------------------*/
FoamFile
{
    version     2.0;
    format      ascii;
    class       volScalarField;
    location    "1.4";
    object      omega;
}
// * * * * * * * * * * * * * * * * * * * * * * * * * * * * * * * * * * * * * //

dimensions      [0 0 -1 0 0 0 0];


internalField   nonuniform List<scalar> 
13611
(
74.0612
54.649
26.3718
41.9642
44.5598
84.2949
40.1566
44.836
93.756
37.3337
51.0612
45.7519
42.9539
50.0103
43.2976
35.1931
45.8027
89.0017
50.6758
44.9684
49.6068
50.6324
86.7489
32.0295
41.771
46.85
49.9621
52.4824
47.0811
48.585
50.0564
51.5942
41.6627
35.9767
43.1785
52.5146
47.5138
93.703
52.8673
46.4147
47.8667
49.7299
51.2348
51.8184
32.7257
89.5702
34.7882
44.8898
55.3188
49.7715
51.998
54.1352
45.8898
48.5631
46.671
50.6828
51.8448
53.2863
30.333
41.662
37.2958
44.5218
55.3483
55.4275
50.5741
93.7962
54.3771
44.6873
48.3495
46.3221
50.6492
52.9026
34.2744
30.6917
86.6867
42.4462
44.0293
57.9147
56.871
57.5727
56.1384
55.7357
44.5012
47.169
49.2738
45.41
51.6893
53.9836
35.3926
28.1483
36.1603
43.1446
42.7717
58.339
57.014
58.091
58.8302
59.0825
96.7347
55.6013
43.8814
46.7271
49.0056
45.034
51.1673
52.6153
53.8572
40.6038
32.1012
26.0386
77.5798
42.4036
42.3293
60.2762
58.3869
59.6038
61.2109
61.6095
58.207
56.9622
43.168
44.1763
45.6611
47.4778
48.4964
50.2724
51.9922
55.3526
41.4898
31.9337
27.3863
43.4944
41.4703
41.6932
60.9151
58.6284
63.1998
62.3451
62.5344
74.584
56.9826
42.6232
43.4368
45.6405
46.5858
49.2251
50.3779
53.0068
55.6128
41.2211
37.2945
26.3015
29.7972
40.6729
40.8822
41.8829
62.7016
60.2045
66.3084
65.3183
65.2608
75.2532
58.7067
42.6865
43.7182
44.7866
47.0031
48.3665
51.3696
54.3618
52.5125
57.2852
40.3863
37.989
30.7767
25.6906
85.3385
39.9107
40.2671
41.4515
64.922
61.75
60.3206
68.0174
67.7592
65.9244
103.852
58.9299
41.8058
43.1514
44.7185
46.6522
48.807
50.935
54.3935
53.2158
57.2191
39.6948
39.0599
30.8691
22.4692
52.8459
39.2698
39.5208
40.593
66.0489
63.0917
61.9951
70.4343
68.3819
68.6242
75.8953
60.5879
41.6369
43.6045
42.3711
45.59
47.509
48.5384
50.0697
52.1157
55.6888
58.9483
38.881
38.7907
35.0139
32.4584
26.7116
57.0761
38.6108
38.861
40.2573
65.0072
68.4537
63.0635
69.6459
72.6472
70.7645
114.404
66.4418
62.1397
60.502
40.8625
43.244
41.6865
45.4563
47.203
49.337
50.4077
52.6667
55.9512
59.0724
38.0719
38.2393
34.4204
30.6867
24.8696
39.0502
37.855
38.8142
38.1192
39.4943
66.4227
70.0915
65.3127
72.4038
75.4083
78.4885
77.7445
71.3239
63.3369
62.038
40.9516
42.4974
44.0145
41.7472
46.2805
44.7392
48.039
49.2458
51.4776
54.0613
57.7002
55.2621
60.8634
37.5052
37.5998
36.2661
26.7963
27.9323
80.4842
38.1649
37.6258
39.5095
68.9517
72.595
66.478
74.6423
78.2385
78.9503
89.0614
65.1565
62.9214
40.2861
42.6836
43.4223
40.9984
45.4528
44.7034
47.8598
50.2333
51.4534
53.8636
57.6319
56.2096
60.5479
62.5364
36.9162
36.9042
34.9064
25.814
26.8377
40.6866
37.6731
37.8196
36.9944
38.9159
70.6121
75.0317
68.8103
77.1671
80.8311
83.3778
85.6708
110.667
66.0855
65.0096
40.2524
41.9861
43.7218
40.7381
45.843
48.9512
47.0072
50.0184
52.573
54.932
58.9147
56.1038
62.0391
64.1389
36.4362
36.6202
36.265
36.619
25.2393
32.2992
32.4168
37.1616
37.2131
38.2109
36.7571
39.0473
73.2279
75.3436
77.733
69.6621
79.7284
83.6972
85.6603
89.1063
88.4172
68.3731
66.0313
39.74
41.936
41.213
43.417
39.9474
45.1034
49.0173
47.3155
51.0298
52.1028
55.1118
58.7104
57.3499
61.8595
64.0048
35.8599
36.031
36.0988
35.5864
23.566
32.7241
77.9194
25.8318
36.7531
37.621
36.2254
38.5547
73.7814
78.3687
80.6173
72.4144
82.2655
85.003
89.5579
92.1761
89.9598
120.686
69.7532
67.9992
41.0316
42.6131
40.6999
44.1894
39.5425
45.4915
50.1243
48.3047
46.5063
51.0697
52.9974
54.2524
56.578
60.0708
63.4337
65.9285
35.5228
35.2173
35.0096
27.6438
33.8537
95.8624
24.4985
36.163
36.9708
37.8022
35.6402
38.783
76.8856
81.2335
83.3487
74.1233
88.2328
92.6597
95.7684
94.9645
97.5029
72.2666
68.7408
41.0381
42.7614
39.9256
43.5619
45.0218
49.953
48.7268
46.5119
52.0974
54.919
57.3693
59.1362
65.3305
63.3683
67.988
34.978
34.8051
34.5821
27.3513
33.8255
52.4186
22.7934
35.6825
36.3741
37.3398
35.0483
38.3409
78.8815
84.2348
86.8394
77.0597
91.1919
96.3503
99.3939
98.9115
127.832
73.199
71.3979
40.0852
41.8757
39.5623
44.0065
45.5042
50.797
48.4343
47.3441
52.6374
54.101
56.4764
60.1361
66.9223
65.5255
62.0892
69.7107
34.5097
34.0882
33.9665
30.8195
33.823
43.1927
23.4077
35.0575
35.8058
36.2423
36.7522
37.6635
34.5454
38.7356
82.1566
86.6077
85.7515
90.3008
78.723
95.8469
98.1793
103.406
106.711
110.687
76.2967
72.1865
39.7137
41.8768
43.544
45.0654
50.5888
51.9385
49.3927
46.8334
54.8003
57.2611
58.9518
69.2164
66.5557
62.8754
33.991
33.4801
31.1989
33.4737
34.3317
21.8459
34.6702
35.3815
35.723
36.3813
37.1139
34.0497
38.1247
83.7178
84.3363
90.2352
90.0083
93.6834
82.1997
98.979
103.292
105.296
111.349
138.147
114.334
77.3869
74.6717
39.0683
40.3364
41.0816
42.7767
44.139
45.7181
51.5393
52.6145
48.856
47.5409
53.8727
56.3317
59.6188
71.4449
64.7818
68.6525
61.4011
33.5564
32.9651
32.5306
28.4414
32.6781
19.5843
95.0991
18.8841
34.2254
34.8832
35.3253
35.7916
36.57
36.9332
33.8795
33.6105
37.3831
38.3696
87.2158
87.7885
93.369
93.2999
97.4247
84.6088
104.428
106.517
110.884
115.099
127.233
122.065
80.7328
75.2143
39.063
39.6249
41.1576
42.7552
43.5303
45.2083
52.0413
49.7224
47.1487
54.5235
57.061
58.7099
70.588
74.0709
64.9303
68.5278
61.7424
33.0534
32.4002
32.3352
29.7769
32.1742
18.3796
43.3746
24.008
33.8675
34.6624
34.8987
35.4862
36.1909
36.3237
33.5015
33.2103
37.048
38.0137
90.0438
91.6574
96.9236
97.9106
100.661
83.8681
88.7692
108.32
112.181
121.345
151.497
128.766
80.8173
78.387
38.3691
39.7921
41.9555
40.5393
44.0571
45.8989
53.6182
51.1308
49.1954
47.9941
56.1264
59.5642
72.545
75.802
63.6322
66.99
70.8075
61.2378
32.7104
32.0559
31.3334
32.0756
31.6581
18.0715
89.8543
23.0414
33.9262
33.5158
34.2753
34.5419
35.0729
35.7521
36.0822
33.1571
32.8252
36.4437
37.3907
93.8603
94.8912
102.482
105.194
87.5996
91.4604
114.073
117.923
127.556
148.608
138.256
84.0703
78.5368
37.8557
39.6559
41.8092
40.2599
43.4471
45.6151
54.3826
51.7212
49.9617
47.5184
56.9241
58.6949
75.0382
64.3291
67.6746
71.8697
62.5621
32.2613
31.6224
31.3894
31.5819
31.2329
16.0752
45.5497
26.2885
33.5018
33.1956
34.1314
34.677
34.9693
35.3303
35.4811
32.8353
32.4955
36.0773
36.827
96.9812
99.5582
103.265
107.069
108.494
91.478
87.5129
95.5894
117.171
117.818
125.315
136.31
167.869
149.657
146.893
84.1026
81.01
38.2189
37.0015
39.1223
42.542
40.885
43.9824
46.5473
44.8381
55.9915
53.235
51.2118
49.4784
48.2618
59.6745
77.2989
66.1224
69.8817
74.5956
61.7487
32.0107
31.3036
30.2728
31.341
31.1339
30.9104
22.9135
22.4891
93.7603
33.2482
33.2017
32.8636
33.8526
34.3166
34.4921
35.2169
32.5064
32.1878
35.563
36.2543
101.356
108.841
112.068
115.159
95.5355
91.4508
98.9109
124.147
125.181
132.854
144.039
173.075
162.564
155.27
87.0681
80.4167
37.7917
36.5931
39.3332
42.424
40.8094
43.1251
45.9034
45.0117
56.9175
53.431
52.0228
50.296
47.5796
58.7615
77.3173
67.0125
70.2746
74.2693
63.1344
31.7264
31.4324
30.9716
30.7981
30.9806
30.7633
30.5711
21.7692
25.2589
58.3576
32.8635
33.4673
32.8406
32.6152
33.9828
34.1791
34.3544
34.7821
32.2135
31.9157
35.2447
35.7329
106.168
112.42
118.15
120.337
98.2064
90.2897
95.2936
104.141
130.011
132.024
141.89
154.294
166.461
86.5984
83.1826
38.1952
37.0084
36.0173
38.9078
40.1207
41.6071
43.2652
46.3783
44.2865
56.8953
54.7238
51.5933
50.3284
48.0707
59.7906
80.128
69.372
65.475
72.5916
76.7375
61.6308
31.6717
31.137
30.7313
30.0491
30.5282
30.46
30.4268
30.4714
16.049
23.115
40.0598
32.6365
32.7768
33.3097
32.6083
32.2815
33.7722
33.8575
34.0677
34.579
31.9167
34.7961
35.3281
35.609
111.691
119.753
123.804
128.081
103.366
93.0087
97.2223
108.613
138.772
140.178
150.556
165.224
176.119
89.8132
82.5361
37.7431
36.6935
35.5369
39.2152
39.961
41.4297
42.8895
46.1624
44.2442
56.1938
58.6205
53.8402
52.5035
49.2076
51.5359
46.9872
81.3664
70.9059
66.7056
73.2865
79.3469
75.3075
62.4395
31.3942
30.8538
31.1173
30.1522
30.1052
30.1677
30.1212
30.2853
18.3007
25.1381
90.2539
32.358
33.0041
32.4761
33.4884
32.3343
32.1542
33.5768
33.7281
34.2089
31.6778
34.6356
34.9062
35.1647
117.324
123.972
132.251
134.484
107.79
101.948
96.9056
114.971
147.156
149.742
162.154
176.223
91.8703
85.8037
37.1168
38.0719
36.155
35.1327
35.6282
38.8576
40.5308
42.0998
43.4673
45.0994
57.3068
58.914
54.5981
49.2059
52.1643
47.0198
84.4685
69.7649
66.2267
80.6735
76.991
64.5085
60.5659
31.3733
30.6279
30.8765
30.0841
29.6901
29.9275
29.8269
29.992
30.3988
17.3945
23.6341
28.4169
49.1312
32.2902
32.0966
32.8393
32.365
33.2469
32.0762
31.8987
33.2825
33.4944
33.4841
33.9083
31.6885
34.2625
34.8249
119.256
132.027
139.588
144.305
112.898
105.799
101.017
118.866
159.978
160.481
173.779
97.1343
88.8779
36.5812
37.639
36.0846
34.7737
35.1502
39.3069
40.1868
42.0112
42.8507
44.5817
56.3779
53.7701
48.0864
50.3069
51.4378
46.1445
86.3574
71.7215
68.5501
80.2373
84.4415
74.9355
65.0522
60.9984
31.2762
30.4895
30.8685
30.6265
29.724
29.3969
29.6311
29.6663
29.8585
30.2252
15.436
25.3762
28.7385
24.2884
99.8623
32.0203
31.9215
32.5391
32.9701
32.1013
31.7706
31.6923
33.089
33.1737
33.1778
33.5715
33.9426
31.4502
34.11
34.4309
127.853
139.586
134.371
149.771
152.802
111.787
105.795
101.46
125.394
172.331
98.1223
89.8458
36.8226
38.0289
35.4479
34.4958
34.4299
35.0072
34.6994
38.8712
40.7441
41.5801
42.9088
45.2753
43.6734
57.1996
54.5417
47.9808
50.0545
52.1994
46.1678
70.8688
67.1683
82.9646
86.5513
76.4065
63.3715
60.1356
31.0554
30.2452
30.644
30.5084
29.1685
29.3954
29.2006
29.3355
29.5035
30.0002
29.6188
21.9181
27.7243
25.141
51.3133
31.9287
31.721
32.3868
32.7614
31.9163
31.6108
31.4743
32.8269
33.0197
32.9697
33.3159
33.5584
31.3521
33.7771
130.47
149.8
144.641
158.195
165.005
117.652
110.768
106.933
128.908
93.5842
103.231
36.3635
37.5548
35.2175
34.1035
34.1111
34.5055
34.3727
39.3097
40.1879
41.9961
44.6236
43.7615
55.9983
58.685
53.4459
47.0022
48.9963
51.0679
45.0466
72.8717
68.4366
82.2924
90.0452
79.6275
75.5122
63.2686
61.3154
30.9854
30.0893
30.605
30.3325
28.8014
28.9617
28.9383
29.152
29.2559
29.8334
29.4747
23.8691
27.4037
22.1796
94.9892
31.7144
31.5099
32.539
32.1876
31.681
31.9812
31.403
31.2514
32.636
32.7279
32.6718
33.0406
33.3093
33.4535
31.133
33.799
139.427
158.077
152.971
147.707
167.902
173.451
125.408
116.398
110.35
138.676
94.4459
103.442
107.988
36.7348
35.7258
37.896
34.6997
33.8483
34.0943
34.0083
38.7414
40.5922
41.561
42.9471
56.3484
57.972
54.0448
47.1431
48.9663
51.1722
44.9697
71.3282
67.2972
85.9273
93.6163
89.5501
80.3946
77.4624
64.9892
60.6633
30.7685
29.8796
30.1532
30.394
30.2686
28.5793
28.7785
28.736
28.424
28.874
29.1544
29.6691
29.2772
29.5328
23.5187
28.0206
18.9986
55.4008
31.5881
31.5163
31.3418
32.3574
32.1674
31.5338
31.7795
31.2214
31.0802
32.3963
32.543
32.5256
32.8815
33.0029
33.1746
33.459
167.607
165.012
160.284
175.06
131.496
122.163
118.268
147.221
99.9565
108.49
113.076
36.3545
35.2019
37.465
34.6886
34.2112
33.4373
33.6376
33.6244
39.0515
40.5072
42.0605
43.0708
55.7436
58.8781
53.7
46.1307
48.1125
50.0304
52.3376
44.1657
72.808
68.9541
86.1654
97.1238
93.2886
83.0873
76.0186
64.0629
61.9945
30.6491
29.788
30.0262
30.3326
30.0808
28.4706
28.5661
28.2504
28.1233
28.7839
28.9613
29.5475
29.245
29.3717
23.9065
28.0057
30.3344
20.7455
104.823
31.3535
31.3247
31.1548
31.9902
31.3602
31.5908
31.7864
31.0068
30.8913
32.2259
32.299
32.6708
32.3211
32.766
32.8697
33.1987
173.335
172.6
159.518
140.49
129.645
123.126
147.463
100.945
109.768
119.461
35.7561
36.7462
35.2432
37.8224
34.2845
33.7312
33.3195
33.4017
33.2584
38.5284
39.8597
41.3039
42.4472
56.8163
58.4429
54.8936
46.2414
48.4176
49.6337
51.9114
44.6343
71.6811
67.8871
89.6122
96.5352
95.2811
83.142
77.9467
65.508
61.4198
30.7349
30.4729
29.8835
29.6148
30.1845
29.9631
28.257
28.3962
27.9254
28.0004
28.1002
28.6238
28.8672
29.3697
29.0933
26.1898
27.9706
27.9796
19.3338
54.2513
31.2384
31.1543
30.9788
32.0126
31.2276
31.4215
31.6007
30.844
32.0774
32.4632
32.0877
32.3039
32.4305
32.7147
32.878
173.062
144.463
135.776
131.801
160.424
104.903
115.753
124.696
35.3748
36.3951
34.6911
37.5565
34.2844
33.762
33.3097
33.0116
33.0197
32.9438
38.72
39.9811
41.4445
42.9905
56.4061
59.6652
54.2743
45.1093
46.4063
47.3622
50.4368
52.7157
43.414
73.6354
69.4317
86.5768
92.9712
101.022
99.6542
81.1415
76.6811
64.7527
62.7366
30.5553
30.4366
29.7389
29.6076
30.1452
30.0349
29.7894
28.1711
28.4558
27.6448
27.828
27.5799
27.8757
28.6077
28.7222
28.9467
29.2802
29.0288
26.3589
27.6682
20.9664
22.2716
97.3251
31.0849
30.9518
30.7965
31.8547
31.0807
31.2604
31.4236
31.6386
30.6566
31.882
32.2847
31.9111
32.0908
32.3127
32.4958
32.7606
153.184
137.081
136.596
162.03
115.865
122.431
133.585
34.7133
35.7315
36.8353
38.0778
33.8393
33.5335
32.8813
32.7032
32.7042
32.6006
39.4629
40.8765
41.8164
57.4939
59.0467
55.0045
43.0695
41.8141
46.6865
49.5745
51.4701
41.4221
72.1852
68.3333
86.4706
95.2232
102.939
100.198
82.5753
78.8241
66.1193
61.5744
30.5086
30.2595
29.6779
29.492
30.0071
29.9498
29.7355
28.0984
28.3889
27.6889
27.3647
27.2575
27.7962
28.4743
28.6503
28.8258
29.3809
29.1369
28.8828
27.4899
27.6391
27.1047
17.4868
23.3239
49.2095
30.9362
30.838
30.7946
30.6331
30.9507
31.1067
31.2443
31.5605
31.6926
32.0308
31.9268
31.71
32.1274
32.3109
32.4416
156.038
147.642
146.211
174.428
113.242
124.275
129.048
140.187
34.385
35.8488
36.6635
38.8169
33.3188
33.1443
32.551
32.7922
32.4207
32.3322
32.277
40.0006
41.4273
39.6314
56.4892
59.9254
53.8722
40.6342
39.9078
38.6706
46.7912
40.2606
49.2201
51.255
37.8946
73.863
69.4295
89.6481
93.7133
107.792
104.26
82.4323
77.252
64.019
62.1097
30.3247
30.1893
29.5167
29.4337
29.8743
29.8307
29.6022
27.9542
28.2412
27.5277
27.0958
27.2059
27.6967
28.5017
28.7062
28.7987
29.2815
29.155
28.7868
26.6253
27.1773
26.7664
22.585
20.5691
95.1303
30.7635
30.6616
30.6251
30.4792
30.9591
30.773
31.0891
31.2422
31.3991
31.592
31.8392
31.7415
31.6341
31.9064
32.1322
32.2231
167.039
150.477
152.351
118.493
128.347
137.301
150.164
33.8603
35.0796
37.811
37.9004
39.1498
33.2394
32.8396
32.7889
32.2003
32.4153
32.1545
32.0839
31.9916
40.4374
36.7885
56.7048
57.8899
54.1621
33.2614
33.3008
36.7767
43.0783
37.4212
44.6089
46.6864
30.0152
71.852
65.7123
90.1266
97.8096
107.294
85.9497
79.2544
63.7453
58.9134
30.3152
30.0168
29.4943
29.2969
29.7232
29.8786
29.7092
29.5937
27.9253
28.1577
27.3887
27.5478
26.8766
27.0891
27.7723
28.4364
28.6099
28.6464
29.069
28.6323
28.8488
26.9048
26.6435
27.0901
26.5657
17.9537
19.9326
58.773
30.6381
30.5509
30.4894
30.8351
30.6498
30.9341
31.0807
31.2858
31.3683
31.5605
31.5266
31.4598
31.762
31.9797
32.0131
173.13
162.464
163.65
125.321
113.989
136.383
145.2
158.108
34.3689
35.7901
36.1374
35.4638
37.2553
32.711
32.4105
32.4418
32.1307
31.9529
31.9588
31.7871
31.6814
38.7712
29.1102
57.2538
52.3096
32.2995
30.4037
44.1582
44.7637
39.9628
52.5203
45.0777
47.4847
29.65
72.3066
64.0481
94.0201
102.492
106.172
85.6667
82.5222
74.9091
59.7116
57.7137
30.1942
29.9534
29.3422
29.2435
29.6156
29.7348
29.4802
28.0233
28.23
27.2777
27.4556
26.7108
26.9477
27.1372
27.7803
28.3358
28.5106
29.1164
28.9668
28.5661
28.7605
27.0272
26.2847
26.7027
26.3988
20.2858
21.6124
44.5605
30.4984
30.3886
30.3438
30.6998
30.8183
30.5231
30.9415
31.0955
31.3133
31.4326
31.3164
31.303
31.5635
31.8163
31.7921
173.865
130.256
116.892
143.123
138.158
156.103
168.208
33.5433
35.0737
36.4836
32.6456
32.7583
29.9442
35.0727
33.0706
32.2855
31.9931
32.0465
31.774
31.6359
31.7127
31.7906
31.5599
31.6714
31.5048
29.5403
53.1827
55.05
34.7246
81.8484
55.4418
42.3174
86.6244
46.5961
48.3213
38.2305
66.5516
59.8458
95.3607
104.808
111.861
89.5244
82.6193
74.0484
56.8672
54.5127
30.2318
30.0631
29.8237
29.287
29.4997
29.6334
29.7086
29.4309
29.3737
28.0341
28.1343
27.2996
27.5395
26.7095
26.8414
27.052
27.9196
27.6687
28.295
28.3716
29.0331
28.8956
28.6543
28.4571
28.7848
26.7065
25.7062
26.2141
26.1826
26.4523
26.4393
14.6889
20.4251
21.6077
97.5401
30.3791
30.3619
30.28
30.6162
30.6696
30.391
30.438
30.7727
31.0111
31.128
31.2276
31.1341
31.1199
31.4898
31.6105
31.5874
129.894
123.911
153.135
145.641
165.079
174.672
33.0346
34.5791
33.8268
25.4131
23.208
20.4123
27.6066
32.3336
31.7178
31.6135
31.724
31.5374
31.624
31.3116
31.4013
31.3148
47.9833
52.2244
91.045
85.5848
85.3612
91.2089
91.6429
80.4275
66.108
64.4948
100.664
93.3378
109.952
114.071
85.9708
78.3863
70.879
54.8931
30.1035
30.026
29.8054
29.18
29.4472
29.5151
29.6215
29.3097
29.2883
28.1661
27.2451
27.4434
26.6035
26.8989
27.1094
27.8374
27.6412
28.3316
28.9231
29.0772
28.5661
28.409
28.7607
26.2913
26.5938
26.0864
25.8222
25.8998
26.4061
23.7962
16.8117
57.3862
30.2395
30.2115
30.1362
30.4854
30.6461
30.2817
30.3077
30.7091
30.8345
31.0297
31.1802
31.0886
30.9654
30.9629
31.3142
31.4038
139.019
126.687
164.154
148.058
171.629
32.2834
30.6297
28.4349
17.3254
24.593
25.0788
20.88
32.1308
31.2565
31.5992
31.2577
31.3864
31.2281
31.4229
31.2384
31.0406
31.2642
31.0244
31.127
31.411
53.4409
72.5731
102.036
103.112
100.766
96.0803
111.859
120.497
87.3227
80.3722
76.6193
60.0142
30.0429
29.8956
29.6778
29.1329
29.3227
29.5156
29.2554
29.1851
28.0808
27.3405
27.4387
26.6308
26.8475
27.1375
27.8881
27.7305
27.5382
28.2569
28.8472
29.0082
28.5734
28.4606
28.3083
28.6776
25.6088
26.4365
26.1743
25.9388
25.7691
25.6228
26.3133
26.5146
24.5003
28.3482
20.9479
106.024
30.1295
30.1136
30.4059
30.4849
30.1581
30.2213
30.541
30.7704
30.8772
31.0348
30.8753
30.8221
30.8067
31.1821
31.2254
140.283
133.961
172.667
160.219
23.3978
25.2781
19.9026
25.7737
42.0322
30.6926
31.636
29.766
31.108
31.157
30.832
31.149
31.0353
31.0567
30.9233
31.0595
30.9588
78.4927
96.3895
112.645
104.949
96.3918
118.982
110.336
86.1484
91.8379
85.3081
29.9249
29.8258
29.588
29.033
29.2576
29.4172
29.1569
29.1204
27.9861
28.1548
27.2545
27.3472
26.7412
26.9512
27.0526
27.8021
27.7177
27.5385
28.9033
28.5194
28.4054
28.254
28.6714
25.37
26.1093
26.1294
25.9049
25.6548
25.514
26.3164
26.5296
25.6648
21.561
20.8852
66.1965
29.9865
29.9786
30.2703
30.4279
30.0508
30.0786
30.5099
30.6279
30.7437
30.8645
30.918
30.6754
30.6676
30.6997
30.9841
31.0362
149.596
136.711
160.557
24.4504
21.2167
24.7239
17.5562
30.0483
36.6424
30.8773
31.2967
22.3137
30.7049
30.8155
30.6279
30.8552
30.7566
30.8755
30.7595
30.8757
30.7535
101.135
124.062
116.061
89.9061
92.302
101.901
29.8935
29.7485
29.6293
29.4717
28.9668
29.3319
29.1763
29.4004
29.0693
29.0083
27.9993
28.0905
27.2462
27.3604
26.7568
26.8527
27.059
27.8204
27.6373
27.459
28.838
28.4393
28.5699
28.3048
28.1432
28.7455
25.1608
25.2804
25.3807
26.0946
26.2039
26.0033
25.7508
25.4055
26.4141
26.6474
25.4398
20.0206
35.3503
22.8356
114.214
29.9037
29.9066
30.1638
30.3008
29.9503
29.9949
30.3557
30.6217
30.7557
30.7929
30.5333
30.5448
30.5448
30.9155
146.126
131.268
172.762
37.5279
29.3721
28.11
21.9906
75.774
28.9841
30.9028
23.595
30.234
30.68
30.3343
30.6627
30.6281
30.7381
30.7643
30.5883
30.6917
30.5745
102.809
123.423
113.532
100.036
97.1984
97.3827
29.791
29.5544
29.3767
28.8699
29.278
29.1949
29.0885
29.3061
28.9765
27.9168
27.1629
27.2875
26.8696
26.9921
27.7442
27.6515
27.4767
28.3614
28.5345
28.285
28.0833
28.672
25.0252
25.1105
25.0746
25.4714
26.1542
25.9445
25.7063
25.5368
26.3615
26.6386
25.2826
25.2579
19.0797
26.6483
22.506
67.9854
29.7753
29.8068
30.0562
30.1871
30.2532
29.845
29.908
30.3611
30.5006
30.6254
30.6512
30.3985
30.5118
30.4779
30.4121
30.4534
30.7222
152.822
135.062
164.959
69.4519
69.641
25.1104
29.9638
30.4463
22.6308
29.8914
30.3856
30.2074
30.0422
30.4008
30.3995
30.5968
30.5342
30.3884
30.5249
30.3461
108.008
129.346
119.421
120.613
99.6283
29.691
29.4808
29.601
29.2769
29.3902
28.7853
29.1352
29.0015
29.2447
28.9096
27.9152
27.1892
27.3098
26.8458
27.0277
27.7677
27.5707
27.4059
28.3823
28.4625
28.5958
28.2187
28.0012
28.1348
28.693
24.8812
25.1738
24.8348
26.0167
26.2291
25.807
25.4889
26.4387
26.7604
26.5582
24.932
25.2251
20.284
20.829
24.2529
62.8982
29.7295
29.6808
29.7802
29.989
30.09
30.1202
29.763
29.8112
29.9024
30.2442
30.566
30.5856
30.2927
30.3469
30.3391
30.3046
30.335
143.696
173.271
34.6579
29.97
30.0849
23.3496
20.575
29.5271
30.2545
29.9381
29.7777
30.279
30.2573
30.4314
30.4503
30.258
30.3595
112.24
133.579
127.259
113.12
29.4595
29.5127
29.2086
29.3412
28.773
29.0665
29.1606
28.9323
28.9976
28.8365
27.8466
27.117
27.2611
26.9378
27.7454
27.5811
27.416
28.3082
28.4578
28.5298
28.232
27.9983
28.0763
28.6469
24.8157
25.3648
25.077
24.7046
25.973
26.1904
25.7294
25.5951
26.4004
26.7655
26.5951
24.7005
24.6103
25.3548
24.7797
20.7755
17.1484
23.1139
27.407
29.6402
29.5616
29.6815
30.0033
30.0395
29.6442
29.7456
29.8416
30.1145
30.2322
30.4343
30.4098
30.1902
30.3132
30.2702
30.202
143.75
173.247
30.0141
27.5133
29.6492
22.3037
23.3601
49.8389
29.517
29.3383
30.0081
29.7261
29.8378
30.0573
30.0586
30.3136
30.318
30.0821
30.2986
30.2093
130.702
134.616
129.474
130.526
29.3803
29.4883
29.2458
29.137
28.6897
29.0196
29.1141
28.8631
28.9362
28.8116
27.7972
27.1559
27.3017
26.9505
27.6794
27.5143
27.3793
28.2938
28.4064
28.5228
28.1727
27.9525
28.0993
28.5841
24.9307
24.6913
25.3344
25.115
25.8987
26.0816
26.2825
25.7808
25.5519
26.4839
26.7052
26.8668
26.5818
24.3406
24.4378
24.8867
24.3528
18.5098
23.9565
29.5384
29.6187
29.6036
29.8881
29.919
29.6048
29.766
29.6625
30.0147
30.132
30.346
30.0569
30.1883
30.1459
30.0703
152.489
164.581
29.6256
28.0279
29.4568
68.5747
21.4331
29.2981
28.9367
29.9144
29.4731
29.6005
29.9564
29.9234
30.1792
30.1558
29.9348
30.0516
30.1117
30.0971
30.0738
144.468
140.855
29.3311
29.3765
29.2058
29.0616
28.6889
29.0423
28.9458
28.8694
28.7536
27.8636
27.146
27.2319
27.0648
27.6913
27.5358
27.4477
28.2377
28.3458
28.4231
28.4721
28.1783
27.9818
28.0468
28.5549
24.9175
24.603
25.2298
25.4318
25.0177
25.9296
26.0412
26.2909
25.7416
25.6304
26.5099
26.7464
26.9043
26.6658
24.2427
24.4513
24.9187
24.241
24.095
29.4881
29.5409
29.5175
29.8318
29.848
29.5055
29.6769
29.6251
29.9009
30.0252
30.2022
30.0557
29.9887
30.1281
30.0391
172.414
28.8728
23.6217
29.1108
36.3252
29.2861
29.0541
28.7898
28.8453
29.7084
29.4146
29.5383
29.7777
29.7592
30.0882
29.7732
29.8878
30.0754
29.9201
29.9463
148.645
29.2581
29.3297
29.1434
29.0157
29.0332
28.647
28.91
28.8122
28.7201
27.8667
27.2737
27.088
27.7803
27.6181
27.4531
28.2254
28.3251
28.3695
28.4883
28.1335
27.9372
28.062
28.5899
24.8018
24.6616
25.2082
25.4311
25.067
25.9233
26.1033
26.4219
26.2161
25.8329
25.6394
26.6429
26.8405
27.0164
26.7279
24.3048
24.4322
24.0738
24.1056
29.4108
29.4688
29.4619
29.4548
29.751
29.7655
29.4891
29.6101
29.5588
29.8135
29.9188
29.9477
29.8748
29.9971
29.9301
160.778
28.6754
22.6391
28.8594
22.3943
29.0542
28.9234
28.4606
28.5855
29.6458
29.1928
29.3385
29.6842
29.6886
29.9446
29.757
29.8417
29.9324
29.8584
29.8489
29.8218
29.1729
29.2641
29.0853
29.1227
28.9498
28.9592
28.6609
28.8551
28.813
28.7509
27.8333
27.3932
27.2709
27.1974
27.7751
27.6502
27.5469
28.1719
28.2725
28.3733
28.4729
28.1256
27.9065
28.039
28.5613
24.7417
24.5473
25.3069
25.5386
25.0343
26.0227
26.4683
26.2699
25.7513
26.6794
26.9069
27.0552
26.8561
24.3043
24.4799
24.0219
24.0671
24.2312
24.08
29.3669
29.3943
29.386
29.3846
29.6543
29.6743
29.4282
29.4955
29.4814
29.7005
29.7714
29.8771
29.8242
29.8479
29.7661
29.9029
29.7974
28.1268
13.6473
26.5239
28.5304
81.2074
29.0155
28.7263
28.2421
28.3693
28.4348
29.499
29.1649
29.3263
29.5273
29.531
29.5961
29.6866
29.811
29.7191
29.7002
29.7075
29.1795
29.2894
29.0341
29.0508
28.9206
28.9407
28.6337
28.8169
28.7575
28.7259
27.8546
27.4274
27.3659
27.2176
27.7341
27.819
27.6129
27.5517
28.1642
28.2931
28.4342
28.3548
28.5181
28.0875
27.9498
28.0104
28.5883
24.8011
24.6234
24.5298
25.2924
25.5441
25.1585
24.925
26.1017
26.4026
26.597
26.2494
25.7709
26.8188
27.0149
27.16
26.9271
24.409
23.9048
23.9122
24.1867
24.0722
29.3312
29.3211
29.3255
29.6111
29.4214
29.3525
29.4546
29.6264
29.6818
29.7738
29.7467
29.7396
29.6531
29.7768
29.7301
28.1255
12.2606
24.0398
28.261
31.1721
28.8024
28.5232
28.6503
27.9455
28.1689
28.202
29.4441
28.9689
29.2283
29.446
29.4774
29.564
29.6122
29.6755
29.6364
29.6106
29.1314
29.2449
28.981
29.0199
28.8482
28.8972
28.6695
28.7568
27.5012
27.3652
27.3025
27.7455
27.8532
27.6478
27.6021
28.1122
28.2121
28.3134
28.4284
28.3888
28.5091
28.0818
27.9162
28.0357
28.5445
24.6994
24.6099
25.4177
25.5426
25.6909
25.1811
24.9504
26.0967
26.4666
26.6512
26.3601
25.9356
26.8277
26.9079
27.0666
27.1478
27.0391
24.4026
23.8888
23.7936
24.2157
24.0467
29.2658
29.2471
29.2547
29.5226
29.345
29.2926
29.3735
29.53
29.6206
29.6067
29.6435
29.6953
29.6429
29.5481
29.6688
29.6386
27.8297
12.5818
26.9664
27.8657
64.8559
28.7831
28.3287
28.4548
27.9362
27.717
28.0599
29.2985
28.9318
29.0805
29.3172
29.344
29.4382
29.4915
29.5824
29.4987
29.4993
29.0718
29.174
28.9235
28.9778
28.8411
28.8717
28.6335
28.7285
27.4884
27.4243
27.3088
27.7027
27.805
27.6005
28.1464
28.2624
28.3775
28.3041
28.4657
27.9433
28.0127
28.5461
24.7226
24.5135
25.4494
25.6946
25.7841
25.0807
25.3361
24.8516
26.053
26.2675
26.5828
26.767
26.3794
25.906
26.9231
26.9915
27.2091
27.0927
24.3117
23.9924
23.8101
23.6843
24.1244
29.2117
29.1941
29.2056
29.4688
29.2889
29.3112
29.2237
29.3445
29.4748
29.5456
29.535
29.5919
29.5784
29.5569
29.5372
29.4597
29.5675
27.5478
9.98773
24.6757
27.6226
22.5133
28.6212
28.2985
28.1402
28.362
27.7524
27.4528
27.8208
29.2368
28.7802
29.0118
29.193
29.2799
29.2022
29.3334
29.3412
29.4312
29.3777
29.486
29.4337
29.4431
29.0347
29.1338
28.9289
28.8774
28.9878
28.8118
28.8309
28.5905
28.6545
28.699
28.77
27.5409
27.4478
27.2938
27.3962
27.708
27.8167
27.6029
27.6736
28.1703
28.2783
28.3811
28.3437
28.4666
27.9528
28.0643
28.5158
24.625
24.5139
25.6126
25.731
25.1642
25.3768
24.9172
26.1925
26.3053
26.653
26.8136
26.5148
26.0174
27.0009
26.9068
27.086
27.1909
24.3179
23.9994
23.825
23.7061
24.136
29.1536
29.131
29.1391
29.3855
29.2259
29.241
29.1681
29.2625
29.4913
29.4198
29.4484
29.4922
29.5141
29.4694
29.4475
29.3675
29.4541
27.1953
28.1344
11.2905
29.0685
27.3609
27.3383
69.8424
28.6291
28.4751
28.1256
27.9725
28.2306
27.5142
27.7102
29.1037
28.7494
28.8608
29.08
29.1334
29.0963
29.2239
29.2145
29.3151
29.2921
29.3945
29.2958
29.3543
29.0483
29.0869
28.9023
28.8516
28.963
28.8136
28.6017
28.6438
28.7097
28.7448
27.5998
27.5405
27.3903
27.4651
27.7684
27.892
27.6786
27.7269
28.2534
28.141
28.3141
28.4163
28.3453
28.4525
28.0342
27.9418
28.5445
24.6727
24.4227
25.6545
25.8909
25.3115
25.0764
25.5513
24.8196
26.1702
26.4457
26.7784
26.6228
26.5412
26.0107
27.1274
27.0044
27.1822
27.2677
24.2474
23.9325
24.0932
23.7609
29.1126
29.0924
29.3251
29.1955
29.1737
29.1133
29.2528
29.4127
29.3836
29.3418
29.4274
29.3871
29.4077
29.3839
29.3634
29.2994
29.3816
26.8747
27.5479
10.544
24.4549
27.0146
27.0569
11.4338
28.5185
28.3428
28.0892
27.9665
27.8172
28.2318
27.356
27.557
28.5803
28.8379
28.9673
29.1235
28.9768
29.1391
29.2405
29.1869
29.3191
29.2691
29.0055
29.0401
28.9232
28.8631
28.8269
28.9754
28.7938
28.6183
28.6647
28.6939
28.7608
27.7248
27.6097
27.3889
27.5803
27.8467
27.9724
27.7715
27.8119
28.2916
28.2037
28.3627
28.4638
28.4198
28.5073
28.0888
28.0366
28.5454
28.6004
24.585
24.4595
25.8125
25.923
25.3964
25.1549
25.5471
24.8581
26.2881
26.4545
26.8627
26.7172
26.65
26.1233
27.2283
27.1372
26.9956
27.2919
24.2744
23.9904
24.1705
23.6712
23.8201
29.0578
29.0405
29.1326
29.1142
29.0651
29.2043
29.3208
29.293
29.3383
29.314
29.3468
29.3155
29.2701
29.2115
29.2888
26.4831
27.3347
3.75095
26.5355
26.7571
26.9989
63.4232
28.3699
27.9978
27.8453
27.6529
28.0806
27.4126
27.1756
27.5297
28.4994
28.7249
29.0149
28.8636
29.0191
29.1232
29.1014
29.2178
29.1753
29.003
29.0259
28.9167
28.8525
28.8187
28.9407
28.8005
28.6587
28.7197
28.7546
27.8144
27.7562
27.5233
27.7238
27.9547
28.0586
27.8897
27.8914
28.2797
28.356
28.1874
28.4259
28.4746
28.5169
28.4694
28.1039
28.5879
28.6179
24.6431
24.3732
25.8649
26.0513
25.427
25.1371
25.3458
25.6662
25.0259
24.7823
26.2502
26.4251
26.6141
26.8359
26.7712
26.1485
27.3837
27.3266
27.1723
27.4511
24.1289
23.9504
24.1966
23.8313
29.0227
29.0937
29.1066
29.0846
29.0491
29.2297
29.1444
29.2671
29.2579
29.2913
29.2616
29.2444
29.2363
29.1906
29.1824
29.2039
29.2118
26.1841
26.5565
26.5312
3.09828
27.47
26.6191
26.8082
6.94824
28.235
27.8736
27.667
28.01
27.2428
27.1231
27.3987
28.3934
28.6065
28.7361
28.9525
28.8891
28.9505
29.0386
28.9947
29.1426
29.0763
28.9693
28.981
28.8963
28.8748
28.838
28.8216
28.9212
28.8021
28.6728
28.7162
28.7752
27.9932
27.8534
27.5671
27.6948
27.7666
28.0549
28.1602
27.9899
28.0212
28.344
28.4357
28.2526
28.4994
28.555
28.5628
28.5378
28.1973
28.6035
28.6608
24.5703
24.4305
25.8032
26.0385
26.1324
25.588
25.3017
25.412
25.024
24.8811
26.3676
26.5569
26.6903
26.7564
27.0227
26.9946
26.2762
27.5171
27.4947
27.362
27.5227
27.2092
24.2272
24.0469
24.3461
23.9585
28.981
29.0473
29.0477
29.0326
29.0234
29.1798
29.1033
29.204
29.1673
29.2342
29.1989
29.1249
29.1127
29.0967
29.1159
26.1901
25.9455
26.3783
27.4427
15.4896
26.4656
26.8147
63.7987
28.1009
28.2041
27.7202
27.6048
27.8703
27.2485
26.9783
27.2918
28.2904
28.4135
28.5174
28.6415
28.8529
28.7857
28.8344
28.9297
28.9132
29.0537
29.0035
28.9435
28.8899
28.8752
28.855
28.8181
28.9076
28.8022
28.6835
28.7633
28.7988
28.0675
28.0677
27.9882
27.772
27.8657
28.0482
28.175
28.2448
28.2118
28.0932
28.4301
28.3857
28.5129
28.3407
28.5626
28.5855
28.5871
28.6665
28.7031
24.6993
25.9288
26.0726
26.3254
25.6652
25.2866
25.5647
25.1456
24.858
26.5448
26.641
26.9062
27.0049
27.2319
26.4152
27.7322
27.7061
27.6478