/*--------------------------------*- C++ -*----------------------------------*\
| =========                 |                                                 |
| \\      /  F ield         | OpenFOAM: The Open Source CFD Toolbox           |
|  \\    /   O peration     | Version:  v2012                                 |
|   \\  /    A nd           | Website:  www.openfoam.com                      |
|    \\/     M anipulation  |                                                 |
\*---------------------------------------------------------------------------*/
FoamFile
{
    version     2.0;
    format      ascii;
    class       volScalarField;
    location    "1.4";
    object      p_rgh;
}
// * * * * * * * * * * * * * * * * * * * * * * * * * * * * * * * * * * * * * //

dimensions      [1 -1 -2 0 0 0 0];


internalField   nonuniform List<scalar> 
13611
(
100250
99899
100291
99803.2
99380.8
100736
99786.9
99419.3
98390.9
99210.6
100338
99652.6
99086
99267.3
98834
99425.4
99990.6
100574
99569.4
99049.5
98947.2
99362.7
99312
99456.4
99015.7
99845.1
99901.9
99532.8
98835
98776.1
98855.8
99249.4
99076.3
98907.2
98657.6
99503.2
99996.2
100491
99291.5
98484.7
98480.7
98600.7
98909.6
99067.5
99091.8
100205
98737.4
98486.4
99497.9
99931.5
100077
99243.1
98285.3
98451.6
98270.1
98597.3
98729
99013.3
98835.5
98842.3
98429.1
98203.4
99722.2
99416.3
99889.5
100400
99081.5
97986.2
98227.6
98033.1
98439.6
98794.3
98287.1
98512.2
100266
98133.7
97946
99650.4
99334.4
99803.8
100325
99041.9
97806.3
98028.1
98244
97823.3
98437
98755.6
98021.5
98229.1
98187.5
97844.2
97666.8
99456.3
99153.5
99368.8
99942.4
100072
100674
98906.1
97537.5
97845.1
98118.5
97598.3
98283.5
98492.9
98602.7
97876.4
98102.5
98164.8
98023.2
97576.7
97428.3
99458
99130.4
99262.3
99658.9
99941.2
100524
98875.6
97408.7
97420.6
97605.5
97795.1
97930.7
98162.3
98355.7
98612.4
97556.8
97972.6
98350.9
98092.1
97306.3
97140.1
99317.1
99003.1
99609.9
100144
99744.9
100940
98736.2
97134.4
97180.6
97430.9
97555.7
97872.4
98027.1
98302.5
98491.5
97259.3
97689
98430.8
97620
96994.4
96901.4
96979.7
99255.7
98987
99475.6
100098
99717.3
100202
98749.1
97000.8
97060.6
97197.8
97528.4
97719.4
98040.6
98360
98166.9
98510
96940.2
97353.9
97440.6
98164.4
95490.3
96783
96508.8
96705
99305.8
99106.3
98856.7
99528.6
100263
99798
100393
98624.6
96742.4
96747.7
97038.3
97343.4
97700.9
97940.9
98256.1
98145.3
98417.3
96726.3
97100.4
97018
97223.2
94727.4
96456.9
96257.6
96427.5
99180.7
99009.8
98868.6
99428.6
99757.5
99656.8
98993.8
98611.9
96546.3
96762.8
96540.9
97112.6
97370.7
97540.1
97818.8
98037.3
98288.6
98434.5
96434.9
96774
97088.5
98744.4
97072.6
99082.5
96282.8
95900.7
96150.4
99039.4
99195.1
98787.1
99313.2
99475.8
99921.2
99121.2
99842.4
98678
98512.2
96241.6
96574
96235.3
96969.7
97226.1
97589
97747.6
97978.5
98234.3
98355.6
96248.3
96307
97104.1
98738
96521.6
98913.2
95875.8
95659.7
95683.3
95756.6
98932.9
99068.3
98816.1
99252.8
99492.3
99652.5
99817.9
100024
98611.8
98524.1
96068.7
96252.4
96599.6
96112.2
97040.9
96759.1
97319
97510
97823.8
98028.2
98279.8
98135.5
98361.3
95863.3
96040.4
96202.4
97190.6
96556.2
99961.4
95243.7
95336.6
95529.6
98940
99092.2
98723.6
99292.7
99644.9
99745.4
99652
98629.5
98479.6
95745.9
96155.8
96373
95791.2
96873.3
96692.8
97263.9
97607.1
97760.8
97958
98228.5
98147.9
98307.2
98410.9
95529.6
95721.1
96060.1
96961.1
96762
98472.5
95168.9
94917.8
95045.9
95131.6
98820.6
99000.2
98720.2
99255.8
99561.7
99885
100182
99753.5
98556.1
98494.9
95611.1
95934
96471.4
95607.8
96893.5
97409.6
97088.1
97562.4
97841.5
98015.8
98249.6
98107.9
98319.1
98399.4
95524.8
95140.8
95428.2
95812.4
96846.5
95918.6
98198.4
94784.8
94612.1
94827.7
94685.2
95023.6
98787.8
98869.2
99089.1
98616.1
99341.9
99555.6
99610.9
100004
99950.6
98545.1
98432.7
95277.1
95882.6
95648.4
96359
95269
96711.5
97415.1
97127
97663.8
97795.2
98017.2
98210.8
98147.6
98295.2
98358.9
95054.2
94804.4
95302.6
94957.2
96742.7
95790.3
99086.5
98089.9
94214.7
94362
94243.9
94655.3
98662.3
98748.3
98977.2
98580.1
99244.7
99369.2
99562.3
99830.2
100012
100735
98463.6
98416.9
95559.2
96063.8
95403.7
96475.1
95003.6
96792.9
97551.1
97294.7
96987.6
97654.7
97851.2
97955.3
98111
98247.2
98322.7
98347.2
94338.5
94794.3
94495.3
95794.5
94988.6
97510.9
97718.8
93960.3
94033.6
94298.4
94042.9
94663.5
98622.9
98791.2
99072.8
98463.5
99403.8
99638.6
99855
99879.7
100454
98416.2
98366.4
95460.1
96045.2
95085.5
96303.3
96662.9
97539.9
97385.4
97003.5
97778.7
98012.9
98150.7
98231.2
98340
98343.5
98346.6
94126.4
94681.3
94407
95574.9
94759.7
97394.5
96202.8
93480.8
93567.7
93901.2
93455.1
94322
98476.8
98690.9
98973.6
98397.4
99249.4
99603
99683.6
100093
100582
98330.6
98325.3
95087.2
95769.1
94851
96416.9
96804.6
97650.4
97351.5
97167.3
97836
97964.2
98114.5
98277.5
98348
98376.3
98337.7
98316.4
93582
94016.3
93824.5
94717.6
93949.6
96296.5
95448.7
93181.1
93261.8
93362.2
93507.9
93935.1
93240
94434.9
98395.6
98794.9
98540.5
99053.4
98261.6
99276.6
99432.7
99749.2
99949.6
100357
98240.7
98277.3
94960.2
95784.2
96324.6
96740
97658.3
97786
97526.9
97142
98046.8
98179.8
98265.7
98329.1
98419.6
98400.6
93413.5
93558.7
94479.1
93467.6
93687.7
95349.7
92623.9
92819.2
92825.1
93176
93578.2
92724.1
94130.3
98230.2
98427.5
98677.1
98515.6
98900.2
98157.5
99079.3
99423.1
99576.3
99966.1
100618
100130
98153.1
98211.8
94583.5
95167.1
95508.5
96073.9
96518.3
96928.8
97817.5
97882.2
97517.4
97328.3
98006.4
98155.9
98346.8
98326.8
98451.2
98440.3
98412.5
92830.6
92913.9
93388
94960.4
92840.3
95641.8
87214.4
94722.3
92275.3
92494.3
92607.3
92746.6
93212.1
93451.6
92373.7
92509.3
93640.5
94247.1
98141.8
98255.6
98716
98367.8
98906.5
97993.5
99076.7
99262
99552.1
99715
100257
100012
98014.6
98190.3
94600.9
94922.9
95610.1
96144
96422.6
96892.5
97923.5
97692.2
97337.1
98123.8
98258
98348.9
98397
98255.9
98543.4
98535.7
98502.4
92568.1
92536.6
92972.3
93778.5
92322.1
95214.8
90470.1
93816.3
91726.9
92111.8
92174.3
92413.8
92867.9
92987.7
91822.8
91978.5
93364.6
93963.4
97985.5
98218.3
98581
98385.8
98704
97923.5
97884.9
98881.4
99349
99724.3
100521
100151
97969
98082.8
94252.5
95057.1
95950.2
95412.1
96618
97118.7
98108.2
97886.7
97724.3
97533.7
98251.3
98460.2
98431.7
98242.4
98564.9
98595.6
98546.9
98542.8
91992.6
91864
93209.9
92470.9
91733.1
95690.4
91602.4
93113.4
91514.5
91525.6
91675
91830.8
91970.8
92517.6
92724.9
91693.1
91741.4
92889.9
93545.2
97909
98035.5
98234.8
98670.8
97679.9
97693.7
98853.5
99216.7
99535.2
100025
99855.1
97799.8
98112.3
94087.7
95081.5
96013.2
95414.9
96560.9
97149.9
98268.1
98053.2
97898.1
97567.1
98378.2
98489.9
98342.2
98687.4
98727.2
98670.7
98684.7
91637.1
91465.7
92810.8
92012.4
91342.7
92701.9
93914.1
93092.8
90969.3
91088.3
91466
91726.5
91802.8
92153.4
92236.1
91195.7
91248.4
92591.1
93252.9
97713
97903.1
97989.5
98272.4
98463.2
97551.1
97602.2
97588.8
98640.7
99010.8
99315.3
99565.7
100421
100048
99943.8
97817.5
98027.9
94379.3
93505.1
94891.9
96275.4
95697.7
96757.6
97380.7
96990.1
98420.6
98263.3
98047.4
97951.3
97766.8
98637.5
98355.7
98782.5
98783.2
98725.7
98751
91166.8
90901.3
92798.4
92285.7
91337.6
90815.8
95230
91743.5
91656.3
90642.3
90776.2
90911.9
91074.3
91253.8
91336.9
91911.1
91000.2
91016.2
92118.8
92776.8
97670.8
97860.4
98058.3
98455
97270.7
97324.3
97330.7
98654.3
98879.5
99157.9
99416.4
100279
100052
99718.5
97650.5
98152.5
94202.5
93289.6
95118.3
96326.9
95754.8
96631.3
97406.9
97165.7
98563.9
98400.3
98241.5
98153
97778.8
98677.5
98557.9
98936.2
98945
98963.4
98919.5
90717.1
90572.6
90632
92006.2
91793.6
90987.2
90403.6
93604.3
91895
90335.2
90149.7
90682.5
90297.2
90497.6
90990
91075.1
91168.8
91466.4
90509.7
90551.5
91847.3
92448.1
97429.3
97636.6
98031.4
98245.1
97047
97361.1
97059.1
97183.9
98487.6
98939.3
99218.5
99506.2
99837.5
97740.8
98064
94549.7
93671.2
92786.2
94961.2
95497.4
96121.4
96791.1
97593.6
97085
98640.7
98545.4
98280.4
98249.2
97971.6
98826.4
98580.2
99041.7
99043
99038.4
99144.4
98983.5
90366.3
90040
90168
91379.2
91124.7
90435.2
90787.9
90014.8
93734.8
91708.3
92129.6
89998.7
89817.9
90290.7
90184.2
90286.6
90634.1
90670.2
90706.6
91190
90302.3
91372.4
91993.1
92471.9
97408.8
97569.8
97778.4
98259.7
96694.6
97088.6
96689.1
96873
98544.7
98774.8
99049.2
99355.2
99725.2
97426.3
98300.9
94469
93597.8
92551.1
95286.5
95620.3
96242.1
96761.2
97648.5
97223.4
98646.6
98817.3
98571.3
98444.5
98181.3
98442.3
97915.2
98857.8
99231.9
99280.4
99266
99155.8
99392.9
99156.1
89927
89840.5
89725.3
91187.7
90692.4
90180.9
90311.9
89625.3
96516.6
92550.1
87820.7
89588.8
89892.6
89375.9
90310.6
89813.1
89855.8
90356.2
90298
90762.8
89921.7
91219.6
91623
92027.1
97149.9
97289.8
97798.4
98069.5
96611.9
96402.4
96627.3
96711.3
98387.6
98836.6
99104.4
99449.1
97478
98352.2
94032.2
94877.2
93179.1
92075.2
92694.2
95289.3
95956.2
96559.7
97042.3
97494.5
98849.5
98936.9
98758.6
98342.2
98613.1
98076
98791.8
99374
99383.4
99495.2
99673.9
99317.4
99109.8
89709.5
89482.7
89336.1
90821.9
90163
89712
89846
89441.5
89369.1
97462.5
90434.2
92512.2
93332.2
89292.2
89359
89549.8
89020.6
89954.3
89450.2
89552.8
89986.4
90207
89914.1
90410.7
89608.2
90811.9
91633.9
96857.1
97141.3
97591.5
98147.8
96146.9
95898.7
96101.8
96267
98494.2
98711
98881.8
96797.8
98122
93914.3
94847.5
93392.2
91722.3
92310.9
95687.3
96029.3
96720.8
97014.1
97595.7
98880.7
98776.6
98285.5
98530.7
98648.2
98044
99099.1
99681.4
99616.6
99818.5
99588.5
99861.4
99478.4
99273.8
89306
89147.5
89034.7
89078.2
90204.9
89968.2
89812
89511.3
88998.6
89003.8
93201.1
92145.3
91802.2
95956.6
98671
88902.2
88918.3
89112.9
89600.3
88617.1
89077.4
89131.7
89655.7
89730.3
89474.6
89943.8
90394.6
89269.1
90808.9
91241
96647
97287.5
96804
97701.5
97976.5
95713.1
95573.4
95877.3
96071.5
98333.5
97251.8
98727.2
94329
95315.2
93008.6
91598.7
91289.8
92414.1
91794.3
95721.6
96404.7
96679.4
97198
97851.6
97458.4
99038.6
98944.9
98437.8
98675.3
98851.7
98225.3
99757.2
99640.4
100239
100228
100191
99471.6
99293.8
89002.5
88859.3
88698.2
88677.5
89680.9
89982.1
89352.7
89378.9
89066.9
88800.4
88799.9
90046
91732.8
96326.1
94613.8
88584.8
88657.8
88824.5
89261.4
88252.8
88737.6
88862
89305.8
89427.9
89125
89588.6
89924.4
88970.3
90402.1
96328.4
97097.7
96628.4
97523.9
98056.6
95095.7
94760.7
94513.3
95627.1
98772.9
96401.8
94322.6
95367.9
93185
91068
90914.9
91881.6
91477
96186.4
96492.4
97032.4
97925.1
97721.1
99038.3
99211.3
98971.7
98429.4
98654.3
98847.5
98170.7
100040
99853.6
100620
100772
100495
100222
99580.6
99491.8
88644.4
88522.2
88389.4
88415
89245
89287.2
88820.4
88901
88782
88439.8
88462
92315.1
91051.1
96706.6
95670.4
88225.3
88287.6
88922.8
88434.2
87894.2
88172.5
88387.7
88515.9
88955.6
88967.1
88659.7
89185.4
89545.2
89933.5
88628.3
90489.8
96170.5
97228.5
96782.1
96335.5
97604.1
97861.7
95118.9
94364.5
93313.7
95800.4
99821.5
98363.9
93970.5
94916.2
93833.1
95876
92813.4
90783.4
91750.5
90979.4
96263.2
96864.8
97108.3
97710.4
99218.6
99301.5
99147.8
98637.6
98801.5
98985.8
98363.5
100046
99897.7
101271
100717
101568
100739
100514
99780.5
99558.6
88363.6
88363.7
88354.5
88064.2
88098.1
88865.5
88754.2
89248.3
88725.6
88605.4
88337.5
88260.5
88190.2
88258.1
92869.1
90134.1
93583.1
94550.5
87899.8
88084.2
88125.2
88613.3
88325.5
87535.1
87755
88269.6
88360.6
88600.9
88587
88370.4
88863.1
89085.3
89553.9
90099.4
97160.5
96660.8
96189.7
97384.4
94604.1
93263.5
91754.7
95700.6
99896.6
97570.2
91917.3
95082.2
93848.2
95996.5
93239.4
92224.4
90255.1
91096.9
90538.7
96680.6
97099.8
97440.7
98011.3
99270.8
99461.2
99236.2
98645.3
98794
98983.8
99178.1
98309.4
100274
100099
101506
101926
102601
101100
100473
99842.9
99735.7
88041.2
88085.7
87996.5
87767.9
87882.5
88305.5
88252.1
88321
88114.5
88182.3
88097
87962.7
87835.7
87926.3
91405.1
89785.3
94176.7
92687.8
99181.1
87550.3
87646.4
87776.8
87993.6
87254
87460.8
87674.7
87896.7
88025
88254
88213.9
88506.3
87939.8
88875.3
89091.2
89676.7
96871.6
96353.4
95954.3
94861.9
93772
89744.4
95363.1
101849
103959
87507.8
94769.4
95659.7
94205.9
96431.9
93116.4
91985.3
90025.9
90550.3
90898.5
96732.8
97043.8
97454.4
98052.4
99436.8
99528.4
99420.9
98850.1
98991.8
99108.1
99319
98588.5
100285
100123
102122
102913
103308
101210
100672
100010
99786.9
87895.8
87785.7
87876.9
87910.6
87527.7
87590.6
87725.6
87875.3
87967.1
87892.7
87524
87924.4
87709.3
87785.4
87545.2
90853.4
88100.7
95492
93459.4
96700.6
87247.7
87490.8
87647.3
87931.3
86929.2
87088.8
87287.9
87771.8
87780.7
88169.4
87651
87830.1
88295.4
88834.5
89218
95842.4
94566.3
93777
90448.6
95680.7
103885
107562
83701.4
95094.6
95874.4
94138.5
96628.2
93614.7
92461.4
91301.6
89525.7
90007.8
90239.4
97081.2
97434.4
97743.2
98322
99513.7
99691.2
99537.6
98828.2
99052.7
99137.1
99283.2
99492.1
98622.1
100453
100281
101642
102815
104680
104744
100991
100631
100030
99930.1
87579.1
87516.2
87681.9
87646.6
87232.7
87473.2
87386.6
87468.2
87753.9
87162
87611
86905.7
86925.2
87626.7
87520
87541.8
87529
87247.5
90592.4
87046.1
96022.7
91815.1
98696.8
86883.1
87117.7
87284
87592.1
86712.5
86838.2
86998.1
87258.6
87435.5
87491.1
88028.4
87235
87441.5
88131.6
88419
89125.6
95210.2
93508.7
88328.6
95715.9
117936
102495
75285.4
94756.4
95606.1
96369.2
97052.5
93290.9
92458.5
90968.7
89223.2
89414.6
89889.5
97441.1
97753.5
98380.7
99664.8
99756.8
99679.6
99073.4
99316.3
99215.5
99387.1
99636
98920.6
100399
100267
101486
103365
106288
104842
101093
100722
100168
99988.2
87358.2
87220.3
87424.9
87464.8
87051.7
87157.6
87132.4
87040.8
87254.8
86640.3
86347.8
86214
86600
87212.1
87176.6
87258.5
87441.4
87240.7
87049.7
88515
87130.8
85819.5
94405.6
91791.8
98434.8
86708.3
86813.6
87021
87192.1
86399.6
86481.9
86609.2
86965.4
87098.2
87515.8
87141.4
86888.1
87721.6
88176.6
88534.8
95755.5
95836.8
92865.1
96034.1
111947
126646
122528
69789.1
95106.2
96034.4
96521.6
97476
93417.8
91955.3
90213.3
91273
88583
88916.4
89165.2
97792.6
98065
98684.3
99742.8
99878.3
99813.5
99344.7
99216.3
99881.1
99311.2
99395.7
99621.5
99828.2
99027.1
100499
100365
101704
102471
108628
106217
100915
100593
100199
100087
87033.7
86951.7
87207.6
87230.5
86779.5
87029.6
86933.3
86690.8
86914.9
85921.7
85563
85631
85959.1
87014.6
87049.2
87038.6
87178.7
87062.2
86865.9
89010.7
85453.6
84638.2
97047.8
93566.3
95377.5
86295.7
86470.2
86686.4
86879.9
86269.9
86144.3
86359.1
86440.7
86620.9
86831.2
87189.9
86716.4
86548.1
87313.3
87770.4
88155.4
96559
97297.1
88105.8
108086
126489
119147
56579
94894.3
95900.8
97070.6
97503.6
97813.4
94125
92662.8
92026.8
89842.1
90890.7
88173.9
88304.8
88825.2
98090.9
98716.1
99874.6
99953.5
99940.4
99778.4
99586.4
100146
99545.8
99721.5
99763.2
99955.7
99431.4
100487
100417
101180
101872
106499
100920
100639
100312
100132
86798.2
86674.7
86951.5
87109.6
86637.9
86587.9
86790.9
86724.3
86270.6
86574.1
85560.3
85644.6
84627.1
84847.9
85817.9
86721.1
86686.2
86748.2
86837.5
86623.4
86733.1
87126.8
84328
85003.5
83483.7
97954.9
94346.1
101655
86200.7
86408.8
86633.6
85950.6
85790.1
85982.9
86007.1
86313.6
86383.9
86606
86418.4
86153.1
86973
87479.1
87668.6
98231.3
99635.7
99395.5
108921
107746
135796
138580
59032.9
95622.5
96373
97286.2
97896.8
98142.3
94052.5
92605.3
91348.4
90217.3
89180.6
87690.1
87746.7
88137.5
98388.8
99136.3
100060
100072
100118
99591.4
100163
99958.9
99610.3
99104.8
100017
100116
99615.4
100511
100395
100985
102307
104608
100685
100615
100641
100271
100203
86504.4
86385.9
86795.8
86833.2
86402.3
86298.3
86549.3
86259.9
86452.7
84887.5
85070.4
83730.4
84368.4
84358.4
85457.4
86527
86555.3
86723.1
86735.8
86372.7
86442.5
86844
82772.2
82984.4
82267
102019
92661.4
105504
85910.4
86097.1
86334.6
85724
85813.2
85516.1
85792.9
85940.7
86056
86299.4
85904.4
85799.1
86531.5
87102.1
87347.9
84312.7
99315.6
106704
155498
101316
110476
61060.6
95597.9
96236.3
97008
98009.1
98050.2
98141.7
98277.7
94827.7
93230.4
91765.3
91141
89845.3
88762.1
87407
87288.9
87656.5
87203.6
88076.8
99454.2
100170
100257
99832.2
100465
99980
99162.2
98974.7
100134
100383
99816.2
100563
100373
100484
99519.9
105029
100508
100515
100510
100335
100269
86295.8
86331.1
86172.7
86540.1
86255.2
86236.7
86111.1
86314
86488.6
85832.1
86033.3
84702.2
84832.7
82897.7
83407.4
83661.2
85552.9
85038.7
86236.8
86370.1
86530.6
86540.7
86286.8
86236.6
86385.7
82419.5
89420.5
81737.2
82318.2
81751.3
81714
104969
96223.6
117037
94197.3
85842.1
85566.8
86064.4
85434.7
85480.2
85422.2
85186
85379.4
85605.3
85660.1
85782.7
85546.4
85332.8
86336.6
86712.4
86771
98423.9
103812
141426
98692.2
112195
84820.1
96347.2
96911.3
97323.8
98338
98813.6
98777.8
98805.1
94926.9
92854.2
91805.6
90302
89037.7
87017.1
87003.3
86565.1
87637.9
99448
100294
100448
99898.1
99962.3
100556
100544
99423.7
100601
100551
99629.4
100367
99414.5
103946
100552
100632
100549
100375
86037.5
86052.9
85890
86404.4
86018.2
86027.3
85846.4
86195.4
86238.2
85973.4
84142.2
84256.8
82074
83051.3
83572.1
85314.3
84745.8
86211.9
86433.3
86397
86130.6
86056.5
86176.4
80065.7
87257.2
80483.7
80880.6
80238.7
80730.8
89271
124176
118053
85500.7
85339.4
85781.7
85156.9
85231.6
85032.2
84925
85090.1
85205.4
85273.9
85597.4
85509.4
85074.6
84972.7
85898.6
86393.9
93196.1
103605
138775
97129.4
128271
97057.1
96529.9
97929.1
98662.9
99177.5
99240.8
99045.8
94264
95872.5
93264.5
91125.2
89896.2
88618.8
86569.2
86450.9
86706.3
86188.6
86978.5
87490.6
99506.4
100444
100598
100757
100651
99321.9
100020
96731.2
103277
100415
100808
100563
100408
85780.6
85832.3
85714.2
86218.5
85867.7
85826
85957.3
86123.6
85728.6
83940.9
84009.3
81470.1
82317.3
83053
85275.3
84927.3
84278
85897.3
86230.5
86190
86044
86000.6
85855.6
86052.6
77345.7
82895.6
79946.7
79874.3
80062.1
78533.8
80045.2
80536.8
84937.4
144009
103832
99465.8
85482.9
85013
84809.6
84833.8
84837.4
84584.6
84659.4
84883.8
84917.9
85160.8
84959.2
84746.9
84518.1
85707.4
85888.9
83637.5
99518.6
111599
96246.9
97777.1
97316.4
98484.9
99388
99363.2
99715.5
94446.9
96011.9
92834.7
90228.1
91063.1
89001.3
87792.6
85945.4
86104.7
85593.4
86859.7
99441.5
100684
100553
98304.3
100117
100166
96402.3
100621
100237
100860
85577.9
85580.4
85406
86112.9
85654.7
85635
85858.2
85954.1
85430.4
85701.3
83358
83497.8
81534.4
82095.8
82438.3
84932
84657.9
84071.9
86120.9
85812.1
85820.4
85624.2
85927.8
74950.4
81017.5
78841.8
78704.9
78778.9
78215.5
79143.7
79818.3
69004.7
156715
124178
106402
85217.7
84805.5
84520.5
84543.2
84421.2
84289.4
84366.3
84478.2
84515.2
84817
84908.7
84304.2
84189.5
84327.2
85151.2
85489.6
83713
109221
84590
97861.6
98349.4
97692.3
99232.1
100054
99889.8
95262.8
93682.3
96793.3
91810.5
89642
90051.2
88510.5
87361.4
85366.3
85632.4
85105.6
86415.1
99550.8
103324
93892.3
100420
100292
100688
85281.7
85310
85227.4
85269.1
85864.4
85627
85484.5
85392.3
85696.8
85817.4
85254.3
85481
83120.1
83293.8
80827.4
81260.5
82146.7
84788.6
84289.2
83627.4
85934.8
85711.1
85815.1
85645.3
85439.2
85853
72870
76304.9
70908.6
81506
78357.7
78230.2
78114.8
77087
78963.6
79942.7
42384.8
177732
133564
63753.3
78884.7
84896
84489
84144.4
84155.3
84295.5
83980.2
83899.1
84252.5
84439
84507
83932.9
83777.1
83844.4
85033.8
103344
108987
90219.8
98629.6
99023.8
98562.8
97551.9
99507.4
95567.3
93702.2
96504
91603.8
88811.9
89522.4
87680.6
86629.3
85116.6
85005.1
85478
84489.3
85787.1
100001
90565.7
99496.6
100579
99922.5
100130
85147.6
84978.9
85023.1
85820
85406.2
85352.9
85491.5
85305.8
85677.6
85002.5
82544
82780.5
81073.4
81563.8
84419.4
84115.9
83477.4
85600.2
85686.4
85489.8
85271
85687.9
75111.8
76006.8
71068.3
84119.2
77462.5
77085.6
77174.7
76737.6
78062.5
79409.9
89537.1
11297.3
177307
138291
113953
77282.9
84644.4
84270.4
83933.6
84006.7
83820.4
83983.4
83664.3
83631.8
83858.9
84019.8
84115.4
83474.1
83813.8
83612.1
83448.8
83635.1
84494.4
104432
103084
101604
99154.6
98968.5
98294.5
94826.9
92648.2
97044.6
90615.6
88244.9
88533.8
89759
87167
86126.8
84617.3
84283.3
84703.7
83988.7
85202.6
100349
88546.9
101608
99947.3
100115
84865.8
84865.9
84813.4
84935.5
84838.8
85695.9
85160.1
85359.9
85093.6
85526.5
84869.4
82363.9
82659.3
80407.7
81303
84378.8
83771.6
83030.7
85467.7
85538.9
85621.2
85323.8
85029.9
85244.2
85639
75250.1
76382.2
70644.8
76670.9
77194
76552.6
76043.4
77867.2
79763.7
78510.8
114465
8904.32
180394
178761
186026
39678.7
84340.3
84632.6
84000.5
83626.6
83593.6
83463.4
83649.6
83508.9
83458.9
83164.3
83765.1
84017
83113.9
83253.3
83140.9
83036.2
83208.9
104365
101816
98656.6
94787
92690.6
96906.4
98186.4
90270
87400.6
87893.5
88943.3
86369.2
85330.8
84343.1
84131.7
84568.8
83400.3
100595
91320.1
100759
100499
84639.3
84611.4
84655
84611.7
85526.8
85113.3
85039
85369.5
85201
85458.2
84595.1
81750.8
82192.2
80655.3
84075.3
83673.4
82947.3
85348.9
85453.8
85529.2
85270.1
84891
85076.2
85439.3
78908.5
75938.4
77183.1
74876.3
75733.8
76105
75533.9
75309.7
76809.4
79261.7
78191.4
126235
85863.6
8743.38
113345
181945
118225
185732
14556.8
84146.1
84355.5
83746.6
83440.8
83033.4
83374.3
83164.8
83119.6
82881.8
82963.3
83305.8
83414
82738.6
83006.3
82953.9
82687.3
98252.8
102120
93626.4
95510
91786.1
97954.7
96367.1
98683.1
89167
90737.7
86851.7
88088.2
87050.2
85842.6
84853.7
83816.8
83651.1
83933.9
83167.3
82840.8
100478
97633
100719
100875
84521.2
84392.9
84512.8
84647
85458.2
84942.1
84869.2
85237.7
85053.5
85290.9
84473.1
81681.3
82084.4
80305.2
83807.9
83276.6
82485.8
85285.3
85370.4
85446.4
85143.3
84720.8
85020.9
85384.8
78547.6
80419.4
75171.8
76522.6
74885.7
75393.8
75854.2
74711.7
74272.2
76618.1
78557.2
79568.6
77335.2
107466
89917.9
8378.5
84946.3
179909
180790
84142.2
83826
83435.6
83063.2
82720.9
83060.9
82974.2
82965.8
82358.7
82526.3
83070
82290.7
82513.5
82504.8
82195.2
100352
102176
93385.8
95049.5
92338.6
98177.9
96642.5
88484.6
90110.5
86080.6
87363.3
86393.5
85127.2
84178.9
83368.9
83083.7
83790.4
83352.5
82460.9
82708.1
82272.8
100352
100986
84236.1
84163.1
84275.7
84563.4
85347.6
84826.5
84938.9
85066.1
85255.8
84549.2
81164.7
81553.5
80561.5
83759.1
83077
82538
85143.3
85312.3
85267.7
85301.2
85090.4
84650.6
84839.8
85320.4
79197.7
83213.7
75388.1
74103.5
77085.1
74003.5
74341.7
74813.4
73579.3
73353.4
75658.3
78083.5
79161.7
77232
111969
85823
8464.77
14089.1
120931
83860.4
83699.4
83218.8
82762.3
82301.8
82784.5
82629.5
82643.4
82095.9
82189.7
82488.2
82184.6
81913.7
82225.5
82101.3
100731
94048.6
95814.4
91851.3
97569.9
87529.8
88315.8
90716.9
88988.2
85507.3
86507.2
85619.8
84626.1
83743.4
82850.1
83110.6
82653.8
82149.9
81996.9
81728.9
100343
84138.1
83899.9
84130
84641.5
84338.9
85206.2
84758.2
84980.5
85115.4
84391.2
81441.9
80132.8
83949.3
83340.3
82273.1
85063
85194.5
85258.9
85287.9
85002
84486.1
84880
85215.7
81213.7
84013.8
74397.9
72766.5
75418.7
72655.7
73585.2
74755.4
73727.8
72324.4
72073.6
75619.1
78324.8
79388.6
76561.6
90074.9
85387.4
8564.39
133562
83783.8
83418.3
82875.5
83216.3
82380.2
82140.1
82477.2
82265.3
82424.1
81625.7
81734.4
81661.9
81427.7
81686.8
81637.4
99629.8
93544.4
95942.4
92492.2
97391.1
86821.9
87209.3
90232.7
88657.4
84778.2
85777.4
84879.8
83908.3
83107.9
82273.8
82559.8
82102.7
81485.6
81582.8
81806.9
81185.4
83885.1
83671.8
84148.4
83923.4
84604.9
84318.8
85119
84731.2
84831.3
84987
84190.7
81775.9
80874.6
80327
83803.7
83206.7
82525.7
85000.5
85096.9
85204.6
85157.7
85003
84448
84775.5
85174.5
81023.9
85911.9
72812.3
71616
74515.4
72160.8
73748.9
72703.7
71189.4
74758.3
77822.9
78945.5
76868.3
81142.9
141748
91872.8
23262.8
91283.8
126877
83523.9
83346.1
82742
82921
82154.5
81755.1
82164.9
81924.3
82039.3
81469.5
81287.7
81551.9
81350.7
81267
80996.1
81299.9
81142.2
94038
96667.2
95113.3
91924.9
97682.4
85947.5
86636.1
90767.4
89273.1
87754.8
84257.1
84923.1
84234.2
83423.1
82555.7
81868.9
81381.7
81056.5
80917
81132
80674
83646.5
83482.8
83924.8
83812.7
84417.9
84125.1
85012.6
84573.6
84766.7
84816.5
84196.7
81525.8
80948.7
79773.7
83536.7
84018.2
82874.6
82231.5
85034.9
85136.6
85128.7
85177.9
85150.8
84866.4
84501
84635
85026.5
78061.1
83387.2
85837.9
71265.5
70152.9
71785.3
75398.9
71112.2
72800.3
73757.1
71548.4
69973.7
74749.9
78187.9
79078
76397.5
85045.2
79075.5
33901.1
92497.4
105709
83088.8
82421.6
82869.2
81751.7
81913.4
82131.3
81554.1
81023.7
80868.5
81079.6
80974.1
80732.4
80442.6
80685.4
80832.8
93569.9
96681
95634.3
92367.4
96418.4
85204.1
86902.7
85505.1
90167.3
88794.3
87888.7
83619.1
84158
83542.5
82705.9
81856.1
81234.4
80874.9
80356.6
80672.6
80162.5
83373.9
83220.2
83914.2
83556.9
84402
84126.5
84877.4
84651.1
81728.2
80621.8
79980.1
83514.4
83978.1
82936.7
82540.1
84902.8
85074
85078.9
85110.7
85107.4
85055.2
84806.8
84336.4
84634.6
85044.5
77945.8
81328.3
69332.2
69107.9
69376.2
69836.7
72457.5
69819.9
71683.9
72779.1
70770.6
69032
73721.7
75484.8
77775.3
78428.7
77009.9
83323.3
86779.8
64859.2
89006.7
99803.8
83032.8
82361.8
82592.1
81461.6
81563.4
81777.1
81248.8
80778.4
80752.1
80469.3
80508
80484.9
80339.4
79987.1
80191.3
80368.3
94162.4
97025.4
95151.2
91698.7
98484.5
84265
86121.5
84886.3
89133.7
90577.5
87238
83180.8
83289.1
83094.1
82307.2
81267.1
80577
80212.2
79984.7
79974.3
79597
83349.9
83148.9
83712.4
83379
84244.5
83977.7
84826.1
84535.3
81493.8
80883.7
79633.5
83213.9
83751.6
82534.2
84873.9
85038.5
85111.9
85008.4
85060.4
84438.2
84613.3
84924.2
75221.1
81441.2
67461.5
67202.7
67742.2
69996.1
67592.7
72356.1
69010.3
68870.3
71610.7
72830.4
69497.2
67183.1
73516
75215.2
78367.4
76795.7
84271.8
95655.1
81619.2
81998.2
91017.3
82776.2
82062.2
82565.9
80968.7
81495.3
81251
81766
80886.8
80346.9
80308.7
80122.8
80138.7
79876.6
79839.3
79957
79443.3
79610.2
93884.4
96732.8
95625.8
91758.4
97400.7
83423.9
85208.8
86337.7
83974.1
88480.5
89958.5
87482.7
82593.7
82562.7
82221.8
81612.8
80638.7
81203.2
80403.3
79933.4
79788.6
79805.2
79405.5
79473.1
79167.1
83129.4
82842.5
83435.3
83792.3
83192.1
84155.2
84042.8
84834.4
84645.3
84520.7
84285.3
81778.8
80571.3
78930.3
79970.8
83202.4
83809.3
82218.8
82861.8
84840.2
85082.5
85093.7
85024.5
84965.1
84308.7
84708
84940.5
75274.4
78391.1
65480.9
65526.1
67265.4
65693.3
69384.9
66998.8
67252
70541.9
71919.2
68828.2
65554.5
74181.8
72378.5
75908.1
77511
81341.2
87360.4
81884.5
82381.6
86419.3
82643.8
82073.4
82326.5
80734.7
81134.3
80850.7
81422.2
80638.4
80130
80057.6
79633.4
79590.7
79491.9
79396.8
79423.4
78939.1
79007.1
93060.4
94599.4
96649.6
95283
92182.3
90576.3
98744.8
82565.4
83358.3
84527.2
85638.5
83515.1
88913.6
86770.3
82085.4
81681
81531.5
81475.8
80157.8
80445.5
79664.3
79387.1
79154.1
79137.7
78941.6
78724.4
78612.7
82887.1
82755
83269.8
83623.5
83018.4
83937.2
84684.1
84659.2
84409.9
84296.5
81503.6
80922.1
78795.8
79598.2
83481.5
84030.5
82419.8
82841.9
84962.2
84778.7
85119.8
85069
85071.2
84975
84582.7
84161.4
84896.8
72326.6
78345.1
63472.4
63762.3
65396.1
66730.1
63665.6
69441.5
65408.4
66257.6
70865.9
69362.9
67241
63842.5
73828.8
71862.7
75730
77393.9
81860.4
83232.1
84599.3
80011.4
82398.8
81818.9
80344.5
80801.5
81092.9
81503
80317.6
79670.7
79648.2
80042.9
79335.4
79376.1
78882.1
78877.4
78954.8
78458.8
78568.9
93669.2
94451.3
96491.8
95754.1
91488.7
90455.5
97541.9
81662.8
82420
83707.4
84731
85826.9
82626.4
88367.1
86700.4
81070.4
80722.3
80835.9
79539.9
80219.2
78739.3
78586.1
78612.4
78394.8
78287.6
82642.1
82479
83041.9
83391.5
83700.6
82725.2
83937.4
84606.1
84569.4
84448
84114
81805.5
80695
78177.8
79947.3
83455.5
83963.9
82321
83111.3
84983.3
84841.8
85049
85013.2
85113.8
84928.3
84653.8
84346.4
84888.5
84686.9
72345
75242.5
61399.8
61502.8
63179.5
63970.9
62145.5
66820.2
63558.6
64652.3
69977.4
68315.1
66870.6
62082.1
74691.1
72580.6
70507
76529.6
78590.6
77772.5
79348
82247.1
76556.9
82167.1
81856.4
80467
80727.2
81302.3
79933.5
79331.5
79566.8
78742.3
78899.4
78642
78458.3
78384.6
77913.4
77926
93426.6
95072.9
97050.3
95786.7
91555.9
89610.8
98918.2
81568.9
82976.9
84080.2
85069.5
82222.9
87308.7
88705.5
85571.8
80256.4
79953.5
78899.8
79432.4
78112.4
77899.7
77925.8
77757.2
77594.5
82449.9
82212.7
82805.1
83263.3
83667.7
82615
83782.8
84600.6
84261.1
84169.6
81637.6
81023.7
78164.3
79767
83683.2
84230
82731.6
83114.5
84985.7
85030.3
84719.9
85136.7
85001.2
84990.9
85089.3
84540.2
84797.2
84737.9
69217.3
75377.9
59146.6
59615.7
61614.6
63066
61807.9
60000.6
64134.3
66720.3
61919.5
63415.8
63890.6
68572.2
65561.2
60123.2
74696.4
72031.9
69742.9
76477.5
74750.7
75256.6
75513.9
74001.8
81552.5
80450.5
80098.1
80701.5
80948.2
79495.3
79856
78903.2
78301.9
78575.1
78727
78005.5
77963.7
77832.4
77587.7
77496.4
77600.5
94028.1
92444.7
95354.2
97549.9
96409.1
90696
89755.9
98090.7
80781.6
83124.4
84200
81309.2
87027.9
87845.2
85373.3
79577.1
79798.9
79288.7
78173.1
78810.4
77367.2
77227.2
77290.9
77289.2
77123.8
82168.7
81965.1
82756.1
82963.7
83285.9
83469.6
82337.2
83662.8
84530.8
84301.9
84055.3
82039.5
80701.9
77223.5
78665.7
79277.8
83748.2
84341.5
82780.3
83350.6
85077.7
85097.9
84803.2
85153.1
85011.1
84932.3
85096
84584.9
84843.1
84655.1
68734.7
71795.3
58630.9
57063.9
57190.5
59197.4
59722.9
59132.8
62206.2
63867.2
59850.3
61742.7
62227.1
64199.2
67418.7
65754.7
58643.7
73922.1
75637.9
70482.1
72775.5
68047.3
70154.9
71538.9
71428.3
70576.5
81630.9
80104.3
79895.3
80295.6
80689.2
79027.3
79455.3
78487
77679.3
78097.2
78232.2
77309.4
77028.2
76651.4
76906.1
93629.5
94892.7
92750.7
96091.4
97127.4
90797.8
88930.3
99524.4
80709.7
79947.8
82533.1
83292
80976
86199.3
87924.6
84546.4
79459.1
78760.5
78928
78484.3
77513.9
78010.6
76651.2
76564.1
76592
76604.7
76452
82093.6
82531.7
82926.9
83108.4
83543.9
82146.8
83783.5
84510.7
84261.2
84003.8
82545.9
81797.6
81062.9
77187.6
78105.4
79559.3
84090.4
84557.7
84290.7
83223.9
85080.8
85048.1
85184.1
84927
85101.7
85102.4
84954.8
84788.6
84577.3
64863.7
55674.8
54683.8
55523.9
56953.3
57949.9
56700.6
59427.3
62485.2
58964.7
59965.1
61281.7
62612.3
64377.1
56626.8
74555.8
75597.6
69704.4
72140.5
67268.5
69297.4
67109.3
69813.2
67621.5
67529.5
81388.8
79981.7
79570.9
80349.9
80651.5
79058.6
78529.8
78097.5
77644.3
77236.7
77947.2
76670.4
76522.2
76644.5
76391.2
76238.5
93902.4
95241.2
92491.1
96599.7
97398.7
89779.6
91701.2
88862.1
98352
79747.1
79362.7
81550.7
83072.3
79856.2
85844.7
87102.1
84888.9
83674.7
78367.5
78065.9
78308.3
77848.6
76746.1
77446
75928.4
75853.5
75949.4
76234.5
75844.6
81743.1
82508.6
82238.7
82683.1
83157.9
83379
81909.8
83774.4
84373.6
84106.2