/*--------------------------------*- C++ -*----------------------------------*\
| =========                 |                                                 |
| \\      /  F ield         | OpenFOAM: The Open Source CFD Toolbox           |
|  \\    /   O peration     | Version:  v2012                                 |
|   \\  /    A nd           | Website:  www.openfoam.com                      |
|    \\/     M anipulation  |                                                 |
\*---------------------------------------------------------------------------*/
FoamFile
{
    version     2.0;
    format      ascii;
    class       surfaceScalarField;
    location    "1.4";
    object      phi;
}
// * * * * * * * * * * * * * * * * * * * * * * * * * * * * * * * * * * * * * //

dimensions      [0 3 -1 0 0 0 0];
oriented        oriented;


internalField   nonuniform List<scalar> 
21888
(
0.523961
-0.52288
-0.363274
0.887182
-0.576868
0.0539512
-0.697922
0.334607
0.628488
0.258634
-0.575887
-0.644014
0.810962
-0.476419
0.637971
-0.324744
0.583339
-0.0205225
-0.555402
-0.525906
-0.118151
0.486176
0.336379
-0.812852
0.689696
-0.0517942
0.533071
0.0502324
-0.546464
-0.554846
0.401729
-0.51991
0.501789
-0.0156583
0.803643
-0.467313
-0.41116
0.695358
0.48123
0.551987
0.00952888
-0.556025
0.016916
-0.571796
-0.537184
0.0172469
-0.655086
0.639371
0.148506
0.224497
-0.691842
-0.510991
0.0998026
0.159098
0.536188
-0.379465
0.860634
0.172473
-0.527684
-0.53914
-0.570327
-0.493769
0.58856
0.0507585
-0.569001
0.717466
0.674287
-0.449818
-0.534988
-0.156877
-0.435211
-0.404521
0.56356
0.538755
0.456054
0.760967
-0.542069
0.0143556
-0.0187444
-0.520419
0.143512
-0.713873
-0.546014
0.05222
-0.592939
0.643647
0.10525
0.124483
-0.523891
0.0740429
-0.68079
-0.58983
0.154597
0.0575916
0.505919
0.0179799
0.520704
0.526854
-0.0708578
0.706299
0.0545966
-0.560838
-0.531686
-0.376932
-0.712105
-0.537634
0.65092
-0.00732883
0.709563
-0.604349
-0.530155
0.654599
0.558224
-0.48421
-0.52622
0.584395
0.523833
0.523271
0.635369
0.705453
-0.36874
-0.192121
0.0566427
-0.588348
-0.745695
-0.0901313
-0.622004
-0.565405
0.027748
-0.52466
0.517294
0.179371
-0.0461538
0.129908
0.061608
-0.545835
-0.619042
0.0927935
0.0648645
0.519471
0.0482068
0.475574
-0.0834156
0.606599
0.546148
0.0891549
0.618608
0.0867714
0.347424
-0.539565
-0.50878
-0.240941
-0.556622
-0.189099
-0.64678
-0.621534
-0.591317
0.757659
-0.240401
0.593503
-0.414161
0.460708
-0.506882
0.692119
-0.562243
0.559534
-0.49794
-0.713845
0.167992
-0.621081
0.610947
0.567624
0.392096
0.612618
0.707691
-0.407712
0.494437
-0.582368
0.0427845
-0.37754
-0.131259
-0.618495
-0.77149
-0.526357
-0.120444
-0.0337272
-0.587828
-0.540007
-0.0513324
0.349911
0.45169
0.0312314
-0.755942
0.341757
-0.295257
0.0526327
-0.329962
-0.584233
-0.0368751
0.122629
0.488242
0.30681
0.260757
0.698837
-0.271999
0.884496
0.437201
0.270434
0.724923
-0.23053
-0.575731
-0.671288
-0.446373
-0.325137
-0.560104
-0.566832
-0.589407
-0.635588
0.520509
-0.170623
0.692085
-0.240435
-0.674019
0.705221
-0.332289
-0.592667
0.297391
-0.540053
-0.640724
0.310744
0.600403
-0.637299
0.559767
0.748912
0.426761
0.313984
0.570398
-0.370263
0.640638
0.35461
0.289953
-0.724225
0.14847
-0.579622
-0.0916843
0.295615
-0.620771
-0.541778
-0.0183392
-0.0274808
-0.539365
0.0699784
-0.659405
-0.571684
-0.0639262
0.521433
-0.670994
0.430528
0.0341922
-0.65185
0.319538
-0.354482
-0.603954
0.0638828
-0.0403375
-0.293223
-0.579817
-0.0575004
-0.15961
0.719314
0.361477
0.387348
0.788142
-0.39503
0.708914
0.58913
0.480981
0.77811
-0.423557
-0.362713
0.652634
-0.428634
-0.431168
-0.663385
-0.648268
-0.471815
-0.557718
-0.658537
-0.643761
0.158688
-0.406587
0.837084
0.674367
-0.640202
0.799218
-0.479702
0.253741
-0.608237
0.561545
-0.497675
0.680245
-0.720596
0.38701
0.553822
-0.611336
0.311042
0.408193
0.698291
0.393013
0.349739
0.359061
0.164096
0.42495
-0.185583
0.666505
0.592468
0.229032
0.336077
-0.76473
0.287597
-0.718779
-0.375803
-0.152337
-0.495949
0.365667
-0.837498
-0.192065
-0.494152
-0.164398
-0.646161
0.00238749
-0.369198
0.527854
0.267752
0.467858
0.158991
-0.700791
0.221074
-0.447062
-0.0467059
-0.11068
-0.166792
-0.636245
0.0248949
-0.210368
0.618501
0.347626
0.350578
0.740542
0.513755
-0.319558
0.678508
0.42092
0.456086
-0.0304407
0.622848
-0.482707
0.711694
-0.382719
-0.43953
-0.325215
0.294772
-0.67059
-0.591881
-0.688032
-0.372945
-0.464567
-0.487427
-0.537353
-0.351402
-0.633867
0.0451175
0.630789
-0.363056
0.539546
-0.0717143
-0.447405
0.606383
0.801238
-0.580177
-0.520422
0.0733499
-0.567138
0.58195
-0.692642
-0.529515
0.362714
0.600395
-0.575511
0.39399
0.224448
0.744466
0.420888
0.143953
0.369704
0.235397
0.443004
0.564778
-0.0756292
0.531655
-0.756358
0.725862
0.547158
-0.0447198
0.324598
-0.707331
0.368171
-0.693399
-0.346005
0.0468653
-0.638758
-0.00776793
-0.680279
0.108723
-0.573303
0.374925
-0.862364
-0.162437
0.285142
-0.636552
-0.348736
0.584639
0.732915
-0.102144
-0.653763
0.290697
0.661177
0.353821
-0.0473909
-0.620003
0.0398152
-0.546661
0.0148006
-0.762175
0.0695219
0.0708721
-0.39947
0.128448
-0.703969
0.756035
0.314764
0.42959
0.735532
0.604975
-0.179769
0.62268
0.566518
0.490598
0.235227
-0.0696155
0.616723
-0.624954
0.580202
-0.339176
-0.646546
0.344715
-0.690731
-0.646539
-0.571572
-0.735751
-0.233298
-0.62908
-0.291847
0.222629
-0.571372
-0.0403481
-0.668623
0.566468
-0.377937
0.492859
0.168299
0.626175
-0.272363
0.578778
-0.608312
0.648124
-0.564231
0.0175605
-0.549438
0.696722
-0.627206
0.561357
-0.49049
0.161881
0.673244
-0.544803
-0.481348
0.585299
0.170668
-0.201227
0.630731
0.555667
0.240733
0.364118
0.324838
0.297748
0.807082
0.420952
0.583748
-0.348557
0.472617
0.144054
0.774058
-0.193892
0.403948
-0.743136
-4.08228e-06
-0.646556
-0.286795
-0.00814103
-0.63841
0.069803
-0.641385
-0.525545
-0.21022
-0.758854
-0.62649
0.374452
-0.666307
-0.196928
0.452493
-0.0878764
0.654333
0.200831
-0.405901
0.574186
-0.747565
0.475197
-0.57837
-0.0299476
-0.0994463
-0.560812
0.147276
-0.5434
-0.0838117
0.182748
-0.381523
0.0886578
-0.633466
-0.532903
0.0515478
0.384018
0.643221
0.587511
0.0431447
0.504
0.0515518
0.688824
0.801627
0.444224
0.362672
-0.080718
0.501639
0.503
0.425465
0.64565
-0.674091
0.480181
-0.520889
-0.222258
-0.520903
-0.654708
0.419388
-0.706192
-0.568615
-0.392567
-0.248826
-0.602797
-0.32855
-0.430312
-0.0299067
-0.596593
-0.246929
-0.729836
-0.221618
0.579443
-0.667323
0.248424
0.636993
-0.436167
0.352557
0.726859
-0.251666
-0.499701
0.469753
-0.748565
0.649119
-0.56417
0.00335538
-0.416897
0.471761
-0.555576
0.624961
-0.442218
0.243434
0.724393
-0.635738
-0.581924
-0.172524
0.55649
0.470639
0.638932
0.599576
0.362884
0.3258
0.399825
0.401673
0.448141
0.725412
0.622938
-0.119981
0.700086
-0.274659
-0.0582158
0.703806
0.743956
-0.263797
0.430059
-0.652325
0.22261
-0.743523
-0.0625349
-0.592183
-0.276142
-0.443609
-0.125015
-0.692442
0.116069
-0.718875
0.140101
-0.468656
-0.460225
-0.594522
0.434265
-0.6812
-0.295579
0.459146
0.120293
-0.0303349
0.707565
0.290691
0.73029
-0.377749
-0.598827
0.347162
-0.611789
0.112087
-0.278814
0.0502913
-0.608433
-0.731364
0.314465
-0.259605
-0.312145
0.28217
-0.591492
-0.0442495
0.186496
-0.768425
-0.167381
0.63794
0.7331
-0.0942866
-0.0471847
0.646686
0.725483
-0.264254
0.665803
0.465902
0.348296
0.376997
0.564683
0.580071
0.469274
0.536358
0.46648
-0.429724
-0.806067
-0.717208
0.474571
-0.750721
-0.576383
-0.578781
-0.136462
-0.332199
-0.596692
0.130387
-0.724918
-0.206636
0.339229
-0.634812
0.73436
-0.614066
-0.666486
0.636153
0.329812
-0.375795
0.676236
-0.329072
0.627532
-0.515444
0.34872
0.614976
-0.564681
-0.293969
0.399599
-0.659204
-0.661386
0.34924
-0.379217
-0.404999
-0.56991
0.525661
-0.429199
0.590689
0.468744
0.552311
0.358045
0.367291
0.430837
0.234864
0.814004
0.734902
0.625096
-0.0604574
0.571993
0.00804159
0.712945
-0.243693
-0.139668
0.675953
0.795673
-0.329207
0.436095
-0.865828
-0.475678
-0.330397
-0.0541079
-0.663109
-0.314633
0.145346
-0.721737
-0.281729
-0.297058
-0.613933
-0.466312
-0.72423
0.518934
-0.725576
-0.115883
0.464022
0.270335
0.0220879
0.793834
0.300445
0.285907
0.134765
-0.650207
0.805851
-0.457126
0.241173
-0.688544
0.394577
-0.288945
-0.309964
-0.77188
0.392663
0.342045
-0.747046
-0.227866
-0.24622
-0.618221
0.189018
-0.0630895
0.653705
0.565581
-0.0969455
-0.100183
0.6524
0.797968
0.800324
-0.0800121
0.893841
0.654769
0.485384
0.511506
-0.436253
0.444281
0.276675
0.551972
0.612797
0.464628
-0.239055
-0.62678
-0.529791
0.216445
-0.546849
-0.517771
0.522017
-0.836655
-0.313953
-0.407792
-0.611018
-0.262637
-0.351301
-0.728955
-0.635188
-0.089049
-0.203566
-0.734106
0.662376
-0.392033
0.659247
-0.63715
0.657497
-0.357048
0.683357
-0.397444
0.752771
-0.618001
-0.255628
0.295649
0.696559
-0.455378
0.429201
-0.718143
-0.70386
0.393898
-0.311196
-0.55803
0.495997
-0.723862
-0.670757
0.424538
0.553441
0.555338
0.227468
0.570352
0.48749
0.312707
0.334792
0.558889
0.00441916
0.650218
0.73583
-0.250493
0.537268
-0.0257878
0.584086
-0.13982
0.462735
-0.18607
0.492242
0.0597246
0.0770747
0.535662
0.741616
-0.276984
0.383393
-0.622452
-0.410341
0.0853655
-0.615162
-0.461488
0.0928147
-0.610591
-0.453268
0.277945
-0.685742
-0.237204
-0.373819
-0.588509
-0.467849
-0.261111
-0.634704
-0.556903
0.531801
-0.735371
-0.202309
0.65938
0.00300002
-0.72867
0.336644
-0.0694168
0.0203516
0.326313
0.299122
-0.458318
-0.159679
-0.713944
0.719307
-0.42365
0.263936
-0.28474
-0.324243
-0.687273
0.376079
0.218783
-0.776814
-0.174759
-0.629239
-0.0946225
-0.262734
-0.0790167
0.632379
-0.190784
0.746004
0.714822
0.574649
-0.393729
0.706305
-0.262962
0.597634
0.591009
0.387133
0.37552
0.360278
0.286751
0.558284
0.322906
0.30617
-0.458156
0.517882
0.452557
0.456588
0.283465
0.382404
-0.227836
-0.394619
-0.638181
-0.522352
0.201818
-0.663311
-0.332651
0.23225
-0.685522
-0.222829
-0.462919
-0.596653
-0.445427
-0.143087
-0.706542
-0.678698
0.0439899
0.116184
-0.673091
-0.765875
0.0305007
0.392971
-0.595281
-0.683209
0.686219
-0.346554
-0.610496
0.541088
-0.65439
0.674749
-0.328069
0.75678
-0.457646
-0.684356
0.524683
-0.769217
0.345574
0.690887
-0.426942
0.45461
-0.739345
-0.713354
0.389113
-0.337272
-0.410455
-0.383843
0.501775
-0.676531
0.501349
-0.59597
-0.601708
0.338976
0.441517
0.352171
0.481882
0.232813
0.361075
0.213455
0.412522
0.293672
0.17483
0.422671
0.765695
0.748088
-0.062582
0.422834
-0.246172
0.532907
0.312102
0.548948
-0.226048
-0.231696
0.537864
0.286187
-0.00565429
0.458181
-0.041896
0.498434
0.611887
-0.328416
-0.326493
0.708905
0.209869
-0.604491
-0.436368
-0.0596201
-0.462736
-0.722937
-0.795391
-0.533628
-0.475656
0.32232
-0.785244
-0.739744
-0.590362
-0.677652
-0.629106
0.616383
-0.585883
0.0211012
0.359738
-0.47239
0.125844
0.0642625
0.0687044
0.428723
0.233251
-0.229741
-0.244526
0.757915
-0.41233
0.330983
-0.350228
-0.686641
0.349372
0.367949
-0.778404
-0.582665
0.198822
-0.099932
-0.175181
-0.22802
-0.347663
-0.129435
0.570883
-0.3014
0.653477
0.695191
0.645211
-0.278367
0.571941
-0.222534
0.645068
0.779436
0.525408
-0.549314
0.486707
0.417155
-0.0164275
0.428878
-0.116791
0.547315
0.00162666
0.311816
-0.247016
0.533206
0.416252
0.368949
0.364878
0.3805
-0.230895
-0.373599
-0.667266
-0.088877
-0.634064
-0.473076
-0.693278
0.159647
0.0871769
-0.562835
-0.340749
-0.444499
-0.105031
-0.634719
0.0789017
-0.669268
-0.478264
-0.199389
0.150661
-0.77977
-0.684033
0.0981485
-0.561564
-0.369573
0.729332
-0.508055
0.63391
-0.549739
0.614017
-0.439342
0.667451
-0.238715
-0.389219
0.622483
-0.854459
0.624726
-0.580569
0.33605
-0.675082
0.262761
0.718209
-0.387215
-0.717493
0.367271
-0.368116
-0.579581
0.651656
-0.751584
0.483542
-0.65872
0.472005
-0.700022
0.303996
0.269415
0.375025
0.528033
0.167039
0.446743
0.198341
0.356258
0.215601
0.523413
0.121486
0.160014
0.619285
-0.0414058
0.566689
0.108204
0.378481
0.0173419
0.399786
0.41244
0.430519
-0.499808
0.501437
-0.187992
0.345218
-0.0235632
0.439785
-0.106357
0.475261
0.56635
-0.201465
-0.336486
0.716999
0.183293
-0.556893
-0.615462
-0.0518073
-0.704342
-0.209738
-0.424329
-0.682819
-0.606102
-0.524388
-0.379544
0.257425
-0.598176
-0.549533
-0.555821
-0.51861
-0.4764
0.326998
-0.526389
-0.452773
0.668261
-0.570111
0.106697
-0.76356
0.394009
0.392866
-0.129631
0.117724
0.174689
-0.693591
0.454889
0.329
-0.0710974
-0.487181
0.0441645
-0.339024
0.791755
-0.528981
0.404554
-0.679483
0.311372
-0.652062
0.0724822
-0.268039
-0.186713
-0.749746
0.049726
-0.375482
-0.176273
0.44564
-0.120886
0.49584
0.486502
0.613663
0.554485
-0.203884
0.419425
0.683274
0.688019
0.639689
0.4161
-0.307913
0.395803
0.3762
0.517539
-0.10511
0.407588
0.0229261
0.456077
0.0453621
-0.206123
0.551347
0.333396
0.298954
0.360235
0.515548
-0.608703
-0.280299
-0.424046
-0.70463
-0.425397
-0.366443
-0.239661
0.24222
-0.766608
-0.745989
-0.0887947
-0.509383
-0.63833
0.0942997
-0.650123
0.159518
-0.678129
0.323599
-0.20279
0.128276
-0.581051
-0.628319
0.0582077
-0.545364
-0.330672
0.724704
-0.386447
0.779341
0.438489
-0.568104
-0.589039
0.706779
0.721996
-0.547287
-0.134137
0.674692
-0.34568
0.603608
-0.569307
0.0821314
0.5892
-0.545027
0.250184
-0.606227
0.0772558
0.623842
-0.219274
-0.25793
-0.677261
-0.720434
0.452399
0.394098
-0.580808
0.523193
-0.473464
-0.859935
0.48446
0.478676
-0.0330795
0.357732
0.291906
-0.174474
0.660857
0.43907
0.0699011
0.48451
0.389565
0.0298062
0.204173
0.478988
-0.111323
0.799157
0.843733
0.30918
0.106908
0.209618
0.0594274
0.336355
0.0356076
0.340574
0.302475
0.479003
-0.348568
0.393935
0.202783
-0.0884418
0.421804
0.371042
-0.0721192
0.436794
-0.0765523
0.453759
0.0618008
0.207767
-0.816473
0.22436
-0.648408
-0.257951
-0.446682
-0.683351
0.361234
-0.600896
-0.386099
-0.405374
-0.538223
0.137678
-0.647063
-0.544033
-0.490607
-0.549855
-0.783841
0.658801
-0.600592
0.113437
-0.71954
0.388891
0.338281
0.372795
0.406566
-0.281033
0.153907
0.15951
-0.526692
0.392569
0.278175
0.0769287
0.55901
-0.476873
-0.834688
0.289671
-0.356034
0.717709
-0.640439
-0.736895
0.517636
-0.707021
0.449096
-0.527274
-0.149986
-0.326334
-0.407528
-0.0576129
-0.756245
0.282783
-0.222554
0.337931
0.423671
-0.0659895
0.340116
-0.0482537
0.549358
-0.251434
0.690358
0.459403
0.232984
0.369873
-0.066218
0.545069
0.732742
0.00780474
0.835754
0.368593
-0.2581
0.365
0.412677
-0.203064
0.371945
0.25211
-0.135126
0.437598
0.343878
0.534266
-0.140326
-0.289604
0.492395
0.349653
0.147197
0.377216
0.434611
-0.592115
-0.346878
-0.301532
-0.793561
-0.545676
-0.668898
0.0680013
0.38162
-0.767719
-0.587977
0.182602
0.15814
-0.696363
-0.0840821
-0.562983
-0.628117
0.106343
-0.596952
0.266303
-0.816159
0.0161586
-0.21897
-0.413835
0.710435
-0.321517
-0.31953
0.657836
0.468063
-0.0614796
-0.635923
0.354907
-0.481997
0.74142
-0.581884
0.608341
-0.215759
-0.535816
0.81401
0.650325
-0.573378
-0.275669
-0.027772
0.676616
-0.386934
0.320592
-0.0191678
-0.319835
-0.0181654
0.444589
-0.594573
-0.577691
0.251361
-0.671747
0.264224
-0.635302
-0.311653
-0.352517
-0.766876
0.544331
0.416558
-0.0786682
0.375362
0.350521
-0.29455
0.843736
0.395657
0.221806
0.237549
0.454731
0.414844
-0.0450255
0.552745
0.619347
0.113254
0.836657
0.0462116
0.322372
0.154572
0.251417
0.113576
0.234533
0.170222
0.201708
0.422309
0.317658
0.0262194
0.307225
0.227047
0.352076
0.293211
0.0564178
-0.328817
0.476023
0.0484065
0.0538424
0.380778
-0.475173
-0.116943
-0.776706
-0.124454
-0.669109
-0.670131
-0.510759
-0.519976
-0.585116
-0.545013
-0.151351
0.0625353
-0.625519
-0.521774
-0.330649
-0.790756
0.571789
0.266388
-0.680221
0.390927
-0.704217
0.382726
0.620714
0.0371446
0.521921
0.559265
-0.349283
0.259446
0.0264732
0.434578
0.240656
-0.700777
0.425118
-0.72854
-0.718373
0.331449
0.613505
-0.632654
-0.692835
0.373014
-0.628398
0.610253
-0.328184
-0.42038
0.67779
-0.413559
0.262946
-0.574597
-0.748059
0.395546
-0.0890797
-0.184199
0.214517
0.295721
0.0796041
-0.00471076
0.355197
0.439465
0.404118
0.541859
-0.146298
-0.148244
0.385736
0.527797
-0.0731342
0.266542
0.250658
-0.00356457
0.556203
0.615665
0.552599
0.236811
0.59972
0.297622
0.136855
0.185507
0.339609
-0.18504
-0.251742
0.365312
-0.130842
0.365374
0.338543
0.254301
0.167988
0.186817
0.333448
0.38455
-0.157497
0.449414
-0.0973301
0.310697
0.453488
0.0225452
0.429196
-0.661957
-0.664808
-0.111899
0.00445598
-0.673565
-0.607597
-0.599041
0.088281
-0.646063
0.126086
-0.575322
-0.00979647
-0.750392
0.0524241
-0.677944
-0.469351
-0.674377
-0.116378
-0.10843
0.644389
-0.253431
0.709625
-0.326864
0.681563
0.229449
0.292483
0.0693107
0.489977
-0.714443
0.365186
-0.454967
-0.472421
0.498909
-0.0378293
-0.38302
0.623698
-0.293242
-0.361372
-0.0148774
-0.670195
0.0375546
-0.297167
0.680203
-0.0699331
0.36514
-0.693321
-0.752325
0.331951
-0.757198
0.343644
-0.485109
-0.209455
-0.356773
-0.714766
0.625694
-0.578517
0.394328
-0.171454
0.385946
-0.241172
0.320738
-0.292251
0.287515
0.11399
-0.16804
0.572045
0.533068
0.00871375
0.381422
0.312549
-0.140921
0.407411
-0.0901179
0.340741
0.389058
0.166992
0.45776
0.157826
0.0214338
0.531045
0.625754
0.613637
0.162695
0.134921
0.348193
0.0878647
0.180335
0.186035
0.179273
0.187319
0.151209
0.355288
-0.162797
0.349615
0.170654
0.165772
0.218783
0.291925
0.356169
0.139227
-0.3606
0.383158
0.0686062
-0.553167
-0.10879
-0.660353
-0.665068
-0.0804783
-0.593087
-0.688076
-0.557783
-0.449238
-0.684182
-0.441093
-0.3093
0.122057
0.55689
-0.673257
-0.801748
0.456231
-0.731018
0.404187
0.516844
0.164758
-0.143875
0.37334
0.3611
0.586184
0.346122
-0.365797
-0.776489
0.321549
-0.277558
-0.672316
0.63451
0.297198
-0.0485973
0.351483
-0.644715
-0.709541
0.348181
0.614637
-0.629497
0.599729
-0.562161
-0.781501
0.484347
-0.644427
0.574511
-0.425241
-0.371114
-0.531437
0.0463322
-0.740888
-0.676931
0.320162
0.0471842
0.79593
-0.401593
0.0936685
0.230589
0.203566
0.083929
0.317527
0.364909
0.59333
-0.313584
0.322247
0.0677868
-0.145722
0.458208
0.199779
0.261637
0.624651
0.688765
0.145777
0.479838
0.759307
0.320949
0.138977
0.209209
-0.177763
0.265628
-0.16026
0.340596
0.29434
-0.11507
0.290173
0.139986
0.215287
0.189357
0.33643
0.349002
-0.130214
0.337124
-0.0451931
0.385672
-0.0294924
0.279196
0.403131
-0.0199619
-0.549883
-0.651699
-0.00865512
-0.670743
0.00567413
0.0370209
-0.630108
-0.56602
-0.788864
0.231079
0.266578
-0.715822
-0.417611
0.321804
-0.631103
-0.244853
0.00939623
-0.682661
-0.401378
0.857662
0.745038
-0.340809
-0.400679
0.565476
0.0218118
0.351541
0.382922
0.133726
0.452485
0.479867
-0.819855
0.454095
-0.498271
0.356973
0.686288
-0.389072
0.637716
-0.358048
0.151224
-0.433305
-0.029771
-0.0297512
-0.0778001
0.185459
-0.724631
0.299396
-0.726703
0.355597
0.657985
-0.611649
-0.76541
0.0245266
-0.0189419
-0.404464
0.618223
-0.57103
0.216637
-0.24356
0.337205
0.304898
-0.0743431
-0.202499
0.286404
0.259978
0.0575261
0.482621
-0.117776
0.658092
-0.0648835
0.486297
-0.164106
-0.293792
0.361523
0.164356
-0.13267
0.332412
0.317684
-0.0560852
-0.163452
0.787993
0.525173
-0.136321
0.616083
0.77014
0.0994551
0.221488
-0.0226129
0.231813
0.162834
0.319214
-0.0535866
0.133118
0.161221
0.204145
0.0217722
0.26839
-0.017797
0.23307
-0.136834
0.326193
0.199599
0.146052
0.202956
0.206916
0.340488
0.373653
0.0356205
0.362973
-0.607144
0.057262
-0.614678
-0.679399
-0.601469
-0.233981
-0.396127
-0.467063
-0.484749
0.331232
-0.74891
-0.57384
0.300221
-0.54506
0.58587
-0.576453
-0.351439
0.343701
0.45702
-0.704777
0.364004
-0.0490814
0.614591
-0.0152936
0.366848
-0.143969
0.596493
0.464593
-0.250644
-0.620186
0.12194
-0.263187
0.72882
-0.091073
-0.611586
0.253547
-0.460354
-0.660491
0.2272
0.711531
-0.741277
0.518019
-0.547755
0.612817
-0.690599
-0.55012
0.735607
-0.4273
0.81595
-0.460343
-0.701842
0.090196
-0.465189
-0.677314
0.664199
-0.683135
0.25974
0.24493
0.663526
-0.446878
0.134684
0.172202
0.185612
0.218573
0.0678083
0.276077
0.446221
0.0363391
0.36846
0.340664
0.317289
0.38124
0.197365
-0.243035
0.407336
0.245599
0.0867864
0.0746134
0.189488
0.651558
0.865688
0.362654
0.253332
0.229854
0.540232
0.232568
0.19887
0.253578
0.263944
-0.10111
0.210359
0.266031
-0.104811
0.287448
-0.0833022
0.250578
0.268676
0.225085
0.345656
-0.103806
0.306767
-0.163799
0.370721
0.176696
0.414102
-0.0404372
-0.066241
0.429229
-0.403873
-0.210804
-0.589196
-0.0902037
-0.709797
0.108328
-0.664717
0.197646
0.275729
-0.760486
-0.473247
-0.525087
-0.0487523
0.0408178
-0.509445
-0.0670409
-0.861055
0.736727
-0.392981
0.591662
-0.134603
0.685802
-0.321761
0.542613
0.470659
0.300622
0.219203
0.377315
0.228564
0.23605
0.471543
-0.722153
0.662573
-0.540603
0.465657
-0.689601
0.598558
-0.406932
0.203182
0.748723
-0.521505
0.161438
-0.223239
0.065077
0.0581422
0.0460358
-0.753914
0.326622
-0.782102
0.321767
0.56176
-0.471562
-0.46542
0.000236758
-0.507612
-0.169694
-0.121371
-0.494167
0.70687
-0.46193
0.260002
-0.109026
0.243693
-0.0734892
0.24567
-0.102894
0.288484
-0.202817
0.270604
0.173162
-0.268526
0.304825
0.0998909
-0.198695
0.515917
0.482909
-0.101734
-0.191998
0.389305
0.215292
-0.162987
0.24975
-0.265004
0.33958
-0.0755411
0.400945
0.250527
0.52422
0.341307
0.592472
0.65423
0.552032
0.0916977
0.140867
0.290561
0.00416007
0.249409
0.270747
-0.0603873
0.113984
0.152046
0.182637
0.187446
-0.000169844
0.250735
0.294385
-0.0257255
-0.0624902
0.287578
0.28317
0.266921
0.266836
0.0399349
-0.203542
0.380252
0.210571
0.388805
-0.416756
-0.480423
-0.184302
-0.562846
0.349844
-0.823181
-0.529178
-0.424585
0.763583
-0.830552
-0.511426
0.58589
0.150876
0.292855
0.451325
-0.588655
0.26692
0.0105946
0.532048
-0.076295
0.546991
0.529204
0.45528
-0.0239618
0.401301
-0.117084
-0.0595463
-0.0749215
0.652847
-0.0542608
-0.635222
0.228302
-0.43203
-0.638188
0.116696
0.678807
-0.51734
-0.686014
0.462796
-0.620917
0.644434
-0.586275
-0.583001
0.629065
-0.455472
0.753301
-0.431524
0.402982
-0.874543
-0.507371
0.443319
-0.613022
-0.521535
0.400169
-0.804552
0.310391
0.291381
0.686385
-0.426372
0.185346
0.0408608
0.214973
0.0826611
0.0312398
0.239349
-0.099559
0.272695
0.437201
-0.132423
0.318427
-0.218584
0.284157
0.537807
-0.02194
0.335399
0.344929
0.0443349
0.310381
-0.095126
0.17418
0.308376
0.0311663
0.774664
-0.337831
0.679043
0.201638
0.390794
0.390166
0.264016
0.753672
0.254848
0.294713
0.249229
0.227193
0.197194
-0.0451498
0.2426
-0.0599628
0.273481
-0.0860333
0.224998
0.0120042
0.271171
0.199429
0.0674975
0.278848
0.239368
0.227299
0.152965
-0.214988
0.425571
0.173831
0.383244
0.418639
-0.602971
-0.144226
-0.45346
-0.369799
-0.145937
0.339012
-0.154219
-0.676474
0.239905
-0.752609
0.618501
-0.46759
0.621474
-0.328587
0.730634
-0.279267
0.734384
-0.467431
0.741271
0.455786
0.523067
0.196498
0.332726
0.0483825
0.40692
0.449707
0.493827
-0.610882
0.578088
-0.637604
0.577957
-0.649828
0.595598
-0.409874
0.254365
0.631933
-0.515223
0.0958314
-0.828352
0.311039
-0.365524
0.0235369
0.0456734
-0.0207353
-0.793613
0.338149
-0.74382
0.312304
-0.118549
-0.431224
-0.168366
-0.474654
-0.138368
-0.404378
-0.483215
0.704339
-0.412948
0.277977
0.19919
-0.0138555
0.240038
0.168607
0.0463468
0.251248
-0.213854
0.24508
0.139773
0.179279
0.093396
0.185962
0.126303
0.405522
-0.121415
0.199908
0.383534
0.398399
-0.0630542
-0.172125
0.216435
0.138229
0.213215
-0.0806555
0.254809
-0.273145
0.304273
0.343181
0.431418
0.63483
0.0441374
0.780954
0.607177
0.771723
-0.018995
0.273841
0.0916356
0.203069
0.0212149
0.228004
0.236654
-0.00945932
0.178198
0.197451
0.21352
0.150622
0.225405
-0.000419713
0.261715
0.294806
-0.00166565
0.280519
-0.0511994
0.290573
-0.155936
0.308909
0.269644
0.370345
-0.400818
-0.20217
-0.597646
0.315959
-0.685502
-0.546755
0.474683
-0.628447
-0.436562
-0.437914
0.339277
0.153917
0.40583
0.0264291
0.236081
0.50523
0.691903
0.380168
0.142932
0.00802922
0.324716
0.414976
0.0731303
0.376602
-0.0327609
-0.059617
0.631678
-0.0360505
-0.620605
0.210741
-0.366229
-0.525281
0.0100672
-0.458699
0.554552
0.731804
-0.420739
-0.747703
0.382203
0.623104
-0.599546
0.639803
-0.594113
-0.620065
0.599358
-0.405661
0.715984
-0.40367
0.557131
-0.675675
-0.634268
0.203052
-0.642993
-0.772639
0.152756
-0.805152
0.321944
0.303045
0.652616
-0.374628
0.211537
0.0261675
0.225602
0.206436
0.0447949
0.0944324
0.150634
0.234192
-0.103846
0.197227
0.368345
-0.18243
-0.237992
0.364257
0.276922
-0.324392
0.524251
0.0590935
-0.301
0.237901
-0.0215818
0.233286
-0.095081
0.225017
-0.0118254
0.125764
-0.0183637
0.179093
0.125154
-0.129973
0.561357
0.504784
-0.395592
0.43968
0.572181
0.208777
0.0464738
0.56069
0.0197484
0.752036
0.121957
0.151882
0.213587
0.224276
0.227574
-0.029712
0.207909
0.21502
-0.0175692
0.212762
0.000759759
-0.12844
0.279065
0.133278
0.243615
0.288914
0.125637
0.154887
0.302586
0.00633093
0.228744
0.0409082
0.0784064
0.291955
0.362061
-0.564266
-0.235556
-0.304311
-0.380973
0.253245
0.870486
-0.395801
-0.29622
-0.331742
-0.732076
0.221623
-0.662853
0.814513
-0.475174
-0.56824
0.722198
-0.162366
0.61673
-0.590256
-0.0987536
0.604043
0.301278
0.390656
0.453326
0.444241
0.403141
0.0436694
0.371332
0.4203
0.560089
-0.592814
0.572093
-0.650848
0.614829
-0.31453
0.286397
0.573741
-0.563663
0.273124
-0.0654924
-0.759232
0.338517
-0.124576
-0.377005
0.0402733
-0.0203573
-0.0514611
-0.758121
0.352468
-0.755428
0.351767
-0.641411
-0.0342573
-0.438366
0.227504
-0.54516
-0.652388
-0.436167
0.643778
-0.340722
0.26916
0.217203
-0.00568079
0.243352
0.161574
0.0640097
0.206353
0.205759
-0.0551406
0.130333
0.18073
0.0164815
0.067305
0.181784
0.414202
-0.137327
0.128606
-0.242458
0.301507
0.396009
-0.158145
0.211677
0.129914
0.167249
0.209625
-0.0838762
0.19124
0.192397
-0.0672686
0.607787
-0.107264
0.612015
0.478089
-0.0384486
0.591946
0.769492
0.782373
-0.0541714
0.206051
0.0366893
0.176894
0.0283459
0.195923
0.209212
0.0183518
0.185309
0.153737
0.195194
-0.176459
0.177221
0.102608
0.25892
-0.0817879
0.325414
0.133883
0.155037
0.288774
0.220808
0.235081
0.332876
-0.311054
-0.539703
0.154661
-0.534835
-0.758344
0.362202
0.285699
-0.61721
-0.509385
-0.511967
0.728119
0.0864629
0.247077
-0.713336
0.551025
-0.096556
-0.0301309
0.62943
0.059208
0.544876
0.449895
0.0948448
0.358507
0.0583403
0.385927
0.0437029
0.359457
0.415059
0.0425986
0.377724
-0.0206878
0.608945
0.00591591
-0.653884
0.339363
-0.367476
-0.224291
0.606612
-0.333466
0.541141
0.696829
-0.358286
-0.582786
0.458225
-0.646255
0.269267
0.654863
-0.614572
0.615892
-0.636232
-0.669484
0.618054
-0.402951
0.682108
-0.330331
0.654258
-0.688511
0.38721
-0.825611
-0.624728
0.0796361
0.00187624
-0.82731
0.39115
0.341395
0.64922
-0.38005
0.203519
0.217904
0.0254305
0.244717
0.122461
0.0630191
0.142725
0.162748
0.193337
0.209802
0.285729
-0.218457
0.277998
-0.0962478
0.171707
0.258634
0.357636
-0.229066
0.41273
-0.111258
0.12755
0.301941
-0.090291
-0.170824
0.300713
-0.00359593
-0.0959668
0.287182
0.188774
-0.201685
0.134392
-0.21784
0.825607
0.370785
0.394138
-0.379509
0.341018
-0.140807
0.732783
0.628709
-0.169544
0.95213
0.242736
0.205235
0.214268
0.188538
-0.00322934
-0.0938271
0.247564
0.18792
0.00727579
0.222005
-0.044782
-0.114611
0.217222
0.144313
0.159005
0.16642
0.314051
0.123124
0.165656
0.275712
-0.054896
-0.0404686
0.275557
0.292418
0.488948
-0.0506011
-0.584355
-0.473011
-0.262458
-0.569343
-0.047335
0.202504
-0.710589
0.0987337
-0.614184
0.694652
-0.608134
0.64243
-0.395305
0.775286
-0.224207
-0.649398
0.552886
0.597139
-0.627232
0.0550076
0.574487
0.0886979
0.456217
0.508264
0.480802
0.401128
0.13075
0.228716
0.229572
0.185507
0.14769
0.230056
0.588292
-0.636875
0.642825
0.281754
0.522808
-0.747084
0.36339
-0.128313
-0.774959
0.416705
0.0720909
-0.188017
-0.505671
0.00133899
-0.113406
-0.0187873
-0.754055
0.351113
-0.822745
0.492425
-0.301296
-0.642074
-0.183541
-0.562414
0.558573
-0.556691
-0.268731
-0.362897
0.540888
-0.199484
0.160846
-0.0107637
0.214274
-0.161181
0.186599
0.128776
0.115918
0.251213
0.193281
-0.0505687
0.19213
-0.0293939
0.0190399
0.190746
0.0595114
-0.250789
0.154515
0.295367
-0.123689
0.308394
-0.0497975
-0.0219031
0.183628
0.18408
-0.183244
0.310757
0.0511279
0.210397
0.155226
0.0854767
-0.0917902
0.280534
0.251382
-0.117012
0.208604
0.616979
-0.125986
0.496756
-0.110398
0.504515
0.465791
-0.124801
0.563257
0.0201442
0.608616
0.200905
0.75142
0.132957
0.109776
0.0405401
0.164689
0.18681
0.0274507
0.0947114
0.184691
0.177756
0.069808
0.229284
0.172443
0.267442
-0.146486
0.312917
0.0909809
0.223079
0.256643
0.129233
0.220669
0.0588619
0.233569
0.215541
-0.514614
0.0407159
0.450697
-0.713
-0.364396
-0.563746
-0.611663
-0.401465
0.665349
0.0293629
0.0343412
0.380025
-0.670599
0.446435
-0.0522201
-0.117666
-0.0389054
0.720423
0.663235
-0.0496124
0.505868
0.458693
0.148536
0.332295
0.226274
0.174875
0.189621
0.144375
0.0843504
0.377288
0.329898
0.456352
0.555311
0.087543
-0.465315
0.781229
-0.417799
0.652955
0.417161
0.687841
-0.615731
0.49984
0.613311
-0.611953
0.610309
-0.723694
-0.655701
0.636951
-0.471621
0.650229
-0.157792
-0.595895
0.294599
0.566539
-0.75029
-0.111705
-0.813188
0.256504
-0.665344
0.396618
-0.743699
0.38081
0.450754
0.613368
-0.452512
0.176041
0.0530856
0.161625
0.0249652
-0.106501
0.222396
0.153828
0.039442
0.141552
0.132223
0.172855
0.0842316
-0.252445
0.311923
-0.0979538
0.184669
-0.287527
0.237692
-0.35106
0.329126
-0.167458
0.364674
-0.180627
0.128644
0.0231929
-0.189957
0.241062
0.0204096
0.209747
-0.0545415
0.172419
-0.0869558
0.159567
0.172908
0.107601
0.0553929
-0.39898
0.607466
0.63725
0.339766
0.386355
0.105511
-0.324893
0.200065
-0.151455
0.71499
0.457087
0.916348
0.790724
0.173494
-0.0542476
0.16402
0.192134
-0.125281
0.219993
0.0594108
0.123507
-0.122888
0.192697
0.151485
0.077801
-0.0927956
0.265242
0.174651
0.108828
0.204098
0.00332219
0.219763
0.0846481
0.172002
-0.187382
0.316624
0.0332951
0.266875
0.605849
-0.565327
-0.107017
0.435605
-0.798849
-0.131342
-0.398574
-0.212823
-0.626818
0.656236
-0.66009
0.694481
-0.280015
0.697435
-0.250952
0.584786
-0.636968
-0.624946
0.507321
0.516436
0.731082
-0.0105933
0.193845
0.46944
0.699765
0.607269
0.507201
0.273979
0.100802
0.276503
0.250603
0.0793117
0.198782
0.257584
-0.640487
0.728069
0.148067
-0.722545
-0.656912
0.185299
0.572728
-0.730508
-0.0293737
-0.51858
-0.438711
-0.311694
-0.550273
-0.408835
-0.347074
-0.276095