/*--------------------------------*- C++ -*----------------------------------*\
| =========                 |                                                 |
| \\      /  F ield         | OpenFOAM: The Open Source CFD Toolbox           |
|  \\    /   O peration     | Version:  v2012                                 |
|   \\  /    A nd           | Website:  www.openfoam.com                      |
|    \\/     M anipulation  |                                                 |
\*---------------------------------------------------------------------------*/
FoamFile
{
    version     2.0;
    format      ascii;
    class       pointVectorField;
    location    "1.4";
    object      pointDisplacement;
}
// * * * * * * * * * * * * * * * * * * * * * * * * * * * * * * * * * * * * * //

dimensions      [0 1 0 0 0 0 0];


internalField   nonuniform List<vector> 
17322
(
(0 0 0)
(0 0 0)
(0 0 0)
(0 0 0)
(0 0 0)
(0 0 0)
(0 0 0)
(0 0 0)
(0 0 0)
(0 0 0)
(0 0 0)
(0 0 0)
(0 0 0)
(0 0 0)
(0 0 0)
(0 0 0)
(0 0 0)
(0 0 0)
(0 0 0)
(0 0 0)
(0 0 0)
(0 0 0)
(0 0 0)
(0 0 0)
(0 0 0)
(0 0 0)
(0 0 0)
(0 0 0)
(0 0 0)
(0 0 0)
(0 0 0)
(0 0 0)
(0 0 0)
(0 0 0)
(0 0 0)
(0 0 0)
(0 0 0)
(0 0 0)
(0 0 0)
(0 0 0)
(0 0 0)
(0 0 0)
(0 0 0)
(0 0 0)
(0 0 0)
(0 0 0)
(0 0 0)
(0 0 0)
(0 0 0)
(0 0 0)
(0 0 0)
(0 0 0)
(0 0 0)
(0 0 0)
(0 0 0)
(0 0 0)
(0 0 0)
(0 0 0)
(0 0 0)
(0 0 0)
(0 0 0)
(0 0 0)
(0 0 0)
(0 0 0)
(0 0 0)
(0 0 0)
(0 0 0)
(0 0 0)
(0 0 0)
(0 0 0)
(0 0 0)
(0 0 0)
(0 0 0)
(0 0 0)
(0 0 0)
(0 0 0)
(0 0 0)
(0 0 0)
(0 0 0)
(0 0 0)
(0 0 0)
(0 0 0)
(0 0 0)
(0 0 0)
(0 0 0)
(0 0 0)
(0 0 0)
(0 0 0)
(0 0 0)
(0 0 0)
(0 0 0)
(0 0 0)
(0 0 0)
(0 0 0)
(0 0 0)
(0.00211199 0.0324273 0)
(0.00185368 0.032398 0)
(0.00158377 0.0323674 0)
(0.00130628 0.0323165 0)
(0.00103056 0.0322085 0)
(0.00075791 0.0320625 0)
(0.00048865 0.0318841 0)
(0.000226374 0.0316721 0)
(-3.05199e-05 0.0314316 0)
(-0.000281789 0.0311638 0)
(-0.000527278 0.0308698 0)
(-0.000768034 0.030551 0)
(-0.00100412 0.030208 0)
(-0.00123632 0.0298413 0)
(-0.00146493 0.0294511 0)
(-0.00169045 0.0290375 0)
(-0.00191292 0.0286003 0)
(-0.00213299 0.0281396 0)
(-0.00235059 0.027655 0)
(-0.00256608 0.0271461 0)
(-0.00277956 0.0266126 0)
(-0.00299111 0.026054 0)
(-0.00320093 0.0254701 0)
(-0.00340891 0.0248601 0)
(-0.00361516 0.0242237 0)
(-0.00381968 0.0235604 0)
(-0.00402235 0.0228697 0)
(-0.00422322 0.022151 0)
(-0.00442214 0.0214039 0)
(-0.00461903 0.0206279 0)
(-0.00481376 0.0198225 0)
(-0.00500622 0.0189873 0)
(-0.00519626 0.0181219 0)
(-0.00538371 0.0172258 0)
(-0.0055684 0.0162988 0)
(-0.00575014 0.0153405 0)
(-0.00592872 0.0143509 0)
(-0.00610396 0.0133295 0)
(-0.00627566 0.0122762 0)
(-0.00644357 0.011191 0)
(-0.0066075 0.0100739 0)
(-0.00676723 0.00892482 0)
(-0.00692255 0.0077441 0)
(-0.00707323 0.00653169 0)
(-0.0072191 0.00528809 0)
(-0.00735992 0.00401355 0)
(-0.00749553 0.00270859 0)
(-0.00762574 0.00137357 0)
(-0.00775039 9.40425e-06 0)
(-0.00786931 -0.00138327 0)
(-0.00798239 -0.00280368 0)
(-0.00808949 -0.00425092 0)
(-0.00819052 -0.00572396 0)
(-0.0082854 -0.00722163 0)
(-0.00837406 -0.00874276 0)
(-0.00845646 -0.0102862 0)
(-0.00853261 -0.0118505 0)
(-0.00860246 -0.013434 0)
(-0.00866607 -0.0150355 0)
(-0.00872348 -0.0166531 0)
(-0.00877475 -0.0182854 0)
(-0.00881997 -0.0199305 0)
(-0.00885926 -0.0215867 0)
(-0.00889272 -0.0232522 0)
(-0.00892049 -0.024925 0)
(-0.00894274 -0.0266033 0)
(-0.00895962 -0.028285 0)
(-0.00897135 -0.0299685 0)
(-0.00897807 -0.0316515 0)
(-0.00898003 -0.0333324 0)
(-0.00897742 -0.035009 0)
(-0.00897046 -0.0366795 0)
(-0.00895936 -0.0383421 0)
(-0.00894436 -0.0399947 0)
(-0.00892568 -0.0416359 0)
(-0.00890355 -0.0432637 0)
(-0.00887819 -0.0448764 0)
(-0.00884984 -0.0464725 0)
(-0.0088187 -0.0480504 0)
(-0.008785 -0.0496085 0)
(-0.00874897 -0.0511457 0)
(-0.00871079 -0.0526605 0)
(-0.00867068 -0.0541517 0)
(-0.00862882 -0.0556182 0)
(-0.00858544 -0.0570591 0)
(-0.00854069 -0.0584732 0)
(0.000884017 -0.059087 0)
(0.00111181 -0.0576907 0)
(0.00134173 -0.0562676 0)
(0.00157345 -0.0548189 0)
(0.00180664 -0.0533455 0)
(0.00204098 -0.0518485 0)
(0.0022761 -0.0503289 0)
(0.00251162 -0.0487883 0)
(0.00274716 -0.0472278 0)
(0.0029823 -0.0456488 0)
(0.00321663 -0.044053 0)
(0.00344971 -0.0424419 0)
(0.00368111 -0.040817 0)
(0.00391035 -0.0391803 0)
(0.00413701 -0.0375332 0)
(0.00436059 -0.0358777 0)
(0.00458064 -0.0342156 0)
(0.00479673 -0.0325487 0)
(0.00500837 -0.030879 0)
(0.0052151 -0.0292082 0)
(0.0054165 -0.0275385 0)
(0.00561212 -0.0258715 0)
(0.00580156 -0.0242092 0)
(0.00598442 -0.0225534 0)
(0.00616029 -0.0209062 0)
(0.00632884 -0.0192691 0)
(0.00648972 -0.0176439 0)
(0.00664262 -0.0160325 0)
(0.00678727 -0.0144364 0)
(0.00692341 -0.0128571 0)
(0.00705081 -0.0112962 0)
(0.0071693 -0.00975509 0)
(0.00727869 -0.00823532 0)
(0.00737888 -0.00673799 0)
(0.00746977 -0.0052643 0)
(0.00755129 -0.00381539 0)
(0.00762341 -0.00239231 0)
(0.00768614 -0.000995974 0)
(0.00773948 0.000372837 0)
(0.00778353 0.00171346 0)
(0.00781834 0.003025 0)
(0.00784403 0.00430703 0)
(0.0078607 0.00555904 0)
(0.00786855 0.00678076 0)
(0.00786769 0.00797165 0)
(0.00785836 0.00913169 0)
(0.0078407 0.0102606 0)
(0.00781498 0.0113584 0)
(0.00778135 0.0124251 0)
(0.00774008 0.0134606 0)
(0.00769138 0.0144651 0)
(0.00763546 0.0154388 0)
(0.00757257 0.0163819 0)
(0.00750294 0.0172948 0)
(0.00742676 0.0181775 0)
(0.00734426 0.0190306 0)
(0.00725563 0.0198545 0)
(0.00716106 0.0206495 0)
(0.00706074 0.0214161 0)
(0.00695478 0.0221547 0)
(0.00684342 0.0228659 0)
(0.00672667 0.0235502 0)
(0.0066047 0.0242079 0)
(0.00647759 0.0248397 0)
(0.00634529 0.025446 0)
(0.00620798 0.0260272 0)
(0.0060655 0.0265839 0)
(0.00591784 0.0271164 0)
(0.00576494 0.0276252 0)
(0.00560649 0.0281106 0)
(0.0054426 0.0285729 0)
(0.00527264 0.0290122 0)
(0.00509656 0.0294288 0)
(0.00491389 0.0298225 0)
(0.0047243 0.0301933 0)
(0.00452692 0.0305406 0)
(0.00432165 0.030864 0)
(0.00410723 0.0311621 0)
(0.00388371 0.0314339 0)
(0.00365115 0.0316781 0)
(0.0034073 0.03189 0)
(0.00315589 0.0320701 0)
(0.00289651 0.0322129 0)
(0.00262796 0.0322994 0)
(0.00236431 0.0323648 0)
(1.02925e-05 0.000205463 0)
(1.08981e-05 0.000211856 0)
(2.30351e-05 0.000444061 0)
(3.00624e-05 0.000591023 0)
(1.93487e-05 0.000380969 0)
(6.61181e-06 0.000134477 0)
(1.38196e-05 0.000280789 0)
(1.36611e-05 0.000258021 0)
(3.51048e-05 0.000675388 0)
(2.2599e-05 0.000454378 0)
(1.95936e-05 0.000403491 0)
(3.53129e-05 0.000709087 0)
(2.96306e-05 0.000556827 0)
(4.73552e-05 0.000894588 0)
(4.44059e-05 0.00087055 0)
(4.55585e-05 0.000917972 0)
(1.82089e-05 0.000386759 0)
(1.29377e-05 0.00027685 0)
(1.27015e-05 0.00026911 0)
(1.00475e-05 0.000207061 0)
(6.31364e-06 0.000131881 0)
(1.91412e-05 0.000348866 0)
(3.9261e-05 0.000718379 0)
(5.99536e-05 0.00115929 0)
(6.73724e-05 0.00125771 0)
(3.34453e-05 0.000698545 0)
(2.95201e-05 0.000604833 0)
(3.97457e-05 0.000816085 0)
(1.39171e-05 0.00029129 0)
(8.69512e-05 0.00170056 0)
(7.00112e-05 0.00138428 0)
(7.42756e-05 0.00142672 0)
(5.61532e-05 0.00112106 0)
(6.46541e-05 0.00131883 0)
(5.14352e-05 0.00105963 0)
(2.01115e-05 0.000438493 0)
(2.28029e-05 0.000490552 0)
(2.53009e-05 0.000551134 0)
(4.76572e-06 0.00010084 0)
(9.25497e-06 0.000195161 0)
(8.78062e-06 0.000186973 0)
(1.86928e-05 0.000326617 0)
(5.44593e-05 0.000998665 0)
(5.22107e-05 0.000926281 0)
(6.61053e-05 0.00119498 0)
(3.33446e-05 0.000593062 0)
(7.81255e-05 0.00158222 0)
(4.25497e-05 0.000894501 0)
(4.36382e-05 0.000943818 0)
(3.53217e-05 0.000752972 0)
(3.65304e-05 0.000805106 0)
(3.51272e-05 0.000761894 0)
(1.67738e-05 0.000361633 0)
(1.22264e-05 0.000264114 0)
(1.40245e-05 0.000305972 0)
(4.39076e-06 9.4048e-05 0)
(3.88811e-05 0.000668463 0)
(0.000103844 0.0018839 0)
(8.69721e-05 0.00163223 0)
(8.25872e-05 0.0014951 0)
(9.05964e-05 0.0018311 0)
(0.0001034 0.00204867 0)
(8.79926e-05 0.00187516 0)
(8.28212e-05 0.00182656 0)
(7.7159e-05 0.00165191 0)
(4.98509e-05 0.00110319 0)
(4.2455e-05 0.000940854 0)
(2.9314e-05 0.000632057 0)
(1.73964e-05 0.000383897 0)
(8.71741e-06 0.000189377 0)
(8.7997e-06 0.00018925 0)
(2.17568e-05 0.00036389 0)
(9.6338e-05 0.00155096 0)
(0.000121165 0.00199273 0)
(0.000104847 0.00176243 0)
(9.57679e-05 0.00167116 0)
(8.39794e-05 0.0014162 0)
(0.000126472 0.00231676 0)
(0.000104932 0.00199088 0)
(9.8948e-05 0.00204967 0)
(8.41641e-05 0.00174896 0)
(6.57144e-05 0.00141275 0)
(5.97615e-05 0.00132171 0)
(5.49576e-05 0.0011864 0)
(3.23862e-05 0.000736582 0)
(2.59098e-05 0.000591841 0)
(3.00001e-05 0.000671194 0)
(5.86397e-06 0.000126636 0)
(2.75e-06 5.94178e-05 0)
(2.67028e-05 0.000425875 0)
(2.91557e-05 0.000444956 0)
(4.66313e-05 0.000768132 0)
(6.07196e-05 0.000952861 0)
(7.01595e-05 0.00115031 0)
(7.37232e-05 0.00129264 0)
(6.10919e-05 0.00103957 0)
(0.00015223 0.00274801 0)
(0.000139142 0.00246154 0)
(0.000139513 0.00276641 0)
(0.000116781 0.00236136 0)
(0.000121753 0.00235145 0)
(4.40991e-05 0.000995973 0)
(5.27481e-05 0.00120108 0)
(9.68186e-05 0.00209482 0)
(3.72537e-05 0.000836879 0)
(2.37455e-05 0.000525119 0)
(3.01034e-05 0.000660169 0)
(1.95041e-05 0.000443168 0)
(1.88108e-05 0.000420847 0)
(2.36771e-05 0.000532309 0)
(9.60264e-06 0.000212899 0)
(9.60812e-06 0.000210857 0)
(1.29772e-05 0.000286172 0)
(5.95909e-06 0.000130378 0)
(6.17813e-06 0.000136294 0)
(4.66793e-06 0.000101432 0)
(1.75962e-06 3.82526e-05 0)
(9.90302e-05 0.00149291 0)
(0.000121312 0.00171986 0)
(0.000148351 0.00220015 0)
(0.000153143 0.00263211 0)
(0.000173722 0.0030229 0)
(0.000139088 0.00262392 0)
(0.000154833 0.00292046 0)
(0.000125256 0.0025959 0)
(0.000120915 0.00260993 0)
(0.000111133 0.00234979 0)
(0.000106441 0.00235443 0)
(9.27271e-05 0.00209012 0)
(8.06789e-05 0.00185244 0)
(7.34497e-05 0.00166139 0)
(6.86906e-05 0.00160529 0)
(5.30022e-05 0.00127131 0)
(5.7998e-05 0.00135402 0)
(6.06106e-05 0.00144763 0)
(3.95307e-05 0.00093831 0)
(3.10037e-05 0.000733515 0)
(3.66751e-05 0.000854951 0)
(1.41456e-05 0.00031948 0)
(1.38047e-05 0.000307567 0)
(9.46799e-06 0.000212306 0)
(9.05463e-06 0.000205725 0)
(5.44498e-06 0.000121232 0)
(3.11564e-06 6.80484e-05 0)
(4.71751e-05 0.000661272 0)
(5.36557e-05 0.000795196 0)
(8.20971e-05 0.00117946 0)
(8.9252e-05 0.00122844 0)
(0.000174414 0.00242838 0)
(0.000195546 0.00287574 0)
(0.000182127 0.00300063 0)
(0.000165515 0.00320721 0)
(0.000144683 0.00316614 0)
(0.000129254 0.00284274 0)
(0.000136436 0.00287044 0)
(6.60178e-05 0.00160173 0)
(8.85098e-05 0.00213847 0)
(0.000100468 0.00233686 0)
(9.8695e-05 0.00241779 0)
(4.34782e-05 0.00100558 0)
(3.76456e-05 0.000861854 0)
(3.34534e-05 0.000805823 0)
(1.4032e-05 0.000322509 0)
(2.01406e-05 0.000464523 0)
(4.6293e-06 0.000104211 0)
(2.9998e-06 6.63962e-05 0)
(3.33416e-06 7.32885e-05 0)
(1.35721e-06 2.96102e-05 0)
(5.66321e-07 1.23378e-05 0)
(1.31667e-06 2.88506e-05 0)
(6.19464e-05 0.000812616 0)
(0.000133847 0.00177056 0)
(0.000253424 0.00393868 0)
(0.000234467 0.00346312 0)
(0.000273917 0.00395047 0)
(0.00023683 0.00327675 0)
(0.00020072 0.00345473 0)
(0.000187387 0.00355693 0)
(0.000178423 0.00357021 0)
(0.000155371 0.00318804 0)
(0.000166287 0.00353636 0)
(0.000112202 0.00266399 0)
(0.000107615 0.00269974 0)
(6.12086e-05 0.00154254 0)
(7.05754e-05 0.00174743 0)
(6.94414e-05 0.00177636 0)
(7.84991e-05 0.00195499 0)
(7.70258e-05 0.0020002 0)
(4.49178e-05 0.0010844 0)
(4.85735e-05 0.00119657 0)
(4.19099e-05 0.0010348 0)
(2.41218e-05 0.000563968 0)
(2.43792e-05 0.000581171 0)
(1.88299e-05 0.000447655 0)
(3.52394e-05 0.000881823 0)
(2.83952e-05 0.000709592 0)
(3.1195e-05 0.000765603 0)
(7.67003e-06 0.000176791 0)
(5.98523e-06 0.000142146 0)
(1.03124e-05 0.000241074 0)
(1.24961e-05 0.000296713 0)
(4.11832e-06 9.3889e-05 0)
(0.000310346 0.00464728 0)
(0.000280928 0.00454291 0)
(0.000285256 0.00363849 0)
(0.000242921 0.00292587 0)
(0.00031147 0.00368286 0)
(0.000234013 0.00431568 0)
(0.000208178 0.0037763 0)
(0.00023956 0.00406545 0)
(0.00020422 0.00395516 0)
(0.000189995 0.00395067 0)
(0.000139752 0.00326034 0)
(0.000155522 0.00349491 0)
(0.000122795 0.00297963 0)
(0.000115628 0.00299232 0)
(5.15652e-05 0.00130085 0)
(4.29664e-05 0.00108629 0)
(6.26324e-05 0.00173889 0)
(7.47075e-05 0.00204224 0)
(6.55406e-05 0.00190556 0)
(3.56088e-05 0.000917129 0)
(5.26958e-05 0.0013726 0)
(2.46115e-05 0.000606699 0)
(2.01005e-05 0.000487483 0)
(2.7466e-05 0.000663696 0)
(1.67423e-05 0.000391523 0)
(3.3201e-06 7.66298e-05 0)
(4.62597e-06 0.000108149 0)
(0.000290538 0.00394908 0)
(0.000342182 0.00450164 0)
(0.000316439 0.00442725 0)
(0.000252156 0.00477945 0)
(0.000273733 0.00478769 0)
(0.000277645 0.00517571 0)
(0.000115959 0.00262088 0)
(0.000127454 0.00292432 0)
(0.00025275 0.00513214 0)
(0.000267367 0.00568155 0)
(0.000234074 0.00528823 0)
(8.712e-05 0.00219769 0)
(8.41546e-05 0.00221141 0)
(6.11151e-05 0.00159987 0)
(4.66174e-05 0.00120119 0)
(4.1051e-05 0.00106534 0)
(4.43167e-05 0.00116953 0)
(3.59912e-05 0.000956841 0)
(1.81854e-05 0.000451153 0)
(1.56826e-05 0.00039759 0)
(1.28909e-05 0.000321473 0)
(8.56777e-06 0.000206657 0)
(1.46557e-05 0.000380361 0)
(1.01035e-05 0.000259188 0)
(5.91684e-05 0.000721809 0)
(0.00013545 0.00151028 0)
(0.00019348 0.00222154 0)
(0.000122177 0.00144562 0)
(0.00037524 0.00421915 0)
(0.000365694 0.00445436 0)
(0.000323545 0.00523864 0)
(0.000358407 0.00533851 0)
(0.000381801 0.00592054 0)
(0.000284737 0.00314707 0)
(0.000446103 0.0051606 0)
(0.000348324 0.00600027 0)
(0.000105697 0.00294068 0)
(0.000100435 0.0026753 0)
(0.000123554 0.00331209 0)
(0.000140499 0.00360472 0)
(0.000134442 0.00372812 0)
(0.000215369 0.00475271 0)
(5.27285e-05 0.00146058 0)
(4.82207e-05 0.00129965 0)
(5.49891e-05 0.00147203 0)
(6.7647e-05 0.0018011 0)
(2.45665e-05 0.000653222 0)
(2.9755e-05 0.000779557 0)
(2.92806e-05 0.00078229 0)
(7.63392e-06 0.000189437 0)
(5.81128e-06 0.000142155 0)
(1.26332e-05 0.000309425 0)
(2.82148e-05 0.000721198 0)
(2.44251e-05 0.000637328 0)
(2.08081e-05 0.00053581 0)
(2.26642e-05 0.000570682 0)
(0.000108921 0.00136504 0)
(0.000361865 0.00504352 0)
(0.000194794 0.00207591 0)
(0.000160326 0.00158414 0)
(0.000282081 0.00284104 0)
(0.000452335 0.00484504 0)
(0.000383192 0.00396536 0)
(0.000287886 0.00679495 0)
(0.000248486 0.00590861 0)
(0.000298705 0.00626131 0)
(0.000112319 0.00380885 0)
(0.000134375 0.00405647 0)
(0.000129228 0.00433176 0)
(7.86195e-05 0.00225068 0)
(9.10795e-05 0.00258261 0)
(8.18312e-05 0.00243698 0)
(0.000181013 0.00518072 0)
(0.00021021 0.00530154 0)
(0.000209819 0.00568409 0)
(0.000299155 0.0057335 0)
(7.11885e-05 0.00216235 0)
(4.27123e-05 0.00118881 0)
(8.72637e-05 0.00236857 0)
(2.56944e-05 0.000694564 0)
(3.01494e-05 0.000820514 0)
(2.47053e-05 0.000679883 0)
(2.886e-05 0.000807378 0)
(3.48759e-05 0.000987341 0)
(2.9403e-05 0.00084328 0)
(9.4571e-06 0.000238496 0)
(5.02274e-06 0.000127906 0)
(4.48088e-06 0.000112414 0)
(1.88775e-05 0.000498447 0)
(1.25779e-05 0.000333004 0)
(5.72967e-06 0.00014806 0)
(6.82832e-05 0.000775122 0)
(9.48082e-05 0.00100073 0)
(0.000414137 0.00756142 0)
(0.000445209 0.00718377 0)
(0.000496538 0.00804001 0)
(0.000541977 0.00583972 0)
(0.000587498 0.0066802 0)
(0.000509935 0.00609312 0)
(0.000383639 0.00678138 0)
(0.000336781 0.00636513 0)
(0.000111863 0.00325483 0)
(0.000115773 0.00357056 0)
(9.88592e-05 0.00335016 0)
(8.79373e-05 0.00294136 0)
(0.000101302 0.003181 0)
(0.000155504 0.00460212 0)
(0.000205055 0.00490919 0)
(9.16476e-05 0.00278867 0)
(7.68972e-05 0.00240726 0)
(3.93511e-05 0.00113123 0)
(4.62093e-05 0.00132868 0)
(5.50623e-05 0.00158785 0)
(5.54065e-05 0.00166297 0)
(2.04437e-05 0.00056742 0)
(1.9954e-05 0.000541515 0)
(2.37823e-05 0.000682111 0)
(3.57521e-05 0.000982367 0)
(1.011e-05 0.000272697 0)
(1.51178e-05 0.000405982 0)
(1.38852e-05 0.000379097 0)
(4.23109e-06 0.000110885 0)
(9.17391e-06 0.000239574 0)
(7.27355e-06 0.000193189 0)
(0.000421809 0.00540306 0)
(0.000444191 0.00659106 0)
(0.00051331 0.00742678 0)
(0.000672078 0.00704305 0)
(0.000224554 0.00190527 0)
(0.000373538 0.00321716 0)
(0.000260934 0.00241442 0)
(0.000392743 0.0037082 0)
(0.000534477 0.00467078 0)
(0.000506541 0.00497997 0)
(0.000310827 0.00805801 0)
(0.00035425 0.00772842 0)
(0.000373817 0.00865435 0)
(0.000228516 0.00625311 0)
(8.97357e-05 0.0034692 0)
(0.000105243 0.00403406 0)
(8.57292e-05 0.00376175 0)
(0.000243885 0.00693583 0)
(6.44129e-05 0.00230945 0)
(7.66327e-05 0.00254499 0)
(7.42602e-05 0.0027012 0)
(3.96675e-05 0.00117636 0)
(6.39432e-05 0.00210534 0)
(5.37267e-05 0.00175206 0)
(5.98961e-05 0.00185684 0)
(3.27415e-05 0.000958864 0)
(0.00012279 0.00111871 0)
(0.000645131 0.00752849 0)
(0.000564628 0.00689558 0)
(0.000597896 0.00848931 0)
(0.00106847 0.00999948 0)
(0.000910824 0.00935831 0)
(0.000972636 0.00877559 0)
(0.000331149 0.00259945 0)
(0.000156245 0.0012156 0)
(0.000654283 0.00505756 0)
(0.000856133 0.00669149 0)
(0.000707765 0.00605931 0)
(0.000236206 0.00763973 0)
(0.000212644 0.00696513 0)
(0.000450793 0.00852817 0)
(7.04673e-05 0.00289577 0)
(8.43152e-05 0.00307691 0)
(0.00014734 0.00496199 0)
(0.000180351 0.00570876 0)
(0.000143442 0.00541583 0)
(0.000119437 0.00451554 0)
(0.000119506 0.00491184 0)
(0.000198742 0.0064436 0)
(0.000171604 0.00680549 0)
(0.000154359 0.00600026 0)
(6.09009e-05 0.00242254 0)
(4.84389e-05 0.00152296 0)
(3.96087e-05 0.0012252 0)
(4.7443e-05 0.00141884 0)
(4.46945e-05 0.00149565 0)
(1.62923e-05 0.000451788 0)
(9.99917e-06 0.000273802 0)
(1.79388e-05 0.000508608 0)
(1.87941e-05 0.000545487 0)
(3.16364e-06 8.41318e-05 0)
(4.4228e-06 0.000119405 0)
(0.000549675 0.00894178 0)
(0.000718723 0.00675109 0)
(0.000819228 0.00798246 0)
(0.000617612 0.0057122 0)
(0.000612835 0.0060709 0)
(0.000100161 0.0008439 0)
(0.000477157 0.00382853 0)
(0.00105488 0.00738247 0)
(0.0012307 0.00910434 0)
(0.00102348 0.00818417 0)
(0.000113887 0.00806483 0)
(0.000158026 0.00752187 0)
(0.000203516 0.00845165 0)
(0.000451197 0.00938804 0)
(0.000369215 0.00945957 0)
(0.000118771 0.006155 0)
(9.48898e-05 0.0042991 0)
(6.80341e-05 0.00370323 0)
(0.000123402 0.00680606 0)
(0.000113109 0.00541378 0)
(5.29049e-05 0.00204547 0)
(4.66257e-05 0.0020516 0)
(4.17002e-05 0.00170276 0)
(3.533e-05 0.00121952 0)
(3.81218e-05 0.00124037 0)
(4.11867e-05 0.00147262 0)
(1.26285e-05 0.000360271 0)
(9.2357e-06 0.000263753 0)
(1.01832e-05 0.000287309 0)
(7.43525e-06 0.000208057 0)
(4.24751e-06 0.000118235 0)
(7.238e-06 0.000199897 0)
(2.63465e-05 0.000791261 0)
(2.17957e-05 0.000643417 0)
(2.67762e-05 0.000782952 0)
(2.35794e-05 0.000768575 0)
(2.51319e-05 0.000783587 0)
(3.137e-05 0.000998158 0)
(0.0005984 0.00979716 0)
(0.000516955 0.00934618 0)
(0.00114009 0.0110749 0)
(0.00105023 0.0113594 0)
(0.0010182 0.0104647 0)
(0.00114373 0.00955369 0)
(0.00122394 0.0107127 0)
(0.000266504 0.00189476 0)
(0.000476881 0.0034824 0)
(0.00043796 0.00286224 0)
(0.00018047 0.00114431 0)
(0.000963629 0.00540154 0)
(0.00126544 0.0066408 0)
(0.00116468 0.00704909 0)
(0.000266655 0.00948686 0)
(0.0002946 0.00865583 0)
(4.23808e-05 0.00252467 0)
(3.738e-05 0.00281048 0)
(2.71235e-05 0.00209748 0)
(5.60264e-05 0.00248986 0)
(3.94458e-05 0.00415869 0)
(6.01583e-05 0.00478684 0)
(3.54455e-05 0.0049133 0)
(7.04329e-05 0.00435816 0)
(8.92313e-05 0.00716087 0)
(7.73241e-05 0.00632362 0)
(7.43755e-05 0.00549087 0)
(3.4204e-05 0.00156935 0)
(2.93842e-05 0.00098361 0)
(2.33164e-05 0.00088576 0)
(2.66482e-05 0.000946304 0)
(3.1923e-05 0.0011785 0)
(9.94082e-06 0.000287792 0)
(1.45493e-05 0.000421485 0)
(6.76099e-06 0.00019173 0)
(7.09604e-06 0.000193595 0)
(3.71332e-06 0.000101987 0)
(1.91429e-05 0.000584206 0)
(1.33935e-05 0.000406895 0)
(1.57474e-05 0.000467 0)
(1.12011e-05 0.000362662 0)
(1.80861e-05 0.000575477 0)
(1.59776e-05 0.000531626 0)
(0.000837914 0.0108299 0)
(0.00080585 0.0113936 0)
(0.000716033 0.0103768 0)
(0.00144034 0.0125424 0)
(0.00155021 0.0135055 0)
(0.00140332 0.0133328 0)
(0.00170334 0.0109114 0)
(0.0015734 0.00963196 0)
(0.0017731 0.0103185 0)
(0.000897232 0.0057361 0)
(0.000652077 0.00388754 0)
(0.000286561 0.0104142 0)
(0.000203256 0.00994031 0)
(-4.40798e-05 0.00805576 0)
(2.6133e-05 0.00912261 0)
(-0.000100585 0.00912735 0)
(0.000537431 0.0100661 0)
(0.000568413 0.0110001 0)
(0.000458316 0.0102105 0)
(5.15242e-05 0.00377951 0)
(5.39446e-05 0.00307911 0)
(5.6609e-05 0.00276951 0)
(3.18074e-05 0.00134084 0)
(3.38931e-05 0.00755083 0)
(2.88164e-05 0.00659269 0)
(3.13092e-05 0.00569899 0)
(2.4813e-05 0.00115094 0)
(2.13487e-05 0.000732111 0)
(3.69883e-05 0.00142765 0)
(2.80305e-05 0.00111459 0)
(8.67838e-06 0.000266307 0)
(1.00429e-05 0.000300274 0)
(6.15794e-06 0.000182492 0)
(8.81036e-06 0.000258909 0)
(4.9632e-06 0.000139555 0)
(1.29833e-05 0.000405196 0)
(1.37716e-05 0.000482322 0)
(0.000792361 0.0125787 0)
(0.000871834 0.0122147 0)
(0.000908674 0.0130143 0)
(0.00159404 0.0129391 0)
(0.00172954 0.0128044 0)
(0.00169767 0.0136563 0)
(0.00144663 0.00821693 0)
(0.00170993 0.00925468 0)
(0.000750904 0.00397032 0)
(0.000453134 0.00242281 0)
(0.000353316 0.00208256 0)
(0.00160991 0.00778456 0)
(0.00135278 0.00619717 0)
(0.00160975 0.0064902 0)
(0.000366969 0.0102547 0)
(0.000141016 0.00910098 0)
(0.000108816 0.0100179 0)
(0.000426469 0.0125482 0)
(0.000431266 0.0131999 0)
(0.000310694 0.0128257 0)
(1.45553e-05 0.00431448 0)
(3.46587e-05 0.00205452 0)
(3.49494e-05 0.00180811 0)
(2.51901e-05 0.00132037 0)
(-9.47228e-06 0.00392892 0)
(1.36168e-05 0.0036176 0)
(-0.000148228 0.00807275 0)
(-0.000132159 0.00701491 0)
(-2.0696e-05 0.0058789 0)
(-6.81148e-06 0.00489046 0)
(1.8766e-05 0.000682228 0)
(9.53724e-06 0.000404579 0)
(7.24801e-06 0.000280195 0)
(1.50921e-05 0.000585837 0)
(3.58482e-06 0.000105593 0)
(5.89212e-06 0.000171755 0)
(6.69295e-06 0.00019229 0)
(4.85167e-06 0.000138569 0)
(3.48067e-06 0.000100265 0)
(1.54049e-06 4.37495e-05 0)
(3.92898e-06 0.000111366 0)
(3.20847e-06 9.15787e-05 0)
(2.48083e-06 6.97063e-05 0)
(6.78492e-06 0.000244511 0)
(7.58219e-06 0.00025694 0)
(0.00147556 0.0111784 0)
(0.00138332 0.0114603 0)
(0.00132424 0.010393 0)
(0.00132767 0.00864983 0)
(0.00146971 0.0102378 0)
(0.00206724 0.013122 0)
(0.00190639 0.0131911 0)
(0.00185561 0.0121873 0)
(0.001865 0.00908293 0)
(0.000645918 0.00307196 0)
(0.000448753 0.00185176 0)
(0.00085246 0.00360629 0)
(0.000110393 0.0114063 0)
(4.53786e-05 0.0106359 0)
(0.000137398 0.0108209 0)
(5.39186e-05 0.00841126 0)
(0.000529504 0.01309 0)
(0.000513103 0.0137466 0)
(3.16292e-05 0.00330247 0)
(1.09006e-05 0.00284224 0)
(2.16536e-05 0.00250918 0)
(1.55881e-05 0.00139216 0)
(1.44664e-05 0.00181021 0)
(1.30077e-05 0.00095691 0)
(2.39389e-05 0.00152625 0)
(-5.57277e-05 0.00510546 0)
(-4.0071e-05 0.00423635 0)
(-8.50333e-05 0.00600063 0)
(-3.67911e-05 0.00687693 0)
(1.94725e-05 0.000798708 0)
(1.69973e-05 0.000767462 0)
(5.22616e-06 0.00015772 0)
(3.04219e-06 9.06547e-05 0)
(3.44027e-06 0.000106396 0)
(2.04432e-06 5.8486e-05 0)
(2.4724e-06 7.21078e-05 0)
(5.15377e-06 0.000168132 0)
(6.94422e-06 0.000219527 0)
(0.00105605 0.0163184 0)
(0.00114204 0.0159575 0)
(0.00119427 0.0165852 0)
(0.00151423 0.014259 0)
(0.00135435 0.0139551 0)
(0.00221999 0.0178626 0)
(0.0021861 0.0171998 0)
(0.00233976 0.0176249 0)
(0.00191049 0.0112943 0)
(0.00203384 0.0121899 0)
(0.00195352 0.00828334 0)
(0.00205781 0.00964424 0)
(0.000309343 0.00149207 0)
(0.00146338 0.00476359 0)
(0.00120925 0.00489403 0)
(-7.11418e-05 0.0132049 0)
(-0.000238649 0.0129046 0)
(-0.000181204 0.01223 0)
(-1.883e-06 0.00987309 0)
(0.000599084 0.016511 0)
(0.000636298 0.0159425 0)
(0.000745171 0.016545 0)
(8.07547e-06 0.00210743 0)
(-3.37179e-06 0.00230646 0)
(-6.96107e-07 0.00155292 0)
(-1.94193e-05 0.00249408 0)
(-6.2672e-06 0.00309929 0)
(1.651e-05 0.000843566 0)
(1.60447e-05 0.000957369 0)
(-2.97144e-05 0.00335146 0)
(-0.000155216 0.00586565 0)
(-0.000221739 0.00548049 0)
(-0.000156146 0.00492754 0)
(8.11069e-06 0.000460101 0)
(8.38531e-06 0.000407458 0)
(1.23122e-05 0.000454312 0)
(7.20722e-07 2.0606e-05 0)
(1.45356e-06 4.20628e-05 0)
(1.21995e-06 3.5059e-05 0)
(0.0016935 0.0185748 0)
(0.00158054 0.017968 0)
(0.00170618 0.0178633 0)
(0.00185612 0.0138227 0)
(0.00202496 0.0139562 0)
(0.00244753 0.0110888 0)
(0.00235426 0.0120158 0)
(0.00220749 0.0107468 0)
(0.00227327 0.00965793 0)
(0.00087196 0.00306482 0)
(0.00101676 0.0048891 0)
(-0.000422285 0.0108491 0)
(-0.000266803 0.0112654 0)
(-0.000366231 0.0119813 0)
(-0.000322847 0.0102171 0)
(-0.000464175 0.0097578 0)
(-0.000355121 0.00897743 0)
(-0.000321234 0.00786904 0)
(-0.000229982 0.00855631 0)
(0.000976913 0.0167155 0)
(0.000883268 0.0171345 0)
(0.000857888 0.016485 0)
(6.00382e-06 0.0015052 0)
(-2.36789e-05 0.00179795 0)
(-1.04896e-05 0.00164952 0)
(7.67863e-06 0.00113287 0)
(7.3654e-06 0.00073379 0)
(8.59389e-06 0.000568799 0)
(-4.13918e-05 0.00269661 0)
(-7.14829e-05 0.00289675 0)
(-4.0404e-05 0.00191402 0)
(-0.000233165 0.00744654 0)
(-0.000109878 0.00403053 0)
(-0.000178736 0.0041335 0)
(-0.000109853 0.00299648 0)
(0.00169468 0.0164646 0)
(0.00183456 0.0162476 0)
(0.00183589 0.0169648 0)
(0.00270398 0.0116363 0)
(0.00256362 0.0102384 0)
(0.00203311 0.00404065 0)
(0.00188152 0.00517907 0)
(0.00153458 0.00374182 0)
(0.00298038 0.00911774 0)
(0.00303687 0.00774118 0)
(0.00322785 0.0091267 0)
(0.000398602 0.00137105 0)
(0.00104699 0.00287807 0)
(-0.000179923 0.014403 0)
(-0.000245911 0.0136165 0)
(-0.00010882 0.0139174 0)
(-9.4196e-05 0.015067 0)
(-9.87323e-06 0.0147026 0)
(1.61898e-06 0.000902915 0)
(-3.49524e-06 0.000829661 0)
(-9.89345e-06 0.000896305 0)
(2.49945e-06 0.000450542 0)
(5.82231e-06 0.00045654 0)
(-0.000592437 0.00562151 0)
(-0.000406913 0.00531447 0)
(-0.000501728 0.00671536 0)
(-0.000279491 0.00485997 0)
(-0.000218741 0.00366375 0)
(0.000733731 0.0217614 0)
(0.000722196 0.022239 0)
(0.000579125 0.0218508 0)
(0.00160033 0.0200685 0)
(0.00159032 0.0206354 0)
(0.00145908 0.0202143 0)
(0.00374831 0.0163482 0)
(0.00394459 0.0157333 0)
(0.00394244 0.0167589 0)
(0.00268981 0.00911025 0)
(0.00258708 0.00763772 0)
(0.00280784 0.00810874 0)
(0.00255618 0.00514584 0)
(0.00231589 0.00624741 0)
(0.00292753 0.00600976 0)
(0.00271027 0.00682478 0)
(0.00059242 0.00175712 0)
(0.00115897 0.00246158 0)
(0.00153062 0.00274309 0)
(-0.000680862 0.0126694 0)
(-0.00089034 0.012198 0)
(-0.000798454 0.0115834 0)
(-0.00016665 0.0134167 0)
(0.000464043 0.0234255 0)
(0.000279127 0.022961 0)
(0.000440527 0.0228918 0)
(-3.4974e-05 0.000970183 0)
(-6.09857e-05 0.00196738 0)
(-8.22194e-05 0.00190624 0)
(-1.93269e-05 0.00110475 0)
(-0.000216977 0.00649733 0)
(-0.000331074 0.00650631 0)
(-0.00057862 0.00797343 0)
(-0.000432689 0.00779647 0)
(-0.000145571 0.00282562 0)
(0.00267963 0.0222092 0)
(0.00282479 0.0226689 0)
(0.00261412 0.0228852 0)
(0.00302996 0.0209833 0)
(0.00324289 0.0204709 0)
(0.00318696 0.0212328 0)
(0.00444202 0.00726988 0)
(0.00430172 0.00845757 0)
(0.00420833 0.00710019 0)
(0.00281177 0.00453693 0)
(0.00246985 0.0030663 0)
(0.000612778 0.00136531 0)
(0.000469089 0.000697532 0)
(0.00177062 0.00183288 0)
(-0.00120629 0.0144039 0)
(-0.00139637 0.0139482 0)
(-0.00136401 0.013312 0)
(-0.00146792 0.00895246 0)
(-0.00124873 0.00941739 0)
(-0.00137542 0.0101233 0)
(-0.000362774 0.0181614 0)
(-0.000514703 0.0181097 0)
(-0.000519153 0.0176476 0)
(0.00154278 0.0236846 0)
(0.00131699 0.0237706 0)
(0.00136665 0.0232736 0)
(-0.00016892 0.0185242 0)
(-0.000249565 0.0177797 0)
(-4.53663e-05 0.0182327 0)
(-2.47366e-05 0.000980235 0)
(-0.000345889 0.00261682 0)
(-0.000417779 0.00407907 0)
(-0.000562852 0.00409245 0)
(-0.000956619 0.00544438 0)
(-0.000978198 0.00404689 0)
(-0.000734659 0.00400499 0)
(-8.94742e-05 0.00156229 0)
(-0.000176849 0.00247227 0)
(0.0013311 0.0256484 0)
(0.00134597 0.0252534 0)
(0.00149242 0.0255917 0)
(0.00456037 0.0232847 0)
(0.00452655 0.0227141 0)
(0.00470479 0.022709 0)
(0.00490597 0.0128493 0)
(0.00477571 0.0142379 0)
(0.00469731 0.0129464 0)
(0.00532928 0.0180126 0)
(0.00542901 0.0169904 0)
(0.00556371 0.017324 0)
(0.00242488 -0.0019989 0)
(0.00228874 0.000480928 0)
(0.00194614 -0.00133687 0)
(0.00283187 0.001814 0)
(0.00323616 0.0030734 0)
(0.00290946 0.00349104 0)
(0.00106593 0.00149825 0)
(0.000628838 0.000376775 0)
(0.00124387 0.000712577 0)
(-0.00238529 0.00776158 0)
(-0.00234079 0.00875677 0)
(-0.00252346 0.00817568 0)
(-0.00131539 0.00813577 0)
(-0.000193826 0.0246255 0)
(-4.51859e-05 0.025083 0)
(-0.000261586 0.0249299 0)
(-0.00223226 0.0185813 0)
(-0.00198175 0.0195606 0)
(-0.00218329 0.0193776 0)
(-4.29523e-05 0.000905279 0)
(-0.000261557 0.0027095 0)
(-0.000743263 0.00519143 0)
(-0.000121518 0.00134787 0)
(-7.85769e-05 0.00109216 0)
(0.00289279 0.02637 0)
(0.00293205 0.0267928 0)
(0.00275621 0.0266999 0)
(0.00434201 0.0188528 0)
(0.00451329 0.0188927 0)
(0.00435485 0.019553 0)
(0.00410294 0.0277749 0)
(0.00400357 0.0275672 0)
(0.00414485 0.0273183 0)
(0.00457799 0.00973498 0)
(0.00475017 0.00877036 0)
(0.00472855 0.010511 0)
(0.00585651 0.002286 0)
(0.00603916 0.00117242 0)
(0.00608007 0.00306303 0)
(0.00348201 0.00210706 0)
(0.00355 0.000569515 0)
(0.0038004 0.0022201 0)
(0.00163271 -3.92089e-06 0)
(0.0035054 -0.00729293 0)
(0.00380639 -0.00563589 0)
(0.00353836 -0.00516728 0)
(0.00102656 -0.00026879 0)
(-0.0010167 0.0154077 0)
(-0.00112235 0.0158149 0)
(-0.00120276 0.0151055 0)
(-0.0018387 0.011214 0)
(-0.001952 0.0118833 0)
(-0.00204278 0.0107703 0)
(-0.00216925 0.00383006 0)
(-0.00215743 0.00511708 0)
(-0.00243181 0.0043461 0)
(-0.00197635 0.0168613 0)
(-0.0021898 0.0157437 0)
(-0.001994 0.0161586 0)
(-0.00102517 0.0245478 0)
(-0.000825155 0.0246115 0)
(-0.000802335 0.0250798 0)
(-0.000274619 0.0014954 0)
(-0.000160822 0.00116757 0)
(-0.000509636 0.00293917 0)
(-0.000615927 0.00242619 0)
(-0.00124978 0.00405881 0)
(-0.00155184 0.00461343 0)
(-0.00141636 0.00312873 0)
(-0.0001807 0.00160092 0)
(0.000924408 0.028128 0)
(0.00100346 0.0278759 0)
(0.00110886 0.0282559 0)
(0.00391993 0.0282717 0)
(0.00381927 0.028721 0)
(0.00371248 0.0285498 0)
(0.00651766 0.0231721 0)
(0.00665592 0.0227869 0)
(0.00653367 0.0234435 0)
(0.0040835 0.0268193 0)
(0.00425959 0.02655 0)
(0.00415972 0.0269759 0)
(0.00719396 0.0151503 0)
(0.00707628 0.0151628 0)
(0.00719121 0.0142831 0)
(0.00663326 0.010986 0)
(0.00667705 0.00956251 0)
(0.00677369 0.00986946 0)
(0.00187916 -0.0036573 0)
(0.00176575 -0.00618553 0)
(0.00229936 -0.00670702 0)