/*--------------------------------*- C++ -*----------------------------------*\
| =========                 |                                                 |
| \\      /  F ield         | OpenFOAM: The Open Source CFD Toolbox           |
|  \\    /   O peration     | Version:  v2012                                 |
|   \\  /    A nd           | Website:  www.openfoam.com                      |
|    \\/     M anipulation  |                                                 |
\*---------------------------------------------------------------------------*/
FoamFile
{
    version     2.0;
    format      ascii;
    class       surfaceVectorField;
    location    "1.4";
    object      Uf;
}
// * * * * * * * * * * * * * * * * * * * * * * * * * * * * * * * * * * * * * //

dimensions      [0 1 -1 0 0 0 0];


internalField   nonuniform List<vector> 
21888
(
(8.09841 -0.0439166 0)
(8.13928 -0.0157701 0)
(8.02761 -0.0608016 1.09727e-23)
(8.0572 -0.0598082 -7.62905e-24)
(8.13759 -0.0167371 0)
(8.09535 -0.0182657 -1.58493e-24)
(8.01627 -0.0358785 3.51734e-21)
(7.99755 -0.0534198 -1.87632e-21)
(8.09951 -0.106333 6.67466e-20)
(8.06044 -0.051277 -7.57264e-24)
(8.15626 -0.0322989 5.38895e-24)
(8.02295 -0.0268208 5.16104e-22)
(8.0149 -0.0540309 1.75722e-23)
(7.99896 -0.0335207 2.32682e-21)
(8.06542 -0.144565 -3.56037e-20)
(8.03417 -0.0474524 1.42297e-21)
(8.04515 -0.0606981 2.4743e-21)
(8.09857 -0.0425458 5.14839e-25)
(8.17835 -0.0256379 4.43033e-21)
(8.01593 -0.0358904 5.37974e-23)
(7.98341 -0.020227 -3.57575e-24)
(8.00707 -0.0427458 9.23873e-21)
(8.01247 -0.0178431 1.83117e-21)
(7.99165 -0.0165885 -2.76995e-24)
(8.12155 -0.106963 -9.19783e-25)
(8.06526 -0.0726292 1.39495e-24)
(8.03498 -0.0708952 1.23788e-20)
(8.03475 -0.0780038 -8.74051e-24)
(8.00689 -0.0299092 -5.17188e-24)
(8.20045 -0.0154551 2.9749e-22)
(7.9785 -0.0164606 -2.54876e-24)
(7.97374 -0.0150175 3.1642e-25)
(8.02103 -0.0563792 -3.22675e-24)
(8.01996 -0.0395558 6.33881e-24)
(8.02891 -0.0158581 1.32854e-21)
(8.0349 -0.0133538 -7.84449e-24)
(8.00332 -0.0151012 -6.77301e-22)
(8.07269 -0.0888435 2.7013e-24)
(8.04724 -0.0562462 5.307e-24)
(8.03609 -0.07385 8.88003e-22)
(7.97508 -0.024581 5.68235e-23)
(8.0029 -0.025185 -3.06776e-21)
(8.12157 -0.0219059 8.40027e-23)
(8.20368 -0.0210805 5.77253e-24)
(7.97427 -0.0168743 -1.5339e-24)
(7.98743 -0.0161201 -6.76808e-23)
(8.03461 -0.0256858 -7.39193e-22)
(8.04897 -0.0335446 3.54708e-24)
(8.04073 -0.0151775 -2.13091e-22)
(8.04008 -0.0125368 1.02143e-21)
(8.03611 -0.0119183 1.57356e-22)
(8.00383 -0.0141498 -2.26106e-24)
(8.02393 -0.0122195 2.05989e-24)
(8.06592 -0.0620658 -4.79035e-22)
(8.09084 -0.060539 2.3902e-24)
(8.04416 -0.0679522 -4.32888e-21)
(8.03753 -0.0535984 7.15314e-24)
(8.0571 -0.0608311 -4.51162e-21)
(7.9672 -0.0221815 1.23427e-21)
(8.01294 -0.0361805 -1.28722e-21)
(8.21681 -0.0268481 1.141e-20)
(8.0007 -0.0122514 3.22609e-24)
(8.06278 -0.0410278 2.9491e-21)
(8.05939 -0.0266298 7.05074e-25)
(8.04598 -0.0111183 1.8027e-25)
(8.04797 -0.0130708 5.43377e-24)
(8.04202 -0.00970984 -7.9555e-24)
(8.03767 -0.0073553 7.49898e-22)
(8.03465 -0.0110712 -1.17595e-21)
(8.03411 -0.0082607 1.36148e-23)
(8.03345 -0.00826521 7.486e-24)
(8.03753 -0.0546997 -7.43276e-21)
(8.05523 -0.0532914 -4.1291e-24)
(8.04783 -0.0491015 -9.115e-24)
(8.04145 -0.0504955 4.78429e-24)
(8.08061 -0.0434532 -6.24439e-24)
(7.95592 -0.0265856 1.64694e-21)
(7.97561 -0.016218 2.94243e-25)
(7.97193 -0.0370009 -5.10967e-24)
(8.01475 -0.0385828 -7.72615e-25)
(8.11075 -0.031442 1.3779e-24)
(8.19869 -0.0311703 -7.75607e-24)
(7.99869 -0.0120109 -2.58652e-21)
(8.01737 -0.00900958 5.14001e-24)
(8.05415 -0.0177991 2.64532e-24)
(8.06354 -0.0204014 0)
(8.045 -0.00676525 1.59624e-22)
(8.05214 -0.010017 -1.41445e-23)
(8.0334 -0.00563034 4.77844e-22)
(8.03437 -0.00380672 1.01646e-23)
(8.03198 -0.0060899 9.56196e-24)
(8.0326 -0.00711741 8.42619e-22)
(8.03334 -0.00672375 3.22757e-24)
(8.0515 -0.0607366 -7.07451e-25)
(8.05328 -0.0616465 -1.59996e-21)
(8.05033 -0.0648396 1.1857e-22)
(8.02874 -0.0544298 -7.31822e-21)
(8.0522 -0.0533996 4.99495e-21)
(8.06963 -0.0468612 7.31489e-25)
(8.09486 -0.0377991 1.89762e-21)
(8.08484 -0.0262361 -8.54645e-24)
(7.9435 -0.0229653 -4.49272e-24)
(7.99518 -0.014034 -9.21948e-22)
(7.98394 -0.0311109 0)
(8.21115 -0.0262334 -1.24509e-20)
(8.03355 -0.00951693 -3.08021e-22)
(8.072 -0.0190354 -5.32617e-24)
(8.06575 -0.0121606 0)
(8.0463 -0.00306999 2.32668e-24)
(8.04117 -0.00136682 -3.21156e-24)
(8.05091 -0.00516067 7.34952e-24)
(8.05561 -0.00683526 2.33035e-24)
(8.03675 -0.000905168 -9.05312e-25)
(8.0314 -0.000105342 6.4178e-25)
(8.02968 -0.00467532 -2.82133e-24)
(8.05606 -0.0605571 1.94778e-24)
(8.05688 -0.0621157 -2.03697e-24)
(8.00498 -0.0332578 -7.5298e-24)
(8.11085 -0.0333694 -7.57677e-25)
(8.08221 -0.014917 6.01318e-22)
(7.93693 -0.0164437 0)
(7.95376 -0.0177061 -5.33097e-26)
(8.01509 -0.0138278 -2.04786e-22)
(7.99718 -0.0132075 3.17327e-24)
(7.94995 -0.017836 1.63995e-24)
(8.08951 -0.022842 1.09934e-21)
(8.23045 -0.0184982 -6.12205e-21)
(8.0307 -0.0116127 2.40384e-22)
(8.03042 -0.00817838 -5.02602e-23)
(8.05986 -0.00794559 0)
(8.06702 -0.00646906 8.36291e-25)
(8.04522 -0.00113605 4.49807e-22)
(8.0363 0.00272363 -1.2409e-22)
(8.05461 -0.00355899 0)
(8.03005 0.00245626 5.89763e-24)
(8.02884 0.00130093 5.43165e-25)
(8.02645 -0.00537112 6.82142e-22)
(8.02617 -0.00275347 -3.34113e-24)
(8.09385 -0.0485601 0)
(8.06289 -0.0555593 1.77953e-24)
(8.06002 -0.04961 3.90211e-22)
(8.06527 -0.0506993 2.17316e-24)
(8.04809 -0.0365564 -1.11857e-21)
(8.0157 -0.0570494 3.49547e-20)
(8.1238 -0.0326049 0)
(8.11653 -0.0226736 -7.14832e-24)
(8.0947 -0.0124336 7.67013e-22)
(8.08731 -0.00342934 -6.16658e-24)
(7.98277 -0.0153483 -4.65062e-26)
(7.97032 -0.0183871 5.65621e-22)
(8.02927 -0.0100167 -5.46492e-23)
(8.0083 -0.010293 0)
(7.95497 -0.0130969 -3.42878e-25)
(7.95232 -0.0186721 -2.4857e-21)
(7.96303 -0.0160668 -6.55079e-24)
(8.23937 -0.00427104 6.62146e-21)
(8.02297 -0.00513251 -6.54786e-24)
(8.06965 -6.34138e-05 8.01393e-25)
(8.06172 0.00107089 4.62637e-22)
(8.04451 0.00104619 1.20636e-22)
(8.03964 0.00174182 -1.61211e-22)
(8.03483 0.00444022 -1.9142e-24)
(8.03295 0.00395913 -3.05896e-22)
(8.05395 0.00174526 7.58227e-25)
(8.0492 0.00118039 -2.39795e-24)
(8.03099 0.00385653 3.3654e-23)
(8.02978 0.00401222 -1.10711e-22)
(8.0269 0.000287797 4.20332e-27)
(8.02828 0.00299225 2.46766e-24)
(8.02388 -0.000918908 -1.26483e-22)
(8.13985 -0.0296163 -3.57904e-24)
(8.05893 -0.0444517 -2.21915e-21)
(8.06 -0.0361746 1.67344e-24)
(7.95116 -0.131024 -5.78634e-20)
(8.10802 -0.0125273 1.34446e-21)
(8.07996 0.000722361 0)
(8.08905 0.00214722 -4.27157e-24)
(7.96746 -0.0164524 2.5565e-24)
(7.99111 -0.0128733 1.43746e-25)
(8.02636 -0.00766835 7.58094e-25)
(8.02749 -0.00654403 -1.21432e-24)
(8.01753 -0.00838539 0)
(7.96099 -0.0110579 6.14059e-24)
(7.97211 -0.0120581 -7.97336e-21)
(7.93508 -0.0155199 1.60416e-21)
(8.12371 -0.00652799 -2.70259e-22)
(8.26204 0.0154726 -5.49261e-24)
(8.02096 -0.0044284 -9.41539e-22)
(8.01978 -0.00304268 -3.1808e-24)
(8.06783 0.00873421 1.02796e-24)
(8.05714 0.00762106 3.76385e-24)
(8.04596 0.00535304 6.77941e-24)
(8.03583 0.00485867 -3.81847e-24)
(8.03889 0.00658691 4.19149e-22)
(8.03436 0.00632982 1.97829e-24)
(8.03154 0.00566003 4.34943e-23)
(8.02833 0.00438011 -2.99733e-22)
(8.02082 -0.00101917 -1.23989e-25)
(8.02275 0.00137594 -1.29246e-25)
(8.14895 -0.0220781 2.85739e-22)
(8.14457 -0.0253436 3.02436e-25)
(8.05029 -0.0384331 9.04798e-24)
(8.08049 -0.0348964 1.29275e-21)
(8.05445 -0.0497188 -1.17289e-21)
(8.03573 -0.11146 -1.10516e-23)
(7.98868 -0.0694809 -2.13612e-23)
(8.12117 -0.0162858 1.71774e-21)
(8.10693 -0.00604563 -1.50116e-23)
(8.08983 0.00540808 -1.69892e-23)
(8.07661 0.00979105 -8.10309e-22)
(8.01393 -0.00773189 -1.50014e-24)
(8.02 -0.00434107 1.02012e-22)
(7.9414 -0.00848874 7.30662e-25)
(7.9849 -0.00732665 6.45241e-22)
(7.98421 -0.00453378 2.63112e-24)
(7.93162 -0.00776517 -2.13631e-24)
(8.26215 0.0157334 0)
(8.01791 5.66767e-05 -5.50106e-24)
(8.06843 0.0118681 -4.26108e-22)
(8.06451 0.010958 -2.49124e-24)
(8.06168 0.0137747 -8.28909e-22)
(8.05683 0.0139534 4.71746e-27)
(8.04295 0.00890128 -1.62563e-22)
(8.04729 0.010404 -5.16626e-22)
(8.03987 0.010841 -3.13618e-24)
(8.03232 0.0073741 1.2146e-22)
(8.03379 0.00820739 2.21918e-24)
(8.03001 0.00797051 2.61557e-22)
(8.02644 0.00474093 -2.29374e-24)
(8.0273 0.00599016 -2.96018e-22)
(8.02427 0.00381514 -3.32245e-25)
(8.02145 0.00324792 -5.97122e-25)
(8.13837 -0.0114659 -7.77451e-24)
(8.13264 -0.00748877 -2.11023e-21)
(8.12581 -0.0714001 -1.21567e-24)
(8.07829 0.063454 -1.87153e-20)
(8.16039 -0.152221 -9.53833e-24)
(8.10124 0.00277891 -1.29425e-21)
(8.11192 0.00327136 -2.51659e-22)
(8.09294 0.0126163 7.02563e-22)
(8.07038 0.0146504 4.84959e-22)
(8.01305 -0.00709343 -1.19949e-23)
(8.01664 -0.00604454 1.77358e-22)
(8.01717 -0.00438316 -2.44697e-24)
(8.01692 -0.00117573 -1.32659e-22)
(8.00998 -0.00879995 1.19772e-21)
(7.99923 -0.00601244 -2.54578e-22)
(7.98909 0.0054885 -9.03078e-21)
(7.94155 -0.00307066 -4.9406e-25)
(7.96207 -0.00576744 2.60027e-24)
(7.92907 -0.00615324 -4.70045e-24)
(8.12404 0.0132929 -5.74008e-24)
(8.24158 -0.000270774 0)
(8.01657 0.000923012 2.54099e-22)
(8.01778 0.00167289 -5.60804e-24)
(8.06533 0.0171288 -1.18731e-21)
(8.05167 0.0139292 -4.13549e-22)
(8.05397 0.0184789 -4.2261e-24)
(8.0444 0.0156854 4.28684e-24)
(8.03592 0.0106781 1.38031e-23)
(8.03625 0.0130467 -7.35775e-23)
(8.03165 0.0115452 -1.37632e-24)
(8.02788 0.00738466 1.06737e-22)
(8.02799 0.00970005 -9.53485e-24)
(8.02391 0.00647177 -1.05003e-23)
(8.02547 0.00772416 -2.33992e-23)
(8.01934 0.00305707 -5.84715e-25)
(8.0197 0.00503323 -3.78769e-23)
(8.12812 0.00452819 -8.59229e-22)
(8.14653 -0.003608 -1.76779e-24)
(8.1633 -0.00798415 -3.22116e-24)
(8.14586 0.0160231 -3.3903e-24)
(8.18941 -0.0427655 0)
(8.15329 0.0293491 2.9223e-24)
(8.0909 0.0297976 2.86465e-24)
(8.21931 -0.126932 0)
(8.11507 0.013488 -4.86529e-24)
(8.0939 0.0211077 -1.05182e-23)
(8.08333 0.0222675 -1.49838e-23)
(8.07123 0.0188246 -1.23558e-23)
(8.07401 0.0206413 -1.48603e-23)
(8.00887 -0.00487388 -1.18544e-21)
(8.01316 -0.0029435 -1.93332e-24)
(8.01483 0.000411077 1.75729e-22)
(7.99773 -0.00565737 3.07258e-22)
(7.97086 0.0158525 8.80551e-21)
(7.93007 0.000626445 3.31118e-22)
(8.24965 -0.0262491 -5.52637e-24)
(8.0177 0.00284638 0)
(8.06866 0.0219351 -2.30541e-22)
(8.04779 0.0238579 -4.57075e-22)
(8.05408 0.0249477 -2.82764e-23)
(8.04158 0.021675 -3.2266e-24)
(8.03777 0.0182042 -1.5641e-23)
(8.03412 0.0162276 8.69358e-23)
(8.02956 0.0151016 -2.09236e-22)
(8.02794 0.0133628 2.21944e-25)
(8.0284 0.012335 -9.86307e-23)
(8.02738 0.0112467 1.94336e-23)
(8.02562 0.0106245 4.91215e-23)
(8.02317 0.00868203 7.10865e-23)
(8.02174 0.00821258 -7.4579e-23)
(8.02381 0.00964481 2.77061e-24)
(8.01993 0.00691406 -1.06253e-24)
(8.01819 0.00608193 -8.12018e-23)
(8.14415 0.00138628 0)
(8.1455 0.00159792 0)
(8.12941 0.0112755 0)
(8.16302 -0.00924074 -2.4085e-24)
(7.90432 0.0608159 0)
(8.07823 -0.0525561 0)
(8.0509 0.159283 0)
(8.52589 0.0740225 0)
(8.10513 0.0202469 6.67446e-22)
(8.11682 0.0206852 -1.28726e-23)
(8.09789 0.0290862 -6.80842e-24)
(8.07877 0.0294321 -2.41331e-22)
(8.00883 -0.0018732 -5.4047e-24)
(8.00638 -0.00334713 -8.28122e-24)
(8.0128 -0.000239802 1.72461e-25)
(8.01129 -0.000861271 0)
(8.01493 0.000803578 1.92471e-25)
(8.003 -0.00582532 3.9274e-24)
(7.99646 -0.00573104 2.92419e-21)
(7.93703 0.0168583 -1.31729e-23)
(7.95595 0.0318987 -4.89197e-24)
(7.9624 0.00048469 -2.48037e-24)
(8.19801 -0.077486 -2.03557e-20)
(8.11233 0.0249585 -4.37154e-24)
(8.01648 0.00270964 1.6373e-24)
(8.01669 0.00420935 -4.35964e-24)
(8.06248 0.0263004 2.10327e-24)
(8.071 0.0285823 2.19371e-24)
(8.04031 0.0263065 4.61088e-24)
(8.0523 0.0314541 -2.0294e-24)
(8.03096 0.0204471 -3.94493e-25)
(8.02625 0.0148837 5.36176e-25)
(8.02449 0.0170187 -1.3299e-24)
(8.02376 0.0146993 -1.26941e-23)
(8.02446 0.0128463 -8.68179e-24)
(8.02205 0.0113381 -1.71634e-24)
(8.02012 0.00925777 1.8695e-22)
(8.01676 0.00557505 -4.51106e-23)
(8.01682 0.00698531 -4.13934e-24)
(8.13369 0.0132536 -1.01948e-23)
(8.15167 0.00909152 1.12096e-23)
(8.1277 -0.00784465 -2.37903e-24)
(8.14348 -0.00186508 2.47612e-24)
(8.14607 -0.000314741 -4.87437e-22)
(7.83547 0.197021 0)
(8.14588 -0.0232494 3.37659e-24)
(8.13894 -0.0637541 3.82642e-24)
(8.60273 0.0817538 0)
(8.12419 0.0274661 2.41041e-21)
(8.09479 0.0380593 -1.07118e-23)
(8.10515 0.0370081 9.28147e-22)
(8.07595 0.0319545 5.23605e-25)
(8.081 0.0366813 -3.37982e-22)
(8.01241 -0.0012028 -2.908e-24)
(8.00398 -0.00425506 8.49843e-23)
(8.00825 -0.00333101 -9.09095e-24)
(8.01565 0.00158565 1.77892e-24)
(8.01453 0.000488466 -2.96486e-24)
(8.00215 -0.00532217 2.5676e-22)
(7.99395 -0.00570418 2.3808e-24)
(7.99493 0.0477795 3.85671e-24)
(7.97654 0.00016907 -4.66581e-21)
(8.17724 -0.0458954 -2.09548e-23)
(8.00534 0.032592 3.97003e-21)
(8.01495 0.00283431 -9.55984e-23)
(8.01567 0.00508543 -3.19902e-23)
(8.06598 0.034574 -1.11147e-22)
(8.03808 0.0302872 -3.87588e-22)
(8.03344 0.0270556 6.68875e-22)
(8.05374 0.0353837 -1.36336e-24)
(8.0461 0.0345899 1.31536e-22)
(8.02558 0.0211314 1.98005e-24)
(8.02892 0.0234482 -2.82976e-22)
(8.02282 0.0195431 -4.32324e-24)
(8.02073 0.0180885 4.37598e-24)
(8.02171 0.014484 1.57389e-24)
(8.02025 0.0158879 5.60294e-24)
(8.02058 0.0139557 -3.02699e-24)
(8.01918 0.0132925 -1.18676e-22)
(8.01832 0.0119848 -3.60652e-24)
(8.01792 0.00926332 1.3497e-22)
(8.01842 0.0102717 2.5364e-24)
(8.01665 0.00841024 1.94675e-25)
(8.0151 0.00796176 6.64656e-23)
(8.16243 0.0127418 4.74002e-21)
(8.15478 0.021293 -1.80153e-21)
(8.16542 0.00819837 -2.8287e-22)
(8.1787 -0.00246677 6.04008e-24)
(8.12795 0.0978125 0)
(7.77741 0.1242 1.63628e-23)
(7.99562 0.0138861 8.88156e-21)
(8.15692 -0.0243518 3.48217e-24)
(8.53621 0.00108361 -4.75224e-23)
(8.11746 0.0379572 4.97182e-24)
(8.13408 0.0327151 9.69398e-22)
(8.08477 0.0418431 -1.56673e-21)
(8.09059 0.049365 -1.4647e-23)
(8.11053 0.0463319 2.11444e-21)
(8.07292 0.0444593 -5.85203e-23)
(8.01358 -0.000626073 -1.40653e-23)
(8.01249 -0.00162785 -3.65879e-23)
(8.01116 -0.00259571 4.21443e-22)
(8.00921 -0.00292133 -5.80383e-24)
(8.01289 0.000863746 -5.18343e-24)
(8.00495 -0.00480734 -4.48311e-23)
(8.00121 -0.00653226 2.00217e-24)
(7.99821 -0.00599145 -1.55517e-23)
(7.99333 -0.00772704 -1.28484e-24)
(7.98337 -0.0168939 -2.24538e-21)
(7.98899 -0.0236289 -2.42865e-21)
(8.04975 0.0100752 -1.37571e-23)
(8.08928 -0.0234967 -2.59768e-21)
(8.00636 -0.0117843 4.6713e-21)
(8.01466 0.00428031 -1.11426e-23)
(8.01377 0.00326201 4.0845e-25)
(8.01457 0.00557368 3.79858e-24)
(8.05777 0.0390406 3.07704e-24)
(8.03912 0.0343042 -3.62079e-24)
(8.03366 0.0352365 1.83346e-25)
(8.02991 0.0263949 6.35639e-24)
(8.02903 0.0299448 -2.52375e-24)
(8.04019 0.0392957 -6.29899e-22)
(8.02238 0.0227932 -1.94658e-22)
(8.02618 0.0261597 -1.85022e-23)
(8.01896 0.0173546 -2.58348e-23)
(8.01853 0.0192351 4.33142e-24)
(8.01749 0.0167785 4.26051e-24)
(8.01741 0.0148015 -3.30005e-24)
(8.01721 0.0114081 4.12826e-25)
(8.01546 0.0129351 -6.70213e-23)
(8.01491 0.00969581 -5.67298e-23)
(8.01474 0.0112291 3.57299e-23)
(8.01239 0.0089205 1.6872e-24)
(8.01358 0.00764027 -3.74238e-23)
(8.15042 0.035586 1.23146e-23)
(8.18654 0.0146541 1.82711e-23)
(8.1768 0.0319729 8.26613e-21)
(8.19617 0.00851681 3.3754e-21)
(7.7501 0.0675686 1.80335e-23)
(8.19325 -0.000106683 8.77887e-24)
(8.18963 -0.00838105 -1.27634e-23)
(8.48546 -0.0735771 4.38497e-20)
(8.09896 0.055445 -7.36034e-25)
(8.08434 0.0574364 6.65997e-23)
(8.10773 0.0535769 2.26028e-23)
(8.11577 0.0550989 2.02081e-23)
(8.06069 0.0444682 2.84875e-22)
(8.06381 0.0502779 4.88809e-22)
(8.01086 -0.00105834 -3.66813e-24)
(8.00781 -0.00298935 -1.23427e-24)
(8.01275 0.00224493 1.06069e-22)
(8.0117 0.00140801 -1.78143e-25)
(8.00245 -0.00783078 -1.18355e-25)
(7.98133 -0.00675925 -2.41198e-24)
(7.99604 -0.00639638 -1.58015e-23)
(8.03966 -0.0203768 -2.09193e-24)
(8.08209 -0.0520555 -2.19938e-24)
(8.01288 0.00335385 -1.23653e-22)
(8.01368 0.00646756 -3.27637e-23)
(8.01328 0.0054501 1.65798e-24)
(8.05039 0.0447192 -2.0928e-23)
(8.02854 0.0337758 -1.28877e-22)
(8.03006 0.0383163 -3.14339e-24)
(8.02651 0.0319871 -3.46941e-24)
(8.04323 0.0438375 -7.6093e-24)
(8.03698 0.0432924 -7.4067e-24)
(8.02298 0.0260315 -3.44171e-24)
(8.02147 0.0246306 -2.44476e-25)
(8.02397 0.0290998 -1.84262e-25)
(8.01703 0.0199933 -4.12935e-24)
(8.01876 0.0211424 4.76889e-24)
(8.01627 0.0163186 0)
(8.01581 0.0175805 -3.72313e-24)
(8.01501 0.0154524 6.09484e-25)
(8.01402 0.0142928 2.66009e-25)
(8.01307 0.0133306 -3.29035e-25)
(8.01312 0.0107539 7.96767e-23)
(8.01213 0.0100905 1.09021e-22)
(8.01256 0.0119874 -3.70052e-25)
(8.01098 0.00981458 9.60296e-25)
(8.00987 0.00941161 5.9636e-23)
(8.0122 0.00743435 3.11249e-24)
(8.16459 0.0422588 1.01896e-23)
(8.1419 0.0508061 -4.86547e-24)
(8.17555 0.0391476 -1.38669e-21)
(8.18471 0.0451233 1.88782e-23)
(8.21426 0.0199425 1.79019e-21)
(7.96211 -0.00529983 -6.17715e-23)
(7.76613 0.087319 -4.8986e-25)
(8.06404 0.0393787 -1.44715e-23)
(8.22465 -0.010858 1.04979e-20)
(8.37768 -0.0968819 -7.25608e-23)
(8.1032 0.0607838 -3.16586e-22)
(8.07967 0.0643852 -1.02919e-23)
(8.07249 0.0608592 5.44386e-22)
(8.12347 0.0582779 2.54772e-21)
(8.1142 0.0646342 6.53088e-22)
(8.06374 0.0578705 -8.26111e-25)
(8.0527 0.0563407 -1.21108e-23)
(8.01057 0.000479613 9.99046e-23)
(8.00943 -0.000530674 6.42271e-24)
(8.00771 -0.00185914 7.47022e-25)
(8.00628 -0.00333211 3.95943e-22)
(8.01113 0.00155043 5.82854e-24)
(8.00371 -0.00541669 -6.89861e-26)
(8.00031 -0.0072011 -1.30604e-24)
(7.99128 -0.0073332 4.88558e-22)
(7.98341 -0.00420449 -5.4954e-23)
(7.9987 0.000404515 -6.09331e-24)
(7.98734 -0.00137812 -2.15197e-22)
(7.99286 0.00770752 0)
(8.09704 -0.0139672 2.96244e-24)
(8.01253 0.00441367 -1.68923e-24)
(8.01186 0.00331519 1.41219e-24)
(8.0118 0.00549549 0)
(8.04444 0.0478051 -3.95475e-24)
(8.02894 0.0401419 0)
(8.03073 0.0427227 0)
(8.02548 0.0326995 0)
(8.03221 0.0443286 0)
(8.03465 0.0480338 0)
(8.01996 0.0234838 1.46692e-22)
(8.0222 0.0275684 2.64718e-24)
(8.01587 0.0188695 6.6907e-23)
(8.01731 0.0204728 -3.38444e-24)
(8.01906 0.023249 6.9804e-24)
(8.01501 0.0177594 -3.34872e-24)
(8.01403 0.0158275 5.27738e-23)
(8.01256 0.0127581 0)
(8.01259 0.0136515 1.47796e-25)
(8.01078 0.0108387 -2.62669e-25)
(8.01187 0.0122023 0)
(8.0088 0.0101446 5.14968e-24)
(8.00882 0.0090526 4.72449e-25)
(8.01089 0.00691709 0)
(8.00999 0.0079602 0)
(8.16951 0.0494248 1.65892e-22)
(8.13455 0.0617599 -4.64404e-24)
(8.19333 0.0454501 0)
(8.18189 0.0544845 3.00749e-24)
(8.23328 0.017884 -7.54039e-21)
(8.21647 0.0300956 5.16849e-24)
(7.86026 0.0776968 2.27906e-21)
(8.24889 0.00375113 -4.27982e-23)
(8.51225 -0.0769197 1.77605e-24)
(8.21929 -0.0709812 0)
(8.09291 0.0668159 -3.1799e-22)
(8.10517 0.0657913 8.24174e-24)
(8.08051 0.0713019 -3.12972e-24)
(8.06159 0.0668539 5.73401e-22)
(8.11119 0.0724638 8.8911e-25)
(8.04349 0.0531937 -2.04074e-22)
(8.04274 0.0606968 -7.70516e-24)
(8.00827 -0.000935412 2.38509e-24)
(8.00896 0.000386452 1.48695e-25)
(8.00679 -0.00070343 -8.80772e-23)
(8.00384 -0.00261906 -9.29885e-24)
(8.01114 0.00251724 4.29253e-23)
(8.01034 0.00191499 3.57337e-24)
(8.00073 -0.00577409 3.66423e-24)
(7.98299 -0.00322033 -5.38553e-24)
(7.98884 -0.00557135 3.62843e-24)
(7.98832 -0.00679177 -1.73129e-21)
(7.98575 -0.00465844 -1.86332e-26)
(8.01918 0.0148739 2.43954e-25)
(8.05644 0.012799 1.62905e-22)
(8.06519 -0.0154477 1.9601e-21)
(8.01043 0.00364195 2.40782e-24)
(8.01029 0.00592329 -2.06926e-24)
(8.03875 0.0507505 -3.43765e-24)
(8.02722 0.0425127 1.14773e-24)
(8.02754 0.0385884 -4.24861e-26)
(8.02961 0.045456 0)
(8.02707 0.0356286 -4.53892e-26)
(8.02572 0.0332308 -1.57179e-24)
(8.03387 0.0519414 1.55286e-24)
(8.02452 0.0314562 2.46875e-23)
(8.02304 0.0302313 -1.28326e-24)
(8.01718 0.0201618 -3.05321e-24)
(8.01781 0.0213858 7.92183e-28)
(8.01776 0.0228549 1.12295e-22)
(8.0191 0.0253491 2.07683e-24)
(8.01457 0.0169287 -1.00894e-24)
(8.01533 0.0179254 -1.45095e-24)
(8.01414 0.0159243 -1.05743e-22)
(8.01297 0.014279 -1.18447e-24)
(8.01229 0.0134877 -2.11741e-24)
(8.01118 0.0118606 -7.77761e-25)
(8.01017 0.0116075 -7.75081e-23)
(8.01168 0.0128018 1.0755e-24)
(8.00929 0.0113793 6.42334e-23)
(8.00831 0.0110323 -9.94098e-25)
(8.0078 0.0085121 4.67987e-26)
(8.1544 0.0601254 1.02105e-23)
(8.17275 0.0560249 -1.04463e-22)
(8.13815 0.0703171 0)
(8.2157 0.0449306 0)
(8.17871 0.0638039 3.14131e-24)
(7.91229 -0.0158306 2.63841e-23)
(7.92625 0.0562576 4.64727e-21)
(8.16738 0.0314923 1.32837e-20)
(8.28963 0.00357078 1.61017e-20)
(8.41685 -0.228398 -5.50449e-21)
(8.10482 -0.0819233 0)
(8.08251 0.081764 -1.9058e-24)
(8.07088 0.0790133 -1.84189e-22)
(8.06024 0.0758825 -4.71501e-24)
(8.05075 0.0728672 -1.88228e-22)
(8.09786 0.0832391 -4.53347e-24)
(8.11509 0.082191 -4.53347e-22)
(8.04131 0.0685817 -2.75371e-23)
(8.03688 0.0633557 -2.10014e-23)
(8.00936 0.0014384 0)
(8.00831 0.00135262 2.68226e-24)
(8.00681 0.00066568 3.03177e-23)
(8.00564 -0.000501064 -2.4819e-22)
(8.0042 -0.0017141 8.10846e-23)
(8.00277 -0.00270562 2.93891e-24)
(8.00911 0.00268556 2.07589e-24)
(7.99791 -0.00561358 -2.15001e-22)
(8.00205 -0.00413678 1.37671e-22)
(7.99471 -0.00561343 4.68332e-23)
(7.99167 -0.0055667 5.32413e-24)
(7.98694 -0.00840744 -1.35015e-24)
(7.98147 -0.00875018 -1.9347e-26)
(7.98938 -0.0063583 1.99108e-21)
(8.03139 -0.00244935 2.2795e-25)
(8.0688 -0.0322458 5.10046e-21)
(8.0097 0.00486253 1.1146e-22)
(8.00896 0.00426753 8.87299e-25)
(8.0086 0.00624604 -1.00242e-22)
(8.02781 0.0455117 1.07353e-24)
(8.02655 0.0447838 -1.51652e-22)
(8.02623 0.0381206 -5.31528e-23)
(8.02856 0.0489258 2.69086e-24)
(8.02464 0.0345299 -7.87714e-24)
(8.03287 0.0582284 -2.10549e-23)
(8.03026 0.0534292 -9.92026e-23)
(8.0211 0.0289166 0)
(8.02127 0.0316647 0)
(8.01618 0.0189437 6.56873e-24)
(8.01546 0.0201042 -3.31033e-24)
(8.0161 0.0225691 3.39783e-22)
(8.01725 0.027854 2.43631e-24)
(8.01554 0.0179721 -1.64215e-23)
(8.01386 0.015476 -2.6892e-24)
(8.01468 0.0167897 -3.81586e-25)
(8.01332 0.0152837 6.78882e-23)
(8.01176 0.0133981 4.1054e-23)
(8.01022 0.012523 -1.14727e-22)
(8.00731 0.0104142 0)
(8.0084 0.0116856 6.44967e-25)
(8.00676 0.00934734 4.04658e-26)
(8.00671 0.00797508 7.86947e-23)
(8.12965 0.0822057 -4.44145e-24)
(8.14569 0.0804119 1.34839e-23)
(8.23124 0.0507317 6.44138e-24)
(8.20748 0.065333 1.37479e-23)
(8.16611 0.0768316 1.27013e-23)
(8.18627 0.0720169 1.24536e-23)
(8.03488 0.0396477 8.19932e-24)
(8.26721 0.0361127 -3.69143e-21)
(8.31323 0.0158713 -4.87716e-23)
(8.23396 -0.271414 -7.50243e-24)
(8.17804 -0.135957 0)
(8.11013 -0.0772916 -1.18126e-23)
(8.08645 0.092575 -1.40205e-24)
(8.06257 0.087306 2.07268e-23)
(8.04198 0.0786848 -4.85137e-24)
(8.1195 0.094353 -4.48602e-24)
(8.03267 0.0654061 -3.02874e-22)
(8.00737 0.00175841 3.18601e-24)
(8.00476 -0.00116191 -2.58555e-24)
(8.00201 -0.00430123 1.89282e-24)
(8.0084 0.00375552 -2.00975e-22)
(8.00781 0.00330343 4.90707e-24)
(7.99534 -0.00551908 -4.43698e-22)
(7.98706 -0.00576324 0)
(8.00339 -0.00536076 2.75356e-25)
(7.98313 -0.00473193 2.37663e-25)
(8.02152 -0.0207716 3.46592e-24)
(8.04216 -0.0250086 -1.2998e-21)
(8.06444 -0.0172802 8.78184e-24)
(8.00749 0.00471657 1.56965e-24)
(8.00704 0.00707904 1.33055e-23)
(8.007 0.00632963 -4.29748e-25)
(8.02669 0.0485033 3.80189e-22)
(8.02583 0.0439014 9.74456e-24)
(8.02436 0.037224 -2.45327e-22)
(8.02522 0.0399086 -7.55949e-24)
(8.02822 0.0541697 3.20369e-24)
(8.0223 0.036268 -5.00783e-24)
(8.01992 0.0341332 1.90309e-24)
(8.01716 0.0325788 3.94519e-24)
(8.01421 0.0216048 -3.76462e-24)
(8.0133 0.02044 5.85701e-27)
(8.01343 0.0227931 3.53841e-22)
(8.01448 0.0305344 2.13135e-22)
(8.01387 0.0275303 7.36324e-25)
(8.01478 0.0179131 1.33394e-24)
(8.01306 0.0159778 -4.91927e-25)
(8.01259 0.015016 -3.52434e-24)
(8.01126 0.0133677 1.54621e-24)
(8.0119 0.0140538 -8.73066e-23)
(8.01085 0.0131952 5.16877e-25)
(8.00634 0.00990287 0)
(8.00826 0.0120045 -5.19775e-23)
(8.00929 0.0126029 -9.81943e-23)
(8.0054 0.00781296 -2.76196e-25)
(8.15411 0.0906295 -4.80199e-22)
(8.24222 0.0648395 -3.04099e-22)
(8.19779 0.0822799 -1.49463e-21)
(8.05409 -0.0176436 9.6765e-21)
(8.11371 0.0424478 -1.14659e-23)
(8.29217 0.0372458 1.07462e-20)
(8.3258 0.026793 6.57686e-21)
(8.28277 -0.285468 1.00118e-23)
(8.13296 -0.100343 -1.18904e-23)
(8.08979 0.104339 -1.44834e-24)
(8.07912 0.101473 6.74677e-23)
(8.06839 0.0994601 -2.61038e-23)
(8.05486 0.096885 -1.39027e-23)
(8.04313 0.0884389 -3.93867e-24)
(8.03698 0.0821145 4.71474e-24)
(8.1053 0.106545 0)
(8.12386 0.106359 1.33619e-23)
(8.03208 0.0748263 7.87811e-23)
(8.03033 0.067641 -2.43008e-23)
(8.00736 0.00273367 3.01006e-24)
(8.00673 0.0018571 5.56015e-24)
(8.00382 -0.00209945 0)
(8.00422 -0.000671977 0)
(8.00255 -0.00314314 0)
(8.00066 -0.00469422 0)
(8.00685 0.00359096 1.05654e-22)
(7.9982 -0.00546333 6.86707e-24)
(7.99595 -0.00526623 7.11834e-24)
(7.98293 -0.00286126 -3.22003e-26)
(7.99113 -0.00377902 0)
(7.98166 -0.00190394 -2.18378e-23)
(7.99611 -0.0100809 4.10344e-24)
(8.07211 -0.0106061 -4.54265e-24)
(8.00637 0.00567209 1.93813e-22)
(8.00594 0.00498092 -2.29092e-23)
(8.00518 0.00662028 -4.86465e-25)
(8.02811 0.0542533 7.45888e-24)
(8.02521 0.052852 2.62481e-24)
(8.02136 0.0422748 1.19231e-23)
(8.02824 0.060668 -1.2478e-23)
(8.01738 0.0364838 1.01797e-22)
(8.01144 0.0321476 -4.46784e-22)
(8.00907 0.0206892 -4.36447e-24)
(8.01211 0.0194766 -1.38766e-24)
(8.01183 0.0249763 -1.82487e-24)
(8.00875 0.0238227 -4.00958e-24)
(8.00702 0.0269044 -7.85646e-25)
(8.01338 0.017362 4.06748e-23)
(8.01302 0.0184282 8.40207e-23)
(8.01181 0.0170516 -7.9653e-25)
(8.01188 0.01486 3.15764e-22)
(8.01027 0.0133172 3.61768e-23)
(8.01057 0.0137732 -1.50994e-22)
(8.00675 0.0110886 3.50219e-25)
(8.00558 0.00978994 -1.1201e-25)
(8.00747 0.0122258 -4.63938e-26)
(8.00931 0.0138732 8.36332e-25)
(8.00419 0.00777518 1.24166e-23)
(8.0046 0.00858254 -1.07159e-24)
(8.14234 0.105435 3.10349e-23)
(8.16261 0.10232 1.06424e-22)
(8.26791 0.0653462 -6.71095e-22)
(8.23195 0.084499 -2.34385e-22)
(8.18476 0.0984847 3.28134e-23)
(8.20833 0.0916605 -8.49057e-24)
(8.20503 0.0511172 7.04147e-24)
(8.31256 0.0594634 -1.70898e-23)
(8.2329 -0.230577 8.55601e-24)
(8.28202 -0.074444 1.29267e-20)
(8.22946 -0.0927651 1.2691e-23)
(8.09412 0.117428 0)
(8.07229 0.110287 -5.89932e-23)
(8.04651 0.0951891 -1.26119e-21)
(8.04895 0.105362 -9.69062e-24)
(8.04153 0.0973191 -3.05603e-24)
(8.03122 0.085618 4.03728e-24)
(8.13141 0.122423 8.27205e-22)
(8.02748 0.0680739 4.66683e-22)
(8.00664 0.00228159 2.33538e-22)
(8.0058 0.000962682 -1.81412e-22)
(8.00253 -0.00230156 -2.26001e-24)
(8.00451 6.23748e-05 1.61813e-24)
(8.00325 -0.000775151 -1.15592e-24)
(7.99961 -0.00370614 1.64494e-24)
(8.00563 0.00426589 1.90147e-24)
(8.00558 0.00352313 2.65511e-24)
(7.99555 -0.00454545 0)
(7.99582 -0.00401319 0)
(7.99429 -0.00389984 7.79782e-24)
(7.98082 0.00101273 -2.41719e-26)
(7.98756 -0.00232648 2.43212e-24)
(7.98207 0.000526914 5.45017e-24)
(8.06781 -0.00844571 -4.81407e-21)
(8.02368 -0.000725718 -3.84256e-24)
(8.00353 0.0052356 -8.08769e-25)
(8.00352 0.00736242 -8.71133e-25)
(8.02097 0.0567077 -3.89497e-24)
(8.01819 0.0512289 -4.43501e-22)
(8.01478 0.0444517 7.19358e-23)
(8.01412 0.0402395 9.95541e-24)
(8.01395 0.0377261 -2.33565e-24)
(8.01124 0.0357686 -2.99468e-23)
(8.00766 0.0340852 -3.54315e-24)
(8.00479 0.031984 2.90539e-24)
(8.00535 0.0222363 3.33364e-26)
(8.00371 0.0210437 1.58805e-24)
(8.00941 0.01894 1.89764e-24)
(8.0005 0.0234188 0)
(8.00195 0.0291858 2.83351e-23)
(7.99863 0.0270654 1.47873e-24)
(8.00797 0.0173331 3.90015e-22)
(8.00933 0.0164774 -9.12958e-23)
(8.01065 0.014581 -2.35116e-24)
(8.01024 0.0152853 -2.74699e-22)
(8.00896 0.0147485 3.63128e-25)
(8.0046 0.00948726 -2.28759e-22)
(8.00724 0.013476 -1.58935e-24)
(8.00631 0.0126994 -1.24013e-22)
(8.00784 0.0141776 -1.0602e-24)
(8.00758 0.0142684 0)
(8.17368 0.116199 3.38082e-22)
(8.22411 0.102862 1.09104e-23)
(8.26935 0.0557796 7.12283e-21)
(8.2023 0.0309335 -2.74945e-20)
(8.32878 0.0751377 -9.17168e-21)
(8.32 0.0866893 1.14693e-24)
(8.17642 0.14357 3.12341e-21)
(8.64435 -0.174501 1.96379e-19)
(8.2341 0.00771182 7.47795e-23)
(8.33089 -0.0892298 -1.22394e-20)
(8.09635 0.135634 0)
(8.08592 0.12816 -1.44593e-23)
(8.07557 0.122092 -2.52342e-23)
(8.06193 0.117493 -1.36207e-23)
(8.04917 0.115914 -4.73907e-22)
(8.04539 0.113235 4.47789e-22)
(8.04144 0.106177 -9.07236e-24)
(8.03656 0.100054 -3.2879e-23)
(8.03223 0.0955012 -1.53228e-25)
(8.02836 0.0886645 -1.08751e-23)
(8.12595 0.141185 3.2719e-24)
(8.14576 0.137411 -6.41257e-24)
(8.02527 0.0763078 -2.231e-23)
(8.02312 0.0679029 4.28159e-22)
(8.00618 0.00272613 4.10343e-24)
(8.00594 0.00221501 3.4222e-24)
(8.00506 0.000618938 1.42622e-24)
(8.00252 -0.00144911 -2.64433e-23)
(8.00186 -0.00199627 -1.37401e-23)
(8.00255 -0.000823297 -1.20452e-24)
(8.00059 -0.00259137 -2.51921e-23)
(7.99896 -0.00299718 7.00017e-23)
(8.00401 0.00354581 0)
(7.99734 -0.00338226 5.13318e-24)
(7.99601 -0.00287785 -4.4569e-24)
(7.99247 -0.00373759 1.17807e-22)
(7.99385 -0.00245545 2.07838e-23)
(7.99086 -0.00295372 -2.00123e-23)
(7.98559 0.00283904 5.52717e-24)
(7.9853 -0.0020805 -9.7378e-22)
(8.0698 -0.00463105 -6.10958e-24)
(7.9841 0.00747735 0)
(8.00249 0.00655983 0)
(8.00185 0.00544993 4.14137e-24)
(8.00338 0.00762682 0)
(8.0201 0.0625385 9.15383e-24)
(8.01089 0.0586833 -8.73939e-24)
(8.01426 0.048362 -6.12537e-25)
(8.0084 0.0514879 -2.43343e-22)
(8.00541 0.0459324 1.09994e-23)
(8.00621 0.0392592 -3.05415e-23)
(8.00306 0.0351 -4.92258e-24)
(7.99614 0.0306854 6.51909e-25)
(8.00454 0.0197423 -1.13224e-22)
(7.99747 0.0210835 1.76488e-24)
(8.00582 0.018579 1.12135e-22)
(7.9948 0.0252446 1.76612e-25)
(7.99041 0.0232652 0)
(7.98948 0.0271492 -3.81283e-22)
(8.00065 0.0183289 2.05437e-22)
(8.0064 0.0163636 -4.02486e-22)
(8.00653 0.0145323 1.30632e-25)
(8.00477 0.0149526 3.58053e-22)
(8.00455 0.0104971 -8.13288e-24)
(8.00355 0.00885068 5.1672e-23)
(8.00531 0.0147974 1.26091e-22)
(8.00531 0.011839 -3.10023e-22)
(8.00461 0.0135898 1.65082e-22)
(8.0035 0.0148845 4.67855e-25)
(8.16458 0.134271 1.72291e-23)
(8.18543 0.131236 1.59969e-23)
(8.20977 0.126716 2.93984e-22)
(8.23751 0.120648 -4.14406e-23)
(8.32665 0.0762453 -1.17473e-24)
(8.23314 0.0519648 4.86664e-24)