/*--------------------------------*- C++ -*----------------------------------*\
| =========                 |                                                 |
| \\      /  F ield         | OpenFOAM: The Open Source CFD Toolbox           |
|  \\    /   O peration     | Version:  v2012                                 |
|   \\  /    A nd           | Website:  www.openfoam.com                      |
|    \\/     M anipulation  |                                                 |
\*---------------------------------------------------------------------------*/
FoamFile
{
    version     2.0;
    format      ascii;
    class       pointVectorField;
    location    "0.31";
    object      pointDisplacement;
}
// * * * * * * * * * * * * * * * * * * * * * * * * * * * * * * * * * * * * * //

dimensions      [0 1 0 0 0 0 0];


internalField   nonuniform List<vector> 
14482
(
(0 0 0)
(0 0 0)
(0 0 0)
(0 0 0)
(0 0 0)
(0 0 0)
(0 0 0)
(0 0 0)
(0 0 0)
(0 0 0)
(0 0 0)
(0 0 0)
(0 0 0)
(0 0 0)
(0 0 0)
(0 0 0)
(0 0 0)
(0 0 0)
(0 0 0)
(0 0 0)
(0 0 0)
(0 0 0)
(0 0 0)
(0 0 0)
(0 0 0)
(0 0 0)
(0 0 0)
(0 0 0)
(0 0 0)
(0 0 0)
(0 0 0)
(0 0 0)
(0 0 0)
(0 0 0)
(0 0 0)
(0 0 0)
(0 0 0)
(0 0 0)
(0 0 0)
(0 0 0)
(0 0 0)
(0 0 0)
(0 0 0)
(0 0 0)
(0 0 0)
(0 0 0)
(0 0 0)
(0 0 0)
(0 0 0)
(0 0 0)
(0 0 0)
(0 0 0)
(0 0 0)
(0 0 0)
(0 0 0)
(0 0 0)
(0 0 0)
(0 0 0)
(0 0 0)
(0 0 0)
(0 0 0)
(0 0 0)
(0 0 0)
(0 0 0)
(0 0 0)
(0 0 0)
(0 0 0)
(0 0 0)
(0 0 0)
(0 0 0)
(0 0 0)
(0 0 0)
(0 0 0)
(0 0 0)
(0 0 0)
(0 0 0)
(0 0 0)
(0 0 0)
(0 0 0)
(0 0 0)
(0 0 0)
(0 0 0)
(0 0 0)
(0.0557566 -0.157383 0)
(0.0559306 -0.157284 0)
(0.056118 -0.157177 0)
(0.0563199 -0.157062 0)
(0.0565373 -0.156938 0)
(0.0567715 -0.156804 0)
(0.0570236 -0.15666 0)
(0.057295 -0.156505 0)
(0.0575873 -0.156339 0)
(0.057902 -0.156159 0)
(0.0582408 -0.155966 0)
(0.0586055 -0.155758 0)
(0.058998 -0.155534 0)
(0.0593569 -0.155207 0)
(0.0597372 -0.154848 0)
(0.0601463 -0.154461 0)
(0.0605469 -0.154007 0)
(0.0609679 -0.153509 0)
(0.0613874 -0.152948 0)
(0.0618203 -0.152331 0)
(0.0622484 -0.151643 0)
(0.0626759 -0.150884 0)
(0.0631018 -0.15005 0)
(0.0635226 -0.149136 0)
(0.0639361 -0.148137 0)
(0.0643342 -0.147046 0)
(0.0647206 -0.14586 0)
(0.0650892 -0.144573 0)
(0.065439 -0.143179 0)
(0.0657654 -0.141672 0)
(0.0660654 -0.140046 0)
(0.0663367 -0.138294 0)
(0.0665758 -0.136408 0)
(0.0667791 -0.134383 0)
(0.0669424 -0.132209 0)
(0.067062 -0.129879 0)
(0.067134 -0.127384 0)
(0.0671542 -0.124715 0)
(0.0671178 -0.121864 0)
(0.0670199 -0.11882 0)
(0.0668552 -0.115574 0)
(0.0666182 -0.112117 0)
(0.0663035 -0.108437 0)
(0.0659046 -0.104525 0)
(0.0654154 -0.10037 0)
(0.0648294 -0.0959619 0)
(0.0641398 -0.0912908 0)
(0.0633393 -0.0863466 0)
(0.062421 -0.0811196 0)
(0.0613777 -0.0756004 0)
(0.0602019 -0.0697804 0)
(0.0588865 -0.063652 0)
(0.057424 -0.0572072 0)
(0.0558077 -0.0504407 0)
(0.0540307 -0.0433471 0)
(0.0520867 -0.035923 0)
(0.0499698 -0.0281655 0)
(0.0476753 -0.0200755 0)
(0.0451982 -0.0116527 0)
(0.0425355 -0.00290098 0)
(0.0396845 0.00617445 0)
(0.0366443 0.0155661 0)
(0.0334145 0.0252648 0)
(0.029997 0.0352576 0)
(0.0263942 0.0455312 0)
(0.0226109 0.0560682 0)
(0.0186531 0.0668495 0)
(0.0145279 0.0778549 0)
(0.0102451 0.0890596 0)
(0.00581469 0.100439 0)
(0.00124902 0.111967 0)
(-0.00343873 0.123613 0)
(-0.00823389 0.135348 0)
(-0.0131214 0.147142 0)
(-0.0180845 0.158962 0)
(-0.0231068 0.170777 0)
(-0.0281708 0.182554 0)
(-0.0332595 0.194262 0)
(-0.0383555 0.20587 0)
(-0.0434416 0.217348 0)
(-0.0485015 0.228667 0)
(-0.0535194 0.2398 0)
(-0.0584801 0.250722 0)
(-0.0633694 0.261409 0)
(-0.0681744 0.271841 0)
(-0.0728832 0.281998 0)
(-0.0774851 0.291865 0)
(-0.0819704 0.301426 0)
(-0.0863314 0.310672 0)
(-0.0905604 0.319591 0)
(-0.0946523 0.328179 0)
(-0.0986023 0.33643 0)
(-0.102407 0.344342 0)
(-0.106065 0.351915 0)
(-0.109573 0.35915 0)
(-0.112933 0.36605 0)
(-0.116144 0.372621 0)
(-0.119207 0.378867 0)
(-0.122125 0.384796 0)
(-0.1249 0.390416 0)
(-0.127535 0.395737 0)
(-0.130034 0.400767 0)
(-0.132401 0.405518 0)
(-0.134639 0.409999 0)
(-0.136753 0.41422 0)
(-0.138748 0.418195 0)
(-0.140628 0.421931 0)
(-0.142399 0.425443 0)
(-0.144065 0.42874 0)
(-0.145631 0.431832 0)
(-0.147101 0.43473 0)
(-0.14848 0.437445 0)
(-0.149774 0.439986 0)
(-0.150986 0.442364 0)
(-0.152121 0.444587 0)
(-0.153183 0.446665 0)
(-0.154176 0.448605 0)
(-0.155105 0.450417 0)
(-0.155972 0.452108 0)
(-0.156782 0.453685 0)
(-0.157539 0.455156 0)
(-0.158244 0.456526 0)
(-0.158902 0.457804 0)
(-0.159516 0.458994 0)
(-0.160087 0.460103 0)
(-0.16062 0.461135 0)
(-0.161117 0.462096 0)
(-0.161579 0.46299 0)
(-0.162009 0.463822 0)
(-0.16241 0.464595 0)
(-0.162782 0.465316 0)
(-0.163129 0.465985 0)
(-0.163452 0.466607 0)
(-0.163752 0.467186 0)
(-0.164031 0.467723 0)
(-0.16429 0.468224 0)
(-0.164531 0.468688 0)
(-0.164755 0.46912 0)
(-0.164963 0.469521 0)
(-0.165157 0.469893 0)
(-0.165337 0.470239 0)
(-0.165504 0.470561 0)
(-0.165659 0.47086 0)
(-0.165803 0.471137 0)
(-0.165937 0.471394 0)
(-0.166062 0.471633 0)
(-0.166177 0.471855 0)
(-0.166284 0.472062 0)
(-0.166384 0.472253 0)
(-0.166477 0.472431 0)
(-0.166665 0.472364 0)
(-0.166832 0.472305 0)
(-0.166985 0.472251 0)
(-0.16713 0.4722 0)
(-0.16727 0.47215 0)
(-0.16741 0.4721 0)
(-0.167554 0.472049 0)
(-0.167707 0.471995 0)
(-0.167874 0.471936 0)
(-0.168063 0.471869 0)
(-0.168023 0.471673 0)
(-0.16798 0.471461 0)
(-0.167933 0.471233 0)
(-0.167883 0.470988 0)
(-0.167829 0.470724 0)
(-0.167771 0.47044 0)
(-0.167709 0.470134 0)
(-0.167641 0.469803 0)
(-0.167569 0.469448 0)
(-0.167491 0.469067 0)
(-0.167406 0.468655 0)
(-0.167316 0.468212 0)
(-0.167218 0.467736 0)
(-0.167113 0.467223 0)
(-0.167 0.466671 0)
(-0.166878 0.466078 0)
(-0.166747 0.465439 0)
(-0.166606 0.464753 0)
(-0.166454 0.464015 0)
(-0.16629 0.463221 0)
(-0.166114 0.462367 0)
(-0.165925 0.46145 0)
(-0.165721 0.460465 0)
(-0.165502 0.459405 0)
(-0.165266 0.458268 0)
(-0.165013 0.457047 0)
(-0.16474 0.455736 0)
(-0.164447 0.454329 0)
(-0.164132 0.45282 0)
(-0.163794 0.451201 0)
(-0.163431 0.449465 0)
(-0.16304 0.447606 0)
(-0.162621 0.445614 0)
(-0.162171 0.44348 0)
(-0.161688 0.441197 0)
(-0.161171 0.438756 0)
(-0.160616 0.436145 0)
(-0.160021 0.433357 0)
(-0.159384 0.430378 0)
(-0.158701 0.427201 0)
(-0.157971 0.423813 0)
(-0.15719 0.420203 0)
(-0.156355 0.41636 0)
(-0.155464 0.412273 0)
(-0.154512 0.407929 0)
(-0.153497 0.403318 0)
(-0.152415 0.398427 0)
(-0.151263 0.393246 0)
(-0.150038 0.387765 0)
(-0.148736 0.381972 0)
(-0.147354 0.375858 0)
(-0.145888 0.369414 0)
(-0.144336 0.362633 0)
(-0.142695 0.355506 0)
(-0.140961 0.34803 0)
(-0.139133 0.3402 0)
(-0.137207 0.332013 0)
(-0.135182 0.323471 0)
(-0.133057 0.314573 0)
(-0.13083 0.305325 0)
(-0.128501 0.295732 0)
(-0.126069 0.285803 0)
(-0.123535 0.275551 0)
(-0.120899 0.264988 0)
(-0.118163 0.254131 0)
(-0.11533 0.243001 0)
(-0.1124 0.23162 0)
(-0.109379 0.220011 0)
(-0.106269 0.208201 0)
(-0.103075 0.196221 0)
(-0.0998008 0.184102 0)
(-0.0964526 0.171874 0)
(-0.0930356 0.159574 0)
(-0.0895563 0.147236 0)
(-0.0860207 0.134894 0)
(-0.082436 0.122586 0)
(-0.0788088 0.110346 0)
(-0.0751468 0.098209 0)
(-0.0714573 0.086209 0)
(-0.0677478 0.0743782 0)
(-0.0640261 0.0627473 0)
(-0.0603 0.0513454 0)
(-0.056577 0.0401976 0)
(-0.0528649 0.0293292 0)
(-0.049171 0.0187605 0)
(-0.0455027 0.0085101 0)
(-0.0418672 -0.00140547 0)
(-0.038271 -0.0109743 0)
(-0.0347209 -0.0201853 0)
(-0.0312227 -0.0290315 0)
(-0.0277821 -0.0375076 0)
(-0.0244043 -0.0456113 0)
(-0.0210941 -0.0533414 0)
(-0.0178553 -0.0607015 0)
(-0.0146919 -0.0676937 0)
(-0.011607 -0.0743239 0)
(-0.00860308 -0.0805988 0)
(-0.00568227 -0.0865269 0)
(-0.00284622 -0.0921166 0)
(-9.5908e-05 -0.0973789 0)
(0.00256794 -0.102324 0)
(0.00514509 -0.106963 0)
(0.00763567 -0.111309 0)
(0.0100404 -0.115372 0)
(0.01236 -0.119166 0)
(0.0145956 -0.122702 0)
(0.0167485 -0.125993 0)
(0.0188206 -0.12905 0)
(0.0208132 -0.131886 0)
(0.0227285 -0.134511 0)
(0.0245686 -0.136938 0)
(0.0263354 -0.139176 0)
(0.0280311 -0.141237 0)
(0.0296577 -0.14313 0)
(0.0312175 -0.144865 0)
(0.0327128 -0.146452 0)
(0.0341459 -0.147897 0)
(0.0355185 -0.149212 0)
(0.0368324 -0.150402 0)
(0.0380892 -0.151477 0)
(0.0392914 -0.152442 0)
(0.0404407 -0.153305 0)
(0.0415373 -0.154073 0)
(0.0425841 -0.154751 0)
(0.0435803 -0.155348 0)
(0.0445305 -0.155864 0)
(0.0454329 -0.156309 0)
(0.0462889 -0.156689 0)
(0.0470989 -0.15701 0)
(0.0478648 -0.157275 0)
(0.0485896 -0.157482 0)
(0.0492687 -0.157654 0)
(0.049909 -0.157776 0)
(0.0505059 -0.157876 0)
(0.0510674 -0.157919 0)
(0.0515893 -0.157959 0)
(0.0520738 -0.157987 0)
(0.0525198 -0.157914 0)
(0.0529341 -0.157846 0)
(0.053319 -0.157783 0)
(0.0536765 -0.157724 0)
(0.0540086 -0.15767 0)
(0.0543171 -0.157619 0)
(0.0546035 -0.157572 0)
(0.0548695 -0.157529 0)
(0.0551165 -0.157488 0)
(0.0553459 -0.157451 0)
(0.0555589 -0.157416 0)
(-0.00712343 0.0790763 0)
(-0.00952864 0.0896903 0)
(-0.00912471 0.0856823 0)
(-0.0122117 0.0940394 0)
(-0.0101706 0.0852335 0)
(-0.00981191 0.0861903 0)
(-0.0171123 0.099934 0)
(-0.016292 0.0985458 0)
(-0.0191574 0.108209 0)
(-0.00281524 0.0528926 0)
(-0.000921918 0.0478154 0)
(-0.00285337 0.056149 0)
(-0.00756763 0.103135 0)
(-0.00694399 0.104305 0)
(-0.0120697 0.120357 0)
(-0.0023969 0.0601379 0)
(-0.000745851 0.0576125 0)
(-0.00322463 0.0657281 0)
(-0.0208131 0.13192 0)
(-0.0204996 0.131936 0)
(-0.0218827 0.135746 0)
(-0.0187248 0.123832 0)
(-0.0177974 0.122326 0)
(-0.0196985 0.127777 0)
(-0.0287747 0.145972 0)
(-0.0335853 0.161491 0)
(-0.0323625 0.155863 0)
(-0.00887667 0.0695248 0)
(-0.0102995 0.0759994 0)
(-0.00987599 0.0727181 0)
(0.00118286 0.0426758 0)
(0.00258085 0.0422697 0)
(-9.41689e-05 0.0510456 0)
(-0.00287676 0.0882945 0)
(-0.00333319 0.0944143 0)
(-0.0191335 0.13806 0)
(-0.0157782 0.125689 0)
(-0.0152648 0.126128 0)
(0.00242165 0.0530304 0)
(0.00566081 0.042129 0)
(0.00382283 0.0516782 0)
(-0.0222002 0.137442 0)
(-0.0234031 0.140842 0)
(-0.0233763 0.140221 0)
(-0.0259429 0.143736 0)
(-0.0279606 0.15073 0)
(-0.0284626 0.151023 0)
(-0.0172297 0.109827 0)
(-0.0179336 0.110169 0)
(-0.015448 0.101643 0)
(-0.00600507 0.0439285 0)
(-0.00625358 0.0439917 0)
(-0.0054082 0.0402984 0)
(0.000612176 0.0266496 0)
(-0.00054524 0.0324225 0)
(-0.000378179 0.0281655 0)
(-0.00159632 0.0347934 0)
(0.00297661 0.0216298 0)
(0.00346603 0.0166206 0)
(0.00412011 0.0170899 0)
(0.00955745 0.0486439 0)
(0.00759974 0.0519417 0)
(0.0105581 0.0391203 0)
(-0.00288394 0.104124 0)
(-0.00683317 0.114739 0)
(-0.00184413 0.096919 0)
(-0.0396815 0.202851 0)
(-0.0380752 0.19721 0)
(-0.0344306 0.187308 0)
(0.00664132 0.0110973 0)
(0.00834456 0.00591197 0)
(0.00704092 0.0141291 0)
(0.0186151 -0.00894206 0)
(0.019638 -0.00658974 0)
(0.0174316 -0.000655727 0)
(-0.0238854 0.142307 0)
(-0.023457 0.14163 0)
(-0.0235428 0.141342 0)
(-0.0225767 0.136071 0)
(-0.0233761 0.138138 0)
(-0.0233361 0.138453 0)
(-0.0397853 0.187236 0)
(-0.036015 0.176733 0)
(-0.0414331 0.192671 0)
(-0.0689644 0.268729 0)
(-0.060686 0.247014 0)
(-0.0674732 0.265684 0)
(-0.0499159 0.210355 0)
(-0.0495299 0.210677 0)
(-0.0547473 0.224673 0)
(-0.0369396 0.156075 0)
(-0.0342046 0.149686 0)
(-0.0385301 0.162809 0)
(-0.027207 0.131004 0)
(-0.0277905 0.130591 0)
(-0.0250287 0.122653 0)
(-0.0110285 0.0702097 0)
(-0.0100621 0.067607 0)
(-0.0117702 0.0743702 0)
(-0.00265776 0.0376159 0)
(-0.00382801 0.0410631 0)
(-0.00264761 0.0347593 0)
(0.00120623 0.0144591 0)
(0.000607442 0.0179495 0)
(0.000725673 0.0150368 0)
(0.00376982 0.0101193 0)
(0.00292982 0.0130777 0)
(0.00321728 0.00937105 0)
(0.00614037 -0.000981676 0)
(0.00511777 0.00260788 0)
(0.0051573 -0.00136036 0)
(0.0100161 0.0590891 0)
(0.0161665 0.0414335 0)
(0.0114246 0.0614364 0)
(-0.0358599 0.19535 0)
(-0.0292292 0.177293 0)
(-0.0347624 0.193566 0)
(0.005694 0.0791568 0)
(0.000259688 0.0995615 0)
(0.000502388 0.0955216 0)
(-0.0332426 0.185034 0)
(-0.0286074 0.17275 0)
(-0.035339 0.192598 0)
(-0.0324372 0.176253 0)
(-0.0374859 0.191248 0)
(-0.0331193 0.177062 0)
(0.02011 -0.0342562 0)
(0.018173 -0.0320812 0)
(0.0201949 -0.0378139 0)
(0.0306654 -0.0474997 0)
(0.0333211 -0.0458162 0)
(0.0303452 -0.0385945 0)
(-0.0255218 0.149701 0)
(-0.0276618 0.15657 0)
(-0.0259951 0.150624 0)
(-0.0385525 0.193641 0)
(-0.0430721 0.207449 0)
(-0.039354 0.188133 0)
(-0.0430302 0.199217 0)
(-0.0451625 0.205395 0)
(-0.0828473 0.306158 0)
(-0.0732081 0.282358 0)
(-0.0779999 0.29503 0)
(-0.0504841 0.207903 0)
(-0.0499515 0.208587 0)
(-0.0547366 0.220938 0)
(-0.037514 0.163361 0)
(-0.0421483 0.178375 0)
(-0.0410317 0.172247 0)
(-0.0245244 0.105743 0)
(-0.0253966 0.105182 0)
(-0.0213889 0.0932123 0)
(-0.00936658 0.0572013 0)
(-0.00877705 0.0556881 0)
(-0.0098705 0.0603481 0)
(-0.00392527 0.0325632 0)
(-0.00396825 0.03183 0)
(-0.00362198 0.0304663 0)
(-0.00179505 0.025255 0)
(-0.00140075 0.0250242 0)
(-0.00203451 0.0281111 0)
(-0.00267671 0.032087 0)
(-0.00191934 0.0297421 0)
(0.00123775 0.0194433 0)
(0.000668161 0.0236158 0)
(0.000368713 0.0220257 0)
(0.00192912 0.00326903 0)
(0.00238058 0.00459919 0)
(0.00193778 0.00476532 0)
(0.00103951 0.017854 0)
(0.0166339 0.0463726 0)
(0.0116611 0.0660873 0)
(0.0266186 0.013256 0)
(0.0220822 0.0298623 0)
(0.0247768 0.0123927 0)
(-0.0407263 0.210954 0)
(-0.0379667 0.203568 0)
(-0.0330893 0.19136 0)
(-0.0240761 0.171613 0)
(-0.019365 0.160026 0)
(-0.0245888 0.173305 0)
(-0.0416016 0.211336 0)
(-0.0426109 0.20702 0)
(-0.0498472 0.227846 0)
(-0.0475063 0.220636 0)
(0.030984 -0.0719417 0)
(0.0280845 -0.0682824 0)
(0.0294732 -0.0745128 0)
(0.0263928 -0.0436579 0)
(0.0262658 -0.0490336 0)
(0.0287777 -0.0509149 0)
(0.0318576 -0.0663581 0)
(0.0350451 -0.072747 0)
(0.0346622 -0.0656518 0)
(-0.0466736 0.214239 0)
(-0.041988 0.200197 0)
(-0.0406806 0.197028 0)
(-0.02428 0.143363 0)
(-0.0265547 0.15117 0)
(-0.0260432 0.148982 0)
(-0.0507077 0.226472 0)
(-0.05352 0.23508 0)
(-0.0582022 0.246871 0)
(-0.0248724 0.144803 0)
(-0.0259283 0.147556 0)
(-0.026152 0.148418 0)
(-0.0421258 0.196566 0)
(-0.0387623 0.185436 0)
(-0.0434588 0.199786 0)
(-0.0841217 0.30815 0)
(-0.090868 0.323078 0)
(-0.084152 0.307085 0)
(-0.0805642 0.287775 0)
(-0.0827272 0.289741 0)
(-0.0749875 0.271958 0)
(-0.0603145 0.214882 0)
(-0.0613695 0.22222 0)
(-0.0646545 0.228948 0)
(-0.0386701 0.159172 0)
(-0.0424661 0.168761 0)
(-0.0379067 0.154115 0)
(-0.0419605 0.172735 0)
(-0.0405187 0.166495 0)
(-0.0234651 0.105028 0)
(-0.0268663 0.115774 0)
(-0.0137235 0.0663374 0)
(-0.0115704 0.0581443 0)
(-0.0120581 0.0613549 0)
(-0.00356002 0.0292852 0)
(-0.00323383 0.0283641 0)
(-0.000727805 0.0230584 0)
(-0.000796509 0.0204777 0)
(-0.00324126 0.030208 0)
(-0.00273501 0.0271517 0)
(-0.00294809 0.0299494 0)
(0.000954949 0.011976 0)
(0.00121661 0.00952675 0)
(0.0014999 0.0108858 0)
(0.00438337 0.00212605 0)
(0.00254075 0.00282001 0)
(0.00156909 0.00791911 0)
(0.00126459 0.00592325 0)
(0.00164313 0.00564647 0)
(0.00738761 -0.0207313 0)
(0.00637911 -0.0212921 0)
(0.00834141 -0.0242465 0)
(0.021609 0.0384185 0)
(0.0165167 0.0531174 0)
(0.0170579 0.0569107 0)
(0.021551 0.0432127 0)
(0.0407833 -0.0402606 0)
(0.0370855 -0.0352932 0)
(0.0397231 -0.0500325 0)
(-0.046581 0.2251 0)
(-0.0459178 0.223613 0)
(-0.0498582 0.232776 0)
(-0.0409638 0.210549 0)
(-0.0358538 0.199903 0)
(-0.0295964 0.184634 0)
(-0.0323335 0.191657 0)
(-0.0165875 0.153494 0)
(-0.0145991 0.147793 0)
(-0.0517689 0.236963 0)
(-0.0578837 0.251533 0)
(-0.0506355 0.233824 0)
(-0.0726346 0.285209 0)
(-0.0707792 0.280878 0)
(-0.0777267 0.295544 0)
(-0.0565477 0.246379 0)
(-0.0584974 0.250893 0)
(-0.0667959 0.271905 0)
(-0.0675975 0.273679 0)
(-0.061507 0.258165 0)
(0.0101396 -0.0219766 0)
(0.00972106 -0.0177848 0)
(0.00881902 -0.019169 0)
(0.0213077 -0.0481821 0)
(0.0206834 -0.0524094 0)
(0.0233682 -0.0574181 0)
(0.024337 -0.0534337 0)
(0.0265466 -0.055124 0)
(0.0248702 -0.0499481 0)
(0.0299101 -0.0582598 0)
(0.0281037 -0.0549444 0)
(0.0287627 -0.0605945 0)
(-0.0393099 0.193665 0)
(-0.0350968 0.181467 0)
(-0.0408795 0.19916 0)
(-0.0350547 0.178683 0)
(-0.0368855 0.184536 0)
(-0.0408963 0.196299 0)
(-0.028201 0.156489 0)
(-0.0653329 0.265088 0)
(-0.0584226 0.246559 0)
(-0.0320614 0.163153 0)
(-0.0259161 0.143796 0)
(-0.0317438 0.161546 0)
(-0.0425738 0.197039 0)
(-0.0487172 0.21497 0)
(-0.052995 0.227442 0)
(-0.0464087 0.209045 0)
(-0.0838344 0.305104 0)
(-0.075915 0.286665 0)
(-0.0669409 0.258901 0)
(-0.07242 0.273921 0)
(-0.0751996 0.279382 0)
(-0.127475 0.362327 0)
(-0.126405 0.353473 0)
(-0.123503 0.357174 0)
(-0.0692488 0.246714 0)
(-0.0702401 0.243888 0)
(-0.0650785 0.234066 0)
(-0.0332105 0.132243 0)
(-0.0363872 0.139289 0)
(-0.0334292 0.129167 0)
(-0.0156031 0.0711138 0)
(-0.0124944 0.0601361 0)
(-0.0218661 0.0883945 0)
(-0.0205119 0.0859155 0)
(-0.0236473 0.0965308 0)
(-0.00476403 0.0305597 0)
(-0.00447405 0.0297449 0)
(-0.00506993 0.0324817 0)
(-0.00687554 0.0398582 0)
(-0.00778985 0.0433299 0)
(-0.00690825 0.0392878 0)
(-0.00247577 0.0219816 0)
(-0.00255217 0.0232089 0)
(-0.00275439 0.0237226 0)
(-0.000596564 0.0255068 0)
(-5.91838e-05 0.0208674 0)
(-0.0012952 0.0212702 0)
(-0.00191425 0.0239171 0)
(-0.00146543 0.0198788 0)
(-0.000973964 0.016669 0)
(-0.000720344 0.0172256 0)
(0.000570734 0.0106463 0)
(0.00049248 0.013787 0)
(0.000267313 0.0126892 0)
(0.00125216 -0.00041408 0)
(0.00205683 -0.00116327 0)
(0.00146683 0.000180761 0)
(0.00206738 0.00646258 0)
(0.00211805 0.00926802 0)
(0.00290616 0.000258402 0)
(0.00223113 0.000879287 0)
(0.00238478 -0.000487514 0)
(0.00105345 0.00745043 0)
(0.000911586 0.00949599 0)
(0.000712196 0.00797123 0)
(0.00218395 -0.00811356 0)
(0.00270795 -0.00684096 0)
(0.000880942 -0.00410093 0)
(-0.00398244 0.122223 0)
(0.000108022 0.111428 0)
(-0.00372358 0.122262 0)
(0.010028 0.0824782 0)
(0.0148201 0.0675743 0)
(0.012779 0.0761187 0)
(0.0338657 -0.0107741 0)
(0.0373524 -0.0259889 0)
(0.0370438 -0.0158713 0)
(-0.0547031 0.24358 0)
(-0.0581213 0.251373 0)
(-0.0521388 0.238059 0)
(-0.0307879 0.186308 0)
(-0.035135 0.197783 0)
(-0.0370821 0.202266 0)
(-0.0192934 0.158106 0)
(-0.0132916 0.141086 0)
(-0.0151009 0.147924 0)
(-0.0156928 0.151751 0)
(-0.012514 0.142978 0)
(-0.0695448 0.277907 0)
(-0.0725198 0.283689 0)
(-0.0757053 0.290867 0)
(-0.0611848 0.259104 0)
(-0.0664578 0.270511 0)
(-0.0653241 0.268456 0)
(-0.0640771 0.26593 0)
(-0.0680844 0.275294 0)
(-0.0743582 0.289183 0)
(-0.0765647 0.294683 0)
(-0.0775775 0.297005 0)
(-0.0694541 0.278549 0)
(-0.0819904 0.306334 0)
(-0.0858028 0.314328 0)
(-0.0748337 0.291021 0)
(-0.0821284 0.307091 0)
(-0.0800795 0.302636 0)
(-0.081245 0.305113 0)
(-0.0892717 0.321933 0)
(-0.000913833 -0.0144958 0)
(0.001488 -0.0192628 0)
(0.000264824 -0.0143256 0)
(0.0066991 -0.0427923 0)
(0.00529533 -0.0423905 0)
(0.00775966 -0.0466281 0)
(0.0215022 -0.0681537 0)
(0.0188033 -0.0623871 0)
(0.0183614 -0.0643291 0)
(0.0417871 -0.0920546 0)
(0.0440532 -0.0974092 0)
(0.0444122 -0.0909288 0)
(-0.0718136 0.278571 0)
(-0.0793402 0.295566 0)
(-0.0761248 0.288454 0)
(-0.0281907 0.155914 0)
(-0.0303015 0.16379 0)
(-0.0280732 0.154867 0)
(-0.0916005 0.326646 0)
(-0.081765 0.306219 0)
(-0.0426203 0.196323 0)
(-0.0512004 0.220391 0)
(-0.0471637 0.210124 0)
(-0.0445161 0.200473 0)
(-0.0589537 0.239265 0)
(-0.0443619 0.200551 0)
(-0.0640268 0.257732 0)
(-0.0716869 0.277103 0)
(-0.0697922 0.273001 0)
(-0.0358977 0.176327 0)
(-0.0355561 0.175059 0)
(-0.0388614 0.185529 0)
(-0.0787609 0.299223 0)
(-0.0809876 0.305823 0)
(-0.0781698 0.298183 0)
(-0.0881465 0.323282 0)
(-0.0931302 0.334984 0)
(-0.0922933 0.332681 0)
(-0.102109 0.321969 0)
(-0.107436 0.326025 0)
(-0.101902 0.312247 0)
(-0.0610361 0.20242 0)
(-0.0593416 0.188866 0)
(-0.0551354 0.182908 0)
(-0.0233405 0.0910241 0)
(-0.0276224 0.105386 0)
(-0.0250975 0.0940897 0)
(-0.0224594 0.0806428 0)
(-0.0190832 0.069971 0)
(-0.0208568 0.0776789 0)
(-0.017243 0.0743433 0)
(-0.0144799 0.0647697 0)
(-0.00379108 0.0236743 0)
(-0.00383863 0.0245305 0)
(-0.00416827 0.0257201 0)
(-0.00349199 0.0233135 0)
(-0.00339885 0.0222352 0)
(-0.00307011 0.0210347 0)
(6.81225e-05 0.0154498 0)
(-0.000345364 0.0166474 0)
(-2.99416e-05 0.0133125 0)
(-0.000341217 0.0139109 0)
(-0.00058625 0.0138797 0)
(-0.000318062 0.0112994 0)
(-0.00119699 0.0163411 0)
(-8.79475e-05 0.0110357 0)
(0.00220185 -0.00242797 0)
(0.00330963 -0.00438919 0)
(0.0028999 -0.0023371 0)
(0.000717185 0.00183284 0)
(0.00045572 0.0021124 0)
(0.00111047 0.00173388 0)
(0.00103087 0.00245172 0)
(0.000983942 0.0020194 0)
(0.00138294 0.00281573 0)
(0.00102556 0.00187593 0)
(0.000726038 0.00171805 0)
(0.000939718 0.00273867 0)
(0.00122029 0.0031462 0)
(0.00114562 0.00368757 0)
(-0.00768786 0.0169237 0)
(-0.0100547 0.0243959 0)
(-0.00969978 0.0208097 0)
(0.00341112 0.103153 0)
(0.00509506 0.0971736 0)
(0.00434258 0.101567 0)
(0.000249455 0.112183 0)
(0.014761 0.0721474 0)
(0.0183861 0.0617021 0)
(0.0162684 0.0695749 0)
(0.0121846 0.0808206 0)
(0.0443615 -0.0327314 0)
(0.0454181 -0.0288172 0)
(0.0425595 -0.0204212 0)
(0.0359606 0.0110069 0)
(0.0341593 0.0155226 0)
(0.0376644 0.00188067 0)
(-0.0257178 0.172039 0)
(-0.0245899 0.170338 0)
(-0.0339114 0.19506 0)
(-0.0107452 0.138997 0)
(-0.059934 0.256105 0)
(-0.0538442 0.242146 0)
(-0.0587301 0.253256 0)
(-0.0637798 0.265271 0)
(-0.0604602 0.257449 0)
(-0.0898294 0.322738 0)
(-0.0894001 0.322096 0)
(-0.0641399 0.265951 0)
(-0.0688659 0.277164 0)
(-0.0712125 0.282686 0)
(-0.0731643 0.286942 0)
(-0.0148009 0.0361688 0)
(-0.0179322 0.0437095 0)
(-0.0141136 0.0310883 0)
(0.00812752 -0.0431189 0)
(0.00836412 -0.040216 0)
(0.00567635 -0.0367342 0)
(0.00720978 -0.0517847 0)
(0.00898982 -0.0562333 0)
(0.0102787 -0.0568353 0)
(0.0288288 -0.0809698 0)
(0.0284768 -0.0842497 0)
(0.0314135 -0.0878383 0)
(0.0538456 -0.0661086 0)
(0.0519715 -0.0646986 0)
(0.053894 -0.0747587 0)
(0.0472757 -0.0966761 0)
(0.0467368 -0.102891 0)
(-0.0683725 0.271531 0)
(-0.0686405 0.271287 0)
(-0.0616569 0.254471 0)
(-0.055139 0.237018 0)
(-0.0607965 0.251933 0)
(-0.0633506 0.258127 0)
(-0.0408978 0.196015 0)
(-0.0456615 0.208772 0)
(-0.0440355 0.204382 0)
(-0.0542315 0.230911 0)
(-0.0519546 0.227042 0)
(-0.0544514 0.236029 0)
(-0.0347277 0.179848 0)
(-0.033847 0.178134 0)
(-0.031852 0.169925 0)
(-0.0307557 0.167003 0)
(-0.0304776 0.164664 0)
(-0.0285643 0.157886 0)
(-0.0497917 0.213038 0)
(-0.0393388 0.185233 0)
(-0.0367486 0.177255 0)
(-0.0860149 0.310996 0)
(-0.0756032 0.28836 0)
(-0.0698667 0.275586 0)
(-0.0727097 0.283568 0)
(-0.0673108 0.268637 0)
(-0.0812581 0.304526 0)
(-0.075895 0.290758 0)
(-0.0785881 0.29685 0)
(-0.130975 0.402772 0)
(-0.133397 0.404728 0)
(-0.129596 0.400053 0)
(-0.0911499 0.326642 0)
(-0.0842975 0.310565 0)
(-0.0854203 0.313984 0)
(-0.0960423 0.327912 0)
(-0.104039 0.345637 0)
(-0.102366 0.340223 0)
(-0.114197 0.320426 0)
(-0.108325 0.303849 0)
(-0.110997 0.323745 0)
(-0.0992301 0.323314 0)
(-0.0960297 0.311346 0)
(-0.0814051 0.200759 0)
(-0.0836103 0.194243 0)
(-0.0784065 0.175725 0)
(-0.042002 0.112814 0)
(-0.0426913 0.123713 0)
(-0.0475623 0.135336 0)
(-0.0292654 0.106357 0)
(-0.0343 0.121954 0)
(-0.0312888 0.109375 0)
(-0.00844983 0.0401029 0)
(-0.00994264 0.0475743 0)
(-0.0103113 0.0473452 0)
(-0.0125014 0.0528791 0)
(-0.014253 0.0605257 0)
(-0.0155635 0.0634739 0)
(-0.00799716 0.0406971 0)
(-0.00788633 0.0417006 0)
(-0.00922714 0.0462069 0)
(-0.00170168 0.0130833 0)
(-0.00181567 0.0132805 0)
(-0.0015626 0.0118568 0)
(-0.00657087 0.0342746 0)
(-0.00637922 0.0325609 0)
(-0.005437 0.0288987 0)
(-0.00186374 0.0149629 0)
(-0.00161967 0.0138259 0)
(-0.00176467 0.0150211 0)
(-0.00141192 0.014571 0)
(-0.00123327 0.0126456 0)
(-0.0011435 0.0126084 0)
(-0.00070941 0.0134568 0)
(-0.000891466 0.0143598 0)
(-0.000690252 0.011982 0)
(-0.000637206 0.00912993 0)
(-0.000786124 0.0100673 0)
(-0.000659292 0.00874472 0)
(-0.000157482 0.00719481 0)
(-0.000136434 0.00897697 0)
(-0.000274263 0.00917683 0)
(0.000434361 0.00810182 0)
(0.00030941 0.00570774 0)
(0.000517414 0.00611308 0)
(-0.00171724 0.00617559 0)
(-0.0016886 0.00594467 0)
(-0.0010268 0.0045924 0)
(0.000202491 0.0023092 0)
(-0.000319964 0.0032403 0)
(-0.000622268 0.00361009 0)
(0.000794709 0.00294481 0)
(0.00065252 0.00205035 0)
(0.000451271 0.00170835 0)
(0.00148211 0.00213957 0)
(0.00103501 0.00435832 0)
(0.000722104 0.00349895 0)
(0.000357956 0.00416785 0)
(-0.00780556 0.021994 0)
(-0.00990628 0.0276427 0)
(-0.0075248 0.0201415 0)
(0.00693803 0.0899074 0)
(0.0111601 0.0824527 0)
(0.0249311 0.0449484 0)
(0.0250406 0.0427204 0)
(0.027631 0.0356335 0)
(0.0447606 -0.0171546 0)
(0.0463653 -0.0207537 0)
(0.0440423 -0.0122781 0)
(0.0534611 -0.0497624 0)
(0.0544387 -0.0574675 0)
(0.0548937 -0.0552919 0)
(0.02793 0.0257564 0)
(0.0317557 0.0142486 0)
(0.0283927 0.0295053 0)
(-0.0483908 0.229233 0)
(-0.0552654 0.245301 0)
(-0.00765959 0.13208 0)
(-0.079614 0.300326 0)
(-0.0766866 0.294522 0)
(-0.0719632 0.284108 0)
(-0.010689 0.0160829 0)
(-0.0106374 0.0134743 0)
(-0.00752736 0.00654404 0)
(-0.00893871 -0.00417187 0)
(-0.012908 0.00385715 0)
(-0.0091421 -0.00744911 0)
(0.00920729 -0.0477867 0)
(0.00939347 -0.0607079 0)
(0.00686139 -0.0568919 0)
(0.00875678 -0.0608732 0)
(0.032393 -0.0847324 0)
(0.0304019 -0.0795436 0)
(0.0604507 -0.0861774 0)
(0.0590994 -0.0839432 0)
(0.0594767 -0.0906492 0)
(0.0605367 -0.107196 0)
(0.0600283 -0.101472 0)
(0.0589843 -0.105988 0)
(-0.0888733 0.317018 0)
(-0.0788262 0.29521 0)
(-0.0572281 0.241916 0)
(-0.063632 0.256616 0)
(-0.0641192 0.257843 0)
(-0.0454819 0.208856 0)
(-0.0500211 0.221354 0)
(-0.049 0.218433 0)
(-0.0591999 0.239392 0)
(-0.0538467 0.229391 0)
(-0.0598791 0.241194 0)
(-0.0330877 0.177125 0)
(-0.079787 0.300326 0)
(-0.087664 0.316342 0)
(-0.0771072 0.293104 0)
(-0.0489249 0.210039 0)
(-0.036472 0.176146 0)
(-0.0654737 0.261484 0)
(-0.0979238 0.345041 0)
(-0.102512 0.353958 0)
(-0.09407 0.335886 0)
(-0.0596189 0.247318 0)
(-0.0562817 0.237795 0)
(-0.0619255 0.253623 0)
(-0.140424 0.420608 0)
(-0.140973 0.420176 0)
(-0.137728 0.416461 0)
(-0.0944893 0.339179 0)
(-0.0950209 0.339404 0)
(-0.105393 0.359878 0)
(-0.108452 0.366579 0)
(-0.121308 0.38948 0)
(-0.108019 0.365975 0)
(-0.132816 0.396709 0)
(-0.133339 0.400839 0)
(-0.13913 0.409627 0)
(-0.126254 0.387455 0)
(-0.1305 0.39478 0)
(-0.128464 0.38703 0)
(-0.112595 0.303172 0)
(-0.101733 0.291215 0)
(-0.102932 0.280525 0)
(-0.0979961 0.271932 0)
(-0.0589308 0.144308 0)
(-0.0634882 0.164795 0)
(-0.062673 0.15352 0)
(-0.0468319 0.150081 0)
(-0.042666 0.131791 0)
(-0.0416123 0.136284 0)
(-0.044561 0.0610771 0)
(-0.0384052 0.047307 0)
(-0.0427229 0.0636653 0)
(-0.0197824 0.0666567 0)
(-0.0226255 0.0775825 0)
(-0.0220781 0.0727971 0)
(-0.0226121 0.0715542 0)
(-0.019656 0.0631904 0)
(-0.0118248 0.0520302 0)
(-0.0100393 0.0436741 0)
(-0.00893662 0.0406259 0)
(-0.0142875 0.0529483 0)
(-0.0163118 0.0610319 0)
(-0.0164829 0.0593283 0)
(-0.0162319 0.0639901 0)
(-0.0138617 0.0553863 0)
(-0.0127133 0.0523122 0)
(-0.00325334 0.0192375 0)
(-0.00282411 0.017351 0)
(-0.00311697 0.0190855 0)
(-0.00320316 0.0202832 0)
(-0.00286711 0.0188529 0)
(-0.00329177 0.0211558 0)
(-0.00547556 0.0281521 0)
(-0.00674001 0.0332382 0)
(-0.00548644 0.027283 0)
(-0.00136101 0.0117271 0)
(-0.00150993 0.0123093 0)
(-0.00131058 0.01101 0)
(-0.0012029 0.0110062 0)
(-0.00101835 0.00981019 0)
(-0.00113977 0.0110381 0)
(-0.000846225 0.0115059 0)
(-0.00047129 0.0106444 0)
(-0.0002661 0.0074079 0)
(-0.000677464 0.0105999 0)
(-0.000895081 0.0131168 0)
(0.000212581 0.0102802 0)
(9.15217e-05 0.0040281 0)
(0.000175527 0.00425243 0)
(0.000162515 0.00597735 0)
(-0.000269965 0.00303009 0)
(-0.000243149 0.00258372 0)
(-0.000705683 0.00367732 0)
(-0.00695444 0.0203517 0)
(-0.00892657 0.0264012 0)
(0.000548217 0.00235758 0)
(0.000481965 0.00121198 0)
(0.000621366 0.00150828 0)
(0.000697245 0.00164063 0)
(0.000137225 0.000975831 0)
(7.81598e-05 0.00139461 0)
(0.000261171 0.0014034 0)
(0.00044316 0.00229624 0)
(0.000574358 0.00377066 0)
(0.000515965 0.00458783 0)
(0.000351676 0.00296124 0)
(-0.0204549 0.05491 0)
(-0.0173472 0.0454899 0)
(-0.0186466 0.0529152 0)
(-0.00588375 0.0131811 0)
(-0.00823022 0.0206657 0)
(0.0227623 0.0512175 0)
(0.0194424 0.0615005 0)
(0.0214487 0.0534683 0)
(0.0508231 -0.0364263 0)
(0.050297 -0.0377716 0)
(0.0518053 -0.0435383 0)
(0.0450932 -0.0221165 0)
(0.0427175 -0.0124968 0)
(0.0527433 -0.0517962 0)
(0.0344436 0.0115735 0)
(0.0383641 0.00360774 0)
(0.0407494 -0.00332931 0)
(0.0387332 0.00515827 0)
(-0.0122779 0.0298244 0)
(-0.0123068 0.0276765 0)
(-0.00863797 0.00545763 0)
(-0.00631754 0.000765309 0)
(-0.0119987 -0.00267624 0)
(-0.0112038 -0.00848345 0)
(-0.00907618 -0.0108151 0)
(-0.00199017 -0.0415654 0)
(-0.00384721 -0.0367871 0)
(-0.0049525 -0.0370254 0)
(0.0221088 -0.0873424 0)
(0.0260148 -0.0953616 0)
(0.0248277 -0.0916389 0)
(0.0593758 -0.118951 0)
(0.0598042 -0.122121 0)
(0.0616223 -0.12028 0)
(0.0562006 -0.0628258 0)
(0.0568577 -0.0712119 0)
(0.0576614 -0.0680607 0)
(0.058541 -0.0739397 0)
(0.0587058 -0.069854 0)
(0.0541048 -0.127266 0)
(0.0544604 -0.123578 0)
(0.0516372 -0.124439 0)
(-0.0919365 0.32435 0)
(-0.0711085 0.273404 0)
(-0.0721192 0.276922 0)
(-0.0559144 0.232703 0)
(-0.0467858 0.209738 0)
(-0.0506603 0.224022 0)
(-0.0538254 0.232423 0)
(-0.0366118 0.18381 0)
(-0.0398284 0.193301 0)
(-0.0382813 0.189733 0)
(-0.0243018 0.139766 0)
(-0.0232669 0.13639 0)
(-0.0244805 0.141052 0)
(-0.0748559 0.287213 0)
(-0.0251961 0.140857 0)
(-0.0315864 0.160202 0)
(-0.0316117 0.16068 0)
(-0.0968975 0.341687 0)
(-0.107879 0.362573 0)
(-0.0971471 0.342936 0)
(-0.146796 0.428516 0)
(-0.144991 0.426666 0)
(-0.150373 0.43389 0)
(-0.137154 0.416667 0)
(-0.139921 0.420664 0)
(-0.141806 0.423 0)
(-0.0993096 0.34959 0)
(-0.104439 0.359228 0)
(-0.101822 0.353722 0)
(-0.109937 0.371902 0)
(-0.1223 0.393313 0)
(-0.111432 0.374928 0)
(-0.151836 0.430141 0)
(-0.154923 0.434963 0)
(-0.154714 0.433265 0)
(-0.127618 0.391569 0)
(-0.123351 0.383881 0)
(-0.124215 0.387061 0)
(-0.135386 0.384984 0)
(-0.135452 0.384642 0)
(-0.137414 0.383958 0)
(-0.130102 0.365666 0)
(-0.132439 0.375191 0)
(-0.133723 0.370145 0)
(-0.12499 0.31862 0)
(-0.126207 0.314131 0)
(-0.123375 0.308137 0)
(-0.111045 0.28496 0)
(-0.105476 0.264682 0)
(-0.10755 0.285711 0)
(-0.0990412 0.220986 0)
(-0.098553 0.229959 0)
(-0.101637 0.236392 0)
(-0.0745567 0.130882 0)