/*--------------------------------*- C++ -*----------------------------------*\
| =========                 |                                                 |
| \\      /  F ield         | OpenFOAM: The Open Source CFD Toolbox           |
|  \\    /   O peration     | Version:  v2012                                 |
|   \\  /    A nd           | Website:  www.openfoam.com                      |
|    \\/     M anipulation  |                                                 |
\*---------------------------------------------------------------------------*/
FoamFile
{
    version     2.0;
    format      ascii;
    class       volVectorField;
    location    "1";
    object      cellDisplacement;
}
// * * * * * * * * * * * * * * * * * * * * * * * * * * * * * * * * * * * * * //

dimensions      [0 1 0 0 0 0 0];


internalField   nonuniform List<vector> 
27222
(
(1.34177e-32 -1.90592e-32 0)
(4.8068e-32 -6.82786e-32 0)
(0 0 0)
(1.27555e-32 -1.80218e-32 0)
(9.43057e-32 -1.34001e-31 0)
(0 0 0)
(0 0 0)
(3.14366e-32 -4.44159e-32 0)
(1.00535e-31 -1.43601e-31 0)
(1.58054e-31 -2.23787e-31 0)
(0 0 0)
(0 0 0)
(7.53457e-32 -1.06454e-31 0)
(-2.76636e-38 1.7076e-39 0)
(4.22048e-31 -6.02839e-31 0)
(3.09902e-31 -4.38949e-31 0)
(0 0 0)
(0 0 0)
(0 0 0)
(1.60395e-31 -2.26618e-31 0)
(-7.65811e-38 4.72713e-39 0)
(0 0 0)
(5.52885e-31 -7.95623e-31 0)
(5.32719e-31 -7.55254e-31 0)
(2.60119e-31 -3.67602e-31 0)
(0 0 0)
(0 0 0)
(0 0 0)
(1.59158e-31 -2.24806e-31 0)
(-1.71539e-37 1.07291e-38 0)
(-2.03423e-38 1.09873e-39 0)
(0 0 0)
(1.95618e-30 -2.81501e-30 0)
(1.2932e-30 -1.83341e-30 0)
(5.86489e-31 -8.2883e-31 0)
(0 0 0)
(0 0 0)
(0 0 0)
(0 0 0)
(4.91244e-31 -6.9387e-31 0)
(-4.2127e-37 2.63487e-38 0)
(-5.91388e-38 3.19419e-39 0)
(0 0 0)
(0 0 0)
(3.33373e-30 -4.74468e-30 0)
(1.70011e-30 -2.51899e-30 0)
(2.17416e-30 -3.08408e-30 0)
(1.15756e-30 -1.63587e-30 0)
(0 0 0)
(0 0 0)
(0 0 0)
(0 0 0)
(1.35371e-31 -1.90426e-31 0)
(-1.28183e-37 6.9234e-39 0)
(-8.92754e-37 5.68393e-38 0)
(0 0 0)
(0 0 0)
(0 0 0)
(7.25501e-30 -1.03376e-29 0)
(7.12168e-30 -1.05519e-29 0)
(5.57449e-30 -7.9075e-30 0)
(2.43225e-30 -3.43726e-30 0)
(0 0 0)
(0 0 0)
(0 0 0)
(0 0 0)
(0 0 0)
(3.75344e-31 -5.27995e-31 0)
(-2.91969e-37 1.57698e-38 0)
(-1.99382e-36 1.26942e-37 0)
(0 0 0)
(0 0 0)
(9.50284e-30 -1.35045e-29 0)
(9.11462e-30 -1.30187e-29 0)
(1.05283e-29 -1.63124e-29 0)
(4.76344e-30 -6.7368e-30 0)
(9.60301e-31 -1.35084e-30 0)
(0 0 0)
(0 0 0)
(0 0 0)
(0 0 0)
(0 0 0)
(-6.10845e-36 4.69385e-37 0)
(-7.41464e-37 4.00479e-38 0)
(0 0 0)
(-4.05244e-36 2.64202e-37 0)
(0 0 0)
(0 0 0)
(2.07126e-29 -2.94348e-29 0)
(2.05218e-29 -2.9312e-29 0)
(4.15767e-29 -6.44185e-29 0)
(1.14137e-29 -1.61421e-29 0)
(2.21838e-30 -3.12057e-30 0)
(0 0 0)
(0 0 0)
(0 0 0)
(0 0 0)
(0 0 0)
(0 0 0)
(0 0 0)
(-1.15962e-35 9.29955e-37 0)
(-1.56803e-36 8.46922e-38 0)
(0 0 0)
(-1.01512e-35 6.61813e-37 0)
(0 0 0)
(0 0 0)
(0 0 0)
(2.29258e-29 -3.24699e-29 0)
(2.80994e-29 -4.00332e-29 0)
(2.54147e-29 -3.64164e-29 0)
(1.04688e-28 -1.66591e-28 0)
(5.94337e-30 -8.36074e-30 0)
(-1.02164e-36 2.22123e-34 0)
(0 0 0)
(0 0 0)
(0 0 0)
(0 0 0)
(0 0 0)
(0 0 0)
(0 0 0)
(-1.21024e-35 1.09815e-36 0)
(-2.04919e-35 1.39677e-36 0)
(-4.75507e-36 2.5683e-37 0)
(0 0 0)
(0 0 0)
(0 0 0)
(0 0 0)
(0 0 0)
(5.48489e-29 -7.76826e-29 0)
(6.48901e-29 -9.24487e-29 0)
(5.66038e-29 -8.11069e-29 0)
(3.46326e-28 -5.51112e-28 0)
(1.30785e-29 -1.8398e-29 0)
(1.06089e-35 6.55958e-34 0)
(0 0 0)
(0 0 0)
(0 0 0)
(0 0 0)
(0 0 0)
(0 0 0)
(0 0 0)
(-2.85207e-35 2.58791e-36 0)
(-4.47236e-35 3.04846e-36 0)
(-1.14239e-35 6.17027e-37 0)
(0 0 0)
(0 0 0)
(0 0 0)
(0 0 0)
(0 0 0)
(3.83343e-29 -5.39308e-29 0)
(1.02753e-28 -1.45997e-28 0)
(1.10999e-28 -1.59049e-28 0)
(6.99073e-28 -1.12304e-27 0)
(2.18472e-34 3.49089e-33 0)
(5.02906e-35 1.45567e-33 0)
(-3.36446e-35 3.73483e-36 0)
(0 0 0)
(0 0 0)
(0 0 0)
(0 0 0)
(0 0 0)
(0 0 0)
(0 0 0)
(-3.998e-35 2.95285e-36 0)
(-6.98675e-35 4.53511e-36 0)
(-2.40417e-35 1.29853e-36 0)
(0 0 0)
(0 0 0)
(0 0 0)
(0 0 0)
(0 0 0)
(0 0 0)
(8.36919e-29 -1.17742e-28 0)
(2.21051e-28 -3.14082e-28 0)
(2.36144e-28 -3.38368e-28 0)
(1.78819e-27 -2.83479e-27 0)
(3.78599e-28 -6.33694e-28 0)
(5.79308e-34 8.35988e-33 0)
(1.42592e-34 4.12735e-33 0)
(-7.39358e-35 8.2075e-36 0)
(0 0 0)
(0 0 0)
(0 0 0)
(0 0 0)
(0 0 0)
(0 0 0)
(0 0 0)
(0 0 0)
(-9.13498e-35 6.74691e-36 0)
(-1.74824e-34 1.16259e-35 0)
(-5.74507e-35 3.10302e-36 0)
(0 0 0)
(0 0 0)
(0 0 0)
(0 0 0)
(0 0 0)
(0 0 0)
(1.84344e-28 -2.59353e-28 0)
(3.1972e-28 -4.5204e-28 0)
(4.53033e-28 -6.49146e-28 0)
(4.02675e-27 -6.45039e-27 0)
(1.73477e-27 -2.90364e-27 0)
(1.20544e-33 1.73954e-32 0)
(4.31676e-34 9.73465e-33 0)
(-9.75768e-35 1.37345e-35 0)
(0 0 0)
(0 0 0)
(0 0 0)
(0 0 0)
(0 0 0)
(0 0 0)
(0 0 0)
(0 0 0)
(-1.61415e-34 1.19218e-35 0)
(-1.66222e-34 8.97794e-36 0)
(-2.49338e-34 1.79857e-35 0)
(0 0 0)
(0 0 0)
(0 0 0)
(0 0 0)
(0 0 0)
(0 0 0)
(0 0 0)
(1.42879e-28 -1.98463e-28 0)
(7.629e-28 -1.07863e-27 0)
(1.02458e-27 -1.46811e-27 0)
(3.61978e-27 -6.02519e-27 0)
(6.91142e-27 -1.08124e-26 0)
(6.55242e-28 -1.13778e-27 0)
(2.43013e-33 3.21833e-32 0)
(8.9642e-34 2.0215e-32 0)
(-2.09398e-34 2.94739e-35 0)
(0 0 0)
(0 0 0)
(0 0 0)
(0 0 0)
(0 0 0)
(0 0 0)
(0 0 0)
(0 0 0)
(0 0 0)
(0 0 0)
(-1.77916e-34 1.3637e-35 0)
(-3.25253e-34 1.75675e-35 0)
(-5.75045e-34 4.14802e-35 0)
(0 0 0)
(0 0 0)
(0 0 0)
(0 0 0)
(0 0 0)
(0 0 0)
(0 0 0)
(3.84311e-28 -5.33855e-28 0)
(8.80712e-28 -1.22355e-27 0)
(2.09767e-27 -3.00572e-27 0)
(9.82994e-27 -1.63621e-26 0)
(1.6466e-26 -2.60561e-26 0)
(3.64269e-27 -6.32526e-27 0)
(5.55439e-33 7.35591e-32 0)
(9.36293e-35 8.55684e-33 0)
(2.34928e-33 4.60836e-32 0)
(-3.50671e-34 5.96378e-35 0)
(0 0 0)
(0 0 0)
(0 0 0)
(0 0 0)
(0 0 0)
(0 0 0)
(0 0 0)
(0 0 0)
(0 0 0)
(0 0 0)
(-3.77268e-34 2.89169e-35 0)
(-9.30362e-34 5.02506e-35 0)
(0 0 0)
(-1.03538e-33 7.3268e-35 0)
(0 0 0)
(0 0 0)
(0 0 0)
(0 0 0)
(0 0 0)
(0 0 0)
(0 0 0)
(0 0 0)
(0 0 0)
(1.28428e-32 1.50638e-31 0)
(1.99511e-27 -2.77176e-27 0)
(4.70033e-27 -6.73504e-27 0)
(1.85962e-26 -3.07324e-26 0)
(2.29685e-26 -3.53231e-26 0)
(9.77528e-27 -1.6974e-26 0)
(6.04679e-34 2.14838e-32 0)
(4.50445e-33 8.83596e-32 0)
(-8.36445e-34 1.42252e-34 0)
(0 0 0)
(0 0 0)
(0 0 0)
(0 0 0)
(0 0 0)
(0 0 0)
(0 0 0)
(0 0 0)
(0 0 0)
(-7.41594e-34 5.6842e-35 0)
(-1.40325e-33 4.56623e-35 0)
(0 0 0)
(-2.24614e-33 1.58946e-34 0)
(0 0 0)
(0 0 0)
(0 0 0)
(0 0 0)
(0 0 0)
(0 0 0)
(0 0 0)
(0 0 0)
(0 0 0)
(0 0 0)
(2.2939e-32 2.6906e-31 0)
(5.34573e-28 -5.69212e-28 0)
(9.55537e-27 -1.36918e-26 0)
(4.56931e-26 -7.55131e-26 0)
(5.11514e-26 -7.95788e-26 0)
(3.4872e-26 -6.05527e-26 0)
(1.38777e-33 4.20735e-32 0)
(2.41034e-34 1.60822e-32 0)
(1.03936e-32 1.89017e-31 0)
(-1.39035e-33 3.03586e-34 0)
(0 0 0)
(0 0 0)
(0 0 0)
(0 0 0)
(0 0 0)
(0 0 0)
(0 0 0)
(0 0 0)
(0 0 0)
(0 0 0)
(-1.49462e-33 1.1456e-34 0)
(-3.28675e-33 1.06952e-34 0)
(0 0 0)
(-4.17888e-33 2.87938e-34 0)
(0 0 0)
(0 0 0)
(0 0 0)
(0 0 0)
(0 0 0)
(0 0 0)
(0 0 0)
(0 0 0)
(0 0 0)
(0 0 0)
(4.13328e-32 4.36411e-31 0)
(1.64673e-32 2.55497e-31 0)
(1.49063e-27 -1.58774e-27 0)
(2.02989e-26 -2.90861e-26 0)
(7.48816e-26 -1.21478e-25 0)
(5.6768e-26 -8.32052e-26 0)
(8.11631e-26 -1.40934e-25 0)
(3.2915e-33 9.97895e-32 0)
(1.10517e-33 4.70855e-32 0)
(-2.91397e-34 3.37848e-34 0)
(6.95521e-33 1.97904e-31 0)
(-3.79453e-33 4.49933e-34 0)
(0 0 0)
(0 0 0)
(0 0 0)
(0 0 0)
(0 0 0)
(0 0 0)
(0 0 0)
(0 0 0)
(0 0 0)
(0 0 0)
(0 0 0)
(-3.30444e-33 2.5328e-34 0)
(-5.17401e-33 4.65232e-35 0)
(-3.89452e-33 2.30908e-34 0)
(0 0 0)
(-7.40639e-33 5.67688e-34 0)
(0 0 0)
(0 0 0)
(0 0 0)
(0 0 0)
(0 0 0)
(0 0 0)
(0 0 0)
(0 0 0)
(0 0 0)
(0 0 0)
(1.06526e-31 1.12476e-30 0)
(3.74364e-32 5.80842e-31 0)
(3.38428e-27 -3.60648e-27 0)
(2.1437e-31 2.09508e-30 0)
(1.61889e-25 -2.62629e-25 0)
(1.10509e-25 -1.61974e-25 0)
(2.28177e-26 -4.25175e-26 0)
(2.08513e-25 -3.58105e-25 0)
(2.30862e-33 9.83585e-32 0)
(-7.82674e-34 9.07439e-34 0)
(1.39405e-32 3.96663e-31 0)
(-6.72885e-33 9.59935e-34 0)
(0 0 0)
(0 0 0)
(0 0 0)
(0 0 0)
(0 0 0)
(0 0 0)
(0 0 0)
(0 0 0)
(0 0 0)
(0 0 0)
(0 0 0)
(0 0 0)
(-1.61077e-32 1.44836e-34 0)
(0 0 0)
(-1.06395e-32 6.30819e-34 0)
(0 0 0)
(-1.53217e-32 1.17439e-33 0)
(0 0 0)
(0 0 0)
(0 0 0)
(0 0 0)
(0 0 0)
(0 0 0)
(0 0 0)
(0 0 0)
(0 0 0)
(0 0 0)
(0 0 0)
(7.72124e-32 1.19798e-30 0)
(7.7242e-27 -8.23134e-27 0)
(4.27717e-31 4.18016e-30 0)
(2.05245e-25 -3.14775e-25 0)
(9.55982e-26 -1.29954e-25 0)
(2.04317e-25 -3.80714e-25 0)
(4.33672e-25 -7.44799e-25 0)
(5.7765e-33 2.40362e-31 0)
(-1.13447e-34 1.28099e-33 0)
(-1.79303e-33 9.23981e-34 0)
(2.65772e-32 6.99836e-31 0)
(-1.76639e-32 1.6689e-33 0)
(0 0 0)
(0 0 0)
(0 0 0)
(0 0 0)
(0 0 0)
(0 0 0)
(0 0 0)
(0 0 0)
(0 0 0)
(0 0 0)
(0 0 0)
(-3.09677e-32 -2.69122e-34 0)
(0 0 0)
(-2.06063e-32 1.22176e-33 0)
(0 0 0)
(0 0 0)
(0 0 0)
(0 0 0)
(0 0 0)
(0 0 0)
(0 0 0)
(0 0 0)
(0 0 0)
(0 0 0)
(0 0 0)
(0 0 0)
(1.73798e-31 2.37567e-30 0)
(1.69922e-26 -1.81144e-26 0)
(8.3918e-31 7.66725e-30 0)
(4.28923e-25 -6.57818e-25 0)
(2.44296e-25 -3.37508e-25 0)
(5.83867e-25 -1.08795e-24 0)
(5.85803e-25 -9.47828e-25 0)
(1.21176e-32 5.04218e-31 0)
(-2.41831e-34 2.73066e-33 0)
(-3.84868e-33 1.9833e-33 0)
(6.42997e-32 1.69315e-30 0)
(-3.87716e-32 3.66317e-33 0)
(0 0 0)
(0 0 0)
(0 0 0)
(0 0 0)
(0 0 0)
(0 0 0)
(0 0 0)
(0 0 0)
(0 0 0)
(0 0 0)
(0 0 0)
(-7.89274e-32 -6.85912e-34 0)
(0 0 0)
(-4.6796e-32 2.77456e-33 0)
(0 0 0)
(0 0 0)
(0 0 0)
(0 0 0)
(0 0 0)
(0 0 0)
(0 0 0)
(0 0 0)
(0 0 0)
(0 0 0)
(0 0 0)
(0 0 0)
(0 0 0)
(3.55509e-31 4.85949e-30 0)
(4.42244e-26 -4.71451e-26 0)
(1.87832e-30 1.71615e-29 0)
(5.05648e-25 -7.32494e-25 0)
(1.17633e-25 -1.25448e-25 0)
(1.26731e-24 -2.36145e-24 0)
(1.14225e-24 -1.84816e-24 0)
(3.04142e-32 1.25087e-30 0)
(-2.7145e-34 3.86851e-33 0)
(-3.28989e-34 3.07711e-33 0)
(-2.81209e-34 1.73265e-33 0)
(-1.1597e-32 3.70604e-33 0)
(1.24414e-31 2.84734e-30 0)
(-9.52627e-32 5.64818e-33 0)
(0 0 0)
(0 0 0)
(0 0 0)
(0 0 0)
(0 0 0)
(0 0 0)
(0 0 0)
(0 0 0)
(0 0 0)
(0 0 0)
(0 0 0)
(0 0 0)
(-1.38296e-31 -3.56964e-33 0)
(0 0 0)
(0 0 0)
(0 0 0)
(0 0 0)
(0 0 0)
(0 0 0)
(0 0 0)
(0 0 0)
(0 0 0)
(0 0 0)
(0 0 0)
(0 0 0)
(0 0 0)
(7.29503e-31 9.01316e-30 0)
(3.99024e-30 3.41021e-29 0)
(1.01543e-24 -1.47098e-24 0)
(2.25797e-25 -2.40799e-25 0)
(1.93076e-24 -3.70443e-24 0)
(1.96841e-24 -3.18488e-24 0)
(6.90367e-32 2.83933e-30 0)
(-5.5366e-34 7.89033e-33 0)
(-7.01684e-34 7.94486e-33 0)
(-6.51489e-34 4.01411e-33 0)
(-2.30073e-32 7.35242e-33 0)
(2.56189e-31 5.86315e-30 0)
(-1.92489e-31 1.14128e-32 0)
(0 0 0)
(0 0 0)
(0 0 0)
(0 0 0)
(0 0 0)
(0 0 0)
(0 0 0)
(0 0 0)
(0 0 0)
(0 0 0)
(0 0 0)
(0 0 0)
(0 0 0)
(0 0 0)
(-3.72598e-31 -9.61734e-33 0)
(0 0 0)
(0 0 0)
(0 0 0)
(0 0 0)
(0 0 0)
(0 0 0)
(0 0 0)
(0 0 0)
(0 0 0)
(0 0 0)
(0 0 0)
(0 0 0)
(0 0 0)
(0 0 0)
(0 0 0)
(0 0 0)
(1.52535e-30 1.8846e-29 0)
(8.72539e-30 7.45705e-29 0)
(6.06943e-25 -6.8847e-25 0)
(1.80169e-24 -2.75374e-24 0)
(1.58577e-26 1.94487e-26 0)
(5.68493e-24 -1.06214e-23 0)
(7.18373e-25 -1.55802e-24 0)
(3.23342e-24 -5.38223e-24 0)
(1.43278e-31 5.86497e-30 0)
(-6.95412e-34 1.02382e-32 0)
(-7.63185e-34 1.04701e-32 0)
(-9.15197e-34 8.02883e-33 0)
(-7.61882e-34 3.20976e-33 0)
(-5.26634e-32 1.45206e-32 0)
(1.65703e-31 5.7928e-30 0)
(5.03812e-31 9.25469e-30 0)
(-1.10251e-31 2.34956e-32 0)
(-3.62907e-31 5.84972e-33 0)
(0 0 0)
(0 0 0)
(0 0 0)
(0 0 0)
(0 0 0)
(0 0 0)
(0 0 0)
(0 0 0)
(0 0 0)
(0 0 0)
(0 0 0)
(0 0 0)
(0 0 0)
(0 0 0)
(-7.35372e-31 -4.66174e-32 0)
(0 0 0)
(0 0 0)
(0 0 0)
(0 0 0)
(0 0 0)
(0 0 0)
(0 0 0)
(0 0 0)
(0 0 0)
(0 0 0)
(0 0 0)
(0 0 0)
(0 0 0)
(0 0 0)
(0 0 0)
(0 0 0)
(3.31843e-30 3.80147e-29 0)
(1.72336e-29 1.39173e-28 0)
(1.25324e-24 -1.42158e-24 0)
(4.4653e-24 -6.82484e-24 0)
(4.26137e-26 5.21322e-26 0)
(1.18745e-23 -2.30066e-23 0)
(3.88143e-24 -8.41812e-24 0)
(8.0021e-24 -1.332e-23 0)
(2.36982e-31 1.10017e-29 0)
(-1.51743e-33 2.23404e-32 0)
(-1.60158e-33 2.19719e-32 0)
(-1.79518e-33 1.57487e-32 0)
(-1.70892e-33 7.19955e-33 0)
(-3.15809e-33 1.13389e-32 0)
(4.06593e-31 1.42141e-29 0)
(1.09575e-30 2.01283e-29 0)
(-2.75943e-31 5.88064e-32 0)
(-9.35496e-31 1.50793e-32 0)
(0 0 0)
(0 0 0)
(0 0 0)
(0 0 0)
(0 0 0)
(0 0 0)
(0 0 0)
(0 0 0)
(0 0 0)
(0 0 0)
(0 0 0)
(0 0 0)
(0 0 0)
(0 0 0)
(-1.87067e-30 -1.18587e-31 0)
(0 0 0)
(0 0 0)
(0 0 0)
(0 0 0)
(0 0 0)
(0 0 0)
(0 0 0)
(0 0 0)
(0 0 0)
(0 0 0)
(0 0 0)
(0 0 0)
(0 0 0)
(0 0 0)
(0 0 0)
(0 0 0)
(0 0 0)
(7.11332e-30 8.14876e-29 0)
(4.35924e-29 3.52038e-28 0)
(3.17864e-24 -3.88364e-24 0)
(1.11356e-25 1.3358e-25 0)
(1.23116e-27 4.03263e-27 0)
(2.54051e-23 -4.8382e-23 0)
(7.76187e-24 -1.68341e-23 0)
(1.50392e-23 -2.50336e-23 0)
(1.626e-31 9.69755e-30 0)
(4.49071e-31 1.85046e-29 0)
(-2.1799e-33 3.30739e-32 0)
(-3.05394e-33 4.18968e-32 0)
(-3.16018e-33 3.09068e-32 0)
(-1.27385e-33 6.96806e-33 0)
(-6.50457e-33 2.33541e-32 0)
(5.41284e-31 1.67908e-29 0)
(2.23291e-30 3.40748e-29 0)
(-1.04781e-32 2.80363e-32 0)
(-6.51148e-31 1.14856e-31 0)
(0 0 0)
(0 0 0)
(0 0 0)
(0 0 0)
(0 0 0)
(0 0 0)
(0 0 0)
(0 0 0)
(0 0 0)
(0 0 0)
(0 0 0)
(0 0 0)
(0 0 0)
(-3.87063e-30 -2.45371e-31 0)
(0 0 0)
(0 0 0)
(0 0 0)
(0 0 0)
(0 0 0)
(0 0 0)
(0 0 0)
(0 0 0)
(0 0 0)
(0 0 0)
(0 0 0)
(0 0 0)
(0 0 0)
(0 0 0)
(0 0 0)
(0 0 0)
(1.58983e-29 1.73493e-28 0)
(8.91195e-29 6.749e-28 0)
(6.57115e-24 -8.02858e-24 0)
(2.60449e-25 3.12428e-25 0)
(3.16508e-27 9.97742e-27 0)
(5.1515e-23 -1.01283e-22 0)
(2.61082e-23 -5.66239e-23 0)
(3.11033e-23 -5.17734e-23 0)
(4.98123e-31 2.94786e-29 0)
(9.45925e-31 3.89782e-29 0)
(-5.5718e-33 8.45365e-32 0)
(-2.72425e-33 3.17008e-32 0)
(-6.70092e-33 5.55148e-32 0)
(-2.97324e-33 1.62638e-32 0)
(-5.93451e-33 3.24622e-32 0)
(1.21667e-30 3.77415e-29 0)
(4.78938e-30 7.30873e-29 0)
(-2.24128e-32 5.99701e-32 0)
(-1.56669e-30 2.76347e-31 0)
(0 0 0)
(0 0 0)
(0 0 0)
(0 0 0)
(0 0 0)
(0 0 0)
(0 0 0)
(0 0 0)
(0 0 0)
(0 0 0)
(0 0 0)
(0 0 0)
(0 0 0)
(0 0 0)
(0 0 0)
(0 0 0)
(0 0 0)
(-5.7036e-30 -1.01856e-30 0)
(-3.96784e-30 5.90834e-31 0)
(0 0 0)
(0 0 0)
(0 0 0)
(0 0 0)
(0 0 0)
(0 0 0)
(0 0 0)
(0 0 0)
(0 0 0)
(0 0 0)
(0 0 0)
(0 0 0)
(0 0 0)
(0 0 0)
(0 0 0)
(0 0 0)
(0 0 0)
(3.36219e-29 3.66906e-28 0)
(1.96136e-28 1.48533e-27 0)
(1.56488e-23 -2.04521e-23 0)
(6.21238e-25 7.34478e-25 0)
(6.32914e-27 1.83369e-26 0)
(2.20022e-27 8.23257e-27 0)
(5.7301e-23 -1.2178e-22 0)
(7.42198e-23 -1.3223e-22 0)
(1.44219e-23 -3.40868e-23 0)
(3.21236e-31 2.74498e-29 0)
(9.89483e-31 4.93021e-29 0)
(1.37512e-30 4.82776e-29 0)
(-1.01937e-32 1.54661e-31 0)
(-6.31195e-33 7.34492e-32 0)
(-1.38023e-32 1.22837e-31 0)
(-1.14332e-32 6.25401e-32 0)
(1.64757e-30 4.62715e-29 0)
(1.00106e-29 1.32911e-28 0)
(-1.17316e-32 5.05011e-32 0)
(-4.82521e-32 1.07305e-31 0)
(0 0 0)
(0 0 0)
(0 0 0)
(0 0 0)
(0 0 0)
(0 0 0)
(0 0 0)
(0 0 0)
(0 0 0)
(0 0 0)
(0 0 0)
(0 0 0)
(0 0 0)
(0 0 0)
(0 0 0)
(0 0 0)
(-1.58672e-29 -2.83359e-30 0)
(-9.26866e-30 1.38016e-30 0)
(0 0 0)
(0 0 0)
(0 0 0)
(0 0 0)
(0 0 0)
(0 0 0)
(0 0 0)
(0 0 0)
(0 0 0)
(0 0 0)
(0 0 0)
(0 0 0)
(0 0 0)
(0 0 0)
(0 0 0)
(0 0 0)
(0 0 0)
(7.4491e-29 7.90875e-28 0)
(1.17857e-28 1.21125e-27 0)
(3.83884e-28 2.55186e-27 0)
(3.69326e-23 -4.82689e-23 0)
(1.47042e-24 1.73845e-24 0)
(1.34786e-26 3.90504e-26 0)
(5.71829e-27 2.01828e-26 0)
(1.25225e-22 -2.66138e-22 0)
(1.54516e-22 -2.75285e-22 0)
(5.21775e-23 -1.23324e-22 0)
(9.97069e-31 8.2981e-29 0)
(-1.65737e-32 2.69876e-31 0)
(2.34292e-30 1.16739e-28 0)
(2.90334e-30 1.0193e-28 0)
(-8.00867e-33 9.77205e-32 0)
(-8.3123e-33 9.07918e-32 0)
(-2.61348e-32 2.15281e-31 0)
(-1.69589e-32 1.03845e-31 0)
(3.91251e-30 1.09882e-28 0)
(2.25052e-29 2.98801e-28 0)
(-2.31882e-32 9.98181e-32 0)
(-1.00137e-31 2.22687e-31 0)
(0 0 0)
(0 0 0)
(0 0 0)
(0 0 0)
(0 0 0)
(0 0 0)
(0 0 0)
(0 0 0)
(0 0 0)
(0 0 0)
(0 0 0)
(0 0 0)
(0 0 0)
(0 0 0)
(0 0 0)
(-1.83903e-29 -6.7566e-30 0)
(-2.25327e-29 -4.38339e-31 0)
(-1.98327e-30 3.44599e-30 0)
(0 0 0)
(0 0 0)
(0 0 0)
(0 0 0)
(0 0 0)
(0 0 0)
(0 0 0)
(0 0 0)
(0 0 0)
(0 0 0)
(0 0 0)
(0 0 0)
(0 0 0)
(0 0 0)
(0 0 0)
(0 0 0)
(0 0 0)
(0 0 0)
(5.2827e-29 6.2612e-28 0)
(3.10963e-28 3.19586e-27 0)
(8.7589e-28 5.82246e-27 0)
(8.9985e-23 -1.2118e-22 0)
(2.81084e-24 3.32321e-24 0)
(1.15372e-26 3.74536e-26 0)
(2.32295e-26 6.37862e-26 0)
(1.94588e-27 1.07283e-26 0)
(2.31471e-22 -4.84781e-22 0)
(2.78812e-22 -5.30626e-22 0)
(1.12751e-22 -2.66492e-22 0)
(2.09547e-30 1.42404e-28 0)
(4.20958e-31 6.82547e-29 0)
(-4.19618e-32 6.83281e-31 0)
(3.57757e-30 1.4183e-28 0)
(3.97852e-30 1.24233e-28 0)
(-1.739e-32 2.1219e-31 0)
(-1.71644e-32 1.8748e-31 0)
(-5.58959e-32 4.96844e-31 0)
(-4.33033e-32 2.65161e-31 0)
(5.58337e-30 1.43202e-28 0)
(-4.31601e-32 2.02529e-31 0)
(-1.90634e-32 6.68666e-32 0)
(-2.09375e-31 4.46828e-31 0)
(0 0 0)
(0 0 0)
(0 0 0)
(0 0 0)
(0 0 0)
(0 0 0)
(0 0 0)
(0 0 0)
(0 0 0)
(0 0 0)
(0 0 0)
(0 0 0)
(0 0 0)
(0 0 0)
(0 0 0)
(-5.256e-29 -1.93106e-29 0)
(-4.95042e-29 -9.63029e-31 0)
(-5.70551e-30 9.8121e-30 0)
(0 0 0)
(0 0 0)
(0 0 0)
(0 0 0)
(0 0 0)
(0 0 0)
(0 0 0)
(0 0 0)
(0 0 0)
(0 0 0)
(0 0 0)
(0 0 0)
(0 0 0)
(0 0 0)
(0 0 0)
(0 0 0)
(0 0 0)
(0 0 0)
(0 0 0)
(0 0 0)
(1.12169e-28 1.32946e-27 0)
(4.82103e-28 4.81637e-27 0)
(2.74336e-28 2.95937e-27 0)
(1.90038e-22 -2.55919e-22 0)
(8.06163e-24 9.48297e-24 0)
(2.38198e-26 7.73268e-26 0)
(4.96612e-26 1.36365e-25 0)
(3.87359e-27 2.13565e-26 0)
(3.2601e-22 -7.43189e-22 0)
(6.05857e-22 -1.15305e-21 0)
(3.23e-23 -9.24317e-23 0)
(4.62212e-30 3.1411e-28 0)
(-7.71156e-32 1.33601e-30 0)
(1.28073e-30 1.91275e-28 0)
(-2.46953e-32 3.13802e-31 0)
(7.95983e-30 3.15561e-28 0)
(8.79175e-30 2.74532e-28 0)
(-3.02896e-32 3.3084e-31 0)
(-7.58734e-32 7.31589e-31 0)
(-6.13412e-32 4.43884e-31 0)
(1.17726e-29 3.01944e-28 0)
(-9.83829e-32 4.61664e-31 0)
(-4.23709e-32 1.4862e-31 0)
(-5.26305e-31 1.12319e-30 0)
(0 0 0)
(0 0 0)
(0 0 0)
(0 0 0)
(0 0 0)
(0 0 0)
(0 0 0)
(0 0 0)
(0 0 0)
(0 0 0)
(0 0 0)
(0 0 0)
(0 0 0)
(0 0 0)
(-7.83197e-29 -2.12379e-29 0)
(-5.4164e-29 -2.86434e-29 0)
(-5.25513e-29 1.52044e-29 0)
(-1.37977e-30 2.80386e-30 0)
(-1.23918e-29 2.09232e-29 0)
(0 0 0)
(0 0 0)
(0 0 0)
(0 0 0)
(0 0 0)
(0 0 0)
(0 0 0)
(0 0 0)
(0 0 0)
(0 0 0)
(0 0 0)
(0 0 0)
(0 0 0)
(0 0 0)
(0 0 0)
(0 0 0)
(0 0 0)
(0 0 0)
(2.04265e-29 4.95108e-28 0)
(1.00431e-27 1.00334e-26 0)
(5.58944e-28 6.02955e-27 0)
(4.08552e-22 -5.65852e-22 0)
(1.55781e-23 1.83247e-23 0)
(2.01178e-26 7.98263e-26 0)
(9.54253e-26 2.62029e-25 0)
(8.7038e-27 4.17904e-26 0)
(1.33158e-27 1.31507e-26 0)
(6.21264e-22 -1.41627e-21 0)
(8.68862e-22 -1.81401e-21 0)
(6.56832e-22 -1.09966e-21 0)
(1.2847e-22 -3.67637e-22 0)
(2.71885e-30 2.90395e-28 0)
(8.52305e-30 4.92578e-28 0)
(-1.76846e-31 3.06381e-30 0)
(2.67499e-31 1.83393e-28 0)
(-5.5072e-32 6.99798e-31 0)
(1.07105e-29 4.75743e-28 0)
(1.67566e-29 5.23243e-28 0)
(-4.71833e-32 5.16332e-31 0)
(-3.42518e-32 3.73394e-31 0)
(-2.22834e-31 2.06516e-30 0)
(-1.35056e-31 9.77311e-31 0)
(1.15885e-29 3.18572e-28 0)
(-1.84227e-31 9.00394e-31 0)
(-8.29464e-32 2.90943e-31 0)
(0 0 0)
(0 0 0)
(0 0 0)
(0 0 0)
(0 0 0)
(0 0 0)
(0 0 0)
(0 0 0)
(0 0 0)
(0 0 0)
(0 0 0)
(0 0 0)
(0 0 0)
(-1.95544e-28 -5.30254e-29 0)
(-1.41542e-28 -7.4851e-29 0)
(-1.68473e-28 1.69507e-29 0)
(-2.63061e-30 5.3457e-30 0)
(-2.90496e-29 4.90496e-29 0)
(0 0 0)
(0 0 0)
(0 0 0)
(0 0 0)
(0 0 0)
(0 0 0)
(0 0 0)
(0 0 0)
(0 0 0)
(0 0 0)
(0 0 0)
(0 0 0)
(0 0 0)
(0 0 0)
(0 0 0)
(0 0 0)
(0 0 0)
(0 0 0)
(0 0 0)
(4.2835e-29 1.03826e-27 0)
(1.28785e-27 1.29783e-26 0)
(5.0339e-28 5.98206e-27 0)
(9.72549e-28 9.90662e-27 0)
(4.26497e-22 -3.55927e-22 0)
(3.65301e-23 4.27946e-23 0)
(1.58988e-25 4.04399e-25 0)
(5.07049e-26 1.90682e-25 0)
(2.00336e-26 9.61892e-26 0)
(2.74449e-27 2.71045e-26 0)
(7.78993e-22 -1.92303e-21 0)
(1.8649e-21 -3.89354e-21 0)
(1.75754e-21 -2.94246e-21 0)
(3.5914e-22 -1.02707e-21 0)
(9.6283e-26 -8.87422e-25 0)
(6.58046e-30 7.02846e-28 0)
(1.15238e-29 8.99493e-28 0)
(-3.81215e-31 6.9949e-30 0)
(-9.03272e-32 1.23008e-30 0)
(1.17299e-30 4.93703e-28 0)
(2.71787e-29 1.20723e-27 0)
(3.43763e-29 1.13171e-27 0)
(-1.0668e-31 1.16741e-30 0)
(-8.90705e-32 9.70997e-31 0)
(-3.77699e-31 3.76086e-30 0)
(-1.8357e-31 1.44648e-30 0)
(-1.51728e-31 9.66966e-31 0)
(2.75972e-29 7.58658e-28 0)
(-3.50329e-31 1.40652e-30 0)
(-1.72582e-31 6.05348e-31 0)
(0 0 0)
(0 0 0)
(0 0 0)
(0 0 0)
(0 0 0)
(0 0 0)
(0 0 0)
(0 0 0)
(0 0 0)
(0 0 0)
(0 0 0)
(0 0 0)
(-3.04453e-28 -1.44754e-28 0)
(-7.9645e-29 -5.66277e-29 0)
(-3.50384e-28 3.52535e-29 0)
(-5.84665e-30 1.14863e-29 0)
(-3.46595e-31 1.21572e-30 0)
(-7.58502e-29 1.26146e-28 0)
(-7.51673e-30 1.41547e-29 0)
(0 0 0)
(0 0 0)
(0 0 0)
(0 0 0)
(0 0 0)
(0 0 0)
(0 0 0)
(0 0 0)
(0 0 0)
(0 0 0)
(0 0 0)
(0 0 0)
(0 0 0)
(0 0 0)
(0 0 0)
(0 0 0)
(0 0 0)
(0 0 0)
(0 0 0)
(7.28066e-29 1.70119e-27 0)
(2.76911e-27 2.77137e-26 0)
(1.46672e-27 1.62104e-26 0)
(2.22383e-27 2.26524e-26 0)
(8.2345e-23 9.50087e-23 0)
(1.23604e-21 -1.28785e-21 0)
(2.30757e-24 4.58731e-24 0)
(3.60757e-25 9.17615e-25 0)
(9.75267e-26 3.66761e-25 0)
(4.31199e-27 4.22088e-26 0)
(4.62198e-26 1.9957e-25 0)
(1.97235e-21 -4.62957e-21 0)
(2.8468e-21 -5.44447e-21 0)
(9.54749e-22 -2.73039e-21 0)
(5.37446e-25 -4.95353e-24 0)
(4.78594e-30 8.20526e-28 0)
(2.19285e-29 1.71164e-27 0)
(-8.06589e-31 1.48001e-29 0)
(-2.06528e-31 2.81251e-30 0)
(-1.34608e-30 4.97255e-28 0)
(3.13393e-29 1.79136e-27 0)
(7.26839e-29 2.39283e-27 0)
(-1.70921e-31 1.87387e-30 0)
(-1.94031e-31 2.11522e-30 0)
(-8.7268e-31 8.44821e-30 0)
(-4.36736e-31 3.44136e-30 0)
(-3.91449e-31 2.49472e-30 0)
(5.2102e-29 1.43231e-27 0)
(-7.47072e-31 3.08508e-30 0)
(0 0 0)
(0 0 0)
(0 0 0)
(0 0 0)
(0 0 0)
(0 0 0)
(0 0 0)
(0 0 0)
(0 0 0)
(0 0 0)
(0 0 0)
(-6.77984e-28 -3.22352e-28 0)
(-1.98464e-28 -1.41108e-28 0)
(-7.6828e-28 -3.67094e-29 0)
(-7.3582e-30 1.54571e-29 0)
(-7.39707e-31 2.5946e-30 0)
(-1.72084e-28 2.86191e-28 0)
(-2.04723e-29 3.85512e-29 0)
(0 0 0)
(0 0 0)
(0 0 0)
(0 0 0)
(0 0 0)
(0 0 0)
(0 0 0)
(0 0 0)
(0 0 0)
(0 0 0)
(0 0 0)
(0 0 0)
(0 0 0)
(0 0 0)
(0 0 0)
(0 0 0)
(0 0 0)
(0 0 0)
(0 0 0)
(0 0 0)
(1.81753e-28 4.24682e-27 0)
(5.13406e-27 5.13826e-26 0)
(1.56631e-27 1.89096e-26 0)
(4.42031e-27 4.50264e-26 0)
(1.8211e-22 2.10116e-22 0)
(2.42179e-21 -2.5233e-21 0)
(5.34015e-24 1.04414e-23 0)
(7.09875e-25 1.80562e-24 0)
(1.87782e-25 6.85228e-25 0)
(8.58987e-27 8.40836e-26 0)
(9.29891e-26 4.01514e-25 0)
(4.33996e-21 -1.01869e-20 0)
(6.59537e-21 -1.26136e-20 0)
(2.18472e-21 -6.24484e-21 0)
(1.17514e-24 -1.0831e-23 0)
(1.03006e-29 1.76598e-27 0)
(2.67468e-29 2.72526e-27 0)
(-3.28838e-31 4.8706e-30 0)
(-1.77091e-30 3.36391e-29 0)
(-3.83265e-31 1.38812e-27 0)
(-2.79776e-30 5.53965e-29 0)
(7.0974e-29 4.05688e-27 0)
(1.31635e-28 4.59058e-27 0)
(-4.10231e-31 4.49752e-30 0)
(-4.2443e-31 4.6269e-30 0)
(-1.6599e-30 1.6927e-29 0)
(-6.39358e-31 5.41757e-30 0)
(-4.54991e-31 3.14867e-30 0)
(-4.92406e-31 2.83315e-30 0)
(1.19766e-28 3.29241e-27 0)
(-1.48919e-30 5.2235e-30 0)
(0 0 0)
(0 0 0)
(0 0 0)
(0 0 0)
(0 0 0)
(0 0 0)
(0 0 0)
(0 0 0)
(0 0 0)
(0 0 0)
(0 0 0)
(0 0 0)
(0 0 0)
(-5.45015e-28 -3.87506e-28 0)
(-1.08539e-27 -4.11555e-28 0)
(0 0 0)
(-1.07071e-27 3.03837e-28 0)
(-1.65848e-29 3.39471e-29 0)
(-3.60234e-28 5.95623e-28 0)
(-3.81224e-29 7.1788e-29 0)
(0 0 0)
(0 0 0)
(0 0 0)
(0 0 0)
(0 0 0)
(0 0 0)
(0 0 0)
(0 0 0)
(0 0 0)
(0 0 0)
(0 0 0)
(0 0 0)
(0 0 0)
(0 0 0)
(0 0 0)
(0 0 0)
(0 0 0)
(0 0 0)
(0 0 0)
(0 0 0)
(3.36362e-28 7.30315e-27 0)
(7.87208e-27 7.81059e-26 0)
(5.55014e-27 5.60702e-26 0)
(4.00832e-27 4.47895e-26 0)
(5.82484e-27 5.99306e-26 0)
(3.798e-22 4.33573e-22 0)
(9.70764e-24 1.84219e-23 0)
(5.94545e-21 -7.71735e-21 0)
(6.32914e-22 6.92891e-22 0)
(1.93767e-24 4.6186e-24 0)
(4.58916e-25 1.67461e-24 0)
(1.33468e-26 1.29824e-25 0)
(2.53548e-25 1.02727e-24 0)
(1.0181e-26 9.86514e-26 0)
(4.47161e-21 -1.22898e-20 0)
(1.23442e-20 -2.36081e-20 0)
(1.3367e-21 -4.37072e-21 0)
(4.25277e-24 -3.91969e-23 0)
(7.70796e-30 2.13008e-27 0)
(1.77182e-29 2.32019e-27 0)
(5.6263e-29 4.95631e-27 0)
(-7.7721e-31 1.15117e-29 0)
(-1.37049e-30 2.25843e-29 0)
(-1.02118e-29 1.33434e-27 0)
(-7.09023e-30 1.40389e-28 0)
(1.13593e-28 5.14179e-27 0)
(2.55032e-28 7.01093e-27 0)
(-5.85449e-31 6.44527e-30 0)
(-9.93219e-31 1.08275e-29 0)
(-3.19782e-30 3.18905e-29 0)
(-1.59178e-30 1.34879e-29 0)
(-1.08547e-30 7.51177e-30 0)
(-1.09374e-30 6.29302e-30 0)
(-3.34765e-30 1.17422e-29 0)
(0 0 0)
(0 0 0)
(0 0 0)
(0 0 0)
(0 0 0)
(0 0 0)
(0 0 0)
(0 0 0)
(0 0 0)
(0 0 0)
(0 0 0)
(-1.20966e-27 -8.60069e-28 0)
(-2.62462e-27 -9.95195e-28 0)
(0 0 0)
(-2.58526e-27 -2.45341e-28 0)
(-5.06644e-28 8.24344e-28 0)
(-7.16322e-30 2.08057e-29 0)
(-4.44007e-28 7.47221e-28 0)
(-7.93718e-29 1.49464e-28 0)
(0 0 0)
(0 0 0)
(0 0 0)
(0 0 0)
(0 0 0)
(0 0 0)
(0 0 0)
(0 0 0)
(0 0 0)
(0 0 0)
(0 0 0)
(0 0 0)
(0 0 0)
(0 0 0)
(0 0 0)
(0 0 0)
(0 0 0)
(0 0 0)
(0 0 0)
(0 0 0)
(0 0 0)
(6.78034e-28 1.47216e-26 0)
(1.57702e-26 1.5647e-25 0)
(1.42468e-26 1.43928e-25 0)
(4.03464e-27 5.06274e-26 0)
(1.35362e-26 1.39271e-25 0)
(3.01209e-22 3.84373e-22 0)
(1.95849e-23 3.71657e-23 0)
(3.45539e-21 2.11428e-21 0)
(1.46766e-21 1.60675e-21 0)
(3.52189e-24 8.39473e-24 0)
(8.62029e-25 3.03957e-24 0)
(2.74813e-26 2.67816e-25 0)
(6.06822e-25 2.45859e-24 0)
(2.77737e-26 2.69121e-25 0)
(1.06932e-20 -2.93892e-20 0)
(2.70934e-20 -5.18157e-20 0)
(8.48022e-24 -7.81473e-23 0)
(3.74786e-21 -1.21924e-20 0)
(1.43784e-24 -1.32746e-23 0)
(2.08792e-29 5.76993e-27 0)
(5.12847e-29 6.7157e-27 0)
(1.22122e-28 1.07579e-26 0)
(-2.88646e-30 4.75661e-29 0)
(-1.48127e-29 3.14139e-27 0)
(-1.14446e-29 2.37984e-28 0)
(-5.80468e-30 1.02725e-28 0)
(2.75055e-28 1.24504e-26 0)
(4.95636e-28 1.36253e-26 0)
(-1.32405e-30 1.45766e-29 0)
(-2.0335e-30 2.21681e-29 0)
(-2.50735e-30 2.24051e-29 0)
(-5.80501e-30 5.98094e-29 0)
(-2.10661e-30 1.45784e-29 0)
(-1.2991e-30 7.57215e-30 0)
(-1.57722e-30 8.9218e-30 0)
(0 0 0)
(0 0 0)
(0 0 0)
(0 0 0)
(0 0 0)
(0 0 0)
(0 0 0)
(0 0 0)
(0 0 0)
(0 0 0)
(-2.84617e-27 -2.02363e-27 0)
(0 0 0)
(-3.74915e-27 -2.01778e-27 0)
(0 0 0)
(-5.41498e-27 -5.13882e-28 0)
(-1.27408e-27 2.07302e-27 0)
(-1.66513e-29 4.8364e-29 0)
(-1.46985e-28 2.66336e-28 0)
(-1.02556e-27 1.70726e-27 0)
(0 0 0)
(0 0 0)
(0 0 0)
(0 0 0)
(0 0 0)
(0 0 0)
(0 0 0)
(0 0 0)
(0 0 0)
(0 0 0)
(0 0 0)
(0 0 0)
(0 0 0)
(0 0 0)
(0 0 0)
(0 0 0)
(0 0 0)
(0 0 0)
(0 0 0)
(0 0 0)
(0 0 0)
(7.20561e-28 1.69398e-26 0)
(1.08208e-27 2.19528e-26 0)
(2.01542e-26 2.01591e-25 0)
(2.12882e-26 2.09503e-25 0)
(8.826e-27 1.03536e-25 0)
(2.55587e-26 2.62969e-25 0)
(6.71298e-22 8.47599e-22 0)
(3.7834e-23 7.17964e-23 0)
(2.13028e-21 2.18434e-21 0)
(6.05783e-21 3.13486e-21 0)
(1.43609e-21 1.76228e-21 0)
(6.78955e-24 1.55851e-23 0)
(1.77231e-24 6.24926e-24 0)
(5.4757e-26 5.30583e-25 0)
(1.29217e-24 5.11206e-24 0)
(2.06118e-20 -5.52672e-20 0)
(4.78234e-20 -7.5293e-20 0)
(2.46725e-23 -2.27363e-22 0)
(8.15987e-21 -2.65453e-20 0)
(6.84604e-24 -6.32049e-23 0)
(1.18456e-30 6.80947e-27 0)
(9.88628e-29 1.2946e-26 0)
(2.03892e-28 1.41221e-26 0)
(-1.38658e-30 1.54543e-29 0)
(-3.79289e-29 1.95915e-27 0)
(-2.70613e-29 5.62725e-28 0)
(-1.37369e-29 2.43101e-28 0)
(4.81483e-28 1.68151e-26 0)
(-4.24497e-30 4.62763e-29 0)
(-5.14098e-30 4.59384e-29 0)
(-7.23411e-30 7.81267e-29 0)
(-7.65599e-30 7.42597e-29 0)
(-4.42618e-30 3.23939e-29 0)
(-3.41986e-30 1.99335e-29 0)
(-3.49853e-30 1.979e-29 0)
(0 0 0)
(0 0 0)
(0 0 0)
(0 0 0)
(0 0 0)
(0 0 0)
(0 0 0)
(0 0 0)
(-3.60477e-27 -3.55918e-27 0)
(0 0 0)
(-1.16132e-26 -6.25021e-27 0)
(0 0 0)
(-1.52808e-26 -4.71381e-27 0)
(-1.38823e-27 2.23486e-27 0)
(-1.75076e-27 2.87167e-27 0)
(-2.96009e-29 8.59765e-29 0)
(-3.50916e-28 6.35856e-28 0)
(-8.54539e-28 1.47073e-27 0)
(0 0 0)
(0 0 0)
(0 0 0)
(0 0 0)
(0 0 0)
(0 0 0)
(0 0 0)
(0 0 0)
(0 0 0)
(0 0 0)
(0 0 0)
(0 0 0)
(0 0 0)
(0 0 0)
(0 0 0)
(0 0 0)
(0 0 0)
(0 0 0)
(0 0 0)
(0 0 0)
(0 0 0)
(0 0 0)
(0 0 0)
(1.85191e-27 4.3537e-26 0)
(2.43789e-27 4.94589e-26 0)
(4.35307e-26 4.35411e-25 0)
(4.46755e-26 4.39664e-25 0)
(1.49989e-26 1.91693e-25 0)
(9.81053e-27 1.03478e-25 0)
(5.8976e-26 6.03849e-25 0)
(1.09084e-22 2.01427e-22 0)
(1.35414e-23 2.86952e-23 0)
(5.12203e-21 5.25201e-21 0)
(8.949e-21 3.17346e-21 0)
(6.63661e-21 6.16269e-21 0)
(3.03904e-21 3.72933e-21 0)
(2.88793e-24 9.76884e-24 0)
(2.75545e-24 9.47028e-24 0)
(1.73146e-24 6.35828e-24 0)
(9.71532e-26 9.41394e-25 0)
(1.73985e-24 7.54162e-24 0)
(4.66831e-20 -1.25173e-19 0)
(1.13073e-19 -1.95263e-19 0)
(4.70835e-23 -4.33794e-22 0)
(1.76497e-20 -5.72177e-20 0)
(1.82913e-23 -1.68871e-22 0)
(2.61408e-30 1.50272e-26 0)
(2.02048e-28 2.64581e-26 0)
(4.50728e-28 3.12186e-26 0)
(-2.82067e-30 3.14382e-29 0)
(-6.21744e-29 4.53348e-27 0)
(-3.85237e-29 8.60042e-28 0)
(-2.95197e-29 5.51105e-28 0)
(-4.3051e-30 4.8001e-29 0)
(1.11325e-27 3.88786e-26 0)
(-3.17037e-30 3.53177e-29 0)
(-6.05383e-30 4.98877e-29 0)
(-1.62977e-29 1.76011e-28 0)
(-1.65846e-29 1.60863e-28 0)
(-4.80162e-30 2.8646e-29 0)
(-4.4578e-30 2.63507e-29 0)
(-6.8292e-30 3.86306e-29 0)
(0 0 0)
(0 0 0)
(0 0 0)
(0 0 0)
(0 0 0)
(0 0 0)
(0 0 0)
(-1.09105e-26 -1.07725e-26 0)
(0 0 0)
(0 0 0)
(0 0 0)
(-3.02736e-26 -9.33876e-27 0)
(-3.00815e-27 4.84271e-27 0)
(-3.75943e-27 6.16636e-27 0)
(-6.91699e-29 1.82841e-28 0)
(-1.3601e-28 3.02042e-28 0)
(-1.73748e-27 2.99034e-27 0)
(0 0 0)
(0 0 0)
(0 0 0)
(0 0 0)
(0 0 0)
(0 0 0)
(0 0 0)
(0 0 0)
(0 0 0)
(0 0 0)
(0 0 0)
(0 0 0)
(0 0 0)
(0 0 0)
(0 0 0)
(0 0 0)
(0 0 0)
(0 0 0)
(0 0 0)
(0 0 0)
(0 0 0)
(0 0 0)
(2.09727e-27 5.56905e-26 0)
(5.27385e-27 1.06993e-25 0)
(6.11468e-26 6.15824e-25 0)
(7.98834e-26 7.86156e-25 0)
(3.36121e-26 3.83951e-25 0)
(2.34149e-26 2.46972e-25 0)
(8.98951e-26 9.31524e-25 0)
(2.07798e-22 3.83707e-22 0)
(3.88284e-23 8.22803e-23 0)
(5.7937e-21 6.58038e-21 0)
(2.29829e-20 8.15008e-21 0)
(1.38012e-20 1.28156e-20 0)
(2.25077e-21 3.2105e-21 0)
(5.24761e-24 1.75408e-23 0)
(6.34462e-24 2.1806e-23 0)
(4.05131e-24 1.48772e-23 0)
(1.0157e-25 9.91334e-25 0)
(1.56178e-25 1.50516e-24 0)
(4.38787e-24 1.80596e-23 0)
(9.0798e-20 -2.36256e-19 0)
(1.25535e-19 -2.90169e-19 0)
(1.79994e-19 -2.15486e-19 0)
(9.65664e-23 -8.89694e-22 0)
(4.29962e-20 -1.39388e-19 0)
(5.5479e-23 -5.122e-22 0)
(4.06241e-29 2.67737e-26 0)
(1.3272e-28 3.01323e-26 0)
(4.20471e-28 3.72166e-26 0)
(7.28851e-28 4.15185e-26 0)
(-1.24501e-28 9.07804e-27 0)
(-7.93453e-29 1.77139e-27 0)
(-6.52039e-29 1.2173e-27 0)
(-9.15945e-30 1.02126e-28 0)
(-6.77503e-30 7.54734e-29 0)
(-1.54547e-29 1.27357e-28 0)
(-2.34937e-29 2.44223e-28 0)
(-1.97005e-29 2.18631e-28 0)
(-8.00795e-30 4.79386e-29 0)
(-9.29991e-30 5.49732e-29 0)
(-1.6129e-29 9.12365e-29 0)
(0 0 0)
(0 0 0)
(0 0 0)
(0 0 0)
(0 0 0)