/*--------------------------------*- C++ -*----------------------------------*\
| =========                 |                                                 |
| \\      /  F ield         | OpenFOAM: The Open Source CFD Toolbox           |
|  \\    /   O peration     | Version:  v2012                                 |
|   \\  /    A nd           | Website:  www.openfoam.com                      |
|    \\/     M anipulation  |                                                 |
\*---------------------------------------------------------------------------*/
FoamFile
{
    version     2.0;
    format      ascii;
    class       volScalarField;
    location    "1";
    object      k;
}
// * * * * * * * * * * * * * * * * * * * * * * * * * * * * * * * * * * * * * //

dimensions      [0 2 -2 0 0 0 0];


internalField   nonuniform List<scalar> 
27222
(
0.00329505
0.00324041
0.00346974
0.00334896
0.00311547
0.0036006
0.00349402
0.00330611
0.00298496
0.00308087
0.00376731
0.0036345
0.00317643
0.00343445
0.00285772
0.00298456
0.00378285
0.0039308
0.00366937
0.00305372
0.00334374
0.00359299
0.00273856
0.00286428
0.00296147
0.00395678
0.0041138
0.00384623
0.00306233
0.00319682
0.00343513
0.00367513
0.00261708
0.00278059
0.00282782
0.00397964
0.00411945
0.00429776
0.00384748
0.00292359
0.00316246
0.00340852
0.00357397
0.00364419
0.0025915
0.00250609
0.00268177
0.00280625
0.00415749
0.00429528
0.00449571
0.00397518
0.00291012
0.00327615
0.00302988
0.00353195
0.0036647
0.00380512
0.00249655
0.00240409
0.00257541
0.00268337
0.00432135
0.00414645
0.00446025
0.00471177
0.00394456
0.00278275
0.00325596
0.0030035
0.00353615
0.00378912
0.00248993
0.00240422
0.00229934
0.00257353
0.0026735
0.00449146
0.00429428
0.00464083
0.00492947
0.00408937
0.00277827
0.00311319
0.00336938
0.00289403
0.00366201
0.00393252
0.00239466
0.00232425
0.00221085
0.00245601
0.00254281
0.00454151
0.00424412
0.00444515
0.00482615
0.00498123
0.00514717
0.00411171
0.00270387
0.00305609
0.00333267
0.00284738
0.00359477
0.00377197
0.00391949
0.00237138
0.00232094
0.00222514
0.00210389
0.00244206
0.00250861
0.00474146
0.00438697
0.00452992
0.00490904
0.00522385
0.00538858
0.00428018
0.00261641
0.00274117
0.00292449
0.00314624
0.00327099
0.00348651
0.00369303
0.00409409
0.00225856
0.00222804
0.00218034
0.00204636
0.00234287
0.00243259
0.00469807
0.00445745
0.00510562
0.00541947
0.00524396
0.00561786
0.00428442
0.00254888
0.00264892
0.00292088
0.00303739
0.00336017
0.00349996
0.00381207
0.00411901
0.00224544
0.00219125
0.0020922
0.00196241
0.00228641
0.00233561
0.00245764
0.00486157
0.00464183
0.00520551
0.00564518
0.00546196
0.00587929
0.00448052
0.00255606
0.00268328
0.00281589
0.0030901
0.00325702
0.00361946
0.00397307
0.00375592
0.00431257
0.00217454
0.00209104
0.00204558
0.00191859
0.00188588
0.00219114
0.00225971
0.00240337
0.00510787
0.00480431
0.00466303
0.00545782
0.00585562
0.00564163
0.00615301
0.00449977
0.00244641
0.0026151
0.00281037
0.00304874
0.0033123
0.00356926
0.00398088
0.00384244
0.00430921
0.00208393
0.00203531
0.00196004
0.00183878
0.00181245
0.00213066
0.00216803
0.00229671
0.00529393
0.00497666
0.00484924
0.00564917
0.00607776
0.00586217
0.00640521
0.00468598
0.00242671
0.00267337
0.00251872
0.0029187
0.0031548
0.00328015
0.00346538
0.00371206
0.00413291
0.00450717
0.00202461
0.00193474
0.00190181
0.00178759
0.0017864
0.00173495
0.00205051
0.00208624
0.00225599
0.00517757
0.00553541
0.00495507
0.00565224
0.00592055
0.00630735
0.00664377
0.00646003
0.0048566
0.00468093
0.00233184
0.00262987
0.00243537
0.00290282
0.00311699
0.00337721
0.00350676
0.00377731
0.00416302
0.00452076
0.00193851
0.00188968
0.00181717
0.00170992
0.00170811
0.00168223
0.00197312
0.00207935
0.00199679
0.00216288
0.00531479
0.00569548
0.00519935
0.00593283
0.00617141
0.00645221
0.00691737
0.00673384
0.00499127
0.00485184
0.00234402
0.00253812
0.00272541
0.00244524
0.003004
0.00281437
0.00321862
0.00336571
0.00363517
0.00394197
0.00436512
0.00408266
0.00472159
0.00191326
0.00179705
0.00175991
0.00167049
0.00166577
0.00160601
0.00200001
0.00193399
0.00216701
0.00557921
0.00594728
0.00532343
0.00614154
0.00643628
0.00677085
0.00718206
0.00518679
0.00494929
0.00226328
0.00256085
0.00265181
0.00235358
0.00290165
0.00280959
0.00319591
0.00348458
0.00363163
0.00391774
0.0043565
0.00419233
0.0046851
0.00490613
0.00184687
0.00174476
0.00169217
0.00159414
0.0015957
0.00155965
0.00193952
0.00196055
0.00185744
0.00209595
0.00574533
0.00617975
0.00556629
0.00638986
0.00670155
0.0070344
0.0073011
0.00741138
0.00528762
0.00517497
0.00226168
0.00247446
0.00268828
0.00232138
0.00294906
0.00332849
0.00309161
0.00345794
0.00376463
0.00404242
0.00450132
0.00417914
0.00484872
0.0050788
0.00178533
0.00181152
0.0016812
0.00161293
0.00155887
0.00156763
0.00148799
0.00187845
0.00188672
0.00201006
0.00182904
0.00211461
0.00600595
0.00620692
0.00643704
0.00565611
0.00662017
0.00694776
0.00711562
0.00758357
0.00777308
0.00552653
0.00528212
0.0021992
0.00246791
0.00237955
0.00265019
0.00222456
0.0028576
0.00333588
0.00312893
0.00357943
0.00370787
0.00406255
0.00447699
0.00432182
0.00482786
0.00506324
0.00173265
0.00174126
0.00160889
0.00168054
0.00148875
0.00150108
0.0014273
0.00145342
0.00183292
0.00194018
0.00176616
0.00205474
0.00606279
0.00649345
0.00669824
0.00593241
0.00685118
0.00708435
0.00744452
0.00769424
0.00778224
0.00809655
0.00566684
0.00548697
0.00235665
0.00255114
0.00231609
0.00274512
0.00217473
0.00290504
0.0034703
0.00324978
0.00303016
0.00358392
0.00381387
0.00396195
0.00423286
0.00462898
0.00499845
0.0052671
0.00167925
0.00154845
0.00162455
0.00146152
0.00146066
0.00135256
0.00139639
0.00176141
0.00186145
0.00196374
0.00169563
0.00208229
0.00636035
0.00675243
0.00694035
0.00609898
0.00735252
0.00769269
0.00800892
0.00810395
0.00846694
0.00591867
0.00556235
0.00235732
0.00256925
0.00222133
0.00266793
0.0028483
0.00345109
0.00330218
0.00303281
0.0037069
0.00403993
0.00432317
0.00452444
0.00520245
0.00499112
0.00548259
0.00161507
0.00148743
0.00156458
0.0013961
0.00139602
0.00133524
0.00136662
0.00170548
0.00179067
0.00190774
0.00162729
0.00202821
0.00654484
0.00701462
0.00723725
0.00637884
0.00759498
0.00796486
0.00818313
0.00841037
0.00885721
0.00600863
0.00583167
0.0022405
0.0024604
0.00217656
0.00272322
0.00290913
0.00355366
0.00326874
0.00313604
0.00377166
0.00394528
0.00422131
0.00463641
0.00536876
0.00522342
0.00485332
0.00565572
0.00155972
0.00142672
0.00150604
0.00136271
0.00138173
0.00129481
0.0013176
0.00163094
0.00172241
0.00177611
0.00183731
0.00194638
0.00156708
0.0020759
0.0068402
0.00721506
0.00714348
0.00752054
0.00653132
0.00795445
0.00812644
0.00848297
0.00871753
0.00925198
0.00630636
0.00590583
0.00219584
0.00246214
0.00266799
0.00285787
0.00353179
0.00369023
0.0033877
0.00307744
0.00402859
0.00431198
0.00450517
0.00560579
0.00533286
0.00494037
0.00149961
0.00144139
0.0013044
0.00132483
0.00124978
0.00127601
0.00158694
0.00167259
0.00171463
0.00179252
0.00187989
0.00151027
0.00200171
0.00697603
0.00702665
0.00751465
0.00749914
0.00778427
0.00684477
0.00817868
0.00849155
0.00862167
0.00905399
0.00967692
0.00926978
0.00640498
0.00614552
0.00211756
0.00227363
0.00236571
0.00257434
0.00274381
0.00294082
0.00364725
0.00377334
0.00332649
0.00316678
0.00392275
0.00420747
0.00458174
0.00582968
0.00514718
0.0055516
0.00478133
0.00144879
0.00138731
0.00128557
0.00126424
0.00129918
0.00121556
0.00120204
0.00122834
0.00153484
0.00161382
0.00166723
0.00172253
0.00181491
0.00185782
0.00149294
0.0014582
0.00191209
0.00203206
0.00727506
0.00732346
0.00775997
0.00775633
0.00806704
0.00705079
0.00856595
0.00870812
0.00899183
0.00925157
0.0101259
0.00970522
0.0067096
0.00619426
0.00211976
0.00218923
0.00237883
0.00257567
0.00267225
0.00288118
0.00371051
0.00343391
0.00312021
0.0040028
0.00429386
0.00448267
0.00574617
0.00608761
0.00516556
0.00554117
0.0048215
0.0013901
0.001332
0.00123333
0.00120602
0.0012432
0.00116572
0.0011577
0.00119121
0.00149444
0.00158873
0.00161732
0.001686
0.00176931
0.00178486
0.00144991
0.00141322
0.00187263
0.00199048
0.00750148
0.00763437
0.00802985
0.00810671
0.00830079
0.00698476
0.0074017
0.00881838
0.00907797
0.00962666
0.0106025
0.0100885
0.00671251
0.00649462
0.00203572
0.00221204
0.00247805
0.00230347
0.00274001
0.00296762
0.00389813
0.00360289
0.00336735
0.00322232
0.00418988
0.00458165
0.0059428
0.00625434
0.00502893
0.00538432
0.00577361
0.00476853
0.00135191
0.00128888
0.00119233
0.00121133
0.0012181
0.00113303
0.00111203
0.00114962
0.00150274
0.0014531
0.00154374
0.00157546
0.00163713
0.0017172
0.00175639
0.0014094
0.00136837
0.00180022
0.00191512
0.00780452
0.007887
0.00843339
0.00861464
0.0072983
0.00761528
0.00918582
0.0094213
0.00994795
0.0110335
0.0105083
0.00699897
0.00651035
0.00197556
0.00219686
0.00246173
0.00227113
0.00266358
0.00292835
0.00398803
0.00367329
0.0034551
0.00315457
0.00428436
0.00448601
0.00618423
0.00510642
0.00545706
0.00588118
0.0049154
0.00129925
0.00124382
0.00114836
0.00115766
0.00117428
0.00108515
0.00106672
0.00110212
0.00145421
0.00141708
0.00152759
0.00159087
0.00162474
0.00166729
0.00168519
0.00137342
0.00133209
0.00175757
0.0018493
0.00803468
0.00823332
0.00849235
0.00874228
0.00883327
0.00761368
0.00728874
0.00793619
0.00936992
0.00940665
0.00984198
0.0104028
0.011475
0.0110813
0.0109175
0.00700477
0.00673359
0.00202186
0.00187255
0.00213158
0.002552
0.00234834
0.00272637
0.00303623
0.00282946
0.00417449
0.00385022
0.00360503
0.00338221
0.00323437
0.00459654
0.00639782
0.00529655
0.00568375
0.00614786
0.00482639
0.00127198
0.00120587
0.00110366
0.00112793
0.00114023
0.00115364
0.00105284
0.00106598
0.0010191
0.00142538
0.00141918
0.00137838
0.00149513
0.00154862
0.00156902
0.00165459
0.00133531
0.00129684
0.00169643
0.00178047
0.00835679
0.00886868
0.00906817
0.00925663
0.00792314
0.00760745
0.00818085
0.00977494
0.00983161
0.0102374
0.0107555
0.0119389
0.011597
0.0112262
0.00725631
0.00668336
0.00196896
0.0018245
0.00215711
0.00253298
0.00233644
0.00261621
0.00294717
0.00284043
0.00427754
0.00386055
0.0036919
0.00346988
0.00314301
0.00448917
0.00640361
0.00538973
0.00572301
0.00611573
0.00497346
0.00124062
0.00120778
0.00117223
0.00107008
0.00108207
0.00110581
0.00112076
0.00101411
0.00102307
0.000994412
0.0013814
0.00145076
0.00137845
0.0013508
0.00150999
0.00153246
0.0015533
0.00160351
0.00130323
0.00126764
0.00165943
0.00171928
0.00868516
0.00909384
0.00943738
0.00955959
0.00811334
0.00751873
0.00790482
0.00854923
0.0100812
0.0101874
0.0106726
0.0112007
0.0116879
0.00721997
0.00692798
0.00201581
0.001875
0.00175581
0.0021012
0.00225088
0.00243089
0.00262555
0.0029962
0.00274732
0.00426678
0.00400397
0.00362891
0.00346475
0.00319267
0.0045957
0.00666205
0.00563199
0.00522218
0.00595395
0.00635013
0.0047965
0.00123928
0.0011741
0.00114337
0.00102449
0.00105245
0.00109809
0.00106779
0.00111637
0.000979425
0.000982078
0.000957525
0.00135547
0.00137151
0.0014324
0.00135143
0.00131254
0.00148543
0.00149522
0.00152022
0.00158051
0.00126916
0.00160673
0.0016707
0.00170629
0.00904533
0.00953881
0.00975876
0.00998995
0.00848736
0.00773375
0.00805367
0.00884291
0.0105198
0.0105833
0.0110561
0.0116325
0.0120216
0.00748269
0.00687408
0.00195503
0.00183409
0.0016984
0.00213242
0.00222301
0.00239807
0.00257251
0.0029623
0.00272988
0.00417449
0.0044558
0.00388489
0.00372581
0.00333076
0.00360708
0.00305964
0.00677239
0.00578303
0.00534059
0.00601898
0.0065892
0.00621086
0.00486459
0.00120939
0.00114434
0.00117767
0.000990553
0.00100508
0.00106969
0.00105092
0.00109165
0.000945713
0.000939735
0.000921341
0.00132396
0.00139751
0.00133747
0.00145279
0.00132086
0.00129928
0.00146284
0.00148089
0.00153728
0.001243
0.00158904
0.00162168
0.001654
0.00938418
0.00977029
0.0102097
0.010315
0.00878138
0.0083957
0.00803024
0.00924552
0.0108976
0.0110136
0.0115243
0.0120276
0.00765013
0.00715846
0.00188044
0.00198748
0.00176868
0.00165055
0.00170756
0.00208206
0.00228688
0.00247355
0.00263311
0.00283093
0.00428227
0.004469
0.00396261
0.00333722
0.00368242
0.00307244
0.00704332
0.0056576
0.00527117
0.00670334
0.00636088
0.00508448
0.00464787
0.0012082
0.00111715
0.00115206
0.000952184
0.000979948
0.00105072
0.00102595
0.00106244
0.00109168
0.000914783
0.000911639
0.000925812
0.000881793
0.00131634
0.00129441
0.00137862
0.00132497
0.00142497
0.00129197
0.00127071
0.00142897
0.00145356
0.00145324
0.00150306
0.00124596
0.00154599
0.0016134
0.0094951
0.0101963
0.0105618
0.0107811
0.00910682
0.00865721
0.00832673
0.00946924
0.0114315
0.0114437
0.011941
0.00805376
0.00741197
0.00181136
0.00193076
0.00175449
0.00160852
0.00165018
0.00212958
0.00223696
0.00245463
0.00255631
0.00277261
0.00417236
0.00387375
0.00320597
0.00347368
0.00360666
0.00297004
0.00719648
0.00583821
0.00549889
0.0066584
0.00703416
0.00615224
0.00513118
0.00468865
0.0011986
0.00110681
0.00115256
0.00112476
0.000918355
0.000954923
0.00100121
0.00102161
0.00104142
0.00107343
0.000876864
0.000879088
0.000886724
0.000857868
0.000848277
0.00128602
0.00127482
0.0013447
0.00139343
0.00129541
0.0012578
0.00124847
0.00140686
0.00141678
0.00141807
0.00146397
0.0015083
0.0012196
0.00152958
0.00156756
0.00997773
0.0105618
0.0103092
0.0110229
0.0111451
0.00904747
0.00865691
0.00836317
0.00983498
0.0118885
0.00812065
0.0074853
0.00183401
0.00197389
0.00167838
0.00157533
0.00156806
0.00162899
0.0015983
0.00207568
0.00230009
0.00240282
0.00256817
0.00286352
0.00266409
0.00426746
0.00397404
0.00320171
0.0034526
0.00370971
0.00298072
0.00573611
0.00535384
0.00689098
0.00720469
0.00627307
0.00495397
0.00460305
0.00117421
0.00108007
0.00112788
0.00111231
0.000922375
0.000884774
0.000957215
0.000978209
0.00100507
0.00104765
0.00101664
0.000858359
0.000864146
0.000818002
0.000810668
0.00127586
0.00125233
0.00132737
0.00136956
0.00127464
0.0012399
0.00122419
0.0013769
0.00139949
0.00139477
0.00143521
0.0014647
0.0012095
0.00149135
0.0100994
0.0110236
0.0107969
0.0113646
0.011628
0.00940493
0.00898242
0.00873907
0.0100242
0.00777457
0.00848142
0.00177806
0.00192044
0.00164685
0.00152998
0.00153104
0.00157121
0.00155876
0.00212984
0.00223733
0.00245656
0.00279086
0.00268402
0.00414387
0.00444284
0.00385546
0.0030821
0.00332387
0.00357405
0.00284579
0.00592185
0.00548645
0.00681274
0.00748454
0.00657272
0.00618055
0.0049577
0.00474752
0.00116801
0.00106431
0.00112497
0.00109327
0.000903021
0.000856522
0.000937028
0.000965484
0.000979188
0.00103159
0.000997935
0.000828447
0.000827311
0.000789891
0.000790915
0.00125197
0.00122886
0.00134435
0.00130484
0.00124843
0.00128176
0.00121662
0.00119967
0.00135541
0.00136625
0.0013609
0.00140348
0.0014356
0.00145365
0.00118545
0.00149468
0.0105499
0.0113596
0.0111522
0.0109203
0.0117337
0.0119257
0.00984344
0.00933014
0.00895749
0.0105203
0.00783336
0.00848651
0.00879949
0.00182197
0.00170304
0.00196718
0.00158594
0.00149984
0.00152134
0.00151695
0.00206997
0.00229171
0.00240887
0.00258714
0.00419832
0.00438155
0.00393103
0.00308937
0.00331033
0.0035766
0.00283166
0.00578149
0.00538897
0.00711962
0.0077687
0.00742412
0.00663209
0.00635933
0.00514934
0.00468918
0.00114431
0.0010412
0.00107281
0.00110206
0.00108747
0.000884181
0.000917881
0.000821066
0.000858059
0.000937216
0.000966079
0.00101332
0.000976744
0.000998085
0.000800015
0.000804487
0.000757441
0.000722553
0.00123792
0.00122972
0.00120998
0.00132373
0.00130238
0.00123193
0.00125909
0.00119631
0.00118042
0.0013282
0.0013458
0.00134486
0.00138618
0.00140096
0.00142203
0.00145568
0.0117218
0.0116281
0.0114429
0.0119833
0.0101618
0.00966048
0.00944691
0.0108994
0.00824552
0.00882311
0.00911504
0.00178304
0.00164095
0.00192395
0.00158246
0.00153069
0.00145284
0.0014698
0.00147295
0.00211742
0.0022907
0.00247863
0.00260239
0.00412736
0.0044918
0.0038751
0.00295459
0.0032049
0.00343978
0.00371687
0.00271324
0.00593756
0.0055744
0.00713148
0.0080281
0.00771224
0.00686868
0.00624576
0.0050627
0.00484072
0.00113185
0.00103211
0.00105983
0.00109635
0.00106692
0.000884903
0.000900042
0.000804011
0.000839975
0.000928169
0.000945676
0.00100345
0.000968501
0.000980703
0.000765956
0.000764961
0.000718337
0.000747875
0.000839047
0.00121192
0.00120859
0.00118933
0.00128248
0.00121268
0.00123811
0.00125969
0.00117232
0.0011595
0.00130925
0.00131813
0.0013621
0.00132189
0.00137465
0.00138705
0.00142562
0.0119214
0.0118985
0.0114155
0.0106034
0.0100691
0.00971596
0.010907
0.00830966
0.00889712
0.00949575
0.00171388
0.00183936
0.00164584
0.00197036
0.00153661
0.00147521
0.00143873
0.00144559
0.00142544
0.00204987
0.0022119
0.00238888
0.0024986
0.00424548
0.00443138
0.004009
0.00291632
0.00325357
0.00341143
0.00368515
0.00269001
0.0058448
0.00546511
0.00741971
0.00796946
0.00785282
0.00688456
0.00644036
0.00521813
0.00475603
0.00114205
0.00111238
0.00104373
0.00101331
0.00108008
0.00105463
0.000866981
0.000885987
0.00081951
0.000787312
0.00084906
0.000910748
0.000932131
0.000984018
0.000952042
0.000745762
0.000748119
0.000676976
0.00071812
0.000523733
0.00119915
0.00118955
0.00116949
0.0012852
0.00119789
0.00121919
0.00123908
0.00115415
0.00129373
0.00133916
0.00129532
0.00132074
0.00133683
0.00137017
0.00138938
0.0119146
0.0107833
0.0103718
0.0101805
0.0114509
0.00857538
0.00926379
0.00977367
0.00169359
0.00181073
0.00159018
0.00192336
0.00153956
0.0014778
0.00142853
0.00140372
0.00140191
0.00139129
0.00205938
0.00221824
0.00239874
0.00248874
0.00418203
0.00455846
0.00396807
0.00279014
0.00302385
0.00317148
0.0035279
0.00381409
0.00258574
0.0060458
0.00561728
0.00718666
0.00768753
0.00829012
0.00818472
0.00672864
0.00633328
0.0051113
0.00488695
0.00112234
0.00110891
0.0010284
0.0010133
0.0010764
0.0010633
0.00103561
0.000863167
0.000893697
0.00080457
0.000766766
0.000789346
0.000829498
0.000906542
0.000916886
0.0009362
0.000975436
0.000947336
0.000714006
0.000724493
0.000697896
0.000701141
0.0043035
0.00118212
0.00116733
0.00114943
0.00126779
0.00118167
0.00120141
0.00121939
0.0012435
0.00113325
0.00127157
0.00131982
0.00127591
0.0012974
0.00132414
0.00134538
0.00137562
0.0111594
0.0104411
0.0104016
0.0115011
0.00925485
0.0096562
0.010249
0.00161283
0.00173974
0.00185563
0.00196399
0.00148687
0.00145169
0.00138005
0.0013685
0.00136712
0.00135235
0.00213348
0.0023051
0.00239631
0.00430196
0.00447996
0.00409246
0.00276288
0.00296253
0.00325589
0.0035214
0.00380653
0.00258468
0.00589357
0.0054962
0.00719945
0.00787434
0.00840803
0.00824032
0.00687101
0.00653337
0.00525048
0.004788
0.00111689
0.00108941
0.0010228
0.00100096
0.00106116
0.00105419
0.00102993
0.000855145
0.000883739
0.000810494
0.000758427
0.000770402
0.000824304
0.000890936
0.000906066
0.000923158
0.000988091
0.000960228
0.000931894
0.000690106
0.000697999
0.000723425
0.000681962
0.000669211
0.000631985
0.00116559
0.00115478
0.00114968
0.00113102
0.00116726
0.00118432
0.0011996
0.00123535
0.00125076
0.00129142
0.00127868
0.00125326
0.00130349
0.00132476
0.00133955
0.0112836
0.0109324
0.0108547
0.0119654
0.00909132
0.00974948
0.0100136
0.010557
0.00158591
0.00171933
0.00177565
0.00196157
0.00143623
0.00140806
0.00134457
0.00136918
0.00133705
0.00132503
0.00131746
0.00213162
0.00230565
0.00240281
0.00423496
0.00459242
0.00409461
0.00285515
0.00268024
0.00303995
0.00340009
0.00317118
0.00366896
0.00395082
0.00249805
0.00604904
0.00563951
0.00746138
0.00777799
0.00874555
0.00852256
0.00685671
0.00637705
0.00513254
0.00490754
0.00109632
0.0010814
0.00100527
0.000995695
0.00104655
0.00104079
0.00101515
0.000839844
0.000868238
0.000795365
0.000740787
0.000766117
0.000812304
0.000891155
0.000909536
0.000921733
0.000978225
0.000963783
0.000922441
0.000661949
0.000680923
0.000705905
0.000661718
0.000658092
0.00398508
0.00114661
0.00113513
0.00113118
0.00111412
0.00116814
0.00114773
0.00118231
0.00119971
0.00121755
0.00123991
0.00127042
0.0012583
0.00124552
0.00127854
0.00130463
0.00131484
0.0117102
0.0110377
0.0111083
0.009409
0.00995421
0.0104327
0.0110199
0.00151502
0.00164382
0.00179393
0.00189007
0.00205216
0.00145087
0.00137862
0.00137012
0.00130549
0.00132759
0.00130714
0.00129797
0.00128553
0.00221959
0.00232314
0.00434249
0.0044979
0.00423169
0.0028028
0.00270709
0.00298091
0.00341122
0.00322663
0.00365709
0.00395395
0.00252134
0.00591268
0.0055018
0.00749927
0.00809516
0.00873438
0.00715435
0.00657136
0.00525911
0.0047913
0.00109566
0.00106217
0.00100293
0.000980816
0.00102985
0.00104682
0.00102758
0.00101453
0.00083382
0.000856955
0.000781238
0.000797726
0.000731479
0.000753571
0.000817429
0.000883006
0.000900234
0.000905727
0.000954887
0.000905162
0.000930051
0.000645708
0.000687501
0.000658323
0.000703278
0.000626683
0.000633694
0.00159946
0.0011326
0.00112293
0.00111587
0.00115442
0.00113418
0.00116523
0.00118232
0.00120561
0.0012152
0.00123954
0.00123524
0.00122612
0.00126279
0.00128762
0.00129137
0.0119145
0.0115322
0.0115745
0.00980185
0.00916256
0.010375
0.0108032
0.0113495
0.00149077
0.00161208
0.00173769
0.00191212
0.00206525
0.0013811
0.0013343
0.00133135
0.00129683
0.00127926
0.0012854
0.00126521
0.00125197
0.00222876
0.00234236
0.00459101
0.00429949
0.002862
0.0026193
0.00305422
0.00353938
0.00334818
0.00318033
0.00379679
0.00412558
0.0024306
0.00607019
0.00562769
0.00780237
0.00842605
0.00867754
0.00713049
0.00688418
0.00636387
0.00511143
0.00489251
0.00108241
0.00105519
0.000986025
0.000974969
0.00101782
0.00103052
0.00100199
0.000842324
0.000860936
0.000769222
0.000785931
0.000717648
0.000740933
0.000755498
0.000814913
0.000872014
0.000889439
0.000960756
0.000943492
0.000898316
0.000920266
0.000621778
0.000672163
0.00064737
0.000689301
0.000647303
0.000611493
0.000247078
0.00111725
0.00110477
0.00109997
0.0011395
0.00115239
0.00112025
0.00116662
0.00118458
0.00120946
0.0012258
0.00121204
0.00120957
0.00124066
0.00126931
0.00126693
0.0119424
0.0100689
0.00935558
0.0106887
0.0104701
0.0112788
0.0117442
0.00142553
0.00154487
0.00166496
0.00177292
0.00200565
0.00185924
0.00215769
0.00136537
0.00133161
0.00128438
0.00128889
0.00125792
0.0012446
0.00125778
0.00126696
0.00123957
0.00125325
0.0012317
0.00226735
0.00448198
0.00274178
0.00262482
0.00292978
0.00351237
0.00340358
0.00326945
0.00379924
0.00414669
0.00241634
0.0058849
0.00540005
0.00789492
0.0085717
0.00904748
0.00747126
0.00695989
0.00648461
0.00518712
0.00482499
0.00108723
0.00106773
0.00104082
0.000979761
0.00100482
0.00101923
0.00102738
0.000996977
0.000989651
0.000839905
0.000849304
0.000770915
0.000789818
0.00071652
0.00072807
0.00074499
0.000827102
0.00080221
0.000866672
0.000874801
0.00095112
0.000935832
0.000908205
0.000886169
0.000923265
0.000615945
0.000604091
0.00067386
0.000657163
0.000631047
0.000690937
0.000594323
0.000587901
0.000325582
0.00440643
0.00110362
0.00110236
0.00109287
0.00113013
0.0011359
0.00110566
0.00111054
0.00114833
0.00117564
0.00118895
0.00120324
0.00119245
0.0011892
0.00123296
0.00124666
0.00124429
0.0100704
0.0097553
0.0111467
0.0108232
0.01162
0.0119701
0.00142723
0.00155109
0.00161474
0.00173321
0.00204745
0.00189971
0.00218358
0.00130658
0.00127684
0.00125229
0.0012533
0.00123297
0.00124792
0.00121274
0.00122366
0.00121114
0.00223682
0.00459801
0.00277338
0.00251182
0.00363426
0.00396164
0.00434504
0.00231043
0.00600282
0.00542561
0.00829613
0.00776233
0.00891602
0.00916281
0.00728966
0.00680644
0.00630314
0.00496772
0.0010732
0.00106412
0.00103932
0.000967443
0.000997984
0.00100536
0.00101801
0.000983348
0.000980525
0.000852768
0.00076268
0.000778258
0.000704844
0.000730157
0.000748669
0.000818019
0.000797433
0.000871851
0.000938893
0.000955603
0.000898074
0.000880748
0.000920193
0.000599295
0.000578298
0.000660831
0.0006427
0.000630125
0.000683386
0.00056583
0.000298344
0.000692988
0.00108829
0.00108564
0.00107671
0.00111559
0.00113377
0.00109357
0.00109621
0.001142
0.00115626
0.00117856
0.0011985
0.00118773
0.00117397
0.00117276
0.00121369
0.00122396
0.0105283
0.00989096
0.0115881
0.0109387
0.0118585
0.00149229
0.00136886
0.00165006
0.00176968
0.0019824
0.00212899
0.00184076
0.00125443
0.00131044
0.00123863
0.00121243
0.00121676
0.00119961
0.00122566
0.00120556
0.00118319
0.00120811
0.00117995
0.00119125
0.00215617
0.00454623
0.00592052
0.00518297
0.00568167
0.00832799
0.00798061
0.00904937
0.00955345
0.0074564
0.00698101
0.00641732
0.00496567
0.00106648
0.00104983
0.00102519
0.00096246
0.00098397
0.0010056
0.00097673
0.000968813
0.000844032
0.000768021
0.000776045
0.000701777
0.000721811
0.000747495
0.000823147
0.000806344
0.000786061
0.000863523
0.000929577
0.000947574
0.000898818
0.000886309
0.000869227
0.000910398
0.000602075
0.000579106
0.000662743
0.000648439
0.000637472
0.000617221
0.000674007
0.000689134
0.000558604
0.000233887
0.000448924
0.00470394
0.00107583
0.00107481
0.00110696
0.00111605
0.00107989
0.00108635
0.00112372
0.00114953
0.00116166
0.00118262
0.00116452
0.00115859
0.00115565
0.00119948
0.00120441
0.0105652
0.01027
0.0118997
0.0114407
0.00149537
0.00137745
0.00161649
0.00172119
0.0019908
0.00183951
0.0012033
0.00125822
0.00118619
0.00119556
0.00116849
0.00119079
0.0011801
0.00118599
0.00117116
0.00118579
0.00117297
0.00207601
0.00474236
0.00614121
0.00861623
0.00797766
0.00948446
0.00896544
0.00730906
0.00781385
0.00671404
0.00105304
0.0010422
0.00101504
0.000950715
0.00097586
0.000994584
0.000965536
0.000961407
0.000833601
0.000852042
0.000757345
0.000765706
0.000710291
0.000727981
0.000737841
0.000813207
0.000804596
0.000785413
0.000935338
0.000891613
0.000879294
0.000862584
0.000908394
0.000590296
0.000564637
0.000655361
0.000639708
0.000625583
0.000613953
0.000669756
0.000687402
0.000546174
0.000103909
0.00046032
0.00103795
0.00105988
0.00105966
0.00109188
0.00111062
0.00106785
0.00107048
0.00112063
0.00113381
0.00114718
0.00116358
0.00117033
0.00114262
0.00114118
0.00114305
0.00117785
0.00118374
0.0110024
0.0104194
0.0114487
0.00144243
0.00155625
0.00134759
0.00166073
0.00175054
0.00190866
0.00120632
0.00116991
0.00124575
0.00115222
0.00115842
0.00114283
0.00115943
0.00115055
0.0011662
0.0011538
0.00116569
0.00115102
0.00836938
0.00977151
0.00932695
0.00752005
0.00801369
0.00683419
0.00104928
0.00103316
0.00101957
0.00100179
0.000943179
0.000984301
0.000966168
0.000993293
0.000954456
0.000948358
0.000834636
0.000844573
0.000755604
0.000766133
0.000708364
0.00071652
0.000736246
0.000814568
0.000795329
0.000776088
0.000927694
0.00088233
0.000896397
0.000867674
0.000850264
0.000916557
0.000578208
0.00059112
0.000566426
0.000548052
0.000659054
0.000643862
0.000627635
0.000602224
0.000676028
0.000696758
0.000529295
0.000284843
0.000176963
0.000489597
0.00468862
0.00105107
0.00105155
0.00108061
0.00109681
0.00105646
0.0010613
0.00110378
0.00113347
0.00115195
0.00115661
0.0011274
0.00112782
0.00112628
0.00117056
0.0108662
0.0101554
0.011905
0.00142865
0.00154183
0.00137851
0.00129196
0.00159508
0.00116222
0.00112518
0.00118345
0.00110281
0.00114215
0.00111119
0.00113968
0.0011374
0.00115163
0.00115366
0.00113527
0.00114588
0.00113248
0.00851194
0.00974698
0.00921793
0.00721498
0.0078474
0.00831623
0.00103758
0.00101083
0.000990698
0.00093161
0.000978575
0.000968436
0.00095569
0.000982535
0.000944294
0.000824951
0.000746039
0.000757386
0.000716694
0.000728442
0.000805063
0.000795611
0.000776702
0.000872035
0.000891412
0.000864101
0.000842479
0.000907324
0.000570694
0.000576877
0.000551458
0.000541737
0.000652137
0.000635304
0.000619423
0.000605849
0.000668958
0.000693769
0.0005253
0.000513404
0.000302504
5.15779e-05
0.0004835
0.00156471
0.00103679
0.00104006
0.00106843
0.00108386
0.00109215
0.00104485
0.00105161
0.00110455
0.00112016
0.00113762
0.00114138
0.00111284
0.001125
0.0011197
0.00111395
0.00111563
0.00114958
0.0111489
0.0103478
0.0116276
0.00147847
0.00132565
0.00127778
0.00112007
0.00108938
0.0011471
0.00107071
0.00111098
0.00109424
0.00108241
0.00111224
0.0011135
0.00113631
0.00112884
0.00111461
0.00112788
0.0011082
0.00884444
0.0100622
0.00956811
0.00803553
0.00840063
0.00102636
0.00100233
0.00101594
0.000978968
0.000991934
0.000921122
0.00096145
0.00094496
0.000975321
0.000935428
0.000823665
0.000747474
0.000758493
0.000712929
0.000730117
0.000806068
0.000786147
0.000768151
0.000872641
0.000881686
0.00089786
0.000855317
0.000832603
0.000846269
0.000909689
0.000560342
0.000574769
0.000548998
0.000639511
0.00065677
0.000623304
0.00059782
0.000674211
0.000704081
0.000685217
0.000516392
0.000496181
0.000393779
0.000149552
0.000483767
0.00131932
0.00103152
0.0010257
0.00103716
0.00106115
0.00107356
0.0010775
0.00103559
0.00104056
0.00105111
0.00109177
0.00113177
0.00113457
0.00110133
0.00110701
0.00110491
0.00110207
0.00110284
0.0107613
0.0119192
0.00122785
0.00107381
0.00105231
0.001098
0.00117386
0.00103598
0.00109694
0.0010658
0.00105312
0.00110025
0.00109866
0.00111926
0.00111994
0.00110002
0.00111002
0.00868599
0.0102804
0.00999504
0.00937272
0.000999249
0.00100539
0.000970332
0.000985604
0.000918821
0.000952856
0.000964987
0.000936376
0.000944328
0.000926089
0.000815281
0.000738787
0.000751669
0.000720474
0.000802337
0.000785116
0.000767564
0.000862299
0.000879944
0.000888546
0.000854399
0.000830201
0.000837747
0.000902901
0.000550304
0.000586522
0.000564714
0.000539537
0.000633997
0.000651262
0.000614395
0.000602848
0.000668483
0.000702774
0.000686848
0.000505935
0.000528805
0.000480589
0.000490658
0.000425408
7.44807e-05
0.00046175
0.000477663
0.000280202
0.00102119
0.0010123
0.00102588
0.0010636
0.0010688
0.00102216
0.00103313
0.0010448
0.0010772
0.00109089
0.00111741
0.00111569
0.00109025
0.00110369
0.00109681
0.0010912
0.0107726
0.011918
0.00104222
0.00104055
0.00101243
0.0010859
0.00105433
0.00112554
0.00102916
0.0010064
0.00107147
0.00104524
0.00105436
0.00107735
0.0010779
0.00110635
0.00110588
0.00108172
0.00110365
0.00109397
0.00896021
0.0103282
0.0100993
0.00966224
0.000989674
0.00100317
0.000974062
0.000961678
0.000907371
0.000946826
0.00095911
0.000926925
0.000936214
0.000921236
0.000807611
0.000741149
0.000753214
0.000719641
0.000794008
0.000776381
0.000760664
0.000858259
0.000872366
0.000886815
0.000845565
0.000823121
0.000837803
0.000894172
0.000552911
0.000540193
0.000580563
0.000563571
0.000626245
0.000641624
0.000657632
0.000616696
0.000596661
0.000673529
0.000695746
0.00071055
0.000682386
0.0005093