/*--------------------------------*- C++ -*----------------------------------*\
| =========                 |                                                 |
| \\      /  F ield         | OpenFOAM: The Open Source CFD Toolbox           |
|  \\    /   O peration     | Version:  v2012                                 |
|   \\  /    A nd           | Website:  www.openfoam.com                      |
|    \\/     M anipulation  |                                                 |
\*---------------------------------------------------------------------------*/
FoamFile
{
    version     2.0;
    format      ascii;
    class       volScalarField;
    location    "1";
    object      p;
}
// * * * * * * * * * * * * * * * * * * * * * * * * * * * * * * * * * * * * * //

dimensions      [1 -1 -2 0 0 0 0];


internalField   nonuniform List<scalar> 
27222
(
95193.2
94517.6
94533.6
94090.3
95429.9
94021.3
93994.3
95364.5
96552.4
95024.5
94476.8
94410.1
95372.7
95648.5
95795.9
94909
94200.7
93965.5
95033.7
95289.6
95789.3
95436.7
96152.5
94669.2
95384.5
94309.4
94812.8
95122.7
95474.5
95819.7
96094.8
95606.4
95431.7
95069.9
95517.7
94920.9
94285.9
94076.6
95432.5
95894.2
96368.3
96493.1
96140.2
95937.3
94511.7
95425.8
95085.1
95727.6
95064.4
94266.8
94203.9
95605
96273.3
96611.3
96488.4
96711
96539.9
96152.2
94986.6
95948.1
95582.9
95909.9
94789.1
95411.3
94048.8
94162.4
96005.7
96414.5
97021.4
96831.8
97042.8
96521.3
95619.2
95053
95479.4
95789.9
96241.7
94903.6
95609.5
94516.3
94203
96197.9
96700.5
97116.5
97233.8
96934.7
97265.4
96779
95748.5
95311.3
96353.4
95900.5
96354.2
95229.3
96019.1
95527.6
94537.1
94049.9
93963
96603.3
96916.2
97431.4
97563.1
97285.1
97648.9
97374.4
97233.8
95741
95720.8
95306.7
97865.1
96173.6
96571
95351.7
96157.5
95872.1
95159.1
94261.5
94211.8
96785.6
96820.2
97267.7
97517.5
97768.3
97817.4
97787.4
97706.1
97451.6
95808.9
95639.1
95144.7
96324.4
96225.4
96659.4
95738.2
96530
95174.7
93957.1
94856.7
93796.3
97210.7
97022.5
97467.8
97919.5
98083.6
98184.5
98145.6
97989.1
97893.8
96048
95772.4
94716.3
96903.6
96348.2
96576.7
96926
96001.9
96677.2
95489.1
94082.9
94932.9
94096
97395.8
97334.1
97800
98061.3
98432.1
98471.6
98390.9
98119.9
98325.3
98092.9
96077.8
95989.8
95842.1
95703.5
98868.8
96260.8
96751
97123.9
95893.5
96444.1
97129.7
95320.1
93760.4
94693
94197.7
97842.6
97388.4
98097.3
98485.2
98796.6
98807.6
98790.4
98610.4
98711.8
98524.9
95989
95829.1
95933.4
95256.4
97525
96335.7
96613.2
97042.3
96285.6
96760.3
97181.6
95485.3
94351
94774.8
94409.2
98056.5
97597.4
98496.9
97979.1
98812.9
99198.5
99175.6
98951.6
98970.1
98810
98753.9
95986.9
95688
95665.4
94692.2
95942.1
96186.9
96158.5
96620.8
97273.5
96706.8
96256.1
97531
95884.8
95148.1
94283.1
94342.9
93783.6
97914.5
98542.6
97549.8
98779.1
98135
99214.9
99649.3
99490.1
99364.5
99373.9
99202.8
99218.6
95874.2
95754
95626.2
95144.9
96024.9
96726.7
96136.1
96898
96311.7
97234.8
97090.7
96664.5
97496.1
96041.6
95283.7
94671.2
93896.4
93876.1
98268.1
98641.5
97854.3
98821
99145.6
98517.1
99651.8
99326.1
100004
99882.1
99586.1
99663.1
99385.8
99557
99513.7
95929.2
95571
95445
95787.4
95314.1
96873.9
96848.6
96277.8
97566
97065.5
96533
97874.8
95808.7
94959.8
94416
93820.1
98255.9
98964.8
97894.2
99277.6
99450.3
98554.7
99969.8
99783.9
100461
100171
100005
100181
99808.2
99911.4
99993.9
99382.4
95791.5
95371.2
95243.9
94726.7
95032.3
95555.1
96512.5
96970.5
96023.5
97614.3
97489.7
96765.9
97881.9
96002.3
95233.7
94426.2
93609
93859.2
98641
98974.6
98211.7
99438.5
99822.2
98825.5
100410
100763
100675
100596
100320
100437
100107
100280
100294
99666
95490.8
95801.9
95105
94948
94980.4
94773.9
96151.4
96468.8
96739.4
97320.9
96160.4
98029.6
97536.4
97228.3
96491.8
98309.1
95749.9
95145.3
94870.3
93764.8
93541.5
98680.8
99413.1
98301.5
99889.9
99190.4
100166
98685.6
100731
101189
101256
100866
100739
100876
100549
100605
100796
100101
95381.5
95581.7
94909.2
95138
94545.7
94446.6
97125.3
93908.9
96695.7
97389.2
96034.7
98165.3
97980.2
97489
96682
98352.5
95905.3
95555.6
94984.9
94221.2
93453.6
93091.5
99110.8
99499.4
99906.3
100215
99521.6
100614
98910
101185
101489
101478
101461
101337
101117
101185
100964
100920
101072
100435
95420.1
94572.8
94919.5
94573.8
94245.1
96402.4
92812.9
96294.5
97067.1
97822.2
95643.3
98640.9
97953.4
97239.8
96347.9
98805.9
95458.4
94707.6
94092.4
93640.3
93113.8
99184.2
99907.5
100351
100724
99385.3
100957
101525
101943
101931
101956
101499
101646
101342
101348
100898
101536
100342
95035.2
94299.3
94565.4
94477.6
93837.8
93710.7
94623.2
96159.5
96966.8
97965.6
95435.7
98853.7
98364.5
97368.8
96531.8
98849.8
95751.3
94789
94394.8
93337
93050.6
99657.3
99994.3
100257
100818
99715.7
101406
101968
102287
102369
102383
101913
102007
101714
101779
101271
101650
101862
100708
94807.4
93817.5
94206.2
93775.5
93533.9
95880
94307.1
95720
96501.9
97213.1
97650.9
98509.3
95009.3
99448.5
98432.5
96989
97755.8
96263.6
99347.2
95591.3
95153.3
94318.1
93798.2
93067.9
99765.2
100501
100629
101346
101777
102358
102816
102282
102886
102888
102481
102149
102205
101186
102087
102342
94332.4
93779.1
93374.7
93058.3
97920.7
94066.3
95613.6
96425.9
97083.9
97771.2
98540.7
94708.2
99689.9
98912.7
98147.9
97191.6
97631.7
96531.4
99359.2
95971.5
95081.4
94640.6
93750.7
92788.8
93294.4
100267
100654
100586
101184
101480
101796
102278
102854
103091
102763
103378
103362
102875
102560
102649
101575
102451
102260
102718
94006.8
93305.3
92844.9
93459
92534.6
94529.7
101003
94085.6
95234
95978.8
96753.6
97440.7
98119.5
98868.1
94792.9
94194.7
99359.6
100200
98892.5
98469.8
97002
97917.6
96404.8
99770.5
95868.8
95411.7
94638.7
94310.3
92970.8
93536.6
100482
101094
101149
101462
102046
102375
102647
103329
103605
103892
103846
103378
103025
103074
102049
101506
102925
102753
103132
93484.4
92730.3
92254.7
92924.4
91821.3
93455.6
97894.3
93365.5
95110.2
96040.3
96539.2
97533.8
98268.3
98661.3
94472.6
93889.7
99624.3
100441
99222.9
98361.5
97196.2
97683.5
96828.4
100273
99664.2
96255.5
95115.7
94222.6
92683
93216
101031
101261
101038
101866
102504
102158
103207
103836
103774
103986
104395
104360
103455
103521
102451
101885
103248
103075
102857
103533
93115.1
92216.8
92156.7
91556.9
91329
92791.8
99469.4
93152
95374.9
94721.1
95796.4
96565.6
97307.8
97991.1
98831.2
94079.5
93369.8
99306
100170
99140.6
98709.4
97895
96800.4
100627
99960.6
96228.2
95315.9
94521
92808
93641.3
101304
101737
101398
102317
103051
102590
103589
104307
104372
104495
104890
104864
103937
103959
102370
103770
103546
103298
103935
92505
91597.8
91328.3
90687.1
90492.8
92080.9
96121.8
91763.3
95138.4
94488.2
96159.8
96894.2
97696.1
98045
98462.4
93803.8
93079.3
99453
100418
99451
98761.9
98448
97661.7
97194.9
100447
101132
99832
96642.1
95819.8
95020.5
94286
92211.4
93050.5
93511.8
101818
102007
102064
101036
102487
103510
103032
104172
104831
104458
104462
104695
104900
105426
105416
104400
102705
103935
103673
103507
104368
92222.4
91082.7
91035.3
90527.4
90110.3
90092.1
91333.8
91902.2
98654
95275.7
94687.9
94023.2
96135.8
96807.1
97554.4
98603.7
93337
92568.7
99093.5
100031
99266.1
98500.7
98024.7
97083.7
100605
101494
100207
96523.8
96034.6
95323.3
94605.6
92553.7
93157
93907.2
102104
102510
102411
101397
103089
104083
103552
104449
105288
105087
104864
105218
105320
105841
105863
104790
103254
104431
104094
104005
104881
91627.9
91175.1
90381.3
89985.2
89678.9
89182
89247.6
91851.6
90910.4
95795.7
94999.2
95699.4
94391.3
93794.7
96458.5
97119.3
97824.6
98314.3
93052.6
92323.2
99188
100053
99562.2
98870.4
97938.5
97464.2
100997
101966
101418
100121
96822.8
95826.8
95129.3
94407
93678.2
102612
102809
103091
102069
101068
103388
103592
104155
104956
105777
105311
105321
105645
105733
106432
106434
105238
103491
104481
104914
104236
104343
105338
91802.1
90572.7
89860.8
89415
88613.8
88825.5
88501.9
89132.9
92081.8
91097.4
95060.8
94592
95162.5
95817.1
93967.4
93309.3
96490.4
96937.2
97799.5
98500.3
92576.7
98879.2
99611.4
100435
99396.6
98822.7
98364.3
97328.2
101164
102364
101789
100479
96631.8
96125.6
95444.1
94777.1
93865.9
102766
103246
103482
102436
101182
104034
104164
104781
105295
106352
105905
105662
105548
106168
106178
106720
106624
106759
103943
104873
105372
104720
104329
104803
105874
91426.7
89948
90805.4
87759.5
87499.6
88109.2
87621.1
88443.1
90977.6
88702.5
97825.2
94372.9
95557.3
94890.7
96189.7
93679
93210.7
96930.9
97501.8
98217.3
92285.9
99158.5
99591.2
100336
99660.6
99280.5
98220.7
97653.6
100977
101649
102278
100470
96929.6
95928.4
95289.8
94580.7
103239
103565
103173
104199
102300
100724
101700
104474
104752
105291
105877
106430
106193
106071
106627
107368
107096
107341
103980
105293
105831
104732
105225
106065
106283
91674.2
89399.4
90393.9
86777.3
86251.7
87548
86597.3
87657
88639.8
89046
88836.4
87002
93292.1
94541.6
93932.2
95658.5
95067.8
96236.5
93642.2
92794.6
96543.3
97131.1
97548.1
98235.7
92372.8
99052.2
99921.1
100131
99419.4
98537.5
97451.2
101269
101929
102574
100996
96661.1
96177.9
95782.5
103415
103622
103481
104637
102949
100591
101660
105166
105328
105840
106181
107007
106634
107115
107663
107701
107555
107686
104360
105716
106253
105175
104734
105685
106642
106766
91508.1
89220.7
90523.5
89603.3
84949.4
84929.3
86008.5
86577.3
86933.8
88091.9
88622.3
87089.5
85153.4
88537.4
93706.4
94305
93959.1
95409.5
95994.3
94845.5
93185.3
92777.6
96667.7
96930.3
97317.6
97891.8
98631.5
91992.9
99362.4
99785.3
100295
99094.6
99970.6
98296.2
97759.2
101749
102375
103084
101104
96978.2
103961
104175
104222
105423
102848
100764
100069
102150
101191
105687
106028
106192
106796
107530
107181
107122
107596
108281
108283
108114
108321
106210
106729
105480
105189
106117
106932
107220
91010.9
88528.7
90087.5
89531.6
84302.2
83852.7
84290.1
85016.3
85801.1
87254.4
86046.6
87680.1
85118.2
88517
91611.6
94423.6
93688.5
95563.5
96111.3
94899
93263
92439.4
96436.9
96997.2
97379.8
97925.1
98551.8
91994
99283.8
100747
99355.4
100187
98579
97573.3
102094
102710
103174
101537
104347
104181
104721
105948
103411
100358
100024
101783
101221
106505
106687
106839
108064
107900
107581
107348
108133
108620
108579
108527
108517
106640
107176
105951
105406
106227
106573
107468
107626
91113
88189.8
90125.5
89014
82737.2
81981.7
83074.6
84463.6
84773.9
86828.4
85435.4
85955.7
83891.1
87449.9
91654.5
94176.9
93586.2
95899.8
95479.9
94631
95208.4
92927.7
92306.5
96478.7
96764.8
97103.2
97655.5
98232.9
98853.1
91541.1
99636.4
100943
99100.2
99909.4
100719
98441.6
97942
101989
102613
103578
101428
104788
104691
104031
105632
104338
106773
103358
100349
102000
100769
107059
107304
107305
108312
107992
107896
108585
109376
109155
109112
109140
107124
107698
106227
105210
105985
106776
106951
107816
108104
90712.6
87325.7
88424.6
89537.8
89011.2
81500.8
82339.8
80879.7
80974.7
83239.6
83967.2
86072.8
84393.1
85546.2
86018.4
81767.8
86769.3
89893.4
94310
93799.5
93238.3
95950.8
95751.5
94742.1
95244.4
92539.8
91812.1
96244.1
96822.1
97163
97739.8
98014.9
98832.5
99563.7
99267.7
100136
101005
98855.3
102383
103006
103510
101663
104914
104889
104497
106255
104678
107342
104053
102743
99909.6
101444
100507
107891
107993
108023
109074
108474
108238
109150
109690
109600
109463
109419
109432
107542
108146
106711
105505
106185
106979
107447
108374
108491
90718.9
87053.2
87968
89711.7
88500.3
80611.3
81287.3
78781.5
79178.4
82514.7
82993.1
85816.1
83992.7
84766.6
83596.8
79969.9
87439.9
84528.8
90251.6
94080.5
93755
93103.9
95765.8
94535.4
95033
95520.9
92353.4
91584.6
96278.3
96586
97510.6
97014.8
98134.8
98513
99185.3
99769.3
100717
101466
102382
102884
103944
102092
105331
105426
104492
106137
107132
105408
108091
104141
102718
100016
100747
101442
108341
108295
108443
109467
108860
108738
109519
110337
110114
110004
110028
110222
108059
108685
107087
105904
106623
107405
107865
108780
108997
91082.5
90224.1
87381.1
86250.7
89371.3
88301.1
79264.7
80527.9
78313.7
77324.2
78416
81339.9
82304.1
85062.4
83180.3
81053.3
77278.6
86629.8
83206.9
88600.8
94201.2
93488.5
92654.6
96026.9
94584.4
95075.5
95582
91918.3
96513.1
97406.2
96729
97165.8
97858.1
98608.6
98940.3
101831
102818
103125
103929
102220
105635
105664
104929
106870
107734
105686
108752
105025
103430
101993
99660.4
100484
100827
109111
109189
109137
110255
109339
109102
110064
110576
110687
110612
110353
110334
110639
108501
109106
107501
107062
106010
106731
107803
108413
109302
109402
90931.7
90476.3
86979.7
86227.1
89555
88728.5
87556.4
79173.4
80596.7
76645.7
76681
75871.6
76919
80955.3
81279.8
82392.9
84644.9
82957.6
79465.7
75369.9
84314
80988.2
88459.7
94049.1
93304.9
92498.9
96022.3
94378.5
94857.6
95384.5
95784.7
91719.9
96257.5
97571.6
96701.5
97152.8
97945.9
98369.5
99117.6
102900
103532
104380
102596
106167
105410
104841
106584
107629
108630
109414
104711
103658
101828
99550
99920
100638
109579
109561
110725
109708
109590
110321
111125
111457
111703
111245
111016
111323
109021
109615
107924
107451
106400
107211
108149
108826
109707
109886
91233.8
90112.7
86974.6
85688.5
89216.3
88610.7
87574.1
78154
79375.2
75899.5
74298.9
74317.5
76326.7
79880.8
80618.5
81573.4
85022.2
83592.4
82202.3
77268.8
75410.5
72988.4
83435.7
79298
86543.5
93774.8
93450.6
92800.1
92063.8
94414.1
94901.7
95362.8
95927.9
96158.3
97338.8
96910
96470.6
97873.8
98288.3
98856.6
103290
103613
104349
102856
106587
106214
105789
105228
107300
108568
109185
110235
105105
103177
101068
102284
99048.2
99633.6
99942.9
110399
110331
111674
110138
109967
110814
111726
111551
111877
111935
112403
111469
111200
111786
109451
110030
108120
107894
106671
107231
108650
109351
110159
110249
91029.3
90487.7
86310.2
85704.8
89089.8
88087
86946.7
76880.1
78346.7
74181.7
72805.2
73081.7
74680.7
79707.1
80699.4
81519
84599.2
83790.5
81718
76639.3
72615.4
70947.8
84521.3
80280.5
86762.1
93857.6
93284.9
92672.7
91936
94696
94144
95144.4
95526
95808.4
96255
97343.8
96731.4
96540.4
97583.2
98010.1
98491.7
103304
103974
104682
107051
106573
105703
105104
107230
108645
109970
110615
110824
106242
104174
103338
100823
101993
98897.7
99109
99764.1
110746
112272
110469
110426
110866
112451
112458
111845
112042
112057
111579
111516
112219
109954
110520
108636
108286
107560
108945
109759
110604
110736
91420
90205.7
86333.5
85123.7
88401.7
89509.5
87947
87298.7
75963.9
77446.3
73068.4
73692.5
71083.8
71328.8
74715.1
78940.1
79806.5
80434.5
83347.3
80436
81863.6
74206.2
70674.3
72080.9
69203.6
82368.1
79390.3
85023.6
93711.1
92952.8
92262.5
94747
94334.9
95169.6
95560.8
95873.8
96075.4
97062.6
96827.4
96409.2
97521.8
97974.2
98133.6
103724
104070
104500
107004
107458
106655
106061
105413
108404
109542
110520
112036
111748
106274
104187
102521
101250
100157
98550.1
98644.2
99185.7
111832
112390
110905
111287
111114
112980
114112
111551
112368
114607
111668
111738
112305
110421
110882
108744
108343
108017
109416
109775
110274
111013
111115
91342.1
90474
85638.4
84878.9
88333.6
89358.9
86960.8
76230.2
77391.3
71686.5
72272.2
69456.7
70560.6
70551.2
73663
77965.9
79024.9
84029.8
82520.3
79635.4
81038.9
73356.6
68323
69796
67096.6
82904.2
77336.7
84233.6
93595.1
92843.7
92157.5
94540.5
94966.1
94225.9
95436.2
95745.8
96197.4
97106.5
96633.9
96418
97319.6
97723.6
97991
104802
107306
107880
106497
107099
105901
105277
108542
109510
110245
112265
112457
112995
112584
107416
105082
103112
102347
100884
99758.4
98129.2
98160.4
98693.3
98191.4
99160.8
112357
111408
111627
115097
115128
113385
114734
116364
113475
112974
115468
110898
111297
109124
108875
108211
109650
110279
110878
111327
111457
91719
90861.2
90267.5
85526.5
87702.5
88835.9
89751.9
87173.3
86091.4
75256.1
76115.3
71276.8
71605.5
67755.7
68606.2
68937.7
74151.9
72239.4
77390.7
78224.3
83693.5
82426.3
80098.2
78615.4
81611.4
70041.8
74715
66454.4
67934.9
69040.5
65797.5
80123.9
77542.9
81081.1
85259.1
93120.3
93656.2
92502.8
94776.2
94952.2
93880.7
94431
95360
95868.5
96060.9
96912.7
96580.7
96249.8
97344.2
97558.5
97717.1
107740
108010
106878
107253
106111
105692
110174
110823
111225
113097
112657
112650
113291
107565
104536
103147
101361
100019
98083.6
98169.2
97802.7
98765.8
115547
111613
114218
117437
114931
113802
113339
117881
111154
112218
109200
109542
108963
108610
110179
110739
111247
111747
91657.5
91210
90575.6
84788
88040.9
88674.9
89692.1
86801.2
86067.2
76196.7
69835.8
70085
66224.6
67847.6
68662.8
73397.6
71419.4
77986.6
82855.7
84044.8
79518.2
78079.9
81479.4
68239.5
72546.1
64321.5
66107.9
66523.1
63814.5
74600.5
79706.2
84122.2
93074.9
93499.2
92408.7
94712.7
95167.1
94125.3
94406.7
95501.7
95710.4
96087.3
96918
96689.3
96400.1
96297
97150.8
97656.9
107931
108505
106991
107668
106579
111256
110821
112273
113110
112033
113278
112394
106479
109436
105057
102221
100848
99600.1
97823.4
97771.7
97888.3
97584.8
98131.1
98523.9
116236
112655
112135
112596
112603
109631
109839
109313
108774
110553
110519
112018
112696
92010.8
91042.5
90318.2
84868.5
87626.9
89176.3
86884.5
85474.7
75369.4
69312
69337.9
64850.8
66129.5
67272.1
73325.4
71966.2
70009.3
76670.1
82378.7
83603.1
79796.4
78445.1
76982.6
80763.6
65479.1
69416.4
62997.2
63623.8
64418.8
64975.2
62797.4
63310.7
73469.6
82023.4
75686.7
84891.5
92792.2
93705.9
94961.2
95148.8
94059.5
94630.1
95498
95775.1
95984.9
96776.6
96501
96474.3
96187.6
97092.1
97309.5
108325
108622
107498
107822
111595
111822
112471
115125
116538
115857
106524
109658
104334
101113
101917
99863.8
98780.6
97491
97458.7
97161.5
98033.2
119105
113017
112886
109908
110305
109205
109787
110727
110629
110844
91916.6
91405.2
90398.5
84235.7
87768.7
89025.9
86288.4
85538.5
74031.9
75695.9
67872.9
67834.7
64793.8
65351
65890
72077.3
71173.2
69251.4
82765.2
78971.8
77773.5
76104.1
80694.3
63726
67780
61006.5
61564.8
62742.8
62874.6
60926
61524.2
70290.6
80483.7
74642.7
83167.5
92704.4
93391.3
94912.4
95367.2
94262.8
94552
95661.3
95753.6
95913.6
96534.5
96703.6
96312.2
96168.7
96012
96846.6
97039.5
108534
109010
108312
111466
112157
111956
115529
116905
116915
107851
105302
110235
102778
100369
100575
99269.2
98273.9
97035.4
97007.4
96855.2
97659.7
110333
109443
110145
111669
110866
111859
92209.1
91400.5
90956.4
89943.6
84053
88302.3
87282.9
89286.4
86171.7
84790.9
73669.6
74761.9
67099.4
67072.2
62902
63522.6
64893.5
71676.7
69922.5
67840.1
82348.2
78033.2
79694.2
76582.5
74912.7
81311.8
63679.3
61237
65006.1
68456.2
59811.2
60335.5
60997
60983.4
60155.4
61292.4
68359.4
76915.7
82551.6
71771.1
82114.1
92988.2
93660.6
95022.5
95397.6
94174.8
94771.2
95658.2
95879.8
96526.9
96505.7
96183.4
96098.5
96013.6
96830.9
108949
109341
108616
115048
116293
115895
111185
118559
108222
104981
109044
102208
99446
99727.2
98425.4
97607.8
96815.2
96765.7
96856.6
96522.9
97120.4
110620
109944
110532
112183
111914
110861
92058.8
91188.9
90186
83276.3
88450.8
87995.9
86630.8
89060.8
85241.1
72567.4
65590.5
65561.1
62768
63507.7
70221.1
69197.8
67107.8
77279.8
79396.1
76143.1
74034.2
81038.7
60833.5
59556
63852.4
65621
58072.5
58230.5
59293.4
58886.1
58293.4
59759.8
65225
68872.1
76173.6
81617.3
71751.8
81683.3
92908.8
93570.7
94975.1
95205.6
95549.6
94276.1
94879.4
95800.8
95903.6
96384.2
96294.1
96081.1
96233.1
96018.4
96057.5
95980.1
96581.8
109333
109661
109171
118232
119079
115858
106891
103406
108972
100689
98651.8
98677.3
99732.9
97798.3
97043.4
96479.8
96317.9
96316.8
96347.3
96461.4
110649
110031
110702
112470
111691
92115.8
90954.3
91701.3
89828.1
90561.3
83039.2
88030
86447.9
89228.6
84973.9
71917.8
64762.3
64833.2
61009.2
62416.4
70022.2
67866.3
65621.3
77140.5
78126.6
80126.3
75074.5
72576.3
74143.5
81814
60091
57431.7
61699.2
57060
57112.7
57564.2
56870.4
57397.8
59791.9
58077.7
63151.9
66016.1
74093.5
78286.3
69305
80573.5
93331.1
92500.6
94000.4
95162.3
95429.4
95565.2
94495.8
94719.5
95145.8
95889.5
96219.1
96353.8
96106.5
96013.9
96037.6
96018.1
95972.5
109723
109578
116849
106582
103050
109288
113216
99677.5
97815.7
97765.5
98521.4
97088.9
96383.8
96157.2
96169
96103
95990.1
111435
110254
110636
111391
91476.8
91823.9
90006.7
90867.2
83347.9
87484.6
88745.5
85636.3
86877.9
84036.5
70672.8
63101.2
63359.3
61025.7
68702.5
67066.7
64947.9
76089.5
78478.6
79741.3
75003.6
72046.5
73090.7
81786.1
58043.7
56259.5
56124.7
60789.1
55305.9
55085.3
55674
55167.9
55293.2
58323.1
56928.8
62487.2
61309.5
66659.9
63256.3
73403.8
78108.5
70470.3
79951.4
79458.2
93391.9
92614.2
94058.6
95435.2
95713.8
94641.8
95056.9
95414.8
95831.6
95889.6
96054.1
96026.2
96013.2
95964.4
96034.6
96020.2
110095
110209
104362
107748
101479
112867
109017
114922
98299.1
99880.3
97056.9
97625.4
96955.1
96449
95909.1
95777.8
95935.8
95544.8
95833.6
95502
111925
110484
111455
111469
91444
92294.5
90599.1
89624.8
82810.9
87734.6
88902.4
85339.3
86587.8
84485.2
69948.8
62457
62519.7
59747.2
67518.5
65594.3
63298.1
75913.7
77882.9
80062.8
73901.3
71006.4
72876.5
81027.5
56408.3
58214.6
53942.2
54135.7
54075.7
54252.6
54169.7
54021.6
53118
54384
57057.3
58332.8
55198.9
60019.9
59624.3
64281.3
61041.4
75215.9
68694
79754.6
79986.3
78028
93039.4
93731.1
94448.6
95414.5
95744.8
94979.8
95433.9
95117.1
95922
95991.6
95961.4
95831
95880.3
95946.5
95936.8
110412
110602
103455
106289
101664
114633
109067
97101.5
98439.9
96369.9
96497.4
96003.8
95851.6
95386.2
95333.1
95579.1
95182
95224.8
95571
95350.4
95405.8
110676
111614
91846.2
92341.5
90970.7
89619.6
83090.7
88348.1
87334.7
85874
84062.4
70021.5
60739
61064.8
59469.4
66613
64528.6
62934.1
74754.3
76697.8
78337.7
79271.2
73784.1
70531.6
71525.2
80998.5
53992.9
57008.9
53127.4
52515.5
52807.9
52324.6
52602.3
52261.3
52076.8
51817.5
52506.8
55649.3
56914.8
54405.4
58506.9
57898
65189.6
61410.7
58703
75217.4
70155.1
80394
81946.9
93284.3
93780.2
94574.9
95557
95824.1
95065.7
95500.5
95451.4
95967.8
95994.4
95746.9
95793.2
95876.3
95703.2
95996.2
111173
104157
107594
100296
111725
96235.6
96405.6
98592
96799.8
95594.1
95731.1
95372.1
95189.2
94774.8
95214
94671.5
94703.8
95569
94970.5
95189.9
111304
91735.9
92705.7
90837.5
88724.1
89885.2
82457.6
87483.4
85639.3
84104.4
69009.3
60137.6
57974.8
66882.8
64924.1
61647.9
74403.7
76611.3
77760.8
80030.8
72782.4
69544.4
71566.5
81611.7
53485.4
55197.4
51193.9
50255.1
50963.5
50263
51250.6
51512.3
50979.3
49934.7
49844.3
51587.1
55470.8
56697.2
52745.9
56537.7
56515
63313.9
59373
56875.8
73415
68693.9
83319.7
76293.1
83335.3
93100
93990.1
94909.9
94289.2
95802.5
95926.8
95395
95703.6
95607.4
96047.5
95979
95725.1
95858.3
95530
96000.1
111624
102586
107522
100553
112475
95136
94961.2
97115
95640.8
95042.1
94640.7
94383.1
94663.3
94391.5
94829.4
94402.2
94504.2
95275.5
94905.8
94673.1
94965.7
91974
92785.7
90379.9
91721.7
88301.7
89504.4
83360.4
86925.5
86146.1
84756.4
67848.6
60310.6
58361.4
57509.9
65773.8
63859.3
61513.2
73334.3
75401.4
77905.7
79690.5
72576.6
68803.3
70596.2
81512.5
51651.5
54877.2
49639.6
49098.9
49288.8
49378.4
49692.6
49208.6
48465
49926.9
53970.9
55229.4
52498.1
54804
61044.3
63416.8
56824.9
59634.8
54942.1
56154.1
74047.1
66147.7
71531.9
82353.1
76651.3
83490.5
93435.8
93888.3
95077.6
94649.9
95776.2
96024.6
95663.3
95932.1
95840.1
96186.6
96059.7
95893.6
96046.4
95698.1
95750.7
95385.8
95793.5
102964
109174
105190
98671.4
115458
94285.8
93821.7
97026.9
95831.6
94284.3
94389.3
93975.9
94008.3
94116.6
93830.9
93805.6
93959.8
95001.7
94462.3
94244.7
94647.1
92509.9
93415
90998.6
91822.2
88591.3
89917.9
83142.6
87242.3
85774.7
84880.4
67606.2
58946.1
57736.2
55636.3
64505.6
66483.4
62384.5
59887.4
72937.3
75756.5
78716.1
77020.1
80543.4
71286.8
68593.1
69437.1
82112
49974.9
51791.3
53305.5
47648.2
47262.1
47244.9
48874.7
47716.4
48683.7
48965.1
47802.8
46954.5
49008.9
53972.8
54559.3
50982
52982.3
59865.5
60890.4
64070.8
54968.1
57517
53453.7
53958.8
65977.8
70763.3
79561.9
75395.4
84256.3
94279.7
95374.5
94637.8
96139.9
96046.3
95654.2
96255.4
96394.8
96251.3
95971
96151.1
95470.5
95694
95262.1
95962.2
100257
108852
105421
98324.2
113137
93094
93517.6
92737.9
95191.2
94377.8
93479.3
93960.4
92923.5
93231.2
93605.8
93426.7
93566
93854.6
94794.8
94181
94457.1
93061.2
93754
90814.2
92280.2
88068.7
89438
84213.7
86642.4
58609.7
56361.4
55175.1
63572.8
65633.1
61686.2
60175.3
71144.6
72761.4
75298.4
78508.8
77525.3
80496.4
70508.3
66965.2
69263.9
81703.1
48722.6
50062.1
45964.5
45917.3
46318.9
45320.8
46328.6
46108.9
46959.2
47273.5
46237
45762
47329.8
49492
52482.9
53010.6
51088.1
51185.9
57903.2
60160.9
61945.5
52708.2
55668.6
51795.9
52327.2
63710.9
67804.4
72709.2
79995.7
77074.6
84274.7
94187.2
95357.6
94947.2
96305
96307.7
95993.9
96456.4
96457.7
96331.8
96280
96194.8
95269.7
95467.3
95798.5
94949.2
95960.4
100277
106987
103140
96171.2
112713
92367.7
92013.5
91619
93965.7
94832.3
92102.4
93378.1
92309.7
92483.2
93079.2
92826.1
93033.1
93411.7
94545.8
93803.8
93920.5
92931.1
93628.8
91119.4
92221.7
88522.3
89794.4
84135.6
86562.4
57148.7
55866.6
53605.5
62113.4
64152.1
59287.6
71117.3
73065.5
76865.1
74227.5
79434.7
66889.9
68302.1
81867.8
46935.2
49681.8
43953
43799.7
44325.4
44896.1
43633.1
45534
45426.6
44419.6
46225.2
46644.2
44736.2
43650.2
46197
48070.5
51960.8
49836.8
50748.3
56647.5
58219.3
61953.1
51695.2
51358.1
54164
50888
64001.5
66587.6
71231.8
81531
77045.5
85885.7
83697.5
94552.8
95726.6
94928.9
96424.7
96324.1
96463.6
96128.2
96588.4
96672.4
96531.2
96417.9
96143.8
95140
95436.6
95885.7
95632.6
94815.8
98363.7
107326
103450
95014.3
110708
91111.2
91213
91349.1
90780.8
92234.4
92960.9
91340.1
92924.9
91318.5
91900.3
92549.9
92501.1
92411.9
92543
92714.8
93397
92847.4
94404.5
93699.3
93995.6
93330.6
94227.6
91799
90678.1
93135.5
88079.6
89224.9
82877.8
84630.2
85447.8
87345.8
56814.3
54270.3
52199.8
53172
61103.9
63205.1
57719.6
59715.2
70197.2
72367.6
76530.5
75090.3
79489.3
65507.9
67998.1
81029.6
46432.1
47878.3
42177.1
42209
42731.8
41970.2
43526.7
42693.4
42671.6
44435.2
44927.5
43403.4
41857
46471.7
44720.6
48350.8
50236.5
48736.1
56651.8
54772
58013.4
60058.3
49253.4
49329.3
52225.2
49332.7
62754.6
66851.8
68501.2
72642
79348.5
75161.5
84870.7
84297.3
94564.8
95709.7
95271
96694.2
96758.7
96921.6
96556.5
96919.4
96654.9
96897.2
96458
96307.8
94968.6
95424.6
95992.1
95709.6
94456.6
95978.8
99114.6
105163
101397
94733.6
92769.4
110910
90772.9
90493.1
89805.9
89910.3
89654.2
91579.4
89880.6
92178.8
90716.7
91049.6
91945.6
91869
91692.1
92015.1
92185.1
93020.4
92632.1
94269.9
93283
93720.7
93807.4
94325.2
92371.2
91004.8
93490.5
89443.8
83351.3
84438.6
86250
87318.8
55142.1
53957.3
50555.7
51508
61466.8
63332.2
57314.5
58641.3
70862.9
68632.3
72927.5
77258.1
74460.2
78534.1
66566.5
64139.5
81299.6
44653.6
47424.4
40345.9
40543.2
41642.5
41986.6
40435.9
43116.8
41233
41007.4
43901.4
43302.8
41541.4
40390.7
44813.9
43328.1
46911
48913.2
48220.3
54521.9
53454.7
56381.3
59812.2
48190.3
48402.9
48356.1
51147.6
63174.5
61001.8
64684.6
67774
70923
79741.8
76183.2
84529.6
82353.9
95242.2
96085.8
96938.6
97148.1
96875.1
96598.1
97267.4
96713.9
96999.6
97008.1
96444.1
96727.2
94938.5
95187.7
95991.1
95511.8
94566.8
94694.5
97018.7
104652
102150
91946.8
91351.3
108931
89660.8
89338.1
89237.6
89262.5
89212
88858.9
89869.1
88746
89765.5
90672.6
91268.4
91559.7
91134.8
91837.4
92881.9
92178.5
94011.1
93352.2
94308.7
94804.6
93116.7
92071.7
90352.4
94226.2
88686.1
82942.2
84889.2
85912.6
87898.8
54599.6
52486.6
49194
51122.9
60176.9
61575.3
55870
58734.6
69942.4
67712.5
71876.8
77075.4
74378.1
79121.4
65957.7
63594.1
80240.2
82102.8
44265.7
45622.7
38537.4
38614.2
39916.7
40121.7
39133.4
41448.8
39269.3
39424.5
42245.9
41613.4
40401
38566.2
45154.3
43164.2
41895.3
47235.7
46571.2
53664.1
51806
56561.4
54644.1
57908.8
46197.5
46493.2
49351.2
46552.7
61633.7
60286.3
64389.1
68675.8
65760.3
71779.2
78561.9
74361.6
84885.5
83725
95564.2
96072.6
97415.2
97356
96985
97601.7
97259.3
97372.9
96437.1
96909.8
95028.2
95264
96059.9
95592.4
94310.7
92663.5
97412
105732
100215
90157.1
89500.1
109436
88864.8
87943
88017.8
87639.1
87862.9
88727.6
88984.7
87168.3
89077.6
89846
90929.3
90466.9
91107
92402.2
91889.5
93803.2
92977.4
94945.1
95386.7
93925.3
92431.4
90526.4
94501
89586.2
84221.8
86262.9
87550
53086.5
52002.8
47989.5
49287.8
60111.5
62188.3
56047.6
57576.3
68462.9
70567.3
66290.7
72930.2
76143.8
78463.2
75028.4
64360.3
80807.5
82006.6
42518
45240
36799.6
36934.6
38804
39450.2
38825
37628.2
40030.4
41254.2
37874.2
38683.2
38201.8
41006.2
38650.6
36987.5
44083.7
41556.1
40281.2
45936.8
51367.2
50487.7
54962
53662
57570.9
44859.7
45494.6
45000.7
48826.6
45571.7
61273.7
58786.3
62592.3
67397.9
65699.2
70436.8
79402.2
74628.9
84173.7
81578.3
96694.5
97454
97493.2
97590.7
97388.7
97650.9
97660.8
97381.9
96246.1
96710.3
97174.9
94823.6
95172.2
95845.4
95327.6
93980.5
94547.8
91907.6
90508.8
95465.5
104802
100273
88027.5
87900.1
107318
87829.2
87308.6
87138.3
86862.8
87154.1
87040
86111.3
87869.6
89168.6
89768.1
90678.5
90323.4
90872.5
92193.1
91263.3
93223.1
92435.8
95778.4
95964.1
93985.4
93156.4
91731.9
91037.5
95137.9
89690.1
84476.1
85631.4
88132.5
52378.5
50326.7
46212.8
47605.9
47922.3
58630.8
61373.1
54906.6
57178.6
67773.6
69718.6
65283.1
72403
76554.6
78653.7
74512.5
63831.6
80101.2
82706.4
42075.6
43478.7
36570.6
35074.5
35101
36970.7
37233.3
36986.1
38681.6
39580
36095.3
36713.4
36665.9
37715.1
39063.3
37768.5
35426.5
42310.4
44520.8
39984.3
41224
38771.5
50266.7
50475.4
54692.8
52002.6
56045.5
42894.7
43817.9
43212.3
47514.8
46011
43928.3
59544.9
58306.8
62197.3
67446.1
64437.7
68517.2
71049.1
78524.6
76460.8
72793
83778.9
83878.5
82187.4
96812.1
98044.9
97961.5
98136.6
97799.8
97835
97953.2
97712.4
96378.4
96853.4
97281.2
95894.2
95159.2
93706.1
94479.3
89611.2
92833.5
88865.5
97098.4
102470
86018.5
86230.5
107675
86846.3
87351.5
86091.5
85703
85608.1
86096.8
85832.6
84923.2
87282
87774.8
88464.5
89016.6
90051
89568.3
90159.6
91516.2
91055.6
92995.3
92284.5
95879.7
94722.3
93426
92651.6
90896.8
95485.8
89132.1
83774.8
85720.2
87568
53267.9
50871.2
49794.1
44688.8
45578.4
46660.5
58732.9
62420.2
59937
55731.1
68342.4
66136.4
70724.8
65059.6
73292.9
75679.8
77675.6
80308.3
82505.3
40092.8
34318.2
33435.5
33512.9
35465.2
36132.2
35421.2
37097.8
38866.5
34983.6
35318.2
35100.4
35928.4
36091.9
33869.3
41819.6
43240.2
38036.9
39403.5
37112.9
48058.4
48527.9
53173.8
51744
56442.8
42621.1
41414.2
43303.8
41494.5
44524.6
42709.9
59252.6
60594.7