/*--------------------------------*- C++ -*----------------------------------*\
| =========                 |                                                 |
| \\      /  F ield         | OpenFOAM: The Open Source CFD Toolbox           |
|  \\    /   O peration     | Version:  v2012                                 |
|   \\  /    A nd           | Website:  www.openfoam.com                      |
|    \\/     M anipulation  |                                                 |
\*---------------------------------------------------------------------------*/
FoamFile
{
    version     2.0;
    format      ascii;
    class       volScalarField;
    location    "1";
    object      p_rgh;
}
// * * * * * * * * * * * * * * * * * * * * * * * * * * * * * * * * * * * * * //

dimensions      [1 -1 -2 0 0 0 0];


internalField   nonuniform List<scalar> 
27222
(
104778
103741
103886
102816
104606
103585
102850
103608
106090
103705
103818
103030
103617
103423
105051
103473
103095
103539
103224
103193
103038
103244
105666
103447
103504
102986
104158
103143
102910
102935
102924
103039
104725
103470
103498
103152
103181
103644
103029
103080
102923
102855
102943
102983
103355
105002
103513
103241
103070
102944
103487
102972
102955
102831
102859
102769
102847
102918
103684
105309
103627
103202
103022
102976
102891
103674
102929
102849
102719
102693
102689
102831
103870
103985
105060
103359
102958
102994
102928
102994
103467
102870
102659
102639
102662
102631
102660
102774
103806
104053
105683
103216
102838
102946
102889
102923
102942
102800
103512
102803
102561
102495
102557
102485
102617
102676
102722
103338
104035
104226
107410
102979
102601
102910
102851
102873
103018
102833
103527
102755
102508
102420
102423
102451
102483
102573
102582
102665
103230
103844
103741
105503
102886
102428
102821
102795
102928
102809
102978
103359
102700
102331
102239
102308
102322
102421
102482
102535
102608
103044
103546
103357
106096
102570
102395
102282
102772
102760
102805
102727
102883
103397
102673
102219
102114
102188
102265
102321
102460
102557
102489
102587
102829
103721
104048
104369
108428
102526
102101
102120
102780
102742
102705
102782
102606
102885
103732
102624
102054
101971
102063
102168
102288
102410
102508
102472
102532
102840
103129
104151
103908
106920
102264
102030
101982
102739
102704
102678
102756
102823
102823
103747
102601
101900
101921
101877
102052
102154
102225
102349
102407
102499
102526
102460
103002
103422
103706
104172
105819
102196
101708
101751
102691
102706
102636
102710
102763
102795
103943
102705
102602
102564
101720
101780
101662
101945
102082
102224
102301
102371
102450
102496
102351
102623
103410
104175
104302
106139
101872
101437
101609
101497
102649
102652
102623
102669
102700
102795
103147
102711
102576
102547
101589
101631
101771
101554
101991
101853
102094
102181
102305
102395
102457
102424
102495
101940
102454
102799
104502
103241
106450
101175
101293
101284
102631
102635
102588
102682
102614
102797
103014
102567
102521
101393
101558
101654
101361
101870
101808
102050
102210
102262
102345
102434
102402
102465
102508
101655
101871
102694
103502
103005
104810
101106
100860
101069
100998
102601
102585
102572
102619
102582
102659
102239
103402
102540
102521
101271
101410
101672
101196
101861
102101
101975
102176
102288
102352
102429
102386
102455
102484
101580
101168
101541
102122
103363
102291
105449
100830
100692
100799
100752
100902
102575
102571
102580
102547
102603
102568
102642
102315
102843
102529
102509
101069
101358
101226
101603
101034
101775
102088
101987
102210
102253
102343
102417
102390
102439
102464
101164
100948
101621
101094
102934
101920
106745
102733
100362
100440
100399
100655
102540
102529
102532
102533
102549
102534
102549
102404
102326
102646
102510
102499
101151
101460
101103
101673
100870
101792
102151
102059
101906
102203
102273
102319
102367
102418
102438
102465
100458
101010
100632
102508
101290
106022
101636
100143
100243
100396
100204
100637
102514
102518
102517
102504
102492
102461
102354
102281
102375
102491
102471
101109
101438
100913
101566
101753
102146
102065
101907
102236
102319
102376
102396
102448
102428
102471
100246
100889
100484
102401
100871
103008
103000
99730.6
99861.3
100136
99654.9
100417
102481
102479
102482
102484
102443
102370
102350
102113
102553
102475
102468
100874
101269
100766
101621
101805
102180
102061
101986
102242
102293
102352
102397
102440
102421
102421
102447
99735.8
100075
99824.4
101226
100075
104993
102797
99466.2
99609.6
99693.2
99835.9
100164
99423.2
100499
102469
102452
102449
102448
102462
102391
102370
102302
102224
102313
102455
102462
100788
101279
101571
101782
102192
102225
102130
101977
102312
102357
102381
102444
102424
102414
99462.2
99584.3
100746
99499.4
107135
102257
99004.9
99291.3
99330.4
99590.2
99895.6
98881.4
100304
102439
102450
102426
102426
102407
102446
102363
102323
102276
102176
102328
102055
102443
102447
100586
100936
101124
101453
101672
101878
102226
102255
102142
102060
102297
102349
102385
102440
102421
102434
102408
98842.6
98773.3
99699.1
101156
98499.9
103275
110578
102431
98672.9
98952.8
99172.1
99317
99624.5
99811.3
98564.8
98588.4
99976.1
100356
102425
102424
102415
102407
102380
102422
102336
102313
102236
102255
102234
102058
102429
102426
100601
100776
101173
101497
101629
101882
102274
102222
102076
102324
102363
102392
102429
102438
102417
102427
102404
98471.4
98268.5
99011.2
100479
97751.8
102279
107186
101306
98226.5
98696
98848.7
99129.9
99478.7
99535.4
98093.2
98052.6
99805.2
100196
102416
102401
102383
102386
102365
102426
102416
102311
102228
102227
102204
101947
102427
102425
100357
100850
101385
101063
101748
101986
102324
102275
102243
102174
102359
102405
102424
102420
102423
102434
102420
102417
97797.4
97336.6
99288.2
97865.5
96868.7
101276
108982
101154
98120
97985.4
98347.3
98600.6
98813.7
99235.3
99393.8
97870.6
97670
99502.3
99947
102401
102395
102364
102342
102403
102397
102292
102228
102204
102135
102035
102409
102421
100287
100902
101433
101096
101723
102016
102388
102333
102321
102210
102389
102412
102430
102433
102432
102425
102415
97249.9
96753.8
98338.5
96917.2
96014.4
100527
105414
99453.1
97707.3
97590.6
98318.1
98577.9
98774.2
98994
99066.2
97402.9
97138.3
99318
99768.7
102390
102375
102370
102341
102326
102406
102411
102388
102280
102248
102203
102149
101813
101968
102029
102411
102409
100495
99934.1
100811
101594
101260
101849
102153
101979
102422
102379
102364
102367
102306
102433
102418
102441
102438
102421
102428
96668.4
95931.9
98308.7
97084
95944.2
95306.1
100119
99850.1
108230
97521.1
97465.9
97290.1
98077.7
98278.5
98448.5
98906.6
97066.7
96710.9
99023.9
99455.1
102379
102345
102331
102304
102379
102395
102384
102266
102245
102208
102130
101829
102023
102053
102401
102417
100396
99840.6
100923
101655
101306
101788
102177
102080
102442
102425
102407
102430
102342
102439
102425
102445
102428
102420
102465
95995.4
95679.2
95306.5
96982
96238.3
94908.6
94399.6
100622
98596.2
105073
97166.6
97686.9
97043.6
96916.6
98064.8
98228.8
98371.9
98617
96572.2
96247.9
98856.8
99209.4
102364
102336
102313
102301
102377
102396
102387
102369
102265
102224
102176
102091
102092
102406
102404
100623
100056
99519.8
100876
101186
101551
101896
102279
102060
102472
102495
102435
102516
102452
102473
102417
102444
102467
102433
102428
102480
95840
94864.2
94572.7
96566
94835.9
94177.7
94356.5
93981.3
100536
99028.7
104277
96957.1
97055.5
97511.9
96799.1
96553.4
97876.5
98003
98148.4
98460.3
96208
98577.8
98947.8
99229.5
102356
102321
102310
102283
102369
102382
102370
102358
102248
102228
102183
102076
102036
102381
102403
100590
99998.5
99290.9
101085
101268
101653
101934
102384
102178
102507
102483
102522
102505
102537
102547
102471
102411
102438
102466
102443
102426
102434
102507
95287.6
94371.2
94783.4
94540
93788.4
93407.8
93200
93143.4
99657.8
96371.3
107340
96634.5
97235.5
96728.7
97618.6
96460.6
96249.9
97812.8
97887.7
98204
95773.3
98545
98763
99001.2
102335
102321
102299
102279
102363
102369
102381
102348
102256
102210
102120
102098
102376
102398
100309
100863
99747.8
99021.1
99390.3
101125
101493
101852
102093
102343
102527
102528
102574
102639
102610
102590
102401
102450
102483
102411
102434
102513
102530
95278
93690.8
94207.1
93610.7
92217.3
92608.7
92066.8
92454.5
93071.7
97488.5
96790.5
94217.7
102606
96550.5
96292.7
97093.8
96654.9
97434.6
96218.6
95838.2
97514.6
97746.8
97652.6
97982.5
95614.9
98314.5
98783.6
102341
102312
102291
102274
102348
102358
102367
102346
102240
102225
102178
102366
102391
100225
100883
99866.5
98791.1
99125.2
101384
101584
101963
102118
102436
102565
102625
102671
102710
102669
102652
102388
102464
102490
102421
102392
102443
102526
102559
94926.5
93265.9
94076.1
93469
91393.9
90850.9
91607.4
91712.5
91515.6
92374.7
97139.4
94870.2
92216.2
97390.2
103302
96270.8
96124.6
96808.7
97215.2
96407.2
95773.7
95575.5
97443.8
97492.6
97449.2
97719.5
98049.2
95194
98283.3
98521.2
102328
102303
102320
102290
102276
102355
102357
102363
102336
102252
102361
102382
100520
101219
99571.2
98692.6
98510.5
99177.6
98826.1
101468
101865
102012
102286
102587
102435
102621
102685
102786
102792
102761
102779
102480
102509
102401
102394
102440
102546
102617
94404
92578.5
93562.7
93174.9
90378.9
90475
89877.3
90441.7
90730.7
91589.8
90685.9
95769.1
92460.8
97394.9
100951
96193.1
95877.3
96752.1
97118.8
96266
95658.7
95254.4
97226.4
97356.6
97302
97551.8
97773.4
95013.6
98050.2
102330
102297
102310
102283
102289
102343
102348
102349
102331
102370
102349
100569
101310
99695.3
98371.4
98337.4
98784.7
98602.3
101807
102009
102202
102688
102625
102675
102643
102760
102857
102848
102825
102788
102482
102523
102406
102384
102427
102458
102598
102612
94252.4
92085.4
93403.8
92605
88567.7
88365
88481.4
89624.5
89721
90979
89895.8
93813.4
91236
96012.4
101194
95915.2
95626.9
96911
96576.6
96021.4
96369.8
95280.7
94973.4
97070.7
97140.5
97057.3
97349.8
97582.6
97764.6
94524.4
98090.1
102324
102297
102308
102322
102293
102282
102335
102341
102338
102327
102360
102343
102340
100994
100208
101687
99459.5
98204.9
98705.2
98285.8
101928
102245
102305
102721
102696
102683
102802
103062
102957
102932
102954
102500
102565
102379
102368
102375
102432
102437
102595
102659
93814.6
91269.4
92120.4
92769.4
92387.3
87309.2
87834.8
87374
86953.2
88373.5
88641.5
90213.1
88871
89802.9
94069.5
88722.6
95384.3
99253
95863.9
95663.9
95378.3
96782.6
96630.8
95971.2
96243.7
95008.7
94587.4
96874.7
97001.8
96932.8
97230.1
97280.5
97563.6
97834.6
102285
102298
102318
102285
102327
102330
102329
102324
102346
102329
102318
101156
100146
101840
99685.7
99015.1
97882.3
98244.5
97925.1
102285
102464
102584
102944
102765
102694
102886
103139
103088
103027
102966
103041
102491
102550
102388
102350
102359
102416
102463
102634
102670
93641.9
90849.3
91523.7
92746.3
91866.2
86129.1
86638.5
84950.6
84955.1
87433.8
87666.6
89761.7
88241.9
88903.4
91438.7
86935.7
96390.6
92729.3
99867.3
95642.8
95495.6
95155.3
96514.2
95787.6
96076.6
96324.5
94718.3
94259.4
96751.4
96824.4
97044.5
96760.2
97178.4
97314.5
97588.4
102295
102312
102319
102321
102327
102315
102323
102349
102317
102315
100940
101618
100454
102204
99538.1
98710.3
97746
97886.4
97990.4
102394
102523
102677
103035
102788
102748
102902
103286
103111
103066
103029
103295
102516
102594
102373
102353
102343
102404
102449
102633
102713
93828
93126.4
90988.9
90058.9
92342.7
91519.1
84634.1
85652.2
84170.1
83418.3
83873.9
86210
86784
89021.7
87345
88447.8
83789.6
95576.6
91356.9
97956.5
95623.2
95317
94814.9
96570.1
95711.2
95978.9
96241.5
94380.6
96616.6
96816.9
96606.8
96703.9
96882.5
97153.6
97239.7
102314
102315
102316
102309
102315
102325
102307
102300
101185
101809
100381
102436
99906.9
99016.2
98166.4
97433.5
97554.3
97548.1
102725
102889
102917
103315
102841
102750
102975
103353
103233
103180
103124
103053
103466
102501
102578
102384
102360
102321
102327
102425
102472
102679
102724
93557.2
93199.7
90496.5
89871.1
92330.8
91776.1
90781
84296.8
85542.8
82278.2
82852
81613.1
82192
85606.1
85786.3
86663.3
88476.7
86880.5
86828.2
81780.8
92874.7
88747.5
97995.7
95420.6
95057
94571.1
96445.5
95563.8
95821
96099.5
96268.8
94085.3
96475.5
96780.2
96471
96589.6
96751.3
96937.6
97178.1
102309
102308
102295
102313
102277
102294
102294
100846
101631
102288
102790
99500.9
98932.4
97837
97110.7
97179
97225.8
103006
103051
103507
102863
102807
102969
103438
103492
103778
103509
103234
103641
102531
102618
102369
102311
102312
102302
102380
102428
102669
102766
93691.7
92772.8
90333.7
89289
91973.7
91528
90649.7
83086.9
84099.3
81267.5
80147.1
79936.2
81352.3
84465
84970.5
85724.9
88698.1
87394.6
86075.8
84295.1
82036.9
78995.3
91918.6
86947.6
95817.4
95204.7
95032.9
94687
94243.7
95508.9
95760.7
95968.4
96263.2
96322.1
96556
96445.7
96304.9
96618.9
96699.5
96869.6
102305
102301
102292
102306
102282
102267
102275
102281
101119
102088
102479
103171
99554.7
98513.6
97319.3
97958.9
96777.3
96744.9
96731.9
103352
103330
103949
102910
102812
103016
103701
103651
103475
103904
104019
103461
103163
103832
102510
102591
102350
102317
102299
102285
102387
102444
102687
102750
93399
92961.7
89631.8
89140.6
91729.6
91025.8
89995.7
81778.5
83058.5
79351.4
78589.4
78463.7
79538.2
84114.6
84906.1
85515.5
88164.3
87407.1
85449.2
83848.3
78971.5
76801.7
93308.5
88243
96296
95157.1
94837.9
94493.4
94035.3
95627.9
95294.5
95834
95970.9
96135.7
96260.5
96407.4
96213.2
96205.7
96422.4
96535
96673.3
102300
102294
102283
102247
102255
102276
102276
100890
102035
102810
103273
103523
100192
98803.9
98370.8
96958.3
97569.5
96512.3
96407.4
96417.3
103481
104286
102886
102854
102923
103990
104084
102987
103519
103252
103058
102984
103747
102535
102635
102322
102287
102267
102352
102379
102726
102817
93616.8
92608.6
89493.8
88551.9
91086.2
91997.1
90770.6
90190.2
80638.3
81983.9
78262.1
78599.2
76586.8
76585.7
79365.9
83225.9
83863.5
84368.7
86846.8
84227.5
85462.8
81131.3
76661.9
78552.9
74750.6
90872
87375.8
94222.6
95092.6
94609.4
94188
95591.5
95363.9
95777.4
95917.5
96040.2
96091.6
96162.7
96125.9
96089.7
96215.1
96389.5
96316.2
102290
102289
102279
102244
102240
102241
102253
102272
101488
102478
102980
104182
103967
99950.8
98608.2
97735.7
97045.1
96493.1
96276.4
95885.1
95949.8
104088
103895
102948
102899
102257
104307
104801
102810
103530
105332
102878
103000
103554
102544
102512
102285
102260
102240
102326
102345
102402
102773
102863
93453.6
92712.1
88782.5
88176.6
90918.7
91752.3
89787.8
80765
81758
76680.5
77016.1
74875.5
75854.1
75578.8
78136.3
82245.2
83105.6
87347.2
86024
83321.5
84519.6
80284.5
74094.8
76005
72464.6
91559.9
85037.1
93420.8
94941.8
94449.9
94019.4
95426.3
95656.1
95249
95871.9
95939.2
96057.5
96013.6
95960.9
95943.5
96044.5
96213.4
96062
102277
102222
102222
102251
102225
102260
102260
101391
102299
102767
104231
104402
104829
104578
100568
99050
97773.5
97399.4
96581.9
96020.2
96026.9
95799.2
95704.8
95661.1
95679.1
103639
102995
102317
105884
105501
104123
105426
106773
104182
103725
106198
102517
102527
102263
102223
102216
102224
102343
102536
102681
102799
93669.4
92996.6
92457.3
88532.7
90291.3
91282.1
92012.2
89853.3
88968.8
79588.1
80355.9
76084.1
76138.7
72908.4
73688.3
73791.5
78446.1
76662.3
81480.7
82203.4
86894
85784.2
83605.5
82318
84966.1
76523.4
81954.6
71913.4
73812.1
75256.2
70915.1
88438.8
85420.9
89665.5
94781.2
94588.1
94882.9
94209.5
95534.2
95592.3
94987.3
95302.8
95739.5
95935.5
95944.9
95805.8
95780.9
95811
95879.7
95949.8
95922.4
102215
102210
102225
102223
102267
102262
102486
103083
103318
104686
104099
104004
104820
100443
98460.3
97544.9
96678.8
95983.3
95893.9
95233.5
95299.5
95296.8
106306
102833
104591
107907
105387
104257
103839
108345
102358
102949
102230
102224
102206
102205
102249
102384
102486
102836
93550.4
93201.6
92624.8
87778.6
90491.6
91045.3
91867.9
89453.5
88828.5
80279.4
74505
74508.8
71255.1
72719.6
73345.1
77534.6
75643
81815.7
86092.6
87110.2
82910.4
81641.2
84697.5
74594.4
79632.7
69583.5
71830.5
72434.2
68741.2
82088.3
88109.8
93413.4
94490.8
94775.1
94067.9
95462.6
95669
95129.6
95278.6
95731.2
95795.8
95827.4
95616.3
95713.3
95657.2
95716.7
95673.8
95752.6
102189
102178
102247
102210
102247
103275
102853
103929
104278
103197
104531
103457
99571.7
101729
98636.7
96765.5
96113.7
95505.8
95697.4
95092.5
94809.6
95314.5
94858.7
94904.7
106982
103389
102852
103033
103102
102235
102217
102144
102179
102197
101710
102770
103367
93767.6
92996.4
92360.8
87724.2
90050.4
91409.4
89418.3
88229.7
79316.7
73808.6
73581.4
69649.2
70823.4
71780.9
77302.6
76083
74162.8
80411.9
85517.3
86574.6
83047.8
81874.8
80567.2
83936.4
71455.7
76064.4
68015.9
68926.9
69906.2
70773.9
67691.4
68045.3
80889.3
90798.9
83524.2
94456.6
94299
94890.5
95569.6
95627
95092.7
95391.1
95705.4
95722.7
95770.3
95456.2
95469.6
95583.2
95622.4
95451.8
95481.6
102172
102158
102188
102175
103095
103364
103725
105857
107216
106484
99322.1
101729
97910.9
96074.4
96274.4
95451.4
94927.6
94805.2
94527.3
94999.5
94610.7
109555
103455
103308
102202
102282
102153
102169
101913
102256
101563
93640.1
93227
92332.5
87088.2
90083.9
91197.3
88823.7
88186.1
77939.4
79476.7
72271.2
71992.8
69463.2
69850.4
70319.3
75946.5
75125.2
73232.3
85773.6
82123.3
81099.7
79570.7
83726.9
69535.4
74272.6
65869.4
66663.4
68128.6
68383.2
65599.5
66051.9
77251.7
89104.9
82397.3
92537.9
94179.3
94604.1
95531.8
95701
95178.2
95327.8
95723.1
95699.6
95615.8
95353.5
95217.3
95442.9
95462.8
95578.5
95215.5
95098.1
102143
102133
102144
102769
103342
103186
106281
107303
107348
100212
98393.9
101810
96718.6
95377.2
95262.6
94845.9
94368.2
94472.4
94085
94637.1
94225.3
102215
102129
102125
102382
102057
102248
93803
93158.6
92752
91888.5
86786.4
90523
89559.2
91334.5
88621.3
87419.9
77385.5
78414.3
71339.7
71066.9
67350
67881
69122
75400.5
73808.8
71747.5
85250.3
81222.2
82722.1
79922.6
78408.1
84231.3
69541.9
66712.1
71103.2
75097.7
64479.9
65237.2
66151.3
66335.6
64654.7
65662.5
75112.5
85082.2
91493.8
79092.8
91715.4
94333.3
94762.2
95535.5
95697.3
95130.5
95440.3
95690.8
95687.4
95271.8
95056.7
95211.9
95407
95550
95022.6
102113
102115
102132
105822
106977
106621
102403
108978
100310
97927.8
100633
96040.4
94747.3
94466.8
94267.5
93924
94117.4
94386.1
93812.9
94482.1
93862.1
102123
102110
101997
102572
102649
102023
93668.7
92887
92021.7
86022.5
90585.7
90154.5
88960.6
91101.1
87750.6
76207.5
69740.5
69472.7
66966.3
67646.2
73860.1
72916.6
70858.5
80394.5
82326.9
79354.9
77422.3
83832.8
66399.7
64906.7
69896
71932.3
62584.5
62948.4
64297.4
63965.1
62610.6
63935.6
71554.4
75738.1
84264.9
90459.3
79100.5
90953.5
94234.5
94678.3
95523
95585.7
95693.8
95170.4
95514.7
95685.3
95678.8
95157.1
94775.7
95175.1
95118.1
95437.5
95268.3
95619.9
94730.2
102062
102077
102029
108701
109500
106573
99270.1
96729.8
100212
94828.6
93985.5
93769.8
94257.5
93641.2
93344.1
93838.9
93998
93373.4
94225.8
93169.8
101944
102062
101814
102882
102398
93648.8
92649.3
93285
91682
92300.7
85691.6
90110.9
88709.6
91183.8
87419.2
75403.7
68747.1
68593.2
65069.1
66377.9
73542.7
71523.1
69307.7
80121.7
81028.7
82936.5
78241.9
75967.9
77385.7
84497
65634.3
62534.2
67485.5
61582.4
61447.5
62328.6
61762.5
61540.8
63834.1
62167.4
69226.6
72525.4
81800.1
86732.2
76312.9
89720.1
94530.6
93908.2
94994.3
95626.2
95720.2
95714.1
95282.6
95394.2
95651
95716.9
94830.7
94657.7
95102.6
94880.6
95425
95280.9
95575.3
102052
102063
107347
98888.9
96249.1
100491
103937
93810.3
93425.7
92940.1
93212.3
93168.5
92900.6
93392
93722.6
93015.5
93960.5
102182
102002
101727
102036
93063.3
93349.5
91765.6
92523.6
85878.4
89571
90717.5
87953.6
89034.7
86492.1
74124
66987.6
67044.6
64935.5
72121.3
70574.8
68502.7
79020.3
81255.5
82466.5
78023.6
75297.7
76261.5
84359.3
63357.2
61164.9
61139.9
66484.6
59670
59254.5
60275
59821.6
59287
62194.8
60847.2
68495.7
67105.9
73284.2
69384.3
81012.2
86461.1
77643.1
89183.2
88083.3
94567.2
93968.7
95036.7
95774.8
95761.4
95421.2
95636
95833.5
95728.1
95570.6
94656.3
94317.8
95054.4
94709.4
95502.3
95211.3
102025
102040
97110.9
99687.4
94960
103551
100493
105350
92802.2
93767.2
92698.7
92613.3
92402.5
92529.2
92406
93109.6
93472.6
92506.3
93995.3
93414.8
102377
101834
102081
101867
93013.1
93716.4
92256.8
91408.4
85296.7
89727.7
90797.7
87597.2
88688.9
86814.2
73298.3
66195.6
66061.2
63513.3
70915.3
69064.8
66782.5
78713.8
80595.5
82686.5
76874.4
74208.7
75925.6
83580.8
61506.6
63614.8
58617.6
58933.1
58380.6
58440.8
58172.1
58403.8
57590.5
58218.3
60891.4
62078.5
59011.2
65729.9
65244.4
70581
66906.5
83115.8
75578.7
88429.1
89536.3
86426.9
94287.9
94798.9
95319.7
95716.3
95827.8
95660.7
95887.1
95709.7
95725.2
95592.4
94421.3
94807.1
94619.5
95410.4
95151.6
101989
102055
96238.4
98344.7
94874
105093
100354
91761.1
92461.3
92245.1
91608.9
91529
92133
92034.3
92639.8
93193.9
92017.9
92387.7
93777.3
93122.7
93480.7
101834
102046
93318.8
93727.6
92536.1
91360.1
85479.2
90259
89339.8
88020.7
86369
73274.6
64357.8
64554.3
63091.9
69878
67873.5
66287.2
77518.6
79414
80932.3
81828.4
76632.3
73593.3
74514.1
83449.4
58868.1
62300.4
57782.2
56996.4
57517.7
56446.2
56666
56109.2
56323.9
56102.2
56201.9
59333.8
60518.8
58076.5
64047
63308.7
71584.9
67332.5
64278.7
83150.8
77224.2
88950.2
91298
94472.2
94854.1
95426.4
95761.4
95819.7
95735.2
95903.6
95947.1
95834.7
95648.2
94223.1
94644.6
94960.1
94315.9
95342.3
101977
96614
99258.8
93654.2
102514
91206.6
91028.1
92355
91177.4
91505.4
91106.9
91127.6
91470.5
91389.2
92691.6
91576.4
91904.5
93921.4
92763.8
93257.7
102010
93203.4
93998.9
92374.6
90550.8
91540.6
84792.6
89409.1
87729.3
86311.9
72167.8
63510.7
61456.6
70045.7
68175
64907.5
77034.9
79219.2
80303.3
82490.3
75597.2
72586.4
74446
83972.4
58356.8
60273
55664.1
54533.9
55478.5
54242.8
55160.8
55212.4
54795.2
53962.7
53966.5
55127.5
59051.4
60180.9
56284.3
61837.8
61775.4
69435.5
65023.4
62235.3
81027.8
75514.5
92234.3
84334.1
92932.3
94306.9
94994.6
95658.3
95200.6
95978
95977.1
95972.3
96010.5
96099.2
95861.7
95560.6
94521.8
94903.2
94181.1
95355.9
102102
95220.6
99108.6
93661.8
103197
90233.2
89883.3
91017
90066.2
91158.2
90123.8
90232.2
91126.4
91165.5
92335.5
91470.6
91877.3
93672.3
92832.4
92337.3
93132.9
93357.7
94038.8
91948.9
93144.3
90131.2
91162.1
85584
88849.3
88136.7
86876.7
70979.4
63580.6
61673.4
60855.2
68823.3
66990.4
64655.8
75949.4
77959.9
80358.7
82070.8
75291.4
71761
73406.8
83793.9
56343
59941.7
53928.1
53206.6
53650.3
53218.7
53251.9
52870.9
52421.7
53344.3
57419
58597.4
55917.4
59911.4
66863.2
69505.3
62158.9
65285.8
60073.4
61410
81682.5
72560.3
78692.4
91223.4
84676
92797.3
94562.2
94926.4
95834.7
95503.8
95987.3
96037.7
96207.5
96242.6
96242.9
96092.2
95761.2
95356.3
95661.1
94580.7
94883.3
93944.8
95051
95377.2
100315
97127.1
92006.8
105852
89630.8
88851
90751.3
90040.1
88953.4
90543.5
89702
90051.2
90586.3
90618.8
90909.4
91369.5
93305.3
92413.2
91935.2
92736.3
93797.6
94568.4
92474.5
93213
90336.8
91494.1
85289.5
89071.4
87727.6
86903.2
70611
62105.2
60913.2
58862.6
67537.4
69445.2
65477.9
62930.3
75480.7
78214
81095.9
79437.6
82835.7
73999.6
71440.6
72227.3
84290.9
54466
56521.1
58204.2
51763.6
51204.7
51388.2
53226.8
51403.5
52237.2
52396.6
51406.2
50771.7
52288.3
57328.4
57806.3
54266.9
57884.2
65508.7
66631
70209.4
60084.5
62906.6
58424.5
58972.5
72278.3
77706.3
88057.6
83034.7
93762.1
95256
96069.7
95523
96245.2
96479.6
96248.7
96475.4
96260
95935
95405.6
95663.9
94313.3
94755.9
93861.9
95288.7
93000.2
99887.1
97176.1
91515.9
103753
88555.3
88428.5
88058.5
89128.3
88720.6
88084
90286.5
88750.2
89390.9
90240.8
90381.1
90838.8
91423.6
93158
92024.8
92599.9
94266.1
94844.5
92295.2
93586.5
89815.8
91021.7
86246.9
88498.9
61658.8
59448.4
58278.2
66486.8
68476.1
64662.1
63124.4
73705.6
75228
77681.5
80795
79839.5
82705.1
73138.9
69741.2
71928.3
83836.8
53140.9
54625.1
49882.5
49781.6
50136.4
49296.4
50456.9
49695.5
50381.5
50588.2
49689
49417.7
50518.9
52716.7
55718.1
56174.7
54281.2
55895.8
63311.9
65778.7
67762.2
57562.3
60840
56578
57161.7
69661.2
74295.3
79862.4
88375.7
84922.9
93592.6
95189
96092.4
95775.4
96415.5
96691.8
96534.5
96677.8
96378.9
96087.8
95866.1
95697
93992.1
94401.9
94916.7
93446.3
95271.1
92827.1
98285.8
95178.5
89660.6
103140
88067.5
87092
87038.5
88214.7
88678
86868.5
89708.6
88346.7
88652.1
89698.4
89792.4
90331.8
91021
92826.1
91669.6
92021.7
94149.8
94736.1
92523.1
93497.3
90188.8
91309.9
86098.4
88361
60097.6
58835.6
56603.2
65009.1
66964.9
62145.4
73601.6
75454.4
79151
76579
81637.8
69564.1
70922
83909.2
51182.2
54221.7
47722.2
47473
47991.7
48866.2
47431.9
49630
48998.9
47828.8
49536.5
49854.4
48094.6
47211.2
49261.5
51146.8
55004
52902.2
55415
61871.9
63557.1
67693.8
56446.1
56052.8
59141.5
55577.2
69906.8
72815.7
78037.8
90068
84775.1
95493.8
92598.9
95494.5
96409.9
95788
96449.8
96765.3
96756.6
96718
96732.3
96526.8
96243
96023.3
95551.8
93885.7
94305.1
95110.7
94673
93359.2
91125.6
98458.7
95310.4
88566.3
101388
86938.8
86508.8
86347
86397.7
86687.2
87043.8
86048
89383.4
87431.5
88253.8
89271.4
89587.5
89264.1
89745.6
90142.5
91149.9
90387.9
92708.9
91690.7
92196
94479
95247.8
93111.4
92108.9
94319.6
89719.8
90770.2
84848.3
86498.5
87258.6
89034.2
59651.4
57145.7
55171
56060.1
63895.8
65911.7
60527.6
62496.1
72623.1
74670.9
78729
77315.2
81600.8
68106.9
70517.1
83054.2
50642.9
52237.2
45770.7
45760.5
46515.9
45637.3
47435.2
46066.3
45972.1
47620.5
48026.9
46623.1
45264.6
49478.2
47730.6
51359.6
53223
53197.5
61824.5
59783.5
63268
65516.8
53748.4
53804.5
56988.3
53858.3
68445.9
73023.5
74859.5
79539.3
87483.6
82475.1
94242.8
93253
95508.1
96438.4
96082.2
96751.4
97154.9
97166.2
97101.4
97080.1
96409.1
96765.2
96011.9
95681.9
93637.9
94342.6
95253.1
94785.5
92946.2
89157
91608.3
96573.7
93501.1
88211.1
86720.9
101367
86803.4
86269.5
85222.3
85060
85322.5
85957.5
84774.5
88651.1
87016.8
87458.3
88575.3
88923.1
88622.6
89284.7
89574.5
90781.7
90273.4
92660.9
91275.8
91934.2
94880.8
95339
93614.6
92374.6
94629.2
90938.1
85237.7
86272.4
87963.5
88967
57890
56723.4
53385.1
54294.1
64170.9
65946.2
60018.9
61336.5
73185.6
71067.6
75145.9
79374.8
76637.5
80618.6
69072.2
66717.5
83240.4
48693.6
51748.2
43812.3
43928.7
45300.5
45741.4
43946.2
47005.5
44536
44156.3
46979.3
46453.5
44660.3
43715.3
47681.4
46224.4
49788.9
51777.1
52633.5
59429.6
58286.8
61407.1
65163.2
52569.2
52817.9
52702.3
55771.3
68823.8
66457.6
70491.5
73900.8
77397.1
87900.2
83465.4
94089.6
90968.6
96103.6
96773.2
96950.8
97439
97325.9
97195.3
97353.2
96428.1
96780.5
96942.3
95883.4
96347.4
93623.7
94052.8
95180.9
94517.7
93144
87846.2
89746.3
96062
94002.1
85784
85432.3
99578.4
85823.4
85261.1
84829.2
84613.3
84315.7
84702.7
84440.9
83679.3
86095.2
87261.6
87959.6
88732.5
87996.3
89318.1
90757.4
89798.4
92346.4
91467.9
95329.9
95741.6
94278.1
93345.4
91755.9
95277.1
90182.8
84779.2
86648.2
87608.8
89457.2
57235.9
55171.7
51972.8
53815.2
62786.6
64091.1
58491.8
61346.6
72187.9
70048.4
74027.7
79106.3
76466.1
81105.6
68385.5
66062.2
82167.5
83959
48278
49770.7
41842.7
41880.5
43434.5
43716
42563.8
45193
42403.8
42473.9
45195.4
44625.6
43395.7
41740.5
47960.8
45975.9
44752.6
50047.6
50815.2
58425.1
56464.7
61528.5
59467.4
62997.2
50369.3
50729.4
53777.6
50714.6
67033.5
65580
70050.6
74827.2
71555.2
78225.6
86283.5
81199.8
94095.8
92406.5
96386
96802.8
97673.7
97758.6
97569.9
97661.8
97054.5
97267.1
95839.2
96494
93794.7
94181.3
95267.4
94612.5
92889.5
86082.7
89958.4
96831.4
92275
84132
83867.8
99829.3
84970.9
83656.5
83495.3
82912.7
83740.1
83550.8
83542.6
82357.6
85538.2
86517.7
88124.5
87399.6
88569
90261.7
89613.3
92172.4
91124.5
95893.5
96244.9
95013.2
93652.8
91893.6
95517.9
91004.8
85973.9
87874.2
89088.9
55644.9
54591.7
50657.9
51871.9
62625.6
64625.8
58585.5
60113.5
70712.2
72725.9
68632.4
75006.5
78146.7
80423.3
77054.2
66771.7
82644.6
83797.6
46367.2
49356.4
39987
40052.1
42237.5
42990.5
42279.1
40926.5
43630.1
44986.6
40963.1
41722.9
41124
43924.7
41526.3
40073.8
46777.9
44244.6
43017.3
48630.3
55859.6
54984.5
59715
58325.4
62552.2
48907.7
49578.4
49082
53178.3
49609.2
66544.8
63868.3
67967.4
73257.7
71363.7
76524.1
87178.4
81305
93362.5
89858.2
97366.2
97769.7
97679.1
98024.4
97906.3
97597.5
97769.3
97119
95547.7
96191
96815.8
93596.9
94036.2
94953.2
94250.6
92467.3
93241.8
85326.6
84317.1
88218.4
95912.6
92207.2
82347.9
82369.5
97976.1
84034.8
82973.5
82584.5
82885.3
82104.5
81851
81372
84374.2
85780.6
86613.2
88016.4
87408.5
88452.8
90146.8
88966.2
91501.7
90511.4
96651.3
96772.8
95063.2
94293.9
92975.3
92337.7
96080.4
91065.2
86162.9
87240.2
89599.2
54828
52846.9
48848
50189
50464.2
61054.1
63717.5
57359.9
59622.7
69946
71799.2
67561
74406.4
78465.3
80532.6
76453.5
66153.2
81914.1
84420
45890.3
47424.9
39762.3
38107.2
38102.7
40256.3
40595.8
40302.6
42187.3
43168.1
39053
39617.4
39516.9
40565.7
41846.9
40526.7
38387.5
44921.2
47168
42636.2
43822.6
41465
54670
54826.8
59336.9
56462.7
60796.7
46752.7
47741.3
47131.1
51708.4
50062.5
47814.3
64561.8
63240.6
67426.8
73139.1
69841.2
74282.9
77064.8
85946.1
83389.5
79005.7
93317.4
92582.2
90511.1
97526
98310.1
98156.1
98504.4
98301.1
97751.4
98021.9
97460.7
95675.8
96311.8
96881.4
95014.1
94058.7
92212.2
93187.5
83358.8
85997.6
82820.2
89483.5
93960.3
80516.5
80955.8
98143.6
83006
83707.4
81852.6
81322.8
81653.3
81228.7
80709.2
80355.6
83749.7
84443.3
85185.4
85937.2
87402.4
86706.9
87732.8
89433.5
88857.9
91301.8
90417.2
96747.2
95728.6
94540.2
93824.6
92195.5
96398.2
90526.1
85446.1
87262.9
89011.2
55674.9
53265.7
52228.8
47212.8
48069.9
49077.1
61067.6
64705.5
62240.3
58123.5
70433
68289.7
72724.7
67255.8
75223.2
77562.1
79533.1
82042.1
84160.6
43725.1
37351.7
36374.7
36383.8
38633.6
39416.3
38599.9
40465.7
42389
37831.6
38144.5
37835.6
38650.1
38734.2
36730.6
44334.4
45781.8
40562.8
41884.6
39690
52256.2
52660
57632.1
56107.9
61160.4
46442.4
45139
47153.7
45246.8
48409.7
46465.9
64148.1
65598.9
68211.3
70775.1
73529.4
75301.6
87662.9
83341.4
78664.8
94260
92664.7
89567.8
97935.4
98634.2
98521.8
98856.1
98299.7
98107.3
97803.1
97423.2
96095.7
95391.1
96640.1
94587
94219.1
93497.3
92653.2
91604.4
82021.6
83961.2
81300.1
88733.3
93493.7
78920.8
80198.6
79313.7
96508.2
82151.9
82658.5
81196.2
80242.5
80796.6
79848.5
79228.5
79315.8
79921.4
82858.1