/*--------------------------------*- C++ -*----------------------------------*\
| =========                 |                                                 |
| \\      /  F ield         | OpenFOAM: The Open Source CFD Toolbox           |
|  \\    /   O peration     | Version:  v2012                                 |
|   \\  /    A nd           | Website:  www.openfoam.com                      |
|    \\/     M anipulation  |                                                 |
\*---------------------------------------------------------------------------*/
FoamFile
{
    version     2.0;
    format      ascii;
    class       surfaceScalarField;
    location    "1";
    object      phi;
}
// * * * * * * * * * * * * * * * * * * * * * * * * * * * * * * * * * * * * * //

dimensions      [0 3 -1 0 0 0 0];
oriented        oriented;


internalField   nonuniform List<scalar> 
43406
(
1.14484
-1.15822
-0.831954
1.9768
-1.26342
0.105205
-1.55947
0.72752
1.42006
0.556742
-1.27357
-1.45427
1.81916
-1.09164
1.40524
-0.742385
1.29913
-0.0651022
-1.20847
-1.17033
-0.283935
1.07677
0.740351
-1.83199
1.5508
-0.145566
1.20844
0.0906905
-1.23544
-1.21847
0.896286
-1.18022
1.13736
-0.0605861
1.79994
-1.05959
-0.935704
1.53612
1.06287
1.22805
0.00558052
-1.24102
0.0218333
-1.2403
-1.20634
0.0261225
-1.48383
1.42325
0.316106
0.489881
-1.54947
-1.14486
0.209161
0.325381
1.21074
-0.872573
1.93544
0.355477
-1.20076
-1.21918
-1.25041
-1.11874
1.33121
0.092035
-1.28261
1.59872
1.50371
-1.01383
-1.18998
-0.359488
-0.980818
-0.928827
1.25421
1.19409
1.00662
1.68669
-1.21931
0.0185474
-0.0576297
-1.16155
0.300207
-1.55062
-1.2246
0.105856
-1.33716
1.4292
0.221097
0.261552
-1.16506
0.151229
-1.52454
-1.31694
0.33612
0.104531
1.14968
0.00911995
1.18497
1.19297
-0.186351
1.58827
0.098413
-1.27694
-1.20605
-0.861347
-1.55917
-1.21108
1.46542
-0.036225
1.58106
-1.35996
-1.19443
1.45598
1.24471
-1.09348
-1.18842
1.2975
1.1588
1.16696
1.40192
1.56384
-0.829082
-0.447858
0.11723
-1.32328
-1.69043
-0.214361
-1.34481
-1.26195
0.0508659
-1.17854
1.14231
0.386625
-0.115252
0.277446
0.130585
-1.22406
-1.38324
0.194813
0.118006
1.17949
0.0855064
1.07329
-0.211237
1.3782
1.22783
0.174094
1.39215
0.171681
0.7749
-1.22276
-1.14472
-0.548381
-1.25199
-0.43844
-1.46635
-1.3534
-1.33237
1.68935
-0.547043
1.32308
-0.936458
1.02306
-1.13831
1.54333
-1.26588
1.24707
-1.11649
-1.59268
0.36862
-1.39787
1.34584
1.265
0.862053
1.35899
1.56625
-0.919862
1.09154
-1.30908
0.0863208
-0.839642
-0.305076
-1.38802
-1.74752
-1.18285
-0.283502
-0.0831832
-1.27022
-1.20649
-0.125876
0.769492
0.996285
0.057202
-1.69155
0.755094
-0.66849
0.108757
-0.747867
-1.30439
-0.0934815
0.244505
1.10133
0.707554
0.557443
1.56961
-0.650092
2.00908
0.983501
0.582748
1.61699
-0.525443
-1.3017
-1.51157
-1.00659
-0.740931
-1.26603
-1.29009
-1.27855
-1.43026
1.16053
-0.391038
1.5465
-0.550219
-1.50801
1.56521
-0.752912
-1.32394
0.65545
-1.21518
-1.43635
0.688481
1.33909
-1.43257
1.22801
1.65877
0.919514
0.700351
1.30873
-0.840737
1.42349
0.776249
0.635086
-1.62559
0.323892
-1.29805
-0.213523
0.654171
-1.3951
-1.21797
-0.0480652
-0.0691019
-1.22099
0.150702
-1.42925
-1.27746
-0.152802
1.15547
-1.50037
0.950155
0.0648333
-1.4565
0.703593
-0.801054
-1.34981
0.134629
-0.0972614
-0.66133
-1.29572
-0.136852
-0.369416
1.59742
0.816641
0.842132
1.73615
-0.887125
1.58748
1.28611
1.05407
1.73148
-0.955235
-0.815532
1.45062
-0.971423
-0.974156
-1.49098
-1.4642
-1.06726
-1.26905
-1.43729
-1.44852
0.339934
-0.914918
1.86507
1.50149
-1.43666
1.78206
-1.07847
0.560636
-1.36169
1.25055
-1.11593
1.5212
-1.61846
0.859871
1.23715
-1.374
0.710301
0.88712
1.55243
0.84903
0.811287
0.776189
0.379076
0.907037
-0.427879
1.48195
1.30361
0.495383
0.748147
-1.71957
0.64004
-1.6142
-0.850945
-0.351442
-1.11276
0.827974
-1.89524
-0.441079
-1.073
-0.364282
-1.44778
-0.000739119
-0.830711
1.17064
0.58657
1.03436
0.345407
-1.56472
0.48625
-1.00408
-0.111136
-0.256054
-0.381317
-1.42256
0.0485639
-0.480886
1.36801
0.794376
0.758058
1.64341
1.19036
-0.732644
1.50883
0.8835
1.00106
-0.0823998
1.386
-1.08022
1.57561
-0.86605
-0.982854
-0.736716
0.654473
-1.50542
-1.3343
-1.55384
-0.84286
-1.05238
-1.08279
-1.20714
-0.793306
-1.4233
0.0904202
1.40315
-0.816582
1.20441
-0.170048
-1.00385
1.34925
1.78779
-1.30154
-1.16128
0.157199
-1.27242
1.29923
-1.55528
-1.18857
0.807251
1.34252
-1.29396
0.889323
0.478683
1.64738
0.910761
0.321475
0.868887
0.54986
0.958973
1.20498
-0.183214
1.18428
-1.68681
1.60441
1.20279
-0.111202
0.722551
-1.5886
0.81979
-1.55651
-0.782866
0.0988944
-1.43319
-0.0247299
-1.52911
0.234294
-1.28667
0.835074
-1.91786
-0.372068
0.635518
-1.42882
-0.787783
1.29483
1.63807
-0.234918
-1.46018
0.643599
1.46802
0.78394
-0.110926
-1.38335
0.0818127
-1.22615
0.0268083
-1.70549
0.150211
0.153953
-0.898242
0.282951
-1.57691
1.66296
0.716032
0.931348
1.62679
1.41875
-0.416131
1.3751
1.1851
1.09168
0.512727
-0.163994
1.36679
-1.39359
1.28238
-0.768811
-1.45761
0.768608
-1.55147
-1.45792
-1.29482
-1.65874
-0.532004
-1.38586
-0.660216
0.494459
-1.28224
-0.0987554
-1.49105
1.25613
-0.847448
1.10057
0.367452
1.399
-0.615062
1.28808
-1.36131
1.44312
-1.2599
0.0337446
-1.23309
1.55744
-1.40723
1.25637
-1.10241
0.358124
1.50771
-1.22476
-1.08245
1.29762
0.365334
-0.457988
1.38934
1.21066
0.571367
0.84738
0.742137
0.632966
1.75647
0.927688
1.29578
-0.783052
1.05777
0.309019
1.72168
-0.439298
0.901888
-1.6707
-0.00723948
-1.45037
-0.649586
-0.0250043
-1.43292
0.151165
-1.44598
-1.17879
-0.479951
-1.71079
-1.39238
0.836062
-1.49628
-0.44618
1.00181
-0.201381
1.45751
0.440628
-0.909717
1.27717
-1.66988
1.05481
-1.29007
-0.0712396
-0.226755
-1.25632
0.324356
-1.21542
-0.19181
0.405299
-0.857298
0.19479
-1.41955
-1.19312
0.110675
0.839636
1.4231
1.30668
0.0826589
1.12146
0.0892048
1.58952
1.75442
0.980191
0.776274
-0.186728
1.11442
1.10905
0.93863
1.42344
-1.50052
1.06122
-1.16638
-0.504316
-1.17362
-1.47538
0.936987
-1.58657
-1.28175
-0.881067
-0.564915
-1.36102
-0.745571
-0.965222
-0.06866
-1.32372
-0.559291
-1.6393
-0.498707
1.28641
-1.48779
0.547793
1.41596
-0.975327
0.778461
1.61929
-0.564476
-1.11747
1.04623
-1.67137
1.44462
-1.26023
0.00390788
-0.935876
1.05236
-1.24417
1.39938
-0.994081
0.542082
1.62276
-1.42797
-1.30888
-0.391103
1.23074
1.032
1.39588
1.3134
0.856777
0.73274
0.90186
0.852565
0.961849
1.63305
1.38323
-0.274181
1.55594
-0.617306
-0.137707
1.56114
1.65345
-0.592226
0.96139
-1.46571
0.49482
-1.66844
-0.146316
-1.32906
-0.625184
-0.994094
-0.287657
-1.55901
0.255866
-1.61688
0.310061
-1.05563
-1.03388
-1.3296
0.971309
-1.5306
-0.667994
1.02397
0.262437
-0.0718359
1.57177
0.643963
1.62293
-0.844474
-1.33536
0.770884
-1.36466
0.247192
-0.625145
0.109258
-1.36075
-1.63635
0.700471
-0.583983
-0.702091
0.628684
-1.32582
-0.102159
0.414931
-1.72381
-0.38063
1.41263
1.61704
-0.221154
-0.116193
1.42959
1.6346
-0.596178
1.44874
0.92863
0.816909
0.816142
1.24552
1.28175
1.03614
1.18051
1.03071
-0.970886
-1.81476
-1.61672
1.06209
-1.68727
-1.30314
-1.30682
-0.302529
-0.753103
-1.33641
0.28123
-1.61083
-0.46851
0.758001
-1.426
1.62916
-1.36672
-1.48339
1.41155
0.727293
-0.839425
1.5053
-0.734417
1.40038
-1.15319
0.775236
1.37004
-1.26078
-0.660282
0.891305
-1.47529
-1.48115
0.779059
-0.852466
-0.910885
-1.27838
1.17622
-0.965806
1.29643
1.02086
1.20844
0.832056
0.802544
0.957666
0.491077
1.74554
1.6482
1.3856
-0.140075
1.26913
0.0126248
1.58048
-0.544331
-0.316569
1.49708
1.76533
-0.734619
0.976088
-1.94697
-1.06712
-0.747635
-0.126992
-1.48973
-0.711187
0.321249
-1.62439
-0.63253
-0.674293
-1.38563
-1.05518
-1.61511
1.16241
-1.63092
-0.263582
1.03333
0.595832
0.0448289
1.76062
0.665875
0.635621
0.299253
-1.45244
1.79694
-1.0217
0.536161
-1.53966
0.879377
-0.648354
-0.69623
-1.72982
0.87735
0.765131
-1.67602
-0.513247
-0.553598
-1.38672
0.420913
-0.147642
1.44408
1.24762
-0.226758
-0.230427
1.43886
1.76021
1.73869
-0.233733
1.97927
1.41446
1.06903
1.12905
-0.969518
0.982143
0.610957
1.221
1.34944
1.026
-0.540741
-1.40623
-1.19412
0.481158
-1.22879
-1.16848
1.16927
-1.88045
-0.701935
-0.922458
-1.37623
-0.589922
-0.795712
-1.6451
-1.41172
-0.203389
-0.461657
-1.6503
1.46722
-0.871385
1.46272
-1.41789
1.4619
-0.796029
1.52203
-0.88641
1.6809
-1.38165
-0.573065
0.6592
1.55293
-1.01677
0.958547
-1.6069
-1.5759
0.879672
-0.698551
-1.2551
1.11108
-1.62432
-1.50371
0.950116
1.21365
1.21211
0.483149
1.27706
1.07119
0.667506
0.753786
1.22549
-0.0127232
1.42719
1.62553
-0.556497
1.18848
-0.0594227
1.29334
-0.311193
1.02414
-0.413187
1.08994
0.131061
0.166875
1.18256
1.64102
-0.615017
0.858159
-1.3989
-0.925075
0.187734
-1.38185
-1.04106
0.204796
-1.37327
-1.02229
0.621325
-1.54378
-0.531056
-0.845172
-1.32677
-1.05348
-0.591625
-1.41557
-1.25687
1.19275
-1.6544
-0.457557
1.46101
0.00620558
-1.61763
0.746249
-0.154917
0.0440172
0.726002
0.666524
-1.02378
-0.357869
-1.59685
1.60654
-0.947341
0.589767
-0.6383
-0.727229
-1.53979
0.841234
0.488908
-1.74401
-0.392638
-1.41118
-0.213145
-0.58967
-0.178617
1.39227
-0.425504
1.63761
1.55433
1.26434
-0.869109
1.53661
-0.613343
1.36713
1.1931
0.813844
0.830317
0.795212
0.63198
1.23391
0.712952
0.676748
-1.01416
1.14522
0.997191
1.00395
0.626857
0.845994
-0.508815
-0.890085
-1.43389
-1.17705
0.449171
-1.49023
-0.751948
0.518105
-1.5404
-0.49773
-1.04605
-1.3429
-1.00092
-0.325847
-1.59255
-1.51332
0.0977521
0.260535
-1.5174
-1.71982
0.0654191
0.880469
-1.33803
-1.51472
1.52093
-0.768472
-1.35764
1.20273
-1.45705
1.50107
-0.73105
1.68724
-1.02071
-1.53228
1.17441
-1.72078
0.773437
1.54304
-0.953277
1.01777
-1.65607
-1.59793
0.870703
-0.756697
-0.92227
-0.863541
1.12513
-1.51776
1.12434
-1.33748
-1.34962
0.75995
0.966761
0.768502
1.05766
0.496675
0.804425
0.459913
0.902231
0.634383
0.361718
1.00541
1.55481
1.61827
-0.138769
0.933981
-0.544527
1.17651
0.689386
1.21265
-0.499701
-0.512351
1.1891
0.632872
-0.0122157
1.00941
-0.0928657
1.09681
1.35269
-0.72583
-0.722637
1.56863
0.468549
-1.35863
-0.984719
-0.138748
-1.03831
-1.62898
-1.79025
-1.20172
-1.07185
0.721934
-1.76799
-1.66875
-1.33201
-1.51617
-1.41965
1.38349
-1.31807
0.0454631
0.798289
-1.04902
0.280549
0.143425
0.153706
0.956188
0.52233
-0.514512
-0.546369
1.69393
-0.920491
0.740651
-0.785362
-1.54024
0.783543
0.82528
-1.74755
-1.30836
0.444823
-0.224493
-0.393426
-0.512203
-0.780291
-0.286403
1.25316
-0.662751
1.43125
1.51757
1.39891
-0.61085
1.24523
-0.512709
1.51812
1.52947
1.10556
-1.21321
1.07444
0.921765
-0.0367014
0.947625
-0.258239
1.20892
0.00373637
0.689399
-0.545211
1.17808
0.916541
0.81041
0.807475
0.842801
-0.516269
-0.842365
-1.50099
-0.203818
-1.42516
-1.06832
-1.55726
0.355546
0.19317
-1.26502
-0.769763
-0.998222
-0.240276
-1.42847
0.175468
-1.50748
-1.06876
-0.447415
0.339188
-1.75884
-1.53645
0.218377
-1.2629
-0.816621
1.61491
-1.12862
1.40917
-1.22261
1.36603
-0.974919
1.48636
-0.530169
-0.866074
1.3884
-1.91526
1.40075
-1.29977
0.753398
-1.50869
0.588202
1.6008
-0.860146
-1.60948
0.824119
-0.825938
-1.30273
1.46408
-1.68858
1.08627
-1.4797
1.06034
-1.57255
0.683794
0.590414
0.820403
1.16248
0.355097
0.975001
0.423905
0.776468
0.468765
1.25681
0.261309
0.324588
1.20488
-0.117214
1.22277
0.241141
0.833299
0.0403084
0.881456
0.910923
0.950677
-1.1031
1.10683
-0.413696
0.764387
-0.0506754
0.967217
-0.231866
1.04228
1.25079
-0.443312
-0.742671
1.58547
0.409117
-1.25148
-1.38112
-0.119869
-1.58494
-0.467848
-0.957312
-1.53617
-1.36409
-1.1809
-0.855903
0.576031
-1.34579
-1.2385
-1.25301
-1.16829
-1.07096
0.738919
-1.18633
-1.01992
1.50101
-1.28263
0.23811
-1.69338
0.876763
0.872239
-0.284209
0.263752
0.391111
-1.5441
1.01393
0.734723
-0.155698
-1.09114
0.100984
-0.755295
1.76198
-1.17378
0.901832
-1.52676
0.700823
-1.46454
0.161813
-0.602304
-0.419357
-1.68478
0.112235
-0.842967
-0.386113
0.976527
-0.262544
1.08295
1.04526
1.3301
1.20037
-0.444124
0.912889
1.5814
1.48408
1.17716
0.918036
-0.676895
0.873608
0.830781
1.14109
-0.230166
0.898274
0.0524031
1.00435
0.102483
-0.45241
1.2168
0.735351
0.656163
0.798378
1.14216
-1.37135
-0.627611
-0.957326
-1.58492
-0.960137
-0.821795
-0.542297
0.542637
-1.72354
-1.6777
-0.197168
-1.14863
-1.43567
0.209654
-1.46266
0.356926
-1.52522
0.729044
-0.457291
0.286926
-1.30684
-1.41216
0.129522
-1.22643
-0.727891
1.60465
-0.849816
1.72206
0.975436
-1.25965
-1.30769
1.57144
1.60472
-1.21361
-0.293755
1.49867
-0.763949
1.34297
-1.27732
0.186175
1.31602
-1.21503
0.560725
-1.34867
0.174892
1.38396
-0.482126
-0.576495
-1.52297
-1.62181
1.0195
0.887932
-1.30729
1.17842
-1.06619
-1.93271
1.08974
1.04648
-0.0699555
0.783939
0.638823
-0.388357
1.43362
0.94174
0.151201
1.04917
0.845189
0.0676997
0.445887
1.13551
-0.248766
1.73285
1.62305
0.678363
0.239672
0.464195
0.134683
0.738925
0.0808307
0.74995
0.668108
1.05675
-0.767375
0.869858
0.449422
-0.191374
0.926725
0.811888
-0.155725
0.963537
-0.165159
1.0002
0.141961
0.463942
-1.83529
0.501426
-1.45875
-0.576904
-1.00802
-1.53704
0.810304
-1.3526
-0.869519
-0.913234
-1.21376
0.30675
-1.45538
-1.22601
-1.10573
-1.23829
-1.76413
1.4805
-1.35098
0.254074
-1.59348
0.865584
0.754839
0.819396
0.902659
-0.618039
0.345074
0.357832
-1.16777
0.874018
0.620009
0.175202
1.25215
-1.06597
-1.86275
0.647717
-0.787943
1.59169
-1.4168
-1.62871
1.14658
-1.58364
1.00715
-1.18516
-0.337805
-0.733876
-0.913203
-0.128866
-1.70421
0.638027
-0.493902
0.741932
0.924488
-0.140549
0.741241
-0.102418
1.18485
-0.544894
1.48663
0.99639
0.504277
0.808941
-0.181189
1.3167
1.55166
0.0815514
1.5415
0.813046
-0.564994
0.804666
0.909247
-0.445053
0.819756
0.558576
-0.296039
0.964147
0.760713
1.1755
-0.305639
-0.634784
1.08421
0.771
0.328753
0.835039
0.961357
-1.33387
-0.777012
-0.681739
-1.78503
-1.23029
-1.50324
0.150642
0.856994
-1.72651
-1.3219
0.408668
0.352862
-1.56662
-0.186499
-1.26888
-1.41251
0.23738
-1.34312
0.597575
-1.83587
0.0358655
-0.493987
-0.931089
1.56868
-0.703101
-0.700116
1.45495
1.03059
-0.127928
-1.40818
0.790139
-1.0631
1.64184
-1.28401
1.34765
-0.473628
-1.18067
1.80068
1.43778
-1.26258
-0.610605
-0.0588251
1.50181
-0.854097
0.713871
-0.0370214
-0.702924
-0.0340829
1.00222
-1.34003
-1.30236
0.568483
-1.50855
0.595343
-1.43122
-0.701992
-0.793197
-1.70842
1.21452
0.910804
-0.168871
0.822069
0.770254
-0.634471
1.81933
0.852163
0.47955
0.51684
0.983827
0.903093
-0.0941517
1.39825
1.29478
0.256875
1.52381
0.105778
0.707268
0.344253
0.549283
0.255383
0.519094
0.371232
0.448524
0.929808
0.699166
0.0615464
0.672249
0.503249
0.778566
0.64352
0.12748
-0.722382
1.05114
0.112657
0.124313
0.837045
-1.06705
-0.266815
-1.74879
-0.276928
-1.5081
-1.50722
-1.15038
-1.17126
-1.31785
-1.22344
-0.343182
0.137983
-1.40686
-1.17513
-0.74554
-1.7807
1.28671
0.600201
-1.53129
0.868569
-1.55413
0.851024
1.36526
0.0896944
1.1549
1.23733
-0.763986
0.578734
0.0636392
0.964155
0.538096
-1.55867
0.948067
-1.6175
-1.5924
0.738302
1.36103
-1.39805
-1.53374
0.830814
-1.38819
1.35411
-0.739827
-0.940063
1.51438
-0.919033
0.59394
-1.29593
-1.6845
0.891302
-0.194045
-0.402979
0.474649
0.643283
0.178786
-0.00572037
0.775975
0.943749
0.875576
1.16337
-0.311205
-0.319172
0.836011
1.13861
-0.154782
0.583921
0.549132
-0.0178109
1.41606
1.27697
1.20062
0.427068
1.09674
0.655062
0.296018
0.41125
0.747502
-0.403249
-0.548552
0.803935
-0.284457
0.803551
0.744541
0.556218
0.373591
0.41471
0.733795
0.84463
-0.341381
0.987394
-0.208827
0.683698
0.995684
0.0554518
0.949702
-1.49025
-1.49377
-0.255022
0.00670282
-1.51481
-1.36924
-1.34559
0.195212
-1.45239
0.281135
-1.29385
-0.0239956
-1.68877
0.120671
-1.52753
-1.05446
-1.51671
-0.263983
-0.244581
1.41633
-0.547763
1.56127
-0.710241
1.50603
0.513603
0.641297
0.16241
1.07492
-1.57572
0.811732
-0.996985
-1.04135
1.10499
-0.0771988
-0.840804
1.3789
-0.644333
-0.795436
-0.0271573
-1.48636
0.0883073
-0.655546
1.50347
-0.149361
0.824714
-1.56454
-1.68521
0.745143
-1.68749
0.768462
-1.09056
-0.471218
-0.793904
-1.58846
1.39442
-1.28336
0.880376
-0.373298
0.847947
-0.520833
0.699618
-0.637113
0.631392
0.255142
-0.354284
1.22986
1.14062
0.0227507
0.827404
0.681229
-0.301127
0.885048
-0.191797
0.740928
1.02044
0.395621
0.965089
0.311885
0.0520619
1.14856
1.44751
1.08144
0.353051
0.30201
0.764302
0.19895
0.400302
0.40452
0.399416
0.40658
0.337961
0.780171
-0.353828
0.768538
0.379967
0.359052
0.485578
0.646012
0.786856
0.3104
-0.790881
0.846332
0.158821
-1.2424
-0.247851
-1.48707
-1.49742
-0.17856
-1.33625
-1.5478
-1.25718
-1.01271
-1.54071
-0.990256
-0.698519
0.272469
1.25705
-1.52103
-1.80912
1.0135
-1.6086
0.898354
1.12931
0.376711
-0.307143
0.820746
0.800119
1.29172
0.76778
-0.796863
-1.711
0.71402
-0.606012
-1.4788
1.4016
0.662662
-0.0998998
0.783795
-1.42813
-1.57385
0.778417
1.36846
-1.39562
1.33674
-1.24843
-1.73711
1.08156
-1.42715
1.27779
-0.942352
-0.820001
-1.19683
0.106268
-1.66805
-1.5098
0.715898
0.111063
1.7699
-0.889524
0.210834
0.507822
0.441569
0.189824
0.696711
0.786333
1.28192
-0.675491
0.698241
0.151913
-0.31187
0.9931
0.439802
0.573177
1.36071
1.46045
0.318696
1.12882
1.40013
0.70653
0.300895
0.463407
-0.386545
0.585495
-0.347942
0.748244
0.645258
-0.245843
0.638856
0.30339
0.476781
0.420595
0.73902
0.766103
-0.280525
0.739676
-0.093664
0.844177
-0.0573208
0.613789
0.883149
-0.0368167
-1.23811
-1.46482
-0.0222482
-1.50704
0.00962325
0.0811853
-1.41743
-1.27533
-1.77446
0.517275
0.598056
-1.61077
-0.942652
0.720519
-1.41904
-0.552076
0.0204439
-1.54147
-0.870906
1.88441
1.63826
-0.73991
-0.870869
1.24758
0.0398686
0.780877
0.839987
0.283984
1.00774
1.05176
-1.80524
1.00838
-1.09122
0.795589
1.51767
-0.855011
1.41777
-0.790058
0.341773
-0.958688
-0.0586935
-0.0588762
-0.166873
0.422781
-1.61259
0.670237
-1.61876
0.798755
1.47119
-1.36492
-1.72477
0.056729
-0.0386086
-0.89669
1.3795
-1.26844
0.489974
-0.530077
0.740912
0.663687
-0.155866
-0.439171
0.628995
0.565238
0.131473
1.0343
-0.247968
1.41238
-0.130459
1.04629
-0.348048
-0.629491
0.781404
0.363609
-0.283174
0.722976
0.688727
-0.11555
-0.342041
1.70275
1.11841
-0.317026
1.44584
1.39271
0.224343
0.482187
-0.0426324
0.506039
0.361699
0.698226
-0.112731
0.286263
0.358995
0.452383
0.0535188
0.585337
-0.0322695
0.509051
-0.29494
0.715536
0.44408
0.313837
0.452265
0.459152
0.750513
0.825828
0.0837119
0.803171
-1.36408
0.125975
-1.38363
-1.52929
-1.35446
-0.524672
-0.892758
-1.05394
-1.0935
0.744838
-1.68749
-1.29306
0.677464
-1.22954
1.32247
-1.30202
-0.796634
0.767358
1.01354
-1.55178
0.811867
-0.0956718
1.34325
-0.0245055
0.805383
-0.301985
1.30973
1.02726
-0.543396
-1.3695
0.278281
-0.573915
1.61004
-0.192267
-1.36236
0.5723
-1.02059
-1.47431
0.515626
1.59168
-1.65037
1.16005
-1.21893
1.37213
-1.53901
-1.21986
1.64264
-0.948519
1.82256
-1.02381
-1.56958
0.204653
-1.04731
-1.51285
1.48017
-1.51878
0.583478
0.554127
1.48199
-0.992014
0.30174
0.380514
0.409372
0.472921
0.156074
0.604394
0.950075
0.0842256
0.798322
0.724079
0.688302
0.819616
0.433356
-0.51974
0.883349
0.528858
0.194117
0.168987
0.413308
1.38573
1.84248
0.86029
0.585551
0.40735
0.985357
0.510606
0.439555
0.559558
0.57882
-0.217122
0.466089
0.582589
-0.223594
0.628532
-0.176149
0.553067
0.592763
0.498414
0.757917
-0.222763
0.675028
-0.354473
0.813624
0.39604
0.908025
-0.0821964
-0.137045
0.940215
-0.907242
-0.476392
-1.32361
-0.205684
-1.59432
0.239856
-1.49623
0.442294
0.617546
-1.71104
-1.06994
-1.18016
-0.112907
0.0929279
-1.15058
-0.151444
-1.94721
1.62275
-0.855391
1.2948
-0.281256
1.51215
-0.700283
1.19912
1.04127
0.668338
0.470848
0.838878
0.494347
0.532911
1.04873
-1.59212
1.46982
-1.19154
1.03612
-1.52859
1.33632
-0.902014
0.461403
1.67776
-1.16213
0.37182
-0.490322
0.153207
0.138754
0.114052
-1.6853
0.736781
-1.75245
0.728638
1.25221
-1.04756
-1.04939
0.00208232
-1.13747
-0.375383
-0.266563
-1.10182
1.58277
-1.02865
0.59076
-0.23311
0.53485
-0.154263
0.534776
-0.218381
0.627753
-0.438761
0.594835
0.386013
-0.57511
0.659335
0.223212
-0.415976
1.10428
1.02772
-0.208101
-0.410508
0.843864
0.472841
-0.34836
0.542478
-0.570043
0.739029
-0.156734
0.869934
0.515791
1.11136
0.731124
1.26764
1.45549
0.982769
0.19427
0.316335
0.633825
0.0162394
0.543319
0.592144
-0.126055
0.244427
0.338161
0.404938
0.415996
0.00692631
0.546141
0.642287
-0.0495241
-0.131613
0.630027
0.626304
0.590862
0.580458
0.0945696
-0.439035
0.835075
0.46899
0.858019
-0.940299
-1.07879
-0.417447
-1.26875
0.786813
-1.85676
-1.19169
-0.956466
1.71919
-1.87064
-1.1604
1.27924
0.343507
0.656759
0.997986
-1.29814
0.597859
0.0360289
1.1631
-0.151611
1.19288
1.16268
1.00376
-0.0369891
0.875867
-0.249416
-0.122306
-0.155412
1.44507
-0.108747
-1.42246
0.520445
-0.961055
-1.43353
0.271392
1.51607
-1.14425
-1.5374
1.04708
-1.38419
1.44963
-1.31087
-1.29005
1.4041
-1.01567
1.69255
-0.963916
0.903043
-1.9506
-1.13538
0.989197
-1.36458
-1.16492
0.898359
-1.80405
0.702233
0.663908
1.54144
-0.950678
0.409177
0.0960894
0.473491
0.186416
0.0745421
0.520293
-0.209802
0.595815
0.935382
-0.276046
0.685323
-0.462111
0.611741
1.14376
-0.0394779
0.727281
0.741252
0.102612
0.669927
-0.197086
0.385743
0.662984
0.0760458
1.62715
-0.710433
1.44156
0.44636
0.82128
0.886524
0.568961
1.42913
0.560763
0.650065
0.550245
0.503972
0.430569
-0.0924078
0.530039
-0.125101
0.597672
-0.181676
0.496617
0.0347297
0.591575
0.434952
0.15591
0.615188
0.529521
0.490574
0.344501
-0.46543
0.934421
0.392588
0.859701
0.940603
-1.35805
-0.328146
-1.01847
-0.838292
-0.331991
0.762726
-0.344814
-1.52582
0.543092
-1.70349
1.36485
-1.02134
1.37379
-0.717034
1.59798
-0.59999
1.62378
-1.02593
1.634
1.01148
1.15589
0.422917
0.739768
0.118647
0.885112
0.994514
1.09841
-1.34782
1.28763
-1.40993
1.28965
-1.4357
1.32695
-0.913081
0.580382
1.4243
-1.15291
0.226017
-1.84854
0.704297
-0.801463
0.0654324
0.113426
-0.0316005
-1.78394
0.768271
-1.67722
0.713306
-0.26188
-0.961407
-0.372658
-1.0578
-0.30678
-0.905695
-1.0817
1.587
-0.923092
0.636321
0.431685
-0.0225079
0.527774
0.364045
0.109446
0.550461
-0.461235
0.535777
0.310491
0.384573
0.211242
0.409277
0.279141
0.858651
-0.24691
0.433323
0.819173
0.850003
-0.122722
-0.365929
0.468541
0.303998
0.465898
-0.168815
0.554558
-0.585819
0.661865
0.72939
0.897761
1.33437
0.107183
1.7078
1.29835
1.43044
-0.0354206
0.596183
0.209446
0.440619
0.0543087
0.495936
0.518639
-0.0146673
0.395149
0.437632
0.472571
0.336962
0.489755
0.00686192
0.576907
0.646484
0.00241462
0.612773
-0.103888
0.633409
-0.336885
0.681386
0.597535
0.815505
-0.900425
-0.457625
-1.34661
0.708644
-1.54694
-1.23242
1.06162
-1.40643
-0.98273
-0.99485
0.764862
0.352448
0.906751
0.072482
0.506475
1.12753
1.51796
0.825204
0.330685
0.0316685
0.708099
0.916781
0.175695
0.818819
-0.0601954
-0.12028
1.39269
-0.0657374
-1.39648
0.483398
-0.816097
-1.18471
0.0318017
-1.01698
1.243
1.63898
-0.934681
-1.66129
0.859825
1.3993
-1.33387
1.44064
-1.32722
-1.37363
1.34203
-0.908951
1.62022
-0.906918
1.25555
-1.51743
-1.4221
0.460696
-1.43046
-1.72888
0.349852
-1.81449
0.732785
0.697133
1.47116
-0.834834
0.467247
0.0665391
0.494019
0.446866
0.103595
0.199591
0.336187
0.510081
-0.22014
0.431382
0.793734
-0.384457
-0.506215
0.785355
0.603093
-0.679158
1.11248
0.140015
-0.639504
0.516782
-0.0376742
0.501323
-0.197325
0.483458
-0.0175604
0.278051
-0.0312608
0.381834
0.280031
-0.265491
1.16325
1.06888
-0.826257
0.93344
1.26808
0.439725
0.0932614
1.20509
-0.0142309
1.44467
0.259572
0.336611
0.469018
0.494928
0.502798
-0.0580394
0.453188
0.468759
-0.0311269
0.462583
0.00998777
-0.276716
0.613678
0.300192
0.542596
0.635824
0.267422
0.345352
0.660195
0.021191
0.499198
0.0983373
0.183388
0.632117
0.812617
-1.27024
-0.533995
-0.682322
-0.864613
0.567583
1.941
-0.879386
-0.665312
-0.741121
-1.64804
0.50471
-1.49956
1.80273
-1.03786
-1.24873
1.60118
-0.341983
1.36978
-1.2973
-0.195536
1.32307
0.64883
0.869129
1.0009
0.979516
0.891487
0.111699
0.805082
0.930518
1.24319
-1.30338
1.27241
-1.43688
1.37114
-0.70131
0.655058
1.29661
-1.26481
0.621993
-0.130625
-1.70171
0.767029
-0.261986
-0.841885
0.106773
-0.030602
-0.0948527
-1.71612
0.807166
-1.71775
0.810829
-1.44557
-0.0718559
-0.984875
0.510548
-1.21834
-1.46464
-0.983332
1.45528
-0.758143
0.620441
0.471252
-0.00400506
0.537791
0.346023
0.147995
0.449619
0.447501
-0.111314
0.289942
0.386646
0.0447356
0.154231
0.400898
0.883521
-0.280427
0.286224
-0.507906
0.647921
0.844377
-0.327596
0.463649
0.286133
0.364274
0.454044
-0.175993
0.422783
0.414827
-0.134796
1.25651
-0.210254
1.27914
0.999047
-0.0656066
1.25385
1.64482
1.45012
-0.10983
0.446441
0.0874181
0.3816
0.0704763
0.424451
0.455116
0.0476823
0.410719
0.343358
0.431456
-0.382208
0.392196
0.23147
0.567613
-0.170385
0.712982
0.287267
0.348557
0.632619
0.48981
0.520389
0.730455
-0.702658
-1.21632
0.339433
-1.20405
-1.69281
0.813422
0.637821
-1.37894
-1.14333
-1.16013
1.5934
0.209325
0.563316
-1.5682
1.22622
-0.198425
-0.0541092
1.39787
0.1122
1.21086
0.98133
0.223766
0.777133
0.143046
0.836469
0.107981
0.783506
0.913063
0.107272
0.823246
-0.0309722
1.33763
0.0335059
-1.47342
0.772106
-0.818358
-0.492707
1.35686
-0.734863
1.22623
1.5696
-0.802574
-1.30042
1.03843
-1.45938
0.617499
1.47972
-1.37294
1.39082
-1.42142
-1.49252
1.39767
-0.910582
1.54557
-0.734741
1.47601
-1.54787
0.876915
-1.86179
-1.40143
0.183099
0.0113764
-1.8802
0.896873
0.787427
1.46376
-0.843321
0.451111
0.472237
0.0655542
0.534641
0.273626
0.128569
0.318932
0.360923
0.418511
0.463247
0.613663
-0.459433
0.59712
-0.196221
0.375614
0.56395
0.759943
-0.473719
0.872771
-0.22485
0.286068
0.650552
-0.186903
-0.361058
0.647191
0.00321608
-0.201363
0.624146
0.418043
-0.432118
0.297322
-0.4446
1.70111
0.788792
0.834538
-0.792997
0.72739
-0.319632
1.57348
1.32518
-0.403725
1.85384
0.533859
0.452076
0.472134
0.411149
-0.000429583
-0.198288
0.541645
0.407687
0.0237696
0.48198
-0.0897833
-0.243579
0.475048
0.324035
0.338782
0.374199
0.687339
0.262009
0.37061
0.602918
-0.113109
-0.0806803
0.60107
0.649774
1.09734
-0.118974
-1.32302
-1.05499
-0.588012
-1.27059
-0.108355
0.454723
-1.59805
0.223664
-1.38379
1.54049
-1.33117
1.42187
-0.858557
1.70778
-0.481564
-1.42247
1.22405
1.32044
-1.37455
0.146061
1.25181
0.215105
0.995759
1.12438
1.06024
0.884405
0.278779
0.504727
0.517594
0.395469
0.307786
0.51546
1.30666
-1.41955
1.45305
0.645404
1.18429
-1.677
0.83474
-0.266292
-1.74285
0.940274
0.179301
-0.420956
-1.12535
0.0178749
-0.237132
-0.0218766
-1.71904
0.808456
-1.85964
1.1249
-0.670954
-1.45372
-0.408074
-1.27062
1.269
-1.25763
-0.6112
-0.822166
1.21996
-0.432532
0.376639
-0.0164402
0.467551
-0.344901
0.410455
0.272654
0.261988
0.54628
0.421775
-0.102843
0.415636
-0.0547129
0.0498276
0.413419
0.137687
-0.533095
0.336873
0.626917
-0.251303
0.655025
-0.0910749
-0.0330538
0.399052
0.402068
-0.383929
0.669996
0.117457
0.460289
0.344916
0.192028
-0.188507
0.60655
0.542071
-0.244749
0.438705
1.26241
-0.242202
1.03099
-0.216463
1.051
0.971103
-0.243713
1.16975
0.0427323
1.28245
0.343816
1.51003
0.285199
0.24866
0.0974152
0.354661
0.404016
0.0681178
0.212861
0.407257
0.383503
0.158143
0.505749
0.385265
0.586044
-0.311901
0.6861
0.190344
0.496995
0.560954
0.291018
0.487961
0.141954
0.50782
0.476979
-1.15315
0.0981629
1.02256
-1.61057
-0.815864
-1.2615
-1.37439
-0.906812
1.45626
0.0842282
0.0907047
0.849227
-1.47903
0.997463
-0.102034
-0.254978
-0.0678881
1.60233
1.46691
-0.130808
1.12657
0.993568
0.342767
0.717468
0.485016
0.399389
0.420733
0.328784
0.175943
0.82538
0.724253
1.00048
1.23648
0.21657
-1.03159
1.73893
-0.904193
1.47264
0.92673
1.56221
-1.3829
1.14125
1.39582
-1.37795
1.39004
-1.62717
-1.4533
1.43142
-1.05118
1.45549
-0.33059
-1.34027
0.669318
1.28002
-1.68809
-0.248058
-1.84541
0.587785
-1.52124
0.910045
-1.69429
0.872123
1.02295
1.38347
-1.00683
0.387576
0.12265
0.347761
0.0626941
-0.223215
0.485202
0.327768
0.0940079
0.312792
0.293048
0.377595
0.190204
-0.535724
0.673411
-0.198851
0.403721
-0.605974
0.514899
-0.737056
0.704002
-0.338004
0.7718
-0.369732
0.289482
0.0640222
-0.40295
0.520407
0.0573383
0.452888
-0.107972
0.373391
-0.181363
0.353565
0.366141
0.240409
0.128642
-0.816394
1.2551
1.30514
0.728901
0.814532
0.234606
-0.679463
0.43575
-0.333329
1.50308
0.949122
1.8469
1.52043
0.382614
-0.108227
0.356887
0.422779
-0.2691
0.481961
0.138157
0.275275
-0.2623
0.420443
0.325338
0.180411
-0.196173
0.581438
0.389871
0.246488
0.439612
0.0169017
0.480093
0.17618
0.384774
-0.404188
0.695206
0.0837726
0.591593
1.37371
-1.27555
-0.236857
0.972289
-1.78815
-0.289216
-0.893188
-0.481202
-1.37748
1.46171
-1.45583
1.54653
-0.606603
1.553
-0.555534
1.3329
-1.43494
-1.41376
1.15879
1.16859
1.60492
-0.00259644
0.406415
1.0605
1.53298
1.33634
1.11686
0.596676
0.209702
0.615678
0.56416
0.160093
0.427719
0.572757
-1.40994
1.62651
0.351876
-1.63648
-1.47871
0.427525
1.28665
-1.61724
-0.0602533
-1.1761
-0.989222
-0.698871
-1.23728
-0.93346
-0.784245
-0.606583
0.0161241
0.306956
0.0806202
0.429605
-0.344289
0.406983
0.379195
0.106008
-0.325596
0.419604
-0.0128038
-0.124232
0.41728
0.227874
0.149721
0.418078
0.321557
0.544999
-0.141278
0.554746
-0.0398467
0.0245391
0.433796
0.175267
-0.21198
0.501463
-0.444932
0.508954
0.423479
0.271525
0.271223
-0.112735
0.466299
-0.189061
0.42947
-0.377757
0.506399
0.0862005
1.1689
0.911329
0.393813
-0.163892
0.892792
0.675032
0.1395
0.909638
0.851312
-0.415562
1.86045
1.34986
0.497036
0.249409
1.27102
-0.00515092
0.387765
0.351736
0.337819
0.0849602
0.219661
0.463496
-0.166598
0.441873
0.253845
-0.288649
0.46906
0.292789
0.566051
-0.347304
0.593793
0.456514
0.187056
0.293037
0.57183
0.347901
-0.0661228
0.657716
-1.09841
-0.17714
1.29596
-1.53282
-1.3188
-0.469355
-1.38763
0.169054
1.58132
-0.11961
0.946394
-1.32991
0.77438
-0.0808626
-0.266342
-0.171128
0.394916
1.21001
1.57872
1.45541
0.297723
1.23526
0.742787
0.593549
0.431687
0.68517
0.530553
0.773862
0.0776048
0.538073
0.690646
0.505324
0.209101
0.363655
1.36017
-1.2846
1.62398
-1.19646
1.27797
1.00624
-1.06649
-0.169859
-1.28393
0.58506
0.0586808
0.826837
-1.7603
-1.58559
0.801347
1.20383
-1.81042
1.2941
0.418439
0.0853164
0.282751
-0.253418
0.359426
0.269268
0.150336
0.404476
0.41899
0.16466
0.565517
-0.24396
0.413468
-0.493084
0.453238
0.632098
-0.607559
0.684561
-0.250765
-0.440118
0.615384
-0.582978
0.370998
0.0565309
0.0158694
-0.151783
0.575262
-0.106232
-0.155611
0.426834
-0.40602
0.293285
0.277239
0.277687
0.100379
-0.885165
0.971366