/*--------------------------------*- C++ -*----------------------------------*\
| =========                 |                                                 |
| \\      /  F ield         | OpenFOAM: The Open Source CFD Toolbox           |
|  \\    /   O peration     | Version:  v2012                                 |
|   \\  /    A nd           | Website:  www.openfoam.com                      |
|    \\/     M anipulation  |                                                 |
\*---------------------------------------------------------------------------*/
FoamFile
{
    version     2.0;
    format      ascii;
    class       pointVectorField;
    location    "1";
    object      pointDisplacement;
}
// * * * * * * * * * * * * * * * * * * * * * * * * * * * * * * * * * * * * * //

dimensions      [0 1 0 0 0 0 0];


internalField   nonuniform List<vector> 
33374
(
(0 0 0)
(0 0 0)
(0 0 0)
(0 0 0)
(0 0 0)
(0 0 0)
(0 0 0)
(0 0 0)
(0 0 0)
(0 0 0)
(0 0 0)
(0 0 0)
(0 0 0)
(0 0 0)
(0 0 0)
(0 0 0)
(0 0 0)
(0 0 0)
(0 0 0)
(0 0 0)
(0 0 0)
(0 0 0)
(0 0 0)
(0 0 0)
(0 0 0)
(0 0 0)
(0 0 0)
(0 0 0)
(0 0 0)
(0 0 0)
(0 0 0)
(0 0 0)
(0 0 0)
(0 0 0)
(0 0 0)
(0 0 0)
(0 0 0)
(0 0 0)
(0 0 0)
(0 0 0)
(0 0 0)
(0 0 0)
(0 0 0)
(0 0 0)
(0 0 0)
(0 0 0)
(0 0 0)
(0 0 0)
(0 0 0)
(0 0 0)
(0 0 0)
(0 0 0)
(0 0 0)
(0 0 0)
(0 0 0)
(0 0 0)
(0 0 0)
(0 0 0)
(0 0 0)
(0 0 0)
(0 0 0)
(0 0 0)
(0 0 0)
(0 0 0)
(0 0 0)
(0 0 0)
(0 0 0)
(0 0 0)
(0 0 0)
(0 0 0)
(0 0 0)
(0 0 0)
(0 0 0)
(0 0 0)
(0 0 0)
(0 0 0)
(0 0 0)
(0 0 0)
(0 0 0)
(0 0 0)
(0 0 0)
(0 0 0)
(0 0 0)
(0 0 0)
(0 0 0)
(0 0 0)
(0 0 0)
(0 0 0)
(0 0 0)
(0 0 0)
(0 0 0)
(0 0 0)
(0 0 0)
(0 0 0)
(0 0 0)
(0 0 0)
(0 0 0)
(0 0 0)
(0 0 0)
(0 0 0)
(0 0 0)
(0 0 0)
(0 0 0)
(0 0 0)
(0 0 0)
(0 0 0)
(0 0 0)
(0 0 0)
(0 0 0)
(0 0 0)
(0 0 0)
(0 0 0)
(0 0 0)
(0 0 0)
(0 0 0)
(0 0 0)
(0 0 0)
(0 0 0)
(0 0 0)
(0 0 0)
(0 0 0)
(0 0 0)
(0 0 0)
(0 0 0)
(0 0 0)
(0 0 0)
(0 0 0)
(0 0 0)
(0 0 0)
(0 0 0)
(0 0 0)
(0 0 0)
(0 0 0)
(0 0 0)
(0 0 0)
(0 0 0)
(0 0 0)
(0 0 0)
(0 0 0)
(0 0 0)
(0 0 0)
(0 0 0)
(0 0 0)
(0 0 0)
(0 0 0)
(0 0 0)
(0 0 0)
(0 0 0)
(0 0 0)
(0 0 0)
(0 0 0)
(0 0 0)
(0 0 0)
(0 0 0)
(0 0 0)
(0 0 0)
(0 0 0)
(0 0 0)
(0 0 0)
(0 0 0)
(0 0 0)
(0 0 0)
(0 0 0)
(0 0 0)
(0 0 0)
(0 0 0)
(0 0 0)
(0 0 0)
(0 0 0)
(0 0 0)
(0 0 0)
(0 0 0)
(0 0 0)
(0 0 0)
(0 0 0)
(0 0 0)
(0 0 0)
(0 0 0)
(0 0 0)
(0 0 0)
(0 0 0)
(0 0 0)
(0 0 0)
(0 0 0)
(0 0 0)
(0 0 0)
(0 0 0)
(0 0 0)
(0 0 0)
(0 0 0)
(0 0 0)
(0 0 0)
(0 0 0)
(0 0 0)
(0 0 0)
(0 0 0)
(0 0 0)
(0 0 0)
(0 0 0)
(0 0 0)
(4.88517e-10 1.56288e-05 0)
(-1.22566e-07 1.56066e-05 0)
(-2.51144e-07 1.55835e-05 0)
(-3.8273e-07 1.55504e-05 0)
(-5.11681e-07 1.549e-05 0)
(-6.37972e-07 1.54114e-05 0)
(-7.61624e-07 1.53173e-05 0)
(-8.80875e-07 1.52074e-05 0)
(-9.9665e-07 1.50839e-05 0)
(-1.10888e-06 1.49476e-05 0)
(-1.21751e-06 1.47988e-05 0)
(-1.32309e-06 1.46383e-05 0)
(-1.42568e-06 1.44663e-05 0)
(-1.52566e-06 1.4283e-05 0)
(-1.62319e-06 1.40886e-05 0)
(-1.7185e-06 1.38831e-05 0)
(-1.81161e-06 1.36663e-05 0)
(-1.90283e-06 1.34384e-05 0)
(-1.99212e-06 1.31989e-05 0)
(-2.07965e-06 1.2948e-05 0)
(-2.16543e-06 1.26853e-05 0)
(-2.24951e-06 1.24106e-05 0)
(-2.33196e-06 1.21238e-05 0)
(-2.41272e-06 1.18246e-05 0)
(-2.49183e-06 1.15127e-05 0)
(-2.56926e-06 1.1188e-05 0)
(-2.64494e-06 1.08501e-05 0)
(-2.7189e-06 1.04989e-05 0)
(-2.79102e-06 1.01342e-05 0)
(-2.86127e-06 9.75558e-06 0)
(-2.92956e-06 9.36297e-06 0)
(-2.99584e-06 8.95613e-06 0)
(-3.06e-06 8.53484e-06 0)
(-3.12197e-06 8.09892e-06 0)
(-3.18165e-06 7.64826e-06 0)
(-3.23893e-06 7.18271e-06 0)
(-3.29372e-06 6.70216e-06 0)
(-3.34591e-06 6.20648e-06 0)
(-3.3954e-06 5.6956e-06 0)
(-3.44208e-06 5.16954e-06 0)
(-3.48586e-06 4.62829e-06 0)
(-3.52662e-06 4.07184e-06 0)
(-3.56427e-06 3.50033e-06 0)
(-3.59871e-06 2.91375e-06 0)
(-3.62986e-06 2.31236e-06 0)
(-3.65762e-06 1.69627e-06 0)
(-3.68194e-06 1.06575e-06 0)
(-3.70272e-06 4.20967e-07 0)
(-3.71992e-06 -2.37629e-07 0)
(-3.73348e-06 -9.09728e-07 0)
(-3.74338e-06 -1.59495e-06 0)
(-3.74956e-06 -2.29287e-06 0)
(-3.75203e-06 -3.00298e-06 0)
(-3.75077e-06 -3.72472e-06 0)
(-3.7458e-06 -4.45752e-06 0)
(-3.73713e-06 -5.20082e-06 0)
(-3.7248e-06 -5.95394e-06 0)
(-3.70885e-06 -6.71613e-06 0)
(-3.68934e-06 -7.48669e-06 0)
(-3.66635e-06 -8.26481e-06 0)
(-3.63997e-06 -9.04982e-06 0)
(-3.61027e-06 -9.84076e-06 0)
(-3.57738e-06 -1.06368e-05 0)
(-3.5414e-06 -1.14372e-05 0)
(-3.50247e-06 -1.22409e-05 0)
(-3.46072e-06 -1.3047e-05 0)
(-3.41628e-06 -1.38547e-05 0)
(-3.36931e-06 -1.4663e-05 0)
(-3.31995e-06 -1.54709e-05 0)
(-3.26838e-06 -1.62777e-05 0)
(-3.21475e-06 -1.70823e-05 0)
(-3.15921e-06 -1.78838e-05 0)
(-3.10194e-06 -1.86813e-05 0)
(-3.04311e-06 -1.9474e-05 0)
(-2.98287e-06 -2.02611e-05 0)
(-2.92139e-06 -2.10416e-05 0)
(-2.85884e-06 -2.18148e-05 0)
(-2.79537e-06 -2.25799e-05 0)
(-2.73113e-06 -2.33362e-05 0)
(-2.66627e-06 -2.4083e-05 0)
(-2.60095e-06 -2.48196e-05 0)
(-2.5353e-06 -2.55454e-05 0)
(-2.46947e-06 -2.62598e-05 0)
(-2.40356e-06 -2.69623e-05 0)
(-2.33772e-06 -2.76525e-05 0)
(-2.27206e-06 -2.83298e-05 0)
(-2.2067e-06 -2.89939e-05 0)
(-2.14173e-06 -2.96443e-05 0)
(-2.07725e-06 -3.02809e-05 0)
(-2.01337e-06 -3.09033e-05 0)
(-1.95015e-06 -3.15113e-05 0)
(-1.88769e-06 -3.21048e-05 0)
(-1.82605e-06 -3.26836e-05 0)
(-1.7653e-06 -3.32476e-05 0)
(-1.7055e-06 -3.37967e-05 0)
(-1.64671e-06 -3.43309e-05 0)
(-1.58897e-06 -3.48503e-05 0)
(-1.53232e-06 -3.53548e-05 0)
(-1.47682e-06 -3.58446e-05 0)
(-1.42249e-06 -3.63197e-05 0)
(-1.36935e-06 -3.67803e-05 0)
(-1.31743e-06 -3.72265e-05 0)
(-1.26675e-06 -3.76585e-05 0)
(-1.21732e-06 -3.80765e-05 0)
(-1.16916e-06 -3.84807e-05 0)
(-1.12227e-06 -3.88713e-05 0)
(-1.07665e-06 -3.92487e-05 0)
(-1.03231e-06 -3.9613e-05 0)
(-9.89237e-07 -3.99645e-05 0)
(-9.47425e-07 -4.03034e-05 0)
(-9.06876e-07 -4.06302e-05 0)
(-8.6757e-07 -4.09451e-05 0)
(-8.29501e-07 -4.12483e-05 0)
(-7.92645e-07 -4.15402e-05 0)
(-7.56989e-07 -4.18211e-05 0)
(-7.22514e-07 -4.20912e-05 0)
(-6.89202e-07 -4.23511e-05 0)
(-6.57027e-07 -4.26007e-05 0)
(-6.25972e-07 -4.28407e-05 0)
(-5.96011e-07 -4.30711e-05 0)
(-5.67118e-07 -4.32924e-05 0)
(-5.39272e-07 -4.35048e-05 0)
(-5.12444e-07 -4.37086e-05 0)
(-4.86609e-07 -4.39041e-05 0)
(-4.61741e-07 -4.40916e-05 0)
(-4.37815e-07 -4.42714e-05 0)
(-4.14802e-07 -4.44437e-05 0)
(-3.92676e-07 -4.46089e-05 0)
(-3.71413e-07 -4.47671e-05 0)
(-3.50982e-07 -4.49187e-05 0)
(-3.31362e-07 -4.50639e-05 0)
(-3.12524e-07 -4.52028e-05 0)
(-2.94442e-07 -4.53359e-05 0)
(-2.77092e-07 -4.54632e-05 0)
(-2.60449e-07 -4.5585e-05 0)
(-2.44489e-07 -4.57016e-05 0)
(-2.29186e-07 -4.58132e-05 0)
(-2.14519e-07 -4.59199e-05 0)
(-2.00463e-07 -4.60219e-05 0)
(-1.86998e-07 -4.61194e-05 0)
(-1.74099e-07 -4.62127e-05 0)
(-1.61747e-07 -4.63018e-05 0)
(-1.49922e-07 -4.63871e-05 0)
(-1.38601e-07 -4.64685e-05 0)
(-1.27765e-07 -4.65463e-05 0)
(-1.17398e-07 -4.66207e-05 0)
(-1.07478e-07 -4.66917e-05 0)
(-9.79892e-08 -4.67596e-05 0)
(-8.89134e-08 -4.68244e-05 0)
(-8.02345e-08 -4.68863e-05 0)
(-4.8977e-08 -4.68863e-05 0)
(-1.73448e-08 -4.68863e-05 0)
(1.44137e-08 -4.68863e-05 0)
(4.60459e-08 -4.68863e-05 0)
(7.73034e-08 -4.68863e-05 0)
(8.59862e-08 -4.68244e-05 0)
(9.50661e-08 -4.67596e-05 0)
(1.04559e-07 -4.66917e-05 0)
(1.14483e-07 -4.66207e-05 0)
(1.24856e-07 -4.65463e-05 0)
(1.35696e-07 -4.64685e-05 0)
(1.47022e-07 -4.63871e-05 0)
(1.58853e-07 -4.63019e-05 0)
(1.7121e-07 -4.62127e-05 0)
(1.84114e-07 -4.61194e-05 0)
(1.97586e-07 -4.60219e-05 0)
(2.11648e-07 -4.59199e-05 0)
(2.26322e-07 -4.58132e-05 0)
(2.41632e-07 -4.57016e-05 0)
(2.57599e-07 -4.55851e-05 0)
(2.7425e-07 -4.54632e-05 0)
(2.91608e-07 -4.53359e-05 0)
(3.09698e-07 -4.52028e-05 0)
(3.28545e-07 -4.50639e-05 0)
(3.48174e-07 -4.49187e-05 0)
(3.68614e-07 -4.47671e-05 0)
(3.89887e-07 -4.46089e-05 0)
(4.12024e-07 -4.44437e-05 0)
(4.35047e-07 -4.42714e-05 0)
(4.58985e-07 -4.40916e-05 0)
(4.83864e-07 -4.39041e-05 0)
(5.09711e-07 -4.37086e-05 0)
(5.36552e-07 -4.35048e-05 0)
(5.64412e-07 -4.32924e-05 0)
(5.93319e-07 -4.30711e-05 0)
(6.23294e-07 -4.28407e-05 0)
(6.54364e-07 -4.26008e-05 0)
(6.86554e-07 -4.23511e-05 0)
(7.19883e-07 -4.20913e-05 0)
(7.54375e-07 -4.18211e-05 0)
(7.90049e-07 -4.15402e-05 0)
(8.26923e-07 -4.12483e-05 0)
(8.6501e-07 -4.09451e-05 0)
(9.04336e-07 -4.06303e-05 0)
(9.44906e-07 -4.03035e-05 0)
(9.86739e-07 -3.99645e-05 0)
(1.02983e-06 -3.9613e-05 0)
(1.07419e-06 -3.92487e-05 0)
(1.11984e-06 -3.88714e-05 0)
(1.16675e-06 -3.84807e-05 0)
(1.21494e-06 -3.80766e-05 0)
(1.2644e-06 -3.76586e-05 0)
(1.3151e-06 -3.72266e-05 0)
(1.36705e-06 -3.67803e-05 0)
(1.42022e-06 -3.63198e-05 0)
(1.47458e-06 -3.58447e-05 0)
(1.53011e-06 -3.53549e-05 0)
(1.58679e-06 -3.48504e-05 0)
(1.64456e-06 -3.4331e-05 0)
(1.70339e-06 -3.37968e-05 0)
(1.76322e-06 -3.32477e-05 0)
(1.82401e-06 -3.26837e-05 0)
(1.88568e-06 -3.21049e-05 0)
(1.94818e-06 -3.15115e-05 0)
(2.01144e-06 -3.09034e-05 0)
(2.07536e-06 -3.02811e-05 0)
(2.13988e-06 -2.96445e-05 0)
(2.20489e-06 -2.8994e-05 0)
(2.27029e-06 -2.83299e-05 0)
(2.33599e-06 -2.76526e-05 0)
(2.40187e-06 -2.69624e-05 0)
(2.46782e-06 -2.626e-05 0)
(2.53371e-06 -2.55455e-05 0)
(2.5994e-06 -2.48198e-05 0)
(2.66476e-06 -2.40831e-05 0)
(2.72967e-06 -2.33364e-05 0)
(2.79396e-06 -2.25801e-05 0)
(2.85748e-06 -2.1815e-05 0)
(2.92008e-06 -2.10418e-05 0)
(2.9816e-06 -2.02613e-05 0)
(3.04189e-06 -1.94742e-05 0)
(3.10078e-06 -1.86815e-05 0)
(3.1581e-06 -1.7884e-05 0)
(3.21368e-06 -1.70825e-05 0)
(3.26736e-06 -1.62779e-05 0)
(3.31899e-06 -1.54711e-05 0)
(3.36839e-06 -1.46632e-05 0)
(3.41541e-06 -1.38549e-05 0)
(3.4599e-06 -1.30473e-05 0)
(3.50171e-06 -1.22411e-05 0)
(3.54069e-06 -1.14374e-05 0)
(3.57672e-06 -1.06371e-05 0)
(3.60966e-06 -9.84098e-06 0)
(3.6394e-06 -9.05004e-06 0)
(3.66584e-06 -8.26504e-06 0)
(3.68887e-06 -7.48692e-06 0)
(3.70843e-06 -6.71636e-06 0)
(3.72442e-06 -5.95418e-06 0)
(3.7368e-06 -5.20106e-06 0)
(3.74552e-06 -4.45775e-06 0)
(3.75054e-06 -3.72495e-06 0)
(3.75184e-06 -3.00322e-06 0)
(3.74942e-06 -2.29311e-06 0)
(3.74328e-06 -1.59519e-06 0)
(3.73343e-06 -9.09961e-07 0)
(3.71991e-06 -2.37861e-07 0)
(3.70274e-06 4.20736e-07 0)
(3.682e-06 1.06552e-06 0)
(3.65773e-06 1.69604e-06 0)
(3.63e-06 2.31213e-06 0)
(3.59889e-06 2.91353e-06 0)
(3.56449e-06 3.50011e-06 0)
(3.52687e-06 4.07162e-06 0)
(3.48615e-06 4.62807e-06 0)
(3.4424e-06 5.16933e-06 0)
(3.39576e-06 5.69539e-06 0)
(3.34629e-06 6.20627e-06 0)
(3.29413e-06 6.70195e-06 0)
(3.23938e-06 7.1825e-06 0)
(3.18212e-06 7.64806e-06 0)
(3.12247e-06 8.09873e-06 0)
(3.06054e-06 8.53465e-06 0)
(2.9964e-06 8.95594e-06 0)
(2.93015e-06 9.36279e-06 0)
(2.86188e-06 9.7554e-06 0)
(2.79165e-06 1.0134e-05 0)
(2.71955e-06 1.04988e-05 0)
(2.64562e-06 1.085e-05 0)
(2.56996e-06 1.11878e-05 0)
(2.49255e-06 1.15125e-05 0)
(2.41346e-06 1.18244e-05 0)
(2.33272e-06 1.21236e-05 0)
(2.25029e-06 1.24105e-05 0)
(2.16622e-06 1.26851e-05 0)
(2.08046e-06 1.29478e-05 0)
(1.99295e-06 1.31988e-05 0)
(1.90367e-06 1.34382e-05 0)
(1.81246e-06 1.36662e-05 0)
(1.71937e-06 1.3883e-05 0)
(1.62407e-06 1.40885e-05 0)
(1.52655e-06 1.42829e-05 0)
(1.42658e-06 1.44662e-05 0)
(1.32401e-06 1.46382e-05 0)
(1.21843e-06 1.47987e-05 0)
(1.10981e-06 1.49475e-05 0)
(9.97593e-07 1.50839e-05 0)
(8.81825e-07 1.52074e-05 0)
(7.62581e-07 1.53173e-05 0)
(6.38936e-07 1.54113e-05 0)
(5.12649e-07 1.54899e-05 0)
(3.83702e-07 1.55504e-05 0)
(2.52118e-07 1.55835e-05 0)
(1.23542e-07 1.56066e-05 0)
(0 0 0)
(0 0 0)
(0 0 0)
(0 0 0)
(0 0 0)
(0 0 0)
(0 0 0)
(0 0 0)
(0 0 0)
(0 0 0)
(0 0 0)
(0 0 0)
(0 0 0)
(0 0 0)
(0 0 0)
(0 0 0)
(0 0 0)
(0 0 0)
(0 0 0)
(0 0 0)
(0 0 0)
(0 0 0)
(0 0 0)
(0 0 0)
(0 0 0)
(0 0 0)
(0 0 0)
(0 0 0)
(0 0 0)
(0 0 0)
(0 0 0)
(0 0 0)
(0 0 0)
(0 0 0)
(0 0 0)
(0 0 0)
(0 0 0)
(0 0 0)
(0 0 0)
(0 0 0)
(0 0 0)
(0 0 0)
(0 0 0)
(0 0 0)
(0 0 0)
(0 0 0)
(0 0 0)
(0 0 0)
(0 0 0)
(0 0 0)
(0 0 0)
(0 0 0)
(0 0 0)
(0 0 0)
(0 0 0)
(0 0 0)
(0 0 0)
(0 0 0)
(0 0 0)
(0 0 0)
(0 0 0)
(0 0 0)
(0 0 0)
(0 0 0)
(0 0 0)
(0 0 0)
(0 0 0)
(0 0 0)
(0 0 0)
(0 0 0)
(0 0 0)
(0 0 0)
(-1.77961e-38 1.07607e-39 0)
(-1.58958e-38 8.58563e-40 0)
(0 0 0)
(0 0 0)
(0 0 0)
(0 0 0)
(0 0 0)
(0 0 0)
(0 0 0)
(0 0 0)
(0 0 0)
(0 0 0)
(0 0 0)
(0 0 0)
(0 0 0)
(0 0 0)
(0 0 0)
(0 0 0)
(1.48495e-32 -2.10738e-32 0)
(0 0 0)
(6.31012e-33 -8.9154e-33 0)
(0 0 0)
(0 0 0)
(0 0 0)
(0 0 0)
(0 0 0)
(0 0 0)
(0 0 0)
(0 0 0)
(0 0 0)
(0 0 0)
(0 0 0)
(0 0 0)
(0 0 0)
(0 0 0)
(0 0 0)
(0 0 0)
(0 0 0)
(0 0 0)
(0 0 0)
(0 0 0)
(0 0 0)
(0 0 0)
(0 0 0)
(0 0 0)
(6.09109e-32 -8.60503e-32 0)
(4.69055e-31 -6.62783e-31 0)
(1.30994e-31 -1.84896e-31 0)
(0 0 0)
(0 0 0)
(0 0 0)
(0 0 0)
(0 0 0)
(0 0 0)
(0 0 0)
(0 0 0)
(0 0 0)
(0 0 0)
(0 0 0)
(0 0 0)
(0 0 0)
(0 0 0)
(0 0 0)
(0 0 0)
(0 0 0)
(0 0 0)
(0 0 0)
(0 0 0)
(0 0 0)
(0 0 0)
(0 0 0)
(0 0 0)
(2.69581e-31 -3.83053e-31 0)
(7.00101e-32 -9.91821e-32 0)
(1.92764e-31 -2.72684e-31 0)
(5.96456e-31 -8.44768e-31 0)
(9.2525e-31 -1.30591e-30 0)
(8.51066e-32 -1.19722e-31 0)
(-3.71577e-37 2.00696e-38 0)
(0 0 0)
(0 0 0)
(0 0 0)
(0 0 0)
(0 0 0)
(0 0 0)
(0 0 0)
(0 0 0)
(0 0 0)
(0 0 0)
(0 0 0)
(0 0 0)
(0 0 0)
(0 0 0)
(0 0 0)
(0 0 0)
(0 0 0)
(0 0 0)
(0 0 0)
(1.46639e-30 -2.09009e-30 0)
(2.56908e-30 -3.63809e-30 0)
(-2.64933e-35 1.68781e-36 0)
(-1.04796e-35 7.44404e-37 0)
(-2.62348e-35 2.00233e-36 0)
(5.0756e-31 -7.13954e-31 0)
(0 0 0)
(0 0 0)
(0 0 0)
(0 0 0)
(0 0 0)
(0 0 0)
(0 0 0)
(0 0 0)
(0 0 0)
(0 0 0)
(0 0 0)
(0 0 0)
(0 0 0)
(0 0 0)
(0 0 0)
(0 0 0)
(0 0 0)
(0 0 0)
(0 0 0)
(0 0 0)
(0 0 0)
(0 0 0)
(0 0 0)
(0 0 0)
(0 0 0)
(0 0 0)
(-1.18768e-34 8.40119e-36 0)
(-9.84848e-35 5.90842e-36 0)
(3.03506e-30 -4.26862e-30 0)
(2.44224e-29 -3.44949e-29 0)
(2.70233e-29 -3.8015e-29 0)
(0 0 0)
(0 0 0)
(-1.32737e-35 7.16936e-37 0)
(0 0 0)
(0 0 0)
(0 0 0)
(0 0 0)
(0 0 0)
(0 0 0)
(0 0 0)
(0 0 0)
(0 0 0)
(0 0 0)
(0 0 0)
(0 0 0)
(0 0 0)
(0 0 0)
(0 0 0)
(0 0 0)
(0 0 0)
(0 0 0)
(0 0 0)
(-1.29343e-35 1.77122e-34 0)
(-2.75057e-37 1.04409e-33 0)
(-5.34864e-35 4.84595e-36 0)
(0 0 0)
(-7.83938e-35 4.23419e-36 0)
(0 0 0)
(0 0 0)
(0 0 0)
(0 0 0)
(0 0 0)
(0 0 0)
(0 0 0)
(0 0 0)
(0 0 0)
(0 0 0)
(0 0 0)
(0 0 0)
(0 0 0)
(0 0 0)
(0 0 0)
(0 0 0)
(0 0 0)
(0 0 0)
(0 0 0)
(5.07968e-30 -7.33035e-30 0)
(3.91031e-29 -5.58593e-29 0)
(4.90364e-29 -6.96751e-29 0)
(1.58665e-29 -2.2605e-29 0)
(6.8484e-29 -9.59129e-29 0)
(4.38019e-34 7.428e-33 0)
(-4.93755e-34 3.15927e-35 0)
(-3.08177e-34 2.2787e-35 0)
(-1.07833e-33 7.90016e-35 0)
(1.43514e-28 -2.02946e-28 0)
(2.14481e-33 3.31984e-32 0)
(-2.42524e-33 1.36283e-34 0)
(0 0 0)
(0 0 0)
(0 0 0)
(0 0 0)
(0 0 0)
(0 0 0)
(0 0 0)
(0 0 0)
(0 0 0)
(0 0 0)
(0 0 0)
(0 0 0)
(0 0 0)
(0 0 0)
(0 0 0)
(0 0 0)
(0 0 0)
(0 0 0)
(0 0 0)
(0 0 0)
(5.56814e-30 -7.91581e-30 0)
(-1.35267e-34 1.3953e-35 0)
(1.32076e-28 -1.88512e-28 0)
(6.05764e-28 -9.42802e-28 0)
(5.02937e-28 -7.16775e-28 0)
(1.05431e-28 -1.46397e-28 0)
(4.45791e-28 -6.24289e-28 0)
(-3.54484e-32 -6.46219e-34 0)
(0 0 0)
(-8.70795e-33 -1.29397e-35 0)
(0 0 0)
(0 0 0)
(0 0 0)
(0 0 0)
(0 0 0)
(0 0 0)
(0 0 0)
(0 0 0)
(0 0 0)
(-1.40923e-33 2.84517e-35 0)
(0 0 0)
(0 0 0)
(0 0 0)
(0 0 0)
(0 0 0)
(0 0 0)
(0 0 0)
(0 0 0)
(0 0 0)
(0 0 0)
(0 0 0)
(0 0 0)
(0 0 0)
(0 0 0)
(0 0 0)
(1.90423e-29 -2.83317e-29 0)
(1.14264e-28 -1.76442e-28 0)
(-3.90656e-32 2.69154e-33 0)
(-9.03594e-33 8.45663e-34 0)
(-1.33982e-32 2.15067e-33 0)
(1.07214e-32 1.5317e-31 0)
(5.30638e-33 1.23425e-31 0)
(1.63937e-33 3.77969e-32 0)
(-1.03398e-32 6.85507e-34 0)
(-7.82007e-33 2.32039e-34 0)
(0 0 0)
(0 0 0)
(0 0 0)
(0 0 0)
(0 0 0)
(0 0 0)
(0 0 0)
(0 0 0)
(0 0 0)
(0 0 0)
(0 0 0)
(0 0 0)
(0 0 0)
(0 0 0)
(0 0 0)
(0 0 0)
(0 0 0)
(0 0 0)
(0 0 0)
(0 0 0)
(0 0 0)
(0 0 0)
(0 0 0)
(1.29595e-34 6.10624e-33 0)
(-1.92707e-33 2.20088e-34 0)
(-2.46357e-33 6.4707e-34 0)
(2.69983e-32 5.02507e-31 0)
(9.90771e-27 -1.6072e-26 0)
(1.04504e-26 -1.5938e-26 0)
(2.71668e-27 -4.20303e-27 0)
(1.91015e-27 -2.71371e-27 0)
(5.99303e-27 -8.29102e-27 0)
(5.4199e-28 -7.28052e-28 0)
(-8.5539e-31 -3.07728e-32 0)
(-1.83935e-31 1.68626e-33 0)
(-4.21384e-31 3.82456e-32 0)
(0 0 0)
(0 0 0)
(0 0 0)
(0 0 0)
(0 0 0)
(0 0 0)
(0 0 0)
(0 0 0)
(0 0 0)
(0 0 0)
(0 0 0)
(0 0 0)
(0 0 0)
(2.04101e-27 -3.32816e-27 0)
(5.56235e-33 1.80008e-31 0)
(1.32615e-33 4.53058e-32 0)
(-1.05544e-33 1.80541e-33 0)
(4.94898e-31 1.20079e-29 0)
(1.21923e-31 3.73649e-30 0)
(5.82423e-31 8.44704e-30 0)
(3.82906e-26 -6.14433e-26 0)
(2.04021e-26 -3.44107e-26 0)
(4.4471e-26 -6.20281e-26 0)
(1.14922e-26 -1.22397e-26 0)
(2.09983e-27 -2.23499e-27 0)
(-1.52172e-30 -1.78534e-31 0)
(0 0 0)
(-7.48566e-32 9.9721e-33 0)
(0 0 0)
(0 0 0)
(0 0 0)
(0 0 0)
(0 0 0)
(0 0 0)
(0 0 0)
(0 0 0)
(0 0 0)
(0 0 0)
(0 0 0)
(0 0 0)
(0 0 0)
(0 0 0)
(0 0 0)
(0 0 0)
(0 0 0)
(0 0 0)
(0 0 0)
(0 0 0)
(0 0 0)
(-6.69045e-33 3.66646e-33 0)
(1.72851e-31 1.92582e-30 0)
(1.36992e-31 2.27924e-30 0)
(4.0513e-28 -4.30676e-28 0)
(4.49447e-32 5.33343e-31 0)
(3.89649e-27 -6.55078e-27 0)
(3.21462e-26 -4.81737e-26 0)
(5.76405e-26 -5.62311e-26 0)
(1.59832e-29 1.43156e-28 0)
(3.36118e-30 3.19514e-29 0)
(-3.95333e-29 -8.59075e-30 0)
(-6.6589e-30 -1.7677e-30 0)
(-1.02027e-29 -4.27496e-31 0)
(-7.64969e-32 2.65931e-32 0)
(-4.29049e-31 1.07537e-31 0)
(0 0 0)
(0 0 0)
(0 0 0)
(0 0 0)
(0 0 0)
(0 0 0)
(0 0 0)
(0 0 0)
(0 0 0)
(0 0 0)
(0 0 0)
(0 0 0)
(0 0 0)
(0 0 0)
(0 0 0)
(0 0 0)
(0 0 0)
(0 0 0)
(0 0 0)
(0 0 0)
(0 0 0)
(0 0 0)
(0 0 0)
(-1.18441e-33 7.52799e-33 0)
(-1.62578e-32 8.72396e-33 0)
(8.22495e-31 2.90863e-29 0)
(5.47055e-31 2.61613e-29 0)
(2.80341e-31 1.10763e-29 0)
(2.63146e-30 3.36339e-29 0)
(1.92056e-30 3.80155e-29 0)
(1.01172e-25 -1.69874e-25 0)
(1.10079e-25 -1.70615e-25 0)
(3.37364e-25 -5.47696e-25 0)
(2.55698e-25 -4.59115e-25 0)
(2.05385e-24 -2.84104e-24 0)
(1.99946e-24 -2.02572e-24 0)
(3.7595e-25 -3.5759e-25 0)
(-2.44844e-30 9.24172e-31 0)
(-2.14328e-30 1.05503e-31 0)
(0 0 0)
(0 0 0)
(0 0 0)
(0 0 0)
(0 0 0)
(0 0 0)
(0 0 0)
(0 0 0)
(-2.08493e-29 -9.117e-30 0)
(0 0 0)
(0 0 0)
(0 0 0)
(0 0 0)
(0 0 0)
(0 0 0)
(0 0 0)
(0 0 0)
(0 0 0)
(0 0 0)
(0 0 0)
(0 0 0)
(0 0 0)
(0 0 0)
(0 0 0)
(0 0 0)
(0 0 0)
(0 0 0)
(-2.78511e-33 4.07667e-32 0)
(-5.9777e-33 8.06643e-32 0)
(-1.83964e-33 2.10869e-32 0)
(8.91258e-30 2.56532e-28 0)
(3.5852e-29 1.09292e-27 0)
(1.76295e-29 6.54691e-28 0)
(3.94498e-28 3.18071e-27 0)
(1.21089e-27 4.49242e-27 0)
(2.22476e-27 9.50345e-27 0)
(4.52625e-25 -5.99269e-25 0)
(1.06408e-24 -1.65666e-24 0)
(-1.63374e-31 3.83208e-31 0)
(-1.96061e-30 3.52601e-30 0)
(-5.07186e-28 -1.30841e-28 0)
(-1.14755e-28 4.39222e-29 0)
(-4.72043e-28 3.05002e-28 0)
(-3.59208e-33 1.62638e-32 0)
(-1.19924e-32 8.69745e-32 0)
(-1.14155e-32 4.28099e-32 0)
(0 0 0)
(0 0 0)
(0 0 0)
(0 0 0)
(-1.37759e-28 -5.69656e-29 0)
(-4.58841e-29 -2.66827e-29 0)
(0 0 0)
(0 0 0)
(0 0 0)
(0 0 0)
(0 0 0)
(0 0 0)
(0 0 0)
(0 0 0)
(0 0 0)
(0 0 0)
(0 0 0)
(0 0 0)
(-3.19676e-32 3.76762e-31 0)
(-1.98053e-32 2.88613e-31 0)
(-7.76706e-32 1.22114e-30 0)
(2.2844e-29 5.82509e-28 0)
(2.26419e-28 2.7908e-27 0)
(8.28093e-29 2.07827e-27 0)
(7.08406e-26 8.83948e-26 0)
(7.07178e-27 2.2207e-26 0)
(3.89429e-24 -6.2933e-24 0)
(2.5383e-24 -4.51801e-24 0)
(8.02601e-25 -1.39805e-24 0)
(7.43488e-25 8.89703e-25 0)
(1.22474e-23 -1.48534e-23 0)
(5.48712e-23 -6.84545e-23 0)
(-3.74611e-32 1.01187e-31 0)
(-2.19883e-29 7.05286e-30 0)
(-9.21617e-30 1.62234e-29 0)
(-2.92277e-31 2.07944e-30 0)
(-8.41691e-31 6.60164e-30 0)
(-9.8912e-31 6.34753e-30 0)
(0 0 0)
(0 0 0)
(0 0 0)
(0 0 0)
(0 0 0)
(0 0 0)
(-1.62668e-27 -2.76905e-28 0)
(-1.81997e-27 -1.00269e-27 0)
(-4.63426e-29 -3.29496e-29 0)
(0 0 0)
(0 0 0)
(0 0 0)
(0 0 0)
(0 0 0)
(0 0 0)
(0 0 0)
(0 0 0)
(0 0 0)
(0 0 0)
(0 0 0)
(0 0 0)
(0 0 0)
(0 0 0)
(0 0 0)
(0 0 0)
(3.86935e-29 4.43147e-28 0)
(8.07523e-30 1.34032e-28 0)
(1.22782e-29 1.43667e-28 0)
(9.97179e-27 1.27923e-26 0)
(8.1532e-29 7.22147e-28 0)
(3.1942e-27 3.22495e-26 0)
(1.14507e-27 1.21561e-26 0)
(6.9877e-28 7.13185e-27 0)
(2.4346e-26 7.07988e-26 0)
(1.15389e-23 -2.09559e-23 0)
(2.62642e-23 -5.37614e-23 0)
(3.9459e-23 -7.17452e-23 0)
(-6.11388e-30 1.4962e-29 0)
(-1.59831e-29 3.08967e-29 0)
(-3.38439e-30 7.21994e-30 0)
(-1.08871e-28 -8.61287e-30 0)
(-4.55502e-31 4.09682e-30 0)
(-1.74486e-30 1.64298e-29 0)
(0 0 0)
(0 0 0)
(0 0 0)
(0 0 0)
(0 0 0)
(0 0 0)
(0 0 0)
(0 0 0)
(0 0 0)
(-3.25525e-28 -2.31449e-28 0)
(-3.24463e-28 -1.87836e-28 0)
(0 0 0)
(0 0 0)
(0 0 0)
(0 0 0)
(0 0 0)
(0 0 0)
(0 0 0)
(0 0 0)
(0 0 0)
(-5.72106e-29 1.16554e-27 0)
(-2.3331e-29 1.34927e-27 0)
(-7.38224e-29 3.45782e-27 0)
(6.88275e-29 2.90187e-27 0)
(1.85344e-29 1.09637e-27 0)
(1.58387e-25 3.41745e-24 0)
(5.25649e-26 9.81155e-25 0)
(1.62625e-25 2.22869e-24 0)
(1.58552e-27 1.09847e-26 0)
(1.82745e-27 1.8196e-26 0)
(3.82368e-24 4.56907e-24 0)
(4.79458e-26 1.49247e-25 0)
(4.81742e-24 -9.4606e-24 0)
(3.40758e-22 -5.71833e-22 0)
(6.70541e-23 -1.08174e-22 0)
(-3.95603e-29 2.26848e-28 0)
(-1.16018e-28 6.33714e-28 0)
(-1.15623e-28 3.3958e-28 0)
(-6.09913e-29 1.02813e-28 0)
(-1.69795e-28 1.8838e-27 0)
(-4.21577e-29 4.68215e-28 0)
(-7.36972e-29 8.21696e-28 0)
(0 0 0)
(0 0 0)
(0 0 0)
(0 0 0)
(0 0 0)
(0 0 0)
(0 0 0)
(0 0 0)
(-1.2769e-27 -1.07393e-27 0)
(-6.19047e-27 -6.11219e-27 0)
(0 0 0)
(0 0 0)
(0 0 0)
(0 0 0)
(0 0 0)
(0 0 0)
(0 0 0)
(5.40498e-27 1.49953e-24 0)
(5.96628e-28 4.13198e-25 0)
(3.65532e-27 5.02054e-25 0)
(6.87915e-28 9.05917e-27 0)
(3.25177e-27 3.4587e-26 0)
(1.89504e-25 7.25856e-25 0)
(2.79523e-26 1.50293e-25 0)
(4.05513e-26 1.62472e-25 0)
(2.37315e-25 6.61816e-25 0)
(1.39014e-22 -2.73179e-22 0)
(1.19995e-23 -1.84708e-23 0)
(-3.22288e-27 5.60951e-27 0)
(-7.01809e-28 1.27922e-27 0)
(-5.66248e-28 1.32936e-27 0)
(-2.12169e-27 3.54199e-27 0)
(-8.41785e-27 1.38232e-26 0)
(-3.13869e-27 5.08981e-27 0)
(-1.10706e-26 -1.49646e-27 0)
(-2.04003e-27 7.79544e-28 0)
(-1.68927e-28 3.20748e-27 0)
(-4.0405e-28 7.18687e-27 0)
(-7.15394e-29 1.13356e-27 0)
(0 0 0)
(0 0 0)
(0 0 0)
(0 0 0)
(0 0 0)
(0 0 0)
(0 0 0)
(0 0 0)
(0 0 0)
(-6.87731e-27 -2.45551e-27 0)
(0 0 0)
(0 0 0)
(0 0 0)
(9.61242e-28 6.55762e-26 0)
(2.13534e-27 7.87163e-26 0)
(3.22314e-27 1.79592e-25 0)
(9.96799e-25 3.70299e-24 0)
(1.27966e-24 3.36968e-24 0)
(4.73408e-21 -8.01689e-21 0)
(8.97074e-22 -1.25033e-21 0)
(1.43351e-21 -2.72464e-21 0)
(8.19776e-23 1.56895e-22 0)
(1.15809e-21 1.54976e-21 0)
(3.85836e-22 7.21489e-22 0)
(5.50516e-23 -1.20401e-22 0)
(4.88749e-22 -1.02375e-21 0)
(-5.63608e-28 3.32559e-27 0)
(-3.18944e-28 1.83819e-27 0)
(-1.44639e-28 8.50543e-28 0)
(-6.65858e-28 4.04427e-27 0)
(-1.75807e-28 1.06147e-27 0)
(0 0 0)
(0 0 0)
(0 0 0)
(0 0 0)
(0 0 0)
(-5.71467e-25 -4.67028e-25 0)
(-1.24038e-25 -1.4652e-25 0)
(-1.5042e-25 -4.613e-26 0)
(-1.89932e-26 -2.30233e-26 0)
(0 0 0)
(-1.36769e-23 2.44298e-22 0)
(-3.67854e-23 6.25766e-22 0)
(-1.43188e-23 1.77814e-22 0)
(-3.30482e-26 1.8468e-23 0)
(-1.79899e-25 7.51385e-23 0)
(-1.00296e-25 1.99942e-23 0)
(1.04652e-21 5.35758e-21 0)
(4.05073e-21 1.74101e-20 0)
(5.86767e-21 2.84522e-20 0)
(1.22831e-23 2.43919e-23 0)
(1.78485e-22 2.16735e-22 0)
(2.27804e-22 3.08475e-22 0)
(2.67515e-21 -6.05626e-22 0)
(7.65587e-22 -3.90219e-22 0)
(3.16498e-21 3.51937e-21 0)
(8.14791e-22 9.5454e-22 0)
(1.69509e-22 -3.76748e-22 0)
(1.22117e-21 -2.73508e-21 0)
(3.52392e-21 -7.35371e-21 0)
(-1.46435e-27 5.62656e-27 0)
(-6.2209e-27 1.77133e-26 0)
(-1.2082e-26 2.52706e-26 0)
(-1.02418e-28 5.92026e-28 0)
(-9.78941e-22 1.14826e-20 0)
(-6.87115e-22 7.93974e-21 0)
(-3.1381e-22 3.65924e-21 0)
(0 0 0)
(0 0 0)
(0 0 0)
(0 0 0)
(-6.54522e-27 -4.9247e-27 0)
(-3.58524e-26 -2.37893e-26 0)
(-8.1766e-26 4.68266e-26 0)
(-3.04914e-26 1.51563e-27 0)
(0 0 0)
(1.45189e-21 2.92641e-20 0)
(2.81757e-21 5.0947e-20 0)
(5.23332e-21 1.15009e-19 0)
(1.28152e-21 1.4724e-20 0)
(2.62431e-21 2.83952e-20 0)
(4.76178e-21 5.34314e-20 0)
(2.88558e-18 3.96546e-18 0)
(8.1449e-19 1.22106e-18 0)
(7.14857e-19 9.81474e-19 0)
(4.68039e-21 3.76973e-21 0)
(1.59475e-20 -2.14143e-20 0)
(3.37008e-22 -8.33749e-22 0)
(2.88515e-22 -8.25948e-22 0)
(1.23043e-20 -2.78768e-20 0)
(-1.67202e-25 8.33299e-25 0)
(-2.99548e-25 1.44593e-24 0)
(-1.02959e-25 4.946e-25 0)
(-5.77625e-24 9.74851e-24 0)
(-1.29894e-24 2.25135e-24 0)
(-1.36267e-24 2.64071e-24 0)
(-8.59657e-25 5.03139e-24 0)
(-2.18824e-24 1.25677e-23 0)
(-9.37991e-25 5.36098e-24 0)
(-3.80483e-22 9.1585e-20 0)
(-6.89931e-22 5.98323e-20 0)
(-1.76702e-22 1.8612e-20 0)
(-3.7926e-25 2.56616e-24 0)
(-2.03678e-25 1.25893e-24 0)
(-9.37818e-26 6.94353e-25 0)
(0 0 0)
(-1.22586e-25 -3.59369e-25 0)
(-2.06024e-25 -3.81766e-25 0)
(-8.65979e-25 -1.74249e-24 0)
(-5.20769e-24 -3.32579e-24 0)
(-1.30188e-23 -2.30756e-23 0)
(-3.72895e-24 -7.78896e-24 0)
(0 0 0)
(0 0 0)
(-1.08578e-19 8.20744e-18 0)
(-2.84704e-20 2.43239e-18 0)
(-7.16113e-20 1.14385e-17 0)
(9.57674e-17 7.98915e-16 0)
(4.04346e-17 3.18962e-16 0)
(2.27628e-16 1.68515e-15 0)
(3.71206e-18 1.07419e-17 0)
(2.04971e-18 6.36628e-18 0)
(1.12455e-18 3.32518e-18 0)
(2.48684e-16 1.01026e-15 0)
(1.49803e-16 6.007e-16 0)
(1.26923e-15 4.89825e-15 0)
(1.78828e-19 -4.93947e-19 0)
(6.73867e-20 -1.47058e-19 0)
(6.08569e-20 -1.80236e-19 0)
(6.84589e-20 -7.78049e-20 0)
(4.01707e-20 2.19595e-20 0)
(1.16859e-20 6.68769e-21 0)
(2.15137e-21 -5.57509e-21 0)
(6.41735e-22 -1.92627e-21 0)
(4.48712e-21 -1.28982e-20 0)
(-8.0437e-22 1.27936e-21 0)
(-5.10857e-22 9.31051e-22 0)
(-1.59891e-21 2.71715e-21 0)
(-4.25007e-24 6.54976e-24 0)
(-6.75203e-19 7.47194e-18 0)
(-1.12106e-18 1.27349e-17 0)
(-2.48012e-18 2.73253e-17 0)
(-2.2607e-19 1.10809e-18 0)
(-5.40155e-19 2.75406e-18 0)
(-6.92301e-19 3.4423e-18 0)
(0 0 0)
(-2.08187e-26 -5.79371e-26 0)
(-1.88072e-24 -2.14447e-24 0)
(0 0 0)
(0 0 0)
(4.02746e-17 8.81811e-16 0)
(1.88638e-16 3.98244e-15 0)
(3.64368e-17 9.3537e-16 0)
(3.21203e-19 1.70736e-18 0)
(1.30449e-18 6.40307e-18 0)
(4.21545e-19 2.67975e-18 0)
(7.31621e-13 8.93187e-12 0)
(1.71938e-13 2.14207e-12 0)
(1.54975e-13 1.82027e-12 0)
(2.57746e-18 4.30446e-18 0)
(1.12422e-17 1.74848e-17 0)
(4.12452e-18 7.22548e-18 0)
(2.333e-14 1.00855e-14 0)
(7.91785e-14 1.83061e-14 0)
(6.7837e-14 4.40716e-14 0)
(1.71096e-19 3.52318e-20 0)
(9.23478e-19 -5.17274e-19 0)
(6.92908e-19 1.54821e-19 0)
(1.79244e-20 -5.0965e-20 0)
(1.36402e-17 -3.9461e-17 0)
(1.79927e-17 -3.49806e-17 0)
(6.54804e-18 -1.55929e-17 0)
(2.22163e-21 -7.31069e-21 0)
(-1.52906e-25 8.05756e-25 0)
(-5.82325e-25 3.01776e-24 0)
(-4.51686e-25 2.29482e-24 0)
(-7.31275e-24 2.00328e-23 0)
(-1.9115e-23 5.49685e-23 0)
(-4.4779e-23 1.19163e-22 0)
(-2.95823e-22 3.66301e-22 0)
(-3.07585e-22 4.07463e-22 0)
(-8.79305e-22 1.12561e-21 0)
(-2.82137e-21 1.40032e-20 0)
(-8.25277e-22 3.949e-21 0)
(-3.96813e-22 1.90831e-21 0)
(-9.45524e-17 7.63203e-16 0)
(-4.613e-17 4.05799e-16 0)
(-1.55027e-16 1.40389e-15 0)
(-7.88814e-26 -4.09852e-25 0)
(0 0 0)
(-1.0046e-24 -2.81754e-24 0)
(-4.78016e-24 -1.44224e-23 0)
(-3.18179e-23 -3.89973e-23 0)
(-4.76774e-23 2.24345e-23 0)
(-1.03051e-22 -2.02626e-22 0)
(0 0 0)
(-7.24211e-16 1.65278e-14 0)
(-2.08434e-16 4.77167e-15 0)
(-4.24846e-16 9.77797e-15 0)
(1.03313e-12 1.42384e-11 0)
(1.85009e-12 2.8385e-11 0)
(6.41845e-13 9.96937e-12 0)
(2.09747e-08 9.88218e-08 0)
(5.1227e-08 2.33984e-07 0)
(5.61581e-08 2.67108e-07 0)
(1.9069e-14 2.23976e-13 0)
(4.88406e-14 5.13648e-13 0)
(4.73481e-14 5.5613e-13 0)
(1.33049e-09 3.24882e-09 0)
(3.54067e-10 8.88406e-10 0)
(6.77642e-10 1.59587e-09 0)
(2.01198e-12 3.44466e-12 0)
(2.26511e-12 3.54392e-12 0)
(4.74078e-12 7.46168e-12 0)
(7.30241e-20 -2.43148e-19 0)
(1.1512e-21 -1.05984e-20 0)
(3.8063e-19 -1.33444e-18 0)
(1.15192e-20 -3.76594e-20 0)
(9.13832e-24 -8.42415e-23 0)
(-2.33931e-20 3.15493e-20 0)
(-7.34965e-20 1.02449e-19 0)
(-8.61524e-20 1.10221e-19 0)
(-3.71097e-22 5.59325e-22 0)
(-1.03215e-22 1.62186e-22 0)
(-1.74599e-22 3.05341e-22 0)
(-1.6063e-22 2.27689e-22 0)
(-6.22714e-22 8.61211e-22 0)
(-4.83508e-18 3.33424e-17 0)
(-4.86857e-18 3.79714e-17 0)
(-1.94915e-17 1.52087e-16 0)
(-1.33065e-14 1.58941e-13 0)
(-1.69793e-14 2.04583e-13 0)
(-8.72862e-14 1.05259e-12 0)
(-1.51691e-23 7.12333e-24 0)
(2.54478e-12 3.67067e-10 0)
(-5.46223e-13 1.59039e-10 0)
(-9.66871e-14 7.06131e-11 0)
(1.63247e-10 2.23159e-09 0)
(6.09428e-11 9.03292e-10 0)
(4.7727e-11 6.40671e-10 0)
(6.26214e-11 1.50072e-10 0)
(4.33499e-11 9.52468e-11 0)
(1.60155e-10 3.38574e-10 0)
(4.67849e-12 2.26223e-11 0)
(1.11966e-11 5.42622e-11 0)
(3.34304e-12 1.62014e-11 0)
(3.15054e-09 2.68385e-08 0)
(4.02208e-09 3.657e-08 0)
(1.44547e-09 1.28769e-08 0)
(3.74089e-11 -5.99837e-11 0)
(8.42966e-11 -1.84561e-10 0)
(1.2928e-10 -2.18465e-10 0)
(1.35573e-12 2.05096e-12 0)
(7.25875e-13 1.17154e-12 0)
(4.49112e-13 6.89227e-13 0)
(3.51672e-21 -3.23211e-20 0)
(1.26969e-20 -1.16604e-19 0)
(6.16536e-21 -5.64199e-20 0)
(5.08478e-23 -4.68875e-22 0)
(1.84983e-22 -1.70421e-21 0)
(1.93902e-18 -7.21461e-18 0)
(7.01197e-14 -2.23617e-13 0)
(1.6842e-14 -5.35148e-14 0)
(4.13889e-14 -1.48174e-13 0)
(-3.03287e-17 9.05798e-17 0)
(-3.21885e-17 8.99646e-17 0)
(-6.72874e-18 2.06407e-17 0)
(-1.15163e-20 1.42336e-20 0)
(-2.38237e-20 2.7846e-20 0)
(-5.80382e-21 6.76529e-21 0)
(-1.07113e-20 1.56338e-20 0)
(-3.26254e-21 4.95238e-21 0)
(-6.74535e-21 1.11245e-20 0)
(-1.14739e-22 1.48776e-22 0)
(-4.25789e-23 5.80762e-23 0)
(-2.06897e-15 9.82553e-15 0)
(-5.50845e-15 2.66093e-14 0)
(-6.8264e-15 3.23892e-14 0)
(-1.17578e-17 1.31635e-16 0)
(-4.61357e-17 5.00353e-16 0)
(-1.45231e-17 1.56158e-16 0)
(-2.00643e-11 1.9341e-10 0)
(-8.68561e-12 7.31464e-11 0)
(-5.25089e-12 4.99872e-11 0)
(-2.64913e-25 -1.37643e-24 0)
(-1.45169e-24 -7.54266e-24 0)
(-1.14587e-22 -3.86049e-22 0)
(-7.12123e-22 -2.66184e-21 0)
(-4.54762e-23 -2.36285e-22 0)
(-5.32888e-09 4.14214e-07 0)
(-1.86812e-09 2.09299e-07 0)
(-2.85551e-09 4.8137e-07 0)
(-1.59751e-12 1.36971e-10 0)
(-3.58317e-13 3.9072e-11 0)
(5.66537e-09 1.8069e-07 0)
(1.69532e-08 4.52683e-07 0)
(9.3081e-09 3.56258e-07 0)
(1.98295e-09 3.57446e-08 0)
(5.59519e-10 1.07396e-08 0)
(1.12047e-09 1.96009e-08 0)
(3.16946e-10 8.98952e-10 0)
(7.61944e-11 2.4249e-10 0)
(8.57544e-11 2.47553e-10 0)
(7.65522e-09 4.08018e-08 0)
(1.73899e-08 9.83351e-08 0)
(3.80531e-09 2.1377e-08 0)
(8.15638e-09 7.8877e-08 0)
(2.64258e-08 2.39889e-07 0)
(1.88057e-08 1.91761e-07 0)
(1.18131e-09 9.71402e-09 0)
(5.02004e-10 4.27301e-09 0)
(9.07496e-10 6.9193e-09 0)
(5.29708e-14 -1.88777e-14 0)
(3.88629e-14 -1.19961e-15 0)
(1.75181e-14 -4.00149e-15 0)
(6.10242e-11 9.48649e-12 0)
(2.10196e-10 4.13916e-11 0)
(8.4006e-11 3.68128e-11 0)
(4.67033e-20 -4.298e-19 0)
(8.94779e-21 -8.27169e-20 0)
(1.92745e-20 -1.79493e-19 0)
(5.01189e-22 -4.62182e-21 0)