/*--------------------------------*- C++ -*----------------------------------*\
| =========                 |                                                 |
| \\      /  F ield         | OpenFOAM: The Open Source CFD Toolbox           |
|  \\    /   O peration     | Version:  v2012                                 |
|   \\  /    A nd           | Website:  www.openfoam.com                      |
|    \\/     M anipulation  |                                                 |
\*---------------------------------------------------------------------------*/
FoamFile
{
    version     2.0;
    format      ascii;
    class       volScalarField;
    location    "1";
    object      rAU;
}
// * * * * * * * * * * * * * * * * * * * * * * * * * * * * * * * * * * * * * //

dimensions      [-1 3 1 0 0 0 0];


internalField   nonuniform List<scalar> 
27222
(
8.66662e-08
8.51812e-08
8.58521e-08
8.57491e-08
8.57553e-08
8.66637e-08
8.59484e-08
8.63376e-08
8.66575e-08
8.55264e-08
8.64137e-08
8.62108e-08
8.48e-08
8.63555e-08
8.64005e-08
8.51908e-08
8.63979e-08
8.66642e-08
8.62632e-08
8.66508e-08
8.61415e-08
8.49971e-08
8.66614e-08
8.63992e-08
8.51811e-08
8.63834e-08
8.65802e-08
8.58971e-08
8.66339e-08
8.61403e-08
8.5687e-08
8.62428e-08
8.61645e-08
8.51314e-08
8.63287e-08
8.63744e-08
8.65694e-08
8.66645e-08
8.59089e-08
8.64485e-08
8.60468e-08
8.51712e-08
8.44395e-08
8.61162e-08
8.62865e-08
8.66583e-08
8.51314e-08
8.63185e-08
8.64557e-08
8.58869e-08
8.63797e-08
8.59198e-08
8.64467e-08
8.61055e-08
8.61373e-08
8.65359e-08
8.45302e-08
8.51414e-08
8.555e-08
8.63438e-08
8.63589e-08
8.64404e-08
8.59281e-08
8.64629e-08
8.64285e-08
8.66657e-08
8.59392e-08
8.64799e-08
8.6119e-08
8.61319e-08
8.66496e-08
8.55783e-08
8.55176e-08
8.63497e-08
8.66585e-08
8.63539e-08
8.64361e-08
8.59277e-08
8.5518e-08
8.52689e-08
8.65194e-08
8.61594e-08
8.64846e-08
8.6094e-08
8.6152e-08
8.52094e-08
8.50837e-08
8.65648e-08
8.61028e-08
8.54174e-08
8.61871e-08
8.63362e-08
8.66966e-08
8.60137e-08
8.53903e-08
8.47906e-08
8.58191e-08
8.65637e-08
8.66656e-08
8.61721e-08
8.48117e-08
8.62002e-08
8.62046e-08
8.54958e-08
8.46769e-08
8.43232e-08
8.6516e-08
8.61093e-08
8.55173e-08
8.61288e-08
8.66672e-08
8.6404e-08
8.66269e-08
8.58193e-08
8.61113e-08
8.45397e-08
8.57107e-08
8.58731e-08
8.6413e-08
8.63803e-08
8.49071e-08
8.50512e-08
8.60584e-08
8.53974e-08
8.50951e-08
8.56828e-08
8.56002e-08
8.66383e-08
8.64622e-08
8.56788e-08
8.50135e-08
8.56926e-08
8.54192e-08
8.4968e-08
8.59699e-08
8.60805e-08
8.53236e-08
8.63985e-08
8.5875e-08
8.66619e-08
8.64221e-08
8.51137e-08
8.61413e-08
8.60018e-08
8.57459e-08
8.57678e-08
8.58074e-08
8.58541e-08
8.6647e-08
8.63423e-08
8.5832e-08
8.56463e-08
8.56868e-08
8.60919e-08
8.57725e-08
8.52892e-08
8.62425e-08
8.56028e-08
8.62753e-08
8.57494e-08
8.56629e-08
8.64354e-08
8.65253e-08
8.48017e-08
8.61172e-08
8.62632e-08
8.61885e-08
8.61287e-08
8.59512e-08
8.56322e-08
8.49778e-08
8.62808e-08
8.52845e-08
8.59343e-08
8.55885e-08
8.56818e-08
8.66487e-08
8.54388e-08
8.55466e-08
8.4768e-08
8.64124e-08
8.60751e-08
8.57958e-08
8.56231e-08
8.64282e-08
8.5768e-08
8.66582e-08
8.64931e-08
8.59895e-08
8.54645e-08
8.63171e-08
8.58359e-08
8.56966e-08
8.57677e-08
8.5517e-08
8.49836e-08
8.62688e-08
8.60054e-08
8.63015e-08
8.56742e-08
8.58494e-08
8.54887e-08
8.5804e-08
8.58805e-08
8.62097e-08
8.60487e-08
8.50829e-08
8.56859e-08
8.62644e-08
8.5218e-08
8.61979e-08
8.55896e-08
8.56926e-08
8.61584e-08
8.62501e-08
8.5169e-08
8.61542e-08
8.57414e-08
8.49437e-08
8.57037e-08
8.64416e-08
8.62609e-08
8.65285e-08
8.553e-08
8.59751e-08
8.58799e-08
8.58558e-08
8.59444e-08
8.66565e-08
8.5224e-08
8.63107e-08
8.58859e-08
8.59169e-08
8.53644e-08
8.61451e-08
8.63902e-08
8.60946e-08
8.51701e-08
8.6646e-08
8.59662e-08
8.57124e-08
8.5693e-08
8.57769e-08
8.62341e-08
8.61907e-08
8.59129e-08
8.5743e-08
8.59096e-08
8.55879e-08
8.63249e-08
8.63534e-08
8.65338e-08
8.59077e-08
8.59402e-08
8.58447e-08
8.58613e-08
8.57823e-08
8.55115e-08
8.61362e-08
8.62707e-08
8.6234e-08
8.63116e-08
8.58079e-08
8.5907e-08
8.58464e-08
8.57451e-08
8.6181e-08
8.65088e-08
8.50301e-08
8.5425e-08
8.49401e-08
8.54745e-08
8.57092e-08
8.53543e-08
8.4955e-08
8.61494e-08
8.48307e-08
8.49125e-08
8.64035e-08
8.59426e-08
8.61724e-08
8.57885e-08
8.54689e-08
8.49599e-08
8.59752e-08
8.52867e-08
8.63231e-08
8.60661e-08
8.58511e-08
8.56239e-08
8.66752e-08
8.49349e-08
8.55283e-08
8.63317e-08
8.63265e-08
8.58228e-08
8.57226e-08
8.61831e-08
8.6544e-08
8.53357e-08
8.57222e-08
8.56386e-08
8.59648e-08
8.61566e-08
8.56573e-08
8.4588e-08
8.54034e-08
8.61164e-08
8.48724e-08
8.63644e-08
8.62165e-08
8.61766e-08
8.5719e-08
8.55728e-08
8.54719e-08
8.59818e-08
8.54344e-08
8.51914e-08
8.59636e-08
8.53485e-08
8.59095e-08
8.57045e-08
8.58171e-08
8.52526e-08
8.58782e-08
8.57677e-08
8.56551e-08
8.60816e-08
8.665e-08
8.5926e-08
8.61177e-08
8.57125e-08
8.62669e-08
8.57029e-08
8.66518e-08
8.5548e-08
8.54509e-08
8.61278e-08
8.58508e-08
8.61514e-08
8.58681e-08
8.62699e-08
8.59027e-08
8.5784e-08
8.62127e-08
8.58597e-08
8.54479e-08
8.55661e-08
8.53812e-08
8.59845e-08
8.63624e-08
8.51318e-08
8.5755e-08
8.54862e-08
8.68032e-08
8.58034e-08
8.54037e-08
8.6253e-08
8.5054e-08
8.52836e-08
8.57595e-08
8.52394e-08
8.56809e-08
8.5549e-08
8.66497e-08
8.61196e-08
8.58928e-08
8.55399e-08
8.49637e-08
8.62593e-08
8.45794e-08
8.63069e-08
8.58631e-08
8.51595e-08
8.50309e-08
8.5641e-08
8.53519e-08
8.62565e-08
8.5477e-08
8.58466e-08
8.59072e-08
8.58247e-08
8.55328e-08
8.58944e-08
8.57205e-08
8.56587e-08
8.48769e-08
8.60209e-08
8.64376e-08
8.49847e-08
8.54422e-08
8.68202e-08
8.53864e-08
8.58059e-08
8.58623e-08
8.66405e-08
8.59221e-08
8.58991e-08
8.59465e-08
8.58289e-08
8.54125e-08
8.57543e-08
8.5707e-08
8.60358e-08
8.59757e-08
8.61473e-08
8.47297e-08
8.5534e-08
8.55489e-08
8.62606e-08
8.66474e-08
8.57102e-08
8.58471e-08
8.60704e-08
8.57319e-08
8.49095e-08
8.52052e-08
8.55808e-08
8.56094e-08
8.53644e-08
8.4997e-08
8.57172e-08
8.55295e-08
8.4711e-08
8.56923e-08
8.5537e-08
8.56632e-08
8.6066e-08
8.59929e-08
8.61701e-08
8.59961e-08
8.5718e-08
8.5719e-08
8.60725e-08
8.67089e-08
8.51258e-08
8.58531e-08
8.5938e-08
8.62008e-08
8.60945e-08
8.5649e-08
8.62998e-08
8.60775e-08
8.61157e-08
8.58946e-08
8.58753e-08
8.51983e-08
8.52131e-08
8.50653e-08
8.62531e-08
8.59909e-08
8.59583e-08
8.61129e-08
8.57913e-08
8.57415e-08
8.5638e-08
8.5116e-08
8.56924e-08
8.56894e-08
8.58724e-08
8.54312e-08
8.56399e-08
8.56325e-08
8.61313e-08
8.58073e-08
8.61633e-08
8.51988e-08
8.57485e-08
8.5385e-08
8.59572e-08
8.59738e-08
8.56418e-08
8.60741e-08
8.56139e-08
8.58891e-08
8.62575e-08
8.57671e-08
8.60441e-08
8.59699e-08
8.59651e-08
8.52078e-08
8.59659e-08
8.59271e-08
8.62007e-08
8.53512e-08
8.45823e-08
8.63515e-08
8.66476e-08
8.59795e-08
8.59073e-08
8.65218e-08
8.68592e-08
8.57954e-08
8.61624e-08
8.56709e-08
8.54153e-08
8.56581e-08
8.57645e-08
8.58389e-08
8.57073e-08
8.57758e-08
8.58403e-08
8.52301e-08
8.61447e-08
8.58715e-08
8.61e-08
8.58345e-08
8.63219e-08
8.5953e-08
8.58786e-08
8.54072e-08
8.50835e-08
8.51369e-08
8.60683e-08
8.58697e-08
8.62639e-08
8.49735e-08
8.55099e-08
8.58199e-08
8.6229e-08
8.52295e-08
8.59388e-08
8.64259e-08
8.59812e-08
8.61039e-08
8.59191e-08
8.60754e-08
8.54484e-08
8.54547e-08
8.64416e-08
8.64607e-08
8.57297e-08
8.6511e-08
8.68558e-08
8.56291e-08
8.58701e-08
8.51636e-08
8.54059e-08
8.60528e-08
8.5865e-08
8.5721e-08
8.57101e-08
8.57379e-08
8.6408e-08
8.60485e-08
8.57459e-08
8.59878e-08
8.64493e-08
8.58009e-08
8.57944e-08
8.50678e-08
8.60075e-08
8.53844e-08
8.50517e-08
8.51423e-08
8.53373e-08
8.5663e-08
8.5666e-08
8.63508e-08
8.55938e-08
8.60923e-08
8.56297e-08
8.57246e-08
8.53632e-08
8.58051e-08
8.5795e-08
8.5117e-08
8.53471e-08
8.50848e-08
8.66457e-08
8.64452e-08
8.62423e-08
8.62043e-08
8.52572e-08
8.51549e-08
8.61116e-08
8.5731e-08
8.50893e-08
8.58954e-08
8.61019e-08
8.50061e-08
8.62621e-08
8.60496e-08
8.58076e-08
8.56711e-08
8.56634e-08
8.62787e-08
8.57519e-08
8.53618e-08
8.54927e-08
8.5783e-08
8.5847e-08
8.5738e-08
8.59913e-08
8.6075e-08
8.53968e-08
8.66519e-08
8.53719e-08
8.40032e-08
8.52623e-08
8.49613e-08
8.56405e-08
8.50882e-08
8.59282e-08
8.57552e-08
8.5684e-08
8.55606e-08
8.58314e-08
8.54441e-08
8.50661e-08
8.52002e-08
8.61304e-08
8.54903e-08
8.64166e-08
8.60832e-08
8.58153e-08
8.58899e-08
8.53795e-08
8.65581e-08
8.55089e-08
8.62833e-08
8.62339e-08
8.52581e-08
8.56126e-08
8.6028e-08
8.56901e-08
8.58592e-08
8.60278e-08
8.63833e-08
8.59128e-08
8.60466e-08
8.58847e-08
8.57593e-08
8.54143e-08
8.5877e-08
8.50393e-08
8.57181e-08
8.5454e-08
8.54549e-08
8.57251e-08
8.54782e-08
8.57279e-08
8.59326e-08
8.55669e-08
8.61115e-08
8.57785e-08
8.50268e-08
8.52416e-08
8.39382e-08
8.3927e-08
8.48299e-08
8.44386e-08
8.48579e-08
8.4609e-08
8.51518e-08
8.56432e-08
8.49669e-08
8.5716e-08
8.63084e-08
8.61935e-08
8.61801e-08
8.47528e-08
8.61655e-08
8.56071e-08
8.57407e-08
8.54318e-08
8.57563e-08
8.66434e-08
8.65673e-08
8.62704e-08
8.57083e-08
8.5889e-08
8.59293e-08
8.63111e-08
8.47875e-08
8.63028e-08
8.63651e-08
8.59449e-08
8.61308e-08
8.58042e-08
8.57792e-08
8.5831e-08
8.56164e-08
8.52008e-08
8.56815e-08
8.53675e-08
8.56509e-08
8.62133e-08
8.4894e-08
8.52497e-08
8.5311e-08
8.58893e-08
8.58021e-08
8.54892e-08
8.55325e-08
8.66734e-08
8.53609e-08
8.51936e-08
8.46209e-08
8.47155e-08
8.54115e-08
8.44316e-08
8.41624e-08
8.52768e-08
8.50658e-08
8.50383e-08
8.52632e-08
8.56093e-08
8.52269e-08
8.55662e-08
8.58841e-08
8.5668e-08
8.63412e-08
8.5821e-08
8.49566e-08
8.62257e-08
8.63923e-08
8.54946e-08
8.59025e-08
8.59181e-08
8.57387e-08
8.65323e-08
8.49004e-08
8.63942e-08
8.52295e-08
8.61953e-08
8.60612e-08
8.60173e-08
8.58627e-08
8.57327e-08
8.5805e-08
8.58929e-08
8.58068e-08
8.58111e-08
8.51888e-08
8.55931e-08
8.59771e-08
8.57497e-08
8.52681e-08
8.49973e-08
8.52228e-08
8.60398e-08
8.49227e-08
8.60507e-08
8.56918e-08
8.6371e-08
8.48807e-08
8.4781e-08
8.47797e-08
8.51182e-08
8.44326e-08
8.51239e-08
8.55564e-08
8.44286e-08
8.46077e-08
8.5321e-08
8.58417e-08
8.58137e-08
8.59777e-08
8.60999e-08
8.58704e-08
8.61472e-08
8.5694e-08
8.64128e-08
8.58915e-08
8.5633e-08
8.62606e-08
8.634e-08
8.58019e-08
8.66361e-08
8.59603e-08
8.498e-08
8.5957e-08
8.59199e-08
8.63177e-08
8.60458e-08
8.63257e-08
8.57143e-08
8.62591e-08
8.55584e-08
8.50109e-08
8.54449e-08
8.58847e-08
8.62403e-08
8.53531e-08
8.57125e-08
8.58005e-08
8.60229e-08
8.63805e-08
8.5829e-08
8.5703e-08
8.6249e-08
8.62477e-08
8.44221e-08
8.5243e-08
8.63215e-08
8.55644e-08
8.57537e-08
8.46128e-08
8.6046e-08
8.57143e-08
8.66852e-08
8.50723e-08
8.48169e-08
8.43986e-08
8.43007e-08
8.40054e-08
8.57396e-08
8.52057e-08
8.43574e-08
8.34513e-08
8.49105e-08
8.51742e-08
8.57915e-08
8.57188e-08
8.51958e-08
8.57019e-08
8.63559e-08
8.56589e-08
8.53737e-08
8.56531e-08
8.55006e-08
8.61137e-08
8.59368e-08
8.53249e-08
8.57906e-08
8.57237e-08
8.56234e-08
8.58987e-08
8.59941e-08
8.60757e-08
8.61646e-08
8.55136e-08
8.62096e-08
8.60649e-08
8.56307e-08
8.55418e-08
8.63478e-08
8.63846e-08
8.5783e-08
8.60864e-08
8.60401e-08
8.58616e-08
8.6349e-08
8.6253e-08
8.56459e-08
8.62562e-08
8.60808e-08
8.36335e-08
8.48256e-08
8.34262e-08
8.52935e-08
8.56505e-08
8.40922e-08
8.42902e-08
8.47831e-08
8.6325e-08
8.48842e-08
8.37526e-08
8.38252e-08
8.44574e-08
8.31792e-08
8.39811e-08
8.41644e-08
8.56815e-08
8.36751e-08
8.43328e-08
8.40557e-08
8.4705e-08
8.56292e-08
8.60537e-08
8.60035e-08
8.59902e-08
8.5904e-08
8.63405e-08
8.54841e-08
8.5123e-08
8.63181e-08
8.58609e-08
8.6071e-08
8.59132e-08
8.57709e-08
8.54418e-08
8.55248e-08
8.62355e-08
8.58665e-08
8.61523e-08
8.44433e-08
8.51366e-08
8.52558e-08
8.6083e-08
8.62003e-08
8.59175e-08
8.56837e-08
8.60371e-08
8.58303e-08
8.58566e-08
8.59017e-08
8.55533e-08
8.52504e-08
8.52496e-08
8.47913e-08
8.61353e-08
8.47575e-08
8.47447e-08
8.64465e-08
8.37629e-08
8.4479e-08
8.44418e-08
8.64014e-08
8.58488e-08
8.42483e-08
8.53699e-08
8.41269e-08
8.61782e-08
8.61714e-08
8.60754e-08
8.44616e-08
8.38476e-08
8.3336e-08
8.341e-08
8.43273e-08
8.25018e-08
8.29257e-08
8.35016e-08
8.42497e-08
8.39978e-08
8.45804e-08
8.436e-08
8.57929e-08
8.55539e-08
8.61424e-08
8.59265e-08
8.58831e-08
8.55087e-08
8.50694e-08
8.54796e-08
8.60903e-08
8.61457e-08
8.60658e-08
8.58593e-08
8.60098e-08
8.38449e-08
8.62709e-08
8.62766e-08
8.58118e-08
8.56985e-08
8.60267e-08
8.55672e-08
8.56046e-08
8.61806e-08
8.48612e-08
8.54295e-08
8.59782e-08
8.5344e-08
8.57966e-08
8.5939e-08
8.53367e-08
8.65943e-08
8.59202e-08
8.64601e-08
8.57434e-08
8.6117e-08
8.65131e-08
8.48014e-08
8.56755e-08
8.54655e-08
8.62249e-08
8.40016e-08
8.44295e-08
8.4566e-08
8.58915e-08
8.59188e-08
8.29726e-08
8.3442e-08
8.39396e-08
8.59069e-08
8.60229e-08
8.66698e-08
8.24464e-08
8.32056e-08
8.30725e-08
8.29525e-08
8.32225e-08
8.2635e-08
8.3925e-08
8.34682e-08
8.36705e-08
8.29649e-08
8.38392e-08
8.48022e-08
8.43469e-08
8.63033e-08
8.56077e-08
8.59788e-08
8.59124e-08
8.56472e-08
8.56074e-08
8.56598e-08
8.5675e-08
8.62272e-08
8.57934e-08
8.61032e-08
8.37417e-08
8.63459e-08
8.50329e-08
8.50299e-08
8.59304e-08
8.54503e-08
8.43891e-08
8.60047e-08
8.58298e-08
8.60061e-08
8.59753e-08
8.47094e-08
8.63885e-08
8.58157e-08
8.57718e-08
8.59243e-08
8.65762e-08
8.62845e-08
8.64754e-08
8.50373e-08
8.64735e-08
8.62205e-08
8.56578e-08
8.62448e-08
8.58351e-08
8.65072e-08
8.3984e-08
8.28749e-08
8.34062e-08
8.50328e-08
8.49575e-08
8.43106e-08
8.36227e-08
8.39866e-08
8.38627e-08
8.55431e-08
8.55523e-08
8.61129e-08
8.57797e-08
8.27576e-08
8.29234e-08
8.3064e-08
8.32914e-08
8.29221e-08
8.39053e-08
8.2624e-08
8.2584e-08
8.42857e-08
8.35275e-08
8.45499e-08
8.34626e-08
8.45159e-08
8.48706e-08
8.64443e-08
8.61391e-08
8.63984e-08
8.62408e-08
8.6284e-08
8.59268e-08
8.62638e-08
8.54987e-08
8.67056e-08
8.67569e-08
8.53056e-08
8.654e-08
8.55272e-08
8.59535e-08
8.60793e-08
8.53926e-08
8.34114e-08
8.51364e-08
8.59816e-08
8.62368e-08
8.58504e-08
8.60397e-08
8.63034e-08
8.64929e-08
8.59988e-08
8.6086e-08
8.57569e-08
8.56596e-08
8.55854e-08
8.57172e-08
8.61906e-08
8.54127e-08
8.54976e-08
8.62344e-08
8.63776e-08
8.59648e-08
8.66539e-08
8.18433e-08
8.37378e-08
8.33801e-08
8.32597e-08
8.57559e-08
8.40894e-08
8.39084e-08
8.39248e-08
8.33395e-08
8.24856e-08
8.59455e-08
8.51547e-08
8.60877e-08
8.61358e-08
8.66747e-08
8.26145e-08
8.15243e-08
8.32595e-08
8.25105e-08
8.21513e-08
8.31524e-08
8.29434e-08
8.2198e-08
8.25322e-08
8.3087e-08
8.32712e-08
8.42989e-08
8.21093e-08
8.44807e-08
8.44573e-08
8.60572e-08
8.63935e-08
8.61296e-08
8.58693e-08
8.59307e-08
8.64152e-08
8.59498e-08
8.62944e-08
8.53939e-08
8.6037e-08
8.64235e-08
8.51745e-08
8.63526e-08
8.61793e-08
8.63696e-08
8.51394e-08
8.44074e-08
8.537e-08
8.48727e-08
8.6145e-08
8.59862e-08
8.51577e-08
8.59785e-08
8.5065e-08
8.60158e-08
8.59196e-08
8.58868e-08
8.6082e-08
8.56807e-08
8.50044e-08
8.54283e-08
8.60624e-08
8.59825e-08
8.65839e-08
8.56457e-08
8.59044e-08
8.61977e-08
8.54694e-08
8.24238e-08
8.2725e-08
8.22418e-08
8.22235e-08
8.56148e-08
8.60232e-08
8.40267e-08
8.35624e-08
8.34636e-08
8.33799e-08
8.31823e-08
8.52448e-08
8.54319e-08
8.63173e-08
8.60581e-08
8.24938e-08
8.07736e-08
8.26615e-08
8.23228e-08
8.29702e-08
8.23036e-08
8.12503e-08
8.20082e-08
8.3162e-08
8.28336e-08
8.31887e-08
8.46408e-08
8.21792e-08
8.42927e-08
8.59915e-08
8.59519e-08
8.6319e-08
8.53605e-08
8.59188e-08
8.57446e-08
8.53101e-08
8.58983e-08
8.61337e-08
8.62287e-08
8.58771e-08
8.62731e-08
8.61865e-08
8.63269e-08
8.42042e-08
8.41637e-08
8.52989e-08
8.46808e-08
8.61758e-08
8.591e-08
8.58249e-08
8.4982e-08
8.61301e-08
8.514e-08
8.5087e-08
8.57357e-08
8.61097e-08
8.61332e-08
8.62628e-08
8.63128e-08
8.60171e-08
8.64009e-08
8.65641e-08
8.60894e-08
8.58874e-08
8.51902e-08
8.63013e-08
8.56944e-08
8.23319e-08
8.29256e-08
8.23911e-08
8.08749e-08
8.33361e-08
8.56125e-08
8.25334e-08
8.39673e-08
8.3071e-08
8.21739e-08
8.26366e-08
8.54492e-08
8.59942e-08
8.60652e-08
8.6668e-08
8.11685e-08
8.30643e-08
8.04733e-08
8.06123e-08
8.13796e-08
8.22967e-08
8.17349e-08
8.33676e-08
8.25235e-08
8.25879e-08
8.32724e-08
8.24362e-08
8.29285e-08
8.4664e-08
8.22943e-08
8.42925e-08
8.58758e-08
8.52453e-08
8.59621e-08
8.63195e-08
8.48217e-08
8.5211e-08
8.62663e-08
8.57643e-08
8.6417e-08
8.60214e-08
8.63644e-08
8.58573e-08
8.59657e-08
8.63062e-08
8.51583e-08
8.61279e-08
8.54768e-08
8.43974e-08
8.5948e-08
8.43806e-08
8.62932e-08
8.62676e-08
8.61384e-08
8.63611e-08
8.57511e-08
8.53167e-08
8.61669e-08
8.61289e-08
8.61219e-08
8.62057e-08
8.62285e-08
8.60224e-08
8.61725e-08
8.62811e-08
8.51961e-08
8.60638e-08
8.58571e-08
8.59212e-08
8.59063e-08
8.59418e-08
8.20872e-08
8.1427e-08
8.21096e-08
8.23482e-08
8.13425e-08
8.31291e-08
8.2599e-08
8.57836e-08
8.54213e-08
8.37222e-08
8.27809e-08
8.01088e-08
8.22404e-08
8.18207e-08
8.57359e-08
8.6145e-08
8.57687e-08
8.57617e-08
8.17378e-08
8.29527e-08
8.15706e-08
8.14757e-08
8.09617e-08
8.12675e-08
8.15541e-08
8.33365e-08
8.18849e-08
8.14583e-08
8.29567e-08
8.18449e-08
8.17846e-08
8.33306e-08
8.32378e-08
8.42473e-08
8.49126e-08
8.58538e-08
8.65906e-08
8.39432e-08
8.56294e-08
8.60103e-08
8.6239e-08
8.63772e-08
8.55902e-08
8.624e-08
8.51433e-08
8.59666e-08
8.62251e-08
8.5906e-08
8.5494e-08
8.56787e-08
8.43472e-08
8.42055e-08
8.4794e-08
8.59944e-08
8.59662e-08
8.55649e-08
8.62665e-08
8.57283e-08
8.55805e-08
8.60139e-08
8.62962e-08
8.54621e-08
8.57429e-08
8.59898e-08
8.62558e-08
8.61379e-08
8.59225e-08
8.63068e-08
8.57518e-08
8.59742e-08
8.57366e-08
8.6216e-08
8.60387e-08
8.58202e-08
8.19554e-08
8.09312e-08
8.0436e-08
8.20331e-08
8.15955e-08
8.27427e-08
8.24758e-08
8.42937e-08
8.37267e-08
8.30802e-08
8.18406e-08
8.07049e-08
8.12992e-08
8.07869e-08
8.59146e-08
8.60927e-08
8.61616e-08
8.53071e-08
8.66595e-08
8.23828e-08
8.11434e-08
8.2385e-08
8.16954e-08
7.92717e-08
8.07131e-08
8.14237e-08
8.25218e-08
8.20522e-08
8.19646e-08
8.1994e-08
8.08019e-08
8.16089e-08
8.40022e-08
8.30515e-08
8.30608e-08
8.52897e-08
8.59248e-08
8.67139e-08
8.56408e-08
8.51627e-08
8.60442e-08
8.6461e-08
8.56357e-08
8.61774e-08
8.59964e-08
8.55067e-08
8.56952e-08
8.60092e-08
8.53959e-08
8.52698e-08
8.56952e-08
8.32936e-08
8.51106e-08
8.55053e-08
8.56838e-08
8.59912e-08
8.62701e-08
8.61576e-08
8.58055e-08
8.56254e-08
8.58834e-08
8.6428e-08
8.61585e-08
8.58626e-08
8.59605e-08
8.62632e-08
8.61628e-08
8.59782e-08
8.51146e-08
8.57512e-08
8.60763e-08
8.59375e-08
8.59815e-08
8.59459e-08
8.58335e-08
7.99378e-08
8.07188e-08
8.01244e-08
8.09832e-08
7.93711e-08
8.17387e-08
8.18301e-08
8.34423e-08
8.26098e-08
8.26927e-08
8.36567e-08
8.10444e-08
8.21882e-08
8.18699e-08
8.16774e-08
8.62833e-08
8.56197e-08
8.62276e-08
8.56876e-08
8.58276e-08
8.10764e-08
8.24199e-08
8.25422e-08
8.17353e-08
8.04959e-08
8.07808e-08
8.13786e-08
8.19651e-08
8.3482e-08
8.17375e-08
8.35195e-08
8.10955e-08
8.32882e-08
8.22372e-08
8.3731e-08
8.57264e-08
8.51914e-08
8.58211e-08
8.5641e-08
8.64832e-08
8.49984e-08
8.60295e-08
8.62773e-08
8.5559e-08
8.55022e-08
8.53587e-08
8.4952e-08
8.53125e-08
8.57343e-08
8.5506e-08
8.32491e-08
8.44144e-08
8.42626e-08
8.54696e-08
8.59662e-08
8.62912e-08
8.61353e-08
8.57274e-08
8.5555e-08
8.57948e-08
8.58899e-08
8.57359e-08
8.63588e-08
8.64521e-08
8.59475e-08
8.60749e-08
8.61113e-08
8.58621e-08
8.59676e-08
8.51239e-08
8.63344e-08
8.48519e-08
8.5156e-08
8.58836e-08
8.59875e-08
8.56913e-08
8.18761e-08
8.04323e-08
8.11182e-08
7.96864e-08
7.991e-08
8.05289e-08
8.03862e-08
8.27573e-08
8.17166e-08
8.33991e-08
8.42007e-08
8.26397e-08
8.34039e-08
8.11503e-08
7.93458e-08
8.11604e-08
8.09277e-08
8.18438e-08
8.5151e-08
8.48026e-08
8.58986e-08
8.55603e-08
8.66454e-08
7.98435e-08
8.16319e-08
8.16922e-08
8.12292e-08
7.99662e-08
8.05315e-08
8.07172e-08
8.15852e-08
8.20862e-08
8.11563e-08
8.29299e-08
8.08538e-08
8.20425e-08
8.23049e-08
8.03618e-08
8.40869e-08
8.50423e-08
8.61506e-08
8.57703e-08
8.61983e-08
8.6338e-08
8.59675e-08
8.56089e-08
8.63511e-08
8.56539e-08
8.51481e-08
8.65494e-08
8.51778e-08
8.46067e-08
8.5069e-08
8.49973e-08
8.50505e-08
8.45695e-08
8.6235e-08
8.61169e-08
8.59597e-08
8.54655e-08
8.55821e-08
8.54624e-08
8.58666e-08
8.58076e-08
8.58942e-08
8.64164e-08
8.59064e-08
8.60749e-08
8.62054e-08
8.59284e-08
8.57058e-08
8.63828e-08
8.60788e-08
8.49613e-08
8.60482e-08
8.6214e-08
8.58505e-08
8.58055e-08
8.19321e-08
8.20775e-08
8.17223e-08
7.81907e-08
7.94201e-08
7.86755e-08
7.9729e-08
8.20934e-08
7.99949e-08
8.36648e-08
8.27414e-08
8.3913e-08
8.30387e-08
8.10374e-08
8.03032e-08
8.04919e-08
7.92583e-08
8.07982e-08
7.90526e-08
8.60303e-08
8.58422e-08
8.46665e-08
8.51115e-08
8.61988e-08
8.6495e-08
7.97651e-08
8.22472e-08
8.17591e-08
8.21071e-08
8.02662e-08
8.08344e-08
8.19818e-08
7.97797e-08
8.06322e-08
8.25962e-08
8.08582e-08
8.10373e-08
8.12637e-08
8.18884e-08
8.38592e-08
8.54524e-08
8.55857e-08
8.50619e-08
8.49114e-08
8.58127e-08
8.6095e-08
8.55218e-08
8.5822e-08
8.60419e-08
8.5396e-08
8.64444e-08
8.6534e-08
8.66268e-08
8.41569e-08
8.46226e-08
8.53173e-08
8.34814e-08
8.48857e-08
8.4812e-08
8.62312e-08
8.60891e-08
8.59645e-08
8.5268e-08
8.53072e-08
8.54267e-08
8.46638e-08
8.51999e-08
8.56246e-08
8.56656e-08
8.55029e-08
8.58743e-08
8.62097e-08
8.58806e-08
8.61017e-08
8.58738e-08
8.6041e-08
8.65651e-08
8.50732e-08
8.55804e-08
8.61666e-08
8.65457e-08
8.59244e-08
8.57247e-08
8.21543e-08
8.19709e-08
8.00601e-08
7.90005e-08
8.12362e-08
7.83842e-08
8.03585e-08
8.08326e-08
8.1436e-08
8.22959e-08
8.34509e-08
8.37343e-08
8.02536e-08
8.13873e-08
7.97079e-08
8.03516e-08
7.78296e-08
8.10646e-08
8.16455e-08
8.60448e-08
8.46856e-08
8.40299e-08
8.64444e-08
8.54781e-08
8.66303e-08
8.10561e-08
7.98025e-08
8.09208e-08
8.08304e-08
8.02825e-08
8.16208e-08
8.07347e-08
8.19927e-08
7.9178e-08
8.20116e-08
8.29453e-08
8.10027e-08
7.95284e-08
8.23719e-08
8.11696e-08
8.27115e-08
8.52218e-08
8.56108e-08
8.56498e-08
8.58643e-08
8.58002e-08
8.58027e-08
8.56957e-08
8.63413e-08
8.62222e-08
8.65665e-08
8.62819e-08
8.6193e-08
8.65256e-08
8.55405e-08
8.55057e-08
8.43876e-08
8.4525e-08
8.35207e-08
8.37533e-08
8.35266e-08
8.61844e-08
8.59456e-08
8.4529e-08
8.53737e-08
8.54312e-08
8.53032e-08
8.53133e-08
8.56261e-08
8.5528e-08
8.54107e-08
8.58736e-08
8.62113e-08
8.58723e-08
8.61161e-08
8.59539e-08
8.60789e-08
8.53816e-08
8.62691e-08
8.69468e-08
8.62382e-08
8.58839e-08
8.57002e-08
8.21764e-08
8.12808e-08
8.03043e-08
7.91923e-08
8.04909e-08
8.07814e-08
8.01647e-08
7.99774e-08
8.10145e-08
8.16021e-08
8.08839e-08
8.17268e-08
8.32224e-08
8.08536e-08
8.15325e-08
7.89558e-08
7.79383e-08
8.16715e-08
7.88694e-08
8.16727e-08
8.10094e-08
8.52898e-08
8.44195e-08
8.48439e-08
8.39834e-08
8.50571e-08
8.52719e-08
8.55556e-08
7.96853e-08
8.1027e-08
8.09494e-08
7.91681e-08
7.94243e-08
8.06075e-08
8.0315e-08
8.03678e-08
8.07847e-08
8.26249e-08
8.2585e-08
8.0761e-08
8.05834e-08
8.10262e-08
8.13796e-08
8.5545e-08
8.60578e-08
8.58662e-08
8.49567e-08
8.60354e-08
8.49822e-08
8.63567e-08
8.53961e-08
8.62919e-08
8.63031e-08
8.60177e-08
8.62901e-08
8.62056e-08
8.66837e-08
8.54534e-08
8.44005e-08
8.44875e-08
8.37223e-08
7.88551e-08
8.31864e-08
8.38104e-08
8.61887e-08
8.59208e-08
8.54025e-08
8.57318e-08
8.56961e-08
8.59087e-08
8.61945e-08
8.50981e-08
8.42945e-08
8.46913e-08
8.6345e-08
8.65879e-08
8.60694e-08
8.59226e-08
8.58395e-08
8.59524e-08
8.57292e-08
8.60083e-08
8.69417e-08
8.55751e-08
8.61066e-08
8.58217e-08
8.56848e-08
7.96019e-08
8.14863e-08
8.06596e-08
7.98148e-08
7.87721e-08
7.99496e-08
7.88104e-08
8.03464e-08
7.97336e-08
8.15294e-08
8.2e-08
8.20847e-08
8.06745e-08
8.11563e-08
8.05867e-08
7.8137e-08
7.80476e-08
7.851e-08
7.72326e-08
7.9754e-08
7.76152e-08
8.51082e-08
8.35961e-08
8.36348e-08
8.24238e-08
8.51661e-08
8.60218e-08
8.54896e-08
7.89645e-08
8.016e-08
7.99943e-08
7.82583e-08
7.91745e-08
7.68099e-08
8.07021e-08
8.09885e-08
8.08407e-08
8.19291e-08
8.11642e-08
8.11778e-08
8.09276e-08
8.01579e-08
8.28202e-08
8.51837e-08
8.63237e-08
8.55847e-08
8.624e-08
8.49618e-08
8.51519e-08
8.49355e-08
8.64027e-08
8.59756e-08
8.53321e-08
8.58984e-08
8.59548e-08
8.60041e-08
8.59452e-08
8.66787e-08
8.57594e-08
8.56408e-08
8.5736e-08
8.42119e-08
8.36029e-08
8.30285e-08
8.15169e-08
8.42395e-08
8.2639e-08
8.23516e-08
8.52542e-08
8.56124e-08
8.6199e-08
8.59784e-08
8.66237e-08
8.53495e-08
8.44899e-08
8.66266e-08
8.63355e-08
8.64961e-08
8.6071e-08
8.59451e-08
8.64891e-08
8.61849e-08
8.57836e-08
8.59926e-08
8.55103e-08
8.5792e-08
8.60838e-08
8.53578e-08
8.53512e-08
7.94372e-08
7.85263e-08
7.83183e-08
8.05089e-08
7.79198e-08
7.76272e-08
7.96405e-08
7.9367e-08
7.83584e-08
7.95871e-08
7.90908e-08
8.12173e-08
8.16346e-08
8.21522e-08
8.10012e-08
8.09605e-08
8.04485e-08
8.10834e-08
7.80923e-08
8.21065e-08
8.01193e-08
7.75927e-08
7.93388e-08
7.76073e-08
7.86578e-08
8.4636e-08
8.60695e-08
8.3651e-08
8.30819e-08
8.35901e-08
8.23741e-08
8.58977e-08
8.6024e-08
8.51195e-08
8.66177e-08
8.00373e-08
8.13541e-08
8.01371e-08
7.64624e-08
7.8922e-08
8.05532e-08
7.73182e-08
8.06295e-08
8.01068e-08
7.99249e-08
8.03097e-08
8.14731e-08
8.10421e-08
7.94755e-08
8.22049e-08
8.21516e-08
8.63012e-08
8.58559e-08
8.49822e-08
8.59929e-08
8.55875e-08
8.43548e-08
8.63754e-08
8.59179e-08
8.60022e-08
8.56906e-08
8.59475e-08
8.59258e-08
8.59198e-08
8.64182e-08
8.58955e-08
8.53421e-08
8.44969e-08
8.37496e-08
7.94266e-08
8.15525e-08
8.33011e-08
7.926e-08
8.55341e-08
8.65093e-08
8.66751e-08
8.6647e-08
8.6636e-08
8.66347e-08
8.664e-08
8.66559e-08
8.61935e-08
8.63299e-08
8.61697e-08
8.53571e-08
8.51141e-08
8.59753e-08
8.59351e-08
8.59554e-08
8.58634e-08
8.65112e-08
7.91926e-08
7.74542e-08
7.88287e-08
7.65689e-08
7.72629e-08
8.00782e-08
7.77725e-08
7.73514e-08
7.63928e-08
8.12607e-08
8.04384e-08
8.05558e-08
8.18621e-08
8.18134e-08
8.09351e-08
8.10222e-08
8.09586e-08
8.21264e-08
7.62312e-08
7.92807e-08
7.94022e-08
7.82907e-08
7.74056e-08
8.46919e-08
8.55435e-08
8.25945e-08
8.36165e-08
8.28302e-08
7.96119e-08
8.50195e-08
8.60025e-08
8.58881e-08
8.04248e-08
8.04845e-08
7.94921e-08
7.83016e-08
7.95536e-08
7.75936e-08
7.86891e-08
8.11063e-08
7.99431e-08
8.09042e-08
8.02312e-08
8.16071e-08
7.9913e-08
8.05206e-08
8.04092e-08
8.22198e-08
8.62292e-08
8.57933e-08
8.59039e-08
8.59614e-08
8.60289e-08
8.63291e-08
8.6562e-08
8.63206e-08
8.55644e-08
8.61515e-08
8.51381e-08
8.57117e-08
8.56276e-08
8.64091e-08
8.61337e-08
8.44926e-08
8.39797e-08
8.34792e-08
8.21706e-08
8.23623e-08
8.40348e-08
8.261e-08
8.3932e-08
8.27505e-08
8.54175e-08
8.64151e-08
8.57556e-08
8.66407e-08
8.66471e-08
8.60893e-08
8.59311e-08
8.5888e-08
8.58917e-08
8.58939e-08
8.60521e-08
8.55034e-08
8.65123e-08
7.93782e-08
8.00305e-08
7.93087e-08
7.72998e-08
7.9597e-08
8.0203e-08
7.80999e-08
7.79587e-08
8.05162e-08
7.96442e-08
8.04444e-08
8.19339e-08
8.10855e-08
7.93447e-08
7.86234e-08
7.88003e-08
8.02767e-08
7.81611e-08
7.86447e-08
7.6467e-08
7.85731e-08
7.82239e-08
7.84741e-08
7.77673e-08
8.45125e-08
8.53592e-08
8.18752e-08
8.10315e-08
8.37034e-08
8.35018e-08
7.92408e-08
8.01719e-08
8.60506e-08
8.59042e-08
8.6181e-08
8.65983e-08
7.96179e-08
7.93325e-08
7.88717e-08
8.00911e-08
7.87721e-08
7.85594e-08
7.93861e-08
7.93612e-08
7.83434e-08
7.82086e-08
8.13658e-08
7.94229e-08
7.93136e-08
8.12412e-08
8.02869e-08
8.6146e-08
8.51787e-08
8.58527e-08
8.67462e-08
8.63446e-08
8.65575e-08
8.55376e-08
8.50601e-08
8.61767e-08
8.56031e-08
8.62801e-08
8.58163e-08
8.54972e-08
8.48114e-08
8.5691e-08
8.37873e-08
8.35504e-08
7.93458e-08
7.99053e-08
8.19608e-08
7.95816e-08
8.66482e-08
8.66396e-08
8.66442e-08
8.52592e-08
8.61419e-08
8.59543e-08
8.59102e-08
8.58883e-08
8.57097e-08
8.63319e-08
7.655e-08
7.92126e-08
7.98219e-08
7.76881e-08
7.90502e-08
7.65841e-08
7.644e-08
7.73537e-08
7.87764e-08
7.8092e-08
8.07053e-08
8.01319e-08
8.00774e-08
7.94407e-08
8.01662e-08
7.93768e-08
7.84866e-08
8.0251e-08
7.93574e-08
7.68151e-08
7.75938e-08
7.84129e-08
7.86378e-08
8.28151e-08
8.33043e-08
7.96092e-08
8.16468e-08
8.19399e-08
8.34453e-08
7.97785e-08
8.05208e-08
8.56127e-08
8.53505e-08
8.53414e-08
8.53396e-08
8.00125e-08
7.84092e-08
7.85888e-08
7.98084e-08
7.85748e-08
7.95889e-08
7.95099e-08
7.87393e-08
7.99182e-08
8.08832e-08
7.99389e-08
7.90365e-08
7.93539e-08
8.09147e-08
8.07947e-08
8.17821e-08
8.53603e-08
8.58137e-08
8.67025e-08
8.53923e-08
8.5678e-08
8.48549e-08
8.51493e-08
8.6685e-08
8.66654e-08
8.62686e-08
8.52262e-08
8.61904e-08
8.59927e-08
8.40227e-08
8.41326e-08
8.34809e-08
8.26374e-08
8.24215e-08
8.04399e-08
8.04043e-08
8.23682e-08
8.6147e-08
8.54847e-08
8.64992e-08
8.62749e-08
8.55878e-08
8.66543e-08
7.81083e-08
7.68335e-08
7.92573e-08
7.74263e-08
7.76475e-08
7.55741e-08
7.64e-08
7.79654e-08
7.90855e-08
7.91581e-08
7.88218e-08
7.89934e-08
8.0711e-08
8.01203e-08
7.96201e-08
8.01397e-08
8.01227e-08
7.94067e-08
7.96085e-08
7.95577e-08
7.78163e-08
7.68613e-08
7.84792e-08
7.87274e-08
7.97044e-08
7.79756e-08
8.23795e-08
8.2619e-08
8.37564e-08
8.36995e-08
8.05558e-08
8.17654e-08
8.2127e-08
8.29283e-08
8.0538e-08
8.18961e-08
8.421e-08
8.54852e-08
8.5524e-08
8.58205e-08
8.65508e-08
8.01847e-08
7.71784e-08
7.93999e-08
7.73241e-08
7.60332e-08
7.71987e-08
8.01467e-08
7.77224e-08
7.69401e-08
7.68616e-08
7.9725e-08
7.70041e-08
7.86129e-08
7.96444e-08
8.56229e-08
8.57073e-08
8.5853e-08
8.56355e-08
8.54746e-08
8.50795e-08
8.63215e-08
8.66699e-08
8.62347e-08
8.56817e-08
8.65539e-08
8.58054e-08
8.40547e-08
8.4106e-08
8.32872e-08
8.21297e-08
7.99972e-08
8.28182e-08
8.21308e-08
8.12871e-08
8.27845e-08
8.58054e-08
8.5294e-08
8.66443e-08
8.66393e-08
8.49741e-08
8.45486e-08
7.73509e-08
7.65659e-08
7.87796e-08
7.81307e-08
7.49433e-08
7.72633e-08
7.89038e-08
7.60869e-08
7.85759e-08
7.97477e-08
7.96627e-08
7.96006e-08
8.06116e-08
7.9179e-08
7.92193e-08
7.95635e-08
7.95211e-08
7.92303e-08
7.73557e-08
7.66939e-08
7.84089e-08
7.78963e-08
8.15184e-08
8.349e-08
8.39025e-08
8.3082e-08
8.07214e-08
8.13442e-08
8.17595e-08
8.31637e-08
8.14408e-08
8.15873e-08
8.47633e-08
8.53203e-08
8.51305e-08
8.48193e-08
8.43625e-08
8.45936e-08
7.8238e-08
7.65281e-08
7.44583e-08
7.85844e-08
7.84652e-08
7.78366e-08
7.52886e-08
7.94345e-08
7.87988e-08
7.87914e-08
8.00424e-08
7.8916e-08
8.05121e-08
7.86101e-08
7.89755e-08
7.89999e-08
8.1981e-08
8.5534e-08
8.49854e-08
8.58398e-08
8.66874e-08
8.6677e-08
8.57372e-08
8.57158e-08
8.57582e-08
8.62852e-08
8.52394e-08
8.3315e-08
8.39541e-08
8.49156e-08
8.26219e-08
8.20976e-08
7.90457e-08
8.21511e-08
8.20716e-08
8.18963e-08
8.1967e-08
8.51137e-08
8.51475e-08
8.58303e-08
8.66438e-08
8.45955e-08
8.00173e-08
7.33485e-08
7.47822e-08
7.65121e-08
7.75319e-08
7.90155e-08
7.57562e-08
7.84731e-08
7.71808e-08
7.65304e-08