/*--------------------------------*- C++ -*----------------------------------*\
| =========                 |                                                 |
| \\      /  F ield         | OpenFOAM: The Open Source CFD Toolbox           |
|  \\    /   O peration     | Version:  v2012                                 |
|   \\  /    A nd           | Website:  www.openfoam.com                      |
|    \\/     M anipulation  |                                                 |
\*---------------------------------------------------------------------------*/
FoamFile
{
    version     2.0;
    format      ascii;
    class       volVectorField;
    location    "1";
    object      U;
}
// * * * * * * * * * * * * * * * * * * * * * * * * * * * * * * * * * * * * * //

dimensions      [0 1 -1 0 0 0 0];


internalField   nonuniform List<vector> 
27222
(
(17.9046 0.262792 0)
(17.8969 0.222445 -5.11676e-24)
(17.8362 0.150334 -5.23068e-23)
(17.8794 0.110619 0)
(17.8797 0.145861 7.63877e-23)
(17.8563 0.205934 1.76438e-22)
(17.8907 0.10322 -6.57487e-23)
(17.8775 0.132881 0)
(17.8609 0.290161 -3.05371e-22)
(17.8704 0.112164 -1.09787e-23)
(17.8108 0.146058 -2.0678e-22)
(17.9017 0.111105 3.00474e-23)
(17.8668 0.146352 -2.79937e-23)
(17.9157 0.110602 -4.27436e-23)
(17.829 0.202458 1.03413e-22)
(17.8797 0.126716 -2.33651e-23)
(17.8763 0.078794 4.66949e-23)
(17.8315 0.201723 1.27416e-22)
(17.9306 0.122983 0)
(17.8762 0.135027 4.27865e-23)
(17.9124 0.0991018 -5.02455e-23)
(17.921 0.116048 -4.43687e-23)
(17.8501 0.29489 0)
(17.8847 0.101193 9.85989e-23)
(17.8671 0.134746 2.73723e-23)
(17.9006 0.0905783 -1.15179e-23)
(17.8038 0.141765 -1.24415e-22)
(17.9366 0.103689 -9.18724e-24)
(17.9045 0.115378 -4.52091e-23)
(17.913 0.10477 1.72528e-23)
(17.908 0.100879 0)
(17.923 0.0966911 -3.12862e-23)
(17.8287 0.227826 0)
(17.8768 0.119848 0)
(17.8606 0.148733 -1.87908e-23)
(17.9347 0.106856 8.32108e-24)
(17.8757 0.0732435 1.81039e-23)
(17.8307 0.202753 1.44161e-22)
(17.9335 0.0975923 -1.63861e-23)
(17.8964 0.12167 -3.77799e-24)
(17.8969 0.106528 0)
(17.9045 0.0944114 0)
(17.9132 0.0947165 0)
(17.9166 0.0960152 1.12652e-23)
(17.8685 0.13219 0)
(17.873 0.332546 0)
(17.88 0.144608 0)
(17.8804 0.134436 -3.0849e-23)
(17.9461 0.0937 -2.04488e-26)
(17.9088 0.0937535 3.01724e-23)
(17.8111 0.130261 0)
(17.9343 0.0908625 -1.43826e-23)
(17.8858 0.119515 -6.27317e-24)
(17.8956 0.096074 0)
(17.8874 0.108839 1.47954e-23)
(17.9078 0.0848432 0)
(17.914 0.0861982 -2.73084e-25)
(17.9201 0.0886351 8.55985e-25)
(17.8589 0.158906 0)
(17.8496 0.242854 -2.21203e-23)
(17.8712 0.153024 5.71703e-23)
(17.8749 0.137043 7.0675e-23)
(17.9443 0.0948392 8.67153e-24)
(17.9417 0.087644 1.44588e-23)
(17.8936 0.0746385 -1.41411e-23)
(17.8361 0.174172 2.38598e-22)
(17.9262 0.0869239 -3.68554e-24)
(17.8753 0.119891 0)
(17.8916 0.0893069 0)
(17.881 0.100263 1.35264e-23)
(17.9062 0.081215 0)
(17.9181 0.0832208 -3.61589e-23)
(17.8587 0.174667 -3.91301e-24)
(17.8459 0.143932 -6.47224e-23)
(17.9184 0.359785 -3.60481e-22)
(17.8695 0.143391 3.1705e-23)
(17.8708 0.129438 9.54796e-24)
(17.9526 0.0829282 0)
(17.9423 0.0820123 1.19079e-23)
(17.9424 0.077327 0)
(17.8146 0.120601 -2.96836e-22)
(17.9283 0.0795215 0)
(17.8689 0.112408 -9.25354e-24)
(17.8845 0.0915585 0)
(17.897 0.0823324 4.76546e-24)
(17.8739 0.102596 -6.36619e-24)
(17.9108 0.0737477 -1.839e-25)
(17.9224 0.076578 -2.24171e-23)
(17.8546 0.174427 -4.39036e-23)
(17.8339 0.171193 2.54314e-23)
(17.8641 0.227279 4.9049e-22)
(17.8628 0.149276 -2.12981e-23)
(17.8599 0.131564 2.17466e-23)
(17.9538 0.0793049 3.69365e-24)
(17.934 0.0785458 -4.5292e-24)
(17.9466 0.0784969 -4.75452e-24)
(17.9431 0.0629732 0)
(17.9311 0.0590377 1.12461e-23)
(17.8239 0.172764 1.52613e-22)
(17.9287 0.0743984 0)
(17.8622 0.111305 0)
(17.8827 0.0873954 1.01374e-23)
(17.8963 0.0768598 3.27761e-24)
(17.8695 0.0964196 2.16354e-23)
(17.9068 0.0692387 -1.65168e-24)
(17.9146 0.0706602 -9.62128e-24)
(17.92 0.0701736 0)
(17.8597 0.157165 -3.142e-23)
(17.8415 0.179871 -1.56501e-23)
(17.821 0.138969 -2.13214e-22)
(17.9269 0.376764 0)
(17.8557 0.143972 -1.46617e-23)
(17.8513 0.126685 2.08764e-23)
(17.9536 0.0739076 -1.39457e-25)
(17.9353 0.0723164 -8.40571e-24)
(17.941 0.072171 -6.1381e-24)
(17.9524 0.0736346 -8.46668e-25)
(17.9509 0.0631729 -1.17666e-23)
(17.8197 0.110463 -6.561e-23)
(17.9335 0.0687551 0)
(17.8572 0.11609 0)
(17.863 0.100612 0)
(17.8742 0.0891366 2.40401e-23)
(17.8865 0.0782355 8.82991e-24)
(17.8926 0.0738826 1.01663e-23)
(17.9021 0.0696114 -3.69588e-24)
(17.9115 0.0646013 -2.78212e-23)
(17.9258 0.0621522 0)
(17.8496 0.15965 1.57121e-23)
(17.8494 0.199714 7.02783e-23)
(17.8472 0.175808 -5.85779e-23)
(17.8877 0.329162 0)
(17.8465 0.148273 -2.1935e-23)
(17.8444 0.127207 0)
(17.9465 0.0687246 2.80393e-23)
(17.938 0.0685141 6.84167e-24)
(17.9549 0.0702199 7.4816e-24)
(17.9246 0.0474084 0)
(17.9614 0.0765938 5.0854e-25)
(17.8355 0.167566 1.5975e-22)
(17.9329 0.0627722 0)
(17.852 0.112192 1.19687e-23)
(17.8552 0.0966121 1.88713e-23)
(17.8708 0.0800279 -4.22102e-23)
(17.878 0.0727393 1.25131e-23)
(17.8958 0.0657495 -7.52752e-24)
(17.9022 0.0634314 -4.21987e-24)
(17.9158 0.0598805 -9.51698e-24)
(17.9258 0.0561774 0)
(17.8428 0.161789 5.61391e-23)
(17.8434 0.185078 4.94925e-23)
(17.8332 0.176815 2.83681e-23)
(17.8782 0.205104 1.02044e-21)
(17.8379 0.143872 7.39052e-23)
(17.837 0.135394 6.08443e-23)
(17.8452 0.119321 0)
(17.9471 0.0642666 1.57468e-23)
(17.9424 0.0631622 1.13084e-23)
(17.9517 0.0607902 0)
(17.9543 0.0591356 0)
(17.9629 0.0667925 -1.75156e-23)
(17.8376 0.104884 0)
(17.9377 0.0562368 -2.32512e-24)
(17.8488 0.102784 4.45617e-24)
(17.8556 0.088276 4.73645e-23)
(17.8639 0.0792062 -5.27383e-23)
(17.8799 0.0652124 1.07667e-23)
(17.8901 0.061202 -1.78962e-23)
(17.9071 0.0578481 0)
(17.9212 0.0553822 0)
(17.9135 0.0566626 -2.32348e-24)
(17.9321 0.0505881 0)
(17.8342 0.16261 1.52764e-23)
(17.8301 0.183507 -9.70442e-23)
(17.8075 0.190551 -8.23177e-23)
(17.8432 0.150777 2.85746e-22)
(17.8319 0.440387 -7.08908e-22)
(17.8306 0.150819 -2.68815e-23)
(17.8262 0.131342 0)
(17.8371 0.114526 0)
(17.9513 0.0603905 0)
(17.9467 0.0622392 2.32428e-24)
(17.9424 0.0569952 2.22779e-24)
(17.9586 0.0601061 0)
(17.9346 0.042948 0)
(17.9655 0.0690135 -1.89995e-25)
(17.8525 0.16175 0)
(17.9374 0.0514847 -2.29848e-24)
(17.8381 0.104635 -1.81976e-23)
(17.8475 0.0819907 3.18637e-23)
(17.8618 0.0687922 -1.01101e-23)
(17.8768 0.060273 0)
(17.8923 0.0541359 -3.96402e-24)
(17.9039 0.0508528 5.75047e-26)
(17.9207 0.0470706 0)
(17.9161 0.0482731 9.483e-24)
(17.9324 0.0444586 -3.08429e-24)
(17.828 0.172108 0)
(17.8311 0.175018 0)
(17.789 0.21689 6.15193e-23)
(17.8603 0.193195 0)
(17.7975 0.316101 3.81345e-22)
(17.8216 0.150293 0)
(17.8182 0.139939 0)
(17.8272 0.119933 0)
(17.9556 0.0559421 0)
(17.9506 0.0552174 0)
(17.9467 0.052667 2.73516e-24)
(17.9593 0.0567611 9.74894e-25)
(17.9653 0.0541525 -9.44219e-24)
(17.9687 0.0586289 -1.86738e-23)
(17.8604 0.110139 0)
(17.942 0.046094 2.90397e-26)
(17.8348 0.0994708 -2.69239e-23)
(17.8508 0.0701894 -1.1804e-23)
(17.8397 0.087263 1.39233e-23)
(17.8685 0.0605236 1.23679e-23)
(17.882 0.0501733 0)
(17.8893 0.0487304 -2.9895e-24)
(17.8991 0.0497963 -4.62937e-24)
(17.9107 0.0451292 1.04727e-23)
(17.926 0.0426016 -5.97001e-24)
(17.9377 0.0391656 -1.28301e-23)
(17.8202 0.171226 -2.87169e-23)
(17.8307 0.180557 1.3906e-22)
(17.8091 0.207409 9.65258e-23)
(17.9073 0.1722 2.13728e-22)
(17.8007 0.226761 -7.8065e-23)
(17.7966 0.461117 0)
(17.8166 0.159302 3.88922e-23)
(17.8083 0.139316 -5.8538e-24)
(17.8187 0.113415 -4.22762e-23)
(17.9537 0.0528198 9.13855e-24)
(17.9592 0.0532208 9.64959e-25)
(17.9482 0.0483093 1.54214e-25)
(17.9608 0.05496 7.44036e-25)
(17.9638 0.0545725 1.56998e-24)
(17.9561 0.0398272 0)
(17.8786 0.189128 3.382e-22)
(17.945 0.024578 0)
(17.946 0.0459189 -5.77548e-24)
(17.9418 0.0405152 -1.13893e-23)
(17.824 0.102083 -1.08285e-23)
(17.846 0.0656706 0)
(17.8313 0.0828304 5.38351e-24)
(17.8659 0.0518425 8.30958e-24)
(17.8774 0.0409664 1.02945e-23)
(17.8936 0.0413052 -2.53213e-24)
(17.9005 0.0424997 -1.32735e-24)
(17.9129 0.0394469 0)
(17.9263 0.0375752 0)
(17.9373 0.0339717 -5.99122e-24)
(17.8111 0.180197 -2.90978e-23)
(17.816 0.185982 -2.38872e-23)
(17.7967 0.201287 -2.01798e-23)
(17.8694 0.123708 -4.5691e-23)
(17.79 0.234114 -1.33969e-22)
(17.7959 0.277507 -1.32163e-22)
(17.8041 0.160057 7.42291e-23)
(17.8011 0.126387 4.87059e-23)
(17.8017 0.151216 1.36511e-23)
(17.8074 0.114538 -5.37894e-23)
(17.9556 0.0478612 7.63342e-24)
(17.9623 0.0472374 0)
(17.9532 0.0455486 -6.72263e-24)
(17.9647 0.0501369 -1.77919e-24)
(17.9673 0.0510445 -2.52578e-26)
(17.9639 0.0655306 -2.38237e-23)
(17.928 0.0730794 -2.65398e-22)
(17.9536 0.0524985 0)
(17.9489 0.0399929 -5.45036e-24)
(17.9461 0.0371381 -6.21574e-24)
(17.8234 0.0930362 3.60373e-24)
(17.836 0.0637232 0)
(17.8522 0.0554028 -8.78629e-24)
(17.8286 0.072636 -3.3629e-23)
(17.8704 0.0418641 2.02147e-23)
(17.8587 0.0504162 -9.18758e-24)
(17.8829 0.0330971 8.32946e-24)
(17.8919 0.0352195 -6.04663e-24)
(17.9064 0.0379153 -1.10942e-24)
(17.9181 0.0335261 0)
(17.9332 0.0330357 -6.66172e-24)
(17.9233 0.0336817 0)
(17.9422 0.0288613 -9.49233e-25)
(17.8008 0.171507 2.11741e-23)
(17.8121 0.197112 -4.7453e-24)
(17.8022 0.20088 1.01714e-22)
(17.833 0.191023 1.76031e-23)
(17.7986 0.215215 0)
(17.8656 0.395277 3.76885e-22)
(17.7906 0.13 5.65494e-23)
(17.7933 0.152422 0)
(17.804 0.103619 -8.28938e-24)
(17.9599 0.0450105 0)
(17.9658 0.0456447 -1.74338e-23)
(17.9553 0.0405273 -6.83132e-24)
(17.9661 0.0504344 -4.14957e-25)
(17.9714 0.0510132 -5.31577e-23)
(17.9598 0.0585177 1.99655e-23)
(17.9359 0.118507 9.1921e-23)
(17.9529 0.0379393 3.26931e-26)
(17.9489 0.0331608 -8.84789e-24)
(17.8127 0.0921205 0)
(17.8344 0.0514932 0)
(17.843 0.0463398 -4.00675e-24)
(17.8185 0.0721832 -7.06797e-23)
(17.8622 0.0346446 3.53028e-23)
(17.8555 0.0388123 3.86865e-23)
(17.8808 0.0251885 -9.87759e-24)
(17.8975 0.0286337 5.33326e-24)
(17.9056 0.0302847 1.4191e-23)
(17.9165 0.0259054 0)
(17.9325 0.027572 3.77996e-24)
(17.9273 0.026769 2.93035e-24)
(17.9406 0.0236484 -2.6665e-24)
(17.9469 0.0292901 -3.83013e-24)
(17.7937 0.176798 -8.53874e-23)
(17.8057 0.1963 -1.70099e-23)
(17.7998 0.207264 -1.03278e-22)
(17.8368 0.191359 0)
(17.8055 0.226344 1.22906e-22)
(17.8434 0.329349 1.65043e-24)
(17.7871 0.141527 0)
(17.7808 0.122883 0)
(17.7841 0.16313 -3.4767e-23)
(17.7925 0.100476 0)
(17.9617 0.0405285 4.02402e-24)
(17.9691 0.0422117 -1.36817e-23)
(17.9596 0.0380458 4.01212e-24)
(17.969 0.0465759 -2.21862e-25)
(17.9756 0.0467642 -8.77428e-24)
(17.97 0.0481103 0)
(17.978 0.0471919 2.41714e-23)
(17.9272 0.128679 0)
(17.9555 0.0331256 0)
(17.9536 0.0309596 0)
(17.8093 0.0829027 -1.48118e-23)
(17.826 0.0472648 1.07346e-24)
(17.8448 0.0374346 3.65009e-23)
(17.8127 0.0619936 -1.36874e-23)
(17.8649 0.0261346 5.19766e-23)
(17.8883 0.0190812 -2.45782e-23)
(17.8739 0.0209771 1.81831e-23)
(17.8955 0.0225787 -1.43965e-23)
(17.9108 0.0242727 4.9166e-24)
(17.9206 0.021224 0)
(17.9359 0.0231223 -2.54621e-24)
(17.9259 0.0232914 8.51071e-25)
(17.944 0.0196956 9.52001e-25)
(17.9505 0.0241451 0)
(17.7932 0.187516 -1.27869e-23)
(17.7834 0.172224 -5.25125e-23)
(17.8001 0.205255 -1.49156e-23)
(17.7977 0.221077 -1.54947e-22)
(17.8219 0.210009 0)
(17.8007 0.23072 1.32175e-22)
(17.895 0.229727 -6.20184e-24)
(17.7748 0.142952 -8.1294e-24)
(17.7711 0.133426 -8.85495e-24)
(17.783 0.110833 0)
(17.7718 0.156754 0)
(17.7888 0.0872568 -5.10898e-23)
(17.9658 0.0378328 6.3422e-24)
(17.9686 0.0389463 6.80366e-24)
(17.9721 0.0421932 7.67617e-24)
(17.9619 0.0332953 0)
(17.9716 0.0464395 2.33006e-25)
(17.9765 0.0448224 -1.00823e-23)
(17.976 0.049243 -7.64565e-24)
(17.9827 0.0439995 0)
(17.9325 0.0734944 3.64591e-23)
(17.9598 0.0309768 0)
(17.9549 0.0258335 0)
(17.7988 0.0783024 -1.85246e-24)
(17.8227 0.0352102 1.64918e-24)
(17.8171 0.052203 0)
(17.84 0.031015 -1.56666e-23)
(17.7994 0.0669426 -3.36067e-24)
(17.857 0.0190939 3.11101e-23)
(17.8877 0.0120769 0)
(17.8753 0.00983366 -8.32321e-23)
(17.9011 0.0170373 0)
(17.9074 0.0187728 -4.41641e-24)
(17.9203 0.0157074 -2.71981e-25)
(17.9344 0.0180935 -2.65557e-24)
(17.9296 0.0182077 5.80566e-24)
(17.9433 0.0137074 0)
(17.9495 0.0199839 0)
(17.7806 0.192443 -1.89064e-23)
(17.7761 0.183268 0)
(17.8003 0.21964 -2.52239e-23)
(17.7814 0.203345 -2.32433e-23)
(17.8167 0.263185 7.65116e-24)
(17.7983 0.239277 1.12137e-22)
(17.6863 0.344042 0)
(17.9183 0.188699 -9.36582e-23)
(17.7586 0.132905 0)
(17.7663 0.104912 -3.85969e-23)
(17.76 0.159945 1.02109e-23)
(17.777 0.0796298 -5.35907e-23)
(17.9677 0.0329473 7.33259e-24)
(17.9727 0.0341226 1.10107e-23)
(17.9752 0.0388436 8.28482e-24)
(17.966 0.0309473 0)
(17.9734 0.0420354 2.36288e-24)
(17.976 0.0424743 0)
(17.9791 0.0474769 0)
(17.9865 0.0559507 0)
(17.9672 0.0312111 0)
(17.9433 0.118005 -1.00797e-22)
(17.9619 0.0262901 -5.30385e-25)
(17.9585 0.0235189 -2.60764e-24)
(17.8092 0.0320083 -2.372e-23)
(17.8297 0.0283853 -2.82018e-23)
(17.8057 0.0420957 -1.36685e-23)
(17.8471 0.020735 0)
(17.7891 0.0577998 0)
(17.8608 0.00833946 -2.02677e-24)
(17.8952 0.00666369 2.06183e-24)
(17.8828 0.00640185 -6.38267e-24)
(17.87 0.00519293 -6.64387e-23)
(17.9003 0.00959475 0)
(17.9107 0.0126047 -4.61521e-24)
(17.9162 0.0115153 1.02832e-24)
(17.9263 0.0132246 4.89772e-24)
(17.9382 0.0131776 -3.17785e-25)
(17.9475 0.00957696 0)
(17.9532 0.0156062 2.12931e-24)
(17.7631 0.186554 0)
(17.7898 0.229281 -2.21529e-23)
(17.7717 0.21072 0)
(17.7981 0.272273 7.9173e-23)
(17.7937 0.24575 0)
(18.011 0.650496 0)
(17.9459 0.196079 4.32672e-23)
(17.7515 0.147552 1.05198e-23)
(17.7544 0.117991 -1.09507e-22)
(17.7639 0.0899071 1.01568e-22)
(17.7544 0.175937 9.26671e-23)
(17.7762 0.0646438 -8.82162e-23)
(17.9718 0.0310442 3.86338e-24)
(17.9755 0.0342138 0)
(17.9768 0.0387432 3.92289e-24)
(17.9687 0.0267593 -8.00943e-25)
(17.9787 0.0411493 0)
(17.9851 0.0475096 8.66398e-24)
(17.9858 0.0461739 0)
(17.9792 0.0460103 0)
(17.9391 0.0657765 -2.18319e-23)
(17.966 0.0240072 -3.86439e-24)
(17.9602 0.0194634 -2.63207e-24)
(17.8082 0.0191758 -4.71371e-24)
(17.8311 0.0156731 1.26213e-23)
(17.7926 0.0444298 2.43485e-24)
(17.8405 0.0107626 -1.10488e-23)
(17.8563 0.00180809 -9.66279e-24)
(17.8953 -0.000691703 -1.64101e-23)
(17.8875 -0.001183 0)
(17.8707 -0.00468573 0)
(17.9063 0.00636183 0)
(17.9195 0.00479811 -1.11906e-23)
(17.9291 0.0087615 -3.54145e-24)
(17.9354 0.00794755 -3.778e-25)
(17.9521 0.0115773 0)
(17.9472 0.00528239 -1.69573e-24)
(17.9573 0.0159477 -5.2159e-24)
(17.7609 0.201536 0)
(17.7907 0.241709 0)
(17.7736 0.223542 1.00736e-22)
(17.7866 0.282011 -1.74452e-22)
(17.7935 0.262 0)
(18.0127 0.406625 5.28423e-22)
(17.8376 0.274256 9.11882e-23)
(17.7373 0.148313 0)
(17.7377 0.115966 -7.40863e-23)
(17.7486 0.0812091 1.00599e-22)
(17.7366 0.180574 1.08961e-22)
(17.7637 0.0525377 -8.23976e-23)
(17.9739 0.0272093 0)
(17.9786 0.0307693 0)
(17.9801 0.0354094 5.22367e-24)
(17.9724 0.0246792 -4.45978e-24)
(17.9816 0.0372356 0)
(17.9877 0.0385327 6.95234e-24)
(17.9919 0.0409242 0)
(17.9784 0.0366241 5.95071e-24)
(17.9476 0.0873008 2.60165e-23)
(17.9674 0.0195002 -4.77024e-24)
(17.9644 0.0174959 -1.12474e-24)
(17.792 0.016548 1.7056e-23)
(17.8198 0.00908365 0)
(17.7839 0.0297284 -3.43857e-25)
(17.8461 0.00239997 -2.49899e-23)
(17.862 -0.00616181 0)
(17.9002 -0.00523402 -1.85169e-23)
(17.885 -0.00904064 -1.85139e-24)
(17.8766 -0.0107025 -1.62489e-23)
(17.9098 0.000740437 -2.25869e-24)
(17.9167 -0.000340405 -1.348e-23)
(17.926 0.00397393 -4.97539e-24)
(17.9385 0.00281104 -6.62341e-24)
(17.9556 0.00731719 2.08174e-24)
(17.9531 0.00318404 1.53022e-24)
(17.944 0.00183707 -9.03842e-24)
(17.9597 0.0113866 -2.18598e-24)
(17.7475 0.208327 0)
(17.7822 0.256387 0)
(17.7619 0.23406 7.30721e-23)
(17.7891 0.273282 -1.74504e-22)
(17.7868 0.267327 0)
(17.903 0.412671 5.75933e-22)
(17.8309 0.308653 0)
(17.7275 0.167831 1.6578e-23)
(17.7282 0.13291 -7.39302e-23)
(17.7281 0.104614 -3.67347e-23)
(17.7354 0.0876807 0)
(17.7495 0.0600797 0)
(17.7317 0.197342 0)
(17.7681 0.0334824 -3.69862e-25)
(17.977 0.0249693 0)
(17.9813 0.0324349 0)
(17.9794 0.0273589 1.65627e-24)
(17.9824 0.0347829 6.5953e-24)
(17.9748 0.019841 -3.62623e-24)
(17.9852 0.0349443 0)
(17.9869 0.0362424 0)
(17.9936 0.0377352 0)
(17.996 0.0348614 0)
(17.948 0.0530086 1.04357e-22)
(17.9715 0.0174435 0)
(17.9641 0.0125769 -1.71311e-24)
(17.7856 0.00556666 5.34085e-23)
(17.82 -0.00170065 6.01644e-23)
(17.8407 -0.00575608 0)
(17.8564 -0.0147341 5.48162e-24)
(17.8985 -0.0144674 -1.00471e-23)
(17.9069 -0.00426215 0)
(17.8911 -0.0173777 2.44395e-23)
(17.8715 -0.0212511 -9.12652e-24)
(17.9204 -0.0064325 1.82447e-24)
(17.9295 -0.00172555 -2.60182e-24)
(17.9356 -0.00236861 -1.17501e-24)
(17.9598 0.00737365 1.24145e-24)
(17.9555 -0.00114358 2.86748e-24)
(17.9468 -0.00388831 1.66754e-24)
(17.7474 0.226979 0)
(17.7643 0.251903 -3.30356e-22)
(17.7864 0.283617 -1.81571e-22)
(17.7874 0.28187 -3.72576e-23)
(17.8563 0.271275 4.67458e-22)
(17.8058 0.288805 0)
(17.7077 0.165371 0)
(17.7124 0.133657 -7.72705e-23)
(17.7075 0.102231 -7.8144e-23)
(17.7206 0.0770396 0)
(17.7358 0.0527477 0)
(17.7175 0.205977 1.72294e-23)
(17.7542 0.0215623 1.34768e-23)
(17.9798 0.0207832 0)
(17.9785 0.0256666 -4.9684e-24)
(17.984 0.0285836 2.85663e-24)
(17.9833 0.0260117 -5.58692e-24)
(17.9858 0.0302764 -3.08024e-24)
(17.9782 0.0181689 0)
(17.9877 0.0299208 0)
(17.9903 0.0322247 0)
(17.9938 0.0330785 0)
(17.9939 0.0255323 -1.49403e-23)
(17.953 0.0772519 1.20953e-23)
(17.9924 0.0205566 -2.49615e-23)
(17.9719 0.0132079 2.43392e-24)
(17.9677 0.0106672 0)
(17.7733 0.00122799 4.01296e-23)
(17.7969 -0.00734165 2.14151e-23)
(17.8083 -0.00950189 0)
(17.8311 -0.0099579 5.7618e-23)
(17.8468 -0.0155661 5.54036e-24)
(17.8616 -0.0228671 -9.19953e-24)
(17.9042 -0.0184239 -1.68668e-23)
(17.9106 -0.0116445 4.83788e-24)
(17.8861 -0.0256865 2.55459e-23)
(17.8762 -0.0280982 2.67349e-24)
(17.9164 -0.0124554 9.26832e-24)
(17.9266 -0.00715132 5.81459e-24)
(17.9382 -0.00776919 8.98244e-25)
(17.9645 0.00348248 5.27147e-24)
(17.9517 -0.0047661 1.22304e-24)
(17.9595 -0.00304256 2.05631e-26)
(17.9434 -0.00810099 2.6543e-24)
(17.733 0.237275 0)
(17.7506 0.264854 -2.90178e-22)
(17.7904 0.290546 -2.72068e-22)
(17.7895 0.288881 0)
(17.7727 0.28939 -1.78061e-23)
(17.8958 0.234405 6.41274e-22)
(17.745 0.615713 0)
(17.796 0.310912 1.23427e-22)
(17.6973 0.180093 1.72421e-23)
(17.7011 0.149036 0)
(17.6977 0.114403 -4.63768e-23)
(17.7021 0.0875095 -1.5374e-24)
(17.7213 0.063207 -1.85612e-23)
(17.7282 0.036766 7.75488e-24)
(17.7017 0.198534 -1.31791e-23)
(17.7164 0.226009 1.20279e-22)
(17.737 0.0234538 -2.54138e-23)
(17.7593 0.00734142 4.96964e-23)
(17.9825 0.0192894 -3.21184e-24)
(17.9826 0.0215203 -5.62079e-24)
(17.9858 0.0282345 6.79391e-24)
(17.9854 0.0230694 -6.31148e-24)
(17.9876 0.0292042 -3.4208e-24)
(17.9803 0.0147013 0)
(17.99 0.0277705 4.51382e-24)
(17.9908 0.0280569 7.28843e-24)
(17.9957 0.0299827 0)
(17.9946 0.0304498 -4.30433e-24)
(17.9603 0.0375185 -9.1634e-23)
(18.0006 0.0210162 -1.92383e-23)
(17.9754 0.0104831 2.75691e-24)
(17.9691 0.00688138 -2.05662e-24)
(17.773 -0.0192489 0)
(17.7844 -0.0226635 -1.80287e-23)
(17.8096 -0.025497 -2.6626e-23)
(17.8298 -0.0229738 0)
(17.8393 -0.026422 0)
(17.8558 -0.0333126 5.72707e-25)
(17.9059 -0.0242837 1.49389e-24)
(17.8905 -0.0322533 2.43641e-23)
(17.8728 -0.0362321 -2.2059e-23)
(17.9195 -0.0185578 6.68541e-24)
(17.9299 -0.0126833 3.89963e-24)
(17.9354 -0.0126245 9.0517e-25)
(17.9632 -0.000688354 1.06109e-24)
(17.9683 0.00425622 1.49892e-24)
(17.9521 -0.0095385 -2.46326e-24)
(17.9591 -0.00755018 -4.70974e-25)
(17.9449 -0.0120608 5.20999e-25)
(17.732 0.257821 0)
(17.7515 0.285543 -1.66145e-22)
(17.7958 0.306464 -7.1068e-23)
(17.7883 0.2842 0)
(17.7776 0.311251 -1.7538e-23)
(17.9364 0.11925 1.26892e-21)
(17.7407 0.361316 1.75624e-21)
(17.7765 0.302538 -1.17896e-23)
(17.6769 0.180966 2.14216e-23)
(17.6871 0.1434 -2.34211e-23)
(17.6831 0.120794 6.3843e-23)
(17.6884 0.08128 3.29567e-23)
(17.7058 0.0541584 -2.3227e-23)
(17.7093 0.0389224 -9.78934e-25)
(17.6866 0.209344 2.87923e-26)
(17.7007 0.236634 1.20599e-22)
(17.7269 0.00825985 -2.64247e-23)
(17.751 -0.0082357 -1.33698e-23)
(17.9843 0.0166577 -3.11332e-24)
(17.9852 0.020905 -7.4754e-24)
(17.9876 0.0252677 3.92182e-24)
(17.9884 0.0224727 -6.81781e-24)
(17.9892 0.0250247 -1.05511e-24)
(17.9787 0.0117466 0)
(17.9836 0.0144989 0)
(17.9919 0.0236418 0)
(17.9951 0.0252028 0)
(17.9954 0.0251765 -1.5297e-23)
(17.966 0.0575907 6.42576e-23)
(17.9955 0.0139706 8.89047e-24)
(17.9754 0.00645219 4.04297e-25)
(17.9735 0.00508198 -1.94993e-25)
(17.7595 -0.0246633 -6.32011e-23)
(17.7887 -0.0312071 -3.53811e-23)
(17.8201 -0.0296121 0)
(17.8009 -0.0301829 -3.03544e-24)
(17.8444 -0.0347259 0)
(17.8621 -0.0402238 -7.0149e-24)
(17.914 -0.0255637 -1.84122e-24)
(17.8995 -0.0310064 8.81998e-24)
(17.8865 -0.0408023 1.55884e-23)
(17.8785 -0.0430526 -1.76162e-23)
(17.926 -0.0187042 -4.1622e-24)
(17.938 -0.0175797 7.56186e-25)
(17.9661 -0.00433953 0)
(17.9717 0.000462913 -8.25515e-25)
(17.9496 -0.0126486 1.01716e-25)
(17.9562 -0.0104302 -2.29589e-24)
(17.9633 -0.00827921 2.67918e-25)
(17.9432 -0.0168685 8.39532e-25)
(17.7183 0.268712 0)
(17.7342 0.300712 -1.62084e-22)
(17.801 0.295836 0)
(17.7948 0.315403 -4.56123e-23)
(17.762 0.3281 0)
(17.9255 0.179519 4.21682e-22)
(17.724 0.5037 -3.31175e-22)
(17.7919 0.316127 -1.82858e-22)
(17.6638 0.166345 5.23429e-24)
(17.6711 0.198773 -3.4949e-23)
(17.67 0.14786 -2.27664e-23)
(17.6631 0.110914 6.77963e-23)
(17.6729 0.0807031 -4.66827e-23)
(17.6919 0.060174 1.86332e-23)
(17.6994 0.0258549 -8.19595e-24)
(17.684 0.227982 6.01245e-23)
(17.6999 0.258082 -1.30189e-22)
(17.7096 0.0106285 0)
(17.7353 -0.00753448 -4.27464e-23)
(17.9869 0.0158318 0)
(17.9878 0.0174765 -4.0228e-24)
(17.9905 0.0190211 -7.56364e-24)
(17.9908 0.0226204 0)
(17.9815 0.00824232 -1.41052e-24)
(17.9853 0.0118772 2.30033e-25)
(17.9937 0.0209556 0)
(17.9963 0.0204918 0)
(17.9969 0.0192946 1.14016e-23)
(17.9741 0.0259558 -1.20168e-22)
(18.0037 0.0154979 1.01752e-23)
(17.979 0.00429561 -3.27353e-25)
(17.9748 0.00161869 1.54554e-25)
(17.7491 -0.0392103 -2.25331e-23)
(17.7852 -0.0400439 4.78895e-24)
(17.8177 -0.0418921 -6.5088e-23)
(17.7953 -0.0442872 4.57969e-24)
(17.8374 -0.0434149 1.46987e-23)
(17.8583 -0.0485621 0)
(17.9156 -0.0326595 2.2703e-24)
(17.9021 -0.0386725 1.49382e-24)
(17.8904 -0.0472871 7.72675e-24)
(17.8736 -0.0527417 0)
(17.928 -0.0241643 -1.03221e-23)
(17.9343 -0.0236413 -2.22423e-25)
(17.9695 -0.00338963 0)
(17.9509 -0.0179355 -3.9458e-24)
(17.9573 -0.0143137 -1.21327e-24)
(17.9643 -0.0116218 0)
(17.9468 -0.0206627 1.75042e-24)
(17.7168 0.292976 0)
(17.736 0.322622 0)
(17.8186 0.312483 0)
(17.8058 0.338286 2.4484e-22)
(17.7693 0.3525 -9.36069e-23)
(17.9826 0.253086 -2.1855e-22)
(17.7146 0.333924 1.11526e-22)
(17.7844 0.315 -2.96823e-22)
(17.6411 0.174647 -1.10476e-23)
(17.654 0.207203 -4.39743e-23)
(17.6489 0.129293 6.68502e-23)
(17.6617 0.0959831 -2.17203e-23)
(17.661 0.0584527 -3.54334e-23)
(17.6743 0.0467645 6.2231e-24)
(17.6787 0.0320878 8.78698e-25)
(17.6676 0.238378 1.19249e-23)
(17.683 0.269178 -1.26183e-22)
(17.6984 -0.0049686 0)
(17.7213 -0.0261821 -3.16551e-23)
(17.9887 0.013281 0)
(17.9899 0.0159406 8.57813e-26)
(17.9913 0.0163823 -3.05238e-25)
(17.9922 0.0185615 -1.47255e-24)
(17.9922 0.0192621 -1.95857e-24)
(17.9845 0.00921404 3.77278e-25)
(17.9816 0.00548582 -5.5931e-28)
(17.9879 0.0118487 0)
(17.9942 0.0173321 -3.52733e-24)
(17.9953 0.0203312 -6.1453e-25)
(17.9975 0.0177625 4.42797e-25)
(17.9997 0.0174264 6.33956e-24)
(17.9844 0.0436396 0)
(17.9966 0.00265117 -3.61728e-24)
(17.9996 0.0073543 -1.25317e-23)
(17.98 0.00119027 -5.75577e-25)
(17.9774 -0.000305536 -4.74609e-26)
(17.7575 -0.0519219 1.16719e-23)
(17.7282 -0.0415716 0)
(17.7753 -0.0495579 1.13013e-23)
(17.8265 -0.047718 -6.85798e-23)
(17.8054 -0.0476827 0)
(17.8426 -0.0532781 2.17613e-23)
(17.8659 -0.0553161 0)
(17.8505 -0.0543628 0)
(17.9222 -0.0321146 9.18163e-24)
(17.9104 -0.038508 -2.34681e-24)
(17.8981 -0.0449863 -1.43755e-23)
(17.8862 -0.0563076 -3.65611e-23)
(17.8785 -0.0596987 0)
(17.9366 -0.0277435 0)
(17.9719 -0.00595552 0)
(17.9545 -0.0188389 1.57616e-25)
(17.9615 -0.0150129 2.1674e-25)
(17.9687 -0.0125845 -1.98426e-24)
(17.9436 -0.0261152 0)
(17.7049 0.303816 0)
(17.725 0.342842 0)
(17.8288 0.305787 2.6836e-22)
(17.8208 0.339144 8.83792e-23)
(17.7963 0.357053 3.32875e-22)
(17.7588 0.367711 -3.47032e-23)
(17.9953 0.22665 7.96277e-22)
(17.8407 0.329898 0)
(17.7368 0.539115 4.61698e-22)
(17.6168 0.16131 1.51115e-23)
(17.6376 0.194644 -1.96332e-24)
(17.6514 0.228091 -4.32611e-23)
(17.6318 0.125601 8.25291e-23)
(17.6432 0.0920492 7.04316e-23)
(17.64 0.0519301 1.82244e-23)
(17.6667 0.01789 -1.28213e-23)
(17.6654 0.259104 -4.3633e-23)
(17.6824 0.290355 0)
(17.6802 -0.00286576 -1.13994e-23)
(17.7049 -0.0247426 -5.13673e-23)
(17.9908 0.013134 0)
(17.9933 0.0139952 -3.28272e-24)
(17.9941 0.0149048 -2.6384e-24)
(17.994 0.0170319 -5.87076e-24)
(17.9868 0.00731124 5.97953e-25)
(17.9847 0.00304594 -3.01808e-24)
(17.9893 0.00919619 3.95357e-25)
(17.9955 0.0149422 -7.53458e-25)
(17.9965 0.0153281 -1.71733e-24)
(17.9985 0.0146275 -5.2497e-24)
(17.9991 0.01122 3.24822e-25)
(18.0004 0.000352962 -2.14434e-23)
(17.999 0.00427199 -2.85749e-23)
(18.0004 0.0107641 -8.25301e-24)
(17.9824 -0.000655939 8.44433e-25)
(17.9758 -0.00377726 0)
(17.7507 -0.0678864 -3.04504e-23)
(17.7184 -0.0625423 3.14333e-23)
(17.7807 -0.0652506 1.24607e-23)
(17.8247 -0.0606655 0)
(17.8039 -0.0608072 -2.56104e-23)
(17.8339 -0.0641877 0)
(17.8606 -0.0650999 0)
(17.8529 -0.065508 0)
(17.9251 -0.0364212 8.49938e-24)
(17.9101 -0.0455641 -2.44945e-23)
(17.9027 -0.0495456 -1.40421e-23)
(17.8907 -0.0607613 -2.70876e-23)
(17.8741 -0.0680874 0)
(17.9329 -0.0328295 4.033e-24)
(17.9717 -0.00937951 -1.67739e-24)
(17.9568 -0.0232867 2.17097e-24)
(17.9635 -0.0182197 4.71928e-25)
(17.969 -0.0165407 -5.64886e-25)
(17.946 -0.0310247 -6.52527e-24)
(17.6969 0.325293 -1.11039e-22)
(17.7057 0.342171 -1.89145e-22)
(17.7331 0.362716 0)
(17.8467 0.340168 1.65485e-22)
(17.8397 0.351527 -8.04202e-23)
(17.8045 0.379632 1.22732e-22)
(17.7637 0.394186 9.62856e-23)
(17.9882 0.157413 1.70482e-22)
(17.8258 0.3316 -1.61182e-22)
(17.7774 0.416062 5.82609e-26)
(17.5931 0.171559 -1.26892e-24)
(17.6168 0.139017 0)
(17.6168 0.207203 -4.06642e-23)
(17.6369 0.2374 2.68325e-23)
(17.629 0.106969 2.99637e-23)
(17.6279 0.0663993 5.56828e-23)
(17.6314 0.0377166 0)
(17.6489 0.018607 -1.62919e-23)
(17.647 0.27151 0)
(17.6626 0.303659 0)
(17.6691 -0.0154962 4.47045e-24)
(17.6898 -0.0392659 -1.82114e-23)
(17.9923 0.0107985 -7.55362e-26)
(17.9945 0.0118769 -2.92894e-25)
(17.9954 0.0133258 9.30957e-26)
(17.9957 0.0140592 1.69297e-24)
(17.9882 0.00536524 0)
(17.9846 0.000552837 -3.80795e-24)
(17.987 0.00367224 -2.51585e-24)
(17.9915 0.00861021 2.96416e-26)
(17.996 0.0124861 -3.74252e-24)
(17.9975 0.0138373 -1.28843e-24)
(17.9996 0.0121627 -4.49082e-24)
(18.0008 0.00892699 0)
(17.9993 0.00538147 8.66107e-24)
(17.9812 -0.00360664 0)
(17.9779 -0.005728 0)
(17.7614 -0.0816892 -6.91428e-23)
(17.7333 -0.0769786 -1.16272e-23)
(17.7027 -0.0667661 3.73898e-23)
(17.7747 -0.0773788 -2.3688e-23)
(17.7943 -0.0671386 -1.9123e-23)
(17.8148 -0.0678974 -9.10978e-24)
(17.8364 -0.0714426 8.16991e-24)
(17.8641 -0.0703122 1.65103e-23)
(17.8468 -0.0719827 0)
(17.9253 -0.0409046 -1.18191e-23)
(17.9143 -0.0492675 -2.35239e-23)
(17.8993 -0.0558701 -8.49815e-24)
(17.8904 -0.0686535 6.70919e-24)
(17.8765 -0.0752687 0)
(17.936 -0.0376755 4.85834e-24)
(17.9749 -0.010839 -1.79736e-24)
(17.9613 -0.0228208 -4.84428e-26)
(17.9516 -0.0296882 0)
(17.9669 -0.0187185 4.30107e-25)
(17.9718 -0.0181822 -1.61246e-24)
(17.9413 -0.0368478 -5.3671e-24)
(17.6676 0.325311 7.7284e-23)
(17.6899 0.370297 -9.33416e-23)
(17.7245 0.390137 3.96974e-23)
(17.8647 0.31975 -1.62098e-22)
(17.8472 0.379089 -1.14922e-22)
(17.7827 0.399868 3.31026e-23)
(17.8287 0.391332 2.89925e-23)
(17.7452 0.404768 -8.7804e-23)
(17.9755 0.236799 1.41536e-22)
(17.8633 0.311629 0)
(17.7667 0.221315 -1.51882e-21)
(17.5894 0.195271 -8.09843e-24)
(17.575 0.159493 -5.31524e-24)
(17.5975 0.12821 0)
(17.6164 0.226466 -3.68803e-23)
(17.6321 0.262205 7.48662e-23)
(17.6124 0.097072 -1.07093e-23)
(17.6102 0.0721914 0)
(17.6141 0.0246587 0)
(17.6386 -0.00242183 -5.46458e-23)
(17.6442 0.293705 6.9081e-23)
(17.6489 -0.017389 -3.6934e-23)
(17.6736 -0.0340482 3.01616e-23)
(17.6893 -0.0543025 -3.0942e-23)
(17.994 0.0103134 3.34541e-24)
(17.9963 0.0102263 0)
(17.9967 0.0105108 -1.90264e-24)
(17.9967 0.0121699 -8.61791e-25)
(17.9907 0.0039556 3.52132e-25)
(17.9861 -0.00150429 -1.57425e-24)
(17.9885 0.000959793 0)
(17.9931 0.00630801 -2.81052e-25)
(17.9971 0.0100687 -2.68542e-24)
(17.9975 0.0104616 2.45828e-24)
(18.0006 0.00861406 2.63521e-24)
(18.0004 0.00414114 0)
(18.0001 0.00143797 0)
(17.9836 -0.00452302 4.37023e-25)
(17.9773 -0.00814057 0)
(17.7555 -0.0978052 0)
(17.7293 -0.0929305 4.89209e-23)
(17.6927 -0.0874095 0)
(17.7828 -0.0879047 0)
(17.7945 -0.0816729 6.19908e-24)
(17.8135 -0.0801527 4.69131e-23)
(17.8309 -0.0779934 8.70326e-24)
(17.8612 -0.0797905 3.37341e-23)
(17.845 -0.0824812 6.20606e-23)
(17.9207 -0.0469542 -7.87999e-24)
(17.932 -0.043002 1.82925e-24)
(17.9099 -0.0581716 -9.6059e-24)
(17.9032 -0.0606264 0)
(17.8841 -0.0757779 0)
(17.8983 -0.0696506 -7.423e-24)
(17.8687 -0.084432 2.01187e-23)
(17.9767 -0.0139252 4.31669e-26)
(17.9632 -0.0255048 0)
(17.9531 -0.0331606 2.62115e-24)
(17.9674 -0.0227355 0)
(17.9744 -0.0171041 -2.29703e-25)
(17.9699 -0.0228623 0)
(17.9425 -0.0419725 0)
(17.6527 0.343427 8.31444e-23)
(17.7024 0.392368 0)
(17.6586 0.36952 0)
(17.8944 0.351807 0)
(17.8799 0.389636 0)
(17.7904 0.422068 6.59525e-24)
(17.8278 0.414184 1.5457e-22)
(17.7446 0.432747 -1.7923e-22)
(17.991 0.142134 -8.99226e-23)
(17.8804 0.291101 -4.41858e-23)
(17.6718 0.346762 1.49671e-22)
(17.5706 0.204045 2.8476e-23)
(17.5784 0.138439 9.77586e-24)
(17.5538 0.171254 -1.23456e-23)
(17.5979 0.107149 -1.08287e-23)
(17.6022 0.244675 0)
(17.6137 0.265839 4.65317e-23)
(17.5941 0.0633852 9.64923e-25)
(17.5965 0.0292773 0)
(17.6195 -0.00119973 0)
(17.6318 0.309205 7.51047e-23)
(17.6415 -0.0333979 0)