/*--------------------------------*- C++ -*----------------------------------*\
| =========                 |                                                 |
| \\      /  F ield         | OpenFOAM: The Open Source CFD Toolbox           |
|  \\    /   O peration     | Version:  v2012                                 |
|   \\  /    A nd           | Website:  www.openfoam.com                      |
|    \\/     M anipulation  |                                                 |
\*---------------------------------------------------------------------------*/
FoamFile
{
    version     2.0;
    format      ascii;
    class       volVectorField;
    location    "1";
    object      cellDisplacement;
}
// * * * * * * * * * * * * * * * * * * * * * * * * * * * * * * * * * * * * * //

dimensions      [0 1 0 0 0 0 0];


internalField   nonuniform List<vector> 
13611
(
(2.46623e-39 -2.83314e-37 0)
(1.50906e-38 -1.73353e-36 0)
(3.86885e-44 -2.19476e-41 0)
(8.45065e-39 -9.69376e-37 0)
(2.42317e-38 -2.77962e-36 0)
(1.05461e-35 -1.0501e-33 0)
(2.83923e-38 -3.26313e-36 0)
(1.95142e-43 -1.10702e-40 0)
(2.14693e-22 -3.22519e-21 0)
(5.1384e-38 -5.89427e-36 0)
(2.86426e-35 -2.85155e-33 0)
(5.54645e-43 -3.14644e-40 0)
(8.71404e-38 -1.00147e-35 0)
(0 0 0)
(6.0666e-22 -9.11347e-21 0)
(1.20599e-37 -1.38339e-35 0)
(6.32787e-35 -6.29722e-33 0)
(2.7652e-37 -3.17197e-35 0)
(1.48724e-42 -8.43694e-40 0)
(9.44229e-38 -1.08781e-35 0)
(0 0 0)
(5.04152e-21 -7.5609e-20 0)
(2.76739e-21 -4.15727e-20 0)
(5.93278e-35 -5.90167e-33 0)
(1.04322e-34 -1.03844e-32 0)
(5.24598e-37 -6.01768e-35 0)
(3.20668e-42 -1.81911e-39 0)
(2.36819e-37 -2.72819e-35 0)
(0 0 0)
(1.12885e-20 -1.69211e-19 0)
(6.0219e-21 -9.04631e-20 0)
(1.78726e-34 -1.77788e-32 0)
(3.00795e-34 -2.99294e-32 0)
(7.76659e-37 -8.88011e-35 0)
(5.57507e-37 -6.42181e-35 0)
(6.37905e-42 -3.61876e-39 0)
(1.90483e-41 -1.08059e-38 0)
(0 0 0)
(2.66469e-20 -3.99428e-19 0)
(1.57598e-20 -2.36749e-19 0)
(3.44524e-34 -3.42717e-32 0)
(4.01646e-34 -3.99736e-32 0)
(1.53775e-36 -1.75823e-34 0)
(1.22178e-36 -1.40734e-34 0)
(2.04501e-42 -1.16011e-39 0)
(3.75221e-41 -2.12859e-38 0)
(0 0 0)
(0 0 0)
(3.53277e-20 -5.30397e-19 0)
(3.5852e-20 -5.3644e-19 0)
(3.97974e-22 -6.34151e-21 0)
(7.4611e-34 -7.42197e-32 0)
(7.84064e-34 -7.80227e-32 0)
(2.69913e-36 -3.08612e-34 0)
(2.44609e-36 -2.8094e-34 0)
(7.76163e-37 -9.01253e-35 0)
(6.75949e-42 -3.83458e-39 0)
(7.58136e-41 -4.30082e-38 0)
(0 0 0)
(0 0 0)
(9.34145e-20 -1.40249e-18 0)
(1.06207e-19 -1.58913e-18 0)
(9.62351e-22 -1.53345e-20 0)
(1.47194e-33 -1.46422e-31 0)
(6.5541e-20 -9.80666e-19 0)
(9.9872e-34 -9.94238e-32 0)
(1.09648e-33 -1.09072e-31 0)
(5.13086e-36 -5.84774e-34 0)
(5.43693e-36 -6.24446e-34 0)
(2.17186e-36 -2.52151e-34 0)
(1.39039e-41 -7.8875e-39 0)
(1.8036e-40 -1.02316e-37 0)
(0 0 0)
(0 0 0)
(1.18269e-19 -1.78022e-18 0)
(2.08749e-19 -3.12344e-18 0)
(8.00756e-22 -1.27674e-20 0)
(1.6993e-21 -2.70702e-20 0)
(2.99869e-33 -2.98297e-31 0)
(2.95928e-33 -2.94504e-31 0)
(2.61314e-33 -2.59944e-31 0)
(1.09341e-35 -1.24619e-33 0)
(5.41998e-36 -6.25357e-34 0)
(9.26331e-36 -1.06007e-33 0)
(2.21178e-37 -2.92004e-35 0)
(3.3038e-41 -1.87421e-38 0)
(3.88095e-40 -2.20162e-37 0)
(0 0 0)
(0 0 0)
(3.93599e-19 -5.92231e-18 0)
(4.30324e-19 -6.43878e-18 0)
(2.41389e-21 -3.84876e-20 0)
(4.28329e-21 -6.82336e-20 0)
(6.66048e-33 -6.62555e-31 0)
(4.9824e-19 -7.43575e-18 0)
(4.69981e-33 -4.67821e-31 0)
(5.55536e-33 -5.52623e-31 0)
(1.9763e-35 -2.24632e-33 0)
(1.24909e-35 -1.4412e-33 0)
(1.91236e-35 -2.18845e-33 0)
(5.36115e-37 -7.06475e-35 0)
(6.63633e-41 -3.76471e-38 0)
(8.15884e-40 -4.62842e-37 0)
(0 0 0)
(0 0 0)
(5.90465e-19 -8.84634e-18 0)
(3.40825e-19 -5.17737e-18 0)
(2.01919e-21 -3.22561e-20 0)
(8.4592e-21 -1.34757e-19 0)
(1.29206e-32 -1.28529e-30 0)
(1.19077e-18 -1.77711e-17 0)
(1.62203e-18 -2.41448e-17 0)
(1.38819e-32 -1.38147e-30 0)
(1.25979e-32 -1.25318e-30 0)
(3.88024e-35 -4.41041e-33 0)
(1.34672e-35 -1.56597e-33 0)
(4.12526e-35 -4.72084e-33 0)
(1.56422e-36 -2.03129e-34 0)
(5.60414e-39 -3.17916e-36 0)
(1.45752e-40 -8.26833e-38 0)
(3.46079e-40 -1.96327e-37 0)
(1.8682e-39 -1.05981e-36 0)
(0 0 0)
(0 0 0)
(0 0 0)
(1.5046e-18 -2.25419e-17 0)
(8.55101e-19 -1.29838e-17 0)
(4.76115e-21 -7.60582e-20 0)
(1.72164e-20 -2.7426e-19 0)
(2.96502e-32 -2.94947e-30 0)
(4.52442e-18 -6.73482e-17 0)
(2.13369e-32 -2.12391e-30 0)
(5.04889e-35 -5.7265e-33 0)
(5.24154e-35 -5.96794e-33 0)
(4.54104e-35 -5.24118e-33 0)
(3.66053e-36 -4.75356e-34 0)
(1.41666e-38 -8.03656e-36 0)
(0 0 0)
(7.81573e-40 -4.43378e-37 0)
(3.75541e-39 -2.1304e-36 0)
(0 0 0)
(0 0 0)
(0 0 0)
(2.78411e-18 -4.17115e-17 0)
(3.84778e-19 -5.975e-18 0)
(1.88964e-18 -2.85483e-17 0)
(4.47168e-23 -1.18576e-21 0)
(3.45274e-20 -5.50028e-19 0)
(5.06553e-32 -5.03896e-30 0)
(6.01315e-18 -8.97206e-17 0)
(5.54242e-18 -8.22458e-17 0)
(5.752e-32 -5.72494e-30 0)
(1.04972e-34 -1.1906e-32 0)
(1.19859e-34 -1.36469e-32 0)
(9.03862e-35 -1.04322e-32 0)
(7.98447e-36 -1.03227e-33 0)
(2.65895e-38 -1.50839e-35 0)
(0 0 0)
(0 0 0)
(1.62339e-39 -9.20933e-37 0)
(7.71706e-39 -4.3778e-36 0)
(2.87845e-39 -1.63291e-36 0)
(0 0 0)
(0 0 0)
(0 0 0)
(7.21537e-20 -1.14831e-18 0)
(1.09806e-18 -1.70139e-17 0)
(4.54262e-18 -6.86291e-17 0)
(6.96559e-29 -4.55909e-27 0)
(1.51588e-22 -4.01967e-21 0)
(7.65748e-32 -7.61857e-30 0)
(5.70181e-32 -5.67086e-30 0)
(1.32547e-17 -1.97769e-16 0)
(1.55395e-17 -2.30595e-16 0)
(6.88302e-32 -6.85451e-30 0)
(1.48784e-34 -1.68368e-32 0)
(2.34054e-34 -2.6649e-32 0)
(1.82209e-35 -2.27697e-33 0)
(2.50749e-34 -2.86987e-32 0)
(2.46458e-37 -1.39236e-34 0)
(7.2189e-38 -4.0952e-35 0)
(0 0 0)
(0 0 0)
(1.19854e-39 -6.79921e-37 0)
(1.48496e-38 -8.424e-36 0)
(7.74546e-39 -4.39391e-36 0)
(0 0 0)
(0 0 0)
(2.07873e-19 -3.30825e-18 0)
(2.09842e-18 -3.23451e-17 0)
(5.3653e-19 -8.52698e-18 0)
(1.01351e-17 -1.52307e-16 0)
(2.24397e-28 -1.46842e-26 0)
(2.91755e-22 -7.73647e-21 0)
(1.90025e-31 -1.8906e-29 0)
(1.61086e-31 -1.60211e-29 0)
(2.49164e-17 -3.70318e-16 0)
(1.45536e-17 -2.15279e-16 0)
(1.78657e-31 -1.77897e-29 0)
(3.54905e-34 -4.01621e-32 0)
(4.51572e-35 -5.64303e-33 0)
(5.58924e-34 -6.39699e-32 0)
(5.80301e-37 -3.27638e-34 0)
(1.35902e-37 -7.70957e-35 0)
(0 0 0)
(0 0 0)
(0 0 0)
(3.42656e-39 -1.94385e-36 0)
(1.36317e-38 -7.7331e-36 0)
(2.48783e-38 -1.41132e-35 0)
(0 0 0)
(0 0 0)
(0 0 0)
(9.14745e-22 -2.42563e-20 0)
(4.57792e-18 -7.05643e-17 0)
(1.09113e-18 -1.73411e-17 0)
(2.36597e-17 -3.55549e-16 0)
(3.5649e-28 -2.33334e-26 0)
(2.22127e-28 -1.45307e-26 0)
(3.08185e-31 -3.06681e-29 0)
(3.11274e-31 -3.09585e-29 0)
(5.46773e-17 -8.12639e-16 0)
(3.62023e-17 -5.35509e-16 0)
(1.57653e-31 -1.57172e-29 0)
(6.74354e-34 -7.6312e-32 0)
(1.01462e-34 -1.24732e-32 0)
(1.37253e-33 -1.56127e-31 0)
(1.14554e-36 -6.46772e-34 0)
(3.09016e-37 -1.75301e-34 0)
(0 0 0)
(0 0 0)
(0 0 0)
(6.68274e-39 -3.79104e-36 0)
(2.87805e-38 -1.63268e-35 0)
(5.33901e-38 -3.02876e-35 0)
(0 0 0)
(0 0 0)
(0 0 0)
(1.96131e-21 -5.2008e-20 0)
(3.07664e-18 -4.80268e-17 0)
(9.64362e-18 -1.4785e-16 0)
(1.74843e-19 -3.39707e-18 0)
(5.45364e-17 -8.156e-16 0)
(9.41462e-28 -6.16109e-26 0)
(5.20114e-28 -3.40239e-26 0)
(6.97917e-31 -6.94509e-29 0)
(6.418e-31 -6.38316e-29 0)
(8.81031e-17 -1.30323e-15 0)
(3.77133e-31 -3.75906e-29 0)
(1.23933e-33 -1.40247e-31 0)
(2.31489e-34 -2.8458e-32 0)
(2.46943e-33 -2.81867e-31 0)
(9.58873e-37 -5.43958e-34 0)
(2.25115e-36 -1.26671e-33 0)
(5.22357e-37 -2.96327e-34 0)
(1.06153e-37 -6.02192e-35 0)
(0 0 0)
(0 0 0)
(0 0 0)
(0 0 0)
(0 0 0)
(1.85773e-38 -1.05387e-35 0)
(2.61762e-38 -1.48494e-35 0)
(0 0 0)
(0 0 0)
(0 0 0)
(4.12183e-21 -1.09299e-19 0)
(7.25089e-18 -1.13187e-16 0)
(2.03312e-17 -3.11705e-16 0)
(5.85254e-19 -1.13113e-17 0)
(5.50677e-21 -1.45952e-19 0)
(1.19105e-16 -1.78123e-15 0)
(9.96383e-28 -6.51797e-26 0)
(1.4358e-27 -9.39863e-26 0)
(8.12208e-31 -8.08782e-29 0)
(8.76166e-31 -8.71478e-29 0)
(7.81283e-31 -7.7696e-29 0)
(1.72218e-16 -2.54747e-15 0)
(1.73532e-31 -1.73799e-29 0)
(3.58617e-33 -4.05822e-31 0)
(6.51937e-34 -7.88889e-32 0)
(6.98159e-33 -7.90058e-31 0)
(2.48378e-36 -1.40902e-33 0)
(5.03624e-36 -2.83386e-33 0)
(1.30953e-36 -7.42883e-34 0)
(1.99108e-37 -1.12951e-34 0)
(0 0 0)
(0 0 0)
(0 0 0)
(0 0 0)
(0 0 0)
(0 0 0)
(2.07036e-38 -1.17449e-35 0)
(6.32105e-38 -3.58586e-35 0)
(0 0 0)
(0 0 0)
(0 0 0)
(4.95899e-21 -1.31608e-19 0)
(1.22276e-18 -2.28854e-17 0)
(3.99398e-17 -6.12331e-16 0)
(1.71451e-19 -4.19103e-18 0)
(1.55357e-20 -4.11762e-19 0)
(8.97845e-17 -1.36089e-15 0)
(2.13559e-16 -3.17192e-15 0)
(2.12097e-27 -1.38746e-25 0)
(3.92294e-27 -2.56763e-25 0)
(1.86638e-30 -1.8585e-28 0)
(2.15275e-30 -2.14123e-28 0)
(1.74713e-30 -1.73746e-28 0)
(2.38173e-16 -3.51166e-15 0)
(1.39255e-16 -2.03859e-15 0)
(4.92153e-31 -4.92297e-29 0)
(1.46584e-33 -1.77377e-31 0)
(1.39827e-32 -1.58232e-30 0)
(2.37675e-36 -1.3483e-33 0)
(3.79831e-36 -2.15474e-33 0)
(9.47851e-36 -5.3101e-33 0)
(1.06994e-36 -6.06965e-34 0)
(3.87955e-37 -2.20083e-34 0)
(0 0 0)
(0 0 0)
(0 0 0)
(0 0 0)
(0 0 0)
(0 0 0)
(5.80787e-38 -3.29474e-35 0)
(1.33451e-37 -7.57054e-35 0)
(0 0 0)
(0 0 0)
(1.24014e-20 -3.29123e-19 0)
(2.88074e-18 -5.39164e-17 0)
(6.67338e-18 -1.20071e-16 0)
(3.79e-19 -9.23803e-18 0)
(3.01961e-20 -8.00324e-19 0)
(2.04805e-16 -3.10428e-15 0)
(4.60148e-16 -6.83444e-15 0)
(4.52967e-27 -2.96314e-25 0)
(5.69257e-27 -3.7277e-25 0)
(3.52187e-30 -3.50557e-28 0)
(3.35243e-30 -3.33473e-28 0)
(3.66259e-30 -3.64233e-28 0)
(5.15638e-16 -7.62237e-15 0)
(4.24291e-16 -6.21132e-15 0)
(9.61985e-31 -9.62266e-29 0)
(4.05662e-33 -4.85868e-31 0)
(2.74029e-32 -3.08007e-30 0)
(5.35189e-36 -3.03607e-33 0)
(9.16207e-36 -5.19754e-33 0)
(2.23183e-35 -1.25033e-32 0)
(2.77264e-36 -1.57289e-33 0)
(9.54326e-37 -5.41378e-34 0)
(0 0 0)
(0 0 0)
(0 0 0)
(0 0 0)
(0 0 0)
(0 0 0)
(0 0 0)
(0 0 0)
(2.7352e-37 -1.55165e-34 0)
(0 0 0)
(0 0 0)
(0 0 0)
(1.5254e-21 -4.15993e-20 0)
(8.5042e-19 -1.99774e-17 0)
(1.3756e-17 -2.47505e-16 0)
(2.74338e-19 -7.214e-18 0)
(6.43675e-20 -1.70601e-18 0)
(5.37912e-16 -8.11531e-15 0)
(1.32341e-17 -2.34582e-16 0)
(6.46286e-16 -9.62769e-15 0)
(9.82433e-27 -6.42672e-25 0)
(1.48524e-26 -9.72461e-25 0)
(6.56908e-30 -6.54181e-28 0)
(8.3851e-30 -8.34083e-28 0)
(7.82883e-30 -7.78551e-28 0)
(1.12958e-15 -1.66979e-14 0)
(1.14997e-15 -1.68347e-14 0)
(3.69106e-30 -3.68552e-28 0)
(2.88126e-32 -3.19338e-30 0)
(8.41615e-33 -1.00801e-30 0)
(4.94889e-32 -5.62627e-30 0)
(4.63262e-36 -2.62803e-33 0)
(8.77176e-36 -4.97612e-33 0)
(1.42985e-35 -8.11138e-33 0)
(3.96948e-35 -2.21398e-32 0)
(2.17759e-36 -1.23532e-33 0)
(0 0 0)
(0 0 0)
(0 0 0)
(0 0 0)
(0 0 0)
(0 0 0)
(0 0 0)
(0 0 0)
(5.60404e-37 -3.17911e-34 0)
(0 0 0)
(0 0 0)
(0 0 0)
(3.81682e-21 -1.04089e-19 0)
(1.85485e-18 -4.35726e-17 0)
(2.19124e-17 -3.97672e-16 0)
(1.46908e-19 -3.88697e-18 0)
(6.56964e-19 -1.72422e-17 0)
(9.29783e-21 -2.53553e-19 0)
(6.80194e-16 -1.04773e-14 0)
(3.34843e-17 -5.93529e-16 0)
(1.67424e-15 -2.4941e-14 0)
(2.16765e-26 -1.418e-24 0)
(1.65037e-26 -1.08198e-24 0)
(1.37966e-29 -1.37264e-27 0)
(1.65519e-29 -1.64603e-27 0)
(2.38621e-15 -3.49324e-14 0)
(8.62087e-30 -8.60795e-28 0)
(8.09962e-32 -8.97703e-30 0)
(2.16618e-32 -2.57808e-30 0)
(4.72632e-32 -5.53414e-30 0)
(1.03061e-35 -5.84653e-33 0)
(1.98736e-35 -1.12741e-32 0)
(3.30627e-35 -1.87561e-32 0)
(8.11708e-35 -4.5273e-32 0)
(4.49249e-36 -2.54854e-33 0)
(0 0 0)
(0 0 0)
(0 0 0)
(0 0 0)
(0 0 0)
(0 0 0)
(0 0 0)
(0 0 0)
(0 0 0)
(0 0 0)
(0 0 0)
(1.74483e-36 -9.89821e-34 0)
(0 0 0)
(0 0 0)
(0 0 0)
(0 0 0)
(-1.08493e-30 -7.12713e-29 0)
(0 0 0)
(2.7062e-25 -1.76362e-23 0)
(3.61181e-18 -8.3461e-17 0)
(6.72843e-17 -1.19265e-15 0)
(3.46198e-19 -9.15991e-18 0)
(1.28413e-18 -3.37022e-17 0)
(2.18803e-20 -5.9668e-19 0)
(1.48984e-15 -2.28892e-14 0)
(3.16899e-15 -4.72083e-14 0)
(4.84688e-26 -3.17065e-24 0)
(4.12097e-26 -2.70116e-24 0)
(2.8022e-29 -2.78793e-27 0)
(3.57641e-29 -3.55662e-27 0)
(0 0 0)
(4.95262e-15 -7.25029e-14 0)
(1.73838e-31 -1.9267e-29 0)
(2.03752e-29 -2.03261e-27 0)
(2.62589e-34 -1.46232e-31 0)
(1.16149e-31 -1.36002e-29 0)
(1.00429e-35 -5.69725e-33 0)
(1.60377e-35 -9.098e-33 0)
(3.43814e-35 -1.95042e-32 0)
(4.74643e-35 -2.69259e-32 0)
(1.40796e-35 -7.98721e-33 0)
(0 0 0)
(0 0 0)
(0 0 0)
(0 0 0)
(0 0 0)
(0 0 0)
(0 0 0)
(0 0 0)
(0 0 0)
(0 0 0)
(0 0 0)
(0 0 0)
(3.82998e-36 -2.1727e-33 0)
(0 0 0)
(0 0 0)
(0 0 0)
(0 0 0)
(-3.03001e-30 -1.99048e-28 0)
(-1.50157e-30 -9.86158e-29 0)
(0 0 0)
(0 0 0)
(6.55826e-25 -4.27267e-23 0)
(8.82012e-18 -2.03813e-16 0)
(1.25656e-16 -2.22732e-15 0)
(8.04976e-19 -2.12639e-17 0)
(4.55645e-20 -1.24253e-18 0)
(2.56679e-18 -6.72159e-17 0)
(2.72735e-15 -4.13089e-14 0)
(1.24136e-15 -1.97194e-14 0)
(5.1695e-15 -7.63137e-14 0)
(9.92832e-26 -6.49474e-24 0)
(1.13703e-26 -7.57638e-25 0)
(3.49415e-29 -3.47753e-27 0)
(7.48473e-29 -7.44332e-27 0)
(8.00594e-15 -1.16496e-13 0)
(3.44702e-31 -3.82043e-29 0)
(2.10366e-29 -2.10576e-27 0)
(5.28685e-34 -2.94417e-31 0)
(3.73723e-33 -2.07592e-30 0)
(2.2302e-35 -1.26517e-32 0)
(3.30053e-35 -1.87236e-32 0)
(7.70273e-35 -4.36967e-32 0)
(1.32997e-34 -7.54479e-32 0)
(3.45999e-35 -1.96281e-32 0)
(0 0 0)
(0 0 0)
(0 0 0)
(0 0 0)
(0 0 0)
(0 0 0)
(0 0 0)
(0 0 0)
(0 0 0)
(0 0 0)
(0 0 0)
(0 0 0)
(0 0 0)
(1.0641e-35 -6.0365e-33 0)
(0 0 0)
(0 0 0)
(0 0 0)
(0 0 0)
(0 0 0)
(-5.97131e-30 -3.92249e-28 0)
(-1.43253e-30 -9.41336e-29 0)
(-4.28582e-30 -2.81471e-28 0)
(0 0 0)
(0 0 0)
(1.27888e-24 -8.33184e-23 0)
(1.94982e-17 -4.42456e-16 0)
(2.88185e-16 -5.02082e-15 0)
(1.77984e-18 -4.70156e-17 0)
(9.30958e-20 -2.5387e-18 0)
(5.07812e-18 -1.3298e-16 0)
(7.13184e-15 -1.0802e-13 0)
(3.57293e-15 -5.60956e-14 0)
(1.34916e-14 -1.99167e-13 0)
(2.03749e-25 -1.33285e-23 0)
(2.68593e-26 -1.78764e-24 0)
(9.10181e-29 -9.05851e-27 0)
(1.63174e-28 -1.62271e-26 0)
(4.96429e-15 -7.19104e-14 0)
(1.86849e-14 -2.72399e-13 0)
(7.03859e-31 -7.80106e-29 0)
(5.82521e-29 -5.80937e-27 0)
(1.16634e-29 -1.17893e-27 0)
(1.17159e-33 -6.52165e-31 0)
(9.55787e-33 -5.30727e-30 0)
(4.35601e-35 -2.47111e-32 0)
(4.31533e-35 -2.44804e-32 0)
(1.55547e-34 -8.82401e-32 0)
(1.73924e-34 -9.86651e-32 0)
(6.47761e-35 -3.67467e-32 0)
(0 0 0)
(0 0 0)
(0 0 0)
(0 0 0)
(0 0 0)
(0 0 0)
(0 0 0)
(0 0 0)
(0 0 0)
(0 0 0)
(0 0 0)
(0 0 0)
(0 0 0)
(2.18158e-35 -1.23758e-32 0)
(0 0 0)
(0 0 0)
(0 0 0)
(0 0 0)
(0 0 0)
(-1.16249e-29 -7.63698e-28 0)
(-3.59138e-30 -2.35994e-28 0)
(-1.10891e-29 -7.28078e-28 0)
(-1.14852e-29 -7.54289e-28 0)
(-3.75495e-24 -7.82735e-23 0)
(0 0 0)
(0 0 0)
(4.18794e-25 -2.73563e-23 0)
(2.73879e-24 -1.78364e-22 0)
(3.90866e-17 -8.86959e-16 0)
(6.87691e-16 -1.19811e-14 0)
(4.04018e-18 -1.06483e-16 0)
(2.83534e-19 -7.7317e-18 0)
(3.63826e-24 -2.36865e-22 0)
(8.61415e-18 -2.25072e-16 0)
(1.37694e-14 -2.0654e-13 0)
(6.75514e-15 -1.06057e-13 0)
(6.89987e-26 -4.55817e-24 0)
(1.12193e-27 -1.11499e-25 0)
(3.62157e-28 -3.60153e-26 0)
(3.92488e-15 -5.6854e-14 0)
(1.27101e-14 -1.84112e-13 0)
(3.61251e-14 -5.26652e-13 0)
(1.44742e-30 -1.57653e-28 0)
(1.1976e-28 -1.19434e-26 0)
(4.06416e-29 -4.08673e-27 0)
(2.77335e-33 -1.54378e-30 0)
(2.02342e-32 -1.12356e-29 0)
(9.25271e-35 -5.24896e-32 0)
(9.38437e-35 -5.32365e-32 0)
(3.43765e-34 -1.95014e-31 0)
(3.99005e-34 -2.26351e-31 0)
(1.43264e-34 -8.12719e-32 0)
(0 0 0)
(0 0 0)
(0 0 0)
(0 0 0)
(0 0 0)
(0 0 0)
(0 0 0)
(0 0 0)
(0 0 0)
(0 0 0)
(0 0 0)
(0 0 0)
(0 0 0)
(0 0 0)
(0 0 0)
(5.3607e-35 -3.04107e-32 0)
(0 0 0)
(0 0 0)
(0 0 0)
(0 0 0)
(0 0 0)
(0 0 0)
(-7.9163e-30 -5.20173e-28 0)
(-2.50831e-29 -1.64771e-27 0)
(-1.58285e-30 -1.04028e-28 0)
(-1.81346e-29 -1.19049e-27 0)
(-2.60472e-29 -1.71065e-27 0)
(-1.1111e-23 -2.31613e-22 0)
(0 0 0)
(0 0 0)
(1.07256e-24 -7.00618e-23 0)
(3.75726e-24 -2.44781e-22 0)
(1.01583e-16 -2.27381e-15 0)
(7.84786e-18 -2.04401e-16 0)
(1.59332e-15 -2.72356e-14 0)
(8.76471e-18 -2.31003e-16 0)
(6.72175e-19 -1.83296e-17 0)
(8.4362e-24 -5.4923e-22 0)
(1.5232e-17 -3.98929e-16 0)
(3.09226e-14 -4.63836e-13 0)
(1.51556e-14 -2.36075e-13 0)
(1.53261e-25 -1.01246e-23 0)
(2.55814e-27 -2.54206e-25 0)
(7.09736e-28 -7.05809e-26 0)
(2.64138e-14 -3.82617e-13 0)
(6.49019e-14 -9.48334e-13 0)
(3.79828e-30 -4.13709e-28 0)
(2.32936e-28 -2.32053e-26 0)
(8.44088e-29 -8.48776e-27 0)
(6.86867e-33 -3.82187e-30 0)
(4.17043e-32 -2.31505e-29 0)
(1.32369e-34 -7.50913e-32 0)
(1.77864e-34 -1.009e-31 0)
(6.09121e-34 -3.45547e-31 0)
(3.1436e-34 -1.78333e-31 0)
(6.06445e-34 -3.44029e-31 0)
(0 0 0)
(0 0 0)
(0 0 0)
(0 0 0)
(0 0 0)
(0 0 0)
(0 0 0)
(0 0 0)
(0 0 0)
(0 0 0)
(0 0 0)
(0 0 0)
(0 0 0)
(0 0 0)
(0 0 0)
(0 0 0)
(0 0 0)
(0 0 0)
(0 0 0)
(0 0 0)
(0 0 0)
(0 0 0)
(-1.77483e-29 -1.16622e-27 0)
(-3.71447e-29 -2.44054e-27 0)
(-4.23219e-30 -2.78148e-28 0)
(0 0 0)
(-4.42784e-29 -2.90675e-27 0)
(-5.37519e-29 -3.53015e-27 0)
(-2.55705e-23 -5.33025e-22 0)
(0 0 0)
(0 0 0)
(3.43632e-25 -2.2635e-23 0)
(2.17633e-24 -1.41988e-22 0)
(7.40604e-24 -4.82285e-22 0)
(2.33615e-16 -5.22916e-15 0)
(2.04094e-17 -5.31571e-16 0)
(3.5637e-15 -6.09166e-14 0)
(7.97803e-18 -2.11999e-16 0)
(1.38338e-23 -9.0053e-22 0)
(1.5971e-18 -4.35509e-17 0)
(3.31055e-17 -8.67042e-16 0)
(5.24645e-14 -7.77159e-13 0)
(2.61364e-14 -4.01013e-13 0)
(9.17852e-15 -1.51707e-13 0)
(5.06142e-27 -5.02962e-25 0)
(1.68059e-27 -1.67085e-25 0)
(7.72514e-14 -1.1118e-12 0)
(6.162e-14 -8.92598e-13 0)
(1.31934e-13 -1.91113e-12 0)
(9.81627e-30 -1.04896e-27 0)
(5.77522e-28 -5.75332e-26 0)
(2.09229e-28 -2.09715e-26 0)
(1.49091e-32 -8.29576e-30 0)
(9.69369e-32 -5.38107e-29 0)
(3.1645e-34 -1.79519e-31 0)
(3.70415e-34 -2.10132e-31 0)
(1.03307e-33 -5.86047e-31 0)
(6.20026e-34 -3.51734e-31 0)
(1.4249e-33 -8.08332e-31 0)
(0 0 0)
(0 0 0)
(0 0 0)
(0 0 0)
(0 0 0)
(0 0 0)
(0 0 0)
(0 0 0)
(0 0 0)
(0 0 0)
(0 0 0)
(0 0 0)
(0 0 0)
(0 0 0)
(0 0 0)
(0 0 0)
(0 0 0)
(0 0 0)
(0 0 0)
(0 0 0)
(0 0 0)
(0 0 0)
(-1.209e-29 -7.94558e-28 0)
(-7.30097e-29 -4.79701e-27 0)
(-7.70209e-31 -5.0633e-29 0)
(0 0 0)
(-5.88903e-29 -3.86475e-27 0)
(-1.07904e-28 -7.08662e-27 0)
(-2.66905e-22 -5.5584e-21 0)
(-5.98948e-23 -1.24853e-21 0)
(0 0 0)
(7.09319e-25 -4.67227e-23 0)
(5.07272e-24 -3.30954e-22 0)
(1.53713e-23 -1.00099e-21 0)
(4.9758e-16 -1.10797e-14 0)
(4.0365e-17 -1.05132e-15 0)
(8.38693e-16 -1.82034e-14 0)
(2.26306e-17 -5.99905e-16 0)
(3.22684e-23 -2.10056e-21 0)
(4.39082e-18 -1.19732e-16 0)
(4.21441e-17 -1.10951e-15 0)
(1.25409e-13 -1.85769e-12 0)
(6.45534e-14 -9.90447e-13 0)
(1.91797e-14 -3.17011e-13 0)
(2.74354e-27 -2.72681e-25 0)
(1.0655e-26 -1.05875e-24 0)
(1.25856e-27 -1.25242e-25 0)
(1.49653e-13 -2.1469e-12 0)
(2.51616e-13 -3.64479e-12 0)
(2.08206e-29 -2.22488e-27 0)
(4.42925e-28 -4.43954e-26 0)
(3.62085e-32 -2.0141e-29 0)
(1.9145e-31 -1.0624e-28 0)
(4.12407e-34 -2.33954e-31 0)
(7.90884e-34 -4.4866e-31 0)
(1.91958e-33 -1.08896e-30 0)
(1.17733e-33 -6.67883e-31 0)
(1.68253e-33 -9.54482e-31 0)
(0 0 0)
(0 0 0)
(0 0 0)
(0 0 0)
(0 0 0)
(0 0 0)
(0 0 0)
(0 0 0)
(0 0 0)
(0 0 0)
(0 0 0)
(0 0 0)
(0 0 0)
(0 0 0)
(0 0 0)
(0 0 0)
(0 0 0)
(0 0 0)
(0 0 0)
(0 0 0)
(0 0 0)
(0 0 0)
(0 0 0)
(0 0 0)
(-2.78091e-29 -1.82763e-27 0)
(-1.1522e-28 -7.56947e-27 0)
(-6.87936e-29 -4.52099e-27 0)
(-3.12212e-35 -2.87391e-33 0)
(-2.58492e-30 -1.69929e-28 0)
(0 0 0)
(0 0 0)
(-1.22823e-28 -8.06041e-27 0)
(-1.62892e-28 -1.0695e-26 0)
(-6.35226e-22 -1.3228e-20 0)
(-1.30176e-22 -2.71356e-21 0)
(0 0 0)
(0 0 0)
(1.73931e-24 -1.14254e-22 0)
(3.6187e-24 -2.36565e-22 0)
(9.81095e-24 -6.39483e-22 0)
(4.00045e-16 -9.60975e-15 0)
(9.28348e-17 -2.41792e-15 0)
(2.25933e-15 -4.90377e-14 0)
(1.22699e-17 -3.3458e-16 0)
(5.98412e-23 -3.89545e-21 0)
(1.14487e-22 -7.45066e-21 0)
(9.0954e-17 -2.3945e-15 0)
(1.12965e-13 -1.70308e-12 0)
(1.98411e-13 -2.90766e-12 0)
(4.23507e-14 -6.82428e-13 0)
(4.1394e-15 -8.81402e-14 0)
(6.59871e-27 -6.55849e-25 0)
(2.36908e-26 -2.35406e-24 0)
(2.69179e-27 -2.67865e-25 0)
(3.41317e-13 -4.8965e-12 0)
(4.23131e-13 -6.09982e-12 0)
(4.5809e-29 -4.83294e-27 0)
(1.15801e-28 -1.18685e-26 0)
(1.26511e-27 -1.26384e-25 0)
(7.7637e-32 -4.31857e-29 0)
(4.10462e-31 -2.27775e-28 0)
(1.3435e-33 -7.62153e-31 0)
(1.61713e-33 -9.17378e-31 0)
(3.83242e-33 -2.17409e-30 0)
(1.36245e-33 -7.72899e-31 0)
(4.11993e-33 -2.33719e-30 0)
(0 0 0)
(0 0 0)
(0 0 0)
(0 0 0)
(0 0 0)
(0 0 0)
(0 0 0)
(0 0 0)
(0 0 0)
(0 0 0)
(0 0 0)
(0 0 0)
(0 0 0)
(0 0 0)
(0 0 0)
(0 0 0)
(0 0 0)
(0 0 0)
(0 0 0)
(0 0 0)
(0 0 0)
(0 0 0)
(0 0 0)
(0 0 0)
(0 0 0)
(0 0 0)
(-7.09966e-30 -4.66707e-28 0)
(-2.75048e-28 -1.80695e-26 0)
(-1.4694e-28 -9.65662e-27 0)
(-9.61276e-35 -8.84852e-33 0)
(-5.39533e-34 -4.96631e-32 0)
(0 0 0)
(0 0 0)
(-1.52127e-28 -9.97882e-27 0)
(-3.44074e-28 -2.2591e-26 0)
(-2.22503e-21 -4.63344e-20 0)
(-2.86364e-22 -5.96935e-21 0)
(0 0 0)
(0 0 0)
(5.1445e-26 -5.11175e-24 0)
(9.07412e-24 -5.93203e-22 0)
(2.14189e-23 -1.3961e-21 0)
(9.88022e-16 -2.35057e-14 0)
(1.84048e-16 -4.79361e-15 0)
(2.63379e-17 -7.18189e-16 0)
(3.12993e-23 -2.04005e-21 0)
(2.88091e-22 -1.87485e-20 0)
(5.29837e-17 -1.44429e-15 0)
(2.83435e-13 -4.27312e-12 0)
(4.14383e-13 -6.07267e-12 0)
(9.56421e-14 -1.54115e-12 0)
(8.40174e-15 -1.78898e-13 0)
(5.49355e-27 -5.46162e-25 0)
(1.14074e-26 -1.13363e-24 0)
(4.7129e-13 -6.73156e-12 0)
(9.88632e-13 -1.4252e-11 0)
(8.23304e-31 -4.56176e-28 0)
(3.13347e-28 -3.21151e-26 0)
(2.58078e-27 -2.57819e-25 0)
(1.69568e-31 -9.43108e-29 0)
(3.00078e-31 -1.66803e-28 0)
(7.57385e-31 -4.19972e-28 0)
(1.72368e-33 -9.77823e-31 0)
(3.61811e-33 -2.05252e-30 0)
(6.56556e-33 -3.72456e-30 0)
(3.24605e-33 -1.84144e-30 0)
(0 0 0)
(0 0 0)
(0 0 0)
(0 0 0)
(0 0 0)
(0 0 0)
(0 0 0)
(0 0 0)
(0 0 0)
(0 0 0)
(0 0 0)
(0 0 0)
(0 0 0)
(0 0 0)
(0 0 0)
(0 0 0)
(0 0 0)
(0 0 0)
(0 0 0)
(0 0 0)
(0 0 0)
(0 0 0)
(0 0 0)
(0 0 0)
(0 0 0)
(0 0 0)
(0 0 0)
(-1.65466e-29 -1.08772e-27 0)
(-2.51329e-28 -1.65158e-26 0)
(-4.33286e-28 -2.84601e-26 0)
(-1.31022e-28 -8.61149e-27 0)
(-2.71507e-34 -2.49921e-32 0)
(0 0 0)
(-1.26743e-33 -1.16664e-31 0)
(0 0 0)
(0 0 0)
(0 0 0)
(0 0 0)
(-3.26111e-28 -2.13914e-26 0)
(-4.29876e-28 -2.82122e-26 0)
(-3.79955e-21 -7.91077e-20 0)
(-5.53294e-21 -1.15213e-19 0)
(-7.45923e-22 -1.5549e-20 0)
(0 0 0)
(1.06983e-25 -1.06301e-23 0)
(1.27037e-25 -1.26225e-23 0)
(2.18747e-23 -1.42586e-21 0)
(1.95462e-15 -4.65017e-14 0)
(3.69951e-16 -9.63554e-15 0)
(1.55369e-17 -4.24106e-16 0)
(6.91625e-23 -4.50792e-21 0)
(5.72553e-22 -3.72558e-20 0)
(1.06648e-16 -2.90714e-15 0)
(2.35378e-13 -3.71822e-12 0)
(4.38563e-13 -6.44711e-12 0)
(6.36701e-13 -9.31123e-12 0)
(1.50014e-14 -3.07539e-13 0)
(7.28587e-15 -1.65477e-13 0)
(1.12979e-26 -1.12322e-24 0)
(2.26894e-26 -2.25479e-24 0)
(1.12486e-12 -1.60667e-11 0)
(1.76484e-12 -2.53099e-11 0)
(1.56004e-30 -8.63937e-28 0)
(7.03251e-28 -7.14422e-26 0)
(5.59267e-27 -5.57721e-25 0)
(1.34652e-31 -7.50135e-29 0)
(7.80805e-31 -4.34022e-28 0)
(1.76255e-30 -9.77337e-28 0)
(4.12357e-33 -2.33926e-30 0)
(6.57848e-33 -3.7319e-30 0)
(1.28826e-32 -7.30815e-30 0)
(5.91744e-33 -3.3569e-30 0)
(0 0 0)
(0 0 0)
(0 0 0)
(0 0 0)
(0 0 0)
(0 0 0)
(0 0 0)
(0 0 0)
(0 0 0)
(0 0 0)
(0 0 0)
(0 0 0)
(0 0 0)
(0 0 0)
(0 0 0)
(0 0 0)
(0 0 0)
(0 0 0)
(0 0 0)
(0 0 0)
(0 0 0)
(0 0 0)
(0 0 0)
(0 0 0)
(0 0 0)
(0 0 0)
(0 0 0)
(0 0 0)
(-3.73918e-29 -2.45798e-27 0)
(-6.41901e-28 -4.21817e-26 0)
(-1.00715e-27 -6.6154e-26 0)
(-4.2448e-28 -2.78984e-26 0)
(-6.00281e-34 -5.52557e-32 0)
(0 0 0)
(-2.68417e-33 -2.47072e-31 0)
(0 0 0)
(0 0 0)
(0 0 0)
(0 0 0)
(-4.10848e-28 -2.69351e-26 0)
(-1.01538e-27 -6.6638e-26 0)
(-1.07485e-20 -2.23787e-19 0)
(-1.92221e-21 -4.00691e-20 0)
(0 0 0)
(1.34738e-25 -1.33883e-23 0)
(2.70766e-25 -2.69035e-23 0)
(5.38907e-23 -3.51276e-21 0)
(7.14883e-16 -1.84143e-14 0)
(4.44613e-15 -1.04252e-13 0)
(1.87842e-16 -5.11793e-15 0)
(4.66033e-17 -1.27209e-15 0)
(1.42061e-22 -9.25934e-21 0)
(1.34903e-21 -8.77808e-20 0)
(8.17884e-17 -2.2324e-15 0)
(5.26008e-13 -8.30923e-12 0)
(9.70485e-13 -1.42666e-11 0)
(1.37053e-12 -2.00428e-11 0)
(3.44276e-14 -7.05788e-13 0)
(1.69766e-14 -3.80596e-13 0)
(2.03485e-26 -2.02233e-24 0)
(8.92362e-27 -8.87787e-25 0)
(3.73251e-26 -3.70909e-24 0)
(1.16647e-12 -1.65779e-11 0)
(3.99846e-12 -5.73426e-11 0)
(3.25095e-30 -1.80035e-27 0)
(1.69073e-27 -1.71759e-25 0)
(4.48012e-27 -4.49886e-25 0)
(3.32378e-31 -1.85109e-28 0)
(1.47773e-30 -8.21126e-28 0)
(3.49651e-33 -1.98353e-30 0)
(6.82501e-33 -3.87175e-30 0)
(1.09051e-32 -6.18636e-30 0)
(2.21712e-32 -1.25774e-29 0)
(1.14225e-32 -6.47987e-30 0)
(0 0 0)
(0 0 0)
(0 0 0)
(0 0 0)
(0 0 0)
(0 0 0)
(0 0 0)
(0 0 0)
(0 0 0)
(0 0 0)
(0 0 0)
(0 0 0)
(0 0 0)
(0 0 0)
(0 0 0)
(0 0 0)
(0 0 0)
(0 0 0)
(0 0 0)
(0 0 0)
(0 0 0)
(0 0 0)
(0 0 0)
(0 0 0)
(0 0 0)
(0 0 0)
(0 0 0)
(0 0 0)
(0 0 0)
(-9.28468e-29 -6.10336e-27 0)
(-1.11203e-27 -7.30715e-26 0)
(-1.4518e-27 -9.53292e-26 0)
(-8.14252e-28 -5.35158e-26 0)
(-1.26046e-34 -1.1603e-32 0)
(-1.62681e-33 -1.49747e-31 0)
(0 0 0)
(0 0 0)
(-5.37494e-33 -4.94749e-31 0)
(0 0 0)
(0 0 0)
(0 0 0)
(0 0 0)
(-9.5959e-28 -6.29105e-26 0)
(-2.47451e-20 -5.15201e-19 0)
(-3.74178e-21 -7.79984e-20 0)
(0 0 0)
(3.58594e-25 -3.56314e-23 0)
(6.20598e-25 -6.16632e-23 0)
(1.53106e-26 -1.52124e-24 0)
(1.69171e-15 -4.35758e-14 0)
(1.00195e-14 -2.34937e-13 0)
(4.16426e-16 -1.13459e-14 0)
(3.07496e-17 -8.39452e-16 0)
(2.96719e-22 -1.93397e-20 0)
(3.00562e-21 -1.95544e-19 0)
(1.82399e-16 -4.97857e-15 0)
(6.43754e-14 -1.29099e-12 0)
(1.15618e-12 -1.80409e-11 0)
(1.12097e-12 -1.65484e-11 0)
(2.53654e-12 -3.70949e-11 0)
(3.3944e-14 -7.60985e-13 0)
(4.73664e-26 -4.7075e-24 0)
(2.20069e-26 -2.18941e-24 0)
(9.21974e-26 -9.16189e-24 0)
(3.92614e-12 -5.52737e-11 0)
(3.12826e-12 -4.44591e-11 0)
(3.58092e-12 -5.20338e-11 0)
(6.55048e-12 -9.30959e-11 0)
(6.05943e-30 -3.35566e-27 0)
(9.94954e-30 -5.5008e-27 0)
(8.9242e-27 -8.96153e-25 0)
(6.16736e-31 -3.43475e-28 0)
(3.03698e-30 -1.68754e-27 0)
(9.07339e-33 -5.14723e-30 0)
(1.90424e-32 -1.08026e-29 0)
(2.49345e-32 -1.41451e-29 0)
(4.39981e-32 -2.49596e-29 0)
(2.60326e-32 -1.4768e-29 0)
(0 0 0)
(0 0 0)
(0 0 0)
(0 0 0)
(0 0 0)
(0 0 0)
(0 0 0)
(0 0 0)
(0 0 0)
(0 0 0)
(0 0 0)
(0 0 0)
(0 0 0)
(0 0 0)
(0 0 0)
(0 0 0)
(0 0 0)
(0 0 0)
(0 0 0)
(0 0 0)
(0 0 0)
(0 0 0)
(0 0 0)
(0 0 0)
(0 0 0)
(0 0 0)
(0 0 0)
(0 0 0)
(0 0 0)
(0 0 0)
(0 0 0)
(0 0 0)
(-2.42111e-28 -1.59152e-26 0)
(-2.43558e-27 -1.60042e-25 0)
(-3.07287e-27 -2.01773e-25 0)
(-2.04403e-27 -1.34338e-25 0)
(-4.14255e-34 -3.81337e-32 0)
(-3.32691e-33 -3.0624e-31 0)
(0 0 0)
(0 0 0)
(-1.14179e-32 -1.05099e-30 0)
(0 0 0)
(0 0 0)
(0 0 0)
(0 0 0)
(-1.71137e-27 -1.12197e-25 0)
(-1.76294e-20 -3.66972e-19 0)
(-1.04662e-20 -2.18171e-19 0)
(-4.74079e-20 -9.86842e-19 0)
(-2.2679e-27 -1.48649e-25 0)
(0 0 0)
(1.96291e-25 -1.95059e-23 0)
(6.29623e-25 -6.25608e-23 0)
(1.01419e-24 -1.00769e-22 0)
(3.32449e-26 -3.30318e-24 0)
(7.95466e-16 -2.16661e-14 0)
(3.37713e-15 -8.58219e-14 0)
(2.35872e-14 -5.45335e-13 0)
(8.28317e-17 -2.26116e-15 0)
(5.91242e-22 -3.85364e-20 0)
(6.67666e-21 -4.34381e-19 0)
(3.26985e-16 -8.92501e-15 0)
(1.28015e-13 -2.56723e-12 0)
(1.94874e-12 -3.15835e-11 0)
(2.68752e-12 -3.96748e-11 0)
(2.79324e-12 -4.12355e-11 0)
(6.08794e-14 -1.34872e-12 0)
(3.06503e-26 -3.04707e-24 0)
(2.378e-26 -2.36789e-24 0)
(8.0601e-12 -1.13084e-10 0)
(1.01363e-11 -1.47289e-10 0)
(1.39054e-11 -1.97624e-10 0)
(5.72169e-30 -3.1774e-27 0)
(2.16606e-29 -1.19755e-26 0)
(1.6288e-27 -1.79437e-25 0)
(1.36775e-30 -7.61537e-28 0)
(2.60011e-30 -1.44618e-27 0)
(3.81601e-33 -2.16478e-30 0)
(2.06057e-32 -1.16894e-29 0)
(4.70508e-32 -2.66914e-29 0)
(7.021e-32 -3.98293e-29 0)
(5.06121e-32 -2.87116e-29 0)
(0 0 0)
(0 0 0)
(0 0 0)
(0 0 0)
(0 0 0)
(0 0 0)
(0 0 0)
(0 0 0)
(0 0 0)
(0 0 0)
(0 0 0)
(0 0 0)
(0 0 0)
(0 0 0)
(0 0 0)
(0 0 0)
(0 0 0)
(0 0 0)
(0 0 0)
(0 0 0)
(0 0 0)
(0 0 0)
(0 0 0)
(0 0 0)
(0 0 0)
(0 0 0)
(0 0 0)
(0 0 0)
(0 0 0)
(0 0 0)
(0 0 0)
(0 0 0)
(0 0 0)
(-5.94109e-28 -3.90538e-26 0)
(-3.05261e-27 -2.00611e-25 0)
(-3.08433e-27 -2.02645e-25 0)
(-4.76913e-27 -3.13033e-25 0)
(-1.71364e-27 -1.12646e-25 0)
(-9.80101e-34 -9.02218e-32 0)
(0 0 0)
(-7.3844e-33 -6.79724e-31 0)
(0 0 0)
(0 0 0)
(0 0 0)
(-1.12931e-32 -1.03951e-30 0)
(-2.0282e-32 -1.8669e-30 0)
(0 0 0)
(0 0 0)
(0 0 0)
(0 0 0)
(0 0 0)
(-2.20684e-27 -1.44711e-25 0)
(-2.3065e-20 -4.80796e-19 0)
(-1.19046e-19 -2.47806e-18 0)
(-5.34964e-27 -3.50641e-25 0)
(0 0 0)
(3.98936e-25 -3.96433e-23 0)
(1.62527e-24 -1.61491e-22 0)
(2.33143e-24 -2.3165e-22 0)
(6.3224e-26 -6.28186e-24 0)
(1.83246e-15 -4.99107e-14 0)
(7.60209e-15 -1.9319e-13 0)
(4.80743e-14 -1.11148e-12 0)
(1.93984e-20 -1.2605e-18 0)
(1.94861e-16 -5.31872e-15 0)
(1.6993e-21 -1.10756e-19 0)
(1.48181e-20 -9.63858e-19 0)
(7.48609e-16 -2.04332e-14 0)
(3.78408e-13 -7.58865e-12 0)
(0 0 0)
(4.85455e-12 -7.69907e-11 0)
(3.79469e-12 -5.60195e-11 0)
(7.14462e-12 -1.05473e-10 0)
(1.71045e-13 -3.78932e-12 0)
(7.46887e-26 -7.4251e-24 0)
(5.24787e-26 -5.22557e-24 0)
(2.02811e-11 -2.84546e-10 0)
(1.6011e-11 -2.31153e-10 0)
(1.14584e-29 -6.36316e-27 0)
(1.9164e-29 -1.06361e-26 0)
(3.48485e-29 -1.92291e-26 0)
(4.69925e-27 -4.98486e-25 0)
(1.00362e-30 -5.60253e-28 0)
(5.88274e-30 -3.27198e-27 0)
(9.31082e-33 -5.28193e-30 0)
(4.10809e-32 -2.33047e-29 0)
(9.31563e-32 -5.28465e-29 0)
(1.25851e-31 -7.13937e-29 0)
(1.07146e-31 -6.07826e-29 0)
(0 0 0)
(0 0 0)
(0 0 0)
(0 0 0)
(0 0 0)
(0 0 0)
(0 0 0)
(0 0 0)
(0 0 0)
(0 0 0)
(0 0 0)
(0 0 0)
(0 0 0)
(0 0 0)
(0 0 0)
(0 0 0)
(0 0 0)
(0 0 0)
(0 0 0)
(0 0 0)
(0 0 0)
(0 0 0)
(0 0 0)
(0 0 0)
(0 0 0)
(0 0 0)
(0 0 0)
(0 0 0)
(0 0 0)
(0 0 0)
(0 0 0)
(0 0 0)
(0 0 0)
(0 0 0)
(0 0 0)
(-7.77573e-27 -5.11003e-25 0)
(-6.64195e-27 -4.36385e-25 0)
(-1.11569e-26 -7.32494e-25 0)
(-3.78925e-27 -2.49085e-25 0)
(-2.33434e-33 -2.14884e-31 0)
(0 0 0)
(-6.1592e-33 -5.66962e-31 0)
(0 0 0)
(0 0 0)
(0 0 0)
(-3.13093e-32 -2.88196e-30 0)
(-4.40057e-32 -4.05059e-30 0)
(0 0 0)
(0 0 0)
(0 0 0)
(0 0 0)
(0 0 0)
(-5.62066e-27 -3.68568e-25 0)
(-1.47432e-19 -3.06677e-18 0)
(-7.47691e-27 -4.89933e-25 0)
(-5.45226e-20 -1.13654e-18 0)
(-2.28055e-19 -4.74585e-18 0)
(0 0 0)
(0 0 0)
(9.14047e-25 -9.08282e-23 0)
(2.97959e-24 -2.96053e-22 0)
(2.99846e-24 -2.97924e-22 0)
(1.41147e-25 -1.40242e-23 0)
(3.78081e-15 -1.02932e-13 0)
(1.40931e-14 -3.52561e-13 0)
(1.07833e-13 -2.46844e-12 0)
(3.79328e-20 -2.46389e-18 0)
(4.5499e-16 -1.24189e-14 0)
(3.4355e-21 -2.23916e-19 0)
(3.44428e-20 -2.24037e-18 0)
(1.48746e-15 -4.05999e-14 0)
(8.3795e-13 -1.68044e-11 0)
(0 0 0)
(9.66738e-12 -1.58776e-10 0)
(8.14652e-12 -1.20264e-10 0)
(1.29542e-11 -1.91238e-10 0)
(1.72251e-13 -3.87656e-12 0)
(2.85346e-13 -6.2392e-12 0)
(1.44326e-25 -1.4348e-23 0)
(6.66045e-27 -6.80749e-25 0)