/*--------------------------------*- C++ -*----------------------------------*\
| =========                 |                                                 |
| \\      /  F ield         | OpenFOAM: The Open Source CFD Toolbox           |
|  \\    /   O peration     | Version:  v2012                                 |
|   \\  /    A nd           | Website:  www.openfoam.com                      |
|    \\/     M anipulation  |                                                 |
\*---------------------------------------------------------------------------*/
FoamFile
{
    version     2.0;
    format      ascii;
    class       volScalarField;
    location    "1";
    object      k;
}
// * * * * * * * * * * * * * * * * * * * * * * * * * * * * * * * * * * * * * //

dimensions      [0 2 -2 0 0 0 0];


internalField   nonuniform List<scalar> 
13611
(
0.000196346
0.000156462
0.00100822
0.000187531
0.000218458
0.000254349
0.000138045
0.000334704
0.000254155
0.000229356
0.000257211
0.000156624
0.000189245
0.00107867
0.000252808
0.000233513
0.000252027
0.000250113
0.000120323
0.000187371
0.000314089
0.000254549
0.000253281
0.00025073
0.000249623
0.000250016
0.000128877
0.000217435
0.000988659
0.000255204
0.000251978
0.000250523
0.00024804
0.000247982
0.000244751
0.000133055
0.000194719
0.000353874
0.000254629
0.000252061
0.000248855
0.00024618
0.000246061
0.000245368
0.000115559
0.000203605
0.00114243
0.000122011
0.00025342
0.000255721
0.000250649
0.000248957
0.000245315
0.000244308
0.000242855
0.000245708
0.00015738
0.00022721
0.000398184
0.000103724
0.0002537
0.000255079
0.00025041
0.00024784
0.000257179
0.000243965
0.000246483
0.000242936
0.000240984
0.000241985
0.000151416
0.000230136
0.00101737
9.64807e-05
0.00025301
0.000255769
0.00024937
0.000251683
0.000248094
0.000244382
0.000245666
0.000241603
0.000238647
0.000240384
0.000240728
0.000193739
0.000237312
0.000483017
7.27526e-05
0.000254078
0.000255914
0.000249721
0.000250981
0.000247245
0.000257445
0.000243615
0.00024596
0.000242152
0.000237617
0.000239002
0.000237441
0.000186859
0.000236583
0.000257541
8.39818e-05
0.000255458
0.000253303
0.000248794
0.000251757
0.000247616
0.000257775
0.000259068
0.000244243
0.000245459
0.000241403
0.000236702
0.000239037
0.000235336
0.000235421
0.000217805
0.000232309
0.000234887
0.00108568
6.07553e-05
5.84965e-05
0.000256408
0.0002542
0.000249357
0.000250978
0.000246391
0.000259411
0.00024336
0.000242167
0.000240194
0.000237478
0.000233463
0.00023262
0.000197713
0.000231305
0.000232131
0.000372632
2.81157e-05
0.000105461
0.000256765
0.000253651
0.000255897
0.000249148
0.000251452
0.000245923
0.00025846
0.000260774
0.000243659
0.000241418
0.000240189
0.000237155
0.000234368
0.000231411
0.000233846
0.000232826
0.000230109
0.000229925
0.000230779
0.00108743
8.79786e-05
7.64477e-05
0.000252658
0.00025468
0.000256621
0.000248373
0.000250414
0.000244865
0.000247094
0.000259005
0.000261386
0.000242662
0.000241606
0.000239731
0.00023601
0.000238537
0.000233751
0.000232423
0.000157575
0.000229956
0.000227262
0.000229023
0.000227717
0.000378215
3.25671e-05
0.000253024
0.000255971
0.000254123
0.000258192
0.000248953
0.000250788
0.000245335
0.000246492
0.000260536
0.000262951
0.000243152
0.000240457
0.000235937
0.000238186
0.000234551
0.000231557
0.000163546
0.000227955
0.00022636
0.000225906
0.000227222
0.000230264
8.6532e-05
0.00109343
0.000106614
0.000252238
0.000256822
0.000255091
0.000259203
0.000248435
0.000250168
0.00024451
0.000247165
0.000261668
0.000264372
0.000242361
0.000240861
0.000236955
0.000239082
0.000234571
0.000231444
0.000201632
0.000227302
0.000223365
0.00022475
0.000228
0.000229693
4.0442e-05
0.000353344
0.000128801
0.000251988
0.000256512
0.000258413
0.000254974
0.000260981
0.000249121
0.000250779
0.000244856
0.000246802
0.000263649
0.000242725
0.000240288
0.000237031
0.000239174
0.000233761
0.000236001
0.000232547
0.000230073
0.000182862
0.00022675
0.000222237
0.000221886
0.000223265
0.000225816
0.000227328
5.88965e-05
9.87556e-05
0.00100351
0.000252973
0.000257507
0.000258857
0.000256397
0.000254331
0.000262584
0.000250349
0.000248797
0.000243996
0.000245991
0.000247772
0.000264734
0.000242211
0.00024117
0.000238217
0.000240337
0.000234334
0.000236295
0.000232533
0.000229595
0.000201754
0.000221194
0.000219552
0.00021893
0.00022078
0.000223049
0.000225458
0.000228056
4.56386e-05
0.00011326
0.000495285
0.000252517
0.000257615
0.000260595
0.000256473
0.000255231
0.000262361
0.000264556
0.000251218
0.000249708
0.00024414
0.000246385
0.000247468
0.000267189
0.000268491
0.000242905
0.000238403
0.000240642
0.000233561
0.000235471
0.000237516
0.000231839
0.000230566
0.000168349
0.000221922
0.000216898
0.000219149
0.00022154
0.000224171
0.000226629
0.000227901
8.41864e-05
0.000274268
0.000253339
0.000259555
0.000261066
0.000257964
0.000254809
0.000264351
0.000266177
0.000250871
0.000249441
0.0002451
0.000246098
0.000248307
0.000267838
0.000270945
0.000243208
0.000239605
0.000241789
0.000233875
0.000235804
0.000237814
0.000232099
0.000230343
0.000181168
0.000215603
0.000214329
0.000216361
0.00021815
0.00022096
0.000224497
0.000226005
0.000229207
8.47991e-06
0.00108172
3.33814e-05
0.00025308
0.000259563
0.000262954
0.000258657
0.000256142
0.000266532
0.00026434
0.000267262
0.000251774
0.000250328
0.000245502
0.000247012
0.000248004
0.00026991
0.000271466
0.000244711
0.000242522
0.000239627
0.000241982
0.00023305
0.000235002
0.00023697
0.000238861
0.000231164
0.000177228
0.000213185
0.000216826
0.000215484
0.00021912
0.000222062
0.000223717
0.000226949
0.00022928
8.97887e-05
0.000443836
1.03967e-06
0.000254217
0.000261334
0.00026369
0.000258001
0.000260631
0.000255763
0.000267346
0.000266045
0.000269598
0.0002516
0.000250134
0.000246547
0.000248865
0.000274049
0.000245008
0.000242761
0.000240801
0.000241751
0.000233397
0.00023533
0.000237312
0.00023927
0.00023141
0.00020734
0.000210744
0.000213482
0.000216141
0.000212017
0.000216693
0.000218594
0.000222221
0.000224561
0.000226895
0.000228525
0.000230515
0.000113797
0.000104263
0.00116245
6.34084e-05
0.000266168
0.00025861
0.000254474
0.000263106
0.000265571
0.000259342
0.000261893
0.000257146
0.000269599
0.000271722
0.000253144
0.000251434
0.000247353
0.000248712
0.000276326
0.00027508
0.000243995
0.000246211
0.000240441
0.000242632
0.000232594
0.00023455
0.000236481
0.000238469
0.000239238
0.000183902
0.000209711
0.000213111
0.000212934
0.000209047
0.000216702
0.000219914
0.000223714
0.000221539
0.000226008
0.00022806
0.000228966
0.000230998
0.000105607
0.000434798
9.1085e-05
0.000255103
0.000262889
0.000252303
0.000149453
0.00100368
0.000256098
0.000264764
0.000267476
0.000261268
0.000258766
0.000264054
0.000271674
0.000271085
0.0002745
0.000252962
0.000251388
0.000247235
0.000249987
0.000278482
0.000243851
0.000246964
0.000240991
0.00024289
0.000233211
0.000234883
0.000236882
0.000238936
0.000240229
0.000202674
0.000207727
0.000211197
0.000214954
0.000210754
0.000206863
0.000218219
0.000219528
0.000224165
0.000222452
0.000226356
0.00022846
0.000230142
0.000232376
3.46601e-05
0.00102991
6.30114e-05
0.000178529
0.000228838
0.000250808
0.000262215
0.000249469
0.000142711
0.000264296
0.000256906
0.000266899
0.000270277
0.000262862
0.000260235
0.000265128
0.000274943
0.000274167
0.000277591
0.00025443
0.000252543
0.000248921
0.000250169
0.000280078
0.000279897
0.000244872
0.000248656
0.000247171
0.000242128
0.00024413
0.000234382
0.00023613
0.00023814
0.00024002
0.000240547
0.000207213
0.000211153
0.000214824
0.000208222
0.000204725
0.000218706
0.000220725
0.000223775
0.000225574
0.000222022
0.000227604
0.000229768
0.000230602
0.000232865
6.2642e-05
0.000521774
0.00010148
0.000195399
0.000251745
0.000247505
0.000254921
0.000252469
0.000250135
0.000255951
0.000149124
0.000992929
0.000256233
0.000258949
0.000268763
0.000272437
0.000264788
0.000262304
0.000260013
0.000267777
0.000277761
0.000275935
0.000254127
0.000253106
0.000251881
0.000285035
0.000282958
0.000282557
0.000246332
0.000249681
0.000248779
0.000242648
0.000244854
0.00023518
0.00023642
0.000238574
0.000241142
0.00024186
0.000204975
0.000208689
0.000210417
0.000213279
0.00021658
0.000207319
0.000203912
0.000218323
0.000220312
0.000224768
0.000225938
0.000223049
0.000228172
0.000230337
0.000231969
0.000234419
2.40875e-05
0.000283894
0.000178408
6.85502e-05
0.000203814
0.000222572
0.000245073
0.000247297
0.000254068
0.000253908
0.000248997
0.000256797
0.000142525
0.000237795
0.000257936
0.000259993
0.000271672
0.000269161
0.000275134
0.00026683
0.000264161
0.000261689
0.000268694
0.000281767
0.000280093
0.000255578
0.0002548
0.0002521
0.00028458
0.000285811
0.000247214
0.000251169
0.000249813
0.000244004
0.000246401
0.000235498
0.000237526
0.000239926
0.000242343
0.000241004
0.000204939
0.000209064
0.000211662
0.000213119
0.000216456
0.000202223
0.000200285
0.000219987
0.000221344
0.000224625
0.000227209
0.000223032
0.000229597
0.000231798
0.000232547
0.000234702
5.58659e-05
0.00104742
0.000199183
9.83868e-05
0.000202972
0.000234871
0.00024367
0.000245353
0.000244932
0.000248173
0.000253181
0.000250913
0.000255687
0.000126549
0.000972931
0.000257323
0.00025974
0.000261535
0.000273542
0.000271829
0.000278046
0.000267417
0.000263485
0.000266568
0.000271151
0.00028585
0.000282539
0.000281205
0.000255881
0.000254111
0.000291564
0.000289628
0.000290384
0.000248957
0.000252309
0.000251732
0.000244696
0.00024729
0.000237201
0.000238228
0.00024061
0.000243705
0.000242442
0.000203112
0.000207441
0.000210744
0.000214649
0.000217923
0.000199726
0.000200608
0.000221668
0.000219717
0.000226139
0.000228275
0.000224723
0.000230766
0.000232968
0.000233938
0.000236369
1.41494e-05
0.000340667
0.000175391
6.52049e-05
0.000200517
0.00016271
0.000240761
0.000246284
0.000242026
0.000251294
0.000254198
0.000250398
0.000256838
0.000255442
0.000301605
0.000258336
0.000261239
0.000262779
0.000276506
0.00027308
0.00027864
0.000270366
0.00026431
0.000269001
0.000272217
0.00029041
0.000287578
0.000285109
0.000255612
0.000257796
0.000253924
0.00029541
0.000294144
0.000249781
0.000253116
0.00024634
0.000248917
0.000238234
0.000239857
0.00024198
0.000244248
0.000243827
0.000203632
0.000207827
0.000212055
0.00021462
0.000218828
0.000197583
0.00019836
0.000223608
0.000222074
0.000226373
0.000227954
0.000230313
0.000225033
0.00023254
0.000234772
0.000235227
0.000236563
0.000237687
7.17606e-05
0.00105409
0.000191104
8.89839e-05
0.000198404
0.000153047
0.000242027
0.000248935
0.00024498
0.000240165
0.000238775
0.000203831
0.000248495
0.000253079
0.000251731
0.000257088
0.000254321
0.00108019
0.000134791
0.000260475
0.000261801
0.000263137
0.000278937
0.000277074
0.000283416
0.000271354
0.000266676
0.00026886
0.000275591
0.000291139
0.000294556
0.000288406
0.000286245
0.000257255
0.000259363
0.00025549
0.000298441
0.000298136
0.000251741
0.000252907
0.000255103
0.00024704
0.000250285
0.000240325
0.000241053
0.000243242
0.000246025
0.000245338
0.000202349
0.000206108
0.00021034
0.00021243
0.000216717
0.000218961
0.000221425
0.000195128
0.00019937
0.000224905
0.000223944
0.000228341
0.000229569
0.000232103
0.000227344
0.000233853
0.000235677
0.000237885
0.000239034
1.52059e-05
0.000335367
0.000160278
0.000197545
5.64715e-05
0.000197284
0.000195226
0.000240609
0.000248563
0.000245728
0.000236631
0.000238355
0.000198685
0.000248082
0.000252969
0.000250765
0.000256028
0.000254592
0.000319046
0.00010638
0.000261081
0.000264815
0.000265734
0.000282748
0.000278155
0.000274567
0.000267628
0.000271483
0.000277073
0.000296068
0.000297939
0.000292958
0.000290183
0.000257235
0.000259141
0.000302761
0.000302152
0.000252459
0.000254674
0.000256426
0.000248895
0.000250121
0.000252113
0.000241593
0.00024286
0.000245055
0.000246672
0.000204027
0.000207428
0.000211524
0.000215991
0.000218203
0.0002212
0.000222912
0.000194546
0.000199022
0.000224458
0.000227188
0.00022575
0.000228859
0.000229841
0.0002316
0.00023396
0.000235592
0.000237616
0.00023859
0.000240786
7.3676e-05
0.00103957
0.000178009
0.000194908
8.66678e-05
0.000194037
0.000192806
0.000241698
0.000247478
0.000249501
0.000245049
0.000236344
0.000234449
0.000240159
0.000218612
0.000121791
0.000244035
0.000239513
0.00025228
0.000250969
0.000258704
0.000256352
0.000254104
0.00100479
0.000263847
0.000265821
0.00026668
0.000286112
0.000282298
0.000276466
0.000269984
0.00027483
0.00028041
0.000296599
0.000299172
0.000301742
0.000293431
0.000292165
0.000259149
0.000260794
0.000305853
0.000305814
0.000254122
0.000256284
0.000258874
0.000249542
0.000251809
0.000253215
0.000243884
0.000244313
0.000246625
0.000248446
0.000205487
0.000201682
0.000209955
0.000214401
0.000216191
0.000222033
0.000223667
0.000225268
0.000192507
0.000196779
0.000227053
0.000229387
0.000226676
0.000231109
0.000231588
0.000233046
0.000235804
0.000237493
0.000238881
0.000240675
0.000242061
1.57445e-05
0.000339636
0.000159558
0.000195104
5.76704e-05
0.000192784
0.000191478
0.000243836
0.000246958
0.000248969
0.000245792
0.000236753
0.000232181
0.000240532
0.000221552
0.000102687
0.000246084
0.000235488
0.000253007
0.000250911
0.000257583
0.000255086
0.000311596
0.000264434
0.000268385
0.000269862
0.000285766
0.000291032
0.000282874
0.000281101
0.000271749
0.000277342
0.000282757
0.000300337
0.000302487
0.000304515
0.000297256
0.000296336
0.000261084
0.000260073
0.000263302
0.000309433
0.000309466
0.000254627
0.000258518
0.000260265
0.000251103
0.000253227
0.000245054
0.000244921
0.000246389
0.00024863
0.000249222
0.000202697
0.000205591
0.000211035
0.000215442
0.000219427
0.000224002
0.000227669
0.000228166
0.000191509
0.000197476
0.000229147
0.000232176
0.000230841
0.000232845
0.000232923
0.000235507
0.000237673
0.000236776
0.000241011
0.000241933
0.000241943
0.000244285
7.82424e-05
0.00105151
0.000175574
0.000192933
6.18305e-05
0.000189804
0.000189676
0.000243364
0.000247656
0.000249757
0.000245123
0.000235645
0.000239244
0.000233664
0.000230755
0.000242193
0.00016515
0.000238425
0.000116112
0.000237053
0.000252
0.000257573
0.000255029
0.000994119
0.000267581
0.000270488
0.000270612
0.000289559
0.000293717
0.00028644
0.000283127
0.000275529
0.000281354
0.000286076
0.000300281
0.000303984
0.000304738
0.0003081
0.000298805
0.000263414
0.000263127
0.000264833
0.000315195
0.000312328
0.00031011
0.000312758
0.000256867
0.000258876
0.000262853
0.000252195
0.000255275
0.000247284
0.000247363
0.000248266
0.000249769
0.000251174
0.000224218
0.000213624
0.000201878
0.000212758
0.000221412
0.00022528
0.000230465
0.000231265
0.000231479
0.000189478
0.000194778
0.000232193
0.000234698
0.000233399
0.000235696
0.000236767
0.000237156
0.000237027
0.000240295
0.000239699
0.000242894
0.000243786
0.000243978
0.000245714
2.31624e-05
0.0003251
0.000175844
0.000192582
3.90547e-05
0.000120871
0.000188567
0.000189128
0.000243978
0.000247401
0.000249695
0.000245475
0.000236591
0.000238983
0.000233103
0.000229593
0.00024185
0.000150787
0.000240639
9.61962e-05
0.000231639
0.00025245
0.000259995
0.000256348
0.000258809
0.000254085
0.000468299
0.000266904
0.000269974
0.000274022
0.000274253
0.000289312
0.00029321
0.000297577
0.00028734
0.000277949
0.000283658
0.000288326
0.000302918
0.000307122
0.000309204
0.000310381
0.000302581
0.000264623
0.000264377
0.000319343
0.000314817
0.000315748
0.00025733
0.000261703
0.000264671
0.00025458
0.000255949
0.000249035
0.000248514
0.000249814
0.000251806
0.000252541
0.000286969
0.000206167
0.000210339
0.000228974
0.000250977
0.000241406
0.000245121
0.000231638
0.000236624
0.000235682
0.000188479
0.00020589
0.000235366
0.000238452
0.000238601
0.000238027
0.000239453
0.000240148
0.000239843
0.000242633
0.000241593
0.000245823
0.000245999
0.000245575
0.000248161
6.10591e-05
0.000962266
0.000188678
0.000191998
3.27821e-05
0.000119709
0.0001859
0.000185457
0.000243687
0.000246529
0.000248578
0.000251001
0.000244501
0.000238037
0.000235689
0.000240074
0.000234255
0.000231261
0.000227265
0.000241061
0.000242718
0.000179012
0.000234342
0.000227081
0.000112202
0.000229493
0.000252122
0.000256479
0.000258944
0.00025427
0.000363708
0.000269033
0.000273253
0.000276613
0.000277238
0.000292387
0.000295567
0.00029917
0.000288384
0.000289167
0.000282321
0.000287061
0.000291782
0.000306458
0.000304078
0.000310816
0.000311732
0.000314081
0.000304898
0.000267674
0.000267239
0.00031953
0.000317424
0.000259794
0.000261984
0.0002643
0.000267798
0.000255994
0.000258702
0.000251707
0.000251192
0.000251826
0.000253511
0.000254976
0.000185429
0.000221403
0.000213852
0.000198277
0.000207682
0.000225339
0.000236382
0.000245729
0.00025776
0.000237762
0.000248937
0.000238974
0.000183693
0.000197454
0.000198852
0.000239478
0.000241813
0.000241488
0.0002419
0.000243586
0.000241606
0.00024315
0.000245766
0.000244406
0.000249103
0.000248141
0.000247444
0.000249248
2.98455e-05
0.000421877
0.000184895
0.000187514
6.86021e-05
0.000148752
0.000184679
0.000247049
0.000248783
0.000250954
0.000245172
0.000238232
0.000235485
0.000239285
0.000233696
0.000231006
0.000227367
0.000241194
0.000242246
0.000154646
0.000233152
0.00023584
8.71318e-05
0.00022566
0.000253174
0.000261715
0.000255358
0.00025777
0.000260395
0.000991655
0.000138295
0.000272336
0.000276445
0.000279632
0.000279935
0.000295336
0.000298345
0.000303007
0.000291572
0.000291898
0.0002837
0.00028938
0.0002934
0.000309674
0.000308075
0.000315764
0.000315442
0.000317003
0.00030508
0.000308745
0.000268996
0.000268767
0.000334444
0.000325279
0.000322387
0.000260451
0.0002647
0.000267263
0.000270198
0.00025848
0.000259676
0.000253306
0.00025248
0.000252975
0.000253528
0.000255868
0.000256913
3.251e-05
1.01128e-05
0.000164937
0.000155849
0.000180138
0.000129689
0.000132504
0.000245441
0.000308183
0.000253315
0.000260924
0.000241608
0.000186639
0.000196397
0.000202801
0.000181393
0.000245788
0.00024738
0.000245009
0.00024691
0.000245675
0.000246397
0.000249086
0.000246202
0.000246983
0.000252213
0.000251095
0.000251902
1.53013e-05
0.000199598
0.000194736
0.000184758
6.67189e-05
0.000149325
0.000182968
0.000246541
0.000248226
0.000250069
0.000252037
0.000244527
0.000237533
0.000234284
0.000236378
0.000239334
0.000232487
0.000229686
0.000225228
0.000240518
0.000243182
0.000183542
0.000228839
0.00022031
5.57611e-05
0.000223825
0.00025316
0.000263504
0.000255623
0.000258088
0.000260883
0.00118995
7.48629e-05
0.00027434
0.00027962
0.000282696
0.000282964
0.000298137
0.000300729
0.000303412
0.00029382
0.000292001
0.000293821
0.000287067
0.000289121
0.000296579
0.000314255
0.000309988
0.000321008
0.000320383
0.000324151
0.000309315
0.000311377
0.000271952
0.000272469
0.000331594
0.000328563
0.000262906
0.000265015
0.000267249
0.000270171
0.000273063
0.000260371
0.000262815
0.000256147
0.000253759
0.000254907
0.000255678
0.00025711
0.00025808
0.000259672
0.000410787
4.60251e-05
8.88159e-05
0.000244861
0.000175552
7.45681e-05
0.000177048
0.000185899
0.000217512
0.000284688
0.000269747
0.000260464
0.000247048
0.000183071
0.000194002
0.000182348
0.000159603
0.000250012
0.00024975
0.000250082
0.000251007
0.000246755
0.000250394
0.000252393
0.000250074
0.000250135
0.000255414
0.000252221
0.000253062
1.61788e-06
0.00101359
5.04525e-06
0.000188246
0.000176327
0.000181663
0.000110325
0.000181319
0.000247388
0.000248949
0.000250001
0.000252042
0.000245102
0.00023797
0.000233791
0.000235692
0.000239077
0.000231852
0.000230355
0.000225687
0.000240985
0.000242872
0.000122091
0.000223153
0.000225599
0.000233633
0.000222855
0.000254412
0.00026662
0.000263817
0.000256971
0.000259662
0.000262599
0.000566144
7.02038e-05
0.000274143
0.000278359
0.000280067
0.000282766
0.000285765
0.000285796
0.000300933
0.000298514
0.000306042
0.000296609
0.000294696
0.000296813
0.000287962
0.000291127
0.000317038
0.000314118
0.00032891
0.00032589
0.00032871
0.000309275
0.000314382
0.000273736
0.000339843
0.000347081
0.000338827
0.000264191
0.000268299
0.000270011
0.000273506
0.000275772
0.000262892
0.000256954
0.000258177
0.000256597
0.000258625
0.000259353
0.000261456
0.000262347
0.000979143
0.000328628
0.00101458
0.000282324
0.00136578
0.000182697
0.000490995
0.000753567
0.000255036
3.14736e-05
0.000271343
0.000237167
0.00027967
0.000248015
0.000185395
0.00018653
0.000193193
0.000157488
0.000139948
0.000254518
0.000252377
0.000251983
0.000252072
0.00025431
0.000252162
0.000252759
0.000256192
0.000254415
0.000257841
0.000257094
0.000256081
0.000256194
3.6514e-06
0.000292698
9.68803e-06
0.000185311
0.000181026
0.00017931
0.000110463
0.000179996
0.000248655
0.000247212
0.000250909
0.000253166
0.000246382
0.000244732
0.000237599
0.000234529
0.000232439
0.000236251
0.000239952
0.000229497
0.000228081
0.000223791
0.000242051
0.000243807
0.000127087
0.000220683
0.000220304
0.000229069
0.000190023
0.000221141
0.000254417
0.00026816
0.000265303
0.000257497
0.000260312
0.000263351
0.000353325
4.16217e-05
0.000277382
0.000279396
0.000283167
0.000285162
0.000287883
0.000303926
0.000302029
0.00030654
0.000299237
0.000297103
0.000295373
0.000299219
0.00028966
0.000293818
0.000325811
0.000315383
0.000335877
0.000332928
0.000333432
0.000337364
0.000312845
0.000320039
0.000276846
0.000352745
0.000345549
0.000267435
0.00027035
0.000273147
0.000276236
0.00027862
0.000265128
0.000260005
0.00026109
0.000258056
0.000260907
0.000262808
0.0002639
0.00026513
0.0023787
0.00164289
0.00201568
0.000995502
0.00144537
0.00253934
0.0021044
0.00125111
0.00151793
0.000582811
8.33839e-05
6.84494e-05
0.000239133
5.76807e-06
0.000274598
0.00018183
0.000172088
0.000190814
0.000113438
0.000258021
0.000259527
0.000258762
0.000256318
0.000257288
0.000257464
0.000254767
0.000256461
0.000258918
0.000257818
0.000261316
0.00026155
0.000257762
5.45534e-05
6.08322e-05
0.0010036
4.11377e-05
0.000184462
0.000180246
0.000149742
0.0001786
0.000249472
0.000248324
0.00025077
0.000253817
0.000246451
0.000245475
0.000238538
0.000233912
0.000231953
0.000236378
0.00024034
0.00023001
0.000227849
0.000223753
0.000242473
0.000243447
0.000218031
0.000224237
0.000200087
0.000220596
0.000255959
0.000267774
0.000266174
0.000259361
0.000257214
0.000262244
0.000265205
0.0010941
0.00012061
0.000115416
0.000281601
0.000283562
0.000285347
0.000287645
0.000290481
0.000304459
0.000301972
0.000310046
0.000301299
0.000299768
0.000298907
0.000291293
0.000295556
0.000331674
0.000327019
0.000323145
0.000343867
0.000343787
0.000339052
0.000345016
0.000319407
0.000322995
0.000278955
0.000354969
0.000352779
0.000353036
0.0002686
0.000272295
0.000274248
0.000278552
0.000280905
0.000267893
0.000262253
0.000263425
0.000261731
0.000264006
0.00026504
0.000267726
0.000267388
0.00358682
0.00338377
0.00149572
0.00241595
0.00298639
0.00407806
0.0037009
0.00403338
0.00138914
0.000295033
0.000129558
0.000203315
0.000183805
0.000291465
0.000185013
0.000127113
0.00018269
0.000190966
0.000237772
0.00117358
0.00026376
0.000287175
0.000258559
0.000260215
0.000260483
0.000259167
0.000259377
0.000262672
0.000261573
0.000263254
0.000263217
0.000263641
0.000261354
2.23583e-05
0.0002384
5.90581e-05
0.000184353
0.000177513
0.000155571
0.000177273
0.000249494
0.000248466
0.000251843
0.000255443
0.000253251
0.000247382
0.000245453
0.000239728
0.000238539
0.000234376
0.000232882
0.000231115
0.000237685
0.000235453
0.000241746
0.000228909
0.000226925
0.000225534
0.000221907
0.000244273
0.000218547
0.000216845
0.000223221
0.000217098
0.000271209
0.000269313
0.000259778
0.000258528
0.000262487
0.000265856
0.000515101
7.53794e-05
0.000114247
0.000282918
0.000286084
0.00028756
0.000289733
0.000292503
0.000307022
0.000304707
0.000310735
0.000301893
0.000304028
0.000300849
0.00029841
0.000294617
0.000338931
0.000334623
0.000345828
0.000348171
0.000345764
0.000346778
0.000349855
0.000323659
0.000323641
0.000333241
0.000282084
0.000351672
0.00035105
0.000351987
0.000271959
0.000273863
0.000277047
0.000280853
0.000279803
0.000283408
0.000270053
0.000265322
0.000266588
0.000263351
0.000266268
0.000268381
0.000269642
0.00026895
0.000270061
0.00325503
0.00419971
0.00168103
0.00241665
0.00299871
0.00315031
0.00420995
0.00493782
0.00443592
0.00485647
0.00144323
0.00405356
0.000686992
0.000175011
0.000217064
0.00193475
0.000182958
9.36857e-05
0.000170039
0.000189436
0.000952293
0.0013768
0.000274478
0.000293743
0.000262554
0.000265561
0.000264053
0.000262961
0.00026253
0.000264518
0.000262962
0.000263765
0.000266772
0.000266814
0.000267137
4.18905e-05
3.28387e-05
0.000945081
0.000123997
0.00017307
0.000181942
0.000176739
0.000175655
0.000178999
0.000250955
0.000249749
0.000252059
0.000256493
0.000254186
0.000247712
0.000246637
0.000240276
0.000239479
0.000233383
0.000232655
0.000231566
0.000238003
0.00023584
0.000242112
0.000228955
0.000227098
0.000224767
0.000221813
0.000244243
0.000218565
0.00021457
0.000219992
0.000224178
0.00027363
0.000269682
0.000261203
0.000258706
0.000264044
0.00026812
0.000265555
0.000372282
5.94666e-05
0.000175682
0.000285575
0.000287865
0.000289659
0.000292069
0.000295348
0.000310201
0.000308563
0.000316667
0.000304625
0.000306587
0.000304582
0.000300245
0.000296178
0.000340214
0.00034566
0.000336997
0.000348487
0.000348773
0.000347688
0.000352123
0.000331573
0.000322164
0.000333445
0.000336214
0.000283911
0.000351097
0.000350257
0.00027234
0.000273878
0.000276979
0.000279279
0.000283149
0.000282599
0.000284991
0.000267551
0.000269059
0.000266846
0.000269633
0.00027064
0.000272891
0.000272165
0.00027269
0.00289998
0.0031117
0.00236584
0.002462
0.00218207
0.00185867
0.00417272
0.00458887
0.00544768
0.00551329
0.00362756
0.00552682
0.00176332
0.00054774
0.000168867
0.00365574
0.00264369
0.000191362
5.66495e-05
0.000765459
0.000195903
0.00136413
0.00194505
0.000271041
0.000275885
0.000266396
0.00026886
0.000268692
0.000266557
0.000267271
0.000267138
0.000267013
0.000268157
0.000268251
0.000268378
0.000268759
3.92724e-05
1.92085e-05
0.000216919
0.000142113
0.000169998
0.000181402
0.000173437
0.000174598
0.000176086
0.000250918
0.000250198
0.000253294
0.00025804
0.000255671
0.000249224
0.000246526
0.000241351
0.000239951
0.000233685
0.000231244
0.00023918
0.000237119
0.00023509
0.000243351
0.000228332
0.000230243
0.000226596
0.000225269
0.000223522
0.000220553
0.000245436
0.000217416
0.000212019
0.000215542
0.000223916
0.000213068
0.00027535
0.00027271
0.000261527
0.000260419
0.000264371
0.000268824
0.00026715
0.0011227
0.000121478
3.12081e-05
0.000172904
0.000287208
0.00029039
0.000291538
0.000294351
0.000296868
0.000315979
0.000312964
0.000306781
0.000310566
0.000305345
0.000303721
0.000298838
0.000345157
0.000347039
0.000343499
0.000347959
0.000348403
0.000347207
0.000349537
0.000335978
0.000328542
0.000334773
0.000342147
0.000286437
0.00035231
0.00034955
0.000274826
0.00027699
0.000278473
0.00028119
0.000284974
0.000284274
0.000287484
0.000270667
0.000271934
0.000268921
0.000271587
0.000273719
0.000274504
0.000274508
0.000274412
0.000274955
0.00144426
0.00186859
0.00226538
0.00215107
0.00194862
0.00155558
0.00101495
0.00261295
0.00406493
0.00582701
0.00411302
0.00391128
0.00667373
0.00286012
0.000532438
1.14779e-05
0.00645807
0.00555852
0.00018948
0.000148818
0.00133942
0.000647049
0.000174195
0.00198366
0.00228048
0.000247258
0.00028199
0.000272396
0.000275786
0.000273282
0.0002695
0.000269018
0.000269045
0.000270554
0.000270831
0.000271256
0.000271703
8.40073e-05
8.57041e-06
0.000906395
2.82783e-05
0.000137941
0.000176145
0.000177993
0.000172643
0.00017267
0.000181295
0.000252226
0.000251536
0.000253774
0.000259151
0.00025633
0.000249428
0.000247654
0.000241959
0.000241284
0.000233368
0.000232265
0.000240061
0.000237352
0.000235243
0.000243852
0.00022914
0.000230227
0.000227447
0.000225561
0.000222792
0.000221214
0.000245843
0.00021856
0.000212426
0.000214468
0.000220888
0.000209054
0.000278168
0.000275128
0.000272918
0.00026308
0.000260629
0.000266231
0.000270979
0.000267836
0.000546696
0.000109882
8.1511e-05
0.000201853
0.000289687
0.000292091
0.000290746
0.000293897
0.000296622
0.000299477
0.00032114
0.000320431
0.000312001
0.000314821
0.000311702
0.000305809
0.00030643
0.000300677
0.000345899
0.000346787
0.000344497
0.000347118
0.000348239
0.000349261
0.00034665
0.000348757
0.000342452
0.000328312
0.000338297
0.000288232
0.000351888
0.000356083
0.000277113
0.000278939
0.000280682
0.000283532
0.000286857
0.000286619
0.000288534
0.000272204
0.000274405
0.000271402
0.00027451
0.000275422
0.000276928
0.000277332
0.000277247
0.000277311
0.000844075
0.00166591
0.00207405
0.000888632
0.000605368
0.000343285
0.0021802
0.00412794
0.00622739
0.00257587
0.00629681
0.00668244
0.00434393
0.00192987
0.000250378
0.00691362
0.00765382
0.000182776
0.000189013
9.95985e-05
0.00165402
0.000933359
0.00188297
0.0016525
1.76192e-05
0.000231505
0.000276422
0.000278141
0.000278498
0.000279735
0.000273676
0.000272433
0.000273587
0.000272135
0.000272704
0.000273511
0.000274601
8.17737e-05
4.343e-05
0.000347936
1.1019e-05
0.000156907
0.000173839
0.000177432
0.000168677
0.000172756
0.00017612
0.000253407
0.000252247
0.000255436
0.000259217
0.000258023
0.000248803
0.000250951
0.000247073
0.000243215
0.000242245
0.00023424
0.0002322
0.000241678
0.000239772
0.000236251
0.000238634
0.000245145
0.000228659
0.000231172
0.000226889
0.000224674
0.000223143
0.000220302
0.00021751
0.000211195
0.000215532
0.000211035
0.000221403
0.000209051
0.000280787
0.000278568
0.000275639
0.000263558
0.000262092
0.000267105
0.000272121
0.000270524
0.00046644
4.18513e-05
6.20575e-05
0.000199095
0.00029109
0.000293892
0.000293139
0.000295152
0.000299034
0.000301142
0.000323608
0.000324806
0.000317063
0.000322021
0.000310299
0.000316114
0.000312107
0.000304434
0.000345175
0.000346393
0.000344105
0.000348244
0.000349605
0.000350785
0.000347365
0.000355144
0.000343066
0.000333859
0.000338204
0.000342274
0.000290579
0.000362716
0.000368038
0.000278969
0.000280833
0.000282081
0.000284662
0.000287488
0.000288338
0.000290607
0.000274885
0.000274038
0.000276183
0.000275933
0.000277736
0.000278447
0.000279233
0.000279054
0.000279171
7.10903e-05
0.000232585
0.00117677
0.000574037
0.000356508
0.000136709
3.91323e-05
0.00103021
0.00331081
0.00248564
0.0055233
0.00130148
0.00670602
0.00739695
0.00267423
0.00107619
0.00690634