/*--------------------------------*- C++ -*----------------------------------*\
| =========                 |                                                 |
| \\      /  F ield         | OpenFOAM: The Open Source CFD Toolbox           |
|  \\    /   O peration     | Version:  v2012                                 |
|   \\  /    A nd           | Website:  www.openfoam.com                      |
|    \\/     M anipulation  |                                                 |
\*---------------------------------------------------------------------------*/
FoamFile
{
    version     2.0;
    format      ascii;
    class       volScalarField;
    location    "1";
    object      nut;
}
// * * * * * * * * * * * * * * * * * * * * * * * * * * * * * * * * * * * * * //

dimensions      [0 2 -1 0 0 0 0];


internalField   nonuniform List<scalar> 
13611
(
1.05695e-05
1.00817e-05
1.30862e-05
1.05917e-05
1.08794e-05
1.11715e-05
9.77013e-06
1.16805e-05
1.11727e-05
1.09778e-05
1.12017e-05
1.00563e-05
1.05802e-05
1.31734e-05
1.11695e-05
1.10273e-05
1.1172e-05
1.11592e-05
9.32194e-06
1.05742e-05
1.16214e-05
1.11873e-05
1.11805e-05
1.116e-05
1.11635e-05
1.11687e-05
9.56085e-06
1.09226e-05
1.30946e-05
1.11942e-05
1.11795e-05
1.11681e-05
1.11591e-05
1.11581e-05
1.11403e-05
9.66791e-06
1.06791e-05
1.18333e-05
1.11977e-05
1.11872e-05
1.11634e-05
1.11523e-05
1.11512e-05
1.11551e-05
9.26829e-06
1.08013e-05
1.31414e-05
9.36839e-06
1.11965e-05
1.12104e-05
1.11845e-05
1.11715e-05
1.11526e-05
1.11454e-05
1.11398e-05
1.11662e-05
1.01686e-05
1.10293e-05
1.20275e-05
8.85961e-06
1.12087e-05
1.12183e-05
1.11931e-05
1.11715e-05
1.12361e-05
1.11493e-05
1.11636e-05
1.11429e-05
1.1134e-05
1.1148e-05
1.00851e-05
1.10713e-05
1.30165e-05
8.68914e-06
1.12151e-05
1.12299e-05
1.1193e-05
1.12077e-05
1.11831e-05
1.11575e-05
1.11661e-05
1.11412e-05
1.11233e-05
1.11348e-05
1.11463e-05
1.07079e-05
1.1131e-05
1.22899e-05
7.7619e-06
1.12379e-05
1.12406e-05
1.12044e-05
1.12144e-05
1.11851e-05
1.12588e-05
1.11596e-05
1.11759e-05
1.11509e-05
1.11218e-05
1.11315e-05
1.11299e-05
1.06373e-05
1.11343e-05
1.12287e-05
8.29e-06
1.12489e-05
1.12458e-05
1.12081e-05
1.12329e-05
1.11991e-05
1.12762e-05
1.12924e-05
1.11733e-05
1.11814e-05
1.11526e-05
1.11224e-05
1.11397e-05
1.1116e-05
1.11216e-05
1.10012e-05
1.11133e-05
1.11225e-05
1.30832e-05
7.11845e-06
7.08077e-06
1.12706e-05
1.12701e-05
1.12235e-05
1.12363e-05
1.11947e-05
1.13082e-05
1.11754e-05
1.11664e-05
1.1149e-05
1.11335e-05
1.11117e-05
1.11067e-05
1.07968e-05
1.111e-05
1.11097e-05
1.1897e-05
4.60864e-06
9.07236e-06
1.12855e-05
1.12761e-05
1.12865e-05
1.1234e-05
1.12561e-05
1.12025e-05
1.13067e-05
1.13263e-05
1.1189e-05
1.11682e-05
1.11573e-05
1.11407e-05
1.11254e-05
1.11052e-05
1.11838e-05
1.11473e-05
1.11037e-05
1.1097e-05
1.11051e-05
1.30642e-05
8.38097e-06
8.03893e-06
1.12722e-05
1.1298e-05
1.13085e-05
1.12356e-05
1.12542e-05
1.12011e-05
1.12241e-05
1.13283e-05
1.13502e-05
1.11889e-05
1.11787e-05
1.11632e-05
1.11374e-05
1.11571e-05
1.11306e-05
1.11218e-05
1.02532e-05
1.1127e-05
1.10901e-05
1.10972e-05
1.10913e-05
1.19077e-05
5.08418e-06
1.12904e-05
1.13117e-05
1.13048e-05
1.13288e-05
1.12568e-05
1.12684e-05
1.12197e-05
1.12328e-05
1.13512e-05
1.13744e-05
1.12056e-05
1.11764e-05
1.11482e-05
1.11674e-05
1.11424e-05
1.11223e-05
1.03683e-05
1.11225e-05
1.10902e-05
1.10831e-05
1.10893e-05
1.11127e-05
8.32077e-06
1.3033e-05
9.13286e-06
1.12879e-05
1.13335e-05
1.13255e-05
1.13575e-05
1.12619e-05
1.12704e-05
1.12218e-05
1.12514e-05
1.13801e-05
1.14079e-05
1.12079e-05
1.11905e-05
1.11616e-05
1.11849e-05
1.11543e-05
1.11338e-05
1.08777e-05
1.1122e-05
1.10748e-05
1.10846e-05
1.1103e-05
1.11166e-05
5.7992e-06
1.17752e-05
9.72873e-06
1.12982e-05
1.13402e-05
1.13555e-05
1.13363e-05
1.13842e-05
1.12785e-05
1.12857e-05
1.12416e-05
1.12577e-05
1.14106e-05
1.12246e-05
1.11941e-05
1.11763e-05
1.1199e-05
1.11538e-05
1.11729e-05
1.11465e-05
1.11258e-05
1.06617e-05
1.11258e-05
1.10708e-05
1.10698e-05
1.10796e-05
1.10987e-05
1.11067e-05
7.02434e-06
8.90852e-06
1.29552e-05
1.13205e-05
1.13638e-05
1.13801e-05
1.1366e-05
1.13367e-05
1.14292e-05
1.12908e-05
1.12861e-05
1.12413e-05
1.1257e-05
1.12767e-05
1.14486e-05
1.12312e-05
1.12194e-05
1.11954e-05
1.12188e-05
1.11739e-05
1.11909e-05
1.11588e-05
1.1132e-05
1.09046e-05
1.10888e-05
1.1063e-05
1.10518e-05
1.10712e-05
1.10916e-05
1.11072e-05
1.11221e-05
6.28381e-06
9.36966e-06
1.22679e-05
1.13278e-05
1.13802e-05
1.14172e-05
1.13841e-05
1.13655e-05
1.14424e-05
1.14628e-05
1.13123e-05
1.13073e-05
1.12557e-05
1.12714e-05
1.12838e-05
1.14991e-05
1.1515e-05
1.12471e-05
1.12125e-05
1.12372e-05
1.11741e-05
1.11902e-05
1.12109e-05
1.11591e-05
1.11482e-05
1.04851e-05
1.11058e-05
1.10503e-05
1.10612e-05
1.10843e-05
1.11043e-05
1.11263e-05
1.11339e-05
8.29775e-06
1.12798e-05
1.13505e-05
1.1425e-05
1.14458e-05
1.14183e-05
1.13718e-05
1.14969e-05
1.15039e-05
1.132e-05
1.13163e-05
1.12706e-05
1.12775e-05
1.13034e-05
1.1529e-05
1.15766e-05
1.12625e-05
1.12335e-05
1.12556e-05
1.11918e-05
1.12092e-05
1.1229e-05
1.11774e-05
1.11586e-05
1.06772e-05
1.10459e-05
1.10442e-05
1.10545e-05
1.10657e-05
1.10947e-05
1.11208e-05
1.11359e-05
1.11535e-05
1.95147e-06
1.30135e-05
4.70264e-06
1.13612e-05
1.14397e-05
1.1492e-05
1.14457e-05
1.14114e-05
1.15381e-05
1.15101e-05
1.15423e-05
1.13437e-05
1.13387e-05
1.12893e-05
1.12999e-05
1.13112e-05
1.15822e-05
1.16061e-05
1.12859e-05
1.12594e-05
1.12451e-05
1.12664e-05
1.11919e-05
1.12091e-05
1.12283e-05
1.1245e-05
1.11752e-05
1.06362e-05
1.10379e-05
1.10795e-05
1.10614e-05
1.1083e-05
1.11134e-05
1.11236e-05
1.11562e-05
1.11703e-05
8.86369e-06
1.21552e-05
3.1411e-07
1.13931e-05
1.14882e-05
1.152e-05
1.14457e-05
1.14881e-05
1.14181e-05
1.15757e-05
1.15551e-05
1.1594e-05
1.13554e-05
1.13497e-05
1.13065e-05
1.13332e-05
1.1665e-05
1.13064e-05
1.12757e-05
1.12649e-05
1.12729e-05
1.12086e-05
1.12252e-05
1.12441e-05
1.12557e-05
1.11913e-05
1.09915e-05
1.10236e-05
1.105e-05
1.10831e-05
1.104e-05
1.10826e-05
1.10951e-05
1.11303e-05
1.11486e-05
1.11689e-05
1.11704e-05
1.11904e-05
9.47283e-06
1.02632e-05
1.30008e-05
8.17919e-06
1.12451e-05
1.1157e-05
1.14146e-05
1.15212e-05
1.15595e-05
1.1489e-05
1.15278e-05
1.14618e-05
1.16315e-05
1.16504e-05
1.13952e-05
1.13835e-05
1.1327e-05
1.13445e-05
1.17005e-05
1.17015e-05
1.12986e-05
1.13302e-05
1.12685e-05
1.12936e-05
1.12092e-05
1.1225e-05
1.12421e-05
1.12613e-05
1.12644e-05
1.073e-05
1.10327e-05
1.10635e-05
1.10639e-05
1.10237e-05
1.11036e-05
1.11214e-05
1.11515e-05
1.1135e-05
1.11672e-05
1.11891e-05
1.11906e-05
1.12091e-05
1.06085e-05
1.21667e-05
9.22699e-06
1.11848e-05
1.12311e-05
1.11539e-05
9.98457e-06
1.31015e-05
1.14531e-05
1.15738e-05
1.16146e-05
1.15295e-05
1.1493e-05
1.15731e-05
1.16644e-05
1.1677e-05
1.17026e-05
1.14078e-05
1.13985e-05
1.13371e-05
1.13771e-05
1.17772e-05
1.13082e-05
1.13548e-05
1.12871e-05
1.13104e-05
1.12291e-05
1.12391e-05
1.12595e-05
1.12829e-05
1.12841e-05
1.09463e-05
1.10226e-05
1.10555e-05
1.10929e-05
1.10511e-05
1.10123e-05
1.11293e-05
1.11333e-05
1.11688e-05
1.11626e-05
1.11882e-05
1.1208e-05
1.12085e-05
1.12293e-05
7.68067e-06
1.29261e-05
8.34888e-06
1.07239e-05
1.099e-05
1.11539e-05
1.12383e-05
1.11407e-05
9.89454e-06
1.12083e-05
1.14867e-05
1.16195e-05
1.16731e-05
1.15792e-05
1.15392e-05
1.16114e-05
1.17445e-05
1.17427e-05
1.17773e-05
1.14521e-05
1.14324e-05
1.13788e-05
1.13974e-05
1.17989e-05
1.18178e-05
1.13389e-05
1.13857e-05
1.13722e-05
1.13061e-05
1.13371e-05
1.1244e-05
1.12572e-05
1.12801e-05
1.13023e-05
1.12992e-05
1.10397e-05
1.10733e-05
1.11145e-05
1.10425e-05
1.10061e-05
1.11528e-05
1.11612e-05
1.11772e-05
1.11878e-05
1.11732e-05
1.12084e-05
1.12288e-05
1.12284e-05
1.12504e-05
8.8788e-06
1.23699e-05
9.34925e-06
1.09042e-05
1.11831e-05
1.11397e-05
1.11969e-05
1.11717e-05
1.11554e-05
1.12004e-05
1.00023e-05
1.31042e-05
1.14867e-05
1.15341e-05
1.16715e-05
1.17319e-05
1.16195e-05
1.15812e-05
1.15471e-05
1.16717e-05
1.17952e-05
1.17859e-05
1.14597e-05
1.14597e-05
1.14423e-05
1.18767e-05
1.1852e-05
1.18621e-05
1.13651e-05
1.14209e-05
1.14135e-05
1.133e-05
1.13645e-05
1.12634e-05
1.12757e-05
1.13031e-05
1.13322e-05
1.13241e-05
1.10231e-05
1.10662e-05
1.10785e-05
1.11041e-05
1.11505e-05
1.10476e-05
1.10039e-05
1.11661e-05
1.11748e-05
1.12007e-05
1.12105e-05
1.11998e-05
1.12311e-05
1.12509e-05
1.12496e-05
1.12764e-05
1.93662e-05
1.16039e-05
1.07194e-05
8.87329e-06
1.10112e-05
1.09544e-05
1.11281e-05
1.11469e-05
1.11996e-05
1.11884e-05
1.11572e-05
1.12119e-05
9.915e-06
1.10111e-05
1.15398e-05
1.157e-05
1.17283e-05
1.16921e-05
1.17848e-05
1.16722e-05
1.16374e-05
1.1595e-05
1.17044e-05
1.18682e-05
1.18597e-05
1.15037e-05
1.15002e-05
1.14623e-05
1.18827e-05
1.19138e-05
1.14017e-05
1.14528e-05
1.14498e-05
1.13591e-05
1.13966e-05
1.12837e-05
1.12961e-05
1.13313e-05
1.13494e-05
1.13422e-05
1.10438e-05
1.10934e-05
1.111e-05
1.11248e-05
1.11771e-05
1.10052e-05
1.09823e-05
1.12107e-05
1.11998e-05
1.12168e-05
1.12314e-05
1.12191e-05
1.12536e-05
1.12744e-05
1.12726e-05
1.1298e-05
1.17629e-05
1.29227e-05
1.09639e-05
9.28665e-06
1.1018e-05
1.10784e-05
1.11265e-05
1.11413e-05
1.11429e-05
1.1176e-05
1.11921e-05
1.11792e-05
1.12119e-05
9.59985e-06
1.30946e-05
1.15401e-05
1.15785e-05
1.16044e-05
1.17775e-05
1.17526e-05
1.18421e-05
1.16952e-05
1.16336e-05
1.16895e-05
1.17575e-05
1.19231e-05
1.18897e-05
1.1888e-05
1.15367e-05
1.15169e-05
1.19719e-05
1.19528e-05
1.19712e-05
1.14443e-05
1.14917e-05
1.14925e-05
1.13885e-05
1.14349e-05
1.13188e-05
1.13247e-05
1.13603e-05
1.138e-05
1.13845e-05
1.10378e-05
1.10863e-05
1.11203e-05
1.11604e-05
1.12122e-05
1.0992e-05
1.10057e-05
1.12297e-05
1.12278e-05
1.12528e-05
1.12644e-05
1.1259e-05
1.12894e-05
1.13103e-05
1.12965e-05
1.13376e-05
9.62287e-06
1.18116e-05
1.07104e-05
8.79919e-06
1.10035e-05
1.02744e-05
1.11129e-05
1.1158e-05
1.11323e-05
1.12124e-05
1.12046e-05
1.11843e-05
1.12243e-05
1.12158e-05
1.15149e-05
1.15769e-05
1.16223e-05
1.1638e-05
1.18337e-05
1.1786e-05
1.18595e-05
1.17605e-05
1.16652e-05
1.17494e-05
1.17887e-05
1.19805e-05
1.19602e-05
1.19442e-05
1.15448e-05
1.15781e-05
1.1528e-05
1.2006e-05
1.20048e-05
1.14781e-05
1.15358e-05
1.14265e-05
1.14741e-05
1.13561e-05
1.13585e-05
1.13902e-05
1.1406e-05
1.14104e-05
1.10739e-05
1.1123e-05
1.11562e-05
1.1191e-05
1.12496e-05
1.099e-05
1.10026e-05
1.12743e-05
1.12969e-05
1.12805e-05
1.12782e-05
1.12994e-05
1.12862e-05
1.13205e-05
1.13437e-05
1.13364e-05
1.13604e-05
1.13589e-05
1.19135e-05
1.29013e-05
1.08899e-05
9.16624e-06
1.09944e-05
1.01554e-05
1.11342e-05
1.11797e-05
1.11574e-05
1.11231e-05
1.11189e-05
1.08235e-05
1.11938e-05
1.12046e-05
1.11989e-05
1.1238e-05
1.12168e-05
1.31261e-05
9.69599e-06
1.16272e-05
1.16476e-05
1.16584e-05
1.1881e-05
1.18578e-05
1.19331e-05
1.17924e-05
1.17199e-05
1.17568e-05
1.18507e-05
1.19919e-05
1.20143e-05
1.1976e-05
1.19662e-05
1.15922e-05
1.16223e-05
1.15729e-05
1.20181e-05
1.20213e-05
1.15249e-05
1.15425e-05
1.1578e-05
1.14597e-05
1.15168e-05
1.14004e-05
1.14001e-05
1.14286e-05
1.14479e-05
1.14558e-05
1.10752e-05
1.11178e-05
1.11772e-05
1.11974e-05
1.12463e-05
1.12811e-05
1.13049e-05
1.0978e-05
1.10365e-05
1.13217e-05
1.13325e-05
1.13338e-05
1.13276e-05
1.13579e-05
1.13497e-05
1.13654e-05
1.13814e-05
1.1396e-05
1.14083e-05
9.69049e-06
1.17172e-05
1.054e-05
1.09794e-05
8.46857e-06
1.09912e-05
1.09771e-05
1.11307e-05
1.11863e-05
1.11708e-05
1.11101e-05
1.11247e-05
1.07864e-05
1.11994e-05
1.1209e-05
1.12003e-05
1.12385e-05
1.1228e-05
1.16569e-05
8.99147e-06
1.16557e-05
1.17186e-05
1.17189e-05
1.19344e-05
1.18847e-05
1.1852e-05
1.17503e-05
1.18156e-05
1.18852e-05
1.20063e-05
1.20149e-05
1.20043e-05
1.20045e-05
1.16068e-05
1.16305e-05
1.20187e-05
1.19868e-05
1.15524e-05
1.15962e-05
1.16198e-05
1.15071e-05
1.15256e-05
1.15551e-05
1.14467e-05
1.14379e-05
1.14645e-05
1.14801e-05
1.11442e-05
1.11777e-05
1.12446e-05
1.12943e-05
1.13264e-05
1.13528e-05
1.13716e-05
1.09969e-05
1.10528e-05
1.13292e-05
1.13705e-05
1.13983e-05
1.13726e-05
1.13557e-05
1.13658e-05
1.13933e-05
1.13991e-05
1.1425e-05
1.14325e-05
1.14471e-05
1.15703e-05
1.28632e-05
1.07612e-05
1.09594e-05
9.10097e-06
1.09735e-05
1.09637e-05
1.11492e-05
1.11839e-05
1.11962e-05
1.11731e-05
1.11158e-05
1.10982e-05
1.11433e-05
1.09968e-05
9.45385e-06
1.11823e-05
1.11398e-05
1.12127e-05
1.12064e-05
1.12671e-05
1.12523e-05
1.12342e-05
1.30359e-05
1.17199e-05
1.17517e-05
1.1749e-05
1.19744e-05
1.19476e-05
1.18888e-05
1.17972e-05
1.1873e-05
1.19405e-05
1.2005e-05
1.20051e-05
1.19925e-05
1.20075e-05
1.20027e-05
1.16589e-05
1.16772e-05
1.19533e-05
1.19418e-05
1.1593e-05
1.16303e-05
1.1674e-05
1.15354e-05
1.15764e-05
1.15904e-05
1.14997e-05
1.14821e-05
1.15131e-05
1.15227e-05
1.11574e-05
1.11146e-05
1.1234e-05
1.13238e-05
1.13445e-05
1.14376e-05
1.14467e-05
1.14326e-05
1.09889e-05
1.10355e-05
1.14192e-05
1.14437e-05
1.14449e-05
1.1436e-05
1.14065e-05
1.14241e-05
1.1447e-05
1.14547e-05
1.14766e-05
1.14872e-05
1.14927e-05
1.01206e-05
1.16685e-05
1.05478e-05
1.09787e-05
8.79896e-06
1.09669e-05
1.09763e-05
1.11684e-05
1.11904e-05
1.12024e-05
1.1185e-05
1.11292e-05
1.10924e-05
1.11553e-05
1.10524e-05
8.95302e-06
1.11988e-05
1.11171e-05
1.12274e-05
1.12169e-05
1.1265e-05
1.12478e-05
1.16239e-05
1.17424e-05
1.18043e-05
1.18122e-05
1.19793e-05
1.20097e-05
1.19603e-05
1.19553e-05
1.18378e-05
1.19156e-05
1.19658e-05
1.19389e-05
1.19598e-05
1.19123e-05
1.19694e-05
1.19854e-05
1.1694e-05
1.16901e-05
1.1728e-05
1.18687e-05
1.17802e-05
1.16188e-05
1.16863e-05
1.17169e-05
1.15728e-05
1.16043e-05
1.15448e-05
1.15102e-05
1.15223e-05
1.15553e-05
1.15549e-05
1.10535e-05
1.12944e-05
1.13399e-05
1.1414e-05
1.14783e-05
1.15316e-05
1.155e-05
1.15293e-05
1.09585e-05
1.10707e-05
1.1464e-05
1.15059e-05
1.15654e-05
1.14588e-05
1.15023e-05
1.14856e-05
1.14765e-05
1.14859e-05
1.15284e-05
1.15336e-05
1.15051e-05
1.15415e-05
1.13861e-05
1.28028e-05
1.07605e-05
1.09639e-05
8.56239e-06
1.09588e-05
1.09616e-05
1.11746e-05
1.11988e-05
1.12134e-05
1.11889e-05
1.11282e-05
1.11514e-05
1.11144e-05
1.10843e-05
1.11713e-05
1.03539e-05
1.11683e-05
9.29883e-06
1.11351e-05
1.12298e-05
1.12802e-05
1.12582e-05
1.2964e-05
1.18082e-05
1.18459e-05
1.18337e-05
1.19885e-05
1.19765e-05
1.19846e-05
1.19707e-05
1.18998e-05
1.19649e-05
1.1988e-05
1.19291e-05
1.18519e-05
1.1838e-05
1.18007e-05
1.18886e-05
1.17453e-05
1.17559e-05
1.17667e-05
1.15593e-05
1.16989e-05
1.17079e-05
1.16348e-05
1.16717e-05
1.1706e-05
1.17705e-05
1.16109e-05
1.16575e-05
1.15991e-05
1.15708e-05
1.15791e-05
1.15939e-05
1.16012e-05
1.19818e-05
1.1581e-05
1.11965e-05
1.13834e-05
1.15787e-05
1.16045e-05
1.16376e-05
1.16687e-05
1.1602e-05
1.09331e-05
1.10343e-05
1.15537e-05
1.15873e-05
1.16176e-05
1.15315e-05
1.15975e-05
1.15496e-05
1.15084e-05
1.15538e-05
1.1556e-05
1.15891e-05
1.15782e-05
1.15658e-05
1.15878e-05
9.83651e-06
1.16738e-05
1.07612e-05
1.0976e-05
8.20873e-06
1.00633e-05
1.09701e-05
1.09546e-05
1.1184e-05
1.1208e-05
1.12247e-05
1.12012e-05
1.11462e-05
1.11582e-05
1.11198e-05
1.10864e-05
1.11775e-05
1.01277e-05
1.11947e-05
8.76061e-06
1.11036e-05
1.12417e-05
1.13048e-05
1.12755e-05
1.1299e-05
1.12563e-05
1.22331e-05
1.18054e-05
1.18463e-05
1.19005e-05
1.18946e-05
1.19917e-05
1.1983e-05
1.19157e-05
1.19817e-05
1.1933e-05
1.19773e-05
1.19861e-05
1.17925e-05
1.16338e-05
1.16363e-05
1.16024e-05
1.17466e-05
1.17767e-05
1.1789e-05
1.13206e-05
1.13876e-05
1.13977e-05
1.16944e-05
1.17701e-05
1.18113e-05
1.16649e-05
1.16836e-05
1.16523e-05
1.16131e-05
1.16103e-05
1.16389e-05
1.16434e-05
1.42331e-05
1.16081e-05
1.17011e-05
1.19442e-05
1.22707e-05
1.19559e-05
1.16764e-05
1.15487e-05
1.16732e-05
1.16611e-05
1.09437e-05
1.15783e-05
1.16239e-05
1.16735e-05
1.17816e-05
1.16087e-05
1.16782e-05
1.16279e-05
1.15894e-05
1.16019e-05
1.16178e-05
1.16539e-05
1.16397e-05
1.15988e-05
1.16444e-05
1.17006e-05
1.27185e-05
1.09189e-05
1.09819e-05
7.57066e-06
1.00079e-05
1.09222e-05
1.0935e-05
1.11925e-05
1.12098e-05
1.12222e-05
1.12426e-05
1.12029e-05
1.11582e-05
1.11453e-05
1.11718e-05
1.11353e-05
1.11092e-05
1.10729e-05
1.1178e-05
1.11889e-05
1.05787e-05
1.11439e-05
1.10928e-05
9.22816e-06
1.1094e-05
1.12485e-05
1.12931e-05
1.13202e-05
1.1272e-05
1.18248e-05
1.18486e-05
1.19023e-05
1.19369e-05
1.19327e-05
1.19585e-05
1.19233e-05
1.18301e-05
1.19679e-05
1.19755e-05
1.19759e-05
1.19802e-05
1.19663e-05
1.16341e-05
1.17006e-05
1.14475e-05
1.14522e-05
1.13603e-05
1.15968e-05
1.18336e-05
1.18423e-05
1.12584e-05
1.12732e-05
1.17498e-05
1.17862e-05
1.18142e-05
1.18637e-05
1.17066e-05
1.17458e-05
1.17102e-05
1.16783e-05
1.16621e-05
1.16876e-05
1.16961e-05
1.08652e-05
1.16749e-05
1.19733e-05
1.16386e-05
1.16665e-05
1.17809e-05
1.17498e-05
1.22722e-05
1.2185e-05
1.11567e-05
1.17336e-05
1.16699e-05
1.07948e-05
1.13912e-05
1.13963e-05
1.17258e-05
1.17638e-05
1.17961e-05
1.17012e-05
1.17673e-05
1.16454e-05
1.17106e-05
1.16858e-05
1.16829e-05
1.17337e-05
1.16811e-05
1.16502e-05
1.1683e-05
9.4599e-06
1.22768e-05
1.08826e-05
1.09541e-05
9.05747e-06
1.0448e-05
1.09397e-05
1.12262e-05
1.12344e-05
1.12546e-05
1.12196e-05
1.11672e-05
1.1154e-05
1.11749e-05
1.11385e-05
1.11155e-05
1.10879e-05
1.11889e-05
1.11969e-05
1.02211e-05
1.1146e-05
1.11749e-05
8.48002e-06
1.10753e-05
1.12659e-05
1.13551e-05
1.12887e-05
1.13155e-05
1.13484e-05
1.30862e-05
9.74049e-06
1.18988e-05
1.19431e-05
1.19654e-05
1.1962e-05
1.19187e-05
1.18497e-05
1.16423e-05
1.19163e-05
1.1944e-05
1.19778e-05
1.19418e-05
1.19174e-05
1.14473e-05
1.14885e-05
1.12864e-05
1.12759e-05
1.12989e-05
1.15609e-05
1.14039e-05
1.18627e-05
1.18705e-05
1.15453e-05
1.12195e-05
1.11389e-05
1.17729e-05
1.1839e-05
1.18679e-05
1.19014e-05
1.17587e-05
1.17725e-05
1.17508e-05
1.1714e-05
1.1705e-05
1.17067e-05
1.17353e-05
1.1745e-05
2.41889e-06
6.18333e-07
9.83045e-06
9.00786e-06
1.05768e-05
8.43751e-06
7.65439e-06
1.50592e-05
1.55115e-05
1.19468e-05
1.22393e-05
1.14665e-05
1.09771e-05
1.14071e-05
1.16055e-05
1.07742e-05
1.18289e-05
1.19621e-05
1.17744e-05
1.18247e-05
1.17399e-05
1.17782e-05
1.17502e-05
1.17094e-05
1.17538e-05
1.17904e-05
1.17465e-05
1.17407e-05
9.06083e-06
1.10731e-05
1.09966e-05
1.09404e-05
8.95497e-06
1.04313e-05
1.09139e-05
1.12325e-05
1.12376e-05
1.12507e-05
1.12729e-05
1.12234e-05
1.11712e-05
1.1148e-05
1.11654e-05
1.11821e-05
1.11319e-05
1.11127e-05
1.10776e-05
1.1191e-05
1.12131e-05
1.06695e-05
1.11169e-05
1.10532e-05
7.00794e-06
1.10668e-05
1.12795e-05
1.13878e-05
1.13107e-05
1.13375e-05
1.13737e-05
1.30631e-05
7.80102e-06
1.19261e-05
1.19662e-05
1.19715e-05
1.19816e-05
1.17932e-05
1.17173e-05
1.15911e-05
1.18657e-05
1.18941e-05
1.1882e-05
1.19672e-05
1.1942e-05
1.18128e-05
1.12699e-05
1.13835e-05
1.12224e-05
1.12376e-05
1.12746e-05
1.13374e-05
1.12667e-05
1.19081e-05
1.19217e-05
1.13213e-05
1.14123e-05
1.18228e-05
1.18512e-05
1.18753e-05
1.19078e-05
1.19352e-05
1.18003e-05
1.18312e-05
1.1802e-05
1.17689e-05
1.17608e-05
1.17661e-05
1.17764e-05
1.17842e-05
1.17975e-05
1.63965e-05
2.53053e-06
5.73797e-06
1.15198e-05
1.03911e-05
3.74052e-06
9.08727e-06
8.98344e-06
1.25199e-05
1.47624e-05
1.43446e-05
1.21918e-05
1.1593e-05
1.08787e-05
1.13885e-05
1.08388e-05
9.701e-06
1.18446e-05
1.17942e-05
1.18569e-05
1.18638e-05
1.17699e-05
1.18506e-05
1.1822e-05
1.17982e-05
1.18152e-05
1.18519e-05
1.17777e-05
1.17742e-05
8.12429e-07
1.2881e-05
3.0313e-06
1.09649e-05
1.07852e-05
1.09194e-05
9.97099e-06
1.09102e-05
1.12504e-05
1.12533e-05
1.12625e-05
1.12886e-05
1.12409e-05
1.11843e-05
1.1153e-05
1.11729e-05
1.11906e-05
1.11365e-05
1.11257e-05
1.10952e-05
1.12067e-05
1.12205e-05
9.58958e-06
1.10645e-05
1.10977e-05
1.1183e-05
1.10729e-05
1.13031e-05
1.14603e-05
1.14136e-05
1.13348e-05
1.13666e-05
1.14052e-05
1.24445e-05
7.75466e-06
1.19289e-05
1.19634e-05
1.19665e-05
1.19731e-05
1.19646e-05
1.19655e-05
1.16781e-05
1.17469e-05
1.14241e-05
1.17229e-05
1.17689e-05
1.17892e-05
1.19506e-05
1.18644e-05
1.12763e-05
1.12415e-05
1.14818e-05
1.12922e-05
1.14208e-05
1.12996e-05
1.12024e-05
1.19329e-05
1.20767e-05
1.28274e-05
1.19826e-05
1.18492e-05
1.18986e-05
1.19119e-05
1.19417e-05
1.1955e-05
1.18423e-05
1.18077e-05
1.18452e-05
1.18258e-05
1.18202e-05
1.18229e-05
1.18419e-05
1.18468e-05
2.32408e-05
1.28806e-05
2.37595e-05
1.40388e-05
2.92672e-05
1.04486e-05
1.25956e-05
1.72273e-05
7.41502e-06
2.08158e-06
1.50602e-05
1.26317e-05
1.29878e-05
1.11735e-05
1.10431e-05
1.10959e-05
1.1408e-05
9.69389e-06
8.51929e-06
1.17973e-05
1.14352e-05
1.18512e-05
1.18516e-05
1.18092e-05
1.18592e-05
1.18398e-05
1.18759e-05
1.18653e-05
1.1878e-05
1.18746e-05
1.1847e-05
1.18334e-05
7.75307e-06
1.1703e-05
1.06822e-05
1.09593e-05
1.08417e-05
1.0904e-05
9.88267e-06
1.09027e-05
1.12615e-05
1.12612e-05
1.128e-05
1.13103e-05
1.12566e-05
1.12465e-05
1.11932e-05
1.11661e-05
1.1146e-05
1.1186e-05
1.12049e-05
1.11262e-05
1.11203e-05
1.10863e-05
1.12188e-05
1.12387e-05
9.73945e-06
1.10529e-05
1.1054e-05
1.11407e-05
1.07596e-05
1.10638e-05
1.13191e-05
1.15034e-05
1.14475e-05
1.13579e-05
1.13941e-05
1.14396e-05
1.18449e-05
5.98976e-06
1.19585e-05
1.19711e-05
1.19538e-05
1.1943e-05
1.19051e-05
1.14851e-05
1.15258e-05
1.13708e-05
1.16008e-05
1.16638e-05
1.17031e-05
1.16333e-05
1.19026e-05
1.17684e-05
1.14895e-05
1.12346e-05
1.20252e-05
1.20278e-05
1.17522e-05
1.20195e-05
1.1245e-05
1.12554e-05
1.19605e-05
1.38263e-05
1.29139e-05
1.18936e-05
1.19219e-05
1.19439e-05
1.19602e-05
1.19613e-05
1.1877e-05
1.18608e-05
1.18899e-05
1.18547e-05
1.18649e-05
1.18779e-05
1.18835e-05
1.18866e-05
3.32606e-05
2.76767e-05
2.97917e-05
2.68849e-05
3.0111e-05
3.4288e-05
2.9718e-05
2.30044e-05
2.28494e-05
1.33496e-05
3.43419e-06
4.50555e-06
1.20865e-05
1.93965e-07
1.27508e-05
1.09464e-05
1.04841e-05
1.13705e-05
7.27089e-06
1.34515e-05
1.16104e-05
1.15206e-05
1.18068e-05
1.18198e-05
1.17352e-05
1.18691e-05
1.18821e-05
1.1891e-05
1.18819e-05
1.19119e-05
1.19093e-05
1.18636e-05
1.03395e-05
1.1938e-05
1.28469e-05
1.04544e-05
1.09242e-05
1.0922e-05
1.04423e-05
1.08906e-05
1.12811e-05
1.12847e-05
1.12938e-05
1.13337e-05
1.12715e-05
1.12628e-05
1.12112e-05
1.11701e-05
1.11499e-05
1.12005e-05
1.1219e-05
1.1141e-05
1.11279e-05
1.10987e-05
1.12356e-05
1.1247e-05
1.10473e-05
1.11089e-05
1.08957e-05
1.10709e-05
1.13539e-05
1.15142e-05
1.1482e-05
1.1389e-05
1.13684e-05
1.14315e-05
1.14792e-05
1.29724e-05
9.46829e-06
9.42673e-06
1.1965e-05
1.19419e-05
1.19319e-05
1.19015e-05
1.18304e-05
1.14124e-05
1.14921e-05
1.12636e-05
1.14407e-05
1.14734e-05
1.14716e-05
1.18138e-05
1.16373e-05
1.18658e-05
1.15488e-05
1.13697e-05
1.33801e-05
1.36699e-05
1.22613e-05
1.28087e-05
1.13118e-05
1.15047e-05
1.19587e-05
1.35025e-05
1.36519e-05
1.40747e-05
1.19106e-05
1.19449e-05
1.19509e-05
1.19545e-05
1.19309e-05
1.19093e-05
1.18945e-05
1.19102e-05
1.19026e-05
1.19079e-05
1.19092e-05
1.19299e-05
1.19207e-05
3.64285e-05
3.53668e-05
3.104e-05
3.41152e-05
3.46656e-05
3.74112e-05
3.53718e-05
3.25844e-05
1.72518e-05
6.13186e-06
5.0899e-06
9.46348e-06
3.99484e-06
1.38623e-05
1.11548e-05
8.13115e-06
1.10395e-05
1.14332e-05
1.3008e-05
2.94039e-05
1.15984e-05
1.34954e-05
1.17375e-05
1.17564e-05
1.14636e-05
1.18097e-05
1.189e-05
1.18826e-05
1.18384e-05
1.19082e-05
1.18941e-05
1.18623e-05
1.19077e-05
1.24398e-05
1.15141e-05
1.03902e-05
1.09357e-05
1.08987e-05
1.04382e-05
1.08887e-05
1.12956e-05
1.13009e-05
1.13188e-05
1.13608e-05
1.13355e-05
1.12916e-05
1.12753e-05
1.12207e-05
1.12229e-05
1.11864e-05
1.11634e-05
1.11505e-05
1.12202e-05
1.11986e-05
1.12362e-05
1.114e-05
1.11292e-05
1.11201e-05
1.1089e-05
1.12646e-05
1.1061e-05
1.10438e-05
1.11123e-05
1.10772e-05
1.15829e-05
1.15543e-05
1.14119e-05
1.13994e-05
1.14561e-05
1.15103e-05
1.2321e-05
8.01232e-06
9.41387e-06
1.1933e-05
1.18686e-05
1.18547e-05
1.18024e-05
1.17049e-05
1.12611e-05
1.13309e-05
1.1246e-05
1.13824e-05
1.13122e-05
1.13932e-05
1.14627e-05
1.16679e-05
1.30531e-05
1.25175e-05
1.40996e-05
1.43377e-05
1.42319e-05
1.39154e-05
1.44951e-05
1.15724e-05
1.16984e-05
1.24726e-05
1.19438e-05
1.05098e-05
1.18701e-05
1.40549e-05
1.19428e-05
1.19484e-05
1.19432e-05
1.19249e-05
1.19184e-05
1.18892e-05
1.19348e-05
1.19229e-05
1.19181e-05
1.19114e-05
1.19197e-05
1.1937e-05
1.19301e-05
1.19314e-05
1.19387e-05
3.40813e-05
3.65535e-05
3.24299e-05
3.46349e-05
3.48756e-05
3.39904e-05
3.61413e-05
3.71747e-05
3.33267e-05
3.66359e-05
1.81007e-05
3.1481e-05
1.12293e-05
4.15037e-06
1.01595e-05
1.75343e-05
1.11288e-05
6.25214e-06
1.05336e-05
1.14298e-05
2.80886e-05
3.11838e-05
1.24127e-05
1.42607e-05
1.14712e-05
1.15472e-05
1.15234e-05
1.17257e-05
1.18557e-05
1.18119e-05
1.17461e-05
1.17814e-05
1.18876e-05
1.1843e-05
1.17694e-05
1.06368e-05
1.25521e-05
1.28705e-05
1.03284e-05
1.07119e-05
1.0952e-05
1.09061e-05
1.08653e-05
1.09909e-05
1.13264e-05
1.13279e-05
1.13373e-05
1.13931e-05
1.13659e-05
1.13122e-05
1.13019e-05
1.12397e-05
1.12392e-05
1.1185e-05
1.11732e-05
1.11648e-05
1.12398e-05
1.12171e-05
1.12541e-05
1.11513e-05
1.1144e-05
1.11293e-05
1.10994e-05
1.12774e-05
1.10742e-05
1.10367e-05
1.10883e-05
1.11649e-05
1.16338e-05
1.15799e-05
1.1442e-05
1.14163e-05
1.14978e-05
1.15579e-05
1.15195e-05
1.1894e-05
7.27976e-06
1.0609e-05
1.18748e-05
1.18213e-05
1.17843e-05
1.17039e-05
1.15597e-05
1.12595e-05
1.12236e-05
1.1356e-05
1.12702e-05
1.12596e-05
1.12677e-05
1.13518e-05
1.15397e-05
1.33266e-05
1.43115e-05
1.29479e-05
1.55197e-05
1.46707e-05
1.46254e-05
1.50262e-05
1.23133e-05
1.15552e-05
1.27699e-05
1.29132e-05
1.1883e-05
9.4327e-06
1.24526e-05
1.1949e-05
1.19456e-05
1.19452e-05
1.19246e-05
1.18427e-05
1.18496e-05
1.18066e-05
1.19108e-05
1.18743e-05
1.19085e-05
1.19207e-05
1.19098e-05
1.19144e-05
1.19405e-05
1.19354e-05
3.17158e-05
3.21073e-05
3.504e-05
3.42184e-05
3.04023e-05
2.78416e-05
3.4357e-05
3.54223e-05
3.77158e-05
3.94079e-05
2.69807e-05
3.55913e-05
1.59475e-05
8.04633e-06
7.24969e-06
2.34311e-05
2.15893e-05
1.1565e-05
4.46821e-06
2.60282e-05
1.17742e-05
3.14254e-05
3.32724e-05
1.26591e-05
1.2551e-05
1.15594e-05
1.1554e-05
1.19474e-05
1.14972e-05
1.16874e-05
1.15379e-05
1.1603e-05
1.18579e-05
1.18016e-05
1.1728e-05
1.16354e-05
1.05377e-05
1.17008e-05
1.13009e-05
1.04449e-05
1.06747e-05
1.09517e-05
1.08626e-05
1.08651e-05
1.09178e-05
1.13401e-05
1.13498e-05
1.13624e-05
1.14183e-05
1.13928e-05
1.13426e-05
1.13132e-05
1.12547e-05
1.12582e-05
1.11973e-05
1.11735e-05
1.12601e-05
1.12371e-05
1.12153e-05
1.12739e-05
1.11552e-05
1.11681e-05
1.11502e-05
1.11435e-05
1.11217e-05
1.1096e-05
1.13027e-05
1.10749e-05
1.10225e-05
1.10596e-05
1.1147e-05
1.1034e-05
1.16871e-05
1.16551e-05
1.14667e-05
1.1454e-05
1.15229e-05
1.159e-05
1.15623e-05
1.29721e-05
9.50726e-06
5.12796e-06
1.05878e-05
1.17842e-05
1.16802e-05
1.16659e-05
1.15484e-05
1.14491e-05
1.1311e-05
1.13525e-05
1.12641e-05
1.12703e-05
1.12646e-05
1.12359e-05
1.13742e-05
1.44166e-05
1.45302e-05
1.43328e-05
1.34574e-05
1.32615e-05
1.23717e-05
1.0633e-05
1.30574e-05
1.22163e-05
1.29573e-05
1.4216e-05
1.18012e-05
4.575e-06
6.85024e-06
1.19297e-05
1.19123e-05
1.1911e-05
1.18513e-05
1.17868e-05
1.17518e-05
1.16921e-05
1.18833e-05
1.18113e-05
1.18674e-05
1.18691e-05
1.18632e-05
1.18492e-05
1.18805e-05
1.18976e-05
1.19236e-05
2.43866e-05
2.47948e-05
3.3257e-05
3.10537e-05
2.94754e-05
2.60564e-05
2.0776e-05
2.71993e-05
3.28221e-05
3.78675e-05
3.25941e-05
2.82689e-05
4.18786e-05
2.04583e-05
7.92695e-06
3.26463e-07
3.56962e-05
3.4786e-05
1.15338e-05
9.69946e-06
3.17456e-05
2.44364e-05
1.0882e-05
3.38311e-05
3.3593e-05
1.11634e-05
1.28987e-05
1.21075e-05
1.18862e-05
1.22296e-05
1.14648e-05
1.15468e-05
1.15093e-05
1.17623e-05
1.16604e-05
1.15533e-05
1.14537e-05
1.03771e-05
1.34621e-05
1.27998e-05
1.09789e-05
1.03766e-05
1.0793e-05
1.09469e-05
1.0876e-05
1.08357e-05
1.12158e-05
1.13748e-05
1.1377e-05
1.1384e-05
1.14519e-05
1.14209e-05
1.13617e-05
1.13437e-05
1.12773e-05
1.12794e-05
1.12036e-05
1.11945e-05
1.12879e-05
1.12576e-05
1.12313e-05
1.12961e-05
1.11744e-05
1.11836e-05
1.11703e-05
1.11612e-05
1.11275e-05
1.11112e-05
1.13218e-05
1.10992e-05
1.10437e-05
1.10648e-05
1.11278e-05
1.10092e-05
1.17467e-05
1.16977e-05
1.16751e-05
1.15066e-05
1.14758e-05
1.15689e-05
1.1643e-05
1.1593e-05
1.23677e-05
9.21681e-06
8.40942e-06
1.09562e-05
1.16684e-05
1.1607e-05
1.16296e-05
1.15475e-05
1.14328e-05
1.13159e-05
1.16272e-05
1.1656e-05
1.13428e-05
1.14636e-05
1.14121e-05
1.12593e-05
1.12971e-05
1.1308e-05
1.44022e-05
1.3484e-05
1.47462e-05
9.76642e-06
8.37852e-06
9.65011e-06
9.02812e-06
6.71745e-06
1.43732e-05
1.22007e-05
1.37234e-05
1.16735e-05
4.09928e-06
3.30109e-06
1.19027e-05
1.18887e-05
1.18576e-05
1.17687e-05
1.16748e-05
1.16371e-05
1.1597e-05
1.18155e-05
1.16414e-05
1.17401e-05
1.17885e-05
1.17674e-05
1.17601e-05
1.17641e-05
1.18351e-05
1.18489e-05
1.84599e-05
2.40755e-05
3.04818e-05
2.28836e-05
1.88786e-05
1.37922e-05
2.4939e-05
2.78219e-05
3.91364e-05
2.35267e-05
3.8332e-05
4.00843e-05
2.4093e-05
1.44226e-05
4.78475e-06
3.83049e-05
3.93831e-05
1.12878e-05
1.15637e-05
7.00087e-06
3.29322e-05
2.84303e-05
3.2583e-05
3.01114e-05
5.13352e-07
9.27034e-06
1.23435e-05
1.24721e-05
1.20223e-05
1.23309e-05
1.14762e-05
1.13779e-05
1.1414e-05
1.16238e-05
1.15244e-05
1.14406e-05
1.1415e-05
1.03377e-05
1.05527e-05
1.21875e-05
9.9587e-06
1.0526e-05
1.07531e-05
1.09378e-05
1.07907e-05
1.08933e-05
1.10387e-05
1.13913e-05
1.14032e-05
1.14159e-05
1.14688e-05
1.14553e-05
1.13616e-05
1.13981e-05
1.13458e-05
1.12979e-05
1.13095e-05
1.1223e-05
1.12062e-05
1.1314e-05
1.12964e-05
1.12504e-05
1.12843e-05
1.13202e-05
1.11819e-05
1.12011e-05
1.11789e-05
1.11629e-05
1.11453e-05
1.11158e-05
1.11039e-05
1.10459e-05
1.10851e-05
1.10353e-05
1.11448e-05
1.10248e-05
1.18058e-05
1.17824e-05
1.17439e-05
1.15342e-05
1.15135e-05
1.16042e-05
1.16814e-05
1.16578e-05
1.21693e-05
6.11791e-06
7.50901e-06
1.0943e-05
1.15476e-05
1.14985e-05
1.14628e-05
1.14533e-05
1.13145e-05
1.12643e-05
1.18905e-05
1.20929e-05
1.16589e-05
1.18548e-05
1.13386e-05
1.15941e-05
1.1493e-05
1.12553e-05
1.21512e-05
9.74975e-06
1.47827e-05
7.34748e-06
5.31991e-06
5.09587e-06
7.33394e-06
3.69998e-06
1.46033e-05
1.3037e-05
1.37854e-05
1.45578e-05
1.15447e-05
2.53891e-06
1.94872e-06
1.18281e-05
1.18191e-05
1.17811e-05
1.16787e-05
1.16126e-05
1.1503e-05
1.14509e-05
1.17051e-05
1.16286e-05
1.15551e-05
1.16691e-05
1.16583e-05
1.16548e-05
1.17028e-05
1.17378e-05
1.18014e-05
4.12964e-06
9.36779e-06
2.58548e-05
1.89474e-05
1.42668e-05
7.5214e-06