/*--------------------------------*- C++ -*----------------------------------*\
| =========                 |                                                 |
| \\      /  F ield         | OpenFOAM: The Open Source CFD Toolbox           |
|  \\    /   O peration     | Version:  v2012                                 |
|   \\  /    A nd           | Website:  www.openfoam.com                      |
|    \\/     M anipulation  |                                                 |
\*---------------------------------------------------------------------------*/
FoamFile
{
    version     2.0;
    format      ascii;
    class       volScalarField;
    location    "1";
    object      omega;
}
// * * * * * * * * * * * * * * * * * * * * * * * * * * * * * * * * * * * * * //

dimensions      [0 0 -1 0 0 0 0];


internalField   nonuniform List<scalar> 
13611
(
18.5767
15.5194
77.0443
17.7054
20.08
22.7677
14.1293
28.655
22.7479
20.8928
22.9619
15.5747
17.8867
81.8827
22.6337
21.1758
22.5588
22.4132
12.9075
17.7197
27.0267
22.7535
22.6538
22.4669
22.3606
22.3855
13.4797
19.9068
75.501
22.7978
22.5393
22.432
22.2276
22.2243
21.9698
13.7625
18.2336
29.9048
22.7394
22.5312
22.292
22.0744
22.066
21.996
12.4682
18.85
86.9336
13.0237
22.6338
22.8111
22.4105
22.285
21.9962
21.9202
21.8006
22.0046
15.477
20.6006
33.1063
11.7075
22.6342
22.7377
22.3718
22.1851
22.8886
21.8817
22.0793
21.8018
21.6439
21.7066
15.0139
20.7867
78.1604
11.1036
22.5598
22.7759
22.2791
22.4563
22.1847
21.9029
22.0011
21.6855
21.4547
21.5885
21.5971
18.0931
21.3199
39.3021
9.37304
22.6089
22.7669
22.2879
22.3802
22.1049
22.8661
21.83
22.0081
21.7159
21.365
21.4708
21.3337
17.5664
21.2482
22.936
10.1305
22.7095
22.5243
22.1978
22.4124
22.1103
22.8601
22.9417
21.8595
21.9525
21.6455
21.2816
21.4581
21.1709
21.1679
19.7983
20.9037
21.1181
82.9825
8.53491
8.26132
22.7502
22.5552
22.2174
22.3365
22.0096
22.94
21.7764
21.687
21.5441
21.3301
21.0106
20.9442
18.3121
20.8196
20.8945
31.3214
6.10066
11.6244
22.7516
22.4945
22.6729
22.178
22.3391
21.9525
22.8589
23.0237
21.7767
21.6167
21.5275
21.2873
21.066
20.838
20.9093
20.8863
20.7237
20.7195
20.7814
83.2372
10.4974
9.50968
22.4144
22.5421
22.6928
22.1058
22.2507
21.8608
22.0146
22.8636
23.0292
21.6877
21.6131
21.4752
21.1907
21.3799
21.0008
20.8979
15.3684
20.6665
20.4924
20.6379
20.5312
31.7624
6.40558
22.4105
22.629
22.4791
22.7906
22.1158
22.2559
21.8664
21.944
22.9522
23.1177
21.6992
21.5147
21.1637
21.3288
21.0502
20.8192
15.7737
20.4948
20.4108
20.3828
20.4903
20.7208
10.3995
83.897
11.6737
22.3459
22.6604
22.5236
22.8221
22.0598
22.1969
21.7888
21.9675
22.9934
23.1745
21.6242
21.5236
21.2294
21.3755
21.0297
20.7875
18.5362
20.4371
20.1687
20.2759
20.535
20.6622
6.97372
30.0076
13.2393
22.3034
22.6196
22.7566
22.4919
22.9248
22.0882
22.221
21.7812
21.9229
23.1056
21.6245
21.4656
21.2082
21.3567
20.9579
21.1226
20.8629
20.6792
17.1513
20.3806
20.0741
20.0442
20.151
20.3462
20.4677
8.38463
11.0855
77.4604
22.3466
22.6602
22.7464
22.5584
22.4344
22.9748
22.1728
22.0446
21.7053
21.8523
21.9721
23.1236
21.566
21.4959
21.278
21.4227
20.9716
21.1149
20.8385
20.6248
18.5017
19.9475
19.8457
19.8095
19.9418
20.1097
20.2983
20.5048
7.26289
12.0879
40.3725
22.2918
22.6371
22.8247
22.529
22.4567
22.9288
23.0796
22.2076
22.0838
21.6903
21.8593
21.9313
23.2356
23.3166
21.5971
21.2622
21.4148
20.902
21.0426
21.1861
20.7757
20.6819
16.0561
19.9824
19.6283
19.8124
19.9869
20.1876
20.3689
20.4692
10.1457
24.3148
22.3197
22.7182
22.8089
22.5922
22.4071
22.9931
23.1379
22.1617
22.0426
21.7469
21.822
21.9675
23.2316
23.4045
21.5945
21.3295
21.4817
20.897
21.0366
21.1784
20.7651
20.6426
16.9677
19.5188
19.4064
19.5721
19.7142
19.9158
20.187
20.2952
20.5502
4.34539
83.1227
7.09843
22.2758
22.6896
22.8815
22.5985
22.4462
23.1001
22.966
23.155
22.195
22.0772
21.7464
21.8596
21.9255
23.3039
23.3898
21.6829
21.5395
21.3095
21.4782
20.823
20.9652
21.1047
21.2414
20.6854
16.6627
19.3139
19.5699
19.4806
19.7708
19.9815
20.1119
20.3428
20.5258
10.1299
36.5139
3.30991
22.3133
22.748
22.8897
22.5413
22.6871
22.3998
23.0954
23.0241
23.2532
22.1568
22.0387
21.8059
21.959
23.4932
21.6698
21.5295
21.3762
21.4452
20.823
20.9644
21.1054
21.2578
20.6776
18.8638
19.1175
19.3197
19.5019
19.2046
19.5526
19.7019
19.9655
20.1425
20.3149
20.4581
20.5993
12.013
10.1589
89.414
7.75241
23.6696
23.1791
22.2937
22.8368
22.9743
22.5731
22.7184
22.4351
23.1784
23.3229
22.2149
22.0875
21.8375
21.9236
23.6166
23.5081
21.5952
21.7305
21.3374
21.484
20.7502
20.8953
21.0352
21.1761
21.2383
17.1391
19.0081
19.2625
19.2458
18.9634
19.5165
19.774
20.0614
19.8958
20.2385
20.3824
20.4606
20.6082
9.95498
35.7368
9.87158
22.808
23.4073
22.6203
14.9684
76.608
22.3607
22.8762
23.0293
22.6609
22.5151
22.8162
23.291
23.2153
23.4562
22.1745
22.0544
21.8077
21.9729
23.6458
21.5641
21.7498
21.351
21.4749
20.7684
20.8988
21.0384
21.1768
21.2892
18.5153
18.8457
19.1033
19.3776
19.0709
18.7847
19.6076
19.7181
20.0706
19.9284
20.2317
20.3836
20.5328
20.6938
4.51265
79.6763
7.54729
16.6477
20.8223
22.4862
23.3323
22.3925
14.4232
23.5804
22.3656
22.9699
23.1539
22.7011
22.5523
22.8333
23.4103
23.3478
23.5701
22.2169
22.0901
21.8758
21.9497
23.7377
23.6843
21.5957
21.8393
21.7347
21.4158
21.5338
20.845
20.976
21.1115
21.2364
21.2888
18.7698
19.0687
19.3282
18.8564
18.6011
19.6099
19.7761
20.0207
20.1624
19.871
20.3065
20.4623
20.5375
20.6983
7.05523
42.1811
10.8543
17.9196
22.5113
22.2183
22.7671
22.5989
22.4228
22.8519
14.909
75.7718
22.3069
22.4507
23.0274
23.2219
22.7882
22.6491
22.5176
22.9424
23.5487
23.4122
22.1756
22.0867
22.0131
23.9996
23.8743
23.8202
21.6743
21.8617
21.797
21.4165
21.5456
20.8801
20.9672
21.1069
21.2793
21.3579
18.5951
18.8583
18.9933
19.2073
19.4234
18.7659
18.5308
19.5522
19.7151
20.0673
20.1542
19.9155
20.316
20.4728
20.6202
20.7884
1.24379
24.4654
16.6434
7.72545
18.5096
20.3181
22.0229
22.1854
22.6855
22.6939
22.3172
22.9039
14.3747
21.596
22.3518
22.4714
23.1637
23.0208
23.3465
22.8604
22.6994
22.5692
22.9566
23.7412
23.6172
22.2169
22.1563
21.9939
23.9491
23.9899
21.6823
21.9307
21.818
21.481
21.6206
20.8708
21.0272
21.1738
21.353
21.2484
18.557
18.8457
19.0515
19.1571
19.366
18.3753
18.2371
19.623
19.7633
20.0258
20.2299
19.8797
20.4021
20.5597
20.6293
20.7738
4.74932
81.0531
18.1671
10.5944
18.4219
21.2008
21.9
22.0221
21.9809
22.2059
22.6215
22.4446
22.8051
13.1824
74.3003
22.2981
22.433
22.5376
23.2259
23.1293
23.4794
22.8655
22.6485
22.8041
23.0619
23.9744
23.7634
23.6544
22.1798
22.0642
24.3541
24.231
24.257
21.7538
21.9558
21.904
21.4862
21.6259
20.9564
21.0362
21.18
21.4151
21.2959
18.4015
18.7115
18.9514
19.2332
19.4362
18.17
18.2277
19.7394
19.5691
20.0962
20.2652
19.9594
20.4409
20.5979
20.7088
20.8482
1.47039
28.8417
16.3757
7.41033
18.2231
15.8364
21.665
22.0723
21.7408
22.4122
22.687
22.3883
22.8823
22.7753
26.1925
22.3148
22.4773
22.5795
23.366
23.1698
23.495
22.9894
22.6581
22.8948
23.0915
24.2402
24.0446
23.8701
22.1408
22.2658
22.0268
24.6051
24.5022
21.7615
21.9417
21.5586
21.6938
20.9784
21.117
21.2446
21.4139
21.3688
18.3885
18.6845
19.0077
19.1778
19.4521
17.9784
18.0284
19.8335
19.6579
20.0676
20.212
20.3828
19.9388
20.5415
20.6963
20.7496
20.8234
20.9253
6.02348
81.7043
17.5487
9.70778
18.0459
15.0705
21.7374
22.2667
21.9567
21.5916
21.4747
18.8322
22.1993
22.587
22.4781
22.8768
22.6732
82.2932
13.9017
22.4022
22.4768
22.5707
23.4776
23.3663
23.7505
23.011
22.7541
22.8685
23.2552
24.2781
24.5172
24.0821
23.9212
22.192
22.316
22.0766
24.8327
24.8007
21.8433
21.9108
22.0334
21.5573
21.7321
21.0804
21.1448
21.2836
21.4908
21.4161
18.2704
18.5386
18.8187
18.9714
19.27
19.4096
19.5867
17.7745
18.0645
19.8649
19.7612
20.1469
20.2664
20.4354
20.0308
20.5758
20.7072
20.8745
20.9526
1.56916
28.6218
15.2067
17.9923
6.66836
17.9492
17.7849
21.6167
22.2203
21.9973
21.2987
21.4259
18.42
22.1514
22.5684
22.3891
22.7813
22.6748
27.3697
11.8312
22.3994
22.5979
22.6757
23.6918
23.4044
23.1663
22.7763
22.9767
23.3125
24.6594
24.7974
24.4044
24.1729
22.1623
22.2812
25.191
25.2071
21.8533
21.9619
22.0681
21.6297
21.7014
21.8183
21.1059
21.2329
21.3752
21.4869
18.3079
18.5573
18.8111
19.1238
19.2649
19.4842
19.6026
17.691
18.0064
19.8123
19.9804
19.8056
20.1236
20.2402
20.3768
20.535
20.6676
20.7979
20.8695
21.0347
6.3677
80.8177
16.5418
17.7845
9.52291
17.6823
17.5858
21.6785
22.128
22.2844
21.932
21.2621
21.125
21.5519
19.8796
12.8827
21.8233
21.5006
22.4995
22.3951
22.961
22.7822
22.6188
77.0785
22.5127
22.6197
22.6982
23.8936
23.6279
23.2543
22.8854
23.1475
23.484
24.7062
24.9205
25.1609
24.4374
24.3415
22.2276
22.3337
25.5873
25.6088
21.9204
22.0359
22.1752
21.6327
21.7518
21.8468
21.2078
21.2778
21.4213
21.5615
18.4172
18.1457
18.6893
18.9337
19.0569
19.4125
19.5398
19.704
17.5183
17.8315
19.8834
20.0448
19.8058
20.2088
20.3031
20.3994
20.5996
20.7332
20.8146
20.9516
21.0622
1.55569
29.1071
15.1271
17.771
6.55423
17.5788
17.4447
21.8328
22.0687
22.2247
21.9751
21.2731
20.9316
21.5622
20.0456
11.4696
21.9741
21.1824
22.5347
22.369
22.8658
22.6787
26.8065
22.5196
22.7361
22.8461
23.8549
24.233
23.651
23.5126
22.956
23.2755
23.6304
25.1561
25.2919
25.563
24.8346
24.7248
22.3263
22.2473
22.4507
26.0713
26.27
21.915
22.1215
22.2129
21.6977
21.8218
21.2263
21.2786
21.3836
21.5166
21.5685
18.3378
18.2029
18.6099
18.8753
19.1167
19.4251
19.7116
19.7901
17.4758
17.8377
19.9883
20.1789
19.9597
20.3202
20.2502
20.5046
20.7095
20.6145
20.9059
20.9763
21.0292
21.1658
6.87176
82.1309
16.3165
17.5971
7.22117
17.3197
17.3036
21.7782
22.1145
22.273
21.9077
21.1756
21.4541
21.0236
20.8182
21.68
15.9505
21.3483
12.4868
21.2887
22.4403
22.8342
22.6527
76.6832
22.6607
22.8338
22.8679
24.1531
24.5244
23.9007
23.6517
23.154
23.5149
23.8635
25.1722
25.6486
25.7424
26.1088
25.1337
22.4272
22.3825
22.507
27.2677
26.6973
26.4873
26.8813
22.0076
22.1149
22.3316
21.7205
21.8979
21.3191
21.3782
21.441
21.5431
21.6506
18.7132
18.446
18.0304
18.6902
19.1223
19.4131
19.8035
19.8192
19.9515
17.3306
17.6521
20.0968
20.2548
20.0901
20.4393
20.4154
20.5336
20.596
20.7979
20.7424
20.9589
21.0556
21.0948
21.2046
2.35474
27.8488
16.3406
17.5458
4.7577
12.011
17.1892
17.2647
21.8148
22.0736
22.2451
21.9151
21.2263
21.4177
20.9629
20.7094
21.6371
14.8886
21.4958
10.9805
20.8617
22.4566
22.9986
22.7349
22.9054
22.5726
38.2812
22.6087
22.7898
23.026
23.0569
24.1259
24.4688
24.9735
23.9816
23.2925
23.683
24.055
25.6873
26.3991
26.5725
26.7514
25.759
22.4701
22.4257
28.209
27.6455
27.7028
22.0046
22.2345
22.4084
21.8244
21.9066
21.3722
21.3994
21.5165
21.6348
21.6896
20.1621
17.7606
17.976
19.1702
20.4533
20.1913
20.9928
20.0575
20.2708
20.2109
17.2226
17.7824
20.2484
20.4268
20.252
20.5042
20.5043
20.6527
20.6951
20.9132
20.7952
21.0937
21.1345
21.1725
21.3117
5.21846
75.6589
17.28
17.4832
4.33016
11.9614
17.0205
16.9599
21.7723
21.9922
22.1506
22.3259
21.8248
21.333
21.1469
21.4893
21.0372
20.817
20.5245
21.5657
21.6928
16.9219
21.0287
20.471
12.1587
20.6862
22.4137
22.7112
22.8746
22.5577
30.758
22.7059
22.9579
23.173
23.2334
24.4501
24.7891
25.2888
24.0964
24.1466
23.5741
23.9612
24.3837
26.3414
25.9883
27.1514
27.2202
27.6472
26.2916
22.6199
22.5665
28.3814
28.1574
22.1104
22.228
22.3715
22.5729
21.8676
22.025
21.4946
21.5093
21.5935
21.6906
21.8001
17.0664
18.964
17.8607
17.0362
17.8016
19.1275
20.1179
20.0233
21.1538
21.3111
21.2158
20.4779
17.0168
17.3339
17.4489
20.4231
20.5557
20.4719
20.6731
20.7003
20.747
20.7633
21.0313
20.9199
21.2298
21.243
21.2394
21.3342
3.15495
34.3638
16.99
17.1181
7.57409
14.2374
16.8814
22.0065
22.1447
22.298
21.852
21.3333
21.1121
21.4128
20.981
20.7823
20.5059
21.5564
21.6351
15.1302
20.9181
21.1044
10.2749
20.375
22.4726
23.0483
22.6207
22.7802
22.9455
75.7785
14.198
22.8876
23.1468
23.37
23.4019
24.7791
25.1774
26.0265
24.4683
24.4389
23.6855
24.2326
24.6193
27.0522
26.8159
27.9774
27.9748
28.056
26.3889
27.0736
22.6758
22.6416
28.9679
28.9923
28.9423
22.123
22.3583
22.5199
22.7031
21.982
22.0579
21.5565
21.5538
21.6126
21.6566
21.8033
21.8743
13.4401
16.3549
16.7781
17.3015
17.0314
15.3705
17.3109
16.2984
19.868
21.2037
21.3186
21.0708
17.0025
17.217
17.4746
16.8359
20.7785
20.6804
20.8085
20.8809
20.9264
20.9198
21.1985
21.0261
21.013
21.3914
21.3761
21.4555
1.68873
18.0255
17.7087
16.8877
7.45049
14.315
16.7648
21.9488
22.0888
22.2271
22.3578
21.7873
21.2631
21.0157
21.1706
21.4033
20.8847
20.6689
20.3318
21.4921
21.6873
17.2025
20.5848
19.9318
7.95684
20.225
22.4443
23.1392
22.6002
22.7641
22.9374
91.0923
9.59655
23.0034
23.3675
23.614
23.6165
25.2805
25.6654
26.1763
24.7622
24.5501
24.7283
23.9878
24.2104
25.1066
27.8845
27.2315
28.6044
28.51
28.7505
27.2828
27.6369
22.8376
22.8549
29.2894
28.7902
22.2372
22.3619
22.5045
22.6887
22.8787
22.0648
22.2136
21.7037
21.5619
21.6743
21.7302
21.8327
21.9005
22.0107
25.0534
18.1879
15.4786
21.2558
16.8945
19.9352
19.4831
20.6936
17.3732
19.2847
18.8047
21.3638
21.31
16.8284
17.0349
16.8236
16.4522
21.1076
21.1757
21.0918
21.1575
20.9649
21.1292
21.3495
21.1959
21.1706
21.5504
21.4151
21.4929
1.99141
78.6887
1.66438
17.1681
16.349
16.6367
11.0646
16.6192
21.9894
22.1223
22.1976
22.3271
21.8046
21.2772
20.9621
21.0949
21.364
20.8191
20.7048
20.3409
21.5037
21.6454
12.7316
20.1684
20.3284
20.8918
20.1261
22.5081
23.2647
23.1142
22.671
22.8443
23.0245
45.4936
9.05312
22.9814
23.2675
23.4042
23.6169
23.8843
23.8851
25.769
25.4121
26.7893
25.3016
25.0402
25.1766
24.0961
24.5378
28.1155
27.9428
28.6462
28.8597
28.7818
27.3706
28.0639
22.9396
28.1403
27.0578
28.2765
22.2961
22.5488
22.6674
22.9034
23.0675
22.1993
21.7615
21.7959
21.6981
21.8799
21.9365
22.0788
22.1451
42.1303
25.5133
42.7022
20.1103
46.6657
17.4853
38.9814
43.7426
34.3946
15.1201
18.0173
18.7755
21.5333
22.1967
16.7883
16.8107
16.9349
16.2461
16.4272
21.5741
22.0703
21.2623
21.2691
21.5349
21.2631
21.3482
21.5725
21.4419
21.7075
21.6506
21.6157
21.6501
0.284685
25.0105
0.906929
16.9091
16.6971
16.4444
11.1775
16.5094
22.08
21.9526
22.2436
22.3837
21.8878
21.7608
21.227
21.0037
20.854
21.1202
21.415
20.6267
20.5103
20.1862
21.5755
21.6936
13.0487
19.966
19.9298
20.5614
17.6608
19.9879
22.4768
23.3114
23.1756
22.6711
22.8462
23.021
29.8293
6.94882
23.1954
23.3393
23.6884
23.877
24.1815
26.4627
26.2046
26.9585
25.7945
25.4723
25.2388
25.721
24.3358
24.9667
28.3572
28.0724
27.9312
27.6798
28.3719
28.068
27.8207
28.4342
23.1467
25.5126
26.7579
22.4856
22.6767
22.8692
23.0963
23.2935
22.3228
21.9213
21.9589
21.7683
21.9899
22.1258
22.2072
22.3049
71.517
59.3599
67.6589
37.0283
48.0014
74.0591
70.8123
54.3858
66.4322
43.6577
24.2805
15.1922
19.7851
29.7377
21.5357
16.6108
16.4142
16.7815
15.6017
19.1816
22.353
22.4608
21.7092
21.7675
21.9395
21.4647
21.5838
21.7743
21.6983
21.9375
21.9618
21.7272
5.27622
5.09569
78.12
3.93496
16.8857
16.503
14.3399
16.3994
22.1142
22.0053
22.2042
22.3948
21.8648
21.7951
21.2767
20.9408
20.8031
21.1042
21.4226
20.6454
20.4755
20.1603
21.5809
21.6454
19.7361
20.1853
18.3639
19.9258
22.5436
23.256
23.1819
22.7728
22.6253
22.9404
23.103
84.3411
12.7383
12.2435
23.5354
23.7451
23.9147
24.1688
24.5538
26.6778
26.2765
27.5263
26.3357
26.1271
26.0563
24.657
25.3972
27.9522
28.3163
28.4217
25.6998
25.1493
27.6523
26.936
28.2366
28.075
23.3265
26.2891
25.8411
25.083
22.5513
22.7959
22.9478
23.301
23.5443
22.4944
22.0482
22.1175
21.9893
22.1706
22.2551
22.4417
22.4306
98.4619
95.6763
48.1869
70.8174
86.1486
109.006
104.629
123.783
80.5214
48.1148
25.454
21.4841
46.0106
21.0257
16.586
15.6329
16.5489
16.7028
18.2789
39.9126
22.7411
21.2794
22.0286
22.134
22.7225
21.9452
21.8147
22.1055
22.0953
22.1069
22.1299
22.2251
21.9484
1.79732
20.7051
5.68403
16.8579
16.2876
14.904
16.2804
22.0877
21.9863
22.25
22.4846
22.3414
21.9085
21.7691
21.3648
21.2546
20.9519
20.8612
20.7269
21.1837
21.0253
21.515
20.5485
20.3901
20.2816
20.0114
21.685
19.7583
19.635
20.0878
19.5987
23.4146
23.3085
22.7638
22.6792
22.9124
23.0972
41.8068
9.40795
12.1361
23.7089
24.1044
24.2571
24.5487
24.9897
27.2639
26.8916
27.6307
26.5229
26.8761
26.406
26.0331
25.2503
25.9655
26.7324
24.5276
24.2836
24.2951
24.9204
24.1361
27.9682
27.6655
26.7178
23.6175
33.4614
29.5742
25.0438
22.7717
22.9206
23.1971
23.5519
23.4765
23.8374
22.6273
22.253
22.3684
22.1091
22.3386
22.4831
22.6018
22.5415
22.6207
95.5078
114.892
51.8359
69.7748
85.9831
92.6821
116.486
132.828
133.104
132.56
79.7333
128.762
61.1783
42.1675
21.3656
110.341
16.4401
14.9846
16.1424
16.5738
33.9032
44.1512
22.1126
20.5981
22.8881
22.9979
22.9145
22.4261
22.1438
22.3943
22.3871
22.3882
22.4412
22.5292
22.6975
3.93825
2.6162
73.43
12.0055
16.1568
16.6127
16.2056
16.1666
16.2861
22.1566
22.0473
22.2326
22.513
22.3639
21.8979
21.8227
21.3775
21.3075
20.8656
20.8226
20.7407
21.175
21.025
21.5132
20.5317
20.3784
20.1959
19.9842
21.6577
19.7364
19.4415
19.84
20.0788
23.5202
23.2889
22.8285
22.661
22.9648
23.1979
23.0527
31.3001
8.16876
16.5597
24.0487
24.3513
24.5801
24.9547
25.5497
27.5502
27.4924
27.8854
27.0293
27.229
27.0314
26.449
25.666
25.5288
24.1526
26.0272
22.4546
23.7734
23.773
23.434
26.928
27.8804
26.1117
26.0365
23.8922
37.2212
28.1271
22.7919
22.927
23.1874
23.4204
23.9091
23.8488
24.1382
22.4628
22.6588
22.408
22.6188
22.7242
22.9044
22.7935
22.8472
91.4365
96.9158
67.5182
71.9495
71.7733
66.7588
121.452
129.547
144.44
139.903
134.45
155.286
110.57
68.0733
23.293
156.021
122.454
16.5467
12.6784
29.4088
16.6383
43.4084
58.4585
21.4109
21.9812
23.0459
23.2697
22.4896
23.1845
22.8683
23.1531
23.0124
22.6141
22.7302
22.8837
23.0983
3.72685
1.64163
19.1948
13.6059
15.9253
16.5638
15.9665
16.0697
16.1284
22.1267
22.0442
22.2923
22.5989
22.4415
21.9723
21.7911
21.4445
21.3134
20.8698
20.6959
21.2414
21.1015
20.9616
21.5854
20.4687
20.6161
20.3221
20.2153
20.0978
19.8769
21.7149
19.6314
19.2352
19.489
20.0876
19.31
23.5601
23.3983
22.8076
22.736
22.9432
23.1944
23.1053
86.5468
12.7774
6.08588
16.3305
24.3722
24.8617
24.9905
25.4884
25.9295
27.9355
27.5678
27.2353
27.5562
27.1066
27.0314
26.2733
23.9417
23.8839
23.9659
25.8563
26.2717
28.0645
32.8728
25.7308
26.8938
25.8367
24.0677
24.2719
77.0076
51.0273
23.0372
23.2525
23.3795
23.7264
24.1775
24.1899
24.5879
22.7771
23.0232
22.6604
22.8819
23.0729
23.1665
23.1058
23.0645
23.0598
59.2234
75.3623
68.1174
69.2694
66.1098
59.7006
48.8519
96.0666
123.847
153.879
126.189
138.36
159.359
139.803
67.1681
35.1585
180.918
159.792
16.4282
15.3429
42.1924
26.4789
16.0076
58.6343
67.8856
22.1491
21.8619
22.4982
23.2021
22.3459
23.5067
23.2981
23.3763
23.0019
23.2265
23.4787
23.7219
8.09546
0.636631
70.8129
2.57569
13.2935
16.3203
16.2597
15.8738
15.9352
16.1642
22.1741
22.1091
22.2922
22.6296
22.444
21.9534
21.8318
21.4554
21.3915
20.8297
20.7482
21.2672
21.0838
20.9454
21.5872
20.5058
20.5862
20.3617
20.2094
20.0217
19.9091
21.7143
19.6915
19.2351
19.3829
19.8501
18.9889
23.6806
23.5197
23.3762
22.8634
22.7112
23.0126
23.2741
23.1032
44.2034
11.9219
9.69283
18.4237
24.8265
25.165
25.0005
25.4512
25.9449
26.4651
27.6196
27.4906
27.5066
27.4625
27.3134
27.1606
27.1246
26.5898
24.0171
25.7185
23.3618
35.5419
41.5633
36.1925
38.3967
51.0522
23.8257
26.9093
24.6511
24.6911
80.3949
107.868
23.2814
23.4624
23.671
24.0921
24.5706
24.6298
24.8801
23.0377
23.5715
23.1175
23.2863
23.4055
23.5481
23.5745
23.4258
23.4039
45.7248
69.1951
68.0423
38.8327
32.0663
24.8898
87.4215
148.37
159.12
109.487
164.27
166.71
180.298
133.809
52.3283
180.489
194.342
16.1924
16.3453
14.2266
50.2249
32.8297
57.7898
54.8797
34.3218
24.9727
22.3941
22.3011
23.1651
22.6858
23.8473
23.9442
23.9695
23.4119
23.6633
23.907
24.0561
7.91024
4.11552
28.5486
1.10647
14.9066
16.1665
16.2219
15.6316
15.8589
15.9547
22.2456
22.1207
22.3755
22.602
22.5244
21.8987
22.0168
21.7766
21.5275
21.4196
20.8715
20.7207
21.361
21.2255
20.9993
21.1474
21.6556
20.449
20.6383
20.2961
20.1269
20.0213
19.8188
19.5886
19.1198
19.4434
19.1236
19.866
18.9619
23.7838
23.6427
23.4709
22.8501
22.7639
23.0179
23.2952
23.2054
38.3292
6.84078
8.26441
18.1937
25.2078
25.5593
25.5732
25.7701
26.4293
26.7341
27.2157
26.8592
27.195
27.1638
27.3666
27.265
27.1564
27.0482
28.4067
35.5284
23.2776
47.3963
65.7163
68.8371
46.9624
95.9852
23.4923
25.6086
24.5336
23.5114
25.1699
136.031
171.784
23.5854
23.7609
23.9434
24.3744
24.7565
25.0663
25.3785
23.4842
23.5659
23.9014
23.6465
23.823
23.8912
23.8603
23.774
23.6557
17.2146
24.8281
45.5145
30.2963
24.9887
18.176
13.3516
63.3707
136.123
105.785
166.011
70.1195
172.259
222.542
150.735
108.811
181.411
193.867
201.727
16.0934
16.3
13.6998
50.4722
57.5856
32.628
46.7159
54.9395
42.2511
68.5768
35.1462
22.9111
22.5795
23.1201
23.6941
23.9742
24.0059
24.2608
24.4641
24.4277
11.1079
3.32964
21.8614
1.44476
14.7129
16.2706
15.9721
15.667
15.592
16.2338
22.2933
22.2183
22.084
22.3754
22.6675
22.5107
21.9183
21.9808
21.7893
21.5389
21.4967
20.8489
20.7774
21.3667
21.2648
20.9986
21.1424
21.6636
20.4877
20.6437
20.3338
20.141
19.944
19.8185
19.5884
19.1871
19.3386
18.7545
19.33
18.8243
23.776
23.5944
23.4007
22.9261
22.7513
23.1413
23.2368
97.8062
15.3768
6.46338
12.44
18.9844
25.6191
25.9438
25.9482
26.2811
26.5116
27.0421
25.9712
25.6097
26.612
26.3691
27.0852
26.3369
26.8914
27.095
36.6757
29.536
29.8605
81.8024
101.362
97.0944
72.467
141.037
24.7466
26.3746
23.6372
24.2889
25.6648
207.493
230.169
224.697
23.949
24.0554
24.2489
24.9237
25.4116
25.529
25.1765
25.6188
25.6795
24.1371
24.4671
24.195
24.2615
24.3679
24.2065
24.222
23.9112
16.2998
18.4823
21.613
18.0946
16.9942
15.552
15.077
27.7079
100.075
45.7033
166.523
27.6601
218.04
218.823
127.747
188.155
198.821
181.076
13.612
16.3709
23.6375
52.7098
53.4227
43.3675
50.2761
42.5147
27.9412
76.5512
42.7217
27.0958
22.8874
23.287
34.9566
28.9012
23.8443
24.3628
24.5015
24.3218
23.6673
11.3258
7.21212
69.326
5.80354
0.385688
15.9767
16.1763
16.0263
15.7731
15.4087
16.1927
22.2851
22.2136
22.1417
22.439
22.6427
22.5635
21.8632
22.0307
21.732
21.6107
21.5438
20.9141
20.7256
21.3297
21.448
21.2043
21.0753
20.5876
20.4392
20.3096
20.2362
20.0605
19.97
19.7945
19.5014
19.7095
19.0736
19.3609
18.6444
19.2386
18.9001
23.9104
23.735
23.466
22.932
22.8347
23.1336
23.3696
50.9595
23.5329
5.75015
10.5852
19.4651
26.0169
26.4147
26.3093
26.8386
26.9935
25.0868
24.6893
25.5
25.0575
26.4718
25.472
26.2712
27.0492
65.0515
50.6392
45.9321
96.5806
107.054
150.773
155.96
101.195
195.531
31.1512
36.4887
24.1561
31.3048
26.0947
271.059
309.182
305.954
24.1817
24.5941
24.6826
25.0751
25.8241
25.7234
25.8898
25.9698
24.7793
24.6234
24.8171
24.402
24.8269
24.5341
24.8987
24.5306
24.309
19.1841
18.5974
19.2408
16.8337
15.0836
14.5825
15.5641
18.9608
15.3741
88.273
46.9974
29.0381
161.212
190.549
219.886
202.385
165.844
203.715
166.062
193.932
13.1027
13.8337
25.7691
51.172
45.165
44.3187
52.5783
27.9198
16.1683
25.5437
126.373
70.6695
22.822
28.4437
64.6058
46.4379
24.752
24.6958
24.0286
22.7049
14.43
6.4687
82.971
3.7408
0.134658
15.9253
15.7046
15.2492
15.3996
15.9736
22.3675
22.2797
22.1148
22.4415
22.709
22.5789
21.8742
22.007
21.7428
21.6142
21.5118
20.9049
20.7631
21.3843
21.4504
21.2062
21.0637
20.6153
20.4789
20.3919
20.258
20.0869
19.8857
19.5392
19.7218
19.0881
19.3009
18.5285
19.0354
18.7733
24.1281
24.0414
23.9484
23.6359
23.032
22.8604
23.245
23.4455
93.9463
9.02044
5.3649
12.5453
17.3674
19.2793
26.352
26.68
26.6847
26.8581
27.0012
26.8413
23.4279
23.3271
24.1568
24.1441
25.8365
24.478
25.8044
25.6446
26.7111
68.348
97.3247
66.0566
149.31
157.22
211.492
220.307
150.194
258.336
232.82
38.3547
55.6371
28.6602
35.5147
26.4651
388.474
391.354
24.6714
24.9888
25.5225
26.1966
25.9577
25.8423
26.2123
26.3858
24.7647
24.8697
25.1374
25.2168
24.8522
25.0644
25.1799
25.4285
25.1131
24.8138
19.0063
18.9292
18.9342
18.9744
16.9956
17.0077
17.8546
19.1187
19.4471
17.8852
29.702
114.687
11.2455
18.8278
200.16
209.311
203.746
132.635
213.025
121.304
138.945
215.509
19.3994
13.5476
36.6324
40.2999
33.1582
47.2206
47.6953
20.3984
13.8126
16.4974
127.778
89.0417
22.1578
43.9188
26.4622
82.4406
65.5656
24.6197
23.9534
23.1044
23.533
14.5417
10.3404
39.8069
1.29286
3.94963
15.5264
15.8578
16.0005
15.2587
15.7266
13.8234
22.3643
22.2912
22.1652
22.5128
22.6573
22.8014
21.9467
21.8141
22.066
21.6791
21.5621
20.8502
20.992
20.7024
21.3632
21.5056
21.1265
21.2861
20.5689
20.4627
20.3429
20.1881
20.0116
19.9059
19.4983
19.6557
19.8288
18.9751
19.2163
19.397
18.6186
18.3239
18.4914
18.7997
24.4234
24.3498
24.2049
23.7498
23.0601
22.9868
23.3866
23.1737
23.6415
44.9638
4.48113
9.95067
18.0516
18.8357
26.6377
26.729
26.7717
26.8334
26.8178
26.6135
23.8654
23.8846
24.1471
23.124
24.6184
23.9129
24.2553
24.7997
24.8097
25.9304
103.704
148.402
107.761
176.863
207.13
289.015
301.73
199.053
325.665
313.77
58.2254
74.449
32.1323
57.7887
26.5086
26.6758
439.972
400.393
480.648
25.0016
25.5127
25.63
26.1937
26.2818
26.196
26.5039
24.6696
25.1193
25.2093
25.186
25.0276
25.487
25.3149
25.4318
25.6159
25.4436
25.2102
19.557
18.637
19.5033
20.3236
17.242
18.4412
18.9439
18.3898
18.6989
18.2657
88.8012
17.2722
19.0413
218.691
213.339
265.316
180.777
51.4608
72.0103
219.075
21.868
17.6932
39.089
40.167
32.793
19.7557
44.9376
48.1285
14.5624
16.754
187.353
165.514
59.0023
38.0762
149.523
118.957
24.4227
23.3451
23.255
27.4424
15.4157
9.72331
16.9803
3.22811
2.6566
15.4678
15.6987
16.1154
15.6368
15.1204
13.1004
22.4372
22.4033
22.2492
22.1362
22.5552
22.721
22.8515
21.9654
21.8435
22.0314
21.7094
21.6343
20.8851
20.9702
20.7134
21.4539
21.3492
21.5409
21.1354
21.2947
20.6013
20.5288
20.3897
20.2187
20.0434
19.5717
19.6904
19.8622
18.9915
19.2795
19.3968
18.4833
18.3052
18.2734
18.7488
24.7183
24.5902
24.1939
24.5453
24.0068
23.0182
23.5714
23.2306
23.8454
24.9538
8.02399
13.4662
18.6754
18.7697
26.8189
26.7564
26.7641
26.6571
25.9449
26.8691
26.2663
24.447
25.1049
24.1973
23.6995
23.6998
23.5957
25.3377
125.797
145.925
199.961
129.5
233.786
263.271
357.104
391.442
264.84
392.838
75.7218
78.6401
112.189
48.8432
62.7447
78.1177
26.5588
26.6486
597.74
488.577
603.414
25.4836
25.8199
26.0544
26.3584
26.5088
26.3674
26.2433
26.5976
24.4003
24.6362
25.2262
25.5625
24.6165
25.5744
25.6151
25.694
25.6478
25.4861
25.7096
25.5503
18.9301
18.4709
19.6652
19.7965
20.258
17.6508
17.9691
17.8252
18.2164
20.8045
19.2319
34.2578
20.3052
21.1262
225.551
227.874
225.288
246.744
166.555
27.711
44.3845
55.0955
208.014
33.2811
18.1663
30.9211
22.9456
16.4069
45.104
40.099
15.3484
17.172
207.822
96.0601
44.5981
168.767
197.565
146.113
23.8763
25.0214
31.8119
15.6114
12.9979
74.4392
0.924041
6.18942
15.2746
15.7268
14.2614
15.3805
15.0285
14.8007
22.522
22.462
22.3912
22.3058
22.1976
22.6705
22.82
22.959
21.9229
21.8012
22.0875
21.684
21.6745
20.8633
21.0251
20.667
20.7961
21.4134
21.5139
21.6352
21.2359
21.1059
21.3663
20.5517
20.4025
20.5017
20.3294
20.1455
19.9697
19.6542
19.4856
19.7973
18.8758
19.1212
19.2504
18.4308
18.1378
18.0903
18.6793
25.0194
25.4819
24.9433
24.5651
24.8962
24.1679
23.1329
23.5698
23.8072
23.415
24.1172
80.8635
4.45895
13.5414
18.7726
18.2672
26.7454
26.5048
26.6587
26.0513
25.4643
30.6521
34.2493
30.8604
23.2092
26.4496
25.4211
23.9492
23.2521
23.3389
23.567
172.578
189.125
262.349
184.481
280.01
330.355
464.458
485.046
330.365
491.165
112.584
112.728
133.494
55.1485
92.0966
113.471
26.511
26.5366
26.4708
650.267
663.118
615.367
726.958
25.8414
26.1064
26.457
26.4182
26.5077
26.1544
26.219
24.1999
23.8772
24.7637
25.2856
24.3907
23.9822
25.0567
25.7143
25.6941
25.1289
25.9085
26.0071
25.8901
18.6482
18.5011
18.9641
19.1061
19.4559
17.7251
17.4191
17.5317
17.7856
18.1739
20.7069
20.0589
21.0218
201.795
202.25
239.854
276.903
125.935
15.8962
17.0972
71.0093
22.568
36.2038
27.6509
30.8857
22.0538
15.1691
14.8037
42.4133
43.6544
40.1339
17.2421
17.3808
269.673
118.008
74.9251
251.71
276.067
223.137
24.3714
29.5752
45.7299
12.2577
17.9994
1.99636
3.56155
6.0246
15.1147
15.6816
13.8928
15.3794
14.2588
14.9381
15.3451
22.5826
22.5406
22.4562
22.2835
22.1739
22.7053
22.9048
22.9994
21.9618
21.8356
22.0469
21.7522
21.7383
20.9379
21.0137
20.704
20.7828
21.4278
21.5595
21.6384
21.2268
21.155
21.3888
20.6552
20.4924
20.543
20.3434
20.1632
19.995
19.7222
19.5111
19.8208
18.8922
19.13
19.378
18.5436
18.2758
18.1279
17.8819
18.7789
25.3999
25.3267
24.4926
24.8901
25.2854
23.1825
23.8033
24.082
23.4835
24.3512
31.1461
8.95626
9.61595
16.7551
18.5867
18.1352
26.0072
26.1673
25.555
23.7343
46.3504
46.3781
46.3503
36.5836
35.428
30.1107
27.6053
25.3547
23.2853
209.238
244.307
272.147
327.361
203.861
220.378
366.486
392.575
521.709
511.914
600.827
410.38
604.315
151.48
172.873
76.4575
117.884
97.222
149.992
25.9439
26.0182
25.7373
719.12
683.216
733.46
26.0549
26.1654
25.9221
26.1769
26.162
25.8621
26.0793
26.1469
24.4224
23.8188
24.3531
24.963
23.6245
23.317
24.8291
25.857
25.6575
24.6305
25.9708
25.9322
25.8266
26.0682
18.6666
18.4424
18.8592
19.2534
19.6098
17.266
17.0123
17.6962
17.3163
18.0434
18.2975
19.8592
21.4073
19.6313
21.2065
174.57
218.709
227.244
252.628
124.282
18.0544
18.326
28.5095
18.1444
35.8058
29.3947
24.2362
16.4433
14.5922
15.7996
42.6839
44.2896
30.6956
17.0797
16.9414
290.889
192.131
84.8154
282.248
262.464
240.456
26.4777
32.426
49.2924
14.3202
72.2097
1.35952
3.35683
11.0628
15.2834
15.3499
13.7102
15.2302
13.7802
14.8594
23.2506
22.6652
22.5963
22.4423
22.5691
22.3601
22.2365
22.8228
22.9144
23.0976
21.9188
21.8153
22.11
21.7993
20.9046
21.0894
20.7116
20.8329
21.5104
21.5748
21.6972
21.2783
21.1588
21.3506
21.4703
20.6913
20.5364
20.6329
20.2771
20.4512
20.1599
20.0967
19.9124
19.7417
19.6683
19.5071
19.008
19.2636
19.3883
17.9567
17.7913
25.9012
26.4537
25.8147
24.6006
25.2545
25.5767
23.3641
23.8566
24.0489
24.3624
23.7082
80.1463
10.6934
4.5585
15.4805
18.4613
17.6863
25.1309
25.6248
23.8416
23.3905
61.9486
45.4513
64.2346
42.4388
36.8442
32.9378
32.2244
29.2955
26.0814
24.5969
275.144
287.311
347.501
400.676
276.03
295.062
423.133
486.867
626.203
623.567
666.211
478.584
202.327
212.354
93.2319
165.332
136.616
190.417
25.4108
25.4189
25.5146
25.0427
713.191
725.032
776.115
26.1856
25.3388
25.3778
25.8679
24.9795
25.3422
25.604
25.8737
26.4775
24.5297
23.8753
24.1092
24.7787
26.5236
24.384
25.1074
24.6225
24.3582
25.9063
25.4631
25.4888
25.9803
19.5429
17.0626
16.7225
17.7698
17.418
17.9171