/*--------------------------------*- C++ -*----------------------------------*\
| =========                 |                                                 |
| \\      /  F ield         | OpenFOAM: The Open Source CFD Toolbox           |
|  \\    /   O peration     | Version:  v2012                                 |
|   \\  /    A nd           | Website:  www.openfoam.com                      |
|    \\/     M anipulation  |                                                 |
\*---------------------------------------------------------------------------*/
FoamFile
{
    version     2.0;
    format      ascii;
    class       volScalarField;
    location    "1";
    object      p;
}
// * * * * * * * * * * * * * * * * * * * * * * * * * * * * * * * * * * * * * //

dimensions      [1 -1 -2 0 0 0 0];


internalField   nonuniform List<scalar> 
13611
(
85494
82341.1
87184.8
80498.2
77346.7
71495.2
82266.6
86648.1
64218.6
75361.6
70001.9
84753.5
78758.1
88244.6
63997.6
75935.2
67107.4
72895.2
84467.1
79020.7
86813.6
60343.5
61347.1
64752.4
66838.5
71900.6
82152.6
77014.2
88013.8
58311.2
60674
62492.6
64377.1
68722.3
73900.8
81884.7
78736.7
87237.3
56895.3
58561.3
62493.7
64584.3
67294.5
72264
83164.9
78527.4
88932.5
85390.6
56966.5
54969.4
58342.1
60412
63232.3
67471.1
69258.6
73599.3
81086.5
76383
87701.7
85802
54677.3
53625.4
56598.8
60051.5
51311.7
63523.2
61286.3
65089.8
68369.8
71567.5
81587.3
77098.3
88408.1
84153.2
53721.6
51956
56639.9
54686.9
58004.3
61800.8
60494.1
64701.4
69239.8
66129.6
72289.7
79744.5
75043.8
87313.9
85005.5
51232.4
50602.5
54923.4
53671.9
57624.6
48932.9
61340
58863.8
62699.6
67747.5
65894.9
70682.6
80617.4
75171.3
87169
83178.8
50068.5
50361.2
54549.4
51870.7
55915.4
47500.4
45936.1
59415.8
58220.1
62176.3
67349.7
64425.7
68460.9
71163.3
79488.9
77159.1
72970.5
88237.7
85609.7
83781.3
47957.7
48311.6
52936.7
51497.1
56283.6
44412.2
59066
60440.8
62917.6
65197
67848.9
69462.1
80954.6
77062.7
72650.6
87887.3
85331.9
82719.7
46572.3
47791.5
46664.3
52191.7
49984.7
55416.6
44586.2
42732.7
57512.6
60304.1
61723.2
64246.1
66441.2
69319.6
80690.8
79100.4
75441.1
70693.6
73635.9
88911.4
86619.3
83676.8
48561.9
46019.7
44764.8
52460.9
50354.6
56090.9
53704.1
42944.3
41179.2
57734
59127.8
61311.9
64944.7
62230.2
66314.4
67575.3
82542.5
78955.8
75527.9
70404.4
72728.4
88608.5
86039.6
47190.5
44688.5
45750.9
43044.1
50904.5
49311.7
54760.6
53405.6
41185.8
39590.4
56533.5
59582.7
63897.7
61419.1
64812.5
67748.5
82943.6
80383.9
77020.3
73831.5
71373.7
69107.3
87448.1
89341.6
84490
47589.1
43176.4
44283.8
41313.7
50792.9
49585.2
54968
52046.4
39597.6
37938.2
56858.5
58518.4
62391
59832.1
64110.2
66877.7
81990.5
79840.4
76890.2
73386.7
70526.9
69138.5
87024.9
88826.8
84562.3
46890.7
43056.7
41550.1
43753
39582.3
49411.2
48212.9
53815.2
51737.9
37867
55791.3
58674.8
61600.2
59246.2
64592.8
62389.8
65740.3
68023.4
83231.1
80505.7
78208.6
75557.8
74223.9
71775.3
70610.4
87924.4
85677.4
89139.9
45525.6
41510.3
40448.4
42051
44242.6
37843.2
48150.5
49252.7
54342.5
52443
50305.3
36512.5
55969
57180.3
60023.8
57622.5
63531.9
61585.8
65354.6
68023.3
83197.6
81922.3
79431.4
78081.8
75751.7
73588.5
71518.3
69269.9
87149.7
85790.5
88897.4
45484.3
41059.1
38917.1
41567.4
42779.5
37624.2
36453.7
46799.2
47955.5
53605.1
51412.7
50172
34977
34188.2
54650.2
59361.2
56900.8
64054.3
62252.1
60134
65864.2
66984.2
84774.5
82105.1
79534.2
76936.4
74586.5
72442.7
70238.9
69177.9
87830.6
89017.7
44225.7
39399.4
38299.5
40272.5
42858.1
36034.3
35031.7
46765.8
47882
52403.5
51462.3
49048.7
34135.8
32366.6
54153
57882.7
55673
63466.1
61535.7
59484.9
65226.8
67023.8
84745.9
80875.6
83358.6
78318.2
77028.1
74569.4
71825.9
70377.8
67968.4
87441.3
89390.1
88459.7
44253.8
39082.4
36849.5
39691.3
41629.5
34559.6
35919.3
34166.5
45465
46705.9
51760.2
50244.6
49133.4
32698.3
31699.6
52453.8
54703.9
57463.6
55062.6
64137.3
62241.5
60226.3
58275.2
65946.8
85625.9
80821.6
83644.8
78392.3
75871.2
73529.9
72273.8
69578.9
67664.7
86684.6
89611.9
88630.3
43105.6
37776.1
36082.6
40209.4
38121.7
41884.3
33529.8
34509.9
32488.1
45512
46764
50411.1
47994.9
30153.9
51809.2
53996.5
56291.5
55247.7
63663.7
61746.1
59735.8
57684.8
65598
85468.4
81871.2
79559.8
84733.9
83007.8
77314
76078.9
73452.3
71573.5
69708.4
68334.6
66362.3
87006.4
89411.6
90136.6
87807.9
95516.9
106253
43022.1
36453.7
34489.9
39141
37208.6
40897
32191.9
31173.1
44182.2
45634.5
49409.4
48087.4
29037.2
29467.2
52840.7
50500.7
56473
54189.1
64406.5
62496.4
60553.9
58590.4
57797.5
86357.9
81720.9
79591
84793.7
83896.8
77430
75184.5
72286
74057.1
70508.5
68631.6
67842.6
65953.3
89582.6
90044.6
87868.5
98289.8
94487.7
90301.5
104117
107529
41637.9
35235.7
33414.8
37701.3
39578.1
35661
31104.1
31463.8
29817.9
44266.1
45759.7
49476.5
46980.8
28025.6
52948.4
49938.4
55933.7
54093.9
63916.1
62119.4
60211.4
58244.8
56715.3
86486.6
82644.9
80658.7
78534.8
85713.1
83700.3
76527.5
75540.5
71957.3
73456.5
70245.8
68412.5
66766
64706.2
89148.5
90163.1
88456.1
87269.5
99784.8
92139.3
96058.2
90660.6
102748
106425
41085.7
33763.5
31946.6
36618.8
38558.6
34845.5
29576.8
29819
28357.1
43165.2
44759.4
48223.7
47056.8
27341.5
27358
52153.6
48505.8
50081.3
54885.8
52925.4
62782.3
61026.2
59055.9
57206.9
56487.4
82723.1
80638.6
78750.1
85844.2
84304.6
76399.9
74866.1
72492.2
70980.4
73914.1
69226.3
67369.5
66504
64426.1
89641.1
90107.1
88556.7
87503.7
98563
91441.9
94651.8
87825
88902.6
85644.7
104339
107655
41807.1
39733.8
32683.6
30846
35319.8
37035.6
38764.4
33541.2
28206
28980.6
43557.7
44747.2
45820.4
25357.2
26022.2
26141.6
50974.6
47872.1
48759
54621
52646.8
62071.9
60920.8
58924.4
56577.5
55462.4
83782.1
82116.3
81277
79737.4
78003.5
86615.2
85166.1
76950.3
75337.9
71855.6
70878.9
73341.4
69036.8
67176.9
65416.4
63278.4
89489.7
90074.5
88150.3
89062.4
87223.5
100090
92356.5
89483.3
95129.1
86488
88397.6
84361.7
102971
106409
40881.1
39185.5
31270.7
32691.7
29516.3
34249.3
36043.4
37764.2
33160
26713.6
27570.2
42788.4
43537.7
45787.6
25496
25211.2
50583.5
46782.8
48390.1
53548
51502.8
62194.5
59993.5
57998.1
55428.7
56890.1
84016.3
82365.1
80929
80071.4
78532.8
86597
85793.8
76389.2
74856.4
72226
69975.1
73810.8
68028.6
66150.6
65259
63344.7
89869.3
90193.6
88310
89164.3
87886.5
99784
90943.3
89214
92923
97580.7
85977.1
86824.4
83876.3
104264
107545
41495.7
39587
38077.9
30474.3
31318.8
28410.3
34030.4
36616.4
34759.7
31946.8
25295.7
26537.2
27195.7
42997.7
44718.4
23495.7
24136
23827
49312.6
46368.1
47095
53404.2
51275.3
61020.2
59961.5
57974.7
54454.9
56184.4
84894.6
83212.6
81564.4
79590.3
78004.2
87204.4
85693.5
75319.3
76918.6
71669.3
69797.8
73281.5
67855.7
65971.1
64320.1
62649.8
89923.5
90310.3
88828.6
89577.4
87887.6
102432
90992.9
87846.9
92340.9
97848
84643.4
86066.1
81778.1
82639.9
106854
40927.7
38597.1
37257.9
29277.4
30957.3
28349.2
32686.7
36182.9
33787.1
31683.7
23873.8
24997.3
25984.9
43552.4
41685
45163.6
22216.7
22652.7
49104.1
46545.3
52288.9
50148.8
60875.2
58857
56904.8
54381.5
55197.5
85066.7
83462.8
81300.5
80184.2
78256.9
87210.5
86536.4
74717.8
76673
72262.6
70570.9
68682.5
73721.1
66816.8
64902.1
64159.6
63211.6
61683.8
90293.6
90537.4
89111.3
89723.3
88359.7
102775
89218.8
86439.9
87782.3
93249.4
90258
100357
95633.9
84048.1
84615.4
80644.7
82208.9
108326
105021
39704.4
38694.1
37357.8
28672.2
29529.8
26950.1
32516.9
35234.2
34040.8
30433.2
23821.6
22618.5
24810
25808
42704.2
40933
44485.3
21244.5
21400.8
48098.7
47052.6
45123.4
52309.1
49857
59594.3
58637.1
56562.7
53353.3
54705.4
85831.4
84404.4
82860.1
81894.2
79824.8
78926.7
77502.8
87913.2
86544.9
74868.9
76078.7
71786.2
70251.5
68444.2
73254.3
66581.7
64792.3
62627.4
61530.3
90309.1
90628.2
89565.6
89114.3
90046.2
88870.7
88378.4
89068.4
85251.9
86416.5
91605.5
89415.2
100798
95683
82838.7
83787.4
80476.4
81196.2
107291
105287
39684.8
37397.7
36265.9
27203.6
29258.7
31322.4
35220.3
33205.5
30225.2
22307.8
21465
23463.6
24554.2
43192.6
41383.3
19917.1
20127.2
48085.8
46359.6
44638.7
51468.3
50438.2
48766.7
59499.7
57404.4
55339
53602.3
86041.2
84694.1
83371.5
81484.5
80511
78645.4
77724.3
88197.4
87128
75394.4
73905.4
76059.5
72343.1
70861.7
69240.2
67371.8
65620.4
63955.6
62941.9
60633.8
90595.8
90787.1
89777.7
89603.4
90223.2
89225.3
88984.4
87650.7
85305.7
84047.5
85940.3
89815.9
92002.5
87890.4
99344.7
103398
97211.8
93698.2
82292.9
82677.4
78651.3
79585.1
80745.9
108153
38627.5
37360.8
36258
26267.6
28011.5
31022.7
34079.9
31959.3
29098.5
22147.5
21253.8
20234.7
23402.5
24088.4
42356.2
40728.3
18850.4
18914.9
47059
45378.6
43523.8
51728.3
49895.2
48301.3
58471.6
56982.3
54964.7
52818.7
85554.6
86853.9
84229.9
83011.8
82132.9
80089.1
79063.5
77286.7
88864
87850.4
75308.6
73861.6
76452
71858.8
70405.7
69343.8
66981.5
65314.6
64290
62298.9
60623.5
90601.9
90795.9
90138.3
89821.6
90458.1
89680.2
89185.7
86376.4
84177.8
83027.9
84468
88532.4
90890
86799.5
99976.2
103759
96449.1
93378.8
81210.1
81793.1
78679.8
79751
107175
38706
36215.6
34950.4
26700.8
24699.5
28079.5
29518.8
33834.8
31468.3
28708.9
20852.5
19932.8
19285.1
22185.6
22552.2
41213.6
42540.6
39666.7
17764.7
17648.8
47142.2
44716.1
43528.9
50721.2
48840.7
58620.6
57427.5
55763.9
53831.9
52863.9
85642.7
87312.6
84777.9
83517.1
82124.7
80586.2
78479.8
77599.1
89321.8
88365.4
74739.9
73138.8
76242.9
70825.2
72244.8
68817.1
65854
67290.8
63649.5
62686
61385.1
59620.2
90778.8
90923.5
90324.9
90192.1
90656.2
90046.1
89691.1
85285.5
83112.6
81889.8
83772.5
88491.7
87026.2
89499.9
91747.5
85474
101753
98104.7
105439
94601.6
80853.4
77837.4
79056.6
108127
37753.9
35943.8
34984
25573.6
23807.8
27063
29101.9
32489.4
30113.6
27432.3
20964
19566.7
19209.6
18129.6
21714.8
40328.3
41385
39430.7
15848.9
16748.6
17385.1
16584.1
46428.3
45149.3
42559.1
50707.3
48216.3
57764.4
56420.6
55459.3
53693
51805.9
86315.3
87118.4
88131
84435.6
83076.4
81565.3
80135
78665.9
76981.5
89841.6
89163.9
74786.5
73347.8
75541.7
70329.6
71639.9
69387.3
67953.4
65639.6
66482.5
63843.5
62003.9
61214.5
59684.7
90805.7
90881.8
90615.2
90435.9
90777.3
90732.2
90063
90407
84154.2
82075.1
80983
82605.1
87005.5
86040.9
88977.5
91121.1
84469.3
102318
98009.3
104564
93688.9
79985.1
76593.3
78040.7
76893.7
79168.7
107306
38407.1
36629.7
34620.7
34043.6
25903
24269.9
22353.5
27717.4
32047.5
29660
26697.6
19890.9
18443.7
17782.5
17355.3
20318.6
40329.5
41395.3
14705.3
15946.3
15485.4
46942.4
44465
42456.5
49734
48625.5
58049
56615.3
54512.5
52754
51834
86396.3
87905.3
88605.1
84917.6
83375.5
81937.9
80555.6
79347.2
77831.3
77037.4
90333.9
89571.2
74092.5
72825.9
75504.6
70757.3
72031
68963.4
67676.8
64789.8
66755.1
62881.9
61994.2
60493.2
58955.7
90927
90823.4
90838.1
90784.9
90913.7
90952
90562.9
90817.4
83156.7
81939.4
81090.8
79956.5
82197.7
86073.5
86928.6
84906.1
87825.2
89733.6
91825.6
84325.6
83288.1
101306
96236.2
99545.2
105446
94414.2
79608
77297.1
76198.6
78338
107654
38136.2
35969.4
34032.2
32833.9
24925.4
23378.2
21703.3
27495
26771.7
30568.1
28413.1
25359.8
18675.9
19680.8
17164.6
16857.8
15971.5
19517.1
39167.5
40344.8
14498.5
15127.8
46264
45090.2
43280.6
41293.7
49924
47831.7
57322.4
55943.8
53980.6
52795.2
50910.6
87300.7
85795.8
88511.6
87865.2
89247.5
84289.4
82841.2
81392.4
80048.1
79358.7
78082.4
76258.1
90667.2
90703.7
90245.1
74056.9
73272.5
74698
70242.9
71586
68112.2
69365.3
64807.4
66393.1
62932.1
61052
60346.9
59378.8
90974
90977.4
91085.8
91031.8
90993.9
91085.7
90927.8
80800.2
80265.3
79223.9
81141.9
84964.8
85946.1
84314.5
87418.3
89126.7
90815.6
83109.7
82500
102322
96990.4
98869.4
104161
93029.7
78565.5
75007.9
77489.9
76408.4
75311.1
108721
106380
36849.9
34678.4
32791.7
32160.9
23703.5
22273.6
20515.5
26389.7
25615.6
30240.6
27795.9
24794.7
17771.9
18332.6
16020.1
15678.8
15220.5
19656.9
18298.4
39172.2
40373.4
12072.4
13549.3
13933.3
46745.7
44563
42791.7
40987.5
49093.7
48135.3
57466.7
56383.1
54933.1
54116.3
51944.7
50966.4
87439.3
86446.9
89253.4
88671.2
89579.3
84137.3
83301.3
81575.3
80046.8
78894.6
77537.2
76120.2
91120.7
91216.4
90717.9
90504.8
72928.8
74660.4
70684.7
72033.5
67746.4
68933.6
63913
65581.9
66943.2
62120.2
60721.5
59027.3
91081.6
90956.7
91364.1
91390.5
91126.8
91272.5
91356
80406.3
80168.4
79438.1
78291.9
80824.3
84452.7
86337.7
84917.7
83410.9
87956
89472.2
91245
82792.3
81493.8
101768
96066.6
100060
104680
93260.3
77983.9
74140.6
76760.2
75784
74713.2
109068
106809
36547.3
33962.9
32113.2
31040.9
22716.8
21478
20400.8
25335.9
26535
25047.9
29254.7
28201.4
23749.8
16417
17766.3
14805.1
14794.2
14098.2
18319.7
17573.8
38296.9
39383.9
12571.2
13156
46137.7
45142.7
43463.2
41651.4
39764.3
49148.1
47465
56724.3
58163.4
55687.2
54800.5
53000.7
52038.6
50032
87948.7
86475.1
89379.7
89062.7
90080
84767.8
83163
82328.8
80761.4
79323.2
78074.2
76683
75310.7
91467.5
91710.7
91501
91066.6
73276.2
74002.6
70351.8
71692.7
68197.8
68995.7
64082.9
65629
66487.5
62090.9
61189.3
59651.4
91121.6
90859.8
91148.4
91514
91451.2
91661.7
91275.2
91649.8
79398.8
79257.3
78831
77662.9
79873.4
83253.4
85817.5
84170.2
82861.8
87453.2
88376.3
90138.3
81883.6
80973.6
103132
94404.1
96426.7
99688.3
92017
77022.9
72504.1
73618.4
75938.7
74966.7
73906.5
108624
104705
37305.9
35427.4
34376.5
32622.1
30812.4
30391.7
21591.2
22790.8
19535.8
24357.9
25589.5
23804.3
29352.8
27567.8
15769.6
16592.4
13674.4
13836.4
13244.7
18355.8
16703.5
38493
11646.1
10635.7
11818
46563.7
44777.2
43091.2
41213
39263.8
48099.3
55887.1
57004.5
57876.1
54063.4
53131
51014.9
49994.6
88092
85697.3
86992.5
90099.4
89389.9
90476
84949.8
83870.6
82491.7
80782.9
78987.8
77671.4
76289
75045.5
91912.4
91921.1
92039.3
91512.8
91241.4
72762.5
74260.5
70923
69513.4
72068.4
68173.9
65032.3
63457.7
66676.6
61154.8
62589.1
60638.2
59241.6
91217.5
91023.7
91291.5
91877.9
91653.1
92021.7
91442.9
92098.6
78876.8
78897.8
77994.4
76849.3
79153
79653.1
82657.5
84696.8
86393.8
83112.7
81921.7
88095
88784.3
90694.1
81172.3
80071.3
103104
93890.4
94890
97900.2
101423
92595.8
76511.5
71868.8
72915.8
75328.8
74397.3
73346.3
107409
104803
36714.7
35670.8
33504.5
31923.6
30129.9
20576
21628.5
19585.1
23244.9
24487.3
25690.8
22989.5
28445.2
26584.4
14635.4
16250.4
12684.6
13263.5
12874.2
12145.1
17626.5
15869.2
37439.1
9613
10913.6
45726.9
43828.4
42004.7
40045.8
38044.4
47940
55214.6
56499.7
58325.7
54263.5
52270.2
51158.3
48960.1
88313.3
86125.9
87644.7
90520.7
90336
89196.8
85274
84668.2
82835.4
81255.5
80175
79436.6
76764.4
78043.4
75459
92241
92556
92473.5
92051.8
91833.3
73041.3
73832.3
70830.2
69406.3
71561.7
67587.3
65128.5
63771.8
65955.8
60815.6
62177.3
59753.1
91383.6
91303.3
90973.4
91427
91901.5
92123.5
91639.8
92292.3
77969.6
77929.1
77499.9
76215.3
78502.2
78834.9
81710.6
84277.7
85820.4
82405.2
81176.9
86754.5
87898.2
89877.7
80316.1
79691.9
94250.7
97390.8
101580
91952.3
75679.2
71832.9
72436
74607.7
75218.5
73587.6
72567
108192
106256
103292
34963.1
33865.9
32401.3
30742.9
28904.5
20548.9
21792
18525.9
22457.2
23497.9
24575.6
28174.6
26223.9
13654.7
14592.1
15408.5
11665.3
11932.2
12047.7
11168.9
16550.3
15465.4
37149
8730.78
9303.56
9845.17
45871.4
43340.7
42086.6
39524.4
37642.8
46984
55543.8
56917.6
57885.7
53582.8
52536.4
50279.9
48741.7
88372.7
88143.6
91369.9
90991.6
90455.8
85604.7
84702.8
83124.6
81814
80493.2
78906.5
76259.5
77885
75102.5
92668.9
92922.2
92732
92773.4
92842
92108.8
72473.9
74265.3
70185.4
68689
71666.4
67796.7
64514.8
63341
65902.3
59914.7
61336
62625.2
59365
91400.6
91163.9
91602.4
92137.4
92485.2
91802.5
92623.1
77533.1
77423.3
76730.2
75459.9
76199.8
77749.8
78448.2
81123.8
81175.9
83390.4
84824.3
85930.9
81393.6
82581.4
80266.5
86701.2
87834.4
88609.4
90578.8
78888.4
92633.5
95336.8
98482.2
100283
70782.4
71216.4
74120.6
74444.1
73134
72047.1
107729
106509
103445
35041.3
33214.4
31742.9
30134.9
28405
19501.6
20973.5
18446.4
22593.9
21404.5
23586.6
24947.4
26934.5
12676.1
13613.5
11362.3
10644.7
11334.6
10869.9
10324.3
15738.5
16130.8
14215.6
35908.3
7642
8192.49
9073.39
45176.1
43492
41597.1
38349.3
39801.8
36498.3
46927.8
54930.6
56344.9
58412.7
53920.5
51838.6
50697
49249.1
47663.8
89916.7
87143.4
91853.5
91426.9
90759.8
89678
87277.3
84655.2
83512.6
84041.4
80967
82461.7
79235.2
76600.7
75454
78275.9
93012.4
93594.9
93226.9
93241
93275.3
93248.7
72543.7
74024.5
70273.2
68801.7
71035.5
67175.9
64550.9
63816.4
66414.9
65106.4
59583.5
60983.3
62321.6
91556.1
91403.2
91054.2
91794.6
92041
92456.6
92626.3
92722.6
92964
76643.3
76647.2
76308.4
74762.9
75467.8
77218.3
77587
80256.5
80303.1
83480.6
84323.4
84861.7
80607.2
81769.2
79481.7
85861.6
86639
88017.4
89939.3
78442.7
91726.7
94603.4
97979.9
100729
70231.2
71022.9
73473.8
74069.4
72459.1
71401.6
72061.7
107729
105035
102167
33878.1
32195.9
30658.3
29031.2
27270.7
19148.4
19735.5
17577.2
21630.1
20867.1
22416.9
24505
26529.8
12714
11710.4
13439
10286.5
9797.51
10244.9
9280.25
14682.4
16627.4
14925.8
13906.2
35663.7
7451.55
8123.69
45907.7
44233.1
42436.6
40623.6
37943.8
38752.2
36260.7
55306.7
56624.7
58139.8
53260.8
52233.1
50120.7
48396.2
47471.2
89309.4
88593.8
92239.4
92425.4
92068.6
90643.7
86364.1
86105.3
83771.9
83462.4
80893.8
81004.1
79465.7
76606
74861.6
78247.6
79124.1
93383.5
93644.5
93926.2
93486.5
93643.1
93843.7
73293.7
71832.6
69612.1
68097.7
71136.5
67389
63619.8
66163.5
64941.2
58764.4
60127
61518.3
62840.9
91705.7
91564.7
91239.6
92011.5
92181.4
92619.3
93015.2
93082.9
93284.1
76254.9
76121.7
75562.9
74159.5
74781.7
76361.5
77217.9
79531.7
79625.6
82853.7
84428
79696
80813.7
81965.2
78681.4
85858
84874.7
86347.3
86926.6
88650.7
90379.5
77634.5
91850.6
95189.2
92923.2
99455
96565.5
69857.6
70353
73094
73372.4
72134.3
71073.1
71430.4
108519
106770
105317
102654
33664
31467.1
30108.5
28479.5
26890.6
17923.8
19126.7
21411.5
19851.6
22224.6
23411.8
25396.5
11622.7
11015.9
12295.5
9786.22
8906.46
9707.45
8302.53
14288.4
15915.6
14808.3
12972
34584.6
6305.15
7186.05
45692.9
43900.7
42274.1
40523.4
36995.3
38662.6
35268.6
54679.8
55960.7
57394.9
53645.9
51571.8
50610.2
49114.6
48358.7
46527.2
89312.2
88688.1
93071.6
93068
92750.1
91771.4
90368.9
86148.9
85241.3
82874.2
85465.5
79824.2
81061.4
77083.2
75764.4
75010.8
78300
78987.4
93698.6
94119.5
94196.7
94684.5
93962
94034.4
93385.1
73122.8
71654.7
69850.9
68016.4
70603
66744.7
64183.4
65493.4
58424.3
59810
61221.7
62617.6
91922.3
91640.3
91038.5
91544.8
92074.7
92435.2
92926
93153.9
93239.6
93664
75462.8
75349.5
75032.3
73473.4
74196
75840.5
76495.4
78787
78833.7
82753.4
83317.7
78904.5
80190.1
81394.5
78014
84821.1
84219.6
85342
86188
88372.3
89454.8
77161.2
90524.5
93955.6
92772.3
99272.1
96570.9
69319.2
69894.7
70216.2
72439.6
73030.8
71482.8
70576.4
71177.8
108133
107078
104104
101687
32713.8
30453
31738.6
29046.4
27468.4
25887
17249.9
17996.9
20245.8
19455.7
21279.6
22667.6
23271.3
25132.2
11392.5
10137.9
12125.2
8720.17
8265.41
8213.91
8784.04
7238.38
13106.9
16196.8
14153.7
34424
6311.64
5590.67
44642.7
42964.5
41361.3
39618.2
36520.1
37752.3
35376.5
55062.7
56144.1
57582.9
53024.1
51972.7
49888.6
48936.2
47211.1
46329.3
89412.5
87150.5
93134.9
93214.7
92319.1
91105.9
86080.1
82700.3
82099.5
85448.7
79907.8
80874.1
76099
75681
74187.1
79044.6
77720.2
94049.2
93844.5
94200.1
95183
95254.4
95187.4
94791.2
73607.8
72164.3
70866.3
69509.5
67229
68729.9
66665.5
63990.4
65353.2
58910.4
60363.8
61800.5
63203.5
92022.4
91870.2
91326.9
91733.3
92345
92534.6
93016.6
93541.1
93626.4
93866.8
74975.7
74761
74352.7
73210.6
73520.6
75974.4
75072.7
76474.4
78063.8
78051.7
81827.9
82905.8
78041.8
78829.6
80596.1
79359
77292.9
84594.3
83348.2
85192.1
86347.2
87420.3
89431.5
90512
93994.5
91671
97792.9
100228
95266.4
68901.6
69295
69745.2
72081.3
72407.5
71159.5
70334.5
70576.4
108452
105904
104550
102378
32618.3
29701.7
31053.2
28807.1
26791.8
25777.7
17264.1
17623.9
19787
18352.9
21738.4
20336.4
22220.8
24097.9
10348.2
9339.55
11199.6
8230.75
7311.93
7076.57
8511.61
6147.51
12421
15531
14585.8
13182.4
33398.4
5299.72
4714.08
44495.4
42434.6
41399.7
39756.9
36808
37624.4
34778.8
54580.2
57001.6
55307.9
53582.5
51284.2
50143.8
48094.7
47140
45344.3
89918.7
88032.4
94099.6
94174.9
93226
92298.6
91395.5
86360.1
82430.4
83494.6
81455.9
85163
80489
76623
74799.7
74374
80561.7
79546.4
77704.1
94343
94271.9
94710.7
95466.8
95054.5
95223.9
95471.4
95161
94783
73444
72001.6
70258.5
66802.9
68739.8
65955.4
64609.4
58546.6
60066.1
61548.9
63000.6
92244.6
91919.1
91330.8
91722.7
92414.1
92798.6
93316.7
93789.7
93614.3
94321.5
74195.8
74038.6
74672.4
73871.6
72425.5
73049.8
75286.8
74757.7
75938.2
77405
77358
81451.1
81967.5
77339.7
77908.5
80100.2
78871
76674.3
83656.6
82715.1
84333.7
85418.2
87469.7
88405.7
89447.7
92746.1
91584.4
97930.8
99356.4
95290.6
68853.3
69289.2
69811.5
71460.9
72067.3
70505.6
70225.5
109145
107662
106415
103762
101568
31635.9
29485
30069.6
28046.7
27069
24903.2
16090.1
16530.9
18581.2
17953.5
21435.3
19629.9
22082.7
23967.5
9372.4
10342.2
10862.4
7266.19
6540.58
6295.97
7767.89
5210.18
12511.8
11319.2
13827.3
12901.6
33058.4
4436.69
4234.89
3988.46
43616.6
42681.6
40731.5
39171.4
36036.3
36515.5
38235.4
35150.4
33726.2
57460.6
54974.4
53204
51498.4
49460.1
47869.9
46261.3
45022.4
90638
88902.5
87510.7
94718.7
93893.9
92956.5
92254.4
86759.7
83032.6
84178.3
81668.9
85732.5
75750.6
74977.3
73595.6
79490
78416.1
76499.5
94741
94525
95060.1
96026.2
95898.2
95916.9
95979.6
95821.6
95222.7
72440.9
70916.5
70233
65951.7
67043.2
69500.6
67928.8
64463.4
59149
60669.7
62167.8
63648.5
92336.6
92146.4
91115.5
91706.1
91948.8
92688.1
92888.1
93217.5
94151.2
93969.1
94442.3
73797
73488.8
73867.2
73262.2
72139.3
72457.6
75277.6
74093.8
75999.6
76743.4
76518.1
80527.1
81809.6
77311.3
76657
77964.4
79203.4
82803.1
83535.3
84045.9
84441.9
85647.5
86597.4
88021
89507.4
88338.7
92786.1
90491.9
96755.2
99989
94060.2
68382.3
68809.6
69471.3
71133
71412.4
70246.9
69635.6
108510
108112
105733
104499
101770
31259.1
28388.9
29682.7
26343.8
24744.1
15736.5
16193.1
18070.2
16876
20263.6
18558.2
21231.4
23005.6
8366.78
9379.88
9731.81
7082.2
6489.69
5724.41
5368.15
7271.85
4565.07
11365.2
10691.7
13795.8
11947.8
31879.9
3777.97
3516.34
3544.29
43933.3
41718.1
40767.6
39824.3
36272.1
37748.4
34440.2
33493.1
57106.8
53873
55382.2
52299.7
50777.7
48424.6
49884.6
46679.6
45355.2
90728.4
89121.7
87948.1
95483.3
94702.4
93905.9
92950.5
92373.6
86368.2
81770.1
83468.9
84681.8
81252.9
75264.5
74563.7
74124.3
80056.7
77145.8
78414.8
76348
95214.2
95047.8
95779.9
96408.7
96120.3
96367.1
96474
96383.9
95852.9
96018.2
72779.3
71141.8
65219.1
66474.2
69610.9
68030.2
58850.5
60408.8
61921.3
63451.4
92632.2
92192.8
91196.9
91714.4
91944.5
93378
94344.3
94006.2
94309.3
94847.6
72969.1
72792.3
73600.7
72764.5
71544.1
72044.7
74706
73832.6
75426.4
76138.3
76248.4
80045.4
81045.4
76518.6
76176.2
77410.8
78662
81977.6
82722.3
82985.7
83671
84893.9
86866.3
88565.6
87513
91621.5
90204
96646.2
99609.5
94073
67977
68174.4
68310.4
68917.9
70579.8
71019.9
69692.7
69224
109201
107700
106473
104060
102793
100739
30292.1
27871.9
28792.7
26833.3
25365.1
23714.3
14669.5
15192.7
17049.2
16490
19858
17795.5
20400
21165.7
22922.8
8546.6
7443.58
9139.7
6111.72
5693.52
4910.24
4546.81
6310.37
3965.56
4260.03
11077.6
9730.68
12769.9
11851.9
31317
2300.93
3077.5
43608.1
41776.2
39470.8
35574.7
36876.2
38322.4
34256.1
32766.5
57913.2
56213.8
53418.6
54709
52093.4
51202.6
47907.8
49265.9
46339.7
44494.1
90088.3
91770.3
88707.3
87462.9
96078.5
95567
94801.4
93564.9
93241.8
86511.1
82395.5
80943.6
83289.4
84919.4
75391.4
74515.9
72708.3
80566.6
76961.2
79262.7
77896.2
76257.4
95565.4
95401.5
96234.5
97101.1
96726.3
97005.7
97066.8
96968.7
96731.3
96758.9
71776.2
70358.2
65052.5
66723.6
65606.9
68684
67362.6
59516.4
61056.6
62569.4
64103.1
92746.7
92480.1
91437.3
91905.6
92211.1
93744.5
93265.8
94763.2
94384.3
94713.5
95284.8
72505.3
72344.4
72899.4
72125.6
71521.2
71098.1
74096.2
74800.3
73146.3
75477.2
75474.2
80256.6
79088.6
81123.9
76188.9
75524.2
77783.3
76596.4
82018
82459.7
82769.5
83886
85185.9
86200.6
88498.8
87676.4
86512.6
91855.5
90534.9
89145.3
95202.4
97503.3
98653.6
93028.4
67582.9
67663.1
67857
68554.1
70266.5
70420.8
69251.9
69710
68702
108582
106187
104986
102998
100388
29709.7
28089.8
28754.7
26535.4
24716.7
23711.9
14466.2
14897.6
16632.6
15513.7
18847
16892.7
17952.2
19780.4
20193.8
21916.6
7748.6
6493.7
8004.46
5584.55
5005.76
3993.6
3678.56
5542.85
3498.38
3472.04
10175.6
9268.34
12709
10910
31776.4
30090.6
2441.22
3159.72
2624.5
42721.1
40922.6
39989.9
36194.5
34752.4
37951.4
33168.9
57664.9
56124
53840.7
52534.9
55215.1
51079.1
47008.5
48335.3
49525
45478
44297.3
90240.6
91945.8
89377.3
87709.1
96857.3
95672.4
94540.9
93907.1
85865.8
81960.6
80847.4
83531.1
84405.2
75149.1
74375.1
72750.8
77211.5
79766.9
78336.6
75939.1
95966.3
95782.8
96457.7
97268.9
97309.3
97386.9
97055.8
97146.4
97317.8
97175.3
71622.5
70087.1
65863.4
65261.1
69033
67519.1
59253.1
60826.2
62341.4
63923.2
93016.7
92508.7
91404
91798.7
92204.7
93823
93544.3
94958.8
94764.3
94410.2
95632.9
71872.7
71598
72402.3
72712.3
71593.1
71008
70591.8
73562.2
74217.1
72994.7
74844.7
74912.9
79453.3
78742.8
80513.4
75412.1
76234.5
75011.2
77310.9
76131.9
81293.6
81540.9
82013.7
83212
84525
87613.1
86960.7
85837.2
91053.4
89514.8
88751.3
95517.3
96799.7
99150.8
92714
67183
67341.1
67833.2
67397.3
68099.4
70037.6
68712.5
69359.6
68293.7
108394
107106
104298
102201
100971
27276.8
27832.3
25818.9
24956.3
22952.8
13531.1
14041.1
15738.2
15153.3
18939.8
15942.7
17093.2
19619.1
21925.5
7416.7
6801.57
5715.52
7683.44
5013.39
4411.74
3386.08
3313.35
4695.14
2883.1
9489.04
9785.4
8246.98
11819.6
11016.5
10016.7
31119
29489.8
2366.43
2691.58
2415.04
42583.5
41023.9
39532.5
36103.9
34075.1
36969.2
38662.8
32703.4
58338.4
56765.3
53181.7
51961.9
55010.9
50378.2
46620.5
47806.6
48727.2
44704.2
45716.9
43275.2
91042.6
92879.7
89325.2
88530.5
86969.3
97453.3
96542.1
94875
93840
86070.8
82362.6
81102.9
83146
84592.4
74765.4
73272.7
74508.7
71939.1
76580.6
80420.8
79009.6
77870
76109.7
96473.6
96265.5
97839.5
97908.5
97982.1
97396.2
97872.4
97967.8
98011.3
69908.7
65967.1
64473.8
68047.2
69623.3
66611.9
59926
61458.4
62965.2
93083.6
92829.1
91174.1
91973.1
92489.2
94104.6
93431.8
95420.8
95169.8
94719.3
96049
71534.6
71414.3
71256.9
71754.4
72063.1
70988.7
70562.9
70143.3
73578.3
74173
72388.6
74677.8
74224.7
79266.9
77967.5
80648.9
79760.5
75461.8
74938.6
74272.1
76482.2
77395.1
75336.6
80989.7
81749.9
81212.9
82194.3
83566
84866
86959.9
87803.2
86122.5
91566.7
89969.7
89230
94909.8
97306.5
98513.8
92949.2
66832.1
66338.6
66916.5
67360.7
67018.8
67835.2
69537.5
68595.8
68282.2
68880.2
67894.9
109057
106804
104612
102634
100247
27063.9
27632.3
26106.2
24158.9
23149.1
13393.1
13668.4
14174
18274.3
15633.7
16230.8
17353.2
18520.1
20030
21132
6678.64
6150.44
5045.36
6668.49
4531.37
3847.03
2514.54
2863.14
4071.47
2584.91
8615.79
8819.03
7971.84
11801.5
10206.7
9168.05
30061.9
31663.6
28413.2
2376.83
2301.37
2300.08
2300.01
41714.5
40209.4
35163
34297.8
33103.1
36786.3
38448.6
57999.1
56584.8
53376.7
52184.5
54204.8
55744.1
50521.8
46994
47950.2
48858.3
43831.7
45348.1
43068.4
90990.4
92877.1
90118.5
88805.4
87259.1
97317.1
98264.6
96929.7
95640
94845.1
85376.2
82048.3
83821.6
75666.9
72572.1
73878.9
71588.6
76570.5
80582
79249.9
77058.2
78128.5
96940.1
96688
98273.4
98316.8
98459.9
98431.7
97979.9
97219.7
98094.7
98346.2
98518.4
70778
64981.9
64394
68053.6
69471.2
66827.4
59738.4
61285.7
62802.9
92832.7
91427.6
91824.2
92311.4
92541.2
94217.2
93620
95723.6
95069.4
95608.7
94605.3
96418.6
70942.3
70858.1
70721.9
71613.3
71881.5
70528.2
69997.4
69752.3
72938.7
73619.4
72307.9
73922.6
73680.3
78349.6
77757.6
80054.8
79495.3
75042.2
74252.7
73811.2
76190
76727.1
74827
80075.4
80872.4
80611.3
81728.8
83064.9
84320.5
86151.7
87224.8
85596
91150
89544.2
88016.5
93766.3
95503.2
96590.6
99032.4
91926.1
66442.1
66597.6
67409.4
67013.5
66648.2
69239.9
68107.5
67791
68604.6
67498.6
108810
105630
107851
103712
101894
100704
26573.7
25485.1
24396
22399.3
12538.4
12752.1
13492.9
14708.3
15497.3
16640.1
17746.2
19395.2
21416.1
6253.06
5444.16
5043.52
4336.76
6692.23
6058.07
3803.73
3495.11
2641.34
2300.09
2671.42
3383.97
2319.67
8073.37
7339.1
11072.6
9349.3
10342.6
8357.93
29467.7
31414.3
27961.1
2300.31
2299.8
2300
41654.3
40125.4
35140.2
33562.5
32355.5
35884.2
37549
39239.6
57157.4
58330
52670.9
51452.7
54188.6
55649.9
49788.8
46597.5
47152.9
48259.3
43863
44534.1
45861.5
42326.8
91880.1
93730.8
89804.2
88228.9
86686.9
98112
98979.1
96594
97964
95670.2
94762.6
85716.8
82587.7
81257
83542.9
75561.1
72869.7
71823.7
74187.7
75433.4
79855.5
78701
76874.7
77378.9
96799.3
97123.8
98719.8
99042.8
99037.4
99222.6
97898.7
97480.7
98708.8
99239.4
99388.1
70348
64932.6
63299.8
68407.4
67314.4
65761.6
58998.1
60382.7
61819.5
93098.9
91250.4
92098.7
92391.5
92903.9
94027.7
93447.9
96200
95332
95908
94831.4
96811.4
70555.3
70358.2
70570.7
70212.5
70968.7
71299.8
70013.3
69748.1
69344
73005.2
73526.6
71649.7
73007.7
78246.5
76915.6
79774.6
78890.3
74234.1
73913
73235.6
75563.5
76457.7
74957
74144.5
79480.2
80280.3
79807.9
82259.7
80814.9
83066.5
83468.1
84781.1
85785.8
86217.5
87250.5
90210.7
88551.9
87805.6
97201.8
98413.6
66143.3
65700.7
66214.2
67193.1
66621.5
66343.8
68799.6
67945.7
67753.2
67420.7
68151.7
109363
105436
107406
104318
101942
100089
26452.1
25667.4
23614.6
22628.2
12226.4
13823.8
12535
14693.2
15675.2
16796
17734.2
18451.9
19812.8
20701.8
5303.2
5024.64
4123.72
3675.85
5644.32
5291.17
3365.93
2879.11
2357.9
2315.12
2408.92
2976.47
7137.39
6863.72
10855.5
8457.17
9517.79
7767.64
28440.4
29758.1
30617.3
27048.6
2300.15
2300.1
2300
40886.2
34293.3
33610.6
32600.6
35753.6
37361.7
39035.4
57003.9
57653.1
51755.5
52811.4
53492.3
54887.4
56321.4
49654
46840.6
47367.7
48717.9
42798.8
44598.5
45454.7
42108.4
86879.1
98951.3
99712.7
97295.4
98714.8
96731.9
85419.7
82212.4
81003.4
83960.4
74740.4
72487.2
71322.2
73531.7
76208
79743.4
79099.5
77601.4
97504.9
97707.4
99343.9
99192.9
99466.4
99463.3
99610
98475.8
98775.2
99744.6
70570.9
64137.2
63191.7
68310.7
67345.6
65993.1
58971.8
60227.7
61462.5
91446.9
92115.2
92680.5
92977.7
94256.9
93670.7
96575.4
95222.1
95749.2
96360.4
94677.4
97205
70067.4
70070.2
69950.5
70042.7
69781.5
70839.8
71020.9
69721.8
69133.8
68923.8
72603.4
72946.5
71537.3