/*--------------------------------*- C++ -*----------------------------------*\
| =========                 |                                                 |
| \\      /  F ield         | OpenFOAM: The Open Source CFD Toolbox           |
|  \\    /   O peration     | Version:  v2012                                 |
|   \\  /    A nd           | Website:  www.openfoam.com                      |
|    \\/     M anipulation  |                                                 |
\*---------------------------------------------------------------------------*/
FoamFile
{
    version     2.0;
    format      ascii;
    class       volScalarField;
    location    "1";
    object      p_rgh;
}
// * * * * * * * * * * * * * * * * * * * * * * * * * * * * * * * * * * * * * //

dimensions      [1 -1 -2 0 0 0 0];


internalField   nonuniform List<scalar> 
13611
(
94725.7
91015.6
96734.8
88897.1
85280.1
78564.3
90822.9
95999.1
70340.2
82974.5
76822.5
93668.1
86799.1
97841.6
70086
83570.6
73520.1
80055.6
93337.4
87045.4
96120.4
65986.7
67087.7
70890.9
73139
78843.5
90648.3
84653.4
97519.5
63719.9
66291.8
68309.4
70327.4
75213.2
81054.1
90264.6
86585
96555.2
62119.8
63899
68234.4
70489.6
73522.5
79070
91701.9
86257
98540.7
94292.1
62139.2
59980.9
63596.7
65870.5
68923.6
73642.9
75616.9
80496.6
89221.6
83696.6
97073.8
94757.7
59584.9
58457.5
61624.6
65402.5
55935.3
69172.4
66742.1
70896.7
74496.6
78041.7
89745.8
84380.5
97968.1
92767.9
58482.6
56614.8
61607
59510.2
63092.6
67200.6
65787.9
70362.9
75391.2
71924.5
78736.1
87466.1
81881.9
96524.2
93687
55724.8
55099.3
59676.4
58335.3
62605.9
53284.5
66611.1
63945.7
68074.7
73607.3
71559.5
76769.9
88393.6
81847.4
96357.8
91458.6
54471.8
54712.6
59193.5
56330.8
60666.6
51694
49987.6
64432.7
63153.9
67405.8
73042.7
69829.1
74226.7
77179.1
86910.4
84087.8
79183.2
97776.1
94313.5
92105
52155.4
52443.8
57395
55861
61001.2
48297.3
63961.5
65444.9
68151
70583
73389.4
75143.8
88546.1
83749.7
78640
97171.3
93851
90709.8
50610.9
51821
50668.4
56517.1
54171.6
59984.1
48454.2
46473.8
62191.5
65212
66744.8
69411.4
71735.5
74849.2
88059.5
86057.3
81725.6
76333.8
79656
98452.9
95369
91770.1
52622
49869.7
48569.8
56747.8
54517.2
60646.3
58080.9
46641.3
44762
62343.5
63857.7
66193.1
70088.5
67143
71437.1
72792
90260.4
85662.5
81594.6
75861.7
78413
97911
94559.4
51072.9
48442.1
49522.2
46712.6
54997.4
53338.6
59114
57662.3
44741.7
43049.5
60955.7
64268
68804.1
66124.8
69710.2
72846.7
90632.5
87224.9
83239.2
79527.4
76844.6
74335.4
96263.3
98898.7
92551.9
51462.6
46776.6
47905
44806
54807.3
53580.9
59257.6
56134.7
42994.8
41241.1
61220.8
63023.4
67111.7
64335.7
68810.2
71753.4
89252.9
86327.6
82842.5
78821.2
75753.9
74242.5
95625.9
98114.1
92449.6
50650.8
46603.3
45025.5
47282.1
42944.5
53264.8
52051.2
57920.2
55723.3
41134.9
59985.6
63105.1
66117.3
63581.6
69238.9
66894.9
70455.6
72925.1
90645
86932.8
84294.8
81144.3
79624.7
76917.1
75696
96743.1
93808.4
98666.2
49140.2
44913.2
43799.8
45428.4
47767.4
41039.1
51925.2
53024.1
58412
56428.8
54134.6
39650.9
60081.6
61386.2
64357.6
61782.3
67954.7
65893
69879.3
72784.4
90373.3
88613.1
85417.5
83900.1
81131.4
78671.9
76431.3
74092
95584.2
93785.6
98083.6
49026.5
44384.8
42134.6
44856.9
46141.3
40763.2
39555.1
50423.2
51579.8
57527.8
55242.5
53922.3
37994.7
37161.5
58595.5
63520.6
60895.3
68428.3
66531
64278.8
70340.5
71551.2
92287.8
88512.9
85286.9
82414
79662.3
77331.1
74907.2
73811.4
96393.6
98216.1
47628.5
42577.3
41420.7
43444
46170.6
39029.1
38008
50321.6
51429.3
56199.6
55221.6
52664
37063.8
35191.5
57969.4
61878.4
59537
67665.5
65626.9
63453.5
69513.9
71444.8
92009.3
86786.3
90001.4
83660.9
82263.5
79405.2
76447.7
74873.1
72394.9
95734.9
98928.6
97119
47593.2
42193.9
39848
42771.8
44805
37445.2
38870
37046.1
48875.5
50115.7
55412.8
53853.7
52678
35505.4
34448
56104.1
58511.2
61324
58788.5
68298.3
66302.1
64169.6
62123.1
70206
93060.6
86383.6
90054.6
83461
80768.7
78119.6
76789.2
73877.6
71900.6
94539.1
98951.8
97159.4
46319.4
40763.2
38985.9
43285.4
41088.8
45024.6
36307
37336.8
35249.8
48853.6
50105.5
53956.2
51403.2
32779.7
55310.7
57665.6
60002.6
58899.9
67657
65642.4
63515.5
61404.5
69694
92519
87468.5
84689.8
91380.1
88964
82042.5
80743.4
77819.1
75845.9
73848.8
72527.3
70429.4
94721.5
98281.3
99734
95831.9
88260.1
96964.5
46162.3
39348.8
37283.9
42092.6
40072.4
43915.2
34861.8
33818.2
47379
48847
52822.7
51428.4
31601.5
32019.2
56370.1
53871
60110.4
57694.4
68362.6
66363.6
64317.2
62237.4
61439.4
93604.8
86888.7
84409.4
91092.6
89790.6
81872.8
79560.2
76483.8
78332.1
74631.5
72594.1
71835.5
69838.5
98463.1
99395.4
95667.3
90525.1
87461.5
83960.2
95335.1
97983.8
44655.4
38003.9
36103.5
40554.1
42507.2
38417.8
33713
34046.1
32371.5
47402.2
48909.6
52821.1
50192.6
30469.7
56387.8
53189.5
59456.5
57504.2
67692.4
65844.5
63828.6
61743.1
60229.4
93453.4
87800.8
85479.6
83006.2
92136.3
89223.2
80717.2
79727
75969.3
77466.5
74154.1
72203.2
70620.2
68440.5
97711.1
99712.4
96501
94479.2
91770.5
85542.5
88794.7
84297.3
94220.4
97132.7
44007.3
36434.7
34533.8
39352.1
41371.7
37509.3
32055.6
32285.9
30786.6
46172.4
47797.4
51422.8
50195.2
29750.5
29731
55464.1
51659.2
53265.2
58302.6
56216.9
66453.6
64634.4
62541.1
60602.4
59903.6
87525
85156
82940.6
91924
89646.1
80331.9
78815.5
76408.2
74852.4
77787.7
72980.2
71017.3
70184.8
67995.8
98370.8
99353.3
96279.5
94479
90819.2
85015.9
87692.7
81955.7
82874.3
80135.2
95558.9
98112.2
44723.8
42551.4
35251.2
33322.7
37970.9
39751.7
41543.9
36107.8
30597.1
31364.4
46529.3
47711.8
48823.7
27634.7
28331.6
28424.2
54176.8
50918.4
51808.4
57920.4
55832.1
65589.2
64404.1
62281.1
59837.2
58769.9
88663.4
86608
85688.9
83971.4
81884.6
92754.9
90711.4
80742.4
79134.5
75556.4
74555.6
76983.8
72603.8
70655.5
68963.7
66692.6
97939.6
99307.6
95392.6
97023.1
93716.9
92076.4
85805.6
83422.1
88138.8
80861.6
82500.6
79078.4
94433.5
97158.2
43671
41912.7
33745.3
35220.4
31905.1
36798.9
38645.6
40445.3
35659.8
28981.2
29849.4
45654.4
46397
48716.9
27750.1
27409.2
53655.2
49738.6
51336.5
56734.7
54576.5
65592.2
63357.6
61239.2
58637.2
60088.9
88567.6
86523.1
85004.2
84054.8
82162
92259.3
91108.6
79864.6
78434.5
75789.6
73501.3
77310.4
71463.3
69506
68649.9
66624.9
98576
99729.9
95217.8
96860.5
94340.4
91883.9
84686.6
83245.8
86379.2
90147.6
80479.6
81215.3
78710.9
95507.3
98041.4
44270.4
42291.4
40735.4
32861.9
33737
30699.4
36525.9
39217
37270.8
34349.8
27476.6
28761
29417.8
45761.9
47527.2
25617.2
26289
25939.9
52262.9
49219.8
49934.2
56487.3
54232.2
64258
63199.5
61100
57551.6
59247.2
89420.8
87350.8
85478.8
83278.2
81392.4
92777.5
90567.5
78716.1
80242
75021
73132.9
76566.6
71115.1
69170.2
67599.5
65799.3
98424.2
99595.7
95952.4
97556.7
93898.5
94046.8
84774.5
82148.7
85964.1
90428.4
79380.7
80628.5
76936.5
77690.1
97558.6
43608.6
41191.6
39830.9
31574.7
33316.7
30602
35074.1
38710.5
36187.7
34028.4
25942
27100.4
28109.9
46291.6
44361.8
47931.6
24251.1
24673.1
51953.9
49276.1
55253.7
53003.1
63972.1
61971.8
59930.1
57381.4
58183.6
89149.3
87245.6
84896.5
83645.5
81438.1
92272.1
91246.6
77902.5
79743.6
75478.6
73826.8
71883.2
76872.6
69963.9
67988.2
67290.6
66272.6
64755.5
99069.9
100083
96058
97479.1
94247.2
94369.5
83352.2
80976.5
82147.4
86747.7
84279.5
92449.5
88687.5
78924.2
79428.1
76012.9
77371.7
98737.7
96197.9
42285.6
41235.6
39890.6
30890.4
31779.4
29088.8
34848.2
37677.8
36417
32678.9
25856
24611.5
26871.5
27885.8
45329.2
43508.8
47146.3
23197.9
23343.7
50850.5
49756.4
47759.7
55177.8
52607.6
62556.3
61616.7
59474.1
56243.5
57563.9
89825.1
88156.6
86293.9
85266.7
82980.5
81989.9
80504.1
92888.7
90818.3
77866.1
79027.3
74803.6
73314.9
71441.9
76198.1
69563.7
67741.1
65560
64454.1
98838.1
99931.6
96861
95638
98076
94994.1
93741.8
83274.6
80029.3
81045
85477.6
83637.8
92850.9
88802.8
77924.6
78775.1
75916.3
76538.8
97978.9
96448
42199.3
39823.2
38698.6
29325.1
31452.9
33554.5
37609.2
35485.6
32414.4
24227.4
23367.5
25420.1
26536.6
45780.3
43932.2
21786.2
21968.7
50763.1
48949.9
47182
54233.8
53157.9
51438.4
62330.3
60280.6
58160.4
56408.7
89592.5
88088.3
86476.1
84465.6
83410
81455.7
80528.6
92707.4
91132.7
78329.8
76754
78793.8
75222
73822.2
72179.8
70263.2
68517
66790.1
65766.6
63451.5
99392.2
100341
96849.8
96221.5
97996.7
94942.3
94282.7
82139.8
80111.6
79025.8
80695.7
84013.9
85855.1
82384
91755.5
94935.9
90063.9
87243.4
77504.1
77853.6
74375.6
75199.2
76203.6
98632.7
41038.3
39722.3
38636.4
28299.6
30105.3
33189.6
36376.8
34151.4
31201.3
24030.8
23116.8
22063.2
25327
26010.3
44841
43189.2
20635.3
20682.7
49643.4
47903
45977.4
54416.3
52500.8
50878.3
61180.3
59739.8
57670.9
55526.1
88836.7
90382.3
87325.5
85827.8
84886.6
82679.1
81657.3
79926.8
93353.1
91923
78029.7
76527.7
79065.9
74552
73197.7
72118.2
69716.3
68057.1
66994.6
64996.9
63318.7
99181.4
100133
97414.4
96127.5
98513.9
95485.3
94075.2
81088.7
79208.6
78210.3
79483.5
83010.8
85007.8
81525.3
92327.5
95289.2
89540.8
87057.4
76613.1
77148.4
74436.8
75375.8
97901.2
41064.1
38480.9
37219.4
28723.2
26634.5
30138.3
31577.7
36066.2
33579.7
30746.5
22636.2
21704.9
21036.2
24014.6
24377.2
43647.9
44968
42057.2
19481.8
19322.8
49665.7
47135
45903.2
53313.6
51382.5
61214.1
60114.7
58441.5
56449.9
55485.9
88502.4
90504.7
87535.5
86028.5
84543.8
82899.5
80860.4
80031.8
93367.7
92024.3
77340.3
75665.9
78637.5
73488.4
74786.9
71443.6
68525.3
69919.4
66234.3
65274.1
64041.9
62213.1
99647.9
100502
97277.7
96628.6
98577.5
95530.2
94443.8
80227
78319.1
77260.7
78940.9
83034.7
81761.3
83891
85762.9
80424.5
93738.4
90900.3
96630
88094.4
76351.5
73769.3
74826.9
98578.5
40013.5
38138.1
37203.8
27497.5
25658.5
29036.7
31092.8
34623.2
32131.7
29391.7
22725.4
21275.1
20916.4
19805.7
23463.6
42674.4
43706.7
41752.3
17438.5
18388.4
19025
18197.8
48860.9
47523.2
44843
53220
50657.1
60247.4
58972.4
58015.4
56212.7
54328.8
88936.7
89889.7
91385.6
86897.7
85355.5
83802.6
82213.8
80809.2
79267.9
94033.5
92817.1
77189.4
75702.3
77844
72832.4
74007.1
71871
70532.5
68160.9
68975.3
66295.6
64497.7
63746.4
62174.6
99507.2
100229
97666.7
96551.6
99054.8
98215.6
95069.3
96071.1
79291.7
77485.5
76535.2
77989.2
81852.2
80987.1
83535.7
85323.2
79624.9
94227.3
90901.6
95988.8
87451.6
75645.1
72702.2
73975.3
72984
74952.4
98064.9
40655.3
38820.3
36733
36173.1
27813.2
26119
24114.9
29610.8
34105.9
31604.5
28589.7
21570.9
20063.5
19401.3
18964.4
21980.9
42620.5
43652.9
16213.4
17485.9
17021.3
49327.7
46735.4
44663.6
52152.7
51014.4
60431.8
59078.2
56999.1
55194.5
54273.7
88614.4
90356.2
91521.3
86984.4
85364
83818.6
82383.3
81386.5
79803.2
79100.3
94343
92776
76388.4
75045.8
77592.7
73115.3
74248.6
71299
70087.8
67209.2
69134.3
65218
64368.8
62960.6
61346
99865.1
100388
97450.5
96977.9
99164.7
98446.9
95304.9
96231.8
78497.7
77422.5
76658.4
75682.8
77687.3
81066.6
81852.5
80051.8
82612.5
84205.2
85960.8
79547.2
78638.2
93490
89566.8
92146.9
96714.1
88114.2
75368.4
73387.2
72441
74286.2
98334.6
40313.6
38062.1
36066.8
34895.8
26748.7
25147.2
23401.1
29336.2
28631.5
32530.4
30278.1
27179.3
20289.6
21323.2
18708.9
18402.6
17497.2
21108.2
41363.3
42513
15979.1
16623.7
48556.2
47326.2
45481.2
43417.6
52265.3
50121.1
59609.4
58304
56364.4
55155.2
53262.6
89267.5
87763.7
91044.8
89914.7
92119.6
86114.9
84613
83098.1
81740.9
81162.9
79822.2
78215.2
94973
94265.8
93244.5
76168.5
75341.6
76702.4
72436.6
73655.5
70422.3
71555.6
67072.5
68653.3
65130.4
63357
62706.5
61691.8
99635.2
100207
97785.4
96766.7
98900.2
98236
95897.9
76492.9
75996
75102.6
76829.7
80179.3
81081.6
79606.1
82338.5
83774.2
85225
78555.1
78015.7
94319.3
90268.2
91717.5
95726.8
87102.8
74503.1
71413.6
73580.1
72647.8
71703.4
99093.6
97506.9
38940.9
36697.2
34758.1
34137.4
25460.4
23980.7
22134.7
28149.7
27397.8
32143.4
29587
26556.7
19314.9
19890.2
17476
17154.5
16686.8
21233.6
19817.2
41309.2
42484.7
13404.1
14960.5
15352.7
48994
46709.3
44895
43034.9
51352.5
50372.1
59670
58667.6
57236.6
56424
54220.8
53235.4
89050
88037.6
91499.3
90386.2
92025.5
85625
84765.2
82992.1
81523
80570.6
79099.4
77871.3
95171.5
94830.1
93864.6
93014.2
74859.1
76490.6
72739.5
73966.4
69902.4
71009.8
66073.1
67792.3
69080.9
64230.6
62915.5
61244.8
99816.8
100171
97813.3
97037.8
99054.9
98447.1
96038.3
76198.2
75951.5
75305.8
74330.3
76602.8
79805.4
81457.3
80234.2
78868.2
82823
84124.5
85655.1
78327.4
77186.6
93972.3
89622.4
92697.1
96182.9
87372.5
74047.2
70700.8
73005.6
72160.2
71241.4
99440.6
97940.9
38568.7
35895.9
33999.8
32954.3
24392.8
23117.1
21987.2
27046.7
28263.7
26772.1
31086.6
29981.9
25441.1
17877.7
19271.4
16194.3
16202.6
15491.5
19802.4
19027.6
40354.6
41408.2
13923
14514.3
48301.5
47260.9
45546.7
43684.7
41749.2
51333.2
49611.9
58847.3
60337.5
57883.5
56998.9
55200.6
54230.6
52216.6
89245.1
87772
91208.6
90380.5
92368.9
86022.6
84397
83557.7
82083.7
80781.6
79410.7
78259.5
77018.9
95666.7
95011.6
94197.5
93309.5
75050.3
75736.6
72256.2
73505.9
70265.1
70935.5
66113.3
67697.1
68515.2
64083.6
63311.6
61804.5
99468.3
100409
99875.3
97536.7
98223.5
96860.2
98816.2
96448.2
75371.6
75203.6
74825.9
73835.6
75825.5
78820.7
81078.5
79673.8
78456.4
82474.9
83282.1
84848.8
77592.5
76790
95043.8
88318.6
90006.7
92518.5
86453
73251.9
69365.3
70307.3
72320.7
71481.7
70576.8
99309.2
96276.6
39323.2
37369
36280.2
34491
32634
32230
23211.4
24439.1
21058.2
25991.2
27243.2
25466.8
31146.3
29279
17172.7
18025.1
14987
15195.7
14592.7
19817
18106.9
40494.9
12927.5
11860.7
13097.8
48678.9
46809.6
45096.9
43155.5
41176
50214.6
58005.6
59054
59950
56179.5
55244.4
53110.1
52089.3
89044
86897.2
87965
91649.6
90315.1
92285.8
85892.1
84778.8
83426.1
81871.6
80284.2
78833.4
77671.9
76594.1
95817
94720.2
95482.7
93795.4
93028
74407
75824.7
72722.4
71370.2
73749.3
70104.7
67025.4
65390.7
68566.9
63101.9
64510.9
62653.5
61292.5
99571.5
100329
99868.9
97752.1
98368.7
97135.2
98994.2
96547.2
74913.5
74983.6
74134.6
73159
75219.2
75675.9
78370.8
80160.9
81610.2
78798.5
77668.3
83118.2
83748.7
85391.4
76989.2
76044.2
95079.3
88013.4
88870.4
91207.3
93884.1
87006.3
72852.5
68858.1
69731.2
71838.1
71038.5
70148.4
98140.8
96414.3
38651
37564.8
35322.5
33716.3
31877
22121.5
23190.6
21085.5
24827.8
26094.8
27310.7
24588.3
30173.2
28233.7
15963.9
17646.4
13951.1
14534.4
14168.2
13417.4
19027
17216
39365.8
10768.6
12126.8
47757.2
45811.3
43939.5
41929.8
39898.2
49984.1
57249.9
58466.1
60340.8
56294.3
54290.2
53167.8
50984.3
88912.5
86936.4
88333.6
91652.8
91197.3
89747.6
85971.7
85463.8
83570.2
82144.2
81191.5
80540.8
77958.5
78996.2
76857
96278.9
95056.2
95642.2
93907.2
93371.8
74517.8
75268.7
72496.7
71098.3
73154.2
69426.4
66997.2
65601.7
67762.1
62662.4
63979.9
61738
99329.4
100124
100525
99507.7
98145.5
97537.4
98767.9
96937.3
74164.8
74178
73749.8
72654.4
74699.4
75000.8
77587.7
79864.5
81189.4
78260.8
77074.7
82052.3
83100.5
84832
76303.6
75761.7
88487.4
90958.4
94096.8
86586.3
72173.8
68864.2
69369.3
71237.4
71778.7
70373.9
69505.5
98610.9
97474.4
95362.5
36790.6
35655.3
34172.5
32478.8
30586.3
22063.9
23333.2
19954.9
23979.3
25032.3
26111.2
29850.9
27816.7
14932.4
15893.6
16747.9
12866.9
13124.6
13300
12385
17885.9
16775.2
39009.5
9838.42
10428.2
10993.6
47848
45255.3
43969.4
41335.1
39422.4
48969.9
57500.4
58805.4
59797.9
55529.3
54474.7
52193
50691
88652
88492.1
92227.3
91393.7
90603
86031.1
85169.3
83601.3
82492.4
81306.8
79841.6
77292
78675.8
76365.4
96358
94910.9
95459.2
96054.5
94532.2
93179
73856
75550.8
71792.2
70304.6
73128.1
69477.8
66317.7
65075.1
67580
61728.4
63109.4
64343.3
61248.4
100006
100431
99457.5
98367.4
97690.6
98877.4
97110.5
73827.4
73779.7
73116.5
72016.2
72664.4
74074.1
74703.9
77070.1
77187.3
79149.3
80360.5
81346.2
77410.9
78460.4
76297.1
82086.9
83133.9
83825.1
85495.3
75098
87236.3
89433.5
91868.4
93203
67989.7
68372.6
70856.3
71145.4
70025.4
69100
98476.3
97743
95543.3
36820.2
34931.2
33442.2
31802
30021.5
20946.9
22447.7
19850.9
24093.3
22875.5
25082.9
26469.9
28537.7
13884.4
14848
12531.6
11797.6
12479.4
12045.9
11476.3
17042.4
17419
15452.6
37696.1
8677.14
9244.75
10163.6
47073
45357.6
43416.3
40114.1
41564.5
38217.4
48842.3
56804.8
58146.6
60259.2
55789
53691.4
52535
51146.2
49561.6
89826.9
87182.4
92637.5
91842.4
90822.2
89504.4
87382.2
84898.9
83862.1
84301.1
81642.4
82909.2
80007
77439.1
76540.3
78865
96716.5
95419
95778
96136
94483.7
94154
73771.5
75154.2
71737.2
70243.3
72428.4
68761.6
66242.3
65468.1
68010.2
66735
61298.5
62651.1
63931.9
99692.9
100209
100566
99199.9
98689.2
98305.3
98024
97470
97018.7
73091.7
73134.9
72794.1
71456.5
72071.2
73657
73988.4
76367.6
76448.9
79288
79998.9
80494.5
76795.2
77825.7
75665.6
81440
82200.4
83460.6
85073
74754.7
86621.9
89003.4
91638
93644.9
67543.1
68244.5
70326.2
70855.1
69480
68574.2
69140.6
98469.9
96689.4
94705.6
35585.6
33869.4
32310.4
30644.3
28826.6
20547.2
21143.5
18920.5
23065.6
22285.6
23836.9
25973.9
28077.8
13906
12864.3
14643.6
11393
10892.1
11326.9
10371.1
15916.6
17923.9
16140
15108.5
37384.1
8462.27
9158.7
47770.4
46085.2
44237.8
42388.3
39636.3
40438.7
37919.1
57104.5
58339.3
59892.4
55045.3
54010.1
51877.6
50210.7
49294.3
88951.9
88295.9
92583
92582.9
91692.7
90056.5
86225.9
86066
83825.7
83457.5
81380.8
81335.9
80074.4
77304.4
75854.7
78689
79647.9
96693.7
95804
95308.9
96395.6
94556.5
94294.5
74396.6
73015
70987.4
69463.3
72404.5
68833.2
65174.4
67634.1
66453.7
60455.3
61769.6
63107.5
64370.1
99751.4
100039
100484
99172.4
98884.6
98579.6
98079.1
97563.2
97336.4
72789.2
72719.6
72172.7
70951.8
71496.7
72942.5
73702.4
75747.6
75910.6
78799.2
80192.8
76017.3
77017.4
78039.7
74986.6
81514.9
80615.6
82042.6
82587.6
84050
85523.1
74075.7
86846.7
89577.1
87745.9
92803
90661.3
67271.7
67711.8
70037.1
70283.3
69238.3
68328.6
68636.1
98931.7
97983.7
96957.1
95166.7
35314.9
33068.7
31702
30027.7
28394.7
19259.4
20475
22805.7
21213.7
23608.6
24815.9
26880.4
12745.6
12115.9
13429.4
10852.9
9947.18
10747.9
9327.88
15480.3
17155.1
15996.3
14113.1
36239.5
7243.51
8161.63
47485.3
45664.8
44019.9
42216.7
38641.9
40286.7
36866.1
56396.4
57599
59091.5
55355
53267.4
52300.5
50834.1
50099.7
48296.7
88568.6
88075.1
93107.9
92825.6
92239
91066.7
89479.2
85673.2
84974.8
82780.6
85217.5
80286.3
81206.5
77586.2
76466.5
75838.2
78537.5
79312.9
96910.6
96067.8
95161.2
96136.2
96568.3
94474.9
93436.2
74066.1
72710.8
71094.2
69224.2
71810.2
68132.2
65661.5
66930.4
60027.2
61356.8
62707.8
64045.6
99605.5
100104
100567
100317
99345.8
98831.7
98567.1
98349.6
97844.1
97396.4
72139.4
72067.1
71747.6
70398.6
71027.9
72526.5
73106.4
75150.2
75231.3
78771.2
79280.5
75381.4
76539.6
77604
74453.6
80694.5
80140.3
81247
82070.9
83930
84857.8
73704.1
85892.9
88767.2
87794.5
92791.6
90846
66824
67330.9
67625
69504.8
70019.4
68712.7
67931.1
68451.5
98840.4
98257.7
96161.8
94580.8
34306.2
32021.7
33309.2
30590.1
28968.2
27335
18534.4
19280.2
21574.8
20769.5
22603.3
24050.2
24630.2
26568
12487.1
11187.4
13230.4
9722.94
9254.01
9223.31
9769.94
8203.6
14236.5
17432.2
15292.9
36016.7
7232.11
6485.16
46381.3
44686.6
43053.9
41247.2
38102.7
39315.6
36928.6
56707
57684.9
59184.5
54648.1
53590.7
51504
50565.9
48884.6
48022.7
88507.2
86452.1
92769.7
92239.3
91182.4
89818.7
85537.1
82356.9
82073.1
84953.9
80205.3
81009.9
76514.2
76214.9
74951.1
79231.3
77811.1
96845.9
97200.7
96364.8
95711.6
96397.9
95241.6
94366.2
74425.2
73106.1
71944.7
70641.3
68408.9
69833.6
67946.3
65363.2
66674.8
60441.7
61832.5
63206.4
64551.5
99724.6
99925.3
100511
100247
99266.8
99039.4
98800.5
98396.9
97888.6
97684.8
71724.8
71588.9
71178.4
70200.2
70469.8
72662
71886.5
73119.1
74529.4
74599.8
78013.5
78996.1
74632.8
75367.5
76933.4
75843.5
73840.9
80582
79420.3
81214.1
82296.6
83212.2
84958.3
86034.3
88952.7
87020.6
91801.7
93559.2
89980.2
66505.2
66865.8
67260.6
69229.9
69511.7
68467.2
67758
67968.7
99104.5
97433.9
96531.7
95186.3
34156.7
31215.8
32559.4
30306.4
28228.7
27183.5
18524.8
18860.6
21064.7
19606.3
23060.5
21614.9
23516.8
25473.5
11377.2
10334
12246.6
9194.25
8245.19
8016.48
9466.36
7048.98
13501.7
16713.3
15723.5
14268
34933.2
6161.58
5548.84
46167.3
44087.2
43037.2
41334.2
38358.3
39129.2
36277.6
56145.4
58523.7
56805.1
55135
52830
51692.3
49677.7
48745.3
46993.8
88678.7
86966.2
93303.4
93037.3
91953.8
90881.9
89804.1
85604.2
82022.1
82974.8
81227
84436.8
80461.6
76886.1
75293.4
74972.4
80557.3
79426.4
77822.3
97028.3
97290.7
96686.7
95891.3
95145.7
96412.3
96128.5
94749.3
93912.2
74129.1
72811.9
71282.2
67884
69691.2
67204
65901.1
59988.6
61439.2
62856.9
64247
99612.5
100006
100608
100363
99413.6
99010.1
98856.1
98171.3
98670.9
97752.5
71081.7
70982.7
71539.1
70794.9
69557.1
70097.4
72103.9
71644.1
72685.1
73996.8
73997.8
77753.3
78229.2
74063.3
74615.5
76566.7
75482.5
73342.6
79839.6
78947.5
80542.4
81616.3
83363.3
84189
85277.2
88111.5
87130.7
92073.2
93098.4
90182.2
66500.8
66889.1
67334.3
68726.1
69250.2
67941
67701.6
99503.8
98668.3
97826.2
96113.1
94734.8
33126.8
30953.8
31532.2
29495
28484.2
26255.5
17283.1
17706.6
19798
19161.3
22716.2
20845.7
23339.1
25301.8
10354.9
11352.3
11874.6
8172.51
7423.32
7188.07
8675.23
6063.39
13575
12343.5
14912.2
13951.6
34528.8
5242.26
5030.53
4785.79
45227.9
44282.8
42318.2
40687.5
37516.2
37970.7
39720.3
36609.3
35185.2
58894.6
56393
54678.4
52978.6
50940.7
49383.1
47799.2
46610
89076.6
87587
86318.7
93140.7
92159.5
91119
90307.3
85724.1
82435.9
83389.9
81448.4
84768.9
75977.8
75316.4
74158.9
79325.5
78173.4
76476
97047.1
97533.1
96598.4
95931.2
95622
96620.1
96381.6
95016.6
93913.4
73120.4
71710.4
71132.3
67084.5
68008.9
70355.6
68827.7
65649
60510.9
61962.3
63396.3
64813.5
99709.1
99885.4
100737
100524
100217
99385.1
99214.1
99119.6
98184
98729.4
97968.9
70766.5
70537.9
70871.1
70289.8
69333.4
69608
72120.3
71093
72765
73429.5
73300.2
76982.4
78159.5
74089.9
73475.7
74709.5
75809.2
79088.9
79822.3
80390
80795.1
81913.6
82716.3
83984.8
85477
84343.5
88330.8
86350.9
91341.7
93652.3
89375.5
66134.7
66523.1
67076.7
68473.4
68714.8
67742.8
67225.7
99029.9
98984.3
97433.6
96688.5
94987.3
32696.4
29812.3
31091.2
27695.3
26057
16891
17328.8
19238.4
18027
21483.3
19724.5
22435.2
24283.6
9287.45
10330.7
10682.1
7963.52
7362.07
6555.36
6201.81
8142.05
5368.25
12362.7
11669.3
14859.7
12941.9
33300.4
4537.59
4264.54
4291.21
45495.3
43247.9
42297.9
41309.6
37681.9
39163.1
35851.4
34901.2
58449.5
55281.7
56729.1
53752.1
52189.8
49894
51294.4
48162.9
46889.3
88815.3
87498.3
86398.3
93635.7
92824.3
91886.2
90886.7
90086.2
85205.6
81112.7
82668.4
83680.9
80883.3
75347.2
74859.3
74539.5
79720.1
76972.2
77987.7
76324.8
97411.5
97613.7
97200.7
96143.5
95413.9
96991.3
96473.3
95161
94099.7
94610.9
73330.5
71810.5
66318.8
67363.4
70321.3
68788.1
60121.1
61610.2
63055
64515.4
99571.3
99986.3
100819
100596
100298
99216.6
98365.6
98954.6
98580.2
98114.8
70076.6
69955.7
70664.3
69892.7
68847.5
69282
71654.8
70892.7
72301
72946.6
73099.7
76625.3
77556.1
73429.3
73101.8
74278.3
75402.5
78444.6
79177.7
79534.9
80246.5
81376.5
83040.2
84801.3
83778
87574.8
86273.6
91433.4
93529.1
89611
65793
65995
66123.7
66629.6
68023.2
68405.4
67301.3
66907.4
99565.8
98750.1
97945.5
96492.2
95708.9
94387.5
31690.6
29251.4
30154.8
28174
26676.8
24971.9
15763.2
16274.1
18167.2
17599.9
21033.6
18904.5
21575.9
22332.5
24163.4
9454.44
8315.36
10049.2
6940.11
6513.38
5691.58
5329.27
7128.04
4731.43
5036.25
12041.6
10655.3
13772.5
12819.6
32674.8
3003.79
3777.99
45112.9
43249.6
40898.2
36936.3
38265.3
39710.3
35622
34126
59172.7
57529.4
54754
55972.9
53475.8
52563
49310
50610.5
47765.6
45972.1
88188.8
89487
86975.3
85819.7
93725.8
93218.7
92267.3
91145
90684
85098.9
81523.8
80384.3
82321.9
83656.4
75429.1
74654.6
73116.9
80063.7
76706
78718.6
77389.9
76096.5
97315.1
97853.8
97226.4
96402
95629.9
97217.2
96787.6
95376.7
94616.8
94850.9
72333.1
70987.9
66047.4
67496.1
66515.9
69349.8
68070.5
60707.1
62178.6
63620.1
65082.9
99669.5
99890.8
100778
100422
100173
99134.1
99427.9
98325.6
98977.2
98651.4
98087.2
69701.6
69593.5
70081.1
69360.6
68846.7
68479.4
71133.7
71762.4
70317.7
72376.7
72453
76866.6
75814.5
77698.3
73173.4
72535.9
74652
73585.1
78550.5
79041.9
79452.5
80523
81723.1
82576.3
84878.6
84032.1
82938.5
87947.1
86682.2
85469.7
90517.3
92156.7
92962.3
88933.9
65496.3
65584.6
65779.7
66351.1
67780.7
67915.2
66943.4
67326.3
66486.3
99278.8
97908.2
97178.1
95995.5
94288.5
31050.6
29442.4
30072.9
27835.6
25973
24938.4
15526.8
15942.9
17713.7
16572.1
19967.7
17966.6
19042.9
20905.6
21313.2
23098.6
8604.24
7309.08
8855.08
6385.43
5786.37
4723.55
4406.91
6316.16
4221.93
4196.85
11086.5
10154.4
13687.3
11821.6
33108.4
31407.6
3118.11
3843.42
3293.92
44187.6
42341
41390.7
37535.4
36093
39278.6
34498.9
58839.4
57344.4
55103.2
53866.2
56413.6
52374.5
48397.2
49683.5
50800.5
46859
45720.4
88072.2
89357.4
87317.3
85784.3
94176.5
92953.4
91832.9
90997.1
84390.3
80994.1
80203.4
82362.1
83085.4
75050.6
74446.9
73041.7
76807.9
79035.7
77666.5
75747.7
97557.5
97708.1
97304.4
96554.5
96227.6
95822.8
97421.9
96944.1
95311.9
94638.3
72081.2
70589.1
66592.4
66068.9
69567.6
68106.6
60354.1
61858.4
63297.2
64799.5
99597
100003
100662
100517
100266
99328
99463
98459.4
98836
99154.5
98291.1
69175.8
68968.5
69655.8
69940.9
68927.5
68430
68069.5
70698.9
71285.3
70207.7
71855.9
71966
76224.5
75576.1
77228.8
72512.4
73246.1
72117.4
74289.4
73238.9
77989.5
78276.5
78859.9
80047.6
81268.9
84244.6
83532.1
82478.9
87481.9
86006.2
85302.7
90951.4
91861.7
93478.5
88869.4
65177.7
65347.7
65776.7
65412.4
65990.8
67608.5
66516.7
67048.4
66169.7
99221.4
98534.8
96829.6
95595.9
94799.3
28583.1
29100.5
27075.9
26190.8
24130.6
14537.5
15039.6
16770.6
16171.3
20034.8
16968
18127.9
20690.6
23075.8
8246.73
7613.63
6484.95
8500.18
5765.5
5151.11
4073.8
3993.75
5422.04
3566.21
10372.9
10659
9084.07
12745.7
11910.9
10888.2
32385.9
30748.6
2982.38
3336.57
3036.94
43986.7
42391.9
40872.6
37399.8
35355.1
38254.7
39968.8
33986.8
59434.3
57927.9
54380.3
53234.5
56133.3
51632.4
47954.9
49103.2
49949.7
46083.8
47041.2
44661.9
88555.5
89906.1
87086.2
86358.9
85026
94319.3
93377.9
91825.9
90713.9
84345.9
81179.8
80265.9
81856.5
83016.9
74590.9
73417.1
74403.6
72274.3
76140.7
79537.7
78231.5
77128.8
75787.7
97590.7
98070.1
96735.1
96370.3
96013.2
97591.1
97262.3
95556
95116.4
70336.8
66597.5
65264
68553.6
70062.5
67165.4
60947.9
62407.4
63830.8
99737.1
99908.9
100714
100499
100191
99320
99641.5
98481.9
98946.9
99212.1
98236.4
68889.4
68805.9
68689.2
69117.2
69398.3
68422
68059.3
67701.7
70732.3
71265.2
69702.8
71741.3
71404.7
76125.5
74933.9
77420.3
76587.6
72589.2
72088.1
71472.2
73577.8
74412.7
72554.1
77873.7
78741.9
78141.5
79196
80453.9
81664.2
83663
84545.8
82819.1
88033.9
86668
85951.7
90682.7
92384.2
93201.9
89221
64922.3
64509.9
65010.3
65412.3
65127.7
65794
67200.7
66430.3
66170.2
66662.7
65851.2
99553.3
98433.6
97122.4
96014.2
94492.3
28329.7
28856.8
27337.4
25339.9
24303.2
14373.6
14631.1
15143
19324.2
16631.4
17232.7
18372.9
19552.3
21091.4
22230.8
7457.08
6919.8
5766.66
7432.57
5251.13
4544.91
3154.57
3498.69
4754.93
3228.04
9447.92
9643.09
8778.93
12707
11051.9
9987.86
31296.4
32911.5
29634.1
2960.43
2893.38
2899.42
2846.36
43074.2
41532.8
36409.8
35540.7
34361.8
38014.2
39699
59024.6
57667.1
54506
53397.6
55298.4
56808.1
51694.6
48290.1
49190.1
50023.2
45149.8
46624.9
44397.3
88267.6
89646.7
87535.3
86356.3
85056.9
93992.2
94841.8
93362
92237.9
91260.8
83608.2
80752.3
82287
75350.9
72629.9
73709.5
71841
76004.5
79530.6
78324
76367
77225.8
97825.9
98021.8
97196.3
96771
96502.1
96028.9
97754.5
97664
97498.7
95501.9
95190.9
71079.9
65583.9
65077.1
68446.3
69787.2
67276.5
60674.5
62147.4
63574.9
100020
100684
100606
100375
100260
99440.8
99702.5
98662.2
99116.3
98881.6
99371.8
98477.2
68400.1
68338
68242.4
69011.1
69260.7
68043.5
67596
67388
70201.4
70805.6
69654.5
71102.6
70923.5
75369.5
74823.2
76946.8
76422.8
72257
71510.4
71099
73368.7
73863.8
72152.2
77088.9
77998.9
77691.6
78914.9
80106.1
81316.5
83052.3
84174.8
82485.9
87908
86543.2
85067.9
89904.1
91320.5
92084.8
93710.9
88618
64615.5
64777.4
65459.3
65138.1
64834.6
66963.4
66038.6
65781.7
66444.8
65541.8
99567.3
97749.3
99141
96672.7
95681.5
94923.8
27749.1
26670.8
25554
23505.2
13470.2
13673.6
14414.8
15660.6
16451.3
17614.7
18731.1
20409.1
22494.3
6996.76
6174.28
5753.16
5018.48
7434.76
6794.05
4475.82
4158.06
3248.69
2918.75
3261.59
4027.25
2914.72
8855.48
8104.29
11933.8
10160
11175
9137.87
30647.4
32609.9
29129.8
2836.46
2865.22
2812.39
42962.2
41395.4
36335.7
34757.8
33558.7
37071.2
38763.1
40470.8
58181.1
59286.3
53754.9
52606.9
55198
56642.7
50925.3
47843.4
48361.6
49377.2
45124.7
45781.7
47098.2
43620.5
88799.2
90139.1
87103.9
85767.8
84472.9
94305.2
95094.8
92944.6
94006.4
91949
90969.6
83718.5
81067.8
80032.3
81891
75112.5
72790.8
71945.4
73874.6
74852.7
78807.9
77721.7
76057.7
76435.8
97761.5
98352.7
97240.3
97013.5
96691.9
96395.2
97710.6
97694.8
97643.4
95965.4
95635.2
70585.8
65432.6
63975.4
68705.2
67684
66185.6
59916.3
61241.8
62594.4
100008
100763
100545
100403
100148
99596
99886.6
98606.9
99176.5
98978
99432.8
98382.2
68074.6
67923.9
68127.2
67814.1
68471.9
68770.5
67618.1
67395.7
67052.5
70276.1
70748.4
69102.7
70351
75349
74118.6
76769.4
75931.9
71561.2
71252.5
70606.9
72851.6
73680.6
72311.5
71552.6
76656.8
77547.9
77006.7
79433
78162.9
80200.1
80613.7
81813.9
82868
83331.3
84356.1
87230.7
85818.7
85101.4
92703.4
93489.2
64405.5
64031.6
64479.2
65294.9
64842.3
64608.3
66606.3
65912.7
65756.7
65486.4
66080
99828.3
97742
98932.5
97142.3
95858.3
94714.3
27592.1
26827.5
24723.4
23711.9
13112
14742.1
13414.9
15621.6
16617
17753.5
18693.6
19424.8
20815.9
21731.8
6004.74
5721.69
4787.91
4314.47
6337.72
5974.75
4004.96
3499.23
2920.59
2886.99
2963.46
3582.52
7874.63
7595.72
11691.2
9219.26
10306.2
8507.29
29592.3
30909.3
31773.6
28185.6
2826.02
2802.63
2783.92
42148.9
35447.6
34768.5
33777.5
36889.3
38522
40214.7
57945
58555.4
52850.2
53835
54476.9
55854.4
57249.7
50735.6
47994
48477.7
49791
44012.6
45789.6
46644.3
43343.4
84435.1
94873.9
95606.3
93170.8
94281.3
92599.6
83327.3
80603.9
79652.7
82085.3
74293.2
72338.4
71375.5
73192.1
75459.4
78558.3
77959.9
76501.5
97987.3
98484.2
97353.6
97711
97056.8
96682
96343.9
97959.5
97752.1
95994.6
70690.9
64602.3
63783.8
68514.7
67612.5
66315.3
59811.5
61014.6
62152.8
100751
100577
100321
100196
99673.9
99911.6
98826.9
99347.5
99121.1
98940.8
99584.4
98619.8
67672.9
67690.5
67580.2
67682.2