/*--------------------------------*- C++ -*----------------------------------*\
| =========                 |                                                 |
| \\      /  F ield         | OpenFOAM: The Open Source CFD Toolbox           |
|  \\    /   O peration     | Version:  v2012                                 |
|   \\  /    A nd           | Website:  www.openfoam.com                      |
|    \\/     M anipulation  |                                                 |
\*---------------------------------------------------------------------------*/
FoamFile
{
    version     2.0;
    format      ascii;
    class       surfaceScalarField;
    location    "1";
    object      phi;
}
// * * * * * * * * * * * * * * * * * * * * * * * * * * * * * * * * * * * * * //

dimensions      [0 3 -1 0 0 0 0];
oriented        oriented;


internalField   nonuniform List<scalar> 
21399
(
0.182525
0.604162
-0.592741
0.775266
0.614289
-0.08309
0.574648
0.139438
0.654407
0.46664
0.308626
0.123377
0.490912
0.502879
0.714086
0.181821
0.472585
0.590018
-0.503095
0.811721
0.502298
-0.011465
0.514344
0.210991
-0.367663
0.549485
0.683576
0.219433
0.370585
0.336109
0.475612
0.721731
0.372808
-0.109213
0.361343
0.14668
0.0986461
0.450839
-0.0587502
0.742327
0.706693
-0.140168
0.61578
0.73046
0.220833
0.289721
0.0716224
0.436401
-0.327453
0.426099
0.392089
0.602159
0.0597536
0.64694
0.675534
0.464151
0.266309
0.351484
-0.130651
-0.341947
0.413569
0.108948
0.199775
0.226324
0.591864
-0.112055
0.714214
0.302641
0.344299
0.341296
0.334238
0.474494
0.56895
0.00953734
0.190003
0.270586
0.142983
0.379534
0.333072
-0.106748
0.520758
0.0711065
0.408703
0.355338
0.358875
0.685595
0.689576
-0.11063
0.585124
0.45832
-0.316714
0.326252
-0.126711
0.302199
-0.159215
0.369051
0.0104831
0.251342
0.319646
0.0134263
0.262303
0.390752
0.455094
-0.0463911
-0.332778
0.691654
0.270234
0.415361
0.39117
0.298407
0.595408
0.728553
0.372166
-0.0459138
0.124631
0.27968
0.022519
0.21295
0.290163
-0.291042
0.304469
-0.0287393
0.423216
-0.0324636
0.122315
0.376825
0.410246
0.281408
0.806531
0.708653
-0.272557
0.867965
0.455997
-0.353961
0.308047
-0.155512
0.280143
-0.235439
0.257957
-0.0224882
0.269773
0.0203896
0.0947094
0.327012
-0.0225436
0.241034
0.294549
-0.268533
0.390849
0.108292
-0.197068
0.478475
0.262177
0.544354
0.682447
0.0262059
0.631513
0.236452
0.718174
-0.0738177
0.300202
0.00784469
0.285561
-0.027603
0.277714
0.30595
-0.148271
0.242981
0.122676
-0.333787
0.311243
-0.0927532
-0.0288867
0.323435
0.527883
-0.137034
-0.271731
0.380023
0.330815
0.443821
0.0346547
-0.0623211
0.606675
0.620126
0.470027
0.641614
-0.33068
0.567132
0.387494
0.169163
0.254095
-0.24625
-0.210306
0.182703
0.0674082
0.213197
0.270661
-0.147985
0.271848
0.0393952
0.242962
0.0517044
0.242988
0.352711
-0.021896
0.387366
0.104311
0.502364
0.519867
0.100259
-0.0982896
0.568316
0.624918
0.0166969
0.680658
-0.113526
0.491805
0.326188
-0.157025
0.258045
-0.00395066
0.0799383
0.300114
-0.117411
-0.166738
0.234146
0.278242
-0.0650453
0.113636
0.101609
-0.229999
0.269394
0.202758
0.0402039
0.254462
0.407197
-0.164208
-0.282774
0.260878
0.402654
-0.0152879
0.0697992
0.432565
0.589666
-0.378413
0.478672
0.304364
0.189903
0.63418
0.697355
0.378279
0.0913075
-0.200467
0.196516
0.256393
-0.176454
0.268594
0.0315195
0.116735
0.0482434
0.203549
0.274223
-0.160587
0.252338
-0.150729
0.200879
0.0685146
0.241083
0.393962
-0.1395
0.124423
0.229754
0.392403
-0.131525
0.377115
0.810844
0.674705
-0.0850389
0.623433
-0.144761
0.347398
-0.0430337
0.445514
-0.255611
0.0474339
0.586747
0.571494
0.125861
-0.185038
0.276346
0.055926
0.0114778
0.0977687
0.217176
-0.185657
-0.104786
0.221521
-0.224377
0.27262
-0.0208278
0.0917505
0.0698708
-0.196608
0.265123
0.101583
0.303295
-0.178873
0.3444
-0.114646
0.171771
0.268655
0.10846
0.435185
0.375659
0.236717
0.437989
0.538394
0.300753
0.091787
0.225621
0.618928
0.595612
0.561046
0.17156
0.187092
-0.131166
-0.183067
0.194544
0.268103
-0.170335
0.218846
-0.00167037
0.0358639
0.0760119
0.198019
0.241026
-0.149276
0.245505
0.206608
0.0585146
0.308191
0.165528
-0.278168
0.163522
0.354713
-0.182942
-0.17095
0.27941
0.612376
0.628996
-0.191007
0.561714
-0.0233194
0.493918
-0.193165
-0.254861
0.346648
-0.0292394
0.564612
0.054316
-0.0681566
0.663769
0.0179669
0.543079
0.173852
-0.00229235
0.00402487
0.136938
-0.0424062
0.236951
0.0706913
-0.187139
0.185469
0.209716
0.261501
-0.185489
0.22893
-0.0309117
0.0962291
-0.152708
0.211223
0.0300229
0.32182
-0.156292
0.297662
-0.13414
0.294374
0.0603393
0.138877
0.123423
0.250171
0.630342
0.569939
0.0590577
0.370706
-0.368712
0.345393
0.125206
-0.431555
0.238391
-0.0849078
0.496456
0.597395
0.671591
-0.195189
0.192897
-0.178357
0.182382
-0.0414193
-0.192326
0.14992
0.0417617
0.250929
-0.180238
0.0225769
0.195748
-0.0102785
0.108793
0.0434414
0.164836
0.178347
-0.0821181
0.25094
-0.0397175
0.280963
0.14137
0.146823
0.258314
-0.197975
0.304543
-0.165665
-0.171052
0.294476
0.30971
-0.0595393
0.0370972
0.593245
0.607036
-0.460327
0.519385
-0.0896207
0.474293
-0.1289
0.409369
-0.284163
0.364026
-0.125635
0.224802
-0.374382
0.870838
0.223012
-0.166234
0.837825
0.169176
0.0237202
-0.00994367
-0.205282
0.163863
0.171395
-0.0214751
0.213156
0.0456472
-0.00189058
0.191753
-0.184192
0.173913
0.208881
-0.100089
-0.158931
0.202373
0.00590457
-0.216294
0.134176
-0.0121801
0.169164
0.272287
-0.130918
0.272662
-0.125839
0.0872619
0.106568
0.106622
0.233161
0.061315
0.173621
0.816258
-0.11275
0.719786
0.62347
-0.104085
0.384672
0.280469
0.0798627
-0.372113
0.246478
-0.147311
0.704605
0.629188
0.208637
-0.156898
0.180618
-0.193891
0.183947
-0.0300282
-0.149747
0.128272
0.0562587
-0.114925
0.160572
-0.140428
0.138537
0.00756168
0.173678
0.000234701
-0.211606
0.111518
-0.00923341
0.179583
-0.0062522
0.164922
-0.106995
0.276159
0.141744
-0.183057
0.057218
0.257945
-0.170683
0.264105
-0.157538
0.2675
-0.160878
-0.170886
0.232201
0.292674
-0.119053
-0.011379
0.827637
0.51072
0.708407
-0.49645
0.392365
-0.111777
0.452993
-0.172525
-0.291019
0.370882
-0.0445407
0.145363
0.487381
0.217223
0.636162
0.696019
0.172917
0.00770061
0.0341997
-0.149117
0.119089
0.202038
-0.0737661
-0.129395
0.185654
-0.238724
0.123799
0.0114553
-0.100187
0.180479
-0.170817
0.171052
0.252438
-0.14092
-0.173683
0.164449
0.0059003
-0.174937
0.168685
-0.0100146
0.145443
0.0931025
0.200113
-0.0583691
-0.157265
0.214483
0.0870592
0.0934221
0.109962
0.0392358
0.113148
0.378149
0.449488
0.735823
-0.225103
0.550778
0.157629
0.560189
-0.167824
0.341216
-0.331245
0.15872
0.0396373
0.196062
-0.240603
0.318229
-0.172865
0.595372
0.150495
0.485667
0.51811
0.177908
-0.134624
0.142325
0.164531
-0.130331
0.205306
-0.0862176
0.0726428
0.0907644
0.0510303
0.153929
-0.0301302
0.165385
0.0684978
0.00966194
0.161818
0.00923344
0.0235288
0.167718
-0.150462
0.140447
0.257699
-0.112257
-0.0641628
-0.233049
0.17468
-0.0185658
0.240786
-0.153727
0.232597
-0.139175
0.243233
-0.133271
-0.116503
0.155739
0.280344
-0.167196
-0.110706
0.560194
0.407201
0.328622
0.335086
0.440072
0.56483
-0.450521
0.282697
-0.109305
-0.210911
0.369631
0.267082
-0.227445
0.337095
-0.141033
0.0776259
0.107479
0.547158
0.0482141
0.668606
0.491986
0.725066
-0.00226292
0.635554
0.0208765
0.621157
0.182867
-0.040542
0.0749756
0.079167
-0.107452
0.180095
0.183724
-0.0929597
0.168882
-0.117851
-0.151259
0.121129
0.195015
-0.126517
0.192528
-0.152206
0.16144
-0.164683
0.188212
0.00303555
0.172214
-0.0317665
0.193536
-0.186502
0.0742454
0.0581767
-0.152457
0.133891
0.0735906
0.0788701
0.104058
-0.225231
0.0919601
-0.0694919
0.608408
0.641363
-0.312741
0.532559
-0.197472
-0.294309
0.734382
0.270521
0.524538
-0.241841
-0.372752
0.263446
0.0561714
-0.00312105
0.109651
-0.249486
0.108453
-0.17186
0.272638
-0.165159
0.113338
0.555267
0.605325
0.72263
0.0024366
0.643842
0.0652983
0.570256
0.531383
0.642847
0.631339
0.12834
0.186832
-0.111856
0.178024
-0.0988569
0.0762718
0.0622438
0.0938719
0.0437551
0.185244
-0.0641144
0.0456968
0.0403222
0.155966
0.0054741
0.00170951
0.159001
-0.138717
0.10695
0.04108
-0.106884
0.181129
0.166265
-0.108088
0.210706
-0.0768152
0.27392
-0.200329
0.194718
-0.115848
0.217684
-0.113626
0.229614
-0.137654
0.0967731
-0.119507
0.727915
0.34297
0.298393
0.219818
0.327066
0.614875
0.61349
-0.345256
0.103415
-0.08181
0.244429
-0.188257
-0.281878
0.278757
0.296708
-0.187058
0.278449
-0.169996
0.100778
0.108761
-0.107725
0.662992
0.61063
0.614904
0.730351
0.00493526
0.638907
-0.444625
0.509923
0.022831
0.547425
0.0867585
0.647783
0.00114533
0.630193
0.194167
-0.0658275
0.066168
0.0863866
-0.11412
0.190392
-0.108968
0.171212
0.137615
-0.0437428
0.178051
-0.134296
0.113936
-0.142026
0.187723
-0.128999
0.169321
-0.119012
0.124486
-0.176795
0.178504
-0.0177935
-0.00973459
-0.0350755
0.166759
-0.125679
0.0716202
0.234018
-0.0528889
0.102618
0.0899439
-0.00561166
0.101836
0.115988
-0.169178
0.0315245
-0.072405
0.518747
-0.220354
0.426694
-0.206876
0.4826
-0.155534
0.716398
-0.101524
-0.0887524
0.702243
0.386585
-0.283169
-0.322049
0.240239
-0.0374495
0.108451
-0.0432921
0.091391
-0.251508
0.0815123
-0.150731
0.236703
-0.127943
0.133911
0.529081
0.744541
-0.0625308
0.677435
0.570111
0.160241
0.661738
0.482922
0.0270019
-0.182692
0.730117
0.309037
0.0128703
0.395795
0.290456
-0.000560978
0.648928
0.640712
0.0651679
-0.137597
0.0717692
-0.0818737
0.148042
0.176457
-0.09007
0.0234945
0.0814242
0.0336148
-0.1554
0.111657
0.053427
0.142559
-0.0286224
0.0503094
0.180286
-0.0557996
0.162492
0.126953
0.117218
-0.1259
0.0908246
0.108339
0.157782
-0.0861618
0.104893
0.177917
-0.0752998
0.181978
-0.092034
-0.186942
0.18133
-0.0851055
0.198116
-0.0821274
-0.166638
0.198162
0.105512
0.429995
-0.466708
0.246354
-0.0400148
0.275724
-0.436039
0.280505
0.453284
0.263115
0.600719
-0.0494548
-0.0429297
-0.286885
0.249435
-0.178434
-0.290769
0.247477
0.268694
-0.177303
0.242513
-0.161001
0.0859726
-0.282249
0.154306
-0.0191481
0.548229
0.110177
0.634364
0.50758
0.658287
0.613525
-0.0532858
0.715023
0.30023
-0.406857
0.433859
0.280919
0.449198
0.303326
-0.0110618
0.282007
0.595642
-0.0860493
0.726762
0.184411
-0.119243
0.155802
-0.0840324
0.094583
-0.00735845
0.0524887
-0.117543
0.141038
0.173414
-0.0919894
0.109266
-0.0756517
-0.00588577
-0.125407
0.178834
-0.155004
0.126382
0.142583
-0.0922738
0.0867835
0.159046
0.00344608
-0.00868223
0.176445
-0.0856204
0.192337
-0.083998
0.0728843
0.198783
-0.09389
0.106678
0.100303
-0.100919
0.11301
-0.174504
0.0923763
-0.0611254
0.0236585
0.712675
-0.28268
0.589422
-0.343068
-0.398956
0.358941
-0.123232
0.450491
-0.169985
-0.452046
0.71516
0.148674
-0.391569
0.342114
-0.297528
0.254599
-0.0413335
0.0902597
-0.0500514
0.0652101
-0.230165
0.0691644
-0.144192
0.195729
-0.0414224
0.658406
0.638904
-0.24438
0.751959
0.0330101
0.625277
0.369145
0.39229
0.322734
-0.248107
0.548337
0.185752
-0.382401
0.66332
0.841488
0.329403
-0.0260771
0.318342
0.291285
-0.00927772
0.509593
0.736608
0.0921368
0.0365589
0.0252341
0.132867
-0.0382836
0.125508
-0.107456
0.159944
0.152809
-0.0117717
0.0977619
0.0608198
-0.134386
0.1285
0.0510383
0.0238295
0.0189262
0.177977
-0.0911932
-0.138823
0.142269
0.143306
-0.0465571
0.134624
0.0490037
0.114785
0.168062
-0.0951777
0.074172
0.175827
-0.0691491
0.191619
-0.0913159
-0.220124
0.119205
-0.107114
0.198269
-0.105892
0.114702
0.161883
-0.138225
0.47785
0.234825
0.306742
0.0158731
0.327258
-0.313448
0.143462
0.471371
0.243789
0.626524
-0.13697
0.0286662
0.231163
-0.272496
0.287939
-0.197679
-0.280778
0.230727
0.250126
-0.184916
0.220245
-0.151081
0.0515363
0.12921
-0.170633
0.0472642
0.611142
0.0256958
0.613208
0.78497
0.672541
0.840516
0.832327
0.165935
-0.240974
0.426726
0.683616
-0.0202954
0.402229
0.439259
0.265208
0.412897
-0.0945548
0.265072
0.0283071
0.255794
0.515267
0.221341
0.138392
-0.0462553
0.154696
-0.118137
-0.101858
0.127092
-0.136132
0.097848
-0.00887783
0.0238128
-0.133355
0.121583
-0.00409625
-0.120809
0.181629
-0.00485496
0.159445
-0.108406
-0.127473
0.151302
-0.119853
0.13878
0.0391535
0.0471989
0.0470916
0.0839087
0.14919
-0.100187
0.159568
-0.0447826
0.172521
-0.0983486
0.12247
0.0682518
0.241745
-0.12254
0.0911545
0.0559909
0.1732
-0.058498
0.0349752
0.602862
-0.368037
0.5807
-0.273957
-0.420701
0.436574
-0.0934429
0.330246
-0.186783
-0.536067
0.779856
0.0904573
-0.269198
0.132228
0.304378
-0.275712
-0.0496154
0.0154423
0.0524474
-0.0384719
0.0353287
-0.217887
0.0668063
-0.166351
-0.0371401
0.0711124
0.636838
0.616941
0.461648
0.323322
0.0813071
0.591234
0.662895
0.177621
0.391747
0.44058
-0.330275
0.496211
0.171923
0.0964508
0.334063
0.349553
-0.335478
0.315182
0.793976
0.773322
0.316893
-0.0516848
0.222338
0.266703
0.268054
-0.0122598
0.526216
0.661921
-0.16084
0.114585
-0.00614407
0.00895517
0.154153
-0.0563049
0.145275
-0.128184
0.151997
0.00077436
-0.113774
0.109677
0.0678551
-0.122387
0.117532
0.0319717
0.0407839
0.0314491
0.0105951
0.144144
-0.104991
-0.111918
0.159116
0.169146
-0.122055
0.156869
-0.0729604
0.0566826
-0.132569
0.0877862
0.0399518
0.0707976
0.161821
-0.0393507
0.161719
-0.093467
-0.22255
0.10001
-0.131396
0.173146
-0.117156
0.103323
0.175752
-0.140776
0.441082
0.16178
0.212662
-0.552499
0.278541
-0.115924
-0.421713
0.328271
-0.0914677
0.117595
0.443714
0.336142
0.531539
0.317076
-0.184848
-0.27549
-0.000222714
0.207879
-0.257495
0.199219
-0.183777
0.297911
-0.245464
0.241223
-0.279695
0.218603
-0.183274
0.183244
-0.116437
-0.189285
0.152145
-0.118173
0.00936921
0.627468
0.0262275
0.590713
0.542955
-0.252858
0.57618
0.600603
0.410037
0.621335
0.160733
0.359055
-0.187132
-0.232569
0.32902
-0.238295
0.587848
0.47271
-0.157527
0.522091
0.271885
0.583492
0.18983
0.216369
0.340661
-0.118323
0.200561
0.0661417
0.188301
-0.156745
0.682961
0.505176
0.00266716
0.131145
-0.137289
-0.124611
0.133566
0.0956923
0.0228878
-0.128744
0.129519
-0.0149331
0.123189
-0.0553338
-0.0112121
0.163739
-0.131767
0.120559
-0.0797753
-0.114474
0.145924
-0.103186
0.113781
0.0220894
0.0541259
0.0657946
0.155649
-0.098966
0.134072
-0.0462855
0.14741
-0.107458
0.129686
-0.0588886
-0.135677
0.0963263
0.0260418
0.0406047
0.196391
-0.0963815
0.0417509
0.0585959
-0.0374536
-0.474676
0.636456
0.502167
-0.289505
0.521774
-0.243232
-0.52249
0.406565
-0.194219
-0.28929
0.197822
-0.171695
0.691991
-0.35585
-0.207192
0.738731
0.0415867
0.0563751
-0.246415
0.246192
-0.0718157
-0.0582757
0.114135
-0.0268614
-3.03241e-05
-0.220463
0.104026
-0.0683181
0.0782188
0.653696
0.593677
-0.0817369
0.624692
0.494443
-0.0333938
0.633997
-0.32776
0.737797
0.293574
0.369795
-0.209061
0.126485
0.153529
0.405327
-0.076307
0.234414
0.285096
0.302752
0.212267
-0.0881552
0.610246
0.777061
0.495337
0.474926
0.258114
-0.0417446
0.139791
0.302334
-0.172595
0.238737
0.27101
-0.0827088
0.692397
-0.145333
0.148
-0.0141873
-0.00372356
0.165912
-0.0702197
-0.107984
0.130872
0.156809
-0.0272898
0.108256
0.101475
-0.101615
0.0904029
0.0492645
-0.011208
0.0758733
0.0427374
0.156194
-0.0424129
-0.111499
0.133589
0.112571
-0.0584452
0.139054
-0.0732596
0.0400881
0.101124
0.0222284
-0.157028
0.0981391
0.144996
-0.04867
0.145201
-0.119159
-0.0988898
0.139495
0.110409
-0.206791
0.160536
-0.118785
0.165135
-0.10654
0.107543
0.027491
0.429264
0.232269
-0.429694
0.186462
-0.0231289
-0.429542
0.235323
-0.23172
-0.287627
0.115933
0.377502
0.314489
0.382882
-0.204828
0.259155
-0.20278
-0.0414347
-0.249446
0.17763
-0.216001
0.157726
-0.101867
-0.166266
0.139404
-0.1948
0.19477
-0.0907742
0.0941919
-0.16251
0.178791
-0.100572
0.0998607
0.553835
0.0629336
0.530744
0.591298
-0.18641
0.680854
0.733858
0.551387
0.671076
0.196266
0.328333
-0.201847
0.322443
-0.168914
0.252026
0.455264
-0.22085
-0.0632451
0.365997
0.417552
-0.205284
0.350675
0.259571
0.312537
0.464524
0.48969
0.00564699
-0.0301963
0.505123
0.229265
0.329213
-0.189422
0.129739
0.156028
0.0836304
0.608766
0.126691
0.021309
0.0975899
-0.111777
-0.142057
0.138333
0.0579277
0.0859743
0.0292572
-0.14537
0.11808
-0.0338008
0.140029
-0.0385547
-0.0549669
0.136549
-0.0872846
-0.113214
0.102006
-0.0373411
0.136865
-0.0941279
0.0944524
0.0010718
-0.0234391
0.0682455
0.0402524
0.138958
-0.0988704
0.00223429
-0.130866
0.153094
-0.0327268
0.0965312
0.020335
0.180998
-0.0705882
-0.0462546
0.0463499
-0.167286
0.0607467
-0.0597435
-0.527796
0.555287
-0.1794
0.608664
-0.295527
0.492676
-0.306214
0.385157
-0.408286
0.472528
-0.237205
-0.328424
0.096704
-0.212491
0.701578
-0.387089
-0.266322
0.649203
0.054327
-0.290518
0.0877374
0.247807
-0.289242
-0.0917201
-0.112888
0.149508
-0.251375
0.0285039
0.227296
-0.0878922
-0.193913
0.103139
-0.0997211
0.0162811
0.0804253
0.616769
0.533406
-0.165922
0.757219
0.514932
0.425429
0.308428
-0.0440884
0.595475
0.0501276
0.620949
0.358527
-0.162261
0.120596
0.160299
0.301649
-0.0496233
0.380853
0.0744109
0.196702
0.317608
0.335801
0.153242
0.663213
0.74926
0.548154
0.51077
0.039843
0.266815
-0.137077
-0.125823
0.281851
0.619129
0.118695
-0.0973861
0.156767
-0.0591768
0.0265557
0.137389
-0.0794612
0.137428
-0.0514532
0.111401
-0.0821434
0.136541
-0.0184614
0.106229
0.0979867
0.0564336
0.0424213
-0.149537
0.062252
-0.0475302
-0.119244
0.0819027
0.145254
-0.050802
-0.108246
0.109318
-0.132324
0.108885
-0.0400005
0.0822447
0.0136949
0.122497
0.0197146
0.0236267
-0.125035
0.127269
0.0280591
-0.129224
0.0964974
0.143412
-0.0468808
-0.110552
0.130887
0.0961417
-0.16673
-0.17829
0.132036
-0.13194
0.13223
-0.0714837
0.0836685
0.599585
-0.0442979
0.420185
0.342343
0.197148
0.0789427
0.0642425
0.103109
-0.340315
0.343062
-0.246358
0.0353156
0.751706
0.262114
0.274802
-0.220475
0.214132
-0.126394
-0.0144403
-0.237971
0.146251
-0.254604
0.141716
-0.0884625
-0.0240789
0.200018
-0.171514
0.112126
0.228941
-0.125802
-0.142227
0.0425056
-0.125946
0.148312
-0.0678864
0.146641
0.470128
-0.0308481
0.564254
0.341918
0.415302
-0.103116
0.618049
0.57207
0.650346
0.57686
0.492359
0.139388
0.307644
-0.187048
0.283875
-0.123576
-0.292055
0.242432
-0.299706
0.374117
0.30108
-0.104379
-0.0217649
0.339373
-0.0865625
0.422363
0.304713
-0.15147
0.103105
0.560108
0.267548
0.481712
0.651259
-0.150501
0.661271
-0.179831
0.219674
0.277732
0.140992
0.140655
0.10202
-0.138541
0.75767
0.0786945
0.0593807
-0.113155
0.0539781
-0.0865992
0.0552455
0.0579663
0.0938013
0.110789
-0.129251
0.148941
-0.0427125
0.139234
-0.041247
0.111875
-0.0554412
-0.0682678
0.110689
0.133774
-0.0715218
-0.127981
0.0804503
-0.0460778
-0.129366
0.0785643
-0.0230065
-0.020339
0.126405
0.137147
-0.117432
-0.0759541
0.0995807
0.016717
0.13096
-0.102901
0.152397
-0.0558999
-0.140684
0.0938034
-0.0097968
0.169139
-0.0729974
-0.0346941
0.000289943
-0.140928
0.069444
-0.0572593
0.38137
-0.425667
0.593451
-0.173266
-0.212139
0.554482
0.660925
-0.463777
0.396785
-0.317842
0.453463
-0.389221
0.367211
-0.264101
0.00274766
-0.329801
0.0834424
-0.294485
0.491995
0.259711
-0.442048
0.704162
-0.00634284
-0.245721
0.119327
0.231539
-0.245979
-0.108353
-0.104005
-0.215365
0.126903
-0.184646
0.160567
0.0574269
-0.0725207
-0.189515
0.0637126
-0.147009
0.0223661
0.101253
0.43928
0.566889
-0.318799
0.734101
0.29925
0.207367
0.364704
0.274134
0.376212
-0.0203793
0.59724
0.504019
-0.0116601
-0.203982
0.34337
0.0155886
0.0968278
-0.284779
0.161203
0.0384494
0.00137438
0.254524
0.119593
-0.307911
0.203532
0.232759
0.252811
0.271862
-0.00319835
0.1919
-0.00799724
0.568105
-0.332894
0.600443
0.473715
0.512718
0.328377
-0.0651053
0.263092
-0.1221
0.242999
-0.102343
0.232487
-0.130467
0.407162
0.350508
0.131343
-0.0526485
0.142053
-0.0826727
0.131386
-0.0774076
0.0623418
0.133419
-0.0781737
0.118441
-0.0604747
0.103707
-0.00990614
0.105024
0.00576535
-0.0173757
0.0965213
0.0637768
0.0779779
0.065506
-0.0186772
-0.136218
0.0646958
-0.0557673
0.0910689
0.123697
-0.0451326
0.108337
-0.116628
0.0962891
0.0504514
-0.0178515
-0.10365
0.120367
0.0273098
0.0494966
-0.11507
0.0591704
0.137794
-0.0439902
-0.117265
0.107468
0.071021
-0.144018
0.0892633
-0.123957
-0.122335
0.122625
-0.0528911
0.0805343
0.559353
-0.177984
0.235258
0.381312
0.386087
0.112434
-0.0669917
0.135621
-0.02201
-0.230351
-0.0337501
-0.227604
0.314065
-0.230622
-0.0629459
0.471616
0.598526
-0.338815
0.756409
-0.0522469
-0.234339
0.227996
-0.115012
-0.0179835
-0.259136
0.150783
-0.223584
0.119579
-0.0547977
-0.132234
-0.145499
0.202926
-0.181008
0.108488
0.207992
-0.144279
-0.137249
-0.00976018
-0.114883
-0.0136301
0.646647
-0.252903
0.819792
0.195283
0.538817
0.803269
0.638838
0.571495
0.58558
0.234222
-0.218633
0.220687
-0.123859
0.25446
-0.0932568
-0.254484
0.292933
-0.250947
0.252321
0.267741
-0.148148
-0.0474147
-0.0655078
0.298267
-0.0876274
0.340438
-0.247975
0.519838
-0.256979
0.253781
-0.065079
0.0776513
0.490454
0.111249
0.489194
0.584964
0.590369
-0.254742
0.583118
0.167382
0.245103
-0.0973934
0.132625
0.120899
0.142759
0.416337
-0.335225
0.685733
0.0894049
0.0487129
-0.122609
0.0452019
-0.0602676
0.0402673
0.0432327
-0.106516
0.0966099
-0.093233
0.0989983
-0.0853043
0.0679286
0.100556
-0.00403438
-0.075354
0.139131
-0.00732637
0.107627
-0.0421206
0.0889493
0.148384
-0.0836879
-0.101429
0.0456616
-0.01036
0.0171808
-0.109099
0.0639661
-0.00829157
-0.0187812
0.106764
0.0988499
-0.0483986
0.0809984
0.00310218
0.117217
-0.0899075
0.135356
-0.0858599
0.130391
-0.0712211
-0.113762
0.0697719
-0.006294
-0.0573756
0.128397
-0.0547551
-0.182899
0.0589419
-0.0602743
-0.142444
0.0895532
-0.06191
-0.491412
0.313428
-0.256154
0.484017
-0.102704
0.642653
-0.256566
0.59645
-0.427245
0.360253
-0.291624
0.310216
-0.332226
0.261157
-0.294907
0.0864613
0.122514
-0.353136
0.206882
-0.269828
-0.12712
0.598736
0.471405
0.417594
-0.492641
0.440394
-0.221991
0.106979
0.177202
-0.195186
-0.0728007
-0.102411
-0.218179
0.163381
-0.155264
0.02303
0.0624927
0.0219176
-0.109691
0.0144631
-0.158742
0.126051
-0.135811
-0.134255
0.120625
0.393743
0.601464
0.218328
0.122414
0.416403
0.50907
0.294199
0.306511
0.332327
0.259611
0.311884
-0.103339
0.688918
-0.0202618
0.00205393
0.1306
-0.246609
0.153352
0.255312
0.0376212
0.336586
-0.0842648
0.202233
0.188438
-0.212476
0.165061
0.21064
0.0924625
0.265096
0.0413053
0.190233
0.0696788
0.420775
-0.0793702
0.568564
0.654643
0.255144
0.408183
0.174935
-0.0792269
0.152019
0.256107
-0.123482
0.219005
-0.0981066
0.236697
-0.0939374
0.428889
0.344449
0.341284
0.115893
-0.0264884
0.128772
-0.0800589
0.118858
-0.0736557
0.040288
-0.0825264
0.122794
-0.0645981
0.107831
0.0320118
-0.124598
0.0313654
0.0236443
-0.0566698
-0.0824001
0.0783657
0.0567307
-0.101193
0.0938665
0.106263
-0.0201494
-0.112334
0.0286463
-0.0666727
0.0871578
-0.0975179
-0.112719
0.1299
-0.0487529
-0.0902423
0.0819507
0.103463
-0.122244
0.0583658
0.133863
-0.052865
-0.0890683
0.0921705
0.0281489
0.045449
0.0445316
0.0322422
0.133287
-0.0635154
-0.115768
0.109474
-0.131481
0.0741049
-0.00585843
-0.131833
0.0770777
-0.0728909
-0.149564
0.0892897
-0.0600109
0.0713773
0.586237
-0.272809
-0.485463
0.229309
0.539949
0.32967
0.103809
0.497292
-0.137039
-0.42824
0.136616
-0.118024
-0.0710688
-0.208446
0.310741
-0.188227
-0.146254
-0.0926256
0.495398
-0.162205
0.633611
0.755813
-0.33822
0.597278
-0.156884
0.259444
-0.152465
0.0642577
0.145348
-0.218149
-0.175191
0.0727796
0.00811723
0.19889
-0.17586
0.167205
-0.104713
0.164148
-0.142231
0.0544572
-0.12737
0.141833
-0.0326909
-0.0151865
0.700254
0.603824
-0.3716
0.589928
0.631483
0.676015
-0.296438
0.590638
0.644211
0.39248
-0.222041
0.20178
-0.190518
0.192572
-0.0599176
0.238958
-0.0856059
-0.142213
0.179834
-0.287295
0.20303
-0.0760022
0.278235
0.307949
-0.119511
-0.122234
0.28643
-0.07579
0.378892
-0.215436
0.480532
0.220831
-0.179526
0.236044
-0.0458112
0.67592
0.328813
0.0411753
0.527389
0.126331
0.528312
-0.213102
0.388038
0.17688
0.0233813
0.173537
0.222725
-0.0707064
0.0955229
0.13859
0.128788
0.773338
-0.394126
0.735409
0.025651
-0.112782
0.0862938
0.0159895
0.0387987
-0.124152
0.050496
-0.0838636
0.0253044
0.0216009
-0.0638569
0.0958687
-0.0683039
0.0996694
-0.0876771
0.111321
0.0371966
-0.0054979
0.0866402
-0.0299095
0.0974427
0.00882032
0.0772934
-0.0821085
0.110755
0.0204851
0.0363453
0.0660429
-0.0665872
0.0178343
-0.0402937
-0.0692056
0.127571
0.0242447
0.0747057
-0.0235975
0.12075
-0.0926015
0.100454
-0.0550051
0.136
-0.0914688
0.107429
-0.0751871
0.0459586
-0.0544029
0.117764
-0.0436594
0.111906
-0.148045
0.0751537
-0.0587549
-0.15524
0.0952296
-0.0838632
-0.511906
0.239098
0.0118292
-0.282598
0.578527
-0.0385779
0.654288
-0.324618
0.682336
0.260077
-0.397115
0.481835
-0.345219
0.28498
-0.403004
0.23641
-0.307479
0.102295
-0.306212
0.117985
0.120723
-0.266977
-0.212991
0.120366
-0.118723
0.614121
0.593608
0.514888
0.259058
0.525452
-0.213736
0.0612711
-0.148734
-0.029843
-0.0192589
-0.140957
-0.167743
0.0249747
-0.180807
0.0760946
0.221356
-0.166898
-0.106781
-0.0205884
-0.0389745
-0.139472
-0.131594
0.116408
0.328655
0.00841509
0.595409
0.582758
0.00716995
0.481657
0.149826
0.280392
0.395623
0.497789
0.0928487
0.302543
0.341668
-0.164622
0.557102
-0.0294697
0.255785
-0.0540057
0.17904
-0.197077
0.111471
0.113573
0.204459
-0.024625
0.270832
-0.0678015
0.231947
0.202445
0.151321
0.0985976
0.372642
0.00625069
0.157206
0.267429
0.0565181
0.158648
0.281794
0.422973
-0.0941597
0.464148
0.65372
0.810106
0.293878
-0.0201972
0.1533
0.10283
-0.0989236
0.194447
0.216277
-0.0776873
0.23431
-0.105522
0.523793
0.249545
0.422346
0.313063
-0.0832976
0.108949
0.00299617
0.0996272
-0.0836377
0.107571
-0.0687727
0.109178
-0.0586823
-0.0793797
0.104684
-0.0930311
0.114632
0.016489
-0.102169
0.0338654
0.0119923
0.100831
0.0104906
-0.0649727
0.0811423
0.0709214
-0.083291
0.0921113
0.0107062
-0.0994384
0.0173298
0.127325
-0.0165701
-0.0789534
0.093883
-0.0575378
0.0843594
-0.0183165
-0.0764101
0.0942444
0.0686549
-0.0848316
0.109075
0.113282
-0.0385768
0.0971529
0.00785255
0.0809953
0.0159605
-0.120039
0.044852
0.109564
-0.0636052
-0.131644
0.0772413
-0.132686
0.0890269
-0.0196886
-0.0564905
-0.145616
0.0868609
-0.0503862
0.0257006
0.498876
-0.259778
0.425226
-0.413397
0.142628
-0.459436
0.420858
0.194852
0.174258
-0.15332
0.0847193
-0.0602386
-0.166594
-0.254582
-0.0528964
-0.152287
-0.185489
0.314207
-0.196222
-0.146611
0.449499
0.0282543
0.565354
-0.0347681
0.549656
-0.450634
0.709693
0.074818
0.250987
-0.189716
0.102254
0.147938
-0.177781
0.182443
-0.201702
0.00698149
0.053613
0.157668
-0.132693
0.141861
-0.0657662
-0.00923034
-0.140037
0.119448
-0.151873
0.112898
-0.0230642
0.631197
0.591173
0.59745
0.638367
0.762049
0.647615
0.737291
0.649951
-0.208632
0.179162
-0.211909
0.157903
-0.029592
-0.124921
0.236393
0.180068
-0.0664951
0.155443
-0.20847
0.140668
0.0118145
0.220132
-0.0936627
0.296108
-0.143768
0.295088
0.251873
-0.153275
-0.30395
0.310201
-0.210536
0.367742
-0.145245
0.412674
-0.186808
0.243326
-0.0281606
-0.196803
0.660952
-0.0972687
0.750988
0.398836
0.41127
-0.154728
0.448606
-0.213428
0.193231
0.12088
0.0324196
0.22371
0.117354
-0.0189813
0.156622
0.118189
0.53395
0.671892
0.711899
-0.0792068
0.082203
0.0204204
0.0239336
0.0404055
-0.117991
0.0593084
0.011653
0.0496593
0.100848
0.0828101
-0.0489447
-0.0826439
0.0946361
-0.0985646
0.109055
-0.0368484
-0.0345978
0.105519
0.0440335
0.0657039
0.0264074
0.0845206
-0.067191
-0.0934076
0.0768373
0.0149295
0.0557441
-0.0998233
0.0815068
0.107068
-0.0128236
-0.0513843
0.0245742
0.096476
0.0125983
0.0578983
0.104239
-0.00708618
-0.0686311
0.0764836
0.0123642
-0.073071
0.0890315
0.105494
-0.0606423
0.0406338
-0.055445
0.142464
-0.0534366
0.122775
-0.136141
0.0796508
-0.0492804
0.0963035
-0.14669
0.0992746
-0.073574
-0.409785
0.150006
-0.267156
0.576544
-0.155686
0.5254
-0.330547
0.48378
-0.309522
-0.307639
0.154319
-0.22292
-0.266014
0.205776
-0.261974
0.0953799
0.182614
-0.235511
0.16192
0.0919776
-0.277467
-0.277181
0.0809594
-0.211457
0.0648452
-0.236624
0.686123
-0.663429
0.691683
0.530586
0.313032
0.0462634
-0.573457
0.648275
-0.174448
-0.0152681
-0.109203
0.00466175
-0.213196
0.0114939
-0.167467
-0.159583
0.00916738
-0.161129
0.0953628
0.145817
-0.155047
-0.11083
-0.0292071
-0.0324245
-0.0482307
-0.133894
0.0575527
0.533621
-0.0974624
0.694913
0.560038
0.0783298
0.311004
0.451045
0.657377
-0.00976136
0.469268
0.268023
0.476037
0.173914
-0.0327462
0.208628
-0.0507253
-0.166252
0.13666
0.0683093
0.0701409
0.142133
0.193054
-0.0376116
0.0434033
0.258349
-0.117681
-0.196156
0.20797
0.126469
-0.00784196
0.114581
0.0989327
0.090051
0.0996651
0.384244
-0.0165022
0.238999
0.257947
0.164894
0.251803
0.563683
0.185549
0.565439
0.596819
0.165298
-0.0564623
0.197718
0.163679
-0.0463251
0.144697
0.18158
-0.0249574
-0.0628284
0.181017
-0.27042
0.80437
0.401472
0.361558
0.350341
0.117449
-0.0352462
0.0994772
-0.0790568
0.0933073
-0.0693737
0.0995871
-0.0591816
0.0996707
-0.0403623
-0.0709961
0.0826491
0.100149
-0.0504897
0.0298523
0.000166186
0.0512043
-0.00392848
0.0744574
0.0686708
0.0891985
-0.045165
-0.0766388
0.103046
-0.0088871
-0.11668
0.0494891
0.0994194
-0.0225822
-0.101752
-0.046008
0.00724459
0.0933629
-0.0118561
-0.0935213
0.0806977
0.0660649
0.102348
-0.0781817
0.0907775
0.106248
-0.0483506
0.094189
-0.101275
0.124191
-0.0477075
0.088468
-0.0761038
0.0324234
0.127975
-0.0389435
-0.111176
0.0505338
0.10906
-0.0684262
-0.128938
0.0734931
-0.125779
0.072342
-0.0111189
-0.0492873
-0.126857
0.0775767
-0.0305536
-0.0474151
0.035486
0.444736
-0.29473
-0.429554
0.162398
0.00308726
0.369714
0.153233
0.135214
-0.275235
-0.322253
0.0993324
-0.303172
0.037158
-0.116477
-0.0793598
-0.207793
-0.0735914
-0.185203
-0.212622
-0.176779
0.257739
0.409077
0.277046
0.433613
0.258071
0.392221
0.138365
0.705253
-0.447352
0.493616
0.200922
0.183207
-0.198475
0.169178
-0.27838
0.16713
-0.162468
0.21869
-0.207196
-0.000337018
-0.184662
0.0250791
-0.128546
0.137713
-0.0331828
-0.0388448
-0.0173343
-0.131957
0.102749
-0.140593
0.108168
-0.151953
0.103722
0.61759
0.436158
0.696634
0.547598
0.579027
-0.172552
0.623597
0.484825
0.466276
0.582991
-0.211377
0.178631
-0.175005
0.12428
-0.0747173
-0.149861
0.21817
0.180369
-0.110228
0.212425
-0.0702923
0.174814
0.200585
-0.157181
0.082904
0.118548
0.0894222
0.245017
0.237175
-0.159855
0.274435
-0.140864
0.239796
0.22578
-0.135729
0.264826
-0.165161
-0.281258
0.264756
-0.165632
0.404631
-0.115889