/*--------------------------------*- C++ -*----------------------------------*\
| =========                 |                                                 |
| \\      /  F ield         | OpenFOAM: The Open Source CFD Toolbox           |
|  \\    /   O peration     | Version:  v2012                                 |
|   \\  /    A nd           | Website:  www.openfoam.com                      |
|    \\/     M anipulation  |                                                 |
\*---------------------------------------------------------------------------*/
FoamFile
{
    version     2.0;
    format      ascii;
    class       pointVectorField;
    location    "1";
    object      pointDisplacement;
}
// * * * * * * * * * * * * * * * * * * * * * * * * * * * * * * * * * * * * * //

dimensions      [0 1 0 0 0 0 0];


internalField   nonuniform List<vector> 
16294
(
(0 0 0)
(0 0 0)
(0 0 0)
(0 0 0)
(0 0 0)
(0 0 0)
(0 0 0)
(0 0 0)
(0 0 0)
(0 0 0)
(0 0 0)
(0 0 0)
(0 0 0)
(0 0 0)
(0 0 0)
(0 0 0)
(0 0 0)
(0 0 0)
(0 0 0)
(0 0 0)
(0 0 0)
(0 0 0)
(0 0 0)
(0 0 0)
(0 0 0)
(0 0 0)
(0 0 0)
(0 0 0)
(0 0 0)
(0 0 0)
(0 0 0)
(0 0 0)
(0 0 0)
(0 0 0)
(0 0 0)
(0 0 0)
(0 0 0)
(0 0 0)
(0 0 0)
(0 0 0)
(0 0 0)
(0 0 0)
(0 0 0)
(0 0 0)
(0 0 0)
(0 0 0)
(0 0 0)
(0 0 0)
(0 0 0)
(0 0 0)
(0 0 0)
(0 0 0)
(0 0 0)
(0 0 0)
(0 0 0)
(0 0 0)
(0 0 0)
(0 0 0)
(0 0 0)
(0 0 0)
(0 0 0)
(0 0 0)
(0 0 0)
(0 0 0)
(0 0 0)
(0 0 0)
(0 0 0)
(0 0 0)
(0 0 0)
(0 0 0)
(0 0 0)
(0 0 0)
(0 0 0)
(0 0 0)
(0 0 0)
(0 0 0)
(0 0 0)
(0 0 0)
(0 0 0)
(0 0 0)
(0 0 0)
(0 0 0)
(0 0 0)
(0 0 0)
(0 0 0)
(0 0 0)
(0 0 0)
(0 0 0)
(0 0 0)
(0 0 0)
(0 0 0)
(0 0 0)
(0 0 0)
(0 0 0)
(0 0 0)
(0 0 0)
(0 0 0)
(0 0 0)
(0 0 0)
(0 0 0)
(0 0 0)
(0 0 0)
(0 0 0)
(0 0 0)
(0 0 0)
(0 0 0)
(0 0 0)
(-4.27084e-06 -5.32336e-05 0)
(-4.14805e-06 -5.44815e-05 0)
(-4.026e-06 -5.57038e-05 0)
(-3.90488e-06 -5.69e-05 0)
(-3.78487e-06 -5.80695e-05 0)
(-3.66611e-06 -5.92121e-05 0)
(-3.54877e-06 -6.03272e-05 0)
(-3.43297e-06 -6.14149e-05 0)
(-3.31884e-06 -6.24746e-05 0)
(-3.2065e-06 -6.35065e-05 0)
(-3.09606e-06 -6.45102e-05 0)
(-2.98758e-06 -6.54862e-05 0)
(-2.88118e-06 -6.64343e-05 0)
(-2.7769e-06 -6.73546e-05 0)
(-2.67484e-06 -6.82474e-05 0)
(-2.57501e-06 -6.91128e-05 0)
(-2.47747e-06 -6.99513e-05 0)
(-2.38226e-06 -7.0763e-05 0)
(-2.2894e-06 -7.15485e-05 0)
(-2.19892e-06 -7.2308e-05 0)
(-2.11083e-06 -7.30421e-05 0)
(-2.02513e-06 -7.37511e-05 0)
(-1.94182e-06 -7.44356e-05 0)
(-1.86091e-06 -7.50962e-05 0)
(-1.78236e-06 -7.57331e-05 0)
(-1.70618e-06 -7.63471e-05 0)
(-1.63234e-06 -7.69388e-05 0)
(-1.56082e-06 -7.75086e-05 0)
(-1.49158e-06 -7.8057e-05 0)
(-1.4246e-06 -7.85848e-05 0)
(-1.35983e-06 -7.90925e-05 0)
(-1.29725e-06 -7.95808e-05 0)
(-1.2368e-06 -8.00499e-05 0)
(-1.17846e-06 -8.05008e-05 0)
(-1.12217e-06 -8.09338e-05 0)
(-1.06789e-06 -8.13495e-05 0)
(-1.01558e-06 -8.17487e-05 0)
(-9.65177e-07 -8.21316e-05 0)
(-9.16641e-07 -8.2499e-05 0)
(-8.69922e-07 -8.28514e-05 0)
(-8.24972e-07 -8.31892e-05 0)
(-7.81738e-07 -8.3513e-05 0)
(-7.40171e-07 -8.38233e-05 0)
(-7.00224e-07 -8.41207e-05 0)
(-6.61841e-07 -8.44055e-05 0)
(-6.2498e-07 -8.46783e-05 0)
(-5.8959e-07 -8.49394e-05 0)
(-5.55619e-07 -8.51894e-05 0)
(-5.23024e-07 -8.54287e-05 0)
(-4.91757e-07 -8.56577e-05 0)
(-4.61773e-07 -8.58767e-05 0)
(-4.33023e-07 -8.60863e-05 0)
(-4.05467e-07 -8.62868e-05 0)
(-3.79062e-07 -8.64786e-05 0)
(-3.53764e-07 -8.66618e-05 0)
(-3.29531e-07 -8.68371e-05 0)
(-3.06326e-07 -8.70046e-05 0)
(-2.8411e-07 -8.71647e-05 0)
(-2.6284e-07 -8.73178e-05 0)
(-2.42484e-07 -8.7464e-05 0)
(-2.23006e-07 -8.76037e-05 0)
(-2.0437e-07 -8.77371e-05 0)
(-1.86543e-07 -8.78647e-05 0)
(-1.69493e-07 -8.79865e-05 0)
(-1.53188e-07 -8.81028e-05 0)
(-9.44523e-08 -8.81028e-05 0)
(-3.50129e-08 -8.81028e-05 0)
(2.46635e-08 -8.81028e-05 0)
(8.41028e-08 -8.81028e-05 0)
(1.42838e-07 -8.81028e-05 0)
(1.59157e-07 -8.79866e-05 0)
(1.76222e-07 -8.78647e-05 0)
(1.94064e-07 -8.77372e-05 0)
(2.12715e-07 -8.76037e-05 0)
(2.32209e-07 -8.74641e-05 0)
(2.52583e-07 -8.73178e-05 0)
(2.7387e-07 -8.71647e-05 0)
(2.96105e-07 -8.70046e-05 0)
(3.19331e-07 -8.68371e-05 0)
(3.43583e-07 -8.66619e-05 0)
(3.68903e-07 -8.64786e-05 0)
(3.95331e-07 -8.62869e-05 0)
(4.22911e-07 -8.60864e-05 0)
(4.51685e-07 -8.58768e-05 0)
(4.81695e-07 -8.56577e-05 0)
(5.12988e-07 -8.54288e-05 0)
(5.45612e-07 -8.51895e-05 0)
(5.79612e-07 -8.49395e-05 0)
(6.15033e-07 -8.46784e-05 0)
(6.51925e-07 -8.44056e-05 0)
(6.90342e-07 -8.41208e-05 0)
(7.30324e-07 -8.38234e-05 0)
(7.71928e-07 -8.35131e-05 0)
(8.152e-07 -8.31893e-05 0)
(8.6019e-07 -8.28515e-05 0)
(9.06949e-07 -8.24991e-05 0)
(9.55529e-07 -8.21318e-05 0)
(1.00598e-06 -8.17488e-05 0)
(1.05834e-06 -8.13496e-05 0)
(1.11267e-06 -8.09339e-05 0)
(1.169e-06 -8.05009e-05 0)
(1.2274e-06 -8.00501e-05 0)
(1.2879e-06 -7.95809e-05 0)
(1.35054e-06 -7.90927e-05 0)
(1.41537e-06 -7.8585e-05 0)
(1.48242e-06 -7.80572e-05 0)
(1.55172e-06 -7.75087e-05 0)
(1.6233e-06 -7.6939e-05 0)
(1.69722e-06 -7.63473e-05 0)
(1.77347e-06 -7.57333e-05 0)
(1.85209e-06 -7.50964e-05 0)
(1.93308e-06 -7.44359e-05 0)
(2.01647e-06 -7.37514e-05 0)
(2.10225e-06 -7.30423e-05 0)
(2.19043e-06 -7.23082e-05 0)
(2.281e-06 -7.15488e-05 0)
(2.37395e-06 -7.07633e-05 0)
(2.46926e-06 -6.99516e-05 0)
(2.56689e-06 -6.91131e-05 0)
(2.66682e-06 -6.82477e-05 0)
(2.76899e-06 -6.73549e-05 0)
(2.87337e-06 -6.64346e-05 0)
(2.97989e-06 -6.54865e-05 0)
(3.08848e-06 -6.45106e-05 0)
(3.19904e-06 -6.35068e-05 0)
(3.3115e-06 -6.2475e-05 0)
(3.42575e-06 -6.14153e-05 0)
(3.54168e-06 -6.03276e-05 0)
(3.65916e-06 -5.92125e-05 0)
(3.77805e-06 -5.807e-05 0)
(3.89819e-06 -5.69005e-05 0)
(4.01946e-06 -5.57043e-05 0)
(4.14165e-06 -5.4482e-05 0)
(4.26459e-06 -5.32341e-05 0)
(1.75193e-34 -1.74303e-32 0)
(1.87924e-21 -2.82306e-20 0)
(1.028e-22 -1.5443e-21 0)
(6.9395e-20 -1.03833e-18 0)
(1.22983e-20 -1.84185e-19 0)
(5.94893e-20 -8.91574e-19 0)
(6.52569e-21 -1.04012e-19 0)
(1.44518e-19 -2.18493e-18 0)
(2.03197e-21 -3.23795e-20 0)
(6.53692e-39 -7.49851e-37 0)
(4.78865e-38 -5.497e-36 0)
(1.51763e-36 -1.51277e-34 0)
(2.77291e-19 -4.15755e-18 0)
(8.42886e-19 -1.26069e-17 0)
(2.40574e-19 -3.59578e-18 0)
(5.2837e-37 -6.1981e-35 0)
(1.27694e-37 -1.74662e-35 0)
(5.12665e-36 -5.98486e-34 0)
(7.92528e-36 -7.90404e-34 0)
(2.71068e-37 -3.11583e-35 0)
(5.20038e-39 -5.97115e-37 0)
(1.30732e-17 -3.08987e-16 0)
(2.0929e-17 -5.46391e-16 0)
(8.0508e-17 -1.82517e-15 0)
(1.60377e-13 -2.29583e-12 0)
(8.52346e-13 -1.22261e-11 0)
(4.60435e-13 -6.56267e-12 0)
(2.63491e-35 -3.03155e-33 0)
(2.73669e-35 -3.12025e-33 0)
(1.03471e-35 -1.18792e-33 0)
(8.53074e-22 -1.36866e-20 0)
(3.74615e-32 -3.72741e-30 0)
(1.0707e-31 -1.06509e-29 0)
(1.77479e-34 -2.05818e-32 0)
(6.69288e-34 -7.60265e-32 0)
(1.19167e-34 -1.36231e-32 0)
(5.78944e-41 -3.28428e-38 0)
(3.98869e-37 -4.60569e-35 0)
(1.43486e-41 -8.13978e-39 0)
(3.49862e-38 -4.02566e-36 0)
(7.65573e-39 -8.79772e-37 0)
(1.18288e-11 -2.50679e-10 0)
(1.24955e-12 -2.7322e-11 0)
(1.90571e-12 -4.25749e-11 0)
(4.8548e-13 -7.04805e-12 0)
(1.37456e-13 -2.0078e-12 0)
(2.62196e-13 -3.87691e-12 0)
(2.85044e-30 -2.84102e-28 0)
(1.65742e-29 -1.65065e-27 0)
(7.12509e-30 -7.08993e-28 0)
(8.91869e-28 -8.87293e-26 0)
(2.48149e-28 -2.46915e-26 0)
(2.10752e-28 -2.10383e-26 0)
(4.96371e-37 -2.80933e-34 0)
(4.7022e-38 -2.66751e-35 0)
(1.25873e-37 -7.14062e-35 0)
(9.95118e-39 -5.64519e-36 0)
(1.15614e-36 -1.52071e-34 0)
(6.62446e-38 -7.63416e-36 0)
(4.47399e-43 -2.53804e-40 0)
(4.73203e-13 -1.03468e-11 0)
(1.49738e-11 -2.21053e-10 0)
(9.49962e-12 -1.48414e-10 0)
(3.43944e-11 -5.30058e-10 0)
(3.76807e-09 -4.9255e-08 0)
(1.05354e-08 -1.3277e-07 0)
(2.31767e-33 -1.31479e-30 0)
(2.1986e-32 -1.2236e-29 0)
(8.89241e-34 -5.04456e-31 0)
(1.44384e-35 -1.88389e-33 0)
(2.5816e-35 -3.03274e-33 0)
(2.00091e-36 -2.85182e-34 0)
(9.51477e-19 -2.59468e-17 0)
(8.36241e-18 -2.28097e-16 0)
(9.77331e-18 -2.61954e-16 0)
(-2.50175e-31 -1.64302e-29 0)
(-2.26843e-30 -1.49001e-28 0)
(-1.40848e-29 -9.25135e-28 0)
(-5.67248e-30 -3.725e-28 0)
(-2.74656e-29 -1.80348e-27 0)
(-5.16812e-20 -1.07482e-18 0)
(7.66123e-39 -4.34613e-36 0)
(5.33687e-38 -3.02755e-35 0)
(1.50045e-38 -8.51188e-36 0)
(1.72486e-39 -9.78493e-37 0)
(2.12246e-40 -1.20405e-37 0)
(6.0061e-40 -3.4072e-37 0)
(1.6405e-42 -9.30635e-40 0)
(3.78583e-42 -2.14766e-39 0)
(1.88812e-41 -1.07111e-38 0)
(2.19093e-08 -4.99679e-07 0)
(5.67469e-09 -1.33606e-07 0)
(1.14797e-08 -2.81728e-07 0)
(1.42099e-22 -1.41188e-20 0)
(4.35632e-23 -4.32838e-21 0)
(1.90882e-22 -1.89658e-20 0)
(1.61765e-10 -3.69507e-09 0)
(2.01615e-10 -4.42905e-09 0)
(4.33599e-11 -9.81254e-10 0)
(1.24223e-09 -1.50592e-08 0)
(1.25701e-35 -7.13089e-33 0)
(6.0478e-36 -3.43085e-33 0)
(0 0 0)
(2.45006e-25 -2.66396e-23 0)
(1.39128e-26 -7.3976e-24 0)
(2.26276e-24 -2.30065e-22 0)
(-1.80806e-31 -1.18776e-29 0)
(0 0 0)
(-1.9905e-29 -1.30777e-27 0)
(-5.59563e-30 -3.67631e-28 0)
(-1.93753e-22 -4.03886e-21 0)
(-2.1425e-21 -4.4627e-20 0)
(-9.15673e-22 -1.90875e-20 0)
(8.43049e-39 -4.78252e-36 0)
(2.7107e-38 -1.53775e-35 0)
(0 0 0)
(0 0 0)
(0 0 0)
(0 0 0)
(0 0 0)
(0 0 0)
(0 0 0)
(9.51021e-18 -6.09144e-16 0)
(4.72178e-17 -3.02196e-15 0)
(7.26673e-18 -4.64388e-16 0)
(7.91182e-10 -1.72479e-08 0)
(3.75204e-19 -2.44309e-17 0)
(1.85024e-18 -1.20396e-16 0)
(4.21494e-19 -2.73891e-17 0)
(1.28694e-09 -2.67328e-08 0)
(3.88086e-09 -7.55516e-08 0)
(1.01383e-09 -1.98476e-08 0)
(5.65867e-07 -7.15627e-06 0)
(1.83467e-07 -2.27804e-06 0)
(0 0 0)
(0 0 0)
(0 0 0)
(0 0 0)
(0 0 0)
(0 0 0)
(2.91892e-36 -1.65587e-33 0)
(1.08291e-35 -6.14325e-33 0)
(5.32407e-36 -3.02028e-33 0)
(9.26963e-19 -9.21019e-17 0)
(3.25513e-18 -3.23426e-16 0)
(9.55549e-19 -9.49422e-17 0)
(-1.97483e-21 -1.28678e-19 0)
(-1.54576e-21 -1.01032e-19 0)
(-4.82729e-22 -3.13433e-20 0)
(-6.37344e-14 -9.35875e-13 0)
(-7.8626e-30 -5.16681e-28 0)
(-8.97559e-31 -8.26186e-29 0)
(-2.48148e-34 -2.62918e-32 0)
(-4.56384e-35 -4.83548e-33 0)
(-5.35551e-27 -3.51907e-25 0)
(-1.2916e-26 -8.48595e-25 0)
(-1.75849e-26 -1.15562e-24 0)
(0 0 0)
(0 0 0)
(3.53432e-41 -2.00498e-38 0)
(1.26349e-07 -3.87112e-06 0)
(3.75885e-08 -1.18763e-06 0)
(9.84183e-08 -3.17983e-06 0)
(9.35709e-08 -2.29081e-06 0)
(1.02801e-07 -2.41683e-06 0)
(3.51897e-08 -8.46608e-07 0)
(9.54411e-13 -6.21716e-11 0)
(6.29706e-13 -4.19571e-11 0)
(2.81976e-12 -1.84729e-10 0)
(1.11958e-09 -2.07019e-08 0)
(2.60254e-09 -4.69935e-08 0)
(1.96413e-09 -3.19916e-08 0)
(2.63307e-07 -4.04035e-06 0)
(2.35069e-07 -3.78433e-06 0)
(5.00655e-07 -7.81835e-06 0)
(2.18254e-07 -3.0131e-06 0)
(6.14866e-07 -8.20545e-06 0)
(2.61271e-07 -3.43906e-06 0)
(4.62329e-08 -5.60833e-07 0)
(0 0 0)
(0 0 0)
(0 0 0)
(0 0 0)
(0 0 0)
(0 0 0)
(0 0 0)
(0 0 0)
(0 0 0)
(3.0905e-16 -1.16129e-13 0)
(6.0367e-17 -2.25457e-14 0)
(1.18327e-16 -4.89074e-14 0)
(-4.71524e-16 -3.12689e-14 0)
(-1.36704e-15 -9.02247e-14 0)
(-1.60847e-15 -1.07102e-13 0)
(-1.84825e-11 -2.84865e-10 0)
(-2.90612e-11 -4.58131e-10 0)
(-6.55125e-12 -1.02625e-10 0)
(-9.24854e-31 -6.07602e-29 0)
(0 0 0)
(0 0 0)
(-1.54854e-28 -1.01795e-26 0)
(-2.44671e-29 -1.6084e-27 0)
(-2.90356e-28 -1.90841e-26 0)
(-1.64689e-30 -1.51584e-28 0)
(-4.84063e-30 -4.45547e-28 0)
(-3.80344e-31 -3.50095e-29 0)
(-4.37093e-24 -2.87816e-22 0)
(-2.44859e-27 -2.25372e-25 0)
(-2.04321e-24 -1.34438e-22 0)
(0 0 0)
(0 0 0)
(0 0 0)
(0 0 0)
(0 0 0)
(0 0 0)
(0 0 0)
(0 0 0)
(0 0 0)
(0 0 0)
(1.98473e-08 -6.08447e-07 0)
(5.98521e-08 -1.81156e-06 0)
(3.31365e-08 -9.73027e-07 0)
(1.48212e-09 -5.45556e-08 0)
(4.32443e-09 -1.59178e-07 0)
(7.48216e-10 -2.75411e-08 0)
(7.97021e-09 -2.04952e-07 0)
(2.76565e-09 -7.11086e-08 0)
(3.44988e-08 -8.6142e-07 0)
(9.20848e-08 -2.34564e-06 0)
(1.26174e-17 -1.25365e-15 0)
(8.76157e-18 -8.7054e-16 0)
(4.66388e-17 -4.63398e-15 0)
(3.98568e-07 -7.25764e-06 0)
(4.05438e-07 -7.04425e-06 0)
(1.7974e-07 -3.22192e-06 0)
(4.58843e-07 -7.55087e-06 0)
(1.79709e-07 -3.06138e-06 0)
(6.83161e-09 -1.10307e-07 0)
(2.44731e-08 -3.7676e-07 0)
(6.50387e-09 -9.93767e-08 0)
(0 0 0)
(0 0 0)
(0 0 0)
(0 0 0)
(0 0 0)
(0 0 0)
(0 0 0)
(0 0 0)
(0 0 0)
(0 0 0)
(0 0 0)
(0 0 0)
(3.33114e-18 -1.8697e-15 0)
(9.50913e-19 -5.32149e-16 0)
(8.66516e-19 -4.88134e-16 0)
(0 0 0)
(0 0 0)
(0 0 0)
(-6.92503e-08 -1.08988e-06 0)
(-2.01674e-07 -3.14201e-06 0)
(-8.92362e-08 -1.46057e-06 0)
(-8.41204e-22 -5.41022e-20 0)
(0 0 0)
(0 0 0)
(-2.1234e-35 -1.95459e-33 0)
(-1.56296e-34 -1.43871e-32 0)
(0 0 0)
(-1.08166e-27 -7.10956e-26 0)
(-8.71325e-28 -5.72838e-26 0)
(-7.0176e-15 -1.48602e-13 0)
(-9.5118e-16 -2.01419e-14 0)
(0 0 0)
(0 0 0)
(0 0 0)
(0 0 0)
(0 0 0)
(0 0 0)
(0 0 0)
(0 0 0)
(0 0 0)
(7.58973e-12 -2.79371e-10 0)
(3.01188e-10 -1.10864e-08 0)
(2.92666e-07 -6.22586e-06 0)
(3.28782e-07 -6.64602e-06 0)
(1.3417e-07 -2.78394e-06 0)
(8.33074e-09 -1.85323e-07 0)
(0 0 0)
(0 0 0)
(0 0 0)
(1.08281e-08 -6.75051e-07 0)
(2.44356e-09 -1.49577e-07 0)
(2.34933e-09 -1.49266e-07 0)
(2.01112e-07 -3.72885e-06 0)
(5.76503e-08 -8.08483e-07 0)
(7.36785e-08 -1.06336e-06 0)
(0 0 0)
(0 0 0)
(0 0 0)
(0 0 0)
(0 0 0)
(0 0 0)
(0 0 0)
(0 0 0)
(0 0 0)
(0 0 0)
(0 0 0)
(0 0 0)
(2.12543e-14 -1.17066e-11 0)
(9.1366e-14 -5.01767e-11 0)
(3.32902e-14 -1.81149e-11 0)
(0 0 0)
(0 0 0)
(9.01522e-18 -3.37182e-15 0)
(-1.84452e-07 -2.23997e-06 0)
(-6.43012e-13 -1.36278e-11 0)
(-1.07956e-12 -2.28069e-11 0)
(-4.26601e-12 -9.00704e-11 0)
(-1.25159e-20 -1.14898e-18 0)
(-4.57671e-20 -4.19881e-18 0)
(-3.96006e-20 -3.63941e-18 0)
(-3.23395e-29 -3.42644e-27 0)
(-7.2329e-25 -6.65727e-23 0)
(-7.7423e-29 -8.20314e-27 0)
(0 0 0)
(-9.44199e-31 -6.2047e-29 0)
(-9.4115e-31 -6.18563e-29 0)
(0 0 0)
(-1.17915e-33 -1.08541e-31 0)
(-1.16503e-33 -1.07239e-31 0)
(0 0 0)
(0 0 0)
(0 0 0)
(0 0 0)
(0 0 0)
(0 0 0)
(0 0 0)
(0 0 0)
(0 0 0)
(1.28006e-07 -3.72399e-06 0)
(0 0 0)
(3.75237e-08 -1.40646e-06 0)
(1.38731e-08 -5.10655e-07 0)
(5.49274e-08 -1.18727e-06 0)
(1.42857e-07 -3.10113e-06 0)
(1.68314e-08 -4.80719e-07 0)
(5.9873e-08 -1.61625e-06 0)
(2.21202e-08 -5.79564e-07 0)
(5.47086e-11 -5.43578e-09 0)
(5.88485e-11 -5.84712e-09 0)
(2.76338e-10 -2.74566e-08 0)
(1.05771e-08 -6.24644e-07 0)
(8.31366e-09 -4.60655e-07 0)
(0 0 0)
(3.63991e-09 -2.48297e-07 0)
(1.00901e-08 -6.64642e-07 0)
(3.29165e-09 -2.1633e-07 0)
(0 0 0)
(0 0 0)
(0 0 0)
(0 0 0)
(0 0 0)
(0 0 0)
(0 0 0)
(0 0 0)
(0 0 0)
(0 0 0)
(0 0 0)
(0 0 0)
(0 0 0)
(0 0 0)
(4.09247e-18 -2.41709e-15 0)
(9.04113e-18 -5.33987e-15 0)
(8.89741e-17 -5.08844e-14 0)
(0 0 0)
(4.5802e-14 -2.41943e-11 0)
(8.06639e-14 -4.3637e-11 0)
(2.41933e-14 -1.22248e-11 0)
(1.02905e-13 -4.99503e-11 0)
(3.2873e-14 -1.5177e-11 0)
(0 0 0)
(0 0 0)
(0 0 0)
(-5.23476e-08 -7.70873e-07 0)
(-1.39572e-07 -1.91486e-06 0)
(-1.75574e-07 -2.55297e-06 0)
(-2.25089e-07 -3.77474e-06 0)
(-4.78443e-07 -7.84249e-06 0)
(-4.24615e-07 -7.32615e-06 0)
(-1.48619e-09 -3.14789e-08 0)
(-3.62877e-09 -7.61909e-08 0)
(-7.36656e-09 -1.55905e-07 0)
(-8.14546e-20 -5.17979e-18 0)
(-1.31197e-20 -8.34298e-19 0)
(-1.0352e-20 -6.58295e-19 0)
(-1.18695e-15 -7.60464e-14 0)
(-3.97428e-16 -2.5498e-14 0)
(-4.89195e-16 -3.11743e-14 0)
(-5.82404e-15 -3.81481e-13 0)
(-1.6392e-15 -1.06398e-13 0)
(-7.20601e-15 -4.68403e-13 0)
(0 0 0)
(0 0 0)
(0 0 0)
(0 0 0)
(0 0 0)
(0 0 0)
(0 0 0)
(0 0 0)
(0 0 0)
(0 0 0)
(0 0 0)
(0 0 0)
(0 0 0)
(0 0 0)
(0 0 0)
(0 0 0)
(0 0 0)
(0 0 0)
(0 0 0)
(0 0 0)
(0 0 0)
(0 0 0)
(0 0 0)
(0 0 0)
(0 0 0)
(0 0 0)
(9.0913e-09 -2.634e-07 0)
(0 0 0)
(0 0 0)
(0 0 0)
(4.74351e-09 -1.35251e-07 0)
(0 0 0)
(3.07e-09 -2.21795e-07 0)
(4.35512e-10 -3.10844e-08 0)
(0 0 0)
(3.82661e-09 -3.30943e-07 0)
(0 0 0)
(0 0 0)
(2.30084e-09 -1.61559e-07 0)
(7.99832e-09 -5.53083e-07 0)
(0 0 0)
(0 0 0)
(0 0 0)
(0 0 0)
(0 0 0)
(0 0 0)
(0 0 0)
(0 0 0)
(0 0 0)
(0 0 0)
(0 0 0)
(0 0 0)
(0 0 0)
(0 0 0)
(0 0 0)
(0 0 0)
(0 0 0)
(0 0 0)
(0 0 0)
(0 0 0)
(0 0 0)
(2.65171e-10 -1.09267e-07 0)
(1.13786e-09 -4.70553e-07 0)
(1.84133e-09 -6.65475e-07 0)
(0 0 0)
(0 0 0)
(0 0 0)
(0 0 0)
(0 0 0)
(0 0 0)
(0 0 0)
(0 0 0)
(1.13138e-09 -1.76404e-07 0)
(-4.62517e-07 -6.83505e-06 0)
(-4.8654e-07 -7.60613e-06 0)
(-3.68697e-07 -5.1991e-06 0)
(-3.43934e-07 -6.26423e-06 0)
(-1.52805e-07 -2.89295e-06 0)
(-1.16312e-07 -2.13347e-06 0)
(-8.59725e-08 -1.46457e-06 0)
(-3.04136e-08 -5.15325e-07 0)
(-2.64028e-07 -3.46252e-06 0)
(-5.37246e-07 -6.79033e-06 0)
(-3.95414e-08 -7.49499e-07 0)
(-4.48287e-08 -8.93934e-07 0)
(-1.28588e-08 -2.54006e-07 0)
(-2.49564e-07 -5.29676e-06 0)
(-6.76348e-08 -1.44343e-06 0)
(-1.05129e-07 -2.18875e-06 0)
(0 0 0)
(0 0 0)
(0 0 0)
(-3.16475e-16 -2.0125e-14 0)
(-4.88354e-17 -3.10549e-15 0)
(-1.44356e-16 -9.17973e-15 0)
(-5.00971e-15 -3.18573e-13 0)
(-7.49523e-15 -4.76629e-13 0)
(-2.52545e-15 -1.60596e-13 0)
(-2.52539e-20 -2.70423e-18 0)
(-7.66097e-21 -9.49787e-19 0)
(0 0 0)
(0 0 0)
(0 0 0)
(0 0 0)
(0 0 0)
(0 0 0)
(0 0 0)
(0 0 0)
(0 0 0)
(0 0 0)
(0 0 0)
(0 0 0)
(0 0 0)
(0 0 0)
(0 0 0)
(0 0 0)
(0 0 0)
(0 0 0)
(0 0 0)
(0 0 0)
(0 0 0)
(0 0 0)
(0 0 0)
(0 0 0)
(0 0 0)
(0 0 0)
(0 0 0)
(0 0 0)
(0 0 0)
(0 0 0)
(5.60182e-12 -5.5659e-10 0)
(3.40669e-12 -3.38484e-10 0)
(1.71323e-11 -1.70224e-09 0)
(2.24931e-10 -2.23489e-08 0)
(1.43784e-09 -1.42862e-07 0)
(1.16934e-09 -1.16184e-07 0)
(0 0 0)
(0 0 0)
(0 0 0)
(0 0 0)
(0 0 0)
(0 0 0)
(0 0 0)
(0 0 0)
(0 0 0)
(0 0 0)
(0 0 0)
(0 0 0)
(0 0 0)
(0 0 0)
(0 0 0)
(0 0 0)
(0 0 0)
(0 0 0)
(0 0 0)
(0 0 0)
(0 0 0)
(0 0 0)
(0 0 0)
(0 0 0)
(0 0 0)
(4.42865e-10 -2.43177e-07 0)
(1.28251e-09 -6.56587e-07 0)
(3.49553e-10 -1.80396e-07 0)
(3.44952e-10 -1.44717e-07 0)
(3.72243e-11 -1.0838e-08 0)
(1.3731e-11 -4.3448e-09 0)
(5.00905e-11 -1.56809e-08 0)
(0 0 0)
(0 0 0)
(0 0 0)
(5.31548e-09 -6.4188e-07 0)
(0 0 0)
(3.99665e-09 -5.17471e-07 0)
(0 0 0)
(0 0 0)
(-6.68538e-07 -9.38601e-06 0)
(-4.42219e-08 -8.07327e-07 0)
(-1.62693e-07 -2.86609e-06 0)
(-7.55779e-08 -1.00449e-06 0)
(-3.51903e-07 -6.74603e-06 0)
(-7.01539e-08 -1.52731e-06 0)
(-2.98118e-07 -6.02915e-06 0)
(-1.46853e-07 -2.90373e-06 0)
(0 0 0)
(0 0 0)
(0 0 0)
(0 0 0)
(0 0 0)
(0 0 0)
(0 0 0)
(0 0 0)
(0 0 0)
(0 0 0)
(0 0 0)
(-9.83148e-10 -6.6854e-08 0)
(-1.30905e-09 -8.50526e-08 0)
(-2.82563e-09 -1.86607e-07 0)
(-3.38921e-13 -2.15523e-11 0)
(-3.99335e-12 -2.56651e-10 0)
(-1.11664e-12 -7.18233e-11 0)
(0 0 0)
(0 0 0)
(0 0 0)
(0 0 0)
(0 0 0)
(0 0 0)
(0 0 0)
(0 0 0)
(0 0 0)
(0 0 0)
(0 0 0)
(0 0 0)
(0 0 0)
(0 0 0)
(0 0 0)
(0 0 0)
(0 0 0)
(0 0 0)
(0 0 0)
(0 0 0)
(0 0 0)
(0 0 0)
(0 0 0)
(0 0 0)
(0 0 0)
(0 0 0)
(0 0 0)
(0 0 0)
(0 0 0)
(5.98034e-09 -6.06503e-07 0)
(8.10741e-09 -7.82961e-07 0)
(0 0 0)
(1.72445e-08 -8.07637e-07 0)
(0 0 0)
(0 0 0)
(0 0 0)
(0 0 0)
(0 0 0)
(0 0 0)
(0 0 0)
(0 0 0)
(0 0 0)
(0 0 0)
(0 0 0)
(0 0 0)
(0 0 0)
(0 0 0)
(0 0 0)
(0 0 0)
(0 0 0)
(1.26555e-09 -7.93047e-07 0)
(4.19667e-10 -2.8016e-07 0)
(2.15165e-09 -1.42483e-06 0)
(0 0 0)
(0 0 0)
(0 0 0)
(1.40609e-09 -7.92425e-07 0)
(4.63584e-09 -2.7468e-06 0)
(9.0278e-09 -4.77235e-06 0)
(2.02723e-08 -1.14033e-05 0)
(1.50965e-08 -7.44327e-06 0)
(4.25781e-09 -2.05404e-06 0)
(1.97289e-09 -8.73433e-07 0)
(1.06453e-09 -4.94363e-07 0)
(3.08121e-10 -1.14686e-07 0)
(2.52465e-09 -8.35789e-07 0)
(2.45007e-09 -7.28984e-07 0)
(8.48655e-10 -2.6414e-07 0)
(8.0893e-11 -3.59555e-08 0)
(1.56894e-10 -7.68002e-08 0)
(3.08572e-10 -1.38219e-07 0)
(5.85248e-10 -1.61412e-07 0)
(4.59763e-10 -1.35128e-07 0)
(1.25881e-09 -3.55024e-07 0)
(0 0 0)
(2.39201e-09 -5.61753e-07 0)
(0 0 0)
(0 0 0)
(0 0 0)
(0 0 0)
(-1.21958e-22 -7.75543e-21 0)
(0 0 0)
(0 0 0)
(0 0 0)
(0 0 0)
(-2.80136e-08 -1.111e-06 0)
(0 0 0)
(0 0 0)
(-2.7106e-08 -1.01848e-06 0)
(-6.57475e-14 -4.18095e-12 0)
(-8.39812e-14 -5.34046e-12 0)
(-1.64388e-08 -7.25109e-07 0)
(0 0 0)
(0 0 0)
(0 0 0)
(0 0 0)
(0 0 0)
(-1.59302e-09 -1.48088e-07 0)
(-5.23777e-10 -4.98964e-08 0)
(-8.34143e-10 -7.47802e-08 0)
(-2.11601e-10 -1.45381e-08 0)
(-1.62006e-10 -1.06149e-08 0)
(-4.69742e-10 -3.09782e-08 0)
(-4.81059e-10 -3.05911e-08 0)
(-8.48302e-09 -5.28493e-07 0)
(-1.40444e-09 -8.96084e-08 0)
(0 0 0)
(0 0 0)
(0 0 0)
(0 0 0)
(0 0 0)
(0 0 0)
(0 0 0)
(0 0 0)
(0 0 0)
(0 0 0)
(0 0 0)
(0 0 0)
(0 0 0)
(2.84024e-09 -3.07492e-07 0)
(0 0 0)
(0 0 0)
(0 0 0)
(0 0 0)
(0 0 0)
(0 0 0)
(0 0 0)
(0 0 0)
(0 0 0)
(0 0 0)
(0 0 0)
(0 0 0)
(0 0 0)
(0 0 0)
(0 0 0)
(0 0 0)
(0 0 0)
(0 0 0)
(0 0 0)
(4.90195e-09 -5.83801e-06 0)
(0 0 0)
(0 0 0)
(0 0 0)
(0 0 0)
(0 0 0)
(5.93677e-09 -2.64808e-06 0)
(1.34753e-09 -3.93725e-07 0)
(2.2097e-09 -5.98107e-07 0)
(3.1967e-09 -6.92622e-07 0)
(2.31616e-09 -2.64888e-07 0)
(0 0 0)
(0 0 0)
(0 0 0)
(0 0 0)
(0 0 0)
(0 0 0)
(-9.91477e-08 -2.32908e-06 0)
(0 0 0)
(0 0 0)
(0 0 0)
(-2.39761e-08 -1.00188e-06 0)
(0 0 0)
(0 0 0)
(0 0 0)
(-9.18557e-13 -5.84121e-11 0)
(-3.10048e-12 -3.84389e-10 0)
(-5.46636e-13 -6.77705e-11 0)
(-3.5535e-11 -3.89334e-09 0)
(-7.77189e-10 -6.41698e-08 0)
(-1.06553e-09 -8.25579e-08 0)
(-3.13158e-09 -2.43364e-07 0)
(-9.63647e-09 -6.3e-07 0)
(-3.98602e-09 -2.73804e-07 0)
(-8.21233e-09 -4.51292e-07 0)
(0 0 0)
(0 0 0)
(0 0 0)
(0 0 0)
(0 0 0)
(0 0 0)
(0 0 0)
(0 0 0)
(0 0 0)
(0 0 0)
(0 0 0)
(0 0 0)
(0 0 0)
(0 0 0)
(0 0 0)
(0 0 0)
(0 0 0)
(0 0 0)
(0 0 0)
(0 0 0)
(0 0 0)
(0 0 0)
(0 0 0)
(0 0 0)
(0 0 0)
(0 0 0)
(0 0 0)
(0 0 0)
(0 0 0)
(0 0 0)
(0 0 0)
(0 0 0)
(0 0 0)
(0 0 0)
(0 0 0)
(0 0 0)
(0 0 0)
(-4.69261e-09 -3.48823e-06 0)
(0 0 0)
(2.01915e-09 -1.49277e-06 0)
(1.68663e-09 -1.6956e-06 0)
(1.45436e-08 -1.01741e-05 0)
(0 0 0)
(1.00593e-09 -2.04546e-07 0)
(2.04898e-09 -3.91255e-07 0)
(0 0 0)
(0 0 0)
(-6.37339e-12 -4.05291e-10 0)
(-1.09575e-11 -7.0255e-10 0)
(0 0 0)
(0 0 0)
(0 0 0)
(-1.00196e-09 -1.07148e-07 0)
(-7.80464e-10 -7.85574e-08 0)
(-2.78518e-09 -2.82474e-07 0)
(-3.65048e-09 -3.08323e-07 0)
(-3.29744e-09 -2.67582e-07 0)
(-9.70858e-09 -7.89427e-07 0)
(-5.69968e-09 -4.15421e-07 0)
(-1.36397e-09 -9.83285e-08 0)
(0 0 0)
(0 0 0)
(0 0 0)
(0 0 0)
(0 0 0)
(0 0 0)
(0 0 0)
(0 0 0)
(0 0 0)
(0 0 0)
(0 0 0)
(0 0 0)
(0 0 0)
(0 0 0)
(0 0 0)
(0 0 0)
(0 0 0)
(0 0 0)
(0 0 0)
(0 0 0)
(0 0 0)
(0 0 0)
(0 0 0)
(0 0 0)
(0 0 0)
(0 0 0)
(0 0 0)
(0 0 0)
(0 0 0)
(0 0 0)
(0 0 0)
(0 0 0)
(0 0 0)
(0 0 0)
(0 0 0)
(0 0 0)
(0 0 0)
(0 0 0)
(0 0 0)
(0 0 0)
(0 0 0)
(0 0 0)
(0 0 0)
(0 0 0)
(0 0 0)
(0 0 0)
(0 0 0)
(-3.72167e-09 -6.02391e-07 0)
(-2.7192e-09 -4.71982e-07 0)
(0 0 0)
(-3.14893e-09 -3.33055e-07 0)
(-1.94596e-09 -2.14187e-07 0)
(-2.7336e-09 -2.40183e-07 0)
(-8.0133e-09 -6.87103e-07 0)
(0 0 0)
(0 0 0)
(0 0 0)
(0 0 0)
(0 0 0)
(0 0 0)
(0 0 0)
(0 0 0)
(0 0 0)
(0 0 0)
(0 0 0)
(0 0 0)
(0 0 0)
(0 0 0)
(0 0 0)
(0 0 0)
(0 0 0)
(0 0 0)
(0 0 0)
(0 0 0)
(0 0 0)
(0 0 0)
(0 0 0)
(0 0 0)
(0 0 0)
(0 0 0)
(0 0 0)
(0 0 0)
(0 0 0)
(0 0 0)
(0 0 0)
(0 0 0)
(0 0 0)
(-7.082e-09 -7.60473e-07 0)
(-4.68469e-09 -5.34272e-07 0)
(0 0 0)
(0 0 0)
(0 0 0)
(0 0 0)
(0 0 0)
(0 0 0)
(0 0 0)
(0 0 0)
(0 0 0)
(0 0 0)
(0 0 0)
(0 0 0)
(0 0 0)
(0 0 0)
(0 0 0)
(0 0 0)
(0 0 0)
(0 0 0)
(0 0 0)
(0 0 0)
(0 0 0)
(0 0 0)
(-4.51582e-10 -9.28343e-08 0)
(0 0 0)
(0 0 0)
(-2.41873e-09 -3.50129e-07 0)
(-8.2701e-11 -9.25016e-09 0)
(-2.87821e-10 -3.2801e-08 0)
(-1.40876e-11 -1.74654e-09 0)
(0 0 0)
(0 0 0)
(0 0 0)
(0 0 0)
(0 0 0)
(0 0 0)
(0 0 0)
(0 0 0)
(0 0 0)
(0 0 0)
(0 0 0)
(0 0 0)
(0 0 0)
(0 0 0)
(0 0 0)
(0 0 0)
(0 0 0)
(0 0 0)
(0 0 0)
(0 0 0)
(0 0 0)
(0 0 0)
(0 0 0)
(0 0 0)
(0 0 0)
(-1.00792e-09 -1.94197e-07 0)
(0 0 0)
(-4.5929e-09 -5.8187e-07 0)
(-3.21656e-09 -4.37022e-07 0)
(0 0 0)
(0 0 0)
(0 0 0)
(0 0 0)
(0 0 0)
(0 0 0)
(0 0 0)
(0 0 0)
(0 0 0)
(0 0 0)
(0 0 0)
(0 0 0)
(0 0 0)
(0 0 0)
(0 0 0)
(0 0 0)
(0 0 0)
(0 0 0)
(0 0 0)
(0 0 0)
(0 0 0)
(0 0 0)
(0 0 0)
(0 0 0)
(0 0 0)
(0 0 0)
(0 0 0)
(0 0 0)
(0 0 0)
(0 0 0)
(0 0 0)
(0 0 0)
(0 0 0)
(0 0 0)
(0 0 0)
(0 0 0)
(0 0 0)
(0 0 0)
(0 0 0)
(0 0 0)
(0 0 0)
(0 0 0)
(0 0 0)
(0 0 0)
(0 0 0)
(0 0 0)
(0 0 0)
(0 0 0)
(0 0 0)
(0 0 0)
(0 0 0)
(0 0 0)
(0 0 0)
(0 0 0)
(0 0 0)
(0 0 0)
(0 0 0)
(0 0 0)
(0 0 0)
(0 0 0)
(0 0 0)
(0 0 0)
(0 0 0)
(0 0 0)
(0 0 0)
(0 0 0)
(0 0 0)
(0 0 0)
(0 0 0)
(0 0 0)
(0 0 0)
(0 0 0)
(0 0 0)
(0 0 0)
(0 0 0)
(0 0 0)
(0 0 0)
(0 0 0)
(0 0 0)
(0 0 0)
(0 0 0)
(0 0 0)
(0 0 0)
(0 0 0)
(0 0 0)
(0 0 0)
(0 0 0)
(0 0 0)
(0 0 0)
(0 0 0)
(0 0 0)
(0 0 0)
(0 0 0)
(0 0 0)
(0 0 0)
(0 0 0)
(0 0 0)
(0 0 0)
(0 0 0)
(0 0 0)
(0 0 0)
(0 0 0)
(0 0 0)
(0 0 0)
(0 0 0)
(0 0 0)
(0 0 0)
(0 0 0)
(0 0 0)
(0 0 0)
(0 0 0)
(0 0 0)
(0 0 0)
(0 0 0)
(0 0 0)
(0 0 0)
(0 0 0)
(0 0 0)
(0 0 0)
(0 0 0)
(0 0 0)
(0 0 0)
(0 0 0)
(0 0 0)
(0 0 0)
(0 0 0)
(0 0 0)
(0 0 0)
(0 0 0)
(0 0 0)
(0 0 0)
(0 0 0)
(0 0 0)
(0 0 0)
(0 0 0)
(0 0 0)
(0 0 0)
(0 0 0)
(0 0 0)
(0 0 0)
(0 0 0)
(0 0 0)
(0 0 0)
(0 0 0)
(0 0 0)
(0 0 0)
(0 0 0)
(0 0 0)
(0 0 0)
(0 0 0)
(0 0 0)
(0 0 0)
(0 0 0)
(0 0 0)
(0 0 0)
(0 0 0)
(0 0 0)
(0 0 0)
(0 0 0)
(0 0 0)
(0 0 0)
(0 0 0)
(0 0 0)
(0 0 0)
(0 0 0)
(0 0 0)
(0 0 0)
(0 0 0)
(0 0 0)
(0 0 0)
(0 0 0)
(0 0 0)
(0 0 0)
(0 0 0)
(0 0 0)
(0 0 0)
(0 0 0)
(0 0 0)
(0 0 0)
(0 0 0)
(0 0 0)
(0 0 0)
(0 0 0)
(0 0 0)
(0 0 0)
(0 0 0)
(0 0 0)
(0 0 0)
(0 0 0)
(0 0 0)
(0 0 0)
(0 0 0)
(0 0 0)
(0 0 0)
(0 0 0)
(0 0 0)
(0 0 0)
(0 0 0)
(0 0 0)
(0 0 0)
(0 0 0)
(0 0 0)
(0 0 0)
(0 0 0)
(0 0 0)
(0 0 0)
(0 0 0)
(0 0 0)
(0 0 0)
(0 0 0)
(0 0 0)
(0 0 0)
(0 0 0)
(0 0 0)
(0 0 0)
(0 0 0)
(0 0 0)
(0 0 0)
(0 0 0)
(0 0 0)
(0 0 0)
(0 0 0)
(0 0 0)
(0 0 0)
(0 0 0)
(0 0 0)
(0 0 0)
(0 0 0)
(0 0 0)
(0 0 0)
(0 0 0)
(0 0 0)
(0 0 0)
(0 0 0)
(0 0 0)
(0 0 0)
(0 0 0)
(0 0 0)
(0 0 0)
(0 0 0)
(0 0 0)
(0 0 0)
(0 0 0)
(0 0 0)
(0 0 0)
(0 0 0)
(0 0 0)
(0 0 0)
(0 0 0)
(0 0 0)
(0 0 0)
(0 0 0)
(0 0 0)
(0 0 0)
(0 0 0)
(0 0 0)
(0 0 0)
(0 0 0)
(0 0 0)
(0 0 0)
(0 0 0)
(0 0 0)
(0 0 0)
(0 0 0)
(0 0 0)
(0 0 0)
(0 0 0)
(0 0 0)
(0 0 0)
(0 0 0)
(0 0 0)
(0 0 0)
(0 0 0)
(0 0 0)
(0 0 0)
(0 0 0)
(0 0 0)
(0 0 0)
(0 0 0)
(0 0 0)
(0 0 0)
(0 0 0)
(0 0 0)
(0 0 0)
(0 0 0)
(0 0 0)
(0 0 0)
(0 0 0)
(0 0 0)
(0 0 0)
(0 0 0)
(0 0 0)
(0 0 0)
(0 0 0)
(0 0 0)
(0 0 0)
(0 0 0)
(0 0 0)
(0 0 0)
(0 0 0)
(0 0 0)
(0 0 0)
(0 0 0)
(0 0 0)
(0 0 0)
(0 0 0)
(0 0 0)
(0 0 0)
(0 0 0)
(0 0 0)
(0 0 0)
(0 0 0)
(0 0 0)
(0 0 0)
(0 0 0)
(0 0 0)
(0 0 0)
(0 0 0)
(0 0 0)
(0 0 0)
(0 0 0)
(0 0 0)
(0 0 0)
(0 0 0)
(0 0 0)
(0 0 0)
(0 0 0)
(0 0 0)
(0 0 0)
(0 0 0)
(0 0 0)
(0 0 0)
(0 0 0)
(0 0 0)
(0 0 0)
(0 0 0)
(0 0 0)
(0 0 0)
(0 0 0)
(0 0 0)
(0 0 0)
(0 0 0)
(0 0 0)
(0 0 0)
(0 0 0)
(0 0 0)
(0 0 0)
(0 0 0)
(0 0 0)
(0 0 0)
(0 0 0)
(0 0 0)
(0 0 0)
(0 0 0)
(0 0 0)
(0 0 0)
(0 0 0)
(0 0 0)
(0 0 0)
(0 0 0)
(0 0 0)
(0 0 0)
(0 0 0)
(0 0 0)
(0 0 0)
(0 0 0)
(0 0 0)
(0 0 0)
(0 0 0)
(0 0 0)
(0 0 0)
(0 0 0)
(0 0 0)
(0 0 0)
(0 0 0)
(0 0 0)
(0 0 0)
(0 0 0)
(0 0 0)
(0 0 0)
(0 0 0)
(0 0 0)
(0 0 0)
(0 0 0)
(0 0 0)
(0 0 0)
(0 0 0)
(0 0 0)
(0 0 0)
(0 0 0)
(0 0 0)
(0 0 0)
(0 0 0)
(0 0 0)
(0 0 0)
(0 0 0)
(0 0 0)
(0 0 0)
(0 0 0)
(0 0 0)
(0 0 0)
(0 0 0)
(0 0 0)
(0 0 0)
(0 0 0)
(0 0 0)
(0 0 0)
(0 0 0)
(0 0 0)
(0 0 0)
(0 0 0)
(0 0 0)
(0 0 0)
(0 0 0)
(0 0 0)
(0 0 0)
(0 0 0)
(0 0 0)
(0 0 0)
(0 0 0)
(0 0 0)
(0 0 0)
(0 0 0)
(0 0 0)
(0 0 0)
(0 0 0)
(0 0 0)
(0 0 0)
(0 0 0)
(0 0 0)
(0 0 0)
(0 0 0)
(0 0 0)
(0 0 0)
(0 0 0)
(0 0 0)
(0 0 0)
(0 0 0)
(0 0 0)
(0 0 0)
(0 0 0)
(0 0 0)
(0 0 0)
(0 0 0)
(0 0 0)
(0 0 0)
(0 0 0)
(0 0 0)
(0 0 0)
(0 0 0)
(0 0 0)
(0 0 0)
(0 0 0)
(0 0 0)
(0 0 0)
(0 0 0)
(0 0 0)
(0 0 0)
(0 0 0)
(0 0 0)
(0 0 0)
(0 0 0)
(0 0 0)
(0 0 0)
(0 0 0)
(0 0 0)
(0 0 0)
(0 0 0)
(0 0 0)
(0 0 0)
(0 0 0)
(0 0 0)
(0 0 0)
(0 0 0)
(0 0 0)
(0 0 0)
(0 0 0)
(0 0 0)
(0 0 0)
(0 0 0)
(0 0 0)
(0 0 0)
(0 0 0)
(0 0 0)
(0 0 0)
(0 0 0)
(0 0 0)
(0 0 0)
(0 0 0)
(0 0 0)
(0 0 0)
(0 0 0)
(0 0 0)
(0 0 0)
(0 0 0)
(0 0 0)
(0 0 0)
(0 0 0)
(0 0 0)
(0 0 0)
(0 0 0)
(0 0 0)
(0 0 0)
(0 0 0)
(0 0 0)
(0 0 0)
(0 0 0)
(0 0 0)
(0 0 0)
(0 0 0)
(0 0 0)
(0 0 0)
(0 0 0)
(0 0 0)
(0 0 0)
(0 0 0)
(0 0 0)
(0 0 0)
(0 0 0)
(0 0 0)
(0 0 0)
(0 0 0)
(0 0 0)
(0 0 0)
(0 0 0)
(0 0 0)
(0 0 0)
(0 0 0)
(0 0 0)
(0 0 0)
(0 0 0)
(0 0 0)
(0 0 0)
(0 0 0)
(0 0 0)
(0 0 0)
(0 0 0)
(0 0 0)
(0 0 0)
(0 0 0)
(0 0 0)
(0 0 0)
(0 0 0)
(0 0 0)
(0 0 0)
(0 0 0)
(0 0 0)
(0 0 0)
(0 0 0)
(0 0 0)
(0 0 0)
(0 0 0)
(0 0 0)
(0 0 0)
(0 0 0)
(0 0 0)
(0 0 0)
(0 0 0)
(0 0 0)
(0 0 0)
(0 0 0)
(0 0 0)
(0 0 0)
(0 0 0)
(0 0 0)
(0 0 0)
(0 0 0)
(0 0 0)
(0 0 0)
(0 0 0)
(0 0 0)
(0 0 0)
(0 0 0)
(0 0 0)
(0 0 0)
(0 0 0)
(0 0 0)
(0 0 0)
(0 0 0)
(0 0 0)
(0 0 0)
(0 0 0)
(0 0 0)
(0 0 0)
(0 0 0)
(0 0 0)
(0 0 0)
(0 0 0)
(0 0 0)
(0 0 0)
(0 0 0)
(0 0 0)
(0 0 0)
(0 0 0)
(0 0 0)
(0 0 0)
(0 0 0)
(0 0 0)
(0 0 0)
(0 0 0)
(0 0 0)
(0 0 0)
(0 0 0)
(0 0 0)
(0 0 0)
(0 0 0)
(0 0 0)
(0 0 0)
(0 0 0)
(0 0 0)
(0 0 0)
(0 0 0)
(0 0 0)
(0 0 0)
(0 0 0)
(0 0 0)
(0 0 0)
(0 0 0)
(0 0 0)
(0 0 0)
(0 0 0)
(0 0 0)
(0 0 0)
(0 0 0)
(0 0 0)
(0 0 0)
(0 0 0)
(0 0 0)
(0 0 0)
(0 0 0)
(0 0 0)
(0 0 0)
(0 0 0)
(0 0 0)
(0 0 0)
(0 0 0)
(0 0 0)
(0 0 0)
(0 0 0)
(0 0 0)
(0 0 0)
(0 0 0)
(0 0 0)
(0 0 0)
(0 0 0)
(0 0 0)
(0 0 0)
(0 0 0)
(0 0 0)
(0 0 0)
(0 0 0)
(0 0 0)
(0 0 0)
(0 0 0)
(0 0 0)
(0 0 0)
(0 0 0)
(0 0 0)
(0 0 0)
(0 0 0)
(0 0 0)
(0 0 0)
(0 0 0)
(0 0 0)
(0 0 0)
(0 0 0)
(0 0 0)
(0 0 0)
(0 0 0)
(0 0 0)
(0 0 0)
(0 0 0)
(0 0 0)
(0 0 0)
(0 0 0)
(0 0 0)
(0 0 0)
(0 0 0)
(0 0 0)
(0 0 0)
(0 0 0)
(0 0 0)
(0 0 0)
(0 0 0)
(0 0 0)
(0 0 0)
(0 0 0)
(0 0 0)
(0 0 0)
(0 0 0)
(0 0 0)
(0 0 0)
(0 0 0)
(0 0 0)
(0 0 0)
(0 0 0)
(0 0 0)
(0 0 0)
(0 0 0)
(0 0 0)
(0 0 0)
(0 0 0)
(0 0 0)
(0 0 0)
(0 0 0)
(0 0 0)
(0 0 0)
(0 0 0)
(0 0 0)
(0 0 0)
(0 0 0)
(0 0 0)
(0 0 0)
(0 0 0)
(0 0 0)
(0 0 0)
(0 0 0)
(0 0 0)
(0 0 0)
(0 0 0)
(0 0 0)
(0 0 0)
(0 0 0)
(0 0 0)
(0 0 0)
(0 0 0)
(0 0 0)
(0 0 0)
(0 0 0)
(0 0 0)
(0 0 0)
(0 0 0)
(0 0 0)
(0 0 0)
(0 0 0)
(0 0 0)
(0 0 0)
(0 0 0)
(0 0 0)
(0 0 0)
(0 0 0)
(0 0 0)
(0 0 0)
(0 0 0)
(0 0 0)
(0 0 0)
(0 0 0)
(0 0 0)
(0 0 0)
(0 0 0)
(0 0 0)
(0 0 0)
(0 0 0)
(0 0 0)
(0 0 0)
(0 0 0)
(0 0 0)
(0 0 0)
(0 0 0)
(0 0 0)
(0 0 0)
(0 0 0)
(0 0 0)
(0 0 0)
(2.52861e-19 -4.11314e-18 0)
(2.2336e-18 -3.60251e-17 0)
(2.0798e-18 -3.23033e-17 0)
(0 0 0)
(0 0 0)
(0 0 0)
(0 0 0)
(0 0 0)
(0 0 0)
(0 0 0)
(0 0 0)
(0 0 0)
(0 0 0)
(0 0 0)
(0 0 0)
(0 0 0)
(0 0 0)
(0 0 0)
(0 0 0)
(0 0 0)
(0 0 0)
(0 0 0)
(0 0 0)
(0 0 0)
(0 0 0)
(0 0 0)
(0 0 0)
(0 0 0)
(0 0 0)
(0 0 0)
(0 0 0)
(0 0 0)
(0 0 0)
(0 0 0)
(0 0 0)
(0 0 0)
(0 0 0)
(0 0 0)
(0 0 0)
(0 0 0)
(0 0 0)
(0 0 0)
(0 0 0)
(0 0 0)
(0 0 0)
(0 0 0)
(0 0 0)
(0 0 0)
(0 0 0)
(0 0 0)
(0 0 0)
(0 0 0)
(0 0 0)
(0 0 0)
(0 0 0)
(0 0 0)
(0 0 0)
(0 0 0)
(0 0 0)
(0 0 0)
(0 0 0)
(0 0 0)
(0 0 0)
(0 0 0)
(0 0 0)
(0 0 0)
(0 0 0)
(0 0 0)
(0 0 0)
(0 0 0)
(0 0 0)
(0 0 0)
(0 0 0)
(-6.2236e-29 -4.09034e-27 0)
(-3.94349e-29 -2.59131e-27 0)
(-1.5507e-28 -1.01891e-26 0)
(7.05115e-33 -7.01584e-31 0)
(6.67113e-33 -6.64251e-31 0)
(7.1295e-29 -7.09188e-27 0)
(1.15351e-26 -7.58901e-25 0)
(1.83915e-29 -1.82932e-27 0)
(0 0 0)
(0 0 0)
(0 0 0)
(0 0 0)
(0 0 0)
(0 0 0)
(0 0 0)
(0 0 0)
(0 0 0)
(0 0 0)
(0 0 0)
(0 0 0)
(0 0 0)
(0 0 0)
(0 0 0)
(0 0 0)
(0 0 0)
(0 0 0)
(0 0 0)