/*--------------------------------*- C++ -*----------------------------------*\
| =========                 |                                                 |
| \\      /  F ield         | OpenFOAM: The Open Source CFD Toolbox           |
|  \\    /   O peration     | Version:  v2012                                 |
|   \\  /    A nd           | Website:  www.openfoam.com                      |
|    \\/     M anipulation  |                                                 |
\*---------------------------------------------------------------------------*/
FoamFile
{
    version     2.0;
    format      ascii;
    class       volScalarField;
    location    "1";
    object      rAU;
}
// * * * * * * * * * * * * * * * * * * * * * * * * * * * * * * * * * * * * * //

dimensions      [-1 3 1 0 0 0 0];


internalField   nonuniform List<scalar> 
13611
(
1.61304e-07
1.60322e-07
1.63526e-07
1.60952e-07
1.61637e-07
1.61372e-07
1.62313e-07
1.61839e-07
1.59438e-07
1.61801e-07
1.61617e-07
1.62045e-07
1.62496e-07
1.63471e-07
1.5631e-07
1.6238e-07
1.61968e-07
1.61323e-07
1.63078e-07
1.60597e-07
1.61998e-07
1.55746e-07
1.56183e-07
1.58326e-07
1.58394e-07
1.62058e-07
1.62063e-07
1.62982e-07
1.63504e-07
1.57053e-07
1.57732e-07
1.56181e-07
1.5866e-07
1.61978e-07
1.63059e-07
1.60749e-07
1.60764e-07
1.61962e-07
1.55314e-07
1.57933e-07
1.58482e-07
1.57493e-07
1.57487e-07
1.61778e-07
1.62239e-07
1.61889e-07
1.63477e-07
1.63124e-07
1.56241e-07
1.53407e-07
1.56438e-07
1.57828e-07
1.57598e-07
1.58974e-07
1.61224e-07
1.61524e-07
1.60678e-07
1.6246e-07
1.61967e-07
1.62237e-07
1.56021e-07
1.54229e-07
1.56541e-07
1.56478e-07
1.53142e-07
1.56318e-07
1.55381e-07
1.58578e-07
1.57999e-07
1.60473e-07
1.61946e-07
1.62507e-07
1.63483e-07
1.62054e-07
1.56046e-07
1.54871e-07
1.54817e-07
1.53136e-07
1.56451e-07
1.561e-07
1.55634e-07
1.57854e-07
1.5925e-07
1.57518e-07
1.60784e-07
1.62049e-07
1.61976e-07
1.61944e-07
1.61722e-07
1.55847e-07
1.50688e-07
1.54457e-07
1.5604e-07
1.53841e-07
1.5133e-07
1.55922e-07
1.55481e-07
1.57899e-07
1.57211e-07
1.56184e-07
1.599e-07
1.61519e-07
1.62067e-07
1.62184e-07
1.61695e-07
1.51831e-07
1.57191e-07
1.57146e-07
1.56087e-07
1.54073e-07
1.53687e-07
1.52573e-07
1.55922e-07
1.53331e-07
1.54678e-07
1.56306e-07
1.57509e-07
1.57664e-07
1.5872e-07
1.63146e-07
1.63058e-07
1.61941e-07
1.63542e-07
1.61629e-07
1.60315e-07
1.53597e-07
1.57114e-07
1.5726e-07
1.52678e-07
1.55521e-07
1.50818e-07
1.55384e-07
1.54116e-07
1.56412e-07
1.57528e-07
1.59176e-07
1.58407e-07
1.61381e-07
1.62296e-07
1.59089e-07
1.62997e-07
1.61302e-07
1.61561e-07
1.52033e-07
1.5168e-07
1.52691e-07
1.51145e-07
1.54072e-07
1.55941e-07
1.5111e-07
1.50672e-07
1.55788e-07
1.5349e-07
1.54764e-07
1.56994e-07
1.58967e-07
1.57463e-07
1.62905e-07
1.62884e-07
1.6231e-07
1.58744e-07
1.58639e-07
1.63544e-07
1.62993e-07
1.61784e-07
1.50074e-07
1.51486e-07
1.5198e-07
1.53262e-07
1.5073e-07
1.53496e-07
1.53668e-07
1.50537e-07
1.50092e-07
1.54061e-07
1.54078e-07
1.51393e-07
1.54794e-07
1.55694e-07
1.55394e-07
1.574e-07
1.60237e-07
1.61961e-07
1.59861e-07
1.56908e-07
1.5837e-07
1.62788e-07
1.62387e-07
1.48231e-07
1.50512e-07
1.53707e-07
1.50091e-07
1.52686e-07
1.49741e-07
1.53005e-07
1.5456e-07
1.50523e-07
1.50811e-07
1.54005e-07
1.54624e-07
1.55267e-07
1.55121e-07
1.57173e-07
1.54828e-07
1.60942e-07
1.62789e-07
1.61895e-07
1.60528e-07
1.58424e-07
1.56238e-07
1.62792e-07
1.63544e-07
1.62397e-07
1.47189e-07
1.49863e-07
1.53412e-07
1.50328e-07
1.5226e-07
1.4973e-07
1.53422e-07
1.54743e-07
1.50043e-07
1.50803e-07
1.53307e-07
1.542e-07
1.54695e-07
1.53576e-07
1.55387e-07
1.57488e-07
1.62665e-07
1.60903e-07
1.61209e-07
1.5971e-07
1.56373e-07
1.5619e-07
1.6213e-07
1.62865e-07
1.62522e-07
1.5404e-07
1.48327e-07
1.45879e-07
1.47579e-07
1.51554e-07
1.52192e-07
1.48935e-07
1.53981e-07
1.49481e-07
1.50023e-07
1.52882e-07
1.50585e-07
1.53516e-07
1.50006e-07
1.51527e-07
1.53407e-07
1.56172e-07
1.56507e-07
1.62484e-07
1.61143e-07
1.59712e-07
1.61031e-07
1.57288e-07
1.58337e-07
1.57186e-07
1.62793e-07
1.62215e-07
1.63552e-07
1.54001e-07
1.4817e-07
1.51257e-07
1.46036e-07
1.47969e-07
1.50842e-07
1.50965e-07
1.50559e-07
1.49459e-07
1.51227e-07
1.48404e-07
1.49804e-07
1.51889e-07
1.50981e-07
1.52717e-07
1.51969e-07
1.51914e-07
1.5272e-07
1.52489e-07
1.57169e-07
1.63329e-07
1.63359e-07
1.60709e-07
1.60468e-07
1.58098e-07
1.57932e-07
1.56495e-07
1.57097e-07
1.61159e-07
1.63063e-07
1.61644e-07
1.50303e-07
1.49555e-07
1.50593e-07
1.50089e-07
1.46416e-07
1.48905e-07
1.48773e-07
1.50971e-07
1.50435e-07
1.51515e-07
1.48873e-07
1.49739e-07
1.44661e-07
1.48652e-07
1.52994e-07
1.52147e-07
1.5369e-07
1.52212e-07
1.51393e-07
1.51581e-07
1.51529e-07
1.56276e-07
1.62731e-07
1.62261e-07
1.60887e-07
1.6053e-07
1.58857e-07
1.58695e-07
1.55565e-07
1.56396e-07
1.61285e-07
1.62144e-07
1.50272e-07
1.49482e-07
1.49312e-07
1.50323e-07
1.48757e-07
1.48647e-07
1.48673e-07
1.50492e-07
1.50357e-07
1.49836e-07
1.48571e-07
1.49792e-07
1.46396e-07
1.48367e-07
1.4974e-07
1.51558e-07
1.4936e-07
1.52432e-07
1.5179e-07
1.51461e-07
1.51948e-07
1.51418e-07
1.6266e-07
1.62423e-07
1.62654e-07
1.60941e-07
1.59971e-07
1.59689e-07
1.57505e-07
1.58461e-07
1.56552e-07
1.62954e-07
1.63587e-07
1.61602e-07
1.49964e-07
1.46217e-07
1.48963e-07
1.44234e-07
1.4915e-07
1.42126e-07
1.42406e-07
1.42251e-07
1.50479e-07
1.50344e-07
1.45498e-07
1.48289e-07
1.50075e-07
1.46318e-07
1.49655e-07
1.48656e-07
1.39362e-07
1.50714e-07
1.42904e-07
1.52447e-07
1.51814e-07
1.51388e-07
1.51302e-07
1.53136e-07
1.61527e-07
1.61157e-07
1.61912e-07
1.60281e-07
1.59991e-07
1.59251e-07
1.56951e-07
1.58281e-07
1.54089e-07
1.63283e-07
1.61743e-07
1.63119e-07
1.49774e-07
1.47862e-07
1.41744e-07
1.4656e-07
1.45512e-07
1.44844e-07
1.48982e-07
1.42485e-07
1.47688e-07
1.49412e-07
1.49694e-07
1.51058e-07
1.50041e-07
1.49677e-07
1.51323e-07
1.46519e-07
1.48083e-07
1.50132e-07
1.52217e-07
1.51425e-07
1.51512e-07
1.4882e-07
1.52808e-07
1.62586e-07
1.61746e-07
1.60897e-07
1.62563e-07
1.62441e-07
1.60007e-07
1.59939e-07
1.55979e-07
1.57212e-07
1.52562e-07
1.5296e-07
1.52936e-07
1.62408e-07
1.62199e-07
1.63577e-07
1.62876e-07
1.63142e-07
1.63014e-07
1.46763e-07
1.45725e-07
1.45731e-07
1.45804e-07
1.46275e-07
1.46665e-07
1.48675e-07
1.48423e-07
1.49396e-07
1.49657e-07
1.50736e-07
1.49569e-07
1.47462e-07
1.44004e-07
1.47775e-07
1.5079e-07
1.45432e-07
1.50037e-07
1.53095e-07
1.51776e-07
1.5023e-07
1.49439e-07
1.45325e-07
1.62287e-07
1.61483e-07
1.60238e-07
1.61243e-07
1.6244e-07
1.59194e-07
1.59344e-07
1.55808e-07
1.57353e-07
1.54584e-07
1.53351e-07
1.53404e-07
1.5278e-07
1.61947e-07
1.61564e-07
1.62814e-07
1.63144e-07
1.62316e-07
1.59517e-07
1.62982e-07
1.63493e-07
1.48757e-07
1.45299e-07
1.47506e-07
1.45586e-07
1.48852e-07
1.4582e-07
1.42385e-07
1.40924e-07
1.43572e-07
1.48573e-07
1.48689e-07
1.47303e-07
1.49518e-07
1.41474e-07
1.47823e-07
1.44887e-07
1.48525e-07
1.45096e-07
1.52844e-07
1.50955e-07
1.50171e-07
1.48004e-07
1.46926e-07
1.62994e-07
1.60614e-07
1.6137e-07
1.59984e-07
1.63257e-07
1.61935e-07
1.58799e-07
1.56834e-07
1.5551e-07
1.57328e-07
1.54097e-07
1.53388e-07
1.5351e-07
1.53433e-07
1.6318e-07
1.63583e-07
1.62996e-07
1.62822e-07
1.62879e-07
1.62363e-07
1.63296e-07
1.59147e-07
1.62914e-07
1.63129e-07
1.48021e-07
1.46449e-07
1.44389e-07
1.45549e-07
1.47021e-07
1.4571e-07
1.43582e-07
1.42828e-07
1.41251e-07
1.49164e-07
1.4849e-07
1.47283e-07
1.48642e-07
1.41261e-07
1.43057e-07
1.50139e-07
1.43006e-07
1.42922e-07
1.46812e-07
1.46295e-07
1.52802e-07
1.48502e-07
1.4987e-07
1.48839e-07
1.46532e-07
1.6136e-07
1.60079e-07
1.60228e-07
1.62771e-07
1.61736e-07
1.5683e-07
1.56054e-07
1.53884e-07
1.5227e-07
1.5639e-07
1.54161e-07
1.53417e-07
1.53561e-07
1.54078e-07
1.61352e-07
1.61885e-07
1.63051e-07
1.62396e-07
1.63276e-07
1.59322e-07
1.6147e-07
1.58987e-07
1.58289e-07
1.56447e-07
1.63138e-07
1.63479e-07
1.4507e-07
1.44496e-07
1.44714e-07
1.43651e-07
1.44741e-07
1.4272e-07
1.39538e-07
1.42371e-07
1.46651e-07
1.44739e-07
1.42672e-07
1.43012e-07
1.48846e-07
1.43605e-07
1.41358e-07
1.44337e-07
1.47449e-07
1.46822e-07
1.44487e-07
1.46877e-07
1.47625e-07
1.53013e-07
1.50615e-07
1.51176e-07
1.47159e-07
1.44713e-07
1.62114e-07
1.60578e-07
1.58193e-07
1.5766e-07
1.59532e-07
1.62437e-07
1.62432e-07
1.58231e-07
1.57208e-07
1.54667e-07
1.53866e-07
1.56454e-07
1.53984e-07
1.53177e-07
1.53247e-07
1.52475e-07
1.62854e-07
1.61918e-07
1.62976e-07
1.62866e-07
1.62875e-07
1.62161e-07
1.60814e-07
1.59401e-07
1.626e-07
1.589e-07
1.59749e-07
1.56415e-07
1.6209e-07
1.63333e-07
1.44596e-07
1.38127e-07
1.39363e-07
1.4064e-07
1.43605e-07
1.4272e-07
1.44873e-07
1.40455e-07
1.42877e-07
1.46329e-07
1.4242e-07
1.4464e-07
1.45949e-07
1.45948e-07
1.39917e-07
1.37058e-07
1.46372e-07
1.44113e-07
1.45572e-07
1.46923e-07
1.47478e-07
1.51863e-07
1.51027e-07
1.49687e-07
1.4784e-07
1.47824e-07
1.61225e-07
1.58211e-07
1.58241e-07
1.5939e-07
1.59152e-07
1.61634e-07
1.62881e-07
1.58368e-07
1.57472e-07
1.5729e-07
1.56197e-07
1.56329e-07
1.54101e-07
1.53012e-07
1.5287e-07
1.51818e-07
1.61494e-07
1.63615e-07
1.62154e-07
1.62733e-07
1.63165e-07
1.62382e-07
1.57993e-07
1.58927e-07
1.61234e-07
1.63076e-07
1.57655e-07
1.59761e-07
1.57326e-07
1.63394e-07
1.63492e-07
1.45031e-07
1.44945e-07
1.40408e-07
1.43904e-07
1.40755e-07
1.40751e-07
1.41321e-07
1.35402e-07
1.42526e-07
1.42948e-07
1.42914e-07
1.43724e-07
1.43497e-07
1.44221e-07
1.46073e-07
1.37986e-07
1.3974e-07
1.42369e-07
1.46768e-07
1.40865e-07
1.46653e-07
1.47056e-07
1.47656e-07
1.52443e-07
1.49782e-07
1.45611e-07
1.49263e-07
1.48588e-07
1.62093e-07
1.61347e-07
1.61423e-07
1.59602e-07
1.5923e-07
1.62425e-07
1.63089e-07
1.56809e-07
1.57595e-07
1.57026e-07
1.55356e-07
1.56326e-07
1.53818e-07
1.52487e-07
1.50406e-07
1.49534e-07
1.62758e-07
1.63182e-07
1.62772e-07
1.62716e-07
1.62567e-07
1.61397e-07
1.59627e-07
1.59148e-07
1.60316e-07
1.62807e-07
1.57644e-07
1.56832e-07
1.57503e-07
1.57262e-07
1.62337e-07
1.4465e-07
1.42885e-07
1.39099e-07
1.42626e-07
1.42877e-07
1.39315e-07
1.40719e-07
1.44707e-07
1.38264e-07
1.44536e-07
1.42205e-07
1.4366e-07
1.43722e-07
1.44243e-07
1.42585e-07
1.44433e-07
1.42065e-07
1.44198e-07
1.47226e-07
1.44145e-07
1.46879e-07
1.47727e-07
1.50643e-07
1.50279e-07
1.47963e-07
1.46913e-07
1.45658e-07
1.61729e-07
1.61417e-07
1.614e-07
1.6016e-07
1.56398e-07
1.62533e-07
1.63183e-07
1.57289e-07
1.5801e-07
1.5503e-07
1.55622e-07
1.54065e-07
1.54316e-07
1.53996e-07
1.52251e-07
1.4886e-07
1.49687e-07
1.47453e-07
1.63161e-07
1.63617e-07
1.61607e-07
1.62993e-07
1.61983e-07
1.62783e-07
1.59027e-07
1.57036e-07
1.58456e-07
1.60656e-07
1.60175e-07
1.62672e-07
1.62405e-07
1.55926e-07
1.56368e-07
1.57817e-07
1.56216e-07
1.63474e-07
1.63082e-07
1.41002e-07
1.43837e-07
1.4351e-07
1.39287e-07
1.43025e-07
1.40209e-07
1.45362e-07
1.44666e-07
1.37738e-07
1.4448e-07
1.41378e-07
1.42211e-07
1.42319e-07
1.45563e-07
1.43339e-07
1.40726e-07
1.44863e-07
1.42051e-07
1.41719e-07
1.44914e-07
1.37772e-07
1.42968e-07
1.48576e-07
1.44603e-07
1.50241e-07
1.4944e-07
1.47587e-07
1.4416e-07
1.44204e-07
1.60722e-07
1.61143e-07
1.60583e-07
1.60359e-07
1.60103e-07
1.5633e-07
1.54872e-07
1.62586e-07
1.62948e-07
1.53964e-07
1.53157e-07
1.54965e-07
1.55425e-07
1.54078e-07
1.53884e-07
1.53718e-07
1.52365e-07
1.515e-07
1.49913e-07
1.63047e-07
1.6299e-07
1.62884e-07
1.63344e-07
1.63035e-07
1.62734e-07
1.62268e-07
1.56371e-07
1.55954e-07
1.57665e-07
1.59379e-07
1.56143e-07
1.62241e-07
1.61149e-07
1.55506e-07
1.54628e-07
1.52639e-07
1.55941e-07
1.62445e-07
1.62987e-07
1.46184e-07
1.43796e-07
1.43463e-07
1.43761e-07
1.44186e-07
1.45373e-07
1.40388e-07
1.42665e-07
1.42951e-07
1.40948e-07
1.4116e-07
1.4236e-07
1.45013e-07
1.46352e-07
1.42715e-07
1.41372e-07
1.41345e-07
1.36741e-07
1.40319e-07
1.4393e-07
1.46936e-07
1.41362e-07
1.40579e-07
1.51235e-07
1.51026e-07
1.48098e-07
1.4798e-07
1.61057e-07
1.60851e-07
1.60303e-07
1.60184e-07
1.59088e-07
1.57365e-07
1.56536e-07
1.63112e-07
1.60933e-07
1.49874e-07
1.55284e-07
1.53174e-07
1.54932e-07
1.52052e-07
1.51751e-07
1.54575e-07
1.51222e-07
1.48287e-07
1.518e-07
1.51634e-07
1.62991e-07
1.63618e-07
1.62408e-07
1.62547e-07
1.6343e-07
1.61593e-07
1.62841e-07
1.5777e-07
1.53477e-07
1.55075e-07
1.53304e-07
1.594e-07
1.57889e-07
1.56647e-07
1.62694e-07
1.62617e-07
1.62231e-07
1.60585e-07
1.53541e-07
1.53503e-07
1.52375e-07
1.53575e-07
1.52013e-07
1.63509e-07
1.46263e-07
1.44726e-07
1.42547e-07
1.4434e-07
1.44849e-07
1.41587e-07
1.412e-07
1.42487e-07
1.42415e-07
1.41903e-07
1.40312e-07
1.36994e-07
1.37817e-07
1.3609e-07
1.45365e-07
1.42285e-07
1.40326e-07
1.41243e-07
1.36375e-07
1.42802e-07
1.39943e-07
1.41917e-07
1.41937e-07
1.37432e-07
1.49716e-07
1.49705e-07
1.48591e-07
1.49118e-07
1.61695e-07
1.61666e-07
1.59586e-07
1.59713e-07
1.60005e-07
1.59976e-07
1.57061e-07
1.56106e-07
1.6129e-07
1.62718e-07
1.51591e-07
1.56045e-07
1.54949e-07
1.55487e-07
1.52865e-07
1.54772e-07
1.5475e-07
1.5122e-07
1.50158e-07
1.49397e-07
1.49959e-07
1.62652e-07
1.62798e-07
1.63492e-07
1.62564e-07
1.62791e-07
1.62482e-07
1.62452e-07
1.56347e-07
1.54302e-07
1.54092e-07
1.53795e-07
1.57864e-07
1.59764e-07
1.56293e-07
1.62133e-07
1.60833e-07
1.62609e-07
1.60093e-07
1.53055e-07
1.50719e-07
1.53773e-07
1.54101e-07
1.62969e-07
1.38269e-07
1.44575e-07
1.42567e-07
1.40273e-07
1.41531e-07
1.37251e-07
1.41622e-07
1.43437e-07
1.41813e-07
1.34444e-07
1.42657e-07
1.4111e-07
1.41355e-07
1.4002e-07
1.38177e-07
1.3887e-07
1.41818e-07
1.35225e-07
1.37009e-07
1.39291e-07
1.46637e-07
1.41736e-07
1.43791e-07
1.44739e-07
1.46117e-07
1.48111e-07
1.44333e-07
1.4414e-07
1.4565e-07
1.45374e-07
1.61522e-07
1.62266e-07
1.60202e-07
1.58713e-07
1.59774e-07
1.5926e-07
1.58695e-07
1.54174e-07
1.62448e-07
1.62266e-07
1.55513e-07
1.53827e-07
1.54225e-07
1.53245e-07
1.5323e-07
1.53156e-07
1.50237e-07
1.47485e-07
1.51745e-07
1.44531e-07
1.45823e-07
1.46771e-07
1.62859e-07
1.63619e-07
1.62601e-07
1.62561e-07
1.62017e-07
1.63399e-07
1.61999e-07
1.54509e-07
1.55658e-07
1.54028e-07
1.54327e-07
1.57015e-07
1.56924e-07
1.59434e-07
1.60172e-07
1.55982e-07
1.6198e-07
1.61187e-07
1.63002e-07
1.62604e-07
1.55913e-07
1.54255e-07
1.53362e-07
1.63516e-07
1.40663e-07
1.36616e-07
1.3995e-07
1.39988e-07
1.38872e-07
1.38382e-07
1.42212e-07
1.4407e-07
1.41464e-07
1.39623e-07
1.42068e-07
1.39033e-07
1.38039e-07
1.39811e-07
1.41538e-07
1.38609e-07
1.41749e-07
1.34732e-07
1.37321e-07
1.33213e-07
1.32996e-07
1.37349e-07
1.46932e-07
1.44343e-07
1.44881e-07
1.46953e-07
1.45352e-07
1.46475e-07
1.45618e-07
1.45575e-07
1.44127e-07
1.44307e-07
1.62413e-07
1.61811e-07
1.62283e-07
1.61329e-07
1.6025e-07
1.59126e-07
1.57104e-07
1.57705e-07
1.56237e-07
1.61928e-07
1.63394e-07
1.55193e-07
1.52715e-07
1.55725e-07
1.53021e-07
1.52272e-07
1.50847e-07
1.48412e-07
1.51395e-07
1.46367e-07
1.49414e-07
1.47941e-07
1.46048e-07
1.45348e-07
1.60819e-07
1.62819e-07
1.62427e-07
1.62396e-07
1.61483e-07
1.62916e-07
1.63379e-07
1.62089e-07
1.53296e-07
1.54722e-07
1.54002e-07
1.53083e-07
1.56853e-07
1.56175e-07
1.57925e-07
1.59423e-07
1.53664e-07
1.61504e-07
1.61449e-07
1.61301e-07
1.60499e-07
1.55751e-07
1.49892e-07
1.52229e-07
1.52865e-07
1.50052e-07
1.62657e-07
1.37422e-07
1.3997e-07
1.38428e-07
1.42001e-07
1.37246e-07
1.38197e-07
1.37431e-07
1.41517e-07
1.4035e-07
1.39761e-07
1.36753e-07
1.3932e-07
1.37432e-07
1.3783e-07
1.32561e-07
1.39752e-07
1.39811e-07
1.41605e-07
1.37892e-07
1.34035e-07
1.36082e-07
1.4401e-07
1.44601e-07
1.39911e-07
1.45286e-07
1.43379e-07
1.46124e-07
1.49386e-07
1.47733e-07
1.41382e-07
1.43536e-07
1.62287e-07
1.61617e-07
1.61717e-07
1.60688e-07
1.60108e-07
1.58996e-07
1.5498e-07
1.56127e-07
1.56643e-07
1.56246e-07
1.61679e-07
1.62567e-07
1.52659e-07
1.49521e-07
1.55767e-07
1.51438e-07
1.52193e-07
1.50774e-07
1.48914e-07
1.51454e-07
1.50864e-07
1.50462e-07
1.47607e-07
1.45641e-07
1.42201e-07
1.62737e-07
1.63622e-07
1.62737e-07
1.62969e-07
1.61165e-07
1.61807e-07
1.63082e-07
1.63544e-07
1.51457e-07
1.53764e-07
1.52901e-07
1.51994e-07
1.54805e-07
1.55851e-07
1.53561e-07
1.53489e-07
1.57721e-07
1.59061e-07
1.60309e-07
1.52907e-07
1.51161e-07
1.63037e-07
1.62259e-07
1.63018e-07
1.62402e-07
1.61903e-07
1.50115e-07
1.52611e-07
1.52272e-07
1.51411e-07
1.62959e-07
1.4094e-07
1.39948e-07
1.38872e-07
1.39666e-07
1.37873e-07
1.37427e-07
1.37045e-07
1.36548e-07
1.34937e-07
1.38822e-07
1.38601e-07
1.31285e-07
1.31648e-07
1.3277e-07
1.35986e-07
1.37223e-07
1.35023e-07
1.32807e-07
1.40214e-07
1.41274e-07
1.33231e-07
1.38123e-07
1.43955e-07
1.39689e-07
1.39322e-07
1.37659e-07
1.42287e-07
1.43008e-07
1.46288e-07
1.47569e-07
1.47611e-07
1.42836e-07
1.42268e-07
1.60659e-07
1.60001e-07
1.60665e-07
1.6148e-07
1.61275e-07
1.6047e-07
1.59134e-07
1.59121e-07
1.55328e-07
1.56137e-07
1.57341e-07
1.55654e-07
1.63067e-07
1.63143e-07
1.62278e-07
1.52874e-07
1.51705e-07
1.55624e-07
1.51446e-07
1.51802e-07
1.48891e-07
1.48872e-07
1.50719e-07
1.49012e-07
1.50847e-07
1.50341e-07
1.44373e-07
1.48171e-07
1.60557e-07
1.62128e-07
1.61549e-07
1.61957e-07
1.61938e-07
1.62004e-07
1.63581e-07
1.53543e-07
1.51603e-07
1.51045e-07
1.54633e-07
1.5579e-07
1.55809e-07
1.53597e-07
1.54602e-07
1.56584e-07
1.5916e-07
1.52903e-07
1.55288e-07
1.60999e-07
1.62513e-07
1.61952e-07
1.61325e-07
1.60377e-07
1.50722e-07
1.53445e-07
1.51277e-07
1.52017e-07
1.51922e-07
1.6357e-07
1.62351e-07
1.42495e-07
1.41447e-07
1.38149e-07
1.38432e-07
1.37747e-07
1.3469e-07
1.35453e-07
1.36966e-07
1.35879e-07
1.37495e-07
1.32325e-07
1.35782e-07
1.34912e-07
1.33631e-07
1.36953e-07
1.36378e-07
1.39146e-07
1.30246e-07
1.28471e-07
1.42708e-07
1.3707e-07
1.35478e-07
1.3832e-07
1.40004e-07
1.41831e-07
1.39782e-07
1.37836e-07
1.33511e-07
1.41006e-07
1.38617e-07
1.41779e-07
1.40598e-07
1.38787e-07
1.42775e-07
1.43462e-07
1.41118e-07
1.61155e-07
1.6133e-07
1.61959e-07
1.61747e-07
1.60767e-07
1.61088e-07
1.5982e-07
1.59285e-07
1.56135e-07
1.53416e-07
1.55677e-07
1.56371e-07
1.61909e-07
1.62134e-07
1.62594e-07
1.62212e-07
1.53485e-07
1.55472e-07
1.51961e-07
1.51172e-07
1.48874e-07
1.47373e-07
1.48988e-07
1.47466e-07
1.45337e-07
1.48009e-07
1.50603e-07
1.48214e-07
1.61851e-07
1.61968e-07
1.63126e-07
1.62999e-07
1.61689e-07
1.61743e-07
1.62667e-07
1.53358e-07
1.50733e-07
1.47378e-07
1.50719e-07
1.5304e-07
1.54192e-07
1.55035e-07
1.55235e-07
1.53431e-07
1.55763e-07
1.58805e-07
1.59429e-07
1.52739e-07
1.54914e-07
1.62405e-07
1.61274e-07
1.62472e-07
1.61658e-07
1.57752e-07
1.51838e-07
1.51906e-07
1.52098e-07
1.51328e-07
1.51728e-07
1.63421e-07
1.62135e-07
1.40343e-07
1.39e-07
1.3656e-07
1.35244e-07
1.35454e-07
1.30012e-07
1.31827e-07
1.34836e-07
1.36117e-07
1.28873e-07
1.366e-07
1.29502e-07
1.34916e-07
1.35416e-07
1.36166e-07
1.4155e-07
1.33084e-07
1.37429e-07
1.29134e-07
1.33399e-07
1.41721e-07
1.35612e-07
1.366e-07
1.35885e-07
1.41602e-07
1.35574e-07
1.37181e-07
1.37106e-07
1.39755e-07
1.36295e-07
1.38257e-07
1.37525e-07
1.41285e-07
1.41629e-07
1.41145e-07
1.41211e-07
1.42144e-07
1.42093e-07
1.61052e-07
1.60231e-07
1.6207e-07
1.62612e-07
1.60822e-07
1.59652e-07
1.59448e-07
1.57433e-07
1.58239e-07
1.54938e-07
1.55006e-07
1.54149e-07
1.50387e-07
1.62633e-07
1.62503e-07
1.62145e-07
1.59951e-07
1.51493e-07
1.50475e-07
1.50833e-07
1.49456e-07
1.46492e-07
1.44885e-07
1.49409e-07
1.48013e-07
1.49342e-07
1.46668e-07
1.45095e-07
1.45404e-07
1.61701e-07
1.63634e-07
1.61542e-07
1.6342e-07
1.61006e-07
1.63001e-07
1.61889e-07
1.61615e-07
1.53521e-07
1.50608e-07
1.49863e-07
1.51082e-07
1.52958e-07
1.54454e-07
1.55087e-07
1.55098e-07
1.50532e-07
1.56655e-07
1.56924e-07
1.59647e-07
1.5373e-07
1.50809e-07
1.60662e-07
1.60351e-07
1.61426e-07
1.63319e-07
1.58994e-07
1.51741e-07
1.47848e-07
1.50561e-07
1.52795e-07
1.50487e-07
1.50626e-07
1.6294e-07
1.61783e-07
1.32618e-07
1.36303e-07
1.37534e-07
1.36176e-07
1.36396e-07
1.31159e-07
1.34127e-07
1.35312e-07
1.31618e-07
1.33389e-07
1.35435e-07
1.32013e-07
1.34954e-07
1.35281e-07
1.40216e-07
1.35188e-07
1.3855e-07
1.36439e-07
1.34232e-07
1.29693e-07
1.351e-07
1.33857e-07
1.31668e-07
1.36332e-07
1.34537e-07
1.37626e-07
1.37455e-07
1.35985e-07
1.38026e-07
1.41029e-07
1.41669e-07
1.42272e-07
1.41225e-07
1.41567e-07
1.40799e-07
1.42533e-07
1.42222e-07
1.4214e-07
1.61514e-07
1.57656e-07
1.58598e-07
1.63877e-07
1.62281e-07
1.61364e-07
1.57732e-07
1.58217e-07
1.57112e-07
1.57978e-07
1.57039e-07
1.55175e-07
1.54603e-07
1.52611e-07
1.62288e-07
1.62481e-07
1.62292e-07
1.62674e-07
1.60332e-07
1.50354e-07
1.5122e-07
1.49648e-07
1.51862e-07
1.46456e-07
1.47403e-07
1.48453e-07
1.46442e-07
1.48721e-07
1.45161e-07
1.4394e-07
1.43561e-07
1.4545e-07
1.60379e-07
1.63129e-07
1.61771e-07
1.63559e-07
1.61956e-07
1.62192e-07
1.62649e-07
1.62626e-07
1.51374e-07
1.50068e-07
1.50513e-07
1.5119e-07
1.46207e-07
1.48386e-07
1.54653e-07
1.54823e-07
1.57266e-07
1.55233e-07
1.5344e-07
1.57358e-07
1.58968e-07
1.59166e-07
1.51091e-07
1.49036e-07
1.61926e-07
1.59003e-07
1.61116e-07
1.63248e-07
1.62026e-07
1.59613e-07
1.51543e-07
1.48484e-07
1.49711e-07
1.50541e-07
1.49905e-07
1.49702e-07
1.60953e-07
1.61589e-07
1.32366e-07
1.40826e-07
1.37378e-07
1.35952e-07
1.37469e-07
1.33122e-07
1.35605e-07
1.32248e-07
1.31744e-07
1.34137e-07
1.30072e-07
1.33064e-07
1.35733e-07
1.34e-07
1.4091e-07
1.27615e-07
1.33287e-07
1.33875e-07
1.36051e-07
1.33202e-07
1.41063e-07
1.28323e-07
1.39236e-07
1.35284e-07
1.36774e-07
1.40343e-07
1.41418e-07
1.32721e-07
1.42458e-07
1.38209e-07
1.43424e-07
1.41577e-07
1.42185e-07
1.42919e-07
1.42119e-07
1.42099e-07
1.44271e-07
1.44268e-07
1.61741e-07
1.5847e-07
1.60936e-07
1.64143e-07
1.61306e-07
1.62588e-07
1.58335e-07
1.58045e-07
1.59848e-07
1.56377e-07
1.545e-07
1.55636e-07
1.54104e-07
1.55464e-07
1.52814e-07
1.63017e-07
1.63448e-07
1.61985e-07
1.61434e-07
1.63407e-07
1.50212e-07
1.52227e-07
1.48587e-07
1.51529e-07
1.51248e-07
1.51998e-07
1.47926e-07
1.43183e-07
1.49198e-07
1.45436e-07
1.43348e-07
1.4452e-07
1.61849e-07
1.63102e-07
1.63631e-07
1.61729e-07
1.62415e-07
1.63402e-07
1.62017e-07
1.61983e-07
1.51368e-07
1.4932e-07
1.52437e-07
1.47804e-07
1.48347e-07
1.48871e-07
1.53428e-07
1.53992e-07
1.54451e-07
1.53036e-07
1.5236e-07
1.57383e-07
1.561e-07
1.59547e-07
1.49566e-07
1.51681e-07
1.60651e-07
1.6234e-07
1.62108e-07
1.59553e-07
1.50715e-07
1.49057e-07
1.45675e-07
1.46739e-07
1.49679e-07
1.49119e-07
1.51076e-07
1.63553e-07
1.61558e-07
1.61796e-07
1.40609e-07
1.30971e-07
1.3472e-07
1.3387e-07
1.34244e-07
1.38472e-07
1.32521e-07
1.31197e-07
1.30548e-07
1.33883e-07
1.31083e-07
1.32473e-07
1.27707e-07
1.33232e-07
1.36746e-07
1.30925e-07
1.31952e-07
1.32722e-07
1.29515e-07
1.27683e-07
1.4033e-07
1.32188e-07
1.3932e-07
1.3512e-07
1.29703e-07
1.3358e-07
1.41796e-07
1.39704e-07
1.38178e-07
1.41041e-07
1.37076e-07
1.40247e-07
1.42359e-07
1.43113e-07
1.43357e-07
1.41882e-07
1.43192e-07
1.43155e-07
1.421e-07
1.62419e-07
1.62279e-07
1.61138e-07
1.62503e-07
1.629e-07
1.61335e-07
1.6051e-07
1.61394e-07
1.57589e-07
1.55305e-07
1.52641e-07
1.55023e-07
1.56364e-07
1.52589e-07
1.62109e-07
1.6348e-07
1.61846e-07
1.61638e-07
1.63582e-07
1.63951e-07
1.53127e-07
1.53087e-07
1.51217e-07
1.50557e-07
1.5136e-07
1.51694e-07
1.44875e-07
1.38965e-07
1.49534e-07
1.43528e-07
1.43863e-07
1.42369e-07
1.44313e-07
1.61324e-07
1.62998e-07
1.63148e-07
1.6238e-07
1.63071e-07
1.60965e-07
1.6178e-07
1.50039e-07
1.4906e-07
1.51554e-07
1.49589e-07
1.46516e-07
1.48646e-07
1.49172e-07
1.50069e-07
1.48381e-07
1.54366e-07
1.5212e-07
1.54698e-07
1.51705e-07
1.52634e-07
1.51485e-07
1.55923e-07
1.57347e-07
1.58486e-07
1.59389e-07
1.52438e-07
1.61057e-07
1.62461e-07
1.61805e-07
1.62507e-07
1.50536e-07
1.47985e-07
1.4876e-07
1.502e-07
1.51022e-07
1.48711e-07
1.60775e-07
1.61172e-07
1.62175e-07
1.2979e-07
1.3246e-07
1.34349e-07
1.33028e-07
1.32148e-07
1.37041e-07
1.35171e-07
1.31239e-07
1.32492e-07
1.24636e-07
1.37867e-07
1.30764e-07
1.31752e-07
1.29186e-07
1.35991e-07
1.28151e-07
1.26562e-07
1.2979e-07
1.28107e-07
1.32358e-07
1.29626e-07
1.29594e-07
1.29709e-07
1.36103e-07
1.36066e-07
1.30514e-07
1.26506e-07
1.40765e-07
1.32546e-07
1.40466e-07
1.31704e-07
1.29252e-07
1.33043e-07
1.37202e-07
1.42736e-07
1.44207e-07
1.45508e-07
1.41708e-07
1.42324e-07
1.4369e-07
1.36001e-07
1.34961e-07
1.62462e-07
1.62605e-07
1.6287e-07
1.61474e-07
1.6356e-07
1.62847e-07
1.61583e-07
1.61272e-07
1.59196e-07
1.59631e-07
1.54771e-07
1.57152e-07
1.55685e-07
1.5547e-07
1.51689e-07
1.56834e-07
1.62846e-07
1.62112e-07
1.62938e-07
1.60959e-07
1.63699e-07
1.62109e-07
1.53514e-07
1.51048e-07
1.51253e-07
1.5052e-07
1.51228e-07
1.4645e-07
1.4425e-07
1.4317e-07
1.43732e-07
1.44383e-07
1.43386e-07
1.43626e-07
1.41869e-07
1.61504e-07
1.63048e-07
1.63633e-07
1.63102e-07
1.61973e-07
1.63443e-07
1.63207e-07
1.63055e-07
1.62651e-07
1.49728e-07
1.48441e-07
1.46625e-07
1.51064e-07
1.47782e-07
1.49198e-07
1.49232e-07
1.50621e-07
1.50926e-07
1.53936e-07
1.51246e-07
1.54861e-07
1.509e-07
1.52376e-07
1.52191e-07
1.55787e-07
1.57301e-07
1.56977e-07
1.57714e-07
1.49917e-07
1.59375e-07
1.61125e-07
1.62704e-07
1.62653e-07
1.50345e-07
1.49565e-07
1.48342e-07
1.47184e-07
1.50291e-07
1.44505e-07
1.46386e-07
1.60678e-07
1.61839e-07
1.62468e-07
1.3233e-07
1.35778e-07
1.32398e-07
1.29777e-07
1.30414e-07
1.29937e-07
1.32891e-07
1.34745e-07
1.3245e-07
1.31331e-07
1.38135e-07
1.36858e-07
1.30756e-07
1.29413e-07
1.23532e-07
1.31575e-07
1.28173e-07
1.35627e-07
1.28707e-07
1.36225e-07
1.28208e-07
1.29871e-07
1.28069e-07
1.28538e-07
1.33912e-07
1.32565e-07
1.30487e-07
1.38497e-07
1.36641e-07
1.34501e-07
1.34209e-07
1.33328e-07
1.31352e-07
1.31235e-07
1.42276e-07
1.41403e-07
1.44864e-07
1.41706e-07
1.40709e-07
1.41962e-07
1.40024e-07
1.36203e-07
1.62178e-07
1.62204e-07
1.63367e-07
1.63422e-07
1.63068e-07
1.61926e-07
1.62126e-07
1.60985e-07
1.61136e-07
1.61153e-07
1.55899e-07
1.58329e-07
1.55612e-07
1.5335e-07
1.55517e-07
1.57036e-07
1.54046e-07
1.61902e-07
1.62798e-07
1.63297e-07
1.60491e-07
1.62057e-07
1.6334e-07
1.51749e-07
1.46379e-07
1.4987e-07
1.48877e-07
1.51145e-07
1.44951e-07
1.43941e-07
1.41969e-07
1.44526e-07
1.38492e-07
1.42261e-07
1.4306e-07
1.42558e-07
1.61465e-07
1.6087e-07
1.63335e-07
1.61561e-07
1.61832e-07
1.62595e-07
1.62779e-07
1.61559e-07
1.62069e-07
1.49407e-07
1.45738e-07
1.49338e-07
1.49143e-07
1.48345e-07
1.4992e-07
1.48364e-07
1.50227e-07
1.51075e-07
1.52542e-07
1.54366e-07
1.52398e-07
1.51635e-07
1.48318e-07
1.49718e-07
1.54133e-07
1.51152e-07
1.54303e-07
1.57117e-07
1.56295e-07
1.58168e-07
1.4872e-07
1.60221e-07
1.61105e-07
1.6049e-07
1.61901e-07
1.62915e-07
1.44754e-07
1.49617e-07
1.48087e-07
1.45572e-07
1.47105e-07
1.46939e-07
1.45995e-07
1.63588e-07
1.61263e-07
1.61701e-07
1.62602e-07
1.36587e-07
1.34969e-07
1.3004e-07
1.29425e-07
1.27808e-07
1.32742e-07
1.35092e-07
1.34008e-07
1.32118e-07
1.21479e-07
1.34361e-07
1.29897e-07
1.2786e-07
1.29619e-07
1.31371e-07
1.30278e-07
1.32581e-07
1.28116e-07
1.31912e-07
1.27173e-07
1.24778e-07
1.28649e-07
1.29933e-07
1.31979e-07
1.33628e-07
1.31156e-07
1.38945e-07
1.35781e-07
1.33989e-07
1.32853e-07
1.33625e-07
1.35222e-07
1.27999e-07
1.41987e-07
1.38322e-07
1.35224e-07
1.41606e-07
1.40314e-07
1.35698e-07
1.35826e-07
1.38005e-07
1.38753e-07
1.60835e-07
1.60195e-07
1.6187e-07
1.63302e-07
1.63331e-07
1.6275e-07
1.62377e-07
1.60919e-07
1.59701e-07
1.61418e-07
1.60851e-07
1.54145e-07
1.61393e-07
1.53642e-07
1.51955e-07
1.56037e-07
1.60305e-07
1.57766e-07
1.60519e-07
1.62645e-07
1.63488e-07
1.63159e-07
1.62916e-07
1.62852e-07
1.63245e-07
1.53301e-07
1.50283e-07
1.50345e-07
1.49813e-07
1.45102e-07
1.44974e-07
1.44184e-07
1.44276e-07
1.40155e-07
1.42337e-07
1.43051e-07
1.42727e-07
1.62554e-07
1.60844e-07
1.6363e-07
1.63298e-07
1.61983e-07
1.62602e-07
1.63001e-07
1.63027e-07
1.62866e-07
1.62789e-07
1.49536e-07
1.49512e-07
1.47574e-07
1.46813e-07
1.49928e-07
1.48307e-07
1.48961e-07
1.50222e-07
1.50856e-07
1.49706e-07
1.53469e-07
1.51512e-07
1.52943e-07
1.51011e-07
1.48343e-07
1.54345e-07
1.52699e-07
1.538e-07
1.54365e-07
1.58726e-07
1.56937e-07
1.44897e-07
1.60112e-07
1.60387e-07
1.61217e-07
1.61603e-07
1.62141e-07
1.44405e-07
1.45494e-07
1.42371e-07
1.47505e-07
1.48528e-07
1.46991e-07
1.46568e-07
1.46172e-07
1.60612e-07
1.60915e-07
1.62262e-07
1.62985e-07
1.33287e-07
1.28552e-07
1.28928e-07
1.23835e-07
1.28906e-07
1.2388e-07
1.29295e-07
1.33493e-07
1.34384e-07
1.3256e-07
1.26661e-07
1.16903e-07
1.29326e-07
1.32019e-07
1.32017e-07
1.31523e-07
1.34675e-07
1.30281e-07
1.26585e-07
1.27128e-07
1.26745e-07
1.30945e-07
1.34282e-07
1.24894e-07
1.33381e-07
1.32278e-07
1.31705e-07
1.34891e-07
1.37744e-07
1.35284e-07
1.29167e-07
1.31201e-07
1.30953e-07
1.33491e-07
1.35445e-07
1.40575e-07
1.36869e-07
1.38192e-07
1.41248e-07
1.40374e-07
1.38954e-07
1.37289e-07
1.37908e-07
1.38742e-07
1.61078e-07
1.61363e-07
1.62967e-07
1.62693e-07
1.62186e-07
1.62172e-07
1.59213e-07
1.59794e-07
1.60454e-07
1.59467e-07
1.58224e-07
1.59998e-07
1.55785e-07
1.52185e-07
1.49807e-07
1.59205e-07
1.60613e-07
1.60477e-07
1.62393e-07
1.62864e-07
1.62765e-07
1.63152e-07
1.63138e-07
1.62831e-07
1.50753e-07
1.51923e-07
1.45296e-07
1.44917e-07
1.42229e-07
1.51368e-07
1.45496e-07
1.44273e-07
1.4427e-07
1.42573e-07
1.42064e-07
1.43307e-07
1.43162e-07
1.61843e-07
1.61597e-07
1.62471e-07
1.61006e-07
1.62298e-07
1.62445e-07
1.62418e-07
1.62921e-07
1.62357e-07
1.62244e-07
1.48835e-07
1.49124e-07
1.44653e-07
1.4799e-07
1.47839e-07
1.45994e-07
1.45975e-07
1.46434e-07
1.49379e-07
1.50041e-07
1.501e-07
1.50901e-07
1.50812e-07
1.48508e-07
1.51406e-07
1.51088e-07
1.47392e-07
1.56604e-07
1.53706e-07
1.56623e-07
1.56823e-07
1.58872e-07
1.5951e-07
1.60562e-07
1.61281e-07
1.61217e-07
1.61732e-07
1.62508e-07
1.61999e-07
1.43126e-07
1.45276e-07
1.44215e-07
1.47303e-07
1.48656e-07
1.45918e-07
1.41532e-07
1.46404e-07
1.60492e-07
1.61669e-07
1.61898e-07
1.62926e-07
1.26468e-07
1.29489e-07
1.30299e-07
1.30178e-07
1.25671e-07
1.31977e-07
1.26716e-07
1.30515e-07
1.30268e-07
1.31896e-07
1.19902e-07
1.27791e-07
1.29536e-07
1.31348e-07
1.32972e-07
1.24558e-07
1.33478e-07
1.34611e-07
1.31069e-07
1.29022e-07
1.3357e-07
1.32539e-07
1.32765e-07
1.29483e-07
1.31443e-07
1.28721e-07
1.33885e-07
1.32978e-07
1.33546e-07
1.37027e-07
1.3586e-07
1.3272e-07
1.33664e-07
1.28777e-07
1.25106e-07
1.34998e-07
1.37851e-07
1.42038e-07
1.43196e-07
1.43584e-07
1.41849e-07
1.4046e-07
1.39989e-07
1.3859e-07
1.37877e-07
1.61363e-07
1.60482e-07
1.62731e-07
1.63332e-07