/*--------------------------------*- C++ -*----------------------------------*\
| =========                 |                                                 |
| \\      /  F ield         | OpenFOAM: The Open Source CFD Toolbox           |
|  \\    /   O peration     | Version:  v2012                                 |
|   \\  /    A nd           | Website:  www.openfoam.com                      |
|    \\/     M anipulation  |                                                 |
\*---------------------------------------------------------------------------*/
FoamFile
{
    version     2.0;
    format      ascii;
    class       surfaceScalarField;
    location    "0.2";
    object      meshPhi;
}
// * * * * * * * * * * * * * * * * * * * * * * * * * * * * * * * * * * * * * //

dimensions      [0 3 -1 0 0 0 0];


internalField   nonuniform List<scalar> 
18811
(
0.00110507
0.000788367
-0.000617235
0.00383633
-0.000982179
0.00352602
0.00235362
4.57981e-05
0.00556134
0.00130358
0.00548459
0.00546779
0.00054512
0.000522301
0.007605
0.00399393
-0.000736964
0.00132812
0.00584703
0.00839235
0.00593174
-0.00214107
-0.000736353
0.010391
0.0034544
0.00236713
0.000931923
0.00644344
0.00682746
-0.000826771
0.0123131
0.00984441
-0.00105295
0.00159237
0.000172598
0.0128411
0.00574128
-0.00196629
0.00265657
-0.000441445
0.00368944
0.00431981
0.012179
0.0119589
0.0151287
-0.00700656
0.00881303
-0.00184225
-0.00156622
0.0166506
0.00368719
0.00324355
0.00190344
0.000808711
0.00952954
0.0130336
-0.00267602
0.0180926
-0.00145649
0.0199136
0.0148023
-0.00243745
0.00616837
-0.00328632
-0.000575682
0.0199634
-0.0025066
0.00679849
0.00422136
-0.0013186
0.00171335
-0.000108482
0.0085701
0.00204389
-0.00132674
0.0165403
0.0154818
0.0197892
0.0219303
-0.010967
0.0120586
-0.00111946
-0.000165632
0.00144552
0.0205887
0.00264685
0.00414696
0.00344143
0.00109165
-0.000332562
0.000818772
0.00885254
0.0069666
0.0203193
-0.00826608
0.0281324
-0.00412552
0.027792
1.06662e-05
0.0253642
0.016453
-0.00143441
0.0102454
-0.00757322
0.00294635
0.00108389
0.0214783
-0.0017248
0.00515342
-0.00217044
0.00628282
-0.00138822
0.00317753
0.000197368
-0.000189365
-0.00638973
0.0165829
0.00131988
0.0141906
0.00750309
0.0116095
0.0282028
0.0314333
0.0285558
-0.0147007
0.0163408
-0.000621551
0.000535883
0.00421399
0.0189685
0.00227233
0.00379832
0.00849696
0.000606342
-0.000109389
0.000882539
0.00837285
0.00992264
0.020029
0.0173506
-0.0150437
0.0299757
0.0397135
-0.00543051
-0.000722578
0.0356153
0.0126165
0.0182669
0.00445087
-0.0132949
0.0170918
0.00668806
-0.00234509
0.0337381
0.00356902
-0.000710262
-0.00146366
0.00589747
-0.00159383
0.0109378
0.000212237
0.00121577
-0.000126482
-0.00470744
0.0160104
-0.00288515
0.0241268
0.0155985
0.0273904
0.00653777
0.0425213
0.0265368
0.0166615
0.0219073
0.0380457
-0.018123
0.0264911
-0.00278776
0.00350146
0.0015011
0.0130394
0.0218748
0.00269857
-0.00132755
0.000997502
0.00499
0.00743818
0.000216473
4.02091e-05
0.000219582
0.00304142
0.0141712
0.00527158
0.0207037
0.019745
-0.0247037
0.0348213
0.0178337
0.0282463
-0.0239877
0.0549206
0.042461
0.0156695
0.0249529
0.00616008
-0.00708526
0.00839296
0.0194478
-0.0122881
-0.00210594
0.0194193
0.00918233
0.0139243
-0.000806143
0.0038818
0.00154794
-0.00038263
-0.0013121
0.00679979
-0.00305377
0.0112013
-0.000225896
0.000371856
0.00164374
0.0132285
-0.00486265
0.0267119
0.0157632
0.0150775
-0.00784124
0.0399668
0.046453
0.0152142
0.0260211
0.0194756
0.0443251
0.0362543
-0.0267252
0.0376465
0.0172129
-0.00455677
-0.00346518
0.00865187
0.00230414
0.034508
0.00113309
0.00300579
0.00419008
0.00897669
0.00278783
0.0113898
-0.00113283
0.0150827
0.00728694
0.0201125
0.0152466
-0.0305218
0.0503992
0.0426024
0.0223145
0.0200141
-0.0383622
0.0587701
0.0444902
0.030027
0.0167024
0.0119885
0.0259364
0.0128383
-0.00944286
0.00935653
-0.019288
0.0194914
-0.00772262
-0.00249475
0.00861944
0.0273089
0.00116632
-0.000397793
0.00363748
-0.00122905
0.00568742
-0.00463068
0.00791094
0.00125268
0.010539
-0.000960347
0.0165763
0.023242
-0.00231863
0.0233808
0.0182115
0.0306959
0.0163578
0.0538855
0.0488031
0.0169073
0.040446
0.00739902
0.0439321
0.0601972
0.035884
-0.0325787
0.0514911
0.014035
-0.00128235
0.032953
-0.00980929
0.00934455
0.00236827
0.0258641
0.00099536
0.00263579
0.00132351
0.00628228
0.00189364
0.00790568
0.0100134
0.00996408
0.00695421
0.0104561
0.0133086
0.00602369
0.0177206
-0.0299965
0.0530079
0.0709421
0.0649867
-0.0427705
0.0653574
0.0190072
0.0265281
0.025861
0.0369578
0.0108335
0.0260901
0.00541416
0.0277009
-0.00976407
0.0118073
-0.0252574
0.0191751
-0.012621
0.00730481
-0.00141026
0.00480025
0.0217398
0.00103734
0.00276698
1.77389e-05
0.00433581
-0.00353517
0.00569768
0.0011001
0.00700898
0.000120121
0.0101352
-0.00249984
0.0127259
0.0178928
0.0197788
0.0017683
0.016443
0.0161967
0.0134449
0.0661535
0.00681333
0.0645472
0.0589463
0.0135202
0.046706
0.0385274
-0.0133651
0.053404
0.0316573
-0.0264277
0.035913
-0.0137169
0.0456027
0.000944929
0.00251922
-0.00366742
0.0020317
0.0240856
0.001231
0.00100268
0.00369606
0.00212063
0.00496785
0.00735929
0.00785705
0.00520425
0.00774634
0.00643801
0.01163
0.00481814
0.0152529
0.0215965
-0.034903
0.055747
0.0793499
0.0790592
0.0544501
-0.0474566
0.0664544
0.0238758
0.0240077
0.016112
0.0233301
0.019561
0.0352697
0.0116437
0.0205869
0.0488887
-0.00768704
0.0400823
0.0149318
-0.00606742
0.00998254
-0.0121462
0.0184437
-0.0228639
0.0232467
-0.000719993
0.00216816
0.0222778
0.00129019
0.00249286
-0.0014396
0.00368028
-0.000223002
0.00533865
0.000507158
0.00702978
-0.000483022
0.00850061
0.0118488
-0.00352163
0.011525
0.000394494
0.011436
0.0158808
0.0136853
0.008176
0.0137757
0.0889957
-0.000958242
0.033433
0.051598
0.00834352
0.0487698
0.0664827
0.0064802
0.0410307
0.0449171
0.0357681
-0.0150954
0.0523095
0.0230862
-0.0329613
0.030065
0.0339856
0.0102182
0.052532
0.00117363
-0.00108222
-0.00643681
-0.00268942
0.00645119
0.0110334
0.0114966
0.00127652
0.00362349
0.00604394
0.00671103
0.00519193
0.00280109
0.00924125
0.00195262
0.00971855
0.0144469
0.00420835
0.0119173
0.018168
0.0195052
-0.0403389
0.0586022
0.0262157
0.0681149
0.0719429
0.0640292
0.062809
0.0353345
-0.0532852
0.0649373
0.0137676
0.0280192
0.0209912
0.0246831
0.0219414
0.0141764
0.013364
0.0398143
0.0131045
0.0103114
0.0401521
-0.00715906
-0.0340671
0.0485779
0.0167989
-0.00921051
0.0138889
-0.014739
0.0164939
-0.0251146
0.0221453
-2.77112e-05
0.000562098
0.0249363
0.00136309
7.21414e-06
0.0037279
0.000809996
0.00537083
0.00548438
0.00138245
0.0109052
0.0113427
0.00345508
0.00648964
0.00177419
0.0129108
0.0139074
0.0119962
0.00643085
0.0130993
0.00668869
0.0106624
0.0215411
0.0507874
-0.000735212
0.0783996
0.00562167
0.062455
0.0225646
0.0424346
0.0597748
0.0630263
0.0081405
0.0354485
-0.000839312
0.0294263
0.0388713
0.0215907
0.0248402
0.007003
0.0338281
0.0100305
-0.0339986
0.0299206
0.0261116
0.0258886
0.045923
0.00174738
-0.00631044
-0.00891823
0.00265387
-0.00559057
0.00947463
0.0092419
0.0158746
0.00149308
0.00470001
0.0069562
0.00634413
0.00488221
0.00430494
0.00721455
0.0100817
0.011006
0.00271398
0.0103656
0.00315788
0.0109441
0.0153678
0.0198548
0.0161356
-0.0415132
0.0562566
-0.0437718
0.0697688
0.0594425
0.0668563
0.0402616
0.00527886
0.0598792
0.050158
0.0336983
0.0276502
-0.0571352
0.0708133
0.0247263
0.011247
0.00465174
0.0252161
0.0160497
0.0232278
-0.00371749
0.0256252
0.0214391
0.0417563
0.00164569
0.0327867
-0.0234549
0.0359414
0.00859332
-0.0111529
0.0397749
0.00764162
0.0162531
-0.0118594
0.0124839
-0.0219267
0.0158932
0.000774442
0.00075797
0.0115659
0.00440767
0.00159603
0.00314011
0.00172301
0.000690176
0.00639289
-0.00335169
0.00851349
0.0101013
0.00643126
0.00395491
0.00563236
0.00557645
0.00199279
0.00856444
0.0131654
0.00537474
0.0102892
0.00922065
0.0108766
-0.00407304
0.0205124
0.00409436
0.0159347
0.0581963
0.0797705
0.0477448
0.025685
0.0933447
0.030669
0.0318764
0.0231665
0.0286711
0.0525273
0.0603973
0.017758
0.0298156
0.027692
0.00704615
0.0184859
0.0253677
0.0143808
0.011614
0.00903571
0.0126792
0.0265454
0.0160133
0.00625942
0.027161
0.043247
-0.00534031
0.0316145
-0.0212415
0.0360835
0.0504865
-0.00696912
0.027418
-0.00993436
0.00506917
-0.00145454
-0.00753655
0.0114193
0.00766529
0.0136079
0.000717943
0.00103738
0.00393552
0.00255568
0.00324091
0.00421373
0.00455676
0.00607254
0.00425754
0.010963
0.009819
0.0119156
0.0130625
0.00384466
0.00953049
0.0148537
0.0143893
-0.00420836
0.0153851
0.0166472
-0.0366107
0.0441218
-0.0275681
0.0916525
0.0256119
0.0570998
0.0928935
0.0727895
0.0588977
0.0625917
0.0205338
0.0329763
0.0562425
-0.034328
0.0129138
0.0172604
0.00099115
0.0271301
0.0218035
0.00105717
0.0177837
0.0267362
0.0245908
0.0334393
0.0373333
-0.00278752
0.0304736
0.0283348
0.00795367
0.0403842
-0.00303338
0.0165874
-0.0156698
0.0113721
-0.0189978
0.010502
-0.000466746
0.00101382
-0.002048
0.0215527
0.00113923
0.000555547
0.00351587
0.00324977
0.00697434
-0.00310252
0.00791996
0.00654189
0.00469499
-0.00145672
0.0115875
0.0107511
0.000379557
0.013023
0.0101384
-0.000361604
0.0155149
0.00362184
0.0110605
0.0152956
0.0178554
-0.00075361
0.0601927
-0.0137182
0.0423767
0.0535966
0.0130804
0.0467861
0.0660269
0.0351025
0.00420448
0.0754068
0.00970615
0.0514116
0.0343049
0.0298928
0.00158045
0.0322322
-0.012995
0.0728284
0.0294488
-0.00707658
0.0203034
0.0186402
0.0203769
0.00715845
0.0151293
0.0254167
0.024449
0.0116275
0.0134636
0.00852903
0.0256178
0.0197829
0.0180353
0.00700519
0.0239809
0.0332079
-0.0042297
-0.0167925
0.02606
0.022999
0.0194246
0.0315839
0.0414732
-0.00603991
0.0188217
-0.00746142
-0.00437021
0.00611919
-0.0012913
-0.00749403
0.00713879
0.0159534
0.00602118
0.000258893
0.00104594
0.00368055
0.00412876
0.00399447
0.00422813
-0.0031056
0.0100347
0.00897466
0.00889305
-0.00221013
0.0133879
0.0111677
0.0140489
0.00224862
0.0135961
0.0136454
0.000397134
0.0153654
0.018754
0.0155705
0.0299365
0.0581391
-0.00806102
0.0666824
0.0583862
0.076375
-0.0337709
0.0741073
0.0733873
0.00768724
0.0450848
0.0367624
0.0387679
0.0110765
0.0217941
-0.0495452
0.0397452
0.0447533
-0.0181065
0.00782511
0.0128722
0.0269441
0.00185376
0.0190016
0.0273214
-0.00022636
0.0263313
0.0268721
0.0199074
0.0288447
0.0332117
0.0296996
-0.00114096
0.0255493
-0.0253196
0.0223135
0.00252554
0.000562747
-0.0198466
0.0398967
0.0123747
-0.0144011
0.0102537
-0.0152499
0.00860937
0.000244047
0.00145342
-0.00576164
0.00116952
0.000980599
0.00290987
0.00530375
-0.00194604
0.00637558
-0.000983546
0.0113758
0.00835409
-0.003988
0.0132289
0.00967462
-0.00316773
0.0147608
0.0112583
0.00119864
0.0127795
0.00722177
0.00680205
0.0169958
0.000772918
0.0184687
-0.00617836
0.0223434
0.0454624
-0.0143539
0.0156108
0.0452965
0.0857967
0.0116725
0.0485213
0.0663269
0.0157073
0.0477335
0.0316208
-0.00483609
0.083169
0.0233842
0.0226752
0.0182319
0.0192595
0.0156377
0.0242736
0.0407612
0.0582075
-0.0162572
-0.0175832
0.0658784
0.0298188
0.0324683
0.0273691
0.0175192
0.0103319
0.00430956
0.0226372
0.0262159
0.014329
-0.000314367
0.0296437
0.0171174
0.0167282
0.029846
0.00973545
0.016203
0.0270968
-0.0055386
-0.0152043
0.01831
-0.0147684
0.0155403
0.027073
-0.0131827
0.0253865
-0.00388055
-0.00625365
0.00664539
-0.00480097
0.00462636
-0.00101975
0.00214619
0.000237351
0.00113745
0.00333287
0.00352297
0.00546919
0.0010488
0.0106739
0.00113587
-0.000870436
0.00963616
0.0112982
0.00232716
-0.00286907
0.0129693
0.0123475
0.0190152
0.0200243
-0.00197635
0.0195782
0.0236643
0.0170308
0.0588441
0.0366393
0.0533971
0.015219
0.0346415
0.0654364
0.0677468
-0.0277813
0.063004
0.0186556
0.0680326
0.0399286
0.0390521
0.0446732
0.0206338
0.0208232
0.0446751
-0.0413201
0.0273667
0.0425182
-0.0109278
0.0114434
0.0216731
0.00143871
0.0267205
0.0224182
0.0252757
-0.00160838
0.0248991
0.00981172
0.0170453
0.0128771
0.0173756
0.0306869
0.0269555
0.0102626
0.0203044
0.0264845
0.0137686
-0.0196655
0.0139843
0.00331112
-0.00485321
0.0327848
-0.00581952
0.0266796
-0.00189066
-0.01125
0.0085971
-0.0115769
0.00585225
0.00156219
0.00100353
0.00949964
-0.0058691
0.00128905
0.000235549
0.00334727
0.00393643
0.00490493
0.00513685
0.00042808
0.0106301
0.0128453
0.0105149
0.015695
-0.00559783
0.0184884
0.0139122
0.00267092
0.0179679
0.0228792
0.0103876
0.014009
0.0281956
0.0128744
0.0476218
-0.0248533
0.065072
-0.00188198
0.0575446
0.0487953
0.0626564
0.00816784
0.0488661
0.0227264
0.0366318
0.0306334
0.0845689
0.0464853
-0.00734157
0.0484462
0.0326578
0.0118208
0.0337643
0.0331664
0.0318063
-0.0013262
0.0487264
0.0468783
-0.0190839
-0.00697763
0.0520195
0.022606
0.0291731
0.0237285
0.0257639
0.000547617
0.0223789
0.02647
0.00326734
0.0222423
0.038366
0.0191967
0.0122575
0.00676937
0.0207934
0.0339903
0.0178933
-0.00519157
0.0174087
-0.00552178
0.0154917
-0.0124482
0.0101779
0.0210797
0.0156873
-0.000796524
-0.00254164
0.0152186
-0.00900822
0.00534517
-0.00258897
0.00364473
-0.00090845
0.000328225
-8.6068e-05
0.00169074
0.00352234
-0.00347519
0.00870563
0.00187875
0.0099618
0.00100753
0.01121
0.00215477
0.00328261
0.00767507
0.0121988
0.0040404
0.00987688
0.00903031
-0.00148071
0.0158789
0.0169748
0.00812142
0.0154606
-0.00954401
0.0243021
0.0108838
0.0178946
0.0478298
0.0345767
0.033194
0.0197355
0.0395907
0.0137186
0.0362525
0.0611308
0.062723
-0.0279722
0.0619167
0.0229275
0.0653454
0.0720695
0.0280751
0.0209281
0.04757
0.00192195
0.0327909
0.00245429
0.0313808
0.0349839
-0.0309041
0.0314582
0.0443535
0.0172671
-0.0256002
0.00669718
0.0272953
-0.00357898
0.00433357
0.0256529
0.0288619
0.00177914
0.0246363
0.0263519
0.0175201
-0.00372337
0.0267203
0.0165633
0.0227121
0.0366316
0.0339182
0.0107201
0.0241886
0.0112658
-0.0124911
0.00571257
0.00213661
-0.00429654
0.0215803
-0.00138054
0.0190903
-0.00553899
0.00749982
-0.00731044
0.00797425
-0.00990118
-0.000927565
0.00230484
0.00084418
0.00592747
-0.00465595
0.0019065
0.005685
0.00579032
0.00328672
0.00319944
0.00710108
0.0125765
0.0148621
0.00955416
0.0113038
0.0143714
-0.00787567
0.0174151
0.00848598
0.00417249
0.0133359
0.0195813
0.0202279
0.00141365
0.0236008
-1.58794e-05
0.0186092
0.00631529
0.0428132
-0.0272495
0.0643621
0.0548554
-0.00501964
0.0459214
0.0437983
-0.0249153
0.0903254
0.041563
0.0338411
0.0328391
0.0589474
0.0106454
0.047639
0.0156895
0.0130825
0.0234524
0.0220347
0.0264804
0.00443187
0.029266
0.0368754
0.00819175
0.0275321
0.0440676
-0.0119672
0.0269641
0.0200207
0.0267544
-0.00936976
0.0217034
-0.01506
0.0564968
0.0176617
0.037491
0.0313748
0.0215709
0.00377546
0.0232369
0.0218674
0.00303106
0.0244566
0.0316873
0.0177275
0.0198054
0.0137032
0.0212345
0.0390121
0.0116536
-0.00231333
-0.00712247
0.0108159
0.0123268
-0.0102629
-0.0112766
0.00601956
0.0168141
0.00481719
-0.00183913
-0.000546608
0.00970684
-0.0100041
-0.00141153
0.0032753
-0.000876282
0.00158572
0.000655218
0.00292405
0.00303019
0.0064804
-0.00529447
0.0127758
0.00765959
0.00111335
0.0141905
0.00605912
0.00391082
0.00529391
0.00642108
-3.02447e-05
0.0149397
0.0179556
0.0223793
0.00439984
0.0156152
0.00221037
0.0188289
0.0238914
0.0244106
0.0235227
0.0390996
0.0272974
0.0392829
0.0362235
0.0198315
0.0139142
0.0330105
0.00991598
0.0349047
0.0576451
0.0386337
0.0799084
-0.0335285
0.0701647
0.00897744
0.052449
0.0727154
0.0591473
0.0398304
0.0360007
0.0372833
-0.00859374
0.0387152
0.000922856
0.0368652
0.0292083
0.0181692
0.0279339
0.0154262
0.0398417
-0.0300049
0.0209466
-0.00958607
0.0020474
0.0267595
0.0223576
0.0162395
0.0122169
0.0201805
0.0347181
0.0271058
-0.00605321
0.0314124
0.0244408
0.00806772
0.0432476
0.0421562
0.0107551
0.0290885
-0.0103034
0.00650257
-0.00816718
1.93683e-05
-0.0011908
-0.000654325
-0.00118342
-0.00345584
0.0144471
0.000540722
-0.0083944
0.0111789
0.00451326
-0.00581506
0.00570755
-0.00528768
-0.00507856
0.00322983
0.000747667
0.00182297
0.00392739
0.00537588
0.00138123
0.00713623
0.00604841
-0.00591392
0.0140635
0.0164899
0.00869173
0.011828
0.00975369
0.0140166
0.000486203
0.0180958
0.00555254
0.017602
0.0184461
0.0251785
-0.00231343
0.0270361
-0.00151827
0.0268014
0.00797941
0.0161695
0.00309932
0.037093
-0.0208721
0.0497547
-0.0064929
0.0474014
0.0309925
0.0345592
0.00455356
0.0292913
0.0391309
-0.0295901
0.0717021
0.0543662
0.0502442
0.0246153
0.0461502
0.00864122
0.0427886
0.0332238
0.0399965
0.0320346
-0.00151871
0.0384665
0.0366613
0.0129746
0.0266186
0.00742982
0.0302846
0.0381046
0.00143283
0.0273626
-0.0132603
0.0281163
0.0305516
0.0116132
0.00671553
-0.015522
0.00489723
0.0600348
0.0339901
0.0377081
0.0296019
0.0255709
0.0027179
0.0296384
0.0249071
0.0194046
0.0155887
0.0275855
0.000827967
0.0293587
-0.00348691
0.00585197
-0.00701459
-0.00812299
0.00540308
0.00635682
-0.00736896
-0.00640126
0.00568351
0.00398634
-0.00806949
-0.0123496
0.0106173
-0.00356401
0.000419473
-0.000969352
-0.00462602
-0.000122971
-0.000508091
0.00246198
0.0023816
-0.000314326
0.00560729
-0.00616586
0.0125899
0.00826229
0.00717927
0.00982959
0.0163202
0.00597715
0.00632417
0.00472326
0.0054709
0.00850998
0.00600251
0.0186571
0.00814179
0.0105592
0.0271284
0.017865
0.00833084
0.0263396
0.00640584
0.0210795
0.023304
0.042784
0.0127654
0.0387639
0.0129362
0.0358384
-0.018225
0.0504425
0.0173607
0.0477696
0.0055716
0.034612
0.0156653
0.0594885
0.00791732
0.0507001
0.0624347
-0.0324224
0.0602306
0.00140669
0.0467168
0.0536788
-0.0162942
0.0519252
0.0432664
0.000964178
0.0322653
0.0407975
0.0434463
0.0462244
0.0348881
0.00260574
0.0285762
0.0420057
-0.0236175
0.0256139
0.0405575
0.00418106
0.0136434
-0.00852349
-0.0109781
0.0135206
0.0316581
0.0122945
0.0225667
0.0102796
0.0283416
-0.00174736
0.032513
0.0292211
-0.000465515
0.0312054
-0.00837151
0.0341515
0.0358949
0.0294061
0.042678
-0.00790323
0.00285717
-0.00376649
-0.0040172
-0.00392401
-0.00273891
-0.0097429
0.00193041
-0.00856669
0.00234739
-0.00393317
-0.00292287
-0.00997349
0.00398426
-0.00365995
-0.00270366
0.00274655
0.005577
-0.0050748
0.00046966
0.000555993
0.0012445
0.00144224
0.00551611
0.0123661
0.000756794
-0.00566755
0.014397
0.0186628
0.0111876
0.0150278
0.0115
-0.00250944
0.00840248
0.019025
0.010689
0.00854625
0.021864
0.0149196
0.0129401
0.0273043
0.0240929
0.000118448
0.027197
0.00101409
0.0208414
0.0121391
0.0118113
0.00902713
0.034906
0.0577676
0.0532419
-0.007101
0.0440237
0.0445996
0.00478668
0.0441196
0.0448573
0.069262
0.0456181
0.0117173
0.0551922
0.0347924
0.028367
0.0472078
0.0010845
0.0412555
0.0144621
0.0354315
0.0184998
-0.00878703
0.0509721
0.0357893
0.024347
0.0231453
0.0146001
0.0211667
0.0442119
0.0345122
0.00135651
0.0244345
0.00451085
0.0372463
-0.0137409
0.0171267
-0.0010826
-0.0147166
0.00490029
-0.00391948
-0.0170755
0.0513288
0.0336639
0.0275382
0.0331255
0.0303243
0.00124218
0.0309355
0.0138571
0.0211219
0.016279
0.0206609
0.0468547
0.0206581
0.0232611
-0.00934352
-0.00845864
0.00318348
0.00333625
-0.00823301
0.00403538
-0.00956237
0.00358451
-0.00648779
0.0054934
-0.00341913
-0.00231279
0.00639096
-0.00344338
0.00271933
-0.00970178
0.0040587
-0.00870026
-0.00540021
0.00237453
-0.00193781
-0.00217316
-0.000260721
0.00141659
0.00287544
-0.00159419
0.00150323
-0.00333724
0.00502631
0.0156978
0.00858532
0.010733
0.02049
0.00701541
0.00851104
0.00507211
0.00692771
0.00429562
0.00442191
0.010313
0.00935995
0.0125213
0.0100572
0.0257949
0.0113579
0.0166451
-0.00679578
0.0319266
0.0291594
0.033494
0.0407107
0.0452459
0.014239
0.0249319
0.0299841
0.0243391
0.0208151
0.025551
0.0202459
0.0203729
0.024774
0.0111198
0.0348697
0.0364288
0.0357317
0.0396512
0.00837306
0.0493991
0.00354373
0.0545164
-0.0146005
0.0450124
0.0295387
0.0190715
0.0437232
0.0517898
0.0602176
0.022007
0.0303653
0.0481791
0.0477864
0.045502
0.0261162
0.0193788
0.0215546
0.013691
-0.0163082
0.0173175
0.029594
0.0224663
-0.000382573
-0.0103044
0.00793327
-0.00718807
-0.00877377
0.00297122
0.0396147
0.0131445
0.0217503
0.0419751
-0.000626958
0.0349245
0.0326509
-0.000322294
0.0322971
0.0361495
0.0429213
0.0178976
0.0299969
0.0397296
0.0464546
-0.00694422
-0.00639722
-0.00795338
-0.00563262
-0.00134809
-0.0078068
0.00494218
-0.00529825
0.00356398
-0.00611836
0.00323439
-0.00373216
-0.00711847
-0.0116571
-5.57296e-05
0.00158521
0.00295657
-0.00438651
0.000423082
0.000490663
0.000847647
0.000884156
0.00222035
0.00310192
-0.00824294
0.0248718
0.0240365
0.0129564
0.0179458
0.0140793
0.0116825
0.00693248
-0.010703
0.0207884
0.0220744
0.0198781
-0.00471892
0.0222206
0.0283383
-0.00371925
0.0338847
0.0156422
0.0189156
0.022238
0.0198367
0.0157368
0.0310093
0.0452013
0.0507189
0.0473812
0.0474156
0.0418617
0.0480931
0.0563793
0.0421522
0.0462236
-0.00808029
0.060618
0.0343211
0.0228489
0.0397848
-0.0290025
0.049318
0.0161358
0.0317885
0.0218992
0.0277121
0.0348991
-0.0128202
0.0442314
0.0363799
0.0265091
0.0226634
0.0233545
0.0231271
0.0409053
0.0437991
0.0203009
-0.00422601
0.0130252
0.0173978
0.0362735
-0.0105668
0.00875164
-0.00456873
-0.0070047
-0.00156397
-0.00570561
0.0382174
0.00344695
0.0426586
0.0356595
0.0298196
0.00279855
0.0305884
-0.000709092
0.0380088
0.00787339
0.0359894
-0.00759622
0.0389468
0.010049
0.0305918
0.00700945
0.0405336
0.00264567
-0.0128199
-0.0102219
0.00275109
0.00144118
-0.0110382
0.000406911
-0.00576774
-0.00404163
0.00330569
0.00143701
-0.00145059
-0.00169958
0.00531591
-0.00116136
0.00242637
-0.00959444
0.000173985
-0.0116854
-0.0120491
-0.00200974
0.00112479
-7.38895e-05
0.0022911
0.00419253
0.00114038
0.0148513
0.0143328
0.010623
0.0282736
0.00501604
0.0134777
0.0197163
-0.000275803
0.01239
0.00702507
0.0152337
0.00626874
0.00348227
0.0193873
0.0366739
0.0265068
0.003537
0.0257924
0.00936443
0.0253759
0.0291927
-0.0220905
0.0545041
0.0244
0.0223912
0.0294938
0.0187671
0.0304868
0.0252381
0.0234718
0.0130194
0.0299456
0.0626866
0.000558631
0.0574246
0.0102951
0.0338158
0.058956
0.0152289
0.0490049
0.0524311
0.0588151
-0.011383
0.0538189
0.0330933
0.0181211
0.0495081
0.0514137
-0.0143808
0.051537
0.0312862
0.0141974
0.0380632
0.0594334
0.0470291
0.0414054
-0.00300096
0.0481346
0.00730463
0.0130307
-0.0108501
0.00581455
0.0247118
0.032339
0.00569978
-0.00342156
0.00213981
-0.00874318
0.00329078
-0.00635112
-0.00842621
0.00112597
0.0289619
0.0376252
0.0144801
0.0295388
0.00546849
0.0312966
0.0338083
-0.00343133
0.0349139
0.0468984
0.029628
0.0501358
0.0384747
0.0229362
0.0186809
-0.0131674
-0.0053975
-0.00496663
-0.00920062
-0.00534928
-0.00248486
7.29001e-05
0.00342317
0.00295096
-0.00359952
-0.00455337
0.00355499
-0.00574383
0.00545104
-0.00334632
0.00686544
-0.0103261
0.000343064
-0.0142307
-0.0125187
-0.00182839
0.00111539
0.000804848
0.00113726
0.00334148
0.00256157
-0.0122168
0.0280799
0.0310667
0.0171322
0.0297461
0.00196043
0.0182786
0.0149248
0.0108964
0.035365
0.0282029
0.0096791
-0.00328095
0.0310692
0.0328041
0.0235046
0.000302346
0.0259121
0.0238504
0.00619998
0.0235966
0.0323258
0.0593089
0.0488292
0.0499419
0.0557387
0.0548585
0.0303602
0.0341832
0.0199886
0.0391928
0.0471358
0.00858979
0.0432786
0.0190017
0.0358116
0.0280785
0.033307
0.0310039
0.0256179
-0.029917
0.0495956
0.020984
0.0278863
0.025569
0.0205155
0.0325012
0.053491
0.0257038
0.0348565
0.0453109
-0.00429209
0.0469821
0.0450063
-0.007386
0.0194754
0.0121941
-0.0079574
0.0315574
-0.00861027
0.00372199
-0.00851639
-0.00716694
-0.00642569
-0.0125101
0.0435225
0.0278052
0.0387334
0.0360643
0.0285769
0.0351409
0.0233309
0.0123315
0.0163528
0.0314064
0.0469228
0.0274784
0.0237589
0.0232221
0.016217
0.0428409
-0.00391885
-0.0104369
-0.00750618
0.00247347
0.0011711
-0.0111134
0.000936934
-0.00570983
-0.00335441
0.0026064
-0.00331641
0.00533595
0.00121395
-0.000764485
-0.0027348
-0.000240781
-0.000965277
0.00316779
0.00866279
0.000426011
-0.0114352
-0.00121709
-0.0138992
-0.00948193
-0.00604419
-0.0153763
-0.000904742
0.00140939
1.22965e-05
0.0030148
0.0291458
0.00336004
0.0480237
0.0204942
0.00996251
0.00620749
0.0123267
0.00687586
0.00825909
0.00559686
0.00558573
0.0299812
0.00665674
0.0345444
0.0357999
0.0192273
0.0146856
0.044017
0.0329438
-0.0182311
0.0521485
0.0430465
0.0128419
0.0372765
0.0643312
-0.00565786
0.0631699
0.0323753
0.0242237
0.0645687
0.0560534
-0.00685251
0.0471604
0.00876153
0.0402307
0.0419157
0.00665177
0.0386696
0.0491046
0.0444892
0.0438227
-0.00987595
0.0369953
0.0576257
-0.00620282
0.0504349
0.0476378
-0.00798181
0.0421609
0.0479463
-0.0205346
0.0474818
7.30339e-05
0.0357094
0.0466588
0.0137988
0.0339933
0.0283428
0.0177144
0.00405207
0.0133345
0.00613063
-0.00562042
0.00346519
0.0287701
-0.00389942
-0.00673986
-0.00316804
-0.00567435
-0.011709
0.0354932
-0.0090864
0.0384878
0.0139838
0.0257875
0.0101077
0.0268288
0.0254385
0.00410222
0.00733806
0.0289646
0.0316316
0.0386005
-0.00352918
0.0360195
0.000739363
0.0474102
-0.0121063
0.041041
0.04098
0.0279811
0.0160183
-0.0150704
-0.00995532
-0.00635856
-0.00876665
-0.00229367
0.00769355
0.000647339
0.00698041
0.00469399
-0.00295818
0.00287855
0.00222877
-0.00192516
-0.00401551
0.00396657
0.00696232
-0.00230251
0.00879407
-0.0150776
-0.0118698
-0.0036317
-0.0193933
-0.0131569
-0.00436405
0.00102094
0.00060482
0.000953738
0.00243069
0.027721
0.0215812
0.0272708
0.0409566
0.0194487
0.0142179
0.00685791
0.0355543
0.0359026
8.1242e-05
-0.0212546
0.0592872
0.0523338
0.0244245
0.00460486
0.0293126
0.047968
-0.0109701
0.056309
0.0632073
0.0357138
0.0306124
0.0250399
0.040106
0.0307184
0.0354059
0.0242918
0.0331956
0.0211572
0.0271773
0.0339204
0.0134763
0.0306046
0.00553118
0.034572
0.0215317
0.0295546
0.0166301
0.0296568
0.0205337
0.0249292
0.0252125
0.0133072
0.0489686
0.0459162
0.00526254
0.0437435
0.0487282
0.0286943
0.000621126
0.0478864
0.0371635
0.0339673
0.0139641
0.0428929
0.0314167
0.0531264
-0.00608742
0.0085127
0.0168668
-0.00764492
0.0129797
-0.00735998
-0.000881074
0.0210881
-0.0139387
-0.0152991
0.0159318
0.0208745
0.0255082
0.0150088
0.0431095
0.0368341
0.0318874
0.0345259
-0.00378229
0.0365652
0.0360454
0.0376445
0.0368941
-0.00861144
0.051064
0.0336569
0.0510169
-0.00256555
-0.0129765
-0.0131213
0.00124369
-0.0066273
0.00158023
-0.01021
0.00181359
-0.00196719
0.00824315
0.00187723
0.000558758
0.00874391
0.00140915
0.00558976
-2.58111e-05
-0.00027511
-0.000443896
0.00600047
-0.000950933
0.0052303
0.00808748
0.0030572
-0.012352
-0.0054489
-0.0185869
-0.017877
-0.00296803
-0.0187769
0.000736462
0.00287789
-0.0169614
0.0397802
0.00259518
0.0248527
0.0396363
0.00170395
0.0222856
0.0011602
0.0130322
0.00802754
-0.0142943
0.0509046
0.0305031
0.0435481
0.0306142
0.0233344
0.0569102
-0.0111685
0.061412
0.0472906
0.0131053
0.0516203
0.050051
0.0577421
-0.00861629
0.0501374
0.0564682
-0.0176126
0.0545403
0.0557873
0.0570734
0.0561844
0.0404915
0.0375685
0.0120051
0.0238227
0.0482288
0.048021
0.0432104
0.0301533
-0.00828777
0.059481
-0.0109716
0.0594239
0.0346283
0.0265751
0.0239218
0.042206
0.00709018
0.0522536
0.0131185
0.0307142
0.0454638
0.0220936
0.0325258
-0.00753704
-6.94526e-05
0.000169692
-0.00195916
0.0189528
0.0109434
-0.0109164
-0.00166988
0.0234113
-0.00609974
-0.00984655
-0.0103474
-0.0079932
0.000942926
0.0210124
0.0278813
-0.0127652
0.0289352
0.0186544
0.0259369
0.0136341
0.0242127
0.0467104
0.0103784
0.0253203
0.0484477
-0.0150057
0.0531353
-0.00832866
0.0472041
-0.0116051
0.0497021
0.0464633
0.00600267
0.0255479
0.0266949
0.0020453
-0.0158864
-0.0114695
-0.0082896
-0.00336762
0.00154697
0.0109184
0.0120934
0.00311127
0.00861517
0.00674106
0.00212242
-0.00141596
0.00195167
-0.0023836
0.0027507
-0.00325674
0.0029909
-0.00134402
0.00756696
-0.00614942
0.0108837
-0.0185305
-0.0152329
-0.00503784
-0.0164995
-0.019415
-0.0150448
-0.00593172
3.96577e-05
-0.000611868
0.00356615
0.0262009
-0.00660124
0.0314845
0.0328907
0.0531003
0.000314131
0.0217424
0.0131324
0.00746824
0.0573378
0.0424987
0.00241191
-0.0355727
0.0610226
0.0759138
-0.0166734
0.0544522
-0.016628
0.0662911
0.0352977
0.025829
0.0257258
0.0285408
0.0305567
0.0257799
0.0259034
0.0345433
0.0232621
0.0225174
0.0330459
0.0193061
0.0378669
0.042176
0.01633
0.0283028
0.0300856
0.00949936
0.0324646
0.0140417
0.024661
0.0388702
0.0262305
0.0241499
0.0227412
0.0268666
0.0173248
0.027837
0.00289411
0.02879
0.0533457
0.0449688
0.0629515
0.0542793
-0.000730257
0.0439157
0.0506826
0.0527843
0.0542696
0.0382675
-0.0257451
0.0598233
0.00727711
-0.00874599
0.00592005
0.0178092
-0.0019336
0.0124417
-0.0107324
-0.00257662
0.0117243
-0.0162438
-0.000477216
-0.0115663
0.025028
0.0142161
0.015007
0.0122378
0.0177967
0.0455214
0.0517566
0.0334893
-0.00815067
0.0589514
0.0470315
0.0365817
0.036836
0.0140679
0.0170263
0.0306607
0.0440242
0.0450407
-0.00312161
-0.0123392
-0.0142404
0.00113335
-0.0079853
0.00111811
-0.00216409
0.00419282
0.000547059
0.00617614
0.00759985
0.00833078
0.00620249
0.0129074
0.0172706
0.00911097
0.000228551
0.000115883
0.00532132
-0.00165488
0.00495045
0.00284343
0.00718792
0.00554729
-0.0095635
-0.0106379
-0.0217716
-0.0180701
0.00123893
-0.020159
-0.000390445
-0.0169892
0.000670305
0.00184992
0.00175398
0.070215
0.0109879
0.0198318
0.0259369
0.00606524
0.044597
0.0083204
0.00386783
0.0168537
-0.000954798
0.0139589
0.00637107
0.0237268
0.0804969
0.0461487
0.0386478
0.0175979
0.0319159
0.0362282
0.0625986
0.0557736
0.058018
0.0661804
0.0551896
0.0468481
-0.0133756
0.0475762
0.0554974
0.058518
0.0397372
0.00554145
0.0287154
0.0317977
0.0231582
0.0171318
0.0486176
0.0459344
0.052817
0.00648133
0.0488146
-0.013845
0.0609763
0.0424458
0.022859
0.0319612
0.0243345
0.0416284
0.00373714
0.0385108
0.0132416
0.0281033
0.0102617
0.045482
0.0499059
0.0235308
0.0372363
-0.00620642
-0.00404845
0.00835796
-0.00329404
0.0109765
0.00735699
0.0058619
0.00778989
0.00477337
-0.0131394
-0.0101532
0.0232049
-0.00283689
-0.0155178
-0.0158546
0.0407057
0.0282824
-0.00252801
0.0214146
-0.00658751
0.0535601
0.0186271
0.0344742
0.0537366
0.0853977
-0.0515892
0.101956
0.0458778
-0.00798354
0.0612658
-0.0255378
0.0576534
0.0198004
0.0396626
0.00365426
-0.0158168
-0.0118194
-0.00491109
0.00144882
0.0186457
0.0153482
0.0138942
0.0031154
0.00202609
0.0187381
0.011372
0.00259752
-0.00093125
0.00160972
0.00264604
-0.00201874
0.00170187
0.00476487
0.00112437
0.00855173
-0.00683796
0.0139604
0.0021265
-0.0142862
-0.0141935
-0.00867368
-0.0141277
-0.0191794
-0.0152567
0.004308
-0.0230079
0.000202315
0.00821127