/*--------------------------------*- C++ -*----------------------------------*\
| =========                 |                                                 |
| \\      /  F ield         | OpenFOAM: The Open Source CFD Toolbox           |
|  \\    /   O peration     | Version:  v2012                                 |
|   \\  /    A nd           | Website:  www.openfoam.com                      |
|    \\/     M anipulation  |                                                 |
\*---------------------------------------------------------------------------*/
FoamFile
{
    version     2.0;
    format      ascii;
    class       pointVectorField;
    location    "0.2";
    object      pointDisplacement;
}
// * * * * * * * * * * * * * * * * * * * * * * * * * * * * * * * * * * * * * //

dimensions      [0 1 0 0 0 0 0];


internalField   nonuniform List<vector> 
14482
(
(0 0 0)
(0 0 0)
(0 0 0)
(0 0 0)
(0 0 0)
(0 0 0)
(0 0 0)
(0 0 0)
(0 0 0)
(0 0 0)
(0 0 0)
(0 0 0)
(0 0 0)
(0 0 0)
(0 0 0)
(0 0 0)
(0 0 0)
(0 0 0)
(0 0 0)
(0 0 0)
(0 0 0)
(0 0 0)
(0 0 0)
(0 0 0)
(0 0 0)
(0 0 0)
(0 0 0)
(0 0 0)
(0 0 0)
(0 0 0)
(0 0 0)
(0 0 0)
(0 0 0)
(0 0 0)
(0 0 0)
(0 0 0)
(0 0 0)
(0 0 0)
(0 0 0)
(0 0 0)
(0 0 0)
(0 0 0)
(0 0 0)
(0 0 0)
(0 0 0)
(0 0 0)
(0 0 0)
(0 0 0)
(0 0 0)
(0 0 0)
(0 0 0)
(0 0 0)
(0 0 0)
(0 0 0)
(0 0 0)
(0 0 0)
(0 0 0)
(0 0 0)
(0 0 0)
(0 0 0)
(0 0 0)
(0 0 0)
(0 0 0)
(0 0 0)
(0 0 0)
(0 0 0)
(0 0 0)
(0 0 0)
(0 0 0)
(0 0 0)
(0 0 0)
(0 0 0)
(0 0 0)
(0 0 0)
(0 0 0)
(0 0 0)
(0 0 0)
(0 0 0)
(0 0 0)
(0 0 0)
(0 0 0)
(0 0 0)
(0 0 0)
(0.0240134 -0.106911 0)
(0.0241346 -0.10686 0)
(0.0242651 -0.106805 0)
(0.0244056 -0.106746 0)
(0.024557 -0.106682 0)
(0.02472 -0.106614 0)
(0.0248955 -0.10654 0)
(0.0250845 -0.10646 0)
(0.0252881 -0.106374 0)
(0.0255072 -0.106282 0)
(0.025743 -0.106182 0)
(0.0259969 -0.106075 0)
(0.0262702 -0.10596 0)
(0.0265296 -0.105775 0)
(0.0268055 -0.105571 0)
(0.0271024 -0.105351 0)
(0.027399 -0.105086 0)
(0.0277122 -0.104795 0)
(0.0280294 -0.104462 0)
(0.0283598 -0.104094 0)
(0.0286926 -0.103679 0)
(0.0290305 -0.103218 0)
(0.0293733 -0.102708 0)
(0.0297191 -0.102145 0)
(0.0300667 -0.101527 0)
(0.0304114 -0.100847 0)
(0.030756 -0.100104 0)
(0.0310969 -0.0992946 0)
(0.0314339 -0.0984138 0)
(0.0317645 -0.0974575 0)
(0.0320872 -0.0964214 0)
(0.0324011 -0.0953009 0)
(0.0327045 -0.0940913 0)
(0.0329955 -0.0927874 0)
(0.033272 -0.0913838 0)
(0.0335323 -0.0898749 0)
(0.0337744 -0.0882549 0)
(0.0339964 -0.0865176 0)
(0.0341958 -0.0846568 0)
(0.0343703 -0.0826659 0)
(0.0345169 -0.0805382 0)
(0.0346332 -0.0782666 0)
(0.0347161 -0.0758443 0)
(0.0347623 -0.0732639 0)
(0.0347687 -0.0705184 0)
(0.0347319 -0.0676005 0)
(0.034648 -0.0645029 0)
(0.0345134 -0.0612187 0)
(0.0343241 -0.057741 0)
(0.0340763 -0.0540632 0)
(0.0337656 -0.0501789 0)
(0.0333881 -0.0460828 0)
(0.0329395 -0.0417691 0)
(0.0324159 -0.0372337 0)
(0.0318131 -0.0324726 0)
(0.0311275 -0.027483 0)
(0.0303552 -0.0222627 0)
(0.0294933 -0.0168118 0)
(0.0285384 -0.0111298 0)
(0.0274883 -0.00521898 0)
(0.0263409 0.000917515 0)
(0.0250949 0.00727489 0)
(0.0237495 0.0138471 0)
(0.0223047 0.0206257 0)
(0.0207612 0.0276017 0)
(0.0191207 0.0347635 0)
(0.0173856 0.0420982 0)
(0.0155589 0.0495919 0)
(0.0136452 0.0572278 0)
(0.011649 0.0649894 0)
(0.00957617 0.0728578 0)
(0.00743315 0.0808132 0)
(0.00522709 0.088835 0)
(0.00296545 0.0969021 0)
(0.000656589 0.104992 0)
(-0.00169126 0.113083 0)
(-0.00406921 0.121153 0)
(-0.00646869 0.12918 0)
(-0.0088807 0.137143 0)
(-0.0112965 0.14502 0)
(-0.0137076 0.152791 0)
(-0.0161059 0.160438 0)
(-0.0184834 0.167943 0)
(-0.0208329 0.175289 0)
(-0.0231474 0.182462 0)
(-0.0254207 0.189449 0)
(-0.027647 0.196238 0)
(-0.0298213 0.202819 0)
(-0.0319393 0.209184 0)
(-0.0339968 0.215327 0)
(-0.035991 0.221243 0)
(-0.037919 0.226928 0)
(-0.039779 0.232381 0)
(-0.0415695 0.237602 0)
(-0.0432895 0.24259 0)
(-0.0449384 0.247349 0)
(-0.0465164 0.251882 0)
(-0.0480236 0.256191 0)
(-0.0494608 0.260283 0)
(-0.0508292 0.264163 0)
(-0.0521298 0.267836 0)
(-0.0533644 0.271309 0)
(-0.0545346 0.27459 0)
(-0.0556423 0.277684 0)
(-0.0566895 0.2806 0)
(-0.0576784 0.283346 0)
(-0.0586112 0.285928 0)
(-0.0594902 0.288355 0)
(-0.0603176 0.290633 0)
(-0.0610957 0.292771 0)
(-0.0618268 0.294774 0)
(-0.0625133 0.296651 0)
(-0.0631572 0.298408 0)
(-0.0637609 0.300052 0)
(-0.0643264 0.30159 0)
(-0.0648559 0.303026 0)
(-0.0653513 0.304369 0)
(-0.0658145 0.305622 0)
(-0.0662474 0.306791 0)
(-0.0666519 0.307882 0)
(-0.0670295 0.3089 0)
(-0.0673819 0.309848 0)
(-0.0677107 0.310732 0)
(-0.0680173 0.311556 0)
(-0.0683032 0.312323 0)
(-0.0685696 0.313037 0)
(-0.0688179 0.313702 0)
(-0.0690491 0.314321 0)
(-0.0692643 0.314896 0)
(-0.0694647 0.315432 0)
(-0.0696513 0.31593 0)
(-0.0698248 0.316394 0)
(-0.0699862 0.316824 0)
(-0.0701364 0.317225 0)
(-0.070276 0.317597 0)
(-0.070406 0.317943 0)
(-0.0705267 0.318265 0)
(-0.070639 0.318563 0)
(-0.0707433 0.318841 0)
(-0.0708403 0.319099 0)
(-0.0709303 0.319338 0)
(-0.071014 0.319561 0)
(-0.0710919 0.319768 0)
(-0.0711641 0.31996 0)
(-0.0712311 0.320138 0)
(-0.0712935 0.320303 0)
(-0.0713514 0.320457 0)
(-0.0714052 0.3206 0)
(-0.0714551 0.320732 0)
(-0.0715014 0.320855 0)
(-0.0716297 0.320827 0)
(-0.0717432 0.320801 0)
(-0.071847 0.320778 0)
(-0.071945 0.320756 0)
(-0.0720403 0.320734 0)
(-0.0721355 0.320713 0)
(-0.0722335 0.320691 0)
(-0.0723373 0.320668 0)
(-0.0724508 0.320642 0)
(-0.0725791 0.320613 0)
(-0.0725684 0.320482 0)
(-0.0725568 0.320341 0)
(-0.0725444 0.320189 0)
(-0.072531 0.320025 0)
(-0.0725165 0.319849 0)
(-0.0725009 0.319659 0)
(-0.0724842 0.319455 0)
(-0.072466 0.319235 0)
(-0.0724465 0.318998 0)
(-0.0724255 0.318743 0)
(-0.0724028 0.318468 0)
(-0.0723784 0.318173 0)
(-0.0723521 0.317855 0)
(-0.0723238 0.317512 0)
(-0.0722932 0.317144 0)
(-0.0722603 0.316748 0)
(-0.0722247 0.316321 0)
(-0.0721865 0.315863 0)
(-0.0721453 0.31537 0)
(-0.0721008 0.31484 0)
(-0.0720529 0.31427 0)
(-0.0720013 0.313658 0)
(-0.0719457 0.312999 0)
(-0.0718857 0.312292 0)
(-0.0718211 0.311532 0)
(-0.0717515 0.310717 0)
(-0.0716766 0.309842 0)
(-0.0715957 0.308902 0)
(-0.0715087 0.307894 0)
(-0.0714149 0.306813 0)
(-0.0713139 0.305653 0)
(-0.0712051 0.304411 0)
(-0.071088 0.30308 0)
(-0.0709617 0.301655 0)
(-0.0708259 0.30013 0)
(-0.0706797 0.298498 0)
(-0.0705222 0.296754 0)
(-0.0703529 0.29489 0)
(-0.0701707 0.2929 0)
(-0.0699749 0.290776 0)
(-0.0697642 0.288511 0)
(-0.0695379 0.286098 0)
(-0.0692946 0.283529 0)
(-0.0690336 0.280796 0)
(-0.0687534 0.277891 0)
(-0.0684529 0.274807 0)
(-0.0681307 0.271536 0)
(-0.0677856 0.26807 0)
(-0.0674163 0.264402 0)
(-0.0670212 0.260526 0)
(-0.0665991 0.256434 0)
(-0.0661485 0.25212 0)
(-0.065668 0.24758 0)
(-0.065156 0.242808 0)
(-0.0646115 0.237801 0)
(-0.0640328 0.232556 0)
(-0.0634187 0.227071 0)
(-0.0627681 0.221347 0)
(-0.0620796 0.215383 0)
(-0.0613524 0.209183 0)
(-0.0605854 0.20275 0)
(-0.0597777 0.19609 0)
(-0.0589288 0.189212 0)
(-0.0580381 0.182123 0)
(-0.0571051 0.174835 0)
(-0.0561297 0.167361 0)
(-0.0551119 0.159715 0)
(-0.0540517 0.151915 0)
(-0.0529494 0.143977 0)
(-0.0518056 0.135921 0)
(-0.0506209 0.127768 0)
(-0.0493961 0.119538 0)
(-0.0481323 0.111256 0)
(-0.0468308 0.102945 0)
(-0.0454929 0.0946263 0)
(-0.0441204 0.0863262 0)
(-0.0427149 0.0780667 0)
(-0.0412786 0.0698721 0)
(-0.0398137 0.0617643 0)
(-0.0383225 0.0537653 0)
(-0.0368077 0.0458956 0)
(-0.0352722 0.0381747 0)
(-0.0337187 0.0306196 0)
(-0.0321506 0.0232475 0)
(-0.0305708 0.016072 0)
(-0.0289827 0.00910599 0)
(-0.0273899 0.00236068 0)
(-0.0257955 -0.00415564 0)
(-0.0242032 -0.0104352 0)
(-0.0226161 -0.0164729 0)
(-0.0210376 -0.0222651 0)
(-0.0194708 -0.0278096 0)
(-0.0179189 -0.0331055 0)
(-0.0163846 -0.0381547 0)
(-0.0148706 -0.0429582 0)
(-0.0133794 -0.0475198 0)
(-0.0119131 -0.0518435 0)
(-0.0104739 -0.0559347 0)
(-0.00906344 -0.0597988 0)
(-0.0076832 -0.0634428 0)
(-0.00633448 -0.0668733 0)
(-0.00501831 -0.0700979 0)
(-0.00373557 -0.0731243 0)
(-0.00248668 -0.0759601 0)
(-0.00127216 -0.0786135 0)
(-9.22185e-05 -0.0810926 0)
(0.00105305 -0.0834053 0)
(0.00216389 -0.0855596 0)
(0.00324036 -0.0875632 0)
(0.00428284 -0.0894239 0)
(0.00529194 -0.0911489 0)
(0.00626796 -0.0927457 0)
(0.00721155 -0.0942212 0)
(0.00812326 -0.095582 0)
(0.00900384 -0.0968347 0)
(0.00985402 -0.0979852 0)
(0.0106747 -0.0990395 0)
(0.0114662 -0.100003 0)
(0.0122291 -0.100882 0)
(0.0129639 -0.10168 0)
(0.0136717 -0.102403 0)
(0.014353 -0.103055 0)
(0.0150075 -0.103642 0)
(0.0156365 -0.104166 0)
(0.0162388 -0.104633 0)
(0.0168176 -0.105043 0)
(0.0173708 -0.105404 0)
(0.0178987 -0.105718 0)
(0.0184014 -0.105991 0)
(0.0188797 -0.106223 0)
(0.0193358 -0.106415 0)
(0.0197649 -0.10658 0)
(0.0201726 -0.106709 0)
(0.0205536 -0.106822 0)
(0.0209161 -0.106894 0)
(0.021253 -0.10696 0)
(0.0215666 -0.107017 0)
(0.0218629 -0.107004 0)
(0.0221381 -0.106992 0)
(0.0223939 -0.106981 0)
(0.0226314 -0.106971 0)
(0.0228521 -0.106961 0)
(0.023057 -0.106953 0)
(0.0232473 -0.106944 0)
(0.023424 -0.106937 0)
(0.0235882 -0.10693 0)
(0.0237406 -0.106923 0)
(0.0238821 -0.106917 0)
(-0.000604296 0.0373945 0)
(-0.00129728 0.042662 0)
(-0.00123715 0.0396506 0)
(-0.00223975 0.0418962 0)
(-0.00163201 0.0373364 0)
(-0.00148746 0.0388444 0)
(-0.00369027 0.0395127 0)
(-0.00346476 0.0394605 0)
(-0.00433828 0.0442749 0)
(0.000443747 0.0230485 0)
(0.00107748 0.0222792 0)
(0.000515286 0.0255435 0)
(0.000179758 0.0630744 0)
(0.000656912 0.0654898 0)
(-0.00123617 0.0740087 0)
(0.000827193 0.0295607 0)
(0.00148229 0.0303094 0)
(0.000646042 0.0328075 0)
(-0.00477447 0.0621807 0)
(-0.00461135 0.0624523 0)
(-0.00510688 0.0639437 0)
(-0.00414128 0.058208 0)
(-0.0037795 0.058262 0)
(-0.00443144 0.0602255 0)
(-0.0076948 0.0679758 0)
(-0.00942438 0.0775965 0)
(-0.00890675 0.0733808 0)
(-0.00133151 0.0254932 0)
(-0.00171906 0.0286547 0)
(-0.0016038 0.0264909 0)
(0.00183824 0.0216217 0)
(0.00248029 0.0232646 0)
(0.00154664 0.0260508 0)
(0.00192933 0.0557278 0)
(0.00218791 0.0607041 0)
(-0.00410484 0.07962 0)
(-0.00296631 0.0710557 0)
(-0.00271632 0.0736852 0)
(0.00285956 0.0314046 0)
(0.00406257 0.0269077 0)
(0.00354892 0.0321365 0)
(-0.00515742 0.0647014 0)
(-0.00557456 0.066071 0)
(-0.00562889 0.0660181 0)
(-0.00676591 0.068308 0)
(-0.00750105 0.0726554 0)
(-0.00769377 0.0726751 0)
(-0.00382731 0.0486077 0)
(-0.00404168 0.0479068 0)
(-0.00325459 0.0436621 0)
(-0.000738686 0.0110522 0)
(-0.000804811 0.0108886 0)
(-0.000627816 0.00967193 0)
(0.00106964 0.0103747 0)
(0.000778172 0.0122789 0)
(0.000714996 0.0100824 0)
(0.000443005 0.012262 0)
(0.0019317 0.0100062 0)
(0.00198658 0.00769098 0)
(0.00230076 0.00849503 0)
(0.00693351 0.0343718 0)
(0.00588575 0.0356649 0)
(0.00685341 0.0282608 0)
(0.00364951 0.0689787 0)
(0.00187973 0.0753274 0)
(0.00352626 0.0641419 0)
(-0.0117311 0.125032 0)
(-0.0111552 0.119436 0)
(-0.00963371 0.113245 0)
(0.00329104 0.00708134 0)
(0.00394723 0.00523319 0)
(0.00359498 0.00915076 0)
(0.00888093 0.000607749 0)
(0.00962545 0.00217205 0)
(0.0086076 0.00543242 0)
(-0.00558467 0.065238 0)
(-0.00545255 0.0654425 0)
(-0.00546272 0.0646118 0)
(-0.00509726 0.0592474 0)
(-0.00527265 0.0600707 0)
(-0.00529979 0.0606768 0)
(-0.0120084 0.0968401 0)
(-0.0104811 0.089514 0)
(-0.0126368 0.100635 0)
(-0.0250225 0.159606 0)
(-0.0211784 0.142468 0)
(-0.0244132 0.157689 0)
(-0.0157182 0.110402 0)
(-0.0157165 0.111528 0)
(-0.0177859 0.12116 0)
(-0.00996623 0.0685511 0)
(-0.00902128 0.0649296 0)
(-0.0105449 0.0729675 0)
(-0.00676845 0.0550114 0)
(-0.0068853 0.0539906 0)
(-0.00602194 0.0498494 0)
(-0.00189742 0.0226511 0)
(-0.00165199 0.0219464 0)
(-0.00209637 0.0249013 0)
(0.000134855 0.012405 0)
(-0.000173165 0.0126553 0)
(6.76776e-05 0.0106697 0)
(0.000922296 0.00509847 0)
(0.000786293 0.00611343 0)
(0.00073992 0.00500529 0)
(0.00191615 0.00468426 0)
(0.00163003 0.00556589 0)
(0.00164574 0.00405197 0)
(0.00270399 0.000494246 0)
(0.00232443 0.00181812 0)
(0.00226386 -3.42051e-05 0)
(0.00822356 0.0417786 0)
(0.0109679 0.0310304 0)
(0.00963313 0.0427887 0)
(-0.00979157 0.123756 0)
(-0.00706992 0.112066 0)
(-0.0092583 0.124346 0)
(0.00730285 0.0536531 0)
(0.00572679 0.0659865 0)
(0.00526498 0.063707 0)
(-0.0091027 0.113469 0)
(-0.00716082 0.106548 0)
(-0.00974972 0.120367 0)
(-0.00890722 0.0981543 0)
(-0.010825 0.108299 0)
(-0.00916462 0.0969941 0)
(0.00864267 -0.0144745 0)
(0.00769986 -0.013448 0)
(0.0085715 -0.0166448 0)
(0.0143205 -0.0232461 0)
(0.0160984 -0.0229269 0)
(0.014589 -0.017825 0)
(-0.00630551 0.0730625 0)
(-0.00710539 0.0781165 0)
(-0.00646037 0.0729927 0)
(-0.011297 0.109213 0)
(-0.0131195 0.120207 0)
(-0.0112301 0.0955774 0)
(-0.0124543 0.102687 0)
(-0.0137278 0.109008 0)
(-0.0324822 0.192885 0)
(-0.0272881 0.171973 0)
(-0.0298477 0.183036 0)
(-0.0155955 0.10656 0)
(-0.0155638 0.108151 0)
(-0.0173782 0.116206 0)
(-0.0102995 0.0743527 0)
(-0.0120589 0.0844276 0)
(-0.0115103 0.0794458 0)
(-0.00592811 0.0397677 0)
(-0.00627287 0.0397962 0)
(-0.00499776 0.0334961 0)
(-0.00150455 0.0158294 0)
(-0.00135756 0.015343 0)
(-0.00161618 0.0172445 0)
(-0.000350362 0.0071925 0)
(-0.000374649 0.00681288 0)
(-0.000305746 0.00650749 0)
(0.000112452 0.00668916 0)
(0.000238931 0.00716854 0)
(0.000107427 0.00780538 0)
(-2.36401e-06 0.00898778 0)
(0.000187621 0.0088955 0)
(0.00109784 0.00730503 0)
(0.000993931 0.00882879 0)
(0.000820719 0.00775117 0)
(0.00093675 0.00116947 0)
(0.00115436 0.00177646 0)
(0.000960023 0.00174352 0)
(0.000962198 0.00641752 0)
(0.011921 0.0333221 0)
(0.0105051 0.0447293 0)
(0.0159504 0.0126075 0)
(0.0142652 0.022881 0)
(0.0144997 0.0127505 0)
(-0.0113756 0.139165 0)
(-0.0104175 0.133563 0)
(-0.00815779 0.125355 0)
(-0.00295835 0.112662 0)
(-0.000718947 0.104264 0)
(-0.00279512 0.11339 0)
(-0.0121895 0.136233 0)
(-0.01288 0.120867 0)
(-0.0159817 0.137701 0)
(-0.0149403 0.130814 0)
(0.0134586 -0.0387549 0)
(0.0119339 -0.0360483 0)
(0.0124961 -0.040304 0)
(0.0118655 -0.0202152 0)
(0.0115725 -0.0235444 0)
(0.0129906 -0.0249928 0)
(0.0141931 -0.03524 0)
(0.0158345 -0.0399508 0)
(0.0159213 -0.0353243 0)
(-0.0145609 0.121416 0)
(-0.0126365 0.110041 0)
(-0.012018 0.107774 0)
(-0.00580565 0.0660551 0)
(-0.00655652 0.0714778 0)
(-0.00634211 0.0692372 0)
(-0.0163902 0.132523 0)
(-0.0178098 0.140998 0)
(-0.0199117 0.14989 0)
(-0.00591585 0.0664005 0)
(-0.00623345 0.0676289 0)
(-0.0063564 0.0685269 0)
(-0.0102083 0.0920416 0)
(-0.00919467 0.0852262 0)
(-0.0104018 0.0930518 0)
(-0.0329047 0.193756 0)
(-0.0360387 0.205374 0)
(-0.0325112 0.191401 0)
(-0.0283124 0.165572 0)
(-0.0290391 0.165646 0)
(-0.0256976 0.152515 0)
(-0.0191759 0.107423 0)
(-0.0195088 0.112554 0)
(-0.0209587 0.117426 0)
(-0.0106008 0.0703735 0)
(-0.0120278 0.076487 0)
(-0.0103636 0.0672569 0)
(-0.0117926 0.0792204 0)
(-0.0112619 0.0750592 0)
(-0.00553885 0.0391224 0)
(-0.00663502 0.0450093 0)
(-0.00279239 0.0206148 0)
(-0.00222349 0.0169974 0)
(-0.0023134 0.018125 0)
(-0.000310772 0.00604378 0)
(-0.000240093 0.00595061 0)
(0.000423926 0.00708329 0)
(0.0003212 0.00584117 0)
(-0.000207182 0.00688383 0)
(-0.000127047 0.00608232 0)
(-0.000129503 0.0072422 0)
(0.000736968 0.00398966 0)
(0.000770514 0.00323547 0)
(0.000934348 0.00386056 0)
(0.00198552 0.00132041 0)
(0.00119834 0.00109796 0)
(0.00087596 0.00279645 0)
(0.000687358 0.00201626 0)
(0.000847303 0.00200415 0)
(0.0029587 -0.00925402 0)
(0.00255785 -0.00986414 0)
(0.00330375 -0.0109338 0)
(0.0149965 0.026889 0)
(0.0127545 0.0363517 0)
(0.0138366 0.0375039 0)
(0.0156603 0.028801 0)
(0.0214133 -0.0219923 0)
(0.0192587 -0.0177022 0)
(0.0200211 -0.0272132 0)
(-0.0140513 0.14927 0)
(-0.0135641 0.148465 0)
(-0.0153582 0.155017 0)
(-0.0118426 0.137517 0)
(-0.0084532 0.132534 0)
(-0.00582666 0.122044 0)
(-0.00666215 0.12663 0)
(0.000743976 0.0995106 0)
(0.00130837 0.0957835 0)
(-0.0167196 0.154886 0)
(-0.0195247 0.165457 0)
(-0.0162711 0.151487 0)
(-0.0267328 0.190456 0)
(-0.0257319 0.187583 0)
(-0.029074 0.198921 0)
(-0.0189988 0.153396 0)
(-0.0198832 0.155874 0)
(-0.0239315 0.173387 0)
(-0.0243625 0.174314 0)
(-0.0213592 0.161213 0)
(0.00408821 -0.00921985 0)
(0.00397686 -0.00704539 0)
(0.00356388 -0.00802004 0)
(0.00886978 -0.023016 0)
(0.00843622 -0.0256896 0)
(0.00970048 -0.0288205 0)
(0.0103374 -0.0262661 0)
(0.0115143 -0.0274126 0)
(0.0107397 -0.0240479 0)
(0.0133578 -0.0297571 0)
(0.0124199 -0.0274234 0)
(0.012592 -0.0311008 0)
(-0.0114851 0.10607 0)
(-0.00987077 0.0978373 0)
(-0.0122184 0.111658 0)
(-0.00970806 0.0911537 0)
(-0.0104995 0.0965706 0)
(-0.0120474 0.105069 0)
(-0.0070751 0.0745967 0)
(-0.0232712 0.164698 0)
(-0.0199497 0.148781 0)
(-0.00691246 0.0694552 0)
(-0.00570998 0.0611677 0)
(-0.00668354 0.0676139 0)
(-0.00991488 0.0899181 0)
(-0.0116833 0.100966 0)
(-0.0128556 0.107819 0)
(-0.0112501 0.0985209 0)
(-0.0319236 0.1882 0)
(-0.0283933 0.174297 0)
(-0.023199 0.1477 0)
(-0.0257993 0.160044 0)
(-0.0267011 0.162758 0)
(-0.0538282 0.233872 0)
(-0.0532455 0.226817 0)
(-0.0512122 0.227074 0)
(-0.0228667 0.130738 0)
(-0.0234133 0.128512 0)
(-0.0210701 0.121248 0)
(-0.00883143 0.0545334 0)
(-0.00999994 0.0587774 0)
(-0.00897917 0.0530017 0)
(-0.00336443 0.0232001 0)
(-0.00250983 0.018213 0)
(-0.00527748 0.0318493 0)
(-0.00482361 0.030412 0)
(-0.005776 0.0356088 0)
(-0.00062372 0.00631807 0)
(-0.000556211 0.00602504 0)
(-0.000671706 0.00686789 0)
(-0.00106484 0.00946955 0)
(-0.00128329 0.0108537 0)
(-0.00109188 0.00940432 0)
(-0.000163286 0.00404175 0)
(-0.000158441 0.0044524 0)
(-0.000202278 0.00445842 0)
(0.000548186 0.00843444 0)
(0.000612238 0.00679581 0)
(0.000170485 0.00554467 0)
(4.10268e-05 0.00582847 0)
(7.73331e-05 0.00465799 0)
(0.000147842 0.00403372 0)
(0.000251135 0.00458318 0)
(0.000536863 0.00331606 0)
(0.000604802 0.00437127 0)
(0.000479848 0.00382443 0)
(0.000783976 -0.000746189 0)
(0.00104818 -0.000833853 0)
(0.000829566 -0.000360884 0)
(0.00105601 0.0024117 0)
(0.00115574 0.00350958 0)
(0.00133907 7.40611e-05 0)
(0.00107168 0.000198108 0)
(0.00114923 -0.000405931 0)
(0.000639375 0.00246691 0)
(0.000640549 0.0030922 0)
(0.000511654 0.00251024 0)
(0.00112359 -0.00427885 0)
(0.00130985 -0.0034562 0)
(0.000700791 -0.00272979 0)
(0.00663795 0.0781099 0)
(0.00838125 0.0708548 0)
(0.00700067 0.0780326 0)
(0.0119566 0.0526716 0)
(0.0136468 0.0434913 0)
(0.0134132 0.0482654 0)
(0.018988 -0.00283121 0)
(0.0201565 -0.012518 0)
(0.0208554 -0.00703718 0)
(-0.0174095 0.162551 0)
(-0.019158 0.168072 0)
(-0.016559 0.158659 0)
(-0.00688981 0.122489 0)
(-0.00854606 0.130719 0)
(-0.00955814 0.133269 0)
(-0.0013956 0.103334 0)
(0.000850041 0.092079 0)
(0.00070223 0.096116 0)
(0.00142444 0.0981729 0)
(0.00244969 0.0923407 0)
(-0.0251017 0.18597 0)
(-0.026335 0.190694 0)
(-0.0279675 0.195685 0)
(-0.0210172 0.172122 0)
(-0.023488 0.181328 0)
(-0.0230222 0.178935 0)
(-0.0224582 0.175953 0)
(-0.0245634 0.181882 0)
(-0.0277339 0.193472 0)
(-0.028916 0.195289 0)
(-0.0293804 0.196289 0)
(-0.0253249 0.181102 0)
(-0.0317025 0.204944 0)
(-0.0336352 0.211131 0)
(-0.0280604 0.190115 0)
(-0.0319049 0.204304 0)
(-0.0307435 0.19948 0)
(-0.031226 0.200495 0)
(-0.0352994 0.215167 0)
(-0.000116639 -0.00849327 0)
(0.000709427 -0.0102425 0)
(0.000343671 -0.00806081 0)
(0.0022738 -0.0217739 0)
(0.00167001 -0.0217975 0)
(0.00263104 -0.0237876 0)
(0.00846617 -0.0358972 0)
(0.00727715 -0.0322008 0)
(0.00701881 -0.0335087 0)
(0.0190416 -0.054274 0)
(0.0201792 -0.0585018 0)
(0.0206972 -0.0542949 0)
(-0.0264521 0.174831 0)
(-0.0306611 0.1907 0)
(-0.0287635 0.183991 0)
(-0.00667682 0.0701764 0)
(-0.0064513 0.0741927 0)
(-0.00653161 0.068567 0)
(-0.0365402 0.218764 0)
(-0.0314528 0.20083 0)
(-0.00953799 0.0867902 0)
(-0.0114726 0.0985401 0)
(-0.0108168 0.0952194 0)
(-0.0096624 0.0867054 0)
(-0.0135497 0.108797 0)
(-0.00973391 0.0873353 0)
(-0.0158173 0.123701 0)
(-0.0173135 0.132905 0)
(-0.017335 0.132404 0)
(-0.0083166 0.0793161 0)
(-0.00789454 0.0764637 0)
(-0.00891118 0.0833036 0)
(-0.0225087 0.156912 0)
(-0.0258866 0.171805 0)
(-0.0255817 0.170085 0)
(-0.0361096 0.210271 0)
(-0.0392859 0.221714 0)
(-0.0386733 0.21926 0)
(-0.0387801 0.191448 0)
(-0.0421599 0.196731 0)
(-0.0393441 0.185228 0)
(-0.0200015 0.0996931 0)
(-0.0196753 0.0913575 0)
(-0.0176209 0.086773 0)
(-0.00578522 0.0333752 0)
(-0.00714632 0.0405653 0)
(-0.00640365 0.0351231 0)
(-0.00569414 0.0290685 0)
(-0.00466572 0.0242886 0)
(-0.00514384 0.0275424 0)
(-0.00388497 0.0250871 0)
(-0.00311428 0.0207971 0)
(-0.000498053 0.00461352 0)
(-0.000489861 0.00474436 0)
(-0.0005614 0.00515672 0)
(-0.000416528 0.00434698 0)
(-0.00041493 0.00413142 0)
(-0.0003478 0.00376056 0)
(0.000489432 0.00467213 0)
(0.000369555 0.00475909 0)
(0.000384315 0.00381894 0)
(0.000286726 0.00374943 0)
(0.000198286 0.00347111 0)
(0.000215526 0.00287737 0)
(6.72356e-05 0.00356517 0)
(0.000291791 0.00300625 0)
(0.00111585 -0.00141509 0)
(0.00151027 -0.00202041 0)
(0.00135202 -0.00114367 0)
(0.000450779 0.000411225 0)
(0.000414728 0.000366985 0)
(0.00062007 0.00039008 0)
(0.000516222 0.000793847 0)
(0.000507456 0.000606871 0)
(0.000685864 0.000937056 0)
(0.000554204 0.000498294 0)
(0.000414216 0.000444222 0)
(0.000472526 0.000901676 0)
(0.000608661 0.00105586 0)
(0.000581625 0.00124168 0)
(-0.00188746 0.00428561 0)
(-0.00255377 0.0069599 0)
(-0.00252662 0.00558227 0)
(0.00994727 0.0652152 0)
(0.0102238 0.0617035 0)
(0.0105757 0.0641879 0)
(0.00878222 0.0712598 0)
(0.014614 0.0452935 0)
(0.0160334 0.0386515 0)
(0.0156416 0.0432009 0)
(0.0139643 0.0504762 0)
(0.0247353 -0.0203736 0)
(0.0260419 -0.0196501 0)
(0.024725 -0.013706 0)
(0.0235402 0.00516791 0)
(0.0225951 0.00841122 0)
(0.0235776 8.14685e-05 0)
(-0.00497283 0.112269 0)
(-0.00420149 0.111743 0)
(-0.0078679 0.129292 0)
(0.00343843 0.0895967 0)
(-0.0204446 0.170775 0)
(-0.0176494 0.160776 0)
(-0.019853 0.169357 0)
(-0.0225755 0.173191 0)
(-0.0208998 0.167708 0)
(-0.0357005 0.217564 0)
(-0.0355121 0.216396 0)
(-0.0227833 0.171746 0)
(-0.0251438 0.18225 0)
(-0.0262921 0.185872 0)
(-0.0271353 0.185239 0)
(-0.00403843 0.011353 0)
(-0.00507055 0.0143403 0)
(-0.00394027 0.00936631 0)
(0.00288338 -0.0217154 0)
(0.00305266 -0.0200124 0)
(0.00200046 -0.0185997 0)
(0.00220892 -0.0267491 0)
(0.00287561 -0.0291176 0)
(0.00346323 -0.0294564 0)
(0.0119045 -0.044632 0)
(0.0115731 -0.0468361 0)
(0.0130663 -0.0495415 0)
(0.0287377 -0.0433725 0)
(0.0274646 -0.0413489 0)
(0.0279729 -0.0482765 0)
(0.0222092 -0.05891 0)
(0.0215739 -0.0629628 0)
(-0.0247339 0.169445 0)
(-0.0248523 0.168763 0)
(-0.0214813 0.155037 0)
(-0.0184676 0.1403 0)
(-0.0210058 0.152357 0)
(-0.022248 0.157478 0)
(-0.0118569 0.101802 0)
(-0.0140075 0.112047 0)
(-0.0132227 0.107348 0)
(-0.0183023 0.133606 0)
(-0.0163586 0.129448 0)
(-0.0176634 0.138675 0)
(-0.00907266 0.0872094 0)
(-0.00790135 0.0854676 0)
(-0.00826864 0.0807684 0)
(-0.00771488 0.0772857 0)
(-0.00693371 0.0747961 0)
(-0.00693315 0.0722395 0)
(-0.0112159 0.0947487 0)
(-0.00829503 0.0787507 0)
(-0.00756233 0.0732286 0)
(-0.0212368 0.150846 0)
(-0.0195953 0.14345 0)
(-0.0215457 0.151824 0)
(-0.0249882 0.16657 0)
(-0.0213246 0.150306 0)
(-0.0212371 0.151215 0)
(-0.020227 0.146386 0)
(-0.0208174 0.149079 0)
(-0.056359 0.272816 0)
(-0.05708 0.274156 0)
(-0.0556684 0.270883 0)
(-0.0373285 0.211993 0)
(-0.0334255 0.197265 0)
(-0.0342835 0.201108 0)
(-0.0359144 0.200041 0)
(-0.0396808 0.214749 0)
(-0.0385216 0.208512 0)
(-0.0471976 0.198423 0)
(-0.0442613 0.184534 0)
(-0.0448097 0.197722 0)
(-0.0368829 0.192112 0)
(-0.0355097 0.182171 0)
(-0.0334791 0.113166 0)
(-0.0357102 0.11307 0)
(-0.0335773 0.100045 0)
(-0.0137527 0.0475393 0)
(-0.0135966 0.0528507 0)
(-0.0156748 0.0597514 0)
(-0.00779941 0.0414322 0)
(-0.00954275 0.0498016 0)
(-0.00857858 0.0432503 0)
(-0.00163285 0.0112851 0)
(-0.00194558 0.0137152 0)
(-0.0020867 0.0140451 0)
(-0.00272053 0.016783 0)
(-0.0031429 0.0196199 0)
(-0.00354484 0.0211197 0)
(-0.00144844 0.0108192 0)
(-0.00137343 0.0107756 0)
(-0.00172393 0.0127808 0)
(-0.000148878 0.00196086 0)
(-0.000175257 0.00203687 0)
(-0.000139223 0.0017433 0)
(-0.00113766 0.00862127 0)
(-0.00112431 0.00829255 0)
(-0.000906995 0.00693368 0)
(-0.000150479 0.00231524 0)
(-0.000110705 0.00208803 0)
(-0.000122833 0.00233309 0)
(-3.91481e-05 0.00249393 0)
(-3.5234e-05 0.00203927 0)
(-1.17586e-05 0.00215931 0)
(0.000143505 0.00315334 0)
(0.000109291 0.00323703 0)
(0.000107634 0.00264491 0)
(4.56966e-05 0.0017201 0)
(2.61649e-05 0.00180337 0)
(2.90411e-05 0.00154627 0)
(0.000150215 0.00176854 0)
(0.000210737 0.00231378 0)
(0.000167416 0.00224394 0)
(0.0004032 0.00242984 0)
(0.000282369 0.00166786 0)
(0.000377063 0.00186747 0)
(-0.000205627 0.00139741 0)
(-0.000162841 0.00124048 0)
(4.27469e-06 0.000912878 0)
(0.000384468 0.000280462 0)
(0.000200344 0.000575716 0)
(0.000153365 0.000555838 0)
(0.00040956 0.000966462 0)
(0.000329538 0.000663927 0)
(0.000318754 0.000390046 0)
(0.000744459 0.000652455 0)
(0.000546926 0.00145322 0)
(0.000390334 0.00113643 0)
(0.00025698 0.00125051 0)
(-0.00182371 0.00627777 0)
(-0.00241801 0.00822592 0)
(-0.00176463 0.00560275 0)
(0.0103912 0.0577463 0)
(0.0132413 0.0517325 0)
(0.019238 0.026858 0)
(0.018843 0.0260616 0)
(0.0200393 0.0211913 0)
(0.027123 -0.0140071 0)
(0.0280828 -0.0168277 0)
(0.0272849 -0.0113352 0)
(0.030285 -0.0356825 0)
(0.0301487 -0.0399226 0)
(0.0308191 -0.0395044 0)
(0.018553 0.0174687 0)
(0.0202218 0.00970585 0)
(0.0195828 0.0184586 0)
(-0.0150825 0.151745 0)
(-0.0181716 0.163781 0)
(0.00520398 0.0846734 0)
(-0.0304038 0.202348 0)
(-0.0290261 0.197063 0)
(-0.0265976 0.188743 0)
(-0.00307762 0.00349372 0)
(-0.0031494 0.00236145 0)
(-0.00212384 -0.000134437 0)
(-0.00315142 -0.00535291 0)
(-0.00462632 -0.00229154 0)
(-0.00341648 -0.00690988 0)
(0.00323479 -0.0242364 0)
(0.00284944 -0.0313662 0)
(0.00175659 -0.0290972 0)
(0.00248972 -0.0311728 0)
(0.0137762 -0.0475472 0)
(0.0128374 -0.0437826 0)
(0.0318889 -0.0592679 0)
(0.0310138 -0.0571492 0)
(0.0307003 -0.061003 0)
(0.0302127 -0.0713995 0)
(0.0302626 -0.0676118 0)
(0.0292189 -0.0697443 0)
(-0.0362906 0.212164 0)
(-0.0303139 0.190444 0)
(-0.0194552 0.144653 0)
(-0.0227075 0.156952 0)
(-0.0232254 0.159668 0)
(-0.0137887 0.11359 0)
(-0.015719 0.124674 0)
(-0.0151863 0.121239 0)
(-0.0205824 0.139204 0)
(-0.0183609 0.131981 0)
(-0.0208946 0.141665 0)
(-0.00707488 0.0851787 0)
(-0.0304752 0.194393 0)
(-0.0349849 0.209541 0)
(-0.0291489 0.188008 0)
(-0.0111923 0.0937142 0)
(-0.00741478 0.0717987 0)
(-0.0162132 0.12544 0)
(-0.0419651 0.230476 0)
(-0.044402 0.238111 0)
(-0.0396766 0.222169 0)
(-0.0182966 0.135205 0)
(-0.0163273 0.125561 0)
(-0.0185023 0.136811 0)
(-0.0625219 0.289249 0)
(-0.0622251 0.287746 0)
(-0.0614805 0.286786 0)
(-0.0283829 0.183938 0)
(-0.0273983 0.179688 0)
(-0.0287694 0.185454 0)
(-0.0366717 0.212776 0)
(-0.0415097 0.228795 0)
(-0.0411986 0.228326 0)
(-0.0572693 0.266837 0)
(-0.0560248 0.266526 0)
(-0.0585735 0.271499 0)
(-0.0507952 0.24923 0)
(-0.0537344 0.25775 0)
(-0.0527104 0.250059 0)
(-0.0472693 0.188637 0)
(-0.0406703 0.172828 0)
(-0.0422359 0.168157 0)
(-0.0394923 0.159941 0)
(-0.0221536 0.0696127 0)
(-0.0236602 0.08133 0)
(-0.0239922 0.0760839 0)
(-0.0146069 0.0668982 0)
(-0.0132273 0.0567255 0)
(-0.0125018 0.0585768 0)
(-0.0198349 0.0276146 0)
(-0.0167647 0.0192055 0)
(-0.0181592 0.027718 0)
(-0.00502424 0.0231704 0)
(-0.00584652 0.0279066 0)
(-0.00576673 0.0259311 0)
(-0.00603563 0.0255808 0)
(-0.00508054 0.0218553 0)
(-0.0024993 0.0161252 0)
(-0.00210224 0.0132862 0)
(-0.00179617 0.0118704 0)
(-0.00334561 0.0174312 0)
(-0.00386861 0.0205515 0)
(-0.00397301 0.0199827 0)
(-0.00376933 0.021515 0)
(-0.00313908 0.0181011 0)
(-0.00281165 0.0167729 0)
(-0.000456708 0.00383416 0)
(-0.000371603 0.00325122 0)
(-0.000415005 0.0036434 0)
(-0.000406391 0.00377486 0)
(-0.000341665 0.00335269 0)
(-0.000410184 0.00392809 0)
(-0.000945707 0.00697129 0)
(-0.00123293 0.00878355 0)
(-0.00097908 0.00697453 0)
(-8.90253e-05 0.00168384 0)
(-0.000115161 0.00179223 0)
(-9.15878e-05 0.00155172 0)
(-6.37793e-05 0.0015744 0)
(-4.25765e-05 0.00139603 0)
(-4.67719e-05 0.00162714 0)
(4.57045e-05 0.00222996 0)
(0.000142645 0.00249077 0)
(0.000118513 0.00171911 0)
(7.30736e-05 0.0021721 0)
(7.38928e-05 0.00275685 0)
(0.000383332 0.00298803 0)
(0.000149306 0.00109806 0)
(0.000188067 0.00120376 0)
(0.000233359 0.0016718 0)
(0.000167341 0.000600121 0)
(0.000117885 0.000544236 0)
(1.48373e-05 0.000795143 0)
(-0.00158012 0.00576284 0)
(-0.00210891 0.00781919 0)
(0.000288258 0.000761482 0)
(0.000255289 0.000350958 0)
(0.000339353 0.00041869 0)
(0.000361725 0.000489619 0)
(0.000127809 0.000222275 0)
(0.000141019 0.000305298 0)
(0.000212385 0.000320497 0)
(0.000241834 0.000732779 0)
(0.000335073 0.0011957 0)
(0.000332906 0.00142005 0)
(0.000221283 0.000909525 0)
(-0.00572089 0.0188634 0)
(-0.0047508 0.014998 0)
(-0.00502267 0.0179213 0)
(-0.00134039 0.00308648 0)
(-0.00199313 0.00571033 0)
(0.0183245 0.0311105 0)
(0.0171487 0.0377721 0)
(0.0174293 0.0330522 0)
(0.0298141 -0.0272654 0)
(0.0290976 -0.0273328 0)
(0.0296593 -0.0313098 0)
(0.026647 -0.0164315 0)
(0.0259435 -0.0102977 0)
(0.0293944 -0.0357051 0)
(0.0221679 0.00665119 0)
(0.0245429 0.000149462 0)
(0.0256315 -0.00481396 0)
(0.0252209 0.000353416 0)
(-0.00324039 0.00893556 0)
(-0.00332448 0.00809667 0)
(-0.00261298 -0.00085571 0)
(-0.00182397 -0.00250596 0)
(-0.00455867 -0.00514257 0)
(-0.00452946 -0.00770984 0)
(-0.00357843 -0.00846996 0)
(-0.00194651 -0.022255 0)
(-0.00260618 -0.0202219 0)
(-0.0032621 -0.0206423 0)
(0.00797374 -0.0485589 0)
(0.00970326 -0.0546159 0)
(0.00927696 -0.0519581 0)
(0.0285393 -0.0785821 0)
(0.0286129 -0.0810231 0)
(0.0299475 -0.0805594 0)
(0.0310093 -0.0440342 0)
(0.0305728 -0.0486316 0)
(0.0316252 -0.0478313 0)
(0.0316684 -0.0514216 0)
(0.0323407 -0.0495669 0)
(0.0244254 -0.0823495 0)
(0.024971 -0.079855 0)
(0.0231562 -0.079578 0)
(-0.0378311 0.218482 0)
(-0.0267679 0.172057 0)
(-0.0279869 0.178693 0)
(-0.0165248 0.125957 0)
(-0.0141569 0.109467 0)
(-0.0147758 0.122552 0)
(-0.0177128 0.135358 0)
(-0.0111039 0.0914282 0)
(-0.0111417 0.0976862 0)
(-0.0103641 0.0935142 0)
(-0.00551035 0.059788 0)
(-0.00535806 0.0583336 0)
(-0.00562716 0.0612417 0)
(-0.0279224 0.182504 0)
(-0.00541683 0.0583627 0)
(-0.0064104 0.064933 0)
(-0.00647752 0.0658869 0)
(-0.026832 0.17721 0)
(-0.0290004 0.18524 0)
(-0.0273708 0.179484 0)