/*--------------------------------*- C++ -*----------------------------------*\
| =========                 |                                                 |
| \\      /  F ield         | OpenFOAM: The Open Source CFD Toolbox           |
|  \\    /   O peration     | Version:  v2012                                 |
|   \\  /    A nd           | Website:  www.openfoam.com                      |
|    \\/     M anipulation  |                                                 |
\*---------------------------------------------------------------------------*/
FoamFile
{
    version     2.0;
    format      ascii;
    class       volVectorField;
    location    "0.91";
    object      cellDisplacement;
}
// * * * * * * * * * * * * * * * * * * * * * * * * * * * * * * * * * * * * * //

dimensions      [0 1 0 0 0 0 0];


internalField   nonuniform List<vector> 
11961
(
(-0.00107993 0.00240319 0)
(-0.00259135 0.00577591 0)
(-0.002406 0.0053421 0)
(-0.00161724 0.00361914 0)
(-0.00489227 0.0108902 0)
(-0.00128973 0.00285983 0)
(-0.00461645 0.0102512 0)
(-0.00405129 0.00907592 0)
(-0.00712788 0.0158774 0)
(-0.00233353 0.00516305 0)
(-0.00631423 0.0140012 0)
(-0.00744651 0.0166338 0)
(-0.00429938 0.00966118 0)
(-0.00948748 0.0210812 0)
(-0.00464479 0.0102734 0)
(-0.00103157 0.00228101 0)
(-0.00637049 0.0141025 0)
(-0.00889003 0.0197187 0)
(-0.0103543 0.0231384 0)
(-0.00789783 0.0177583 0)
(-0.00176897 0.00398874 0)
(-0.0123283 0.0273875 0)
(-0.00509833 0.0112593 0)
(-0.00182558 0.00403103 0)
(-0.00886837 0.0196011 0)
(-0.0105069 0.0232436 0)
(-0.0106667 0.0239234 0)
(-0.0130202 0.0290092 0)
(-0.00786151 0.0177528 0)
(-0.00431579 0.00976406 0)
(-0.0143673 0.0318178 0)
(-0.00699704 0.0154363 0)
(-0.00362373 0.0079997 0)
(-0.000769648 0.00169886 0)
(-0.00904488 0.0199594 0)
(-0.0130667 0.0288777 0)
(-0.0139849 0.0313841 0)
(-0.0162547 0.0362086 0)
(-0.0107525 0.0243205 0)
(-0.0037273 0.00847002 0)
(-0.0173703 0.038441 0)
(-0.00706554 0.0155661 0)
(-0.00398357 0.00878276 0)
(-0.00145372 0.003206 0)
(-0.0108169 0.0238252 0)
(-0.0146073 0.0321831 0)
(-0.0140371 0.0316483 0)
(-0.0169107 0.0378164 0)
(-0.0186123 0.0413112 0)
(-0.0104299 0.0237162 0)
(-0.00711086 0.0162217 0)
(-0.00128235 0.00291938 0)
(-0.0191565 0.042254 0)
(-0.00550917 0.0121363 0)
(-0.00858473 0.0188877 0)
(-0.00293204 0.00646416 0)
(-0.00112676 0.00248469 0)
(-0.0132276 0.0291121 0)
(-0.0102558 0.0225636 0)
(-0.0176601 0.0388653 0)
(-0.017368 0.0392123 0)
(-0.0203757 0.0455652 0)
(-0.0221503 0.0491154 0)
(-0.0131075 0.0298646 0)
(-0.0069316 0.015905 0)
(-0.00123368 0.00283911 0)
(-0.0221496 0.0488071 0)
(-0.00546378 0.0120183 0)
(-0.00848283 0.0186353 0)
(-0.00292377 0.00643802 0)
(-0.00039602 0.0008733 0)
(-0.00193961 0.00427316 0)
(-0.0137462 0.030163 0)
(-0.0116695 0.025619 0)
(-0.0192567 0.0422545 0)
(-0.0166908 0.0379046 0)
(-0.0207609 0.0466754 0)
(-0.0233313 0.0519286 0)
(-0.0238786 0.0527394 0)
(-0.0128268 0.0293946 0)
(-0.0100436 0.0231115 0)
(-0.00365 0.00841574 0)
(-0.0239726 0.052638 0)
(-0.00389226 0.00856303 0)
(-0.00688273 0.0151206 0)
(-0.0103933 0.0227959 0)
(-0.000597971 0.00131738 0)
(-0.00133532 0.0029407 0)
(-0.0158005 0.0345982 0)
(-0.0226348 0.0496131 0)
(-0.0184673 0.0404385 0)
(-0.0184808 0.042118 0)
(-0.024707 0.0555747 0)
(-0.0265586 0.0590824 0)
(-0.0271814 0.0598745 0)
(-0.0158189 0.0362926 0)
(-0.010042 0.0232732 0)
(-0.0039153 0.00908249 0)
(-0.0271657 0.0595988 0)
(-0.00359692 0.00790247 0)
(-0.00659502 0.0144644 0)
(-0.0104985 0.0229804 0)
(-0.000162519 0.000358193 0)
(-0.00122706 0.00270045 0)
(-0.0154605 0.0337592 0)
(-0.0237464 0.0518713 0)
(-0.021012 0.0458836 0)
(-0.0214425 0.0488296 0)
(-0.0275737 0.0616626 0)
(-0.0247323 0.0559898 0)
(-0.0293743 0.0650571 0)
(-0.0297405 0.0655623 0)
(-0.0162257 0.0374459 0)
(-0.00718931 0.016726 0)
(-0.0131903 0.0306453 0)
(-0.00152812 0.00356472 0)
(-0.0290593 0.0635594 0)
(-0.00483255 0.0106017 0)
(-0.00240496 0.00528468 0)
(-0.00817435 0.0178977 0)
(-0.0126953 0.0277298 0)
(-0.00013644 0.000300516 0)
(-0.00163948 0.00360476 0)
(-0.000528093 0.00116273 0)
(-0.0181143 0.0394445 0)
(-0.0269809 0.0587838 0)
(-0.0210684 0.045885 0)
(-0.0220421 0.0505381 0)
(-0.0311635 0.0695293 0)
(-0.0275172 0.0624417 0)
(-0.0322349 0.0714643 0)
(-0.0333855 0.0732769 0)
(-0.0193608 0.0447115 0)
(-0.00644043 0.0151091 0)
(-0.0135613 0.0317243 0)
(-0.00313254 0.00735921 0)
(-0.0291929 0.0636466 0)
(-0.0319257 0.0697288 0)
(-0.00415717 0.00910515 0)
(-0.0016224 0.00355955 0)
(-0.00757525 0.0165572 0)
(-0.0117333 0.0255745 0)
(-0.000803949 0.00176705 0)
(-0.000296992 0.000653414 0)
(-0.0180477 0.0391977 0)
(-0.0269224 0.0584769 0)
(-0.0237284 0.0515472 0)
(-0.0252253 0.0577859 0)
(-0.0335766 0.0750312 0)
(-0.0312041 0.0706177 0)
(-0.0355757 0.0785489 0)
(-0.0364305 0.080018 0)
(-0.0340548 0.0744251 0)
(-0.0196825 0.0458295 0)
(-0.00821036 0.0193674 0)
(-0.0168085 0.0393939 0)
(-0.0112991 0.026616 0)
(-0.00164197 0.00388844 0)
(-0.032057 0.0697503 0)
(-0.0021397 0.00468874 0)
(-0.00531506 0.0116223 0)
(-0.000541067 0.00118798 0)
(-0.00901567 0.0196678 0)
(-0.0129398 0.0281324 0)
(-0.0156378 0.0339475 0)
(-0.0213931 0.0463257 0)
(-0.029151 0.0631037 0)
(-0.0239135 0.0517988 0)
(-0.0259858 0.0599419 0)
(-0.0337067 0.0757391 0)
(-0.0372985 0.0828998 0)
(-0.0326099 0.07435 0)
(-0.0382484 0.0845528 0)
(-0.040231 0.0879623 0)
(-0.0376758 0.0819975 0)
(-0.0228809 0.0533184 0)
(-0.00655789 0.0156199 0)
(-0.0159934 0.0378211 0)
(-0.0126771 0.0300675 0)
(-0.00338584 0.00807772 0)
(-0.0344796 0.0747871 0)
(-0.00104383 0.00228355 0)
(-0.00438173 0.00956513 0)
(-0.00786466 0.0171333 0)
(-0.0107797 0.0234135 0)
(-0.0158927 0.0343981 0)
(-0.0211782 0.045742 0)
(-0.0270358 0.0584297 0)
(-0.0322934 0.0697812 0)
(-0.0294743 0.0679074 0)
(-0.0386979 0.0866673 0)
(-0.0404133 0.0898804 0)
(-0.0368255 0.0837448 0)
(-0.0424092 0.0933028 0)
(-0.040771 0.0887454 0)
(-0.0436104 0.0954022 0)
(-0.0379487 0.0822884 0)
(-0.0231916 0.0545983 0)
(-0.00826031 0.0197893 0)
(-0.0172503 0.041026 0)
(-0.0113082 0.0270113 0)
(-0.00172707 0.00415662 0)
(-0.0347397 0.0751168 0)
(-0.00218988 0.00478224 0)
(-0.00558197 0.0121653 0)
(-0.0085698 0.0186351 0)
(-0.0110551 0.0239571 0)
(-0.0134179 0.0290316 0)
(-0.018297 0.0395224 0)
(-0.0234507 0.050508 0)
(-0.0282864 0.0609464 0)
(-0.0333048 0.0717256 0)
(-0.0298899 0.0694768 0)
(-0.0404441 0.0909776 0)
(-0.044177 0.0975479 0)
(-0.0374781 0.0859494 0)
(-0.0444282 0.0962489 0)
(-0.0476084 0.103569 0)
(-0.0412123 0.0890128 0)
(-0.0202934 0.0482339 0)
(-0.0265049 0.0623807 0)
(-0.00763016 0.0184305 0)
(-0.0150276 0.0361366 0)
(-0.0124733 0.0300243 0)
(-0.00285091 0.00691676 0)
(-0.0383239 0.0825521 0)
(-0.00113317 0.00246945 0)
(-0.00467499 0.0101702 0)
(-0.00640388 0.0139121 0)
(-0.00863936 0.018708 0)
(-0.0132706 0.0286428 0)
(-0.0178989 0.038565 0)
(-0.0223639 0.0480686 0)
(-0.0265443 0.057115 0)
(-0.0314607 0.0676775 0)
(-0.0361795 0.0777093 0)
(-0.0336182 0.0780079 0)
(-0.0456496 0.102226 0)
(-0.0481896 0.106118 0)
(-0.0416609 0.095304 0)
(-0.0477418 0.103363 0)
(-0.0444792 0.0960051 0)
(-0.0512804 0.111433 0)
(-0.0411834 0.0886811 0)
(-0.0196501 0.0472791 0)
(-0.0269128 0.0639278 0)
(-0.00538994 0.0130854 0)
(-0.0102303 0.0247966 0)
(-0.0163142 0.0394985 0)
(-0.00118218 0.00289378 0)
(-0.0384703 0.0826248 0)
(-0.00249187 0.00542034 0)
(-0.00635074 0.0137705 0)
(-0.00875298 0.0189149 0)
(-0.0110176 0.0237739 0)
(-0.0153794 0.0331342 0)
(-0.0198155 0.0426049 0)
(-0.0239146 0.0512736 0)
(-0.0278073 0.0596504 0)
(-0.0330453 0.0708698 0)
(-0.0359943 0.0771205 0)
(-0.0335553 0.078659 0)
(-0.0463124 0.104592 0)
(-0.0495101 0.109667 0)
(-0.0518796 0.113259 0)
(-0.0411099 0.0951077 0)
(-0.0510196 0.109895 0)
(-0.0477283 0.102539 0)
(-0.0547391 0.11817 0)
(-0.0439771 0.0943462 0)
(-0.0214123 0.0518367 0)
(-0.0245705 0.0591568 0)
(-0.0302442 0.0716821 0)
(-0.00546519 0.0133894 0)
(-0.0101604 0.0248395 0)
(-0.0149861 0.0366541 0)
(-0.00287556 0.00707488 0)
(-0.0411117 0.0880317 0)
(-0.00142653 0.00309364 0)
(-0.00350281 0.00758542 0)
(-0.0066628 0.0143805 0)
(-0.0105374 0.0226837 0)
(-0.0149337 0.0320949 0)
(-0.0190642 0.0409012 0)
(-0.0262202 0.0561819 0)
(-0.0227749 0.0487235 0)
(-0.0302101 0.0646878 0)
(-0.0324357 0.069439 0)
(-0.0379114 0.0809847 0)
(-0.0368749 0.0863907 0)
(-0.0508234 0.114489 0)
(-0.0552007 0.121508 0)
(-0.0561242 0.122108 0)
(-0.0444475 0.102784 0)
(-0.0508564 0.109149 0)
(-0.0542154 0.116643 0)
(-0.0471451 0.101024 0)
(-0.0585719 0.126133 0)
(-0.0435643 0.0932665 0)
(-0.0192925 0.047419 0)
(-0.0260805 0.0632676 0)
(-0.0296211 0.0710856 0)
(-0.00737364 0.0181229 0)
(-0.0121399 0.0298198 0)
(-0.0163551 0.0403243 0)
(-0.00261744 0.00648303 0)
(-0.0417562 0.0891793 0)
(-0.00363972 0.00786541 0)
(-0.00777547 0.0167438 0)
(-0.0123398 0.0265157 0)
(-0.0167488 0.0359305 0)
(-0.0205042 0.0438874 0)
(-0.0275701 0.0589171 0)
(-0.0242012 0.0516571 0)
(-0.029929 0.0639315 0)
(-0.0345565 0.0737505 0)
(-0.037023 0.0789482 0)
(-0.0405463 0.0865034 0)
(-0.0357813 0.0849297 0)
(-0.0553589 0.123369 0)
(-0.0493553 0.112668 0)
(-0.0572166 0.126315 0)
(-0.057819 0.126148 0)
(-0.0592583 0.12803 0)
(-0.0426974 0.100194 0)
(-0.0537047 0.114757 0)
(-0.0569141 0.121851 0)
(-0.049127 0.104888 0)
(-0.061138 0.130927 0)
(-0.0458039 0.0977305 0)
(-0.0198517 0.0493053 0)
(-0.0250453 0.0616604 0)
(-0.0318577 0.0766101 0)
(-0.00715383 0.0177243 0)
(-0.0111976 0.0277536 0)
(-0.0146612 0.0365463 0)
(-0.000909881 0.0022599 0)
(-0.00474638 0.0118066 0)
(-0.0447329 0.095323 0)
(-0.00157489 0.00339717 0)
(-0.0066427 0.0142702 0)
(-0.0117236 0.0251305 0)
(-0.0164273 0.0351465 0)
(-0.0188405 0.0402438 0)
(-0.0266813 0.0569353 0)
(-0.0239376 0.0509713 0)
(-0.0316044 0.0673519 0)
(-0.033939 0.0723037 0)
(-0.0386736 0.0822226 0)
(-0.0423096 0.0899461 0)
(-0.0383047 0.0910976 0)
(-0.0592374 0.131785 0)
(-0.0522374 0.119348 0)
(-0.0626809 0.137284 0)
(-0.0623218 0.135064 0)
(-0.0628617 0.135471 0)
(-0.0454493 0.106837 0)
(-0.0565026 0.120637 0)
(-0.0538851 0.11477 0)
(-0.0599537 0.128132 0)
(-0.051892 0.110536 0)
(-0.0480935 0.102505 0)
(-0.0644979 0.13766 0)
(-0.0222532 0.0553443 0)
(-0.0176586 0.0444661 0)
(-0.0271811 0.0672175 0)
(-0.0305388 0.0745129 0)
(-0.00888203 0.0220936 0)
(-0.0123894 0.0309158 0)
(-0.015434 0.0388686 0)
(-0.00082952 0.00207909 0)
(-0.00465688 0.0116515 0)
(-0.0457072 0.0971511 0)
(-0.00344381 0.00740387 0)
(-0.00877436 0.0188045 0)
(-0.0140077 0.0299618 0)
(-0.0194334 0.0413886 0)
(-0.0277063 0.0589705 0)
(-0.0220675 0.0469297 0)
(-0.0260859 0.0554535 0)
(-0.0312664 0.0664998 0)
(-0.0355739 0.0755807 0)
(-0.0377881 0.0802173 0)
(-0.0412834 0.0876445 0)
(-0.0445242 0.0945366 0)
(-0.0362202 0.0876194 0)
(-0.0598837 0.133941 0)
(-0.0634828 0.139689 0)
(-0.0500351 0.116013 0)
(-0.0569251 0.128761 0)
(-0.0656799 0.142724 0)
(-0.0651847 0.141097 0)
(-0.0660391 0.14153 0)
(-0.0428105 0.102583 0)
(-0.0590807 0.125613 0)
(-0.0566893 0.12029 0)
(-0.0618504 0.131652 0)
(-0.0522485 0.11095 0)
(-0.0499402 0.106123 0)
(-0.0665367 0.142034 0)
(-0.0658242 0.139868 0)
(-0.0209508 0.0529911 0)
(-0.0182647 0.0464571 0)
(-0.0266326 0.0668646 0)
(-0.0324871 0.0795486 0)
(-0.00863801 0.0216351 0)
(-0.0106299 0.0266998 0)
(-0.0135589 0.0344033 0)
(-0.0022644 0.0056819 0)
(-0.0066482 0.0166851 0)
(-0.0475769 0.100938 0)
(-0.00185306 0.00397321 0)
(-0.00839836 0.0179546 0)
(-0.0133575 0.028503 0)
(-0.0173694 0.0369257 0)
(-0.0295334 0.0627861 0)
(-0.0228487 0.0484101 0)
(-0.0265785 0.0563579 0)
(-0.0330137 0.070048 0)
(-0.0349426 0.0741044 0)
(-0.0392885 0.083141 0)
(-0.0424584 0.0898697 0)
(-0.0464215 0.0982622 0)
(-0.0379983 0.0924469 0)
(-0.065405 0.144889 0)
(-0.0673205 0.147653 0)
(-0.0534905 0.123868 0)
(-0.05837 0.132857 0)
(-0.0705893 0.152407 0)
(-0.0692466 0.148716 0)
(-0.0694151 0.148506 0)
(-0.0452111 0.108748 0)
(-0.0589921 0.125107 0)
(-0.0613728 0.130369 0)
(-0.0571928 0.121008 0)
(-0.0644103 0.136796 0)
(-0.0539464 0.114217 0)
(-0.0503637 0.106752 0)
(-0.0699021 0.148448 0)
(-0.068577 0.145186 0)
(-0.02147 0.054944 0)
(-0.0173244 0.0446683 0)
(-0.0238662 0.0610057 0)
(-0.0298675 0.0746195 0)
(-0.0111449 0.0281724 0)
(-0.0135972 0.0348452 0)
(-0.00241347 0.00606988 0)
(-0.0062145 0.0156568 0)
(-0.0478784 0.10135 0)
(-0.0493634 0.104601 0)
(-0.00349674 0.00746964 0)
(-0.0107357 0.0229069 0)
(-0.00633333 0.0135198 0)
(-0.0148511 0.0316058 0)
(-0.0182333 0.0386231 0)
(-0.0302316 0.0640738 0)
(-0.021068 0.0445556 0)
(-0.0252328 0.0533999 0)
(-0.0288787 0.0611411 0)
(-0.0322955 0.068378 0)
(-0.0362697 0.0767197 0)
(-0.0413211 0.0873474 0)
(-0.0383533 0.0810481 0)
(-0.0447158 0.0944442 0)
(-0.0464579 0.0981223 0)
(-0.0348201 0.0865465 0)
(-0.0676585 0.150081 0)
(-0.0711809 0.154835 0)
(-0.0518149 0.121859 0)
(-0.0636352 0.143423 0)
(-0.0725758 0.156775 0)
(-0.0723625 0.155155 0)
(-0.0725075 0.15421 0)
(-0.0419455 0.10322 0)
(-0.0610759 0.129066 0)
(-0.063637 0.134695 0)
(-0.0559913 0.118369 0)
(-0.059592 0.125675 0)
(-0.0654356 0.138483 0)
(-0.0529188 0.111877 0)
(-0.0704344 0.149073 0)
(-0.0723216 0.153394 0)
(-0.0692669 0.146141 0)
(-0.0187994 0.0489599 0)
(-0.0152961 0.0395648 0)
(-0.0232365 0.0606185 0)
(-0.0305712 0.0770296 0)
(-0.00962923 0.0244014 0)
(-0.011835 0.0303399 0)
(-0.00422465 0.0106415 0)
(-0.000882456 0.00222037 0)
(-0.00751858 0.0190089 0)
(-0.0496017 0.104831 0)
(-0.00163737 0.00348863 0)
(-0.0103553 0.0220294 0)
(-0.00779872 0.0165921 0)
(-0.0126777 0.0269233 0)
(-0.0162676 0.0343931 0)
(-0.0217407 0.0458072 0)
(-0.026694 0.0563221 0)
(-0.0291027 0.0614247 0)
(-0.033715 0.0711874 0)
(-0.0357515 0.075472 0)
(-0.0428304 0.0902607 0)
(-0.0391544 0.082487 0)
(-0.0448242 0.0944214 0)
(-0.0488107 0.102716 0)
(-0.0344658 0.0869094 0)
(-0.0729646 0.160217 0)
(-0.0749609 0.162556 0)
(-0.0555782 0.13036 0)
(-0.0659133 0.148901 0)
(-0.0770769 0.165323 0)
(-0.0759676 0.161889 0)
(-0.0754049 0.159943 0)
(-0.0430117 0.106783 0)
(-0.0369784 0.0929495 0)
(-0.0630624 0.133077 0)
(-0.0610602 0.128736 0)
(-0.064162 0.13547 0)
(-0.0576209 0.121315 0)
(-0.0596831 0.125508 0)
(-0.0675624 0.142569 0)
(-0.0542033 0.114204 0)
(-0.07323 0.154291 0)
(-0.0747307 0.157805 0)
(-0.0715094 0.150361 0)
(-0.0183651 0.0487264 0)
(-0.0142137 0.0372288 0)
(-0.0251916 0.0658762 0)
(-0.0203235 0.0542112 0)
(-0.0282163 0.0726316 0)
(-0.0101565 0.0258773 0)
(-0.011699 0.0301402 0)
(-0.00370338 0.00932073 0)
(-0.00187906 0.00472607 0)
(-0.00660562 0.0166781 0)
(-0.0509947 0.10748 0)
(-0.00331058 0.00702456 0)
(-0.00661088 0.0140216 0)
(-0.0132282 0.02801 0)
(-0.0170486 0.0359094 0)
(-0.0242459 0.050961 0)
(-0.0196622 0.0413502 0)
(-0.026452 0.0556386 0)
(-0.0311011 0.0654803 0)
(-0.0333467 0.0702272 0)
(-0.0374366 0.0788281 0)
(-0.042623 0.089632 0)
(-0.0408723 0.085942 0)
(-0.0466487 0.0979586 0)
(-0.0487127 0.102232 0)
(-0.0507428 0.106709 0)
(-0.0299881 0.0775536 0)
(-0.0757973 0.164859 0)
(-0.076203 0.167262 0)
(-0.0784454 0.168617 0)
(-0.0625036 0.143491 0)
(-0.0528784 0.126535 0)
(-0.0737046 0.163574 0)
(-0.0792419 0.16898 0)
(-0.076784 0.162956 0)
(-0.0787539 0.167541 0)
(-0.0776155 0.1638 0)
(-0.0374597 0.0961877 0)
(-0.0469921 0.115469 0)
(-0.0346316 0.0893162 0)
(-0.0645324 0.13567 0)
(-0.0633548 0.133121 0)
(-0.066715 0.140331 0)
(-0.0568489 0.11949 0)
(-0.0617514 0.129388 0)
(-0.0682748 0.143574 0)
(-0.0533072 0.112166 0)
(-0.0749929 0.157917 0)
(-0.0735363 0.15449 0)
(-0.0770898 0.162464 0)
(-0.0718124 0.150596 0)
(-0.0160783 0.0432822 0)
(-0.0126421 0.0328868 0)
(-0.0145014 0.0386177 0)
(-0.0230523 0.0621402 0)
(-0.0200471 0.0547267 0)
(-0.00880181 0.0223304 0)
(-0.0104942 0.0268538 0)
(-0.00479241 0.0120613 0)
(-0.00100591 0.00251692 0)
(-0.00730023 0.0184424 0)
(-0.00169227 0.00357927 0)
(-0.00825422 0.0174445 0)
(-0.0113029 0.0238765 0)
(-0.0151812 0.0319242 0)
(-0.023736 0.0497104 0)
(-0.0207954 0.0435754 0)
(-0.0287779 0.0603608 0)
(-0.0309825 0.0650431 0)
(-0.0354783 0.0744775 0)
(-0.0375192 0.0787792 0)
(-0.0444478 0.0931638 0)
(-0.0414419 0.0868317 0)
(-0.0464146 0.0972123 0)
(-0.0506185 0.105869 0)
(-0.0531504 0.111314 0)
(-0.0281319 0.0745302 0)
(-0.0808554 0.174551 0)
(-0.0818567 0.177332 0)
(-0.0818707 0.175197 0)
(-0.0664033 0.152051 0)
(-0.057379 0.136355 0)
(-0.0766909 0.170083 0)
(-0.0828238 0.175744 0)
(-0.0800568 0.169003 0)
(-0.0823816 0.174076 0)
(-0.0801585 0.168746 0)
(-0.0353814 0.0933904 0)
(-0.0450641 0.113339 0)
(-0.0301256 0.0799839 0)
(-0.0666648 0.139886 0)
(-0.063905 0.133847 0)
(-0.0580624 0.12159 0)
(-0.0620795 0.129666 0)
(-0.0703194 0.147441 0)
(-0.0547915 0.114783 0)
(-0.0772393 0.162075 0)
(-0.0756942 0.158373 0)
(-0.0785488 0.164899 0)
(-0.073644 0.153956 0)
(-0.0150842 0.0418149 0)
(-0.0116732 0.0303118 0)
(-0.0130148 0.0347296 0)
(-0.0240391 0.0655181 0)
(-0.0179766 0.0504273 0)
(-0.00920536 0.0233476 0)
(-0.0106396 0.0272238 0)
(-0.00458379 0.0114833 0)
(-0.00175119 0.00435833 0)
(-0.00610695 0.0153041 0)
(-0.0034479 0.00726246 0)
(-0.00667789 0.0140663 0)
(-0.0124686 0.0262528 0)
(-0.0151754 0.0318036 0)
(-0.0254274 0.0530848 0)
(-0.0195123 0.0407541 0)
(-0.0295457 0.0617656 0)
(-0.033188 0.0694512 0)
(-0.0353865 0.0740514 0)
(-0.0397916 0.0833125 0)
(-0.0436517 0.0912968 0)
(-0.0483982 0.100983 0)
(-0.0530253 0.110786 0)
(-0.0505291 0.105373 0)
(-0.0832174 0.178411 0)
(-0.0865606 0.186311 0)
(-0.0845826 0.179857 0)
(-0.0726736 0.163664 0)
(-0.0635943 0.147955 0)
(-0.0552896 0.133765 0)
(-0.0821072 0.180245 0)
(-0.0844359 0.178227 0)
(-0.0847446 0.179657 0)
(-0.0825761 0.173982 0)
(-0.0821845 0.172309 0)
(-0.0387755 0.101454 0)
(-0.0297864 0.0819758 0)
(-0.0492329 0.122538 0)
(-0.0276641 0.0760023 0)
(-0.068428 0.14305 0)
(-0.0662887 0.138314 0)
(-0.060338 0.126027 0)
(-0.0568564 0.118854 0)
(-0.0644891 0.134198 0)
(-0.0716865 0.149715 0)
(-0.0784617 0.164085 0)
(-0.0778975 0.162665 0)
(-0.0754199 0.157476 0)
(-0.0807892 0.169014 0)
(-0.0737409 0.153742 0)
(-0.0157989 0.0446963 0)
(-0.0131035 0.0364068 0)
(-0.0118502 0.0310263 0)
(-0.0125259 0.0339588 0)
(-0.0219159 0.0619003 0)
(-0.017319 0.0503982 0)
(-0.00837895 0.020995 0)
(-0.00990411 0.0249532 0)
(-0.00337923 0.00841514 0)
(-0.000758887 0.00187146 0)
(-0.00609171 0.015144 0)
(-0.00178113 0.00373716 0)
(-0.00841665 0.017666 0)
(-0.0111065 0.0233193 0)
(-0.0168749 0.0352596 0)
(-0.0127286 0.0266548 0)
(-0.0243977 0.0507741 0)
(-0.0282811 0.0589991 0)
(-0.0214348 0.0446084 0)
(-0.0324763 0.0677844 0)
(-0.0376821 0.078604 0)
(-0.0400447 0.0835665 0)
(-0.045083 0.0939647 0)
(-0.0478538 0.0995932 0)
(-0.0547214 0.113831 0)
(-0.0529318 0.109992 0)
(-0.0871754 0.185636 0)
(-0.0882568 0.190333 0)
(-0.0903123 0.19247 0)
(-0.0876642 0.185858 0)
(-0.0768878 0.172562 0)
(-0.0675895 0.156503 0)
(-0.0598093 0.143521 0)
(-0.0824765 0.182317 0)
(-0.0862083 0.187405 0)
(-0.0873264 0.183569 0)
(-0.0879198 0.185212 0)
(-0.085264 0.178662 0)
(-0.0846149 0.177014 0)
(-0.0823882 0.172252 0)
(-0.0367279 0.099136 0)
(-0.026049 0.0755671 0)
(-0.0474194 0.120564 0)
(-0.0234963 0.0668736 0)
(-0.0710588 0.148193 0)
(-0.0683176 0.142448 0)
(-0.0665162 0.138347 0)
(-0.0607329 0.126414 0)
(-0.0584621 0.121769 0)
(-0.0648364 0.134473 0)
(-0.0809168 0.168808 0)
(-0.0798777 0.165997 0)
(-0.077032 0.160194 0)
(-0.0757794 0.15746 0)
(-0.014028 0.0412638 0)
(-0.0118943 0.033979 0)
(-0.0110644 0.0286145 0)
(-0.0112614 0.0297794 0)
(-0.0186488 0.0545489 0)
(-0.0145263 0.043865 0)
(-0.00711512 0.0176548 0)
(-0.00887864 0.0221259 0)
(-0.00975622 0.0242126 0)
(-0.0036295 0.00895026 0)
(-0.00146383 0.00356841 0)
(-0.00485577 0.0119577 0)
(-0.00385492 0.00805492 0)
(-0.00724254 0.015141 0)
(-0.0151445 0.0315504 0)
(-0.0124751 0.0260413 0)
(-0.0260482 0.0540431 0)
(-0.0299221 0.0621569 0)
(-0.0208311 0.0431879 0)
(-0.0339028 0.0705107 0)
(-0.0379968 0.0790103 0)
(-0.042169 0.0877382 0)
(-0.0443684 0.0922752 0)
(-0.0494275 0.102466 0)
(-0.0569627 0.118227 0)
(-0.053368 0.110542 0)
(-0.0899491 0.191084 0)
(-0.0944613 0.201534 0)
(-0.0946308 0.200486 0)
(-0.0904153 0.190601 0)
(-0.0744489 0.169191 0)
(-0.0656304 0.154107 0)
(-0.0579408 0.141511 0)
(-0.0873821 0.191565 0)
(-0.0900868 0.195351 0)
(-0.0888265 0.186056 0)
(-0.0903971 0.189974 0)
(-0.0879961 0.183799 0)
(-0.0863038 0.179774 0)
(-0.0849392 0.176857 0)
(-0.0312618 0.0887317 0)
(-0.0416135 0.109908 0)
(-0.0266226 0.0783958 0)
(-0.0219011 0.0661151 0)
(-0.0518386 0.13021 0)
(-0.0211723 0.0629564 0)
(-0.0727249 0.150916 0)
(-0.0709345 0.14722 0)
(-0.0687339 0.142416 0)
(-0.0628163 0.130337 0)
(-0.0585622 0.121648 0)
(-0.0671686 0.138778 0)
(-0.0828063 0.172026 0)
(-0.082282 0.170563 0)
(-0.0791824 0.164272 0)
(-0.0767778 0.158932 0)
(-0.0120894 0.0360127 0)
(-0.0107019 0.0298671 0)
(-0.0102676 0.0256359 0)
(-0.0107113 0.0283248 0)
(-0.0166527 0.0514649 0)
(-0.0127116 0.0407532 0)
(-0.00670404 0.0163071 0)
(-0.00839373 0.0204735 0)
(-0.00896047 0.021632 0)
(-0.00276129 0.00673369 0)
(-0.000706344 0.00169567 0)
(-0.00469574 0.011378 0)
(-0.00210342 0.00437567 0)
(-0.00969055 0.0201961 0)
(-0.0154459 0.0320621 0)
(-0.0254778 0.0526936 0)
(-0.0286746 0.0594449 0)
(-0.032614 0.0676611 0)
(-0.0181535 0.0375936 0)
(-0.0232298 0.0480104 0)
(-0.0364068 0.0756043 0)
(-0.0405825 0.0841166 0)
(-0.0422622 0.0876381 0)
(-0.0460708 0.0954328 0)
(-0.0517166 0.107026 0)
(-0.0483296 0.0999636 0)
(-0.0585126 0.12091 0)
(-0.0557611 0.115059 0)
(-0.0934073 0.196922 0)
(-0.0970573 0.206942 0)
(-0.096588 0.204671 0)
(-0.0971054 0.204387 0)
(-0.0932088 0.195957 0)
(-0.0772798 0.175628 0)
(-0.0708636 0.164766 0)
(-0.0629847 0.152309 0)
(-0.0901563 0.197532 0)
(-0.0946826 0.203554 0)
(-0.0918241 0.191567 0)
(-0.0890324 0.186055 0)
(-0.0928679 0.194207 0)
(-0.0899611 0.18693 0)
(-0.0888566 0.184486 0)
(-0.0859875 0.178423 0)
(-0.0288483 0.0858929 0)
(-0.0416663 0.111787 0)
(-0.0220036 0.069849 0)
(-0.0182294 0.0588951 0)
(-0.0487993 0.125921 0)
(-0.0179357 0.0556358 0)
(-0.0752703 0.155677 0)
(-0.0710146 0.14697 0)
(-0.0689875 0.142495 0)
(-0.0630228 0.130331 0)
(-0.0610352 0.126294 0)
(-0.0674104 0.138802 0)
(-0.0851202 0.176416 0)
(-0.0843005 0.173919 0)
(-0.081032 0.167259 0)
(-0.079776 0.164483 0)
(-0.0106226 0.0332154 0)
(-0.00956725 0.0271265 0)
(-0.00988406 0.023568 0)
(-0.0101574 0.0256383 0)
(-0.0133852 0.0440072 0)
(-0.0106443 0.0351878 0)
(-0.00744211 0.0179118 0)
(-0.00554298 0.0133228 0)
(-0.00864179 0.0200215 0)
(-0.00344524 0.00829294 0)
(-0.00151928 0.00358203 0)
(-0.00406545 0.00842048 0)
(-0.00973131 0.0202075 0)
(-0.0128232 0.0265723 0)
(-0.0275342 0.0567925 0)
(-0.0295443 0.0610163 0)
(-0.0341131 0.0705162 0)
(-0.0181205 0.0373536 0)
(-0.0230905 0.0475341 0)
(-0.0378397 0.0782568 0)
(-0.0404154 0.0834895 0)
(-0.044734 0.0924941 0)
(-0.052849 0.108969 0)
(-0.0499518 0.102862 0)
(-0.0610018 0.125844 0)
(-0.0580223 0.119584 0)
(-0.05516 0.113543 0)
(-0.0963833 0.202502 0)
(-0.102021 0.215761 0)
(-0.100624 0.211762 0)
(-0.100296 0.210168 0)
(-0.0957704 0.200219 0)
(-0.0832321 0.187004 0)
(-0.0702826 0.165225 0)
(-0.0603453 0.149141 0)
(-0.0963857 0.208358 0)
(-0.0889551 0.196604 0)
(-0.0979201 0.210144 0)
(-0.0918886 0.19126 0)
(-0.0933682 0.194626 0)
(-0.0954061 0.199061 0)
(-0.0925407 0.191665 0)
(-0.0902545 0.186553 0)
(-0.0886895 0.183334 0)
(-0.0313289 0.0924103 0)
(-0.0230164 0.073791 0)
(-0.0376393 0.10505 0)
(-0.0169074 0.0589744 0)
(-0.0157879 0.0550753 0)
(-0.0161675 0.0530394 0)
(-0.0519891 0.133481 0)
(-0.0766426 0.157768 0)
(-0.0730003 0.150363 0)
(-0.0715214 0.147154 0)
(-0.0653068 0.134549 0)
(-0.0698452 0.143225 0)
(-0.0873678 0.18017 0)
(-0.0870418 0.179105 0)
(-0.0837025 0.172282 0)
(-0.0808899 0.166091 0)
(-0.00922267 0.0292241 0)
(-0.0092477 0.0246776 0)
(-0.00882947 0.0267451 0)
(-0.0100283 0.0238274 0)
(-0.00928804 0.0210746 0)
(-0.00963891 0.0242587 0)
(-0.0113797 0.0409331 0)
(-0.00841897 0.0305678 0)
(-0.00715538 0.0167661 0)
(-0.0052544 0.0123066 0)
(-0.00778424 0.0178081 0)
(-0.00297236 0.00701034 0)
(-0.000807229 0.00186364 0)
(-0.00199322 0.00411012 0)
(-0.00750996 0.0155539 0)
(-0.0127284 0.0262615 0)
(-0.0276989 0.0569361 0)
(-0.0316629 0.0652339 0)
(-0.0368309 0.0760289 0)
(-0.0336278 0.0693221 0)
(-0.0207315 0.0426224 0)
(-0.0153216 0.0315321 0)
(-0.0256422 0.0526424 0)
(-0.0421333 0.086736 0)
(-0.045895 0.0945265 0)
(-0.0521902 0.107342 0)
(-0.0488096 0.100287 0)
(-0.0630531 0.129565 0)
(-0.0602913 0.123659 0)
(-0.056055 0.114969 0)
(-0.0990089 0.20675 0)
(-0.104207 0.220336 0)
(-0.104436 0.219414 0)
(-0.103491 0.217175 0)
(-0.101574 0.212906 0)
(-0.102413 0.2135 0)
(-0.0985506 0.205393 0)
(-0.0829253 0.188113 0)
(-0.0763761 0.177177 0)
(-0.0648129 0.159029 0)
(-0.100483 0.216288 0)
(-0.0952689 0.208643 0)
(-0.102537 0.218126 0)
(-0.0934161 0.193727 0)
(-0.0963632 0.199915 0)
(-0.0975684 0.202558 0)
(-0.0947259 0.195294 0)
(-0.0928284 0.191128 0)
(-0.0895647 0.184428 0)
(-0.0280711 0.0878605 0)
(-0.0186513 0.0658388 0)
(-0.0398415 0.111471 0)
(-0.0140388 0.0545684 0)
(-0.0116845 0.0451061 0)
(-0.0130538 0.0463024 0)
(-0.0473095 0.126297 0)
(-0.0792799 0.162692 0)
(-0.0754251 0.154983 0)
(-0.0721066 0.147799 0)
(-0.0653754 0.134229 0)
(-0.0700055 0.143039 0)
(-0.0891081 0.182463 0)
(-0.0857192 0.175606 0)
(-0.0837228 0.171139 0)
(-0.00776739 0.0271418 0)
(-0.00846949 0.0221423 0)
(-0.00749991 0.0229016 0)
(-0.0101 0.0223948 0)
(-0.00935987 0.020036 0)
(-0.00953921 0.0225235 0)
(-0.00815597 0.0335157 0)
(-0.00708366 0.0291139 0)
(-0.00612045 0.0141458 0)
(-0.00393355 0.00911692 0)
(-0.00729431 0.0162077 0)
(-0.001371 0.00307648 0)
(-0.00429211 0.0088203 0)
(-0.00952955 0.019655 0)
(-0.0298421 0.0612013 0)
(-0.0316858 0.0650566 0)
(-0.0377888 0.0776933 0)
(-0.0358371 0.0736241 0)
(-0.0208348 0.0426444 0)
(-0.0154372 0.031625 0)
(-0.0258828 0.0529225 0)
(-0.0447056 0.0919161 0)
(-0.0418646 0.0859012 0)
(-0.054039 0.110759 0)
(-0.0502016 0.102654 0)
(-0.0628301 0.128713 0)
(-0.060058 0.122829 0)
(-0.0580287 0.11871 0)
(-0.101917 0.212098 0)
(-0.108802 0.228424 0)
(-0.108762 0.227117 0)
(-0.106552 0.222004 0)
(-0.105045 0.218911 0)
(-0.105503 0.219168 0)
(-0.100909 0.20917 0)
(-0.088118 0.198247 0)
(-0.077708 0.181259 0)
(-0.0734727 0.174951 0)
(-0.0601916 0.152365 0)
(-0.105618 0.224938 0)
(-0.100112 0.216588 0)
(-0.0963479 0.211712 0)
(-0.106106 0.224997 0)
(-0.0965022 0.199263 0)
(-0.097979 0.202338 0)
(-0.100221 0.207395 0)
(-0.0974146 0.200383 0)
(-0.0947939 0.194981 0)
(-0.0940487 0.192793 0)
(-0.0922966 0.189229 0)
(-0.0220954 0.0763479 0)
(-0.0337651 0.100838 0)
(-0.0176445 0.0657045 0)
(-0.0102253 0.0469055 0)
(-0.0079537 0.0372357 0)
(-0.0509118 0.135065 0)
(-0.0808414 0.165138 0)
(-0.0772589 0.157967 0)
(-0.0747271 0.152488 0)
(-0.0676459 0.138315 0)
(-0.0723139 0.147129 0)
(-0.0916184 0.187089 0)
(-0.0883215 0.180522 0)
(-0.0856821 0.174988 0)
(-0.0836166 0.170365 0)
(-0.00635142 0.0233347 0)
(-0.00758091 0.0210474 0)
(-0.00894587 0.0212751 0)
(-0.00634008 0.0213971 0)
(-0.00995594 0.021999 0)
(-0.0103357 0.0213504 0)
(-0.00882006 0.0181722 0)
(-0.0100248 0.0205426 0)
(-0.00607477 0.0307585 0)
(-0.0042328 0.0219326 0)
(-0.00614628 0.0138241 0)
(-0.0036426 0.00822848 0)
(-0.00725899 0.0154983 0)
(-0.000570184 0.00125283 0)
(-0.00254526 0.00567723 0)
(-0.00401431 0.00822275 0)
(-0.00832135 0.0171102 0)
(-0.0306178 0.0625443 0)
(-0.0337226 0.069027 0)
(-0.0399576 0.081938 0)
(-0.0357683 0.0732349 0)
(-0.023617 0.0482138 0)
(-0.0184482 0.037693 0)
(-0.0129556 0.0264864 0)
(-0.0288442 0.0588194 0)
(-0.0459184 0.0940147 0)
(-0.0441559 0.0903144 0)
(-0.0543843 0.111099 0)
(-0.0484525 0.0989321 0)
(-0.0527829 0.107664 0)
(-0.0649615 0.132505 0)
(-0.0621529 0.126539 0)
(-0.0585341 0.119264 0)
(-0.1045 0.216248 0)
(-0.110265 0.231768 0)
(-0.110823 0.231366 0)
(-0.110592 0.229791 0)
(-0.109388 0.227044 0)
(-0.1078 0.222847 0)
(-0.103879 0.214577 0)
(-0.0858793 0.195877 0)
(-0.0935269 0.207625 0)
(-0.0785201 0.186079 0)
(-0.0647004 0.162385 0)
(-0.109219 0.231726 0)
(-0.105285 0.226192 0)
(-0.102484 0.222892 0)
(-0.101265 0.208199 0)
(-0.102323 0.210677 0)
(-0.100077 0.20483 0)
(-0.0974019 0.199301 0)
(-0.0967446 0.197606 0)
(-0.0931044 0.190199 0)
(-0.0197773 0.0742554 0)
(-0.032551 0.100369 0)
(-0.011601 0.0537652 0)
(-0.00868154 0.0459782 0)
(-0.00687399 0.0387037 0)
(-0.00574685 0.0343001 0)
(-0.0462326 0.128304 0)
(-0.0800405 0.163221 0)
(-0.0769746 0.156929 0)
(-0.074745 0.151948 0)
(-0.0674341 0.137414 0)
(-0.0721035 0.14619 0)
(-0.0933374 0.189745 0)
(-0.0902849 0.1836 0)
(-0.088745 0.180332 0)
(-0.0854699 0.173335 0)
(-0.00449767 0.0202862 0)
(-0.0068768 0.0182466 0)
(-0.00886539 0.0195597 0)
(-0.00505833 0.0177446 0)
(-0.0103467 0.0210415 0)
(-0.0110681 0.0212029 0)
(-0.00790278 0.016309 0)
(-0.00951643 0.0184812 0)
(-0.0103287 0.0198358 0)
(-0.00286585 0.0231317 0)
(-0.00206813 0.0186286 0)
(-0.00550017 0.012086 0)
(-0.00448042 0.00986006 0)
(-0.00608779 0.0129262 0)
(-0.00102477 0.0021846 0)
(-0.00278203 0.00600884 0)
(-0.00172423 0.00352443 0)
(-0.00752863 0.0153785 0)
(-0.00989458 0.0202629 0)
(-0.0331285 0.0675836 0)
(-0.0401929 0.0820658 0)
(-0.0380229 0.077588 0)
(-0.0240161 0.0488192 0)
(-0.0189002 0.038421 0)
(-0.0135151 0.0275075 0)
(-0.029312 0.059492 0)
(-0.044634 0.0909402 0)
(-0.0568791 0.115829 0)
(-0.0489762 0.0996023 0)
(-0.0545074 0.110663 0)
(-0.0644633 0.131075 0)
(-0.0610195 0.123981 0)
(-0.107271 0.221302 0)
(-0.113875 0.238266 0)
(-0.115271 0.239029 0)
(-0.114008 0.235674 0)
(-0.112051 0.231275 0)
(-0.110621 0.22782 0)
(-0.106316 0.218431 0)
(-0.0905647 0.20514 0)
(-0.0985385 0.217675 0)
(-0.0737367 0.179019 0)
(-0.0869907 0.201273 0)
(-0.0612907 0.157933 0)
(-0.113439 0.238897 0)
(-0.108857 0.231953 0)
(-0.106056 0.228549 0)
(-0.103675 0.226184 0)
(-0.103476 0.211664 0)
(-0.105408 0.21625 0)
(-0.102931 0.210103 0)
(-0.0998827 0.203878 0)
(-0.0988362 0.200892 0)
(-0.0957324 0.194702 0)
(-0.0130804 0.0611686 0)
(-0.0250149 0.086325 0)
(-0.0379246 0.112536 0)
(-0.00944921 0.0515576 0)
(-0.00379031 0.0357941 0)
(-0.00282266 0.0315478 0)
(-0.00169878 0.0247059 0)
(-0.0524444 0.14203 0)
(-0.0818125 0.165932 0)
(-0.0798929 0.162006 0)
(-0.077106 0.156027 0)
(-0.069583 0.141203 0)
(-0.0741968 0.149824 0)
(-0.0955984 0.193933 0)
(-0.0928103 0.188248 0)
(-0.0897626 0.181683 0)
(-0.0881241 0.178246 0)
(-0.0843747 0.170671 0)
(-0.00346936 0.0160344 0)
(-0.00780161 0.0177186 0)