/*--------------------------------*- C++ -*----------------------------------*\
| =========                 |                                                 |
| \\      /  F ield         | OpenFOAM: The Open Source CFD Toolbox           |
|  \\    /   O peration     | Version:  v2012                                 |
|   \\  /    A nd           | Website:  www.openfoam.com                      |
|    \\/     M anipulation  |                                                 |
\*---------------------------------------------------------------------------*/
FoamFile
{
    version     2.0;
    format      ascii;
    class       surfaceScalarField;
    location    "0.91";
    object      meshPhi;
}
// * * * * * * * * * * * * * * * * * * * * * * * * * * * * * * * * * * * * * //

dimensions      [0 3 -1 0 0 0 0];


internalField   nonuniform List<scalar> 
18811
(
0.00394502
-0.000106169
0.00216318
0.00606887
-0.00519035
0.00903034
0.00775401
-0.00653871
0.0165191
-0.000293976
0.0066873
0.00534273
0.00839854
0.0137394
0.00839949
0.00868248
-0.00399529
-0.00726997
0.0182237
0.0240244
0.0143029
6.33942e-05
-0.0171411
0.0306768
0.0158755
-0.0024408
-0.000255625
0.0130779
0.00536191
0.0179231
0.0137075
0.00798325
0.0114344
0.00627074
0.023171
0.0143114
0.0123402
-0.0106232
0.006141
-0.00289599
0.0236994
-0.00627256
0.0338329
0.0328073
0.0436572
-0.00819126
0.0247492
0.00444786
-0.0269536
0.0475437
0.0187369
-0.00270791
-0.00114294
3.08334e-05
0.0172185
0.0134677
0.0213117
0.0197163
0.0292178
0.0229624
0.0158324
0.0156181
0.0162548
-0.00332589
0.0295799
0.0247463
-0.0149724
0.0160796
0.010564
-0.00824814
0.0047214
-0.00214644
0.0305088
-0.00953799
-0.0305781
0.0512464
0.0451337
0.0568652
0.0591736
-0.0121132
0.0341392
0.0105458
0.0018368
-0.0274871
0.0585638
-0.00109116
0.0203472
-0.00130456
-0.00131781
-0.00149537
0.00112785
0.00517594
0.0136452
0.0309961
0.0202591
0.0331192
0.0315742
0.0329159
0.0435706
0.0229644
0.0214598
0.0179755
0.0240858
-0.00720488
0.00698508
0.0350268
0.0291046
-0.0113224
0.0136229
-0.0169076
0.0185551
-0.00627481
0.00779318
-0.000204631
-0.00362858
-0.0309685
0.0413059
-0.0143221
0.0482344
-0.0119574
0.0481064
0.0725021
0.0837651
0.064036
-0.0131354
0.0363507
0.0172149
0.00790376
-0.0317594
0.0666433
-6.00115e-05
0.000250228
0.00788986
0.00168665
-0.000764947
-0.000256061
0.0475256
0.000826104
0.022132
0.0413487
-0.00583878
0.0598706
0.0357637
0.0474082
0.0380445
0.0526315
-0.0108144
0.0813606
0.0355597
-0.0126498
0.0372576
0.014813
-0.000694387
0.0623025
0.0108567
-0.00716991
-0.0131174
0.017115
-0.0184518
0.0309963
2.49449e-05
0.00264707
-0.00139909
-0.0381182
0.0460708
-0.036687
0.0640315
0.00949085
0.0233095
0.0433676
0.0806207
0.0787045
-0.0159985
0.0752377
0.0732471
-0.01183
0.0538124
0.0084568
0.0324457
0.00528275
0.000605131
0.066157
0.0013381
-0.00524013
0.000420073
0.00248273
-0.000604831
0.00065726
-0.00134003
8.83936e-05
0.039484
0.0130216
0.0636197
0.00823408
0.0547945
-0.0148171
0.0642657
-0.00744104
0.0947012
-0.00447445
0.0901038
0.0734629
0.0786154
0.00162488
0.0458375
-0.0102044
0.0253081
0.0392001
-0.00110124
0.000608658
0.0689205
0.0694086
0.000784701
-0.00741091
0.012265
0.00479143
-0.00199529
-0.0134484
0.0198019
-0.0222958
0.0269581
-0.000949649
0.000655616
-0.0268681
0.0455585
-0.0433051
0.0574726
0.0163218
0.0659277
0.047606
0.0541069
0.0218641
0.0780629
-0.00394151
0.0840642
0.0813713
0.0777294
-0.0171108
0.0699248
0.0265593
0.00561417
0.0274502
0.0312102
0.00752919
0.0739529
0.00120067
0.00246756
0.000971679
0.0408585
-0.00882715
0.0198855
0.0358307
0.0152946
-0.0153989
0.0777507
0.0570615
-0.0133862
0.0863938
0.0763835
-0.0125641
0.071115
-0.0138718
0.0995027
0.0770536
0.00438953
0.0832364
0.0741046
0.00922772
0.0642032
-0.0135613
0.0260565
-0.0253302
0.0577768
0.0101318
0.00119776
0.0638559
0.0165358
0.00431112
-0.00667796
0.0125678
-0.0113282
0.0149415
-0.0223022
0.0177279
-0.0165556
0.0402467
-0.0308796
0.0514266
0.0463016
0.0478037
0.035678
0.0806938
-0.0140109
0.0971276
0.0625749
0.0155455
0.0929654
0.00929787
0.0739571
0.0844465
0.0996465
0.0783097
-0.0104184
0.0824985
0.0177901
0.0132051
0.0523743
0.0104224
0.0321507
0.00885032
0.0700193
0.00114736
0.00374648
-0.0047679
0.027536
-0.00642186
0.014292
0.0141949
0.00781704
0.0475273
-0.0115175
0.0631168
-0.0200439
0.0590275
-0.0010603
0.0878886
0.1216
0.143256
-0.0093034
0.109272
0.0897606
-2.39557e-05
-0.0114812
0.117459
0.0715585
0.0112605
0.0483512
0.0886571
-0.00655526
0.0246733
-0.0370276
0.0522492
-0.000367786
0.0138255
0.000578628
0.0561552
0.0177474
0.00446988
0.0118808
-0.0056604
0.00978162
-0.0168046
0.0137612
-0.0110071
0.0278241
-0.0189473
0.0368272
-0.0304677
0.0413622
0.0407235
0.0466931
0.0498715
0.0123456
0.08545
0.102785
0.0291506
0.091148
0.0616876
0.0282548
0.0883151
0.0834922
0.076104
0.0516109
0.0719499
0.0712951
-0.0247525
0.0777561
0.0278868
0.0653068
0.0123775
0.0288623
0.0318435
0.0060646
0.0714187
0.00212968
-0.00384174
0.017783
-0.00148239
0.00877911
0.0123042
0.00965832
0.0380766
0.0055974
-0.00489123
0.0481357
0.0410261
0.00849864
0.0560111
-0.000514707
0.0908137
0.138768
0.129044
0.119686
-0.0181407
0.111735
-0.00179513
0.0890676
0.0806523
-0.000761362
-0.0227232
0.098294
0.0635937
0.010563
0.0445392
0.0387672
0.0772585
0.0689584
-0.0056905
0.0225288
-0.0077709
0.041831
-0.0198803
0.0564623
0.00543954
0.0395116
0.0342245
0.0060605
0.00668272
-0.0108978
0.0120466
-0.0099897
0.020747
-0.0131561
0.0285005
-0.0181249
0.0302887
0.0353705
-0.0332793
0.0411482
0.0351407
0.0152877
0.0464559
0.00588805
0.0524604
0.0777449
0.0733839
0.0735823
0.125402
0.0108771
0.0751303
0.0487774
0.0445866
0.0727873
0.0825429
0.0698114
0.0661376
0.0415123
0.0605876
0.0520602
-0.032632
0.075956
0.0121705
0.0687617
0.0844441
0.01941
0.0262078
0.027351
-0.00205698
0.014296
-0.0111944
0.04724
0.000430735
0.00456185
0.0106674
0.0129277
-0.000822824
0.0309845
0.00626091
0.0241098
0.0187922
0.048181
0.038555
0.00980313
0.0463748
0.0434142
-0.0118261
0.0933416
-0.0337969
0.112497
0.123738
0.0966864
0.0903661
0.0934521
-0.0243974
0.101105
0.0696065
0.0159461
-0.00552127
0.0775686
0.0695375
-0.00152547
-0.0255171
0.0884093
-0.00480954
0.0587278
0.0506001
0.0277189
0.00613703
0.0655735
0.076519
-0.00555232
0.0295739
-0.0105528
0.040177
-0.0256601
0.0564097
0.00223999
0.013297
0.0440996
0.0047865
-0.0073101
0.0151336
-0.00818939
0.0212864
0.0278882
-0.0125451
0.0294161
0.0320002
-0.011408
0.0319298
0.0302259
0.0198358
0.0417241
0.00623291
0.041679
-0.000694476
0.0457905
0.0730238
0.085939
0.0301438
0.0540567
0.07418
0.068985
0.0316297
-0.0154302
0.108855
0.0808899
0.0314196
0.074055
0.0662443
-0.0516827
0.0701296
0.0540265
0.0198012
0.058921
0.061514
0.0287903
0.0595018
-0.0287225
0.0586817
-0.00718123
0.0750674
0.071426
0.0222987
0.0170085
0.0300912
0.00636455
-0.00298771
0.020546
-0.00424804
0.0495843
0.00140611
0.00990916
0.0116275
0.0362024
-0.0037076
-0.00474408
0.0381572
0.0270924
0.0285622
-0.0147008
0.0358945
0.0332256
0.00983496
0.0408233
0.0426592
0.0427252
-0.0140664
0.0897226
0.0113381
0.0782664
0.10192
0.0886233
0.0895765
-0.0553128
0.0900983
0.0565248
0.0025934
0.0807219
-0.0263656
0.103682
0.0101102
0.0576833
0.0465808
0.0254692
-0.00497577
0.0600156
-0.0347534
0.0557754
0.0254052
0.0660503
-0.0369125
0.066939
-0.00558641
0.0663606
0.0542832
0.048792
0.0279217
0.0595769
0.0265699
-0.00136658
0.0462313
-0.0249871
0.0574027
0.00867095
0.0229457
0.0163931
0.0337838
0.00568895
0.0146692
-0.00217514
-0.00852359
0.0224271
-0.0254894
0.0245935
0.0247766
-0.00304056
0.0323574
-0.000226243
0.0300512
0.0289141
0.00809206
0.0400623
0.0403192
0.00180404
3.82695e-05
0.0437179
0.0191417
0.0245849
0.0663001
-0.0343318
0.115809
0.0711006
0.00110786
0.0915844
0.0942734
0.09566
-0.00341276
-0.021931
0.0804443
0.06097
0.0212662
0.0869407
0.0581547
0.0537387
-0.0217506
0.0483269
0.0240765
0.0614415
-0.00452283
-0.0202085
0.0467934
0.00690701
0.0603126
0.0495103
0.0183878
0.0299733
0.0370374
0.0326109
0.0219127
0.0807065
0.089274
0.0233575
0.035361
0.0224411
0.0116516
0.000821892
-0.00355392
0.0299949
0.0360674
0.014291
0.00872981
0.00081127
0.00784393
0.00915481
-0.000812534
0.0285762
-0.00165988
-0.00603515
0.0320818
0.0279879
0.0336971
0.0254169
0.0414206
0.0297248
0.0112843
0.0414594
0.0325789
0.0234233
0.0212982
0.0492777
-0.0196771
0.087838
0.0265087
0.0934636
-0.0179025
0.0915525
0.116826
0.125196
0.0802714
0.0789131
-0.0112109
0.0735002
0.0872315
0.00195365
0.049895
0.00903528
0.0322473
0.0221455
0.0408439
0.03592
0.0130306
0.0570211
0.0432342
0.0574329
0.0501869
-0.0363236
0.0554576
0.070013
0.0577615
0.0383293
0.0422542
0.0713756
-0.0142865
0.0400143
-0.0213523
0.0445635
0.0105381
0.00441581
0.0177375
0.0510482
0.00433221
-0.00797225
0.0177515
0.0035483
0.0192085
-0.0207198
0.0212815
0.0322095
-0.00233142
0.0153115
0.0199087
0.0421355
0.0238512
0.0189266
0.0360599
0.0239098
0.0184606
-0.012457
0.0459763
0.0460357
0.0196267
0.0306715
0.0656373
0.0232767
0.00206895
0.094253
0.066474
0.027296
0.0293912
0.0918086
0.0682533
0.0612677
0.0548595
0.0278643
0.00453991
0.0758943
0.043516
0.0309368
0.0290058
0.0602428
0.069535
0.0210034
0.0292467
0.0454644
0.0436103
0.0450443
-0.00335591
0.0589269
0.0214739
0.0502199
-0.00590464
0.0481272
0.0100812
0.0030386
0.0477153
0.039881
0.0161647
0.0136623
0.0553308
0.00957504
0.0474782
-0.0211949
0.0604005
0.0556983
0.0510727
0.0194702
0.0257948
0.0184441
-0.00382859
0.0168413
0.00299522
-0.00470814
0.024034
0.0103708
0.0416501
0.00661745
0.000980095
0.0135136
0.00109254
0.0268227
-0.00319635
0.0172822
0.0169111
0.0264225
0.0392972
0.0195384
0.0241918
0.0398899
0.0244935
-0.0201618
0.039556
0.0267732
0.0303385
0.0166636
0.0509868
0.0418957
0.0752505
0.0705135
0.0547307
0.0426629
0.0839554
0.101021
0.0152122
0.0790137
0.119494
-0.0348504
0.0642031
0.0489856
0.0422083
-0.020916
0.0524541
-0.045499
0.0760884
0.0779085
0.0249389
-0.0176086
0.0471297
0.0282351
0.0378897
0.00643003
0.0478973
0.0324938
0.0271865
0.0602537
0.0366735
0.0517825
0.0506409
0.0273566
-0.0284894
0.0451336
-0.00444945
0.0583969
0.0349447
0.0415382
0.0157632
0.0444489
0.0712177
-0.0149809
0.0355326
-0.0116129
0.0298612
0.0137582
0.00655119
0.00981022
0.00448946
0.0132605
0.00313256
0.0169212
-0.0151879
0.0137447
-0.0194249
0.0381194
0.00884346
0.00959895
0.0311101
0.0349532
0.0168098
0.024309
0.0424119
0.0296212
0.010684
-0.00937226
0.0369968
0.0472144
0.0282606
0.0234393
0.0217943
0.0209603
0.0475065
0.0279098
0.0592229
0.0128369
0.103964
0.0474168
0.0377705
0.0405558
0.0636307
0.0109365
0.0702199
0.0401
0.082405
0.00557407
0.0596976
-0.0049101
0.0544635
0.0531889
-0.0101294
0.0481193
0.0478772
0.0287548
0.024007
0.0552504
0.0734927
0.0544562
0.0613614
0.0541612
-0.00552158
-0.0263003
0.0542351
0.0323465
0.0593669
0.023284
0.0289045
0.0522332
-0.00112041
0.0510269
0.0381564
0.00727932
0.0177856
0.0382393
-0.00194041
0.0356934
0.00332202
0.0367731
0.0724441
0.0269209
0.0424631
0.0235117
0.0266288
0.0120043
0.00305844
0.0067728
0.00187699
0.022671
0.00647637
0.00125307
0.0125247
0.0034005
0.021559
-0.0064575
0.0151762
0.0246161
-0.0208882
0.0322163
0.00818114
0.0242112
0.0194727
0.0166709
0.0451402
0.0341989
0.0485428
0.0269971
0.0210532
0.0500874
0.0511737
0.0614467
0.0818114
0.0244284
-0.0210927
0.0595544
0.0828037
0.0764771
0.0139189
0.0576015
0.0456455
0.0386108
0.0597692
0.0391765
0.0452697
0.0466695
0.00188936
0.0731957
-0.040962
0.0702454
0.0707649
0.032361
0.0456956
0.00937628
0.037387
0.0246542
0.028501
0.0547039
0.028661
0.026088
0.0432432
-0.0103445
-0.0144804
0.0438183
0.0382728
0.0374052
0.0467549
0.00467523
0.0508697
0.0431775
-0.00707991
0.0431304
0.0372957
0.0275717
0.0289644
0.0425777
0.00421041
0.036777
-0.0016095
0.0249581
-0.00392814
0.0294347
0.0115071
0.00400235
0.0195409
0.00350644
0.00477717
0.0100673
0.00497152
0.0152223
0.00254149
0.0100365
-0.016478
0.033165
0.0343616
0.0176121
0.0420651
0.0112413
0.0350043
0.0464751
0.0308861
0.0185326
0.0528175
-0.00813036
0.0589894
0.043812
-0.0162617
0.0779677
0.022726
0.0610114
-0.041709
0.0673337
0.0435398
0.0279488
0.0578687
0.0222299
0.0560868
-0.000809806
0.0604464
0.0752784
0.0629888
0.0204232
0.0396068
0.0597377
-0.0150846
0.0608723
0.03197
0.0491133
0.0471891
0.026121
0.054234
0.0156185
0.0285323
0.0430843
0.0611442
0.035965
0.0473433
0.0538177
-0.0248896
0.0538666
0.0304052
-0.0256179
0.0521538
0.0488742
0.0518588
-0.0132217
-0.0159049
0.0535865
0.0353036
0.00544567
0.0359533
0.00354063
0.0363021
0.0149594
0.0193087
0.0401169
0.0456724
0.0409459
0.0176895
0.0199156
0.0188267
0.00850887
0.00865794
0.00360627
0.00335848
0.00187172
0.0125261
0.00635804
0.00209052
0.0143414
-0.0162117
0.0205555
-0.00459194
0.0156669
0.0185366
0.00861097
0.0270525
-0.00930908
0.0288803
0.0109576
0.0323124
0.000692446
0.0351966
0.0215935
0.0256705
0.0409067
0.0434368
0.0101439
0.0136337
0.0460832
-0.00365132
0.0480691
0.0375344
0.0647703
-0.00230773
0.0494234
0.0187259
-0.0137388
0.0574069
0.082014
0.0569694
0.00844093
0.0528598
-0.00725054
0.0841549
0.0569725
0.0390732
0.000801151
0.0461336
0.0355677
0.0257645
-0.02194
0.054192
0.027483
-0.00586843
0.0530172
0.0551974
0.0480046
-0.0278323
0.0431665
0.0524684
0.0325907
-0.0276309
0.0640726
0.0201091
0.0309994
0.0231305
0.0286832
0.0446338
0.0258622
0.0266137
-0.00687757
0.0561093
0.0453371
0.040769
-0.018673
0.0543327
0.0370178
-0.000877654
0.0338249
0.034701
0.0347941
0.00630616
0.0381559
-0.000570383
0.0391204
0.0168972
0.000531132
0.0167588
0.00207841
0.0235327
0.00787473
0.00329926
0.0131877
-0.000464684
0.00612438
0.0122086
0.0256201
-0.00287039
-0.0105482
0.0272732
0.0282153
0.0392148
0.018431
0.0197103
0.0339246
0.0112491
0.0247305
0.0376774
0.0345392
0.00696236
0.0403471
0.0453714
0.0300841
0.0164832
0.0349857
0.0135012
-0.0225866
0.0608877
0.00628399
0.0595817
0.0481786
-0.0339782
0.0532673
0.035534
0.00815133
0.0761672
0.0670976
-0.00501572
0.0605134
0.0377065
0.04838
0.0644007
-0.00474238
0.044007
0.036669
0.000884989
0.0455858
-0.0269829
0.0530866
0.0275601
-0.018603
0.0463895
0.0322624
0.0201611
0.000752933
0.0545454
0.026257
0.0216611
0.0434534
-0.000729541
0.0532419
0.0381544
0.045832
0.0514664
0.0492654
-0.0235421
0.052662
0.0214511
-0.0255152
0.0524782
0.0378341
0.0478786
-0.00235369
-0.0162115
0.0572682
0.038426
-0.000843255
0.0356915
0.0246702
0.00511153
0.018133
0.0112107
0.0118315
0.0184576
0.0359255
0.0363931
0.0176949
0.0133888
0.0196732
0.00102745
0.00758484
0.00120666
0.00254271
0.00178635
0.00785093
0.0139101
0.00055773
0.0127558
0.00387214
0.0242184
0.0329446
0.0209173
0.019065
0.0251399
-0.00494971
-0.00499628
0.0258683
0.0225793
0.012127
0.0481654
0.0453012
0.0280565
0.0126013
0.03419
0.0117821
0.0519254
0.0520565
0.0418816
0.0274829
0.0484092
0.0115891
0.0502151
-0.0015856
0.0344415
0.0191148
-0.015714
0.0517612
0.0163768
0.0626572
0.0646378
-0.00211463
0.0642005
-0.0221653
0.0608306
0.0666847
0.0432159
0.0321383
0.0452017
0.0302796
0.0152544
0.0380351
-0.0277158
0.0555309
0.0188541
-0.0144744
0.0468422
0.046179
0.0401288
-0.0206172
0.0418549
0.0218605
0.0368329
0.0526148
0.0547131
-0.0085617
-0.0110791
0.0627966
0.0384131
0.0274685
0.0217685
0.0308891
0.00130338
0.036689
0.0494004
0.0551684
-0.0133337
0.0519544
0.0207963
0.01236
0.00419169
0.0177703
0.0230065
0.0243939
0.0253917
0.0195005
-0.00885496
0.0429813
0.0188077
0.0151927
0.0135967
0.003179
0.0116552
0.00128248
0.0124776
0.00923307
0.00348576
0.00540827
0.0108891
0.0209933
-0.00630488
-0.00175208
0.0267327
0.00921196
0.0245602
0.033776
0.0289906
0.0215184
0.0181304
0.0249778
0.0234814
0.0253016
0.0340867
0.0118707
0.0472314
0.046496
0.0262215
0.0259743
0.0271675
0.0251744
-0.00698629
0.0491157
-0.022949
0.0508382
0.00517053
0.0436651
-0.0346118
0.0464594
0.0158047
0.0331794
-0.020225
0.03953
0.0291933
-0.000835176
0.0651184
0.0656533
0.0186015
0.0477764
0.0263406
0.0353751
0.0142426
0.0537821
0.0488368
0.0475689
0.0221125
0.0233025
0.0526028
0.0356138
0.00254183
0.0352003
0.0204638
0.0557052
0.0363018
0.0108676
0.00629901
0.039317
-8.14995e-05
0.0408657
0.0473564
-0.0268616
0.0477351
0.0533552
0.041568
0.0546129
0.0603953
0.0539876
-0.0267155
0.057806
0.0531143
-0.00360349
0.0439232
0.0113794
0.0379389
0.0140698
0.0292048
0.000606236
0.0140539
0.0177987
0.00228009
0.00349569
0.01534
0.00989282
0.0110994
0.00273849
0.0133922
0.0171433
0.0235443
0.0301497
0.0137936
0.00998313
-0.00467627
0.015695
0.00113423
0.00237518
0.00382545
0.00407163
0.00662294
0.0028183
0.0244942
0.0279353
-0.00422699
0.0385841
0.0252657
0.0249007
-0.00213619
0.0206955
-0.000631121
0.000343052
0.0254003
0.0359037
-0.00894641
0.0347839
0.0405155
0.00467259
0.0421613
0.0533878
-0.0170705
0.0425045
0.0322896
0.0308451
0.0324778
0.0113945
0.0322226
0.0140845
-0.039524
0.0554461
-0.00621309
0.0334671
-0.0193922
0.0488225
0.0357953
0.0308002
0.0422689
0.025122
0.0623709
-0.00356526
0.0523965
-0.0253083
0.0522935
0.0504694
0.0134302
0.0413752
0.0241372
0.0335489
0.0141795
0.057093
0.0334459
0.0499131
0.0378643
-0.0278862
0.0484375
0.0279069
-0.0022554
0.0389972
0.052326
0.0371132
0.0229134
0.0236002
0.0130374
0.0327476
0.0509552
0.0418375
-0.000192734
0.0411344
0.0135869
0.0340664
0.0264437
0.0274534
0.0299789
0.0278857
0.0167486
0.0364099
0.0404232
0.0494461
0.0559639
0.0167305
0.0101157
0.015346
0.0139115
0.0167134
0.0127392
0.00297745
0.00752122
-0.00165918
0.00838135
0.0092528
0.03471
0.0151666
0.0118681
0.00809535
0.00208942
0.00761366
0.0134291
0.000406668
0.00141524
0.00431842
8.21953e-05
0.00635994
0.0128003
0.00559794
0.0194446
0.00921822
0.0191837
0.0302624
0.0350471
0.026164
0.0198971
-0.0137927
0.0151014
0.031738
0.000182644
0.036012
0.0352774
0.00178865
0.038948
0.0409993
0.0442056
0.0291479
0.024376
0.0312208
0.0113278
-0.00535023
0.0377651
-0.0170645
0.0480585
0.0569936
0.0436724
-0.0247055
0.0386547
0.0306369
-0.0157528
0.0493059
0.0319064
0.0620812
0.0451705
0.0386594
0.0252616
0.0113478
0.0422361
0.033119
0.0196912
0.0182751
0.0329412
0.00897471
0.0332403
0.0166994
0.0405089
0.0502481
0.0509246
-0.00102736
-0.00753802
0.0454206
0.0409355
0.0446999
0.0351401
0.00388935
0.028626
0.0239742
0.00538813
0.0312658
0.0278036
-0.0015448
0.0241855
0.029597
0.0144935
0.0362912
0.0410193
0.0477762
0.0565193
0.0567666
-0.026977
0.0548575
0.0367705
-0.00037654
-0.0102393
0.0505823
0.0391282
0.0511312
0.00471023
0.0228456
0.013274
-0.00152641
-0.00191083
0.0110298
-0.00291725
0.0170039
-0.000536876
0.008617
-0.00191992
0.00534575
0.00818276
-0.0018475
0.00683652
0.00420318
0.0168727
0.0155122
0.0260518
-0.00169389
0.00883131
0.0050671
0.00780261
0.000649754
0.000613634
0.00150578
0.00238643
0.00303942
-0.000942907
0.00900245
0.0391295
-0.00604579
0.0367061
0.0294237
0.0255756
0.00154037
0.0239155
-0.00244576
0.0163324
0.00023625
-0.00135745
0.0339326
-0.000992032
0.0364796
0.0337282
-0.000896309
0.0419837
0.0144562
0.0297869
0.0556978
0.049158
0.0323847
0.0274174
0.029947
0.000278684
0.0436014
0.0372618
0.00149926
0.036057
-0.00540035
0.0386578
0.0106426
-0.0146169
0.0465647
0.0495925
0.0136227
0.0143617
0.031723
0.0508981
-0.0209402
0.0472022
0.00941561
0.033483
0.00386838
0.0295208
0.0384203
0.042666
0.0483166
-0.00741766
0.0479171
0.0356581
0.043499
0.044401
-0.00294946
0.0437677
0.00556911
0.0390838
-0.000461881
0.0355601
0.0327716
0.0387045
0.0304576
0.00317916
0.0238439
0.0263983
0.0103877
0.0179243
0.0467775
-0.0158495
0.056782
0.0318264
0.0290212
0.0272626
0.0297304
0.02669
0.0279472
0.0423111
0.0501848
-0.0078121
0.0467952
0.0431682
0.0613626
0.0170859
0.00731139
0.0121766
0.00583205
0.00276937
0.00417179
-0.00331512
0.000386884
0.0056518
0.00126013
0.00249994
0.0021573
0.0243606
0.018905
0.00412935
0.00603512
0.00756999
-0.00124616
0.000660875
0.00277121
0.0048983
0.000198444
0.0113133
-0.000222542
0.00778493
0.0318235
0.0359365
0.0376291
0.0249707
0.0265982
0.015331
0.0131055
0.0030806
0.0312923
0.0356741
0.0482077
0.0218794
0.020154
0.0517552
0.0213004
0.0342526
0.000377463
0.048734
0.0417282
-0.00937314
-0.0100801
0.0376937
0.034073
0.037747
0.0337093
0.0376378
0.0332856
0.0523585
0.0371401
0.0295165
0.0461276
0.0139463
0.0383375
0.045296
0.00297361
0.0485488
-0.00893567
0.0387283
0.0298456
0.00890097
0.0344443
0.00559686
0.0435293
0.00925941
0.0386196
0.0448749
0.048728
-0.0054549
0.00252974
0.0417405
0.036026
0.0461679
0.0113968
0.0238985
-0.00474097
0.0376096
0.0341018
0.0047334
0.025214
0.0278723
0.00360089
0.0219313
0.0205797
0.0231627
0.0233888
0.0606486
0.0537236
0.0509238
-0.0258322
0.0535476
0.0249001
0.0171832
0.0292115
0.0207315
0.0278807
0.0185297
0.032237
0.0106838
0.030478
0.0305992
-0.00347043
0.016123
0.00680398
-0.00412018
-0.00305976
0.0113426
-0.0025055
0.00306118
0.00165126
-0.00306653
-0.0067264
0.00555197
0.00400126
-0.00197424
0.00144475
-0.00394997
0.0161088
0.00640564
0.01186
0.0181207
0.00361302
-0.000760529
0.00108199
0.0016177
0.00659585
0.00271978
0.0353281
-0.00114492
0.0373651
0.0368053
-0.0108151
0.0366281
0.0167542
-0.0119934
0.0292491
0.00283385
0.00234775
0.0294601
0.0275178
0.00828362
0.0485412
0.0478026
0.0298194
0.0218056
-0.0098372
0.0440122
0.0388189
-0.000745674
0.0384861
0.0333806
0.00170095
0.036044
-0.00899721
0.0426757
0.0370045
0.000591334
-0.00769141
0.0409183
0.0445928
-0.0227525
0.059747
-0.0107986
0.0411109
0.0363205
-0.00949539
0.0492302
0.0367659
0.0449149
0.00924823
0.0399744
0.00723451
0.0316089
0.0392818
0.0406334
0.00847881
0.0357686
0.00360277
0.0348501
0.0219906
0.0520915
0.0360936
0.0606933
0.0213141
0.0245461
-0.0228455
0.0343324
-0.00161378
0.0253374
0.0147724
0.00835378
0.0261789
0.0232768
0.0163048
0.0107321
0.00861118
0.0125576
0.0143007
0.00527938
0.0329801
0.032406
0.047168
0.0130627
0.0338901
0.0194976
0.0248401
0.0194174
0.0338151
0.0461238
0.0483088
0.0504461
0.0409179
-0.00636392
0.0366416
0.00942095
0.00417233
-0.000986489
0.00363905
-0.00217584
-0.0044093
-0.00887385
-0.00331304
0.00289546
0.00115559
0.0011903
0.000744688
0.00238786
-0.00362541
0.00103384
-0.0080817
0.0192718
-0.00324274
0.0124461
0.0154593
0.00036042
0.00429408
0.000894143
-0.00274758
0.0116125
0.00229047
0.0104123
0.0250645
0.0458129
0.0474457
0.0397797
-0.0126821
0.0308621
0.018042
0.0172408
0.054898
0.0123047
0.0360002
0.0235173
0.0242203
0.0419291
0.045272
0.0245727
0.0192045
0.00944594
0.0291963
0.00236475
0.0361134
0.0407029
0.0387004
0.0269934
0.0450124
0.0414629
0.0414837
0.00278372
0.042553
0.0168418
0.0456482
0.0251872
0.0248967
-0.00144301
0.0391647
0.0357867
0.0101818
0.00847185
0.0319815
-0.0102587
0.0418893
0.0290435
0.00471359
0.0361143
0.00191555
0.0341495
0.0566635
0.0383053
0.0134257
0.0570918
0.0201051
0.040305
0.044372
0.0151514
0.0191834
0.0127501
0.0124385
0.0412885
0.00844104
0.0144361
0.0240958
0.0185821
0.0171016
0.00692484
0.0264931
0.0403687
0.0403788
0.0466482
0.0386664
0.049189
0.0049001
0.0285991
-0.00110949
0.0469223
0.0468922
0.046754
0.00322371
0.00257749
0.0379891
0.0388823
-0.00112001
0.00709057
-0.00124826
-0.00301748
-0.00387391
0.00367579
-0.00244474
-0.00340852
-0.00668015
-0.0033752
-0.00424349
-0.00886367
-0.0141637
0.00209283
-0.00198037
0.00203766
0.000160116
-0.00530673
-0.00677297
-0.00575351
0.0161097
0.00146334
0.0100779
0.0101028
-0.000967089
0.0145464
0.0015291
7.27146e-05
0.000387073
0.0060647
0.0125505
0.0330157
0.0597171
0.00322876
0.0371713
0.0261635
0.00538017
0.0228056
-0.0031719
0.0164414
0.00290379
0.0162669
0.0384223
0.0452229
0.0570311
-9.78674e-05
0.0417708
0.0448751
0.0481722
0.00439109
0.0316867
0.0450425
0.0250422
0.0134881
0.0518519
0.0109808
0.0338346
0.00404184
0.0371544
0.0452235
0.0449938
-0.0255584
0.0421622
0.0229689
0.0233608
0.0339996
-0.00969556
0.0353912
0.0351266
0.0301978
0.0337906
0.00412951
0.0275843
0.0316145
0.0103731
0.0338584
0.0383413
0.0114134
0.0232105
0.0307897
0.00957795
0.0282917
-0.0230203
0.0361827
0.0337034
0.0275335
0.0125293
0.00516906
0.0387624
0.0278634
-0.00363464
0.0228061
0.0265666
0.0256004
0.0157445
0.0141059
0.00920272
0.00257164
0.0151292
0.0186285
0.0305249
0.0116616
0.0289428
0.0372297
0.00264288
0.0326193
0.0136239
0.00614851
0.0320435
0.0342999
0.0144293
0.0388001
0.0343564
0.0240178
0.0225117
0.0212331
0.0251742
0.0224
0.0236699
0.0408241
0.00252407
0.0357938
0.00566451
0.000381033
-0.00680183
-0.00291682
-0.0112477
-0.0162964
0.0100521
-0.0228728
-0.00861844
0.000826156
-2.45152e-05
0.00126363
0.000105049
0.00160992
-0.00346339
-0.00579538
-0.00226036
-0.0142883
0.0185146
0.00981595
-0.00200644
0.00618408
0.012763
-0.000298967
0.00118153
0.00016097
0.00662524
0.00211408
0.0110192
0.0481117
0.0299744
0.0534243
0.0290361
0.0149044
0.0116861
0.0490346
0.0157798
0.028876
0.00978415
0.0462136
0.056949
0.0538083
0.0280174
0.0198098
0.0424909
0.0120871
0.0329378
0.0503719
0.0112815
0.0401327
-0.00351191
0.0369553
0.00380058
0.0409409
0.036817
0.00774153
0.0367277
0.00505388
0.0352769
0.0228902
0.0119167
0.0149308
0.0209291
0.00286854
0.0330429
-0.000233202
0.0311298
0.00332571
0.0310356
0.00885592
0.0187472
0.0437019
0.0443808
0.0153046
0.0233674
0.0387716
0.0399282
-0.0188008
0.0466894
0.0170562
0.0016308
0.0316212
0.0324075
0.0362382
0.0398243
0.0203562
0.0074478
0.0220998
0.0144791
0.00832673
0.00975412
0.0163986
0.027849
0.0232115
0.0232029
0.00455271
0.0254885
0.00700566
0.0220105
0.0391546
0.0348136
0.0452146
0.0421
0.0192306
0.0190088
0.0529791
0.0434108
0.046886
-0.0311766
0.054165
0.00900532
0.0440931
0.00366596
-0.00125708
0.000959887
-0.000525112
-0.0105333
-0.0021091
-0.00472024
0.00183892
-0.0180806
-0.00760665
-0.0116215
-0.0103635
-0.0150391
0.00870668
-0.0212169
0.000861937
-6.62769e-05
0.000781588
-0.00418633
-0.00125965
-0.00929071
-0.00591084
-0.0113689
0.0139425
0.0027079
0.00852389
0.00641256
-0.00367586
0.0118411
0.000473142
0.00529092
0.0113943
0.0358257
-0.0145333
0.0451728
0.0239486
0.0284918
0.0151472
-0.00598857
0.0223025
0.00689067
0.0151984
0.0327257
0.0482097
0.0565621
0.00815962
0.047751
0.0607226
0.01043
0.0317609
0.043092
0.0243229
0.0256776
0.0352981
0.0362056
0.00886212
0.0277845
0.0401978
0.00830897
0.0321291
0.0440389
0.0445855
0.0391653
0.0318604
0.0273203
-0.00255607
0.0238517
0.0345588
0.0335068
0.0289257
0.0230414
0.00988405
0.0339939
0.0110332
0.0337937
0.0347375
0.00828841
0.0308441
0.01686
0.0291834
0.0482549
-0.0089806
0.0409153
0.026811
-0.00606407
0.0451156
0.00679699
0.0136123
0.0219267
0.0155963
0.00642578
0.0240407
0.0230408
0.0123496
0.0155211
0.00897252
0.0134701
0.0141295
0.00758301
0.0137794
0.0116754
0.0208201
0.00324836
0.0186077
0.04086
-0.00251853
-0.00847641
0.0427277
0.0360634
0.0366668
0.00477888
0.0548642
0.0150809
0.0367316
0.0161045
0.0266558
0.0112907
0.0349423
0.0255874
0.0276082
0.00321724
0.0401482
-0.00427169
-0.000870648
-0.00481353
-0.00896971
-0.0123939
-0.0128233
-0.0204436
-0.020165
0.00524413
-0.0229144
-0.0274525
0.00312998
0.000375359
-0.000221732
0.000929673
-0.0019967
0.00197518
-0.00442816
-0.00162346
-0.0089412
0.0023213
-0.0154587
0.0152179
0.00869554
-0.00258467
-0.00156167
0.00246185
0.0114354
-0.0016428
0.000119842
0.00316251
0.00385617
0.0501522
0.0144018
0.0301006
0.0378074
0.0599426
-0.0135526
0.0296555
0.00957785
0.0114776
0.0521576
0.0164958
0.03816
-0.0033427
0.0495139
0.0387764
0.0194999
0.0402405
0.00526549
0.0375161
0.0335702
0.000323083
0.0344218
0.00468929
0.0310831
-0.00130679
0.0285688
0.00728791
0.0323883
0.000585885
0.031144
0.032626
0.010812
0.0131627
0.0307832
0.00695635
0.0328128
0.0146004
0.0177339
0.00299315
0.0244466
0.0268988
0.00551969
0.0297364
0.00642774
0.0276433
0.000551061
0.0289771
0.0107193
0.0121805
0.0439097
0.0390128
0.0433395
0.0382873
-0.0192086
0.0355949
0.0416923
0.0284399
0.034132
0.0423212
0.00299255
0.0412179
-0.00822182
0.0217531
0.0137907
0.0189278
0.0157524
0.00820456
0.0162212
0.00716596
0.0186877
0.0156838
-0.000814618
0.0136562
0.0226925
0.00219593
0.0184264
0.000819085
0.0175458
0.0433141
0.0393225
0.0501219
0.026606
0.0264865
0.0617542
0.0373949
0.00605358
0.0281118
-0.0118921
0.0366234
0.0328577
0.0273456
0.000477302
-0.00538922
-0.00893587
0.00169706
-0.0150019
0.00512271
-0.0217191
-0.0274715
0.0108431
0.00011536
-0.0226292
-0.00391734
-0.017917
-0.0247618
-0.0244698
-0.0269205
-0.000200776
-0.00103024
-0.00526579
-0.000212013
-0.00817142
-0.00813935
-0.00258563
-0.0140805
0.00963243
0.00437466
0.00666962
-0.0016888
-0.00319969
0.00396425
-0.00446441
0.00667941
-0.000144506
0.00506758
0.000538782
0.0647741
0.023426
0.0061902
0.00580878
0.03075
0.0201684
0.0377394
0.0217195
0.00772531
-0.00885893
0.019595
0.00359976
0.0472704
0.0735341
0.0668587
0.0128905
0.0267785
0.00608427
0.0309571
0.0333651
0.0386007
0.0291946
0.0408782
0.0393756
0.0325631
0.00879983
0.021802
0.0410257
0.0389785
0.0268159
-0.00806794
0.0259093
0.0164388
0.00802205
0.0191899
0.0367263
0.0287087
0.0373166
0.0179522
0.0259682
0.00569884
0.0330067
0.0161528
0.0273328
0.010423
0.0280871
0.00805784
0.0265968
0.0151833
0.0259027
0.0308079
-0.0150829
0.0483641
0.0264902
0.0286212
0.0119604
0.00859841
0.013365
-0.00498574
0.0187654
-4.4002e-05
0.018803
0.0108918
-0.00651912
0.0147106
0.0150805
0.0158607
0.0185633
-0.000719785
0.015471
0.0122519
0.0246707
0.0189886
0.00780878
0.00920057
0.017976
0.0243317
-0.00687858
0.0452769
0.0421991
0.0715552
-0.00956041
0.0684954
0.0174596
0.0190286
0.0446545
0.00414877
0.0314895
0.0360909
0.0444368
-0.000188331
-0.00837008
-0.0114841
-0.0135913
-0.014478
-0.0282405
-0.0216412
-0.0340475
0.00711355
0.00831572
-0.0343169
-0.0349606
0.00501556
0.000359915
-0.00093669
-0.00264265
0.000968917
-0.00392034
-0.00321822
-0.00558696
-0.0120496
0.00303176
-0.0177379
-0.00586319
0.0093333
0.00613837
-0.00131153
-0.00458673
-0.00242179
-0.000289577
-0.0066038
0.0118343
-0.000145515
0.00977592
0.00271004
0.0220896
0.0397106
0.0282642
0.0273729
0.0490337
0.0569425
-0.0104693
0.0182953
0.00933035
0.0224592
0.0468758
-0.00721318
0.0709804
0.0323853
0.00402549
0.0263117
0.0414177
0.0144381
0.0234727
0.0429519
0.0200911
0.0198119
0.0146218
0.0240498
0.0175817
0.0144302
0.0388006
0.012581
0.0276711
0.00586045
0.0334767
0.00352337
0.0228747
0.0289268
0.035844
0.0120481
0.0253279
0.041233
0.0209276
0.0173456
0.0341268
0.0314638
0.0363711
0.0378996
0.0342314
0.0379797
0.040981
0.0377842
0.0206952
0.0267106