/*--------------------------------*- C++ -*----------------------------------*\
| =========                 |                                                 |
| \\      /  F ield         | OpenFOAM: The Open Source CFD Toolbox           |
|  \\    /   O peration     | Version:  v2012                                 |
|   \\  /    A nd           | Website:  www.openfoam.com                      |
|    \\/     M anipulation  |                                                 |
\*---------------------------------------------------------------------------*/
FoamFile
{
    version     2.0;
    format      ascii;
    class       pointVectorField;
    location    "0.91";
    object      pointDisplacement;
}
// * * * * * * * * * * * * * * * * * * * * * * * * * * * * * * * * * * * * * //

dimensions      [0 1 0 0 0 0 0];


internalField   nonuniform List<vector> 
14482
(
(0 0 0)
(0 0 0)
(0 0 0)
(0 0 0)
(0 0 0)
(0 0 0)
(0 0 0)
(0 0 0)
(0 0 0)
(0 0 0)
(0 0 0)
(0 0 0)
(0 0 0)
(0 0 0)
(0 0 0)
(0 0 0)
(0 0 0)
(0 0 0)
(0 0 0)
(0 0 0)
(0 0 0)
(0 0 0)
(0 0 0)
(0 0 0)
(0 0 0)
(0 0 0)
(0 0 0)
(0 0 0)
(0 0 0)
(0 0 0)
(0 0 0)
(0 0 0)
(0 0 0)
(0 0 0)
(0 0 0)
(0 0 0)
(0 0 0)
(0 0 0)
(0 0 0)
(0 0 0)
(0 0 0)
(0 0 0)
(0 0 0)
(0 0 0)
(0 0 0)
(0 0 0)
(0 0 0)
(0 0 0)
(0 0 0)
(0 0 0)
(0 0 0)
(0 0 0)
(0 0 0)
(0 0 0)
(0 0 0)
(0 0 0)
(0 0 0)
(0 0 0)
(0 0 0)
(0 0 0)
(0 0 0)
(0 0 0)
(0 0 0)
(0 0 0)
(0 0 0)
(0 0 0)
(0 0 0)
(0 0 0)
(0 0 0)
(0 0 0)
(0 0 0)
(0 0 0)
(0 0 0)
(0 0 0)
(0 0 0)
(0 0 0)
(0 0 0)
(0 0 0)
(0 0 0)
(0 0 0)
(0 0 0)
(0 0 0)
(0 0 0)
(0.0855706 -0.188316 0)
(0.0857749 -0.188175 0)
(0.0859948 -0.188023 0)
(0.0862317 -0.187859 0)
(0.0864869 -0.187683 0)
(0.0867616 -0.187493 0)
(0.0870575 -0.187289 0)
(0.087376 -0.187069 0)
(0.0877191 -0.186832 0)
(0.0880884 -0.186577 0)
(0.0884859 -0.186302 0)
(0.0889138 -0.186007 0)
(0.0893745 -0.185688 0)
(0.0897827 -0.185247 0)
(0.0902138 -0.184763 0)
(0.0906776 -0.184242 0)
(0.0911237 -0.183639 0)
(0.0915903 -0.18298 0)
(0.0920483 -0.182243 0)
(0.092517 -0.181435 0)
(0.0929722 -0.18054 0)
(0.0934189 -0.179558 0)
(0.0938559 -0.178483 0)
(0.094278 -0.17731 0)
(0.094682 -0.176033 0)
(0.0950572 -0.174644 0)
(0.0954079 -0.173139 0)
(0.0957258 -0.171511 0)
(0.0960092 -0.169754 0)
(0.0962516 -0.167859 0)
(0.0964488 -0.16582 0)
(0.0965972 -0.163628 0)
(0.0966917 -0.161276 0)
(0.096727 -0.158754 0)
(0.0966971 -0.156054 0)
(0.0965967 -0.153165 0)
(0.09642 -0.150078 0)
(0.0961609 -0.146782 0)
(0.0958124 -0.143267 0)
(0.0953676 -0.13952 0)
(0.0948187 -0.135532 0)
(0.0941583 -0.131289 0)
(0.0933781 -0.126781 0)
(0.0924693 -0.121995 0)
(0.0914233 -0.116919 0)
(0.0902308 -0.111541 0)
(0.0888824 -0.105849 0)
(0.087368 -0.0998316 0)
(0.0856784 -0.0934778 0)
(0.0838032 -0.0867769 0)
(0.0817324 -0.0797186 0)
(0.0794565 -0.0722946 0)
(0.0769653 -0.0644958 0)
(0.0742502 -0.0563163 0)
(0.0713018 -0.0477501 0)
(0.0681122 -0.0387938 0)
(0.0646735 -0.0294443 0)
(0.0609804 -0.0197034 0)
(0.0570265 -0.00957122 0)
(0.0528084 0.000947159 0)
(0.0483236 0.0118451 0)
(0.0435715 0.0231132 0)
(0.0385527 0.03474 0)
(0.0332709 0.0467099 0)
(0.0277306 0.0590067 0)
(0.0219395 0.0716094 0)
(0.0159069 0.0844949 0)
(0.00964384 0.0976393 0)
(0.00316506 0.111013 0)
(-0.00351451 0.124587 0)
(-0.0103768 0.138329 0)
(-0.0174024 0.152204 0)
(-0.02457 0.166178 0)
(-0.0318578 0.180215 0)
(-0.0392416 0.194275 0)
(-0.0466981 0.208323 0)
(-0.0542019 0.222319 0)
(-0.0617291 0.236229 0)
(-0.0692545 0.250014 0)
(-0.0767538 0.263639 0)
(-0.0842038 0.277071 0)
(-0.0915823 0.290278 0)
(-0.0988676 0.30323 0)
(-0.10604 0.315901 0)
(-0.113081 0.328265 0)
(-0.119974 0.3403 0)
(-0.126704 0.351988 0)
(-0.133258 0.363312 0)
(-0.139625 0.374259 0)
(-0.145794 0.384818 0)
(-0.151758 0.394981 0)
(-0.157512 0.404745 0)
(-0.16305 0.414105 0)
(-0.168371 0.423063 0)
(-0.173471 0.431619 0)
(-0.178352 0.439778 0)
(-0.183015 0.447546 0)
(-0.18746 0.454929 0)
(-0.191693 0.461937 0)
(-0.195716 0.468578 0)
(-0.199535 0.474865 0)
(-0.203155 0.480808 0)
(-0.206582 0.486419 0)
(-0.209821 0.491712 0)
(-0.21288 0.496697 0)
(-0.215765 0.50139 0)
(-0.218484 0.505802 0)
(-0.221044 0.509948 0)
(-0.22345 0.513839 0)
(-0.225712 0.517489 0)
(-0.227835 0.52091 0)
(-0.229827 0.524114 0)
(-0.231694 0.527113 0)
(-0.233443 0.529919 0)
(-0.23508 0.532542 0)
(-0.236612 0.534993 0)
(-0.238045 0.537282 0)
(-0.239384 0.53942 0)
(-0.240634 0.541414 0)
(-0.241802 0.543274 0)
(-0.242892 0.545009 0)
(-0.243909 0.546626 0)
(-0.244857 0.548133 0)
(-0.245741 0.549537 0)
(-0.246565 0.550844 0)
(-0.247332 0.552061 0)
(-0.248047 0.553194 0)
(-0.248713 0.554249 0)
(-0.249333 0.55523 0)
(-0.249909 0.556142 0)
(-0.250446 0.556991 0)
(-0.250945 0.55778 0)
(-0.251409 0.558514 0)
(-0.251841 0.559196 0)
(-0.252243 0.55983 0)
(-0.252616 0.56042 0)
(-0.252963 0.560967 0)
(-0.253286 0.561476 0)
(-0.253585 0.561949 0)
(-0.253864 0.562388 0)
(-0.254123 0.562796 0)
(-0.254363 0.563175 0)
(-0.254587 0.563528 0)
(-0.254794 0.563854 0)
(-0.254987 0.564158 0)
(-0.255166 0.56444 0)
(-0.255332 0.564701 0)
(-0.255486 0.564945 0)
(-0.25563 0.56517 0)
(-0.255763 0.56538 0)
(-0.255989 0.565277 0)
(-0.256189 0.565186 0)
(-0.256372 0.565103 0)
(-0.256544 0.565025 0)
(-0.256712 0.564949 0)
(-0.25688 0.564872 0)
(-0.257052 0.564794 0)
(-0.257235 0.564711 0)
(-0.257435 0.56462 0)
(-0.257661 0.564517 0)
(-0.257591 0.564279 0)
(-0.257515 0.564023 0)
(-0.257433 0.563746 0)
(-0.257345 0.563449 0)
(-0.257251 0.563129 0)
(-0.257149 0.562784 0)
(-0.257039 0.562413 0)
(-0.256921 0.562013 0)
(-0.256793 0.561583 0)
(-0.256656 0.56112 0)
(-0.256509 0.560621 0)
(-0.25635 0.560084 0)
(-0.256179 0.559506 0)
(-0.255994 0.558885 0)
(-0.255796 0.558215 0)
(-0.255582 0.557496 0)
(-0.255352 0.556722 0)
(-0.255105 0.55589 0)
(-0.254839 0.554995 0)
(-0.254552 0.554032 0)
(-0.254244 0.552998 0)
(-0.253913 0.551886 0)
(-0.253557 0.550691 0)
(-0.253173 0.549407 0)
(-0.252761 0.548028 0)
(-0.252318 0.546548 0)
(-0.251843 0.544959 0)
(-0.251331 0.543253 0)
(-0.250782 0.541424 0)
(-0.250192 0.539462 0)
(-0.249559 0.537359 0)
(-0.248879 0.535105 0)
(-0.24815 0.532691 0)
(-0.247367 0.530106 0)
(-0.246528 0.52734 0)
(-0.24563 0.524381 0)
(-0.244667 0.521218 0)
(-0.243636 0.517839 0)
(-0.242532 0.514231 0)
(-0.241352 0.510383 0)
(-0.24009 0.506278 0)
(-0.238742 0.501906 0)
(-0.237302 0.497251 0)
(-0.235767 0.492302 0)
(-0.234129 0.487041 0)
(-0.232386 0.481458 0)
(-0.23053 0.475537 0)
(-0.228557 0.469265 0)
(-0.226461 0.46263 0)
(-0.224237 0.455619 0)
(-0.221881 0.448219 0)
(-0.219386 0.440422 0)
(-0.216749 0.432217 0)
(-0.213964 0.423596 0)
(-0.211028 0.414553 0)
(-0.207938 0.405084 0)
(-0.20469 0.395184 0)
(-0.201282 0.384856 0)
(-0.197711 0.3741 0)
(-0.193978 0.362923 0)
(-0.190082 0.351331 0)
(-0.186024 0.339335 0)
(-0.181805 0.326951 0)
(-0.177427 0.314194 0)
(-0.172895 0.301085 0)
(-0.168213 0.28765 0)
(-0.163386 0.273913 0)
(-0.158421 0.259907 0)
(-0.153325 0.245662 0)
(-0.148107 0.231216 0)
(-0.142777 0.216605 0)
(-0.137342 0.20187 0)
(-0.131816 0.187052 0)
(-0.126208 0.172194 0)
(-0.12053 0.157337 0)
(-0.114796 0.142528 0)
(-0.109016 0.127806 0)
(-0.103204 0.113216 0)
(-0.0973731 0.0987976 0)
(-0.0915353 0.0845903 0)
(-0.0857038 0.0706309 0)
(-0.0798912 0.0569547 0)
(-0.0741093 0.0435917 0)
(-0.0683708 0.0305725 0)
(-0.0626866 0.0179212 0)
(-0.0570678 0.00566008 0)
(-0.0515252 -0.00619129 0)
(-0.0460681 -0.0176189 0)
(-0.0407058 -0.0286098 0)
(-0.0354465 -0.0391558 0)
(-0.0302977 -0.0492512 0)
(-0.025266 -0.0588937 0)
(-0.0203575 -0.0680824 0)
(-0.0155766 -0.0768218 0)
(-0.0109279 -0.0851152 0)
(-0.00641455 -0.0929702 0)
(-0.00203902 -0.100395 0)
(0.00219703 -0.107401 0)
(0.00629244 -0.113998 0)
(0.0102472 -0.120201 0)
(0.0140614 -0.12602 0)
(0.0177361 -0.131472 0)
(0.0212727 -0.136571 0)
(0.0246733 -0.14133 0)
(0.0279401 -0.145765 0)
(0.0310758 -0.149892 0)
(0.0340833 -0.153725 0)
(0.0369662 -0.157277 0)
(0.0397275 -0.160565 0)
(0.0423709 -0.163602 0)
(0.0449004 -0.166401 0)
(0.0473193 -0.168976 0)
(0.0496316 -0.171339 0)
(0.0518407 -0.173502 0)
(0.0539507 -0.175478 0)
(0.0559651 -0.177277 0)
(0.0578878 -0.178909 0)
(0.0597218 -0.180384 0)
(0.0614702 -0.181714 0)
(0.0631359 -0.182907 0)
(0.0647225 -0.18397 0)
(0.0662327 -0.184913 0)
(0.0676681 -0.185744 0)
(0.0690322 -0.18647 0)
(0.0703253 -0.1871 0)
(0.071553 -0.187636 0)
(0.0727143 -0.18809 0)
(0.0738112 -0.188467 0)
(0.074845 -0.188777 0)
(0.0758187 -0.189023 0)
(0.0767352 -0.189201 0)
(0.0775918 -0.189341 0)
(0.078395 -0.189423 0)
(0.0791424 -0.189483 0)
(0.0798401 -0.189477 0)
(0.0804884 -0.18947 0)
(0.0810894 -0.189453 0)
(0.081632 -0.189315 0)
(0.0821362 -0.189188 0)
(0.0826045 -0.189069 0)
(0.0830396 -0.188958 0)
(0.0834437 -0.188856 0)
(0.083819 -0.188761 0)
(0.0841676 -0.188672 0)
(0.0844912 -0.18859 0)
(0.0847918 -0.188514 0)
(0.0850709 -0.188443 0)
(0.08533 -0.188377 0)
(-0.0977926 0.232461 0)
(-0.113177 0.262586 0)
(-0.111853 0.256658 0)
(-0.133495 0.290608 0)
(-0.120061 0.265481 0)
(-0.117199 0.263409 0)
(-0.161943 0.32337 0)
(-0.157957 0.31875 0)
(-0.170931 0.33938 0)
(-0.0692353 0.168968 0)
(-0.0559707 0.146369 0)
(-0.0691552 0.171999 0)
(-0.0710075 0.216109 0)
(-0.0630171 0.205404 0)
(-0.0821972 0.241707 0)
(-0.065382 0.17124 0)
(-0.0546437 0.155262 0)
(-0.0706283 0.184023 0)
(-0.205293 0.425091 0)
(-0.204206 0.425869 0)
(-0.21713 0.445572 0)
(-0.184967 0.388872 0)
(-0.178008 0.380561 0)
(-0.19414 0.405572 0)
(-0.212783 0.41476 0)
(-0.228161 0.439335 0)
(-0.221361 0.42561 0)
(-0.116492 0.247234 0)
(-0.12503 0.262968 0)
(-0.123551 0.258745 0)
(-0.0425468 0.123868 0)
(-0.0348779 0.114266 0)
(-0.0506631 0.143044 0)
(-0.0522226 0.180676 0)
(-0.0490471 0.180664 0)
(-0.129546 0.321596 0)
(-0.121461 0.30324 0)
(-0.109349 0.285018 0)
(-0.0364498 0.12884 0)
(-0.020256 0.0982639 0)
(-0.0290749 0.118872 0)
(-0.224466 0.459668 0)
(-0.237364 0.48032 0)
(-0.231244 0.468228 0)
(-0.221381 0.440581 0)
(-0.233455 0.46126 0)
(-0.229459 0.451972 0)
(-0.164 0.339484 0)
(-0.167006 0.341438 0)
(-0.153573 0.319371 0)
(-0.104409 0.213898 0)
(-0.106178 0.215968 0)
(-0.0999456 0.205248 0)
(-0.0411133 0.104443 0)
(-0.0511486 0.124689 0)
(-0.0482005 0.116155 0)
(-0.0597535 0.139527 0)
(-0.026348 0.0793277 0)
(-0.0210636 0.0661161 0)
(-0.0189175 0.0645932 0)
(-0.0072083 0.0940494 0)
(-0.0142912 0.104952 0)
(-0.0028323 0.0791368 0)
(-0.0406465 0.17837 0)
(-0.0508164 0.196528 0)
(-0.03962 0.171362 0)
(-0.155199 0.38084 0)
(-0.164379 0.393821 0)
(-0.153757 0.374894 0)
(-0.00635761 0.0430772 0)
(0.00169443 0.0282619 0)
(-0.006673 0.0480706 0)
(0.032049 -0.0100291 0)
(0.0326258 -0.0059076 0)
(0.0263924 0.00510257 0)
(-0.260645 0.525352 0)
(-0.254214 0.51733 0)
(-0.260829 0.52763 0)
(-0.275922 0.556032 0)
(-0.277271 0.560041 0)
(-0.276383 0.557232 0)
(-0.268886 0.519908 0)
(-0.267549 0.520958 0)
(-0.274733 0.53185 0)
(-0.293605 0.55726 0)
(-0.28973 0.553932 0)
(-0.294473 0.562403 0)
(-0.260832 0.489724 0)
(-0.264004 0.497545 0)
(-0.268309 0.502544 0)
(-0.213204 0.391563 0)
(-0.210028 0.389467 0)
(-0.218602 0.402373 0)
(-0.196778 0.374296 0)
(-0.196286 0.370187 0)
(-0.189514 0.361301 0)
(-0.134223 0.269742 0)
(-0.128389 0.261217 0)
(-0.137779 0.276985 0)
(-0.0696702 0.157011 0)
(-0.0815402 0.177989 0)
(-0.0700534 0.155657 0)
(-0.0268166 0.0684339 0)
(-0.0336753 0.0830064 0)
(-0.0293448 0.0725653 0)
(-0.014771 0.0485929 0)
(-0.0199543 0.0588705 0)
(-0.0155346 0.0475016 0)
(3.18429e-05 0.0158665 0)
(-0.00506687 0.0261533 0)
(-0.00211416 0.0155746 0)
(-0.00634578 0.104239 0)
(0.00947883 0.0736836 0)
(-0.00304734 0.1042 0)
(-0.120512 0.325549 0)
(-0.106181 0.299173 0)
(-0.11181 0.312697 0)
(-0.0183428 0.135399 0)
(-0.0302334 0.163508 0)
(-0.0320293 0.163412 0)
(-0.139851 0.352701 0)
(-0.12054 0.31932 0)
(-0.129381 0.338202 0)
(-0.200106 0.443568 0)
(-0.207463 0.456725 0)
(-0.213292 0.465315 0)
(0.0465865 -0.0578656 0)
(0.0425185 -0.0547558 0)
(0.0484606 -0.0648374 0)
(0.0627017 -0.0708583 0)
(0.063712 -0.0652502 0)
(0.0583401 -0.0556604 0)
(-0.24305 0.510402 0)
(-0.244379 0.512975 0)
(-0.248674 0.520332 0)
(-0.217241 0.471451 0)
(-0.210865 0.466506 0)
(-0.282892 0.565638 0)
(-0.284567 0.572067 0)
(-0.286013 0.569454 0)
(-0.305223 0.576162 0)
(-0.300441 0.575564 0)
(-0.304056 0.578501 0)
(-0.253267 0.470891 0)
(-0.256893 0.480245 0)
(-0.26072 0.483944 0)
(-0.221294 0.411868 0)
(-0.231503 0.429208 0)
(-0.225695 0.416022 0)
(-0.169369 0.309859 0)
(-0.16632 0.300341 0)
(-0.156896 0.287388 0)
(-0.125212 0.248011 0)
(-0.122296 0.244188 0)
(-0.12833 0.254386 0)
(-0.0871659 0.181777 0)
(-0.0875034 0.181568 0)
(-0.0840894 0.175647 0)
(-0.0596155 0.131727 0)
(-0.0549218 0.123675 0)
(-0.0630947 0.13965 0)
(-0.0708177 0.155127 0)
(-0.0619882 0.139012 0)
(-0.0323954 0.0835609 0)
(-0.0388138 0.0977096 0)
(-0.0391568 0.096179 0)
(-0.0104884 0.026519 0)
(-0.0116954 0.0320472 0)
(-0.0119472 0.0316384 0)
(-0.031619 0.0801557 0)
(0.00987863 0.0786115 0)
(-0.001233 0.105569 0)
(0.0338802 0.0265182 0)
(0.0229473 0.0516467 0)
(0.0317116 0.0258356 0)
(-0.105575 0.308779 0)
(-0.10737 0.309611 0)
(-0.0968951 0.291203 0)
(-0.0654988 0.239901 0)
(-0.0570153 0.224058 0)
(-0.0625432 0.235403 0)
(-0.124775 0.336576 0)
(-0.199966 0.452086 0)
(-0.200181 0.451305 0)
(-0.203647 0.461939 0)
(0.0747143 -0.114379 0)
(0.0712963 -0.113019 0)
(0.075363 -0.122178 0)
(0.057869 -0.0691124 0)
(0.0603903 -0.0793792 0)
(0.0630685 -0.0792787 0)
(0.0723455 -0.102707 0)
(0.0769545 -0.108924 0)
(0.0735044 -0.0974629 0)
(-0.241399 0.51844 0)
(-0.246972 0.526653 0)
(-0.244253 0.516381 0)
(-0.264554 0.540241 0)
(-0.259551 0.538315 0)
(-0.265173 0.545625 0)
(-0.224924 0.500282 0)
(-0.227427 0.495015 0)
(-0.232043 0.504627 0)
(-0.266128 0.533672 0)
(-0.272068 0.54549 0)
(-0.27008 0.539755 0)
(-0.269539 0.573833 0)
(-0.267801 0.572367 0)
(-0.267523 0.572712 0)
(-0.303826 0.571612 0)
(-0.305882 0.569479 0)
(-0.301852 0.566375 0)
(-0.282031 0.513632 0)
(-0.278903 0.503621 0)
(-0.275267 0.500845 0)
(-0.238398 0.421225 0)
(-0.244674 0.435623 0)
(-0.245921 0.435331 0)
(-0.21389 0.389927 0)
(-0.218213 0.394665 0)
(-0.208823 0.378874 0)
(-0.22434 0.410709 0)
(-0.219398 0.400608 0)
(-0.170947 0.316067 0)
(-0.179215 0.328328 0)
(-0.131148 0.246976 0)
(-0.122493 0.232967 0)
(-0.127651 0.243396 0)
(-0.0832782 0.1734 0)
(-0.0798265 0.167643 0)
(-0.0473953 0.109703 0)
(-0.0456448 0.104225 0)
(-0.0794394 0.168277 0)
(-0.073136 0.15598 0)
(-0.075271 0.161239 0)
(-0.0239249 0.0600318 0)
(-0.0193593 0.0495996 0)
(-0.0210053 0.0547408 0)
(-0.00638437 0.0253773 0)
(-0.00999644 0.0266402 0)
(-0.0163883 0.0430644 0)
(-0.013213 0.0341639 0)
(-0.0129789 0.034128 0)
(0.0149068 -0.0330983 0)
(0.0127818 -0.0344506 0)
(0.0193555 -0.041608 0)
(0.020799 0.062006 0)
(0.00965796 0.0845546 0)
(0.0110221 0.0863122 0)
(0.0200718 0.0672108 0)
(0.0666113 -0.0515907 0)
(0.0621373 -0.0460591 0)
(0.0696812 -0.0669713 0)
(-0.112986 0.322723 0)
(-0.108465 0.315782 0)
(-0.112729 0.323951 0)
(-0.11601 0.323705 0)
(-0.0852805 0.276247 0)
(-0.0786145 0.263111 0)
(-0.0780542 0.263414 0)
(-0.0512547 0.213811 0)
(-0.049082 0.208626 0)
(-0.137778 0.361908 0)
(-0.144716 0.37513 0)
(-0.143105 0.369173 0)
(-0.162866 0.408675 0)
(-0.157072 0.398983 0)
(-0.160171 0.405785 0)
(-0.191407 0.44569 0)
(-0.201937 0.459877 0)
(-0.202694 0.465807 0)
(-0.209778 0.475099 0)
(-0.210395 0.472504 0)
(0.0221723 -0.0361098 0)
(0.0188205 -0.0263293 0)
(0.0174979 -0.0294946 0)
(0.0550107 -0.0844546 0)
(0.0566514 -0.0942162 0)
(0.0619894 -0.100116 0)
(0.060811 -0.0905829 0)
(0.063568 -0.0904782 0)
(0.0596475 -0.0830754 0)
(0.0673731 -0.0911196 0)
(0.0646261 -0.087785 0)
(0.0678122 -0.097274 0)
(-0.237248 0.50448 0)
(-0.232155 0.49355 0)
(-0.226104 0.49382 0)
(-0.258492 0.542173 0)
(-0.250926 0.535984 0)
(-0.250411 0.537847 0)
(-0.258506 0.542382 0)
(-0.229104 0.506713 0)
(-0.231341 0.509647 0)
(-0.268175 0.568255 0)
(-0.272733 0.566995 0)
(-0.268611 0.568127 0)
(-0.265873 0.571431 0)
(-0.267321 0.572627 0)
(-0.26968 0.573765 0)
(-0.268833 0.573479 0)
(-0.299697 0.560189 0)
(-0.297445 0.562046 0)
(-0.282412 0.526416 0)
(-0.28798 0.536331 0)
(-0.286637 0.530243 0)
(-0.276044 0.493268 0)
(-0.268892 0.480651 0)
(-0.279132 0.494351 0)
(-0.257001 0.458749 0)
(-0.251895 0.445006 0)
(-0.250858 0.447343 0)
(-0.18893 0.338907 0)
(-0.19222 0.340897 0)
(-0.184397 0.32714 0)
(-0.133398 0.24715 0)
(-0.122348 0.230181 0)
(-0.147049 0.262093 0)
(-0.146257 0.263923 0)
(-0.156586 0.280685 0)
(-0.0883484 0.177241 0)
(-0.0871823 0.175962 0)
(-0.0917709 0.183932 0)
(-0.102026 0.200484 0)
(-0.105923 0.206352 0)
(-0.100292 0.196423 0)
(-0.0697929 0.146784 0)
(-0.071104 0.149945 0)
(-0.0736048 0.154212 0)
(-0.0481834 0.11342 0)
(-0.0405885 0.0968156 0)
(-0.0515516 0.114832 0)
(-0.0609916 0.133115 0)
(-0.053193 0.116613 0)
(-0.0438225 0.0974833 0)
(-0.0414002 0.0938178 0)
(-0.0226582 0.0554628 0)
(-0.0283831 0.0690556 0)
(-0.0274927 0.0658378 0)
(-0.0133422 0.0193952 0)
(-0.010266 0.0169017 0)
(-0.0122114 0.0200578 0)
(-0.0140428 0.0381134 0)
(-0.0176763 0.0483115 0)
(-0.00808518 0.0199873 0)
(-0.00959767 0.0210594 0)
(-0.00919482 0.018119 0)
(-0.0158984 0.0405238 0)
(-0.019791 0.0497017 0)
(-0.0172142 0.0428348 0)
(-0.0071355 0.000185135 0)
(-0.00625302 0.00307379 0)
(-0.013581 0.0112721 0)
(-0.0276618 0.169673 0)
(-0.0204351 0.155494 0)
(-0.0254872 0.166066 0)
(-0.00269029 0.118543 0)
(0.00668356 0.0984527 0)
(0.00224037 0.109497 0)
(0.0501267 -0.00964846 0)
(0.0587777 -0.0316687 0)
(0.0547456 -0.0164942 0)
(-0.115249 0.329374 0)
(-0.122083 0.341037 0)
(-0.118409 0.333424 0)
(-0.0883473 0.277726 0)
(-0.0915133 0.285532 0)
(-0.0976037 0.295293 0)
(-0.0617688 0.23016 0)
(-0.0537039 0.213159 0)
(-0.052507 0.21357 0)
(-0.0475505 0.207618 0)
(-0.0450201 0.201597 0)
(-0.152119 0.391078 0)
(-0.147883 0.38524 0)
(-0.154706 0.396523 0)
(-0.141134 0.371228 0)
(-0.141728 0.374127 0)
(-0.146748 0.381388 0)
(-0.152192 0.38914 0)
(-0.167271 0.412677 0)
(-0.170429 0.419155 0)
(-0.191845 0.449979 0)
(-0.196762 0.45841 0)
(-0.195778 0.452947 0)
(-0.1918 0.453662 0)
(-0.193951 0.458586 0)
(-0.20071 0.466466 0)
(-0.201284 0.469052 0)
(-0.203322 0.473328 0)
(-0.205609 0.47887 0)
(-0.205313 0.478222 0)
(-0.00803091 -0.0190292 0)
(0.000946376 -0.0311907 0)
(-0.00634239 -0.017412 0)
(0.0352557 -0.0973467 0)
(0.0343879 -0.100233 0)
(0.0409544 -0.107318 0)
(0.067741 -0.127653 0)
(0.0619293 -0.120885 0)
(0.0634742 -0.127054 0)
(0.0881231 -0.129794 0)
(0.0910365 -0.13474 0)
(0.0883688 -0.124616 0)
(-0.233182 0.521655 0)
(-0.230578 0.520049 0)
(-0.232893 0.523302 0)
(-0.27417 0.560554 0)
(-0.272881 0.561643 0)
(-0.275088 0.561103 0)
(-0.206903 0.482144 0)
(-0.209711 0.485374 0)
(-0.264656 0.570083 0)
(-0.262595 0.569405 0)
(-0.264468 0.570631 0)
(-0.262519 0.568247 0)
(-0.261672 0.568514 0)
(-0.263129 0.569026 0)
(-0.27165 0.57437 0)
(-0.270857 0.573911 0)
(-0.274196 0.575094 0)
(-0.266984 0.570856 0)
(-0.266967 0.569484 0)
(-0.265937 0.570835 0)
(-0.30532 0.587048 0)
(-0.313367 0.590455 0)
(-0.310553 0.589187 0)
(-0.320406 0.591015 0)
(-0.325165 0.591785 0)
(-0.322116 0.589926 0)
(-0.277928 0.488492 0)
(-0.274297 0.479675 0)
(-0.269054 0.468947 0)
(-0.224295 0.385802 0)
(-0.213497 0.361182 0)
(-0.212914 0.364329 0)
(-0.148221 0.260856 0)
(-0.161995 0.284135 0)
(-0.149984 0.260297 0)
(-0.134476 0.228211 0)
(-0.122029 0.207826 0)
(-0.131711 0.226451 0)
(-0.133757 0.243364 0)
(-0.12343 0.227158 0)
(-0.0736928 0.147695 0)
(-0.076292 0.153402 0)
(-0.0778633 0.155563 0)
(-0.0745332 0.150985 0)
(-0.0717435 0.144974 0)
(-0.0698563 0.142231 0)
(-0.0330013 0.0782548 0)
(-0.0374053 0.0866292 0)
(-0.0301072 0.0706591 0)
(-0.0332898 0.0765208 0)
(-0.0355947 0.0803737 0)
(-0.0286383 0.0654377 0)
(-0.0470598 0.103023 0)
(-0.0263206 0.06127 0)
(-0.00962832 0.0140257 0)
(-0.00537374 0.00856448 0)
(-0.00731849 0.0136952 0)
(-0.0104089 0.0191099 0)
(-0.0133125 0.0220744 0)
(-0.0108665 0.0207833 0)
(-0.00806351 0.0191037 0)
(-0.00828179 0.0181135 0)
(-0.00946432 0.0226912 0)
(-0.00960865 0.0194104 0)
(-0.00854342 0.0167678 0)
(-0.00781889 0.0192473 0)
(-0.00918146 0.0226867 0)
(-0.00958752 0.024261 0)
(-0.05314 0.0703176 0)
(-0.0647713 0.0901324 0)
(-0.0603251 0.0796732 0)
(-0.0140525 0.143357 0)
(-0.012032 0.138161 0)
(-0.0115531 0.138976 0)
(-0.0182113 0.152066 0)
(0.00628985 0.102154 0)
(0.0135397 0.0869874 0)
(0.00979925 0.0957541 0)
(0.00216603 0.111483 0)
(0.0654918 -0.037453 0)
(0.0641541 -0.0306465 0)
(0.0596184 -0.0199637 0)
(0.0441876 0.0204865 0)
(0.0414808 0.0263424 0)
(0.0486765 0.00864169 0)
(-0.0828809 0.265104 0)
(-0.076804 0.256164 0)
(-0.087085 0.278503 0)
(-0.0412077 0.195062 0)
(-0.136494 0.364077 0)
(-0.130343 0.352381 0)
(-0.13189 0.356814 0)
(-0.17158 0.417675 0)
(-0.162795 0.403418 0)
(-0.198779 0.465982 0)
(-0.202737 0.473375 0)
(-0.186299 0.437749 0)
(-0.177493 0.429605 0)
(-0.187549 0.442048 0)
(-0.209133 0.478525 0)
(-0.0822573 0.116794 0)
(-0.0922266 0.132042 0)
(-0.0759346 0.102893 0)
(0.0363273 -0.0944765 0)
(0.0329523 -0.08466 0)
(0.0265139 -0.0795708 0)
(0.0501206 -0.129454 0)
(0.0570769 -0.13932 0)
(0.0563173 -0.134618 0)
(0.0788686 -0.136221 0)
(0.0809316 -0.143768 0)
(0.0835418 -0.143106 0)
(0.0816698 -0.0801392 0)
(0.0809557 -0.0803238 0)
(0.084982 -0.0927433 0)
(0.0915003 -0.130007 0)
(0.0939106 -0.139571 0)
(-0.229778 0.513172 0)
(-0.232818 0.518818 0)
(-0.235143 0.517572 0)
(-0.23873 0.524976 0)
(-0.236205 0.521229 0)
(-0.237527 0.525475 0)
(-0.260688 0.550786 0)
(-0.258132 0.550694 0)
(-0.260829 0.553439 0)
(-0.251899 0.54707 0)
(-0.25295 0.546097 0)
(-0.248924 0.543782 0)
(-0.26856 0.560389 0)
(-0.268893 0.561203 0)
(-0.270306 0.560133 0)
(-0.272185 0.560986 0)
(-0.27253 0.561335 0)
(-0.273862 0.560386 0)
(-0.26356 0.56803 0)
(-0.264747 0.568201 0)
(-0.266246 0.56829 0)
(-0.269102 0.572491 0)
(-0.273366 0.574516 0)
(-0.29977 0.58481 0)
(-0.304661 0.586281 0)
(-0.297835 0.583951 0)
(-0.287212 0.579596 0)
(-0.2871 0.579816 0)
(-0.281708 0.577895 0)
(-0.328254 0.578605 0)
(-0.322677 0.569449 0)
(-0.324943 0.574235 0)
(-0.312113 0.580692 0)
(-0.307884 0.57966 0)
(-0.309956 0.582244 0)
(-0.297265 0.540407 0)
(-0.302116 0.546334 0)
(-0.298557 0.537844 0)
(-0.257541 0.449837 0)
(-0.252166 0.436766 0)
(-0.266565 0.464958 0)
(-0.284 0.504037 0)
(-0.277256 0.489444 0)
(-0.198028 0.317288 0)
(-0.187111 0.294708 0)
(-0.177749 0.273583 0)
(-0.157708 0.245811 0)
(-0.167596 0.269293 0)
(-0.17524 0.281334 0)
(-0.160825 0.277139 0)
(-0.1736 0.298444 0)
(-0.162156 0.275758 0)
(-0.088345 0.165535 0)
(-0.102265 0.192165 0)
(-0.0983894 0.182396 0)
(-0.101406 0.182365 0)
(-0.113435 0.204664 0)
(-0.115545 0.205265 0)
(-0.0955188 0.182666 0)
(-0.100288 0.19346 0)
(-0.103888 0.197688 0)
(-0.0506124 0.105157 0)
(-0.0507529 0.104789 0)
(-0.0468594 0.0972899 0)
(-0.0852922 0.164314 0)
(-0.0800657 0.153398 0)
(-0.0756782 0.14664 0)
(-0.055826 0.11642 0)
(-0.0526029 0.110501 0)
(-0.0556858 0.116862 0)
(-0.0506576 0.108312 0)
(-0.0462915 0.0989704 0)
(-0.0443303 0.095355 0)
(-0.0367333 0.0820297 0)
(-0.0405196 0.0896615 0)
(-0.0346754 0.0769887 0)
(-0.0303465 0.0665461 0)
(-0.0346691 0.0754492 0)
(-0.0305514 0.0666563 0)
(-0.0189064 0.0433467 0)
(-0.0225425 0.0520465 0)
(-0.0242027 0.055138 0)
(-0.0179826 0.0437869 0)
(-0.0130478 0.031683 0)
(-0.013617 0.0336571 0)
(-0.024173 0.0353753 0)
(-0.0254243 0.0364641 0)
(-0.0213298 0.031276 0)
(-0.0161617 0.0248479 0)
(-0.0175253 0.0265586 0)
(-0.0204335 0.0296035 0)
(-0.00756558 0.019016 0)
(-0.00583363 0.0142934 0)
(-0.00904742 0.0162976 0)
(-0.00986618 0.0218419 0)
(-0.0103777 0.0265147 0)
(-0.00832268 0.0210903 0)
(-0.00948136 0.0233845 0)
(-0.0577022 0.084486 0)
(-0.0675255 0.0995441 0)
(-0.0556487 0.0795962 0)
(-0.00935115 0.130837 0)
(-0.000725206 0.116738 0)
(0.0247798 0.0642637 0)
(0.0252964 0.0623084 0)
(0.0296338 0.0531644 0)
(0.0590471 -0.0151451 0)
(0.0608959 -0.0195829 0)
(0.056762 -0.00909709 0)
(0.0742241 -0.0558063 0)
(0.0777183 -0.0663412 0)
(0.0765787 -0.0626513 0)
(0.0327061 0.0412354 0)
(0.039801 0.0257534 0)
(0.0322633 0.0453548 0)
(-0.12083 0.33526 0)
(-0.125717 0.345878 0)
(-0.0327196 0.179879 0)
(-0.174678 0.427051 0)
(-0.176717 0.430765 0)
(-0.175349 0.424898 0)
(-0.0554179 0.0628612 0)
(-0.0523309 0.05505 0)
(-0.0410607 0.0382969 0)
(-0.0281453 0.000940746 0)
(-0.040676 0.0194851 0)
(-0.023309 -0.0111177 0)
(0.0428028 -0.106622 0)
(0.066979 -0.157728 0)
(0.0635974 -0.156706 0)
(0.0698325 -0.16411 0)
(0.0819916 -0.135016 0)
(0.0785066 -0.129706 0)
(0.0884884 -0.101689 0)
(0.0879814 -0.0997104 0)
(0.0903717 -0.108962 0)
(0.095636 -0.130535 0)
(0.0939677 -0.123369 0)
(0.0956325 -0.130691 0)
(-0.228566 0.517969 0)
(-0.229692 0.517713 0)
(-0.242696 0.534303 0)
(-0.241447 0.532415 0)
(-0.240368 0.533096 0)
(-0.257653 0.54663 0)
(-0.252744 0.544202 0)
(-0.256753 0.547818 0)
(-0.250225 0.548255 0)
(-0.254409 0.549861 0)
(-0.248301 0.545837 0)
(-0.269241 0.561699 0)
(-0.221707 0.505657 0)
(-0.22363 0.509459 0)
(-0.227311 0.512361 0)
(-0.263639 0.567876 0)
(-0.265749 0.568198 0)
(-0.270071 0.573744 0)
(-0.326479 0.590184 0)
(-0.3258 0.590343 0)
(-0.320754 0.58817 0)
(-0.291991 0.581766 0)
(-0.28786 0.580652 0)
(-0.292135 0.582132 0)
(-0.335081 0.589984 0)
(-0.333865 0.588212 0)
(-0.334863 0.58901 0)
(-0.335324 0.601364 0)
(-0.332969 0.600233 0)
(-0.333684 0.600661 0)
(-0.339015 0.604236 0)
(-0.329582 0.598724 0)
(-0.340245 0.604883 0)
(-0.307803 0.545921 0)
(-0.313158 0.553799 0)
(-0.311162 0.553343 0)
(-0.308829 0.546455 0)
(-0.308358 0.545742 0)
(-0.302817 0.536123 0)
(-0.24322 0.423849 0)
(-0.251891 0.433205 0)
(-0.238694 0.407571 0)
(-0.240217 0.408442 0)
(-0.173278 0.266074 0)
(-0.18775 0.296976 0)
(-0.178042 0.275275 0)
(-0.189466 0.317423 0)
(-0.175164 0.288164 0)
(-0.180754 0.303487 0)
(-0.10084 0.110644 0)
(-0.0900609 0.0911357 0)
(-0.105872 0.123212 0)
(-0.118031 0.194053 0)
(-0.130574 0.217393 0)
(-0.125174 0.204883 0)
(-0.123643 0.199256 0)
(-0.114234 0.184185 0)
(-0.102688 0.187556 0)
(-0.0876783 0.159187 0)
(-0.0855764 0.157966 0)
(-0.0985321 0.167332 0)
(-0.110186 0.188546 0)
(-0.107992 0.181641 0)
(-0.115062 0.201518 0)
(-0.102697 0.180431 0)
(-0.0990396 0.176045 0)
(-0.0602101 0.119817 0)
(-0.0572302 0.114803 0)
(-0.0616642 0.123508 0)
(-0.0661542 0.133155 0)
(-0.0637719 0.129237 0)
(-0.0687474 0.138627 0)
(-0.071409 0.137168 0)
(-0.0784299 0.148752 0)
(-0.0665765 0.126618 0)
(-0.046697 0.0983194 0)
(-0.0485497 0.101597 0)
(-0.0446374 0.093787 0)
(-0.0440385 0.0932893 0)
(-0.0396351 0.084396 0)
(-0.0432723 0.0921254 0)
(-0.0371049 0.0810976 0)
(-0.0292912 0.0658593 0)
(-0.0205904 0.0466031 0)
(-0.0327733 0.072285 0)
(-0.0394092 0.0866136 0)
(-0.023214 0.055337 0)
(-0.0097277 0.0231004 0)
(-0.00998148 0.0240126 0)
(-0.0141086 0.0336498 0)
(-0.0152195 0.0236304 0)
(-0.0122946 0.0193594 0)
(-0.0160207 0.0243254 0)
(-0.0536334 0.0794361 0)
(-0.0639744 0.0962722 0)
(-0.00587512 0.0147867 0)
(-0.00495267 0.0105479 0)
(-0.00673576 0.0138305 0)
(-0.00646031 0.0141146 0)
(-0.00491444 0.00860047 0)
(-0.00699285 0.0117617 0)
(-0.00718226 0.0127175 0)
(-0.00550028 0.0138702 0)
(-0.00863907 0.0217681 0)
(-0.0103395 0.0258016 0)
(-0.00678376 0.0169232 0)
(-0.105523 0.158397 0)
(-0.0941914 0.138876 0)
(-0.10296 0.157407 0)
(-0.0457624 0.0603488 0)
(-0.0577598 0.0807863 0)
(0.0210947 0.072091 0)
(0.015412 0.0843851 0)
(0.0189038 0.0760245 0)
(0.0682504 -0.039 0)
(0.0689463 -0.0410969 0)
(0.0715101 -0.0481617 0)
(0.0612791 -0.0215305 0)
(0.0565378 -0.00941222 0)
(0.0752975 -0.0595718 0)
(0.0432084 0.0210901 0)
(0.0483398 0.0108606 0)
(0.0520668 0.00214649 0)
(0.0478795 0.0125324 0)
(-0.0732535 0.102866 0)
(-0.0707948 0.0962307 0)
(-0.0408929 0.0333436 0)
(-0.0328564 0.0219474 0)
(-0.0312152 -0.00050751 0)
(-0.0222587 -0.0191839 0)
(-0.018172 -0.0229476 0)
(0.0343379 -0.121814 0)
(0.0247011 -0.106428 0)
(0.023591 -0.107894 0)
(0.0887661 -0.176233 0)
(0.092984 -0.178081 0)
(0.0900248 -0.174203 0)
(0.0991745 -0.147 0)
(0.0998227 -0.150631 0)
(0.098686 -0.146407 0)
(0.0798546 -0.0725753 0)
(0.0835082 -0.0842843 0)
(0.0818296 -0.0787386 0)
(0.0841093 -0.0861855 0)
(0.0822193 -0.0802695 0)
(0.102257 -0.162173 0)
(0.101275 -0.157567 0)
(0.10202 -0.162308 0)
(-0.226346 0.514265 0)
(-0.238228 0.530838 0)
(-0.2388 0.53257 0)
(-0.253365 0.55315 0)
(-0.260194 0.556506 0)
(-0.256335 0.553992 0)
(-0.24888 0.541982 0)
(-0.267037 0.559348 0)
(-0.264389 0.559173 0)
(-0.266285 0.560151 0)
(-0.278733 0.55952 0)
(-0.278474 0.558807 0)
(-0.277922 0.559018 0)
(-0.229213 0.516092 0)
(-0.273478 0.566646 0)
(-0.268469 0.567921 0)
(-0.268895 0.568016 0)
(-0.316909 0.591462 0)
(-0.314091 0.589898 0)
(-0.325325 0.595475 0)
(-0.329209 0.586877 0)
(-0.33245 0.589437 0)
(-0.318193 0.582007 0)
(-0.337275 0.592562 0)
(-0.336565 0.592156 0)
(-0.335556 0.591041 0)
(-0.337061 0.602585 0)
(-0.336786 0.602825 0)
(-0.338643 0.603626 0)
(-0.342406 0.605503 0)
(-0.331301 0.599303 0)
(-0.342803 0.605602 0)
(-0.314118 0.569874 0)
(-0.311399 0.57035 0)
(-0.30776 0.567002 0)
(-0.312688 0.553422 0)
(-0.310558 0.551774 0)
(-0.318522 0.566681 0)
(-0.281464 0.511139 0)
(-0.278965 0.512481 0)
(-0.272505 0.504157 0)
(-0.272469 0.492934 0)
(-0.276823 0.501495 0)
(-0.26508 0.487875 0)
(-0.228187 0.414235 0)
(-0.218886 0.400577 0)
(-0.21983 0.397481 0)
(-0.224979 0.389282 0)
(-0.215648 0.365934 0)
(-0.234184 0.402599 0)
(-0.183276 0.296509 0)
(-0.1942 0.317789 0)
(-0.194495 0.321306 0)
(-0.135306 0.180348 0)
(-0.134948 0.180717 0)
(-0.124677 0.156896 0)
(-0.137534 0.19762 0)
(-0.131999 0.183583 0)
(-0.120375 0.161535 0)
(-0.151225 0.216253 0)
(-0.158928 0.233425 0)
(-0.164351 0.244404 0)
(-0.0988687 0.16377 0)
(-0.0969659 0.158018 0)
(-0.087664 0.143882 0)
(-0.111772 0.211149 0)
(-0.117628 0.219233 0)
(-0.0833797 0.142166 0)
(-0.0899085 0.156214 0)
(-0.0981357 0.168522 0)
(-0.0700271 0.124638 0)
(-0.0873178 0.154191 0)
(-0.073514 0.128859 0)
(-0.0609009 0.11742 0)
(-0.0542162 0.103599 0)
(-0.0571002 0.115356 0)
(-0.0530006 0.106894 0)
(-0.0395534 0.0814475 0)
(-0.0429652 0.0887101 0)
(-0.0437624 0.0897902 0)
(-0.0629864 0.117455 0)
(-0.0710693 0.131578 0)
(-0.0582701 0.107494 0)
(-0.0506894 0.0948288 0)
(-0.0599865 0.113103 0)
(-0.0432284 0.0912658 0)
(-0.0406386 0.0857018 0)
(-0.0393714 0.0827014 0)
(-0.0373897 0.0789042 0)
(-0.0355851 0.0766532 0)
(-0.0307503 0.0667301 0)
(-0.0380183 0.0821495 0)