/*--------------------------------*- C++ -*----------------------------------*\
| =========                 |                                                 |
| \\      /  F ield         | OpenFOAM: The Open Source CFD Toolbox           |
|  \\    /   O peration     | Version:  v2012                                 |
|   \\  /    A nd           | Website:  www.openfoam.com                      |
|    \\/     M anipulation  |                                                 |
\*---------------------------------------------------------------------------*/
FoamFile
{
    version     2.0;
    format      ascii;
    class       volScalarField;
    location    "0";
    object      k;
}
// * * * * * * * * * * * * * * * * * * * * * * * * * * * * * * * * * * * * * //

dimensions      [0 2 -2 0 0 0 0];


internalField   nonuniform List<scalar> 
6319
(
6.76606e-05
7.01268e-05
6.73201e-05
7.1123e-05
6.8877e-05
6.27756e-05
6.91613e-05
7.31204e-05
7.11577e-05
6.39054e-05
6.99376e-05
7.46091e-05
7.25456e-05
7.12946e-05
6.32483e-05
6.60618e-05
7.29499e-05
6.75217e-05
7.68567e-05
7.42621e-05
7.39133e-05
6.64081e-05
6.75376e-05
7.39535e-05
6.94323e-05
7.85536e-05
7.70014e-05
7.63355e-05
7.53224e-05
6.71146e-05
6.94242e-05
7.18436e-05
7.70956e-05
6.97948e-05
8.07055e-05
7.9715e-05
7.85541e-05
7.79999e-05
7.39358e-05
7.03373e-05
7.14874e-05
7.37519e-05
7.8707e-05
7.21994e-05
8.06995e-05
8.22627e-05
8.15527e-05
8.1115e-05
8.00435e-05
7.78645e-05
7.15486e-05
7.10334e-05
7.3289e-05
7.64752e-05
7.35457e-05
8.20512e-05
7.82403e-05
8.31363e-05
8.42203e-05
8.43858e-05
8.34595e-05
8.26456e-05
7.96002e-05
7.81694e-05
7.40255e-05
6.90681e-05
7.2703e-05
7.51976e-05
7.84084e-05
7.58889e-05
8.409e-05
8.16664e-05
8.48226e-05
8.60158e-05
8.67476e-05
8.59422e-05
8.46366e-05
8.20561e-05
8.17123e-05
7.58976e-05
7.12645e-05
7.3487e-05
7.70325e-05
7.80441e-05
8.12424e-05
8.52012e-05
8.16045e-05
8.81789e-05
8.83997e-05
8.9198e-05
8.7773e-05
8.46403e-05
8.78582e-05
8.44253e-05
7.70204e-05
7.32381e-05
7.58594e-05
7.9514e-05
8.06784e-05
8.41415e-05
8.80743e-05
8.53692e-05
8.97322e-05
9.0582e-05
9.01404e-05
9.03644e-05
8.78164e-05
9.13823e-05
8.80273e-05
7.94403e-05
7.4928e-05
7.7105e-05
8.06615e-05
8.32437e-05
8.63143e-05
9.03848e-05
8.89989e-05
8.75939e-05
9.27264e-05
9.38951e-05
9.28465e-05
9.28216e-05
9.096e-05
9.4746e-05
9.15837e-05
8.09396e-05
7.71233e-05
7.42729e-05
7.96596e-05
8.33164e-05
8.51225e-05
8.85571e-05
9.30856e-05
9.24777e-05
9.0312e-05
9.53194e-05
9.67117e-05
9.51198e-05
9.56429e-05
9.39535e-05
9.58565e-05
9.83557e-05
9.5196e-05
8.33867e-05
7.91704e-05
7.78705e-05
8.11366e-05
8.41603e-05
8.78737e-05
9.03264e-05
8.96845e-05
9.42004e-05
9.48857e-05
9.36868e-05
9.71067e-05
9.78897e-05
0.000100575
9.77272e-05
9.98309e-05
9.78886e-05
0.000100578
0.00010175
9.9211e-05
8.52567e-05
7.91853e-05
7.88952e-05
8.37849e-05
8.71651e-05
8.91149e-05
8.97748e-05
9.28627e-05
9.27359e-05
9.70916e-05
9.7329e-05
9.69189e-05
0.000101002
0.000100917
0.00010422
0.000100026
0.000103721
0.000101571
0.000103625
0.00010555
0.00010031
0.000102139
8.6026e-05
8.79247e-05
8.17186e-05
8.20472e-05
8.40045e-05
9.20277e-05
9.32532e-05
9.51268e-05
9.45701e-05
9.77502e-05
9.97173e-05
9.92961e-05
9.77609e-05
0.000101515
0.000103817
0.00010338
0.000107632
0.000102263
0.000108635
0.000106007
0.000108197
0.000108266
0.000106142
0.000106548
8.89992e-05
9.08237e-05
8.42103e-05
8.70357e-05
9.45291e-05
9.58558e-05
9.64222e-05
9.62424e-05
9.58231e-05
0.00010009
0.000103205
0.000101312
0.000101749
0.000105183
0.000106907
0.000105785
0.000104158
0.000110422
0.000109541
0.000103086
0.000114097
0.000109632
0.000112642
0.000114683
0.000109868
9.08736e-05
9.38424e-05
8.68757e-05
8.45479e-05
9.01398e-05
9.84203e-05
9.5506e-05
9.89557e-05
9.88732e-05
9.83915e-05
9.86127e-05
0.000100975
0.000101887
0.000107637
0.000102009
0.000100278
0.000106952
0.000110304
0.000108118
0.000106856
0.000114127
0.000114318
0.000105419
0.000120195
0.000114624
0.000117889
0.000118678
0.000115597
9.52164e-05
9.67161e-05
8.98728e-05
8.89885e-05
9.34996e-05
0.000101769
0.000100405
0.000101811
0.000100438
0.000100125
0.000100693
0.000102832
0.000104819
0.000111199
0.000104259
0.000104717
0.000109679
0.000113166
0.000110664
0.000108715
0.000107437
0.000117434
0.000118313
0.000105908
0.000121675
0.000126096
0.000124833
0.000125886
0.000121269
9.81664e-05
0.000100714
9.28874e-05
9.11864e-05
9.70397e-05
0.000103436
0.00010522
0.000104372
0.000102476
0.00010196
0.000102819
0.000104518
0.000109336
0.000114618
0.000103281
0.000111763
0.000117379
0.000113469
0.000111143
0.000109733
0.00012161
0.000122358
0.000108099
0.000127808
0.000133934
0.000132407
0.000124513
0.000132361
0.000129147
0.00010296
0.000105027
9.58919e-05
9.54963e-05
9.98301e-05
0.000108039
0.000108556
0.000105717
0.000106003
0.000103598
0.000103706
0.000105312
0.00010631
0.000112997
0.000118535
0.000107964
0.000114887
0.000120059
0.000115352
0.000113255
0.000110854
0.00012555
0.000128439
0.000108267
0.000109507
0.000132863
0.000144366
0.000142176
0.000132865
0.000141619
0.000138906
0.000106061
0.00010397
0.000109594
9.96665e-05
9.8924e-05
0.000110436
0.000110994
0.000111728
0.00010893
0.000108536
0.000105666
0.000105898
0.000107077
0.000107228
0.00011385
0.000120991
0.000107402
0.000118142
0.000123618
0.000118065
0.000114697
0.000114542
0.000113379
0.00011023
0.000129581
0.000134067
0.000109921
0.000110842
0.000139148
0.000153352
0.000150605
0.000140497
0.000150032
0.000154076
0.000111419
0.00010887
0.000114327
0.000103336
0.000102994
0.000114573
0.000116758
0.000112545
0.000115397
0.000111128
0.000110327
0.000106662
0.000106742
0.000107688
0.000109147
0.000111333
0.000122155
0.000126925
0.000112675
0.000120856
0.00012525
0.000120362
0.000118746
0.000117212
0.000116836
0.000114517
0.000112271
0.00013319
0.000131204
0.000137265
0.000111736
0.00010932
0.000146897
0.000165651
0.000150871
0.000162808
0.000150481
0.000161365
0.000163755
0.000116202
0.000113771
0.000107196
0.000119198
0.000106277
0.000118497
0.000120298
0.000115866
0.000119196
0.000112972
0.000112964
0.000108626
0.000108467
0.000109924
0.000110845
0.00012193
0.000129155
0.000111705
0.000121515
0.000128369
0.000123196
0.000120835
0.000118022
0.000117815
0.000116626
0.000113803
0.000137808
0.000134618
0.000144679
0.000113447
0.000113771
0.000153186
0.000168793
0.000173116
0.000164295
0.000172603
0.000164938
0.000187886
0.000123747
0.000117691
0.000109539
0.000124034
0.000110319
0.000123297
0.000126355
0.000115487
0.000118514
0.000123476
0.000119744
0.000114883
0.000110259
0.000110114
0.000111205
0.000112751
0.000127743
0.000136327
0.000118569
0.000126138
0.000128862
0.000122377
0.000125816
0.000121522
0.00012023
0.000119803
0.000117576
0.000115154
0.000138203
0.000142268
0.000133288
0.000151646
0.000145212
0.000112236
0.000115011
0.000126075
0.000181656
0.00018679
0.000170085
0.000187872
0.000194836
0.000127986
0.00012596
0.000114119
0.000123332
0.000129636
0.000118726
0.000127609
0.000129424
0.00011758
0.000121148
0.000127562
0.000124211
0.000114305
0.000117281
0.00011147
0.000111574
0.000111349
0.000113467
0.000138513
0.000118884
0.000127555
0.000124477
0.000127341
0.000123435
0.000120819
0.000120668
0.000116799
0.000119778
0.000115549
0.000141791
0.000146242
0.000135959
0.000114656
0.000116128
0.000134489
0.000192978
0.000204502
0.00019549
0.000217524
0.00013785
0.000133077
0.000115869
0.000128625
0.00013696
0.000132728
0.000132462
0.00013562
0.000120111
0.00012428
0.000126752
0.000132736
0.00012598
0.000116821
0.000119054
0.00011398
0.000113378
0.000112204
0.000115148
0.000148221
0.000138464
0.000107088
0.000130701
0.000126482
0.000129841
0.000127956
0.000124314
0.000122742
0.000122739
0.00011812
0.000120958
0.000117281
0.000141014
0.000134453
0.000116938
0.000116012
0.000117725
0.000134008
0.000233602
0.00023826
0.000221938
0.000143829
0.000138574
0.000135452
0.000126109
0.000141497
0.000139522
0.000137753
0.000121916
0.000126311
0.00013163
0.000136375
0.000130044
0.000117193
0.000121274
0.000115204
0.000114871
0.000114207
0.000115795
0.000151559
0.000140445
0.000111208
0.000127402
0.000131939
0.000130402
0.000126258
0.000124287
0.000119507
0.000122697
0.000120707
0.000137962
0.000122813
0.0001184
0.000118907
0.000160831
0.000285747
0.00030347
0.000155757
0.00014705
0.000145086
0.00014964
0.000157026
0.000143776
0.000124497
0.000129682
0.000132897
0.000141168
0.00013172
0.000118949
0.000123008
0.000117266
0.000116579
0.000115923
0.000116432
0.000111652
0.000167553
0.000129679
0.000134397
0.000131332
0.000127185
0.000126105
0.000124099
0.000119579
0.000123167
0.000121955
0.00013684
0.000131738
0.000119612
0.000119648
0.000163841
0.000155874
0.000163647
0.000149781
0.000162945
0.000150938
0.000158102
0.000170703
0.000144515
0.000125708
0.000131307
0.000138174
0.000143394
0.000135659
0.00012065
0.000123343
0.000117796
0.000117021
0.000117523
0.000116696
0.000117523
0.000116121
0.000169953
0.00013027
0.000135582
0.000133798
0.000129039
0.000127332
0.00012585
0.000120964
0.000124445
0.000122065
0.000163135
0.00013664
0.000120712
0.000120219
0.000120912
0.000168398
0.00017675
0.000166303
0.000183378
0.000158919
0.000169175
0.00020283
0.000150992
0.000127962
0.000130265
0.000134415
0.000139162
0.000149566
0.000136739
0.000122345
0.000120813
0.000125922
0.000119624
0.000118575
0.000118914
0.000118248
0.000119195
0.000119927
0.000164032
0.000181929
0.000131983
0.000134601
0.000129367
0.000127391
0.000126084
0.000124107
0.000125589
0.00012319
0.000123087
0.000178138
0.000121933
0.000121643
0.000122011
0.000177926
0.000184137
0.000185969
0.000183098
0.000224311
0.000219237
0.000127774
0.000132428
0.000135282
0.00012392
0.000122517
0.000125903
0.000120173
0.000119538
0.000118755
0.000119197
0.000120164
0.000114749
0.000178285
0.000133613
0.000130879
0.000129085
0.000127529
0.000125197
0.000126538
0.000123559
0.000133888
0.000189079
0.000122306
0.000124767
0.000123081
0.000201604
0.000213107
0.000243409
0.00012976
0.000131776
0.000137777
0.00012372
0.000123041
0.000127491
0.000121529
0.000120739
0.000120155
0.000120475
0.000121847
0.0001226
0.000229025
0.000134766
0.000131864
0.000130612
0.000128452
0.000127699
0.000126346
0.000124857
0.000123851
0.000156639
0.000123479
0.000126628
0.000247877
0.000288504
0.000129561
0.000133535
0.000138189
0.000125338
0.000122819
0.000124595
0.000126715
0.000121378
0.000121396
0.000120702
0.000120885
0.000122667
0.000130199
0.000225244
0.000133848
0.000131628
0.000131518
0.000129416
0.000128663
0.000127372
0.000125603
0.000125044
0.000181248
0.00012441
0.000124637
0.000129066
0.000306397
0.000131177
0.000135189
0.000137111
0.000125539
0.000123881
0.000125018
0.000128127
0.000122615
0.000122358
0.000121828
0.000121954
0.000126428
0.000146095
0.000239796
0.000134906
0.000133527
0.000132949
0.000130621
0.000129258
0.00012837
0.000127063
0.000126534
0.000125666
0.000187688
0.000125338
0.000126211
0.00012705
0.000136126
0.000365739
0.000131167
0.000134767
0.00012703
0.000124083
0.000126141
0.00012973
0.000123555
0.000123181
0.000122504
0.000122698
0.000127984
0.000139096
0.000264956
0.000133992
0.000133473
0.000131172
0.000130441
0.000128967
0.000128794
0.000127979
0.000126989
0.000126815
0.000162423
0.000126371
0.00012976
0.000137747
0.00013331
0.000127461
0.000125571
0.000130474
0.000124336
0.000123418
0.000123327
0.000123386
0.00012318
0.000135825
0.000159453
0.000259676
0.000135146
0.000133414
0.000132366
0.000130771
0.000129939
0.000129825
0.000128779
0.000127915
0.000127624
0.000205104
0.000127413
0.00012838
0.000146456
0.000133701
0.000128835
0.000126337
0.000132251
0.000129955
0.000125387
0.000124516
0.000124224
0.000125714
0.000124071
0.000138531
0.000151166
0.000295598
0.000134614
0.000132312
0.000131616
0.00013063
0.000129743
0.00012861
0.000127804
0.000128533
0.000186339
0.000130484
0.000140279
0.000129158
0.000127586
0.000132548
0.000131253
0.00012575
0.000125275
0.000124758
0.000124874
0.000128217
0.000135748
0.000173806
0.000299048
0.000135609
0.000134237
0.000133306
0.000131964
0.00013062
0.000131625
0.000129499
0.00012883
0.000129245
0.000223041
0.00012836
0.000135728
0.000145801
0.000128554
0.000130373
0.000127614
0.000133852
0.00013144
0.000126805
0.000125953
0.000125766
0.000125964
0.000129993
0.000141626
0.000135448
0.000313294
0.000135038
0.000133037
0.000131424
0.000132385
0.000130118
0.000129524
0.00012989
0.000140648
0.000394171
0.000131477
0.000137308
0.000145114
0.000129414
0.000128512
0.000134146
0.000132729
0.000126879
0.000126239
0.000126354
0.000126086
0.000126582
0.000139702
0.00017956
0.000135139
0.000133704
0.000131416
0.000132193
0.00013328
0.000130853
0.000130345
0.000130354
0.000187347
0.000395857
0.000132128
0.000138951
0.000130074
0.000128348
0.000129324
0.000132334
0.000127687
0.000127278
0.000127295
0.000128087
0.000127694
0.000140189
0.000193974
0.000134582
0.000133705
0.000132069
0.000132833
0.000133697
0.000130887
0.000130665
0.000131036
9.17634e-05
0.000400105
0.000360488
0.000133671
0.000151375
0.000131246
0.000129105
0.000129751
0.000133356
0.000127937
0.000127581
0.000127808
0.00012788
0.000130021
0.000128321
0.000143075
9.49581e-05
0.000135056
0.000134546
0.000132565
0.000132357
0.000133492
0.000134435
0.00013149
0.000131388
0.000132439
0.000129837
0.000424549
0.000365465
0.000134565
0.000134548
0.000150776
0.000131296
0.000129278
0.000130552
0.000132914
0.000128816
0.000128448
0.000128547
0.000128786
0.000131967
0.000129424
0.000146153
0.000120669
0.00013584
0.000134908
0.000133063
0.000132942
0.00013211
0.000133884
0.000134467
0.00013212
7.97485e-05
0.000274014
0.000597841
0.000169802
0.000136005
0.000138409
0.000151867
0.000132162
0.000130093
0.000130679
0.000133523
0.000129116
0.000128969
0.000128817
0.000129642
0.000130901
0.000134895
0.000147445
0.000108266
0.000136242
0.0001357
0.000133626
0.000133305
0.000132638
0.000134
0.000134977
0.000133045
9.67271e-05
0.000305447
0.000573159
0.000219982
0.000136686
0.000141249
0.000152707
0.000132093
0.000130333
0.000131484
0.000133632
0.000129805
0.000129785
0.000129581
0.000130889
0.000132869
0.000135717
0.000148273
0.000107177
0.000135778
0.000133791
0.000133539
0.000133525
0.000134595
0.000135473
0.000134356
0.000104234
0.000454853
0.000709856
0.000336159
0.000140041
0.000135623
0.000142388
0.000150411
0.00013291
0.000131113
0.000131712
0.000130045
0.00013063
0.000129842
0.00012995
0.000131252
0.000132714
0.000137341
0.000139613
0.00015797
0.000117541
0.000136453
0.00013434
0.00013428
0.000134514
0.000134799
0.000135776
0.00013514
0.000116862
0.000408865
0.000741822
0.000343336
0.00014075
0.000138194
0.000145516
0.000155256
0.000133026
0.000131233
0.000132465
0.000130789
0.000131478
0.000130531
0.000130579
0.000132989
0.000134724
0.000136895
0.000143552
0.000152421
0.000103214
0.000136306
0.000134783
0.000134859
0.000135614
0.000135446
0.000135754
0.000137042
0.000140273
0.000785021
0.000608998
0.000142857
0.000138648
0.000146507
0.00016268
0.000150297
0.000133803
0.000131975
0.000132775
0.000131044
0.00013115
0.000132643
0.000133782
0.000134876
0.000138865
0.000146772
0.00014139
0.000159961
0.000134386
0.000136628
0.000135334
0.000135744
0.000135434
0.000137573
0.000135742
0.000136278
0.000138348
0.000132332
0.000770925
0.000615962
0.000142544
0.000145255
0.000141081
0.000150133
0.000153822
0.000133975
0.000132536
0.000132074
0.000133583
0.000131642
0.00013192
0.000133374
0.000135934
0.000137687
0.000138812
0.000148839
0.000142539
0.000157395
0.000152835
0.000136628
0.000135833
0.000137199
0.000136951
0.000138636
0.000136284
0.000136511
0.000140931
0.000340632
9.97634e-05
0.000807774
0.000535933
0.000144709
0.000146889
0.000141446
0.000163026
0.000151586
0.000133083
0.000132734
0.0001339
0.000131939
0.000132764
0.000134566
0.000136882
0.000138242
0.00014828
0.000149876
0.000144316
0.000164299
0.000119941
0.000137055
0.000137006
0.000138311
0.00014062
0.000136778
0.000137011
0.000142389
0.000467912
0.000164184
0.0012319
0.000690125
0.000144908
0.000149271
0.00014245
0.000161866
0.000154322
0.000133225
0.000133706
0.000132911
0.000132723
0.00013365
0.000136035
0.000134837
0.000139162
0.000140671
0.000150808
0.000153999
0.000144533
0.000161828
0.000186899
0.000137051
0.000137415
0.000138076
0.000140607
0.000141308
0.000142306
0.000137895
0.000137599
0.000143051
0.000733419
0.000159168
0.00118871
0.000146738
0.000150266
0.000174105
0.000156444
0.000153326
0.000133845
0.000134209
0.000133786
0.000133564
0.000138159
0.000136101
0.00014048
0.000139927
0.000143286
0.000150635
0.000152311
0.000147794
0.000178664
0.000248133
0.000137489
0.000138854
0.000139911
0.000141449
0.00014384
0.000144187
0.000139172
0.00013816
0.000138065
0.000145687
0.00081821
0.00018113
0.00142488
0.000148573
0.000146477
0.000150076
0.000167741
0.000158613
0.000155613
0.000134494
0.000134198
0.000134757
0.000134221
0.000134445
0.000134903
0.000138338
0.00013629
0.00014303
0.000142185
0.000144891
0.000154516
0.000154019
0.000149575
0.000175053
0.000422671
0.000140054
0.000140465
0.000142707
0.000145211
0.000145629
0.00014061
0.000139398
0.00013866
0.000146571
0.00158447
0.000466357
0.000140249
0.000149919
0.000149184
0.000152584
0.000173859
0.000161758
0.000155214
0.000135138
0.000134769
0.000135296
0.000135097
0.000135544
0.000140278
0.000137721
0.000143751
0.000143035
0.000147024
0.000154088
0.000154803
0.000149135
0.000198905
0.000248807
0.000141937
0.000142498
0.00014433
0.00014499
0.000146981
0.000147329
0.000140778
0.000142198
0.000139822
0.000139455
0.000148472
0.00163265
0.000750616
0.000157856
0.000152305
0.000150562
0.000173559
0.000161162
0.000157896
0.00013582
0.000135299
0.000135766
0.000136814
0.00014216
0.000140377
0.000139592
0.000137796
0.000145932
0.000145256
0.000147682
0.000156417
0.000161495
0.000151825
0.000180657
0.000415933
0.000143163
0.000146078
0.00014693
0.000147727
0.000147967
0.000148899
0.000141967
0.000143819
0.000141301
0.000140612
0.000150137
0.00131725
0.00175927
0.000207453
0.000150777
0.000154055
0.000153406
0.00017451
0.000165135
0.0001574
0.000136806
0.000136064
0.000137482
0.000143643
0.000142855
0.000140904
0.000139956
0.000146648
0.00014627
0.000150117
0.000155607
0.00015652
0.000151828
0.000161729
1.12594e-05
0.000144716
0.000146083
0.00014748
0.000149664
0.000149771
0.000150476
0.000143403
0.000143968
0.00014492
0.000141844
0.00015225
0.00135409
0.00184194
0.000492364
0.000134664
0.000155042
0.000175531
0.000165796
0.000159707
0.000138272
0.000136837
0.00013698
0.000139311
0.00014544
0.000143639
0.000142546
0.000140902
0.000148947
0.000147973
0.000150825
0.000157956
0.000161799
0.000154794
0.000179498
0.000324618
0.000145289
0.000147224
0.000148993
0.000150889
0.000150786
0.000150991
0.000150906
0.000152211
0.000144444
0.000145649
0.000145939
0.000142995
0.000154092
0.00207132
0.00156606
5.88163e-05
0.000154212
0.000157411
0.000176237
0.00016253
0.00015919
0.000138132
0.000139748
0.00013823
0.000140549
0.000140118
0.000146863
0.000145319
0.000143457
0.000142746
0.000149552
0.000149129
0.000153797
0.000161715
0.000160731
0.000156083
0.000167919
0.00031593
0.000146727
0.000148827
0.000150605
0.000149816
0.00015288
0.000152631
0.000152911
0.000152936
0.00015415
0.000145582
0.000144123
0.000146267
0.000147046
0.000156333
0.00199766
0.00183784
0.00032575
0.000129345
0.000158521
0.000178032
0.000164749
0.000162998
0.000139188
0.000141128
0.000139026
0.000142208
0.000142014
0.00014874
0.000146726
0.0001458
0.00014486
0.000143756
0.000151433
0.000151159
0.000154766
0.000161999
0.000165891
0.000159733
6.91895e-05
0.000202532
0.000837041
0.000147529
0.000150207
0.000149748
0.000152508
0.000152267
0.000154667
0.000154257
0.000154683
0.000153521
0.000154499
0.00015642
0.000146564
0.000144953
0.000147606
0.000148496
0.00284349
0.00122747
7.78979e-05
0.000133782
0.000161009
0.000166643
0.000191108
0.000163567
0.000140209
0.000141075
0.000142557
0.000140481
0.000143313
0.000142986
0.000150433
0.000148748
0.00014722
0.000145773
0.000145343
0.00015311
0.000152595
0.000157564
0.000165597
0.000167499
0.000161311
0.000142158
0.000203307
0.000932531
0.000149501
0.000152244
0.000152447
0.000154355
0.000153481
0.000156384
0.000156195
0.000156264
0.000155627
0.000156366
0.000158552
0.000148059
0.000146602
0.000145917
0.000148419
0.000148717
0.000148971
0.000150158
0.00281021
0.00178497
0.000266176
5.40603e-05
0.000162219
0.000170259
0.000179932
0.000166087
0.000141052
0.000142542
0.000143605
0.000144724
0.000144171
0.000152325
0.000150541
0.000148967
0.000147499
0.000145948
0.000155141
0.000154687
0.000157658
0.000160172
0.000166458
0.000170744
0.000165053
0.000173954
0.000190833
0.00194327
0.00015319
0.000154079
0.000156366
0.000155414
0.000158487
0.000158243
0.00015788
0.000156789
0.000158363
0.00016143
0.00014923
0.000148627
0.000150239
0.000150363
0.000150961
0.000151331
0.00332257
0.00106892
0.000112714
0.000165534
0.000172805
0.000168346
0.000194354
0.00014248
0.000143366
0.000144846
0.000144939
0.00014513
0.000154494
0.000152998
0.000150831
0.000148847
0.000147081
0.000156005
0.000159889
0.000162735
0.000170041
0.000166925
0.000430205
0.000181917
0.00209638
0.000154582
0.000154426
0.000155457
0.000158597
0.000156801
0.000156889
0.000159189
0.000160556
0.000160467
0.000159292
0.000158575
0.000159754
0.000163445
0.000151211
0.000149537
0.000151533
0.00015188
0.000152179
0.000152915
0.00332788
0.00172056
0.000188439
8.70447e-05
0.000167547
0.000177094
0.000170581
0.000192511
0.000143213
0.000144594
0.000145555
0.000143017
0.000146451
0.000146744
0.000154893
0.000153737
0.000150659
0.000152767
0.000149212
0.000147415
0.000148829
0.000158398
0.000160219
0.00016221
0.000165558
0.000171535
0.000170516
9.22122e-06
0.00155541
0.000199842
0.000156445
0.000156892
0.000158198
0.000160799
0.00015942
0.000159178
0.000162017
0.000163211
0.000162514
0.000161697
0.000162901
0.0001662
0.000152492
0.000151321
0.000153649
0.000153592
0.000153834
0.000154426
0.00340176
0.00136884
0.000148656
0.000292009
0.000169655
0.000167407
0.000187852
0.00017359
0.000195286
0.00014429
0.000144985
0.000146972
0.000144222
0.000148034
0.000157301
0.000156433
0.000151892
0.000155077
0.000151189
0.000149432
0.000150322
0.000159734
0.000163075
0.000165056
0.000167262
0.000174511
0.000172985
0.000182583
0.00197292
0.000199759
0.000158826
0.000157223
0.000158788
0.000159191
0.000160987
0.000162726
0.0001603
0.0001611
0.000163598
0.000162878
0.000165143
0.000165
0.000163573
0.000164087
0.000167098
0.000152119
0.000154659
0.00015257
0.000155377
0.00015511
0.0001552
0.000156117
0.00379387
0.00325401
6.82252e-05
0.000615065
0.000171328
0.000170213
0.000191186
0.000176867
0.000184909
0.000144977
0.000146519
0.000148182
0.000147643
0.000149853
0.000159112
0.000157926
0.000157218
0.000153969
0.000155477
0.000152857
0.000150384
0.000152374
0.000162191
0.000165437
0.000163774
0.000169582
0.000185061
0.000171935
0.000180251
5.98316e-05
0.00063875
0.00394986
0.000207267
0.000160787
0.000159228
0.000158962
0.000160802
0.0001608
0.000163454
0.000165162
0.000163173
0.000163868
0.000165939
0.000164908
0.000167205
0.000165611
0.000166552
0.000168786
0.000154171
0.00015557
0.000155735
0.000154538
0.000157345
0.000157394
0.000157139
0.000157478
0.00337527
8.81071e-05
0.0021775
0.00017443
0.000171272
0.000190954
0.000183366
0.00017886
0.00014614
0.000147159
0.000150212
0.000149657
0.000151836
0.000162007
0.000160762
0.000159501
0.000154764
0.000158213
0.000153207
0.000152508
0.000153583
0.00016345
0.000168074
0.000166127
0.000170876
0.000175395
0.000185724
7.98443e-05
0.00126245
0.00400054
0.00018952
0.000162518
0.000159556
0.000160861
0.00016139
0.000162465
0.000162483
0.000165154
0.000164261
0.000166752
0.000165777
0.000166458
0.000167397
0.000168828
0.000167919
0.000167733
0.000170189
0.000158494
0.000157662
0.000156182
0.000159135
0.000158166
0.000158489
0.00485459
4.65887e-05
0.00288159
0.000178362
0.000174033
0.00019884
0.00018831
0.000182386
0.000139525
0.000146899
0.000148847
0.000150931
0.000151958
0.000150313
0.000153424
0.000162503
0.000162129
0.000160032
0.000161764
0.000156089
0.000159171
0.000155797
0.00015384
0.000155776
0.000165743
0.000170486
0.000168012
0.000166708
0.000174759
0.000182149
0.000194161
4.26378e-05
0.00318831
0.000476861
0.000177661
0.000165305
0.000161233
0.000163051
0.000162783
0.000164227
0.000165792
0.000167185
0.000166935
0.000168172
0.000165839
0.00016757
0.000168628
0.000169361
0.000170578
0.000168632
0.000168885
0.000169005
0.000168457
0.000172382
0.000159713
0.000158343
0.000159037
0.000157646
0.000161305
0.000160419
0.000160299
0.00492798
0.000142536
0.00484902
0.00171033
0.000178281
0.000186735
0.000175863
0.000194817
0.000144684
9.46707e-05
0.000148511
0.000149424
0.000153317
0.000153885
0.000152055
0.000155607
0.000164736
0.000164804
0.000162635
0.000164519
0.000158064
0.000161769
0.000157274
0.000155807
0.000156808
0.000157198
0.000167121
0.000173442
0.000169708
0.000168853
0.000178694
0.000187756
0.000188315
4.75806e-05
0.0033921
0.0015396
0.000139042
0.000167084
0.000161396
0.000163314
0.00016445
0.000165799
0.000166745
0.000166245
0.000166707
0.000168246
0.000168192
0.000169079
0.000167885
0.000168406
0.000167925
0.000169702
0.000170976
0.000172946
0.000170353
0.000169788
0.000170341
0.000170033
0.000162443
0.000160412
0.000161473
0.00015947
0.000161744
0.000163118
0.000161774
0.00016167
0.00493988
2.17772e-05
0.00501753
0.00305545
0.000184427
0.000192821
0.000181285
0.000193
0.00011788
0.000149758
0.000150856
0.00015409
0.000154529
0.000155426
0.000152355
0.000154263
0.000156249
0.000156929
0.000166774
0.000166404
0.00016477
0.000163381
0.000166152
0.000160025
0.000162862
0.000159669
0.000158966
0.000159616
0.000169472
0.000178754
0.000174411
0.000171989
0.000170135
0.000185406
0.000195619
0.000171276
0.000145074
0.00147336
0.000121012
0.000168265
0.000163118
0.000165107
0.000167487
0.000167493
0.000168383
0.000167498
0.000167529
0.000169204
0.000169285
0.000170199
0.000168729
0.000168662
0.000168569
0.00017096
0.000173153
0.000175878
0.000172402
0.000171213
0.000171984
0.000172099
0.000171963
0.000163364
0.000163452
0.000161165
0.000162012
0.000164247
0.000165086
0.000164088
0.000163416
0.00490131
0.000113242
0.0051254
0.00473327
0.00241508
0.00018501
0.00019104
0.000192625
0.000193725
0.000184201
0.000160916
3.5234e-05
0.000151334
0.000156142
0.000156932
0.000156857
0.000154266
0.00015648
0.000158519
0.000158972
0.000169318
0.000168622
0.000167158
0.000166037
0.000168622
0.000161938
0.000165126
0.000161317
0.000160099
0.00016023
0.000161055
0.000171588
0.000184119
0.00017993
0.000174301
0.000172857
0.000193644
0.000193816
0.000162406
0.000149967
0.000401668
0.0026166
8.97858e-05
0.000169004
0.000164924
0.000167386
0.000168344
0.000168122
0.000168197
0.000168595
0.00016881
0.000170028
0.000171405
0.000170788
0.000171951
0.000172894
0.00016983
0.000170119
0.000170415
0.000171205
0.000174579
0.000174937
0.000176399
0.000182341
0.000178443
0.000176325
0.000175596
0.000175774
0.000175158
0.000166332
0.00016577
0.000163017
0.000164338
0.000165773
0.000166895
0.000165438
0.000165023
0.00487763
0.000562017
0.00555967
0.00504392
0.00440904
0.000193109
0.000195758
0.000197629
0.000188416
0.000192688
0.000110141
7.75685e-06
0.000153002
0.000157286
0.00015915
0.000158689
0.000154459
0.00015614
0.000158677
0.000159888
0.000159603
0.000171616
0.000169852
0.000170099
0.000168884
0.000167387
0.000166678
0.000169569
0.000164048
0.000165895
0.000163315
0.000162403
0.000162626
0.00016358
0.000175252
0.00019159
0.000184227
0.000182384
0.000179099
0.000175549
0.00019129
0.000187237
0.000107497
0.000100681
0.00134578
4.05615e-07
0.000169638
0.000167253
0.000169319
0.000168275
0.000168364
0.000168524
0.000169019
0.000168292
0.000170314
0.000170177
0.000173759
0.000174353
0.00017516
0.000177915
0.000177185
0.000171083
0.000174793
0.000176817
0.000177213
0.000181332
0.000180826
0.000180907
0.000189135
0.000179919
0.000182849
0.000182702
0.000180849
0.000180975
0.000168233
0.000168143
0.000166257
0.000164764
0.000168284
0.000169304
0.000168209
0.000167265
0.00500234
0.0008793
0.00550503
0.00493441
0.0038496
0.000194757
0.000198125
0.000192018
0.000148746
0.000194718
0.000109271
2.16517e-05
5.29604e-05
0.000159308
0.000160684
0.000159697
0.000159987
0.000156042
0.000158256
0.000160508
0.000162107
0.000161859
0.000174725
0.000172563
0.000172897
0.000170995
0.000169419
0.000168749
0.000171905
0.000164473
0.000167896
0.000164763
0.000163801
0.000163662
0.000164247
0.000179572
0.000193702
0.000192757
0.000189057
0.000182395
0.000180288
0.000180605
9.52565e-05
0.00204499
0.000207931
0.000171904
0.000169089
0.000169399
0.00016974
0.000168918
0.00016912
0.000171124
0.000169992
0.000173037
0.000172171
0.000176541
0.000180738
0.000179448
0.000182325
0.000182449
0.000176392
0.000178749
0.000178169
0.000182261
0.000184449
0.000188246
0.000193588
0.000188953
0.000188987
0.000190518
0.000188436
0.000188527
0.000170864
0.000170609
0.00016854
0.000166695
0.000169086
0.000169643
0.00017095
0.000169184
0.000169019
0.00455844
0.00215156
0.00576958
0.00512903
0.00530838
0.000195169
0.000187722
0.000169835
0.00012504
0.000188444
2.5978e-06
1.464e-05
0.000559742
0.000155953
0.000160834
0.000163048
0.000162961
0.000162143
0.000158204
0.000160055
0.000163056
0.000162994
0.000163399
0.000163132
0.000180293
0.000176032
0.000174844
0.000174455
0.000174173
0.000171282
0.000170854
0.000170649
0.0001693
0.00017446
0.00016704
0.000168266
0.000166981
0.000166109
0.00016633
0.000166698
0.0001861
0.000186855
0.000193585
0.000190839
0.000188782
0.000185596
0.000171244
0.000141675
4.21888e-05
0.00121786
0.000587591
0.000179218
0.000170358
0.000168884
0.000169165
0.000173343
0.000172462
0.000174002
0.000174667
0.000172358
0.000174811
0.000185056
0.000186568
0.00018596
0.000191213
0.000191383
0.000182241
0.000184613
0.000184745
0.000186927
0.000192185
0.000194705
0.000193343
0.000192675
0.000190112
0.000191143
0.000190686
0.000193235
0.000194269
0.00017308
0.000170457
0.000172819
0.000168845
0.000166923
0.000170418
0.000170475
0.000171349
0.000170004
0.000169948
0.00479375
0.00204868
0.00427732
0.0062178
0.00615383
0.00476611
0.000181373
0.000178802
0.000153382