/*--------------------------------*- C++ -*----------------------------------*\
| =========                 |                                                 |
| \\      /  F ield         | OpenFOAM: The Open Source CFD Toolbox           |
|  \\    /   O peration     | Version:  v2012                                 |
|   \\  /    A nd           | Website:  www.openfoam.com                      |
|    \\/     M anipulation  |                                                 |
\*---------------------------------------------------------------------------*/
FoamFile
{
    version     2.0;
    format      ascii;
    class       volScalarField;
    location    "0";
    object      nut;
}
// * * * * * * * * * * * * * * * * * * * * * * * * * * * * * * * * * * * * * //

dimensions      [0 2 -1 0 0 0 0];


internalField   nonuniform List<scalar> 
6319
(
0.000223982
0.000232614
0.000205993
0.000227953
0.000229473
0.000181587
0.000208055
0.000233105
0.000228578
0.000171478
0.000199677
0.000228862
0.000229915
0.000226857
0.000181869
0.000175733
0.000211166
0.000174135
0.000232978
0.000228078
0.000227607
0.000195459
0.000188806
0.000199452
0.000173383
0.000230258
0.000230101
0.00022893
0.000227936
0.000225198
0.000192991
0.00017572
0.000209844
0.00018037
0.000234344
0.000230445
0.000228508
0.0002286
0.00022779
0.000231247
0.00021374
0.000172553
0.000201896
0.000188288
0.000232214
0.000233033
0.000229169
0.000229243
0.000229411
0.000228752
0.000228165
0.000233815
0.000210429
0.000174966
0.000184632
0.000224446
0.000177296
0.000232379
0.000235671
0.000229971
0.000230213
0.00022993
0.00022915
0.000228519
0.000239185
0.000232253
0.00023354
0.000219564
0.000179876
0.000201092
0.000219557
0.000177406
0.000230113
0.000232744
0.000230893
0.000230702
0.000230186
0.000229445
0.000229265
0.000236648
0.000225101
0.000225068
0.000242203
0.000203217
0.00018386
0.000206867
0.000156207
0.000231194
0.000234448
0.00023137
0.000231015
0.000230009
0.000230872
0.000229817
0.000226011
0.000226353
0.00022645
0.000240241
0.000241776
0.00023367
0.000203345
0.000166835
0.000231859
0.000231693
0.000235153
0.000231561
0.000230541
0.000231451
0.000230592
0.000227551
0.00022883
0.000229129
0.000228469
0.000237809
0.000218154
0.000236769
0.000175196
0.000160072
0.000232325
0.00023233
0.000232949
0.000232054
0.000231203
0.000232091
0.000231365
0.000229528
0.000228957
0.000228389
0.000229432
0.0002293
0.000230563
0.000233912
0.000227475
0.000178559
0.000162884
0.000232755
0.000232891
0.000234797
0.000232553
0.000231685
0.000232462
0.00023251
0.00023202
0.000230116
0.00022924
0.000229026
0.000229737
0.000230178
0.000231282
0.000216368
0.000232507
0.000207089
0.000240811
0.0001525
0.000233022
0.000233192
0.00023356
0.000232316
0.000233357
0.000232481
0.00023318
0.000233172
0.000232675
0.000230531
0.000229369
0.000229419
0.000230327
0.00023085
0.000231288
0.000231775
0.000225527
0.000232288
0.000198032
0.000240133
0.000156005
0.000233738
0.000233873
0.000234234
0.000233196
0.000233978
0.000233291
0.000233751
0.000233771
0.000231307
0.00023347
0.000230798
0.000231091
0.000230003
0.000230117
0.000230492
0.000231852
0.000232029
0.000216275
0.000234223
0.000262914
0.00014787
0.000230242
0.000173939
0.00023388
0.000234218
0.000234328
0.000234815
0.000234131
0.000234793
0.000234027
0.00023429
0.000234455
0.000232398
0.000233919
0.00023148
0.000231754
0.00023058
0.000231214
0.000232474
0.000232634
0.00024516
0.000235685
0.000232522
0.000242005
0.000152853
0.000233532
0.000166943
0.000234513
0.000234773
0.000234691
0.0002346
0.000235291
0.000235192
0.000233741
0.000235309
0.000234362
0.000235063
0.000235491
0.000231493
0.000231992
0.000232385
0.000231167
0.000230344
0.000231843
0.000233211
0.000232655
0.000233474
0.000237106
0.000232599
0.000233038
0.000256049
0.00021312
0.000123418
0.000235382
0.000239082
0.000234853
0.000235336
0.000235134
0.00023505
0.000235896
0.000235928
0.000234235
0.00023629
0.000234808
0.00023606
0.000235765
0.000232892
0.000232862
0.000233089
0.000231692
0.000231174
0.000232486
0.000233775
0.000233618
0.000233957
0.000231758
0.000233588
0.000233747
0.000253992
0.000199985
0.000130666
0.000238112
0.00019557
0.000235313
0.000235837
0.000235532
0.000235282
0.000235218
0.000236449
0.000236553
0.000233887
0.000236647
0.000237121
0.000237126
0.000236366
0.000232451
0.00023352
0.000233849
0.000232229
0.000231021
0.000233122
0.000234166
0.000234419
0.00023443
0.000233993
0.000234691
0.000234152
0.000249568
0.000166708
0.000119306
0.000267781
0.000235636
0.000236493
0.000235998
0.000235728
0.000235525
0.000237096
0.000237263
0.000235349
0.000237481
0.000238299
0.000238403
0.000234962
0.000237398
0.000229465
0.000234276
0.000234736
0.000232595
0.000231899
0.000233349
0.00023504
0.000234971
0.000234587
0.000234754
0.000237547
0.000234792
0.000234507
0.000250633
0.000159265
0.000123611
0.000214758
0.000236168
0.000236937
0.000236334
0.000236077
0.000235891
0.000237711
0.000238053
0.00023551
0.000235451
0.000237832
0.000240108
0.000239469
0.000233981
0.000237125
0.000231171
0.00023486
0.000234098
0.000235511
0.000233201
0.000231748
0.000235381
0.000235733
0.000235519
0.000235163
0.000235189
0.000235825
0.000235298
0.000234801
0.000256703
0.000172515
0.000125357
0.000252622
0.000236675
0.000237468
0.000236757
0.000236274
0.000236339
0.000236152
0.000236397
0.00023831
0.000238754
0.000243308
0.000234878
0.000238866
0.000241184
0.000239781
0.000234932
0.000237905
0.000229886
0.000235666
0.000234673
0.000236294
0.000233717
0.000232634
0.000236123
0.000236703
0.000235668
0.000236152
0.000235517
0.000235528
0.000236567
0.00023833
0.000234583
0.000235383
0.000226243
0.000137577
0.000119607
0.000210382
0.000237115
0.000237752
0.000237102
0.000236913
0.000236698
0.000236708
0.000236435
0.000236301
0.000238813
0.000238594
0.000239392
0.000233884
0.000272372
0.000239815
0.000242876
0.000240535
0.000240338
0.000233655
0.00023665
0.000231655
0.000235971
0.000235495
0.000234294
0.000237035
0.00023221
0.000236925
0.000237308
0.00023623
0.000236787
0.00023589
0.000235942
0.000236854
0.000237327
0.000235162
0.000235569
0.000154504
0.000124211
0.000242251
0.000237239
0.000238209
0.000237564
0.000237253
0.000236866
0.000236909
0.000236759
0.000236467
0.000239474
0.000239087
0.000240317
0.000241169
0.000237084
0.000240703
0.000241922
0.000243669
0.000242337
0.000237856
0.000234638
0.000231359
0.000237076
0.00023604
0.00023447
0.000237632
0.000229544
0.000237683
0.000238183
0.000236268
0.000236636
0.000237576
0.0002368
0.000236279
0.00023702
0.000239056
0.000235299
0.000235932
0.000141038
0.00011702
0.00019805
0.000237928
0.000238315
0.000237475
0.000237951
0.000237396
0.000237222
0.000237224
0.000236977
0.000236782
0.000239571
0.000240075
0.00023894
0.000241145
0.000240429
0.000272342
0.000235389
0.00016122
0.000242454
0.000244897
0.000242907
0.000238168
0.000233383
0.000237757
0.000237594
0.000234524
0.000236275
0.000238481
0.000230904
0.000238437
0.000238694
0.00023665
0.000237094
0.000238199
0.000237513
0.000236156
0.000236666
0.000235293
0.000238697
0.000239989
0.000236026
0.000121448
0.000210909
0.000238167
0.000237824
0.000238205
0.000237699
0.000237354
0.000237394
0.000236974
0.000237317
0.000236826
0.000240077
0.000240641
0.000239335
0.000262417
0.000238171
0.000140987
0.000241694
0.000237011
0.000240109
0.000234448
0.000238831
0.000237722
0.000232477
0.000234151
0.000239388
0.000229906
0.00023912
0.000239535
0.000237023
0.000237562
0.000237955
0.000239087
0.000237768
0.000236571
0.000236962
0.00023594
0.000237955
0.000247689
0.000236264
0.00011159
0.000139498
0.000367954
0.000238629
0.00023813
0.000238553
0.000238323
0.000237872
0.000237658
0.000237703
0.00023725
0.000237554
0.000236822
0.000240007
0.000239152
0.000265077
0.00024705
0.000236909
0.000153193
0.00023624
0.000238828
0.000240159
0.00023976
0.000238707
0.000234722
0.000232698
0.000240143
0.000231556
0.000239915
0.000237359
0.000237927
0.00023871
0.000239563
0.000238379
0.000236592
0.000237302
0.000236287
0.000236213
0.000236735
0.000219351
0.000113445
0.000143549
0.000305255
0.000238308
0.000238881
0.000238693
0.000238171
0.000237958
0.000237451
0.000237818
0.000237595
0.000239656
0.000222922
0.000250289
0.000237323
0.000107288
0.000237593
0.000240661
0.000240855
0.000238945
0.000234325
0.000241139
0.00023214
0.00024071
0.000237737
0.000238415
0.000238827
0.000240263
0.00023863
0.000236877
0.000237585
0.000236612
0.000236594
0.000237155
0.000231154
0.000332843
0.000108769
0.00023865
0.000239235
0.000238864
0.000238341
0.000238209
0.000237992
0.000237577
0.000237984
0.000237837
0.000239544
0.000186138
0.000249719
0.000236791
0.000109867
0.000240114
0.000241914
0.000235944
0.000234048
0.000241576
0.000241893
0.000233965
0.000240827
0.000237986
0.000238715
0.000239602
0.000240462
0.000239194
0.000237146
0.000237622
0.000236715
0.000236725
0.000236721
0.000237025
0.000233005
0.000277421
0.000111595
0.000238772
0.000239448
0.000239224
0.000238613
0.00023842
0.000238281
0.00023794
0.000238211
0.00023792
0.00011342
0.000175484
0.000270683
0.000231821
0.000238785
0.000240068
0.000242924
0.000235209
0.000235537
0.000242533
0.000243172
0.000235803
0.000241642
0.000238319
0.000238643
0.000239139
0.000239658
0.000241317
0.000239397
0.000237422
0.000237163
0.000238015
0.000237
0.000237026
0.000236979
0.00023698
0.000234626
0.000259998
0.00012215
0.000101037
0.000239032
0.00023937
0.000238693
0.000238468
0.000238379
0.000238232
0.000238363
0.000238165
0.00025932
0.000108264
0.000262771
0.000235923
0.000238033
0.000236688
0.000240641
0.000242677
0.000244207
0.000238209
0.000237476
0.000238313
0.000238984
0.000239357
0.000237646
0.000237435
0.00023797
0.000237147
0.00023722
0.000236828
0.000237355
0.00023651
0.000329603
0.000112648
0.000239259
0.000238915
0.000238752
0.00023861
0.000238451
0.000238566
0.000238279
0.000197509
0.000104092
0.00023676
0.000269972
0.000238226
0.000236079
0.000238334
0.000239665
0.000238598
0.000238908
0.000239713
0.000237602
0.000237541
0.000238201
0.000237381
0.000237369
0.000237181
0.000237525
0.000245116
0.000253235
9.10783e-05
0.00023945
0.000239077
0.000238968
0.000238723
0.000238713
0.000238604
0.000238466
0.000238346
0.000134625
0.000238237
0.000256297
0.000240268
0.000242931
0.000238527
0.000239147
0.00023983
0.000237855
0.000237543
0.000237777
0.000238056
0.000237435
0.000237548
0.000237862
0.000237764
0.000246091
0.000212839
9.51907e-05
0.000239345
0.000239073
0.000239166
0.000238914
0.000238873
0.000238806
0.000238628
0.000238556
0.000114369
0.000237689
0.000235218
0.000273412
0.000244315
0.000238758
0.000239378
0.000239675
0.000237906
0.000237735
0.00023787
0.000238272
0.00023765
0.000237699
0.00023854
0.000237939
0.000246158
0.000162721
9.29997e-05
0.000239522
0.000239362
0.000239378
0.00023909
0.000239005
0.000238945
0.000238819
0.000238776
0.0002388
0.000113789
0.000239535
0.000239656
0.000240276
0.000264931
0.000247978
0.000238722
0.000239265
0.000238136
0.000237808
0.000238059
0.000238511
0.000237778
0.000237853
0.000238811
0.000238006
0.000242443
0.000187536
8.92786e-05
0.000239468
0.000239508
0.000239238
0.00023917
0.000239005
0.000239062
0.000239007
0.000238926
0.000239078
0.000138886
0.000239551
0.000246149
0.000244668
0.000239037
0.000238236
0.000238034
0.000238629
0.00023796
0.000237957
0.00023827
0.000240439
0.000238054
0.000235517
0.000137363
9.20906e-05
0.000239728
0.000239553
0.000239426
0.000239279
0.00023918
0.00023921
0.000239116
0.000239083
0.000239316
0.000103979
0.00024028
0.00024385
0.00020997
0.00023908
0.00023845
0.00023819
0.000238884
0.000238583
0.00023812
0.000238142
0.000238619
0.000241069
0.00023825
0.000215767
0.000157036
8.77931e-05
0.000239762
0.000239478
0.000239414
0.000239365
0.000239323
0.000239259
0.000239423
0.000239426
0.000118826
0.00024529
0.000246726
0.000238541
0.000238383
0.000238957
0.000238795
0.000238236
0.000238243
0.000238524
0.00023912
0.000242694
0.000240074
0.000129303
8.97971e-05
0.000239889
0.000239766
0.00023965
0.000239514
0.000239448
0.000239505
0.000239386
0.000240554
0.000239694
0.000101952
0.000243674
0.000246874
0.000222269
0.000238492
0.000238723
0.00023846
0.000239155
0.000238867
0.000238389
0.000238393
0.0002387
0.00024022
0.000241378
0.000222898
0.000196842
8.90543e-05
0.000239913
0.000239668
0.000239632
0.000239666
0.000239588
0.000240114
0.000239731
0.000163783
8.37041e-05
0.000245856
0.000246574
0.000244797
0.000238644
0.000238614
0.000239243
0.000239072
0.00023848
0.000238525
0.000238981
0.000245461
0.000238313
0.000232176
0.000124681
0.00023997
0.000239794
0.000239766
0.000239723
0.000239804
0.000239733
0.000240638
0.00023998
0.000117584
8.51414e-05
0.000245609
0.000249465
0.000238777
0.000238653
0.000238709
0.000239075
0.000238614
0.000238774
0.000239081
0.000244513
0.000239761
0.000233356
0.000114687
0.000239911
0.000239833
0.000239954
0.000239908
0.000239928
0.00023995
0.000240474
0.000241207
0.000571882
8.70099e-05
8.59154e-05
0.000249308
0.000226993
0.000238952
0.000238783
0.000238828
0.000239247
0.00023872
0.000239002
0.000238776
0.000239465
0.000247684
0.00024017
0.000226804
0.000871571
0.00024002
0.000239979
0.000239955
0.000240229
0.000239997
0.000240067
0.000240294
0.000240802
0.000242337
0.00018448
8.64243e-05
8.72455e-05
0.00024304
0.000256721
0.000227302
0.000239017
0.000238866
0.000238953
0.000239238
0.000238849
0.000239224
0.000238967
0.000239799
0.00024536
0.000240837
0.000228332
0.000489709
0.000240144
0.000240092
0.000240168
0.000240404
0.000240466
0.000240145
0.000240184
0.000241701
0.000338863
0.000105378
7.86249e-05
0.000138428
0.000246492
0.000250622
0.000231044
0.000239161
0.000239003
0.000239038
0.00023935
0.000238983
0.000239591
0.000239157
0.000240591
0.000242178
0.000248345
0.000240886
0.00188928
0.000240256
0.000240237
0.000240308
0.000240644
0.000241072
0.000240275
0.000240344
0.000242119
0.000185518
9.92758e-05
8.03156e-05
0.000111298
0.000246339
0.0002511
0.000234761
0.000239214
0.000239118
0.000239175
0.000239416
0.000239115
0.000239871
0.000239375
0.000241438
0.000244178
0.000246376
0.000241146
0.000332652
0.000240328
0.00024062
0.000241042
0.000241527
0.000240436
0.000240415
0.0002436
0.000481023
8.81884e-05
7.91266e-05
8.82039e-05
0.000248856
0.000245312
0.000248952
0.000240973
0.000239357
0.000239268
0.000239294
0.000239249
0.000240445
0.000239635
0.000239358
0.000241359
0.000243568
0.000248003
0.000248698
0.000242242
0.000486383
0.00024048
0.000240949
0.000241455
0.00024273
0.000240647
0.000240592
0.000243878
0.000164866
9.24005e-05
7.89962e-05
8.93924e-05
0.000248795
0.00024731
0.000248526
0.000232411
0.000239442
0.000239408
0.00023943
0.000239407
0.000240792
0.000239849
0.00023963
0.000242918
0.00024531
0.000247259
0.000245742
0.00025658
0.000169292
0.000240616
0.000241027
0.000242153
0.000243538
0.000240884
0.000240789
0.000245937
0.000230936
8.05728e-05
7.92145e-05
0.000249621
0.000247306
0.000247056
0.000220324
0.000241333
0.00023958
0.000239609
0.000239564
0.000239677
0.000240226
0.000241751
0.00024329
0.000245048
0.000248571
0.000239209
0.000250148
0.00026193
0.000204675
0.000240764
0.000241533
0.00024266
0.000243013
0.000245726
0.000241466
0.000241062
0.000246569
0.000173873
8.07764e-05
8.02439e-05
0.000249382
0.000249124
0.000248814
0.000243871
0.000234575
0.000239672
0.000239659
0.000239851
0.000239701
0.000239884
0.000240519
0.000242116
0.00024541
0.000247491
0.000248056
0.000239228
0.000248941
0.000257318
0.000123711
0.000240984
0.000242389
0.000244342
0.000244421
0.000246391
0.000241834
0.000241582
0.000248288
8.5862e-05
0.000340377
8.11581e-05
8.08217e-05
0.000249511
0.000247839
0.000248783
0.000215102
0.000240152
0.000239906
0.000240149
0.000239872
0.000240233
0.000241233
0.000243246
0.000245916
0.000247497
0.000245648
0.000219231
0.000248707
0.000312649
0.000183397
0.000241243
0.000243406
0.000245275
0.000248037
0.000242552
0.000241916
0.000249013
8.36265e-05
0.000154371
8.04959e-05
7.95073e-05
0.000249155
0.000245206
0.000249282
0.000216511
0.000234123
0.000240188
0.00024
0.000240467
0.000240608
0.000241777
0.000244897
0.000243111
0.000247923
0.000249137
0.000239571
0.000233008
0.000248259
0.000264737
8.32981e-05
0.000241598
0.00024349
0.000244741
0.00024741
0.000247932
0.000248769
0.00024341
0.000242548
0.000248987
7.86432e-05
0.000166271
8.07996e-05
0.000248652
0.000243262
0.000192448
0.000227589
0.000236764
0.000240501
0.000240281
0.000241034
0.000241398
0.000246644
0.000244155
0.000248758
0.000248135
0.000249534
0.000241105
0.000227563
0.000244827
0.00019638
8.78635e-05
0.000241993
0.000244911
0.000246404
0.000247785
0.000248572
0.000248899
0.000244891
0.000243375
0.000242731
0.000249044
7.98872e-05
0.000116824
8.16678e-05
0.000246638
0.000248377
0.000243859
0.000185336
0.000222814
0.000231518
0.000241162
0.000240485
0.000240419
0.000241766
0.000241409
0.000240301
0.000246467
0.000243987
0.000249601
0.000249397
0.000248827
0.000234134
0.000224899
0.000242049
0.000205005
7.67636e-05
0.000246086
0.000246569
0.000248354
0.000248457
0.00024886
0.000246132
0.000244544
0.000243167
0.000248341
8.19866e-05
7.82032e-05
0.00017289
0.000244103
0.000245077
0.000238945
0.000190817
0.00021428
0.000232381
0.000241529
0.00024089
0.000240846
0.000242632
0.000242687
0.000248004
0.000245212
0.000249185
0.00024912
0.000246842
0.000233315
0.000212302
0.000242964
0.000166405
8.13313e-05
0.000247367
0.00024794
0.000248252
0.00019479
0.000188314
0.000247585
0.000245944
0.000247167
0.000244676
0.000244133
0.000214152
8.22387e-05
7.83239e-05
0.000122413
0.000239167
0.000242723
0.000179558
0.000215518
0.000225538
0.00024211
0.000241115
0.000241005
0.000243776
0.000249047
0.000247712
0.000247151
0.000244988
0.000248008
0.000248462
0.00024558
0.00022729
0.000209308
0.000237914
0.000200741
7.58893e-05
0.000248033
0.000218236
0.000178237
0.000215549
0.000209955
0.000218227
0.000241034
0.000208016
0.000245994
0.000245037
0.000220748
8.31268e-05
8.15357e-05
7.1438e-05
0.000175516
0.000235235
0.000236439
0.000183126
0.000204398
0.000226586
0.000243138
0.000241943
0.000244148
0.000248988
0.000248708
0.00024792
0.000247038
0.000246855
0.000247226
0.00024153
0.000230342
0.000212598
0.000237706
0.00016986
2.11955e-05
0.000224232
0.000165082
0.00020376
0.000173947
0.000192043
0.000199274
0.00024699
0.000211772
0.000201583
0.000246208
0.000196183
8.27532e-05
8.20017e-05
7.61629e-05
0.00013754
0.000185029
0.000171923
0.000202061
0.000178333
0.000244304
0.000242468
0.000242262
0.00024607
0.000247879
0.00024856
0.000248491
0.000247422
0.00023637
0.000204962
0.000235408
0.00022517
0.000202864
0.000230932
0.000187866
7.02692e-05
0.000199517
0.000169022
0.000184375
0.00017174
0.000186377
0.000159452
0.000148612
0.000184616
0.000225269
0.000184299
0.000201141
0.000202155
0.000176671
8.42291e-05
8.02898e-05
5.9351e-05
0.000161278
0.000159294
0.000177994
0.000176377
0.000175948
0.000243867
0.000245877
0.000243357
0.000247057
0.000246357
0.00022517
0.000213612
0.000248219
0.000248048
0.000231179
0.000182655
0.00021769
0.000201391
0.000204
0.00022534
0.000177108
7.14082e-05
0.000161716
0.000187547
0.000130188
0.000142675
0.000151844
0.000157503
0.000133146
0.000133272
0.000164479
0.000173558
0.00021785
0.000167746
0.000186096
0.000179077
8.39376e-05
8.15318e-05
7.21821e-05
0.000133604
0.000153523
0.000152856
0.000153618
0.000181455
0.000244727
0.000246768
0.000244299
0.000247778
0.000247362
0.000186818
0.000192614
0.000192551
0.000220372
0.000211197
0.000178395
0.000195267
0.000213049
0.000183597
0.000186436
0.00018838
3.6249e-05
0.00016586
7.08219e-05
0.000160507
0.000152611
0.000137238
0.000132933
0.000121544
0.000144744
0.000151692
0.000131277
0.000128146
0.000127769
0.000169121
0.000152847
0.000161552
0.000163842
0.000149719
8.72135e-05
7.61207e-05
6.93981e-05
0.000138958
0.00013705
0.000149001
0.000142567
0.00015022
0.000245874
0.000239644
0.000215213
0.000245577
0.000247642
0.000244236
0.000168196
0.000180283
0.000169807
0.000201015
0.00019094
0.00016172
0.000168604
0.000147606
0.000163047
0.000170016
0.000163502
9.34327e-05
0.000148915
7.3415e-05
0.000168355
0.000126225
0.000128356
0.000136822
0.000152813
0.000138778
0.000135791
0.000130648
0.000125809
0.000109772
0.000132317
0.000157462
0.000177916
0.000185825
0.000149936
0.000157909
0.000152598
0.000127178
8.66716e-05
8.06398e-05
6.75528e-05
5.14478e-05
0.000141734
0.000147371
0.000116761
0.000115019
0.00024617
0.00023312
0.00018653
0.000192715
0.000203936
0.000139969
0.000168942
0.000161739
0.000189663
0.000179422
0.000147465
0.000148298
0.000151052
0.000149015
0.000154354
0.00013891
0.000141589
5.94149e-05
0.000145761
7.74538e-05
0.000115569
0.000141624
0.000118331
0.000130085
0.000125561
0.000130698
0.000111379
0.000128321
0.000110128
0.000132201
0.000140953
0.000156002
0.000134745
0.000135454
0.000127262
0.00013615
9.0609e-05
7.17067e-05
6.41173e-05
0.000126608
0.000114084
0.000123876
0.000112531
0.000235237
0.00023042
0.000200661
0.000165979
0.000183788
0.00014823
0.000151076
0.000155852
0.000176105
0.00017165
0.000144665
0.000143732
0.000127396
0.000155932
0.000127348
6.99505e-05
0.000135628
7.97268e-05
0.000120229
0.000109748
0.000104939
0.000103532
0.00011049
0.000108218
0.000111385
0.000108178
0.000120101
0.000102209
0.000113066
9.84319e-05
0.000103972
0.000148438
0.000127282
0.000141068
0.000128736
0.000128485
0.000136446
8.90424e-05
7.85909e-05
0.000143798
2.03702e-05
0.000110628
9.8743e-05
0.000104435
0.000118783
0.000187294
0.000190052
0.000165484
0.000194176
0.00018023
0.000159254
0.000139411
0.000126545
0.000127099
0.000131351
0.000151143
0.000167773
0.00013421
0.000120842
0.000116993
0.000122296
0.00013262
0.000120646
0.000118066
4.39954e-06
7.39419e-05
0.000132327
0.000100901
0.000103487
0.000103157
0.000110624
9.87867e-05
0.000104974
9.77363e-05
0.00010028
0.000103875
9.6349e-05
9.1916e-05
9.19816e-05
0.00011688
0.000134616
0.000135764
0.000139066
0.000122388
0.000126878
8.92854e-05
7.4362e-05
0.00014134
4.78322e-05
9.82638e-05
0.000108235
0.000106338
0.000107386
0.000117967
0.000178664
0.000172804
0.0001605
0.000169473
0.00015224
0.00011729
0.000107443
0.000133803
0.000124921
0.000133388
0.000145339
0.000130419
0.000118874
0.000108881
0.000123325
0.000111609
0.00010566
0.000113074
5.20853e-05
7.78417e-05
0.000120375
0.000104118
0.000101116
0.000136148
0.000101949
0.000100466
9.48272e-05
9.09526e-05
9.67532e-05
0.000100542
9.19012e-05
9.92012e-05
0.000100657
0.000100155
9.44435e-05
9.79939e-05
0.000136051
0.000137205
0.000120588
0.0001216
0.000134019
0.00011664
0.000125199
8.98396e-05
8.5511e-05
2.21603e-05
5.19614e-05
8.79006e-05
0.000111891
0.00010461
8.46059e-05
0.000111776
0.000171279
0.000154716
0.000147788
0.000145167
0.00013711
0.000103949
0.000120257
0.00011778
0.000116549
0.000118631
0.000117323
0.000133835
0.000139646
9.72631e-05
0.000111673
0.000106764
8.7622e-05
0.000109562
0.000104288
0.000109576
3.77727e-05
4.89815e-05
9.23224e-05
0.000103305
0.000111362
0.000105028
9.69092e-05
9.91234e-05
0.000128398
9.80044e-05
7.91505e-05
9.67833e-05
8.79987e-05
9.64405e-05
8.64594e-05
8.97584e-05
9.16582e-05
9.56179e-05
8.89338e-05
0.000129983
0.000131831
0.000114172
0.000113597
0.000121487
0.000121479
0.000118466
0.000118675
8.62156e-05
2.84337e-05
7.35477e-05
8.10463e-05
9.0422e-05
0.000110158
7.77508e-05
7.30358e-05
0.000158158
0.000153727
0.000130576
0.000151438
0.000138189
9.63268e-05
0.000109978
0.000104864
0.000104619
0.00010743
0.000119152
0.00011781
0.00012582
9.93481e-05
8.70206e-05
9.14389e-05
9.36881e-05
8.6912e-05
8.43664e-05
4.27873e-05
6.50344e-05
9.10212e-05
9.66263e-05
9.49836e-05
0.000110279
0.000102242
9.65038e-05
9.04052e-05
8.58221e-05
8.60094e-05
9.57416e-05
8.99284e-05
0.000107658
8.70461e-05
8.71176e-05
8.11834e-05
9.10416e-05
7.08375e-05
7.76324e-05
0.000125312
0.000120368
0.000107877
0.000127438
0.000111831
0.000108328
9.57177e-05
1.2628e-05
7.94997e-05
8.19231e-05
6.44591e-05
9.45373e-05
8.54193e-05
8.02867e-05
4.94708e-05
0.000143991
0.000136975
0.000129983
0.000122893
0.000137876
0.000123763
0.000101967
9.47713e-05
0.000105087
8.8245e-05
0.000128989
9.69155e-05
0.000120666
0.000116093
0.00012026
9.56454e-05
9.38642e-05
9.76203e-05
8.22495e-05
8.6014e-05
8.74889e-05
9.28634e-05
2.41818e-05
8.43288e-05
4.12894e-05
0.000128453
9.67639e-05
0.000103372
0.0001082
9.2811e-05
8.95557e-05
9.1251e-05
9.047e-05
9.58371e-05
8.99276e-05
8.89334e-05
8.32664e-05
8.15645e-05
7.68593e-05
7.72436e-05
9.21529e-05
8.35961e-05
7.1948e-05
7.31652e-05
7.60545e-05
0.00010486
0.00010466
0.000121187
0.000116755
0.000145141
0.000115323
0.000121293
9.4334e-05
1.56462e-05
9.28204e-05
6.44274e-05
7.73435e-05
8.38356e-05
6.90728e-05
8.3927e-05
5.77822e-05
2.64875e-05
0.000137444
0.000131041
0.000143044
0.00012127
0.000128194
0.000116385
8.58292e-05
9.1231e-05
9.55608e-05
9.07274e-05
0.000103075
8.95459e-05
0.000110147
0.000112256
0.000107789
9.98372e-05
8.91817e-05
8.19728e-05
7.96075e-05
8.46691e-05
7.92584e-05
8.24027e-05
8.09994e-05
1.57973e-05
8.43659e-05
6.00786e-05
6.9422e-05
8.49736e-05
0.000104764
9.44395e-05
9.66102e-05
0.000104492
8.83791e-05
9.79833e-05
8.82081e-05
8.52109e-05
9.71799e-05
8.11523e-05
7.80938e-05
8.75054e-05
7.29022e-05
8.24662e-05
7.7668e-05
7.92773e-05
7.31803e-05
7.20335e-05
8.40794e-05
6.88099e-05
0.00012684
0.00010347
0.000116876
0.000111173
0.000135588
0.000130923
0.000126395
0.000122733
9.41194e-05
3.86795e-06
9.11236e-05
7.87994e-05
6.34478e-05
6.82561e-05
6.68227e-05
7.66976e-05
4.36831e-05
0.000135875
0.00012872
0.000126851
0.000128009
0.000124697
0.000124076
0.000136413
0.000107492
0.000110388
8.38735e-05
9.51319e-05
8.68649e-05
9.38598e-05
8.79255e-05
0.000108482
9.10761e-05
9.49286e-05
0.00010567
0.000104953
7.48596e-05
8.12915e-05
8.06359e-05
7.01016e-05
8.41573e-05
7.30385e-05
8.15498e-05
6.83091e-05
1.70526e-05
6.07574e-05
3.82804e-05
8.89293e-05
0.000108001
9.00241e-05
9.35126e-05
8.70097e-05
9.40216e-05
8.52539e-05
8.99384e-05
8.44194e-05
7.50767e-05
8.05442e-05
8.96982e-05
9.25605e-05
7.96575e-05
7.32756e-05
7.12217e-05
6.59551e-05
6.78117e-05
6.41671e-05
6.59521e-05
7.67295e-05
7.38582e-05
0.000141462
0.000113025
0.000103867
0.00010658
0.000127699
0.000142453
0.000122211
0.000102469
9.13227e-05
1.35577e-05
9.53762e-05
8.18211e-05
7.11727e-05
6.20323e-05
6.55045e-05
7.33762e-05
7.19695e-05
6.6427e-05
6.51249e-05
1.06147e-05
0.000118097
0.00011174
0.000120586
0.000119405
0.000122123
0.000115412
9.84736e-05
0.000111746
8.07866e-05
7.06238e-05
8.48759e-05
9.10535e-05
8.32755e-05
9.66614e-05
8.54997e-05
9.87163e-05
0.000103921
9.99784e-05
0.000101205
7.2704e-05
6.26763e-05
6.66445e-05
6.94403e-05
7.07123e-05
6.94279e-05
6.62029e-05
6.04762e-05
6.39148e-05
3.62034e-05
7.15873e-05
2.20775e-05
8.91844e-05
0.000102268
9.991e-05
9.17437e-05
9.39004e-05
8.82257e-05
9.23286e-05
8.83345e-05
7.72489e-05
7.06118e-05
7.61106e-05
7.64248e-05
7.0826e-05
8.58842e-05
8.32616e-05
8.37709e-05
8.25207e-05
6.15248e-05
6.63556e-05
6.38829e-05
6.21e-05
6.86147e-05
6.46583e-05
6.33888e-05
7.84201e-05
7.83285e-05
0.000146715
0.00011295
0.0001014
9.72502e-05
0.000128464
0.000165996
0.000121133
0.000106057
9.5954e-05
2.7651e-05
9.25586e-05
8.34242e-05
9.142e-05
6.60738e-05
5.92739e-05
6.81779e-05
5.96981e-05
6.10236e-05
3.05694e-05
1.57169e-06
0.00011456
0.000122977
0.000131707
0.00011646
0.000114239
0.000119173
0.000131473
0.000101769
0.000107385
7.6588e-05
7.21269e-05
7.16115e-05
7.70723e-05
8.5843e-05
8.17249e-05
8.50406e-05
9.09392e-05
8.99063e-05
9.52648e-05
0.000102676
9.12548e-05
8.90515e-05
6.81431e-05
6.63367e-05
6.15313e-05
6.57116e-05
6.86793e-05
6.63804e-05
8.48892e-05
6.37117e-05
5.46333e-05
2.57172e-05
5.19737e-05
5.99715e-08
8.08058e-05
0.000100174
9.50615e-05
8.57837e-05
8.49253e-05
7.29396e-05
9.12426e-05
9.08215e-05
8.29953e-05
7.57518e-05
7.49941e-05
7.22694e-05
7.94627e-05
6.97633e-05
7.95006e-05
7.6073e-05
7.12079e-05
8.78169e-05
8.22765e-05
6.49475e-05
6.15756e-05
5.78367e-05
5.94882e-05
8.49332e-05
7.62338e-05
7.0714e-05
6.76135e-05
6.86684e-05
0.000142668
0.000121253
9.32623e-05
9.47391e-05
0.000158564
0.000152153
0.000114953
0.000103704
9.22248e-05
3.9506e-05
9.1832e-05
7.9218e-05
8.57571e-05
6.26186e-05
6.03196e-05
6.64003e-05
4.30862e-05
6.16405e-05
2.93687e-05
6.61302e-06
3.95894e-06
0.000115908
0.000123603
0.000137777
0.000112253
0.000110735
0.000119999
0.000116704
0.000110845
0.00010679
6.72785e-05
6.68057e-05
7.17776e-05
7.36354e-05
8.36209e-05
8.36023e-05
6.80371e-05
8.66681e-05
8.98233e-05
9.43083e-05
8.91374e-05
9.64566e-05
8.95942e-05
6.46797e-05
6.25064e-05
6.89511e-05
6.37623e-05
6.12481e-05
6.11032e-05
7.17112e-05
2.29189e-05
6.46913e-05
1.485e-05
8.08937e-05
9.96996e-05
8.5133e-05
7.7271e-05
8.25065e-05
8.30279e-05
8.01103e-05
7.70872e-05
7.95691e-05
7.43297e-05
7.32576e-05
7.82049e-05
9.73762e-05
7.88239e-05
7.21761e-05
8.79752e-05
6.9533e-05
8.02335e-05
8.53156e-05
8.00665e-05
6.37596e-05
5.85143e-05
6.57771e-05
6.80346e-05
7.30887e-05
6.14177e-05
6.96748e-05
0.000143434
7.69533e-05
8.98907e-05
8.29741e-05
0.000152536
0.000150166
0.000143133
0.000128331
9.57997e-05
9.45536e-05
6.30966e-05
8.6767e-05
7.88872e-05
9.69536e-05
5.28737e-05
6.36131e-05
4.73562e-05
3.5849e-05
5.47239e-05
1.13791e-06
3.10518e-06
2.9652e-05
0.000106687
0.000117131
0.000127627
0.000140691
0.000111393
0.000111489
0.000127427
0.000131282
9.7054e-05
9.9593e-05
0.000103307
6.59961e-05
6.74317e-05
7.8718e-05
6.98097e-05
7.81056e-05
7.15133e-05
7.60517e-05
7.49038e-05
9.12678e-05
6.72828e-05
7.91161e-05
7.63073e-05
0.000101917
8.34133e-05
9.82899e-05
0.000101358
6.2947e-05
6.04516e-05
6.83641e-05
5.91252e-05
5.60543e-05
6.40636e-05
5.29459e-05
3.47417e-05
8.82668e-06
4.72961e-05
3.39334e-05
8.78188e-05
8.14737e-05
8.29576e-05
8.27374e-05
8.66022e-05
9.35673e-05
7.18565e-05
8.43856e-05
7.93135e-05
8.3481e-05
7.69134e-05
8.96487e-05
8.24574e-05
7.45423e-05
7.49687e-05
7.86822e-05
9.19569e-05
7.81817e-05
7.76919e-05
5.8031e-05
6.70414e-05
5.92484e-05
6.86179e-05
5.86882e-05
5.62927e-05
7.16609e-05
5.57733e-05
8.45904e-05
0.000131103
8.01077e-05
6.80337e-05
7.732e-05
9.0101e-05
0.000142514
0.000141582
0.000135709
0.000105721
0.00011465
9.30275e-05
6.25757e-05
6.12852e-05
9.64655e-05
0.000100202
9.19806e-05