/*--------------------------------*- C++ -*----------------------------------*\
| =========                 |                                                 |
| \\      /  F ield         | OpenFOAM: The Open Source CFD Toolbox           |
|  \\    /   O peration     | Version:  v2012                                 |
|   \\  /    A nd           | Website:  www.openfoam.com                      |
|    \\/     M anipulation  |                                                 |
\*---------------------------------------------------------------------------*/
FoamFile
{
    version     2.0;
    format      ascii;
    class       volVectorField;
    location    "0.56";
    object      cellDisplacement;
}
// * * * * * * * * * * * * * * * * * * * * * * * * * * * * * * * * * * * * * //

dimensions      [0 1 0 0 0 0 0];


internalField   nonuniform List<vector> 
11961
(
(-0.000314984 0.00132729 0)
(-0.000754212 0.00319583 0)
(-0.000703873 0.00294321 0)
(-0.000467067 0.00200726 0)
(-0.00142779 0.00602226 0)
(-0.000376621 0.00156793 0)
(-0.00135108 0.00565153 0)
(-0.00116854 0.00504093 0)
(-0.0020798 0.00879216 0)
(-0.000683916 0.00282633 0)
(-0.0018536 0.00771574 0)
(-0.00216385 0.00923726 0)
(-0.00123424 0.00538357 0)
(-0.0027827 0.0116625 0)
(-0.00136324 0.00562729 0)
(-0.000302038 0.00124578 0)
(-0.00186943 0.00773855 0)
(-0.0026103 0.0108754 0)
(-0.00301233 0.0128757 0)
(-0.00226699 0.00990951 0)
(-0.000503195 0.00222337 0)
(-0.00362557 0.0151813 0)
(-0.00149826 0.00615338 0)
(-0.000535647 0.00219898 0)
(-0.00261511 0.0107675 0)
(-0.00310057 0.0128031 0)
(-0.00308212 0.0133458 0)
(-0.00381367 0.0161285 0)
(-0.00223915 0.00994589 0)
(-0.00122102 0.00546337 0)
(-0.00425265 0.017618 0)
(-0.0020616 0.00843761 0)
(-0.00106375 0.00436368 0)
(-0.000225529 0.000924867 0)
(-0.00266932 0.0109333 0)
(-0.00387166 0.0159322 0)
(-0.00404415 0.0175446 0)
(-0.00477783 0.0201866 0)
(-0.00305496 0.0136507 0)
(-0.00104259 0.00474612 0)
(-0.00516203 0.0213292 0)
(-0.00208497 0.0084955 0)
(-0.00117133 0.00478485 0)
(-0.000426503 0.00174399 0)
(-0.00320721 0.0130552 0)
(-0.00435235 0.0177277 0)
(-0.00402793 0.0177744 0)
(-0.00493855 0.0211479 0)
(-0.00551499 0.0230098 0)
(-0.00292119 0.0133245 0)
(-0.00196991 0.00910562 0)
(-0.000355699 0.00163098 0)
(-0.00572996 0.0234149 0)
(-0.00162279 0.00661103 0)
(-0.00254099 0.0103079 0)
(-0.000860807 0.00351613 0)
(-0.000330289 0.00135021 0)
(-0.00393594 0.0159786 0)
(-0.0030404 0.0123317 0)
(-0.00528636 0.0214481 0)
(-0.00497905 0.0220764 0)
(-0.00597518 0.025575 0)
(-0.00660305 0.0274445 0)
(-0.00365734 0.0168107 0)
(-0.00188975 0.0089488 0)
(-0.000332796 0.00159654 0)
(-0.00666088 0.0271195 0)
(-0.00161316 0.00654005 0)
(-0.00251534 0.0101543 0)
(-0.000860093 0.00349922 0)
(-0.000116021 0.00047431 0)
(-0.000569432 0.0023207 0)
(-0.00411013 0.0165248 0)
(-0.00347588 0.0139999 0)
(-0.00579887 0.0233026 0)
(-0.0047125 0.0213697 0)
(-0.00602548 0.026285 0)
(-0.00692463 0.0291401 0)
(-0.00717422 0.0294237 0)
(-0.00352371 0.0165835 0)
(-0.00271691 0.0130183 0)
(-0.000978295 0.00473161 0)
(-0.00725898 0.0292139 0)
(-0.001147 0.00465305 0)
(-0.00203743 0.00822656 0)
(-0.00309536 0.0124307 0)
(-0.00017559 0.000715593 0)
(-0.000392321 0.00159687 0)
(-0.00474866 0.018962 0)
(-0.00685331 0.0274342 0)
(-0.00556754 0.0222284 0)
(-0.00518357 0.0238226 0)
(-0.00719409 0.0314124 0)
(-0.0079266 0.0332766 0)
(-0.00824042 0.0334838 0)
(-0.00433891 0.0205058 0)
(-0.00265847 0.0131497 0)
(-0.0010313 0.00512705 0)
(-0.00827288 0.0331884 0)
(-0.00106258 0.00429156 0)
(-0.00195789 0.00786307 0)
(-0.0031385 0.0125231 0)
(-4.76317e-05 0.000194391 0)
(-0.00036092 0.00146582 0)
(-0.00466022 0.018446 0)
(-0.00723562 0.0286487 0)
(-0.0063788 0.0252402 0)
(-0.00604801 0.0276862 0)
(-0.00815881 0.0348638 0)
(-0.0071136 0.0317971 0)
(-0.00886542 0.0366469 0)
(-0.00904152 0.0368111 0)
(-0.00437347 0.0211957 0)
(-0.00187305 0.00943584 0)
(-0.00346392 0.0173194 0)
(-0.000393257 0.00200772 0)
(-0.00891236 0.0354012 0)
(-0.00143172 0.00575524 0)
(-0.000709485 0.0028673 0)
(-0.00243597 0.00972946 0)
(-0.00381318 0.0151109 0)
(-4.00613e-05 0.00016314 0)
(-0.000483066 0.00195605 0)
(-0.00015514 0.000631035 0)
(-0.00549487 0.0215573 0)
(-0.0082825 0.0325165 0)
(-0.00641362 0.0251688 0)
(-0.00610419 0.0287137 0)
(-0.009316 0.039444 0)
(-0.00790542 0.0356073 0)
(-0.00975714 0.0404319 0)
(-0.0102761 0.0412223 0)
(-0.00522218 0.0253576 0)
(-0.00162021 0.00850883 0)
(-0.00346907 0.0179261 0)
(-0.000782426 0.00413839 0)
(-0.00898612 0.0353406 0)
(-0.00985363 0.038944 0)
(-0.00123508 0.00493885 0)
(-0.000479838 0.00192955 0)
(-0.00226287 0.00898838 0)
(-0.00353163 0.013903 0)
(-0.000237054 0.000958832 0)
(-8.73502e-05 0.000354432 0)
(-0.00549494 0.0213842 0)
(-0.00828773 0.0322342 0)
(-0.00727197 0.0283067 0)
(-0.00703239 0.0329146 0)
(-0.0100452 0.0427224 0)
(-0.00907647 0.0404011 0)
(-0.0109052 0.044543 0)
(-0.0112633 0.0452452 0)
(-0.0105434 0.0417298 0)
(-0.00516301 0.0260158 0)
(-0.0020179 0.0109022 0)
(-0.00428059 0.0222937 0)
(-0.00280079 0.0150031 0)
(-0.000394653 0.00218119 0)
(-0.00994341 0.0388437 0)
(-0.000634496 0.00254137 0)
(-0.00158373 0.00630024 0)
(-0.000159674 0.000643643 0)
(-0.00270272 0.0106701 0)
(-0.00391255 0.0152787 0)
(-0.00475034 0.0184618 0)
(-0.00656005 0.0252893 0)
(-0.00904016 0.0347888 0)
(-0.00735316 0.0283672 0)
(-0.00710702 0.0342159 0)
(-0.0100033 0.0433467 0)
(-0.0113522 0.0473349 0)
(-0.00933847 0.0426963 0)
(-0.011763 0.0481817 0)
(-0.0126104 0.0498811 0)
(-0.0118019 0.0460812 0)
(-0.00600989 0.0303354 0)
(-0.00153418 0.00876131 0)
(-0.00391285 0.0213626 0)
(-0.00304655 0.0169337 0)
(-0.000784279 0.00452332 0)
(-0.0107796 0.0416938 0)
(-0.000310435 0.00123679 0)
(-0.00130879 0.00517845 0)
(-0.00236017 0.00927785 0)
(-0.003255 0.0126741 0)
(-0.00485042 0.0186759 0)
(-0.00651696 0.0249239 0)
(-0.00837341 0.0320707 0)
(-0.0100835 0.0385781 0)
(-0.00814187 0.0389016 0)
(-0.0116704 0.0498534 0)
(-0.0123728 0.0516111 0)
(-0.0107094 0.0483268 0)
(-0.0132551 0.053381 0)
(-0.0128488 0.0501442 0)
(-0.013759 0.0544409 0)
(-0.0119399 0.0461099 0)
(-0.00586217 0.0310724 0)
(-0.00187384 0.0110879 0)
(-0.00411719 0.0231689 0)
(-0.00261618 0.0151713 0)
(-0.000378819 0.00231701 0)
(-0.0108818 0.0417017 0)
(-0.000652947 0.00258672 0)
(-0.00167187 0.00658085 0)
(-0.0025784 0.0100769 0)
(-0.003354 0.0129663 0)
(-0.0040872 0.0157221 0)
(-0.00561077 0.021467 0)
(-0.00726235 0.0275314 0)
(-0.00881091 0.0334297 0)
(-0.0104518 0.0395817 0)
(-0.00803789 0.0398555 0)
(-0.0121446 0.052578 0)
(-0.0138018 0.0561447 0)
(-0.0106945 0.0497515 0)
(-0.0141816 0.0545132 0)
(-0.0152569 0.0592721 0)
(-0.0131028 0.0499733 0)
(-0.00488615 0.0273205 0)
(-0.00675476 0.0356117 0)
(-0.00164507 0.010291 0)
(-0.00336756 0.0202962 0)
(-0.00276802 0.0168313 0)
(-0.000593558 0.00384512 0)
(-0.0121366 0.0459547 0)
(-0.00033861 0.00133257 0)
(-0.00140407 0.00549509 0)
(-0.00192791 0.00751232 0)
(-0.0026192 0.0101022 0)
(-0.00405959 0.0154966 0)
(-0.00550862 0.0209119 0)
(-0.00693508 0.0261269 0)
(-0.00825996 0.0312146 0)
(-0.00985835 0.0372145 0)
(-0.0114425 0.0429743 0)
(-0.00917523 0.0449512 0)
(-0.0140066 0.059473 0)
(-0.0152585 0.0614021 0)
(-0.0121086 0.0555057 0)
(-0.0153595 0.0588658 0)
(-0.0142471 0.0541864 0)
(-0.0165936 0.0641452 0)
(-0.01312 0.049602 0)
(-0.00443442 0.0266539 0)
(-0.00661572 0.0364937 0)
(-0.00111885 0.00727367 0)
(-0.00216182 0.0138448 0)
(-0.00351665 0.0221364 0)
(-0.000230273 0.00160446 0)
(-0.0122186 0.045867 0)
(-0.000747375 0.00292401 0)
(-0.00191994 0.00743655 0)
(-0.00266584 0.0102153 0)
(-0.00336612 0.0128396 0)
(-0.00472391 0.0179301 0)
(-0.00612595 0.023104 0)
(-0.00745662 0.0278753 0)
(-0.00870598 0.0325921 0)
(-0.0104237 0.0389817 0)
(-0.0114185 0.0425688 0)
(-0.00886644 0.0453625 0)
(-0.0140252 0.061142 0)
(-0.0156053 0.0638425 0)
(-0.0167364 0.0655279 0)
(-0.0116031 0.0554668 0)
(-0.0166214 0.0627011 0)
(-0.0154671 0.0579873 0)
(-0.0179654 0.0680747 0)
(-0.0141484 0.0528805 0)
(-0.00469792 0.0292338 0)
(-0.00562489 0.0335626 0)
(-0.00758633 0.0411044 0)
(-0.00105736 0.00741701 0)
(-0.00201212 0.0137809 0)
(-0.00300075 0.0204181 0)
(-0.000535057 0.00390781 0)
(-0.013173 0.0489897 0)
(-0.000430964 0.00166992 0)
(-0.00106157 0.00409486 0)
(-0.00203239 0.00775796 0)
(-0.00323419 0.0122443 0)
(-0.00460753 0.017354 0)
(-0.00591527 0.0221599 0)
(-0.00820367 0.0306081 0)
(-0.00712076 0.0264413 0)
(-0.00951061 0.0354053 0)
(-0.0102443 0.0381082 0)
(-0.0121185 0.0447653 0)
(-0.00987893 0.0500772 0)
(-0.0156866 0.0674175 0)
(-0.0178215 0.0712124 0)
(-0.0183788 0.0710633 0)
(-0.012725 0.0603098 0)
(-0.0166077 0.062028 0)
(-0.017811 0.0668891 0)
(-0.0152866 0.0569014 0)
(-0.0194554 0.0730755 0)
(-0.0140248 0.0521113 0)
(-0.00380371 0.0265018 0)
(-0.00578125 0.0359093 0)
(-0.0070408 0.0406678 0)
(-0.00138957 0.0100145 0)
(-0.0023282 0.0165246 0)
(-0.00310008 0.0224075 0)
(-0.00045183 0.00355353 0)
(-0.0134357 0.0495814 0)
(-0.0011072 0.00424278 0)
(-0.00238275 0.00903025 0)
(-0.00380266 0.0143151 0)
(-0.00518934 0.0194352 0)
(-0.00639388 0.0237793 0)
(-0.00868056 0.0321217 0)
(-0.00760962 0.0280586 0)
(-0.00945309 0.0349341 0)
(-0.0110055 0.0405512 0)
(-0.0118469 0.0435361 0)
(-0.0130367 0.0479649 0)
(-0.00914221 0.0491551 0)
(-0.0176183 0.0728803 0)
(-0.0148065 0.0664918 0)
(-0.0185201 0.0744526 0)
(-0.0189671 0.0738097 0)
(-0.0196719 0.0745008 0)
(-0.0116911 0.0587278 0)
(-0.0177318 0.0653545 0)
(-0.0189052 0.0699687 0)
(-0.016066 0.0591513 0)
(-0.0205311 0.0758799 0)
(-0.0148773 0.0547121 0)
(-0.00363629 0.0274603 0)
(-0.00508029 0.034795 0)
(-0.00759188 0.0439879 0)
(-0.00123778 0.00970544 0)
(-0.00196489 0.0152694 0)
(-0.0024827 0.0201234 0)
(-0.000151667 0.00123193 0)
(-0.000777243 0.00643821 0)
(-0.0145159 0.0531956 0)
(-0.00048089 0.00183211 0)
(-0.00204658 0.00769747 0)
(-0.0036323 0.0135695 0)
(-0.0051203 0.0190162 0)
(-0.00589995 0.0218012 0)
(-0.00841337 0.0309961 0)
(-0.00757422 0.0277187 0)
(-0.0100516 0.0368774 0)
(-0.0108298 0.0396912 0)
(-0.0124766 0.0454338 0)
(-0.0137273 0.0499658 0)
(-0.00985244 0.0529816 0)
(-0.0191518 0.0783828 0)
(-0.0158412 0.0708757 0)
(-0.020814 0.0813983 0)
(-0.0208448 0.0793713 0)
(-0.0211366 0.0793029 0)
(-0.0125769 0.0630096 0)
(-0.0187873 0.0690284 0)
(-0.0178622 0.0652374 0)
(-0.020091 0.07391 0)
(-0.0171157 0.0625632 0)
(-0.0157154 0.0575905 0)
(-0.0219215 0.0801545 0)
(-0.00412204 0.0309548 0)
(-0.00278789 0.0244755 0)
(-0.00546672 0.0380307 0)
(-0.00677407 0.0426019 0)
(-0.0014795 0.0120827 0)
(-0.00203693 0.016947 0)
(-0.00235364 0.0212777 0)
(-0.000116215 0.00111183 0)
(-0.000690957 0.00629581 0)
(-0.0149199 0.0542594 0)
(-0.00105757 0.00398718 0)
(-0.00271791 0.0101464 0)
(-0.0043629 0.0161901 0)
(-0.00613157 0.0224509 0)
(-0.00879904 0.032159 0)
(-0.0069958 0.0255007 0)
(-0.00829786 0.0302119 0)
(-0.00997969 0.0363924 0)
(-0.0114418 0.0415844 0)
(-0.0122093 0.0442579 0)
(-0.0134034 0.0485913 0)
(-0.0145241 0.0526642 0)
(-0.00868297 0.0507757 0)
(-0.0192911 0.0800134 0)
(-0.0210537 0.0832256 0)
(-0.0146205 0.0688909 0)
(-0.0178721 0.0768734 0)
(-0.0221536 0.084653 0)
(-0.0220037 0.083316 0)
(-0.0225057 0.0830519 0)
(-0.0110984 0.0603237 0)
(-0.0198535 0.0720427 0)
(-0.0189884 0.0685748 0)
(-0.0209043 0.0760106 0)
(-0.0173176 0.0627357 0)
(-0.016451 0.0597467 0)
(-0.0227513 0.0831133 0)
(-0.0225204 0.0813551 0)
(-0.00333006 0.029354 0)
(-0.00260867 0.0254615 0)
(-0.00487842 0.0377441 0)
(-0.0072082 0.0456863 0)
(-0.0013008 0.0117499 0)
(-0.00156176 0.0144998 0)
(-0.00177935 0.0186105 0)
(-0.00031011 0.00303863 0)
(-0.00094256 0.00900835 0)
(-0.0156277 0.0565146 0)
(-0.000572386 0.00213956 0)
(-0.00261623 0.009692 0)
(-0.00418418 0.0154113 0)
(-0.00549945 0.0200227 0)
(-0.00941852 0.0343001 0)
(-0.00732271 0.0263834 0)
(-0.00851723 0.0307672 0)
(-0.0106151 0.038425 0)
(-0.0112711 0.0407388 0)
(-0.0128129 0.0460015 0)
(-0.0138998 0.0499329 0)
(-0.0152839 0.0549029 0)
(-0.00905344 0.0537964 0)
(-0.0217464 0.0871045 0)
(-0.0227073 0.0885336 0)
(-0.0159621 0.0741029 0)
(-0.0183102 0.0798191 0)
(-0.0243049 0.0909218 0)
(-0.0237924 0.0880265 0)
(-0.0239265 0.0876835 0)
(-0.0118298 0.0643855 0)
(-0.0198687 0.0716033 0)
(-0.0207508 0.0750587 0)
(-0.0192489 0.0689477 0)
(-0.021951 0.079261 0)
(-0.0180171 0.0647004 0)
(-0.0166669 0.0600839 0)
(-0.0242432 0.0872124 0)
(-0.023719 0.0847537 0)
(-0.0030937 0.0303436 0)
(-0.00201096 0.0242073 0)
(-0.00366377 0.0339721 0)
(-0.0058682 0.0425067 0)
(-0.00147531 0.0152065 0)
(-0.00148578 0.0187042 0)
(-0.000303563 0.00324261 0)
(-0.000783028 0.00837899 0)
(-0.0157987 0.0567542 0)
(-0.0163022 0.0587318 0)
(-0.00109084 0.00403048 0)
(-0.00336034 0.0123738 0)
(-0.00197873 0.00729619 0)
(-0.00468385 0.0171096 0)
(-0.00583218 0.0209979 0)
(-0.00972549 0.0350832 0)
(-0.00677918 0.0242859 0)
(-0.00812336 0.0291655 0)
(-0.00930599 0.0334588 0)
(-0.0104325 0.0375164 0)
(-0.0117952 0.0422942 0)
(-0.0135433 0.0484624 0)
(-0.0125323 0.0448035 0)
(-0.0147525 0.0526494 0)
(-0.01537 0.0548467 0)
(-0.00742212 0.0499652 0)
(-0.0226853 0.0907593 0)
(-0.0244823 0.0930874 0)
(-0.0149172 0.0729679 0)
(-0.0206905 0.0867559 0)
(-0.0251593 0.093997 0)
(-0.0251392 0.0923717 0)
(-0.0253272 0.0912661 0)
(-0.0100459 0.0608172 0)
(-0.0207717 0.0740755 0)
(-0.02173 0.0777715 0)
(-0.0188201 0.0672713 0)
(-0.0202598 0.0718666 0)
(-0.0224438 0.0802435 0)
(-0.0176771 0.0632228 0)
(-0.0244934 0.0873644 0)
(-0.0252754 0.0905041 0)
(-0.0240887 0.0852747 0)
(-0.00201569 0.0265409 0)
(-0.00151384 0.0212044 0)
(-0.00292032 0.0334843 0)
(-0.00579454 0.0439166 0)
(-0.00112891 0.0130521 0)
(-0.00111023 0.0160988 0)
(-0.00050932 0.00567108 0)
(-0.000104006 0.00117943 0)
(-0.000868797 0.0101322 0)
(-0.0164856 0.0589248 0)
(-0.000513826 0.00188299 0)
(-0.00326645 0.0119161 0)
(-0.00245745 0.00896675 0)
(-0.00401915 0.0145839 0)
(-0.00522742 0.0187079 0)
(-0.00707935 0.0250691 0)
(-0.00868254 0.0308819 0)
(-0.0094678 0.0337132 0)
(-0.0109916 0.0391918 0)
(-0.0116793 0.0416215 0)
(-0.0141799 0.0502643 0)
(-0.0129152 0.0457372 0)
(-0.014895 0.0527291 0)
(-0.0163575 0.0577214 0)
(-0.00692212 0.0502152 0)
(-0.0251654 0.0973909 0)
(-0.0261892 0.0983339 0)
(-0.0164834 0.0787163 0)
(-0.0216252 0.0906316 0)
(-0.0272481 0.099621 0)
(-0.0268054 0.0967385 0)
(-0.0266155 0.0950783 0)
(-0.0101959 0.0632077 0)
(-0.00779478 0.0541038 0)
(-0.0215849 0.0766349 0)
(-0.0208304 0.0738117 0)
(-0.0219987 0.0781949 0)
(-0.019587 0.0691609 0)
(-0.0204122 0.0718073 0)
(-0.0233836 0.0828813 0)
(-0.0182805 0.0647167 0)
(-0.0257995 0.0908079 0)
(-0.0263994 0.0933473 0)
(-0.0251242 0.0880535 0)
(-0.00139484 0.0261486 0)
(-0.000896699 0.0195932 0)
(-0.00330828 0.0366561 0)
(-0.00166412 0.0293358 0)
(-0.00452528 0.0409904 0)
(-0.00100877 0.0137226 0)
(-0.000849719 0.0158075 0)
(-0.000403018 0.00493058 0)
(-0.00020293 0.0024957 0)
(-0.000688615 0.00882218 0)
(-0.0170918 0.0605873 0)
(-0.00105092 0.00380189 0)
(-0.00210093 0.00759194 0)
(-0.00422809 0.0152028 0)
(-0.00554324 0.0196089 0)
(-0.00796378 0.027991 0)
(-0.00643113 0.0226422 0)
(-0.00867745 0.0305703 0)
(-0.0102076 0.0360716 0)
(-0.0109516 0.0387366 0)
(-0.0123394 0.0436305 0)
(-0.0141847 0.0499564 0)
(-0.013577 0.0478027 0)
(-0.0156672 0.0549377 0)
(-0.0164269 0.0574988 0)
(-0.0170797 0.0601452 0)
(-0.00487336 0.0440544 0)
(-0.0265369 0.100141 0)
(-0.0266425 0.102362 0)
(-0.0278505 0.102101 0)
(-0.0198455 0.0873249 0)
(-0.0149065 0.0763314 0)
(-0.0253679 0.10025 0)
(-0.0282799 0.101838 0)
(-0.0272111 0.0972154 0)
(-0.0280714 0.100631 0)
(-0.0276731 0.0975064 0)
(-0.00737529 0.056179 0)
(-0.0119336 0.0689833 0)
(-0.00633121 0.0516374 0)
(-0.022298 0.0783075 0)
(-0.0218592 0.0766676 0)
(-0.0231515 0.0813672 0)
(-0.0193599 0.0680369 0)
(-0.0213738 0.0743741 0)
(-0.0237892 0.0835068 0)
(-0.0179976 0.0634732 0)
(-0.0265688 0.0932883 0)
(-0.0260054 0.0908492 0)
(-0.0274624 0.0964871 0)
(-0.0253455 0.0881884 0)
(-0.000530943 0.0226865 0)
(-0.000724291 0.0171635 0)
(-0.000480334 0.0200957 0)
(-0.00197776 0.0340326 0)
(-0.000984057 0.0293324 0)
(-0.000776803 0.0117305 0)
(-0.000677955 0.013958 0)
(-0.000490696 0.00635878 0)
(-0.000102298 0.00132283 0)
(-0.000674284 0.00968826 0)
(-0.000541264 0.00193866 0)
(-0.00265114 0.00947432 0)
(-0.00363675 0.0129798 0)
(-0.00495602 0.0174438 0)
(-0.00788321 0.0274033 0)
(-0.00688547 0.0239737 0)
(-0.00953995 0.0333199 0)
(-0.0102544 0.0359181 0)
(-0.0117919 0.0412994 0)
(-0.0124814 0.0437483 0)
(-0.0149589 0.0521612 0)
(-0.0139201 0.0484817 0)
(-0.0156905 0.0545875 0)
(-0.0172781 0.0598533 0)
(-0.0181515 0.0631248 0)
(-0.00369652 0.0419472 0)
(-0.0289681 0.106697 0)
(-0.029426 0.108925 0)
(-0.0294946 0.106589 0)
(-0.0216075 0.0932334 0)
(-0.0169532 0.0830433 0)
(-0.0267749 0.104878 0)
(-0.0299951 0.106409 0)
(-0.028786 0.101264 0)
(-0.0298349 0.104941 0)
(-0.0288714 0.100916 0)
(-0.00599447 0.0542861 0)
(-0.0106929 0.0678003 0)
(-0.00419206 0.0454149 0)
(-0.0232215 0.0810699 0)
(-0.0222241 0.0772202 0)
(-0.0199903 0.0694783 0)
(-0.0216477 0.0746421 0)
(-0.0247388 0.0860842 0)
(-0.0187424 0.0652318 0)
(-0.0276636 0.096124 0)
(-0.0270868 0.0935043 0)
(-0.0282226 0.0981031 0)
(-0.0262376 0.0904646 0)
(0.000392892 0.0213772 0)
(-0.000380362 0.0155455 0)
(2.82729e-06 0.0176714 0)
(-0.00192045 0.0360225 0)
(0.000103165 0.026381 0)
(-0.000679833 0.0121536 0)
(-0.000488156 0.0139859 0)
(-0.000437977 0.00602093 0)
(-0.000166974 0.00228109 0)
(-0.000548584 0.00799993 0)
(-0.00111707 0.00395017 0)
(-0.00216442 0.00765546 0)
(-0.00405229 0.0143171 0)
(-0.00501292 0.0174596 0)
(-0.00853985 0.029402 0)
(-0.00652796 0.0225032 0)
(-0.00990145 0.0342341 0)
(-0.0111134 0.0385492 0)
(-0.0118656 0.041161 0)
(-0.0133736 0.0464724 0)
(-0.0147697 0.0511626 0)
(-0.0165843 0.0570382 0)
(-0.0182082 0.062875 0)
(-0.0173836 0.059693 0)
(-0.0301244 0.10905 0)
(-0.0317693 0.115131 0)
(-0.0308104 0.109531 0)
(-0.0247028 0.10088 0)
(-0.0200705 0.0907304 0)
(-0.0157029 0.0815014 0)
(-0.0294545 0.111719 0)
(-0.0308091 0.107885 0)
(-0.0309184 0.109215 0)
(-0.0299768 0.104741 0)
(-0.0299109 0.103354 0)
(-0.00740763 0.0597665 0)
(-0.00320051 0.0465158 0)
(-0.0125846 0.0740276 0)
(-0.00264172 0.0426303 0)
(-0.0241069 0.0832365 0)
(-0.0233497 0.0802185 0)
(-0.0209758 0.0723389 0)
(-0.0196189 0.0678409 0)
(-0.022778 0.0776735 0)
(-0.0254799 0.0876614 0)
(-0.0283093 0.097462 0)
(-0.0281141 0.096457 0)
(-0.0270447 0.0928743 0)
(-0.0293392 0.100948 0)
(-0.0264069 0.0903739 0)
(0.000703527 0.0228403 0)
(0.00091362 0.0180513 0)
(-0.000101507 0.0157212 0)
(0.000552092 0.0168988 0)
(-0.000558755 0.0334396 0)
(0.0010175 0.02605 0)
(-0.000592872 0.0108567 0)
(-0.000462905 0.0127472 0)
(-0.000316589 0.00439816 0)
(-7.14923e-05 0.000975601 0)
(-0.000514482 0.00786681 0)
(-0.000583531 0.00203879 0)
(-0.00276033 0.00965712 0)
(-0.00364105 0.0127527 0)
(-0.00563165 0.0194373 0)
(-0.00421103 0.0146307 0)
(-0.00827505 0.0282176 0)
(-0.00953322 0.0327528 0)
(-0.00726188 0.0247619 0)
(-0.0109582 0.0377094 0)
(-0.0127896 0.0439386 0)
(-0.0135969 0.0467769 0)
(-0.0154407 0.0529289 0)
(-0.0165087 0.0563447 0)
(-0.0190727 0.0649983 0)
(-0.0184583 0.0627098 0)
(-0.0321017 0.113958 0)
(-0.0325992 0.118183 0)
(-0.0336713 0.119083 0)
(-0.032338 0.113781 0)
(-0.0267246 0.107062 0)
(-0.0219696 0.0966361 0)
(-0.0178487 0.088196 0)
(-0.0295683 0.113479 0)
(-0.0315274 0.116436 0)
(-0.0322774 0.111637 0)
(-0.0325357 0.11296 0)
(-0.0313654 0.107936 0)
(-0.0310905 0.106664 0)
(-0.0300786 0.103226 0)
(-0.00597151 0.0581848 0)
(-0.000960029 0.0420295 0)
(-0.0114153 0.0728266 0)
(-0.000738163 0.0365127 0)
(-0.0252872 0.0866742 0)
(-0.0241869 0.0829061 0)
(-0.0236011 0.0803474 0)
(-0.0213152 0.0727613 0)
(-0.0204116 0.0698246 0)
(-0.0231016 0.0780201 0)
(-0.0294894 0.100755 0)
(-0.0292152 0.0988588 0)
(-0.0279439 0.0948456 0)
(-0.0274531 0.0930126 0)
(0.00183488 0.0203341 0)
(0.00176533 0.0161997 0)
(0.00011278 0.0142352 0)
(0.000587968 0.0145396 0)
(0.000891069 0.0285381 0)
(0.00223485 0.0216734 0)
(-0.000550807 0.00912809 0)
(-0.000538488 0.0113496 0)
(-0.000368008 0.0122248 0)
(-0.000330327 0.00465353 0)
(-0.000138067 0.00185321 0)
(-0.000425918 0.00620115 0)
(-0.00128169 0.00442166 0)
(-0.00240515 0.00831138 0)
(-0.00510442 0.0174572 0)
(-0.00417061 0.0143504 0)
(-0.00893051 0.0301743 0)
(-0.010239 0.0347274 0)
(-0.00714976 0.0241006 0)
(-0.0115861 0.0394435 0)
(-0.0130347 0.0443547 0)
(-0.0144741 0.0493522 0)
(-0.0152832 0.0520482 0)
(-0.0172909 0.0583237 0)
(-0.0200383 0.0678328 0)
(-0.018801 0.0632616 0)
(-0.0334882 0.117835 0)
(-0.0357992 0.125894 0)
(-0.0358956 0.124714 0)
(-0.0337757 0.117026 0)
(-0.0254297 0.105082 0)
(-0.0208502 0.0952442 0)
(-0.0167416 0.0870985 0)
(-0.0320709 0.119821 0)
(-0.0335032 0.122146 0)
(-0.0330681 0.113311 0)
(-0.0337998 0.116392 0)
(-0.0327348 0.111558 0)
(-0.0320299 0.108608 0)
(-0.0314061 0.106497 0)
(-0.00299686 0.0509665 0)
(-0.00830489 0.0656089 0)
(-0.000808119 0.043844 0)
(0.000904277 0.0356133 0)
(-0.0135353 0.0794639 0)
(0.000744269 0.033689 0)
(-0.0262602 0.0887087 0)
(-0.0255088 0.0862415 0)
(-0.0247158 0.0831914 0)
(-0.0222921 0.0753867 0)
(-0.0205989 0.0699025 0)
(-0.0242533 0.0809912 0)
(-0.0305316 0.103076 0)
(-0.0303998 0.10208 0)
(-0.0289942 0.0977003 0)
(-0.0281065 0.0941946 0)
(0.00241579 0.0170175 0)
(0.00178594 0.0138348 0)
(-0.000164584 0.0127876 0)
(0.000950496 0.0134681 0)
(0.00235947 0.0261379 0)
(0.00352994 0.0192746 0)
(-0.000550114 0.00840341 0)
(-0.000563293 0.0104697 0)
(-0.000555051 0.0109903 0)
(-0.000257071 0.00349143 0)
(-7.09395e-05 0.000881476 0)
(-0.000428062 0.00588289 0)
(-0.000711113 0.00242015 0)
(-0.00325313 0.0111369 0)
(-0.00527014 0.0178279 0)
(-0.00882542 0.0295383 0)
(-0.00986764 0.0332649 0)
(-0.0112253 0.0379283 0)
(-0.00624821 0.0209887 0)
(-0.00806298 0.0269279 0)
(-0.0125234 0.0424456 0)
(-0.0141011 0.0475249 0)
(-0.0146826 0.049557 0)
(-0.016106 0.0541921 0)
(-0.0182289 0.0611764 0)
(-0.0170068 0.056977 0)
(-0.0208839 0.0697795 0)
(-0.0199211 0.066281 0)
(-0.0352937 0.121771 0)
(-0.0371621 0.129898 0)
(-0.0369053 0.127847 0)
(-0.0372067 0.127284 0)
(-0.0352057 0.120877 0)
(-0.0268177 0.109691 0)
(-0.0234693 0.102589 0)
(-0.0192437 0.0945713 0)
(-0.0334815 0.12412 0)
(-0.0358946 0.127768 0)
(-0.0346331 0.117258 0)
(-0.0332081 0.113199 0)
(-0.035124 0.119353 0)
(-0.0338477 0.113769 0)
(-0.0333446 0.111974 0)
(-0.0320387 0.107636 0)
(-0.00128182 0.0489214 0)
(-0.00803263 0.0669681 0)
(0.00187474 0.0377918 0)
(0.00294457 0.0305269 0)
(-0.0117639 0.0766981 0)
(0.00222182 0.028724 0)
(-0.0275192 0.0920417 0)
(-0.0257219 0.0862539 0)
(-0.025009 0.0834298 0)
(-0.0225834 0.075624 0)
(-0.0217763 0.073051 0)
(-0.024605 0.0813386 0)
(-0.0316864 0.106202 0)
(-0.0315845 0.104624 0)
(-0.0301121 0.0999979 0)
(-0.0296321 0.098147 0)
(0.0034278 0.0148859 0)
(0.00243532 0.0118692 0)
(-0.000320419 0.011681 0)
(0.000680627 0.0120873 0)
(0.00387209 0.0210663 0)
(0.00420754 0.0156722 0)
(-0.000597776 0.00919426 0)
(-0.000505162 0.00687546 0)
(-0.00075646 0.0102223 0)
(-0.000331325 0.00428985 0)
(-0.000164084 0.00185746 0)
(-0.00139856 0.00469843 0)
(-0.00332038 0.0112427 0)
(-0.00440037 0.0148084 0)
(-0.00963102 0.0319751 0)
(-0.0103043 0.0343437 0)
(-0.0118997 0.0397728 0)
(-0.00633833 0.0209998 0)
(-0.00812118 0.0268021 0)
(-0.0132091 0.0442182 0)
(-0.0141813 0.0473188 0)
(-0.0157171 0.0525896 0)
(-0.0188676 0.0626309 0)
(-0.0178622 0.0590561 0)
(-0.0219446 0.0729657 0)
(-0.0208553 0.0691518 0)
(-0.0198376 0.0655325 0)
(-0.0368406 0.125766 0)
(-0.0398249 0.136119 0)
(-0.0390746 0.13286 0)
(-0.0389192 0.131442 0)
(-0.036608 0.123864 0)
(-0.0298516 0.117443 0)
(-0.023084 0.103188 0)
(-0.0177319 0.0926686 0)
(-0.0367437 0.131463 0)
(-0.0328323 0.123783 0)
(-0.0375842 0.132521 0)
(-0.0347279 0.116977 0)
(-0.0354292 0.119527 0)
(-0.0364471 0.1229 0)
(-0.0352263 0.117241 0)
(-0.0342172 0.113533 0)
(-0.0334607 0.11118 0)
(-0.0023198 0.053491 0)
(0.00180721 0.04039 0)
(-0.00570661 0.0623469 0)
(0.00449239 0.0301801 0)
(0.00461956 0.027666 0)
(0.00352801 0.0266924 0)
(-0.0132881 0.0820077 0)
(-0.0284144 0.0937495 0)
(-0.0268521 0.0888021 0)
(-0.0263091 0.0867566 0)
(-0.0237175 0.0785536 0)
(-0.0258703 0.0844968 0)
(-0.0329949 0.109026 0)
(-0.0329716 0.108353 0)
(-0.0314614 0.103594 0)
(-0.0304032 0.0995209 0)
(0.00384928 0.0123307 0)
(0.00193877 0.010716 0)
(0.00342419 0.0110972 0)
(-7.02389e-05 0.0115616 0)
(-0.000842184 0.0107192 0)
(0.00109616 0.0109845 0)
(0.00538988 0.0186189 0)
(0.00552158 0.0123213 0)
(-0.000688289 0.00863125 0)
(-0.000552881 0.00636509 0)
(-0.000819447 0.00916802 0)
(-0.000317074 0.00363172 0)
(-9.7819e-05 0.000968508 0)
(-0.000696853 0.00231012 0)
(-0.00258474 0.00868319 0)
(-0.0044407 0.0147501 0)
(-0.0098349 0.0323161 0)
(-0.0111538 0.0369078 0)
(-0.012928 0.0430363 0)
(-0.0118372 0.0392407 0)
(-0.00731881 0.0240601 0)
(-0.00538875 0.0177666 0)
(-0.00911988 0.0298555 0)
(-0.0149868 0.0494868 0)
(-0.0163499 0.0540747 0)
(-0.0187683 0.06184 0)
(-0.0175652 0.0576882 0)
(-0.0230121 0.0756298 0)
(-0.0220655 0.0721171 0)
(-0.0204186 0.06673 0)
(-0.0383077 0.128755 0)
(-0.0410035 0.139528 0)
(-0.0411473 0.138584 0)
(-0.040623 0.136815 0)
(-0.0395855 0.133511 0)
(-0.0401226 0.133801 0)
(-0.0380971 0.127655 0)
(-0.0296781 0.118601 0)
(-0.0262264 0.111384 0)
(-0.0200138 0.0996004 0)
(-0.0388994 0.137064 0)
(-0.0361508 0.132184 0)
(-0.0400737 0.138095 0)
(-0.0356162 0.118786 0)
(-0.0371063 0.123453 0)
(-0.0376953 0.125442 0)
(-0.0364962 0.119952 0)
(-0.0356381 0.116925 0)
(-0.0340874 0.112091 0)
(-0.000165713 0.0502372 0)
(0.00442746 0.0346526 0)
(-0.00658351 0.0668786 0)
(0.00649966 0.0268189 0)
(0.00641621 0.0208569 0)
(0.00511611 0.022 0)
(-0.010614 0.0772349 0)
(-0.0297409 0.0972416 0)
(-0.0280241 0.0920166 0)
(-0.0268223 0.087488 0)
(-0.023981 0.0786317 0)
(-0.0261979 0.0846872 0)
(-0.0342456 0.110996 0)
(-0.0326903 0.106204 0)
(-0.0319606 0.103275 0)
(0.00512815 0.0104579 0)
(0.00220225 0.00905047 0)
(0.00391147 0.00855942 0)
(-0.000581262 0.0109969 0)
(-0.00131119 0.0104072 0)
(0.000658043 0.0102059 0)
(0.0069561 0.0134846 0)
(0.00679959 0.0108733 0)
(-0.000672695 0.00731571 0)
(-0.000452304 0.00473009 0)
(-0.000963644 0.00844295 0)
(-0.000191415 0.00160899 0)
(-0.00152162 0.00499382 0)
(-0.00332956 0.0110485 0)
(-0.0106995 0.0349191 0)
(-0.0113225 0.0370806 0)
(-0.0134641 0.0442826 0)
(-0.012795 0.041983 0)
(-0.00753233 0.0244347 0)
(-0.00555937 0.0180825 0)
(-0.0093985 0.0303975 0)
(-0.0160004 0.0526438 0)
(-0.015057 0.0492353 0)
(-0.0196945 0.0642265 0)
(-0.0183918 0.0595446 0)
(-0.0231328 0.075353 0)
(-0.0221568 0.0718191 0)
(-0.0213505 0.0692546 0)
(-0.0398927 0.132692 0)
(-0.043563 0.145374 0)
(-0.0435753 0.144229 0)
(-0.0423782 0.140272 0)
(-0.041536 0.137893 0)
(-0.0418582 0.138042 0)
(-0.0394863 0.130442 0)
(-0.032377 0.125598 0)
(-0.0268682 0.114398 0)
(-0.0246029 0.110368 0)
(-0.0174468 0.095305 0)
(-0.041711 0.143121 0)
(-0.0387261 0.137543 0)
(-0.0367107 0.134506 0)
(-0.0420091 0.143069 0)
(-0.0373384 0.12293 0)
(-0.0380843 0.125235 0)
(-0.0391741 0.129074 0)
(-0.0379472 0.123773 0)
(-0.0366363 0.119753 0)
(-0.0364764 0.118291 0)
(-0.0356336 0.115715 0)
(0.00323676 0.0420621 0)
(-0.00306684 0.0594316 0)
(0.00535566 0.034623 0)
(0.00869368 0.021279 0)
(0.00846042 0.0152397 0)
(-0.0124198 0.0834886 0)
(-0.0307554 0.0992511 0)
(-0.0291741 0.0944268 0)
(-0.0282468 0.0909475 0)
(-0.0251884 0.0815968 0)
(-0.0274755 0.0877322 0)
(-0.0355874 0.114412 0)
(-0.0340076 0.109735 0)
(-0.0328789 0.105949 0)
(-0.0321466 0.102965 0)
(0.00569699 0.0079034 0)
(0.0031253 0.00787477 0)
(0.00120857 0.00909791 0)
(0.00500783 0.0070867 0)
(-0.000209608 0.0104335 0)
(-0.00142602 0.0109443 0)
(-0.00161552 0.00967148 0)
(-0.0016384 0.010738 0)
(0.00869335 0.0111008 0)
(0.00807527 0.00593431 0)
(-0.000791278 0.00720196 0)
(-0.000484791 0.00429773 0)
(-0.00119674 0.00819265 0)
(-8.87072e-05 0.000659008 0)
(-0.000364555 0.00297634 0)
(-0.0014423 0.00468928 0)
(-0.00294419 0.0096805 0)
(-0.0111482 0.0359584 0)
(-0.0122006 0.0395921 0)
(-0.0143803 0.046935 0)
(-0.0129333 0.0420088 0)
(-0.00862093 0.0277554 0)
(-0.00670535 0.0216421 0)
(-0.00469659 0.0151858 0)
(-0.0105644 0.0339017 0)
(-0.0166939 0.0542415 0)
(-0.0160892 0.0521173 0)
(-0.0200545 0.0647591 0)
(-0.0178135 0.0574194 0)
(-0.0195418 0.0628146 0)
(-0.0243018 0.078162 0)
(-0.0233222 0.074599 0)
(-0.0218469 0.0700225 0)
(-0.0414297 0.135791 0)
(-0.0443715 0.14792 0)
(-0.0447232 0.147444 0)
(-0.044652 0.14615 0)
(-0.0439944 0.144027 0)
(-0.0432412 0.140816 0)
(-0.0411501 0.134502 0)
(-0.0311598 0.124229 0)
(-0.0352195 0.131906 0)
(-0.0272435 0.118131 0)
(-0.019842 0.102368 0)
(-0.0436875 0.148012 0)
(-0.0415014 0.144272 0)
(-0.0399768 0.142222 0)
(-0.0399774 0.129718 0)
(-0.0404623 0.13157 0)
(-0.039568 0.127252 0)
(-0.0382266 0.123129 0)
(-0.0380022 0.121948 0)
(-0.0362591 0.116612 0)
(0.00496475 0.0406232 0)
(-0.00223621 0.0594097 0)
(0.00887395 0.0259789 0)
(0.0100873 0.0205413 0)
(0.0102088 0.0155993 0)
(0.0102272 0.0127918 0)
(-0.00971416 0.0790338 0)
(-0.0305447 0.0981142 0)
(-0.0292455 0.0939157 0)
(-0.0285541 0.0909524 0)
(-0.0253656 0.0813597 0)
(-0.0276936 0.0875379 0)
(-0.0367131 0.116586 0)
(-0.0352978 0.112281 0)
(-0.0346671 0.11009 0)
(-0.033375 0.105478 0)
(0.0071405 0.00536794 0)
(0.00318449 0.00615539 0)
(0.000832761 0.00826064 0)
(0.00550913 0.00463188 0)
(-0.000942202 0.0102493 0)
(-0.00225499 0.011265 0)
(-0.00149909 0.00872366 0)
(-0.00224347 0.0101465 0)
(-0.00243332 0.0108642 0)
(0.0102711 0.00573176 0)
(0.00979904 0.00313909 0)
(-0.000818052 0.00635013 0)
(-0.000671704 0.00518317 0)
(-0.00106187 0.00686918 0)
(-0.000184391 0.00116623 0)
(-0.00046777 0.00318897 0)
(-0.000624451 0.00201795 0)
(-0.00273443 0.00881938 0)
(-0.00355974 0.011568 0)
(-0.0121379 0.0389974 0)
(-0.0147211 0.0474255 0)
(-0.0139448 0.0448411 0)
(-0.00891031 0.0283291 0)
(-0.00700685 0.022283 0)
(-0.00497951 0.0158945 0)
(-0.0109589 0.0346796 0)
(-0.0165068 0.052855 0)
(-0.0212392 0.0679618 0)
(-0.0183015 0.0582872 0)
(-0.0205528 0.0651547 0)
(-0.0243396 0.0775707 0)
(-0.0230356 0.0732402 0)
(-0.0430028 0.139611 0)
(-0.0464446 0.152729 0)
(-0.0473361 0.153178 0)
(-0.0466675 0.15059 0)
(-0.045621 0.147249 0)
(-0.0448907 0.144599 0)
(-0.042668 0.137493 0)
(-0.0336373 0.13063 0)