/*--------------------------------*- C++ -*----------------------------------*\
| =========                 |                                                 |
| \\      /  F ield         | OpenFOAM: The Open Source CFD Toolbox           |
|  \\    /   O peration     | Version:  v2012                                 |
|   \\  /    A nd           | Website:  www.openfoam.com                      |
|    \\/     M anipulation  |                                                 |
\*---------------------------------------------------------------------------*/
FoamFile
{
    version     2.0;
    format      ascii;
    class       pointVectorField;
    location    "0.56";
    object      pointDisplacement;
}
// * * * * * * * * * * * * * * * * * * * * * * * * * * * * * * * * * * * * * //

dimensions      [0 1 0 0 0 0 0];


internalField   nonuniform List<vector> 
14482
(
(0 0 0)
(0 0 0)
(0 0 0)
(0 0 0)
(0 0 0)
(0 0 0)
(0 0 0)
(0 0 0)
(0 0 0)
(0 0 0)
(0 0 0)
(0 0 0)
(0 0 0)
(0 0 0)
(0 0 0)
(0 0 0)
(0 0 0)
(0 0 0)
(0 0 0)
(0 0 0)
(0 0 0)
(0 0 0)
(0 0 0)
(0 0 0)
(0 0 0)
(0 0 0)
(0 0 0)
(0 0 0)
(0 0 0)
(0 0 0)
(0 0 0)
(0 0 0)
(0 0 0)
(0 0 0)
(0 0 0)
(0 0 0)
(0 0 0)
(0 0 0)
(0 0 0)
(0 0 0)
(0 0 0)
(0 0 0)
(0 0 0)
(0 0 0)
(0 0 0)
(0 0 0)
(0 0 0)
(0 0 0)
(0 0 0)
(0 0 0)
(0 0 0)
(0 0 0)
(0 0 0)
(0 0 0)
(0 0 0)
(0 0 0)
(0 0 0)
(0 0 0)
(0 0 0)
(0 0 0)
(0 0 0)
(0 0 0)
(0 0 0)
(0 0 0)
(0 0 0)
(0 0 0)
(0 0 0)
(0 0 0)
(0 0 0)
(0 0 0)
(0 0 0)
(0 0 0)
(0 0 0)
(0 0 0)
(0 0 0)
(0 0 0)
(0 0 0)
(0 0 0)
(0 0 0)
(0 0 0)
(0 0 0)
(0 0 0)
(0 0 0)
(0.123433 -0.215594 0)
(0.123661 -0.215402 0)
(0.123907 -0.215196 0)
(0.124172 -0.214974 0)
(0.124457 -0.214734 0)
(0.124765 -0.214477 0)
(0.125096 -0.214199 0)
(0.125452 -0.2139 0)
(0.125835 -0.213578 0)
(0.126248 -0.213232 0)
(0.126693 -0.212859 0)
(0.127172 -0.212457 0)
(0.127687 -0.212025 0)
(0.128125 -0.211452 0)
(0.128587 -0.210824 0)
(0.129083 -0.210149 0)
(0.129549 -0.209378 0)
(0.130033 -0.208538 0)
(0.130498 -0.207605 0)
(0.130968 -0.206587 0)
(0.131412 -0.205466 0)
(0.131836 -0.204241 0)
(0.132238 -0.202907 0)
(0.132611 -0.201457 0)
(0.132951 -0.199884 0)
(0.133244 -0.198181 0)
(0.133495 -0.196343 0)
(0.133692 -0.19436 0)
(0.133834 -0.192227 0)
(0.133912 -0.189934 0)
(0.133919 -0.187474 0)
(0.133851 -0.184837 0)
(0.1337 -0.182013 0)
(0.13346 -0.178994 0)
(0.133121 -0.175768 0)
(0.132677 -0.172325 0)
(0.13212 -0.168653 0)
(0.131441 -0.164741 0)
(0.13063 -0.160577 0)
(0.129678 -0.156147 0)
(0.128575 -0.151439 0)
(0.127309 -0.14644 0)
(0.125871 -0.141136 0)
(0.124248 -0.135515 0)
(0.122428 -0.129562 0)
(0.120399 -0.123265 0)
(0.118149 -0.116609 0)
(0.115664 -0.109584 0)
(0.112931 -0.102176 0)
(0.109938 -0.0943729 0)
(0.10667 -0.0861648 0)
(0.103117 -0.0775424 0)
(0.0992634 -0.068496 0)
(0.0950998 -0.0590193 0)
(0.090614 -0.0491066 0)
(0.0857959 -0.0387542 0)
(0.0806361 -0.0279597 0)
(0.0751281 -0.0167257 0)
(0.0692643 -0.00505294 0)
(0.0630413 0.00705197 0)
(0.0564569 0.0195809 0)
(0.0495113 0.0325224 0)
(0.0422067 0.045863 0)
(0.0345491 0.0595844 0)
(0.0265457 0.0736677 0)
(0.0182081 0.0880886 0)
(0.00955005 0.102821 0)
(0.000587414 0.117837 0)
(-0.00865887 0.133102 0)
(-0.0181677 0.148585 0)
(-0.0279138 0.164248 0)
(-0.0378703 0.180053 0)
(-0.0480076 0.195959 0)
(-0.0582956 0.211927 0)
(-0.0687011 0.227912 0)
(-0.0791921 0.243875 0)
(-0.0897339 0.25977 0)
(-0.100294 0.275559 0)
(-0.110838 0.2912 0)
(-0.121333 0.306652 0)
(-0.131747 0.321878 0)
(-0.14205 0.336844 0)
(-0.152214 0.351516 0)
(-0.162211 0.365863 0)
(-0.172016 0.379858 0)
(-0.181608 0.393478 0)
(-0.190966 0.4067 0)
(-0.200072 0.419506 0)
(-0.208912 0.431882 0)
(-0.217473 0.443817 0)
(-0.225744 0.455302 0)
(-0.233719 0.466332 0)
(-0.241391 0.476904 0)
(-0.248757 0.487019 0)
(-0.255815 0.496679 0)
(-0.262566 0.505888 0)
(-0.269012 0.514654 0)
(-0.275156 0.522985 0)
(-0.281003 0.53089 0)
(-0.286558 0.538381 0)
(-0.29183 0.54547 0)
(-0.296824 0.552171 0)
(-0.301551 0.558497 0)
(-0.306018 0.564462 0)
(-0.310234 0.570081 0)
(-0.314211 0.575369 0)
(-0.317956 0.58034 0)
(-0.321481 0.585011 0)
(-0.324796 0.589394 0)
(-0.327909 0.593505 0)
(-0.330831 0.597357 0)
(-0.333572 0.600966 0)
(-0.336141 0.604342 0)
(-0.338547 0.607502 0)
(-0.340799 0.610455 0)
(-0.342905 0.613214 0)
(-0.344875 0.615791 0)
(-0.346716 0.618197 0)
(-0.348435 0.620442 0)
(-0.35004 0.622535 0)
(-0.351538 0.624488 0)
(-0.352934 0.626307 0)
(-0.354238 0.628003 0)
(-0.355452 0.629582 0)
(-0.356583 0.631053 0)
(-0.357637 0.632422 0)
(-0.35862 0.633697 0)
(-0.359534 0.634884 0)
(-0.360385 0.635987 0)
(-0.361176 0.637013 0)
(-0.361913 0.637969 0)
(-0.362599 0.638856 0)
(-0.363236 0.639681 0)
(-0.363829 0.640449 0)
(-0.36438 0.641162 0)
(-0.364893 0.641825 0)
(-0.365369 0.642441 0)
(-0.365812 0.643013 0)
(-0.366223 0.643545 0)
(-0.366606 0.644039 0)
(-0.366961 0.644498 0)
(-0.367291 0.644924 0)
(-0.367598 0.645321 0)
(-0.367882 0.645688 0)
(-0.368146 0.646029 0)
(-0.368392 0.646346 0)
(-0.36862 0.646641 0)
(-0.368832 0.646914 0)
(-0.369029 0.647168 0)
(-0.369212 0.647404 0)
(-0.36947 0.647256 0)
(-0.369699 0.647125 0)
(-0.369908 0.647005 0)
(-0.370106 0.646892 0)
(-0.370298 0.646782 0)
(-0.37049 0.646672 0)
(-0.370688 0.646559 0)
(-0.370897 0.646439 0)
(-0.371126 0.646308 0)
(-0.371385 0.64616 0)
(-0.371274 0.645883 0)
(-0.371155 0.645585 0)
(-0.371026 0.645263 0)
(-0.370888 0.644918 0)
(-0.370738 0.644545 0)
(-0.370578 0.644145 0)
(-0.370405 0.643713 0)
(-0.370219 0.643248 0)
(-0.370018 0.642748 0)
(-0.369803 0.642209 0)
(-0.36957 0.641629 0)
(-0.36932 0.641005 0)
(-0.36905 0.640334 0)
(-0.36876 0.639611 0)
(-0.368448 0.638833 0)
(-0.368112 0.637997 0)
(-0.36775 0.637097 0)
(-0.367361 0.63613 0)
(-0.366943 0.635089 0)
(-0.366492 0.63397 0)
(-0.366008 0.632767 0)
(-0.365487 0.631475 0)
(-0.364927 0.630086 0)
(-0.364325 0.628593 0)
(-0.363677 0.626991 0)
(-0.362982 0.625271 0)
(-0.362235 0.623424 0)
(-0.361432 0.621442 0)
(-0.36057 0.619316 0)
(-0.359645 0.617036 0)
(-0.358652 0.614592 0)
(-0.357586 0.611973 0)
(-0.356444 0.609168 0)
(-0.355218 0.606164 0)
(-0.353905 0.602951 0)
(-0.352499 0.599514 0)
(-0.350993 0.595839 0)
(-0.349381 0.591915 0)
(-0.347657 0.587724 0)
(-0.345814 0.583254 0)
(-0.343845 0.578488 0)
(-0.341743 0.573411 0)
(-0.3395 0.568006 0)
(-0.337109 0.562259 0)
(-0.334562 0.556152 0)
(-0.331851 0.549672 0)
(-0.328968 0.5428 0)
(-0.325906 0.535521 0)
(-0.322656 0.527822 0)
(-0.319211 0.519687 0)
(-0.315563 0.511103 0)
(-0.311706 0.502059 0)
(-0.307633 0.492543 0)
(-0.303336 0.482546 0)
(-0.298812 0.472062 0)
(-0.294056 0.461085 0)
(-0.289062 0.449611 0)
(-0.283829 0.437643 0)
(-0.278354 0.425182 0)
(-0.272637 0.412234 0)
(-0.266679 0.398809 0)
(-0.260481 0.38492 0)
(-0.254048 0.370584 0)
(-0.247383 0.35582 0)
(-0.240494 0.340653 0)
(-0.233389 0.325112 0)
(-0.226078 0.309227 0)
(-0.218571 0.293035 0)
(-0.210881 0.276572 0)
(-0.203022 0.259883 0)
(-0.19501 0.243009 0)
(-0.18686 0.225998 0)
(-0.17859 0.208898 0)
(-0.170219 0.19176 0)
(-0.161765 0.174631 0)
(-0.153247 0.157565 0)
(-0.144686 0.140609 0)
(-0.136101 0.123814 0)
(-0.127512 0.107226 0)
(-0.118938 0.0908914 0)
(-0.1104 0.0748527 0)
(-0.101917 0.0591505 0)
(-0.093505 0.0438193 0)
(-0.0851837 0.0288943 0)
(-0.0769685 0.0144033 0)
(-0.0688752 0.000371427 0)
(-0.0609191 -0.013179 0)
(-0.0531126 -0.0262322 0)
(-0.0454684 -0.0387739 0)
(-0.0379973 -0.0507951 0)
(-0.0307088 -0.06229 0)
(-0.0236112 -0.0732563 0)
(-0.0167118 -0.0836937 0)
(-0.0100152 -0.0936084 0)
(-0.00352675 -0.103004 0)
(0.00275075 -0.111891 0)
(0.00881524 -0.12028 0)
(0.0146659 -0.128182 0)
(0.0203027 -0.135612 0)
(0.0257269 -0.142585 0)
(0.0309402 -0.149117 0)
(0.0359455 -0.155224 0)
(0.0407459 -0.160925 0)
(0.0453458 -0.166235 0)
(0.0497494 -0.171172 0)
(0.0539616 -0.175755 0)
(0.0579876 -0.180001 0)
(0.0618331 -0.183926 0)
(0.0655036 -0.187549 0)
(0.0690049 -0.190884 0)
(0.0723434 -0.193947 0)
(0.0755245 -0.196755 0)
(0.0785543 -0.199321 0)
(0.0814385 -0.201661 0)
(0.084183 -0.203787 0)
(0.0867934 -0.205711 0)
(0.0892755 -0.207447 0)
(0.091634 -0.209007 0)
(0.0938737 -0.210401 0)
(0.0959992 -0.21164 0)
(0.0980156 -0.212734 0)
(0.0999273 -0.213692 0)
(0.101737 -0.214525 0)
(0.103449 -0.215239 0)
(0.105066 -0.215849 0)
(0.106594 -0.216352 0)
(0.108034 -0.216764 0)
(0.109388 -0.217093 0)
(0.110659 -0.217347 0)
(0.111851 -0.217532 0)
(0.112967 -0.217642 0)
(0.114007 -0.217713 0)
(0.114976 -0.217721 0)
(0.115877 -0.21771 0)
(0.11671 -0.217624 0)
(0.117485 -0.217544 0)
(0.118202 -0.217456 0)
(0.118835 -0.21723 0)
(0.119424 -0.217021 0)
(0.11997 -0.216826 0)
(0.120478 -0.216645 0)
(0.12095 -0.216478 0)
(0.121388 -0.216322 0)
(0.121795 -0.216177 0)
(0.122173 -0.216042 0)
(0.122524 -0.215917 0)
(0.122849 -0.215802 0)
(0.123152 -0.215694 0)
(-0.0381562 0.150676 0)
(-0.0471971 0.171664 0)
(-0.0456757 0.16657 0)
(-0.057034 0.188659 0)
(-0.0496261 0.171842 0)
(-0.0482497 0.170629 0)
(-0.0767042 0.21836 0)
(-0.0733365 0.213267 0)
(-0.0826501 0.230775 0)
(-0.0223082 0.106572 0)
(-0.0150802 0.0914331 0)
(-0.0222307 0.10906 0)
(-0.0378915 0.163629 0)
(-0.0350102 0.159663 0)
(-0.0516218 0.19123 0)
(-0.0203851 0.109639 0)
(-0.0145397 0.0993403 0)
(-0.0234984 0.118813 0)
(-0.093588 0.270548 0)
(-0.0938606 0.271774 0)
(-0.098824 0.281588 0)
(-0.0836106 0.24926 0)
(-0.0810537 0.24502 0)
(-0.0882515 0.259248 0)
(-0.109254 0.286225 0)
(-0.122107 0.309279 0)
(-0.119175 0.301701 0)
(-0.0478221 0.159512 0)
(-0.0527209 0.170858 0)
(-0.0519387 0.167876 0)
(-0.00749903 0.0761604 0)
(-0.00288813 0.0698981 0)
(-0.0120724 0.0900891 0)
(-0.0223574 0.13312 0)
(-0.0244025 0.140066 0)
(-0.0786651 0.241099 0)
(-0.068719 0.222249 0)
(-0.0647292 0.214871 0)
(-0.00429073 0.0822887 0)
(0.00598389 0.0600625 0)
(-9.66351e-05 0.0761844 0)
(-0.101917 0.288496 0)
(-0.106726 0.298303 0)
(-0.10446 0.292969 0)
(-0.104076 0.285976 0)
(-0.110398 0.298733 0)
(-0.110481 0.296908 0)
(-0.0744009 0.222714 0)
(-0.0769257 0.225802 0)
(-0.0687078 0.209548 0)
(-0.0417862 0.134099 0)
(-0.0430894 0.13588 0)
(-0.0393477 0.127511 0)
(-0.0089317 0.0617096 0)
(-0.0138003 0.0752978 0)
(-0.0128949 0.0693564 0)
(-0.0183249 0.0849452 0)
(-0.00027939 0.0443798 0)
(0.00187284 0.0353726 0)
(0.00382384 0.033959 0)
(0.0129185 0.0627712 0)
(0.00821162 0.0698166 0)
(0.0173073 0.048359 0)
(-0.0272347 0.152243 0)
(-0.0370748 0.169302 0)
(-0.0222493 0.140487 0)
(-0.133088 0.332057 0)
(-0.131744 0.331234 0)
(-0.121249 0.313871 0)
(0.0119394 0.01813 0)
(0.0172122 0.00684119 0)
(0.0127489 0.0213597 0)
(0.0431173 -0.0268701 0)
(0.044529 -0.0237769 0)
(0.0393059 -0.0143443 0)
(-0.115412 0.317942 0)
(-0.114718 0.316232 0)
(-0.116096 0.31964 0)
(-0.118425 0.327365 0)
(-0.118995 0.328555 0)
(-0.11871 0.327603 0)
(-0.140205 0.351647 0)
(-0.13278 0.341188 0)
(-0.1447 0.360214 0)
(-0.201724 0.443646 0)
(-0.184826 0.420372 0)
(-0.199736 0.44246 0)
(-0.161119 0.373213 0)
(-0.160251 0.374152 0)
(-0.171554 0.390212 0)
(-0.135133 0.309225 0)
(-0.127949 0.300359 0)
(-0.138802 0.317733 0)
(-0.108185 0.271975 0)
(-0.110673 0.273264 0)
(-0.102577 0.260768 0)
(-0.0596284 0.177839 0)
(-0.0555273 0.170523 0)
(-0.0617243 0.183339 0)
(-0.0233304 0.0962348 0)
(-0.0292404 0.10985 0)
(-0.0237152 0.0947469 0)
(-0.00442426 0.0385 0)
(-0.00734182 0.0477986 0)
(-0.00603816 0.0413212 0)
(0.00374715 0.0238915 0)
(0.000830816 0.0311543 0)
(0.00232387 0.0237847 0)
(0.0116149 0.000641975 0)
(0.00844067 0.00835722 0)
(0.00872382 0.00174571 0)
(0.0102052 0.0778432 0)
(0.0248402 0.0508843 0)
(0.00975919 0.0843895 0)
(-0.11838 0.306378 0)
(-0.101862 0.279805 0)
(-0.114259 0.299302 0)
(-0.0051664 0.112378 0)
(-0.0226503 0.147058 0)
(-0.0193071 0.138874 0)
(-0.116013 0.304321 0)
(-0.102022 0.280731 0)
(-0.119044 0.308193 0)
(-0.12807 0.33013 0)
(-0.142034 0.352559 0)
(-0.133655 0.340825 0)
(0.0501006 -0.0642994 0)
(0.0455039 -0.0602361 0)
(0.0506898 -0.0694832 0)
(0.0708741 -0.082169 0)
(0.0743846 -0.0785313 0)
(0.068456 -0.0691858 0)
(-0.122083 0.327934 0)
(-0.128488 0.33842 0)
(-0.124905 0.333656 0)
(-0.146833 0.361203 0)
(-0.155593 0.373466 0)
(-0.145337 0.367419 0)
(-0.154218 0.38183 0)
(-0.156869 0.384977 0)
(-0.234756 0.492195 0)
(-0.215437 0.467166 0)
(-0.227256 0.48368 0)
(-0.163237 0.370316 0)
(-0.161441 0.370832 0)
(-0.172345 0.385679 0)
(-0.135216 0.317006 0)
(-0.14596 0.335742 0)
(-0.144346 0.329247 0)
(-0.102031 0.238104 0)
(-0.104034 0.235938 0)
(-0.0926077 0.218201 0)
(-0.0555566 0.16247 0)
(-0.0531633 0.158651 0)
(-0.0572556 0.167306 0)
(-0.032402 0.110085 0)
(-0.0327486 0.109902 0)
(-0.0309048 0.105674 0)
(-0.0194404 0.0780917 0)
(-0.017217 0.0734029 0)
(-0.0208024 0.0834897 0)
(-0.0242455 0.0936937 0)
(-0.0201028 0.0835674 0)
(-0.00563814 0.0479089 0)
(-0.00835257 0.0572017 0)
(-0.00915345 0.0562169 0)
(0.000262731 0.012922 0)
(0.00109759 0.0154924 0)
(0.000234052 0.0158203 0)
(-0.00590778 0.0458414 0)
(0.0223832 0.0613174 0)
(0.0063708 0.095272 0)
(0.0477281 0.0106133 0)
(0.035998 0.0355876 0)
(0.0462698 0.00724046 0)
(-0.125937 0.315762 0)
(-0.119996 0.307333 0)
(-0.108382 0.289224 0)
(-0.0874063 0.256481 0)
(-0.0771649 0.24076 0)
(-0.0886235 0.258259 0)
(-0.130559 0.324669 0)
(-0.151887 0.36652 0)
(-0.165335 0.385352 0)
(-0.16366 0.384425 0)
(0.075916 -0.117333 0)
(0.0701917 -0.113156 0)
(0.0737467 -0.121667 0)
(0.0633851 -0.078019 0)
(0.0640525 -0.085877 0)
(0.068598 -0.0878467 0)
(0.0763684 -0.10897 0)
(0.0826479 -0.116642 0)
(0.0806455 -0.106767 0)
(-0.172033 0.402372 0)
(-0.162986 0.390482 0)
(-0.158454 0.383009 0)
(-0.123721 0.334363 0)
(-0.129038 0.342473 0)
(-0.128817 0.342916 0)
(-0.177285 0.408032 0)
(-0.180837 0.41161 0)
(-0.19094 0.426236 0)
(-0.117024 0.321122 0)
(-0.119883 0.326957 0)
(-0.119101 0.324842 0)
(-0.159495 0.392781 0)
(-0.148631 0.376214 0)
(-0.162758 0.397692 0)
(-0.235217 0.491055 0)
(-0.248457 0.506385 0)
(-0.234105 0.487792 0)
(-0.226454 0.461071 0)
(-0.231538 0.463206 0)
(-0.215813 0.444004 0)
(-0.188094 0.38035 0)
(-0.190553 0.389513 0)
(-0.197196 0.396685 0)
(-0.139469 0.313241 0)
(-0.148435 0.325149 0)
(-0.137541 0.30638 0)
(-0.147112 0.330457 0)
(-0.143846 0.32264 0)
(-0.0994678 0.238144 0)
(-0.108834 0.253456 0)
(-0.0686737 0.175121 0)
(-0.0614264 0.161231 0)
(-0.0637488 0.168296 0)
(-0.0306526 0.104049 0)
(-0.0287948 0.100079 0)
(-0.0137179 0.0647581 0)
(-0.0134998 0.0610995 0)
(-0.0284568 0.100945 0)
(-0.0255623 0.0926687 0)
(-0.0264514 0.0966435 0)
(-0.00423552 0.0336158 0)
(-0.00261003 0.0271779 0)
(-0.00245312 0.0299668 0)
(0.0063972 0.00879648 0)
(0.00149159 0.0121482 0)
(-0.00126328 0.0229562 0)
(-0.0010975 0.0180936 0)
(-0.000425724 0.0176261 0)
(0.0153283 -0.0319845 0)
(0.0119638 -0.0311085 0)
(0.0184337 -0.038931 0)
(0.0301988 0.053054 0)
(0.0174167 0.0761684 0)
(0.0146806 0.0856508 0)
(0.0259806 0.0649378 0)
(0.0825573 -0.0658682 0)
(0.0767553 -0.061147 0)
(0.0840654 -0.0815053 0)
(-0.138454 0.334307 0)
(-0.136656 0.331214 0)
(-0.1451 0.343413 0)
(-0.127347 0.318923 0)
(-0.113264 0.29556 0)
(-0.0992233 0.274569 0)
(-0.105543 0.283901 0)
(-0.0713314 0.231818 0)
(-0.0658068 0.223078 0)
(-0.151266 0.355468 0)
(-0.164442 0.374568 0)
(-0.150887 0.355775 0)
(-0.194488 0.417543 0)
(-0.19014 0.410739 0)
(-0.201991 0.426356 0)
(-0.176535 0.400074 0)
(-0.182056 0.409029 0)
(-0.197971 0.430748 0)
(-0.201336 0.436384 0)
(-0.189736 0.420728 0)
(0.0239663 -0.0380521 0)
(0.0226273 -0.0311043 0)
(0.0199199 -0.0318997 0)
(0.0540563 -0.0846525 0)
(0.053109 -0.0907939 0)
(0.0594112 -0.0981955 0)
(0.0609653 -0.0924155 0)
(0.0654469 -0.094598 0)
(0.0616229 -0.0874138 0)
(0.0717763 -0.0981124 0)
(0.0681907 -0.0939591 0)
(0.0702198 -0.101877 0)
(-0.153661 0.374923 0)
(-0.143095 0.358306 0)
(-0.15543 0.376215 0)
(-0.149446 0.373246 0)
(-0.153197 0.37798 0)
(-0.162166 0.391111 0)
(-0.133308 0.349441 0)
(-0.204515 0.444557 0)
(-0.192696 0.429536 0)
(-0.158068 0.388332 0)
(-0.136066 0.355805 0)
(-0.160642 0.391077 0)
(-0.160182 0.393412 0)
(-0.176669 0.417696 0)
(-0.183968 0.427953 0)
(-0.169873 0.408011 0)
(-0.232178 0.48327 0)
(-0.216485 0.464159 0)
(-0.196975 0.429194 0)
(-0.208169 0.44617 0)
(-0.214094 0.451727 0)
(-0.29728 0.517218 0)
(-0.293467 0.504571 0)
(-0.294319 0.517849 0)
(-0.206411 0.416984 0)
(-0.208324 0.413142 0)
(-0.198087 0.402916 0)
(-0.125354 0.27569 0)
(-0.133262 0.284857 0)
(-0.125678 0.270615 0)
(-0.0739444 0.180802 0)
(-0.0637619 0.162562 0)
(-0.0928265 0.207079 0)
(-0.0890595 0.204034 0)
(-0.098605 0.22142 0)
(-0.035716 0.109464 0)
(-0.0345818 0.107811 0)
(-0.0373595 0.114158 0)
(-0.0447283 0.129117 0)
(-0.0480452 0.135239 0)
(-0.044416 0.127011 0)
(-0.0244126 0.0856675 0)
(-0.0248772 0.0878642 0)
(-0.0261418 0.090658 0)
(-0.0135214 0.0673476 0)
(-0.0104956 0.0566152 0)
(-0.0162271 0.0673501 0)
(-0.0202104 0.0784633 0)
(-0.0171566 0.0678965 0)
(-0.0135349 0.0563536 0)
(-0.0122812 0.0544757 0)
(-0.00468138 0.0312237 0)
(-0.00628494 0.0393289 0)
(-0.00653295 0.0375565 0)
(-0.00471893 0.0111331 0)
(-0.00158673 0.00790045 0)
(-0.00328352 0.0108281 0)
(0.000144627 0.0194499 0)
(-0.000473799 0.0254629 0)
(0.0020563 0.00783173 0)
(0.000172877 0.00958576 0)
(3.50634e-05 0.00780395 0)
(-0.00208132 0.0220234 0)
(-0.00329548 0.0275349 0)
(-0.0030288 0.0237154 0)
(-0.00275678 -0.00180889 0)
(-0.000581908 -0.00119582 0)
(-0.00750466 0.00761284 0)
(-0.0426655 0.186886 0)
(-0.0332411 0.171701 0)
(-0.0419867 0.185995 0)
(-0.00693772 0.12707 0)
(0.00635259 0.1033 0)
(-0.0013915 0.118299 0)
(0.0650525 -0.0244979 0)
(0.0741595 -0.0461271 0)
(0.0703065 -0.0298203 0)
(-0.154477 0.35644 0)
(-0.161134 0.366315 0)
(-0.149721 0.350482 0)
(-0.102447 0.279794 0)
(-0.112733 0.2953 0)
(-0.117834 0.303296 0)
(-0.0751059 0.237166 0)
(-0.0599613 0.212454 0)
(-0.0659791 0.222937 0)
(-0.0690932 0.22837 0)
(-0.0615993 0.216578 0)
(-0.186845 0.405422 0)
(-0.190492 0.409143 0)
(-0.197442 0.419369 0)
(-0.169498 0.380753 0)
(-0.178272 0.392155 0)
(-0.178254 0.393261 0)
(-0.178091 0.394195 0)
(-0.187959 0.409793 0)
(-0.198375 0.42355 0)
(-0.208935 0.441545 0)
(-0.212373 0.447062 0)
(-0.198347 0.428597 0)
(-0.217927 0.453165 0)
(-0.224626 0.462176 0)
(-0.211521 0.448144 0)
(-0.222558 0.461823 0)
(-0.221117 0.46119 0)
(-0.22458 0.466761 0)
(-0.234807 0.478206 0)
(-0.0126028 -0.00763543 0)
(-0.00417545 -0.0199756 0)
(-0.00907788 -0.00880532 0)
(0.0176582 -0.0715169 0)
(0.0146715 -0.0711742 0)
(0.0217132 -0.0796646 0)
(0.0572558 -0.115014 0)
(0.0505183 -0.106546 0)
(0.0500477 -0.109987 0)
(0.0969638 -0.139761 0)
(0.101434 -0.145891 0)
(0.100224 -0.136758 0)
(-0.219208 0.465547 0)
(-0.230862 0.479752 0)
(-0.226557 0.474875 0)
(-0.152997 0.383912 0)
(-0.159193 0.392666 0)
(-0.153531 0.385156 0)
(-0.240509 0.48601 0)
(-0.226837 0.470475 0)
(-0.162692 0.396407 0)
(-0.191239 0.4363 0)
(-0.173362 0.412562 0)
(-0.197594 0.443833 0)
(-0.224792 0.478223 0)
(-0.186735 0.429773 0)
(-0.211904 0.466269 0)
(-0.236574 0.498203 0)
(-0.227685 0.48746 0)
(-0.139803 0.362444 0)
(-0.140524 0.363322 0)
(-0.147955 0.374677 0)
(-0.236888 0.50243 0)
(-0.24164 0.509182 0)
(-0.235568 0.500839 0)
(-0.251995 0.520682 0)
(-0.26492 0.535884 0)
(-0.262739 0.532787 0)
(-0.267644 0.494954 0)
(-0.273489 0.494988 0)
(-0.262698 0.4787 0)
(-0.188139 0.363469 0)
(-0.183208 0.34574 0)
(-0.17536 0.339519 0)
(-0.0969429 0.21061 0)
(-0.109467 0.233985 0)
(-0.101865 0.215119 0)
(-0.0934327 0.191502 0)
(-0.0825005 0.171478 0)
(-0.0885826 0.186164 0)
(-0.0784042 0.18386 0)
(-0.0691659 0.16706 0)
(-0.0294694 0.0900708 0)
(-0.0302297 0.0932862 0)
(-0.0315637 0.095626 0)
(-0.0287844 0.0907507 0)
(-0.027854 0.0871857 0)
(-0.0264199 0.0845322 0)
(-0.00835498 0.045077 0)
(-0.0103922 0.0502224 0)
(-0.00783481 0.0405455 0)
(-0.00933896 0.04405 0)
(-0.0104962 0.0462137 0)
(-0.00809086 0.037416 0)
(-0.0149663 0.0592319 0)
(-0.00698523 0.0349987 0)
(-0.00153979 0.00607765 0)
(0.00225684 0.000697043 0)
(0.00126508 0.00438832 0)
(-0.00300903 0.0108871 0)
(-0.00512109 0.0135741 0)
(-0.00245298 0.0112733 0)
(-0.000663263 0.00977995 0)
(-0.00112569 0.00943042 0)
(-0.000500195 0.0114378 0)
(-0.0018482 0.0103638 0)
(-0.00200279 0.00921332 0)
(-0.000565335 0.0099018 0)
(-0.000497118 0.0115596 0)
(-0.000574008 0.0125147 0)
(-0.0408381 0.0635804 0)
(-0.0500094 0.0816184 0)
(-0.0481881 0.0741214 0)
(-0.0257768 0.159763 0)
(-0.0204307 0.150329 0)
(-0.0239108 0.157002 0)
(-0.0329594 0.17162 0)
(0.00203339 0.113232 0)
(0.0112547 0.0972654 0)
(0.00457636 0.10968 0)
(-0.00564878 0.126957 0)
(0.0819396 -0.0461363 0)
(0.0797832 -0.0349736 0)
(0.0738031 -0.0240364 0)
(0.0518149 0.0251468 0)
(0.0484517 0.03084 0)
(0.0589208 0.00944409 0)
(-0.0902186 0.260634 0)
(-0.0871912 0.255925 0)
(-0.109314 0.289932 0)
(-0.0580328 0.211091 0)
(-0.166092 0.37527 0)
(-0.154188 0.358292 0)
(-0.16292 0.370178 0)
(-0.182088 0.402994 0)
(-0.174178 0.390929 0)
(-0.232362 0.472748 0)
(-0.233678 0.475685 0)
(-0.187315 0.412753 0)
(-0.193092 0.419006 0)
(-0.198979 0.428048 0)
(-0.211614 0.450221 0)
(-0.0664256 0.108951 0)
(-0.0763003 0.125046 0)
(-0.0632535 0.0984033 0)
(0.0209478 -0.0720192 0)
(0.020556 -0.0662458 0)
(0.0127057 -0.0584075 0)
(0.0243441 -0.0930289 0)
(0.0303055 -0.102241 0)
(0.0321789 -0.101381 0)
(0.0739496 -0.131549 0)
(0.0742109 -0.13682 0)
(0.0800754 -0.140311 0)
(0.103212 -0.0911189 0)
(0.101607 -0.092808 0)
(0.106785 -0.105875 0)
(0.1054 -0.143374 0)
(0.106353 -0.152085 0)
(-0.210935 0.453737 0)
(-0.212679 0.456756 0)
(-0.200032 0.439996 0)
(-0.190178 0.427819 0)
(-0.199398 0.439696 0)
(-0.205332 0.44792 0)
(-0.163015 0.394238 0)
(-0.173335 0.407841 0)
(-0.171568 0.405753 0)
(-0.191699 0.432648 0)
(-0.186822 0.425051 0)
(-0.193361 0.433286 0)
(-0.169144 0.40431 0)
(-0.168665 0.403922 0)
(-0.160735 0.39434 0)
(-0.159505 0.393229 0)
(-0.159806 0.392788 0)
(-0.153345 0.383953 0)
(-0.211401 0.45913 0)
(-0.185393 0.426746 0)
(-0.178837 0.41727 0)
(-0.279528 0.548518 0)
(-0.247928 0.513319 0)
(-0.219856 0.478178 0)
(-0.221951 0.481019 0)
(-0.211197 0.465805 0)
(-0.250999 0.519786 0)
(-0.236405 0.500943 0)
(-0.249292 0.516476 0)
(-0.324455 0.588784 0)
(-0.325127 0.584371 0)
(-0.321192 0.584608 0)
(-0.251959 0.515333 0)
(-0.239351 0.49948 0)
(-0.24146 0.503369 0)
(-0.25574 0.504189 0)
(-0.270307 0.522089 0)
(-0.268174 0.516584 0)
(-0.274959 0.476849 0)
(-0.264808 0.460136 0)
(-0.275283 0.487877 0)
(-0.263282 0.497641 0)
(-0.257062 0.484465 0)
(-0.208474 0.339958 0)
(-0.203582 0.32 0)
(-0.19597 0.300605 0)
(-0.140431 0.242567 0)
(-0.143844 0.258699 0)
(-0.154408 0.274872 0)
(-0.11361 0.234734 0)
(-0.126974 0.258307 0)
(-0.118807 0.239119 0)
(-0.0455354 0.115777 0)
(-0.0527129 0.134556 0)
(-0.0528251 0.130672 0)
(-0.0595566 0.137853 0)
(-0.066771 0.15498 0)
(-0.070871 0.159346 0)
(-0.0460707 0.123188 0)
(-0.0469437 0.128526 0)
(-0.0512679 0.135164 0)
(-0.0176115 0.0598034 0)
(-0.0180074 0.0600114 0)
(-0.0162745 0.0551405 0)
(-0.0398291 0.108718 0)
(-0.0380172 0.102335 0)
(-0.0344162 0.0954836 0)
(-0.0193595 0.0664656 0)
(-0.017815 0.062519 0)
(-0.0190015 0.0664721 0)
(-0.0166057 0.0613604 0)
(-0.0150224 0.0555624 0)
(-0.0142443 0.0536385 0)
(-0.0110874 0.0469647 0)
(-0.0125119 0.0513461 0)
(-0.0105206 0.0437679 0)
(-0.00930217 0.0372372 0)
(-0.0108037 0.0422067 0)
(-0.00942135 0.037124 0)
(-0.00521553 0.0245606 0)
(-0.00611187 0.0296072 0)
(-0.00684525 0.0313558 0)
(-0.00375566 0.0245311 0)
(-0.00273606 0.0176908 0)
(-0.00248517 0.0186086 0)
(-0.0143743 0.0268118 0)
(-0.0151707 0.0276739 0)
(-0.0119015 0.0227933 0)
(-0.0072526 0.0161664 0)
(-0.00874525 0.0182115 0)
(-0.0109634 0.0210612 0)
(-0.000619511 0.00990985 0)
(-0.00049561 0.00739262 0)
(-0.00291458 0.00953363 0)
(-0.000880421 0.0110101 0)
(-0.000851074 0.0139292 0)
(-0.000856831 0.011174 0)
(-0.00173466 0.012892 0)
(-0.0412861 0.0725388 0)
(-0.0495942 0.0869629 0)
(-0.0402724 0.0688288 0)
(-0.0136798 0.137785 0)
(-0.00774779 0.129985 0)
(0.0245381 0.0752748 0)
(0.0267786 0.070231 0)
(0.0318993 0.0614323 0)
(0.0721775 -0.0136796 0)
(0.0746592 -0.0178049 0)
(0.0687075 -0.00571067 0)
(0.0938387 -0.0596671 0)
(0.0988486 -0.0731578 0)
(0.0972741 -0.0672805 0)
(0.0403217 0.0397892 0)
(0.0486622 0.0243022 0)
(0.0374386 0.0489062 0)
(-0.142531 0.34096 0)
(-0.155886 0.359817 0)
(-0.0509804 0.200181 0)
(-0.207992 0.436455 0)
(-0.205304 0.434267 0)
(-0.196044 0.421491 0)
(-0.0497723 0.0655033 0)
(-0.0488128 0.0601152 0)
(-0.0380645 0.0428589 0)
(-0.0364194 0.0191055 0)
(-0.0484408 0.0376897 0)
(-0.0344832 0.0104873 0)
(0.0252297 -0.0816254 0)
(0.0357206 -0.115324 0)
(0.0302498 -0.110515 0)
(0.0362491 -0.118611 0)
(0.0808002 -0.135034 0)
(0.0763479 -0.128571 0)
(0.114606 -0.112314 0)
(0.113168 -0.110756 0)
(0.115926 -0.121462 0)
(0.123049 -0.147417 0)
(0.121212 -0.139958 0)
(0.121749 -0.147838 0)
(-0.246858 0.498625 0)
(-0.229907 0.478217 0)
(-0.197155 0.438375 0)
(-0.207059 0.451088 0)
(-0.209723 0.454696 0)
(-0.172555 0.406272 0)
(-0.181934 0.4187 0)
(-0.180289 0.416643 0)
(-0.205851 0.452647 0)
(-0.191652 0.433261 0)
(-0.207042 0.453468 0)
(-0.169692 0.404442 0)
(-0.230648 0.478272 0)
(-0.242955 0.492971 0)
(-0.226392 0.473306 0)
(-0.211036 0.457711 0)
(-0.178397 0.416202 0)
(-0.216529 0.472352 0)
(-0.277928 0.549768 0)
(-0.280252 0.551276 0)
(-0.26393 0.533233 0)
(-0.191482 0.437988 0)
(-0.187479 0.43253 0)
(-0.199853 0.45 0)
(-0.34345 0.60823 0)
(-0.342036 0.606049 0)
(-0.340139 0.605758 0)
(-0.29148 0.56762 0)
(-0.291205 0.56716 0)
(-0.317361 0.592422 0)
(-0.31784 0.593831 0)
(-0.333746 0.607982 0)
(-0.314924 0.591181 0)
(-0.322842 0.574772 0)
(-0.324223 0.579197 0)
(-0.330633 0.585877 0)
(-0.311753 0.563887 0)
(-0.319076 0.572338 0)
(-0.310818 0.557441 0)
(-0.264276 0.447379 0)
(-0.256377 0.45215 0)
(-0.252005 0.43318 0)
(-0.246485 0.428977 0)
(-0.170721 0.279763 0)
(-0.182556 0.308936 0)
(-0.177387 0.290602 0)
(-0.155704 0.296034 0)
(-0.145144 0.270399 0)
(-0.143943 0.277552 0)
(-0.115561 0.131323 0)
(-0.10338 0.111606 0)
(-0.11723 0.14255 0)
(-0.0846093 0.166359 0)
(-0.0936779 0.186287 0)
(-0.091771 0.178079 0)
(-0.0931002 0.176263 0)
(-0.0840253 0.160537 0)
(-0.0578867 0.138331 0)
(-0.0497407 0.117832 0)
(-0.0461967 0.113492 0)
(-0.0650783 0.136162 0)
(-0.0727307 0.153282 0)
(-0.0732738 0.150319 0)
(-0.0729045 0.159668 0)
(-0.0639003 0.141386 0)
(-0.0597816 0.135348 0)
(-0.0245587 0.0734246 0)
(-0.0226 0.0691619 0)
(-0.0245475 0.0748074 0)
(-0.0259311 0.08021 0)
(-0.0243576 0.0768539 0)
(-0.0268228 0.0834261 0)
(-0.0334482 0.0907189 0)
(-0.038579 0.101226 0)
(-0.0322569 0.0853558 0)
(-0.0155791 0.0550664 0)
(-0.0165036 0.0572631 0)
(-0.0149316 0.0524466 0)
(-0.0144282 0.0519529 0)
(-0.0127722 0.0467217 0)
(-0.0140302 0.0512826 0)
(-0.0115622 0.0457318 0)
(-0.00860865 0.0374684 0)
(-0.00589056 0.0263444 0)
(-0.0100125 0.0407959 0)
(-0.0122564 0.0492687 0)
(-0.00555034 0.0314166 0)
(-0.00231675 0.0129891 0)
(-0.00221334 0.0134464 0)
(-0.00330169 0.0189424 0)
(-0.00739455 0.0160048 0)
(-0.00590996 0.0130468 0)
(-0.00854467 0.017291 0)
(-0.0374783 0.0670929 0)
(-0.0455486 0.0823639 0)
(-0.000567816 0.00777409 0)
(-0.000870708 0.00561505 0)
(-0.00135688 0.00745763 0)
(-0.000966709 0.00741455 0)
(-0.00177888 0.00518717 0)
(-0.00282715 0.00736463 0)
(-0.00249088 0.0075842 0)
(-0.000622137 0.00736868 0)
(-0.00115398 0.0117281 0)
(-0.00166603 0.0140988 0)
(-0.00107094 0.00920805 0)
(-0.0852067 0.147116 0)
(-0.075362 0.128402 0)
(-0.0801768 0.142628 0)
(-0.0338892 0.0531582 0)
(-0.0430915 0.0713956 0)
(0.0199177 0.0833308 0)
(0.011433 0.0983382 0)
(0.0180436 0.0857782 0)
(0.0853388 -0.0398084 0)
(0.0861584 -0.0431433 0)
(0.089868 -0.051101 0)
(0.0755901 -0.0225192 0)
(0.0689622 -0.00855187 0)
(0.0953086 -0.0659356 0)
(0.0518705 0.022541 0)
(0.0575035 0.0145737 0)
(0.062428 0.0055658 0)
(0.056145 0.0185243 0)
(-0.0579318 0.0946794 0)
(-0.0575203 0.0904465 0)
(-0.0406776 0.0415232 0)
(-0.0328103 0.0295809 0)
(-0.0424949 0.0215032 0)
(-0.0367111 0.00638038 0)
(-0.031773 0.00148506 0)
(0.00420754 -0.0764207 0)
(-0.00289321 -0.0642436 0)
(-0.00434988 -0.0650108 0)
(0.0681942 -0.151855 0)
(0.0772484 -0.160575 0)
(0.0734604 -0.155187 0)
(0.125703 -0.165636 0)
(0.126623 -0.168638 0)
(0.128294 -0.166504 0)
(0.101959 -0.0793385 0)
(0.106627 -0.0937115 0)
(0.104889 -0.0857621 0)
(0.108186 -0.0945906 0)
(0.105954 -0.0869292 0)
(0.121559 -0.177519 0)
(0.12117 -0.173484 0)
(0.118343 -0.176726 0)
(-0.250927 0.5028 0)
(-0.219232 0.466766 0)
(-0.225409 0.474757 0)
(-0.20438 0.449278 0)
(-0.181844 0.421344 0)
(-0.190901 0.430132 0)
(-0.189654 0.42896 0)
(-0.170723 0.407279 0)
(-0.180314 0.416958 0)
(-0.178398 0.414808 0)
(-0.136152 0.356209 0)
(-0.129237 0.346258 0)
(-0.136172 0.356252 0)
(-0.223114 0.469676 0)
(-0.138134 0.358063 0)
(-0.161101 0.390604 0)
(-0.160828 0.390704 0)
(-0.292079 0.56738 0)
(-0.315275 0.590031 0)
(-0.293557 0.569267 0)
(-0.351504 0.61347 0)
(-0.348852 0.612319 0)
(-0.354748 0.616684 0)
(-0.34133 0.607365 0)
(-0.345312 0.610676 0)
(-0.345377 0.610007 0)
(-0.299297 0.575892 0)
(-0.316971 0.592518 0)
(-0.302999 0.579754 0)
(-0.321849 0.597206 0)
(-0.334279 0.608092 0)
(-0.323834 0.598787 0)
(-0.347239 0.602514 0)
(-0.34984 0.604675 0)
(-0.349587 0.603438 0)
(-0.313866 0.568543 0)
(-0.306012 0.560942 0)
(-0.305918 0.563999 0)
(-0.310376 0.538237 0)
(-0.314836 0.545118 0)
(-0.310181 0.530952 0)
(-0.301005 0.519965 0)
(-0.308186 0.533615 0)
(-0.306067 0.522417 0)
(-0.26953 0.441401 0)
(-0.269253 0.430843 0)
(-0.258989 0.419467 0)
(-0.245843 0.409346 0)
(-0.237646 0.387604 0)
(-0.252381 0.427253 0)
(-0.205694 0.313099 0)
(-0.209484 0.332825 0)
(-0.212844 0.334329 0)
(-0.163868 0.204329 0)
(-0.165546 0.203816 0)
(-0.154943 0.177411 0)
(-0.131997 0.206122 0)
(-0.130033 0.194787 0)
(-0.119001 0.172912 0)
(-0.160609 0.236019 0)
(-0.164321 0.251267 0)
(-0.172313 0.264116 0)
(-0.0678313 0.136571 0)
(-0.0679167 0.133597 0)
(-0.0599689 0.11981 0)
(-0.0569394 0.147063 0)
(-0.0630276 0.157111 0)
(-0.0539411 0.114226 0)
(-0.0566338 0.123385 0)
(-0.0635878 0.135483 0)
(-0.0414017 0.0946436 0)
(-0.0530747 0.119091 0)
(-0.0450142 0.100011 0)
(-0.0280429 0.0768678 0)
(-0.0256876 0.0688897 0)
(-0.0219613 0.0686187 0)
(-0.0204687 0.0636207 0)
(-0.0140318 0.0463664 0)
(-0.0151475 0.0504616 0)
(-0.0157682 0.0515533 0)
(-0.0325283 0.0821685 0)
(-0.0376983 0.0935352 0)
(-0.0310967 0.0766944 0)
(-0.0257894 0.0657454 0)
(-0.0298318 0.0773753 0)
(-0.0142534 0.0508059 0)
(-0.0133937 0.0475801 0)