/*--------------------------------*- C++ -*----------------------------------*\
| =========                 |                                                 |
| \\      /  F ield         | OpenFOAM: The Open Source CFD Toolbox           |
|  \\    /   O peration     | Version:  v2012                                 |
|   \\  /    A nd           | Website:  www.openfoam.com                      |
|    \\/     M anipulation  |                                                 |
\*---------------------------------------------------------------------------*/
FoamFile
{
    version     2.0;
    format      ascii;
    class       volVectorField;
    location    "5";
    object      cellDisplacement;
}
// * * * * * * * * * * * * * * * * * * * * * * * * * * * * * * * * * * * * * //

dimensions      [0 1 0 0 0 0 0];


internalField   nonuniform List<vector> 
27222
(
(3.46367e-06 5.07545e-05 0)
(9.65975e-06 0.000140095 0)
(6.49768e-06 9.85914e-05 0)
(1.64865e-05 0.000246065 0)
(1.13788e-05 0.00016106 0)
(3.14844e-06 4.87769e-05 0)
(1.33272e-05 0.000203674 0)
(2.41865e-05 0.000359949 0)
(5.17201e-06 7.1271e-05 0)
(2.06022e-05 0.000290744 0)
(5.51885e-06 8.81247e-05 0)
(1.51644e-05 0.00023811 0)
(2.66811e-05 0.000385427 0)
(2.89515e-05 0.000442703 0)
(1.18729e-05 0.000158428 0)
(2.44947e-05 0.000337394 0)
(1.07753e-05 0.000172658 0)
(2.48882e-06 4.05738e-05 0)
(2.01511e-05 0.000319126 0)
(3.39585e-05 0.000484721 0)
(3.70107e-05 0.000565485 0)
(2.59875e-05 0.000407506 0)
(6.88293e-06 8.85071e-05 0)
(2.21217e-05 0.000295797 0)
(3.30581e-05 0.00045696 0)
(1.21452e-05 0.000199461 0)
(4.53458e-06 7.58242e-05 0)
(2.02617e-05 0.000329254 0)
(4.1366e-05 0.000596128 0)
(4.26259e-05 0.000634635 0)
(3.94887e-05 0.000620952 0)
(2.83584e-05 0.000456241 0)
(1.34833e-05 0.000167356 0)
(3.216e-05 0.000421039 0)
(3.88145e-05 0.000522587 0)
(1.66785e-05 0.000275407 0)
(8.98876e-06 0.00015053 0)
(2.12166e-06 3.61791e-05 0)
(2.45101e-05 0.000401584 0)
(4.99979e-05 0.000701565 0)
(5.07611e-05 0.00076378 0)
(4.53934e-05 0.000718919 0)
(3.67982e-05 0.000591297 0)
(3.24183e-05 0.000525655 0)
(2.54968e-05 0.000315976 0)
(6.58142e-06 7.85403e-05 0)
(3.41791e-05 0.000434045 0)
(4.8704e-05 0.000657267 0)
(1.73029e-05 0.000292861 0)
(1.02632e-05 0.000175409 0)
(4.32842e-06 7.54116e-05 0)
(2.48943e-05 0.000417053 0)
(5.84188e-05 0.000829286 0)
(5.06594e-05 0.000788427 0)
(5.79209e-05 0.000853245 0)
(4.43484e-05 0.000726392 0)
(3.98566e-05 0.000656782 0)
(3.24481e-05 0.000540538 0)
(3.22003e-05 0.00038537 0)
(1.41146e-05 0.00016266 0)
(4.63232e-05 0.000577095 0)
(5.81631e-05 0.000762801 0)
(1.41526e-05 0.000242839 0)
(2.12046e-05 0.000361156 0)
(8.03711e-06 0.000140011 0)
(2.19045e-06 3.88366e-05 0)
(2.8873e-05 0.000487656 0)
(6.81862e-05 0.000945889 0)
(5.64983e-05 0.000893154 0)
(6.4899e-05 0.000970829 0)
(4.79189e-05 0.00079529 0)
(3.68418e-05 0.000618738 0)
(4.50861e-05 0.000540653 0)
(2.7572e-05 0.000319038 0)
(7.90085e-06 8.6817e-05 0)
(5.74088e-05 0.000723145 0)
(6.96194e-05 0.000926841 0)
(1.40866e-05 0.000246903 0)
(2.1785e-05 0.000378288 0)
(1.03973e-05 0.000183738 0)
(3.68708e-06 6.67396e-05 0)
(2.87066e-05 0.000496349 0)
(7.48674e-05 0.00105994 0)
(6.34616e-05 0.000985517 0)
(5.46664e-05 0.000891983 0)
(7.22683e-05 0.0010619 0)
(4.72745e-05 0.000803027 0)
(3.67746e-05 0.000633782 0)
(5.45984e-05 0.000636203 0)
(3.63578e-05 0.000407735 0)
(1.83542e-05 0.000195236 0)
(6.96308e-05 0.000850978 0)
(8.16615e-05 0.00105693 0)
(1.65315e-05 0.000292639 0)
(2.53893e-05 0.000443816 0)
(1.96973e-05 0.000347032 0)
(1.00508e-05 0.000180673 0)
(7.11729e-06 0.00012927 0)
(1.57919e-06 2.89893e-05 0)
(3.22086e-05 0.000562995 0)
(8.39758e-05 0.0011803 0)
(6.89556e-05 0.00108694 0)
(5.77194e-05 0.00096069 0)
(7.89276e-05 0.00118079 0)
(5.06775e-05 0.000872777 0)
(4.44097e-05 0.00077079 0)
(4.04012e-05 0.000706898 0)
(6.83734e-05 0.000801148 0)
(5.04975e-05 0.000568669 0)
(3.32707e-05 0.000358749 0)
(1.13482e-05 0.000113824 0)
(8.24914e-05 0.00101917 0)
(9.06456e-05 0.00119177 0)
(1.61534e-05 0.000291652 0)
(2.45862e-05 0.000438972 0)
(2.1454e-05 0.000384323 0)
(1.33214e-05 0.000242278 0)
(7.52592e-06 0.000139179 0)
(2.7716e-06 5.17558e-05 0)
(3.13171e-05 0.000560505 0)
(8.99356e-05 0.00122955 0)
(8.61028e-05 0.00125888 0)
(7.70844e-05 0.00119184 0)
(6.83135e-05 0.00111294 0)
(6.33916e-05 0.00105507 0)
(5.45768e-05 0.000935319 0)
(4.74019e-05 0.000834193 0)
(3.8236e-05 0.000689502 0)
(8.08255e-05 0.00091378 0)
(5.91713e-05 0.000642659 0)
(4.79043e-05 0.000504361 0)
(2.90641e-05 0.000284894 0)
(9.41794e-05 0.00112718 0)
(0.000103259 0.00133129 0)
(1.92636e-05 0.000350073 0)
(2.70472e-05 0.000488513 0)
(1.2849e-05 0.000237482 0)
(5.39821e-06 0.000100946 0)
(1.0012e-05 0.000186306 0)
(1.23697e-06 2.34007e-05 0)
(3.38577e-05 0.000615219 0)
(9.87927e-05 0.00135856 0)
(9.43538e-05 0.00138654 0)
(8.08398e-05 0.0012874 0)
(7.47986e-05 0.00123103 0)
(6.27802e-05 0.00108138 0)
(5.73335e-05 0.00100162 0)
(4.75223e-05 0.000854071 0)
(4.02449e-05 0.000740596 0)
(9.3852e-05 0.00107128 0)
(7.60098e-05 0.000822112 0)
(5.06691e-05 0.000512081 0)
(3.10995e-05 0.000291914 0)
(0.000107567 0.00129367 0)
(0.000111353 0.00138667 0)
(0.000106525 0.00141943 0)
(1.99346e-05 0.000368388 0)
(2.61142e-05 0.000480498 0)
(1.46023e-05 0.000273821 0)
(6.04299e-06 0.000114552 0)
(1.01235e-05 0.000191122 0)
(2.38531e-06 4.57536e-05 0)
(3.18448e-05 0.000592815 0)
(0.000101428 0.00143974 0)
(9.52776e-05 0.00145371 0)
(8.78193e-05 0.00139518 0)
(7.36561e-05 0.00125591 0)
(6.67731e-05 0.00116467 0)
(5.52498e-05 0.00099104 0)
(4.42092e-05 0.000811985 0)
(5.08887e-05 0.00092357 0)
(3.76817e-05 0.000710764 0)
(0.00010874 0.00121048 0)
(8.58801e-05 0.000888996 0)
(7.18508e-05 0.00071514 0)
(6.03879e-05 0.000555366 0)
(1.31024e-05 0.000119363 0)
(0.000117969 0.00135919 0)
(0.000127291 0.00158617 0)
(0.000115205 0.00154751 0)
(1.73952e-05 0.000326518 0)
(2.29858e-05 0.000427155 0)
(2.84244e-05 0.000530948 0)
(1.25902e-05 0.000238936 0)
(4.60023e-06 8.82096e-05 0)
(8.29452e-06 0.000157758 0)
(1.13942e-06 2.21128e-05 0)
(3.36937e-05 0.000638181 0)
(0.000111085 0.00156179 0)
(0.000103592 0.00160024 0)
(9e-05 0.00148484 0)
(7.77037e-05 0.00135374 0)
(6.5322e-05 0.00117525 0)
(5.67608e-05 0.00104269 0)
(4.57846e-05 0.000861881 0)
(4.94972e-05 0.000926095 0)
(3.90999e-05 0.000752416 0)
(0.000116114 0.00123716 0)
(0.000106192 0.00108987 0)
(7.87101e-05 0.000747965 0)
(6.77663e-05 0.000591711 0)
(2.46542e-05 0.000211711 0)
(0.000132947 0.00152125 0)
(0.000138808 0.00165912 0)
(0.000126546 0.00165169 0)
(1.83741e-05 0.000350978 0)
(2.33506e-05 0.00044174 0)
(2.64089e-05 0.000501602 0)
(1.25745e-05 0.000242018 0)
(5.98356e-06 0.000115889 0)
(8.29139e-06 0.000159961 0)
(1.83307e-06 3.59827e-05 0)
(3.21999e-05 0.000621921 0)
(0.000115739 0.00166053 0)
(9.92032e-05 0.00161464 0)
(0.000112081 0.00168598 0)
(8.49087e-05 0.00146166 0)
(7.38217e-05 0.00134261 0)
(6.86325e-05 0.00125939 0)
(6.05459e-05 0.00111367 0)
(5.23678e-05 0.000988569 0)
(4.32648e-05 0.000832557 0)
(3.6593e-05 0.000720287 0)
(0.000135407 0.00142745 0)
(0.000118407 0.001152 0)
(0.000104874 0.000981938 0)
(4.92065e-05 0.000416427 0)
(9.60664e-05 0.000821943 0)
(1.13148e-05 9.2565e-05 0)
(0.000142578 0.001561 0)
(0.000154079 0.00183241 0)
(0.000134798 0.00180143 0)
(2.1303e-05 0.000408052 0)
(1.68191e-05 0.000325484 0)
(2.6889e-05 0.000519637 0)
(1.43207e-05 0.000277848 0)
(1.004e-05 0.000194819 0)
(5.35561e-06 0.000104739 0)
(7.08576e-07 1.4055e-05 0)
(3.46004e-06 6.79775e-05 0)
(2.93331e-05 0.000570918 0)
(3.36634e-05 0.000662734 0)
(0.000127451 0.00179068 0)
(0.000102197 0.00171132 0)
(0.000119575 0.001824 0)
(8.61472e-05 0.00154035 0)
(7.54997e-05 0.0014217 0)
(6.51262e-05 0.0012348 0)
(6.07091e-05 0.00115038 0)
(5.25967e-05 0.00101877 0)
(4.36259e-05 0.000859216 0)
(3.75383e-05 0.000754405 0)
(0.000149231 0.00150377 0)
(0.000143139 0.00137971 0)
(0.000115061 0.0010213 0)
(5.38407e-05 0.000428201 0)
(0.000103723 0.000836846 0)
(2.81922e-05 0.000219901 0)
(0.000160572 0.00173544 0)
(0.00015975 0.00198708 0)
(0.000166891 0.00187285 0)
(0.000149402 0.00196283 0)
(2.1869e-05 0.000426231 0)
(1.76029e-05 0.000346368 0)
(2.43931e-05 0.000477635 0)
(1.38403e-05 0.000272411 0)
(1.00175e-05 0.00019685 0)
(6.43514e-06 0.000127246 0)
(1.86245e-06 3.71433e-05 0)
(3.50735e-06 6.96102e-05 0)
(2.90361e-05 0.00057596 0)
(3.14448e-05 0.000628262 0)
(0.000129599 0.00188835 0)
(0.000111029 0.00184738 0)
(9.75102e-05 0.00170656 0)
(0.000118959 0.00190136 0)
(8.07826e-05 0.00151188 0)
(9.13823e-05 0.00163851 0)
(7.05068e-05 0.00138019 0)
(6.56205e-05 0.00128104 0)
(5.70681e-05 0.00110926 0)
(4.956e-05 0.0009845 0)
(4.05889e-05 0.00081541 0)
(4.61335e-05 0.000919824 0)
(3.53365e-05 0.00072586 0)
(0.000168114 0.00171469 0)
(0.000159792 0.00145557 0)
(0.000145211 0.00126413 0)
(7.88474e-05 0.000612419 0)
(0.000132105 0.00104563 0)
(1.86124e-05 0.00013526 0)
(0.000175145 0.00214797 0)
(0.000182822 0.00203887 0)
(0.000151732 0.00209655 0)
(1.97767e-05 0.000390601 0)
(1.57185e-05 0.000311918 0)
(2.46194e-05 0.000490402 0)
(1.20206e-05 0.00023782 0)
(8.24376e-06 0.00016335 0)
(5.00516e-06 9.96762e-05 0)
(1.88298e-06 3.78456e-05 0)
(2.68695e-05 0.000538432 0)
(3.1112e-05 0.000632418 0)
(0.000139473 0.00202817 0)
(0.000108157 0.0019063 0)
(0.000100698 0.00181657 0)
(0.000127546 0.0020423 0)
(8.28091e-05 0.0015992 0)
(8.9241e-05 0.00168027 0)
(6.93811e-05 0.00141661 0)
(6.13256e-05 0.00123262 0)
(5.72628e-05 0.00114617 0)
(5.02439e-05 0.00103058 0)
(4.10834e-05 0.000842963 0)
(4.40043e-05 0.000901478 0)
(3.61934e-05 0.000759358 0)
(3.26777e-05 0.000673049 0)
(0.000185322 0.00184233 0)
(0.000184692 0.00167061 0)
(0.000154972 0.00127393 0)
(8.48069e-05 0.000618983 0)
(0.000142689 0.0010659 0)
(4.83711e-05 0.000339914 0)
(0.000185019 0.00215502 0)
(0.000183227 0.00231419 0)
(0.00020015 0.00213464 0)
(0.000163477 0.00227436 0)
(2.0215e-05 0.000405786 0)
(1.53657e-05 0.000309254 0)
(2.25559e-05 0.00045459 0)
(1.17923e-05 0.00023627 0)
(8.60581e-06 0.00017238 0)
(5.0063e-06 0.000100682 0)
(3.48243e-06 7.03226e-05 0)
(7.38676e-07 1.49178e-05 0)
(2.67685e-05 0.000545984 0)
(2.86248e-05 0.00058789 0)
(0.000138092 0.00210461 0)
(0.000111771 0.00201393 0)
(9.43367e-05 0.00178543 0)
(0.000128034 0.00213821 0)
(7.89489e-05 0.00159918 0)
(6.40493e-05 0.00134734 0)
(7.2481e-05 0.0015062 0)
(6.07629e-05 0.00126359 0)
(5.35653e-05 0.00110278 0)
(4.7342e-05 0.000992227 0)
(3.8969e-05 0.000817011 0)
(4.4512e-05 0.000929885 0)
(3.41314e-05 0.000730534 0)
(3.07464e-05 0.000645967 0)
(0.000192607 0.00181903 0)
(0.00020289 0.00206506 0)
(0.000206245 0.00177794 0)
(0.000184844 0.00146814 0)
(0.000119944 0.000856182 0)
(0.000179906 0.00133417 0)
(4.90607e-05 0.000323075 0)
(0.000200341 0.0023152 0)
(0.000200303 0.00242452 0)
(0.00017829 0.0023783 0)
(0.000212616 0.0023313 0)
(0.000158162 0.00235028 0)
(1.86409e-05 0.000378567 0)
(1.6607e-05 0.000337577 0)
(1.33288e-05 0.000269367 0)
(2.26858e-05 0.000465027 0)
(1.02586e-05 0.000206398 0)
(7.67119e-06 0.000154767 0)
(6.23108e-06 0.000125996 0)
(3.36901e-06 6.85172e-05 0)
(1.26e-06 2.56903e-05 0)
(2.46709e-05 0.000508747 0)
(2.85395e-05 0.000597113 0)
(0.000146137 0.00225221 0)
(0.000106755 0.00204718 0)
(0.000121191 0.00212568 0)
(9.34055e-05 0.00184379 0)
(0.000138926 0.00227375 0)
(8.06409e-05 0.00169261 0)
(6.20007e-05 0.00135583 0)
(6.82127e-05 0.00150269 0)
(5.69033e-05 0.00121249 0)
(5.36246e-05 0.0011369 0)
(4.62167e-05 0.000997642 0)
(3.95041e-05 0.000846216 0)
(4.21392e-05 0.000901057 0)
(3.46508e-05 0.000758546 0)
(3.13802e-05 0.000670679 0)
(0.000216851 0.00201815 0)
(0.000223485 0.00217176 0)
(0.00021044 0.00170691 0)
(0.000227952 0.00201453 0)
(0.000131902 0.000882897 0)
(0.00020106 0.00140917 0)
(1.73474e-05 0.000110776 0)
(9.87981e-05 0.000628082 0)
(0.000213781 0.00260027 0)
(0.000189931 0.0025933 0)
(0.000231662 0.00250776 0)
(0.00016417 0.00251172 0)
(1.90032e-05 0.000391904 0)
(1.57889e-05 0.000325804 0)
(1.28323e-05 0.000262427 0)
(2.07633e-05 0.000430258 0)
(9.91392e-06 0.000201681 0)
(8.48403e-06 0.00017269 0)
(6.12959e-06 0.0001251 0)
(4.11733e-06 8.4184e-05 0)
(2.31434e-06 4.7262e-05 0)
(5.52585e-07 1.1328e-05 0)
(2.45521e-05 0.000515122 0)
(2.65411e-05 0.000561182 0)
(0.000111907 0.00218324 0)
(9.90442e-05 0.00197291 0)
(0.000121568 0.00224043 0)
(8.65737e-05 0.00179669 0)
(0.000140795 0.00239524 0)
(7.54123e-05 0.00166636 0)
(5.74268e-05 0.00128802 0)
(6.34696e-05 0.00142343 0)
(6.94932e-05 0.00157196 0)
(5.54828e-05 0.00122769 0)
(5.08405e-05 0.00110921 0)
(4.75879e-05 0.00104546 0)
(4.2908e-05 0.000935346 0)
(3.72178e-05 0.000816348 0)
(3.25392e-05 0.000724233 0)
(2.9611e-05 0.000644673 0)
(0.000246228 0.00238149 0)
(0.000246417 0.00192025 0)
(0.000253449 0.00219475 0)
(0.000177011 0.00116774 0)
(0.000240108 0.00167359 0)
(2.31314e-05 0.000128011 0)
(0.00010936 0.000649635 0)
(0.000232905 0.00267482 0)
(0.000208836 0.00271216 0)
(0.000180155 0.00264803 0)
(0.000250337 0.00255203 0)
(0.000152959 0.00253312 0)
(1.71467e-05 0.000356795 0)
(1.40634e-05 0.000290714 0)
(1.10024e-05 0.000225479 0)
(2.0789e-05 0.000437914 0)
(7.54855e-06 0.000154671 0)
(5.22209e-06 0.000106949 0)
(3.53081e-06 7.25852e-05 0)
(2.6146e-06 5.37203e-05 0)
(1.06794e-06 2.20475e-05 0)
(2.2603e-05 0.00047921 0)
(2.61397e-05 0.000562643 0)
(0.000106912 0.00223558 0)
(9.32804e-05 0.00199565 0)
(0.000129773 0.00237149 0)
(8.63958e-05 0.00188488 0)
(7.50998e-05 0.00173219 0)
(5.58527e-05 0.00130301 0)
(5.9162e-05 0.00138801 0)
(6.60257e-05 0.00157644 0)
(5.18166e-05 0.00116213 0)
(4.51071e-05 0.00102392 0)
(4.10046e-05 0.00091563 0)
(3.79234e-05 0.000849969 0)
(3.02085e-05 0.000670142 0)
(3.20352e-05 0.000729554 0)
(2.73999e-05 0.000597515 0)
(0.000266532 0.00241734 0)
(0.000260037 0.00190298 0)
(0.00026752 0.00217611 0)
(0.000196518 0.0012093 0)
(0.000266189 0.00173396 0)
(6.3331e-05 0.000347072 0)
(0.000161248 0.000940245 0)
(0.000250129 0.00287617 0)
(0.00022195 0.00290917 0)
(0.000184145 0.00281936 0)
(0.000276461 0.00280305 0)
(0.000153696 0.00268038 0)
(1.71363e-05 0.000361505 0)
(1.31846e-05 0.000275151 0)
(1.05219e-05 0.00021777 0)
(1.89945e-05 0.000403712 0)
(7.79008e-06 0.000160969 0)
(5.04789e-06 0.000104172 0)
(3.97304e-06 8.20485e-05 0)
(2.04525e-06 4.22457e-05 0)
(5.0635e-07 1.04997e-05 0)
(2.24159e-05 0.000483577 0)
(2.40061e-05 0.000521643 0)
(0.000113056 0.00239538 0)
(9.58588e-05 0.00211626 0)
(0.00012721 0.00248211 0)
(8.00263e-05 0.00184379 0)
(6.90795e-05 0.00167454 0)
(5.23685e-05 0.00125584 0)
(5.78098e-05 0.00141783 0)
(6.07547e-05 0.00150783 0)
(4.93109e-05 0.00114248 0)
(4.5875e-05 0.00106804 0)
(4.19331e-05 0.000957034 0)
(3.60946e-05 0.000829244 0)
(2.8502e-05 0.000644291 0)
(2.9397e-05 0.000674923 0)
(3.33859e-05 0.000771279 0)
(2.57577e-05 0.000572293 0)
(0.00029349 0.00262937 0)
(0.000303416 0.00215073 0)
(0.000302462 0.00240459 0)
(0.00024754 0.00150947 0)
(0.000310883 0.00204093 0)
(9.09226e-05 0.000472413 0)
(0.000163146 0.000883043 0)
(0.000274027 0.00296032 0)
(0.000244222 0.00300079 0)
(0.000216446 0.00301231 0)
(0.000199966 0.00297079 0)
(0.000168249 0.00282981 0)
(0.000300082 0.00284789 0)
(0.000137887 0.00265024 0)
(1.57528e-05 0.00033496 0)
(1.15015e-05 0.000239935 0)
(1.32962e-05 0.000280709 0)
(9.08855e-06 0.000188679 0)
(1.87899e-05 0.000406141 0)
(6.67793e-06 0.00013877 0)
(5.53532e-06 0.000114883 0)
(3.50305e-06 7.26884e-05 0)
(2.49718e-06 5.18315e-05 0)
(8.00785e-07 1.67027e-05 0)
(2.03815e-05 0.000444207 0)
(2.38451e-05 0.000527616 0)
(0.000106602 0.00245066 0)
(8.82637e-05 0.00211795 0)
(7.72923e-05 0.00189128 0)
(6.66792e-05 0.00170803 0)
(5.03397e-05 0.00126735 0)
(4.9503e-05 0.00118231 0)
(5.23051e-05 0.00133997 0)
(5.78118e-05 0.00152837 0)
(4.31624e-05 0.00103859 0)
(3.97568e-05 0.000932858 0)
(3.69847e-05 0.000870282 0)
(2.62682e-05 0.000593632 0)
(2.83843e-05 0.000664713 0)
(3.18967e-05 0.000755628 0)
(0.000315431 0.00263895 0)
(0.000325172 0.00239769 0)
(0.000279202 0.00158917 0)
(0.000346664 0.00215203 0)
(8.34653e-05 0.00040765 0)
(0.00020689 0.00107979 0)
(0.0002922 0.0032005 0)
(0.000256459 0.00318088 0)
(0.000230325 0.00322603 0)
(0.00019955 0.00311471 0)
(0.000169904 0.00297352 0)
(0.000326341 0.00306094 0)
(0.000134049 0.00277479 0)
(1.57595e-05 0.000340002 0)
(1.417e-05 0.000301171 0)
(1.09214e-05 0.000229923 0)
(1.17516e-05 0.000249162 0)
(8.91099e-06 0.000186651 0)
(1.6997e-05 0.000369651 0)
(6.87581e-06 0.000144079 0)
(4.82697e-06 0.000100695 0)
(3.88948e-06 8.1083e-05 0)
(2.19485e-06 4.57458e-05 0)
(3.12136e-07 6.5288e-06 0)
(1.48613e-06 3.10355e-05 0)
(2.01799e-05 0.000447128 0)
(2.20394e-05 0.000492364 0)
(0.000109903 0.00260021 0)
(9.53977e-05 0.0023692 0)
(8.83978e-05 0.00223692 0)
(7.98712e-05 0.00199907 0)
(6.9994e-05 0.0018114 0)
(6.05433e-05 0.00162969 0)
(4.65659e-05 0.00119234 0)
(4.62749e-05 0.00114618 0)
(4.99886e-05 0.00135051 0)
(5.25744e-05 0.00144849 0)
(4.33575e-05 0.00107682 0)
(4.02575e-05 0.000970586 0)
(3.50403e-05 0.000845879 0)
(2.46101e-05 0.000565757 0)
(2.95692e-05 0.000704099 0)
(2.63486e-05 0.000621838 0)
(3.2685e-05 0.00079022 0)
(0.000347648 0.00287126 0)
(0.000367869 0.00265473 0)
(0.000335562 0.00192283 0)
(0.000262059 0.00139595 0)
(0.000392548 0.00246413 0)
(0.00015475 0.000720781 0)
(3.39675e-05 0.000157834 0)
(0.000204152 0.00098298 0)
(0.000315667 0.00331088 0)
(0.000278666 0.00328873 0)
(0.000247859 0.00329916 0)
(0.000217631 0.00327542 0)
(0.00018672 0.00311047 0)
(0.000160122 0.00302791 0)
(0.000330372 0.00324644 0)
(0.00035145 0.00307295 0)
(0.000144982 0.00295971 0)
(0.000119616 0.00272917 0)
(1.43055e-05 0.000310058 0)
(1.34265e-05 0.000288762 0)
(9.77249e-06 0.000206027 0)
(1.11563e-05 0.000238921 0)
(7.87612e-06 0.000165594 0)
(1.62454e-05 0.00035846 0)
(5.86594e-06 0.00012347 0)
(4.95637e-06 0.000104047 0)
(3.42492e-06 7.17463e-05 0)
(2.70553e-06 5.66573e-05 0)
(5.16099e-07 1.08387e-05 0)
(1.53469e-06 3.21846e-05 0)
(1.85034e-05 0.000414363 0)
(2.16572e-05 0.000491688 0)
(9.70022e-05 0.00260029 0)
(9.01087e-05 0.00247173 0)
(7.86352e-05 0.00219724 0)
(7.20829e-05 0.00197704 0)
(6.69801e-05 0.00185602 0)
(5.71247e-05 0.00165477 0)
(4.32249e-05 0.00115254 0)
(4.53575e-05 0.00127402 0)
(4.95147e-05 0.0014555 0)
(4.02607e-05 0.00103563 0)
(3.77142e-05 0.000936311 0)
(3.53095e-05 0.000875113 0)
(2.4833e-05 0.000581692 0)
(2.26838e-05 0.000521414 0)
(2.82582e-05 0.000688363 0)
(2.54155e-05 0.000612843 0)
(3.10152e-05 0.000766465 0)
(0.000376103 0.00289611 0)
(0.000400065 0.00269264 0)
(0.000375884 0.00201101 0)
(0.000304102 0.00149923 0)
(0.00043532 0.00253848 0)
(0.000157462 0.000664843 0)
(8.38584e-05 0.000352354 0)
(0.000269172 0.00124546 0)
(0.00032898 0.00353198 0)
(0.000282932 0.00345821 0)
(0.000261419 0.0034603 0)
(0.000216857 0.00340504 0)
(0.000185762 0.00324317 0)
(0.000169159 0.00320251 0)
(0.000356232 0.00343485 0)
(0.000378904 0.0032801 0)
(0.000136372 0.0030699 0)
(0.000113217 0.00284188 0)
(1.37772e-05 0.000301717 0)
(1.19749e-05 0.000258362 0)
(9.13271e-06 0.000194157 0)
(9.68807e-06 0.000207632 0)
(8.00683e-06 0.0001698 0)
(1.68288e-05 0.000375993 0)
(1.45427e-05 0.000321407 0)
(5.96228e-06 0.000126405 0)
(4.00207e-06 8.41846e-05 0)
(2.19599e-06 4.61337e-05 0)
(1.98768e-07 4.18048e-06 0)
(1.04354e-06 2.19314e-05 0)
(1.84998e-05 0.000421198 0)
(1.98875e-05 0.000455156 0)
(9.7414e-05 0.00273283 0)
(8.17623e-05 0.00241478 0)
(7.11121e-05 0.00206 0)
(7.68674e-05 0.00227909 0)
(5.99604e-05 0.00177677 0)
(5.13316e-05 0.00155857 0)
(3.9918e-05 0.00106459 0)
(4.25397e-05 0.00118321 0)
(4.29378e-05 0.00128271 0)
(4.46311e-05 0.0013667 0)
(3.759e-05 0.000963899 0)
(3.29667e-05 0.00083745 0)
(2.29843e-05 0.000547206 0)
(2.13121e-05 0.000497325 0)
(2.89309e-05 0.000716948 0)
(2.62037e-05 0.000641128 0)
(2.33846e-05 0.000565783 0)
(3.1072e-05 0.000785996 0)
(0.000409099 0.00313407 0)
(0.000444968 0.00299702 0)
(0.000360913 0.00177353 0)
(0.000428517 0.00230916 0)
(0.000479421 0.00281318 0)
(0.000219149 0.000876657 0)
(5.13343e-05 0.000194135 0)
(0.000281268 0.00119383 0)
(0.000321473 0.00366649 0)
(0.00035403 0.0035943 0)
(0.000299265 0.00361756 0)
(0.000261843 0.00359977 0)
(0.000227936 0.00356493 0)
(0.000197769 0.00337485 0)
(0.000163191 0.00330316 0)
(0.000378217 0.00345147 0)
(0.000406749 0.00331254 0)
(0.000145176 0.00324287 0)
(0.000119654 0.0029961 0)
(1.24059e-05 0.000272281 0)
(1.14865e-05 0.000250257 0)
(8.94286e-06 0.000193116 0)
(7.0956e-06 0.000151078 0)
(1.52929e-05 0.000346225 0)
(1.3671e-05 0.000305162 0)
(5.17084e-06 0.000110004 0)
(3.72366e-06 7.87202e-05 0)
(2.21226e-06 4.6682e-05 0)
(2.32867e-07 4.90991e-06 0)
(1.09312e-06 2.30519e-05 0)
(1.70077e-05 0.000391317 0)
(1.97957e-05 0.000460104 0)
(8.6698e-05 0.00278384 0)
(7.27758e-05 0.00240611 0)
(6.33048e-05 0.00203431 0)
(6.94421e-05 0.00226864 0)
(5.59607e-05 0.0018051 0)
(4.73197e-05 0.00154915 0)
(3.63018e-05 0.00100674 0)
(3.8871e-05 0.00112049 0)
(3.8971e-05 0.00120525 0)
(4.14833e-05 0.00136653 0)
(3.48232e-05 0.000918699 0)
(3.26568e-05 0.000854639 0)
(2.1407e-05 0.000507928 0)
(2.75502e-05 0.00070024 0)
(2.50061e-05 0.000624664 0)
(2.23562e-05 0.000550055 0)
(2.86987e-05 0.000740054 0)
(0.000443742 0.00319286 0)
(0.000481817 0.00304011 0)
(0.000404209 0.00184515 0)
(0.000478024 0.00237453 0)
(0.000521662 0.00285767 0)
(0.000241463 0.000866949 0)
(9.74232e-05 0.000327291 0)
(0.000343282 0.00137732 0)
(0.00033987 0.00387409 0)
(0.000372297 0.00376753 0)
(0.000286067 0.00372952 0)
(0.000246567 0.00365116 0)
(0.000211485 0.00364423 0)
(0.000194812 0.00351342 0)
(0.000175933 0.00348301 0)
(0.000401529 0.0036419 0)
(0.000432577 0.00351785 0)
(0.000136093 0.00334218 0)
(0.000108202 0.00309434 0)
(1.16849e-05 0.000258893 0)
(1.02131e-05 0.000223753 0)
(9.21369e-06 0.000201116 0)
(7.67116e-06 0.000165707 0)
(6.93792e-06 0.000148976 0)
(1.39075e-05 0.000314083 0)
(1.54499e-05 0.000354427 0)
(1.22124e-05 0.000272687 0)
(5.11392e-06 0.00010958 0)
(4.22768e-06 8.9822e-05 0)
(2.80159e-06 5.92921e-05 0)
(1.5878e-06 3.35526e-05 0)
(4.78426e-08 1.00923e-06 0)
(4.23009e-07 8.92782e-06 0)
(7.44816e-07 1.57229e-05 0)
(1.69881e-05 0.000396787 0)
(1.84059e-05 0.000432047 0)
(7.22738e-05 0.00266253 0)
(9.00504e-05 0.0029876 0)
(6.78592e-05 0.00247584 0)
(5.73487e-05 0.00192447 0)
(6.27015e-05 0.00216029 0)
(4.95699e-05 0.00172075 0)
(4.2508e-05 0.00144656 0)
(4.66256e-05 0.00161998 0)
(3.398e-05 0.000933785 0)
(3.58748e-05 0.00103196 0)
(3.75596e-05 0.00113479 0)
(3.61242e-05 0.00119636 0)
(3.69454e-05 0.00127124 0)
(3.01575e-05 0.000806664 0)
(1.96945e-05 0.000472889 0)
(2.56707e-05 0.000654645 0)
(2.31863e-05 0.000580389 0)
(2.04147e-05 0.000505298 0)
(2.81641e-05 0.000744965 0)
(0.000470351 0.00341859 0)
(0.000521809 0.0032819 0)
(0.000397945 0.00165137 0)
(0.000467484 0.0021422 0)
(0.000527472 0.00264932 0)
(0.000556857 0.00308404 0)
(0.000192355 0.000637639 0)
(0.00032968 0.00116583 0)
(4.72105e-05 0.00013775 0)
(0.000333814 0.00402065 0)
(0.000366634 0.00391223 0)
(0.000397551 0.00379935 0)
(0.000290421 0.00388401 0)
(0.000251081 0.00382477 0)
(0.000214493 0.00381318 0)
(0.000167708 0.00359281 0)
(0.00042732 0.00367274 0)
(0.00046077 0.00355807 0)
(0.000145871 0.00351207 0)
(0.000115455 0.0032706 0)
(1.03156e-05 0.000228352 0)
(7.98039e-06 0.00017498 0)
(7.17532e-06 0.000156297 0)
(5.80386e-06 0.00012491 0)
(1.24125e-05 0.000282231 0)
(1.41815e-05 0.00032905 0)
(1.14424e-05 0.000258133 0)
(4.19266e-06 8.99591e-05 0)
(3.72275e-06 7.94847e-05 0)
(2.50749e-06 5.33224e-05 0)
(1.44171e-06 3.05826e-05 0)
(5.35125e-08 1.13027e-06 0)
(2.2021e-07 4.65243e-06 0)
(6.79131e-07 1.43792e-05 0)
(1.57094e-05 0.000370276 0)
(1.82643e-05 0.000435611 0)
(5.90054e-05 0.00271452 0)
(7.39096e-05 0.00304893 0)
(5.60878e-05 0.00238031 0)
(4.98162e-05 0.00189697 0)
(5.39658e-05 0.00213375 0)
(4.60396e-05 0.00177364 0)
(3.89238e-05 0.00144529 0)
(4.0577e-05 0.00154387 0)
(3.1251e-05 0.000875569 0)
(3.33473e-05 0.000998025 0)
(3.43017e-05 0.00106164 0)
(3.29458e-05 0.00111353 0)
(3.40856e-05 0.00126532 0)
(2.95697e-05 0.000814019 0)
(1.92826e-05 0.00047199 0)
(2.39947e-05 0.000625316 0)
(2.20839e-05 0.000562367 0)
(1.97169e-05 0.000497133 0)
(2.57238e-05 0.000694835 0)
(0.000504527 0.00353825 0)
(0.000528105 0.00350168 0)
(0.000555444 0.00327276 0)
(0.000463529 0.00179338 0)
(0.000508409 0.0021085 0)
(0.000574218 0.00271843 0)
(0.000598702 0.00314326 0)
(0.000210389 0.000604548 0)
(0.000395692 0.00127305 0)
(0.000114785 0.000304784 0)
(0.000353916 0.00420111 0)
(0.0003112 0.00401553 0)
(0.000387116 0.00409556 0)
(0.000415604 0.00395931 0)
(0.000270874 0.00392451 0)
(0.000235912 0.00390893 0)
(0.000197068 0.00386284 0)
(0.000176627 0.0037546 0)
(0.000451097 0.00387402 0)
(0.000484108 0.0037471 0)
(0.000136099 0.00359706 0)
(0.000106264 0.00337643 0)
(9.39902e-06 0.000209884 0)
(7.58391e-06 0.000167678 0)
(6.05882e-06 0.00013219 0)
(5.40825e-06 0.000117283 0)
(1.20534e-05 0.000276864 0)
(1.44389e-05 0.000339255 0)
(1.28697e-05 0.000298444 0)
(9.9833e-06 0.000225367 0)
(3.8024e-06 8.20291e-05 0)
(2.93355e-06 6.26473e-05 0)
(1.79699e-06 3.82365e-05 0)
(9.07363e-07 1.92528e-05 0)
(2.75294e-07 5.82403e-06 0)
(1.55422e-05 0.000371815 0)
(1.66423e-05 0.0004007 0)
(4.6623e-05 0.00257096 0)
(5.77152e-05 0.00289436 0)
(7.40425e-05 0.0032171 0)
(4.71415e-05 0.00242759 0)
(5.08699e-05 0.00222741 0)
(4.74908e-05 0.00197979 0)
(4.06952e-05 0.00170225 0)
(3.5001e-05 0.00135872 0)
(3.81736e-05 0.00157446 0)
(2.95066e-05 0.000853681 0)
(3.04976e-05 0.000928819 0)
(3.24323e-05 0.00105136 0)
(2.95377e-05 0.00106157 0)
(3.02659e-05 0.00118526 0)
(2.73031e-05 0.000767147 0)
(1.76529e-05 0.00043476 0)
(2.23057e-05 0.000579003 0)
(2.38448e-05 0.000638408 0)
(2.05925e-05 0.000525413 0)
(1.82603e-05 0.000464782 0)
(2.53746e-05 0.000707364 0)
(0.000512331 0.00375386 0)
(0.000570179 0.00370807 0)
(0.000592073 0.00345201 0)
(0.000477068 0.00162221 0)
(0.000573803 0.00231379 0)
(0.000609534 0.00299414 0)
(0.00059889 0.0026007 0)
(0.000621004 0.00337434 0)
(0.000280772 0.000745852 0)
(0.000378136 0.00104325 0)
(0.000129503 0.00030116 0)
(0.000380069 0.00423483 0)
(0.000346559 0.00433684 0)
(0.000306813 0.00417499 0)
(0.000411146 0.00410767 0)
(0.000442467 0.00400168 0)
(0.000269457 0.00406124 0)
(0.000245513 0.00405691 0)
(0.000194422 0.00401988 0)
(0.00016126 0.0038381 0)
(0.000480148 0.00390657 0)
(0.000143419 0.00376191 0)
(0.000118093 0.0035392 0)
(8.96591e-05 0.00334882 0)
(8.15337e-06 0.000181883 0)
(6.22917e-06 0.000138003 0)
(5.5132e-06 0.000121328 0)
(4.32919e-06 9.39397e-05 0)
(1.06738e-05 0.000246564 0)
(1.33713e-05 0.000317794 0)
(1.18945e-05 0.000278683 0)
(9.22537e-06 0.000210155 0)
(2.82188e-06 6.08581e-05 0)
(2.44683e-06 5.25036e-05 0)
(1.44014e-06 3.07597e-05 0)
(5.7261e-07 1.21978e-05 0)
(1.11994e-07 2.37201e-06 0)
(1.3974e-05 0.000335787 0)
(1.64585e-05 0.000401726 0)
(3.28906e-05 0.00257877 0)
(4.11034e-05 0.00289265 0)
(5.75059e-05 0.00327543 0)
(3.78914e-05 0.00228896 0)
(4.09149e-05 0.00217453 0)
(3.88695e-05 0.00192856 0)
(3.6576e-05 0.00171268 0)
(3.07692e-05 0.00132445 0)
(3.29556e-05 0.00151478 0)
(2.90546e-05 0.000868858 0)
(2.71092e-05 0.000783419 0)
(2.85765e-05 0.000918239 0)
(2.95667e-05 0.000978978 0)
(2.82918e-05 0.00108748 0)
(2.7721e-05 0.000974241 0)
(2.80749e-05 0.00121002 0)
(1.67639e-05 0.00041903 0)
(2.04606e-05 0.000537869 0)
(2.15883e-05 0.000586779 0)
(1.95945e-05 0.000509178 0)
(1.69897e-05 0.000430666 0)
(1.82549e-05 0.000473539 0)
(2.32701e-05 0.000664654 0)
(0.000539438 0.00392763 0)
(0.000600868 0.0036604 0)
(0.000573127 0.00392295 0)
(0.000562158 0.00178657 0)
(0.000615115 0.00217663 0)
(0.000648425 0.00302427 0)
(0.000649446 0.00278609 0)
(0.000658983 0.00349944 0)
(0.000249991 0.000549993 0)
(0.000452706 0.00108372 0)
(6.67743e-05 0.00013574 0)
(0.000395836 0.00439377 0)
(0.000323168 0.00431712 0)
(0.000363558 0.00449543 0)
(0.000284853 0.0041755 0)
(0.000433784 0.00424674 0)
(0.000456444 0.00418087 0)
(0.000241007 0.00415982 0)
(0.000205543 0.00415786 0)
(0.000169216 0.00398917 0)
(0.000502729 0.00406566 0)
(0.000126115 0.00379629 0)
(0.000111515 0.00365179 0)
(8.35217e-05 0.003484 0)
(7.04758e-06 0.000158368 0)
(5.91129e-06 0.000132111 0)
(4.30611e-06 9.47239e-05 0)
(3.77342e-06 8.23799e-05 0)
(9.61792e-06 0.000221473 0)
(1.07039e-05 0.000250076 0)
(1.21395e-05 0.000287861 0)
(7.8485e-06 0.000179136 0)
(2.25102e-06 4.87763e-05 0)
(1.68461e-06 3.61263e-05 0)
(7.49881e-07 1.60244e-05 0)
(1.81194e-07 3.85785e-06 0)
(1.32614e-05 0.000322887 0)
(1.52276e-05 0.00037495 0)
(2.93869e-05 0.00272347 0)
(2.35658e-05 0.00241305 0)
(3.26002e-05 0.00302082 0)
(6.42727e-05 0.00344628 0)
(3.86331e-05 0.00319356 0)
(2.77553e-05 0.00227102 0)
(3.52196e-05 0.00202922 0)
(3.49697e-05 0.00179837 0)
(3.17232e-05 0.00159202 0)
(2.95289e-05 0.00139184 0)
(2.58336e-05 0.000790654 0)
(2.51617e-05 0.000749437 0)
(2.58754e-05 0.000848276 0)
(2.45629e-05 0.00100914 0)
(2.49947e-05 0.000901083 0)
(2.44263e-05 0.00113443 0)
(1.53938e-05 0.000384265 0)
(1.99758e-05 0.000535331 0)
(2.07636e-05 0.000578105 0)
(1.56666e-05 0.000401617 0)
(1.68204e-05 0.000441741 0)
(2.14304e-05 0.000610076 0)
(2.31849e-05 0.000687596 0)
(0.000533565 0.00407997 0)
(0.000636649 0.0037944 0)
(0.00060197 0.00409075 0)
(0.000591242 0.00162008 0)
(0.000681611 0.00235908 0)
(0.000684853 0.00320443 0)
(0.00069325 0.00282773 0)
(0.000691174 0.00342261 0)
(0.000665733 0.00371083 0)
(0.000312466 0.000597998 0)
(0.000414983 0.000830981 0)
(0.000542782 0.00131166 0)
(0.000120966 0.000176564 0)
(0.000386251 0.00451515 0)
(0.000419901 0.00445742 0)
(0.00031567 0.00444481 0)
(0.000354517 0.0046294 0)
(0.000278639 0.0042986 0)
(0.000437926 0.00440082 0)
(0.000481956 0.00427656 0)
(0.000258988 0.00428728 0)
(0.000225129 0.00420351 0)
(0.000190993 0.00427628 0)
(0.000157434 0.00409336 0)
(0.000502208 0.00421954 0)
(0.000121013 0.00392025 0)
(9.42202e-05 0.0036248 0)
(6.9647e-06 0.000158027 0)
(4.77912e-06 0.000107259 0)
(3.57873e-06 7.92158e-05 0)
(2.67842e-06 5.83935e-05 0)
(8.33499e-06 0.000193446 0)
(9.66121e-06 0.000227379 0)
(1.10429e-05 0.000263863 0)
(7.35236e-06 0.000169748 0)
(1.12725e-06 2.43664e-05 0)
(9.65513e-07 2.07779e-05 0)
(3.43825e-07 7.38039e-06 0)