/*--------------------------------*- C++ -*----------------------------------*\
| =========                 |                                                 |
| \\      /  F ield         | OpenFOAM: The Open Source CFD Toolbox           |
|  \\    /   O peration     | Version:  v2012                                 |
|   \\  /    A nd           | Website:  www.openfoam.com                      |
|    \\/     M anipulation  |                                                 |
\*---------------------------------------------------------------------------*/
FoamFile
{
    version     2.0;
    format      ascii;
    class       volScalarField;
    location    "5";
    object      k;
}
// * * * * * * * * * * * * * * * * * * * * * * * * * * * * * * * * * * * * * //

dimensions      [0 2 -2 0 0 0 0];


internalField   nonuniform List<scalar> 
27222
(
0.00329158
0.00324128
0.00346892
0.00335587
0.0031166
0.00359815
0.00349914
0.00331504
0.00298428
0.0030869
0.00376616
0.00364157
0.00318632
0.00344374
0.00285864
0.00299206
0.00378713
0.00392785
0.00367828
0.00306524
0.0033519
0.00360161
0.00273839
0.00286997
0.00297266
0.00396253
0.00411236
0.0038546
0.0030718
0.00320504
0.0034415
0.00368264
0.00261796
0.00279024
0.00284082
0.00398753
0.00412316
0.00429504
0.00385481
0.00293254
0.00316954
0.00341454
0.00358025
0.00365079
0.00259811
0.00250491
0.00269194
0.00281713
0.00416523
0.00430043
0.00449462
0.00398174
0.00291808
0.00328236
0.00303714
0.00353747
0.00366993
0.00381071
0.00250494
0.00240456
0.00258727
0.00269406
0.00432842
0.00415301
0.00446391
0.00470993
0.00395016
0.00279083
0.00326239
0.00301081
0.00354178
0.00379407
0.00250132
0.00241059
0.00229772
0.00258504
0.0026825
0.00449832
0.00430002
0.00464681
0.00492868
0.00409414
0.00278639
0.00312007
0.00337553
0.00290167
0.00366752
0.00393701
0.00240724
0.00233275
0.00221232
0.00246766
0.00255191
0.00454775
0.00424896
0.00445084
0.00483147
0.00498548
0.00514473
0.00411598
0.00271207
0.00306277
0.0033387
0.00285472
0.00360017
0.00377719
0.00392423
0.00238384
0.00233271
0.00223236
0.00210232
0.0024522
0.00251762
0.00474699
0.004391
0.00453432
0.00491435
0.00522832
0.00538763
0.00428411
0.00262491
0.00274887
0.00293138
0.00315237
0.00327687
0.00349203
0.00369794
0.00409852
0.00227137
0.00224104
0.00219076
0.00205126
0.00235313
0.00244182
0.00470226
0.0044611
0.00511041
0.00542245
0.00524903
0.00561603
0.0042885
0.00255749
0.00265673
0.0029276
0.00304365
0.00336557
0.00350507
0.00381668
0.00412314
0.00225688
0.00220465
0.00210272
0.00196082
0.00229648
0.00234518
0.00246663
0.00486505
0.00464528
0.00520921
0.0056487
0.00546634
0.00587889
0.0044842
0.00256428
0.00269067
0.00282278
0.00309604
0.00326255
0.00362427
0.00397744
0.0037605
0.00431631
0.00218596
0.00210538
0.00205833
0.00192241
0.00191761
0.00220178
0.00226949
0.0024124
0.00511123
0.00480758
0.00466643
0.00546121
0.00585808
0.00564574
0.00615219
0.00450327
0.00245496
0.00262225
0.0028166
0.00305429
0.0033174
0.003574
0.00398482
0.00384664
0.00431271
0.00209582
0.00204901
0.00197438
0.0018445
0.00176681
0.00214134
0.0021783
0.00230614
0.00529662
0.00497958
0.00485228
0.00565207
0.00608093
0.00586569
0.00640511
0.00468917
0.00243484
0.00267984
0.00252616
0.0029244
0.00315969
0.0032849
0.00347019
0.00371626
0.00413653
0.00451029
0.00203643
0.00194915
0.00191748
0.00176384
0.00180077
0.00204983
0.00206166
0.00209675
0.00226501
0.00518025
0.00553791
0.00495796
0.00565495
0.00592325
0.00630988
0.00664296
0.00646154
0.00485964
0.00468389
0.00234008
0.00263609
0.00244277
0.00290818
0.00312175
0.00338151
0.00351098
0.00378109
0.00416639
0.00452369
0.00195066
0.00190315
0.00183407
0.00164092
0.00172425
0.00102798
0.00198451
0.00208917
0.00200791
0.00217203
0.00531716
0.00569747
0.00520193
0.00593514
0.0061738
0.00645492
0.00691759
0.00673506
0.00499401
0.00485445
0.00235192
0.00254444
0.00273112
0.00245197
0.00300897
0.00281989
0.00322309
0.00336995
0.00363906
0.00394548
0.00436821
0.00408602
0.00472421
0.00192522
0.00181118
0.00177622
0.0016887
0.00168157
0.00418768
0.00201004
0.00194532
0.00217557
0.00558133
0.00594908
0.00532592
0.00614378
0.00643853
0.00677286
0.00718239
0.00518925
0.00495156
0.0022712
0.00256693
0.00265762
0.00236044
0.00290677
0.00281496
0.00320039
0.00348859
0.00363542
0.00392109
0.00435937
0.00419538
0.00468752
0.00490856
0.00185926
0.00175866
0.00170929
0.00162527
0.00161501
0.00205003
0.00195014
0.00197015
0.00186917
0.0021044
0.00574737
0.00618128
0.00556845
0.0063917
0.00670349
0.00703622
0.00730241
0.00741117
0.00528966
0.00517709
0.00226897
0.00248072
0.00269393
0.00232818
0.00295396
0.00333268
0.00309621
0.00346196
0.0037682
0.00404552
0.0045039
0.00418209
0.00485082
0.00508105
0.00179817
0.00182379
0.00169533
0.00163
0.00154296
0.00158821
0.00121966
0.00188905
0.00189682
0.00201894
0.00184032
0.0021223
0.00600775
0.00620848
0.00643848
0.00565792
0.006622
0.00694957
0.00711744
0.00758479
0.00777306
0.00552834
0.00528411
0.00220654
0.002474
0.00238608
0.00265582
0.00223167
0.0028626
0.00333996
0.00313325
0.00358321
0.00371151
0.00406566
0.00447953
0.00432455
0.00482999
0.00506522
0.00174567
0.0017541
0.00162423
0.00169414
0.00149906
0.00152196
0.00416584
0.00106271
0.00184292
0.00194888
0.00177752
0.00206246
0.00606445
0.00649484
0.00669943
0.00593396
0.00685255
0.00708576
0.00744611
0.00769594
0.00778279
0.00809627
0.00566848
0.00548876
0.00236295
0.00255693
0.00232265
0.00275037
0.00218185
0.00290975
0.00347407
0.00325383
0.00303456
0.00358759
0.00381729
0.00396516
0.00423572
0.00463134
0.00500042
0.00526882
0.00169213
0.00156389
0.00163842
0.00149255
0.00148205
0.00509014
0.0007843
0.00177205
0.00187067
0.00197182
0.00170767
0.00208972
0.00636169
0.00675355
0.00694151
0.00610026
0.00735371
0.00769416
0.00801034
0.00810487
0.00846681
0.0059201
0.00556393
0.00236337
0.00257472
0.00222813
0.0026731
0.00285289
0.00345462
0.0033059
0.00303687
0.00371033
0.00404293
0.00432589
0.00452692
0.00520421
0.00499312
0.00548416
0.00162869
0.00150346
0.00157911
0.0014788
0.00140899
0.00206109
0.000979665
0.0017161
0.00179995
0.00191587
0.00163929
0.00203567
0.00654595
0.00701561
0.00723826
0.00637996
0.00759587
0.00796606
0.00818459
0.00841102
0.008857
0.00600992
0.00583306
0.00224679
0.00246599
0.00218329
0.00272804
0.00291334
0.0035569
0.00327231
0.00313978
0.00377485
0.00394824
0.00422407
0.00463871
0.00537038
0.00522517
0.0048554
0.0056571
0.00157342
0.00144326
0.00152081
0.00143567
0.00139699
0.00164671
0.000980246
0.00164222
0.00173229
0.00178502
0.00184573
0.00195416
0.00157982
0.00208293
0.00684121
0.00721603
0.0071444
0.00752138
0.00653228
0.00795524
0.00812722
0.00848417
0.00871858
0.00925191
0.0063074
0.00590702
0.00220192
0.00246734
0.00267267
0.00286201
0.00353487
0.00369334
0.00339092
0.00308113
0.00403124
0.00431452
0.00450748
0.0056072
0.0053345
0.00494225
0.00151407
0.00145704
0.00140895
0.00133311
0.000945886
0.00094654
0.00159807
0.00168252
0.00172366
0.00180097
0.00188777
0.00152311
0.0020087
0.00697681
0.00702767
0.00751547
0.00749982
0.00778495
0.00684555
0.00817924
0.00849221
0.00862257
0.00905478
0.00967666
0.00927043
0.00640584
0.00614655
0.00212374
0.00227916
0.00237098
0.00257915
0.00274812
0.00294469
0.00365011
0.00377611
0.0033298
0.00317027
0.00392535
0.00420991
0.0045838
0.005831
0.00514881
0.00555301
0.00478318
0.00146334
0.00140299
0.00133916
0.00127982
0.00130982
0.000372112
0.00538963
0.000810904
0.00154638
0.00162418
0.00167668
0.0017313
0.0018231
0.00186553
0.00150524
0.0014718
0.0019194
0.00203864
0.00727573
0.00732423
0.00776071
0.00775693
0.00806764
0.00705146
0.0085664
0.00870852
0.00899258
0.00925229
0.0101259
0.00970579
0.00671036
0.00619528
0.00212542
0.0021946
0.00238376
0.00258023
0.00267658
0.00288516
0.00371334
0.00343718
0.00312396
0.00400518
0.00429599
0.00448466
0.00574755
0.00608878
0.00516679
0.00554222
0.00482306
0.00140543
0.00134899
0.00127826
0.0013084
0.00125158
0.00019404
0.00133743
0.00107963
0.0015059
0.00159892
0.00162692
0.00169478
0.00177748
0.00179279
0.00146236
0.00142684
0.00187965
0.00199675
0.00750207
0.00763507
0.00803045
0.00810715
0.00830134
0.00698537
0.00740224
0.00881875
0.0090783
0.00962713
0.0106025
0.0100889
0.00671332
0.00649557
0.00204138
0.0022172
0.00248272
0.00230844
0.00274415
0.00297153
0.0039009
0.00360608
0.00337121
0.00322625
0.00419218
0.00458348
0.00594387
0.00625549
0.00503041
0.00538541
0.00577443
0.0047703
0.00136724
0.00130618
0.00127609
0.00123343
0.0012309
0.000363345
0.00507681
0.00100714
0.00151356
0.00146508
0.00155403
0.00158508
0.00164606
0.00172557
0.00176422
0.00142242
0.00138266
0.00180753
0.0019216
0.00780505
0.00788757
0.00843378
0.00861507
0.00729875
0.00761565
0.00918614
0.00942155
0.00994826
0.0110335
0.0105086
0.0069997
0.00651132
0.00198115
0.00220197
0.00246636
0.00227614
0.00266791
0.00293263
0.00399127
0.00367684
0.00345948
0.0031592
0.00428679
0.00448842
0.00618514
0.00510824
0.00545809
0.00588162
0.00491738
0.00131519
0.00126221
0.00122889
0.00117418
0.00118762
0.000301213
0.0014756
0.00118418
0.00146507
0.00142911
0.00153753
0.0016002
0.00163336
0.00167567
0.00169332
0.00138653
0.00134631
0.00176453
0.00185543
0.00803511
0.00823386
0.0084928
0.00874262
0.00883362
0.00761401
0.00728936
0.00793653
0.00937017
0.00940694
0.00984213
0.010403
0.0114749
0.0110816
0.0109177
0.00700553
0.00673445
0.00202722
0.00187826
0.0021367
0.00255649
0.00235315
0.00273084
0.00304085
0.00283394
0.00417777
0.00385393
0.00360934
0.00338754
0.00323969
0.00459952
0.00639842
0.00529841
0.00568493
0.00614857
0.00482932
0.0012877
0.00122457
0.00119291
0.0011664
0.0011533
0.00117058
0.000390443
0.000895287
0.00532681
0.00143602
0.00143066
0.00139098
0.00150513
0.00155796
0.0015777
0.00166249
0.00134893
0.00131159
0.00170365
0.00178678
0.00835714
0.00886897
0.00906844
0.00925689
0.00792338
0.00760809
0.00818104
0.00977509
0.00983185
0.0102375
0.0107556
0.0119389
0.0115971
0.0112262
0.00725694
0.00668393
0.00197419
0.00183013
0.002162
0.00253754
0.00234115
0.0026208
0.00295229
0.00284536
0.00428146
0.00386541
0.00369697
0.00347589
0.00314874
0.00449287
0.00640391
0.00539279
0.0057253
0.00611772
0.00497741
0.00125652
0.00122449
0.00119193
0.00114253
0.00111969
0.00111973
0.00113903
0.000287792
0.00101233
0.00253654
0.00139229
0.00146109
0.00138996
0.00136344
0.00151971
0.00154145
0.00156185
0.00161164
0.00131691
0.00128232
0.00166637
0.00172539
0.00868548
0.00909406
0.00943758
0.00955981
0.00811366
0.00751933
0.00790536
0.00854937
0.0100813
0.0101876
0.0106727
0.0112007
0.0116879
0.00722018
0.0069282
0.00202076
0.00188036
0.00176156
0.00210611
0.00225564
0.00243552
0.00263038
0.00300186
0.00275237
0.00427145
0.0040094
0.00363472
0.00347124
0.00319894
0.00460032
0.00666246
0.00563511
0.00522624
0.00595649
0.00635293
0.00480136
0.00125452
0.00119059
0.00116325
0.00109538
0.0010763
0.00111534
0.00108096
0.00113672
7.04338e-05
0.000799669
0.000931858
0.00136665
0.00138236
0.00144263
0.0013635
0.00132574
0.00149501
0.0015043
0.00152867
0.00158813
0.00128333
0.00161378
0.00167704
0.00171227
0.00904556
0.00953902
0.0097589
0.00999008
0.00848774
0.00773409
0.00805417
0.00884295
0.0105198
0.0105835
0.0110561
0.0116326
0.0120216
0.00748264
0.00687403
0.00196001
0.00183926
0.00170401
0.00213732
0.00222796
0.0024031
0.0025777
0.00296828
0.0027356
0.00417987
0.00446103
0.00389128
0.00373227
0.00333702
0.00361371
0.0030658
0.00677405
0.00578701
0.00534564
0.00602273
0.00659202
0.00621487
0.00487065
0.00122467
0.00116184
0.00119355
0.00104787
0.00102874
0.0010879
0.00106583
0.00111177
4.23838e-05
0.000970635
0.00532324
0.00133531
0.00140797
0.00134855
0.00146259
0.0013331
0.00131229
0.00147187
0.0014896
0.00154512
0.00125732
0.00159554
0.00162784
0.00166005
0.00938435
0.00977044
0.0102098
0.0103151
0.00878163
0.00839609
0.00803049
0.00924563
0.0108976
0.0110137
0.0115243
0.0120276
0.00764974
0.00715881
0.00188539
0.00199255
0.00177383
0.00165635
0.00171294
0.00208719
0.00229193
0.00247882
0.00263884
0.00283686
0.00428882
0.00447538
0.00396964
0.00334274
0.00368891
0.00307782
0.00704527
0.00566267
0.00527733
0.00670762
0.00636609
0.0050909
0.00465459
0.00122306
0.0011345
0.0011681
0.00101518
0.00099762
0.00107108
0.00104256
0.00108362
0.00110977
9.71996e-06
0.000745602
0.000997165
0.00166954
0.00132771
0.00130603
0.00138876
0.00133569
0.00143448
0.00130396
0.00128401
0.00143808
0.00146262
0.00146154
0.00151051
0.00125992
0.0015524
0.00161953
0.00949519
0.0101964
0.0105618
0.0107812
0.00910712
0.00865748
0.00832677
0.00946938
0.0114314
0.0114438
0.011941
0.00805388
0.00741264
0.00181627
0.00193584
0.00175939
0.00161424
0.00165538
0.00213491
0.00224229
0.00246017
0.00256199
0.00277806
0.00417921
0.00388013
0.00321085
0.00347868
0.00361201
0.00297472
0.00719995
0.00584435
0.00550606
0.0066637
0.00703861
0.00615848
0.00513832
0.00469595
0.00121345
0.00112393
0.00116825
0.00114127
0.000960978
0.000971964
0.00101766
0.00104221
0.00106181
0.00109147
5.89657e-05
0.000903347
0.000960775
0.000245633
0.00612846
0.00129765
0.00128659
0.00135492
0.00140307
0.0013063
0.00127
0.00126128
0.00141609
0.001426
0.00142659
0.00147167
0.00151496
0.00123388
0.00153583
0.00157374
0.00997782
0.0105619
0.0103093
0.011023
0.0111451
0.0090477
0.00865712
0.00836251
0.00983512
0.0118885
0.00812279
0.0074885
0.00183903
0.00197897
0.00168307
0.00158096
0.00157403
0.0016338
0.00160375
0.00208079
0.00230556
0.00240828
0.0025735
0.00286839
0.00266919
0.00427428
0.00397951
0.00320511
0.00345614
0.00371355
0.00298395
0.00574327
0.00536099
0.00689719
0.00721054
0.00628038
0.00496088
0.00460951
0.00118935
0.00109767
0.00114388
0.00112876
0.000941076
0.00093798
0.000973784
0.000995584
0.00102647
0.00106614
0.00103782
0.000578747
0.000941539
0.000128627
0.00178421
0.00128731
0.0012643
0.00133726
0.00137906
0.00128522
0.00125209
0.00123726
0.00138622
0.00140853
0.00140288
0.00144254
0.00147112
0.0012234
0.00149761
0.0100996
0.0110237
0.0107969
0.0113646
0.011628
0.00940506
0.00898247
0.00873854
0.0100242
0.00777858
0.00848486
0.00178282
0.00192502
0.00165154
0.00153563
0.00153691
0.00157586
0.00156392
0.00213463
0.00224215
0.0024618
0.00279449
0.00268786
0.0041493
0.00444908
0.00385932
0.00308499
0.0033268
0.0035771
0.00284855
0.00592976
0.00549322
0.00682003
0.00749107
0.00658018
0.00618841
0.0049632
0.00475272
0.00118269
0.00108202
0.00114065
0.00110995
0.00091946
0.000898456
0.000956049
0.00098659
0.00100148
0.00105009
0.00101873
0.000698967
0.00090282
9.47609e-05
0.00567964
0.00126355
0.00124099
0.00135393
0.00131472
0.00125923
0.00129186
0.00122903
0.00121259
0.00136479
0.0013755
0.00136918
0.00141105
0.00144226
0.00146001
0.00119949
0.00150071
0.0105501
0.0113597
0.0111522
0.0109204
0.0117337
0.0119257
0.00984355
0.00933017
0.00895704
0.0105203
0.00783982
0.008493
0.00880221
0.00182649
0.00170778
0.00197121
0.00159047
0.00150546
0.00152578
0.00152229
0.00207395
0.00229602
0.00241334
0.00259027
0.00420231
0.00438589
0.00393369
0.00309158
0.00331249
0.00357903
0.00283375
0.00578821
0.00539376
0.00712758
0.00777514
0.00743193
0.00664013
0.00636739
0.00515389
0.00469284
0.00115923
0.00105943
0.00109007
0.00111798
0.00110391
0.000900256
0.000936707
0.000865455
0.000876409
0.000959382
0.000988172
0.00103214
0.000998002
0.0010174
0.000578621
0.00088066
7.32029e-05
0.00206316
0.00124918
0.0012418
0.00122232
0.00133331
0.00131202
0.00124248
0.00126907
0.00120903
0.00119382
0.00133771
0.00135471
0.00135276
0.00139323
0.00140741
0.00142829
0.00146153
0.0117218
0.011628
0.011443
0.0119833
0.0101619
0.00966046
0.00944679
0.0108994
0.00825223
0.0088305
0.0091215
0.00178686
0.00164527
0.00192712
0.00158674
0.0015352
0.00145855
0.00147412
0.00147814
0.00212035
0.00229389
0.00248198
0.00260438
0.00413033
0.00449506
0.00387758
0.00295645
0.00320712
0.0034421
0.00371941
0.00271501
0.00594308
0.00557734
0.00713998
0.00803491
0.00772069
0.00687678
0.00625154
0.00506554
0.00484325
0.00114634
0.0010504
0.0010771
0.00111172
0.00108371
0.000903648
0.000920292
0.000832719
0.000857711
0.000951319
0.000968396
0.00102252
0.000988658
0.00100013
0.000691403
0.000855856
0.00047175
0.00038947
0.00642113
0.00122334
0.00122055
0.00120182
0.00129218
0.00122341
0.00124825
0.00126947
0.00118525
0.00117291
0.00131875
0.00132728
0.00136934
0.00132977
0.00138101
0.00139347
0.00143159
0.0119214
0.0118985
0.0114154
0.0106036
0.010069
0.00971657
0.0109072
0.00831654
0.00890494
0.00950202
0.00171748
0.0018425
0.0016498
0.0019727
0.00154062
0.00147949
0.00144431
0.00145027
0.00142954
0.00205215
0.00221456
0.00239146
0.00250016
0.00424781
0.00443393
0.00401174
0.00291842
0.00325647
0.00341464
0.00368868
0.0026915
0.0058481
0.00546725
0.00742792
0.00797729
0.00786233
0.00689146
0.00644427
0.00521997
0.00475846
0.00115581
0.00112706
0.00106146
0.0010321
0.00109552
0.00107126
0.00088806
0.000909165
0.000836446
0.000815083
0.000869818
0.000934307
0.000954273
0.0010035
0.000972441
0.000789449
0.000809465
0.000221566
0.000393074
0.0019831
0.00121036
0.00120185
0.00118228
0.00129484
0.00120846
0.00122923
0.00124892
0.00116735
0.00130271
0.00134604
0.00130373
0.00132801
0.00134318
0.00137632
0.00139521
0.0119146
0.0107831
0.0103717
0.0101815
0.011451
0.00858294
0.00927213
0.00978392
0.00169621
0.00181297
0.00159353
0.00192482
0.00154306
0.00148186
0.00143271
0.00140939
0.00140637
0.00139534
0.00206077
0.00221979
0.00240047
0.00249002
0.00418469
0.00456076
0.00397196
0.0027923
0.00302695
0.00317492
0.00353165
0.00381827
0.00258763
0.00604746
0.00561918
0.00719284
0.00769568
0.00829873
0.00819398
0.0067329
0.00633543
0.00511395
0.00488959
0.00113603
0.00112307
0.00104621
0.00103179
0.0010912
0.00107928
0.00105263
0.000887096
0.000917955
0.000822323
0.00079281
0.000808309
0.000852496
0.00092989
0.000939502
0.000957015
0.00099515
0.000967847
0.000783956
0.000779536
0.000166786
0.000580514
0.00572695
0.00119335
0.00117969
0.00116242
0.0012774
0.00119246
0.00121162
0.00122929
0.00125331
0.00114665
0.00128085
0.00132636
0.00128406
0.00130429
0.00133043
0.00135159
0.00138141
0.0111592
0.0104413
0.0104041
0.011501
0.00926437
0.00966434
0.0102575
0.00161532
0.00174178
0.00185696
0.00196496
0.00149021
0.00145548
0.00138406
0.00137381
0.00137186
0.00135619
0.00213473
0.00230647
0.00239813
0.00430518
0.00448312
0.00409705
0.00276678
0.00296776
0.00326067
0.00352607
0.00381166
0.00258868
0.00589575
0.00549972
0.00720246
0.0078807
0.00841807
0.00824762
0.00687275
0.0065347
0.00525407
0.00479196
0.00113052
0.00110365
0.00104034
0.00101959
0.00107614
0.00106989
0.00104671
0.000879877
0.000907761
0.000833228
0.000778386
0.000788865
0.000849813
0.00091434
0.00092813
0.00094415
0.00100726
0.000980318
0.000952801
0.000792389
0.00076626
0.000749448
5.75326e-05
0.000641348
0.00174446
0.00117714
0.00116679
0.00116252
0.0011443
0.00117795
0.00119445
0.00120958
0.00124501
0.00126004
0.00129784
0.00128593
0.00126176
0.00130977
0.00133082
0.00134537
0.0112836
0.0109327
0.0108571
0.0119654
0.00910128
0.00975845
0.0100208
0.0105686
0.00158729
0.00172025
0.00177624
0.00196242
0.00143881
0.00141186
0.00134844
0.00137309
0.00134257
0.00132944
0.00132134
0.00213268
0.00230685
0.00240703
0.00423922
0.00459647
0.0041
0.00286064
0.00268533
0.00304729
0.00340548
0.00317839
0.00367454
0.00395659
0.00250343
0.00605225
0.00564462
0.00746382
0.00778119
0.00875524
0.00852972
0.00685847
0.00638041
0.00513742
0.00491262
0.00111021
0.00109552
0.00102309
0.00101398
0.00106143
0.00105685
0.00103216
0.000865071
0.000892712
0.000820248
0.000759022
0.000789356
0.00083826
0.00091376
0.000930822
0.00094294
0.000997224
0.000983302
0.000943436
0.000751421
0.000730553
0.000728639
0.000288538
0.000414421
0.00558139
0.00115797
0.00114729
0.00114405
0.00112759
0.00117843
0.00115868
0.00119236
0.00120975
0.0012273
0.00124887
0.0012768
0.00126537
0.0012534
0.00128495
0.00131072
0.00132079
0.0117102
0.0110384
0.011112
0.00941867
0.0099639
0.0104394
0.0110272
0.00151594
0.0016443
0.00179462
0.00189185
0.00205374
0.00145232
0.00138135
0.00137343
0.00130921
0.0013314
0.00131237
0.00130262
0.00128918
0.00222129
0.00232864
0.00434773
0.00450306
0.00423742
0.00281087
0.00271461
0.00299092
0.00341844
0.0032361
0.00366405
0.00396048
0.00252946
0.00591764
0.00550751
0.00750127
0.00809667
0.00873987
0.00715655
0.0065768
0.00526502
0.00479708
0.00110945
0.00107654
0.00102052
0.000999374
0.00104508
0.00106145
0.00104338
0.00103087
0.000858886
0.000881123
0.000806812
0.00082413
0.000753457
0.00077867
0.000842953
0.000905549
0.000921926
0.000927453
0.000974376
0.000926798
0.000950479
0.000728649
0.000712448
0.000712446
0.000726035
0.000120762
0.000376734
0.00275603
0.00114436
0.00113542
0.00112919
0.00116466
0.00114489
0.00117536
0.00119229
0.00121506
0.00122432
0.00124587
0.00124178
0.00123416
0.00126911
0.00129365
0.00129729
0.0119145
0.0115327
0.0115756
0.00981098
0.00916879
0.010384
0.0108051
0.0113549
0.00149058
0.00161228
0.00174066
0.00191654
0.00206912
0.00138182
0.00133657
0.0013348
0.00130055
0.00128289
0.00129082
0.00126962
0.00125561
0.00223291
0.00235056
0.00459702
0.00430558
0.00287201
0.00262823
0.00306656
0.0035473
0.00335722
0.00319237
0.00380448
0.0041325
0.00243983
0.0060766
0.00563361
0.00780467
0.00842817
0.00867941
0.00713462
0.00688967
0.00636997
0.00511731
0.00489861
0.00109635
0.00106971
0.00100404
0.000993527
0.00103305
0.00104543
0.00101835
0.000866876
0.000884234
0.000796087
0.000812636
0.000741157
0.00076645
0.000782772
0.000839955
0.000894828
0.000911457
0.00097972
0.000963268
0.000919914
0.000940651
0.000720412
0.0006943
0.00069026
0.000714614
0.000201135
0.000466634
0.00151464
0.00112904
0.00111737
0.00111332
0.00114984
0.00116261
0.00113106
0.00117676
0.00119416
0.0012182
0.0012322
0.00121852
0.00121685
0.00124712
0.00127541
0.00127259
0.0119423
0.0100766
0.00935722
0.0106958
0.0104779
0.01128
0.0117461
0.00142599
0.00154571
0.00166693
0.00178027
0.00201214
0.00186767
0.00216337
0.00136467
0.00133288
0.00128688
0.00129196
0.0012615
0.00124803
0.00126329
0.0012724
0.00124349
0.00125809
0.00123509
0.00227622
0.00448815
0.0027529
0.00263569
0.00294268
0.00352288
0.00341485
0.0032823
0.00380834
0.00415381
0.00242773
0.00589051
0.00540511
0.00789885
0.0085754
0.00904906
0.00747662
0.00696721
0.0064909
0.00519261
0.00483073
0.00110101
0.00108203
0.00105565
0.000997448
0.00102029
0.0010343
0.00104252
0.00101287
0.00100644
0.00086379
0.000872584
0.000798225
0.000815746
0.000743823
0.00075574
0.000772907
0.000851221
0.000827502
0.000889288
0.000897076
0.000970182
0.000955533
0.000929045
0.000908268
0.00094329
0.000682624
0.00064577
0.000698632
0.000681123
0.000669141
0.000719597
0.00013645
0.0003801
0.000326383
0.00593003
0.001116
0.00111387
0.0011058
0.00114043
0.00114616
0.00111688
0.00112109
0.00115853
0.00118505
0.00119793
0.00120972
0.00119871
0.00119665
0.00123911
0.00125255
0.00124998
0.0100724
0.00975731
0.0111504
0.0108278
0.0116196
0.0119701
0.00143246
0.00155682
0.00162227
0.00174533
0.00205741
0.00191248
0.00219163
0.00130685
0.00127797
0.00125426
0.00125654
0.0012364
0.00125356
0.00121656
0.0012285
0.00121449
0.00224773
0.00460392
0.00278622
0.00252338
0.00364488
0.0039701
0.00435133
0.00232216
0.00600722
0.00542872
0.00830028
0.00776745
0.00891989
0.00916712
0.00729642
0.00681229
0.0063074
0.00497305
0.00108703
0.00107835
0.00105408
0.000985397
0.00101358
0.00102084
0.00103347
0.000999411
0.000997009
0.000875707
0.000789993
0.000804264
0.000733202
0.000758596
0.000776505
0.000842271
0.000822448
0.00089448
0.000958342
0.000974259
0.000919049
0.000902681
0.000940187
0.000655795
0.000671106
0.000687934
0.000662981
0.000654885
0.000712965
0.000524266
2.4019e-05
0.00254236
0.00110062
0.00109742
0.00108973
0.00112593
0.00114414
0.00110455
0.00110679
0.00115192
0.00116582
0.00118699
0.00120484
0.00119418
0.00118007
0.0011795
0.00121979
0.00122957
0.0105293
0.00989496
0.0115894
0.0109395
0.0118583
0.00150018
0.00137695
0.00166274
0.00178549
0.0019941
0.0021388
0.00185454
0.00125353
0.00131603
0.00123869
0.00121449
0.00121982
0.00120291
0.00123134
0.00120987
0.00118657
0.00121364
0.00118346
0.00119425
0.00216769
0.00455175
0.00592259
0.00518618
0.00568396
0.00833315
0.00798655
0.00905241
0.00955754
0.00746341
0.00698449
0.00641839
0.00496979
0.00107984
0.00106416
0.00104031
0.000979792
0.000999806
0.00102138
0.000992816
0.000985494
0.000867408
0.00079453
0.000801781
0.000730876
0.00075032
0.000774765
0.000847272
0.000830975
0.00081144
0.000886414
0.000949188
0.000965963
0.000919628
0.000907685
0.000891673
0.000930647
0.00063074
0.000657506
0.000692887
0.000675795
0.000661951
0.000639603
0.000703954
0.000718769
0.00055384
0.000657908
0.00029917
0.00647361
0.00108858
0.00108648
0.00111747
0.00112656
0.00109112
0.00109699
0.00113368
0.00115878
0.00117035
0.00118897
0.00117103
0.00116482
0.00116233
0.00120527
0.00120999
0.0105694
0.0102739
0.0118998
0.0114411
0.00150782
0.00139075
0.00162926
0.00173287
0.00200267
0.00185065
0.00120292
0.00126568
0.00118596
0.00119814
0.00117014
0.00119397
0.00118314
0.00119007
0.00117459
0.00119133
0.00117627
0.00208686
0.0047469
0.0061417
0.00862177
0.00798462
0.00948759
0.0089705
0.00731256
0.00782006
0.00671465
0.00106651
0.00105599
0.00102987
0.000968366
0.000992237
0.00101056
0.000981827
0.000977988
0.000857396
0.000875456
0.000783905
0.000791823
0.000739208
0.000755851
0.000765274
0.000837837
0.000829425
0.000810951
0.000954365
0.000912521
0.00090084
0.000885008
0.000928297
0.000617109
0.000637102
0.00068594
0.00066944
0.000652039
0.000639216
0.000699698
0.000716712
0.000610611
0.00016603
0.000300038
0.00328755
0.00107277
0.00107163
0.00110247
0.0011209
0.00107884
0.00108116
0.00113033
0.00114318
0.00115558
0.00117019
0.00117629
0.00114876
0.00114745
0.00115054
0.00118359
0.00118915
0.0110042
0.0104217
0.0114494
0.00145541
0.00156959
0.00135969
0.00167236
0.00175816
0.00191874
0.00121003
0.00116895
0.0012625
0.00115269
0.0011609
0.00114484
0.00116249
0.00115336
0.00117066
0.00115706
0.00117119
0.00115425
0.00837572
0.00977434
0.00933286
0.00751938
0.00801789
0.00683271
0.00106262
0.00104702
0.00103373
0.00101691
0.000960513
0.00100074
0.000982965
0.00100899
0.000971213
0.00096517
0.000858576
0.000868123
0.000782046
0.000792436
0.000736822
0.000744516
0.000763433
0.000839314
0.000820615
0.000802131
0.000946367
0.00090369
0.000916781
0.000889663
0.000873182
0.000935693
0.000602117
0.000618089
0.000606306
0.000630174
0.000689314
0.000674892
0.000657082
0.000629551
0.000705646
0.000725471
0.000595889
0.000143964
0.00108425
0.000431067
0.00713623
0.00106357
0.00106333
0.00109119
0.00110711
0.00106772
0.00107197
0.00111356
0.0011424
0.00115844
0.00116263
0.00113356
0.00113402
0.00113355
0.00117602
0.0108673
0.0101574
0.0119049
0.00143914
0.00155275
0.00138937
0.00130961
0.00160496
0.00117021
0.00112425
0.00119971
0.00110286
0.00114485
0.00111316
0.00114257
0.00114026
0.0011555
0.0011588
0.00113825
0.00115134
0.00113566
0.00851801
0.00975169
0.00922242
0.00721356
0.00784716
0.00831969
0.00105117
0.00102494
0.00100562
0.000949289
0.000994966
0.000985217
0.000972783
0.000998494
0.000961151
0.000849231
0.000772927
0.000784226
0.000744623
0.000756035
0.000830187
0.000821085
0.000802976
0.000893674
0.000911499
0.000886187
0.00086559
0.00092604
0.000596133
0.000604948
0.000586103
0.000600021
0.000682561
0.000666558
0.000650186
0.000636507
0.000698827
0.000722697
0.000585612
0.000579694
0.00011774
0.000415199
0.000418359
0.00352451
0.00104941
0.00105206
0.00107913
0.0010944
0.00110222
0.00105598
0.00106239
0.00111397
0.00112898
0.00114427
0.00114715
0.00111874
0.00113165
0.00112641
0.00111982
0.00112357
0.00115493
0.011149
0.010349
0.0116277
0.00148807
0.00133426
0.0012906
0.00112479
0.00108805
0.00116232
0.00107112
0.00111352
0.00109653
0.00108377
0.00111495
0.00111614
0.00114034
0.00113398
0.00111735
0.00113319
0.00111128
0.00884854
0.0100662
0.00957
0.00803229
0.00839953
0.00103986
0.00101659
0.00102975
0.000994193
0.00100654
0.000938924
0.000978124
0.000962477
0.000991049
0.000952734
0.000847728
0.000774596
0.00078558
0.000741299
0.000758065
0.000831028
0.000812056
0.000794851
0.000893681
0.000901918
0.00091696
0.000877687
0.00085615
0.000869174
0.000927795
0.000585314
0.000605696
0.000576106
0.000670284
0.000687001
0.000654924
0.000629513
0.000703997
0.000732893
0.0007147
0.000564049
0.000570355
0.000259734
0.000107106
0.000496962
0.00319644
0.00104388
0.00103877
0.0010488
0.00107192
0.00108405
0.00108765
0.00104655
0.00105148
0.00106199
0.00110093
0.0011379
0.00114004
0.0011076
0.00111378
0.00111139
0.00110794
0.00111055
0.0107624
0.0119191
0.00123952
0.00107878
0.00105076
0.00111298
0.00118443
0.00103633
0.00109951
0.00106802
0.0010546
0.0011028
0.00110147
0.00112255
0.00112474
0.00110278
0.00111533
0.00868521
0.0102841
0.00999649
0.00937123
0.00101334
0.00101923
0.000985497
0.00100014
0.000936693
0.000969814
0.000981066
0.00095417
0.000961862
0.00094378
0.000839685
0.000766522
0.000779171
0.000748928
0.000827431
0.000811012
0.000794278
0.000883556
0.000899501
0.000907667
0.000876372
0.000853819
0.000860969
0.000921318
0.000578177
0.000618677
0.000596341
0.000565925
0.000665024
0.000682011
0.000646248
0.000635059
0.00069898
0.000732145
0.00071685
0.000548555
0.000555675
0.000560457
0.00053937
0.00029553
9.11494e-05
0.000429342
0.00251782
0.000815112
0.0010337
0.00102544
0.00103755
0.00107424
0.00107883
0.00103316
0.00104416
0.00105568
0.00108683
0.00109912
0.00112351
0.00112099
0.00109635
0.00111024
0.00110369
0.00109703
0.0107745
0.0119179
0.00104408
0.00104839
0.00100992
0.00109553
0.00106814
0.001134
0.00103017
0.00100564
0.00107385
0.00104712
0.00105663
0.00107968
0.00108057
0.00110998
0.00111052
0.0010843
0.00110882
0.00109917
0.00895761
0.01033
0.0100982
0.00965953
0.00100389
0.0010167
0.000988879
0.000977161
0.000925816
0.000963529
0.00097506
0.000945211
0.000953793
0.000939543
0.000832407
0.000769146
0.000780722
0.000748495
0.000819475
0.000802719
0.000787818
0.00087895
0.00089216
0.000905817
0.000867716
0.000846997
0.000860695
0.000912999
0.000584561
0.000567511
0.000613182
0.000596258
0.000657642
0.000672651
0.000688534
0.000648267
0.000629037
0.000704412
0.000725556
0.000739922
0.000712913
0.000534529
0.000544705
0.000535385
0.00051741