/*--------------------------------*- C++ -*----------------------------------*\
| =========                 |                                                 |
| \\      /  F ield         | OpenFOAM: The Open Source CFD Toolbox           |
|  \\    /   O peration     | Version:  v2012                                 |
|   \\  /    A nd           | Website:  www.openfoam.com                      |
|    \\/     M anipulation  |                                                 |
\*---------------------------------------------------------------------------*/
FoamFile
{
    version     2.0;
    format      ascii;
    class       volScalarField;
    location    "5";
    object      nut;
}
// * * * * * * * * * * * * * * * * * * * * * * * * * * * * * * * * * * * * * //

dimensions      [0 2 -1 0 0 0 0];


internalField   nonuniform List<scalar> 
27222
(
1.83237e-05
1.80439e-05
1.93113e-05
1.86817e-05
1.73497e-05
2.00295e-05
1.94793e-05
1.84517e-05
1.6613e-05
1.71782e-05
2.09659e-05
2.02706e-05
1.77374e-05
1.91709e-05
1.59138e-05
1.66519e-05
2.10801e-05
2.18648e-05
2.04739e-05
1.70636e-05
1.86595e-05
2.00497e-05
1.52442e-05
1.59753e-05
1.65486e-05
2.20545e-05
2.28933e-05
2.14576e-05
1.71003e-05
1.78421e-05
1.91584e-05
2.05006e-05
1.45739e-05
1.5531e-05
1.58144e-05
2.21981e-05
2.29492e-05
2.3909e-05
2.14596e-05
1.6325e-05
1.76443e-05
1.90084e-05
1.9931e-05
2.03235e-05
1.446e-05
1.39445e-05
1.49836e-05
1.56826e-05
2.31869e-05
2.39361e-05
2.50213e-05
2.21656e-05
1.62446e-05
1.82725e-05
1.69074e-05
1.96925e-05
2.04299e-05
2.12137e-05
1.39446e-05
1.33826e-05
1.44028e-05
1.49975e-05
2.40961e-05
2.31196e-05
2.48453e-05
2.6219e-05
2.19902e-05
1.55361e-05
1.81613e-05
1.67608e-05
1.97167e-05
2.11212e-05
1.39221e-05
1.34195e-05
1.27897e-05
1.43906e-05
1.49331e-05
2.50415e-05
2.39375e-05
2.58662e-05
2.74377e-05
2.27915e-05
1.55115e-05
1.73689e-05
1.87912e-05
1.61532e-05
2.04164e-05
2.19168e-05
1.34008e-05
1.29861e-05
1.23145e-05
1.37371e-05
1.42061e-05
2.53166e-05
2.36536e-05
2.47773e-05
2.68926e-05
2.77536e-05
2.86391e-05
2.29133e-05
1.50977e-05
1.70501e-05
1.85862e-05
1.58918e-05
2.00417e-05
2.10273e-05
2.18457e-05
1.32707e-05
1.29827e-05
1.24273e-05
1.17017e-05
1.36512e-05
1.40154e-05
2.64261e-05
2.4444e-05
2.5242e-05
2.73574e-05
2.91032e-05
2.99925e-05
2.3849e-05
1.46124e-05
1.53027e-05
1.63187e-05
1.75489e-05
1.82419e-05
1.94397e-05
2.05859e-05
2.2816e-05
1.26442e-05
1.24735e-05
1.2194e-05
1.14188e-05
1.30995e-05
1.35932e-05
2.61769e-05
2.48344e-05
2.84492e-05
3.01861e-05
2.92176e-05
3.12621e-05
2.38735e-05
1.42371e-05
1.47896e-05
1.62976e-05
1.69436e-05
1.87356e-05
1.95123e-05
2.1247e-05
2.2953e-05
1.25639e-05
1.2273e-05
1.17055e-05
1.09154e-05
1.27842e-05
1.30555e-05
1.37314e-05
2.70832e-05
2.58597e-05
2.89989e-05
3.14453e-05
3.04304e-05
3.27274e-05
2.4963e-05
1.42751e-05
1.49787e-05
1.57141e-05
1.72353e-05
1.81623e-05
2.01759e-05
2.21419e-05
2.09342e-05
2.40284e-05
1.21688e-05
1.17204e-05
1.14552e-05
1.07017e-05
1.06732e-05
1.2257e-05
1.26339e-05
1.34295e-05
2.84536e-05
2.67632e-05
2.59775e-05
3.04021e-05
3.26076e-05
3.14257e-05
3.42469e-05
2.50692e-05
1.36665e-05
1.45976e-05
1.56797e-05
1.70028e-05
1.84676e-05
1.98959e-05
2.2183e-05
2.14136e-05
2.40083e-05
1.16673e-05
1.14065e-05
1.0991e-05
1.02681e-05
9.83431e-06
1.19206e-05
1.21263e-05
1.2838e-05
2.94855e-05
2.77207e-05
2.70121e-05
3.14642e-05
3.38484e-05
3.26532e-05
3.56567e-05
2.6104e-05
1.35545e-05
1.49183e-05
1.40629e-05
1.62798e-05
1.75897e-05
1.82867e-05
1.93181e-05
2.06879e-05
2.30276e-05
2.51082e-05
1.13364e-05
1.08508e-05
1.06734e-05
9.81896e-06
1.00239e-05
1.14086e-05
1.14771e-05
1.16724e-05
1.26091e-05
2.88378e-05
3.08289e-05
2.76004e-05
3.14804e-05
3.29742e-05
3.51223e-05
3.69775e-05
3.59706e-05
2.7053e-05
2.60746e-05
1.3027e-05
1.46749e-05
1.35985e-05
1.61894e-05
1.73784e-05
1.88244e-05
1.95452e-05
2.10489e-05
2.31938e-05
2.51828e-05
1.08591e-05
1.05945e-05
1.02084e-05
9.13473e-06
9.59869e-06
5.72175e-06
1.10476e-05
1.16301e-05
1.11778e-05
1.20914e-05
2.96e-05
3.17171e-05
2.89585e-05
3.30402e-05
3.43688e-05
3.59337e-05
3.85094e-05
3.74901e-05
2.7801e-05
2.70241e-05
1.30929e-05
1.41644e-05
1.52038e-05
1.36499e-05
1.67507e-05
1.56979e-05
1.79425e-05
1.87601e-05
2.02582e-05
2.1964e-05
2.43173e-05
2.27464e-05
2.62991e-05
1.07174e-05
1.00827e-05
9.8879e-06
9.40065e-06
9.35986e-06
2.33075e-05
1.11897e-05
1.08293e-05
1.21111e-05
3.10706e-05
3.31178e-05
2.96488e-05
3.42015e-05
3.58425e-05
3.77003e-05
3.99815e-05
2.88879e-05
2.75647e-05
1.26435e-05
1.42899e-05
1.47946e-05
1.31402e-05
1.61816e-05
1.56704e-05
1.78162e-05
1.94205e-05
2.0238e-05
2.18282e-05
2.4268e-05
2.33553e-05
2.60948e-05
2.73254e-05
1.03504e-05
9.79018e-06
9.51443e-06
9.04767e-06
8.9905e-06
1.14119e-05
1.08561e-05
1.09675e-05
1.04055e-05
1.17149e-05
3.19949e-05
3.44104e-05
3.09989e-05
3.5582e-05
3.73175e-05
3.91697e-05
4.06464e-05
4.1254e-05
2.94469e-05
2.88203e-05
1.26311e-05
1.38098e-05
1.49968e-05
1.29608e-05
1.64444e-05
1.85526e-05
1.72361e-05
1.92723e-05
2.09771e-05
2.25209e-05
2.50726e-05
2.32812e-05
2.70039e-05
2.82856e-05
1.001e-05
1.01527e-05
9.43768e-06
9.07387e-06
8.58936e-06
8.83991e-06
6.78923e-06
1.05161e-05
1.05594e-05
1.12393e-05
1.02447e-05
1.18147e-05
3.34444e-05
3.45619e-05
3.58422e-05
3.14969e-05
3.68637e-05
3.86872e-05
3.96219e-05
4.22233e-05
4.32719e-05
3.07756e-05
2.9416e-05
1.22835e-05
1.37726e-05
1.32829e-05
1.47847e-05
1.24234e-05
1.59358e-05
1.85932e-05
1.74425e-05
1.99473e-05
2.06615e-05
2.2633e-05
2.49369e-05
2.40743e-05
2.6888e-05
2.81975e-05
9.71797e-06
9.76496e-06
9.04197e-06
9.4308e-06
8.34511e-06
8.47018e-06
2.31834e-05
5.91593e-06
1.02593e-05
1.08491e-05
9.89528e-06
1.14813e-05
3.376e-05
3.6156e-05
3.72951e-05
3.30337e-05
3.81473e-05
3.94456e-05
4.14516e-05
4.28423e-05
4.3315e-05
4.50673e-05
3.15557e-05
3.05552e-05
1.31542e-05
1.4234e-05
1.293e-05
1.53109e-05
1.2146e-05
1.61983e-05
1.93397e-05
1.81135e-05
1.68929e-05
1.99717e-05
2.12504e-05
2.20736e-05
2.35797e-05
2.57821e-05
2.78367e-05
2.93309e-05
9.4199e-06
8.70594e-06
9.12102e-06
8.30877e-06
8.25047e-06
2.83362e-05
4.36613e-06
9.86473e-06
1.04138e-05
1.09769e-05
9.50637e-06
1.16333e-05
3.54148e-05
3.75962e-05
3.86426e-05
3.39594e-05
4.09372e-05
4.28325e-05
4.45926e-05
4.51181e-05
4.71342e-05
3.29565e-05
3.09737e-05
1.31565e-05
1.43331e-05
1.24037e-05
1.48809e-05
1.58817e-05
1.92315e-05
1.84036e-05
1.69059e-05
2.0655e-05
2.25065e-05
2.40817e-05
2.52008e-05
2.89712e-05
2.77961e-05
3.05297e-05
9.06654e-06
8.36959e-06
8.79064e-06
8.23229e-06
7.84108e-06
1.1471e-05
5.45365e-06
9.55333e-06
1.00201e-05
1.06654e-05
9.12571e-06
1.13322e-05
3.64405e-05
3.90551e-05
4.02945e-05
3.55165e-05
4.22853e-05
4.43461e-05
4.55629e-05
4.68151e-05
4.93025e-05
3.34565e-05
3.24719e-05
1.25077e-05
1.37279e-05
1.2154e-05
1.51866e-05
1.62182e-05
1.98008e-05
1.82165e-05
1.74787e-05
2.10141e-05
2.19794e-05
2.35149e-05
2.58231e-05
2.98962e-05
2.90879e-05
2.70294e-05
3.14924e-05
8.75919e-06
8.03444e-06
8.46618e-06
7.99196e-06
7.77686e-06
9.16695e-06
5.45691e-06
9.14203e-06
9.64347e-06
9.93707e-06
1.02749e-05
1.08787e-05
8.7945e-06
1.15954e-05
3.80842e-05
4.01708e-05
3.97718e-05
4.18704e-05
3.63644e-05
4.42859e-05
4.52432e-05
4.72301e-05
4.85353e-05
5.15039e-05
3.51125e-05
3.28837e-05
1.22578e-05
1.37353e-05
1.48784e-05
1.59324e-05
1.96782e-05
2.05604e-05
1.88768e-05
1.71523e-05
2.24414e-05
2.40184e-05
2.50926e-05
3.12146e-05
2.96965e-05
2.75129e-05
8.42857e-06
8.11116e-06
7.84343e-06
7.41981e-06
5.26525e-06
5.26921e-06
8.8962e-06
9.3664e-06
9.59542e-06
1.00259e-05
1.05089e-05
8.47904e-06
1.11823e-05
3.8839e-05
3.91222e-05
4.18377e-05
4.17508e-05
4.33379e-05
3.81083e-05
4.55329e-05
4.72751e-05
4.80008e-05
5.04066e-05
5.38642e-05
5.15984e-05
3.56605e-05
3.42171e-05
1.18226e-05
1.26878e-05
1.3199e-05
1.43578e-05
1.52985e-05
1.63927e-05
2.03196e-05
2.10212e-05
1.85365e-05
1.76485e-05
2.1852e-05
2.34361e-05
2.55174e-05
3.24605e-05
2.86628e-05
3.09129e-05
2.66274e-05
8.14627e-06
7.81021e-06
7.4542e-06
7.1246e-06
7.29163e-06
2.07151e-06
2.99982e-05
4.5142e-06
8.60852e-06
9.04163e-06
9.33389e-06
9.63789e-06
1.0149e-05
1.03853e-05
8.37939e-06
8.19333e-06
1.06849e-05
1.13489e-05
4.05031e-05
4.07729e-05
4.32029e-05
4.31817e-05
4.49116e-05
3.92546e-05
4.76881e-05
4.84793e-05
5.00606e-05
5.15061e-05
5.63702e-05
5.40306e-05
3.73557e-05
3.44884e-05
1.18319e-05
1.22171e-05
1.32701e-05
1.43638e-05
1.49002e-05
1.60613e-05
2.06717e-05
1.91344e-05
1.73907e-05
2.22963e-05
2.39153e-05
2.49656e-05
3.19959e-05
3.38955e-05
2.87629e-05
3.08529e-05
2.68494e-05
7.82383e-06
7.50972e-06
7.11594e-06
7.28369e-06
6.96585e-06
1.0802e-06
7.44485e-06
6.01013e-06
8.38324e-06
8.90095e-06
9.05689e-06
9.43476e-06
9.895e-06
9.98012e-06
8.14095e-06
7.94305e-06
1.04639e-05
1.11157e-05
4.17631e-05
4.25037e-05
4.47046e-05
4.51315e-05
4.62125e-05
3.88867e-05
4.12074e-05
4.90929e-05
5.05378e-05
5.35931e-05
5.90192e-05
5.61557e-05
3.73723e-05
3.61601e-05
1.1364e-05
1.23427e-05
1.3821e-05
1.2851e-05
1.52764e-05
1.65421e-05
2.17157e-05
2.00745e-05
1.87671e-05
1.79601e-05
2.33374e-05
2.55156e-05
3.30888e-05
3.48235e-05
2.80037e-05
2.99799e-05
3.21455e-05
2.65557e-05
7.61119e-06
7.27135e-06
7.10384e-06
6.86553e-06
6.85224e-06
2.0227e-06
2.82569e-05
5.60661e-06
8.42573e-06
8.15572e-06
8.65109e-06
8.82392e-06
9.16325e-06
9.60605e-06
9.82125e-06
7.91833e-06
7.69716e-06
1.00623e-05
1.06973e-05
4.34498e-05
4.39091e-05
4.69498e-05
4.7959e-05
4.06313e-05
4.23954e-05
5.11381e-05
5.24486e-05
5.53807e-05
6.14224e-05
5.85006e-05
3.89665e-05
3.62477e-05
1.10289e-05
1.22581e-05
1.37299e-05
1.26708e-05
1.4852e-05
1.63256e-05
2.22189e-05
2.04686e-05
1.92585e-05
1.75869e-05
2.3864e-05
2.49865e-05
3.44319e-05
2.8437e-05
3.03845e-05
3.27422e-05
2.73744e-05
7.32156e-06
7.0266e-06
6.84109e-06
6.5365e-06
6.60921e-06
1.67682e-06
8.2141e-06
6.59221e-06
8.1559e-06
7.95577e-06
8.55917e-06
8.90824e-06
9.09283e-06
9.32824e-06
9.42648e-06
7.71881e-06
7.49476e-06
9.82288e-06
1.0329e-05
4.47305e-05
4.58369e-05
4.72781e-05
4.86691e-05
4.91757e-05
4.23863e-05
4.0579e-05
4.41817e-05
5.21626e-05
5.23673e-05
5.47899e-05
5.79125e-05
6.38732e-05
6.16747e-05
6.07766e-05
3.89989e-05
3.74898e-05
1.12852e-05
1.04559e-05
1.18948e-05
1.42317e-05
1.30998e-05
1.52022e-05
1.69281e-05
1.57762e-05
2.32571e-05
2.14542e-05
2.00927e-05
1.8858e-05
1.8035e-05
2.5605e-05
3.56192e-05
2.94956e-05
3.16473e-05
3.42284e-05
2.68842e-05
7.16819e-06
6.8171e-06
6.64078e-06
6.49321e-06
6.41872e-06
6.51644e-06
2.17356e-06
4.98393e-06
2.96467e-05
7.99412e-06
7.96418e-06
7.7432e-06
8.37884e-06
8.67278e-06
8.7827e-06
9.2548e-06
7.50934e-06
7.30144e-06
9.48414e-06
9.94679e-06
4.65232e-05
4.93725e-05
5.04829e-05
5.1532e-05
4.41085e-05
4.23533e-05
4.55429e-05
5.44167e-05
5.47327e-05
5.69903e-05
5.9875e-05
6.64556e-05
6.45477e-05
6.24954e-05
4.03985e-05
3.72086e-05
1.09901e-05
1.01882e-05
1.20356e-05
1.41262e-05
1.30329e-05
1.45897e-05
1.6435e-05
1.58398e-05
2.38344e-05
2.15183e-05
2.05807e-05
1.93497e-05
1.75286e-05
2.50112e-05
3.56498e-05
3.0021e-05
3.1872e-05
3.40566e-05
2.77087e-05
6.99505e-06
6.81653e-06
6.63539e-06
6.36031e-06
6.23319e-06
6.23333e-06
6.33623e-06
1.60212e-06
5.63553e-06
1.41192e-05
7.75077e-06
8.13369e-06
7.73782e-06
7.59025e-06
8.46017e-06
8.58123e-06
8.69469e-06
8.97192e-06
7.33107e-06
7.13863e-06
9.27636e-06
9.60497e-06
4.8351e-05
5.06255e-05
5.25379e-05
5.32183e-05
4.51678e-05
4.18592e-05
4.40082e-05
4.75933e-05
5.61212e-05
5.6713e-05
5.94138e-05
6.23532e-05
6.50658e-05
4.01939e-05
3.85685e-05
1.12493e-05
1.04677e-05
9.80631e-06
1.17245e-05
1.25569e-05
1.35582e-05
1.4643e-05
1.6711e-05
1.53221e-05
2.37786e-05
2.23198e-05
2.0234e-05
1.9324e-05
1.78081e-05
2.56094e-05
3.70891e-05
3.137e-05
2.90938e-05
3.31591e-05
3.5366e-05
2.67286e-05
6.98361e-06
6.62797e-06
6.47563e-06
6.09783e-06
5.9916e-06
6.20843e-06
6.01756e-06
6.32788e-06
3.92092e-07
4.45166e-06
5.18733e-06
7.60786e-06
7.69529e-06
8.03096e-06
7.59034e-06
7.38032e-06
8.32228e-06
8.3743e-06
8.51009e-06
8.84115e-06
7.14408e-06
8.98368e-06
9.33591e-06
9.53198e-06
5.03556e-05
5.31026e-05
5.43266e-05
5.56136e-05
4.72502e-05
4.30548e-05
4.48366e-05
4.92276e-05
5.85625e-05
5.89171e-05
6.15474e-05
6.47582e-05
6.69147e-05
4.1655e-05
3.82669e-05
1.09112e-05
1.0239e-05
9.48596e-06
1.18982e-05
1.24028e-05
1.33778e-05
1.43497e-05
1.65241e-05
1.52288e-05
2.32687e-05
2.4834e-05
2.16624e-05
2.0777e-05
1.85762e-05
2.01171e-05
1.7066e-05
3.77103e-05
3.22156e-05
2.97586e-05
3.35278e-05
3.6697e-05
3.45974e-05
2.71143e-05
6.81761e-06
6.46788e-06
6.6443e-06
5.83337e-06
5.72684e-06
6.0562e-06
5.93336e-06
6.18423e-06
2.35944e-07
5.40341e-06
2.96305e-05
7.43361e-06
7.83802e-06
7.50738e-06
8.14214e-06
7.42141e-06
7.30518e-06
8.19343e-06
8.2921e-06
8.6014e-06
6.99925e-06
8.88224e-06
9.06203e-06
9.24129e-06
5.22415e-05
5.43908e-05
5.68367e-05
5.74231e-05
4.88863e-05
4.674e-05
4.47047e-05
5.14693e-05
6.06659e-05
6.13123e-05
6.41561e-05
6.69463e-05
4.25852e-05
3.98522e-05
1.04957e-05
1.10923e-05
9.87459e-06
9.22069e-06
9.53584e-06
1.16191e-05
1.27588e-05
1.37993e-05
1.46901e-05
1.57924e-05
2.38753e-05
2.49138e-05
2.20985e-05
1.86086e-05
2.05352e-05
1.71339e-05
3.92199e-05
3.15232e-05
2.93782e-05
3.73405e-05
3.54393e-05
2.83404e-05
2.59116e-05
6.8088e-06
6.3156e-06
6.50253e-06
5.65141e-06
5.55363e-06
5.96258e-06
5.80381e-06
6.03199e-06
6.17829e-06
5.41098e-08
4.15068e-06
5.5511e-06
9.29227e-06
7.39098e-06
7.2709e-06
7.7311e-06
7.43545e-06
7.98551e-06
7.25876e-06
7.14799e-06
8.00569e-06
8.14275e-06
8.13682e-06
8.40894e-06
7.01391e-06
8.64196e-06
9.0157e-06
5.28586e-05
5.67622e-05
5.87963e-05
6.00171e-05
5.06982e-05
4.81951e-05
4.63541e-05
5.27149e-05
6.36381e-05
6.37067e-05
6.64674e-05
4.4835e-05
4.12653e-05
1.0111e-05
1.07766e-05
9.7943e-06
8.98623e-06
9.21525e-06
1.18848e-05
1.24826e-05
1.36956e-05
1.42623e-05
1.54644e-05
2.32652e-05
2.16003e-05
1.78744e-05
1.93654e-05
2.01068e-05
1.65599e-05
4.00812e-05
3.25348e-05
3.06515e-05
3.7096e-05
3.91831e-05
3.42835e-05
2.86044e-05
2.61418e-05
6.75496e-06
6.25659e-06
6.50353e-06
6.35373e-06
5.34964e-06
5.41081e-06
5.66521e-06
5.80186e-06
5.91096e-06
6.07101e-06
3.28255e-07
5.02882e-06
5.34852e-06
1.3674e-06
3.41122e-05
7.22396e-06
7.16203e-06
7.54268e-06
7.81073e-06
7.27201e-06
7.07009e-06
7.02128e-06
7.88344e-06
7.9379e-06
7.94107e-06
8.19238e-06
8.43365e-06
6.86885e-06
8.54978e-06
8.76076e-06
5.55453e-05
5.87967e-05
5.73905e-05
6.13631e-05
6.20439e-05
5.03674e-05
4.81931e-05
4.65531e-05
5.47509e-05
6.61762e-05
4.52186e-05
4.16876e-05
1.02377e-05
1.10167e-05
9.36945e-06
8.80124e-06
8.76252e-06
9.09519e-06
8.92775e-06
1.15835e-05
1.28347e-05
1.34066e-05
1.43263e-05
1.5968e-05
1.48582e-05
2.37944e-05
2.21526e-05
1.78425e-05
1.92399e-05
2.06729e-05
1.66113e-05
3.19721e-05
2.98438e-05
3.83958e-05
4.01402e-05
3.49621e-05
2.76166e-05
2.56606e-05
6.62105e-06
6.11095e-06
6.36821e-06
6.2832e-06
5.23886e-06
5.22162e-06
5.42093e-06
5.5423e-06
5.71421e-06
5.93433e-06
5.7774e-06
3.22181e-06
5.24143e-06
7.16058e-07
9.93076e-06
7.16616e-06
7.03827e-06
7.44434e-06
7.67721e-06
7.15471e-06
6.97006e-06
6.88788e-06
7.71659e-06
7.84194e-06
7.80996e-06
8.03051e-06
8.18964e-06
6.81049e-06
8.33712e-06
5.62233e-05
6.13675e-05
6.01052e-05
6.32658e-05
6.47321e-05
5.23568e-05
5.00043e-05
4.86464e-05
5.58036e-05
4.33024e-05
4.72342e-05
9.92473e-06
1.07164e-05
9.19391e-06
8.5486e-06
8.5557e-06
8.77264e-06
8.70611e-06
1.18832e-05
1.24818e-05
1.37045e-05
1.55566e-05
1.4963e-05
2.30988e-05
2.47675e-05
2.14843e-05
1.71738e-05
1.85199e-05
1.99133e-05
1.58575e-05
3.30102e-05
3.05801e-05
3.79663e-05
4.17019e-05
3.66311e-05
3.44501e-05
2.76295e-05
2.64578e-05
6.58378e-06
6.0235e-06
6.34961e-06
6.17907e-06
5.11852e-06
5.0016e-06
5.32221e-06
5.49222e-06
5.5751e-06
5.84374e-06
5.67111e-06
3.89107e-06
5.02589e-06
5.27516e-07
3.16117e-05
7.03456e-06
6.90888e-06
7.53714e-06
7.3192e-06
7.01016e-06
7.19142e-06
6.84217e-06
6.75026e-06
7.59789e-06
7.6565e-06
7.62183e-06
7.85491e-06
8.02861e-06
8.12767e-06
6.67762e-06
8.35424e-06
5.87311e-05
6.32381e-05
6.20829e-05
6.07925e-05
6.53214e-05
6.63822e-05
5.47978e-05
5.19399e-05
4.98628e-05
5.85651e-05
4.36433e-05
4.72795e-05
4.90008e-05
1.01678e-05
9.50698e-06
1.09735e-05
8.85394e-06
8.38069e-06
8.49381e-06
8.47435e-06
1.15454e-05
1.27816e-05
1.34347e-05
1.44197e-05
2.33936e-05
2.44158e-05
2.18984e-05
1.72105e-05
1.84402e-05
1.9924e-05
1.57751e-05
3.22223e-05
3.00264e-05
3.96784e-05
4.32832e-05
4.13726e-05
3.69648e-05
3.54465e-05
2.86911e-05
2.61245e-05
6.45331e-06
5.88715e-06
6.06864e-06
6.22383e-06
6.14515e-06
5.01161e-06
5.2145e-06
4.81788e-06
4.87886e-06
5.34076e-06
5.50103e-06
5.74578e-06
5.55572e-06
5.66374e-06
3.22111e-06
4.90253e-06
4.07511e-07
1.14831e-05
6.95356e-06
6.91247e-06
6.80405e-06
7.42255e-06
7.30358e-06
6.91684e-06
7.06507e-06
6.73062e-06
6.64563e-06
7.44664e-06
7.54177e-06
7.53054e-06
7.75569e-06
7.83478e-06
7.95106e-06
8.13614e-06
6.52555e-05
6.4733e-05
6.37023e-05
6.67008e-05
5.657e-05
5.37786e-05
5.25891e-05
6.06754e-05
4.59392e-05
4.91583e-05
5.07783e-05
9.94721e-06
9.15901e-06
1.0728e-05
8.83318e-06
8.54628e-06
8.11947e-06
8.20628e-06
8.22867e-06
1.18036e-05
1.27691e-05
1.38148e-05
1.44983e-05
2.29918e-05
2.50235e-05
2.1586e-05
1.64582e-05
1.78536e-05
1.91618e-05
2.07055e-05
1.51141e-05
3.30844e-05
3.10484e-05
3.97474e-05
4.47291e-05
4.29802e-05
3.82822e-05
3.48015e-05
2.81992e-05
2.69618e-05
6.3815e-06
5.84324e-06
5.99263e-06
6.18863e-06
6.03287e-06
5.03049e-06
5.12315e-06
4.63564e-06
4.77477e-06
5.29584e-06
5.39091e-06
5.69227e-06
5.50371e-06
5.56759e-06
3.84894e-06
4.76444e-06
2.62617e-06
2.16813e-06
3.57413e-05
6.81018e-06
6.79476e-06
6.69064e-06
7.19362e-06
6.81085e-06
6.94851e-06
7.06659e-06
6.59819e-06
6.5295e-06
7.34119e-06
7.38863e-06
7.62302e-06
7.4028e-06
7.68825e-06
7.75712e-06
7.96953e-06
6.63586e-05
6.62322e-05
6.35486e-05
5.90287e-05
5.60532e-05
5.4091e-05
6.07191e-05
4.62972e-05
4.95727e-05
5.28966e-05
9.56044e-06
1.0256e-05
9.18425e-06
1.09804e-05
8.57638e-06
8.23613e-06
8.04026e-06
8.07347e-06
7.95806e-06
1.1422e-05
1.23266e-05
1.33129e-05
1.39181e-05
2.36455e-05
2.46832e-05
2.23329e-05
1.62465e-05
1.81284e-05
1.90089e-05
2.05345e-05
1.49833e-05
3.25557e-05
3.04355e-05
4.13503e-05
4.44086e-05
4.37686e-05
3.83639e-05
3.58744e-05
2.9059e-05
2.64897e-05
6.43424e-06
6.27465e-06
5.90319e-06
5.74539e-06
6.09867e-06
5.95622e-06
4.94372e-06
5.06121e-06
4.65639e-06
4.53747e-06
4.84217e-06
5.20117e-06
5.31229e-06
5.58635e-06
5.41343e-06
4.39477e-06
4.50617e-06
1.23342e-06
2.1882e-06
1.1036e-05
6.73744e-06
6.69028e-06
6.58144e-06
7.20819e-06
6.72694e-06
6.84299e-06
6.9526e-06
6.49832e-06
7.252e-06
7.49326e-06
7.25776e-06
7.39286e-06
7.47728e-06
7.66176e-06
7.76681e-06
6.63211e-05
6.00283e-05
5.77382e-05
5.66791e-05
6.37473e-05
4.77802e-05
5.16168e-05
5.44659e-05
9.44154e-06
1.00919e-05
8.86957e-06
1.07137e-05
8.58995e-06
8.24928e-06
7.97573e-06
7.84583e-06
7.82914e-06
7.76737e-06
1.14721e-05
1.23573e-05
1.33631e-05
1.38616e-05
2.32957e-05
2.53891e-05
2.21114e-05
1.55444e-05
1.68507e-05
1.76744e-05
1.96603e-05
2.12558e-05
1.4405e-05
3.36655e-05
3.12813e-05
4.00417e-05
4.28409e-05
4.6198e-05
4.56149e-05
3.74812e-05
3.52686e-05
2.84687e-05
2.72197e-05
6.32479e-06
6.25147e-06
5.82369e-06
5.74389e-06
6.0739e-06
6.00588e-06
5.85805e-06
4.93835e-06
5.11011e-06
4.57774e-06
4.41348e-06
4.49976e-06
4.74574e-06
5.17652e-06
5.23006e-06
5.32752e-06
5.53984e-06
5.38786e-06
4.36419e-06
4.33958e-06
9.28478e-07
3.23165e-06
3.188e-05
6.64352e-06
6.56718e-06
6.47104e-06
7.11092e-06
6.638e-06
6.74533e-06
6.84301e-06
6.97719e-06
6.38342e-06
7.13028e-06
7.38369e-06
7.1481e-06
7.26048e-06
7.40642e-06
7.52407e-06
7.69017e-06
6.2122e-05
5.81253e-05
5.79185e-05
6.40258e-05
5.15736e-05
5.38002e-05
5.71021e-05
8.99224e-06
9.6963e-06
1.03374e-05
1.09387e-05
8.29583e-06
8.10252e-06
7.70427e-06
7.64791e-06
7.63655e-06
7.54842e-06
1.18838e-05
1.28398e-05
1.33501e-05
2.39664e-05
2.49551e-05
2.28078e-05
1.54023e-05
1.6521e-05
1.81518e-05
1.96292e-05
2.1219e-05
1.44109e-05
3.28209e-05
3.06163e-05
4.00952e-05
4.38709e-05
4.68624e-05
4.59132e-05
3.82597e-05
3.63779e-05
2.92488e-05
2.66761e-05
6.29324e-06
6.14399e-06
5.79138e-06
5.67595e-06
5.98214e-06
5.95065e-06
5.82687e-06
4.89814e-06
5.0534e-06
4.63845e-06
4.33318e-06
4.39144e-06
4.73078e-06
5.09002e-06
5.16673e-06
5.25594e-06
5.60726e-06
5.45728e-06
5.3041e-06
4.41106e-06
4.26567e-06
4.17209e-06
3.20277e-07
3.57031e-06
9.71003e-06
6.55298e-06
6.49539e-06
6.4715e-06
6.37016e-06
6.55721e-06
6.64893e-06
6.73383e-06
6.93042e-06
7.01457e-06
7.22486e-06
7.15884e-06
7.02413e-06
7.29125e-06
7.40832e-06
7.48945e-06
6.28144e-05
6.08612e-05
6.04399e-05
6.66026e-05
5.06657e-05
5.43241e-05
5.57847e-05
5.88342e-05
8.83625e-06
9.57642e-06
9.88809e-06
1.09246e-05
8.00714e-06
7.85955e-06
7.50655e-06
7.64296e-06
7.47391e-06
7.39983e-06
7.35567e-06
1.18724e-05
1.2842e-05
1.33996e-05
2.35992e-05
2.55846e-05
2.28242e-05
1.59248e-05
1.49489e-05
1.69639e-05
1.89579e-05
1.76936e-05
2.04557e-05
2.20258e-05
1.39363e-05
3.36921e-05
3.14227e-05
4.15502e-05
4.33169e-05
4.87394e-05
4.74839e-05
3.81803e-05
3.5519e-05
2.85992e-05
2.73443e-05
6.18018e-06
6.09882e-06
5.69543e-06
5.64468e-06
5.90812e-06
5.8829e-06
5.74592e-06
4.81575e-06
4.96959e-06
4.56619e-06
4.22526e-06
4.39422e-06
4.66646e-06
5.08676e-06
5.18174e-06
5.2492e-06
5.55139e-06
5.47389e-06
5.25196e-06
4.18307e-06
4.0669e-06
4.05624e-06
1.60626e-06
2.30703e-06
3.10644e-05
6.44683e-06
6.38779e-06
6.36909e-06
6.27681e-06
6.56073e-06
6.45004e-06
6.6377e-06
6.73428e-06
6.83242e-06
6.95252e-06
7.10789e-06
7.04391e-06
6.97754e-06
7.15329e-06
7.29684e-06
7.35274e-06
6.51906e-05
6.14493e-05
6.18592e-05
5.24326e-05
5.54678e-05
5.81148e-05
6.13868e-05
8.43906e-06
9.15362e-06
9.99041e-06
1.05317e-05
1.14329e-05
8.08487e-06
7.68759e-06
7.64455e-06
7.28824e-06
7.41135e-06
7.30439e-06
7.25138e-06
7.17671e-06
1.23657e-05
1.29633e-05
2.42033e-05
2.5068e-05
2.35892e-05
1.56478e-05
1.51119e-05
1.665e-05
1.903e-05
1.8015e-05
2.03973e-05
2.20475e-05
1.40812e-05
3.29428e-05
3.06574e-05
4.17586e-05
4.50732e-05
4.86538e-05
3.98397e-05
3.6612e-05
2.93053e-05
2.67043e-05
6.17644e-06
5.98872e-06
5.68106e-06
5.56335e-06
5.81791e-06
5.90417e-06
5.80835e-06
5.73872e-06
4.78128e-06
4.90508e-06
4.49137e-06
4.58778e-06
4.1944e-06
4.33476e-06
4.69259e-06
5.04105e-06
5.13225e-06
5.16299e-06
5.4242e-06
5.15934e-06
5.29116e-06
4.05612e-06
3.9661e-06
3.9661e-06
4.04175e-06
6.72265e-07
2.09725e-06
1.53424e-05
6.3695e-06
6.32024e-06
6.28618e-06
6.48336e-06
6.37326e-06
6.5431e-06
6.63761e-06
6.76401e-06
6.81577e-06
6.93555e-06
6.91298e-06
6.8702e-06
7.06532e-06
7.20132e-06
7.22192e-06
6.63201e-05
6.42023e-05
6.44408e-05
5.46165e-05
5.10415e-05
5.78063e-05
6.01509e-05
6.32113e-05
8.29786e-06
8.97536e-06
9.69006e-06
1.06692e-05
1.15185e-05
7.69245e-06
7.44045e-06
7.42784e-06
7.24e-06
7.14168e-06
7.18444e-06
7.06781e-06
6.9898e-06
1.24303e-05
1.30853e-05
2.5591e-05
2.39686e-05
1.5988e-05
1.46311e-05
1.70699e-05
1.97474e-05
1.86887e-05
1.77698e-05
2.11791e-05
2.3005e-05
1.35821e-05
3.38273e-05
3.13609e-05
4.34477e-05
4.69186e-05
4.83172e-05
3.97175e-05
3.83542e-05
3.54611e-05
2.84865e-05
2.727e-05
6.10257e-06
5.94675e-06
5.58935e-06
5.53081e-06
5.75084e-06
5.81935e-06
5.66901e-06
4.82576e-06
4.92239e-06
4.43169e-06
4.52382e-06
4.12593e-06
4.26671e-06
4.35759e-06
4.6759e-06
4.98137e-06
5.07392e-06
5.45395e-06
5.36237e-06
5.12099e-06
5.23646e-06
4.01045e-06
3.86508e-06
3.84259e-06
3.97817e-06
1.1197e-06
2.59764e-06
8.43057e-06
6.28603e-06
6.22087e-06
6.19773e-06
6.40118e-06
6.47215e-06
6.29663e-06
6.55046e-06
6.64753e-06
6.78154e-06
6.85966e-06
6.78328e-06
6.77391e-06
6.94126e-06
7.09939e-06
7.08307e-06
6.64745e-05
5.60953e-05
5.20905e-05
5.9542e-05
5.83293e-05
6.27944e-05
6.53905e-05
7.93831e-06
8.60479e-06
9.27958e-06
9.91053e-06
1.12014e-05
1.0397e-05
1.20432e-05
7.59697e-06
7.41999e-06
7.16388e-06
7.19208e-06
7.02263e-06
6.94762e-06
7.03062e-06
7.08322e-06
6.92234e-06
7.00363e-06
6.8756e-06
1.26714e-05
2.4985e-05
1.53224e-05
1.46724e-05
1.63775e-05
1.96095e-05
1.90078e-05
1.82717e-05
2.1198e-05
2.31219e-05
1.3514e-05
3.27858e-05
3.00896e-05
4.39719e-05
4.77382e-05
5.0375e-05
4.16214e-05
3.87854e-05
3.61326e-05
2.89066e-05
2.68921e-05
6.12983e-06
6.02448e-06
5.87256e-06
5.55263e-06
5.67979e-06
5.75782e-06
5.80325e-06
5.63848e-06
5.60269e-06
4.80867e-06
4.85754e-06
4.44359e-06
4.54113e-06
4.14075e-06
4.20709e-06
4.30265e-06
4.73849e-06
4.60658e-06
4.95054e-06
4.99385e-06
5.40085e-06
5.31927e-06
5.17182e-06
5.05619e-06
5.25112e-06
3.80009e-06
3.59492e-06
3.88919e-06
3.79173e-06
3.72503e-06
4.00588e-06
7.59597e-07
2.11589e-06
1.81688e-06
3.30116e-05
6.21211e-06
6.20023e-06
6.15542e-06
6.3487e-06
6.38039e-06
6.21835e-06
6.2426e-06
6.4498e-06
6.5968e-06
6.66882e-06
6.73166e-06
6.67284e-06
6.66176e-06
6.89633e-06
6.97065e-06
6.95834e-06
5.60718e-05
5.43177e-05
6.20734e-05
6.02772e-05
6.46862e-05
6.66277e-05
7.97432e-06
8.66661e-06
9.03092e-06
9.71597e-06
1.14533e-05
1.06465e-05
1.22006e-05
7.27506e-06
7.1143e-06
6.98234e-06
6.99498e-06
6.88289e-06
6.97544e-06
6.77243e-06
6.8389e-06
6.7609e-06
1.25119e-05
2.56294e-05
1.55106e-05
1.40453e-05
2.02897e-05
2.20997e-05
2.42214e-05
1.29263e-05
3.34412e-05
3.02213e-05
4.62067e-05
4.32404e-05
4.96557e-05
5.10322e-05
4.06185e-05
3.79232e-05
3.51049e-05
2.76843e-05
6.04951e-06
5.98979e-06
5.86789e-06
5.48556e-06
5.6424e-06
5.68286e-06
5.75325e-06
5.56356e-06
5.55019e-06
4.8749e-06
4.39777e-06
4.47721e-06
4.08162e-06
4.22299e-06
4.3227e-06
4.68879e-06
4.57844e-06
4.97943e-06
5.33491e-06
5.42354e-06
5.11617e-06
5.02508e-06
5.23388e-06
3.65073e-06
3.73597e-06
3.82964e-06
3.69073e-06
3.64567e-06
3.96899e-06
2.91853e-06
1.33711e-07
1.41522e-05
6.12663e-06
6.1037e-06
6.06543e-06
6.26706e-06
6.36888e-06
6.14419e-06
6.15439e-06
6.41223e-06
6.49025e-06
6.60758e-06
6.70666e-06
6.64584e-06
6.56635e-06
6.56462e-06
6.79031e-06
6.84486e-06
5.86153e-05
5.50841e-05
6.45178e-05
6.08988e-05
6.60082e-05
8.35133e-06
7.66526e-06
9.25628e-06
9.93967e-06
1.11007e-05
1.19064e-05
1.03239e-05
6.97822e-06
7.3262e-06
6.89564e-06
6.76094e-06
6.79059e-06
6.69646e-06
6.8545e-06
6.73517e-06
6.60551e-06
6.75618e-06
6.58815e-06
6.64822e-06
1.20672e-05
2.53365e-05
3.29707e-05
2.88695e-05
3.16407e-05
4.63897e-05
4.44602e-05
5.03937e-05
5.32057e-05
4.15477e-05
3.88749e-05
3.57304e-05
2.76663e-05
6.00297e-06
5.92258e-06
5.79131e-06
5.45436e-06
5.56523e-06
5.68534e-06
5.52621e-06
5.48606e-06
4.8287e-06
4.42303e-06
4.46339e-06
4.06867e-06
4.17694e-06
4.313e-06
4.7166e-06
4.62591e-06
4.51716e-06
4.93453e-06
5.28395e-06
5.37737e-06
5.11939e-06
5.05291e-06
4.9638e-06
5.18074e-06
3.51125e-06
3.66026e-06
3.85722e-06
3.76205e-06
3.685e-06
3.56059e-06
3.9188e-06
4.0013e-06
3.08316e-06
3.66247e-06
1.66544e-06
3.60311e-05
6.04911e-06
6.04281e-06
6.2167e-06
6.27143e-06
6.06719e-06
6.10319e-06
6.30946e-06
6.45107e-06
6.51555e-06
6.61884e-06
6.51584e-06
6.48194e-06
6.46526e-06
6.70959e-06
6.73587e-06
5.88383e-05
5.71937e-05
6.62387e-05
6.36918e-05
8.39384e-06
7.74213e-06
9.0699e-06
9.64558e-06
1.11474e-05
1.03005e-05
6.69653e-06
7.04589e-06
6.6021e-06
6.66989e-06
6.51405e-06
6.64668e-06
6.58641e-06
6.62495e-06
6.5388e-06
6.63201e-06
6.54814e-06
1.16154e-05
2.6424e-05
3.41876e-05
4.79963e-05
4.44492e-05
5.28162e-05
4.99377e-05
4.07011e-05
4.35333e-05
3.73769e-05
5.93597e-06
5.87855e-06
5.73298e-06
5.3907e-06
5.52353e-06
5.6255e-06
5.46477e-06
5.44378e-06
4.77299e-06
4.8735e-06
4.36388e-06
4.40795e-06
4.11506e-06
4.2077e-06
4.26016e-06
4.66408e-06
4.61721e-06
4.51444e-06
5.31277e-06
5.07984e-06
5.0148e-06
4.92668e-06
5.16766e-06
3.43537e-06
3.54667e-06
3.81854e-06
3.72669e-06
3.62982e-06
3.55844e-06
3.89511e-06
3.98969e-06
3.3992e-06
9.24251e-07
1.67028e-06
1.83e-05
5.97039e-06
5.9651e-06
6.13156e-06
6.2323e-06
6.00525e-06
6.01847e-06
6.28794e-06
6.35826e-06
6.42605e-06
6.51417e-06
6.54821e-06
6.39477e-06
6.38732e-06
6.40381e-06
6.58886e-06
6.61983e-06
6.12592e-05
5.80161e-05
6.37381e-05
8.10214e-06
8.73776e-06
7.56918e-06
9.30943e-06
9.78592e-06
1.06794e-05
6.7361e-06
6.50738e-06
7.02814e-06
6.41687e-06
6.46259e-06
6.37321e-06
6.47142e-06
6.42061e-06
6.51693e-06
6.44122e-06
6.51986e-06
6.42556e-06
4.66266e-05
5.44126e-05
5.19549e-05
4.18593e-05
4.46276e-05
3.80314e-05
5.91544e-06
5.82866e-06
5.75418e-06
5.66102e-06
5.34704e-06
5.57117e-06
5.47227e-06
5.617e-06
5.40647e-06
5.37284e-06
4.77965e-06
4.8327e-06
4.35353e-06
4.4112e-06
4.10178e-06
4.14461e-06
4.24992e-06
4.6723e-06
4.56818e-06
4.46496e-06
5.26825e-06
5.03062e-06
5.10354e-06
4.95258e-06
4.86084e-06
5.20883e-06
3.35191e-06
3.44083e-06
3.37523e-06
3.5081e-06
3.83731e-06
3.75701e-06
3.6579e-06
3.50463e-06
3.92822e-06
4.03816e-06
3.31724e-06
8.01433e-07
6.03586e-06
2.39969e-06
3.97173e-05
5.92073e-06
5.91941e-06
6.07406e-06
6.15975e-06
5.94392e-06
5.96751e-06
6.19867e-06
6.35455e-06
6.4489e-06
6.47219e-06
6.31038e-06
6.31293e-06
6.31043e-06
6.54675e-06
6.04975e-05
5.65448e-05
6.62673e-05
8.01143e-06
8.64359e-06
7.73326e-06
7.29034e-06
8.93232e-06
6.51438e-06
6.25855e-06
6.67864e-06
6.13949e-06
6.37322e-06
6.19682e-06
6.36053e-06
6.34768e-06
6.43249e-06
6.45089e-06
6.33648e-06
6.40932e-06
6.32203e-06
4.74187e-05
5.42865e-05
5.13398e-05
4.01514e-05
4.36791e-05
4.63065e-05
5.85175e-06
5.70578e-06
5.5981e-06
5.28451e-06
5.53914e-06
5.48424e-06
5.41555e-06
5.55839e-06
5.34935e-06
4.72738e-06
4.30277e-06
4.36564e-06
4.14517e-06
4.20873e-06
4.62149e-06
4.57086e-06
4.47002e-06
4.97488e-06
5.07411e-06
4.93321e-06
4.81857e-06
5.1551e-06
3.3186e-06
3.36767e-06
3.26275e-06
3.34025e-06
3.79971e-06
3.71065e-06
3.61951e-06
3.54334e-06
3.89026e-06
4.02312e-06
3.26003e-06
3.22703e-06
6.55443e-07
2.31127e-06
2.32893e-06
1.96198e-05
5.8419e-06
5.85661e-06
6.00742e-06
6.09209e-06
6.1358e-06
5.87845e-06
5.91414e-06
6.20136e-06
6.28452e-06
6.36999e-06
6.38602e-06
6.22784e-06
6.29974e-06
6.27054e-06
6.23385e-06
6.25476e-06
6.42934e-06
6.20649e-05
5.76114e-05
6.47322e-05
8.28214e-06
7.42678e-06
7.1836e-06
6.26159e-06
6.05702e-06
6.47053e-06
5.96278e-06
6.19884e-06
6.10423e-06
6.03321e-06
6.20681e-06
6.2134e-06
6.34812e-06
6.31276e-06
6.22016e-06
6.30826e-06
6.1863e-06
4.9253e-05
5.60373e-05
5.3267e-05
4.47083e-05
4.67589e-05
5.78824e-06
5.65942e-06
5.73232e-06
5.53457e-06
5.60358e-06
5.22675e-06
5.44509e-06
5.35792e-06