/*--------------------------------*- C++ -*----------------------------------*\
| =========                 |                                                 |
| \\      /  F ield         | OpenFOAM: The Open Source CFD Toolbox           |
|  \\    /   O peration     | Version:  v2012                                 |
|   \\  /    A nd           | Website:  www.openfoam.com                      |
|    \\/     M anipulation  |                                                 |
\*---------------------------------------------------------------------------*/
FoamFile
{
    version     2.0;
    format      ascii;
    class       volScalarField;
    location    "5";
    object      p_rgh;
}
// * * * * * * * * * * * * * * * * * * * * * * * * * * * * * * * * * * * * * //

dimensions      [1 -1 -2 0 0 0 0];


internalField   nonuniform List<scalar> 
27222
(
101877
101848
101855
101959
102430
100999
102085
102538
103024
102290
102073
102372
102643
102930
102585
102233
102253
101178
102693
102756
103233
102849
102068
102049
102675
102284
102649
102810
103063
103322
103459
103055
102090
102356
102913
102618
102498
101446
102985
103399
103820
103809
103462
103289
101942
101072
102517
103210
102703
102303
102224
103084
103827
103976
104012
103942
103740
103425
102137
102119
102802
103423
102472
102939
102298
101717
103298
104082
104347
104409
104180
103674
102684
102233
100785
103245
103912
102623
103028
102458
102160
103386
104481
104579
104442
104624
104272
103809
102800
102186
101932
103420
104137
102835
103263
102991
102420
102276
101485
103625
104810
104959
104732
105071
104571
104270
104087
103165
102611
102059
101616
103865
104612
102888
103315
103141
102754
102397
102399
103683
104848
105247
105218
105144
105040
104760
104486
104124
103217
102590
102086
101489
103982
104926
103070
103505
102786
102404
102704
101428
103903
105246
105640
105654
105565
105234
105018
104607
104337
103663
102888
101772
101449
104474
104924
105329
103169
103535
102933
102268
102714
102645
103921
105650
106010
105985
105780
105558
105066
104555
104876
104330
103854
102887
102184
101316
101349
104486
105506
105760
103128
103388
103745
102886
102186
102642
102386
104118
106006
106550
106439
106210
105685
105315
104808
104988
104525
103707
103192
102069
101159
101154
104862
105506
105946
103269
103507
103712
102948
102704
102754
103854
104137
106418
106837
106732
106505
106303
106059
105571
105225
104782
104509
104162
102988
102325
100819
101553
100270
104717
105957
106538
103452
103238
103828
103094
102920
102537
103787
102568
104012
104340
106750
107307
107215
106935
106706
106063
105779
105403
104937
104676
104073
103452
102101
100353
101212
100131
105120
106741
105698
106922
103577
103370
103754
103139
102900
102776
102868
102422
104101
104283
107260
107704
107441
107740
106994
107286
106672
106320
105716
105367
104866
105186
104664
104649
103193
102375
100940
101341
99528.2
107089
106164
107715
103529
103306
103866
103074
102737
102640
102899
104032
104355
107738
108233
107963
108234
107423
107624
106955
106246
105925
105630
105011
105190
104823
104520
104797
103678
101889
100321
100992
99597
106815
107830
106097
108311
103652
103367
103812
103106
102799
102534
102053
102960
104128
104271
108224
108711
108043
108810
107594
106774
107328
106449
105860
105535
104983
105334
104796
104513
104359
105582
103405
102123
100428
101264
99002.2
107251
107952
108397
107005
109010
103632
103514
103247
103926
103001
102781
102747
102236
102609
104071
104375
108828
109105
108960
108432
109225
108094
106938
107559
106330
106062
105639
105129
105301
104940
104631
104742
105538
102736
104359
100129
100904
98858.8
99451.8
108587
109380
107377
109785
103756
103569
103300
103891
103049
102912
102725
102396
102306
101639
104172
104319
109655
108938
109687
108431
109886
108180
106733
107244
107869
106491
106026
105830
105440
105104
104884
104626
106104
102824
104558
99773.2
101110
96725.6
98876
108463
109494
110075
107100
110340
103717
103470
103182
104001
102841
102602
102333
102250
101835
104129
104388
110176
109343
110123
108998
108603
106908
107253
108091
106283
105838
105448
105255
104742
104949
104524
105684
102138
104004
99040.3
100668
97020.3
97701.1
109180
110312
110967
107839
111153
103817
103499
103223
103973
102929
102585
102460
102020
101724
104229
104338
110981
109977
110924
109025
108520
106779
107505
107889
106283
106041
105624
105237
104724
104819
105093
104519
106071
102401
104296
99310
101243
95595.7
97135.8
108998
110179
111158
111407
111628
107452
111583
103817
103357
103596
103103
104084
102849
102708
102392
102206
101874
104200
104430
111571
110324
109452
108819
106973
106508
107307
108191
106003
105597
105410
104613
104827
105075
105512
103486
98635.3
101001
91748.3
96212.4
109948
110937
112085
112379
112415
107992
112517
103936
103720
103414
103562
103184
104063
102980
102672
102517
102136
101650
101929
104298
104404
112372
111549
111091
109985
109308
108672
106681
106455
107503
107997
106191
105776
105357
104598
104944
104738
105204
106018
103915
99334.5
97300.7
101720
93975.9
85331.9
95411.4
109969
110977
112069
112847
112735
113120
109135
107276
113215
112760
103928
103802
103351
103630
103143
104144
102943
102783
102503
102373
101983
102027
104309
104448
112947
112477
111302
110260
109720
109020
106665
107332
108215
106110
105699
105497
104652
104531
104911
104727
105137
105391
103105
98759
96647.7
101039
93315
86399.4
95030.7
110972
112000
112665
113750
113668
113911
109523
107872
114331
113773
104013
103768
103411
103563
103273
104272
104130
103063
102635
102350
101681
101885
104416
104445
113736
112453
110801
111922
109637
108776
106278
106880
107546
107967
105843
105394
104596
104516
104999
104797
104619
105217
106071
104031
97419.6
99580.3
101884
94217.2
85693.7
93986.8
112273
110771
112488
113571
114341
114157
114819
109097
107332
115060
114452
103997
103873
103626
103258
104341
104206
103050
102719
102468
102104
102130
104444
104493
114530
112911
111021
112130
110025
108943
106200
106771
107285
108168
105724
105494
104548
104947
104723
104569
105072
105512
103337
96726.5
98842.1
101210
93623
89091
94838.9
113130
111439
113804
114394
115618
115210
115587
109717
108087
116007
115534
104097
103900
103803
103547
103384
104349
104467
104205
103189
102889
102618
102408
101641
101965
102082
104506
104494
114430
115540
113597
110687
111879
109872
108618
109436
105875
106359
106941
107440
107826
105351
104490
104808
104619
104469
105104
106483
104072
95580.6
97709.4
99658.5
101980
95385.6
92908.4
82133.1
114397
112623
110993
114722
115362
116576
116584
109272
107669
116805
116350
104065
103835
103667
103349
104423
104550
104332
103154
102970
102732
102490
101785
102058
102227
104549
104496
115421
116684
113582
110971
112161
110410
108814
109366
105682
106362
106699
107086
108003
105400
104461
104682
104515
104396
104961
106225
105428
103211
95391.6
96612.7
99392.7
101457
93327.7
92084.6
86605.1
115123
114971
113369
111598
115583
116593
117440
117419
110090
108382
117672
117327
104168
103959
103651
103480
104548
104615
104608
104346
103262
102905
102672
102406
102226
104567
104487
115139
116450
117603
114324
112903
111581
110292
108527
109692
105670
106118
106734
107038
107761
105280
104391
104534
104733
104428
104268
105041
107769
105950
103740
93785.4
96687.3
100320
98004
102518
91125.7
90213
88485.9
114654
116410
116344
112813
111189
116541
117339
118638
118522
109602
118542
117947
117792
104140
103960
103800
103439
104655
104702
104749
104484
103193
103015
102781
102484
102221
104627
104435
115890
117221
118636
113973
113159
111795
110615
108651
109685
105801
105370
106201
106486
107304
106584
108094
104286
104385
104546
104327
104221
104213
104881
108286
104866
107459
93611.1
95005.2
99970
98355.1
102561
94439.5
91189.8
83392.6
115431
116892
117089
116960
113282
112164
118135
119164
119288
110241
119400
118955
118857
104245
104126
103746
103556
104651
104822
104830
104525
103306
102951
102711
102435
104628
104410
116819
115456
118263
119383
118939
114440
112594
111249
110229
109161
105539
105297
105941
107104
106339
107937
104274
104322
104505
104049
104041
104658
105032
109499
105132
108043
92111.3
95090.4
100279
97535.6
101384
103869
95550.6
88710.4
92028.4
88213.4
116664
115181
118130
118439
117981
114354
112184
118469
118981
120524
120324
111327
120323
119362
104419
104191
103864
103478
104834
105007
105010
104762
103213
103049
102897
104830
104469
117717
116101
118726
120201
120055
113896
112909
111216
110463
109136
105574
105993
107395
106705
106370
108209
104148
104172
104274
103924
103972
103979
104482
104878
110307
106159
109321
107220
91610.1
94019.5
96426.8
99039.3
101712
104125
90543.3
88634.8
90076.8
94098.2
88662.9
117287
116471
118817
118551
119142
114506
113508
119507
119763
121228
120929
120806
111556
120880
120303
104513
104072
104404
103784
103592
105060
105167
105128
104847
103330
104705
104243
117392
115529
119865
120861
120625
120553
120829
114340
112338
111581
110286
108689
109720
105381
105705
107146
106508
106015
107860
104112
104231
103712
103715
103779
104542
104904
110211
105546
109550
108317
92382.6
89207.7
94642.5
96086.1
99032.6
103128
100569
85654.8
88790
86927.9
81611.5
118460
116618
119941
119657
120401
115696
113548
120079
120931
122390
121983
122026
112518
121887
104700
104199
104519
103895
103533
105295
105474
105576
105052
104213
104993
118262
116093
120233
121711
121599
121765
121938
113646
112698
110955
108765
109408
105477
105085
105716
107371
106675
106100
108205
103902
104044
103529
103476
103567
103740
104449
104589
111714
106056
110656
108232
91917.8
87952.3
93923.4
96579.8
97837.7
103605
100854
84631.8
86368.7
84781
85752.5
119049
117722
120216
120855
120917
121086
116085
114534
121211
121560
123170
122610
122539
122539
112589
122251
104791
104096
104416
104723
103860
103673
105283
105600
106011
105009
103832
104401
105817
117458
119565
115305
121613
122565
122669
122686
114017
111937
111017
109684
105161
104994
105343
107030
106376
105821
107972
103830
103989
103176
103495
103108
103393
103494
104159
104512
111898
105154
107267
110574
109461
90510.7
92873.6
85725.1
88890.9
95401.3
98300.2
103018
99620.8
101967
82684.8
84872.7
81833.1
81751.2
120284
118668
117493
121248
121747
122176
122456
115576
113943
121795
122858
124151
123664
123595
123567
123285
104199
104561
104840
104022
105515
106007
106553
105080
103822
104615
106490
117996
120495
115651
121638
122556
123401
123857
123793
113350
111795
110499
109202
105085
104693
105217
107234
106530
105991
105416
108328
103600
103688
103031
103055
102686
103165
103420
104070
104235
112956
105692
107673
111883
109212
90787.4
92120
84926
87812.9
95466.1
97249.8
103792
100298
101752
81523.5
82267.5
81619.5
80147.7
90022.2
120900
119899
118325
122745
122640
122887
123157
116529
114579
122856
123541
124366
125069
124467
124353
123950
104395
104745
105011
105431
105849
107284
105266
103148
102441
108039
119328
116954
120238
114823
122580
123703
124299
124217
124663
113798
112313
110824
109464
104784
104592
104813
106923
106026
105649
105075
107881
103527
103633
102680
102675
102333
103006
103166
103783
104117
114065
112935
106858
104939
112155
109959
89698.8
92353.5
86383.6
83540.1
88354.1
94543.4
97336.1
102979
99778.9
81138.2
80626.5
80960.7
77917.8
81615.3
122011
119803
117881
123369
123738
124090
124431
116017
124699
125174
125431
125739
125614
125315
124896
105085
105604
105893
107123
105165
102415
101251
109365
119522
117180
121783
115020
122805
123673
124635
125199
125455
125605
113093
111711
110341
108910
104627
104262
104572
107193
106233
105867
105259
104694
108133
103261
103337
102771
102419
102068
101815
103020
103131
103674
103820
114982
114250
107200
105726
113582
111329
109319
90725.7
93297.6
85378
82003.4
83592.2
87478.1
95207.6
96145.1
98548.8
103249
100873
77451.1
77796
78399.5
76445
81903.7
122759
120776
118763
124356
124038
124482
124935
124918
116874
125089
125856
126609
126802
126310
126124
125482
105433
106059
107958
105235
97622.1
103081
112346
121239
118441
116145
113771
124002
124455
125682
126034
126183
126454
112095
110666
109189
104316
104144
104247
106653
105917
105722
105144
104419
107433
103189
103249
102643
102051
101429
101599
102784
102839
103396
103680
116215
114613
108042
105486
113600
112089
110321
90377.9
92918.5
85876
80742.2
82178.3
88011
94089.6
96053.7
98249.3
104495
102178
100301
75171.1
75621.4
77679.2
74284.2
73319.8
76736.2
122755
122023
120087
118208
125102
125578
126138
126033
126114
127020
127334
127233
127317
126696
126661
105348
105340
106538
105154
99444.1
94838.3
96452.6
114183
121927
118565
116607
113037
125190
125442
126515
125889
127027
127294
127326
111487
110102
108535
104144
103835
103928
106140
106592
104442
105509
105602
104609
103981
107484
102938
102979
102493
102221
100501
101067
102722
102778
103243
103415
117038
116146
107675
106418
114439
111568
109963
89151.1
91665.2
84751.3
78885.1
82145.3
86754.3
94777.8
96853.3
98903.7
104642
103478
100715
71690.3
72992.6
75491.8
74083.7
71752.9
71635.6
124431
122790
120955
119065
125951
125399
126440
126865
126840
127071
127998
128298
128397
128021
127506
127163
105053
104970
108236
100500
94709.4
97720.9
118660
124146
120110
115186
113371
111936
125637
126342
126120
127351
126826
127958
128126
128149
110442
108832
103797
103681
103614
105526
105854
103738
104677
104303
104035
103568
106290
102817
102860
102449
102201
100846
102535
102529
103037
103226
118442
116786
108661
105973
113617
115752
112338
111303
89161.8
91529.6
83431.7
85488.6
78510.2
80644.3
87722.7
94407.4
96499.5
97960.2
103611
98720.8
101560
69148
73356.6
70392.8
75321.3
67670.1
66637
62875.6
124448
122292
120425
126992
126808
127630
128244
127914
128080
129135
129297
129337
128933
128209
128072
104593
104228
104384
100229
100449
91527.5
91022.1
117796
124978
120190
115532
112826
111100
128379
127456
126897
127406
128080
128683
128967
129003
109885
107499
103422
103223
103149
106108
103979
103504
104629
106034
103393
103299
105331
102583
102461
102396
101994
101288
102437
102460
102362
102864
103048
119306
118198
108183
106392
114366
116531
111519
90102.6
92330.8
82719.1
84570.7
76741.6
79217
80953.2
87347.9
93401.7
95521.8
105449
102789
98355.4
101219
66229.9
71271.6
68546
73642.1
65567.5
62977.6
42351.9
125267
123229
121271
127396
127820
127468
128645
128863
129247
130166
130507
130396
129828
128906
128791
109340
103215
100612
85071.5
102492
100556
116975
128332
122649
117690
113524
112051
113058
110673
130209
128345
127893
127595
127980
128699
128817
129279
129413
129626
129404
106172
103216
102263
106656
103899
103999
106337
107153
103725
103097
106366
102422
102470
102408
102689
101034
102256
102246
102306
102699
102775
120670
119029
118745
108926
113827
115774
117878
112729
110399
89806.7
91367.2
83212.1
84865.8
76280.8
77979.7
79908.9
88836.5
86045.6
93634.3
95281.3
105840
103527
99891.6
97174.1
102557
64857
63758.9
71695.5
69355.5
66439.7
73981.7
54307.8
56804.1
51622.7
11811.4
124506
126482
122683
128693
128880
127233
128978
129917
130024
130279
131285
131496
131517
130467
129726
129831
103300
101454
89780.5
103169
99252.4
108702
130275
122198
118561
113201
109082
109880
109205
133954
129577
128558
128060
128626
129872
130381
130841
129955
108472
102873
103514
107406
104738
102623
102438
110175
101969
102362
102586
102297
102608
101232
102138
102079
102136
102949
121463
120625
120193
108292
115217
116415
118689
112661
111133
92285.9
82222.9
83602.4
75069.1
78356.2
80613.3
88757.7
86054.4
95766.7
104651
107041
99926.5
97320.1
103095
61409.1
58734.6
70222.4
67685.5
65627.4
72674
55511.4
45048.2
30769.3
125468
126843
123510
129479
129939
128923
129789
130941
131000
131374
131946
131788
132531
132651
131412
130795
104915
101337
90118.7
103682
93743.1
124869
137436
115388
110727
106366
107254
108278
133218
139842
130791
128572
128343
129083
130624
131092
130808
131383
130539
129927
108690
102673
101943
101618
101862
102567
102282
103298
101353
101973
101518
102173
102966
122823
121125
120328
109314
115171
117919
113585
110574
91983.5
82394.2
83568.5
75209.7
77530.7
79912.8
89526.5
87210.8
84742.8
94640.6
104666
107130
101071
98433.3
95785.4
102551
61755.6
58574.3
71048.2
68630.1
67769.5
63797.9
71638
73586.1
50641.4
42482.5
46851.9
11647.8
125052
128200
130884
131152
129369
131151
132314
132094
132363
132915
133074
133663
133855
131897
131644
107901
102605
99004.8
103920
122380
140986
113128
109229
109531
107974
134614
147715
130331
128396
128405
128836
129736
132015
131725
132347
130871
111668
101936
102184
102688
102148
102163
103280
101642
101970
100951
123481
122566
121464
108602
116190
118494
112986
111416
90649.9
93241.7
81177.4
82283.7
75932.1
77748.8
78669.2
88531.5
87015.7
84682.4
105917
100542
98139
95320.6
103381
60067.2
56400.1
69470
67579.7
66017.6
64361.8
71066.6
72973.8
51372
35609.3
43357.5
11709.7
125969
128487
131854
132411
131021
131996
133450
133240
133514
133545
133454
134733
134823
134144
132990
132342
107753
99173.4
107412
126706
115248
153310
109973
105854
105341
139020
131576
161528
128722
128516
128074
129158
130079
132839
132368
133194
131399
102164
100962
103844
101604
101691
101373
124878
123376
123040
121178
109101
117536
116077
119798
113590
110735
91143.2
92790.3
81052.3
82168.5
75289
76505
78674.3
88691.8
85808.9
83404.3
106093
99125.9
102140
96589.6
93732.7
104784
58507.4
60841.5
57136.6
54162.5
69534.7
67871.2
65892.5
62637.5
71472.7
73853.6
49378
39022.8
28116.5
44561.7
11897.1
127430
130023
133144
133640
131440
133330
134863
134167
134530
134421
135610
135959
135619
133375
101090
99074.5
105483
121364
113822
126588
185080
111241
136410
128987
140788
127526
128792
127702
129694
130906
133206
133286
132543
134352
132206
101867
104917
101802
101522
102033
101705
125151
124369
122688
108156
118426
117809
114923
119805
112085
90168.3
79811.7
80879.6
76588.7
77593.9
87297.4
85708.6
83275.8
98640.7
102310
96674.4
93212.3
105212
57277.6
58613.5
54286.2
52936.1
68699.1
66618.2
64779.1
63144.6
70792.6
73547.2
50251.4
46973.8
35817.7
41085.6
41969.5
28349.5
128252
130533
133875
133902
134976
132773
134417
135950
135414
135415
135119
136696
135907
136313
136807
136175
134413
100469
100796
101567
115342
119990
142138
130485
127257
130818
126553
128775
128065
126910
129953
131259
134160
134748
133574
135486
132599
101528
105405
100793
101865
101667
126176
124474
125724
122263
123837
108539
118522
115392
120803
112247
90202.3
79703.5
80718.8
75399
77235.7
87563.6
84517.3
81924.5
99165.6
100910
103923
95547.7
91435.7
94123.8
106905
55352.9
58457.7
53768.1
67125.7
69325.2
65142.6
61656.5
71051.5
74376.4
72268.9
49573.7
45148.6
39796.9
31099.1
41471.2
26236.4
129938
127573
132181
135103
135551
136258
134061
134747
135626
137463
136028
135445
137780
137224
137707
138036
137436
100375
101169
116934
125095
124752
120131
116495
124993
129362
127977
126503
130714
132148
134196
134983
133663
136570
101063
104351
101003
100947
126096
126779
123497
125201
109753
117966
120254
114004
116749
111110
88802.8
78359
79535.6
76150.4
86378.5
84281.3
81730.4
98063.3
101968
103954
96237.6
91403.8
93100.7
107387
54371.9
59886.6
56655.2
52554.2
66298.1
68387.5
63951.3
62528.9
70170.9
73892.8
72333.3
48056
51105.2
42854.1
45964.9
38259.8
36262.2
39933.4
23234.6
35635.7
130854
128866
133090
136093
137699
135207
136507
137053
138292
138086
137086
136630
138887
137843
138285
139019
102189
100939
123426
121419
123423
110500
119553
103196
125273
123571
129381
127074
128659
130880
132560
135198
135776
134463
136983
137360
100968
102107
101233
100468
126547
128236
125118
122912
109385
119126
121197
114103
116881
112519
88452.6
78383
79156.5
75455.5
85101.9
82827.6
80208.5
98560.4
101550
104965
95045.1
90349.4
93389.6
106547
54964.1
52622.1
58718.3
56229.9
65171.6
67068.2
68907.5
64173.5
61044.2
70275.9
72856.5
74348
71278.9
48096.1
49783.6
42017.3
44967
37361.1
39770.7
41535
11841.8
36189.8
130294
132344
134695
137430
138761
136796
137659
137260
140071
139592
137514
139845
139090
139622
140260
101378
100778
120795
118103
120999
109563
115288
124803
122105
130140
126871
128591
131787
133438
135642
136620
134130
135496
138511
137391
138780
101152
100818
127970
129180
126588
123581
110402
120524
118583
115588
112144
89009.2
77055.5
77964.3
75856.1
84762.1
82119.1
80252.1
97050.5
100071
102751
104249
95454.6
90360.6
91944.6
107232
53456.5
51193.5
56902.1
59324.2
54208.4
64984.6
66306.7
68080.9
62464.8
61371.2
69328.1
72421.4
73700.4
71427.8
47110.8
50039.2
40887.3
43163.7
45601.6
37746.9
39791.3
38392.8
26945.7
131479
132982
135758
138469
140205
137882
138981
138813
141042
140701
138836
139983
141026
139527
140747
101137
118095
115451
119391
111471
125796
123767
120098
122359
130200
127757
129472
131867
133498
136819
135065
136422
139425
138728
139929
101198
128221
130619
126915
121679
124800
109887
119439
115804
112984
88129
77482.7
74992.1
85553.2
82859.2
79208.7
97215.4
100287
102252
105791
94316
89176.2
92490
108576
51788.6
51042.5
55846.8
57908.7
54135
63447.8
66276
68260
66925.5
62065
60005.4
69620.6
72542.2
73851.4
70670.6
47821.7
49026.8
40309.4
42519.3
45043.3
37853.2
38488.1
46667.5
35614.8
11828
131608
134269
137356
135418
139910
140966
139398
140286
139817
142635
142035
141349
142386
140972
142128
101620
115738
113769
116868
111418
125652
124082
118513
121060
131127
127668
129632
132829
134585
137741
136084
137568
140943
139752
138806
141080
129693
131611
126216
129187
121309
124465
111774
118808
117292
114428
86847.4
77898.8
75934.6
75059.4
84619.8
82048.1
79581.7
95793.7
98899.6
102891
105732
94472.5
88634
91536.9
108920
50613.5
49695.8
56182.9
58728.4
53079.1
64241.9
67249.1
66045.3
60404.8
68575.7
71964.4
72926.4
70995.7
46866.1
41177.6
40425.9
43076.6
41909.2
45906.4
44149
37290.8
39068.4
40012.6
43719.8
39613.8
48335.1
133192
134415
138249
136925
140566
142391
140746
141867
141377
143414
143552
142400
143223
142593
143543
141796
143363
114030
110562
112470
115252
113612
126538
123725
116417
119253
121099
131300
128787
130626
133096
135023
136925
138568
141641
140968
139867
141980
131229
133364
128050
129968
122438
125831
111984
120085
117067
115224
86959.9
76838.8
75581.9
73676.9
83159
85698.6
80594.8
78050.4
95606.6
99931.1
104365
101889
107475
92803.8
88824.3
90105.7
110344
50967
49330.8
48799.6
54791.3
57967.4
53390.8
51723.2
63891.7
66237.2
67519
64890.2
59851.6
68431.4
72061.6
72523.3
70047.6
47484.4
40344.5
40264.9
39623
41627.1
41061.6
44870.5
44165.7
38981.2
40270.5
41196
42772.6
59858.5
135892
139736
137119
142602
142309
140949
143570
145084
145219
143914
144587
143713
145138
143302
144692
111360
110751
110337
112800
114550
126366
122270
124841
115190
118247
119431
132236
128866
131114
134185
136230
138248
139791
143291
141116
143110
133144
134723
127852
131527
121877
125227
114161
118946
76640.3
74486.2
73460.6
82428.7
85029.4
80179
78536.3
93220.5
95833.2
99632.2
104630
102993
107841
92075.9
87040.5
90277
110082
48932.6
48417.8
55273.2
56387.4
58541.8
52161.1
50509
62620.6
65360.2
66604.1
64239.2
60530.2
67352.8
68923
70968.7
71463.6
70066.7
46646
40078.9
38929.6
39240
41517.2
40951.6
44989.6
43419.7
38797.5
39613.2
41860.2
46891.2
44324.7
60699.1
136063
140013
138596
143899
143873
142778
144888
146061
145781
146491
146116
143989
144959
146736
144127
146138
109062
107896
108683
111672
104515
127583
121751
124509
116406
113238
118870
132281
130047
130990
134255
136654
139016
140811
143895
142307
143767
133128
134827
129243
131994
123184
126414
114625
119296
75390.5
74130.1
72238
80819.2
83313.5
77749.6
93320.7
96575.1
102186
98275.7
106367
87253.1
89235.3
110877
48195.7
47322.1
53689.5
55926.1
57249.1
50894.8
52399.1
48694.9
61449.6
62417.1
65508.6
66760.6
63255.1
58100.8
66957.4
68214.2
70786.3
69364.2
45596.3
39571.9
38824.3
38798.9
42269.8
40078.5
39965.9
43654.8
38853
39434.9
40968.8
50989.2
45248.8
71539.1
56168
137513
141606
138747
145527
144228
144954
143109
146255
147835
147446
147907
147027
145654
146323
147048
148028
145657
106776
107607
106840
109640
108176
127654
122866
120155
125405
115486
112197
116889
133163
130165
132191
135064
137716
136001
138554
140149
142018
140832
145195
143603
145144
134805
136811
131081
128417
134286
122824
125258
112844
116162
117756
121348
75183.4
72676.4
71042.3
71734.3
79886.9
82562.8
76138
78325.5
92283.1
95885.1
102240
99882.7
106861
85663.9
89171.4
109616
46944.5
46541
53681.7
54898.7
49833.3
51258.5
47858.4
60117.4
61065
64539.9
65617.1
63214.5
57512.9
67154.1
65868.4
68326.3
69581.7
44875.2
38735.2
39408
37907.8
38455.3
41686.2
39693.4
39589.3
43248.5
38246
39437.2
39952.8
41660.1
47862.2
42954.1
61720
57115.3
137938
141652
140184
146804
146086
147003
144998
147688
148295
149100
149394
148864
146409
147710
148935
149672
146632
106374
104643
105065
105118
107472
110023
102663
129174
126668
122313
119581
124713
113304
116487
133131
131455
132481
134425
137856
136798
139595
140630
143047
142346
146363
144928
146311
136297
137379
132793
129508
135404
126014
113875
115906
119557
121597
73536.1
72395.3
69482.5
70272.7
80465.5
82942
75758.3
77267.6
93553.5
90213.8
96949.1
103720
99122.6
105662
87296.4
84005.4
110454
46171.4
45306.1
52245.9
54885
50325.6
48169.6
51299.4
46507.6
58450.1
60743.8
64895.7
63693.2
61834.4
56037.6
66125
65275.2
67370.3
68599.6
43706.8
38376.7
38402.2
37242.8
37897.9
40169.1
42158.1
38548.1
38581.4
38395.6
38100.3
38884.3
39572.3
40789
47520.5
44339.7
56602
51916.7
139928
143149
148562
147714
146510
144984
149240
149929
150596
149461
150060
150731
148009
148805
150320
150721
148239
102773
102401
103328
103349
106175
108483
103326
129640
126978
123487
120927
117975
125767
112282
114908
131330
133943
134954
139115
136401
141882
144517
142913
147490
146412
137758
139245
134803
132003
128203
137404
124947
113492
117031
118927
123158
72933.1
71039.7
68534.1
69795.8
79133.7
80990.8
74281.1
77426.5
92527.8
89273.6
95588.8
103661
99463.1
106989
86710.4
83618.1
108929
112097
44919.2
44531.9
51827.2
53151.7
49515.4
47324.7
49976
45516.3
57937.3
59897.4
64143.9
63176.9
61974.1
55405
66315.6
65183.4
64376.9
67264.7
43020.1
37305.7
38089.5
36909.7
37157.5
37293.8
39680
41858
38219.7
38069.9
37983.3
37280.2
38304.8
39639.4
39013
40892.9
44759.1
42390.2
49331.4
51091.3
141181
143083
149402
148500
146531
150922
152202
151555
151981
152466
148974
150174
152107
152478
149794
101258
100500
101997
100817
103722
108338
98671.5
128518
123248
120551
117448
125002
113310
110083
115554
132234
134537
139629
137150
142266
145454
144379
148909
147717
139553
140886
136783
133181
128829
138555
126847
115959
120005
122620
71390.7
70441.2
67517.4
67873.3
79100
81779.8
74490.9
76198.3
90480.8
93628.3
87258.9
97255.9
102354
105996
100658
84679.4
110065
112256
44080.6
43238.5
50465.7
52646.9
48604.4
46402
47776
49450.3
45751.3
44336.9
55923.6
58777
60032.4
63310.9
61208.8
53910.8
65515.5
64435
63770.5
66297.1
36824.1
37475.1
36343.5
36153.9
36502.6
40071.5
38494.3
41030.5
37156.6
37118.2
37385.4
36841.6
37811.4
39352.9
38495.5
40180.1
43749.4
41349.7
35654.6
44413.1
145062
149619
150624
149203
148198
152443
151421
153581
152859
153090
153679
150659
151506
153350
153050
150200
151269
98497.3
101650
97507.9
98468.6
98255.3
103785
105945
98588.7
128687
121881
118822
125546
111799
109745
114462
131910
133681
136219
141232
138659
143910
147031
144956
149115
147966
141716
142680
137035
135264
131938
130284
140471
127270
116727
118869
124051
70557.6
68736.8
66073.8
66925.9
66701.7
77524.1
80880.4
73164
75711.2
89709.6
92637.3
86050.8
96671.6
103313
106629
100089
84037.4
108997
113770
42694.8
42389.4
49578.1
50075.3
51181.9
47948.1
45513.2
46559.9
44202.1
43561.3
54973.1
57849.9
58668.2
60452
62559.6
61552.4
53257.4
64160.4
65426.5
63756.3
63849.9
63166.9
36877.1
35430.4
35734.6
35628.4
35977.4
39130.2
37728.3
41123
36498
36393.5
36654.1
36834
36267.5
37450.1
39300
38054.1
39697
40401.5
41511.5
40828.1
41123.3
11834.9
40353.1
41827.6
145138
151671
152190
151492
149537
154386
153510
155417
155053
154867
155438
155102
154360
152112
153130
97546.1
96481.7
99302.5
96309.2
97656.1
101331
106071
96831.5
127174
129867
121289
118922
124332
112346
107995
114503
131132
133821
134671
137027
141814
139416
144532
147639
146614
150673
149568
142242
139136
135838
133909
129919
141442
126198
115656
119464
123267
71299.5
69003.8
68091.2
64425
65013.3
65505.3
77691.5
82250.3
79078.7
74002.4
90619.6
87542.4
94214.9
85930.7
98102.6
101948
105163
109663
113570
41860.6
48047.7
48524.6
50714.6
47092.1
44328.6
46467.5
43734.5
42472.3
55044.7
56473.6
58280.6
60039.6
61279.3
52019.3
63274.1
64137.1
62908.9
62665.7
62646.6
36081.8
34598.5
35146.9
35138.5
35641.7
37982.2
39293
36979.7
40273.6
35279.7
35616
36186.2
36814.3
37433.3
38477.5
38825.7
39901.7
41197.8
41278.1
40708.1
21901.3
35503.2
40715.5
146776
152757
153942
152026
149674
154923
155984
156818
155889
155973
155930
156327
156048
154427
153636
152284
95518.7
93634.4
98334.1
93890.1
96223.8
101785
99006.1
104124
96315.4
127872
129506
122310
117663
125415
111119
107699
112464
115635
132040
134368
136171
138648
143388
140910
146276
149423
147224
150667
150221
144313
139433
140751
137889
133815
131392
144363
127242
117420
121387
125502
70748.9
68000.6
66163.6
63493
63989.1
64947.2
75741
82005.2
78179.7
72743.2
89574
87436.6
93546.4
83821.1
97270.6
102338
105686
111717
107889
116657
40405.1
46786
47918.5
49420.1
43996.7
45571.7
42833.3
41942.2
53371.3
56240.4
57124.3
60204.3
61797.3
51924.1
61981.1
62488.2
62331.4
61655.8
62093
35122
33948.3
34542.4
34895.8
34240.7
35142.5
36962.8
38267.4
36386.4
34637.9
34929.7
35324.8
35688.9
36571.9
37168
37937
38481.8
39655.6
39692.5
40960.5
41073.1
40044.8
40841.5
11845
35064.5
38092.6
146107
148687
155185
155603
153654
152742
157061
158306
158730
157796
157844
157801
158124
157742
156287
155452
153923
95575.8
93595.4
91324.9
94170.6
91072.1
95787.5
99619.9
96675.2
105182
96026
127256
130930
121531
118276
124537
109161
111526
115008
133443
135901
136903
139458
143651
141829
147038
150074
148863
152016
151726
141807
142532
138094
135725
130795
145711
128829
122164
126067
69480.5
67991.9
65965.2
62071.6
62283.7
62864.8
76161
73346.5
79908.1
89216.5
85519.7
90960.9
95017.7