/*--------------------------------*- C++ -*----------------------------------*\
| =========                 |                                                 |
| \\      /  F ield         | OpenFOAM: The Open Source CFD Toolbox           |
|  \\    /   O peration     | Version:  v2012                                 |
|   \\  /    A nd           | Website:  www.openfoam.com                      |
|    \\/     M anipulation  |                                                 |
\*---------------------------------------------------------------------------*/
FoamFile
{
    version     2.0;
    format      ascii;
    class       pointVectorField;
    location    "5";
    object      pointDisplacement;
}
// * * * * * * * * * * * * * * * * * * * * * * * * * * * * * * * * * * * * * //

dimensions      [0 1 0 0 0 0 0];


internalField   nonuniform List<vector> 
33374
(
(0 0 0)
(0 0 0)
(0 0 0)
(0 0 0)
(0 0 0)
(0 0 0)
(0 0 0)
(0 0 0)
(0 0 0)
(0 0 0)
(0 0 0)
(0 0 0)
(0 0 0)
(0 0 0)
(0 0 0)
(0 0 0)
(0 0 0)
(0 0 0)
(0 0 0)
(0 0 0)
(0 0 0)
(0 0 0)
(0 0 0)
(0 0 0)
(0 0 0)
(0 0 0)
(0 0 0)
(0 0 0)
(0 0 0)
(0 0 0)
(0 0 0)
(0 0 0)
(0 0 0)
(0 0 0)
(0 0 0)
(0 0 0)
(0 0 0)
(0 0 0)
(0 0 0)
(0 0 0)
(0 0 0)
(0 0 0)
(0 0 0)
(0 0 0)
(0 0 0)
(0 0 0)
(0 0 0)
(0 0 0)
(0 0 0)
(0 0 0)
(0 0 0)
(0 0 0)
(0 0 0)
(0 0 0)
(0 0 0)
(0 0 0)
(0 0 0)
(0 0 0)
(0 0 0)
(0 0 0)
(0 0 0)
(0 0 0)
(0 0 0)
(0 0 0)
(0 0 0)
(0 0 0)
(0 0 0)
(0 0 0)
(0 0 0)
(0 0 0)
(0 0 0)
(0 0 0)
(0 0 0)
(0 0 0)
(0 0 0)
(0 0 0)
(0 0 0)
(0 0 0)
(0 0 0)
(0 0 0)
(0 0 0)
(0 0 0)
(0 0 0)
(0 0 0)
(0 0 0)
(0 0 0)
(0 0 0)
(0 0 0)
(0 0 0)
(0 0 0)
(0 0 0)
(0 0 0)
(0 0 0)
(0 0 0)
(0 0 0)
(0 0 0)
(0 0 0)
(0 0 0)
(0 0 0)
(0 0 0)
(0 0 0)
(0 0 0)
(0 0 0)
(0 0 0)
(0 0 0)
(0 0 0)
(0 0 0)
(0 0 0)
(0 0 0)
(0 0 0)
(0 0 0)
(0 0 0)
(0 0 0)
(0 0 0)
(0 0 0)
(0 0 0)
(0 0 0)
(0 0 0)
(0 0 0)
(0 0 0)
(0 0 0)
(0 0 0)
(0 0 0)
(0 0 0)
(0 0 0)
(0 0 0)
(0 0 0)
(0 0 0)
(0 0 0)
(0 0 0)
(0 0 0)
(0 0 0)
(0 0 0)
(0 0 0)
(0 0 0)
(0 0 0)
(0 0 0)
(0 0 0)
(0 0 0)
(0 0 0)
(0 0 0)
(0 0 0)
(0 0 0)
(0 0 0)
(0 0 0)
(0 0 0)
(0 0 0)
(0 0 0)
(0 0 0)
(0 0 0)
(0 0 0)
(0 0 0)
(0 0 0)
(0 0 0)
(0 0 0)
(0 0 0)
(0 0 0)
(0 0 0)
(0 0 0)
(0 0 0)
(0 0 0)
(0 0 0)
(0 0 0)
(0 0 0)
(0 0 0)
(0 0 0)
(0 0 0)
(0 0 0)
(0 0 0)
(0 0 0)
(0 0 0)
(0 0 0)
(0 0 0)
(0 0 0)
(0 0 0)
(0 0 0)
(0 0 0)
(0 0 0)
(0 0 0)
(0 0 0)
(0 0 0)
(0 0 0)
(0 0 0)
(0 0 0)
(0 0 0)
(0 0 0)
(0 0 0)
(0 0 0)
(0 0 0)
(0 0 0)
(0 0 0)
(0 0 0)
(0 0 0)
(0 0 0)
(0 0 0)
(0 0 0)
(0 0 0)
(0 0 0)
(0 0 0)
(0 0 0)
(0.000541581 0.010776 0)
(0.000455969 0.0107649 0)
(0.000366514 0.0107535 0)
(0.00027464 0.0107352 0)
(0.000183636 0.010698 0)
(9.38364e-05 0.0106482 0)
(5.32253e-06 0.0105876 0)
(-8.07072e-05 0.010516 0)
(-0.00016481 0.0104348 0)
(-0.000246912 0.0103447 0)
(-0.000326963 0.0102459 0)
(-0.000405323 0.0101389 0)
(-0.000482012 0.0100238 0)
(-0.000557295 0.00990092 0)
(-0.000631274 0.00977025 0)
(-0.000704108 0.00963184 0)
(-0.000775815 0.00948562 0)
(-0.000846608 0.00933158 0)
(-0.000916466 0.00916961 0)
(-0.000985501 0.0089996 0)
(-0.00105375 0.00882143 0)
(-0.00112123 0.00863496 0)
(-0.00118802 0.00844006 0)
(-0.00125407 0.00823654 0)
(-0.00131941 0.00802425 0)
(-0.00138404 0.00780304 0)
(-0.00144792 0.00757272 0)
(-0.00151108 0.00733313 0)
(-0.00157344 0.00708412 0)
(-0.00163498 0.00682552 0)
(-0.00169567 0.00655718 0)
(-0.00175546 0.00627894 0)
(-0.00181429 0.00599073 0)
(-0.00187211 0.0056923 0)
(-0.00192886 0.00538362 0)
(-0.00198448 0.0050646 0)
(-0.0020389 0.00473519 0)
(-0.00209205 0.00439522 0)
(-0.00214387 0.00404469 0)
(-0.00219427 0.0036836 0)
(-0.0022432 0.0033119 0)
(-0.00229058 0.00292967 0)
(-0.00233633 0.00253692 0)
(-0.00238039 0.00213364 0)
(-0.00242269 0.00172005 0)
(-0.00246317 0.00129624 0)
(-0.00250177 0.000862324 0)
(-0.00253843 0.000418482 0)
(-0.0025731 -3.50289e-05 0)
(-0.00260573 -0.000497952 0)
(-0.00263628 -0.000970071 0)
(-0.00266471 -0.00145109 0)
(-0.00269101 -0.00194061 0)
(-0.00271513 -0.00243829 0)
(-0.00273708 -0.00294371 0)
(-0.00275684 -0.00345651 0)
(-0.00277442 -0.00397622 0)
(-0.00278982 -0.00450228 0)
(-0.00280306 -0.00503426 0)
(-0.00281416 -0.0055716 0)
(-0.00282315 -0.00611377 0)
(-0.00283007 -0.00666013 0)
(-0.00283496 -0.00721016 0)
(-0.00283787 -0.00776325 0)
(-0.00283886 -0.00831877 0)
(-0.00283799 -0.00887604 0)
(-0.00283531 -0.00943444 0)
(-0.00283092 -0.00999339 0)
(-0.00282487 -0.0105522 0)
(-0.00281725 -0.0111102 0)
(-0.00280814 -0.0116668 0)
(-0.0027976 -0.0122214 0)
(-0.00278574 -0.0127733 0)
(-0.00277262 -0.0133219 0)
(-0.00275834 -0.0138666 0)
(-0.00274299 -0.0144069 0)
(-0.00272663 -0.0149422 0)
(-0.00270936 -0.015472 0)
(-0.00269126 -0.0159956 0)
(-0.00267241 -0.0165128 0)
(-0.00265288 -0.0170229 0)
(-0.00263275 -0.0175257 0)
(-0.0026121 -0.0180205 0)
(-0.00259098 -0.0185072 0)
(-0.00256949 -0.0189853 0)
(-0.00254767 -0.0194546 0)
(-0.00252561 -0.0199147 0)
(-0.00250333 -0.0203655 0)
(-0.00248092 -0.0208066 0)
(-0.00245843 -0.021238 0)
(-0.0024359 -0.0216594 0)
(-0.00241339 -0.0220707 0)
(-0.00239093 -0.022472 0)
(-0.00236857 -0.0228629 0)
(-0.00234636 -0.0232436 0)
(-0.00232432 -0.023614 0)
(-0.00230249 -0.0239741 0)
(-0.00228092 -0.024324 0)
(-0.00225961 -0.0246635 0)
(-0.0022386 -0.024993 0)
(-0.00221791 -0.0253124 0)
(-0.00219756 -0.0256219 0)
(-0.00217758 -0.0259215 0)
(-0.00215798 -0.0262114 0)
(-0.00213877 -0.0264918 0)
(-0.00211996 -0.0267628 0)
(-0.00210158 -0.0270245 0)
(-0.00208362 -0.0272772 0)
(-0.00206609 -0.0275211 0)
(-0.002049 -0.0277562 0)
(-0.00203237 -0.027983 0)
(-0.00201617 -0.0282014 0)
(-0.00200042 -0.0284118 0)
(-0.00198512 -0.0286143 0)
(-0.00197026 -0.0288092 0)
(-0.00195584 -0.0289967 0)
(-0.00194187 -0.029177 0)
(-0.00192834 -0.0293503 0)
(-0.00191523 -0.0295168 0)
(-0.00190256 -0.0296767 0)
(-0.0018903 -0.0298303 0)
(-0.00187845 -0.0299777 0)
(-0.00186701 -0.0301191 0)
(-0.00185597 -0.0302548 0)
(-0.00184532 -0.030385 0)
(-0.00183505 -0.0305098 0)
(-0.00182514 -0.0306294 0)
(-0.00181561 -0.030744 0)
(-0.00180643 -0.0308539 0)
(-0.00179759 -0.0309591 0)
(-0.00178909 -0.0310598 0)
(-0.00178091 -0.0311563 0)
(-0.00177306 -0.0312487 0)
(-0.0017655 -0.0313371 0)
(-0.00175825 -0.0314217 0)
(-0.00175128 -0.0315026 0)
(-0.00174459 -0.03158 0)
(-0.00173817 -0.0316541 0)
(-0.00173202 -0.031725 0)
(-0.00172611 -0.0317927 0)
(-0.00172045 -0.0318574 0)
(-0.00171502 -0.0319193 0)
(-0.00170981 -0.0319785 0)
(-0.00170483 -0.032035 0)
(-0.00170005 -0.0320891 0)
(-0.00169548 -0.0321407 0)
(-0.0016911 -0.03219 0)
(-0.00168691 -0.0322371 0)
(-0.0016829 -0.0322822 0)
(-0.00167905 -0.0323251 0)
(-0.0016575 -0.0323262 0)
(-0.00163569 -0.0323273 0)
(-0.00161379 -0.0323284 0)
(-0.00159198 -0.0323295 0)
(-0.00157043 -0.0323306 0)
(-0.0015623 -0.0322882 0)
(-0.0015538 -0.0322438 0)
(-0.0015449 -0.0321973 0)
(-0.0015356 -0.0321487 0)
(-0.00152587 -0.0320979 0)
(-0.0015157 -0.0320445 0)
(-0.00150507 -0.0319888 0)
(-0.00149396 -0.0319304 0)
(-0.00148235 -0.0318694 0)
(-0.00147023 -0.0318056 0)
(-0.00145756 -0.0317387 0)
(-0.00144433 -0.0316689 0)
(-0.00143052 -0.0315958 0)
(-0.0014161 -0.0315195 0)
(-0.00140106 -0.0314396 0)
(-0.00138536 -0.0313562 0)
(-0.00136898 -0.031269 0)
(-0.0013519 -0.0311779 0)
(-0.00133409 -0.0310827 0)
(-0.00131553 -0.0309833 0)
(-0.00129619 -0.0308795 0)
(-0.00127604 -0.0307712 0)
(-0.00125505 -0.030658 0)
(-0.00123321 -0.0305401 0)
(-0.00121048 -0.0304169 0)
(-0.00118683 -0.0302884 0)
(-0.00116224 -0.0301545 0)
(-0.00113668 -0.030015 0)
(-0.00111011 -0.0298695 0)
(-0.00108252 -0.0297179 0)
(-0.00105387 -0.0295601 0)
(-0.00102414 -0.0293957 0)
(-0.000993296 -0.0292247 0)
(-0.000961319 -0.0290467 0)
(-0.00092818 -0.0288616 0)
(-0.000893856 -0.0286692 0)
(-0.000858323 -0.0284692 0)
(-0.000821562 -0.0282615 0)
(-0.000783542 -0.0280457 0)
(-0.000744253 -0.0278218 0)
(-0.000703671 -0.0275895 0)
(-0.000661787 -0.0273487 0)
(-0.000618581 -0.027099 0)
(-0.000574045 -0.0268405 0)
(-0.000528166 -0.0265727 0)
(-0.000480945 -0.0262957 0)
(-0.000432368 -0.0260092 0)
(-0.000382446 -0.0257131 0)
(-0.000331176 -0.0254072 0)
(-0.000278566 -0.0250915 0)
(-0.000224632 -0.0247658 0)
(-0.00016938 -0.0244301 0)
(-0.000112831 -0.0240842 0)
(-5.50107e-05 -0.0237281 0)
(4.05006e-06 -0.0233618 0)
(6.43205e-05 -0.0229852 0)
(0.000125764 -0.0225985 0)
(0.000188336 -0.0222015 0)
(0.000251984 -0.0217945 0)
(0.000316651 -0.0213775 0)
(0.000382283 -0.0209505 0)
(0.000448811 -0.0205138 0)
(0.000516163 -0.0200676 0)
(0.000584258 -0.019612 0)
(0.000653014 -0.0191473 0)
(0.000722337 -0.0186737 0)
(0.000792138 -0.0181916 0)
(0.000862306 -0.0177013 0)
(0.000932738 -0.0172031 0)
(0.00100331 -0.0166975 0)
(0.00107393 -0.0161849 0)
(0.00114444 -0.0156656 0)
(0.00121474 -0.0151403 0)
(0.00128468 -0.0146094 0)
(0.00135413 -0.0140733 0)
(0.00142296 -0.0135328 0)
(0.00149101 -0.0129882 0)
(0.00155815 -0.0124403 0)
(0.00162423 -0.0118896 0)
(0.00168911 -0.0113367 0)
(0.00175264 -0.0107822 0)
(0.00181468 -0.0102269 0)
(0.0018751 -0.00967118 0)
(0.00193374 -0.00911584 0)
(0.00199049 -0.00856149 0)
(0.0020452 -0.00800869 0)
(0.00209776 -0.00745809 0)
(0.00214804 -0.00691033 0)
(0.00219593 -0.00636602 0)
(0.00224135 -0.00582567 0)
(0.00228418 -0.00528993 0)
(0.00232435 -0.00475931 0)
(0.00236178 -0.00423437 0)
(0.00239639 -0.0037155 0)
(0.00242814 -0.0032033 0)
(0.00245698 -0.00269821 0)
(0.00248287 -0.00220065 0)
(0.00250579 -0.00171093 0)
(0.00252573 -0.00122951 0)
(0.00254267 -0.000756711 0)
(0.00255662 -0.000292824 0)
(0.0025676 0.000161847 0)
(0.00257563 0.00060717 0)
(0.00258072 0.00104276 0)
(0.00258294 0.00146848 0)
(0.00258232 0.00188424 0)
(0.00257891 0.00228988 0)
(0.00257277 0.00268522 0)
(0.00256396 0.0030703 0)
(0.00255254 0.00344503 0)
(0.0025386 0.00380937 0)
(0.00252219 0.00416332 0)
(0.00250339 0.00450687 0)
(0.00248228 0.00484011 0)
(0.00245892 0.00516312 0)
(0.0024334 0.00547591 0)
(0.00240579 0.00577859 0)
(0.00237616 0.00607131 0)
(0.00234457 0.00635414 0)
(0.0023111 0.0066272 0)
(0.00227578 0.00689066 0)
(0.00223871 0.00714468 0)
(0.00219989 0.00738938 0)
(0.00215942 0.00762495 0)
(0.00211729 0.00785153 0)
(0.00207357 0.0080693 0)
(0.00202826 0.00827841 0)
(0.00198136 0.00847903 0)
(0.00193291 0.00867133 0)
(0.00188287 0.00885544 0)
(0.00183122 0.00903151 0)
(0.00177796 0.00919968 0)
(0.00172297 0.00936004 0)
(0.00166628 0.00951271 0)
(0.00160769 0.00965773 0)
(0.00154719 0.00979515 0)
(0.00148461 0.00992497 0)
(0.00141984 0.0100471 0)
(0.0013526 0.0101615 0)
(0.00128286 0.0102678 0)
(0.00121021 0.0103657 0)
(0.00113467 0.0104549 0)
(0.00105625 0.0105348 0)
(0.000974259 0.0106039 0)
(0.000889907 0.0106625 0)
(0.00080309 0.0107086 0)
(0.000713511 0.010736 0)
(0.000625659 0.0107564 0)
(3.53648e-06 6.86613e-05 0)
(3.73944e-06 7.07739e-05 0)
(7.8994e-06 0.000148308 0)
(1.03191e-05 0.000197437 0)
(6.6427e-06 0.000127277 0)
(2.27425e-06 4.49528e-05 0)
(4.75253e-06 9.38473e-05 0)
(4.68001e-06 8.61491e-05 0)
(1.20354e-05 0.000225534 0)
(7.7665e-06 0.000151832 0)
(6.74291e-06 0.000134877 0)
(1.21354e-05 0.000236957 0)
(1.01459e-05 0.000185861 0)
(1.62172e-05 0.000298603 0)
(1.52393e-05 0.000290799 0)
(1.56602e-05 0.000306803 0)
(6.27853e-06 0.000129354 0)
(4.46265e-06 9.25954e-05 0)
(4.37822e-06 8.99875e-05 0)
(3.45793e-06 6.92161e-05 0)
(2.17459e-06 4.40929e-05 0)
(6.54491e-06 0.000116398 0)
(1.34237e-05 0.000239651 0)
(2.05576e-05 0.000387145 0)
(2.3055e-05 0.000419701 0)
(1.15214e-05 0.000233603 0)
(1.01564e-05 0.000202179 0)
(1.36776e-05 0.000272838 0)
(4.79375e-06 9.73884e-05 0)
(2.98272e-05 0.000567995 0)
(2.40356e-05 0.000462482 0)
(2.54565e-05 0.000476384 0)
(1.92908e-05 0.000374618 0)
(2.22385e-05 0.00044088 0)
(1.77039e-05 0.000354298 0)
(6.94729e-06 0.000146742 0)
(7.87008e-06 0.000164127 0)
(8.73986e-06 0.000184446 0)
(1.64269e-06 3.37205e-05 0)
(3.18925e-06 6.52545e-05 0)
(3.02748e-06 6.25232e-05 0)
(6.37919e-06 0.000108899 0)
(1.862e-05 0.000333145 0)
(1.78226e-05 0.000308812 0)
(2.25822e-05 0.000398483 0)
(1.13872e-05 0.000197777 0)
(2.6857e-05 0.000528837 0)
(1.46644e-05 0.000299191 0)
(1.50673e-05 0.000315849 0)
(1.21843e-05 0.000251912 0)
(1.26293e-05 0.000269515 0)
(1.21312e-05 0.000254978 0)
(5.78949e-06 0.000120986 0)
(4.2199e-06 8.83497e-05 0)
(4.84424e-06 0.000102381 0)
(1.5144e-06 3.1451e-05 0)
(1.32554e-05 0.000222755 0)
(3.54661e-05 0.000628154 0)
(2.97673e-05 0.000544746 0)
(2.82087e-05 0.000498517 0)
(3.11356e-05 0.000611962 0)
(3.5488e-05 0.000684372 0)
(3.03399e-05 0.000627283 0)
(2.86221e-05 0.000611385 0)
(2.66162e-05 0.000552672 0)
(1.72381e-05 0.000369324 0)
(1.46828e-05 0.000314989 0)
(1.01194e-05 0.000211496 0)
(6.01404e-06 0.000128492 0)
(3.00945e-06 6.33455e-05 0)
(3.03583e-06 6.32919e-05 0)
(7.40858e-06 0.000121195 0)
(3.27164e-05 0.000515696 0)
(4.11772e-05 0.000662873 0)
(3.56726e-05 0.000586601 0)
(3.2642e-05 0.000556673 0)
(2.85836e-05 0.000471455 0)
(4.32054e-05 0.000772605 0)
(3.5926e-05 0.000664507 0)
(3.40518e-05 0.00068528 0)
(2.89759e-05 0.000584822 0)
(2.26774e-05 0.000472714 0)
(2.06627e-05 0.000442469 0)
(1.89722e-05 0.000397015 0)
(1.12211e-05 0.000246706 0)
(8.97986e-06 0.000198235 0)
(1.03823e-05 0.00022474 0)
(2.0234e-06 4.23506e-05 0)
(9.48967e-07 1.98718e-05 0)
(9.07226e-06 0.00014166 0)
(9.88612e-06 0.000147823 0)
(1.58627e-05 0.000255669 0)
(2.06069e-05 0.000316723 0)
(2.3854e-05 0.000382745 0)
(2.51421e-05 0.000430719 0)
(2.08093e-05 0.000346229 0)
(5.19499e-05 0.000916078 0)
(4.74407e-05 0.000820192 0)
(4.78536e-05 0.00092392 0)
(4.01188e-05 0.000789055 0)
(4.17143e-05 0.000785035 0)
(1.5271e-05 0.000333544 0)
(1.82752e-05 0.000402277 0)
(3.34108e-05 0.000700906 0)
(1.28962e-05 0.000280243 0)
(8.21085e-06 0.000175783 0)
(1.04038e-05 0.000220971 0)
(6.75688e-06 0.000148414 0)
(6.50935e-06 0.000140896 0)
(8.19658e-06 0.000178241 0)
(3.32003e-06 7.12474e-05 0)
(3.3195e-06 7.05491e-05 0)
(4.48559e-06 9.57704e-05 0)
(2.05787e-06 4.36093e-05 0)
(2.1349e-06 4.55986e-05 0)
(1.61125e-06 3.3923e-05 0)
(6.07373e-07 1.27929e-05 0)
(3.35381e-05 0.000495549 0)
(4.09804e-05 0.000569834 0)
(5.01816e-05 0.00072977 0)
(5.2139e-05 0.000876517 0)
(5.91603e-05 0.00100682 0)
(4.75803e-05 0.00087552 0)
(5.29528e-05 0.000974393 0)
(4.30873e-05 0.000867778 0)
(4.17024e-05 0.000873109 0)
(3.82856e-05 0.000785846 0)
(3.6778e-05 0.000788009 0)
(3.2087e-05 0.000699803 0)
(2.79582e-05 0.000620431 0)
(2.54299e-05 0.000556346 0)
(2.3837e-05 0.000537814 0)
(1.84309e-05 0.000426103 0)
(2.01278e-05 0.000453648 0)
(2.10673e-05 0.000485138 0)
(1.3738e-05 0.000314471 0)
(1.07726e-05 0.000245826 0)
(1.27292e-05 0.000286461 0)
(4.89799e-06 0.00010697 0)
(4.77509e-06 0.000102951 0)
(3.27622e-06 7.10662e-05 0)
(3.13642e-06 6.88857e-05 0)
(1.88288e-06 4.05688e-05 0)
(1.07566e-06 2.27571e-05 0)
(1.5942e-05 0.000219139 0)
(1.81673e-05 0.00026391 0)
(2.77583e-05 0.000391041 0)
(3.01301e-05 0.000406761 0)
(5.88489e-05 0.000803954 0)
(6.60946e-05 0.000953532 0)
(6.18575e-05 0.000998037 0)
(5.66751e-05 0.00107056 0)
(4.99174e-05 0.00105926 0)
(4.46236e-05 0.000951232 0)
(4.69657e-05 0.000959745 0)
(2.29716e-05 0.000536886 0)
(3.07781e-05 0.000716699 0)
(3.48351e-05 0.000782735 0)
(3.43478e-05 0.000810422 0)
(1.50811e-05 0.000336883 0)
(1.30491e-05 0.000288693 0)
(1.16391e-05 0.000270126 0)
(4.86519e-06 0.000108026 0)
(6.9852e-06 0.000155612 0)
(1.60219e-06 3.48823e-05 0)
(1.03669e-06 2.22116e-05 0)
(1.15157e-06 2.45115e-05 0)
(4.68511e-07 9.90166e-06 0)
(1.9548e-07 4.12575e-06 0)
(4.546e-07 9.64733e-06 0)
(2.08852e-05 0.000268736 0)
(4.51048e-05 0.000585387 0)
(8.57722e-05 0.00130775 0)
(7.92283e-05 0.00114836 0)
(9.24315e-05 0.00130893 0)
(7.98424e-05 0.00108448 0)
(6.82856e-05 0.00115017 0)
(6.40674e-05 0.0011867 0)
(6.11856e-05 0.00119238 0)
(5.3383e-05 0.00106535 0)
(5.72405e-05 0.00118242 0)
(3.89497e-05 0.000892507 0)
(3.75105e-05 0.000905172 0)
(2.13607e-05 0.000517309 0)
(2.45933e-05 0.000585875 0)
(2.4259e-05 0.000595816 0)
(2.7363e-05 0.000655492 0)
(2.69367e-05 0.000670997 0)
(1.56291e-05 0.000363514 0)
(1.69253e-05 0.000401205 0)
(1.46072e-05 0.000346986 0)
(8.37433e-06 0.00018897 0)
(8.47595e-06 0.000194794 0)
(6.54525e-06 0.000150033 0)
(1.22953e-05 0.000295739 0)
(9.90694e-06 0.00023798 0)
(1.08686e-05 0.000256705 0)
(2.65999e-06 5.92208e-05 0)
(2.08021e-06 4.76363e-05 0)
(3.58021e-06 8.07764e-05 0)
(4.34323e-06 9.94405e-05 0)
(1.42684e-06 3.14387e-05 0)
(0.000104794 0.00154121 0)
(9.5179e-05 0.00150973 0)
(9.58817e-05 0.00120098 0)
(8.15594e-05 0.000963931 0)
(0.000104461 0.00121235 0)
(7.9811e-05 0.00143867 0)
(7.09848e-05 0.00125859 0)
(8.1388e-05 0.00135279 0)
(6.98673e-05 0.00131994 0)
(6.52744e-05 0.00132023 0)
(4.84235e-05 0.00109188 0)
(5.37335e-05 0.00116969 0)
(4.26821e-05 0.000998506 0)
(4.03904e-05 0.00100364 0)
(1.79989e-05 0.000436274 0)
(1.50015e-05 0.000364334 0)
(2.20282e-05 0.000583781 0)
(2.62356e-05 0.000685503 0)
(2.31422e-05 0.000640032 0)
(1.24518e-05 0.000307677 0)
(1.84397e-05 0.000460514 0)
(8.57786e-06 0.000203434 0)
(6.99719e-06 0.000163426 0)
(9.55846e-06 0.000222492 0)
(5.81253e-06 0.000131187 0)
(1.15152e-06 2.56692e-05 0)
(1.60602e-06 3.62366e-05 0)
(9.78312e-05 0.00130611 0)
(0.000115029 0.00148712 0)
(0.000106607 0.0014654 0)
(8.60722e-05 0.00159404 0)
(9.30493e-05 0.00159399 0)
(9.46338e-05 0.00172547 0)
(4.01162e-05 0.000877427 0)
(4.41259e-05 0.000979167 0)
(8.65662e-05 0.00171389 0)
(9.17397e-05 0.00189879 0)
(8.06914e-05 0.00176941 0)
(3.03928e-05 0.000736959 0)
(2.94534e-05 0.00074194 0)
(2.13918e-05 0.000536778 0)
(1.62995e-05 0.00040295 0)
(1.43624e-05 0.000357417 0)
(1.55252e-05 0.000392441 0)
(1.26173e-05 0.000321103 0)
(6.34155e-06 0.000151292 0)
(5.47841e-06 0.000133375 0)
(4.49728e-06 0.000107815 0)
(2.98104e-06 6.92666e-05 0)
(5.12975e-06 0.000127643 0)
(3.53289e-06 8.69604e-05 0)
(1.99081e-05 0.000238158 0)
(4.54391e-05 0.000496422 0)
(6.49126e-05 0.000730762 0)
(4.10502e-05 0.000476258 0)
(0.000125626 0.00138609 0)
(0.000122657 0.00146769 0)
(0.00010952 0.00174071 0)
(0.000120889 0.0017699 0)
(0.000128873 0.00196479 0)
(9.53729e-05 0.00103338 0)
(0.000149313 0.001697 0)
(0.000118098 0.00199647 0)
(3.71458e-05 0.000987226 0)
(3.51765e-05 0.000897677 0)
(4.32672e-05 0.00111136 0)
(4.90107e-05 0.00120881 0)
(4.71892e-05 0.00125143 0)
(7.41984e-05 0.00158984 0)
(1.85439e-05 0.000490333 0)
(1.6921e-05 0.000436192 0)
(1.92839e-05 0.000494011 0)
(2.37078e-05 0.000604394 0)
(8.61357e-06 0.000219227 0)
(1.04198e-05 0.000261581 0)
(1.02697e-05 0.000262545 0)
(2.66219e-06 6.35264e-05 0)
(2.02407e-06 4.76548e-05 0)
(4.40086e-06 0.00010374 0)
(9.86135e-06 0.000241938 0)
(8.5513e-06 0.00021386 0)
(7.27774e-06 0.000179776 0)
(7.91247e-06 0.000191416 0)
(3.66575e-05 0.000450633 0)
(0.000121804 0.00166894 0)
(6.52465e-05 0.000680879 0)
(5.36321e-05 0.000517912 0)
(9.43211e-05 0.00092934 0)
(0.000151182 0.00158849 0)
(0.000128084 0.00129835 0)
(9.92126e-05 0.00227457 0)
(8.58532e-05 0.00197838 0)
(0.000102293 0.0020918 0)
(4.01819e-05 0.00128146 0)
(4.75009e-05 0.00136298 0)
(4.61309e-05 0.00145715 0)
(2.77159e-05 0.000755845 0)
(3.20729e-05 0.000867229 0)
(2.89477e-05 0.000818763 0)
(6.35481e-05 0.00173945 0)
(7.30288e-05 0.00177688 0)
(7.32438e-05 0.00190696 0)
(0.000102025 0.0019123 0)
(2.52345e-05 0.00072662 0)
(1.50289e-05 0.000399105 0)
(3.06194e-05 0.00079496 0)
(9.02068e-06 0.000233126 0)
(1.05901e-05 0.000275414 0)
(8.68602e-06 0.000228225 0)
(1.01601e-05 0.000271051 0)
(1.22898e-05 0.000331501 0)
(1.03726e-05 0.000283138 0)
(3.30253e-06 8.00046e-05 0)
(1.7556e-06 4.29174e-05 0)
(1.56408e-06 3.77054e-05 0)
(6.61677e-06 0.000167308 0)
(4.41438e-06 0.000111897 0)
(2.00383e-06 4.96578e-05 0)
(2.29304e-05 0.000255063 0)
(3.17715e-05 0.000328222 0)
(0.000140385 0.00251874 0)
(0.000150193 0.00238606 0)
(0.000167229 0.00267039 0)
(0.000180965 0.00191483 0)
(0.000196189 0.00219501 0)
(0.00017062 0.00200572 0)
(0.000130048 0.00225745 0)
(0.000114639 0.0021221 0)
(3.94546e-05 0.00109325 0)
(4.10388e-05 0.00120007 0)
(3.53895e-05 0.00112716 0)
(3.14535e-05 0.000989508 0)
(3.5991e-05 0.00106938 0)
(5.4817e-05 0.0015459 0)
(7.1022e-05 0.00164429 0)
(3.24759e-05 0.000937162 0)
(2.73328e-05 0.000809197 0)
(1.38847e-05 0.000379865 0)
(1.63042e-05 0.000446187 0)
(1.9431e-05 0.000533257 0)
(1.9623e-05 0.000558697 0)
(7.19261e-06 0.000190474 0)
(7.00801e-06 0.000181765 0)
(8.38938e-06 0.000229001 0)
(1.25672e-05 0.000329763 0)
(3.54857e-06 9.15144e-05 0)
(5.30799e-06 0.000136335 0)
(4.87871e-06 0.000127242 0)
(1.474e-06 3.70074e-05 0)
(3.21056e-06 8.03486e-05 0)
(2.56187e-06 6.51339e-05 0)
(0.000141524 0.00178295 0)
(0.000149513 0.00218438 0)
(0.000172363 0.00245931 0)
(0.000223905 0.00230624 0)
(7.49055e-05 0.0006179 0)
(0.000124526 0.00104398 0)
(8.71416e-05 0.000786686 0)
(0.000131081 0.00120912 0)
(0.000178027 0.00151676 0)
(0.000168988 0.00162656 0)
(0.00010743 0.00270088 0)
(0.000121188 0.00258324 0)
(0.000127982 0.00289527 0)
(7.97263e-05 0.00209802 0)
(3.26e-05 0.00116869 0)
(3.81577e-05 0.00135895 0)
(3.16391e-05 0.00126875 0)
(8.51946e-05 0.00232816 0)
(2.32254e-05 0.000777282 0)
(2.73991e-05 0.000856028 0)
(2.68114e-05 0.000909351 0)
(1.40347e-05 0.000395111 0)
(2.2848e-05 0.000707997 0)
(1.91812e-05 0.000589062 0)
(2.12764e-05 0.000624042 0)
(1.15712e-05 0.000321999 0)
(4.10339e-05 0.000364397 0)
(0.000215265 0.00247562 0)
(0.000188807 0.00227137 0)
(0.000200209 0.00280936 0)
(0.000353588 0.00325782 0)
(0.000302171 0.00306148 0)
(0.000322408 0.00285359 0)
(0.000110351 0.000839313 0)
(5.21101e-05 0.000392431 0)
(0.00021755 0.00163076 0)
(0.000284166 0.0021587 0)
(0.000235334 0.00196507 0)
(8.32379e-05 0.00256845 0)
(7.52118e-05 0.00234216 0)
(0.000152701 0.00284239 0)
(2.5814e-05 0.000975894 0)
(3.04406e-05 0.00103594 0)
(5.25552e-05 0.0016693 0)
(6.3821e-05 0.0019191 0)
(5.1747e-05 0.00182419 0)
(4.3191e-05 0.00152097 0)
(4.36135e-05 0.00165583 0)
(7.03442e-05 0.00216662 0)
(6.19592e-05 0.0022932 0)
(5.57716e-05 0.00202158 0)
(2.22288e-05 0.000816084 0)
(1.72316e-05 0.000511832 0)
(1.40684e-05 0.000411645 0)
(1.67982e-05 0.000476628 0)
(1.59992e-05 0.000502885 0)
(5.73177e-06 0.000151658 0)
(3.51237e-06 9.18546e-05 0)
(6.32168e-06 0.000170728 0)
(6.63528e-06 0.000183104 0)
(1.11571e-06 2.8399e-05 0)
(1.55979e-06 4.02571e-05 0)
(0.000184757 0.00296981 0)
(0.000239084 0.00219967 0)
(0.000272193 0.00260522 0)
(0.00020567 0.00186006 0)
(0.00020423 0.00198325 0)
(3.34409e-05 0.000273754 0)
(0.000158901 0.00123754 0)
(0.00034952 0.00236472 0)
(0.000406985 0.00292798 0)
(0.000339116 0.00264391 0)
(4.44519e-05 0.00272913 0)
(5.81649e-05 0.00253861 0)
(7.32747e-05 0.00284867 0)
(0.000153168 0.00313438 0)
(0.000126829 0.00316936 0)
(4.45547e-05 0.00207889 0)
(3.51341e-05 0.0014505 0)
(2.59348e-05 0.001251 0)
(4.65816e-05 0.00229976 0)
(4.20644e-05 0.00182745 0)
(1.92473e-05 0.000688794 0)
(1.72494e-05 0.000691586 0)
(1.52753e-05 0.000573499 0)
(1.2687e-05 0.000410025 0)
(1.36067e-05 0.000416885 0)
(1.48487e-05 0.000495377 0)
(4.45144e-06 0.000120902 0)
(3.25412e-06 8.84658e-05 0)
(3.58634e-06 9.64152e-05 0)
(2.61871e-06 6.98681e-05 0)
(1.49201e-06 3.96144e-05 0)
(2.54619e-06 6.71141e-05 0)
(9.33076e-06 0.000265705 0)
(7.70646e-06 0.000216006 0)
(9.46112e-06 0.00026289 0)
(8.41391e-06 0.000258153 0)
(8.93053e-06 0.000263159 0)
(1.11709e-05 0.000335351 0)
(0.000200715 0.00325395 0)
(0.000174334 0.00311153 0)
(0.000376644 0.00361492 0)
(0.000347216 0.00372444 0)
(0.000337058 0.00342371 0)
(0.00037833 0.00309457 0)
(0.000404216 0.00347944 0)
(8.88157e-05 0.000608202 0)
(0.000158746 0.00111929 0)
(0.000145807 0.00091298 0)
(6.0169e-05 0.000364423 0)
(0.000319617 0.00169859 0)
(0.000419172 0.00207594 0)
(0.00038575 0.00223295 0)
(9.39409e-05 0.00319204 0)
(0.000102543 0.00290611 0)
(1.64409e-05 0.000852965 0)
(1.51794e-05 0.000950832 0)
(1.10922e-05 0.000709395 0)
(2.07494e-05 0.000839558 0)
(1.73457e-05 0.00140981 0)
(2.45862e-05 0.00162098 0)
(1.68701e-05 0.00166735 0)
(2.74054e-05 0.00147368 0)
(3.59786e-05 0.00242505 0)
(3.15087e-05 0.0021418 0)
(2.98072e-05 0.00185877 0)
(1.27279e-05 0.000528938 0)
(1.05161e-05 0.000330544 0)
(8.45788e-06 0.000297766 0)
(9.59542e-06 0.000318074 0)
(1.15482e-05 0.000396378 0)
(3.50755e-06 9.65609e-05 0)
(5.13498e-06 0.000141452 0)
(2.38116e-06 6.43154e-05 0)
(2.48195e-06 6.469e-05 0)
(1.30181e-06 3.41395e-05 0)
(6.78675e-06 0.000196103 0)
(4.74296e-06 0.000136474 0)
(5.56764e-06 0.000156704 0)
(3.98864e-06 0.000121625 0)
(6.4362e-06 0.000193186 0)
(5.70902e-06 0.000178448 0)
(0.000278306 0.00357308 0)
(0.000267809 0.00376898 0)
(0.000238808 0.00343527 0)
(0.000473867 0.00407501 0)
(0.000508887 0.00438979 0)
(0.000461061 0.00435018 0)
(0.000561417 0.00347949 0)
(0.000519508 0.00305831 0)
(0.000584817 0.00326529 0)
(0.000297674 0.00182473 0)
(0.000216652 0.00122953 0)
(0.000100546 0.0035042 0)
(7.38014e-05 0.00335434 0)
(-5.7223e-06 0.00274784 0)
(1.70856e-05 0.00310057 0)
(-2.31223e-05 0.00311973 0)
(0.000181105 0.00335335 0)
(0.000191163 0.00366633 0)
(0.000155662 0.00341268 0)
(2.07678e-05 0.00127907 0)
(2.07545e-05 0.00104029 0)
(2.12539e-05 0.000934669 0)
(1.16976e-05 0.00045151 0)
(1.86779e-05 0.00256527 0)
(1.63344e-05 0.00224 0)
(1.63323e-05 0.00193547 0)
(9.24259e-06 0.000387633 0)
(7.65566e-06 0.000245918 0)
(1.34535e-05 0.000480494 0)
(1.02287e-05 0.000375004 0)
(3.07297e-06 8.92335e-05 0)
(3.54924e-06 0.000100643 0)
(2.17393e-06 6.11452e-05 0)
(3.10962e-06 8.67907e-05 0)
(1.75322e-06 4.69853e-05 0)
(4.60868e-06 0.000135911 0)
(4.94444e-06 0.000161859 0)
(0.000263076 0.00417324 0)
(0.000288937 0.00403931 0)
(0.000300466 0.00430616 0)
(0.000523813 0.00419006 0)
(0.000568333 0.00412573 0)
(0.000556951 0.00442201 0)
(0.000478409 0.00259045 0)
(0.00056475 0.00290785 0)
(0.00024928 0.00124071 0)
(0.000150551 0.000757751 0)
(0.000117605 0.000658496 0)
(0.000532632 0.00241543 0)
(0.000448318 0.00190814 0)
(0.000533341 0.00196686 0)
(0.000126312 0.00343961 0)
(5.36439e-05 0.00307761 0)
(4.36745e-05 0.00339326 0)
(0.000145192 0.00420958 0)
(0.000146387 0.00442959 0)
(0.00010787 0.00431836 0)
(9.62511e-06 0.00146628 0)
(1.34366e-05 0.00069383 0)
(1.32426e-05 0.000610008 0)
(9.56094e-06 0.000445167 0)
(1.60796e-06 0.00133834 0)
(8.56633e-06 0.00122902 0)
(-3.86415e-05 0.00276838 0)
(-3.42338e-05 0.00240658 0)
(2.91165e-08 0.00200401 0)
(3.46472e-06 0.00166549 0)
(6.76935e-06 0.000229145 0)
(3.50414e-06 0.000135966 0)
(2.63093e-06 9.40652e-05 0)
(5.48342e-06 0.000196773 0)
(1.26551e-06 3.53964e-05 0)
(2.07871e-06 5.75874e-05 0)
(2.35922e-06 6.44927e-05 0)
(1.7056e-06 4.63725e-05 0)
(1.2279e-06 3.36478e-05 0)
(5.43467e-07 1.46984e-05 0)
(1.38536e-06 3.74013e-05 0)
(1.12909e-06 3.06797e-05 0)
(8.75395e-07 2.34447e-05 0)
(2.44206e-06 8.20164e-05 0)
(2.711e-06 8.61495e-05 0)
(0.000486419 0.00360317 0)
(0.000456004 0.00371274 0)
(0.000437219 0.0033557 0)
(0.000439032 0.00275767 0)
(0.000485052 0.00328157 0)
(0.000678729 0.0041904 0)
(0.000625882 0.00423509 0)
(0.000610316 0.00389694 0)
(0.000616105 0.00282474 0)
(0.000214323 0.000947424 0)
(0.000149019 0.000560038 0)
(0.000282969 0.00109611 0)
(4.42329e-05 0.00386388 0)
(2.35431e-05 0.00361148 0)
(5.28883e-05 0.00366188 0)
(2.55757e-05 0.00285506 0)
(0.000178074 0.00437987 0)
(0.000172334 0.00460414 0)
(1.39176e-05 0.0011192 0)
(6.82425e-06 0.000965249 0)
(9.84116e-06 0.000850314 0)
(6.5978e-06 0.00047096 0)
(6.73979e-06 0.00061332 0)
(5.26087e-06 0.000323262 0)
(9.40553e-06 0.000515345 0)
(-1.17676e-05 0.00174575 0)
(-7.72e-06 0.00144748 0)
(-2.01811e-05 0.00205473 0)
(-4.21808e-06 0.00234593 0)
(7.12753e-06 0.000268529 0)
(6.3015e-06 0.000258167 0)
(1.84744e-06 5.28342e-05 0)
(1.07466e-06 3.03794e-05 0)
(1.21833e-06 3.56305e-05 0)
(7.20802e-07 1.96274e-05 0)
(8.72339e-07 2.41784e-05 0)
(1.8341e-06 5.63114e-05 0)
(2.46488e-06 7.35442e-05 0)
(0.000344647 0.00540901 0)
(0.000373032 0.00527645 0)
(0.00038896 0.00548327 0)
(0.00049625 0.00465223 0)
(0.000444449 0.00456907 0)
(0.000720151 0.00580262 0)
(0.000710673 0.00557858 0)
(0.00075988 0.00570809 0)
(0.000629221 0.00358192 0)
(0.000668877 0.00387367 0)
(0.000646019 0.00253427 0)
(0.00067937 0.00299019 0)
(0.000102703 0.000460711 0)
(0.000485705 0.0013915 0)
(0.000401204 0.00148058 0)
(-1.45137e-05 0.00449561 0)
(-6.7671e-05 0.00441613 0)
(-4.89476e-05 0.00418115 0)
(8.41023e-06 0.00335918 0)
(0.000196534 0.00552802 0)
(0.000209491 0.00533176 0)
(0.00024366 0.0055223 0)
(5.07035e-06 0.000715443 0)
(1.68995e-06 0.000784999 0)
(1.64471e-06 0.000528485 0)
(-3.15088e-06 0.000851539 0)
(1.69275e-06 0.00105531 0)
(6.23602e-06 0.000284092 0)
(6.22321e-06 0.000322862 0)
(-5.41945e-06 0.0011447 0)
(-4.24045e-05 0.00201934 0)
(-6.36008e-05 0.00189871 0)
(-4.35285e-05 0.0017009 0)
(3.11734e-06 0.000155077 0)
(3.1416e-06 0.000137108 0)
(4.44454e-06 0.00015246 0)
(2.54223e-07 6.91843e-06 0)
(5.12875e-07 1.41133e-05 0)
(4.3053e-07 1.1772e-05 0)
(0.000546848 0.00610318 0)
(0.00051162 0.00590905 0)
(0.000552641 0.00585947 0)
(0.000608635 0.00445852 0)
(0.00066375 0.00448283 0)
(0.000806525 0.00343676 0)
(0.000774536 0.00377068 0)
(0.00072768 0.0033509 0)
(0.00075058 0.00296407 0)
(0.000289773 0.000905255 0)
(0.000337274 0.00151231 0)
(-0.000124864 0.00374812 0)
(-7.5727e-05 0.00386707 0)
(-0.000107604 0.00412204 0)
(-9.3284e-05 0.00352061 0)
(-0.000137924 0.00338543 0)
(-0.000103576 0.00310533 0)
(-9.32681e-05 0.0027244 0)
(-6.42248e-05 0.00294433 0)
(0.000318402 0.00555275 0)
(0.000287275 0.00570531 0)
(0.000280291 0.00548866 0)
(3.70131e-06 0.000510964 0)
(-5.29797e-06 0.000615889 0)
(-1.3253e-06 0.000563086 0)
(3.7873e-06 0.000384142 0)
(3.21119e-06 0.000248515 0)
(3.40052e-06 0.000192004 0)
(-9.82731e-06 0.00092418 0)
(-1.90448e-05 0.000997274 0)
(-1.04099e-05 0.000658058 0)
(-6.57773e-05 0.00256803 0)
(-2.98829e-05 0.00138867 0)
(-5.1326e-05 0.00143448 0)
(-3.09434e-05 0.00103719 0)
(0.000551708 0.00538359 0)
(0.000597721 0.00529267 0)
(0.000596733 0.00553807 0)
(0.000890393 0.00359431 0)
(0.000845893 0.00312608 0)
(0.000675675 0.00104336 0)
(0.000624423 0.0014662 0)
(0.000509999 0.00102305 0)
(0.000985003 0.00268306 0)
(0.00100529 0.00219643 0)
(0.00106663 0.00265879 0)
(0.000132438 0.000402414 0)
(0.000348169 0.000808592 0)
(-5.04643e-05 0.00491266 0)
(-7.0635e-05 0.00465664 0)
(-2.719e-05 0.00474044 0)
(-2.39672e-05 0.00512505 0)
(3.53811e-06 0.00499232 0)