/*--------------------------------*- C++ -*----------------------------------*\
| =========                 |                                                 |
| \\      /  F ield         | OpenFOAM: The Open Source CFD Toolbox           |
|  \\    /   O peration     | Version:  v2012                                 |
|   \\  /    A nd           | Website:  www.openfoam.com                      |
|    \\/     M anipulation  |                                                 |
\*---------------------------------------------------------------------------*/
FoamFile
{
    version     2.0;
    format      ascii;
    class       volScalarField;
    location    "5";
    object      rAU;
}
// * * * * * * * * * * * * * * * * * * * * * * * * * * * * * * * * * * * * * //

dimensions      [-1 3 1 0 0 0 0];


internalField   nonuniform List<scalar> 
27222
(
2.35346e-08
2.34234e-08
2.34735e-08
2.34655e-08
2.34667e-08
2.35347e-08
2.34805e-08
2.35094e-08
2.35342e-08
2.34487e-08
2.35169e-08
2.35013e-08
2.33931e-08
2.3511e-08
2.35157e-08
2.34233e-08
2.35153e-08
2.35349e-08
2.35047e-08
2.35331e-08
2.3495e-08
2.34086e-08
2.35343e-08
2.35152e-08
2.34214e-08
2.35131e-08
2.35282e-08
2.34763e-08
2.35324e-08
2.34949e-08
2.34613e-08
2.35025e-08
2.34966e-08
2.34189e-08
2.35081e-08
2.3512e-08
2.35269e-08
2.35351e-08
2.34775e-08
2.35174e-08
2.34877e-08
2.34218e-08
2.33663e-08
2.34928e-08
2.35053e-08
2.35339e-08
2.34189e-08
2.35075e-08
2.35182e-08
2.34774e-08
2.35137e-08
2.34784e-08
2.35173e-08
2.34923e-08
2.34945e-08
2.35242e-08
2.33734e-08
2.34197e-08
2.34499e-08
2.35093e-08
2.35115e-08
2.35166e-08
2.34798e-08
2.3519e-08
2.35168e-08
2.35352e-08
2.348e-08
2.35207e-08
2.34933e-08
2.3494e-08
2.35329e-08
2.34532e-08
2.34465e-08
2.35092e-08
2.35336e-08
2.35111e-08
2.35163e-08
2.34798e-08
2.34487e-08
2.34301e-08
2.35248e-08
2.34966e-08
2.3521e-08
2.34914e-08
2.34966e-08
2.34244e-08
2.3416e-08
2.35268e-08
2.34908e-08
2.34387e-08
2.34991e-08
2.35084e-08
2.35357e-08
2.34863e-08
2.34387e-08
2.33934e-08
2.34716e-08
2.35274e-08
2.35353e-08
2.34976e-08
2.33942e-08
2.34994e-08
2.35004e-08
2.34464e-08
2.33843e-08
2.33571e-08
2.35231e-08
2.34911e-08
2.34465e-08
2.34945e-08
2.35336e-08
2.35136e-08
2.35303e-08
2.34709e-08
2.34938e-08
2.33745e-08
2.34636e-08
2.34761e-08
2.35172e-08
2.35139e-08
2.34015e-08
2.34126e-08
2.34888e-08
2.34395e-08
2.34165e-08
2.34607e-08
2.34551e-08
2.35329e-08
2.35176e-08
2.34588e-08
2.34091e-08
2.34612e-08
2.34393e-08
2.3406e-08
2.34829e-08
2.34916e-08
2.34344e-08
2.35155e-08
2.3476e-08
2.35352e-08
2.35169e-08
2.34172e-08
2.3495e-08
2.34843e-08
2.34657e-08
2.34674e-08
2.34704e-08
2.34742e-08
2.35335e-08
2.35081e-08
2.34701e-08
2.34572e-08
2.34608e-08
2.34906e-08
2.3467e-08
2.34306e-08
2.35033e-08
2.34559e-08
2.35057e-08
2.34671e-08
2.34601e-08
2.35182e-08
2.35246e-08
2.33937e-08
2.34934e-08
2.35039e-08
2.34989e-08
2.34944e-08
2.34812e-08
2.34576e-08
2.34077e-08
2.35064e-08
2.34293e-08
2.34778e-08
2.34516e-08
2.34593e-08
2.3533e-08
2.34413e-08
2.34496e-08
2.33903e-08
2.35159e-08
2.34906e-08
2.34702e-08
2.34576e-08
2.3517e-08
2.34681e-08
2.35349e-08
2.35223e-08
2.3483e-08
2.3444e-08
2.35082e-08
2.34724e-08
2.34623e-08
2.34672e-08
2.34492e-08
2.34083e-08
2.35056e-08
2.34839e-08
2.35055e-08
2.34581e-08
2.3472e-08
2.3444e-08
2.34688e-08
2.34748e-08
2.34996e-08
2.34891e-08
2.34163e-08
2.34619e-08
2.35055e-08
2.34265e-08
2.35002e-08
2.34559e-08
2.34623e-08
2.34957e-08
2.35032e-08
2.34216e-08
2.34962e-08
2.34655e-08
2.34051e-08
2.34628e-08
2.35181e-08
2.35049e-08
2.35244e-08
2.34474e-08
2.34809e-08
2.34734e-08
2.34725e-08
2.3478e-08
2.35325e-08
2.34248e-08
2.35069e-08
2.34749e-08
2.34791e-08
2.34377e-08
2.34962e-08
2.35147e-08
2.34928e-08
2.34229e-08
2.3534e-08
2.34832e-08
2.34637e-08
2.34622e-08
2.3467e-08
2.35019e-08
2.34987e-08
2.34781e-08
2.34656e-08
2.34781e-08
2.34544e-08
2.35096e-08
2.35118e-08
2.35248e-08
2.3476e-08
2.34778e-08
2.34707e-08
2.34729e-08
2.34658e-08
2.3447e-08
2.34938e-08
2.35043e-08
2.35012e-08
2.35073e-08
2.34711e-08
2.34784e-08
2.34739e-08
2.34661e-08
2.34993e-08
2.35231e-08
2.3413e-08
2.34427e-08
2.34056e-08
2.34461e-08
2.3462e-08
2.3436e-08
2.34058e-08
2.34958e-08
2.33964e-08
2.34026e-08
2.3515e-08
2.34806e-08
2.34978e-08
2.34693e-08
2.34452e-08
2.34067e-08
2.34834e-08
2.3428e-08
2.35068e-08
2.34871e-08
2.34714e-08
2.3453e-08
2.35326e-08
2.34023e-08
2.34473e-08
2.3509e-08
2.35098e-08
2.34721e-08
2.34647e-08
2.34994e-08
2.35258e-08
2.34358e-08
2.34651e-08
2.34584e-08
2.34828e-08
2.34959e-08
2.34589e-08
2.33776e-08
2.34392e-08
2.34936e-08
2.33997e-08
2.35121e-08
2.35011e-08
2.34982e-08
2.34641e-08
2.34532e-08
2.34455e-08
2.34839e-08
2.34428e-08
2.34207e-08
2.34789e-08
2.34325e-08
2.34758e-08
2.34592e-08
2.34692e-08
2.3427e-08
2.34743e-08
2.34655e-08
2.34578e-08
2.34917e-08
2.35341e-08
2.348e-08
2.34946e-08
2.3464e-08
2.35056e-08
2.34635e-08
2.35341e-08
2.34516e-08
2.34443e-08
2.3494e-08
2.34733e-08
2.3496e-08
2.34744e-08
2.35051e-08
2.34779e-08
2.34688e-08
2.35009e-08
2.34746e-08
2.3444e-08
2.34527e-08
2.34387e-08
2.34842e-08
2.35122e-08
2.34171e-08
2.34641e-08
2.34426e-08
2.35408e-08
2.34664e-08
2.34349e-08
2.3502e-08
2.34115e-08
2.34292e-08
2.34657e-08
2.34249e-08
2.34601e-08
2.34518e-08
2.3534e-08
2.34947e-08
2.34776e-08
2.34508e-08
2.34074e-08
2.35051e-08
2.33784e-08
2.35088e-08
2.34753e-08
2.34224e-08
2.34107e-08
2.34577e-08
2.34357e-08
2.35038e-08
2.34449e-08
2.34733e-08
2.34783e-08
2.3472e-08
2.345e-08
2.34772e-08
2.34644e-08
2.34597e-08
2.34005e-08
2.34869e-08
2.35179e-08
2.34053e-08
2.34403e-08
2.35423e-08
2.34346e-08
2.34666e-08
2.34701e-08
2.35318e-08
2.34771e-08
2.34756e-08
2.34795e-08
2.347e-08
2.34396e-08
2.34672e-08
2.34635e-08
2.34885e-08
2.34838e-08
2.34967e-08
2.33897e-08
2.34505e-08
2.34518e-08
2.35054e-08
2.35337e-08
2.34639e-08
2.34742e-08
2.34898e-08
2.34645e-08
2.34018e-08
2.34249e-08
2.34526e-08
2.34556e-08
2.34373e-08
2.34094e-08
2.34637e-08
2.34498e-08
2.33879e-08
2.34622e-08
2.34506e-08
2.34601e-08
2.34906e-08
2.3485e-08
2.34952e-08
2.34811e-08
2.34609e-08
2.34582e-08
2.34856e-08
2.35295e-08
2.34166e-08
2.34721e-08
2.34789e-08
2.3499e-08
2.349e-08
2.34578e-08
2.35079e-08
2.34916e-08
2.34944e-08
2.34778e-08
2.34763e-08
2.34251e-08
2.34264e-08
2.34153e-08
2.35045e-08
2.34849e-08
2.34825e-08
2.3493e-08
2.34691e-08
2.3465e-08
2.34575e-08
2.34182e-08
2.34621e-08
2.34619e-08
2.34755e-08
2.34425e-08
2.34584e-08
2.34579e-08
2.34952e-08
2.3471e-08
2.34977e-08
2.34253e-08
2.34634e-08
2.34344e-08
2.3479e-08
2.34778e-08
2.34527e-08
2.34846e-08
2.34513e-08
2.34744e-08
2.35028e-08
2.34661e-08
2.34857e-08
2.34817e-08
2.34831e-08
2.34263e-08
2.34833e-08
2.34802e-08
2.35006e-08
2.34371e-08
2.33786e-08
2.35118e-08
2.35339e-08
2.34841e-08
2.34787e-08
2.35235e-08
2.35486e-08
2.34689e-08
2.34971e-08
2.34604e-08
2.34413e-08
2.34595e-08
2.34675e-08
2.34733e-08
2.34634e-08
2.34686e-08
2.34736e-08
2.34277e-08
2.34964e-08
2.34759e-08
2.34929e-08
2.34693e-08
2.35055e-08
2.3478e-08
2.34694e-08
2.34338e-08
2.34126e-08
2.34147e-08
2.34879e-08
2.34733e-08
2.35034e-08
2.34058e-08
2.3447e-08
2.34687e-08
2.35014e-08
2.34278e-08
2.34813e-08
2.35173e-08
2.34841e-08
2.34934e-08
2.34796e-08
2.34913e-08
2.34443e-08
2.34448e-08
2.35188e-08
2.35199e-08
2.34655e-08
2.35227e-08
2.35485e-08
2.34571e-08
2.34753e-08
2.34223e-08
2.34406e-08
2.34892e-08
2.3475e-08
2.34645e-08
2.34637e-08
2.34658e-08
2.35159e-08
2.34892e-08
2.34666e-08
2.34809e-08
2.35155e-08
2.34635e-08
2.34637e-08
2.34113e-08
2.34792e-08
2.34355e-08
2.34106e-08
2.34177e-08
2.34332e-08
2.34589e-08
2.34566e-08
2.35103e-08
2.34553e-08
2.34923e-08
2.34578e-08
2.3465e-08
2.34378e-08
2.34711e-08
2.34704e-08
2.34193e-08
2.34368e-08
2.34169e-08
2.35337e-08
2.35189e-08
2.35038e-08
2.35009e-08
2.34285e-08
2.34208e-08
2.34929e-08
2.34647e-08
2.34164e-08
2.34773e-08
2.34929e-08
2.34105e-08
2.35048e-08
2.34889e-08
2.34709e-08
2.34607e-08
2.34603e-08
2.35063e-08
2.3467e-08
2.34377e-08
2.34474e-08
2.34646e-08
2.34689e-08
2.34581e-08
2.34795e-08
2.34851e-08
2.34366e-08
2.35254e-08
2.34309e-08
2.33288e-08
2.34268e-08
2.34038e-08
2.34563e-08
2.34145e-08
2.34786e-08
2.34635e-08
2.34576e-08
2.34509e-08
2.34715e-08
2.3444e-08
2.34154e-08
2.34254e-08
2.34953e-08
2.34474e-08
2.35166e-08
2.34919e-08
2.34718e-08
2.34775e-08
2.34391e-08
2.35272e-08
2.34488e-08
2.35067e-08
2.35032e-08
2.3429e-08
2.34553e-08
2.34868e-08
2.34619e-08
2.34743e-08
2.34872e-08
2.35139e-08
2.34788e-08
2.34888e-08
2.34768e-08
2.34674e-08
2.34415e-08
2.34763e-08
2.34133e-08
2.34645e-08
2.34447e-08
2.34447e-08
2.34602e-08
2.34406e-08
2.34574e-08
2.34724e-08
2.34462e-08
2.34909e-08
2.34592e-08
2.34012e-08
2.3424e-08
2.33246e-08
2.33244e-08
2.33945e-08
2.33645e-08
2.33973e-08
2.33745e-08
2.34161e-08
2.34572e-08
2.34061e-08
2.34644e-08
2.35086e-08
2.35003e-08
2.34993e-08
2.33917e-08
2.34979e-08
2.34562e-08
2.34664e-08
2.34433e-08
2.34675e-08
2.35336e-08
2.35278e-08
2.35057e-08
2.34637e-08
2.34765e-08
2.34794e-08
2.35083e-08
2.33936e-08
2.35077e-08
2.35125e-08
2.34813e-08
2.34951e-08
2.34707e-08
2.34688e-08
2.34728e-08
2.34568e-08
2.34255e-08
2.34617e-08
2.34381e-08
2.34595e-08
2.35015e-08
2.34022e-08
2.34229e-08
2.34269e-08
2.34687e-08
2.3463e-08
2.34396e-08
2.34461e-08
2.3523e-08
2.34273e-08
2.34206e-08
2.33761e-08
2.33838e-08
2.3438e-08
2.33638e-08
2.33432e-08
2.3429e-08
2.34099e-08
2.34073e-08
2.34284e-08
2.34549e-08
2.34276e-08
2.34533e-08
2.34772e-08
2.34609e-08
2.3511e-08
2.34723e-08
2.34072e-08
2.35027e-08
2.35149e-08
2.34481e-08
2.34784e-08
2.34795e-08
2.3466e-08
2.35243e-08
2.34025e-08
2.35146e-08
2.34268e-08
2.34997e-08
2.349e-08
2.34868e-08
2.34752e-08
2.34654e-08
2.34708e-08
2.34775e-08
2.34711e-08
2.34715e-08
2.34247e-08
2.34552e-08
2.3484e-08
2.34669e-08
2.34243e-08
2.34026e-08
2.34171e-08
2.34814e-08
2.33957e-08
2.34855e-08
2.34443e-08
2.35057e-08
2.33975e-08
2.33894e-08
2.33896e-08
2.34156e-08
2.33647e-08
2.34166e-08
2.34503e-08
2.33599e-08
2.33732e-08
2.34327e-08
2.34723e-08
2.34717e-08
2.34841e-08
2.34932e-08
2.3476e-08
2.34967e-08
2.34627e-08
2.35163e-08
2.34776e-08
2.34583e-08
2.35053e-08
2.3511e-08
2.34709e-08
2.3533e-08
2.34828e-08
2.3409e-08
2.34824e-08
2.34796e-08
2.35084e-08
2.3488e-08
2.35089e-08
2.34637e-08
2.35045e-08
2.3452e-08
2.34109e-08
2.34434e-08
2.34769e-08
2.35035e-08
2.34369e-08
2.3464e-08
2.34705e-08
2.34873e-08
2.35139e-08
2.34729e-08
2.34635e-08
2.35042e-08
2.3504e-08
2.3358e-08
2.34207e-08
2.35031e-08
2.34439e-08
2.34588e-08
2.33708e-08
2.34837e-08
2.34519e-08
2.35165e-08
2.34119e-08
2.33922e-08
2.3358e-08
2.33521e-08
2.33312e-08
2.34644e-08
2.34237e-08
2.33542e-08
2.32821e-08
2.34014e-08
2.34219e-08
2.34704e-08
2.34648e-08
2.34253e-08
2.34634e-08
2.35123e-08
2.34602e-08
2.34388e-08
2.34598e-08
2.34483e-08
2.34942e-08
2.3481e-08
2.34352e-08
2.34701e-08
2.34651e-08
2.34575e-08
2.3478e-08
2.34844e-08
2.34903e-08
2.3497e-08
2.34489e-08
2.3501e-08
2.34898e-08
2.34576e-08
2.3451e-08
2.35115e-08
2.35142e-08
2.34693e-08
2.3492e-08
2.34884e-08
2.34753e-08
2.35116e-08
2.35045e-08
2.34592e-08
2.35048e-08
2.34917e-08
2.32945e-08
2.33884e-08
2.32776e-08
2.34222e-08
2.34506e-08
2.33287e-08
2.33455e-08
2.33865e-08
2.35013e-08
2.33769e-08
2.33095e-08
2.33151e-08
2.33643e-08
2.32637e-08
2.33274e-08
2.3343e-08
2.34606e-08
2.33056e-08
2.33515e-08
2.3329e-08
2.33857e-08
2.34576e-08
2.34897e-08
2.3486e-08
2.3485e-08
2.34786e-08
2.35112e-08
2.3447e-08
2.34198e-08
2.35094e-08
2.34753e-08
2.3491e-08
2.34793e-08
2.34686e-08
2.3444e-08
2.345e-08
2.35032e-08
2.3475e-08
2.34962e-08
2.33664e-08
2.34199e-08
2.34294e-08
2.34916e-08
2.35001e-08
2.34793e-08
2.34621e-08
2.34884e-08
2.34729e-08
2.34748e-08
2.34783e-08
2.34518e-08
2.34293e-08
2.34295e-08
2.33946e-08
2.34958e-08
2.33921e-08
2.33911e-08
2.35188e-08
2.33058e-08
2.33603e-08
2.3357e-08
2.35079e-08
2.34651e-08
2.33411e-08
2.34289e-08
2.33332e-08
2.34944e-08
2.34894e-08
2.34732e-08
2.33648e-08
2.33169e-08
2.32768e-08
2.32812e-08
2.33519e-08
2.32107e-08
2.32457e-08
2.32907e-08
2.33501e-08
2.33252e-08
2.33761e-08
2.33587e-08
2.34696e-08
2.34523e-08
2.34964e-08
2.34803e-08
2.3477e-08
2.34489e-08
2.34157e-08
2.34467e-08
2.34925e-08
2.34966e-08
2.34906e-08
2.34753e-08
2.34865e-08
2.33221e-08
2.35059e-08
2.35063e-08
2.3471e-08
2.34627e-08
2.3486e-08
2.34529e-08
2.34557e-08
2.3499e-08
2.33996e-08
2.34428e-08
2.34839e-08
2.34363e-08
2.34703e-08
2.34809e-08
2.34357e-08
2.35295e-08
2.34794e-08
2.35194e-08
2.34666e-08
2.34945e-08
2.35238e-08
2.33955e-08
2.34615e-08
2.34457e-08
2.35024e-08
2.33237e-08
2.33562e-08
2.33681e-08
2.34675e-08
2.34705e-08
2.3239e-08
2.32755e-08
2.33162e-08
2.34753e-08
2.34755e-08
2.35141e-08
2.32057e-08
2.32665e-08
2.32558e-08
2.32468e-08
2.32664e-08
2.32179e-08
2.33266e-08
2.32882e-08
2.3305e-08
2.32453e-08
2.33201e-08
2.33948e-08
2.33596e-08
2.35085e-08
2.34565e-08
2.34842e-08
2.34792e-08
2.34593e-08
2.34563e-08
2.34603e-08
2.34615e-08
2.35027e-08
2.34703e-08
2.34935e-08
2.33141e-08
2.35116e-08
2.3413e-08
2.34119e-08
2.34801e-08
2.3444e-08
2.33633e-08
2.34845e-08
2.34726e-08
2.34859e-08
2.34836e-08
2.3388e-08
2.35145e-08
2.34718e-08
2.34685e-08
2.34798e-08
2.35282e-08
2.35067e-08
2.35207e-08
2.34134e-08
2.35209e-08
2.35021e-08
2.34602e-08
2.3504e-08
2.34733e-08
2.35232e-08
2.33232e-08
2.32342e-08
2.32758e-08
2.34003e-08
2.33945e-08
2.3345e-08
2.32892e-08
2.33198e-08
2.33102e-08
2.34489e-08
2.34394e-08
2.3484e-08
2.34406e-08
2.32299e-08
2.32404e-08
2.32553e-08
2.32728e-08
2.3244e-08
2.33191e-08
2.32172e-08
2.32171e-08
2.33523e-08
2.32928e-08
2.33727e-08
2.32838e-08
2.33723e-08
2.34001e-08
2.35189e-08
2.34962e-08
2.35154e-08
2.35037e-08
2.35068e-08
2.34802e-08
2.35055e-08
2.34483e-08
2.35382e-08
2.3542e-08
2.34337e-08
2.35259e-08
2.34504e-08
2.34813e-08
2.34912e-08
2.34404e-08
2.32875e-08
2.34208e-08
2.34841e-08
2.35031e-08
2.34749e-08
2.34882e-08
2.35083e-08
2.35222e-08
2.34854e-08
2.34917e-08
2.34674e-08
2.34601e-08
2.34543e-08
2.34647e-08
2.34999e-08
2.34416e-08
2.34482e-08
2.35033e-08
2.35138e-08
2.34829e-08
2.35341e-08
2.3152e-08
2.33013e-08
2.32721e-08
2.3264e-08
2.34566e-08
2.33257e-08
2.33119e-08
2.33142e-08
2.3267e-08
2.31986e-08
2.34792e-08
2.34069e-08
2.34822e-08
2.34891e-08
2.35081e-08
2.32184e-08
2.31277e-08
2.32709e-08
2.32112e-08
2.31817e-08
2.32595e-08
2.32417e-08
2.31864e-08
2.32143e-08
2.32581e-08
2.3273e-08
2.33533e-08
2.31752e-08
2.33704e-08
2.33685e-08
2.34901e-08
2.35149e-08
2.34955e-08
2.3476e-08
2.34806e-08
2.35166e-08
2.3482e-08
2.35077e-08
2.34404e-08
2.34886e-08
2.35174e-08
2.34239e-08
2.35116e-08
2.34988e-08
2.35134e-08
2.34193e-08
2.33653e-08
2.34382e-08
2.33987e-08
2.34963e-08
2.34844e-08
2.3422e-08
2.34835e-08
2.3415e-08
2.34862e-08
2.34794e-08
2.34771e-08
2.34915e-08
2.3462e-08
2.34107e-08
2.34425e-08
2.34903e-08
2.34843e-08
2.35291e-08
2.34594e-08
2.34785e-08
2.35004e-08
2.34458e-08
2.31993e-08
2.32199e-08
2.31844e-08
2.31815e-08
2.34455e-08
2.34765e-08
2.33213e-08
2.3285e-08
2.32763e-08
2.32712e-08
2.32543e-08
2.34155e-08
2.34295e-08
2.35029e-08
2.34627e-08
2.32088e-08
2.30658e-08
2.32251e-08
2.31962e-08
2.3246e-08
2.31922e-08
2.3104e-08
2.31712e-08
2.32636e-08
2.32383e-08
2.32664e-08
2.3379e-08
2.31803e-08
2.33528e-08
2.34852e-08
2.34823e-08
2.35094e-08
2.34378e-08
2.34797e-08
2.34667e-08
2.3434e-08
2.34782e-08
2.34957e-08
2.35029e-08
2.34766e-08
2.35058e-08
2.34995e-08
2.35105e-08
2.33476e-08
2.33433e-08
2.34328e-08
2.33841e-08
2.34986e-08
2.34788e-08
2.34726e-08
2.34088e-08
2.34952e-08
2.34208e-08
2.34169e-08
2.34658e-08
2.34935e-08
2.34953e-08
2.3505e-08
2.35091e-08
2.34869e-08
2.35154e-08
2.35276e-08
2.34925e-08
2.34773e-08
2.34248e-08
2.35081e-08
2.34628e-08
2.31918e-08
2.3235e-08
2.31959e-08
2.30705e-08
2.32634e-08
2.34447e-08
2.31985e-08
2.3316e-08
2.32445e-08
2.31729e-08
2.32089e-08
2.3433e-08
2.34737e-08
2.34856e-08
2.35096e-08
2.31012e-08
2.32497e-08
2.30451e-08
2.30531e-08
2.31174e-08
2.31914e-08
2.3146e-08
2.3273e-08
2.3212e-08
2.32181e-08
2.32731e-08
2.32066e-08
2.3245e-08
2.33816e-08
2.31897e-08
2.33535e-08
2.34764e-08
2.34291e-08
2.3483e-08
2.35095e-08
2.3397e-08
2.34266e-08
2.35056e-08
2.34682e-08
2.35168e-08
2.34874e-08
2.3513e-08
2.34752e-08
2.34833e-08
2.35083e-08
2.34221e-08
2.34951e-08
2.34453e-08
2.33623e-08
2.34813e-08
2.33611e-08
2.35074e-08
2.35056e-08
2.3496e-08
2.35123e-08
2.3467e-08
2.34343e-08
2.34981e-08
2.34952e-08
2.34946e-08
2.35008e-08
2.35031e-08
2.34873e-08
2.34985e-08
2.35067e-08
2.34254e-08
2.34905e-08
2.34749e-08
2.34798e-08
2.34787e-08
2.34814e-08
2.3172e-08
2.31119e-08
2.31672e-08
2.31925e-08
2.31076e-08
2.32466e-08
2.32037e-08
2.34579e-08
2.34292e-08
2.32965e-08
2.322e-08
2.30002e-08
2.31764e-08
2.31389e-08
2.34555e-08
2.34854e-08
2.34629e-08
2.34341e-08
2.31464e-08
2.32397e-08
2.31349e-08
2.31265e-08
2.30844e-08
2.3108e-08
2.31313e-08
2.32701e-08
2.31588e-08
2.3126e-08
2.32469e-08
2.3161e-08
2.31548e-08
2.32804e-08
2.32713e-08
2.33498e-08
2.3404e-08
2.34749e-08
2.35295e-08
2.33297e-08
2.34581e-08
2.34866e-08
2.35036e-08
2.3514e-08
2.34551e-08
2.35038e-08
2.34216e-08
2.34835e-08
2.35019e-08
2.34788e-08
2.34471e-08
2.34606e-08
2.33585e-08
2.33489e-08
2.33952e-08
2.3485e-08
2.34837e-08
2.34528e-08
2.35053e-08
2.34654e-08
2.34543e-08
2.34868e-08
2.35081e-08
2.34452e-08
2.34667e-08
2.3485e-08
2.35051e-08
2.3496e-08
2.348e-08
2.35085e-08
2.34673e-08
2.34838e-08
2.34659e-08
2.35018e-08
2.34886e-08
2.34723e-08
2.31607e-08
2.30701e-08
2.30279e-08
2.31675e-08
2.31287e-08
2.32158e-08
2.31951e-08
2.3339e-08
2.32933e-08
2.32439e-08
2.31427e-08
2.3049e-08
2.30995e-08
2.30514e-08
2.34672e-08
2.34812e-08
2.3484e-08
2.34244e-08
2.35077e-08
2.31988e-08
2.30929e-08
2.32007e-08
2.31434e-08
2.29411e-08
2.30621e-08
2.31213e-08
2.32103e-08
2.3166e-08
2.31664e-08
2.31698e-08
2.30747e-08
2.31419e-08
2.33321e-08
2.32566e-08
2.32571e-08
2.34325e-08
2.34802e-08
2.35387e-08
2.3459e-08
2.34229e-08
2.34892e-08
2.35201e-08
2.34586e-08
2.34991e-08
2.34856e-08
2.3449e-08
2.3463e-08
2.34853e-08
2.34402e-08
2.34322e-08
2.34618e-08
2.32775e-08
2.34192e-08
2.34472e-08
2.34619e-08
2.34847e-08
2.35054e-08
2.34972e-08
2.34712e-08
2.34577e-08
2.34771e-08
2.35179e-08
2.34976e-08
2.34756e-08
2.34829e-08
2.35058e-08
2.34979e-08
2.34842e-08
2.34191e-08
2.34672e-08
2.34914e-08
2.3481e-08
2.34844e-08
2.34817e-08
2.34733e-08
2.29895e-08
2.30586e-08
2.30012e-08
2.30746e-08
2.29453e-08
2.3139e-08
2.31377e-08
2.32713e-08
2.32017e-08
2.32084e-08
2.32878e-08
2.30756e-08
2.31698e-08
2.31465e-08
2.31313e-08
2.34952e-08
2.34433e-08
2.34892e-08
2.3454e-08
2.34494e-08
2.30946e-08
2.32038e-08
2.32125e-08
2.31478e-08
2.30421e-08
2.30671e-08
2.31172e-08
2.31583e-08
2.32929e-08
2.31562e-08
2.32958e-08
2.31039e-08
2.32763e-08
2.31931e-08
2.33128e-08
2.34654e-08
2.34252e-08
2.34726e-08
2.3459e-08
2.35218e-08
2.34105e-08
2.34881e-08
2.35065e-08
2.3453e-08
2.34487e-08
2.34367e-08
2.34071e-08
2.34347e-08
2.34652e-08
2.34476e-08
2.3274e-08
2.33661e-08
2.33559e-08
2.34456e-08
2.3483e-08
2.35072e-08
2.34957e-08
2.34654e-08
2.34524e-08
2.34704e-08
2.34779e-08
2.34662e-08
2.35126e-08
2.35194e-08
2.34819e-08
2.34912e-08
2.34941e-08
2.34755e-08
2.34833e-08
2.34198e-08
2.35107e-08
2.33992e-08
2.34223e-08
2.34771e-08
2.34848e-08
2.34627e-08
2.31482e-08
2.30363e-08
2.30917e-08
2.29676e-08
2.29879e-08
2.30358e-08
2.30261e-08
2.32154e-08
2.31282e-08
2.32654e-08
2.33312e-08
2.32028e-08
2.32663e-08
2.30835e-08
2.29283e-08
2.30817e-08
2.30681e-08
2.31439e-08
2.3406e-08
2.33786e-08
2.34668e-08
2.34407e-08
2.35101e-08
2.29842e-08
2.31399e-08
2.31444e-08
2.31065e-08
2.29977e-08
2.30464e-08
2.30628e-08
2.31357e-08
2.31744e-08
2.30987e-08
2.32475e-08
2.30789e-08
2.31726e-08
2.32007e-08
2.30407e-08
2.33403e-08
2.34139e-08
2.34971e-08
2.34687e-08
2.35007e-08
2.3511e-08
2.34834e-08
2.34567e-08
2.3512e-08
2.34601e-08
2.34219e-08
2.35273e-08
2.34246e-08
2.33807e-08
2.34174e-08
2.34124e-08
2.34154e-08
2.33793e-08
2.35029e-08
2.34942e-08
2.34827e-08
2.34457e-08
2.34545e-08
2.34454e-08
2.34757e-08
2.34708e-08
2.34777e-08
2.35168e-08
2.34788e-08
2.34908e-08
2.35011e-08
2.34804e-08
2.34638e-08
2.35142e-08
2.34916e-08
2.34076e-08
2.34895e-08
2.35018e-08
2.34746e-08
2.34712e-08
2.31539e-08
2.31721e-08
2.31381e-08
2.28383e-08
2.29462e-08
2.28782e-08
2.29708e-08
2.31597e-08
2.29824e-08
2.32874e-08
2.32109e-08
2.3308e-08
2.32344e-08
2.3067e-08
2.30085e-08
2.30243e-08
2.29225e-08
2.30496e-08
2.2907e-08
2.34749e-08
2.34613e-08
2.33668e-08
2.34051e-08
2.34906e-08
2.35024e-08
2.29776e-08
2.3188e-08
2.31499e-08
2.31769e-08
2.30217e-08
2.30705e-08
2.3174e-08
2.29893e-08
2.30624e-08
2.32211e-08
2.30786e-08
2.30916e-08
2.31171e-08
2.31702e-08
2.33226e-08
2.34448e-08
2.34549e-08
2.34154e-08
2.34039e-08
2.34718e-08
2.34929e-08
2.34501e-08
2.34725e-08
2.34896e-08
2.34415e-08
2.35184e-08
2.35266e-08
2.3532e-08
2.33461e-08
2.33835e-08
2.34358e-08
2.32953e-08
2.34029e-08
2.33984e-08
2.3503e-08
2.34924e-08
2.34826e-08
2.34308e-08
2.34337e-08
2.34428e-08
2.33842e-08
2.34249e-08
2.34568e-08
2.34605e-08
2.34476e-08
2.34764e-08
2.3501e-08
2.34763e-08
2.34933e-08
2.34762e-08
2.34888e-08
2.35278e-08
2.34161e-08
2.34543e-08
2.34983e-08
2.35263e-08
2.348e-08
2.34651e-08
2.31707e-08
2.31649e-08
2.29991e-08
2.29051e-08
2.30953e-08
2.28528e-08
2.30245e-08
2.30538e-08
2.31053e-08
2.31741e-08
2.32694e-08
2.32929e-08
2.3e-08
2.31006e-08
2.29564e-08
2.30084e-08
2.27972e-08
2.30775e-08
2.31222e-08
2.34726e-08
2.33687e-08
2.33154e-08
2.35079e-08
2.34345e-08
2.3508e-08
2.3083e-08
2.29862e-08
2.30812e-08
2.30735e-08
2.30245e-08
2.31344e-08
2.30614e-08
2.31747e-08
2.29386e-08
2.31724e-08
2.32484e-08
2.30941e-08
2.29686e-08
2.32012e-08
2.31123e-08
2.32318e-08
2.34274e-08
2.34568e-08
2.34597e-08
2.34756e-08
2.34709e-08
2.34711e-08
2.34631e-08
2.35118e-08
2.35031e-08
2.3528e-08
2.35069e-08
2.35e-08
2.3524e-08
2.34509e-08
2.3448e-08
2.33656e-08
2.33758e-08
2.32983e-08
2.33156e-08
2.33002e-08
2.34995e-08
2.3482e-08
2.33744e-08
2.34386e-08
2.34428e-08
2.34325e-08
2.34333e-08
2.34571e-08
2.34495e-08
2.34402e-08
2.34759e-08
2.35009e-08
2.34751e-08
2.34943e-08
2.34822e-08
2.34917e-08
2.34395e-08
2.35058e-08
2.3556e-08
2.35034e-08
2.34769e-08
2.34631e-08
2.31747e-08
2.31084e-08
2.30181e-08
2.29218e-08
2.30325e-08
2.3055e-08
2.3002e-08
2.29977e-08
2.30675e-08
2.31178e-08
2.3055e-08
2.31254e-08
2.32496e-08
2.305e-08
2.31115e-08
2.28926e-08
2.28013e-08
2.31228e-08
2.28905e-08
2.31286e-08
2.30658e-08
2.34154e-08
2.33468e-08
2.33813e-08
2.33105e-08
2.34026e-08
2.34183e-08
2.34338e-08
2.29779e-08
2.30896e-08
2.30829e-08
2.29309e-08
2.29546e-08
2.30616e-08
2.30258e-08
2.30362e-08
2.30725e-08
2.3223e-08
2.32194e-08
2.30713e-08
2.30579e-08
2.30931e-08
2.31251e-08
2.34518e-08
2.34902e-08
2.3476e-08
2.34072e-08
2.34884e-08
2.34092e-08
2.35123e-08
2.34405e-08
2.35089e-08
2.35095e-08
2.34875e-08
2.35076e-08
2.35011e-08
2.35376e-08
2.34469e-08
2.33672e-08
2.33733e-08
2.33144e-08
2.29127e-08
2.32715e-08
2.33179e-08
2.34994e-08
2.34793e-08
2.34407e-08
2.34654e-08
2.34624e-08
2.34778e-08
2.34991e-08
2.34175e-08
2.33549e-08
2.33853e-08
2.35113e-08
2.35289e-08
2.34897e-08
2.34797e-08
2.34735e-08
2.34823e-08
2.34656e-08
2.34865e-08
2.35555e-08
2.34538e-08
2.34935e-08
2.34722e-08
2.34619e-08
2.29615e-08
2.31236e-08
2.30483e-08
2.29728e-08
2.28867e-08
2.29839e-08
2.28978e-08
2.3011e-08
2.29533e-08
2.31077e-08
2.3147e-08
2.31534e-08
2.30342e-08
2.30757e-08
2.30314e-08
2.28202e-08
2.2811e-08
2.28596e-08
2.27454e-08
2.29622e-08
2.27733e-08
2.34008e-08
2.32788e-08
2.32824e-08
2.31809e-08
2.34113e-08
2.34727e-08
2.34285e-08
2.29167e-08
2.30175e-08
2.30034e-08
2.28527e-08
2.2928e-08
2.27275e-08
2.30686e-08
2.30877e-08
2.30772e-08
2.31691e-08
2.31047e-08
2.3105e-08
2.30861e-08
2.30216e-08
2.32455e-08
2.34245e-08
2.35099e-08
2.34548e-08
2.35036e-08
2.34075e-08
2.3422e-08
2.34058e-08
2.35172e-08
2.34853e-08
2.34362e-08
2.34776e-08
2.34827e-08
2.34855e-08
2.34817e-08
2.35377e-08
2.34687e-08
2.34614e-08
2.34678e-08
2.33522e-08
2.33051e-08
2.32612e-08
2.31397e-08
2.33521e-08
2.32277e-08
2.32058e-08
2.34292e-08
2.34564e-08
2.34985e-08
2.34819e-08
2.35308e-08
2.34348e-08
2.33691e-08
2.35309e-08
2.35092e-08
2.35211e-08
2.34886e-08
2.34814e-08
2.35217e-08
2.34996e-08
2.34697e-08
2.34853e-08
2.3449e-08
2.34698e-08
2.34917e-08
2.3437e-08
2.34368e-08
2.29423e-08
2.28688e-08
2.28558e-08
2.30345e-08
2.28121e-08
2.27806e-08
2.29546e-08
2.29394e-08
2.28446e-08
2.29463e-08
2.28958e-08
2.30805e-08
2.31133e-08
2.31581e-08
2.30602e-08
2.30577e-08
2.30212e-08
2.3074e-08
2.28149e-08
2.31667e-08
2.29948e-08
2.27753e-08
2.29258e-08
2.27728e-08
2.287e-08
2.33617e-08
2.34758e-08
2.32824e-08
2.32367e-08
2.32786e-08
2.31758e-08
2.34672e-08
2.34772e-08
2.33991e-08
2.35295e-08
2.30088e-08
2.31105e-08
2.30148e-08
2.2699e-08
2.29188e-08
2.30395e-08
2.27716e-08
2.30625e-08
2.30159e-08
2.30013e-08
2.30371e-08
2.31393e-08
2.30941e-08
2.29693e-08
2.31954e-08
2.31925e-08
2.35083e-08
2.34751e-08
2.34092e-08
2.34852e-08
2.34551e-08
2.33614e-08
2.35142e-08
2.34801e-08
2.34848e-08
2.34604e-08
2.34792e-08
2.34766e-08
2.34784e-08
2.35171e-08
2.34789e-08
2.34364e-08
2.33738e-08
2.33167e-08
2.29612e-08
2.31405e-08
2.32796e-08
2.29537e-08
2.34494e-08
2.35234e-08
2.3533e-08
2.35321e-08
2.35313e-08
2.35314e-08
2.35321e-08
2.35328e-08
2.34999e-08
2.35094e-08
2.34984e-08
2.34375e-08
2.34193e-08
2.3484e-08
2.34805e-08
2.34821e-08
2.34752e-08
2.35236e-08
2.29347e-08
2.27795e-08
2.28955e-08
2.26898e-08
2.27571e-08
2.2989e-08
2.27929e-08
2.27631e-08
2.26724e-08
2.30902e-08
2.30132e-08
2.30207e-08
2.31364e-08
2.313e-08
2.30558e-08
2.30674e-08
2.3063e-08
2.31677e-08
2.26488e-08
2.29174e-08
2.29294e-08
2.28306e-08
2.2763e-08
2.33665e-08
2.34342e-08
2.3194e-08
2.32798e-08
2.32135e-08
2.29387e-08
2.33941e-08
2.34699e-08
2.34598e-08
2.30257e-08
2.30381e-08
2.29604e-08
2.28606e-08
2.29705e-08
2.27898e-08
2.28911e-08
2.31006e-08
2.30023e-08
2.30811e-08
2.30317e-08
2.31451e-08
2.30005e-08
2.30523e-08
2.30467e-08
2.31905e-08
2.35029e-08
2.34705e-08
2.34785e-08
2.34829e-08
2.3488e-08
2.35107e-08
2.35263e-08
2.35077e-08
2.34492e-08
2.34936e-08
2.34177e-08
2.34604e-08
2.34581e-08
2.35148e-08
2.34968e-08
2.33718e-08
2.33342e-08
2.32957e-08
2.3187e-08
2.32076e-08
2.33413e-08
2.32215e-08
2.33348e-08
2.32422e-08
2.34406e-08
2.35157e-08
2.34669e-08
2.35324e-08
2.35331e-08
2.34922e-08
2.34803e-08
2.34775e-08
2.34779e-08
2.34774e-08
2.34896e-08
2.3448e-08
2.3523e-08
2.29496e-08
2.30019e-08
2.2937e-08
2.27511e-08
2.2961e-08
2.30049e-08
2.28252e-08
2.28132e-08
2.3027e-08
2.2941e-08
2.30086e-08
2.31396e-08
2.30675e-08
2.29201e-08
2.28522e-08
2.28748e-08
2.30052e-08
2.28166e-08
2.28601e-08
2.26693e-08
2.28518e-08
2.28251e-08
2.28465e-08
2.27957e-08
2.33507e-08
2.34187e-08
2.31311e-08
2.30614e-08
2.32855e-08
2.32698e-08
2.29061e-08
2.29889e-08
2.34759e-08
2.34577e-08
2.34854e-08
2.40467e-08
2.29711e-08
2.29419e-08
2.29085e-08
2.30154e-08
2.28932e-08
2.288e-08
2.29577e-08
2.2955e-08
2.28654e-08
2.28614e-08
2.31256e-08
2.29609e-08
2.29516e-08
2.31141e-08
2.30331e-08
2.34967e-08
2.34242e-08
2.34748e-08
2.35411e-08
2.35109e-08
2.35255e-08
2.345e-08
2.34144e-08
2.34985e-08
2.34556e-08
2.35088e-08
2.34725e-08
2.34493e-08
2.33972e-08
2.34649e-08
2.33196e-08
2.33019e-08
2.29623e-08
2.30084e-08
2.31767e-08
2.29824e-08
2.3534e-08
2.35321e-08
2.35331e-08
2.343e-08
2.34959e-08
2.34825e-08
2.34789e-08
2.34774e-08
2.34636e-08
2.351e-08
2.27027e-08
2.29396e-08
2.29783e-08
2.27859e-08
2.29159e-08
2.27064e-08
2.26764e-08
2.276e-08
2.28662e-08
2.28102e-08
2.30313e-08
2.29807e-08
2.29803e-08
2.29206e-08
2.29849e-08
2.29163e-08
2.28491e-08
2.30026e-08
2.29277e-08
2.26945e-08
2.2768e-08
2.28393e-08
2.28659e-08
2.32127e-08
2.32518e-08
2.29351e-08
2.31126e-08
2.31384e-08
2.32634e-08
2.29506e-08
2.30166e-08
2.34395e-08
2.34131e-08
2.34189e-08
2.34242e-08
2.30043e-08
2.28624e-08
2.28843e-08
2.29936e-08
2.28757e-08
2.29682e-08
2.29687e-08
2.29023e-08
2.30103e-08
2.30896e-08
2.30049e-08
2.29284e-08
2.29555e-08
2.30879e-08
2.30777e-08
2.31635e-08
2.34379e-08
2.3472e-08
2.35379e-08
2.34396e-08
2.34606e-08
2.33987e-08
2.34211e-08
2.35372e-08
2.35358e-08
2.35065e-08
2.34299e-08
2.34987e-08
2.3487e-08
2.33368e-08
2.33456e-08
2.32958e-08
2.32307e-08
2.32069e-08
2.30523e-08
2.30511e-08
2.32082e-08
2.34963e-08
2.34473e-08
2.35227e-08
2.35062e-08
2.34546e-08
2.35336e-08
2.28347e-08
2.27158e-08
2.29297e-08
2.27696e-08
2.27806e-08
2.25941e-08
2.26606e-08
2.2817e-08
2.29037e-08
2.29192e-08
2.28713e-08
2.28872e-08
2.30311e-08
2.29792e-08
2.29404e-08
2.29798e-08
2.29797e-08
2.29186e-08
2.29481e-08
2.29434e-08
2.2793e-08
2.26982e-08
2.2852e-08
2.28692e-08
2.2953e-08
2.28072e-08
2.31761e-08
2.31953e-08
2.32898e-08
2.32864e-08
2.30184e-08
2.31219e-08
2.31533e-08
2.32207e-08
2.30181e-08
2.3137e-08
2.33298e-08
2.3427e-08
2.34283e-08
2.34583e-08
2.3505e-08
2.3018e-08
2.27569e-08
2.29515e-08
2.27812e-08
2.26503e-08
2.2769e-08
2.30218e-08
2.28204e-08
2.27473e-08
2.27413e-08
2.29987e-08
2.27533e-08
2.2896e-08
2.29869e-08
2.34576e-08
2.3464e-08
2.34748e-08
2.34605e-08
2.34479e-08
2.34189e-08
2.35092e-08
2.35359e-08
2.35019e-08
2.3464e-08
2.35257e-08
2.34731e-08
2.33398e-08
2.33435e-08
2.3281e-08
2.31905e-08
2.30136e-08
2.32414e-08
2.31956e-08
2.3125e-08
2.32422e-08
2.34707e-08
2.34326e-08
2.35334e-08
2.35331e-08
2.34086e-08
2.33757e-08
2.2768e-08
2.26981e-08
2.28828e-08
2.28239e-08
2.25355e-08
2.27487e-08
2.28858e-08
2.26484e-08
2.28806e-08
2.29644e-08
2.29392e-08
2.29331e-08
2.30221e-08
2.28965e-08
2.2901e-08
2.29441e-08
2.29401e-08
2.29263e-08
2.27538e-08
2.26933e-08
2.28395e-08
2.27979e-08
2.31014e-08
2.32668e-08
2.33017e-08
2.32347e-08
2.30313e-08
2.30849e-08
2.31213e-08
2.32394e-08
2.30932e-08
2.31113e-08
2.33721e-08
2.34189e-08
2.33984e-08
2.33713e-08
2.33421e-08
2.33566e-08
2.28521e-08
2.26991e-08
2.25122e-08
2.28759e-08
2.28756e-08
2.28256e-08
2.25806e-08
2.29672e-08
2.29122e-08
2.29077e-08
2.30214e-08
2.29148e-08
2.30553e-08
2.28969e-08
2.29195e-08
2.29297e-08
2.3177e-08
2.3451e-08
2.34094e-08
2.34739e-08
2.35376e-08
2.35392e-08
2.34716e-08
2.34649e-08
2.34702e-08
2.35072e-08
2.34308e-08
2.32825e-08
2.33318e-08
2.34088e-08
2.32289e-08
2.31879e-08
2.29341e-08
2.31885e-08
2.31814e-08
2.31639e-08
2.31776e-08
2.34189e-08
2.34213e-08
2.34729e-08
2.35336e-08
2.33799e-08
2.29927e-08
2.24001e-08
2.25245e-08
2.26804e-08
2.27666e-08
2.28977e-08
2.26138e-08
2.28464e-08