/*--------------------------------*- C++ -*----------------------------------*\
| =========                 |                                                 |
| \\      /  F ield         | OpenFOAM: The Open Source CFD Toolbox           |
|  \\    /   O peration     | Version:  v2012                                 |
|   \\  /    A nd           | Website:  www.openfoam.com                      |
|    \\/     M anipulation  |                                                 |
\*---------------------------------------------------------------------------*/
FoamFile
{
    version     2.0;
    format      ascii;
    class       volVectorField;
    location    "5";
    object      U;
}
// * * * * * * * * * * * * * * * * * * * * * * * * * * * * * * * * * * * * * //

dimensions      [0 1 -1 0 0 0 0];


internalField   nonuniform List<vector> 
27222
(
(17.878 0.0706252 4.03391e-23)
(17.9157 0.0771358 2.28992e-23)
(17.8599 0.0359865 -1.4409e-23)
(17.9705 0.0474425 0)
(17.9103 0.0552716 -4.71635e-24)
(17.8607 0.0442467 -2.08174e-23)
(17.946 0.0390774 3.03515e-24)
(17.9974 0.0542475 0)
(17.9029 0.119103 9.53483e-23)
(17.9511 0.046203 -3.41328e-24)
(17.834 0.0414666 -6.65253e-24)
(17.9752 0.0420942 1.94371e-23)
(17.9961 0.0585537 0)
(18.0196 0.0434309 0)
(17.8904 0.0830045 -3.41614e-23)
(17.964 0.0614291 1.17521e-23)
(17.9284 0.0310984 -2.30304e-24)
(17.8356 0.0455357 -2.72698e-24)
(18.022 0.0422496 1.98105e-23)
(18.0188 0.0566457 1.24008e-23)
(18.004 0.0460518 -3.68685e-24)
(18.0141 0.0426758 2.20306e-24)
(17.9012 0.0978451 2.94962e-23)
(17.9516 0.0398409 9.22409e-24)
(18.0058 0.0619399 2.78062e-25)
(17.9614 0.0304037 -1.2664e-23)
(17.8158 0.0421648 -1.12202e-23)
(18.019 0.039677 0)
(18.0134 0.0558021 -8.42683e-24)
(18.0044 0.0515499 -4.24845e-24)
(17.9862 0.0498971 0)
(18.0009 0.0431022 -1.07677e-23)
(17.8998 0.0793474 -7.48287e-24)
(17.9894 0.053039 -1.31842e-23)
(18.0152 0.0712237 -4.46579e-24)
(18.0143 0.0379878 0)
(17.9179 0.0256396 -5.16536e-24)
(17.8272 0.0594497 1.39911e-24)
(18.0062 0.0388796 0)
(18.0063 0.0624787 -7.82375e-24)
(17.9877 0.0573627 1.68029e-23)
(17.9833 0.0511765 0)
(17.9877 0.0451062 1.07402e-23)
(17.9899 0.0435635 1.14132e-23)
(17.9606 0.0480495 2.06797e-24)
(17.9182 0.0742785 0)
(17.9964 0.0571281 -3.54263e-24)
(18.0132 0.0661213 0)
(18.0216 0.032676 0)
(17.9603 0.0378759 -4.54047e-24)
(17.8122 0.0459637 0)
(17.9997 0.0378717 0)
(17.9921 0.0650686 2.36851e-23)
(17.9805 0.0548106 2.28498e-23)
(17.9845 0.0623377 1.80525e-23)
(17.9812 0.0465846 0)
(17.9822 0.0442196 0)
(17.9848 0.0398553 0)
(17.9714 0.0558591 0)
(17.9288 0.0611898 -2.37473e-23)
(18.0171 0.0627347 1.74922e-23)
(18.0107 0.0686139 0)
(18.0131 0.0314224 0)
(18.0056 0.0348271 0)
(17.9319 0.0320786 -1.78947e-24)
(17.8305 0.0555479 0)
(17.9876 0.0375271 -4.98462e-24)
(17.9886 0.0710129 0)
(17.9785 0.0548303 -2.38406e-24)
(17.9806 0.0629445 1.16263e-23)
(17.9794 0.0476512 -2.61084e-23)
(17.9819 0.0416741 -1.50812e-23)
(18.0078 0.0663651 1.42548e-23)
(17.9576 0.0480526 0)
(17.9563 0.0594115 -1.23219e-23)
(18.0156 0.0665423 4.47229e-24)
(17.9962 0.0704613 0)
(18.0197 0.0297552 -9.56467e-24)
(17.9986 0.0326933 0)
(18.0045 0.025019 -1.60211e-23)
(17.8147 0.0367704 1.92628e-24)
(17.9834 0.0355666 4.06448e-24)
(17.9841 0.0715338 0)
(17.9771 0.0598269 -1.12699e-23)
(17.9773 0.0519287 -1.12247e-23)
(17.9792 0.0677986 2.26188e-23)
(17.9774 0.0453243 -1.76458e-23)
(17.9802 0.039416 -2.292e-23)
(18.0205 0.067374 1.20736e-23)
(17.9725 0.0550733 -2.8881e-24)
(17.9638 0.0435942 2.66598e-24)
(18.0195 0.0727576 0)
(17.996 0.0785799 0)
(18.0112 0.0299897 1.15666e-23)
(17.9867 0.0330307 7.63455e-24)
(18.0009 0.0304435 1.40697e-23)
(17.9996 0.0191121 2.31111e-23)
(17.9762 0.0183467 3.92721e-24)
(17.8079 0.0483415 1.05339e-23)
(17.9815 0.0350312 1.55194e-24)
(17.9802 0.0750314 9.80072e-24)
(17.9722 0.0607361 0)
(17.9723 0.0517538 -1.37128e-24)
(17.972 0.0696897 1.21269e-23)
(17.9732 0.045101 0)
(17.9772 0.0419584 -2.83503e-23)
(17.9776 0.0387666 -3.04693e-23)
(18.0257 0.0681701 0)
(18.0084 0.0638721 1.27893e-23)
(17.967 0.0455757 3.96929e-24)
(17.9846 0.064113 0)
(18.0083 0.0783201 0)
(17.9923 0.0841759 0)
(18.0066 0.0274184 -1.1242e-23)
(17.9825 0.0303859 0)
(17.9875 0.0286103 4.21377e-24)
(18.0082 0.0251674 -1.60162e-23)
(17.9951 0.0169212 2.17547e-24)
(17.804 0.0292824 2.61337e-26)
(17.981 0.0329625 0)
(17.981 0.0813652 1.14628e-24)
(17.9709 0.0746798 9.71995e-24)
(17.9694 0.0662971 0)
(17.9683 0.0575682 -1.92542e-23)
(17.9694 0.0533783 0)
(17.9711 0.0471703 2.62477e-24)
(17.9737 0.04218 -7.20675e-24)
(17.9776 0.0345567 0)
(18.0346 0.0744539 -3.43126e-23)
(18.0248 0.0673118 1.82112e-24)
(18.0013 0.0569967 -1.85367e-24)
(17.9936 0.0674582 0)
(18.0102 0.0840738 0)
(17.9867 0.0890734 -1.9676e-23)
(17.9908 0.0271989 0)
(17.9816 0.0306984 -2.60351e-24)
(18.0062 0.0226781 0)
(17.9526 0.00964245 -2.07177e-25)
(18.017 0.0236308 6.16472e-24)
(17.806 0.048295 0)
(17.9793 0.0318865 0)
(17.9741 0.0849513 -1.47599e-24)
(17.9679 0.0797607 3.58393e-25)
(17.9636 0.0655711 0)
(17.963 0.0603417 -1.97147e-23)
(17.9666 0.0505371 -1.7251e-23)
(17.9682 0.0468037 9.32138e-24)
(17.9732 0.039766 1.46584e-23)
(17.9754 0.0335714 -2.35805e-23)
(18.0272 0.0821804 1.21822e-23)
(18.0369 0.0736606 -4.32672e-23)
(18.0053 0.0538674 -1.60067e-23)
(17.9988 0.0416859 0)
(18.0008 0.0905105 0)
(17.9908 0.0927879 0)
(17.9731 0.0907853 -2.18438e-23)
(17.985 0.0266707 1.464e-24)
(17.9818 0.0289821 -4.5515e-24)
(17.9876 0.0215894 1.1637e-23)
(17.9882 0.0114149 0)
(18.0129 0.0202367 7.71966e-25)
(17.8129 0.0421392 0)
(17.9792 0.0287363 -1.83456e-23)
(17.969 0.0834008 1.0431e-24)
(17.9628 0.0777184 -2.47762e-23)
(17.9607 0.0699004 0)
(17.9602 0.0571953 -2.16245e-23)
(17.9624 0.0509464 -1.74872e-23)
(17.9676 0.0440559 3.15422e-24)
(17.9736 0.0355831 -2.32182e-23)
(17.9701 0.0401306 1.8157e-23)
(17.9757 0.0300994 -9.88442e-24)
(18.0257 0.0897129 0)
(18.048 0.0723231 -2.40672e-23)
(18.0274 0.0642023 -4.76214e-23)
(18.028 0.0415813 0)
(17.9873 0.0581543 0)
(18.0073 0.0956428 0)
(17.9826 0.101862 -4.00418e-23)
(17.972 0.094187 1.57548e-23)
(17.9864 0.0238983 1.1116e-23)
(17.9836 0.0272136 0)
(17.9804 0.0272429 -2.09801e-23)
(17.9927 0.0198205 -6.22758e-24)
(17.9557 -0.000824271 -1.66857e-24)
(18.0148 0.021022 0)
(17.8234 0.0829895 0)
(17.9776 0.0282843 -9.81975e-24)
(17.9692 0.0903968 1.53342e-23)
(17.9551 0.0808883 -1.35997e-23)
(17.9526 0.0684756 0)
(17.9541 0.0576124 -1.67425e-23)
(17.9597 0.0485689 -2.14392e-23)
(17.9642 0.0419212 -3.65074e-24)
(17.9699 0.0336121 0)
(17.9678 0.0361987 -1.14792e-23)
(17.9738 0.0285747 1.06413e-23)
(18.0367 0.0931808 2.75275e-23)
(18.0524 0.0815142 2.27014e-23)
(18.034 0.066046 0)
(18.0451 0.0438429 0)
(17.9986 0.0370527 0)
(18.0026 0.105581 -1.48149e-23)
(17.9878 0.107628 -1.46943e-23)
(17.9725 0.103207 -4.12611e-23)
(17.9859 0.0230766 0)
(17.9833 0.0245722 0)
(17.9811 0.0252702 0)
(17.9865 0.0209139 -1.06509e-23)
(18.0045 0.00613504 -1.87036e-23)
(18.0112 0.0127943 0)
(17.8409 0.0683391 1.19395e-23)
(17.9779 0.0256752 0)
(17.9637 0.092543 -1.59328e-23)
(17.9485 0.0762914 1.15357e-23)
(17.9544 0.0885391 -1.55225e-23)
(17.9507 0.0632054 0)
(17.9506 0.0521152 4.12748e-24)
(17.9543 0.0474149 -1.78752e-23)
(17.9613 0.0436685 -3.27459e-24)
(17.9646 0.0367333 -1.38414e-23)
(17.9707 0.0303297 1.95815e-23)
(17.9744 0.0252117 -7.31406e-25)
(18.0308 0.1018 1.37513e-23)
(18.0719 0.0816342 -2.32166e-23)
(18.0627 0.0771633 0)
(18.0494 0.0215847 0)
(18.0649 0.0601749 3.02652e-23)
(17.9801 0.0105473 0)
(18.0115 0.10879 -5.50125e-24)
(17.986 0.120166 0)
(17.9695 0.106855 0)
(17.9838 0.0229464 0)
(17.9861 0.0214519 0)
(17.9802 0.0239882 9.70666e-24)
(17.9875 0.0213434 0)
(17.9899 0.0185896 0)
(17.9865 -0.00304475 0)
(17.8608 0.14618 5.13222e-23)
(17.9651 -0.0203954 6.98415e-24)
(17.9793 0.0238455 1.4715e-23)
(17.9764 0.0240159 0)
(17.9625 0.101402 0)
(17.9424 0.077026 1.09464e-23)
(17.9455 0.0938966 2.25759e-24)
(17.9448 0.0623922 2.51642e-24)
(17.9448 0.049643 -8.85699e-24)
(17.9528 0.043245 -3.23159e-24)
(17.9572 0.0408338 0)
(17.9624 0.0348812 0)
(17.9688 0.0288044 6.67234e-24)
(17.9728 0.0233885 6.26553e-25)
(18.0394 0.112103 -8.22718e-25)
(18.0657 0.0994135 -2.03892e-23)
(18.0759 0.071285 2.45977e-23)
(18.0692 0.015543 0)
(18.0774 0.0583133 1.45521e-23)
(18.024 0.0181188 -3.96536e-23)
(18.011 0.123601 -1.14292e-23)
(17.9726 0.124261 1.60393e-23)
(17.9977 0.128036 -4.43377e-23)
(17.9657 0.116839 1.74889e-23)
(17.9825 0.0217936 -8.99613e-24)
(17.9846 0.0201588 4.06339e-24)
(17.9815 0.0217717 -9.27102e-24)
(17.9872 0.0203146 9.1762e-25)
(17.9892 0.0191282 0)
(17.9912 0.0362265 0)
(17.9254 0.0312667 1.10109e-23)
(17.9675 0.0208752 -7.74062e-25)
(17.9792 0.0216953 4.58541e-24)
(17.9774 0.0215403 0)
(17.95 0.1016 2.85015e-23)
(17.9365 0.0825002 1.11518e-23)
(17.9387 0.0710793 1.33167e-23)
(17.9371 0.0905206 0)
(17.9414 0.0547649 -6.00657e-24)
(17.9408 0.0648005 -1.96672e-24)
(17.9448 0.0438677 1.75973e-24)
(17.9497 0.0406831 -3.48935e-24)
(17.958 0.037095 0)
(17.9631 0.0303492 -1.3686e-23)
(17.9706 0.0245552 -1.74406e-24)
(17.9657 0.0280901 -1.10387e-23)
(17.9736 0.0199885 4.55738e-24)
(18.0277 0.123492 -9.43899e-24)
(18.0867 0.108001 -9.25704e-23)
(18.0996 0.0922182 -5.37173e-23)
(18.0816 0.0363544 0)
(18.1016 0.0713801 -5.82845e-24)
(18.0213 -0.016999 6.60954e-24)
(17.9699 0.136809 -5.51096e-23)
(17.9988 0.140625 -6.39167e-23)
(17.9498 0.118368 1.67493e-24)
(17.9836 0.0200467 0)
(17.9859 0.0189042 5.12073e-24)
(17.9815 0.020109 8.49225e-24)
(17.9871 0.0208131 0)
(17.9939 0.0211508 0)
(17.9841 0.0276599 3.73753e-24)
(17.9364 0.0790923 8.55812e-24)
(17.9804 0.0200188 8.72882e-24)
(17.9775 0.0200361 0)
(17.9434 0.109119 2.74655e-23)
(17.9277 0.0789008 0)
(17.9301 0.0710865 1.37674e-23)
(17.9306 0.0976467 -1.71021e-25)
(17.9348 0.0555164 -8.28389e-24)
(17.9327 0.0600158 2.22686e-23)
(17.9413 0.040743 1.76827e-24)
(17.9509 0.0359372 0)
(17.9553 0.0341682 0)
(17.9596 0.0275516 -1.64352e-23)
(17.9679 0.0224724 0)
(17.9651 0.0241489 0)
(17.9705 0.0180965 3.79095e-24)
(17.9758 0.0188 0)
(18.0329 0.135605 -9.52105e-24)
(18.0887 0.126072 -4.67853e-23)
(18.1159 0.0899228 -2.99817e-23)
(18.1087 0.0347146 0)
(18.1182 0.067645 1.90017e-23)
(18.0723 0.007581 0)
(17.9819 0.145004 -2.56443e-23)
(17.9556 0.14475 -4.02568e-23)
(18.0063 0.154512 2.09323e-23)
(17.9411 0.128214 -3.90369e-24)
(17.9836 0.0185259 -3.42862e-25)
(17.9865 0.0181754 -5.71236e-24)
(17.9827 0.0182628 5.36125e-24)
(17.9874 0.021118 5.42869e-24)
(17.994 0.0201851 0)
(17.9916 0.0174654 3.82272e-24)
(17.9941 0.0166874 0)
(17.9276 0.0797021 0)
(17.9805 0.0181291 0)
(17.9792 0.0178483 -2.65585e-24)
(17.9333 0.107878 3.95868e-25)
(17.9229 0.0821408 0)
(17.9277 0.0650595 2.34385e-23)
(17.922 0.0972941 1.13041e-26)
(17.9343 0.0497936 -5.54045e-23)
(17.9435 0.0346003 0)
(17.9374 0.0424601 0)
(17.9476 0.0331624 0)
(17.9562 0.0295114 -1.32808e-23)
(17.9606 0.0236969 0)
(17.968 0.0194767 4.04266e-24)
(17.9636 0.0228855 1.62609e-24)
(17.9708 0.015461 1.68191e-24)
(17.9762 0.0159606 9.17772e-24)
(18.0496 0.13946 -1.07901e-23)
(18.02 0.15429 0)
(18.1002 0.141994 0)
(18.1495 0.11137 0)
(18.1256 0.050909 0)
(18.152 0.0953933 2.1857e-23)
(18.0721 -0.0143479 0)
(17.9746 0.157761 0)
(17.9595 0.156259 0)
(17.9443 0.141183 -5.6031e-24)
(17.9887 0.162866 4.69792e-23)
(17.9247 0.125462 -5.06782e-24)
(17.9849 0.0170105 -3.66127e-25)
(17.9859 0.0170841 -2.01089e-24)
(17.9881 0.0180501 -5.11648e-24)
(17.9828 0.0165146 5.72544e-24)
(17.9896 0.0209052 8.10753e-24)
(17.9941 0.0196633 0)
(17.9927 0.0227748 2.694e-24)
(17.9945 0.0158786 0)
(17.9392 0.0279181 -1.96655e-24)
(17.9818 0.0162635 0)
(17.9786 0.0155979 5.05578e-24)
(17.9251 0.111975 5.21791e-24)
(17.9167 0.0758298 -1.98049e-23)
(17.9203 0.0909706 0)
(17.9246 0.0636295 0)
(17.917 0.1076 1.00963e-23)
(17.9295 0.0509014 -5.17283e-23)
(17.9416 0.031154 1.87621e-23)
(17.9346 0.0363603 -4.15675e-23)
(17.9496 0.0287217 0)
(17.9536 0.0272964 0)
(17.9595 0.0208505 0)
(17.9667 0.0179061 2.97903e-24)
(17.9646 0.0192628 1.74735e-24)
(17.9699 0.0130294 1.6613e-24)
(17.9737 0.0142064 1.6536e-24)
(18.0426 0.156878 -3.38027e-23)
(18.0291 0.163087 0)
(18.14 0.129206 3.03651e-24)
(18.0639 0.158229 -2.25933e-23)
(18.1561 0.0326297 0)
(18.1809 0.10582 4.69306e-23)
(18.1101 -0.0285953 0)
(18.1168 0.0015286 0)
(17.9506 0.169987 2.15782e-23)
(17.9287 0.153168 -4.46091e-24)
(17.9842 0.180068 2.57013e-23)
(17.9138 0.132331 -2.40909e-23)
(17.985 0.015232 -1.47742e-23)
(17.9873 0.0153931 -4.57893e-24)
(17.9892 0.0172687 1.79068e-24)
(17.9842 0.0148193 -1.96872e-23)
(17.9896 0.0187895 8.08463e-24)
(17.9924 0.0193128 7.57744e-24)
(17.9937 0.0227183 -4.89561e-24)
(18.001 0.0292098 0)
(17.9713 0.00766335 0)
(17.9471 0.068136 -1.5139e-24)
(17.982 0.0142768 -8.39835e-24)
(17.9798 0.0138806 -7.19599e-24)
(17.9074 0.0818267 1.28587e-23)
(17.9186 0.0675319 -1.64087e-23)
(17.9096 0.0888997 0)
(17.9252 0.055769 -4.74503e-24)
(17.9079 0.108432 0)
(17.929 0.0446546 -3.74991e-23)
(17.9439 0.0252073 1.5746e-23)
(17.9374 0.030868 1.99275e-23)
(17.9312 0.0380562 -5.49724e-23)
(17.9471 0.0245432 1.64214e-23)
(17.954 0.02243 -1.38104e-24)
(17.9566 0.019761 -1.85701e-24)
(17.962 0.0175072 -3.87536e-26)
(17.9675 0.0145996 -1.14084e-24)
(17.9717 0.0103514 0)
(17.9745 0.0115932 1.11451e-23)
(18.0266 0.182898 0)
(18.1456 0.154737 5.89576e-24)
(18.0637 0.180642 -3.08329e-23)
(18.1949 0.0597381 3.289e-23)
(18.1974 0.128365 3.15024e-24)
(17.9809 -0.212639 0)
(18.1546 0.0173232 -6.57179e-23)
(17.9615 0.184906 0)
(17.9321 0.1686 -2.65998e-23)
(17.9124 0.148746 0)
(17.9998 0.191849 0)
(17.9045 0.123358 -2.42756e-23)
(17.9865 0.0140002 6.84529e-24)
(17.9885 0.0154269 -9.14227e-24)
(17.9899 0.0176333 0)
(17.9849 0.0131222 -4.7904e-24)
(17.9933 0.0187293 -3.09768e-24)
(17.9982 0.0236285 0)
(17.9981 0.0221494 0)
(17.9835 0.0274724 6.1129e-24)
(17.9412 0.0371167 -4.0004e-24)
(17.9834 0.0124953 -5.65547e-24)
(17.9792 0.01197 -6.69807e-24)
(17.9044 0.0764994 4.63808e-23)
(17.9138 0.061458 -7.07408e-24)
(17.903 0.0999603 -3.93075e-23)
(17.9174 0.0544647 -7.65854e-24)
(17.9222 0.0424475 -2.22518e-23)
(17.9416 0.0215226 1.40458e-23)
(17.937 0.0257807 1.1095e-24)
(17.9273 0.0333029 1.15476e-23)
(17.9499 0.0209006 0)
(17.9565 0.0156793 -2.6375e-25)
(17.9623 0.0149692 -9.44363e-24)
(17.9656 0.0127231 0)
(17.9739 0.0100357 4.92846e-24)
(17.9712 0.00812393 -1.2468e-23)
(17.9767 0.0106389 -9.38034e-25)
(18.049 0.19223 0)
(18.181 0.153041 8.83459e-24)
(18.0909 0.184464 -3.13601e-23)
(18.2423 0.0612906 3.08918e-23)
(18.2295 0.146131 6.51609e-23)
(18.081 -0.107208 -1.05598e-22)
(18.2339 0.043444 3.14776e-23)
(17.9545 0.20424 -2.36895e-23)
(17.9236 0.185143 -4.8789e-23)
(17.9019 0.156428 0)
(17.9916 0.21903 0)
(17.8944 0.126445 -1.20132e-23)
(17.9869 0.0128231 -1.20832e-23)
(17.9898 0.0144329 -5.9541e-24)
(17.9911 0.0169289 -1.85066e-24)
(17.9863 0.0117524 -1.18777e-23)
(17.9939 0.0177194 4.2022e-24)
(17.9991 0.0176867 6.3205e-24)
(18.0051 0.0188625 -4.41695e-26)
(17.9844 0.0221357 1.22068e-23)
(17.9469 0.0447998 -3.16112e-24)
(17.9831 0.0105088 6.85673e-24)
(17.9809 0.00998043 1.34191e-23)
(17.898 0.0858038 9.45976e-23)
(17.9071 0.0659822 2.21236e-24)
(17.8966 0.0981786 -3.92724e-23)
(17.9159 0.0486743 2.88248e-24)
(17.9206 0.0365074 -5.16128e-24)
(17.9433 0.0175642 1.75094e-23)
(17.934 0.022511 -7.33256e-24)
(17.9287 0.0260814 -1.45286e-23)
(17.9504 0.0170745 -3.1197e-24)
(17.9541 0.0138598 -3.09005e-24)
(17.9599 0.0132517 -7.91412e-24)
(17.9667 0.00933556 0)
(17.9754 0.00727194 4.43877e-24)
(17.9743 0.00577387 8.27653e-24)
(17.9694 0.0071766 -1.48252e-23)
(17.9768 0.00790227 4.47512e-24)
(18.0468 0.220472 0)
(18.193 0.192985 8.43854e-24)
(18.0921 0.215753 2.89087e-23)
(18.2615 0.109375 4.05389e-23)
(18.229 0.182733 -1.72805e-23)
(18.1792 -0.123314 5.1331e-23)
(18.2671 0.0179091 -1.7374e-23)
(17.9666 0.225025 -9.86089e-24)
(17.9348 0.205462 -2.0173e-23)
(17.9061 0.186919 2.42554e-23)
(17.8998 0.17179 0)
(17.8899 0.143767 -1.16842e-23)
(18.011 0.233361 0)
(17.8904 0.113413 -8.9852e-23)
(17.9884 0.0118258 -1.04602e-23)
(17.9916 0.0153452 -1.00061e-23)
(17.9894 0.0130326 0)
(17.9927 0.0164296 4.25822e-24)
(17.9868 0.00962901 -1.07832e-23)
(17.9956 0.016285 0)
(17.9964 0.0165355 6.76047e-24)
(18.0044 0.0158304 -7.12822e-26)
(18.0073 0.0136754 0)
(17.9475 0.0270316 -1.59507e-23)
(17.9845 0.00881215 -1.06857e-23)
(17.9792 0.00750724 6.49394e-25)
(17.8875 0.0836001 6.1026e-23)
(17.8994 0.0601692 2.22231e-24)
(17.9092 0.0454898 2.29067e-23)
(17.9147 0.0327678 -2.30477e-23)
(17.9397 0.0124446 0)
(17.9475 0.0151412 1.67776e-24)
(17.9352 0.0144793 -7.61416e-24)
(17.9223 0.0212731 4.71869e-24)
(17.955 0.00982356 0)
(17.9608 0.00952631 -5.24368e-24)
(17.9642 0.0073511 2.49766e-24)
(17.9774 0.00615618 6.02157e-24)
(17.9757 0.00320419 4.30032e-24)
(17.9703 0.0037692 4.57177e-25)
(18.0741 0.231409 5.91251e-23)
(18.1305 0.219273 0)
(18.3054 0.131927 0)
(18.2603 0.211782 -8.34501e-23)
(18.2023 0.058089 -5.37019e-23)
(18.3287 0.0666769 0)
(17.9558 0.245994 -5.33136e-23)
(17.9253 0.220484 -1.32854e-24)
(17.893 0.203479 4.74123e-23)
(17.886 0.177078 -6.46717e-24)
(17.88 0.151707 0)
(18.0097 0.266095 0)
(17.8774 0.114316 -9.2058e-23)
(17.9896 0.00984317 -3.14399e-25)
(17.9891 0.0120812 -1.0335e-23)
(17.9923 0.0136705 -5.07188e-24)
(17.9918 0.012548 -1.94235e-24)
(17.9937 0.0141794 0)
(17.9883 0.00851389 0)
(17.996 0.0140424 8.32406e-24)
(17.9986 0.0148829 1.79518e-24)
(18.0015 0.0147512 -5.08251e-24)
(18.0039 0.00912604 2.26277e-23)
(17.9484 0.0404998 -1.14411e-23)
(18.0016 0.00434187 6.32652e-24)
(17.9833 0.00678062 0)
(17.9809 0.00614971 -1.53606e-24)
(17.8771 0.0878115 0)
(17.8845 0.0710466 -2.63507e-23)
(17.8895 0.062689 -2.61975e-23)
(17.9022 0.0488316 2.97574e-23)
(17.909 0.0363994 -1.33323e-23)
(17.9152 0.0252364 1.60911e-23)
(17.942 0.00795772 6.86787e-25)
(17.9477 0.00968835 8.5345e-25)
(17.9291 0.0109873 -1.02698e-23)
(17.9228 0.013762 8.93191e-24)
(17.9507 0.0071903 3.39968e-24)
(17.9583 0.00744513 -9.08301e-24)
(17.9647 0.0037301 7.10954e-24)
(17.9803 0.00365269 1.85443e-24)
(17.9729 0.00190388 0)
(17.9776 0.00110072 1.40772e-23)
(17.9676 0.00215698 0)
(18.0751 0.264745 3.05416e-23)
(18.1391 0.256992 0)
(18.3073 0.18737 -6.9792e-23)
(18.3379 0.108225 0)
(18.2312 0.255792 0)
(18.2279 0.0795156 -1.20349e-22)
(18.4298 -0.490068 0)
(18.383 0.0140329 -2.24996e-23)
(17.9599 0.272631 5.27538e-23)
(17.9322 0.246333 -5.68081e-23)
(17.8955 0.218984 0)
(17.8819 0.198782 1.63629e-23)
(17.8779 0.169757 0)
(17.8678 0.145005 0)
(17.9895 0.282641 3.78712e-23)
(18.0398 0.282861 -3.61616e-23)
(17.8684 0.128519 -4.49843e-24)
(17.8715 0.102904 4.90072e-23)
(17.991 0.00905309 -3.01404e-25)
(17.991 0.010108 0)
(17.9932 0.0130332 0)
(17.9929 0.0106615 0)
(17.995 0.0136757 1.42621e-23)
(17.9887 0.00677452 4.88977e-24)
(17.9965 0.0125964 4.08756e-25)
(17.9981 0.011851 6.29356e-24)
(18.0027 0.0122998 9.53158e-24)
(18.0031 0.0132664 2.40805e-23)
(17.9584 0.0179603 -9.67536e-24)
(18.0086 0.00368359 -5.99129e-24)
(17.985 0.0048839 0)
(17.9815 0.00405695 3.77963e-24)
(17.8585 0.0756282 0)
(17.8642 0.0675782 -8.78234e-24)
(17.8825 0.0524674 2.38895e-23)
(17.8962 0.0413345 -5.02663e-23)
(17.9002 0.0327794 7.95413e-24)
(17.9068 0.0197329 1.58452e-23)
(17.9401 0.00370968 1.89512e-23)
(17.9281 0.00448862 0)
(17.9149 0.0100866 1.16867e-23)
(17.95 0.00270883 -3.17276e-24)
(17.959 0.00350249 0)
(17.9618 0.00186407 7.10121e-24)
(17.9798 0.00164304 6.80497e-24)
(17.9821 0.00309283 3.90243e-24)
(17.9717 -0.000846347 -2.90199e-24)
(17.9759 -0.00155445 -5.35843e-24)
(17.9674 -0.000403849 0)
(18.1073 0.283581 0)
(18.1705 0.279277 -4.28934e-23)
(18.3471 0.212172 6.87503e-23)
(18.3852 0.148662 4.54841e-23)
(18.2682 0.283082 -4.71595e-23)
(18.2365 0.203968 3.97781e-23)
(18.6444 -0.143179 0)
(18.4441 0.0830083 3.69164e-23)
(17.937 0.297978 0)
(17.9136 0.255943 2.00475e-23)
(17.8864 0.239591 9.01624e-23)
(17.8701 0.203095 0)
(17.8624 0.171239 8.78369e-24)
(17.8547 0.158953 7.94821e-24)
(17.985 0.309711 -1.55719e-23)
(18.0384 0.31431 -1.94623e-23)
(17.8481 0.12676 0)
(17.853 0.0994526 5.01017e-23)
(17.9919 0.00758302 0)
(17.9925 0.00946372 0)
(17.994 0.0117015 0)
(17.9943 0.0103183 0)
(17.995 0.0117161 6.03e-24)
(17.9868 0.00515259 4.92269e-24)
(17.9906 0.00639708 0)
(17.9964 0.0114014 0)
(18.0003 0.0103437 -4.62194e-24)
(18.0027 0.00934019 -9.38244e-24)
(17.9631 0.0367567 3.39359e-23)
(18.0012 -0.000694298 3.82007e-25)
(17.9849 0.0026979 0)
(17.9842 0.0024354 -1.21877e-25)
(17.846 0.0826031 -7.6397e-23)
(17.861 0.0600505 1.48198e-23)
(17.8871 0.0410951 -3.73231e-23)
(17.8734 0.0512006 2.04434e-23)
(17.8991 0.025534 -4.70196e-24)
(17.9072 0.0124493 1.17924e-23)
(17.9436 -0.00029233 -3.68608e-24)
(17.9334 0.00108099 2.8289e-23)
(17.9201 -4.05912e-05 -1.18277e-23)
(17.9134 0.00310799 0)
(17.9535 0.000732366 -3.13e-24)
(17.9614 -0.00165477 -3.93774e-24)
(17.9808 -0.00105927 -3.18492e-24)
(17.9848 0.000734507 -1.32186e-24)
(17.9691 -0.0016842 0)
(17.9731 -0.00223322 -1.02918e-23)
(17.9777 -0.00281636 1.45035e-24)
(17.9641 -0.00277619 8.23379e-24)
(18.1069 0.319454 8.58067e-24)
(18.1694 0.332504 -1.10473e-22)
(18.3948 0.192723 1.04324e-22)
(18.3288 0.261618 0)
(18.2569 0.332943 -1.31522e-22)
(18.2852 0.183884 0)
(18.721 -0.440717 -2.61454e-22)
(18.4709 0.0638094 1.15902e-23)
(17.9147 0.297721 -4.2838e-23)
(17.9496 0.317105 0)
(17.9062 0.278159 -2.02294e-23)
(17.8694 0.247491 7.30991e-23)
(17.8603 0.217886 -9.78568e-25)
(17.8561 0.186877 0)
(17.8404 0.156829 -5.41711e-24)
(18.0062 0.326931 0)
(18.0667 0.335461 1.79862e-23)
(17.8371 0.141547 0)
(17.8419 0.111887 0)
(17.9931 0.00703569 0)
(17.9936 0.00766138 0)
(17.9955 0.00882267 -5.8027e-24)
(17.9959 0.0107442 1.21377e-23)
(17.9879 0.00315088 5.21141e-25)
(17.9909 0.00502823 0)
(17.9973 0.0100417 -7.39306e-24)
(17.9994 0.00842867 0)
(18.0016 0.00643142 -1.20922e-23)
(17.9731 0.016464 2.1159e-24)
(18.0094 0.00268106 0)
(17.9872 0.00122675 0)
(17.986 0.000663178 -1.42084e-24)
(17.8319 0.0748117 -8.89462e-23)
(17.8565 0.0529313 8.4347e-23)
(17.8771 0.0328034 7.5451e-23)
(17.8624 0.0410019 -1.51591e-23)
(17.8889 0.0213567 -8.12794e-24)
(17.8977 0.00729161 0)
(17.9398 -0.00554131 1.70902e-24)
(17.931 -0.00429553 1.41827e-23)
(17.9187 -0.00662108 -1.17676e-23)
(17.9047 -0.0029754 0)
(17.9511 -0.00348304 0)
(17.9555 -0.00520829 -1.22725e-23)
(17.9826 -0.0013013 0)
(17.9667 -0.00465176 -3.03919e-25)
(17.9715 -0.00457073 4.01362e-24)
(17.9763 -0.00487936 2.2451e-24)
(17.9634 -0.00505732 1.44674e-23)
(18.1385 0.350203 -7.58111e-23)
(18.1999 0.358498 -1.10906e-22)
(18.4257 0.208931 1.30653e-23)
(18.3747 0.286894 0)
(18.297 0.362304 0)
(18.2474 0.0801171 -1.42785e-22)
(18.9254 -0.109626 -7.87027e-23)
(18.5592 0.129478 6.38772e-23)
(17.9033 0.327965 -2.86948e-23)
(17.9423 0.344363 0)
(17.8734 0.275188 3.12808e-24)
(17.8602 0.239725 0)
(17.8319 0.209669 -1.30833e-23)
(17.8354 0.188615 1.60893e-25)
(17.8299 0.175724 7.33461e-23)
(17.9949 0.358318 1.75349e-23)
(18.057 0.36903 2.16482e-23)
(17.8178 0.137739 0)
(17.8185 0.103157 0)
(17.9938 0.00548319 6.71376e-24)
(17.995 0.00671924 1.07899e-23)
(17.9961 0.00741955 9.0199e-24)
(17.9964 0.00865837 -3.97205e-24)
(17.9965 0.00901306 1.23718e-23)
(17.9897 0.00342787 -3.45663e-24)
(17.9884 0.00154472 -1.34083e-25)
(17.9927 0.00483649 5.64696e-25)
(17.9978 0.00800869 -7.32356e-24)
(17.9979 0.00928242 4.34608e-24)
(17.9997 0.00605988 0)
(18.0027 0.00590994 0)
(17.9816 0.035436 0)
(18.0022 -0.00749371 -1.06758e-24)
(18.0032 -0.00251284 0)
(17.9888 -0.000375981 7.20398e-25)
(17.9876 -0.00071946 6.23201e-25)
(17.8329 0.0591967 0)
(17.8133 0.0861904 -1.23268e-23)
(17.8445 0.0505356 7.85679e-23)
(17.8792 0.0244746 3.1308e-23)
(17.865 0.0367828 1.92855e-23)
(17.8851 0.0117974 -3.40275e-23)
(17.8976 -0.00104254 0)
(17.8894 0.00672832 -2.66168e-23)
(17.944 -0.00772818 2.09685e-23)
(17.9353 -0.00733451 7.29259e-24)
(17.9253 -0.00847234 0)
(17.9124 -0.0128278 0)
(17.9048 -0.0114033 0)
(17.9538 -0.00835405 -7.57296e-24)
(17.983 -0.00310289 5.45897e-25)
(17.9683 -0.00610707 -4.0944e-24)
(17.9734 -0.00601854 -2.10306e-24)
(17.9781 -0.00632653 5.37709e-24)
(17.9589 -0.00853652 2.633e-24)
(18.1363 0.382842 4.9335e-23)
(18.2086 0.407457 -5.2216e-23)
(18.494 0.177397 0)
(18.4207 0.262285 8.71928e-24)
(18.3668 0.335983 -1.78994e-23)
(18.2945 0.404675 0)
(18.3515 0.0487993 1.28019e-24)
(18.5209 0.0503312 7.61018e-23)
(18.9764 -0.632058 0)
(17.876 0.335569 0)
(17.9192 0.349081 0)
(17.9604 0.366591 0)
(17.8609 0.288834 0)
(17.8419 0.254304 0)
(17.8141 0.22149 7.39624e-24)
(17.8133 0.173587 7.22004e-23)
(18.0168 0.379737 3.93428e-23)
(18.0812 0.39215 4.48952e-23)
(17.8075 0.153546 -5.53262e-23)
(17.8056 0.117612 1.28598e-22)
(17.9948 0.00507522 0)
(17.9971 0.00626506 -7.55664e-24)
(17.9974 0.00680164 -7.52276e-24)
(17.9976 0.0078745 0)
(17.9908 0.00225334 0)
(17.9908 0.000121913 -3.7184e-24)
(17.9928 0.00322986 -6.54614e-24)
(17.9982 0.00664428 0)
(17.9982 0.00628826 4.22661e-24)
(17.999 0.00595736 4.26304e-24)
(17.9996 0.00438928 -8.80899e-24)
(18.0008 -0.00313382 0)
(18.0017 -0.000417305 0)
(18.0004 0.00593796 2.20934e-24)
(17.9902 -0.00154908 -2.29553e-25)
(17.9856 -0.00263577 -4.0417e-26)
(17.8151 0.0505358 4.15892e-25)
(17.7952 0.0740822 0)
(17.8375 0.0374479 7.14042e-23)
(17.8683 0.0149016 -3.47092e-23)
(17.8544 0.0271616 0)
(17.8725 0.00738981 -2.98889e-23)
(17.8896 -0.00682238 1.62422e-23)
(17.8837 -0.00275848 4.22544e-23)
(17.9438 -0.0117053 1.97518e-23)
(17.9327 -0.0119598 -2.54831e-23)
(17.9263 -0.012727 0)
(17.9151 -0.0186136 -8.49369e-24)
(17.9005 -0.0164603 -3.07656e-24)
(17.9495 -0.0117158 -2.79935e-24)
(17.9807 -0.00508507 -3.35396e-25)
(17.9676 -0.00892621 4.12779e-24)
(17.9731 -0.00768631 2.29983e-24)
(17.9759 -0.00839924 5.79486e-24)
(17.9578 -0.0126787 0)
(18.1454 0.42018 7.96933e-23)
(18.181 0.431799 4.41716e-23)
(18.2428 0.426603 1.45356e-23)
(18.5196 0.207616 8.36925e-23)
(18.4744 0.266356 -7.30297e-24)
(18.4032 0.366769 -3.10869e-23)
(18.3272 0.439307 1.01857e-23)
(18.4274 0.193757 0)
(18.6457 0.124177 -3.37527e-23)
(19.0396 -0.455393 -2.4626e-25)
(17.8656 0.364085 2.53654e-23)
(17.8583 0.31657 0)
(17.9135 0.383474 1.3609e-23)
(17.9534 0.392662 -8.29682e-24)
(17.8423 0.279017 0)
(17.8124 0.243532 0)
(17.8006 0.214429 7.54246e-24)
(17.8015 0.188385 3.63139e-23)
(18.0038 0.414516 2.39432e-23)
(18.0644 0.426817 0)
(17.7901 0.150711 -6.9765e-23)
(17.7865 0.117349 1.2348e-22)
(17.9953 0.00423836 0)
(17.9979 0.00518955 -7.45663e-24)
(17.9981 0.00602543 0)
(17.9981 0.0063553 0)
(17.9915 0.00119263 0)
(17.9913 -0.00117976 5.21821e-24)
(17.9919 0.000456678 0)
(17.994 0.00281557 -3.5696e-25)
(17.9985 0.005445 2.8806e-24)
(17.9984 0.00540247 4.38251e-24)
(17.9996 0.00491384 -4.43772e-24)
(18.0013 0.00390248 -3.25226e-24)
(17.9999 0.00166577 -6.46782e-24)
(17.9882 -0.00321963 3.01862e-24)
(17.9859 -0.00404377 0)
(17.8123 0.0353639 3.69929e-23)
(17.7988 0.0560537 -5.18681e-23)
(17.7807 0.0856364 0)
(17.8241 0.0305227 6.07652e-23)
(17.844 0.0281853 3.33616e-23)
(17.857 0.0151844 4.97606e-24)
(17.8706 0.00176381 0)
(17.8914 -0.0131195 5.43161e-24)
(17.877 -0.0042735 4.18664e-23)
(17.9437 -0.0138371 -1.59359e-23)
(17.9347 -0.0168593 -2.46513e-23)
(17.9227 -0.0177098 -8.98146e-24)
(17.915 -0.0255214 7.49461e-25)
(17.9026 -0.0245363 1.65229e-23)
(17.9504 -0.015303 0)
(17.9815 -0.00650925 0)
(17.9701 -0.0101083 -9.34575e-24)
(17.9624 -0.0131485 3.28949e-24)
(17.9742 -0.00876201 8.98193e-25)
(17.976 -0.00966091 5.55774e-24)
(17.9547 -0.0156921 0)
(18.0965 0.447213 0)
(18.1798 0.4873 0)
(18.2507 0.473992 1.25686e-23)
(18.5988 0.213543 5.3505e-23)
(18.5053 0.324999 -1.03437e-22)
(18.3728 0.429292 -1.81004e-23)
(18.466 0.368714 -8.07157e-23)
(18.299 0.475664 1.0698e-23)
(18.411 0.0482589 0)
(18.6589 0.0474007 0)
(19.1825 0.136317 -5.37925e-25)
(17.8826 0.389507 -3.06248e-23)
(17.8367 0.370581 2.53616e-23)
(17.8322 0.324638 0)
(17.9283 0.402131 2.43828e-23)
(17.9698 0.419907 -2.61521e-23)
(17.8215 0.28472 4.92397e-24)
(17.7996 0.26321 4.61922e-23)
(17.7787 0.218883 2.25816e-23)
(17.7753 0.178908 5.28222e-23)
(18.0252 0.43701 0)
(17.7735 0.162805 0)
(17.7786 0.131856 -5.98709e-24)
(17.7791 0.106522 3.19437e-23)
(17.9965 0.00419833 -1.16409e-23)
(17.9986 0.00457774 -8.25866e-24)
(17.9988 0.00461341 0)
(17.9987 0.00533203 0)
(17.9934 0.000330379 -1.68181e-24)
(17.9917 -0.002291 1.58273e-24)
(17.9936 -0.0012073 1.99401e-24)
(17.9943 0.00193153 3.92103e-24)
(17.9988 0.00412684 2.89541e-24)
(17.9984 0.00414399 -4.32313e-24)
(17.9999 0.00379071 3.7085e-24)
(18.0004 0.00114123 0)
(18.0001 -0.000309041 -7.75317e-24)
(17.989 -0.00389115 3.32878e-24)
(17.9842 -0.00545154 0)
(17.797 0.0243485 7.54011e-24)
(17.784 0.0461853 -3.90589e-23)
(17.7571 0.0763427 3.11225e-24)
(17.8211 0.0183968 0)
(17.8337 0.0164533 -5.69808e-23)
(17.8486 0.00517155 4.75533e-24)
(17.8629 -0.00339022 -1.04282e-23)
(17.888 -0.0203914 -6.5709e-24)
(17.8726 -0.013601 -5.18418e-23)
(17.9403 -0.0182732 -2.81166e-23)
(17.9483 -0.0179712 0)
(17.9321 -0.0221504 -1.16135e-24)
(17.9258 -0.0224023 -5.28147e-24)
(17.9089 -0.0289678 0)
(17.9221 -0.029441 -4.4092e-24)
(17.8944 -0.0283678 1.71154e-23)
(17.98 -0.00826514 8.93623e-24)
(17.9694 -0.0116285 -1.23222e-23)
(17.9628 -0.0161086 4.10429e-24)
(17.9726 -0.0109253 -3.73449e-24)
(17.9776 -0.0098853 5.81833e-25)
(17.9739 -0.0118414 -9.05794e-24)
(17.9572 -0.0204072 0)
(18.0912 0.488286 0)
(18.2224 0.500595 1.2474e-23)
(18.1279 0.512991 0)
(18.625 0.280642 -5.13481e-23)
(18.5814 0.32587 -9.1981e-23)
(18.4025 0.454385 0)
(18.47 0.413184 0)
(18.3206 0.520998 7.00888e-24)
(18.4559 0.34723 0)
(18.8027 0.164277 -1.23253e-22)
(19.4879 -0.433984 0)
(17.8718 0.415688 -1.71386e-23)
(17.8213 0.350581 -2.65148e-23)
(17.8254 0.398876 5.23444e-23)
(17.8161 0.30799 5.29906e-24)
(17.9292 0.4354 2.25197e-23)
(17.9572 0.443911 -1.9219e-23)
(17.7851 0.271542 3.71886e-23)
(17.7689 0.237454 7.04119e-23)
(17.7594 0.197327 6.05545e-23)
(18.0219 0.470378 0)
(17.7538 0.150871 -3.92057e-23)
(17.7585 0.130367 4.47929e-24)
(17.7619 0.107276 3.39878e-23)
(17.9968 0.00320867 1.05973e-25)
(17.9986 0.00359134 -8.27005e-24)
(17.9993 0.00384427 0)
(17.9992 0.0039682 -2.50252e-24)
(17.9942 0.000797597 3.93917e-24)