/*--------------------------------*- C++ -*----------------------------------*\
| =========                 |                                                 |
| \\      /  F ield         | OpenFOAM: The Open Source CFD Toolbox           |
|  \\    /   O peration     | Version:  v2012                                 |
|   \\  /    A nd           | Website:  www.openfoam.com                      |
|    \\/     M anipulation  |                                                 |
\*---------------------------------------------------------------------------*/
FoamFile
{
    version     2.0;
    format      ascii;
    class       surfaceVectorField;
    location    "5";
    object      Uf;
}
// * * * * * * * * * * * * * * * * * * * * * * * * * * * * * * * * * * * * * //

dimensions      [0 1 -1 0 0 0 0];


internalField   nonuniform List<vector> 
43406
(
(17.9021 0.0664224 2.07237e-20)
(17.8588 0.0484218 1.05695e-23)
(17.9429 0.0600121 1.09542e-23)
(17.9158 0.0665318 -2.51304e-21)
(17.8645 0.0360596 1.30349e-20)
(17.8978 0.0378523 -1.74159e-22)
(17.9606 0.0425534 1.47339e-24)
(17.9804 0.0532546 0)
(17.8877 0.0737664 5.17536e-20)
(17.9346 0.0520178 -3.91073e-24)
(17.8406 0.0391867 -1.34321e-23)
(17.9618 0.0412785 1.11879e-23)
(17.9942 0.0569964 0)
(18.0089 0.0494941 0)
(17.9159 0.0910975 2.65419e-20)
(17.973 0.0534271 -1.84035e-24)
(17.9579 0.0541199 -4.80855e-23)
(17.882 0.0355025 -4.43895e-24)
(17.8427 0.0374581 1.25644e-20)
(17.9481 0.0382113 -4.12253e-21)
(18.001 0.0429996 -4.50396e-22)
(18.0096 0.055061 6.0033e-24)
(18.0118 0.0439675 -1.92394e-24)
(18.0148 0.0430916 1.30912e-24)
(17.8805 0.0803853 3.79044e-20)
(17.9243 0.0527578 -9.78638e-24)
(17.9627 0.0546462 -6.58515e-21)
(17.9855 0.0618776 5.84619e-24)
(17.946 0.0314213 1.64572e-21)
(17.818 0.0384397 -6.99266e-24)
(18.0195 0.0408463 2.68798e-21)
(18.0188 0.0401502 9.45124e-24)
(18.0101 0.0591257 1.76553e-21)
(18.0165 0.0568942 -7.85539e-23)
(18.0046 0.0487087 -4.59341e-22)
(17.9934 0.0477254 -1.58377e-24)
(18.0074 0.0432886 7.21338e-22)
(17.9183 0.0785751 9.38854e-24)
(17.9657 0.0496185 6.97043e-21)
(18.0081 0.066446 1.27405e-21)
(17.9883 0.0354255 -6.23361e-24)
(17.9395 0.0286845 -1.35509e-21)
(17.8669 0.0327135 -8.96447e-23)
(17.8312 0.0436934 1.52158e-20)
(18.0179 0.0380576 0)
(18.0124 0.0394626 0)
(18.0096 0.0542359 -6.36333e-24)
(18.0084 0.0598998 1.72466e-21)
(17.9952 0.0557352 7.05141e-24)
(17.9844 0.0511403 0)
(17.9876 0.0471172 6.17488e-24)
(18.0036 0.0409041 -5.10503e-24)
(17.9954 0.0434771 3.3032e-25)
(17.9332 0.0596136 1.62649e-21)
(17.8959 0.0668694 -3.60189e-24)
(18.0049 0.0653456 -8.57813e-24)
(17.9925 0.0550258 -2.09565e-22)
(18.0151 0.0656768 -2.57944e-24)
(18.0169 0.0347877 0)
(17.9435 0.0338847 -2.99171e-21)
(17.8083 0.0445595 7.4062e-25)
(18.0033 0.0385521 0)
(18.0101 0.0646514 -4.1565e-24)
(17.9992 0.0637783 5.90885e-24)
(17.9833 0.0555101 2.16166e-21)
(17.9868 0.0595542 1.74189e-23)
(17.9823 0.0526524 9.9562e-24)
(17.9822 0.0489707 0)
(17.9885 0.0445726 -3.19289e-22)
(17.9849 0.0445201 5.37914e-24)
(17.9872 0.0415948 5.22597e-24)
(17.9803 0.0561223 -5.87514e-25)
(17.9619 0.0539234 9.21117e-25)
(17.9363 0.0578754 -1.25751e-23)
(18.0071 0.0604395 7.67127e-24)
(18.0112 0.067671 0)
(18.0164 0.0325144 0)
(18.0136 0.0338983 0)
(17.9859 0.0336637 -2.33662e-24)
(17.9434 0.0367771 2.98453e-21)
(17.8804 0.0364091 -1.01532e-24)
(17.8319 0.0442378 0)
(18.0025 0.0364545 0)
(17.9939 0.0376136 -2.39442e-24)
(17.9881 0.0635878 4.86661e-22)
(17.9906 0.0678762 1.20588e-23)
(17.9795 0.0549448 -6.64746e-23)
(17.9825 0.0626204 1.46871e-23)
(17.9818 0.0452161 0)
(17.9804 0.0469425 -1.23535e-23)
(17.9819 0.0431168 -6.59224e-24)
(17.986 0.0388407 -2.22482e-24)
(17.9835 0.0405447 -6.57036e-24)
(17.9894 0.061108 7.03752e-24)
(17.9671 0.0538182 0)
(17.9434 0.0549483 -1.1711e-23)
(17.9334 0.0552949 -1.39588e-20)
(18.0116 0.0644208 7.56543e-22)
(18.0165 0.0644547 -1.18487e-23)
(18.0133 0.0675539 2.33613e-24)
(18.0032 0.0692835 0)
(18.0172 0.0309048 -4.78221e-24)
(18.0013 0.0333148 0)
(17.9708 0.0333521 -8.78392e-24)
(17.8131 0.0405762 9.87377e-25)
(17.9854 0.0365033 -1.33914e-22)
(17.9922 0.0707142 0)
(17.9861 0.0712134 0)
(17.9777 0.0573657 8.64127e-23)
(17.9778 0.053241 -7.11247e-24)
(17.979 0.0614959 5.81478e-25)
(17.9798 0.065683 1.52467e-23)
(17.9783 0.0498638 -6.6379e-23)
(17.9778 0.0458556 -1.11173e-21)
(17.9811 0.0406758 2.3189e-23)
(18.0137 0.0667763 1.32562e-23)
(17.9643 0.0531456 -1.64191e-24)
(17.9662 0.0458106 -4.81051e-24)
(18.0176 0.0698717 2.09013e-24)
(17.996 0.0743844 0)
(18.0138 0.025808 -3.01779e-21)
(18.0154 0.0297767 1.09015e-24)
(17.9924 0.0332022 3.97203e-24)
(18.0003 0.0313772 7.66301e-24)
(17.9981 0.0218767 -1.1799e-21)
(17.8972 0.0264524 -4.75855e-22)
(17.8179 0.0382435 9.67786e-21)
(17.9853 0.0340868 1.99162e-22)
(17.9825 0.035402 -1.13285e-23)
(17.9815 0.0695449 1.22341e-23)
(17.9821 0.0733755 5.1699e-24)
(17.9745 0.0603003 -5.23033e-24)
(17.9746 0.0518766 -5.90422e-24)
(17.9758 0.0686908 1.06832e-23)
(17.9751 0.045877 -8.48952e-24)
(17.9779 0.043796 -2.2751e-23)
(17.981 0.0370566 -9.87211e-24)
(17.979 0.0393426 9.61985e-23)
(18.0232 0.0664188 6.15128e-24)
(18.0134 0.0650292 8.58022e-22)
(17.9894 0.0598696 1.28214e-22)
(17.9708 0.0510921 3.22819e-25)
(17.9656 0.0449602 -7.04364e-23)
(17.9635 0.0493426 1.43837e-24)
(18.0237 0.0710846 0)
(18.0143 0.0747602 0)
(18.0029 0.0788081 0)
(17.9938 0.082249 0)
(18.0054 0.0303525 -1.59951e-22)
(18.0088 0.0286863 6.4802e-23)
(17.9848 0.0318068 4.02362e-24)
(17.9941 0.029449 8.62467e-23)
(17.9892 0.0180387 2.23058e-21)
(18.0046 0.0245118 3.57388e-24)
(17.987 0.0176688 2.95373e-24)
(17.7995 0.0343303 5.05171e-24)
(17.9811 0.0339225 7.88044e-25)
(17.9809 0.0781769 7.6765e-23)
(17.9757 0.0752442 -3.41577e-22)
(17.971 0.0635207 0)
(17.9703 0.0591481 -9.559e-24)
(17.9709 0.0525806 -7.15249e-25)
(17.9719 0.0495009 3.7995e-22)
(17.971 0.0723489 -5.60836e-23)
(17.9706 0.0678713 6.0853e-24)
(17.9725 0.0458651 1.1496e-24)
(17.9729 0.0435788 -3.3932e-24)
(17.9772 0.0409559 4.97262e-22)
(17.9755 0.0416547 -3.59287e-22)
(17.9775 0.0364967 -1.45778e-23)
(18.0289 0.0715412 -1.61577e-23)
(18.0166 0.0655159 -1.17608e-22)
(17.9832 0.0514035 1.16642e-24)
(17.9961 0.0591309 0)
(18.0092 0.0816693 0)
(17.9861 0.082182 5.90984e-25)
(17.99 0.0863568 -1.02918e-23)
(18.0078 0.026042 -1.43876e-21)
(17.9991 0.0271256 -5.91036e-24)
(17.9852 0.0294219 2.33165e-24)
(17.9821 0.0305151 -1.1287e-24)
(17.9886 0.0280553 2.48504e-24)
(18.0063 0.0236927 -7.59361e-24)
(17.9732 0.0140331 1.50802e-21)
(18.0072 0.0227233 -1.44113e-21)
(17.8809 0.0177193 -2.00204e-22)
(17.8153 0.0320708 1.32567e-26)
(17.9816 0.0316355 -1.28285e-24)
(17.9802 0.0326064 0)
(17.9765 0.0840446 -3.7644e-25)
(17.97 0.0764328 5.73862e-24)
(17.9667 0.0665024 0)
(17.9689 0.0553972 -9.26232e-24)
(17.9657 0.0588343 -2.50663e-22)
(17.968 0.0519496 -8.9183e-24)
(17.9697 0.0467433 9.43362e-23)
(17.9735 0.0411538 1.97724e-24)
(17.9784 0.0332185 0)
(17.9765 0.0341261 -1.16237e-23)
(18.0306 0.0791544 -3.29082e-22)
(18.0366 0.0750166 3.02134e-21)
(18.0139 0.0632828 2.39058e-26)
(18.0306 0.0682378 -1.722e-23)
(18.005 0.0556627 2.82605e-22)
(17.9991 0.0573791 -9.03285e-24)
(17.9957 0.0545473 0)
(18.0181 0.0827179 6.00067e-24)
(18.0057 0.0872637 0)
(17.9881 0.0906145 -1.08588e-23)
(17.9791 0.0902986 3.87396e-22)
(17.9881 0.0268373 6.4365e-25)
(17.9816 0.0297147 -1.62541e-22)
(18.0134 0.0218611 3.31622e-24)
(17.9971 0.0220892 5.67259e-24)
(17.974 0.0117165 -9.31822e-26)
(18.0133 0.0212786 3.38711e-24)
(17.7976 0.0362934 0)
(17.9793 0.0303598 -9.00657e-24)
(17.974 0.0878569 -1.85616e-22)
(17.9716 0.0837218 -3.50183e-25)
(17.9687 0.0819426 1.52201e-22)
(17.9653 0.078535 -1.24466e-23)
(17.9628 0.0626798 -1.04102e-23)
(17.9625 0.067446 0)
(17.9617 0.0590157 -2.06225e-23)
(17.9673 0.0487108 -4.04174e-24)
(17.9648 0.0506038 -1.70406e-22)
(17.9679 0.0454217 1.85451e-22)
(17.9737 0.0376546 -4.87967e-24)
(17.9712 0.0402805 -4.46958e-22)
(17.9744 0.0347085 -1.23361e-22)
(17.9755 0.0316561 -1.62945e-23)
(18.0274 0.0853493 5.95452e-24)
(18.04 0.0733279 -1.44871e-21)
(18.0139 0.0614517 4.08095e-21)
(18.0157 0.040678 0)
(17.9841 0.0414338 0)
(17.9959 0.0916479 0)
(18.0039 0.0932482 0)
(17.9868 0.097147 -1.99684e-23)
(17.9726 0.0923534 -3.9596e-24)
(17.9865 0.0251412 5.25582e-22)
(17.9841 0.0273666 6.31057e-25)
(17.9827 0.0281047 -2.25898e-24)
(17.9811 0.0281533 -4.54702e-24)
(17.9868 0.0233421 -7.63428e-22)
(17.9902 0.0206765 -7.71611e-23)
(17.9663 0.00932298 -7.62193e-25)
(18.0015 0.0167479 0)
(18.0034 0.0197933 4.23645e-23)
(18.0147 0.020025 3.88538e-25)
(17.8906 0.0134087 -9.01589e-25)
(17.8421 0.0489285 0)
(17.9799 0.0278872 -1.30061e-22)
(17.9784 0.0285286 -1.40859e-23)
(17.9687 0.0870765 8.11712e-24)
(17.9621 0.0740907 -1.29393e-23)
(17.9589 0.0794537 2.73814e-22)
(17.9566 0.0691014 0)
(17.9612 0.0540411 -1.77003e-23)
(17.9572 0.0575172 1.38505e-22)
(17.9608 0.0494176 -1.96551e-23)
(17.9692 0.0417877 1.16195e-23)
(17.9658 0.0431474 7.55207e-23)
(17.9718 0.0346802 -1.21216e-23)
(17.969 0.0383433 -5.89074e-23)
(17.9767 0.0291685 -1.40614e-22)
(17.9748 0.029403 6.1156e-25)
(18.0164 0.093783 0)
(18.03 0.0910994 1.23953e-23)
(18.0378 0.0687325 8.29833e-22)
(18.0512 0.0749197 -1.25459e-24)
(18.03 0.0650942 -2.40918e-23)
(18.032 0.0550353 0)
(18.0364 0.0426862 0)
(18.0021 0.0428951 0)
(18.0055 0.0998911 -6.88887e-24)
(17.9848 0.104555 -2.79627e-23)
(17.9776 0.102576 8.94146e-23)
(17.9709 0.0926201 -4.70751e-22)
(17.9722 0.0978368 -7.30627e-24)
(17.986 0.0232799 5.38646e-24)
(17.9835 0.0258599 0)
(17.9807 0.0262352 -1.03276e-23)
(17.9902 0.0204827 7.24339e-22)
(17.9849 0.00874529 1.07113e-20)
(18.0121 0.016772 0)
(17.819 0.0639267 6.96116e-24)
(17.9776 0.0267447 -4.29888e-24)
(17.9666 0.0910832 2.09838e-25)
(17.9519 0.0788116 -3.0663e-22)
(17.9545 0.0848405 -1.45971e-23)
(17.9502 0.0725049 5.83129e-24)
(17.9517 0.0659802 0)
(17.9527 0.0602285 -8.7747e-24)
(17.9521 0.054487 2.69926e-22)
(17.9568 0.0483105 5.27815e-22)
(17.9609 0.046218 -3.04052e-22)
(17.9627 0.0428107 -3.46895e-24)
(17.9642 0.0393794 -8.49725e-24)
(17.9686 0.0350715 -6.2997e-24)
(17.9702 0.0321082 8.72075e-24)
(17.9664 0.0362026 -3.76204e-22)
(17.9724 0.0293537 7.66532e-23)
(17.9741 0.0269809 4.63785e-23)
(18.0446 0.0881718 -7.34569e-22)
(18.0332 0.0982569 1.9646e-23)
(18.0614 0.0814885 -4.02168e-22)
(18.0496 0.0696501 0)
(18.0501 0.0356325 0)
(18.0539 0.0540633 1.5307e-23)
(18.0252 0.0242409 0)
(17.9861 0.0204693 0)
(17.9959 0.106681 9.58577e-23)
(18.0074 0.107314 -9.79745e-24)
(17.9869 0.114117 -7.0227e-24)
(17.971 0.105137 -2.04517e-23)
(17.9848 0.0228902 0)
(17.9858 0.0221894 0)
(17.9822 0.0249246 0)
(17.9835 0.0238507 0)
(17.9806 0.0246327 4.4997e-24)
(17.987 0.0212788 -5.19091e-24)
(17.9889 0.0191846 -5.33895e-24)
(18.0084 0.00918401 -8.77242e-24)
(17.9947 0.00154101 -9.29637e-24)
(18.0016 0.0160312 0)
(17.877 0.0939193 2.37952e-20)
(17.903 0.0136332 9.37993e-24)
(17.9787 0.0247309 7.33835e-24)
(17.9771 0.0250066 0)
(17.9596 0.0908909 2.42061e-22)
(17.9635 0.0970876 -7.50778e-24)
(17.9453 0.076628 1.12304e-23)
(17.9498 0.0912351 -5.96404e-24)
(17.9473 0.0625815 1.47687e-24)
(17.9529 0.0494842 -7.99678e-24)
(17.9478 0.0511897 -1.93105e-24)
(17.9534 0.0451169 3.48226e-22)
(17.9592 0.0421118 -1.55581e-24)
(17.9637 0.0359975 -7.92196e-24)
(17.9696 0.0293661 1.17175e-22)
(17.9757 0.0244136 -3.18052e-25)
(17.9736 0.0242368 -3.35004e-26)
(18.0211 0.105155 1.07874e-22)
(18.0348 0.106673 -4.67522e-24)
(18.0681 0.0808895 -1.17726e-23)
(18.0694 0.0894439 -1.2462e-21)
(18.0677 0.0740081 1.23621e-23)
(18.0549 0.0184991 0)
(18.0699 0.0649042 9.20186e-22)
(18.0713 0.0592271 1.04063e-23)
(18.0073 0.0100638 -2.04661e-23)
(18.0113 0.11603 -1.17631e-22)
(17.9799 0.122059 7.2855e-24)
(17.9921 0.124209 -2.24435e-23)
(17.965 0.103363 0)
(17.9681 0.111212 7.8694e-24)
(17.9831 0.0223538 -4.60548e-24)
(17.9868 0.0213639 0)
(17.9854 0.0208828 1.98042e-24)
(17.9797 0.0239558 -4.46581e-23)
(17.9809 0.0228288 -2.75761e-24)
(17.9871 0.0206928 4.88312e-25)
(17.9893 0.0186959 0)
(17.9691 -0.00511421 3.89823e-24)
(17.9903 0.0180685 0)
(17.8721 0.0683554 3.21559e-23)
(17.9709 0.00315645 3.64281e-21)
(17.9793 0.0226681 -1.01345e-23)
(17.9767 0.0226986 0)
(17.9564 0.102298 1.36674e-23)
(17.9398 0.0797578 3.58202e-22)
(17.94 0.0731458 1.23146e-23)
(17.9473 0.0976514 -8.26637e-22)
(17.9419 0.0924104 1.29377e-24)
(17.9434 0.0588256 -5.47836e-22)
(17.9425 0.0637487 7.05125e-26)
(17.9428 0.0525201 5.5752e-23)
(17.9446 0.0465152 -3.41343e-24)
(17.9552 0.0419534 -1.61575e-24)
(17.9514 0.0422821 6.23783e-23)
(17.9575 0.0390759 0)
(17.9599 0.0361307 0)
(17.9628 0.0325394 -7.09467e-24)
(17.9699 0.0265814 -9.82051e-23)
(17.9671 0.0286407 -2.31462e-24)
(17.9714 0.0241095 -7.49992e-25)
(17.9733 0.0217305 1.31974e-22)
(18.0516 0.106953 -9.65998e-24)
(18.0337 0.117549 -5.07654e-24)
(18.0744 0.103394 -5.43025e-23)
(18.0883 0.0802893 -1.3467e-23)
(18.0456 0.016988 -2.06839e-23)
(18.0735 0.0271568 0)
(18.0794 0.0466864 7.12243e-24)
(18.091 0.0643847 1.38452e-21)
(18.0268 0.00536351 6.28257e-21)
(18.005 0.125665 -4.29883e-23)
(18.0188 0.123479 -1.04835e-23)
(17.9687 0.120276 1.14253e-21)
(17.9705 0.132008 -2.6866e-23)
(17.9983 0.135096 1.88125e-22)
(17.957 0.118317 8.85897e-24)
(17.982 0.0218019 1.80271e-23)
(17.9831 0.0209877 -4.85867e-24)
(17.9842 0.0200932 2.18569e-24)
(17.9853 0.0195341 -4.00538e-23)
(17.9815 0.0209459 -3.66789e-25)
(17.9866 0.0198829 -3.81459e-23)
(17.9876 0.0202521 4.9288e-25)
(17.9881 0.0199431 0)
(17.9892 0.0211161 0)
(17.9929 0.0253644 0)
(17.9879 0.0314729 1.95999e-24)
(17.9517 0.0234339 4.05861e-24)
(17.9323 0.0533372 9.38233e-22)
(17.9759 0.0286353 -3.52418e-21)
(17.9784 0.0215774 2.44089e-24)
(17.9797 0.0209313 6.85876e-24)
(17.9774 0.0207615 0)
(17.9475 0.104685 6.98402e-22)
(17.9366 0.0859345 6.20445e-24)
(17.9322 0.0814716 5.54106e-24)
(17.94 0.0679947 5.63709e-24)
(17.9341 0.0713035 -2.22165e-22)
(17.9329 0.0948598 -9.92131e-26)
(17.9385 0.0548309 -7.08925e-24)
(17.9367 0.062624 7.1404e-23)
(17.9476 0.0420883 -1.05715e-24)
(17.9431 0.0424866 -2.12271e-23)
(17.9502 0.0382437 -1.73745e-24)
(17.9567 0.0355733 0)
(17.9647 0.0290569 -2.24807e-22)
(17.9612 0.0290703 5.37754e-23)
(17.9692 0.0234326 -8.5544e-25)
(17.9652 0.0258267 -5.032e-24)
(17.972 0.0190129 1.00832e-23)
(17.9748 0.0193345 2.10634e-24)
(18.0303 0.12963 1.75482e-23)
(18.0941 0.101257 1.75284e-21)
(18.0877 0.11854 5.16756e-22)
(18.109 0.0910528 2.18197e-22)
(18.0944 0.035536 0)
(18.1082 0.0794166 -6.17876e-22)
(18.1098 0.069533 7.4137e-24)
(18.0409 -0.000425231 3.47405e-24)
(17.9771 0.141689 4.08512e-22)
(17.9631 0.140047 -1.07212e-21)
(17.9892 0.143226 -7.42886e-24)
(18.0034 0.147431 -2.28994e-23)
(17.9463 0.113487 3.51666e-22)
(17.9459 0.122947 -1.10665e-24)
(17.9836 0.0192596 -1.73868e-25)
(17.9862 0.0185712 2.56648e-25)
(17.9809 0.0200637 5.45972e-24)
(17.982 0.0192122 1.05269e-23)
(17.9871 0.0208782 2.74228e-24)
(17.9946 0.0211735 0)
(17.9862 0.0228377 -1.26835e-21)
(17.9651 0.0409949 4.0239e-24)
(17.945 0.068995 4.23073e-24)
(17.9804 0.0190777 4.41131e-24)
(17.9766 0.0195854 0)
(17.9785 0.0188633 -1.42379e-24)
(17.9377 0.108365 1.22871e-23)
(17.9287 0.0744302 7.78151e-24)
(17.9257 0.0802068 0)
(17.9291 0.0685052 1.79712e-23)
(17.9323 0.103175 -5.59534e-22)
(17.9264 0.0970623 -7.93895e-26)
(17.9332 0.0579941 9.51556e-24)
(17.9345 0.0529188 -9.45987e-23)
(17.9308 0.0620976 3.91582e-22)
(17.9424 0.0373071 7.94334e-25)
(17.9393 0.0415905 8.68771e-25)
(17.9531 0.0350797 0)
(17.9493 0.0346408 0)
(17.9558 0.0320351 -6.25871e-24)
(17.958 0.0284696 -1.45639e-22)
(17.96 0.0253701 -7.50179e-24)
(17.9665 0.0233128 0)
(17.968 0.0211139 1.83981e-24)
(17.9643 0.0235738 8.36047e-25)
(17.9692 0.0188048 3.92426e-24)
(17.9705 0.0166826 2.70507e-24)
(17.9758 0.0172885 4.59577e-24)
(18.0424 0.137821 -1.02384e-23)
(18.0264 0.144845 -4.74607e-24)
(18.0661 0.133199 -2.61752e-23)
(18.0969 0.13428 -2.18187e-23)
(18.1291 0.101507 -1.62093e-23)
(18.0932 0.02513 0)
(18.1184 0.0398376 0)
(18.1219 0.0606379 1.03159e-23)
(18.1341 0.0796925 1.06879e-21)
(18.0776 -0.00223727 0)
(17.9788 0.151151 -1.26408e-23)
(17.9569 0.150782 -1.85041e-23)
(17.9506 0.143178 -2.508e-23)
(18.0125 0.153699 1.06551e-23)
(17.9967 0.160233 -9.57224e-22)
(17.9426 0.1346 6.90168e-24)
(17.9325 0.127216 -4.52334e-24)
(17.9831 0.018364 2.68175e-24)
(17.9843 0.0177127 -7.36918e-24)
(17.9862 0.017578 -3.6623e-24)
(17.9872 0.0181899 1.82859e-22)
(17.9828 0.0174153 -2.299e-23)
(17.9878 0.0193136 1.14344e-23)
(17.9888 0.0209087 2.29032e-22)
(17.9916 0.0213299 4.1682e-24)
(17.994 0.0199078 0)
(17.9875 0.0222171 1.77797e-24)
(17.9921 0.0200444 3.2022e-24)
(17.9972 0.0167011 0)
(17.9181 0.0445584 -1.0414e-24)
(17.9798 0.017954 -1.44707e-24)
(17.9811 0.0172366 0)
(17.9789 0.016912 7.36645e-23)
(17.9293 0.109859 2.79549e-24)
(17.9197 0.0788416 -1.00931e-23)
(17.9222 0.0869858 0)
(17.9263 0.0643115 1.24696e-23)
(17.9209 0.0937408 5.62549e-27)
(17.9189 0.102728 4.97094e-24)
(17.9362 0.045911 -2.56442e-23)
(17.9315 0.050649 7.1482e-22)
(17.9456 0.0338324 0)
(17.9424 0.0326069 1.02938e-23)
(17.936 0.0396425 -2.06459e-23)
(17.9486 0.0306242 0)
(17.9548 0.0280979 -5.97589e-24)
(17.9623 0.0232239 8.79321e-25)
(17.9601 0.0223432 0)
(17.9673 0.018683 -3.89587e-24)
(17.9641 0.021082 -1.69503e-23)
(17.9704 0.0144653 -4.07567e-23)
(17.9722 0.014863 1.66879e-24)
(17.9775 0.0156808 2.12262e-22)
(17.9751 0.0152428 -1.47946e-23)
(18.0461 0.148405 -2.21079e-22)
(18.0235 0.158746 0)
(18.114 0.135481 1.1949e-24)
(18.0812 0.152005 -1.17562e-23)
(18.1529 0.105042 1.13308e-23)
(18.1452 0.11808 1.4056e-24)
(18.1371 0.0419434 0)
(18.1639 0.100535 3.36023e-23)
(18.098 -0.018583 0)
(18.0926 0.00144074 0)
(17.968 0.158102 0)
(17.9798 0.159452 2.01144e-23)
(17.9561 0.161839 9.53986e-24)
(17.9362 0.147404 -5.01858e-24)
(17.9877 0.169964 1.28431e-21)
(17.9246 0.118075 1.9694e-22)
(17.9194 0.128745 -1.4464e-23)
(17.9854 0.0170755 -1.19093e-24)
(17.9849 0.0160573 -7.83572e-24)
(17.9866 0.0162864 7.76563e-23)
(17.9887 0.0176663 -1.61787e-24)
(17.9823 0.0163645 2.76667e-24)
(17.9835 0.0156786 -6.824e-24)
(17.9894 0.0197931 3.28941e-22)
(17.9943 0.0198513 1.14815e-24)
(17.9935 0.0198815 3.74818e-24)
(17.9928 0.0225784 6.31939e-22)
(17.9991 0.0247368 0)
(17.9822 0.0119719 0)
(17.9577 0.0148101 -8.31274e-25)
(17.9507 0.0418959 1.11891e-20)
(17.9819 0.0153049 -4.24349e-24)
(17.979 0.0147994 -5.09514e-25)
(17.9211 0.110166 -3.31149e-22)
(17.9121 0.0788187 -3.30944e-24)
(17.9174 0.071609 5.27494e-22)
(17.9145 0.0906119 0)
(17.9217 0.0656037 -8.65465e-24)
(17.925 0.0594782 -2.56735e-24)
(17.9133 0.107576 5.71765e-24)
(17.9272 0.0535424 -1.84022e-23)
(17.929 0.0469163 -4.36975e-23)
(17.9429 0.0283273 1.72917e-23)
(17.9395 0.0311635 -2.80137e-22)
(17.9361 0.033303 -7.50488e-24)
(17.9329 0.0371838 -3.95118e-22)
(17.9514 0.0280706 0)
(17.9484 0.026936 7.88631e-24)
(17.9539 0.0249158 -7.0502e-25)
(17.9583 0.0204047 -8.05995e-25)
(17.9607 0.0191317 -1.98659e-26)
(17.9655 0.0186592 2.3026e-24)
(17.9671 0.0164029 -5.18059e-23)
(17.9634 0.018339 8.75362e-25)
(17.9687 0.0138417 1.87409e-25)
(17.9708 0.011561 7.83485e-25)
(17.9742 0.0129508 6.2804e-24)
(18.037 0.160672 -1.90786e-23)
(18.0518 0.157258 -8.87021e-22)
(18.029 0.170923 0)
(18.1445 0.141915 4.04919e-21)
(18.0645 0.168086 -2.63562e-23)
(18.1376 0.0183872 0)
(18.1776 0.0422633 1.64198e-23)
(18.1897 0.0835148 -3.15966e-21)
(18.19 0.117267 2.36403e-23)
(18.0724 -0.125143 0)
(18.1303 0.0110974 -3.63593e-23)
(17.9557 0.177352 1.07159e-23)
(17.9421 0.170033 -4.50335e-22)
(17.9297 0.160616 9.31087e-22)
(17.9213 0.151414 -2.38664e-24)
(17.9723 0.18334 1.21235e-23)
(17.9911 0.185409 1.33602e-23)
(17.9131 0.139598 -1.34114e-23)
(17.9092 0.127865 -1.43084e-22)
(17.9846 0.0150673 5.83258e-23)
(17.9856 0.0146695 4.25795e-24)
(17.9869 0.0146068 1.30943e-22)
(17.9879 0.0153986 -4.64556e-23)
(17.9889 0.0166469 -6.61252e-23)
(17.9897 0.0173542 9.4739e-25)
(17.9845 0.013993 -3.8048e-24)
(17.9911 0.0190853 -1.09653e-23)
(17.9897 0.0182193 4.48825e-24)
(17.9925 0.0190803 -4.33392e-23)
(17.9937 0.0199008 -6.12615e-22)
(17.9957 0.0233778 -2.34244e-24)
(18.0001 0.0260505 0)
(17.9979 0.0258302 0)
(17.9795 0.019411 3.17584e-24)
(17.9346 0.0468191 -1.42564e-20)
(17.981 0.0140633 -5.05931e-23)
(17.9826 0.0134122 3.70768e-23)
(17.9795 0.01281 -6.93382e-24)
(17.9083 0.0852567 6.07456e-24)
(17.9061 0.0795885 -3.16291e-23)
(17.9162 0.0651481 -1.23822e-22)
(17.907 0.0938333 -1.75677e-23)
(17.9215 0.0548981 -6.18288e-24)
(17.9062 0.115825 -1.20251e-23)
(17.9055 0.104271 -1.95256e-23)
(17.9304 0.0416252 -6.38448e-22)
(17.9253 0.0440085 7.76064e-22)
(17.9456 0.0247938 2.21384e-22)
(17.9428 0.023414 1.49443e-23)
(17.9371 0.0281845 4.66085e-22)
(17.9292 0.0355137 -2.15751e-23)
(17.9482 0.0226142 8.09084e-24)
(17.9552 0.0212603 -1.25407e-23)
(17.9519 0.0216108 -6.87125e-25)
(17.9565 0.0174798 -1.75409e-22)
(17.9622 0.0164626 1.42897e-22)
(17.9666 0.013625 -5.83869e-25)
(17.9729 0.0101854 2.65038e-24)
(17.9714 0.0092535 -6.48269e-24)
(17.9742 0.0106623 4.53312e-23)
(17.9758 0.0110459 9.88635e-23)
(18.0138 0.18766 0)
(18.038 0.187672 0)
(18.1648 0.153805 7.4905e-24)
(18.1166 0.17236 -1.39799e-23)
(18.0564 0.18713 -1.53915e-23)
(18.0756 0.18193 -1.6546e-21)
(18.2166 0.0605893 -2.96778e-22)
(18.1886 0.140489 6.11224e-24)
(18.2131 0.137876 2.64721e-22)
(18.006 -0.13911 -4.25601e-23)
(18.1282 -0.0289667 1.08356e-20)
(18.1972 0.0211892 1.31114e-20)
(17.9585 0.194208 -1.17731e-23)
(17.9279 0.177051 -4.70455e-22)
(17.9068 0.152819 0)
(17.996 0.205549 0)
(17.8999 0.124755 -1.86836e-23)
(17.9867 0.0135447 -1.77899e-24)
(17.9892 0.0148616 -3.66379e-23)
(17.9906 0.0173142 -9.46545e-25)
(17.9841 0.012738 -5.23775e-24)
(17.9854 0.0124278 -4.18681e-23)
(17.9938 0.0184919 2.95972e-25)
(17.9985 0.0203282 3.43462e-24)
(17.9919 0.0230234 2.75382e-24)
(18.0019 0.0213537 -2.07139e-26)
(17.9813 0.0261339 -1.82896e-21)
(17.9645 0.0287527 1.74983e-22)
(17.9531 0.0357254 -2.24038e-20)
(17.9832 0.0115842 6.77193e-23)
(17.9779 0.0114259 1.82411e-22)
(17.9802 0.0109762 3.43727e-24)
(17.9012 0.080913 -2.00473e-22)
(17.9056 0.0715484 2.5626e-23)
(17.9151 0.0577279 3.60101e-22)
(17.9114 0.0630424 -3.14479e-24)
(17.9 0.0991865 4.71769e-23)
(17.9168 0.0519752 -4.09853e-22)
(17.9198 0.0451187 -1.14961e-23)
(17.9213 0.0393856 -1.3922e-23)
(17.9394 0.023642 7.57398e-24)
(17.9424 0.0194513 -1.71095e-22)
(17.9356 0.0244366 -2.60697e-24)
(17.9237 0.0349848 -1.06495e-22)
(17.928 0.030199 6.36828e-26)
(17.9501 0.0192327 -1.37687e-24)
(17.9553 0.0148305 -1.63351e-24)
(17.9582 0.0144911 -4.0159e-24)
(17.9637 0.0139286 -5.0671e-24)
(17.9611 0.0140915 -6.01992e-23)
(17.9661 0.011077 0)
(17.9747 0.00874723 -7.06636e-23)
(17.9726 0.00690776 -1.14329e-22)
(17.9704 0.00769777 -2.20921e-23)
(17.9766 0.00916414 1.72407e-24)
(18.0484 0.205727 0)
(18.1855 0.174017 -2.76212e-21)
(18.0925 0.19935 -1.29958e-24)
(18.2388 0.0533933 -2.06863e-21)
(18.2513 0.0856204 1.11855e-21)
(18.2443 0.131205 -1.61457e-21)
(18.2303 0.160785 2.63956e-23)
(18.1375 -0.117817 -2.14526e-23)
(18.2432 0.0293247 -2.44135e-21)
(17.9599 0.214143 -6.97588e-22)
(17.9442 0.205213 9.05964e-23)
(17.9298 0.196042 2.21932e-22)
(17.9137 0.186015 -7.50346e-24)
(17.9013 0.164891 0)
(17.8962 0.150581 -5.72438e-24)
(17.9787 0.222605 -5.10004e-24)
(18.001 0.226121 0)
(17.8915 0.135592 2.46925e-22)
(17.8926 0.12059 -4.94035e-23)
(17.9866 0.0121626 -2.613e-22)
(17.9878 0.012284 -4.86156e-23)
(17.9907 0.0150236 1.91814e-22)
(17.9896 0.0136717 -2.92648e-24)
(17.9914 0.0157858 -8.12136e-23)
(17.9918 0.0167126 1.32143e-24)
(17.9866 0.0109189 -1.13747e-23)
(17.9932 0.0171142 -5.02794e-23)
(17.9948 0.0169612 2.00981e-24)
(18.0025 0.0180568 2.94236e-24)
(17.998 0.0172738 -1.14703e-22)
(18.0047 0.0175002 5.84409e-24)
(17.9979 0.0197945 5.92445e-24)
(17.9392 0.0309816 1.92608e-20)
(17.9819 0.0102135 4.33732e-23)
(17.9837 0.00971606 -1.2333e-24)
(17.9801 0.00889715 -5.66473e-23)
(17.8973 0.0925739 2.25147e-23)
(17.8926 0.0843339 7.07451e-22)
(17.9033 0.0631896 -5.63767e-24)
(17.8934 0.105294 -6.28936e-23)
(17.9122 0.0470496 1.38258e-23)
(17.9179 0.0347167 -1.10076e-22)
(17.9415 0.015381 9.11386e-24)
(17.9455 0.0163442 3.63006e-23)
(17.9314 0.0242626 -1.08768e-23)
(17.9346 0.0186451 -9.91804e-23)
(17.9253 0.0235468 8.51873e-24)
(17.9524 0.0154427 -2.40585e-23)
(17.9488 0.0160547 -5.09135e-25)
(17.9546 0.0119312 -1.58103e-24)
(17.9604 0.0114245 -1.85792e-23)
(17.9681 0.00827489 -7.37863e-24)
(17.9654 0.00829775 1.32506e-24)
(17.9749 0.00640658 1.7057e-22)
(17.9763 0.00680969 5.09583e-24)
(17.9749 0.0047164 1.17166e-22)
(17.9699 0.00531287 -2.05722e-23)
(17.9781 0.00760868 2.6234e-24)
(17.977 0.0073275 -1.89048e-22)
(18.0293 0.227556 0)
(18.0598 0.225671 2.88954e-23)
(18.2127 0.189768 -4.02096e-24)
(18.1646 0.204208 4.61017e-24)
(18.0832 0.223964 -2.38402e-22)
(18.1088 0.216898 1.56059e-23)
(18.2843 0.120689 2.00441e-23)
(18.241 0.197085 -3.16768e-21)
(18.2281 -0.0399361 1.40791e-23)
(18.1821 -0.0335201 4.30197e-21)
(18.305 0.0349856 -9.09308e-24)
(17.9615 0.235321 -3.1953e-23)
(17.9293 0.214074 -9.43146e-24)
(17.9027 0.17936 1.28389e-23)
(17.9 0.195064 6.61202e-22)
(17.8916 0.175117 -3.78285e-24)
(17.8841 0.148396 -4.89864e-24)
(18.0099 0.251143 0)
(17.8839 0.113739 -4.25824e-22)
(17.989 0.0106505 -4.79389e-24)
(17.9886 0.0120354 2.89174e-22)
(17.992 0.0145732 1.121e-22)
(17.9892 0.0125345 -5.10205e-24)
(17.9908 0.0127348 -1.07689e-24)
(17.9932 0.0151437 1.86122e-24)
(17.9857 0.00910708 -2.92884e-22)
(17.9875 0.00904666 -5.15075e-24)
(17.996 0.0164552 3.57865e-24)
(17.9958 0.0150532 4.34255e-24)
(17.9978 0.0155896 3.95344e-24)
(18.0059 0.014456 -3.87126e-26)
(18.0028 0.0151285 -2.66412e-24)
(18.005 0.011282 1.18419e-23)
(17.9558 0.0292004 -1.08838e-20)
(17.9777 0.0126521 -3.43488e-24)
(17.9839 0.00779517 -5.18479e-24)
(17.9799 0.00684229 1.01631e-22)
(17.8816 0.0860223 2.48999e-23)
(17.8857 0.0762507 1.08343e-23)
(17.894 0.0616159 -1.31363e-23)
(17.9009 0.0533509 1.85493e-23)
(17.906 0.0470722 3.05249e-22)
(17.9091 0.04069 5.93472e-23)
(17.9115 0.0347787 5.27595e-24)
(17.915 0.0291021 -3.74612e-24)
(17.9379 0.0132859 -3.34509e-24)
(17.9405 0.0101121 3.32477e-25)
(17.9476 0.0125078 -1.64181e-22)
(17.9322 0.0126008 -8.92785e-24)
(17.9187 0.0232494 1.03795e-23)
(17.9226 0.0176851 7.38178e-24)
(17.9529 0.00844297 1.68414e-24)
(17.9566 0.00862187 -4.57324e-24)
(17.9625 0.00844082 -7.95803e-24)
(17.9595 0.00849661 2.93337e-24)
(17.9645 0.00552045 4.85402e-24)
(17.9789 0.00489918 -4.33454e-24)
(17.9741 0.00252779 1.97348e-24)
(17.9768 0.00206476 5.65434e-23)
(17.9716 0.00283528 2.28776e-25)
(17.9689 0.0029813 2.2338e-25)
(18.0749 0.248683 4.61369e-22)
(18.1359 0.237838 0)
(18.3063 0.161786 -3.73767e-23)
(18.3236 0.118319 0)
(18.2863 0.199848 1.76003e-21)
(18.2457 0.233671 -4.08883e-23)
(18.217 0.070265 -2.11346e-22)
(18.3771 -0.155846 -2.65512e-23)
(18.3336 0.0899574 0)
(18.3593 0.0382982 -1.22493e-23)
(17.9586 0.261435 7.86487e-24)
(17.942 0.246203 -4.00429e-23)
(17.929 0.233145 -2.62367e-22)
(17.9109 0.219743 -6.85576e-25)
(17.8938 0.211061 2.31924e-23)
(17.8874 0.202185 -8.23192e-22)
(17.8833 0.187372 3.55426e-22)
(17.8819 0.173119 -3.23491e-24)
(17.8795 0.162137 0)
(17.8741 0.147384 0)
(17.9982 0.275151 2.15308e-23)
(18.0263 0.275311 -1.9227e-23)
(17.8728 0.122279 -1.03233e-22)
(17.8737 0.106816 -1.18143e-23)
(17.9891 0.00930059 -1.84757e-25)
(17.9903 0.00944174 5.19884e-24)
(17.9903 0.0110334 -4.49654e-24)
(17.992 0.0131626 2.39268e-23)
(17.9928 0.0133079 -2.3938e-24)
(17.9922 0.0116816 -1.12209e-24)
(17.9934 0.0136395 0)
(17.9943 0.0139296 7.01238e-24)
(17.9885 0.00761391 2.45361e-24)
(17.9954 0.013899 -6.73938e-23)
(17.9965 0.0133213 8.41844e-23)
(17.9999 0.0149778 1.30662e-22)
(17.9983 0.0134571 6.00666e-23)
(18.0019 0.0136065 1.681e-24)
(18.0019 0.00792688 -1.8202e-21)
(18.0037 0.0115845 -7.09503e-22)
(17.9459 0.0245024 2.03762e-20)
(18.0065 0.00466445 1.92152e-21)
(17.9821 0.00649245 -7.73602e-25)
(17.9842 0.00588163 0)
(17.9812 0.00481928 1.38592e-24)
(17.8749 0.094953 2.2659e-23)
(17.868 0.0824656 0)
(17.887 0.0674977 -3.75143e-22)
(17.8747 0.0693129 -1.7804e-23)
(17.8856 0.0567273 1.34467e-24)
(17.8992 0.0456149 -9.94429e-24)
(17.9051 0.0344668 -3.54379e-24)
(17.9112 0.0227035 -5.06948e-23)
(17.9452 0.00871442 7.76484e-25)
(17.9412 0.00622896 1.19416e-22)
(17.9489 0.00855286 -4.20766e-23)
(17.9258 0.0124302 2.75751e-23)
(17.9286 0.00766991 -5.03201e-24)
(17.9188 0.0119206 1.03375e-23)
(17.9504 0.00508097 2.10053e-25)
(17.9586 0.00552768 -4.58529e-24)
(17.9663 0.00293571 3.47253e-24)
(17.9632 0.00278519 3.68695e-24)
(17.9801 0.00232969 4.74149e-24)
(17.9814 0.00331765 3.05388e-24)
(17.9723 0.000449573 -1.45095e-24)
(17.9786 0.00142414 -2.70155e-22)
(17.9767 -0.000312794 3.5357e-24)
(17.9674 0.000605137 0)
(18.0559 0.275013 -5.97479e-24)
(18.0904 0.273925 1.51445e-23)
(18.122 0.272813 0)
(18.1564 0.268887 -2.25409e-23)
(18.3271 0.199798 -4.35875e-25)
(18.358 0.129571 2.30536e-23)
(18.1982 0.266483 -2.25886e-23)
(18.2512 0.270429 -2.53057e-23)
(18.3003 0.0386342 -1.24395e-20)
(18.206 0.128786 1.84768e-20)
(18.4526 -0.276441 0)
(18.4123 0.048584 6.61857e-24)
(17.9748 0.277184 1.25328e-21)
(17.9457 0.28808 2.27183e-23)
(17.9212 0.252347 -1.26288e-23)
(17.8894 0.230867 5.10784e-23)
(17.876 0.20083 8.03857e-24)
(17.8696 0.170989 4.52421e-24)
(17.8685 0.138321 -1.96464e-24)
(17.8593 0.153029 4.5258e-24)
(17.9887 0.297414 -1.65759e-21)
(18.0397 0.29982 -1.18418e-21)
(17.8573 0.127841 -2.05841e-24)
(17.861 0.101685 -1.20936e-21)
(17.991 0.00953687 -1.45375e-25)
(17.9914 0.00836079 -1.54076e-25)
(17.9915 0.00987257 0)
(17.9935 0.0123776 0)
(17.9927 0.0100572 0)
(17.9937 0.0104603 0)
(17.995 0.012758 -2.8739e-23)
(17.9878 0.0060233 -4.76976e-23)
(17.9898 0.00654356 2.14431e-24)
(17.9974 0.0122202 3.67213e-24)
(17.9964 0.0118775 2.07849e-25)
(17.9987 0.0112959 1.1399e-24)
(18.0034 0.0121439 1.83826e-21)
(18.0015 0.0112773 -6.15304e-23)
(18.003 0.0113865 8.20106e-24)
(17.9693 0.0223968 2.19625e-20)
(17.9799 0.00569927 -4.6624e-24)
(18.0057 0.00717523 -5.90323e-22)
(18.0033 0.00289905 2.88814e-21)
(17.9859 0.00503031 2.50823e-24)
(17.985 0.00362814 0)
(17.9817 0.00372216 -2.5304e-22)