/*--------------------------------*- C++ -*----------------------------------*\
| =========                 |                                                 |
| \\      /  F ield         | OpenFOAM: The Open Source CFD Toolbox           |
|  \\    /   O peration     | Version:  v2012                                 |
|   \\  /    A nd           | Website:  www.openfoam.com                      |
|    \\/     M anipulation  |                                                 |
\*---------------------------------------------------------------------------*/
FoamFile
{
    version     2.0;
    format      ascii;
    class       volScalarField;
    location    "2.1";
    object      k;
}
// * * * * * * * * * * * * * * * * * * * * * * * * * * * * * * * * * * * * * //

dimensions      [0 2 -2 0 0 0 0];


internalField   nonuniform List<scalar> 
13611
(
0.00100734
0.000589419
0.000515105
0.000465508
0.000404271
0.0012167
0.000501
0.000521761
0.00116289
0.000396948
0.000635361
0.000550499
0.000515155
0.000593216
0.000489945
0.000401887
0.000545922
0.00100276
0.000603642
0.000547135
0.000589602
0.000601927
0.00111443
0.00035301
0.000499652
0.000563525
0.00060967
0.000627412
0.000559174
0.000575784
0.00059701
0.000615956
0.000435866
0.000402244
0.000514704
0.000629509
0.000566419
0.00120528
0.000632321
0.000547104
0.000568113
0.000592829
0.000612171
0.000619744
0.000320224
0.00110525
0.000372896
0.000530425
0.00066335
0.000592464
0.000587355
0.000649209
0.000542331
0.000577916
0.000553171
0.000605191
0.000620238
0.000639196
0.000307917
0.000430021
0.000413827
0.000525737
0.000665473
0.000665754
0.000597877
0.00115834
0.000653249
0.000527332
0.000574948
0.000548773
0.000604701
0.000634053
0.000381841
0.000333293
0.00109278
0.000498018
0.000518713
0.000699691
0.000685215
0.000697872
0.000552841
0.00067132
0.000525284
0.000559668
0.000586816
0.000537026
0.000618164
0.000648041
0.000412549
0.00034225
0.000437299
0.000507167
0.000502851
0.000703337
0.000687973
0.000700965
0.000712236
0.000702655
0.00104469
0.000669257
0.000517318
0.000553931
0.000583373
0.000532123
0.000611413
0.000630227
0.000646415
0.000476429
0.000391524
0.000333537
0.00102825
0.000496781
0.000497512
0.0007291
0.000706272
0.00072219
0.000741375
0.000749537
0.000767269
0.00068702
0.00050818
0.00052107
0.000540176
0.000563596
0.000576754
0.00059978
0.000622154
0.000665968
0.00048143
0.000386359
0.00034159
0.000554672
0.000484394
0.000489375
0.000739201
0.000709014
0.000767626
0.000765644
0.00075693
0.000878038
0.0006873
0.000501153
0.000511551
0.000539851
0.000552024
0.000586136
0.000601083
0.000635341
0.000669391
0.000478517
0.000433354
0.000305098
0.000352831
0.000475677
0.000479207
0.000491698
0.000763314
0.000729716
0.000811782
0.000792354
0.000793415
0.000937135
0.000709952
0.000501933
0.000515153
0.000528864
0.00055737
0.000574982
0.00061393
0.000652991
0.000628815
0.000691274
0.000469218
0.000431866
0.000336619
0.000267636
0.0011336
0.000466205
0.000471233
0.000486146
0.000792695
0.000750203
0.000731193
0.000833656
0.000829998
0.000801023
0.0013369
0.000712918
0.000490651
0.000507914
0.00052805
0.000552941
0.000580692
0.000608255
0.000653321
0.000637921
0.000690318
0.000461274
0.00044774
0.000326886
0.000221083
0.000656302
0.000458707
0.000461764
0.000475154
0.000806892
0.000767698
0.000753289
0.000866571
0.000832234
0.000837706
0.000928581
0.000734728
0.000488516
0.00051377
0.000497932
0.00053931
0.000564109
0.00057737
0.000597063
0.000623642
0.000670248
0.000713031
0.000453307
0.000445916
0.000388667
0.000365067
0.00028231
0.000740338
0.000450625
0.00045325
0.000470917
0.000793137
0.000839012
0.000767528
0.000854971
0.000895681
0.000864379
0.00148535
0.000797247
0.000755238
0.00073351
0.000478687
0.000509327
0.000489269
0.000537812
0.000560369
0.000587834
0.000601625
0.000630962
0.000673724
0.000714702
0.000443909
0.000443826
0.000386246
0.000339564
0.000256199
0.000434551
0.000440918
0.000452621
0.000443845
0.000461262
0.000812102
0.000860979
0.000797296
0.000891807
0.000932918
0.000976018
0.000953317
0.000865249
0.000770993
0.000753781
0.000479864
0.000499853
0.000519348
0.000490227
0.000548518
0.000528633
0.000571268
0.000586812
0.000615586
0.000649204
0.000696695
0.000664852
0.000738353
0.000436716
0.000436556
0.000417359
0.00028607
0.000297999
0.00108839
0.00044442
0.000437516
0.000461549
0.000845744
0.000894441
0.000812732
0.000921963
0.000971287
0.000978433
0.00111425
0.000795117
0.00076547
0.000471466
0.000502357
0.000511817
0.000480741
0.0005379
0.000528257
0.000568914
0.000599661
0.00061545
0.000646826
0.000696001
0.000677419
0.000734409
0.000760423
0.000429166
0.000428721
0.000399056
0.000268759
0.000279821
0.000560994
0.000438167
0.000440174
0.000429491
0.000454135
0.000867919
0.00092719
0.000843766
0.000955798
0.00100544
0.00103988
0.0010698
0.001421
0.000807413
0.000793128
0.000471204
0.00049345
0.000515682
0.000477524
0.000542895
0.000582959
0.000557836
0.000596831
0.000630045
0.000660831
0.000712961
0.000676132
0.000754198
0.000781712
0.000423166
0.000424961
0.000421085
0.000425054
0.000248163
0.000360538
0.000429602
0.000431791
0.000432514
0.000445205
0.000426616
0.000455984
0.000902901
0.000931402
0.000963509
0.000855056
0.000990403
0.00104444
0.00107119
0.00111666
0.00110003
0.000837848
0.000806763
0.000464775
0.000492805
0.000483614
0.000511731
0.000467492
0.000533266
0.000583685
0.000561633
0.0006099
0.00062388
0.000663139
0.000710335
0.000692488
0.000751825
0.000780133
0.000415702
0.000417528
0.00041908
0.000412403
0.000232453
0.000367446
0.00104831
0.000267132
0.000426803
0.000437888
0.000419996
0.000449831
0.000910219
0.000972059
0.00100247
0.000891839
0.00102473
0.00106189
0.00112415
0.00115981
0.00112653
0.00155955
0.000856289
0.000832972
0.000481282
0.000501417
0.00047708
0.000521546
0.000462392
0.000538103
0.000597957
0.000574372
0.000551147
0.00061028
0.000635457
0.000651815
0.000682297
0.000728244
0.000772635
0.000805739
0.000411108
0.000408075
0.000405072
0.000298771
0.000386792
0.00126013
0.000214767
0.000419357
0.000429669
0.000440327
0.000412631
0.000452792
0.000951927
0.00101079
0.00103946
0.000914745
0.00110587
0.00116657
0.00120866
0.00119629
0.00122645
0.000889895
0.000842975
0.000481207
0.000503155
0.000467262
0.000513361
0.000531996
0.000595639
0.000579741
0.000551162
0.000623599
0.000660389
0.000692606
0.000715807
0.0007978
0.000771662
0.0008331
0.000404343
0.000402778
0.000399759
0.000301641
0.000387999
0.000627536
0.000211306
0.000413398
0.00042223
0.000434534
0.000405317
0.000447165
0.000978788
0.00105146
0.00108686
0.000954203
0.00114619
0.00121714
0.00125919
0.00124989
0.00165989
0.0009025
0.000878456
0.00046906
0.000491787
0.000462537
0.000518961
0.000538168
0.000606573
0.000575996
0.000561914
0.000630519
0.00064961
0.00068076
0.000728866
0.00081892
0.000800215
0.00075463
0.000856197
0.000398477
0.000393993
0.000391856
0.000349677
0.000389816
0.000521198
0.000232734
0.000405565
0.000415051
0.000420704
0.000427142
0.000438632
0.000399013
0.000452074
0.00102304
0.00108373
0.00107204
0.00113406
0.000976669
0.00120992
0.00124196
0.00131436
0.0013602
0.00141085
0.000944113
0.000889213
0.000464256
0.000491741
0.000513044
0.000532651
0.000603993
0.000621412
0.0005885
0.000555546
0.000658698
0.000690942
0.000713166
0.000849482
0.000813788
0.000764915
0.000392016
0.000385813
0.000354465
0.000385838
0.00040838
0.000217394
0.000400795
0.000409787
0.000414214
0.000422481
0.000431667
0.000392909
0.000444243
0.00104416
0.00105267
0.00113313
0.00112997
0.00118034
0.00102365
0.00125306
0.0013124
0.00134019
0.0014241
0.00180456
0.00146528
0.000959029
0.000922566
0.000456067
0.000472129
0.000481645
0.000503258
0.000520748
0.000541195
0.000616422
0.000630271
0.00058182
0.000564864
0.000646717
0.000678771
0.000721907
0.00087916
0.00079019
0.000841694
0.000745445
0.00038665
0.000379358
0.000372598
0.00031377
0.000376109
0.000188322
0.00136186
0.000176723
0.000395272
0.000403543
0.00040921
0.000415076
0.000424851
0.00042928
0.000390914
0.000387427
0.000434888
0.000447238
0.00109168
0.00109947
0.00117601
0.00117496
0.00123166
0.00105645
0.00132816
0.00135705
0.00141764
0.0014764
0.00164336
0.00157347
0.00100416
0.000929814
0.000456032
0.000463176
0.000482775
0.000503183
0.000513166
0.000534871
0.000623198
0.000593264
0.000559956
0.000655438
0.000688426
0.000710115
0.000867572
0.000914347
0.000792196
0.000840013
0.000750061
0.000380449
0.000372506
0.000370219
0.000333746
0.000370087
0.000175501
0.000566879
0.000250922
0.000390863
0.000400875
0.000403903
0.000411216
0.000420009
0.000421598
0.000386264
0.00038254
0.000430587
0.000442721
0.0011303
0.00115231
0.00122474
0.00123821
0.00127619
0.0010466
0.00111296
0.00138214
0.00143559
0.00156358
0.00199294
0.00166721
0.00100531
0.000972434
0.000447221
0.00046542
0.000493017
0.000474923
0.000520118
0.000543911
0.00064378
0.000611499
0.000586374
0.000570903
0.000676426
0.000721598
0.000893695
0.000937503
0.000775115
0.000819623
0.000870486
0.000743652
0.000376274
0.000368262
0.000356172
0.000368167
0.000363659
0.000169037
0.00132926
0.00023825
0.000391689
0.000386485
0.000396065
0.000399446
0.000406027
0.000414503
0.000418507
0.000381989
0.000377756
0.000422989
0.00043485
0.00118246
0.00119652
0.00130116
0.00133878
0.00109737
0.0011498
0.00146204
0.00151569
0.00165087
0.00194799
0.00180192
0.00104932
0.000974339
0.000440835
0.000463813
0.000491308
0.000471539
0.000512292
0.000540119
0.000653931
0.000619302
0.000596153
0.000564392
0.000687158
0.000710372
0.000927167
0.000784714
0.000828969
0.000884831
0.000761424
0.000370734
0.000362989
0.000358257
0.000362443
0.000358477
0.000136297
0.000610134
0.000287089
0.000386435
0.000382533
0.000394318
0.000401107
0.000404655
0.00040915
0.000410975
0.000378044
0.000373771
0.000418337
0.000427747
0.00122539
0.00126065
0.00131184
0.00136465
0.00138449
0.0011502
0.00109614
0.00120627
0.00150532
0.00151432
0.00161918
0.00177424
0.00222645
0.00196355
0.00192437
0.00104963
0.00100772
0.000445578
0.000430012
0.000457037
0.000500708
0.00047954
0.000519081
0.000551874
0.000529982
0.000674932
0.000638842
0.000612337
0.000589359
0.000573597
0.000723445
0.000957587
0.000808596
0.000858475
0.000921473
0.000750737
0.000367702
0.000359064
0.000343835
0.00035924
0.000357252
0.000354415
0.000247173
0.000231404
0.00144778
0.000383318
0.000382686
0.000378422
0.000390841
0.000396581
0.00039865
0.00040761
0.000374006
0.00036999
0.000411885
0.000420523
0.00128553
0.00138899
0.00143395
0.00147709
0.00120582
0.00114979
0.001252
0.00160285
0.00161732
0.00172532
0.00188387
0.0022998
0.00214802
0.00204413
0.0010899
0.000999642
0.000440121
0.00042491
0.000459732
0.000499024
0.000478474
0.000507883
0.000543199
0.000531801
0.000687007
0.000640864
0.000622455
0.000599586
0.000564564
0.000711226
0.000957969
0.000820715
0.000864035
0.000917475
0.000769027
0.000364285
0.000360667
0.000355018
0.000352607
0.000355339
0.000352835
0.000350262
0.000240995
0.000270589
0.000876942
0.000378568
0.000386071
0.000378239
0.000375367
0.000392454
0.000394777
0.000396878
0.000402175
0.000370426
0.000366747
0.000407844
0.000413929
0.00135208
0.00143875
0.00151874
0.00154941
0.00124263
0.00113384
0.00120241
0.0013241
0.00168543
0.0017137
0.00185319
0.00203003
0.00220444
0.00108349
0.00103712
0.000445153
0.000430215
0.000417648
0.000454158
0.000469646
0.000488512
0.000509332
0.000549032
0.000522313
0.000686393
0.000657447
0.000616497
0.00059993
0.000570708
0.000724443
0.000995985
0.000852059
0.00079996
0.000895015
0.000950725
0.000748567
0.000363759
0.000357202
0.000352119
0.000341749
0.000350274
0.000349011
0.000349021
0.000348961
0.000136386
0.00024041
0.000588908
0.000375738
0.00037752
0.000384095
0.000375348
0.000371261
0.000389784
0.00039076
0.000393272
0.000399557
0.000366815
0.000402212
0.000408828
0.000412451
0.00142868
0.00154099
0.00159792
0.00165802
0.00131357
0.00117101
0.00122874
0.00138614
0.00180914
0.00182906
0.00197657
0.00218676
0.00234378
0.00112735
0.00102842
0.000439194
0.000426103
0.000411566
0.000457804
0.000467277
0.000485797
0.000504279
0.000546086
0.000521407
0.000676677
0.000708671
0.000645432
0.000628019
0.000585403
0.00061556
0.000556689
0.00101304
0.000872551
0.000815886
0.000904361
0.000985867
0.000931488
0.000758406
0.000360462
0.000353726
0.000357105
0.000344615
0.000345238
0.000345501
0.000345283
0.000346772
0.000193614
0.000268328
0.00149917
0.000372322
0.000380318
0.000373825
0.000386271
0.00037198
0.000369728
0.000387234
0.000389062
0.000394964
0.000363922
0.000400119
0.000403492
0.000406877
0.00150727
0.00160022
0.00171671
0.00174833
0.00137484
0.00129382
0.00122444
0.00147448
0.00192832
0.00196505
0.00214252
0.00234525
0.00115551
0.00107289
0.00043129
0.000443083
0.000419262
0.000406479
0.000412672
0.000453013
0.000474291
0.000494091
0.000511358
0.000532331
0.000690441
0.000711747
0.000654967
0.00058531
0.00062379
0.000557297
0.00105504
0.000856703
0.000808716
0.00100386
0.000953955
0.000785624
0.000733275
0.000360263
0.000351121
0.000354259
0.000344045
0.000340473
0.000342493
0.000341735
0.000343198
0.000348324
0.000179949
0.000255571
0.00031926
0.000808388
0.000371537
0.000369109
0.000378199
0.000372389
0.000383186
0.000368828
0.000366602
0.000383562
0.00038619
0.000385959
0.000391129
0.000364046
0.000395426
0.000402552
0.00153436
0.00171357
0.00182059
0.00188751
0.00144576
0.00134706
0.00128108
0.00152897
0.00211148
0.00211879
0.00231002
0.00122768
0.00111476
0.000424362
0.000437416
0.000418179
0.000401953
0.000406611
0.000458437
0.000469611
0.000492675
0.000503417
0.000525894
0.00067823
0.00064457
0.000570943
0.000599407
0.000614035
0.000546056
0.00108094
0.000882285
0.000839026
0.000997659
0.00105478
0.0009254
0.000792279
0.000738697
0.000359084
0.00034962
0.000354204
0.000351306
0.000340997
0.000337004
0.000339591
0.000339455
0.000341767
0.000346383
0.000137154
0.000279388
0.000325487
0.000323282
0.00175677
0.000368253
0.000367008
0.000374476
0.000379745
0.00036916
0.000365081
0.000364089
0.000381165
0.000382215
0.000382162
0.00038696
0.000391432
0.000361156
0.000393562
0.000397622
0.00165486
0.00182054
0.00174679
0.00196531
0.00200866
0.00143014
0.00134705
0.00128719
0.00162046
0.00228917
0.00124151
0.00112828
0.000427184
0.000442149
0.000410109
0.000398449
0.000397631
0.000404656
0.000400988
0.000452805
0.000476529
0.000487229
0.000504436
0.000535012
0.000514357
0.000689164
0.00065495
0.000569399
0.000595937
0.00062357
0.000546141
0.000870097
0.000820357
0.00103429
0.00108318
0.000944333
0.000770238
0.000727972
0.000356426
0.000346731
0.000351528
0.00034994
0.000334269
0.000336814
0.000334618
0.000336029
0.000337493
0.000343721
0.000338866
0.000230673
0.000313715
0.000364619
0.000944779
0.0003671
0.000364579
0.000372533
0.000377126
0.000366825
0.000363182
0.000361409
0.000377925
0.000380254
0.000379508
0.000383706
0.000386605
0.000359936
0.00038942
0.00169193
0.00196571
0.00189229
0.00208583
0.00218353
0.00151187
0.00141603
0.00136283
0.00166987
0.00117943
0.00131189
0.000421226
0.000436173
0.000407056
0.000393525
0.000393627
0.000398357
0.00039682
0.000458381
0.000469638
0.000492732
0.000526724
0.000515828
0.000673932
0.000708839
0.000639991
0.000556698
0.000582291
0.000609022
0.000531843
0.000896426
0.000837359
0.00102415
0.00113052
0.000987804
0.000931991
0.000770214
0.000744396
0.000355505
0.000344993
0.000350972
0.000347833
0.000329782
0.000332329
0.000331272
0.000333512
0.000334538
0.000341924
0.000337309
0.000255259
0.00030983
0.000276412
0.00169081
0.000364476
0.000362013
0.000374382
0.000370078
0.000363965
0.000367555
0.000360703
0.000358712
0.000375547
0.000376642
0.000375822
0.000380308
0.000383516
0.000385357
0.000357246
0.000389722
0.00181838
0.00208412
0.00201109
0.00193615
0.00222524
0.00230537
0.00162054
0.00149441
0.00141033
0.00180769
0.00119125
0.00131479
0.00137766
0.000425753
0.000413261
0.000440702
0.00040052
0.000390307
0.000393114
0.000392269
0.000451605
0.000475027
0.00048736
0.000505069
0.00067901
0.000700252
0.000647634
0.000558156
0.000582172
0.000611219
0.000529436
0.000876062
0.000823934
0.0010731
0.00117954
0.00112274
0.000997854
0.00095822
0.000793405
0.000735634
0.000352868
0.000342584
0.000345807
0.00034842
0.000346977
0.00032705
0.000329402
0.000330465
0.000325314
0.000330157
0.000333382
0.000340075
0.000334974
0.000338368
0.000257785
0.000320308
0.000221148
0.00106942
0.000362889
0.00036209
0.000359991
0.000372146
0.000369821
0.000362136
0.000365074
0.00035845
0.000356582
0.00037261
0.000374286
0.000373941
0.000378231
0.000379657
0.000381896
0.000385463
0.002221
0.00218365
0.00211583
0.00232855
0.00170624
0.00157512
0.00152053
0.00192927
0.00126664
0.00138445
0.00144828
0.000421085
0.00040643
0.000435862
0.000400174
0.000394461
0.000385174
0.000387403
0.00038745
0.000456143
0.000474346
0.000494023
0.000505198
0.000670444
0.000712404
0.000643812
0.000544599
0.00057142
0.000596886
0.000627276
0.000519294
0.000896432
0.000846835
0.00107607
0.00122721
0.00117357
0.00103432
0.000939459
0.000779547
0.000752697
0.000351396
0.000341556
0.000344243
0.000347621
0.000344771
0.000325693
0.000326793
0.000324406
0.00032156
0.00032902
0.000331134
0.000338828
0.000335029
0.000336722
0.000256924
0.00032042
0.00053637
0.000228226
0.00194231
0.000360047
0.000359737
0.000357727
0.000367631
0.000360043
0.000362792
0.000365149
0.000355941
0.000354346
0.000370478
0.000371301
0.000375638
0.000371407
0.00037675
0.000378109
0.000382224
0.00230369
0.00229303
0.00210487
0.0018334
0.00168016
0.00158865
0.0019327
0.00127997
0.00140172
0.0015372
0.000413608
0.000426692
0.000406583
0.000440865
0.000395055
0.000388449
0.000383677
0.000384564
0.000382621
0.000449616
0.000466328
0.000484463
0.000497237
0.000684429
0.000706265
0.000660252
0.000550329
0.000577974
0.000595537
0.000626025
0.000528542
0.00088265
0.00082922
0.00112314
0.00121857
0.00120037
0.00103543
0.000966045
0.000797529
0.000745084
0.000352439
0.000349298
0.000342637
0.000339612
0.000345897
0.000343333
0.000323043
0.000324588
0.000319243
0.000321387
0.000321177
0.000327206
0.000330336
0.000336784
0.000333422
0.00029179
0.000321081
0.000579198
0.000200321
0.00114444
0.00035862
0.00035769
0.000355646
0.000367874
0.00035842
0.000360727
0.000362855
0.000353934
0.000368521
0.000373022
0.000368582
0.000371112
0.00037257
0.000376196
0.000378225
0.00229969
0.00188994
0.00176682
0.00171048
0.0021178
0.00133428
0.00148477
0.00161034
0.000411154
0.000424081
0.000400047
0.000437565
0.000394777
0.000388755
0.000383224
0.000379847
0.000379764
0.000378724
0.000451967
0.000467628
0.000485192
0.000505025
0.000678672
0.000721961
0.0006558
0.000534051
0.000555448
0.000567817
0.00060732
0.000637044
0.000510128
0.000909168
0.00084776
0.00108226
0.00116911
0.00128004
0.00126057
0.00100905
0.000949611
0.000788562
0.000762167
0.000350321
0.000348879
0.00034093
0.000339513
0.000345447
0.000344139
0.000341285
0.000321895
0.000325204
0.000315693
0.000319897
0.000315315
0.000318502
0.000327233
0.000328665
0.000331603
0.00033585
0.000333013
0.00029401
0.000317506
0.00036328
0.000236655
0.00178235
0.00035677
0.00035525
0.000353465
0.000365909
0.000356684
0.000358789
0.000360722
0.000363291
0.000351779
0.000366165
0.000370769
0.000366387
0.000368427
0.000371153
0.000373481
0.000376744
0.00201422
0.0017851
0.00177836
0.00214115
0.00148581
0.00157827
0.00173525
0.000402119
0.00041645
0.000430039
0.000443281
0.000388889
0.000385559
0.000377861
0.000375961
0.000375884
0.000374426
0.000460583
0.00047789
0.000487798
0.000693135
0.000713124
0.000665248
0.000499343
0.000497179
0.000560754
0.00059528
0.000619183
0.000477798
0.000885426
0.000836747
0.00108165
0.00120059
0.00130584
0.00126864
0.00102918
0.000978382
0.000807831
0.000748843
0.000349933
0.000346817
0.000340058
0.000338161
0.000343853
0.000343183
0.000340679
0.000321167
0.000324701
0.000316364
0.000313455
0.000311254
0.000317609
0.000325819
0.000328125
0.000330414
0.000337034
0.000334295
0.000331437
0.000311721
0.000315878
0.000310782
0.000297646
0.000240278
0.00109231
0.000355016
0.000353849
0.0003534
0.000351543
0.000355111
0.000356934
0.000358531
0.000362292
0.000363836
0.000367616
0.000366461
0.000363968
0.000368861
0.000371194
0.000372769
0.00205483
0.00193491
0.00191457
0.00231935
0.00144889
0.00160329
0.00167077
0.00182826
0.000401204
0.000417185
0.00042458
0.000446644
0.000383648
0.000380775
0.000373792
0.000376568
0.000372477
0.000371219
0.000370439
0.000464717
0.000483892
0.000456574
0.000682167
0.000725572
0.000652628
0.000480794
0.000470777
0.000454668
0.000555259
0.000467634
0.00058634
0.000615423
0.00044707
0.00090531
0.000856485
0.00112506
0.00118058
0.00137311
0.00132483
0.0010271
0.000951998
0.000787893
0.000760096
0.000347865
0.00034617
0.000338179
0.000337297
0.000342343
0.000341826
0.000339162
0.000319539
0.000323025
0.000314594
0.000310386
0.000310853
0.000316666
0.000326311
0.000329018
0.000330474
0.000335761
0.000334451
0.0003303
0.000294886
0.000311075
0.000306879
0.000506713
0.000241326
0.00177916
0.000352947
0.000351762
0.00035137
0.00034973
0.00035517
0.000353015
0.000356695
0.000358487
0.000360343
0.000362561
0.000365245
0.000364183
0.000362972
0.000366116
0.000368967
0.000370078
0.00221265
0.0019756
0.00200204
0.00152207
0.0016605
0.00178739
0.00197029
0.000393838
0.000409366
0.000427774
0.000429578
0.000449058
0.000386351
0.000377132
0.000376407
0.000369419
0.000371892
0.00036914
0.000368182
0.00036688
0.000468526
0.000434061
0.00068583
0.000701193
0.0006563
0.00044933
0.000437308
0.000413658
0.000492055
0.000411434
0.000512572
0.00055214
0.000402066
0.000890331
0.000821185
0.00113131
0.00123709
0.00136728
0.00107513
0.000978343
0.000792928
0.000719811
0.000347818
0.000344258
0.000337938
0.000335731
0.000340582
0.000342563
0.000340463
0.00033913
0.000319534
0.000322309
0.000313111
0.000314885
0.000307559
0.00030969
0.000317811
0.000325851
0.000328306
0.000328917
0.000333381
0.000328626
0.000330995
0.000301635
0.000305729
0.000309532
0.000304287
0.000348941
0.000240393
0.00121978
0.000351473
0.000350466
0.000349802
0.000353686
0.000351523
0.00035483
0.000356523
0.000358904
0.00035984
0.000361793
0.000361448
0.000360874
0.00036435
0.000367081
0.000367484
0.00230072
0.00214694
0.00216398
0.00161778
0.00146004
0.00177375
0.00189984
0.00208397
0.000392317
0.000404998
0.000406225
0.000402923
0.000421369
0.00037906
0.000372284
0.000372169
0.000368442
0.000366376
0.000366737
0.00036449
0.00036305
0.000443745
0.000399141
0.00069681
0.000637754
0.000416492
0.000402875
0.000481552
0.000506812
0.000439979
0.000588137
0.000519778
0.000567704
0.000422841
0.0009131
0.000813561
0.00118469
0.0013015
0.00135264
0.0010737
0.00102539
0.000952784
0.000737075
0.00070774
0.000346411
0.000343643
0.000336243
0.000335126
0.000339443
0.000341088
0.000337891
0.000320853
0.000323524
0.000311956
0.000314072
0.000305688
0.00030812
0.000310419
0.000318359
0.000324805
0.000327191
0.000333726
0.000332269
0.000327868
0.000329991
0.00030311
0.000301675
0.000306078
0.000302265
0.000436983
0.000233303
0.00105108
0.000349829
0.000348561
0.000348087
0.000352102
0.000353475
0.000350048
0.000354892
0.000356636
0.000359136
0.000360256
0.000358893
0.000358873
0.000361914
0.000365054
0.000364704
0.0023113
0.0016874
0.0015017
0.00186979
0.00179881
0.00205552
0.00222931
0.000381752
0.000395378
0.000404228
0.00037994
0.000395664
0.000375365
0.000411198
0.000378273
0.000373119
0.000366452
0.000367276
0.000364023
0.000362453
0.000363694
0.000364646
0.000361611
0.000363118
0.00036085
0.000389569
0.000648732
0.000426747
0.000326963
0.00101357
0.000649625
0.000459279
0.0010651
0.000545903
0.000577125
0.00053706
0.000843073
0.000750725
0.00120271
0.00133297
0.00143151
0.00112402
0.00102408
0.000965631
0.000703121
0.000663592
0.00034683
0.000344938
0.000342203
0.000335701
0.000338189
0.000339887
0.00034095
0.000337372
0.000336744
0.000321538
0.000322854
0.000312206
0.000315575
0.00030557
0.00030703
0.000309606
0.000320395
0.000317302
0.000324768
0.000325761
0.000332836
0.000331347
0.000328893
0.000326735
0.000330159
0.000304384
0.000283272
0.000300319
0.000300861
0.00030413
0.000302536
0.00021606
0.00020991
0.000451893
0.00175698
0.000348461
0.000348201
0.0003473
0.000351107
0.000351718
0.000348519
0.000349076
0.000352863
0.000355571
0.000356912
0.000357752
0.000356625
0.000356697
0.000361026
0.000362525
0.0003622
0.00168386
0.00159965
0.00201263
0.00190566
0.00218474
0.00232294
0.00037038
0.000383557
0.000381844
0.0003656
0.000348423
0.000323341
0.000355445
0.000366353
0.00036684
0.000363147
0.00036337
0.000361164
0.000362588
0.000358549
0.000359771
0.000358509
0.000545362
0.000636065
0.000983244
0.000455501
0.00107644
0.00117317
0.00117442
0.000606017
0.000822816
0.000807065
0.00127579
0.00117626
0.00140429
0.00146145
0.00107904
0.00100457
0.000847647
0.000668259
0.000345348
0.000344509
0.000342025
0.000334574
0.000337922
0.000338784
0.000340026
0.00033609
0.000335838
0.000323428
0.000311901
0.000314798
0.00030448
0.000307833
0.000310399
0.000319806
0.000317559
0.000325363
0.000331593
0.000333419
0.000327999
0.000326283
0.000329906
0.000301246
0.000295253
0.000298738
0.000296974
0.000298369
0.000302405
0.000250711
0.000315255
0.00125876
0.000346846
0.000346486
0.000345634
0.00034961
0.000351411
0.000347257
0.000347582
0.000352009
0.000353447
0.000355683
0.000357211
0.000356069
0.000354583
0.000354692
0.000358879
0.000359903
0.00181281
0.00163788
0.00217102
0.00194121
0.0022792
0.000360633
0.000347661
0.000362659
0.000354061
0.000284154
0.000349854
0.000339068
0.000364591
0.000351378
0.000363055
0.00035849
0.000359164
0.000357345
0.000360111
0.000357708
0.000355172
0.000358124
0.000354956
0.000356184
0.000454011
0.000636557
0.000872743
0.00132424
0.00133472
0.00127732
0.00121433
0.00143114
0.00155108
0.00109826
0.00103813
0.000798873
0.000726253
0.00034458
0.000343015
0.00034064
0.000334113
0.000336648
0.000338918
0.000335731
0.000334734
0.000322655
0.000313526
0.000315295
0.000305167
0.000307631
0.000311283
0.000320686
0.000318785
0.000316628
0.000324669
0.000330884
0.000332755
0.000328016
0.000326897
0.000325283
0.00032913
0.00029532
0.000300144
0.00029962
0.000296997
0.000295593
0.000295275
0.000301418
0.000303987
0.000247163
0.000620471
0.000251748
0.00182195
0.000345581
0.000345383
0.000348655
0.000349516
0.000345878
0.000346603
0.000349984
0.000352641
0.000353876
0.000355457
0.000353483
0.000352835
0.000352822
0.000357231
0.000357719
0.00182987
0.00174027
0.00229401
0.00211495
0.000293108
0.000300231
0.000329985
0.00045245
9.96224e-05
0.000334701
0.000351895
0.000342576
0.000357561
0.000356629
0.000353144
0.000356272
0.000355018
0.000355454
0.000353748
0.000355619
0.000354137
0.000719008
0.00122909
0.00137755
0.00133574
0.0012207
0.00153017
0.00141015
0.00108903
0.00116097
0.0009619
0.000343256
0.000342152
0.000339625
0.000333082
0.000336223
0.000337917
0.000334724
0.000334189
0.000321766
0.000323648
0.000312939
0.000314561
0.000306588
0.000309407
0.000310606
0.000320076
0.000319008
0.000317093
0.000331645
0.000327656
0.000326422
0.000324814
0.000329339
0.000292429
0.000297402
0.000299441
0.000296598
0.000293988
0.000292813
0.000302031
0.000304763
0.000276123
0.000472412
0.000225654
0.00133914
0.000343973
0.000343913
0.000347121
0.000348727
0.00034467
0.000345008
0.00034957
0.000350946
0.000352274
0.000353386
0.000354028
0.000351085
0.000351069
0.000351649
0.000354816
0.00035536
0.00196247
0.00177939
0.0021196
0.000284402
0.000284032
0.000307643
0.000344942
0.000871864
0.000854404
0.000328924
0.00035359
0.000364402
0.000352758
0.000352305
0.00035016
0.000352641
0.000351589
0.000353245
0.00035173
0.000353355
0.00035162
0.00128959
0.00160158
0.00149137
0.00115268
0.00116946
0.00126202
0.000342919
0.000341304
0.000340028
0.000338416
0.000332604
0.000337127
0.000335528
0.000337698
0.000334143
0.000333153
0.000322148
0.000323108
0.000313233
0.000315238
0.000307436
0.000308752
0.00031127
0.000320476
0.000318395
0.000316539
0.000331135
0.00032687
0.000328378
0.000325447
0.000323687
0.000330262
0.000290541
0.000290036
0.00029208
0.000299046
0.000300771
0.000297884
0.000294781
0.000291118
0.000303537
0.000306485
0.00028129
0.000312817
0.000752833
0.000239517
0.00191864
0.000343052
0.000343167
0.000345807
0.000347234
0.000343624
0.00034401
0.000347749
0.000350851
0.000352074
0.000352521
0.000349364
0.000349601
0.000349783
0.000353923
0.00191302
0.00170281
0.00229537
0.000257407
0.000226744
0.000297606
0.000357656
0.000256949
0.000318998
0.000348447
0.000356342
0.000347441
0.000350519
0.000346341
0.000350356
0.000350048
0.000351512
0.000351938
0.000349604
0.000351148
0.000349434
0.00132431
0.00159316
0.00146531
0.00106068
0.00123836
0.00123072
0.000341794
0.000339224
0.000337355
0.000331661
0.000336558
0.00033582
0.000334635
0.000336742
0.00033308
0.000321479
0.000312654
0.000314792
0.000309359
0.000310845
0.000319965
0.000318903
0.000317177
0.000326374
0.000328272
0.000325498
0.000323318
0.000329838
0.000287559
0.000287505
0.000288829
0.000293998
0.000300647
0.000297698
0.000294433
0.000292354
0.000303543
0.000306994
0.000292819
0.000277638
0.000275502
0.000603395
0.000229301
0.00127673
0.000341699
0.000342165
0.000344616
0.000345986
0.000346604
0.000342487
0.000343051
0.000347823
0.000349443
0.00035052
0.000350816
0.000347737
0.000349161
0.000348899
0.000347952
0.000348798
0.000351544
0.00200899
0.00175684
0.00218284
0.000220887
0.000390683
0.000430549
0.000317887
0.000349026
0.000370458
0.000342771
0.000346881
0.000344677
0.000342938
0.00034715
0.000347253
0.000349796
0.000349138
0.000347148
0.000349089
0.000346643
0.00138721
0.00167675
0.00154354
0.00155919
0.0012138
0.000340739
0.000338469
0.00033977
0.000336355
0.000337488
0.000331115
0.000335217
0.00033395
0.000336059
0.000332705
0.000321651
0.000313499
0.000315538
0.000309597
0.000311916
0.000320437
0.000318302
0.000316713
0.000326954
0.000327853
0.000329148
0.000325106
0.000322643
0.000324212
0.00033026
0.000285771
0.000288067
0.000285696
0.000299073
0.000302002
0.000295974
0.000292065
0.000305053
0.00030884
0.000306528
0.000289527
0.000284863
0.000237719
0.000403283
0.000255227
0.00118328
0.000341306
0.000340677
0.000341885
0.000343824