/*--------------------------------*- C++ -*----------------------------------*\
| =========                 |                                                 |
| \\      /  F ield         | OpenFOAM: The Open Source CFD Toolbox           |
|  \\    /   O peration     | Version:  v2012                                 |
|   \\  /    A nd           | Website:  www.openfoam.com                      |
|    \\/     M anipulation  |                                                 |
\*---------------------------------------------------------------------------*/
FoamFile
{
    version     2.0;
    format      ascii;
    class       volScalarField;
    location    "2.1";
    object      omega;
}
// * * * * * * * * * * * * * * * * * * * * * * * * * * * * * * * * * * * * * //

dimensions      [0 0 -1 0 0 0 0];


internalField   nonuniform List<scalar> 
13611
(
78.9578
49.5832
44.6405
40.7522
36.442
93.7883
43.4116
44.6241
89.9711
35.752
53.1292
46.8896
44.0465
49.7274
42.4049
35.9954
46.7425
78.916
50.6208
46.1754
49.4196
50.4604
86.2479
32.5413
42.7853
48.0647
51.6038
52.4241
47.0596
48.3424
50.0212
51.523
38.4282
35.8606
43.7226
52.6679
48.4345
93.1867
52.7905
46.1161
47.787
49.7103
51.1865
51.7679
30.0723
85.548
33.7216
44.8342
55.1658
50.3527
50.3556
54.0741
45.7793
48.5651
46.6376
50.6701
51.8226
53.2511
29.0704
37.8231
36.4653
44.4128
55.4355
55.3514
50.8904
90.2049
54.3365
44.6284
48.3418
46.3099
50.6397
52.8822
34.1679
30.8416
84.8041
42.3715
43.9291
57.9472
56.828
57.9226
48.2773
55.7078
44.4825
47.1601
49.2603
45.3997
51.6774
53.9684
36.2143
31.3473
38.2314
42.9174
42.7126
58.2689
56.9838
58.0359
59.0764
58.541
82.5289
55.5832
43.8638
46.7134
48.9913
45.0185
51.1543
52.604
53.8456
40.6824
34.7075
30.7142
80.1814
42.1945
42.3115
60.2133
58.366
59.5788
61.1865
61.9851
63.5335
56.9485
43.1506
44.1574
45.6446
47.4611
48.4802
50.2582
51.9797
55.3416
40.9381
34.2494
31.1547
46.3673
41.2451
41.6773
60.8876
58.6124
63.16
63.2736
62.52
71.4249
56.9714
42.6025
43.4143
45.6196
46.5656
49.206
50.3598
52.9913
55.599
40.7386
37.5085
28.5143
32.1706
40.5893
40.8807
41.8622
62.6877
60.1914
66.3006
65.2904
65.2167
75.6338
58.6959
42.663
43.6954
44.7654
46.9821
48.3466
51.3497
54.3459
52.4939
57.2702
40.0291
37.3057
30.6161
25.9061
86.2009
39.8408
40.256
41.427
64.9104
61.7366
60.3101
68.006
68.0777
65.8796
103.248
58.9169
41.7791
43.1315
44.7035
46.6386
48.7892
50.9154
54.3756
53.1961
57.2023
39.3898
38.377
29.8122
22.5918
52.7895
39.2628
39.5107
40.5635
66.0394
63.0818
61.9852
70.4316
68.3779
68.5862
75.4986
60.574
41.6125
43.5898
42.3507
45.5794
47.5037
48.5306
50.0532
52.0998
55.6708
58.9321
38.7828
38.1543
34.0725
32.5185
26.6798
58.1163
38.623
38.8404
40.2306
64.9976
68.4459
63.0527
69.6387
72.6439
70.7859
113.975
66.376
62.1267
60.4867
40.8411
43.2417
41.6726
45.4608
47.2113
49.3372
50.4026
52.6597
55.9349
59.058
38.0453
37.9821
33.8004
30.5518
24.8041
37.2822
37.8714
38.7898
38.0984
39.4707
66.4139
70.0853
65.302
72.3988
75.4095
78.529
77.5608
71.2717
63.3227
62.0236
40.9343
42.5005
44.0225
41.7472
46.2915
44.7461
48.0535
49.2566
51.4766
54.058
57.6879
55.2559
60.8534
37.5201
37.3856
35.9376
26.7756
27.6351
80.3962
38.1416
37.5964
39.4939
68.9437
72.5902
66.466
74.6389
78.2489
78.9763
88.8637
65.1432
62.9084
40.2747
42.6944
43.4335
41.0031
45.4651
44.7154
47.8705
50.2466
51.4638
53.8725
57.6326
56.2144
60.5512
62.5252
36.9276
36.7953
34.5995
25.4242
26.3097
45.0348
37.647
37.8066
36.961
38.9096
70.6034
75.0279
68.7987
77.1651
80.8331
83.4037
85.6777
110.442
66.072
64.9974
40.254
41.997
43.7341
40.7492
45.8525
48.9569
47.0127
50.0277
52.5844
54.9432
58.9212
56.1136
62.0481
64.1321
36.4475
36.5992
36.2052
36.3004
24.0395
31.8163
36.2208
37.1417
37.1998
38.2045
36.7321
39.0553
73.2198
75.3392
77.731
69.649
79.7278
83.7022
85.6691
89.1189
88.2652
68.3605
66.0226
39.748
41.9456
41.2258
43.4252
39.9606
45.1039
49.0127
47.3072
51.0346
52.1098
55.1185
58.719
57.3597
61.8665
64.0102
35.8721
36.0092
35.9628
35.5911
22.8673
32.2093
76.6893
25.2469
36.7477
37.626
36.2064
38.5694
73.7702
78.3642
80.6164
72.4019
82.2669
85.0061
89.5664
92.1935
89.9494
120.524
69.7423
67.9925
41.0416
42.6192
40.7125
44.1908
39.5584
45.4802
50.1153
48.2939
46.4945
51.0641
52.9984
54.2526
56.5824
60.0778
63.4386
65.9385
35.4975
35.1439
35.0205
27.4102
33.5266
93.0249
21.6842
36.156
36.9751
37.8185
35.6204
38.8017
76.876
81.2317
83.3495
74.1106
88.2376
92.6707
95.7857
94.9817
97.4003
72.2571
68.7414
41.0364
42.7556
39.9405
43.5529
45.0064
49.9382
48.7102
46.4968
52.0888
54.909
57.3678
59.1343
65.3382
63.365
67.9967
34.9585
34.7062
34.5852
27.5026
33.5381
49.2774
21.4326
35.6828
36.3848
37.3597
35.0378
38.3572
78.8698
84.2337
86.8409
77.0478
91.1955
96.3586
99.4077
98.9117
127.746
73.1958
71.3999
40.0818
41.8658
39.5688
43.9903
45.4871
50.7808
48.4207
47.3302
52.6212
54.0859
56.4662
60.1259
66.926
65.5205
62.0795
69.7249
34.4896
34.0355
33.9703
30.8015
33.6741
41.7454
22.7393
35.0582
35.8143
36.2637
36.7743
37.6828
34.5339
38.744
82.1457
86.6085
85.7493
90.3041
78.7131
95.8512
98.1845
103.42
106.732
110.611
76.2957
72.1982
39.7044
41.8629
43.5291
45.0568
50.581
51.9228
49.3855
46.8336
54.7825
57.2435
58.936
69.2213
66.5434
62.8591
33.9733
33.4771
31.0454
33.339
34.1649
21.7054
34.6783
35.3953
35.7482
36.404
37.1313
34.045
38.1259
83.7043
84.3288
90.2367
90.008
93.6873
82.1913
98.9837
103.298
105.302
111.364
138.071
114.342
77.3986
74.6836
39.0592
40.3238
41.0709
42.7643
44.1296
45.7189
51.5362
52.6034
48.8646
47.5521
53.8641
56.3167
59.6014
71.4426
64.7686
68.6416
61.3875
33.5417
32.9644
32.3302
28.2206
32.6321
19.7385
95.4124
18.9084
34.2359
34.8972
35.35
35.8161
36.591
36.942
33.8858
33.6047
37.3857
38.3623
87.2047
87.7788
93.3717
93.2985
97.4291
84.6069
104.433
106.524
110.892
115.107
127.169
122.078
80.7427
75.22
39.0554
39.6178
41.1574
42.756
43.5347
45.2217
52.0516
49.7417
47.1648
54.5289
57.0529
58.7045
70.5785
74.0702
64.9221
68.5186
61.7373
33.0419
32.4198
32.1134
29.4568
32.1458
18.6523
43.6566
23.8447
33.8845
34.6843
34.9267
35.5087
36.2067
36.3326
33.513
33.2115
37.0448
38.005
90.0339
91.6503
96.9264
97.9111
100.665
83.8768
88.7655
108.323
112.188
121.353
151.45
128.765
80.8229
78.3899
38.3597
39.7928
41.9589
40.5401
44.0727
45.9184
53.6296
51.1463
49.2012
48.0049
56.1326
59.5736
72.5341
75.7949
63.6312
66.9867
70.8022
61.2468
32.7051
32.0725
31.0363
31.9627
31.6648
18.1455
90.1326
22.8788
33.9502
33.5322
34.2998
34.5714
35.0948
35.7692
36.087
33.1678
32.8258
36.4422
37.3821
93.8522
94.8828
102.481
105.197
87.6109
91.4621
114.076
117.928
127.559
148.582
138.271
84.073
78.5321
37.8527
39.6631
41.819
40.2692
43.4569
45.6161
54.3954
51.7368
49.9467
47.4926
56.9437
58.7115
75.0295
64.3462
67.6841
71.8743
62.5843
32.2561
31.648
31.1346
31.5027
31.2458
16.0085
45.7237
26.1291
33.5288
33.2163
34.1615
34.7029
34.9849
35.3432
35.4884
32.8511
32.5032
36.072
36.8183
96.9759
99.5521
103.261
107.07
108.497
91.4865
87.518
95.5885
117.175
117.819
125.32
136.312
167.843
149.673
146.902
84.0984
81.0032
38.2238
36.9963
39.1268
42.551
40.895
43.9782
46.5221
44.8253
55.9996
53.2353
51.1941
49.4152
48.1968
59.6936
77.2921
66.1422
69.8944
74.6042
61.7643
32.0099
31.3265
30.0274
31.2207
31.1192
30.9339
22.7746
22.2578
94.292
33.2798
33.2284
32.8842
33.883
34.3404
34.5057
35.22
32.5228
32.1965
35.5589
36.2449
101.352
108.838
112.067
115.161
95.5446
91.4513
98.9155
124.15
125.181
132.858
144.035
173.078
162.573
155.267
87.0628
80.4102
37.788
36.5885
39.3321
42.4115
40.8045
43.0997
45.8437
44.9594
56.9107
53.3786
51.9635
50.1981
47.4966
58.7577
77.3217
67.0376
70.2958
74.2888
63.1327
31.7306
31.4386
31.0003
30.613
30.8839
30.7634
30.5987
21.6497
24.9091
58.9062
32.8975
33.5007
32.8704
32.6395
34.0104
34.1959
34.3642
34.7866
32.2356
31.932
35.2368
35.7207
106.166
112.417
118.15
120.337
98.2145
90.2864
95.2957
104.144
130.014
132.024
141.892
154.292
166.462
86.5962
83.18
38.1796
37.0044
36.012
38.8896
40.1099
41.5867
43.2081
46.2922
44.2195
56.856
54.642
51.5014
50.2239
47.9702
59.7507
80.1374
69.3896
65.4658
72.6092
76.7535
61.5781
31.6877
31.1491
30.7598
29.7795
30.5045
30.4813
30.4475
30.5027
15.7428
22.5854
40.6156
32.6695
32.8121
33.3406
32.6379
32.307
33.796
33.8741
34.0748
34.5764
31.9398
34.7875
35.3151
35.6011
111.69
119.751
123.804
128.081
103.37
93.0056
97.2194
108.619
138.775
140.177
150.559
165.224
176.119
89.8146
82.5403
37.7054
36.6746
35.5264
39.172
39.9178
41.3684
42.8117
46.0637
44.1456
56.1114
58.5489
53.7189
52.3827
49.1067
51.4273
46.8864
81.3829
70.9114
66.6515
73.2916
79.3596
75.3079
62.313
31.4174
30.87
31.1413
29.9636
30.0921
30.1959
30.1599
30.3156
18.447
24.5324
91.5429
32.3935
33.0369
32.5137
33.5139
32.3667
32.1845
33.591
33.7372
34.2085
31.7061
34.621
34.8901
35.1565
117.324
123.971
132.252
134.483
107.794
101.948
96.9043
114.975
147.159
149.742
162.156
176.223
91.8809
85.8143
37.0804
38.0086
36.131
35.1226
35.6097
38.7923
40.4649
42.0145
43.3615
44.995
57.1539
58.7769
54.447
49.1087
52.063
46.9412
84.4815
69.7175
66.1057
80.6729
76.9626
64.3678
60.4087
31.4033
30.6474
30.9073
29.8698
29.7304
29.9587
29.8745
30.0256
30.42
17.5945
22.913
28.0262
50.8063
32.329
32.1332
32.8662
32.3977
33.2664
32.1109
31.9316
33.2962
33.507
33.4872
33.9017
31.7214
34.2464
34.8136
119.259
132.027
139.589
144.305
112.899
105.798
101.019
118.868
159.98
160.48
173.779
97.1443
88.8871
36.5289
37.5608
36.0401
34.7618
35.126
39.2172
40.0967
41.9023
42.7431
44.5
56.2265
53.6586
48.0011
50.1999
51.3244
46.0718
86.3662
71.6205
68.381
80.2041
84.4335
74.8371
64.8709
60.822
31.3111
30.5206
30.9065
30.6609
29.6435
29.4527
29.6908
29.7038
29.8922
30.2529
15.0446
24.5091
28.5035
24.4227
101.551
32.0622
31.9621
32.5661
32.99
32.136
31.8067
31.7275
33.1026
33.1871
33.1821
33.567
33.9268
31.4863
34.0966
34.4197
127.856
139.586
134.374
149.772
152.802
111.788
105.795
101.472
125.395
172.331
98.1235
89.8487
36.7507
37.9347
35.3983
34.48
34.4185
34.9662
34.6793
38.776
40.6394
41.4787
42.8274
45.2134
43.6026
57.0647
54.4603
47.8867
49.9385
52.068
46.0828
70.7083
66.9846
82.8999
86.5079
76.2397
63.2121
60.0159
31.0934
30.28
30.6858
30.5491
29.2164
29.2898
29.281
29.4068
29.5423
30.0305
29.6545
20.7893
27.3265
24.7254
52.9992
31.9689
31.7635
32.4084
32.7779
31.9462
31.6506
31.5103
32.8407
33.0294
32.9683
33.3061
33.5403
31.3889
33.7642
130.469
149.8
144.642
158.196
165.005
117.653
110.771
106.945
128.911
93.5794
103.22
36.2806
37.4662
35.155
34.0878
34.0979
34.4644
34.3447
39.2173
40.1026
41.913
44.5704
43.7203
55.9114
58.5657
53.325
46.901
48.8822
50.9451
44.9703
72.6739
68.264
82.148
89.9765
79.4654
75.3239
63.217
61.2675
31.0242
30.1315
30.6473
30.3757
28.8745
28.9388
29.0113
29.2057
29.2962
29.8724
29.5127
22.7353
26.9806
20.9028
96.3552
31.7557
31.5549
32.5559
32.2081
31.7133
32.004
31.4458
31.2889
32.6489
32.7387
32.6715
33.0325
33.2921
33.4394
31.1706
33.7862
139.426
158.077
152.972
147.707
167.903
173.452
125.41
116.401
110.364
138.679
94.4177
103.399
107.978
36.6416
35.6482
37.8267
34.6352
33.8296
34.0455
33.9827
38.6858
40.528
41.4947
42.8813
56.3056
57.9228
53.913
47.004
48.859
51.0957
44.784
71.1632
67.2649
85.7555
93.5626
89.3993
80.2102
77.2726
64.9698
60.6139
30.8089
29.9256
30.1995
30.4379
30.3135
28.6551
28.8534
28.7568
28.4946
28.9273
29.1944
29.7121
29.3172
29.5745
22.1986
27.8573
18.0511
57.0557
31.6255
31.5615
31.3877
32.3732
32.1843
31.5622
31.8
31.2632
31.1169
32.4105
32.549
32.5202
32.8666
32.9824
33.1606
33.4441
167.607
165.013
160.283
175.06
131.496
122.168
118.278
147.224
99.9097
108.424
113.024
36.2752
35.1072
37.4432
34.6083
34.1521
33.4198
33.5897
33.597
39.0425
40.4745
42.0174
42.8941
55.653
58.8501
53.5988
45.9452
48.0224
49.9867
52.3223
43.9766
72.6893
68.9911
85.9749
97.034
93.1134
82.9031
75.8938
63.9415
61.9106
30.6888
29.8385
30.0751
30.375
30.1286
28.5438
28.6375
28.3368
28.1998
28.8314
29.004
29.6
29.2924
29.4217
22.608
27.8496
30.5407
19.8533
106.022
31.3928
31.3689
31.2026
32.0062
31.3907
31.6134
31.8037
31.0528
30.9302
32.2387
32.3074
32.6573
32.3149
32.7481
32.8563
33.1844
173.335
172.601
159.521
140.49
129.648
123.128
147.462
100.871
109.662
119.398
35.6827
36.72
35.1233
37.8328
34.2017
33.6726
33.298
33.3647
33.2067
38.5195
39.8396
41.2655
42.2481
56.7131
58.3742
54.8429
46.3211
48.515
49.8649
52.2046
44.6178
71.6715
67.6844
89.4337
96.3961
95.0681
82.9922
77.8765
65.3022
61.3146
30.7736
30.5136
29.9351
29.6697
30.2283
30.011
28.3223
28.4542
28.0096
28.0964
28.1661
28.6736
28.9161
29.4251
29.1466
25.5483
27.9664
29.7171
18.9962
56.0383
31.2749
31.201
31.0282
32.027
31.2555
31.4424
31.6172
30.8887
32.0837
32.4463
32.0873
32.291
32.4119
32.7005
32.8625
173.062
144.468
135.781
131.793
160.424
104.796
115.623
124.569
35.486
36.5044
34.6057
37.5515
34.1842
33.6977
33.2548
32.991
32.98
32.8954
38.6861
39.9278
41.3174
42.7941
56.2596
59.5581
54.494
45.0667
46.7428
47.7233
50.7745
53.0651
43.2206
73.6574
69.0769
86.4484
92.7974
100.861
99.4534
81.0608
76.6667
64.5956
62.5948
30.5953
30.4766
29.7929
29.6643
30.1875
30.0807
29.8393
28.228
28.5061
27.7263
27.9547
27.6717
27.9379
28.6596
28.7734
28.9997
29.3411
29.094
25.6697
27.6945
22.6195
21.9646
98.7874
31.1213
30.9997
30.8483
31.8682
31.1119
31.2835
31.4417
31.6539
30.7056
31.8916
32.266
31.9084
32.0744
32.2962
32.4817
32.7428
153.187
137.081
136.562
162.033
115.69
122.31
133.465
34.7701
35.899
36.9591
37.9858
33.7154
33.4454
32.826
32.6782
32.6697
32.5506
39.3561
40.7229
41.4905
57.3529
58.8794
55.239
42.5194
42.5095
47.2641
49.9152
51.794
40.8719
71.8921
68.2186
86.4226
95.1041
102.723
100.054
82.5607
78.8043
66.0303
61.5866
30.5551
30.301
29.7306
29.5507
30.0506
29.9957
29.7849
28.1559
28.4441
27.7582
27.4876
27.3543
27.8562
28.5304
28.7073
28.8854
29.4435
29.2028
28.9528
26.8836
27.4935
27.2388
20.0809
22.6761
52.5496
30.9759
30.8824
30.8459
30.6859
30.9803
31.1287
31.2624
31.5744
31.7028
32.0112
31.9144
31.7113
32.111
32.2962
32.4229
156.039
147.639
146.173
174.428
113.04
124.099
128.908
140.004
34.6757
35.9252
36.4948
38.217
33.2911
33.0627
32.4995
32.7245
32.3987
32.2939
32.2305
39.6443
41.1479
39.2443
56.5296
59.8228
54.34
41.2573
40.4374
39.5438
46.9827
40.5964
49.3802
51.6216
38.6408
73.3739
69.6844
89.6107
93.666
107.592
104.122
82.408
76.849
64.5436
62.4464
30.3764
30.2377
29.5714
29.4907
29.9192
29.8781
29.6526
28.0132
28.299
27.5973
27.2423
27.2973
27.7594
28.5598
28.7663
28.8687
29.3442
29.2217
28.8571
25.7722
27.1825
26.9314
27.0965
21.0783
98.0995
30.8014
30.7069
30.6771
30.5345
30.9834
30.8061
31.109
31.2602
31.4145
31.5987
31.8199
31.7279
31.6292
31.8898
32.1172
32.2059
167.04
150.467
152.286
118.286
128.152
137.175
150.042
34.0819
35.2997
36.7261
36.9293
38.4561
33.4928
32.7718
32.7137
32.1489
32.3503
32.1296
32.0502
31.9444
39.9806
37.6034
56.852
58.0356
54.6866
39.0791
38.1209
36.7843
42.5155
36.7333
44.1779
47.1697
35.5118
72.2295
67.1026
90.0727
97.7971
107.198
85.9412
78.7986
64.9659
59.5293
30.3715
30.0699
29.5477
29.3563
29.7688
29.9288
29.7566
29.6426
27.9895
28.2208
27.464
27.6115
27.0112
27.1809
27.8375
28.5004
28.6799
28.7217
29.1353
28.7057
28.9185
26.2493
26.8208
27.0406
26.73
21.6459
20.6744
63.3213
30.6794
30.5994
30.5445
30.8589
30.6801
30.9545
31.0994
31.2987
31.3774
31.5407
31.5088
31.4568
31.7461
31.964
31.9959
173.13
162.455
163.632
125.124
113.875
136.192
145.139
158.013
33.9326
34.9385
35.1196
35.035
36.4802
32.9
32.3804
32.3736
32.0725
31.904
31.9356
31.7519
31.6356
38.2068
35.2183
57.7797
53.4204
36.882
35.6784
41.9854
43.7784
38.9116
49.7282
44.8724
48.4377
37.037
73.91
66.6293
93.9724
102.469
106.166
85.8137
82.2813
76.869
60.9437
58.74
30.2526
30.0136
29.3983
29.3027
29.6644
29.7919
29.5307
28.0893
28.2978
27.3501
27.5213
26.8454
27.0476
27.2156
27.8524
28.4031
28.5817
29.1778
29.0346
28.6392
28.8288
26.2822
26.4976
26.79
26.5464
24.8041
21.4109
49.8574
30.54
30.4371
30.3998
30.7252
30.8405
30.555
30.9621
31.1112
31.3177
31.4155
31.2989
31.2936
31.5486
31.8007
31.7719
173.866
130.079
116.893
142.972
137.976
156.069
168.171
33.1057
34.187
34.9117
33.2496
34.6211
33.0276
35.8495
32.8168
32.4314
31.9166
31.9815
31.7179
31.588
31.6902
31.7671
31.5196
31.642
31.4585
34.5555
54.327
37.7288
30.4013
80.2112
54.361
40.6605
84.1707
47.0179
49.3427
45.399
68.8646
62.0913
95.275
104.734
111.855
89.5252
82.2254
77.8325
58.603
55.6068
30.2909
30.1247
29.8876
29.3415
29.5507
29.6887
29.7734
29.4818
29.4253
28.1091
28.2107
27.3658
27.6111
26.8111
26.9294
27.1274
27.9986
27.7448
28.3699
28.4478
29.0931
28.9597
28.7247
28.533
28.8499
26.5351
24.8342
26.3889
26.416
26.6431
26.5455
16.7423
19.8085
24.7531
101.547
30.4248
30.4012
30.3319
30.6406
30.6923
30.4269
30.4673
30.7945
31.0245
31.1353
31.2118
31.1157
31.1128
31.4742
31.5939
31.5682
129.874
123.891
153.041
145.528
165.076
174.671
32.2667
33.3439
33.2781
32.2215
31.4298
29.4394
31.9815
31.8908
31.9263
31.6446
31.6668
31.4862
31.6011
31.2718
31.3712
31.2694
45.9442
53.5328
77.9865
39.6147
85.0926
92.0111
92.0752
50.3637
67.5157
66.1347
100.598
93.3436
109.884
113.98
86.2677
80.7625
69.4866
56.054
30.1634
30.0886
29.8712
29.2354
29.5069
29.578
29.6914
29.3629
29.3411
28.2453
27.3147
27.5202
26.7021
26.9763
27.1801
27.9237
27.7284
28.4105
28.9843
29.1343
28.6374
28.4845
28.8234
26.3223
25.5746
26.2374
26.1018
26.1984
26.5025
22.6097
18.7574
62.8394
30.2851
30.2538
30.1876
30.5112
30.6694
30.3161
30.3385
30.728
30.8497
31.0319
31.1655
31.0729
30.9463
30.95
31.2988
31.3828
139.015
126.594
164.114
148.055
171.633
31.6283
30.5604
31.9525
31.5184
26.6921
31.6053
30.5444
31.7306
30.7745
31.6135
31.272
31.3292
31.179
31.4005
31.2039
30.999
31.2392
30.982
31.0814
39.2377
53.7015
70.9834
102.722
103.5
100.716
96.1178
111.83
120.411
87.7079
83.2232
66.256
60.2655
30.098
29.9592
29.7477
29.1864
29.3867
29.5869
29.3152
29.2386
28.1647
27.4157
27.5262
26.7189
26.9277
27.2158
27.9787
27.8215
27.6298
28.3374
28.9074
29.0635
28.6421
28.5342
28.3863
28.7421
25.9272
26.0976
26.2751
26.0961
25.987
25.948
26.4111
26.6041
22.9231
31.5321
20.2969
109.742
30.1778
30.1556
30.4321
30.5096
30.1962
30.2516
30.5603
30.7822
30.8824
31.0212
30.8618
30.8058
30.7939
31.1646
31.2048
140.179
133.865
172.665
160.217
26.7455
27.1607
29.5394
39.0052
13.1887
30.4204
30.7501
30.0749
31.167
31.1247
30.8426
31.0949
30.9892
31.021
30.8833
31.0355
30.9158
58.9468
95.982
106.562
104.941
96.5485
118.94
110.311
86.9876
92.3033
77.8471
29.98
29.8848
29.655
29.0867
29.3325
29.4926
29.219
29.1783
28.0737
28.2389
27.3364
27.4396
26.8243
27.0361
27.1365
27.8986
27.8146
27.6383
28.9603
28.5875
28.4786
28.3315
28.7337
25.6948
25.9247
26.2291
26.0272
25.8437
25.7488
26.4178
26.6271
24.809
23.7711
19.7097
70.7514
30.0359
30.0245
30.2983
30.4501
30.0869
30.1105
30.5263
30.6406
30.7469
30.8527
30.9027
30.6597
30.6528
30.6942
30.967
31.0134
149.543
136.661
160.534
26.091
26.1243
27.7006
30.7699
70.9168
69.3722
29.0425
30.8567
31.6266
30.793
30.777
30.6048
30.8023
30.7124
30.8417
30.7193
30.8511
30.7118
101.574
124.036
116.134
91.5749
93.0352
98.5887
29.9459
29.8063
29.6895
29.5413
29.026
29.4117
29.2571
29.4744
29.1416
29.0709
28.0877
28.1754
27.3355
27.4622
26.8495
26.9465
27.1518
27.9164
27.7386
27.5635
28.8966
28.5102
28.6344
28.3805
28.2238
28.8058
25.5471
25.5051
25.6118
25.9494
26.3077
26.1008
25.8853
25.5943
26.5157
26.7469
25.0101
20.1103
38.1267
21.873
117.471
29.9525
29.9526
30.1909
30.3239
29.9907
30.0254
30.3732
30.6303
30.7443
30.7789
30.5191
30.5296
30.5377
30.8949
146.097
131.244
172.764
24.1817
21.942
27.0409
31.2018
24.1902
28.2694
30.4363
31.0312
30.3597
30.6326
30.2982
30.6152
30.5861
30.7012
30.736
30.5471
30.6689
30.5341
104.052
123.423
114.267
85.0268
97.7208
97.503
29.8447
29.6129
29.4417
28.9302
29.3589
29.2793
29.1694
29.3829
29.0475
28.0084
27.2577
27.3938
26.9684
27.0896
27.843
27.7536
27.5852
28.4349
28.5996
28.3622
28.1671
28.7358
25.3037
25.2929
25.3758
25.6308
26.2637
26.0472
25.8242
25.6625
26.4723
26.7451
25.5012
24.7874
18.8824
28.8876
21.5125
70.9815
29.8278
29.8565
30.0844
30.2129
30.2741
29.886
29.9396
30.3751
30.5088
30.6157
30.6366
30.3828
30.5024
30.4666
30.3956
30.4532
30.7005
152.827
135.069
164.958
21.559
33.7232
36.4539
28.1598
30.4577
31.8378
29.9928
30.3386
30.1627
30.0217
30.3555
30.3593
30.5608
30.507
30.347
30.5008
30.3068
108.638
129.37
119.892
119.969
96.4774
29.7454
29.5405
29.6568
29.3436
29.4515
28.8534
29.2179
29.0882
29.3168
28.9885
28.0049
27.292
27.4224
26.9511
27.1329
27.8638
27.6775
27.5188
28.4524
28.5295
28.66
28.2988
28.0883
28.2193
28.7603
25.1595
25.3047
25.1517
26.1292
26.3428
25.9088
25.6038
26.5565
26.871
26.6753
25.2631
25.1377
19.6257
21.6855
23.5981
65.244
29.7829
29.7353
29.8274
30.0171
30.1156
30.1431
29.8006
29.8453
29.9332
30.257
30.5542
30.567
30.281
30.3394
30.3263
30.2882
30.3333
143.715
173.268
41.0886
27.2007
30.2153
29.2012
35.9886
29.5797
30.2095
29.894
29.7329
30.2373
30.2186
30.3924
30.4202
30.2175
30.3371
107.737
133.638
127.626
114.487
29.517
29.5691
29.2739
29.4018
28.8537
29.151
29.236
29.0207
29.0865
28.9204
27.939
27.2249
27.3763
27.0476
27.8435
27.6872
27.5301
28.3803
28.5262
28.5994
28.3081
28.0876
28.1631
28.7268
25.0105
25.4786
25.2033
24.9998
26.097
26.3203
25.8413
25.7049
26.5337
26.8884
26.7263
25.0392
24.9201
25.2203
25.0904
20.1358
17.6653
22.4519
28.7356
29.6965
29.6207
29.7302
30.0302
30.0613
29.6827
29.7801
29.8719
30.1322
30.237
30.4229
30.3907
30.1778
30.3048
30.2612
30.1864
143.877
173.244
28.3907
26.5569
30.2543
27.4782
27.4874
51.4776
29.4915
29.5309
29.9654
29.683
29.7961
30.0176
30.0217
30.277
30.2873
30.0419
30.2777
30.1869
127.09
134.53
128.284
130.08
29.4384
29.5473
29.3086
29.2045
28.7782
29.0996
29.1867
28.9568
29.0241
28.9049
27.8933
27.2712
27.4189
27.0689
27.7809
27.6242
27.4946
28.3672
28.4807
28.6007
28.2506
28.0437
28.1823
28.6672
25.0522
24.9061
25.4552
25.2374
26.0313
26.2158
26.4223
25.9115
25.6764
26.626
26.8336
26.9915
26.7181
24.626
24.7044
25.0028
24.6541
18.2833
23.5256
29.5996
29.6723
29.6468
29.9153
29.9432
29.6437
29.7987
29.6998
30.0301
30.1323
30.331
30.046
30.1806
30.138
30.0544
152.585
164.508
28.3358
26.4723
29.5491
47.7578
26.1536
29.2674
29.0245
29.8745
29.433
29.5613
29.9192
29.8869
30.142
30.1279
29.8953
30.0127
30.0909
30.0727
30.0528
144.04
137.783
29.3921
29.4403
29.2675
29.1304
28.7854
29.1171
29.0284
28.9611
28.8508
27.9584
27.2645
27.3511
27.1859
27.7926
27.644
27.5594
28.3139
28.4213
28.5086
28.5594
28.2548
28.0698
28.1307
28.6487
25.0417
24.7941
25.3528
25.5579
25.1467
26.0738
26.1861
26.4372
25.882
25.7713
26.6495
26.8776
27.0293
26.8018
24.4803
24.6591
24.9979
24.5485
24.327
29.5503
29.5984
29.5615
29.8579
29.8722
29.5476
29.71
29.6621
29.9211
30.0304
30.1873
30.0477
29.9752
30.1171
30.0267
171.983
27.4908
26.3872
29.3143
20.7932
29.2507
29.0261
28.8781
28.8546
29.671
29.3769
29.5013
29.7424
29.7244
30.0564
29.7334
29.8494
30.0572
29.8963
29.9251
146.708
29.32
29.3999
29.2087
29.0884
29.1009
28.7459
28.99
28.9027
28.8178
27.9612
27.3903
27.2082
27.88
27.7228
27.5665
28.3138
28.4117
28.4624
28.5843
28.2135
28.0274
28.1428
28.6902
24.9244
24.8073
25.3441
25.5708
25.2045
26.0774
26.2577
26.5652
26.3673
25.9861
25.7876
26.7751
26.9686
27.1376
26.8597
24.4782
24.6049
24.3058
24.2682
29.4775
29.523
29.5056
29.5015
29.7778
29.7918
29.5328
29.641
29.5978
29.8338
29.921
29.9404
29.8626
29.9875
29.9195
165.06
27.853
25.8968
28.8259
15.6659
29.0212
28.8948
28.5006
28.5909
29.611
29.1573
29.3039
29.6505
29.6515
29.9141
29.7178
29.8083
29.9147
29.8359
29.8228
29.8021
29.244
29.3363
29.1522
29.194
29.0253
29.0307
28.7617
28.9365
28.8981
28.8453
27.9298
27.5091
27.3898
27.316
27.8758
27.7569
27.6601
28.2637
28.3674
28.4774
28.5754
28.2136
27.9977
28.1257
28.6647
24.869
24.6859
25.4493
25.6879
25.1794
26.1829
26.6052
26.4164
25.9059
26.8107
27.0324
27.177
26.9827
24.4387
24.6065
24.1405
24.2809
24.3514
24.2095
29.4319
29.4527
29.4314
29.4312
29.6833
29.7026
29.4718
29.5274
29.5164
29.7267
29.7829
29.872
29.8277
29.8396
29.7538
29.8905
29.7851
27.4475
20.2938
26.9119
28.4989
19.6681
28.9825
28.7002
28.241
28.3858
28.4307
29.4656
29.131
29.2935
29.4952
29.4944
29.5569
29.6546
29.7919
29.6965
29.6749
29.6869
29.2566
29.359
29.1088
29.128
28.9958
29.0177
28.7344
28.8984
28.8422
28.8152
27.9492
27.5461
27.4864
27.3411
27.8379
27.9164
27.7233
27.6679
28.2626
28.3999
28.5402
28.4626
28.6243
28.1808
28.0416
28.1032
28.6924
24.9482
24.7446
24.6548
25.4386
25.6949
25.3078
25.0754
26.2571
26.5403
26.7272
26.397
25.9268
26.9513
27.1379
27.283
27.0557
24.5256
24.0158
24.053
24.2984
24.18
29.3863
29.3693
29.3746
29.6411
29.459
29.4003
29.488
29.6522
29.6936
29.7685
29.7452
29.7322
29.6423
29.7659
29.7213
27.6194
20.7998
26.0054
28.0754
15.5535
28.7709
28.5034
28.6215
27.9472
28.182
28.2057
29.4124
28.9374
29.1976
29.4122
29.4393
29.5288
29.5844
29.657
29.6126
29.5909
29.2078
29.3106
29.059
29.1036
28.9276
28.9784
28.7637
28.8402
27.6197
27.4909
27.4305
27.8497
27.9533
27.7594
27.7181
28.2141
28.3214
28.4251
28.537
28.4985
28.6167
28.1846
28.0176
28.1409
28.6511
24.856
24.7508
25.5671
25.6943
25.845
25.3327
25.1059
26.252
26.6029
26.7857
26.5
26.0937
26.9655
27.0421
27.1923
27.2753
27.1695
24.5304
24.0033
23.9007
24.3379
24.1623
29.3233
29.2975
29.3048
29.5557
29.3805
29.3391
29.409
29.5611
29.6393
29.6123
29.6436
29.6871
29.6352
29.5367
29.6549
29.6298
27.0622
23.9143
26.1791
27.7504
45.2953
28.7523
28.3066
28.4271
27.9541
27.719
28.0561
29.2683
28.9029
29.051
29.2843
29.3059
29.4031
29.4641
29.563
29.4744
29.4794
29.1536
29.2437
29.0105
29.0666
28.9232
28.9587
28.7294
28.8161
27.6145
27.5533
27.4449
27.8124
27.9091
27.7239
28.2545
28.3753
28.4899
28.4173
28.5747
28.0557
28.1251
28.6503
24.8838
24.6569
25.602
25.8511
25.9425
25.2355
25.4879
25.0114
26.2114
26.419
26.7194
26.907
26.5283
26.067
27.0675
27.134
27.3453
27.2314
24.4425
24.1109
23.9378
23.8012
24.2552
29.2668
29.2486
29.2568
29.5037
29.3275
29.3461
29.2762
29.383
29.5039
29.5621
29.5439
29.5895
29.5716
29.5506
29.5261
29.4504
29.5554
27.0119
22.6678
25.2908
27.5105
11.7109
28.5931
28.2728
28.1201
28.3349
27.763
27.4801
27.818
29.2064
28.7529
28.983
29.1597
29.2428
29.1657
29.2974
29.3092
29.405
29.3487
29.4664
29.4114
29.4235
29.1161
29.1967
29.0225
28.967
29.0763
28.899
28.921
28.6892
28.7468
28.7907
28.8596
27.6726
27.583
27.4325
27.5351
27.8291
27.9374
27.7343
27.801
28.281
28.3899
28.4921
28.4566
28.5748
28.0781
28.1837
28.6225
24.7925
24.6737
25.7713
25.8916
25.3217
25.532
25.0787
26.3531
26.464
26.8029
26.9616
26.6736
26.1813
27.1429
27.0546
27.2275
27.3307
24.4714
24.1516
23.9794
23.838
24.2849
29.2088
29.1871
29.1919
29.4239
29.264
29.2804
29.2197
29.3047
29.5124
29.4514
29.456
29.488
29.5063
29.4636
29.4371
29.3579
29.4397
27.0305
26.3643
23.9954
25.3794
27.2622
27.3461
57.5393
28.603
28.4471
28.1
27.9489
28.2038
27.5253
27.6941
29.0738
28.7225
28.8326
29.049
29.0967
29.0595
29.1884
29.1813
29.2885
29.264
29.3767
29.2729
29.3343
29.1209
29.152
28.9996
28.9482
29.0508
28.9094
28.6977
28.7388
28.8053
28.8389
27.7371
27.6789
27.531
27.6039
27.8938
28.0238
27.8192
27.8634
28.3662
28.2578
28.425
28.5251
28.4568
28.561
28.1648
28.0717
28.6498
24.8416
24.5879
25.8147
26.0562
25.469
25.2373
25.7112
24.985
26.3336
26.6124
26.9308
26.7771
26.7042
26.1756
27.2619
27.1426
27.3239
27.4111
24.4054
24.0945
24.2541
23.9293
29.1658
29.1511
29.3656
29.2348
29.2159
29.1696
29.2963
29.433
29.4092
29.38
29.4291
29.4005
29.4014
29.3803
29.3526
29.2932
29.3711
26.7295
26.483
24.0105
24.541
27.0141
27.0816
17.6667
28.4937
28.3168
28.0632
27.9415
27.7908
28.2057
27.3503
27.5359
28.5553
28.8083
28.9352
29.0876
28.9412
29.1079
29.2155
29.1581
29.3004
29.2476
29.0763
29.1025
29.0172
28.9645
28.9261
29.0524
28.8944
28.7184
28.7638
28.7921
28.8596
27.8659
27.7459
27.5283
27.7157
27.9814
28.1103
27.9114
27.9498
28.4018
28.3187
28.4688
28.5738
28.528
28.616
28.2189
28.1735
28.652
28.7021
24.7582
24.6317
25.9736
26.0845
25.5589
25.3241
25.709
25.0276
26.456
26.6189
27.0087
26.8708
26.8089
26.2915
27.3595
27.267
27.1317
27.4298
24.4451
24.1703
24.343
23.8375
24.0039
29.1138
29.1015
29.1757
29.1548
29.1246
29.2502
29.3504
29.3309
29.339
29.3266
29.3432
29.3129
29.2596
29.2073
29.2795
26.5606
25.9996
20.4684
24.6734
26.7457
26.9897
34.7258
28.346
27.9712
27.819
27.6237
28.0543
27.3893
27.155
27.5005
28.4742
28.6939
28.9788
28.8272
28.9872
29.0979
29.0742
29.1992
29.1538
29.0692
29.084
29.0045
28.9556
28.9221
29.0189
28.9047
28.7606
28.8192
28.8559
27.9478
27.8887
27.6514
27.85
28.094
28.1969
28.0264
28.0286
28.3897
28.4609
28.3069
28.529
28.5842
28.6263
28.5786
28.237
28.6941
28.7225
24.8171
24.5492
26.0191
26.2112
25.5914
25.3091
25.5149
25.8228
25.1987
24.9545
26.418
26.5906
26.7642
26.9819
26.9164
26.3118
27.5016
27.446
27.2957
27.5758
24.3122
24.1358
24.3756
24.0213
29.0865
29.1353
29.1553
29.1272
29.1018
29.2732
29.1947
29.2928
29.2521
29.2984
29.2777
29.2435
29.2366
29.1833
29.1825
29.1904
29.2086
26.3332
26.5689
26.1783
21.8287
24.2257
26.5822
26.7774
17.0679
28.2122
27.8465
27.6402
27.9864
27.2089
27.0879
27.366
28.367
28.5771
28.7004
28.9185
28.8524
28.9205
29.015
28.9673
29.1222
29.0543
29.0338
29.042
28.9858
28.9704
28.9453
28.9301
28.996
28.9121
28.7727
28.8154
28.8835
28.1176
27.9751
27.6899
27.8167
27.8895
28.1917
28.2897
28.1231
28.1572
28.4492
28.5389
28.3668
28.6052
28.6615
28.6714
28.6464
28.32
28.7127
28.765
24.7483
24.6095
25.9553
26.1869
26.2855
25.7492
25.473
25.5803
25.2012
25.0571
26.5299
26.7109
26.8417
26.9027
27.1548
27.1272
26.4351
27.6356
27.6163
27.4843
27.6447
27.3365
24.416
24.2369
24.5286
24.152
29.0463
29.0954
29.1009
29.075
29.0748
29.2252
29.1578
29.2302
29.1619
29.2405
29.2136
29.119
29.1149
29.0841
29.115
26.2285
26.1556
26.3517
25.246
23.4889
26.4079
26.7639
49.1046
28.0786
28.1808
27.6918
27.5765
27.8463
27.212
26.9342
27.2596
28.2651
28.3822
28.4845
28.6043
28.8179
28.7486
28.8041
28.9066
28.8883
29.033
28.9823
29.012
28.9757
28.9696
28.9561
28.932
28.9842
28.9148
28.7851
28.8689
28.9116
28.193
28.1887
28.1047
27.8887
27.9829
28.1624
28.3094
28.3661
28.3418
28.2239
28.5323
28.4894
28.6172
28.4462
28.6746
28.6946
28.6971
28.7821
28.8121
24.8824
26.0717
26.2143
26.4776
25.82
25.4585
25.725
25.324
25.041
26.7032
26.799
27.0627
27.1585
27.3811
26.574
27.8582
27.8282
27.8022
27.9328
27.6015