/*--------------------------------*- C++ -*----------------------------------*\
| =========                 |                                                 |
| \\      /  F ield         | OpenFOAM: The Open Source CFD Toolbox           |
|  \\    /   O peration     | Version:  v2012                                 |
|   \\  /    A nd           | Website:  www.openfoam.com                      |
|    \\/     M anipulation  |                                                 |
\*---------------------------------------------------------------------------*/
FoamFile
{
    version     2.0;
    format      ascii;
    class       volScalarField;
    location    "2.1";
    object      p_rgh;
}
// * * * * * * * * * * * * * * * * * * * * * * * * * * * * * * * * * * * * * //

dimensions      [1 -1 -2 0 0 0 0];


internalField   nonuniform List<scalar> 
13611
(
101455
101575
101666
101890
101397
101671
101750
102138
100190
101795
101531
101774
102013
102346
100931
102141
101717
101547
102003
102414
102622
102246
101129
102100
102362
101668
101158
101940
102731
102818
102787
102337
101205
102232
102347
101761
101482
101403
102124
102922
103136
102987
102671
102482
101848
101904
101994
102784
101789
101509
101192
102119
103339
103202
103396
102981
102771
102478
101958
101163
102372
103039
101733
101955
101343
101251
102297
103636
103486
103731
103152
102647
102223
101512
102184
102862
103546
101623
101945
101447
101275
102270
103999
103761
103453
103996
103135
102651
102440
101671
100788
103199
103907
101656
102101
101829
101521
101370
101360
102440
104337
104089
103662
104368
103343
103035
102827
103033
102266
101473
100424
103734
104362
101638
102032
101891
101564
101294
101300
102360
104484
104619
104409
104141
103955
103546
103191
102727
103306
102498
102262
101040
104012
104817
101772
102141
101502
101259
101359
101467
102480
104867
105032
104723
104530
104010
103737
103221
102836
103772
103061
102371
100840
104551
104925
105072
101792
102070
101544
101285
101359
100987
102371
105159
105276
105077
104619
104311
103682
103063
103445
102699
104156
103060
102503
102503
98026.3
104738
105584
105504
101646
101926
102183
101431
101263
101264
101019
102460
105579
105778
105406
104969
104330
103838
103202
103418
102811
104131
103758
102302
101902
97887.4
105253
105767
105837
101644
101909
102055
101358
101018
101146
100050
102372
105944
105873
106076
105342
104934
104637
104108
103645
103082
102672
104836
103959
103450
102325
102832
101815
105345
106369
106390
101783
101549
102064
101429
101184
101096
100031
100853
102201
102472
106406
106267
106568
105655
105237
104544
104229
103744
103167
102758
105110
104599
103675
102571
102453
101719
105890
106992
106412
106927
101778
101545
101907
101364
101196
100986
100637
100949
102168
102330
106794
106749
106274
106934
105578
106024
105108
104733
104078
103609
102996
103384
102635
105790
104760
104089
102053
103448
102464
107502
107015
107530
101638
101422
101893
101241
101149
100927
100522
102025
102312
107326
107076
106731
107474
105941
106232
105288
104562
104223
103793
103079
103309
102744
102436
106169
105528
104033
101715
103634
101822
107491
108188
107274
108204
101617
101357
101748
101227
101144
101037
101085
100485
102004
102135
107672
107533
106670
107938
106003
105036
105650
104701
104066
103650
102976
103411
102629
102313
106060
106984
105798
104716
102820
104245
101639
108053
108541
108522
108066
108648
101493
101384
101256
101718
101158
101071
100978
100964
100679
101846
102130
108286
107776
107939
106970
108463
106444
105127
105749
104522
104229
103702
103078
103309
102745
102395
106688
107261
105423
106629
102906
104459
101945
102964
109237
109451
108650
109321
101463
101268
101165
101558
101085
101045
100961
100945
100856
101142
101817
101972
108359
107509
108521
106841
109034
106425
104879
105432
106053
104623
104144
103898
103452
102981
102620
102280
108001
106060
107158
103381
105087
99661.8
102683
109432
109826
109832
108723
109606
101302
101162
101080
101513
100997
100933
100911
100814
101018
101644
101949
108718
107744
109063
107315
106767
104990
105361
106160
104378
103853
103399
103143
102391
102676
102079
108028
105943
107030
103326
105279
100784
102517
110219
110673
110637
109641
110329
101231
101044
100996
101336
100943
100919
100862
100907
101035
101604
101752
109505
108339
109697
107238
106599
104841
105549
105932
104347
104062
103593
103096
102296
102462
102877
101961
108699
106664
107730
104188
106128
100395
101680
110412
110885
111286
111251
110939
109681
110443
101079
100976
100972
100935
101254
100880
100872
100870
100883
100934
101388
101745
109941
108513
107558
106830
104979
104548
105306
106136
104001
103544
103306
102063
102460
102869
108636
107540
104439
106424
97652.9
102697
111411
111651
112241
112063
111686
110452
111214
100987
100974
100868
100838
100844
101042
100796
100822
100822
100879
101026
100901
101343
101560
110717
109733
109189
108070
107310
106596
104711
104467
105427
105886
104195
103739
103268
101953
102674
102289
103059
109422
108402
105269
103951
107486
101064
89838.7
101713
111724
111984
112428
112695
112214
112171
111318
110291
112047
111242
100817
100821
100803
100706
100774
100881
100728
100758
100786
100809
100832
100862
101124
101549
111030
110472
109212
108163
107633
106841
104628
105208
106030
104109
103670
103434
102080
101719
102684
102334
103031
109388
108382
105562
103680
107651
100986
94392.4
102419
112649
112838
113098
113447
112983
113019
111940
111053
112915
112058
100675
100672
100682
100609
100678
100910
100670
100642
100746
100784
100952
100894
101110
101328
111792
110354
108645
109737
107418
106527
104283
104821
105363
105742
103833
103362
101970
101619
102844
102510
102139
103165
110264
109514
104739
106739
108690
102469
94664.7
101692
113521
112764
113475
113870
114163
113567
113748
111885
111037
113753
112813
100517
100524
100472
100602
100621
100479
100585
100671
100715
100648
100766
100874
101371
112372
110571
108729
109852
107704
106614
104166
104666
105112
105863
103736
103497
101739
102882
102548
102171
103072
110354
109551
104945
106995
108861
99873.7
97822.7
103010
114409
113488
114315
114402
114978
114462
114615
112605
111858
114545
113675
100332
100352
100340
100416
100483
100401
100581
100289
100482
100612
100668
100685
100832
100768
100789
100911
101204
112039
113460
111118
108309
109471
107458
106250
107019
103887
104332
104807
105204
105536
103395
101615
102744
102398
102023
103168
111286
110492
104212
106244
107994
109706
101051
100769
93798.6
115332
114301
113439
115127
115316
115951
115455
112586
111925
115415
114596
100205
100185
100265
100418
100085
100278
100051
100447
100533
100598
100645
100814
100757
100714
100691
101318
112749
114288
110920
108411
109583
107877
106376
106840
103737
104313
104588
104921
105633
103497
101760
102745
102449
102173
103089
111619
111385
110401
104678
106090
108489
109953
99496.3
101945
93681.6
116101
115586
115090
114092
115657
116164
116585
116321
113429
112660
116162
115482
99982.2
100021
100191
100286
99895.2
100357
99970.3
99841.9
100351
100528
100599
100664
100720
100772
101130
112277
113824
115302
111458
110201
108932
107684
106086
107089
103730
104096
104626
104816
105407
103410
101636
102601
102904
102353
102174
103229
112596
112211
111146
103671
106963
109426
108014
110811
100592
100660
95857.5
115966
117010
116618
114915
114096
116488
116898
117636
117182
113415
117071
116229
115726
99895.8
99911.5
100015
100250
99532.9
100061
99613.2
99566.3
100349
100444
100533
100632
100700
100410
101315
112755
114321
116144
110964
110240
108957
107870
106087
106993
103845
103512
104154
104399
105007
104473
105636
101782
102571
102856
102457
102046
102397
103176
113271
111909
113129
105100
106538
109671
108837
111308
102342
102867
89668.5
116701
117211
117703
116959
115461
114915
117591
118260
117993
114095
117698
117118
116735
99660.1
99713.1
99986.7
100126
99399.7
99308
99589.1
99367.3
100256
100454
100536
100652
100434
101276
113683
112125
115334
117039
116204
111200
109618
108399
107438
106490
103655
103478
103960
104806
104260
105443
101625
102671
102914
102191
102477
103038
103303
113981
112473
113834
104630
107455
110283
108989
111005
112097
104035
99460.1
104764
96433.5
117538
116766
118125
118651
117791
116282
115216
118064
118202
119359
118924
114833
118616
117357
99434.6
99572.2
99835.9
100141
98966.5
98850
99096.9
99004.8
100290
100384
100449
99760.4
100992
114267
112448
115368
117872
117233
110520
109696
108241
107574
106401
103684
103993
105003
104470
104254
105595
101765
102702
102843
102433
102124
102626
102973
103225
114699
113286
114642
113795
105756
107609
108569
110038
111695
112626
99234.1
102109
104703
100859
100433
118152
117723
118819
118345
119307
116698
116203
118865
119022
120082
119615
119226
115268
119013
118330
99224.3
99644.1
99320.1
99880.7
100032
98621
98601.1
98954.3
98791.5
100208
100109
101422
113640
111653
116381
118397
118530
117436
118211
110666
109069
108434
107327
105988
106820
103535
103776
104756
104289
103967
105276
102759
102851
102590
102503
102711
103041
103236
114982
113360
115111
114619
106788
104842
108429
109013
110575
112474
111478
98768.7
103516
101293
97008.1
118984
117999
119613
119189
120239
117538
116467
119433
119910
121042
120551
120377
115972
119990
98958.2
99490
99152.3
99759.4
100069
98075.6
97924.9
97810.8
98403.4
101362
99332.8
114028
111824
116346
119445
119446
118729
119220
109862
109113
107807
105975
106461
103580
103350
103746
104886
104396
103967
105517
102760
102790
102770
102771
102761
102744
102955
103051
115989
113923
115872
114921
107477
105220
108747
109686
110387
113083
112058
101754
102831
102640
97475.2
119575
118858
119726
120384
120756
120676
118050
117260
120329
120561
121817
121197
120962
120745
116351
120227
98787.6
99567.3
99257
98896
99803.6
99957
98012.5
97542.7
96898.5
98484.1
102063
100724
97453.6
112949
115242
110890
117490
120228
119413
120188
109910
108411
107755
106558
103389
103256
103477
104538
104136
103732
105262
102734
102750
103029
102677
103206
102840
102779
102825
102980
116392
113840
114613
116223
115768
107278
108408
104691
106436
109667
111224
113154
111866
112739
101104
103549
99217.6
97023.3
120424
119465
118897
120510
120958
121653
121702
117906
117164
120870
121597
122646
122110
121990
121729
121217
99503.3
99121.7
98739.6
99660.7
97557.1
96667.1
95628
98357.1
101967
100179
96011.4
112919
115614
110860
116992
118794
121229
120884
121347
109149
108108
107188
106062
103318
103079
103343
104654
104145
103800
103447
105449
102694
102632
103108
103470
103867
102944
102693
102738
102816
117142
114391
115199
117046
115942
107970
108594
105250
106752
110203
111122
113846
112607
113108
100608
102969
98094.8
99899.6
99980.3
120983
120416
119599
121751
122086
122101
122153
118704
117782
121738
122213
122767
123465
122728
122569
121989
99286.6
98872
98515
97679.1
96942.7
94136.4
98039.5
103362
104724
92727.4
113825
111760
114979
109994
117632
119772
122080
121682
121696
109248
108349
107322
106175
103097
102983
103065
104314
103717
103545
103192
105003
102622
102538
103369
104116
104173
102953
102650
102587
102712
117725
117463
115020
114372
117474
116600
108086
109220
106304
105204
107567
110268
111633
113778
112794
102040
103430
98662.6
100495
97581.3
121748
120483
119514
122198
122879
123005
123124
118608
123200
123555
123793
124030
123874
123493
123056
98372.9
97385.1
96852
94457.2
98207.3
104726
107149
90047.6
113386
111505
115667
109774
116924
119089
121273
123132
123082
123086
108536
107659
106822
105660
102981
102794
102887
104466
103770
103553
103224
102919
105103
102516
102406
103087
103757
105242
105137
102770
102536
102473
102531
118471
118250
115499
114970
118359
117292
116650
108897
109840
106584
104583
105865
107854
110948
111427
112401
114231
113679
101578
102823
101034
100522
98370
122397
121269
120247
122998
123159
123357
123552
123486
119338
123550
124102
124785
124934
124556
124323
123594
97786.4
96600.4
92818.9
98163
114419
103433
83759.9
114491
112262
110411
108798
117927
119529
122414
124105
124154
124170
107766
106916
105694
102760
102681
102672
104058
103432
103041
102901
102647
104535
102377
102281
102895
104069
106342
105105
102667
102391
102308
102422
119171
118749
116101
115152
118617
117924
117347
109331
110359
107259
104907
105856
108627
110872
111804
112735
114867
114195
113794
101018
101715
103608
99160.8
100698
99396.3
122514
122101
121048
120107
123906
124159
124471
124320
124379
125166
125372
125313
125500
125049
124907
98083.7
98120
95819.6
98337.4
110215
120437
117387
79848.2
114010
111578
110328
108030
118060
120842
123981
122181
125316
125590
125599
107089
106336
105084
102641
102477
102453
103601
104090
102969
102817
102781
102612
102412
104519
102229
102102
102931
103312
107940
106112
102462
102191
102189
102225
119891
119625
116303
115804
119285
117914
117525
109205
110131
107511
104497
106447
108805
111466
112315
113231
115256
114980
114373
100153
101281
103251
100166
100877
94782.8
123636
122746
121748
120792
124462
124221
124740
125024
124961
125148
126062
126266
126276
126164
125765
125459
98619
99005.9
92219.8
107536
120465
114921
70084.3
114881
112167
109215
108110
107165
116746
120080
121179
125201
123509
126448
126703
126749
106399
105097
102414
102358
102308
103310
103555
102622
102440
102401
102281
102122
103808
102104
102004
102469
102790
106360
102311
102025
102027
102076
120660
120247
117007
115874
119185
119970
118549
118281
109786
110596
107180
108381
105091
106404
109525
111735
112671
113294
115405
113857
114891
99369.1
102103
99931.7
103862
102188
100982
103424
123690
122550
121586
125182
125137
125594
126020
125808
125959
127114
127153
127015
127108
126545
126534
99684.7
100574
100265
108141
107329
127149
128883
71842.8
113559
111339
108997
107189
106450
117592
120754
122902
124953
126531
127292
128068
128168
105765
104323
102120
102048
102825
103340
102078
102218
102232
101785
102030
101913
103578
101897
101710
102211
103103
104936
102046
101921
101924
101863
101897
121313
121068
117141
116361
119773
120629
118675
110316
111199
107519
108645
104774
105836
106980
109990
111617
112482
116261
115358
114146
115245
98561.3
101731
99196.3
103831
105284
100127
107209
124308
123242
122234
125519
125757
125642
126286
126493
126869
128108
128137
127952
127945
127211
127382
89733.9
101500
106585
141207
103042
108524
73228
113987
111958
109828
107540
106600
106893
105925
116098
119658
122936
123926
126224
127783
127543
128302
128785
128847
128924
103940
101976
102356
102600
101762
101818
101650
101382
101685
101646
103040
101778
101544
101785
101047
105301
101853
101683
101618
101670
101729
122056
121433
121603
117758
119827
120457
121323
119392
118448
110807
111370
108161
109335
105407
106131
107256
110793
109909
112184
112819
116780
115963
114956
113958
115843
96291.5
99226.5
102778
100477
97622
104759
109128
101139
119765
93350.7
123996
125117
123037
126344
126479
125597
126583
127200
127357
127623
129141
129070
128793
128711
128153
128386
100829
104596
131182
101389
109578
90010.1
112322
110574
109370
107004
105311
105736
104936
116383
121230
123580
125840
127815
128658
130272
130315
130022
103610
101752
101902
102470
101526
101576
101513
103078
101549
101423
101119
101780
101008
104433
101663
101671
101487
101583
122641
122324
122419
117836
120606
121018
121960
119621
119016
112012
108334
109390
105421
106777
107901
111276
110501
113350
116509
117424
115389
114456
116382
93829.3
96297.8
102964
99980
97958.8
105120
94952.5
125471
113068
124681
125427
123661
126875
127196
126601
127101
127965
128067
128552
129937
129472
129850
129756
129640
129441
97201.7
104394
128833
100066
121111
110565
112381
107907
106050
104731
104180
105174
118378
114249
120753
125518
127245
129165
129504
130979
131304
130640
131139
130693
103675
101528
101332
101416
101315
101018
101474
99089.7
104016
101392
101589
101330
101364
123398
122794
122703
118529
120874
121779
120251
119043
112389
108885
109933
106181
107161
108291
111907
111075
110470
113464
116893
117832
116049
115049
114122
116505
93968.7
93670
104103
102124
100872
96789.4
104837
105905
90800.6
138522
109416
91996.3
124525
126238
127784
127991
126896
127936
128866
128923
129207
130848
130646
130859
130620
130361
130313
90492.3
101536
110062
99360.9
108886
110495
106764
104928
104167
104155
118171
114239
122624
127197
126497
129008
130605
132171
132496
131674
131976
103544
101452
101169
100233
101402
101633
98791.2
101477
101217
101372
123901
123574
123432
118489
121502
122283
120268
119629
112317
113097
108916
109970
106784
107822
108270
112084
111522
111009
117551
116310
115362
114443
117172
92647.3
91873.4
104306
102554
100343
98770.5
105587
106633
77174.6
150331
130993
101343
125175
126555
128379
128842
127902
128473
129689
129675
130108
131231
131643
131677
131523
130695
131456
131365
90449.6
108172
91185.2
108583
107239
109328
105202
103437
103535
116409
120880
111977
125321
129081
129063
130580
131985
133161
133601
132826
133195
101031
103806
97005.4
101056
100950
101118
124698
124133
124172
123555
119024
122100
121789
123009
120787
119685
112971
113458
109403
110473
107411
108045
108950
112540
111515
111020
118010
115952
117019
115074
114113
117789
89920.3
96892.4
86376.8
89712.1
105152
103577
101548
98857.7
106374
107386
51501.6
174617
126285
80801.2
77915.9
126026
127433
129221
129625
128158
129277
130610
130411
132162
132444
132584
132292
131707
132134
104026
107911
94967.5
107502
106303
107858
109696
105136
116498
121387
112961
126991
130758
130933
132172
133408
134147
133455
134348
133797
134297
101193
94789.6
100831
101067
100358
100928
124963
124926
124424
118912
122642
122555
121452
123207
120386
113071
109458
110515
108619
109054
112582
112035
111538
116179
117406
115518
114419
118352
93913.4
97130.2
84631
91295.8
105633
104065
101887
100780
106998
108125
90565.7
21882
177367
134835
127386
80246.4
126607
127791
129640
129754
130567
128933
129916
131439
131231
132871
133318
133278
133056
132359
133091
131908
133324
104676
103741
102657
106591
107888
108657
118905
124778
111234
129798
132537
132853
131308
133766
134860
135214
135026
135808
135163
135789
101368
93475.6
102108
100352
100699
125606
125164
125556
124422
124967
119391
123055
121934
123797
120724
113587
110010
111016
108923
109642
113001
112068
111546
116722
117321
118107
115506
114156
115059
119068
92992.5
99438
85504
105190
106565
103345
101569
107825
108816
108290
108359
9385.59
183515
171218
162092
46907.7
127489
126348
128662
130379
130761
131308
129688
130121
130623
132416
133761
133975
134211
134172
133325
133804
132770
104523
102709
107575
119654
125723
111821
108363
131842
134078
134864
133849
135134
136142
136071
135768
136719
136144
101190
95306
101525
100988
125930
126176
125169
125699
120067
123059
123774
121534
122606
120569
113484
110135
111104
109627
113137
112571
111972
116751
117934
118460
116150
114587
115151
119541
97347.3
101065
100237
87205.2
105821
107134
103943
103274
108299
109430
109009
111856
91762.7
8791.14
93299.5
196294
115165
173167
19555.9
128030
127096
129173
131008
132253
130308
131078
131456
132814
133058
134694
135210
134883
134936
133530
134604
100141
102673
123390
117960
128854
109309
114446
106944
134527
131742
135815
135429
136318
136704
137605
137103
136873
138106
136046
137403
100880
99509.6
101284
101194
126250
126878
125856
125061
120250
123712
124338
121860
122959
121334
113786
110673
111559
110121
113030
112481
111979
117334
118131
119015
116152
114603
115614
119518
99724.4
95479.5
102512
101611
105885
106786
107977
105226
104175
109010
109416
110024
109277
102670
94159.9
8425.33
73857.6
181637
154913
127811
128813
130005
131820
132799
131148
131735
131455
133992
134088
135494
135783
135899
134399
135396
101419
102600
125263
120583
128786
107689
114468
136853
134871
137084
137712
138307
137892
138705
138150
137788
138894
138763
137319
138098
138132
101250
101348
126965
127458
126591
125530
120821
124269
123650
122572
121415
114230
110915
111579
110734
113505
112787
112450
117199
117905
118754
119154
116655
115082
115609
120084
101955
97294.3
102469
103812
102326
106763
107261
108614
105745
105305
109508
109966
110535
109818
106857
94511.9
8514.07
15429.9
108485
128449
129157
130565
132508
133734
131713
132500
132298
134396
134630
136573
136258
136245
136692
135349
101238
124050
118084
131575
110833
138440
138390
134822
137962
138778
139106
139479
139319
139998
138775
140322
140211
137539
139557
139249
100937
127219
128169
126915
124866
126153
120965
124172
122932
122008
114421
111984
111202
114024
113272
112658
117737
118310
118915
119808
116611
114957
116097
120650
102408
100811
103577
104899
103337
107330
107984
109361
108597
106880
106082
110190
110424
111022
110316
95228.8
94714.2
9319.37
120251
128612
129842
131403
130438
133266
134010
132508
133275
132779
135359
135577
137378
137239
137666
136169
100250
127181
118436
131473
110363
140710
141111
137889
140383
139836
141284
141468
140340
140944
139949
140972
140782
138699
139934
140431
139941
128005
128751
126754
127853
124887
126244
121740
124148
123626
122593
114344
112446
112024
111752
114264
113558
113192
117561
118288
119360
120102
117014
115212
116206
121077
103910
100073
104632
105997
104156
108118
109957
109273
107054
110706
110877
111394
110863
90702.7
105816
80589.8
21423.2
95253.8
113443
129397
129957
131801
131162
133575
134810
133161
134019
133634
135537
136124
136125
136172
137932
137761
138651
137268
127093
114239
122802
135305
107977
142165
143350
138430
140294
143059
141275
142481
142160
141702
142298
142471
142201
139766
141167
141707
141212
128674
129509
127602
128305
125497
126902
122132
124838
123811
123171
114771
112718
112444
112079
114103
114722
113507
113334
117832
118874
119884
119369
120787
116756
115635
116045
121722
104185
103563
101797
105416
106897
105078
104284
108931
109877
110586
109486
107843
111368
111325
111807
111374
98530.9
72357.1
32182.1
97438.9
103978
130654
132535
131252
134703
133988
133200
134942
136427
137002
137042
137130
138896
138984
139630
137784
132334
114330
122590
136365
110660
144478
144273
145299
142034
143104
144717
142111
144592
143590
142741
143198
143137
142653
140890
142074
141990
129571
130168
127659
129023
125491
126871
122996
124578
113077
112669
112496
114426
115032
113890
113738
117395
118200
119113
120347
119944
121184
116925
115646
116493
121932
103893
103643
106609
107137
107707
105645
104593
109485
110498
111096
110255
108903
111692
111583
111652
112029
111753
98947.9
88700.6
58562.6
99006.7
103876
130783
132647
131959
135312
134762
134069
135536
136775
137089
137917
137994
139633
139409
139702
140784
138653
132374
118114
126899
140798
109243
145718
147159
147588
144251
143110
147323
143425
145687
145023
144008
144556
144455
143835
141882
143312
143084
129658
130297
128380
129389
126120
127451
123450
124933
113311
113064
112783
114265
114887
113965
117632
118600
119940
118995
120989
116033
116535
122464
103660
102277
107193
108202
108452
105263
106659
104117
109505
110444
111073
111595
110744
109223
112222
112192
112463
112242
98381.2
101128
87036.7
77508.2
101191
131449
133382
132025
136276
134841
135420
134124
136319
137750
137988
138556
138778
140691
140513
139467
140793
141692
136729
117240
126449
143346
112486
147930
148457
148523
149104
147646
146916
149096
144306
147625
146242
145145
145346
145366
145313
145128
144103
144862
142836
143735
143566
130445
131191
129121
128206
130279
126251
127166
123148
124149
124663
125805
113694
113258
112742
113107
114506
115200
113944
114315
117701
118832
120337
119764
121443
116033
116917
122329
102886
102141
108275
108828
105754
107062
104265
110547
110991
111668
112039
111532
110124
112423
112417
112432
112575
99479.6
101429
94380.5
84338.9
101212
131688
133362
132685
136752
135673
136357
134962
136859
138254
138270
139450
139826
141570
141167
140355
141570
142876
142266
135382
121204
130765
144492
147546
110770
148675
149202
150880
151189
151061
149276
151849
145641
148708
147978
146285
146739
146808
146608
146555
145304
145830
143291
145117
144521
131085
131480
129901
128762
130798
127585
123652
124283
125444
126103
113827
113619
113089
113360
114896
115592
114219
114481
118308
117354
119337
120942
119836
121390
116650
115868
122850
102757
101017
108752
109939
106628
105096
108089
103437
110861
111904
112170
111871
112086
110548
112954
112932
112896
112980
99806.1
99687.8
101564
94265.3
132538
134021
137617
136534
135743
134867
137667
139150
139190
138224
140175
139828
142571
142151
141368
142515
143464
145092
140279
122164
128969
150046
150795
112615
150690
151462
151901
152217
152661
152395
152618
154063
150657
148720
147601
147502
147933
147457
145872
146976
144516
145450
131735
132314
130676
129689
128413
131602
127441
123795
124828
125450
126826
114110
113803
113240
113627
115050
115656
114352
114776
118421
117570
119314
121247
120276
122043
116843
116222
122630
123470
101795
101018
109791
110488
107160
105300
108129
103140
112002
112548
112821
112631
112739
111527
113144
113198
113186
113103
100062
99327.1
100332
94386.3
95533.5
133098
133949
137298
136595
135490
138410
139824
139209
141286
140723
142766
142703
142237
143411
144560
149868
139715
118855
132999
153916
154241
110144
152190
154105
154504
155509
154328
154522
154693
156592
151774
150195
148756
149330
148739
147191
147741
145446
146483
132438
132994
131473
130256
128775
132143
128172
124669
126024
126873
114241
114060
113641
113776
115329
116024
114684
114900
118068
118913
117183
119900
121109
121962
120729
116585
123193
123824
101462
100298
110278
111509
107118
104636
106339
108763
103717
102064
112189
112676
113384
113033
113452
112022
113548
113745
113766
113490
99489.2
97418.1
100132
94490.8
134777
137281
137995
136811
136244
139390
138502
140616
142187
141478
141085
143864
143718
143389
144264
145509
144746
152436
153950
144982
120205
132871
158233
157768
113973
153990
155342
156273
155858
157797
158079
158783
153473
151401
150484
149393
149694
149538
147925
149005
146500
147559
133314
133753
131659
131080
129969
129387
132926
128463
125114
125814
127501
114536
114125
113651
113881
113864
115486
116207
114779
115116
118234
119033
117237
120046
121651
122400
120937
116733
123097
124447
100444
100084
109750
111527
112183
108055
105108
106288
102826
101785
113095
113553
113849
113722
113766
114028
112913
113858
113643
114024
114006
114129
97668.4
96247.4
99471.1
93761.4
134747
138126
138543
137800
136767
140285
139444
141328
143263
142374
141990
144231
145183
146778
145806
157283
151246
158046
141146
126741
162603
160851
112781
155574
154736
157645
158421
157936
159510
160648
160917
154555
154003
152815
151923
150704
151150
150967
149242
149752
147537
148456
133573
132503
131372
130714
129378
133342
128220
124967
126270
127486
114703
114582
114369
113869
114046
114312
115812
116597
116095
115064
118632
117951
119603
117496
120545
121503
122196
123553
124631
99803.8
110548
111833
113323
108361
104358
107321
102956
100623
113956
114157
114579
114639
114827
113647
114056
113954
114554
114446
114697
96294.2
97345.6
94619.1
98466.7
91832.4
135435
138468
139341
137874
136785
140237
141253
142251
143231
144144
142560
145298
145712
145941
146902
147760
161149
157103
162121
143554
128064
165639
164261
164317
114740
157113
156614
158776
160423
159495
162027
163746
162877
161495
156511
155236
153051
152225
151456
151468
151659
150037
150969
148375
149590
134465
132702
133119
132146
130775
129984
134423
128702
125687
126968
128239
114980
114856
114469
114061
114191
114453
115822
116867
116300
115246
118660
118156
119745
117313
120684
121799
122588
124234
123256
125609
98430.4
109835
112912
114190
104668
107503
101886
100457
114859
115028
115139
115126
115380
114716
114376
114850
114734
114570
115214
94196.8
95379.9
93196.5
91339.5
135211
136300
139513
139968
138510
137959
141057
142162
143159
143999
145060
143505
145817
146977
147035
147891
148955
164428
162092
159236
136367
151682
122361
169880
169196
166238
110246
158939
157641
160903
162358
161316
164081
165458
164124
156587
155616
154585
153584
152762
152722
152862
151175
151577
149296
150059
133520
133809
132301
131521
129927
134941
129319
127433
128536
115096
115015
114669
114395
114399
114573
116075
115540
116739
118877
117967
119372
120231
117507
121239
121666
122336
124637
123595
125956
97208
110210
114087
113433
115442
103112
106159
108971
101835
99511.7
115876
115877
116060
115916
116080
115613
114496
115528
115134
114910
115681
93440.9
95387.9
89402.3
136084
136787
140001
140908
139433
138307
141966
143044
143473
143865
145021
145477
146707
147839
147857
148956
149615
149480
168653
167277
166248
157616
137355
153915
123241
171948
171682
171234
168970
115499
160000
159191
161826
162408
164527
162882
166707
166158
157630
156931
154810
153760
153860
153827
153272
152089
152674
150942
133973
134530
133005
131494
130744
135731
129350
127213
128290
115410
114964
114737
114496
114620
114580
114718
116083
115579
116969
118464
119551
120272
117390
121480
122179
122598
124226
125366
123164
126636
97143.1
111502
115311
112894
115004
116383
103087
106378
109425
100299
98177.6
116832
116538
116405
116375
116478
116690
114769
115774
115152
115529
114983
116211
91140.6
93915.2
89198.5
136319
137651
141043
141627
139972
139103
142758
143810
144464
144818
145551
146620
147635
148989
148791
149501
150706
150844
170587
169172
169355
165405
147021
130023
162745
175197
171102
175690
176202
170379
116287
161656
160344
163832
164418
166703
162999
164568
169413
168454
159007
157829
156195
154955
155068
154941
154481
153090
151974
134853
133737
135048
133034
132313
130696
135949
129881
127937
128871
115211
115532
114863
114686
114697
114765
114842
116387
115542
116844
118493
119359
120519
117593
122145
121283
124487
125586
123415
126782
95034.4
111015
116399
113929
115984
117491
104827
101662
108187
99254.7
97508.2
117843
117565
117327
117135
117030
117652
114827
116224
115577
115715
115318
116661
90220.7
91532.8
86902.7
137376
137957
141453
141660
142601
140883
139727
139379
143742
144699
145136
146572
147338
148659
149831
149272
150428
151311
151491
175351
174407
174492
167663
148832
127151
169131