/*--------------------------------*- C++ -*----------------------------------*\
| =========                 |                                                 |
| \\      /  F ield         | OpenFOAM: The Open Source CFD Toolbox           |
|  \\    /   O peration     | Version:  v2012                                 |
|   \\  /    A nd           | Website:  www.openfoam.com                      |
|    \\/     M anipulation  |                                                 |
\*---------------------------------------------------------------------------*/
FoamFile
{
    version     2.0;
    format      ascii;
    class       surfaceScalarField;
    location    "2.1";
    object      phi;
}
// * * * * * * * * * * * * * * * * * * * * * * * * * * * * * * * * * * * * * //

dimensions      [0 3 -1 0 0 0 0];
oriented        oriented;


internalField   nonuniform List<scalar> 
21888
(
0.526891
-0.526182
-0.366204
0.893126
-0.579581
0.0534203
-0.698903
0.332723
0.635468
0.257695
-0.579126
-0.645458
0.810977
-0.478217
0.642266
-0.327233
0.58495
-0.0234144
-0.55569
-0.525858
-0.119575
0.483769
0.334339
-0.812525
0.698715
-0.0564066
0.537561
0.04741
-0.549252
-0.555764
0.400836
-0.520394
0.502381
-0.0185854
0.802407
-0.468039
-0.411668
0.702615
0.481183
0.549811
0.00781926
-0.557053
0.0149851
-0.57073
-0.536307
0.0159291
-0.655777
0.637225
0.14666
0.223199
-0.691219
-0.510027
0.0983764
0.157692
0.544966
-0.38184
0.863058
0.168
-0.528471
-0.542049
-0.570038
-0.494084
0.589
0.0482563
-0.569841
0.716525
0.673652
-0.450438
-0.533666
-0.157539
-0.435274
-0.408974
0.566702
0.546329
0.45412
0.757038
-0.541235
0.012781
-0.0211132
-0.520923
0.14188
-0.711898
-0.545307
0.0512369
-0.594
0.642286
0.103833
0.12255
-0.523012
0.0725922
-0.680539
-0.588875
0.153613
0.0546096
0.512121
0.015284
0.531087
0.528493
-0.0743397
0.705408
0.0516724
-0.562334
-0.53251
-0.379028
-0.710989
-0.537623
0.652166
-0.0098467
0.709119
-0.605264
-0.531392
0.653965
0.557881
-0.485272
-0.526911
0.583132
0.527444
0.53269
0.63111
0.703875
-0.368691
-0.193629
0.0556013
-0.588099
-0.747706
-0.091764
-0.619207
-0.564369
0.0267589
-0.525701
0.515876
0.177748
-0.0473661
0.128283
0.0608125
-0.546075
-0.618512
0.0916178
0.0613844
0.521783
0.0459649
0.481509
-0.0872396
0.619981
0.54518
0.0859686
0.619896
0.0840217
0.34662
-0.540238
-0.508757
-0.24147
-0.557067
-0.190624
-0.648815
-0.619182
-0.591739
0.757658
-0.24176
0.593102
-0.415337
0.459868
-0.507222
0.691815
-0.563513
0.558852
-0.498032
-0.713219
0.167155
-0.621584
0.606603
0.567779
0.394306
0.6249
0.705908
-0.40929
0.493339
-0.582105
0.0418789
-0.376696
-0.13205
-0.618157
-0.772716
-0.526892
-0.121911
-0.0346523
-0.584518
-0.539525
-0.0522002
0.348389
0.450071
0.0296058
-0.755974
0.340651
-0.296091
0.0516413
-0.330868
-0.583723
-0.0378447
0.119208
0.48744
0.309666
0.258145
0.704013
-0.277544
0.902517
0.437831
0.268109
0.725445
-0.232081
-0.576267
-0.671563
-0.446688
-0.326016
-0.561534
-0.56859
-0.585897
-0.63591
0.520434
-0.17203
0.692533
-0.242438
-0.674187
0.703811
-0.33352
-0.592232
0.296152
-0.540579
-0.640705
0.309848
0.599685
-0.637518
0.557076
0.745636
0.426516
0.31928
0.583309
-0.372284
0.640427
0.353192
0.288369
-0.723967
0.147715
-0.579301
-0.0922509
0.294659
-0.620665
-0.542391
-0.0191344
-0.0281613
-0.540421
0.0694552
-0.655341
-0.571212
-0.0646848
0.52052
-0.671348
0.428929
0.0324836
-0.651492
0.317985
-0.355326
-0.603428
0.0628601
-0.0410098
-0.293572
-0.579291
-0.0582155
-0.161124
0.718236
0.361406
0.384281
0.787976
-0.396291
0.71563
0.599072
0.47933
0.778481
-0.425256
-0.363805
0.652192
-0.429294
-0.431576
-0.663453
-0.648817
-0.472927
-0.559547
-0.654772
-0.643965
0.156734
-0.407745
0.836694
0.673556
-0.641056
0.798346
-0.480347
0.25271
-0.608027
0.560504
-0.497636
0.679629
-0.720631
0.386064
0.553166
-0.611373
0.312058
0.406223
0.696397
0.39174
0.356036
0.359655
0.170242
0.42888
-0.187521
0.666886
0.590995
0.226963
0.335553
-0.764835
0.287148
-0.718716
-0.376296
-0.153055
-0.495751
0.366537
-0.839454
-0.193002
-0.49086
-0.163904
-0.645821
0.00186359
-0.370462
0.527216
0.265828
0.466248
0.157305
-0.700151
0.219813
-0.447434
-0.0475149
-0.111562
-0.167454
-0.635581
0.024217
-0.211811
0.618069
0.348176
0.348273
0.739975
0.526331
-0.32132
0.681038
0.424643
0.455106
-0.0326598
0.623691
-0.483807
0.710796
-0.383153
-0.439174
-0.325652
0.294168
-0.670455
-0.59222
-0.688743
-0.373983
-0.465462
-0.485968
-0.537881
-0.351646
-0.633712
0.043427
0.630074
-0.364234
0.539872
-0.0736076
-0.448201
0.605515
0.80075
-0.580928
-0.519845
0.0724182
-0.567354
0.581341
-0.692895
-0.529443
0.361994
0.599803
-0.57558
0.395368
0.222737
0.7437
0.418713
0.14645
0.379933
0.238979
0.442118
0.571147
-0.0778856
0.533026
-0.757603
0.724976
0.545841
-0.0467737
0.324078
-0.707223
0.36758
-0.693224
-0.346369
0.0463671
-0.63858
-0.00838446
-0.680349
0.107668
-0.573122
0.374714
-0.860675
-0.163162
0.284717
-0.636358
-0.348988
0.583314
0.733633
-0.103547
-0.653926
0.289699
0.66004
0.352556
-0.0484044
-0.61955
0.0386292
-0.547127
0.0139937
-0.76174
0.0688515
0.0703652
-0.39974
0.127976
-0.703549
0.755803
0.315634
0.42813
0.734414
0.618979
-0.180762
0.622935
0.57249
0.491657
0.233342
-0.0714956
0.617366
-0.625469
0.578715
-0.339633
-0.64685
0.344219
-0.690582
-0.646957
-0.572672
-0.736278
-0.233864
-0.626803
-0.292132
0.222164
-0.571147
-0.0421352
-0.668539
0.565
-0.378833
0.493458
0.166593
0.626371
-0.273809
0.577971
-0.608479
0.647111
-0.563877
0.0167556
-0.549878
0.696358
-0.627503
0.561101
-0.490732
0.161365
0.67302
-0.54504
-0.48138
0.586681
0.169161
-0.203125
0.631304
0.553707
0.245577
0.37347
0.3267
0.29629
0.81816
0.420179
0.584058
-0.350694
0.475083
0.142314
0.774515
-0.195778
0.40349
-0.743115
-0.000489648
-0.646352
-0.287086
-0.00866334
-0.638287
0.0693491
-0.642015
-0.5255
-0.21077
-0.759358
-0.625031
0.373968
-0.666096
-0.197174
0.451335
-0.0893052
0.654313
0.199145
-0.407304
0.573906
-0.747552
0.473747
-0.577722
-0.0307531
-0.100437
-0.560964
0.146485
-0.543164
-0.0843346
0.182291
-0.381796
0.088312
-0.633348
-0.532536
0.05116
0.383588
0.644282
0.589637
0.0417101
0.50416
0.049613
0.700246
0.800516
0.447797
0.370469
-0.0825159
0.502713
0.50156
0.423844
0.645053
-0.674293
0.478527
-0.520588
-0.22252
-0.521072
-0.655009
0.418905
-0.705985
-0.568933
-0.392677
-0.249333
-0.603441
-0.329092
-0.430261
-0.0297556
-0.59527
-0.247185
-0.729707
-0.222946
0.578272
-0.667574
0.247015
0.636002
-0.436854
0.350969
0.726265
-0.252515
-0.499424
0.468671
-0.747829
0.647393
-0.563694
0.00273192
-0.417207
0.471074
-0.555407
0.624801
-0.442506
0.243007
0.724147
-0.635833
-0.582185
-0.174292
0.55791
0.470024
0.639326
0.599654
0.368079
0.332242
0.400862
0.399728
0.451353
0.738637
0.623879
-0.122293
0.701003
-0.277135
-0.0604195
0.705508
0.744257
-0.265716
0.429653
-0.652169
0.222263
-0.743329
-0.0629237
-0.59208
-0.276326
-0.443403
-0.125524
-0.692732
0.115702
-0.719138
0.139791
-0.46888
-0.460013
-0.593893
0.433862
-0.681043
-0.29584
0.45986
0.118416
-0.0315681
0.706878
0.289413
0.73016
-0.37918
-0.598275
0.345761
-0.610641
0.111218
-0.279156
0.0491183
-0.607908
-0.730936
0.313731
-0.259859
-0.312398
0.281644
-0.591334
-0.044496
0.186211
-0.768393
-0.169754
0.639825
0.735541
-0.0961482
-0.0492033
0.6489
0.733182
-0.265758
0.665555
0.469638
0.354342
0.384365
0.563484
0.578732
0.467137
0.535794
0.464454
-0.429901
-0.806247
-0.717598
0.474182
-0.750503
-0.577025
-0.579343
-0.13616
-0.332717
-0.59617
0.129257
-0.723145
-0.206857
0.338974
-0.634811
0.73272
-0.614303
-0.665764
0.634195
0.327702
-0.376351
0.674933
-0.329176
0.626334
-0.515119
0.347176
0.613495
-0.564382
-0.294177
0.398633
-0.658492
-0.660914
0.348517
-0.379269
-0.405121
-0.569578
0.525082
-0.429417
0.590661
0.469841
0.552804
0.362889
0.370376
0.432201
0.233413
0.824094
0.747337
0.626426
-0.062915
0.5733
0.00545386
0.713056
-0.245904
-0.1424
0.678237
0.795811
-0.331347
0.435762
-0.865658
-0.47554
-0.330703
-0.0544973
-0.663095
-0.314736
0.144955
-0.721974
-0.281783
-0.297556
-0.614498
-0.466908
-0.722691
0.518726
-0.725579
-0.116083
0.465359
0.267364
0.0198932
0.793064
0.298578
0.284314
0.133945
-0.649067
0.804113
-0.456945
0.239724
-0.687588
0.393409
-0.288956
-0.309975
-0.771208
0.391939
0.341751
-0.746871
-0.227826
-0.246125
-0.618228
0.188813
-0.0654222
0.656125
0.568886
-0.0989841
-0.102455
0.655312
0.802666
0.802368
-0.0832652
0.907457
0.664145
0.484054
0.510405
-0.438075
0.443538
0.274993
0.549914
0.612855
0.46172
-0.239133
-0.626521
-0.530034
0.216108
-0.546807
-0.518136
0.521744
-0.836477
-0.313743
-0.408226
-0.611295
-0.262754
-0.351741
-0.729658
-0.633504
-0.0891823
-0.20383
-0.734309
0.660277
-0.392923
0.656509
-0.636631
0.655675
-0.357105
0.681854
-0.39755
0.751277
-0.61734
-0.255661
0.294323
0.695176
-0.455467
0.428174
-0.717133
-0.702976
0.392999
-0.311038
-0.558056
0.495449
-0.723276
-0.670038
0.423911
0.553718
0.556395
0.227203
0.575547
0.490493
0.311948
0.34163
0.565929
0.00389011
0.660332
0.737212
-0.253129
0.538179
-0.0277579
0.585617
-0.142067
0.463039
-0.188039
0.4926
0.0573193
0.07465
0.538241
0.740565
-0.278849
0.383112
-0.622242
-0.410409
0.0851052
-0.615136
-0.461699
0.092569
-0.610702
-0.453362
0.277765
-0.685987
-0.237109
-0.374183
-0.588848
-0.468158
-0.261497
-0.633148
-0.557338
0.531823
-0.73565
-0.202484
0.658755
0.00151548
-0.727481
0.334546
-0.0709843
0.0190373
0.324741
0.297613
-0.457266
-0.160081
-0.712932
0.718254
-0.423947
0.262774
-0.284764
-0.324138
-0.686469
0.375427
0.218546
-0.776602
-0.17459
-0.628744
-0.0945325
-0.262561
-0.0814918
0.635256
-0.193521
0.749984
0.717771
0.579511
-0.397398
0.70942
-0.269092
0.610794
0.59909
0.391306
0.378078
0.359154
0.285065
0.557869
0.320979
0.304564
-0.459615
0.516935
0.452752
0.456783
0.280945
0.379894
-0.227613
-0.394627
-0.63802
-0.522564
0.201551
-0.663246
-0.332934
0.232074
-0.685433
-0.222714
-0.46327
-0.596895
-0.445509
-0.143336
-0.707003
-0.677283
0.0441373
0.116302
-0.673637
-0.765958
0.0303101
0.392797
-0.59528
-0.681964
0.68346
-0.347437
-0.609967
0.538966
-0.653491
0.672513
-0.328764
0.755577
-0.457986
-0.683796
0.523703
-0.76855
0.344588
0.689893
-0.427138
0.45388
-0.738653
-0.712578
0.388436
-0.337155
-0.410198
-0.383805
0.501341
-0.675934
0.500904
-0.595438
-0.601252
0.338688
0.44178
0.352645
0.485311
0.232532
0.365594
0.213986
0.415995
0.293488
0.178278
0.432606
0.777466
0.756971
-0.0653016
0.424473
-0.247654
0.53273
0.310223
0.548506
-0.227521
-0.233074
0.53764
0.283861
-0.00758415
0.460354
-0.0441164
0.500929
0.610573
-0.329637
-0.327097
0.706978
0.20971
-0.604335
-0.436466
-0.059891
-0.462671
-0.723134
-0.795602
-0.533882
-0.475721
0.322188
-0.785455
-0.740228
-0.590699
-0.676543
-0.629497
0.616282
-0.585971
0.0210034
0.356342
-0.471479
0.124027
0.062529
0.0674754
0.426788
0.231886
-0.229925
-0.244864
0.756813
-0.412246
0.329654
-0.350226
-0.686246
0.349085
0.367675
-0.777874
-0.582436
0.198632
-0.0999143
-0.175033
-0.227765
-0.347562
-0.132022
0.573843
-0.304868
0.657566
0.69938
0.648597
-0.281833
0.575375
-0.22808
0.660768
0.791919
0.528968
-0.551546
0.486261
0.416904
-0.0188019
0.429738
-0.119505
0.548718
-0.000206832
0.310121
-0.248572
0.532432
0.416259
0.368937
0.361991
0.377323
-0.230718
-0.373615
-0.667182
-0.0891058
-0.634026
-0.473411
-0.693371
0.159491
0.087091
-0.562811
-0.340999
-0.444454
-0.10529
-0.634936
0.078874
-0.669571
-0.477454
-0.199088
0.15096
-0.780455
-0.683991
0.0980205
-0.561433
-0.370539
0.72684
-0.506842
0.630848
-0.549598
0.612096
-0.439384
0.665984
-0.239223
-0.388864
0.620725
-0.853752
0.623809
-0.580136
0.335259
-0.673829
0.261564
0.716197
-0.386568
-0.717128
0.366891
-0.368053
-0.579243
0.651592
-0.751513
0.483446
-0.658485
0.471859
-0.699629
0.304023
0.269015
0.375782
0.532708
0.166739
0.450906
0.197764
0.360046
0.215375
0.537643
0.123221
0.163491
0.628519
-0.043985
0.573029
0.105608
0.380669
0.0151657
0.401755
0.410944
0.429219
-0.500033
0.499826
-0.189911
0.342517
-0.0255558
0.441833
-0.108531
0.477493
0.564881
-0.202901
-0.337467
0.714766
0.183183
-0.556797
-0.615194
-0.0519855
-0.704298
-0.209501
-0.424523
-0.682909
-0.60628
-0.524499
-0.379627
0.257242
-0.59824
-0.549742
-0.55606
-0.51861
-0.47617
0.327625
-0.526713
-0.452829
0.667995
-0.569975
0.106562
-0.761702
0.391121
0.389337
-0.130892
0.116362
0.172684
-0.692299
0.45305
0.327312
-0.071596
-0.486877
0.0436575
-0.338587
0.788714
-0.527178
0.402118
-0.679418
0.311355
-0.651669
0.072426
-0.268074
-0.18663
-0.749452
0.049818
-0.375405
-0.178625
0.447668
-0.123658
0.499481
0.488799
0.617711
0.557874
-0.206745
0.422154
0.701231
0.696332
0.651044
0.416337
-0.310718
0.395848
0.376214
0.518438
-0.107485
0.408379
0.0208435
0.457452
0.0423749
-0.20753
0.550041
0.333322
0.298889
0.357339
0.51184
-0.608781
-0.280075
-0.424221
-0.704596
-0.425665
-0.366429
-0.23985
0.242115
-0.766613
-0.746054
-0.0886163
-0.509622
-0.638357
0.0941527
-0.650211
0.159451
-0.67806
0.32383
-0.202882
0.128173
-0.581002
-0.628128
0.0581535
-0.545109
-0.330726
0.7218
-0.386635
0.775917
0.435848
-0.566773
-0.587573
0.703902
0.718878
-0.546235
-0.134551
0.672117
-0.344831
0.600494
-0.568828
0.0819399
0.587532
-0.543893
0.24893
-0.603495
0.076296
0.620875
-0.218786
-0.257483
-0.677031
-0.720807
0.452724
0.394422
-0.581058
0.523531
-0.473718
-0.859661
0.484241
0.482479
-0.0347855
0.358855
0.292764
-0.17721
0.666075
0.440569
0.0690076
0.488908
0.393615
0.0285692
0.20851
0.492789
-0.114024
0.810466
0.85963
0.311487
0.104858
0.207727
0.0571426
0.338719
0.033946
0.342279
0.300897
0.478297
-0.349476
0.391844
0.20056
-0.0907213
0.424064
0.373069
-0.0741611
0.435282
-0.0779529
0.452565
0.059254
0.207587
-0.816365
0.224122
-0.648342
-0.257698
-0.446897
-0.683361
0.361215
-0.601064
-0.386014
-0.405398
-0.538467
0.137464
-0.647085
-0.544202
-0.490758
-0.549886
-0.783883
0.658518
-0.600365
0.113409
-0.716495
0.385723
0.335117
0.372795
0.403084
-0.280684
0.152074
0.15763
-0.52459
0.390011
0.276016
0.0758767
0.557743
-0.475816
-0.832165
0.288251
-0.354585
0.713105
-0.636839
-0.732903
0.514085
-0.705789
0.448294
-0.527093
-0.149941
-0.326391
-0.406952
-0.0575302
-0.756778
0.283055
-0.221564
0.338302
0.427432
-0.0685482
0.343219
-0.0504299
0.552148
-0.255208
0.695857
0.462657
0.233752
0.371816
-0.0683549
0.561217
0.742219
0.0089277
0.850806
0.36864
-0.260282
0.365147
0.412857
-0.205125
0.372676
0.251572
-0.1368
0.437701
0.341498
0.533657
-0.141818
-0.290388
0.490936
0.349923
0.144882
0.374596
0.432021
-0.592242
-0.346584
-0.301757
-0.79348
-0.545895
-0.668954
0.0678895
0.381526
-0.767541
-0.587907
0.182508
0.158014
-0.69648
-0.0839011
-0.563183
-0.628102
0.106246
-0.597004
0.266231
-0.816116
0.0161166
-0.21884
-0.413687
0.706235
-0.320567
-0.318822
0.653887
0.466332
-0.0632835
-0.632318
0.351596
-0.480282
0.736846
-0.57927
0.604816
-0.214832
-0.532766
0.808742
0.646019
-0.570181
-0.274441
-0.0275311
0.67312
-0.384893
0.318514
-0.0198379
-0.318351
-0.0187134
0.444962
-0.594906
-0.578114
0.251717
-0.671122
0.264158
-0.635649
-0.311822
-0.3526
-0.763845
0.542263
0.419436
-0.0811095
0.377034
0.350916
-0.298359
0.850606
0.397583
0.224512
0.238173
0.458297
0.41891
-0.0470642
0.57022
0.62784
0.114462
0.854202
0.0445134
0.324134
0.15258
0.25342
0.111732
0.232578
0.172273
0.200413
0.423859
0.317848
0.0236518
0.30896
0.224689
0.349106
0.295132
0.0548058
-0.328178
0.473042
0.0464046
0.051997
0.380006
-0.475022
-0.117219
-0.776778
-0.124204
-0.669275
-0.670098
-0.51094
-0.520018
-0.585034
-0.544896
-0.151583
0.0623414
-0.625524
-0.521856
-0.330772
-0.790796
0.571955
0.266602
-0.68029
0.387367
-0.699318
0.378694
0.618211
0.035631
0.5183
0.554865
-0.347777
0.256514
0.0255113
0.43116
0.23851
-0.697373
0.422913
-0.724925
-0.714332
0.329416
0.609937
-0.629816
-0.688857
0.370475
-0.625335
0.606578
-0.328307
-0.419417
0.675736
-0.411592
0.263287
-0.575113
-0.7482
0.395592
-0.0881237
-0.182683
0.214038
0.29866
0.0783951
-0.00672707
0.357663
0.444135
0.406553
0.546444
-0.148808
-0.151129
0.389333
0.533316
-0.0749819
0.267815
0.251617
-0.00508792
0.575372
0.622807
0.558667
0.238497
0.615783
0.297938
0.139407
0.184733
0.339445
-0.186863
-0.253676
0.365414
-0.132764
0.365344
0.339833
0.256851
0.167022
0.185084
0.332607
0.383617
-0.158935
0.448124
-0.0990313
0.31167
0.452337
0.0206882
0.426388
-0.662115
-0.664652
-0.112126
0.00422494
-0.6735
-0.607755
-0.598925
0.0879852
-0.645927
0.125909
-0.575255
-0.00978165
-0.750507
0.052628
-0.678151
-0.469227
-0.674472
-0.116328
-0.108336
0.640046
-0.252742
0.703822
-0.325202
0.675615
0.226634
0.291643
0.0674973
0.487322
-0.708977
0.361144
-0.452526
-0.469225
0.494704
-0.0380946
-0.381025
0.619486
-0.291447
-0.35947
-0.0154329
-0.666602
0.0367568
-0.296156
0.676532
-0.0699913
0.365724
-0.694035
-0.750871
0.331442
-0.754338
0.342735
-0.48492
-0.209394
-0.355293
-0.711483
0.623342
-0.57559
0.392886
-0.173578
0.387631
-0.244677
0.323094
-0.295271
0.288559
0.113006
-0.170791
0.577407
0.538663
0.0078232
0.38455
0.314381
-0.143727
0.411571
-0.0923121
0.343949
0.403796
0.171652
0.465067
0.157787
0.0203564
0.538376
0.642358
0.629444
0.164732
0.133211
0.349472
0.0857717
0.178483
0.187933
0.177485
0.189913
0.149931
0.356947
-0.164199
0.349283
0.168404
0.167259
0.21635
0.289177
0.353286
0.138102
-0.359658
0.380324
0.0667113
-0.553068
-0.109045
-0.660426
-0.665194
-0.0802769
-0.593222
-0.688032
-0.557943
-0.449349
-0.684264
-0.440949
-0.309558
0.121848
0.557656
-0.67398
-0.802376
0.451001
-0.724858
0.399582
0.5139
0.161633
-0.14448
0.371083
0.358334
0.581337
0.342802
-0.363788
-0.77061
0.318024
-0.275952
-0.668021
0.629876
0.295474
-0.0485821
0.350032
-0.6415
-0.706219
0.346722
0.611939
-0.627412
0.597187
-0.56046
-0.778417
0.482233
-0.641967
0.571939
-0.42291
-0.368763
-0.5315
0.0465743
-0.740901
-0.674622
0.31932
0.0477355
0.792666
-0.399801
0.0923752
0.2308
0.206042
0.0825301
0.319064
0.367937
0.597841
-0.317234
0.325085
0.0673441
-0.148521
0.462937
0.200245
0.263079
0.636768
0.696223
0.157172
0.485254
0.78667
0.32115
0.140936
0.208541
-0.178955
0.264728
-0.16177
0.340254
0.294603
-0.117116
0.290875
0.142057
0.214899
0.187512
0.335659
0.347746
-0.131404
0.335915
-0.0467479
0.384693
-0.0314255
0.280168
0.401713
-0.0214113
-0.549994
-0.651572
-0.00885387
-0.670627
0.00543291
0.0368597
-0.630082
-0.566184
-0.788775
0.230829
0.266456
-0.715811
-0.417816
0.321473
-0.631031
-0.24472
0.00951393
-0.683503
-0.398941
0.849828
0.738509
-0.339018
-0.398182
0.55973
0.0228898
0.348168
0.381204
0.134062
0.447218
0.476823
-0.813319
0.44945
-0.495372
0.353879
0.682726
-0.387291
0.634089
-0.356209
0.151147
-0.431729
-0.0300701
-0.0302617
-0.0782584
0.184603
-0.7217
0.298778
-0.724075
0.355294
0.656296
-0.609732
-0.76563
0.0247238
-0.0183348
-0.402391
0.616602
-0.568885
0.216786
-0.246157
0.338546
0.307469
-0.0766501
-0.205068
0.287612
0.262649
0.0564285
0.487687
-0.119715
0.664227
-0.0663221
0.491984
-0.166869
-0.297902
0.365277
0.165068
-0.135094
0.335359
0.321056
-0.0579557
-0.167035
0.80386
0.529257
-0.142694
0.62799
0.793878
0.0979578
0.223196
-0.0247541
0.233301
0.161299
0.319763
-0.0550339
0.134947
0.159658
0.202648
0.0201566
0.270726
-0.0199985
0.234907
-0.138227
0.325737
0.197426
0.147474
0.200263
0.204502
0.33793
0.37026
0.0340216
0.359767
-0.607016
0.0570231
-0.614713
-0.679481
-0.601583
-0.233816
-0.396267
-0.467306
-0.484989
0.331304
-0.749173
-0.574008
0.300623
-0.545337
0.586429
-0.576902
-0.352211
0.339476
0.451566
-0.699324
0.360227
-0.0498339
0.609493
-0.0163799
0.364521
-0.144254
0.591392
0.460404
-0.249958
-0.615873
0.120445
-0.262049
0.724798
-0.0907776
-0.609641
0.253411
-0.458513
-0.658679
0.226919
0.708357
-0.738482
0.515972
-0.546269
0.610838
-0.689138
-0.54766
0.732198
-0.425314
0.813964
-0.458693
-0.700174
0.0904322
-0.465015
-0.675462
0.662027
-0.680372
0.259627
0.245059
0.662056
-0.445294
0.133492
0.172391
0.186013
0.221304
0.0663221
0.277745
0.45153
0.0361899
0.372301
0.344539
0.319761
0.385259
0.198436
-0.246746
0.411844
0.248789
0.0865849
0.0743301
0.190848
0.661225
0.873871
0.375042
0.252985
0.234034
0.55987
0.232909
0.198446
0.253463
0.263811
-0.102512
0.208777
0.266121
-0.106461
0.287559
-0.0849098
0.250737
0.268938
0.223222
0.344894
-0.104702
0.304957
-0.164446
0.368938
0.173469
0.411939
-0.0416995
-0.0672991
0.427037
-0.403733
-0.21098
-0.589019
-0.0904613
-0.709538
0.107955
-0.664744
0.19743
0.275476
-0.760473
-0.473749
-0.524976
-0.0490316
0.0410943
-0.509965
-0.066964
-0.862303
0.729913
-0.390535
0.586261
-0.134779
0.680269
-0.320125
0.536356
0.465159
0.297193
0.218517
0.372823
0.227928
0.232435
0.467503
-0.717538
0.657817
-0.537438
0.462694
-0.685961
0.595116
-0.405295
0.203523
0.747077
-0.520197
0.160637
-0.222552
0.0645359
0.0578998
0.0461711
-0.752165
0.326835
-0.780904
0.322193
0.560026
-0.469604
-0.465539
0.000525592
-0.506747
-0.168714
-0.120354
-0.492554
0.705766
-0.460731
0.26045
-0.11128
0.244782
-0.0752934
0.247696
-0.105042
0.291067
-0.205266
0.271601
0.172717
-0.272012
0.308223
0.100312
-0.200923
0.520718
0.48864
-0.103347
-0.195212
0.39368
0.216657
-0.16557
0.252168
-0.268372
0.342723
-0.077511
0.409324
0.251943
0.53013
0.343821
0.60909
0.662328
0.570086
0.0938476
0.139064
0.292299
0.00219658
0.251272
0.270695
-0.0619171
0.115412
0.15071
0.181098
0.185784
-0.00211517
0.25286
0.296641
-0.0276934
-0.0640415
0.287262
0.280846
0.264226
0.266783
0.0381667
-0.204128
0.377572
0.20779
0.385311
-0.41702
-0.480223
-0.184527
-0.563049
0.349877
-0.823695
-0.529258
-0.424435
0.763377
-0.830293
-0.512588
0.581335
0.148493
0.289658
0.446471
-0.584385
0.264201
0.00928407
0.527006
-0.076946
0.542025
0.525081
0.450896
-0.0251434
0.397914
-0.116946
-0.0597947
-0.0747999
0.648658
-0.0536064
-0.63396
0.22864
-0.43046
-0.637046
0.11682
0.674234
-0.513664
-0.683439
0.460838
-0.618948
0.642955
-0.585093
-0.577998
0.624105
-0.454089
0.752902
-0.43073
0.402524
-0.872141
-0.506222
0.442276
-0.611007
-0.520231
0.399871
-0.803413
0.310845
0.29215
0.685352
-0.424926
0.18537
0.0395243
0.215786
0.0821382
0.0299921
0.241618
-0.10196
0.274691
0.442902
-0.134656
0.322534
-0.222196
0.287747
0.542924
-0.0221824
0.339591
0.349621
0.0440802
0.31409
-0.0974128
0.174673
0.312456
0.0302882
0.78211
-0.340701
0.684569
0.209413
0.39969
0.397047
0.265301
0.779481
0.254479
0.294501
0.249164
0.225342
0.19754
-0.0468284
0.242717
-0.0616182
0.273429
-0.0876457
0.225175
0.00970285
0.271136
0.198965
0.0652523
0.276474
0.237125
0.227573
0.149978
-0.214703
0.422471
0.170582
0.382979
0.418529
-0.603079
-0.144535
-0.453314
-0.370442
-0.146283
0.338949
-0.153792
-0.676605
0.240428
-0.753943
0.613473
-0.465059
0.616521
-0.326935
0.724819
-0.278441
0.72835
-0.464223
0.734009
0.449986
0.516801
0.196333
0.32871
0.0466318
0.404218
0.444497
0.489324
-0.606333
0.573194
-0.633056
0.573788
-0.643083
0.589407
-0.408434
0.25487
0.630908
-0.51412
0.0961786
-0.823402
0.309678
-0.362636
0.0239603
0.0457805
-0.0190406
-0.793072
0.338965
-0.744247
0.313498
-0.117712
-0.429878
-0.167287
-0.47344
-0.137574
-0.403553
-0.482243
0.703814
-0.411688
0.278866
0.201191
-0.0158149
0.240724
0.170644
0.0451521
0.252794
-0.216456
0.246456
0.139668
0.18196
0.0927431
0.187901
0.127448
0.410801
-0.123028
0.202258
0.388642
0.403787
-0.0641679
-0.174915
0.219008
0.13919
0.215063
-0.0824667
0.257155
-0.27686
0.30717
0.346712
0.435427
0.639363
0.0452401
0.796715
0.61202
0.798394
-0.0206128
0.275095
0.0895797
0.204928
0.019291
0.22988
0.236353
-0.0110115
0.176929
0.195889
0.21181
0.148705
0.22755
-0.00236725
0.260119
0.292809
-0.00317317
0.279639
-0.0526406
0.289756
-0.15607
0.306032
0.266384
0.36688
-0.400698
-0.202396
-0.597821
0.315789
-0.68605
-0.546982
0.474124
-0.627591
-0.43617
-0.439091
0.334934
0.151388
0.401339
0.0250265
0.234888
0.499031
0.684795
0.376831
0.139899
0.00616838
0.322503
0.410331
0.0710765
0.373368
-0.0332151
-0.0593366
0.623886
-0.0345452
-0.619408
0.210951
-0.364563
-0.52436
0.0102185
-0.457534
0.553664
0.731887
-0.422269
-0.743395
0.380704
0.62083
-0.596919
0.638659
-0.592915
-0.616774
0.59767
-0.405303
0.716645
-0.40317
0.557159
-0.674881
-0.633773
0.203892
-0.640712
-0.771359
0.153595
-0.805186
0.322926
0.304936
0.651329
-0.372489
0.211743
0.0242779
0.227126
0.208681
0.0441226
0.0963568
0.150107
0.236033
-0.105824
0.198576
0.373396
-0.185469
-0.241652
0.36912
0.280791
-0.32836
0.530641
0.0603069
-0.305399
0.241254
-0.0226305
0.236303
-0.0970996
0.227983
-0.0129077
0.126223
-0.0196905
0.181716
0.125468
-0.130222
0.565655
0.509174
-0.399714
0.444978
0.58433
0.212358
0.0477747
0.564253
0.0213487
0.77697
0.124116
0.150981
0.213699
0.224224
0.227519
-0.0314583
0.208389
0.215228
-0.019338
0.213052
-0.00124379
-0.129233
0.277936
0.130882
0.240152
0.286572
0.126883
0.152748
0.301129
0.0048883
0.22739
0.038979
0.0759663
0.290882
0.36189
-0.564313
-0.235911
-0.304125
-0.38177
0.253017
0.86832
-0.394205
-0.296139
-0.331109
-0.731805
0.22247
-0.663981
0.806664
-0.47187
-0.563142
0.714436
-0.161902
0.607576
-0.58265
-0.100028
0.598928
0.299217
0.38551
0.447848
0.439049
0.398431
0.0416269
0.368651
0.414936
0.551465
-0.58476
0.564476
-0.645646
0.611029
-0.31343
0.286745
0.57305
-0.562856
0.274308
-0.0631571
-0.760585
0.338261
-0.122615
-0.379936
0.0417015
-0.0198992
-0.0480424
-0.759588
0.354266
-0.757888
0.354698
-0.641587
-0.0333001
-0.437717
0.227612
-0.543775
-0.651607
-0.436685
0.64328
-0.338368
0.270769
0.219614
-0.00786191
0.243903
0.163865
0.0632707
0.207997
0.207591
-0.0574746
0.130217
0.183355
0.0152301
0.0680175
0.183674
0.420004
-0.13919
0.130952
-0.24566
0.305989
0.401787
-0.160513
0.213687
0.130896
0.168819
0.211785
-0.0855539
0.192107
0.194872
-0.0693895
0.613433
-0.107199
0.61638
0.482975
-0.0379779
0.60561
0.776578
0.808964
-0.0564414
0.207425
0.0350558
0.178646
0.0265067
0.197722
0.211019
0.0165072
0.183771
0.151949
0.193713
-0.177152
0.175906
0.100781
0.257757
-0.0831883
0.323321
0.134389
0.152172
0.287129
0.217922
0.232266
0.329836
-0.31132
-0.539919
0.153763
-0.534964
-0.756781
0.362322
0.285303
-0.616249
-0.508561
-0.513005
0.722815
0.0836928
0.242445
-0.703003
0.540974
-0.0955429
-0.0312691
0.622639
0.0601101
0.538727
0.445551
0.0925533
0.355239
0.0565145
0.382479
0.0417125
0.35668
0.410315
0.0410155
0.373873
-0.0203595
0.600943
0.010014
-0.652538
0.339088
-0.365818
-0.223791
0.607244
-0.332985
0.544038
0.698271
-0.360068
-0.583062
0.460414
-0.650823
0.270848
0.657021
-0.61536
0.616895
-0.636833
-0.669557
0.621443
-0.403644
0.683075
-0.3284
0.654586
-0.687897
0.388088
-0.825844
-0.624235
0.0805032
0.00296335
-0.829987
0.393282
0.344686
0.648542
-0.377798
0.203164
0.220379
0.0235349
0.246638
0.122452
0.0651388
0.142462
0.162913
0.195364
0.210604
0.289791
-0.221756
0.281783
-0.098091
0.174363
0.262622
0.36265
-0.23168
0.418431
-0.112425
0.129296
0.305662
-0.0919603
-0.173547
0.304457
-0.00471681
-0.0978784
0.289999
0.19017
-0.204578
0.135202
-0.21791
0.831294
0.375798
0.398478
-0.384239
0.346279
-0.1404
0.74593
0.63615
-0.171792
0.98072
0.242484
0.205157
0.214235
0.18851
-0.00473859
-0.0952648
0.247215
0.188291
0.00542067
0.222318
-0.0464142
-0.115732
0.216508
0.142019
0.159896
0.163406
0.312051
0.124087
0.163033
0.273695
-0.0557872
-0.0414392
0.27369
0.288375
0.48868
-0.0511275
-0.585315
-0.471754
-0.261867
-0.56833
-0.0475466
0.20261
-0.710228
0.0989429
-0.614515
0.683907
-0.600342
0.632308
-0.389975
0.763958
-0.223107
-0.636301
0.540655
0.584128
-0.615485
0.0520837
0.570407
0.0862446
0.452394
0.502003
0.474967
0.396208
0.130697
0.225965
0.225601
0.184671
0.147476
0.226352
0.580504
-0.638506
0.648443
0.282701
0.523667
-0.747493
0.365227
-0.125588
-0.776808
0.416668
0.0739245
-0.19044
-0.506008
0.00149296
-0.113208
-0.017141
-0.757597
0.353933
-0.824799
0.496374
-0.29982
-0.643441
-0.182422
-0.562926
0.560184
-0.557235
-0.269819
-0.364334
0.541305
-0.196638
0.163488
-0.0124366
0.215606
-0.16367
0.187213
0.131203
0.115448
0.253668
0.194805
-0.0523356
0.1942
-0.0312792
0.0178015
0.192811
0.0600423
-0.254432
0.156355
0.299654
-0.125276
0.31296
-0.0503189
-0.0215748
0.186769
0.187244
-0.186002
0.315317
0.051243
0.212511
0.155801
0.0854327
-0.0936888
0.283876
0.254348
-0.119134
0.212425
0.618837
-0.125903
0.501711
-0.110092
0.508552
0.471607
-0.125318
0.574023
0.0238011
0.612268
0.208231
0.772441
0.134426
0.108061
0.0387572
0.166404
0.188529
0.0257098
0.0932455
0.183553
0.178913
0.0683023
0.227735
0.170089
0.2661
-0.146817
0.310202
0.0920663
0.219969
0.255088
0.126863
0.217888
0.0564996
0.231851
0.214628
-0.514029
0.0416268
0.451894
-0.713652
-0.363957
-0.562895
-0.611153
-0.401952
0.656873
0.0268925
0.0318619
0.37388
-0.66523
0.44202
-0.0522598
-0.124679
-0.0350574
0.708797
0.656535
-0.0474876
0.499796
0.454424
0.14563
0.329276
0.224512
0.171651
0.187179
0.141496
0.0844516
0.373022
0.326134
0.450818
0.559471
0.0889031
-0.464824
0.7826
-0.417465
0.656924
0.417013
0.695158
-0.621277
0.504682
0.620183
-0.618735
0.617759
-0.731014
-0.65629
0.639063
-0.47089
0.650957
-0.154609
-0.595547
0.295713
0.567656
-0.750242
-0.111028
-0.815054
0.257811
-0.668207
0.398375
-0.747126
0.382774
0.454299
0.616149
-0.452683
0.176097
0.0519409
0.16357
0.0236483
-0.108798
0.224259
0.156231
0.0385802
0.14187
0.132296
0.17404
0.0840208
-0.256116
0.316176
-0.0997481
0.187702
-0.291719
0.241419
-0.355906
0.334346
-0.169124
0.370032
-0.182771
0.130193
0.0236175
-0.192884
0.244139
0.0196435
0.212185
-0.0563726
0.174178
-0.0887379
0.160673
0.175636
0.108253
0.0550526
-0.400373
0.612679
0.642667
0.345719
0.391627
0.108166
-0.329296
0.203991
-0.147944
0.722031
0.464122
0.93042
0.813078
0.173186
-0.0565388
0.164602
0.192118
-0.126071
0.219317
0.0574817
0.122376
-0.124078
0.192381
0.152307
0.0754257
-0.0939545
0.264038
0.172139
0.106404
0.203782
0.00150191
0.218456
0.0859669
0.16911
-0.18656
0.313407
0.0313116
0.26314
0.607137
-0.565658
-0.106421
0.434705
-0.797819
-0.130505
-0.398068
-0.212901
-0.624628
0.651388
-0.657681
0.689424
-0.283916
0.702808
-0.260901
0.598895
-0.651244
-0.644926
0.520154
0.524345
0.722191
-0.0135472
0.193603
0.462815
0.693281
0.599967
0.500862
0.271615
0.100707
0.272281
0.246192
0.0799071
0.197121
0.253667
-0.63759
0.726401
0.151293
-0.730247
-0.658363
0.187455
0.576125
-0.730762
-0.0279165
-0.519346
-0.439173
-0.311165
-0.550102
-0.410408
-0.348767
-0.275605
0.00159519
0.144669