/*--------------------------------*- C++ -*----------------------------------*\
| =========                 |                                                 |
| \\      /  F ield         | OpenFOAM: The Open Source CFD Toolbox           |
|  \\    /   O peration     | Version:  v2012                                 |
|   \\  /    A nd           | Website:  www.openfoam.com                      |
|    \\/     M anipulation  |                                                 |
\*---------------------------------------------------------------------------*/
FoamFile
{
    version     2.0;
    format      ascii;
    class       pointVectorField;
    location    "2.1";
    object      pointDisplacement;
}
// * * * * * * * * * * * * * * * * * * * * * * * * * * * * * * * * * * * * * //

dimensions      [0 1 0 0 0 0 0];


internalField   nonuniform List<vector> 
17322
(
(0 0 0)
(0 0 0)
(0 0 0)
(0 0 0)
(0 0 0)
(0 0 0)
(0 0 0)
(0 0 0)
(0 0 0)
(0 0 0)
(0 0 0)
(0 0 0)
(0 0 0)
(0 0 0)
(0 0 0)
(0 0 0)
(0 0 0)
(0 0 0)
(0 0 0)
(0 0 0)
(0 0 0)
(0 0 0)
(0 0 0)
(0 0 0)
(0 0 0)
(0 0 0)
(0 0 0)
(0 0 0)
(0 0 0)
(0 0 0)
(0 0 0)
(0 0 0)
(0 0 0)
(0 0 0)
(0 0 0)
(0 0 0)
(0 0 0)
(0 0 0)
(0 0 0)
(0 0 0)
(0 0 0)
(0 0 0)
(0 0 0)
(0 0 0)
(0 0 0)
(0 0 0)
(0 0 0)
(0 0 0)
(0 0 0)
(0 0 0)
(0 0 0)
(0 0 0)
(0 0 0)
(0 0 0)
(0 0 0)
(0 0 0)
(0 0 0)
(0 0 0)
(0 0 0)
(0 0 0)
(0 0 0)
(0 0 0)
(0 0 0)
(0 0 0)
(0 0 0)
(0 0 0)
(0 0 0)
(0 0 0)
(0 0 0)
(0 0 0)
(0 0 0)
(0 0 0)
(0 0 0)
(0 0 0)
(0 0 0)
(0 0 0)
(0 0 0)
(0 0 0)
(0 0 0)
(0 0 0)
(0 0 0)
(0 0 0)
(0 0 0)
(0 0 0)
(0 0 0)
(0 0 0)
(0 0 0)
(0 0 0)
(0 0 0)
(0 0 0)
(0 0 0)
(0 0 0)
(0 0 0)
(0 0 0)
(0 0 0)
(0.00129552 0.0254181 0)
(0.00109355 0.0253923 0)
(0.000882521 0.0253653 0)
(0.000665771 0.0253224 0)
(0.000451043 0.0252348 0)
(0.000239135 0.0251174 0)
(3.0242e-05 0.0249747 0)
(-0.000172811 0.0248058 0)
(-0.000371333 0.0246146 0)
(-0.000565149 0.0244022 0)
(-0.000754148 0.0241692 0)
(-0.000939168 0.0239169 0)
(-0.00112026 0.0236456 0)
(-0.00129805 0.0233559 0)
(-0.00147277 0.0230478 0)
(-0.00164481 0.0227214 0)
(-0.0018142 0.0223766 0)
(-0.00198144 0.0220134 0)
(-0.0021465 0.0216314 0)
(-0.00230963 0.0212305 0)
(-0.00247092 0.0208103 0)
(-0.00263041 0.0203706 0)
(-0.00278827 0.0199109 0)
(-0.00294441 0.019431 0)
(-0.0030989 0.0189303 0)
(-0.00325173 0.0184086 0)
(-0.0034028 0.0178654 0)
(-0.00355217 0.0173004 0)
(-0.00369969 0.0167131 0)
(-0.0038453 0.0161032 0)
(-0.0039889 0.0154704 0)
(-0.00413039 0.0148142 0)
(-0.00426965 0.0141343 0)
(-0.00440654 0.0134305 0)
(-0.00454094 0.0127025 0)
(-0.00467267 0.0119501 0)
(-0.00480158 0.011173 0)
(-0.00492752 0.0103712 0)
(-0.00505034 0.00954444 0)
(-0.00516984 0.00869274 0)
(-0.00528588 0.00781608 0)
(-0.00539826 0.00691447 0)
(-0.00550684 0.0059881 0)
(-0.00561145 0.00503696 0)
(-0.00571193 0.00406146 0)
(-0.00580812 0.00306177 0)
(-0.0058999 0.00203832 0)
(-0.00598711 0.00099139 0)
(-0.00606966 -7.83048e-05 0)
(-0.00614739 -0.00117026 0)
(-0.00622025 -0.00228388 0)
(-0.00628812 -0.00341844 0)
(-0.00635096 -0.00457313 0)
(-0.0064087 -0.00574705 0)
(-0.00646133 -0.00693927 0)
(-0.0065088 -0.00814887 0)
(-0.00655114 -0.00937474 0)
(-0.00658834 -0.0106157 0)
(-0.00662045 -0.0118705 0)
(-0.00664753 -0.0131379 0)
(-0.00666964 -0.0144168 0)
(-0.00668687 -0.0157056 0)
(-0.00669933 -0.0170031 0)
(-0.00670712 -0.0183078 0)
(-0.00671038 -0.0196181 0)
(-0.00670925 -0.0209326 0)
(-0.00670388 -0.0222498 0)
(-0.00669446 -0.0235683 0)
(-0.00668112 -0.0248864 0)
(-0.00666407 -0.0262028 0)
(-0.0066435 -0.0275158 0)
(-0.00661958 -0.0288239 0)
(-0.00659251 -0.0301258 0)
(-0.0065625 -0.0314199 0)
(-0.00652973 -0.0327049 0)
(-0.0064944 -0.0339794 0)
(-0.00645672 -0.0352421 0)
(-0.00641687 -0.0364917 0)
(-0.00637505 -0.0377271 0)
(-0.00633143 -0.0389469 0)
(-0.00628622 -0.0401504 0)
(-0.00623958 -0.0413362 0)
(-0.00619169 -0.0425036 0)
(-0.0061427 -0.0436516 0)
(-0.00609279 -0.0447795 0)
(-0.00604212 -0.0458864 0)
(0.00134542 -0.046263 0)
(0.00150838 -0.0451669 0)
(0.0016727 -0.0440499 0)
(0.00183816 -0.0429129 0)
(0.00200449 -0.0417564 0)
(0.00217146 -0.0405814 0)
(0.00233879 -0.0393888 0)
(0.00250621 -0.0381797 0)
(0.00267342 -0.036955 0)
(0.00284011 -0.0357159 0)
(0.00300598 -0.0344636 0)
(0.0031707 -0.0331994 0)
(0.00333395 -0.0319243 0)
(0.00349539 -0.03064 0)
(0.00365468 -0.0293476 0)
(0.00381148 -0.0280486 0)
(0.00396544 -0.0267446 0)
(0.00411623 -0.0254368 0)
(0.00426352 -0.0241268 0)
(0.00440695 -0.0228161 0)
(0.00454621 -0.0215063 0)
(0.00468099 -0.0201987 0)
(0.00481097 -0.0188948 0)
(0.00493587 -0.0175961 0)
(0.00505539 -0.0163041 0)
(0.00516929 -0.0150202 0)
(0.00527731 -0.0137457 0)
(0.00537924 -0.0124821 0)
(0.00547488 -0.0112305 0)
(0.00556403 -0.00999223 0)
(0.00564655 -0.00876841 0)
(0.00572231 -0.00756024 0)
(0.00579118 -0.00636885 0)
(0.00585309 -0.00519515 0)
(0.00590798 -0.00404005 0)
(0.0059558 -0.00290447 0)
(0.00599655 -0.00178922 0)
(0.00603024 -0.000695016 0)
(0.00605688 0.000377528 0)
(0.00607657 0.0014279 0)
(0.00608932 0.00245538 0)
(0.00609527 0.00345966 0)
(0.00609449 0.00444033 0)
(0.00608713 0.00539718 0)
(0.0060733 0.00632979 0)
(0.00605317 0.00723815 0)
(0.00602686 0.00812206 0)
(0.00599458 0.0089815 0)
(0.00595645 0.00981647 0)
(0.00591269 0.010627 0)
(0.00586345 0.0114131 0)
(0.00580889 0.012175 0)
(0.00574922 0.0129129 0)
(0.00568459 0.013627 0)
(0.00561518 0.0143174 0)
(0.00554114 0.0149846 0)
(0.00546263 0.0156288 0)
(0.00537978 0.0162503 0)
(0.00529274 0.0168496 0)
(0.00520159 0.0174269 0)
(0.00510652 0.0179826 0)
(0.00500753 0.0185172 0)
(0.00490475 0.0190309 0)
(0.00479822 0.0195243 0)
(0.00468791 0.0199976 0)
(0.00457395 0.0204513 0)
(0.00445622 0.0208856 0)
(0.00433469 0.0213011 0)
(0.00420933 0.0216978 0)
(0.00407988 0.0220762 0)
(0.00394643 0.0224364 0)
(0.00380846 0.0227786 0)
(0.00366597 0.0231029 0)
(0.00351857 0.0234092 0)
(0.00336599 0.0236975 0)
(0.00320758 0.0239673 0)
(0.00304325 0.0242182 0)
(0.00287204 0.0244493 0)
(0.00269399 0.0246597 0)
(0.00250916 0.0248484 0)
(0.00231586 0.0250116 0)
(0.00211698 0.0251499 0)
(0.00191227 0.0252589 0)
(0.00170101 0.0253236 0)
(0.00149381 0.0253719 0)
(6.28314e-06 0.000156457 0)
(6.69852e-06 0.00016135 0)
(1.41885e-05 0.000338208 0)
(1.84258e-05 0.000450104 0)
(1.18541e-05 0.000290125 0)
(4.0162e-06 0.00010239 0)
(8.39681e-06 0.000213791 0)
(8.45697e-06 0.000196533 0)
(2.16342e-05 0.000514404 0)
(1.37704e-05 0.000345992 0)
(1.18623e-05 0.000307194 0)
(2.1527e-05 0.000539984 0)
(1.83654e-05 0.000424131 0)
(2.93162e-05 0.000681417 0)
(2.72398e-05 0.000663035 0)
(2.77513e-05 0.000699101 0)
(1.09296e-05 0.000294396 0)
(7.74827e-06 0.000210709 0)
(7.62829e-06 0.000204831 0)
(6.08123e-06 0.000157638 0)
(3.80694e-06 0.000100391 0)
(1.195e-05 0.000265754 0)
(2.44886e-05 0.000547225 0)
(3.69089e-05 0.000883058 0)
(4.18309e-05 0.000958101 0)
(2.01749e-05 0.000531866 0)
(1.78988e-05 0.000460532 0)
(2.40887e-05 0.000621439 0)
(8.38737e-06 0.000221739 0)
(5.33944e-05 0.00129562 0)
(4.28669e-05 0.0010545 0)
(4.58057e-05 0.00108687 0)
(3.42916e-05 0.000853868 0)
(3.92692e-05 0.00100456 0)
(3.11521e-05 0.000806993 0)
(1.19829e-05 0.000333746 0)
(1.36393e-05 0.000373402 0)
(1.50809e-05 0.000419518 0)
(2.86306e-06 7.67525e-05 0)
(5.56558e-06 0.000148548 0)
(5.26562e-06 0.000142303 0)
(1.17821e-05 0.000248836 0)
(3.39522e-05 0.00076075 0)
(3.27967e-05 0.000705659 0)
(4.13508e-05 0.000910349 0)
(2.09338e-05 0.000451802 0)
(4.75497e-05 0.00120537 0)
(2.56261e-05 0.000681132 0)
(2.60772e-05 0.000718669 0)
(2.11881e-05 0.000573285 0)
(2.17092e-05 0.000612956 0)
(2.09693e-05 0.000580051 0)
(1.00252e-05 0.000275241 0)
(7.30245e-06 0.000201002 0)
(8.35324e-06 0.000232858 0)
(2.62856e-06 7.1574e-05 0)
(2.4593e-05 0.000509281 0)
(6.49186e-05 0.00143544 0)
(5.39396e-05 0.00124353 0)
(5.1648e-05 0.00113906 0)
(5.51784e-05 0.00139516 0)
(6.33044e-05 0.00156111 0)
(5.28511e-05 0.00142881 0)
(4.92733e-05 0.0013918 0)
(4.62759e-05 0.00125851 0)
(2.96032e-05 0.00084012 0)
(2.51949e-05 0.000716387 0)
(1.75256e-05 0.000481161 0)
(1.03289e-05 0.000292175 0)
(5.19785e-06 0.000144113 0)
(5.26207e-06 0.000144025 0)
(1.38425e-05 0.00027725 0)
(6.17689e-05 0.00118168 0)
(7.73577e-05 0.00151837 0)
(6.66379e-05 0.00134285 0)
(6.03863e-05 0.00127331 0)
(5.33376e-05 0.001079 0)
(7.89026e-05 0.00176553 0)
(6.49222e-05 0.00151701 0)
(5.98926e-05 0.00156192 0)
(5.08884e-05 0.00133252 0)
(3.93572e-05 0.00107613 0)
(3.55049e-05 0.00100673 0)
(3.28684e-05 0.000903555 0)
(1.90696e-05 0.00056075 0)
(1.52343e-05 0.000450521 0)
(1.77484e-05 0.000510945 0)
(3.50219e-06 9.63671e-05 0)
(1.6421e-06 4.52146e-05 0)
(1.71541e-05 0.000324485 0)
(1.88888e-05 0.000339015 0)
(2.97611e-05 0.000585232 0)
(3.91281e-05 0.000725982 0)
(4.48189e-05 0.000876408 0)
(4.64335e-05 0.000984822 0)
(3.87263e-05 0.000792013 0)
(9.53029e-05 0.0020945 0)
(8.74868e-05 0.00187585 0)
(8.54376e-05 0.00210888 0)
(7.11465e-05 0.00179973 0)
(7.50245e-05 0.00179207 0)
(2.60297e-05 0.000758399 0)
(3.10702e-05 0.000914774 0)
(5.7924e-05 0.00159646 0)
(2.20183e-05 0.000637157 0)
(1.40926e-05 0.000399701 0)
(1.79118e-05 0.000502552 0)
(1.1484e-05 0.000337313 0)
(1.11254e-05 0.000320309 0)
(1.39854e-05 0.000405177 0)
(5.69266e-06 0.000162011 0)
(5.71245e-06 0.000160455 0)
(7.70558e-06 0.00021778 0)
(3.54562e-06 9.92067e-05 0)
(3.66738e-06 0.000103709 0)
(2.78279e-06 7.71823e-05 0)
(1.04878e-06 2.91057e-05 0)
(6.4298e-05 0.0011374 0)
(7.96246e-05 0.00131013 0)
(9.66031e-05 0.00167623 0)
(9.68958e-05 0.0020059 0)
(0.000109643 0.0023041 0)
(8.61978e-05 0.00199993 0)
(9.59744e-05 0.00222628 0)
(7.58408e-05 0.00197885 0)
(7.24239e-05 0.00198976 0)
(6.69205e-05 0.00179102 0)
(6.33078e-05 0.00179474 0)
(5.48401e-05 0.00159301 0)
(4.74457e-05 0.00141166 0)
(4.33744e-05 0.00126584 0)
(4.01711e-05 0.00122312 0)
(3.07352e-05 0.000968411 0)
(3.39165e-05 0.00103143 0)
(3.52023e-05 0.00110288 0)
(2.29862e-05 0.000714516 0)
(1.8041e-05 0.000558464 0)
(2.14406e-05 0.000650959 0)
(8.34262e-06 0.000243148 0)
(8.17324e-06 0.00023407 0)
(5.59489e-06 0.000161567 0)
(5.33039e-06 0.000156566 0)
(3.22378e-06 9.22505e-05 0)
(1.85451e-06 5.17754e-05 0)
(3.10281e-05 0.000503752 0)
(3.49475e-05 0.000605823 0)
(5.37652e-05 0.000898514 0)
(5.88768e-05 0.000935724 0)
(0.000114819 0.0018498 0)
(0.000127522 0.00219105 0)
(0.000116256 0.00228691 0)
(0.000101959 0.00244538 0)
(8.63752e-05 0.00241488 0)
(7.70346e-05 0.00216773 0)
(8.23024e-05 0.00218861 0)
(3.81641e-05 0.00122051 0)
(5.12713e-05 0.00163028 0)
(5.88914e-05 0.0017816 0)
(5.69437e-05 0.00184379 0)
(2.54839e-05 0.000765741 0)
(2.21272e-05 0.000656195 0)
(1.93602e-05 0.000613578 0)
(8.23339e-06 0.000245466 0)
(1.1807e-05 0.000353587 0)
(2.7323e-06 7.93017e-05 0)
(1.77891e-06 5.05195e-05 0)
(1.981e-06 5.57621e-05 0)
(8.08031e-07 2.2528e-05 0)
(3.37297e-07 9.38678e-06 0)
(7.82931e-07 2.19498e-05 0)
(4.11854e-05 0.000618922 0)
(8.88558e-05 0.00134845 0)
(0.000163613 0.00300207 0)
(0.00015278 0.00263884 0)
(0.000179223 0.00301016 0)
(0.000156054 0.00249615 0)
(0.00012699 0.00263364 0)
(0.000116015 0.00271236 0)
(0.000109071 0.00272294 0)
(9.43594e-05 0.00243112 0)
(0.00010007 0.00269763 0)
(6.53877e-05 0.00203171 0)
(6.16386e-05 0.0020595 0)
(3.49518e-05 0.00117552 0)
(4.05444e-05 0.00133181 0)
(3.94706e-05 0.00135408 0)
(4.50252e-05 0.00149033 0)
(4.35749e-05 0.00152514 0)
(2.59874e-05 0.000825913 0)
(2.79279e-05 0.000911502 0)
(2.40728e-05 0.000788155 0)
(1.40845e-05 0.000429315 0)
(1.41506e-05 0.000442434 0)
(1.09372e-05 0.000340755 0)
(2.01497e-05 0.000671589 0)
(1.62399e-05 0.000540346 0)
(1.79463e-05 0.000582976 0)
(4.49632e-06 0.000134554 0)
(3.47688e-06 0.000108187 0)
(6.02002e-06 0.000183488 0)
(7.26024e-06 0.000225841 0)
(2.42184e-06 7.14506e-05 0)
(0.000201719 0.00354226 0)
(0.000180008 0.00346375 0)
(0.000190378 0.00277077 0)
(0.000163511 0.00222731 0)
(0.000210163 0.00280334 0)
(0.000145879 0.00329183 0)
(0.000130237 0.00287957 0)
(0.000152026 0.00309978 0)
(0.000125857 0.00301683 0)
(0.000115039 0.00301415 0)
(8.19207e-05 0.00248749 0)
(9.21792e-05 0.00266649 0)
(7.11048e-05 0.00227321 0)
(6.55695e-05 0.00228355 0)
(2.94245e-05 0.000991113 0)
(2.44922e-05 0.000827483 0)
(3.45899e-05 0.00132604 0)
(4.15116e-05 0.00155767 0)
(3.55741e-05 0.00145374 0)
(2.01683e-05 0.000698585 0)
(2.97519e-05 0.001046 0)
(1.41363e-05 0.000461931 0)
(1.16037e-05 0.000371111 0)
(1.58766e-05 0.000505309 0)
(9.7734e-06 0.000298014 0)
(1.94543e-06 5.83205e-05 0)
(2.70028e-06 8.23123e-05 0)
(0.000191979 0.00300829 0)
(0.000227253 0.00342891 0)
(0.000208095 0.00337327 0)
(0.000156221 0.0036467 0)
(0.000172635 0.00365183 0)
(0.000172676 0.00394945 0)
(6.85664e-05 0.0019984 0)
(7.50577e-05 0.00223041 0)
(0.000154021 0.00391769 0)
(0.000161037 0.00433917 0)
(0.00013863 0.00403918 0)
(4.97784e-05 0.00167581 0)
(4.74285e-05 0.00168661 0)
(3.44583e-05 0.00121948 0)
(2.64099e-05 0.00091517 0)
(2.31955e-05 0.000811601 0)
(2.4901e-05 0.000891134 0)
(2.01653e-05 0.000728975 0)
(1.04226e-05 0.000343481 0)
(8.9246e-06 0.00030273 0)
(7.37502e-06 0.000244742 0)
(4.95327e-06 0.000157292 0)
(8.27482e-06 0.000289645 0)
(5.72661e-06 0.000197352 0)
(3.97729e-05 0.000549611 0)
(9.21674e-05 0.00114926 0)
(0.000131116 0.00169068 0)
(8.24701e-05 0.00110045 0)
(0.000254885 0.00321054 0)
(0.000245674 0.0033914 0)
(0.000207261 0.00399512 0)
(0.000233157 0.00406972 0)
(0.000246558 0.00451511 0)
(0.000193896 0.0023944 0)
(0.000301798 0.00392807 0)
(0.000220367 0.00457848 0)
(5.84155e-05 0.00224482 0)
(5.63704e-05 0.00204137 0)
(6.92345e-05 0.0025286 0)
(7.99454e-05 0.00275201 0)
(7.44428e-05 0.00284749 0)
(0.000128384 0.00362876 0)
(2.91327e-05 0.00111351 0)
(2.69004e-05 0.000990511 0)
(3.07579e-05 0.00112202 0)
(3.79295e-05 0.00137324 0)
(1.37578e-05 0.000497546 0)
(1.67522e-05 0.000593784 0)
(1.6373e-05 0.000595922 0)
(4.37406e-06 0.00014421 0)
(3.3448e-06 0.000108203 0)
(7.26913e-06 0.000235543 0)
(1.60174e-05 0.000549247 0)
(1.37682e-05 0.000485392 0)
(1.17813e-05 0.00040803 0)
(1.29285e-05 0.000434547 0)
(7.29156e-05 0.00103941 0)
(0.000238098 0.00384323 0)
(0.0001333 0.00157909 0)
(0.000110734 0.00120439 0)
(0.000194325 0.00216006 0)
(0.000309118 0.00368561 0)
(0.000263046 0.0030155 0)
(0.000168295 0.00519474 0)
(0.000144969 0.00451552 0)
(0.000180551 0.0047829 0)
(5.70824e-05 0.00291193 0)
(7.19839e-05 0.00310012 0)
(6.60624e-05 0.00331255 0)
(4.29503e-05 0.00171738 0)
(4.99592e-05 0.00197111 0)
(4.40208e-05 0.00186019 0)
(9.90975e-05 0.00396108 0)
(0.000120381 0.00405139 0)
(0.000117246 0.00434602 0)
(0.000184871 0.00437675 0)
(3.79729e-05 0.00165038 0)
(2.35474e-05 0.000906114 0)
(4.86338e-05 0.00180702 0)
(1.43064e-05 0.000529092 0)
(1.67491e-05 0.000625119 0)
(1.36666e-05 0.000517953 0)
(1.5871e-05 0.00061519 0)
(1.90991e-05 0.000752486 0)
(1.60186e-05 0.000642651 0)
(5.39062e-06 0.000181578 0)
(2.85375e-06 9.73852e-05 0)
(2.55835e-06 8.55808e-05 0)
(1.05962e-05 0.000379614 0)
(7.05266e-06 0.000253601 0)
(3.23945e-06 0.000112738 0)
(4.63625e-05 0.000589971 0)
(6.49726e-05 0.000761258 0)
(0.00025865 0.00577477 0)
(0.000285263 0.00548176 0)
(0.000317811 0.00613677 0)
(0.000369987 0.00444289 0)
(0.00039817 0.00508515 0)
(0.000343351 0.00463947 0)
(0.000241359 0.00517669 0)
(0.000208783 0.00485984 0)
(6.07895e-05 0.00248574 0)
(6.14424e-05 0.00272818 0)
(5.02443e-05 0.00256055 0)
(4.49637e-05 0.00224741 0)
(5.33296e-05 0.00243012 0)
(8.40023e-05 0.00351804 0)
(0.000119372 0.0037499 0)
(4.88851e-05 0.00212949 0)
(4.05048e-05 0.00183795 0)
(2.14288e-05 0.000862341 0)
(2.51689e-05 0.00101304 0)
(2.99686e-05 0.00121095 0)
(2.96816e-05 0.00126862 0)
(1.12722e-05 0.000432258 0)
(1.10927e-05 0.000412475 0)
(1.29532e-05 0.000519753 0)
(1.97974e-05 0.00074857 0)
(5.63119e-06 0.000207682 0)
(8.43461e-06 0.000309201 0)
(7.70068e-06 0.00028874 0)
(2.38069e-06 8.44386e-05 0)
(5.16827e-06 0.000182433 0)
(4.07359e-06 0.000147123 0)
(0.000281225 0.00411547 0)
(0.000289074 0.00502612 0)
(0.000335408 0.00566373 0)
(0.000460168 0.00535786 0)
(0.000157653 0.00144645 0)
(0.000261712 0.00244205 0)
(0.000181515 0.00183439 0)
(0.00027249 0.0028176 0)
(0.000373763 0.00354601 0)
(0.000349715 0.00378544 0)
(0.000176173 0.00616598 0)
(0.000211732 0.00590821 0)
(0.000219517 0.00662001 0)
(0.000127216 0.00478263 0)
(4.24705e-05 0.00265326 0)
(5.00781e-05 0.0030862 0)
(3.73015e-05 0.00287898 0)
(0.000133779 0.00530723 0)
(3.178e-05 0.00176434 0)
(3.93018e-05 0.00194391 0)
(3.6369e-05 0.00206433 0)
(2.13395e-05 0.000896952 0)
(3.29117e-05 0.00160749 0)
(2.77648e-05 0.0013373 0)
(3.16628e-05 0.00141702 0)
(1.76962e-05 0.000730918 0)
(8.56167e-05 0.000850233 0)
(0.000435552 0.00573274 0)
(0.000378895 0.00525198 0)
(0.00039171 0.00647493 0)
(0.000740034 0.00760249 0)
(0.000624396 0.00712068 0)
(0.000676782 0.00666762 0)
(0.000234116 0.00197088 0)
(0.000110613 0.000921862 0)
(0.000462898 0.00383358 0)
(0.000604728 0.00507345 0)
(0.000495726 0.00459929 0)
(0.000122641 0.00585063 0)
(0.000109833 0.00533282 0)
(0.000279124 0.00651629 0)
(3.20819e-05 0.00221445 0)
(4.12332e-05 0.00235206 0)
(7.51639e-05 0.00379605 0)
(9.469e-05 0.00436793 0)
(6.88619e-05 0.00414609 0)
(5.72981e-05 0.00345528 0)
(5.44379e-05 0.00376054 0)
(0.000103182 0.00493228 0)
(7.98845e-05 0.00521401 0)
(7.28116e-05 0.00459525 0)
(2.8302e-05 0.00185176 0)
(2.5439e-05 0.00116198 0)
(2.094e-05 0.000934471 0)
(2.54442e-05 0.00108212 0)
(2.2811e-05 0.0011415 0)
(8.98497e-06 0.000344144 0)
(5.53893e-06 0.000208533 0)
(9.81154e-06 0.000387476 0)
(1.01872e-05 0.000415627 0)
(1.771e-06 6.40709e-05 0)
(2.46251e-06 9.09361e-05 0)
(0.000351296 0.00682683 0)
(0.000498421 0.00513008 0)
(0.000565503 0.00606914 0)
(0.000429191 0.00433952 0)
(0.000422575 0.00461538 0)
(7.04458e-05 0.00064124 0)
(0.000336557 0.00290348 0)
(0.000752052 0.0055885 0)
(0.000872609 0.00690041 0)
(0.000720945 0.00620846 0)
(2.65999e-05 0.00619113 0)
(6.41965e-05 0.00576774 0)
(9.16377e-05 0.00647998 0)
(0.000272717 0.00717875 0)
(0.00020976 0.0072412 0)
(4.46847e-05 0.00471842 0)
(4.03001e-05 0.00329162 0)
(2.43434e-05 0.00283614 0)
(4.33308e-05 0.00521965 0)
(4.58902e-05 0.00414793 0)
(2.50087e-05 0.00156295 0)
(2.02223e-05 0.00156859 0)
(1.90439e-05 0.0013011 0)
(1.77533e-05 0.000930683 0)
(1.97079e-05 0.000946319 0)
(2.03313e-05 0.0011243 0)
(6.88937e-06 0.000274446 0)
(5.03595e-06 0.000200915 0)
(5.57856e-06 0.000218852 0)
(4.08559e-06 0.000158475 0)
(2.33849e-06 9.00569e-05 0)
(3.99669e-06 0.00015225 0)
(1.4093e-05 0.000603166 0)
(1.17374e-05 0.000490344 0)
(1.44769e-05 0.000596719 0)
(1.21723e-05 0.000586138 0)
(1.32336e-05 0.000597453 0)
(1.63764e-05 0.000761274 0)
(0.000381682 0.00748172 0)
(0.000323146 0.00714092 0)
(0.000785811 0.0084256 0)
(0.00071444 0.00865137 0)
(0.000697478 0.00796439 0)
(0.000801732 0.00725347 0)
(0.000853372 0.00814042 0)
(0.000190037 0.00143403 0)
(0.000339234 0.00263735 0)
(0.000314417 0.00216321 0)
(0.000129865 0.000863957 0)
(0.00069876 0.00406836 0)
(0.000921216 0.00499556 0)
(0.000839714 0.00532141 0)
(0.000131581 0.00727199 0)
(0.000159254 0.00662844 0)
(1.35641e-05 0.00193283 0)
(7.69753e-06 0.00215323 0)
(5.15741e-06 0.00160654 0)
(2.41282e-05 0.00190423 0)
(-6.17836e-07 0.00319039 0)
(1.04278e-05 0.00367135 0)
(-9.2035e-06 0.00377183 0)
(2.13564e-05 0.00334001 0)
(1.47645e-05 0.00549696 0)
(1.20272e-05 0.0048531 0)
(1.59882e-05 0.00421188 0)
(1.43572e-05 0.00119966 0)
(1.49846e-05 0.000750367 0)
(1.11193e-05 0.000676002 0)
(1.31923e-05 0.000722074 0)
(1.54814e-05 0.00089964 0)
(5.39184e-06 0.000219236 0)
(7.89072e-06 0.000321106 0)
(3.69638e-06 0.000146048 0)
(3.93584e-06 0.00014744 0)
(2.05458e-06 7.76761e-05 0)
(1.01693e-05 0.000445298 0)
(7.12615e-06 0.000310059 0)
(8.4622e-06 0.000355833 0)
(5.798e-06 0.00027651 0)
(9.43699e-06 0.000438762 0)
(8.1666e-06 0.000405395 0)
(0.000556303 0.00825899 0)
(0.000527114 0.00869585 0)
(0.000466833 0.0079191 0)
(0.00100358 0.0095364 0)
(0.00107937 0.0102733 0)
(0.000968106 0.0101495 0)
(0.00122085 0.00825757 0)
(0.00113223 0.00727922 0)
(0.00128011 0.00779343 0)
(0.000644599 0.00433395 0)
(0.00047104 0.00293159 0)
(0.000139402 0.00798518 0)
(7.98845e-05 0.00762799 0)
(-9.3024e-05 0.00620213 0)
(-4.80684e-05 0.00701644 0)
(-0.000144129 0.00703453 0)
(0.00033305 0.00769404 0)
(0.000349167 0.0084115 0)
(0.00027165 0.0078122 0)
(1.12992e-05 0.00289695 0)
(1.82539e-05 0.0023577 0)
(2.25292e-05 0.00211927 0)
(1.42124e-05 0.00102437 0)
(-3.0112e-05 0.00580386 0)
(-2.6722e-05 0.0050661 0)
(-1.81554e-05 0.00437739 0)
(1.03174e-05 0.000879447 0)
(1.07552e-05 0.000558421 0)
(1.74901e-05 0.00109033 0)
(1.30095e-05 0.000851065 0)
(4.59826e-06 0.000202956 0)
(5.37747e-06 0.000228759 0)
(3.31062e-06 0.000139096 0)
(4.75009e-06 0.000197227 0)
(2.72219e-06 0.000106301 0)
(6.83076e-06 0.000308863 0)
(6.86201e-06 0.000367836 0)
(0.000506921 0.00961108 0)
(0.000570672 0.00932402 0)
(0.000592037 0.00993831 0)
(0.00111819 0.00983245 0)
(0.0012237 0.00971916 0)
(0.00119136 0.0103804 0)
(0.00104712 0.006197 0)
(0.00124113 0.00697571 0)
(0.000546696 0.00298447 0)
(0.000329711 0.00182107 0)
(0.000255504 0.00156961 0)
(0.00117736 0.00584676 0)
(0.000992851 0.00464335 0)
(0.0011892 0.00484404 0)
(0.000201792 0.00785456 0)
(3.92086e-05 0.00698721 0)
(7.60545e-06 0.00769773 0)
(0.000228448 0.00961888 0)
(0.000226633 0.0101219 0)
(0.000138102 0.00984445 0)
(-2.05864e-05 0.0033135 0)
(1.11615e-05 0.00157241 0)
(1.31794e-05 0.00138302 0)
(9.36771e-06 0.0010096 0)
(-3.5914e-05 0.00301995 0)
(-1.61713e-05 0.0027774 0)
(-0.000172006 0.00622747 0)
(-0.000151745 0.00541082 0)
(-5.88513e-05 0.00452228 0)
(-4.09992e-05 0.00375955 0)
(9.16967e-06 0.000520416 0)
(4.24127e-06 0.000309098 0)
(3.42285e-06 0.000214023 0)
(7.1033e-06 0.00044706 0)
(1.93251e-06 8.05074e-05 0)
(3.18791e-06 0.00013088 0)
(3.64095e-06 0.000146485 0)
(2.64529e-06 0.00010556 0)
(1.89175e-06 7.63938e-05 0)
(8.41759e-07 3.33284e-05 0)
(2.14839e-06 8.48333e-05 0)
(1.74981e-06 6.97656e-05 0)
(1.36104e-06 5.30971e-05 0)
(3.33292e-06 0.000186652 0)
(3.84182e-06 0.000195989 0)
(0.00104286 0.00848083 0)
(0.000969363 0.0087052 0)
(0.000933337 0.00788642 0)
(0.000951401 0.00654193 0)
(0.00104679 0.00775549 0)
(0.00148101 0.00994271 0)
(0.00135636 0.0100066 0)
(0.00132654 0.00923312 0)
(0.00136266 0.00682849 0)
(0.000473309 0.0023018 0)
(0.000331362 0.00138018 0)
(0.000628658 0.00269227 0)
(-2.31968e-06 0.00876873 0)
(-4.54269e-05 0.0081813 0)
(2.29001e-05 0.00831414 0)
(-2.15098e-05 0.00646487 0)
(0.000302318 0.0100278 0)
(0.000284255 0.010537 0)
(-2.46576e-07 0.00253253 0)
(-1.25398e-05 0.00218137 0)
(-1.98022e-06 0.00192381 0)
(1.59651e-06 0.00106667 0)
(-2.30173e-06 0.00138777 0)
(2.8275e-06 0.000732911 0)
(6.92138e-06 0.00116803 0)
(-7.95848e-05 0.0039312 0)
(-6.13111e-05 0.00326039 0)
(-0.000108432 0.00462398 0)
(-7.85289e-05 0.00529294 0)
(8.85421e-06 0.000609698 0)
(7.21702e-06 0.000586184 0)
(2.78928e-06 0.000120233 0)
(1.63261e-06 6.91297e-05 0)
(1.81738e-06 8.11164e-05 0)
(1.11397e-06 4.45582e-05 0)
(1.33767e-06 5.496e-05 0)
(2.65861e-06 0.000128208 0)
(3.63316e-06 0.000167359 0)
(0.000675703 0.0124856 0)
(0.000744595 0.0121991 0)
(0.000778863 0.012683 0)
(0.00104493 0.0108587 0)
(0.000924981 0.0106338 0)
(0.00155382 0.0136221 0)
(0.00153406 0.0131061 0)
(0.00164831 0.0134315 0)
(0.00137717 0.00853787 0)
(0.001464 0.00922255 0)
(0.0014387 0.00620079 0)
(0.00150658 0.00724671 0)
(0.000226572 0.00111836 0)
(0.00109182 0.00352003 0)
(0.000893609 0.0036499 0)
(-0.000155042 0.0101768 0)
(-0.000279577 0.0099631 0)
(-0.000230308 0.00943617 0)
(-7.51921e-05 0.00759822 0)
(0.000325457 0.0126723 0)
(0.000358891 0.0122277 0)
(0.000436421 0.0126864 0)
(-9.2988e-06 0.00161714 0)
(-1.94002e-05 0.00177191 0)
(-1.18702e-05 0.00119306 0)
(-3.28998e-05 0.00191878 0)
(-2.73984e-05 0.00238151 0)
(6.29637e-06 0.000644828 0)
(5.1161e-06 0.000732439 0)
(-4.69646e-05 0.00257873 0)
(-0.000160502 0.0045291 0)
(-0.00020788 0.00424151 0)
(-0.000154163 0.00380787 0)
(2.76197e-06 0.000352147 0)
(3.35317e-06 0.000311634 0)
(5.96616e-06 0.000346565 0)
(3.92835e-07 1.56995e-05 0)
(7.88687e-07 3.2053e-05 0)
(6.63643e-07 2.67122e-05 0)
(0.00114269 0.0142033 0)
(0.0010618 0.0137357 0)
(0.00115908 0.0136472 0)
(0.00131177 0.0104992 0)
(0.00144056 0.0105921 0)
(0.0017943 0.00833791 0)
(0.00171317 0.00906514 0)
(0.00161186 0.00809029 0)
(0.00167315 0.00723954 0)
(0.000648799 0.00227051 0)
(0.000744436 0.00366666 0)
(-0.000401637 0.00839858 0)
(-0.000287206 0.00870171 0)
(-0.000368521 0.00926502 0)
(-0.000321157 0.00790013 0)
(-0.000424553 0.00756282 0)
(-0.000335723 0.00694898 0)
(-0.000301385 0.00609164 0)
(-0.000237658 0.0066097 0)
(0.000611739 0.0128001 0)
(0.000536407 0.0131334 0)
(0.000522961 0.0126303 0)
(-6.46298e-06 0.00115522 0)
(-3.10128e-05 0.00138471 0)
(-1.99694e-05 0.00126875 0)
(-2.47747e-06 0.000869086 0)
(1.99699e-07 0.000562768 0)
(2.33268e-06 0.000435625 0)
(-5.09698e-05 0.00207759 0)
(-7.51598e-05 0.00223544 0)
(-4.44842e-05 0.00147595 0)
(-0.00023148 0.00575553 0)
(-0.000112531 0.003112 0)
(-0.000165293 0.00319989 0)
(-0.000104863 0.00231685 0)
(0.00116327 0.0125587 0)
(0.00127267 0.0123823 0)
(0.001267 0.0129402 0)
(0.00198747 0.00874688 0)
(0.00189226 0.00766852 0)
(0.00154023 0.00289262 0)
(0.00141198 0.00379628 0)
(0.00115657 0.00271721 0)
(0.00222584 0.00676644 0)
(0.00228286 0.00568967 0)
(0.00241749 0.0067587 0)
(0.00029677 0.00101345 0)
(0.000786397 0.00210435 0)
(-0.000248021 0.0111145 0)
(-0.000291224 0.0105136 0)
(-0.000189776 0.0107313 0)
(-0.000188839 0.011619 0)
(-0.000121528 0.0113282 0)
(-5.37239e-06 0.000693525 0)
(-8.69718e-06 0.000637872 0)
(-1.40135e-05 0.000689944 0)
(-1.40332e-06 0.000345841 0)
(1.06034e-06 0.000349972 0)
(-0.00048926 0.00439628 0)
(-0.000346586 0.00413701 0)
(-0.000428966 0.00522693 0)
(-0.00024683 0.00377117 0)
(-0.00019202 0.00284334 0)
(0.00037767 0.0167638 0)
(0.000363932 0.017141 0)
(0.000258483 0.0168459 0)
(0.0010571 0.0153774 0)
(0.00104398 0.015823 0)
(0.000947571 0.0154994 0)
(0.00275079 0.0124004 0)
(0.00290919 0.0119173 0)
(0.00289748 0.0127252 0)
(0.00200077 0.00678096 0)
(0.00193531 0.00564231 0)
(0.0021018 0.00599172 0)
(0.00193511 0.00370087 0)
(0.00173844 0.00458376 0)
(0.00221464 0.00434466 0)
(0.00203847 0.00499887 0)
(0.000443824 0.00128948 0)
(0.000877147 0.00176617 0)
(0.00116292 0.00193939 0)
(-0.000613282 0.0098309 0)
(-0.000768345 0.00949105 0)
(-0.000693201 0.00900693 0)
(-0.000229327 0.0103506 0)
(0.000153447 0.0180974 0)
(1.6989e-05 0.0177448 0)
(0.000141338 0.0176775 0)
(-3.34746e-05 0.000749752 0)
(-6.04096e-05 0.0015195 0)
(-7.59832e-05 0.00147501 0)
(-2.26554e-05 0.00085132 0)
(-0.000211983 0.00502295 0)
(-0.000298307 0.00504448 0)
(-0.000496935 0.00620412 0)
(-0.000385139 0.00604996 0)
(-0.000130566 0.0021897 0)
(0.00186623 0.0170311 0)
(0.00197386 0.0173949 0)
(0.0018091 0.0175686 0)
(0.00214875 0.016057 0)
(0.00231854 0.0156514 0)
(0.00226785 0.0162546 0)
(0.00337738 0.0052784 0)
(0.00325712 0.00620632 0)
(0.00319749 0.00514378 0)
(0.00213887 0.00320221 0)
(0.0018879 0.0020863 0)
(0.000463331 0.000982442 0)
(0.000357853 0.000480327 0)
(0.0013573 0.00119957 0)
(-0.00102916 0.0112244 0)
(-0.00116989 0.0108926 0)
(-0.0011391 0.0103996 0)
(-0.00117949 0.00705976 0)
(-0.0010169 0.00739217 0)
(-0.00111918 0.00794852 0)
(-0.000422688 0.0140457 0)
(-0.000538032 0.0140205 0)
(-0.000536751 0.0136623 0)
(0.000977284 0.0182362 0)
(0.000803283 0.018316 0)
(0.000846411 0.0179186 0)
(-0.000278522 0.014309 0)
(-0.000332593 0.0137382 0)
(-0.000181454 0.0140703 0)
(-2.58256e-05 0.000756249 0)
(-0.000280415 0.00205574 0)
(-0.000345552 0.00318811 0)
(-0.000455368 0.0032175 0)
(-0.000763597 0.004306 0)
(-0.000769322 0.00323448 0)
(-0.000584689 0.00317234 0)
(-7.8923e-05 0.00121126 0)
(-0.000151587 0.00192178 0)
(0.000794124 0.0198136 0)
(0.000809805 0.0194962 0)
(0.000918691 0.0197609 0)
(0.00331496 0.0179452 0)
(0.00329422 0.0174833 0)
(0.00343296 0.0174929 0)
(0.00368494 0.00967314 0)
(0.00357026 0.010761 0)
(0.00352162 0.00973974 0)
(0.00396492 0.0137905 0)
(0.00405265 0.0129869 0)
(0.00415424 0.0132661 0)
(0.00189949 -0.00186881 0)
(0.00177146 8.47183e-05 0)
(0.00152211 -0.00130151 0)
(0.00217993 0.00107611 0)
(0.00248133 0.00203042 0)
(0.00222432 0.00237938 0)
(0.000813781 0.00102624 0)
(0.000484711 0.000207276 0)
(0.000958573 0.000388124 0)
(-0.00186899 0.00623766 0)
(-0.0018439 0.00699621 0)
(-0.00197862 0.00656697 0)
(-0.00105687 0.0064156 0)
(-0.000365769 0.0191001 0)
(-0.000257139 0.0194519 0)
(-0.000421918 0.0193473 0)
(-0.00186668 0.014539 0)
(-0.00168445 0.0152785 0)
(-0.00183915 0.0151509 0)
(-3.90126e-05 0.000700734 0)
(-0.000217356 0.00211538 0)
(-0.000600119 0.00408479 0)
(-0.000101607 0.00105113 0)
(-6.72451e-05 0.000848384 0)
(0.00199029 0.0203658 0)
(0.00201651 0.0207101 0)
(0.00188119 0.0206326 0)
(0.00318788 0.0143913 0)
(0.00332086 0.014431 0)
(0.00319109 0.014948 0)
(0.00291588 0.0215702 0)
(0.00284057 0.021391 0)
(0.00295291 0.0211967 0)
(0.0034597 0.00721258 0)
(0.00360274 0.00646132 0)
(0.00356933 0.00782614 0)
(0.00452883 0.00146485 0)
(0.00468324 0.000618969 0)
(0.00469646 0.00209823 0)
(0.00268085 0.00126095 0)
(0.00274773 5.59202e-05 0)
(0.00292668 0.00133674 0)
(0.00126667 -0.000221048 0)
(0.0027869 -0.00607765 0)
(0.00300525 -0.00479403 0)
(0.00279247 -0.00442067 0)
(0.000798606 -0.000351426 0)
(-0.00089435 0.011979 0)
(-0.000979016 0.0123041 0)
(-0.00103331 0.0117651 0)
(-0.00148209 0.00883457 0)
(-0.00157507 0.00935955 0)
(-0.00163389 0.00851467 0)
(-0.00167149 0.00320049 0)
(-0.00167269 0.00418786 0)
(-0.00187573 0.00362185 0)
(-0.00164657 0.0131914 0)
(-0.00179863 0.0123478 0)
(-0.00165206 0.0126508 0)
(-0.00100869 0.0191044 0)
(-0.000853986 0.0191395 0)
(-0.000842874 0.0195083 0)
(-0.0002183 0.00118458 0)
(-0.000129947 0.000918103 0)
(-0.000406563 0.00232473 0)
(-0.000483223 0.00194372 0)
(-0.000975004 0.00327576 0)
(-0.00120834 0.00373697 0)
(-0.00109435 0.00257999 0)
(-0.00014817 0.00125379 0)
(0.000451661 0.0218368 0)
(0.000516029 0.0216279 0)
(0.000592685 0.0219324 0)
(0.00276872 0.0219674 0)
(0.00268602 0.0223329 0)
(0.00260486 0.0221836 0)
(0.00483623 0.0181689 0)
(0.00494996 0.017889 0)
(0.00484715 0.018399 0)
(0.00290995 0.020782 0)
(0.00304957 0.0205747 0)
(0.00296778 0.0209162 0)
(0.00545047 0.01182 0)