/*--------------------------------*- C++ -*----------------------------------*\
| =========                 |                                                 |
| \\      /  F ield         | OpenFOAM: The Open Source CFD Toolbox           |
|  \\    /   O peration     | Version:  v2012                                 |
|   \\  /    A nd           | Website:  www.openfoam.com                      |
|    \\/     M anipulation  |                                                 |
\*---------------------------------------------------------------------------*/
FoamFile
{
    version     2.0;
    format      ascii;
    class       volVectorField;
    location    "2.1";
    object      U;
}
// * * * * * * * * * * * * * * * * * * * * * * * * * * * * * * * * * * * * * //

dimensions      [0 1 -1 0 0 0 0];


internalField   nonuniform List<vector> 
13611
(
(8.18126 -0.0160512 3.26898e-23)
(8.10416 -0.0496131 5.88687e-24)
(8.1695 -0.00855929 -3.63649e-24)
(8.00241 -0.0292015 -3.26841e-24)
(8.11563 -0.0247616 -5.4719e-23)
(8.16862 -0.0106299 8.44274e-24)
(8.04714 -0.00890452 -3.6913e-24)
(7.99216 -0.0242127 1.90924e-23)
(8.13104 -0.140631 -1.55486e-23)
(8.07139 -0.0112885 -1.17081e-23)
(8.18808 -0.0119756 3.90045e-25)
(7.99539 -0.013817 0)
(8.00348 -0.0215789 -1.5814e-23)
(7.97913 0.000200881 1.76782e-23)
(8.16791 -0.071488 1.53621e-24)
(8.06094 -0.0402599 -3.57471e-24)
(8.04229 -0.0123948 0)
(8.18956 0.000228635 0)
(7.96446 -0.0015804 -1.84755e-24)
(7.97841 -0.0104096 -1.56485e-23)
(8.006 0.0010924 0)
(7.9774 -0.00158132 0)
(8.16602 -0.0833092 0)
(8.081 -0.00695203 3.48677e-23)
(8.00085 -0.0299573 -1.06118e-24)
(7.99889 -0.00373992 0)
(8.19739 -0.00224728 0)
(7.96497 -0.00219474 7.74952e-24)
(8.00772 -0.007394 9.62031e-24)
(8.01428 0.00412976 1.50365e-23)
(8.02358 0.00190734 0)
(7.99372 0.000369759 5.66891e-24)
(8.18161 -0.0504335 0)
(8.03972 -0.0136216 1.70772e-23)
(8.00452 -0.0338286 0)
(7.96099 -0.00655084 8.25481e-24)
(8.05535 -0.00288679 0)
(8.18634 -0.0152059 0)
(7.98279 0.00179983 0)
(8.03272 -0.00565813 4.24894e-24)
(8.03129 0.00465168 7.40879e-24)
(8.02814 0.00480278 -1.76945e-25)
(8.01887 0.00323245 3.73592e-24)
(8.01445 0.00166566 5.58747e-24)
(8.09319 -0.0160572 0)
(8.16285 -0.0321551 0)
(8.03464 -0.0175382 0)
(8.02784 -0.0132952 -1.1248e-23)
(7.95329 7.79153e-05 0)
(8.00577 -0.015105 -2.29924e-24)
(8.19057 -0.016495 1.39565e-23)
(7.99179 0.00126852 0)
(8.03938 0.00246976 -9.67568e-24)
(8.03467 0.00632324 6.6795e-24)
(8.03755 0.00836447 0)
(8.02634 0.00889176 -2.78951e-24)
(8.02236 0.00633033 1.77071e-24)
(8.01958 0.00426785 -5.60214e-24)
(8.0844 -0.016862 1.44247e-23)
(8.17117 -0.0311352 0)
(8.02245 -0.0102167 0)
(8.04563 -0.00279678 -2.77174e-23)
(7.95342 -0.00235939 0)
(7.98059 -0.000239785 0)
(8.04061 -0.0152762 -3.35727e-24)
(8.17389 -0.0193357 1.30777e-23)
(8.0145 0.00252451 -5.5325e-26)
(8.05125 0.0091854 -1.33453e-23)
(8.03548 0.0114774 2.00096e-23)
(8.04319 0.0134541 0)
(8.0282 0.0111534 -5.41796e-24)
(8.02105 0.00619584 -9.80883e-24)
(8.04 -0.0164751 0)
(8.11893 -0.0309006 -6.77647e-25)
(8.12613 -0.0372078 0)
(8.04668 -0.00467216 -1.5964e-23)
(8.05572 0.00762633 0)
(7.94632 -0.0036706 7.63105e-24)
(7.99282 -0.000145229 -5.53927e-24)
(7.95309 -0.00506093 0)
(8.18274 -0.00669758 -6.88503e-24)
(8.01979 0.0011018 -8.54323e-24)
(8.05342 0.0160875 -1.96143e-23)
(8.03952 0.0148352 1.34766e-23)
(8.03108 0.0139022 0)
(8.04655 0.0165576 8.82238e-24)
(8.02412 0.0134203 -4.8414e-24)
(8.01851 0.00644569 -2.67394e-24)
(8.03875 -0.0178044 0)
(8.10929 -0.0209119 -2.07479e-23)
(8.15682 0.00341732 1.31542e-24)
(8.06567 0.00288474 0)
(8.06712 0.0162649 1.84045e-23)
(7.96615 -0.00468764 6.73479e-24)
(8.01357 0.000325365 -9.07534e-24)
(7.98716 -0.000627143 -5.67967e-24)
(7.96128 -0.000728013 0)
(7.98485 -0.00453338 0)
(8.19846 -0.00120628 0)
(8.01642 0.00371074 -5.77268e-25)
(8.05383 0.0204556 -1.92432e-23)
(8.03327 0.0167818 0)
(8.02578 0.016072 0)
(8.04046 0.0213 8.98124e-24)
(8.02201 0.0156909 0)
(8.02139 0.0124701 -3.1988e-23)
(8.01861 0.00834183 -2.12976e-23)
(8.06266 -0.00289582 -1.36275e-23)
(8.05564 -0.011211 3.27299e-24)
(8.14582 -0.0146865 7.72318e-24)
(8.11996 -0.102021 1.35273e-23)
(8.0735 0.0139142 1.92273e-23)
(8.07518 0.0263235 0)
(7.97276 -0.00482711 -1.36484e-23)
(8.01895 0.00186905 -5.72444e-24)
(8.01115 0.00140744 -1.05386e-23)
(7.96299 -0.00230917 -1.12805e-23)
(7.96305 -0.00234102 0)
(8.20283 0.0122894 -9.00595e-25)
(8.01404 0.00435591 -2.02149e-24)
(8.0576 0.0273818 0)
(8.04305 0.0257295 2.22466e-23)
(8.035 0.0219819 0)
(8.02773 0.0192022 0)
(8.02606 0.0185626 0)
(8.02273 0.0161622 -2.37459e-24)
(8.0206 0.0160536 -8.69948e-24)
(8.01633 0.00849716 3.24481e-24)
(8.08965 0.0052392 3.86453e-23)
(8.03579 -0.0109564 2.63363e-23)
(8.08659 -0.00686608 1.93139e-23)
(8.119 -0.155193 4.20638e-25)
(8.08238 0.0180561 0)
(8.07095 0.0296075 0)
(8.00239 -0.000331685 3.46833e-24)
(8.01418 0.00278232 -2.83924e-24)
(7.96644 0.00190686 0)
(8.01204 -0.00178766 -5.69471e-26)
(7.94139 0.000930922 0)
(8.21293 0.0255304 -7.04312e-24)
(8.01282 0.00665768 -4.54871e-24)
(8.05132 0.0338509 -3.45776e-24)
(8.04545 0.0344975 2.18489e-23)
(8.03477 0.026794 0)
(8.03012 0.0249639 0)
(8.02407 0.0200571 6.95809e-24)
(8.02134 0.0190595 -3.21972e-24)
(8.02002 0.0148456 -3.10575e-24)
(8.01602 0.0108902 0)
(8.09193 0.00827401 1.30714e-23)
(8.07021 -0.00454783 4.43223e-23)
(8.10641 -0.0429679 0)
(8.15966 0.0320022 2.7724e-22)
(8.08518 0.0235588 -1.8414e-24)
(8.07963 0.0303108 -2.736e-23)
(8.05139 0.036526 -2.28348e-23)
(8.0097 0.000954952 1.91433e-24)
(8.01112 0.00351637 -3.44363e-24)
(8.00114 0.000445845 -5.39442e-24)
(7.97256 0.00986766 0)
(7.94997 0.00248149 0)
(8.20178 0.00624563 -3.1799e-24)
(8.0113 0.00814223 -4.70483e-24)
(8.04964 0.0355089 -6.43401e-24)
(8.04265 0.0360743 2.38122e-23)
(8.03635 0.0314242 -1.85567e-24)
(8.02683 0.0265174 4.25433e-25)
(8.02263 0.0221881 1.43978e-23)
(8.01845 0.0196304 2.73228e-24)
(8.01727 0.0132999 7.83268e-25)
(8.01762 0.0165498 0)
(8.01331 0.0109019 -1.26868e-24)
(8.1011 0.0231291 0)
(8.08482 0.0265625 -2.99681e-23)
(8.14134 -0.0281295 -2.18367e-23)
(8.15798 0.0907465 2.58612e-23)
(8.31564 -0.326581 4.15894e-23)
(8.09479 0.0319626 -1.67981e-24)
(8.07387 0.0412935 -2.68893e-23)
(8.05666 0.0407961 -2.61863e-23)
(8.00449 0.000292592 -6.31117e-24)
(8.00899 0.00213871 0)
(8.01007 0.0065412 -1.20319e-24)
(7.99015 0.00222518 0)
(8.01504 0.0207001 1.24485e-24)
(7.94311 0.00282674 0)
(8.19933 -0.014256 -3.68954e-23)
(8.01202 0.00879723 -9.23923e-24)
(8.05625 0.0407831 0)
(8.03849 0.0420262 2.8187e-23)
(8.02858 0.0361174 6.777e-24)
(8.02203 0.0293226 1.53396e-23)
(8.01812 0.0250292 -5.74883e-24)
(8.01701 0.0212246 -2.53261e-24)
(8.01379 0.0159431 8.07902e-25)
(8.01392 0.0173704 0)
(8.01123 0.012682 -1.29183e-24)
(8.11371 0.017094 -2.89016e-23)
(8.08875 0.0360515 2.91183e-24)
(8.17265 -0.0266203 -8.02055e-23)
(8.09588 -0.0238367 -2.92782e-23)
(8.39471 0.010363 2.18666e-22)
(8.09285 0.0435046 0)
(8.08223 0.04579 0)
(8.06088 0.0485647 0)
(8.00276 0.00308994 -1.89282e-24)
(8.00643 0.00496527 -7.10378e-24)
(8.00869 0.0060668 -7.23788e-24)
(7.99994 0.000518025 6.47859e-24)
(7.95466 0.0241978 7.99215e-24)
(7.95354 0.0129134 -2.32564e-25)
(8.17356 -0.0276742 -7.17617e-23)
(8.0102 0.00922556 -1.79099e-23)
(8.05397 0.0467681 6.50164e-24)
(8.03045 0.0432299 0)
(8.04149 0.0484239 -1.6968e-23)
(8.02325 0.0349278 1.88835e-23)
(8.01651 0.0293413 -3.06191e-24)
(8.01623 0.0259326 5.76312e-24)
(8.01696 0.0228097 -5.71317e-24)
(8.01423 0.019204 0)
(8.01188 0.0150001 3.66413e-24)
(8.00958 0.0120968 0)
(8.11635 0.0258415 -3.18777e-23)
(8.07741 0.0224334 -2.50596e-23)
(8.10229 0.00566654 -5.64328e-23)
(7.99684 0.188688 6.0329e-23)
(8.12893 -0.0385003 0)
(8.7594 0.079272 1.59161e-22)
(8.10343 0.0446088 0)
(8.08402 0.0582143 0)
(8.06633 0.0553669 0)
(8.00621 0.00433807 -6.24089e-26)
(8.0025 0.00194927 0)
(8.00949 0.00615125 -4.54442e-25)
(7.99902 0.00110422 0)
(7.99138 0.000694435 3.64969e-24)
(7.98226 0.0340438 0)
(8.15847 -0.0998013 5.57274e-24)
(8.01088 0.056178 0)
(8.00943 0.007129 -9.22744e-24)
(8.00928 0.0103151 -3.92331e-24)
(8.05977 0.053458 0)
(8.02759 0.0457996 1.2174e-23)
(8.03545 0.0559235 -2.76027e-23)
(8.02162 0.0394214 8.27857e-24)
(8.01634 0.0316549 -9.88909e-24)
(8.01417 0.025721 5.60985e-24)
(8.01409 0.0234276 0)
(8.01256 0.0202665 -1.54019e-23)
(8.01105 0.0160588 3.8502e-24)
(8.00922 0.0128395 6.01527e-24)
(8.1361 0.0364452 0)
(8.12385 0.0252934 -2.77957e-23)
(8.11374 0.0196706 3.39017e-23)
(7.90043 0.15344 9.98331e-24)
(8.14055 -0.0257378 2.16423e-25)
(8.57875 0.0544901 6.88474e-24)
(8.11034 0.0605283 0)
(8.07534 0.0671792 0)
(8.09571 0.0654107 -7.01045e-23)
(8.06696 0.064215 0)
(8.00809 0.00367331 6.30812e-24)
(8.00603 0.0022657 0)
(8.00796 0.00500911 6.44481e-24)
(7.99999 5.74569e-05 0)
(7.99471 0.00153611 0)
(7.98444 -0.0178124 0)
(8.07788 0.00944708 -4.21083e-23)
(8.01762 0.00589719 -2.07644e-24)
(8.00801 0.00792477 -7.56605e-24)
(8.00821 0.00919487 -1.16376e-23)
(8.04397 0.0585106 0)
(8.02743 0.0520689 1.23298e-23)
(8.02293 0.0451249 -2.00913e-23)
(8.03056 0.0564699 0)
(8.01722 0.0366139 -1.5908e-23)
(8.02177 0.0419438 1.33917e-23)
(8.0153 0.0301468 0)
(8.01427 0.0263795 8.39405e-24)
(8.01271 0.0225968 -1.54122e-23)
(8.01139 0.0191366 -1.35185e-23)
(8.00978 0.0144375 1.19546e-23)
(8.0108 0.0173401 -1.3267e-23)
(8.00817 0.0120829 -1.94223e-23)
(8.13162 0.0548195 0)
(8.14261 0.0346807 3.52605e-23)
(8.14615 0.0259821 5.65619e-23)
(7.96667 0.0655407 5.73995e-23)
(8.15189 0.0113248 -5.1427e-23)
(8.63392 -0.0301467 -4.10387e-23)
(8.07707 0.0797831 -3.67101e-23)
(8.09917 0.0777461 -6.9177e-23)
(8.05133 0.0686274 3.38435e-23)
(8.00673 0.00306219 0)
(8.00418 0.00179853 -6.24088e-24)
(8.00661 0.00586643 5.56432e-25)
(7.99939 -0.0014675 0)
(7.98636 -0.00029745 -4.0424e-24)
(7.99557 -0.00553101 -2.90961e-24)
(8.06543 -0.0445237 8.97074e-24)
(8.00712 0.00718855 0)
(8.00748 0.00968806 0)
(8.04223 0.0644514 0)
(8.02186 0.0543295 -1.03417e-23)
(8.01993 0.0489837 -2.24142e-23)
(8.02897 0.06271 -2.07489e-24)
(8.01562 0.0410451 0)
(8.01655 0.0429689 -1.16207e-24)
(8.01328 0.0314812 3.92467e-23)
(8.01347 0.0257251 8.71162e-24)
(8.01272 0.0239628 0)
(8.01078 0.0203902 -1.52065e-23)
(8.00912 0.0152072 -6.46795e-24)
(8.00962 0.0171109 -6.52313e-24)
(8.00798 0.0130859 -3.24776e-24)
(8.00738 0.0104756 -1.63462e-23)
(8.14016 0.0652083 0)
(8.16077 0.0590052 -3.91543e-24)
(8.16083 0.0287837 0)
(7.8385 0.0490956 5.9069e-25)
(8.17742 0.00668908 3.58332e-23)
(8.41263 -0.077284 2.30937e-23)
(8.09145 0.0846101 6.73002e-26)
(8.06316 0.0888253 -4.56571e-23)
(8.1062 0.0868681 0)
(8.04753 0.079708 5.03216e-23)
(8.00553 0.00353588 0)
(8.00463 0.00138692 -1.51359e-24)
(8.00583 0.00495243 0)
(8.00104 -0.00175424 0)
(7.98866 0.000278764 3.17581e-24)
(7.99125 0.0069166 0)
(7.9959 0.00885916 6.91808e-25)
(8.07329 -0.0366861 0)
(8.00641 0.00739163 -8.61684e-24)
(8.00657 0.00858445 -7.63093e-24)
(8.0342 0.0672842 9.88574e-24)
(8.02133 0.0591459 -1.36107e-23)
(8.01741 0.0479823 0)
(8.02487 0.0662902 -1.19874e-23)
(8.01525 0.0392963 4.07749e-23)
(8.01071 0.0292733 -1.69619e-23)
(8.01308 0.0351685 3.96091e-23)
(8.01068 0.0263299 -1.70687e-23)
(8.01108 0.0229763 -1.08761e-23)
(8.01003 0.0193931 -1.37739e-23)
(8.00844 0.0145418 0)
(8.00993 0.0176265 -1.36589e-23)
(8.00739 0.0123 -1.32215e-24)
(8.00652 0.0103769 -4.64774e-24)
(8.15954 0.0688703 -1.73075e-23)
(8.1211 0.0845113 0)
(8.17236 0.0735006 -3.6783e-24)
(8.17974 0.0457741 0)
(7.97269 0.0752938 4.93806e-23)
(8.19492 0.0220392 0)
(8.507 -0.133895 -4.46799e-23)
(8.08803 0.0935252 -7.07029e-24)
(8.06793 0.0951344 -5.67964e-23)
(8.05358 0.0876117 1.72817e-23)
(8.09954 0.0946416 0)
(8.03432 0.0809578 0)
(8.00482 0.00276681 1.1081e-24)
(8.00428 0.00220085 4.89032e-24)
(8.00222 0.000884393 4.93629e-24)
(8.00539 0.00509111 0)
(7.99825 -0.00114201 0)
(7.98874 0.000196291 4.31517e-24)
(7.98931 -0.00177054 1.89918e-25)
(7.99816 0.00823933 -4.33231e-24)
(8.05449 0.00827692 0)
(8.00548 0.00631675 -1.02221e-24)
(8.00597 0.00901554 0)
(8.03193 0.0711725 0)
(8.01835 0.0584222 -2.60633e-24)
(8.02275 0.0644992 -1.13273e-23)
(8.01799 0.0496264 6.82198e-24)
(8.02573 0.072363 3.19071e-23)
(8.0147 0.0442098 4.61793e-23)
(8.00885 0.0302248 1.7662e-23)
(8.00839 0.0356757 3.04974e-23)
(8.00913 0.02585 0)
(8.01 0.0238033 4.42533e-24)
(8.00902 0.0195026 8.05959e-25)
(8.0085 0.0159413 -5.00859e-24)
(8.00942 0.0168614 0)
(8.00638 0.0133716 -1.34007e-23)
(8.00673 0.011107 -1.03061e-23)
(8.15526 0.0813462 -1.36053e-24)
(8.12979 0.0898389 1.55727e-23)
(8.19282 0.0598592 -5.37966e-23)
(8.16903 0.0820762 0)
(7.91583 0.0430107 1.99795e-23)
(8.23467 0.0216181 3.80737e-23)
(8.56579 -0.0752974 7.4141e-24)
(8.16274 -0.089093 -2.4799e-23)
(8.06408 0.106379 -5.05598e-23)
(8.04697 0.0999569 1.06399e-24)
(8.09748 0.107891 0)
(8.03092 0.0918119 1.27993e-23)
(8.00426 0.00358912 2.0958e-24)
(8.00336 0.00238594 2.58411e-24)
(8.00195 0.00164597 -4.51575e-24)
(8.00437 0.00431087 0)
(8.00021 -9.35818e-05 0)
(7.99539 -0.000957517 0)
(7.99212 -0.0024171 -1.66375e-24)
(7.98438 -0.00464299 0)
(8.03167 0.0146183 0)
(8.0444 -0.0297133 -1.24746e-24)
(8.00459 0.00683258 0)
(8.00532 0.0082437 0)
(8.01629 0.0647314 1.94091e-23)
(8.01742 0.0538106 1.20926e-24)
(8.01894 0.0664159 8.35837e-24)
(8.0162 0.0472542 3.14497e-23)
(8.02386 0.0765975 2.78958e-23)
(8.01189 0.0443296 -1.84262e-23)
(8.0056 0.0278293 3.97214e-24)
(8.00632 0.0327338 1.26827e-23)
(8.00747 0.0401931 1.89878e-23)
(8.00621 0.0256614 0)
(8.00811 0.0223452 -1.76603e-24)
(8.00725 0.020656 -1.7492e-24)
(8.00759 0.017854 -1.54816e-24)
(8.00701 0.0152973 -1.69702e-23)
(8.00524 0.0131419 0)
(8.00595 0.0106906 -1.69809e-23)
(8.12895 0.104435 -1.70028e-23)
(8.21017 0.075705 -5.61548e-23)
(8.16948 0.0982727 1.11795e-23)
(8.09109 0.026192 7.21228e-23)
(8.25629 0.0368579 3.79731e-23)
(8.2379 -0.379411 1.48448e-23)
(8.24551 -0.0947173 8.65057e-23)
(8.07494 0.115301 -1.04517e-23)
(8.05341 0.109179 1.68826e-23)
(8.0346 0.102377 -3.12738e-24)
(8.11302 0.113288 -1.69879e-23)
(8.02686 0.0883588 -3.73689e-24)
(8.00339 0.00336175 -1.42621e-24)
(8.00296 0.00180553 -6.01818e-24)
(8.00128 0.000183375 -4.70099e-24)
(8.00327 0.00495266 0)
(7.99554 -0.000599545 -5.26843e-24)
(7.98893 -0.003753 1.13797e-24)
(7.9925 0.00138215 -1.60298e-24)
(8.01488 -0.0103612 -8.93611e-25)
(8.05194 -0.0150846 3.89154e-24)
(8.00393 0.00606221 0)
(8.00528 0.00839985 2.3801e-24)
(8.01478 0.0660967 -5.82341e-23)
(8.01242 0.0541707 5.7598e-23)
(8.01917 0.0755476 2.91859e-23)
(8.01079 0.0504968 1.9533e-23)
(8.00534 0.0448821 -1.51153e-24)
(8.00164 0.0288453 -1.55313e-23)
(8.00137 0.0324608 1.7098e-23)
(8.00097 0.0414662 2.12561e-23)
(8.00515 0.0243692 0)
(8.00351 0.0206357 -9.50066e-24)
(8.00509 0.0179883 -1.23139e-23)
(8.00489 0.0163528 -9.74402e-26)
(8.00525 0.0114914 -6.07527e-24)
(8.00322 0.0133182 4.70076e-23)
(8.00548 0.00937032 5.44083e-24)
(8.14788 0.109004 5.30629e-24)
(8.23504 0.0702204 8.23246e-23)
(8.19057 0.0983863 -3.83701e-24)
(8.07951 0.0306167 0)
(8.30811 0.0417321 4.36597e-23)
(8.30904 -0.196711 1.03652e-22)
(8.18986 -0.0526388 0)
(8.07403 0.13063 -9.61198e-24)
(8.05345 0.124666 0)
(8.0343 0.113857 0)
(8.10958 0.133534 0)
(8.02408 0.0966593 -1.59017e-23)
(8.00286 0.00349013 -6.52143e-24)
(8.00259 0.00141856 -5.93921e-24)
(8.00113 -0.000603931 -3.11559e-24)
(8.00285 0.00438159 -1.03818e-23)
(7.99735 -0.00184418 -6.10098e-24)
(7.99132 -0.000245711 1.05891e-24)
(7.98494 -0.000392169 0)
(8.01165 -0.0122586 2.10113e-24)
(8.0483 -0.0108394 -3.40779e-24)
(8.00408 0.00640944 0)
(8.00454 0.00726272 2.36672e-24)
(8.01723 0.0754716 -1.11058e-23)
(8.0114 0.0612579 2.3931e-23)
(8.01866 0.0808554 3.13111e-23)
(8.00471 0.0497482 1.52292e-23)
(7.99828 0.0441979 2.30482e-23)
(7.99939 0.0276159 -1.55219e-23)
(7.99842 0.0338071 2.74129e-24)
(7.99799 0.0373382 -1.01145e-23)
(8.00213 0.024059 -8.00986e-24)
(8.00155 0.0218049 -4.41458e-24)
(8.003 0.0189139 -1.10793e-23)
(8.00274 0.0157899 9.77167e-24)
(8.00359 0.0110353 -8.49592e-24)
(8.00213 0.0120816 -3.59169e-24)
(8.00213 0.0143968 4.20627e-23)
(8.00473 0.00911483 1.59305e-23)
(8.14816 0.130846 0)
(8.24935 0.101329 5.26046e-24)
(8.19394 0.119928 1.0988e-23)
(8.21298 0.0585072 5.22934e-23)
(8.28955 0.0779552 -2.66595e-23)
(8.3697 -0.317379 0)
(8.27897 -0.116689 0)
(8.08475 0.142737 -9.5204e-24)
(8.06561 0.136323 0)
(8.04263 0.130131 0)
(8.0389 0.122862 0)
(8.02591 0.110522 -1.57579e-23)
(8.12654 0.141712 0)
(8.02047 0.0930765 0)
(8.00245 0.00277233 3.92911e-24)
(8.00203 0.000603639 3.54135e-25)
(8.002 0.00171808 0)
(7.99942 -0.00101824 1.2539e-24)
(8.00253 0.00447447 0)
(7.99674 -0.00144986 -2.26185e-25)
(7.99674 -0.0011083 -5.81647e-26)
(7.98826 0.00153058 0)
(7.98476 0.00271961 -5.09812e-26)
(8.04804 -0.00570981 -6.39876e-25)
(8.00323 0.00568119 0)
(8.00421 0.00798241 1.9764e-23)
(8.00808 0.0779826 2.21233e-23)
(8.00155 0.0616385 -5.84954e-23)
(7.99932 0.0509102 1.66064e-23)
(7.9938 0.0448335 0)
(7.99471 0.0284907 3.27731e-25)
(7.99962 0.0249829 -1.16994e-23)
(7.99425 0.0315198 -1.72808e-23)
(7.99173 0.0385745 -1.84501e-23)
(7.99891 0.0213533 1.37971e-23)
(8.0006 0.0183693 -2.60565e-24)
(8.00043 0.0166841 9.93653e-24)
(8.00319 0.00981914 0)
(8.00025 0.0123738 2.07659e-23)
(7.99971 0.0145151 0)
(8.17048 0.1354 1.11125e-23)
(8.22395 0.117712 0)
(8.22638 0.0699919 -4.03481e-23)
(8.3292 0.101706 -4.43767e-23)
(8.40708 0.20811 2.23482e-22)
(8.34339 -0.00726452 0)
(8.08562 0.160863 0)
(8.06408 0.148438 0)
(8.0403 0.144129 0)
(8.03428 0.129964 0)
(8.02219 0.120796 0)
(8.13004 0.169149 1.35403e-23)
(8.01338 0.0980491 5.82857e-24)
(8.00216 0.00298559 2.14716e-24)
(8.00213 0.00206437 0)
(8.00171 0.000549092 3.49242e-24)
(8.00142 0.000819232 -3.37974e-25)
(7.99987 -0.000321054 4.17698e-24)
(8.00201 0.0037988 0)
(7.99719 -0.00118837 -6.14228e-25)
(7.99558 -0.0012043 0)
(7.99363 -0.00131285 -2.56983e-25)
(7.98913 0.0016125 1.61112e-24)
(8.05029 -0.0087163 6.88753e-24)
(7.99204 0.00552545 2.95875e-24)
(8.0032 0.00621338 0)
(8.00354 0.00747056 9.21468e-24)
(8.00307 0.0829119 0)
(7.99818 0.0726477 -2.86815e-23)
(7.99661 0.0670709 -5.9266e-23)
(7.99694 0.0554871 0)
(7.99363 0.0479452 0)
(7.98999 0.0425229 5.6798e-24)
(7.99234 0.0266054 2.76326e-23)
(7.99563 0.0240355 1.60499e-23)
(7.98854 0.0327105 -1.03178e-23)
(7.98777 0.0355965 -1.45185e-23)
(7.99495 0.0221642 1.42803e-23)
(7.99826 0.0194547 3.88603e-24)
(7.99789 0.0161222 3.52943e-24)
(8.00131 0.00954663 1.26075e-23)
(7.99896 0.0133124 2.107e-23)
(7.99914 0.0115063 2.25256e-23)
(7.99768 0.0149563 -5.64033e-24)
(8.17585 0.160011 1.8188e-24)
(8.23157 0.14455 1.44458e-24)
(8.31316 0.0978712 -8.96424e-23)
(8.24824 0.0440803 0)
(8.30787 0.137755 0)
(8.19236 0.108491 2.07294e-22)
(8.88745 -0.694618 0)
(8.44753 -0.122517 0)
(8.09086 0.182002 0)
(8.0738 0.166106 0)
(8.04446 0.15352 2.43485e-23)
(8.03836 0.144339 0)
(8.02682 0.130957 0)
(8.01461 0.12021 0)
(8.11678 0.187352 1.31552e-23)
(8.15723 0.177347 0)
(8.01231 0.109541 4.37021e-23)
(8.00458 0.0933872 4.1268e-23)
(8.00169 0.00229073 1.42749e-24)
(8.00184 0.00179616 -7.67662e-25)
(8.00125 0.000165101 3.49574e-24)
(8.00109 0.000955732 4.10143e-24)
(7.99893 -0.000901898 -6.72273e-25)
(8.0013 0.00379155 7.91033e-24)
(7.99786 -0.000861001 0)
(7.99652 0.000221282 6.72027e-25)
(7.99294 -1.1162e-06 -1.51877e-24)
(7.99135 -0.000778353 0)
(8.03976 -0.00187064 6.36428e-24)
(7.98681 0.00716598 4.43434e-24)
(8.00246 0.00558378 -1.98913e-23)
(8.00266 0.00772993 -9.00217e-24)
(7.98282 0.08101 0)
(7.98221 0.0756651 -2.93937e-23)
(7.98641 0.0662441 0)
(7.98857 0.0554328 0)
(7.98649 0.0499235 0)
(7.98272 0.0423135 2.92712e-23)
(7.9874 0.0262213 1.08598e-24)
(7.9831 0.0306261 -1.81394e-23)
(7.98017 0.0364919 -1.35504e-23)
(7.98979 0.0212917 1.86935e-23)
(7.99537 0.0185954 3.90654e-24)
(7.99455 0.0171351 1.34005e-23)
(7.99949 0.0105083 2.44456e-23)
(8.00111 0.00835896 -3.1173e-24)
(7.99641 0.0136448 1.9527e-25)
(7.9966 0.0119843 9.03061e-24)
(7.99504 0.0146644 2.519e-24)
(8.20084 0.169907 2.05079e-24)
(8.25704 0.158156 6.08803e-25)
(8.35055 0.11015 4.82851e-23)
(8.26556 0.0976851 0)
(8.34064 0.156394 0)
(8.05886 0.40188 -7.39147e-23)
(9.04042 -0.0705845 -1.53929e-22)
(8.45058 -0.0124 0)
(8.0764 0.202076 0)
(8.06216 0.17488 0)
(8.04153 0.168559 2.37965e-23)
(8.03194 0.14864 1.24817e-23)
(8.01845 0.134072 -6.83705e-24)
(8.00912 0.130092 -1.4828e-24)
(8.11588 0.204706 -7.62152e-24)
(8.16117 0.200296 0)
(7.99604 0.114121 3.43907e-23)
(7.98906 0.096886 2.70664e-23)
(8.00128 0.00237495 -4.13727e-24)
(8.00133 0.00139313 -1.51684e-23)
(8.00112 7.65662e-05 0)
(8.00092 0.000436966 -9.9912e-24)
(8.00014 -0.000586682 0)
(8.002 0.00432386 -9.97934e-24)
(8.00087 0.0026843 9.29459e-24)
(7.99886 -0.00138767 0)
(7.99582 0.000339148 -7.81733e-24)
(7.99206 0.00189084 1.01376e-23)
(8.03759 -0.0163898 0)
(7.99413 0.0103411 -1.64512e-25)
(8.00218 0.00618416 0)
(8.00171 0.00684884 0)
(7.97711 0.0887473 -1.33411e-23)
(7.97506 0.0734223 -7.01631e-24)
(7.98407 0.0582588 0)
(7.98138 0.0657 1.46752e-24)
(7.98107 0.0478096 0)
(7.97846 0.0396396 2.89174e-23)
(7.98484 0.0230385 1.88245e-23)
(7.98296 0.0273765 1.05554e-24)
(7.97829 0.0309881 -4.78949e-24)
(7.97586 0.0343738 -1.81408e-23)
(7.98894 0.0195753 0)
(7.9906 0.016597 4.0957e-24)
(7.99691 0.010042 -2.72374e-23)
(7.99882 0.00818821 -2.64951e-23)
(7.99322 0.0142624 2.49777e-24)
(7.99449 0.0129426 5.75107e-25)
(7.99516 0.0112568 -2.75666e-25)
(7.98977 0.0152942 0)
(8.20704 0.195089 1.19531e-24)
(8.25429 0.19592 0)
(8.32426 0.119033 4.97359e-23)
(8.36505 0.146109 0)
(8.3259 0.191029 0)
(8.0448 0.208438 1.7714e-23)
(9.23195 -0.314446 0)
(8.44478 -0.0708386 -9.69832e-24)
(8.06935 0.203888 0)
(8.08606 0.212172 -4.22651e-25)
(8.06244 0.19284 0)
(8.03648 0.178757 1.28878e-24)
(8.02912 0.161526 1.21516e-23)
(8.01869 0.143376 2.20353e-23)
(8.0002 0.132328 -9.19355e-25)
(8.13474 0.213426 -5.69563e-24)
(8.18643 0.210301 0)
(7.99358 0.12496 -1.244e-23)
(7.98605 0.107204 4.78959e-23)
(8.00098 0.00187498 -4.90265e-24)
(8.00111 0.00158851 -1.61105e-23)
(8.00051 0.000139032 -1.39672e-23)
(7.99973 -0.000844814 0)
(8.00178 0.00384565 3.1358e-23)
(8.00041 0.00266315 4.88104e-24)
(7.99874 -0.00112678 1.06917e-24)
(7.99756 0.000497052 -5.749e-24)
(7.99483 0.00357792 7.65641e-24)
(8.0266 -0.0085737 0)
(7.98621 0.00802267 1.22135e-24)
(8.00086 0.00534162 -1.71468e-24)
(7.99908 0.00728574 -1.69071e-23)
(7.96573 0.0873609 7.04392e-24)
(7.97032 0.0706257 -7.23704e-23)
(7.97357 0.0566686 -1.37416e-23)
(7.97067 0.0622177 1.4649e-24)
(7.97559 0.0483193 0)
(7.97525 0.0403453 0)
(7.97797 0.0225464 0)
(7.97766 0.0279522 6.17855e-24)
(7.97741 0.029204 -3.94001e-24)
(7.97923 0.034911 -9.44742e-24)
(7.98201 0.0187446 0)
(7.98308 0.0163987 0)
(7.99669 0.00903818 3.90226e-25)
(7.98546 0.0142399 0)
(7.98998 0.0127067 5.7864e-25)
(7.99272 0.0113559 0)
(7.98342 0.0153762 5.76907e-24)
(8.23051 0.211949 -5.95303e-23)
(8.27633 0.210558 -5.65064e-23)
(8.3332 0.110684 3.12233e-23)
(8.40336 0.15708 4.74626e-23)
(8.35399 0.203629 -4.93081e-23)
(7.78291 0.0943701 4.48755e-24)
(9.40101 0.0742074 0)
(8.59386 -0.0149754 7.00955e-23)
(8.06956 0.226492 0)
(8.08608 0.230698 0)
(8.04379 0.197268 -6.97635e-24)
(8.03215 0.176221 8.61688e-24)
(8.00947 0.162723 -6.34529e-25)
(8.00742 0.148524 2.10079e-23)
(7.99946 0.144866 -6.58477e-24)
(8.12699 0.234267 2.79635e-24)
(8.18086 0.232259 1.45223e-23)
(7.97983 0.128329 1.26926e-25)
(7.96773 0.106031 4.07135e-23)
(8.00063 0.00216347 0)
(8.00047 0.00141279 -1.79521e-24)
(7.99997 0.000574724 8.16148e-25)
(8.00025 -0.000354412 7.23836e-24)
(8.00009 -0.000418018 0)
(8.00125 0.00306029 2.0073e-23)
(8.00072 0.00438105 -1.32386e-23)
(8.00024 0.00191733 4.38024e-24)
(7.99896 -0.000583717 0)
(7.99841 -0.000580842 3.33329e-24)
(7.99796 0.002082 4.38535e-25)
(7.99599 0.00361419 8.64877e-25)
(8.02121 -0.026933 1.12681e-24)
(7.99073 0.0145672 2.782e-24)
(7.99351 0.00996078 8.60501e-25)
(7.99813 0.00614725 3.83138e-23)
(7.99756 0.00704306 2.46105e-23)
(7.96098 0.0798898 7.2396e-23)
(7.95743 0.0977977 -6.01514e-23)
(7.96444 0.0722858 -2.14622e-23)
(7.97207 0.0522025 -4.70365e-23)
(7.96779 0.0615375 3.80859e-23)
(7.9729 0.0444961 0)
(7.97701 0.0373906 1.30079e-23)
(7.97527 0.0416136 0)
(7.97845 0.0198666 1.49772e-23)
(7.97857 0.0254069 0)
(7.9798 0.0270881 -4.83689e-24)
(7.98725 0.0296718 2.57775e-23)
(7.98644 0.0321451 -1.46742e-23)
(7.97607 0.0158244 2.52094e-24)
(7.99453 0.00860499 -2.22536e-24)
(7.9838 0.0137591 0)
(7.98796 0.0119085 -9.62749e-25)
(7.98926 0.0103669 0)
(7.97712 0.0150869 7.8827e-24)
(8.23307 0.231847 -3.55109e-23)
(8.28162 0.241833 -4.07223e-23)
(8.3762 0.0733213 2.6433e-23)
(8.40129 0.129504 7.23398e-23)
(8.40291 0.180862 -4.81583e-23)
(8.34668 0.229758 0)
(8.09673 0.0187125 0)
(8.43349 0.0137645 6.75091e-23)
(9.57648 -0.47182 4.31039e-22)
(8.05634 0.237798 -2.006e-23)
(8.08065 0.237512 0)
(8.09923 0.241826 1.86079e-24)
(8.04058 0.20954 -8.85972e-24)
(8.02348 0.191829 -3.09841e-24)
(8.00168 0.175191 1.55017e-23)
(7.98973 0.147709 7.30041e-24)
(8.14648 0.24429 1.43474e-23)
(8.20198 0.242149 -3.25804e-24)
(7.97983 0.139903 5.49468e-23)
(7.96317 0.118788 1.11445e-22)
(8.00056 0.00182814 -1.56138e-24)
(7.99959 0.000268591 8.16723e-25)
(7.99982 -0.000206369 8.79203e-24)
(7.99966 -0.000548817 0)
(8.00117 0.00254135 9.87473e-24)
(7.99905 0.00402697 -1.88504e-23)
(8.00031 0.00198535 -5.59351e-24)
(7.99923 -0.000350237 -6.40214e-24)
(7.99883 0.000548038 -9.48014e-25)
(7.99933 0.000482278 -7.72604e-26)
(8.00141 0.000602976 1.46524e-24)
(7.99886 0.00558338 -2.51093e-24)
(7.99506 0.00317232 -7.08359e-25)
(8.00088 -0.0029359 3.26761e-26)
(7.99622 0.00565241 4.33283e-23)
(7.99493 0.00723617 -1.45531e-23)
(7.95212 0.0789765 -1.12161e-23)
(7.94665 0.0962481 -3.57963e-23)
(7.9589 0.0680883 -6.35771e-23)
(7.96932 0.0497964 -1.91407e-24)
(7.96419 0.0594266 6.10099e-24)
(7.97151 0.0452916 5.58618e-24)
(7.98233 0.0372834 2.41424e-23)
(7.97951 0.0395349 3.15174e-23)
(7.97744 0.0186021 1.77388e-23)
(7.98452 0.0248131 0)
(7.98456 0.0258185 -1.23808e-23)
(7.99652 0.0273078 3.05362e-23)
(7.9947 0.0319489 2.63737e-24)
(7.97672 0.0172317 2.65159e-24)
(7.99164 0.00898911 -6.97126e-24)
(7.97583 0.0142257 -1.20146e-23)
(7.98107 0.0127196 -9.96432e-25)
(7.98139 0.0112627 0)
(7.97305 0.0148902 1.18447e-23)
(8.24182 0.254112 0)
(8.26469 0.258376 4.1452e-23)
(8.30441 0.249841 0)
(8.42887 0.0813534 1.2426e-23)
(8.44487 0.129878 0)
(8.42667 0.195687 -5.54991e-25)
(8.36831 0.246287 0)
(8.0671 0.283854 0)
(8.55716 0.121228 0)
(9.51232 -0.31912 2.20054e-23)
(8.05637 0.257174 1.80932e-23)
(8.04283 0.228771 -6.73489e-23)
(8.08532 0.261695 0)
(8.09894 0.259345 0)
(8.02913 0.207966 0)
(8.00355 0.191694 1.24889e-23)
(7.99153 0.174352 -3.59806e-23)
(7.98712 0.158994 3.58312e-23)
(8.13717 0.264796 1.66896e-24)
(8.19165 0.262953 -3.87472e-23)
(7.96757 0.141413 5.62567e-23)
(7.95145 0.124933 8.91775e-23)
(8.00028 0.00132456 8.08172e-24)
(7.99925 0.000269005 4.89211e-24)
(7.99967 -0.000498658 1.57919e-24)
(8.00009 -0.000508893 0)
(8.0008 0.00242029 1.03625e-23)
(7.99672 0.00426624 -1.71294e-24)
(7.99911 0.00280056 0)
(8.00053 0.00174501 -3.29817e-23)
(7.99963 -0.000544897 -5.64075e-24)
(7.99928 0.000529219 3.76788e-24)
(7.99954 3.84723e-05 1.45434e-24)
(7.99966 0.000344692 1.83586e-24)
(7.99946 -0.000177216 4.66747e-24)
(7.99395 0.00609998 -3.89846e-23)
(7.99322 0.00705426 -4.37973e-23)
(7.9505 0.0728515 -4.67103e-23)
(7.94567 0.0876451 3.74647e-23)
(7.9407 0.110388 5.03274e-23)
(7.95504 0.0675999 -7.58238e-23)
(7.96132 0.0621661 -3.8136e-23)
(7.96615 0.0533665 0)
(7.97682 0.0449024 -5.49048e-24)
(7.99075 0.0348533 2.10891e-23)
(7.98116 0.0410997 3.34795e-23)
(7.9825 0.0204847 -5.21637e-24)
(7.99061 0.0228604 0)
(7.99444 0.0259337 1.03447e-23)
(8.01025 0.0259818 -1.63471e-23)
(8.00762 0.0285362 -1.11297e-23)
(7.9808 0.0178613 -4.46335e-24)
(7.98889 0.0082386 2.90124e-23)
(7.97615 0.0128121 1.89791e-24)
(7.97642 0.0138672 -1.36959e-23)
(7.97905 0.0123558 0)
(7.97661 0.0106709 -9.60514e-24)
(7.98409 0.0169702 5.07496e-24)
(8.21684 0.272785 -3.0596e-23)
(8.26811 0.291348 1.43096e-23)
(8.30959 0.274096 0)
(8.46893 0.0988267 0)
(8.4819 0.168386 4.85884e-24)
(8.40208 0.238353 -2.17291e-23)
(8.46902 0.19507 1.66873e-23)
(8.3407 0.271104 -2.22849e-23)
(7.77111 -0.00991451 7.88529e-23)
(8.45943 -0.0738306 0)
(9.57678 0.30484 -7.55044e-22)
(8.07011 0.270382 0)
(8.03944 0.266212 2.56618e-23)
(8.02917 0.239281 -3.751e-23)
(8.09431 0.270504 0)
(8.11067 0.271176 -3.56239e-23)
(8.01718 0.214506 5.79933e-24)
(7.99825 0.20534 0)
(7.97979 0.185105 -3.99116e-23)
(7.96855 0.157933 2.87476e-23)
(8.15551 0.274405 -6.52862e-24)
(7.96237 0.151282 2.62062e-23)
(7.95216 0.133831 -2.57701e-23)
(7.9469 0.122924 -2.61675e-23)
(8.00004 0.000479836 1.28599e-23)
(7.99928 -0.000442318 0)
(7.99917 -0.000523074 0)
(7.99994 -0.000612444 0)
(8.0002 0.00147015 0)
(7.99423 0.00348336 -1.48276e-23)
(7.99718 0.00232756 1.7135e-23)
(8.0008 0.000866233 -2.66708e-23)
(7.99981 -0.000446949 -3.72097e-25)
(7.99972 -0.000126068 4.04478e-24)
(7.99885 -0.000151819 0)
(7.99983 0.000805166 2.49582e-24)
(8.00003 0.00073023 2.01115e-24)
(7.99282 0.00484897 1.81319e-24)
(7.99257 0.00729745 2.62798e-23)
(7.94719 0.0706932 -1.31375e-23)
(7.9401 0.0870412 -3.86379e-24)
(7.92354 0.112175 5.11485e-23)
(7.95606 0.0628956 -3.9608e-23)
(7.96097 0.059106 -2.07489e-24)
(7.96956 0.0499613 -3.21648e-23)
(7.97859 0.042553 -1.12476e-23)
(8.00134 0.0338155 2.09113e-24)
(7.99112 0.0386344 -5.21606e-24)
(7.99314 0.0208494 -7.88736e-24)
(7.98989 0.0188343 -5.23258e-24)
(8.0066 0.0233173 -1.00426e-23)
(8.00684 0.0247604 9.91086e-24)
(8.01084 0.0259159 0)
(8.01546 0.0237518 -1.84045e-23)
(8.00937 0.0292814 -1.10815e-23)
(7.97969 0.00840669 -2.61038e-23)
(7.97199 0.013088 -7.70489e-24)
(7.9815 0.0131938 0)
(7.97393 0.0120351 -7.55243e-24)
(7.97661 0.00951683 -2.86211e-23)
(7.9735 0.0113177 -1.06001e-23)
(8.00385 0.0156101 -2.14414e-23)
(8.21274 0.297407 -2.8811e-23)
(8.29562 0.292526 -1.15155e-23)
(8.23976 0.308252 0)
(8.49961 0.166242 0)
(8.52851 0.169554 5.86836e-23)
(8.41953 0.247097 -3.92082e-24)
(8.46476 0.219408 0)
(8.35608 0.293487 -2.19702e-23)
(7.71729 0.492201 -8.98976e-24)
(8.83623 0.150545 -1.56168e-22)