/*--------------------------------*- C++ -*----------------------------------*\
| =========                 |                                                 |
| \\      /  F ield         | OpenFOAM: The Open Source CFD Toolbox           |
|  \\    /   O peration     | Version:  v2012                                 |
|   \\  /    A nd           | Website:  www.openfoam.com                      |
|    \\/     M anipulation  |                                                 |
\*---------------------------------------------------------------------------*/
FoamFile
{
    version     2.0;
    format      ascii;
    class       surfaceVectorField;
    location    "2.1";
    object      Uf;
}
// * * * * * * * * * * * * * * * * * * * * * * * * * * * * * * * * * * * * * //

dimensions      [0 1 -1 0 0 0 0];


internalField   nonuniform List<vector> 
21888
(
(8.14433 -0.0318979 -4.59366e-22)
(8.17588 -0.0116085 1.29384e-23)
(8.05167 -0.0382698 -1.37192e-21)
(8.10173 -0.036622 7.58799e-21)
(8.16956 -0.00981528 1.58906e-24)
(8.11566 -0.00961909 -3.05311e-22)
(8.02302 -0.018883 -3.4737e-24)
(7.99825 -0.0273867 6.06026e-24)
(8.14416 -0.0684034 5.69923e-20)
(8.09083 -0.022942 -8.77517e-21)
(8.17838 -0.0115619 6.01173e-22)
(8.0209 -0.0116367 -1.85656e-24)
(8.00385 -0.022914 1.29818e-21)
(7.9856 -0.0122128 3.32631e-22)
(8.12905 -0.0954896 -2.81858e-20)
(8.03911 -0.0173894 -1.35999e-23)
(8.06492 -0.0260519 7.55354e-22)
(8.11387 -0.0125402 1.91546e-25)
(8.18757 -0.0050605 1.99084e-25)
(8.02104 -0.0138462 0)
(7.97861 -0.00615711 -1.01155e-24)
(7.98673 -0.0114282 8.2535e-21)
(7.99344 3.21044e-05 8.45299e-24)
(7.97845 -0.000883444 7.1733e-24)
(8.18297 -0.0668051 8.01768e-25)
(8.11948 -0.0301728 1.44507e-21)
(8.06233 -0.0304106 1.17977e-20)
(8.02996 -0.03438 1.15993e-22)
(8.02246 -0.00686741 0)
(8.19354 -0.000982226 0)
(7.97029 -0.0011148 -9.63888e-25)
(7.96517 -0.00169981 3.73864e-22)
(7.99384 -0.0205695 -7.03529e-24)
(7.99114 -0.0107091 2.09773e-22)
(8.00948 0.00275654 7.5198e-24)
(8.01686 0.00257032 0)
(7.98592 -0.000709301 3.00937e-24)
(8.15573 -0.055721 0)
(8.06803 -0.0161771 1.202e-20)
(8.00544 -0.0327497 -6.16887e-25)
(7.97966 -0.00625286 4.19128e-24)
(8.02435 -0.00207562 0)
(8.12626 -0.00205937 0)
(8.18924 -0.00667658 0)
(7.96216 -0.00349714 -1.54448e-21)
(7.97409 -4.56546e-05 3.7807e-24)
(8.01103 -0.00164848 -1.70598e-22)
(8.02105 -0.00655027 6.78926e-24)
(8.02353 0.00382306 3.73222e-22)
(8.02636 0.00262907 -9.57679e-26)
(8.01988 0.00271036 2.14791e-24)
(7.98799 0.00111143 2.68785e-24)
(8.0041 0.000959171 3.97898e-23)
(8.1334 -0.0297482 0)
(8.18208 -0.0334212 0)
(8.01866 -0.0279217 8.05626e-24)
(8.03821 -0.0154299 8.53854e-24)
(8.01347 -0.0209703 -4.75101e-24)
(7.9578 -0.00293601 4.20721e-24)
(8.02746 -0.00983386 -1.28668e-24)
(8.19322 -0.0122773 6.568e-24)
(7.98681 0.00131702 0)
(8.02959 -0.00991616 -3.01595e-24)
(8.03601 -0.00111625 -1.40977e-22)
(8.03344 0.00584261 7.03641e-24)
(8.03372 0.00672012 3.75649e-24)
(8.03065 0.00559332 2.81069e-24)
(8.02775 0.00702859 8.48926e-22)
(8.01723 0.00218493 4.58484e-24)
(8.02075 0.00514032 -3.64096e-22)
(8.01741 0.00319611 -4.78208e-25)
(8.06198 -0.0216325 0)
(8.09342 -0.0181708 7.99998e-24)
(8.1583 -0.0248239 0)
(8.02721 -0.0127246 0)
(8.03789 -0.00869131 -1.56618e-21)
(7.95437 -0.00199877 0)
(7.96688 0.000219307 0)
(7.98039 -0.0081221 -1.18325e-24)
(8.02443 -0.0162356 -1.93998e-21)
(8.10533 -0.0148974 4.13287e-24)
(8.1773 -0.0147842 -1.33656e-20)
(7.98703 0.000382681 0)
(8.0027 0.00193893 -2.65737e-26)
(8.03831 0.00527555 -4.86268e-24)
(8.04585 0.0054591 -8.80778e-22)
(8.03508 0.00866886 1.12869e-22)
(8.04055 0.0107793 0)
(8.02396 0.00753904 -1.9029e-25)
(8.02725 0.00966138 -8.23002e-23)
(8.02159 0.00629089 6.13947e-23)
(8.01693 0.00368031 -3.12656e-24)
(8.02033 0.00468339 -3.22289e-22)
(8.06255 -0.0174385 7.30354e-24)
(8.10103 -0.0227293 -1.28045e-21)
(8.14472 -0.0326737 -3.43424e-25)
(8.15238 -0.0324298 0)
(8.0335 -0.0126452 0)
(8.03275 -0.00893557 -6.85596e-24)
(8.0462 -0.00376018 4.06551e-23)
(8.05085 0.00285124 -1.33263e-23)
(7.94897 -0.00336406 3.81529e-24)
(7.98759 1.33201e-05 -3.05916e-24)
(7.99488 -0.01429 -1.70745e-24)
(8.18181 -0.0108945 8.44184e-21)
(8.01732 0.00196379 -3.42584e-22)
(8.05334 0.0083632 -6.83568e-24)
(8.05246 0.0134849 -1.68147e-23)
(8.03752 0.0131602 2.62345e-23)
(8.03304 0.0127079 9.30823e-24)
(8.04139 0.0140889 6.50032e-24)
(8.04525 0.0151444 4.97611e-24)
(8.02992 0.0124799 -2.59668e-24)
(8.02556 0.0124085 -4.50714e-22)
(8.02003 0.00642452 3.83382e-22)
(8.03909 -0.0169375 0)
(8.11405 -0.0255976 -1.02137e-21)
(8.14125 -0.0165997 6.59353e-25)
(8.05597 -0.000230386 -7.46001e-24)
(8.06068 0.011946 8.76962e-24)
(7.94788 -0.00214695 4.00596e-24)
(7.95637 -0.00399613 -2.22293e-22)
(8.00366 -0.000299315 -1.58172e-22)
(7.98933 -0.000318304 2.96862e-22)
(7.96259 -0.00248695 0)
(8.08142 -0.00694736 -3.36516e-24)
(8.19476 -0.00640778 -3.28613e-24)
(8.01615 0.000781463 2.83983e-22)
(8.01819 0.00239581 -1.28859e-23)
(8.0491 0.0159729 -4.23392e-24)
(8.05432 0.0178051 -1.17187e-21)
(8.03608 0.0162365 6.25525e-24)
(8.02824 0.0153669 0)
(8.04369 0.0188355 -4.00554e-23)
(8.023 0.0148155 -2.32948e-24)
(8.023 0.0129919 -9.10694e-23)
(8.01768 0.00485393 -1.55612e-24)
(8.01855 0.00746342 -1.14107e-23)
(8.05041 -0.00974334 -6.68526e-24)
(8.04622 -0.0156905 1.79531e-24)
(8.08385 -0.0144699 3.47368e-22)
(8.1263 -0.0180485 -7.41517e-24)
(8.15034 -0.00888316 6.25491e-22)
(8.15957 -0.0376924 2.81077e-20)
(8.06442 0.000104531 -7.20407e-24)
(8.06938 0.00755337 8.97107e-24)
(8.0707 0.0152283 -6.20465e-22)
(8.0719 0.0224636 7.45771e-24)
(7.97802 -0.00256657 -2.1972e-25)
(7.96906 -0.00487151 3.02029e-22)
(8.01615 0.00107276 5.33316e-23)
(7.99923 0.000433343 3.26639e-23)
(7.96886 0.00107 0)
(7.96122 -0.00450215 -5.63192e-24)
(7.97591 -0.00205403 0)
(8.19683 0.00331546 -4.69844e-25)
(8.0153 0.00406469 -8.17943e-23)
(8.05591 0.0238924 -9.72833e-24)
(8.0486 0.0236399 1.84969e-24)
(8.03438 0.0193882 0)
(8.03039 0.0177992 0)
(8.02596 0.0172195 0)
(8.02414 0.0160834 -1.22575e-24)
(8.04145 0.0236606 1.59868e-23)
(8.03786 0.021754 4.50734e-24)
(8.02241 0.0158445 -1.04013e-24)
(8.02131 0.0158517 -4.096e-24)
(8.0203 0.0110579 2.13007e-22)
(8.02098 0.0143216 -8.50807e-24)
(8.01737 0.00839243 -8.14807e-23)
(8.0747 0.00120963 9.72696e-22)
(8.04887 -0.0117782 2.2733e-21)
(8.11544 -0.00865234 1.33028e-23)
(8.10356 -0.112766 7.20006e-24)
(8.07908 0.0161365 8.21363e-24)
(8.06548 0.0260746 0)
(8.07379 0.0274652 0)
(7.96847 -0.00370479 7.61795e-23)
(7.98679 -0.00231813 -5.53081e-24)
(8.01463 0.00162175 6.07344e-24)
(8.01685 0.00209167 -4.47374e-24)
(8.00769 0.000678354 -4.79214e-24)
(7.96532 6.75925e-06 -5.34832e-24)
(7.98409 0.000441311 -2.81911e-26)
(7.9512 -0.00243167 0)
(8.10399 0.00371112 -1.85588e-22)
(8.21061 0.0170157 -4.26867e-21)
(8.01361 0.003924 -2.4244e-24)
(8.01344 0.00531432 -3.23133e-24)
(8.05297 0.0324486 -2.00784e-24)
(8.04421 0.0292945 2.94996e-22)
(8.03489 0.0242477 0)
(8.02691 0.0188755 0)
(8.02907 0.021916 0)
(8.02503 0.0193245 3.59679e-24)
(8.02209 0.0173286 -7.76502e-23)
(8.02021 0.0152598 -3.79885e-22)
(8.01467 0.00743476 -7.56749e-25)
(8.01618 0.00982322 1.64562e-24)
(8.09091 0.00657671 1.78498e-22)
(8.08019 0.000619018 -7.71155e-22)
(8.05912 -0.0114685 4.29721e-21)
(8.04957 -0.00633603 3.39344e-23)
(8.0893 -0.0238194 1.04367e-23)
(8.11471 -0.0859099 1.8336e-25)
(8.12362 -0.0619626 2.05665e-21)
(8.0865 0.0126763 6.43999e-24)
(8.0836 0.0209298 -8.76197e-25)
(8.07385 0.0296278 -1.22597e-23)
(8.06015 0.033976 -1.28434e-23)
(8.00596 0.000582807 -1.05235e-21)
(8.01262 0.00321722 -1.0522e-22)
(7.9523 0.00204346 0)
(7.98347 0.00140031 -2.62938e-24)
(7.99239 0.00588703 -2.56147e-26)
(7.9468 0.00211297 0)
(8.20716 0.0158271 -5.14364e-24)
(8.01205 0.00737467 2.89531e-23)
(8.05243 0.0352955 4.39542e-22)
(8.05012 0.0331939 -1.15577e-21)
(8.04859 0.035317 5.20698e-24)
(8.04399 0.0352061 2.28489e-23)
(8.03201 0.025745 0)
(8.0357 0.0288982 -8.89889e-25)
(8.02869 0.0259773 2.02181e-25)
(8.02248 0.0196125 1.74082e-22)
(8.02345 0.0209431 1.03634e-22)
(8.02005 0.0194385 3.62844e-22)
(8.01876 0.0140713 -1.09965e-24)
(8.01848 0.0161323 -1.32789e-24)
(8.01686 0.0121917 4.53825e-25)
(8.01446 0.0108387 -6.74911e-25)
(8.09782 0.0150429 6.38865e-24)
(8.07701 0.0108266 -2.19887e-22)
(8.13095 -0.0462864 -1.04582e-23)
(8.16511 0.0531844 1.7647e-20)
(8.27879 -0.120869 -1.09255e-19)
(8.08275 0.02747 -1.43909e-23)
(8.08947 0.0280173 3.27156e-22)
(8.07705 0.0353719 -7.55569e-22)
(8.05404 0.0383238 -4.36551e-22)
(8.006 0.000880374 -2.08198e-24)
(8.00936 0.00129725 8.25207e-25)
(8.0104 0.00265979 -1.70919e-24)
(8.01065 0.0053239 1.10539e-22)
(8.00295 -0.00042534 -8.78422e-22)
(7.99507 0.00145805 -2.49902e-24)
(7.99658 0.0125343 5.68613e-25)
(7.95789 0.00613694 0)
(7.9689 0.00223052 0)
(7.94611 0.00296504 0)
(8.10063 0.0168887 7.93292e-22)
(8.18757 0.00331996 -1.93402e-23)
(8.0107 0.00719703 -2.78759e-24)
(8.01164 0.00825958 -6.97007e-24)
(8.05211 0.0385796 -3.24898e-24)
(8.03949 0.0338014 1.15487e-23)
(8.04067 0.0389152 1.78673e-22)
(8.03242 0.0338895 1.63334e-23)
(8.02463 0.0243314 4.12767e-24)
(8.02451 0.0279251 7.53205e-24)
(8.0202 0.0238274 3.34824e-24)
(8.01818 0.0178382 1.19065e-24)
(8.01768 0.0205395 2.01123e-23)
(8.01562 0.0146529 -1.58668e-23)
(8.01585 0.016895 0)
(8.01263 0.00993642 -5.08729e-24)
(8.01226 0.0119559 4.11636e-23)
(8.09823 0.0291527 -8.70945e-25)
(8.10774 0.0206716 -1.30139e-23)
(8.11771 0.00477963 9.40827e-21)
(8.08617 0.0321912 -1.39275e-23)
(8.16254 -0.0272135 -8.54881e-22)
(8.15923 0.0258423 -1.29309e-20)
(8.13922 0.0350933 -1.04552e-24)
(8.33073 -0.116259 1.46368e-22)
(8.09426 0.0369556 -8.98559e-25)
(8.07814 0.0434926 -1.40764e-23)
(8.06739 0.0448245 -1.35771e-23)
(8.05689 0.0412992 -1.36961e-23)
(8.05813 0.0439609 -1.5595e-23)
(8.00384 0.00209284 9.60416e-22)
(8.00758 0.0034884 -3.64579e-24)
(8.00912 0.00625002 -4.26726e-24)
(7.99463 0.0014836 2.92918e-24)
(7.98225 0.0181631 -7.22118e-21)
(7.94802 0.00755734 -1.08744e-25)
(8.19118 -0.0171322 1.85667e-20)
(8.011 0.00903862 -1.66875e-23)
(8.05525 0.0432362 3.14482e-24)
(8.03462 0.0427957 1.41912e-23)
(8.03993 0.0453349 -2.62421e-23)
(8.02936 0.0397557 3.35111e-24)
(8.02611 0.0355923 1.23288e-22)
(8.02275 0.0319623 1.62444e-22)
(8.01887 0.0291326 3.45715e-22)
(8.01717 0.0254441 1.6229e-25)
(8.0175 0.0239108 2.36902e-23)
(8.01698 0.0219939 -4.06978e-24)
(8.01566 0.0202539 -1.32811e-24)
(8.01377 0.0167531 3.64527e-25)
(8.01287 0.015483 2.07995e-24)
(8.01414 0.0181232 0)
(8.01167 0.0136459 9.87053e-25)
(8.0104 0.0123777 -6.85841e-25)
(8.10008 0.0225988 -1.35007e-23)
(8.11406 0.0236428 2.47126e-21)
(8.08248 0.0288702 -1.1005e-22)
(8.12856 0.0027643 2.011e-20)
(8.01917 0.0618335 4.98614e-20)
(8.10879 -0.0247145 -1.44681e-23)
(8.18973 0.128115 1.40484e-22)
(8.58887 0.0575119 -2.64976e-20)
(8.08784 0.0439357 0)
(8.09761 0.0438532 0)
(8.08262 0.0527488 0)
(8.06362 0.0520339 0)
(8.00456 0.00376752 -9.30614e-25)
(8.00272 0.00246287 -8.55717e-25)
(8.00757 0.00538595 -1.8489e-22)
(8.00629 0.00469034 -3.97353e-24)
(8.00913 0.00622167 -4.09362e-24)
(7.99944 0.000677554 3.15778e-24)
(7.99449 0.00155564 -2.05839e-21)
(7.9539 0.0184395 3.62477e-24)
(7.96998 0.0291039 3.97238e-24)
(7.97067 0.00656982 -8.44279e-22)
(8.14937 -0.054947 -3.40118e-23)
(8.09123 0.0228967 -3.46972e-23)
(8.00996 0.00813448 -2.13228e-22)
(8.00973 0.00986172 -1.08572e-23)
(8.04833 0.0475293 -2.27216e-23)
(8.05732 0.0502055 3.06348e-24)
(8.02892 0.0447043 6.30553e-24)
(8.03812 0.0525759 1.97779e-22)
(8.02227 0.0376662 7.50205e-23)
(8.01646 0.0274436 1.80088e-24)
(8.01637 0.0305825 -6.24704e-24)
(8.01517 0.025815 -1.4565e-23)
(8.01545 0.0230919 -2.71484e-24)
(8.01352 0.0196897 -6.58539e-24)
(8.01143 0.0157101 -1.14154e-22)
(8.00944 0.0110659 -2.21717e-24)
(8.0094 0.0123902 3.09121e-24)
(8.11027 0.0362449 -1.59532e-23)
(8.1242 0.030767 -1.67879e-23)
(8.08659 0.00823897 -4.05281e-23)
(8.10221 0.0200446 -5.3896e-21)
(8.11243 0.0132453 -2.61663e-21)
(7.99721 0.171867 3.51797e-23)
(8.12489 -0.00338764 1.64663e-23)
(8.13761 -0.0317844 1.10754e-25)
(8.646 0.0860361 8.0557e-23)
(8.10811 0.0513148 0)
(8.08008 0.06231 0)
(8.09046 0.0620396 -3.54878e-23)
(8.06236 0.0541162 0)
(8.06685 0.0592561 0)
(8.00721 0.00404687 -6.88779e-23)
(8.00082 0.00151781 0)
(8.00424 0.00212207 0)
(8.00942 0.00675224 -5.20777e-24)
(8.0087 0.00555396 2.1802e-24)
(7.99971 0.000620073 0)
(7.99351 0.0013716 1.84965e-24)
(8.00267 0.0402056 0)
(7.98109 0.00578228 0)
(8.13291 -0.03264 4.6037e-20)
(8.0106 0.0279587 -1.11691e-24)
(8.0086 0.00750482 -8.30947e-24)
(8.00864 0.00971798 5.07623e-23)
(8.05215 0.0564589 0)
(8.02808 0.04893 4.05792e-22)
(8.02472 0.0451132 -6.44789e-24)
(8.03959 0.0571411 -1.33057e-23)
(8.03332 0.0556926 -1.58222e-23)
(8.01936 0.037961 1.21929e-22)
(8.02189 0.0407016 2.76723e-22)
(8.01685 0.0344167 -2.51582e-23)
(8.01583 0.030899 -4.81878e-24)
(8.01412 0.0245779 2.80498e-24)
(8.01421 0.0260526 6.87377e-24)
(8.01355 0.0231053 -6.96659e-24)
(8.01257 0.0216084 9.62821e-23)
(8.01183 0.0196043 -1.44256e-23)
(8.01029 0.0151582 8.18927e-24)
(8.01094 0.0166761 -4.83527e-24)
(8.00957 0.0137533 4.24317e-23)
(8.00866 0.0124337 4.27401e-23)
(8.13259 0.0347922 -1.25621e-23)
(8.13441 0.0440798 0)
(8.13085 0.0296149 -2.675e-22)
(8.13388 0.0167837 9.25842e-21)
(8.25311 0.0959578 -4.08951e-21)
(7.93274 0.110097 4.48968e-21)
(8.05388 0.0265204 -7.89708e-21)
(8.14209 6.84025e-06 9.00019e-21)
(8.58941 0.0143568 -1.28397e-23)
(8.10376 0.0632211 -3.17427e-23)
(8.12004 0.0575687 0)
(8.07044 0.0652527 0)
(8.07642 0.0747668 -2.21382e-23)
(8.09709 0.0727599 1.65016e-21)
(8.05846 0.0671207 1.84623e-23)
(8.00803 0.00433454 3.53569e-23)
(8.0073 0.0034 3.40691e-24)
(8.00645 0.0024432 0)
(8.00505 0.00204281 -3.15886e-24)
(8.00729 0.00545525 2.69802e-23)
(8.00199 0.000677237 -2.95724e-24)
(7.99923 -0.000365734 0)
(7.99713 0.000256475 0)
(7.99364 -0.000678406 -1.91318e-24)
(7.98487 -0.0064685 -1.83501e-24)
(7.98985 -0.0111331 -1.52577e-24)
(8.04078 0.0091667 -1.84917e-23)
(8.06851 -0.015721 1.86098e-21)
(8.00694 -0.00360631 3.34943e-21)
(8.0081 0.00851844 -1.00737e-23)
(8.0076 0.00758926 -4.11768e-24)
(8.00787 0.00946412 -5.9186e-24)
(8.04369 0.0608532 0)
(8.02869 0.0539462 6.85987e-24)
(8.02472 0.053772 9.26162e-25)
(8.02236 0.0435312 -1.4815e-23)
(8.02134 0.0471781 4.64678e-23)
(8.02916 0.0603053 -1.20375e-24)
(8.0164 0.0388039 -8.34572e-24)
(8.01911 0.0426251 3.99873e-23)
(8.01472 0.0281371 4.50434e-24)
(8.0143 0.0307905 1.93318e-23)
(8.01383 0.0260243 -4.82374e-23)
(8.01272 0.0231803 -7.59454e-24)
(8.01114 0.0181244 -1.04236e-22)
(8.01105 0.0199525 -1.44088e-23)
(8.00943 0.0149075 2.56902e-24)
(8.01016 0.0172163 -9.59744e-24)
(8.00806 0.0126962 5.24508e-23)
(8.0078 0.0111984 -7.98925e-23)
(8.13629 0.0599374 0)
(8.14516 0.0317548 -1.90766e-21)
(8.15149 0.0509596 1.29127e-23)
(8.15146 0.0268918 2.54386e-23)
(7.89661 0.0573261 -1.11597e-22)
(8.15549 0.0174861 -2.69354e-23)
(8.16237 0.00901773 -8.28214e-24)
(8.54293 -0.0674318 -4.57273e-20)
(8.08556 0.0826953 -3.85418e-22)
(8.0702 0.0842963 6.41097e-23)
(8.09469 0.0812305 -2.94939e-23)
(8.10374 0.082276 -3.5738e-23)
(8.0464 0.0663491 1.64413e-23)
(8.04991 0.0738193 7.4161e-22)
(8.00617 0.00339409 0)
(8.00427 0.00154467 2.77819e-22)
(8.00692 0.0065056 2.63553e-25)
(8.00622 0.0054223 2.86371e-25)
(8.00042 -0.00151851 0)
(7.98694 -0.000619536 -2.26464e-21)
(7.99538 0.000493339 -1.64925e-24)
(8.03044 -0.0112628 -6.83607e-21)
(8.06274 -0.0352392 4.43489e-24)
(8.00678 0.00731363 -4.26178e-24)
(8.00743 0.0100606 -7.93811e-24)
(8.00703 0.00909651 -4.09092e-24)
(8.03773 0.0661328 5.54172e-24)
(8.02051 0.0512705 1.53862e-22)
(8.02179 0.0565328 -1.195e-23)
(8.01892 0.048659 -1.26723e-23)
(8.0319 0.0652237 3.68227e-22)
(8.02693 0.064429 -6.3468e-23)
(8.01617 0.0421709 -6.77002e-25)
(8.01536 0.0400061 1.80921e-23)
(8.0169 0.0451577 -6.56737e-25)
(8.01176 0.0302146 8.2866e-24)
(8.01333 0.0332554 4.39607e-22)
(8.01309 0.0248422 4.32803e-24)
(8.01209 0.0260906 -9.21668e-24)
(8.01197 0.0235166 -5.12528e-24)
(8.01098 0.0216341 -8.46649e-23)
(8.0103 0.0198096 -1.44278e-23)
(8.00941 0.0161573 -3.52514e-23)
(8.00883 0.014924 -3.52446e-24)
(8.00977 0.0174154 -1.01917e-23)
(8.00817 0.0138785 -1.52768e-24)
(8.00765 0.0126608 -2.25634e-24)
(8.007 0.0104639 -1.02182e-22)
(8.15051 0.0669815 -9.78424e-24)
(8.13034 0.0757693 0)
(8.15983 0.0639187 -1.15808e-23)
(8.16889 0.0664794 -6.8093e-22)
(8.16819 0.0375965 0)
(8.09874 -0.00929244 1.08062e-23)
(7.89768 0.0699974 2.39822e-23)
(8.08403 0.0385254 -6.33959e-22)
(8.18806 0.0085038 1.93603e-23)
(8.45327 -0.103964 -9.57116e-22)
(8.09001 0.0889474 -3.55229e-24)
(8.06551 0.0921834 1.16032e-22)
(8.05861 0.0875762 -1.81011e-23)
(8.11282 0.084739 0)
(8.10247 0.0918763 0)
(8.05064 0.0836393 1.83027e-22)
(8.04066 0.0808863 2.35469e-23)
(8.00567 0.0043272 0)
(8.00515 0.00312198 5.96569e-25)
(8.00443 0.00188578 2.03311e-24)
(8.00353 0.000995222 2.74545e-22)
(8.0056 0.00499235 0)
(8.00163 -0.00027298 2.45285e-24)
(7.99924 -0.00125932 0)
(7.9937 -0.00142048 1.54313e-24)
(7.98856 0.000256471 3.80009e-24)
(7.99822 0.00365049 3.70024e-25)
(7.99016 0.00203238 1.04404e-25)
(7.995 0.00814217 1.24746e-21)
(8.07229 -0.00847155 0)
(8.00647 0.00808058 5.32965e-23)
(8.00599 0.00687888 -9.00943e-24)
(8.00628 0.00873152 -4.14159e-24)
(8.03323 0.0690906 4.96589e-24)
(8.01979 0.0586463 -5.30258e-23)
(8.02247 0.062079 -2.623e-22)
(8.0177 0.0486608 3.19194e-24)
(8.02355 0.0649895 -1.16559e-23)
(8.02516 0.069492 1.11553e-23)
(8.01408 0.0370782 4.01487e-23)
(8.0148 0.0421348 -5.06788e-22)
(8.01079 0.0277786 -1.57773e-22)
(8.0097 0.0299158 -1.83835e-23)
(8.0108 0.0356881 3.50843e-23)
(8.00978 0.0260345 -7.58635e-24)
(8.01049 0.0234345 -4.67091e-24)
(8.01003 0.0184091 -1.10324e-22)
(8.00953 0.0195541 -6.30799e-24)
(8.00851 0.0151056 -2.56551e-24)
(8.00965 0.0172268 -6.88825e-24)
(8.00692 0.0127808 -1.21441e-23)
(8.00706 0.0117546 -5.48541e-24)
(8.00618 0.00972906 -2.29153e-24)
(8.00662 0.010615 1.8604e-23)
(8.15756 0.0751615 -3.07898e-22)
(8.12545 0.0872701 8.11897e-24)
(8.17962 0.0674729 -2.34084e-23)
(8.17059 0.0784848 -1.765e-24)
(8.19074 0.0364145 0)
(8.18589 0.0507067 -2.49015e-23)
(7.95572 0.0586422 3.4685e-23)
(8.2085 0.0226288 1.78335e-23)
(8.55073 -0.0847991 -1.27847e-23)
(8.312 -0.0946463 1.93086e-20)
(8.07912 0.0949999 2.71397e-22)
(8.09231 0.0936307 -4.04289e-24)
(8.06663 0.0997747 -7.53783e-22)
(8.0498 0.0943727 8.98112e-24)
(8.09928 0.100139 0)
(8.03268 0.0755642 0)
(8.03269 0.0862675 6.32259e-24)
(8.0046 0.00243465 3.0047e-24)
(8.00455 0.00324198 7.32809e-23)
(8.00383 0.00229059 2.09043e-24)
(8.00207 0.00126456 1.48713e-25)
(8.00542 0.00575095 -5.28268e-25)
(8.00486 0.00470441 0)
(7.99943 -0.000534895 0)
(7.98809 0.000613244 -1.96884e-21)
(7.99184 -0.000715363 2.18084e-24)
(7.99156 -0.00178958 -1.17622e-21)
(7.98928 -0.00074722 -1.89995e-24)
(8.01392 0.0128192 -2.10449e-24)
(8.04129 0.0113088 0)
(8.04882 -0.0094745 -6.01574e-25)
(8.00502 0.00655916 -5.05762e-25)
(8.00567 0.0086635 0)
(8.02892 0.0722042 1.6335e-23)
(8.01695 0.061754 8.51209e-24)
(8.01775 0.0560607 -7.22468e-25)
(8.02068 0.0657417 -1.32403e-24)
(8.018 0.0517274 3.86144e-24)
(8.01702 0.0483343 6.31197e-24)
(8.02522 0.073731 7.66465e-22)
(8.01556 0.0458659 5.21691e-23)
(8.01301 0.0440135 3.73261e-22)
(8.00722 0.029037 1.09877e-23)
(8.00781 0.0312686 2.48744e-22)
(8.007 0.0340035 1.60857e-22)
(8.00793 0.0381029 1.28751e-22)
(8.00956 0.0248732 2.10021e-24)
(8.00773 0.0258179 0)
(8.009 0.0230228 1.26476e-24)
(8.00831 0.0199317 -3.03029e-25)
(8.00814 0.0186511 -1.49262e-23)
(8.00894 0.0164675 -2.25788e-24)
(8.00789 0.0157248 -1.69278e-22)
(8.00856 0.0172834 -7.55773e-25)
(8.00667 0.0143993 4.13391e-23)
(8.00574 0.0132243 -6.31984e-24)
(8.00636 0.0109086 -2.88817e-23)
(8.14433 0.0856169 -4.33339e-22)
(8.16149 0.0816397 -7.36074e-25)
(8.1299 0.0958851 9.21761e-25)
(8.20351 0.0674179 -3.9993e-21)
(8.16933 0.0894265 5.10642e-24)
(8.02636 -0.0357417 -1.74136e-24)
(8.00233 0.0364781 -2.56649e-21)
(8.16324 0.0302805 -9.77006e-21)
(8.24849 0.0257164 3.80201e-23)
(8.43196 -0.232435 7.6718e-21)
(8.21339 -0.0927456 -1.42863e-21)
(8.06946 0.110834 9.17744e-23)
(8.05913 0.107912 -1.90279e-23)
(8.05004 0.104518 -1.77955e-22)
(8.04128 0.10126 2.11217e-22)
(8.08561 0.112212 -5.51944e-24)
(8.10446 0.110249 -8.15795e-24)
(8.03245 0.0964781 -5.06694e-23)
(8.02885 0.0899296 4.72051e-24)
(8.00435 0.00386669 1.12306e-24)
(8.00384 0.00348583 -3.51581e-24)
(8.00338 0.00283059 -3.65704e-23)
(8.0031 0.00216747 -1.30268e-24)
(8.00239 0.00156801 4.22071e-23)
(8.00153 0.00102473 1.46836e-22)
(8.00385 0.00467651 0)
(7.9977 -0.000695083 0)
(8.00071 0.000191505 -2.09112e-24)
(7.99557 -0.000811112 -2.25126e-24)
(7.99367 -0.000954122 -3.41267e-24)
(7.99044 -0.00310571 -2.02642e-25)
(7.98609 -0.00349764 4.746e-25)
(7.99156 -0.00207183 -8.36219e-25)
(8.02215 0.00103577 -4.64246e-25)
(8.05052 -0.0210255 3.60848e-21)
(8.00495 0.00747959 0)
(8.00428 0.00646382 0)
(8.00531 0.00835081 1.25308e-24)
(8.01784 0.0657792 3.0948e-22)
(8.01572 0.0647891 3.19093e-22)
(8.01496 0.0543924 -4.2282e-23)
(8.019 0.0704982 2.06568e-23)
(8.01362 0.0487045 2.87637e-22)
(8.02518 0.0824163 3.68663e-23)
(8.02172 0.0763749 -4.16427e-22)
(8.01007 0.042433 -3.89503e-22)
(8.00847 0.044794 -9.93797e-24)
(8.00594 0.0267436 2.02945e-24)
(8.00374 0.0282655 2.54063e-23)
(8.00395 0.0327978 3.36455e-22)
(8.00422 0.0407402 -1.1597e-23)
(8.00561 0.0249877 0)
(8.00778 0.0216049 -8.96574e-24)
(8.00659 0.0234004 -8.78715e-25)
(8.00527 0.0206595 -5.85317e-24)
(8.00653 0.0180327 -1.83821e-22)
(8.00598 0.0157996 -8.73357e-24)
(8.0053 0.0122298 -3.26704e-24)
(8.0042 0.0133481 2.44389e-23)
(8.00554 0.0111793 2.15998e-23)
(8.0057 0.00995642 -4.55759e-24)
(8.12133 0.108846 7.43221e-23)
(8.13881 0.106783 -5.14515e-24)
(8.22218 0.0721535 1.81735e-21)
(8.19994 0.0895085 5.18823e-22)
(8.15869 0.103964 -4.80742e-23)
(8.17875 0.097894 1.26578e-21)
(8.0836 0.0285014 3.74027e-23)
(8.24596 0.0560999 -2.4593e-21)
(8.27845 0.0397219 4.09948e-23)
(8.25131 -0.274555 5.06363e-23)
(8.27534 -0.133213 -7.8127e-21)
(8.2235 -0.080964 4.61798e-23)
(8.07451 0.122908 -1.00343e-23)
(8.0535 0.117239 8.04442e-24)
(8.03482 0.108135 -1.4261e-24)
(8.11144 0.123563 -8.24656e-24)
(8.02547 0.0922888 -9.28413e-24)
(8.00313 0.00339152 -3.74756e-24)
(8.00273 0.00158144 1.89686e-23)
(8.00115 -0.00024616 -3.89013e-24)
(8.00362 0.00551816 0)
(8.00306 0.00466845 -5.16663e-24)
(7.99628 -0.0012844 3.07169e-22)
(7.99062 -0.00171595 2.90806e-22)
(8.0019 -0.00116414 2.17246e-21)
(7.98766 -0.00121738 -8.51273e-25)
(8.01525 -0.0117083 -1.23125e-21)
(8.0305 -0.0150637 2.92781e-24)
(8.04606 -0.0108697 1.00964e-20)
(8.004 0.00621126 0)
(8.00538 0.00888907 3.92379e-24)
(8.00492 0.007828 5.142e-24)
(8.01544 0.0706305 5.33521e-22)
(8.01352 0.064064 -9.46162e-22)
(8.01122 0.0521903 3.8156e-23)
(8.01217 0.0570477 5.42379e-22)
(8.01902 0.0778763 2.53479e-22)
(8.0081 0.0503292 1.75639e-23)
(8.00513 0.0469657 9.79709e-25)
(8.00195 0.044636 1.0458e-23)
(8.00134 0.0306803 7.92987e-25)
(8.00044 0.0281709 1.50224e-22)
(8.00013 0.0329304 1.76112e-22)
(7.99939 0.0429138 -2.53933e-22)
(7.99953 0.0395337 7.44083e-24)
(8.00381 0.0242139 -3.53473e-24)
(8.00257 0.0211939 -2.02205e-23)
(8.00323 0.0197896 -1.44402e-23)
(8.00494 0.0172305 -6.10529e-24)
(8.00411 0.0183742 -1.13979e-22)
(8.0038 0.0159982 4.67173e-24)
(8.00446 0.0112812 -7.23751e-24)
(8.00265 0.0126923 4.50216e-24)
(8.00277 0.0137628 2.83815e-22)
(8.00515 0.00928076 8.47469e-23)
(8.14839 0.119438 2.71454e-24)
(8.24211 0.0856813 -1.81432e-23)
(8.19316 0.108501 3.55842e-24)
(8.13399 -0.0185883 0)
(8.14362 0.0462841 2.55562e-23)
(8.26988 0.0532892 -6.59991e-21)
(8.30078 0.0551543 1.05906e-23)
(8.35157 -0.266612 4.80728e-23)
(8.23123 -0.0870499 0)
(8.07921 0.136505 3.99084e-23)
(8.06961 0.133434 -4.58503e-24)
(8.06017 0.130991 0)
(8.04733 0.12802 0)
(8.03728 0.118817 0)
(8.03041 0.11277 -7.71684e-24)
(8.09678 0.138496 -4.92099e-24)
(8.11805 0.137622 0)
(8.02482 0.104001 1.139e-22)
(8.02244 0.0951369 -8.26606e-24)
(8.00283 0.00399766 7.29111e-23)
(8.00261 0.00309195 -1.40408e-23)
(8.0024 0.000871012 -2.4493e-24)
(8.00232 0.00162848 -2.91928e-24)
(8.00167 0.000268929 5.62319e-23)
(8.0003 -0.000845789 -7.26818e-23)
(8.00269 0.00440316 -5.61143e-24)
(7.99849 -0.00152938 -8.13845e-23)
(7.9969 -0.0016177 -3.03598e-24)
(7.98772 6.28385e-06 4.96902e-25)
(7.99366 -0.000663661 5.71407e-25)
(7.98677 0.000476784 0)
(7.99747 -0.00496976 9.93578e-25)
(8.05075 -0.00669086 6.22687e-21)
(8.00431 0.00688553 1.27513e-24)
(8.00372 0.0060788 0)
(8.00438 0.00759041 1.06535e-23)
(8.01819 0.0786109 1.17341e-23)
(8.01242 0.0767646 3.63879e-23)
(8.00656 0.0614394 -1.58815e-23)
(8.01912 0.0865639 1.6689e-23)
(8.00169 0.0505398 -1.87331e-22)
(7.99633 0.0442437 1.24564e-23)
(7.99711 0.0281585 -1.03766e-22)
(7.99961 0.0262884 -1.36082e-23)
(7.99841 0.0355093 -1.12015e-22)
(7.99647 0.03279 -7.02697e-24)
(7.9946 0.0381953 -1.45241e-23)
(8.00186 0.0229126 6.55392e-25)
(8.00075 0.0245906 3.32719e-23)
(8.00029 0.021642 8.55621e-23)
(8.00184 0.0186711 -3.9051e-23)
(8.00253 0.0151092 2.58435e-23)
(8.00148 0.0163074 -5.71743e-23)
(8.00285 0.0115697 5.19664e-24)
(8.00335 0.010544 -4.96912e-24)
(8.00126 0.0121303 1.04574e-22)
(8.00081 0.0144381 1.9189e-23)
(8.00442 0.00859915 -6.27471e-23)
(8.0041 0.00929847 9.11177e-24)
(8.13756 0.136623 0)
(8.15892 0.13301 5.43163e-24)
(8.26998 0.0908977 1.82381e-21)
(8.23779 0.108342 2.87457e-24)
(8.18231 0.127699 -1.92237e-23)
(8.20731 0.118698 5.93087e-24)
(8.2182 0.0645361 -8.56088e-22)
(8.30594 0.089709 -3.50483e-23)
(8.32185 -0.201271 0)
(8.36036 -0.0576747 1.11975e-22)
(8.32102 -0.0728369 0)
(8.08549 0.151676 -4.67924e-24)
(8.06482 0.143173 0)
(8.0401 0.125836 0)
(8.04224 0.136895 0)
(8.03592 0.127486 0)
(8.02363 0.116588 -6.60643e-24)
(8.12763 0.15686 7.26765e-24)
(8.01709 0.0952848 2.95696e-24)
(8.00232 0.00296405 2.93398e-24)
(8.00232 0.00237483 1.88188e-24)
(8.00177 0.000517602 1.87795e-24)
(8.00206 0.00189383 0)
(8.00168 0.00122058 -1.8738e-25)
(7.99969 -0.000611322 3.51824e-23)
(8.00287 0.00510343 0)
(8.00224 0.00412156 0)
(7.99677 -0.00134519 9.65227e-23)
(7.997 -0.00127868 -4.2861e-25)
(7.99599 -0.0011556 -2.52825e-26)
(7.98647 0.00246286 -2.32932e-26)
(7.99096 -6.84386e-05 -1.3296e-25)
(7.98777 0.00215606 -5.27722e-23)
(8.04659 -0.00568185 3.23658e-24)
(8.01661 0.000893782 1.38188e-24)
(8.00322 0.00594907 0)
(8.00388 0.00773534 -1.28279e-23)
(8.00561 0.0807268 9.02613e-24)
(8.00212 0.0744856 -7.05677e-24)
(7.99879 0.0646383 1.72162e-22)
(7.99844 0.0577585 -2.3808e-23)
(7.99855 0.053042 8.41928e-24)
(7.99625 0.0492371 7.89257e-24)
(7.99365 0.046556 0)
(7.99201 0.0438246 2.80072e-24)
(7.99444 0.0298441 6.87715e-23)
(7.9935 0.0275478 -7.34311e-23)
(7.99764 0.0245406 2.20772e-24)
(7.99151 0.0319036 -1.38369e-23)
(7.99081 0.0405461 -2.3532e-23)
(7.98982 0.037132 4.40762e-23)
(7.99704 0.0216417 1.89967e-22)
(7.99846 0.0203877 8.80689e-24)
(8.00049 0.0175276 3.64125e-24)
(7.99947 0.0188564 6.26172e-25)
(7.99917 0.0164805 6.66318e-24)
(8.00229 0.00972959 6.31492e-24)
(7.99951 0.0129244 -1.32034e-22)
(7.99961 0.0118896 2.17303e-23)
(7.99936 0.0139202 1.05266e-23)
(7.99867 0.0147392 -2.88433e-24)
(8.1732 0.148375 6.24026e-24)
(8.22836 0.131124 7.44922e-25)
(8.27402 0.0816423 -4.55729e-21)
(8.23073 0.0478161 -1.75132e-23)
(8.32443 0.103721 6.96538e-21)
(8.31876 0.119137 -2.17383e-23)
(8.28952 0.144361 1.32188e-20)
(8.71209 -0.181965 1.10474e-22)
(8.29301 0.0221187 0)
(8.41619 -0.0654172 0)
(8.08941 0.173199 0)
(8.07889 0.164359 0)
(8.06847 0.156955 0)
(8.0546 0.15116 1.17777e-23)
(8.04205 0.14868 1.24379e-23)
(8.03943 0.144916 0)
(8.0359 0.136806 0)
(8.03053 0.13041 0)
(8.02509 0.12663 0)
(8.01851 0.119762 0)
(8.12254 0.179234 1.04815e-22)
(8.14536 0.17399 6.3398e-24)
(8.013 0.104486 5.93324e-23)
(8.00822 0.0949709 5.34723e-22)
(8.00213 0.0032655 1.26177e-24)
(8.00188 0.0026352 -1.31403e-23)
(8.00194 0.00189324 -4.33657e-25)
(8.00156 0.000710423 -5.4832e-24)
(8.00146 0.000352197 -1.20535e-23)
(8.00131 0.000902473 1.53671e-24)
(8.00058 -0.000110898 1.80213e-23)
(7.99936 -0.000594792 1.79273e-24)
(8.00164 0.00378058 3.96911e-24)
(7.99817 -0.00109519 8.65933e-23)
(7.99733 -0.00101125 -3.20313e-25)
(7.99458 -0.00117578 -1.27119e-25)
(7.99603 -0.000524965 3.09084e-25)
(7.99344 -0.000698216 -2.40536e-23)
(7.99037 0.00358592 2.42865e-22)
(7.99 1.47981e-05 8.22318e-25)
(8.04788 -0.00351319 -7.60942e-21)
(7.98922 0.00634281 -1.17851e-22)
(8.00341 0.00681299 4.6408e-24)
(8.00282 0.00589785 -9.68562e-24)
(8.00308 0.00769534 -7.98235e-25)
(8.00378 0.0877605 1.90779e-23)
(7.99313 0.0821967 0)
(7.99797 0.0703559 -4.19654e-23)
(7.99031 0.0742366 2.24265e-22)
(7.99097 0.0662693 -2.66826e-23)
(7.99277 0.0558737 0)
(7.99044 0.0487006 0)
(7.98663 0.0423216 1.67512e-23)
(7.99417 0.025163 1.3806e-22)
(7.99012 0.0264728 3.94945e-23)
(7.99521 0.0231839 -2.05643e-23)
(7.98809 0.0342136 -4.86558e-23)
(7.98567 0.0314975 4.07547e-22)
(7.98386 0.0361568 -1.40246e-23)
(7.99249 0.0218464 1.64218e-23)
(7.99692 0.0191894 2.31164e-22)
(7.99769 0.0155142 5.24349e-23)
(7.99627 0.0165313 1.79327e-22)
(8.00024 0.0101532 -3.46126e-23)
(8.00119 0.0088516 1.16106e-24)
(7.9977 0.0135133 -1.29252e-23)
(7.9994 0.0109633 2.60769e-22)
(7.99778 0.0118997 6.60159e-23)
(7.99627 0.0148101 -1.27284e-24)
(8.16565 0.169434 8.23306e-25)
(8.18807 0.164867 5.42849e-22)
(8.2149 0.159162 1.77713e-24)
(8.24559 0.151846 -3.78912e-22)
(8.32843 0.104684 -2.18485e-21)
(8.26539 0.0694305 0)
(8.28033 0.147155 3.20499e-25)
(8.32507 0.14777 0)
(8.30878 -0.0253965 1.05609e-22)
(8.10092 0.232079 -2.2702e-20)
(8.86882 -0.335601 -7.82098e-23)
(8.43772 -0.0552071 0)
(8.10353 0.183766 6.83446e-24)
(8.08112 0.194779 0)
(8.06705 0.171236 0)
(8.04222 0.162162 -4.2823e-22)
(8.03513 0.146461 6.34945e-24)
(8.02259 0.132453 -3.52162e-24)
(8.01386 0.115877 1.90834e-23)
(8.01052 0.125914 -8.44328e-25)
(8.11787 0.19665 1.35838e-24)
(8.16001 0.189609 0)
(8.00331 0.112361 -4.94608e-22)
(7.99591 0.0956303 -6.72266e-22)
(8.00176 0.00204955 2.27797e-23)
(8.00149 0.00233459 -1.2925e-24)
(8.00165 0.00162173 -6.72105e-24)
(8.00121 0.000132625 1.85188e-24)
(8.00122 0.00112473 -5.44048e-24)