/*--------------------------------*- C++ -*----------------------------------*\
| =========                 |                                                 |
| \\      /  F ield         | OpenFOAM: The Open Source CFD Toolbox           |
|  \\    /   O peration     | Version:  v2012                                 |
|   \\  /    A nd           | Website:  www.openfoam.com                      |
|    \\/     M anipulation  |                                                 |
\*---------------------------------------------------------------------------*/
FoamFile
{
    version     2.0;
    format      ascii;
    class       volVectorField;
    location    "6";
    object      ddtCorrDdt0(U);
}
// * * * * * * * * * * * * * * * * * * * * * * * * * * * * * * * * * * * * * //

dimensions      [0 1 -2 0 0 0 0];


internalField   nonuniform List<vector> 
11941
(
(4.92347e-06 1.11649e-05 4.30035e-24)
(9.30182e-06 2.89061e-05 -1.43242e-24)
(1.58587e-05 2.81595e-05 -5.80749e-24)
(1.7511e-05 6.25134e-05 1.9006e-25)
(3.23673e-06 7.56994e-06 0)
(1.69814e-05 5.475e-05 2.66591e-24)
(6.47905e-06 5.08583e-06 -1.15154e-23)
(1.39781e-05 6.51206e-05 1.05365e-24)
(1.98682e-05 6.34948e-05 -2.43135e-24)
(5.90059e-06 3.26552e-05 1.15328e-25)
(2.84659e-05 6.26411e-05 0)
(1.93314e-05 1.8873e-05 4.91099e-24)
(2.15347e-05 7.85547e-05 -1.18389e-24)
(9.96327e-06 5.14238e-05 1.40042e-24)
(2.61454e-05 6.15174e-05 0)
(4.82275e-07 8.58545e-06 -8.87122e-25)
(2.93635e-05 5.62197e-05 0)
(1.82885e-05 3.07114e-05 0)
(2.6016e-05 6.87896e-05 0)
(1.35247e-05 7.8307e-05 1.76753e-25)
(1.43252e-05 7.0655e-05 1.73749e-25)
(3.11439e-05 6.16276e-05 0)
(6.31086e-06 3.59147e-05 8.71627e-25)
(2.98538e-05 5.65938e-05 1.14196e-23)
(3.74855e-05 6.24529e-05 0)
(1.42212e-05 4.25376e-06 0)
(2.63374e-05 7.46324e-05 0)
(7.65136e-06 7.56322e-05 2.5602e-25)
(8.23474e-06 6.4879e-05 -1.64188e-24)
(3.34219e-05 6.78e-05 0)
(1.32327e-06 1.50592e-05 -2.6084e-24)
(3.48798e-05 4.93727e-05 -4.34848e-24)
(3.44658e-05 5.18131e-05 0)
(2.32967e-05 4.35161e-05 9.43837e-24)
(2.21015e-05 7.77609e-05 3.84799e-25)
(1.65624e-05 7.58862e-05 4.31739e-25)
(1.37589e-06 8.40342e-05 -8.14965e-25)
(2.74884e-06 6.85558e-05 2.72111e-24)
(4.25927e-05 8.12308e-05 -7.62619e-24)
(-2.35886e-06 3.78318e-05 3.00428e-24)
(2.10388e-05 4.63691e-05 -6.27017e-25)
(3.95781e-05 5.62129e-05 -4.72601e-24)
(4.80732e-05 7.10207e-05 0)
(3.4459e-05 1.54306e-05 -1.64469e-23)
(2.92925e-05 0.000100949 -3.87683e-24)
(1.41657e-05 8.86372e-05 4.76876e-25)
(1.49605e-06 7.70365e-05 0)
(4.48155e-06 6.41198e-05 -6.35376e-25)
(6.58418e-05 0.000103818 -9.90466e-25)
(3.61099e-05 0.000117599 0)
(-2.35888e-08 2.15184e-06 4.3112e-24)
(6.15131e-07 6.0581e-05 9.92073e-25)
(2.67353e-05 3.45074e-05 0)
(4.72957e-05 4.47525e-05 -6.43243e-25)
(5.38644e-05 0.000105491 5.21454e-24)
(6.65804e-05 7.86361e-05 -2.46066e-24)
(4.04045e-05 -1.13814e-05 1.45998e-23)
(2.88205e-05 0.000130361 2.50317e-24)
(2.08156e-05 0.000132006 7.70195e-25)
(2.85867e-06 8.61339e-05 -7.99853e-25)
(3.1168e-06 7.89904e-05 0)
(6.3457e-05 0.000136918 5.97383e-24)
(4.60166e-05 0.000148279 -1.34622e-23)
(-7.70424e-07 4.28214e-05 -6.91473e-24)
(-5.17653e-07 5.83275e-05 3.68492e-24)
(3.22508e-05 3.49427e-05 0)
(5.538e-05 4.36228e-05 6.42711e-25)
(6.94262e-05 0.000156574 -8.09937e-24)
(8.13228e-05 8.16262e-05 2.35888e-24)
(0.000104579 0.000145817 1.07347e-23)
(2.667e-05 -8.61527e-06 0)
(4.04772e-05 0.000184446 3.45975e-24)
(1.3857e-05 0.000146681 6.28032e-26)
(-3.16927e-06 0.000108897 0)
(-9.8688e-06 7.80962e-05 -4.82558e-24)
(0.000103436 0.000205357 -1.08859e-23)
(6.19008e-05 0.000203316 3.35648e-24)
(-3.38375e-06 1.66982e-05 1.98827e-24)
(-8.78563e-06 6.23876e-05 -4.59278e-24)
(4.31257e-05 3.68619e-05 0)
(4.93204e-05 3.84457e-05 0)
(8.94968e-05 0.000206353 1.68758e-23)
(7.74183e-05 8.7677e-05 0)
(0.000125673 0.000155136 1.56892e-24)
(3.67884e-05 3.2229e-05 -4.85177e-24)
(2.92854e-05 0.000227702 -4.17563e-24)
(3.95835e-06 0.000133042 0)
(2.35534e-05 0.000229064 3.31943e-25)
(-1.01669e-05 0.000100031 1.20752e-23)
(-1.06662e-05 7.3562e-05 -3.02227e-24)
(8.54765e-05 0.00022258 1.19761e-23)
(-1.35839e-05 4.06646e-05 0)
(-1.11118e-05 6.36281e-05 6.00724e-24)
(3.92254e-05 3.91355e-05 -9.48502e-24)
(6.4148e-05 6.61119e-05 -1.94022e-23)
(0.000123775 0.00025213 -1.98778e-24)
(0.000112104 0.000122605 9.99251e-24)
(0.000173151 0.000230222 -2.09953e-23)
(5.35304e-05 -2.34924e-05 -7.18923e-24)
(5.77933e-05 0.000280658 3.64663e-24)
(-6.45732e-06 0.00019083 2.52774e-24)
(1.54881e-05 0.000233257 1.01357e-24)
(-2.0606e-05 0.000108855 -1.09744e-23)
(-1.49167e-05 8.42804e-05 1.01566e-23)
(8.53199e-05 0.000272748 -6.54758e-24)
(-5.07595e-06 1.02043e-05 0)
(-1.63795e-05 5.77168e-05 -5.01659e-24)
(5.63605e-05 1.44314e-05 1.02695e-23)
(7.59537e-05 7.05252e-05 8.30735e-24)
(0.00014114 0.000317473 -4.11103e-25)
(0.0001258 0.000143841 1.94224e-24)
(0.000202428 0.000259868 3.27613e-23)
(4.46446e-05 1.71542e-05 -5.42752e-24)
(5.91219e-05 0.000369952 -3.53268e-24)
(-1.96348e-05 0.000197699 -5.65969e-24)
(7.06684e-06 0.000289452 0)
(-2.70509e-05 0.000146845 3.03322e-24)
(-2.90217e-05 9.50148e-05 0)
(-2.06956e-05 7.29027e-05 -5.80121e-24)
(0.000130936 0.000318462 1.29681e-23)
(-1.21159e-05 2.98858e-05 -2.30577e-24)
(-1.73155e-05 6.28328e-05 6.68234e-24)
(3.25213e-05 1.95245e-05 7.9912e-24)
(6.55346e-05 4.2285e-05 -1.9974e-24)
(0.000113077 0.000112458 -1.28327e-24)
(0.000204248 0.000400056 -1.21627e-23)
(0.000144564 0.00035485 -1.58928e-23)
(0.000161271 0.000181072 -6.99329e-24)
(0.000202025 0.000250047 0)
(0.000247134 0.000355048 -3.25299e-23)
(6.26749e-05 -4.65165e-05 1.30705e-24)
(9.95412e-05 0.0004696 0)
(3.10314e-05 0.00038435 -1.40576e-24)
(-2.64576e-05 0.000284011 1.01972e-23)
(-1.72536e-05 0.000312587 -6.68391e-24)
(-4.93504e-05 0.000190701 -9.07839e-24)
(-3.84769e-05 0.000110255 0)
(-1.94345e-05 6.70115e-05 8.99096e-25)
(0.000157242 0.000494348 0)
(-1.60371e-05 6.3081e-05 -1.75208e-23)
(-4.90269e-06 6.26174e-06 2.10276e-24)
(4.52116e-05 9.11501e-06 2.68103e-24)
(0.000101402 4.84832e-05 -7.27996e-24)
(0.000131425 0.000109633 -1.78303e-24)
(0.00025653 0.000416641 1.06191e-23)
(0.000224621 0.000516009 6.76223e-24)
(0.000173491 0.000492196 0)
(0.000202766 0.000199496 -3.17213e-23)
(0.000255903 0.000305406 0)
(0.000300929 0.000367852 -1.592e-23)
(2.27651e-05 -7.04461e-05 -1.44063e-23)
(8.12441e-05 0.000573982 -2.03753e-24)
(1.33981e-05 0.000468983 -8.76151e-25)
(-4.95654e-05 0.000272883 -1.22165e-24)
(-2.50307e-05 0.000433317 1.00423e-23)
(-7.99401e-05 0.000198233 0)
(-4.5059e-05 0.000125939 0)
(-3.06951e-05 7.44184e-05 -1.21065e-24)
(-2.16341e-05 5.80614e-05 1.04974e-23)
(0.000174778 0.00053873 0)
(-1.45109e-05 5.77883e-05 1.93419e-23)
(-1.32121e-05 3.35816e-05 -8.49328e-24)
(8.46276e-05 1.93575e-05 5.21057e-24)
(0.000108991 5.75953e-05 9.86869e-24)
(0.000131363 9.25535e-05 0)
(0.000181305 0.000173185 -2.07684e-24)
(0.000327768 0.000516036 2.02111e-23)
(0.000272456 0.000595207 -4.49928e-25)
(0.000275737 0.000266117 2.69245e-23)
(0.000349462 0.00040918 -2.37947e-23)
(2.18244e-05 8.07789e-05 1.39302e-23)
(0.000117277 0.000682386 7.078e-24)
(3.73089e-05 0.000568969 -1.85262e-24)
(-7.69071e-05 0.000328365 9.39447e-24)
(-5.00836e-05 0.000484824 -4.99354e-24)
(-8.34206e-05 0.00022065 0)
(-5.24743e-05 0.000126876 1.48171e-23)
(-3.91526e-05 7.73524e-05 1.27178e-23)
(-2.14333e-05 5.95044e-05 -9.65314e-24)
(0.000212379 0.000642892 -2.20566e-23)
(-2.42004e-05 4.0271e-05 -9.99503e-24)
(8.10014e-05 1.68649e-05 0)
(0.000104676 4.58402e-05 -1.54176e-23)
(0.000162009 8.76957e-05 0)
(0.000219355 0.000181715 1.66837e-23)
(0.000317505 0.000615707 -1.17977e-23)
(0.000395211 0.000524359 -3.33443e-23)
(0.000278839 0.000682464 2.60657e-23)
(0.000339592 0.000311125 4.23134e-23)
(0.000367257 0.000374331 -4.52367e-23)
(0.000395202 0.00048655 5.82337e-23)
(0.00015484 -3.20589e-05 -5.75876e-24)
(4.21635e-05 5.38141e-05 -1.12896e-23)
(9.35835e-05 0.000782854 -5.65793e-24)
(0.000180837 0.00071535 7.81797e-24)
(1.48563e-05 0.00066018 2.82976e-24)
(-0.000101131 0.000290826 7.12237e-25)
(-8.684e-05 0.000429377 -1.76984e-23)
(-5.23954e-05 0.000585434 1.01545e-23)
(-6.87403e-05 0.000202725 -4.04324e-25)
(-4.93945e-05 0.000105114 -1.3236e-23)
(-3.4342e-05 6.38745e-05 -1.55018e-23)
(-2.99757e-05 5.55294e-05 3.3733e-24)
(-2.46909e-05 4.54848e-05 -9.06788e-25)
(-9.73454e-06 2.20204e-06 3.48278e-25)
(7.56144e-05 2.96481e-05 2.10114e-23)
(0.000142306 5.60755e-05 0)
(0.000209679 0.000109328 0)
(0.000283356 0.000217346 0)
(0.000371063 0.000680014 1.66007e-23)
(0.000446255 0.000599483 -8.70179e-24)
(0.00032282 0.000769152 2.40806e-23)
(0.000352131 0.000296462 -4.22367e-23)
(0.000447844 0.000409392 4.81793e-23)
(0.000454704 0.000493443 -3.63834e-23)
(8.76104e-05 -0.000159328 1.35171e-23)
(3.51427e-05 -4.60425e-06 0)
(0.000121812 0.00088454 -2.51808e-24)
(5.01777e-05 0.000767909 2.13857e-25)
(0.000225874 0.000828147 3.90756e-24)
(-1.98768e-05 0.000666678 0)
(-0.000139463 0.000363911 0)
(-0.000137227 0.000486931 2.19168e-23)
(-0.000111409 0.000645236 -1.09463e-23)
(-0.000110923 0.000204587 1.29857e-23)
(-6.80883e-05 0.000107555 0)
(-3.90345e-05 6.07785e-05 0)
(-2.5471e-05 4.55333e-05 -1.14243e-23)
(-2.84797e-05 4.8872e-05 8.53196e-24)
(-2.36554e-05 2.38963e-05 -1.54872e-23)
(8.41657e-05 4.50345e-07 -1.36222e-23)
(0.000136121 5.03766e-05 -1.36435e-23)
(0.000223788 0.000125583 0)
(0.000309401 0.000187481 0)
(0.000437574 0.000647306 3.38278e-23)
(0.000393034 0.000782471 -3.8189e-23)
(0.000501018 0.000600449 4.7436e-23)
(0.00029646 0.000844177 1.28931e-23)
(0.000429193 0.000281571 2.64923e-23)
(0.000503327 0.000400821 -4.70417e-23)
(0.000513081 0.000530628 3.65894e-23)
(5.09464e-05 -1.25492e-05 -4.67305e-24)
(3.56386e-05 -9.12807e-07 0)
(0.000194948 0.000898549 4.96095e-24)
(9.56097e-05 0.000962106 3.12497e-24)
(2.41799e-05 0.000850668 1.2875e-25)
(-5.58975e-05 0.000782457 9.54981e-24)
(-0.000168667 0.000370905 5.25204e-24)
(-0.000153304 0.000460117 0)
(-0.000158768 0.000614804 0)
(-0.000127409 0.000757188 0)
(-8.07487e-05 0.000122125 -1.63284e-23)
(-0.000125999 0.000229756 0)
(-5.26593e-05 7.11354e-05 -8.26796e-24)
(-3.10153e-05 4.59705e-05 8.72138e-24)
(-3.15852e-05 4.24671e-05 7.3686e-24)
(-1.51662e-05 5.70823e-06 0)
(0.000105531 2.09002e-05 1.09161e-23)
(0.000167198 6.88891e-05 1.60757e-23)
(0.000208032 0.00010789 0)
(0.000271304 0.000145218 0)
(0.000374432 0.000186994 1.80269e-23)
(0.000472316 0.000724382 -3.70732e-23)
(0.000445974 0.000805593 1.57592e-23)
(0.000554651 0.000638682 -6.27582e-23)
(0.000343036 0.000916701 -1.55621e-23)
(0.000494357 0.000321864 3.63349e-23)
(0.000434039 0.000231362 -4.78331e-23)
(0.000567338 0.000447818 0)
(0.000575214 0.000510009 -4.79658e-23)
(0.000102049 -0.000140609 -4.47016e-24)
(8.71754e-05 -2.48505e-05 -5.89219e-24)
(0.000233758 0.000994239 -6.02955e-24)
(0.000115295 0.00103527 -4.47254e-24)
(5.2489e-05 0.000945308 -3.27736e-25)
(-3.39537e-05 0.000845177 -9.54664e-24)
(-0.000227822 0.000453978 -8.99866e-24)
(-0.000165993 0.000304277 0)
(-0.000177152 0.00055916 1.97984e-23)
(-0.000191586 0.00066075 0)
(-0.000175149 0.00081803 -9.58017e-24)
(-9.55521e-05 0.000117735 0)
(-0.000140303 0.00019006 3.76096e-23)
(-5.77734e-05 6.34181e-05 8.10836e-24)
(-3.8862e-05 4.25652e-05 7.79409e-24)
(-2.68117e-05 4.10761e-05 0)
(-2.25741e-05 3.02711e-05 0)
(0.00013478 -2.7683e-05 -1.0408e-23)
(0.000174957 5.4403e-05 -2.15564e-24)
(0.000234893 8.51329e-05 1.47774e-23)
(0.000280251 0.000117103 0)
(0.000376929 0.00011679 4.32229e-23)
(0.000560514 0.000741939 0)
(0.000472746 0.000845605 0)
(0.00061632 0.000591376 0)
(0.000316007 0.00100398 0)
(0.000432193 0.000931683 0)
(0.000570687 0.00028268 2.69418e-23)
(0.000476544 0.000189221 -5.94911e-23)
(0.000631253 0.000413667 -4.0908e-23)
(0.000616391 0.000554654 5.38282e-23)
(1.37679e-07 -8.47381e-05 1.21719e-23)
(0.000191405 0.00104629 0)
(7.78913e-05 0.00116252 7.17876e-24)
(1.14868e-05 0.00099038 -2.96536e-25)
(-8.16015e-05 0.000933143 0)
(-0.000280778 0.000463179 0)
(-0.000255924 0.000567208 -1.83637e-23)
(-0.000217025 0.000323763 -1.44471e-23)
(-0.00023109 0.000704134 -2.45935e-23)
(-0.000227874 0.000822133 5.17784e-23)
(-0.000148784 0.000911269 0)
(-6.97619e-05 7.70206e-05 0)
(-0.000114898 0.000148693 -2.37266e-23)
(-0.000190445 0.00025816 0)
(-4.25157e-05 3.97906e-05 -7.80749e-24)
(-3.2638e-05 3.35821e-05 0)
(-2.76927e-05 3.05419e-07 0)
(0.000143219 5.10758e-06 2.15576e-23)
(0.000216395 6.97639e-05 -1.13813e-23)
(0.000152873 3.31443e-05 -1.94751e-23)
(0.000326127 9.33978e-05 -1.08203e-23)
(0.000432887 0.000110476 -2.49812e-23)
(0.000605074 0.000745631 -3.54653e-23)
(0.000571759 0.000868403 -7.55891e-23)
(0.000653784 0.000667327 0)
(0.00034672 0.00111939 5.29777e-24)
(0.00047566 0.00102441 -2.28032e-24)
(0.000589637 0.000219491 7.12226e-25)
(0.000628602 0.000339781 -3.4484e-23)
(0.000543164 0.000180097 3.99544e-23)
(0.000705769 0.000442651 -3.66732e-23)
(0.000672794 0.000542458 4.89066e-24)
(7.33629e-05 6.86311e-05 9.85135e-24)
(0.000205703 0.00117823 0)
(0.00014351 0.00121832 -7.28474e-24)
(1.92524e-05 0.00111839 0)
(-5.54703e-05 0.000996433 5.05644e-25)
(-0.000341583 0.000557032 2.60314e-23)
(-0.000274981 0.000405125 1.20335e-23)
(-0.000295758 0.000626027 0)
(-0.000276974 0.000737161 -1.8132e-23)
(-0.000265864 0.00088147 -1.40409e-23)
(-0.000195101 0.000979672 0)
(-6.40671e-05 6.83331e-05 8.07034e-24)
(-0.000106537 0.000127081 -2.2836e-23)
(-0.000205309 0.000252129 -9.41921e-24)
(-4.39497e-05 3.55116e-05 0)
(-2.37946e-05 3.45204e-05 0)
(-2.34787e-05 2.97451e-05 0)
(0.000104116 2.07854e-05 -1.13418e-23)
(0.000239754 4.81796e-05 7.45034e-24)
(0.000179166 1.00458e-05 2.90646e-24)
(0.000302863 6.2565e-05 -3.72841e-24)
(0.00045712 4.15552e-05 0)
(0.000619904 0.000800723 6.64045e-23)
(0.000613999 0.000938196 6.57679e-23)
(0.000732202 0.000665029 -4.06167e-23)
(0.000291943 0.00120317 -5.88672e-24)
(0.000431456 0.0011379 2.25061e-24)
(0.000556664 0.00101221 0)
(0.000659612 0.000167974 -2.8997e-23)
(0.000702543 0.000311566 -1.73491e-24)
(0.000547144 5.99622e-05 -4.57236e-23)
(0.000760174 0.000422235 8.73502e-23)
(0.000730831 0.000579351 5.23603e-23)
(0.000127006 -0.00019791 -3.80676e-24)
(8.18645e-05 0.00124929 1.35052e-23)
(-3.96488e-05 0.00118324 8.01668e-24)
(-7.5084e-05 0.00105557 -8.16939e-24)
(-0.000414901 0.000590697 -7.23387e-23)
(-0.000310411 0.000415675 0)
(-0.00031815 0.000698609 0)
(-0.000305922 0.000822788 1.98093e-23)
(-0.000308984 0.000959836 2.40822e-23)
(-0.000251825 0.00100619 0)
(-0.000168921 0.0010521 6.90369e-24)
(-8.22288e-05 7.92209e-05 9.03873e-24)
(-4.78752e-05 3.78557e-05 7.80201e-24)
(-0.000140102 0.000150832 0)
(-0.000168992 0.000195399 0)
(-0.000279521 0.000310746 1.14912e-23)
(-3.13252e-05 2.40553e-05 1.45728e-23)
(-3.85121e-05 -1.02795e-05 1.10903e-23)
(0.000107869 -1.55838e-05 0)
(0.000217723 6.06983e-06 -6.64631e-24)
(0.000152453 -1.3777e-05 -1.21657e-23)
(0.000310489 2.43488e-05 1.95472e-23)
(0.000444696 5.47717e-06 2.13883e-23)
(0.000724224 0.000804133 1.4117e-23)
(0.000695087 0.000930713 -1.13574e-22)
(0.000793931 0.000687933 1.36715e-23)
(0.000283648 0.00127932 -3.12761e-23)
(0.000507577 0.00120805 2.55103e-23)
(0.000646387 0.00111 0)
(0.000678205 7.78334e-05 2.92275e-23)
(0.000712031 0.000218241 1.34365e-22)
(0.000781075 0.000344175 0)
(0.000616245 3.89184e-05 3.47467e-23)
(0.000776085 0.000525259 0)
(0.000798485 0.000408314 -4.43495e-23)
(0.000136543 -5.54841e-05 4.16856e-24)
(0.000161622 0.00132157 -2.02511e-23)
(1.92179e-05 0.00122456 -1.24778e-24)
(-0.000101342 0.00125388 -1.35282e-23)
(-0.000439006 0.000680139 6.5695e-23)
(-0.000421508 0.00055786 4.84504e-23)
(-0.000382525 0.000475608 -2.4231e-23)
(-0.000404402 0.000731922 -6.20653e-25)
(-0.000378106 0.000852399 5.76974e-23)
(-0.000379137 0.00095911 -6.11027e-23)
(-0.000288287 0.00106397 -3.55146e-23)
(-0.000172937 0.00115766 2.17323e-23)
(-7.30671e-05 7.04787e-05 0)
(-4.14404e-05 3.09789e-05 -2.26871e-23)
(-0.00011555 0.000105272 8.91741e-24)
(-0.000197247 0.000165398 1.40398e-24)
(-0.000308171 0.000338113 0)
(-2.63738e-05 2.99544e-05 0)
(-2.8851e-05 2.78117e-05 0)
(0.000227687 -3.93418e-06 2.93602e-24)
(0.000158118 -6.84589e-05 2.37341e-23)
(0.000282559 -2.01907e-05 2.33666e-23)
(0.000367094 -1.93433e-05 -1.81837e-23)
(0.000483994 -0.000119027 2.34815e-23)
(0.000796626 0.000757494 5.01155e-23)
(0.000754815 0.000926422 9.29085e-23)
(0.000723653 0.00106054 2.74435e-23)
(0.000842103 0.00061324 -3.61182e-23)
(0.00035072 0.0013157 4.00899e-23)
(0.000460905 0.00128287 -3.39717e-23)
(0.000582363 0.00117642 0)
(0.000757574 5.05662e-05 -9.95535e-24)
(0.00078976 0.000191251 -1.45048e-22)
(0.000837195 0.000265877 -1.08406e-22)
(0.000640834 -8.55951e-05 0)
(0.000846024 0.000513119 3.65616e-25)
(0.000874932 0.000413899 3.55498e-23)
(0.000177941 -0.000237595 5.74778e-24)
(0.000152718 0.00147501 2.85321e-23)
(-6.70201e-05 0.00123929 9.09779e-24)
(-2.63935e-05 0.00144032 0)
(-0.000509731 0.000680229 2.85351e-23)
(-0.000489926 0.000565486 -4.30088e-23)
(-0.000416628 0.000409233 0)
(-0.000420333 0.000819707 -6.90614e-23)
(-0.00046049 0.000992688 -2.34316e-23)
(-0.000364452 0.00105193 4.45253e-23)
(-0.000258963 0.00120394 -2.66218e-23)
(-8.08884e-05 7.44599e-05 0)
(-5.32334e-05 3.86076e-05 0)
(-0.000135236 0.000117159 -8.61308e-24)
(-0.000231119 0.000215504 1.85905e-23)
(-0.000363853 0.000359841 0)
(-0.000323159 0.000253546 -6.03093e-23)
(-3.29225e-05 1.1341e-05 0)
(-5.12872e-05 -2.57659e-05 -1.05476e-23)
(0.000202567 -5.40122e-05 -2.17633e-23)
(0.000253649 -2.51016e-05 -1.50575e-23)
(0.000167319 -6.1193e-05 -1.06006e-23)
(0.000281027 -0.000118736 6.26006e-24)
(0.000342906 -0.000132699 -3.60128e-23)
(0.000465173 -0.00014347 -4.39834e-23)
(0.000871708 0.000797105 -7.75405e-23)
(0.000864267 0.000933798 -8.55799e-24)
(0.000809689 0.00111277 0)
(0.000935511 0.000610532 4.35739e-23)
(0.000355829 0.00142204 -2.05997e-23)
(0.000541896 0.00135534 5.42537e-24)
(0.000659761 0.00122906 -3.06239e-23)
(0.000754345 -7.1437e-05 8.42066e-24)
(0.00080398 9.7179e-05 3.08097e-23)
(0.000844523 0.0002316 7.90672e-23)
(0.000886374 0.000339651 7.49534e-23)
(0.0006887 -9.98811e-05 0)
(0.000885863 0.000472077 5.76227e-24)
(8.2081e-05 0.0015487 -2.37648e-24)
(0.000245238 0.00153466 -2.92691e-23)
(-0.000120106 0.00125131 0)
(-0.000120208 0.00145642 4.60043e-24)
(-0.000540316 0.000789635 8.50189e-23)
(-0.000558693 0.000637893 -6.81672e-23)
(-0.000504885 0.000426575 2.50669e-25)
(-0.000535651 0.000590165 4.72561e-23)
(-0.000501708 0.000820658 -2.86344e-23)
(-0.000441086 0.00105044 4.06585e-23)
(-0.000509863 0.000921967 0)
(-0.000395801 0.00120414 -1.2001e-23)
(-0.000327068 0.00124169 4.12696e-23)
(-7.20069e-05 4.22923e-05 0)
(-5.2585e-05 1.98366e-05 0)
(-0.000129914 0.000101056 0)
(-0.000224423 0.000175658 1.065e-24)
(-0.000376299 0.000326732 -7.30794e-23)
(-2.07839e-05 1.95325e-05 -1.42063e-23)
(-3.39636e-05 2.60069e-05 7.69649e-24)
(0.000209211 -7.29585e-05 8.84409e-24)
(0.000243458 -3.85712e-05 0)
(0.000205375 -0.000263894 4.86466e-24)
(0.000280261 -0.000160005 -1.68012e-23)
(0.000383689 -0.000174748 4.01779e-23)
(0.000493717 -0.000285073 -7.92312e-24)
(0.00090394 0.000880694 -1.32053e-22)
(0.000946404 0.000735846 6.25186e-23)
(0.000892121 0.00107891 1.43079e-23)
(0.000787637 0.0011842 7.28878e-23)
(0.0010152 0.000535921 1.5254e-23)
(0.000422351 0.00149998 -1.26708e-24)
(0.000531671 0.00149232 -7.25393e-24)
(0.000630557 0.00132449 3.07436e-23)
(0.000872387 -6.94551e-05 2.38062e-23)
(0.000820713 -0.00013412 0)
(0.000901119 8.06591e-05 3.11131e-24)
(0.000901052 0.000209196 -3.33668e-23)
(0.000971095 0.000272006 -1.18105e-22)
(0.000674233 -0.000225205 0)
(0.000974599 0.000471368 -6.01182e-23)
(1.72602e-05 0.00165057 -2.25152e-24)
(0.000339778 0.00165936 -4.26416e-23)
(-0.000238028 0.00127816 -2.87054e-23)
(-0.000247234 0.00156668 -1.1987e-23)
(-0.000604868 0.000785642 -1.84375e-23)
(-0.000613703 0.000692038 0)
(-0.000554342 0.000429517 -6.63748e-23)
(-0.000575783 0.000563229 -4.12358e-23)
(-0.000474245 0.00110811 0)
(-0.000598157 0.000947817 -5.17441e-23)
(-0.000465594 0.00125913 2.75929e-23)
(-7.56492e-05 4.72705e-05 -1.89405e-24)
(-9.85813e-05 5.76626e-05 2.13518e-24)
(-0.000169432 0.000106623 8.6902e-25)
(-0.000266765 0.000183492 0)
(-0.000410726 0.000328576 3.86801e-23)
(-2.22826e-05 2.91414e-05 1.31354e-23)
(-6.17978e-05 -4.99177e-05 -7.18275e-24)
(0.000231686 -9.29185e-05 -7.54551e-24)
(0.000235204 -9.37559e-05 -8.01989e-24)
(0.000259293 -4.04102e-05 -4.21634e-24)
(0.000256279 -0.000215798 6.98625e-24)
(0.000357818 -0.000251361 -2.04411e-23)
(0.00060131 -0.000294983 -2.26485e-23)
(0.000422983 -0.00036922 1.52558e-23)
(0.00101809 0.000927311 7.61129e-23)
(0.00106095 0.000762308 -3.68071e-23)
(0.000998783 0.00111345 0)
(0.000806655 0.00131377 -8.09803e-23)
(0.00103587 0.000528881 8.52347e-23)
(0.00106432 0.000701372 -1.71664e-23)
(0.000378917 0.00170837 2.76211e-23)
(0.000665806 0.00159452 8.23355e-24)
(0.000781473 0.00142459 -8.62477e-23)
(0.000942436 -7.75049e-05 0)
(0.00077653 -0.000213313 0)
(0.000929315 9.54001e-05 7.59671e-23)
(0.000955254 0.00024379 7.04608e-23)
(0.000985703 0.000362367 7.46727e-23)
(5.73275e-05 0.00169436 1.45226e-23)
(-0.000139867 0.00165828 1.8682e-23)
(0.000221273 0.00170315 2.69854e-23)
(-0.000275466 0.00134641 2.91054e-23)
(-0.000337215 0.00151479 1.41079e-23)
(-0.000685555 0.000822807 0)
(-0.000683755 0.000648095 4.64504e-23)
(-0.000579033 0.000390077 6.18394e-23)
(-0.000595007 0.000492775 0)
(-0.000648017 0.000591473 4.86659e-23)
(-0.000592087 0.00110306 0)
(-0.000649061 0.00104321 0)
(-0.000684594 0.000889401 5.53335e-23)
(-0.000502588 0.00130337 -4.13148e-23)
(-4.2666e-05 2.4682e-05 0)
(-0.000111757 3.12292e-05 0)
(-0.000158742 9.3674e-05 3.51253e-25)
(-0.000341667 0.00020138 6.32107e-24)
(-0.000238312 0.000120033 -1.84417e-23)
(-0.000479538 0.000318134 1.7929e-23)
(-3.59329e-05 5.82412e-06 0)
(0.000228031 -0.000136975 0)
(0.000217988 -0.000110487 0)
(0.000295482 -0.000412607 4.80652e-24)
(0.000275725 -0.000273583 -1.10513e-23)
(0.000187621 -0.000204953 -1.27629e-23)
(0.000311004 -0.00028756 8.87975e-24)
(0.000666751 -0.000456011 0)
(0.000396977 -0.000433126 1.03605e-23)
(0.00105348 0.0010208 1.23533e-23)
(0.00111381 0.000809883 4.47098e-23)
(0.00102006 0.00122202 -1.17388e-23)
(0.000973403 0.00130835 0)
(0.00112444 0.000500497 -1.41558e-22)
(0.00121152 0.000690184 -4.1266e-23)
(0.000458695 0.00179002 0)
(0.000634611 0.00172778 0)
(0.000764916 0.00156582 7.61848e-23)
(0.000950707 -0.000149445 0)
(0.00100125 -3.11132e-05 4.56059e-23)
(0.000870848 -0.000274821 3.92231e-23)
(0.000952953 7.84946e-05 -1.04204e-22)
(0.000984721 0.000220037 -6.74646e-23)
(0.00105733 0.000294189 -1.04864e-22)
(2.89308e-05 0.00175337 -7.81197e-24)
(-0.000185849 0.00171276 -7.35999e-24)
(0.000205098 0.00183344 1.74431e-23)
(-0.000424664 0.00131935 -1.14084e-23)
(-0.00042574 0.00162773 -1.47179e-23)
(-0.000764007 0.000743523 0)
(-0.000776256 0.000652685 -4.44451e-23)
(-0.000644065 0.000384164 0)
(-0.000543819 0.000344883 0)
(-0.000658112 0.000472279 0)
(-0.000670767 0.000539223 -5.89919e-23)
(-0.000631601 0.0011946 0)
(-0.000726496 0.00104096 -1.26796e-23)
(-0.000735533 0.000924993 1.10209e-23)
(-0.000580213 0.00127832 4.44806e-23)
(-5.91573e-05 1.34043e-05 0)
(-0.000123836 5.15171e-05 2.09421e-23)
(-0.000174216 9.16067e-05 0)
(-0.000383609 0.00017112 2.22388e-23)
(-0.000252789 0.000105739 3.5201e-23)
(-0.00046125 0.000223787 0)
(-7.46371e-05 -6.47382e-05 0)
(0.000260486 -0.000170565 0)
(0.000348564 -0.000109662 0)
(0.000212842 -0.000327952 1.28503e-23)
(0.00018753 -0.000219829 1.33304e-23)
(0.000304123 -0.000412223 9.23806e-24)
(0.00054357 -0.000521986 -1.94755e-23)
(0.000818706 -0.000450873 -3.82531e-23)
(0.000430992 -0.000527341 0)
(0.00122196 0.00105598 -5.86917e-23)
(0.00118019 0.000887003 -1.26942e-23)
(0.00114657 0.00123706 -1.32464e-22)
(0.00102459 0.00147488 7.62608e-24)
(0.00120324 0.000574455 2.09723e-23)
(0.0011396 0.000395575 0)
(0.00130135 0.000752324 -1.0992e-22)
(0.000477066 0.00184838 4.46207e-23)
(0.000665872 0.00180344 1.82252e-23)
(0.000914328 0.00160231 4.75153e-23)
(0.000952216 -0.000247473 3.87172e-23)
(0.00101799 -0.000158214 0)
(0.00100279 4.2088e-05 4.95719e-23)
(0.00102912 -5.36984e-05 -6.5219e-23)
(0.00104286 0.000184529 -7.74026e-23)
(0.00107796 0.000241008 1.39789e-23)
(-3.5526e-05 0.0018494 -2.32619e-24)
(-0.000168636 0.00175204 -5.22963e-24)
(-0.000335518 0.00167913 -1.92777e-23)
(0.000343188 0.00188625 0)
(9.80823e-05 0.00193809 -2.17282e-23)
(-0.000437431 0.00146755 -4.88602e-23)
(-0.000472297 0.00168992 4.19987e-23)
(-0.000858851 0.000761102 -3.24853e-23)
(-0.000790259 0.00062879 3.10996e-23)
(-0.000682367 0.000443946 4.25523e-23)
(-0.000698039 0.000319319 2.95113e-23)
(-0.000612833 0.000250891 -3.15312e-23)
(-0.000752549 0.000534499 1.28063e-22)
(-0.000722192 0.00115711 0)
(-0.000797822 0.00105859 -2.78663e-23)
(-0.000855993 0.000883644 4.67334e-23)
(-0.000650766 0.00133259 -5.18585e-23)
(-3.5103e-05 -3.41175e-05 1.49848e-23)
(-0.000117879 3.07361e-05 0)
(-0.000142771 5.29752e-05 0)
(-0.000374489 0.000130202 1.03081e-23)
(-0.000316244 9.93934e-05 -3.85661e-23)
(-0.000207332 4.32517e-05 3.48625e-23)
(-0.000513448 0.000178455 0)
(-5.30916e-05 -9.61983e-06 0)
(0.000219222 -0.000207977 -5.24599e-24)
(0.00041497 -0.000491948 -4.16694e-24)
(0.000193016 -0.000410739 5.27158e-24)
(0.000154185 -0.000290135 1.21023e-23)
(0.000249254 -0.000453911 -5.98562e-24)
(0.000589937 -0.000705751 2.07286e-23)
(0.000876905 -0.000600339 0)
(0.000334355 -0.000601078 0)
(0.00121958 0.0011142 1.25601e-22)
(0.00130492 0.000857953 2.24724e-22)
(0.00122762 0.00134693 7.0572e-23)
(0.00121695 0.00144391 -6.79876e-23)
(0.00128761 0.00049944 5.93608e-23)
(0.00122643 0.000339592 4.50335e-23)
(0.0013801 0.000694879 3.38478e-23)
(0.000532662 0.00190741 -7.1975e-23)
(0.000810145 0.00171672 0)
(0.000883275 0.00168924 -5.33633e-23)
(0.00101463 -0.000342893 -4.62216e-23)
(0.00110746 -0.000124836 0)
(0.00107654 -0.000288663 3.72537e-23)
(0.00105683 4.82642e-05 0)
(0.00107773 -1.03e-05 4.1367e-23)
(0.00106079 0.000114154 0)
(0.00119146 0.000203225 2.03233e-22)
(-8.76486e-05 0.00197667 2.69631e-25)
(-0.000149509 0.00187514 3.69015e-25)
(-0.000397434 0.00179264 2.20622e-23)
(0.000330433 0.00204938 -1.80197e-23)
(8.12797e-05 0.0020989 1.48157e-24)
(-0.000627945 0.00147321 4.76923e-23)
(-0.000613075 0.00172392 -5.42673e-23)
(-0.000905757 0.000694945 -1.61574e-24)
(-0.000879533 0.000607403 1.58051e-22)
(-0.000750403 0.000423804 -4.64743e-23)
(-0.000690011 0.000255733 -4.89508e-23)
(-0.000736678 0.000342639 -3.44126e-24)
(-0.000585222 0.000185885 3.25371e-23)
(-0.000792797 0.000437365 -5.48819e-23)
(-0.00078176 0.00127614 0)
(-0.000907324 0.00104381 -3.443e-23)
(-0.000909431 0.000959335 -2.9315e-23)
(-0.000743806 0.00136688 0)
(-7.50794e-05 4.98494e-05 -3.1906e-23)
(-9.65178e-05 3.45185e-05 8.16315e-24)
(-0.000155141 4.88852e-05 -1.57353e-23)
(-0.000429857 7.91351e-05 -1.58596e-24)
(-0.000300206 3.46008e-05 -8.72793e-24)
(-0.000218447 3.09048e-05 3.41124e-24)
(-0.000494147 0.000100242 2.14081e-23)
(-5.35705e-05 -0.000121295 -4.51367e-24)
(0.000225784 -0.000236537 4.74302e-24)
(0.00037522 -0.000186231 6.76783e-24)
(0.000134929 -0.000414619 -1.02812e-23)
(0.000141575 -0.000321961 0)
(0.000251924 -0.000545478 0)
(0.000457722 -0.00079765 0)
(0.000733135 -0.00070096 2.48636e-23)
(0.000977653 -0.000595506 8.46648e-23)
(0.000310598 -0.00074288 0)
(0.00132211 0.00107698 -2.14077e-23)
(0.00145447 0.000928868 -1.45992e-22)
(0.00136533 0.00141618 -1.68579e-22)
(0.0012029 0.00159421 9.47522e-23)
(0.00140791 0.000587413 -1.66603e-22)
(0.00130429 0.000414838 -1.20165e-22)
(0.00124514 0.000250215 -1.78987e-22)
(0.00151634 0.000790999 1.15141e-22)
(0.000643297 0.00206176 -7.06343e-23)
(0.000820375 0.00194718 4.83612e-23)
(0.000973559 0.00174787 0)
(0.00103314 -0.000454825 -7.54652e-23)
(0.00112855 -0.000140152 1.70464e-23)
(0.00117461 -0.000242538 -2.60486e-23)
(0.00110507 3.08683e-05 0)
(0.00111549 -4.44018e-05 -4.02453e-23)
(0.00112527 0.00012193 -1.24308e-22)
(0.00116736 0.000152669 6.53285e-23)
(-0.000105256 0.00212152 0)
(-0.000315962 0.00191153 -2.08661e-23)
(-0.000495547 0.00186225 3.15124e-23)
(0.000450988 0.00205163 3.13623e-23)
(0.000151338 0.00213002 -1.36168e-23)
(-4.3382e-05 0.0022178 0)
(-0.000675815 0.0016481 0)
(-0.00104388 0.000810381 0)
(-0.000984595 0.000660908 0)
(-0.000944701 0.000604298 -1.79199e-22)
(-0.000862984 0.000434357 -6.22178e-23)
(-0.000734983 0.000205669 1.85517e-23)
(-0.000804114 0.00033142 4.41091e-23)
(-0.000627922 7.97406e-05 3.77696e-24)
(-0.000952874 0.00123276 0)
(-0.000955771 0.0011131 7.59535e-23)
(-0.0010082 0.000906304 3.22297e-23)
(-0.000818567 0.00149047 5.09179e-23)
(-4.71387e-06 -0.000108612 1.45026e-23)
(-8.04301e-05 1.64436e-05 0)
(-0.000129755 1.0915e-05 -1.72243e-23)
(-0.000412055 1.17107e-05 -2.18752e-23)
(-0.000248517 -1.81349e-06 -2.24114e-23)
(-0.000351474 -1.56439e-05 -5.69192e-24)
(-0.000185188 -1.47238e-07 -3.58389e-24)
(-0.000545494 2.75487e-05 -3.5456e-24)
(0.000403213 -0.000521953 -1.82646e-24)
(0.000154515 -0.000425401 -8.0968e-24)
(0.000119943 -0.000501999 -3.76563e-24)
(0.000157954 -0.000371736 0)
(0.00018352 -0.000573705 -4.91353e-24)
(0.000424973 -0.00100319 -1.26654e-23)
(0.000797733 -0.000997018 -4.06787e-23)
(0.00115343 -0.000778241 7.08473e-25)
(0.000183146 -0.00075546 0)
(0.00143473 0.00103326 0)
(0.0014777 0.000896636 0)
(0.00153646 0.00142131 2.10906e-22)
(0.00125955 0.00164243 0)
(0.00152589 0.000553073 2.25692e-22)
(0.00139872 0.000362122 -4.13874e-23)
(0.00136057 0.000209694 3.6642e-22)
(0.00159561 0.000530039 -7.4944e-23)
(0.000535846 0.00205931 0)
(0.000869182 0.00205699 0)
(0.00108206 0.00187183 0)
(0.00122321 -0.000469805 0)
(0.00120308 -0.000150461 -3.784e-23)
(0.00129554 -0.000362269 2.15737e-23)
(0.00111836 -1.47804e-05 -1.01893e-22)
(0.00113599 -3.06034e-05 0)
(0.00116574 7.10609e-05 1.06728e-22)
(0.00124879 0.000100853 4.09387e-23)
(-0.000221377 0.00215495 0)
(-0.000381806 0.00204403 1.58224e-23)
(-0.000564583 0.0018978 0)
(0.000397582 0.00236028 1.10219e-23)
(0.000291412 0.00232458 2.88292e-23)
(1.60891e-05 0.00243248 -6.06935e-24)
(-0.000806749 0.00168633 0)