/*--------------------------------*- C++ -*----------------------------------*\
| =========                 |                                                 |
| \\      /  F ield         | OpenFOAM: The Open Source CFD Toolbox           |
|  \\    /   O peration     | Version:  v2012                                 |
|   \\  /    A nd           | Website:  www.openfoam.com                      |
|    \\/     M anipulation  |                                                 |
\*---------------------------------------------------------------------------*/
FoamFile
{
    version     2.0;
    format      ascii;
    class       surfaceVectorField;
    location    "6";
    object      ddtCorrDdt0(Uf);
}
// * * * * * * * * * * * * * * * * * * * * * * * * * * * * * * * * * * * * * //

dimensions      [0 1 -2 0 0 0 0];


internalField   nonuniform List<vector> 
18781
(
(6.90782e-06 2.18043e-05 1.26359e-24)
(9.56175e-06 1.97597e-05 3.10816e-23)
(1.32179e-05 4.55911e-05 -1.86549e-24)
(6.46822e-06 1.8614e-05 -7.34169e-25)
(1.64452e-05 3.99956e-05 -2.02886e-24)
(1.14445e-05 1.79507e-05 -8.46603e-24)
(1.60522e-05 6.21777e-05 1.4993e-23)
(1.92155e-05 6.3499e-05 -1.05046e-24)
(4.65695e-06 2.00032e-05 5.7971e-26)
(1.87087e-05 5.7738e-05 -8.82182e-24)
(2.23548e-05 5.75955e-05 1.16359e-24)
(1.05124e-05 1.16065e-05 -2.72055e-23)
(1.58125e-05 7.24235e-05 1.74938e-23)
(1.27006e-05 5.89562e-05 -1.93585e-23)
(2.4371e-05 6.19677e-05 -1.09725e-24)
(7.92915e-06 4.29788e-05 1.60384e-24)
(3.41586e-06 2.13372e-05 -2.61786e-24)
(2.23151e-05 4.29464e-05 2.44893e-24)
(2.99156e-05 6.0142e-05 0)
(1.73968e-05 2.17111e-05 2.75301e-24)
(2.2241e-05 7.27334e-05 -5.97123e-25)
(1.74403e-05 7.85574e-05 -5.58991e-25)
(1.18374e-05 6.21257e-05 7.61185e-25)
(2.58325e-05 6.64247e-05 0)
(2.85057e-05 6.16576e-05 0)
(3.37807e-06 2.16323e-05 -2.63138e-24)
(2.96196e-05 5.6347e-05 6.13769e-24)
(3.28287e-05 5.88104e-05 0)
(2.49902e-05 4.43414e-05 6.09788e-24)
(1.56828e-05 2.17571e-05 0)
(2.75963e-05 7.14043e-05 0)
(1.46718e-05 7.43327e-05 3.76796e-24)
(1.17616e-05 7.6313e-05 2.11476e-25)
(1.11367e-05 6.66795e-05 1.46442e-23)
(3.39398e-05 6.07645e-05 0)
(3.26153e-05 6.47673e-05 0)
(7.34052e-06 5.0973e-05 -4.35109e-25)
(4.08551e-06 2.61167e-05 -8.11904e-25)
(3.17743e-05 5.28733e-05 1.2188e-23)
(3.61883e-05 5.7374e-05 0)
(1.45095e-05 2.00349e-05 4.57854e-24)
(3.1417e-05 7.37913e-05 0)
(2.58039e-05 7.386e-05 1.72137e-25)
(1.25914e-05 7.57799e-05 3.4513e-25)
(3.97148e-06 8.0383e-05 7.24926e-25)
(5.35841e-06 6.67611e-05 -1.34111e-24)
(3.87299e-05 7.47632e-05 -4.00489e-24)
(-2.70814e-07 2.69672e-05 -1.34626e-23)
(2.83506e-05 4.68455e-05 -1.37463e-24)
(3.75945e-05 5.24819e-05 -8.67317e-24)
(3.73747e-05 5.45924e-05 -2.73778e-24)
(4.0757e-05 6.27395e-05 0)
(2.23922e-05 4.48497e-05 4.08788e-24)
(2.89232e-05 2.9921e-05 -2.42874e-23)
(1.89372e-05 7.6174e-05 4.08301e-25)
(2.51567e-05 9.03222e-05 -3.56038e-25)
(1.53308e-05 8.24085e-05 6.47387e-25)
(2.12371e-06 7.68728e-05 1.35398e-24)
(1.29293e-06 8.11392e-05 -4.54756e-25)
(3.48716e-06 6.52773e-05 5.52893e-24)
(5.32712e-05 9.18734e-05 -1.631e-23)
(3.77902e-05 0.000104219 -3.33188e-24)
(-7.83968e-07 2.00085e-05 3.67824e-24)
(2.28063e-08 4.88752e-05 2.0071e-24)
(2.52866e-05 4.06715e-05 -3.05698e-25)
(4.35149e-05 5.03618e-05 -2.64236e-24)
(5.04474e-05 9.11126e-05 2.80151e-24)
(6.08566e-05 7.68752e-05 -1.36069e-24)
(4.23188e-05 6.35736e-06 6.31381e-23)
(3.2114e-05 0.000108993 -1.65111e-24)
(2.92619e-05 0.000115382 5.29375e-24)
(1.64832e-05 0.000110147 6.23192e-25)
(9.95707e-06 8.9835e-05 -4.14804e-23)
(7.73719e-07 8.11664e-05 -3.6735e-25)
(3.07692e-06 7.8993e-05 0)
(1.73106e-06 6.18026e-05 1.45694e-25)
(1.61895e-06 7.231e-05 -3.23797e-25)
(5.95137e-05 0.000102542 -2.75737e-23)
(6.49831e-05 0.000122875 3.17787e-24)
(3.77313e-05 0.000133066 -6.82028e-24)
(-4.25717e-08 2.10852e-05 7.05044e-24)
(1.25959e-08 5.98298e-05 6.58162e-25)
(3.79386e-05 3.82959e-05 -3.22562e-25)
(2.78891e-05 3.16282e-05 0)
(4.90338e-05 4.41299e-05 -2.00149e-24)
(6.29682e-05 0.000132858 1.98726e-24)
(7.37048e-05 7.90496e-05 -3.9396e-24)
(8.48053e-05 0.000112364 4.07036e-24)
(2.25106e-05 -8.25728e-06 8.36752e-24)
(2.48797e-05 0.000130683 5.65004e-24)
(3.58341e-05 0.000157358 2.97701e-24)
(1.7952e-05 0.000139031 -2.67458e-23)
(1.46236e-06 9.50005e-05 -4.30006e-25)
(-3.08933e-06 7.70923e-05 -2.3928e-24)
(5.67558e-05 0.000146367 4.27417e-23)
(8.00671e-05 0.000165571 -9.18676e-25)
(5.65013e-05 0.000170136 8.71181e-23)
(-1.17824e-06 5.04066e-05 -1.58666e-24)
(-1.99339e-06 3.10457e-05 -5.00421e-24)
(-4.25313e-06 6.01627e-05 5.20585e-24)
(2.99296e-05 1.60419e-05 0)
(4.31904e-05 3.65141e-05 0)
(6.74323e-05 6.35121e-05 1.49979e-24)
(5.33437e-05 4.27775e-05 3.24852e-25)
(8.68173e-05 0.00015356 8.96401e-25)
(7.90785e-05 0.000175634 3.75429e-23)
(7.94169e-05 8.48025e-05 1.13993e-24)
(0.000111468 0.000148963 4.75929e-23)
(2.81498e-05 1.11874e-05 -2.6839e-24)
(5.22937e-05 0.000194784 3.40267e-24)
(3.40218e-05 0.00020594 3.00123e-23)
(9.80267e-06 0.000142376 3.43273e-26)
(1.8728e-05 0.000184746 6.965e-26)
(-8.66398e-07 0.00012269 0)
(-7.08456e-06 0.000102927 5.96309e-24)
(-7.71172e-06 7.17144e-05 -4.71234e-24)
(-1.06454e-05 7.62091e-05 3.50457e-24)
(9.55128e-05 0.000202325 -5.66754e-23)
(9.40526e-05 0.000216923 4.23065e-25)
(7.12551e-05 0.000211737 -8.6468e-24)
(-8.20055e-06 2.84458e-05 9.85226e-25)
(-9.51719e-06 6.18252e-05 6.8635e-25)
(4.61438e-05 3.80492e-05 0)
(4.07921e-05 3.68883e-05 -4.8262e-24)
(5.49792e-05 5.20204e-05 -9.3332e-24)
(0.000103685 0.000227802 1.47812e-23)
(7.11119e-05 7.92369e-05 -8.91542e-24)
(9.36258e-05 0.000101658 4.24704e-24)
(0.000119055 0.000139689 5.69948e-24)
(0.000152784 0.000188057 -8.37803e-23)
(4.04599e-05 3.41792e-05 -7.2197e-24)
(4.53943e-05 9.03802e-06 1.56416e-23)
(2.52748e-05 0.000226247 3.59587e-23)
(4.07532e-05 0.000254226 -1.8174e-25)
(-3.67557e-07 0.000161148 1.24827e-24)
(2.00957e-05 0.000230156 -1.57957e-23)
(-1.02935e-05 8.50406e-05 1.21077e-24)
(-1.62844e-05 0.000105494 -3.74992e-23)
(-1.26639e-05 8.02694e-05 1.271e-23)
(9.10223e-05 0.000240418 -9.36677e-23)
(-9.2144e-06 2.47647e-05 0)
(-1.41463e-05 4.94061e-05 -2.54266e-24)
(-1.27902e-05 7.44884e-05 8.19131e-24)
(-1.36369e-05 6.06838e-05 5.05514e-24)
(4.68682e-05 2.74553e-05 -5.297e-24)
(6.80164e-05 6.70383e-05 -4.99855e-23)
(0.000150671 0.00024659 -1.17379e-23)
(0.000131868 0.000292775 -1.05799e-24)
(0.00011952 0.0001335 -3.1938e-24)
(0.000187324 0.000246311 -2.21236e-23)
(3.28118e-05 -4.5623e-06 -1.28027e-22)
(7.20325e-05 0.000280975 -1.22992e-24)
(6.11762e-05 0.000322304 -5.27085e-23)
(7.0346e-06 0.000214649 1.76924e-24)
(-1.22939e-05 0.000191951 1.52285e-23)
(1.32387e-05 0.000261905 4.85193e-25)
(-2.47638e-05 0.000129552 7.78988e-25)
(-2.45233e-05 0.000102693 -5.10006e-24)
(-1.64935e-05 7.7651e-05 2.90152e-23)
(0.000108512 0.000298213 4.50889e-24)
(-8.58703e-06 2.09575e-05 -1.31239e-24)
(-1.69826e-05 6.06214e-05 1.32109e-24)
(4.26176e-05 1.41547e-05 2.0659e-23)
(6.22926e-05 2.70512e-05 4.3598e-24)
(7.05136e-05 5.63103e-05 1.5936e-24)
(9.54969e-05 9.30647e-05 -1.18976e-24)
(0.000179129 0.000364726 -7.12746e-24)
(0.000143136 0.000340925 -1.03074e-23)
(0.000119419 0.000128121 3.24549e-25)
(0.000142531 0.000167422 5.66866e-23)
(0.000200655 0.000251195 1.4271e-23)
(0.000221769 0.000314502 9.69475e-23)
(4.0219e-05 1.72636e-05 3.1795e-23)
(5.60752e-05 -5.22875e-06 -2.20372e-24)
(8.52305e-05 0.000424454 -1.66186e-24)
(4.38076e-05 0.000378022 -2.37188e-24)
(-2.24039e-05 0.000175348 -1.66342e-24)
(-2.35918e-05 0.000242737 6.4227e-24)
(1.7665e-05 0.000335918 -7.00975e-25)
(-6.348e-06 0.000304571 -3.36581e-24)
(-4.03819e-05 0.000171608 -3.35532e-24)
(-2.66965e-05 8.35531e-05 -2.99041e-24)
(-3.28864e-05 0.000101019 0)
(-2.05513e-05 6.86898e-05 -2.37606e-24)
(0.000137818 0.00033793 1.6265e-23)
(0.000141382 0.000416298 6.02891e-24)
(-1.28154e-05 4.60719e-05 -9.65808e-24)
(-8.51566e-06 1.9641e-05 4.6614e-24)
(-1.64058e-05 6.4991e-05 -6.50067e-26)
(-1.71909e-05 6.15924e-05 1.76791e-23)
(3.86692e-05 1.39887e-05 5.27776e-24)
(8.69184e-05 4.72374e-05 -4.8983e-24)
(0.000122731 0.000111344 7.18418e-24)
(0.000225455 0.000405666 -2.29546e-24)
(0.000215361 0.000464223 -5.24059e-24)
(0.000161616 0.000433536 -6.77247e-24)
(0.000182108 0.000221907 -3.20762e-24)
(0.000183347 0.000191044 -3.25513e-23)
(0.000233067 0.000280137 0)
(0.000252191 0.000380742 1.63794e-23)
(0.0002827 0.000368209 -2.37465e-23)
(2.65997e-05 -5.77579e-05 2.60462e-23)
(0.000131194 0.000480843 0)
(8.74497e-05 0.000528642 -1.11546e-24)
(2.35614e-05 0.000427395 -4.25798e-23)
(-2.47739e-05 0.000295206 -7.19072e-23)
(-3.78398e-05 0.000280606 4.74898e-24)
(-2.43136e-05 0.000372199 -1.8991e-24)
(-4.62293e-05 0.00023451 -6.97257e-23)
(-6.49539e-05 0.000194185 -4.45688e-24)
(-3.92776e-05 0.000118095 0)
(-3.47376e-05 9.05136e-05 -6.4547e-25)
(-2.14618e-05 6.37996e-05 5.82625e-24)
(0.000165439 0.000517306 0)
(-1.5082e-05 6.01992e-05 -5.52745e-24)
(-7.4835e-06 1.84003e-05 -2.85506e-24)
(3.33475e-05 -2.60241e-05 -2.54543e-23)
(7.1572e-05 1.1834e-05 3.91258e-24)
(9.21703e-05 3.45644e-05 1.22525e-23)
(9.98772e-05 5.4213e-05 -1.91229e-23)
(0.000131061 9.7734e-05 -7.67142e-25)
(0.000161331 0.000139006 7.89354e-23)
(0.000296356 0.000476038 1.62597e-23)
(0.00019748 0.000503637 3.0986e-24)
(0.00024735 0.000554759 2.36367e-25)
(0.000173791 0.000514653 0)
(0.000193258 0.000183753 -1.90781e-23)
(0.000243915 0.000229408 9.18971e-23)
(0.000278947 0.000328011 -7.26538e-24)
(0.000266784 0.000292324 1.16215e-23)
(0.000320909 0.00039189 -7.40338e-23)
(1.66211e-05 -1.50663e-05 -1.16136e-22)
(0.000102789 0.000632188 1.36337e-23)
(6.00301e-05 0.000572991 -1.94688e-24)
(-3.04436e-06 0.000458077 6.34163e-23)
(1.81132e-05 0.000516568 -1.36085e-24)
(-5.74898e-05 0.000297123 -8.43376e-23)
(-3.27334e-05 0.000452985 1.04641e-22)
(-6.30801e-05 0.000162422 0)
(-8.37544e-05 0.000210739 0)
(-4.9763e-05 0.000128726 7.89435e-24)
(-2.50376e-05 6.63017e-05 6.92211e-24)
(-3.58978e-05 7.74565e-05 6.01901e-24)
(-2.12374e-05 5.93741e-05 -1.06736e-23)
(0.000193101 0.000588376 -1.0539e-23)
(-1.14017e-05 4.99051e-05 -6.88571e-23)
(-2.05588e-05 5.87147e-05 5.80101e-25)
(-1.7538e-05 3.31145e-05 -9.25764e-24)
(8.58854e-05 2.0531e-05 2.36055e-24)
(0.00012081 7.33084e-05 5.06499e-24)
(0.00010817 5.33798e-05 -2.88435e-23)
(0.000152048 9.21648e-05 0)
(0.000199548 0.000176711 -2.12479e-23)
(0.000322135 0.000570942 3.05147e-24)
(0.000365724 0.000521861 -4.07814e-23)
(0.000293337 0.000603682 -6.34111e-24)
(0.000276321 0.000640242 2.37339e-23)
(0.000299502 0.000285575 4.03985e-23)
(0.00036071 0.00039468 -3.43399e-23)
(0.000370764 0.000453022 -6.17698e-23)
(0.000104639 -1.86891e-07 1.76049e-24)
(4.83105e-05 5.44787e-05 -2.50353e-22)
(0.000101208 0.000743887 3.42663e-23)
(0.000148731 0.000696853 7.4587e-24)
(2.29334e-05 0.000621374 3.92043e-23)
(-8.83743e-05 0.000310274 4.9509e-24)
(-8.09359e-05 0.000381813 -4.8031e-24)
(-6.83522e-05 0.000457124 -1.04411e-23)
(-4.52062e-05 0.000548296 4.46603e-24)
(-9.69484e-05 0.000250895 3.3459e-25)
(-7.48636e-05 0.000215565 -1.98775e-25)
(-6.2916e-05 0.000161754 6.15859e-24)
(-5.08297e-05 0.000116673 -3.02418e-24)
(-4.41904e-05 9.0859e-05 9.30203e-26)
(-3.73378e-05 6.84355e-05 2.59965e-23)
(-2.50856e-05 5.56277e-05 -2.23698e-24)
(0.000253638 0.000669101 5.65302e-23)
(0.000196327 0.000679543 8.11211e-24)
(-2.58857e-05 4.36446e-05 -4.84097e-24)
(-1.52532e-05 2.23208e-05 3.77169e-23)
(6.20654e-05 3.4741e-05 -5.50704e-24)
(7.10702e-05 2.55421e-05 1.05484e-23)
(9.17775e-05 3.3732e-05 -3.2352e-23)
(0.000123516 5.06477e-05 -7.91514e-24)
(0.000152104 6.96489e-05 0)
(0.000179946 9.99099e-05 0)
(0.000214413 0.000145261 8.17178e-24)
(0.00024638 0.000201942 8.38231e-24)
(0.00034577 0.000654182 -1.29479e-23)
(0.000394238 0.000500668 -9.64999e-24)
(0.000422529 0.000568292 -1.93514e-23)
(0.000300109 0.000725105 2.50908e-23)
(0.000356794 0.000351703 -1.28228e-23)
(0.000344495 0.000302552 5.23128e-23)
(0.000413161 0.000389432 9.76375e-23)
(0.000429655 0.000490557 5.91501e-24)
(0.000123807 -9.38146e-05 5.0919e-23)
(3.61455e-05 2.4193e-05 -5.71364e-24)
(0.000110656 0.000840526 -7.53647e-24)
(7.13418e-05 0.000773255 3.2866e-24)
(0.00020493 0.000780237 6.02848e-25)
(3.80473e-05 0.000723276 3.83902e-23)
(-4.65808e-06 0.0006637 1.23832e-24)
(-0.000120617 0.000328855 3.39727e-25)
(-0.000119 0.000465058 5.07594e-23)
(-3.421e-05 0.000629943 4.73021e-24)
(-8.5112e-05 0.00061885 -3.8751e-23)
(-8.61364e-05 0.000199962 5.71092e-24)
(-5.87384e-05 0.000106102 -6.55976e-24)
(-3.21518e-05 5.99278e-05 -6.56864e-24)
(-3.72125e-05 6.36832e-05 -7.81124e-24)
(-2.76947e-05 4.99883e-05 -2.63133e-24)
(-2.44907e-05 4.59552e-05 -6.25257e-24)
(-2.66257e-05 4.65864e-05 3.20496e-24)
(-1.5829e-05 1.26932e-05 -8.16934e-24)
(8.2458e-05 1.86055e-05 -7.88244e-23)
(0.000140259 5.42357e-05 -5.81153e-24)
(0.000220739 0.000120102 0)
(0.000317041 0.000251792 -2.02589e-23)
(0.000300427 0.000204252 0)
(0.000405417 0.000662937 2.55399e-23)
(0.000383187 0.000727744 -1.09906e-23)
(0.000441741 0.000628748 6.5491e-24)
(0.000475496 0.000600046 2.11237e-23)
(0.000364366 0.000777934 -2.61841e-23)
(0.000308312 0.000810605 1.81242e-23)
(0.000394417 0.000288218 -6.61186e-24)
(0.000451314 0.000454948 3.90003e-25)
(0.000465492 0.000404224 4.77886e-24)
(0.000487172 0.00050867 4.87039e-23)
(4.00537e-05 -6.84512e-05 4.35783e-24)
(6.1459e-05 -3.35937e-06 -7.07946e-24)
(3.37822e-05 -7.20471e-06 0)
(0.000156465 0.000890482 1.06467e-24)
(0.000106444 0.000928393 5.70766e-25)
(3.63005e-05 0.000813462 1.6653e-25)
(0.000262057 0.000837723 8.35775e-24)
(0.000209342 0.000865794 4.48135e-24)
(-3.80117e-05 0.000731246 5.39723e-24)
(-0.000152002 0.000363262 2.61178e-24)
(-0.000143559 0.000429587 0)
(-0.000144886 0.000468811 1.07055e-23)
(-0.000146321 0.00055542 1.03322e-23)
(-0.000134122 0.000629793 -5.74909e-24)
(-0.000125641 0.000703374 -5.00377e-24)
(-9.66493e-05 0.000155973 5.51074e-23)
(-0.000114705 0.000216987 6.08582e-24)
(-7.15089e-05 0.000114084 -7.99986e-24)
(-6.07126e-05 8.78733e-05 -4.30608e-24)
(-4.41034e-05 6.53151e-05 -3.85376e-24)
(-3.58492e-05 5.19753e-05 4.54129e-24)
(-2.92252e-05 4.61433e-05 8.67433e-24)
(-2.54956e-05 3.69281e-05 -1.58849e-23)
(-3.17697e-05 4.66479e-05 2.65044e-23)
(-1.95284e-05 1.83164e-05 -8.71523e-24)
(8.90322e-05 9.65845e-06 -2.99765e-24)
(0.000121091 3.38234e-05 -1.04039e-24)
(0.000152121 6.06229e-05 -9.08074e-24)
(0.000214392 0.000112876 0)
(0.000243986 0.00013883 0)
(0.000288433 0.000156605 0)
(0.000345665 0.000187312 1.01207e-23)
(0.000461282 0.000683314 -5.28474e-23)
(0.000413341 0.000793502 -2.11648e-23)
(0.000506773 0.000568922 4.24305e-23)
(0.000526389 0.000626493 7.15965e-23)
(0.000325044 0.000882847 -2.23968e-23)
(0.000463332 0.000305317 3.17702e-23)
(0.000431854 0.000253797 -1.40877e-23)
(0.000499285 0.000366173 -1.53984e-23)
(0.000541953 0.000427383 -1.92111e-23)
(0.000544239 0.000519901 -7.13092e-24)
(5.29738e-05 -2.63805e-05 -2.5366e-24)
(0.000100775 -5.69415e-05 3.69491e-22)
(6.7341e-05 -1.42324e-05 -3.28585e-24)
(0.000219021 0.000950679 -1.08529e-23)
(0.000104252 0.00100454 1.05079e-23)
(7.32332e-05 0.000950852 1.40089e-24)
(4.16472e-05 0.000903564 -1.4246e-23)
(-4.72983e-06 0.000848186 -4.68362e-24)
(-8.88769e-05 0.000768634 5.13751e-24)
(-5.05625e-05 0.000809815 -8.42934e-23)
(-0.000204973 0.000423497 1.12826e-24)
(-0.000168489 0.000333775 2.59907e-24)
(-0.000169923 0.000512573 1.0308e-23)
(-0.00017837 0.000641283 0)
(-0.000147411 0.000784933 -4.56935e-24)
(-8.89803e-05 0.000122899 -8.22465e-24)
(-0.000143669 0.000269831 0)
(-0.000134505 0.000212544 1.98035e-23)
(-5.53604e-05 6.79565e-05 5.48146e-24)
(-3.4574e-05 4.52394e-05 8.31425e-24)
(-3.56484e-05 4.20817e-05 7.57611e-24)
(-2.92179e-05 4.08422e-05 3.78492e-24)
(-1.19156e-05 1.46958e-05 0)
(0.000122142 1.43732e-06 -7.41837e-23)
(0.000190396 9.39088e-05 6.558e-24)
(0.000169509 6.00199e-05 6.56752e-24)
(0.000223493 9.63059e-05 7.54358e-24)
(0.000275042 0.000130417 0)
(0.000400826 0.000209294 6.70333e-24)
(0.000376529 0.000155439 2.96625e-23)
(0.000461179 0.000767591 -3.13755e-23)
(0.000520879 0.000734787 -1.77318e-23)
(0.000462982 0.000821427 7.93149e-24)
(0.000556886 0.000684214 -3.19236e-23)
(0.000587442 0.000614431 -3.03173e-23)
(0.000327444 0.000968279 -6.80558e-24)
(0.000387945 0.000922947 -7.29203e-24)
(0.000538019 0.000299756 3.1155e-23)
(0.00046422 0.000207155 -5.4524e-23)
(0.000571433 0.000480895 -2.56905e-23)
(0.000598291 0.00043129 -1.97934e-23)
(0.000598985 0.000532662 3.38841e-23)
(3.07833e-05 -9.74661e-05 -4.49239e-22)
(0.000110049 -3.00516e-05 -7.76635e-24)
(4.73057e-05 -5.68266e-05 -5.42653e-23)
(0.000273214 0.000996286 -2.94416e-24)
(0.000208164 0.00102756 -2.53338e-24)
(0.000152462 0.00104262 -2.36519e-24)
(0.000100702 0.00109208 1.13233e-24)
(2.51113e-05 0.000975122 2.9639e-23)
(-5.8874e-05 0.000893788 -4.17961e-24)
(-0.000253603 0.000459755 -4.85323e-24)
(-0.000242319 0.000510556 -1.37263e-23)
(-0.000199121 0.000319409 -8.01959e-24)
(-0.000185589 0.000607738 9.87752e-24)
(-0.000214403 0.000561672 1.54282e-23)
(-0.000211997 0.000685551 -1.39324e-23)
(-0.000203833 0.000820343 2.4222e-23)
(-0.000155436 0.000877992 -3.80695e-24)
(-8.34091e-05 9.60565e-05 0)
(-0.000102074 0.000131338 -1.08505e-23)
(-0.000129628 0.00017044 4.29536e-23)
(-0.000165864 0.000223495 1.91372e-23)
(-6.28668e-05 6.97463e-05 4.22498e-24)
(-5.05553e-05 5.12686e-05 1.7088e-25)
(-3.93404e-05 4.06954e-05 1.22255e-23)
(-2.66868e-05 3.42448e-05 0)
(-3.2461e-05 3.86738e-05 0)
(-2.494e-05 1.4462e-05 0)
(0.000139252 -1.1691e-05 5.14527e-24)
(0.000198372 6.04016e-05 -6.92327e-24)
(0.000165628 4.45461e-05 -1.1073e-23)
(0.00025752 9.63951e-05 7.91179e-24)
(0.000227562 8.03957e-05 -1.54365e-23)
(0.000294532 0.000108722 -4.28382e-24)
(0.000354249 0.000106296 1.9403e-23)
(0.000406983 0.000113408 6.81577e-24)
(0.00057264 0.000748014 -1.72831e-23)
(0.000451142 0.000893361 0)
(0.00053292 0.00085916 -4.31427e-23)
(0.000618284 0.000579627 2.36074e-23)
(0.000637398 0.000626053 0)
(0.000335086 0.00106406 2.79429e-24)
(0.000452796 0.000989293 -1.34823e-24)
(0.000581078 0.000252263 1.39541e-23)
(0.000601645 0.000316539 1.87885e-23)
(0.000455886 0.000151714 -4.69295e-23)
(0.000502846 0.000189007 -1.1002e-22)
(0.000628816 0.000378555 -5.66337e-23)
(0.000676229 0.000431049 -3.83536e-23)
(0.000646007 0.000547976 2.56823e-23)
(4.91318e-05 -3.92697e-06 1.09746e-23)
(0.00020987 0.00111541 0)
(9.72489e-05 0.00118401 1.20069e-22)
(5.06436e-05 0.00114706 3.48945e-24)
(1.99894e-05 0.00105326 -1.53586e-25)
(-2.07055e-05 0.00098961 -3.94584e-24)
(-0.000113657 0.000921299 0)
(-6.51008e-05 0.000970395 2.8936e-25)
(-0.000317234 0.000512318 1.4183e-23)
(-0.000277689 0.000441705 5.05617e-24)
(-0.000269509 0.000597074 -8.69333e-24)
(-0.000205434 0.000293642 -7.98885e-24)
(-0.000239698 0.000361976 -3.3517e-23)
(-0.000227042 0.000768626 -4.1222e-23)
(-0.000256013 0.000722118 -2.11416e-23)
(-0.000249414 0.000856539 1.8359e-23)
(-0.00017936 0.000949143 0)
(-6.69879e-05 7.29567e-05 4.00896e-24)
(-0.000111028 0.000140013 -4.12757e-23)
(-0.0001966 0.000254956 -4.17488e-24)
(-4.34543e-05 3.89176e-05 -4.02509e-24)
(-3.84745e-05 3.43384e-05 0)
(-2.82324e-05 3.20058e-05 0)
(-1.46247e-05 1.09973e-05 0)
(0.000144091 2.26391e-05 1.45382e-22)
(0.000121404 1.87675e-05 2.19693e-24)
(0.000225781 6.03122e-05 -3.27487e-24)
(0.000172332 2.23691e-05 -7.34159e-24)
(0.000314331 7.7508e-05 -7.60369e-24)
(0.000442015 8.13593e-05 -1.44247e-23)
(0.000635155 0.000709489 -1.64633e-23)
(0.000614857 0.000764568 6.14928e-23)
(0.000592397 0.000834216 -3.21201e-23)
(0.000597189 0.000914906 -6.0628e-24)
(0.000693396 0.000666466 -1.88501e-23)
(0.000317658 0.00116598 4.31601e-24)
(0.000396103 0.00113301 3.68296e-24)
(0.000453855 0.00107622 2.38244e-24)
(0.00053028 0.00102097 -9.46069e-25)
(0.000566461 0.000194548 2.15882e-23)
(0.000627844 0.000191329 -1.57974e-23)
(0.000673794 0.000322663 3.32291e-23)
(0.000549413 0.000120925 -3.96009e-24)
(0.000687992 0.000497256 -1.40295e-23)
(0.000735733 0.000431283 3.62863e-23)
(0.00070082 0.000567018 3.0319e-23)
(9.76612e-05 3.45716e-05 -2.1477e-22)
(0.000110112 -5.00384e-05 3.01545e-24)
(0.000176844 0.00119085 -3.43085e-24)
(0.000236534 0.00118349 -2.60561e-24)
(0.000115305 0.0012328 3.19215e-24)
(-1.84997e-05 0.00116713 4.46146e-24)
(-6.50019e-05 0.00102998 -4.52635e-24)
(-0.000318371 0.000599396 1.23424e-23)
(-0.000371155 0.00057141 2.25054e-23)
(-0.000292919 0.000410344 5.87684e-24)
(-0.000312512 0.000657566 0)
(-0.000293877 0.000723386 -1.07382e-23)
(-0.000295692 0.000786472 1.92511e-23)
(-0.000286573 0.000849055 7.38712e-24)
(-0.000284355 0.000921342 4.71569e-24)
(-0.000219761 0.000989403 0)
(-0.000176987 0.00102671 4.06657e-24)
(-7.28218e-05 7.36697e-05 1.15082e-23)
(-5.66795e-05 5.21349e-05 7.93411e-24)
(-9.53009e-05 0.000100127 -4.13457e-23)
(-0.000123928 0.000139513 -1.06352e-23)
(-0.000188153 0.000215485 -4.4479e-24)
(-0.000246011 0.000284366 1.45406e-24)
(-4.36786e-05 3.59359e-05 3.90246e-24)
(-2.77956e-05 2.85565e-05 0)
(-3.10661e-05 3.04819e-05 7.34843e-24)
(-3.09466e-05 1.09757e-05 5.44484e-24)
(9.91247e-05 1.08049e-06 -5.94733e-24)
(0.000268281 5.42803e-05 2.44471e-24)
(0.000229335 2.8199e-05 1.75579e-24)
(0.000194014 1.04971e-05 -1.45953e-24)
(0.000165987 -2.88597e-06 9.98719e-25)
(0.000308568 4.36186e-05 1.38254e-23)
(0.000509287 5.08739e-05 -2.63732e-23)
(0.000453374 2.7336e-05 9.57004e-24)
(0.000681538 0.000802285 3.61694e-23)
(0.000583837 0.000971062 3.25221e-23)
(0.000652648 0.000934507 -2.9617e-23)
(0.000728381 0.000609537 -4.68316e-23)
(0.000762288 0.000681302 -1.11756e-23)
(0.000291424 0.00124348 -1.99201e-23)
(0.000467268 0.00117983 1.55892e-23)
(0.000597201 0.00107052 0)
(0.000672298 0.000128481 4.90699e-23)
(0.000687694 0.000198487 6.30518e-23)
(0.000705864 0.000264295 4.508e-23)
(0.000749432 0.000330721 -7.0077e-25)
(0.00057438 5.24899e-05 -6.08778e-23)
(0.000769111 0.000479947 3.87078e-23)
(0.000781064 0.000415915 1.00213e-23)
(0.000757802 0.00055219 2.56045e-23)
(9.96829e-05 -0.000111813 -3.16807e-22)
(0.000124076 0.00128799 4.03077e-23)
(4.2122e-05 0.00124671 5.05869e-24)
(-6.50017e-05 0.00111016 -3.95129e-25)
(-5.73431e-05 0.00120996 9.25688e-23)
(-0.000118657 0.00105546 6.07469e-24)
(-0.000428658 0.000641138 7.73857e-24)
(-0.000416489 0.000570133 -5.26344e-23)
(-0.00029546 0.000367301 5.44276e-24)
(-0.000347643 0.000451376 -1.39542e-23)
(-0.000366819 0.000717285 -3.44655e-25)
(-0.000338832 0.000836408 3.80867e-23)
(-0.000281781 0.00098065 1.2402e-23)
(-0.00035129 0.000965864 -8.9549e-23)
(-0.0002701 0.00104395 -2.2417e-23)
(-0.000180536 0.00110535 1.43571e-23)
(-7.68215e-05 7.16735e-05 4.18985e-24)
(-4.5112e-05 3.64998e-05 -2.42991e-23)
(-0.000147275 0.000173818 0)
(-0.000127904 0.000129026 4.43067e-24)
(-0.000188638 0.000184513 7.58198e-25)
(-0.000294856 0.000325767 4.54202e-24)
(-3.66997e-05 2.73567e-05 -9.31535e-24)
(-2.85008e-05 2.46449e-05 7.31581e-24)
(-1.94252e-05 4.76357e-06 5.46444e-24)
(0.000131266 -1.6892e-05 -5.57424e-24)
(0.000122687 -4.06221e-05 2.13597e-24)
(0.000223799 8.01398e-07 -1.3853e-24)
(0.000157167 -3.8272e-05 3.83564e-23)
(0.000291248 -7.33723e-06 2.17348e-23)
(0.000338011 3.88287e-06 5.51317e-23)
(0.000403818 -1.1413e-05 4.99436e-25)
(0.000467974 -6.17003e-05 -2.22823e-23)
(0.000758602 0.000779733 3.20466e-23)
(0.000742004 0.000870723 5.3074e-23)
(0.000730382 0.000938506 9.3473e-23)
(0.0007081 0.00101734 -7.65955e-23)
(0.000794958 0.000719998 2.51597e-23)
(0.000821051 0.000650304 -1.17932e-23)
(0.000215729 0.00130081 -2.64051e-23)
(0.000321765 0.00129993 1.90884e-23)
(0.000481078 0.00125107 6.94705e-24)
(0.000550297 0.00119186 1.13541e-23)
(0.000690185 0.00108635 1.45427e-23)
(0.000614952 0.00114313 0)
(0.000651997 6.0774e-05 3.15606e-23)
(0.000720809 6.43257e-05 7.41437e-24)
(0.000757672 0.000201361 -9.96049e-23)
(0.000788808 0.00037556 -2.35251e-23)
(0.000810632 0.000301258 -6.02249e-23)
(0.000629273 -1.92056e-05 1.82977e-23)
(0.000807787 0.000519595 1.64762e-25)
(0.000837915 0.000415911 1.37527e-24)
(0.000181893 -0.000111757 4.84636e-24)
(0.000159048 0.0013992 4.6802e-24)
(-2.18114e-05 0.00122975 -5.16919e-24)
(8.21908e-06 0.00134549 -5.30136e-25)
(-0.00013802 0.00120868 5.32368e-24)
(-8.6841e-05 0.00124476 2.72124e-23)
(-0.000420089 0.000709412 3.64488e-23)
(-0.000480604 0.000680196 4.39375e-23)
(-0.000401907 0.000516573 1.16119e-23)
(-0.000462381 0.000562408 -5.71806e-24)
(-0.000401941 0.000448479 -1.30253e-23)
(-0.000413809 0.000778246 -5.39266e-23)
(-0.000382351 0.000902493 -5.59136e-23)
(-0.000396789 0.000840012 -8.08936e-24)
(-0.000409835 0.000974402 -4.91598e-23)
(-0.000337629 0.00106141 8.28087e-23)
(-0.000275433 0.00112834 -3.09621e-23)
(-0.000221037 0.00118646 -5.26122e-23)
(-7.71252e-05 7.25209e-05 0)
(-6.28565e-05 5.43279e-05 0)
(-4.58106e-05 3.45977e-05 -1.03044e-23)
(-9.76522e-05 8.98554e-05 4.40045e-24)
(-0.000125237 0.000111117 1.85151e-25)
(-0.0001683 0.00013987 -3.48939e-24)
(-0.000208585 0.000185937 1.07355e-23)
(-0.000336213 0.00034859 0)
(-0.00031427 0.000296957 -2.71395e-23)
(-3.2882e-05 2.35398e-05 0)
(-3.37279e-05 2.23846e-05 0)
(-4.05375e-05 4.83403e-06 -5.19578e-24)
(0.000215358 -2.86016e-05 -8.57907e-24)
(0.000242804 -1.54622e-05 -6.03464e-24)
(0.000177465 -5.67428e-05 1.63534e-22)
(0.000162683 -6.8785e-05 6.41747e-24)
(0.00026655 -1.79892e-05 -6.65672e-23)
(0.000285754 -6.80156e-05 -2.16959e-23)
(0.000357866 -7.51805e-05 -2.72646e-23)
(0.000563097 -0.000102957 1.16373e-23)
(0.00047406 -0.000131958 -1.45988e-23)
(0.00084122 0.00077969 -3.53827e-23)
(0.000809719 0.000932769 6.9407e-23)
(0.000767715 0.00108285 1.4827e-23)
(0.000843444 0.000563966 -1.13458e-23)
(0.000899824 0.000606237 5.8175e-23)
(0.000407836 0.00130038 2.06535e-24)
(0.000341048 0.00139026 2.7396e-24)
(0.000505715 0.00132422 -1.25475e-23)
(0.000627738 0.00120704 -1.78592e-23)
(0.000750287 -5.84235e-06 -1.73005e-23)
(0.000784157 7.68278e-05 1.34871e-23)
(0.000798211 0.000143901 -4.72392e-23)
(0.000819225 0.000213458 -2.44902e-23)
(0.000846303 0.000255026 6.66801e-23)
(0.000863633 0.000305876 -1.00325e-23)
(0.000681082 -0.000101921 0)
(0.00087237 0.000494 -2.03169e-23)
(0.000885513 0.00037963 5.48584e-23)
(0.000878858 0.000434775 1.98744e-24)
(0.00013869 -0.000134817 5.68983e-22)
(0.00011579 0.00151592 9.09134e-24)
(0.000216692 0.00151804 -1.33106e-22)
(-0.00010314 0.00124952 3.90517e-24)
(1.68177e-05 0.00148424 -1.09095e-24)
(-7.37737e-05 0.00144833 2.32439e-24)
(-0.000525967 0.000740352 5.36314e-23)
(-0.000531451 0.000655054 3.82885e-23)
(-0.000497303 0.000508681 -2.42754e-23)
(-0.000514309 0.000576129 2.56998e-23)
(-0.000390236 0.000376862 0)
(-0.000468728 0.000417182 1.40614e-25)
(-0.000459058 0.000819855 -4.88305e-23)
(-0.000447834 0.00102903 3.41058e-24)
(-0.00048656 0.000961137 -1.19351e-23)
(-0.000395186 0.00104911 4.29425e-23)
(-0.000380202 0.00113393 1.43241e-23)
(-0.000281461 0.0012218 -6.89491e-24)
(-7.63716e-05 6.08788e-05 0)
(-5.35657e-05 3.19074e-05 0)
(-0.000131784 0.000107547 -4.59147e-24)
(-0.000284682 0.000246033 1.72119e-22)
(-0.000226463 0.000192404 -2.81043e-23)
(-0.000371737 0.000350416 -3.32108e-23)
(-0.00035622 0.000288288 -6.6655e-23)
(-4.36989e-05 1.57661e-05 0)
(-2.604e-05 1.215e-05 -7.42812e-24)
(-2.38931e-05 -9.88261e-07 -4.73759e-25)
(0.000203738 -6.40337e-05 -5.89208e-24)
(0.000244891 -3.57415e-05 -6.65244e-24)
(0.000216398 -0.000139877 5.00465e-22)
(0.000312302 -0.000129764 -1.44906e-23)
(0.000281057 -0.000140344 -1.78502e-23)
(0.000358567 -0.000150785 -1.61283e-22)
(0.000425517 -0.00015631 1.77183e-24)
(0.000477592 -0.000209875 -1.82074e-23)
(0.000889388 0.000843707 -1.06254e-22)
(0.000914955 0.00076399 -1.32365e-25)
(0.000887861 0.000910028 -9.25166e-23)
(0.000878975 0.00100465 7.72177e-24)
(0.000851117 0.00109633 7.11002e-24)
(0.000796894 0.00116152 4.20254e-23)
(0.000942203 0.000682969 4.54706e-23)
(0.000970579 0.000572512 2.86837e-23)
(0.000301811 0.00146586 -2.26347e-23)
(0.000392745 0.00146453 -6.76458e-24)
(0.000539812 0.00142287 -1.40008e-24)
(0.000595798 0.00134817 1.92352e-23)
(0.000713729 0.00119946 2.04914e-23)
(0.000645508 0.00127589 9.88661e-24)
(0.000819265 -7.67042e-05 1.67342e-23)
(0.000788057 -0.000108751 3.8549e-24)
(0.000853084 8.88328e-05 1.68066e-23)
(0.000877662 0.000218409 1.35449e-23)
(0.000921995 0.000311121 1.10632e-23)
(0.000758477 -0.000119169 0)
(0.000664966 -0.000166534 0)
(0.000928368 0.000475021 7.18255e-24)
(4.54111e-05 0.0016069 7.29704e-25)
(0.000285333 0.00160331 -1.75642e-24)
(-0.00014093 0.001348 2.49948e-24)
(-0.000174248 0.00126458 -1.31526e-23)
(-0.000170502 0.00150578 2.92702e-23)
(-0.000522211 0.000803499 2.89273e-23)
(-0.000577471 0.00078888 1.58662e-23)
(-0.000549189 0.000619874 -1.74439e-23)
(-0.000590886 0.000667002 -3.03738e-23)
(-0.000526053 0.000428033 -3.24126e-23)
(-0.000562933 0.00057403 -7.9038e-24)
(-0.000508586 0.000870608 -1.35029e-23)
(-0.000463054 0.00108199 1.7931e-23)
(-0.000568644 0.00093677 -2.99492e-23)
(-0.00036784 0.00122756 -9.0627e-24)
(-0.000425395 0.00122809 6.23022e-24)
(-0.000286732 0.00125583 -4.59814e-23)
(-6.02575e-05 3.0528e-05 0)
(-7.47643e-05 4.57638e-05 -9.26342e-25)
(-0.000114472 7.50019e-05 1.16029e-24)
(-0.000150344 0.000103941 4.43485e-25)
(-0.000194387 0.00013878 8.91127e-24)
(-0.000248173 0.000180187 5.53814e-25)
(-0.000385958 0.000324761 -1.62752e-22)
(-3.41569e-05 1.6897e-05 -2.44741e-24)
(-2.20588e-05 2.44539e-05 9.24093e-24)
(-4.96527e-05 -3.33899e-06 -6.67376e-23)
(0.000226486 -5.12566e-05 3.99584e-24)
(0.00022227 -7.8929e-05 -6.10956e-23)
(0.000245563 -6.71399e-05 -4.04633e-24)
(0.000198848 -0.000129145 1.10018e-25)
(0.000254906 -0.000122121 -3.55936e-23)
(0.000271856 -0.000186288 2.25807e-23)
(0.00037056 -0.000216357 6.99835e-24)
(0.000547686 -0.000296249 -1.03118e-22)
(0.000451856 -0.000336027 -4.72638e-23)
(0.000972104 0.000907282 -2.18955e-24)
(0.00100001 0.000752795 1.20436e-23)
(0.000942212 0.00109874 6.72538e-24)
(0.000810821 0.00124165 -1.17149e-22)
(0.00103492 0.000540597 4.53809e-23)
(0.00104091 0.000626203 1.77655e-24)
(0.000478256 0.0015088 -4.05712e-24)
(0.000407912 0.00160018 6.71705e-23)
(0.000597904 0.00154629 -3.45219e-24)
(0.000691348 0.00137818 -3.73684e-23)
(0.00089049 1.84464e-05 2.10829e-23)