/*--------------------------------*- C++ -*----------------------------------*\
| =========                 |                                                 |
| \\      /  F ield         | OpenFOAM: The Open Source CFD Toolbox           |
|  \\    /   O peration     | Version:  v2012                                 |
|   \\  /    A nd           | Website:  www.openfoam.com                      |
|    \\/     M anipulation  |                                                 |
\*---------------------------------------------------------------------------*/
FoamFile
{
    version     2.0;
    format      ascii;
    class       volScalarField;
    location    "6";
    object      omega;
}
// * * * * * * * * * * * * * * * * * * * * * * * * * * * * * * * * * * * * * //

dimensions      [0 0 -1 0 0 0 0];


internalField   nonuniform List<scalar> 
11941
(
9.41907
7.82394
9.33601
6.13941
9.42063
6.80656
9.57633
6.11039
5.40019
8.42014
7.07312
8.39785
4.4116
6.34475
4.32605
9.31384
5.38957
8.38142
4.27178
5.07551
5.18929
3.91253
7.82464
5.37126
4.1009
9.05211
3.44846
4.13148
6.02745
3.57733
9.56921
4.70141
3.58361
8.17438
3.6442
3.62801
3.91713
5.36101
3.34242
9.39953
6.00295
3.93813
3.43185
8.93191
2.94559
3.37403
4.17496
5.35539
2.76647
2.9402
9.46258
6.46829
4.78096
4.03042
2.74415
2.88033
8.71896
2.74719
2.94827
3.50505
4.08183
2.57722
2.70736
8.10489
6.21841
4.77559
3.73849
2.54861
3.03935
2.62588
8.52653
2.55746
2.65276
3.10641
4.29575
2.3326
2.54832
9.4581
5.42329
4.52343
3.84368
2.29706
2.67681
2.31306
7.70426
2.1674
2.81855
2.3662
3.11674
3.86142
2.19459
8.5856
5.62098
5.25191
2.7928
2.1707
2.47212
2.14369
8.54815
2.13042
2.57026
2.32667
3.01171
3.8464
2.15528
9.65751
5.99848
4.63372
2.68768
1.88696
2.25459
1.96967
6.78829
1.96063
2.56058
2.16238
2.72829
3.20972
3.36272
1.96576
8.43849
5.29822
4.98652
3.29534
2.46082
1.86274
1.86703
2.16968
1.94454
1.7844
8.45514
1.94739
1.97972
2.20204
2.16117
2.45254
2.98104
4.23855
1.89166
5.56139
9.22547
4.55019
3.44905
2.29829
1.75941
1.75609
1.83643
2.03354
1.87211
1.73432
7.25151
1.73049
1.88605
2.30626
1.90788
2.46155
2.96946
3.60195
3.68604
1.73568
5.59415
8.17446
4.34307
2.74255
2.64097
2.09313
1.64327
1.65365
1.85597
1.70229
7.54263
1.69124
1.7872
2.10904
1.84569
2.16769
2.60385
3.26612
4.48704
1.58827
8.2688
4.1832
3.25972
2.39981
1.90442
1.59468
1.62674
1.63863
1.71781
1.93156
1.5895
7.74295
4.20769
1.57666
1.59744
1.7166
2.0506
1.89912
1.75652
2.43628
2.9426
3.66034
4.62145
6.29476
9.49022
3.17981
2.49018
1.93164
1.89914
1.58309
1.5035
1.51728
2.11782
2.41688
1.52294
7.51126
4.46351
1.55916
1.64684
1.5543
1.72517
2.00734
1.80187
1.67249
2.4079
3.28165
4.24931
4.80209
6.62568
8.48146
3.218
2.49481
1.95765
3.2835
1.50431
1.51057
1.47007
1.48957
19.1657
4.43586
1.50358
7.69511
5.37724
1.50753
1.48335
1.6011
1.62662
1.8438
1.8438
1.69526
1.6679
2.56646
2.1161
3.40578
4.2536
5.72437
9.10921
2.87511
2.17838
2.12944
2.02691
3.25628
1.44879
1.45153
1.44717
1.42383
44.7362
3.41334
6.61392
3.63351
7.8578
5.03389
1.46138
1.47558
1.53499
1.60687
1.76762
1.99134
1.66811
1.68147
1.56261
2.82333
2.33872
3.6171
5.31121
7.05466
7.42462
2.66738
2.24927
1.95609
1.86061
110.718
1.37314
1.45876
1.36174
1.41665
1.40019
1771.72
495.366
38.7623
1.40306
6.49981
1.44872
2.64807
1.49537
1.5164
1.66415
1.74008
1.98255
1.5291
1.52979
1.52561
2.9071
2.38083
1.92161
3.70492
4.90897
8.74409
3.07316
1.94249
2.26856
1.45263
176.64
1.36231
1.54688
1.3631
1.38872
1.36504
2551.57
552.277
371.153
46.7394
7069.08
6.15323
1.66072
4.27079
2.4772
1.49217
1.65
1.54748
1.60556
1.51984
1.51364
1.51285
3.32915
2.55874
1.4161
4.65164
6.58827
7.76238
3.50369
1.89535
2.26477
1.48224
67.8284
2.63762
1.34129
1.00213
6.9661
1.34234
1.32653
7018.3
1143.56
676.604
106.477
7237.17
6.6113
56.1286
4.21639
1.49068
1220.22
0.773283
1.59757
1.51152
1.48353
1.43076
1.55179
2.64593
3.50381
2.29814
2.05464
1.24171
5.06401
8.88488
3.21979
2.00817
2.94497
2.23821
23.9991
7.9281
43.8163
11218.9
1.08266
5.34263
1.31735
21074.9
8862.17
18132
4200.93
18779.3
21441.2
5.05949
33.1957
313.401
5.65853
1.36054
14710.6
5576.58
1.45429
1.43955
1.45338
1.22893
1.28
3.03105
4.27819
2.34438
22708.3
27692.4
5.7328
7.83831
2.04885
2.5233
2.12807
20.0428
642.661
41.4573
94.9861
615.874
44338.2
0.694367
1.73109
14.796
24474.7
39208.9
19133.6
1780.27
39079.3
39943.8
5.96774
1311.73
56.0399
1033.56
1219.36
42182.6
27461.9
1.653
1.38936
1.16829
1.3231
2.68725
3.18038
1.97136
27657.8
25101.4
30982
3.86764
9.1537
2.12109
2.11089
4.41045
4.57035
49.9659
594.047
29002
2615.32
2391.5
46106.9
488.229
155.04
20.8405
33500
38238.7
26505.7
32130.9
11144.4
45699.2
3176.95
3808.97
48.2771
2088.62
3.60652
2397.93
47101.4
47101.3
1.84026
1.35432
1.0597
4.01149
8.81064
2.91007
3.72977
6858.89
47101.4
34828.5
4.78757
7.67365
1.94235
1.93771
4.95754
8.70935
454.524
33272.7
2766.51
40237.5
9160.36
1395.14
47001.5
976.207
246.214
154.047
42822.9
31088.8
46720.5
44421.4
36046.2
33688.2
47049.3
17523.5
16240.3
4.31681
9229.24
2518.19
12071.9
43192
47101.4
11.5088
0.905608
6.03776
3.28979
2.36788
31158.2
47101.4
47101.5
4.78957
8.82437
2.13087
3.06916
3.48216
169.552
1254.14
44308.3
34976.2
31571.9
37455.3
22428.9
3757.44
47060.5
47098
2598.43
76.5553
228.172
47040.1
45405.6
45537.9
37964.3
46786.9
25245.2
15672.8
27277.4
216.062
7789.41
1572.06
18831.5
47101.5
47101.5
47101.4
4.13472
4.33153
600.274
1154.67
3.76603
2.73148
39989.8
47101.4
47101.4
47101.4
6.80717
1.90189
2.42295
2.92415
716.942
2.85252
6222.54
46945
46685.1
33515.6
31631.2
25056.5
19789.8
47101.4
47101.4
2322.85
465.367
5752.33
47159.9
46761
47016.2
45379.4
34264.8
44660.7
44321.4
43283.5
37916.4
656.398
21079.5
27639.8
42555.3
47101.7
47101.4
47101.5
47101.4
212.168
45.2612
415.172
352.962
3.60021
7563.77
30008
47101.5
46192.1
47101.4
8.10147
1.93421
2.60398
369.327
1.31777
33966.9
46996.5
46985.5
46918.4
43307
44553.9
44201
29714.9
47101.4
47068.7
43370.9
10242.3
850.563
9906.04
47154.3
47101.9
45416.9
46401
34871.6
42134.7
45576.1
42370.7
45070.9
15330.8
46144.8
11791.6
28316.5
25720.9
47101.5
47101.4
47103.3
47101.2
47101.5
223.151
34.3701
26265.5
9158.29
4.26731
2.18698
20071.2
47100.7
47100.3
36736.4
47101.3
6.50579
1.49438
3.59916
675.723
38.1203
10837
47045.1
47058.5
30120.1
45948
46915.4
46513.4
45939.1
47101.4
47092.8
47101.4
1571.42
75.4254
141.535
47101.5
47051.2
47101.7
43739.4
46965.6
35592.5
34110.1
47101.4
45668.8
46984.9
47095.5
47101.3
20602.9
46116.6
35683
47102.9
47101.7
47176.3
47101.8
47099.5
47101.4
1938.02
950.729
9035.32
9832.39
3.87531
2.62711
2612.45
47101.3
46803.8
27851.8
47101.3
8.02044
2.43433
2.62516
61.6314
12.8498
8608.02
47011.5
47087.6
47101.5
33339.8
45182
47091.1
47076.4
35968.5
47101.4
47095.5
42232.2
47089.6
1619.38
493.997
15241.2
47101.5
47048.8
47071.2
44720.5
46940.5
34289.9
41656.5
47101.4
47068.1
46655.6
39870.6
47097.5
47109.3
39892.1
47102.6
47103.7
47103.5
47101.5
47257.4
47100.3
47100.7
283.699
168.725
2963.03
8859.66
6.28905
3.06345
3201.8
47101.2
45740.8
47100.5
32883.7
47100.2
2.8739
51.9877
75.2502
4.15801
1339.95
47089.3
47101.2
47101.4
45803.6
46969.8
47078.1
47031.7
25819.7
47100.7
47094
41012.4
47101.4
34778.8
4529.03
4040.84
47094.7
47096.3
47089.3
43388.2
47091.8
36149.9
41735.6
47101.4
47071.6
46993
45603.5
47098
47118.6
30798.8
42486.8
47103.5
43914.8
47101.6
47105.7
47037.2
47101.2
47098.6
47099.7
245.356
1285.2
2874.65
1271.26
6.14092
3.31517
7388.83
47101.4
46887
47040.8
21845.6
47100.7
2.50071
14.8032
59.4587
4774.08
47056.2
47100.4
47101.4
47101.4
42023
44589.3
37628.2
43498.8
47070.4
11236.1
47087.6
47101.4
47100.4
36578.5
45327.1
40212.3
16233.7
5196.43
46982.4
47009.4
37491.8
46800.9
34396.7
41778.6
47101.4
47097.8
46303.4
45560.5
47115.3
51130.8
34617.6
37759.6
42887.3
45908.4
45082.3
47276.3
47052.3
46496.8
47540.9
47104.1
743.363
819.626
28672.4
629.253
7.09474
3.6578
4925.59
47101.4
24792.1
46349.3
47101.4
3583.67
47099.5
2.21148
6.28808
22.4822
4851.87
46573.8
47067.8
47099.9
47101.3
47093
32997
42140.6
45102.2
48893.3
34504.6
41385.7
47095.8
47096.6
13113.6
24415.3
47100.2
39246
29112.1
46993.1
46861.3
17262.5
46737.1
32954
39857
47101
78743.6
47099.4
46963.3
34529.6
38277.4
47089.2
47121.9
51754.3
37399.2
35196
44971.3
43478.1
47517
47741.3
47530.7
47427.5
690.805
20594.4
40711.6
613.16
5.61493
42.8635
47101.4
29292
46713.4
47098.3
12805.2
1614.7
47100
1.86826
5.08206
622.199
10879.3
47073.1
47082.7
47072.6
47099
47085.9
47075.6
47101.4
47030.7
45902.5
47971.3
46982.8
38690.9
37966.5
47060
38899.1
40834.8
17286.3
37544.6
47100.5
41433.2
34087.7
43830.6
46988.6
15386.7
32587.9
46056.2
39929.9
47103.5
63705.3
47101
46948.8
16588.8
46814.3
47067.6
51063.9
49158
40485.2
39902.6
38217.1
45281.7
45062.5
48544.6
48961
47447.4
47529.7
1112.1
27810.5
16518.3
2720.84
6.81423
5.57825
47101.4
40768.3
46981.5
42707.4
47101.4
1789.04
18.5505
47101.4
23.3905
562.779
6514.11
13860.9
47101.4
47101.4
47091
47058.3
47081.5
47070.6
47003.7
47101.8
47040.4
47104
47104
46776.4
37849.3
39870.3
39377.3
4080.6
11338.4
38848
44499.1
42421.7
46724.3
46042.5
34798.3
46252.3
47036.6
40803.5
43193.8
45886.6
44534.5
47101.4
60133.2
47103.2
46801.9
18581
46061.8
47074
47635.3
47103.4
46340.7
40081.8
35682
38416.9
45443.1
48306.4
48138.5
47085
46810.1
47101.4
14633.7
44988.6
28354
7.28336
47101.4
14082
37651.6
33367.3
47101.4
792.551
9913.2
47101.4
286.537
2016.8
34339.6
47101.3
47101.4
47101.4
47091
47087.3
47087.2
47072.3
47084.3
46911.7
47102
47002.3
46886.6
47023.8
46984
46921.5
35940.3
39172.5
45611.7
43065.4
13587.5
7480.54
37327.6
46066.8
43676.6
21076.6
47102.1
46359.9
24972
43351.7
46990.9
43041
43247.7
41935.1
45516.5
47101.4
47104
47103.6
46726
39133.6
36102.8
47085.6
47090
46853.3
47097
47103.2
47033.8
45948
43332.5
34879.9
42847.2
29051
47406.2
47795.3
47035.3
46586.2
47101.1
25619.5
45643.8
43687
47101.4
39372.4
47045
27292.4
47101.4
47058
3070.72
47084.3
15390.3
40736.8
47101.2
47101.4
47101.4
47101.7
47018.6
40219.6
47099.3
47090.9
46949.5
47087.2
46868.7
47103.2
47002.7
46308.3
46834.8
47101.6
46898.5
47068.7
46103.3
44621.4
24064
26578.3
44303.6
44785.7
44587.9
350989
47067.7
47100.7
33433
37586.7
37650.9
47018.1
46645.1
47057.1
47052.9
45447.2
47101.4
47106.2
46206.1
45344.7
38283
47100.1
46928
47061.1
47109.7
47114.3
47082.8
47090.2
47021.3
44374.8
33330.8
37707.8
28521.3
47099.9
46880.4
46770.1
46881.2
47101.2
37781.6
47093.1
47075.3
47100.8
46115.5
37412.4
44238.9
47101.2
46976.9
46054.8
47057.4
16983.2
47101.5
47101.5
47101.4
47101.3
47101.4
47086.2
46995.9
46881.8
47098.4
40748.8
47081
47073.6
46979.1
47061.8
47102.8
43786.3
46735.8
46861.5
41397.4
46974.9
47071.8
47099.3
26351.9
170163
46067.8
44621.9
45407.2
283449
236159
47083.8
46979.6
47008.8
47022.2
47046.6
47075.8
47016.4
46945.1
47095.9
47458.3
47088.4
45174.3
45585.2
47099.6
46897.4
47124.2
47113.7
47102.1
47313.7
47078
47098.8
46254.1
40736.9
42523.7
38966.5
47101
47094.1
47036.4
47097
45894
46417.5
47097.5
47101.1
46996.9
47100.3
47053.1
46618.9
46408.1
47101.4
47075.3
46906.5
46818.8
47101.5
47101.5
47084.2
47100.5
47101.4
41650.6
47100.1
47030.3
47058.3
10870.3
47090.5
39833.3
47096.7
47080.2
47034.9
47098.3
47047.4
47102.9
46709.5
47028.8
46755.3
42091.4
47094.6
47097.4
47099.9
47480.2
43839.4
46727.6
44842.7
46689.3
41021.4
134798
47101.1
47046.5
47017.2
47038.5
47001.1
47006
46950.7
46928.5
47075.9
47101.9
45932.9
47079
50582.1
46664.4
47099.8
46763.8
47102
47103.3
47078.6
47102.6
84900
47100.4
46497.9
46995.9
42363.6
46970.6
43425.5
46596.8
45194.6
47050.9
47101.4
47014.2
47081.3
47077.3
45957.2
47085.4
47098.1
47078.4
47088.1
47093.9
47084.6
47085.9
47101.4
47077.8
46526.9
46657
47088.5
47051.1
47079.9
47100.6
47101.3
14882.1
36627.7
47099.9
46974.5
29760.4
6721.85
0.60417
13406.5
14568.8
47096.3
46846.3
46833
47087.4
34847.6
47102.3
100020
37763.2
47101
46704.1
46938
40242.1
47100.3
47097.9
47101.2
47098.7
44419.4
42515
45721.7
46938.6
46639.7
45904.9
43703
44583.6
45036.5
46880.6
47100.4
47099.5
47062
47039.3
47040
47051.7
47079
47394.4
44020.2
47355.2
52807.2
43583.9
46995.4
47004.5
45747.7
47089.6
47106.8
47052
47013.2
146328
46328.4
45065
45652.3
38791.1
41654.9
45236.4
39931.3
47173.6
47144.8
47101.4
47101.5
45362.2
47060.9
47097.3
47925.7
46614.2
47916.3
46132.1
47099.6
47099.1
47041.3
47099.1
47099.7
46952.1
46818.9
44100.2
47074.8
47101.3
47101
47101.3
43933.6
13257.3
45126.7
47102.5
47067.5
5012
1.24549
1.37051
5541.08
255.279
39952.1
35263.6
25832.8
29964
25339.1
10478.3
47102.2
27592.2
23369.3
47101.4
47101.3
29675.9
46909.6
38463.3
47101.1
47091.3
47101.3
47092.7
46998.3
33159.4
46722.6
47081.1
47042.5
47088.3
46307.2
46066
45226.7
40819.7
41327.2
40875.4
47100.3
47094.5
47099.7
47080.6
47073.1
47093.3
47089.2
45988.3
71221.8
47691.2
52411.7
42754
47451.1
46242.9
47085.3
46979.5
47126.1
47056.1
47018.8
71560.5
45677.3
45591.7
45721.8
38632.3
34960.8
36925.9
39613.4
47181.3
47101.8
47100.6
47101.7
40860.5
46967.2
47226.3
41496.2
43820
8.69968e+08
47029.9
47066.7
47099.7
47099.3
47097.7
47097.6
45334.3
47082.5
44858.2
47101.8
47101.3
47101.5
39300.2
35244.4
47101.5
47101.7
8658.85
1.63497
1.26562
1.97
1.86949
1.45402
0.840705
11816.2
13.7862
1194.15
898.658
2.1391
21004.5
13001.5
5595.97
3877.34
47101.4
31470.2
27317.9
47101.4
47097
41347.5
36318.2
43970.7
38854.1
47085.5
47101.3
47098.6
39424.6
38723
47090.6
47091.6
46594.6
46790.1
46527.9
46560.4
46387.8
46055.5
14407.9
19549.7
10579.9
37152.1
47098.5
47101.2
13054.4
47099.4
47087.6
47100.8
47099.9
47199.3
34709.2
42739.9
47454.8
50855.4
47272.6
46977.9
47101.4
47105.1
47204
47064.7
47209.5
3588.26
45600.9
45231
2.0688e+06
38592.8
10111.4
30932.3
24810.9
45515.7
47125.6
47101.5
47100.8
47080.2
37503
23860.9
2.57488e+08
46672.6
8.87772e+06
1.13827e+09
47063.8
47062.3
47099.2
46910.2
47045
44750.3
46825.7
38888.6
47013.9
47101.5
47101.5
47101.5
39017.2
37404.5
47101.6
40649.2
47101.4
2.97376
3.07012
2.68952
2.17789
3.29216
3.83212
1.25452
29821.7
29336.9
1256.15
1786.73
2.84523
3.31218
5.61484
6.38642
5.43082
5.58487
47101.4
47101.4
45360.2
47085.8
47069.1
41580.3
25081.5
39093.8
44743.5
47092.4
47101.3
47101
44277.9
35229.6
44539.5
47096.4
47100.5
47095.9
46809.7
46778.3
50235
54622.2
46323.5
5896.69
11565.9
4.04804
5327.23
10293.2
39719.8
9075.74
7605.32
47100.6
47099.9
47097.8
44247.4
47100.9
24748.1
2721.18
47158.2
69256.7
47065.2
47098.8
47032.3
47063.2
46987.3
47378.6
47421
46771.4
46704.9
27618.2
87820.1
45879.6
1.58823e+22
7.12463e+20
24213.2
11382.6
11030.4
11776.9
45836.9
47101.4
47107.9
40910.3
47106
32618
38625.2
4.71843e+06
41140.7
7.44296e+06
3.9612e+08
47065.5
47035.8
46966.3
47098.5
46747.6
46815.3
42618.7
46041.3
44471.7
47064.2
47101.5
47101.6
45107.5
47730
47378.2
41042
47101.4
4.17039
3.57873
4.34326
2.78326
3.24108
4.09747
3.76556
3.72041
2.93527
31164.1
44387.9
20961.4
5.14017
5.02405
4.49779
4.85809
5.71531
6.18607
5.37674
4.7912
5.72513
47101.4
47101.4
46945.2
46515.5
47074.5
47095.3
39651.9
46694
41560.8
39118.1
47091.1
47101.4
47101.4
47093.4
41566.9
47100.5
47101.3
47100.8
47100.4
50864.8
47096.4
45673.2
47101
61889.1
46488.3
6.35556
1165.08
6.47147
5.02183
5.93885
21545.8
7.49291
6.62452
11424.6
36517.3
47100.7
35323
25827.9
47100.9
26181.8
477.411
47101.5
78360.3
47057.9
47101
46972.7
46119
46859.1
46813.3
47226.6
46341
33406.2
46325.8
33909.3
61613.9
2.34983e+22
3.72453e+21
20066.5
8992.28
12492.6
10480.2
46493.4
46704.7
47198.9
46630.5
46148.4
2052.86
10743.1
4.30668e+06
34747
4.19091e+10
778611
2.74432e+08
47030
47092.8
46635.3
46643.3
47095.7
44917.5
46566.4
44551.8
46768.1
45111.1
47058.8
47101.7
47101.4
47101.7
47538.8
47101.2
40694
47101.4
4.36127
4.73542
4.57606
3.95645
3.46194
3.53162
4.1835
4.35712
4.31313
2.9548
27384
46910.3
26079.3
5.21778
5.07604
4.86737
4.75073
5.84229
5.94444
5.42786
5.61732
5.71269
47082.4
47115.8
46306.4
49546.4
46925.6
47007
46770.6
46740.9
42267.8
32289
47096.7
47101.5
47101.4
47099.5
43919.5
47101
47101.2
47100.7
47099.5
47100.4
47100.6
77895.4
47233.6
50762.8
47071.4
6.41869
6.31709
6.24711
6.48197
5.86324
6.7798
17547.2
10.9011
6.36165
2.31182
2480.88
47101.1
5.54579
18472.1
47100.7
14979.5
5151.15
47101.4
47101.4
47082.7
326509
47099.7
46447.5
47101.5
47036.2
47097.7
47001.9
27036.2
47092.5
28058.6
34883.6
70470.5
1.44526e+22
3.13313e+21
17439.3
3.92403e+09
6802.88
26757.6
1702.64
46502.4
46702.8
46968.5
47276.8
31629.4
1669.69
77588.6
1.57055e+06
5.46886e+06
3.31198e+11
637757
1.64106e+06
47074.5
47100
40042.4
46794
47096.2
45863.8
39675.3
46242.3
47101.4
46401.1
32142.6
47101.4
47101.4
47099.5
47049.6
41013.7
47068.7
41792.7
47101.4
4.66251
4.60958
4.44079
3.95412
3.59873
4.13344
4.22692
4.41732
4.29558
3.80308
34862.8
46896.1
42126.2
4090.62
5.29322
5.0382
5.01654
4.7747
5.82804
5.95326
6.05033
5.36834
5.48514
5.55498
5.64942
46810.8
42725.7
45329.9
38828.7
47046.7
46878.6
47102.2
46844.8
45810.4
45251.4
26797.4
6.05951e+08
47101.4
47101.4
47100.6
47101.3
47100.9
47101.2
41059.9
47099.2
47101.2
47100.8
47100.8
47100.3
47099.7
55841.9
75912.7
47100.5
47101.6
47059.8
6.33183
6.2752
6.23653
6.51194
6.61051
6.68751
5597.35
9.90107
1140.24
5.78159
12334.4
15857.4
1926.64
4.93421
35568.6
22244.9
42279.7
45307
47101
1.76528e+07
2.44709e+07
47099.8
46923.8
47101.5
47066.2
47101.3
47087.1
29310.8
47095.4
46823.2
44315.9
1.04843e+21
1.09318e+10
35864.3
59562.6
16182.3
1051.43
30128.9
565.073
47015.4
46982.3
46216
45634.9
37774.3
297.959
1.40267e+08
1.90752e+07
7.96942e+10
4.94338e+11
2.98645e+06
1.30701e+06
47101.3
47067.7
47100.5
47101.3
38323.1
46700.6
47099.6
45221.1
24310.1
47022.8
47101.3
46569
47101.4
26276.3
47101.5
47101.4
47101.4
39486.9
47101.3
33192.1
41214.3
35604.3
47057.8
4.62365
4.60833
4.48799
3.94937
4.03163
4.07479
4.16211
4.3552
4.33704
3.78498
44880.5
46250.6
39204.3
3.58897
3.77255
5.23821
5.16265
4.96226
4.95296
4.80233
5.76428
5.91268
5.96619
5.32444
5.40485
5.48079
5.57617
26730.2
46149.3
338347
47101.5
47000.7
47101.8
42875.6
46464
4.08671e+09
38776.6
7.01688e+09
47101.5
47101.4
47100.5
47101.3
47100.3
11271.3
27890.7
47100.5
47101.4
47099.9
44035.8
47095.9
47076.8
41418.6
42519.8
47059.7
48392.3
47692.3
45835.6
6.27729
6.45612
6.2204
6.45233
6.66864
6.6983
5.10601
6.75508
7.32228
7.1831
921.951
12019.8
7.14108
7.01299
1824.2
45053.8
47101.6
46016
47101.4
1.0755e+08
47103.9
47100.1
47100.4
47105
47101.5
47108.8
47098.8
47101.4
47106.4
43102.1
47170.7
46619.9
39091.1
45749.3
2.35535e+13
1e-15
1.32555e+09
45618.6
3.79791e+10
2087.07
22472.6
287.816
47030.2
46976
46226.6
25444
399248
2.2129e+07
8.92133e+07
9.34868e+12
4.52074e+10
5.8882e+11
8.08667e+11
3.25581e+17
2.83803e+06
1.16583e+06
47101.3
47087.1
37029.7
47101.2
45665.2
21444.5
46525.1
47100.7
45703.8
23850.8
47065.3
47101.4
47094.7
47101.4
23525.1
47101.1
47100.6
47101.3
46887.8
46842.1
47093.4
17609.2
41898.8
28754
44499
4.55666
4.47241
3.87701
3.98042
4.14121
4.28726
4.37289
4.32783
3.81005
46664
44974.6
46103.6
4948.31
3.64226
3.73188
5.2291
5.07478
4.9717
4.74946
5.76359
5.90711
6.05966
5.28236
5.4343
5.51463
5.74918
39836.4
46328.4
799981
47101.5
47101.5
47101.4
47128.6
47033.2
6.08011e+09
45727.1
5.79423e+09
47101.4
47102.8
47094.1
47101.4
26764.4
27363.4
47101.4
44540.9
47101.3
47044.6
46488.3
45998.2
116371
31332.5
31057.9
43637.8
40935.3
29241.3
47008.7
6.22553
6.41227
6.11587
6.54271
6.61873
6.71946
5.96597
6.81575
7.30113
7.18207
7.40348
7.59036
7.09226
6.95498
1022.57
47101.7
47102.4
47101.4
4.14847e+07
38886.5
47102.7
47101.4
47110.4
47101.5
47095.4
47101.4
47101.4
47098.2
44589
46993.4
47174.2
44270.4
47152.8
1.76523e+14
1e-15
1.16824e+06
46850.4
23360
1.2373e+10
36126.9
190.555
47101.4
14851.9
47101.1
788771
7240.93
86921
1765.09
4.34299e+07
1.50052e+14
1.43466e+13
3.97669e+10
6.36632e+17
8.90327e+17
58332
5.54044e+06
2.16637e+13
47101.4
47101.4
32185.8
36398.6
47101.4
42005.3
7410.71
46958
46383.3
38176.9
47101.3
47101.2
47095
47101.4
47034.2
47033.9
46980.5
47095.9
18678.1
46800.8
46997.7
10968.5
26592.3
26374.6
40384.1
46055.3
4.67891
4.56619
4.44825
3.9489
4.04101
4.0854
4.19476
4.37168
3.80246
46754.6
47065.1
46463.6
3861.89
3.6938
3.58798
5.14648
5.05763
4.99868
4.87818
4.72895
5.87622
6.0454
6.07359
5.29473
5.41494
5.55266
5.67772
42068.6
361104
45569.6
98649.7
47101.1
47101.4
47102
47139.2
62975.3
46641.2
9.88452e+09
22641.4
4.92295e+09
47101.4
47091.1
44406.2
47101.4
47101.3
1.83602e+11
58324.5
47099.6
4.82233e+10
39369.4
37088.7
43606.4
122900
41038
44372.2
74231.7
41883.3
30403.5
21170.8
6.23858
6.29009
6.4299
6.49856
6.54459
6.63011
6.79011
6.83527
7.3363
7.17193
7.57241
7.43207
7.65695
7.07364
6.95711
1193.64
47101.4
47101.4
47101.3
4.86204e+06
47103.9
47101.7
47101.5
47101.4
47101.5
47101.5
47101.5
46150.3
47101.4
72205.2
47101.4
46826.2
46946.6
47075.1
47589.6
47179.1
47152.9
2.65649e+14
1e-15
4.5381e+14
46804.2
3.47252e+20
1.9052e+13
6.37148e+09
28255
447.91
47101.4
18279.4
46910.4
2.47299e+06
10257.7
3.32543e+11
21475
47104
4.2871e+11
2.78295e+14
1.23359e+13
1e-15
1.11133e+19
6.62693e+17
4.24459e+17
47106.1
46275.2
1.92757e+13
47101.4
47101.4
35944.4
6790.45
35042.6
47101.3
47101.4
10385.4
47101.4
46667.8
38278.1
47101.2
47100.9
47098.8
47101.4
47030.5
46864.3
47077.5
47048
40422.2
44801
46945.6
29114.4
26438.2
12661.2
46118.7
46914
4.65737
4.60939
4.39788
3.95412
3.97389
4.16034
4.30256
4.31343
3.81512
46846.7
47095.6
39917.5
2.92049
3.694
3.58763
5.20844
5.1266
4.99564
4.80369
4.791
5.86838
5.99714
6.12649
5.28963
5.41981
5.59083
5.45506
5.7311
47088.1
46430.6
41695.3
78894.7
46996.1
47101
47084.9
7.65595e+09
63855.8
46837.5
44819.8
38772.7
46759.1
47101.4
47024
36151.4
47091.7
47101.4
7.88419e+10
1.45304e+11
47678.6
41802.4
71489.1
43433.5
32724.9
44070.3
39759.2
36072.1
560770
5252.71
6.14945
6.18627
6.32231
6.46313
6.56623
6.57321
6.73879
6.92304
11.3
7.39107
7.20467
1782.05
7.44308
2501.14
7.07861
6.93472
17991.8
47101
47095.8
47567.8
47099.6
47101.7
47109.6
47098.9
46409.4
47101.4
47129.8
47101.4
140073
47101.4
47002.9
47101.5
47101.4
47071.6
47332.8
47094.5
2.53028e+18
1.723e+20
1.33688e+06
46464
6.25515e+20
9.06402e+19
4516.35
1.29549e+06
5325.87
46647.1
15672.1
31719
42489.1
5.31089e+09
1.73473e+06
1.65571e+12
1.86577e+08
2.32719e+14
2.75371e+10
1.17635e+14
17011.3
1.88354e+10
7.52211e+18
5.17946e+17
1.8775e+19
73773.7
1.08161e+13
47101.4
47055.2
22153.7
17017.6
11337.5
47101.1
47101.4
47101.4
34103.4
47081.6
47034.9
44820.9
44066.8
47101.4
47101.4
47077.2
46981.7
47035.3
45765.3
46900.8
47087.9
46803
30330.7
47049.9
47096.4
17107
18575.9
38014.5
46931.3
47061.8
4.66325
4.54457
4.36729
3.83542
4.06159
4.0918
4.30217
3.78014
46987.7
46879.8
38661.5
30554.8
3.52291
3.64674
3.54036
5.22271
5.14158
4.97985
5.08099
4.85384
4.72595
5.75964
5.97316
6.0396
5.35677
5.36542
5.62139
5.46583
5.69565
47039.5
36127.8
41448.8
39451.6
46783.9
47101.2
2.90361e+08
2.61397e+09
2.50476e+09
8.44256e+06
54312.2
45854.5
46976.3
7.08098e+08
44959.8
47101.3
41157.9
26503.3
47099.9
49320
61003.1
9.6693e+10
48707.3
6.67265e+08
1.38867e+09
47584.9
24791.3
47537.3
35893
5.13977e+06
3.88938e+06
1.5944e+08
6.15665
6.38117
6.4927
6.57037
6.6578
6.77647
6.85845
13.0329
1908.18
7.18435
12863
289664
7.08088
6.96951
42054
47094
47058.3
47531.4
47098.2
47100.8
47102.6
47108.3
47100.6
47048.3
47137.7
47100.9
47234.1
47101.8
47125.3
47103.1
47101.4
47414.7
47101.5
47101.4
47017.2
46991.6
47095.8
1.91127e+18
4.51346e+19
2.6798e+19
1.65568e+12
563223
46268.8
5.87656e+20
6.84499e+20
3.74037e+19
7.70236e+08
2.64274e+06
14245.5
19040.8
20448.8
37914.5
2.39368e+12
3.30937e+09
1.77171e+06
38319.4
1.21317e+14
3.97466e+14
4.26311e+13
38365
42861
3.03975e+06
1.2881e+13
37386.7
2.95989e+11
7.78008e+17
7.72279e+17
2.32903e+11
119758
47101.3
47101.4
43176
26308.4
24974.7
45405.7
46866.7
46512.5
47069.8
38675.6
46273.3
46302.8
47073.5
45668.4
47101.4
47076.8
46991
45219.9
45147.7
46817.3
46693.3
47053.1
2155.51
29685.1
47032.2
47089.6
5466.87
13248.2
48182.9
46769.2
47027.1
4.6168
4.5031
4.42423
3.84428
3.99187
4.15523
4.3012
4.20898
3.81941
46853.6
1338.08
2.20979
3.41197
3.69823
3.618
5.18065
5.28006
4.9059
5.02267
4.83014
4.70551
5.89949
5.91507
6.09776
5.36308
5.61262
5.48776
5.20958
46453.4
39346.7
41315.9
49950.3
47101.2
3.40231e+10
2.91568e+08
8.5695e+08
8.37633e+09
47098.9
2.59334e+08
2.95749e+09
1.24129e+09
47100.4
50253.1
39634
47100.4
49129.8
53198.6
7.08014e+10
6.31307e+09
47066.1
1.57837e+09
2.34553e+09
41593.9
14303.9
47669.3
40120.9
7.617e+06
7.19596e+06
155201
6.26341
6.37402
6.51148
6.62733
6.81291
6.78246
6.88616
2455.94
3529.43
925.656
350824
2.21014e+06
6.98614
47091.4
47075.5
87193.9
46315.9
47812.1
188149
47086.4
47068.5
46937.6
47100.4
47111.5
47129.1
47102
47101.4
47104.6
47109.6
47101.5
47101.4
47101.5
47101.7
46940.2
47097.8
47099
3.0774e+09
1.96053e+20
7.06316e+27
47303.2
47070.6
47224.9
1.42931e+14
2.8777e+19
9.64647e+13
6.98067e+08
47101.5
2.17251e+06
19735.1
18393.8
23642.6
39986.2
30688.4
3.87123e+12
43717.4
21606.1
1.63903e+12
58746.8
41050.7
2.92494e+12
2.23912e+12
18811.3
1.60702e+06
8.90984e+07
1.9234e+11
2.93377e+11
2.69964e+13
1.79668e+13
23511.9
134470
46954
46888.6
43069.9
30405.7
9558.37
41219.2
47097.5
46184.6
46804
47031.9
41872.3
45790.7
44761.6
47101.4
47101.4
46442.3
47101.4
46845.2
46832.4
46108.5
39029
43722.5
44722.4
44933.2
47043
4453.5
29218.2
47100.8
47094.5
12431.5
33324.7
46026.5
46527.5
46670.9
4.62542
1140.06
3.85968
3.92161
4.01697
4.08121
4.29672
4.1992
3.75733
11546.2
47005.6
6159.94
3.38956
3.47538
3.67751
3.5088
5.12857
5.28358
4.88772
4.96264
10.4423
4.69535
6583.65
6.00972
6.03648
5.37633
5.50264
4.17195
5.4236
4.41108
6033.66
46193.8
47032.4
3.84035e+10
47099.6
6.69471e+10
4.3892e+08
3.01423e+09
7.35366e+09
4.89787e+09
1.63943e+10
47100.4
5.70756e+08
1.13506e+09
1.91226e+09
28697.1
49335.1
94288.2
74322.1
47065.9
47068
47054.3
212069
24116.5
46247.9
47328
2.45573e+09
47081.5
28097.9
6.46949e+08
9.25964e+06
1.72534e+09
8.45387e+08
6.26027
6.41579
6.55934
6.65175
6.9535
6.854
6.94236
39327
27803.6
7.81061
47101.4
5.55128e+06
7.51314
47064.9
47101.3
46976.1
45525.7
8.5701e+07
1.43799e+06
3.33073e+11
7.30938e+11
3.83255e+11
47010.8
47109.2
46866.8
46822.2
47101.6
47101.5
47109.4
46983.3
47101.4
47101.4
47101.5
47101.4
47099.9
47098.4
9.35757e+19
1.09503e+09
2.43703e+27
5.48943e+27
47197.5
47092.1
47094.2
9.21957e+14
5.06716e+15
9.02521e+13
1.46388e+09
1.3873e+07
1.2219e+06
45550.7
37142.8
36858
40398.9
39273.7
1.43821e+09
41779.6
22451.1
49444.9
1.13584e+11
38812
46647.7
1.6905e+13
2.99198e+13
50189.3
46549.7
25825.3
2.27662e+10
3.71885e+11
5.97333e+26
22411.3
1.47129e+11
46587.6
46842.7
46955.7
46160.2
46651
39825.3
10358.8
37916.9
43292.7
44370
45386.3
39895
46677
41764.9
42001.6
42944.8
36848.5
47101.4
47101.4
47096.4
47101.4
46959
45855.1
46523.9
38137.4
46602.9
44115.6
45645
46813.5
5963.6
6636.75
43447.9
47088.3
38456.1
20117.2
45026
43960.4
39862.2
9872.12
10986.2
1268.29
3.84496
3.90339
3.96088
5.55158
4.24771
3.50783
3.75445
1711.61
42164.7
3.32103
3.32532
3.41705
3.71781
3.50791
5.05757
5.23009
4.89324
4.92892
9.95289
17.5451
4.61043
5.99562
6.1527
4.79203
4.61679
5.39956
41111.8
12761.4
43765
5.28629e+09
6.13904e+09
3.87863e+09
1.148e+10
238277
7.60579e+08
9.03979e+09
1.76672e+10
43656.5
56620.7
2.88422e+08
1.5542e+08
32873.4
46863.9
1.40448e+08
115030
47051.5
47082.4
99359.8
187536
32582.2
44938.8
32196.4
1.3744e+08
1.25315e+09
47091.3
40687.9
49930.2
1.82996e+08
5.47656e+06
33672.2
5.35005e+09
1.1826e+06
1243.5
6.3282
6.60301
6.76247
6.91868
6.88945
6.99769
32313.3
47327
944.88
2.7917e+06
6.93886e+06
7.08601
47101.4
47101.4
47065.2
45027.4
5.233e+08
1.03084e+07
7.40011e+11
1.15325e+13
46677.9
46830.4
47771.6
47119.4
47414.1
46215.9
47101.7
47101.4
43197
47055.4
47101.5
47100.9
47101.4
47101.4
47105.3
47101.3
47101.2
3.55488e+06
47091.7
6.29241e+16
4.77003e+27
46911.1
46608.4
1.27257e+07
4.87283e+07
3.65839e+15
8.22035e+17
9.15479e+08
53629.9
5.821e+06
5.01025e+08
37275.6
41265.9
42264.1
38492.3
47100
42752.8
26027.7
47102.4
44023.4
1.24705e+12
4.10899e+11
1.88632e+12
2.37246e+13
28001.1
46633.6
4.151e+08
3.03427e+10
1.9482e+11
3.72988e+26
3.06008e+14
1.23804e+06
44669.8
44501
44000.7
46666.2
44921.4
35782.9
25031.9
27144.4
31961.2
41414.1
43884.3
36336.1
31950.5
38071.9
41639.5
42441.4
36362
47101.4
47101.4
47095.7
47101.5
47099.6
47099.2
46046.5
47098.3
44892
43468.1
43501.4
44615.8
44478.7
45019
18222.2
12694.5
46929.3
31248.2
47100.3
41385.6
46088.6
43671.8
44846.5
23922.8
35542
39664.9
9022.66
3.80745
3.96676
6.29107
2.93004
5727.36
3.75859
16707.3
1263.09
46127
3.25622
3.40834
3.66558
3.511
3.07559
5.08156
4.90094
4.14122
4.63136
4.89681
4.72252
4904.05
13814.6
6.00345
6.05124
4.31296
47100.2
41356.8
47098.7
42095.2
95852.4
1.77895e+09
6.47847e+09
104369
13099.9
7.31008e+08
2.53367e+07
3.6529e+09
47227.8
44071.7
47118.4
46702
45659.1
6.10566e+07
1.26633e+08
2.87e+06
46857.2
47103.9
56025
185301
46621.8
37544.8
47222
47188.2
1.56576e+08
43622.7
37205.4
47101.9
1.20392e+07
42809.3
2.67577e+07
1.95365e+09
2.22449e+08
1014.28
9868.21
2325.63
5.80526
863.824
6.65344
6.96471
1589.55
2451.7
47099.2
41703
6507.91
215654
2.65789e+06
7.09381
47108.2
47101.7
47657.6
5.8147e+07
1.29588e+09
2.75935e+08
3.77991e+12
3.51921e+12
46778.3
2.22876e+08
47474.1
47160.7
47859.9
48979.2
47102
47081.6
41349.4
42902.7
47283.9
47148
47100.9
47120.3
47142.7
47123.7
47101.5
47101.5
320353
47087.3
4.75898e+27
105657
2.99513e+26
177036
46188.1
47009.4
7.16404e+06
2.01029e+18
1.41002e+17
2.03303e+18
4.45812e+08
10221.4
45183.3
41125.5
35499.4
43421.9
42119
47104.6
47105.1
28459.4
47099.7
28651
51054.4
3.15467e+11
3.07786e+12
2.67956e+12
18914.1
35781.8
47098.4
40993.8
43512.9
9.84103e+08
835062
3.15861e+14
1.79391e+06
47340.2
42870.6
44017.5
45241.3
43614.4
46699.2
45953.9
41479.5
29745.7
38423.2
26202.1
46443
45968.1
33334.7
34915.4
28379.2
36235.3
45109.9
44218.6
45088.6
41548.6
47101.4
47063.1
47101.4
46935.4
45837.3
46707.2
47096.3
47053.1
46834.8
46782.1
40979.6
38844.6
34364.4
44619.4
8304.98
46908.6
32425.7
22840.1
38288.2
46881.6
46592.8
13608.6
41670.9
14316.9
3.90137
3.92812
3504.88
11229.9
28880.1
7596.08
3.2876
2.60972
3.18511
8404.83
3.30744
2599.27
2.35713
2085.74
3.7122
9592.22
4.7341
5928.16
22059.7
8477.17
24698.4
35873.6
2899.59
8951.78
35580.3
47078.7
47071.4
47099
40101.8
7.59627e+09
157861
4.7183e+10
45213.4
10032.1