/*--------------------------------*- C++ -*----------------------------------*\
| =========                 |                                                 |
| \\      /  F ield         | OpenFOAM: The Open Source CFD Toolbox           |
|  \\    /   O peration     | Version:  v2012                                 |
|   \\  /    A nd           | Website:  www.openfoam.com                      |
|    \\/     M anipulation  |                                                 |
\*---------------------------------------------------------------------------*/
FoamFile
{
    version     2.0;
    format      ascii;
    class       volScalarField;
    location    "6";
    object      p;
}
// * * * * * * * * * * * * * * * * * * * * * * * * * * * * * * * * * * * * * //

dimensions      [0 2 -2 0 0 0 0];


internalField   nonuniform List<scalar> 
11941
(
-0.00165406
-0.00132454
-0.00191918
-0.00130999
-0.000990335
-0.00188295
-0.00225686
-0.00101168
-0.00162896
-0.000686654
-0.00217382
-0.00239657
-0.000992944
-0.000706307
-0.00168138
-0.000356633
-0.00235435
-0.00264774
-0.00128837
-0.000585861
-0.000459012
-0.00200081
-4.72833e-05
-0.00265177
-0.0023425
-0.00293112
-0.00128872
-0.000396386
-0.000101578
-0.00188656
0.000292647
-0.00289151
-0.00275498
-0.00316344
-0.00100631
-0.000581689
1.54471e-05
0.000143384
-0.00205883
0.00060752
-0.00304063
-0.00298695
-0.00287975
-0.00356112
-0.00113112
-0.000209877
0.000360547
0.000472381
-0.00241213
-0.00157689
0.000910918
0.000648412
-0.00324711
-0.00336557
-0.00269102
-0.00336129
-0.00402505
-0.000832512
-0.000318567
0.000361253
0.000686538
-0.00227442
-0.00168735
0.00117208
0.0010659
-0.00344793
-0.0036052
-0.00305435
-0.0036158
-0.00352599
-0.00377554
-0.00106959
5.83331e-05
0.00071306
0.000997748
-0.00256673
-0.00157966
0.00151976
0.00121612
-0.00383754
-0.00392976
-0.00315231
-0.00406919
-0.00409105
-0.00397205
-0.000727125
0.000615656
-8.78231e-05
0.00116595
0.00122272
-0.00201336
0.00181259
0.0015468
-0.00394495
-0.00416186
-0.00365755
-0.00437815
-0.00435422
-0.00452594
-0.00103613
0.000905966
0.000434761
0.00174536
0.00162451
-0.00202614
0.00211816
0.00180923
-0.00418979
-0.00450443
-0.00366453
-0.00484787
-0.00497173
-0.00431341
-0.000688749
0.00142792
0.000535869
0.00184031
0.00210167
0.00195002
-0.00246406
0.00239066
0.0021295
-0.00391485
-0.00458063
-0.00483019
-0.00441029
-0.00307519
-0.00514727
-0.00516323
-0.00526802
-0.00520571
-0.00125413
8.96477e-05
0.00169307
0.00142891
0.00236582
0.00254064
0.00218912
-0.00205061
0.00234947
0.00273393
-0.00419351
-0.00483394
-0.00523184
-0.00519441
-0.00421491
-0.00335093
-0.0057007
-0.00579268
-0.00616836
-0.00455272
-0.000780016
0.000609615
0.0023581
0.00167893
0.0027357
0.00278463
0.00270638
0.00256224
-0.00274772
0.00265873
0.0029034
-0.00473828
-0.00497143
-0.0051516
-0.00572154
-0.00592091
-0.00470584
-0.00630314
-0.0067986
-0.00434504
-0.00127508
0.000431226
0.00289521
0.00232736
0.00349754
0.00330881
0.00310973
0.00277637
-0.00299916
0.00309284
-0.00488704
-0.0049751
-0.0055644
-0.00616849
-0.00553129
-0.00681767
-0.00431395
-0.00699533
-0.00732467
-0.00701634
-0.00572939
-0.00446689
-0.000479548
-0.00237443
0.00107894
0.00376948
0.0029191
0.00237638
0.0037157
0.0034027
0.00318185
0.00303207
0.00319869
0.00321417
-0.00479103
-0.00528052
-0.00594882
-0.00669444
-0.0060963
-0.00744557
-0.0049873
-0.00722332
-0.0080566
-0.00794092
-0.00622243
-0.0042939
-0.000934431
0.000592302
-0.0029278
0.00183587
0.00432751
0.00370068
0.0033526
0.0042507
0.00378343
0.00348567
0.00317238
0.00343911
0.00349977
-0.00497062
-0.00538695
-0.00612371
-0.00685207
-0.00707191
-0.00607656
-0.00837061
-0.00435175
-0.00807571
-0.00876011
-0.00867068
-0.00441074
-0.00377254
-0.00214384
-9.27856e-05
0.00125981
0.00243968
0.00480417
0.00427253
0.00389685
0.0036632
0.00412493
0.0046877
0.00375059
0.00349071
0.00368548
0.00384219
-0.00531003
-0.00559146
-0.00591635
-0.00649961
-0.00739396
-0.00802289
-0.0070276
-0.00903976
-0.00509237
-0.0087983
-0.00794393
-0.00967321
-0.00958602
-0.00673201
-0.00438295
-0.00264914
-0.00033718
0.000963274
0.00235407
0.00550141
0.0048587
0.00495543
0.00494465
0.00447792
0.00441798
0.00502036
0.00400553
0.00374665
0.00378878
0.00388748
-0.00527744
-0.00547218
-0.00611881
-0.00653476
-0.00733413
-0.00918964
-0.00751651
-0.0100119
-0.00398678
-0.00644761
-0.00964436
-0.00847746
-0.0105364
-0.0103532
-0.00439719
-0.00151909
0.000755776
0.00191221
0.00315348
0.00625544
0.00560714
0.00565012
0.0054523
0.00518975
0.00435211
0.00429538
0.00482622
0.00551925
0.00395748
0.00399893
0.0043573
-0.00530936
-0.00590112
-0.00525224
-0.00692514
-0.0077139
-0.0100194
-0.00921916
-0.0111458
-0.0044028
-0.00695312
-0.00964793
-0.0105349
-0.00904074
-0.0114856
-0.011255
-0.00461919
-0.00168261
0.000631148
0.00182672
0.00284805
0.00693638
0.00625239
0.00643342
0.00623045
0.00614125
0.00527312
0.00447435
0.0050457
0.00595686
0.00413742
0.00407448
0.00422532
-0.00491412
-0.00608047
-0.00538808
-0.00658227
-0.0079006
-0.0104467
-0.00958616
-0.0125464
-0.00280898
-0.0059978
-0.00855467
-0.0104481
-0.0115659
-0.00888791
-0.0125738
-0.0122017
-0.00643842
0.00131737
0.00318212
0.0035451
0.00772472
0.00681566
0.00682035
0.00679722
0.00661255
0.00632553
0.00473003
0.00477973
0.00437604
0.00540367
0.00568767
0.00656208
0.00434798
0.00479462
-0.00453683
-0.00567037
-0.00484379
-0.00668384
-0.007658
-0.0123436
-0.0111908
-0.0135407
-0.00275108
-0.00649117
-0.00916499
-0.0102277
-0.0114154
-0.01253
-0.00939125
-0.013233
-0.0130811
-0.00471378
-0.000265326
0.00279718
0.00391251
0.0083574
0.00792945
0.00750891
0.00782507
0.00778761
0.00821255
0.00706724
0.00550647
0.00477635
0.00451267
0.00526022
0.00595084
0.00677577
0.00430702
0.00451878
-0.00558636
-0.0046323
-0.0061533
-0.00717483
-0.00810785
-0.0137222
-0.0126124
-0.0112687
-0.014966
-0.00408519
-0.00573976
-0.0087031
-0.0106744
-0.0121995
-0.0132816
-0.00907743
-0.0145592
-0.0143743
-0.00661656
0.000367686
0.00398782
0.00328715
0.00924822
0.00872877
0.00792484
0.00844322
0.00924893
0.00825319
0.00666134
0.00502623
0.00467415
0.00549803
0.0064641
0.00749673
0.00674245
0.00455588
0.0052468
-0.00509178
-0.00580092
-0.00429215
-0.0062006
-0.00687271
-0.00745925
-0.0155326
-0.0141976
-0.0131628
-0.0165352
-0.00311039
-0.00741116
-0.0100206
-0.0102265
-0.0118972
-0.0132637
-0.014815
-0.00954562
-0.0155555
0.0025279
-0.000942247
0.00588907
0.00590279
0.00985245
0.00958157
0.00854178
0.0094355
0.00952333
0.00935105
0.010292
0.00871955
0.00734832
0.00499055
0.00480671
0.00547265
0.00622645
0.00726578
0.00436123
0.0047964
-0.00505747
-0.00550646
-0.00658468
-0.00582697
-0.00705046
-0.00757685
-0.0156846
-0.0168825
-0.0149341
-0.0121897
-0.0177613
-0.00450154
-0.00681752
-0.00947461
-0.0119426
-0.00974411
-0.0125187
-0.0141047
-0.015844
-0.00882647
-0.0170885
0.00400181
-0.000372631
0.00750427
0.00737732
0.0110537
0.0106511
0.00898039
0.00992142
0.0105946
0.0114937
0.0103183
0.00510919
0.00523469
0.00576349
0.00654153
0.00755804
0.00447262
0.00574627
-0.00453723
-0.00559229
-0.00432192
-0.00577471
-0.00664271
-0.00791787
-0.00692622
-0.0175608
-0.0188823
-0.0166777
-0.013728
-0.0183148
-0.019969
-0.00344139
-0.00856624
-0.0110685
-0.0121365
-0.00983924
-0.0135504
-0.0155457
-0.0172444
0.00333708
0.00700653
0.001369
0.009089
0.00900249
0.01203
0.0113971
0.00914601
0.00973794
0.0107632
0.0117799
0.0119589
0.0120913
0.0111563
0.00475018
0.00523512
0.00555501
0.00697291
0.00609111
0.00833117
0.00491586
-0.00477637
-0.00520887
-0.0079127
-0.00590811
-0.00536005
-0.00620085
-0.00781241
-0.00660157
-0.0182058
-0.0194486
-0.0174621
-0.0159119
-0.0201251
-0.0219282
-0.0043582
-0.0075866
-0.0114112
-0.0112086
-0.0132076
-0.00981049
-0.0144
-0.0161504
-0.0187412
0.00582837
0.00888705
0.000996443
0.0104916
0.0109888
0.0131275
0.0125102
0.010073
0.00889257
0.010497
0.0112939
0.012987
0.0135563
0.0134764
0.0127451
0.00470035
0.00541657
0.00572048
0.00708988
0.00609445
0.00777349
0.00566525
-0.00452003
-0.00450186
-0.00540422
-0.00510622
-0.00610258
-0.00704915
-0.0081603
-0.00664038
-0.0207228
-0.0221334
-0.0200995
-0.0166796
-0.0221005
-0.0204502
-0.0236132
-0.00303898
-0.00917669
-0.0138214
-0.0104364
-0.0116078
-0.014345
-0.0134927
-0.0171901
-0.0186506
0.0057734
0.00803821
0.0108389
-0.00122556
0.00434634
0.0119737
0.0118384
0.0145082
0.0129813
0.0106702
0.0103984
0.00924451
0.0120812
0.0146611
0.0148106
0.0146216
0.014113
0.00433101
0.00536088
0.00535793
0.00688075
0.00644346
0.00566357
0.00810196
0.00498245
-0.00467483
-0.00916333
-0.00543428
-0.00515198
-0.00569827
-0.00677337
-0.00785028
-0.00583827
-0.0220056
-0.0243011
-0.0220152
-0.0199039
-0.0241719
-0.0223168
-0.0257946
-0.00579837
-0.0115919
-0.0140424
-0.00978654
-0.0125664
-0.0109008
-0.0158169
-0.0144347
-0.0172997
-0.0203814
0.00918336
0.0100733
0.0126701
-0.000398551
0.00529767
0.0139822
0.0146061
0.0152647
0.013955
0.0114842
0.0100544
0.0114295
0.00869392
0.0122029
0.0160638
0.0161498
0.0159791
0.015722
0.00443799
0.00505442
0.00535232
0.00717586
0.00615562
0.00553201
0.00776758
0.00615318
-0.0043905
-0.00468937
-0.00511072
-0.00459159
-0.00568407
-0.00578093
-0.00710059
-0.00826691
-0.00559618
-0.024858
-0.0266742
-0.0256272
-0.0207739
-0.0261465
-0.0242748
-0.022304
-0.0282239
-0.00627938
-0.0109857
-0.0169492
-0.00902776
-0.0126546
-0.0108313
-0.0157879
-0.014193
-0.0186456
-0.0203549
0.0107966
0.0125298
0.0159794
-0.00245159
0.00297444
0.00878592
0.0157544
0.0164239
0.015144
0.0147897
0.0130825
0.0103274
0.0118844
0.00887462
0.0177414
0.0175799
0.0171071
0.0170369
0.00473614
0.0046855
0.00503366
0.00689822
0.00572773
0.00639546
0.00514682
0.00804258
-0.00866737
-0.00513825
-0.00501012
-0.00433803
-0.00525295
-0.00545768
-0.00670004
-0.00764364
-0.00503632
-0.027105
-0.0291909
-0.0281745
-0.0245104
-0.0284886
-0.0261134
-0.0242247
-0.0307293
-0.00519852
-0.012757
-0.0172289
-0.00928853
-0.0118511
-0.0100313
-0.0167919
-0.0145449
-0.0183561
-0.0219977
0.0141168
0.014477
0.0179066
-9.72477e-05
0.003831
0.0100369
0.0176114
0.0175413
0.0165195
0.0152464
0.0134013
0.00974351
0.010944
0.0127408
0.0115143
0.00925271
0.0193842
0.0191025
0.018739
0.0188715
0.00474023
0.00471517
0.00498831
0.00714403
0.00542536
0.00610357
0.00510209
0.00774792
-0.00464042
-0.00476692
-0.00471867
-0.00500495
-0.00487058
-0.00587935
-0.00676513
-0.008404
-0.00470073
-0.030498
-0.0323679
-0.0316362
-0.0291188
-0.0212167
-0.0275202
-0.030787
-0.0284051
-0.0260517
-0.0241455
-0.034648
-0.00697161
-0.0156565
-0.0120878
-0.0098335
-0.0163675
-0.0134434
-0.0198425
-0.0218263
0.0161704
0.0170571
0.0196698
-0.000839059
0.00672713
0.0132033
0.0194492
0.0187895
0.0168372
0.0150642
0.0142259
0.010091
0.0109387
0.0130785
0.0122634
0.0089949
0.0208899
0.0209449
0.0197887
0.0207935
0.00600341
0.00431229
0.00443539
0.00677289
0.00524499
0.00552097
0.0062998
0.00449527
0.00801646
-0.00492694
-0.00421073
-0.00472313
-0.00459751
-0.00470673
-0.00455798
-0.0054989
-0.00644968
-0.00794827
-0.00439702
-0.0338529
-0.0355447
-0.0344367
-0.0235562
-0.0289062
-0.0329348
-0.0310012
-0.0280793
-0.0258828
-0.0379929
-0.00716278
-0.0166145
-0.011155
-0.0088306
-0.0169705
-0.013568
-0.0194334
-0.0230824
0.0191866
0.01566
0.0190834
0.0218845
0.0204953
-0.00368716
0.00304902
0.00693152
0.0136468
0.0193445
0.0178568
0.0160426
0.0141338
0.00962215
0.011314
0.0123271
0.00857337
0.0225681
0.0223944
0.021273
0.0230515
0.00453853
0.00398257
0.00694973
0.00522398
0.00519431
0.00593119
0.00375876
0.00401032
0.00757643
-0.00760185
-0.0035342
-0.0046548
-0.00429624
-0.0040612
-0.00474907
-0.00392961
-0.00580126
-0.00629995
-0.00684454
-0.00399273
-0.0385001
-0.0382715
-0.0372267
-0.036978
-0.027899
-0.0210739
-0.0332595
-0.0363751
-0.0313097
-0.0278149
-0.0256001
-0.0407738
-0.0106262
-0.0139481
-0.011025
-0.00853682
-0.0181411
-0.0154559
-0.012365
-0.0218143
0.0221539
0.0190409
0.0217393
0.024615
0.0233274
-0.00261941
0.00271176
0.0104991
0.0180484
0.0213104
0.0190632
0.0173078
0.0156571
0.0145462
0.00966866
0.0108371
0.0128816
0.00876292
0.0241656
0.0224564
0.0243621
0.0246157
0.00663562
0.00453841
0.0065099
0.00548776
0.00565856
0.00484154
0.00597647
0.00367714
0.0043112
0.00773237
-0.0046134
-0.0034813
-0.00435529
-0.00395155
-0.00387358
-0.00385922
-0.0042872
-0.00371296
-0.00510748
-0.00570146
-0.0067078
-0.00378366
-0.0415795
-0.0427286
-0.0416966
-0.0429106
-0.0304719
-0.0231559
-0.0347702
-0.038209
-0.0330326
-0.0310481
-0.0267726
-0.0454304
-0.00896581
-0.0165034
-0.0100228
-0.00893789
-0.00730241
-0.018487
-0.0162901
-0.0132645
-0.022424
0.0243187
0.0234089
0.0224382
0.027283
0.0253762
-0.00463805
0.00492976
0.0108714
0.0201575
0.0225307
0.0199469
0.0181525
0.0162306
0.0140781
0.0100563
0.0112369
0.0121347
0.0134835
0.00839075
0.0263123
0.024518
0.0262754
0.00744771
0.00662004
0.00425247
0.00526667
0.00470126
0.00561734
0.00699796
0.00437772
0.00718299
-0.00845511
-0.0034421
-0.00411594
-0.00375081
-0.00339127
-0.00342776
-0.00437427
-0.00383812
-0.00373119
-0.00335419
-0.00534252
-0.00542729
-0.00339941
-0.0455975
-0.0472064
-0.0452261
-0.0426592
-0.0463578
-0.0308653
-0.0271277
-0.0205431
-0.0388341
-0.0423527
-0.0357282
-0.0315267
-0.0251139
-0.0292931
-0.0465193
-0.0480857
-0.0121286
-0.0101347
-0.00809345
-0.00673468
-0.0186183
-0.015282
-0.0123248
-0.020809
0.0274845
0.0267525
0.0249646
0.0284171
0.0288932
0.0282616
-0.00212549
0.00274867
0.014107
0.0196631
0.0249041
0.0239814
0.0213705
0.0193356
0.0178472
0.0152001
0.0170572
0.00973914
0.0108434
0.0125764
0.0137443
0.00856104
0.0285626
0.0253391
0.028251
0.00617336
0.00259322
0.00510227
0.00503142
0.00577054
0.00527832
0.00741438
0.00727812
-0.00404119
-0.00345478
-0.00360906
-0.00326018
-0.00316799
-0.00329601
-0.0041897
-0.00361391
-0.00322507
-0.0030115
-0.0049944
-0.00459577
-0.00589313
-0.00328935
-0.0488383
-0.0500325
-0.0486639
-0.0514972
-0.0356245
-0.0280423
-0.0225194
-0.0400256
-0.0437346
-0.037444
-0.0351071
-0.025484
-0.0300141
-0.0509381
-0.0533976
-0.0129279
-0.00896265
-0.0108175
-0.00811882
-0.0070234
-0.0173033
-0.0154254
-0.0139333
-0.0230857
0.0289656
0.0291038
0.031636
0.0321933
0.0300809
-0.00449112
0.00544739
0.01767
0.0102033
0.0264465
0.0287929
0.0245538
0.0220237
0.0200781
0.0190834
0.0153323
0.0171337
0.00905532
0.0109404
0.0121661
0.0145233
0.00782537
0.0293737
0.0273253
0.0290942
0.00617756
0.000447173
0.00465217
0.00563386
0.00540553
0.00502288
0.00784266
0.00676722
-0.00667062
-0.0030228
-0.00344815
-0.00286598
-0.00262116
-0.00298144
-0.00414768
-0.00389541
-0.00286738
-0.00307144
-0.00280648
-0.0048119
-0.00433437
-0.00519093
-0.00301914
-0.0534864
-0.0553947
-0.0456242
-0.0538818
-0.0559148
-0.0356548
-0.031594
-0.0192343
-0.0410745
-0.0499307
-0.0361255
-0.0277872
-0.0332443
-0.0560726
-0.0572452
-0.00905932
-0.00826215
-0.0104509
-0.00698663
-0.00610606
-0.0179277
-0.013349
-0.0223056
0.0323529
0.0332586
0.03404
0.0349326
0.0332019
-0.000806345
0.00357858
0.0203387
0.0124921
0.0292277
0.033516
0.0234741
0.026196
0.0212454
0.019196
0.0163058
0.0180022
0.00908444
0.0102448
0.0125861
0.0145924
0.00778709
0.0316045
0.0289476
0.0273615
0.0315232
0.00573583
0.00505732
0.00464574
0.0055828
0.00540698
0.00504703
0.00481736
0.00678885
-0.00385152
-0.002703
-0.00314109
-0.00283448
-0.00268141
-0.00237767
-0.00288597
-0.0036893
-0.00310253
-0.00284559
-0.00257523
-0.00252466
-0.00462112
-0.0036454
-0.005345
-0.00444915
-0.0029958
-0.0577441
-0.0590279
-0.0490441
-0.0584409
-0.0617229
-0.0421075
-0.0325475
-0.021518
-0.0421008
-0.0520059
-0.0397169
-0.0279329
-0.0342602
-0.061134
-0.0631906
-0.0103583
-0.00700567
-0.00887625
-0.0113405
-0.00662958
-0.0199264
-0.0160415
-0.0139183
-0.0232625
0.0345915
0.0352407
0.0370677
0.0378635
0.034706
-0.0027472
0.00813169
0.0169278
0.0247376
0.0279725
0.0339521
0.0366724
0.0239964
0.0266786
0.0217325
0.019998
0.0163327
0.0177919
0.00807041
0.0095148
0.0106827
0.0131844
0.0116789
0.0157139
0.0139965
0.0334975
0.031047
0.0292396
0.0338636
0.00575024
0.00814436
0.00408811
0.0036152
0.00498763
0.00475533
0.00449117
0.00642447
-0.00764517
-0.00337758
-0.00251416
-0.00253831
-0.00241512
-0.00250352
-0.00245953
-0.00262151
-0.00355648
-0.00297783
-0.00226967
-0.00287138
-0.00251121
-0.00211804
-0.00429156
-0.00366478
-0.00326285
-0.00495592
-0.00433397
-0.0029185
-0.0632268
-0.0654333
-0.0544618
-0.0633217
-0.0588644
-0.0667414
-0.0404055
-0.0324857
-0.0146462
-0.0274067
-0.0465027
-0.0545856
-0.039934
-0.0256581
-0.0316743
-0.0368857
-0.0681195
-0.0601738
-0.0683769
-0.00655542
-0.00821069
-0.0105056
-0.00569525
-0.0192856
-0.017074
-0.0131795
-0.0216142
0.0382366
0.0399787
0.0388099
0.038407
0.039566
0.0380049
-0.0014089
0.00862886
0.0184352
0.0243431
0.031796
0.0369939
0.0421174
0.0253375
0.0230609
0.0281718
0.0210752
0.0197543
0.0183794
0.0076096
0.00914576
0.0102225
0.0131939
0.0120405
0.0160264
0.014978
0.0355982
0.0330994
0.0296125
0.0346706
0.00587152
0.00507149
0.00442876
0.00376231
0.00476848
0.00491737
0.00440238
0.004522
0.00670442
-0.00642194
-0.00274773
-0.00247213
-0.00236681
-0.00219277
-0.00200375
-0.00230856
-0.00255373
-0.00283606
-0.00277093
-0.00200907
-0.00240738
-0.00217828
-0.00169549
-0.003862
-0.00335168
-0.00310833
-0.00432653
-0.00484024
-0.00350506
-0.00279365
-0.0683646
-0.0699038
-0.0586203
-0.0540218
-0.0703228
-0.0666182
-0.0733906
-0.0467944
-0.0388383
-0.0134353
-0.0261039
-0.0475549
-0.0538861
-0.0442616
-0.0269609
-0.0321782
-0.0363466
-0.0744466
-0.0659838
-0.0745598
-0.00632474
-0.0058143
-0.00684189
-0.00830998
-0.0114945
-0.00906341
-0.00504845
-0.0157867
-0.0131126
-0.0222523
0.041177
0.0438817
0.0427378
0.042281
0.0440232
0.0403472
0.00408505
-0.00681497
0.0155562
0.0284897
0.032876
0.0429931
0.0466116
0.0255693
0.0234957
0.0283347
0.0223011
0.0205036
0.0178058
0.00826176
0.00952333
0.0105315
0.0136428
0.0114671
0.0168804
0.0147
0.038051
0.0336711
0.0314832
0.0374341
0.00554412
0.00474518
0.00801606
0.00377097
0.00450637
0.00444141
0.00414118
0.00426847
0.0064036
-0.00293706
-0.00222751
-0.00214479
-0.00202408
-0.00164795
-0.00181231
-0.00227507
-0.00262176
-0.00245264
-0.0018858
-0.00203193
-0.00237934
-0.00227276
-0.00200368
-0.0016674
-0.00164607
-0.00351394
-0.00287613
-0.00287689
-0.00390536
-0.00413566
-0.00329237
-0.00352834
-0.00204337
-0.0738301
-0.0763993
-0.0635615
-0.0584915
-0.0709824
-0.07478
-0.0704669
-0.0785866
-0.0394992
-0.0186964
-0.0315463
-0.0550444
-0.0455253
-0.0301189
-0.0249671
-0.038764
-0.0748057
-0.0804859
-0.0637266
-0.0707811
-0.0803555
-0.00535481
-0.00516259
-0.00640875
-0.00731982
-0.01064
-0.00874757
-0.00480987
-0.0165205
-0.0138167
-0.0115565
-0.0202489
0.045848
0.049526
0.0462851
0.045103
0.0465985
0.0430284
0.00650126
-0.00649391
0.0170705
0.0289176
0.0384143
0.0449646
0.0533777
0.0267947
0.0245101
0.0292613
0.0222558
0.0197007
0.0213592
0.0185395
0.00790402
0.00900686
0.00998525
0.0129946
0.0119047
0.0168306
0.0151018
0.0387178
0.0352918
0.0315445
0.0384377
0.00549459
0.00423525
0.00427474
0.0042293
0.00417841
0.00386955
0.00377494
0.0068106
0.00575065
-0.00463901
-0.00206412
-0.00213689
-0.00187668
-0.00186954
-0.00186563
-0.00175396
-0.002237
-0.00257575
-0.00224243
-0.00161979
-0.00177078
-0.00210573
-0.00187076
-0.00162339
-0.00146179
-0.0013919
-0.00297348
-0.00276996
-0.0028497
-0.00251251
-0.00368756
-0.00384582
-0.00282562
-0.00309204
-0.00278272
-0.00210398
-0.0803603
-0.0658738
-0.0600402
-0.0780019
-0.080717
-0.0772128
-0.0852807
-0.0476727
-0.0163371
-0.0318683
-0.0593902
-0.0496111
-0.0427708
-0.0302405
-0.0246558
-0.0371858
-0.0824046
-0.0871708
-0.0698313
-0.0741991
-0.0867565
-0.00498093
-0.00486978
-0.00542258
-0.00643479
-0.0069929
-0.0092964
-0.00767253
-0.00412627
-0.0150864
-0.0181271
-0.0129637
-0.0107259
-0.0217981
0.0497895
0.0544035
0.0499331
0.0492328
0.0457169
0.0507434
0.0421438
0.00426043
-0.00125936
0.0217618
0.0268317
0.0380248
0.0497396
0.058095
0.0267928
0.0246671
0.0301134
0.0281938
0.0236787
0.0202849
0.0216703
0.0180867
0.00739187
0.00899498
0.0105298
0.0134299
0.011418
0.0160898
0.0144952
0.035425
0.0369141
0.0336697
0.0406981
0.00483023
0.00423145
0.00427944
0.006222
0.00390939
0.00384272
0.00369274
0.00343254
0.00636712
0.00543833
-0.00185345
-0.00184577
-0.00172968
-0.00167397
-0.0016226
-0.00150769
-0.00193591
-0.00231808
-0.00258536
-0.0019204
-0.00161689
-0.00158513
-0.00163767
-0.00179697
-0.00172068
-0.00142692
-0.00141082
-0.00130637
-0.0013616
-0.00265385
-0.00250531
-0.00237107
-0.002195
-0.00307744
-0.00335697
-0.00257767
-0.00279427
-0.00279939
-0.00432519
-0.00175999
-0.0858738
-0.0754743
-0.0552171
-0.0700786
-0.0829226
-0.0850994
-0.0810555
-0.0905648
-0.0398257
-0.0196025
-0.0265763
-0.0604259
-0.0494114
-0.0443225
-0.0272297
-0.0330795
-0.0417743
-0.0836423
-0.0887189
-0.0917669
-0.0694233
-0.0790671
-0.0921785
-0.00415108
-0.00430248
-0.00510602
-0.00570348
-0.00600508
-0.00872002
-0.0072076
-0.00396173
-0.0132031
-0.0151824
-0.0185141
-0.0112181
-0.00927863
-0.0207631
0.0541401
0.0600592
0.0537615
0.052218
0.0484266
0.0539173
0.0437125
0.00989947
-0.00299738
0.0179399
0.0324613
0.0429489
0.0541121
0.0487866
0.0659806
0.0258006
0.0303022
0.028337
0.0240101
0.0197085
0.0223953
0.0185138
0.00771488
0.0085205
0.00999868
0.0127461
0.0117869
0.0167569
0.0148782
0.0369306
0.0389202
0.0337664
0.0425328
0.0409589
0.00422641
0.00455415
0.00389969
0.00380942
0.00359075
0.00369641
0.00352248
0.00352027
0.00335489
0.00637682
0.00559784
-0.00173198
-0.00176898
-0.00147652
-0.00150005
-0.00149624
-0.00137231
-0.00180643
-0.00204877
-0.00201921
-0.00179478
-0.00129574
-0.00151115
-0.00144144
-0.00147852
-0.00174223
-0.00165124
-0.00136712
-0.00111155
-0.00106368
-0.00104297
-0.0022115
-0.00221329
-0.0021669
-0.002068
-0.00299454
-0.0030675
-0.00243798
-0.00214438
-0.00239946
-0.00200583
-0.0910551
-0.0769066
-0.0814634
-0.0581568
-0.0745476
-0.0884181
-0.0909856
-0.0866357
-0.0964592
-0.0431502
-0.0150948
-0.0289757
-0.0648569
-0.0568518
-0.0523123
-0.0262035
-0.0333124
-0.0415873
-0.0894804
-0.0943897
-0.0985614
-0.0752104
-0.0795904
-0.0961679
-0.0038497
-0.00381836
-0.00399141
-0.00429665
-0.00542284
-0.00562199
-0.00761968
-0.00619638
-0.00322652
-0.0115584
-0.0134986
-0.0166979
-0.0101623
-0.00851832
-0.0208755
0.0585636
0.0649063
0.0576378
0.0570702
0.0523237
0.046678
0.0590779
0.00635122
-0.00836891
0.0217301
0.0299115
0.0416897
0.0596151
0.0546945
0.068038
0.0704739
0.0260491
0.0309383
0.0272715
0.0233053
0.0252724
0.0203019
0.0220534
0.0179338
0.00709553
0.00848028
0.0110951
0.00909889
0.0128287
0.0161431
0.0140137
0.0387725
0.0364218
0.0324489
0.0442694
0.0431493
0.00383719
0.00425497
0.00349018
0.00353678
0.00647137
0.00340209
0.00330171
0.0034022
0.00289467
0.00582623
0.00511696
-0.00150453
-0.00160459
-0.00138767
-0.00139443
-0.00130279
-0.00131609
-0.00119419
-0.00146534
-0.00183653
-0.00194441
-0.00170152
-0.0011754
-0.00109975
-0.001259
-0.0012981
-0.00142764
-0.0016378
-0.000986908
-0.00103231
-0.00105584
-0.00105864
-0.000914313
-0.00186098
-0.00200209
-0.00204329
-0.00185523
-0.00229203
-0.00246366
-0.00287938
-0.00194427
-0.00220769
-0.00196334
-0.00210977
-0.00390649
-0.0973956
-0.0867085
-0.0877783
-0.0515419
-0.0678335
-0.0862838
-0.0890018
-0.0926117
-0.0959497
-0.0916182
-0.102109
-0.036526
-0.0205156
-0.0647957
-0.0589561
-0.0502021
-0.0276408
-0.0227089
-0.0371791
-0.0303975
-0.04368
-0.0896617
-0.0949256
-0.0990611
-0.10082
-0.101126
-0.0758747
-0.0852275
-0.0981981
-0.00307488
-0.00319826
-0.00332923
-0.00408417
-0.00460632
-0.00470867
-0.00688558
-0.00568217
-0.0118859
-0.00997706
-0.0130791
-0.0160451
-0.00892594
-0.00722637
-0.0182919
0.0627359
0.0692083
0.0620731
0.0606758
0.0545706
0.0484775
0.0622061
0.00867253
-0.00559261
0.0170659
0.0358998
0.0469852
0.0661742
0.0568095
0.0770762
0.0777012
0.0299704
0.0275162
0.0239117
0.0257024
0.0212265
0.0196506
0.0232293
0.0184211
0.00707266
0.00780468
0.0111554
0.00932764
0.0120332
0.0165282
0.0142447
0.0407139
0.037251
0.0330413
0.046516
0.0432742
0.00394266
0.00365592
0.00416143
0.00394891
0.00309279
0.00315325
0.0033409
0.00327087
0.00301029
0.00323582
0.00265877
0.0053502
0.00568733
0.00460011
-0.00138752
-0.00150096
-0.00140349
-0.00122337
-0.00117893
-0.00115038
-0.00119529
-0.00102814
-0.00174232
-0.00170374
-0.00148383
-0.00170278
-0.00117477
-0.000957272
-0.00111408
-0.00121513
-0.0014182
-0.00151275
-0.000905072
-0.000887126
-0.000875728
-0.000883239
-0.000730941
-0.000963361
-0.00165412
-0.00161608
-0.00160308
-0.0015839
-0.00173217
-0.00192194
-0.00224506
-0.00246516
-0.00160005
-0.00174999
-0.00172537
-0.00147824
-0.102611
-0.0920896
-0.0929329
-0.0545688
-0.0696149
-0.0909099
-0.0954527
-0.0995044
-0.103683
-0.0978389
-0.108009
-0.0383618
-0.0211916
-0.0668686
-0.055844
-0.0467224
-0.0256623
-0.0217585
-0.037819
-0.0313096
-0.0423274
-0.096541
-0.0984485
-0.106027
-0.106417
-0.107797
-0.0712743
-0.0821
-0.0868396
-0.105517
-0.00282118
-0.00272756
-0.00289131
-0.00336917
-0.00425501
-0.00411964
-0.00585891
-0.0046028
-0.0100583
-0.00894933
-0.0111557
-0.0143948
-0.00794145
-0.00635967
-0.0188278
0.0676138
0.0758627
0.0659649
0.0662848
0.0515458
0.0578363
0.0611124
0.0677252
0.00319942
-0.0120841
0.0194731
0.0332596
0.0437128
0.0538648
0.06957
0.0647785
0.083963
0.0792823
0.082182
0.0285376
0.0306008
0.0266813
0.0248173
0.0215979
0.0206274
0.0233868
0.0178118
0.00628448
0.00757009
0.0103494
0.00860314
0.0118457
0.0155458
0.0135219
0.0405181
0.038978
0.0359266
0.0343213
0.0318312
0.0478553
0.0449376
0.00309127
0.00331509
0.00373062
0.00356776
0.00303281
0.00295813
0.00296512
0.00705511
0.00303401
0.00282462
0.00304069
0.00295366
0.00496596
0.00495067
0.00442656
-0.00119304
-0.00133118
-0.00128252
-0.00107735
-0.00103433
-0.00110236
-0.00095654
-0.00102239
-0.000888951
-0.00264102
-0.0014898
-0.00146764
-0.00113351
-0.000831938
-0.000845792
-0.000813124
-0.00142524
-0.00143225
-0.000982367
-0.000839645
-0.000780141
-0.000877783
-0.000781307
-0.000652621
-0.000837791
-0.00144364
-0.00157672
-0.00130482
-0.00153127
-0.00148606
-0.0017008
-0.00217073
-0.00129701
-0.00156337
-0.00130595
-0.00131048
-0.10813
-0.101281
-0.102178
-0.0481185
-0.0631823
-0.0802793
-0.103348
-0.100336
-0.10915
-0.102763
-0.115558
-0.0304222
-0.0633873
-0.0561532
-0.048249
-0.026892
-0.0221893
-0.0345724
-0.029957
-0.0419562
-0.0979093
-0.10308
-0.106785
-0.112684
-0.109735
-0.108813
-0.112909
-0.0723998
-0.0826248
-0.0933562
-0.00215792
-0.00210524
-0.00224711
-0.00311176
-0.0035172
-0.00323091
-0.00504006
-0.00402309
-0.00860379
-0.00818144
-0.0104714
-0.0137304
-0.00666197
-0.0052728
-0.0167202
0.0717316
0.0811473
0.0702324
0.0524016
0.0572419
0.0643602
0.0722041
0.00847788
-0.0108527
0.025728
0.0405141
0.0494522
0.0594504
0.0762463
0.0680192
0.0908538
0.0876645
0.0905222
0.0284699
0.0296253
0.0267448
0.02498
0.0225365
0.0203527
0.0243806
0.0183788
0.00619293
0.0078389
0.00667785
0.0106192
0.00892058
0.012412
0.0161223
0.0136567
0.0425525
0.0395129
0.0376824
0.0343714
0.031818
0.0467367
0.0505137
0.0442577
0.00285806
0.00292777
0.00368388
0.00344245
0.00286807
0.00277685
0.00265429
0.00250664
0.00277834
0.002568
0.00268153
0.00505515
0.00448179
0.0051258
0.00407211
-0.00107599
-0.00110117
-0.00110998
-0.000848632
-0.000877591
-0.000955036
-0.000847769
-0.0009535
-0.000869286
-0.000784893
-0.00146363
-0.00124694
-0.00124134
-0.00161852
-0.000939759
-0.00119611
-0.00080867
-0.00161442
-0.00111507
-0.000341415
-0.000737965
-0.000628662
-0.000699703
-0.00062562
-0.000764712
-0.000578587
-0.00114963
-0.00138707
-0.00132688
-0.00117797
-0.00137414
-0.00134094
-0.00144555
-0.00162388
-0.000935692
-0.00124975
-0.000589099
-0.000871088
-0.113548
-0.104325
-0.10663
-0.108106
-0.0509005
-0.0677982
-0.0793719
-0.101823
-0.113843
-0.106485
-0.114205
-0.117997
-0.120378
-0.0309883
-0.0587781
-0.0678009
-0.0521703
-0.045066
-0.0240535
-0.0195905
-0.0377685
-0.0297949
-0.105231
-0.10806
-0.115893
-0.117609
-0.115564
-0.114583
-0.118968
-0.0768586
-0.0887326
-0.0943987
-0.00199749
-0.00153668
-0.00150912
-0.00194591
-0.00242879
-0.00302131
-0.00253255
-0.00321184
-0.00772536
-0.00653809
-0.0115924
-0.00844381
-0.0145753
-0.00588517
-0.00428087
-0.016968
0.0773209
0.0867842
0.0750864
0.0545942
0.0608021
0.0677984
0.0721047
0.0778468
0.00677627
-0.0203684
-0.00168511
0.0246833
0.0475972
0.036332
0.0580232
0.0803521
0.0753864
0.0984175
0.0913466
0.0935708
0.0979217
0.0278593
0.0297889
0.0272488
0.0257956
0.0226859
0.0217017
0.0193538
0.0246047
0.0175855
0.00559582
0.00737451
0.00621834
0.00982021
0.00842146
0.0117525
0.0155027
0.014363
0.0125643
0.0428011
0.0409154
0.0372378
0.0329603
0.0355577
0.0307045
0.0481454
0.0515055
0.0468131
0.00257154
0.00267296
0.00371825
0.00308761
0.00290749
0.00260162
0.00258226
0.00249093
0.00227612
0.00264591
0.00239632
0.00232239
0.00295554
0.00422375
0.00437537
0.00409879
-0.000930486
-0.000979326
-0.00100068
-0.000729146
-0.000724801
-0.000821703
-0.000777483
-0.00078468
-0.000718031
-0.000653261
-0.0021231
-0.0013123
-0.00192454
-0.00105612
-0.00100818
-0.000572589
-0.000306761
-0.00147139
-0.00132449
-0.000527082
-0.00064926
-0.000617032
-0.000672162
-0.000516401
-0.00067007
-0.000423159
-0.000853403
-0.0012161
-0.00102073
-0.00116266
-0.000986671
-0.000862331
-0.000990726
-0.00130282
-0.000734774
-0.0011282
-0.000466974
-0.000628149
-0.000288747
-0.117509
-0.11441
-0.114993
-0.11987
-0.0613673
-0.0417763
-0.0885517
-0.115024
-0.126527
-0.113031
-0.116352
-0.126601
-0.129181
-0.028208
-0.0579064
-0.0659517
-0.0530355
-0.0445698
-0.020501
-0.0264709
-0.0355972
-0.0318688
-0.110232
-0.117283
-0.125062
-0.117727
-0.124502
-0.0764173
-0.0886619
-0.10102
-0.00141532
-0.00126868
-0.00126083
-0.000743018
-0.00123187
-0.00223411
-0.00154377
-0.0028666
-0.00592623
-0.00730417
-0.00537306
-0.0102849
-0.00848651
-0.0126384
-0.00459052
-0.00311741
-0.0152539
0.0791664
0.0889929
0.0547742
0.0608791
0.068022
0.0764365
0.0834105
0.0166947
-0.0127472
-0.000844518
0.0562531
0.0389452
0.0641754
0.0891521
0.077867
0.107124
0.0994731
0.102194
0.104184
0.0280476
0.0289757
0.0270569
0.0259554
0.0237373
0.0219726
0.0195839
0.0253119
0.0182893
0.00518919
0.00772509
0.00656605
0.00553095
0.0100316
0.00833499
0.0106721
0.0164242