/*--------------------------------*- C++ -*----------------------------------*\
| =========                 |                                                 |
| \\      /  F ield         | OpenFOAM: The Open Source CFD Toolbox           |
|  \\    /   O peration     | Version:  v2012                                 |
|   \\  /    A nd           | Website:  www.openfoam.com                      |
|    \\/     M anipulation  |                                                 |
\*---------------------------------------------------------------------------*/
FoamFile
{
    version     2.0;
    format      ascii;
    class       surfaceScalarField;
    location    "6";
    object      phi;
}
// * * * * * * * * * * * * * * * * * * * * * * * * * * * * * * * * * * * * * //

dimensions      [0 3 -1 0 0 0 0];
oriented        oriented;


internalField   nonuniform List<scalar> 
18781
(
0.223399
0.700582
0.822114
-0.598715
0.758779
-0.058197
0.211696
0.610418
0.353235
0.267813
0.490966
0.828946
0.72278
-0.511084
0.878231
0.88729
-0.534055
-0.359765
0.85073
0.469182
0.734889
-0.0121089
0.376206
0.134354
0.743877
0.436674
0.078322
0.772408
0.686628
-0.217447
0.869242
-0.696529
0.68442
-0.320323
0.110504
0.633374
0.95157
-0.514896
0.76495
0.882912
0.624293
0.387678
0.481564
0.970976
-0.286556
0.631247
1.02105
0.465275
-0.0229873
0.787938
-0.211107
1.09402
0.881251
-0.256958
-0.439075
0.920639
0.531902
-0.729356
0.4428
-0.0981088
0.747201
0.273851
-0.403582
0.868856
0.858264
0.57683
0.397801
0.696219
0.531294
0.444727
0.475912
0.877884
-0.345982
0.978164
-0.535364
-0.786245
0.688136
0.326758
0.420443
0.718578
0.576589
0.0826118
0.422069
0.436195
0.998899
0.724558
0.0838506
0.612368
1.2585
-0.316588
0.7925
0.561296
0.632181
0.152772
-0.261659
0.682102
0.456919
0.821794
-0.245205
0.904406
-0.391937
0.828132
0.629143
0.369757
0.240596
0.483962
0.712993
0.852964
0.86656
0.212284
0.580216
-0.161511
0.722807
0.934387
-0.302206
-0.582501
0.735274
0.553361
0.128741
0.669203
0.725524
0.321905
0.544275
0.283856
0.914032
1.03732
-0.113234
0.826227
0.0685198
0.784445
0.642094
0.224466
-0.334907
0.915123
0.772876
0.3879
-0.95272
0.650514
-0.217446
0.797944
-0.255083
0.980607
0.759177
-0.437272
0.92595
0.800798
0.247919
0.789403
0.894747
1.03236
0.883613
0.200062
0.715061
0.513407
0.259469
0.901307
1.07353
-0.423018
0.54173
0.998006
0.696867
0.543335
0.103528
0.822423
-0.086495
0.887293
0.779533
0.00987005
0.00164989
0.893097
0.365298
0.667066
0.627118
0.256495
0.788093
-0.0730315
-0.473315
0.732784
0.670091
0.231216
0.600217
-0.892307
0.469289
-0.350577
0.534829
0.463178
0.81091
-0.114043
0.862587
-0.319253
0.730645
0.735928
0.888943
0.565924
0.213609
0.544699
0.285296
0.607802
0.650594
0.13406
0.533006
0.841303
0.190812
0.597281
0.59706
0.578476
0.154308
0.809692
0.693996
-0.0937791
0.936066
-0.466777
0.512011
0.653989
0.491657
0.809935
-0.134369
0.865015
-0.19215
0.928077
0.155596
0.733347
0.699984
-0.480191
0.6938
0.0645073
0.0811183
0.526683
0.288827
0.361767
0.821833
0.706934
0.754469
-0.157188
-0.204289
0.801349
0.848304
0.605403
-0.689851
0.596072
0.246215
-0.874777
0.408
-0.362766
0.718497
-0.461598
0.953255
0.348337
0.672865
0.509836
0.418241
0.665432
0.814466
0.0542413
0.645743
0.542516
0.151284
0.88845
0.39476
0.427072
-0.0655324
0.772466
0.427842
0.326626
0.644161
0.0191323
0.829172
-0.156795
0.762197
0.918705
-0.322633
0.775174
-0.528959
0.807807
-0.399806
0.590489
0.448432
0.270065
0.725503
-0.377166
-0.0460266
0.718892
-0.285829
0.70407
-0.126604
0.792036
-0.0100798
0.824545
0.596757
0.151086
0.494657
0.599716
0.243645
0.644805
0.638406
0.578158
0.439313
0.72644
0.533102
-0.10526
0.596691
0.547999
0.0961626
0.937837
0.672377
0.380545
0.381653
0.452542
0.278847
-0.686718
0.286911
-0.0962285
0.704365
0.0211379
0.509967
0.433063
0.577466
0.781956
0.196075
0.62847
0.467509
0.129249
-0.065784
0.560441
0.403382
0.196334
0.84088
-0.119413
0.757819
0.458745
0.859542
0.402537
0.323903
0.248088
0.285014
0.442739
0.351458
0.245233
0.476707
0.416856
0.520981
0.0838792
0.588498
-0.162217
0.543869
-0.601805
1.05435
0.846632
-0.567785
0.774522
-0.487611
0.608136
-0.663145
0.684283
-0.153178
0.8356
-0.401757
0.979223
0.196515
0.585441
-0.144869
0.773339
0.401725
0.532631
0.14601
0.414431
0.547792
0.359382
0.481498
0.398322
0.359497
0.604755
0.412379
0.447162
0.736282
0.493321
0.43217
-0.147156
0.457127
-0.0143883
0.0113417
0.465366
0.745453
-0.328597
0.60486
0.426281
0.555211
0.244827
0.864022
0.190325
0.206738
0.120525
0.644216
0.0400667
0.68854
0.433843
0.374959
0.604264
0.571474
0.440571
0.293393
0.479946
-0.104923
0.506648
0.427708
-0.0576652
0.472097
0.0734499
0.474342
0.757704
0.774892
-0.268377
0.627873
0.336378
0.77854
0.535805
0.200478
0.348983
0.144338
0.224736
0.207434
0.309972
0.450977
0.435435
0.310018
0.535425
0.284103
0.320757
0.710384
0.168097
0.387115
-0.619615
0.864442
-0.697089
0.887413
0.803239
-0.596501
0.764741
-0.683446
0.723513
0.00509428
0.969648
0.543608
0.0606562
0.30755
0.263925
0.748121
-0.212283
0.692229
0.448982
-0.0800832
0.507791
0.201761
0.270336
0.422433
0.394259
0.579132
0.178572
0.18417
0.590722
0.459284
0.16859
0.538139
0.979018
0.369075
0.397206
-0.189772
0.334939
-0.024967
0.0752027
0.375775
0.630565
-0.19513
0.630776
-0.279763
0.815187
0.295986
0.414397
0.464083
0.462317
0.183624
0.167354
0.607651
0.168239
0.641714
0.0817985
0.79329
0.751951
0.217697
0.807532
0.812607
0.535837
0.876399
0.263089
0.185893
0.265645
0.242147
0.533425
0.0358961
0.386536
0.00937128
0.384888
-0.0102877
0.58942
0.637856
0.580434
-0.296479
0.465069
0.241659
0.510895
0.468123
0.0203483
0.348726
0.417554
0.145166
0.350808
-0.0816351
0.7122
0.620057
0.549141
0.0327249
0.381672
0.0394467
0.424636
0.249632
0.212686
0.825339
-0.641715
-0.683307
0.850661
-0.304221
0.911872
0.809953
-0.703798
0.785597
0.0894919
0.728591
0.576434
0.231098
0.706135
0.106472
1.11227
0.147534
0.728866
0.451538
-0.0922762
0.334423
0.183583
0.349842
0.384622
0.395908
0.292612
0.550712
0.0387082
0.467046
0.170809
0.727967
-0.0909884
0.556057
0.425242
0.707718
0.291317
0.126238
-0.213236
0.358402
0.137572
0.42303
0.289171
-0.197067
0.817124
0.581865
0.421119
0.168212
0.256424
0.417844
0.350257
0.142032
0.168238
0.850483
0.000177845
0.546262
0.714804
0.649205
0.136392
0.816561
0.751291
-0.0226995
0.937233
0.857763
0.425376
0.686895
-0.0287023
0.757568
0.381055
0.0704835
0.277549
0.0568742
-0.0465614
0.396403
0.0125445
0.372078
0.164622
0.231286
0.228962
0.0636497
0.0221095
0.528602
0.505755
-0.263015
0.433824
0.750077
0.334254
0.293043
0.685018
0.303861
-0.16465
0.290888
-0.0905497
0.448952
-0.233212
0.656242
-0.372916
0.662086
0.444209
0.348653
0.247713
0.173406
0.504137
0.324226
0.0936176
0.259708
0.726898
-0.584866
0.817443
-0.861601
0.861779
-0.439679
0.985941
0.558964
0.15584
-0.648727
0.785119
0.167834
0.0958229
0.84141
0.841483
0.0162802
-0.316059
0.741435
0.658193
-0.00537295
0.762941
0.334493
0.348032
0.285836
0.118327
0.278076
0.13091
0.241168
0.295532
0.294935
0.642409
-0.113806
0.510859
-0.00510404
0.44064
-0.00681577
0.744704
0.452581
0.378784
-0.0857413
0.830624
0.0323851
0.271476
0.284302
0.249727
0.0411602
0.247194
0.409048
0.130743
0.531343
-0.270953
0.715162
0.52206
0.27229
0.231847
0.0965929
0.227633
0.353325
-0.134702
0.232577
0.422099
0.542822
0.443119
0.288011
0.698662
0.633085
0.152034
0.826735
0.937306
0.525352
0.846904
0.21306
0.528374
0.871254
-0.0422084
0.805149
-0.0260341
0.360527
0.30514
0.0428922
0.286617
-0.000781094
-0.108787
0.386863
-0.011601
0.252769
0.136319
0.159213
0.210312
0.0846238
0.13044
0.511968
0.397053
0.435536
0.371968
0.0796474
0.665057
0.36684
0.282113
0.259875
0.249194
0.0351083
0.290354
-0.225989
0.473183
0.0262332
0.382814
0.845905
0.557576
0.296071
0.368883
0.527918
-0.0664925
0.294126
0.286833
-0.865662
0.73096
-0.488496
0.910596
-0.58294
1.02606
0.986673
-0.594302
0.746336
0.232433
0.335338
0.601968
0.86069
0.897173
-0.30285
0.831224
0.829045
0.381011
0.424138
0.279106
0.251741
0.329509
0.209531
0.352232
0.0346312
0.114311
0.138458
0.25063
0.243837
-0.517744
0.648185
0.591616
-0.120692
0.420511
0.0150241
0.421736
-0.0497676
0.53516
0.129897
-0.0243778
0.391218
0.268442
0.013671
0.119941
0.139934
0.321941
0.255419
0.0349348
0.0661704
0.407012
0.448985
0.620093
0.225812
0.249872
0.307704
0.0484396
0.320443
0.25899
0.268928
0.342565
0.883786
-0.152827
0.39529
0.327656
0.849073
0.176986
0.0891594
0.897514
1.00395
-0.257618
0.816806
-0.201909
0.803876
0.55784
0.695265
0.858833
-0.0276092
0.388994
0.440051
0.916171
0.813132
0.0169413
0.262165
0.321651
-0.0699102
0.239315
0.0901949
-0.0980502
0.307581
0.327854
0.356282
0.258399
0.121237
0.129393
0.145787
0.669187
-0.0210028
0.721513
0.29982
0.43676
0.34145
0.0973212
0.17112
0.26909
0.237255
0.180714
0.141227
0.215649
0.0385094
0.368503
0.0720016
0.376983
0.423061
0.197032
0.475684
0.379706
0.0370024
0.283441
0.295993
0.307437
0.100114
0.242451
0.851127
-0.58483
0.980121
-0.507663
0.835318
0.938232
-0.764422
0.941408
0.448043
0.449471
0.559188
0.14894
0.654937
0.70678
0.698237
0.290824
0.568009
0.679171
0.730875
0.769343
0.146828
-0.014852
0.827984
0.256256
0.192254
-0.180871
0.271066
0.12671
-0.0321403
0.359994
0.297665
0.0586171
0.0874726
0.170926
0.20871
0.275179
0.390116
0.279071
-0.446187
0.425184
0.653701
0.067812
-0.264417
0.564237
0.172343
-0.098782
0.440232
0.180828
-0.0097081
0.181924
0.0871661
0.156575
0.0806801
0.241341
-0.0426156
0.258264
0.028088
0.340415
0.405071
-0.0774744
0.500535
0.645074
0.0225041
0.45318
0.40221
0.0127703
0.270671
0.0329736
0.263019
0.340411
0.255221
0.266297
0.472458
0.0708966
0.373593
0.564639
0.954854
-0.0134457
0.823065
1.06338
-0.0417931
0.69673
0.656444
0.933194
-0.365184
-0.051647
0.730818
0.716023
-0.0552714
0.824615
0.800529
0.772713
0.180728
0.0755277
0.372983
0.173413
0.0976527
-0.125925
0.252635
0.265525
0.261212
-0.222438
0.281056
0.0198049
0.151121
0.0290574
0.179652
0.149254
0.457928
-0.220567
0.499638
0.118049
0.420884
0.00430017
-0.252413
0.424756
0.187819
0.106902
0.0739266
0.172216
-0.10379
0.190956
0.17638
0.187582
0.198726
0.154474
-0.0956527
0.436067
-0.0467189
0.45179
0.375706
0.325333
0.175203
0.351664
0.29341
0.355491
0.0263613
0.244309
0.28938
0.244758
0.0225628
0.232659
-0.574962
0.841259
0.793918
-0.32146
0.864815
-0.259375
0.824014
0.695479
-0.784459
0.771014
0.345271
0.477794
0.488414
0.645083
0.659701
0.159148
0.774046
0.365633
0.875171
0.816854
0.00776023
0.746099
0.0544298
-0.0870527
0.859765
0.248941
0.150544
-0.155673
0.253325
0.0969622
-0.0196911
0.285216
-0.0883503
0.349562
0.230601
0.0504547
0.180179
0.0879823
0.09167
0.237237
-0.236893
0.694821
0.200318
0.262745
-0.322688
0.440737
-0.366761
0.371061
0.102068
-0.182688
0.370507
-0.10716
0.181087
0.0650554
0.119673
0.0712838
0.146469
0.0299109
0.116419
0.0711632
0.221289
0.173763
-0.0192892
0.151895
0.284172
0.282528
0.169263
0.389303
-0.0135975
0.676997
0.564506
0.63868
0.341894
-0.0103414
0.254651
0.0866945
0.202686
0.331453
0.222317
0.834578
0.00668036
0.513118
0.0803554
0.179466
0.644548
-0.155824
0.851303
0.840619
-0.0696051
0.65726
0.907468
0.0903902
0.554693
0.750092
-0.0704721
0.844518
0.920326
0.788118
-0.0426971
0.859552
0.753859
-0.475336
0.529766
0.817068
-0.0293912
0.278332
-0.108426
0.258971
0.223934
-0.102322
0.199284
0.21091
0.196866
0.166874
-0.150133
0.200588
0.0873387
0.09284
0.179009
0.134915
0.219485
-0.271714
0.472032
-0.329581
0.592326
0.0739762
0.0993465
-0.255961
0.35803
0.114546
0.101221
0.0798664
0.184728
0.245047
0.0525016
0.0939675
0.14633
0.172384
0.201999
-0.13015
0.282045
0.0742851
0.209887
0.356813
0.511156
0.395025
0.281973
0.136649
0.427857
0.041255
0.597425
0.0619957
0.192655
0.264682
0.201303
0.020479
0.201838
0.914148
-0.430926
0.944044
-0.578897
0.659253
-0.11722
0.761767
0.684795
0.734083
-0.847722
0.778117
0.698515
0.753143
-0.743214
0.672742
0.166755
0.677763
0.177112
0.954873
1.02789
-0.168342
0.843698
-0.0898392
0.813669
-0.283903
-0.254439
1.07151
0.169906
0.108837
0.199926
0.0240083
-0.0255296
0.224814
-0.0107762
0.221686
-0.0869785
0.283844
-0.144435
0.31131
0.207457
-0.00686886
0.145342
1.29214e-05
0.178996
0.160848
-0.025933
-0.373799
0.593284
0.142451
0.218527
-0.333619
0.407595
-0.290072
0.389418
0.0244106
-0.216349
0.330894
-0.0940754
0.173942
0.0906526
0.08618
0.158867
-0.0643317
0.158299
0.081998
0.0590367
0.113347
0.222478
0.0763813
0.205664
0.286268
0.0375242
0.319288
0.211648
0.299508
0.00836586
0.386659
-0.152555
0.434528
0.348297
0.275301
0.605791
-0.0495137
0.242169
0.0944683
0.170213
0.295771
0.152325
0.483222
0.365147
-0.188469
0.0422316
0.719536
-0.200191
0.884986
-0.0690418
0.803125
0.700059
0.0780579
0.740747
0.930256
-0.167918
0.840659
-0.195852
0.873616
0.700434
0.449075
0.578819
0.675356
0.72383
0.309381
0.510293
0.561215
-0.0456067
0.215512
0.204751
-0.0959139
0.154319
-0.133339
0.157347
0.135318
0.0914749
0.196681
0.134707
0.139409
0.0949609
0.197882
0.145355
0.153063
-0.324935
0.467386
-0.419472
0.637999
0.117524
0.0644832
-0.248166
0.272577
0.0827284
0.0490795
0.124862
0.176833
0.140472
0.0183948
0.0998339
0.0584653
0.141035
0.0030258
0.110321
0.0647033
0.157775
-0.0819749
0.287639
0.323793
0.00329464
0.315994
0.302803
-0.0209407
0.407599
0.413587
0.261511
0.0867858
0.536812
0.151726
0.454065
0.102883
0.139286
0.273096
0.213796
0.217028
0.813033
0.69301
-0.327863
0.504541
-0.0605237
0.78006
0.499867
0.815945
0.742601
0.746394
-0.668336
0.0378541
0.702893
0.762338
0.644807
0.293223
0.580392
0.993657
0.959367
-0.459161
1.03798
0.936181
-0.260825
0.708969
0.0148612
-0.381462
0.690843
-0.415319
0.976534
0.119598
0.158428
-0.00410914
0.155041
0.00230607
0.162042
-0.0267237
-0.0463658
0.137841
0.142278
0.0544032
0.276985
-0.103812
0.243221
-0.219491
0.314451
0.197495
0.000386925
-0.00692671
0.152281
0.134234
0.0188291
0.0479135
0.256537
-0.202515
0.320039
-0.308608
0.373091
0.419134
-0.146557
-0.184918
0.267647
-0.0812423
0.130322
0.127888
0.0955903
0.033396
0.107076
0.17617
0.0929072
-0.0535703
0.112036
0.0874644
0.0406183
0.0697029
0.0519688
0.23567
0.0320709
0.291722
-0.0174275
0.333421
0.389589
0.559326
-0.12763
0.541218
0.409182
0.491919
-0.0521938
0.191479
0.191956
0.0811403
0.222775
-0.00897884
0.164834
0.485171
0.756337
-0.251796
-0.0337188
0.813778
-0.495181
0.995049
0.682553
0.133392
-0.0899942
0.832595
0.251212
0.0880008
0.669174
0.765208
-0.126441
0.771248
-0.353463
0.933855
0.578338
0.517088
0.44228
0.477021
0.442288
0.595691
0.448144
-0.653014
0.667875
0.0378293
0.505504
0.47103
-0.102356
0.221954
0.0560721
0.150932
-0.120389
0.122695
0.115676
0.10751
0.0174518
0.251899
0.173173
0.0237303
0.129533
-0.145958
0.146345
0.0789714
0.0733098
0.0978006
-0.446845
0.494759
-0.25897
0.515507
0.216618
0.0114313
-0.0737543
0.12109
0.00614674
0.124175
0.0592786
0.0686094
0.128986
-0.0517704
0.158847
0.124399
-0.0238423
0.116749
0.0881933
0.128083
0.128982
0.274744
0.267741
0.274294
0.0097271
0.323694
0.399316
0.237472
0.321854
0.241863
0.299355
0.39908
0.010102
0.729391
0.136138
0.0553411
0.182977
0.217279
0.0310446
0.13379
0.722398
0.470602
0.102692
0.711086
0.633146
0.361902
0.592558
0.766538
0.935288
-0.74681
0.998022
-0.612763
0.700763
-0.0960513
0.765225
0.638767
0.417785
0.385277
0.548578
0.963615
0.959376
0.947784
-0.474228
0.951249
-0.158464
0.754155
-0.413757
0.861901
0.254118
-0.400108
0.437937
-0.450825
0.921855
0.0759964
-0.0891283
0.1452
0.0618036
-0.023356
0.146051
0.0973436
0.0183326
0.123977
-0.0164673
0.114795
0.0438819
0.208017
0.194386
-0.0212127
0.218116
0.26585
-0.136317
0.242188
-0.0958433
-0.0324871
0.105797
0.102608
-0.00480784
0.516128
-0.0213693
0.257158
0.115399
0.284119
-0.0675007
0.29555
-0.298855
0.225101
-0.156169
0.277259
0.135133
0.0341753
0.0899998
0.102785
0.0695719
0.0892746
0.155444
0.0842624
-0.0134924
0.101686
0.11459
0.0983644
0.0306171
0.084334
0.19041
0.0365171
0.231224
-0.0173863
0.291681
0.236224
0.0874701
0.314932
0.0843832
0.563716
-0.165918
0.465273
0.233162
0.325035
0.63334
0.189131
-0.0919988
0.274976
0.12528
-0.129699
0.840785
-0.486105
0.848007
-0.351008
0.943566
0.415531
0.658862
0.276426
0.511917
0.635526
0.641925
1.05971
-0.341478
0.890056
0.512789
0.482497
0.476879
0.527352
0.420432
0.387673
0.79793
0.153319
0.639467
0.595428
0.158727
-0.313289
0.567407
0.738651
-0.300714
0.514241
0.407614
0.136575
-0.0605791
0.179438
-0.0342376
-0.0656799
0.127484
-0.0981488
0.0747928
0.080371
-0.0872363
0.105569
0.036741
0.0861411
0.0166467
-0.128221
0.172102
0.186804
0.268409
-0.0502929
0.109681
0.132092
0.113968
0.0407322
0.100989
0.367816
-0.389186
-0.145695
0.402853
0.425427
-0.310028
-0.333486
0.265986
-0.00330515
0.431775
-0.206674
-0.0562275
0.0366647
0.0984684
0.0129916
0.0770081
0.0703223
0.0324624
0.106237
-0.022646
0.111921
0.132798
-0.0236301
0.107893
0.0780555
0.0420647
0.0725257
0.0425409
0.0558235
0.100939
-0.132255
0.216589
0.226927
0.213837
0.19747
0.0942107
0.320607
0.28494
-0.0612279
0.624944
0.404045
-0.301269
0.534432
0.023765
-0.0220417
0.655381
-0.000754643
0.189885
0.142721
-0.0451956
0.170476
0.241363
0.599422
0.464779
0.383228
0.584213
0.359353
0.88031
0.900225
0.860639
0.509734
-0.0863108
0.721837
0.718232
0.390189
0.499867
0.902978
1.00985
1.07231
0.934673
-0.267334
0.655007
-0.635412
0.788731
0.499953
0.139514
0.65868
0.425362
0.610745
-0.0433374
0.124713
-0.4983
0.905915
0.118859
0.0932459
-0.067013
0.141806
-0.0451089
0.12548
0.0741453
0.0314236
-0.0838055
0.120547
0.00233555
0.0907919
0.17647
-0.00436719
0.208913
-0.0221091
0.15862
0.251854
-0.142173
0.236521
-0.104429
0.179238
-0.0652698
-0.114441
0.155173
0.0868097
0.0141793
0.389788
-0.0219711
0.0425896
0.244092
0.0928252
0.31076
-0.0447749
0.307455
0.100781
0.195626
0.11146
0.109471
0.0225745
0.0836621
0.134495
0.132043
0.0593176
0.0485749
0.00329143
0.0747641
0.0846056
0.0758171
-0.032287
0.0881106
0.0686524
0.152657
0.0639324
0.0385833
0.188343
0.19769
0.0161473
0.291901
0.30089
0.0197169
0.208454
0.0764859
0.602903
-0.19701
0.601055
0.337422
0.324655
0.569071
0.14469
-0.0312277
0.173949
0.178393
-0.00791793
-0.389803
0.989225
-0.505845
0.889073
-0.495555
0.854908
0.384755
0.629835
0.27039
0.615844
0.244794
0.332034
0.720804
-0.189405
0.689272
0.404678
0.446227
0.563622
0.378917
0.69339
0.544963
0.389709
0.343411
0.0195946
0.511427
0.277303
0.650941
-0.315137
0.973817
0.409406
0.0159561
0.366069
-0.313625
0.438337
0.521251
0.384664
0.00441813
-0.0574845
0.15073
0.023779
0.0966969
0.0679954
-0.0507905
0.0822141
0.0697561
0.0891452
0.15436
0.17487
0.216815
-0.0581945
0.0943481
0.112386
-0.179175
0.113905
-0.024002
0.0734969
0.313316
-0.335287
0.345879
-0.30329
0.331798
-0.0877056
0.424623
-0.233823
0.189048
0.30739
-0.206609
0.268683
-0.0730564
0.0365879
0.0748721
0.0220271
0.0874434
0.12025
0.024361
0.110134
0.156404
-0.0339337
0.0825086
0.0408304
0.0275216
0.057084
0.0428581
0.032959
0.0437175
0.0443931
-0.00591786
0.0745703
0.19124
-0.120396
0.184328
0.204491
0.179037
0.112864
0.228171
0.255523
0.532308
0.0705947
0.427668
0.173388
-0.0506596
0.388081
-0.0790442
0.4037
0.518889
0.0501819
0.105226
0.0394642
0.147166
0.053553
0.0973076
0.221847
0.767378
0.333591
0.555482
0.589554
0.265355
0.718346
0.851682
0.886234
0.834348
0.850923
0.531399
0.509207
0.180065
0.913885
0.99119
0.942539
-0.0198504
0.71324
0.91096
0.554949
-0.211539
0.574544
0.674083
-0.396779
0.335804
0.707094
0.266723
-0.290863
0.306819
0.417171
-0.0511026
0.110998
0.530974
-0.092637
-0.555374
0.940038
-0.108107
0.112525
0.0426233
-0.0781421
0.101921
0.0937492
0.00294766
-0.0420879
0.110083
0.004072
0.0595425
0.0102136
-0.0168077
0.105953
0.182669
-0.0283084
0.143633
0.0312373
0.124474
0.249551
-0.155203
0.191625
-0.079239
-0.0818789
0.195784
-0.118967
0.0949646
-0.0113502
0.0848472
0.237264
0.0760519
0.010592
0.00410082
0.149559
0.0348598
0.342883
-0.153835
0.136274
-0.2324
0.159344
0.0968992
0.0815256
0.0472805
0.0729696
-0.000475381
0.11061
0.0776223
0.078782
0.0711584
0.0836885
0.0604806
0.00883237
0.0482516
0.0525499
-0.0129114
0.0573045
0.0616589
0.0207188
0.170521
0.136544
0.047784
-0.0154555
0.219946
-0.165327
0.278191
-0.108081
0.336252
0.147442
0.58249
0.498262
-0.280744
0.454132
-0.352368
0.301709
0.107337
0.257208
0.0513312
0.117086
0.107474
0.0396922
0.161027
-0.0490812
0.146389
0.0277066
0.739671
0.552222
-0.575571
0.840926
0.142775
0.254722
0.59696
0.549873
0.336361
0.613521
0.220827
0.831993
0.0189295
0.53442
0.714485
0.358511
0.391681
0.599509
0.338432
0.604107
0.687243
-0.0659858
0.779226
0.519441
0.39152
0.205633
0.645507
-0.0709636
0.38146
0.292623
0.248728
0.717264
-0.500567
0.76729
0.240112
0.398102
-0.0912828
0.346999
0.332036
-0.221038
-0.272966
0.180329
0.549988
0.390049
-0.0064414
-0.0712694
0.113893
0.115526
-0.0136053
0.0516613
-0.0603857
0.0633333
0.0388139
0.0636145
-0.0610936
0.0713073
0.0680394
0.0448593
0.115325
-0.125828
0.157065
0.197039
-0.0725642
0.0171507
0.0364219
0.1178
-0.140381
0.0585023
0.0699562
-0.0454167
-0.155333
0.231384
0.228144
-0.217552
-0.207255
0.211356
-0.122678
0.272236
0.252778
-0.217918
0.0989426
0.213816
-0.0775422
-0.0585741
0.0348392
0.06206
0.0140867
0.0674389
0.0821197
0.0724942
0.0463102
0.0642993
0.125092
-0.00210359
0.073262
0.0575895
0.026099
0.012951
0.0475296
0.0612026
0.000411522
0.0521383
0.057716
0.00322781
0.0584311
0.157263
0.155066
-0.123735
0.171519
0.0546192
0.146573
0.131619
0.294014
0.728683
-0.146194
0.466996
0.0312667
0.413829
0.0403026
0.269201
0.0325082
0.376538
0.301143
-0.0439354
0.352475
0.0680053
-0.108942
0.148634
0.0372918
0.0374467
0.8597
0.0837186
0.655953
0.694997
0.578193
0.262732
0.804595
0.680678
0.949882
0.79902
0.747613
0.716707
1.07522
0.911122
0.937941
-0.161897
0.766004
0.621258
0.617329
0.941508
-0.314706
0.520339
-0.44447
0.373506
0.543091
-0.250468
-0.194121
0.442849
0.216697
0.728192
0.039098
0.317243
-0.0771316
0.225961
0.0322925
0.0590699
-0.342665
0.121627
0.343898
-0.163569
-0.422065
0.812114
-0.0878387
0.0813973
0.0260539
0.0551407
-0.101906
0.0883006
-0.0299159
0.0815772
0.064749
-0.00141565
-0.0497249
0.0885388
-0.0382915
0.0330158
-0.00635788
0.0743973
-0.0390588
0.0839181
-0.0528314
0.168156
0.104234
0.0955919
-0.167861
0.185012
-0.160701
0.197123
-0.0429015
0.130899
-0.0723966
0.122874
-0.0529181
-0.112386
0.0669689
-0.271056
0.115724
0.108707
-0.0429123
-0.288448
0.0708958
0.00656088
-0.0770917
-0.0704288
-0.139519
0.238462
-0.221816
0.144274
-0.165088
0.106514
0.0761466
0.0706667
0.0213528
0.0607669
0.093847
-0.0399259
0.104225
0.0393059
0.0857863
0.0554859
0.0669041
0.0736286
-0.00240243
0.063605
0.0497359
0.00643205
0.0512839
0.0648631
0.0128724
0.14439
0.152925
0.00214086
0.0995264
0.0719923
0.207544
0.213153
-0.0815339
0.219986
0.0740276
0.320802
0.445096
-0.332787
0.37309
-0.282067
0.314575
0.0437502
0.176051
0.0704077
0.107311
0.104963
0.0436713
0.142255
-0.0892287
0.126675
0.429124
0.430576
1.08508
0.692055
0.954787
0.274242
0.530353
0.954921
0.36176
0.588122
-0.161665
0.960685
-0.119733
0.867346
0.653153
0.466365
0.444757
0.319586
0.618356
0.618254
0.14775
-0.0879646
0.709222
0.55407
0.0632587
0.413718
0.52779
0.0758694
0.447543
-0.074037
0.421441
0.121649
-0.513647
0.263179
0.253422
-0.0707974
0.638138
0.640227
-0.527748
0.566846
-0.313847
0.236715
-0.0783325
0.304293
-0.292349
0.324642
0.248359
-0.189289
0.27126
-0.149633
0.0300515
0.0847895
0.0295194
0.782595
-0.0309882
-0.066102
0.0921559
0.0649197
-0.00977901
0.0722309
0.0160698
0.0348331
0.0318523
0.063504
0.0224368
-0.0371382
0.070154
0.0353386
0.0467799
-0.0485005
0.152734
-0.0600118
0.155604
0.029262
0.0199235
-0.135585
0.092684
0.125497
0.0054016
-0.106908
0.0345116
0.133598
-0.0107241
0.0725792
-0.0399393
-0.11301
0.228734
0.209097
-0.10039
0.115005
-0.157918
0.199269
-0.128374
-0.157089
0.16365
-0.202867
0.125775
0.138669
0.0801276
-0.219647
0.0166458
-0.012815
0.181314
-0.0748
0.0201797
0.0559669
0.01497
0.0556967
0.0809467
0.0539211
0.0737266
0.0304987
0.0117708
0.0740156
-0.0159454
0.0714313
0.0436135
0.0232906
0.0576832
0.0450282
0.0185768
0.0133828
0.0363531
0.0646667
0.00621618
0.0586469
0.112399
0.146531
-0.036053
0.108045
0.245873
-0.0383286
0.145615
0.0675373
0.164339
0.219643
-0.365861
0.686663
0.0792349
0.456488
-0.0833979
0.272578
0.0419965
0.316329
-0.130587
0.306638
-0.239352
0.30976
0.0180824
0.108367
-0.0646954
0.148577
-0.00632248
0.0996276
0.0270479
-0.399421
0.829996
0.429121
0.655956
0.793122
0.892113
0.370146
0.584775
-0.263243
0.851364
0.697442
-0.651929
0.532196
0.467925
0.65504
0.78595
0.858475
-0.073142
0.691498
0.545112
0.70182
0.772481
-0.186824
0.714614
0.343977
-0.268107
-0.345466
0.271429
0.385711
-0.264062
0.44503
-0.181851
0.361125
-0.107703
0.290327
0.110391
0.7953
-0.155072
0.620106
-0.0532597
0.268703
-0.0319882
0.190371
0.011944
0.368661
-0.0440193
0.0819718
-0.255832
0.106199
0.263283
-0.233231
0.226154
-0.141364
0.68456
0.595771
0.0611677
0.0624518
-0.0514173
0.067487
-0.0384667
0.0732998
-0.0404207
0.072273
0.0250374
-0.0547656
0.0772025
0.0818278
-0.0116738
0.0789521
0.0561085
-0.0093286
0.0850979
0.0927225
0.0200183
0.182679
-0.153417
0.162831
-0.142908
0.166909
-0.0742246
0.0841109
-0.0787093
0.0991654
-0.0646538
-0.0919027
0.0811786
-0.0193235
-0.0942661
0.0543268
-0.206469
0.0934586
0.128343
-0.0914632
0.0413515
-0.197725
0.0693514
-0.0392172
-0.0719495
-0.117163
0.173699
-0.0935713
-0.0383329
-0.141236
0.157882
-0.145118
0.132303
0.0880315
0.0709369
0.0619128
0.0322326
0.0487141
0.0861537
0.0854974
-0.0493217
0.0798204
0.0920979
0.0308165
0.0406148
0.0541071
0.00754167
0.0501415
0.0525699
0.05493
0.0362533
0.0284135
0.00379092
0.054856
-0.0340578
0.146457
0.175509
-0.0289781
0.112524
0.0739875
0.137181
-0.151748
0.219286
0.0125903
0.089056
0.0347343
0.535723
-0.301097
0.217699
-0.2694
0.311397
0.0152317
0.0672859
0.0403596
0.0878186
0.0205481
0.0349322
0.0814961
-0.0398836
0.0669315
0.874042
-0.0440453
0.799267
-0.0259074
0.681864
0.790635
0.386132
0.505981
0.970906
0.313912
0.537452
-0.101894
0.799336
-0.117294
0.64949
0.742847
-0.274922
0.244042
0.541908
0.44639
0.412085
0.93554
-0.368199
0.913312
0.333621
0.481195
0.291286
0.498523
0.216091
-0.00148985
0.100554
0.350337
-0.0789074
-0.106369
0.49208
0.180968
-0.399527
0.217676
0.242634
-0.109199
-0.307417
0.417808
0.454113
0.341187
0.465033
-0.528485
0.475225
-0.231608
0.19962
0.221882
-0.0315113
0.233826
-0.309128
0.265109
0.253673
-0.171701
0.183912
-0.0777137
0.0316748
-0.00707741
0.112309
0.686448
0.574271
0.0214995
-0.0330984
-0.00362751
0.0660794
0.0304105
0.0616174
0.00586963
0.0328791
0.0175074
-0.0255181
0.0505555
0.0826083
-0.00540582
0.0444347
0.0489461
0.0300059
0.0396175
-0.0303633
0.115461
0.115279
-0.0225567
0.135297
0.0397714
0.0134911
0.0610729
0.0833706
0.000740305
0.020456
-0.0691423
0.00448855
0.108783
-0.0276047
0.0640471
-0.0148156
-0.115294
0.208752
0.170219
-0.041876
-0.154825
0.0633614
-0.113473
0.162158
-0.0928069
-0.15953
0.120313
-0.155618
0.0836687
0.0530559
0.0324627
0.0660276
-0.159599
-0.140965
0.102632
0.0127636
-0.0272268
-0.0529337
0.0198531
0.0510839
0.00648537
0.0554275
0.0685671
0.036832
0.0191613
0.0663361
0.0602364
0.019584
0.0890351
0.0030628
-0.0045907
0.0452055
-0.00184464
0.0559518
0.0455508
0.0392097
0.0133601
0.0165838
0.0383462
0.0400442
0.0449973
0.0241239
0.0307321
0.117479
0.0788103
0.033714
0.152798
0.206888
-0.0697075
0.150612
0.0686735
-0.130331
0.142921
0.239668
-0.483759
0.518493
0.0519642
-0.214343
0.432042
0.266674
0.0447224
0.281906
-0.198012
0.265298
-0.243944
0.284304
-0.0741006
0.0946487
-0.0517363
0.0866685
-0.0559118
0.137408
0.0491515
0.0151952
0.848134
0.698802
0.103791
0.695476
0.785654
0.688741
0.819894
0.275812
0.695094
-0.154312
0.691764
0.645024
-0.555314
0.43802
0.374568
0.988298
0.910608
0.227685
0.707855
0.543371
0.369941
0.814815
0.745399
0.790362
-0.236799
0.23531
-0.205486
0.306039
-0.317819
0.238911
-0.353927
0.247558
0.184663
-0.172959
0.361258
-0.143583
0.327271
-0.0846377
0.218072
-0.110677
0.628094
-0.286906
0.607791
-0.142758
0.50705
-0.0318244
0.234239
-0.0346194
0.202728
-0.0753018
0.0596227
0.0122109
0.101202
-0.178915
0.157151
-0.125476
-0.233863
0.226785
-0.121554
0.707948
0.0495099
0.0579899
0.0405612
-0.0304052
0.0608157
-0.0480439
0.0539135
-0.0239891
0.0568681
-0.036465
0.0539724
0.0474462
0.00310929
-0.059958
0.0545522
0.0596567
-0.0152221
-0.0207564
0.0507624
0.0526903
-0.0130728
0.07842
0.0923709
0.0230904
0.0698142
-0.101244
0.141015
-0.104636
0.118127
0.10086
-0.0397867
0.0539371
-0.0531968
0.0762832
-0.0558272
-0.0485943
0.0530828
-0.0889053
0.0613006
-0.0248582
0.0442065
-0.0590221
-0.176166
0.0608724
0.152874
0.0558785
0.110998
-0.112805
0.0486853
-0.156698
0.0638913
-0.0353052
-0.0730294
0.20706
-0.154005
-0.120462
0.152925
0.120483
-0.0544554
-0.0569666
-0.0993371
0.112101
-0.137999
0.110773
-0.12362
0.0706867
0.0575693
0.0179066
0.0375209
0.0337885
0.0347786
0.0706205
0.0793977
0.0693989
-0.0490395
0.0686234
0.0433608
0.0351953
0.00454885
0.041002
0.0437586
0.0517063
-0.00253006
0.0425742
0.0424672
0.0420305
-0.0145694
0.0453015
-0.0571487
0.174627
-0.0863123
0.120026
0.095649
0.0765575
0.10492
-0.100538
0.169212
0.191955
-0.0490338
0.0416563
-0.0368213
-0.445013
0.496977
0.0675626
-0.0129706
-0.275069
0.319791
0.0213539
0.00923475
0.0125679
0.0387369
0.0510955
0.0566099
-0.0074584
0.0718052
0.19336
0.654775
-0.142588
0.84139
0.971289
-0.121512
0.907167
0.686077
0.119681
0.700212
-0.171097
0.866191
0.811446
-0.123223
0.768247
0.567947
-0.129927
-0.220858
0.595426
0.248999
0.739299
0.238233
0.672375
0.771056
0.956854
-0.466222
0.836163
0.348593
0.516409
0.22899
0.620861
0.169502
0.0692401
-0.0825092
0.337893
-0.0989815
0.393861
-0.146302
0.378983
-0.19432
0.188299
-0.329835
0.186252
0.253255
-0.111763
0.268306
0.473649
0.154445
0.320885
0.364291
0.357271
-0.389095
-0.209193
0.174573
0.223987
-0.0212596
0.148685
-0.216015
0.275638
-0.190594
0.202805
-0.0893925
0.0281452
-0.0520418
-0.219539
0.0940628
0.00724655
-0.225177
0.103623
0.70956
0.0662193
-0.0167094
0.0528933
0.00509663
0.0453607
-0.00479946
0.0292516
0.0127719
0.0574547
-0.00354119
0.0234571
0.0204031
-0.00598561
0.04847
0.0659472
-0.0113951
0.0374682
0.0376896
0.0724879
0.00593211
0.0955783
-0.0546258
0.12444
-0.156064
0.0548199
0.0173948
-0.00377679