/*--------------------------------*- C++ -*----------------------------------*\
| =========                 |                                                 |
| \\      /  F ield         | OpenFOAM: The Open Source CFD Toolbox           |
|  \\    /   O peration     | Version:  v2012                                 |
|   \\  /    A nd           | Website:  www.openfoam.com                      |
|    \\/     M anipulation  |                                                 |
\*---------------------------------------------------------------------------*/
FoamFile
{
    version     2.0;
    format      ascii;
    class       volVectorField;
    location    "6";
    object      U;
}
// * * * * * * * * * * * * * * * * * * * * * * * * * * * * * * * * * * * * * //

dimensions      [0 1 -1 0 0 0 0];


internalField   nonuniform List<vector> 
11941
(
(1.00008 0.000152579 -9.49869e-24)
(1.00011 0.000304506 3.90126e-24)
(1.00017 0.000268835 1.28277e-23)
(1.00018 0.000647304 -4.86164e-25)
(1.00004 0.000139575 0)
(1.00021 0.000632852 -5.03518e-24)
(1.00011 7.24607e-05 2.05231e-23)
(1.00014 0.000713598 -1.47634e-24)
(1.00025 0.000795613 4.59216e-24)
(1.00006 0.000335122 2.02495e-24)
(1.00035 0.000719519 0)
(1.00022 0.000215831 -8.56036e-24)
(1.00029 0.0011392 3.32507e-24)
(1.00011 0.000565682 -4.72292e-24)
(1.00036 0.00101586 0)
(1.00002 0.000152952 -3.792e-24)
(1.0004 0.000767742 0)
(1.00021 0.000309287 0)
(1.00037 0.00121295 0)
(1.00017 0.00114416 -1.01994e-24)
(1.00015 0.000778859 2.15446e-24)
(1.00051 0.00132477 0)
(1.00004 0.000354255 9.95232e-25)
(1.00039 0.000714377 -1.82288e-23)
(1.00063 0.00123228 0)
(1.00019 5.13425e-05 0)
(1.00044 0.00158597 0)
(1.00017 0.00133807 4.07117e-25)
(1.00007 0.000683571 -6.5231e-25)
(1.00061 0.0015777 0)
(1.00001 0.000223805 2.2754e-24)
(1.00045 0.000719754 6.5516e-24)
(1.00077 0.00130053 0)
(1.00026 0.000390914 -1.58168e-23)
(1.00041 0.001791 -7.10474e-25)
(1.00028 0.00167367 -2.07951e-24)
(1.00007 0.00130555 -4.27736e-25)
(1.00003 0.000860478 -7.77182e-25)
(1.00076 0.00181085 1.44965e-23)
(0.999968 0.000334323 -2.69153e-24)
(1.00028 0.000593809 9.83986e-25)
(1.00065 0.00106219 7.91754e-24)
(1.00098 0.00152481 0)
(1.00038 0.000131404 2.86403e-23)
(1.00053 0.00211308 6.93371e-24)
(1.00022 0.00193215 1.86873e-24)
(1.00003 0.00141691 0)
(1.00003 0.00078619 4.69495e-25)
(1.00099 0.00205412 1.92737e-24)
(1.00069 0.00223491 0)
(0.999992 9.50312e-05 -5.62512e-24)
(0.999994 0.000606587 -1.20582e-24)
(1.00039 0.000626669 0)
(1.00078 0.000968308 1.22398e-24)
(1.00109 0.00202783 -9.99367e-24)
(1.00121 0.00153229 5.09239e-24)
(1.00053 -0.000148012 -2.88213e-23)
(1.00048 0.00248914 -4.27031e-24)
(1.00027 0.00244932 -2.20308e-24)
(1.00005 0.00178631 2.60719e-25)
(0.999996 0.00129157 0)
(1.00103 0.00234748 -1.05252e-23)
(1.00081 0.00251485 2.26393e-23)
(0.999985 0.000351955 9.33704e-24)
(0.999969 0.000596736 -5.15118e-24)
(1.00049 0.000598138 0)
(1.00096 0.00101074 -1.22296e-24)
(1.00137 0.00221952 1.48694e-23)
(1.00121 0.00146027 -4.88176e-24)
(1.00159 0.0020412 -2.16323e-23)
(1.0004 -2.40799e-05 0)
(1.00063 0.00291293 -5.56284e-24)
(1.00013 0.00261945 7.57239e-25)
(0.999928 0.00218587 0)
(0.999854 0.00133607 6.38838e-24)
(1.00134 0.00305058 1.95668e-23)
(1.00095 0.00302923 -5.63835e-24)
(0.999953 0.00021999 -2.87325e-24)
(0.999894 0.000798921 6.24445e-24)
(1.00072 0.000655962 0)
(1.00095 0.000794921 0)
(1.00168 0.00286422 -3.05636e-23)
(1.00142 0.00132027 0)
(1.00191 0.00197823 -2.02601e-24)
(1.0005 0.000254522 1.0421e-23)
(1.00051 0.00334592 6.8282e-24)
(0.999963 0.00246915 0)
(1.00022 0.00332766 -1.34142e-24)
(0.999769 0.00193734 -1.64803e-23)
(0.999821 0.00144053 4.27998e-24)
(1.00117 0.00319627 -1.88585e-23)
(0.999891 0.000350759 0)
(0.999873 0.000870829 -9.05233e-24)
(1.00062 0.000610489 2.08862e-23)
(1.00123 0.000974496 4.38919e-23)
(1.00208 0.00308656 3.45266e-24)
(1.00183 0.0016493 -2.04225e-23)
(1.00235 0.0025915 3.82573e-23)
(1.00071 -0.000334937 1.70408e-23)
(1.00074 0.00381134 -4.77357e-24)
(0.999798 0.00295624 -3.43237e-24)
(0.999992 0.00340438 -9.85486e-25)
(0.999539 0.00215126 1.53017e-23)
(0.999769 0.00137946 -1.50287e-23)
(1.00125 0.00365319 1.02152e-23)
(0.999931 0.000155077 0)
(0.999848 0.00067087 7.55951e-24)
(1.00077 0.000419642 -2.27132e-23)
(1.00138 0.000836466 -1.96184e-23)
(1.00222 0.00344474 6.06707e-25)
(1.00211 0.00147114 -1.80119e-24)
(1.00281 0.00251152 -5.44841e-23)
(1.0006 7.62661e-05 1.19777e-23)
(1.00058 0.00438128 4.62441e-24)
(0.999535 0.00297548 7.76889e-24)
(0.999912 0.00375894 0)
(0.999424 0.00249324 -4.35453e-24)
(0.999528 0.0018324 0)
(0.999658 0.00139741 8.71343e-24)
(1.00166 0.00388491 -1.85548e-23)
(0.999868 0.000278879 4.00035e-24)
(0.999788 0.000772991 -1.05895e-23)
(1.00049 0.000293427 -1.78984e-23)
(1.00117 0.000500214 4.73328e-24)
(1.0018 0.00103892 1.55389e-24)
(1.00283 0.0038018 1.67934e-23)
(1.00197 0.00391468 2.27131e-23)
(1.00249 0.00161049 1.40407e-23)
(1.0028 0.00206658 0)
(1.00325 0.0029968 5.02719e-23)
(1.00084 -0.000678114 -3.48832e-24)
(1.00094 0.0050538 0)
(1.00012 0.00450206 2.32924e-24)
(0.999379 0.00358401 -1.4477e-23)
(0.999491 0.00377931 9.56307e-24)
(0.999154 0.00271369 1.2777e-23)
(0.999314 0.00192141 0)
(0.999682 0.00110705 -1.38866e-24)
(1.00174 0.00507355 0)
(0.999816 0.000625989 2.77918e-23)
(0.999913 8.01851e-05 -3.64815e-24)
(1.0007 0.000153835 -6.56426e-24)
(1.00134 0.000438368 1.83643e-23)
(1.00203 0.000745786 1.9778e-24)
(1.00336 0.00343307 -1.56067e-23)
(1.00283 0.00450574 -9.93278e-24)
(1.00228 0.00470915 0)
(1.00277 0.00110178 5.40336e-23)
(1.00331 0.00197093 0)
(1.0038 0.00250207 2.37006e-23)
(1.00051 -0.000733362 3.62844e-23)
(1.00065 0.00558146 1.89923e-24)
(0.99981 0.00486874 1.38261e-24)
(0.998982 0.00336126 1.45766e-24)
(0.999225 0.00457895 -1.56101e-23)
(0.998946 0.00267978 0)
(0.999145 0.00205759 0)
(0.999448 0.00144814 1.84042e-24)
(0.999589 0.00117415 -1.62536e-23)
(1.00211 0.00506908 0)
(0.99979 0.000614473 -3.12396e-23)
(0.999842 0.00033049 1.39399e-23)
(1.00111 0.000238525 -1.36313e-23)
(1.00141 0.000348549 -2.25765e-23)
(1.00175 0.000505528 0)
(1.00257 0.000829887 2.17485e-24)
(1.00405 0.00388017 -2.71791e-23)
(1.00333 0.00499824 9.42834e-26)
(1.00348 0.00135375 -4.50266e-23)
(1.00434 0.00239755 3.15838e-23)
(1.00038 0.000628256 -3.53997e-23)
(1.00099 0.00636137 -5.51769e-24)
(0.999932 0.0055534 5.55904e-24)
(0.998603 0.00354577 -1.29742e-23)
(0.998804 0.00471907 8.05317e-24)
(0.998611 0.00260976 0)
(0.998979 0.00192942 -2.14333e-23)
(0.999289 0.00142325 -1.89896e-23)
(0.999688 0.000857309 1.50086e-23)
(1.00242 0.00587893 2.53436e-23)
(0.999734 0.000362554 1.64472e-23)
(1.00112 -1.67284e-06 0)
(1.00134 0.000115919 3.51306e-23)
(1.00195 0.000143846 0)
(1.0028 0.000531985 -3.02025e-23)
(1.00391 0.00475114 1.44176e-23)
(1.00473 0.00351343 4.48773e-23)
(1.00332 0.00575132 -3.15907e-23)
(1.004 0.00112784 -6.57964e-23)
(1.00456 0.00140508 6.43886e-23)
(1.00475 0.00298364 -8.0845e-23)
(1.00164 -0.000652405 1.92671e-23)
(1.00052 0.000497234 2.89713e-23)
(1.00047 0.00704814 3.59307e-24)
(1.00194 0.00643707 -8.78184e-24)
(0.99948 0.00605643 -1.06561e-23)
(0.998271 0.0030575 -1.00098e-24)
(0.998452 0.00418644 2.39084e-23)
(0.998668 0.00526166 -1.4414e-23)
(0.998648 0.00236355 5.77131e-25)
(0.999064 0.00165873 1.91546e-23)
(0.999416 0.00114309 2.31466e-23)
(0.999547 0.000925816 -5.1257e-24)
(0.999716 0.000483553 1.41666e-24)
(0.99982 1.8322e-05 -6.00039e-25)
(1.00116 3.33103e-05 -5.08025e-23)
(1.0016 -0.000132987 0)
(1.00234 -3.65085e-05 0)
(1.00331 0.00017482 0)
(1.00452 0.00522108 -2.02871e-23)
(1.00537 0.00402047 1.08388e-23)
(1.00388 0.0066146 -2.85613e-23)
(1.00402 0.000624055 6.57936e-23)
(1.00521 0.00152814 -6.85769e-23)
(1.00537 0.00237113 4.80583e-23)
(1.00117 -0.00196005 -4.90123e-23)
(1.00018 -0.000195923 0)
(1.00078 0.00801281 1.41299e-24)
(0.999757 0.00693166 4.89751e-24)
(1.00242 0.00747284 -3.96844e-24)
(0.998955 0.00600658 0)
(0.997838 0.00320565 0)
(0.99787 0.00421923 -2.94131e-23)
(0.997955 0.00533396 1.5538e-23)
(0.998307 0.00214044 -1.8563e-23)
(0.998893 0.00155083 0)
(0.999284 0.00110541 0)
(0.999621 0.000657012 1.72492e-23)
(0.999707 0.000468649 -1.37895e-23)
(0.999802 0.000164646 2.46207e-23)
(1.00102 -0.000401267 3.3773e-23)
(1.00149 -0.000282725 2.75599e-23)
(1.00239 -0.000263998 0)
(1.00321 -0.000401075 0)
(1.00527 0.0046811 -4.17449e-23)
(1.00488 0.00656587 4.52083e-23)
(1.00607 0.00365694 -5.94161e-23)
(1.00352 0.00739048 -1.37647e-23)
(1.00457 -0.000247511 -3.98696e-23)
(1.00576 0.000887329 6.54523e-23)
(1.00609 0.00275528 -4.83305e-23)
(1.0007 -0.000552737 1.86575e-23)
(1.00027 -0.000159962 0)
(1.00178 0.00812125 -4.27085e-24)
(1.00016 0.00872158 -5.49026e-25)
(0.999241 0.00741801 4.12672e-24)
(0.998462 0.0065784 -1.7863e-23)
(0.997552 0.00289211 -6.88271e-24)
(0.997664 0.00375142 0)
(0.997587 0.00508555 0)
(0.997607 0.00610309 0)
(0.998666 0.00155827 2.33413e-23)
(0.997998 0.00213276 0)
(0.99912 0.00117742 1.22459e-23)
(0.999465 0.000797467 -1.31295e-23)
(0.999622 0.000497004 -1.14895e-23)
(0.999797 2.5871e-06 0)
(1.00118 -0.000506496 -2.79763e-23)
(1.00164 -0.000460763 -3.24729e-23)
(1.00204 -0.000488965 0)
(1.00267 -0.000672467 0)
(1.00363 -0.000850958 -2.80606e-23)
(1.00609 0.0056776 4.51094e-23)
(1.00563 0.00657262 -1.86905e-23)
(1.00683 0.0041372 7.86081e-23)
(1.00417 0.00848085 1.66141e-23)
(1.00546 -4.97499e-05 -5.05552e-23)
(1.00429 -0.00076709 7.27667e-23)
(1.00664 0.00122254 0)
(1.0068 0.00213981 6.23238e-23)
(1.00117 -0.00211851 1.96061e-23)
(1.00084 -0.000447875 1.55851e-23)
(1.00225 0.0094134 5.1908e-24)
(1.00031 0.00966226 7.85781e-25)
(0.999408 0.00850781 2.02706e-24)
(0.998496 0.0072093 1.7857e-23)
(0.996926 0.00300245 1.17926e-23)
(0.997693 0.00244484 0)
(0.997121 0.00400335 -2.60456e-23)
(0.996893 0.00480734 0)
(0.99692 0.00642098 1.4198e-23)
(0.998642 0.00136454 0)
(0.998052 0.0015656 -5.52313e-23)
(0.999101 0.00106173 -1.20095e-23)
(0.999427 0.000733195 -1.18517e-23)
(0.99971 0.000492585 0)
(0.999762 0.000241491 0)
(1.00128 -0.000789543 2.66741e-23)
(1.00148 -0.000941193 4.33024e-24)
(1.00207 -0.00102953 -2.69279e-23)
(1.00253 -0.000991053 0)
(1.00328 -0.00171081 -7.00141e-23)
(1.00714 0.00542545 0)
(1.00616 0.00743819 0)
(1.00763 0.00339862 0)
(1.00332 0.00948533 0)
(1.00537 0.00860701 0)
(1.00606 -0.00096875 -3.58675e-23)
(1.00451 -0.00139941 8.92128e-23)
(1.00731 0.000402166 5.33472e-23)
(1.0076 0.00258683 -7.00299e-23)
(1.00031 -0.00141575 -4.3818e-23)
(1.0013 0.00997781 0)
(0.999467 0.0107081 4.26619e-24)
(0.99863 0.00881018 -8.66758e-24)
(0.997823 0.00788161 0)
(0.996522 0.00243428 0)
(0.99664 0.00380107 2.41581e-23)
(0.99729 0.00201919 1.98e-23)
(0.996372 0.00497433 3.44871e-23)
(0.996287 0.00618251 -7.38498e-23)
(0.996907 0.00728008 0)
(0.998934 0.0010674 0)
(0.998386 0.00130354 3.42836e-23)
(0.997616 0.00155793 0)
(0.999325 0.000778105 1.18721e-23)
(0.999638 0.000475778 0)
(0.999611 -6.68062e-05 0)
(1.00129 -0.00109683 -5.04328e-23)
(1.00181 -0.00113877 2.07395e-23)
(1.00131 -0.00105805 4.60768e-23)
(1.00268 -0.00166154 1.81817e-23)
(1.00369 -0.0018914 4.02885e-23)
(1.00792 0.0055339 4.21741e-23)
(1.00764 0.00773761 8.71008e-23)
(1.00871 0.00450016 0)
(1.0038 0.0113186 -4.46888e-24)
(1.00593 0.010022 2.31977e-24)
(1.00579 -0.00173108 -1.01417e-24)
(1.00707 -0.000575993 4.54925e-23)
(1.00496 -0.00202853 -5.95954e-23)
(1.00834 0.000672691 4.64412e-23)
(1.00839 0.00211779 -6.24557e-24)
(1.00066 -0.000226317 -2.83308e-23)
(1.00147 0.0116531 0)
(0.999619 0.0117324 -4.32916e-24)
(0.998737 0.010535 0)
(0.997996 0.00856797 -1.88696e-24)
(0.995872 0.00279729 -3.35713e-23)
(0.996738 0.00211735 -1.64921e-23)
(0.996015 0.00357592 0)
(0.995797 0.00475096 2.44255e-23)
(0.99556 0.00615852 2.0217e-23)
(0.996104 0.00793447 0)
(0.999004 0.000911063 -1.30061e-23)
(0.998464 0.00103109 3.63342e-23)
(0.997475 0.00118855 1.35304e-23)
(0.999388 0.000644365 0)
(0.999696 0.000435978 0)
(0.999702 0.00018325 0)
(1.00064 -0.000799013 3.2617e-23)
(1.00185 -0.00162452 -1.53206e-23)
(1.00126 -0.00143163 -7.0645e-24)
(1.00227 -0.00190036 6.99835e-24)
(1.0036 -0.00271321 0)
(1.00855 0.00647136 -7.82928e-23)
(1.00808 0.00870508 -7.47035e-23)
(1.00973 0.00371628 5.09083e-23)
(1.00249 0.0121352 4.96568e-24)
(1.00508 0.0114555 -2.28954e-24)
(1.00731 0.0100428 0)
(1.00634 -0.00282301 3.89807e-23)
(1.00784 -0.00152104 2.02452e-24)
(1.00454 -0.00289589 6.64322e-23)
(1.00932 0.000333821 -1.09966e-22)
(1.00939 0.00261609 -6.56274e-23)
(1.00122 -0.00287057 1.64543e-23)
(0.99898 0.0129816 2.56e-24)
(0.997448 0.0107966 -2.86459e-23)
(0.997362 0.009167 1.80596e-23)
(0.99525 0.00231567 9.17951e-23)
(0.996469 0.00154975 0)
(0.99556 0.00414401 0)
(0.995256 0.00533776 -2.6407e-23)
(0.994974 0.00709293 -3.54098e-23)
(0.995251 0.00772067 0)
(0.996385 0.00875249 -1.52616e-23)
(0.998818 0.000771272 -1.46403e-23)
(0.999251 0.000631213 -1.28786e-23)
(0.998207 0.000883802 0)
(0.997923 0.000761716 0)
(0.996941 0.000844738 -1.65067e-23)
(0.999564 0.000388372 -2.42321e-23)
(0.999472 -0.00023995 -2.11637e-23)
(1.00056 -0.000871645 0)
(1.00144 -0.00182703 1.36673e-23)
(1.00063 -0.00123561 3.15663e-23)
(1.00222 -0.00233995 -3.62903e-23)
(1.00321 -0.00296375 -3.42354e-23)
(1.01025 0.00677374 -1.67506e-23)
(1.00955 0.00929517 1.31268e-22)
(1.01098 0.00424225 -1.66479e-23)
(1.00231 0.0138302 2.3417e-23)
(1.00571 0.0129425 -2.31272e-23)
(1.00806 0.0116668 0)
(1.00578 -0.00376113 -3.91676e-23)
(1.00739 -0.00263489 -1.71681e-22)
(1.00889 -0.00142074 0)
(1.00482 -0.00360624 -5.04839e-23)
(1.01009 0.00143892 0)
(1.00964 -0.000371717 5.5525e-23)
(1.00104 -0.0013464 -1.80182e-23)
(1.00019 0.0143419 -2.75868e-24)
(0.997704 0.0131544 1.4248e-23)
(0.996854 0.0110397 4.89942e-23)
(0.994539 0.00292762 -8.31457e-23)
(0.995273 0.00180821 -6.09857e-23)
(0.995821 0.00134596 3.05616e-23)
(0.994693 0.00386244 -6.114e-25)
(0.994398 0.00524246 -8.00374e-23)
(0.993791 0.0063646 8.85268e-23)
(0.994362 0.00829762 5.90971e-23)
(0.995755 0.0101784 -4.60426e-23)
(0.998985 0.000616306 0)
(0.999319 0.000476763 3.76324e-23)
(0.998582 0.000497325 -1.50085e-23)
(0.997898 0.000385731 -2.17408e-24)
(0.996769 0.000763757 0)
(0.999648 0.000385476 0)
(0.999616 0.000130242 0)
(1.00127 -0.00203415 -7.5515e-24)
(1.00056 -0.00163595 -6.52177e-23)
(1.00167 -0.00259586 -5.12619e-23)
(1.00249 -0.00298444 3.36711e-23)
(1.00324 -0.00424702 -3.73676e-23)
(1.01142 0.00561643 -6.04601e-23)
(1.01059 0.00847007 -1.07882e-22)
(1.00975 0.0107705 -3.13485e-23)
(1.01198 0.00259189 4.33742e-23)
(1.00346 0.0150607 -2.94298e-23)
(1.00512 0.0146044 3.08382e-23)
(1.00755 0.0127509 0)
(1.00608 -0.00455574 1.24421e-23)
(1.00796 -0.00372919 1.8431e-22)
(1.00941 -0.00273845 1.31409e-22)
(1.0043 -0.00474026 0)
(1.0114 0.00153521 -6.66498e-25)
(1.01087 -0.00110207 -4.31745e-23)
(1.00121 -0.00370167 -2.68875e-23)
(0.999683 0.0165558 -5.29833e-24)
(0.996663 0.0119463 -4.18018e-23)
(0.997095 0.0147653 0)
(0.993739 0.00259737 -3.36885e-23)
(0.994693 0.00118906 5.17184e-23)
(0.995816 0.000144958 0)
(0.99405 0.00467068 9.10698e-23)
(0.992836 0.00660451 3.57999e-23)
(0.993391 0.00818707 -7.40913e-23)
(0.994537 0.0102657 5.5984e-23)
(0.998891 0.000432618 0)
(0.999211 0.000456833 0)
(0.998465 0.000147566 1.44963e-23)
(0.997626 1.47143e-05 -2.58041e-23)
(0.996423 -6.73257e-05 0)
(0.997066 -7.24473e-05 8.72372e-23)
(0.999525 0.000171958 0)
(0.999328 -0.000466064 2.22251e-23)
(1.00084 -0.00192026 6.03307e-23)
(1.00139 -0.0024551 3.35939e-23)
(1.001 -0.00196817 4.97958e-23)
(1.0016 -0.00337328 -1.51878e-23)
(1.00207 -0.00361465 7.00685e-23)
(1.00256 -0.00450528 7.03261e-23)
(1.01306 0.00611163 9.3884e-23)
(1.01229 0.00890381 9.94546e-24)
(1.01145 0.0123343 0)
(1.01357 0.00277025 -5.22991e-23)
(1.00267 0.0167329 1.34776e-23)
(1.00655 0.0162081 -4.97201e-24)
(1.00881 0.0138743 3.22678e-23)
(1.00545 -0.00618503 -1.05241e-23)
(1.00735 -0.00468676 -3.87451e-23)
(1.00909 -0.00359419 -9.58455e-23)
(1.01089 -0.00220464 -8.99471e-23)
(1.00427 -0.00511474 0)
(1.01201 3.35112e-05 -6.47655e-24)
(0.997746 0.0165074 -1.46514e-23)
(1.00077 0.0173456 2.64128e-24)
(0.995061 0.0125213 0)
(0.994894 0.0144958 -1.9428e-23)
(0.992961 0.00356846 -1.06324e-22)
(0.993576 0.00180626 8.23012e-23)
(0.995182 -2.88931e-05 -2.97791e-25)
(0.994035 0.00117487 -5.67634e-23)
(0.993114 0.00417737 3.62897e-23)
(0.992642 0.0073357 -6.18826e-23)
(0.992148 0.00527733 0)
(0.992745 0.00990886 2.23562e-23)
(0.993841 0.0106007 -8.58905e-23)
(0.999058 0.000178462 0)
(0.999222 0.000168493 0)
(0.998609 2.10695e-05 0)
(0.997949 -0.000365187 -1.53054e-24)
(0.996716 -0.000216908 9.59076e-23)
(0.999771 0.000196462 2.37995e-23)
(0.999546 2.69354e-05 -1.64181e-23)
(1.00052 -0.00236044 -2.81938e-23)
(1.00095 -0.0026822 0)
(1.00103 -0.00450383 -2.2949e-23)
(1.00102 -0.00353506 3.72431e-23)
(1.00206 -0.00399979 -7.76015e-23)
(1.0023 -0.00513161 1.59052e-23)
(1.01342 0.00767786 1.57345e-22)
(1.01426 0.00503921 -7.56876e-23)
(1.01303 0.0114 -1.70919e-23)
(1.01075 0.0133651 -8.40754e-23)
(1.01478 0.00141796 -1.82802e-23)
(1.0039 0.0186378 3.0138e-25)
(1.00602 0.0181499 6.70841e-24)
(1.00832 0.0160179 -3.24083e-23)
(1.00682 -0.0070752 -2.90156e-23)
(1.0045 -0.0065651 0)
(1.00775 -0.00608591 -2.65124e-24)
(1.00976 -0.00463766 3.96094e-23)
(1.01169 -0.00381943 1.40403e-22)
(1.00341 -0.00585291 0)
(1.01347 -0.000785628 7.28118e-23)
(0.99634 0.0178616 2.77245e-24)
(1.00028 0.020258 -1.27722e-24)
(0.993709 0.0118699 6.20292e-23)
(0.993498 0.0152681 5.75179e-23)
(0.992099 0.0027719 2.29012e-23)
(0.992579 0.00184681 0)
(0.994868 -0.000434924 7.7085e-23)
(0.9937 0.000625214 4.74579e-23)
(0.991468 0.00789462 0)
(0.991083 0.00506942 6.79718e-23)
(0.991465 0.00947986 -5.04219e-23)
(0.999048 7.28536e-05 3.22577e-24)
(0.998938 -7.42072e-05 -3.63643e-24)
(0.99844 -0.00033669 -1.59876e-24)
(0.99787 -0.000902697 0)
(0.996578 -0.000536468 -5.11926e-23)
(0.999623 0.000302871 -2.20055e-23)
(0.999167 -0.000801768 1.53222e-23)
(1.00069 -0.00245227 2.4054e-23)
(1.00087 -0.00288845 2.06056e-23)
(1.00129 -0.0022163 2.91354e-23)
(1.00091 -0.00360861 -1.70946e-23)
(1.00153 -0.00422365 4.07548e-23)
(1.00258 -0.00590203 3.51799e-23)
(1.00145 -0.00506139 -2.48543e-23)
(1.01533 0.00831951 -9.10167e-23)
(1.01609 0.00527912 4.48581e-23)
(1.01481 0.0118875 0)
(1.0121 0.0155068 9.34101e-23)
(1.01488 0.000107988 -1e-22)
(1.01689 0.00334941 2.0572e-23)
(1.00281 0.020846 -1.77348e-23)
(1.00756 0.0205726 -7.61436e-24)
(1.00998 0.0172488 9.19473e-23)
(1.00679 -0.00805745 0)
(1.00426 -0.00649494 0)
(1.00894 -0.00611242 -8.70354e-23)
(1.01122 -0.00457921 -8.30826e-23)
(1.01329 -0.0028354 -8.68641e-23)
(0.996664 0.0201562 4.74026e-23)
(0.993767 0.017164 -1.07688e-22)
(0.998708 0.021086 3.44366e-24)
(0.992248 0.0123546 -6.37465e-23)
(0.991802 0.0147549 -3.77797e-23)
(0.991038 0.00301023 0)
(0.992156 0.00112841 -5.42328e-23)
(0.994925 -0.00113556 -7.18118e-23)
(0.994067 -0.000176514 0)
(0.992854 0.000443788 -5.60092e-23)
(0.990423 0.00720382 0)
(0.990283 0.00617981 0)
(0.990631 0.0037417 -7.26868e-23)
(0.990555 0.0104302 7.74492e-23)
(0.999449 0.000213671 0)
(0.999034 -0.000448181 0)
(0.998716 -0.000526327 -9.43155e-25)
(0.997384 -0.00117341 -8.34906e-24)
(0.998382 -0.00116099 2.69951e-23)
(0.996097 -0.00125575 -2.30077e-23)
(0.999477 -0.000165951 0)
(1.00052 -0.00297611 0)
(1.00064 -0.00309863 0)
(1.00109 -0.00607295 -3.32137e-23)
(1.00084 -0.00392971 2.73941e-23)
(1.00056 -0.00346547 3.71463e-23)
(1.0011 -0.004228 -1.75484e-23)
(1.00194 -0.00646742 0)
(1.0011 -0.0050491 -1.82532e-23)
(1.0161 0.0105284 -1.49521e-23)
(1.01677 0.00594848 -5.44894e-23)
(1.01554 0.014396 1.44792e-23)
(1.01428 0.0158768 0)
(1.01666 -0.00104295 1.66476e-22)
(1.01876 0.00259988 5.01223e-23)
(1.00372 0.0222542 0)
(1.00666 0.0220928 0)
(1.01005 0.0196873 -8.11771e-23)
(1.00566 -0.00851388 0)
(1.00809 -0.00868448 -5.03603e-23)
(1.00379 -0.00760084 -5.09611e-23)
(1.00976 -0.00683955 1.18886e-22)
(1.01144 -0.00619419 7.72898e-23)
(1.01472 -0.00394979 1.21256e-22)
(0.994567 0.0211437 -3.2955e-23)
(0.992068 0.0183903 3.34972e-23)
(0.998746 0.0239657 1.50409e-23)
(0.990926 0.0115513 2.87922e-23)
(0.990286 0.0146131 3.9413e-23)
(0.990346 0.00146963 0)
(0.991037 0.000465034 5.18915e-23)
(0.994185 -0.00160576 0)
(0.99547 -0.00145662 0)
(0.993488 -0.000769111 0)
(0.992639 -0.000319043 6.64664e-23)
(0.989167 0.0080906 0)
(0.989104 0.00521416 1.69119e-23)
(0.989386 0.00395092 -1.46996e-23)
(0.989187 0.00968508 -8.00305e-23)
(0.999534 -0.000276772 0)
(0.998953 -0.000536762 -3.08963e-23)
(0.998691 -0.000806919 0)
(0.997455 -0.00177796 -2.921e-23)
(0.998501 -0.00149986 -5.12644e-23)
(0.996736 -0.00194098 0)
(0.999136 -0.0010544 0)
(1.00062 -0.00290309 0)
(1.00131 -0.00290413 0)
(1.00044 -0.00408902 -2.96934e-23)
(1.00038 -0.00353406 -3.8798e-23)
(1.00074 -0.00467266 -1.85995e-23)
(1.00112 -0.00620708 2.90286e-23)
(1.00213 -0.00767737 4.97008e-23)
(1.00076 -0.00558825 0)
(1.01839 0.0105657 7.33622e-23)
(1.01939 0.00780863 1.61655e-23)
(1.01822 0.0144645 1.67198e-22)
(1.01506 0.0190895 -9.42258e-24)
(1.01868 0.000273768 -2.47697e-23)
(1.01659 -0.00301973 0)
(1.02068 0.00400022 1.36551e-22)
(1.0028 0.025475 -2.74922e-23)
(1.0079 0.0239846 -1.51755e-23)
(1.0125 0.0209694 -5.36462e-23)
(1.00438 -0.00830918 -4.61001e-23)
(1.00584 -0.010005 0)
(1.00938 -0.0081088 -5.55139e-23)
(1.00804 -0.0098684 7.2018e-23)
(1.0127 -0.00680935 8.56529e-23)
(1.01437 -0.0059156 -1.69545e-23)
(0.994365 0.024021 -2.90969e-23)
(0.992555 0.0201634 4.16271e-23)
(0.989986 0.0177859 6.06466e-23)
(1.0007 0.0258787 0)
(0.99574 0.0250772 -2.01316e-23)
(0.989628 0.0131007 1.05269e-22)
(0.989187 0.0158135 -1.20141e-22)
(0.988908 0.00133429 4.04436e-23)
(0.990873 -4.73956e-05 -3.47241e-23)
(0.993502 -0.00124907 -4.66685e-23)
(0.994115 -0.00259662 -3.25209e-23)
(0.995503 -0.00254117 3.58005e-23)
(0.991876 -0.000739328 -1.42792e-22)
(0.987766 0.00712835 0)
(0.987836 0.00574734 3.89311e-23)
(0.988467 0.00291335 -5.8085e-23)
(0.987729 0.0104584 9.3305e-23)
(0.999744 -0.000285866 -2.13207e-23)
(0.999068 -0.000753959 0)
(0.99907 -0.000969203 0)
(0.997829 -0.00209448 -1.48842e-23)
(0.998314 -0.00199852 5.445e-23)
(0.998995 -0.00165043 -5.62079e-23)
(0.996627 -0.00247762 0)
(0.99935 -0.000459939 0)
(1.00035 -0.00332719 1.80247e-23)
(1.00134 -0.00665563 3.85857e-23)
(1.00025 -0.00428572 -1.18135e-23)
(1.00027 -0.00401211 -3.30344e-23)
(1.0004 -0.00461783 1.32871e-23)
(1.00028 -0.00673643 -3.08964e-23)
(1.00123 -0.00829608 0)
(1.00001 -0.00536103 0)
(1.01949 0.0118361 -1.57103e-22)
(1.02131 0.0065578 -2.8398e-22)
(1.02017 0.01848 -8.93544e-23)
(1.01804 0.0200024 8.64358e-23)
(1.02064 -0.00115877 -6.95651e-23)
(1.01839 -0.00421816 -5.20362e-23)
(1.0227 0.00246071 -4.04331e-23)
(1.00505 0.0264212 4.70977e-23)
(1.01015 0.0259858 0)
(1.01252 0.0244433 6.02488e-23)
(1.00357 -0.009439 5.50355e-23)
(1.00683 -0.0104544 0)
(1.00474 -0.0105743 -4.13682e-23)
(1.0108 -0.00926566 0)
(1.00897 -0.0110472 -4.41264e-23)
(1.01241 -0.00869014 0)
(1.01605 -0.00729791 -2.23213e-22)
(0.991498 0.0237625 7.43357e-23)
(0.990722 0.0220452 -1.95157e-23)
(0.988087 0.0193297 -9.04273e-23)
(0.99992 0.028233 9.90591e-24)
(0.99472 0.0280775 2.58503e-24)
(0.987695 0.0122258 -1.02753e-22)
(0.986903 0.0152785 1.47338e-22)
(0.988309 0.00053556 1.91178e-24)
(0.990166 -0.00124577 -1.71084e-22)
(0.992892 -0.00213317 5.097e-23)
(0.994695 -0.00302497 5.31529e-23)
(0.99321 -0.00277881 2.69726e-24)
(0.996118 -0.00290797 -3.69427e-23)
(0.992033 -0.00191549 6.05878e-23)
(0.986331 0.00803595 0)
(0.9867 0.00459417 4.89057e-23)
(0.987065 0.00335849 3.70054e-23)
(0.986424 0.00970848 0)
(0.999467 -0.000205445 4.57816e-23)
(0.999195 -0.000619417 -1.19021e-23)
(0.99913 -0.0011838 2.51836e-23)
(0.997781 -0.00279465 1.28634e-24)
(0.998708 -0.00243231 1.36283e-23)
(0.999117 -0.00186611 -6.46801e-24)
(0.997146 -0.00291324 -2.66254e-23)
(0.999127 -0.00169403 5.32565e-24)
(1.00034 -0.00306975 -1.62966e-23)
(1.00101 -0.00335148 -6.15085e-23)
(1.00005 -0.00410209 2.60156e-23)
(0.999871 -0.00368694 0)
(1.00009 -0.00482211 0)
(0.999366 -0.00618696 0)
(1.00037 -0.0078204 -3.37296e-23)
(1.00146 -0.00924416 -1.00001e-22)
(0.999409 -0.00550308 0)
(1.02243 0.0127681 2.81406e-23)
(1.02391 0.00809672 1.86801e-22)
(1.02325 0.0172095 2.27674e-22)
(1.0186 0.0224707 -1.20853e-22)
(1.02271 8.6716e-05 2.00169e-22)
(1.02041 -0.00328092 1.39846e-22)
(1.01804 -0.00647625 1.97196e-22)
(1.02514 0.00390575 -1.41453e-22)
(1.00583 0.0290926 5.81127e-23)
(1.00933 0.0279275 -4.23604e-23)
(1.01548 0.0258195 0)
(1.00242 -0.00973548 8.8505e-23)
(1.00673 -0.0119831 -1.80369e-23)
(1.00449 -0.0120195 2.90864e-23)
(1.01037 -0.0108038 0)
(1.00823 -0.0124274 4.29299e-23)
(1.01383 -0.00995094 1.32985e-22)
(1.01565 -0.0094188 -7.02132e-23)
(0.98995 0.0266769 0)
(0.988385 0.0213396 8.55251e-23)
(0.985375 0.0172491 -8.72633e-23)
(1.00157 0.0315276 -7.12707e-24)
(0.996781 0.0295462 -4.10932e-24)
(0.991512 0.0284653 0)
(0.986171 0.0140383 0)
(0.986959 0.000904597 0)
(0.988478 -0.000407226 0)
(0.989258 -0.00133046 1.94735e-22)
(0.991126 -0.00238256 6.71197e-23)
(0.994738 -0.00378922 -1.88029e-23)
(0.992844 -0.00344922 -4.6404e-23)
(0.996261 -0.00377343 -4.29976e-24)
(0.984847 0.00671545 0)
(0.985174 0.00515968 -1.07067e-22)
(0.986201 0.00199174 -4.06847e-23)
(0.984825 0.0104058 -9.11107e-23)
(0.999691 -0.00143469 -3.36504e-23)
(0.999471 -0.000624516 0)
(0.999397 -0.00121417 3.01148e-23)
(0.998188 -0.00313929 2.79678e-23)
(0.999167 -0.00241101 3.84851e-23)
(0.998678 -0.00299398 7.7802e-24)
(0.999331 -0.00186197 6.24835e-24)
(0.997125 -0.00374672 4.03637e-24)
(1.00081 -0.00623043 1.59737e-23)
(1.00027 -0.00399553 2.83495e-23)
(0.999737 -0.00407464 1.14751e-23)
(1.00005 -0.00363581 0)
(0.999739 -0.0045457 1.11314e-23)
(0.998481 -0.00646076 1.96745e-23)
(0.999255 -0.00815172 5.54533e-23)
(1.00022 -0.0103244 -4.18259e-25)
(0.998921 -0.00503897 0)
(1.02437 0.0108199 0)
(1.02597 0.00628001 0)
(1.02613 0.0184499 -2.8469e-22)
(1.02245 0.0248861 0)
(1.02481 -0.00122842 -2.71162e-22)
(1.02227 -0.00481441 4.65985e-23)
(1.01989 -0.00791227 -4.04644e-22)
(1.02719 0.000530278 9.27603e-23)
(1.00426 0.0317949 0)
(1.01132 0.0323613 0)
(1.01593 0.0297384 0)
(1.00235 -0.011504 0)
(1.00556 -0.012707 3.94355e-23)
(1.00322 -0.0122933 -2.28933e-23)
(1.01148 -0.0124329 1.05071e-22)
(1.00873 -0.0138358 0)
(1.01313 -0.0121864 -1.10114e-22)
(1.0173 -0.0109236 -4.21379e-23)
(0.986646 0.0259018 0)
(0.98624 0.0227305 -6.69765e-23)
(0.983464 0.0179903 0)
(0.999457 0.0340651 -8.19813e-25)
(0.995955 0.0332959 3.51326e-23)
(0.990246 0.0318498 -5.81577e-23)
(0.984059 0.0134597 0)
(0.986279 -0.000734408 4.53115e-23)
(0.987325 -0.00115114 -1.46457e-22)
(0.988998 -0.00276561 -2.89769e-23)
(0.99107 -0.00308191 1.34594e-22)
(0.995328 -0.00411607 -1.12037e-22)
(0.994185 -0.00458898 1.18569e-22)
(0.991866 -0.0035585 -6.05974e-23)
(0.993463 -0.00441295 0)
(0.996017 -0.00418617 7.12218e-25)
(0.983236 0.00750115 4.01732e-23)
(0.983902 0.00346717 -5.60956e-23)
(0.984453 0.00202631 5.0482e-23)
(0.983248 0.00895111 4.54164e-23)
(0.999563 -0.00055621 3.01207e-23)
(0.999519 -0.000920907 -2.66912e-23)
(0.999405 -0.00173866 -2.8774e-23)
(0.998231 -0.00383381 0)
(0.999407 -0.00253119 -3.80056e-23)
(0.999071 -0.00330714 2.34096e-23)
(0.999462 -0.0024488 -7.9282e-24)
(0.997589 -0.004064 -4.63961e-23)
(0.999328 -0.00484603 0)
(1.00002 -0.00328729 -3.29234e-23)
(0.999586 -0.00416686 -2.58943e-23)
(0.999301 -0.00453999 0)
(0.997864 -0.00579721 -3.72108e-23)
(0.998417 -0.00745996 -4.16036e-23)
(0.999201 -0.00978009 0)
(1.00093 -0.0114231 7.64534e-23)
(0.998507 -0.00476354 0)
(1.02787 0.0122682 -8.15779e-23)
(1.02922 0.00636067 -1.7542e-22)
(1.02906 0.015525 2.93846e-22)
(1.02703 0.0224199 4.62587e-23)
(1.01965 0.0296214 -1.1629e-22)
(1.02508 0.025165 0)
(1.02715 -0.000210403 0)
(1.02452 -0.00387865 -2.9892e-22)
(1.02189 -0.00712494 2.90033e-22)
(1.01949 -0.0100581 -1.3403e-22)
(1.03085 0.00340997 -1.13695e-23)
(1.00638 0.0347019 0)
(1.01399 0.0324573 0)
(1.00577 -0.0142103 -2.84312e-23)
(1.00279 -0.0141931 3.04655e-23)
(1.01064 -0.0139379 4.90109e-23)
(1.00723 -0.0147817 -1.80197e-23)
(1.0147 -0.0131839 -1.94475e-22)
(1.01677 -0.0126868 1.11331e-22)
(0.984464 0.0277411 -8.03881e-23)
(0.983947 0.0213974 6.64634e-23)
(0.981563 0.0170924 -3.77626e-23)
(0.999788 0.036576 6.32475e-24)
(0.993095 0.0342119 -2.11739e-23)
(0.986987 0.0323967 6.86049e-23)
(0.982307 0.0133203 0)
(0.984919 -0.000795865 0)
(0.987317 -0.00241095 7.34618e-23)
(0.989364 -0.00359845 -9.40913e-23)
(0.990357 -0.00394206 -8.55248e-23)
(0.995485 -0.0054268 4.40232e-23)
(0.994594 -0.00546614 3.5813e-23)
(0.991927 -0.0052275 -1.74119e-23)
(0.992819 -0.00546147 2.6578e-23)
(0.996492 -0.00481415 -2.9588e-23)
(0.981766 0.00631053 -9.55882e-23)
(0.982024 0.0039467 7.4899e-23)
(0.983709 0.000915283 -1.4279e-22)
(0.981342 0.010801 0)
(0.999187 -0.00227662 -2.62339e-23)
(0.999555 -0.000741771 3.56323e-23)
(0.999609 -0.00141357 -3.02717e-23)
(0.998703 -0.00405369 3.15731e-23)
(0.999514 -0.00252779 -4.30421e-25)
(0.999574 -0.00302988 7.12138e-24)
(0.999139 -0.00387516 3.76002e-24)
(0.99982 -0.00179193 -3.10183e-23)
(0.997594 -0.0047862 2.47629e-23)
(1.00024 -0.00278137 0)
(0.999484 -0.00377016 0)
(0.999557 -0.00392115 0)
(0.9991 -0.00406544 0)
(0.997938 -0.00504557 0)
(0.996772 -0.00591712 1.03998e-23)
(0.99735 -0.00787703 2.81299e-23)
(0.998098 -0.0101246 -2.19469e-23)
(1.00026 -0.0127937 -7.61431e-23)
(0.998469 -0.00426992 4.69039e-24)
(1.03052 0.00830397 -1.55308e-23)
(1.03282 0.0156664 -4.1005e-22)
(1.0319 0.022441 -1.9385e-23)
(1.02155 0.0338039 1.11065e-22)
(1.0269 0.0284642 1.70411e-24)
(1.02859 -0.00394569 7.71926e-23)
(1.0269 -0.00530744 1.34429e-22)
(1.02398 -0.00830162 0)
(1.02126 -0.0124656 -1.56976e-22)
(1.03386 0.000402887 -3.36837e-22)
(1.00605 0.0375525 0)
(1.01486 0.0366032 0)
(1.0043 -0.0151329 0)
(1.00122 -0.0144242 4.51728e-23)
(1.01113 -0.0155332 -1.33565e-22)
(1.0075 -0.0165629 1.93697e-23)
(1.01397 -0.0158178 1.69783e-22)
(1.01801 -0.0148468 7.23493e-23)
(0.981487 0.0263863 5.83206e-23)
(0.984557 0.0302248 3.65808e-23)
(0.981676 0.0223588 2.3154e-22)
(0.979397 0.019056 0)
(0.981103 0.0142576 3.09141e-23)
(1.00253 0.0389943 0)
(0.996318 0.039194 5.35269e-25)