/*--------------------------------*- C++ -*----------------------------------*\
| =========                 |                                                 |
| \\      /  F ield         | OpenFOAM: The Open Source CFD Toolbox           |
|  \\    /   O peration     | Version:  v2012                                 |
|   \\  /    A nd           | Website:  www.openfoam.com                      |
|    \\/     M anipulation  |                                                 |
\*---------------------------------------------------------------------------*/
FoamFile
{
    version     2.0;
    format      ascii;
    class       volVectorField;
    location    "1";
    object      cellDisplacement;
}
// * * * * * * * * * * * * * * * * * * * * * * * * * * * * * * * * * * * * * //

dimensions      [0 1 0 0 0 0 0];


internalField   nonuniform List<vector> 
13611
(
(2.52117e-32 -3.58132e-32 0)
(9.03194e-32 -1.28299e-31 0)
(0 0 0)
(2.39674e-32 -3.38639e-32 0)
(1.772e-31 -2.51795e-31 0)
(0 0 0)
(0 0 0)
(5.90691e-32 -8.34595e-32 0)
(1.88905e-31 -2.69834e-31 0)
(2.96982e-31 -4.20506e-31 0)
(0 0 0)
(0 0 0)
(1.41574e-31 -2.00032e-31 0)
(-5.19799e-38 3.23688e-39 0)
(7.93025e-31 -1.13276e-30 0)
(5.82303e-31 -8.24806e-31 0)
(0 0 0)
(0 0 0)
(0 0 0)
(3.01382e-31 -4.25826e-31 0)
(-1.43896e-37 8.96065e-39 0)
(0 0 0)
(1.03887e-30 -1.49501e-30 0)
(1.00098e-30 -1.41916e-30 0)
(4.88763e-31 -6.90742e-31 0)
(0 0 0)
(0 0 0)
(0 0 0)
(2.99056e-31 -4.22421e-31 0)
(-3.22322e-37 2.03354e-38 0)
(-3.82232e-38 2.08539e-39 0)
(0 0 0)
(3.67565e-30 -5.28954e-30 0)
(2.42991e-30 -3.44507e-30 0)
(1.10201e-30 -1.55741e-30 0)
(0 0 0)
(0 0 0)
(0 0 0)
(0 0 0)
(9.23046e-31 -1.30381e-30 0)
(-7.91566e-37 4.99401e-38 0)
(-1.11122e-37 6.06261e-39 0)
(0 0 0)
(0 0 0)
(6.26407e-30 -8.91548e-30 0)
(3.19449e-30 -4.73329e-30 0)
(4.08524e-30 -5.79513e-30 0)
(2.17505e-30 -3.07388e-30 0)
(0 0 0)
(0 0 0)
(0 0 0)
(0 0 0)
(2.54361e-31 -3.5782e-31 0)
(-2.40856e-37 1.31407e-38 0)
(-1.67748e-36 1.07714e-37 0)
(0 0 0)
(0 0 0)
(0 0 0)
(1.36321e-29 -1.94248e-29 0)
(1.33816e-29 -1.98275e-29 0)
(1.04744e-29 -1.48586e-29 0)
(4.57018e-30 -6.45878e-30 0)
(0 0 0)
(0 0 0)
(0 0 0)
(0 0 0)
(0 0 0)
(7.05269e-31 -9.92128e-31 0)
(-5.48609e-37 2.99311e-38 0)
(-3.74639e-36 2.40562e-37 0)
(0 0 0)
(0 0 0)
(1.78558e-29 -2.53757e-29 0)
(1.71263e-29 -2.44628e-29 0)
(1.97825e-29 -3.06515e-29 0)
(8.95048e-30 -1.26588e-29 0)
(1.8044e-30 -2.5383e-30 0)
(0 0 0)
(0 0 0)
(0 0 0)
(0 0 0)
(0 0 0)
(-1.14778e-35 8.88197e-37 0)
(-1.39321e-36 7.60112e-38 0)
(0 0 0)
(-7.61453e-36 5.00577e-37 0)
(0 0 0)
(0 0 0)
(3.89189e-29 -5.53094e-29 0)
(3.85604e-29 -5.50787e-29 0)
(7.81221e-29 -1.21045e-28 0)
(2.14463e-29 -3.03317e-29 0)
(4.16833e-30 -5.8637e-30 0)
(0 0 0)
(0 0 0)
(0 0 0)
(0 0 0)
(0 0 0)
(0 0 0)
(0 0 0)
(-2.17891e-35 1.75919e-36 0)
(-2.94633e-36 1.60747e-37 0)
(0 0 0)
(-1.9074e-35 1.25392e-36 0)
(0 0 0)
(0 0 0)
(0 0 0)
(4.30774e-29 -6.10124e-29 0)
(5.27987e-29 -7.52242e-29 0)
(4.77541e-29 -6.84281e-29 0)
(1.96707e-28 -3.13029e-28 0)
(1.11676e-29 -1.57102e-29 0)
(-1.90744e-36 4.17396e-34 0)
(0 0 0)
(0 0 0)
(0 0 0)
(0 0 0)
(0 0 0)
(0 0 0)
(0 0 0)
(-2.27403e-35 2.07571e-36 0)
(-3.85042e-35 2.64545e-36 0)
(-8.93478e-36 4.87466e-37 0)
(0 0 0)
(0 0 0)
(0 0 0)
(0 0 0)
(0 0 0)
(1.03061e-28 -1.45969e-28 0)
(1.21928e-28 -1.73715e-28 0)
(1.06358e-28 -1.52404e-28 0)
(6.5074e-28 -1.03556e-27 0)
(2.45745e-29 -3.45707e-29 0)
(1.99702e-35 1.23261e-33 0)
(0 0 0)
(0 0 0)
(0 0 0)
(0 0 0)
(0 0 0)
(0 0 0)
(0 0 0)
(-5.35902e-35 4.89165e-36 0)
(-8.40355e-35 5.77369e-36 0)
(-2.14655e-35 1.17112e-36 0)
(0 0 0)
(0 0 0)
(0 0 0)
(0 0 0)
(0 0 0)
(7.20299e-29 -1.01339e-28 0)
(1.93073e-28 -2.74336e-28 0)
(2.08566e-28 -2.9886e-28 0)
(1.31355e-27 -2.11023e-27 0)
(4.10706e-34 6.55964e-33 0)
(9.45762e-35 2.73533e-33 0)
(-6.32181e-35 7.05182e-36 0)
(0 0 0)
(0 0 0)
(0 0 0)
(0 0 0)
(0 0 0)
(0 0 0)
(0 0 0)
(-7.51224e-35 5.5891e-36 0)
(-1.31281e-34 8.59286e-36 0)
(-4.51743e-35 2.46463e-36 0)
(0 0 0)
(0 0 0)
(0 0 0)
(0 0 0)
(0 0 0)
(0 0 0)
(1.57257e-28 -2.21244e-28 0)
(4.15353e-28 -5.90174e-28 0)
(4.43714e-28 -6.3581e-28 0)
(3.35999e-27 -5.32667e-27 0)
(7.11379e-28 -1.19073e-27 0)
(1.08899e-33 1.57088e-32 0)
(2.68158e-34 7.75565e-33 0)
(-1.38925e-34 1.54968e-35 0)
(0 0 0)
(0 0 0)
(0 0 0)
(0 0 0)
(0 0 0)
(0 0 0)
(0 0 0)
(0 0 0)
(-1.71646e-34 1.27704e-35 0)
(-3.28493e-34 2.20235e-35 0)
(-1.0795e-34 5.88956e-36 0)
(0 0 0)
(0 0 0)
(0 0 0)
(0 0 0)
(0 0 0)
(0 0 0)
(3.46382e-28 -4.87336e-28 0)
(6.00753e-28 -8.49404e-28 0)
(8.51247e-28 -1.21978e-27 0)
(7.5662e-27 -1.21205e-26 0)
(3.2596e-27 -5.456e-27 0)
(2.266e-33 3.26872e-32 0)
(8.11656e-34 1.82921e-32 0)
(-1.83346e-34 2.59055e-35 0)
(0 0 0)
(0 0 0)
(0 0 0)
(0 0 0)
(0 0 0)
(0 0 0)
(0 0 0)
(0 0 0)
(-3.03299e-34 2.25654e-35 0)
(-3.1233e-34 1.70402e-35 0)
(-4.68506e-34 3.40492e-35 0)
(0 0 0)
(0 0 0)
(0 0 0)
(0 0 0)
(0 0 0)
(0 0 0)
(0 0 0)
(2.68469e-28 -3.72921e-28 0)
(1.43349e-27 -2.0268e-27 0)
(1.92519e-27 -2.75866e-27 0)
(6.80149e-27 -1.13215e-26 0)
(1.29865e-26 -2.03168e-26 0)
(1.23118e-27 -2.1379e-27 0)
(4.56807e-33 6.04747e-32 0)
(1.68549e-33 3.79855e-32 0)
(-3.93458e-34 5.55927e-35 0)
(0 0 0)
(0 0 0)
(0 0 0)
(0 0 0)
(0 0 0)
(0 0 0)
(0 0 0)
(0 0 0)
(0 0 0)
(0 0 0)
(-3.34303e-34 2.58048e-35 0)
(-6.1115e-34 3.33433e-35 0)
(-1.08051e-33 7.8527e-35 0)
(0 0 0)
(0 0 0)
(0 0 0)
(0 0 0)
(0 0 0)
(0 0 0)
(0 0 0)
(7.22119e-28 -1.00314e-27 0)
(1.65485e-27 -2.29911e-27 0)
(3.9415e-27 -5.64789e-27 0)
(1.84702e-26 -3.07448e-26 0)
(3.09394e-26 -4.89604e-26 0)
(6.84451e-27 -1.18853e-26 0)
(1.04409e-32 1.38223e-31 0)
(1.7639e-34 1.60791e-32 0)
(4.41685e-33 8.65943e-32 0)
(-6.58908e-34 1.12412e-34 0)
(0 0 0)
(0 0 0)
(0 0 0)
(0 0 0)
(0 0 0)
(0 0 0)
(0 0 0)
(0 0 0)
(0 0 0)
(0 0 0)
(-7.08885e-34 5.47186e-35 0)
(-1.74815e-33 9.5376e-35 0)
(0 0 0)
(-1.94548e-33 1.38726e-34 0)
(0 0 0)
(0 0 0)
(0 0 0)
(0 0 0)
(0 0 0)
(0 0 0)
(0 0 0)
(0 0 0)
(0 0 0)
(2.41403e-32 2.83059e-31 0)
(3.74881e-27 -5.20828e-27 0)
(8.83189e-27 -1.26555e-26 0)
(3.49419e-26 -5.7747e-26 0)
(4.31576e-26 -6.63734e-26 0)
(1.83675e-26 -3.18945e-26 0)
(1.13735e-33 4.03696e-32 0)
(8.46876e-33 1.66034e-31 0)
(-1.57168e-33 2.68132e-34 0)
(0 0 0)
(0 0 0)
(0 0 0)
(0 0 0)
(0 0 0)
(0 0 0)
(0 0 0)
(0 0 0)
(0 0 0)
(-1.39345e-33 1.0756e-34 0)
(-2.63671e-33 8.72538e-35 0)
(0 0 0)
(-4.2205e-33 3.00949e-34 0)
(0 0 0)
(0 0 0)
(0 0 0)
(0 0 0)
(0 0 0)
(0 0 0)
(0 0 0)
(0 0 0)
(0 0 0)
(0 0 0)
(4.3118e-32 5.05583e-31 0)
(1.00447e-27 -1.06958e-27 0)
(1.79545e-26 -2.57275e-26 0)
(8.58564e-26 -1.41891e-25 0)
(9.61127e-26 -1.49532e-25 0)
(6.55236e-26 -1.13779e-25 0)
(2.6099e-33 7.90591e-32 0)
(4.53759e-34 3.02198e-32 0)
(1.95402e-32 3.55176e-31 0)
(-2.61245e-33 5.71826e-34 0)
(0 0 0)
(0 0 0)
(0 0 0)
(0 0 0)
(0 0 0)
(0 0 0)
(0 0 0)
(0 0 0)
(0 0 0)
(0 0 0)
(-2.80839e-33 2.16779e-34 0)
(-6.1758e-33 2.04369e-34 0)
(0 0 0)
(-7.85211e-33 5.45297e-34 0)
(0 0 0)
(0 0 0)
(0 0 0)
(0 0 0)
(0 0 0)
(0 0 0)
(0 0 0)
(0 0 0)
(0 0 0)
(0 0 0)
(7.769e-32 8.20046e-31 0)
(3.09565e-32 4.80098e-31 0)
(2.80092e-27 -2.98346e-27 0)
(3.81416e-26 -5.46541e-26 0)
(1.40701e-25 -2.28262e-25 0)
(1.06667e-25 -1.56346e-25 0)
(1.52503e-25 -2.64817e-25 0)
(6.19013e-33 1.87512e-31 0)
(2.07912e-33 8.8477e-32 0)
(-5.47522e-34 6.35084e-34 0)
(1.30796e-32 3.71876e-31 0)
(-7.1299e-33 8.49243e-34 0)
(0 0 0)
(0 0 0)
(0 0 0)
(0 0 0)
(0 0 0)
(0 0 0)
(0 0 0)
(0 0 0)
(0 0 0)
(0 0 0)
(0 0 0)
(-6.20904e-33 4.79274e-34 0)
(-9.72195e-33 9.28402e-35 0)
(-7.3178e-33 4.37862e-34 0)
(0 0 0)
(-1.39166e-32 1.07422e-33 0)
(0 0 0)
(0 0 0)
(0 0 0)
(0 0 0)
(0 0 0)
(0 0 0)
(0 0 0)
(0 0 0)
(0 0 0)
(0 0 0)
(2.00229e-31 2.11349e-30 0)
(7.03757e-32 1.09144e-30 0)
(6.35911e-27 -6.7768e-27 0)
(4.02926e-31 3.93681e-30 0)
(3.04187e-25 -4.93488e-25 0)
(2.07646e-25 -3.04357e-25 0)
(4.28736e-26 -7.98901e-26 0)
(3.9179e-25 -6.72886e-25 0)
(4.34314e-33 1.84823e-31 0)
(-1.47061e-33 1.7058e-33 0)
(2.62157e-32 7.45359e-31 0)
(-1.26435e-32 1.81045e-33 0)
(0 0 0)
(0 0 0)
(0 0 0)
(0 0 0)
(0 0 0)
(0 0 0)
(0 0 0)
(0 0 0)
(0 0 0)
(0 0 0)
(0 0 0)
(0 0 0)
(-3.02664e-32 2.8903e-34 0)
(0 0 0)
(-1.99915e-32 1.1962e-33 0)
(0 0 0)
(-2.87895e-32 2.22226e-33 0)
(0 0 0)
(0 0 0)
(0 0 0)
(0 0 0)
(0 0 0)
(0 0 0)
(0 0 0)
(0 0 0)
(0 0 0)
(0 0 0)
(0 0 0)
(1.4515e-31 2.2511e-30 0)
(1.45139e-26 -1.54672e-26 0)
(8.03928e-31 7.85482e-30 0)
(3.85653e-25 -5.91475e-25 0)
(1.79629e-25 -2.44189e-25 0)
(3.83903e-25 -7.1536e-25 0)
(8.14858e-25 -1.39949e-24 0)
(1.08669e-32 4.51658e-31 0)
(-2.13108e-34 2.40709e-33 0)
(-3.36908e-33 1.73781e-33 0)
(4.99767e-32 1.31504e-30 0)
(-3.31904e-32 3.15371e-33 0)
(0 0 0)
(0 0 0)
(0 0 0)
(0 0 0)
(0 0 0)
(0 0 0)
(0 0 0)
(0 0 0)
(0 0 0)
(0 0 0)
(0 0 0)
(-5.81882e-32 -4.7295e-34 0)
(0 0 0)
(-3.87192e-32 2.31677e-33 0)
(0 0 0)
(0 0 0)
(0 0 0)
(0 0 0)
(0 0 0)
(0 0 0)
(0 0 0)
(0 0 0)
(0 0 0)
(0 0 0)
(0 0 0)
(0 0 0)
(3.26703e-31 4.46405e-30 0)
(3.19286e-26 -3.40381e-26 0)
(1.57728e-30 1.44073e-29 0)
(8.05941e-25 -1.23607e-24 0)
(4.59031e-25 -6.34195e-25 0)
(1.09706e-24 -2.04425e-24 0)
(1.10071e-24 -1.78101e-24 0)
(2.27959e-32 9.47463e-31 0)
(-4.54277e-34 5.13112e-33 0)
(-7.23162e-33 3.73015e-33 0)
(1.20911e-31 3.18155e-30 0)
(-7.28518e-32 6.9223e-33 0)
(0 0 0)
(0 0 0)
(0 0 0)
(0 0 0)
(0 0 0)
(0 0 0)
(0 0 0)
(0 0 0)
(0 0 0)
(0 0 0)
(0 0 0)
(-1.48304e-31 -1.20541e-33 0)
(0 0 0)
(-8.79297e-32 5.26128e-33 0)
(0 0 0)
(0 0 0)
(0 0 0)
(0 0 0)
(0 0 0)
(0 0 0)
(0 0 0)
(0 0 0)
(0 0 0)
(0 0 0)
(0 0 0)
(0 0 0)
(0 0 0)
(6.68279e-31 9.13133e-30 0)
(8.30983e-26 -8.85886e-26 0)
(3.53039e-30 3.22476e-29 0)
(9.5011e-25 -1.37639e-24 0)
(2.21034e-25 -2.35726e-25 0)
(2.38123e-24 -4.43715e-24 0)
(2.14627e-24 -3.47276e-24 0)
(5.72152e-32 2.35048e-30 0)
(-5.09876e-34 7.26922e-33 0)
(-6.18035e-34 5.78213e-33 0)
(-5.28323e-34 3.2558e-33 0)
(-2.17906e-32 6.97445e-33 0)
(2.3393e-31 5.35036e-30 0)
(-1.78998e-31 1.07104e-32 0)
(0 0 0)
(0 0 0)
(0 0 0)
(0 0 0)
(0 0 0)
(0 0 0)
(0 0 0)
(0 0 0)
(0 0 0)
(0 0 0)
(0 0 0)
(0 0 0)
(-2.59858e-31 -6.56001e-33 0)
(0 0 0)
(0 0 0)
(0 0 0)
(0 0 0)
(0 0 0)
(0 0 0)
(0 0 0)
(0 0 0)
(0 0 0)
(0 0 0)
(0 0 0)
(0 0 0)
(0 0 0)
(1.37125e-30 1.69364e-29 0)
(7.49971e-30 6.40801e-29 0)
(1.90798e-24 -2.76403e-24 0)
(4.24276e-25 -4.52477e-25 0)
(3.62781e-24 -6.96057e-24 0)
(3.6986e-24 -5.98451e-24 0)
(1.29872e-31 5.33531e-30 0)
(-1.03996e-33 1.48266e-32 0)
(-1.31811e-33 1.4929e-32 0)
(-1.22399e-33 7.54285e-33 0)
(-4.32305e-32 1.38366e-32 0)
(4.81701e-31 1.10173e-29 0)
(-3.61687e-31 2.16416e-32 0)
(0 0 0)
(0 0 0)
(0 0 0)
(0 0 0)
(0 0 0)
(0 0 0)
(0 0 0)
(0 0 0)
(0 0 0)
(0 0 0)
(0 0 0)
(0 0 0)
(0 0 0)
(0 0 0)
(-7.00111e-31 -1.7674e-32 0)
(0 0 0)
(0 0 0)
(0 0 0)
(0 0 0)
(0 0 0)
(0 0 0)
(0 0 0)
(0 0 0)
(0 0 0)
(0 0 0)
(0 0 0)
(0 0 0)
(0 0 0)
(0 0 0)
(0 0 0)
(0 0 0)
(2.86722e-30 3.5413e-29 0)
(1.63995e-29 1.40123e-28 0)
(1.14045e-24 -1.29368e-24 0)
(3.38536e-24 -5.1744e-24 0)
(2.97987e-26 3.65448e-26 0)
(1.06818e-23 -1.99576e-23 0)
(1.34978e-24 -2.92741e-24 0)
(6.07553e-24 -1.01134e-23 0)
(2.69533e-31 1.10207e-29 0)
(-1.3062e-33 1.92384e-32 0)
(-1.43354e-33 1.96741e-32 0)
(-1.71931e-33 1.50868e-32 0)
(-1.43147e-33 6.03142e-33 0)
(-9.89542e-32 2.73335e-32 0)
(3.11667e-31 1.08851e-29 0)
(9.47178e-31 1.73902e-29 0)
(-2.07161e-31 4.4253e-32 0)
(-6.81902e-31 1.13704e-32 0)
(0 0 0)
(0 0 0)
(0 0 0)
(0 0 0)
(0 0 0)
(0 0 0)
(0 0 0)
(0 0 0)
(0 0 0)
(0 0 0)
(0 0 0)
(0 0 0)
(0 0 0)
(0 0 0)
(-1.38176e-30 -8.67963e-32 0)
(0 0 0)
(0 0 0)
(0 0 0)
(0 0 0)
(0 0 0)
(0 0 0)
(0 0 0)
(0 0 0)
(0 0 0)
(0 0 0)
(0 0 0)
(0 0 0)
(0 0 0)
(0 0 0)
(0 0 0)
(0 0 0)
(6.23753e-30 7.14323e-29 0)
(3.23903e-29 2.61515e-28 0)
(2.35485e-24 -2.67123e-24 0)
(8.39024e-24 -1.28242e-23 0)
(8.0077e-26 9.79581e-26 0)
(2.23117e-23 -4.3229e-23 0)
(7.29296e-24 -1.58171e-23 0)
(1.50358e-23 -2.50288e-23 0)
(4.45874e-31 2.0673e-29 0)
(-2.85021e-33 4.19793e-32 0)
(-3.00835e-33 4.12869e-32 0)
(-3.37246e-33 2.95931e-32 0)
(-3.21081e-33 1.35286e-32 0)
(-5.93369e-33 2.13067e-32 0)
(7.64753e-31 2.67093e-29 0)
(2.06004e-30 3.78225e-29 0)
(-5.18495e-31 1.10759e-31 0)
(-1.7578e-30 2.93104e-32 0)
(0 0 0)
(0 0 0)
(0 0 0)
(0 0 0)
(0 0 0)
(0 0 0)
(0 0 0)
(0 0 0)
(0 0 0)
(0 0 0)
(0 0 0)
(0 0 0)
(0 0 0)
(0 0 0)
(-3.51499e-30 -2.20796e-31 0)
(0 0 0)
(0 0 0)
(0 0 0)
(0 0 0)
(0 0 0)
(0 0 0)
(0 0 0)
(0 0 0)
(0 0 0)
(0 0 0)
(0 0 0)
(0 0 0)
(0 0 0)
(0 0 0)
(0 0 0)
(0 0 0)
(0 0 0)
(1.33707e-29 1.53121e-28 0)
(8.19315e-29 6.61504e-28 0)
(5.97269e-24 -7.2976e-24 0)
(2.09253e-25 2.51001e-25 0)
(2.31364e-27 7.57754e-27 0)
(4.77352e-23 -9.09096e-23 0)
(1.4584e-23 -3.163e-23 0)
(2.82583e-23 -4.70391e-23 0)
(3.06038e-31 1.82224e-29 0)
(8.44794e-31 3.47715e-29 0)
(-4.09449e-33 6.21484e-32 0)
(-5.73642e-33 7.87273e-32 0)
(-5.93662e-33 5.80763e-32 0)
(-2.3933e-33 1.30936e-32 0)
(-1.22214e-32 4.38845e-32 0)
(1.01798e-30 3.15511e-29 0)
(4.19756e-30 6.4029e-29 0)
(-1.96876e-32 5.26828e-32 0)
(-1.2235e-30 2.16439e-31 0)
(0 0 0)
(0 0 0)
(0 0 0)
(0 0 0)
(0 0 0)
(0 0 0)
(0 0 0)
(0 0 0)
(0 0 0)
(0 0 0)
(0 0 0)
(0 0 0)
(0 0 0)
(-7.27291e-30 -4.56852e-31 0)
(0 0 0)
(0 0 0)
(0 0 0)
(0 0 0)
(0 0 0)
(0 0 0)
(0 0 0)
(0 0 0)
(0 0 0)
(0 0 0)
(0 0 0)
(0 0 0)
(0 0 0)
(0 0 0)
(0 0 0)
(0 0 0)
(2.9883e-29 3.26006e-28 0)
(1.67497e-28 1.26818e-27 0)
(1.23472e-23 -1.50862e-23 0)
(4.89419e-25 5.87063e-25 0)
(5.94793e-27 1.87482e-26 0)
(9.67943e-23 -1.90309e-22 0)
(4.90556e-23 -1.06392e-22 0)
(5.84425e-23 -9.72841e-23 0)
(9.37532e-31 5.53924e-29 0)
(1.77948e-30 7.32429e-29 0)
(-1.04655e-32 1.58851e-31 0)
(-5.11742e-33 5.95683e-32 0)
(-1.25887e-32 1.04317e-31 0)
(-5.58609e-33 3.0561e-32 0)
(-1.11497e-32 6.09991e-32 0)
(2.28816e-30 7.0919e-29 0)
(9.00338e-30 1.37336e-28 0)
(-4.21122e-32 1.12689e-31 0)
(-2.9438e-30 5.20761e-31 0)
(0 0 0)
(0 0 0)
(0 0 0)
(0 0 0)
(0 0 0)
(0 0 0)
(0 0 0)
(0 0 0)
(0 0 0)
(0 0 0)
(0 0 0)
(0 0 0)
(0 0 0)
(0 0 0)
(0 0 0)
(0 0 0)
(0 0 0)
(-1.07171e-29 -1.90733e-30 0)
(-7.45556e-30 1.11403e-30 0)
(0 0 0)
(0 0 0)
(0 0 0)
(0 0 0)
(0 0 0)
(0 0 0)
(0 0 0)
(0 0 0)
(0 0 0)
(0 0 0)
(0 0 0)
(0 0 0)
(0 0 0)
(0 0 0)
(0 0 0)
(0 0 0)
(0 0 0)
(6.3197e-29 6.89441e-28 0)
(3.68631e-28 2.79104e-27 0)
(2.94041e-23 -3.84308e-23 0)
(1.16739e-24 1.38011e-24 0)
(1.18939e-26 3.4456e-26 0)
(4.13481e-27 1.54695e-26 0)
(1.07665e-22 -2.28819e-22 0)
(1.39457e-22 -2.48465e-22 0)
(2.70975e-23 -6.40438e-23 0)
(6.05043e-31 5.15802e-29 0)
(1.86186e-30 9.26423e-29 0)
(2.58645e-30 9.07172e-29 0)
(-1.91467e-32 2.90619e-31 0)
(-1.18568e-32 1.38017e-31 0)
(-2.59292e-32 2.30821e-31 0)
(-2.14805e-32 1.17518e-31 0)
(3.0983e-30 8.69476e-29 0)
(1.88175e-29 2.49748e-28 0)
(-2.20419e-32 9.48959e-32 0)
(-9.06637e-32 2.01636e-31 0)
(0 0 0)
(0 0 0)
(0 0 0)
(0 0 0)
(0 0 0)
(0 0 0)
(0 0 0)
(0 0 0)
(0 0 0)
(0 0 0)
(0 0 0)
(0 0 0)
(0 0 0)
(0 0 0)
(0 0 0)
(0 0 0)
(-2.98145e-29 -5.30612e-30 0)
(-1.74158e-29 2.60231e-30 0)
(0 0 0)
(0 0 0)
(0 0 0)
(0 0 0)
(0 0 0)
(0 0 0)
(0 0 0)
(0 0 0)
(0 0 0)
(0 0 0)
(0 0 0)
(0 0 0)
(0 0 0)
(0 0 0)
(0 0 0)
(0 0 0)
(0 0 0)
(1.40015e-28 1.48611e-27 0)
(2.21524e-28 2.27602e-27 0)
(7.21478e-28 4.79511e-27 0)
(6.93964e-23 -9.07002e-23 0)
(2.76312e-24 3.26661e-24 0)
(2.53294e-26 7.3378e-26 0)
(1.07461e-26 3.79247e-26 0)
(2.35291e-22 -5.00059e-22 0)
(2.90331e-22 -5.1727e-22 0)
(9.80367e-23 -2.31706e-22 0)
(1.87785e-30 1.55927e-28 0)
(-3.11292e-32 5.07117e-31 0)
(4.40856e-30 2.19361e-28 0)
(5.46086e-30 1.91534e-28 0)
(-1.50438e-32 1.83625e-31 0)
(-1.56147e-32 1.70605e-31 0)
(-4.90981e-32 4.0453e-31 0)
(-3.18616e-32 1.95133e-31 0)
(7.35758e-30 2.06476e-28 0)
(4.23043e-29 5.61468e-28 0)
(-4.35671e-32 1.87567e-31 0)
(-1.88153e-31 4.18451e-31 0)
(0 0 0)
(0 0 0)
(0 0 0)
(0 0 0)
(0 0 0)
(0 0 0)
(0 0 0)
(0 0 0)
(0 0 0)
(0 0 0)
(0 0 0)
(0 0 0)
(0 0 0)
(0 0 0)
(0 0 0)
(-3.45553e-29 -1.26725e-29 0)
(-4.23389e-29 -7.99887e-31 0)
(-3.72653e-30 6.47537e-30 0)
(0 0 0)
(0 0 0)
(0 0 0)
(0 0 0)
(0 0 0)
(0 0 0)
(0 0 0)
(0 0 0)
(0 0 0)
(0 0 0)
(0 0 0)
(0 0 0)
(0 0 0)
(0 0 0)
(0 0 0)
(0 0 0)
(0 0 0)
(0 0 0)
(9.92982e-29 1.17652e-27 0)
(5.84488e-28 6.00525e-27 0)
(1.64616e-27 1.09408e-26 0)
(1.69082e-22 -2.27705e-22 0)
(5.28195e-24 6.24441e-24 0)
(2.16812e-26 7.03775e-26 0)
(4.36533e-26 1.19858e-25 0)
(3.65701e-27 2.01592e-26 0)
(4.34921e-22 -9.10887e-22 0)
(5.23879e-22 -9.9706e-22 0)
(2.11849e-22 -5.00695e-22 0)
(3.94491e-30 2.67588e-28 0)
(7.94535e-31 1.28256e-28 0)
(-7.88141e-32 1.28394e-30 0)
(6.72984e-30 2.66508e-28 0)
(7.48235e-30 2.33444e-28 0)
(-3.26661e-32 3.98722e-31 0)
(-3.22436e-32 3.5229e-31 0)
(-1.05007e-31 9.3361e-31 0)
(-8.13564e-32 4.98259e-31 0)
(1.0499e-29 2.69087e-28 0)
(-8.10905e-32 3.8057e-31 0)
(-3.5818e-32 1.25648e-31 0)
(-3.93409e-31 8.39633e-31 0)
(0 0 0)
(0 0 0)
(0 0 0)
(0 0 0)
(0 0 0)
(0 0 0)
(0 0 0)
(0 0 0)
(0 0 0)
(0 0 0)
(0 0 0)
(0 0 0)
(0 0 0)
(0 0 0)
(0 0 0)
(-9.87602e-29 -3.62185e-29 0)
(-9.30184e-29 -1.75735e-30 0)
(-1.07206e-29 1.8438e-29 0)
(0 0 0)
(0 0 0)
(0 0 0)
(0 0 0)
(0 0 0)
(0 0 0)
(0 0 0)
(0 0 0)
(0 0 0)
(0 0 0)
(0 0 0)
(0 0 0)
(0 0 0)
(0 0 0)
(0 0 0)
(0 0 0)
(0 0 0)
(0 0 0)
(0 0 0)
(0 0 0)
(2.10843e-28 2.49815e-27 0)
(9.06156e-28 9.05029e-27 0)
(5.1565e-28 5.56086e-27 0)
(3.57082e-22 -4.80888e-22 0)
(1.51489e-23 1.78188e-23 0)
(4.47631e-26 1.45302e-25 0)
(9.33241e-26 2.56237e-25 0)
(7.27987e-27 4.01302e-26 0)
(6.12548e-22 -1.39639e-21 0)
(1.13839e-21 -2.1666e-21 0)
(6.06852e-23 -1.73631e-22 0)
(8.70153e-30 5.90235e-28 0)
(-1.44837e-31 2.51046e-30 0)
(2.41646e-30 3.5942e-28 0)
(-4.63881e-32 5.89659e-31 0)
(1.49734e-29 5.92962e-28 0)
(1.65345e-29 5.15865e-28 0)
(-5.68993e-32 6.21675e-31 0)
(-1.42534e-31 1.37471e-30 0)
(-1.15242e-31 8.34094e-31 0)
(2.21372e-29 5.67374e-28 0)
(-1.84845e-31 8.67505e-31 0)
(-7.96105e-32 2.79271e-31 0)
(-9.88907e-31 2.11058e-30 0)
(0 0 0)
(0 0 0)
(0 0 0)
(0 0 0)
(0 0 0)
(0 0 0)
(0 0 0)
(0 0 0)
(0 0 0)
(0 0 0)
(0 0 0)
(0 0 0)
(0 0 0)
(0 0 0)
(-1.47163e-28 -3.98122e-29 0)
(-1.01774e-28 -5.37473e-29 0)
(-9.87439e-29 2.86153e-29 0)
(-2.59255e-30 5.26873e-30 0)
(-2.3284e-29 3.9317e-29 0)
(0 0 0)
(0 0 0)
(0 0 0)
(0 0 0)
(0 0 0)
(0 0 0)
(0 0 0)
(0 0 0)
(0 0 0)
(0 0 0)
(0 0 0)
(0 0 0)
(0 0 0)
(0 0 0)
(0 0 0)
(0 0 0)
(0 0 0)
(0 0 0)
(3.84085e-29 9.30344e-28 0)
(1.8877e-27 1.88535e-26 0)
(1.05061e-27 1.13299e-26 0)
(7.67668e-22 -1.06327e-21 0)
(2.92734e-23 3.44326e-23 0)
(3.78069e-26 1.49999e-25 0)
(1.79325e-25 4.92367e-25 0)
(1.63572e-26 7.85268e-26 0)
(2.50282e-27 2.47111e-26 0)
(1.16731e-21 -2.66105e-21 0)
(1.63255e-21 -3.40855e-21 0)
(1.23417e-21 -2.06633e-21 0)
(2.41369e-22 -6.90599e-22 0)
(5.12392e-30 5.45675e-28 0)
(1.60409e-29 9.2559e-28 0)
(-3.32149e-31 5.75714e-30 0)
(5.1212e-31 3.44609e-28 0)
(-1.03448e-31 1.31498e-30 0)
(2.01504e-29 8.93955e-28 0)
(3.15139e-29 9.83211e-28 0)
(-8.86342e-32 9.70228e-31 0)
(-6.43424e-32 7.01637e-31 0)
(-4.18615e-31 3.88061e-30 0)
(-2.53731e-31 1.83645e-30 0)
(2.1792e-29 5.98619e-28 0)
(-3.46129e-31 1.69192e-30 0)
(-1.55848e-31 5.46708e-31 0)
(0 0 0)
(0 0 0)
(0 0 0)
(0 0 0)
(0 0 0)
(0 0 0)
(0 0 0)
(0 0 0)
(0 0 0)
(0 0 0)
(0 0 0)
(0 0 0)
(0 0 0)
(-3.67427e-28 -9.94009e-29 0)
(-2.65957e-28 -1.40453e-28 0)
(-3.1656e-28 3.20144e-29 0)
(-4.94283e-30 1.00451e-29 0)
(-5.45839e-29 9.21694e-29 0)
(0 0 0)
(0 0 0)
(0 0 0)
(0 0 0)
(0 0 0)
(0 0 0)
(0 0 0)
(0 0 0)
(0 0 0)
(0 0 0)
(0 0 0)
(0 0 0)
(0 0 0)
(0 0 0)
(0 0 0)
(0 0 0)
(0 0 0)
(0 0 0)
(0 0 0)
(8.05438e-29 1.95096e-27 0)
(2.42064e-27 2.43872e-26 0)
(9.46216e-28 1.12407e-26 0)
(1.828e-27 1.86152e-26 0)
(8.01399e-22 -6.68813e-22 0)
(6.86449e-23 8.04124e-23 0)
(2.98771e-25 7.59887e-25 0)
(9.52881e-26 3.58303e-25 0)
(3.76496e-26 1.80746e-25 0)
(5.1585e-27 5.09313e-26 0)
(1.46365e-21 -3.61306e-21 0)
(3.50406e-21 -7.316e-21 0)
(3.30238e-21 -5.52905e-21 0)
(6.74756e-22 -1.9294e-21 0)
(1.76085e-25 -1.60252e-24 0)
(1.24015e-29 1.3207e-27 0)
(2.17004e-29 1.69021e-27 0)
(-7.1597e-31 1.3144e-29 0)
(-1.69668e-31 2.31142e-30 0)
(2.22962e-30 9.27705e-28 0)
(5.11331e-29 2.26847e-27 0)
(6.46541e-29 2.12656e-27 0)
(-2.004e-31 2.19366e-30 0)
(-1.6732e-31 1.82458e-30 0)
(-7.09531e-31 7.06695e-30 0)
(-3.44868e-31 2.71806e-30 0)
(-2.85058e-31 1.81701e-30 0)
(5.18963e-29 1.42557e-27 0)
(-6.58222e-31 2.64297e-30 0)
(-3.24263e-31 1.1375e-30 0)
(0 0 0)
(0 0 0)
(0 0 0)
(0 0 0)
(0 0 0)
(0 0 0)
(0 0 0)
(0 0 0)
(0 0 0)
(0 0 0)
(0 0 0)
(0 0 0)
(-5.72067e-28 -2.71592e-28 0)
(-1.49653e-28 -1.06284e-28 0)
(-6.58372e-28 6.65826e-29 0)
(-1.09857e-29 2.15839e-29 0)
(-6.51215e-31 2.28444e-30 0)
(-1.42522e-28 2.37041e-28 0)
(-1.41238e-29 2.65981e-29 0)
(0 0 0)
(0 0 0)
(0 0 0)
(0 0 0)
(0 0 0)
(0 0 0)
(0 0 0)
(0 0 0)
(0 0 0)
(0 0 0)
(0 0 0)
(0 0 0)
(0 0 0)
(0 0 0)
(0 0 0)
(0 0 0)
(0 0 0)
(0 0 0)
(0 0 0)
(1.36897e-28 3.19667e-27 0)
(5.2048e-27 5.2076e-26 0)
(2.75691e-27 3.04605e-26 0)
(4.17991e-27 4.25655e-26 0)
(1.54737e-22 1.78524e-22 0)
(2.32254e-21 -2.41995e-21 0)
(4.33633e-24 8.61978e-24 0)
(6.77937e-25 1.72425e-24 0)
(1.83279e-25 6.89167e-25 0)
(8.10474e-27 7.93133e-26 0)
(8.68608e-26 3.75005e-25 0)
(3.7059e-21 -8.69873e-21 0)
(5.34905e-21 -1.02304e-20 0)
(1.79379e-21 -5.12917e-21 0)
(9.82894e-25 -8.94518e-24 0)
(9.0355e-30 1.54183e-27 0)
(4.12937e-29 3.2163e-27 0)
(-1.51488e-30 2.78105e-29 0)
(-3.87936e-31 5.28493e-30 0)
(-2.50371e-30 9.34379e-28 0)
(5.89814e-29 3.3661e-27 0)
(1.36702e-28 4.4963e-27 0)
(-3.21076e-31 3.52114e-30 0)
(-3.6449e-31 3.97466e-30 0)
(-1.6394e-30 1.58749e-29 0)
(-8.20483e-31 6.4666e-30 0)
(-7.35433e-31 4.68778e-30 0)
(9.79775e-29 2.69141e-27 0)
(-1.40364e-30 5.79713e-30 0)
(0 0 0)
(0 0 0)
(0 0 0)
(0 0 0)
(0 0 0)
(0 0 0)
(0 0 0)
(0 0 0)
(0 0 0)
(0 0 0)
(0 0 0)
(-1.27393e-27 -6.04806e-28 0)
(-3.72914e-28 -2.64845e-28 0)
(-1.4436e-27 -6.81701e-29 0)
(-1.38258e-29 2.90455e-29 0)
(-1.38983e-30 4.87548e-30 0)
(-3.23345e-28 5.37784e-28 0)
(-3.8467e-29 7.24416e-29 0)
(0 0 0)
(0 0 0)
(0 0 0)
(0 0 0)
(0 0 0)
(0 0 0)
(0 0 0)
(0 0 0)
(0 0 0)
(0 0 0)
(0 0 0)
(0 0 0)
(0 0 0)
(0 0 0)
(0 0 0)
(0 0 0)
(0 0 0)
(0 0 0)
(0 0 0)
(0 0 0)
(3.41746e-28 7.98008e-27 0)
(9.64994e-27 9.65514e-26 0)
(2.94419e-27 3.55324e-26 0)
(8.30842e-27 8.46077e-26 0)
(3.42208e-22 3.94814e-22 0)
(4.55058e-21 -4.74144e-21 0)
(1.00351e-23 1.96199e-23 0)
(1.334e-24 3.39287e-24 0)
(3.52892e-25 1.28759e-24 0)
(1.61453e-26 1.57999e-25 0)
(1.74754e-25 7.54469e-25 0)
(8.15447e-21 -1.91407e-20 0)
(1.23925e-20 -2.37016e-20 0)
(4.10471e-21 -1.17316e-20 0)
(2.14912e-24 -1.95589e-23 0)
(1.94467e-29 3.31841e-27 0)
(5.04e-29 5.12096e-27 0)
(-6.1766e-31 9.15224e-30 0)
(-3.32594e-30 6.32104e-29 0)
(-6.48511e-31 2.60839e-27 0)
(-5.25433e-30 1.04094e-28 0)
(1.33575e-28 7.62318e-27 0)
(2.4759e-28 8.62603e-27 0)
(-7.70623e-31 8.45119e-30 0)
(-7.97297e-31 8.69431e-30 0)
(-3.1182e-30 3.18072e-29 0)
(-1.20112e-30 1.018e-29 0)
(-8.54799e-31 5.91661e-30 0)
(-9.25122e-31 5.32373e-30 0)
(2.25219e-28 6.18668e-27 0)
(-2.79803e-30 9.81541e-30 0)
(0 0 0)
(0 0 0)
(0 0 0)
(0 0 0)
(0 0 0)
(0 0 0)
(0 0 0)
(0 0 0)
(0 0 0)
(0 0 0)
(0 0 0)
(0 0 0)
(0 0 0)
(-1.02408e-27 -7.27306e-28 0)
(-2.03945e-27 -7.71961e-28 0)
(0 0 0)
(-2.01187e-27 5.71826e-28 0)
(-3.11623e-29 6.379e-29 0)
(-6.76876e-28 1.11924e-27 0)
(-7.16312e-29 1.34897e-28 0)
(0 0 0)
(0 0 0)
(0 0 0)
(0 0 0)
(0 0 0)
(0 0 0)
(0 0 0)
(0 0 0)
(0 0 0)
(0 0 0)
(0 0 0)
(0 0 0)
(0 0 0)
(0 0 0)
(0 0 0)
(0 0 0)
(0 0 0)
(0 0 0)
(0 0 0)
(0 0 0)
(6.32426e-28 1.37231e-26 0)
(1.47963e-26 1.46766e-25 0)
(1.0432e-26 1.0536e-25 0)
(7.53425e-27 8.41626e-26 0)
(1.09484e-26 1.12614e-25 0)
(7.13695e-22 8.14695e-22 0)
(1.82423e-23 3.46156e-23 0)
(1.11715e-20 -1.45014e-20 0)
(1.18933e-21 1.30196e-21 0)
(3.64126e-24 8.67859e-24 0)
(8.62424e-25 3.1467e-24 0)
(2.50864e-26 2.43948e-25 0)
(4.76489e-25 1.93031e-24 0)
(1.91359e-26 1.85373e-25 0)
(8.40166e-21 -2.30911e-20 0)
(2.31944e-20 -4.4361e-20 0)
(2.51108e-21 -8.20695e-21 0)
(7.77756e-24 -7.07825e-23 0)
(1.45938e-29 4.00257e-27 0)
(3.34136e-29 4.35981e-27 0)
(1.05978e-28 9.31328e-27 0)
(-1.45984e-30 2.16313e-29 0)
(-2.57408e-30 4.24376e-29 0)
(-1.91199e-29 2.50733e-27 0)
(-1.33158e-29 2.63802e-28 0)
(2.13715e-28 9.6618e-27 0)
(4.79586e-28 1.3174e-26 0)
(-1.09977e-30 1.21112e-29 0)
(-1.86577e-30 2.03458e-29 0)
(-6.00729e-30 5.99248e-29 0)
(-2.99038e-30 2.53448e-29 0)
(-2.03929e-30 1.41152e-29 0)
(-2.05489e-30 1.18251e-29 0)
(-6.28988e-30 2.20647e-29 0)
(0 0 0)
(0 0 0)
(0 0 0)
(0 0 0)
(0 0 0)
(0 0 0)
(0 0 0)
(0 0 0)
(0 0 0)
(0 0 0)
(0 0 0)
(-2.27295e-27 -1.61425e-27 0)
(-4.93166e-27 -1.86671e-27 0)
(0 0 0)
(-4.85772e-27 -4.58285e-28 0)
(-9.51979e-28 1.54903e-27 0)
(-1.34591e-29 3.90959e-29 0)
(-8.34283e-28 1.40411e-27 0)
(-1.49138e-28 2.80859e-28 0)
(0 0 0)
(0 0 0)
(0 0 0)
(0 0 0)
(0 0 0)
(0 0 0)
(0 0 0)
(0 0 0)
(0 0 0)
(0 0 0)
(0 0 0)
(0 0 0)
(0 0 0)
(0 0 0)
(0 0 0)
(0 0 0)
(0 0 0)
(0 0 0)
(0 0 0)
(0 0 0)
(0 0 0)
(1.27484e-27 2.76629e-26 0)
(2.96414e-26 2.94018e-25 0)
(2.67782e-26 2.7045e-25 0)
(7.584e-27 9.51325e-26 0)
(2.54427e-26 2.617e-25 0)
(5.66013e-22 7.2225e-22 0)
(3.68034e-23 6.98361e-23 0)
(6.49305e-21 3.97271e-21 0)
(2.75793e-21 3.01912e-21 0)
(6.61833e-24 1.57741e-23 0)
(1.61997e-24 5.71153e-24 0)
(5.16533e-26 5.03245e-25 0)
(1.14039e-24 4.61984e-24 0)
(5.22027e-26 5.05696e-25 0)
(2.00913e-20 -5.52189e-20 0)
(5.09076e-20 -9.73646e-20 0)
(1.55133e-23 -1.41181e-22 0)
(7.04115e-21 -2.29006e-20 0)
(2.62203e-24 -2.3868e-23 0)
(3.95316e-29 1.08421e-26 0)
(9.67145e-29 1.26193e-26 0)
(2.30032e-28 2.0215e-26 0)
(-5.42141e-30 8.93804e-29 0)
(-2.7672e-29 5.90291e-27 0)
(-2.1493e-29 4.47191e-28 0)
(-1.09021e-29 1.93029e-28 0)
(5.17492e-28 2.33952e-26 0)
(9.32041e-28 2.56028e-26 0)
(-2.48723e-30 2.73905e-29 0)
(-3.81996e-30 4.16556e-29 0)
(-4.71035e-30 4.21009e-29 0)
(-1.0905e-29 1.12387e-28 0)
(-3.95773e-30 2.7394e-29 0)
(-2.44072e-30 1.42287e-29 0)
(-2.96325e-30 1.67648e-29 0)
(0 0 0)
(0 0 0)
(0 0 0)
(0 0 0)
(0 0 0)
(0 0 0)
(0 0 0)
(0 0 0)
(0 0 0)
(0 0 0)
(-5.34794e-27 -3.79813e-27 0)
(0 0 0)
(-7.04465e-27 -3.78634e-27 0)
(0 0 0)
(-1.01748e-26 -9.59905e-28 0)
(-2.39399e-27 3.89543e-27 0)
(-3.12865e-29 9.08804e-29 0)
(-2.76182e-28 5.00472e-28 0)
(-1.92702e-27 3.20813e-27 0)
(0 0 0)
(0 0 0)
(0 0 0)
(0 0 0)
(0 0 0)
(0 0 0)
(0 0 0)
(0 0 0)
(0 0 0)
(0 0 0)
(0 0 0)
(0 0 0)
(0 0 0)
(0 0 0)
(0 0 0)
(0 0 0)
(0 0 0)
(0 0 0)
(0 0 0)
(0 0 0)
(0 0 0)
(1.35486e-27 3.18311e-26 0)
(2.03445e-27 4.12509e-26 0)
(3.78817e-26 3.78803e-25 0)
(4.00129e-26 3.93671e-25 0)
(1.65901e-26 1.94551e-25 0)
(4.80403e-26 4.94136e-25 0)
(1.26146e-21 1.59267e-21 0)
(7.10966e-23 1.34909e-22 0)
(4.00307e-21 4.10443e-21 0)
(1.13833e-20 5.89032e-21 0)
(2.69861e-21 3.31138e-21 0)
(1.27589e-23 2.92853e-23 0)
(3.33062e-24 1.17427e-23 0)
(1.0292e-25 9.97003e-25 0)
(2.42834e-24 9.60588e-24 0)
(3.87278e-20 -1.03846e-19 0)
(8.98599e-20 -1.41484e-19 0)
(4.51346e-23 -4.10755e-22 0)
(1.533e-20 -4.98594e-20 0)
(1.24844e-23 -1.13644e-22 0)
(2.57746e-30 1.27955e-26 0)
(1.86439e-28 2.43266e-26 0)
(3.83857e-28 2.65364e-26 0)
(-2.60469e-30 2.90399e-29 0)
(-7.117e-29 3.68139e-27 0)
(-5.08212e-29 1.0574e-27 0)
(-2.58e-29 4.56806e-28 0)
(9.0561e-28 3.15968e-26 0)
(-7.97423e-30 8.69569e-29 0)
(-9.65791e-30 8.6322e-29 0)
(-1.35894e-29 1.46806e-28 0)
(-1.43823e-29 1.3954e-28 0)
(-8.31544e-30 6.08707e-29 0)
(-6.42513e-30 3.74567e-29 0)
(-6.57297e-30 3.71871e-29 0)
(0 0 0)
(0 0 0)
(0 0 0)
(0 0 0)
(0 0 0)
(0 0 0)
(0 0 0)
(0 0 0)
(-6.77333e-27 -6.68145e-27 0)
(0 0 0)
(-2.18212e-26 -1.17284e-26 0)
(0 0 0)
(-2.87127e-26 -8.83954e-27 0)
(-2.60847e-27 4.19954e-27 0)
(-3.28967e-27 5.39617e-27 0)
(-5.56179e-29 1.61558e-28 0)
(-6.59364e-28 1.19484e-27 0)
(-1.60567e-27 2.76365e-27 0)
(0 0 0)
(0 0 0)
(0 0 0)
(0 0 0)
(0 0 0)
(0 0 0)
(0 0 0)
(0 0 0)
(0 0 0)
(0 0 0)
(0 0 0)
(0 0 0)
(0 0 0)
(0 0 0)
(0 0 0)
(0 0 0)
(0 0 0)
(0 0 0)
(0 0 0)
(0 0 0)
(0 0 0)
(0 0 0)
(0 0 0)
(3.48213e-27 8.18091e-26 0)
(4.58353e-27 9.29367e-26 0)
(8.18198e-26 8.18167e-25 0)
(8.39712e-26 8.26159e-25 0)
(2.8194e-26 3.60204e-25 0)
(1.844e-26 1.94442e-25 0)
(1.10852e-25 1.13467e-24 0)
(2.04987e-22 3.78491e-22 0)
(2.54468e-23 5.39198e-23 0)
(9.62495e-21 9.86866e-21 0)
(1.6816e-20 5.9627e-21 0)
(1.2471e-20 1.15798e-20 0)
(5.71077e-21 7.00753e-21 0)
(5.42714e-24 1.83562e-23 0)
(5.17818e-24 1.77952e-23 0)
(3.25388e-24 1.19476e-23 0)
(1.82607e-25 1.76894e-24 0)
(3.26969e-24 1.41712e-23 0)
(8.77136e-20 -2.35199e-19 0)
(2.12463e-19 -3.66919e-19 0)
(8.61633e-23 -7.84122e-22 0)
(3.31603e-20 -1.07492e-19 0)
(3.33558e-23 -3.03634e-22 0)
(5.68794e-30 2.82372e-26 0)
(3.8103e-28 4.97168e-26 0)
(8.48563e-28 5.8662e-26 0)
(-5.29862e-30 5.90748e-29 0)
(-1.16596e-28 8.51876e-27 0)
(-7.23445e-29 1.61609e-27 0)
(-5.54412e-29 1.03557e-27 0)
(-8.08712e-30 9.01976e-29 0)
(2.09388e-27 7.30558e-26 0)
(-5.95554e-30 6.63648e-29 0)
(-1.1373e-29 9.3743e-29 0)
(-3.06154e-29 3.30738e-28 0)
(-3.11554e-29 3.02275e-28 0)
(-9.02113e-30 5.38282e-29 0)
(-8.37517e-30 4.95152e-29 0)
(-1.28306e-29 7.259e-29 0)
(0 0 0)
(0 0 0)
(0 0 0)
(0 0 0)
(0 0 0)
(0 0 0)
(0 0 0)
(-2.05008e-26 -2.02227e-26 0)
(0 0 0)
(0 0 0)
(0 0 0)
(-5.68842e-26 -1.75125e-26 0)
(-5.65229e-27 9.09997e-27 0)
(-7.06393e-27 1.15872e-26 0)
(-1.29966e-28 3.43575e-28 0)
(-2.55557e-28 5.67567e-28 0)
(-3.2647e-27 5.61915e-27 0)
(0 0 0)
(0 0 0)
(0 0 0)
(0 0 0)
(0 0 0)
(0 0 0)
(0 0 0)
(0 0 0)
(0 0 0)
(0 0 0)
(0 0 0)
(0 0 0)
(0 0 0)
(0 0 0)
(0 0 0)
(0 0 0)
(0 0 0)
(0 0 0)
(0 0 0)
(0 0 0)
(0 0 0)
(0 0 0)
(3.94381e-27 1.04646e-25 0)
(9.91548e-27 2.01048e-25 0)
(1.14931e-25 1.15718e-24 0)
(1.50147e-25 1.47724e-24 0)
(6.31795e-26 7.21471e-25 0)
(4.40112e-26 4.64078e-25 0)
(1.68968e-25 1.7504e-24 0)
(3.90488e-22 7.21003e-22 0)
(7.29657e-23 1.54609e-22 0)
(1.08871e-20 1.23647e-20 0)
(4.31869e-20 1.53134e-20 0)
(2.59341e-20 2.40808e-20 0)
(4.22953e-21 6.03264e-21 0)
(9.86155e-24 3.29602e-23 0)
(1.19231e-23 4.09748e-23 0)
(7.61348e-24 2.79552e-23 0)
(1.90909e-25 1.86278e-24 0)
(2.93547e-25 2.8283e-24 0)
(8.24607e-24 3.39351e-23 0)
(1.70603e-19 -4.43935e-19 0)
(2.35875e-19 -5.45255e-19 0)
(3.38211e-19 -4.04924e-19 0)
(1.76718e-22 -1.6082e-21 0)
(8.07815e-20 -2.61861e-19 0)
(1.01171e-22 -9.20946e-22 0)
(7.77181e-29 5.03097e-26 0)
(2.50947e-28 5.66209e-26 0)
(7.92018e-28 6.99328e-26 0)
(1.37171e-27 7.80163e-26 0)
(-2.33477e-28 1.70583e-26 0)
(-1.49004e-28 3.32857e-27 0)
(-1.2246e-28 2.28739e-27 0)
(-1.7206e-29 1.91903e-28 0)
(-1.27269e-29 1.4182e-28 0)
(-2.90339e-29 2.39314e-28 0)
(-4.41338e-29 4.58914e-28 0)
(-3.70074e-29 4.10824e-28 0)
(-1.50451e-29 9.00807e-29 0)
(-1.74724e-29 1.03299e-28 0)
(-3.03029e-29 1.71441e-28 0)
(0 0 0)
(0 0 0)
(0 0 0)
(0 0 0)
(0 0 0)
(0 0 0)
(0 0 0)