/*--------------------------------*- C++ -*----------------------------------*\
| =========                 |                                                 |
| \\      /  F ield         | OpenFOAM: The Open Source CFD Toolbox           |
|  \\    /   O peration     | Version:  v2012                                 |
|   \\  /    A nd           | Website:  www.openfoam.com                      |
|    \\/     M anipulation  |                                                 |
\*---------------------------------------------------------------------------*/
FoamFile
{
    version     2.0;
    format      ascii;
    class       volScalarField;
    location    "1";
    object      k;
}
// * * * * * * * * * * * * * * * * * * * * * * * * * * * * * * * * * * * * * //

dimensions      [0 2 -2 0 0 0 0];


internalField   nonuniform List<scalar> 
13611
(
0.000579423
0.000573137
0.000597576
0.000584014
0.000559861
0.000611968
0.000599715
0.000579227
0.000546419
0.000555662
0.000629887
0.000614793
0.000565358
0.000592881
0.000532887
0.000545357
0.000631216
0.000648112
0.00061843
0.000552272
0.000583145
0.000610017
0.000520716
0.000532941
0.000542612
0.000650307
0.00066833
0.000637755
0.000553209
0.000567477
0.000592998
0.000618953
0.000507931
0.000523845
0.000528492
0.000652675
0.000668692
0.000689332
0.000637839
0.000538616
0.000563878
0.000590164
0.000607973
0.00061563
0.000504549
0.000496933
0.000513472
0.000526264
0.000672564
0.000688511
0.000711986
0.000652063
0.000537232
0.000576011
0.000549862
0.00060351
0.000617887
0.000633222
0.000494419
0.000486102
0.000502189
0.000513417
0.000691318
0.00067127
0.00070767
0.000737486
0.000648675
0.000523889
0.000573852
0.000547097
0.000603938
0.000631545
0.000493377
0.000485146
0.00047582
0.000501948
0.000512436
0.000710956
0.000688103
0.000728594
0.000763626
0.000664909
0.000523444
0.000558682
0.000585994
0.000535563
0.000617607
0.000647458
0.000483338
0.000476529
0.000466099
0.000489688
0.000498808
0.000716794
0.000682409
0.000705488
0.000750713
0.000769726
0.000790514
0.000667479
0.00051564
0.000552582
0.000582068
0.000530622
0.000610265
0.00062966
0.000645986
0.000480866
0.000475788
0.000466391
0.000455836
0.000488278
0.000495283
0.000740311
0.000698856
0.000715379
0.000760579
0.000799544
0.000820826
0.000686658
0.000506499
0.0005195
0.000538689
0.00056205
0.0005753
0.000598463
0.000620951
0.00066551
0.000469082
0.00046599
0.000461302
0.00044889
0.000477936
0.000487325
0.000735207
0.00070707
0.000784655
0.00082463
0.000801939
0.000850657
0.000687139
0.000499405
0.000509782
0.000538149
0.000550375
0.00058461
0.000599674
0.000633873
0.00066817
0.000467741
0.00046208
0.00045209
0.000440272
0.000472078
0.000477217
0.000489888
0.00075489
0.000728674
0.000797272
0.000853742
0.000829558
0.000885373
0.000709752
0.0005001
0.000513243
0.000527086
0.000555821
0.000573526
0.000612543
0.000651658
0.000627477
0.000690044
0.000460355
0.000451558
0.000446932
0.000434401
0.000432789
0.000462126
0.000469251
0.0004842
0.000784963
0.000748077
0.000731232
0.00082907
0.000882006
0.000853116
0.00092318
0.00071185
0.000488654
0.000506059
0.00052644
0.000551492
0.000579435
0.000607056
0.000652281
0.000636865
0.00068938
0.000450853
0.000445721
0.000437808
0.000425907
0.000425081
0.000455795
0.000459673
0.000473064
0.000808311
0.000768967
0.000753499
0.000854223
0.000912215
0.000882473
0.000959117
0.000733614
0.000486493
0.000512103
0.000495991
0.000537817
0.000562797
0.000576096
0.000595835
0.000622599
0.000669314
0.000712208
0.000444654
0.000435125
0.000431587
0.00042129
0.000419751
0.000418325
0.000447393
0.000451072
0.000468727
0.000793797
0.0008392
0.000766406
0.000854514
0.000890386
0.000944643
0.000994646
0.000966506
0.000754176
0.000732688
0.000476574
0.000507666
0.000487316
0.000536316
0.000558987
0.000586585
0.000600438
0.000629895
0.0006728
0.000713881
0.00043558
0.000430409
0.000422548
0.000413186
0.000411375
0.000411981
0.000439247
0.000450256
0.000441691
0.00045896
0.000811299
0.000860538
0.000796441
0.00089184
0.00092509
0.000966053
0.00103587
0.00100698
0.000770265
0.000753092
0.00047779
0.000498145
0.000517752
0.000488429
0.000547069
0.000527079
0.000569903
0.000585525
0.000614441
0.000648162
0.000695813
0.000663867
0.000737571
0.000432931
0.000420569
0.000416475
0.000408181
0.000406593
0.000405069
0.0004419
0.000435048
0.000459314
0.000845187
0.000894169
0.000812024
0.000920892
0.000963143
0.00101293
0.00107806
0.000794421
0.000764803
0.00046938
0.00050064
0.000510162
0.000478902
0.000536401
0.000526701
0.00056756
0.000598412
0.00061427
0.000645759
0.000695093
0.000676448
0.000733597
0.0007597
0.000425897
0.000415029
0.000409224
0.000399969
0.000398968
0.000398638
0.000435556
0.000437705
0.000426939
0.000451911
0.000867316
0.000926823
0.000843124
0.000956196
0.00100214
0.00105429
0.00109739
0.00111636
0.00080682
0.000792504
0.000469276
0.000491678
0.000514051
0.000475649
0.000541447
0.000581701
0.000556477
0.000595599
0.000628912
0.000659813
0.00071209
0.000675154
0.000753431
0.000781013
0.000419362
0.000422106
0.000408241
0.000400639
0.000395461
0.000395782
0.000391233
0.000429073
0.000429911
0.000442874
0.000423864
0.000453938
0.000902363
0.000930944
0.000963356
0.000854519
0.00099007
0.00104003
0.00106702
0.0011448
0.00117826
0.000837309
0.000806145
0.000462811
0.000491076
0.000481773
0.000510113
0.00046554
0.000531829
0.000582501
0.000560415
0.000608752
0.000622755
0.000662145
0.000709461
0.00069156
0.000751068
0.000779422
0.000413722
0.000414617
0.000400389
0.000408147
0.000387645
0.000388471
0.000385706
0.000385459
0.000424214
0.000435579
0.000417157
0.000447741
0.000909715
0.000971631
0.00100223
0.000891367
0.00102531
0.00106162
0.00112034
0.00116359
0.00118047
0.00123758
0.00085579
0.000832401
0.0004795
0.000499772
0.000475226
0.00052004
0.000460408
0.000536793
0.00059689
0.000573245
0.000549936
0.00060922
0.000634424
0.000650844
0.000681382
0.000727427
0.000771939
0.000805074
0.000407937
0.000393864
0.000402099
0.000384283
0.000384127
0.000380981
0.00037903
0.000416611
0.00042724
0.000438153
0.000409625
0.000450722
0.000951513
0.00101047
0.00103944
0.000914355
0.00110527
0.0011633
0.0012196
0.0012381
0.00130881
0.000889443
0.000842416
0.000479525
0.000501627
0.000465338
0.000511927
0.000530768
0.000594722
0.000578772
0.000550132
0.000622625
0.000659554
0.000691774
0.000715038
0.000797139
0.000771037
0.000832487
0.00040104
0.000387196
0.000395605
0.000376925
0.000376971
0.000377151
0.00037427
0.000410635
0.000419759
0.000432315
0.000402245
0.000445083
0.000978453
0.00105116
0.00108676
0.000953855
0.00114688
0.00121204
0.00125284
0.00129753
0.0013895
0.000902052
0.000877946
0.000467314
0.000490247
0.000460653
0.000517668
0.000537105
0.000605789
0.000575144
0.000561028
0.000629679
0.000648846
0.000679996
0.000728227
0.000818343
0.000799694
0.000754061
0.00085561
0.000395016
0.000380534
0.000389207
0.000373193
0.000375495
0.000371316
0.000369345
0.000402621
0.000412439
0.000418312
0.000424856
0.000436461
0.000395743
0.000450103
0.00102274
0.00108346
0.00107177
0.00113415
0.000976359
0.00121026
0.00124216
0.00131102
0.0013596
0.00147741
0.000943723
0.000888699
0.000462608
0.000490372
0.000511846
0.000531686
0.000603357
0.000620656
0.000587838
0.000554788
0.0006581
0.000690325
0.000712616
0.00084896
0.000813419
0.000764524
0.000388473
0.000382103
0.000366606
0.000369145
0.000367073
0.000363913
0.000397868
0.000407139
0.000411779
0.000420146
0.000429453
0.000389535
0.000442295
0.00104394
0.00105237
0.00113287
0.00112978
0.00118013
0.0010234
0.00125301
0.00131211
0.00133939
0.00143171
0.00157934
0.00148147
0.000958623
0.000922101
0.000454405
0.000470687
0.000480298
0.000502052
0.000519731
0.000540385
0.000615908
0.000629709
0.000581255
0.000564255
0.000646225
0.000678249
0.000721522
0.000878748
0.000789884
0.000841424
0.000745126
0.000382867
0.000376098
0.000364627
0.000362146
0.000366256
0.000359878
0.00036328
0.000358341
0.000392204
0.000400776
0.000406674
0.000412659
0.000422551
0.00042712
0.000387633
0.00038383
0.000432843
0.000445444
0.0010915
0.00109926
0.00117578
0.00117481
0.00123155
0.00105619
0.00132816
0.00135702
0.00141674
0.00147674
0.00169682
0.00158406
0.0010038
0.000929394
0.000454582
0.000461836
0.000481627
0.000502156
0.000512239
0.000534117
0.000622804
0.000592805
0.000559324
0.000655135
0.000688075
0.000709825
0.000867275
0.000913967
0.000792076
0.000839937
0.000749896
0.000376382
0.000369909
0.000358696
0.000355424
0.000359906
0.000354796
0.000357459
0.000353597
0.00038782
0.00039813
0.000401311
0.000408773
0.000417709
0.000419372
0.000382913
0.000378857
0.000428634
0.000441035
0.00113015
0.00115213
0.00122458
0.00123812
0.00127606
0.00104629
0.00111276
0.0013821
0.00143539
0.00156518
0.00183466
0.00168568
0.00100498
0.000972081
0.000445749
0.000464206
0.000491972
0.000473765
0.000519321
0.000543228
0.00064344
0.000611067
0.000585684
0.000570206
0.000676169
0.000721453
0.000893587
0.000937239
0.00077501
0.000819586
0.000870515
0.000743545
0.000372102
0.000365039
0.000353924
0.000356243
0.000357025
0.000349493
0.00035315
0.000348893
0.000388772
0.000383271
0.00039327
0.000396827
0.000403523
0.00041214
0.000416317
0.00037844
0.000373872
0.000420941
0.000433081
0.00118233
0.0011964
0.00130109
0.00133869
0.0010971
0.00114963
0.00146201
0.00151552
0.00164917
0.00197253
0.00180415
0.00104906
0.000974093
0.000439432
0.000462636
0.000490282
0.000470405
0.000511348
0.000539125
0.000653532
0.00061882
0.000595177
0.000563032
0.000687017
0.000710236
0.000927088
0.000784694
0.00082905
0.000885061
0.000761396
0.000366189
0.000359921
0.000348877
0.000350043
0.000351983
0.000343404
0.000347345
0.000342751
0.000383463
0.000379311
0.000391606
0.000398514
0.000402205
0.000406784
0.000408695
0.000374454
0.00036982
0.000416381
0.0004261
0.00122527
0.00126054
0.00131176
0.0013646
0.00138442
0.00114998
0.0010959
0.00120613
0.00150532
0.00151426
0.00161877
0.00177356
0.00213134
0.00198444
0.00193156
0.00104947
0.00100757
0.000444299
0.000428548
0.000455819
0.000499698
0.000478452
0.000517936
0.000550505
0.000528742
0.000674504
0.000638203
0.000611377
0.000587333
0.000571545
0.000723302
0.000957688
0.000808608
0.000858574
0.000921695
0.000750563
0.000363085
0.00035557
0.000343508
0.000346572
0.000348031
0.000349578
0.00034177
0.000339154
0.000344017
0.00038038
0.000379573
0.000375011
0.000388081
0.000393938
0.000396165
0.000405384
0.000370197
0.000365854
0.000409837
0.000418786
0.00128545
0.00138898
0.00143392
0.00147705
0.00120563
0.00114961
0.00125187
0.00160287
0.00161728
0.00172542
0.00188262
0.00230929
0.0021658
0.00203992
0.00108985
0.000999709
0.00043875
0.000423462
0.000458494
0.000497745
0.000477235
0.00050645
0.000541134
0.000529914
0.000686323
0.000639391
0.000620898
0.000596791
0.000561808
0.000710651
0.000958277
0.000820575
0.000863932
0.000917443
0.000768546
0.000359523
0.000355779
0.000351695
0.000339688
0.000341168
0.000344018
0.000345746
0.000337454
0.000333715
0.000339882
0.000375531
0.000383216
0.000375071
0.000371951
0.000389718
0.000392195
0.000394447
0.000399875
0.000366609
0.000362563
0.000405858
0.000412244
0.00135199
0.00143877
0.00151873
0.00154936
0.00124241
0.00113375
0.00120226
0.00132401
0.00168546
0.00171367
0.00185306
0.00202845
0.00220597
0.0010837
0.00103737
0.000443683
0.000428816
0.000416146
0.000452656
0.000468308
0.000487104
0.000507443
0.000546309
0.00052016
0.000685124
0.000655403
0.000613997
0.000596211
0.000567078
0.000723218
0.000996337
0.00085183
0.000799301
0.000894855
0.000950482
0.000747077
0.000359342
0.000351908
0.000348352
0.0003342
0.000337694
0.000343105
0.000339528
0.000345208
0.000331177
0.000329272
0.000335353
0.00037261
0.000374455
0.000381207
0.000372048
0.00036766
0.000387044
0.000388128
0.000390837
0.000397358
0.000362759
0.000400165
0.00040704
0.000410859
0.00142865
0.00154099
0.00159794
0.00165801
0.00131338
0.00117108
0.00122872
0.00138606
0.00180918
0.00182899
0.00197698
0.00218699
0.00234347
0.00112769
0.00102887
0.000437302
0.000424498
0.000410011
0.000455942
0.000465419
0.000483697
0.0005019
0.000542725
0.00051834
0.000674595
0.000706817
0.000642125
0.000624605
0.00058181
0.00061162
0.000552997
0.00101311
0.000872102
0.000814482
0.000903876
0.000985565
0.000930872
0.000755355
0.000355944
0.000348468
0.000352295
0.000330196
0.000332011
0.00033976
0.000337539
0.000342325
0.000328825
0.000323416
0.000332039
0.000369111
0.00037735
0.000370667
0.000383454
0.000368619
0.000366181
0.000384583
0.000386535
0.000392665
0.000359806
0.000398232
0.000401752
0.000405247
0.00150722
0.00160023
0.00171674
0.00174831
0.00137467
0.00129379
0.00122453
0.00147439
0.00192838
0.00196505
0.00214279
0.00234515
0.00115614
0.00107331
0.000429419
0.00044073
0.000417542
0.000404874
0.000411001
0.000450673
0.000472095
0.000491575
0.00050822
0.000528921
0.000686938
0.000708396
0.000650793
0.000582481
0.000619819
0.000554324
0.00105499
0.000855267
0.000805681
0.00100296
0.000952643
0.000782192
0.000729471
0.00035584
0.000345311
0.000349355
0.000325562
0.000329011
0.000337507
0.000334566
0.000338877
0.000342333
0.000324122
0.000320787
0.00032207
0.000327237
0.000368292
0.000365797
0.000375271
0.000369286
0.000380406
0.000365449
0.000362958
0.000380859
0.000383557
0.000383485
0.000388914
0.00036015
0.000393557
0.000400868
0.00153429
0.00171356
0.00182064
0.00188751
0.00144562
0.00134712
0.00128127
0.00152889
0.00211152
0.00211864
0.00231002
0.00122812
0.00111505
0.000422094
0.000434757
0.000416042
0.000400336
0.000404843
0.000455649
0.000466885
0.00048961
0.000500203
0.000522796
0.000674311
0.000640826
0.000568479
0.00059714
0.000611551
0.000543522
0.00108034
0.000879659
0.000834606
0.000996103
0.00105369
0.00092261
0.000787869
0.0007342
0.000354744
0.000344101
0.000349449
0.000346182
0.000321493
0.000325993
0.000331604
0.000334043
0.000336408
0.000340198
0.00031906
0.000316035
0.000317331
0.000319874
0.000324909
0.000364893
0.000363616
0.000371494
0.000376916
0.000365975
0.000361593
0.000360494
0.000378415
0.000379503
0.000379608
0.000384636
0.000389452
0.000357148
0.000391782
0.000395906
0.00165479
0.00182056
0.00174678
0.00196532
0.00200866
0.00143016
0.00134712
0.00128786
0.00162039
0.00228918
0.00124119
0.00112766
0.000424506
0.000439291
0.000407881
0.000396755
0.000395952
0.00040257
0.000399234
0.000450002
0.000473469
0.000484193
0.000501425
0.00053231
0.000511443
0.00068512
0.000652002
0.000568075
0.000594916
0.000622819
0.000544681
0.000865765
0.000815829
0.00103196
0.00108117
0.000939792
0.000765903
0.000724043
0.000351956
0.000340969
0.000346612
0.000344773
0.000321993
0.000317285
0.000326292
0.000328837
0.000332073
0.000337161
0.000333454
0.000314529
0.000314349
0.000315963
0.000319565
0.000363765
0.000361079
0.000369575
0.000374278
0.000363658
0.000359624
0.000357736
0.000375097
0.000377579
0.000377022
0.000381459
0.000384669
0.00035603
0.000387607
0.00169181
0.00196573
0.00189228
0.00208586
0.00218352
0.00151198
0.00141619
0.00136349
0.00166991
0.00117839
0.0013108
0.000418558
0.000433664
0.000404502
0.000391825
0.000391927
0.00039631
0.000394944
0.000455668
0.00046692
0.000489779
0.000524731
0.000513542
0.00067105
0.000705255
0.000638874
0.000555407
0.000581121
0.000608075
0.000530532
0.000890786
0.00083297
0.00101977
0.00112775
0.000983008
0.000926439
0.000766467
0.000741202
0.000351281
0.00033914
0.000346304
0.000342569
0.000319633
0.000313805
0.000323836
0.000327307
0.000328965
0.000335273
0.000331242
0.000310132
0.00030965
0.000310064
0.000316609
0.000361075
0.000358441
0.000371473
0.000367058
0.000360706
0.000364467
0.000356999
0.000354986
0.000372703
0.000373895
0.000373262
0.000377965
0.000381477
0.000383474
0.000353295
0.000387956
0.00181827
0.00208412
0.00201111
0.00193607
0.00222523
0.00230538
0.0016206
0.00149455
0.00141107
0.00180775
0.00118891
0.00131207
0.00137673
0.00042322
0.000410537
0.000438588
0.000397919
0.00038854
0.000390893
0.000390395
0.000449409
0.000472595
0.00048482
0.000503446
0.000677293
0.000698184
0.000647325
0.000556172
0.000579713
0.000608367
0.000529058
0.000871559
0.000820422
0.00106755
0.00117707
0.00111763
0.000991795
0.000952071
0.000790234
0.000734259
0.000348558
0.00033642
0.000340164
0.000343664
0.000341946
0.000317323
0.000321495
0.000309329
0.000314053
0.000323867
0.000327409
0.000333113
0.000328709
0.000331292
0.000307173
0.000306937
0.000305449
0.000310561
0.000359514
0.000358553
0.000356284
0.000369176
0.000366787
0.000358852
0.000361923
0.000354666
0.000352759
0.000369672
0.000371604
0.000371464
0.000376026
0.000377639
0.000379992
0.000383679
0.00222102
0.00218368
0.00211575
0.00232855
0.00170632
0.00157529
0.00152102
0.00192934
0.00126393
0.00138087
0.00144506
0.000419087
0.000403861
0.000434045
0.000397536
0.000391912
0.000383391
0.000385248
0.000385564
0.000454389
0.000472508
0.000492112
0.000505076
0.000669252
0.00071111
0.00064109
0.000541942
0.000568422
0.00059355
0.000623624
0.000516632
0.000892945
0.000844577
0.00106941
0.00122403
0.0011674
0.00102796
0.000935585
0.000779504
0.000752517
0.000347165
0.000335384
0.000338675
0.00034305
0.000339544
0.000317433
0.000319306
0.000307226
0.000311814
0.000322789
0.000324943
0.000331991
0.000327766
0.000329249
0.000301648
0.000301841
0.000305189
0.000301075
0.000315374
0.00035657
0.000356172
0.000353956
0.000364554
0.000356676
0.000359556
0.000361996
0.000351957
0.000350399
0.00036755
0.000368524
0.000373356
0.000368899
0.000374746
0.00037613
0.000380372
0.00230369
0.00229303
0.00210495
0.00183343
0.0016803
0.00158875
0.00193264
0.00127688
0.0013972
0.00153367
0.0004117
0.000425082
0.000404377
0.000438946
0.000392557
0.000385833
0.000381825
0.000382577
0.000380364
0.000447321
0.00046429
0.000482771
0.000494215
0.000682754
0.000704064
0.000655962
0.000537765
0.000573498
0.000590354
0.000620003
0.000514078
0.000880343
0.000830311
0.00111646
0.00121365
0.00119218
0.00103018
0.000963916
0.000799016
0.000742288
0.000348384
0.000344933
0.000336785
0.000333175
0.000341188
0.000338167
0.000315222
0.000317614
0.000309232
0.000305108
0.000312979
0.000320683
0.000323353
0.000329666
0.000325816
0.000299079
0.000299879
0.000300873
0.00029673
0.000288311
0.000355136
0.000354003
0.00035168
0.000364855
0.000355009
0.000357429
0.000359675
0.000349858
0.000365782
0.000370795
0.00036594
0.000368748
0.000370534
0.00037424
0.000376354
0.0022997
0.00189012
0.00176696
0.00171015
0.00211776
0.00133012
0.00147922
0.00160365
0.000409557
0.000422072
0.000398371
0.000433998
0.000392876
0.000386115
0.000380699
0.000377958
0.000377747
0.000376583
0.000448328
0.000464971
0.000483824
0.000493063
0.000675454
0.000718947
0.000651216
0.000524482
0.000549002
0.000564639
0.000602882
0.000634102
0.000503136
0.000908128
0.000850313
0.00107768
0.00116244
0.00127392
0.00125254
0.00100652
0.000948436
0.000785511
0.0007581
0.000346161
0.000344579
0.000335003
0.000333198
0.000340838
0.000339235
0.00033596
0.00031478
0.000318589
0.000307361
0.00030247
0.000305412
0.000310568
0.000320228
0.000321507
0.000323895
0.000328677
0.000325332
0.000294737
0.000296832
0.000295325
0.000293907
0.000358499
0.000353207
0.00035148
0.000349409
0.000362899
0.000353167
0.000355415
0.000357455
0.000360172
0.000347494
0.000363304
0.000368643
0.000363758
0.000366127
0.00036912
0.000371482
0.000374839
0.00201436
0.0017851
0.00177686
0.00214127
0.00147781
0.00157305
0.00172905
0.000400846
0.000414492
0.000426838
0.000438274
0.000387107
0.000383245
0.000375317
0.000374052
0.000373889
0.00037225
0.000456077
0.00047402
0.000483388
0.000689092
0.000709625
0.000665075
0.000521538
0.0005426
0.000573528
0.000602023
0.000633118
0.000502927
0.000887044
0.000834163
0.0010804
0.00119586
0.0012971
0.00126276
0.00102918
0.000978041
0.00080292
0.000745915
0.000345599
0.000342368
0.000334407
0.000331758
0.00033907
0.000338215
0.000335362
0.000313849
0.000317435
0.000308143
0.000301428
0.000302999
0.000310006
0.000318348
0.00032025
0.000322359
0.000330228
0.000326903
0.000323492
0.000291719
0.000293213
0.000296811
0.000297726
0.00028834
0.000131711
0.000351332
0.000350084
0.000349453
0.000347286
0.000351543
0.00035349
0.000355213
0.00035924
0.000360961
0.000365464
0.000364037
0.000361219
0.00036681
0.000369176
0.000370816
0.00205489
0.00193476
0.00191285
0.00231936
0.00143998
0.00159523
0.00166513
0.00181901
0.000397924
0.00041228
0.000418264
0.000437904
0.000381546
0.000378419
0.000371373
0.000374106
0.000370545
0.000369181
0.000368344
0.000455774
0.000473959
0.000484028
0.000681258
0.000722732
0.000665166
0.000531307
0.000512987
0.000550925
0.000588996
0.00056478
0.000618035
0.000649083
0.000494072
0.00090854
0.000852809
0.00112432
0.00117916
0.00136458
0.00131898
0.00102655
0.000954662
0.000787792
0.000760244
0.000343277
0.000341532
0.00033238
0.000331212
0.000337466
0.000336667
0.000333682
0.000311985
0.000315537
0.000306316
0.000299154
0.000302516
0.000308592
0.000318406
0.000320716
0.000322237
0.000329109
0.000327381
0.00032249
0.000287566
0.000291064
0.000294548
0.000265878
0.00029077
0.000823179
0.000349192
0.000347864
0.000347358
0.000345372
0.000351654
0.000349332
0.00035326
0.000355225
0.000357234
0.000359732
0.000363112
0.00036174
0.000360324
0.000364016
0.000366931
0.000368058
0.0022127
0.00197512
0.00199913
0.00151287
0.00165096
0.00178194
0.00196408
0.000390185
0.00040415
0.000420112
0.000430372
0.000447417
0.000383162
0.00037516
0.000374208
0.000366982
0.00036945
0.0003672
0.000366156
0.000364756
0.000464951
0.000475892
0.000693431
0.00071143
0.000680679
0.000526345
0.000516123
0.000545344
0.000590391
0.000571008
0.000616917
0.000649583
0.000497019
0.000889218
0.0008344
0.00113051
0.00123718
0.00136311
0.00107378
0.000983182
0.000803507
0.000745992
0.000343239
0.000339354
0.000332213
0.000329463
0.000335508
0.000337584
0.000335182
0.000333645
0.000311331
0.000314218
0.000304525
0.000306742
0.000298014
0.000300974
0.000309311
0.000317467
0.000319648
0.000320349
0.00032641
0.000320371
0.000323455
0.000285713
0.000292046
0.000287959
0.000294314
0.000281503
0.000286986
0.000406541
0.000347591
0.000346467
0.000345591
0.000350101
0.000347808
0.000351326
0.000353257
0.000355876
0.000356945
0.000359635
0.000359147
0.000358144
0.00036224
0.000365014
0.000365423
0.00230075
0.0021465
0.00216313
0.00160886
0.00145494
0.00176474
0.00189771
0.00207915
0.000387461
0.000400659
0.000414262
0.00043278
0.000448778
0.000375397
0.000370211
0.000369876
0.000366001
0.000364038
0.000364757
0.000362461
0.000360956
0.000465913
0.000478416
0.000722234
0.000688451
0.000532935
0.000507644
0.000553684
0.00060435
0.000583929
0.000566672
0.000632431
0.000668996
0.000488114
0.000910747
0.000850809
0.00118354
0.00130082
0.0013526
0.00107002
0.00103023
0.000952118
0.000784914
0.000758181
0.000341738
0.000338607
0.000330262
0.000328877
0.000334204
0.000335769
0.000332229
0.000312433
0.000314795
0.000303105
0.000305355
0.000296267
0.000299337
0.000301338
0.000309098
0.000316154
0.000318344
0.000327213
0.000325073
0.000319658
0.00032239
0.000282221
0.000290081
0.000286559
0.000292573
0.000284284
0.000283709
0.000155103
0.000345863
0.000344413
0.000343801
0.000348419
0.000349876
0.000346239
0.000351481
0.000353504
0.000356284
0.000358083
0.000356527
0.000356262
0.000359751
0.000362962
0.000362678
0.00231138
0.00167989
0.00150169
0.00186256
0.00179077
0.00205436
0.0022275
0.000380288
0.000393376
0.000406385
0.000418365
0.000442891
0.000427776
0.000458652
0.000373586
0.000369892
0.000364594
0.000365091
0.000361597
0.00036011
0.000361676
0.000362666
0.00035955
0.000361121
0.000358651
0.000471125
0.000709584
0.000521953
0.000509757
0.00054063
0.000602156
0.000590511
0.000576584
0.000633311
0.000671964
0.000488185
0.000885166
0.000821642
0.00120004
0.00132968
0.00143148
0.00112515
0.00104148
0.000969544
0.00079454
0.000750195
0.000342331
0.000340065
0.000336989
0.000329585
0.00033276
0.00033448
0.000335459
0.000331785
0.000330789
0.000312244
0.000313437
0.000303425
0.000305983
0.00029626
0.00029781
0.00030013
0.00031071
0.000307595
0.000315586
0.000316617
0.000326181
0.000324285
0.000320973
0.000318252
0.00032283
0.000281906
0.000280354
0.00029046
0.000288008
0.000284374
0.000292938
0.000289421
0.000281551
0.000220637
0.000927787
0.000344297
0.000344198
0.000343044
0.00034736
0.000348015
0.000344584
0.00034515
0.00034941
0.000352485
0.000353975
0.000355534
0.000354313
0.000353968
0.00035887
0.000360403
0.000360119
0.001683
0.00159885
0.00200832
0.00190074
0.00218497
0.00232295
0.000380604
0.00039422
0.000401333
0.000415019
0.000447957
0.000432779
0.000461777
0.000367027
0.000363706
0.000360943
0.000361067
0.000358775
0.000360546
0.000356507
0.000357767
0.000356304
0.000469831
0.000723405
0.000525759
0.000498537
0.000615587
0.000651442
0.000694646
0.000477948
0.000901503
0.000825549
0.00127389
0.00117582
0.00140112
0.00145786
0.00109404
0.00101752
0.000943314
0.000767834
0.000340771
0.000339707
0.000336892
0.000328192
0.000332114
0.000332977
0.000334428
0.000330269
0.000329848
0.000313893
0.000302489
0.000304648
0.000294826
0.000298203
0.00030073
0.000309718
0.00030717
0.000316417
0.000324745
0.000326808
0.000319908
0.000317748
0.00032261
0.000279692
0.00027603
0.000288828
0.000286078
0.000284289
0.000292116
0.000275634
0.000225731
0.000233899
0.000342591
0.000342329
0.000341235
0.000345726
0.000347768
0.000343235
0.000343545
0.000348692
0.000350294
0.00035279
0.000354988
0.000353786
0.000352224
0.000352099
0.00035669
0.000357823
0.0018127
0.00163415
0.00216932
0.00194099
0.00227941
0.000388161
0.000374496
0.000405763
0.000419899
0.000442028
0.000456935
0.000427774
0.000361105
0.000367628
0.000359356
0.000356406
0.000356894
0.000354961
0.000358041
0.000355704
0.000353135
0.000356038
0.000352748
0.00035402
0.000461702
0.000717902
0.000891037
0.00079505
0.000859007
0.00128008
0.00121522
0.00142911
0.00154741
0.00112236
0.00104545
0.000960839
0.000768051
0.000340062
0.000338117
0.000335285
0.00032773
0.000330564
0.00033302
0.000329659
0.000328523
0.000312983
0.000303318
0.000304555
0.000294662
0.000297296
0.000300755
0.000310492
0.00030835
0.000305869
0.000315569
0.000323791
0.000325965
0.000320162
0.000318505
0.000316411
0.000321557
0.000280315
0.000276477
0.000289289
0.000287124
0.000285507
0.000282562
0.00029092
0.000293086
0.000274949
0.000194794
0.000255532
0.000981443
0.000341166
0.000341126
0.000344755
0.000345776
0.000341706
0.000342451
0.00034664
0.00034953
0.000350891
0.000353191
0.000351166
0.000350492
0.000350169
0.000355063
0.000355598
0.00182586
0.00173637
0.00229397
0.00211485
0.000389941
0.000376534
0.000403854
0.000417467
0.000444922
0.000429588
0.000355237
0.000361997
0.000353328
0.000354477
0.000351338
0.000353937
0.000352739
0.000353475
0.000351775
0.000353497
0.000351929
0.000453815
0.000741329
0.000921999
0.00133773
0.00121437
0.00152804
0.00141129
0.00109794
0.00118395
0.00100507
0.000338574
0.000337333
0.000334227
0.000326395
0.000329698
0.000331803
0.000328425
0.000327825
0.000311827
0.000314191
0.00030212
0.000303418
0.000295891
0.000298347
0.000299652
0.000309475
0.000308319
0.000306006
0.000324549
0.000319509
0.000317847
0.000315792
0.000321527
0.000278735
0.000274483
0.00028851
0.000286137
0.000283948
0.00028225
0.000290688
0.000293189
0.000272396
0.000176714
0.00025971
0.000295963
0.000339385
0.00033943
0.00034307
0.000345167
0.000340374
0.000340688
0.000346295
0.000347766
0.000349261
0.000351049
0.000351767
0.000348682
0.000348521
0.000348776
0.000352601
0.000353249
0.00196044
0.00177693
0.00211881
0.000384978
0.000397817
0.000374989
0.000411163
0.000421928
0.000437049
0.000355548
0.000351414
0.000362652
0.000349439
0.000350195
0.000348381
0.000350318
0.000349336
0.000351212
0.000349793
0.000351212
0.000349394
0.00128751
0.00160017
0.00149389
0.00113453
0.00122073
0.00102413
0.000338176
0.000336344
0.00033484
0.000332773
0.000325718
0.00033066
0.000328682
0.00033177
0.000327315
0.000326434
0.000312246
0.000313501
0.00030207
0.000303704
0.000295957
0.000297131
0.000299725
0.000309901
0.000307349
0.000305048
0.00032381
0.000318421
0.0003202
0.00031652
0.00031433
0.000322568
0.000277011
0.000279081
0.000275104
0.000271862
0.000289275
0.00028691
0.000284386
0.000280722
0.00029176
0.000294626
0.000269666
0.000219119
0.000190045
0.000265243
0.000979997
0.000338447
0.000338551
0.000341817
0.00034363
0.000339112
0.000339693
0.000344403
0.000347723
0.000349726
0.000350223
0.000346961
0.000347021
0.000346888
0.000351755
0.00191159
0.00170142
0.00229545
0.000386926
0.000398805
0.000381817
0.000369139
0.000405498
0.000350981
0.000346224
0.000354952
0.000343647
0.000348317
0.000344697
0.000348059
0.000347824
0.00034954
0.000349815
0.000347657
0.000348959
0.000347281
0.00131656
0.00159443
0.00146769
0.00108335
0.0011914
0.00127746
0.000336867
0.000333913
0.000331679
0.000324408
0.000330091
0.000328987
0.000327526
0.000330594
0.000326122
0.000311246
0.000301067
0.000302849
0.000297405
0.000298937
0.000309007
0.000307732
0.000305475
0.000317423
0.000319776
0.000316347
0.000313616
0.000321718
0.000276104
0.000277118
0.000272974
0.000271198
0.000288678
0.0002861
0.00028349
0.000281479
0.000291222
0.000294613
0.000268673
0.00026732
0.000227444
0.000133976
0.000265183
0.000393673
0.000336892
0.000337302
0.000340475
0.000342194
0.000343103
0.000337858
0.000338635
0.000344501
0.000346239
0.000348109
0.000348488
0.000345318
0.000346688
0.000346142
0.000345449
0.000345707
0.000349364
0.00200898
0.00175738
0.00218281
0.000393196
0.000377683
0.000371139
0.000345878
0.000342017
0.000352837
0.000339904
0.00034469
0.000342727
0.00034132
0.000344873
0.000345051
0.00034779
0.000346992
0.000345296
0.000346897
0.00034447
0.00138467
0.00167882
0.00155027
0.0012272
0.00129511
0.000335662
0.00033302
0.000334514
0.000330425
0.000331904
0.000323392
0.000328316
0.000326429
0.000329932
0.000325242
0.000311387
0.000301521
0.000303341
0.000297215
0.00029953
0.000309392
0.000306784
0.000304665
0.000317715
0.00031883
0.00032066
0.000315488
0.000312572
0.000314371
0.000322138
0.000274608
0.000277084
0.000272799
0.000287006
0.000289618
0.000284384
0.000280658
0.000292273
0.000296209
0.00029377
0.000267501
0.000264353
0.000248389
0.000170843
0.000264081
0.000353987
0.000336355