/*--------------------------------*- C++ -*----------------------------------*\
| =========                 |                                                 |
| \\      /  F ield         | OpenFOAM: The Open Source CFD Toolbox           |
|  \\    /   O peration     | Version:  v2012                                 |
|   \\  /    A nd           | Website:  www.openfoam.com                      |
|    \\/     M anipulation  |                                                 |
\*---------------------------------------------------------------------------*/
FoamFile
{
    version     2.0;
    format      ascii;
    class       volScalarField;
    location    "1";
    object      omega;
}
// * * * * * * * * * * * * * * * * * * * * * * * * * * * * * * * * * * * * * //

dimensions      [0 0 -1 0 0 0 0];


internalField   nonuniform List<scalar> 
13611
(
48.5795
48.1275
50.017
49.0205
47.0999
51.1119
50.2224
48.6646
46.0357
46.8123
52.5089
51.3983
47.594
49.7256
44.9947
46.0215
52.6447
53.8957
51.6905
46.5874
48.9744
51.0461
44.0282
45.0412
45.8311
54.1213
55.4622
53.1769
46.6575
47.7623
49.734
51.7342
43.0364
44.3555
44.7388
54.3167
55.5171
57.0586
53.1854
45.5223
47.4821
49.5145
50.8888
51.478
42.8195
42.1429
43.5484
44.5632
55.8422
57.0425
58.8007
54.2753
45.4138
48.4204
46.3946
50.543
51.6506
52.8301
42.0414
41.3076
42.6787
43.561
57.2693
55.7448
58.4933
60.7335
54.0151
44.3741
48.2533
46.1792
50.5763
52.6999
41.9822
41.2931
40.4641
42.6645
43.482
58.7673
57.0296
60.1003
62.7223
55.2571
44.3385
47.0782
49.1916
45.2829
51.6286
53.9195
41.2019
40.6341
39.7299
41.7055
42.4157
59.2134
56.5942
58.354
61.7764
63.2064
64.7455
55.4526
43.7306
46.6065
48.8891
44.8995
51.0644
52.5551
53.8071
41.013
40.6009
39.8245
38.8699
41.5925
42.1386
60.9992
57.8471
59.1052
62.5318
65.4649
67.0403
56.9162
43.0167
44.0328
45.5276
47.3417
48.3679
50.1563
51.887
55.3019
40.0881
39.8362
39.449
38.3763
40.7806
41.5162
60.6109
58.4715
64.3514
67.3432
65.6534
69.2758
56.953
42.4633
43.2754
45.4877
46.4383
49.0894
50.2521
52.8808
55.5069
39.9806
39.5347
38.7222
37.6842
40.3197
40.7226
41.7179
62.1008
60.1133
65.3009
69.5374
67.7324
71.8854
58.6755
42.5187
43.5472
44.6275
46.8623
48.2341
51.244
54.2454
52.3923
57.1782
39.3988
38.7069
38.3327
37.2931
37.0602
39.5368
40.0977
41.2727
64.3742
61.5841
60.3068
67.6956
71.6466
69.4976
74.7053
58.8367
41.6222
42.9871
44.5781
46.5259
48.6912
50.8226
54.2959
53.1147
57.1307
38.6498
38.2469
37.6185
36.6225
36.4461
39.0381
39.3437
40.3982
66.1329
63.1643
61.9944
69.5811
73.9121
71.6964
77.3833
60.4912
41.4545
43.4595
42.1997
45.463
47.4013
48.4315
49.9579
52.0187
55.599
58.8693
38.16
37.4094
37.1323
36.2111
36.1699
35.8321
38.3753
38.6665
40.0589
65.0385
68.4553
62.9702
69.6039
72.288
76.3246
80.0174
77.9437
62.0479
60.4244
40.6765
43.1114
41.52
45.3438
47.1035
49.2403
50.3107
52.5773
55.8642
58.9953
37.4424
37.0347
36.4195
35.5567
35.5045
35.3669
37.7316
38.604
37.9252
39.2907
66.3546
70.0519
65.2386
72.3981
74.8764
77.9173
83.0726
80.9479
63.2675
61.971
40.7727
42.3663
43.8972
41.6059
46.1783
44.6244
47.9473
49.1566
51.3881
53.9778
57.6206
55.1803
60.7939
37.2323
36.2545
35.9371
35.2033
35.1397
34.7491
37.9446
37.4008
39.3194
68.9018
72.569
66.4128
74.5637
77.7045
81.3912
86.1826
65.0908
62.8579
40.1116
42.5594
43.3035
40.8581
45.3479
44.5936
47.7654
50.15
51.3726
53.7904
57.5631
56.1398
60.4892
62.4704
36.6753
35.8134
35.3614
34.5472
34.5355
34.3127
37.4426
37.6137
36.7585
38.7355
70.5584
75.0006
68.7507
77.1897
80.5963
84.4421
87.6113
88.9907
66.0274
64.9503
40.1022
41.8575
43.6061
40.6012
45.7396
48.8595
46.907
49.9326
52.4971
54.865
58.8546
56.0386
61.9898
64.0791
36.1568
36.3752
35.2732
34.6801
34.2276
34.2905
33.6991
36.9299
36.9969
38.0221
36.5164
38.8938
73.1798
75.3052
77.7187
69.6088
79.7019
83.3955
85.3817
91.0901
93.529
68.3201
65.976
39.5927
41.8096
41.0806
43.2983
39.8061
44.9916
48.9209
47.2121
50.9461
52.0233
55.0426
58.6524
57.2888
61.8092
63.9562
35.7092
35.7806
34.651
35.2659
33.6122
33.7094
33.2022
33.3454
36.5453
37.4443
35.9847
38.4039
73.7327
78.3326
80.5984
72.3668
82.307
84.9864
89.3036
92.4683
93.6915
97.8504
69.7048
67.9496
40.9012
42.49
40.5661
44.073
39.4013
45.3777
50.0325
48.2061
46.3998
50.9822
52.9192
54.1782
56.5127
60.0159
63.3862
65.8882
35.2505
34.1294
34.7849
33.366
33.3593
32.6457
32.8374
35.9421
36.7843
37.6463
35.386
38.6376
76.8453
81.2079
83.3476
74.0815
88.1961
92.4473
96.5575
97.8988
103.025
72.2233
68.6993
40.9037
42.6354
39.7883
43.4403
44.91
49.8665
48.6342
46.4161
52.0135
54.8448
57.3045
59.076
65.2885
63.3182
67.9504
34.7012
33.5975
34.2673
32.7834
32.7871
32.4361
32.5353
35.4671
36.1903
37.1835
34.7992
38.192
78.8449
84.2115
86.8325
77.022
91.2428
96.0052
98.9726
102.211
108.854
73.1623
71.3616
39.9438
41.7446
39.4197
43.8886
45.4034
50.7196
48.3544
47.2613
52.5558
54.0267
56.4076
60.0773
66.8829
65.4815
62.0363
69.6806
34.2218
33.0625
33.7571
32.4877
32.6629
32.0354
32.1112
34.8295
35.6094
36.074
36.5925
37.5104
34.2809
38.5876
82.1237
86.5885
85.7295
90.3101
78.6901
95.8745
98.197
103.195
106.704
115.175
76.2666
72.1595
39.5742
41.7551
43.435
44.9825
50.5331
51.8638
49.3356
46.7781
54.7355
57.1956
58.8934
69.1825
66.5155
62.8285
33.6992
33.189
31.9617
32.1526
31.6512
31.7147
34.4501
35.1873
35.5542
36.2181
36.9555
33.7856
37.9717
83.688
84.3066
90.218
89.9943
93.6724
82.1723
98.98
103.277
105.246
111.9
122.465
115.469
77.3684
74.6488
38.9283
40.2106
40.9656
42.67
44.0509
45.6593
51.4991
52.5599
48.8277
47.5118
53.827
56.2761
59.5709
71.4124
64.7446
68.6209
61.3624
33.2518
32.7091
31.7958
31.5994
31.9201
31.2425
31.2603
31.273
33.9984
34.6806
35.1487
35.6234
36.4081
36.7707
33.6337
33.3295
37.2239
38.2208
87.1915
87.7632
93.3553
93.2874
97.421
84.5881
104.433
106.522
110.83
115.132
130.825
122.816
80.7159
75.1884
38.9429
39.5143
41.0704
42.6787
43.4666
45.172
52.0295
49.7191
47.1298
54.5095
57.026
58.683
70.5564
74.0425
64.9111
68.5107
61.7246
32.7325
32.2129
31.3184
31.0627
31.4095
30.7988
30.8299
30.9192
33.6474
34.4689
34.7211
35.314
36.0238
36.1559
33.2561
32.9318
36.8912
37.873
90.0223
91.6372
96.9146
97.9046
100.655
83.8539
88.7508
108.32
112.174
121.466
140.571
130.04
80.7977
78.3637
38.2457
39.7012
41.8817
40.4533
44.019
45.8799
53.6142
51.1269
49.1691
47.972
56.1182
59.5663
72.5255
75.7765
63.6246
66.9832
70.8027
61.2432
32.39
31.8227
30.9385
31.1176
31.1779
30.4518
30.4305
30.5347
33.7219
33.2841
34.0805
34.3629
34.8959
35.5811
35.9137
32.8982
32.5322
36.2811
37.2437
93.8427
94.874
102.477
105.191
87.5907
91.4491
114.073
117.916
127.442
150.262
138.43
84.0537
78.5149
37.7471
39.5779
41.7493
40.1892
43.3969
45.5606
54.3862
51.7224
49.901
47.4164
56.9449
58.714
75.0233
64.3544
67.6933
71.8897
62.593
31.9155
31.4113
30.5301
30.6176
30.7716
29.9849
29.9857
30.0701
33.2964
32.9665
33.9464
34.4969
34.7906
35.1551
35.3076
32.5786
32.2072
35.9195
36.6912
96.9672
99.5438
103.256
107.066
108.493
91.4705
87.5001
95.578
117.175
117.815
125.292
136.266
161.351
151.114
147.399
84.0875
80.9932
38.1317
36.8855
39.0408
42.4862
40.8212
43.9105
46.4447
44.7528
55.9902
53.2119
51.1499
49.2961
48.0752
59.7056
77.2982
66.1556
69.9087
74.624
61.774
31.6662
31.0613
30.1036
30.34
30.4538
30.578
29.7406
29.7449
29.5956
33.0484
32.9859
32.6224
33.6643
34.1314
34.3088
35.0444
32.2372
31.8885
35.3991
36.1109
101.346
108.837
112.065
115.159
95.5305
91.4383
98.9061
124.151
125.179
132.865
143.948
173.728
163.793
154.976
87.0598
80.4141
37.693
36.4823
39.2507
42.3329
40.725
43.0132
45.717
44.8441
56.8913
53.3026
51.8817
50.0257
47.322
58.7452
77.3436
67.0549
70.3091
74.3059
63.133
31.3794
31.0781
30.7491
29.7886
29.9041
30.1297
30.2686
29.3761
29.3222
29.3245
32.6594
33.2751
32.624
32.3763
33.7943
33.992
34.172
34.6054
31.9486
31.6237
35.0828
35.5913
106.16
112.419
118.149
120.334
98.1984
90.2813
95.2842
104.137
130.017
132.022
141.882
154.183
166.568
86.6095
83.1962
38.0822
36.9065
35.9018
38.7908
40.0236
41.4992
43.0911
46.119
44.0843
56.7997
54.5288
51.3516
49.9813
47.73
59.6994
80.1658
69.4026
65.4543
72.6225
76.7652
61.5093
31.3644
30.7653
30.4789
29.3469
29.6211
30.0555
29.7668
30.2251
28.9758
28.9367
28.9611
32.4253
32.5726
33.1137
32.3822
32.0322
33.5803
33.6668
33.8839
34.4051
31.6393
34.629
35.1771
35.4816
111.687
119.751
123.806
128.08
103.356
93.0121
97.2181
108.613
138.777
140.172
150.588
165.24
176.097
89.8369
82.5697
37.5782
36.5643
35.414
39.05
39.7966
41.2324
42.658
45.8406
43.9421
55.9965
58.4533
53.512
52.167
48.8695
51.1686
46.6379
81.406
70.9184
66.5955
73.2946
79.3676
75.3048
62.1355
31.0904
30.4879
30.7961
29.0184
29.161
29.7846
29.605
29.9913
28.6942
28.4964
28.6321
32.1438
32.8043
32.2679
33.2929
32.1062
31.9121
33.3832
33.5398
34.0302
31.4012
34.4752
34.756
35.035
117.32
123.972
132.254
134.482
107.782
101.946
96.9121
114.968
147.163
149.742
162.175
176.216
91.9216
85.8477
36.9541
37.8494
36.0125
35.0053
35.4927
38.6347
40.3212
41.8497
43.1519
44.7664
56.9377
58.5731
54.1759
48.9214
51.7992
46.741
84.4988
69.6597
65.9334
80.6538
76.921
64.1641
60.1736
31.0818
30.2322
30.5582
28.6408
28.9155
29.6019
29.3636
29.7123
29.9913
28.3601
28.2404
28.3706
28.237
32.0774
31.877
32.6367
32.1559
33.0484
31.8499
31.6524
33.0846
33.3013
33.2959
33.7308
31.4274
34.1022
34.6861
119.254
132.026
139.592
144.305
112.889
105.803
101.033
118.862
159.982
160.47
173.779
97.1775
88.9148
36.3737
37.3774
35.8935
34.6437
35.0027
39.0268
39.9118
41.6957
42.5254
44.2894
55.9753
53.413
47.8383
50.053
51.1632
45.9025
86.3608
71.4835
68.1098
80.1462
84.4023
74.6903
64.5935
60.5334
30.9926
30.1333
30.565
30.3012
28.3049
28.6693
29.1234
29.3209
29.5107
29.8174
27.9648
27.8891
27.9788
27.8677
27.9418
31.8034
31.701
32.3329
32.7682
31.8889
31.5387
31.4516
32.8889
32.9764
32.9851
33.3883
33.774
31.1851
33.961
34.2904
127.851
139.587
134.373
149.773
152.801
111.789
105.802
101.514
125.39
172.332
98.1252
89.8383
36.5653
37.7357
35.2448
34.3581
34.294
34.822
34.5556
38.5818
40.4292
41.2713
42.6211
45.0304
43.4036
56.8001
54.2686
47.8064
49.8809
52.0295
45.9922
70.4458
66.7
82.7939
86.4241
75.9691
62.9362
59.7626
30.7669
29.8792
30.3347
30.1864
28.3445
27.964
28.6907
28.8976
29.1599
29.5705
29.2707
27.7097
27.7441
27.4905
27.556
31.7117
31.4961
32.1781
32.5565
31.7014
31.3791
31.2288
32.6225
32.8222
32.7778
33.134
33.3915
31.093
33.6274
130.461
149.801
144.641
158.198
165.004
117.66
110.783
106.988
128.913
93.5466
103.179
36.0936
37.2908
34.9763
33.9645
33.9726
34.3229
34.2136
39.0284
39.9145
41.709
44.4398
43.5671
55.7262
58.3349
53.2621
46.8244
48.8154
50.8947
44.8909
72.3167
67.987
81.8961
89.843
79.1794
74.9767
62.9775
61.0639
30.7095
29.7299
30.3073
30.0069
28.1503
27.6772
28.4899
28.7726
28.9068
29.4161
29.0893
27.3822
27.3614
27.1297
27.2737
31.4941
31.2826
32.3308
31.9754
31.4627
31.7663
31.1665
31.0049
32.4303
32.5263
32.4756
32.8536
33.1358
33.2965
30.871
33.6553
139.418
158.077
152.973
147.701
167.902
173.452
125.414
116.411
110.413
138.683
94.3147
103.27
107.941
36.4632
35.4566
37.6799
34.4521
33.7021
33.8909
33.8504
38.5348
40.3603
41.3204
42.7783
56.2022
57.7962
53.9092
46.884
48.7061
50.9172
44.7761
70.8812
67.0439
85.4224
93.4514
89.1012
79.8303
76.8816
64.7703
60.5372
30.4882
29.5084
29.8121
30.0916
29.9534
27.9603
28.2989
27.3096
27.694
28.4921
28.7775
29.2396
28.8818
29.0914
27.1054
27.1295
26.7596
26.7921
31.3668
31.2907
31.1083
32.1462
31.9535
31.3123
31.5607
30.9779
30.8254
32.1865
32.3422
32.3312
32.6981
32.8279
33.0177
33.3131
167.608
165.015
160.277
175.06
131.502
122.18
118.312
147.229
99.7836
108.244
112.862
36.1354
34.9255
37.3206
34.4216
33.9728
33.2901
33.4398
33.4638
38.9269
40.353
41.8913
42.9049
55.588
58.7782
53.4318
45.7793
47.8334
49.7755
52.0915
43.8082
72.4773
68.8559
85.5591
96.8758
92.744
82.5035
75.6574
63.9606
61.9195
30.3728
29.4226
29.6892
30.0387
29.7577
27.9659
28.1188
27.1335
27.5079
28.402
28.5757
29.1458
28.8024
28.9228
26.7107
26.7101
26.5666
26.5567
27.0455
31.1281
31.0969
30.9188
31.7737
31.1356
31.369
31.5667
30.7576
30.6328
32.0156
32.0941
32.4835
32.1245
32.5962
32.7078
33.0483
173.335
172.601
159.527
140.492
129.659
123.142
147.457
100.72
109.418
119.213
35.5489
36.6106
34.9664
37.7079
34.0246
33.4875
33.1645
33.2254
33.0493
38.3696
39.707
41.1589
42.0562
56.6179
58.2426
54.5717
45.4579
48.2279
49.5313
51.8156
43.612
71.5354
67.7858
89.0174
96.1189
94.5545
82.6686
77.7601
65.4305
61.1456
30.4693
30.1903
29.5352
29.2416
29.8853
29.6422
27.7836
27.9784
27.2963
26.9583
27.5997
28.2284
28.4426
28.956
28.6412
26.4978
26.5361
26.1804
26.2352
25.0849
31.0112
30.9213
30.7344
31.7983
31
31.1964
31.379
30.5874
31.873
32.2773
31.8859
32.1122
32.2576
32.5563
32.726
173.062
144.48
135.791
131.779
160.421
104.575
115.313
124.203
35.3783
36.3719
34.4878
37.3168
34.0498
33.5101
33.0767
32.8545
32.8388
32.7461
38.4492
39.7604
41.241
41.9693
56.062
59.3738
54.2109
44.4247
46.3318
47.5441
50.4978
52.8992
42.7582
73.6074
69.2853
86.1705
92.3847
100.502
98.9549
80.9184
76.6099
64.4145
62.3428
30.2863
30.1588
29.3882
29.2418
29.8522
29.726
29.4608
27.746
28.0569
27.1396
26.7405
26.9801
27.3989
28.1873
28.2906
28.4841
28.8731
28.5977
26.1466
26.2821
25.9351
26.0515
30.2051
30.8541
30.7155
30.5489
31.6402
30.8501
31.0327
31.1988
31.4194
30.3942
31.6729
32.1049
31.7096
31.9011
32.144
32.3344
32.6044
153.197
137.082
136.485
162.042
115.209
122.026
133.12
34.6848
35.7703
36.7497
37.6554
33.5891
33.2806
32.6458
32.5413
32.529
32.3988
39.0607
40.4725
41.2111
57.1033
58.6672
55.2724
44.1963
45.8287
48.2321
50.4336
52.8254
42.7428
72.0356
68.0776
86.3661
94.8237
102.183
99.6991
82.5871
78.804
65.7271
61.4233
30.2395
29.976
29.3364
29.1228
29.7069
29.6399
29.4078
27.6658
27.9578
27.1999
26.6517
26.7791
27.3487
28.0308
28.1839
28.3558
28.9973
28.7253
28.4454
25.8873
25.9883
26.2729
26.1201
25.6272
13.4888
30.7012
30.6006
30.5512
30.3763
30.7172
30.8757
31.017
31.3439
31.4832
31.8486
31.7323
31.5041
31.958
32.1492
32.2812
156.043
147.631
146.078
174.429
112.497
123.614
128.583
139.478
34.4531
35.5963
36.0721
37.6294
33.1449
32.8944
32.3291
32.549
32.2593
32.1512
32.0846
39.0397
40.4709
41.2593
56.5081
59.6643
55.2811
44.9501
43.5235
46.4652
49.4254
47.5419
51.6653
54.0488
42.0399
73.6393
69.4775
89.588
93.6008
107.068
103.772
82.3953
77.0738
64.5905
62.5091
30.0486
29.9057
29.1683
29.0744
29.5716
29.5121
29.2669
27.51
27.8006
27.0447
26.4623
26.7339
27.2268
28.0332
28.2199
28.3435
28.9029
28.761
28.3558
25.556
25.803
26.0821
23.6295
25.7311
64.4898
30.5251
30.4183
30.3789
30.219
30.7258
30.536
30.8578
31.0176
31.1808
31.3836
31.6589
31.5462
31.4316
31.7323
31.968
32.0596
167.044
150.44
152.121
117.725
127.57
136.861
149.687
33.8367
34.9502
36.2215
37.0314
38.3805
33.2749
32.6335
32.557
31.9767
32.1756
31.9902
31.9074
31.7965
39.7622
40.6112
57.4378
58.8078
56.4657
44.5376
43.7509
46.0024
49.5235
48.0091
51.5718
54.0803
42.2441
72.2027
68.0993
90.0432
97.8281
106.958
85.8752
79.1901
65.7759
61.4316
30.0448
29.7254
29.1485
28.9301
29.4106
29.5788
29.3869
29.261
27.4503
27.6876
26.8957
27.0743
26.3625
26.6021
27.2816
27.9529
28.1289
28.1853
28.6767
28.1827
28.4319
25.3876
25.8778
25.5479
26.0552
24.8665
25.4205
33.8192
30.3947
30.3042
30.2352
30.5989
30.4105
30.7
30.857
31.0706
31.1576
31.3778
31.3372
31.2542
31.5892
31.8138
31.8474
173.131
162.429
163.585
124.584
113.575
135.647
145.01
157.735
33.6219
34.674
35.748
37.2137
38.4846
32.6545
32.237
32.2097
31.8985
31.7397
31.7932
31.6098
31.4902
39.8338
40.7832
59.6293
57.0561
45.0327
43.0546
46.6234
50.5934
49.011
47.6493
52.7547
55.5589
41.5188
73.8106
69.3285
93.9205
102.449
106.191
85.5989
82.6721
76.8903
64.3736
62.3532
29.9206
29.663
28.9856
28.8762
29.2993
29.4267
29.1416
27.5386
27.7303
26.7728
26.9536
26.2139
26.4663
26.6262
27.2579
27.8426
28.0207
28.738
28.5652
28.1175
28.3384
25.1011
25.7086
25.4262
25.904
25.0046
25.1858
15.317
30.2515
30.1348
30.0867
30.4603
30.581
30.2809
30.7122
30.8774
31.1034
31.2521
31.1245
31.102
31.3874
31.6479
31.6259
173.871
129.632
116.916
142.534
137.494
156.001
168.066
33.0474
34.0922
35.1258
36.0529
38.0006
36.788
39.2531
32.5127
32.2127
31.7856
31.8255
31.5445
31.4234
31.5449
31.6242
31.3764
31.5002
31.3051
40.1835
58.663
44.0973
43.1432
45.6097
50.3945
49.492
48.3981
52.7984
55.7644
41.4457
71.8987
67.1302
95.1259
104.542
111.877
89.6556
83.5068
78.1842
65.0939
61.743
29.9664
29.7823
29.5276
28.9257
29.1763
29.3185
29.4004
29.0983
29.0219
27.5166
27.6136
26.7947
26.9973
26.2053
26.3321
26.5189
27.3862
27.1283
27.7911
27.8747
28.6465
28.4939
28.2192
27.9978
28.3711
25.0523
24.9426
25.7307
25.539
25.2423
25.9258
25.4595
24.992
20.3019
71.981
30.1239
30.1132
30.0225
30.374
30.4284
30.1443
30.1912
30.5422
30.794
30.915
31.0453
30.9448
30.9145
31.3167
31.4413
31.4191
129.84
123.861
152.781
145.236
165.09
174.673
33.0636
34.1488
34.704
35.7432
38.3661
37.1473
39.4781
31.9847
31.716
31.4928
31.502
31.3168
31.4534
31.1303
31.2288
31.1158
39.9846
59.707
44.3708
42.2365
51.4203
54.1839
57.4934
40.6
73.1125
67.4081
100.505
93.3614
109.701
113.77
87.3779
81.737
76.2294
63.0699
29.835
29.7489
29.5145
28.8073
29.1173
29.1896
29.3119
28.9689
28.9379
27.6496
26.7106
26.8794
26.0808
26.3589
26.5626
27.2972
27.084
27.8507
28.5271
28.6924
28.1231
27.9476
28.345
24.8626
24.592
25.5883
25.3751
25.2308
25.8484
24.5498
20.6822
21.122
29.9808
29.9573
29.8718
30.2389
30.4077
30.032
30.0576
30.4833
30.6147
30.8181
31.0011
30.9026
30.7741
30.7628
31.1397
31.2334
139.021
126.373
164.012
148.051
171.646
33.646
32.5542
35.0235
36.08
37.8518
39.0525
36.688
31.5111
32.0215
31.3681
31.1275
31.1661
31.0094
31.2505
31.0631
30.8581
31.0885
30.828
30.9316
39.3293
59.2683
72.3152
65.1046
69.9159
100.955
96.2367
111.723
120.195
89.4524
83.7899
77.5143
63.0706
29.7747
29.6145
29.3796
28.7621
28.9845
29.1935
28.9113
28.8252
27.5664
26.7704
26.8622
26.055
26.2737
26.554
27.3549
27.179
26.9692
27.7716
28.4395
28.6163
28.1363
28.0055
27.8334
28.2513
24.9028
24.6094
25.6161
25.4473
25.3193
25.0833
25.7457
25.9189
24.4806
18.333
22.9735
75.9353
29.8638
29.8564
30.1585
30.2428
29.9042
29.9662
30.3136
30.5516
30.6623
30.8544
30.689
30.6332
30.6042
31.0087
31.0533
139.942
133.632
172.664
160.215
33.7119
32.6592
34.7833
35.7443
37.9765
36.7297
31.0393
31.5548
30.8835
30.9717
30.7191
30.9273
30.8291
30.8824
30.7465
30.8826
30.7624
38.6812
61.0389
74.6162
105.13
96.1767
118.824
110.438
87.6545
93.9606
80.791
29.6493
29.5461
29.2866
28.6485
28.9103
29.0894
28.8046
28.7594
27.4638
27.656
26.6616
26.7588
26.1515
26.3474
26.4548
27.2594
27.1672
26.9699
28.497
28.0702
27.941
27.7718
28.2367
24.7666
24.4396
25.5395
25.3544
25.1851
25.0484
25.7085
25.9094
24.2654
16.9937
23.2699
25.7098
29.7139
29.7143
30.0179
30.1921
29.7921
29.818
30.2846
30.406
30.5279
30.6793
30.7399
30.485
30.4706
30.4887
30.8087
30.8628
149.421
136.512
160.488
33.2717
34.2766
32.4434
35.2335
36.0277
37.3125
31.0642
30.7313
31.4992
30.5682
30.626
30.48
30.6351
30.5541
30.6982
30.5851
30.6966
30.5573
101.498
123.97
116.365
90.3269
96.6374
82.1895
29.6141
29.4615
29.3337
29.1613
28.5818
28.9919
28.8199
29.0796
28.7041
28.6365
27.484
27.5867
26.6493
26.7712
26.1397
26.2318
26.4468
27.2817
27.0769
26.879
28.4267
27.9782
28.1203
27.8264
27.6479
28.3188
24.6232
24.7823
24.475
24.2272
25.589
25.408
25.2131
24.9147
25.7855
26.0183
24.0369
20.1965
17.9399
23.6763
75.9814
29.6329
29.6392
29.9129
30.0637
29.6855
29.7333
30.1275
30.4017
30.5712
30.6132
30.3438
30.3463
30.3328
30.7409
146.01
131.169
172.768
33.2476
34.2228
32.8155
31.953
34.7088
30.6683
30.3121
30.908
30.1016
30.474
30.1819
30.4517
30.431
30.563
30.584
30.4125
30.5124
30.3848
103.599
123.558
114.49
86.5706
94.4895
100.764
29.5037
29.2526
29.0613
28.4695
28.9389
28.8428
28.7198
28.9777
28.6036
27.3906
26.5547
26.6867
26.2426
26.37
27.1921
27.0908
26.8965
27.8823
28.0755
27.7987
27.5762
28.2352
24.5376
24.6145
24.2961
24.1608
25.522
25.3217
25.126
24.9643
25.7203
25.9988
23.9532
23.8439
20.8011
13.783
23.6524
32.9279
29.4996
29.5321
29.7996
29.9434
30.0197
29.5774
29.6431
30.1338
30.278
30.4381
30.4714
30.2082
30.3212
30.2717
30.2177
30.2346
30.546
152.828
135.125
164.957
33.7069
32.3926
31.9274
30.2692
29.9732
30.6299
29.7975
30.1805
30.022
29.9091
30.1935
30.2061
30.4198
30.3532
30.2191
30.3443
30.1562
108.521
129.554
120.402
97.0881
102.034
29.3993
29.1736
29.3012
28.9511
29.0767
28.3739
28.7792
28.6203
28.9135
28.5228
27.3864
26.5791
26.7095
26.2116
26.4005
27.2102
26.9995
26.815
27.8937
27.9848
28.1428
27.716
27.4804
27.624
28.2635
24.4127
24.5974
24.2715
25.3799
25.5845
25.1817
24.8799
25.7905
26.1201
25.9138
23.8474
23.5941
22.3738
16.554
23.5544
29.9402
29.4519
29.3954
29.5048
29.732
29.8473
29.8835
29.4933
29.5401
29.6391
30.0145
30.3828
30.4068
30.1009
30.1538
30.1339
30.1069
30.1155
143.765
173.264
31.5018
29.825
29.6187
30.1847
30.9875
29.464
30.0487
29.751
29.6289
30.0809
30.0662
30.2597
30.2689
30.081
30.1772
106.247
133.86
128.128
117.179
29.1468
29.2047
28.8744
29.0198
28.3631
28.6989
28.8166
28.5385
28.6164
28.4364
27.3051
26.4965
26.6475
26.3024
27.1815
27.0019
26.8212
27.7971
27.9737
28.0607
27.7156
27.4658
27.5457
28.2096
24.2952
24.7466
24.4811
24.1573
25.3282
25.5378
25.0898
24.9528
25.7431
26.1216
25.9478
23.7198
24.023
23.3926
23.5192
23.0352
15.9046
23.3624
17.6987
29.356
29.2716
29.4008
29.7543
29.8023
29.3693
29.4717
29.5799
29.8795
30.0052
30.2491
30.2301
29.9975
30.1223
30.0588
30.0056
143.97
173.224
29.5193
29.5317
29.233
30.1809
29.7276
30.5998
29.3978
29.1767
29.8065
29.5537
29.6425
29.8636
29.8688
30.1392
30.1368
29.9083
30.1176
30.0262
110.548
134.745
130.299
122.38
29.0593
29.186
28.9132
28.7937
28.2603
28.649
28.7663
28.4538
28.5451
28.3979
27.2394
26.5346
26.6786
26.3094
27.1006
26.9181
26.7594
27.7684
27.9083
28.0554
27.6338
27.4
27.554
28.1303
24.3339
24.169
24.6918
24.4812
25.2471
25.4284
25.6232
25.132
24.8956
25.8154
26.0513
26.2172
25.9128
23.7795
23.9236
23.1676
23.413
20.3894
23.2105
29.2491
29.3315
29.3246
29.6358
29.6786
29.3241
29.4987
29.3835
29.7761
29.9072
30.1632
29.8641
29.9946
29.9314
29.8728
152.685
164.675
29.1608
28.974
28.998
29.7817
29.3113
29.1666
28.8253
29.7193
29.2975
29.4091
29.7661
29.7382
30.0059
29.9703
29.7597
29.8809
29.9292
29.9127
29.8897
144.658
138.778
29.0085
29.065
28.8653
28.7099
28.2492
28.6819
28.5607
28.4638
28.3256
27.3
26.51
26.5856
26.419
27.081
26.9065
26.8046
27.6864
27.8296
27.9221
27.9844
27.6193
27.4021
27.4716
28.0813
24.2872
24.0682
24.582
24.772
24.3708
25.2661
25.3725
25.6017
25.0769
24.9641
25.7925
26.0576
26.2157
25.9703
23.6894
23.932
22.9564
23.2073
23.5279
29.1917
29.2459
29.2346
29.5838
29.6044
29.2187
29.4042
29.3471
29.6575
29.7933
30.0171
29.86
29.7944
29.9367
29.8323
172.512
28.8379
28.9098
28.6596
29.3518
29.1238
28.9299
28.5572
28.737
29.5186
29.2298
29.3504
29.5903
29.5747
29.9068
29.6025
29.7183
29.8921
29.7357
29.7609
148.32
28.9248
29.019
28.7942
28.6547
28.6688
28.1909
28.523
28.3952
28.2792
27.2773
26.581
26.388
27.1549
26.9813
26.7671
27.661
27.7962
27.8473
27.9955
27.5562
27.3384
27.4716
28.1184
24.1659
24.0595
24.5472
24.7553
24.4108
25.2325
25.413
25.6979
25.5099
25.1427
24.9567
25.8753
26.1324
26.2986
25.9708
23.7308
23.8645
23.1057
23.4508
29.1071
29.1708
29.1736
29.1638
29.5012
29.519
29.2012
29.3425
29.2747
29.5646
29.6889
29.7491
29.6786
29.802
29.7197
160.458
28.4332
28.513
28.3412
28.988
28.8864
28.7725
28.2751
28.4891
29.4598
29.0111
29.1564
29.4987
29.5125
29.7598
29.5897
29.6632
29.747
29.6741
29.6625
29.6338
28.8322
28.9466
28.722
28.7706
28.5762
28.576
28.2018
28.4519
28.395
28.3166
27.2252
26.6865
26.5416
26.455
27.1176
26.9723
26.8326
27.5871
27.7153
27.8344
27.9621
27.5386
27.2857
27.4378
28.075
24.0887
23.9307
24.6329
24.8513
24.3622
25.3084
25.6833
25.5114
25.053
25.8567
26.1387
26.2875
26.0571
23.6651
22.8398
23.2162
22.9712
23.543
23.3452
29.056
29.0868
29.0938
29.0912
29.3993
29.4243
29.1315
29.2179
29.1944
29.4476
29.5264
29.6597
29.5913
29.649
29.5652
29.7102
29.5901
28.0492
28.5594
28.053
28.0209
28.6809
28.8403
28.5725
27.9881
28.2598
28.3247
29.3158
28.9853
29.1476
29.3432
29.3569
29.4316
29.5044
29.6256
29.5351
29.5126
29.5194
28.8491
28.9707
28.661
28.6836
28.5362
28.5425
28.161
28.4075
28.3229
28.2821
27.2249
26.6802
26.6032
26.433
27.0524
27.1593
26.9115
26.8088
27.544
27.712
27.901
27.7923
28.0091
27.4815
27.3177
27.3855
28.0991
24.1358
23.9618
23.8833
24.5858
24.8224
24.4574
24.2496
25.3386
25.6063
25.762
25.4571
25.0239
25.9453
26.2191
26.3609
26.0825
23.7437
23.1174
22.9273
23.4796
23.3499
29.0212
29.0231
29.0241
29.3573
29.1246
29.0514
29.1851
29.3672
29.4346
29.5543
29.5217
29.5394
29.451
29.5802
29.5153
27.6405
28.2467
27.6865
27.6491
28.315
28.63
28.3816
28.4837
27.7746
28.073
28.1028
29.2609
28.7943
29.0504
29.2677
29.3106
29.3911
29.4243
29.4882
29.4511
29.4212
28.7917
28.9179
28.5911
28.6506
28.4484
28.4773
28.2053
28.3312
26.7407
26.5781
26.4983
27.0419
27.1739
26.9203
26.8521
27.4726
27.5553
27.7061
27.8711
27.8161
27.9852
27.4407
27.2439
27.3813
28.0305
24.0314
23.9438
24.6685
24.7819
24.9289
24.4324
24.2342
25.2881
25.5974
25.7626
25.5029
25.1246
25.9211
26.0383
26.236
26.3145
26.1837
23.7279
23.1401
22.9972
23.5249
23.3342
28.9443
28.9452
28.9518
29.2671
29.0443
28.9788
29.1018
29.2619
29.3628
29.3699
29.4157
29.4949
29.4407
29.3428
29.475
29.4208
27.3104
27.8246
27.3084
27.4089
27.9822
28.6118
28.1772
28.2888
27.8436
27.5411
27.9489
29.117
28.7613
28.9064
29.1395
29.1802
29.263
29.302
29.395
29.3131
29.3098
28.719
28.8333
28.5211
28.5915
28.4184
28.4359
28.1488
28.279
26.7011
26.6264
26.4794
26.9771
27.1025
26.8359
27.4834
27.6073
27.7727
27.6675
27.9128
27.2443
27.3317
28.0246
24.0285
23.841
24.6367
24.867
24.9567
24.3258
24.5279
24.1296
25.2216
25.3694
25.6731
25.8455
25.4716
25.0489
25.9862
26.0912
26.3541
26.217
23.6301
23.2586
23.0628
22.916
23.4373
28.8891
28.8818
28.8954
29.2073
28.9726
29.0244
28.905
29.0748
29.2025
29.2903
29.2938
29.3658
29.376
29.3534
29.324
29.2542
29.3698
26.9695
27.4713
27.0142
27.2053
27.5472
28.455
28.1363
27.9976
28.1991
27.6653
27.3615
27.7187
29.0577
28.6129
28.8363
29.0191
29.1157
29.0382
29.1651
29.1576
29.2445
29.1886
29.2969
29.245
29.2542
28.6673
28.7886
28.5236
28.4539
28.6035
28.3658
28.3762
28.0845
28.1698
28.2257
28.3081
26.7362
26.6061
26.4343
26.5446
26.9553
27.0758
26.805
26.9004
27.4646
27.5686
27.747
27.6856
27.8966
27.2264
27.3451
27.9602
23.9258
23.8302
24.7234
24.8356
24.3291
24.5074
24.1239
25.2639
25.3546
25.7038
25.8637
25.5498
25.0811
26.06
25.9424
26.1775
26.3062
23.6355
23.2978
23.1073
22.949
23.4505
28.8211
28.8153
28.8259
29.1211
28.9024
28.9593
28.8338
28.9873
29.2271
29.1391
29.2093
29.265
29.3122
29.2631
29.2282
29.1603
29.2571
26.7637
26.6801
27.0991
26.6613
26.9386
27.1885
27.2363
28.467
28.3123
27.9648
27.8204
28.0726
27.433
27.5881
28.9262
28.5796
28.6866
28.9034
28.9729
28.9369
29.0479
29.03
29.1268
29.1023
29.2026
29.1071
29.1633
28.6761
28.7295
28.4782
28.4064
28.5673
28.3406
28.0774
28.1302
28.2175
28.2551
26.7229
26.6561
26.4677
26.532
27.0051
27.1248
26.8408
26.9004
27.5099
27.4093
27.5902
27.7902
27.6532
27.8534
27.2888
27.1852
27.9589
23.9223
23.7345
24.6956
24.9157
24.4217
24.2246
24.6002
24.0199
25.2061
25.454
25.8112
25.6546
25.5474
25.0319
26.1146
25.981
26.2225
26.3373
23.558
23.2197
23.3983
23.0343
28.7895
28.761
29.0541
28.8955
28.8315
28.7708
28.9795
29.1472
29.1071
29.0588
29.1921
29.1361
29.2024
29.1762
29.1477
29.0919
29.1794
26.4075
26.3955
26.7152
26.4451
26.8058
26.9648
26.7418
28.3568
28.1842
27.9335
27.8065
27.6667
28.0759
27.2638
27.4314
28.4118
28.6623
28.7936
28.9559
28.8149
28.9523
29.0513
28.9968
29.1258
29.0796
28.6253
28.6844
28.5073
28.4169
28.3591
28.581
28.292
28.0579
28.1337
28.1729
28.2472
26.7833
26.6507
26.4225
26.5896
27.0114
27.1214
26.8462
26.9534
27.4944
27.3995
27.5879
27.7909
27.6778
27.876
27.2934
27.2079
27.9228
28.0163
23.8247
23.7334
24.785
24.896
24.4425
24.2217
24.5543
23.9894
25.2658
25.4293
25.8415
25.7011
25.6287
25.0973
26.1912
26.0708
25.9296
26.3036
23.5603
23.2487
23.4573
22.9394
23.0707
28.7263
28.7023
28.8319
28.7704
28.7032
28.9222
29.0361
29.0021
29.0974
29.0632
29.1379
29.1056
29.0507
29.0005
29.0825
26.2102
26.1624
26.5158
26.1689
26.5799
26.9123
26.9244
28.2117
27.847
27.6895
27.4961
27.9272
27.2969
27.081
27.379
28.3303
28.5533
28.8456
28.706
28.8329
28.9323
28.91
29.0232
28.9843
28.6317
28.6839
28.49
28.3798
28.3244
28.5274
28.2879
28.0892
28.1584
28.1957
26.781
26.7158
26.4521
26.6309
27.0735
27.1671
26.9053
26.9538
27.4431
27.5404
27.3533
27.6362
27.7659
27.844
27.7293
27.2581
27.9443
27.9916
23.8132
23.6391
24.7797
24.9803
24.4232
24.1676
24.3413
24.6006
24.0731
23.8968
25.2041
25.3733
25.5181
25.7865
25.656
25.0741
26.2408
26.1254
25.9779
26.3507
23.3578
23.1824
23.4403
23.0354
28.6636
28.7729
28.8116
28.719
28.6767
28.9356
28.8551
28.9862
29.0244
29.0428
29.0022
29.0335
29.024
28.9752
28.9696
29.0026
29.0004
25.9802
26.3645
25.7867
26.1305
25.8316
26.5188
26.7183
25.1393
28.077
27.7245
27.5131
27.8581
27.1126
27.0053
27.243
28.2263
28.4343
28.5774
28.773
28.7282
28.7617
28.8489
28.8029
28.9495
28.887
28.6001
28.6244
28.4493
28.4059
28.3334
28.3056
28.5146
28.2602
28.0808
28.1216
28.1861
26.8619
26.7149
26.4315
26.5481
26.6129
27.0709
27.1969
26.9289
27.0149
27.4539
27.5636
27.3403
27.6607
27.8032
27.8667
27.7428
27.2843
27.9195
28.0143
23.7198
23.6319
24.7014
24.886
24.9726
24.5108
24.2457
24.3381
24.0181
23.9184
25.2304
25.4243
25.5134
25.6081
25.8348
25.7718
25.1402
26.2788
26.3336
26.0879
26.2389
25.9377
23.3714
23.2148
23.5362
23.1002
28.6147
28.732
28.7449
28.6711
28.6352
28.8703
28.8048
28.9154
28.9304
28.9789
28.9397
28.9049
28.898
28.8928
28.9003
26.0021
25.6814
26.1933
25.6431
25.6288
26.3596
26.6996
29.6688
27.9463
28.044
27.5751
27.4577
27.7207
27.0962
26.8519
27.1428
28.1258
28.2453
28.3498
28.4868
28.6706
28.6214
28.6452
28.7391
28.7203
28.8591
28.8128
28.5572
28.4293
28.3784
28.3413
28.2643
28.4816
28.2335
28.0586
28.1062
28.1735
26.934
26.8606
26.7813
26.5181
26.5875
26.72
27.1283
27.2697
27.1887
27.0068
27.5239
27.4401
27.6278
27.3803
27.7168
27.7844
27.8466
27.9371
28.0132
23.7468
24.7395
24.8379
25.0676
24.5335
24.1942
24.4316
24.0799
23.8519
25.3289
25.4139
25.5954
25.6729
25.8413
25.1638
26.3964
26.4226