/*--------------------------------*- C++ -*----------------------------------*\
| =========                 |                                                 |
| \\      /  F ield         | OpenFOAM: The Open Source CFD Toolbox           |
|  \\    /   O peration     | Version:  v2012                                 |
|   \\  /    A nd           | Website:  www.openfoam.com                      |
|    \\/     M anipulation  |                                                 |
\*---------------------------------------------------------------------------*/
FoamFile
{
    version     2.0;
    format      ascii;
    class       volScalarField;
    location    "1";
    object      p;
}
// * * * * * * * * * * * * * * * * * * * * * * * * * * * * * * * * * * * * * //

dimensions      [1 -1 -2 0 0 0 0];


internalField   nonuniform List<scalar> 
13611
(
92296.2
92211.8
92190.6
92211.7
92346.6
91984
92197.9
92596.6
92582.1
92325.3
92208.4
92392
92522.2
92826
92397.8
92274.6
92294.4
91981.8
92672.3
92519.2
92956.3
92845.5
92444.6
92158.9
92433.7
92415.2
92323.7
92806
92645.2
92884.6
93228.5
93060.2
92267
92230.7
92402.5
92723
92367.7
92028.2
93032.6
92654.5
93116.5
93433.8
93337.2
93266.9
92025.2
92245.7
92180.5
92464.7
92890
92460.2
92209.5
93206.5
92796.6
93381.2
93040.4
93705.4
93652
93497.5
92065
92371.3
92212.3
92387.9
92765.1
93148.8
92366.3
92084.5
93471
92692.9
93607.2
93202.6
93928.3
93743.4
92144.8
92080.9
92232.3
92238.2
92465.8
92890
93334
92647.9
92233.2
93687
92820.4
93508.6
93881.3
93092.4
94148.8
94005.1
92054.8
92033.8
92394.3
92097
92288.2
93145
93619.7
93331.8
92713.9
92451.7
92027.8
93981.1
92767
93664.1
94113.9
93229.7
94391.6
94333.7
94321.4
91956
92019
92026.7
92807.1
92090.1
92316.1
93294
93799.7
93626.8
93131
92610
92233.6
94213.6
92549.1
93024.9
93504.6
93978.4
94170.8
94400.8
94581
94631.2
91762.4
91861.4
91816.2
92242.7
91873.2
92112.9
93611.2
94097.1
93221.9
92414.9
92981.9
91985.3
94547.4
92516.6
92995.8
93737
94067.3
94525.9
94658.6
94853.9
94992.8
91697
91714.8
91635
92352.2
91747.4
91861.5
92254.9
93867.1
94288.1
93543.1
92563.3
93115.4
92223.3
94805.7
92693.9
93249.9
93656
94403.6
94665
94955.9
95079.2
95047.6
95283
91454
91568.3
91641.2
91650.9
93021.6
91452.6
91646.4
92198.7
93844.6
94192
94661.8
93466.6
92395.8
92948
92101.1
95180.4
92492.6
93219.5
93931.3
94571.9
95007.3
95262.8
95483.8
95447.5
95654.2
91230.7
91256.5
91517
91451.1
92563.7
91217.8
91286.4
91868.1
94204.9
94499
94800.3
93640.5
92750
93071.3
92293.8
95448.2
92533.2
93652.1
92890.2
94356.1
95030.8
95193.9
95279.9
95594.1
95766.4
95965.5
90913.3
90963.5
91099.9
91567.7
91204.7
92320
90913.7
90970
91818.6
94530.4
94252.6
95135.4
93986.6
93402.4
92721.9
92127.8
92378.9
95423.9
95862.8
92196.7
93756.2
92784.6
94619.8
95317.9
95586.8
95636.1
95951
96131.1
96369.8
90575.7
90587
90889.7
91580.5
91079.7
92298.1
90557.8
90989.5
90527.9
91427.3
94897.4
94645
95202.7
94176.4
93572.3
93046.3
92222
92457.3
95781
96053.6
92315.9
93475.9
94164.9
93031.6
95121.3
94503.3
95792.9
95888.5
95972
96314.7
96417.6
96352.2
96731.8
90267.5
90203.3
90373.7
91357.7
90484.3
92409.8
90562.1
90158.4
91521
94959.8
94597.4
95572.5
94008.2
93384.7
92848.6
92242.1
95858.2
96383.6
92043
93823.8
94221.8
92752.2
95276.5
94881.4
96185.1
96296.2
96328.2
96752.9
96790
96771.4
97153.2
96713.7
89876.2
89710.7
90134.1
91018.8
90235.5
91682.3
90197.4
90371.5
89664.1
91184.4
95362
94861
95665.6
94240.8
93649.5
92950.9
92527.7
92040
96240.8
96492.1
92232.7
93753.5
94694.8
92850
95732.7
96652.9
96194.6
96665.1
96744.6
97105.9
97154.1
97082
97526.8
97073.8
89621.3
89527.3
89227.2
89546.6
90563.7
89580.4
91795
89779.1
89824.9
90636.9
89385.3
91455
95478.8
95262.5
94675.2
96080
94063.6
93603.8
93339.1
92621.3
92113
96367.4
96912.6
91977
94152.5
93258.8
94916.6
92355.2
95838.1
97069
96785.9
97054.4
97101.6
97536.4
97536.9
97476.1
97973.4
97464.3
89098.9
89003.6
89091.6
88807.1
90260.1
89141.4
92485.8
90590.5
89395.6
90209.2
88856.4
91213.4
95907.5
95562.2
94900.5
96200.7
94254.7
93981.4
93505.9
92956.6
92355.3
91836.6
96787.2
97081.3
93869.4
94655.4
93308
95469.8
92302.5
96365.2
97514.1
97186.4
96844.9
97491.3
97539.5
97740.8
97766.6
97977.1
98327.5
97852.4
88431.3
88338.2
88226.7
89568.7
88417.6
92297.2
90177.8
88788.1
89530.7
90540.8
88323.4
91706.9
95963.6
95391.9
94654.8
96647.3
93945.1
93334.8
92885.5
92544.3
92031.3
96946.1
97500.2
94176.4
95116.1
92854.3
95614.8
96528.4
97931.1
97737.4
97323.6
97808.1
98258.6
98187.2
98340.4
98268.1
98784.9
97856.2
87912.6
88041.2
87882.6
89248.3
87883.6
91055.6
89853.8
88191.3
88973.6
90270.7
87545.1
91558.4
96377.3
95567.6
94863.5
96768.4
94242
93474.8
93153.2
92392.1
91859
97409.3
97671.1
93695.4
94939.1
92915.2
96154.2
97111.3
98380.7
98090.6
97894.9
98271.4
98524.3
98473.7
98818.9
98700.2
99025.6
99020
98288.6
87213.1
87093.9
87060.3
88236.6
86969.7
91211.1
89765.4
87494.7
88246.3
89012.8
89571.7
90816.9
86942.1
92229.5
96495
95282.2
95948.8
94676.8
97261.3
94158.1
93797.6
93125.4
92725.4
92031.9
97604.8
98161.8
93933
95439
96405.5
97409.9
98866.1
98544.6
98776.7
98339.8
99060.6
98964.5
99157.6
98720
99481.7
99541.1
86691.8
86575
87633.4
86222
91780.5
89046.1
86793.7
87701.5
88305.8
89343.6
90508.5
86139.3
92157
96969.2
96290.2
95506.2
95893.8
94960.3
97346.6
94522.7
93778.6
93428.1
92718.3
91773.8
92398.4
98099.3
98393.5
93488
94662.2
95278.9
96156.1
97083.7
98070.4
99321.8
99099.7
99225.3
98983.6
99365.3
99286.7
99657
99166.5
99761
99738.4
99840.6
85830.9
85546.6
86483.8
87983.9
85138
89909.9
93308.6
89127.1
86104
86981.1
87735.5
88538.5
89723.3
90708.7
85816.7
85566.3
91357.1
92799.1
97007.2
96634.8
95368.9
96192.5
94887.8
97781.5
94468.4
94084.7
93461.6
93162
91999.7
92613.1
98377.7
98843.5
94036.2
94680.7
95930.4
96764.5
97332.6
98453.7
99905.3
99890.9
99424.8
99954.6
99826.9
100006
99614.6
99185.8
100274
100256
100314
85201.2
84854
85669.4
87190.9
84226.4
89659.3
91812.9
87914.3
85419.9
86586.3
87084.5
88269.2
89465.9
90007.1
84991.9
84735.8
91314.3
92722.3
97343.5
96591.3
95587.8
96026
95285.5
98239.9
97740.1
94837.8
93889.1
93108.8
91757.3
92404.3
98909
99076.9
93597.6
95216.5
96692.3
95826
98046.5
99169.4
100272
100197
100346
100117
100190
100534
100088
99622.8
100529
100514
100463
100660
84273.9
83665.6
86017.4
84468.1
83126.7
88589.7
92642.1
87691.6
85322.2
84784.8
85903.2
86751.2
87604.1
88819.3
89881.3
84507.7
84108.2
90524.3
92036.2
97316.3
96937.8
96257.4
95296.1
98649.2
98064.5
94840.5
94075.7
93392.6
91921.3
92725.5
99241.5
99544.3
93780.5
95633.4
97268.9
96255.1
98340
99632.3
100971
100827
100996
100586
100762
100926
100078
101083
101023
100933
101172
83491.4
82881.1
85112.4
83426.3
82204.3
88098.7
91194.8
86363
84471.1
84068.4
85922.5
86954.7
87732.4
88492.8
89004.5
83712.1
83283.3
90389.4
91999
97640.3
97034.5
96765.7
96083.8
95674.7
98518.6
99128.7
97990.8
95228.8
94512.7
93837
93224.5
91596.4
92244.5
92615.5
99740.9
99871.1
94709.8
92877.3
95592.3
97961.3
96935.7
99080.7
100352
99582.8
101223
101231
101173
101512
101332
101468
100486
101343
101239
101235
101586
82653.4
81786.3
85239
83731.7
82245.9
81265.8
88659.4
86666.4
92605.9
84203.4
83862.4
83496.7
85433.3
86356.8
87110.3
88802.7
83136.6
82648.2
89537.7
91131.4
97507.5
96859.5
96439.3
95608.3
98736
99533.8
98375.2
95144.4
94717.4
94110.8
93524.5
91894.1
92305.8
92951.5
100074
100358
94865.9
92994.5
96411.8
98548.4
97475.5
99211.2
100783
100351
101757
101809
101753
102105
101755
101835
101039
101903
101708
101752
102189
81778.9
81366
81099
83879.4
82900.3
81191
80310.5
88542.5
85384.7
90957.6
83330.5
84647.5
83016.5
82802.1
85678.3
86387.5
87238.8
88027.4
82285.7
81871.3
89373.3
90861.2
97822.2
97222.6
96391.4
95969.6
99129
99986.8
99507.7
98340.9
95424.7
94552.3
93962.7
93374.4
92725.4
100576
100729
95864.5
94054.5
92202.2
96519.3
97252.6
98401.8
99844.1
101439
100477
102245
102359
102166
102764
102460
102373
101348
102053
102346
101921
102149
102609
81301.7
80201.7
80117.5
83606.9
81427.1
80217.7
80738.5
79601
87531.9
85753.3
90462.6
82775.7
83044.9
84240.4
82539.4
82186
85271.8
85706.9
86677.1
87950.4
81666.2
88555.1
89941.2
91289.3
97696.7
97212.7
96800
95871.4
99334.2
100424
99912.4
98712
95271.6
94825.7
94245.6
93715.9
92929.2
100804
101168
96161.8
94376.2
92153.9
97465.7
97896
99078.2
100095
102013
101142
102520
102637
102883
102745
102956
103171
102683
101838
102540
102924
102437
102198
102597
103227
80450.7
79659.4
79800.9
81733.8
80567.4
79366
79500.1
78631.2
87700.4
83962.4
92078
82036.4
83502.4
82243.5
84617.1
81776.1
81520
85392.8
85947.1
87186.2
80902.6
88662.2
89540.5
90746.8
97984.4
97651.1
96689.7
96182.1
99182.7
99809.1
100380
98740.3
95544.5
94663.1
94149.6
93525.8
101303
101537
95478.8
97230.8
93848.8
91193.8
92834.2
97870.9
98796
99855.9
100921
101906
103231
103209
103480
103728
103784
103375
101942
102962
103395
102671
103087
103538
103568
80266.8
78720.8
78911.6
81066.6
79001.1
78402.9
78472.9
78029.6
78223.1
86263.1
84607.3
82015.7
90146.4
81814
81420.1
83176.5
81928.3
84276.4
81278.1
80811.1
84620.2
85463.1
85611.9
86868.5
80563
88144
89915.3
98434.4
97804.7
96999.9
96009.1
99509.8
100120
100716
99263.1
95317.5
94887.9
94559.8
101542
101651
95709.2
97666
94719.7
90751.7
92492.7
98922.3
99404.5
100535
101183
102559
103664
103967
103926
104247
104252
103637
102384
103475
103935
103112
102754
103547
104212
104140
79584.1
78067.4
78552.8
78134.4
78940.1
77945.7
78189.7
77684.3
76875.3
77331.1
86165.4
83254.2
80463.2
87229.9
91195.5
81061.1
80796.1
82393.1
83581.2
81152.5
80403.6
80188.5
84314.1
84717
84848.6
86033.7
87301.9
79780.6
88541.8
89421
98623.2
97513.5
98329
96785
96297.4
99973.5
100560
101238
99395.1
95600.6
102117
102240
96820.2
98833.1
94364.6
90869.5
89811.2
93133.2
91522.8
99455.3
100381
100804
101917
103287
102536
104257
104583
104677
104946
104978
104443
103976
104418
103505
103250
104060
104469
104575
78843
77203.4
77689.4
77403.9
77722.4
78583.1
76742.4
76946.7
76596.6
76617.7
76163.2
84232.8
81105
87096.6
89648.9
80721.6
80192.2
82180.9
83276
80740.6
79947
79496
83660.3
84429.5
84533.9
85686.9
86780.8
79329.6
88090.8
99064.3
97777.5
98557.6
97058.7
96122.7
100346
100925
101379
99834.1
102469
102387
97309.8
99388.5
95133.2
89963.4
89393.2
92344.3
91318
100635
101075
101793
103840
103445
104697
104615
105127
104938
105173
105381
104544
104507
104969
104011
103532
104251
104518
105063
105152
78259.4
76441.4
77180.1
76645.9
76075.3
76779.2
75471.8
75950.8
75771.3
75756.5
75173.7
82645.8
80252.7
85426.1
90331.2
80005.2
79583.3
82649.1
81578.8
79970
80975.1
79205.1
78849.9
83315.4
83676.2
83724.4
84957.9
86016.1
87193.7
78547.6
88555.7
99274.3
97540.5
98298.5
99066.3
96927.3
96469.9
100271
100859
101818
99747.3
102952
102927
102272
98718.7
96543.6
100608
94778.2
89725.6
92484.9
90409.1
101229
102013
102302
103799
105251
105240
105748
105826
105873
106075
105279
105013
105514
104389
103374
104167
104860
105003
105546
105671
77462.7
75718.4
76243.6
76301.1
76061.7
75183.1
75089.3
76214.6
75184.7
74904.3
74496.1
75018.5
74366.1
74798.3
83122.1
77917.4
85203.1
89098.1
79675.1
79505
78994.9
82351.9
81737.3
79555.2
80433
78719.8
78236.9
82632.4
83286
83503.2
84707.6
85360.8
86824.9
88180.1
97710.8
98532.2
99358.1
97321.3
100682
101282
101787
99990.2
103136
103176
102794
99484.9
96995.2
101263
95908.9
93685.7
88785.9
91391.4
89842
102369
102854
103244
104800
105757
105715
106377
106073
106256
106339
106552
105455
105545
106106
104912
103734
104435
105139
105524
106160
106192
76947.5
75022.1
75357.2
75834.1
75298.3
73859.5
73942.7
74084.5
73466.9
73877.4
73665.7
74270.1
73457.7
73802.7
81265.2
76828.6
86693.3
82765.1
90204.9
78892.5
78752.7
78331
81328.2
78921.7
79783.9
80658.5
77931.6
77546.7
82245.2
82533.4
84058.6
82848.6
85323.4
86012.4
87348.3
98182.8
99084.3
99810
100700
101180
102258
100417
103578
103755
102814
99146.6
100796
98065
102332
95969.4
93630.9
88719.8
90187.1
91381.9
102833
103066
103619
105157
106294
106264
106926
106889
107057
107060
107312
106414
106098
106683
105371
104164
104936
105633
106047
106699
106751
76999.6
76181
74855.4
74305.1
75119.5
74638.1
72626.4
72871.1
73055.6
72944.2
72225.7
72922.4
72639.9
73540
72554.3
78580.5
73919.6
86277.4
81923.2
88603
78558.4
78187.2
77766
81557.8
78517.9
79325.6
80183.6
77379.3
82006.1
83697.7
82162.1
82965.4
84449.3
85922
86780.8
100177
101146
101445
102266
100559
103946
104039
103296
100186
101592
98298.1
103129
97292.8
94809.3
92389.8
87916.6
89464
90194.6
103862
104208
104523
106141
106836
106776
107564
107049
107612
107677
107572
107778
106730
106665
107234
105796
105385
104340
105095
106041
106638
107268
107287
76272.6
75820
74102.8
73749.1
74700.6
74620.3
73851.4
71908.1
72521.2
71348.9
72641.7
71144.8
70721.5
72067.2
71956.3
72189.2
72827.9
71729.3
77539
72410
83884.3
79465.4
89309.4
77900.9
77440.9
77041.6
81152
77922.4
78690
79519.3
80448.2
76641.6
81315
83780.5
81627.1
82507.2
84484.1
85267
86945.4
101241
101868
102752
100939
104605
103802
103226
99699.9
101310
102854
104107
96900.1
95128.5
92078.1
87717.1
88367.9
89830.6
104556
104885
106512
107347
107317
107969
107837
108466
108614
108401
108523
107663
107228
107790
106289
105881
104771
105647
106500
107184
107806
107829
76089.9
75045.8
73653.7
73112.7
74029.4
73949
73285.5
70755.2
71150.2
70236.7
70363.9
69775.6
69720.9
71105.9
71034.7
71207.4
72730.6
71934.1
70879.5
75161.2
72927.9
69864.5
83053.4
78142.7
87509.4
77377.6
77158.8
76871.9
76485.9
77472.2
78228.2
78993.6
80178.5
80723.2
82938
81864.6
80954.3
83953
85088.7
86145.9
101641
101969
102732
101207
105041
104686
104232
103652
100744
102520
103510
105164
97485.5
94334.5
90676.3
92897.7
86554.6
87799.8
88528.7
105624
105903
107585
107844
107831
108588
108526
108131
109160
108876
109340
108851
108913
108100
107781
108340
106551
106361
105096
105706
107056
107764
108325
108331
75322.1
74751.8
72825.3
72635.5
73432.4
73385.5
72518.6
69816.9
70371
68660.5
69225.8
68386.5
68245.6
70487.4
70724
70719
72006
71458
70073.9
75351.2
70475.1
68134.4
84613.6
79694.6
88853.7
76691.6
76388.2
76162.8
75805.5
77594.4
76765.8
78346.8
79040.9
79588.2
80547.2
82670.5
81260.8
80679.2
83205.8
84312.7
85356.9
101665
102348
103091
105586
105087
104154
103536
100612
102480
104756
105595
106002
99138.8
96100.8
94691.4
90253
92398.4
86099.9
86679.3
88183.5
106290
108067
108339
108361
108804
109272
109076
109780
109545
109848
109507
109567
109051
108337
108879
107156
106837
106093
107454
108318
108860
108861
75201.3
73970.7
72271.5
71985.9
72713
73368.2
72743.4
72184.1
68604.8
69277.6
67970.6
67703.5
67355.8
66961.2
67673.8
69643.4
69719.3
69764.2
70743.8
69333.9
69814.1
73066
68249.5
70438.5
66206.2
82570
79310.9
86635.6
76179.9
75963.2
75661.8
77179.8
76328.8
77813.2
78433.8
79364.6
79769.4
81733.5
81113.2
80010.4
82903.1
84027.8
84607.8
102102
102459
102911
105553
106028
105198
104563
103868
102354
103693
105529
107052
107165
99308
96225.1
93460
91151.2
89047.9
85274.6
85946.5
87081.4
107410
109000
108906
109411
109557
109618
110959
109740
110007
111091
109881
109893
109469
108901
109455
107335
106945
106617
108016
108393
108886
109307
109316
74601.7
73679.7
71458.3
71355.6
72141.6
72638.9
71558.6
68437.3
68795.6
66518.9
66316.6
66073.8
66528.3
65887.7
66577.9
68969.2
69194.8
70675.9
70099.3
68455.2
68833.8
72444.4
66134.2
68241
64366.6
83295.2
77187.1
86359.1
75546.2
75256.3
74997.5
76595
77275.9
75732.2
77857.5
78640.6
79517.7
81567.7
80252.8
79734.4
82203.4
83362.6
84305.5
103229
105910
106511
105030
105691
104394
103739
102637
103690
105047
107156
107737
107811
107946
101084
97700.1
94657.9
93304.4
90692.1
88505.7
84630.2
84786.7
86100.3
84891.2
87256.7
109325
109497
110312
110991
111665
110816
111200
111951
110906
110753
111093
109490
109942
107789
107577
106870
108394
108989
109480
109805
109814
74544.6
73962.8
72952.1
70868.6
71477.3
72130.6
72511.8
71252.6
70963.4
67314.9
67585.1
65805.8
65362.4
64381.1
64710.4
64418.9
66432.8
65547.8
68031
68251
69960.9
69468
68216
67776.3
68787.7
69104.9
74146.3
64149.2
66183
67687.6
62873
80789.9
77913.7
82293.4
88369.1
75065.3
75149.1
74809.1
76331.2
76740.6
75242.1
75458.1
77203.1
78332.8
78793.2
80832.2
79921.9
78926.3
82188.6
82949
83302.6
106388
106677
105466
105869
104616
104176
104546
105379
106150
108117
108840
108842
109016
101522
97097
94954.2
91753.4
89221
84184
85095.9
83940.5
86610.2
111024
109962
111445
112032
111549
111276
111122
112139
109957
110656
107924
108288
107704
107323
108972
109475
109958
110170
73925.4
73568.8
72600.1
70134.8
71076
71466.8
71836.3
70584.4
70394
67201.4
64541.8
64092.9
63058.7
63704.6
63796.4
65488.9
64480.6
67664.4
69385.4
69769.4
67373.1
66913.8
68217.3
67616.9
72462.9
62242
64531.5
65307.6
61164.3
74986.8
80916
86752.1
74383.9
74398.8
74139.2
75780.1
76636.7
74668.2
74862.3
77077.8
77605.2
78477.4
80853.7
80177.8
79120.8
78647
81576.3
82921.5
106628
107251
105575
106332
105134
105905
105235
107575
109181
109195
109490
109368
100169
103806
98069
93726.1
91164.8
88644.7
83473.8
84002
84852.7
83123.5
85459.1
86572.3
111167
110724
110654
111026
110970
108406
108641
108155
107538
109455
109848
110613
110831
73715.7
72909.8
71906.1
69629.7
70395.9
71307.1
70120.1
69769.4
66305.9
63792.8
63168.8
61539.3
62148.8
62514.7
65050.9
64550.4
63381.1
66590.5
68623.5
69000.6
67101
66738.1
66256.1
67510.8
64764.3
69238.6
60711.7
61849.1
62785.1
63974.4
60362.9
60356.7
74127.8
83381.1
76861.1
88445.4
73923.9
73934.1
75518.4
75950.7
74099.2
74526.9
76353.3
77369.1
77778.9
80263.8
79469.1
78888.3
77910.9
81542.1
82111.1
107073
107404
106174
106536
107430
107006
108573
110642
111292
111173
100768
104287
97292.4
91919.6
93716.9
89488.5
87231.7
83322.8
83813
82157
85417.6
112417
111121
111126
108755
109114
108038
108658
109912
109500
110352
73126.5
72679.8
71391
68984.4
70032.1
70705.5
69478
69311.1
65345.9
66060.9
62614.5
62008.1
61207.1
61199.5
61429
63900.6
63621.1
62456.9
68429.7
66198.5
65948.7
65334.1
66936.2
63115.1
67738.4
59023.4
59935.5
61408.2
61796.8
58569.4
58713.7
70688.7
82174.1
76066.3
86914
73203.2
73242.3
74860.4
75798.1
73585.7
73822.3
76226.8
76714
77314.1
79535.3
80198
78192.5
77700.2
77338
80766.1
81709.2
107328
107854
107098
107814
108548
107906
110633
111905
111833
102586
99103.4
106019
95245.6
90932.9
91773.4
88735.2
86627.9
82383.3
83130.2
81578.4
84790.3
109217
108327
109104
110563
109954
110907
72833
72134.7
71527.7
70674.2
68363.8
70155.9
69280.5
70456.8
68925.7
68557.3
64534
65005.6
61745.3
61126.6
59514.8
59640.3
60290.5
63249.9
62644.8
61370.2
67690.8
65687.8
66144.3
65217.4
64619.9
66994.3
63141.2
60553
64710.2
68517.2
57814.8
58657.1
59708.1
60071.5
57722.4
58239.4
68877.5
78880.1
84353.7
72900.6
88034.4
72906.8
72868.1
74494.8
75194.8
73041.4
73562.1
75515.5
76655.2
79129.5
79547.5
77851.8
77055.8
76656.5
80861.7
107808
108233
107443
110208
110889
110496
107576
112208
103316
99145.7
105422
94853.5
89406.2
90814.8
87258.1
85316
82192.5
81667.6
83047.4
80457
83703.3
109627
108899
109650
110984
110619
109984
72235
71098.2
70134.2
67691.5
69718.4
69212.8
68818
69853
68303.9
63586.4
60555.3
59970.9
58766.1
59160.9
62139.2
61769.1
60528.8
64866.1
65565.6
64510.2
63718.7
66261.2
60509.6
59073.7
63862.2
65782.8
56262.9
56769.5
58146.8
57967.2
56015
56783.4
65630.8
69585.1
78295.3
83622.7
73048.9
86039
72187
72286.1
73900.5
74647.5
75045.3
72507.4
73047
75453.7
76107.7
78513.9
79135.9
77098.6
77994.3
76579.4
76789.5
76093
80210.6
108278
108624
108140
111911
112224
110364
101658
96981.2
106591
92880.5
88469
89005.7
91225.1
86460.5
84603
81431.4
80567.4
81922
79908.1
82939.9
109826
109043
110006
111046
110593
71759.3
70567.6
71196.5
69515
70150.6
67062.3
68761.5
68126.5
69423.6
67742.4
62772.7
59652
59149.5
57405
58102.6
61661.7
60751.4
59468
64354.3
64699
65622.8
63699.1
62874.6
63350.5
66326.6
59963.5
56936.7
61713.5
55544.1
55258.2
56417.5
56097.9
55046.2
56555.2
55440.9
63505
66744.5
75646.3
80759.5
70528.6
85135.2
71966.2
71717.6
72064.4
73584.4
74153.6
74363.5
72288.1
72529.3
73108
74870.7
78424.2
79304.1
76787.6
77241.4
75961.3
76080.1
75536.7
108717
108558
111260
101543
96967.1
106622
109520
92083.1
86981.7
87879
89709.2
85106.2
83292.2
81246.9
80518.4
81859.1
78997.1
110497
109345
110011
110576
70359.2
70704.9
68931.2
69658.6
66835.8
68208.3
68854.8
67663.1
67932.4
67089.8
61890.4
58359.3
58061.9
57051.8
60694.7
59878.2
58724.2
63454.1
64361.5
64966.3
63125.7
62101.3
62436.8
65767
57862.5
55649.7
55759.7
60766.6
53965.1
53498.7
54657.9
54368.7
53327.2
55226.1
54302.4
62828.5
61376
67623.4
63732.3
75013.9
80229.3
71868.1
82026.3
71417.6
71041.2
71491.8
73681.6
73980.7
71632.3
72148.3
72762.5
74206.8
74956.5
77813
78514.9
76144.2
77138.7
75490.1
75763.8
109153
109274
98990.2
103140
95040.3
109478
105326
110994
89989.3
92839.3
86068.3
88181.4
86414.6
84329.5
82611.9
80386
79931.6
80945.5
78392.9
78359.5
110876
109749
110613
110802
69870.7
70582.1
69049.3
68446.7
66074.3
67795.9
68444.3
67014.5
67261
66661.3
61084.1
57596.5
57241.3
55930.5
59915.7
58883.2
57571.8
62854.6
63728
64768.9
62271.7
61319.8
61924.7
65122.3
56119.6
58279.5
53445.7
53809.8
52888.2
52923.1
52541.3
52984.2
52476
52417.4
54298
54966.2
52968
60341.2
59768.8
65161.6
61527.1
77104.2
69937.8
70962.4
71177.5
71278.1
73072.6
73323.1
71387.4
72306.1
71650.2
73642.5
74490.6
77758.4
75692
76496.4
74820.2
75051.2
109538
109695
98273.7
101962
95881.5
110758
105943
88604.6
91342.6
84760.9
86850
85273.1
83131.4
81565.5
79827.2
79118.6
80868.9
79949.4
77427.4
78404.4
77381.6
109964
110811
69569.7
69923.8
68706.8
67905
65782.2
67909.8
67269.2
66819.3
66110.3
60832.8
56329.2
56167.5
55538
58955.4
57935.5
57038.7
62010.1
63040.3
63548.7
63987.4
61750.4
60647.3
60955.2
64612.2
53884
57164
52807.6
52004.9
52611.6
51327.2
51455.8
50885.1
51326
51092.9
50874.6
53065.6
53762.3
52214.3
58822.6
58032.3
66161.8
62052.3
59051.8
70507.3
70669.1
70754
72917.8
72909.5
70793.6
71810.7
71417.8
73010.3
73829.3
76973.1
75813.5
74962.8
76379.3
74574.9
110391
99608.2
103855
94533.7
108636
87002.4
88144.9
92201.6
89120.2
83843.1
85432.3
84020.5
82403.6
80975.7
78959.8
79899.3
79015.8
76772.2
77470
76721.5
110503
69032.4
69715.7
68170.7
67565.6
67587.4
65112.5
66839.9
66225.5
65628.9
60004.5
55335.1
54246.7
58825.4
57910.9
56036.3
61327
62481.6
62873.2
63950.8
61023
59979.1
60580.2
64622.6
53530
55253.8
50944.8
49899.7
50803.7
49588
50155.7
50135.2
49843.1
49435.3
49340
50061.1
52784.7
53411
50878.6
56783.3
56662.1
59885.1
57141.4
70020.3
70298.5
70531
70336.6
72393.4
72417
70606.1
71598.4
70960.6
72452.7
73376.3
75248.9
74406.9
75579.6
73904.6
110785
98112.8
104019
95407.9
109061
85695.9
86120.1
90783.6
88145.6
82686.3
84136.1
82808.9
81289.2
79980.5
78188.4
79025.1
78126.3
75842.1
76767.4
77391.4
75888.6
68564.7
69113.3
67702.4
68101.4
67030.5
66927
65076.4
66280.7
66026
65691
59306.6
55269.7
54191.4
53695.2
57880.4
57006.7
55689.1
60602.5
61618.9
62567
63383.1
60538.3
59261.5
59847.3
64065.5
51727.4
54981.9
49447
48658.2
49154.6
48681.2
48618.4
48322.6
48202.4
48672.5
51555.7
52254.2
50498.7
55083
61636.5
57089.3
60096.8
55038.5
56318.8
69647.5
69773.2
70031.9
69906.9
71859.4
71900.9
70125.9
70892.6
70655.3
71861.1
72350.3
73454
72734.2
74543.5
73632
75265
73467.8
98972.1
106363
101694
93565.5
111251
84265.1
84925.5
91291.3
88950.1
86377.7
81880.9
82795.4
81834.4
80595
79226.9
78087.7
77182.7
75485.3
75896.9
76532.3
75384.6
68597.5
69159.5
67271
67571.6
66671.9
66565.1
64482.2
65838.8
65359.9
65116.5
58779.7
54205.8
53538.7
52301.6
57119.8
58014.6
56091.8
54558.6
60049.3
61364.9
62779.4
61905.1
63483.9
59872
58840.2
59154.1
63967.1
49884.2
51884.5
53417.4
47534.7
46953.2
47205.3
48741.9
47202.9
47861.1
47957.4
47163.7
46710.8
47861.2
51388
51688.1
49295.4
53175.2
55272.2
57919.1
53617
54110
69410
69650.1
69481
71517.4
70154.5
69690
70621.9
71337.3
71769.1
72882.8
72498.8
73975.1
73074.3
74442.2
72829.4
96465.5
106679
102404
93849.7
109662
82912.8
85057.1
83115.9
89503.5
87591.4
86094.2
80899.3
81526.5
80752.4
79509
78189.4
77130.4
76381.8
74520.9
75755.5
74678.6
68093.3
68787.9
66760.1
67339.8
66028.5
66002.6
64524.9
65278.8
53842
52518.4
51796.1
56295.9
57280.2
55379.8
54470.6
59239.1
59699.9
60815.8
62185.7
61704.2
63012.4
59202.7
57707.5
58638.7
63354.5
48886.4
50188.1
45800.3
45764.5
46113.7
45341.7
46367.4
45771.5
46380.6
46580.8
45893.3
45381.9
46558.7
48151.4
50295.2
50501.3
49298.6
51346.1
52879.8
55964.6
51904.8
52479.8
68903.6
69140.9
69086.1
70965.8
69718.2
69182.1
70068.9
70720
71332.9
71527.9
71871.5
73932.6
73254
72337.3
74063.8
72255.7
97222.4
104889
100367
91651.6
110318
81513.8
83421.6
81892.2
87655.7
89633.2
84652.5
80251.1
80266.4
80047.4
78939.9
77415.3
76293.4
75532
74220.7
74910.9
74078.4
67589.9
68234
66285.6
66736.8
65723.6
65627.9
64007.9
64796.6
52756.4
52047.9
50678.8
55448
56359.6
53778.8
58921.7
59646.8
61153.9
60158.9
62316.6
57337.9
57942.7
62992.4
47123.6
49807.7
43959.2
43939.6
44382.2
44952.2
43726.9
45738.2
45034.2
44336.6
45743.4
46026.5
44568.4
43701.5
45644.9
47007.5
49625.2
48299.3
50862.6
51809.8
51550.3
54402
51052.1
68583.2
68726.9
68674.7
70561.6
69191.4
69676.8
68733.5
69818.7
70311
70854.6
70943.8
71702.7
73125.4
72792.2
72012.2
71874.8
73272.6
95541.1
105678
101177
90851.7
108649
80091.7
82075.9
83320.1
80518.1
85886
87742.2
84400.1
79367.6
79120.8
78801.4
77987
76546.4
77386.8
76145.7
75409.2
74839.3
75135
73524
74139.9
73422.1
67160
67892.2
66303.4
65732.3
66726.3
65089.4
65104.3
63275.5
63903.1
64163.6
64723.5
52342.9
50962.7
49758.1
50313.4
54642.8
55510
52836.1
53868.8
58247.1
58859.9
60615.7
59954.9
61892.7
56487.8
57447.8
62289.7
46589.7
47994
42272.5
42396.7
42877.7
42164.8
43714.7
42791.1
42827.7
44323.4
44743.8
43402.3
42052.5
45820.9
44532.5
47192.9
48437.2
48870.7
49342.7
49451.3
52406.1
49491.2
68094.4
68295.8
68295.6
69994.4
68723.6
69173.6
68216.4
69271
70425.9
69820.1
70484.2
71103
72847.8
72128.3
71210.5
71165.5
72686.8
92798.8
96937.6
103707
99408.4
91015.5
88201.7
109676
78989.4
79796.6
80697.7
81857.4
79534.8
85886.5
82833.4
78640.1
77898.2
77783.8
77755.4
75931.2
76339.9
75184.7
74765.3
74090.1
74215.7
72817
73270.5
72755.1
67116.1
67429.8
65795
65268
66351.1
64742
62991.3
63366.6
63864.3
64171.4
51228.3
50574
48647.9
49124.2
54610
55329.7
52403.6
53084.3
58184.8
57516.4
58787.8
60655
59366.1
61226.7
56651.5
55737.8
61939.9
44793.7
47550.2
40585.2
40760
41751.4
42238.2
40657.6
43298.5
41533.8
41432.6
43906.4
43364.2
41872.2
40636.3
44634.9
43460.1
46145.4
47468.8
48379.7
48325.7
48483.9
48411.2
67954.9
67890.7
69544.7
68733.2
68197
67818.8
69101.1
69904.9
69573
69478.4
70536.6
69882
72116.9
71642.5
70833.6
70792.4
71960.1
92496.8
95177.4
103533
100768
88328.2
86987.9
108293
77589.8
78300
79623.9
80665.5
81629.6
78301.7
84200.9
82075.6
76918.1
76711.2
76860.6
75072
76026.5
73896.2
73277.6
73624.3
72291.2
72568
66644.4
67126.9
65858.2
65326.5
64804.5
66331
64138
62441.9
63117.2
63363.8
63886.3
50793.5
49587.5
47656.9
48786.4
53705.7
54217
51475.8
52954.1
57464.1
56686.6
58060.6
60106.5
58954.8
60991.5
56094.6
55107.5
61288
62009.3
44395
45751.7
38952.3
38987.3
40157.7
40408.3
39486.9
41667.5
39692.1
39988.1
42570.8
41933.4
40984.2
39005.2
44862.1
43402.9
42332.1
46354.6
46705.9
46270.6
46645.5
49417.1
46562.7
67549.5
67500.9
68262.1
67750.8
67282.1
68624.9
69035.6
68939
69872.8
69393.5
71645.3
71027.3
70101.9
70116
71219.7
90589.7
96132.8
105288
99233.7
87025.6
84908.9
109579
77212.9
78294.2
79342.9
80012.7
77459.2
82529.9
83833.9
80149.8
75835.8
75646.6
74274.9
75015.9
73184.9
72528.9
72719
71524.8
71749.6
66715.5
67193.8
65574.4
64900.9
64407.9
65862
63993.6
62564.6
62964.4
63260.7
49799
49214.3
46732.5
47727.1
53500.5
54289.1
51369.1
52162
56756.1
57444.4
56034.9
58181.7
59513.3
60432.6
59040.2
55302.8
61031.2
61447.7
42647
45393.5
37305.1
37448.1
39026.8
39631.8
39027.9
37967
40164.8
41424.5
38536.4
39176.4
38897.3
41537.4
39549.1
37529.6
44065.5
42180.6
41073.8
45439.5
44900
45552.6
45118
45509.5
67114.9
67797.3
68082.3
67300.9
67071.7
68524.1
68191.3
68733.4
69683.9
69358.8
68878.8
70869.1
70582.8
69749.5
69986.4
70980.1
70608.2
90193.8
87951.7
94563.7
104981
99844.7
84558.1
83780
107791
76020.5
78126.7
78949.2
76183.9
81164.1
81819.7
79255.5
74816.1
75321.3
74780.3
73326.4
74193.2
72225
71657.8
72023.1
71184.8
71347.6
66483.6
66739.6
65114.8
64809.6
64384.1
64216.6
65730.8
63588.6
62258.8
62441.1
63003.9
49300
48160.1
45634.6
46495.2
46828.4
52500.6
53672.4
50657.3
51837.8
56139
56744.6
55306.6
57617
59226.6
60118.6
58375
54798.5
60465.1
61359.4
42226.4
43623.3
36962.4
35653.7
35696.5
37436.7
37594.4
37273.6
38966.3
39805.3
36857.9
37558
37614.6
38650.7
40019.4
38936
36240.1
42879.8
44429.2
40949.7
42016.7
39813
42939
43892.9
43364.6
43869
66710.5
67469.8
67585.1
66914.7
66620.7
67949.9
67679.8
68111.2
68936.8
68827.9
68404
69098.7
69436.4
70035
69829.1
87940.1
91804.3
86683.9
96837.9
102554
82971.5
81869.1
108777
75594.7
75017.6
76918.7
77404.3
75320.7
79814.1
80994.1
77807.7
74530.6
73860.1
74176
73728.1
72533.7
73181.5
71410.7
70968.6
71137.3
70397
70541.1
66057
64870
64359.8
64137.5
63745.6
65298.3
63197.6
61741
61944.9
62431.1
49755.8
48354.9
47768.2
44727.4
45214.7
45880.8
52309.8
54032.3
52871.4
50980.7
56144.5
55357.1
56844.4
54979.1
57731.5
58606.8
59507.5
60118.9
60848
40242.1
34910.1
34100.9
34319.6
35947.9
36535.7
35758.2
37403.1
39027.8
35871.7
36250.8
36464.4
37070
37473.8
34772.2
42604.7
43566.3
39580.3
40750.5
38590.8
42689.9
41434.2
43295.2
41617.4
42630.6
66285.3
67002
67407
66588.3
66210.8
67546.3
67762.2
67954.4
68603.1
68700.8
68378.2
68592.6
68710
69309
69511.3
69777
86827.9
90058.8
84868.5
96742.8
102539
80840.1
83229.5
80515.7
107396
74310.6
74042.4
75665.6
76586.1
73850.4
78616.8
79141.3
77445.1
76822.7
73060.8
72936.8
73443.9
72947.9
71575.1
72477.1
70523.8
70080.8
70446.8
70149.1
69940.5
65684.5
64376.4
64957.9
64158.8
63722.9
63490.9
65337.7
62883.4
61543
61949.8
62471
49386.8
47770
46752.5
43722.8
44849
45867.1
51409.9
53639.6
52284
50282.8
55539.8
55029.1
56304
54106.8
57067.8
58336
59181.1
60307.2
59474.8
61103
39865.5
34382.8
32582
32726.3
34692.2
34022.4
36623.2
37398.1
34152.2
35068.2
35297.2
36470.6
36811.1
33657.8
41638.1
38481.2
39603
40649.7
37341
41188.7
39588.8
41649.7
41153.3
65755.4
66079
66696.6
66915.4
66157.8
65941.2
67051.4