/*--------------------------------*- C++ -*----------------------------------*\
| =========                 |                                                 |
| \\      /  F ield         | OpenFOAM: The Open Source CFD Toolbox           |
|  \\    /   O peration     | Version:  v2012                                 |
|   \\  /    A nd           | Website:  www.openfoam.com                      |
|    \\/     M anipulation  |                                                 |
\*---------------------------------------------------------------------------*/
FoamFile
{
    version     2.0;
    format      ascii;
    class       volScalarField;
    location    "1";
    object      p_rgh;
}
// * * * * * * * * * * * * * * * * * * * * * * * * * * * * * * * * * * * * * //

dimensions      [1 -1 -2 0 0 0 0];


internalField   nonuniform List<scalar> 
13611
(
101881
101435
101543
100938
101523
101547
101053
100840
102120
101006
101550
101012
100766
100600
101653
100839
101188
101555
100863
100422
100205
100652
101958
100937
100553
101092
101669
100826
100081
100000
100058
100493
101561
100631
100382
100954
101263
101596
100629
99839.9
99670.8
99796.1
100140
100313
100869
101822
100609
99978
100896
101137
101492
100573
99478.6
99601.3
99411.1
99763.8
99959.2
100263
100762
101732
100256
99679.8
100998
100713
101209
101596
100394
99127.3
99305
99063.9
99574.9
100053
100395
101013
101813
99807.7
99182.3
100980
100653
101126
101497
100359
98778.5
99031.3
99309.8
98788.5
99543.3
99999.7
100113
100775
101724
99412.2
98772.2
100862
100489
100727
101119
101202
101576
100181
98411.6
98727.8
99107.6
98429.2
99359.7
99635.5
99809.4
99552.6
100333
100946
102352
98895.2
98346.5
100852
100493
100627
100990
101182
101549
100183
98236.9
98177.5
98410.2
98661.4
98836.2
99186.3
99456.5
99844.1
99183.8
100066
100413
101421
98534.1
97881.8
100694
100362
100976
101267
101104
101548
100036
97825.4
97767.2
98125.5
98305.3
98762.1
98995.2
99399.7
99707
98692.8
99488
100275
101545
97969.5
97679.5
97611.1
100637
100371
100859
101207
101065
101524
100083
97578.4
97564.1
97782.3
98236.9
98514.2
99025.4
99515.8
99211.8
99776.7
98205.7
99299
99847.3
100317
102581
97717.8
96996.1
97194.4
100731
100490
100237
100928
101241
101140
101635
99961.4
97158.7
97093.5
97508.9
97942.9
98487.6
98882.7
99381.4
99208
99661.7
98081.4
98555.9
99734.3
100102
101959
97146.4
96703.5
96808.3
100658
100443
100297
100911
101222
101120
101631
99992.4
96836.2
97076.5
96788.2
97594.9
97986.7
98243
98676.9
99031.3
99455.4
99737.8
97386.3
98277.2
98856.1
100582
99434.3
101952
96951
96057.4
96296.1
100514
100702
100241
100812
101018
101234
101727
101301
100112
99884.5
96366.8
96757.1
96311.5
97349.7
97750.6
98320.9
98572.7
98947.7
99378
99647.5
97053
97456.3
98673
100611
99356.7
101710
96293.2
95528.2
95824.8
95689.4
100455
100632
100330
100804
100988
101170
101473
101292
100089
99958.8
96051
96286
96790.5
96069
97460.5
97030.5
97883.4
98187
98691.1
99046.4
99488.6
99219.6
99712.9
96278.2
97086.1
97728
100073
98411.1
101986
94888.5
95173.6
95238.7
100525
100699
100286
100881
101039
101230
101436
100170
99939.5
95541.2
96104
96426
95558.5
97177.1
96905.9
97774.5
98335.5
98585.5
98917.5
99415.7
99262.2
99624.6
99839.7
95740.2
96210.4
97584.5
99794.4
98207.9
100937
94790.8
94260.8
94710
94568.1
100474
100680
100356
100857
100998
101184
101158
101583
100140
100038
95291.8
95724.6
96544.9
95220.9
97184.5
97991.3
97494.5
98245.3
98712.5
99021.2
99476.9
99188
99687.8
99892.1
95710.2
94893.3
95663.3
96720.3
98946.8
97097.3
101093
94140.4
93777.4
94114.9
93976.8
94327.5
100517
100605
100763
100318
100916
101026
101110
101171
101414
100215
100008
94744.2
95620.8
95294.6
96352.7
94703.8
96881.8
97967.9
97516.7
98398.2
98614.9
99003.5
99404.3
99261.5
99616.4
99827.5
94881.5
94369.5
95803.7
94763.1
98648.2
96615.1
102105
99414.3
93062
93259.9
93221
93703
100467
100602
100750
100381
100898
100960
101070
101139
101227
101391
100186
100081
95113.9
95900.5
94889.5
96528.5
94262.6
96971.8
98176.7
97767.3
97290.4
98357
98695.1
98874.9
99169.4
99474.9
99693.5
99881.5
93469.2
94775.7
93939.3
97503.1
95463
101916
99000.6
92636.5
92706.6
93114.4
92883.8
93702.8
100524
100671
100824
100346
100979
101088
101147
101185
101292
100253
100064
94934.7
95830.3
94382.4
96223.8
96756.6
98134.3
97871.6
97274.7
98545
98932
99221.4
99387.7
99818.2
99677.1
99985.1
93123.7
94631.1
93800.8
97172
94916.9
100353
98230.1
91762.4
91868.1
92441.5
91764.3
93122
100494
100678
100814
100402
100933
101056
101108
101169
101362
100227
100144
94312.8
95390.1
93965.6
96369.9
96948.1
98273.8
97782.6
97498
98599.9
98810.7
99111.3
99436.7
99869.8
99797
99578.9
100027
92141.5
93351.4
92678.5
95687.5
93510.4
100324
98255.4
91240.8
91354.1
91492.9
91756.8
92471.6
91356
93279.6
100531
100745
100642
100861
100376
100958
101014
101109
101151
101277
100294
100124
94091.6
95371.5
96200
96833.9
98242.2
98487.8
98020.6
97428.6
98891.8
99173.2
99333.4
99978.4
99818.6
99612.4
91821.6
92380.2
95004.8
92663.1
100995
97236.7
90185
90566.8
90552.3
91162.6
91863.4
90312.5
92770.8
100496
100592
100740
100688
100836
100434
100914
101020
101063
101144
101313
101159
100275
100186
93487.6
94414.4
94922.9
95812.7
96478.1
97094.7
98456.9
98591.6
97989.3
97681.4
98787.2
99075.9
99392.9
100031
99731
99912.1
99530.8
90666.7
91014.6
93338
95681.1
91103.3
98655.6
102884
97472.1
89543
89955
90154
90414.9
91228.3
91651.9
89588.6
89960
91973.6
92955.4
100539
100589
100782
100682
100863
100433
100936
100986
101059
101107
101263
101134
100325
100176
93487.9
93994.6
95057.4
95886.7
96314.4
97007
98574.5
98220.9
97654.7
98900.1
99165
99323.8
99994.8
100119
99765.4
99929.8
99585.6
90188.2
90392.2
92425.9
94745.9
90156.9
98482.3
101105
95854.6
88536.1
89242
89394
89865.2
90676.3
90881.1
88612.6
88898.7
91495.2
92477
100536
100631
100775
100729
100822
100393
100492
100894
101002
101113
101278
101135
100304
100241
92917.2
94201
95573.3
94731.7
96587
97319.4
98821.9
98486.6
98193.9
97930.7
99093.8
99418.4
100062
100158
99704
99872.7
100026
99543.9
88956.1
88785.4
93149
90776.7
88666.4
97074
102155
95693.9
88067.3
88049.1
88454.1
88786.3
89110
90063.5
90443.9
88298.8
88408.4
90720.6
91812.8
100576
100623
100726
100837
100425
100501
100905
100988
101076
101248
101119
100346
100228
92669.8
94218.1
95650.6
94761
96474.1
97341.5
98986.5
98666
98427.1
97932.8
99214.5
99378.9
100139
99745.5
99908.9
100060
99651.9
88236.3
88037.2
92122.6
89656.4
87725.9
96544.8
100487
94052.7
87039.9
87170.8
88080.8
88638.4
88810.6
89441.9
89608.3
87311.2
87342.3
90254.4
91349.6
100579
100647
100688
100763
100806
100478
100408
100547
100867
100941
101019
101087
101198
101162
101132
100333
100274
93141.3
91775.5
93916.6
96045.2
95163.7
96757.6
97674.4
97103.9
99183.3
98915.1
98635.7
98453.5
98222
99500.9
100200
99849.5
100004
100149
99645.7
87099.4
86635.4
92512.4
90288.3
88079.8
86479.7
97444.7
94614.3
102182
86448.7
86640.4
86763.5
87375.2
87828.2
88004.4
89105.6
86866.3
86790.4
89468.1
90555.1
100621
100704
100745
100828
100511
100435
100553
100886
100928
100996
101049
101169
101172
101097
100370
100265
92851
91437.7
94246.3
96120.2
95230.1
96550.3
97671.8
97344.1
99334.1
99015.8
98839.9
98693.6
98234.5
99485.1
100210
99917.7
100042
100166
99772.5
86146.4
85870.1
86024.2
90876.3
89459.7
86917.6
85462.5
97312.6
93070.6
100235
85497.9
86635
85668.8
85924
87284.6
87497
87786.1
88330
85805.3
85795.9
89042.1
90018
100624
100689
100766
100806
100509
100417
100476
100589
100866
100949
101010
101058
101139
100371
100324
93396.2
92042.3
90653.5
94007.5
94846.3
95798
96784.1
97941.4
97227.2
99395.6
99209.1
98867.7
98848.3
98477.3
99607.6
100275
100016
99899.3
100118
100234
99750.9
85339.5
84493.2
84829.4
90758
87649.1
85569.9
86593.2
84449.4
95986.2
93684.7
99678.8
85140.8
84937.8
85935.2
85371.1
85430.1
86657.9
86772.6
87026
87910.4
85297.6
88253.7
89277.6
90083.8
100656
100711
100746
100826
100540
100443
100494
100592
100888
100928
100984
101015
101099
100419
100325
93269.7
91938.5
90262.5
94517.1
94999.6
95950.4
96733.6
98045.6
97414.7
99364.8
99571.5
99237.4
99072.2
98772.4
99094.2
98394.6
100306
100105
100017
100160
100295
100228
99859.6
84311.6
84082.7
83778.9
88514.2
86856.3
84664.6
85079
83331.5
96380.6
91631.2
101593
84298
85180.5
84081.6
86046
84557.7
84559.2
86274.6
86333
87172.9
84390
88048.7
88712.3
89411.7
100659
100691
100768
100807
100569
100529
100482
100618
100871
100945
100980
101043
100439
100370
92614.6
93895.1
91296.2
89490.5
90524.3
94522.2
95536.5
96417.1
97137.3
97819.4
99564.2
99665.3
99426.4
98999
99298
98623.3
100362
100120
100047
100351
100296
99985.9
99814.8
83870.6
83012.2
82724.8
87900
84966.6
83463.6
83942.4
82827.1
82655
94705.6
92561.3
89231.4
99460.6
83823
83780.6
84611.7
83515.5
85474.4
83854.5
83854.7
85591.4
86078.8
85716.4
86615.3
83805.1
87406.3
88777.8
100645
100697
100753
100832
100588
100548
100509
100612
100896
100935
100955
100493
100420
92453.3
93912.2
91637.5
88951.5
89958.4
95140.6
95659.9
96658
97120.4
97988.2
99595
99476.7
98934.1
99255.8
99365.8
98602.5
100412
100223
100172
100358
100412
100305
100096
99933.2
83002.5
82112.6
82105.3
82000.1
85384.6
83867.3
83788.6
82819.5
81457.1
81613.9
94682.5
91034.8
87526
96082.7
100791
83026.9
82961.7
83792.3
84802.1
82714.3
82992
82986.5
85090.3
85279.3
84980.1
85861.4
86719.6
82981.7
87462.7
88156.9
100656
100722
100679
100779
100815
100580
100542
100517
100627
100875
100516
100446
93118.2
94628.9
91087.5
88797.8
88252.6
90161.2
89157.9
95236.3
96218.4
96623.7
97407.4
98344.1
97790.5
99755.5
99672.4
99182
99455.2
99625
98900.4
100246
100199
100426
100456
100382
100083
99971.8
82236.1
81253.3
81164.5
81047.3
83799
85205.5
82329.6
82372.1
81526.1
80953.1
80802.6
92321.8
88447.5
95974.5
98988.3
82491
82381
83369.5
84283.4
82107.6
82342.7
82311
84449.7
84788.9
84456.1
85313.6
86002.4
82349.2
86857.1
100647
100719
100680
100763
100839
100594
100563
100554
100629
100492
100555
93157.7
94750.6
91417
87977.3
87707
89346.3
88699.5
95937.6
96396.6
97155.1
98464
98168.9
99791
99910
99753.2
99175.2
99441.9
99679.5
98815.6
100350
100317
100466
100510
100451
100402
100193
100138
81398.7
80337
80458.4
80236.9
81905.9
83162.5
80878.5
81111.7
80718.4
79907.1
79634
90503.5
87597.5
93988.6
99871.1
81743.5
81624
83660.3
82675.5
81360.4
82136.6
81558
81516.9
83907.3
84051.9
83678.5
84652.2
85365.7
86105.3
81530.8
87009.4
100655
100737
100697
100670
100779
100810
100617
100587
100578
100646
100524
100579
100581
94081
92413.6
95521.9
90879.7
87581.4
89190.1
87925.8
96098.6
96954.2
97301.6
98207.7
99954.7
100027
99965.4
99512.2
99675.5
99894.7
99093.3
100389
100380
100541
100532
100557
100517
100489
100326
100225
80564.7
79662.2
79939.4
79532.7
79437.8
80991.5
80584.4
82708.9
81163.2
80038.2
79170.5
79158.8
78844
79055
91173.2
84872.3
93818.2
98457.7
81229
81369.3
81134.9
83183.8
82616.6
80784.2
81432.3
81188.7
81012.2
83263.1
83465.7
83272.9
84197.9
84626.3
85556.1
86450.9
100728
100694
100671
100751
100625
100605
100606
100652
100568
100616
100615
94386.7
92463.3
95761.6
91541.7
89957.8
86758.7
88191.8
87259.7
96763
97325.1
97804.2
98670.2
100047
100171
100113
99522.8
99743.5
99903.7
100099
99063.8
100494
100510
100589
100579
100609
100576
100541
100420
100371
79870.5
78818.1
78912.9
78868.8
78664.2
79377.4
79293.9
80253.7
79243.6
78796.6
78339.2
78215.7
77707
77939.5
89107.2
83794.4
95644
90965.6
99820.6
80454.9
80493.3
80382.4
82076.6
80174
80827.4
81462.1
80296.5
80221.5
82718.2
82771.7
83592.4
82594
84367
84813.9
85751.4
100709
100680
100663
100639
100622
100628
100649
100597
100646
100637
93949.7
95282
93111.1
96445.2
91366.8
89623
86449.9
87326.4
87930.1
96885.4
97293.7
97852.8
98724.8
100223
100275
100309
99837.5
100054
100122
100313
99486.1
100556
100592
100656
100613
100655
100632
100631
100551
100467
79745.1
79083.4
78463.3
78113.3
78090.9
77856.2
77995.7
77995.4
78912
79038.2
77683.7
77792.4
77119.8
77499.4
76719
85975.1
80430.5
95224.2
90073.2
97958.7
79980.4
80015.7
79926.2
82101.1
79644.7
80229
80843.2
79841.7
82109.6
83108.5
82039.9
82503.4
83473.8
84467
85080.3
100659
100643
100636
100646
100655
100636
100681
100667
94501.6
95666
92993.4
96813.4
92174.7
90395.3
88562.8
85689.6
86534.1
86916.1
97475.9
97908.6
98303
99201.5
100338
100424
100475
99826
100158
100245
100344
100497
99556.6
100665
100707
100680
100682
100650
100692
100662
100697
100644
100609
78898.1
78543.4
77619.6
77393.2
77476.4
77667.9
77075.9
77031.5
77467.3
76981.5
78812.7
76886.2
75994.6
76718
76462.7
76459.6
76659.7
75652.2
84901.5
78820.9
92444.9
87224.8
98845.4
79272.4
79193
79113.8
81575.1
79107.8
79653.4
80234.4
80932.3
79007
81533.1
82989.1
81396.6
81944
83289.6
83835.1
85006
100650
100645
100666
100655
100715
100686
100680
93962.3
95312.9
96512.5
97482.9
91690.3
90403.2
88087.3
85277.8
85626.9
86418.7
97983.3
98374.7
99293.6
100501
100535
100617
100151
100501
100689
100664
100740
99981
100738
100793
100733
100741
100684
100738
100731
100787
100768
100709
78547.7
77705.9
77012.8
76713.2
76786.7
76866.3
76361.1
75688.1
75874.3
75604.6
76212.1
75394.4
74746.5
75690.1
75386.8
75358.9
76406.5
75736.3
74753
82187.4
79554.2
75871.4
91536.3
85792.3
96783.2
78807.6
78741.1
78758.8
78665.7
78566.9
79087.2
79599.1
80513.9
80887
82155.2
81400.3
80788.6
82698.1
83499.9
84158.9
100657
100657
100675
100657
100736
100739
100719
100705
94562.5
96040.1
96803.5
98100.1
91935.3
89671.5
86927.3
88572.8
84283.7
84911.1
85317.6
98575.9
98901.7
99860.2
100616
100677
100790
100501
100231
100758
100845
100956
100842
100876
100145
100840
100901
100781
100784
100724
100761
100793
100858
100854
100832
77691.8
77225.9
76146.9
76071.3
76072.2
76324.3
75567.6
74715.3
75082.8
73830.1
75010
73768.4
73103.1
74894.9
74930.7
74715.5
75571.1
75074.6
73805.2
82560.3
76831.2
73988.3
93400.8
87657.1
98387.6
77991.2
77941.3
77983.5
77904.8
78526.3
77916.3
79036.3
79485.8
79915.5
80552.7
81734.2
80742.6
80344.6
82044.9
82837.6
83538.5
100661
100668
100692
100782
100769
100727
100707
94272.6
95869.4
97596.1
98252.7
98701.6
93089
90730.8
89724.1
86388.1
87974.8
83714.5
83977.8
84836.6
99024.6
100081
100756
100789
100861
100812
100702
100922
101022
101042
100986
101035
100579
100919
100994
100843
100839
100801
100861
100938
100982
100943
77398.1
76373.6
75431.9
75414.1
75397.6
75855.8
75567
75075.5
73279.3
73815.3
73164.2
72610.1
72858.8
72218.2
72324.6
73929.3
73776.2
73698.4
74243.3
73125.4
73413.4
79991.1
74237.1
76910.5
71753.2
91073.9
87296.4
95834.6
77561.4
77619.8
77587.3
78024.2
77357.8
78421.1
78790.5
79531
79785.5
80833.7
80411.7
79690.9
81596.5
82443.1
82790.4
100669
100677
100690
100793
100809
100784
100755
100727
95437.6
96628.3
97989
99197.2
99384.4
92984.9
90646.2
88674.2
86945.9
85384.4
83000.9
83187.4
83845.5
99666.3
100505
100949
101024
100700
100945
101647
100999
101169
101815
101090
101155
100718
101025
101085
100876
100863
100840
100926
100963
101014
101067
101064
76713.2
75917.8
74602.4
74653.3
74726.8
75032.4
74385.7
72972.2
73162.3
71512.9
71060.5
71492.6
71821.8
70915.3
71051.2
73248.4
73275.4
73993.3
73603
72141.3
72314.5
79372.2
71906
74450
69734.6
91950.9
84887.5
95546.3
76892.8
76862.5
76859.3
77480.9
77965.8
76755.4
78293.1
78834
79377.8
80474.9
79579.8
79259.9
80928.3
81852.4
82376.5
100703
100825
100854
100784
100818
100753
100723
95485.5
96478.6
97569
99121.4
99681.6
99644.9
99940.1
94235.6
91667.7
89319.4
88356.4
86390.4
84767.4
82527.9
82425.5
83111.9
82360.9
83775
100607
101085
101002
101778
102038
101554
101891
102360
101613
101504
101823
101109
101172
100928
100925
100874
100968
101052
101138
101158
101155
76494.9
76098.2
75141.8
73874.8
74066
74576.8
74772.2
73932.6
73840.8
71646.9
71825.6
70613
69895.6
69533.8
69792.6
69272.7
70727
69970.7
72121
72230.1
73161.5
72825.9
71723.3
71478.9
72142.4
75586.5
81386
69608.3
72060.3
73903.4
67990.6
89104.8
85791.7
90877.7
97891.2
76533.2
76375.8
76515.8
77089.3
77380.7
76348.7
76329.9
77582.6
78399.8
78677.2
79725.2
79122
78487.5
80724.1
81340.3
81507.9
100863
100877
100813
100839
100773
100746
96858.2
97639.5
98242.6
99706.5
100282
100197
100545
94399.8
91021.7
89352.3
87071.1
85184.9
81994.3
82160.1
81437.3
83141.2
101783
101181
101818
102502
102004
101730
101622
102602
101161
101388
100954
100970
100947
100917
101041
101119
101197
101259
75818.3
75560.3
74649.3
73125.4
73526.7
73837.2
74012.1
73236.7
73155.2
71284
69211
68516.8
68089.2
68576.6
68478.6
69625.9
68704.2
71493.5
72622.3
72834.9
70765.3
70475.1
71435.5
73971.8
79549.5
67504
70254.1
71218.7
66091
82474.6
89319.6
96043.3
75799.8
75674.7
75798.3
76530
77138.5
75672.6
75734.2
77307.3
77690.6
78217.6
79552
79201.8
78377.9
78066.7
80099.3
81017.2
100886
100923
100831
100874
100802
97924.4
97267.3
99230.8
100348
100359
100742
100431
93261.6
96098.9
91648.3
88270.4
86430.1
84550.3
81347.8
81322.8
81774.1
80853.3
82186.7
82953.1
101912
101458
101372
101463
101469
101010
101020
100986
100943
101099
101040
101365
101502
75472.5
74863.7
73948.7
72485.4
72819.3
73540.2
72653.9
72524.5
70253.2
68289.3
67412.2
66337.8
66842.8
67023.4
69028
68667.2
67534.6
70332.3
71762.1
71972.1
70352.3
70167.7
69840.7
70683.6
70740.9
75886.6
65730.4
67152.2
68272.4
69773
65256.9
65091.4
81547.4
92156.6
84698.5
98010.5
75430.6
75118.6
76126.7
76429
75132.3
75287.9
76560.8
77316.7
77564.3
78943.5
78437.7
77997.2
77345.7
79901.8
80283.1
100919
100940
100864
100889
98930.2
98547.5
99826.6
101374
101970
101800
93565.4
96357.9
90869.7
86880.8
88074.2
85076.1
83378.7
80637
80881.6
79995
81995.1
102866
101559
101549
101049
101091
100985
101041
101098
101127
101071
74850
74501.7
73325
71836.8
72347.3
72877
72013.3
71958.7
69253.5
69841.7
67012.7
66166.2
65876.5
65698.9
65858.3
67769.9
67573.1
66437.8
71438
69350
69275
68800.8
69968.8
68924.5
74231
63886.3
65034.2
66794
67305.4
63242.9
63241.3
77649.7
90795.3
83821
96284.4
74678.1
74455.1
75479.7
76131.9
74501.2
74598.1
76288.6
76660.1
77016.4
78354.3
78711.6
77323.3
76994.3
76904.5
79135.1
79767.8
100938
100978
100930
99116.8
99733.8
99135.8
101385
102304
102266
94946.5
92195.6
97593.8
89185.8
85940.9
86460.9
84312
82722.1
79820.2
80207.8
79360.3
81355.9
101099
101013
101084
101275
101145
101297
74426.9
73892.8
73323.3
72619
71097.1
72376.6
71556.8
72504.9
71375.3
71186.4
68250
68658
65985.6
65121.3
63962.8
63998.7
64519
66973.7
66531.1
65277.6
70592.8
68876.8
69172.1
68557.4
68115.3
69913.8
69003.8
66028.1
70807.2
75158.7
62483.5
63558.9
64862.5
65423.7
62221.8
62609.5
75630.6
87046.6
93296
80222.3
97635.7
74251.9
73969.6
75007.8
75494.5
73997.1
74231.2
75548.1
76462.8
77874.5
78098.5
76880.3
76364.4
76193
79053.3
100973
101007
100959
100982
101572
101222
98794.2
102627
95403.4
92092.3
97011.6
88686
84707.5
85554.4
83100.1
81632.2
79494.6
79288
80003.8
78416.2
80445
101129
101066
101115
101373
101354
101147
73845
72796.3
71969.9
70437.6
71853.3
71371.4
71147.8
71893.4
70813.4
67226.5
64705.3
63882.5
62964.4
63299.5
65778.2
65487.9
64279.6
67980.8
68496.4
67722
67106.8
69055.3
66075.8
64424.5
69905.8
72094.1
60774.9
61487.4
63150.8
63046.2
60332.2
60959.2
71960.2
76451.1
86386.7
92464.7
80397.6
95309.2
73512.7
73393.7
74448.5
75027.6
75189.5
73401.7
73682.3
75338.2
75882.9
77286.8
77617.5
76192.6
76879.3
75998.6
76000.2
75732.8
78359
101006
101040
100997
102380
102645
101079
94037.5
90305
97831.1
87020.3
83802.6
84098.2
85749.7
82303.4
80903.7
78790.5
78247.6
78978.6
77786.6
79648.3
101121
101073
101117
101458
101300
73292.3
72262.6
72780.2
71368.9
71890
69714.7
70842.3
70388.3
71378.9
70187.7
66258.6
63636.8
62909.5
61464.9
62064.2
65182.2
64408.2
63154.4
67335.4
67601.1
68433
66866.5
66266.2
66592.7
69009.6
65506.8
62039.3
67499.8
60066.5
59593
61182
60990
59189.1
60597.4
59530.6
69579.7
73253.8
83352.9
89205.4
77536.5
94281.8
73165.6
73125.2
73058.3
74048.4
74444.3
74512.4
73075
73204.1
73613.2
74698
77035.9
77607.9
75783.7
76108
75348.8
75342.9
75139.4
101046
101042
101758
93849.2
90166
97824.9
100242
86215.8
82591.6
83053.5
84400.1
81185.8
79809
78481.7
78072
78771.6
76967.5
101244
101093
101103
101222
71945.6
72230.5
70690.1
71315.1
69366.3
70294.6
70826.8
69980.4
70089.2
69545.4
65341.6
62245.7
61747.2
60961.6
64113.5
63386.4
62278.9
66385
67138.4
67691.5
66145.8
65352.5
65607.7
68340.2
63176
60555.2
60774.9
66462.2
58329.3
57667.8
59258.9
59022.4
57321
59097.9
58220.8
68836.9
67172.4
74247.7
69860.2
82622.3
88581.9
79040.9
90651.4
72592.9
72395.8
72470
74021.3
74028.3
72411.7
72727.4
73181.2
74103.3
74637.5
76415.2
76806.5
75185.3
75883.7
74957.8
74954.9
101083
101105
91739
95080
88520.9
100162
96802.4
101422
84492.4
86726.3
81710
83169.4
81862
80409.7
79108.7
77717.8
77468.4
77907
76554.6
76272.3
101328
101099
101239
101200
71439.8
72004
70707.1
70230.3
68560.2
69789
70339.6
69272.4
69362.1
68990.3
64433.6
61335.1
60782.7
59696.6
63312.5
62353.7
61056.2
65654.6
66440.6
67392.6
65244.8
64522.1
64973.8
67675.6
61217.9
63679.8
58121.2
58607.2
57193.2
57111.2
56543.7
57366.4
56948.6
56251.8
58132
58711.8
56780.3
66051.1
65388.9
71461.3
67392.2
85004.1
76822.5
72210.9
72245.3
72149.2
73374.4
73406.1
72068.3
72759.2
72242.8
73445.7
74091.4
76218.3
74668.2
75235.6
74284.1
74266
101116
101147
91056.8
94018.1
89091.9
101219
97230.1
83264.2
85364
80636.2
81961.4
80798.3
79412.8
78213.6
77134
76733.4
77704.7
77112.3
75633.7
76176.7
75456.5
101122
101243
71042.2
71309.9
70272.2
69645.5
68170.7
69820.7
69274.3
68966
68416.9
64085.9
59948
59657
59160.5
62220.5
61280.3
60391.9
64774.4
65756.6
66143.2
66544.6
64598.6
63708.9
63944.1
67063.1
58759.2
62455.5
57462.4
56485.8
57321.4
55448.8
55519.5
54733
55573
55377.6
54569.8
56750.2
57366.3
55885.4
64362.7
63442.9
72557.1
67974.1
64627.4
71695.3
71742.9
71605.5
73122.2
72905.1
71463.2
72213.8
71913.6
72877.2
73483.1
75449.3
74664.9
74046.6
74992
73921.1
101195
92065.5
95520.3
87891.9
99424.9
81973.3
82767.5
85964.6
83497.8
79754.3
80808
79776
78684.9
77590
76437.3
76804.2
76216.5
75124.6
75263.2
74789.4
101210
70499.9
71009
69707.7
69392.2
69242.9
67447.5
68765.6
68315.5
67836.4
63163
58708.2
57728.5
61988.3
61161.8
59295.9
63958.2
65089.4
65415.7
66410.3
63837.7
63021.1
63459.6
66983.3
58401.4
60329.5
55415
54178.4
55318.7
53567.8
54065.8
53835.2
53659.1
53463.2
53462.1
53601.5
56365.3
56894.8
54417
62083.3
61922.5
65535.6
62500.9
71227.2
71303
71279.4
71248
72568.9
72467.4
71183.5
71905.3
71452.4
72266.9
72957.9
74045.6
73451.9
74230.7
73260.3
101263
90747.5
95606.2
88516.3
99782.9
80793
81042.2
84685.7
82571
78802.4
79619.2
78658
77752.3
76754.5
75694.5
76093.4
75499.4
74238.9
74694
75055.6
74055.8
69948.3
70366.4
69271.4
69524
68860
68584.6
67300
68204.5
68016.6
67811.3
62437.3
58539.7
57503.4
57040.5
60929.9
60137.8
58831.7
63217.6
64177.4
65020
65763.4
63253.2
62219.1
62657.9
66346.9
56418.9
60046.4
53735.6
52765.9
53516.1
52521.6
52177.7
51984.9
52159
52089.9
55003.7
55622.2
53918
60190.4
67455.4
62423.3
65747.8
60169.8
61574.7
70773.9
70811.2
70789
70760.8
72070.5
71914
70670.1
71203.1
71058.1
71766.7
72051.8
72916.8
72348.8
73426.1
72764.5
73824
72725.3
91385.7
97504.8
93631.1
86901
101645
79610.2
79954.8
85015.8
83158.6
81046.8
78035.1
78521.5
77877.3
77064.8
76014.8
75191.5
74592.4
73788.9
73847.7
74222.8
73473.9
69885.2
70312.8
68746.9
68962.3
68417.4
68141.4
66629.1
67667.9
67312.8
67139.3
61784.6
57365
56715.7
55527.9
60151.6
60976.4
59185.2
57601.6
62592.6
63822.5
65159.2
64322.5
65776.2
62584.8
61687.7
61944.3
66145.9
54375.3
56614.4
58316
51650
50895.9
51348.7
53093.9
50890
51414.7
51388.9
50767
50528
51140.6
54743.7
54935.1
52580.3
58077.1
60388.6
63308.8
58587.7
59123.6
70386.2
70345.3
70366.2
71622.7
70587.8
70284.4
70841.9
71202.6
71452.8
72317.4
72011.6
72817.9
72136.3
73042
72155.9
89208.9
97714.4
94158.4
87041.3
100278
78374
79968.1
78436.5
83440.5
81934.2
80698.9
77225.3
77353.2
76912.1
76144
75143.8
74403.2
73950.9
72884
73599.2
72821.4
69298.1
69878.4
68241.1
68646.2
67775.5
67586.2
66558
67135.3
56891.1
55605.4
54899.2
59209.8
60123.3
58355.6
57419.7
61800
62166.6
63199
64471.9
64018.4
65221
61833.3
60483.4
61303
65488.3
53304.7
54751.2
49718.4
49628.7
49931.2
49317.3
50495.7
49358.1
49802.9
49895.4
49345.3
49037.6
49747.7
51376.1
53530.4
53665.3
52491.7
56056.1
57734
61135.9
56686.9
57314.3
69905.4
69875.7
69914.2
71076.4
70102.3
69722.7
70290.3
70641.1
71088.9
71113.9
71373.7
72655
72188.6
71455.5
72561
71566.4
89772.8
96187.6
92406
85140.9
100744
77213.6
78500
77311.8
81904.6
83478.9
79418.6
76581.6
76303.3
76216.3
75559.1
74381.6
73592.1
73141.3
72501
72776.6
72179.6
68808.7
69341.3
67689.3
68012.4
67390.1
67143.3
65970.7
66595.1
55705.3
55016.9
53676.5
58343.6
59172.5
56636.6
61405.9
62035.6
63439.8
62510.5
64519.7
60012
60562.6
65033.9
51370.6
54347.5
47728.4
47612.9
48048.6
48922.3
47525.7
49834.3
48606.6
47745.7
49054.6
49236.7
47926.8
47262.5
48709.4
50083.8
52668.4
51364.7
55529.2
56560.7
56245
59379.6
55741.3
69524.9
69410.3
69533.8
70586.7
69632.6
69969.8
69323.2
69962.6
70165.4
70566.4
70549.2
71110.7
71871
71660.7
71237.1
70915.2
71816
88303
96810.3
93037.6
84403.7
99329.1
75919.3
77371.7
78318.1
76135
80338.8
81825.2
79108.1
75826
75233.8
75154.9
74708.5
73632.8
74239
73348.3
72836.9
72592.3
72675.5
71828.3
72131.3
71622.5
68308.4
68912.4
67615.8
67163.1
67910.3
66729.6
66649.6
65246.1
65771.4
65974.4
66411.9
55180
53838.1
52729.3
53201.5
57434.8
58216.6
55644.1
56649.7
60672.9
61163.2
62814.2
62179.8
64004.1
59086.9
59966.7
64314.4
50800.5
52352.9
45866.2
45948.3
46661.8
45831.9
47623.2
46164
46128.2
47508.7
47843.2
46622
45460.2
48827.4
47542.6
50201.8
51423.7
53332.2
53837.8
53926.5
57169.2
54016.7
69037.7
69024.5
69106.8
70051.5
69119.8
69418.3
68761.3
69431.7
70180.2
69688.2
70038.2
70477
71517.2
71046.3
70471.5
70241.4
71176.4
85977
89431.2
95117.7
91512.5
84493
82153.2
100134
75019.9
75573.1
76114.1
77007.1
75203.1
80264.7
77727.3
75112.4
74198.3
74192.4
74385.1
72985.2
73270.4
72454.4
72154.7
71851.3
71857.1
71208
71263.2
70968.5
68189.5
68443.5
67038.4
66637.8
67489.8
66236.3
64877.7
65200.4
65577.8
65819.5
53976.3
53340.2
51477.3
51910.3
57314
57943.7
55108
55779.5
60507.5
59951.7
61006.2
62771.7
61543.4
63311.1
59157.2
58315.7
63880.7
48833.6
51874.1
44051.7
44145.5
45409.4
45993
44167.9
47187.1
44836.8
44581.6
46984.3
46514.9
44991
43960.9
47502.5
46356.4
49023.4
50332.7
52792.9
52704.5
52898.8
52757.4
68816.3
68578
69556.8
69024
68647.9
68415.9
69186.9
69619.1
69353.9
69412.6
69975.9
69502.2
70802.2
70507.6
70023.4
69798.2
70537.3
85648.5
87905
94942.3
92619.7
82165.5
81068.9
98940
73752.4
74223
75215.6
76016.4
76733.3
74145.6
78772.7
77008.9
73247.8
73300.2
73551.8
72244.8
72887.9
71376.9
71153
71244.2
70626.6
70683.7
67665.5
68063.9
67019.7
66600.3
66207.9
67381.8
65634.8
64278.9
64876.2
65060
65444.8
53429.8
52272.6
50435.6
51478.7
56315.4
56732.8
54097.6
55566
59709.6
59022.5
60211.5
62137.4
61042.8
62975.7
58522.5
57575.7
63215.3
63865.5
48407.3
49899.7
42257.6
42253.6
43675.5
44002.6
42917.3
45411.7
42826.5
43037.5
45520.4
44945.6
43978.9
42179.5
47668.6
46214.6
45189.4
49166.5
50949.9
50442.4
50881.7
53843.5
50724.6
68371.3
68231.2
68520.6
68153.4
67866.9
68685.1
68830.8
68833.2
69275
68977.8
70411.7
69944.6
69309.4
69136.1
69798.6
84009
88679.2
96387.4
91294
81000.5
79276.5
99972.4
73319.1
74007.7
74820.4
75286.3
73336.4
77353.1
78391.8
75339
72296.4
72318.2
71470.1
71948.6
70646.9
70388.5
70442.9
69894
69896.6
67663.9
68052
66662.3
66122.3
65775.1
66878.9
65412.1
64316.6
64575.7
64799.6
52357.3
51803.2
49401
50311.2
56014.6
56726.6
53907
54699.2
59005.4
59603.1
58376.6
60258
61516.2
62392.7
61066.1
57714.2
62868.3
63238.8
46496.2
49510
40492.5
40565.6
42460.3
43172.1
42482
41265.3
43764.4
45156.9
41625.3
42216.1
41819.5
44455.9
42424.8
40615.9
46759.7
44869
43810
48133
48948
49636.4
49199.3
49547
67786.6
68112.9
68268.2
67734.6
67589.3
68470.7
68299.8
68470.4
68985.6
68839.5
68519.7
69642.5
69446.8
68857.4
68909.3
69466.9
69302.1
83612.8
81760
87316.6
96091.3
91779.1
78878.5
78249.3
98450
72226.1
73791.7
74395.4
72206.5
76114.5
76630.6
74516.2
71320.7
71933.3
71625.3
70664.3
71278.3
69805.2
69611.5
69726
69463.5
69423.1
67356.5
67548.3
66192.6
65947.1
65627.5
65516.8
66673.3
64963.7
63945.5
64049.9
64470.6
51749.5
50680.3
48269.9
49078.3
49370.4
54923.9
56016.9
53110.6
54281.9
58311.4
58825.2
57584.5
59620.4
61137.3
61997.6
60315.9
57120.1
62277.9
63073.1
46041.1
47569.5
40154
38686.4
38698.2
40722.3
40956.9
40590.1
42472
43393.4
39815.5
40462
40465.5
41501.3
42802.9
41694.2
39201
45490.6
47076.4
43601.5
44615.3
42506.6
46797
47816.3
47283.4
47754.9
67424.3
67734.9
67779.8
67282.4
67121.9
67866.3
67748.4
67859.5
68234.2
68286.3
68004.2
68218.5
68335.9
68541.1
68537.4
81687.7
84968.4
80638.6
89222.9
94044.6
77469.5
76594.4
99245.5
71754.4
71373.5
72679.8
73024.1
71365.9
74946
75870.7
73240.2
70998.2
70528.6
70896.8
70648.6
69885.1
70320.1
68983.8
68886
68939.5
68703.5
68673.8
66924.4
65876.3
65474
65310.5
65044.2
66210.7
64591.5
63412.2
63487.5
63874.3
52162.8
50749.4
50202.8
47251.3
47706.2
48297.4
54644.4
56317.6
55174.8
53373.1
58235.1
57510.5
58844.3
57175.3
59661.7
60489
61365
61852.7
62503.3
43874.4
37943.5
37040.2
37190.4
39116.3
39819.9
38936.9
40771
42550.3
38719.7
39077.2
39199.7
39791.7
40116.1
37633.4
45119.5
46107.9
42106.1
43231.6
41167.9
46511.3
45159
47145.1
45369.8
46386.6
66959.4
67288.1
67539.2
66992
66738.3
67536.4
67583.9
67614.9
67978.7
67916.2
67899.4
67647.2
67677.3
68109.9
68123.7
68193.3
80721.5
83462.8
79068.4
89120.9
94009.9
75627.6
77664.6
75381.4
98058.9
70607.2
70439.1
71593
72250.3
70068
73861.7
74245.8
72860.2
72400.8
69660
69678
70299.9
70009.5
69043.5
69739.2
68204.9
68085.6
68234.3
68381.1
68038.8
66479
65372.3
65899.7
65202.9
64889.4
64726.4
66162.9
64227.2
63122.7
63419.3
63844.3
51683.6
50073.3
49111.3
46199.4
47249.9
48209.7
53667.3
55835.3
54481.5
52580.8
57576.3
57101.9
58234.1
56257.1
58916.9
60150.8
60961.4
61970.5
61197.4
62672.5
43462.9
37405.8
35396.5
35484.8
37820
37064.7
39930.4
40777.6
36886.6
37774.9
37965.8
39101.5
39346.8
36402.1
44056.1
40974.8
42048
43046.1
39854.3
44862.2
43140.8
45348
44790
66476.1
66670.1
66908.9
67044.3
66538.6
66395.2
67024.3
66975.6
67120
67393.9
67351.6
67404.1
67134.8
67087
67306.8
67370
67414.9
79038.7
81161.8
83486
91618.2
86944.4
95907
74240.2
76066.1
73877.7