/*--------------------------------*- C++ -*----------------------------------*\
| =========                 |                                                 |
| \\      /  F ield         | OpenFOAM: The Open Source CFD Toolbox           |
|  \\    /   O peration     | Version:  v2012                                 |
|   \\  /    A nd           | Website:  www.openfoam.com                      |
|    \\/     M anipulation  |                                                 |
\*---------------------------------------------------------------------------*/
FoamFile
{
    version     2.0;
    format      ascii;
    class       pointVectorField;
    location    "1";
    object      pointDisplacement;
}
// * * * * * * * * * * * * * * * * * * * * * * * * * * * * * * * * * * * * * //

dimensions      [0 1 0 0 0 0 0];


internalField   nonuniform List<vector> 
17322
(
(0 0 0)
(0 0 0)
(0 0 0)
(0 0 0)
(0 0 0)
(0 0 0)
(0 0 0)
(0 0 0)
(0 0 0)
(0 0 0)
(0 0 0)
(0 0 0)
(0 0 0)
(0 0 0)
(0 0 0)
(0 0 0)
(0 0 0)
(0 0 0)
(0 0 0)
(0 0 0)
(0 0 0)
(0 0 0)
(0 0 0)
(0 0 0)
(0 0 0)
(0 0 0)
(0 0 0)
(0 0 0)
(0 0 0)
(0 0 0)
(0 0 0)
(0 0 0)
(0 0 0)
(0 0 0)
(0 0 0)
(0 0 0)
(0 0 0)
(0 0 0)
(0 0 0)
(0 0 0)
(0 0 0)
(0 0 0)
(0 0 0)
(0 0 0)
(0 0 0)
(0 0 0)
(0 0 0)
(0 0 0)
(0 0 0)
(0 0 0)
(0 0 0)
(0 0 0)
(0 0 0)
(0 0 0)
(0 0 0)
(0 0 0)
(0 0 0)
(0 0 0)
(0 0 0)
(0 0 0)
(0 0 0)
(0 0 0)
(0 0 0)
(0 0 0)
(0 0 0)
(0 0 0)
(0 0 0)
(0 0 0)
(0 0 0)
(0 0 0)
(0 0 0)
(0 0 0)
(0 0 0)
(0 0 0)
(0 0 0)
(0 0 0)
(0 0 0)
(0 0 0)
(0 0 0)
(0 0 0)
(0 0 0)
(0 0 0)
(0 0 0)
(0 0 0)
(0 0 0)
(0 0 0)
(0 0 0)
(0 0 0)
(0 0 0)
(0 0 0)
(0 0 0)
(0 0 0)
(0 0 0)
(0 0 0)
(0 0 0)
(1.72491e-09 2.93676e-05 0)
(-2.29505e-07 2.9326e-05 0)
(-4.71113e-07 2.92826e-05 0)
(-7.18375e-07 2.92204e-05 0)
(-9.60686e-07 2.91068e-05 0)
(-1.198e-06 2.89591e-05 0)
(-1.43036e-06 2.87825e-05 0)
(-1.65444e-06 2.85759e-05 0)
(-1.872e-06 2.83439e-05 0)
(-2.08289e-06 2.80877e-05 0)
(-2.28702e-06 2.78081e-05 0)
(-2.48543e-06 2.75065e-05 0)
(-2.67821e-06 2.71833e-05 0)
(-2.86609e-06 2.68389e-05 0)
(-3.04936e-06 2.64736e-05 0)
(-3.22847e-06 2.60874e-05 0)
(-3.40344e-06 2.56802e-05 0)
(-3.57487e-06 2.52518e-05 0)
(-3.74267e-06 2.48019e-05 0)
(-3.90714e-06 2.43303e-05 0)
(-4.06835e-06 2.38367e-05 0)
(-4.22636e-06 2.33206e-05 0)
(-4.38131e-06 2.27816e-05 0)
(-4.53308e-06 2.22193e-05 0)
(-4.68174e-06 2.16333e-05 0)
(-4.82725e-06 2.10232e-05 0)
(-4.96948e-06 2.03883e-05 0)
(-5.10847e-06 1.97284e-05 0)
(-5.24401e-06 1.9043e-05 0)
(-5.37603e-06 1.83316e-05 0)
(-5.50438e-06 1.75939e-05 0)
(-5.62894e-06 1.68294e-05 0)
(-5.74953e-06 1.60378e-05 0)
(-5.86599e-06 1.52186e-05 0)
(-5.97816e-06 1.43718e-05 0)
(-6.08582e-06 1.3497e-05 0)
(-6.18879e-06 1.2594e-05 0)
(-6.28689e-06 1.16626e-05 0)
(-6.37992e-06 1.07026e-05 0)
(-6.46766e-06 9.71413e-06 0)
(-6.54995e-06 8.69707e-06 0)
(-6.62656e-06 7.65147e-06 0)
(-6.69734e-06 6.57756e-06 0)
(-6.76209e-06 5.47534e-06 0)
(-6.82066e-06 4.34528e-06 0)
(-6.87286e-06 3.18761e-06 0)
(-6.91858e-06 2.00281e-06 0)
(-6.95766e-06 7.9122e-07 0)
(-6.99002e-06 -4.4633e-07 0)
(-7.01554e-06 -1.70925e-06 0)
(-7.03417e-06 -2.99685e-06 0)
(-7.04583e-06 -4.30828e-06 0)
(-7.0505e-06 -5.64263e-06 0)
(-7.04817e-06 -6.99883e-06 0)
(-7.03886e-06 -8.37582e-06 0)
(-7.02261e-06 -9.77254e-06 0)
(-6.99948e-06 -1.11877e-05 0)
(-6.96955e-06 -1.26199e-05 0)
(-6.93293e-06 -1.40679e-05 0)
(-6.88978e-06 -1.553e-05 0)
(-6.84023e-06 -1.70051e-05 0)
(-6.78448e-06 -1.84913e-05 0)
(-6.72272e-06 -1.99872e-05 0)
(-6.65515e-06 -2.14912e-05 0)
(-6.58203e-06 -2.30014e-05 0)
(-6.50362e-06 -2.45162e-05 0)
(-6.42015e-06 -2.60338e-05 0)
(-6.33194e-06 -2.75527e-05 0)
(-6.23924e-06 -2.90709e-05 0)
(-6.14236e-06 -3.05868e-05 0)
(-6.04163e-06 -3.20987e-05 0)
(-5.93732e-06 -3.36048e-05 0)
(-5.82975e-06 -3.51035e-05 0)
(-5.71924e-06 -3.6593e-05 0)
(-5.60608e-06 -3.8072e-05 0)
(-5.4906e-06 -3.95386e-05 0)
(-5.3731e-06 -4.09915e-05 0)
(-5.25387e-06 -4.24292e-05 0)
(-5.13319e-06 -4.38504e-05 0)
(-5.01136e-06 -4.52536e-05 0)
(-4.88866e-06 -4.66377e-05 0)
(-4.76534e-06 -4.80016e-05 0)
(-4.64167e-06 -4.9344e-05 0)
(-4.51786e-06 -5.0664e-05 0)
(-4.39418e-06 -5.19609e-05 0)
(-4.27084e-06 -5.32336e-05 0)
(4.26459e-06 -5.32341e-05 0)
(4.38808e-06 -5.19614e-05 0)
(4.51191e-06 -5.06646e-05 0)
(4.63587e-06 -4.93446e-05 0)
(4.7597e-06 -4.80021e-05 0)
(4.88319e-06 -4.66383e-05 0)
(5.00605e-06 -4.52541e-05 0)
(5.12804e-06 -4.3851e-05 0)
(5.24888e-06 -4.24298e-05 0)
(5.36828e-06 -4.09921e-05 0)
(5.48596e-06 -3.95392e-05 0)
(5.60161e-06 -3.80726e-05 0)
(5.71494e-06 -3.65937e-05 0)
(5.82562e-06 -3.51042e-05 0)
(5.93337e-06 -3.36055e-05 0)
(6.03786e-06 -3.20994e-05 0)
(6.13877e-06 -3.05876e-05 0)
(6.23582e-06 -2.90716e-05 0)
(6.3287e-06 -2.75534e-05 0)
(6.41709e-06 -2.60345e-05 0)
(6.50074e-06 -2.45169e-05 0)
(6.57933e-06 -2.30022e-05 0)
(6.65263e-06 -2.1492e-05 0)
(6.72037e-06 -1.9988e-05 0)
(6.7823e-06 -1.84921e-05 0)
(6.83824e-06 -1.70059e-05 0)
(6.88795e-06 -1.55308e-05 0)
(6.93128e-06 -1.40687e-05 0)
(6.96806e-06 -1.26207e-05 0)
(6.99816e-06 -1.11885e-05 0)
(7.02146e-06 -9.77337e-06 0)
(7.03788e-06 -8.37664e-06 0)
(7.04735e-06 -6.99966e-06 0)
(7.04983e-06 -5.64346e-06 0)
(7.04532e-06 -4.30911e-06 0)
(7.03381e-06 -2.99767e-06 0)
(7.01534e-06 -1.71008e-06 0)
(6.98997e-06 -4.47151e-07 0)
(6.95775e-06 7.90402e-07 0)
(6.91881e-06 2.002e-06 0)
(6.87323e-06 3.1868e-06 0)
(6.82117e-06 4.34448e-06 0)
(6.76273e-06 5.47455e-06 0)
(6.69812e-06 6.57678e-06 0)
(6.62746e-06 7.6507e-06 0)
(6.55097e-06 8.69631e-06 0)
(6.4688e-06 9.71337e-06 0)
(6.38118e-06 1.07019e-05 0)
(6.28826e-06 1.16619e-05 0)
(6.19027e-06 1.25933e-05 0)
(6.08741e-06 1.34963e-05 0)
(5.97984e-06 1.43711e-05 0)
(5.86778e-06 1.5218e-05 0)
(5.75141e-06 1.60371e-05 0)
(5.63091e-06 1.68287e-05 0)
(5.50645e-06 1.75932e-05 0)
(5.37818e-06 1.8331e-05 0)
(5.24624e-06 1.90424e-05 0)
(5.11078e-06 1.97278e-05 0)
(4.97188e-06 2.03878e-05 0)
(4.82972e-06 2.10226e-05 0)
(4.68428e-06 2.16328e-05 0)
(4.53569e-06 2.22188e-05 0)
(4.38398e-06 2.27811e-05 0)
(4.2291e-06 2.33201e-05 0)
(4.07115e-06 2.38362e-05 0)
(3.91e-06 2.43299e-05 0)
(3.74558e-06 2.48015e-05 0)
(3.57784e-06 2.52513e-05 0)
(3.40646e-06 2.56798e-05 0)
(3.23154e-06 2.60871e-05 0)
(3.05247e-06 2.64733e-05 0)
(2.86924e-06 2.68386e-05 0)
(2.6814e-06 2.7183e-05 0)
(2.48866e-06 2.75062e-05 0)
(2.29029e-06 2.78078e-05 0)
(2.08619e-06 2.80874e-05 0)
(1.87533e-06 2.83437e-05 0)
(1.6578e-06 2.85757e-05 0)
(1.43374e-06 2.87823e-05 0)
(1.2014e-06 2.8959e-05 0)
(9.64105e-07 2.91067e-05 0)
(7.21808e-07 2.92203e-05 0)
(4.74553e-07 2.92825e-05 0)
(2.3295e-07 2.9326e-05 0)
(0 0 0)
(0 0 0)
(0 0 0)
(0 0 0)
(0 0 0)
(0 0 0)
(0 0 0)
(0 0 0)
(0 0 0)
(0 0 0)
(0 0 0)
(0 0 0)
(0 0 0)
(0 0 0)
(0 0 0)
(0 0 0)
(0 0 0)
(0 0 0)
(0 0 0)
(0 0 0)
(0 0 0)
(0 0 0)
(0 0 0)
(0 0 0)
(0 0 0)
(0 0 0)
(0 0 0)
(0 0 0)
(0 0 0)
(0 0 0)
(0 0 0)
(0 0 0)
(0 0 0)
(0 0 0)
(0 0 0)
(0 0 0)
(0 0 0)
(0 0 0)
(0 0 0)
(0 0 0)
(0 0 0)
(0 0 0)
(0 0 0)
(0 0 0)
(0 0 0)
(0 0 0)
(0 0 0)
(0 0 0)
(0 0 0)
(0 0 0)
(0 0 0)
(0 0 0)
(0 0 0)
(0 0 0)
(0 0 0)
(0 0 0)
(0 0 0)
(0 0 0)
(0 0 0)
(0 0 0)
(0 0 0)
(0 0 0)
(0 0 0)
(0 0 0)
(0 0 0)
(0 0 0)
(0 0 0)
(0 0 0)
(0 0 0)
(0 0 0)
(0 0 0)
(0 0 0)
(-3.34388e-38 2.04016e-39 0)
(-2.98683e-38 1.62956e-39 0)
(0 0 0)
(0 0 0)
(0 0 0)
(0 0 0)
(0 0 0)
(0 0 0)
(0 0 0)
(0 0 0)
(0 0 0)
(0 0 0)
(0 0 0)
(0 0 0)
(0 0 0)
(0 0 0)
(0 0 0)
(0 0 0)
(2.79022e-32 -3.95987e-32 0)
(0 0 0)
(1.18567e-32 -1.67524e-32 0)
(0 0 0)
(0 0 0)
(0 0 0)
(0 0 0)
(0 0 0)
(0 0 0)
(0 0 0)
(0 0 0)
(0 0 0)
(0 0 0)
(0 0 0)
(0 0 0)
(0 0 0)
(0 0 0)
(0 0 0)
(0 0 0)
(0 0 0)
(0 0 0)
(0 0 0)
(0 0 0)
(0 0 0)
(0 0 0)
(0 0 0)
(0 0 0)
(1.14451e-31 -1.61692e-31 0)
(8.81352e-31 -1.2454e-30 0)
(2.46137e-31 -3.47428e-31 0)
(0 0 0)
(0 0 0)
(0 0 0)
(0 0 0)
(0 0 0)
(0 0 0)
(0 0 0)
(0 0 0)
(0 0 0)
(0 0 0)
(0 0 0)
(0 0 0)
(0 0 0)
(0 0 0)
(0 0 0)
(0 0 0)
(0 0 0)
(0 0 0)
(0 0 0)
(0 0 0)
(0 0 0)
(0 0 0)
(0 0 0)
(0 0 0)
(5.06541e-31 -7.19775e-31 0)
(1.31549e-31 -1.86368e-31 0)
(3.62203e-31 -5.12385e-31 0)
(1.12074e-30 -1.58736e-30 0)
(1.73854e-30 -2.45387e-30 0)
(1.59915e-31 -2.24964e-31 0)
(-6.98193e-37 3.80922e-38 0)
(0 0 0)
(0 0 0)
(0 0 0)
(0 0 0)
(0 0 0)
(0 0 0)
(0 0 0)
(0 0 0)
(0 0 0)
(0 0 0)
(0 0 0)
(0 0 0)
(0 0 0)
(0 0 0)
(0 0 0)
(0 0 0)
(0 0 0)
(0 0 0)
(0 0 0)
(2.75534e-30 -3.92738e-30 0)
(4.82729e-30 -6.83614e-30 0)
(-4.97809e-35 3.19849e-36 0)
(-1.96912e-35 1.40942e-36 0)
(-4.92952e-35 3.7891e-36 0)
(9.53703e-31 -1.34155e-30 0)
(0 0 0)
(0 0 0)
(0 0 0)
(0 0 0)
(0 0 0)
(0 0 0)
(0 0 0)
(0 0 0)
(0 0 0)
(0 0 0)
(0 0 0)
(0 0 0)
(0 0 0)
(0 0 0)
(0 0 0)
(0 0 0)
(0 0 0)
(0 0 0)
(0 0 0)
(0 0 0)
(0 0 0)
(0 0 0)
(0 0 0)
(0 0 0)
(0 0 0)
(0 0 0)
(-2.23164e-34 1.59069e-35 0)
(-1.85053e-34 1.12028e-35 0)
(5.70286e-30 -8.02094e-30 0)
(4.58895e-29 -6.48176e-29 0)
(5.07767e-29 -7.1432e-29 0)
(0 0 0)
(0 0 0)
(-2.49412e-35 1.36075e-36 0)
(0 0 0)
(0 0 0)
(0 0 0)
(0 0 0)
(0 0 0)
(0 0 0)
(0 0 0)
(0 0 0)
(0 0 0)
(0 0 0)
(0 0 0)
(0 0 0)
(0 0 0)
(0 0 0)
(0 0 0)
(0 0 0)
(0 0 0)
(0 0 0)
(0 0 0)
(-2.42939e-35 3.32847e-34 0)
(-4.59403e-37 1.96198e-33 0)
(-1.00501e-34 9.15986e-36 0)
(0 0 0)
(-1.47302e-34 8.03654e-36 0)
(0 0 0)
(0 0 0)
(0 0 0)
(0 0 0)
(0 0 0)
(0 0 0)
(0 0 0)
(0 0 0)
(0 0 0)
(0 0 0)
(0 0 0)
(0 0 0)
(0 0 0)
(0 0 0)
(0 0 0)
(0 0 0)
(0 0 0)
(0 0 0)
(0 0 0)
(9.54468e-30 -1.37741e-29 0)
(7.34745e-29 -1.04962e-28 0)
(9.21391e-29 -1.30923e-28 0)
(2.9813e-29 -4.24759e-29 0)
(1.28681e-28 -1.80225e-28 0)
(8.23455e-34 1.39578e-32 0)
(-9.27764e-34 5.98675e-35 0)
(-5.79064e-34 4.31304e-35 0)
(-2.02619e-33 1.49542e-34 0)
(2.69662e-28 -3.81345e-28 0)
(4.03198e-33 6.23821e-32 0)
(-4.55701e-33 2.58562e-34 0)
(0 0 0)
(0 0 0)
(0 0 0)
(0 0 0)
(0 0 0)
(0 0 0)
(0 0 0)
(0 0 0)
(0 0 0)
(0 0 0)
(0 0 0)
(0 0 0)
(0 0 0)
(0 0 0)
(0 0 0)
(0 0 0)
(0 0 0)
(0 0 0)
(0 0 0)
(0 0 0)
(1.04625e-29 -1.48742e-29 0)
(-2.54166e-34 2.63548e-35 0)
(2.4817e-28 -3.54223e-28 0)
(1.13822e-27 -1.77156e-27 0)
(9.45015e-28 -1.34685e-27 0)
(1.98105e-28 -2.75087e-28 0)
(8.3764e-28 -1.17307e-27 0)
(-6.66075e-32 -1.17661e-33 0)
(0 0 0)
(-1.63622e-32 -1.51413e-35 0)
(0 0 0)
(0 0 0)
(0 0 0)
(0 0 0)
(0 0 0)
(0 0 0)
(0 0 0)
(0 0 0)
(0 0 0)
(-2.64794e-33 5.493e-35 0)
(0 0 0)
(0 0 0)
(0 0 0)
(0 0 0)
(0 0 0)
(0 0 0)
(0 0 0)
(0 0 0)
(0 0 0)
(0 0 0)
(0 0 0)
(0 0 0)
(0 0 0)
(0 0 0)
(0 0 0)
(3.57803e-29 -5.32364e-29 0)
(2.14701e-28 -3.3154e-28 0)
(-7.34042e-32 5.09724e-33 0)
(-1.69785e-32 1.59815e-33 0)
(-2.51752e-32 4.05441e-33 0)
(2.01542e-32 2.87817e-31 0)
(9.97745e-33 2.31925e-31 0)
(3.08246e-33 7.10231e-32 0)
(-1.94285e-32 1.29862e-33 0)
(-1.46939e-32 4.44117e-34 0)
(0 0 0)
(0 0 0)
(0 0 0)
(0 0 0)
(0 0 0)
(0 0 0)
(0 0 0)
(0 0 0)
(0 0 0)
(0 0 0)
(0 0 0)
(0 0 0)
(0 0 0)
(0 0 0)
(0 0 0)
(0 0 0)
(0 0 0)
(0 0 0)
(0 0 0)
(0 0 0)
(0 0 0)
(0 0 0)
(0 0 0)
(2.43844e-34 1.14742e-32 0)
(-3.62097e-33 4.15492e-34 0)
(-4.62903e-33 1.21827e-33 0)
(5.07578e-32 9.44247e-31 0)
(1.86164e-26 -3.01998e-26 0)
(1.96361e-26 -2.99481e-26 0)
(5.1046e-27 -7.89764e-27 0)
(3.58917e-27 -5.09919e-27 0)
(1.12609e-26 -1.55792e-26 0)
(1.0184e-27 -1.36805e-27 0)
(-1.60728e-30 -5.69062e-32 0)
(-3.45613e-31 3.3612e-33 0)
(-7.9178e-31 7.22875e-32 0)
(0 0 0)
(0 0 0)
(0 0 0)
(0 0 0)
(0 0 0)
(0 0 0)
(0 0 0)
(0 0 0)
(0 0 0)
(0 0 0)
(0 0 0)
(0 0 0)
(0 0 0)
(3.83501e-27 -6.2537e-27 0)
(1.04614e-32 3.38249e-31 0)
(2.49427e-33 8.51329e-32 0)
(-1.9831e-33 3.39331e-33 0)
(9.3057e-31 2.25637e-29 0)
(2.29296e-31 7.02114e-30 0)
(1.09485e-30 1.58726e-29 0)
(7.19473e-26 -1.15454e-25 0)
(3.83351e-26 -6.46584e-26 0)
(8.35608e-26 -1.16554e-25 0)
(2.15941e-26 -2.29992e-26 0)
(3.94562e-27 -4.19968e-27 0)
(-2.85932e-30 -3.33771e-31 0)
(0 0 0)
(-1.40655e-31 1.88119e-32 0)
(0 0 0)
(0 0 0)
(0 0 0)
(0 0 0)
(0 0 0)
(0 0 0)
(0 0 0)
(0 0 0)
(0 0 0)
(0 0 0)
(0 0 0)
(0 0 0)
(0 0 0)
(0 0 0)
(0 0 0)
(0 0 0)
(0 0 0)
(0 0 0)
(0 0 0)
(0 0 0)
(0 0 0)
(-1.25712e-32 6.89537e-33 0)
(3.24899e-31 3.61875e-30 0)
(2.57536e-31 4.28286e-30 0)
(7.61245e-28 -8.09268e-28 0)
(8.44819e-32 1.00219e-30 0)
(7.32142e-27 -1.23091e-26 0)
(6.04024e-26 -9.05204e-26 0)
(1.08308e-25 -1.05662e-25 0)
(3.0041e-29 2.69e-28 0)
(6.31756e-30 6.00389e-29 0)
(-7.42831e-29 -1.60958e-29 0)
(-1.25121e-29 -3.31354e-30 0)
(-1.91709e-29 -7.92341e-31 0)
(-1.43737e-31 5.00387e-32 0)
(-8.06181e-31 2.02463e-31 0)
(0 0 0)
(0 0 0)
(0 0 0)
(0 0 0)
(0 0 0)
(0 0 0)
(0 0 0)
(0 0 0)
(0 0 0)
(0 0 0)
(0 0 0)
(0 0 0)
(0 0 0)
(0 0 0)
(0 0 0)
(0 0 0)
(0 0 0)
(0 0 0)
(0 0 0)
(0 0 0)
(0 0 0)
(0 0 0)
(0 0 0)
(-2.2252e-33 1.41457e-32 0)
(-3.05483e-32 1.64069e-32 0)
(1.54703e-30 5.46552e-29 0)
(1.02931e-30 4.9159e-29 0)
(5.27353e-31 2.08131e-29 0)
(4.94644e-30 6.32005e-29 0)
(3.61084e-30 7.14339e-29 0)
(1.901e-25 -3.19198e-25 0)
(2.06837e-25 -3.20593e-25 0)
(6.33902e-25 -1.02914e-24 0)
(4.80449e-25 -8.62679e-25 0)
(3.85917e-24 -5.33846e-24 0)
(3.75702e-24 -3.80646e-24 0)
(7.06418e-25 -6.71934e-25 0)
(-4.60062e-30 1.73863e-30 0)
(-4.02721e-30 2.00438e-31 0)
(0 0 0)
(0 0 0)
(0 0 0)
(0 0 0)
(0 0 0)
(0 0 0)
(0 0 0)
(0 0 0)
(-3.91759e-29 -1.71037e-29 0)
(0 0 0)
(0 0 0)
(0 0 0)
(0 0 0)
(0 0 0)
(0 0 0)
(0 0 0)
(0 0 0)
(0 0 0)
(0 0 0)
(0 0 0)
(0 0 0)
(0 0 0)
(0 0 0)
(0 0 0)
(0 0 0)
(0 0 0)
(0 0 0)
(-5.23132e-33 7.66039e-32 0)
(-1.12284e-32 1.51574e-31 0)
(-3.45574e-33 3.96239e-32 0)
(1.67606e-29 4.82042e-28 0)
(6.7425e-29 2.05368e-27 0)
(3.31609e-29 1.23021e-27 0)
(7.41455e-28 5.97677e-27 0)
(2.27558e-27 8.44154e-27 0)
(4.18099e-27 1.78576e-26 0)
(8.50483e-25 -1.12606e-24 0)
(1.99939e-24 -3.11293e-24 0)
(-3.06972e-31 7.20085e-31 0)
(-3.68395e-30 6.62573e-30 0)
(-9.53003e-28 -2.45251e-28 0)
(-2.15624e-28 8.26252e-29 0)
(-8.86968e-28 5.73422e-28 0)
(-6.74895e-33 3.0561e-32 0)
(-2.25301e-32 1.63432e-31 0)
(-2.14483e-32 8.04435e-32 0)
(0 0 0)
(0 0 0)
(0 0 0)
(0 0 0)
(-2.58848e-28 -1.06862e-28 0)
(-8.62163e-29 -5.00726e-29 0)
(0 0 0)
(0 0 0)
(0 0 0)
(0 0 0)
(0 0 0)
(0 0 0)
(0 0 0)
(0 0 0)
(0 0 0)
(0 0 0)
(0 0 0)
(0 0 0)
(-6.00501e-32 7.07965e-31 0)
(-3.72008e-32 5.42326e-31 0)
(-1.45886e-31 2.29462e-30 0)
(4.29556e-29 1.09458e-27 0)
(4.25603e-28 5.2441e-27 0)
(1.55712e-28 3.90522e-27 0)
(1.33119e-25 1.66097e-25 0)
(1.32895e-26 4.17283e-26 0)
(7.3173e-24 -1.18254e-23 0)
(4.7694e-24 -8.48938e-24 0)
(1.50807e-24 -2.62695e-24 0)
(1.39711e-24 1.67178e-24 0)
(2.3013e-23 -2.79105e-23 0)
(1.03103e-22 -1.2863e-22 0)
(-7.0387e-32 1.9014e-31 0)
(-4.1316e-29 1.32716e-29 0)
(-1.7317e-29 3.04854e-29 0)
(-5.49104e-31 3.90743e-30 0)
(-1.58126e-30 1.2405e-29 0)
(-1.8583e-30 1.19275e-29 0)
(0 0 0)
(0 0 0)
(0 0 0)
(0 0 0)
(0 0 0)
(0 0 0)
(-3.05653e-27 -5.18495e-28 0)
(-3.41973e-27 -1.88155e-27 0)
(-8.70776e-29 -6.18428e-29 0)
(0 0 0)
(0 0 0)
(0 0 0)
(0 0 0)
(0 0 0)
(0 0 0)
(0 0 0)
(0 0 0)
(0 0 0)
(0 0 0)
(0 0 0)
(0 0 0)
(0 0 0)
(0 0 0)
(0 0 0)
(0 0 0)
(7.27309e-29 8.32704e-28 0)
(1.51809e-29 2.51856e-28 0)
(2.30791e-29 2.6996e-28 0)
(1.87384e-26 2.40372e-26 0)
(1.53242e-28 1.35696e-27 0)
(6.00381e-27 6.0599e-26 0)
(2.15229e-27 2.28421e-26 0)
(1.31341e-27 1.34012e-26 0)
(4.57516e-26 1.33035e-25 0)
(2.16812e-23 -3.93763e-23 0)
(4.9349e-23 -1.01016e-22 0)
(7.41422e-23 -1.3481e-22 0)
(-1.14877e-29 2.8115e-29 0)
(-3.00318e-29 5.8058e-29 0)
(-6.35914e-30 1.3567e-29 0)
(-2.04569e-28 -1.60656e-29 0)
(-8.55711e-31 7.69825e-30 0)
(-3.27787e-30 3.08728e-29 0)
(0 0 0)
(0 0 0)
(0 0 0)
(0 0 0)
(0 0 0)
(0 0 0)
(0 0 0)
(0 0 0)
(0 0 0)
(-6.11661e-28 -4.34404e-28 0)
(-6.09665e-28 -3.52491e-28 0)
(0 0 0)
(0 0 0)
(0 0 0)
(0 0 0)
(0 0 0)
(0 0 0)
(0 0 0)
(0 0 0)
(0 0 0)
(-1.07443e-28 2.19013e-27 0)
(-4.3771e-29 2.53538e-27 0)
(-1.38539e-28 6.4975e-27 0)
(1.29482e-28 5.45283e-27 0)
(3.4884e-29 2.06016e-27 0)
(2.97798e-25 6.42164e-24 0)
(9.88239e-26 1.84366e-24 0)
(3.057e-25 4.18787e-24 0)
(2.97988e-27 2.0641e-26 0)
(3.43486e-27 3.41915e-26 0)
(7.18522e-24 8.58542e-24 0)
(9.01014e-26 2.80443e-25 0)
(9.05172e-24 -1.77762e-23 0)
(6.40277e-22 -1.0745e-21 0)
(1.25994e-22 -2.03263e-22 0)
(-7.43251e-29 4.26266e-28 0)
(-2.17974e-28 1.1908e-27 0)
(-2.17247e-28 6.38102e-28 0)
(-1.14602e-28 1.93197e-28 0)
(-3.1896e-28 3.53981e-27 0)
(-7.91933e-29 8.79813e-28 0)
(-1.3844e-28 1.54403e-27 0)
(0 0 0)
(0 0 0)
(0 0 0)
(0 0 0)
(0 0 0)
(0 0 0)
(0 0 0)
(0 0 0)
(-2.39928e-27 -2.01586e-27 0)
(-1.16319e-26 -1.14741e-26 0)
(0 0 0)
(0 0 0)
(0 0 0)
(0 0 0)
(0 0 0)
(0 0 0)
(0 0 0)
(1.02338e-26 2.81773e-24 0)
(1.14244e-27 7.7643e-25 0)
(6.89453e-27 9.43397e-25 0)
(1.29311e-27 1.70228e-26 0)
(6.11211e-27 6.49914e-26 0)
(3.5613e-25 1.36393e-24 0)
(5.25323e-26 2.82409e-25 0)
(7.62074e-26 3.05294e-25 0)
(4.45966e-25 1.24359e-24 0)
(2.61201e-22 -5.13302e-22 0)
(2.2547e-23 -3.47075e-23 0)
(-6.05573e-27 1.05409e-26 0)
(-1.31869e-27 2.40378e-27 0)
(-1.06395e-27 2.498e-27 0)
(-3.98663e-27 6.65577e-27 0)
(-1.58171e-26 2.59753e-26 0)
(-5.89756e-27 9.56429e-27 0)
(-2.08016e-26 -2.80001e-27 0)
(-3.83321e-27 1.46641e-27 0)
(-3.17261e-28 6.0271e-27 0)
(-7.58869e-28 1.35047e-26 0)
(-1.34369e-28 2.13005e-27 0)
(0 0 0)
(0 0 0)
(0 0 0)
(0 0 0)
(0 0 0)
(0 0 0)
(0 0 0)
(0 0 0)
(0 0 0)
(-1.29225e-26 -4.60555e-27 0)
(0 0 0)
(0 0 0)
(0 0 0)
(1.80963e-27 1.23223e-25 0)
(4.01652e-27 1.47914e-25 0)
(6.06578e-27 3.37466e-25 0)
(1.87325e-24 6.95814e-24 0)
(2.40475e-24 6.33182e-24 0)
(8.89524e-21 -1.50642e-20 0)
(1.6856e-21 -2.34944e-21 0)
(2.69353e-21 -5.11969e-21 0)
(1.5405e-22 2.94813e-22 0)
(2.17622e-21 2.91205e-21 0)
(7.25051e-22 1.35571e-21 0)
(1.03438e-22 -2.26224e-22 0)
(9.18333e-22 -1.9236e-21 0)
(-1.05889e-27 6.24906e-27 0)
(-5.99225e-28 3.45411e-27 0)
(-2.71743e-28 1.59824e-27 0)
(-1.25099e-27 7.59952e-27 0)
(-3.30299e-28 1.99459e-27 0)
(0 0 0)
(0 0 0)
(0 0 0)
(0 0 0)
(0 0 0)
(-1.07379e-24 -8.76692e-25 0)
(-2.33067e-25 -2.75074e-25 0)
(-2.8264e-25 -8.65118e-26 0)
(-3.5688e-26 -4.32234e-26 0)
(0 0 0)
(-2.56874e-23 4.59056e-22 0)
(-6.90901e-23 1.17586e-21 0)
(-2.68969e-23 3.34127e-22 0)
(-6.11464e-26 3.47027e-23 0)
(-3.34164e-25 1.41191e-22 0)
(-1.87432e-25 3.75706e-23 0)
(1.96676e-21 1.00672e-20 0)
(7.61253e-21 3.27147e-20 0)
(1.10273e-20 5.34635e-20 0)
(2.30822e-23 4.58335e-23 0)
(3.35397e-22 4.07252e-22 0)
(4.28076e-22 5.79636e-22 0)
(5.02677e-21 -1.13806e-21 0)
(1.43857e-21 -7.33254e-22 0)
(5.94742e-21 6.613e-21 0)
(1.5311e-21 1.79361e-21 0)
(3.18496e-22 -7.07879e-22 0)
(2.29451e-21 -5.1391e-21 0)
(6.62128e-21 -1.38177e-20 0)
(-2.75133e-27 1.05728e-26 0)
(-1.16886e-26 3.32849e-26 0)
(-2.27017e-26 4.7486e-26 0)
(-1.92421e-28 1.11247e-27 0)
(-1.83891e-21 2.15766e-20 0)
(-1.29073e-21 1.49194e-20 0)
(-5.89483e-22 6.87599e-21 0)
(0 0 0)
(0 0 0)
(0 0 0)
(0 0 0)
(-1.22984e-26 -9.24347e-27 0)
(-6.73667e-26 -4.46483e-26 0)
(-1.53639e-25 8.80329e-26 0)
(-5.72936e-26 2.8757e-27 0)
(0 0 0)
(2.72972e-21 5.49893e-20 0)
(5.29706e-21 9.57331e-20 0)
(9.83974e-21 2.16111e-19 0)
(2.40883e-21 2.76674e-20 0)
(4.93274e-21 5.33566e-20 0)
(8.9505e-21 1.00401e-19 0)
(5.42242e-18 7.45125e-18 0)
(1.53055e-18 2.29442e-18 0)
(1.34332e-18 1.84423e-18 0)
(8.795e-21 7.08336e-21 0)
(2.99655e-20 -4.02393e-20 0)
(6.33202e-22 -1.56644e-21 0)
(5.42059e-22 -1.5515e-21 0)
(2.3119e-20 -5.23803e-20 0)
(-3.14143e-25 1.56584e-24 0)
(-5.62799e-25 2.71703e-24 0)
(-1.93443e-25 9.29396e-25 0)
(-1.08535e-23 1.83185e-23 0)
(-2.44068e-24 4.23052e-24 0)
(-2.56042e-24 4.96216e-24 0)
(-1.6151e-24 9.45441e-24 0)
(-4.11122e-24 2.36157e-23 0)
(-1.76228e-24 1.00737e-23 0)
(-7.10226e-22 1.72095e-19 0)
(-1.29334e-21 1.12429e-19 0)
(-3.31075e-22 3.49732e-20 0)
(-7.12525e-25 4.82203e-24 0)
(-3.82662e-25 2.36564e-24 0)
(-1.76187e-25 1.30474e-24 0)
(0 0 0)
(-2.30318e-25 -6.74641e-25 0)
(-3.87111e-25 -7.16769e-25 0)
(-1.62714e-24 -3.27172e-24 0)
(-9.78538e-24 -6.24328e-24 0)
(-2.44625e-23 -4.33327e-23 0)
(-7.00659e-24 -1.46254e-23 0)
(0 0 0)
(0 0 0)
(-2.03601e-19 1.54224e-17 0)
(-5.33724e-20 4.57064e-18 0)
(-1.33972e-19 2.14937e-17 0)
(1.79995e-16 1.50122e-15 0)
(7.59962e-17 5.99351e-16 0)
(4.27817e-16 3.16651e-15 0)
(6.9758e-18 2.01845e-17 0)
(3.85189e-18 1.19626e-17 0)
(2.11329e-18 6.24819e-18 0)
(4.67348e-16 1.89835e-15 0)
(2.81522e-16 1.12875e-15 0)
(2.38523e-15 9.2041e-15 0)
(3.36005e-19 -9.28149e-19 0)
(1.26617e-19 -2.76332e-19 0)
(1.14343e-19 -3.38648e-19 0)
(1.28635e-19 -1.46205e-19 0)
(7.54848e-20 4.12614e-20 0)
(2.1959e-20 1.25661e-20 0)
(4.04218e-21 -1.04747e-20 0)
(1.20556e-21 -3.61674e-21 0)
(8.43055e-21 -2.42313e-20 0)
(-1.51141e-21 2.40404e-21 0)
(-9.59889e-22 1.74954e-21 0)
(-3.00432e-21 5.10581e-21 0)
(-7.98586e-24 1.23077e-23 0)
(-1.26837e-18 1.40404e-17 0)
(-2.1059e-18 2.39299e-17 0)
(-4.65892e-18 5.13464e-17 0)
(-4.24745e-19 2.0822e-18 0)
(-1.01485e-18 5.17511e-18 0)
(-1.30071e-18 6.46838e-18 0)
(0 0 0)
(-3.9116e-26 -1.08776e-25 0)
(-3.53388e-24 -4.02631e-24 0)
(0 0 0)
(0 0 0)
(7.57245e-17 1.65699e-15 0)
(3.5467e-16 7.48329e-15 0)
(6.85158e-17 1.75763e-15 0)
(6.03653e-19 3.20824e-18 0)
(2.45157e-18 1.20318e-17 0)
(7.92252e-19 5.03542e-18 0)
(1.37523e-12 1.67836e-11 0)
(3.23196e-13 4.02511e-12 0)
(2.91304e-13 3.42042e-12 0)
(4.84346e-18 8.08826e-18 0)
(2.11258e-17 3.28546e-17 0)
(7.75065e-18 1.3577e-17 0)
(4.38394e-14 1.89501e-14 0)
(1.48783e-13 3.43945e-14 0)
(1.27473e-13 8.28102e-14 0)
(3.21504e-19 6.61943e-20 0)
(1.73526e-18 -9.72044e-19 0)
(1.30203e-18 2.90885e-19 0)
(3.36777e-20 -9.57543e-20 0)
(2.56289e-17 -7.41508e-17 0)
(3.38079e-17 -6.5732e-17 0)
(1.23035e-17 -2.93006e-17 0)
(4.17311e-21 -1.37223e-20 0)
(-2.8728e-25 1.51408e-24 0)
(-1.09408e-24 5.67063e-24 0)
(-8.48634e-25 4.31217e-24 0)
(-1.37402e-23 3.76434e-23 0)
(-3.59157e-23 1.03291e-22 0)
(-8.41368e-23 2.23918e-22 0)
(-5.55854e-22 6.88321e-22 0)
(-5.77954e-22 7.65668e-22 0)
(-1.65222e-21 2.11514e-21 0)
(-5.30083e-21 2.63131e-20 0)
(-1.55055e-21 7.4205e-21 0)
(-7.45543e-22 3.58588e-21 0)
(-1.77632e-16 1.43412e-15 0)
(-8.66607e-17 7.6253e-16 0)
(-2.91234e-16 2.63803e-15 0)
(-1.48141e-25 -7.68754e-25 0)
(0 0 0)
(-1.88752e-24 -5.28981e-24 0)
(-8.98115e-24 -2.70758e-23 0)
(-5.97874e-23 -7.32394e-23 0)
(-8.95883e-23 4.21588e-23 0)
(-1.93637e-22 -3.80569e-22 0)
(0 0 0)
(-1.35999e-15 3.10571e-14 0)
(-3.91416e-16 8.96633e-15 0)
(-7.97812e-16 1.83736e-14 0)
(1.94207e-12 2.67549e-11 0)
(3.47793e-12 5.33375e-11 0)
(1.20659e-12 1.87332e-11 0)
(3.94181e-08 1.85692e-07 0)
(9.62713e-08 4.3967e-07 0)
(1.05539e-07 5.01913e-07 0)
(3.58436e-14 4.20867e-13 0)
(9.18017e-14 9.6518e-13 0)
(8.89993e-14 1.04501e-12 0)
(2.50025e-09 6.1047e-09 0)
(6.65364e-10 1.66936e-09 0)
(1.27342e-09 2.99872e-09 0)
(3.78083e-12 6.47268e-12 0)
(4.2565e-12 6.65918e-12 0)
(8.90866e-12 1.40208e-11 0)
(1.37193e-19 -4.56726e-19 0)
(2.10939e-21 -1.91945e-20 0)
(7.15134e-19 -2.50712e-18 0)
(2.16398e-20 -7.07156e-20 0)
(1.67072e-23 -1.52054e-22 0)
(-4.39557e-20 5.92847e-20 0)
(-1.381e-19 1.92512e-19 0)
(-1.61881e-19 2.07117e-19 0)
(-6.9729e-22 1.05103e-21 0)
(-1.9394e-22 3.04764e-22 0)
(-3.28069e-22 5.73767e-22 0)
(-3.01824e-22 4.27852e-22 0)
(-1.17008e-21 1.61831e-21 0)
(-9.08376e-18 6.2653e-17 0)
(-9.14645e-18 7.13513e-17 0)
(-3.66182e-17 2.85784e-16 0)
(-2.49957e-14 2.98662e-13 0)
(-3.18948e-14 3.84427e-13 0)
(-1.63963e-13 1.97791e-12 0)
(-2.85031e-23 1.33906e-23 0)
(4.80078e-12 6.89746e-10 0)
(-1.01818e-12 2.98846e-10 0)
(-1.78036e-13 1.32687e-10 0)
(3.06868e-10 4.19332e-09 0)
(1.14563e-10 1.69735e-09 0)
(8.97156e-11 1.20387e-09 0)
(1.17678e-10 2.81994e-10 0)
(8.14626e-11 1.78974e-10 0)
(3.00961e-10 6.36198e-10 0)
(8.79239e-12 4.25088e-11 0)
(2.10421e-11 1.01962e-10 0)
(6.28266e-12 3.04434e-11 0)
(5.92149e-09 5.04314e-08 0)
(7.55968e-09 6.87176e-08 0)
(2.71681e-09 2.41966e-08 0)
(7.02911e-11 -1.12716e-10 0)
(1.5839e-10 -3.46808e-10 0)
(2.42916e-10 -4.10519e-10 0)
(2.54762e-12 3.85384e-12 0)
(1.36403e-12 2.20138e-12 0)
(8.4395e-13 1.29509e-12 0)
(6.46241e-21 -5.87911e-20 0)
(2.33627e-20 -2.12523e-19 0)
(1.14108e-20 -1.03731e-19 0)
(9.29175e-23 -8.45683e-22 0)
(3.38552e-22 -3.08094e-21 0)
(3.64313e-18 -1.35562e-17 0)
(1.31749e-13 -4.20196e-13 0)
(3.16446e-14 -1.00559e-13 0)
(7.77652e-14 -2.78432e-13 0)
(-5.69851e-17 1.70208e-16 0)
(-6.04799e-17 1.69052e-16 0)
(-1.26427e-17 3.87858e-17 0)
(-2.16392e-20 2.67465e-20 0)
(-4.4765e-20 5.2326e-20 0)
(-1.09055e-20 1.27128e-20 0)
(-2.01265e-20 2.93776e-20 0)
(-6.13031e-21 9.30606e-21 0)
(-1.26744e-20 2.09042e-20 0)
(-2.15596e-22 2.79568e-22 0)
(-8.00059e-23 1.09132e-22 0)
(-3.88725e-15 1.8463e-14 0)
(-1.03494e-14 5.00011e-14 0)
(-1.28256e-14 6.08621e-14 0)
(-2.20871e-17 2.47352e-16 0)
(-8.66666e-17 9.40202e-16 0)
(-2.72819e-17 2.93433e-16 0)
(-3.76923e-11 3.63433e-10 0)
(-1.63171e-11 1.37448e-10 0)
(-9.86424e-12 9.39299e-11 0)
(-4.97513e-25 -2.58176e-24 0)
(-2.7263e-24 -1.41477e-23 0)
(-2.15293e-22 -7.24827e-22 0)
(-1.33799e-21 -4.998e-21 0)
(-8.54053e-23 -4.43197e-22 0)
(-9.99197e-09 7.78339e-07 0)
(-3.49953e-09 3.93289e-07 0)
(-5.34086e-09 9.0453e-07 0)
(-2.99477e-12 2.57378e-10 0)
(-6.71288e-13 7.34193e-11 0)
(1.0655e-08 3.3953e-07 0)
(3.18797e-08 8.50625e-07 0)
(1.7509e-08 6.69436e-07 0)
(3.72795e-09 6.71667e-08 0)
(1.05193e-09 2.01805e-08 0)
(2.10646e-09 3.68314e-08 0)
(5.95611e-10 1.68918e-09 0)
(1.43188e-10 4.55652e-10 0)
(1.61152e-10 4.65167e-10 0)
(1.43868e-08 7.66692e-08 0)
(3.26819e-08 1.84778e-07 0)
(7.15157e-09 4.01688e-08 0)
(1.53305e-08 1.48215e-07 0)
(4.96684e-08 4.50768e-07 0)
(3.53472e-08 3.60333e-07 0)
(2.22027e-09 1.82533e-08 0)
(9.43523e-10 8.02928e-09 0)
(1.70561e-09 1.30018e-08 0)
(9.95351e-14 -3.54753e-14 0)
(7.30262e-14 -2.25617e-15 0)
(3.29176e-14 -7.52e-15 0)
(1.14669e-10 1.78227e-11 0)
(3.94976e-10 7.77671e-11 0)
(1.57855e-10 6.91696e-11 0)
(8.56394e-20 -7.7935e-19 0)
(1.62813e-20 -1.48247e-19 0)
(3.46262e-20 -3.15548e-19 0)
(9.15768e-22 -8.33504e-21 0)
(2.48904e-22 -2.26591e-21 0)
(4.66078e-18 -4.25096e-17 0)
(2.67265e-18 -2.43126e-17 0)
(9.17702e-19 -8.35939e-18 0)
(1.36584e-12 -1.99364e-12 0)
(1.288e-12 -1.27669e-12 0)
(4.89221e-13 -5.11726e-13 0)
(-9.1888e-16 2.42013e-15 0)
(-7.04722e-16 1.93014e-15 0)
(-3.65461e-15 9.74461e-15 0)
(-3.44982e-16 5.05595e-16 0)
(-8.77877e-17 1.38243e-16 0)
(-1.49921e-16 2.66157e-16 0)
(-1.61415e-20 1.82557e-20 0)
(-4.39533e-20 -1.43468e-19 0)
(-2.81958e-20 -5.45923e-20 0)
(-1.53728e-19 -4.46065e-19 0)
(-5.72385e-13 2.6772e-12 0)
(-1.87696e-12 8.76509e-12 0)
(-4.42874e-13 2.04534e-12 0)
(-7.6705e-11 1.64513e-09 0)
(-9.03971e-12 1.09883e-10 0)
(-4.88443e-12 5.9373e-11 0)
(-5.5826e-09 6.78596e-08 0)
(-1.45494e-09 1.76856e-08 0)
(-4.85903e-09 5.90643e-08 0)
(-2.71208e-23 -9.70851e-23 0)
(-7.38241e-23 -1.98286e-22 0)
(-4.58463e-22 -2.37912e-21 0)
(2.96889e-10 2.77911e-07 0)
(-1.24752e-09 2.07702e-07 0)
(-5.2834e-10 8.47615e-08 0)
(-3.70936e-09 2.59553e-07 0)
(5.49379e-09 2.43867e-07 0)
(3.64277e-09 1.27286e-07 0)
(1.24846e-09 5.36887e-08 0)
(4.3386e-10 2.7443e-08 0)
(3.2298e-10 1.48538e-08 0)
(5.27684e-09 1.39887e-07 0)
(1.36115e-09 2.27555e-08 0)
(5.03239e-09 8.35157e-08 0)
(2.39803e-08 5.88675e-08 0)
(7.93665e-08 1.9547e-07 0)
(4.85711e-08 1.24867e-07 0)
(8.25856e-08 1.91933e-07 0)
(2.2404e-08 5.18882e-08 0)
(4.64049e-08 1.0244e-07 0)
(1.18399e-09 6.15506e-09 0)
(2.18435e-09 1.06666e-08 0)
(2.49178e-09 1.2533e-08 0)
(6.12542e-08 3.14532e-07 0)
(8.70512e-08 4.77374e-07 0)
(3.68869e-08 1.95206e-07 0)
(3.73007e-09 3.66359e-08 0)
(7.25025e-09 7.64583e-08 0)
(1.12901e-08 8.43157e-08 0)
(1.08493e-08 7.88057e-08 0)
(2.90317e-08 2.13417e-07 0)
(5.01886e-11 -4.3879e-11 0)
(1.82992e-10 -1.69377e-10 0)
(1.42129e-10 -1.18661e-10 0)
(5.67775e-08 6.57657e-08 0)
(8.71317e-08 1.11028e-07 0)
(2.56141e-08 3.45372e-08 0)
(2.64734e-07 5.31236e-07 0)
(2.4822e-07 4.56952e-07 0)
(5.49378e-07 1.05749e-06 0)
(3.43031e-20 -3.11766e-19 0)
(1.22099e-19 -1.10995e-18 0)
(2.77057e-21 -2.52243e-20 0)
(1.99395e-21 -1.81655e-20 0)
(3.84428e-18 -3.49131e-17 0)
(2.18145e-18 -1.98067e-17 0)
(1.04884e-18 -9.52486e-18 0)
(1.38821e-16 -7.59574e-16 0)
(8.29916e-18 -7.53529e-17 0)
(1.11055e-15 -1.90587e-15 0)
(4.78733e-16 -1.18118e-15 0)
(1.73263e-15 -5.38593e-15 0)
(-2.78577e-11 6.89579e-11 0)
(-7.74529e-11 1.88131e-10 0)
(-2.28896e-11 5.48502e-11 0)
(-7.87379e-14 1.0648e-13 0)
(-1.80507e-14 2.66062e-14 0)
(-4.23238e-14 6.94298e-14 0)
(-4.36092e-16 1.12796e-15 0)
(-1.56486e-15 4.06674e-15 0)
(-2.09546e-17 -8.26645e-17 0)
(-1.93296e-17 -7.07537e-17 0)
(-6.30114e-17 -2.36738e-16 0)
(-1.85193e-18 1.97121e-18 0)
(-4.51777e-18 4.40638e-18 0)
(-2.99535e-18 6.35987e-19 0)
(-4.57112e-21 -1.89554e-20 0)
(-1.69391e-20 -7.67489e-20 0)
(-2.08326e-21 -1.08108e-20 0)
(-1.41949e-10 6.75369e-10 0)
(-2.91679e-11 1.38545e-10 0)
(-1.18197e-10 5.83048e-10 0)
(-7.40852e-13 2.36115e-12 0)
(-9.46211e-13 3.15989e-12 0)
(-2.85776e-12 9.26167e-12 0)
(-7.3164e-10 5.15758e-09 0)
(-3.70832e-09 2.6616e-08 0)
(-1.10105e-09 7.24245e-09 0)
(-2.33946e-09 5.01634e-08 0)
(-1.27041e-08 2.78986e-07 0)
(-8.00579e-09 1.60868e-07 0)
(-2.29025e-08 4.10691e-07 0)
(-3.45046e-08 7.16899e-07 0)
(-3.02249e-10 3.67401e-09 0)
(-1.0442e-09 1.26928e-08 0)
(-1.54805e-23 -8.03338e-23 0)
(-6.7361e-21 -2.08837e-20 0)
(-2.26385e-20 -8.79579e-20 0)
(-3.79833e-22 -1.97108e-21 0)
(-6.76899e-23 -3.51266e-22 0)
(8.65614e-09 8.73967e-07 0)
(9.09417e-10 8.77143e-07 0)
(-6.87481e-09 4.03911e-07 0)
(3.11342e-09 4.46117e-08 0)
(3.30801e-09 4.22251e-08 0)
(9.78881e-09 1.27959e-07 0)
(6.43817e-08 2.15484e-07 0)
(3.06105e-08 1.06248e-07 0)
(1.74604e-08 5.80919e-08 0)
(3.97733e-08 1.4416e-07 0)
(1.14357e-07 4.17098e-07 0)
(7.37964e-08 2.84599e-07 0)
(4.54987e-07 9.63254e-07 0)
(2.35345e-07 5.30653e-07 0)
(1.48052e-07 3.20835e-07 0)
(1.00328e-08 2.05186e-08 0)
(2.77365e-09 5.90637e-09 0)
(6.90216e-09 1.31563e-08 0)
(1.38105e-09 7.7469e-09 0)
(3.74922e-09 1.9971e-08 0)
(2.73095e-10 3.32353e-09 0)
(8.78869e-10 9.95844e-09 0)
(7.01301e-10 8.68935e-09 0)
(2.97838e-09 2.15435e-08 0)
(7.12672e-10 5.13802e-09 0)
(4.17474e-09 3.00979e-08 0)
(2.58324e-10 -7.43715e-10 0)
(2.752e-10 -7.0508e-10 0)
(9.8796e-11 -2.72822e-10 0)
(2.0047e-09 -5.26922e-11 0)
(4.64243e-10 -4.09097e-12 0)
(1.06893e-09 -2.95817e-10 0)
(2.08087e-07 -1.32979e-07 0)
(6.86619e-08 -3.58657e-08 0)
(7.7267e-08 -5.44409e-08 0)
(4.54999e-08 7.02355e-09 0)
(1.46853e-08 4.8326e-09 0)
(1.16408e-08 2.43995e-09 0)
(1.42749e-07 1.96992e-07 0)
(2.93788e-07 3.56609e-07 0)
(2.7613e-08 4.27943e-08 0)
(5.37991e-08 7.6769e-08 0)
(1.05865e-07 1.84019e-07 0)
(1.82722e-07 2.95624e-07 0)
(3.05974e-07 5.20913e-07 0)
(1.01664e-07 2.04357e-07 0)
(1.028e-22 -1.5443e-21 0)
(5.19083e-21 -4.73054e-20 0)
(3.7166e-22 -3.38593e-21 0)