/*--------------------------------*- C++ -*----------------------------------*\
| =========                 |                                                 |
| \\      /  F ield         | OpenFOAM: The Open Source CFD Toolbox           |
|  \\    /   O peration     | Version:  v2012                                 |
|   \\  /    A nd           | Website:  www.openfoam.com                      |
|    \\/     M anipulation  |                                                 |
\*---------------------------------------------------------------------------*/
FoamFile
{
    version     2.0;
    format      ascii;
    class       volScalarField;
    location    "1";
    object      rAU;
}
// * * * * * * * * * * * * * * * * * * * * * * * * * * * * * * * * * * * * * //

dimensions      [-1 3 1 0 0 0 0];


internalField   nonuniform List<scalar> 
13611
(
1.63667e-07
1.6131e-07
1.62379e-07
1.62215e-07
1.62226e-07
1.63665e-07
1.62531e-07
1.63152e-07
1.63658e-07
1.61856e-07
1.63266e-07
1.62942e-07
1.60701e-07
1.6318e-07
1.63247e-07
1.61319e-07
1.63238e-07
1.63666e-07
1.63021e-07
1.63638e-07
1.6284e-07
1.61014e-07
1.63666e-07
1.63239e-07
1.61306e-07
1.63221e-07
1.63536e-07
1.62443e-07
1.63615e-07
1.62838e-07
1.62111e-07
1.62991e-07
1.62878e-07
1.61228e-07
1.63134e-07
1.63203e-07
1.63515e-07
1.63668e-07
1.6246e-07
1.63328e-07
1.62689e-07
1.61291e-07
1.60115e-07
1.62789e-07
1.63067e-07
1.63655e-07
1.61228e-07
1.63123e-07
1.63332e-07
1.62423e-07
1.6322e-07
1.62479e-07
1.63325e-07
1.6278e-07
1.62833e-07
1.63457e-07
1.6026e-07
1.61239e-07
1.61894e-07
1.6316e-07
1.63176e-07
1.63317e-07
1.62489e-07
1.63342e-07
1.63289e-07
1.63674e-07
1.6251e-07
1.63372e-07
1.62803e-07
1.62823e-07
1.63639e-07
1.61936e-07
1.61844e-07
1.63167e-07
1.63655e-07
1.63173e-07
1.63311e-07
1.62487e-07
1.61836e-07
1.61444e-07
1.6344e-07
1.62861e-07
1.63375e-07
1.62763e-07
1.62848e-07
1.61353e-07
1.61138e-07
1.63508e-07
1.62775e-07
1.61685e-07
1.62905e-07
1.6315e-07
1.63722e-07
1.62622e-07
1.61635e-07
1.60673e-07
1.62322e-07
1.63505e-07
1.63672e-07
1.62884e-07
1.60716e-07
1.62928e-07
1.62928e-07
1.61806e-07
1.60491e-07
1.59929e-07
1.63432e-07
1.62789e-07
1.61841e-07
1.62806e-07
1.63674e-07
1.63258e-07
1.63606e-07
1.6232e-07
1.62777e-07
1.60273e-07
1.62148e-07
1.62405e-07
1.63268e-07
1.63211e-07
1.60867e-07
1.61099e-07
1.62702e-07
1.61651e-07
1.61167e-07
1.621e-07
1.6196e-07
1.63624e-07
1.63348e-07
1.621e-07
1.61039e-07
1.62126e-07
1.61691e-07
1.60965e-07
1.62557e-07
1.62734e-07
1.61531e-07
1.63238e-07
1.62404e-07
1.63664e-07
1.6328e-07
1.61192e-07
1.62835e-07
1.62616e-07
1.62206e-07
1.62238e-07
1.623e-07
1.62372e-07
1.63637e-07
1.63158e-07
1.62349e-07
1.6205e-07
1.62116e-07
1.62757e-07
1.62249e-07
1.61471e-07
1.62996e-07
1.61973e-07
1.63046e-07
1.62204e-07
1.62065e-07
1.63306e-07
1.63443e-07
1.60697e-07
1.62798e-07
1.63033e-07
1.62911e-07
1.62814e-07
1.62528e-07
1.62022e-07
1.60977e-07
1.63056e-07
1.61472e-07
1.62513e-07
1.61963e-07
1.62109e-07
1.63639e-07
1.61718e-07
1.61893e-07
1.60647e-07
1.63267e-07
1.62727e-07
1.62282e-07
1.62004e-07
1.63288e-07
1.62232e-07
1.63658e-07
1.63392e-07
1.62589e-07
1.61762e-07
1.63118e-07
1.62354e-07
1.62123e-07
1.62236e-07
1.61837e-07
1.60986e-07
1.63036e-07
1.62621e-07
1.63094e-07
1.621e-07
1.62373e-07
1.618e-07
1.623e-07
1.62424e-07
1.62946e-07
1.62688e-07
1.61146e-07
1.62107e-07
1.63026e-07
1.61363e-07
1.62918e-07
1.61953e-07
1.62116e-07
1.62859e-07
1.63011e-07
1.6129e-07
1.6286e-07
1.622e-07
1.60925e-07
1.62133e-07
1.63304e-07
1.63023e-07
1.63449e-07
1.61864e-07
1.62576e-07
1.62426e-07
1.62376e-07
1.62527e-07
1.63642e-07
1.61375e-07
1.63107e-07
1.62435e-07
1.62477e-07
1.61597e-07
1.62838e-07
1.63225e-07
1.62757e-07
1.61286e-07
1.63629e-07
1.62548e-07
1.62149e-07
1.62117e-07
1.62255e-07
1.62983e-07
1.62912e-07
1.62472e-07
1.62204e-07
1.62461e-07
1.61948e-07
1.63125e-07
1.63165e-07
1.63457e-07
1.62465e-07
1.62522e-07
1.6237e-07
1.62384e-07
1.62268e-07
1.61829e-07
1.62823e-07
1.63044e-07
1.62982e-07
1.63109e-07
1.62304e-07
1.62461e-07
1.62364e-07
1.62202e-07
1.62896e-07
1.63417e-07
1.61062e-07
1.61687e-07
1.60915e-07
1.61767e-07
1.62149e-07
1.61583e-07
1.60941e-07
1.62849e-07
1.60748e-07
1.60872e-07
1.63252e-07
1.62518e-07
1.62882e-07
1.62274e-07
1.6176e-07
1.60951e-07
1.6257e-07
1.61481e-07
1.6313e-07
1.62721e-07
1.62374e-07
1.62015e-07
1.63686e-07
1.60919e-07
1.61859e-07
1.6314e-07
1.63129e-07
1.62327e-07
1.62166e-07
1.62898e-07
1.63474e-07
1.61548e-07
1.62169e-07
1.6203e-07
1.62547e-07
1.62859e-07
1.62064e-07
1.60357e-07
1.61663e-07
1.62794e-07
1.6081e-07
1.63191e-07
1.62952e-07
1.62889e-07
1.62162e-07
1.61924e-07
1.61762e-07
1.6258e-07
1.61707e-07
1.61329e-07
1.62556e-07
1.61578e-07
1.62469e-07
1.62144e-07
1.62325e-07
1.61412e-07
1.62416e-07
1.6224e-07
1.62067e-07
1.6274e-07
1.6364e-07
1.62491e-07
1.62793e-07
1.62148e-07
1.63033e-07
1.62135e-07
1.63647e-07
1.61886e-07
1.61729e-07
1.62809e-07
1.62373e-07
1.62848e-07
1.62398e-07
1.63042e-07
1.62453e-07
1.6227e-07
1.62945e-07
1.62386e-07
1.61725e-07
1.61916e-07
1.61616e-07
1.62584e-07
1.63181e-07
1.61224e-07
1.62221e-07
1.61797e-07
1.63894e-07
1.62304e-07
1.61672e-07
1.63017e-07
1.61095e-07
1.61468e-07
1.62232e-07
1.61405e-07
1.62105e-07
1.6189e-07
1.63637e-07
1.62798e-07
1.62438e-07
1.61874e-07
1.60952e-07
1.63017e-07
1.60336e-07
1.63096e-07
1.62389e-07
1.61267e-07
1.61067e-07
1.62039e-07
1.61577e-07
1.63019e-07
1.61777e-07
1.62368e-07
1.62456e-07
1.62331e-07
1.61861e-07
1.62438e-07
1.62158e-07
1.62063e-07
1.60813e-07
1.62643e-07
1.63304e-07
1.60988e-07
1.61725e-07
1.63922e-07
1.61639e-07
1.62309e-07
1.62401e-07
1.63616e-07
1.62488e-07
1.62452e-07
1.62531e-07
1.62341e-07
1.61681e-07
1.62216e-07
1.62143e-07
1.62665e-07
1.6257e-07
1.62838e-07
1.60578e-07
1.61865e-07
1.61878e-07
1.63013e-07
1.63638e-07
1.62146e-07
1.62364e-07
1.62723e-07
1.62184e-07
1.60875e-07
1.61346e-07
1.61947e-07
1.61987e-07
1.61592e-07
1.61011e-07
1.62158e-07
1.61855e-07
1.60552e-07
1.62118e-07
1.61865e-07
1.62073e-07
1.62711e-07
1.62598e-07
1.62883e-07
1.62609e-07
1.62162e-07
1.62174e-07
1.62732e-07
1.63738e-07
1.61219e-07
1.62379e-07
1.62516e-07
1.62935e-07
1.62765e-07
1.62058e-07
1.63085e-07
1.62732e-07
1.62791e-07
1.62442e-07
1.62408e-07
1.61326e-07
1.6134e-07
1.61112e-07
1.63015e-07
1.62594e-07
1.6254e-07
1.62796e-07
1.6228e-07
1.62203e-07
1.62035e-07
1.61202e-07
1.62117e-07
1.62114e-07
1.62406e-07
1.617e-07
1.62035e-07
1.62022e-07
1.62818e-07
1.623e-07
1.62865e-07
1.61332e-07
1.62213e-07
1.61635e-07
1.62545e-07
1.62579e-07
1.62049e-07
1.62737e-07
1.62001e-07
1.62437e-07
1.63024e-07
1.62246e-07
1.62685e-07
1.62571e-07
1.62555e-07
1.61345e-07
1.62552e-07
1.62495e-07
1.62928e-07
1.61566e-07
1.60337e-07
1.63165e-07
1.63642e-07
1.62576e-07
1.62459e-07
1.63445e-07
1.63978e-07
1.62293e-07
1.62868e-07
1.62085e-07
1.61675e-07
1.62069e-07
1.62238e-07
1.62352e-07
1.62144e-07
1.62251e-07
1.62356e-07
1.61382e-07
1.62835e-07
1.62406e-07
1.62767e-07
1.6235e-07
1.6312e-07
1.62539e-07
1.6243e-07
1.61679e-07
1.61151e-07
1.61239e-07
1.62722e-07
1.62403e-07
1.63027e-07
1.60978e-07
1.61837e-07
1.62327e-07
1.62982e-07
1.61381e-07
1.62506e-07
1.63279e-07
1.62578e-07
1.62777e-07
1.6248e-07
1.62723e-07
1.61723e-07
1.61737e-07
1.63313e-07
1.63343e-07
1.62178e-07
1.63426e-07
1.63973e-07
1.6202e-07
1.62404e-07
1.61277e-07
1.61661e-07
1.62696e-07
1.62398e-07
1.62166e-07
1.62148e-07
1.62192e-07
1.63259e-07
1.62685e-07
1.62204e-07
1.62594e-07
1.63328e-07
1.62306e-07
1.62296e-07
1.61126e-07
1.62624e-07
1.61635e-07
1.61097e-07
1.61239e-07
1.61549e-07
1.62074e-07
1.62086e-07
1.63175e-07
1.61959e-07
1.62751e-07
1.62013e-07
1.62166e-07
1.61589e-07
1.623e-07
1.62281e-07
1.61196e-07
1.61561e-07
1.61147e-07
1.63637e-07
1.63312e-07
1.62996e-07
1.62934e-07
1.6143e-07
1.61269e-07
1.62793e-07
1.62184e-07
1.6116e-07
1.62446e-07
1.62771e-07
1.61025e-07
1.6303e-07
1.62691e-07
1.62304e-07
1.62086e-07
1.62072e-07
1.63053e-07
1.62213e-07
1.6159e-07
1.61799e-07
1.62268e-07
1.62375e-07
1.62207e-07
1.62591e-07
1.62739e-07
1.61646e-07
1.63646e-07
1.61613e-07
1.59425e-07
1.61433e-07
1.60948e-07
1.6203e-07
1.6115e-07
1.62493e-07
1.62218e-07
1.62105e-07
1.61917e-07
1.62345e-07
1.61718e-07
1.61116e-07
1.61328e-07
1.62814e-07
1.61792e-07
1.63271e-07
1.6274e-07
1.6231e-07
1.62427e-07
1.61616e-07
1.63499e-07
1.61825e-07
1.63061e-07
1.62977e-07
1.61431e-07
1.61993e-07
1.62657e-07
1.62118e-07
1.62388e-07
1.62659e-07
1.6322e-07
1.62475e-07
1.62687e-07
1.62427e-07
1.62226e-07
1.61676e-07
1.62411e-07
1.61077e-07
1.62158e-07
1.61735e-07
1.61736e-07
1.62176e-07
1.61787e-07
1.62189e-07
1.62512e-07
1.6193e-07
1.62784e-07
1.62263e-07
1.61069e-07
1.61392e-07
1.59317e-07
1.59297e-07
1.60741e-07
1.60114e-07
1.60786e-07
1.60379e-07
1.61254e-07
1.62046e-07
1.6097e-07
1.62151e-07
1.63096e-07
1.6291e-07
1.62894e-07
1.60616e-07
1.62874e-07
1.61981e-07
1.62195e-07
1.617e-07
1.62219e-07
1.63633e-07
1.63511e-07
1.63037e-07
1.6214e-07
1.62437e-07
1.62486e-07
1.63107e-07
1.60671e-07
1.63096e-07
1.63193e-07
1.62524e-07
1.6282e-07
1.62301e-07
1.62261e-07
1.62342e-07
1.61997e-07
1.61334e-07
1.62097e-07
1.61597e-07
1.6205e-07
1.62944e-07
1.60843e-07
1.61417e-07
1.61519e-07
1.62446e-07
1.62306e-07
1.61803e-07
1.61867e-07
1.63693e-07
1.61603e-07
1.61318e-07
1.60396e-07
1.60553e-07
1.61662e-07
1.60103e-07
1.59673e-07
1.61457e-07
1.61108e-07
1.61072e-07
1.61438e-07
1.61993e-07
1.61371e-07
1.61915e-07
1.62423e-07
1.6208e-07
1.63151e-07
1.62318e-07
1.60943e-07
1.62966e-07
1.63231e-07
1.618e-07
1.62453e-07
1.62478e-07
1.62188e-07
1.63464e-07
1.60852e-07
1.63238e-07
1.61377e-07
1.62923e-07
1.62706e-07
1.6264e-07
1.6239e-07
1.62185e-07
1.62302e-07
1.62441e-07
1.62302e-07
1.62308e-07
1.61314e-07
1.61959e-07
1.62572e-07
1.62207e-07
1.61444e-07
1.61017e-07
1.61386e-07
1.62681e-07
1.60897e-07
1.62691e-07
1.62145e-07
1.632e-07
1.60823e-07
1.60657e-07
1.60654e-07
1.61197e-07
1.60107e-07
1.61208e-07
1.61901e-07
1.60089e-07
1.6038e-07
1.6153e-07
1.62366e-07
1.62304e-07
1.62569e-07
1.62765e-07
1.624e-07
1.62841e-07
1.62119e-07
1.63265e-07
1.62429e-07
1.62019e-07
1.63018e-07
1.63149e-07
1.62293e-07
1.63611e-07
1.62537e-07
1.60979e-07
1.62538e-07
1.62479e-07
1.63124e-07
1.62692e-07
1.63134e-07
1.62158e-07
1.63023e-07
1.61909e-07
1.61035e-07
1.61728e-07
1.6243e-07
1.62988e-07
1.61578e-07
1.62155e-07
1.62295e-07
1.62645e-07
1.63214e-07
1.62337e-07
1.62134e-07
1.63005e-07
1.63004e-07
1.60087e-07
1.61399e-07
1.63117e-07
1.61923e-07
1.62225e-07
1.6039e-07
1.62684e-07
1.62176e-07
1.63713e-07
1.61121e-07
1.60714e-07
1.60033e-07
1.5989e-07
1.59417e-07
1.6219e-07
1.61343e-07
1.59974e-07
1.58525e-07
1.60872e-07
1.613e-07
1.62273e-07
1.62159e-07
1.61325e-07
1.62132e-07
1.63171e-07
1.62065e-07
1.6161e-07
1.62051e-07
1.61809e-07
1.62788e-07
1.62506e-07
1.6152e-07
1.62269e-07
1.62164e-07
1.62005e-07
1.62446e-07
1.62609e-07
1.62739e-07
1.62875e-07
1.61838e-07
1.62947e-07
1.62714e-07
1.62023e-07
1.6188e-07
1.63158e-07
1.63219e-07
1.62261e-07
1.62746e-07
1.62674e-07
1.62385e-07
1.63164e-07
1.63012e-07
1.62038e-07
1.6301e-07
1.62742e-07
1.58807e-07
1.60722e-07
1.58487e-07
1.6149e-07
1.6206e-07
1.59573e-07
1.59871e-07
1.60671e-07
1.63134e-07
1.60855e-07
1.59008e-07
1.59128e-07
1.60133e-07
1.58083e-07
1.59368e-07
1.59669e-07
1.62092e-07
1.58894e-07
1.5993e-07
1.59482e-07
1.60534e-07
1.62015e-07
1.62695e-07
1.62612e-07
1.62592e-07
1.62454e-07
1.63145e-07
1.61783e-07
1.61209e-07
1.63115e-07
1.62384e-07
1.62719e-07
1.62468e-07
1.62242e-07
1.61713e-07
1.61848e-07
1.6298e-07
1.62404e-07
1.6286e-07
1.60134e-07
1.6124e-07
1.61428e-07
1.62746e-07
1.62924e-07
1.62479e-07
1.62102e-07
1.6266e-07
1.62342e-07
1.62378e-07
1.62453e-07
1.61903e-07
1.61414e-07
1.61411e-07
1.6068e-07
1.62829e-07
1.60619e-07
1.60603e-07
1.63321e-07
1.59013e-07
1.60167e-07
1.60095e-07
1.63254e-07
1.62376e-07
1.59808e-07
1.61595e-07
1.59612e-07
1.6289e-07
1.6289e-07
1.62747e-07
1.60137e-07
1.59149e-07
1.58336e-07
1.58447e-07
1.59909e-07
1.56991e-07
1.57673e-07
1.58611e-07
1.59807e-07
1.5939e-07
1.60332e-07
1.59985e-07
1.62272e-07
1.61898e-07
1.62834e-07
1.62493e-07
1.62421e-07
1.61822e-07
1.61123e-07
1.61775e-07
1.62751e-07
1.62838e-07
1.62711e-07
1.6238e-07
1.62622e-07
1.59131e-07
1.63037e-07
1.63042e-07
1.62317e-07
1.62135e-07
1.62651e-07
1.61923e-07
1.61983e-07
1.62902e-07
1.60792e-07
1.61705e-07
1.62576e-07
1.61566e-07
1.6228e-07
1.62513e-07
1.61553e-07
1.63559e-07
1.62483e-07
1.63343e-07
1.62194e-07
1.62788e-07
1.63425e-07
1.6069e-07
1.6209e-07
1.61753e-07
1.6297e-07
1.59396e-07
1.60081e-07
1.60302e-07
1.62448e-07
1.62488e-07
1.5776e-07
1.58519e-07
1.59294e-07
1.62466e-07
1.62663e-07
1.63692e-07
1.56894e-07
1.58119e-07
1.57899e-07
1.57712e-07
1.58144e-07
1.57204e-07
1.59262e-07
1.58549e-07
1.58881e-07
1.57734e-07
1.59148e-07
1.60682e-07
1.59962e-07
1.63089e-07
1.61984e-07
1.62576e-07
1.62468e-07
1.62043e-07
1.61978e-07
1.62065e-07
1.62089e-07
1.62969e-07
1.62276e-07
1.62769e-07
1.58967e-07
1.6316e-07
1.61062e-07
1.61071e-07
1.62506e-07
1.61738e-07
1.60032e-07
1.62621e-07
1.62345e-07
1.62625e-07
1.62569e-07
1.60549e-07
1.63232e-07
1.62315e-07
1.62247e-07
1.62491e-07
1.63529e-07
1.63062e-07
1.63367e-07
1.61069e-07
1.63362e-07
1.62958e-07
1.6206e-07
1.62998e-07
1.62349e-07
1.63418e-07
1.59346e-07
1.57597e-07
1.58433e-07
1.61079e-07
1.6095e-07
1.5989e-07
1.58791e-07
1.59372e-07
1.59151e-07
1.61876e-07
1.61897e-07
1.62797e-07
1.6229e-07
1.57377e-07
1.57641e-07
1.57883e-07
1.5825e-07
1.57655e-07
1.5923e-07
1.57181e-07
1.57103e-07
1.59838e-07
1.58639e-07
1.60285e-07
1.58516e-07
1.6023e-07
1.60794e-07
1.63313e-07
1.6283e-07
1.63242e-07
1.6299e-07
1.63056e-07
1.62489e-07
1.63025e-07
1.61808e-07
1.63729e-07
1.63807e-07
1.6149e-07
1.6347e-07
1.61853e-07
1.62543e-07
1.62744e-07
1.61648e-07
1.58461e-07
1.61233e-07
1.62587e-07
1.62993e-07
1.62364e-07
1.62668e-07
1.63093e-07
1.63394e-07
1.62609e-07
1.6275e-07
1.62221e-07
1.62066e-07
1.61951e-07
1.62154e-07
1.62914e-07
1.61674e-07
1.61808e-07
1.62976e-07
1.63211e-07
1.62553e-07
1.63647e-07
1.55917e-07
1.58954e-07
1.58362e-07
1.58189e-07
1.62219e-07
1.59561e-07
1.59253e-07
1.59276e-07
1.58334e-07
1.56945e-07
1.62515e-07
1.61274e-07
1.62756e-07
1.62823e-07
1.63699e-07
1.57142e-07
1.55386e-07
1.5819e-07
1.56989e-07
1.56412e-07
1.5802e-07
1.57687e-07
1.56479e-07
1.57023e-07
1.57922e-07
1.5823e-07
1.59885e-07
1.56334e-07
1.6017e-07
1.60132e-07
1.62698e-07
1.63234e-07
1.62814e-07
1.62398e-07
1.62497e-07
1.63267e-07
1.62524e-07
1.63076e-07
1.61641e-07
1.62661e-07
1.63283e-07
1.61292e-07
1.63179e-07
1.62903e-07
1.63201e-07
1.6122e-07
1.60046e-07
1.6161e-07
1.60807e-07
1.62849e-07
1.62595e-07
1.61273e-07
1.62579e-07
1.61121e-07
1.6264e-07
1.62481e-07
1.6243e-07
1.62743e-07
1.62097e-07
1.61024e-07
1.61702e-07
1.62709e-07
1.62582e-07
1.63533e-07
1.62044e-07
1.62456e-07
1.62919e-07
1.61763e-07
1.56852e-07
1.57327e-07
1.56545e-07
1.56522e-07
1.61984e-07
1.62661e-07
1.5945e-07
1.58707e-07
1.5854e-07
1.58384e-07
1.5808e-07
1.61417e-07
1.61712e-07
1.63114e-07
1.62723e-07
1.56954e-07
1.54165e-07
1.57208e-07
1.56679e-07
1.57713e-07
1.5664e-07
1.54945e-07
1.56173e-07
1.58034e-07
1.57511e-07
1.58084e-07
1.60425e-07
1.56434e-07
1.59871e-07
1.6259e-07
1.62529e-07
1.63114e-07
1.61583e-07
1.62478e-07
1.62203e-07
1.61507e-07
1.62446e-07
1.62819e-07
1.62973e-07
1.62411e-07
1.63055e-07
1.62915e-07
1.63132e-07
1.59724e-07
1.5966e-07
1.61494e-07
1.60504e-07
1.62898e-07
1.62475e-07
1.6233e-07
1.6099e-07
1.6282e-07
1.61239e-07
1.61151e-07
1.62191e-07
1.62787e-07
1.62823e-07
1.63027e-07
1.63104e-07
1.62636e-07
1.63248e-07
1.63504e-07
1.6275e-07
1.62428e-07
1.61317e-07
1.63086e-07
1.62119e-07
1.56699e-07
1.57635e-07
1.56783e-07
1.54331e-07
1.58342e-07
1.61993e-07
1.57031e-07
1.59341e-07
1.57908e-07
1.56437e-07
1.57177e-07
1.61732e-07
1.62609e-07
1.62711e-07
1.63693e-07
1.54802e-07
1.57829e-07
1.53677e-07
1.53892e-07
1.55135e-07
1.56622e-07
1.55716e-07
1.58325e-07
1.57e-07
1.5711e-07
1.58211e-07
1.56865e-07
1.57669e-07
1.60464e-07
1.56617e-07
1.59869e-07
1.62406e-07
1.61399e-07
1.62545e-07
1.63115e-07
1.60723e-07
1.61337e-07
1.63033e-07
1.62233e-07
1.63272e-07
1.62639e-07
1.63183e-07
1.62375e-07
1.62552e-07
1.63106e-07
1.61281e-07
1.6282e-07
1.61785e-07
1.60035e-07
1.62531e-07
1.60019e-07
1.63083e-07
1.63037e-07
1.6283e-07
1.6319e-07
1.62209e-07
1.61517e-07
1.62875e-07
1.62819e-07
1.62804e-07
1.6294e-07
1.62975e-07
1.62646e-07
1.62886e-07
1.63055e-07
1.61324e-07
1.62709e-07
1.6238e-07
1.62481e-07
1.62462e-07
1.62514e-07
1.56298e-07
1.55219e-07
1.56292e-07
1.56706e-07
1.55074e-07
1.58003e-07
1.57137e-07
1.62267e-07
1.61666e-07
1.58945e-07
1.57434e-07
1.5308e-07
1.56541e-07
1.55809e-07
1.6219e-07
1.6285e-07
1.62238e-07
1.62261e-07
1.55697e-07
1.5764e-07
1.55446e-07
1.55283e-07
1.54447e-07
1.54941e-07
1.55418e-07
1.58281e-07
1.55963e-07
1.55272e-07
1.57705e-07
1.55899e-07
1.55815e-07
1.58308e-07
1.58176e-07
1.59797e-07
1.60868e-07
1.62374e-07
1.63546e-07
1.59294e-07
1.62016e-07
1.62625e-07
1.62991e-07
1.63204e-07
1.61947e-07
1.62988e-07
1.61243e-07
1.62564e-07
1.62974e-07
1.62465e-07
1.6181e-07
1.62105e-07
1.59955e-07
1.5975e-07
1.60673e-07
1.62608e-07
1.62556e-07
1.61923e-07
1.63041e-07
1.62175e-07
1.61938e-07
1.62633e-07
1.63082e-07
1.61758e-07
1.62198e-07
1.62594e-07
1.63019e-07
1.6283e-07
1.62488e-07
1.63093e-07
1.62202e-07
1.62565e-07
1.62187e-07
1.62954e-07
1.62671e-07
1.62323e-07
1.56052e-07
1.54386e-07
1.53589e-07
1.5619e-07
1.55477e-07
1.57377e-07
1.56947e-07
1.59882e-07
1.58957e-07
1.57915e-07
1.55916e-07
1.54018e-07
1.55029e-07
1.54142e-07
1.62484e-07
1.62767e-07
1.62869e-07
1.61508e-07
1.63669e-07
1.56725e-07
1.54742e-07
1.56761e-07
1.55637e-07
1.51687e-07
1.54046e-07
1.55199e-07
1.56985e-07
1.56213e-07
1.56088e-07
1.5615e-07
1.54213e-07
1.55509e-07
1.59395e-07
1.57873e-07
1.57892e-07
1.61463e-07
1.62481e-07
1.63739e-07
1.62032e-07
1.61271e-07
1.62681e-07
1.63336e-07
1.62017e-07
1.62891e-07
1.62605e-07
1.6183e-07
1.6213e-07
1.62631e-07
1.61651e-07
1.61445e-07
1.6213e-07
1.58277e-07
1.61182e-07
1.61817e-07
1.62109e-07
1.62603e-07
1.63043e-07
1.62867e-07
1.62297e-07
1.6201e-07
1.62422e-07
1.63292e-07
1.62863e-07
1.62391e-07
1.62546e-07
1.63029e-07
1.6287e-07
1.62576e-07
1.61196e-07
1.62202e-07
1.62726e-07
1.62503e-07
1.62581e-07
1.62524e-07
1.62343e-07
1.52778e-07
1.5405e-07
1.53071e-07
1.54458e-07
1.51863e-07
1.55702e-07
1.55883e-07
1.58471e-07
1.57159e-07
1.57287e-07
1.58836e-07
1.5462e-07
1.56446e-07
1.55896e-07
1.5564e-07
1.63067e-07
1.62009e-07
1.62974e-07
1.62114e-07
1.6235e-07
1.54619e-07
1.56825e-07
1.57013e-07
1.55705e-07
1.53641e-07
1.54142e-07
1.55122e-07
1.56066e-07
1.58533e-07
1.55703e-07
1.58589e-07
1.54663e-07
1.58244e-07
1.56558e-07
1.58959e-07
1.62165e-07
1.61312e-07
1.62317e-07
1.62037e-07
1.6337e-07
1.61008e-07
1.62657e-07
1.63051e-07
1.61912e-07
1.6182e-07
1.61598e-07
1.60944e-07
1.61518e-07
1.6219e-07
1.61826e-07
1.58203e-07
1.6007e-07
1.59825e-07
1.61771e-07
1.62562e-07
1.63078e-07
1.62831e-07
1.62172e-07
1.61898e-07
1.62279e-07
1.62435e-07
1.62195e-07
1.63185e-07
1.63327e-07
1.62523e-07
1.62736e-07
1.62788e-07
1.62391e-07
1.62551e-07
1.61212e-07
1.63132e-07
1.60773e-07
1.61262e-07
1.62426e-07
1.62589e-07
1.62117e-07
1.5588e-07
1.53584e-07
1.54685e-07
1.52358e-07
1.52718e-07
1.53711e-07
1.53505e-07
1.57376e-07
1.55672e-07
1.5841e-07
1.59719e-07
1.57188e-07
1.58423e-07
1.54742e-07
1.51818e-07
1.54764e-07
1.54371e-07
1.5589e-07
1.61264e-07
1.60705e-07
1.62451e-07
1.6191e-07
1.6365e-07
1.52604e-07
1.55547e-07
1.55636e-07
1.5487e-07
1.52777e-07
1.53721e-07
1.54047e-07
1.5544e-07
1.56264e-07
1.54764e-07
1.57645e-07
1.54279e-07
1.56205e-07
1.56642e-07
1.53506e-07
1.59534e-07
1.61073e-07
1.62844e-07
1.62241e-07
1.62915e-07
1.63145e-07
1.62556e-07
1.61985e-07
1.63171e-07
1.62061e-07
1.61258e-07
1.63478e-07
1.61305e-07
1.60394e-07
1.61119e-07
1.60985e-07
1.61081e-07
1.60315e-07
1.62989e-07
1.62802e-07
1.62552e-07
1.61753e-07
1.6194e-07
1.61743e-07
1.62393e-07
1.62307e-07
1.62448e-07
1.6327e-07
1.62458e-07
1.62734e-07
1.62938e-07
1.62496e-07
1.62137e-07
1.63214e-07
1.62729e-07
1.60949e-07
1.62681e-07
1.62952e-07
1.62371e-07
1.62297e-07
1.55988e-07
1.56244e-07
1.55655e-07
1.49898e-07
1.51912e-07
1.50688e-07
1.52397e-07
1.56311e-07
1.52895e-07
1.58842e-07
1.57383e-07
1.59256e-07
1.57799e-07
1.54504e-07
1.53335e-07
1.53631e-07
1.51601e-07
1.5414e-07
1.51343e-07
1.6265e-07
1.62346e-07
1.60478e-07
1.61198e-07
1.62925e-07
1.63404e-07
1.52473e-07
1.56498e-07
1.55735e-07
1.56297e-07
1.53271e-07
1.54203e-07
1.56069e-07
1.5252e-07
1.53905e-07
1.57109e-07
1.54279e-07
1.54568e-07
1.54946e-07
1.55949e-07
1.59162e-07
1.61727e-07
1.61942e-07
1.61108e-07
1.60855e-07
1.62311e-07
1.62756e-07
1.61845e-07
1.62323e-07
1.62685e-07
1.61652e-07
1.63322e-07
1.63458e-07
1.63613e-07
1.59672e-07
1.60403e-07
1.61513e-07
1.58562e-07
1.60818e-07
1.60699e-07
1.62984e-07
1.62758e-07
1.6256e-07
1.61433e-07
1.61502e-07
1.61687e-07
1.60479e-07
1.61339e-07
1.62015e-07
1.62082e-07
1.61821e-07
1.62407e-07
1.62944e-07
1.62427e-07
1.62773e-07
1.62409e-07
1.62673e-07
1.63505e-07
1.6113e-07
1.61938e-07
1.62876e-07
1.63479e-07
1.62488e-07
1.62169e-07
1.56348e-07
1.56087e-07
1.52958e-07
1.51201e-07
1.54838e-07
1.50197e-07
1.53414e-07
1.54269e-07
1.55241e-07
1.5664e-07
1.58521e-07
1.58955e-07
1.53313e-07
1.55091e-07
1.52345e-07
1.53354e-07
1.49271e-07
1.54555e-07
1.55472e-07
1.62691e-07
1.605e-07
1.59427e-07
1.63307e-07
1.61777e-07
1.63627e-07
1.54546e-07
1.52534e-07
1.54362e-07
1.54226e-07
1.53293e-07
1.55465e-07
1.54042e-07
1.56063e-07
1.51529e-07
1.5614e-07
1.57681e-07
1.54521e-07
1.52125e-07
1.56747e-07
1.54772e-07
1.57297e-07
1.61362e-07
1.6198e-07
1.62044e-07
1.62392e-07
1.62284e-07
1.62294e-07
1.62119e-07
1.63161e-07
1.62968e-07
1.6352e-07
1.63069e-07
1.62924e-07
1.63459e-07
1.61885e-07
1.61823e-07
1.60023e-07
1.60246e-07
1.58617e-07
1.59003e-07
1.58635e-07
1.6291e-07
1.62523e-07
1.60256e-07
1.61607e-07
1.617e-07
1.61496e-07
1.61513e-07
1.6201e-07
1.61857e-07
1.61666e-07
1.62403e-07
1.62948e-07
1.62408e-07
1.62796e-07
1.62537e-07
1.62735e-07
1.61624e-07
1.63033e-07
1.64113e-07
1.62991e-07
1.62423e-07
1.62129e-07
1.56369e-07
1.54961e-07
1.5336e-07
1.51506e-07
1.53616e-07
1.54106e-07
1.53076e-07
1.52809e-07
1.54536e-07
1.55477e-07
1.54351e-07
1.55707e-07
1.58135e-07
1.54278e-07
1.55377e-07
1.5116e-07
1.49478e-07
1.55524e-07
1.51012e-07
1.55572e-07
1.54418e-07
1.61477e-07
1.60056e-07
1.60753e-07
1.59335e-07
1.61099e-07
1.61446e-07
1.61909e-07
1.52345e-07
1.54514e-07
1.54403e-07
1.51442e-07
1.51909e-07
1.53822e-07
1.5336e-07
1.53453e-07
1.54153e-07
1.57167e-07
1.57095e-07
1.54123e-07
1.53839e-07
1.54552e-07
1.55144e-07
1.61873e-07
1.62693e-07
1.62388e-07
1.60942e-07
1.62662e-07
1.60978e-07
1.63174e-07
1.6164e-07
1.6308e-07
1.63096e-07
1.62648e-07
1.63079e-07
1.62944e-07
1.637e-07
1.61735e-07
1.6005e-07
1.60186e-07
1.58951e-07
1.51033e-07
1.58089e-07
1.59094e-07
1.62917e-07
1.62476e-07
1.61656e-07
1.62184e-07
1.6212e-07
1.62466e-07
1.62913e-07
1.61164e-07
1.59879e-07
1.60515e-07
1.63154e-07
1.63547e-07
1.62722e-07
1.62488e-07
1.62357e-07
1.62531e-07
1.62178e-07
1.62618e-07
1.64102e-07
1.61935e-07
1.62781e-07
1.62319e-07
1.621e-07
1.52179e-07
1.55239e-07
1.53939e-07
1.52554e-07
1.50796e-07
1.52716e-07
1.5089e-07
1.53439e-07
1.5238e-07
1.55362e-07
1.56126e-07
1.56265e-07
1.53989e-07
1.54761e-07
1.53856e-07
1.49814e-07
1.4967e-07
1.50426e-07
1.48321e-07
1.52457e-07
1.4893e-07
1.61187e-07
1.58732e-07
1.58806e-07
1.56835e-07
1.61274e-07
1.6265e-07
1.61805e-07
1.5116e-07
1.53097e-07
1.52836e-07
1.49964e-07
1.51458e-07
1.4761e-07
1.53996e-07
1.54453e-07
1.5425e-07
1.56033e-07
1.54792e-07
1.54801e-07
1.54396e-07
1.53139e-07
1.57446e-07
1.61292e-07
1.63115e-07
1.61945e-07
1.62984e-07
1.60945e-07
1.61253e-07
1.60905e-07
1.63257e-07
1.62576e-07
1.61557e-07
1.62456e-07
1.62546e-07
1.62624e-07
1.6253e-07
1.63694e-07
1.62233e-07
1.62031e-07
1.62183e-07
1.59748e-07
1.58759e-07
1.57734e-07
1.55323e-07
1.59776e-07
1.5719e-07
1.56744e-07
1.61412e-07
1.61994e-07
1.62927e-07
1.62579e-07
1.63581e-07
1.61562e-07
1.60187e-07
1.63594e-07
1.63137e-07
1.634e-07
1.62728e-07
1.62524e-07
1.63388e-07
1.62899e-07
1.62263e-07
1.62592e-07
1.61828e-07
1.62277e-07
1.62744e-07
1.61585e-07
1.61571e-07
1.51884e-07
1.5041e-07
1.50075e-07
1.53663e-07
1.49388e-07
1.4891e-07
1.52165e-07
1.51749e-07
1.50113e-07
1.52218e-07
1.5134e-07
1.5485e-07
1.55508e-07
1.56371e-07
1.54509e-07
1.54448e-07
1.53622e-07
1.5466e-07
1.49751e-07
1.56274e-07
1.52996e-07
1.48844e-07
1.51765e-07
1.48943e-07
1.50585e-07
1.60427e-07
1.62719e-07
1.58817e-07
1.57901e-07
1.58733e-07
1.5673e-07
1.62436e-07
1.62639e-07
1.61206e-07
1.63611e-07
1.52879e-07
1.54973e-07
1.53056e-07
1.4702e-07
1.51043e-07
1.53667e-07
1.48422e-07
1.53877e-07
1.53048e-07
1.5276e-07
1.53397e-07
1.55243e-07
1.54573e-07
1.52036e-07
1.56434e-07
1.56374e-07
1.63083e-07
1.62378e-07
1.60984e-07
1.62591e-07
1.61948e-07
1.59959e-07
1.63211e-07
1.62482e-07
1.62622e-07
1.62122e-07
1.62524e-07
1.62489e-07
1.62482e-07
1.63287e-07
1.62448e-07
1.61572e-07
1.60211e-07
1.59004e-07
1.51949e-07
1.55453e-07
1.58253e-07
1.51713e-07
1.61865e-07
1.63417e-07
1.63673e-07
1.63639e-07
1.63616e-07
1.63615e-07
1.63628e-07
1.63654e-07
1.62916e-07
1.63137e-07
1.62874e-07
1.61582e-07
1.61194e-07
1.62563e-07
1.62504e-07
1.62539e-07
1.62391e-07
1.63411e-07
1.51485e-07
1.4866e-07
1.50886e-07
1.47205e-07
1.48337e-07
1.52868e-07
1.49151e-07
1.48451e-07
1.46879e-07
1.54892e-07
1.53564e-07
1.53739e-07
1.55938e-07
1.55835e-07
1.54372e-07
1.54508e-07
1.54431e-07
1.56296e-07
1.46612e-07
1.51576e-07
1.51837e-07
1.50007e-07
1.48585e-07
1.60517e-07
1.61883e-07
1.57105e-07
1.58776e-07
1.57513e-07
1.52258e-07
1.61045e-07
1.62615e-07
1.62437e-07
1.53486e-07
1.53576e-07
1.52002e-07
1.50045e-07
1.52113e-07
1.48879e-07
1.50658e-07
1.54646e-07
1.52776e-07
1.54344e-07
1.53257e-07
1.55458e-07
1.52722e-07
1.53719e-07
1.53552e-07
1.565e-07
1.62968e-07
1.62276e-07
1.62456e-07
1.62544e-07
1.62648e-07
1.63136e-07
1.63515e-07
1.63123e-07
1.61912e-07
1.62848e-07
1.61233e-07
1.62145e-07
1.62031e-07
1.63273e-07
1.62828e-07
1.60214e-07
1.59381e-07
1.58569e-07
1.56416e-07
1.56735e-07
1.59404e-07
1.57145e-07
1.5922e-07
1.57338e-07
1.61678e-07
1.63267e-07
1.62219e-07
1.63625e-07
1.6364e-07
1.62743e-07
1.62492e-07
1.62425e-07
1.6243e-07
1.6244e-07
1.62692e-07
1.61821e-07
1.63417e-07
1.51794e-07
1.52851e-07
1.51674e-07
1.48338e-07
1.52137e-07
1.5311e-07
1.49688e-07
1.49432e-07
1.53701e-07
1.52245e-07
1.53532e-07
1.5602e-07
1.54646e-07
1.51814e-07
1.50565e-07
1.50891e-07
1.53319e-07
1.49827e-07
1.5054e-07
1.46991e-07
1.50443e-07
1.49898e-07
1.50313e-07
1.49181e-07
1.60223e-07
1.61586e-07
1.55898e-07
1.54572e-07
1.58892e-07
1.58593e-07
1.51648e-07
1.53173e-07
1.6269e-07
1.62455e-07
1.62897e-07
1.63577e-07
1.52221e-07
1.51744e-07
1.51002e-07
1.52986e-07
1.50819e-07
1.50467e-07
1.51847e-07
1.51792e-07
1.50152e-07
1.49943e-07
1.55059e-07
1.51928e-07
1.51745e-07
1.54888e-07
1.53361e-07
1.62833e-07
1.61295e-07
1.62367e-07
1.63793e-07
1.63155e-07
1.635e-07
1.61874e-07
1.61119e-07
1.62896e-07
1.61987e-07
1.63054e-07
1.62322e-07
1.61817e-07
1.60711e-07
1.62114e-07
1.59066e-07
1.58668e-07
1.51836e-07
1.52748e-07
1.56081e-07
1.52234e-07
1.63638e-07
1.63623e-07
1.6363e-07
1.61425e-07
1.62828e-07
1.62528e-07
1.62465e-07
1.62431e-07
1.62146e-07
1.63138e-07
1.47155e-07
1.515e-07
1.52535e-07
1.48981e-07
1.51171e-07
1.47182e-07
1.46941e-07
1.48425e-07
1.50818e-07
1.49721e-07
1.5394e-07
1.53012e-07
1.52999e-07
1.51934e-07
1.53105e-07
1.51756e-07
1.50372e-07
1.53264e-07
1.51736e-07
1.47558e-07
1.48844e-07
1.50229e-07
1.50556e-07
1.57464e-07
1.58289e-07
1.52227e-07
1.5554e-07
1.56014e-07
1.58496e-07
1.52508e-07
1.53739e-07
1.61986e-07
1.61569e-07
1.61556e-07
1.61552e-07
1.52855e-07
1.50234e-07
1.50525e-07
1.52528e-07
1.505e-07
1.52132e-07
1.52039e-07
1.5076e-07
1.52668e-07
1.5427e-07
1.52749e-07
1.51287e-07
1.51781e-07
1.54305e-07
1.54154e-07
1.55761e-07
1.61586e-07
1.62305e-07
1.63724e-07
1.61639e-07
1.62097e-07
1.60788e-07
1.61262e-07
1.637e-07
1.63668e-07
1.63034e-07
1.61382e-07
1.62915e-07
1.62603e-07
1.59448e-07
1.5963e-07
1.5857e-07
1.572e-07
1.56814e-07
1.53603e-07
1.53552e-07
1.56755e-07
1.62835e-07
1.61781e-07
1.63402e-07
1.63046e-07
1.61947e-07
1.6364e-07
1.49714e-07
1.47613e-07
1.51589e-07
1.486e-07
1.48969e-07
1.45439e-07
1.46831e-07
1.49398e-07
1.51218e-07
1.51377e-07
1.50887e-07
1.51172e-07
1.53952e-07
1.52985e-07
1.52271e-07
1.53046e-07
1.53013e-07
1.51811e-07
1.52209e-07
1.52129e-07
1.49258e-07
1.47632e-07
1.5027e-07
1.507e-07
1.52344e-07
1.49506e-07
1.56762e-07
1.57134e-07
1.58993e-07
1.58906e-07
1.53764e-07
1.55737e-07
1.56316e-07
1.57631e-07
1.53764e-07
1.55969e-07
1.59728e-07
1.6178e-07
1.6184e-07
1.62311e-07
1.63499e-07
1.5312e-07
1.48161e-07
1.51803e-07
1.48449e-07
1.46296e-07
1.48159e-07
1.5307e-07
1.49087e-07
1.47826e-07
1.47697e-07
1.52352e-07
1.47891e-07
1.5054e-07
1.52308e-07
1.62003e-07
1.62135e-07
1.62367e-07
1.62038e-07
1.6178e-07
1.61151e-07
1.63124e-07
1.63676e-07
1.62996e-07
1.6211e-07
1.63492e-07
1.62306e-07
1.59494e-07
1.59583e-07
1.58251e-07
1.56376e-07
1.52884e-07
1.57438e-07
1.56325e-07
1.54971e-07
1.57408e-07
1.62292e-07
1.61479e-07
1.63633e-07
1.63613e-07
1.60974e-07
1.60286e-07
1.48447e-07
1.47089e-07
1.50727e-07
1.49768e-07
1.44363e-07
1.48195e-07
1.50953e-07
1.46277e-07
1.50437e-07
1.5244e-07
1.52258e-07
1.52134e-07
1.53803e-07
1.51466e-07
1.51487e-07
1.5214e-07
1.52055e-07
1.51547e-07
1.48437e-07
1.47407e-07
1.50203e-07
1.4935e-07
1.55368e-07
1.58563e-07
1.59223e-07
1.57908e-07
1.54037e-07
1.55064e-07
1.55738e-07
1.58012e-07
1.55205e-07
1.55463e-07
1.60609e-07
1.6151e-07
1.61211e-07
1.60714e-07
1.59976e-07
1.60351e-07
1.49931e-07
1.47062e-07
1.43646e-07
1.50472e-07
1.50314e-07
1.49224e-07
1.45007e-07
1.51908e-07
1.50847e-07
1.50852e-07
1.52905e-07
1.51013e-07
1.5362e-07
1.50479e-07
1.51072e-07
1.51159e-07
1.56102e-07
1.61867e-07
1.60982e-07
1.62354e-07
1.63713e-07
1.6369e-07
1.62204e-07
1.62164e-07
1.62231e-07
1.63067e-07
1.61397e-07
1.58305e-07
1.59334e-07
1.60861e-07
1.57178e-07
1.56319e-07
1.51324e-07
1.56359e-07
1.56243e-07
1.55972e-07
1.5609e-07
1.61193e-07
1.61241e-07
1.62336e-07
1.63627e-07
1.60364e-07
1.5276e-07
1.41721e-07
1.44148e-07
1.47011e-07
1.48566e-07
1.51134e-07
1.45737e-07
1.50207e-07
1.48077e-07