/*--------------------------------*- C++ -*----------------------------------*\
| =========                 |                                                 |
| \\      /  F ield         | OpenFOAM: The Open Source CFD Toolbox           |
|  \\    /   O peration     | Version:  v2012                                 |
|   \\  /    A nd           | Website:  www.openfoam.com                      |
|    \\/     M anipulation  |                                                 |
\*---------------------------------------------------------------------------*/
FoamFile
{
    version     2.0;
    format      ascii;
    class       volVectorField;
    location    "1";
    object      U;
}
// * * * * * * * * * * * * * * * * * * * * * * * * * * * * * * * * * * * * * //

dimensions      [0 1 -1 0 0 0 0];


internalField   nonuniform List<vector> 
13611
(
(7.95264 0.136407 0)
(7.94751 0.114117 -1.96373e-23)
(7.91666 0.0769595 -4.49322e-23)
(7.93741 0.0565769 0)
(7.93839 0.074297 1.78654e-23)
(7.92717 0.106571 6.55784e-23)
(7.94369 0.0527307 -7.99815e-23)
(7.93625 0.0680911 0)
(7.9288 0.150112 -1.08124e-22)
(7.93317 0.0572839 -7.08421e-23)
(7.90366 0.074763 -1.75473e-22)
(7.94893 0.0570039 -1.65413e-23)
(7.93068 0.0748679 -7.80897e-23)
(7.95589 0.0564709 -1.04384e-22)
(7.91253 0.103258 1.0409e-22)
(7.93776 0.0645813 3.47989e-23)
(7.93641 0.0404035 5.03604e-23)
(7.91425 0.104361 2.85605e-23)
(7.96352 0.0629563 0)
(7.93528 0.0689684 5.01397e-23)
(7.95452 0.0505508 -1.15604e-22)
(7.95873 0.0594118 -4.88149e-23)
(7.92333 0.152369 0)
(7.94061 0.0514309 8.89611e-23)
(7.93076 0.0687683 7.72256e-23)
(7.94862 0.0465311 -2.21065e-23)
(7.8999 0.0724933 -9.62367e-23)
(7.96667 0.0531027 -5.57329e-23)
(7.95025 0.0588151 -7.83855e-23)
(7.95477 0.0533677 -5.1356e-23)
(7.95248 0.0513854 0)
(7.96007 0.0493956 -5.1825e-23)
(7.91222 0.116108 0)
(7.93596 0.0611012 0)
(7.92719 0.075719 -9.87778e-23)
(7.96572 0.054798 -5.2478e-23)
(7.93626 0.0374388 -7.52712e-24)
(7.91362 0.104957 4.26642e-23)
(7.96546 0.0498978 -1.96178e-23)
(7.94608 0.061952 -2.92753e-23)
(7.94676 0.0541871 0)
(7.95075 0.0480495 0)
(7.95514 0.0483426 0)
(7.95692 0.0490146 1.71757e-23)
(7.93214 0.0672155 0)
(7.93514 0.172015 0)
(7.93749 0.0736832 0)
(7.93772 0.0684267 -4.98146e-23)
(7.97158 0.0480501 -4.94006e-23)
(7.95281 0.0481424 2.94325e-23)
(7.90354 0.0667256 0)
(7.96596 0.0464624 -3.97764e-23)
(7.94095 0.0607101 -3.03475e-23)
(7.94614 0.0488336 0)
(7.94184 0.0552645 5.81662e-23)
(7.95244 0.0432096 0)
(7.95566 0.0439002 -1.14899e-23)
(7.95872 0.0452643 -7.90387e-23)
(7.92692 0.0810059 0)
(7.92291 0.123755 -2.02805e-23)
(7.9327 0.0779506 7.0627e-23)
(7.93482 0.0696655 2.14905e-22)
(7.97077 0.0487055 -4.53387e-23)
(7.96971 0.0448462 2.62358e-23)
(7.94526 0.0382774 -2.15652e-23)
(7.91632 0.0901262 8.8212e-23)
(7.96188 0.0444169 -7.45243e-23)
(7.93551 0.0608111 0)
(7.94427 0.0453388 0)
(7.93873 0.0508236 5.75962e-23)
(7.95186 0.0413246 0)
(7.95781 0.0424524 -9.50118e-23)
(7.92645 0.0890295 1.41252e-22)
(7.92056 0.0731382 -1.4857e-22)
(7.95873 0.186094 2.47151e-23)
(7.93202 0.0728669 -3.50121e-23)
(7.9331 0.0656627 3.66294e-23)
(7.97505 0.0425808 0)
(7.97012 0.0419892 3.95509e-23)
(7.96983 0.0397592 0)
(7.90524 0.061838 -2.28391e-22)
(7.96301 0.0406359 0)
(7.93238 0.0569139 4.61922e-24)
(7.94057 0.0463952 0)
(7.94704 0.0418167 1.88164e-23)
(7.93508 0.0519193 5.7271e-24)
(7.95417 0.0375329 -1.02401e-23)
(7.96001 0.0390457 -4.19156e-23)
(7.92404 0.0887623 3.79201e-24)
(7.91397 0.0872224 -1.05539e-22)
(7.92996 0.115616 4.94571e-22)
(7.92843 0.0758058 -1.21315e-22)
(7.92742 0.0666523 7.72473e-23)
(7.97598 0.0406134 1.04451e-24)
(7.96597 0.0401706 1.30354e-23)
(7.97236 0.0402168 -1.92462e-23)
(7.9703 0.0324216 0)
(7.96418 0.0303604 -8.80724e-24)
(7.91004 0.0893522 5.41737e-23)
(7.9633 0.0379648 0)
(7.92905 0.0562625 0)
(7.93985 0.0442547 2.4017e-23)
(7.94673 0.0389601 4.24151e-23)
(7.93307 0.0487242 1.12376e-23)
(7.95218 0.0351935 1.85271e-23)
(7.95614 0.0359945 -4.72917e-23)
(7.95893 0.0357376 0)
(7.92681 0.0798276 -1.32439e-22)
(7.91756 0.0915462 -1.84861e-23)
(7.90752 0.0704607 -2.89918e-22)
(7.96291 0.195313 0)
(7.92514 0.0729714 -1.24678e-22)
(7.92332 0.0641025 7.67892e-23)
(7.97592 0.037868 -6.38536e-25)
(7.96662 0.0370126 -3.15447e-24)
(7.96952 0.0369381 -1.97986e-23)
(7.97526 0.0377153 -2.58241e-24)
(7.97436 0.0324967 4.93895e-24)
(7.90771 0.0565978 -5.21105e-23)
(7.96578 0.0351175 0)
(7.92633 0.0586294 0)
(7.92969 0.0506794 0)
(7.93547 0.0450359 2.31546e-23)
(7.94176 0.0395908 2.33121e-23)
(7.94489 0.0374635 2.5295e-23)
(7.94972 0.035356 6.82932e-24)
(7.95456 0.0328651 -4.91033e-23)
(7.96189 0.0316886 0)
(7.92141 0.080931 -2.22932e-23)
(7.92133 0.101546 2.61387e-22)
(7.92064 0.0894509 -1.90681e-22)
(7.94193 0.168444 0)
(7.92031 0.0749681 -1.26685e-22)
(7.91975 0.0642552 0)
(7.97237 0.0352024 4.82691e-23)
(7.96809 0.0350179 1.34724e-25)
(7.97659 0.0360076 9.86324e-25)
(7.96104 0.0243882 0)
(7.97983 0.0392563 -5.39319e-24)
(7.91575 0.086587 6.2169e-23)
(7.96552 0.0320308 0)
(7.92383 0.0566898 4.24088e-23)
(7.92582 0.0486617 2.30191e-25)
(7.9338 0.040339 -2.4957e-22)
(7.93748 0.0367796 2.76428e-23)
(7.94658 0.0332836 -6.54108e-23)
(7.94988 0.0321583 -1.75179e-23)
(7.95679 0.0304411 -2.72332e-23)
(7.96192 0.0286065 0)
(7.91826 0.0819114 2.80511e-22)
(7.9182 0.0939984 2.11465e-22)
(7.91318 0.0897847 2.07924e-22)
(7.93656 0.103478 9.76234e-22)
(7.91615 0.0726497 2.04252e-22)
(7.91588 0.0681875 1.98283e-22)
(7.92023 0.0601389 0)
(7.97271 0.0329057 4.31515e-23)
(7.97034 0.0323127 -4.02246e-23)
(7.97503 0.0311673 0)
(7.97618 0.0304121 0)
(7.98063 0.0342724 -1.31069e-23)
(7.91677 0.0536697 0)
(7.96796 0.0287614 -1.06296e-23)
(7.92254 0.051678 -2.48096e-23)
(7.92603 0.0444146 2.15857e-22)
(7.93027 0.0399487 -2.65441e-22)
(7.93848 0.0329087 2.44614e-23)
(7.94373 0.0309734 -9.37066e-23)
(7.95232 0.0293645 0)
(7.95955 0.028216 0)
(7.95566 0.0287976 -2.38366e-24)
(7.96512 0.02583 0)
(7.91377 0.0822047 1.02331e-22)
(7.91111 0.0929149 -1.85608e-22)
(7.89957 0.0968563 1.60119e-23)
(7.91812 0.0761697 4.9334e-22)
(7.91185 0.227794 -1.18107e-22)
(7.9123 0.0759573 -8.06897e-23)
(7.91055 0.0660453 0)
(7.91641 0.057662 0)
(7.97489 0.0309579 0)
(7.97259 0.0318527 -4.15058e-23)
(7.9704 0.0291176 -1.011e-23)
(7.97861 0.0308198 0)
(7.96626 0.0220889 0)
(7.98197 0.035398 -6.85457e-24)
(7.92432 0.0834843 0)
(7.96786 0.0262793 -1.06171e-23)
(7.91709 0.052586 -7.16133e-23)
(7.92198 0.0412163 1.79091e-22)
(7.92939 0.0345676 7.6766e-24)
(7.93703 0.030393 0)
(7.94485 0.0273581 -3.23416e-23)
(7.95076 0.0257587 -2.29252e-23)
(7.95937 0.0239037 0)
(7.95699 0.0244991 6.89743e-23)
(7.96533 0.022634 -8.4721e-23)
(7.91044 0.0867951 0)
(7.9118 0.088489 0)
(7.88992 0.110245 1.90532e-22)
(7.92724 0.097741 0)
(7.89416 0.160149 3.05436e-22)
(7.90776 0.0756366 0)
(7.90638 0.0701646 0)
(7.91121 0.0601565 0)
(7.97712 0.0286333 0)
(7.97454 0.0282474 0)
(7.97261 0.0269419 -9.88952e-24)
(7.979 0.029106 -3.14518e-23)
(7.98186 0.0278032 2.9533e-23)
(7.98362 0.0300993 1.91568e-23)
(7.92827 0.0563816 0)
(7.97023 0.0235438 1.47715e-25)
(7.91548 0.0499402 -1.40299e-22)
(7.9237 0.0351826 -6.72246e-23)
(7.91797 0.0437188 4.64123e-23)
(7.93274 0.0304663 1.18139e-22)
(7.93969 0.025289 0)
(7.94348 0.0246099 -3.47601e-23)
(7.94837 0.0252351 -3.26006e-23)
(7.95426 0.0229131 4.86122e-23)
(7.96206 0.0216878 -6.37455e-23)
(7.96806 0.0199743 -1.37118e-22)
(7.90664 0.0862841 -9.26837e-23)
(7.91125 0.0910753 4.6521e-22)
(7.90005 0.10515 2.04676e-22)
(7.9514 0.0867093 2.29003e-22)
(7.89609 0.115035 -2.36103e-22)
(7.89411 0.238748 0)
(7.90513 0.0799757 1.62981e-22)
(7.90139 0.069778 -2.07555e-23)
(7.90716 0.0567761 -1.96844e-22)
(7.97618 0.0270414 2.10201e-23)
(7.97901 0.0272754 3.84437e-23)
(7.9734 0.0246838 -1.79442e-24)
(7.97979 0.0281576 3.87355e-23)
(7.98128 0.0279836 -3.11417e-23)
(7.97722 0.0204754 0)
(7.93738 0.0977593 1.37015e-22)
(7.97159 0.0126169 0)
(7.97232 0.0234658 -8.87823e-24)
(7.97019 0.0206521 -1.09291e-22)
(7.90992 0.0511293 -6.77096e-23)
(7.9215 0.0328979 0)
(7.91384 0.0415022 1.95602e-23)
(7.93167 0.0260118 4.22091e-23)
(7.9375 0.0205738 1.03808e-22)
(7.94568 0.0208562 -3.49129e-23)
(7.94916 0.0214609 -4.41276e-23)
(7.9555 0.019967 0)
(7.96226 0.0190735 0)
(7.96795 0.0172789 -8.38507e-23)
(7.90178 0.0904629 -3.67389e-23)
(7.90392 0.093721 -3.58171e-23)
(7.8934 0.101775 4.75209e-23)
(7.93123 0.0622909 -2.91556e-22)
(7.89068 0.118111 -3.14359e-22)
(7.89345 0.14094 -1.58534e-22)
(7.89872 0.080171 2.8993e-22)
(7.89814 0.0630014 2.09639e-22)
(7.89785 0.0755183 4.81166e-23)
(7.90137 0.057246 -2.30457e-22)
(7.97715 0.0244806 2.03552e-23)
(7.98061 0.0241854 0)
(7.97598 0.0233033 -1.83923e-23)
(7.98181 0.0257039 -2.84537e-23)
(7.98304 0.026192 -1.03252e-24)
(7.98112 0.0335728 -4.61398e-23)
(7.96292 0.0374481 -1.65805e-22)
(7.97602 0.026898 0)
(7.9738 0.020417 -9.21218e-24)
(7.97237 0.0189608 -9.07015e-24)
(7.90981 0.0464694 1.59723e-23)
(7.91644 0.0319119 0)
(7.92469 0.0277142 -5.32419e-23)
(7.91267 0.0362396 -1.6507e-22)
(7.93394 0.0210092 9.91074e-23)
(7.92803 0.0253242 -5.33129e-23)
(7.94029 0.0166641 1.03661e-22)
(7.94487 0.017724 -5.14267e-23)
(7.95217 0.0192075 -4.42959e-23)
(7.95816 0.0170183 0)
(7.96581 0.0168074 -5.86764e-23)
(7.96079 0.0171005 0)
(7.97041 0.0147064 -3.64574e-23)
(7.89688 0.0858842 4.56151e-23)
(7.90154 0.0989584 -1.4542e-23)
(7.89587 0.101341 3.02577e-22)
(7.91247 0.0965696 -5.20199e-22)
(7.89475 0.108354 0)
(7.93028 0.205455 1.41052e-22)
(7.89274 0.064692 2.28562e-22)
(7.89364 0.0760655 0)
(7.89993 0.0515394 -3.15271e-23)
(7.97939 0.0230483 0)
(7.98243 0.0233823 -1.12315e-23)
(7.97706 0.0207091 -1.65624e-23)
(7.98253 0.0258407 -2.9035e-23)
(7.98517 0.0261582 -6.5827e-23)
(7.97903 0.0300934 -1.05988e-23)
(7.967 0.0609444 6.50459e-23)
(7.97588 0.0193911 -4.95722e-25)
(7.97383 0.016912 -4.73241e-23)
(7.90442 0.0459738 0)
(7.91579 0.0256082 0)
(7.92019 0.0231285 -4.44619e-23)
(7.9076 0.036016 -3.37948e-22)
(7.92989 0.0173628 2.03432e-22)
(7.92646 0.0193599 2.39532e-22)
(7.93927 0.0125947 -7.77335e-23)
(7.94771 0.0144532 3.45756e-23)
(7.95183 0.0152683 1.32541e-22)
(7.95739 0.0130855 0)
(7.96554 0.0139858 3.11657e-23)
(7.96284 0.0135855 3.07769e-23)
(7.96965 0.0120183 -4.01504e-23)
(7.97286 0.0149261 -3.85303e-23)
(7.89305 0.0883693 -2.71268e-22)
(7.89848 0.098406 -4.99264e-23)
(7.89449 0.104407 -3.03644e-22)
(7.91348 0.0971895 0)
(7.89848 0.114223 3.81358e-22)
(7.91778 0.169189 -4.80024e-25)
(7.89091 0.0703379 0)
(7.88807 0.0609749 0)
(7.88876 0.0810836 -1.40651e-22)
(7.89422 0.0499453 0)
(7.98031 0.020721 3.8762e-23)
(7.98408 0.0216335 -3.75762e-23)
(7.97929 0.0194641 3.87047e-23)
(7.98401 0.0238712 -9.88503e-25)
(7.98738 0.0239805 -3.77137e-23)
(7.98427 0.0248001 0)
(7.9884 0.0243338 3.51303e-23)
(7.96268 0.066771 0)
(7.97721 0.0169075 0)
(7.97626 0.015811 0)
(7.90289 0.0412064 -9.29371e-23)
(7.91163 0.0235726 6.05649e-24)
(7.92099 0.0186753 1.70364e-22)
(7.90493 0.0308112 -6.09033e-23)
(7.93122 0.0130129 3.06211e-22)
(7.94312 0.00959202 -1.70048e-22)
(7.93585 0.0105072 1.05415e-22)
(7.94674 0.0113308 -9.44858e-23)
(7.95447 0.012271 4.55452e-23)
(7.9595 0.0107646 0)
(7.96726 0.0117529 -1.73737e-23)
(7.96221 0.0117982 2.81479e-23)
(7.9714 0.0100412 -2.3314e-23)
(7.9747 0.0123198 0)
(7.89267 0.093685 -3.45887e-23)
(7.88823 0.0857774 -1.47668e-22)
(7.89536 0.10265 -4.88427e-23)
(7.89263 0.111241 -5.29915e-22)
(7.90595 0.107214 0)
(7.89477 0.116452 3.4336e-22)
(7.94445 0.115988 -2.06669e-24)
(7.88469 0.0709186 -3.69484e-23)
(7.88298 0.0660021 -3.73404e-23)
(7.88935 0.0547706 0)
(7.88305 0.077705 0)
(7.89269 0.0431136 -2.31029e-22)
(7.98246 0.0193705 1.88079e-23)
(7.9839 0.0199448 -2.91085e-25)
(7.98562 0.021617 -2.71692e-23)
(7.98045 0.0170098 0)
(7.98533 0.0238035 -7.32214e-24)
(7.98783 0.0229912 -3.07977e-23)
(7.98757 0.0252607 -3.01401e-23)
(7.99093 0.0226484 0)
(7.96514 0.037753 3.16186e-23)
(7.9794 0.0158414 0)
(7.97695 0.0131645 0)
(7.89774 0.0389303 -3.83529e-24)
(7.91005 0.0174304 6.31319e-24)
(7.90712 0.0258997 0)
(7.91875 0.0154191 -8.15661e-23)
(7.8981 0.0331614 -4.33521e-24)
(7.92737 0.00949565 1.98461e-22)
(7.94285 0.00599355 0)
(7.93656 0.00481074 -4.44309e-22)
(7.9496 0.00858697 0)
(7.95283 0.00944253 -3.6923e-23)
(7.95931 0.00792411 -3.89402e-24)
(7.96652 0.00916755 -4.21113e-23)
(7.96407 0.00923271 6.71402e-23)
(7.97107 0.0069497 0)
(7.97419 0.0101678 0)
(7.8862 0.0958857 -6.18986e-23)
(7.88425 0.0909769 0)
(7.89499 0.110189 -8.64862e-23)
(7.8863 0.10138 -6.39777e-23)
(7.90263 0.134923 -2.6933e-22)
(7.8928 0.120549 3.52906e-22)
(7.83188 0.180145 0)
(7.95621 0.0951162 -3.12793e-22)
(7.87684 0.0657063 0)
(7.88128 0.0518138 -1.82769e-22)
(7.87702 0.0791308 4.49639e-23)
(7.88694 0.0393096 -2.34063e-22)
(7.98342 0.0168485 1.92597e-23)
(7.98598 0.0174798 2.90543e-23)
(7.98722 0.0199147 -2.27808e-23)
(7.98258 0.0158346 0)
(7.98627 0.0215704 1.27446e-23)
(7.98758 0.0217846 0)
(7.9892 0.024389 0)
(7.99288 0.028724 0)
(7.98297 0.0160602 0)
(7.97084 0.0611328 -3.86401e-23)
(7.98051 0.0134214 -4.79081e-23)
(7.9788 0.0120129 -3.61139e-23)
(7.90328 0.0158704 -1.30468e-22)
(7.91352 0.0141609 -1.57679e-22)
(7.90157 0.0208403 -8.51595e-23)
(7.92227 0.0102894 0)
(7.89319 0.028611 0)
(7.92928 0.00402692 -2.34392e-23)
(7.94663 0.00332786 1.15861e-23)
(7.94041 0.00317404 -5.03927e-23)
(7.93397 0.00254447 -3.3414e-22)
(7.94921 0.00476057 0)
(7.95442 0.00633787 -2.80951e-23)
(7.95728 0.00580941 8.98938e-24)
(7.96243 0.00668605 3.56235e-23)
(7.96841 0.00669011 -2.48175e-23)
(7.97319 0.00487127 0)
(7.97609 0.00795444 3.90741e-23)
(7.87781 0.0924613 0)
(7.88924 0.114684 -7.76167e-23)
(7.88121 0.104808 0)
(7.89263 0.13871 2.57172e-22)
(7.89033 0.123749 0)
(8.0086 0.342762 0)
(7.97051 0.100057 -4.43637e-23)
(7.87315 0.0726342 4.5085e-23)
(7.87519 0.0580175 -4.84417e-22)
(7.88025 0.0441785 4.76527e-22)
(7.87408 0.0868001 3.53543e-22)
(7.88662 0.0317487 -4.17845e-22)
(7.98554 0.0159006 2.91322e-23)
(7.98742 0.0175119 0)
(7.98807 0.0198524 -1.10018e-23)
(7.98396 0.0136728 4.94038e-24)
(7.98902 0.0211266 0)
(7.99224 0.0243878 5.11178e-24)
(7.99255 0.0237549 0)
(7.98913 0.0236387 0)
(7.96861 0.0338557 -1.93025e-23)
(7.98265 0.0122798 -2.24708e-23)
(7.97965 0.00992177 -3.12624e-23)
(7.90295 0.00935999 -3.08224e-23)
(7.91432 0.0076636 6.97976e-23)
(7.89495 0.0219135 1.22469e-23)
(7.91915 0.00527964 -5.20246e-23)
(7.92713 0.000765396 -7.27692e-23)
(7.94672 -0.000447594 -1.15888e-22)
(7.94274 -0.00067306 0)
(7.93431 -0.00250018 0)
(7.95228 0.00317736 0)
(7.9589 0.0023779 -8.30645e-23)
(7.96378 0.00441484 -3.84357e-23)
(7.96704 0.00401258 -3.7494e-23)
(7.97557 0.00587886 0)
(7.97304 0.00265193 -9.12525e-23)
(7.97822 0.00812763 2.13674e-23)
(7.8764 0.099714 0)
(7.88923 0.120933 0)
(7.88179 0.111103 3.0769e-22)
(7.88569 0.143052 -4.78258e-22)
(7.88953 0.131521 0)
(8.00618 0.209698 1.00632e-22)
(7.91217 0.140394 -3.24168e-22)
(7.86612 0.0728888 0)
(7.86691 0.0569306 -3.03878e-22)
(7.87293 0.0398787 4.74296e-22)
(7.86511 0.0888366 4.38225e-22)
(7.8807 0.0258164 -4.13867e-22)
(7.98662 0.0139098 0)
(7.98903 0.0157698 0)
(7.98976 0.0181579 -1.65808e-23)
(7.98592 0.0126274 -2.72472e-24)
(7.99051 0.0190886 0)
(7.99363 0.0198013 4.3639e-24)
(7.99575 0.021023 0)
(7.98875 0.0188383 1.37406e-23)
(7.97297 0.0452805 1.24699e-23)
(7.98336 0.00995092 -1.00773e-23)
(7.98182 0.00894221 -4.26144e-24)
(7.89476 0.00806829 7.85451e-23)
(7.9087 0.00446696 0)
(7.89078 0.0145555 -1.75273e-24)
(7.9219 0.00105842 -1.17068e-22)
(7.92989 -0.00320906 0)
(7.94918 -0.00269515 -1.27186e-22)
(7.94153 -0.00465257 -2.83092e-23)
(7.93724 -0.00545347 -1.0447e-22)
(7.95402 0.000311301 -1.84933e-23)
(7.95758 -0.000217418 -1.09312e-22)
(7.96229 0.00198419 -5.38902e-23)
(7.96863 0.00139147 -8.70269e-23)
(7.97731 0.00371902 7.18156e-24)
(7.97607 0.00160772 6.11204e-24)
(7.97142 0.000917923 -1.35807e-22)
(7.9794 0.00580858 1.48368e-23)
(7.86956 0.102804 0)
(7.88407 0.127603 0)
(7.87565 0.115975 3.0311e-22)
(7.88674 0.138023 -4.77715e-22)
(7.886 0.133388 0)
(7.94646 0.214518 -1.6819e-22)
(7.90798 0.159064 0)
(7.86099 0.0821369 8.48893e-23)
(7.86201 0.0649314 -3.41573e-22)
(7.86256 0.0510656 -1.65445e-22)
(7.86621 0.0428441 0)
(7.8735 0.0292726 0)
(7.86242 0.0968209 0)
(7.8828 0.0162862 -1.76999e-24)
(7.98822 0.0127923 0)
(7.99043 0.0166142 0)
(7.98944 0.0140043 2.32253e-23)
(7.99093 0.0178273 -1.59918e-23)
(7.9871 0.0101313 -7.64928e-24)
(7.99238 0.0179253 0)
(7.99325 0.0185946 0)
(7.99661 0.0194059 0)
(7.99778 0.01793 0)
(7.97312 0.0272698 7.793e-23)
(7.98547 0.00892218 0)
(7.98168 0.00639872 -4.51116e-24)
(7.89176 0.00254339 2.90938e-22)
(7.90887 -0.0010447 2.957e-22)
(7.91924 -0.00306174 0)
(7.92712 -0.00755353 3.35892e-23)
(7.94835 -0.00742398 -8.13231e-23)
(7.95258 -0.00221483 0)
(7.94455 -0.00883223 1.59347e-22)
(7.93464 -0.0108506 -5.77229e-23)
(7.95942 -0.00332382 1.65726e-23)
(7.96403 -0.000926724 -3.73381e-23)
(7.96716 -0.00123796 -1.42837e-23)
(7.97952 0.00374096 -5.25242e-23)
(7.97731 -0.00062193 6.55026e-23)
(7.97284 -0.00202409 1.60703e-23)
(7.86908 0.111812 0)
(7.87617 0.124624 -1.00131e-21)
(7.88434 0.142704 -5.35555e-22)
(7.88523 0.139964 -1.84039e-22)
(7.92176 0.137935 6.34723e-22)
(7.89363 0.147904 0)
(7.85134 0.0807417 0)
(7.85426 0.0653123 -3.40592e-22)
(7.85241 0.0498078 -3.75671e-22)
(7.85926 0.037593 0)
(7.86691 0.0257327 0)
(7.8551 0.100729 7.63229e-23)
(7.87612 0.0104294 7.1579e-23)
(7.98966 0.0106258 0)
(7.98898 0.0131351 1.99672e-23)
(7.9918 0.0146396 -1.81393e-23)
(7.99143 0.0133102 -5.50718e-24)
(7.99267 0.0155097 1.45777e-25)
(7.98888 0.00929105 0)
(7.99364 0.015336 0)
(7.99498 0.0165386 0)
(7.9968 0.0169682 0)
(7.99675 0.0131244 1.0841e-23)
(7.97574 0.0400871 -1.71198e-24)
(7.9959 0.0105466 -1.95972e-23)
(7.98564 0.00673382 -1.67565e-23)
(7.98352 0.00545345 0)
(7.88558 0.000463154 2.11617e-22)
(7.89722 -0.00383008 1.15871e-22)
(7.90297 -0.00484267 0)
(7.91439 -0.00507559 2.9186e-22)
(7.92221 -0.00794923 3.33905e-23)
(7.92958 -0.0116201 -3.11059e-23)
(7.95121 -0.00938334 -1.48566e-22)
(7.95447 -0.00597975 3.78083e-23)
(7.94201 -0.0131095 1.46201e-22)
(7.93691 -0.0142669 -9.17853e-24)
(7.95741 -0.00636922 7.58943e-23)
(7.96259 -0.00367977 5.02209e-23)
(7.96847 -0.00399874 2.72911e-23)
(7.98191 0.00176687 -5.03821e-23)
(7.97538 -0.0024486 3.01093e-23)
(7.97936 -0.00156464 9.24167e-25)
(7.97114 -0.00415738 3.04062e-23)
(7.8617 0.116518 0)
(7.86912 0.130669 -9.18517e-22)
(7.88619 0.145315 -8.76721e-22)
(7.88546 0.146051 0)
(7.87846 0.143084 -3.99351e-23)
(7.94135 0.118783 1.12838e-21)
(7.86069 0.32942 0)
(7.88754 0.159513 4.77561e-22)
(7.846 0.0873956 1.87219e-22)
(7.8485 0.0723742 0)
(7.84755 0.055506 -1.93101e-22)
(7.84997 0.0424013 -2.13704e-23)
(7.85965 0.0306578 -1.18354e-22)
(7.86327 0.0177298 3.74201e-23)
(7.84779 0.0966502 5.78881e-23)
(7.8542 0.110332 4.52553e-22)
(7.86746 0.011276 -1.44492e-22)
(7.87861 0.00334436 2.3803e-22)
(7.99107 0.00986489 -2.73198e-24)
(7.99112 0.0110096 -2.76408e-24)
(7.99271 0.0144529 -2.33237e-23)
(7.99253 0.0118098 -5.82398e-24)
(7.99361 0.0149669 -5.15104e-24)
(7.98994 0.00751314 0)
(7.99489 0.0142395 -1.85361e-23)
(7.99526 0.0143917 -1.72875e-23)
(7.99777 0.0153779 0)
(7.9972 0.0155955 1.78165e-23)
(7.97945 0.019267 -6.51033e-23)
(8.00021 0.0107642 -7.7882e-24)
(7.98748 0.00536158 -1.6619e-23)
(7.98424 0.00349779 2.1548e-23)
(7.88534 -0.00992178 0)
(7.89099 -0.0114347 -1.17283e-22)
(7.90353 -0.0129649 -1.38553e-22)
(7.91362 -0.0117293 0)
(7.9184 -0.0134164 0)
(7.92664 -0.0169333 2.69611e-23)
(7.95201 -0.0123818 -2.29526e-24)
(7.94409 -0.016406 1.45153e-22)
(7.93518 -0.0184344 -1.52735e-22)
(7.95893 -0.00947856 5.47307e-23)
(7.96425 -0.00649773 3.36412e-23)
(7.96708 -0.0064673 2.72293e-23)
(7.98122 -0.000382827 -1.85837e-23)
(7.98386 0.00216102 -3.01927e-23)
(7.97557 -0.004905 -3.96294e-23)
(7.97913 -0.003892 3.9864e-23)
(7.97189 -0.00618119 1.13588e-23)
(7.86061 0.126316 0)
(7.86896 0.140305 -5.36249e-22)
(7.88769 0.152587 -1.64895e-22)
(7.88323 0.142823 0)
(7.87986 0.153219 -3.96726e-23)
(7.96185 0.0579736 1.73938e-21)
(7.85659 0.187346 1.63889e-21)
(7.87642 0.153673 -3.01193e-23)
(7.83623 0.0876719 1.39932e-22)
(7.84201 0.0695275 -9.61775e-23)
(7.84024 0.0584485 3.11252e-22)
(7.84349 0.0393381 1.29445e-22)
(7.85217 0.0262578 -1.24817e-22)
(7.85382 0.0187196 -6.9758e-24)
(7.84012 0.101663 2.37438e-25)
(7.84623 0.115248 4.50759e-22)
(7.86274 0.00377323 -1.45005e-22)
(7.87459 -0.00432098 -5.49385e-23)
(7.99201 0.00851833 -2.68225e-24)
(7.99247 0.0106959 -1.09114e-23)
(7.99364 0.0129417 1.85003e-25)
(7.99405 0.0114941 3.39134e-25)
(7.99445 0.0128076 -1.10235e-23)
(7.98916 0.00599042 0)
(7.99163 0.00740914 0)
(7.99585 0.0120946 0)
(7.9975 0.0129131 0)
(7.99761 0.0128902 1.85009e-23)
(7.98241 0.0298686 1.83559e-23)
(7.99763 0.00710981 1.32602e-23)
(7.98749 0.00327651 2.42897e-23)
(7.98649 0.00259708 4.65508e-23)
(7.87853 -0.0124482 -3.09087e-22)
(7.89292 -0.0157048 -1.41684e-22)
(7.90873 -0.0149228 0)
(7.89918 -0.0151999 -3.67662e-23)
(7.92079 -0.0175859 0)
(7.92966 -0.020373 -5.14478e-23)
(7.95617 -0.0130415 -1.8932e-23)
(7.94876 -0.0157854 5.33361e-23)
(7.94212 -0.0207733 8.36143e-23)
(7.93797 -0.0218641 -9.19642e-23)
(7.96228 -0.00955579 -2.62347e-23)
(7.96838 -0.00898856 -1.5433e-23)
(7.98273 -0.00223295 0)
(7.98559 0.000224184 2.59725e-23)
(7.9743 -0.00646489 7.32375e-24)
(7.97766 -0.0053401 -1.46317e-23)
(7.98129 -0.00424881 1.71128e-23)
(7.97104 -0.00863481 3.65276e-23)
(7.85368 0.13128 0)
(7.86027 0.147058 -5.33956e-22)
(7.88951 0.148072 0)
(7.88752 0.156065 -9.45167e-23)
(7.87238 0.160846 0)
(7.95514 0.089906 1.5386e-21)
(7.84628 0.271663 2.28172e-22)
(7.88369 0.160661 -1.14517e-22)
(7.83039 0.0801693 4.28667e-23)
(7.83312 0.0960956 -1.11007e-22)
(7.83348 0.0714725 -9.65343e-23)
(7.83072 0.0535552 3.42276e-22)
(7.83576 0.0389757 -1.65651e-22)
(7.84519 0.0289754 7.73314e-23)
(7.84921 0.0123198 -4.0661e-23)
(7.83859 0.110498 2.36588e-22)
(7.84538 0.125345 -5.02768e-22)
(7.85408 0.00483795 0)
(7.86674 -0.00402828 -2.16879e-22)
(7.99333 0.00809468 0)
(7.99378 0.00893619 -9.75703e-24)
(7.99517 0.00973228 7.93019e-27)
(7.99531 0.0115778 0)
(7.99057 0.00421137 -1.09995e-23)
(7.99251 0.0060739 2.96123e-24)
(7.99676 0.0107184 0)
(7.9981 0.0104785 0)
(7.99842 0.00984692 2.30924e-23)
(7.98657 0.013309 -7.52923e-23)
(8.00188 0.00787599 -1.51341e-25)
(7.9893 0.00219508 -2.42331e-23)
(7.98716 0.000804898 2.67441e-23)
(7.87347 -0.0196462 -1.52934e-22)
(7.89118 -0.0202082 2.52547e-23)
(7.90744 -0.02119 -3.02435e-22)
(7.89632 -0.0223688 2.52419e-23)
(7.91735 -0.0219507 5.95476e-23)
(7.92779 -0.0246467 0)
(7.95691 -0.0166694 4.93287e-23)
(7.94996 -0.0197112 2.65264e-23)
(7.94401 -0.0240432 7.47254e-23)
(7.93555 -0.0268078 0)
(7.96327 -0.0123342 -3.02761e-23)
(7.96648 -0.0120887 -1.58886e-23)
(7.98448 -0.00176263 0)
(7.97495 -0.00918833 -4.63706e-23)
(7.97823 -0.00733763 -3.59035e-23)
(7.9818 -0.00596944 0)
(7.97286 -0.0105529 3.72282e-23)
(7.85222 0.142544 0)
(7.86047 0.157212 0)
(7.89733 0.155784 0)
(7.8917 0.166751 1.10973e-21)
(7.87493 0.172097 -3.11585e-22)
(7.98392 0.129624 6.83618e-22)
(7.83849 0.173628 3.61686e-23)
(7.87775 0.158612 -5.91171e-22)
(7.81912 0.0839843 -6.90843e-23)
(7.82462 0.0999139 -1.22397e-22)
(7.82354 0.0621305 3.92766e-22)
(7.83034 0.0460582 -3.3979e-23)
(7.83027 0.0278324 -1.83818e-22)
(7.8368 0.0224459 2.98207e-23)
(7.83889 0.0151999 -9.58112e-24)
(7.8304 0.115249 1.11814e-22)
(7.83701 0.130425 -4.43802e-22)
(7.84879 -0.00272697 0)
(7.85989 -0.0131393 -1.51366e-22)
(7.99425 0.00678905 0)
(7.99487 0.00815493 -3.38973e-25)
(7.99558 0.00836431 9.95369e-25)
(7.99605 0.00948527 -5.22125e-24)
(7.99603 0.0098458 4.0613e-24)
(7.9921 0.00469615 3.01996e-24)
(7.99063 0.00278713 -3.1112e-23)
(7.99389 0.00605201 0)
(7.99702 0.00884375 1.56679e-23)
(7.9976 0.0103875 -4.69291e-24)
(7.99869 0.00906038 -4.55438e-24)
(7.99984 0.00887199 4.20187e-24)
(7.99183 0.0226727 0)
(7.99825 0.00127282 -2.67725e-24)
(7.99978 0.0036863 1.05483e-23)
(7.98983 0.000588364 1.78212e-23)
(7.98849 -0.000153748 2.15372e-23)
(7.87733 -0.0259236 6.89017e-23)
(7.86295 -0.0207202 0)
(7.88634 -0.0247831 5.39349e-23)
(7.91174 -0.0240176 -3.35595e-22)
(7.90117 -0.0239396 0)
(7.9198 -0.0269509 9.55685e-23)
(7.93157 -0.0280422 0)
(7.92386 -0.0274693 0)
(7.9603 -0.0164021 1.16441e-22)
(7.95429 -0.0196055 1.82569e-23)
(7.94795 -0.022934 -6.04997e-23)
(7.94188 -0.0286611 -1.9315e-22)
(7.9379 -0.0302991 0)
(7.96758 -0.0141622 0)
(7.98565 -0.00305134 0)
(7.97681 -0.00963055 -1.63665e-23)
(7.98035 -0.00768188 -3.53086e-23)
(7.98406 -0.00643362 -4.24885e-23)
(7.97123 -0.0133588 0)
(7.84638 0.147417 0)
(7.85463 0.166493 0)
(7.90138 0.153166 6.06738e-22)
(7.89843 0.16789 5.68762e-22)
(7.88717 0.175165 9.15842e-22)
(7.86989 0.178927 -1.80218e-22)
(7.99026 0.115511 1.44369e-21)
(7.90685 0.16836 0)
(7.85023 0.296534 5.39163e-23)
(7.80772 0.0771726 4.9176e-23)
(7.81726 0.0934549 -1.57225e-23)
(7.82308 0.109766 -1.14547e-22)
(7.81536 0.060314 4.06757e-22)
(7.82138 0.0442214 3.51336e-22)
(7.81997 0.0246922 7.18157e-23)
(7.83325 0.00829208 -6.24185e-23)
(7.82901 0.124979 -5.85726e-23)
(7.83624 0.140232 0)
(7.83974 -0.00187466 -6.16226e-23)
(7.85173 -0.0125173 -2.30507e-22)
(7.99536 0.00670217 0)
(7.99658 0.00714383 -1.02307e-23)
(7.99701 0.00760553 -6.692e-25)
(7.99696 0.00869365 1.95534e-23)
(7.99332 0.00373812 -1.34528e-23)
(7.99224 0.00155468 6.62361e-24)
(7.99457 0.00469656 -1.33989e-23)
(7.9977 0.00760478 3.9485e-24)
(7.99823 0.00780752 -8.72645e-25)
(7.99925 0.00743158 1.53239e-23)
(7.99953 0.00566519 1.09429e-23)
(8.00019 8.81806e-05 5.93631e-24)
(7.9995 0.00209396 1.66667e-24)
(8.00018 0.00541692 1.91634e-26)
(7.99107 -0.000340242 -1.83425e-23)
(7.98768 -0.00194965 0)
(7.87414 -0.0337891 -1.25173e-22)
(7.85824 -0.0310272 1.55555e-22)
(7.88887 -0.0327082 5.42835e-23)
(7.91086 -0.0306362 0)
(7.9005 -0.0305902 -1.43596e-22)
(7.91551 -0.0323482 0)
(7.92894 -0.0330127 0)
(7.92495 -0.0331942 0)
(7.96171 -0.0185672 1.09742e-22)
(7.95406 -0.0232626 -1.41095e-22)
(7.95025 -0.0252274 -8.59844e-23)
(7.9441 -0.0308711 -1.84296e-22)
(7.93569 -0.0345699 0)
(7.96572 -0.0167676 4.1564e-23)
(7.98556 -0.00482391 -1.80029e-23)
(7.97795 -0.0119124 3.45797e-23)
(7.98135 -0.0093314 2.74322e-24)
(7.98418 -0.00847973 -2.6353e-23)
(7.97237 -0.0158596 1.31714e-23)
(7.84195 0.157279 -1.4764e-22)
(7.84568 0.165362 -4.26309e-22)
(7.858 0.175742 0)
(7.90929 0.169765 3.18626e-22)
(7.90657 0.173826 -2.74652e-22)
(7.89015 0.185671 2.77082e-22)
(7.87136 0.191245 1.06995e-22)
(7.98459 0.0778446 5.65723e-22)
(7.89616 0.167944 -3.64102e-22)
(7.86965 0.224471 1.08487e-26)
(7.79597 0.0818409 9.95775e-23)
(7.80785 0.0663706 0)
(7.80688 0.099199 -8.77936e-23)
(7.81594 0.11406 6.81515e-23)
(7.81439 0.0510256 1.67897e-22)
(7.81422 0.0314634 2.54192e-22)
(7.81595 0.0176194 0)
(7.82438 0.00855435 -9.45048e-23)
(7.81993 0.130604 0)
(7.8266 0.146304 0)
(7.83448 -0.00798109 2.30635e-23)
(7.84443 -0.0194308 -6.75088e-23)
(7.99609 0.00551781 1.15451e-23)
(7.99721 0.00605622 -2.33137e-23)
(7.99767 0.00678723 -1.63434e-23)
(7.9978 0.00716102 -1.47143e-23)
(7.99403 0.0027354 0)
(7.9922 0.000270888 -1.85075e-23)
(7.9934 0.00187397 1.57448e-23)
(7.9957 0.00439232 1.16263e-23)
(7.99794 0.00634235 6.21828e-24)
(7.99872 0.00702596 1.56918e-23)
(7.9998 0.00614866 -3.34252e-24)
(8.00038 0.00447629 0)
(7.99965 0.00265894 -3.81461e-24)
(7.99043 -0.00186756 0)
(7.98877 -0.00292986 0)
(7.87919 -0.0406536 -3.11931e-22)
(7.86531 -0.038112 -3.26415e-23)
(7.85039 -0.0329744 1.55857e-22)
(7.88593 -0.0386549 -1.16174e-22)
(7.89568 -0.0335798 -1.22366e-22)
(7.90588 -0.0340644 -2.52253e-23)
(7.91667 -0.0360378 -1.15274e-23)
(7.93058 -0.035625 2.87634e-23)
(7.9219 -0.0363446 0)
(7.96178 -0.020888 5.85762e-23)
(7.9561 -0.0251048 -1.3999e-22)
(7.94849 -0.0284722 -1.56735e-23)
(7.94389 -0.0349431 8.27935e-23)
(7.93681 -0.0382351 0)
(7.96725 -0.0192494 6.56068e-23)
(7.98721 -0.00554803 2.33555e-23)
(7.98024 -0.0116832 -4.69289e-24)
(7.97525 -0.015194 0)
(7.98311 -0.00956909 1.61165e-23)
(7.98561 -0.00930577 -2.3345e-23)
(7.96998 -0.0188317 3.79734e-23)
(7.8286 0.156542 2.70823e-22)
(7.83752 0.178285 -3.03696e-22)
(7.85326 0.188466 4.42483e-23)
(7.91682 0.159279 -3.64896e-22)
(7.90932 0.186546 -4.741e-22)
(7.88004 0.19439 -2.48689e-23)
(7.90105 0.191342 -9.31881e-23)
(7.86271 0.195697 -2.9673e-22)
(7.97548 0.120765 5.56866e-22)
(7.91491 0.15829 0)
(7.86072 0.11317 -1.71393e-21)
(7.794 0.0931073 3.88035e-23)
(7.78794 0.0758389 1.05559e-23)
(7.79908 0.0611346 0)
(7.80656 0.10837 -8.55512e-23)
(7.81323 0.125674 3.27123e-22)
(7.80656 0.0462438 -5.1068e-23)
(7.80544 0.0341284 0)
(7.80767 0.0114021 0)
(7.81971 -0.00172044 -3.06043e-22)
(7.81818 0.140992 2.82337e-22)
(7.82449 -0.00893381 -1.89774e-22)
(7.83648 -0.0171337 1.60985e-22)
(7.84406 -0.0269691 -1.49133e-22)
(7.99697 0.00525313 -1.50423e-23)
(7.99812 0.00520397 0)
(7.99831 0.00534163 -3.06045e-24)
(7.99834 0.00618163 1.08853e-23)
(7.99531 0.00201999 1.44304e-24)
(7.99293 -0.000772209 9.20466e-24)
(7.99415 0.000488378 0)
(7.99654 0.00321967 1.13519e-24)
(7.99855 0.00508641 -1.27988e-23)
(7.99875 0.00528736 -4.4156e-24)
(8.00031 0.00430912 -1.75501e-23)
(8.00022 0.00201274 0)
(8.00003 0.000606014 0)
(7.99166 -0.00231682 -8.61957e-24)
(7.98842 -0.00417921 0)
(7.87625 -0.048639 0)
(7.86346 -0.0460195 2.15217e-22)
(7.84556 -0.0429298 0)
(7.88968 -0.0438894 0)
(7.89563 -0.0409841 1.99253e-23)
(7.90508 -0.0403733 1.92653e-22)
(7.91383 -0.0393326 -1.10133e-23)
(7.92903 -0.0404933 1.48224e-22)
(7.92082 -0.0417657 2.82128e-22)
(7.95945 -0.023967 3.16305e-23)
(7.96522 -0.0219491 2.90893e-23)
(7.9539 -0.0296802 -6.86771e-23)
(7.95042 -0.0308858 0)
(7.94072 -0.0384982 0)
(7.94796 -0.0354838 5.15618e-24)
(7.93282 -0.0428307 1.26659e-22)
(7.98812 -0.00714062 -3.20677e-25)
(7.98118 -0.0130459 0)
(7.97597 -0.0169563 1.09323e-23)
(7.98335 -0.0116455 0)
(7.98695 -0.00876986 2.99218e-24)
(7.98465 -0.0117111 0)
(7.97051 -0.0214616 0)
(7.82105 0.164842 2.94875e-22)
(7.84293 0.188841 0)
(7.82337 0.177075 0)
(7.93057 0.1742 0)
(7.92394 0.191566 0)
(7.88303 0.204729 -5.50297e-23)
(7.90045 0.201955 3.196e-22)
(7.8617 0.208672 -4.06686e-22)
(7.98247 0.0687134 -1.28622e-22)
(7.92157 0.146397 -2.84183e-22)