/*--------------------------------*- C++ -*----------------------------------*\
| =========                 |                                                 |
| \\      /  F ield         | OpenFOAM: The Open Source CFD Toolbox           |
|  \\    /   O peration     | Version:  v2012                                 |
|   \\  /    A nd           | Website:  www.openfoam.com                      |
|    \\/     M anipulation  |                                                 |
\*---------------------------------------------------------------------------*/
FoamFile
{
    version     2.0;
    format      ascii;
    class       surfaceVectorField;
    location    "1";
    object      Uf;
}
// * * * * * * * * * * * * * * * * * * * * * * * * * * * * * * * * * * * * * //

dimensions      [0 1 -1 0 0 0 0];


internalField   nonuniform List<vector> 
21888
(
(7.96614 0.106901 -9.36981e-24)
(7.9111 0.0961396 -2.44334e-23)
(7.94128 0.0829424 -9.39216e-24)
(7.94177 0.0960111 -1.4978e-21)
(7.93468 0.0787684 2.887e-24)
(7.92871 0.0645638 5.10659e-22)
(7.94086 0.0545424 -3.88272e-23)
(7.93368 0.0685788 0)
(7.91144 0.0965139 -4.65035e-23)
(7.93506 0.0640436 -3.69769e-23)
(7.89665 0.0792563 2.77503e-20)
(7.95046 0.0571726 -5.63898e-21)
(7.93327 0.0721601 -4.71518e-23)
(7.94451 0.0601936 -5.18578e-23)
(7.94641 0.113421 -3.53085e-20)
(7.93333 0.0671684 -3.51563e-21)
(7.9355 0.0611121 -1.57474e-23)
(7.92026 0.0552973 -6.05371e-23)
(7.92612 0.0761235 2.7427e-20)
(7.93834 0.0513151 1.85923e-23)
(7.95711 0.0614529 -7.48276e-24)
(7.93524 0.0696228 -1.60155e-23)
(7.95592 0.0517229 1.82308e-21)
(7.95674 0.0582792 1.51131e-22)
(7.8951 0.11222 5.43389e-23)
(7.92784 0.0681115 9.55889e-23)
(7.94291 0.0613318 6.38282e-21)
(7.93399 0.0686721 5.66365e-23)
(7.94638 0.0459395 6.11116e-21)
(7.8896 0.0760045 -3.41219e-23)
(7.96194 0.0603396 -2.3342e-23)
(7.96384 0.0572055 -2.91448e-23)
(7.92982 0.0671017 -4.70186e-21)
(7.94182 0.0651024 -5.864e-24)
(7.95432 0.0520308 -8.34749e-23)
(7.95358 0.051297 -4.96524e-23)
(7.95921 0.0538376 4.30167e-22)
(7.9422 0.119847 0)
(7.93329 0.0607015 4.68304e-23)
(7.93026 0.0712985 -7.7809e-22)
(7.95729 0.0515348 -3.75289e-23)
(7.93851 0.0449276 -6.44452e-21)
(7.91815 0.0525793 -5.18118e-23)
(7.92347 0.0765015 2.60711e-20)
(7.96756 0.0529065 2.08348e-21)
(7.96606 0.0513835 -4.38889e-23)
(7.95378 0.0571561 -3.46804e-21)
(7.94596 0.0614202 -5.25039e-23)
(7.95032 0.0545303 -2.37882e-23)
(7.95149 0.0497116 0)
(7.95421 0.0496278 0)
(7.96291 0.049656 -3.48866e-23)
(7.95844 0.0496021 -1.72989e-23)
(7.9239 0.085202 0)
(7.89583 0.124412 0)
(7.93176 0.0694536 -5.21913e-23)
(7.93733 0.0674786 0)
(7.93197 0.0710711 1.67927e-21)
(7.96722 0.0506402 -5.0969e-23)
(7.94916 0.0461517 5.83412e-21)
(7.89032 0.0735835 2.25829e-23)
(7.96591 0.048383 -3.85385e-22)
(7.94271 0.065423 -3.89018e-23)
(7.94352 0.0612274 9.30356e-27)
(7.94605 0.0511439 0)
(7.94481 0.0545451 2.86717e-23)
(7.94882 0.0483589 0)
(7.95133 0.0456588 0)
(7.95588 0.0487193 7.87565e-24)
(7.9554 0.0461272 -5.73572e-24)
(7.95795 0.0470206 8.1553e-23)
(7.93877 0.0759221 0)
(7.92273 0.0769811 0)
(7.95559 0.126189 -1.07386e-23)
(7.93433 0.0765476 3.76481e-23)
(7.93607 0.0691251 3.43538e-22)
(7.97153 0.0481032 5.57061e-22)
(7.97065 0.046157 -1.17143e-23)
(7.96153 0.0486058 -6.86026e-24)
(7.94524 0.0453352 -3.34948e-21)
(7.92767 0.0479463 -1.22357e-23)
(7.92466 0.0692571 4.18121e-23)
(7.96755 0.0457935 -9.64533e-24)
(7.96399 0.0456453 -1.11185e-22)
(7.94115 0.0578194 1.36948e-23)
(7.93861 0.0606011 -1.5452e-23)
(7.9452 0.0473344 0)
(7.94024 0.0527985 -2.74869e-23)
(7.95449 0.0433983 -6.54986e-24)
(7.95216 0.0424068 0)
(7.95641 0.0432858 -1.09512e-22)
(7.96012 0.0448931 -9.77345e-23)
(7.95836 0.0438825 3.03372e-23)
(7.92657 0.086321 6.97369e-23)
(7.92938 0.081559 -6.8293e-23)
(7.92174 0.0966719 2.20871e-23)
(7.91033 0.135782 1.13651e-24)
(7.92793 0.0830958 -2.15304e-21)
(7.93234 0.0751325 2.52485e-23)
(7.93333 0.0713222 2.59835e-23)
(7.93392 0.0677528 1.69796e-22)
(7.97268 0.0455559 -2.26693e-23)
(7.97003 0.0433442 1.81713e-22)
(7.9602 0.0432356 -1.09656e-23)
(7.89654 0.0674742 3.49682e-20)
(7.96231 0.0424612 -3.77291e-23)
(7.9342 0.0630809 1.78632e-23)
(7.93377 0.058374 2.55733e-24)
(7.94257 0.0458108 0)
(7.94568 0.0434017 1.00646e-23)
(7.93974 0.0487947 2.98105e-23)
(7.93648 0.051515 2.83422e-23)
(7.94913 0.0416857 9.79704e-24)
(7.9532 0.0388776 -6.32978e-24)
(7.95881 0.0409396 -1.12516e-22)
(7.92682 0.0882749 -2.11477e-21)
(7.91055 0.0850171 -1.05037e-20)
(7.96934 0.127701 -8.20941e-20)
(7.9303 0.0743372 1.79882e-22)
(7.93044 0.0661133 5.59815e-23)
(7.97301 0.0406607 0)
(7.97542 0.0412344 5.26708e-25)
(7.96795 0.0411782 7.68328e-23)
(7.97143 0.0410033 7.52714e-24)
(7.96888 0.0362465 0)
(7.93508 0.0430927 1.29656e-21)
(7.92257 0.0661825 2.11363e-20)
(7.96476 0.0403131 7.23245e-24)
(7.96315 0.0394684 0)
(7.93413 0.0543868 -4.67257e-22)
(7.93033 0.0568277 2.18272e-24)
(7.94022 0.0450921 1.28718e-23)
(7.94685 0.0399839 -5.6837e-23)
(7.93414 0.0504299 8.30051e-24)
(7.95309 0.0366977 4.68819e-24)
(7.95543 0.0368423 1.00215e-22)
(7.96191 0.0384016 -1.9566e-23)
(7.95948 0.0377453 -2.22493e-23)
(7.92552 0.0830127 -6.30256e-23)
(7.91926 0.0892765 2.01102e-21)
(7.91564 0.0895757 -4.45009e-24)
(7.91684 0.0823786 -5.52257e-21)
(7.91686 0.0869007 5.01567e-23)
(7.91008 0.139238 2.66855e-22)
(7.92826 0.0784758 -1.27193e-22)
(7.92686 0.0748745 -1.22885e-22)
(7.92613 0.0698905 -2.89375e-23)
(7.92501 0.0648378 -7.58628e-23)
(7.97387 0.0405174 -1.03213e-23)
(7.97576 0.0391906 -1.51826e-22)
(7.9662 0.038642 1.28341e-22)
(7.97096 0.0386118 -6.22055e-23)
(7.96507 0.0337327 -4.18876e-24)
(7.9731 0.0361284 -1.28958e-24)
(7.9729 0.0327605 4.06498e-21)
(7.89511 0.063438 -1.27997e-24)
(7.96437 0.0364658 0)
(7.9278 0.057438 0)
(7.92937 0.0534036 0)
(7.93762 0.0446523 2.35762e-23)
(7.94091 0.0420866 2.41388e-22)
(7.94567 0.0384242 3.4225e-23)
(7.94857 0.0372485 -4.75119e-22)
(7.93125 0.0497587 5.30273e-24)
(7.93409 0.046726 -5.13894e-22)
(7.95124 0.0351739 1.34041e-23)
(7.95286 0.0339771 3.71404e-22)
(7.957 0.0359934 -3.03844e-23)
(7.95545 0.0340099 2.62798e-22)
(7.96035 0.033557 0)
(7.92371 0.0805749 -8.78079e-22)
(7.92031 0.096224 -5.74833e-22)
(7.91032 0.0838374 -8.04274e-21)
(7.97998 0.15711 0)
(7.92217 0.074178 -3.84072e-22)
(7.925 0.0614384 3.71915e-23)
(7.9212 0.064363 3.66246e-23)
(7.97658 0.0370256 -1.48611e-24)
(7.97423 0.036731 2.25571e-23)
(7.96829 0.0368897 -1.23647e-23)
(7.96727 0.0362149 -1.72839e-24)
(7.97042 0.0362561 8.12669e-24)
(7.97506 0.0366454 -5.00448e-22)
(7.96476 0.0308217 2.49371e-24)
(7.97746 0.0371495 -5.54883e-25)
(7.93521 0.037266 -2.51284e-23)
(7.92636 0.0619776 2.22941e-20)
(7.96709 0.0349501 6.63866e-26)
(7.96566 0.0337218 0)
(7.92506 0.0572609 2.46266e-23)
(7.92821 0.049635 9.78885e-26)
(7.93468 0.0431582 -5.45789e-23)
(7.94341 0.0384895 2.43411e-23)
(7.93966 0.0380883 2.54995e-23)
(7.94571 0.0352174 -1.5947e-22)
(7.94981 0.0337285 3.18273e-23)
(7.95557 0.0319984 -2.37598e-22)
(7.96371 0.0319032 0)
(7.96191 0.0301749 0)
(7.9196 0.0823532 6.32784e-22)
(7.91987 0.0875042 9.40839e-23)
(7.92146 0.0963949 4.03584e-23)
(7.92055 0.0970091 -1.58199e-21)
(7.92402 0.0899789 -7.46198e-24)
(7.92307 0.118532 1.1737e-22)
(7.93706 0.135877 4.88506e-22)
(7.91928 0.078371 7.38609e-23)
(7.91854 0.0733746 3.08101e-23)
(7.91827 0.0660921 8.88584e-23)
(7.91994 0.0617498 0)
(7.97262 0.0342981 3.65092e-22)
(7.96925 0.0335496 -7.39807e-23)
(7.97913 0.0369597 -2.44561e-24)
(7.97572 0.0334538 5.05503e-25)
(7.97239 0.0295442 0)
(7.97925 0.0363042 1.49335e-21)
(7.90146 0.0591667 3.15985e-23)
(7.96675 0.0304423 -5.21857e-24)
(7.9219 0.0583554 2.16684e-23)
(7.92338 0.0548276 3.23512e-22)
(7.9236 0.05034 -3.79168e-22)
(7.92588 0.0463614 -4.70768e-23)
(7.93555 0.0384063 -1.03192e-22)
(7.9322 0.0400896 -3.20434e-23)
(7.93796 0.0349542 4.49489e-23)
(7.94828 0.0327101 -4.16028e-23)
(7.94529 0.032255 -9.05244e-23)
(7.95104 0.0307845 -9.02874e-24)
(7.95837 0.029316 -1.31855e-23)
(7.9561 0.0295831 -1.30079e-23)
(7.96055 0.0283783 0)
(7.9636 0.027115 0)
(7.91612 0.0819565 -5.06407e-23)
(7.91274 0.093729 1.58952e-23)
(7.90004 0.101945 1.38049e-20)
(7.92672 0.0873798 -5.46831e-22)
(7.89261 0.137613 -9.18613e-20)
(7.91608 0.0705635 4.67484e-22)
(7.91383 0.0744267 4.85289e-23)
(7.91315 0.0672258 9.94123e-23)
(7.9183 0.0591622 0)
(7.97405 0.0319 2.21862e-23)
(7.97263 0.0323712 -5.01536e-24)
(7.97141 0.0321121 -1.42421e-22)
(7.97038 0.0307809 -2.54702e-23)
(7.97481 0.0315092 0)
(7.97698 0.030971 0)
(7.96728 0.0287655 0)
(7.97908 0.0335341 -3.41378e-24)
(7.97967 0.0325034 -6.93052e-24)
(7.98203 0.0343251 -1.00014e-23)
(7.94386 0.0327715 0)
(7.93772 0.0587947 0)
(7.96936 0.0289002 -1.0345e-23)
(7.96791 0.0275289 -1.27396e-23)
(7.92007 0.0519962 -4.7976e-23)
(7.9284 0.042403 -1.40762e-23)
(7.92378 0.0431486 7.18679e-22)
(7.92983 0.0371911 -1.27252e-22)
(7.94115 0.0319322 -3.45865e-23)
(7.93774 0.031824 1.28042e-23)
(7.94424 0.0287924 -6.00399e-23)
(7.95418 0.0290525 -1.34501e-24)
(7.95149 0.0274862 -1.22057e-23)
(7.95947 0.0262139 0)
(7.95631 0.0268167 -9.61793e-24)
(7.96644 0.026039 -5.08706e-24)
(7.96522 0.0241469 -4.33269e-23)
(7.91298 0.0788581 8.74731e-23)
(7.91232 0.0842849 5.6252e-23)
(7.90419 0.0933433 2.30923e-21)
(7.91258 0.0887618 -9.50837e-23)
(7.89554 0.103493 1.02243e-22)
(7.907 0.096033 5.57293e-21)
(7.92307 0.086707 2.52593e-22)
(7.93633 0.175799 1.32499e-22)
(7.9102 0.0757977 -4.31744e-23)
(7.90831 0.0679597 0)
(7.91084 0.063075 0)
(7.91657 0.0550396 -3.41645e-23)
(7.91456 0.0586472 0)
(7.97603 0.0297484 0)
(7.97363 0.0300425 -2.02009e-23)
(7.97145 0.0279998 -5.27564e-23)
(7.979 0.0301712 -1.42208e-23)
(7.97736 0.0286995 1.41136e-23)
(7.98182 0.0325356 1.41375e-21)
(7.91518 0.0594685 0)
(7.96922 0.0247549 -4.56476e-24)
(7.91633 0.0512379 -6.41078e-23)
(7.92275 0.0380951 5.67586e-23)
(7.9198 0.0425057 1.37473e-22)
(7.92655 0.0348683 -5.37144e-24)
(7.9309 0.0325857 2.28285e-22)
(7.93511 0.0304021 5.62213e-23)
(7.93839 0.0275642 0)
(7.94402 0.0262246 -3.35835e-23)
(7.94695 0.0263791 2.13113e-22)
(7.94954 0.0255624 -2.76011e-23)
(7.95227 0.0243469 -1.20886e-22)
(7.95809 0.0242235 3.78521e-23)
(7.96052 0.0228925 -2.83894e-23)
(7.95577 0.0236356 -1.04464e-22)
(7.96374 0.0222596 -2.09087e-22)
(7.96663 0.0213991 -7.69351e-23)
(7.91143 0.0883955 0)
(7.90837 0.0863671 -5.3023e-23)
(7.91161 0.0898553 2.44589e-22)
(7.89706 0.104645 1.9759e-22)
(7.94886 0.105119 1.30712e-22)
(7.90825 0.111997 -1.19399e-22)
(7.92561 0.112887 -7.51696e-21)
(7.85861 0.162714 1.53115e-22)
(7.90721 0.073404 0)
(7.90643 0.0779959 8.77982e-23)
(7.9041 0.0696847 -1.08346e-23)
(7.90909 0.0586915 -9.92737e-23)
(7.97671 0.0276347 1.10497e-23)
(7.97811 0.0278902 2.10637e-23)
(7.97362 0.0276053 -4.7538e-24)
(7.9752 0.0277186 9.34452e-24)
(7.97297 0.0258889 -6.13659e-24)
(7.9794 0.0285656 4.53097e-24)
(7.98014 0.0285468 -3.25626e-23)
(7.98299 0.0287343 -4.45346e-22)
(7.97966 0.0241132 1.4679e-23)
(7.98255 0.029157 -3.86988e-24)
(7.95026 0.0683166 6.68851e-23)
(7.94971 0.0297648 0)
(7.97122 0.0235202 -4.35363e-24)
(7.97021 0.0221425 -5.47182e-23)
(7.91683 0.0474515 4.71654e-22)
(7.91255 0.0505675 -9.84975e-23)
(7.92259 0.0339282 -3.23951e-23)
(7.91608 0.0421921 3.19777e-23)
(7.93217 0.0275876 -8.88456e-23)
(7.94193 0.0248885 -1.91543e-23)
(7.93862 0.0232144 4.84414e-23)
(7.94445 0.02255 -3.38805e-22)
(7.94878 0.0232083 -3.86516e-23)
(7.95481 0.0217346 2.78192e-23)
(7.96213 0.0199938 -2.74843e-23)
(7.96938 0.0202777 1.93613e-22)
(7.968 0.018578 -1.08227e-22)
(7.90588 0.0831125 4.92657e-23)
(7.90436 0.0882639 -6.21004e-23)
(7.906 0.0985138 9.96815e-22)
(7.90708 0.0934224 1.71836e-21)
(7.89596 0.103364 1.25693e-22)
(7.93263 0.0743834 -3.104e-23)
(7.89282 0.104627 5.1898e-21)
(7.89355 0.116624 -2.76154e-22)
(7.93255 0.151056 -8.18158e-23)
(7.90202 0.0800343 1.44288e-22)
(7.89992 0.0667976 6.90286e-23)
(7.89953 0.0726597 1.4106e-23)
(7.90852 0.0532786 -1.21787e-22)
(7.90474 0.0569155 1.44607e-23)
(7.97671 0.0257817 9.60898e-23)
(7.97935 0.0277629 1.29123e-22)
(7.97976 0.0257303 1.97052e-23)
(7.97282 0.0239999 -5.63261e-24)
(7.97477 0.0239615 -8.15943e-24)
(7.98082 0.0268342 2.97993e-24)
(7.98225 0.0271505 -1.62904e-23)
(7.97097 0.0204215 0)
(7.97928 0.0271329 -2.29984e-23)
(7.93702 0.0541773 4.50884e-20)
(7.97639 0.0210238 0)
(7.97316 0.0218149 -6.95671e-23)
(7.97123 0.0197622 -5.76996e-23)
(7.90986 0.0491107 1.06261e-23)
(7.91877 0.0324016 0)
(7.9233 0.0298471 -3.07362e-23)
(7.91148 0.0439499 1.77019e-23)
(7.91337 0.0395883 4.19448e-23)
(7.93311 0.0237735 7.06591e-23)
(7.92945 0.0257592 -9.90522e-24)
(7.9354 0.0208361 1.01187e-22)
(7.9388 0.0184567 5.0021e-22)
(7.94759 0.0210776 -3.95205e-23)
(7.94529 0.0196035 -4.24117e-23)
(7.95039 0.0203589 -2.52809e-22)
(7.95367 0.0195292 -2.46761e-23)
(7.95701 0.0185219 0)
(7.96434 0.0179338 -3.14142e-23)
(7.96138 0.018278 0)
(7.96662 0.0170614 -2.00218e-22)
(7.96932 0.0160674 1.29399e-22)
(7.90246 0.0914637 1.22398e-21)
(7.89923 0.0885732 5.31421e-22)
(7.90278 0.0961808 -2.91409e-23)
(7.89438 0.101851 6.15182e-22)
(7.91174 0.10426 -2.22189e-22)
(7.91556 0.0888988 -1.59277e-20)
(7.901 0.105067 2.4688e-21)
(7.89582 0.109035 -1.46432e-22)
(7.87308 0.152131 5.71257e-20)
(7.89834 0.0782063 2.23762e-22)
(7.89746 0.0826531 1.73842e-22)
(7.8998 0.0601747 -8.93959e-24)
(7.89462 0.064115 5.37807e-22)
(7.89541 0.0759126 2.14041e-23)
(7.90058 0.0541405 -1.24671e-22)
(7.97654 0.0239042 5.70419e-25)
(7.97819 0.0238211 1.09936e-23)
(7.98004 0.0236672 0)
(7.98153 0.0237795 -5.68503e-24)
(7.9765 0.0219725 2.58497e-23)
(7.9821 0.0246667 -2.02925e-23)
(7.98234 0.0256539 2.31633e-22)
(7.98278 0.0260627 -1.75157e-23)
(7.98309 0.0266236 -3.17004e-23)
(7.98319 0.0284268 8.85756e-22)
(7.98057 0.0314401 8.03872e-22)
(7.97127 0.030498 -6.79941e-23)
(7.96505 0.0481911 -6.06803e-23)
(7.97797 0.0307132 -4.52568e-24)
(7.97314 0.0197216 -9.14576e-24)
(7.97475 0.0199495 -5.305e-24)
(7.97305 0.0178862 6.39731e-23)
(7.90739 0.0462512 8.80855e-24)
(7.91475 0.0338218 -7.32305e-23)
(7.91614 0.0289059 0)
(7.92651 0.0265525 4.03296e-23)
(7.9223 0.0254433 -4.87147e-23)
(7.90969 0.0361239 -3.064e-22)
(7.93222 0.0189646 -3.55893e-22)
(7.92724 0.0223871 9.69428e-23)
(7.94286 0.0171859 2.04309e-23)
(7.93979 0.0147005 1.42777e-23)
(7.94629 0.0160733 -2.64962e-23)
(7.952 0.0171959 4.54206e-23)
(7.95967 0.0170509 0)
(7.95776 0.0149259 0)
(7.96569 0.0152578 -1.28972e-23)
(7.96181 0.0150923 1.67478e-23)
(7.97004 0.013248 1.54648e-23)
(7.97172 0.0148277 -3.75723e-23)
(7.89493 0.087146 -1.27904e-22)
(7.89889 0.100962 1.51549e-22)
(7.90027 0.0978863 -3.47239e-23)
(7.89517 0.103042 -3.09958e-23)
(7.92567 0.0969749 -2.62287e-22)
(7.89509 0.107935 -1.44658e-22)
(7.89457 0.111245 1.88564e-22)
(7.95384 0.157233 7.39189e-23)
(7.89201 0.0681463 9.68784e-23)
(7.89064 0.0623887 1.162e-22)
(7.89204 0.0724927 0)
(7.89162 0.0785255 -6.79957e-23)
(7.90232 0.0487192 -1.53177e-23)
(7.89703 0.0507809 -1.58091e-23)
(7.97986 0.0218767 1.96578e-23)
(7.98313 0.0225728 7.58272e-23)
(7.97642 0.0200447 -8.1061e-24)
(7.97815 0.0201052 1.02608e-23)
(7.98319 0.0248008 -1.48672e-23)
(7.98685 0.0252471 -1.2575e-21)
(7.98084 0.0276277 -6.00754e-24)
(7.9775 0.0392842 -3.05903e-21)
(7.97528 0.0555424 3.21546e-23)
(7.97653 0.0181465 -2.5051e-25)
(7.97331 0.0160903 -2.37078e-22)
(7.97516 0.0163219 -2.1954e-23)
(7.90355 0.0430674 -5.21212e-23)
(7.91817 0.0241917 -2.51295e-23)
(7.91386 0.0245082 2.97961e-24)
(7.92045 0.0210832 -1.40722e-22)
(7.9053 0.0388151 5.92244e-23)
(7.90634 0.0330964 1.53347e-23)
(7.92753 0.0183926 7.21873e-22)
(7.93053 0.0155699 2.4905e-22)
(7.92438 0.0189276 -2.36485e-22)
(7.94141 0.0109476 -1.09607e-22)
(7.93742 0.0116055 1.54266e-23)
(7.94966 0.0149291 2.80142e-22)
(7.94723 0.0128885 -2.75816e-23)
(7.95315 0.0139137 -3.55499e-23)
(7.95601 0.012668 2.2313e-23)
(7.95851 0.0118094 0)
(7.96416 0.0137901 4.49199e-23)
(7.96634 0.0129835 9.07509e-24)
(7.96251 0.0126799 2.94252e-23)
(7.96844 0.0118566 -2.8088e-23)
(7.97052 0.0109721 -8.88864e-23)
(7.97363 0.0135141 -1.92357e-23)
(7.8934 0.0916498 7.08219e-22)
(7.89077 0.0865942 -2.09279e-22)
(7.8951 0.095521 -4.11422e-23)
(7.8967 0.100686 -8.77059e-23)
(7.89352 0.107635 -5.93642e-22)
(7.91419 0.126706 -2.17736e-25)
(7.90515 0.109554 0)
(7.90138 0.110091 2.07102e-22)
(7.89688 0.115034 4.75447e-23)
(7.91809 0.143453 -3.34633e-21)
(7.8877 0.0706686 -1.87343e-23)
(7.88472 0.0635564 -2.01774e-23)
(7.88879 0.058579 0)
(7.88846 0.0833353 -3.29959e-24)
(7.88563 0.0798268 -6.67884e-23)
(7.89193 0.0523537 0)
(7.89338 0.0462299 -1.23011e-22)
(7.97978 0.0200352 1.14917e-23)
(7.98155 0.0200034 2.80194e-23)
(7.98398 0.0206775 -1.67509e-23)
(7.98493 0.0216171 -1.48947e-23)
(7.97987 0.0182406 1.94738e-23)
(7.98481 0.0226538 -1.00939e-23)
(7.98484 0.0237696 -4.447e-24)
(7.98629 0.0242082 -1.36425e-22)
(7.98748 0.0234619 -3.39243e-23)
(7.98329 0.0276066 1.87917e-23)
(7.98595 0.0245765 -1.65702e-23)
(7.99185 0.0237098 1.51545e-23)
(7.95192 0.0454787 1.67443e-23)
(7.97671 0.0162756 0)
(7.97825 0.0163977 0)
(7.97661 0.0147059 0)
(7.90011 0.0402503 -4.85992e-23)
(7.91083 0.0204747 1.75475e-23)
(7.90948 0.0248668 2.82233e-24)
(7.91992 0.0172276 1.39479e-22)
(7.90606 0.0283804 -3.03035e-23)
(7.90108 0.0320503 -3.07133e-23)
(7.93392 0.0117215 -5.36023e-23)
(7.92904 0.0112291 5.95913e-22)
(7.94492 0.0104275 -9.24341e-23)
(7.94296 0.00743102 -7.67427e-23)
(7.9362 0.00766516 -1.67664e-22)
(7.94831 0.00979528 -4.19956e-23)
(7.9536 0.010553 1.80847e-25)
(7.96093 0.0113387 1.52216e-23)
(7.9594 0.00928011 -1.99441e-24)
(7.96687 0.0104648 -5.46421e-23)
(7.96317 0.0105612 -3.61197e-23)
(7.97124 0.0086889 -1.24995e-23)
(7.97271 0.0100941 -1.25094e-23)
(7.97599 0.0126352 0)
(7.97446 0.0114577 0)
(7.88916 0.0949489 -4.88449e-23)
(7.88559 0.0884285 -7.06765e-23)
(7.89504 0.105472 -6.36513e-23)
(7.8906 0.102537 -5.672e-23)
(7.89361 0.113817 1.57097e-22)
(7.89371 0.110966 -3.77213e-22)
(7.9044 0.12106 -1.34629e-22)
(7.89461 0.118253 -6.82288e-23)
(7.85255 0.116592 -8.0219e-25)
(7.9573 0.0924475 -1.71069e-22)
(7.88398 0.069073 -1.80656e-22)
(7.88368 0.0736505 -2.11298e-23)
(7.88057 0.0656212 -2.08345e-23)
(7.88527 0.0532059 -9.35231e-23)
(7.88066 0.0782158 1.96806e-23)
(7.89559 0.0408929 -1.07951e-22)
(7.8898 0.0412798 -3.18014e-22)
(7.98307 0.0197696 9.2301e-24)
(7.98291 0.017956 -1.37677e-22)
(7.98502 0.0188001 1.8532e-22)
(7.98639 0.0207368 -7.76909e-23)
(7.97991 0.0164112 0)
(7.98155 0.016432 0)
(7.98561 0.0226495 2.3815e-24)
(7.98811 0.0234172 8.19661e-22)
(7.98785 0.0226529 -1.55627e-23)
(7.98833 0.0247896 -1.47499e-23)
(7.99234 0.0265443 0)
(7.98537 0.0205456 0)
(7.97535 0.0231125 1.3365e-23)
(7.97641 0.0429836 -1.24883e-20)
(7.97997 0.014634 -2.42088e-23)
(7.97772 0.0126283 -1.64044e-23)
(7.89787 0.0358416 1.01191e-22)
(7.90704 0.0164751 -6.27609e-23)
(7.91173 0.0157957 -7.46462e-23)
(7.90411 0.0237112 -4.32847e-23)
(7.91588 0.0147943 -2.77321e-22)
(7.92078 0.0127983 -3.74311e-23)
(7.89592 0.0312574 -2.45512e-24)
(7.9245 0.00991992 9.07079e-23)
(7.92835 0.00617062 7.32108e-23)
(7.94487 0.00477684 5.64855e-24)
(7.94148 0.00490876 -2.3171e-23)
(7.9388 0.00392316 -1.63731e-22)
(7.93525 0.00350083 1.56744e-22)
(7.95101 0.00903861 -1.75238e-23)
(7.94941 0.00683895 0)
(7.95375 0.00798103 1.93687e-22)
(7.95837 0.00708013 1.6978e-24)
(7.96089 0.00728834 1.38259e-23)
(7.96514 0.00921537 1.78881e-23)
(7.96742 0.00803793 -8.82342e-25)
(7.9633 0.00792729 -4.54107e-23)
(7.96969 0.00680654 -1.30534e-23)
(7.97217 0.00583482 0)
(7.97518 0.00914484 1.90478e-23)
(7.88547 0.0941652 -3.49312e-23)
(7.88578 0.0982046 -7.88843e-22)
(7.88173 0.0912535 0)
(7.89186 0.112624 -8.17474e-23)
(7.88445 0.102693 -3.47632e-23)
(7.93305 0.122561 -1.05514e-20)
(7.89791 0.136314 -6.49764e-24)
(7.89176 0.12882 -1.7732e-21)
(7.89099 0.1231 1.65187e-22)
(7.91941 0.261594 0)
(7.96956 0.0972418 -1.64276e-22)
(7.87488 0.06915 2.26961e-23)
(7.87614 0.0624943 -2.26633e-22)
(7.87783 0.054773 -8.34698e-22)
(7.88081 0.0482854 1.23919e-22)
(7.87498 0.0756699 3.55208e-23)
(7.87567 0.0828412 1.93122e-22)
(7.88412 0.0414938 8.09585e-23)
(7.88674 0.0355148 -4.70178e-22)
(7.98299 0.0164292 1.0321e-23)
(7.98435 0.0164156 2.37847e-23)
(7.9858 0.016582 -1.26005e-22)
(7.98665 0.0174859 1.59255e-23)
(7.98732 0.0190032 -1.26375e-23)
(7.9877 0.0198351 9.55117e-23)
(7.98325 0.0147646 2.42427e-24)
(7.98704 0.0216234 5.79957e-24)
(7.98708 0.0208355 1.96152e-23)
(7.988 0.0215149 0)
(7.9892 0.0222989 0)
(7.99051 0.0245409 2.66597e-24)
(7.99272 0.0264444 2.13189e-24)
(7.99251 0.0261706 0)
(7.98811 0.0214587 0)
(7.96003 0.0416336 -2.92446e-23)
(7.97969 0.0127661 -6.03888e-23)
(7.9815 0.0128692 -5.61825e-23)
(7.97921 0.0108246 -3.35593e-23)
(7.90197 0.0180763 -8.80584e-22)
(7.90305 0.013544 -4.1195e-22)
(7.91393 0.0110129 -5.86313e-23)
(7.89893 0.0213112 -6.63255e-23)
(7.92082 0.00766079 -2.56762e-23)
(7.89009 0.0301721 -2.06991e-22)
(7.89398 0.0251551 6.08526e-24)
(7.93167 0.00336281 -2.90698e-22)
(7.92799 0.00268485 -5.63315e-22)
(7.94795 0.00399238 5.919e-24)
(7.94668 0.00152018 -6.79125e-23)
(7.94144 0.000979823 -2.52131e-23)
(7.93415 -2.80484e-05 -1.66351e-22)
(7.95061 0.00390867 0)
(7.9557 0.00610657 -1.53565e-23)
(7.9534 0.00467168 -1.39779e-23)
(7.95809 0.00388998 -3.9757e-23)
(7.96306 0.00570985 2.27826e-24)
(7.96777 0.00531747 -3.10067e-23)
(7.97442 0.00543466 0)
(7.97311 0.0037035 -4.74501e-23)
(7.97581 0.00666645 1.64673e-23)
(7.97729 0.00804517 2.69471e-24)
(7.87605 0.0899047 1.70072e-22)
(7.87679 0.0962153 0)
(7.88898 0.117979 -3.55012e-23)
(7.88524 0.112618 1.77618e-22)
(7.87881 0.102477 0)
(7.88146 0.107833 1.48528e-22)
(7.88941 0.14079 -9.69137e-23)
(7.88981 0.12243 0)
(7.89011 0.127869 0)
(8.0335 0.236978 4.05618e-23)
(7.98896 0.150589 8.5692e-21)
(7.9347 0.13155 -2.02216e-20)
(7.86985 0.0726335 2.26818e-23)
(7.87107 0.0572973 -7.50773e-23)
(7.87615 0.0419856 8.9902e-22)
(7.86954 0.0877898 2.72658e-22)
(7.88391 0.0290523 -4.43945e-22)
(7.98607 0.0150529 1.58582e-23)
(7.98829 0.0165258 0)
(7.989 0.0190141 -1.38553e-23)
(7.98331 0.0129158 -9.23434e-24)
(7.98488 0.0131464 1.73705e-23)
(7.98984 0.0203059 0)
(7.99284 0.0218418 -1.13601e-22)
(7.99103 0.0236274 0)
(7.99403 0.022447 0)
(7.98707 0.0223124 5.63338e-24)
(7.97968 0.0243673 -7.98253e-22)
(7.97835 0.0350489 1.85953e-20)
(7.983 0.011172 -4.4442e-23)
(7.97887 0.00912332 -1.60511e-22)
(7.9808 0.00943529 -1.7659e-23)
(7.89932 0.00869303 2.01378e-23)
(7.90546 0.00691826 -1.63389e-23)
(7.91661 0.00639467 1.26864e-22)
(7.91214 0.0061787 4.02675e-23)
(7.89291 0.01863 5.69539e-24)
(7.92045 0.00341308 8.43729e-23)
(7.92511 0.000895624 -1.09055e-22)
(7.92833 -0.00139084 -3.73003e-23)
(7.94489 -0.000587491 -5.79123e-23)
(7.94797 -0.00159579 -1.31474e-22)
(7.94212 -0.00225949 -1.2464e-23)
(7.93205 -0.0028676 0)
(7.93574 -0.00367775 -4.60096e-23)
(7.95307 0.00195018 -8.16278e-24)
(7.95824 0.00114346 -1.69011e-22)
(7.9606 0.00218757 -7.59645e-23)
(7.96523 0.00422866 -3.79993e-23)
(7.96304 0.00322609 -5.29201e-23)
(7.96783 0.00278221 3.28972e-23)
(7.97645 0.0048917 3.44831e-24)
(7.97445 0.00210179 -1.21377e-22)
(7.97227 0.00192016 -2.49296e-22)
(7.97869 0.0068765 2.45535e-22)
(7.87321 0.101123 0)
(7.88705 0.123944 0)
(7.87882 0.113464 1.47525e-22)
(7.8963 0.136316 -3.97564e-22)
(7.88698 0.139197 1.33763e-21)
(7.8887 0.134845 -2.07773e-22)
(7.88782 0.132532 0)
(7.95468 0.222292 -4.2876e-20)
(7.91829 0.150861 -1.52116e-22)
(7.8635 0.0773359 4.13006e-23)
(7.86399 0.068966 -1.78733e-22)
(7.86431 0.0611911 -3.23946e-22)
(7.86446 0.053211 -2.25609e-22)
(7.86916 0.0415132 2.12926e-22)
(7.87325 0.0347809 2.41848e-22)
(7.86298 0.0853715 2.5629e-22)
(7.86336 0.0927954 2.11818e-22)
(7.87661 0.0276152 -1.93507e-22)
(7.88176 0.0213347 -2.15856e-22)
(7.98625 0.0132079 -1.46742e-24)
(7.98762 0.0133103 0)
(7.98972 0.0162998 0)
(7.98921 0.0148153 1.18102e-23)
(7.99013 0.0171188 -7.01349e-24)
(7.99032 0.0180128 -8.77277e-23)
(7.98649 0.0115406 -8.35251e-23)
(7.99073 0.0184398 -8.61315e-24)
(7.99154 0.0184722 0)
(7.99492 0.0202 2.04762e-24)
(7.99355 0.0194555 2.45928e-24)
(7.9961 0.0202971 0)
(7.99494 0.0202333 6.66861e-24)
(7.96576 0.0317395 -1.75406e-20)
(7.98254 0.0093991 -6.94383e-24)
(7.98431 0.00947209 -5.42997e-24)
(7.98177 0.00782136 -6.5661e-23)
(7.89248 0.0113884 3.53093e-23)
(7.89324 0.00494178 -2.90607e-23)
(7.90878 0.00179825 1.45323e-22)
(7.88717 0.0153634 -7.5377e-25)
(7.92047 -0.00122883 -5.3085e-23)
(7.92858 -0.00512258 1.54391e-23)
(7.94875 -0.00485624 -1.05193e-22)
(7.95085 -0.00245239 -6.35114e-23)
(7.93933 -0.00503103 -1.59582e-22)
(7.94297 -0.00672829 1.27041e-22)
(7.9359 -0.00841713 -7.9732e-23)
(7.95587 4.51498e-05 -5.3528e-23)
(7.95324 -0.00106263 -8.42968e-24)
(7.95848 -0.00172442 -4.78325e-23)
(7.96312 0.000535094 -8.47888e-23)
(7.97009 0.00116697 -2.40361e-23)
(7.96786 -1.27756e-05 -4.84338e-23)
(7.97675 0.00254773 -1.53398e-22)
(7.97821 0.00373223 -3.00011e-23)
(7.97665 0.00070338 3.27156e-23)
(7.97218 -0.000733144 -1.20609e-22)
(7.98067 0.00600085 5.47178e-24)
(7.97941 0.00506978 -1.39997e-23)
(7.86608 0.100206 0)
(7.86921 0.107159 0)
(7.88478 0.130232 0)
(7.88051 0.126469 -4.54338e-22)
(7.87242 0.11417 1.52633e-22)
(7.87567 0.119851 -5.98488e-22)
(7.88504 0.14046 -5.06959e-22)
(7.88529 0.136576 -8.71638e-23)
(7.92472 0.179682 -7.69673e-23)
(7.93238 0.175943 2.3404e-22)
(7.89802 0.155998 0)
(7.85585 0.0816443 4.17359e-23)
(7.85746 0.0652395 -5.57205e-22)
(7.86459 0.0475368 -8.75714e-23)
(7.85715 0.0505361 -5.02072e-22)
(7.86231 0.0394873 0)
(7.86989 0.0270361 0)
(7.85864 0.0988407 4.09588e-23)
(7.87933 0.0134293 3.54514e-23)
(7.98898 0.0114803 0)
(7.98852 0.0130377 1.04041e-23)
(7.99114 0.015683 -8.80788e-24)
(7.98921 0.0135873 3.44321e-23)
(7.99062 0.0135947 7.29504e-24)
(7.99191 0.0165178 -6.90753e-24)
(7.98632 0.00946451 -3.77777e-24)
(7.98803 0.00969238 -3.6538e-24)
(7.99283 0.018312 0)
(7.99299 0.0165028 0)
(7.99432 0.0174261 0)
(7.99719 0.0186388 0)
(7.99654 0.0178823 0)
(7.99705 0.0154109 5.67351e-24)
(7.98123 0.0297876 -9.27337e-21)
(7.98574 0.01632 2.31365e-23)
(7.98556 0.00779787 -8.62662e-24)
(7.98247 0.00593072 -2.41631e-24)
(7.88771 0.00144779 7.47698e-22)
(7.89508 -0.000828044 1.90364e-22)
(7.90558 -0.00302197 1.35902e-22)
(7.9123 -0.00333678 -1.35706e-22)
(7.91672 -0.00401395 1.43877e-22)
(7.92084 -0.00557732 1.75215e-23)
(7.92437 -0.00776824 4.49668e-23)
(7.92831 -0.00959543 1.68146e-24)
(7.94684 -0.00809681 -1.59083e-22)
(7.94953 -0.00847203 -6.87378e-22)
(7.95356 -0.00403383 1.89507e-23)
(7.94328 -0.010926 1.52843e-22)
(7.93216 -0.0112378 -2.14641e-23)
(7.93572 -0.0124866 -3.45327e-23)
(7.95843 -0.0048425 4.59604e-23)
(7.96102 -0.00350233 3.08697e-23)
(7.96558 -0.00108246 -2.81156e-23)
(7.96329 -0.00226855 6.25513e-24)
(7.96782 -0.00266484 6.95951e-24)
(7.98073 0.00276703 -1.02157e-23)
(7.97624 -0.00158749 8.72177e-23)
(7.97853 -0.00110707 -7.99264e-23)
(7.97412 -0.00223355 2.30839e-23)
(7.97194 -0.00307721 8.90563e-23)
(7.86533 0.114191 0)
(7.87247 0.127799 -1.16922e-21)
(7.8853 0.144188 -8.35354e-22)
(7.88515 0.14476 -2.32643e-22)
(7.88619 0.143284 -1.37649e-21)
(7.88214 0.14078 -1.10557e-22)
(7.93799 0.120267 -1.18164e-20)
(7.85711 0.199327 3.13838e-22)
(7.88932 0.14569 0)
(7.88836 0.153677 2.59975e-22)
(7.8481 0.0845498 1.07994e-22)
(7.84944 0.0752884 0)
(7.85194 0.0688753 -1.74717e-22)
(7.85101 0.0606072 -2.69185e-22)
(7.84971 0.0525771 -6.02059e-22)
(7.85114 0.0459789 -2.36906e-22)
(7.85456 0.039862 -1.02533e-23)
(7.85944 0.0340841 -5.91729e-23)
(7.863 0.0285781 -6.68783e-23)
(7.86512 0.0215822 1.85941e-23)
(7.85102 0.0978281 -1.38133e-22)
(7.85474 0.105901 2.76335e-22)
(7.87136 0.0109069 -4.92203e-23)
(7.87736 0.00593006 7.24267e-22)
(7.98931 0.0101284 0)
(7.99039 0.0102368 -1.39308e-24)
(7.99022 0.0119685 -7.24787e-23)
(7.9916 0.0139972 -1.15354e-23)
(7.9923 0.0145277 1.4458e-23)
(7.99187 0.012651 4.54333e-23)
(7.99269 0.0149836 -1.61816e-23)
(7.99308 0.0152579 3.41544e-23)
(7.98936 0.00833689 0)
(7.99363 0.0151175 -2.83301e-24)
(7.99434 0.0147994 -8.86978e-24)
(7.99579 0.0169528 0)
(7.99512 0.0155638 -7.95195e-24)
(7.99717 0.0162272 0)
(7.99533 0.0129911 -3.44415e-24)
(7.99712 0.0146163 4.93465e-22)
(7.97122 0.0256441 1.74166e-20)
(7.99943 0.0113474 -1.99061e-21)
(7.98454 0.00612017 -8.31751e-24)
(7.98661 0.00609793 7.47246e-23)
(7.98388 0.00424119 1.18454e-23)
(7.88276 0.00197374 2.2383e-22)
(7.88546 -0.00452527 1.07731e-22)
(7.89961 -0.00429871 6.55538e-23)
(7.89433 -0.0076956 -3.43596e-22)
(7.90325 -0.00952916 -7.62002e-23)
(7.91401 -0.00835684 1.47032e-22)
(7.92052 -0.0105691 1.80343e-23)
(7.92813 -0.0139594 2.0131e-22)
(7.95307 -0.00765604 -4.82625e-23)
(7.9516 -0.0106191 -1.51496e-22)
(7.95573 -0.00616084 9.00755e-23)
(7.93938 -0.013709 6.58961e-23)
(7.94311 -0.0147371 -5.70682e-24)
(7.93602 -0.0163613 -1.22419e-22)
(7.95814 -0.00789479 8.7951e-23)
(7.9634 -0.00510181 7.97375e-23)
(7.96992 -0.00406783 2.88847e-23)
(7.96772 -0.00519263 1.2312e-22)
(7.98155 0.000385897 -1.8221e-22)
(7.98311 0.0019906 1.94952e-23)
(7.97545 -0.00375063 -4.76071e-24)
(7.98016 -0.000905026 -1.93538e-22)
(7.97923 -0.00289997 -5.59524e-24)
(7.97148 -0.00536515 2.02103e-23)
(7.8576 0.11315 2.47776e-22)
(7.86096 0.121392 0)
(7.86446 0.128328 -4.14241e-22)
(7.86916 0.13576 -7.17625e-22)
(7.8862 0.149098 -9.76803e-22)
(7.88408 0.144469 0)
(7.87358 0.141825 -3.0136e-22)
(7.87869 0.148543 -1.20594e-22)
(7.9176 0.144927 9.5129e-21)
(7.96062 0.0940189 1.40289e-21)
(7.91453 0.233075 8.32979e-22)
(7.8835 0.155006 2.28762e-22)
(7.84735 0.092724 1.10059e-21)
(7.84082 0.0872078 -3.00227e-22)
(7.84456 0.0710673 -5.52865e-23)
(7.84343 0.0571695 9.26158e-23)
(7.84659 0.0409878 5.53563e-23)
(7.85544 0.0288452 -6.16168e-22)
(7.86533 0.0152045 -4.20385e-23)
(7.8578 0.0183001 2.99384e-23)
(7.84337 0.0995174 2.51569e-23)
(7.84966 0.113148 7.0266e-22)
(7.86493 0.00715909 -7.03296e-23)
(7.87623 -0.000535636 5.69426e-22)
(7.99111 0.0104173 -2.7486e-24)
(7.99155 0.00923295 -4.68913e-23)
(7.9916 0.0109039 -6.13235e-24)
(7.9931 0.0137211 -8.85326e-23)
(7.99252 0.0111861 -8.34321e-24)
(7.99327 0.0116531 -2.9034e-24)
(7.99407 0.0140155 -1.6355e-22)
(7.98954 0.00680622 0)
(7.99096 0.00743406 0)
(7.99513 0.0142363 9.25026e-23)
(7.99532 0.0131316 -9.42508e-24)