/*--------------------------------*- C++ -*----------------------------------*\
| =========                 |                                                 |
| \\      /  F ield         | OpenFOAM: The Open Source CFD Toolbox           |
|  \\    /   O peration     | Version:  v2012                                 |
|   \\  /    A nd           | Website:  www.openfoam.com                      |
|    \\/     M anipulation  |                                                 |
\*---------------------------------------------------------------------------*/
FoamFile
{
    version     2.0;
    format      ascii;
    class       volScalarField;
    location    "1.3";
    object      k;
}
// * * * * * * * * * * * * * * * * * * * * * * * * * * * * * * * * * * * * * //

dimensions      [0 2 -2 0 0 0 0];


internalField   nonuniform List<scalar> 
13611
(
0.00082966
0.000446601
0.001599
0.000312342
0.000251841
0.000272415
0.000366327
0.0010138
0.000280178
0.000253279
0.000277171
0.000560328
0.000274832
0.00172084
0.000280616
0.000240947
0.000280199
0.000262622
0.000502296
0.000256444
0.000925677
0.000274474
0.000275743
0.000280718
0.00027772
0.000270108
0.000341252
0.000237102
0.00149704
0.000269781
0.000272795
0.000274987
0.000273951
0.000278079
0.000263594
0.000311082
0.000248242
0.000910823
0.000268056
0.000268007
0.000273389
0.000271985
0.000275491
0.000268688
0.000298709
0.000231484
0.0016295
0.000493306
0.000266792
0.00026555
0.000266041
0.000267874
0.000269398
0.000273673
0.00027404
0.000268425
0.000244478
0.000245445
0.000904584
0.000510806
0.000263525
0.000264104
0.000262548
0.000264944
0.000265906
0.000266819
0.000264842
0.000268946
0.000271079
0.000269894
0.000224131
0.000242199
0.00146074
0.000352876
0.000262372
0.00026471
0.000261032
0.000261003
0.000261405
0.000262101
0.000261557
0.000264766
0.000269985
0.000265155
0.000270767
0.000219709
0.000257375
0.000877893
0.000334868
0.000263152
0.000264603
0.000259388
0.00025989
0.000259444
0.000265765
0.00025918
0.000259177
0.000258991
0.000263857
0.000260884
0.000266533
0.000206258
0.000260212
0.000646104
0.000230106
0.000264391
0.0002627
0.000258144
0.00026099
0.000257444
0.000266811
0.000268895
0.000256256
0.000256699
0.000256326
0.000259485
0.000255891
0.000259546
0.000265151
0.00021283
0.000248277
0.000265537
0.00141797
0.000317456
0.000194738
0.000265474
0.000264244
0.00025875
0.000260395
0.000255614
0.000270839
0.000254301
0.000254097
0.000254763
0.000254239
0.000254481
0.000257352
0.000194964
0.000255922
0.00026246
0.000707723
0.000215349
0.00017003
0.000267045
0.000264188
0.0002665
0.000258633
0.000261304
0.000254871
0.000270094
0.000273609
0.000252952
0.000252727
0.000252938
0.000251353
0.000250257
0.00025408
0.000209535
0.000241781
0.000261182
0.000255442
0.00026196
0.00137233
0.000311998
0.000150926
0.00026301
0.000266594
0.000268947
0.000258028
0.000260208
0.000253566
0.000256503
0.000272353
0.000275904
0.000251729
0.000251489
0.000251284
0.000249603
0.0002502
0.000246984
0.000247693
0.000172563
0.000248196
0.000256917
0.000252243
0.000254437
0.000668623
0.000203626
0.000264615
0.000268639
0.000266592
0.000271774
0.000259289
0.000261293
0.000254698
0.000256308
0.000275324
0.000278785
0.000252185
0.00025018
0.000247262
0.000248508
0.000245634
0.000245444
0.000165011
0.000246445
0.000255366
0.000252128
0.000250629
0.000246439
0.000302073
0.00134541
0.000161579
0.000263755
0.000270906
0.000268845
0.000274406
0.000259333
0.000260904
0.000253835
0.00025783
0.000277765
0.000281413
0.000251381
0.000250022
0.000247032
0.000248221
0.000244446
0.000242343
0.000201715
0.000253822
0.000251131
0.000244892
0.000245369
0.000243815
0.000213706
0.000610526
0.000152697
0.00026425
0.000271022
0.000273644
0.00026931
0.00027742
0.000260956
0.000262428
0.000255417
0.000258096
0.000280921
0.000252486
0.000249557
0.000246556
0.000248515
0.000243309
0.000245292
0.000241672
0.000241935
0.000184517
0.000256861
0.000252639
0.000242759
0.000241705
0.000240506
0.000242805
0.000271125
0.00016129
0.00123666
0.000266643
0.000273172
0.000275204
0.0002722
0.000268738
0.000280711
0.000262559
0.000261415
0.000254514
0.000257464
0.000260158
0.000283458
0.00025228
0.000250968
0.000247458
0.00025015
0.000243627
0.000245842
0.000241247
0.000240776
0.000202901
0.00024497
0.000250076
0.000246559
0.000238192
0.00023634
0.000237729
0.000240198
0.000170133
0.000145513
0.000707211
0.000266785
0.000274027
0.000278385
0.000273048
0.000270984
0.000281177
0.000283919
0.000264883
0.0002636
0.000255569
0.000258822
0.000260472
0.000287803
0.00029002
0.000253854
0.000248166
0.000251241
0.000242549
0.000244944
0.000247349
0.000240405
0.000239707
0.000171952
0.000251055
0.000244708
0.000238642
0.000234974
0.000235273
0.000237989
0.000239278
0.000218914
0.000483813
0.000268621
0.000277863
0.000280251
0.000275973
0.000270849
0.000285661
0.000287214
0.000265132
0.000263887
0.000257557
0.000258911
0.000262318
0.000290182
0.000296314
0.000255035
0.000250075
0.000253209
0.000243341
0.000245998
0.000248362
0.000240911
0.00023968
0.000185448
0.000245758
0.000238375
0.000235371
0.000234556
0.000232962
0.000235005
0.000236819
0.000239391
0.000104428
0.0012715
0.00018069
0.000268819
0.000278592
0.000284266
0.000277982
0.000273827
0.000289806
0.000286466
0.000290765
0.000266973
0.000265552
0.000258891
0.000260933
0.000262384
0.000295737
0.000298919
0.000257881
0.000254169
0.000250668
0.000253977
0.000242297
0.000245174
0.000247716
0.000249938
0.000240295
0.000174604
0.000238513
0.000243195
0.000231816
0.000231877
0.000232979
0.000234331
0.000237911
0.000239718
0.000119923
0.000639439
0.00010551
0.000271074
0.000282793
0.000286653
0.000277281
0.000282082
0.000273711
0.000293353
0.000290882
0.000296362
0.00026729
0.000265776
0.000260741
0.000264027
0.00030564
0.000258942
0.000255216
0.000252785
0.000254089
0.000243318
0.000246203
0.000248748
0.00025087
0.000240946
0.000208253
0.000235742
0.000230906
0.000239863
0.00023749
0.000228769
0.000230162
0.000233484
0.000235593
0.000238269
0.0002396
0.000240511
0.000128993
0.000224536
0.00131194
0.000102971
0.000273414
0.000424901
0.000272262
0.000286255
0.000290837
0.000281201
0.000285984
0.000277411
0.000299513
0.000302383
0.000270184
0.000268057
0.000262282
0.000264247
0.000309915
0.000308692
0.000257522
0.000261112
0.000252603
0.000255959
0.000242418
0.00024532
0.000248007
0.000250489
0.000251315
0.000185101
0.000228145
0.000227416
0.000239591
0.000233971
0.000227166
0.000230677
0.000235084
0.000232863
0.000237324
0.000239939
0.000240467
0.000241607
0.000226592
0.000636499
0.000120379
0.000213444
0.00028197
0.000269337
0.000123864
0.00116733
0.000275811
0.000291569
0.000296509
0.00028558
0.000280838
0.00029105
0.000303178
0.000303551
0.000308269
0.000270487
0.000268539
0.000262452
0.000266401
0.000315935
0.00025769
0.00026259
0.00025401
0.000256749
0.000243938
0.000246271
0.000249133
0.000251989
0.000253217
0.000209277
0.000224809
0.000224678
0.000225533
0.000236846
0.000228008
0.00022778
0.000229837
0.000236235
0.000234419
0.000238703
0.000241251
0.000241411
0.000243271
0.000118025
0.0011277
0.000111385
0.000190518
0.000176998
0.000270598
0.000275661
0.000266473
7.56719e-05
0.000397955
0.000278723
0.000296569
0.000302808
0.000290584
0.000285476
0.00029461
0.000310483
0.000309843
0.000314628
0.000274171
0.000271122
0.000265455
0.000267345
0.000318349
0.00031861
0.000259716
0.000265378
0.000263382
0.000255909
0.000258874
0.000245905
0.000248345
0.000251138
0.000253893
0.000254215
0.000219736
0.000222579
0.000224922
0.000235653
0.000223061
0.000228554
0.00023166
0.000236177
0.000238061
0.000233728
0.000240768
0.000242974
0.00024292
0.000244741
0.000150959
0.000463409
0.000139535
0.000208671
0.000218605
0.000265748
0.000274954
0.000260527
0.000261052
0.000261792
0.000121136
0.00113223
0.000277925
0.000283826
0.000301364
0.000307579
0.000295042
0.000290323
0.0002858
0.000300694
0.000315441
0.000312835
0.000274173
0.000273112
0.000270999
0.000325256
0.000322728
0.000322214
0.000262189
0.000267843
0.000266542
0.000257302
0.000260629
0.000247527
0.000249249
0.000252422
0.000256113
0.000256421
0.00021773
0.000219314
0.000221829
0.000223722
0.000226388
0.000238266
0.000224779
0.000228095
0.000230927
0.000237934
0.000239352
0.000235343
0.00024248
0.000244749
0.000244536
0.00024724
7.99076e-05
0.000318093
0.000192621
0.000119303
0.000230221
0.000182995
0.000264792
0.000258418
0.000278779
0.000260203
0.000257771
0.000262544
8.92415e-05
0.000340301
0.000283083
0.00028731
0.000306886
0.00030289
0.000312195
0.000300084
0.000295779
0.000290764
0.000303382
0.000320787
0.000318585
0.000278233
0.000277133
0.000272239
0.000324532
0.000325609
0.00026447
0.000270728
0.000269268
0.000259649
0.00026341
0.000248462
0.000251042
0.000254876
0.000257881
0.000256428
0.000215481
0.000219638
0.000223108
0.000224287
0.000226937
0.000227617
0.000219439
0.000230487
0.000232419
0.000237819
0.000241486
0.000235099
0.000244585
0.000246521
0.000246407
0.000248553
0.00016062
0.00110958
0.000213694
0.000136756
0.000230297
0.00020042
0.000258449
0.000254622
0.000265617
0.000247104
0.000259096
0.000257067
0.000262131
9.4893e-05
0.0010812
0.00028231
0.000287505
0.00029121
0.000310574
0.000308249
0.000316221
0.000301812
0.000295033
0.000301054
0.000307978
0.000325339
0.000321212
0.000319709
0.000280409
0.000277297
0.000331638
0.000329691
0.00033021
0.000268032
0.000273937
0.00027331
0.00026154
0.000265922
0.000251442
0.000252795
0.00025675
0.000260311
0.000259487
0.000213065
0.000216705
0.000222041
0.000225822
0.000228631
0.000225465
0.000215116
0.000232865
0.000230478
0.000240119
0.000243423
0.000237738
0.000246841
0.000249099
0.000248264
0.000251637
0.000117998
0.000547294
0.000192378
0.000119249
0.000228269
0.000123908
0.000253745
0.00025294
0.000259467
0.000255724
0.000260171
0.000256395
0.000264998
0.000263578
0.000421381
0.000285589
0.000291809
0.000294551
0.000314866
0.000310499
0.000316686
0.000307527
0.000297709
0.000305917
0.000310011
0.000328334
0.00032507
0.00032242
0.000280451
0.000284937
0.000277594
0.00033433
0.000332263
0.000270488
0.000276985
0.000264664
0.000269299
0.000254017
0.000255868
0.000259284
0.000261977
0.000261809
0.000207213
0.000219152
0.000222557
0.000226172
0.000230623
0.000216885
0.000211108
0.000236038
0.000234818
0.000240521
0.000243126
0.000246652
0.000238276
0.000249329
0.000251538
0.000251203
0.000253101
0.000253628
0.000220323
0.00129897
0.000200256
0.000124517
0.000225292
0.000114739
0.000249829
0.000254541
0.000250724
0.000259623
0.000246642
0.000187718
0.000263083
0.000260004
0.000258265
0.000264819
0.000262745
0.00119365
0.000165891
0.000290981
0.000293562
0.000295952
0.000317086
0.000315403
0.000320395
0.000309547
0.000302861
0.00030616
0.000314374
0.000328254
0.000331801
0.000325098
0.000322707
0.000284917
0.000289154
0.000281631
0.000336275
0.00033546
0.000274891
0.000277036
0.00028134
0.000266882
0.000272836
0.000258104
0.000258884
0.000262182
0.000265435
0.000265237
0.000205316
0.000214707
0.000225132
0.000229785
0.000227803
0.000233805
0.000234922
0.000214168
0.000199742
0.000238518
0.000237786
0.000243916
0.000246021
0.000250136
0.000242206
0.000252365
0.000254219
0.000255902
0.00025729
0.000123823
0.000573969
0.0001726
0.000213672
0.000109595
0.000224159
0.000217425
0.000247338
0.000255258
0.000251789
0.000249793
0.000244909
0.000188103
0.000264501
0.000261568
0.000258513
0.000263796
0.000262567
0.000419718
0.00015001
0.000292932
0.000300221
0.000301635
0.000319847
0.000316442
0.000313359
0.000304787
0.000309639
0.000315434
0.000332118
0.000334505
0.000328219
0.000324895
0.00028543
0.000289161
0.000340076
0.000340042
0.000276997
0.000281472
0.000284625
0.000270938
0.000273095
0.000276754
0.000261656
0.00026231
0.000265436
0.000267564
0.000243588
0.000256406
0.000204217
0.000247321
0.000246907
0.000239145
0.000239204
0.000208805
0.000217701
0.000238111
0.000242255
0.00024102
0.000244597
0.000246391
0.000249403
0.000253253
0.000255201
0.000257779
0.000258757
0.000260936
0.000192272
0.0011086
0.00018747
0.000208387
0.000117741
0.000218781
0.000213804
0.000248069
0.000254383
0.000257415
0.000251869
0.000242246
0.000247995
0.000246241
0.000214296
0.000143262
0.000256059
0.000255367
0.000260989
0.000260067
0.000266359
0.000264162
0.000262051
0.0010867
0.000298677
0.000301985
0.000303322
0.000321673
0.00031875
0.000314532
0.000307977
0.000313293
0.000317208
0.000332255
0.000335505
0.000339099
0.000328328
0.000326918
0.000290032
0.000293104
0.00034511
0.000345294
0.000280768
0.000284785
0.000289675
0.000273038
0.000277478
0.000279695
0.000266723
0.000265829
0.000269326
0.00027135
0.000242971
0.000254061
0.000233008
0.000194495
0.000265861
0.000258419
0.000240817
0.000242546
0.000207907
0.000208737
0.000242525
0.000245545
0.000242855
0.000248038
0.000249256
0.000252125
0.000257249
0.000259751
0.00026202
0.000263763
0.000265175
0.00010331
0.00025139
0.000169758
0.000212548
0.000104604
0.00021665
0.000209473
0.000250469
0.000255247
0.000257578
0.000254166
0.000242645
0.000242822
0.000247525
0.000211492
0.000121056
0.000263242
0.000250151
0.000261157
0.000259585
0.000265336
0.000263014
0.00039286
0.000299558
0.000305498
0.000307515
0.000321321
0.000325359
0.000319137
0.000317435
0.000309796
0.000315078
0.000318999
0.000339165
0.000340375
0.000344978
0.000334203
0.000332199
0.000293745
0.000291641
0.000297994
0.000352212
0.000355809
0.00028248
0.000289129
0.000292022
0.000276525
0.000280383
0.000270989
0.000268138
0.000269815
0.000273392
0.000273849
8.32196e-05
0.00017106
8.01312e-05
0.000276433
0.000501155
0.000293501
0.000257309
0.000250447
0.000210295
0.000216687
0.000245593
0.000249886
0.00024872
0.000251451
0.000251475
0.00025755
0.000261219
0.000260287
0.00026713
0.000268225
0.000266079
0.000270426
0.000141801
0.00101214
0.000184783
0.000208193
9.33624e-05
0.000212544
0.000207959
0.000251311
0.000256631
0.00025864
0.000254021
0.000241656
0.000246386
0.000240004
0.000242775
0.000250299
0.000164008
0.000243628
0.000157864
0.000252897
0.000260074
0.000265316
0.000262949
0.00107982
0.000303558
0.000307337
0.000308121
0.000325583
0.00033097
0.000322348
0.000319844
0.000313439
0.000317882
0.000321926
0.000339626
0.000348093
0.00034941
0.000353683
0.00034217
0.00029779
0.000296721
0.000300003
0.000373804
0.000363022
0.000361197
0.00036701
0.000286945
0.00028997
0.00029568
0.000279712
0.000285067
0.000276486
0.000273858
0.000274839
0.000276774
0.000278254
0.000764505
7.61567e-05
0.000208708
0.000988478
0.000968108
0.00146976
0.000330978
0.000321345
0.000256653
0.000208634
0.000214884
0.000251145
0.000254396
0.000249456
0.000257571
0.00025952
0.000261695
0.000261266
0.000268669
0.000267883
0.000273256
0.000273035
0.000272233
0.000275047
0.000151999
0.000661899
0.000180754
0.000209944
0.000116568
0.000132064
0.000206759
0.000211336
0.000253105
0.000256498
0.000258356
0.000254779
0.000244683
0.000247218
0.000239447
0.00023941
0.000250941
0.000144802
0.000246331
0.000115767
0.000245472
0.000260518
0.000267659
0.000264148
0.000266518
0.000262086
0.00054712
0.000302537
0.000306516
0.000310777
0.000311401
0.000325504
0.000330415
0.000339463
0.000325394
0.000315279
0.000320871
0.000325466
0.000350793
0.000365834
0.000365735
0.000368776
0.000355961
0.000298986
0.000297785
0.000396534
0.000387738
0.00038454
0.000288305
0.000293555
0.000297163
0.000284985
0.000286692
0.000281895
0.000277912
0.000277911
0.000281245
0.000281938
0.00516473
0.00010028
0.000172607
0.00901638
0.00687675
0.00592497
6.08874e-05
0.000288871
0.000286675
0.000270796
0.000207723
0.000210245
0.000252504
0.000259222
0.000239227
0.000263414
0.000263127
0.000270256
0.000268834
0.000274157
0.000273806
0.000280637
0.000279497
0.000275917
0.000281021
0.000270681
0.000712394
0.000197603
0.000208699
0.000107341
0.000128424
0.000204049
0.000207296
0.000253165
0.000255698
0.000257364
0.000259193
0.000253976
0.000246977
0.000244269
0.00024949
0.00024224
0.000237416
0.000237961
0.000250461
0.000252412
0.000167806
0.000246092
0.000228577
0.00013777
0.000244746
0.000260244
0.000264332
0.000266755
0.000262281
0.000465816
0.000304294
0.000308955
0.000312514
0.000314328
0.000332701
0.000338875
0.000349725
0.000328687
0.000328383
0.000319021
0.000325933
0.000331781
0.0003655
0.000360017
0.000382374
0.000382551
0.000388689
0.000371871
0.000302399
0.000300795
0.000401419
0.000398745
0.000291574
0.000293853
0.000296513
0.000300302
0.000287813
0.000290749
0.000288027
0.0002845
0.000282941
0.000285509
0.000286906
0.00445987
0.00907149
5.81786e-05
0.00135126
0.000211401
0.0134527
0.01071
0.00726863
0.00122651
0.000262271
0.000213271
0.000269031
0.000207309
0.000197611
0.000205823
0.000246087
0.000261579
0.000276604
0.000275197
0.000274202
0.000274569
0.000279964
0.000283249
0.000282409
0.000289805
0.000284221
0.000281225
0.000284854
0.0001672
0.000408056
0.000191357
0.000207733
0.000110253
0.000153676
0.000201033
0.00025578
0.000257304
0.000259173
0.000254117
0.00024831
0.000245361
0.000249361
0.000242469
0.00023774
0.000235624
0.000251003
0.000251892
0.000140229
0.000245287
0.000243804
9.36779e-05
0.000237789
0.00026128
0.000269515
0.000263301
0.000265648
0.00026825
0.00108425
0.000195322
0.000307599
0.000311797
0.000315405
0.000316297
0.000339734
0.000348415
0.000369837
0.000338418
0.000335591
0.000321042
0.000333121
0.00033909
0.000385135
0.000381412
0.000403253
0.000400347
0.000400151
0.000376964
0.000390145
0.000303101
0.000301738
0.000435238
0.000423608
0.000422901
0.00029247
0.000296132
0.000298929
0.000302209
0.000291359
0.000292176
0.000292182
0.000288296
0.000287149
0.000286929
0.000289507
0.000290156
0.00905959
0.0132843
0.000100586
0.000526591
0.000178769
0.0218426
0.0268363
0.0193794
0.00286965
0.000387421
0.00034403
0.000324215
0.000205698
0.00020155
0.000195814
0.00021029
0.000276692
0.000405323
0.000283196
0.000289907
0.000286314
0.000290362
0.000291052
0.000286106
0.000289608
0.000296072
0.00029177
0.000291249
0.000118209
0.000247107
0.000202759
0.000205928
0.000103156
0.000152295
0.000200552
0.000255137
0.00025668
0.000258297
0.000260347
0.000253411
0.000247886
0.000244097
0.000246966
0.000249587
0.000240942
0.000235903
0.000233077
0.000250393
0.000252279
0.000169367
0.00024267
0.000224953
5.89706e-05
0.000236016
0.000261405
0.000271514
0.000263773
0.000266172
0.000269082
0.00126412
0.000142939
0.000308933
0.00031455
0.000319207
0.00031952
0.000354877
0.000363405
0.00037716
0.000346337
0.000341548
0.000343873
0.000326932
0.000332688
0.000352562
0.000404242
0.000390664
0.000415061
0.000413358
0.000416317
0.000397923
0.00040303
0.000305789
0.000305191
0.00043862
0.000418758
0.00029463
0.000296533
0.00029868
0.000301837
0.000305261
0.000293616
0.000295338
0.000297311
0.000294307
0.000292803
0.00029285
0.000293156
0.000293285
0.000293509
0.00985106
0.0155737
0.000254934
0.00365169
0.000292962
0.0129683
0.0470966
0.0561502
0.0176483
0.00194378
4.69855e-05
0.000200189
0.000250242
0.000206699
0.000192899
0.000215493
0.000349227
0.000325563
0.000323599
0.000303986
0.000312846
0.000291865
0.000301082
0.00029988
0.000297052
0.000298402
0.000303315
0.000295267
0.000295171
7.95447e-05
0.000168295
0.000118503
0.000205593
0.000180389
0.000200089
0.000125236
0.000197015
0.000255764
0.000257247
0.000258255
0.000260498
0.000253718
0.000248264
0.000244062
0.000246271
0.000249114
0.000241322
0.000238633
0.000233641
0.000250419
0.000251873
0.000114314
0.000236636
0.000239714
0.000246149
0.000232069
0.000262679
0.00027579
0.000272373
0.000265184
0.000267889
0.000271128
0.000656646
0.000102329
0.000308353
0.00031269
0.000315414
0.000318977
0.000324831
0.000325131
0.000368669
0.000360807
0.000395936
0.000365923
0.000359121
0.000356019
0.000329892
0.000344301
0.000401754
0.00040372
0.000396604
0.000417984
0.000415289
0.000404182
0.000405544
0.000306872
0.00042074
0.00041322
0.000414091
0.000296347
0.000299993
0.000301704
0.000305956
0.000308914
0.000295913
0.000297373
0.000301895
0.000300055
0.000297614
0.000297176
0.000297427
0.000297246
0.0161976
0.011135
0.0151789
0.00118716
0.00284595
0.000750307
0.0101228
0.0619546
0.107748
0.03358
0.0010601
5.87859e-05
0.00017712
1.27252e-05
0.000200765
0.000185209
0.00019037
0.000284677
0.000675413
0.000352759
6.10737e-05
0.00033185
0.00033149
0.000355262
0.000315443
0.000303008
0.000308109
0.000321501
0.000308352
0.000308264
0.000303535
0.000301502
7.71968e-05
0.00019121
9.59641e-05
0.000205481
0.000185915
0.000197321
0.00011418
0.000196942
0.000257001
0.000255668
0.000259342
0.000261659
0.000254848
0.000253376
0.000247683
0.000245195
0.000242574
0.000246478
0.000249492
0.00023828
0.000236778
0.000231121
0.00025114
0.000252571
0.000121296
0.000232531
0.000233212
0.000243805
0.000198612
0.000230355
0.000262881
0.000277509
0.000274477
0.000265952
0.0002689
0.000272389
0.000466123
7.27489e-05
0.000311448
0.000313909
0.000322055
0.000326209
0.000334912
0.000391956
0.000387615
0.000401979
0.000381265
0.000372921
0.000366323
0.000376529
0.000337948
0.000358546
0.000384105
0.000401676
0.000400477
0.000396361
0.000399327
0.000397768
0.000396723
0.000383572
0.00031011
0.00045503
0.000430663
0.000299529
0.000302191
0.000305449
0.000309837
0.000314062
0.000298771
0.000302105
0.000306205
0.000303847
0.000301881
0.000301249
0.000301092
0.000299909
0.0133565
0.00361993
0.00799216
0.00348347
0.00303658
0.00850153
0.0060537
0.0364871
0.105086
0.100407
0.0183583
0.000376853
0.000700394
0.00146698
0.00193316
0.000201425
0.000169459
0.000181571
0.000374157
0.000851453
0.000518101
0.00358017
0.000418681
0.000436208
0.000423895
0.000338564
0.000315736
0.000316484
0.000338414
0.000316121
0.000320348
0.000305821
9.15162e-05
0.000154818
0.000361408
9.91846e-05
0.000199045
0.00019915
0.000147939
0.000195822
0.000257977
0.000256939
0.000259312
0.000262515
0.000255074
0.000254124
0.000248112
0.000244475
0.000242395
0.000246284
0.000249706
0.000240229
0.000237771
0.000232074
0.000251462
0.00025228
0.000228729
0.00023824
0.000214122
0.000228803
0.00026467
0.000277253
0.000275603
0.000267994
0.000265928
0.000271272
0.000274699
0.00116681
0.000191454
0.000139707
0.000318587
0.000324555
0.000328049
0.000334975
0.000347565
0.000399276
0.00039284
0.000401321
0.000397717
0.00039385
0.000391743
0.000350144
0.000373904
0.000386539
0.000375093
0.000377369
0.000444276
0.000427103
0.00040717
0.000418905
0.000376005
0.000377559
0.000314643
0.000546292
0.000540177
0.000483832
0.000301202
0.000304648
0.000307777
0.000315769
0.000322572
0.000301271
0.000306737
0.000312457
0.000310235
0.000305683
0.000305748
0.0003052
0.000301965
0.0115932
0.00858356
0.00795149
0.0105323
0.00716569
0.0262673
0.066557
0.145253
0.138747
0.0346811
0.000500366
0.00684998
0.00580488
0.00966472
0.000190011
0.000207637
0.000154659
0.000179491
0.000394117
0.00345522
0.00501412
0.0194859
0.000472264
0.000431165
0.000564598
0.000432255
0.000322885
0.000330043
0.000384226
0.000320462
0.000325142
0.000333122
0.000312672
0.000167892
0.00041116
8.9896e-05
0.000200174
0.000196446
0.000151444
0.000193802
0.000258114
0.000257285
0.000260467
0.000264325
0.000262024
0.000256199
0.000254272
0.000249188
0.000248098
0.00024445
0.000243614
0.000241658
0.000247293
0.000245337
0.000250863
0.000239579
0.000237142
0.00023567
0.000229594
0.000253128
0.000226314
0.000227909
0.000237238
0.000231447
0.000280118
0.000278553
0.000268857
0.000267601
0.000271906
0.000275366
0.000612774
0.000148559
0.000135554
0.000325081
0.000337542
0.000340675
0.000349497
0.000363919
0.000406081
0.000405287
0.00040265
0.000402434
0.00040844
0.000399942
0.000393595
0.000370682
0.00040155
0.000378186
0.000484873
0.000524763
0.000601472
0.000492657
0.000537103
0.00037336
0.000381102
0.000378754
0.000322622
0.000814125
0.000837026
0.000692272
0.000305513
0.000307964
0.000315516
0.000324262
0.000324175
0.000332383
0.000303906
0.000311292
0.000319858
0.000316294
0.000312382
0.000310628
0.000313299
0.00030637
0.000305013
0.0111635
0.0072819
0.00658345
0.0129046
0.0114244
0.00850989
0.0323437
0.126676
0.190833
0.143934
0.0891649
0.201085
0.0174745
0.0230334
0.0217881
0.00578188
0.000186172
0.000218874
0.000182384
0.000201681
0.00110153
0.00212566
0.0306646
0.0539095
0.00036284
0.000180022
0.00443852
0.000438304
0.000351164
0.000356702
0.000449259
0.000388203
0.000333351
0.000340233
0.000354634
0.000108946
0.000247641
0.00050544
0.000124691
0.000179247
0.00019966
0.000194883
0.000194837
0.00018608
0.000259723
0.000258732
0.000260879
0.000265852
0.000263294
0.000256852
0.000255741
0.000249683
0.000248985
0.000243316
0.000242986
0.000241996
0.000247708
0.000245609
0.0002513
0.000239595
0.000237884
0.000235549
0.000230482
0.000253325
0.000226238
0.000223967
0.000232815
0.000237303
0.000282002
0.000278771
0.000270663
0.00026819
0.000273724
0.000277429
0.000275119
0.000481881
0.000106268
0.0001911
0.000336757
0.000345372
0.000351574
0.000363761
0.000382523
0.000404671
0.000410143
0.000390808
0.000408185
0.000406511
0.000404593
0.000400494
0.000384172
0.00045178
0.000531201
0.000442017
0.000603992
0.000783365
0.000975832
0.000706003
0.000367515
0.000378978
0.000400568
0.000427086
0.000333449
0.00108259
0.000964968
0.000307111
0.000309875
0.000315533
0.000323401
0.000339709
0.000339625
0.000344584
0.000322293
0.000337638
0.000327307
0.000321507
0.00032563
0.000325771
0.000313652
0.000314326
0.0120883
0.00503266
0.00769708
0.0126129
0.0134452
0.0120207
0.0935699
0.151072
0.159486
0.156781
0.105177
0.186232
0.0124866
0.0708456
0.0553669
0.0318976
0.00104503
0.000183832
0.000118778
0.000736975
0.000205233
0.000835281
0.00177063
0.0822331
0.058608
0.00205194
0.00059513
0.0175238
0.000301752
0.000392938
0.000513173
0.000440151
0.000340307
0.000349788
0.000362214
0.000391236
8.36136e-05
0.000173601
0.000453781
0.000143998
0.000178396
0.000198184
0.000192661
0.000192012
0.000186519
0.000259938
0.000259601
0.00026238
0.000267711
0.000265095
0.000258689
0.000255892
0.000250675
0.000249602
0.0002435
0.000241497
0.000248955
0.00024686
0.000244883
0.000252526
0.000239037
0.000240604
0.000237398
0.000236264
0.000234181
0.000229083
0.000254748
0.000225161
0.000220658
0.000222847
0.000236202
0.000222716
0.000283335
0.000281069
0.00027143
0.000270421
0.000274233
0.000278081
0.000276654
0.0011925
0.000195679
7.0816e-05
0.000181792
0.000349772
0.000363417
0.000366541
0.000380696
0.000392288
0.000395137
0.000389967
0.000403608
0.000396911
0.000404742
0.00040523
0.00040001
0.00076133
0.00101988
0.000702935
0.00121919
0.00122703
0.0019018
0.00124754
0.000426258
0.00035563
0.000385847
0.000687257
0.000347556
0.00204709
0.00174436
0.000319158
0.000326571
0.000327259
0.000343152
0.000349293
0.000360721
0.000362088
0.000337852
0.000359276
0.000338929
0.000343581
0.000346415
0.000352058
0.000339388
0.00033166
0.000322649
0.0147023
0.0013194
0.00717132
0.013402
0.014922
0.011457
0.017536
0.106032
0.171002
0.174431
0.160475
0.0486472
0.162251
0.0686575
0.106174
0.117309
0.0261234
0.000691226
0.000197749
0.000464037
0.000962166
0.000984832
0.000307809
0.000966299
0.00390739
0.173969
0.124551
0.0166829
5.48991e-05
0.0403815
0.000437054
0.000438439
0.000472119
0.000364026
0.000377794
0.000397087
0.000433683
9.94841e-05
0.000162271
0.000470355
0.000234044
0.000143284
0.000189625
0.000194511
0.000190257
0.000192381
0.000174592
0.000261736
0.000261262
0.000263222
0.000269508
0.000266337
0.000259423
0.000257547
0.000251528
0.000251007
0.000243249
0.00024218
0.000250176
0.00024727
0.000245124
0.000253367
0.000239506
0.000240457
0.00023794
0.000236267
0.00023402
0.000231495
0.00025552
0.000228298
0.000219502
0.000221526
0.000231628
0.000217561
0.000285646
0.000283131
0.00028124
0.000273181
0.000271129
0.000276062
0.000279712
0.000277385
0.000636364
0.000185543
9.93992e-05
0.000206922
0.000365462
0.000372414
0.000368665
0.000380605
0.000393339
0.000402901
0.00035214
0.000359115
0.000389869
0.000386326
0.000392396
0.000402503
0.000401715
0.000402776
0.0011267
0.00173836
0.000933452
0.00245026
0.00289605
0.00175912
0.00365579
0.00215604
0.000632872
0.000341997
0.000691846
0.000364087
0.00259002
0.00269256
0.000330653
0.000336126
0.000343853
0.000361669
0.000368678
0.000380763
0.000377714
0.000360119
0.000403479
0.000370263
0.000377443
0.000385467
0.000387765
0.000387272
0.000355447
0.000349557
0.00583338
0.0310908
0.01125
0.0160559
0.0150867
0.0142637
0.178136
0.156388
0.179223
0.149074
0.0308047
0.0745921
0.0984121
0.115025
0.154016
0.0086373
0.0773705
0.000278723
0.000174246
0.000489362
0.00119629
0.00125598
0.00116584
0.00563799
0.167047
0.194221
0.117201
0.0407333
0.000974424
0.0307389
0.000365706
0.000469655
0.000506755
0.000389663
0.000410262
0.000439686
0.000481205
9.07397e-05
0.000116736
0.000345953
0.000165869
0.000168315
0.000189008
0.000193111
0.000191768
0.000190068
0.000182888
0.000263095
0.000262642
0.000265406
0.000269928
0.000268747
0.000258971
0.000261735
0.000257106
0.000252891
0.000252491
0.000244182
0.000242275
0.00025212
0.000250102
0.000246177
0.000248779
0.000254918
0.000239055
0.000241308
0.00023737
0.000235416
0.000234006
0.000230839
0.000227402
0.000218143
0.000224572
0.00021976
0.000231212
0.000216105
0.000287882
0.000286062
0.000283747
0.000273867
0.000272673
0.000277062
0.000280803
0.000279607
0.000573199
8.70163e-05
7.30725e-05
0.000198521
0.000377116
0.000383229
0.000383718
0.000387243
0.000398863
0.000402599
0.000368569
0.000389171
0.000392734
0.0003737
0.000391178
0.000394333
0.000393983
0.000403228
0.00277412
0.00386751
0.00190513
0.00455284
0.0047676
0.00403803
0.00591086
0.0043223
0.00130062
0.000478436
0.000657215
0.00122576
0.000379392
0.00436308
0.00443577
0.000355007
0.000358921
0.000365978
0.000380759
0.000378574
0.000400538
0.000395963
0.000397049
0.000402958
0.000431963
0.00041072
0.000430996
0.000430796
0.000413442
0.000397266
0.000365672
0.00234367
0.0441093
0.0142429
0.0163337
0.0158848
0.0170225
0.00653744
0.182171
0.140598
0.142154
0.122355
0.181499
0.0409327
0.100196
0.121353
0.138718
0.00591885
0.0959194
0.109005
0.000272918
0.000195945
0.000768983
0.00129751
0.00101564
0.00138533
0.00132654
0.00273497
0.01097
0.175957
0.255006
0.133342
0.00161705
0.0567893
0.00062433
0.000526093
0.000430092
0.000455629
0.000485049
0.000514546