/*--------------------------------*- C++ -*----------------------------------*\
| =========                 |                                                 |
| \\      /  F ield         | OpenFOAM: The Open Source CFD Toolbox           |
|  \\    /   O peration     | Version:  v2012                                 |
|   \\  /    A nd           | Website:  www.openfoam.com                      |
|    \\/     M anipulation  |                                                 |
\*---------------------------------------------------------------------------*/
FoamFile
{
    version     2.0;
    format      ascii;
    class       volScalarField;
    location    "1.3";
    object      nut;
}
// * * * * * * * * * * * * * * * * * * * * * * * * * * * * * * * * * * * * * //

dimensions      [0 2 -1 0 0 0 0];


internalField   nonuniform List<scalar> 
13611
(
1.59736e-05
1.61687e-05
1.55297e-05
1.57988e-05
1.34316e-05
1.15768e-05
1.61029e-05
1.5806e-05
1.1363e-05
1.26059e-05
1.13776e-05
1.62585e-05
1.38886e-05
1.59545e-05
1.13856e-05
1.22487e-05
1.13878e-05
1.15971e-05
1.65407e-05
1.36757e-05
1.62222e-05
1.13864e-05
1.13942e-05
1.13996e-05
1.13761e-05
1.152e-05
1.54906e-05
1.23623e-05
1.5627e-05
1.13491e-05
1.13936e-05
1.13966e-05
1.13987e-05
1.14046e-05
1.16104e-05
1.50071e-05
1.29753e-05
1.59365e-05
1.13505e-05
1.13671e-05
1.141e-05
1.14038e-05
1.14032e-05
1.14805e-05
1.50246e-05
1.2522e-05
1.55899e-05
1.59489e-05
1.13539e-05
1.13316e-05
1.13678e-05
1.13864e-05
1.14089e-05
1.14051e-05
1.14233e-05
1.14631e-05
1.35439e-05
1.18075e-05
1.5934e-05
1.59861e-05
1.13321e-05
1.13316e-05
1.13475e-05
1.13765e-05
1.13426e-05
1.14028e-05
1.13799e-05
1.14116e-05
1.14066e-05
1.14163e-05
1.31863e-05
1.1683e-05
1.53842e-05
1.50095e-05
1.13376e-05
1.13407e-05
1.13489e-05
1.13311e-05
1.13565e-05
1.137e-05
1.13632e-05
1.13908e-05
1.14045e-05
1.13884e-05
1.1422e-05
1.20958e-05
1.14983e-05
1.53248e-05
1.47013e-05
1.13621e-05
1.13525e-05
1.13418e-05
1.13394e-05
1.13477e-05
1.13678e-05
1.13534e-05
1.13465e-05
1.13542e-05
1.13813e-05
1.13657e-05
1.14084e-05
1.18677e-05
1.14832e-05
1.52814e-05
1.31618e-05
1.13705e-05
1.13812e-05
1.13457e-05
1.13648e-05
1.13396e-05
1.14038e-05
1.14386e-05
1.13308e-05
1.13311e-05
1.13407e-05
1.13649e-05
1.13436e-05
1.13761e-05
1.14219e-05
1.14893e-05
1.14669e-05
1.14566e-05
1.47961e-05
1.43003e-05
1.25863e-05
1.14003e-05
1.1425e-05
1.13606e-05
1.13741e-05
1.13258e-05
1.14926e-05
1.13264e-05
1.13302e-05
1.13394e-05
1.13392e-05
1.13625e-05
1.13955e-05
1.1347e-05
1.14646e-05
1.14648e-05
1.47591e-05
1.31865e-05
1.1523e-05
1.14447e-05
1.14448e-05
1.14546e-05
1.13764e-05
1.14085e-05
1.13331e-05
1.14971e-05
1.15429e-05
1.13249e-05
1.13334e-05
1.13396e-05
1.13332e-05
1.1337e-05
1.13921e-05
1.1312e-05
1.14265e-05
1.14787e-05
1.14284e-05
1.14689e-05
1.45664e-05
1.38544e-05
1.12897e-05
1.14376e-05
1.15005e-05
1.15184e-05
1.13839e-05
1.14071e-05
1.133e-05
1.13661e-05
1.15597e-05
1.1606e-05
1.13266e-05
1.13291e-05
1.13376e-05
1.13238e-05
1.13344e-05
1.13179e-05
1.13346e-05
1.11355e-05
1.14488e-05
1.14382e-05
1.14207e-05
1.14392e-05
1.45277e-05
1.29177e-05
1.14872e-05
1.1531e-05
1.15221e-05
1.15673e-05
1.14257e-05
1.144e-05
1.13645e-05
1.13875e-05
1.16151e-05
1.1659e-05
1.13445e-05
1.13309e-05
1.13172e-05
1.13318e-05
1.13074e-05
1.13269e-05
1.09571e-05
1.14739e-05
1.14396e-05
1.14083e-05
1.14261e-05
1.13537e-05
1.37737e-05
1.44491e-05
1.1478e-05
1.14841e-05
1.15862e-05
1.15727e-05
1.1634e-05
1.14469e-05
1.14492e-05
1.13676e-05
1.14312e-05
1.1674e-05
1.17205e-05
1.1349e-05
1.13356e-05
1.13239e-05
1.13343e-05
1.1311e-05
1.13008e-05
1.11807e-05
1.14989e-05
1.14012e-05
1.13467e-05
1.13741e-05
1.13428e-05
1.31011e-05
1.43636e-05
1.10594e-05
1.15137e-05
1.16043e-05
1.16341e-05
1.15988e-05
1.16882e-05
1.14875e-05
1.14875e-05
1.14224e-05
1.14554e-05
1.17305e-05
1.13872e-05
1.13449e-05
1.1336e-05
1.13567e-05
1.13056e-05
1.13306e-05
1.12882e-05
1.1316e-05
1.11035e-05
1.15287e-05
1.14338e-05
1.13227e-05
1.13124e-05
1.1331e-05
1.1359e-05
1.36192e-05
1.16198e-05
1.43137e-05
1.1569e-05
1.16557e-05
1.1687e-05
1.16639e-05
1.16019e-05
1.17749e-05
1.15076e-05
1.15156e-05
1.14233e-05
1.14611e-05
1.15019e-05
1.18053e-05
1.14044e-05
1.13862e-05
1.13531e-05
1.13878e-05
1.1333e-05
1.13597e-05
1.13005e-05
1.13219e-05
1.12085e-05
1.14739e-05
1.14506e-05
1.13949e-05
1.13013e-05
1.12878e-05
1.13116e-05
1.13342e-05
1.22333e-05
1.10785e-05
1.41006e-05
1.15919e-05
1.1692e-05
1.17585e-05
1.17025e-05
1.16645e-05
1.18082e-05
1.18371e-05
1.15632e-05
1.15668e-05
1.14631e-05
1.15008e-05
1.15258e-05
1.19007e-05
1.1938e-05
1.14443e-05
1.13855e-05
1.14288e-05
1.13282e-05
1.13601e-05
1.13876e-05
1.12996e-05
1.13028e-05
1.10151e-05
1.15004e-05
1.14321e-05
1.1323e-05
1.1287e-05
1.12928e-05
1.13361e-05
1.1344e-05
1.26476e-05
1.38866e-05
1.16399e-05
1.17835e-05
1.18251e-05
1.17719e-05
1.16795e-05
1.19278e-05
1.19195e-05
1.15869e-05
1.15907e-05
1.15036e-05
1.15174e-05
1.1569e-05
1.19754e-05
1.20963e-05
1.14828e-05
1.14236e-05
1.14684e-05
1.13626e-05
1.13987e-05
1.14251e-05
1.13304e-05
1.13241e-05
1.10567e-05
1.14629e-05
1.14167e-05
1.13531e-05
1.13149e-05
1.13047e-05
1.13148e-05
1.13431e-05
1.13437e-05
1.04472e-05
1.40933e-05
1.21775e-05
1.16637e-05
1.18189e-05
1.19264e-05
1.18372e-05
1.17628e-05
1.20156e-05
1.19629e-05
1.20225e-05
1.16337e-05
1.16326e-05
1.15456e-05
1.15663e-05
1.15872e-05
1.2114e-05
1.21711e-05
1.15383e-05
1.14765e-05
1.14513e-05
1.14942e-05
1.13588e-05
1.13997e-05
1.14308e-05
1.14539e-05
1.13382e-05
1.08904e-05
1.14272e-05
1.14268e-05
1.13495e-05
1.13064e-05
1.13283e-05
1.13267e-05
1.13733e-05
1.13709e-05
1.01145e-05
1.37768e-05
1.05498e-05
1.17248e-05
1.1933e-05
1.19981e-05
1.18378e-05
1.19363e-05
1.17783e-05
1.21178e-05
1.20731e-05
1.21518e-05
1.16599e-05
1.1656e-05
1.1581e-05
1.16286e-05
1.23023e-05
1.15791e-05
1.1514e-05
1.1495e-05
1.15105e-05
1.13945e-05
1.14344e-05
1.14654e-05
1.14785e-05
1.13676e-05
1.1197e-05
1.14066e-05
1.1368e-05
1.14174e-05
1.13993e-05
1.13139e-05
1.13149e-05
1.13646e-05
1.13726e-05
1.13994e-05
1.13892e-05
1.138e-05
1.01011e-05
1.24196e-05
1.40004e-05
9.70748e-06
1.15205e-05
1.21543e-05
1.17742e-05
1.20063e-05
1.20911e-05
1.19507e-05
1.20394e-05
1.18864e-05
1.22515e-05
1.22711e-05
1.1736e-05
1.17161e-05
1.16199e-05
1.16513e-05
1.23542e-05
1.23516e-05
1.15628e-05
1.16261e-05
1.15045e-05
1.15551e-05
1.13939e-05
1.14327e-05
1.14671e-05
1.1497e-05
1.15002e-05
1.09472e-05
1.13462e-05
1.13442e-05
1.14303e-05
1.13862e-05
1.13155e-05
1.13467e-05
1.13903e-05
1.1376e-05
1.13999e-05
1.14326e-05
1.1422e-05
1.14159e-05
1.24863e-05
1.36885e-05
1.0042e-05
1.14024e-05
1.14652e-05
1.12951e-05
1.08602e-05
1.3698e-05
1.18662e-05
1.21379e-05
1.22139e-05
1.20499e-05
1.19629e-05
1.21462e-05
1.22932e-05
1.23152e-05
1.23553e-05
1.17644e-05
1.1749e-05
1.16394e-05
1.17076e-05
1.24362e-05
1.15816e-05
1.16704e-05
1.15448e-05
1.15871e-05
1.14381e-05
1.14632e-05
1.15039e-05
1.15461e-05
1.15423e-05
1.12283e-05
1.13036e-05
1.13237e-05
1.1309e-05
1.14652e-05
1.13396e-05
1.13317e-05
1.13527e-05
1.14302e-05
1.14261e-05
1.14515e-05
1.14779e-05
1.14339e-05
1.14436e-05
1.08884e-05
1.39458e-05
1.00312e-05
1.10967e-05
1.12601e-05
1.13213e-05
1.14776e-05
1.12761e-05
1.0068e-05
1.2365e-05
1.19546e-05
1.22351e-05
1.23197e-05
1.21637e-05
1.20808e-05
1.22212e-05
1.23807e-05
1.23862e-05
1.24157e-05
1.18722e-05
1.18277e-05
1.17173e-05
1.17522e-05
1.24477e-05
1.24421e-05
1.16398e-05
1.17311e-05
1.17077e-05
1.15819e-05
1.16367e-05
1.14728e-05
1.15016e-05
1.15429e-05
1.1586e-05
1.15759e-05
1.12595e-05
1.13129e-05
1.13281e-05
1.14892e-05
1.12922e-05
1.13649e-05
1.14006e-05
1.14509e-05
1.14586e-05
1.14322e-05
1.1492e-05
1.15088e-05
1.14824e-05
1.14911e-05
1.18162e-05
1.36797e-05
1.04962e-05
1.13385e-05
1.13632e-05
1.12894e-05
1.14089e-05
1.12687e-05
1.12633e-05
1.12971e-05
1.11996e-05
1.37344e-05
1.19545e-05
1.20735e-05
1.23112e-05
1.23675e-05
1.22439e-05
1.21747e-05
1.21e-05
1.23181e-05
1.24202e-05
1.23913e-05
1.18906e-05
1.18925e-05
1.18547e-05
1.24385e-05
1.24531e-05
1.24228e-05
1.16923e-05
1.18108e-05
1.17955e-05
1.16312e-05
1.16952e-05
1.15132e-05
1.15373e-05
1.159e-05
1.16465e-05
1.16238e-05
1.12306e-05
1.12866e-05
1.13217e-05
1.13289e-05
1.13629e-05
1.15745e-05
1.13402e-05
1.13779e-05
1.14074e-05
1.14946e-05
1.15086e-05
1.14747e-05
1.15474e-05
1.15646e-05
1.15097e-05
1.15417e-05
9.75114e-06
1.35675e-05
1.12127e-05
1.02198e-05
1.15595e-05
1.11463e-05
1.12913e-05
1.1259e-05
1.14502e-05
1.12855e-05
1.12571e-05
1.13127e-05
1.03262e-05
1.22877e-05
1.20795e-05
1.21508e-05
1.23713e-05
1.23372e-05
1.23949e-05
1.23247e-05
1.22763e-05
1.22022e-05
1.23582e-05
1.23913e-05
1.23804e-05
1.19944e-05
1.19867e-05
1.19008e-05
1.24073e-05
1.23506e-05
1.17715e-05
1.18812e-05
1.18767e-05
1.16877e-05
1.17617e-05
1.15517e-05
1.15754e-05
1.16475e-05
1.16782e-05
1.16703e-05
1.12228e-05
1.13228e-05
1.13631e-05
1.13752e-05
1.14119e-05
1.14373e-05
1.12946e-05
1.14447e-05
1.14453e-05
1.15143e-05
1.15508e-05
1.14907e-05
1.15861e-05
1.15956e-05
1.15688e-05
1.15932e-05
1.20171e-05
1.40167e-05
1.14425e-05
1.04005e-05
1.15905e-05
1.12092e-05
1.12599e-05
1.12406e-05
1.13384e-05
1.13971e-05
1.12927e-05
1.12765e-05
1.13194e-05
1.02791e-05
1.35867e-05
1.20789e-05
1.21677e-05
1.22214e-05
1.23973e-05
1.23947e-05
1.23835e-05
1.23475e-05
1.22763e-05
1.23519e-05
1.23951e-05
1.23169e-05
1.2332e-05
1.23343e-05
1.20661e-05
1.2022e-05
1.22538e-05
1.22942e-05
1.22414e-05
1.18648e-05
1.19671e-05
1.19696e-05
1.17527e-05
1.18454e-05
1.16214e-05
1.16346e-05
1.17113e-05
1.17393e-05
1.1759e-05
1.12024e-05
1.12759e-05
1.13758e-05
1.14143e-05
1.14545e-05
1.1435e-05
1.12586e-05
1.14824e-05
1.14715e-05
1.15727e-05
1.16103e-05
1.15581e-05
1.1655e-05
1.16733e-05
1.16056e-05
1.16738e-05
1.10304e-05
1.37503e-05
1.12195e-05
1.02278e-05
1.15221e-05
1.04544e-05
1.12302e-05
1.12505e-05
1.13046e-05
1.15201e-05
1.13112e-05
1.1286e-05
1.13318e-05
1.13272e-05
1.24187e-05
1.21524e-05
1.22506e-05
1.22822e-05
1.23961e-05
1.23937e-05
1.23409e-05
1.23976e-05
1.23244e-05
1.23915e-05
1.23975e-05
1.20585e-05
1.21045e-05
1.21487e-05
1.20806e-05
1.21527e-05
1.20448e-05
1.20626e-05
1.19449e-05
1.19369e-05
1.2055e-05
1.18315e-05
1.19287e-05
1.17038e-05
1.17077e-05
1.17736e-05
1.1797e-05
1.18096e-05
1.1055e-05
1.14055e-05
1.1402e-05
1.144e-05
1.15246e-05
1.13491e-05
1.12242e-05
1.15627e-05
1.16001e-05
1.16084e-05
1.16283e-05
1.16759e-05
1.1594e-05
1.17046e-05
1.17243e-05
1.16938e-05
1.17335e-05
1.17124e-05
1.24608e-05
1.39288e-05
1.13113e-05
1.02631e-05
1.14922e-05
1.02363e-05
1.12228e-05
1.12782e-05
1.12439e-05
1.13173e-05
1.1199e-05
1.11824e-05
1.14721e-05
1.13175e-05
1.13123e-05
1.13465e-05
1.13287e-05
1.3649e-05
1.08167e-05
1.22494e-05
1.22804e-05
1.23091e-05
1.23062e-05
1.23495e-05
1.21274e-05
1.24035e-05
1.23879e-05
1.23978e-05
1.23664e-05
1.19318e-05
1.18374e-05
1.19858e-05
1.20178e-05
1.21711e-05
1.2231e-05
1.21277e-05
1.17327e-05
1.16726e-05
1.20343e-05
1.20663e-05
1.21347e-05
1.19025e-05
1.20149e-05
1.18018e-05
1.18003e-05
1.18554e-05
1.18827e-05
1.19034e-05
1.10263e-05
1.13075e-05
1.15713e-05
1.16936e-05
1.14665e-05
1.16567e-05
1.16295e-05
1.13417e-05
1.08195e-05
1.16441e-05
1.16649e-05
1.17022e-05
1.17153e-05
1.17831e-05
1.17022e-05
1.17987e-05
1.18117e-05
1.18087e-05
1.18253e-05
1.10462e-05
1.34889e-05
1.10819e-05
1.14098e-05
1.01806e-05
1.14813e-05
1.13956e-05
1.12092e-05
1.12986e-05
1.12738e-05
1.12396e-05
1.12007e-05
1.1334e-05
1.14805e-05
1.13247e-05
1.13189e-05
1.13494e-05
1.13389e-05
1.26533e-05
1.06881e-05
1.22867e-05
1.23636e-05
1.23807e-05
1.21436e-05
1.22804e-05
1.23634e-05
1.23991e-05
1.23602e-05
1.22761e-05
1.14417e-05
1.14745e-05
1.15599e-05
1.16851e-05
1.21909e-05
1.22405e-05
1.13691e-05
1.11891e-05
1.20839e-05
1.21564e-05
1.2196e-05
1.19991e-05
1.20324e-05
1.209e-05
1.19063e-05
1.188e-05
1.19256e-05
1.19504e-05
1.23349e-05
1.25752e-05
1.03862e-05
1.23091e-05
1.22858e-05
1.18311e-05
1.17863e-05
1.12472e-05
1.16328e-05
1.16547e-05
1.17316e-05
1.17737e-05
1.17464e-05
1.17478e-05
1.17878e-05
1.18506e-05
1.18599e-05
1.18969e-05
1.19016e-05
1.19122e-05
1.20387e-05
1.37612e-05
1.1282e-05
1.14125e-05
1.04237e-05
1.14073e-05
1.13543e-05
1.12429e-05
1.1301e-05
1.132e-05
1.12865e-05
1.11816e-05
1.12265e-05
1.12323e-05
1.15242e-05
1.07256e-05
1.15565e-05
1.13379e-05
1.1329e-05
1.1326e-05
1.13793e-05
1.13668e-05
1.13482e-05
1.34606e-05
1.23532e-05
1.23695e-05
1.23799e-05
1.18081e-05
1.2004e-05
1.22124e-05
1.23851e-05
1.22844e-05
1.20752e-05
1.12948e-05
1.12139e-05
1.1139e-05
1.1434e-05
1.13732e-05
1.22696e-05
1.23025e-05
1.09919e-05
1.08901e-05
1.21533e-05
1.22089e-05
1.22685e-05
1.20542e-05
1.2127e-05
1.21507e-05
1.20235e-05
1.19722e-05
1.20223e-05
1.20333e-05
1.23026e-05
1.30004e-05
1.15535e-05
9.69778e-06
1.3192e-05
1.25955e-05
1.17767e-05
1.18731e-05
1.1284e-05
1.13008e-05
1.17999e-05
1.18422e-05
1.18464e-05
1.18396e-05
1.18277e-05
1.18806e-05
1.196e-05
1.19829e-05
1.20241e-05
1.20286e-05
1.20294e-05
1.06451e-05
1.24278e-05
1.12102e-05
1.14121e-05
1.03974e-05
1.13834e-05
1.13201e-05
1.12805e-05
1.13191e-05
1.13277e-05
1.13166e-05
1.12135e-05
1.11951e-05
1.12666e-05
1.17103e-05
1.05329e-05
1.14953e-05
1.12864e-05
1.13425e-05
1.13356e-05
1.13792e-05
1.13646e-05
1.27514e-05
1.23433e-05
1.23537e-05
1.23429e-05
1.17795e-05
1.14139e-05
1.19098e-05
1.19023e-05
1.23082e-05
1.20674e-05
1.18106e-05
1.08506e-05
1.0792e-05
1.07529e-05
1.09726e-05
1.09401e-05
1.23104e-05
1.22802e-05
1.23529e-05
1.07034e-05
1.05464e-05
1.21936e-05
1.22647e-05
1.22848e-05
1.21211e-05
1.21754e-05
1.2138e-05
1.20378e-05
1.20499e-05
1.21028e-05
1.20963e-05
5.9564e-06
9.24999e-06
5.66726e-06
1.44553e-05
2.39983e-05
1.41874e-05
1.23282e-05
1.2119e-05
1.14247e-05
1.16254e-05
1.18766e-05
1.19498e-05
1.2005e-05
1.19067e-05
1.19626e-05
1.20172e-05
1.2039e-05
1.20506e-05
1.21452e-05
1.21506e-05
1.20678e-05
1.21444e-05
1.1454e-05
1.36921e-05
1.13315e-05
1.1399e-05
1.01688e-05
1.13268e-05
1.13484e-05
1.13036e-05
1.13294e-05
1.13343e-05
1.1325e-05
1.12209e-05
1.12676e-05
1.12011e-05
1.11975e-05
1.13045e-05
1.13931e-05
1.16175e-05
1.15149e-05
1.13428e-05
1.1347e-05
1.1392e-05
1.13743e-05
1.34058e-05
1.22833e-05
1.22225e-05
1.22868e-05
1.13612e-05
1.11003e-05
1.15415e-05
1.16522e-05
1.21531e-05
1.17578e-05
1.15085e-05
1.07577e-05
1.06728e-05
1.07133e-05
1.04946e-05
1.08549e-05
1.23371e-05
1.23033e-05
1.23343e-05
1.04751e-05
1.05055e-05
1.06062e-05
1.04941e-05
1.22592e-05
1.2274e-05
1.22744e-05
1.21924e-05
1.22584e-05
1.22563e-05
1.21615e-05
1.21667e-05
1.21813e-05
1.2181e-05
4.64164e-05
4.81581e-06
1.10343e-05
6.48102e-05
4.46286e-05
6.13009e-05
1.46424e-05
1.45753e-05
1.22694e-05
1.13949e-05
1.16085e-05
1.20654e-05
1.2091e-05
1.19482e-05
1.2063e-05
1.2173e-05
1.21474e-05
1.20943e-05
1.22336e-05
1.22333e-05
1.23048e-05
1.22595e-05
1.22214e-05
1.22602e-05
1.17282e-05
1.32404e-05
1.12894e-05
1.13579e-05
1.09897e-05
1.08011e-05
1.13087e-05
1.13092e-05
1.13251e-05
1.13378e-05
1.13471e-05
1.13363e-05
1.12827e-05
1.12943e-05
1.12221e-05
1.11884e-05
1.13212e-05
1.15435e-05
1.16122e-05
1.12545e-05
1.12685e-05
1.13615e-05
1.1415e-05
1.1388e-05
1.1409e-05
1.1374e-05
1.31698e-05
1.22948e-05
1.22208e-05
1.2041e-05
1.20668e-05
1.13209e-05
1.10756e-05
1.08231e-05
1.12541e-05
1.18985e-05
1.14768e-05
1.12577e-05
1.07152e-05
1.08906e-05
1.0708e-05
1.07494e-05
1.08567e-05
1.2292e-05
1.22464e-05
1.08335e-05
1.10137e-05
1.06641e-05
1.22843e-05
1.22379e-05
1.21681e-05
1.22819e-05
1.22829e-05
1.23823e-05
1.22651e-05
1.22213e-05
1.22622e-05
1.22574e-05
0.000172371
5.88756e-06
9.40792e-06
0.00019978
0.000171696
0.000162671
2.76725e-06
1.30917e-05
1.29549e-05
1.25829e-05
1.14233e-05
1.15125e-05
1.20189e-05
1.21443e-05
1.13296e-05
1.22349e-05
1.22046e-05
1.23609e-05
1.22969e-05
1.23501e-05
1.2396e-05
1.24598e-05
1.24097e-05
1.22971e-05
1.23841e-05
1.25552e-05
1.31603e-05
1.13305e-05
1.13461e-05
1.07371e-05
1.06867e-05
1.13274e-05
1.12526e-05
1.13336e-05
1.13411e-05
1.13462e-05
1.13651e-05
1.13398e-05
1.13089e-05
1.12928e-05
1.1324e-05
1.12732e-05
1.12032e-05
1.11736e-05
1.13261e-05
1.13339e-05
1.18868e-05
1.14006e-05
1.18233e-05
1.20375e-05
1.12592e-05
1.13689e-05
1.14054e-05
1.14327e-05
1.13879e-05
1.31353e-05
1.21578e-05
1.1958e-05
1.17933e-05
1.19076e-05
1.1051e-05
1.09356e-05
1.09206e-05
1.11539e-05
1.1168e-05
1.15344e-05
1.11777e-05
1.10287e-05
1.08948e-05
1.0934e-05
1.10619e-05
1.10282e-05
1.10861e-05
1.11848e-05
1.21928e-05
1.21353e-05
1.09511e-05
1.11614e-05
1.22741e-05
1.22261e-05
1.2169e-05
1.20126e-05
1.23162e-05
1.22973e-05
1.24904e-05
1.24005e-05
1.23226e-05
1.23424e-05
1.23314e-05
0.000140491
0.000202766
3.3828e-06
6.3963e-05
1.15086e-05
0.000213342
0.000205383
0.000175494
4.58889e-05
1.15817e-05
8.92612e-06
1.23438e-05
1.14739e-05
1.11149e-05
1.1458e-05
1.16279e-05
1.20727e-05
1.25836e-05
1.25041e-05
1.2355e-05
1.24354e-05
1.25551e-05
1.25589e-05
1.25922e-05
1.26287e-05
1.24949e-05
1.2417e-05
1.24748e-05
1.17708e-05
1.28477e-05
1.12543e-05
1.12866e-05
1.04993e-05
1.0925e-05
1.12133e-05
1.13534e-05
1.13585e-05
1.13766e-05
1.13504e-05
1.13334e-05
1.13226e-05
1.13362e-05
1.1291e-05
1.12283e-05
1.11904e-05
1.13369e-05
1.13396e-05
1.21184e-05
1.14337e-05
1.16819e-05
1.1877e-05
1.11949e-05
1.13837e-05
1.14705e-05
1.14021e-05
1.14282e-05
1.14643e-05
1.35633e-05
1.27433e-05
1.1979e-05
1.17427e-05
1.15621e-05
1.16052e-05
1.09105e-05
1.08877e-05
1.1191e-05
1.10124e-05
1.10178e-05
1.13505e-05
1.10393e-05
1.10114e-05
1.1351e-05
1.1394e-05
1.11431e-05
1.12913e-05
1.11564e-05
1.12294e-05
1.14555e-05
1.20637e-05
1.19753e-05
9.70215e-06
1.12798e-05
1.18426e-05
1.22601e-05
1.2077e-05
1.19504e-05
1.17865e-05
1.23212e-05
1.22747e-05
1.25407e-05
1.2463e-05
1.24081e-05
1.23797e-05
1.2379e-05
1.23454e-05
0.000173553
0.000192716
5.40319e-06
2.49015e-05
9.52247e-06
0.000240748
0.000303492
0.000243013
9.18767e-05
1.46976e-05
1.35888e-05
1.40656e-05
1.14885e-05
1.13387e-05
1.10712e-05
1.17765e-05
1.22513e-05
1.60123e-05
1.24813e-05
1.24533e-05
1.26669e-05
1.27153e-05
1.26782e-05
1.26212e-05
1.26957e-05
1.26957e-05
1.26215e-05
1.2573e-05
1.1194e-05
1.3096e-05
1.13239e-05
1.1277e-05
1.01842e-05
1.08483e-05
1.13045e-05
1.13585e-05
1.13614e-05
1.13737e-05
1.13936e-05
1.13536e-05
1.134e-05
1.13174e-05
1.13415e-05
1.13399e-05
1.128e-05
1.12249e-05
1.11718e-05
1.13397e-05
1.13472e-05
1.23258e-05
1.13299e-05
1.18768e-05
1.1406e-05
1.11767e-05
1.1399e-05
1.15084e-05
1.14282e-05
1.14555e-05
1.1497e-05
1.32312e-05
1.23575e-05
1.17342e-05
1.13678e-05
1.12112e-05
1.13512e-05
1.10582e-05
1.11277e-05
1.13347e-05
1.10374e-05
1.09903e-05
1.10159e-05
1.10458e-05
1.10067e-05
1.10678e-05
1.15263e-05
1.13197e-05
1.07465e-05
1.11548e-05
1.09185e-05
1.12403e-05
1.11531e-05
1.18456e-05
1.16775e-05
1.06741e-05
1.00039e-05
1.21683e-05
1.20469e-05
1.19294e-05
1.17535e-05
1.15698e-05
1.22638e-05
1.21486e-05
1.25418e-05
1.25775e-05
1.24886e-05
1.24477e-05
1.2416e-05
1.23586e-05
1.23094e-05
0.000163567
0.000172433
1.46777e-05
9.8891e-05
1.407e-05
0.000165792
0.000442685
0.000509977
0.000266474
6.29996e-05
1.61672e-06
8.19564e-06
1.10307e-05
1.15988e-05
1.09785e-05
1.17772e-05
1.57353e-05
1.27432e-05
1.29334e-05
1.25707e-05
1.24945e-05
1.27162e-05
1.25954e-05
1.27422e-05
1.27507e-05
1.278e-05
1.27093e-05
1.26606e-05
1.26296e-05
9.90666e-06
1.4311e-05
1.16824e-05
1.13115e-05
1.11259e-05
1.12254e-05
1.04584e-05
1.12188e-05
1.13735e-05
1.1376e-05
1.13845e-05
1.14108e-05
1.13672e-05
1.13452e-05
1.13282e-05
1.13452e-05
1.13449e-05
1.13014e-05
1.12744e-05
1.12242e-05
1.13485e-05
1.13533e-05
1.21751e-05
1.11788e-05
1.12763e-05
1.17288e-05
1.11852e-05
1.14225e-05
1.16036e-05
1.15446e-05
1.14545e-05
1.149e-05
1.15353e-05
1.32043e-05
1.18111e-05
1.16982e-05
1.13649e-05
1.12728e-05
1.11309e-05
1.10111e-05
1.10789e-05
1.1229e-05
1.1161e-05
1.16046e-05
1.13345e-05
1.12503e-05
1.1088e-05
1.09567e-05
1.10932e-05
1.01788e-05
1.09869e-05
7.90232e-06
1.02296e-05
9.57618e-06
1.13957e-05
7.787e-06
1.16151e-05
7.1877e-06
5.43095e-06
7.37011e-06
1.20797e-05
1.17546e-05
1.16563e-05
1.14002e-05
1.1281e-05
1.21587e-05
1.24927e-05
1.25231e-05
1.25759e-05
1.24289e-05
1.23586e-05
1.22597e-05
1.21782e-05
0.000173353
0.000137475
0.00015912
3.75277e-05
6.93452e-05
2.52835e-05
0.000173985
0.000697389
0.000798781
0.000328486
3.44522e-05
1.53914e-06
6.1314e-06
6.68953e-07
1.13901e-05
1.0592e-05
1.09056e-05
1.37939e-05
2.16839e-05
1.2242e-05
2.75208e-06
1.28265e-05
1.30474e-05
1.24858e-05
1.27938e-05
1.27806e-05
1.27408e-05
1.29161e-05
1.2669e-05
1.26856e-05
1.26763e-05
1.2628e-05
9.47932e-06
1.39166e-05
1.11671e-05
1.13137e-05
1.11635e-05
1.12182e-05
1.02085e-05
1.13147e-05
1.13838e-05
1.13841e-05
1.14016e-05
1.14332e-05
1.13801e-05
1.13728e-05
1.13509e-05
1.13422e-05
1.13205e-05
1.13473e-05
1.13502e-05
1.12837e-05
1.12842e-05
1.12095e-05
1.13541e-05
1.13677e-05
1.2062e-05
1.11465e-05
1.11572e-05
1.1397e-05
1.18068e-05
1.11667e-05
1.14423e-05
1.16481e-05
1.15909e-05
1.14836e-05
1.15243e-05
1.15783e-05
1.3309e-05
1.05683e-05
1.13519e-05
1.12018e-05
1.10368e-05
1.10145e-05
1.10473e-05
1.16337e-05
1.1654e-05
1.16801e-05
1.16216e-05
1.1503e-05
1.13959e-05
1.14977e-05
1.10036e-05
1.1244e-05
7.40264e-06
7.66133e-06
5.84969e-06
5.49293e-06
7.10753e-06
6.53129e-06
1.00669e-05
8.48177e-06
1.13279e-05
3.55558e-06
4.66698e-06
1.18167e-05
1.15989e-05
1.13927e-05
1.1184e-05
1.11051e-05
1.19882e-05
1.24239e-05
1.24082e-05
1.25652e-05
1.23394e-05
1.21916e-05
1.20774e-05
1.20062e-05
0.000149353
5.70112e-05
9.90628e-05
6.60617e-05
6.94545e-05
0.000123539
0.000115122
0.000558137
0.000979123
0.000716718
0.000259201
9.58132e-06
1.51552e-05
2.95177e-05
5.51892e-05
1.1487e-05
9.90012e-06
1.05473e-05
1.35076e-05
2.31355e-05
1.52656e-05
0.000121078
1.40411e-05
1.4544e-05
1.37224e-05
1.31397e-05
1.27894e-05
1.26834e-05
1.30125e-05
1.25636e-05
1.25978e-05
1.26221e-05
9.52938e-06
1.23193e-05
1.33842e-05
1.00181e-05
1.12735e-05
1.12338e-05
1.07538e-05
1.12767e-05
1.14025e-05
1.14076e-05
1.14163e-05
1.1462e-05
1.13962e-05
1.1388e-05
1.136e-05
1.13426e-05
1.13276e-05
1.13561e-05
1.13615e-05
1.13186e-05
1.13114e-05
1.12571e-05
1.13689e-05
1.1377e-05
1.11479e-05
1.12796e-05
1.1742e-05
1.11918e-05
1.14844e-05
1.16599e-05
1.16283e-05
1.15202e-05
1.14996e-05
1.15698e-05
1.16257e-05
1.30155e-05
1.2581e-05
1.12141e-05
1.10145e-05
1.10299e-05
1.1008e-05
1.10293e-05
1.11841e-05
1.18517e-05
1.17796e-05
1.10423e-05
1.21365e-05
1.21044e-05
1.19119e-05
1.12268e-05
1.16297e-05
5.5222e-06
6.46712e-06
7.70138e-06
4.07825e-06
3.3498e-06
5.52223e-06
4.7169e-06
7.73848e-06
6.53171e-06
1.11441e-05
3.10336e-06
3.32292e-06
3.40654e-06
1.16901e-05
1.14198e-05
1.12889e-05
1.10441e-05
1.1097e-05
1.17608e-05
1.23161e-05
1.23254e-05
1.24185e-05
1.21452e-05
1.20382e-05
1.17423e-05
1.17654e-05
0.000124278
0.000103682
0.000121018
0.000165474
0.000111768
0.000509213
0.000965701
0.00118605
0.000910066
0.000370733
1.11312e-05
8.30027e-05
6.96045e-05
0.000153517
1.10105e-05
1.0547e-05
9.34238e-06
1.04942e-05
1.44639e-05
6.20529e-05
0.000115078
0.000263058
1.55108e-05
1.39013e-05
1.89666e-05
1.4449e-05
1.27506e-05
1.26257e-05
1.31604e-05
1.24951e-05
1.25754e-05
1.26552e-05
1.24996e-05
1.19345e-05
1.31768e-05
9.66203e-06
1.12837e-05
1.12477e-05
1.07884e-05
1.1264e-05
1.14191e-05
1.14284e-05
1.14445e-05
1.14945e-05
1.14651e-05
1.14183e-05
1.1403e-05
1.13656e-05
1.13705e-05
1.13471e-05
1.13405e-05
1.13295e-05
1.13698e-05
1.13542e-05
1.13725e-05
1.13263e-05
1.13181e-05
1.13146e-05
1.12415e-05
1.13932e-05
1.11776e-05
1.11466e-05
1.12941e-05
1.15418e-05
1.17126e-05
1.16918e-05
1.15512e-05
1.15386e-05
1.15999e-05
1.16539e-05
1.29667e-05
1.21736e-05
1.09021e-05
1.10639e-05
1.12061e-05
1.12061e-05
1.13233e-05
1.15589e-05
9.70912e-06
1.18236e-05
9.2572e-06
1.21111e-05
1.21289e-05
1.19356e-05
1.20649e-05
1.15863e-05
3.26415e-06
3.64933e-06
3.16705e-06
3.35214e-06
3.10274e-06
3.61393e-06
3.36139e-06
5.97286e-06
5.35094e-06
3.58792e-06
1.10231e-05
2.84303e-06
3.03921e-06
3.09997e-06
1.13737e-05
1.12707e-05
1.11512e-05
1.11192e-05
1.11925e-05
1.11847e-05
1.15215e-05
1.211e-05
1.21724e-05
1.24026e-05
1.20403e-05
1.1764e-05
1.17017e-05
1.16472e-05
1.15227e-05
0.000122137
0.00012542
0.000101352
0.000182758
0.000169543
0.00010944
0.000628633
0.00117938
0.00121045
0.00109233
0.00064629
0.0012034
0.000253716
0.000200987
0.000213409
5.74079e-05
1.08962e-05
1.20855e-05
1.07256e-05
1.15253e-05
2.59951e-05
3.85836e-05
0.000312717
0.000405317
1.26116e-05
5.72315e-06
0.000114356
1.3797e-05
1.28831e-05
1.29235e-05
1.44628e-05
1.33585e-05
1.24237e-05
1.25686e-05
1.27949e-05
1.05294e-05
1.25711e-05
1.32255e-05
1.0435e-05
1.10924e-05
1.12609e-05
1.12039e-05
1.13334e-05
1.09362e-05
1.14548e-05
1.14605e-05
1.14675e-05
1.15373e-05
1.15034e-05
1.14463e-05
1.14348e-05
1.13816e-05
1.13834e-05
1.1343e-05
1.13403e-05
1.13358e-05
1.13895e-05
1.13696e-05
1.139e-05
1.13324e-05
1.13331e-05
1.13304e-05
1.12744e-05
1.14098e-05
1.12221e-05
1.11427e-05
1.11945e-05
1.15515e-05
1.17492e-05
1.17114e-05
1.15871e-05
1.1563e-05
1.16445e-05
1.16947e-05
1.16628e-05
1.28988e-05
1.0941e-05
1.12981e-05
1.11962e-05
1.13147e-05
1.13929e-05
1.15863e-05
1.19201e-05
1.02702e-05
1.10586e-05
7.72858e-06
1.16109e-05
1.09383e-05
1.09499e-05
1.17136e-05
1.18754e-05
3.12572e-06
2.89147e-06
3.32943e-06
2.51145e-06
3.00109e-06
3.30332e-06
3.08552e-06
3.71882e-06
5.86177e-06
3.23875e-06
3.25031e-06
1.1208e-05
3.2505e-06
3.14824e-06
1.13331e-05
1.12968e-05
1.1103e-05
1.11717e-05
1.14609e-05
1.14719e-05
1.15222e-05
1.21423e-05
1.23631e-05
1.22788e-05
1.18708e-05
1.1895e-05
1.16283e-05
1.14299e-05
1.14301e-05
0.000139182
7.81329e-05
0.000127856
0.00018594
0.000174887
0.000143069
0.00115051
0.00115869
0.000933029
0.000947861
0.000713476
0.00107077
0.000147115
0.000416905
0.000382702
0.000206533
1.23479e-05
1.07895e-05
7.91824e-06
2.50106e-05
1.16921e-05
2.05859e-05
3.22331e-05
0.000547296
0.000486916
5.56634e-05
1.77749e-05
0.00025357
9.17141e-06
1.33719e-05
1.55565e-05
1.39461e-05
1.24873e-05
1.27044e-05
1.29767e-05
1.34353e-05
1.00046e-05
1.20278e-05
1.33768e-05
1.07433e-05
1.1095e-05
1.12365e-05
1.12569e-05
1.12791e-05
1.1025e-05
1.14738e-05
1.14916e-05
1.14987e-05
1.15688e-05
1.1538e-05
1.14854e-05
1.14515e-05
1.13934e-05
1.14046e-05
1.13526e-05
1.13405e-05
1.14091e-05
1.13879e-05
1.13688e-05
1.1408e-05
1.13377e-05
1.13386e-05
1.13389e-05
1.13383e-05
1.13251e-05
1.12746e-05
1.14392e-05
1.12304e-05
1.11256e-05
1.11996e-05
1.13385e-05
1.11371e-05
1.17925e-05
1.1767e-05
1.16189e-05
1.1609e-05
1.16715e-05
1.17229e-05
1.17012e-05
1.29765e-05
1.20423e-05
9.77643e-06
1.11823e-05
1.14974e-05
1.17167e-05
1.17514e-05
1.18429e-05
1.18759e-05
7.96645e-06
8.1528e-06
1.02358e-05
9.18608e-06
1.0311e-05
1.08006e-05
1.20647e-05
3.26336e-06
3.76096e-06
3.1949e-06
3.90915e-06
3.48976e-06
5.34757e-06
3.59464e-06
3.06545e-06
3.75454e-06
2.9719e-06
3.25592e-06
1.14743e-05
4.4149e-06
4.17746e-06
1.13761e-05
1.14265e-05
1.13322e-05
1.16526e-05
1.16714e-05
1.19807e-05
1.19605e-05
1.21976e-05
1.26279e-05
1.2391e-05
1.22862e-05
1.21061e-05
1.22445e-05
1.19102e-05
1.17267e-05
1.14198e-05
0.000187013
3.19789e-05
0.000123725
0.000181958
0.000182532
0.000144744
0.000185206
0.00128383
0.00104075
0.000973894
0.000871199
0.000421813
0.000955668
0.000394818
0.000596616
0.000650579
0.000171413
7.64203e-06
1.14235e-05
2.08162e-05
2.52305e-05
2.88328e-05
1.57366e-05
1.97699e-05
6.93467e-05
0.000806069
0.000705235
0.000280146
1.6344e-06
0.000454574
1.31387e-05
1.40598e-05
1.4528e-05
1.2915e-05
1.32473e-05
1.37089e-05
1.43842e-05
1.02321e-05
1.21008e-05
1.35698e-05
1.30534e-05
1.07816e-05
1.11837e-05
1.11939e-05
1.11827e-05
1.13459e-05
1.04753e-05
1.15194e-05
1.15256e-05
1.15278e-05
1.16141e-05
1.1577e-05
1.15157e-05
1.1495e-05
1.14203e-05
1.1426e-05
1.13606e-05
1.13534e-05
1.1444e-05
1.1411e-05
1.13859e-05
1.14374e-05
1.13473e-05
1.13516e-05
1.13491e-05
1.13479e-05
1.13382e-05
1.13139e-05
1.14671e-05
1.12914e-05
1.11749e-05
1.12147e-05
1.12916e-05
1.11144e-05
1.18428e-05
1.18022e-05
1.17847e-05
1.1661e-05
1.16396e-05
1.17137e-05
1.17613e-05
1.17309e-05
1.27561e-05
1.18911e-05
1.01283e-05
1.12614e-05
1.18118e-05
1.18248e-05
1.17786e-05
1.19183e-05
1.18879e-05
1.1533e-05
5.41947e-06
5.37754e-06
7.88829e-06
6.91898e-06
7.26319e-06
9.86467e-06
8.84912e-06
1.11384e-05
4.15353e-06
4.93767e-06
3.66151e-06
5.85959e-06
6.69e-06
4.70349e-06
8.26115e-06
4.79472e-06
2.98888e-06
3.68865e-06
3.72991e-06
1.19111e-05
5.18385e-06
5.11496e-06
1.14971e-05
1.15192e-05
1.16867e-05
1.2072e-05
1.22351e-05
1.23513e-05
1.22151e-05
1.2655e-05
1.36621e-05
1.30299e-05
1.29446e-05
1.31271e-05
1.3106e-05
1.31051e-05
1.21924e-05
1.20574e-05
0.000117261
0.000722804
0.000172311
0.000171179
0.000175751
0.000195297
0.00126607
0.000889473
0.00101926
0.000780438
0.00028958
0.000548376
0.000573772
0.000699131
0.000820957
7.03324e-05
0.000441957
1.46667e-05
1.0394e-05
2.14177e-05
2.62867e-05
2.85211e-05
2.35064e-05
0.000101754
0.000860147
0.000903211
0.00074491
0.000482587
2.40452e-05
0.000404577
1.13175e-05
1.49366e-05
1.60876e-05
1.34924e-05
1.39859e-05
1.45846e-05
1.54247e-05
1.01241e-05
1.1202e-05
1.38271e-05
1.27008e-05
1.10272e-05
1.11742e-05
1.11636e-05
1.14043e-05
1.13123e-05
1.09548e-05
1.15399e-05
1.15658e-05
1.15711e-05
1.16372e-05
1.16247e-05
1.15193e-05
1.15693e-05
1.15002e-05
1.14425e-05
1.14682e-05
1.13801e-05
1.13689e-05
1.14771e-05
1.14574e-05
1.14047e-05
1.14412e-05
1.14674e-05
1.13564e-05
1.13668e-05
1.13584e-05
1.13513e-05
1.13408e-05
1.13197e-05
1.12952e-05
1.11861e-05
1.12641e-05
1.11531e-05
1.13176e-05
1.1152e-05
1.18975e-05
1.18792e-05
1.185e-05
1.16913e-05
1.16773e-05
1.175e-05
1.17977e-05
1.17825e-05
1.26626e-05
1.02673e-05
9.31079e-06
1.1182e-05
1.19336e-05
1.18142e-05
1.17678e-05
1.16875e-05
1.10796e-05
1.0394e-05
4.677e-06
4.36091e-06
5.82054e-06
4.81318e-06
7.71107e-06
6.00852e-06
6.52309e-06
9.61717e-06
7.34751e-06
9.05985e-06
5.48511e-06
9.88511e-06
9.49694e-06
8.37326e-06
1.2197e-05
8.41478e-06
4.72132e-06
3.46956e-06
3.60115e-06
4.62199e-06
1.20817e-05
8.16455e-06
7.7097e-06
1.21378e-05
1.2053e-05
1.22211e-05
1.2387e-05
1.20447e-05
1.2288e-05
1.22657e-05
1.34138e-05
1.36653e-05
1.43094e-05
1.3732e-05
1.4312e-05
1.42291e-05
1.37372e-05
1.3315e-05
1.24241e-05
7.18817e-05
0.00094129
0.000199877
0.00018869
0.000173402
0.000202128
0.000164495
0.00108439
0.000827803