/*--------------------------------*- C++ -*----------------------------------*\
| =========                 |                                                 |
| \\      /  F ield         | OpenFOAM: The Open Source CFD Toolbox           |
|  \\    /   O peration     | Version:  v2012                                 |
|   \\  /    A nd           | Website:  www.openfoam.com                      |
|    \\/     M anipulation  |                                                 |
\*---------------------------------------------------------------------------*/
FoamFile
{
    version     2.0;
    format      ascii;
    class       surfaceScalarField;
    location    "1.3";
    object      phi;
}
// * * * * * * * * * * * * * * * * * * * * * * * * * * * * * * * * * * * * * //

dimensions      [0 3 -1 0 0 0 0];
oriented        oriented;


internalField   nonuniform List<scalar> 
21399
(
0.183778
0.731604
-0.690029
0.845006
0.759143
-0.146097
0.644073
0.322496
0.604426
0.523006
0.283989
0.137986
0.620317
0.540014
0.825639
0.0718223
0.661756
0.661265
-0.666862
0.922693
0.632692
-0.0491138
0.593062
0.00951304
-0.47296
0.576241
0.708434
0.268113
0.39337
0.377846
0.519695
0.902728
0.427223
-0.131491
0.389648
0.123607
0.0728876
0.534307
-0.165847
0.850898
0.777419
-0.205363
0.699369
0.907087
0.229169
0.346043
0.0576657
0.480874
-0.392249
0.471134
0.408521
0.652485
0.0681469
0.711764
0.759635
0.583488
0.324256
0.387162
-0.155864
-0.392471
0.454516
0.0993066
0.236216
0.238139
0.649948
-0.145927
0.792814
0.341178
0.372228
0.381072
0.372819
0.589085
0.665667
-0.00273031
0.200075
0.311697
0.143768
0.413242
0.365334
-0.130638
0.58664
0.0687226
0.44482
0.400845
0.388821
0.753373
0.771484
-0.136865
0.725522
0.529014
-0.353249
0.350548
-0.15302
0.330111
-0.185675
0.412859
0.00136152
0.278532
0.356061
0.0099983
0.282619
0.425667
0.502348
-0.0570479
-0.371124
0.759629
0.307599
0.445913
0.432619
0.33639
0.731415
0.836186
0.414571
-0.0642766
0.125319
0.314304
0.0164212
0.228762
0.315962
-0.321441
0.331119
-0.0394474
0.467811
-0.041395
0.131789
0.411177
0.451835
0.307158
0.877869
0.787678
-0.314851
1.04561
0.520911
-0.393759
0.329336
-0.176137
0.301452
-0.263393
0.279752
-0.0348537
0.299885
0.0162203
0.0922998
0.361404
-0.0304538
0.260473
0.319892
-0.296115
0.427991
0.115248
-0.217005
0.52395
0.285479
0.591792
0.753413
0.0336006
0.763914
0.2811
0.805928
-0.0923217
0.334175
-0.00521381
0.319181
-0.0393736
0.299044
0.335379
-0.17305
0.265339
0.123608
-0.368752
0.338129
-0.108436
-0.0364048
0.356284
0.579968
-0.152034
-0.301512
0.416714
0.362874
0.483639
0.0400434
-0.0661696
0.657382
0.686505
0.516855
0.777525
-0.368563
0.649318
0.436964
0.173018
0.271311
-0.276689
-0.233476
0.193921
0.0653916
0.22693
0.292997
-0.169459
0.300499
0.0374618
0.263982
0.0547524
0.264639
0.384268
-0.0215889
0.424126
0.106271
0.550705
0.571545
0.114474
-0.101889
0.618455
0.745696
0.031291
0.765806
-0.116873
0.542948
0.353312
-0.180397
0.28334
-0.0121544
0.0765169
0.327107
-0.13329
-0.188627
0.253895
0.305325
-0.0785282
0.112533
0.0995922
-0.255499
0.292825
0.222078
0.0418209
0.27674
0.445868
-0.181397
-0.308756
0.287019
0.436884
-0.0129285
0.0841734
0.466101
0.655208
-0.405614
0.519741
0.334797
0.212557
0.757677
0.796576
0.425741
0.0945975
-0.223478
0.211245
0.275742
-0.199323
0.297681
0.0293144
0.120507
0.0497182
0.219045
0.295123
-0.182676
0.271435
-0.171911
0.221502
0.071199
0.26322
0.430854
-0.154215
0.136972
0.249311
0.425521
-0.138647
0.41242
0.891446
0.734458
-0.0797119
0.666089
-0.146633
0.375361
-0.0406984
0.480975
-0.268617
0.0612111
0.696004
0.648941
0.147128
-0.207395
0.301895
0.0521761
0.00375885
0.0957197
0.235068
-0.205849
-0.119392
0.239819
-0.246962
0.296565
-0.0280107
0.0886898
0.0649753
-0.216699
0.287783
0.108903
0.329159
-0.192298
0.373029
-0.123846
0.190377
0.287742
0.12455
0.472832
0.418158
0.246984
0.486962
0.585987
0.33408
0.106585
0.246944
0.709705
0.705589
0.619575
0.182409
0.200206
-0.148099
-0.203075
0.206736
0.289621
-0.193998
0.241168
-0.00618856
0.0338945
0.0797453
0.213045
0.259205
-0.170595
0.264102
0.225465
0.0622085
0.334238
0.180604
-0.302079
0.17811
0.384586
-0.19434
-0.176057
0.300478
0.664704
0.680609
-0.193952
0.597609
-0.0119188
0.530534
-0.196694
-0.271519
0.377977
-0.0246676
0.639695
0.0696196
-0.0721799
0.777289
0.0282878
0.590902
0.191961
-0.00963967
-0.00293213
0.141448
-0.0518807
0.258536
0.0651207
-0.207076
0.200799
0.225779
0.284499
-0.204874
0.250185
-0.0372221
0.093424
-0.167324
0.229445
0.0320596
0.346926
-0.166423
0.321809
-0.143811
0.31559
0.0688937
0.152487
0.139406
0.275693
0.692558
0.608486
0.071799
0.403413
-0.387048
0.374928
0.143301
-0.458566
0.26169
-0.0807508
0.567138
0.660149
0.786622
-0.218429
0.208679
-0.195877
0.192881
-0.0545017
-0.211685
0.159741
0.0400237
0.267876
-0.202853
0.0186177
0.215252
-0.0145331
0.117087
0.0452153
0.177959
0.191605
-0.0982472
0.272996
-0.0436597
0.304907
0.155252
0.160931
0.276759
-0.207937
0.326799
-0.174392
-0.177149
0.316467
0.329046
-0.0534778
0.0512688
0.640795
0.659297
-0.486387
0.557948
-0.0831877
0.500191
-0.125433
0.433447
-0.290301
0.385943
-0.124373
0.248169
-0.406862
0.973572
0.252847
-0.17788
0.96405
0.188502
0.0200954
-0.0188755
-0.228255
0.173667
0.190175
-0.0305053
0.230125
0.0395374
-0.0113094
0.207034
-0.203122
0.188508
0.226981
-0.109967
-0.174521
0.219657
0.00337449
-0.237953
0.139644
-0.0231997
0.183256
0.293584
-0.138454
0.294785
-0.134229
0.0995349
0.118784
0.119091
0.244426
0.0719594
0.190856
0.89313
-0.106129
0.76501
0.65531
-0.0976346
0.416779
0.307843
0.0954903
-0.392689
0.268193
-0.144653
0.795259
0.720255
0.24335
-0.175539
0.195551
-0.214994
0.196038
-0.0414037
-0.165724
0.135151
0.0545029
-0.131849
0.171329
-0.154599
0.143245
0.00383071
0.191163
-0.0027307
-0.230516
0.120469
-0.0109372
0.194459
-0.0149954
0.172931
-0.116103
0.299289
0.155997
-0.1979
0.0633233
0.275338
-0.175885
0.282379
-0.163674
0.287597
-0.168596
-0.175126
0.247019
0.309395
-0.118614
-0.0037691
0.896388
0.548826
0.760827
-0.522352
0.424482
-0.10578
0.474826
-0.167183
-0.301337
0.396691
-0.0332692
0.164626
0.541948
0.252833
0.73221
0.784963
0.191236
0.00423656
0.030252
-0.165
0.123541
0.220915
-0.0858318
-0.147052
0.201475
-0.259646
0.127739
0.00628835
-0.116459
0.194986
-0.188689
0.185877
0.274257
-0.153866
-0.18995
0.178935
0.00443084
-0.194896
0.179853
-0.0220134
0.158076
0.101354
0.215442
-0.0596469
-0.168581
0.232005
0.100131
0.106412
0.123822
0.0466993
0.128333
0.405143
0.490835
0.770033
-0.22152
0.582493
0.177982
0.584919
-0.16066
0.368842
-0.34379
0.176466
0.0527787
0.213781
-0.247157
0.338038
-0.173507
0.657601
0.179872
0.55205
0.577953
0.206565
-0.149765
0.153936
0.178236
-0.148047
0.222904
-0.0994172
0.0737869
0.092348
0.0516481
0.170988
-0.0433025
0.177233
0.0633427
0.00622102
0.178157
0.00764347
0.0249837
0.182509
-0.167269
0.145208
0.279356
-0.121278
-0.0670715
-0.249167
0.189639
-0.0170474
0.256539
-0.156484
0.24844
-0.142104
0.259639
-0.135899
-0.123692
0.170394
0.296698
-0.168446
-0.107857
0.598378
0.41541
0.354276
0.363157
0.474333
0.593105
-0.466414
0.305572
-0.0977547
-0.210774
0.38714
0.280521
-0.227832
0.35147
-0.137769
0.0907928
0.123108
0.595964
0.0613058
0.757514
0.559169
0.802113
-0.0289039
0.616965
0.0155563
0.586334
0.202617
-0.0487522
0.0747914
0.0777644
-0.122617
0.196335
0.199827
-0.107547
0.185226
-0.133647
-0.169268
0.125909
0.208644
-0.145354
0.20875
-0.168337
0.175905
-0.180331
0.205212
0.00210277
0.187149
-0.0419725
0.212272
-0.203779
0.0823697
0.0660132
-0.164745
0.147819
0.088012
0.0918803
0.11745
-0.240476
0.104491
-0.0701396
0.659385
0.663849
-0.309836
0.552283
-0.189324
-0.295124
0.769161
0.297695
0.537956
-0.232559
-0.378171
0.280276
0.0696683
0.00885389
0.123543
-0.261406
0.123569
-0.170681
0.287253
-0.164222
0.126539
0.63066
0.685461
0.787832
0.0138829
0.585793
0.0907267
0.526667
0.505326
0.584009
0.590459
0.136396
0.203865
-0.12914
0.193376
-0.115676
0.0771449
0.0626064
0.0962495
0.0393357
0.202519
-0.076655
0.0417648
0.0403313
0.171631
0.004204
0.00134252
0.173661
-0.153418
0.111419
0.0475991
-0.115723
0.197997
0.178566
-0.11255
0.226996
-0.0792387
0.291227
-0.203303
0.207859
-0.116039
0.231301
-0.11392
0.245663
-0.141242
0.108433
-0.111375
0.770354
0.343829
0.319792
0.242212
0.34844
0.657373
0.641274
-0.351613
0.118937
-0.0714304
0.255516
-0.185916
-0.282529
0.291295
0.306611
-0.183144
0.289604
-0.166108
0.116489
0.126913
-0.114829
0.745109
0.68863
0.672627
0.783872
-0.00807867
0.594331
-0.40412
0.49519
-0.0028107
0.529962
0.101423
0.576374
0.00140484
0.589531
0.212958
-0.0766469
0.0641743
0.0867905
-0.130171
0.207242
-0.123495
0.186028
0.150231
-0.0540351
0.192704
-0.153404
0.116014
-0.158192
0.199934
-0.14438
0.184632
-0.13137
0.135518
-0.193309
0.194583
-0.0197221
-0.0181779
-0.0467997
0.18113
-0.133987
0.0788083
0.254055
-0.0561825
0.114374
0.101522
0.00448861
0.1152
0.131657
-0.181731
0.0404411
-0.0733392
0.531067
-0.211465
0.442428
-0.200353
0.488716
-0.140438
0.745794
-0.0887467
-0.0770209
0.718014
0.398411
-0.279574
-0.321784
0.250271
-0.0270809
0.120628
-0.0305761
0.106381
-0.263156
0.0969754
-0.146741
0.249249
-0.122417
0.153305
0.591554
0.841606
-0.0619888
0.734274
0.602177
0.181363
0.592034
0.449916
0.0454894
-0.151426
0.681817
0.281625
0.0339003
0.38321
0.266694
0.0176713
0.578256
0.593266
0.0685046
-0.152623
0.0759244
-0.094615
0.158741
0.192496
-0.105755
0.0200081
0.0836837
0.033354
-0.172477
0.118395
0.0464979
0.155653
-0.0396763
0.0532066
0.197657
-0.0621979
0.177853
0.139438
0.121246
-0.138202
0.0913833
0.119905
0.172351
-0.0936055
0.116114
0.191094
-0.0767755
0.19667
-0.0953319
-0.19564
0.200061
-0.0804984
0.209533
-0.0779497
-0.176328
0.216713
0.117701
0.453839
-0.47229
0.260671
-0.0299811
0.288245
-0.433257
0.292677
0.458734
0.286741
0.628966
-0.0349728
-0.0293825
-0.29074
0.263584
-0.170182
-0.289067
0.258409
0.277845
-0.171537
0.252686
-0.155777
0.102432
-0.29482
0.172313
-0.022624
0.613922
0.123206
0.718097
0.539913
0.711348
0.63982
-0.0579312
0.650423
0.298742
-0.369496
0.415199
0.28512
0.397222
0.300734
0.0139135
0.285582
0.520713
-0.0701334
0.663965
0.202056
-0.133622
0.169983
-0.0941017
0.0978405
-0.0137777
0.049863
-0.131006
0.150966
0.190084
-0.106469
0.118901
-0.0855809
-0.0126481
-0.143847
0.190313
-0.1735
0.133793
0.156138
-0.102987
0.0938808
0.174419
0.00337342
-0.0169659
0.189763
-0.0984027
0.208375
-0.0885959
0.0807582
0.217106
-0.101071
0.119731
0.112914
-0.094845
0.128961
-0.183874
0.105863
-0.0586723
0.0327786
0.729967
-0.276354
0.599138
-0.338603
-0.397775
0.367701
-0.109639
0.44619
-0.153649
-0.453794
0.740304
0.174902
-0.385539
0.350456
-0.294329
0.26486
-0.0255743
0.107574
-0.036
0.0810761
-0.240505
0.0846623
-0.138138
0.203055
-0.0307979
0.736892
0.718562
-0.243815
0.78343
0.0386563
0.672411
0.395704
0.375429
0.275466
-0.21824
0.517203
0.197158
-0.344106
0.629603
0.773296
0.304186
-0.00331649
0.318278
0.272078
0.0136153
0.451052
0.673954
0.0989961
0.0363022
0.024766
0.146908
-0.0491063
0.133095
-0.121491
0.171321
0.168757
-0.0178413
0.104456
0.062233
-0.149979
0.137286
0.0458864
0.016784
0.0122768
0.195084
-0.101272
-0.152388
0.155705
0.158188
-0.0584077
0.141211
0.042797
0.128426
0.18393
-0.103219
0.0827955
0.188951
-0.0692907
0.207221
-0.094397
-0.232321
0.137396
-0.103426
0.210718
-0.104905
0.130199
0.174392
-0.141664
0.474116
0.255589
0.32258
0.0289693
0.336411
-0.307474
0.153738
0.470087
0.269947
0.648758
-0.120776
0.0428987
0.241638
-0.267299
0.29856
-0.19107
-0.276047
0.239973
0.259417
-0.17841
0.2301
-0.145495
0.0648657
0.139554
-0.170396
0.0545518
0.682053
0.032504
0.685746
0.821767
0.726698
0.86549
0.726988
0.173353
-0.208632
0.406006
0.632521
-0.00259031
0.352046
0.421852
0.26888
0.388218
-0.0697733
0.247285
0.0537613
0.261002
0.470744
0.203691
0.151994
-0.0530557
0.168083
-0.131839
-0.113327
0.138053
-0.152281
0.103138
-0.0169239
0.0190081
-0.148331
0.13045
-0.00891332
-0.135583
0.197759
-0.0110924
0.169518
-0.123653
-0.144394
0.161152
-0.136091
0.148338
0.0426276
0.0506697
0.0524344
0.0813455
0.158574
-0.115795
0.17407
-0.0457123
0.189774
-0.107037
0.137845
0.0796021
0.255636
-0.118309
0.107227
0.0694391
0.186599
-0.056454
0.0448847
0.615887
-0.360481
0.584567
-0.262158
-0.414629
0.443447
-0.0783492
0.329358
-0.175685
-0.5312
0.800878
0.11729
-0.265622
0.144775
0.301859
-0.259038
-0.03448
0.0311752
0.0682755
-0.0257042
0.0516243
-0.229248
0.0836892
-0.164434
-0.0249227
0.0851826
0.714272
0.688013
0.47657
0.344943
0.0944913
0.631929
0.668193
0.197019
0.34917
0.378419
-0.295542
0.469138
0.179757
0.110658
0.298309
0.334562
-0.304002
0.301595
0.701721
0.720648
0.298666
-0.0296725
0.229013
0.266017
0.25181
0.00928478
0.475585
0.582603
-0.177776
0.124663
-0.00975494
0.00616643
0.171697
-0.0685964
0.154728
-0.145716
0.164693
-0.00517931
-0.127529
0.118564
0.070174
-0.137674
0.126534
0.0251028
0.0349034
0.025037
0.00258714
0.158743
-0.116174
-0.124149
0.174761
0.186513
-0.134147
0.167499
-0.0861581
0.0516994
-0.144032
0.0982741
0.0456993
0.0794141
0.172889
-0.0351078
0.177769
-0.0982213
-0.237657
0.119275
-0.130499
0.188023
-0.118637
0.116386
0.192109
-0.147273
0.436345
0.179384
0.223919
-0.549223
0.286907
-0.105927
-0.408482
0.33001
-0.0792061
0.126115
0.435064
0.36554
0.55345
0.319534
-0.174819
-0.269565
0.0104756
0.216576
-0.251123
0.206902
-0.175785
0.305143
-0.236949
0.246218
-0.271982
0.228309
-0.17674
0.19064
-0.107
-0.19505
0.170067
-0.109921
0.0199055
0.694105
0.0334363
0.654327
0.570861
-0.242085
0.586789
0.651595
0.425865
0.631896
0.165314
0.342248
-0.162356
-0.208703
0.319505
-0.207493
0.54232
0.437746
-0.135991
0.480031
0.22216
0.530801
0.190244
0.222228
0.325274
-0.0961477
0.183677
0.082405
0.19303
-0.137698
0.613756
0.445387
0.000462752
0.142418
-0.152229
-0.13825
0.144362
0.0960585
0.0170069
-0.144088
0.138855
-0.0197319
0.136173
-0.0660495
-0.0175999
0.173877
-0.148794
0.127285
-0.0923935
-0.130648
0.155664
-0.116764
0.119327
0.0245287
0.0585259
0.0618892
0.166096
-0.1144
0.145913
-0.0476697
0.161024
-0.115367
0.143176
-0.0638127
-0.144098
0.108939
0.0336236
0.0476561
0.206684
-0.0874758
0.0574586
0.0734139
-0.0309365
-0.462291
0.641532
0.506835
-0.283036
0.523425
-0.236648
-0.507868
0.401802
-0.177985
-0.280739
0.201466
-0.154688
0.697101
-0.331789
-0.187744
0.741019
0.0499234
0.0713415
-0.239824
0.250256
-0.0554754
-0.0442761
0.12929
-0.00870873
0.013854
-0.22395
0.116897
-0.0539474
0.0966931
0.727295
0.656006
-0.0730728
0.643728
0.513525
-0.0217381
0.673058
-0.314858
0.740524
0.316831
0.346964
-0.181495
0.133653
0.163035
0.377861
-0.0582353
0.230478
0.255067
0.287478
0.21111
-0.0701682
0.550562
0.668025
0.460999
0.445544
0.245651
-0.0233464
0.14958
0.298706
-0.151257
0.233723
0.254893
-0.0617934
0.618555
-0.161313
0.161703
-0.0189567
-0.00791971
0.180742
-0.084731
-0.124032
0.140996
0.174225
-0.0354236
0.116391
0.108114
-0.113867
0.096233
0.0432075
-0.0215234
0.0736987
0.0388808
0.172319
-0.0530177
-0.123129
0.147594
0.12376
-0.0652795
0.147159
-0.0852729
0.0327564
0.113317
0.0277607
-0.172842
0.108975
0.15556
-0.0466619
0.159001
-0.12542
-0.106434
0.154054
0.128329
-0.215869
0.177229
-0.119823
0.1796
-0.106242
0.124563
0.0443995
0.453623
0.240267
-0.422298
0.185554
-0.0205968
-0.413923
0.235816
-0.212546
-0.277459
0.122711
0.362794
0.334144
0.409002
-0.189939
0.258624
-0.187347
-0.0272579
-0.244217
0.188669
-0.212955
0.168616
-0.0837377
-0.162456
0.153705
-0.192786
0.206613
-0.0759209
0.106573
-0.160568
0.189964
-0.0933244
0.116344
0.61073
0.0695173
0.586283
0.621745
-0.173946
0.68727
0.789158
0.566354
0.679448
0.196523
0.310275
-0.176511
0.309693
-0.14655
0.252146
0.424956
-0.19429
-0.047364
0.33501
0.390467
-0.179199
0.307109
0.24378
0.274847
0.39352
0.447036
0.0142902
-0.0196251
0.465391
0.231623
0.319689
-0.170025
0.147516
0.171994
0.0775074
0.541536
0.139754
0.0219033
0.105089
-0.124098
-0.158143
0.150162
0.0566712
0.0875544
0.0270989
-0.160911
0.125437
-0.0418161
0.154879
-0.0468199
-0.0647143
0.146861
-0.103668
-0.123838
0.102305
-0.0501468
0.148846
-0.109983
0.0958115
0.000593003
-0.0253065
0.0744398
0.0358712
0.144581
-0.111819
0.00684173
-0.143251
0.170954
-0.0343292
0.11229
0.0285825
0.189209
-0.0609302
-0.0386868
0.0597343
-0.181318
0.0750236
-0.0568061
-0.529098
0.573357
-0.15021
0.603689
-0.288939
0.492904
-0.307446
0.375551
-0.396244
0.451524
-0.21582
-0.31851
0.105881
-0.195853
0.688743
-0.354781
-0.236694
0.645529
0.068623
-0.286578
0.0991746
0.245905
-0.273217
-0.0756645
-0.0979625
0.159071
-0.242915
0.0441227
0.231803
-0.078138
-0.196301
0.120318
-0.0897667
0.0293543
0.0958383
0.680044
0.587341
-0.155684
0.777202
0.531393
0.450548
0.338405
-0.0231458
0.589289
0.0685555
0.610729
0.337842
-0.141201
0.133302
0.173243
0.284668
-0.0324255
0.345773
0.0793507
0.196344
0.298589
0.315564
0.158778
0.582322
0.691187
0.471363
0.480011
0.0616798
0.261276
-0.113692
-0.104666
0.276737
0.553617
0.130383
-0.108525
0.172349
-0.0673099
0.026012
0.149254
-0.0926175
0.150698
-0.0631724
0.12149
-0.0944209
0.151046
-0.0256605
0.112998
0.104171
0.056744
0.0368623
-0.162855
0.0591777
-0.0605596
-0.131989
0.0818368
0.160741
-0.0649528
-0.11921
0.119768
-0.145873
0.120516
-0.0447995
0.0922943
0.00596091
0.12808
0.0125947
0.0161774
-0.136116
0.142899
0.0347737
-0.143101
0.108712
0.155556
-0.0433186
-0.119404
0.147934
0.112357
-0.173335
-0.191051
0.152312
-0.131368
0.143877
-0.0688913
0.0987039
0.602995
-0.0297938
0.452641
0.366847
0.203844
0.0680146
0.0551735
0.0999585
-0.315841
0.330453
-0.224641
0.0499956
0.75714
0.290544
0.275094
-0.206537
0.212948
-0.113812
0.00180888
-0.231447
0.155667
-0.247905
0.149902
-0.072469
-0.0111687
0.202538
-0.1584
0.124407
0.234361
-0.114037
-0.14816
0.0583551
-0.118841
0.154716
-0.0589141
0.164453
0.515452
-0.033568
0.620727
0.339699
0.437278
-0.0891343
0.620368
0.614866
0.677907
0.587398
0.500009
0.143557
0.29906
-0.165649
0.274594
-0.101257
-0.269045
0.236707
-0.272473
0.35196
0.282848
-0.0863941
-0.0113211
0.31004
-0.0706391
0.386387
0.292175
-0.133302
0.0874251
0.495234
0.254357
0.43721
0.559092
-0.132037
0.612339
-0.161892
0.223652
0.269476
0.156669
0.155839
0.114907
-0.118163
0.672243
0.085543
0.0637651
-0.124234
0.0568816
-0.0982713
0.054803
0.0580523
0.0975481
0.118323
-0.144031
0.163699
-0.050759
0.15354
-0.0494241
0.120939
-0.0642257
-0.0805072
0.117363
0.145547
-0.086378
-0.139184
0.0786048
-0.0573598
-0.144726
0.0797657
-0.0261482
-0.0226351
0.131745
0.145668
-0.133068
-0.087193
0.103317
0.0234475
0.146708
-0.111991
0.169401
-0.0607436
-0.152249
0.108877
-0.00436414
0.17403
-0.0617172
-0.0210796
0.0124632
-0.152459
0.0835296
-0.053797
0.414436
-0.444318
0.585983
-0.133472
-0.18142
0.548162
0.684065
-0.480365
0.378648
-0.310714
0.408062
-0.352977
0.336015
-0.236107
0.0145538
-0.324739
0.100026
-0.27481
0.475845
0.281144
-0.415205
0.705596
0.00636983
-0.23945
0.125605
0.234458
-0.232708
-0.0922818
-0.0895874
-0.207726
0.135007
-0.179129
0.167882
0.0759641
-0.0547919
-0.197502
0.0834212
-0.139204
0.0358388
0.115079
0.481747
0.618572
-0.303114
0.740195
0.317077
0.217728
0.39701
0.274555
0.403193
0.0032397
0.583997
0.488194
0.0116544
-0.183572
0.327219
0.0301117
0.109029
-0.2716
0.170418
0.0532163
0.0104792
0.23242
0.11964
-0.284591
0.198289
0.221196
0.239548
0.254557
0.00767177
0.194006
-0.00184517
0.497443
-0.304595
0.55927
0.435684
0.441293
0.308106
-0.047882
0.257285
-0.100559
0.236563
-0.0806741
0.225854
-0.110897
0.356217
0.31652
0.14577
-0.0602803
0.157209
-0.0935026
0.144063
-0.087232
0.0653699
0.14567
-0.0908981
0.12948
-0.07145
0.114613
-0.0170781
0.116103
0.00218469
-0.0231254
0.102725
0.0666374
0.0814193
0.0650331
-0.0273697
-0.148346
0.0619568
-0.0697552
0.0883141
0.135735
-0.0559724
0.119569
-0.12951
0.106827
0.0445013
-0.0298236
-0.11234
0.135741
0.0343233
0.0573562
-0.127189
0.0664076
0.149147
-0.0403121
-0.126597
0.122192
0.0880005
-0.149758
0.103713
-0.124832
-0.130606
0.143025
-0.0471108
0.0953077
0.565516
-0.151174
0.239619
0.404474
0.431942
0.132859
-0.101814
0.0972623
-0.0170494
-0.216698
-0.0194519
-0.202183
0.298183
-0.198226
-0.0404176
0.478971
0.583437
-0.302434
0.729558
-0.0241279
-0.225293
0.231603
-0.0997393
-0.0011671
-0.249562
0.157224
-0.215019
0.125369
-0.0400196
-0.114615
-0.131032
0.207245
-0.170744
0.115945
0.211957
-0.128836
-0.14809
0.00883791
-0.112281
0.00276603
0.699349
-0.272065
0.890427
0.184119
0.555924
0.805106
0.67142
0.587186
0.595484
0.231137
-0.200954
0.216792
-0.107707
0.244852
-0.0743746
-0.233803
0.287118
-0.23227
0.242838
0.248462
-0.128734
-0.0339094
-0.0537641
0.275043
-0.0751335
0.314784
-0.223519
0.478276
-0.239409
0.247155
-0.0453147
0.0637213
0.433975
0.101389
0.458217
0.537369
0.505276
-0.231994
0.540332
0.178021
0.239067
-0.0738007
0.146441
0.136053
0.158435
0.365226
-0.287884
0.604749
0.0968617
0.0505042
-0.134158
0.0468813
-0.0688325
0.0385586
0.0431507
-0.121865
0.10478
-0.104424
0.106582
-0.0937865
0.0706412
0.110525
-0.0078384
-0.0844858
0.15108
-0.0123868
0.120019
-0.0549928
0.0926421
0.165236
-0.103305
-0.111228
0.0414561
-0.0229207
0.0138672
-0.123079
0.0671048
-0.00999033
-0.0203979
0.116562
0.106621
-0.0622389
0.0766572
0.00910416
0.131591
-0.0973091
0.150813
-0.0935007
0.145162
-0.0787926
-0.122974
0.0826271
-0.000813453
-0.0497388
0.137711
-0.0460761
-0.197909
0.073038
-0.0549303
-0.15413
0.106973
-0.058863
-0.501209
0.349944
-0.261675
0.454487
-0.0501079
0.593786
-0.161978
0.587267
-0.359564
0.257667
-0.262391
0.245782
-0.262895
0.237363
-0.256864
0.0959498
0.146064
-0.344367
0.220378
-0.260853
-0.102153
0.581014
0.481176
0.426965
-0.464418
0.440208
-0.215214
0.115505
0.181972
-0.183224
-0.057864
-0.089824
-0.207
0.166282
-0.147195
0.0321515
0.0807856
0.0366057
-0.0914974
0.0319461
-0.160857
0.142148
-0.133344
-0.130789
0.133509
0.427125
0.643943
0.246293
0.145346
0.410434
0.490807
0.314094
0.309782
0.361495
0.280107
0.306957
-0.0789597
0.674289
-0.00258933
0.0158918
0.137193
-0.236947
0.162625
0.235728
0.0514781
0.312018
-0.0690781
0.194781
0.183395
-0.196067
0.162222
0.200001
0.0913944
0.246487
0.0511604
0.190504
0.0642498
0.369985
-0.0721272
0.530577
0.601975
0.217668
0.378375
0.162123
-0.0588707
0.165507
0.247134
-0.100638
0.21358
-0.0774828
0.231427
-0.0729513
0.378531
0.299198
0.305887
0.128011
-0.0311972
0.140869
-0.0904195
0.129914
-0.0830788
0.041657
-0.0947115
0.133253
-0.0747926
0.117935
0.0299829
-0.135075
0.0306226
0.0220708
-0.064456
-0.0918427
0.0839673
0.0591986
-0.113584
0.10118
0.110216
-0.0304406
-0.121552
0.0182075
-0.0801253
0.0917797
-0.114746
-0.129185
0.143048
-0.0620834
-0.100481
0.0904489
0.115041
-0.135481
0.0542101
0.144244
-0.0676379
-0.0957671
0.104837
0.0357897
0.0534615
0.051617
0.0362063
0.146275
-0.0636809
-0.124794
0.123945
-0.137284
0.087518
0.00689288
-0.139152
0.0930446
-0.0661453
-0.162079
0.107108
-0.0551485
0.0873691
0.573617
-0.223749
-0.461894
0.200147
0.543576
0.41152
0.122772
0.417975
-0.160372
-0.323627
0.0611558
-0.0779153
-0.0256033
-0.160963
0.295974
-0.149963
-0.124054
-0.0789269
0.501937
-0.128597
0.609662
0.722544
-0.29571
0.573202
-0.133056
0.256663
-0.141248
0.0733827
0.145137
-0.203233
-0.166271
0.0764845
0.0187217
0.195886
-0.164365
0.167175
-0.085506
0.161547
-0.124539
0.0704446
-0.12235
0.15415
-0.0187723
0.000134058
0.736767
0.633944
-0.388424
0.634602
0.635994
0.69043
-0.274208
0.588177
0.668315
0.399962
-0.207775
0.205249
-0.179368
0.195304
-0.0421334
0.227329
-0.0646525
-0.125389
0.176918
-0.2683
0.199313
-0.0632566
0.258117
0.286168
-0.10268
-0.10601
0.263119
-0.0630279
0.354636
-0.195966
0.442629
0.211341
-0.160116
0.223183
-0.0326197
0.587913
0.306397
0.0355981
0.495214
0.112731
0.489642
-0.196784
0.359027
0.188317
0.041291
0.167474
0.216627
-0.0510887
0.112991
0.153981
0.143707
0.678169
-0.338274
0.644479
0.0274943
-0.125633
0.0943937
0.0151852
0.03945
-0.134788
0.0516589
-0.0931726
0.0232133
0.0196502
-0.0748265
0.104805
-0.0772573
0.10786
-0.0977549
0.119798
0.0367092
-0.00924007
0.0952267
-0.0360579
0.112278
-0.002081
0.0818243
-0.0973942
0.115543
0.0116254
0.0294496
0.0682171
-0.0758346
0.0137463
-0.045071
-0.083434
0.137529
0.0138863
0.0697588
-0.0199912
0.1353
-0.0995499
0.113002
-0.0595717
0.153058
-0.101491
0.121056
-0.0849
0.0602258
-0.0442724
0.118366
-0.0308795
0.125229
-0.158143
0.091958
-0.0510774
-0.170408
0.11521
-0.0830873
-0.50096
0.277116
-0.0439783
-0.300867
0.519915
0.0234946
0.636246
-0.224808
0.642588
0.156569
-0.316985
0.298708
-0.237615
0.173909
-0.251877
0.196252
-0.221912
0.134945
-0.310558
0.160538
0.147536
-0.271635
-0.214672
0.135682
-0.0920008
0.593831
0.593827
0.517566
0.277389
0.509453
-0.206366
0.0652251
-0.141351
-0.0211276
-0.00798798
-0.129767
-0.146266
0.0433673
-0.176932
0.0898688
0.211938
-0.151357
-0.11837
-0.00405818
-0.0235769
-0.137128
-0.130236
0.130307
0.348232
0.0139238
0.619849
0.622815
0.0116734
0.464301
0.171526
0.301349
0.388951
0.479458
0.108612
0.300284
0.367871
-0.138003
0.537856
-0.0124172
0.243146
-0.037839
0.185246
-0.189269
0.124657
0.117803
0.189513
-0.0125525
0.252089
-0.0526922
0.223002
0.195187
0.149498
0.105394
0.344975
0.0097719
0.149139
0.246011
0.0631276
0.156937
0.249957
0.394899
-0.0883822
0.43067
0.608307
0.739942
0.270774
-0.00090988
0.159103
0.116408
-0.0827833
0.19581
0.212264
-0.0582501
0.228685
-0.0849467
0.454068
0.224415
0.37071
0.274067
-0.0931115
0.120571
0.00124319
0.108941
-0.0937978
0.117355
-0.0779482
0.11903
-0.0674195
-0.0909371
0.114144
-0.105766
0.125404
0.0138632
-0.111097
0.033824
0.010085
0.11095
0.00882612
-0.0744037
0.0859541
0.0748645
-0.103806
0.101686
0.0059833
-0.105241
0.00779653
0.144434
-0.0289417
-0.0936773
0.100066
-0.0706728
0.0971102
-0.0288994
-0.08694
0.100667
0.0754542
-0.0934601
0.107063
0.122255
-0.0526851
0.115264
0.0134121
0.0934444
0.0195128
-0.134533
0.0495825
0.123596
-0.0634145
-0.138137
0.093829
-0.136225
0.105312
-0.00505299
-0.0462166
-0.156785
0.105664
-0.0416242
0.0404627
0.537461
-0.260399
0.350237
-0.394265
0.0493071
-0.36294
0.386349
0.27323
0.312553
-0.237743
-0.0183346
-0.0637683
-0.0556856
-0.235557
0.0135994
-0.100653
-0.163072
0.29826
-0.137772
-0.135984
0.455713
0.0639176
0.52979
-0.0109653
0.528454
-0.425789
0.703087
0.0835769
0.247514
-0.182473
0.10607
0.140364
-0.161511
0.171375
-0.180153
0.0106
0.0563905
0.159332
-0.111363
0.14006
-0.0496981
0.0100348
-0.135837
0.13191
-0.147125
0.122365
-0.00683312
0.648389
0.636578
0.613504
0.659953
0.765507
0.650845
0.756691
0.646369
-0.196137
0.183767
-0.199785
0.161989
-0.0108408
-0.110065
0.234759
0.169078
-0.0512384
0.156563
-0.191928
0.139294
0.0181714
0.20489
-0.0822596
0.277521
-0.128581
0.27815
0.241898
-0.136435
-0.280709
0.290573
-0.19343
0.34266
-0.136564
0.382699
-0.170894
0.234076
-0.0139104
-0.188681
0.61955
-0.0990893
0.707711
0.364184
0.376098
-0.144523
0.415429
-0.196487
0.195617
0.107312
0.0518053
0.223741
0.129509
-0.000639473
0.170466
0.138824
0.469887
0.595375
0.63852
-0.088662
0.0898645
0.0202458
0.0235159
0.0410404
-0.128877
0.0614147
0.00836926
0.0509886
0.110968
0.0896133
-0.0558009
-0.0915684
0.101636
-0.109334
0.118137
-0.0429627
-0.0400726
0.114914
0.0405766
0.0809734
0.0206806
0.0857591
-0.0780181
-0.104288
0.0752713
0.00634466
0.0514787
-0.118116
0.0891994
0.121815
-0.0211646
-0.0591327
0.0123619
0.103741
0.00328426
0.0510101
0.116397
-0.00117355
-0.076418
0.089799
0.0169953
-0.081999
0.101469
0.11838
-0.0688386
0.0529451
-0.0424314
0.143573
-0.0383009
0.138484
-0.14385
0.0975934
-0.0382285
0.117164
-0.158839
0.116348
-0.0759203
-0.428001
0.167533
-0.37875
0.50489
-0.118596
0.470617
-0.197448
0.519601
-0.207095
-0.263895
0.0260925
-0.282277
-0.169481
0.105667
-0.175774
0.120043
0.192418
-0.178852
0.197566
0.124391
-0.287501
-0.284599
0.146754
-0.214463
0.078482
-0.211609
0.667223
-0.616993
0.680806
0.51876
0.316778
0.0859743
-0.535526
0.619013
-0.16538
-0.0171644
-0.108391
0.00925961
-0.200519
0.0247646
-0.154572
-0.134694
0.0294288
-0.153935
0.100691
0.125989
-0.141837
-0.123928
-0.0118767
-0.0161797
-0.0339969
-0.130857
0.0674444
0.569041
-0.0990519
0.712369
0.568331
0.0914669
0.298332
0.467033
0.643128
0.0075858
0.471195
0.285384
0.460317
0.185958
-0.0159735
0.196821
-0.0347889
-0.151478
0.140673
0.0855838
0.0833162
0.145624
0.18031
-0.0237055
0.0500261
0.243813
-0.104472
-0.178386
0.196611
0.122679
-0.00311333
0.11529
0.0998349
0.0977022
0.0972225
0.356986
-0.014227
0.220533
0.238298
0.166452
0.22691
0.520728
0.180502
0.527488
0.556844
0.160609
-0.0350096
0.212431
0.157195
-0.0276614
0.156582
0.173821
-0.0033272
-0.0461646
0.185012
-0.236019
0.706179
0.359592
0.327041
0.311767
0.130855
-0.0410265
0.109912
-0.0897019
0.102054
-0.0785753
0.108315
-0.0673113
0.108612
-0.0472318
-0.0812308
0.0895944
0.110074
-0.0590962
0.0297311
-0.00196775
0.0542648
-0.00771928
0.0780411
0.0719225
0.0972448
-0.0567115
-0.0913071
0.111929
-0.0185897
-0.118226
0.0401134
0.107769
-0.0325748
-0.112009
-0.0606594
0.00368496
0.105747
-0.0165553
-0.108736
0.087539
0.0716756
0.0893492
-0.0784377
0.0815856
0.105192
-0.0543241
0.1078
-0.109011
0.14077
-0.0510066
0.100747
-0.0837872
0.0363479
0.144831
-0.0433988
-0.12411
0.0552333
0.123594
-0.070682
-0.134592
0.092122
-0.130228
0.0918911
0.00757442
-0.0370347
-0.134813
0.0965422
-0.0176949
-0.0425284
0.047644
0.463176
-0.2957
-0.431336
0.0525136
-0.0307152
0.351981
0.322078
0.256013
-0.405292
-0.245851
-0.0364821
-0.246789
0.0772622
-0.140228
0.0166143
-0.126776
0.0186754
-0.160283
-0.209028
-0.144997
0.29172
0.385764
0.281353
0.38962
0.291104
0.3626
0.156075
0.679308
-0.424317
0.510232
0.194629
0.165989
-0.183811
0.157892
-0.266314
0.152206
-0.144673
0.191898
-0.172485
-0.00341394
-0.165672
0.0348756
-0.113016
0.149117
-0.0088278
-0.0365305
-0.00519718
-0.127543
0.115645
-0.135584
0.119409
-0.145622
0.107187
0.635684
0.469872
0.703302
0.562542
0.583622
-0.151633
0.61854
0.491372
0.467824
0.571635
-0.198588
0.182657
-0.164429
0.129673
-0.0578806
-0.129301
0.214929
0.176462
-0.0931169
0.199141
-0.0534715
0.175482
0.191689
-0.141619
0.0872614
0.10586
0.0908027
0.228586
0.225535
-0.143446
0.258792
-0.126765
0.226649
0.216087
-0.118327
0.249302
-0.152022
-0.263001
0.24884
-0.157742
0.378357
-0.1103
0.348671
0.207315
-0.0408113
-0.251418
0.478455
0.599434
-0.0785353
0.451072
0.0766377