/*--------------------------------*- C++ -*----------------------------------*\
| =========                 |                                                 |
| \\      /  F ield         | OpenFOAM: The Open Source CFD Toolbox           |
|  \\    /   O peration     | Version:  v2012                                 |
|   \\  /    A nd           | Website:  www.openfoam.com                      |
|    \\/     M anipulation  |                                                 |
\*---------------------------------------------------------------------------*/
FoamFile
{
    version     2.0;
    format      ascii;
    class       pointVectorField;
    location    "1.3";
    object      pointDisplacement;
}
// * * * * * * * * * * * * * * * * * * * * * * * * * * * * * * * * * * * * * //

dimensions      [0 1 0 0 0 0 0];


internalField   nonuniform List<vector> 
16294
(
(0 0 0)
(0 0 0)
(0 0 0)
(0 0 0)
(0 0 0)
(0 0 0)
(0 0 0)
(0 0 0)
(0 0 0)
(0 0 0)
(0 0 0)
(0 0 0)
(0 0 0)
(0 0 0)
(0 0 0)
(0 0 0)
(0 0 0)
(0 0 0)
(0 0 0)
(0 0 0)
(0 0 0)
(0 0 0)
(0 0 0)
(0 0 0)
(0 0 0)
(0 0 0)
(0 0 0)
(0 0 0)
(0 0 0)
(0 0 0)
(0 0 0)
(0 0 0)
(0 0 0)
(0 0 0)
(0 0 0)
(0 0 0)
(0 0 0)
(0 0 0)
(0 0 0)
(0 0 0)
(0 0 0)
(0 0 0)
(0 0 0)
(0 0 0)
(0 0 0)
(0 0 0)
(0 0 0)
(0 0 0)
(0 0 0)
(0 0 0)
(0 0 0)
(0 0 0)
(0 0 0)
(0 0 0)
(0 0 0)
(0 0 0)
(0 0 0)
(0 0 0)
(0 0 0)
(0 0 0)
(0 0 0)
(0 0 0)
(0 0 0)
(0 0 0)
(0 0 0)
(0 0 0)
(0 0 0)
(0 0 0)
(0 0 0)
(0 0 0)
(0 0 0)
(0 0 0)
(0 0 0)
(0 0 0)
(0 0 0)
(0 0 0)
(0 0 0)
(0 0 0)
(0 0 0)
(0 0 0)
(0 0 0)
(0 0 0)
(0 0 0)
(0 0 0)
(0 0 0)
(0 0 0)
(0 0 0)
(0 0 0)
(0 0 0)
(0 0 0)
(0 0 0)
(0 0 0)
(0 0 0)
(0 0 0)
(0 0 0)
(0 0 0)
(0 0 0)
(0 0 0)
(0 0 0)
(0 0 0)
(0 0 0)
(0 0 0)
(0 0 0)
(0 0 0)
(0 0 0)
(0 0 0)
(0 0 0)
(-0.00908326 -0.0609831 0)
(-0.00903944 -0.0624301 0)
(-0.00899446 -0.0638475 0)
(-0.00894851 -0.0652349 0)
(-0.00890176 -0.0665914 0)
(-0.00885434 -0.0679167 0)
(-0.0088064 -0.0692104 0)
(-0.00875809 -0.0704722 0)
(-0.00870952 -0.0717018 0)
(-0.00866084 -0.0728991 0)
(-0.00861214 -0.074064 0)
(-0.00856353 -0.0751966 0)
(-0.00851513 -0.076297 0)
(-0.008467 -0.0773652 0)
(-0.00841927 -0.0784015 0)
(-0.00837197 -0.0794062 0)
(-0.00832521 -0.0803796 0)
(-0.00827904 -0.0813221 0)
(-0.00823352 -0.0822341 0)
(-0.00818871 -0.083116 0)
(-0.00814465 -0.0839684 0)
(-0.0081014 -0.0847919 0)
(-0.00805899 -0.0855868 0)
(-0.00801746 -0.086354 0)
(-0.0079768 -0.0870938 0)
(-0.00793708 -0.087807 0)
(-0.00789831 -0.0884943 0)
(-0.0078605 -0.0891562 0)
(-0.00782364 -0.0897934 0)
(-0.00778777 -0.0904066 0)
(-0.00775288 -0.0909964 0)
(-0.00771898 -0.0915637 0)
(-0.00768606 -0.0921088 0)
(-0.00765412 -0.0926327 0)
(-0.00762316 -0.0931359 0)
(-0.00759315 -0.093619 0)
(-0.00756411 -0.0940828 0)
(-0.00753601 -0.0945279 0)
(-0.00750884 -0.0949548 0)
(-0.00748259 -0.0953644 0)
(-0.00745724 -0.095757 0)
(-0.00743277 -0.0961333 0)
(-0.00740916 -0.0964941 0)
(-0.00738641 -0.0968397 0)
(-0.00736448 -0.0971708 0)
(-0.00734336 -0.0974879 0)
(-0.00732302 -0.0977914 0)
(-0.00730344 -0.098082 0)
(-0.00728461 -0.0983602 0)
(-0.00726651 -0.0986264 0)
(-0.00724911 -0.0988811 0)
(-0.00723238 -0.0991247 0)
(-0.00721633 -0.0993578 0)
(-0.00720091 -0.0995807 0)
(-0.0071861 -0.0997938 0)
(-0.0071719 -0.0999976 0)
(-0.00715827 -0.100192 0)
(-0.00714521 -0.100378 0)
(-0.00713268 -0.100556 0)
(-0.00712067 -0.100727 0)
(-0.00710916 -0.100889 0)
(-0.00709814 -0.101044 0)
(-0.00708758 -0.101192 0)
(-0.00707747 -0.101334 0)
(-0.00706779 -0.101469 0)
(-0.00700013 -0.101474 0)
(-0.00693167 -0.101479 0)
(-0.00686293 -0.101483 0)
(-0.00679446 -0.101488 0)
(-0.00672681 -0.101492 0)
(-0.00669892 -0.10136 0)
(-0.00666973 -0.101221 0)
(-0.0066392 -0.101075 0)
(-0.00660728 -0.100923 0)
(-0.0065739 -0.100764 0)
(-0.00653899 -0.100597 0)
(-0.0065025 -0.100422 0)
(-0.00646437 -0.100239 0)
(-0.00642451 -0.100048 0)
(-0.00638287 -0.0998484 0)
(-0.00633937 -0.0996393 0)
(-0.00629393 -0.0994205 0)
(-0.00624648 -0.0991917 0)
(-0.00619694 -0.0989526 0)
(-0.00614524 -0.0987026 0)
(-0.00609129 -0.0984413 0)
(-0.00603499 -0.0981682 0)
(-0.00597628 -0.097883 0)
(-0.00591505 -0.0975849 0)
(-0.00585122 -0.0972736 0)
(-0.00578469 -0.0969485 0)
(-0.00571538 -0.0966092 0)
(-0.00564318 -0.096255 0)
(-0.00556802 -0.0958854 0)
(-0.00548977 -0.0954998 0)
(-0.00540835 -0.0950976 0)
(-0.00532366 -0.0946783 0)
(-0.0052356 -0.0942411 0)
(-0.00514406 -0.0937854 0)
(-0.00504896 -0.0933108 0)
(-0.0049502 -0.0928165 0)
(-0.00484768 -0.0923017 0)
(-0.00474129 -0.0917661 0)
(-0.00463095 -0.0912086 0)
(-0.00451657 -0.0906289 0)
(-0.00439805 -0.0900262 0)
(-0.00427533 -0.0893999 0)
(-0.00414831 -0.0887492 0)
(-0.00401689 -0.0880735 0)
(-0.00388103 -0.0873722 0)
(-0.00374065 -0.0866447 0)
(-0.0035957 -0.0858902 0)
(-0.00344611 -0.0851083 0)
(-0.00329184 -0.0842983 0)
(-0.00313285 -0.0834596 0)
(-0.00296912 -0.0825919 0)
(-0.00280061 -0.0816944 0)
(-0.00262735 -0.0807669 0)
(-0.0024493 -0.0798087 0)
(-0.0022665 -0.0788197 0)
(-0.00207898 -0.0777994 0)
(-0.00188677 -0.0767475 0)
(-0.00168992 -0.0756638 0)
(-0.0014885 -0.0745482 0)
(-0.00128264 -0.0734006 0)
(-0.00107239 -0.0722209 0)
(-0.000857899 -0.0710092 0)
(-0.000639295 -0.0697654 0)
(-0.000416754 -0.0684902 0)
(-0.000190446 -0.0671835 0)
(3.94253e-05 -0.0658457 0)
(0.000272669 -0.0644774 0)
(0.000509024 -0.0630791 0)
(0.000748236 -0.0616513 0)
(0.000576762 -0.0307671 0)
(0.00085373 -0.0303979 0)
(0.000876379 -0.0252891 0)
(0.00131695 -0.0353499 0)
(0.00132651 -0.032382 0)
(0.00108045 -0.0353447 0)
(0.000259241 -0.0437939 0)
(0.000613511 -0.0414776 0)
(0.000447271 -0.0406535 0)
(0.000557535 -0.0120458 0)
(0.000402229 -0.0142717 0)
(0.000795611 -0.0175619 0)
(0.000996443 -0.0386615 0)
(0.00113478 -0.0400524 0)
(0.00129259 -0.0377 0)
(-0.00048072 -0.0294643 0)
(-0.000817081 -0.0345683 0)
(-0.000675653 -0.0368215 0)
(0.000545259 -0.0211451 0)
(0.000214327 -0.0208769 0)
(0.000328715 -0.0080337 0)
(-0.000361293 -0.0594879 0)
(-0.000581868 -0.0617041 0)
(-0.000340448 -0.0603433 0)
(0.0013066 -0.0534857 0)
(0.0010125 -0.0557234 0)
(0.00127584 -0.0544506 0)
(-0.000704332 -0.0406939 0)
(-0.000513221 -0.0409103 0)
(-0.000489101 -0.0373796 0)
(-0.000137298 -0.0462108 0)
(-0.000379901 -0.045632 0)
(-0.000486647 -0.0486163 0)
(-0.00116988 -0.0474769 0)
(-0.00110363 -0.0493584 0)
(-0.000857103 -0.0448047 0)
(-0.000321133 -0.0214317 0)
(-0.000136247 -0.0241342 0)
(-0.000122882 -0.0170571 0)
(0.000149231 -0.0124281 0)
(0.000177519 -0.00673827 0)
(-0.000864537 -0.0688425 0)
(-0.000811884 -0.0682175 0)
(-0.00103642 -0.0693587 0)
(0.000734305 -0.0570895 0)
(0.000717878 -0.0563307 0)
(0.000449119 -0.0585589 0)
(-0.001425 -0.0569696 0)
(-0.00161751 -0.0598506 0)
(-0.00135087 -0.0576093 0)
(-0.00212255 -0.0662071 0)
(-0.00191964 -0.0640784 0)
(-0.00218049 -0.0657482 0)
(-0.00152256 -0.048212 0)
(-0.00138824 -0.0440961 0)
(-0.0015972 -0.0469742 0)
(-0.00112609 -0.0396517 0)
(-0.000963664 -0.0396588 0)
(2.0717e-05 -0.0168851 0)
(7.21624e-05 -0.00576508 0)
(-0.000725833 -0.0674279 0)
(0.000250907 -0.0620674 0)
(3.78408e-05 -0.0630944 0)
(4.09908e-05 -0.0635814 0)
(0.00091423 -0.0596814 0)
(0.000959197 -0.0596918 0)
(-0.00282477 -0.0670428 0)
(-0.00267105 -0.066343 0)
(-0.00265639 -0.0650156 0)
(-0.00126498 -0.0464977 0)
(-0.000978199 -0.0429186 0)
(-0.0012109 -0.043658 0)
(-0.00125187 -0.0649258 0)
(-0.00135602 -0.0666444 0)
(-0.00108481 -0.0644994 0)
(-0.00461283 -0.0306449 0)
(-0.0039135 -0.0279705 0)
(-0.00439822 -0.0340378 0)
(-0.00458298 -0.0330387 0)
(-0.0049226 -0.0371635 0)
(-0.00712583 -0.0484031 0)
(-0.00181406 -0.0448121 0)
(-0.00188404 -0.0477021 0)
(-0.00159794 -0.043359 0)
(-0.0010375 -0.0345466 0)
(-0.000851333 -0.0273824 0)
(-0.00117319 -0.0333419 0)
(-1.66889e-05 -0.00906983 0)
(-0.000179174 -0.013202 0)
(-0.000366481 -0.017107 0)
(-0.00159428 -0.0746986 0)
(-0.00163359 -0.0747375 0)
(-0.00182169 -0.0759033 0)
(-0.00286098 -0.0779552 0)
(-0.00270648 -0.0766342 0)
(-0.00293086 -0.0779248 0)
(-0.0014077 -0.0728494 0)
(-0.00119375 -0.0716093 0)
(-0.00128267 -0.0718255 0)
(0.00114944 -0.0579978 0)
(-0.00275642 -0.0604835 0)
(-0.00255989 -0.0578606 0)
(-0.00272231 -0.0588496 0)
(-0.0036866 -0.080272 0)
(-0.00384781 -0.0813679 0)
(-0.00371586 -0.0809674 0)
(-0.00302125 -0.0202378 0)
(-0.00206565 -0.014782 0)
(-0.00428354 -0.0355673 0)
(-0.00373224 -0.0299772 0)
(-0.00591884 -0.0455055 0)
(-0.00616454 -0.0461103 0)
(-0.00617811 -0.0487231 0)
(-0.00133607 -0.0408425 0)
(-0.00153249 -0.0445711 0)
(-0.000953862 -0.0261674 0)
(-0.000701136 -0.0215688 0)
(-0.00059834 -0.016874 0)
(-7.96083e-05 -0.00617644 0)
(-0.000495797 -0.0160003 0)
(-0.000317343 -0.0118846 0)
(-0.000283581 -0.00887583 0)
(-0.00266919 -0.0790313 0)
(-0.00284951 -0.0802645 0)
(-0.00261126 -0.0789742 0)
(-0.00125754 -0.0722467 0)
(-0.00243573 -0.0755719 0)
(-0.00254912 -0.0767625 0)
(-0.00226852 -0.0748319 0)
(-0.00102622 -0.0710606 0)
(-0.000837579 -0.0701297 0)
(-0.000767672 -0.0694562 0)
(0.000799932 -0.0611621 0)
(0.000911939 -0.0603854 0)
(-0.00405992 -0.0715927 0)
(-0.00418445 -0.0730948 0)
(-0.00406988 -0.0723373 0)
(-0.00465684 -0.0890642 0)
(-0.00454772 -0.0882332 0)
(-0.00467479 -0.0889467 0)
(-0.00197885 -0.0533696 0)
(-0.00215502 -0.0562009 0)
(-0.00193637 -0.0543922 0)
(-0.0040794 -0.0859201 0)
(-0.0041337 -0.0865552 0)
(-0.0039823 -0.0856784 0)
(-0.00762473 -0.0742685 0)
(-0.0075162 -0.0736397 0)
(-0.00764259 -0.0723888 0)
(-0.0082614 -0.0569963 0)
(-0.00384679 -0.0337127 0)
(-0.00579044 -0.0622224 0)
(-0.00578603 -0.064171 0)
(-0.00560103 -0.0617033 0)
(-0.00587635 -0.0537051 0)
(-0.00610562 -0.0556033 0)
(-0.00601862 -0.0566745 0)
(-0.00131638 -0.0334008 0)
(-0.000165883 -0.00813828 0)
(-0.000566956 -0.0203865 0)
(-0.00271544 -0.0810625 0)
(-0.00278643 -0.0813566 0)
(-0.00288064 -0.0819415 0)
(-0.00189051 -0.0765313 0)
(-0.0017398 -0.0757118 0)
(-0.00176928 -0.0757706 0)
(-0.00400327 -0.0869893 0)
(-0.00413318 -0.0875261 0)
(-0.00414525 -0.0878045 0)
(-0.000502577 -0.067966 0)
(-0.00043898 -0.0678209 0)
(-0.000232658 -0.0664345 0)
(-6.03093e-05 -0.0661871 0)
(-0.000246355 -0.0672591 0)
(-0.000136766 -0.066708 0)
(0.000452127 -0.0631244 0)
(0.000564715 -0.06257 0)
(0.00069133 -0.0617087 0)
(0.00100243 -0.0596655 0)
(-0.00320464 -0.0659325 0)
(-0.0032863 -0.0657055 0)
(-0.00336778 -0.067182 0)
(-0.00526173 -0.0836384 0)
(-0.00533478 -0.0847737 0)
(-0.00521143 -0.0837384 0)
(-0.00218593 -0.0470503 0)
(-0.00241674 -0.0496646 0)
(-0.00241257 -0.0508861 0)
(-0.00583324 -0.0959797 0)
(-0.00573216 -0.0954087 0)
(-0.00578021 -0.0955255 0)
(-0.00744731 -0.085754 0)
(-0.00751722 -0.0860212 0)
(-0.00744732 -0.0868037 0)
(-0.0085354 -0.0622169 0)
(-0.00852031 -0.0639593 0)
(-0.00844547 -0.0631204 0)
(-0.0029708 -0.0226357 0)
(-0.00201555 -0.0161832 0)
(-0.00108595 -0.00724131 0)
(-0.00525473 -0.051697 0)
(-0.00489766 -0.0477007 0)
(-0.00520082 -0.0491178 0)
(-0.00576922 -0.0587335 0)
(-0.00589028 -0.061278 0)
(-0.0057092 -0.0598372 0)
(-0.00667072 -0.0698453 0)
(-0.00649512 -0.0684351 0)
(-0.00659226 -0.0677308 0)
(-0.00150346 -0.0316677 0)
(-0.00115595 -0.0257908 0)
(-0.00115923 -0.0244582 0)
(-0.00177248 -0.0377614 0)
(-0.0018628 -0.0378126 0)
(-0.00206861 -0.04236 0)
(-0.000837598 -0.0214301 0)
(-0.00115323 -0.0278594 0)
(-0.000856435 -0.0202754 0)
(-0.000300304 -0.00817244 0)
(-0.00264001 -0.0804936 0)
(-0.00263238 -0.0805523 0)
(-0.00248026 -0.0796741 0)
(-0.00318966 -0.0834283 0)
(-0.00310929 -0.0830881 0)
(-0.00302864 -0.0825743 0)
(-0.00204031 -0.0771369 0)
(-0.00197021 -0.0765931 0)
(-0.00195081 -0.0767577 0)
(-0.0020655 -0.0774887 0)
(-0.00427144 -0.0874342 0)
(-0.00438979 -0.0879662 0)
(-0.00441496 -0.0883711 0)
(-0.000782906 -0.0704248 0)
(-0.000573007 -0.0692253 0)
(-0.000671251 -0.0697189 0)
(-0.000354822 -0.0679699 0)
(-0.000463027 -0.068516 0)
(-0.000233429 -0.0667136 0)
(-5.22614e-05 -0.0657854 0)
(-1.2663e-05 -0.0653109 0)
(-0.00327583 -0.0583165 0)
(-0.00345368 -0.0606709 0)
(-0.00333722 -0.0597585 0)
(-0.00394408 -0.067274 0)
(-0.00405798 -0.0683765 0)
(-0.00405711 -0.0690934 0)
(-0.00569518 -0.0917277 0)
(-0.0056248 -0.0915241 0)
(-0.00561596 -0.0911496 0)
(-0.00290324 -0.0530606 0)
(-0.00277481 -0.0506634 0)
(-0.00291344 -0.0522269 0)
(-0.005822 -0.0944592 0)
(-0.00573645 -0.0939073 0)
(-0.0057838 -0.0940175 0)
(-0.00489147 -0.0901059 0)
(-0.00501485 -0.0907933 0)
(-0.00499604 -0.0909299 0)
(-0.00884191 -0.0662462 0)
(-0.00886385 -0.0662821 0)
(-0.00880842 -0.0673373 0)
(-0.00774146 -0.0734384 0)
(-0.00102923 -0.00865813 0)
(-0.00105165 -0.00792228 0)
(-0.00357638 -0.036687 0)
(-0.00419273 -0.0438795 0)
(-0.00376773 -0.0404003 0)
(-0.00547552 -0.0524653 0)
(-0.00558428 -0.0553912 0)
(-0.00788206 -0.0724345 0)
(-0.00776839 -0.0719862 0)
(-0.00146093 -0.0327172 0)
(-0.00197423 -0.0383524 0)
(-0.00198759 -0.0374041 0)
(-0.00215844 -0.0407337 0)
(-0.000587108 -0.0148443 0)
(-0.000768588 -0.0169075 0)
(-0.000578872 -0.0136205 0)
(-0.00296522 -0.0817414 0)
(-0.0030975 -0.0825788 0)
(-0.00291382 -0.0815988 0)
(-0.00309179 -0.0828078 0)
(-0.00140754 -0.0739336 0)
(-0.00121114 -0.0728378 0)
(-0.00128861 -0.0731825 0)
(-0.0014751 -0.0738968 0)
(-0.00552841 -0.0952246 0)
(-0.00558504 -0.0954182 0)
(-0.00563141 -0.0957349 0)
(-0.00449741 -0.0902832 0)
(-0.0043983 -0.0897322 0)
(-0.00446861 -0.0900464 0)
(-0.000842426 -0.0707049 0)
(0.000418745 -0.0631687 0)
(0.000269102 -0.0641258 0)
(-0.00361998 -0.0624508 0)
(-0.0037804 -0.0640476 0)
(-0.00372718 -0.0642318 0)
(-0.00591574 -0.0908197 0)
(-0.00597219 -0.0909502 0)
(-0.00599783 -0.0915397 0)
(-0.00593024 -0.0923168 0)
(-0.0060163 -0.0929954 0)
(-0.00597187 -0.0929522 0)
(-0.00278164 -0.0536544 0)
(-0.00281201 -0.0528475 0)
(-0.00293735 -0.0553943 0)
(-0.0062004 -0.0975154 0)
(-0.0062589 -0.0979455 0)
(-0.00619724 -0.0976547 0)
(-0.00559044 -0.0947808 0)
(-0.00554178 -0.0943715 0)
(-0.00563623 -0.0948789 0)
(-0.00905145 -0.0601307 0)
(-0.00812636 -0.0737039 0)
(-0.00816014 -0.072362 0)
(-0.0082291 -0.0724477 0)
(-0.00724525 -0.0846966 0)
(-0.0072838 -0.0855163 0)
(-0.00720491 -0.0856266 0)
(-0.00665415 -0.0756654 0)
(-0.00676404 -0.0763151 0)
(-0.00667851 -0.0772084 0)
(-0.00188866 -0.0165693 0)
(-0.0028991 -0.0249395 0)
(-0.0033764 -0.0320943 0)
(-0.0022779 -0.0214892 0)
(-0.00468012 -0.0491787 0)
(-0.00457 -0.0460402 0)
(-0.00529997 -0.0656077 0)
(-0.00518096 -0.0632924 0)
(-0.00536823 -0.0650703 0)
(-0.00624646 -0.0814477 0)
(-0.00613696 -0.0802686 0)
(-0.0061892 -0.0802665 0)
(-0.00235481 -0.0439948 0)
(-0.00220289 -0.0421994 0)
(-0.000305158 -0.00748801 0)
(-0.0025309 -0.0800643 0)
(-0.00332668 -0.0841977 0)
(-0.00334661 -0.0843897 0)
(-0.00323561 -0.0837612 0)
(-0.00143612 -0.0739206 0)
(-0.00147372 -0.0742367 0)
(-0.00229788 -0.0786724 0)
(-0.00223861 -0.0784336 0)
(-0.00212962 -0.077747 0)
(-0.00511521 -0.0933742 0)
(-0.00509773 -0.0932175 0)
(-0.00518503 -0.0936953 0)
(-0.00438922 -0.0897528 0)
(-0.00427041 -0.0891445 0)
(-0.00432536 -0.0893796 0)
(-0.00464379 -0.0909776 0)
(-0.00461213 -0.0908704 0)
(-0.00456234 -0.090551 0)
(-0.00495448 -0.078585 0)
(-0.00489983 -0.0774504 0)
(-0.00501884 -0.0786937 0)
(-0.00272894 -0.0507075 0)
(-0.00258458 -0.0479013 0)
(-0.00527125 -0.0811483 0)
(-0.00535559 -0.0816458 0)
(-0.00538488 -0.0824594 0)
(-0.0065883 -0.094189 0)
(-0.00654005 -0.0940447 0)
(-0.00654943 -0.0936258 0)
(-0.00539546 -0.0789917 0)
(-0.00545898 -0.0803057 0)
(-0.00534088 -0.0789973 0)
(-0.0060543 -0.0957677 0)
(-0.00610725 -0.0961569 0)
(-0.00607178 -0.0961096 0)
(-0.00237421 -0.0454065 0)
(-0.00619445 -0.0977829 0)
(-0.00623822 -0.0979629 0)
(-0.00613995 -0.0975407 0)
(-0.00619672 -0.097945 0)
(-0.00613635 -0.0976347 0)
(-0.00584676 -0.0965971 0)
(-0.00579486 -0.0964049 0)
(-0.00576398 -0.096128 0)
(-0.00889148 -0.0643357 0)
(-0.00896174 -0.0628211 0)
(-0.00892615 -0.0642717 0)
(-0.00879342 -0.0682888 0)
(-0.0088258 -0.0678385 0)
(-0.00877832 -0.0690862 0)
(-0.00846421 -0.0737068 0)
(-0.00853676 -0.0724978 0)
(-0.00850739 -0.0737732 0)
(-0.00806636 -0.0799119 0)
(-0.00812105 -0.0787474 0)
(-0.00815147 -0.0790233 0)
(-0.00770618 -0.0860188 0)
(-0.00770836 -0.0852187 0)
(-0.00775701 -0.0852128 0)
(-0.00759491 -0.086659 0)
(-0.00764817 -0.0859846 0)
(-0.00764105 -0.0867158 0)
(-0.00668641 -0.0862733 0)
(-0.00673414 -0.087427 0)
(-0.00665032 -0.086987 0)
(-0.00110248 -0.0103057 0)
(-0.00163336 -0.0165221 0)
(-0.00323709 -0.034884 0)
(-0.0036407 -0.0406453 0)
(-0.00302406 -0.0344331 0)
(-0.00336008 -0.0413719 0)
(-0.00365052 -0.0441679 0)
(-0.00364116 -0.0454091 0)
(-0.00545055 -0.0644644 0)
(-0.00564729 -0.0670751 0)
(-0.00552755 -0.0666401 0)
(-0.00544914 -0.0764092 0)
(-0.00544693 -0.0755061 0)
(-0.00556305 -0.0772173 0)
(-0.00148311 -0.028954 0)
(-0.00117416 -0.0236821 0)
(-0.00116458 -0.0225442 0)
(-0.00144401 -0.0273378 0)
(-0.00154876 -0.0285239 0)
(-0.00172855 -0.0324299 0)
(-0.000348148 -0.0079154 0)
(-0.000649824 -0.0135349 0)
(-0.000422074 -0.00911858 0)
(-0.00234341 -0.0788125 0)
(-0.00368384 -0.0860291 0)
(-0.00364409 -0.0857128 0)
(-0.00379246 -0.08654 0)
(-0.00219934 -0.0780436 0)
(-0.00487427 -0.0921095 0)
(-0.00481851 -0.0918913 0)
(-0.00478982 -0.091653 0)
(-0.00505688 -0.0931054 0)
(-0.00511158 -0.0934117 0)
(-0.0042406 -0.088917 0)
(-0.00431333 -0.0892523 0)
(-0.00471454 -0.0913102 0)
(-0.00470886 -0.0913522 0)
(-0.00305368 -0.0505076 0)
(-0.00305657 -0.0497421 0)
(-0.00323234 -0.0527634 0)
(-0.00408022 -0.0620511 0)
(-0.00393142 -0.0596515 0)
(-0.00410028 -0.0616044 0)
(-0.00622023 -0.0919756 0)
(-0.00627079 -0.0926516 0)
(-0.00618889 -0.0920719 0)
(-0.006523 -0.0970719 0)
(-0.00652952 -0.0968523 0)
(-0.00656553 -0.0972481 0)
(-0.00585519 -0.0828436 0)
(-0.00585844 -0.0837198 0)
(-0.00577391 -0.0825451 0)
(-0.0065681 -0.0981627 0)
(-0.00660988 -0.0983835 0)
(-0.00659295 -0.0984757 0)
(-0.00241675 -0.0423361 0)
(-0.00224203 -0.0401381 0)
(-0.00223725 -0.0392975 0)
(-0.0064643 -0.0999467 0)
(-0.00649759 -0.100143 0)
(-0.00645506 -0.0999703 0)
(-0.00599238 -0.0973601 0)
(-0.00592249 -0.0969986 0)
(-0.00595831 -0.0970777 0)
(-0.00575229 -0.0965689 0)
(-0.00570627 -0.0963665 0)
(-0.00568301 -0.096208 0)
(-0.00583413 -0.0969452 0)
(-0.00588732 -0.0971959 0)
(-0.00587048 -0.0971748 0)
(-0.0089189 -0.0650681 0)
(-0.00887055 -0.0665857 0)
(-0.00895932 -0.0636987 0)
(-0.00872479 -0.0704103 0)
(-0.00867322 -0.0713277 0)
(-0.00870157 -0.0704861 0)
(-0.00876474 -0.0685025 0)
(-0.00875405 -0.0680992 0)
(-0.00901659 -0.0615457 0)
(-0.00905113 -0.0609348 0)
(-0.00865817 -0.0710518 0)
(-0.00861526 -0.0722217 0)
(-0.00860486 -0.0716713 0)
(-0.00857838 -0.0739824 0)
(-0.00855037 -0.0740823 0)
(-0.00859839 -0.0731219 0)
(-0.0083018 -0.0793377 0)
(-0.00824528 -0.0803902 0)
(-0.00826907 -0.0796095 0)
(-0.00791727 -0.0843622 0)
(-0.00797822 -0.0836584 0)
(-0.00795642 -0.0843206 0)
(-0.00783287 -0.0860809 0)
(-0.00777349 -0.0864626 0)
(-0.00782253 -0.0856762 0)
(-0.00707313 -0.0902984 0)
(-0.0070686 -0.0912046 0)
(-0.00702398 -0.0908467 0)
(-0.005947 -0.0863722 0)
(-0.00602942 -0.0866331 0)
(-0.00603286 -0.0873032 0)
(-0.00075218 -0.00760551 0)
(-0.00267817 -0.0274347 0)
(-0.00194801 -0.0209747 0)
(-0.00203995 -0.0243509 0)
(-0.00259439 -0.0306251 0)
(-0.00251034 -0.030867 0)
(-0.00219945 -0.0250215 0)
(-0.00263021 -0.0286875 0)
(-0.00389972 -0.0494247 0)
(-0.00356986 -0.0457217 0)
(-0.00413902 -0.0556311 0)
(-0.00414124 -0.0546806 0)
(-0.00434394 -0.0578532 0)
(-0.00518565 -0.070812 0)
(-0.0051757 -0.0715189 0)
(-0.00505883 -0.0699503 0)
(-0.000931807 -0.0193835 0)
(-0.000885989 -0.0177741 0)
(-0.00163968 -0.0293259 0)
(-0.00181442 -0.0329408 0)
(-0.0018858 -0.033482 0)
(-0.00182672 -0.0319377 0)
(-0.00208243 -0.0362855 0)
(-0.000314411 -0.0065312 0)
(-0.00356641 -0.0854701 0)
(-0.00369707 -0.0861706 0)
(-0.0049948 -0.0925158 0)
(-0.0050984 -0.0929931 0)
(-0.00510533 -0.0931179 0)
(-0.00527153 -0.0941066 0)
(-0.00532906 -0.0944712 0)
(-0.00525772 -0.0941071 0)
(-0.00413623 -0.0883428 0)
(-0.00402017 -0.087706 0)
(-0.00411296 -0.0881256 0)
(-0.00495869 -0.0925475 0)
(-0.00491218 -0.0923603 0)
(-0.00435644 -0.0640239 0)
(-0.00433773 -0.062958 0)
(-0.00448903 -0.0654237 0)
(-0.00337469 -0.0516816 0)
(-0.00355799 -0.0545393 0)
(-0.00337894 -0.0525064 0)
(-0.00288434 -0.0471106 0)
(-0.00286755 -0.0476087 0)
(-0.00683582 -0.0957395 0)
(-0.00682951 -0.0960672 0)
(-0.00680301 -0.0956864 0)
(-0.00687642 -0.0998778 0)
(-0.00690175 -0.0998793 0)
(-0.00689354 -0.100053 0)
(-0.00666479 -0.099982 0)
(-0.00667413 -0.100171 0)
(-0.00663903 -0.0999408 0)
(-0.00236363 -0.0406276 0)
(-0.00260289 -0.0437049 0)
(-0.00258434 -0.0443825 0)
(-0.00656205 -0.100086 0)
(-0.00657214 -0.100289 0)
(-0.00653434 -0.100031 0)
(-0.00648507 -0.100011 0)
(-0.00625424 -0.0988245 0)
(-0.00627585 -0.0988707 0)
(-0.00631085 -0.0991126 0)
(-0.0061364 -0.0983965 0)
(-0.00618404 -0.0986779 0)
(-0.00614045 -0.0984751 0)
(-0.00561481 -0.0959558 0)
(-0.00565019 -0.096087 0)
(-0.00569132 -0.0963314 0)
(-0.00591674 -0.0973927 0)
(-0.0059597 -0.0975881 0)
(-0.00896801 -0.0637925 0)
(-0.00869615 -0.0701402 0)
(-0.00874207 -0.0694814 0)
(-0.00900058 -0.0612855 0)
(-0.00867777 -0.0716628 0)
(-0.00853232 -0.0747792 0)
(-0.00863164 -0.0727828 0)
(-0.00864146 -0.0722232 0)
(-0.00828098 -0.0786125 0)
(-0.00830901 -0.0787498 0)
(-0.0082623 -0.0793597 0)
(-0.00836319 -0.0778771 0)
(-0.0083434 -0.0785218 0)
(-0.00796271 -0.0853874 0)
(-0.00799602 -0.0852393 0)
(-0.00795932 -0.0857908 0)
(-0.00786682 -0.0875523 0)
(-0.00781931 -0.0882311 0)
(-0.00783984 -0.0875334 0)
(-0.00762064 -0.0914566 0)
(-0.00765791 -0.090958 0)
(-0.00765087 -0.0912878 0)
(-0.00774709 -0.0882319 0)
(-0.00771214 -0.088911 0)
(-0.00770196 -0.088576 0)
(-0.0069031 -0.0905698 0)
(-0.00689909 -0.089768 0)
(-0.00694636 -0.0901917 0)
(-0.000955701 -0.0102946 0)
(-0.00312386 -0.0374648 0)
(-0.00301789 -0.0373892 0)
(-0.00181502 -0.0224662 0)
(-0.000803911 -0.00919582 0)
(-0.00149597 -0.0167525 0)
(-0.00445278 -0.060937 0)
(-0.00426633 -0.058848 0)
(-0.00431339 -0.0584729 0)
(-0.00471026 -0.0592803 0)
(-0.004753 -0.0610185 0)
(-0.00454428 -0.0582306 0)
(-0.0010453 -0.0192184 0)
(-0.00103074 -0.0195004 0)
(-0.000799615 -0.0150751 0)
(-0.000836082 -0.0162177 0)
(-0.00219312 -0.0373625 0)
(-0.00136038 -0.024733 0)
(-0.00121635 -0.0218692 0)
(-0.00141104 -0.0250742 0)
(-0.00054124 -0.0108108 0)
(-0.00376929 -0.0863094 0)
(-0.00365088 -0.0856354 0)
(-0.00373962 -0.0860333 0)
(-0.00485169 -0.091925 0)
(-0.00492633 -0.0923144 0)
(-0.00538349 -0.0947943 0)
(-0.00529518 -0.0943562 0)
(-0.00394712 -0.087455 0)
(-0.00390428 -0.0872859 0)
(-0.00381844 -0.0867747 0)
(-0.00418462 -0.0602676 0)
(-0.00417878 -0.0609841 0)
(-0.00318574 -0.0488444 0)
(-0.00324295 -0.0502542 0)
(-0.00264221 -0.0423689 0)
(-0.0026965 -0.0426033 0)
(-0.00286366 -0.0454771 0)
(-0.00691295 -0.0973887 0)
(-0.00688478 -0.0970972 0)
(-0.00691629 -0.0970067 0)
(-0.00677605 -0.0992259 0)
(-0.00680168 -0.0993759 0)
(-0.00677856 -0.09944 0)
(-0.00684867 -0.100268 0)
(-0.00685364 -0.100115 0)
(-0.0068734 -0.100291 0)
(-0.00664023 -0.100493 0)
(-0.00665277 -0.100431 0)
(-0.00667689 -0.100687 0)
(-0.00674465 -0.100233 0)
(-0.00678136 -0.100393 0)
(-0.00676521 -0.100462 0)
(-0.0066094 -0.100397 0)
(-0.00665309 -0.100693 0)
(-0.00663956 -0.100741 0)
(-0.006676 -0.100957 0)
(-0.00663279 -0.100811 0)
(-0.00659716 -0.100546 0)
(-0.00656194 -0.10042 0)
(-0.00654685 -0.10026 0)
(-0.00643582 -0.0998041 0)
(-0.00642007 -0.0998402 0)
(-0.00638766 -0.0997043 0)
(-0.00638165 -0.0996224 0)
(-0.00644923 -0.0996782 0)
(-0.00649076 -0.0998263 0)
(-0.00649556 -0.0999797 0)
(-0.00628953 -0.0991585 0)
(-0.00633524 -0.0993659 0)
(-0.00632584 -0.0993707 0)
(-0.00622388 -0.0988849 0)
(-0.00621439 -0.0988788 0)
(-0.00571864 -0.0963444 0)
(-0.00578082 -0.0966651 0)
(-0.00836524 -0.0757413 0)
(-0.00831354 -0.0769505 0)
(-0.00828932 -0.0765308 0)
(-0.00817404 -0.0819224 0)
(-0.00822084 -0.0812026 0)
(-0.00819976 -0.0817961 0)
(-0.00834486 -0.0788473 0)
(-0.00801929 -0.085433 0)
(-0.00798154 -0.0857876 0)
(-0.00802241 -0.0851247 0)
(-0.00806119 -0.0846228 0)
(-0.00778267 -0.0874306 0)
(-0.00779336 -0.0878551 0)
(-0.00793183 -0.0869562 0)
(-0.00788719 -0.0875643 0)
(-0.00791155 -0.0869612 0)
(-0.00716002 -0.0952015 0)
(-0.00711636 -0.09524 0)
(-0.0071416 -0.094851 0)
(-0.00747211 -0.0942958 0)
(-0.00745403 -0.0943284 0)
(-0.00748031 -0.0939555 0)
(-0.00759869 -0.0912849 0)
(-0.00763838 -0.0905734 0)
(-0.00763693 -0.0909655 0)
(-0.0077222 -0.0902934 0)
(-0.00770505 -0.0907185 0)
(-0.00769433 -0.0905254 0)
(-0.0027949 -0.0355319 0)
(-0.0021478 -0.0274821 0)
(-0.00150094 -0.0174987 0)
(-0.0032055 -0.0445779 0)
(-0.00350775 -0.0486522 0)
(-0.00340295 -0.0478524 0)
(-0.000556665 -0.0107208 0)
(-0.000530027 -0.0099527 0)
(-0.000734599 -0.0135491 0)
(-0.00160068 -0.0279922 0)
(-0.00121393 -0.0214142 0)
(-0.000276891 -0.00540898 0)
(-0.000231791 -0.00466152 0)
(-0.00546052 -0.0951613 0)
(-0.00544836 -0.0950319 0)
(-0.00550985 -0.0953725 0)
(-0.00444064 -0.0625382 0)
(-0.00460186 -0.0645548 0)
(-0.00452147 -0.0641647 0)
(-0.00296361 -0.0476651 0)
(-0.00276167 -0.0448062 0)
(-0.00392012 -0.058038 0)
(-0.00369977 -0.0550089 0)
(-0.00385731 -0.0564769 0)
(-0.0071654 -0.0976936 0)
(-0.00716467 -0.0973529 0)
(-0.0071879 -0.0974088 0)
(-0.00698358 -0.100829 0)
(-0.00701483 -0.100813 0)
(-0.00700794 -0.100982 0)
(-0.00686791 -0.100753 0)
(-0.00687729 -0.100612 0)
(-0.00690802 -0.10078 0)
(-0.00677375 -0.101232 0)
(-0.00679427 -0.101113 0)
(-0.00682155 -0.101231 0)
(-0.00676072 -0.100823 0)
(-0.00677504 -0.100753 0)
(-0.00679538 -0.100945 0)
(-0.00658849 -0.100613 0)
(-0.0063572 -0.0995275 0)
(-0.00629618 -0.0992492 0)
(-0.00616307 -0.098636 0)
(-0.00553878 -0.0955569 0)
(-0.00557779 -0.0957173 0)
(-0.00603716 -0.0978856 0)
(-0.00600589 -0.0977717 0)
(-0.00598646 -0.0975938 0)
(-0.00844092 -0.0767878 0)
(-0.00848306 -0.0757671 0)
(-0.0084812 -0.0762291 0)
(-0.00814945 -0.0819109 0)
(-0.00812344 -0.082665 0)
(-0.00843379 -0.0765421 0)
(-0.00797739 -0.0861807 0)
(-0.00808106 -0.0839884 0)
(-0.0081014 -0.0833515 0)
(-0.00811983 -0.0833529 0)
(-0.00775549 -0.0886161 0)
(-0.0073405 -0.0956018 0)
(-0.00733992 -0.0952155 0)
(-0.00737198 -0.0951398 0)
(-0.00753158 -0.0930898 0)
(-0.00756621 -0.0925553 0)
(-0.0075668 -0.0928306 0)
(-0.00766707 -0.0913249 0)
(-0.00762997 -0.091709 0)
(-0.00777665 -0.0895791 0)
(-0.00774601 -0.0899239 0)
(-0.00775963 -0.0895418 0)
(-0.0031792 -0.0413637 0)
(-0.00262081 -0.0344391 0)
(-0.00144957 -0.0184663 0)
(-0.00115242 -0.0142629 0)
(-0.000902247 -0.0107874 0)
(-0.00283939 -0.0392829 0)
(-0.00310326 -0.0422004 0)
(-0.00320676 -0.0456527 0)
(-0.000476338 -0.00875932 0)
(-0.00103057 -0.0184866 0)
(-0.000861801 -0.0156407 0)
(-0.00175985 -0.030276 0)
(-0.00197391 -0.0338841 0)
(-0.00174189 -0.0295128 0)
(-0.00189113 -0.0321192 0)
(-0.0015291 -0.0262334 0)
(-0.001344 -0.0229895 0)
(-0.00142989 -0.0241819 0)
(-0.00559111 -0.0956847 0)
(-0.00553496 -0.0954429 0)
(-0.00553634 -0.095368 0)
(-0.0029472 -0.0434649 0)
(-0.00292282 -0.0438563 0)
(-0.00271869 -0.0405762 0)
(-0.00184818 -0.0304781 0)
(-0.00209827 -0.0347144 0)
(-0.00190472 -0.0319072 0)
(-0.00713681 -0.0974489 0)
(-0.00711454 -0.0976557 0)
(-0.00711964 -0.097389 0)
(-0.00702216 -0.10008 0)
(-0.00700121 -0.0999764 0)
(-0.00702555 -0.0999333 0)
(-0.00691835 -0.101163 0)
(-0.00698274 -0.101166 0)
(-0.00694385 -0.101268 0)
(-0.00683967 -0.100572 0)
(-0.00672132 -0.100895 0)
(-0.00675552 -0.101084 0)
(-0.00672386 -0.101103 0)
(-0.00618273 -0.0985857 0)
(-0.0060994 -0.0982954 0)
(-0.00605018 -0.098073 0)
(-0.00604632 -0.0980132 0)
(-0.0081538 -0.082594 0)
(-0.00774252 -0.0891783 0)
(-0.00771643 -0.0892365 0)
(-0.00724315 -0.0972472 0)
(-0.0072523 -0.0973327 0)
(-0.00723031 -0.0975 0)
(-0.00741792 -0.0951463 0)
(-0.00744025 -0.0947096 0)
(-0.00744491 -0.0949438 0)
(-0.00752704 -0.09358 0)
(-0.0075462 -0.0932263 0)
(-0.00755036 -0.0934069 0)
(-0.00760196 -0.0923241 0)
(-0.00759433 -0.0920395 0)
(-0.00781862 -0.0886238 0)
(-0.00779064 -0.0891436 0)
(-0.00777834 -0.0889986 0)
(-0.000462891 -0.00571706 0)
(-0.00165264 -0.0216464 0)
(-0.00107334 -0.0139966 0)
(-0.00209635 -0.0294232 0)
(-0.00207743 -0.0284982 0)
(-0.00244698 -0.0337186 0)
(-0.000325503 -0.0062045 0)
(-0.000262815 -0.00491047 0)
(-0.00110538 -0.0192315 0)
(-0.000990303 -0.0174711 0)
(-0.000598499 -0.0106422 0)
(-0.000824669 -0.0147333 0)
(-0.000656143 -0.0118811 0)
(-0.00203675 -0.0332568 0)
(-0.00130209 -0.0225566 0)
(-0.00229959 -0.0367671 0)
(-0.00251178 -0.0398894 0)
(-0.00243289 -0.0392827 0)
(-0.00258103 -0.0395966 0)
(-0.00260335 -0.0406228 0)
(-0.00240354 -0.0372479 0)
(-0.00234102 -0.0333922 0)
(-0.00229054 -0.0332173 0)
(-0.00205394 -0.0294701 0)
(-0.00221923 -0.0360687 0)
(-0.00234033 -0.0384437 0)
(-0.00712686 -0.0999422 0)
(-0.00711012 -0.099993 0)
(-0.0071232 -0.0998163 0)
(-0.00713522 -0.0996065 0)
(-0.00715265 -0.0995148 0)
(-0.00714305 -0.0997385 0)
(-0.00706317 -0.100464 0)
(-0.00706356 -0.100292 0)
(-0.00707766 -0.100316 0)
(-0.00697158 -0.100991 0)
(-0.00699796 -0.101078 0)
(-0.0068394 -0.10099 0)
(-0.00686393 -0.101118 0)
(-0.00682467 -0.101074 0)
(-0.00693367 -0.101048 0)
(-0.00726216 -0.0977669 0)
(-0.00724172 -0.0979619 0)
(-0.00724913 -0.0977545 0)
(-0.00727282 -0.0978471 0)
(-0.00725256 -0.0981326 0)
(-0.00725334 -0.0979843 0)
(-0.00742555 -0.0952661 0)
(-0.00739912 -0.0955475 0)
(-0.0075012 -0.0939102 0)
(-0.00752186 -0.093826 0)
(-0.000773087 -0.00984373 0)
(-0.000512312 -0.00667598 0)
(-0.000230994 -0.00422599 0)
(-0.000426615 -0.00770074 0)
(-0.000938836 -0.016365 0)
(-0.00143773 -0.0236365 0)
(-0.00162974 -0.0268345 0)
(-0.00149129 -0.0248478 0)
(-0.00160517 -0.0270256 0)
(-0.00166762 -0.0277409 0)
(-0.00175663 -0.029386 0)
(-0.00109351 -0.0186005 0)
(-0.00125805 -0.0213455 0)
(-0.00118321 -0.0203117 0)
(-0.00236765 -0.0372524 0)
(-0.0021528 -0.0341086 0)
(-0.00219861 -0.034323 0)
(-0.00222511 -0.0342427 0)
(-0.00201998 -0.0313053 0)
(-0.00221129 -0.0326762 0)
(-0.00247138 -0.0361789 0)
(-0.00248147 -0.0368679 0)
(-0.00176151 -0.0282449 0)
(-0.0015908 -0.0253707 0)
(-0.00178083 -0.0281559 0)
(-0.00709599 -0.100199 0)
(-0.00709428 -0.100026 0)
(-0.00724577 -0.0975891 0)
(-0.00722972 -0.0979054 0)
(-0.00721817 -0.0978024 0)
(-0.00729074 -0.0972719 0)