/*--------------------------------*- C++ -*----------------------------------*\
| =========                 |                                                 |
| \\      /  F ield         | OpenFOAM: The Open Source CFD Toolbox           |
|  \\    /   O peration     | Version:  v2012                                 |
|   \\  /    A nd           | Website:  www.openfoam.com                      |
|    \\/     M anipulation  |                                                 |
\*---------------------------------------------------------------------------*/
FoamFile
{
    version     2.0;
    format      ascii;
    class       volVectorField;
    location    "1.3";
    object      U;
}
// * * * * * * * * * * * * * * * * * * * * * * * * * * * * * * * * * * * * * //

dimensions      [0 1 -1 0 0 0 0];


internalField   nonuniform List<vector> 
13611
(
(8.76973 0.262761 0)
(8.38048 0.165984 -2.31856e-22)
(9.15803 -0.662933 -3.06355e-22)
(8.46833 -0.259814 3.75944e-21)
(8.91327 -0.307472 -8.77859e-23)
(8.66059 -0.187847 0)
(8.06017 -0.00276667 -1.18484e-21)
(9.36531 -0.254856 -8.31596e-22)
(8.61918 -0.358989 1.00283e-21)
(8.80384 -0.245097 3.38974e-22)
(8.56301 -0.206615 -5.81925e-22)
(8.26416 0.136632 -1.0192e-22)
(8.55477 0.0257433 -7.67328e-24)
(9.59704 -0.244795 0)
(8.54929 -0.324166 -1.39027e-22)
(8.75166 -0.0170173 -1.42886e-22)
(8.53274 -0.24219 -1.41304e-22)
(8.59799 -0.0191761 -1.5975e-21)
(8.23305 0.140291 2.76545e-21)
(8.57473 -0.0916985 0)
(9.30913 -0.121708 -4.56389e-22)
(8.55389 -0.330622 0)
(8.55179 -0.307248 1.08101e-23)
(8.55694 -0.312872 0)
(8.49299 -0.195383 2.0755e-21)
(8.4201 -0.0559148 -6.74428e-22)
(8.19874 -0.0572063 -2.38624e-21)
(8.5694 -0.178722 0)
(9.1274 -0.0965899 1.33872e-21)
(8.57533 -0.303788 1.35599e-22)
(8.55451 -0.306805 -9.03261e-22)
(8.57305 -0.274456 -1.91244e-21)
(8.48536 -0.230852 8.34262e-22)
(8.43939 -0.163793 -5.98863e-22)
(8.32818 -0.126456 6.06174e-22)
(8.15399 -0.0575795 -1.23643e-21)
(8.44399 -0.164261 8.83711e-22)
(9.29702 -0.150096 -1.18023e-21)
(8.55422 -0.297431 -4.59594e-22)
(8.51614 -0.304555 2.10151e-21)
(8.52996 -0.27425 5.28734e-24)
(8.43055 -0.2614 0)
(8.39113 -0.207045 0)
(8.30771 -0.191837 1.12957e-22)
(7.98736 -0.0385605 6.6326e-22)
(8.42221 -0.186625 1.02869e-21)
(9.14521 -0.13847 -1.06178e-21)
(8.58281 -0.188423 0)
(8.51438 -0.307737 7.04867e-22)
(8.54585 -0.336979 -3.08391e-22)
(8.46618 -0.324125 -5.84635e-22)
(8.43275 -0.302171 1.06051e-22)
(8.36848 -0.287663 1.29602e-22)
(8.34465 -0.231939 -1.70741e-22)
(8.31656 -0.221917 3.68826e-22)
(8.26972 -0.229268 2.43418e-22)
(8.14932 -0.100041 3.10549e-21)
(8.32991 -0.234803 -1.1854e-22)
(9.13191 -0.131872 -4.2226e-22)
(8.68771 -0.208166 -1.32951e-21)
(8.50026 -0.348013 3.3824e-22)
(8.51605 -0.352334 6.27268e-23)
(8.43589 -0.351992 -5.02609e-22)
(8.39024 -0.309967 -2.46218e-23)
(8.5459 -0.384212 9.65117e-23)
(8.29137 -0.296619 -2.14395e-21)
(8.37009 -0.286655 -5.60881e-22)
(8.28424 -0.311583 -9.50386e-22)
(8.27463 -0.271805 -8.79054e-22)
(8.23524 -0.258015 0)
(8.07822 -0.0558125 7.0868e-22)
(8.29118 -0.279317 -7.09065e-22)
(8.96871 -0.133023 0)
(8.40092 -0.141707 -1.31231e-21)
(8.4623 -0.373369 3.61126e-22)
(8.51277 -0.373165 1.60724e-23)
(8.39954 -0.370255 0)
(8.44666 -0.37425 0)
(8.37819 -0.350707 -2.07784e-23)
(8.29632 -0.337025 0)
(8.32727 -0.335098 0)
(8.25856 -0.323588 5.34659e-22)
(8.24144 -0.268744 0)
(8.24444 -0.316638 3.9694e-23)
(8.212 -0.26362 0)
(8.11021 -0.13967 0)
(8.25618 -0.279452 -4.3994e-22)
(8.79762 -0.280567 -2.07191e-22)
(8.48406 -0.238911 -1.57082e-22)
(8.42335 -0.412496 -1.28195e-22)
(8.47885 -0.40206 2.56042e-24)
(8.3766 -0.407379 -8.22858e-23)
(8.39558 -0.417983 0)
(8.34559 -0.376202 0)
(8.49788 -0.438541 -1.38913e-23)
(8.26938 -0.354548 3.4907e-22)
(8.32941 -0.372299 0)
(8.25382 -0.345541 3.44716e-22)
(8.21894 -0.295665 -2.39181e-22)
(8.22609 -0.31792 -8.95714e-23)
(8.18576 -0.286564 0)
(8.03382 -0.171153 1.20997e-22)
(8.24561 -0.281423 4.44947e-22)
(8.7925 -0.113887 0)
(8.30248 -0.265135 0)
(8.44657 -0.421969 0)
(8.38235 -0.444703 -9.127e-23)
(8.32545 -0.43042 8.29398e-23)
(8.35525 -0.444572 0)
(8.30957 -0.419237 1.23891e-23)
(8.48733 -0.4632 -6.5535e-24)
(8.49917 -0.478391 1.7263e-23)
(8.2769 -0.38621 8.53623e-23)
(8.29367 -0.39791 0)
(8.24539 -0.34555 0)
(8.20058 -0.313033 -3.5704e-22)
(8.21726 -0.330642 -7.05432e-24)
(8.18618 -0.316725 0)
(8.15433 -0.297373 1.04424e-23)
(8.03825 -0.154611 1.35636e-22)
(8.21456 -0.216323 4.36543e-23)
(8.14862 -0.281919 1.95357e-23)
(8.78089 -0.302797 0)
(8.47076 -0.185267 -5.37845e-23)
(8.3072 -0.304744 -4.9727e-23)
(8.4562 -0.463684 -6.25324e-24)
(8.38078 -0.487083 -7.51077e-23)
(8.29265 -0.45839 -3.79657e-23)
(8.32352 -0.464905 0)
(8.28183 -0.4262 1.33475e-23)
(8.48621 -0.508967 1.55594e-23)
(8.25093 -0.393897 9.63194e-23)
(8.24278 -0.374282 0)
(8.2241 -0.345511 0)
(8.19464 -0.335266 4.0188e-23)
(8.15836 -0.341394 8.90368e-23)
(8.14322 -0.329564 9.90082e-23)
(8.05683 -0.203009 1.31902e-22)
(8.18976 -0.204061 2.85163e-23)
(8.11339 -0.300441 -3.59207e-23)
(8.85222 -0.243015 -4.81514e-24)
(8.30709 -0.169399 0)
(8.19798 -0.294278 1.22567e-22)
(8.43893 -0.491018 0)
(8.3561 -0.505881 -1.54685e-24)
(8.41153 -0.501601 -7.41097e-23)
(8.27285 -0.479304 -1.58937e-23)
(8.31715 -0.489737 0)
(8.25107 -0.440433 -6.93354e-23)
(8.45858 -0.517795 1.81706e-23)
(8.50061 -0.534424 0)
(8.22086 -0.41936 -3.67722e-23)
(8.20739 -0.393207 -1.29711e-23)
(8.18833 -0.374684 -5.85225e-23)
(8.15915 -0.360438 6.32107e-23)
(8.1405 -0.357684 0)
(8.11291 -0.3488 1.76193e-24)
(8.0682 -0.215008 1.31222e-22)
(8.16119 -0.20371 0)
(8.10143 -0.238196 1.83307e-22)
(8.09445 -0.339756 -3.1924e-23)
(8.08874 -0.282578 1.29925e-23)
(8.69859 -0.265717 1.06288e-22)
(8.41002 -0.160484 0)
(8.23991 -0.249483 0)
(8.33079 -0.503095 5.18548e-24)
(8.35997 -0.537593 -5.31179e-25)
(8.40406 -0.539074 2.32996e-23)
(8.24988 -0.482457 -1.20462e-23)
(8.29395 -0.500626 9.87178e-24)
(8.22734 -0.442945 -4.99828e-23)
(8.23327 -0.463693 -2.63403e-23)
(8.44722 -0.54872 -3.55255e-24)
(8.48741 -0.560139 0)
(8.18308 -0.425665 -1.72729e-24)
(8.17971 -0.421757 -1.50295e-23)
(8.15714 -0.392079 -6.65545e-23)
(8.13896 -0.368448 6.01378e-23)
(8.13789 -0.386862 1.95373e-22)
(8.09165 -0.38332 -2.0174e-23)
(8.07809 -0.380497 2.31135e-23)
(8.14421 -0.227229 1.16078e-22)
(8.12738 -0.237083 0)
(8.03436 -0.247921 2.33252e-22)
(8.06521 -0.354037 4.71103e-25)
(8.03476 -0.30245 1.81334e-25)
(8.74937 -0.20035 4.6489e-23)
(8.31594 -0.13757 -5.63811e-24)
(8.31789 -0.536756 9.82173e-24)
(8.38105 -0.551006 4.60176e-23)
(8.33462 -0.554451 3.71807e-24)
(8.42303 -0.558136 -4.62306e-23)
(8.25029 -0.508612 0)
(8.28812 -0.52018 3.59085e-24)
(8.19174 -0.464218 -1.34867e-24)
(8.20185 -0.475971 0)
(8.46295 -0.56923 -2.6211e-23)
(8.50213 -0.575147 0)
(8.15883 -0.452912 -2.04633e-23)
(8.15152 -0.423576 -5.31198e-23)
(8.08809 -0.393466 2.9119e-23)
(8.09772 -0.412805 9.50125e-23)
(8.06009 -0.403263 -4.03147e-23)
(8.04985 -0.399801 -3.16511e-23)
(8.12576 -0.205319 -1.40246e-23)
(8.11919 -0.216659 8.11731e-23)
(8.0271 -0.258438 4.35573e-23)
(7.99951 -0.286177 1.10513e-23)
(8.03343 -0.336341 6.47829e-25)
(8.04478 -0.384701 2.18794e-25)
(8.47653 -0.124598 -5.20044e-24)
(8.63765 -0.212594 5.6782e-23)
(8.18415 -0.164328 -7.54809e-24)
(8.30081 -0.539589 0)
(8.37599 -0.575761 1.26022e-23)
(8.33494 -0.573205 2.48826e-23)
(8.41112 -0.588714 -2.57265e-23)
(8.23366 -0.515708 0)
(8.27029 -0.525057 -3.36811e-24)
(8.16445 -0.469956 -2.60799e-23)
(8.20924 -0.500719 -2.12282e-23)
(8.45321 -0.597028 -3.08885e-23)
(8.49687 -0.605892 -3.98104e-23)
(8.13124 -0.462823 -3.08755e-24)
(8.12336 -0.442874 -1.21011e-23)
(8.06911 -0.410145 3.54901e-24)
(8.08032 -0.439721 -1.88209e-23)
(8.01491 -0.427176 7.00461e-23)
(8.00503 -0.426729 -3.16287e-23)
(8.10407 -0.185658 7.52462e-23)
(8.07183 -0.203462 0)
(7.99252 -0.27172 -1.06385e-22)
(7.96277 -0.300539 -2.12073e-23)
(7.99638 -0.358726 6.58444e-25)
(8.00491 -0.391824 0)
(8.39851 -0.162405 -1.39595e-23)
(8.67288 -0.144938 0)
(8.1187 -0.136203 -5.39427e-23)
(8.285 -0.557482 -1.23279e-23)
(8.35717 -0.584614 4.25331e-24)
(8.39253 -0.594444 1.36971e-23)
(8.31869 -0.585724 2.01503e-23)
(8.42694 -0.606977 0)
(8.2333 -0.538228 -7.36414e-24)
(8.26743 -0.546501 -1.32465e-23)
(8.15357 -0.495503 -7.13896e-23)
(8.192 -0.511291 -1.93219e-23)
(8.47074 -0.615583 -4.23624e-23)
(8.11834 -0.48171 -2.02585e-23)
(8.09965 -0.453451 3.243e-23)
(8.03007 -0.440505 7.14258e-23)
(8.05276 -0.463932 0)
(7.99358 -0.433268 1.09922e-23)
(8.0026 -0.443367 1.03071e-22)
(7.98904 -0.429468 0)
(7.98472 -0.416613 0)
(8.09797 -0.151748 2.55544e-23)
(8.05514 -0.167263 -4.65253e-24)
(7.99174 -0.237214 -9.35644e-23)
(7.9678 -0.275627 0)
(7.94717 -0.2875 -2.96545e-24)
(7.94963 -0.327339 -4.29492e-23)
(7.96279 -0.3553 -1.36907e-23)
(8.47621 -0.141366 9.9894e-24)
(8.19071 -0.165801 -6.06799e-23)
(8.56617 -0.204121 0)
(8.28593 -0.573763 -8.31185e-24)
(8.35447 -0.607771 2.59007e-23)
(8.37526 -0.616307 0)
(8.32097 -0.610362 -3.41471e-25)
(8.30178 -0.588808 -3.92142e-26)
(8.41746 -0.632674 2.97771e-23)
(8.24958 -0.553399 1.51389e-24)
(8.21384 -0.548835 -7.22662e-24)
(8.13062 -0.499585 -1.52378e-23)
(8.16982 -0.512375 -4.48572e-23)
(8.19633 -0.539103 0)
(8.46073 -0.63679 1.45912e-23)
(8.09103 -0.49656 -2.671e-23)
(8.08074 -0.489769 2.11993e-23)
(8.02515 -0.463871 -6.20664e-23)
(8.05604 -0.496539 -8.3828e-23)
(7.9533 -0.45959 0)
(7.97309 -0.476314 2.80657e-23)
(7.9433 -0.448941 -3.44683e-23)
(7.94855 -0.423612 -1.91683e-23)
(8.09099 -0.11379 1.38233e-23)
(8.07301 -0.119038 -6.87797e-24)
(7.96822 -0.170822 -4.84e-23)
(7.95479 -0.206747 -4.78391e-23)
(7.94447 -0.259751 0)
(7.90452 -0.283675 -4.01764e-23)
(7.9121 -0.33188 7.44786e-24)
(7.9356 -0.394448 -7.222e-24)
(8.31403 -0.13203 4.56395e-24)
(8.15789 -0.156793 -1.50033e-23)
(8.51901 -0.260648 0)
(8.26321 -0.583305 8.78634e-24)
(8.33676 -0.619063 1.83481e-23)
(8.37683 -0.636092 -2.84189e-23)
(8.30163 -0.624857 -2.40622e-23)
(8.2879 -0.614827 -9.95001e-24)
(8.40008 -0.645925 2.09746e-23)
(8.43808 -0.647048 1.45278e-23)
(8.24511 -0.571883 1.79953e-23)
(8.20955 -0.570566 0)
(8.1145 -0.522607 -1.6743e-23)
(8.15934 -0.536747 0)
(8.17643 -0.551121 -1.76074e-24)
(8.47957 -0.658238 0)
(8.49781 -0.662855 5.19087e-23)
(8.08691 -0.518332 0)
(7.99965 -0.494422 1.08647e-23)
(8.03454 -0.518838 -2.93444e-23)
(7.92701 -0.46342 -4.01957e-23)
(7.94596 -0.475648 -2.51788e-23)
(7.97292 -0.497667 0)
(7.92288 -0.451196 4.93531e-24)
(7.92206 -0.437689 -1.19705e-23)
(8.13092 -0.108434 8.01727e-24)
(8.01247 -0.0976409 0)
(7.94204 -0.16086 -3.85346e-23)
(7.9498 -0.223731 4.69152e-23)
(7.90066 -0.262415 -1.66377e-23)
(7.89194 -0.301575 -3.77808e-23)
(7.87261 -0.366558 1.64267e-23)
(7.88715 -0.398972 0)
(8.34061 -0.167103 -7.77794e-24)
(8.54058 -0.107955 0)
(8.25616 -0.605905 -1.02002e-23)
(8.34086 -0.64096 -7.48386e-24)
(8.36132 -0.64929 -2.9622e-23)
(8.30596 -0.640165 8.16436e-24)
(8.27031 -0.620604 -1.45627e-23)
(8.40688 -0.667974 2.36941e-23)
(8.44542 -0.666235 0)
(8.22566 -0.581777 0)
(8.18937 -0.583008 0)
(8.12071 -0.54036 0)
(8.14122 -0.54868 0)
(8.17201 -0.571642 -1.72726e-24)
(8.47093 -0.676017 0)
(8.50993 -0.68852 3.23608e-23)
(8.06947 -0.541012 0)
(8.00218 -0.518605 3.04402e-23)
(8.04258 -0.534315 1.73569e-23)
(7.89574 -0.484154 4.13006e-23)
(7.92098 -0.502929 -1.85704e-23)
(7.94989 -0.525983 1.25496e-23)
(7.88151 -0.470863 0)
(7.88487 -0.449677 -1.20754e-23)
(8.12398 -0.0983259 1.95465e-23)
(7.9374 -0.126507 -6.56139e-23)
(8.03448 -0.0902068 0)
(7.91945 -0.184268 -3.92323e-23)
(7.91586 -0.207036 4.57909e-23)
(7.85395 -0.251649 6.03543e-24)
(7.83203 -0.317128 -2.64692e-24)
(7.82317 -0.354928 0)
(7.86364 -0.429076 9.79723e-26)
(8.32438 -0.151446 4.27416e-24)
(8.51764 -0.260448 -6.59082e-23)
(8.41551 -0.0770616 1.18881e-23)
(8.23643 -0.614786 -1.18073e-23)
(8.32889 -0.651351 -2.64893e-24)
(8.37354 -0.667334 0)
(8.29623 -0.653796 2.46269e-23)
(8.26467 -0.637013 0)
(8.4225 -0.684677 4.27245e-23)
(8.39526 -0.676594 1.24308e-23)
(8.43673 -0.685868 0)
(8.2194 -0.603486 -2.42202e-23)
(8.18562 -0.603017 0)
(8.1006 -0.569101 0)
(8.13629 -0.573043 -2.40558e-23)
(8.15137 -0.582951 -2.31077e-23)
(8.47494 -0.697761 0)
(8.49317 -0.705372 2.33453e-23)
(8.07869 -0.568042 0)
(8.05467 -0.536697 0)
(7.98256 -0.534238 -5.93486e-24)
(8.0203 -0.555372 2.49103e-23)
(7.87048 -0.482637 -5.76636e-24)
(7.89339 -0.500901 3.32736e-23)
(7.92418 -0.527645 1.36514e-23)
(7.9557 -0.540342 -1.52549e-23)
(7.85841 -0.466559 -1.48016e-23)
(8.15096 -0.0860603 1.47593e-23)
(7.8906 -0.132878 -6.14899e-23)
(8.00269 -0.0906498 2.05335e-24)
(7.86798 -0.186407 -4.83047e-23)
(7.85871 -0.226979 2.15345e-23)
(7.80439 -0.265872 0)
(7.80711 -0.303521 0)
(7.79357 -0.372664 8.68617e-24)
(7.81793 -0.441686 -2.20799e-23)
(8.25338 -0.11172 -4.24571e-24)
(8.58942 -0.198144 3.30289e-23)
(8.37603 -0.0743132 -1.03856e-23)
(8.23324 -0.630346 -2.48522e-23)
(8.33205 -0.670524 -2.46415e-24)
(8.3637 -0.685225 0)
(8.27809 -0.652907 -3.84795e-25)
(8.3132 -0.672603 1.37201e-23)
(8.24952 -0.642395 -1.89988e-23)
(8.41032 -0.704092 2.16124e-23)
(8.39472 -0.698688 -1.05006e-23)
(8.4542 -0.707726 0)
(8.20202 -0.613292 -9.34569e-24)
(8.16849 -0.614242 0)
(8.11115 -0.588534 -6.43958e-25)
(8.14898 -0.604775 0)
(8.49773 -0.728308 5.43205e-23)
(8.06727 -0.594651 0)
(8.03433 -0.568348 -1.24796e-23)
(7.98296 -0.56137 0)
(8.00099 -0.571989 0)
(7.84356 -0.504131 6.5952e-24)
(7.87369 -0.525516 -5.2251e-24)
(7.9059 -0.549971 0)
(7.94592 -0.557469 1.16487e-23)
(7.82423 -0.482263 1.19494e-23)
(8.07456 -0.0751776 1.53345e-23)
(7.86817 -0.116949 0)
(7.86162 -0.169487 4.30562e-23)
(8.03421 -0.0822591 -1.47367e-23)
(7.91385 -0.10421 2.3542e-24)
(7.80122 -0.20897 -1.76475e-23)
(7.79662 -0.223675 0)
(7.74912 -0.272652 4.21329e-23)
(7.75384 -0.318099 0)
(7.75588 -0.370895 -1.84806e-24)
(7.79934 -0.42071 -2.00815e-23)
(7.80105 -0.47127 1.20092e-23)
(8.24553 -0.10916 4.28085e-25)
(8.44315 -0.0750376 0)
(8.46927 -0.157176 0)
(8.31362 -0.0970202 -8.82147e-24)
(8.51454 0.11606 0)
(8.4819 0.0151803 -7.36996e-23)
(8.21666 -0.642487 -5.3506e-24)
(8.34707 -0.685626 0)
(8.37644 -0.705677 1.00035e-23)
(8.27355 -0.672165 2.52272e-23)
(8.30845 -0.690352 4.27451e-23)
(8.24134 -0.662385 -2.54089e-23)
(8.41869 -0.719049 -6.75028e-24)
(8.44997 -0.724549 0)
(8.20027 -0.633856 -9.1753e-24)
(8.16878 -0.633164 -2.27634e-23)
(8.11219 -0.606278 0)
(8.1331 -0.614661 1.89184e-24)
(8.51914 -0.736196 0)
(8.47984 -0.737707 4.00759e-23)
(8.04728 -0.59366 -2.62711e-23)
(8.08057 -0.612055 0)
(7.96624 -0.572889 -7.4736e-24)
(8.01054 -0.599944 0)
(7.81633 -0.500793 1.06956e-23)
(7.84672 -0.523588 -4.6051e-24)
(7.8815 -0.548225 -3.18522e-24)
(7.91055 -0.57035 6.79936e-24)
(7.93044 -0.572248 4.35057e-24)
(8.12612 -0.0861489 1.42767e-23)
(7.82076 -0.122864 0)
(7.79787 -0.176889 3.33899e-23)
(7.96103 -0.0983015 -3.2428e-23)
(7.88985 -0.109782 -6.92956e-24)
(7.72662 -0.2063 0)
(7.72279 -0.237731 2.72758e-23)
(7.7219 -0.305966 2.40913e-23)
(7.71627 -0.25832 1.87219e-23)
(7.73281 -0.342641 0)
(7.73539 -0.408941 -1.14271e-23)
(7.76064 -0.435153 -1.55209e-24)
(7.77287 -0.488901 1.33154e-23)
(8.48961 -0.0547264 -1.16929e-23)
(8.50956 -0.0745456 -3.09975e-24)
(8.25209 -0.0778921 -5.01256e-23)
(8.42079 0.130684 0)
(8.52418 0.136189 4.69871e-23)
(8.48201 0.101042 3.04323e-24)
(8.20517 -0.141503 9.45058e-23)
(8.57774 0.0958005 0)
(8.22089 -0.660393 1.65675e-25)
(8.34227 -0.707338 0)
(8.37527 -0.717928 -1.06899e-23)
(8.28861 -0.690161 2.42626e-23)
(8.25337 -0.673895 -2.5226e-23)
(8.32436 -0.709353 2.79255e-23)
(8.43525 -0.728568 -6.29917e-24)
(8.40632 -0.734257 -1.81197e-23)
(8.46496 -0.73952 -7.20518e-24)
(8.18462 -0.64311 -1.86361e-23)
(8.15253 -0.64297 -1.21958e-23)
(8.1003 -0.612852 0)
(8.13552 -0.633555 -6.13799e-24)
(8.47958 -0.75602 -1.36678e-23)
(8.03363 -0.611188 -7.69628e-23)
(8.073 -0.628116 0)
(7.96308 -0.593595 -1.70626e-23)
(7.99461 -0.620359 0)
(7.79347 -0.523718 3.83079e-24)
(7.83069 -0.543627 3.41048e-24)
(7.86241 -0.573054 -2.29771e-24)
(7.89321 -0.596583 3.87208e-23)
(7.93941 -0.593104 0)
(8.06835 -0.0943769 5.39654e-25)
(7.81361 -0.0942745 0)
(7.7918 -0.149573 0)
(7.72574 -0.19473 -4.72669e-23)
(7.96289 -0.0983162 -2.32348e-23)
(7.85958 -0.0959246 -5.35053e-24)
(7.66798 -0.215196 6.54304e-24)
(7.67885 -0.232911 2.70691e-23)
(7.68135 -0.315221 1.92792e-23)
(7.6546 -0.282377 2.62859e-23)
(7.68906 -0.360423 0)
(7.70315 -0.418592 0)
(7.74899 -0.467597 1.34986e-23)
(7.76867 -0.515533 0)
(8.46116 -0.0502 1.39114e-23)
(8.41858 -0.0724957 0)
(8.3044 -0.0454222 -5.04385e-23)
(8.11686 -0.0813894 -1.37926e-23)
(8.29996 0.164936 8.10121e-23)
(8.49462 0.145625 1.01586e-22)
(8.50257 0.150708 1.53571e-22)
(8.48493 0.13131 0)
(8.09912 0.029774 -5.68462e-23)
(8.58206 0.0300567 -7.50769e-23)
(8.2072 -0.674673 0)
(8.35798 -0.722719 0)
(8.39057 -0.733489 -3.13989e-23)
(8.28015 -0.711724 0)
(8.24655 -0.692152 0)
(8.31439 -0.722212 1.79806e-23)
(8.43009 -0.748802 -2.90811e-23)
(8.41428 -0.753216 -3.91914e-23)
(8.45458 -0.759515 -1.61049e-23)
(8.17691 -0.660909 -1.69335e-23)
(8.14656 -0.655829 0)
(8.10434 -0.637122 1.01668e-23)
(8.12021 -0.64641 9.56379e-24)
(8.49444 -0.762362 1.21998e-23)
(8.46384 -0.767653 -3.10854e-23)
(8.03046 -0.627334 -2.12186e-23)
(8.08999 -0.644273 -1.19893e-23)
(8.05818 -0.640963 -9.14674e-24)
(7.97585 -0.614135 1.30598e-23)
(8.00408 -0.632298 0)
(7.80219 -0.542982 8.92497e-24)
(7.83871 -0.567677 0)
(7.87002 -0.596851 0)
(7.90358 -0.613575 3.5837e-23)
(7.92926 -0.611188 3.23514e-23)
(7.79294 -0.0706158 -5.50059e-24)
(7.75377 -0.137558 0)
(7.67662 -0.175049 -3.69889e-23)
(7.93209 -0.0945981 -9.30941e-25)
(7.85842 -0.0834484 -3.81876e-25)
(7.60783 -0.218058 2.89714e-23)
(7.62061 -0.251205 2.52247e-23)
(7.64815 -0.306376 4.40474e-23)
(7.66345 -0.341156 0)
(7.61538 -0.272386 2.5234e-23)
(7.67678 -0.39658 7.67208e-25)
(7.69463 -0.453253 0)
(7.72134 -0.477958 0)
(7.74452 -0.532703 0)
(8.49986 -0.00855089 2.99686e-24)
(8.49337 -0.0268459 8.42598e-24)
(8.21259 0.00962534 -1.01645e-23)
(8.06135 -0.0563986 3.41581e-24)
(8.29398 0.14577 1.0237e-22)
(8.48022 0.163416 5.46566e-23)
(8.50017 0.170499 1.51735e-22)
(8.48451 0.127781 0)
(8.47842 0.140932 0)
(8.53197 0.108175 -3.57461e-24)
(8.06594 0.0101105 -1.04309e-22)
(8.57652 0.0868501 2.06814e-22)
(8.18932 -0.673624 -2.31778e-23)
(8.21663 -0.690525 -5.86007e-24)
(8.35067 -0.738322 0)
(8.38007 -0.75374 0)
(8.29605 -0.7278 -2.35762e-24)
(8.26262 -0.711653 -1.4488e-23)
(8.2327 -0.695028 -3.88057e-24)
(8.32394 -0.738598 1.76944e-23)
(8.43934 -0.764089 -5.41078e-23)
(8.40643 -0.764402 -2.09581e-23)
(8.16244 -0.665011 0)
(8.13545 -0.668453 0)
(8.11963 -0.663608 0)
(8.51007 -0.784928 -3.8069e-23)
(8.49497 -0.781218 2.54075e-23)
(8.47034 -0.780869 -2.30304e-24)
(8.04012 -0.637857 -2.30114e-24)
(8.08438 -0.661934 9.75284e-25)
(8.06258 -0.662499 0)
(7.96083 -0.636754 -2.13259e-23)
(7.99287 -0.650993 0)
(7.79034 -0.567644 -1.91901e-23)
(7.81524 -0.58778 0)
(7.84962 -0.619453 0)
(7.89768 -0.641671 0)
(7.93978 -0.632482 3.13269e-23)
(7.81279 -0.0708292 4.31427e-23)
(7.76832 -0.0781135 1.6292e-23)
(7.74529 -0.102328 1.93882e-23)
(7.69595 -0.154356 7.72219e-24)
(7.60491 -0.172595 0)
(7.92647 -0.0915253 -1.32489e-24)
(7.88175 -0.0896604 4.26037e-24)
(7.5797 -0.19892 0)
(7.57677 -0.235238 2.29304e-23)
(7.60536 -0.332122 0)
(7.61909 -0.355609 0)
(7.57237 -0.294053 1.46515e-23)
(7.64101 -0.410785 2.05145e-23)
(7.66379 -0.466867 7.82842e-24)
(7.71835 -0.511132 4.50915e-24)
(7.74249 -0.563277 0)
(8.45468 0.0315524 0)
(8.52837 0.00116765 3.0097e-24)
(8.10191 -0.000571047 1.45586e-23)
(8.28582 0.0381244 0)
(7.9654 -0.0680131 0)
(8.21965 0.137657 0)
(8.47074 0.175327 -8.27829e-23)
(8.46848 0.179528 0)
(8.49892 0.181862 -1.16407e-22)
(8.51683 0.130275 0)
(8.47322 0.164823 -8.3274e-25)
(8.56389 0.109321 -4.66176e-23)
(7.99516 0.0653282 0)
(8.51305 0.118747 0)
(8.18466 -0.691273 -9.18847e-25)
(8.21027 -0.704367 -5.84184e-24)
(8.36556 -0.754476 0)
(8.33855 -0.745741 5.15731e-24)
(8.39051 -0.76823 1.10634e-23)
(8.29737 -0.742858 5.75502e-24)
(8.25686 -0.730186 -1.45317e-23)
(8.23409 -0.711131 -3.84254e-24)
(8.31443 -0.751173 0)
(8.43683 -0.777383 -5.67962e-23)
(8.41548 -0.776993 0)
(8.15951 -0.680396 -4.4136e-25)
(8.14317 -0.681851 -4.76569e-25)
(8.10987 -0.674313 -1.85146e-24)
(8.48202 -0.787399 2.50031e-23)
(8.45874 -0.790448 1.70451e-24)
(8.02802 -0.663428 0)
(8.09457 -0.673787 9.12689e-24)
(8.05789 -0.680356 3.58616e-27)
(7.96794 -0.653921 -3.26615e-23)
(8.0051 -0.666025 0)
(7.76537 -0.58095 -1.99307e-23)
(7.82045 -0.609676 0)
(7.8543 -0.639886 1.59838e-23)
(7.9208 -0.655054 6.44432e-25)
(7.87894 -0.651836 1.56808e-23)
(7.79259 -0.0463605 4.21791e-23)
(7.71516 -0.0502669 0)
(7.68457 -0.0890177 2.66089e-23)
(7.65173 -0.117853 -1.501e-24)
(7.55216 -0.140939 -4.75258e-25)
(7.88594 -0.0939068 5.48318e-24)
(7.86311 -0.0985195 0)
(7.5067 -0.210006 0)
(7.54035 -0.250622 -4.75694e-23)
(7.57232 -0.325345 1.45546e-23)
(7.61189 -0.387083 0)
(7.53949 -0.283671 2.05932e-24)
(7.63465 -0.4431 7.78247e-24)
(7.66011 -0.500255 1.11167e-23)
(7.68998 -0.524031 -3.4879e-24)
(7.71782 -0.574545 1.29299e-24)
(8.51567 0.0272031 0)
(8.44456 -0.0176897 0)
(7.98517 -0.0118445 1.13107e-23)
(8.18851 0.0238178 -1.02774e-23)
(7.91083 -0.0537069 8.59217e-24)
(8.25137 0.181426 0)
(8.45523 0.193182 -8.27064e-23)
(8.45407 0.198408 9.71487e-23)
(8.45438 0.207811 9.92773e-23)
(8.38163 0.166291 -2.75196e-22)
(8.52878 0.153775 1.26857e-23)
(8.50733 0.172605 1.01804e-22)
(8.57737 0.130845 -4.43142e-23)
(7.9542 0.10069 1.31038e-22)
(8.43346 0.209347 0)
(8.17048 -0.692341 -9.27619e-24)
(8.19575 -0.706035 0)
(8.21998 -0.714404 0)
(8.36121 -0.767442 -2.14412e-23)
(8.34557 -0.762657 5.21463e-24)
(8.39449 -0.77903 2.55471e-23)
(8.28694 -0.751546 8.2047e-24)
(8.24256 -0.725767 0)
(8.2716 -0.747106 -7.69869e-24)
(8.32059 -0.76579 0)
(8.44699 -0.792861 -4.24913e-23)
(8.42506 -0.782996 -1.61197e-24)
(8.40833 -0.786682 1.46414e-23)
(8.13582 -0.694072 0)
(8.11301 -0.689984 -1.09966e-24)
(8.4852 -0.811181 -4.22707e-23)
(8.47552 -0.803969 1.36652e-23)
(8.45927 -0.80639 -1.02004e-23)
(8.0386 -0.682314 1.53757e-25)
(8.08981 -0.689705 0)
(8.07461 -0.694354 6.09654e-25)
(7.95621 -0.674559 0)
(7.99219 -0.693367 0)
(7.7673 -0.614242 0)
(7.79675 -0.629508 0)
(7.8328 -0.664529 0)
(7.92932 -0.673199 0)
(7.87298 -0.682262 3.85907e-23)
(7.81625 -0.0678676 5.36381e-24)
(7.72766 -0.0293752 -3.70899e-23)
(7.665 -0.0548004 2.66347e-23)
(7.5713 -0.110057 -7.0135e-25)
(7.49636 -0.14736 -1.58167e-23)
(7.86627 -0.0982375 2.8331e-23)
(7.84134 -0.0912462 -1.88769e-23)
(7.50471 -0.23827 -4.74774e-23)
(7.48728 -0.19025 0)
(7.54606 -0.348596 0)
(7.57805 -0.398152 0)
(7.51082 -0.303406 2.04416e-24)
(7.59953 -0.463082 -1.02557e-23)
(7.63106 -0.519964 0)
(7.69004 -0.554169 5.38935e-24)
(7.70571 -0.603582 2.219e-23)
(8.48655 -0.00872609 0)
(8.55535 -0.0342823 0)
(8.00828 -0.0105391 -2.17406e-23)
(8.28278 -0.00743943 -1.20042e-23)
(7.86295 -0.0713323 1.13922e-23)
(8.01708 0.135259 1.27507e-22)
(8.4314 0.207166 9.14512e-23)
(8.47362 0.207513 9.63034e-23)
(8.43031 0.234206 -4.17311e-23)
(8.39193 0.192059 -3.39372e-24)
(8.55685 0.15395 -7.02907e-24)
(8.51885 0.19041 8.18039e-23)
(8.63814 0.0967233 -5.038e-23)
(8.62356 0.125644 1.8888e-24)
(8.44774 0.152974 -5.56993e-23)
(8.16091 -0.704699 -7.03781e-24)
(8.18682 -0.720612 0)
(8.21292 -0.728613 -6.15619e-24)
(8.3738 -0.779343 -2.76032e-23)
(8.3373 -0.775091 0)
(8.38661 -0.786777 0)
(8.29018 -0.770783 1.14219e-23)
(8.22929 -0.737021 -1.05806e-23)
(8.26026 -0.76954 -8.78373e-24)
(8.30749 -0.779878 6.19618e-24)
(8.43432 -0.801324 2.4431e-23)
(8.42178 -0.795056 -1.63915e-24)
(8.40519 -0.795296 -3.29833e-24)
(8.12399 -0.697249 0)
(8.14688 -0.704747 5.4442e-24)
(8.10118 -0.698486 0)
(8.47066 -0.827192 -4.29803e-23)
(8.44232 -0.813784 -3.37762e-23)
(8.03124 -0.700255 -8.95898e-25)
(8.07262 -0.711993 -5.58247e-24)
(7.96802 -0.695845 0)
(8.00727 -0.708289 0)
(7.74226 -0.640639 0)
(7.80186 -0.656941 0)
(7.84384 -0.687786 -5.89837e-25)
(7.91566 -0.69367 -2.24487e-23)
(7.88952 -0.697096 2.81205e-23)
(7.78182 -0.0483191 -6.47662e-25)
(7.6891 -0.0165452 -2.19556e-23)
(7.59858 -0.0542304 0)
(7.5465 -0.0617246 0)
(7.48149 -0.129733 -2.05446e-23)
(7.85112 -0.113966 0)
(7.83998 -0.111056 -1.29838e-23)
(7.486 -0.258681 0)
(7.45462 -0.194117 1.41604e-23)
(7.51206 -0.333798 0)
(7.54935 -0.381233 -2.29232e-24)
(7.56784 -0.436695 0)
(7.48875 -0.289396 0)
(7.59757 -0.499008 -1.10463e-23)
(7.63236 -0.559022 -1.3863e-23)
(7.66013 -0.572985 -1.40004e-23)
(7.66918 -0.600615 -1.80308e-23)
(7.71534 -0.629738 2.20527e-23)
(8.53973 -0.0453599 0)
(8.4259 -0.0511161 0)
(7.94673 -0.0382949 -2.19846e-23)
(8.19959 -0.0458345 -1.04696e-23)
(7.83957 -0.0749164 1.09213e-23)
(7.93875 0.155495 2.85501e-22)
(8.43688 0.226587 2.06106e-23)
(8.50573 0.208252 0)
(8.46167 0.226936 -7.11231e-23)
(8.42066 0.226848 -1.16996e-22)
(8.39996 0.246756 0)
(8.14621 0.144322 -5.13123e-26)
(8.42263 0.219917 -1.55452e-22)
(8.57549 0.172921 1.44995e-23)
(8.55561 0.192193 4.68056e-23)
(8.65717 0.10062 5.84129e-23)
(8.63156 0.149798 0)
(8.4664 0.110556 2.78277e-22)
(8.06842 0.140323 2.66855e-22)
(8.16505 -0.717572 0)
(8.1767 -0.72484 0)
(8.19909 -0.733919 0)
(8.36366 -0.798066 -6.451e-24)
(8.34836 -0.793744 -8.82228e-24)
(8.385 -0.802343 -2.76213e-25)
(8.27281 -0.783602 5.08808e-24)
(8.23532 -0.752047 9.13259e-24)
(8.24688 -0.768849 1.22639e-23)
(8.31575 -0.799558 -5.34817e-24)
(8.42771 -0.804012 -7.35185e-26)
(8.43226 -0.809754 2.33345e-23)
(8.41316 -0.802639 0)
(8.39339 -0.807838 -3.83634e-25)
(8.12209 -0.710751 0)
(8.14364 -0.716625 8.42937e-24)
(8.09963 -0.711964 0)
(8.4503 -0.834519 -5.48954e-23)
(8.4393 -0.824682 -3.38887e-23)
(8.04602 -0.714646 4.46998e-25)
(8.06312 -0.718235 -7.22712e-24)
(8.08921 -0.720014 0)
(7.95495 -0.718992 0)
(8.00612 -0.727979 0)
(7.75293 -0.680529 0)
(7.7853 -0.687415 0)
(7.84012 -0.713896 -1.62316e-23)
(7.92902 -0.718904 -1.16765e-23)
(7.8895 -0.728763 -1.82086e-23)
(7.79462 -0.0710283 0)
(7.70631 -0.0150746 7.50223e-24)
(7.65017 0.006194 1.69102e-23)
(7.59756 0.0129212 5.8792e-24)
(7.49794 -0.0511911 0)
(7.46366 -0.0843463 5.20419e-24)
(7.43958 -0.157511 -1.57117e-23)
(7.8364 -0.117462 -6.43523e-24)
(7.82434 -0.103249 1.15679e-23)
(7.45262 -0.260999 -3.5078e-23)
(7.44448 -0.213073 -7.20478e-24)
(7.47625 -0.353312 -3.06877e-23)
(7.50619 -0.40386 -1.99067e-24)
(7.52028 -0.465917 0)
(7.45253 -0.306394 0)
(7.56714 -0.516878 0)
(7.60467 -0.575989 -4.87218e-24)
(7.65824 -0.628656 0)
(7.68654 -0.656745 0)
(8.49352 -0.0727891 1.6716e-23)
(8.50284 -0.0408135 -7.81613e-25)
(8.03561 -0.0560102 -7.49652e-24)
(7.86482 -0.0613985 -5.35384e-24)
(8.29768 -0.0640758 -1.1012e-23)
(7.82615 -0.066913 1.37717e-23)
(7.83072 -0.102412 -1.84006e-23)
(8.42254 0.243137 0)
(8.52877 0.227612 0)
(8.48034 0.243597 0)
(8.37603 0.255425 8.57826e-23)
(8.39508 0.266362 -4.4961e-23)
(8.09035 0.232335 -3.40748e-26)
(8.41254 0.252014 0)
(8.61798 0.171794 1.45633e-23)
(8.57765 0.208388 4.65143e-23)
(8.65693 0.127794 1.57629e-23)
(8.64305 0.150321 0)
(8.341 0.0817382 0)
(8.006 0.0915789 -3.09713e-24)
(8.15521 -0.724518 0)
(8.18092 -0.740494 0)
(8.20371 -0.749034 -1.29033e-23)
(8.37199 -0.81077 -2.17956e-25)
(8.33305 -0.80871 -8.93411e-24)
(8.27696 -0.802061 1.12076e-23)
(8.22015 -0.759934 -1.77642e-23)
(8.23453 -0.783842 2.77921e-24)
(8.29472 -0.813503 0)
(8.42687 -0.806098 0)
(8.43048 -0.80751 -2.69749e-23)
(8.41479 -0.807038 -1.31688e-23)
(8.3929 -0.814977 2.93473e-24)
(8.11251 -0.717606 -8.32362e-25)
(8.13421 -0.71958 5.27408e-25)
(8.44851 -0.851618 -3.78206e-23)
(8.43985 -0.823224 -5.19333e-24)
(8.04188 -0.73128 0)
(8.06822 -0.73746 8.1758e-24)
(8.09012 -0.730628 -2.30932e-24)
(7.96943 -0.736697 0)
(7.99346 -0.740253 0)
(8.02648 -0.737841 0)
(7.73258 -0.707416 2.62817e-23)
(7.80595 -0.717279 0)
(7.86605 -0.736569 -1.18261e-23)
(7.91311 -0.741233 -1.84796e-23)
(7.76166 -0.0779428 1.84162e-24)
(7.71507 0.0318165 0)
(7.68973 0.0684463 5.53084e-23)
(7.50083 0.0476191 -8.87235e-25)
(7.45831 -0.00377816 -9.96829e-24)
(7.40293 -0.0903408 5.20327e-24)
(7.39297 -0.137933 -2.37395e-23)
(7.80496 -0.136064 2.08105e-23)
(7.7952 -0.131057 1.18649e-23)
(7.44798 -0.240258 -4.05859e-23)
(7.43272 -0.287574 0)
(7.39851 -0.221721 3.6617e-23)
(7.44984 -0.332705 -4.10601e-23)
(7.47943 -0.384571 -1.03427e-23)
(7.49331 -0.442755 -1.82455e-23)
(7.52452 -0.505852 0)
(7.57053 -0.555175 9.44837e-24)
(7.59573 -0.611126 0)
(7.62308 -0.638307 0)
(7.69451 -0.687596 -4.438e-24)
(8.51924 -0.0591824 1.3766e-23)
(8.38863 -0.0382301 2.02308e-23)
(7.97502 -0.0671615 0)
(7.87601 -0.0691291 -5.5803e-24)
(8.20434 -0.0744671 -2.70639e-24)
(7.80415 -0.0751006 -1.54586e-23)
(7.81287 -0.0928309 5.33322e-24)
(8.43659 0.267822 -1.07666e-25)
(8.51981 0.244635 0)
(8.56489 0.228511 0)
(8.48413 0.26281 2.61358e-23)
(8.37069 0.278994 9.31375e-24)
(8.35369 0.26456 1.71082e-23)
(8.41613 0.278555 -4.49963e-23)
(8.21127 0.240535 3.46294e-23)
(7.93324 0.188976 8.72335e-24)
(8.36517 0.223674 4.69089e-24)
(8.37518 0.274287 7.26416e-23)
(8.6258 0.192308 0)
(8.61554 0.211069 2.59747e-23)
(8.70146 0.100142 0)
(8.68549 0.141696 7.18025e-25)
(8.65329 0.175087 0)
(8.28284 0.0996327 -1.94012e-22)
(8.15722 -0.73705 -1.89217e-24)
(8.16971 -0.745353 0)
(8.19199 -0.753041 4.2644e-24)
(8.35786 -0.829854 1.25608e-25)
(8.32337 -0.828282 -1.77139e-23)
(8.25645 -0.815055 6.18226e-24)
(8.21744 -0.775572 -1.85083e-24)
(8.24165 -0.803249 0)
(8.2857 -0.827779 -4.3933e-24)
(8.4245 -0.812497 -1.51003e-23)
(8.43117 -0.808952 0)
(8.43794 -0.817016 -3.20071e-23)
(8.41014 -0.819449 2.18705e-24)
(8.3865 -0.834776 0)
(8.11683 -0.725173 -1.76744e-23)
(8.13474 -0.727207 -7.29733e-24)
(8.4464 -0.849602 -6.44163e-23)
(8.4444 -0.835216 -9.65158e-24)
(8.05806 -0.744223 0)
(8.08216 -0.741651 6.7667e-24)
(8.10501 -0.735706 0)
(7.96138 -0.760984 0)
(7.99878 -0.769576 -8.11931e-24)
(8.03101 -0.757727 0)
(7.74652 -0.741583 3.31404e-23)
(7.79976 -0.742368 0)
(7.86465 -0.766416 3.74214e-24)
(7.9316 -0.759438 0)
(7.73567 -0.0258659 3.82282e-24)
(7.74509 -0.118452 -2.85093e-23)
(7.7148 0.0870811 -4.07068e-24)
(7.61201 0.120416 1.72408e-23)
(7.51273 0.111053 0)
(7.37909 0.00147928 6.76406e-25)
(7.35146 -0.0498971 7.34839e-25)
(7.3727 -0.162733 -2.45753e-23)