/*--------------------------------*- C++ -*----------------------------------*\
| =========                 |                                                 |
| \\      /  F ield         | OpenFOAM: The Open Source CFD Toolbox           |
|  \\    /   O peration     | Version:  v2012                                 |
|   \\  /    A nd           | Website:  www.openfoam.com                      |
|    \\/     M anipulation  |                                                 |
\*---------------------------------------------------------------------------*/
FoamFile
{
    version     2.0;
    format      ascii;
    class       surfaceVectorField;
    location    "1.3";
    object      Uf;
}
// * * * * * * * * * * * * * * * * * * * * * * * * * * * * * * * * * * * * * //

dimensions      [0 1 -1 0 0 0 0];


internalField   nonuniform List<vector> 
21399
(
(8.55526 0.221655 -1.25109e-22)
(9.00384 -0.097961 -1.39539e-22)
(8.39647 -0.0872619 8.93776e-20)
(8.26681 0.092938 -6.35023e-22)
(9.18937 -0.411668 5.8364e-20)
(8.67148 -0.26167 2.03484e-21)
(8.87131 -0.287337 1.13286e-22)
(8.73764 -0.202104 1.71887e-22)
(8.61773 -0.202897 -3.13137e-22)
(8.13983 0.0344897 -5.60734e-22)
(8.30381 -0.00281865 1.78301e-20)
(8.80687 -0.0260297 -4.66034e-22)
(9.51697 -0.210519 -4.41391e-22)
(8.5634 -0.334476 3.43865e-22)
(8.75898 -0.137183 1.5569e-21)
(8.54616 -0.221825 -2.73696e-21)
(8.56678 -0.121374 -1.08823e-21)
(8.32737 0.136905 -2.10401e-21)
(8.67354 0.0174054 -8.0538e-23)
(8.55677 -0.0418684 -3.25351e-24)
(9.38946 -0.145787 -2.20009e-22)
(8.55041 -0.317804 -6.85685e-22)
(8.56652 -0.31525 -7.65143e-23)
(8.6631 -0.00780646 -9.49728e-22)
(8.55055 -0.284458 -5.1306e-23)
(8.50088 -0.210894 6.77388e-21)
(8.52994 -0.0410167 1.32437e-20)
(8.75948 -0.021578 1.15677e-21)
(8.20358 0.0639838 -5.4795e-20)
(8.38921 -0.0841002 -1.13355e-21)
(8.56976 -0.130043 0)
(9.27281 -0.0900519 -8.92587e-20)
(8.55788 -0.316995 5.28646e-24)
(8.55963 -0.329471 6.77444e-23)
(8.56153 -0.309926 -4.18917e-22)
(8.56657 -0.290322 -1.13283e-21)
(8.48899 -0.216005 8.33991e-22)
(8.48329 -0.176051 1.2759e-20)
(8.43284 -0.118881 -6.27115e-22)
(8.36686 -0.0921243 1.26284e-20)
(8.16274 -0.0536098 -1.75223e-21)
(8.46433 -0.140333 2.72472e-22)
(8.50152 -0.168854 5.03726e-22)
(9.19458 -0.112162 -1.09209e-22)
(8.56053 -0.295177 3.74812e-21)
(8.56146 -0.292574 -4.30795e-21)
(8.53606 -0.29994 4.78199e-22)
(8.56426 -0.27615 3.86437e-21)
(8.49757 -0.261212 4.19083e-22)
(8.45503 -0.246837 3.91265e-22)
(8.40203 -0.178861 -2.54076e-22)
(8.33432 -0.177205 3.25924e-22)
(8.30367 -0.124144 -1.50989e-22)
(8.09804 -0.0414177 -2.61089e-20)
(8.41888 -0.170186 1.92895e-20)
(9.24155 -0.127194 4.19606e-20)
(8.93901 -0.182326 -5.80701e-22)
(8.53442 -0.302315 2.01832e-22)
(8.54754 -0.322974 2.40097e-21)
(8.51435 -0.306948 2.17595e-21)
(8.50793 -0.319507 -8.83088e-21)
(8.47371 -0.277904 6.62802e-21)
(8.41368 -0.239059 0)
(8.40642 -0.294005 7.21458e-23)
(8.37084 -0.218698 -7.85479e-23)
(8.31481 -0.202501 5.75747e-21)
(8.28691 -0.211122 9.85213e-22)
(8.27308 -0.12276 3.39242e-22)
(8.06858 -0.0623197 2.00148e-21)
(8.27727 -0.136362 8.38862e-21)
(8.3834 -0.217964 4.91617e-22)
(9.13219 -0.129498 -7.28525e-22)
(8.63947 -0.199138 -7.21632e-22)
(8.50691 -0.330723 5.13083e-22)
(8.53119 -0.344258 -3.33276e-22)
(8.43821 -0.322551 -1.72034e-20)
(8.44617 -0.333179 3.97645e-21)
(8.40865 -0.30576 3.63598e-23)
(8.30924 -0.289281 4.57168e-21)
(8.37508 -0.273407 9.19128e-21)
(8.33558 -0.225471 7.53623e-23)
(8.3079 -0.282151 -2.43018e-22)
(8.29087 -0.253997 1.22657e-21)
(8.2951 -0.235906 7.43698e-23)
(8.24676 -0.239511 1.10175e-22)
(8.12742 -0.0801672 2.2106e-21)
(8.30614 -0.256474 9.00948e-22)
(8.91257 -0.162108 4.58566e-21)
(9.05405 -0.134481 -2.44346e-22)
(8.55326 -0.170497 -2.38074e-20)
(8.50788 -0.350627 1.88025e-22)
(8.48342 -0.360385 -8.04351e-22)
(8.51391 -0.364324 3.73558e-23)
(8.41381 -0.361277 -2.32358e-22)
(8.44285 -0.361556 -2.41956e-22)
(8.38281 -0.296349 -3.0949e-22)
(8.38338 -0.334194 -7.36981e-23)
(8.53199 -0.378843 3.69808e-22)
(8.29156 -0.300588 -5.46536e-21)
(8.29398 -0.319071 -1.01315e-21)
(8.34805 -0.314508 -2.50397e-22)
(8.26925 -0.316719 -2.51171e-21)
(8.25765 -0.270562 -4.71008e-22)
(8.25843 -0.296656 -3.91997e-22)
(8.2406 -0.263211 0)
(8.22638 -0.260931 0)
(8.22548 -0.111107 -2.13785e-20)
(8.08856 -0.0883326 3.85631e-22)
(8.20584 -0.209624 -3.67651e-22)
(8.27385 -0.281113 -2.77611e-21)
(8.88972 -0.207761 -9.99335e-23)
(8.46666 -0.192687 -7.18461e-22)
(8.45223 -0.374176 1.59655e-22)
(8.44246 -0.392379 1.08198e-22)
(8.4934 -0.387353 -7.35937e-22)
(8.38934 -0.361069 -9.83338e-24)
(8.38703 -0.389875 -4.48332e-23)
(8.42025 -0.400013 0)
(8.36069 -0.365069 -9.24359e-24)
(8.30972 -0.337128 0)
(8.28386 -0.345883 1.69571e-22)
(8.32847 -0.353993 0)
(8.25334 -0.319233 2.83298e-22)
(8.2558 -0.336577 4.28035e-22)
(8.22893 -0.287345 -1.41595e-22)
(8.23324 -0.316995 -5.325e-22)
(8.23124 -0.271167 -1.96302e-22)
(8.1959 -0.278055 0)
(8.06225 -0.156218 6.31319e-23)
(8.25174 -0.280667 9.20257e-22)
(8.61969 -0.264249 -1.09765e-20)
(8.76831 -0.196081 -1.05766e-22)
(8.38499 -0.243374 -7.76692e-23)
(8.43908 -0.417227 -5.41412e-23)
(8.40455 -0.42975 1.17428e-21)
(8.48755 -0.421856 -5.96521e-24)
(8.46433 -0.410143 1.47653e-24)
(8.38324 -0.413884 -4.20014e-23)
(8.35616 -0.417377 -6.84443e-22)
(8.37818 -0.427759 0)
(8.33877 -0.373815 0)
(8.32828 -0.39671 5.95149e-24)
(8.49284 -0.449498 -1.04885e-23)
(8.26249 -0.350432 4.34715e-22)
(8.27315 -0.369849 2.1859e-22)
(8.31094 -0.384286 0)
(8.24934 -0.345843 1.46206e-22)
(8.2237 -0.30698 -1.59247e-22)
(8.20902 -0.302564 -2.10907e-21)
(8.22186 -0.323414 -5.12059e-23)
(8.18655 -0.301876 0)
(8.16884 -0.292338 5.59603e-24)
(8.17619 -0.215969 5.78919e-23)
(8.04415 -0.170414 -2.42416e-20)
(8.23492 -0.249484 2.59574e-22)
(8.18679 -0.279108 -4.82336e-23)
(8.83453 -0.173407 0)
(8.59439 -0.16929 -3.38129e-23)
(8.32104 -0.287698 -2.73965e-23)
(8.45061 -0.448627 -3.50868e-24)
(8.36662 -0.445247 -4.28536e-23)
(8.38146 -0.468512 -8.24122e-23)
(8.31706 -0.424063 5.00531e-22)
(8.30621 -0.449601 1.03402e-21)
(8.33583 -0.456058 0)
(8.29606 -0.422443 1.28395e-23)
(8.49351 -0.470299 4.00178e-22)
(8.47299 -0.463522 6.36786e-23)
(8.49244 -0.494886 1.63601e-23)
(8.28553 -0.392898 3.80917e-23)
(8.26486 -0.391218 1.24027e-21)
(8.28836 -0.410636 6.35271e-24)
(8.24383 -0.362159 0)
(8.23631 -0.345486 0)
(8.19472 -0.314579 -1.90366e-22)
(8.19716 -0.325589 -3.23847e-22)
(8.21981 -0.340415 -3.06645e-24)
(8.20615 -0.332963 4.32333e-23)
(8.17223 -0.331705 4.97301e-23)
(8.14959 -0.29259 1.40283e-23)
(8.1481 -0.315456 6.58844e-23)
(8.12202 -0.183965 8.30599e-23)
(8.03974 -0.18569 1.33475e-22)
(8.19435 -0.205903 3.51707e-23)
(8.13086 -0.293371 -1.11418e-23)
(8.76648 -0.250929 -2.55492e-24)
(8.38027 -0.25619 2.41816e-20)
(8.39998 -0.179663 -2.862e-23)
(8.23449 -0.284196 4.48768e-23)
(8.44711 -0.474069 -3.40953e-24)
(8.36422 -0.497413 -3.06271e-23)
(8.40002 -0.493028 2.21869e-21)
(8.31191 -0.46052 -1.78585e-23)
(8.27993 -0.466699 -2.61599e-23)
(8.32055 -0.479331 0)
(8.2668 -0.434615 1.54414e-21)
(8.47227 -0.513304 6.7463e-23)
(8.49385 -0.522185 7.41294e-24)
(8.24632 -0.382966 4.25254e-23)
(8.23506 -0.406736 2.63003e-23)
(8.22298 -0.384123 -7.00762e-24)
(8.20264 -0.361629 -3.48228e-23)
(8.17842 -0.34961 5.15834e-23)
(8.14984 -0.335862 6.45101e-22)
(8.1484 -0.350308 3.93118e-23)
(8.12692 -0.339085 4.88813e-23)
(8.13255 -0.258509 -4.26372e-21)
(8.07326 -0.215908 1.31576e-22)
(8.17428 -0.204783 1.47176e-23)
(8.14039 -0.227056 2.49088e-21)
(8.10175 -0.325157 -7.71148e-22)
(8.10273 -0.291124 -3.59975e-22)
(8.80847 -0.235111 7.32799e-20)
(8.63909 -0.20044 -2.49496e-24)
(8.33946 -0.171457 0)
(8.26823 -0.219377 0)
(8.23418 -0.269578 6.24383e-23)
(8.42511 -0.496096 -3.62184e-23)
(8.44961 -0.506487 1.02351e-23)
(8.34279 -0.504418 1.99039e-24)
(8.35823 -0.524248 5.72967e-23)
(8.40776 -0.524989 -1.84808e-23)
(8.26283 -0.480887 -2.27017e-22)
(8.28371 -0.492926 -1.21637e-24)
(8.32532 -0.496208 2.83097e-24)
(8.30435 -0.495858 5.52322e-24)
(8.23849 -0.441861 -5.86823e-23)
(8.24108 -0.453606 3.88404e-23)
(8.45298 -0.53376 7.1863e-24)
(8.49377 -0.546993 0)
(8.22397 -0.432362 2.72645e-22)
(8.19919 -0.422324 -5.63142e-22)
(8.19833 -0.384755 -3.40611e-23)
(8.19392 -0.407644 3.73735e-23)
(8.17356 -0.382142 -5.82317e-22)
(8.14632 -0.364631 -3.72538e-22)
(8.14862 -0.373246 1.18473e-21)
(8.14068 -0.362503 3.07931e-23)
(8.11464 -0.370053 -1.02619e-23)
(8.10557 -0.344329 -1.39133e-23)
(8.09533 -0.364112 1.35117e-22)
(8.11038 -0.202935 7.0828e-23)
(8.09578 -0.229023 -1.75859e-20)
(8.14893 -0.224206 0)
(8.09397 -0.264193 -8.23097e-24)
(8.06276 -0.241571 -5.33619e-21)
(8.07721 -0.34794 -1.30069e-23)
(8.05761 -0.292998 5.71996e-24)
(8.69048 -0.211911 -4.47007e-20)
(8.37646 -0.15516 -2.98492e-24)
(8.19243 -0.232478 5.03707e-23)
(8.32409 -0.519979 9.39837e-23)
(8.36988 -0.543546 2.06976e-23)
(8.34848 -0.545546 1.44261e-24)
(8.39105 -0.544997 4.37862e-22)
(8.41469 -0.548273 4.46111e-22)
(8.24248 -0.471965 -1.94817e-23)
(8.25019 -0.498801 -4.94609e-24)
(8.29109 -0.511382 -2.12384e-22)
(8.20873 -0.451924 -2.49784e-23)
(8.21709 -0.470363 -1.2453e-23)
(8.43448 -0.5534 -2.51984e-23)
(8.45538 -0.559454 1.15895e-23)
(8.47608 -0.564775 -1.29312e-23)
(8.49444 -0.568575 0)
(8.18232 -0.422786 -8.71622e-24)
(8.17122 -0.441088 3.33806e-22)
(8.16672 -0.422884 -3.75678e-22)
(8.15047 -0.389781 4.31542e-23)
(8.15253 -0.411695 -5.90098e-23)
(8.11074 -0.383488 -7.10334e-22)
(8.11621 -0.401318 -1.00037e-22)
(8.08474 -0.382276 3.89167e-22)
(8.07466 -0.394749 6.5846e-22)
(8.06265 -0.391779 -8.0258e-24)
(8.142 -0.217594 -3.20219e-21)
(8.11918 -0.228651 3.75053e-23)
(8.07509 -0.246661 2.28217e-23)
(8.03279 -0.251946 2.13427e-21)
(8.01476 -0.26969 -2.60443e-22)
(8.05181 -0.345867 -2.20813e-23)
(8.05325 -0.37261 -2.89211e-22)
(8.01873 -0.295415 -3.75742e-23)
(8.03283 -0.32297 1.8293e-21)
(8.61135 -0.169591 -1.16703e-21)
(8.72757 -0.189427 4.21855e-20)
(8.39348 -0.133603 6.27863e-21)
(8.24254 -0.150945 -6.69778e-24)
(8.3253 -0.546184 -8.93721e-22)
(8.3085 -0.538198 4.76864e-24)
(8.3783 -0.566784 -2.95829e-22)
(8.3348 -0.563492 1.44442e-23)
(8.41713 -0.573583 4.33236e-23)
(8.24161 -0.512069 0)
(8.26146 -0.51741 -1.83617e-24)
(8.29554 -0.527925 1.85838e-24)
(8.27803 -0.522315 2.76676e-22)
(8.19514 -0.471558 -6.47774e-25)
(8.17996 -0.467469 -6.41038e-22)
(8.20558 -0.488146 -1.06259e-23)
(8.45781 -0.583329 -1.01195e-22)
(8.49956 -0.589288 -1.88061e-23)
(8.16205 -0.461203 -2.32976e-23)
(8.14413 -0.45784 -2.17028e-22)
(8.13831 -0.430385 -7.27033e-22)
(8.07523 -0.397931 -2.55062e-24)
(8.07926 -0.401103 -2.96421e-22)
(8.08325 -0.41145 4.85094e-23)
(8.08664 -0.430367 2.88135e-23)
(8.03679 -0.414067 1.50309e-23)
(8.04833 -0.390935 -1.40139e-23)
(8.0275 -0.415333 1.16631e-21)
(8.15689 -0.183448 -1.05785e-23)
(8.11408 -0.194348 3.04982e-23)
(8.11211 -0.197534 3.23852e-21)
(8.09225 -0.210439 3.26395e-23)
(8.00785 -0.265715 1.23395e-22)
(7.98151 -0.294024 -5.14635e-24)
(8.01224 -0.345784 -1.74418e-21)
(8.02396 -0.388099 1.06287e-25)
(8.43707 -0.145699 -9.85537e-24)
(8.63401 -0.16281 2.78005e-23)
(8.14994 -0.149675 2.6192e-21)
(8.29458 -0.550261 -6.19521e-24)
(8.36494 -0.579822 8.23733e-24)
(8.38503 -0.583438 1.31155e-23)
(8.34866 -0.57976 -2.69938e-22)
(8.32598 -0.579955 7.68189e-23)
(8.3998 -0.591797 1.65176e-22)
(8.41925 -0.597886 -1.26838e-23)
(8.22328 -0.508624 -9.59882e-24)
(8.23342 -0.528351 -3.96482e-24)
(8.26878 -0.53619 -8.55489e-24)
(8.1589 -0.482189 -2.63791e-22)
(8.19863 -0.506379 -6.70864e-22)
(8.44055 -0.601714 -1.62001e-23)
(8.46197 -0.606172 -7.85447e-23)
(8.48331 -0.610807 -1.20811e-22)
(8.12703 -0.454446 -7.10008e-24)
(8.12401 -0.473529 -1.27398e-23)
(8.10955 -0.448672 3.0798e-22)
(8.04755 -0.425789 6.79324e-22)
(8.09297 -0.446317 -8.72328e-22)
(8.06395 -0.451379 -8.5707e-24)
(8.00212 -0.430488 3.67821e-22)
(8.00762 -0.436668 -2.74857e-22)
(7.99659 -0.42845 -1.52607e-23)
(7.9916 -0.421776 -1.5055e-23)
(8.09986 -0.169001 5.03456e-23)
(8.0651 -0.185932 -2.28425e-24)
(8.02571 -0.224027 -5.31472e-23)
(7.99399 -0.252319 -1.4763e-21)
(7.97743 -0.274911 -4.16589e-23)
(7.95322 -0.293054 -1.08566e-23)
(7.95524 -0.315899 -5.9211e-23)
(7.9996 -0.378604 2.76539e-25)
(7.98328 -0.358135 -5.48117e-24)
(7.99563 -0.402085 0)
(8.43208 -0.154296 -2.16175e-24)
(8.29341 -0.164969 2.54332e-22)
(8.56574 -0.141708 5.44936e-24)
(8.64561 -0.164446 0)
(8.10888 -0.143032 -1.63253e-23)
(8.15623 -0.149868 -2.40503e-21)
(8.27419 -0.552146 7.35715e-22)
(8.28553 -0.56422 -1.04369e-23)
(8.35578 -0.59659 1.52564e-23)
(8.38484 -0.60762 6.56722e-24)
(8.31995 -0.599933 8.42059e-24)
(8.31024 -0.587249 9.85717e-24)
(8.42215 -0.61966 1.49177e-23)
(8.24218 -0.545306 -2.97716e-24)
(8.22283 -0.543448 -2.53019e-22)
(8.25897 -0.549674 -6.34035e-24)
(8.13999 -0.497819 -3.89771e-23)
(8.16292 -0.505418 4.74965e-23)
(8.18181 -0.511778 -2.74638e-24)
(8.19436 -0.526864 -8.61649e-24)
(8.46542 -0.629286 -9.31644e-24)
(8.12501 -0.490302 -1.77236e-23)
(8.10501 -0.488616 -1.98086e-22)
(8.08995 -0.472613 -3.30914e-23)
(8.01695 -0.442011 -1.82326e-23)
(8.02709 -0.453395 2.5474e-25)
(8.04071 -0.463918 -2.82092e-23)
(8.05342 -0.48073 -4.03897e-23)
(7.99362 -0.430844 5.99612e-24)
(7.97079 -0.449372 4.69895e-24)
(7.98703 -0.460613 1.38608e-22)
(7.96207 -0.439418 -1.98293e-23)
(7.96836 -0.420104 -8.81608e-24)
(8.09577 -0.135021 2.57618e-21)
(8.06043 -0.148879 -5.56344e-24)
(8.00585 -0.166996 -9.77006e-22)
(7.97066 -0.219771 3.60196e-21)
(7.95799 -0.281128 -1.60025e-24)
(7.95518 -0.267041 0)
(7.92509 -0.286912 -9.52581e-22)
(7.95685 -0.342105 -1.45869e-22)
(7.92834 -0.331001 -1.38299e-21)
(7.94677 -0.37872 -9.92016e-24)
(8.40446 -0.13972 5.55703e-21)
(8.17653 -0.16197 -3.96867e-23)
(8.5261 -0.223515 0)
(8.29513 -0.581778 -3.73056e-24)
(8.27295 -0.579155 -3.58798e-23)
(8.36248 -0.612016 1.40319e-23)
(8.34599 -0.612863 1.64405e-22)
(8.37641 -0.624408 -1.35174e-23)
(8.32854 -0.614158 1.27845e-22)
(8.31233 -0.61747 -1.1468e-23)
(8.29412 -0.602683 -5.46134e-24)
(8.40822 -0.639683 3.86857e-23)
(8.43038 -0.641279 2.04486e-23)
(8.24724 -0.562801 1.74634e-23)
(8.20453 -0.543642 -3.37579e-24)
(8.21159 -0.560342 -3.49335e-24)
(8.12277 -0.512638 5.68448e-22)
(8.16389 -0.526194 -1.94505e-23)
(8.18632 -0.545604 -9.19557e-25)
(8.44754 -0.641606 4.9205e-22)
(8.47127 -0.647054 6.9235e-24)
(8.08583 -0.493347 -1.52111e-22)
(8.08869 -0.508712 -1.26715e-23)
(8.07011 -0.493321 -2.96216e-23)
(8.01186 -0.48055 3.9619e-22)
(8.04554 -0.506664 -4.79221e-22)
(7.94036 -0.461501 -1.98907e-23)
(7.95 -0.466999 -1.17771e-23)
(7.95916 -0.476014 -8.8828e-23)
(7.97272 -0.488261 1.27287e-23)
(7.93409 -0.457142 4.84264e-22)
(7.93215 -0.449965 -2.21942e-22)
(7.94353 -0.408678 -4.95282e-22)
(7.93253 -0.433856 6.23069e-22)
(8.08183 -0.116058 -1.07294e-22)
(8.10593 -0.113176 1.11105e-23)
(8.04283 -0.108565 -3.34805e-24)
(7.96054 -0.190288 -4.80982e-23)
(7.95762 -0.167127 -1.8769e-21)
(7.95223 -0.215675 -1.3861e-24)
(7.94589 -0.244616 2.00064e-23)
(7.92297 -0.258242 -8.55917e-24)
(7.89927 -0.273714 -2.90053e-23)
(7.89783 -0.293119 3.874e-22)
(7.90307 -0.318441 -1.25992e-23)
(7.89275 -0.347701 1.52267e-21)
(7.91239 -0.396187 -3.81552e-24)
(8.23261 -0.147291 -5.40744e-24)
(8.32561 -0.149665 -1.54754e-24)
(8.14446 -0.130269 -5.68536e-21)
(8.4297 -0.210942 -3.92904e-24)
(8.51223 -0.187651 0)
(8.25364 -0.578133 -3.85066e-22)
(8.2596 -0.595677 -1.00505e-24)
(8.3388 -0.63 9.72039e-24)
(8.38848 -0.640571 2.55893e-22)
(8.36791 -0.642641 -4.69712e-22)
(8.29376 -0.620353 5.61017e-22)
(8.30387 -0.633152 4.85155e-23)
(8.27991 -0.617596 -1.21037e-23)
(8.40453 -0.66172 3.48406e-22)
(8.44209 -0.658856 6.34074e-24)
(8.23574 -0.577158 8.85058e-24)
(8.21771 -0.575935 0)
(8.19897 -0.576879 0)
(8.10107 -0.520617 -8.81009e-24)
(8.11769 -0.532004 -7.97568e-24)
(8.16816 -0.544676 -9.47676e-25)
(8.14981 -0.542334 0)
(8.17434 -0.560394 -2.05685e-23)
(8.48801 -0.660223 2.31844e-23)
(8.47532 -0.669267 0)
(8.50445 -0.677414 -1.28319e-23)
(8.07774 -0.528462 0)
(7.98588 -0.496064 5.3266e-24)
(8.00123 -0.506343 2.35982e-22)
(8.01643 -0.518692 2.84467e-24)
(8.03815 -0.531851 1.66612e-24)
(7.91127 -0.473087 2.0472e-25)
(7.93268 -0.489876 -1.08178e-22)
(7.96093 -0.511313 6.34666e-24)
(7.92406 -0.444031 -2.91811e-24)
(7.90032 -0.462982 2.21232e-24)
(7.90121 -0.443369 -1.20271e-23)
(8.13339 -0.106598 1.18225e-20)
(7.97252 -0.114121 -3.47349e-23)
(8.02053 -0.0949904 0)
(7.94152 -0.145502 -5.03825e-23)
(7.92952 -0.173879 -3.89208e-23)
(7.93297 -0.215618 9.56522e-22)
(7.88231 -0.260835 -3.86983e-21)
(7.85977 -0.307105 -1.54702e-21)
(7.87841 -0.382291 8.51993e-24)
(7.84987 -0.362244 8.37399e-24)
(7.87383 -0.41621 5.43423e-26)
(8.33678 -0.16164 9.07127e-21)
(8.5665 -0.150918 -3.27867e-23)
(8.47301 -0.100478 6.78438e-24)
(8.26403 -0.612319 -6.35693e-22)
(8.24504 -0.609896 3.27958e-22)
(8.35121 -0.645135 -1.86248e-23)
(8.3347 -0.64711 -4.78047e-24)
(8.36804 -0.660469 -1.274e-23)
(8.31816 -0.645703 -1.614e-22)
(8.2999 -0.645825 9.98557e-22)
(8.26746 -0.629865 -6.88905e-24)
(8.41664 -0.674109 1.7649e-21)
(8.39894 -0.672465 4.2758e-22)
(8.4587 -0.671551 0)
(8.44034 -0.673982 0)
(8.22243 -0.59306 -1.24625e-23)
(8.18051 -0.577401 -8.64727e-25)
(8.18746 -0.593297 0)
(8.13272 -0.544288 0)
(8.10929 -0.553853 0)
(8.13844 -0.562617 -1.32782e-23)
(8.16193 -0.577323 -1.23283e-23)
(8.47291 -0.684538 0)
(8.50255 -0.69712 -2.22869e-22)
(8.07457 -0.55541 0)
(8.05894 -0.538119 0)
(7.99135 -0.528861 9.01031e-24)
(8.0521 -0.534316 8.25594e-24)
(8.02933 -0.542922 -1.00999e-21)
(7.8838 -0.483518 -1.15508e-22)
(7.89443 -0.492724 -1.04164e-22)
(7.90716 -0.501911 1.51218e-23)
(7.92254 -0.515401 -2.37411e-24)
(7.93752 -0.526868 1.10733e-22)
(7.95234 -0.535108 -3.38683e-24)
(7.87631 -0.476407 -2.68036e-24)
(7.87051 -0.468811 -7.08531e-24)
(7.87696 -0.441395 4.23459e-23)
(7.87064 -0.459049 2.38438e-22)
(8.076 -0.0931926 9.06567e-24)
(8.13741 -0.0918836 1.6916e-23)
(7.91145 -0.127934 6.16068e-21)
(8.01821 -0.0908616 1.10392e-24)
(7.91698 -0.196515 6.13276e-24)
(7.89457 -0.185898 -1.22684e-21)
(7.88635 -0.216422 3.31547e-23)
(7.85394 -0.23994 -1.03423e-21)
(7.82389 -0.262089 2.47699e-24)
(7.82513 -0.3383 -1.23267e-24)
(7.81851 -0.309711 -1.28573e-24)
(7.80662 -0.366693 4.78003e-24)
(7.83872 -0.434722 -8.15784e-22)
(8.37245 -0.112216 -5.64223e-21)
(8.28553 -0.125357 -2.11396e-25)
(8.51528 -0.210811 -5.66823e-20)
(8.39956 -0.0761148 2.29147e-24)
(8.22843 -0.609007 -2.32132e-22)
(8.23461 -0.624148 -1.91132e-23)
(8.33051 -0.66128 -2.55571e-24)
(8.38621 -0.672465 7.06044e-24)
(8.36796 -0.675933 0)
(8.28826 -0.653412 4.86225e-23)
(8.30449 -0.665073 1.87817e-23)
(8.27217 -0.64467 -1.98591e-25)
(8.25591 -0.639952 -1.06233e-23)
(8.42931 -0.685275 2.14206e-23)
(8.41778 -0.696464 -7.36478e-22)
(8.39501 -0.686898 1.17467e-24)
(8.44471 -0.698261 0)
(8.21025 -0.608472 -1.18076e-22)
(8.19422 -0.608007 -4.70174e-24)
(8.17664 -0.608621 0)
(8.09114 -0.568644 0)
(8.10455 -0.580634 -3.37622e-25)
(8.14326 -0.577685 6.18066e-24)
(8.12548 -0.580773 -3.34699e-22)
(8.15013 -0.59428 -1.11854e-23)
(8.4822 -0.701694 1.05899e-23)
(8.46568 -0.703005 0)
(8.49566 -0.717324 3.99078e-23)
(8.07381 -0.580458 0)
(8.04494 -0.556354 -6.9346e-24)
(7.96904 -0.537191 3.59124e-23)
(7.98336 -0.546271 -2.95588e-24)
(8.0254 -0.562957 7.54302e-22)
(8.01311 -0.561846 1.53548e-23)
(7.85619 -0.49313 6.71137e-25)
(7.88284 -0.514222 5.63585e-23)
(7.91473 -0.539469 6.52653e-24)
(7.94982 -0.550386 2.65701e-23)
(7.84223 -0.47284 -2.49518e-24)
(8.19976 -0.102848 5.23614e-24)
(8.10782 -0.0791705 -1.72963e-21)
(7.88131 -0.125294 -3.21763e-23)
(7.8736 -0.154622 -1.22375e-24)
(8.02136 -0.0852877 -6.90694e-24)
(7.95577 -0.0999741 -1.36445e-21)
(7.864 -0.178379 -1.75368e-22)
(7.83061 -0.198655 -4.43646e-22)
(7.82731 -0.225232 1.06708e-23)
(7.81063 -0.28465 0)
(7.77183 -0.266206 2.35322e-23)
(7.77685 -0.314582 0)
(7.77084 -0.369148 -2.31418e-21)
(7.79907 -0.397747 -7.11713e-24)
(7.80838 -0.430793 -1.11042e-22)
(7.80765 -0.458987 -3.22955e-24)
(8.25522 -0.112189 -4.17405e-21)
(8.52068 -0.140157 1.75168e-23)
(8.55477 -0.161068 1.72879e-23)
(8.4049 -0.0837135 -4.62087e-24)
(8.34552 -0.0894501 4.19402e-21)
(8.2418 -0.636192 -2.63674e-22)
(8.2247 -0.635881 -2.20602e-22)
(8.32231 -0.671684 5.13262e-23)
(8.33986 -0.677107 -1.29108e-24)
(8.35629 -0.685411 0)
(8.36971 -0.696012 5.04539e-24)
(8.27581 -0.663705 1.34e-23)
(8.31083 -0.680428 1.51509e-22)
(8.24548 -0.652481 -2.21909e-23)
(8.40003 -0.701638 3.42619e-24)
(8.41453 -0.711837 7.20678e-24)
(8.38716 -0.702216 2.78659e-22)
(8.45222 -0.715102 0)
(8.20119 -0.62287 -2.22092e-23)
(8.15882 -0.609489 0)
(8.16863 -0.62437 -1.1699e-23)
(8.11158 -0.595764 -3.40563e-25)
(8.1406 -0.60962 9.60555e-25)
(8.50839 -0.732128 2.76592e-23)
(8.48738 -0.732782 5.6612e-22)
(8.0561 -0.594121 -1.45255e-23)
(8.07434 -0.606008 0)
(8.03998 -0.575408 -1.74783e-23)
(7.99202 -0.56615 0)
(7.97371 -0.568806 -4.52184e-24)
(8.00648 -0.590525 0)
(7.83103 -0.50266 1.48819e-22)
(7.84492 -0.514443 8.2095e-25)
(7.86042 -0.524572 -4.91897e-24)
(7.87749 -0.53725 -4.18809e-24)
(7.89328 -0.549069 -1.65893e-24)
(7.90847 -0.561186 3.7439e-24)
(7.9563 -0.565591 1.71055e-24)
(7.93761 -0.563299 -7.94055e-22)
(7.81399 -0.477036 4.85515e-22)
(7.81931 -0.492844 1.1283e-23)
(8.05401 -0.0796712 1.25563e-25)
(8.09633 -0.0822463 1.48119e-23)
(7.89355 -0.108959 1.26178e-24)
(7.84312 -0.121524 0)
(7.82776 -0.173883 8.33792e-22)
(7.99848 -0.0899059 2.82182e-22)
(7.90007 -0.106684 -2.28753e-24)
(7.79985 -0.216202 -8.78889e-24)
(7.76458 -0.207451 -9.01957e-24)
(7.75449 -0.233286 1.54119e-23)
(7.73167 -0.293433 -1.50333e-21)
(7.73475 -0.266347 5.41556e-22)
(7.73664 -0.311565 1.2845e-23)
(7.74384 -0.329893 0)
(7.74672 -0.358018 -9.95074e-25)
(7.7438 -0.392998 4.37401e-22)
(7.77824 -0.429541 3.63057e-22)
(7.78633 -0.479503 1.2675e-23)
(8.27377 -0.104731 -3.54539e-24)
(8.18536 -0.094034 1.21443e-21)
(8.47716 -0.0647901 -5.97415e-24)
(8.46927 -0.0956703 -1.6888e-24)
(8.28149 -0.0869232 -2.96255e-23)
(8.46815 0.128346 0)
(8.52043 0.127411 2.54191e-23)
(8.34326 -0.0710268 1.0439e-23)
(8.5514 0.0335719 -3.83208e-23)
(8.20916 -0.638666 -7.06969e-24)
(8.21858 -0.651729 -2.64116e-24)
(8.34459 -0.697188 0)
(8.37584 -0.711072 6.15108e-23)
(8.2811 -0.681103 5.63521e-23)
(8.2645 -0.67298 2.17349e-24)
(8.29805 -0.690216 -8.68785e-24)
(8.31693 -0.699283 5.07131e-22)
(8.23185 -0.661444 -1.09251e-23)
(8.24672 -0.667705 4.05433e-23)
(8.42869 -0.723338 -4.5125e-22)
(8.41089 -0.726398 -1.29917e-23)
(8.4407 -0.726649 -3.64042e-24)
(8.45937 -0.733001 -4.28239e-24)
(8.19279 -0.638856 2.84645e-22)
(8.17657 -0.637726 -1.96361e-22)
(8.15981 -0.637874 -2.16561e-22)
(8.124 -0.610697 1.03617e-24)
(8.10557 -0.60986 0)
(8.13432 -0.624777 -1.81306e-23)
(8.47249 -0.738621 1.61503e-23)
(8.4797 -0.748356 2.8138e-24)
(8.0398 -0.603816 9.80701e-23)
(8.09225 -0.612343 0)
(8.07603 -0.621364 0)
(7.96484 -0.582912 7.94563e-23)
(8.02202 -0.605094 -3.65181e-23)
(8.00145 -0.608726 0)
(7.80522 -0.510668 4.35197e-22)
(7.83792 -0.535161 1.93458e-22)
(7.87138 -0.561288 -3.3262e-23)
(7.92331 -0.571263 5.4359e-24)
(7.90126 -0.583289 4.10172e-22)
(7.93481 -0.584895 1.94189e-24)
(8.10738 -0.092985 7.66104e-21)
(7.81357 -0.107386 0)
(7.80558 -0.136401 0)
(7.79474 -0.164336 1.8067e-23)
(7.76155 -0.184709 -7.91619e-24)
(7.92485 -0.103355 -1.93073e-23)
(7.9598 -0.0986995 1.08324e-21)
(7.8744 -0.102317 6.15515e-22)
(7.72529 -0.200816 -2.24781e-23)
(7.68969 -0.213368 4.00679e-24)
(7.72089 -0.248426 2.25336e-23)
(7.69612 -0.234017 -1.33204e-21)
(7.70033 -0.310105 2.90231e-22)
(7.68115 -0.27266 2.30296e-23)
(7.709 -0.352107 0)
(7.74759 -0.421935 -6.50138e-24)
(7.71995 -0.413046 -6.02877e-24)
(7.75519 -0.450478 5.59987e-24)
(7.76181 -0.47866 2.20211e-22)
(7.77065 -0.502022 6.84745e-24)
(8.49905 -0.0717401 4.73607e-21)
(8.48317 -0.0588786 -2.89013e-25)
(8.48756 -0.0695879 -1.84965e-24)
(8.27608 -0.0627505 3.99482e-21)
(8.18454 -0.0787962 1.64349e-24)
(8.36073 0.146937 4.18177e-23)
(8.50792 0.141288 1.05444e-22)
(8.51276 0.143744 9.81573e-23)
(8.4837 0.116502 1.48776e-24)
(8.18063 -0.040502 -4.35135e-20)
(8.54924 0.0434448 -3.91302e-23)
(8.21413 -0.666836 8.69052e-26)
(8.33324 -0.70831 1.37569e-23)
(8.34966 -0.715395 0)
(8.36665 -0.720445 -5.18816e-24)
(8.38397 -0.725574 -5.09996e-22)
(8.28429 -0.700304 1.23628e-23)
(8.2498 -0.684067 -1.1688e-23)
(8.31908 -0.717633 2.22111e-23)
(8.43277 -0.73955 -1.78546e-23)
(8.399 -0.733909 -2.42189e-23)
(8.40989 -0.743957 1.74173e-22)
(8.45966 -0.749421 -3.3752e-23)
(8.18067 -0.652838 -8.19134e-23)
(8.14464 -0.638123 -1.5218e-22)
(8.14912 -0.650959 -5.30003e-24)
(8.10239 -0.625035 5.21626e-24)
(8.12772 -0.639622 1.51824e-24)
(8.48702 -0.759226 -6.5606e-25)
(8.47269 -0.761975 -2.19441e-23)
(8.03238 -0.621213 2.23657e-22)
(8.08204 -0.636576 -6.31906e-24)
(8.06499 -0.633412 -4.21317e-24)
(7.94999 -0.593271 -8.14303e-24)
(7.96972 -0.60225 -3.04242e-24)
(7.98664 -0.617344 6.23366e-24)
(7.99833 -0.629103 0)
(7.78207 -0.519916 1.95563e-24)
(7.79752 -0.535567 6.7705e-24)
(7.81753 -0.543326 2.80737e-24)
(7.83533 -0.555228 1.67106e-24)
(7.84933 -0.570174 -1.09139e-24)
(7.86631 -0.584492 -1.17129e-24)
(7.88274 -0.59674 2.04324e-23)
(7.89825 -0.606935 -5.21269e-22)
(7.93445 -0.60235 1.61895e-23)
(8.01773 -0.0931706 -1.77401e-21)
(8.08948 -0.0895563 -6.74602e-24)
(7.83577 -0.0938174 -2.46525e-24)
(7.80401 -0.0837612 -2.89535e-24)
(7.76852 -0.141425 0)
(7.70108 -0.185328 -1.50969e-21)
(7.94444 -0.0944204 -1.13598e-23)
(7.86176 -0.0910083 -2.9907e-24)
(7.67564 -0.224831 1.78621e-23)
(7.63565 -0.214252 -1.42867e-21)
(7.64755 -0.243143 2.60816e-23)
(7.66586 -0.311339 9.15524e-22)
(7.6728 -0.328009 9.34186e-24)
(7.6497 -0.29666 -8.23671e-22)
(7.63532 -0.277445 2.57701e-23)
(7.6744 -0.349948 0)
(7.68252 -0.379225 3.93978e-25)
(7.6912 -0.408081 3.72357e-25)
(7.69834 -0.437112 0)
(7.73436 -0.472333 6.48907e-24)
(7.75631 -0.525179 0)
(8.3854 -0.0421125 3.27559e-21)
(8.47579 -0.0278865 7.55379e-24)
(8.46125 -0.0506752 4.50338e-24)
(8.25801 -0.017604 -2.19352e-21)
(8.08731 -0.0681328 7.35155e-22)
(8.20009 0.0912393 1.24453e-23)
(8.28936 0.151022 1.20038e-20)
(8.48776 0.138068 4.02209e-23)
(8.48567 0.156406 2.14896e-22)
(8.40575 0.148928 1.29809e-22)
(8.50383 0.163621 -4.32852e-21)
(8.48085 0.136155 0)
(8.06881 0.0300845 2.12031e-20)
(8.32897 0.0192754 -8.94114e-23)
(8.58696 0.0516058 -1.18041e-20)
(8.1973 -0.674099 -1.25208e-23)
(8.21286 -0.685126 -3.6802e-24)
(8.35406 -0.732339 0)
(8.38535 -0.744465 -1.50677e-23)
(8.28916 -0.721524 -1.38812e-24)
(8.27074 -0.711683 -7.75705e-24)
(8.25578 -0.701905 -7.69498e-24)
(8.23728 -0.693381 -2.28405e-24)
(8.30458 -0.725038 7.55503e-24)
(8.3195 -0.730091 2.10143e-22)
(8.4219 -0.751029 -3.42209e-23)
(8.43454 -0.755453 -2.45104e-22)
(8.41014 -0.759177 -1.72442e-23)
(8.45886 -0.764365 -2.42982e-23)
(8.44855 -0.761669 1.38467e-22)
(8.18405 -0.666985 -4.81566e-22)
(8.16773 -0.663094 -7.02449e-24)
(8.15517 -0.660014 0)
(8.14035 -0.661323 0)
(8.11186 -0.641674 -7.28304e-23)
(8.09684 -0.641282 -2.12759e-24)
(8.11993 -0.65485 4.86636e-24)
(8.49469 -0.772276 1.90703e-23)
(8.46707 -0.77471 8.11074e-23)
(8.01577 -0.630091 -9.42546e-24)
(8.03631 -0.630387 -1.25773e-23)
(8.08731 -0.652769 -4.08047e-25)
(8.05138 -0.639426 2.4641e-22)
(8.06008 -0.654723 -3.86467e-24)
(7.96782 -0.626502 -5.46949e-23)
(7.99833 -0.639846 0)
(7.79614 -0.554943 3.5024e-23)
(7.82739 -0.578737 0)
(7.85992 -0.609162 0)
(7.91743 -0.612329 6.22321e-23)
(7.90051 -0.625895 1.84718e-23)
(7.9349 -0.621622 2.02324e-22)
(7.79944 -0.0709959 1.73221e-23)
(7.77896 -0.0755842 6.49021e-22)
(7.75044 -0.119247 1.03591e-23)
(7.72197 -0.147559 4.1708e-24)
(7.68843 -0.16311 1.3705e-22)
(7.63706 -0.174735 -1.67617e-23)
(7.93633 -0.0923787 -2.05997e-21)
(7.9053 -0.0958125 -2.41468e-21)
(7.83333 -0.073096 -1.15974e-21)
(7.86947 -0.0863372 1.80205e-24)
(7.59767 -0.210891 1.63585e-23)
(7.58817 -0.228735 -1.46039e-21)
(7.61812 -0.261599 7.62972e-23)
(7.59913 -0.243662 2.40652e-23)
(7.62793 -0.316511 2.29001e-23)
(7.64298 -0.349704 0)
(7.59282 -0.283911 1.96903e-23)
(7.65832 -0.403529 -1.26236e-22)
(7.70827 -0.465607 0)
(7.67872 -0.460026 4.02047e-24)
(7.71934 -0.495738 2.34297e-24)
(7.73072 -0.521522 2.32595e-24)
(7.74419 -0.546545 0)
(8.49856 -0.0105329 4.84721e-21)
(8.47769 0.0110495 1.55176e-24)
(8.49758 -0.0118875 -3.61932e-21)
(8.152 0.00367516 3.36394e-24)
(8.24898 0.0236813 -4.97779e-24)
(8.08483 -0.0253691 2.63738e-21)
(8.01148 -0.0632509 1.63323e-24)
(8.27619 0.125287 4.74477e-23)
(8.47686 0.168535 -9.26162e-24)
(8.47384 0.171276 2.5235e-23)
(8.48202 0.172945 5.90778e-24)
(8.49166 0.176428 3.06769e-23)
(8.48103 0.134535 0)
(8.50121 0.128515 0)
(8.47584 0.151595 -3.7508e-25)
(8.52623 0.117034 -2.04618e-24)
(8.54817 0.10976 1.9269e-23)
(8.04304 0.0497661 -4.68744e-23)
(8.53067 0.0911126 1.08037e-22)
(8.18709 -0.683227 -1.16471e-23)
(8.22566 -0.692474 -4.86334e-24)
(8.21277 -0.69733 -1.74962e-22)
(8.35926 -0.745751 0)
(8.34271 -0.741743 2.76189e-24)
(8.37169 -0.754146 0)
(8.38558 -0.762055 6.11298e-24)
(8.29673 -0.735447 -5.07e-24)
(8.26003 -0.721338 1.85199e-22)
(8.23382 -0.706237 1.66248e-22)
(8.33218 -0.74208 1.11692e-23)
(8.31893 -0.745917 7.74744e-24)
(8.43809 -0.771178 -1.80471e-23)
(8.39838 -0.766371 -4.48734e-24)
(8.41106 -0.770752 -1.029e-23)
(8.16109 -0.673536 -2.28477e-25)
(8.12927 -0.666254 0)
(8.13909 -0.676183 -2.48008e-25)
(8.11425 -0.669756 -1.04616e-24)
(8.501 -0.783362 -4.69631e-24)
(8.48831 -0.78445 3.36951e-24)
(8.47743 -0.784295 1.27714e-23)
(8.46416 -0.785034 2.86106e-22)
(8.03356 -0.652602 -1.00424e-24)
(8.07316 -0.662252 4.57025e-25)
(8.08979 -0.668259 -3.75097e-24)
(8.05996 -0.66933 1.53897e-27)
(7.94953 -0.634508 -1.68002e-25)
(7.96404 -0.645745 1.53689e-22)
(7.98024 -0.652482 -1.66477e-23)
(7.99897 -0.658151 0)
(7.8028 -0.578671 -8.80159e-24)
(7.77965 -0.573043 1.92836e-22)
(7.81802 -0.597618 0)
(7.83426 -0.614589 0)
(7.85194 -0.631355 8.85049e-24)
(7.90911 -0.649053 3.43906e-25)
(7.88873 -0.646812 7.69617e-24)
(7.93103 -0.643543 -1.1956e-22)
(7.80535 -0.0617732 6.90855e-21)
(7.75533 -0.0919086 1.82881e-22)
(7.74059 -0.0633215 7.88333e-24)
(7.71255 -0.0951414 2.32816e-23)
(7.67355 -0.135798 3.10994e-24)
(7.59083 -0.186895 0)
(7.57865 -0.156987 -2.39574e-25)