/*--------------------------------*- C++ -*----------------------------------*\
| =========                 |                                                 |
| \\      /  F ield         | OpenFOAM: The Open Source CFD Toolbox           |
|  \\    /   O peration     | Version:  v2012                                 |
|   \\  /    A nd           | Website:  www.openfoam.com                      |
|    \\/     M anipulation  |                                                 |
\*---------------------------------------------------------------------------*/
FoamFile
{
    version     2.0;
    format      ascii;
    class       surfaceVectorField;
    location    "3";
    object      ddtCorrDdt0(Uf);
}
// * * * * * * * * * * * * * * * * * * * * * * * * * * * * * * * * * * * * * //

dimensions      [0 1 -2 0 0 0 0];


internalField   nonuniform List<vector> 
18781
(
(1.20785e-05 3.29005e-05 -3.61442e-24)
(1.58038e-05 2.73788e-05 6.27813e-23)
(2.14275e-05 6.92784e-05 4.84226e-24)
(1.00416e-05 2.90816e-05 1.58585e-24)
(2.54151e-05 6.03302e-05 5.28845e-24)
(2.12207e-05 2.64421e-05 2.189e-23)
(2.83547e-05 0.000107946 1.36738e-23)
(3.52986e-05 0.000111071 2.38559e-24)
(8.40639e-06 3.17091e-05 -2.42216e-24)
(3.6397e-05 0.000103703 -1.24941e-23)
(4.26221e-05 9.94058e-05 -3.00483e-24)
(1.6172e-05 1.60877e-05 -7.0921e-23)
(3.52004e-05 0.000142837 -5.39597e-24)
(2.29645e-05 0.00010167 -2.53214e-23)
(5.27306e-05 0.000133821 2.83351e-24)
(1.3695e-05 6.6208e-05 -7.66067e-25)
(7.075e-06 3.37912e-05 -9.68948e-24)
(4.05863e-05 6.94899e-05 -6.38662e-24)
(5.57714e-05 0.000109903 0)
(2.72807e-05 3.16175e-05 -7.17963e-24)
(4.34125e-05 0.000173843 3.98099e-25)
(3.486e-05 0.000169112 1.25969e-24)
(2.04908e-05 0.00010654 -4.23263e-24)
(5.28499e-05 0.000168782 0)
(6.65636e-05 0.000176161 0)
(6.14332e-06 3.58056e-05 -2.22492e-25)
(6.07739e-05 0.000114135 -1.72045e-23)
(7.70928e-05 0.000147135 0)
(4.48326e-05 8.04331e-05 -1.70929e-23)
(2.68168e-05 3.16193e-05 0)
(6.04105e-05 0.000216164 0)
(2.33529e-05 0.00014302 -8.24195e-24)
(2.99535e-05 0.000179365 -1.39043e-24)
(1.7709e-05 0.000115157 1.13574e-23)
(8.91797e-05 0.000203095 0)
(9.51795e-05 0.000244415 0)
(9.4873e-06 7.74047e-05 4.66584e-24)
(4.78647e-06 4.0977e-05 4.07514e-24)
(6.0348e-05 0.000109867 3.33541e-24)
(0.000108328 0.000210823 0)
(2.44597e-05 2.48619e-05 -1.22702e-23)
(9.03886e-05 0.000266527 0)
(7.65054e-05 0.000276347 -6.49401e-26)
(4.38805e-05 0.000244878 2.19596e-24)
(1.81497e-05 0.000206061 5.04076e-24)
(8.15809e-06 0.000117918 -3.72984e-23)
(0.000118098 0.000316223 1.06179e-23)
(-2.0879e-07 4.14414e-05 -3.46551e-23)
(5.10354e-05 0.000101081 7.98749e-24)
(7.81942e-05 0.000137553 2.04293e-23)
(0.000109853 0.000191823 8.1594e-24)
(0.000146892 0.000270867 0)
(3.71206e-05 8.05831e-05 -1.0915e-23)
(4.94814e-05 4.95211e-05 -1.36812e-22)
(6.53201e-05 0.000299763 4.7409e-24)
(9.44763e-05 0.000376487 2.63823e-24)
(5.49903e-05 0.000325693 -1.7515e-24)
(6.25659e-06 0.000172594 -7.52564e-24)
(7.22657e-06 0.000216868 6.82996e-24)
(4.36466e-06 0.000122913 -7.68022e-24)
(0.000158701 0.000390309 -8.3687e-25)
(0.00013825 0.000427032 8.83361e-24)
(-1.05476e-06 3.41945e-05 -2.38896e-23)
(1.45978e-06 7.02027e-05 -1.36217e-23)
(4.94526e-05 0.000102123 8.5614e-25)
(0.000115464 0.000170991 8.01749e-24)
(0.000193 0.000367085 -8.11329e-24)
(0.000207761 0.000318237 5.09626e-24)
(8.00764e-05 1.28275e-06 6.76049e-23)
(0.000129718 0.000453365 -4.91204e-25)
(0.000109294 0.000482609 -8.81524e-25)
(6.01194e-05 0.000436482 -3.59208e-24)
(3.9162e-05 0.000353482 -1.11725e-22)
(4.00778e-06 0.000274503 6.62741e-24)
(2.59323e-06 0.000218853 0)
(1.37387e-06 0.000101383 -5.5091e-25)
(-9.72531e-07 0.00015973 2.54931e-24)
(0.000193786 0.000416184 -1.29063e-22)
(0.000196007 0.000483812 -6.05945e-24)
(0.000153694 0.000508815 1.25983e-23)
(-1.36905e-06 3.49423e-05 1.28767e-23)
(-5.50374e-07 9.20831e-05 -2.55444e-23)
(9.34113e-05 0.000129982 1.10134e-24)
(5.84976e-05 9.67741e-05 0)
(0.00013217 0.00017773 -6.94253e-24)
(0.000246924 0.000441777 1.60923e-23)
(0.000220851 0.000307212 -1.48022e-23)
(0.00026716 0.00037208 -1.51462e-23)
(4.1103e-05 -9.49957e-06 -2.41467e-23)
(8.7355e-05 0.000523264 2.89214e-23)
(0.000125019 0.000579918 1.18525e-24)
(5.7558e-05 0.000547522 2.0947e-23)
(1.36058e-05 0.000381223 7.75779e-24)
(-6.59863e-06 0.000202617 1.62169e-23)
(0.000193643 0.000531623 6.72329e-23)
(0.000232982 0.000556129 2.14869e-25)
(0.000190473 0.000579311 1.1302e-22)
(-4.35606e-06 7.16243e-05 9.56167e-24)
(-5.35868e-06 4.63951e-05 1.26847e-23)
(-6.98965e-06 0.000100855 4.86405e-23)
(6.37049e-05 5.36425e-05 0)
(0.000100819 0.000108639 0)
(0.0001822 0.000246157 -5.51075e-24)
(0.000153598 0.000183729 -1.10916e-24)
(0.000292154 0.000443584 -5.78265e-24)
(0.000304887 0.000497667 1.02187e-22)
(0.000245817 0.000296416 -4.26943e-24)
(0.00032859 0.000412902 -5.59125e-24)
(6.82424e-05 2.03765e-05 8.65015e-24)
(0.000174943 0.000625172 -4.26981e-25)
(0.000134205 0.00065837 -1.80482e-23)
(3.37938e-05 0.000561911 -1.11771e-23)
(6.4915e-05 0.000632644 8.18444e-24)
(6.55747e-06 0.000506306 0)
(-1.31122e-05 0.000416715 -4.04744e-23)
(-1.3566e-05 0.000166214 3.1236e-23)
(-1.54307e-05 0.000229797 1.20094e-24)
(0.000285022 0.000590003 -9.669e-23)
(0.000251259 0.000630367 5.37136e-24)
(0.000221817 0.000636452 -2.36984e-23)
(-1.24607e-05 4.15805e-05 -6.08503e-24)
(-1.80561e-05 0.000125514 -3.5095e-24)
(0.000133518 0.000144706 0)
(0.000115224 0.000117159 1.9258e-23)
(0.00017783 0.000189329 3.97871e-23)
(0.000361184 0.000568414 2.2963e-24)
(0.000243465 0.000256667 3.80062e-23)
(0.000296507 0.000317379 -1.69322e-23)
(0.000349606 0.000377487 -2.19615e-23)
(0.000392671 0.000441852 6.40015e-23)
(0.000101713 8.06318e-05 2.69885e-23)
(0.000102763 1.63558e-05 1.4567e-22)
(9.81302e-05 0.000698475 7.90121e-23)
(0.000144817 0.000728756 -4.59371e-24)
(-2.56121e-07 0.000598205 -1.01401e-23)
(5.97162e-05 0.000710575 -1.58489e-23)
(-2.50848e-05 0.00030979 -8.30338e-24)
(-5.42282e-05 0.000434908 -1.32511e-22)
(-2.60088e-05 0.000248914 3.4841e-24)
(0.000257055 0.000669331 -3.51817e-23)
(-1.56447e-05 3.9269e-05 0)
(-2.00275e-05 8.22341e-05 1.56469e-23)
(-2.5238e-05 0.000189292 -5.14165e-23)
(-2.48161e-05 0.000120866 3.90454e-23)
(0.00012734 0.000107925 7.58243e-23)
(0.000227959 0.000199553 -5.54256e-23)
(0.000420614 0.000525319 4.11313e-23)
(0.000422807 0.000600468 3.05758e-24)
(0.000362364 0.000322156 -5.72307e-24)
(0.00046846 0.000453194 -5.87299e-23)
(7.09374e-05 -1.49506e-05 -2.12201e-22)
(0.000219108 0.000737479 9.77418e-24)
(0.000166185 0.000789454 -7.99636e-23)
(1.84881e-05 0.000694129 -2.28751e-23)
(-3.29907e-05 0.000653247 6.92289e-23)
(3.94127e-05 0.000752497 -1.20669e-23)
(-7.98037e-05 0.000530415 1.04274e-23)
(-7.14993e-05 0.000426227 3.4375e-23)
(-3.57267e-05 0.000239918 5.78435e-23)
(0.000294325 0.000710999 -1.0455e-23)
(-1.41271e-05 3.24074e-05 7.24122e-24)
(-3.11147e-05 0.000115902 -6.50483e-24)
(0.000105411 6.9781e-05 -4.91172e-24)
(0.000169959 0.000101409 -1.71244e-23)
(0.000230057 0.000152854 -2.62779e-23)
(0.000290258 0.000206509 -3.97596e-23)
(0.000486957 0.000636033 1.88254e-23)
(0.000403073 0.000663545 2.08662e-23)
(0.000358836 0.000257408 -6.20546e-25)
(0.000416284 0.000296124 9.25995e-23)
(0.000492513 0.000383225 -4.86242e-23)
(0.000543779 0.000469486 9.43336e-23)
(8.56612e-05 4.98684e-05 -8.76082e-23)
(0.00012459 -5.4462e-06 9.76604e-24)
(0.00019571 0.000867927 -3.97502e-24)
(0.000117025 0.000844785 1.67424e-23)
(-7.23412e-05 0.000625073 1.45057e-23)
(-7.1557e-05 0.000718225 -9.81317e-24)
(5.64804e-05 0.000816902 1.88038e-23)
(-1.32484e-05 0.000790346 2.71807e-23)
(-0.000123001 0.000608797 2.16355e-23)
(-6.15249e-05 0.000313923 1.87562e-23)
(-9.79674e-05 0.000405272 0)
(-4.72589e-05 0.000219826 1.50971e-23)
(0.00035068 0.000697885 1.81809e-22)
(0.000341419 0.00080222 -1.24639e-23)
(-2.02975e-05 7.58272e-05 5.40661e-23)
(-1.49473e-05 3.15452e-05 2.25502e-23)
(-3.68138e-05 0.000153233 -2.75943e-23)
(-3.35577e-05 0.000113061 7.37803e-23)
(0.000109662 5.64467e-05 -2.01734e-23)
(0.000230625 0.000112109 2.29344e-23)
(0.000352641 0.000188731 7.44881e-23)
(0.000566549 0.000609506 3.84321e-24)
(0.000528764 0.000699114 2.37219e-23)
(0.000417422 0.000749301 1.38909e-23)
(0.000468516 0.000328946 1.26064e-23)
(0.000472107 0.000235169 2.73283e-23)
(0.000543489 0.000329461 0)
(0.000603791 0.000523312 7.45137e-23)
(0.000642576 0.000448113 7.86154e-23)
(6.68585e-05 -9.77028e-05 1.10394e-22)
(0.000301021 0.000878344 0)
(0.000218945 0.000945037 -2.12187e-24)
(6.14897e-05 0.000885267 -3.43846e-23)
(-7.20515e-05 0.000769794 -1.2453e-22)
(-0.000116098 0.00075018 -3.83768e-23)
(-6.99601e-05 0.000836453 -1.82878e-23)
(-0.000155693 0.000684222 1.0398e-22)
(-0.000158943 0.000619017 2.90187e-23)
(-0.000127045 0.000462996 0)
(-0.000109966 0.000363777 3.67091e-24)
(-5.73954e-05 0.000206022 -3.24867e-23)
(0.00039243 0.000865942 0)
(-2.96702e-05 0.00010575 -7.19145e-24)
(-1.09991e-05 3.20277e-05 1.50054e-23)
(9.71763e-05 -2.56534e-05 -4.87296e-24)
(0.000175474 4.74528e-05 -1.78952e-23)
(0.000219973 9.24623e-05 5.36625e-23)
(0.000243992 0.000101975 -2.42379e-23)
(0.000337462 0.000119861 2.7019e-24)
(0.000414555 0.000140305 -3.14964e-24)
(0.000684448 0.000598964 -4.94982e-23)
(0.000481973 0.000770906 -8.77548e-24)
(0.000560014 0.000780459 -3.53703e-23)
(0.000433137 0.00081743 0)
(0.000477931 0.00016012 7.13425e-23)
(0.000550217 0.000182242 1.1239e-22)
(0.000629953 0.000341873 2.4669e-23)
(0.000595919 0.000270559 -4.34879e-23)
(0.000710235 0.000383006 -1.88581e-23)
(6.8552e-05 -2.8377e-05 -4.72743e-23)
(0.000238095 0.00104217 -1.00431e-24)
(0.000135701 0.00100454 2.41094e-23)
(-1.953e-05 0.000907266 1.37289e-23)
(3.94661e-05 0.000958148 1.98549e-23)
(-0.000180231 0.000747902 -1.1795e-22)
(-0.000105799 0.000888026 1.34982e-22)
(-0.000156305 0.000554131 0)
(-0.000217435 0.000625706 0)
(-0.000168953 0.000496172 -4.36282e-23)
(-7.49174e-05 0.000261293 -1.87214e-23)
(-0.000107097 0.000319598 -3.20598e-23)
(-5.72724e-05 0.000182438 5.52167e-24)
(0.000455545 0.000918118 1.69598e-23)
(-1.95945e-05 8.24043e-05 -1.23958e-22)
(-4.04613e-05 0.000121519 -3.5219e-23)
(-2.96304e-05 5.37181e-05 4.74434e-23)
(0.000217481 4.58488e-05 -1.1355e-23)
(0.000282785 0.000104764 -2.27976e-23)
(0.000249161 6.81307e-05 3.66561e-23)
(0.000336048 6.73873e-05 0)
(0.000475279 8.69663e-05 -2.58747e-23)
(0.000716543 0.000696925 -1.13969e-23)
(0.000785929 0.000584823 3.9639e-23)
(0.000653477 0.000782847 1.61154e-23)
(0.000617342 0.000879533 -1.46253e-23)
(0.000628089 0.000172812 -1.05288e-22)
(0.000783918 0.000282472 1.16433e-22)
(0.000793278 0.000419418 -1.76813e-22)
(0.000211198 1.44258e-05 -8.25986e-24)
(9.45437e-05 9.06596e-05 -1.70033e-22)
(0.000232622 0.00116144 2.00457e-23)
(0.000355836 0.00107941 3.18909e-24)
(3.83211e-05 0.00105758 -1.05183e-22)
(-0.000259019 0.000738358 -2.93747e-23)
(-0.000216702 0.000814773 2.98465e-23)
(-0.000184262 0.000879536 7.92873e-23)
(-0.000138275 0.000963678 -2.90946e-23)
(-0.000278681 0.000655558 -2.05051e-24)
(-0.000258367 0.000593438 1.11515e-24)
(-0.000226861 0.000525634 -4.46382e-23)
(-0.000186512 0.000450081 1.75551e-23)
(-0.000146229 0.000368094 5.67196e-25)
(-0.000107788 0.000274385 8.9077e-23)
(-5.76611e-05 0.000158765 1.31757e-23)
(0.000575822 0.000962005 6.64985e-23)
(0.00046788 0.00102432 6.56161e-23)
(-4.80081e-05 7.47204e-05 2.39478e-23)
(-3.38833e-05 3.46186e-05 9.6311e-23)
(0.000157244 5.4016e-05 2.24202e-23)
(0.000201014 3.28525e-05 -4.64243e-23)
(0.000238655 3.39194e-05 -8.25182e-23)
(0.000267414 1.51246e-05 3.5074e-23)
(0.000311722 -1.40659e-06 0)
(0.000359796 -1.98991e-08 0)
(0.000440875 4.69056e-06 -3.27514e-23)
(0.000524821 1.39004e-05 -3.35952e-23)
(0.000753648 0.000790106 -5.65009e-23)
(0.000834688 0.000496395 -8.02247e-23)
(0.000893838 0.000582298 5.83906e-23)
(0.0006768 0.000994026 -5.54964e-23)
(0.000762955 0.000177608 4.14541e-23)
(0.000691047 8.57629e-05 8.19115e-23)
(0.000858568 0.00019844 -8.34013e-23)
(0.000900689 0.000389845 -1.94782e-23)
(0.000285428 -0.000164284 4.23897e-22)
(6.46696e-05 5.09059e-05 2.32613e-23)
(0.000247752 0.00128235 -1.12959e-23)
(0.000142092 0.00121013 2.22551e-23)
(0.000487081 0.00115476 -1.24948e-23)
(4.88405e-05 0.00116518 -3.366e-23)
(-3.59985e-05 0.00109157 -4.51565e-23)
(-0.000332979 0.000702401 -2.08199e-24)
(-0.000275035 0.000855009 -1.14676e-22)
(-0.000110046 0.00105207 -3.4265e-23)
(-0.000217879 0.00102217 -6.98781e-23)
(-0.000294265 0.00054805 -3.06067e-23)
(-0.000199561 0.000401318 3.62345e-23)
(-7.82464e-05 0.000205551 3.56204e-23)
(-0.000114394 0.000244812 4.18545e-23)
(-6.63635e-05 0.00014313 3.39874e-23)
(-5.86514e-05 0.000107959 3.10932e-23)
(-5.27516e-05 8.80685e-05 -1.7215e-23)
(-2.31368e-05 1.46844e-05 3.82272e-23)
(0.000211114 8.90057e-06 -2.68838e-22)
(0.000275225 -2.55104e-05 2.3221e-23)
(0.000396549 -6.71568e-05 0)
(0.000632259 1.66081e-06 7.50461e-23)
(0.000556301 -8.09785e-05 0)
(0.000859506 0.000763218 -7.10701e-23)
(0.000838686 0.00089857 2.41045e-23)
(0.000919578 0.000668054 -4.58148e-23)
(0.000990544 0.000563369 -6.55568e-23)
(0.000811013 0.00101957 7.88646e-23)
(0.000724333 0.00111336 -3.92029e-23)
(0.000746482 -4.58333e-05 2.29469e-23)
(0.000928884 0.000282472 -6.39244e-24)
(0.000942073 0.000138356 -1.46289e-23)
(0.000992982 0.000359647 1.91101e-24)
(0.000113179 -0.000124187 -1.5285e-23)
(0.000108298 -2.77178e-05 3.11541e-23)
(4.11067e-05 -1.94401e-05 0)
(0.000361363 0.00133358 -4.35284e-24)
(0.000235268 0.00140789 3.96936e-24)
(4.90471e-05 0.00126628 4.49175e-23)
(0.000622266 0.00119771 -1.35295e-23)
(0.000486795 0.00127481 -2.72593e-24)
(-0.000108244 0.00116539 -5.72954e-23)
(-0.000404738 0.000676861 -1.45336e-23)
(-0.00037686 0.000758322 0)
(-0.000348605 0.000822086 -6.71049e-23)
(-0.000331212 0.000929381 -6.47649e-23)
(-0.000308599 0.00100901 4.16461e-23)
(-0.000298784 0.00110104 3.6247e-23)
(-0.000301953 0.000469661 2.62908e-23)
(-0.000350691 0.00052712 -3.26725e-23)
(-0.000245751 0.000405579 4.29483e-23)
(-0.000194284 0.000331347 2.18499e-23)
(-0.000144248 0.000261853 1.95547e-23)
(-0.000115102 0.000196838 -2.23893e-23)
(-8.58377e-05 0.000147517 6.05908e-23)
(-4.14669e-05 5.30295e-05 1.13884e-22)
(-6.15233e-05 9.50563e-05 -1.08386e-23)
(-1.76635e-05 1.92951e-05 4.12635e-23)
(0.000186146 -4.6955e-05 1.41318e-23)
(0.000230407 -4.25869e-05 3.00284e-24)
(0.000259663 -6.79525e-05 -3.06681e-23)
(0.000360012 -0.000106724 0)
(0.000420045 -0.000129488 0)
(0.000484454 -0.000148719 0)
(0.000577129 -0.000183124 -3.93228e-23)
(0.000994797 0.000778818 -5.61718e-23)
(0.000929454 0.000991064 1.06801e-23)
(0.00104615 0.000465536 -1.33262e-22)
(0.00109871 0.000565739 1.35334e-22)
(0.000779613 0.00126528 7.29763e-24)
(0.00086816 -0.000100205 -1.16828e-22)
(0.000759698 -0.000178738 9.39947e-23)
(0.000974393 7.61507e-06 2.41269e-22)
(0.00107417 8.20884e-05 6.89529e-23)
(0.0011017 0.000321401 2.43277e-23)
(0.000125018 -6.07308e-05 1.05326e-23)
(0.000234969 -0.000134596 7.63804e-22)
(0.000137396 -4.94439e-05 1.28951e-23)
(0.000504489 0.00143495 -9.52929e-24)
(0.000231005 0.00154403 -2.90327e-24)
(0.000136942 0.00145922 9.73396e-24)
(5.35933e-05 0.00139351 1.28027e-23)
(-4.4598e-05 0.00131345 6.84311e-23)
(-0.000214355 0.00119922 -5.45382e-23)
(-0.000132061 0.00125672 -1.2715e-22)
(-0.000500897 0.000671152 4.30309e-23)
(-0.000439171 0.000613719 -1.44628e-23)
(-0.000429359 0.000827088 -5.91208e-23)
(-0.000407736 0.000985584 0)
(-0.000339686 0.00120436 3.08519e-23)
(-0.000277662 0.000404518 4.4155e-23)
(-0.000400037 0.000562736 0)
(-0.000384297 0.000483347 -1.08524e-22)
(-0.000169901 0.000273156 2.30498e-23)
(-9.85326e-05 0.000160657 -4.05993e-23)
(-8.64206e-05 0.000128683 -3.61562e-23)
(-5.73104e-05 9.7896e-05 -1.78976e-23)
(-1.3295e-05 1.75748e-05 0)
(0.00023048 -8.90442e-05 -1.2118e-22)
(0.000302211 -0.000111779 -2.62035e-23)
(0.000238335 -0.000145256 -2.63043e-23)
(0.000329882 -0.000172975 -2.98024e-23)
(0.000429403 -0.000188541 0)
(0.00066376 -0.000220297 7.18828e-23)
(0.000567007 -0.000294591 -1.18079e-22)
(0.00103851 0.000911999 2.46762e-23)
(0.00112608 0.000802336 4.91281e-23)
(0.00107214 0.00106019 -2.09886e-23)
(0.00116758 0.000668743 9.79916e-23)
(0.00121336 0.000526127 9.3061e-23)
(0.000770498 0.00144526 1.23574e-23)
(0.000923849 0.00133625 1.32407e-23)
(0.00100132 -0.000177692 -1.1241e-22)
(0.000764352 -0.00029142 2.11768e-22)
(0.00114455 0.000183665 8.46573e-23)
(0.00118047 3.91562e-05 7.00921e-23)
(0.00122958 0.000288558 1.22332e-24)
(7.81436e-05 -0.000204097 -1.26279e-21)
(0.000202354 -0.000111755 3.16762e-23)
(0.000105627 -0.00015171 -2.21378e-22)
(0.000629453 0.0015176 1.06839e-24)
(0.000467545 0.00158905 9.19327e-25)
(0.000332201 0.00162178 -9.68174e-24)
(0.000205917 0.00171125 1.50027e-23)
(2.92111e-05 0.00150967 -4.35977e-23)
(-0.000145331 0.00137972 4.43695e-23)
(-0.000593756 0.00064761 2.7006e-23)
(-0.000551352 0.000748479 7.79646e-23)
(-0.000481914 0.000547304 4.46122e-23)
(-0.000474674 0.000906739 -5.66516e-23)
(-0.000504383 0.000836534 7.31429e-23)
(-0.000499236 0.00102498 8.74519e-23)
(-0.00045604 0.00124435 -2.26134e-22)
(-0.000363892 0.00134868 2.57042e-23)
(-0.000249939 0.000343069 0)
(-0.000306044 0.000385586 5.94517e-23)
(-0.000366895 0.000412078 -4.63754e-23)
(-0.000429179 0.000425673 -1.04872e-22)
(-0.000195058 0.000277206 -2.14383e-23)
(-0.000149763 0.000213732 -1.8731e-24)
(-0.000109727 0.000164248 4.87677e-23)
(-4.01515e-05 7.2323e-05 0)
(-5.76958e-05 0.000100964 0)
(-4.49747e-05 2.81999e-05 0)
(0.000239545 -0.000171236 -2.02275e-23)
(0.000256202 -0.000221757 2.73404e-23)
(0.000215827 -0.000194625 3.73962e-23)
(0.000364577 -0.00022378 -3.1257e-23)
(0.000310199 -0.00023057 -2.60389e-23)
(0.000412637 -0.000279782 1.73308e-23)
(0.00047968 -0.000363984 -1.22107e-22)
(0.000557042 -0.000397053 7.35517e-23)
(0.00124478 0.000781987 4.95347e-23)
(0.001072 0.00125298 0)
(0.00126511 0.0011559 1.13745e-22)
(0.00128004 0.000405033 -7.77872e-23)
(0.00137856 0.000536353 0)
(0.000780444 0.00166005 -2.35569e-24)
(0.00107715 0.00145922 2.57175e-24)
(0.00103466 -0.000325141 -5.07134e-23)
(0.00114 -0.000218026 2.55842e-23)
(0.000681559 -0.000391249 1.07088e-22)
(0.000795536 -0.000385436 -2.65271e-22)
(0.00123854 -9.11571e-05 2.72383e-22)
(0.00133063 1.34315e-05 1.33108e-22)
(0.00134553 0.000267932 -9.48617e-23)
(0.000104007 -8.97969e-05 -4.52898e-23)
(0.000459072 0.00176419 0)
(0.000174174 0.00187895 1.50443e-23)
(9.18835e-05 0.0017989 2.47598e-23)
(2.87817e-05 0.00167527 -3.35304e-23)
(-5.68075e-05 0.00154862 -3.5748e-23)
(-0.000266419 0.00142345 0)
(-0.000146391 0.00149898 -6.26102e-24)
(-0.000701422 0.00064564 -7.80985e-23)
(-0.000629137 0.000576037 -2.81271e-23)
(-0.000610104 0.000821901 4.98598e-23)
(-0.000493871 0.000464375 4.44412e-23)
(-0.000553437 0.000518492 -1.87036e-23)
(-0.000521617 0.00116186 -9.6983e-23)
(-0.00059555 0.00105856 1.29378e-22)
(-0.000565459 0.00126057 -4.27222e-23)
(-0.000399814 0.00147832 0)
(-0.000213937 0.000280833 -2.1242e-23)
(-0.000339803 0.000355448 1.16282e-22)
(-0.000494642 0.000387525 2.34121e-23)
(-0.000118555 0.000166963 1.93841e-23)
(-8.67615e-05 0.000125383 0)
(-6.19151e-05 9.49734e-05 0)
(-3.59205e-05 8.05179e-06 0)
(0.000209803 -0.000189236 5.84319e-22)
(0.000178807 -0.000143059 -8.97262e-24)
(0.000283236 -0.000293656 1.20866e-23)
(0.000220196 -0.000238283 2.96527e-23)
(0.000396221 -0.000390211 3.11604e-23)
(0.000586398 -0.000498214 5.83016e-23)
(0.00141172 0.00070729 4.7185e-23)
(0.00141592 0.000863646 -1.86063e-23)
(0.00142902 0.0010628 2.76297e-25)
(0.00141023 0.00125871 -8.66979e-23)
(0.00151575 0.000557215 6.0369e-23)
(0.000731715 0.00185971 9.10628e-24)
(0.000927095 0.00176512 -4.37445e-24)
(0.00108066 0.00164524 -3.58334e-25)
(0.00124536 0.00152222 1.80463e-24)
(0.000929352 -0.000437395 -8.07466e-23)
(0.00105663 -0.000542223 6.08772e-23)
(0.00128982 -0.000286776 8.16561e-23)
(0.000815186 -0.000565105 1.77665e-23)
(0.00140165 0.000139532 4.82837e-23)
(0.00147924 2.22822e-05 -1.22242e-22)
(0.00148763 0.000279133 -9.73166e-23)
(0.000146394 -7.68891e-05 -4.57206e-22)
(0.000199778 -0.000174989 -1.15222e-23)
(0.000344559 0.00192174 -2.43439e-23)
(0.000536349 0.00188306 2.19663e-24)
(0.000215611 0.00205112 -1.42027e-24)
(-2.75044e-05 0.00183421 -7.95962e-23)
(-0.000155514 0.0016262 4.54952e-23)
(-0.000709191 0.000769165 -6.79629e-23)
(-0.000797872 0.000659404 2.15226e-22)
(-0.000655083 0.000470536 -3.26924e-23)
(-0.000707686 0.000887636 0)
(-0.000688833 0.00101919 6.37165e-23)
(-0.000694898 0.00112216 2.02465e-23)
(-0.000666606 0.00123121 -4.72397e-23)
(-0.000639779 0.00137572 -2.84977e-23)
(-0.00050911 0.00154629 0)
(-0.00036762 0.00162242 -4.29855e-23)
(-0.0002307 0.000263391 -6.36689e-23)
(-0.000172917 0.000217963 -4.07569e-23)
(-0.000291444 0.000291223 4.29595e-23)
(-0.000366417 0.000303595 5.81364e-23)
(-0.000490433 0.000291936 2.49432e-23)
(-0.000576565 0.000309401 -3.45747e-23)
(-0.000123941 0.000161449 -1.94136e-23)
(-6.04349e-05 6.24832e-05 0)
(-8.4158e-05 9.95742e-05 -3.52417e-23)
(-6.54422e-05 2.27401e-05 -2.34816e-23)
(0.000105604 -0.000141555 2.41705e-23)
(0.000312987 -0.000383755 -1.01984e-23)
(0.000251064 -0.000375315 1.27783e-23)
(0.000198496 -0.000327137 6.07219e-24)
(0.00013302 -0.000269536 4.38433e-23)
(0.000355478 -0.000469982 -2.87648e-23)
(0.000682949 -0.00064451 1.05495e-22)
(0.000544988 -0.000624715 -4.06972e-23)
(0.00165061 0.00096858 -1.01065e-22)
(0.00138613 0.00141374 -8.31025e-23)
(0.00156858 0.00134141 8.09945e-23)
(0.00157008 0.000379918 -1.13045e-22)
(0.00169587 0.000548157 3.70075e-23)
(0.00066702 0.00207309 1.12133e-23)
(0.00107794 0.00186184 -2.43575e-23)
(0.00137831 0.0016197 0)
(0.00105968 -0.000713568 3.0589e-23)
(0.00119554 -0.00061136 -2.142e-22)
(0.00131525 -0.000472391 -1.8647e-22)
(0.00143417 -0.00034562 3.46364e-24)
(0.000781942 -0.000713879 -8.13205e-23)
(0.00162482 8.7045e-05 -1.32707e-22)
(0.00157641 -6.69131e-05 -2.23101e-23)
(0.00163141 0.000233159 -8.20007e-23)
(0.000117246 -0.000284801 -7.60213e-22)
(0.000313926 0.00226987 -2.26639e-23)
(0.000110545 0.00221479 6.17931e-23)
(-0.000144193 0.00177431 -2.38181e-23)
(-9.78729e-05 0.00190028 1.97206e-22)
(-0.00025491 0.00168001 1.72566e-23)
(-0.000940085 0.000718229 -6.78502e-23)
(-0.000898076 0.000578324 2.41484e-23)
(-0.000665461 0.000347774 -3.05221e-23)
(-0.000761808 0.000406238 7.52461e-23)
(-0.000828884 0.000956614 -7.62976e-25)
(-0.000777287 0.00118482 -2.2562e-22)
(-0.00064517 0.00150044 -7.83262e-23)
(-0.000807961 0.00144187 -1.80147e-23)
(-0.000649643 0.00165267 1.57929e-22)
(-0.000376008 0.00179868 -1.33745e-22)
(-0.000235519 0.000230573 -2.3466e-23)
(-0.000141279 0.00015813 1.47416e-23)
(-0.000410094 0.000278158 0)
(-0.000354178 0.000242586 -2.51818e-23)
(-0.000466799 0.000215598 -4.27961e-24)
(-0.000643751 0.000246935 -2.54709e-23)
(-0.000114012 0.000120738 3.43282e-23)
(-8.19799e-05 9.27813e-05 -3.50853e-23)
(-4.38622e-05 3.4084e-06 -2.35662e-23)
(0.000105378 -0.000201267 2.43967e-23)
(0.000153263 -0.000180411 -9.50221e-24)
(0.000197424 -0.000417271 5.11354e-24)
(7.23421e-05 -0.000287549 1.18827e-22)
(0.000284419 -0.000545731 -9.92788e-23)
(0.000362564 -0.000590636 6.78504e-24)
(0.000432739 -0.000651426 -8.57541e-25)
(0.000504643 -0.00078843 -1.6343e-22)
(0.00182718 0.000881181 -9.40073e-23)
(0.00178173 0.00110078 -1.60295e-22)
(0.00171387 0.00128309 -9.07581e-23)
(0.00168659 0.00143782 1.80497e-22)
(0.00186165 0.000690868 -9.52624e-23)
(0.00190964 0.000468725 3.71365e-23)
(0.000537714 0.00227694 -2.41423e-23)
(0.000784271 0.00224118 -2.01149e-22)
(0.00112086 0.00206274 -2.97448e-23)
(0.00130172 0.00190239 -1.74833e-23)
(0.00157882 0.0016274 -3.65038e-23)
(0.00142538 0.00176266 0)
(0.000929894 -0.000793959 -1.23514e-22)
(0.00101711 -0.000889296 -2.81471e-23)
(0.00135485 -0.000696152 5.11766e-23)
(0.00155387 -0.00024831 8.08675e-23)
(0.00156639 -0.000469143 2.15476e-22)
(0.000780755 -0.000864709 -7.31926e-23)
(0.00176367 0.000189312 -1.72734e-24)
(0.00174255 -0.000205376 -3.69235e-24)
(0.000264445 -0.000318397 -2.27257e-23)
(0.000405094 0.00248644 -1.32423e-23)
(-4.63017e-05 0.00220325 -1.08496e-22)
(5.29492e-05 0.00241601 3.0609e-23)
(-0.000286256 0.00195774 8.638e-24)
(-0.000149262 0.00205862 9.78639e-23)
(-0.000946194 0.000878449 -1.30244e-22)
(-0.00107237 0.000762357 -2.38454e-22)
(-0.000871549 0.000463734 -5.0568e-23)
(-0.00100738 0.00046609 2.89594e-23)
(-0.000855114 0.000304357 7.02372e-23)
(-0.000950028 0.00102515 1.01475e-22)
(-0.000884736 0.00129125 -3.39951e-24)
(-0.000907352 0.00115865 -2.60107e-23)
(-0.000947187 0.00142823 2.55432e-22)
(-0.000782664 0.0017299 -1.65029e-22)
(-0.000619492 0.00183388 2.42678e-22)
(-0.000462306 0.00191142 2.81319e-22)
(-0.000244549 0.000202172 0)
(-0.000192898 0.0001862 0)
(-0.000150859 0.000146313 5.00364e-23)
(-0.000286229 0.000194585 -2.501e-23)
(-0.000337905 0.000164082 7.56052e-24)
(-0.000414409 0.000143872 1.98601e-23)
(-0.000491845 0.000133481 -4.81372e-23)
(-0.00072642 0.00017608 0)
(-0.000648537 0.000165324 1.51797e-22)
(-7.62116e-05 6.21972e-05 0)
(-0.000104252 8.8022e-05 0)
(-8.72467e-05 1.48965e-05 2.20402e-23)
(0.000129719 -0.000428115 4.46426e-23)
(0.000187081 -0.000478624 2.82431e-23)
(6.04205e-05 -0.00037921 2.11314e-22)
(0.000116659 -0.000339758 -2.73877e-23)
(0.000218182 -0.000533573 -8.58444e-23)
(0.000230815 -0.000624398 -5.12445e-23)
(0.000328688 -0.000709104 1.25656e-22)
(0.00061318 -0.000927347 -5.169e-23)
(0.000446783 -0.000933152 3.35181e-22)
(0.00206465 0.000827173 2.39334e-23)
(0.00192198 0.00122819 -4.7844e-23)
(0.00180832 0.00162921 -3.72173e-23)
(0.00193966 0.00029911 3.76729e-23)
(0.00210669 0.000407844 -1.46416e-22)
(0.00099334 0.00222836 1.79401e-23)
(0.000839703 0.00244424 -4.09504e-26)
(0.00125601 0.00226911 2.37171e-23)
(0.0015036 0.00192727 3.61764e-23)
(0.000970262 -0.00111961 -4.07776e-23)
(0.00118472 -0.000991352 -4.97305e-23)
(0.00136857 -0.000881821 2.70717e-22)
(0.00150964 -0.000759133 9.59663e-23)
(0.00162532 -0.000628229 3.64375e-22)
(0.00176375 -0.000517117 4.20871e-23)
(0.000724201 -0.00105953 0)
(0.00195789 8.6843e-05 -3.68441e-23)
(0.0018872 -0.000349677 -1.89454e-22)
(0.00192099 -0.000170081 -1.04308e-22)
(0.000115153 -0.000429078 1.45334e-21)
(0.000273581 0.00265882 -2.64755e-25)
(0.000502168 0.00265916 2.25406e-22)
(-0.000266305 0.00224423 -8.83187e-23)
(8.40367e-05 0.00259247 -3.0264e-23)
(-0.000127988 0.00255214 -3.8023e-23)
(-0.00119791 0.000852056 -2.86976e-22)
(-0.00117235 0.000662078 2.32669e-22)
(-0.00105079 0.000315951 1.29358e-22)
(-0.00112278 0.000451195 -2.84515e-23)
(-0.000821334 0.000155575 0)
(-0.000953148 0.000185242 -7.46747e-25)
(-0.00105218 0.00107641 2.76923e-22)
(-0.00104082 0.00157643 -1.85548e-22)
(-0.00117011 0.00138995 7.59075e-23)
(-0.000935028 0.00169267 -2.90805e-22)
(-0.000880477 0.00188928 -9.68521e-23)
(-0.00055978 0.00200222 -7.48606e-23)
(-0.000235716 0.000151899 0)
(-0.00017048 0.000133422 0)
(-0.000347861 0.000108479 2.60958e-23)
(-0.000579946 8.34594e-05 5.36663e-22)
(-0.000493691 3.29026e-05 -1.81442e-22)
(-0.000756864 0.000102477 1.80648e-22)
(-0.000680073 7.11968e-05 3.67232e-22)
(-0.000141822 9.02028e-05 0)
(-9.092e-05 6.76302e-05 3.23782e-23)
(-5.8849e-05 -8.74146e-06 2.28965e-24)
(3.5748e-05 -0.000446948 2.50143e-23)
(0.00013287 -0.000537121 3.11176e-23)
(0.00026529 -0.000509828 1.41532e-21)
(0.000255518 -0.000738114 6.63747e-23)
(0.000154573 -0.000710575 -2.61192e-23)
(0.000278035 -0.00080937 1.51159e-23)
(0.000342242 -0.000903104 9.65506e-24)
(0.000390046 -0.00101709 -2.40864e-23)
(0.00218912 0.000981386 3.18465e-22)
(0.00224556 0.000782112 -3.10691e-24)
(0.00212026 0.00116172 1.97253e-22)
(0.00208066 0.00140253 -1.7156e-24)
(0.00200813 0.00163713 -1.91951e-23)
(0.00187974 0.00180107 -9.76764e-23)
(0.00227317 0.000584325 -1.17272e-22)
(0.00229416 0.00036165 -9.19462e-23)
(0.000712796 0.00262659 -2.50896e-23)
(0.000958767 0.00263537 2.37569e-23)
(0.00134055 0.00245943 1.93277e-24)
(0.00146197 0.00228708 -3.77352e-23)
(0.00172202 0.00192987 -5.22549e-23)
(0.00157321 0.00212432 1.13022e-23)
(0.00111586 -0.00141778 -6.39042e-23)
(0.000838059 -0.00132966 -1.5012e-23)
(0.00137776 -0.0011037 -6.12994e-23)
(0.0016639 -0.0008318 -4.74547e-23)
(0.00194573 -0.000539174 2.29706e-22)
(0.000716427 -0.00124244 0)
(0.000567717 -0.00117949 0)
(0.00213576 -8.59613e-05 1.67502e-22)
(0.000122019 0.00280459 8.62498e-24)
(0.000576214 0.00289494 -6.67122e-23)
(-0.000314967 0.00244223 -4.08871e-23)
(-0.000481399 0.00228595 1.16603e-22)
(-0.000323564 0.00263277 8.26344e-23)
(-0.00119189 0.000989375 -2.28846e-22)
(-0.0013295 0.000887437 -2.0075e-22)
(-0.00119992 0.000547112 1.12582e-22)
(-0.0013334 0.000635427 1.63611e-22)
(-0.00104371 0.000131543 1.73467e-22)
(-0.00123994 0.000410168 4.21194e-23)
(-0.0012214 0.00116998 7.53293e-23)
(-0.00114797 0.00170975 -1.13689e-22)
(-0.00136734 0.00128449 1.72054e-22)
(-0.000767471 0.00202586 -1.04153e-22)
(-0.000955793 0.00196788 -4.05713e-23)
(-0.000619385 0.0021438 -2.41223e-22)
(-0.0001859 0.000106742 0)
(-0.000226579 0.00010696 4.61895e-24)
(-0.000298089 7.81173e-05 -5.78548e-24)
(-0.000356513 4.8746e-05 -5.51866e-24)
(-0.000412069 8.06806e-06 4.19427e-23)
(-0.000484693 -5.6955e-05 -4.85905e-24)
(-0.000748032 3.12575e-05 8.44565e-24)
(-8.29719e-05 4.64911e-05 1.14233e-23)
(-9.39065e-05 8.042e-05 7.25326e-23)
(-0.000112701 -2.08904e-06 -2.38996e-22)
(3.75849e-05 -0.000517889 -2.10246e-23)
(1.94388e-05 -0.000496946 -1.49534e-23)
(7.70621e-05 -0.000577354 2.11734e-23)
(0.000108917 -0.000546722 2.02896e-24)
(7.35663e-05 -0.000653072 -6.66842e-24)
(8.87919e-05 -0.000731795 5.90111e-23)
(0.000202169 -0.000875038 -3.05192e-23)
(0.000343392 -0.00114772 2.68862e-22)
(0.000215298 -0.0010662 -1.58907e-22)
(0.00232795 0.00112738 -5.41813e-23)
(0.00246327 0.000746266 -3.90574e-23)
(0.00223084 0.00159875 -1.81567e-23)
(0.00198264 0.00199122 -2.78651e-23)
(0.00241872 0.000192753 -1.47156e-22)
(0.00257684 0.000397719 -1.45578e-23)
(0.00118574 0.00264179 4.69259e-24)
(0.00104837 0.00286133 -4.19895e-23)
(0.00145391 0.00271205 1.48441e-24)
(0.00167813 0.00230614 6.62605e-23)
(0.00140343 -0.00133083 8.90995e-23)
(0.00125493 -0.00157446 -4.43621e-23)
(0.000738839 -0.00137805 0)