/*--------------------------------*- C++ -*----------------------------------*\
| =========                 |                                                 |
| \\      /  F ield         | OpenFOAM: The Open Source CFD Toolbox           |
|  \\    /   O peration     | Version:  v2012                                 |
|   \\  /    A nd           | Website:  www.openfoam.com                      |
|    \\/     M anipulation  |                                                 |
\*---------------------------------------------------------------------------*/
FoamFile
{
    version     2.0;
    format      ascii;
    class       volScalarField;
    location    "3";
    object      p;
}
// * * * * * * * * * * * * * * * * * * * * * * * * * * * * * * * * * * * * * //

dimensions      [0 2 -2 0 0 0 0];


internalField   nonuniform List<scalar> 
11941
(
-0.001329
-0.00103825
-0.00156911
-0.00102798
-0.000738737
-0.00154314
-0.00186696
-0.000761975
-0.00131474
-0.000468011
-0.00180528
-0.00199873
-0.00074713
-0.000487537
-0.0013565
-0.000172171
-0.00196967
-0.00221755
-0.00101858
-0.000381242
-0.000264294
-0.00164419
0.000104783
-0.00222908
-0.00197185
-0.00244929
-0.00101911
-0.000209277
5.76779e-05
-0.0015366
0.00041016
-0.00244568
-0.00234831
-0.00267656
-0.000759421
-0.00036999
0.000159674
0.00027581
-0.00168745
0.00069299
-0.00258809
-0.00253123
-0.00246199
-0.00299662
-0.00088348
-2.82092e-05
0.000469265
0.000566297
-0.00201678
-0.00128912
0.00095981
0.000728505
-0.00277501
-0.00286328
-0.00228978
-0.00288131
-0.00338699
-0.000593486
-0.000134588
0.000463738
0.000762449
-0.00190106
-0.0014094
0.00119669
0.00110434
-0.00294109
-0.00308749
-0.00265686
-0.00311181
-0.0030508
-0.00321063
-0.000809171
0.000202219
0.000796457
0.00104981
-0.0021817
-0.00128957
0.00151215
0.00124338
-0.00326344
-0.00335963
-0.00274663
-0.00352426
-0.00357995
-0.00336559
-0.000513231
0.000701568
8.48947e-05
0.00121077
0.00125582
-0.00169918
0.0017685
0.00153156
-0.00334671
-0.00357928
-0.00322186
-0.00381229
-0.00382793
-0.00378194
-0.000804732
0.000971134
0.00057188
0.00173133
0.00160539
-0.00168724
0.00204353
0.0017583
-0.00356379
-0.00388997
-0.00324081
-0.00424923
-0.00440269
-0.00365089
-0.000471462
0.00145607
0.000674777
0.00181749
0.0020352
0.00190534
-0.00209707
0.0022834
0.002051
-0.00334676
-0.00391325
-0.00421983
-0.00391188
-0.00268542
-0.00457056
-0.00460394
-0.00473289
-0.0043006
-0.000984045
0.000265593
0.00172175
0.00146672
0.00230132
0.00243931
0.00212206
-0.00174484
0.00225352
0.00257208
-0.00354908
-0.00412948
-0.00456868
-0.00465935
-0.00374044
-0.00294971
-0.00506686
-0.00518312
-0.00552761
-0.00381625
-0.000544976
0.000746274
0.00232163
0.00168822
0.00265954
0.00269061
0.00258947
0.00244767
-0.00240273
0.00252434
0.00272845
-0.00398559
-0.00430728
-0.00449712
-0.00503252
-0.0053433
-0.00421294
-0.00562058
-0.00615257
-0.0036625
-0.000986028
0.000578526
0.00283102
0.0023297
0.00333928
0.00313196
0.00293461
0.00262409
-0.00263249
0.00289709
-0.0041095
-0.00427745
-0.00481439
-0.00541862
-0.00500364
-0.00619222
-0.00383646
-0.00629082
-0.00664308
-0.00639255
-0.00472752
-0.00375302
-0.000245795
-0.00202791
0.00119669
0.00358285
0.00287227
0.00240782
0.00349686
0.00320279
0.00298717
0.00284397
0.00298675
0.00300339
-0.00409689
-0.00452841
-0.0051902
-0.00596399
-0.00554966
-0.00680365
-0.00447586
-0.00648126
-0.00732968
-0.00726409
-0.00504148
-0.00358298
-0.000655146
0.000754444
-0.00253786
0.00192868
0.00410275
0.00359477
0.00330087
0.00400027
0.00354252
0.0032499
0.00296383
0.00318508
0.00324393
-0.0041791
-0.00458305
-0.00533545
-0.00608949
-0.00646537
-0.00551441
-0.00768522
-0.00386963
-0.00730601
-0.0080297
-0.00794952
-0.00369678
-0.00313339
-0.00179553
0.000147422
0.00139213
0.00250006
0.00457182
0.00412381
0.00380394
0.00359023
0.00387531
0.00442206
0.00349898
0.00324669
0.00338925
0.00354045
-0.00446183
-0.00479527
-0.00512035
-0.00572879
-0.00659763
-0.00735244
-0.00643841
-0.00834088
-0.00455857
-0.00802279
-0.00716082
-0.00891006
-0.0088381
-0.0052967
-0.00360275
-0.00224327
-7.04052e-05
0.00114168
0.00241834
0.00522471
0.00462207
0.00476572
0.00478472
0.00437932
0.0041106
0.00467798
0.00371188
0.00345896
0.00348283
0.00356806
-0.00434507
-0.00468857
-0.0052945
-0.00569661
-0.00651204
-0.00845656
-0.00689226
-0.00926673
-0.00350733
-0.00586532
-0.00883655
-0.00764664
-0.00974676
-0.00957599
-0.00360409
-0.00117558
0.000979929
0.00204267
0.00318347
0.00589933
0.00536809
0.00528163
0.0052841
0.00506939
0.00429345
0.00398242
0.00448962
0.00511433
0.00365433
0.00367047
0.00395255
-0.00435743
-0.0050551
-0.00442725
-0.00606705
-0.00689631
-0.00928875
-0.00850001
-0.0103306
-0.00388262
-0.00633995
-0.00882082
-0.00973694
-0.00826774
-0.0106796
-0.0104604
-0.00374124
-0.00128902
0.000854695
0.00199029
0.00292101
0.00655671
0.00586355
0.00617102
0.00601279
0.00599299
0.0051723
0.00410979
0.00462001
0.00551286
0.00379622
0.00371643
0.00384901
-0.00396582
-0.00517318
-0.00444342
-0.00569052
-0.0070819
-0.00968415
-0.00884734
-0.0116722
-0.00236298
-0.00540494
-0.007846
-0.00963988
-0.0107551
-0.00804932
-0.0117135
-0.0113791
-0.00502027
0.00155503
0.00326689
0.00359176
0.00731958
0.00638504
0.00654855
0.00654686
0.00645893
0.0061844
0.00470099
0.0043718
0.00399854
0.0049482
0.00528177
0.0061027
0.00393361
0.00430198
-0.00364402
-0.00473481
-0.0039145
-0.00576739
-0.00678224
-0.0114757
-0.0103632
-0.0126562
-0.00223935
-0.00587454
-0.00844089
-0.0094067
-0.0106024
-0.0117037
-0.00853255
-0.0123555
-0.0122206
-0.00379948
9.56392e-05
0.0029796
0.00402614
0.00795061
0.00749295
0.00706138
0.00748271
0.00748193
0.00791149
0.00691214
0.00544905
0.00435347
0.00408455
0.00479213
0.00543272
0.00628879
0.0038846
0.00407512
-0.00462294
-0.00366667
-0.00524445
-0.00627679
-0.00721063
-0.0128213
-0.0117303
-0.0104
-0.0140316
-0.00351214
-0.00512346
-0.00796147
-0.00992255
-0.0113486
-0.0124371
-0.00813582
-0.0136332
-0.013498
-0.00492725
0.000740962
0.00411753
0.00350581
0.00880039
0.00824961
0.00741591
0.00807916
0.00891804
0.00801047
0.00656328
0.00456653
0.00422946
0.00499263
0.00588275
0.00699745
0.00622551
0.00407859
0.00465221
-0.00409565
-0.00483419
-0.00342942
-0.00527268
-0.00590591
-0.00659658
-0.0145401
-0.0132488
-0.0121774
-0.0155387
-0.00257678
-0.00665794
-0.00917451
-0.00954265
-0.0110452
-0.0123963
-0.0138699
-0.00861129
-0.0145957
0.00281473
-0.000488669
0.00589113
0.00591636
0.00942802
0.00911812
0.0079882
0.00894763
0.00913708
0.00904224
0.00988018
0.00852345
0.00727692
0.00447284
0.00430842
0.0049321
0.00562906
0.00668925
0.00388773
0.00426762
-0.00398256
-0.00450156
-0.0047014
-0.00485522
-0.0061044
-0.0067025
-0.0146926
-0.0158448
-0.0139028
-0.0112468
-0.0167547
-0.00385172
-0.00604936
-0.00862244
-0.0110494
-0.00898059
-0.0116717
-0.0132427
-0.014921
-0.00809832
-0.016113
0.00426378
8.875e-05
0.0074282
0.0073695
0.0105498
0.010111
0.00841541
0.00940774
0.0102263
0.0110355
0.0100538
0.00455108
0.00469319
0.00517799
0.00589149
0.00691835
0.00396577
0.00501852
-0.00343659
-0.00455709
-0.00336446
-0.0047288
-0.00571158
-0.00709015
-0.00602722
-0.0164775
-0.0177677
-0.0155829
-0.0126484
-0.0173084
-0.0188323
-0.00277659
-0.00767447
-0.0101373
-0.0112908
-0.00885709
-0.0127171
-0.0146213
-0.0162746
0.00368207
0.00707612
0.00181501
0.0089303
0.00890166
0.0115037
0.0107841
0.00855805
0.00921524
0.0102041
0.011373
0.0115519
0.0116081
0.0108663
0.0042124
0.0046115
0.0049489
0.00636777
0.00542868
0.00766515
0.00432688
-0.00367155
-0.00419718
-0.00536794
-0.00485856
-0.00433095
-0.00523858
-0.00693522
-0.00561851
-0.0170667
-0.0182993
-0.0162857
-0.0147541
-0.0190578
-0.0207594
-0.00361338
-0.00668645
-0.010377
-0.0104134
-0.0124647
-0.00890697
-0.0135497
-0.0152596
-0.0177034
0.00604401
0.0088749
0.00154549
0.010263
0.0108321
0.0125177
0.0119135
0.00945006
0.00825439
0.00990768
0.010694
0.0125541
0.01303
0.0129017
0.0123618
0.00413797
0.00476369
0.00505214
0.00645752
0.00536368
0.00712922
0.00485843
-0.00332102
-0.00340969
-0.00432722
-0.00405107
-0.0051419
-0.00617773
-0.00743455
-0.00570822
-0.0194727
-0.0208082
-0.0187936
-0.0154388
-0.0209477
-0.0193835
-0.0223694
-0.00233911
-0.00812045
-0.0126625
-0.00958885
-0.0108548
-0.0135559
-0.01269
-0.0163013
-0.0177056
0.00606338
0.0081267
0.0107386
-0.000522296
0.00471961
0.0116707
0.0116681
0.0138311
0.0123374
0.0100458
0.00974862
0.00856068
0.0114694
0.0141308
0.0142276
0.0139867
0.0136685
0.00376468
0.0046597
0.00466988
0.00616153
0.00571109
0.00490543
0.00742296
0.00430367
-0.0035579
-0.00593544
-0.00434529
-0.00405748
-0.00468567
-0.00593819
-0.0071294
-0.00495547
-0.0206574
-0.0229394
-0.0205672
-0.0184933
-0.0229336
-0.0212011
-0.0244518
-0.00490174
-0.0104077
-0.0127922
-0.00909854
-0.0118134
-0.0100966
-0.014951
-0.0136371
-0.016418
-0.0193609
0.00929815
0.010078
0.0125044
0.00031959
0.00569795
0.0135559
0.014268
0.0145718
0.0132814
0.0108431
0.00933259
0.010752
0.00802922
0.0115512
0.0154678
0.0155011
0.0153181
0.015208
0.00383397
0.00434547
0.00460407
0.00644207
0.00539424
0.00471552
0.00704869
0.0051883
-0.00319998
-0.00345645
-0.00396381
-0.00348455
-0.00463081
-0.00503078
-0.00628933
-0.00759818
-0.00473336
-0.0233598
-0.0252329
-0.0240445
-0.0192349
-0.0248405
-0.0230823
-0.0212293
-0.0267549
-0.00530372
-0.00971768
-0.0155493
-0.00839418
-0.0118971
-0.0101041
-0.0149322
-0.0134376
-0.0176964
-0.0193439
0.0109056
0.0124354
0.0155657
-0.00154944
0.00353032
0.00906546
0.0152741
0.0157162
0.0145062
0.0141111
0.0123876
0.0096274
0.0112175
0.00815731
0.0170459
0.0168626
0.0163889
0.0164931
0.00405566
0.00396189
0.00428085
0.0061284
0.0049189
0.00560725
0.00434991
0.00732989
-0.00554513
-0.00368784
-0.00388092
-0.00313266
-0.00417406
-0.00473597
-0.00596384
-0.00704283
-0.00413641
-0.0255761
-0.0276363
-0.0264749
-0.0227151
-0.0271106
-0.0248602
-0.023087
-0.0291837
-0.00417783
-0.0112688
-0.0157925
-0.00862643
-0.011166
-0.00931107
-0.0159192
-0.0137536
-0.0174635
-0.0209881
0.0140378
0.0143091
0.0174316
0.000767535
0.00441728
0.0103378
0.0170467
0.016746
0.0157666
0.0145414
0.0127014
0.00911504
0.010294
0.0120764
0.010872
0.0085541
0.0186251
0.0182944
0.0179273
0.0181882
0.00399145
0.00395695
0.00419335
0.0063711
0.00457768
0.0052437
0.00420865
0.00696138
-0.00333274
-0.0033628
-0.00353094
-0.00395424
-0.00413393
-0.00517577
-0.00606765
-0.0076662
-0.00374978
-0.0288178
-0.03069
-0.0298085
-0.0272979
-0.0195414
-0.0256475
-0.0293228
-0.0270559
-0.0248769
-0.0230498
-0.0329154
-0.00585804
-0.0141473
-0.011395
-0.00925241
-0.0155721
-0.0127001
-0.0189117
-0.0208478
0.0160733
0.0167452
0.0191155
0.000160884
0.00727146
0.0133651
0.0188939
0.0179604
0.0160507
0.0143726
0.0135684
0.00939752
0.010239
0.0123797
0.0115345
0.0083181
0.0200598
0.020055
0.0189167
0.0200195
0.00489151
0.00358241
0.00362691
0.00595604
0.00429421
0.00470309
0.00542256
0.00365804
0.00724148
-0.00344441
-0.00308478
-0.00346486
-0.00352358
-0.00381882
-0.00389692
-0.00487984
-0.00565702
-0.00745268
-0.00341066
-0.0320592
-0.0335159
-0.0323128
-0.0216476
-0.0269258
-0.0314449
-0.0295252
-0.0268468
-0.0246786
-0.0361864
-0.00589186
-0.0149694
-0.0105962
-0.00819074
-0.0162392
-0.0129161
-0.0185188
-0.0221144
0.0188797
0.0157191
0.0187191
0.0212719
0.0198995
-0.00254224
0.00391269
0.00757385
0.0139453
0.0185046
0.017067
0.0153171
0.0134017
0.00885351
0.0105998
0.0115878
0.00785542
0.0216591
0.0214138
0.0203641
0.0221325
0.00379729
0.00315977
0.00613612
0.00405947
0.00435484
0.00498541
0.00307816
0.00317957
0.00676584
-0.00468452
-0.0025053
-0.00322915
-0.00326964
-0.00328978
-0.00410808
-0.00332471
-0.00514799
-0.00579378
-0.00650663
-0.00307463
-0.0365216
-0.036225
-0.0350356
-0.0346246
-0.0258075
-0.0191616
-0.0310209
-0.0347225
-0.0298824
-0.0266121
-0.0244992
-0.0388562
-0.00907753
-0.0123212
-0.0102756
-0.00809228
-0.017301
-0.0148264
-0.0117733
-0.0209244
0.0217811
0.0189508
0.0212019
0.0238057
0.0224698
-0.00136908
0.00367377
0.011067
0.0181713
0.0203821
0.0182193
0.0165679
0.0149066
0.0138286
0.00891519
0.010128
0.0121808
0.00805477
0.0231436
0.0214762
0.0233249
0.0236511
0.0052052
0.0036725
0.0056466
0.00413485
0.00460713
0.00396966
0.00507367
0.0029007
0.00339459
0.00694747
-0.00318465
-0.00244979
-0.00298372
-0.00292269
-0.00312595
-0.00304014
-0.003814
-0.00304115
-0.00472559
-0.00479304
-0.00633666
-0.00277966
-0.0395259
-0.04043
-0.0393484
-0.0402374
-0.0282064
-0.0210058
-0.0323231
-0.0365004
-0.0316541
-0.0297356
-0.025684
-0.0432615
-0.00737033
-0.0145682
-0.00953605
-0.00860699
-0.006898
-0.0177271
-0.015448
-0.0127267
-0.021527
0.0236557
0.0230352
0.0221378
0.0263806
0.0243643
-0.00320109
0.00590193
0.0115266
0.0203335
0.0215297
0.019083
0.017368
0.0154944
0.0134281
0.00934357
0.0105962
0.0114809
0.0127958
0.00760799
0.0251914
0.0233673
0.0251184
0.00559542
0.0057882
0.00323434
0.00418924
0.00376477
0.00467373
0.00493177
0.00318548
0.00638583
-0.00493981
-0.0024159
-0.0026678
-0.00270575
-0.00273035
-0.00264978
-0.00400967
-0.00337093
-0.00314884
-0.00271354
-0.00460414
-0.00533645
-0.00248489
-0.0434084
-0.0447206
-0.0426901
-0.0399053
-0.0436328
-0.0284046
-0.0247739
-0.0183736
-0.0361491
-0.0405688
-0.0342134
-0.030193
-0.0241207
-0.0281215
-0.0444195
-0.0458391
-0.0103054
-0.00961602
-0.00778257
-0.00641983
-0.0178069
-0.0145852
-0.011756
-0.0199965
0.0266519
0.0261644
0.024662
0.0275244
0.0278231
0.0271433
-0.000646418
0.00399367
0.0146983
0.020017
0.0247239
0.0229145
0.0204536
0.0185027
0.0171045
0.014498
0.0163231
0.00907952
0.0101201
0.0118133
0.0130326
0.00783665
0.0273011
0.024148
0.0269642
0.00529392
0.00211441
0.00404581
0.00364296
0.00482076
0.0042546
0.00512453
0.00651349
-0.00264519
-0.00228041
-0.00249156
-0.00253712
-0.00255622
-0.00243647
-0.00376107
-0.003184
-0.00268289
-0.00252677
-0.00461237
-0.00425705
-0.00549753
-0.00228769
-0.0464051
-0.04734
-0.0454871
-0.0485008
-0.0328881
-0.0254054
-0.0201347
-0.037149
-0.0419398
-0.0358998
-0.0337187
-0.0245184
-0.0288992
-0.0488318
-0.0509222
-0.0108985
-0.00859587
-0.0103805
-0.00780196
-0.00670058
-0.016676
-0.0147778
-0.0133826
-0.0221866
0.0281399
0.0284856
0.0305692
0.0308619
0.0288412
-0.00276412
0.00667019
0.0181848
0.011171
0.0264399
0.0284594
0.0234489
0.0210726
0.019241
0.0182439
0.0146382
0.0164172
0.0082963
0.0102735
0.0114493
0.0138636
0.00711296
0.0280253
0.0260858
0.0276832
0.00535624
0.000816868
0.00360865
0.00390857
0.0044331
0.003921
0.0052327
0.00601104
-0.00382898
-0.00191992
-0.00235543
-0.00222534
-0.00216066
-0.00216283
-0.00392645
-0.00331863
-0.00259407
-0.00254056
-0.00229467
-0.00390717
-0.00387701
-0.00503535
-0.00206251
-0.050935
-0.0524354
-0.0424711
-0.0505493
-0.0528116
-0.0327902
-0.0287587
-0.0168345
-0.0394258
-0.0479338
-0.0347821
-0.0267869
-0.0320868
-0.0537098
-0.0547074
-0.00711563
-0.00798107
-0.0100278
-0.00681781
-0.00570506
-0.017372
-0.0128501
-0.0215022
0.0313393
0.0324951
0.0328436
0.0334182
0.0317714
0.000893831
0.00505985
0.0208767
0.0134974
0.0292141
0.0329407
0.0224557
0.0249887
0.0203688
0.0183916
0.0155927
0.0172859
0.0083819
0.00963904
0.0119111
0.0139619
0.00709765
0.0301628
0.0275557
0.0261021
0.0300415
0.00482153
0.00330328
0.00343488
0.0037539
0.00450416
0.00400865
0.00359794
0.00612248
-0.00249608
-0.00169838
-0.00205544
-0.00207853
-0.00206132
-0.00193433
-0.00200371
-0.00323112
-0.00289584
-0.00230058
-0.0022608
-0.00199497
-0.00386137
-0.00338612
-0.0048923
-0.00455157
-0.00188935
-0.0549786
-0.0560278
-0.0455337
-0.0548587
-0.0583349
-0.0388167
-0.0295738
-0.0187733
-0.0404931
-0.0499945
-0.0382509
-0.0269456
-0.0330732
-0.0586716
-0.0603982
-0.00814997
-0.00668348
-0.00853901
-0.0110279
-0.00646766
-0.0192736
-0.0154415
-0.0134591
-0.0225189
0.0335867
0.0344937
0.0356498
0.0362321
0.0331314
-0.000828492
0.00950824
0.0177666
0.0251203
0.028152
0.0336713
0.0361046
0.022976
0.0254591
0.0208534
0.0192341
0.0156313
0.0171067
0.0074249
0.00882891
0.0101027
0.0126495
0.0111143
0.0150392
0.0134738
0.0319436
0.0295475
0.0278259
0.032133
0.00482143
0.0048326
0.00293644
0.00269255
0.00413636
0.0036834
0.0032908
0.00576652
-0.00410271
-0.00210508
-0.00163985
-0.00184136
-0.00180569
-0.0019142
-0.00183769
-0.00178805
-0.00305438
-0.00247555
-0.00204558
-0.00232508
-0.00205485
-0.00174435
-0.00397678
-0.00347148
-0.00334194
-0.00469615
-0.00424525
-0.00176184
-0.0602633
-0.0621103
-0.0506769
-0.0596811
-0.0551774
-0.0632112
-0.0370284
-0.0293243
-0.0121323
-0.0243195
-0.044806
-0.0525854
-0.0385099
-0.0248244
-0.0306384
-0.0356231
-0.0653293
-0.0578826
-0.0654593
-0.00652105
-0.00801258
-0.0102054
-0.00557119
-0.0185697
-0.0165104
-0.0128939
-0.0210002
0.0370139
0.0389268
0.0374368
0.036869
0.037779
0.0362318
0.000723646
0.0101692
0.0194221
0.0249927
0.03195
0.0366994
0.0412835
0.0242636
0.0221286
0.0268421
0.0203016
0.0190715
0.0177109
0.00701213
0.00849971
0.00960892
0.0126212
0.0113411
0.0154309
0.014275
0.0338748
0.0314081
0.0281441
0.032839
0.00517164
0.00431387
0.00305737
0.00258917
0.00377399
0.00405681
0.00329749
0.00307804
0.00595862
-0.003412
-0.00173514
-0.00171067
-0.00171223
-0.00163821
-0.00172801
-0.00170148
-0.0016571
-0.00278864
-0.00240331
-0.00173393
-0.00198115
-0.00180253
-0.00148291
-0.00318843
-0.00299326
-0.00262834
-0.00416762
-0.00486659
-0.00348581
-0.00161632
-0.0651625
-0.0664689
-0.0547618
-0.0498888
-0.0663154
-0.0624861
-0.0695303
-0.0428801
-0.0352444
-0.0107951
-0.0228024
-0.0458508
-0.0519827
-0.04276
-0.0261973
-0.031139
-0.0352393
-0.0714741
-0.0636568
-0.0713008
-0.00632001
-0.00566542
-0.00673088
-0.00817238
-0.0112432
-0.00880731
-0.00521933
-0.0153099
-0.0128594
-0.0216697
0.0399055
0.0427486
0.0411267
0.0405023
0.0419532
0.0383184
0.0059678
-0.00430974
0.0168768
0.0291621
0.0331056
0.0425419
0.045776
0.0245051
0.0225873
0.0270386
0.0214478
0.0198303
0.0171706
0.0076502
0.00884909
0.00988373
0.0130323
0.0108365
0.0163383
0.014066
0.0361438
0.0319037
0.0298539
0.0353846
0.00465657
0.00413812
0.00444329
0.00255974
0.00350461
0.00354873
0.00304669
0.00277612
0.00576326
-0.00176626
-0.00151921
-0.00152453
-0.00148353
-0.00142558
-0.00146582
-0.0014768
-0.00248594
-0.00204105
-0.00157025
-0.00170688
-0.00198171
-0.00183569
-0.00158502
-0.00135158
-0.00134131
-0.00307859
-0.00265697
-0.00240739
-0.00374152
-0.00400544
-0.00310683
-0.00326711
-0.00122491
-0.0704513
-0.0726763
-0.0593571
-0.0540569
-0.0667802
-0.0707049
-0.0660046
-0.0746296
-0.0355321
-0.0156729
-0.0278324
-0.0532179
-0.0440704
-0.0292377
-0.0242747
-0.0376849
-0.0720346
-0.0771951
-0.0616004
-0.0682857
-0.0769182
-0.00531871
-0.00507176
-0.00644632
-0.00725798
-0.0102931
-0.00863615
-0.00474676
-0.0161488
-0.0134444
-0.0113103
-0.0197028
0.044315
0.0480503
0.0445257
0.0430964
0.044275
0.040856
0.00854625
-0.00370973
0.0185325
0.0298819
0.0384432
0.0446365
0.0522293
0.0256712
0.0235259
0.0279555
0.0214354
0.0191167
0.0206563
0.0179699
0.00731637
0.00836037
0.00942693
0.0124679
0.0113465
0.0162077
0.01452
0.0366585
0.0333952
0.029906
0.0362918
0.00474111
0.00364494
0.00274259
0.00317741
0.00322825
0.00274389
0.00253532
0.00616697
0.00515449
-0.00248299
-0.00143508
-0.00139726
-0.00133707
-0.00133557
-0.00140568
-0.00138282
-0.00138369
-0.0021096
-0.0018359
-0.00137611
-0.00144124
-0.00164861
-0.00162041
-0.00137614
-0.00116392
-0.00115048
-0.00253942
-0.00265325
-0.00254338
-0.00211078
-0.00345738
-0.00392034
-0.00277078
-0.00293688
-0.00163747
-0.00126098
-0.0766136
-0.0613111
-0.0552493
-0.0734396
-0.0763422
-0.0724625
-0.0809906
-0.0432245
-0.0130434
-0.0279749
-0.0575312
-0.0480315
-0.0414755
-0.0294436
-0.0240145
-0.0362068
-0.0794277
-0.0837092
-0.0676107
-0.0717472
-0.0829603
-0.00500857
-0.00473491
-0.00543305
-0.00638591
-0.00698956
-0.00906251
-0.00758565
-0.00425642
-0.0147743
-0.0176751
-0.0127021
-0.0105041
-0.0212697
0.0481329
0.0528624
0.0478801
0.0470595
0.0433497
0.0482208
0.0398574
0.00662971
0.00138884
0.0232061
0.0280961
0.0384504
0.0492559
0.0569321
0.0256573
0.023722
0.028666
0.0269825
0.02289
0.019679
0.0211026
0.0175635
0.00688338
0.00828168
0.00997827
0.0128474
0.0108894
0.0155839
0.013979
0.0334468
0.0348723
0.031837
0.038416
0.00420947
0.00334279
0.00350942
0.00349971
0.00289315
0.00295112
0.0025913
0.00214811
0.00574219
0.00487869
-0.00126838
-0.00120088
-0.00121533
-0.00121346
-0.00124479
-0.00120903
-0.00119757
-0.00183699
-0.00206032
-0.00157577
-0.00125604
-0.00137403
-0.00134537
-0.00151599
-0.00140895
-0.00117511
-0.00107177
-0.00106839
-0.00105987
-0.00236401
-0.00212186
-0.00226411
-0.00198176
-0.00316194
-0.00359082
-0.00228724
-0.00281659
-0.00259608
-0.00220566
-0.000998975
-0.0819529
-0.0703801
-0.0504383
-0.0647458
-0.0782527
-0.0806312
-0.0760526
-0.0861365
-0.0354606
-0.0159758
-0.0227261
-0.0586721
-0.0480742
-0.0431422
-0.0265775
-0.0322747
-0.0407683
-0.0807872
-0.085362
-0.0880254
-0.0673392
-0.076488
-0.0882317
-0.00429877
-0.00433754
-0.00513595
-0.00575092
-0.00605996
-0.00856741
-0.00721644
-0.00413747
-0.0129338
-0.0149213
-0.0181376
-0.0110154
-0.00909899
-0.0203517
0.0521638
0.0581409
0.0515636
0.0497776
0.0457996
0.0510626
0.0412111
0.0121694
1.6134e-05
0.0198387
0.0336288
0.0432921
0.0533421
0.0488043
0.0643253
0.0248077
0.0288913
0.0271079
0.0232744
0.0191691
0.0218628
0.0179643
0.0071249
0.00783925
0.00939871
0.0121795
0.0112463
0.016261
0.0143651
0.0347265
0.0366199
0.031855
0.0400534
0.0385359
0.0037012
0.00409025
0.00309132
0.00310658
0.00232228
0.0026575
0.00270968
0.00235514
0.00209179
0.00582441
0.00502719
-0.00114815
-0.00110263
-0.00104397
-0.00109052
-0.00112591
-0.00106544
-0.00106051
-0.0015752
-0.00174657
-0.00141073
-0.00111736
-0.00116288
-0.00114883
-0.00114671
-0.00129618
-0.00125638
-0.00106444
-0.000878451
-0.000902973
-0.000874493
-0.00198286
-0.00196962
-0.00200827
-0.00152793
-0.00336028
-0.00344391
-0.00215482
-0.00178654
-0.00272928
-0.00117691
-0.0867967
-0.0714748
-0.076276
-0.0529043
-0.068682
-0.0834648
-0.0862025
-0.0814749
-0.0916767
-0.0382879
-0.0114455
-0.0246617
-0.0630237
-0.0552828
-0.0509639
-0.0257216
-0.0326181
-0.0406593
-0.08648
-0.0909081
-0.0945665
-0.0730161
-0.077118
-0.0920067
-0.00400281
-0.00408388
-0.00431171
-0.00439093
-0.00551304
-0.00574342
-0.00755165
-0.00623988
-0.00326983
-0.0113748
-0.0133263
-0.0163591
-0.0100831
-0.00842587
-0.0205332
0.0564952
0.0629058
0.0551225
0.0544126
0.0494277
0.0440414
0.0558767
0.00904928
-0.00490563
0.023754
0.0315748
0.0423295
0.0588345
0.0545593
0.0660503
0.0689328
0.0251169
0.0294323
0.0261991
0.0226783
0.0244809
0.0198351
0.0215322
0.017456
0.00658836
0.00783006
0.0106365
0.00870311
0.0122828
0.015714
0.0135685
0.0364318
0.0342101
0.0306736
0.0416421
0.040482
0.00319716
0.00364586
0.00275274
0.00288139
0.0034191
0.00241854
0.00240568
0.00229148
0.00165989
0.00529161
0.00463881
-0.000998443
-0.000990659
-0.000999031
-0.000936344
-0.000962024
-0.000987644
-0.000933737
-0.000827196
-0.001662
-0.00143574
-0.00112766
-0.00097727
-0.000962196
-0.00107181
-0.00104472
-0.00117793
-0.00106183
-0.000917781
-0.000798518
-0.000854233
-0.000840443
-0.000736714
-0.00189956
-0.00163477
-0.00166854
-0.00126419
-0.00220806
-0.0028079
-0.0031161
-0.00186492
-0.00212303
-0.00141295
-0.00265325
-0.00189594
-0.0929409
-0.0807653
-0.0822553
-0.0462904
-0.0620235
-0.0797913
-0.0838946
-0.0875819
-0.0910494
-0.0860638
-0.0971954
-0.031726
-0.0163633
-0.0631804
-0.0575093
-0.0490438
-0.0272094
-0.0222968
-0.0363914
-0.0298475
-0.0427707
-0.0867498
-0.0915906
-0.0953166
-0.096599
-0.0971477
-0.0738443
-0.0825943
-0.0938227
-0.00321001
-0.00362227
-0.00367153
-0.00427196
-0.00474569
-0.00488456
-0.00689717
-0.00582708
-0.0117416
-0.00989876
-0.0129437
-0.0158029
-0.00883008
-0.00720571
-0.0179845
0.0602622
0.0667343
0.0593976
0.0576587
0.0513707
0.0456469
0.0586101
0.0115111
-0.00182465
0.0195966
0.0376317
0.0476821
0.065089
0.0567869
0.0746187
0.0758649
0.0285924
0.026506
0.0233855
0.024989
0.0207869
0.0192476
0.0227951
0.0179868
0.00653758
0.00708603
0.0106054
0.00874828
0.0114428
0.0160991
0.0136906
0.038137
0.0348837
0.0311812
0.0437024
0.0405051
0.00316594
0.00302924
0.00380182
0.00333958
0.00239429
0.00254604
0.0020857
0.00230148
0.00217338
0.00213575
0.00154678
0.00475101
0.00532081
0.00427951
-0.000892935
-0.000876541
-0.000886116
-0.000861917
-0.000801363
-0.000857505
-0.000877106
-0.00079595
-0.00100857
-0.00132667
-0.00134259
-0.00101232
-0.000923775
-0.000873358
-0.000926407
-0.000874904
-0.00100622
-0.000950648
-0.000804814
-0.000642082
-0.000736746
-0.000704971
-0.000625636
-0.000711705
-0.00141058
-0.00161671
-0.0015459
-0.00142867
-0.0011599
-0.00228444
-0.00257281
-0.00293185
-0.00158531
-0.00160813
-0.0019023
-0.00171254
-0.0977996
-0.0861673
-0.086402
-0.0488356
-0.0633505
-0.0837359
-0.0900127
-0.0941506
-0.0982999
-0.0920816
-0.102725
-0.0331857
-0.0166789
-0.0652841
-0.0545828
-0.0457255
-0.025394
-0.0214668
-0.0371297
-0.0309098
-0.0415597
-0.0934037
-0.0950912
-0.10209
-0.101961
-0.103519
-0.0695272
-0.0799135
-0.0843336
-0.100836
-0.00293839
-0.0031626
-0.00324835
-0.00362408
-0.00451533
-0.00432001
-0.00594052
-0.00471312
-0.00996955
-0.0090114
-0.011078
-0.0142861
-0.00789131
-0.00635758
-0.0186705
0.0649538
0.0730689
0.0629453
0.0630384
0.0484479
0.0544063
0.0574477
0.0639631
0.00656662
-0.00773906
0.0222132
0.0354725
0.0450192
0.0541639
0.0687249
0.0643832
0.0814059
0.0777806
0.0799682
0.0274072
0.0291489
0.0258925
0.0242732
0.0212675
0.0202635
0.0230377
0.0174738
0.00585668
0.00699774
0.00987639
0.00816851
0.0114106
0.0150792
0.0130137
0.0378294
0.0363929
0.0336432
0.0322303
0.0301116
0.0447759
0.0419719
0.00277875
0.00276182
0.00318186
0.00298514
0.00235248
0.00219287
0.00234393
0.00346577
0.00206986
0.00196779
0.00191196
0.00176497
0.00428028
0.00480116
0.00400236
-0.000776709
-0.000759773
-0.000774091
-0.000744205
-0.000716015
-0.000736577
-0.000745558
-0.000761965
-0.000712232
-0.00132435
-0.00102342
-0.000863725
-0.000784949
-0.000735171
-0.000825674
-0.000735375
-0.000732835
-0.000818129
-0.000749998
-0.000654372
-0.000545894
-0.000726117
-0.000684864
-0.000479236
-0.000648687
-0.00117417
-0.00116062
-0.00107515
-0.000857529
-0.00237793
-0.00219806
-0.00276258
-0.00136302
-0.000225723
-0.000920417
-0.00257018
-0.103187
-0.0949532
-0.0952142
-0.0424184
-0.0569594
-0.0733166
-0.0953573
-0.0948084
-0.103589
-0.0967867
-0.109993
-0.0252413
-0.0620591
-0.0550121
-0.0474139
-0.0266663
-0.0219821
-0.034054
-0.0296961
-0.0413539
-0.0948808
-0.0995369
-0.102973
-0.108392
-0.105246
-0.104111
-0.108509
-0.0708375
-0.0806397
-0.0906578
-0.00266271
-0.0025941
-0.00287154
-0.00351363
-0.00384234
-0.00352538
-0.00508531
-0.00426758
-0.0086252
-0.00825144
-0.0104774
-0.0137331
-0.00665055
-0.00534451
-0.0166618
0.0686116
0.0777681
0.0665815
0.0490702
0.0536017
0.0604081
0.067943
0.0119552
-0.00616046
0.0284048
0.0426319
0.0508413
0.0598475
0.075179
0.067873
0.0877331
0.0858333
0.0880777
0.0274052
0.0283268
0.0260969
0.0245615
0.0222659
0.0200422
0.0241002
0.0181219
0.00561749
0.00754365
0.00603806
0.00979901
0.00831889
0.0120512
0.0157484
0.0132311
0.0396235
0.036831
0.0351357
0.0321948
0.0300455
0.0436288
0.0472512
0.0412403
0.00252803
0.00241347
0.00309352
0.00304745
0.00257852
0.00213791
0.00197223
0.0020816
0.00188441
0.00177294
0.00161148
0.00251926
0.00418638
0.0046607
0.00364796
-0.000669034
-0.000595932
-0.000673613
-0.000612287
-0.0005942
-0.000623705
-0.000634291
-0.000702401
-0.000673638
-0.000544349
-0.000808089
-0.000809653
-0.000705344
-0.000729504
-0.000673547
-0.000673675
-0.000686495
-0.000587399
-0.00069643
-0.000558224
-0.000591761
-0.000499369
-0.000621748
-0.000504018
-0.000569468
-0.00037797
-0.00084381
-0.000890529
-0.000941474
-0.00096018
-0.000832264
-0.00230692
-0.00216773
-0.00230849
-0.00166618
0.000345948
-0.00189755
-0.00240977
-0.108391
-0.0975483
-0.100304
-0.100698
-0.0446729
-0.0609908
-0.0719946
-0.0933972
-0.10569
-0.100582
-0.108388
-0.112502
-0.114445
-0.0255073
-0.0576668
-0.0664916
-0.051266
-0.0444152
-0.0239224
-0.019509
-0.0373328
-0.029624
-0.101915
-0.104457
-0.111744
-0.113253
-0.110835
-0.109643
-0.114244
-0.0752276
-0.086585
-0.0918749
-0.00270622
-0.00243517
-0.00193444
-0.00234518
-0.00267075
-0.00332324
-0.00271455
-0.00340472
-0.0078781
-0.00659282
-0.0116684
-0.00850057
-0.014538
-0.0059386
-0.00444666
-0.0169587
0.0738359
0.0832136
0.0712218
0.0510221
0.0567852
0.0635744
0.0676026
0.0735682
0.0107396
-0.0149427
0.00273695
0.0278225
0.0495571
0.0392459
0.0588406
0.079456
0.0751704
0.095196
0.0877126
0.0917992
0.0950733
0.0269683
0.028385
0.0265639
0.0253832
0.0224898
0.0215351
0.0190866
0.0244812
0.0172556
0.0049327
0.00699269
0.0055816
0.00910832
0.00778466
0.0111504
0.0151054
0.0139796
0.0121062
0.0397496
0.0379956
0.0346111
0.0309471
0.0331077
0.0290589
0.0448874
0.0480187
0.0435801
0.00228523
0.0022074
0.00330711
0.00287193
0.0026616
0.00229947
0.00194604
0.00177046
0.00185704
0.0016869
0.00156907
0.00131313
0.00168708
0.00349611
0.00403957
0.00365984
-0.000581088
-0.000545533
-0.000591938
-0.000506716
-0.00050723
-0.000545823
-0.000554309
-0.000606859
-0.000599952
-0.000520661
-0.00104393
-0.000662532
-0.00062319
-0.000618652
-0.000615669
-0.000573002
-0.000485677
-0.000492358
-0.00057498
-0.00045038
-0.000520779
-0.000371079
-0.000571831
-0.00032027
-0.000474214
-0.000558796
-0.000811525
-0.000728271
-0.000559466
-0.00061107
-0.000651054
-0.00118283
-0.00165778
-0.00200347
-0.00061142
0.000162635
-0.00272534
0.00015315
-0.000199699
-0.112319
-0.107243
-0.108335
-0.112109
-0.0545285
-0.035749
-0.0804371
-0.105533
-0.117644
-0.106866
-0.110233
-0.120784
-0.122866
-0.0224357
-0.0570606
-0.0649067
-0.0523254
-0.0441454
-0.0204907
-0.0264174
-0.0353676
-0.0317805
-0.106826
-0.113247
-0.120362
-0.112792
-0.119622
-0.0750338
-0.0868187
-0.0982935
-0.00202678
-0.00186565
-0.00193111
-0.00153656
-0.00181099
-0.00272407
-0.00203156
-0.00310604
-0.00603501
-0.00742792
-0.00550067
-0.0103935
-0.00862678
-0.0126944
-0.00473892
-0.00330553
-0.0153253
0.0753245
0.0849876
0.0510204
0.0566099
0.0634192
0.0715217
0.0787875
0.0204867
-0.00719653
0.0040091
0.0580297
0.0423444
0.0650055
0.0879167
0.0780068
0.103294
0.095413
0.0999998
0.101454
0.0272152
0.0276994
0.0265804
0.0256996
0.0236717