/*--------------------------------*- C++ -*----------------------------------*\
| =========                 |                                                 |
| \\      /  F ield         | OpenFOAM: The Open Source CFD Toolbox           |
|  \\    /   O peration     | Version:  v2012                                 |
|   \\  /    A nd           | Website:  www.openfoam.com                      |
|    \\/     M anipulation  |                                                 |
\*---------------------------------------------------------------------------*/
FoamFile
{
    version     2.0;
    format      ascii;
    class       volVectorField;
    location    "3";
    object      U_0;
}
// * * * * * * * * * * * * * * * * * * * * * * * * * * * * * * * * * * * * * //

dimensions      [0 1 -1 0 0 0 0];


internalField   nonuniform List<vector> 
11941
(
(1.00006 0.000131473 -8.14732e-24)
(1.00009 0.000270745 3.23194e-24)
(1.00015 0.000237284 1.10027e-23)
(1.00015 0.000549185 -4.53581e-25)
(1.00003 0.000120525 0)
(1.00018 0.00054321 -4.32924e-24)
(1.00009 6.54229e-05 1.79594e-23)
(1.00012 0.000610891 -1.40103e-24)
(1.00021 0.000681308 3.94832e-24)
(1.00005 0.00029821 1.25156e-24)
(1.0003 0.000612254 0)
(1.00019 0.000192366 -7.513e-24)
(1.00024 0.00094257 2.63803e-24)
(1.00009 0.000488682 -3.67854e-24)
(1.0003 0.000837763 0)
(1.00001 0.000131814 -1.99173e-24)
(1.00034 0.000641129 0)
(1.00018 0.000272592 0)
(1.00032 0.000993207 0)
(1.00014 0.000959775 -6.80305e-25)
(1.00014 0.000665457 1.16417e-24)
(1.00041 0.00106162 0)
(1.00004 0.00031512 1.96712e-25)
(1.00033 0.000582997 -1.62323e-23)
(1.00051 0.000980403 0)
(1.00016 5.04595e-05 0)
(1.00036 0.00124682 0)
(1.00014 0.00109581 -1.11497e-26)
(1.00006 0.000587518 5.97669e-25)
(1.00048 0.00122724 0)
(1 0.000187352 2.94363e-24)
(1.00039 0.000592773 5.79683e-24)
(1.00064 0.00100567 0)
(1.00022 0.000317315 -1.40894e-23)
(1.00033 0.00138957 -5.77655e-25)
(1.00022 0.00131477 -1.0972e-24)
(1.00006 0.00106591 4.15014e-25)
(1.00002 0.000735115 -2.16377e-24)
(1.00059 0.00133374 1.26813e-23)
(0.999969 0.000294203 -3.44314e-24)
(1.00025 0.000478135 8.81648e-25)
(1.00053 0.000825409 7.07892e-24)
(1.00077 0.00108036 0)
(1.0003 0.000100563 2.54908e-23)
(1.00041 0.00155153 5.52459e-24)
(1.00016 0.00147359 -2.03658e-26)
(1.00003 0.00114764 0)
(1.00002 0.000674515 6.77747e-25)
(1.00074 0.00144737 1.93692e-24)
(1.00055 0.00161189 0)
(0.999991 8.22939e-05 -6.13953e-24)
(0.999993 0.000521233 -1.36115e-24)
(1.00034 0.000479143 0)
(1.00064 0.000718374 1.10345e-24)
(1.00085 0.00140804 -8.82663e-24)
(1.00091 0.00102247 4.61919e-24)
(1.00044 -0.000128916 -2.56126e-23)
(1.00035 0.00175521 -3.61161e-24)
(1.00017 0.00174974 -7.69735e-25)
(1.00003 0.00137505 1.00529e-24)
(0.999995 0.00106365 0)
(1.00076 0.00155968 -9.29816e-24)
(1.00061 0.00171137 1.9848e-23)
(0.999989 0.000301289 1.01037e-23)
(0.999967 0.000519839 -5.54369e-24)
(1.00042 0.000465927 0)
(1.00078 0.000712435 -1.10254e-24)
(1.001 0.00140791 1.37114e-23)
(1.00092 0.00098247 -4.42813e-24)
(1.00114 0.00127861 -1.98742e-23)
(1.00033 -2.79724e-05 0)
(1.00043 0.00194485 -4.3354e-24)
(1.00006 0.00179315 -4.20954e-25)
(0.999934 0.00161249 0)
(0.999858 0.00109981 7.00625e-24)
(1.00095 0.00196157 1.77471e-23)
(1.00069 0.0019823 -4.8948e-24)
(0.999963 0.000180928 -3.05701e-24)
(0.999907 0.000678168 6.7819e-24)
(1.00056 0.000453077 0)
(1.00076 0.0005143 0)
(1.00126 0.00178195 -2.79754e-23)
(1.00108 0.000803422 0)
(1.00137 0.00113408 -2.00696e-24)
(1.00039 0.000184164 9.26009e-24)
(1.00034 0.00215458 4.80979e-24)
(0.999951 0.00170253 0)
(1.0001 0.00217136 8.5982e-25)
(0.999792 0.00144359 -1.76899e-23)
(0.999839 0.0011421 4.50595e-24)
(1.00082 0.00201615 -1.66604e-23)
(0.99991 0.000316682 0)
(0.999898 0.000735376 -9.37607e-24)
(1.00046 0.000418128 1.87355e-23)
(1.00095 0.000576728 3.99376e-23)
(1.00149 0.00181769 3.19476e-24)
(1.00133 0.000932252 -1.88443e-23)
(1.00163 0.00146826 3.55597e-23)
(1.00057 -0.000288461 1.50447e-23)
(1.00048 0.00236023 -3.73437e-24)
(0.999818 0.00193651 -3.77006e-24)
(0.999909 0.00216809 -2.01184e-24)
(0.99961 0.00152217 1.62448e-23)
(0.999809 0.00109029 -1.56877e-23)
(1.00083 0.00222885 9.05159e-24)
(0.999942 0.000130533 0)
(0.999883 0.000567111 7.82985e-24)
(1.00059 0.000243311 -2.03912e-23)
(1.00105 0.000414891 -1.76946e-23)
(1.00152 0.00195908 5.62725e-25)
(1.0015 0.000706526 -1.88451e-24)
(1.00199 0.00133094 -5.10926e-23)
(1.00048 2.27738e-05 1.08774e-23)
(1.00034 0.00267183 3.6177e-24)
(0.999587 0.00189734 8.42864e-24)
(0.99984 0.00228415 0)
(0.999524 0.00162446 -4.54914e-24)
(0.99962 0.00134127 0)
(0.999717 0.00109612 9.04009e-24)
(1.00114 0.00229331 -1.69429e-23)
(0.999877 0.000251773 4.00313e-24)
(0.999823 0.000648255 -1.07355e-23)
(1.00037 0.000151434 -1.60554e-23)
(1.00086 0.000208304 4.29241e-24)
(1.0013 0.000446778 1.52727e-24)
(1.00195 0.00216261 1.5734e-23)
(1.00135 0.00229026 2.07276e-23)
(1.00176 0.000716311 1.30084e-23)
(1.00197 0.000983049 0)
(1.00223 0.00159117 4.74801e-23)
(1.00067 -0.000594686 -3.06459e-24)
(1.00057 0.003105 0)
(0.999945 0.00276434 3.51121e-24)
(0.999473 0.00217476 -1.55953e-23)
(0.999553 0.00222585 1.0317e-23)
(0.999367 0.0016584 1.32035e-23)
(0.99946 0.00132187 0)
(0.999736 0.000885642 -1.41658e-24)
(1.00118 0.00311579 0)
(0.999846 0.000505341 2.80907e-23)
(0.99992 6.81422e-05 -3.65068e-24)
(1.00052 3.92805e-05 -5.83805e-24)
(1.00092 0.000143447 1.65233e-23)
(1.00145 0.000180389 1.90478e-24)
(1.0023 0.00186103 -1.47953e-23)
(1.00197 0.00264964 -9.25847e-24)
(1.00157 0.00284432 0)
(1.00187 0.000267539 5.07692e-23)
(1.00228 0.000843612 0)
(1.00261 0.00118383 2.2553e-23)
(1.00041 -0.000624096 3.21739e-23)
(1.00034 0.00340134 1.49891e-24)
(0.999729 0.00291684 5.83067e-25)
(0.999198 0.00198495 1.54053e-24)
(0.999329 0.00271517 -1.67682e-23)
(0.999212 0.00164529 0)
(0.999318 0.00131297 0)
(0.999547 0.0010497 1.85776e-24)
(0.999641 0.000922957 -1.63174e-23)
(1.00145 0.00306143 0)
(0.999804 0.00052036 -3.13012e-23)
(0.999852 0.000269007 1.3903e-23)
(1.0008 4.67928e-05 -1.21985e-23)
(1.00099 7.63334e-06 -2.05564e-23)
(1.00119 4.23106e-05 0)
(1.00173 0.000134144 2.08018e-24)
(1.00282 0.00213807 -2.59928e-23)
(1.00235 0.00298621 9.67119e-26)
(1.0024 0.000384985 -4.23623e-23)
(1.00302 0.00104879 3.04995e-23)
(1.00027 0.000415519 -3.14269e-23)
(1.00057 0.00396291 -4.12505e-24)
(0.999795 0.00336209 6.83535e-24)
(0.998916 0.00198475 -1.34582e-23)
(0.998992 0.00275773 8.57552e-24)
(0.998954 0.00143388 0)
(0.999204 0.00115081 -2.13621e-23)
(0.999398 0.000988356 -1.88664e-23)
(0.999733 0.000674281 1.50522e-23)
(1.00164 0.00364535 2.34865e-23)
(0.999771 0.000302726 1.62445e-23)
(1.00077 -0.000155647 0)
(1.0009 -0.000183825 3.19124e-23)
(1.00129 -0.000269259 0)
(1.00186 -8.25898e-05 -2.8033e-23)
(1.00276 0.00278009 1.38253e-23)
(1.00329 0.00183447 4.29861e-23)
(1.00234 0.00352024 -2.96207e-23)
(1.00272 0.000187531 -6.24261e-23)
(1.00312 0.000291821 6.17685e-23)
(1.00329 0.00145508 -7.75592e-23)
(1.00118 -0.000591108 1.66309e-23)
(1.00033 0.000286012 2.57369e-23)
(1.00013 0.00443988 2.29125e-24)
(1.00126 0.00402877 -8.05158e-24)
(0.99941 0.00368291 -1.31574e-23)
(0.998689 0.00161084 -1.01787e-24)
(0.998788 0.00234623 2.46974e-23)
(0.998863 0.0030648 -1.51576e-23)
(0.998984 0.00128194 5.75167e-25)
(0.999261 0.00104137 1.9091e-23)
(0.999521 0.000817131 2.29964e-23)
(0.999607 0.000724599 -5.06548e-24)
(0.99977 0.000387628 1.39056e-24)
(0.999845 9.68317e-06 -6.12964e-25)
(1.00077 -0.000191195 -4.56585e-23)
(1.00101 -0.000419076 0)
(1.00152 -0.000456404 0)
(1.00216 -0.000416666 0)
(1.00324 0.00311375 -1.94534e-23)
(1.0038 0.00218434 1.04614e-23)
(1.00272 0.00418744 -2.72574e-23)
(1.00267 -0.000146318 6.24101e-23)
(1.00357 0.000355518 -6.57861e-23)
(1.0037 0.000938721 4.64767e-23)
(1.00085 -0.0016578 -4.20861e-23)
(1.00008 -0.000309513 0)
(1.00036 0.00519283 9.66564e-25)
(0.999596 0.00434016 6.39323e-24)
(1.00162 0.00482779 -3.6124e-24)
(0.999024 0.00363335 0)
(0.998387 0.00157979 0)
(0.998344 0.00225112 -3.0304e-23)
(0.998362 0.00302833 1.63397e-23)
(0.998827 0.0010991 -1.84281e-23)
(0.999187 0.00093883 0)
(0.999444 0.000765635 0)
(0.999695 0.000507865 1.69964e-23)
(0.999759 0.000385416 -1.3543e-23)
(0.999823 0.000140658 2.40851e-23)
(1.00066 -0.000534221 3.0238e-23)
(1.00092 -0.000549444 2.487e-23)
(1.00153 -0.000600473 0)
(1.00204 -0.000788938 0)
(1.0038 0.00265532 -4.03335e-23)
(1.00355 0.00417705 4.31947e-23)
(1.00429 0.00188442 -5.77721e-23)
(1.00242 0.00475929 -1.29757e-23)
(1.00296 -0.000815812 -3.80124e-23)
(1.00392 -0.000139697 6.32075e-23)
(1.00426 0.0011994 -4.67399e-23)
(1.00043 -0.000582374 1.59008e-23)
(1.00009 -0.000264696 0)
(1.0011 0.00529572 -3.80227e-24)
(0.999846 0.00571916 4.70625e-26)
(0.999166 0.00465927 4.9845e-24)
(0.998638 0.00397517 -1.93521e-23)
(0.99826 0.00130506 -6.90655e-24)
(0.998223 0.00188501 0)
(0.998104 0.00285889 0)
(0.998033 0.00356484 0)
(0.999019 0.000822004 2.31716e-23)
(0.998538 0.000983348 0)
(0.999329 0.000752561 1.20213e-23)
(0.999587 0.000585122 -1.29194e-23)
(0.999697 0.000388662 -1.11964e-23)
(0.999808 -1.58319e-07 0)
(1.00074 -0.000687238 -2.45819e-23)
(1.00102 -0.000698674 -2.93034e-23)
(1.00128 -0.00074609 0)
(1.00166 -0.000945018 0)
(1.00229 -0.0011129 -2.65674e-23)
(1.00443 0.00343908 4.36198e-23)
(1.0041 0.00413793 -1.80598e-23)
(1.00494 0.00222226 7.64327e-23)
(1.00294 0.00561155 1.56617e-23)
(1.00361 -0.000762971 -4.88216e-23)
(1.00268 -0.00111026 6.92212e-23)
(1.00457 5.58544e-05 0)
(1.00474 0.00068736 6.07858e-23)
(1.00077 -0.00180854 1.63557e-23)
(1.00049 -0.000476532 1.3512e-23)
(1.00147 0.0063331 4.62125e-24)
(0.999947 0.00646342 -6.73561e-26)
(0.99926 0.00553158 2.10089e-24)
(0.998615 0.00445732 1.93457e-23)
(0.99781 0.00125046 1.18333e-23)
(0.998395 0.00104676 0)
(0.997809 0.00195398 -2.6387e-23)
(0.997586 0.00254841 0)
(0.997482 0.00373757 1.46518e-23)
(0.999021 0.000670862 0)
(0.998637 0.00050582 -5.43001e-23)
(0.999329 0.000662536 -1.17892e-23)
(0.999549 0.000527161 -1.15541e-23)
(0.99977 0.000363625 0)
(0.999788 0.000203716 0)
(1.00077 -0.000797142 2.34376e-23)
(1.00091 -0.00104361 3.892e-24)
(1.00126 -0.00114169 -2.45e-23)
(1.00156 -0.00113171 0)
(1.00201 -0.00168163 -6.56912e-23)
(1.00532 0.00323782 0)
(1.0045 0.00478162 0)
(1.0055 0.00159276 0)
(1.00227 0.00637945 0)
(1.00388 0.00571252 0)
(1.0039 -0.0015061 -3.48736e-23)
(1.00281 -0.00151862 8.53583e-23)
(1.00498 -0.000636946 5.20887e-23)
(1.00539 0.000990435 -6.8281e-23)
(1.00013 -0.00123584 -3.72338e-23)
(1.00068 0.00673842 0)
(0.999261 0.00725446 5.96137e-24)
(0.998586 0.00570537 -1.01621e-23)
(0.998056 0.0049364 0)
(0.997606 0.00072442 0)
(0.997515 0.00179622 2.44749e-23)
(0.998143 0.000617528 1.95732e-23)
(0.997131 0.00256771 3.54327e-23)
(0.997033 0.00351225 -7.60198e-23)
(0.997392 0.00438719 0)
(0.99922 0.000565668 0)
(0.998897 0.000474952 3.3809e-23)
(0.998408 0.000377806 0)
(0.999474 0.000514986 1.15739e-23)
(0.999696 0.000332357 0)
(0.999656 -7.9566e-05 0)
(1.00072 -0.00104512 -4.42916e-23)
(1.00108 -0.0011756 1.88695e-23)
(1.00073 -0.00106399 4.04016e-23)
(1.0016 -0.00160586 1.69491e-23)
(1.00226 -0.00179603 3.78039e-23)
(1.00587 0.00324234 4.12851e-23)
(1.00567 0.00499531 8.49439e-23)
(1.00641 0.00243865 0)
(1.00266 0.00788373 -4.08181e-24)
(1.00433 0.00684527 2.22156e-24)
(1.00359 -0.00192985 -9.79206e-25)
(1.00469 -0.00131457 4.43808e-23)
(1.00295 -0.00211142 -5.71263e-23)
(1.00579 -0.000518667 4.56453e-23)
(1.00597 0.000597176 -6.11666e-24)
(1.00031 -0.00037611 -2.4185e-23)
(1.00084 0.00811054 0)
(0.999316 0.00810213 -6.04934e-24)
(0.998646 0.00712666 0)
(0.998138 0.00546438 -2.07956e-24)
(0.997073 0.000897404 -3.35469e-23)
(0.997778 0.000551922 -1.63033e-23)
(0.997054 0.00149033 0)
(0.996759 0.00232814 2.48604e-23)
(0.996419 0.00340619 2.0901e-23)
(0.996699 0.0048387 0)
(0.999273 0.000447063 -1.25863e-23)
(0.99896 0.000290209 3.52038e-23)
(0.998355 8.67959e-05 1.32588e-23)
(0.999521 0.000415946 0)
(0.999756 0.000303133 0)
(0.999745 0.000131434 0)
(1.00022 -0.000823873 2.7844e-23)
(1.00109 -0.0014835 -1.36486e-23)
(1.00065 -0.00132999 -6.09558e-24)
(1.00131 -0.00170733 6.38273e-24)
(1.00211 -0.00230863 0)
(1.00635 0.00395571 -7.65389e-23)
(1.00603 0.00572395 -7.2778e-23)
(1.00724 0.00175967 5.00783e-23)
(1.00161 0.00851636 4.53557e-24)
(1.00369 0.00798847 -2.19261e-24)
(1.00545 0.00683565 0)
(1.00386 -0.00275774 3.78907e-23)
(1.00516 -0.00210308 2.09974e-24)
(1.00262 -0.00250432 6.36193e-23)
(1.00653 -0.000874852 -1.08206e-22)
(1.00681 0.000914701 -6.45574e-23)
(1.00077 -0.00232593 1.3754e-23)
(0.998726 0.00909548 4.77574e-24)
(0.997487 0.00730639 -3.10922e-23)
(0.997602 0.00587889 1.91261e-23)
(0.996675 0.000425738 9.18379e-23)
(0.997658 9.63118e-05 0)
(0.996657 0.00185659 0)
(0.996272 0.00272345 -2.6831e-23)
(0.995924 0.0040634 -3.62293e-23)
(0.996083 0.00458665 0)
(0.996828 0.00547347 -1.6163e-23)
(0.99915 0.000252908 -1.41271e-23)
(0.999425 0.000340486 -1.23665e-23)
(0.998832 0.000118064 0)
(0.998695 -0.000169735 0)
(0.99807 -0.000336069 -1.61753e-23)
(0.999673 0.000222299 -2.31535e-23)
(0.999543 -0.000244876 -2.00512e-23)
(1.00016 -0.000820736 0)
(1.00073 -0.00159355 1.21756e-23)
(1.00016 -0.00114164 2.68063e-23)
(1.00125 -0.00189128 -3.32766e-23)
(1.00176 -0.00237015 -3.20886e-23)
(1.00773 0.00411621 -1.64482e-23)
(1.00723 0.00618535 1.28526e-22)
(1.0082 0.00208718 -1.64282e-23)
(1.0014 0.00987939 2.09537e-23)
(1.0042 0.00920771 -2.19468e-23)
(1.00606 0.00818534 0)
(1.0033 -0.00333935 -3.81028e-23)
(1.00468 -0.00278421 -1.6853e-22)
(1.00598 -0.00212792 0)
(1.00264 -0.00305665 -4.83465e-23)
(1.00729 -8.20046e-05 0)
(1.00669 -0.00140354 5.46965e-23)
(1.00054 -0.00123055 -1.50611e-23)
(0.999673 0.0102335 -5.99064e-24)
(0.997611 0.00917171 1.57553e-23)
(0.997025 0.0073669 5.3263e-23)
(0.996064 0.000784879 -8.35669e-23)
(0.996785 7.42086e-05 -6.08197e-23)
(0.997206 -0.000158408 3.04211e-23)
(0.996052 0.00149894 -7.61412e-25)
(0.995626 0.00252547 -8.11806e-23)
(0.995004 0.00337317 9.02344e-23)
(0.99528 0.00493343 6.07571e-23)
(0.996294 0.00660284 -4.79963e-23)
(0.9993 0.000154956 0)
(0.999504 0.000218228 3.60169e-23)
(0.999077 -0.000102237 -1.44136e-23)
(0.998724 -0.000378488 -2.09287e-24)
(0.997987 -0.00034673 0)
(0.999741 0.000237285 0)
(0.999682 5.40067e-05 0)
(1.00061 -0.00166164 -6.51286e-24)
(1.00014 -0.00135326 -5.50595e-23)
(1.00087 -0.0019873 -4.57912e-23)
(1.00132 -0.00232692 3.09147e-23)
(1.00167 -0.00314425 -3.49541e-23)
(1.00861 0.0031496 -5.97383e-23)
(1.00804 0.00548806 -1.05861e-22)
(1.00745 0.00738336 -3.05969e-23)
(1.00886 0.00063099 4.30751e-23)
(1.00234 0.0109365 -2.62116e-23)
(1.0037 0.0105804 2.92549e-23)
(1.00568 0.00904979 0)
(1.00334 -0.00391598 1.22328e-23)
(1.00483 -0.00372827 1.80904e-22)
(1.00617 -0.00322783 1.29827e-22)
(1.00212 -0.00364431 0)
(1.00829 -0.000140062 -6.72739e-25)
(1.00753 -0.00219767 -4.27939e-23)
(1.0006 -0.00292509 -2.17289e-23)
(0.999212 0.0120888 -1.96011e-24)
(0.996788 0.00808057 -4.57209e-23)
(0.997021 0.0104211 0)
(0.995482 0.000415656 -3.374e-23)
(0.996458 -0.000483281 5.16994e-23)
(0.997394 -0.00106444 0)
(0.995444 0.00206641 9.2065e-23)
(0.994226 0.00343102 3.65243e-23)
(0.994516 0.00474003 -7.61724e-23)
(0.995198 0.00661588 5.83651e-23)
(0.999262 -4.37685e-05 0)
(0.999443 0.000139865 0)
(0.999064 -0.000435002 1.39218e-23)
(0.998613 -0.000761295 -2.53384e-23)
(0.997893 -0.00112383 0)
(0.998276 -0.000910096 8.46039e-23)
(0.999671 -5.58446e-07 0)
(0.99944 -0.000450849 2.08094e-23)
(1.00036 -0.00151152 5.10326e-23)
(1.00067 -0.00189896 2.99094e-23)
(1.00038 -0.00172398 3.98206e-23)
(1.00078 -0.0024351 -1.33228e-23)
(1.00105 -0.00257978 6.38274e-23)
(1.00107 -0.00318456 6.58428e-23)
(1.00994 0.00344896 9.27191e-23)
(1.00948 0.00576147 9.56669e-24)
(1.00889 0.00868504 0)
(1.01016 0.000641996 -5.18372e-23)
(1.00166 0.0123024 1.19929e-23)
(1.00487 0.0119426 -4.7054e-24)
(1.00676 0.00996861 3.11015e-23)
(1.00281 -0.00492533 -1.03471e-23)
(1.00427 -0.00419837 -3.80187e-23)
(1.00578 -0.00376519 -9.46902e-23)
(1.00743 -0.00298912 -8.91489e-23)
(1.002 -0.00381246 0)
(1.00864 -0.00137541 -6.64159e-24)
(0.997503 0.0119559 -1.64565e-23)
(1.00009 0.0127384 -1.23535e-24)
(0.99544 0.00843558 0)
(0.995165 0.0101034 -2.05273e-23)
(0.99478 0.00106617 -1.07347e-22)
(0.995509 -0.000203862 8.26819e-23)
(0.997007 -0.00127415 -2.94348e-25)
(0.995958 -0.000637353 -5.67673e-23)
(0.994761 0.0015198 3.67116e-23)
(0.994017 0.00397145 -6.31162e-23)
(0.99387 0.00230437 0)
(0.993873 0.00612606 2.31939e-23)
(0.994612 0.00676338 -8.96476e-23)
(0.999393 -0.000162336 0)
(0.999462 -8.73463e-05 0)
(0.999218 -0.000488427 0)
(0.998911 -0.0009493 -1.62196e-24)
(0.998154 -0.00117033 9.29987e-23)
(0.999906 4.45651e-05 2.23431e-23)
(0.999643 -6.35732e-05 -1.52756e-23)
(1.00013 -0.00178367 -2.30572e-23)
(1.00043 -0.00205901 0)
(1.00031 -0.00338497 -1.81542e-23)
(1.00034 -0.00245291 3.3133e-23)
(1.00098 -0.00274245 -7.07541e-23)
(1.00086 -0.00337106 1.43437e-23)
(1.01033 0.0046853 1.55593e-22)
(1.01085 0.00250992 -7.50508e-23)
(1.01023 0.00786385 -1.68214e-23)
(1.00833 0.00951333 -8.18516e-23)
(1.01104 -0.000637562 -1.82062e-23)
(1.00264 0.0139727 6.06907e-26)
(1.00443 0.0135677 6.32116e-24)
(1.00637 0.0117881 -3.12356e-23)
(1.00337 -0.0056561 -2.8475e-23)
(1.00167 -0.00496045 0)
(1.00404 -0.00545874 -2.89262e-24)
(1.00615 -0.00467343 3.92648e-23)
(1.00777 -0.00447785 1.39353e-22)
(1.00139 -0.0040841 0)
(1.00974 -0.00226738 7.22941e-23)
(0.996194 0.0130261 2.83108e-24)
(0.999605 0.0152455 -6.63845e-24)
(0.994395 0.00780806 6.48527e-23)
(0.993914 0.0106353 6.09558e-23)
(0.994155 0.000304432 2.31074e-23)
(0.994758 -0.000354643 0)
(0.996841 -0.00160781 7.62151e-23)
(0.995835 -0.00109023 4.75092e-23)
(0.992992 0.00429552 0)
(0.992997 0.00199961 6.89061e-23)
(0.992759 0.00565097 -5.18695e-23)
(0.999434 -0.000236877 3.04462e-24)
(0.999404 -0.000439073 -3.43221e-24)
(0.999171 -0.000809923 -1.71699e-24)
(0.998922 -0.0013428 0)
(0.998121 -0.00130196 -4.96465e-23)
(0.999789 0.000100814 -2.06587e-23)
(0.999315 -0.000743233 1.42561e-23)
(1.00014 -0.00178956 1.96718e-23)
(1.00039 -0.00206667 1.79187e-23)
(1.00041 -0.00183963 2.18729e-23)
(1.00032 -0.00239109 -1.49146e-23)
(1.00062 -0.00271427 3.67206e-23)
(1.0008 -0.00393303 3.30569e-23)
(1.00035 -0.00315388 -2.33567e-23)
(1.01199 0.00514098 -9.01206e-23)
(1.01238 0.00253412 4.45706e-23)
(1.01174 0.00818092 0)
(1.00953 0.0113308 9.0937e-23)
(1.01097 -0.00168348 -9.99391e-23)
(1.0129 0.000861319 2.04886e-23)
(1.00171 0.015816 -1.55964e-23)
(1.0057 0.0156955 -7.17477e-24)
(1.00776 0.0128317 8.86258e-23)
(1.00312 -0.00643735 0)
(1.00159 -0.00464676 0)
(1.00523 -0.00561864 -8.65554e-23)
(1.00727 -0.00492433 -8.25543e-23)
(1.00926 -0.00389201 -8.6606e-23)
(0.996394 0.0150077 5.36667e-23)
(0.994007 0.0122653 -1.14296e-22)
(0.998145 0.0159007 7.05369e-24)
(0.99311 0.00807764 -6.59839e-23)
(0.992564 0.0101141 -3.9382e-23)
(0.993323 0.000316685 0)
(0.994542 -0.000927598 -5.43612e-23)
(0.997092 -0.00207217 -7.10021e-23)
(0.996205 -0.0016015 0)
(0.995235 -0.00141915 -5.60701e-23)
(0.992211 0.0036095 0)
(0.992241 0.00278194 0)
(0.992854 0.000816687 -7.36875e-23)
(0.991936 0.00633868 7.97329e-23)
(0.999695 -2.56333e-05 0)
(0.999471 -0.000716411 0)
(0.999378 -0.000898098 -1.19284e-24)
(0.998646 -0.00157586 -8.03898e-24)
(0.999301 -0.00143603 2.52506e-23)
(0.99791 -0.00187648 -2.23023e-23)
(0.999615 -0.000262104 0)
(1.00013 -0.00210372 0)
(1.00029 -0.00224286 0)
(1.00023 -0.00428399 -2.49346e-23)
(1.00028 -0.00249816 2.34807e-23)
(1.00027 -0.00233845 3.14085e-23)
(1.00042 -0.00267777 -1.59751e-23)
(1.00023 -0.00399958 0)
(1.00016 -0.00301754 -1.66093e-23)
(1.01276 0.00699623 -1.48077e-23)
(1.01307 0.0029997 -5.41403e-23)
(1.01243 0.0103202 1.42829e-23)
(1.01143 0.0116001 0)
(1.01231 -0.0028811 1.66353e-22)
(1.01447 2.93482e-05 5.01248e-23)
(1.00246 0.017027 0)
(1.00495 0.0169658 0)
(1.00784 0.0149298 -7.82465e-23)
(1.00198 -0.00635316 0)
(1.0039 -0.00736379 -5.00786e-23)
(1.00106 -0.00520578 -4.89271e-23)
(1.00567 -0.00642788 1.17936e-22)
(1.00711 -0.00627376 7.6968e-23)
(1.01027 -0.00506223 1.20968e-22)
(0.994492 0.015733 -3.66698e-23)
(0.992465 0.013199 3.53662e-23)
(0.998081 0.0183783 1.84757e-23)
(0.992115 0.00728834 2.9947e-23)
(0.991262 0.0098394 4.10842e-23)
(0.993014 -0.00106503 0)
(0.993788 -0.00179392 5.20146e-23)
(0.996628 -0.00254076 0)
(0.997594 -0.00218635 0)
(0.995922 -0.00216539 0)
(0.995216 -0.00195951 6.65428e-23)
(0.991057 0.00420807 0)
(0.991393 0.00183189 1.71324e-23)
(0.991821 0.000835609 -1.48912e-23)
(0.990891 0.00554783 -8.19019e-23)
(0.999774 -0.000478092 0)
(0.999441 -0.000796642 -2.88815e-23)
(0.999394 -0.00109836 0)
(0.998825 -0.0019654 -2.77972e-23)
(0.999427 -0.00160646 -4.78821e-23)
(0.998424 -0.00222289 0)
(0.999366 -0.000991061 0)
(1.00008 -0.00192054 0)
(1.00033 -0.00218854 0)
(1.00013 -0.0025154 -2.56285e-23)
(1.00013 -0.00231989 -3.2805e-23)
(1.00017 -0.00282751 -1.65683e-23)
(0.999869 -0.00363315 2.68656e-23)
(1.00003 -0.00483741 4.77171e-23)
(0.999927 -0.00318003 0)
(1.01472 0.00687492 7.27569e-23)
(1.01539 0.00450309 1.6082e-23)
(1.01477 0.0102671 1.6524e-22)
(1.01219 0.0143876 -9.2283e-24)
(1.01413 -0.00198322 -2.47813e-23)
(1.01196 -0.00454533 0)
(1.01625 0.00104942 1.36408e-22)
(1.00161 0.0198486 -2.39949e-23)
(1.00598 0.0185968 -1.39148e-23)
(1.00996 0.0160369 -5.17424e-23)
(1.0012 -0.00583184 -4.50008e-23)
(1.00165 -0.00754642 0)
(1.00507 -0.0073032 -5.52637e-23)
(1.00345 -0.00820765 7.16146e-23)
(1.00804 -0.00705998 8.5816e-23)
(1.00961 -0.00665744 -1.68417e-23)
(0.994212 0.0182418 -3.15308e-23)
(0.992788 0.0147318 4.42413e-23)
(0.990749 0.0125683 6.32897e-23)
(0.999739 0.0201417 0)
(0.995359 0.0191978 -2.44891e-23)
(0.990922 0.00849749 1.08045e-22)
(0.9902 0.0107916 -1.2486e-22)
(0.991863 -0.00140473 4.07934e-23)
(0.993804 -0.00210675 -3.48692e-23)
(0.996035 -0.00246187 -4.64626e-23)
(0.996812 -0.00328732 -3.18686e-23)
(0.997875 -0.00290195 3.49577e-23)
(0.994685 -0.00244276 -1.42948e-22)
(0.990001 0.00323039 0)
(0.990261 0.00209396 3.94721e-23)
(0.991214 -0.000167745 -5.85847e-23)
(0.98954 0.00605525 9.5486e-23)
(1 -0.000419267 -1.94982e-23)
(0.999546 -0.000914336 0)
(0.99966 -0.00113411 0)
(0.999137 -0.00208077 -1.36666e-23)
(0.999397 -0.00192349 5.10215e-23)
(0.999727 -0.00160207 -5.113e-23)
(0.998472 -0.00254039 0)
(0.999574 -0.000534836 0)
(1.00005 -0.00213992 1.42049e-23)
(1.00033 -0.00452621 2.76955e-23)
(1.00001 -0.00247547 -9.81255e-24)
(1.00008 -0.00254696 -2.76844e-23)
(0.999975 -0.00268011 1.13865e-23)
(0.999272 -0.00352284 -2.85942e-23)
(0.999328 -0.00480406 0)
(0.999581 -0.00289819 0)
(1.01574 0.00791102 -1.55611e-22)
(1.01704 0.00326839 -2.83442e-22)
(1.0166 0.0137918 -8.81884e-23)
(1.01481 0.0151369 8.46293e-23)
(1.01569 -0.00347468 -6.97708e-23)
(1.01333 -0.00586197 -5.2227e-23)
(1.01788 -0.000490795 -4.04479e-23)
(1.00351 0.0206878 4.15906e-23)
(1.00796 0.0204583 0)
(1.00999 0.0191018 5.81109e-23)
(1.00019 -0.00632299 5.37224e-23)
(1.00231 -0.0082202 0)
(1.00061 -0.0074427 -4.05919e-23)
(1.00585 -0.00861593 0)
(1.00377 -0.00951188 -4.40609e-23)
(1.00723 -0.00855437 0)
(1.01076 -0.00817852 -2.23937e-22)
(0.991649 0.0178403 7.9697e-23)
(0.99109 0.0162555 -2.07786e-23)
(0.989005 0.013749 -9.45053e-23)
(0.998939 0.0221475 8.03614e-24)
(0.994338 0.0218184 2.94764e-24)
(0.989323 0.00759547 -1.05463e-22)
(0.988322 0.0100597 1.52146e-22)
(0.991499 -0.00218158 1.92589e-24)
(0.993444 -0.00324407 -1.71975e-22)
(0.995841 -0.00335155 5.07452e-23)
(0.997423 -0.00346932 5.23813e-23)
(0.996215 -0.00365105 2.81728e-24)
(0.998389 -0.00305507 -3.60729e-23)
(0.995085 -0.00330164 6.06513e-23)
(0.988693 0.0038344 0)
(0.989459 0.000942454 4.95156e-23)
(0.989972 -3.59566e-05 3.7444e-23)
(0.988534 0.00525798 0)
(0.999807 -0.000392712 4.17992e-23)
(0.999651 -0.000770235 -1.08334e-23)
(0.999731 -0.00126273 2.29598e-23)
(0.999286 -0.00250401 1.50347e-24)
(0.999657 -0.00208011 1.24877e-23)
(0.999827 -0.00169112 -5.68854e-24)
(0.998865 -0.0026784 -2.53972e-23)
(0.999382 -0.00149383 4.92962e-24)
(1.00004 -0.00182448 -1.28431e-23)
(1.0002 -0.00232794 -4.41316e-23)
(0.999923 -0.00235228 2.16309e-23)
(0.999856 -0.00223924 0)
(0.99978 -0.00267524 0)
(0.999022 -0.00307139 0)
(0.999031 -0.00420169 -3.16228e-23)
(0.999064 -0.00545767 -9.75286e-23)
(0.999297 -0.00277478 0)
(1.01838 0.00862981 2.7902e-23)
(1.01942 0.00444676 1.8644e-22)
(1.01934 0.0125518 2.25756e-22)
(1.01533 0.0172619 -1.18322e-22)
(1.01765 -0.00257972 2.01009e-22)
(1.01516 -0.00533404 1.40308e-22)
(1.01263 -0.00781906 1.98178e-22)
(1.02017 0.000609692 -1.41668e-22)
(1.00415 0.0230448 5.29768e-23)
(1.0072 0.0220771 -3.89074e-23)
(1.0126 0.0202821 0)
(0.999328 -0.00607627 8.64667e-23)
(1.00158 -0.00945555 -1.79187e-23)
(0.999757 -0.00849112 2.85276e-23)
(1.00495 -0.00971076 0)
(1.00264 -0.0102897 4.28662e-23)
(1.00817 -0.0100118 1.33362e-22)
(1.00996 -0.00998402 -7.0176e-23)
(0.990144 0.0203078 0)
(0.9891 0.0155138 8.93826e-23)
(0.986801 0.0117266 -8.98812e-23)
(1.00032 0.0251536 -3.31526e-24)
(0.996116 0.0231522 -6.16138e-24)
(0.991421 0.0219676 0)
(0.987886 0.00900141 0)
(0.990319 -0.00217155 0)
(0.991898 -0.00291927 0)
(0.99276 -0.003517 1.95983e-22)
(0.994512 -0.00393132 6.72771e-23)
(0.99763 -0.00394101 -1.86859e-23)
(0.996103 -0.00423648 -4.61717e-23)
(0.998643 -0.00344141 -4.15672e-24)
(0.987583 0.00248593 0)
(0.988098 0.00119976 -1.08472e-22)
(0.989436 -0.00135009 -4.11667e-23)
(0.987032 0.00566865 -9.29154e-23)
(0.999869 -0.00127223 -3.0185e-23)
(0.999883 -0.000729188 0)
(0.999916 -0.00123389 2.68927e-23)
(0.999559 -0.00258059 2.64726e-23)
(0.999895 -0.001979 3.44817e-23)
(0.999788 -0.00238339 7.25479e-24)
(0.999901 -0.00169885 5.60127e-24)
(0.999101 -0.00322679 3.9021e-24)
(1.00013 -0.00406406 1.14516e-23)
(1.0001 -0.00224708 2.12965e-23)
(0.999761 -0.00225278 8.91967e-24)
(0.999935 -0.00202486 0)
(0.999644 -0.0024611 9.21712e-24)
(0.998589 -0.0028324 1.78403e-23)
(0.998298 -0.00374147 5.1951e-23)
(0.997909 -0.00556299 -2.66325e-25)
(0.999185 -0.00252666 0)
(1.02002 0.00678816 0)
(1.02111 0.0026771 0)
(1.02193 0.0135411 -2.82271e-22)
(1.01878 0.019377 0)
(1.01943 -0.00398254 -2.72296e-22)
(1.01668 -0.0069686 4.691e-23)
(1.01407 -0.00944427 -4.0743e-22)
(1.02178 -0.00268111 9.29576e-23)
(1.00273 0.0254349 0)
(1.00894 0.0260432 0)
(1.01305 0.0237739 0)
(0.998465 -0.00708338 0)
(1.00031 -0.00948314 3.92173e-23)
(0.998662 -0.00798632 -2.26154e-23)
(1.00539 -0.0115698 1.05375e-22)
(1.00253 -0.0118546 0)
(1.00699 -0.0118193 -1.10411e-22)
(1.01114 -0.0116463 -4.22716e-23)
(0.98721 0.019488 0)
(0.987109 0.0165756 -6.96574e-23)
(0.985055 0.012207 0)
(0.998327 0.0272821 7.40331e-25)
(0.995238 0.0264825 4.1185e-23)
(0.990169 0.0249214 -6.25641e-23)
(0.986099 0.00834664 0)
(0.989995 -0.00371842 4.56663e-23)
(0.99108 -0.0039195 -1.47539e-22)
(0.992939 -0.00485394 -2.91841e-23)
(0.99466 -0.0044497 1.34938e-22)
(0.998169 -0.00395235 -1.10455e-22)
(0.99753 -0.00476322 1.1736e-22)
(0.995428 -0.00457268 -6.06532e-23)
(0.996829 -0.0047532 0)
(0.998571 -0.00380046 7.00343e-25)
(0.98605 0.00295977 4.08291e-23)
(0.987226 -0.000496235 -5.66971e-23)
(0.987946 -0.00168393 5.10232e-23)
(0.985806 0.00419944 4.64949e-23)
(0.999877 -0.000624576 2.63299e-23)
(0.999967 -0.000981909 -2.35286e-23)
(0.999926 -0.001612 -2.56953e-23)
(0.999781 -0.00291688 0)
(1.00007 -0.00201682 -3.43509e-23)
(1.00002 -0.00242908 2.12879e-23)
(1.00006 -0.00191572 -6.89507e-24)
(0.99948 -0.00323807 -4.41385e-23)
(0.999462 -0.00300082 0)
(0.999949 -0.00182301 -2.47323e-23)
(0.999726 -0.00227779 -2.082e-23)
(0.999459 -0.0023449 0)
(0.998528 -0.0023994 -3.36103e-23)
(0.998203 -0.00321855 -3.88543e-23)
(0.997489 -0.00476605 0)
(0.997645 -0.00624493 7.42873e-23)
(0.999061 -0.00221102 0)
(1.02321 0.007937 -8.1276e-23)
(1.02407 0.00245874 -1.75536e-22)
(1.02444 0.0107705 2.92593e-22)
(1.02284 0.0170916 4.584e-23)
(1.01631 0.0236208 -1.12973e-22)
(1.02118 0.0195877 0)
(1.02165 -0.00330345 0)
(1.01887 -0.00637041 -3.00624e-22)
(1.01596 -0.00905062 2.92212e-22)
(1.0132 -0.0113315 -1.35063e-22)
(1.0253 -0.000244608 -1.14038e-23)
(1.00453 0.0280594 0)
(1.01137 0.0261669 0)
(0.99973 -0.0109491 -2.82885e-23)
(0.997299 -0.00919836 3.00538e-23)
(1.00412 -0.0126054 4.93922e-23)
(1.00055 -0.011968 -1.80435e-23)
(1.00811 -0.0130887 -1.958e-22)
(1.01017 -0.0132059 1.12034e-22)
(0.985158 0.0208635 -8.38576e-23)
(0.985214 0.0152202 6.91241e-23)
(0.983457 0.0112744 -3.87382e-23)
(0.998524 0.0295215 8.59829e-24)
(0.992612 0.0271518 -2.50259e-23)
(0.987131 0.0252589 7.39389e-23)
(0.984502 0.00794433 0)
(0.988837 -0.00397978 0)
(0.991403 -0.00486766 7.39887e-23)
(0.993471 -0.00538645 -9.48177e-23)
(0.994339 -0.00540499 -8.58878e-23)
(0.998583 -0.00485579 4.33821e-23)
(0.998029 -0.00512923 3.53442e-23)
(0.995877 -0.00595267 -1.74138e-23)
(0.996783 -0.00589485 2.63861e-23)
(0.99917 -0.00402331 -2.88093e-23)
(0.984922 0.00167276 -9.67996e-23)
(0.985531 -0.000329219 7.58489e-23)
(0.987523 -0.00270891 -1.44222e-22)
(0.984015 0.00564774 0)
(0.999527 -0.00191468 -2.29325e-23)
(0.999988 -0.000747496 3.13683e-23)
(1.0001 -0.00133921 -2.58396e-23)
(1.00006 -0.0028849 2.94267e-23)
(1.00015 -0.00201344 -5.05127e-25)
(1.00019 -0.00223241 6.51296e-24)
(1.00019 -0.00266757 3.1893e-24)
(1.00025 -0.00150206 -2.64297e-23)
(0.999735 -0.00365535 2.36294e-23)
(0.999947 -0.00173 0)
(0.999708 -0.00206946 0)
(0.999698 -0.00211571 0)
(0.999415 -0.00209084 0)
(0.998825 -0.00217787 0)
(0.998162 -0.00203222 9.36267e-24)
(0.997649 -0.00290112 2.62487e-23)
(0.996805 -0.00417194 -2.0432e-23)
(0.996455 -0.00679335 -7.46139e-23)
(0.99917 -0.00200548 3.82865e-24)
(1.02543 0.00415903 -1.56016e-23)
(1.02787 0.0107841 -4.0838e-22)
(1.02725 0.0169749 -1.91851e-23)
(1.01805 0.0274126 1.07898e-22)
(1.02285 0.0225216 1.67744e-24)
(1.02269 -0.0069157 7.76331e-23)
(1.0209 -0.00802028 1.34992e-22)
(1.01776 -0.0104158 0)
(1.01451 -0.0140192 -1.58347e-22)
(1.02792 -0.00338945 -3.39131e-22)
(1.00413 0.0305928 0)
(1.0121 0.0299125 0)
(0.997954 -0.010552 0)
(0.996111 -0.00835315 4.44419e-23)
(1.00408 -0.0142452 -1.34469e-22)
(1.00027 -0.0137901 1.93954e-23)
(1.00669 -0.015551 1.70852e-22)
(1.01096 -0.0155693 7.30865e-23)
(0.982723 0.0195301 6.12138e-23)