/*--------------------------------*- C++ -*----------------------------------*\
| =========                 |                                                 |
| \\      /  F ield         | OpenFOAM: The Open Source CFD Toolbox           |
|  \\    /   O peration     | Version:  v2012                                 |
|   \\  /    A nd           | Website:  www.openfoam.com                      |
|    \\/     M anipulation  |                                                 |
\*---------------------------------------------------------------------------*/
FoamFile
{
    version     2.0;
    format      ascii;
    class       surfaceVectorField;
    location    "3";
    object      Uf;
}
// * * * * * * * * * * * * * * * * * * * * * * * * * * * * * * * * * * * * * //

dimensions      [0 1 -1 0 0 0 0];


internalField   nonuniform List<vector> 
18781
(
(1.00008 0.00021168 -2.12011e-24)
(1.0001 0.000182169 2.84421e-22)
(1.00013 0.00040502 8.30474e-23)
(1.00007 0.000199918 1.65667e-24)
(1.00015 0.000376695 4.16642e-24)
(1.00012 0.000181035 1.42462e-23)
(1.00014 0.000576627 4.62919e-23)
(1.00018 0.000612531 1.6298e-24)
(1.00004 0.000209891 6.28616e-25)
(1.0002 0.000594448 -1.1255e-22)
(1.00024 0.000571321 -1.88998e-24)
(1.00011 0.000122216 -3.05766e-22)
(1.00019 0.000769091 -5.40617e-23)
(1.00011 0.000553014 -1.09679e-22)
(1.00027 0.000763576 1.78223e-24)
(1.00007 0.000402952 5.29257e-24)
(1.00004 0.000221218 -4.2456e-23)
(1.00023 0.000417964 -3.74743e-24)
(1.00031 0.000622249 0)
(1.00017 0.000209221 -4.21274e-24)
(1.00026 0.000956726 1.33053e-24)
(1.00019 0.000954805 -9.23933e-25)
(1.00012 0.000580233 -1.15562e-24)
(1.00031 0.000930165 0)
(1.00034 0.000933766 0)
(1.00003 0.000219882 -8.68278e-24)
(1.00033 0.000619347 -8.72693e-24)
(1.00042 0.000779886 0)
(1.00026 0.000438948 -8.67032e-24)
(1.00016 0.000205918 0)
(1.00034 0.00112389 0)
(1.00013 0.000802483 -2.42045e-23)
(1.00016 0.00100152 -3.87384e-25)
(1.0001 0.00063189 1.74863e-23)
(1.00045 0.00100609 0)
(1.00045 0.00115023 0)
(1.00005 0.000456719 4.0598e-25)
(1.00002 0.000248985 1.52625e-24)
(1.00035 0.000583098 1.13748e-22)
(1.00057 0.000990769 0)
(1.00016 0.000156366 -6.83691e-24)
(1.00044 0.00126645 0)
(1.00036 0.00128793 -2.58424e-25)
(1.00018 0.00120704 -5.61646e-25)
(1.00009 0.00107252 5.67203e-23)
(1.00005 0.000660647 -1.30106e-22)
(1.00053 0.00128446 6.6613e-24)
(0.999988 0.000240328 -1.13909e-22)
(1.00032 0.000526797 1.62378e-23)
(1.00045 0.000707286 9.46589e-23)
(1.00058 0.00088178 4.1021e-24)
(1.00069 0.00105502 0)
(1.00023 0.000409176 -6.13313e-24)
(1.00025 0.000256534 -7.34524e-22)
(1.00027 0.00133995 -8.37077e-25)
(1.00037 0.00147735 1.22325e-23)
(1.00019 0.00140383 1.59613e-22)
(1.00005 0.000913485 3.23341e-23)
(1.00004 0.00110807 2.32765e-25)
(1.00002 0.00069311 4.88874e-23)
(1.00065 0.0013825 -2.16286e-22)
(1.00056 0.00151055 5.54189e-24)
(0.999984 0.000191358 -4.83782e-24)
(0.999993 0.000403715 -2.41377e-24)
(1.00031 0.000482603 4.29978e-25)
(1.00059 0.000780975 4.03058e-24)
(1.00082 0.00125127 -4.74344e-24)
(1.00086 0.00105468 2.5552e-24)
(1.0004 1.38033e-05 4.11027e-22)
(1.00048 0.00157497 2.35293e-24)
(1.00038 0.00165291 1.44322e-23)
(1.00017 0.00161135 -3.94954e-25)
(1.00011 0.00144509 -2.9893e-22)
(1.00002 0.00125186 4.62668e-25)
(1.00002 0.00111097 0)
(0.999996 0.000592267 -3.00886e-25)
(0.999987 0.000874574 3.45831e-25)
(1.00078 0.00137886 -7.19544e-22)
(1.00075 0.0015221 -4.7887e-24)
(1.00056 0.00166196 1.00579e-23)
(0.99999 0.000186156 -6.71466e-25)
(0.999978 0.000539419 -8.91118e-23)
(1.0005 0.00058609 5.53523e-25)
(1.00036 0.000440786 0)
(1.00068 0.000714746 -2.40243e-23)
(1.00094 0.00140985 5.55127e-23)
(1.00091 0.000987324 -5.69518e-23)
(1.00103 0.00114426 -7.50646e-24)
(1.00021 -5.58194e-05 -1.46837e-23)
(1.00026 0.00174443 7.07114e-23)
(1.00039 0.00185003 -3.97045e-24)
(1.00012 0.00176664 -1.62183e-22)
(0.999999 0.00147242 5.41581e-25)
(0.999932 0.00104992 3.4767e-24)
(1.0007 0.0016685 4.17609e-22)
(1.00085 0.00172859 -9.6761e-24)
(1.00066 0.00181631 5.31241e-22)
(0.999968 0.000407425 2.24006e-24)
(0.999978 0.000248985 9.99207e-24)
(0.999949 0.000593042 1.69331e-22)
(1.00038 0.000264018 0)
(1.00054 0.000464909 0)
(1.00085 0.000850087 -2.76434e-24)
(1.00078 0.000631431 -5.57452e-25)
(1.00107 0.0013655 -2.33112e-24)
(1.00114 0.00153058 6.56659e-22)
(1.00102 0.000896014 -2.14064e-24)
(1.00123 0.00121056 1.40176e-22)
(1.00034 7.18754e-05 5.12412e-24)
(1.00057 0.00195687 -4.64516e-24)
(1.00039 0.00203539 -1.46608e-22)
(1.00002 0.00176988 -2.31474e-25)
(1.00009 0.00196823 -4.60305e-24)
(0.999934 0.00166334 0)
(0.999857 0.00150745 -8.74181e-24)
(0.999892 0.000902496 6.90227e-24)
(0.999856 0.00111511 -1.27586e-22)
(1.00105 0.00184858 -6.67792e-22)
(1.00088 0.00199829 7.27513e-25)
(1.00074 0.00199678 -5.35546e-23)
(0.999947 0.000238225 -1.51588e-24)
(0.999906 0.000696822 -1.26583e-24)
(1.00067 0.000485896 0)
(1.00051 0.000415995 9.53641e-24)
(1.00083 0.000548353 1.92184e-23)
(1.00132 0.00179326 1.63283e-22)
(1.00102 0.000701541 1.83582e-23)
(1.00118 0.000860291 -8.01225e-24)
(1.00135 0.00103768 -1.02672e-23)
(1.0015 0.0012942 -1.05051e-23)
(1.00043 0.000303344 1.41075e-23)
(1.0005 7.40172e-05 7.92711e-22)
(1.0002 0.00215064 2.29308e-22)
(1.00039 0.00225556 4.4669e-25)
(0.9999 0.00181045 -1.86303e-24)
(1.00001 0.00215764 -2.14139e-22)
(0.999815 0.00127145 4.2833e-23)
(0.999687 0.00149932 -5.92994e-22)
(0.999827 0.00112839 1.16315e-22)
(1.00084 0.00209628 -3.164e-22)
(0.999929 0.000229476 0)
(0.999911 0.000445319 3.97122e-24)
(0.999844 0.00092247 -1.27067e-23)
(0.999885 0.000646541 1.94922e-22)
(1.00054 0.000347232 2.91493e-22)
(1.00099 0.000504685 -8.34411e-23)
(1.00157 0.00166115 1.98041e-23)
(1.0015 0.00190853 1.64318e-24)
(1.00141 0.00081621 9.6046e-23)
(1.00181 0.00138412 -3.58318e-22)
(1.00037 -0.000152357 -1.14131e-21)
(1.00066 0.00233968 2.38311e-24)
(1.00043 0.00249938 -3.30516e-22)
(0.999874 0.00206333 -2.89187e-24)
(0.999714 0.0018862 2.34131e-22)
(0.999898 0.00222121 -9.64294e-25)
(0.999576 0.00157988 -8.3832e-23)
(0.99961 0.00141454 7.55429e-24)
(0.99978 0.00107511 3.00986e-22)
(1.00096 0.0022581 -5.67764e-24)
(0.999913 0.000192271 2.27983e-24)
(0.999847 0.000615833 -2.22879e-24)
(1.00046 0.000136544 1.87115e-22)
(1.00072 0.000222822 -8.50258e-24)
(1.00095 0.000321729 -5.00793e-23)
(1.00118 0.000435541 -1.13013e-22)
(1.00174 0.00207487 9.23701e-24)
(1.00142 0.00214499 1.75872e-23)
(1.0014 0.00057383 -1.73524e-25)
(1.00162 0.000731044 5.75854e-22)
(1.00196 0.00110137 -2.22649e-23)
(1.00211 0.00148271 3.43209e-22)
(1.0004 0.000105656 -6.35483e-22)
(1.00063 -0.000103077 4.2051e-24)
(1.00048 0.00290763 1.70196e-24)
(1.00012 0.00269791 3.56137e-24)
(0.999552 0.00176206 2.46419e-24)
(0.99952 0.00204385 7.08719e-23)
(0.999877 0.00251379 1.75239e-24)
(0.999679 0.0023048 5.19844e-24)
(0.999437 0.00164694 4.81754e-24)
(0.999669 0.00121492 4.663e-24)
(0.999542 0.00132366 0)
(0.999725 0.000984508 3.69711e-24)
(1.00123 0.00225117 8.85087e-22)
(1.00116 0.00273888 -7.87957e-24)
(0.999886 0.000377239 1.56524e-23)
(0.999902 0.00018919 1.19181e-22)
(0.999784 0.000764706 -1.23172e-23)
(0.999831 0.000563436 1.86118e-22)
(1.00045 9.76536e-05 -1.0838e-23)
(1.00089 0.000174375 1.10128e-23)
(1.00138 0.00031768 9.13047e-23)
(1.00209 0.00201829 2.51196e-24)
(1.00196 0.00242385 8.58183e-23)
(1.00149 0.00260454 8.83576e-24)
(1.00186 0.00089254 5.96882e-24)
(1.00185 0.000510108 -3.56745e-22)
(1.00216 0.000904608 0)
(1.00227 0.00167666 3.43015e-22)
(1.00247 0.00140953 3.43123e-23)
(1.00027 -0.000595035 5.54084e-22)
(1.0009 0.00306222 0)
(1.00045 0.00325846 8.20779e-25)
(0.999833 0.00284383 -2.11188e-23)
(0.999488 0.00217161 -6.22809e-22)
(0.999341 0.00208941 -7.42408e-24)
(0.999441 0.00246715 -4.48804e-24)
(0.999278 0.00182343 7.27056e-23)
(0.999285 0.00162073 6.48574e-24)
(0.999404 0.0013144 0)
(0.999503 0.00117144 9.9106e-25)
(0.999685 0.000908504 -9.07101e-24)
(1.00131 0.00307916 0)
(0.999821 0.000519082 1.25023e-22)
(0.999915 0.00014897 4.56519e-24)
(1.00045 -0.000240316 -2.13699e-22)
(1.00072 2.28035e-05 -8.93775e-24)
(1.00085 0.000101419 8.01997e-23)
(1.00093 7.2564e-05 -9.02922e-23)
(1.0013 8.00829e-05 8.19946e-25)
(1.0016 0.000151909 1.18262e-22)
(1.00259 0.00203292 -2.13887e-23)
(1.00177 0.00276645 -4.24406e-24)
(1.00213 0.00281853 -1.16102e-22)
(1.00152 0.00294108 0)
(1.00181 0.000232709 3.00158e-23)
(1.00215 0.000317281 2.3134e-22)
(1.00245 0.000951791 1.02967e-23)
(1.00236 0.000693023 -1.82923e-23)
(1.00277 0.00112579 -4.79593e-22)
(1.00029 -0.000266061 -1.22348e-21)
(1.00045 0.00369751 -7.91533e-23)
(1.00008 0.00342552 4.11711e-24)
(0.999554 0.00287121 4.84401e-22)
(0.999707 0.00312235 3.6882e-24)
(0.9991 0.0019643 -6.53166e-22)
(0.999206 0.00268754 9.16509e-22)
(0.999248 0.00146764 0)
(0.999048 0.0015661 0)
(0.999251 0.00124529 -1.13877e-23)
(0.999602 0.000986894 9.76124e-24)
(0.999464 0.0010273 -8.90422e-24)
(0.999686 0.000806302 -4.74248e-23)
(1.00154 0.00334276 1.12264e-23)
(0.99984 0.000420417 -4.11628e-22)
(0.999765 0.000593458 -2.0653e-23)
(0.999821 0.000255603 1.51033e-23)
(1.00082 -3.58377e-05 -5.52817e-24)
(1.00108 3.67283e-05 -1.05541e-23)
(1.00094 -0.000100134 6.02074e-23)
(1.00126 -0.000110202 0)
(1.0018 2.01023e-05 -2.84583e-23)
(1.00279 0.00249726 -4.64861e-24)
(1.00306 0.00197963 4.37957e-23)
(1.00254 0.00286053 7.22681e-24)
(1.00234 0.0032661 2.18801e-23)
(1.00249 0.00030369 4.1608e-23)
(1.00309 0.00069341 4.58971e-23)
(1.00314 0.00128818 -6.51335e-22)
(1.00082 -6.96612e-05 -1.72379e-24)
(1.00039 0.000274893 -1.56382e-21)
(1.00031 0.00424882 7.6509e-23)
(1.00092 0.00397895 -6.14717e-24)
(0.999589 0.00353467 -2.26806e-22)
(0.998808 0.00183024 1.65931e-23)
(0.99888 0.00218787 6.53973e-24)
(0.998886 0.00253021 1.17868e-22)
(0.998948 0.0029534 -6.24821e-24)
(0.998827 0.00151584 -4.78418e-25)
(0.998962 0.00134201 2.82918e-25)
(0.999094 0.00121116 -1.60324e-23)
(0.999232 0.00109908 -1.45981e-23)
(0.999332 0.00101419 -4.03015e-25)
(0.999459 0.000883678 2.07225e-22)
(0.999671 0.00068964 3.60101e-24)
(1.00207 0.00360739 4.67723e-22)
(1.00146 0.00380917 3.69113e-22)
(0.999776 0.000349108 7.82502e-24)
(0.999831 0.000189686 7.41364e-22)
(1.00056 2.51375e-05 1.25585e-23)
(1.0007 -0.000152282 -2.29302e-23)
(1.00084 -0.000206379 -1.66637e-22)
(1.00096 -0.000299534 1.63892e-23)
(1.00115 -0.000367123 0)
(1.00136 -0.000335704 0)
(1.00169 -0.000277166 -1.37362e-23)
(1.00198 -0.000235022 -1.40901e-23)
(1.00299 0.00299042 -3.10165e-22)
(1.00328 0.00159261 -2.66866e-22)
(1.00358 0.00203361 2.45275e-23)
(1.00254 0.00384642 -2.84711e-23)
(1.00296 0.000297272 1.57945e-23)
(1.00268 1.07885e-06 8.55249e-22)
(1.00333 0.000342596 -5.71758e-22)
(1.00356 0.00117487 -8.97677e-24)
(1.00117 -0.00099701 2.38712e-21)
(1.00021 -6.27102e-06 1.30297e-23)
(1.00025 0.0048644 2.36519e-23)
(0.999861 0.00437648 4.31413e-23)
(1.00146 0.00448836 -3.52492e-23)
(0.999519 0.00406128 2.50541e-23)
(0.9992 0.00360215 -5.76105e-24)
(0.998578 0.00157837 -4.85763e-25)
(0.998532 0.00228425 -1.81783e-22)
(0.998937 0.00335319 -7.06428e-24)
(0.99857 0.00308326 -5.88113e-22)
(0.998911 0.00120098 -8.1078e-24)
(0.999223 0.000991269 9.46668e-24)
(0.999558 0.00077331 9.72073e-24)
(0.99948 0.000799137 1.15942e-23)
(0.99965 0.000597279 7.29335e-23)
(0.99974 0.000454744 9.32782e-24)
(0.999764 0.000388896 -3.51454e-24)
(0.999851 6.50553e-05 1.26786e-23)
(1.00074 -0.000324314 -8.98479e-22)
(1.00098 -0.000463427 1.05974e-23)
(1.00153 -0.00054063 0)
(1.00241 -0.0002899 2.99476e-23)
(1.0021 -0.000612789 0)
(1.00355 0.00288734 -3.03007e-23)
(1.00342 0.00358322 1.21001e-23)
(1.00381 0.00246474 -7.5605e-23)
(1.00405 0.00202082 -2.58014e-23)
(1.00318 0.00415076 4.27259e-22)
(1.00256 0.00450431 -1.96615e-23)
(1.00285 -0.000498042 1.03613e-23)
(1.00365 0.000724166 -2.34349e-24)
(1.0037 0.000124737 -6.99519e-24)
(1.00398 0.00107038 -1.2608e-23)
(1.00024 -0.000885326 -1.28911e-23)
(1.0004 -0.000463249 1.57201e-23)
(1.00005 -0.000377521 0)
(1.00071 0.00524059 -1.31848e-24)
(1.00007 0.00548777 4.63351e-25)
(0.999375 0.00450305 5.61265e-24)
(1.00203 0.00481113 -8.25294e-24)
(1.00134 0.00506595 -3.71728e-24)
(0.998811 0.00382466 -1.09423e-23)
(0.998338 0.0014145 -3.43629e-24)
(0.998287 0.00177723 0)
(0.998282 0.00206378 -1.48099e-23)
(0.998205 0.00256756 -1.42935e-23)
(0.998232 0.00291446 8.58599e-24)
(0.99815 0.00330401 7.47288e-24)
(0.998921 0.00093045 3.18599e-22)
(0.998714 0.00102841 -8.64084e-24)
(0.999113 0.000879876 1.13585e-23)
(0.999259 0.000839823 6.26416e-24)
(0.999394 0.000758699 5.60616e-24)
(0.99951 0.000661934 -6.73095e-24)
(0.999614 0.000559903 2.82966e-22)
(0.999793 0.000266115 -4.71281e-23)
(0.999714 0.000393562 1.41781e-22)
(0.999825 0.000127703 1.3561e-23)
(1.00067 -0.000598036 6.50455e-24)
(1.00082 -0.000585219 -5.06644e-25)
(1.00097 -0.000629171 -5.45224e-23)
(1.00139 -0.000685434 0)
(1.0016 -0.000782337 0)
(1.00182 -0.000859831 0)
(1.00218 -0.000969294 -1.4922e-23)
(1.00419 0.00301715 -5.66468e-22)
(1.00375 0.00415292 -9.9148e-23)
(1.00428 0.0015806 -5.27033e-23)
(1.00461 0.00211529 7.99335e-22)
(1.00271 0.00522277 -5.49829e-23)
(1.00329 -0.000742386 -4.38277e-23)
(1.0028 -0.000985513 1.47375e-22)
(1.00381 -0.000368364 8.50645e-22)
(1.00431 -2.82344e-05 2.58243e-23)
(1.00451 0.000934908 8.86153e-24)
(1.00032 -0.000538659 8.63331e-24)
(1.0009 -0.000948326 4.69874e-21)
(1.00039 -0.000382048 7.53757e-24)
(1.00131 0.00586425 -2.3487e-23)
(0.999879 0.00615194 1.06366e-22)
(0.999545 0.00559843 1.07284e-24)
(0.999213 0.00513861 4.28014e-23)
(0.998892 0.00458064 1.21331e-23)
(0.998357 0.00382071 -1.04157e-23)
(0.998571 0.00417716 -8.29142e-22)
(0.998004 0.00127419 1.33584e-22)
(0.99832 0.00114909 -3.41956e-24)
(0.997998 0.001923 -1.37452e-23)
(0.997813 0.00273443 0)
(0.997825 0.00362216 6.99147e-24)
(0.999019 0.000750397 1.16776e-23)
(0.998496 0.00103376 0)
(0.998588 0.000739772 -2.86066e-23)
(0.999329 0.000707069 -8.33197e-24)
(0.999571 0.000558906 -1.23266e-23)
(0.999621 0.000452886 -1.13769e-23)
(0.999733 0.000360798 -5.75424e-24)
(0.99989 5.65293e-05 0)
(1.00077 -0.000716622 -4.27804e-22)
(1.00117 -0.00071037 -1.19586e-23)
(1.00095 -0.000887344 -1.19955e-23)
(1.00128 -0.000947793 -1.25118e-23)
(1.00164 -0.00100709 0)
(1.00247 -0.00110076 1.16415e-22)
(1.00216 -0.00137521 -4.46542e-23)
(1.00429 0.00381709 -1.67774e-22)
(1.00487 0.003321 2.08716e-23)
(1.00432 0.00442796 -9.09313e-24)
(1.00512 0.00266013 3.8896e-23)
(1.00524 0.00189877 3.69389e-23)
(1.00256 0.00607542 6.85188e-24)
(1.00337 0.00562041 7.34164e-24)
(1.00378 -0.00117608 -4.11482e-23)
(1.00279 -0.00134481 7.85174e-23)
(1.00466 0.000385222 3.25709e-23)
(1.00476 -0.000277708 2.52147e-23)
(1.0051 0.000849063 5.0303e-23)
(1.00002 -0.00122214 -8.27439e-21)
(1.00065 -0.000671136 1.76371e-23)
(1.00032 -0.000847954 -3.84525e-22)
(1.00185 0.00632262 2.25742e-24)
(1.00101 0.00657002 1.94245e-24)
(1.0003 0.00660029 -3.5569e-26)
(0.999594 0.00687381 2.83336e-24)
(0.998849 0.00564212 5.75555e-23)
(0.998331 0.00471339 8.47369e-24)
(0.997694 0.00103212 6.38526e-24)
(0.997645 0.00149612 1.8224e-23)
(0.998221 0.000839807 1.08706e-23)
(0.997678 0.00221614 -1.31711e-23)
(0.997672 0.00186956 8.73065e-23)
(0.997381 0.00256562 2.00821e-23)
(0.99726 0.00353409 -4.76836e-22)
(0.99743 0.00413153 5.82494e-24)
(0.999124 0.000619058 0)
(0.998961 0.000582256 1.54692e-23)
(0.998768 0.000505475 -5.22682e-22)
(0.998538 0.000443212 -2.76441e-23)
(0.999276 0.00061661 -6.14617e-24)
(0.999402 0.000589357 -1.37731e-25)
(0.999523 0.000517149 1.00536e-22)
(0.999771 0.000278237 0)
(0.99971 0.000359241 0)
(0.999726 9.10219e-05 0)
(1.00069 -0.00092323 -9.52038e-24)
(1.00101 -0.00112554 1.16366e-23)
(1.00083 -0.00103884 4.28217e-23)
(1.0014 -0.001136 -1.31225e-23)
(1.00118 -0.00114453 -1.21207e-22)
(1.00158 -0.00132029 6.71308e-24)
(1.00182 -0.0016015 -3.46273e-22)
(1.00211 -0.00171365 7.03391e-22)
(1.00548 0.00328872 2.01276e-23)
(1.00417 0.00528865 0)
(1.00516 0.00490173 4.85018e-23)
(1.00547 0.00136489 -2.99589e-23)
(1.00601 0.0019432 0)
(1.00251 0.00716546 -2.15387e-24)
(1.0041 0.00640435 1.31402e-24)
(1.00378 -0.00168423 -1.80988e-23)
(1.00433 -0.0013861 1.54249e-22)
(1.00253 -0.00171295 -3.2897e-22)
(1.00283 -0.00174998 -9.23714e-22)
(1.00488 -0.000914339 4.796e-22)
(1.00546 -0.000537773 4.82236e-23)
(1.00567 0.000775056 -6.94236e-23)
(1.00028 -0.000783608 -3.05102e-23)
(1.00082 0.00747026 0)
(0.999172 0.0076256 1.02104e-21)
(0.998908 0.00709765 2.89825e-24)
(0.998563 0.00637815 -5.26535e-24)
(0.998371 0.00557944 -1.85336e-23)
(0.997731 0.00470408 0)
(0.998097 0.00523515 -1.19052e-24)
(0.997322 0.000823038 -1.82868e-23)
(0.997682 0.000671516 -6.85366e-24)
(0.997281 0.00163391 1.15921e-23)
(0.998257 0.00049805 1.08289e-23)
(0.997998 0.00059492 -1.74503e-22)
(0.997085 0.00306357 -1.36561e-22)
(0.996959 0.00241784 2.97984e-23)
(0.996681 0.00344727 3.32335e-23)
(0.997001 0.00463426 0)
(0.999247 0.000501457 -6.25548e-24)
(0.99893 0.00037448 7.37999e-23)
(0.998374 0.000260992 5.87966e-24)
(0.999496 0.00047373 5.96999e-24)
(0.999606 0.000371269 0)
(0.999727 0.00029391 0)
(0.999847 -2.82394e-05 0)
(1.00068 -0.00101128 1.68622e-21)
(1.00042 -0.000917189 -1.84236e-24)
(1.00109 -0.00130597 4.87341e-24)
(1.00072 -0.00119604 1.51997e-23)
(1.00147 -0.00165379 1.21617e-23)
(1.0022 -0.00201275 2.18384e-23)
(1.0062 0.00286357 1.91729e-23)
(1.00612 0.00354039 2.80844e-22)
(1.00598 0.00449889 -1.07184e-22)
(1.00588 0.00549286 -3.40594e-22)
(1.00675 0.00212046 2.3251e-23)
(1.0021 0.00824813 6.15434e-23)
(1.00317 0.00790886 -3.08196e-24)
(1.00401 0.0073933 1.06839e-23)
(1.00496 0.006826 9.22067e-25)
(1.00327 -0.00200171 -3.36149e-23)
(1.00377 -0.00240819 2.0631e-23)
(1.00498 -0.00175737 3.04936e-22)
(1.00276 -0.00232371 4.76512e-24)
(1.0059 9.67376e-05 1.74536e-23)
(1.00616 -0.000693154 -2.69035e-22)
(1.00641 0.000779041 -3.74378e-23)
(1.0003 -0.000663004 -1.18855e-21)
(1.00076 -0.00102621 -5.19858e-24)
(1.00011 0.00819356 -2.84956e-24)
(1.00105 0.00819193 2.00843e-24)
(0.999115 0.00856507 -5.95134e-25)
(0.99801 0.00720369 -1.73097e-23)
(0.997879 0.00568398 1.0225e-23)
(0.99706 0.00122947 -1.59135e-23)
(0.996923 0.000670062 3.56236e-22)
(0.997723 0.000312549 -7.96608e-24)
(0.996856 0.00167489 0)
(0.996716 0.00215803 1.47298e-23)
(0.996466 0.00255713 4.94794e-23)
(0.996339 0.00307891 -6.35099e-23)
(0.99621 0.00374657 -7.21009e-24)
(0.996444 0.00467424 0)
(0.996785 0.00522952 -9.52448e-24)
(0.999205 0.000351952 -6.59661e-23)
(0.999352 0.000395265 -1.24811e-23)
(0.999062 0.000271169 3.01574e-23)
(0.998888 0.000200124 1.64034e-23)
(0.998532 -5.50063e-05 6.26416e-24)
(0.998195 -0.000146572 2.4479e-23)
(0.99948 0.000375881 -6.1887e-24)
(0.999742 0.000210901 0)
(0.99967 0.000278028 -1.16812e-23)
(0.999638 3.05853e-05 -9.84881e-24)
(1.00012 -0.00084681 1.46052e-23)
(1.00118 -0.00157926 -4.6807e-24)
(1.00092 -0.00153739 1.30043e-23)
(1.00066 -0.0014278 2.25609e-24)
(1.00041 -0.00126047 1.00587e-22)
(1.00128 -0.0017991 -3.21992e-24)
(1.00241 -0.00246272 3.67127e-23)
(1.00198 -0.00230641 -1.43646e-23)
(1.00714 0.00405364 -4.18087e-23)
(1.00574 0.00628486 -3.60032e-23)
(1.00669 0.00596853 3.43011e-23)
(1.00696 0.00119938 -6.98103e-22)
(1.00768 0.00203766 1.40171e-23)
(1.00156 0.00924198 1.36166e-23)
(1.00391 0.00870403 -1.35268e-23)
(1.00574 0.00760167 0)
(1.00361 -0.00301799 2.22906e-22)
(1.0043 -0.00277232 -7.36038e-23)
(1.00493 -0.00243569 -8.62489e-24)
(1.00563 -0.00204195 8.48636e-25)
(1.00259 -0.00272156 -6.46063e-22)
(1.00695 -0.000449981 -4.79713e-23)
(1.0066 -0.00114087 6.46095e-23)
(1.00712 0.000413723 -3.15824e-23)
(1.0002 -0.00159104 -4.42227e-21)
(0.999272 0.00975192 1.70962e-23)
(0.998123 0.00903504 1.10643e-23)
(0.997527 0.00654642 -4.99541e-24)
(0.997391 0.00728045 1.0614e-21)
(0.997237 0.00571864 1.27601e-22)
(0.996333 0.000633207 -6.24473e-23)
(0.99674 0.000223282 -2.48502e-22)
(0.997852 -0.000112598 -7.66523e-24)
(0.997429 -4.15498e-05 1.75277e-23)
(0.996336 0.00165487 -4.22646e-25)
(0.995965 0.00262642 -5.30733e-23)
(0.995978 0.00424365 -1.86657e-23)
(0.995376 0.00377257 -7.66007e-22)
(0.995672 0.00483208 3.83658e-23)
(0.996498 0.00604274 -3.21756e-23)
(0.999233 0.000186512 -6.55182e-24)
(0.999462 0.00028696 -4.5441e-23)
(0.998798 -2.30622e-06 0)
(0.998954 5.4221e-06 -7.16509e-24)
(0.998708 -0.000278933 -1.13078e-24)
(0.99807 -0.000380888 -6.39669e-24)
(0.99959 0.000223219 7.38587e-23)
(0.999714 0.000188711 -1.16294e-23)
(0.999802 -0.000150186 -9.88428e-24)
(1.00024 -0.00102271 1.22869e-23)
(1.00036 -0.00106816 -7.71919e-24)
(1.00069 -0.00162181 1.91585e-24)
(1.00011 -0.00125546 -7.3285e-22)
(1.00103 -0.00195889 -4.04619e-23)
(1.00129 -0.00212698 -4.96229e-23)
(1.00153 -0.00232282 1.16895e-24)
(1.00176 -0.00280249 -8.84104e-22)
(1.00814 0.00361677 -3.80248e-23)
(1.00791 0.00485505 -1.48292e-22)
(1.00756 0.00585847 -2.39623e-22)
(1.00737 0.00676979 2.64425e-22)
(1.00841 0.00261089 -9.33812e-23)
(1.00863 0.00136251 1.40104e-23)
(1.00044 0.0101305 3.89579e-23)
(1.00187 0.0104368 -4.91147e-22)
(1.00395 0.00989862 -2.51e-22)
(1.0051 0.00920844 -9.77234e-24)
(1.00689 0.00784156 -1.62202e-23)
(1.00589 0.00850786 0)
(1.00302 -0.00321215 -4.2453e-23)
(1.00331 -0.00364744 -1.00855e-23)
(1.00477 -0.00330796 -1.52464e-22)
(1.00633 -0.00179341 2.90267e-23)
(1.00607 -0.00273303 7.21595e-23)
(1.00239 -0.00333695 -2.54713e-23)
(1.00771 -6.9601e-05 -3.034e-25)
(1.00716 -0.00183977 -1.09576e-24)
(1.00089 -0.00170042 -1.79274e-23)
(0.999471 0.0111689 -3.93287e-24)
(0.997213 0.00863354 -1.68377e-22)
(0.997341 0.00987645 6.69586e-24)
(0.996654 0.00703556 -8.75644e-25)
(0.996891 0.00774297 6.62416e-23)
(0.996047 0.00120477 2.71923e-22)
(0.995762 0.000568061 -5.44193e-23)
(0.996999 -3.81731e-05 -6.07452e-23)
(0.996582 -0.0002551 5.82485e-24)
(0.997276 -0.000561011 1.63609e-23)
(0.995697 0.00177326 -4.90546e-22)
(0.995276 0.00292647 -3.78079e-22)
(0.995544 0.0023391 -7.8491e-23)
(0.994767 0.00340384 -2.99508e-23)
(0.994906 0.00479608 -5.52782e-22)
(0.995227 0.0057562 5.95557e-23)
(0.995796 0.00652153 8.89093e-22)
(0.999268 6.87447e-05 0)
(0.999375 0.000148803 0)
(0.999485 0.000171539 1.6367e-23)
(0.999193 -5.99006e-05 -7.11622e-24)
(0.999071 -0.000265886 4.35862e-24)
(0.998877 -0.000424714 5.7332e-24)
(0.998683 -0.000535894 -7.60968e-24)
(0.997893 -0.000746543 0)
(0.998117 -0.000601052 3.80913e-23)
(0.999702 0.000137226 0)
(0.999647 0.000142538 0)
(0.999538 -6.19271e-05 1.02551e-23)
(1.00048 -0.00160251 9.05834e-23)
(1.00063 -0.00177443 1.16504e-23)
(1.0003 -0.0014739 -1.46473e-21)
(1.00026 -0.00157941 -7.21176e-24)
(1.00076 -0.00191012 -5.14287e-22)
(1.00082 -0.00220165 1.86965e-23)
(1.00116 -0.00247124 4.76996e-23)
(1.0019 -0.00338802 -1.73317e-23)
(1.00133 -0.00318647 9.28507e-22)
(1.00938 0.00332286 2.38179e-23)
(1.00874 0.00567732 4.96727e-22)
(1.0082 0.0079502 -1.65372e-23)
(1.0086 0.00028939 -5.54909e-23)
(1.00957 0.000696453 -5.35993e-22)
(1.003 0.0106578 2.26637e-24)
(1.00192 0.0117793 -2.70016e-24)
(1.00439 0.0113607 2.98245e-23)
(1.00624 0.00960795 1.81449e-23)
(1.00303 -0.00438509 -1.9748e-22)
(1.00387 -0.00411792 -1.66729e-23)
(1.00456 -0.00396101 1.7259e-22)
(1.00534 -0.00375518 3.26699e-23)
(1.00611 -0.00339023 1.70622e-21)
(1.00685 -0.00313623 3.02218e-23)
(1.00212 -0.0038077 0)
(1.00853 -0.000753159 -2.18751e-22)
(1.00758 -0.00254268 -6.55389e-23)
(1.00802 -0.00189496 -2.82238e-22)
(1.00004 -0.00211034 7.6351e-21)
(0.99833 0.0119849 3.54485e-23)
(0.999654 0.0124107 9.17405e-22)
(0.996001 0.00829357 -1.96319e-23)
(0.997138 0.0110335 -7.55606e-24)
(0.996062 0.0103942 -1.03745e-23)
(0.995087 0.000750467 1.04949e-22)
(0.995529 6.4848e-05 5.86577e-22)
(0.996703 -0.000851612 2.91982e-23)
(0.996234 -0.000540394 -3.01499e-22)
(0.99768 -0.00102761 0)
(0.997228 -0.00114733 -1.65202e-25)
(0.995119 0.0017903 6.43941e-23)
(0.994102 0.00376173 -5.48449e-23)
(0.994037 0.00290284 1.86118e-23)
(0.994317 0.00440625 -7.08571e-23)
(0.994126 0.00544969 -2.30922e-23)
(0.995005 0.00667976 -1.44448e-22)
(0.999325 -9.64803e-05 0)
(0.999446 5.23399e-05 0)
(0.999128 -0.000444254 7.42514e-24)
(0.998437 -0.000795292 1.81819e-21)
(0.998779 -0.000886325 -4.26755e-22)
(0.998009 -0.0011383 4.22847e-23)
(0.998217 -0.00103901 8.88205e-23)
(0.999561 -4.40808e-05 0)
(0.999802 -3.07022e-05 1.16885e-23)
(0.999774 -0.000284476 8.84773e-25)
(1.00024 -0.0016529 1.26185e-23)
(1.00053 -0.00199124 1.32196e-23)
(1.00075 -0.00227854 6.53376e-21)
(1.00091 -0.00251436 2.45595e-23)
(1.00056 -0.00241265 -5.01962e-22)
(1.00102 -0.00266647 1.71604e-22)
(1.00102 -0.00294702 4.81185e-23)
(1.00104 -0.00328981 -5.62992e-22)
(1.01016 0.00414135 1.46799e-22)
(1.01041 0.00291867 -4.52092e-27)
(1.00994 0.00525184 -1.27979e-22)
(1.00988 0.00673843 1.32828e-22)
(1.00946 0.00820447 -8.36227e-24)
(1.00856 0.00918002 -4.72116e-23)
(1.01053 0.0016393 2.47063e-22)
(1.01051 -1.02132e-05 -3.41691e-23)
(1.0009 0.0125512 -1.69445e-24)
(1.00217 0.0131983 -5.57244e-23)
(1.00465 0.0127762 1.23086e-24)
(1.00567 0.011833 -1.91841e-23)
(1.00757 0.00977457 -2.46851e-23)
(1.00657 0.0108732 1.27372e-22)
(1.00313 -0.00540952 -2.01527e-23)
(1.00227 -0.00483511 -4.73922e-24)
(1.00416 -0.00483688 -2.02702e-23)
(1.00599 -0.00429366 -1.66339e-23)
(1.00751 -0.00359744 7.58844e-22)
(1.00182 -0.00435801 0)
(1.00165 -0.00395675 0)
(1.00916 -0.00179118 5.63301e-22)
(0.996811 0.0125446 3.51081e-22)
(0.999799 0.0140846 1.00705e-22)
(0.995229 0.00929838 -1.1156e-23)
(0.994963 0.0081312 2.97256e-23)
(0.994674 0.0103209 3.54166e-22)
(0.994786 0.00124398 -2.6572e-22)
(0.994412 0.00069806 -2.39406e-22)
(0.995694 -0.0003537 6.91132e-23)
(0.995068 -0.00030027 3.68592e-23)
(0.996976 -0.00143863 4.0708e-23)
(0.995899 -0.000924972 8.23606e-24)
(0.994278 0.00191753 1.73199e-23)
(0.993476 0.00415937 -2.78468e-23)
(0.993421 0.00212944 3.99007e-23)
(0.994186 0.00642427 -9.0121e-23)
(0.993358 0.00590878 -1.13736e-23)
(0.994417 0.00720433 -1.05804e-21)
(0.999453 -0.000121871 0)
(0.999392 -0.000175969 1.48977e-24)
(0.99932 -0.000458852 -1.86602e-24)
(0.999185 -0.000650967 -8.76769e-25)
(0.999057 -0.000866859 1.37633e-22)
(0.998895 -0.00113352 -8.4391e-25)
(0.998128 -0.00121902 3.76183e-22)
(0.999757 -2.11087e-05 2.14864e-24)
(0.999834 8.00865e-05 2.88416e-22)
(0.999427 -0.0002037 -1.73165e-21)
(1.0003 -0.00195435 -1.04214e-23)
(1.0001 -0.00183123 8.64199e-22)
(1.00041 -0.00206311 9.04443e-24)
(0.999938 -0.00236005 2.80367e-24)
(1.00036 -0.00223396 -9.23535e-23)
(1.00035 -0.00241455 2.38851e-22)
(1.00076 -0.00273447 -1.19335e-23)
(1.0008 -0.00355196 1.24156e-21)
(1.00056 -0.0032533 -1.02281e-22)
(1.01121 0.00500485 -5.40768e-22)
(1.01169 0.00247674 -1.42683e-23)
(1.01087 0.00806835 -7.90989e-24)
(1.00905 0.0103963 -7.43226e-22)
(1.01112 -0.00100972 -5.34156e-23)
(1.01204 5.06233e-05 -1.43294e-22)
(1.00347 0.0137856 2.97967e-24)
(1.00216 0.0149321 9.77482e-23)
(1.0051 0.0146992 -4.63344e-24)
(1.00702 0.0123515 1.09227e-23)
(1.00382 -0.00551639 4.10889e-22)
(1.00319 -0.00601577 -1.39853e-23)
(1.00169 -0.00478768 0)
(1.00471 -0.00548454 3.18838e-22)
(1.00568 -0.00511187 -2.91238e-22)
(1.00671 -0.00483181 -4.55494e-24)
(1.00756 -0.00468634 4.16083e-22)
(1.00855 -0.00414887 2.29652e-23)
(1.00123 -0.00398166 1.10939e-23)
(1.0015 -0.00440121 0)
(1.01039 -0.00196399 -2.56638e-23)
(1.0095 -0.003056 -4.50205e-24)
(0.996352 0.014125 3.52664e-22)
(0.995078 0.0127278 1.87785e-23)
(1.00084 0.0157073 -1.15807e-23)
(0.998973 0.0154004 1.11831e-21)
(0.993662 0.00796244 -1.48724e-23)
(0.99393 0.0115089 2.05436e-22)
(0.993144 0.0102505 2.87491e-24)
(0.994479 -9.41572e-05 1.10009e-23)
(0.993791 0.000364076 1.11512e-23)
(0.994607 -0.000607328 -2.63711e-23)
(0.996968 -0.00183663 -1.1746e-22)
(0.996433 -0.00158105 2.61584e-23)
(0.996013 -0.00133886 2.51881e-23)
(0.995521 -0.00125813 -1.40431e-22)
(0.992863 0.00497051 -2.73504e-23)
(0.992662 0.00393947 0)
(0.992596 0.00249891 2.89059e-23)
(0.992963 0.001346 -5.13805e-22)
(0.992424 0.00603224 4.28505e-22)
(0.999447 -0.000342131 -5.72567e-23)
(0.999556 -0.000158742 1.56735e-24)
(0.999431 -0.000565264 -1.72177e-24)
(0.999289 -0.000875655 -2.96617e-22)
(0.998808 -0.00143904 -4.43145e-24)
(0.999126 -0.00140061 1.34873e-23)
(0.998387 -0.0014688 -2.88559e-23)
(0.997992 -0.0016209 6.41065e-23)
(0.99968 1.27349e-05 -1.06339e-23)
(0.999696 -9.66963e-05 -9.9231e-24)
(0.999801 -0.000497477 7.40614e-24)
(1.00029 -0.00192103 2.07424e-23)
(1.00021 -0.00198607 8.75828e-24)
(1.00033 -0.00215842 9.01798e-24)
(1.00077 -0.00280057 9.20622e-21)
(1.0003 -0.00243816 2.41735e-24)
(1.00029 -0.0023654 1.04051e-23)
(1.0005 -0.00296302 6.24892e-24)
(1.00055 -0.00266052 6.36589e-22)
(1.00057 -0.00398907 1.63191e-23)
(1.00028 -0.00308749 1.20364e-22)
(1.01239 0.00605512 -1.60791e-23)
(1.01261 0.00416706 -7.30327e-23)
(1.01268 0.0017522 3.298e-23)
(1.01277 0.00286685 -2.06604e-22)
(1.01233 0.00753988 -8.27044e-24)
(1.01213 0.0092791 7.6445e-24)
(1.00866 0.0123456 8.97237e-23)
(1.0102 0.0114179 4.84641e-23)
(1.01166 -0.002318 7.08593e-22)
(1.01356 0.000502883 3.53849e-23)
(1.00197 0.0164604 -6.97799e-24)
(1.00527 0.0164345 -2.94469e-24)
(1.00675 0.0153757 -4.12389e-23)
(1.00791 0.0136416 1.272e-21)
(1.00245 -0.00639678 0)
(1.00359 -0.00696333 -3.03502e-23)
(1.00133 -0.0048028 -1.77079e-23)
(1.00544 -0.00601164 5.0782e-22)
(1.00724 -0.00562444 -2.48e-24)
(1.00976 -0.00447364 3.45043e-22)
(0.997194 0.0153115 3.11856e-23)
(0.995178 0.0154765 5.33083e-23)
(0.993156 0.0127866 6.2151e-23)
(0.998214 0.017364 2.60009e-23)
(0.99282 0.00917443 -5.17243e-23)
(0.992648 0.00762082 4.21186e-22)
(0.991868 0.00999133 -1.22347e-22)
(0.993062 0.000670712 -4.18071e-23)
(0.993114 -0.000348697 0)
(0.994926 -0.0012446 -5.53172e-23)
(0.994192 -0.0013394 1.69419e-22)
(0.996794 -0.00237255 -2.54296e-23)
(0.997307 -0.00207947 -3.92986e-23)
(0.99605 -0.00190539 0)
(0.995163 -0.00166086 6.8161e-24)
(0.992233 0.00312079 0)
(0.991572 0.00397902 0)
(0.991668 0.00228392 9.53826e-24)
(0.992238 0.000820744 -3.92771e-23)
(0.992051 0.00692512 -5.53e-23)
(0.991348 0.00590934 -9.62262e-24)
(0.999741 -0.000257786 0)
(0.999595 -0.000622733 0)
(0.999473 -0.000758525 -1.45025e-23)
(0.999423 -0.000830885 3.71545e-22)
(0.999366 -0.000992981 -5.92126e-25)
(0.998757 -0.00178792 3.38616e-23)
(0.999368 -0.00123506 1.09439e-23)