/*--------------------------------*- C++ -*----------------------------------*\
| =========                 |                                                 |
| \\      /  F ield         | OpenFOAM: The Open Source CFD Toolbox           |
|  \\    /   O peration     | Version:  v2012                                 |
|   \\  /    A nd           | Website:  www.openfoam.com                      |
|    \\/     M anipulation  |                                                 |
\*---------------------------------------------------------------------------*/
FoamFile
{
    version     2.0;
    format      ascii;
    class       surfaceScalarField;
    location    "0.6";
    object      meshPhi;
}
// * * * * * * * * * * * * * * * * * * * * * * * * * * * * * * * * * * * * * //

dimensions      [0 3 -1 0 0 0 0];


internalField   nonuniform List<scalar> 
18811
(
0.00460979
0.000584066
0.00151171
0.00893475
-0.00581617
0.0116696
0.00926575
-0.00603278
0.0202051
0.000986194
0.0112059
0.0098845
0.00880328
0.0132997
0.0142944
0.012631
-0.00483938
-0.0055465
0.0221199
0.0301479
0.018724
-0.00154205
-0.0167166
0.037835
0.0182759
0.000198875
0.000902831
0.0182525
0.0111883
0.0162693
0.022347
0.0155242
0.0100515
0.00708957
0.0217029
0.0243001
0.0177701
-0.0126143
0.00927689
-0.00334601
0.0259505
-0.00161212
0.0437659
0.0395462
0.0521816
-0.0122649
0.0291242
0.00280159
-0.0270764
0.0594124
0.0217444
0.00107549
0.00114051
0.00102443
0.0266103
0.0255344
0.0177094
0.0303151
0.0256113
0.0360102
0.0245623
0.0125052
0.0183065
-0.00488833
0.0273917
0.0412817
-0.0174132
0.0234116
0.0152
-0.00961079
0.00671283
-0.00221651
0.0385973
-0.00692546
-0.0310212
0.0662302
0.0503447
0.0646832
0.0720098
-0.0173759
0.0377151
0.00859829
0.0015125
-0.025196
0.0749609
0.00218856
0.0245013
0.00287451
9.43336e-05
-0.00188222
0.00214304
0.0147758
0.0213373
0.0507652
0.0132701
0.0465722
0.0260139
0.0485953
0.0405855
0.0418089
0.0288147
0.01499
0.026818
-0.0105405
0.00789547
0.0346286
0.0478249
-0.013139
0.0195898
-0.0191195
0.0257593
-0.00787415
0.0115654
5.80425e-05
-0.00376784
-0.0378431
0.0594128
-0.0124592
0.0617816
-0.00373794
0.0493021
0.0827383
0.0999491
0.0843766
-0.0195118
0.0406135
0.0144884
0.0071084
-0.0271277
0.0828172
0.00286452
0.00505078
0.0182251
0.00242842
-0.000886859
0.000903624
0.0566016
0.0127478
0.0422966
0.0607008
-0.0132172
0.0691927
0.0558372
0.0397949
0.0348641
0.0742938
0.000199473
0.0930975
0.0331561
-0.0175494
0.040392
0.016323
-0.00183179
0.0916942
0.0151575
-0.0078969
-0.0146179
0.0242062
-0.0201952
0.0444232
0.000303384
0.00416565
-0.00152819
-0.043952
0.0661636
-0.0398981
0.089282
0.0276197
0.0351875
0.0412501
0.0997028
0.0843131
-0.00327698
0.0864746
0.100331
-0.0191906
0.05953
0.00568914
0.0289908
0.00528846
0.0130825
0.0847933
0.0048548
-0.00684604
0.00173799
0.0090136
0.00921528
0.000923278
-0.00125191
0.000378606
0.0437975
0.0316428
0.0692567
0.0309444
0.0794111
-0.0248711
0.0725178
0.00407351
0.104217
-0.0153559
0.107775
0.0977431
0.088496
0.0215172
0.041924
-0.0121784
0.0251941
0.0419577
-0.00677743
-0.000552542
0.0887182
0.076887
0.0135671
-0.00825879
0.017032
0.00670833
-0.00246068
-0.014881
0.0286516
-0.0265386
0.0424771
-0.0012254
0.00113946
-0.0250418
0.0644222
-0.0498367
0.0888896
0.0364501
0.0640627
0.0396547
0.0728761
0.0425643
0.0763243
0.0136311
0.092907
0.110969
0.107524
-0.0265212
0.0758494
0.0302279
0.00238283
0.0210607
0.0296256
0.00736165
0.108135
0.00269359
0.00652526
0.00690659
0.0537618
-0.00490493
0.0366714
0.0355259
0.0367628
-0.00693986
0.103001
0.0787211
-0.0246911
0.0961048
0.0903955
0.000822123
0.0775857
-0.0282414
0.112612
0.100608
0.0263247
0.0936749
0.084185
0.0318119
0.0589803
-0.0156468
0.0255641
-0.0294825
0.0558901
0.00465354
-0.000235545
0.0729623
0.0446402
0.00574453
-0.00701524
0.0173268
-0.0129567
0.0233191
-0.0296025
0.0299786
-0.0152562
0.0574887
-0.0331964
0.0770567
0.0784238
0.0466815
0.0649067
0.0761719
0.00163096
0.0968384
0.0858205
0.0337362
0.0881688
0.0332164
0.0759387
0.119046
0.136738
0.112557
-0.0219672
0.0888474
0.0208998
0.00996902
0.0568461
0.00411484
0.0300989
0.00823812
0.099699
0.00251896
0.00753138
-0.00281966
0.0377913
-0.00361664
0.0275176
0.0301989
0.0231199
0.0597746
0.00236885
0.0836926
-0.0134232
0.0831745
-0.0125284
0.0944472
0.140325
0.170628
-0.023334
0.118047
0.105984
0.0215284
0.0058477
0.140979
0.0835988
0.0365692
0.041118
0.0829584
-0.00971962
0.0249786
-0.0407569
0.0498413
-0.00590313
0.0144908
-0.000208442
0.0633434
0.0425456
0.00580127
0.0160281
-0.00556704
0.0166528
-0.0227403
0.0232456
-0.0097641
0.0411585
-0.0197573
0.0542311
-0.035476
0.0629462
0.0687511
0.0755175
0.0546969
0.0335503
0.077175
0.099186
0.0532775
0.0908768
0.0928716
0.0445813
0.0807375
0.119927
0.112332
0.0446327
0.105858
0.106369
-0.0306539
0.0764184
0.0172504
0.069583
0.0101882
0.0238838
0.0235498
0.00573863
0.103106
0.00402668
-0.00230701
0.0243171
0.00195057
0.0177098
0.0254453
0.0227871
0.0484558
0.018287
0.00454467
0.0679616
0.0498795
0.0299316
0.087456
-0.0123171
0.093238
0.152208
0.155384
0.147316
-0.0293678
0.114432
0.0165183
0.11022
0.0988509
0.0204316
-0.0110478
0.123598
0.0788777
0.0327672
0.0540027
0.0273027
0.075536
0.0603313
-0.00724468
0.0221938
-0.0114398
0.0408588
-0.025412
0.053912
0.00392304
0.0444417
0.0627766
0.00806323
0.0108257
-0.0135373
0.0185542
-0.010774
0.0313256
-0.0131771
0.0419998
-0.0198782
0.0455382
0.0561992
-0.0409355
0.0629611
0.0380436
0.033444
0.0721564
0.0246217
0.0669213
0.0673702
0.0945186
0.0661087
0.134265
0.0316911
0.0794701
0.0745143
0.0567976
0.0629578
0.121875
0.105466
0.105196
0.0353188
0.0952424
0.0807778
-0.0388931
0.0705294
0.0212438
0.0569444
0.0838601
0.015672
0.0199958
0.018557
-0.00286401
0.0141337
0.00137459
0.0646843
0.00260605
0.0109982
0.0217857
0.0250965
0.00786215
0.0376365
0.0214731
0.029122
0.0365275
0.0740001
0.0474749
0.0278672
0.0754061
0.0720476
-0.021234
0.0906224
-0.0239302
0.125051
0.12815
0.11676
0.117808
0.115564
-0.0332736
0.0994246
0.0860518
0.0413598
0.00962735
0.100585
0.096274
0.012738
-0.0189593
0.119158
0.00950121
0.0749067
0.0541565
0.0184115
-0.00753634
0.0664947
0.0642767
-0.00843175
0.0291812
-0.0146499
0.038486
-0.0308628
0.0531147
0.00175447
0.0107067
0.0773973
0.00724821
-0.0076203
0.0224449
-0.00724423
0.0320543
0.0389657
-0.0109936
0.0501977
0.0530357
-0.00653187
0.0457118
0.0354681
0.0416474
0.066066
0.0236785
0.0545057
0.0162601
0.058871
0.0599673
0.0866671
0.042846
0.0469288
0.0845297
0.0704351
0.0523343
-0.0060212
0.12941
0.114741
0.0402775
0.0617915
0.100032
-0.0573006
0.103293
0.0858323
0.0428466
0.0909998
0.0710533
0.052427
0.0485723
-0.0362847
0.0569688
0.00276643
0.0646826
0.0676868
0.0182447
0.0105476
0.0195307
0.00624595
-0.0050056
0.0206061
0.00653227
0.0732268
0.00412631
0.0188341
0.0246258
0.050053
0.00446713
0.00194265
0.0532864
0.0469901
0.0497734
-0.0117515
0.0555845
0.0411504
0.0272251
0.0672088
0.0738084
0.0675673
-0.021729
0.0831273
0.000980098
0.0897486
0.117325
0.0890339
0.089568
-0.0551
0.112737
0.0793973
0.0200184
0.0998493
-0.0332125
0.096458
0.0311587
0.0725159
0.055517
0.0511009
0.00610621
0.0823378
-0.0422478
0.0874533
0.0512508
0.0952401
-0.0401066
0.0954159
-0.0132748
0.0628043
0.0446458
0.0321478
0.0325736
0.0467104
0.0283402
-0.00645264
0.042123
-0.0296913
0.0521185
0.00739252
0.0188375
0.0319748
0.0425291
0.0088279
0.0212495
0.000760413
-0.0079023
0.0353483
-0.0334758
0.0418141
0.04364
0.00759255
0.0426179
0.00919963
0.0425053
0.0350296
0.0224098
0.0644364
0.0527433
0.0168219
0.0125716
0.0632899
0.0166198
0.0529945
0.0506362
-0.0306456
0.125226
0.0920884
0.00891343
0.0826183
0.101068
0.110538
0.00701422
-0.0140878
0.0976404
0.0903274
0.0271664
0.0698744
0.0897789
0.081091
-0.017886
0.0712191
0.0445485
0.0831641
0.00677934
-0.0125577
0.0662442
0.0224331
0.0757916
0.0599163
0.038166
0.0375048
0.0252825
0.0374728
0.00769511
0.070096
0.0794937
0.0155675
0.0400843
0.0135021
0.0120522
-5.44647e-05
-0.00663634
0.0300522
0.0497042
0.0315259
0.0105832
0.00274259
0.0154732
0.0144253
0.00487625
0.0389293
0.00612999
0.00314044
0.0424944
0.0500764
0.0541242
0.0478503
0.0668832
0.0389901
0.0271037
0.0673164
0.0576825
0.0211155
0.0441856
0.0765977
-0.023712
0.0745508
0.0211302
0.109554
-0.0118752
0.108245
0.110492
0.127488
0.102914
0.108875
-0.00285885
0.0965289
0.0744657
-0.00529878
0.0670081
0.0247513
0.0373753
0.0457917
0.06773
0.0418745
0.0310839
0.083737
0.0750536
0.0848949
0.0756285
-0.0436657
0.0838435
0.0630245
0.0487901
0.0399631
0.028882
0.0555116
-0.0193671
0.0384497
-0.0269748
0.0422493
0.00867039
0.00425106
0.0140187
0.082659
0.00672149
-0.00764693
0.0255467
0.00969257
0.0334202
-0.0284068
0.0376526
0.0474855
0.0053279
0.0148853
0.0415899
0.0649153
0.0274978
0.0416938
0.05616
0.0268383
0.0422631
-0.00893954
0.0683285
0.0726516
0.0443254
0.0344661
0.0605884
0.0129496
0.00965674
0.103961
0.0721869
0.03935
0.0327349
0.0792796
0.0630253
0.067386
0.0617484
0.0446363
0.0179765
0.0948774
0.049615
0.049285
0.0183933
0.0548993
0.0547451
0.0184799
0.0501103
0.0682186
0.0660086
0.0589231
0.0108796
0.0919654
0.0420536
0.0698737
0.00761844
0.0606846
0.0265349
0.0136284
0.0636625
0.0511122
0.0344892
0.022636
0.0388668
-0.000325079
0.049834
-0.00800392
0.0471306
0.0506742
0.0464254
0.0136454
0.0310321
0.0122215
-0.0056644
0.017752
0.00200735
-0.00800694
0.0245806
0.0303306
0.0545178
0.00770228
0.00295361
0.0214448
0.00853293
0.0372812
0.00363437
0.0146783
0.0358696
0.0453991
0.0594769
0.0187886
0.0487878
0.0628169
0.0488235
-0.0200423
0.064094
0.0501191
0.0357288
0.0389425
0.0822195
0.0666119
0.0587233
0.0848253
0.0548672
0.0516659
0.103823
0.0975099
0.00796008
0.0709304
0.124422
-0.0366122
0.0840794
0.0700232
0.0608212
-0.0193061
0.0703634
-0.040447
0.0578762
0.0624633
0.0127629
-0.0142161
0.065713
0.0557179
0.0457458
0.0219314
0.0832519
0.0382082
0.0560482
0.089823
0.0642063
0.0760498
0.0795638
0.0460513
-0.0345226
0.0703598
-0.0151211
0.0534211
0.0312555
0.0340222
0.00380842
0.0415883
0.0526223
-0.0209474
0.0372085
-0.018692
0.0319949
0.0125034
0.00670988
0.0059089
0.00706979
0.0164814
0.00865801
0.0283587
-0.0205972
0.0266592
-0.0241673
0.0627437
0.0239875
0.00478522
0.0569877
0.0554643
0.0147592
0.050216
0.0655214
0.0362545
0.0294312
-0.000970186
0.0527465
0.0770928
0.0344048
0.0495848
0.0191045
0.0495805
0.0424556
0.0142516
0.0656767
0.0208848
0.118942
0.053982
0.0519315
0.0415662
0.0575936
0.0123237
0.0591544
0.0387301
0.0879592
0.0128807
0.0729716
0.00139728
0.0703969
0.0668483
-0.00383369
0.073551
0.0401444
0.0149804
0.0144705
0.0466307
0.0536918
0.0895473
0.0960849
0.0812825
0.0038988
-0.0275372
0.0857282
0.0568833
0.0854506
0.0274512
0.0498835
0.0727069
0.00855116
0.0747247
0.0521543
0.0192533
0.0250061
0.026519
-0.0102776
0.0422178
-0.00503731
0.0390955
0.0540488
0.0131014
0.0374277
0.020223
0.0223643
0.0148178
0.000246268
0.00896068
0.00133622
0.0228615
0.00773696
0.00340888
0.0200627
0.00999589
0.034199
-0.00571806
0.0346049
0.0308654
-0.0259851
0.0535486
0.0270088
0.0321523
0.0185953
0.0390183
0.0712024
0.066833
0.0839403
0.0300744
0.049141
0.0860743
0.0815306
0.0765673
0.0910301
0.0315782
-0.0205252
0.0744872
0.0816006
0.0705082
0.00877615
0.0497551
0.0471694
0.0428556
0.0813594
0.054407
0.0690175
0.0640834
0.0110043
0.0530658
-0.0342066
0.0469141
0.0547552
0.0167475
0.0635793
0.0279247
0.0464871
0.0518343
0.055699
0.0915109
0.0338224
0.0537745
0.0593242
-0.000764519
-0.0107556
0.0620755
0.0637003
0.0619651
0.0611677
0.0151769
0.0797514
0.0366711
-0.0164811
0.0423131
0.0371517
0.0219463
0.0270216
0.0242144
0.0125328
0.0227837
-0.00821358
0.030362
-0.0109982
0.0342993
0.0122534
0.00461348
0.0249812
0.000178038
0.00772629
0.0119567
0.0114621
0.0242922
0.0109127
0.0203162
-0.0190843
0.0560916
0.0604588
0.0373749
0.0732658
0.00559647
0.0678844
0.0745494
0.040613
0.0453877
0.0918772
0.0012731
0.0870519
0.0850515
-0.0163961
0.0950386
0.0236556
0.0703592
-0.0475562
0.0818248
0.0597835
0.0279738
0.0559673
0.0211697
0.0500703
6.48321e-05
0.0499179
0.0766924
0.0687581
0.0223645
0.0609155
0.0783248
-0.0139634
0.0849078
0.0515741
0.0737589
0.0281866
0.0222139
0.0396768
0.00373261
0.0190508
0.034622
0.0416693
0.0647158
0.0761925
0.087513
-0.0298618
0.0870757
0.0635832
-0.0290737
0.0845618
0.0787081
0.0751849
-0.00993046
-0.0157429
0.0789605
0.065491
0.0119562
0.0230362
0.012489
0.0280911
0.0249829
0.0125937
0.0469101
0.0346819
0.0333713
0.0186494
0.0202602
0.0311959
0.00407523
0.011901
0.00232623
0.00572363
0.00163967
0.0137285
0.00734854
0.00522534
0.0227375
-0.0248924
0.0384509
-0.00237615
0.0337353
0.0240761
0.026705
0.0360937
-0.00652198
0.0467951
0.0306965
0.0448989
0.0145315
0.0551692
0.0242
0.0520932
0.0713574
0.0632909
0.0306674
0.00712085
0.0821908
0.00751228
0.0793645
0.0502235
0.0750946
-0.00175292
0.0588115
0.0253751
-0.0136991
0.0751541
0.0781278
0.0503911
0.00560984
0.0437507
-0.00817888
0.0871681
0.0624501
0.0550422
0.00706765
0.066434
0.044104
0.0425641
-0.0263053
0.0791506
0.0488236
-0.00882115
0.0347291
0.0398658
0.0284682
-0.0223708
0.0241625
0.0397671
0.0170947
-0.0316069
0.0981917
0.0463719
0.0404097
0.0486299
0.0598497
0.0725473
0.0301436
0.0561543
-0.000662119
0.0811636
0.076234
0.0707635
-0.0170028
0.084388
0.0342413
-0.00933724
0.0369341
0.0444027
0.0368566
0.0109919
0.0214129
0.00834427
0.0223506
0.0245392
-0.00414139
0.0255366
-0.00414293
0.030427
0.0101006
0.00434588
0.0187827
-0.00343091
0.0104228
0.0237622
0.0400389
0.00148649
-0.00853432
0.0439719
0.0526355
0.0690459
0.0367169
0.0404794
0.0613058
0.00379675
0.0531131
0.0575062
0.0480492
0.0248315
0.072469
0.0804959
0.039814
0.0441345
0.0448369
0.0362669
-0.0262181
0.0781899
0.0075719
0.0699357
0.0595152
-0.0415784
0.0686135
0.0506231
0.00830171
0.0709821
0.059504
-0.00540964
0.0494076
0.0385691
0.0509392
0.072305
-0.00192364
0.0579708
0.0522741
0.00595795
0.0618217
-0.0326846
0.0767375
0.0482148
-0.0200371
0.0702432
0.0241073
0.00800766
0.00211535
0.0365737
0.0185183
0.00799032
0.0277226
-0.00518306
0.040816
0.0263661
0.0835385
0.0885308
0.0802593
-0.0263301
0.0878687
0.0476693
-0.0307243
0.0885437
0.0626159
0.0712204
0.00663914
-0.0135624
0.0862383
0.0728787
0.00593107
0.0266942
0.0227553
0.0134406
0.0371204
0.00894439
0.00667824
0.0308371
0.027648
0.0268885
0.0216757
0.0164457
0.0386419
-0.00661353
0.00828337
0.0037049
0.00301713
0.00451233
0.010631
0.0214827
0.00533948
0.0254017
-0.00235579
0.0478542
0.0518352
0.0277004
0.0429328
0.0402403
-0.000902336
0.000683693
0.0416791
0.0283214
0.0345987
0.0832188
0.0839688
0.0406825
0.0328754
0.0466665
0.0357578
0.0889997
0.0911362
0.078209
0.0383211
0.0582977
0.0135174
0.0619653
-0.00117541
0.0434201
0.026324
-0.0179645
0.0699318
0.0131116
0.0600588
0.0545332
-0.00156025
0.0502812
-0.0260244
0.0661844
0.0659976
0.0480799
0.0512795
0.0652639
0.045068
0.0171391
0.0609264
-0.0355924
0.0853721
0.0359156
-0.00647496
0.0285813
0.0246982
0.0281568
-0.0183629
0.0240109
0.00649907
0.0196013
0.0386344
0.0864014
-0.000772313
-0.00588935
0.0963589
0.0761321
0.0588858
0.0247736
0.0654294
0.0121881
0.0518042
0.0852458
0.094896
-0.0116071
0.0860645
0.0108801
0.0149191
-0.00219198
0.0250523
0.0236655
0.044276
0.0489866
0.0286583
0.00138783
0.0237336
0.00820501
0.0170775
0.022627
0.000107115
0.0202671
-0.00203276
0.0171678
0.0142107
0.00554631
0.00939925
0.0193351
0.0341117
-0.00602635
0.00693003
0.0423596
0.00393659
0.0496064
0.0638549
0.0482827
0.0432442
0.0364004
0.050248
0.0307477
0.0540829
0.0502661
0.0355356
0.0810016
0.0879278
0.0326576
0.0580323
0.0348963
0.0580046
-0.00144435
0.0809179
-0.0285863
0.0681884
0.00742153
0.0521541
-0.0429753
0.0580242
0.0202136
0.043132
-0.0255505
0.0528002
0.0427051
0.00146521
0.0596217
0.0570254
0.0122739
0.0381024
0.0271766
0.040481
0.0116337
0.0559588
0.0567698
0.0696292
0.0282329
0.0382493
0.0744163
0.0510725
0.0111062
0.0491479
0.037558
0.0890737
0.0176462
0.00887582
-0.000822982
0.0231263
0.00134838
0.0253209
0.0206877
-0.0191002
0.0234078
0.0381346
0.0763557
0.098048
0.102751
0.093201
-0.0344349
0.101593
0.0834856
0.00343909
0.067473
0.0291082
0.0530135
0.0347996
0.0221651
0.00883355
0.016367
0.0145906
0.00874442
0.0171726
0.0287887
0.016659
0.0345279
0.0120507
0.0173394
0.00290972
0.0184277
0.0181233
0.0215586
0.0143094
-0.0117955
0.0298781
0.00165284
0.00570561
0.00800869
0.00477927
0.0161849
-0.00403551
0.0475838
0.0466967
0.00331019
0.061952
0.0527905
0.0405573
0.0048923
0.0335221
0.00611268
0.0105694
0.0412821
0.0677861
-0.00230716
0.0578572
0.0809115
0.0242979
0.065504
0.0946217
-0.0170932
0.0765418
0.0652645
0.0439461
0.0412815
0.0121757
0.04183
0.0174129
-0.0516412
0.0729644
-0.00755939
0.046328
-0.0246496
0.0685412
0.035259
0.0255543
0.0391133
0.018993
0.0515929
-0.00166029
0.0391951
-0.0315623
0.0599649
0.0533302
0.0168678
0.0401859
0.0265012
0.0445364
0.0266109
0.0845168
0.0511807
0.0790027
0.0615471
-0.037281
0.0761277
0.0536543
-0.00567961
0.0207886
0.0323255
0.014744
0.01253
0.00567091
0.000593698
0.0199432
0.0358091
0.0651531
0.0126342
0.0630766
0.0366661
0.0462423
0.0585368
0.060448
0.0421391
0.0611956
0.0201099
0.0647202
0.0723329
0.0837898
0.101608
0.00929433
0.0122081
0.0234991
0.0288183
0.0177078
0.0353315
-0.00638124
0.0367909
-0.0146614
0.0327494
0.0298392
0.0167601
0.00335608
0.0134345
0.0107697
0.00123512
0.0146795
0.0355433
-0.00436262
0.00305821
0.00829337
0.00135475
0.00995869
0.023859
0.0216857
0.0272429
0.00559159
0.0422778
0.0613954
0.0597211
0.0531159
0.0408996
-0.0217073
0.0312621
0.064808
0.0117253
0.0572667
0.0708499
0.0168197
0.0654449
0.0833265
0.083883
0.0405023
0.0557659
0.0446691
0.0331161
0.00335037
0.0629952
-0.0219398
0.0671135
0.0690255
0.0553239
-0.0328163
0.0511752
0.0412832
-0.0210712
0.0684992
0.0479408
0.0550439
0.0433568
0.0355755
0.0167797
0.00614458
0.0330099
0.0363047
0.0246473
0.0166012
0.0378544
0.00491121
0.0361879
0.0212714
0.0649113
0.0738036
0.0766316
0.00400042
-0.00639068
0.0690577
0.0710529
0.0751445
0.0129929
0.00530989
0.0145353
0.0159307
-0.00242536
0.0149098
0.00836047
-0.00690787
0.0106558
0.0102775
0.00890623
0.0251671
0.077178
0.0845591
0.102421
0.102641
-0.0380089
0.100721
0.0584462
0.00738123
-0.00788642
0.0816782
0.0775529
0.0848604
0.0184822
0.0145935
0.0183813
0.0054199
0.00628671
0.0238115
0.0031905
0.0142566
0.0113302
0.0257493
0.00852309
0.0299218
0.0227587
0.00558661
0.0285259
0.0366111
0.00280823
0.0120332
0.0147118
-0.00771103
0.0196325
0.00813554
0.0162947
0.00128558
0.00265223
0.00573858
0.00352569
0.00549407
-0.00556745
0.018266
0.0708933
0.00115994
0.0616199
0.0623788
0.0435798
0.0114559
0.0392608
0.00423938
0.0281862
0.00580964
0.00881741
0.0580072
0.0113829
0.0607547
0.0699946
0.00969755
0.0748351
0.0149063
0.0703683
0.102061
0.0974156
0.0470753
0.0319899
0.0382149
-0.00171719
0.0583027
0.0510013
0.00105252
0.050043
-0.00772603
0.0539084
0.0155396
-0.0191245
0.0683017
0.0470862
0.00895529
0.00949229
0.0349025
0.0417286
-0.0230411
0.0403906
0.00863315
0.0239561
0.000743998
0.0364183
0.0420375
0.0437261
0.0466134
-0.0065252
0.073096
0.0561138
0.0719074
0.0745457
0.00318861
0.0694783
0.015315
0.0608438
-0.00432173
0.0148588
0.017924
0.0234611
0.00833901
-0.00370219
0.0102948
0.00515938
-0.0011814
0.00983066
0.0331036
-0.0159556
0.0948031
0.0703555
0.0425639
0.0614378
0.0662037
0.0398251
0.0623033
0.0747114
0.0906323
-0.00360419
0.0826934
0.082857
0.115269
0.0175918
0.0256503
0.0199781
0.0365099
0.0356814
0.00340319
0.0285071
-0.00668322
0.0305178
-0.00808954
0.0377873
0.0427103
0.00924319
0.00640041
0.00709009
0.0148425
0.025631
-0.0081907
0.00206241
0.00707717
0.00724794
0.000938426
0.0185885
0.0029769
0.00245268
0.0701677
0.0744253
0.0662307
0.0543125
0.0530022
0.0351135
0.026973
-0.00613514
0.0658249
0.0715856
0.0860928
0.0274591
0.0486372
0.0996362
0.0284951
0.0749839
0.012803
0.0860211
0.0607825
-0.0124426
-0.0162877
0.0493252
0.0398731
0.0503955
0.0432696
0.0519705
0.0472913
0.0773035
0.0574912
0.0247686
0.0446166
0.0147124
0.0273981
0.0434007
-0.00220412
0.0388376
-0.00657374
0.0437406
0.0362553
0.00510183
0.0395793
0.000840877
0.0469234
0.0116948
0.0625994
0.0689553
0.0776451
-0.00411357
0.00923274
0.0665389
0.0655383
0.0800379
0.00774881
0.00456533
-0.00117212
0.0177699
0.0208763
-0.00298766
0.00932157
0.00532639
-0.00307732
0.00693365
0.00550225
0.0155757
0.0166468
0.114833
0.102687
0.0959724
-0.0378454
0.101563
0.0379037
0.0380875
0.0472187
0.0446288
0.0406937
0.0436385
0.054406
0.0295749
0.0502535
0.0664471
0.00498363
0.0120368
0.0281
-0.00116517
0.00290369
0.0175651
0.012376
0.0267224
0.0269817
0.0108138
0.0574459
0.0203018
0.0237291
0.00941603
0.0296484
0.0535776
0.00157008
0.00641856
0.0110947
0.00772062
0.00773853
-0.000795193
0.00352825
0.00699476
0.0134358
0.00452044
0.065578
0.0118042
0.0639971
0.0795978
-0.0113236
0.06743
0.0436626
-0.0180793
0.055641
0.0112918
0.0170402
0.0504013
0.04348
0.02922
0.100365
0.0932973
0.0479245
0.0529462
-0.00776574
0.0839176
0.0794609
0.0027843
0.0475203
0.0434723
0.000448986
0.0508158
-0.0166649
0.0611946
0.0534576
-0.000474607
-0.0116433
0.0598105
0.0669712
-0.0337554
0.0928575
-0.0153402
0.0408446
0.0303388
-0.0145368
0.0426712
0.029673
0.0393604
0.00963595
0.0289202
0.00329804
0.0415635
0.0422114
0.0413978
0.0146008
0.0334265
0.00931181
0.0545801
0.036347
0.0887845
0.0638789
0.104866
0.0327567
0.0487215
-0.00666186
0.0119725
-0.00412468
0.00709379
0.00885599
0.00563265
0.0137856
0.00356066
0.00595936
-0.00246791
0.00555432
0.000239314
-0.000163928
0.00464011
0.024891
0.0209776
0.0809228
0.0355975
0.0562284
0.0477832
0.0595812
0.0289447
0.0736931
0.0865909
0.0868608
0.0994565
0.0809484
0.000579422
0.0671356
0.0154868
0.0139946
0.0158735
0.0175698
0.0279652
0.0394466
0.057238
0.0036153
0.0226562
-0.00148389
-0.00534746
0.0298315
-0.00371682
0.0341864
0.00746189
0.0473978
0.00519446
0.00282351
0.00799172
0.00288125
0.00411989
0.0157959
0.00414317
-0.00299336
0.0204119
0.00577646
0.00522155
0.0619407
0.0947343
0.0866335
0.0868919
-0.0171649
0.0635827
0.0412246
0.0363577
0.114415
0.0393566
0.0623197
0.0338999
0.0608599
0.0885891
0.0880758
0.0381984
0.0466361
0.0307927
0.0496045
-0.000701234
0.0491425
0.0479362
0.0548423
0.0353532
0.0616505
0.0604859
0.0645759
0.00403626
0.0666427
0.0279049
0.0460453
0.0265116
0.0170726
-0.0082675
0.0387702
0.0375977
0.00279348
0.0015648
0.0277554
-0.00740446
0.0498632
0.0355859
-0.000984548
0.0435029
-0.00332195
0.0374735
0.0921927
0.0642097
0.0258671
0.0980614
0.0304759
0.0759125
0.080587
0.000864819
0.00883726
0.00667282
-0.00142082
0.0209661
-0.00298783
0.0050109
0.00130996
0.00182753
0.00410717
0.00694363
0.0175099
0.0273846
0.0831534
0.0931749
0.0776278
0.0990299
0.0205727
0.0538329
0.00321122
0.0843912
0.0911382
0.0868875
0.0137894
0.0134636
0.0684871
0.0815755
0.00488598
0.0113892
0.0235123
-0.00611502
-0.00126786
0.0201657
-0.00196797
0.0321054
0.043987
-0.000967674
0.0362358
0.0235915
0.0499467
0.0181242
-0.0117575
0.0109145
0.0271662
0.0426775
0.0158734
0.0336772
0.000100131
0.0040662
0.00555961
0.00480404
0.00393942
0.00362761
0.00471448
0.00262428
0.00211942
0.0118819
0.0419014
0.0542797
0.130756
0.0209495
0.068037
0.0464421
0.0185864
0.0418651
0.00206335
0.0304885
0.00935573
0.048444
0.0679859
0.0942613
0.116755
0.0123098
0.0772479
0.10152
0.0971415
0.011217
0.0389652
0.060373
0.0383871
0.0174048
0.0748504
0.0197212
0.0431119
0.0042385
0.0575948
0.0703576
0.0724739
-0.0409185
0.0699259
0.0278143
0.0190664
0.0284088
-0.0153283
0.0331218
0.0301331
0.0243524
0.0313553
0.00622667
0.0216155
0.0328979
0.0180208
0.0355238
0.0409951
0.0191959
0.0191557
0.0525948
0.0144447
0.0510571
-0.0371317
0.064028
0.0623341
0.0482946
0.0285697
0.013961
0.0677717
0.00566826
0.0013149
0.00598976
0.00211926
0.00956247
0.00924947
0.00317074
-0.00339559
-0.0037326
0.00447441
-0.000825912
0.0237448
0.00682796
0.0188614
0.0687413
0.0154565
0.0588466
0.0352289
0.0225758
0.0559161
0.0602023
0.0399006
0.0817051
0.0771294
0.0386288
0.0469458
0.0362035
0.0561304
0.0349271
0.0534142
0.0833181
0.0148861
0.0677076
0.0103317
0.0112135
0.0233678
0.0159535
0.0338871
0.0543825
-0.040343
0.0663368
0.013209
-0.00361367
0.0220112
0.0152407
-0.00391818
-0.00551071
0.0328611
0.0176902
0.0256067
0.0519847
0.00229937
0.00248157
0.00305081
0.00692007
-6.49008e-05
0.00315727
0.00783339
0.0021751
0.0111392
0.00538593
0.0375495
0.0950899
0.0695298
0.118724
0.0623499
0.0354787
0.0243597
0.107641
0.0473935
0.0480561
0.00388579
0.114526
0.126259
0.10681
0.0484746
0.0495883
0.0596343
0.0230901
0.0387416
0.0763201
0.0132989
0.0629793
-0.0116848
0.0561389
0.00434832
0.0673988
0.061448
0.0123183
0.0620277
0.00896966
0.0390173
0.0251892
0.00396594
0.0186446
0.0151297
-0.00497721
0.0359992
-0.00811334
0.0333481
-0.00340496
0.0355944
0.00283388
0.0191464
0.0573079
0.0544767
0.0211777
0.0205428
0.0410186
0.0683592
-0.0320446
0.0841565
0.0328305
0.00744609
0.0561396
0.0630706
0.0682631
0.0768193
-6.16627e-05
0.00404708
0.00925986
-0.000171046
0.00463565
-0.00374714
0.00380764
0.0147641
-0.00221397
-0.00050415
0.001158
0.0226549
0.00275006
0.0156475
0.0847532
0.0752703
0.0920934
0.0893429
0.032057
0.0504474
0.110082
0.0840345
0.092659
-0.0576864
0.112353
0.0267004
0.0955855
0.00377556
0.00806323
0.0161918
-0.00868425
0.0347573
-0.00625941
0.0242921
-0.0144563
0.0520033
0.0122871
0.0437653
0.0373051
0.0309766
-0.0318262
0.0478501
0.0118976
0.0167095
0.00422271
0.0164942
0.0164047
0.0421897
0.00894161
0.0440652
-0.00208304
0.00331491
0.00300854
0.00615258
0.00155577
0.000630342
0.00639064
0.0108787
0.00927892
0.0870695
-0.0227477
0.0944483
0.0669749
0.0524948
0.0414522
-0.00882081
0.0467503
0.0175778
0.0198417
0.0888719
0.0986238
0.12551
0.0304559
0.0969949
0.138805
0.0221176
0.0389622
0.062171
0.0398673
0.0376288
0.0541192
0.0527811
0.0189368
0.0381496
0.0671108
0.0169485
0.0517427
0.0756733
0.0784772
0.0365621
0.0284458
0.0231293
-0.0102296
0.0259302
0.0314958
0.0288595
0.0239219
0.0203507
0.0205268
0.0381161
0.0218357
0.0341196
0.0433374
0.00209364
0.039918
0.0324587
0.0530143
0.0900588
-0.0131854
0.0771296
0.0559247
-0.00817243
0.0863879
-0.00360596
0.00213535
0.00251685
0.00347941
0.00453346
0.00678534
-0.00157474
0.00503537
0.00881692
-0.00341663
0.000101139
-0.00412057
0.00215038
0.0139317
0.00854914
0.0163451
0.00248073
0.0124203
0.0817283
0.00416951
-0.00965435
0.0857106
0.0833867
0.0693727
0.0208487
0.12106
0.0221325
0.0893613
0.0270389
0.0580676
0.0179481
0.0757561
0.0600476
0.0534252
0.0136737
0.0828711
-0.00245704
0.0120318
0.012119
0.0182157
0.0232652
0.0232519
0.0508749
0.053487
-0.0228527
0.0560851
0.0661298
-0.0151107
-0.00219948
0.013979
-0.00366938
0.020283
-0.00784619
0.0241523
0.0125226
0.0293261
0.00146721
0.0420531
-0.00174879
0.000661475
0.00243673
0.0054482
0.00291053
-0.00253662
0.00272331
0.00414102
0.0047578
0.00916509
0.107879
0.0214048
0.073737
0.0894021
0.142717
-0.0226497
0.0664325
0.0257223
0.0248473
0.120566
0.0522631
0.0742953
-0.0223385
0.120728
0.10836
0.0317832
0.0589979
0.0166068
0.0470439
0.0556406
-0.00448273
0.05969
0.00207908
0.0516321
-0.0105501
0.0497088
0.0106021
0.0576209
-0.00168456
0.0542511
0.0586172
0.0182804
0.0240478
0.055735
-0.00194338
0.039724
0.0177194
0.0111789
-0.00293877
0.0265536
0.0234596
-0.00490754
0.0375529
-0.00201628
0.0317079
-0.0105243
0.0354656
0.0148336
0.00588667
0.0558836
0.0559733
0.0464626
0.0392096
-0.0351764
0.0685574
0.0784364
0.0560327
0.0702692
0.0839831
0.00375039
0.0840719
0.00286774
-0.00191385
0.00386412
0.00857249
0.00145997
0.00415777
-0.00493788
0.00193961
0.0106982
-0.00219591
0.00341797
-0.00437868
0.0234724
-0.0016552
0.01808
-0.00130017
0.0134286
0.096439
0.0911407
0.106803
0.0487855
0.0736218
0.139583
0.0769043
0.0193514
0.0573395
-0.0188089
0.0797817
0.0737707
0.0650024
0.00850838
0.00616836
0.0232422
-0.0113264
0.0327123
-0.0181507
0.0449729
0.0577534
-0.0308768
-0.0102682
0.0625988
0.000554785
0.0532861
0.0455288
0.0468231
0.0452944
0.0102281
0.0123495
0.0176635
0.00585257
0.0297731
0.0304988
-0.00163636
0.042973
-0.00325651
0.000982351
5.65416e-05
0.00816927
-0.0011791
0.00227726
0.00142656
-0.000759777
0.00357261
0.0100335
0.00216921
0.161726
0.0504791
0.0232428
0.0248145
0.0638524
0.0615876
0.0807011
0.0418895
0.0245919
-0.0158457
0.0438557
0.0107302
0.0994863
0.184804
0.15385
0.012249
0.0478756
-0.000702674
0.048839
0.052236
0.062882
0.0422374
0.0630335
0.0703902
0.0568324
0.0197859
0.0353325
0.0751977
0.0360972
0.0239576
-0.0178088
0.0295169
0.00935508
-0.00122211
0.0253551
0.0364914
0.0222235
0.0351511
0.0304458
0.0265849
0.0184558
0.0388198
0.00866451
0.0391442
0.00143084
0.0389736
0.0162774
0.0534366
0.0290717
0.0502965
0.0607492
-0.0271225
0.0986635
0.0579681
0.0586726
0.0262484
-0.00350075
0.00047865
0.00244395
0.000199837
0.000747924
0.00708599
0.00292993
-0.000263219
0.00361
-0.00254335
-0.00239268
0.0106927
0.00241143
-0.00546122
-0.00255671
0.0218548
0.0164737
0.00700092
0.00606609
0.0348391
0.0625292
-0.00733317
0.099481
0.100567
0.174784
-0.0340217
0.175657
0.0417257
0.0361386
0.100041
0.00417027
0.0765557
0.0788189
0.100673
-0.00520457
0.0132669
0.0153702
0.0180655
0.0180612
0.0633069
0.0507776
0.0725756
-0.0244188
-0.0265043
0.0747092
0.0688288
-0.0195618
-8.37094e-05
0.00987294
0.0142938
-0.00239912
0.019502
0.0055621
0.0229948
0.0349914
-0.00128856
0.0422615
0.00369363
-0.00314731
-0.00129071
0.00154889
0.00474042
0.0028142
0.000810098
0.00377189
-0.00480124
0.00308757
0.0228327
0.00622871
0.0706715
0.0906453
0.0749974
0.0652934
0.125361
0.151447
-0.0196919
0.0448829
0.0245456
0.0740171
0.111052
-0.0304978
0.186289
0.0482798
0.0191623
0.0308886
0.0732085
0.0301392
0.0338201
0.0734365
0.0234258
0.0408868
0.0247234
0.0467075
0.0348182
0.0228303
0.0709875
0.0224237
0.0539368
-0.00384909
0.0410518
-0.00215424
0.0265444
0.0278107
0.0352614
0.0222649
0.0153709
0.0455823
0.030629
0.00579104
0.0402143
0.0460056
0.0593075
0.0417673
0.0361627
0.0781365
0.0835952
0.0738179
0.0412918
0.058566
0.0952456
0.0065662
0.0527217
0.0683849
0.00317462
-0.00364483
-0.00289694
0.00211154
0.00581527
0.00103979
0.00115644
0.00387334
-0.00599452
0.0025501
0.00175199
-0.00491864
0.0032487
0.00686321
-0.002218
0.00277259
-0.00611798
0.0187819
0.00333188
0.00850363
0.00793284
0.00974987
0.0144062
-0.0380305
0.101645
0.0623694