/*--------------------------------*- C++ -*----------------------------------*\
| =========                 |                                                 |
| \\      /  F ield         | OpenFOAM: The Open Source CFD Toolbox           |
|  \\    /   O peration     | Version:  v2012                                 |
|   \\  /    A nd           | Website:  www.openfoam.com                      |
|    \\/     M anipulation  |                                                 |
\*---------------------------------------------------------------------------*/
FoamFile
{
    version     2.0;
    format      ascii;
    class       pointVectorField;
    location    "0.6";
    object      pointDisplacement;
}
// * * * * * * * * * * * * * * * * * * * * * * * * * * * * * * * * * * * * * //

dimensions      [0 1 0 0 0 0 0];


internalField   nonuniform List<vector> 
14482
(
(0 0 0)
(0 0 0)
(0 0 0)
(0 0 0)
(0 0 0)
(0 0 0)
(0 0 0)
(0 0 0)
(0 0 0)
(0 0 0)
(0 0 0)
(0 0 0)
(0 0 0)
(0 0 0)
(0 0 0)
(0 0 0)
(0 0 0)
(0 0 0)
(0 0 0)
(0 0 0)
(0 0 0)
(0 0 0)
(0 0 0)
(0 0 0)
(0 0 0)
(0 0 0)
(0 0 0)
(0 0 0)
(0 0 0)
(0 0 0)
(0 0 0)
(0 0 0)
(0 0 0)
(0 0 0)
(0 0 0)
(0 0 0)
(0 0 0)
(0 0 0)
(0 0 0)
(0 0 0)
(0 0 0)
(0 0 0)
(0 0 0)
(0 0 0)
(0 0 0)
(0 0 0)
(0 0 0)
(0 0 0)
(0 0 0)
(0 0 0)
(0 0 0)
(0 0 0)
(0 0 0)
(0 0 0)
(0 0 0)
(0 0 0)
(0 0 0)
(0 0 0)
(0 0 0)
(0 0 0)
(0 0 0)
(0 0 0)
(0 0 0)
(0 0 0)
(0 0 0)
(0 0 0)
(0 0 0)
(0 0 0)
(0 0 0)
(0 0 0)
(0 0 0)
(0 0 0)
(0 0 0)
(0 0 0)
(0 0 0)
(0 0 0)
(0 0 0)
(0 0 0)
(0 0 0)
(0 0 0)
(0 0 0)
(0 0 0)
(0 0 0)
(0.128182 -0.218313 0)
(0.128413 -0.218115 0)
(0.128661 -0.217902 0)
(0.128928 -0.217672 0)
(0.129216 -0.217425 0)
(0.129527 -0.217159 0)
(0.129861 -0.216873 0)
(0.13022 -0.216564 0)
(0.130608 -0.216232 0)
(0.131025 -0.215874 0)
(0.131474 -0.215489 0)
(0.131957 -0.215075 0)
(0.132477 -0.214629 0)
(0.132918 -0.214039 0)
(0.13338 -0.213395 0)
(0.133879 -0.212701 0)
(0.134345 -0.211911 0)
(0.134829 -0.211049 0)
(0.135292 -0.210093 0)
(0.13576 -0.209051 0)
(0.1362 -0.207903 0)
(0.136618 -0.20665 0)
(0.137013 -0.205286 0)
(0.137377 -0.203804 0)
(0.137706 -0.202198 0)
(0.137985 -0.20046 0)
(0.13822 -0.198583 0)
(0.1384 -0.196561 0)
(0.13852 -0.194386 0)
(0.138574 -0.192049 0)
(0.138554 -0.189541 0)
(0.138455 -0.186855 0)
(0.13827 -0.18398 0)
(0.137991 -0.180905 0)
(0.13761 -0.177622 0)
(0.13712 -0.174119 0)
(0.136511 -0.170384 0)
(0.135775 -0.166405 0)
(0.134902 -0.16217 0)
(0.133883 -0.157666 0)
(0.132706 -0.152881 0)
(0.131361 -0.147801 0)
(0.129836 -0.142413 0)
(0.12812 -0.136703 0)
(0.126199 -0.130658 0)
(0.124061 -0.124263 0)
(0.121694 -0.117507 0)
(0.119083 -0.110375 0)
(0.116216 -0.102857 0)
(0.113078 -0.0949394 0)
(0.109657 -0.0866119 0)
(0.10594 -0.0778653 0)
(0.101913 -0.06869 0)
(0.0975645 -0.0590798 0)
(0.0928829 -0.0490287 0)
(0.0878579 -0.0385334 0)
(0.0824797 -0.0275915 0)
(0.0767417 -0.0162055 0)
(0.0706363 -0.00437641 0)
(0.0641602 0.00788904 0)
(0.057311 0.0205825 0)
(0.0500891 0.0336924 0)
(0.0424969 0.0472049 0)
(0.0345408 0.0611015 0)
(0.0262283 0.0753631 0)
(0.0175715 0.089965 0)
(0.00858469 0.10488 0)
(-0.000715674 0.120081 0)
(-0.0103078 0.135534 0)
(-0.02017 0.151205 0)
(-0.0302759 0.167057 0)
(-0.0405978 0.183051 0)
(-0.051105 0.199146 0)
(-0.0617666 0.215302 0)
(-0.0725481 0.231475 0)
(-0.0834164 0.247624 0)
(-0.0943357 0.263704 0)
(-0.105272 0.279675 0)
(-0.116191 0.295495 0)
(-0.127058 0.311123 0)
(-0.137839 0.326523 0)
(-0.148506 0.341659 0)
(-0.159026 0.356496 0)
(-0.169373 0.371004 0)
(-0.17952 0.385155 0)
(-0.189446 0.398926 0)
(-0.199129 0.412295 0)
(-0.208551 0.425243 0)
(-0.217697 0.437756 0)
(-0.226554 0.449822 0)
(-0.235111 0.461433 0)
(-0.24336 0.472583 0)
(-0.251295 0.483271 0)
(-0.258914 0.493496 0)
(-0.266214 0.50326 0)
(-0.273196 0.512569 0)
(-0.279862 0.52143 0)
(-0.286216 0.52985 0)
(-0.292262 0.53784 0)
(-0.298006 0.545412 0)
(-0.303457 0.552577 0)
(-0.308621 0.559349 0)
(-0.313508 0.565743 0)
(-0.318126 0.571771 0)
(-0.322485 0.577449 0)
(-0.326596 0.582794 0)
(-0.330468 0.587818 0)
(-0.334113 0.592538 0)
(-0.337539 0.596968 0)
(-0.340757 0.601122 0)
(-0.343778 0.605015 0)
(-0.346611 0.608661 0)
(-0.349266 0.612073 0)
(-0.351753 0.615265 0)
(-0.354081 0.61825 0)
(-0.356258 0.621038 0)
(-0.358294 0.623642 0)
(-0.360197 0.626073 0)
(-0.361973 0.628341 0)
(-0.363632 0.630457 0)
(-0.36518 0.632429 0)
(-0.366624 0.634268 0)
(-0.367971 0.635981 0)
(-0.369225 0.637577 0)
(-0.370395 0.639063 0)
(-0.371484 0.640446 0)
(-0.372499 0.641735 0)
(-0.373444 0.642934 0)
(-0.374323 0.644048 0)
(-0.375142 0.645085 0)
(-0.375903 0.646051 0)
(-0.376612 0.646948 0)
(-0.37727 0.647781 0)
(-0.377883 0.648557 0)
(-0.378453 0.649277 0)
(-0.378983 0.649947 0)
(-0.379475 0.65057 0)
(-0.379932 0.651148 0)
(-0.380357 0.651685 0)
(-0.380753 0.652184 0)
(-0.38112 0.652648 0)
(-0.38146 0.653078 0)
(-0.381778 0.653479 0)
(-0.382072 0.65385 0)
(-0.382345 0.654195 0)
(-0.382599 0.654515 0)
(-0.382834 0.654813 0)
(-0.383054 0.655089 0)
(-0.383257 0.655346 0)
(-0.383445 0.655584 0)
(-0.383707 0.65543 0)
(-0.383939 0.655294 0)
(-0.384151 0.655169 0)
(-0.384351 0.655052 0)
(-0.384546 0.654938 0)
(-0.38474 0.654823 0)
(-0.38494 0.654706 0)
(-0.385152 0.654581 0)
(-0.385384 0.654445 0)
(-0.385646 0.654291 0)
(-0.38553 0.654011 0)
(-0.385405 0.653708 0)
(-0.385271 0.653382 0)
(-0.385126 0.653032 0)
(-0.38497 0.652654 0)
(-0.384802 0.652247 0)
(-0.384621 0.65181 0)
(-0.384425 0.651337 0)
(-0.384216 0.65083 0)
(-0.38399 0.650284 0)
(-0.383746 0.649695 0)
(-0.383484 0.649062 0)
(-0.383202 0.648381 0)
(-0.382899 0.647648 0)
(-0.382572 0.646858 0)
(-0.38222 0.64601 0)
(-0.381841 0.645097 0)
(-0.381434 0.644116 0)
(-0.380996 0.64306 0)
(-0.380525 0.641925 0)
(-0.380018 0.640705 0)
(-0.379473 0.639394 0)
(-0.378886 0.637985 0)
(-0.378256 0.63647 0)
(-0.377578 0.634845 0)
(-0.376851 0.6331 0)
(-0.376069 0.631227 0)
(-0.375228 0.629215 0)
(-0.374327 0.627059 0)
(-0.373358 0.624746 0)
(-0.372319 0.622267 0)
(-0.371204 0.61961 0)
(-0.370009 0.616764 0)
(-0.368726 0.613717 0)
(-0.367353 0.610457 0)
(-0.365881 0.60697 0)
(-0.364305 0.603243 0)
(-0.362619 0.599262 0)
(-0.360816 0.595011 0)
(-0.358888 0.590476 0)
(-0.356829 0.585642 0)
(-0.35463 0.580492 0)
(-0.352284 0.575009 0)
(-0.349784 0.56918 0)
(-0.34712 0.562985 0)
(-0.344285 0.556412 0)
(-0.341271 0.549441 0)
(-0.338069 0.542059 0)
(-0.334672 0.534249 0)
(-0.33107 0.525998 0)
(-0.327258 0.517292 0)
(-0.323227 0.508119 0)
(-0.31897 0.498468 0)
(-0.31448 0.488329 0)
(-0.309753 0.477696 0)
(-0.304784 0.466564 0)
(-0.299567 0.454928 0)
(-0.294101 0.442791 0)
(-0.288383 0.430154 0)
(-0.282414 0.417024 0)
(-0.276193 0.403411 0)
(-0.269722 0.389327 0)
(-0.263006 0.37479 0)
(-0.256051 0.35982 0)
(-0.248862 0.344442 0)
(-0.241448 0.328684 0)
(-0.233821 0.31258 0)
(-0.225991 0.296163 0)
(-0.217971 0.279474 0)
(-0.209777 0.262555 0)
(-0.201424 0.24545 0)
(-0.19293 0.228207 0)
(-0.184312 0.210874 0)
(-0.175591 0.193504 0)
(-0.166785 0.176144 0)
(-0.157916 0.158849 0)
(-0.149002 0.141666 0)
(-0.140067 0.124648 0)
(-0.13113 0.107841 0)
(-0.122211 0.0912914 0)
(-0.113332 0.0750433 0)
(-0.104512 0.0591374 0)
(-0.0957699 0.0436088 0)
(-0.087124 0.0284931 0)
(-0.0785912 0.0138184 0)
(-0.0701877 -0.000389692 0)
(-0.0619293 -0.0141088 0)
(-0.0538289 -0.0273229 0)
(-0.0458997 -0.0400175 0)
(-0.0381526 -0.0521838 0)
(-0.0305974 -0.0638157 0)
(-0.0232427 -0.0749112 0)
(-0.0160958 -0.0854699 0)
(-0.00916139 -0.0954982 0)
(-0.00244492 -0.105 0)
(0.00405094 -0.113986 0)
(0.0103242 -0.122466 0)
(0.0163742 -0.130454 0)
(0.0222008 -0.137962 0)
(0.0278059 -0.145007 0)
(0.0331911 -0.151605 0)
(0.0383595 -0.157772 0)
(0.0433147 -0.163527 0)
(0.0480612 -0.168886 0)
(0.0526035 -0.173869 0)
(0.0569469 -0.178492 0)
(0.0610966 -0.182773 0)
(0.065059 -0.186731 0)
(0.0688396 -0.190381 0)
(0.0724446 -0.19374 0)
(0.0758807 -0.196824 0)
(0.0791535 -0.19965 0)
(0.0822695 -0.202231 0)
(0.0852346 -0.204583 0)
(0.088055 -0.206719 0)
(0.0907364 -0.208651 0)
(0.093285 -0.210392 0)
(0.0957057 -0.211955 0)
(0.0980035 -0.21335 0)
(0.100183 -0.21459 0)
(0.10225 -0.215682 0)
(0.104209 -0.216636 0)
(0.106062 -0.217465 0)
(0.107815 -0.218174 0)
(0.109469 -0.218777 0)
(0.111032 -0.219273 0)
(0.112504 -0.219677 0)
(0.113887 -0.219997 0)
(0.115185 -0.220242 0)
(0.116401 -0.220417 0)
(0.11754 -0.220517 0)
(0.1186 -0.220577 0)
(0.119589 -0.220575 0)
(0.120506 -0.220553 0)
(0.121354 -0.220456 0)
(0.122143 -0.220366 0)
(0.122872 -0.220268 0)
(0.123515 -0.220031 0)
(0.124112 -0.219811 0)
(0.124667 -0.219607 0)
(0.125183 -0.219417 0)
(0.125662 -0.219241 0)
(0.126106 -0.219077 0)
(0.126519 -0.218925 0)
(0.126903 -0.218784 0)
(0.127259 -0.218652 0)
(0.12759 -0.218531 0)
(0.127897 -0.218418 0)
(-0.0443699 0.159399 0)
(-0.0544907 0.181554 0)
(-0.0528406 0.176409 0)
(-0.0656076 0.200119 0)
(-0.0572786 0.182304 0)
(-0.0557443 0.180883 0)
(-0.0875624 0.232323 0)
(-0.0838147 0.226853 0)
(-0.094089 0.245191 0)
(-0.026607 0.11322 0)
(-0.0184932 0.0969569 0)
(-0.0264943 0.11559 0)
(-0.0432606 0.170642 0)
(-0.0398737 0.165989 0)
(-0.0581664 0.199253 0)
(-0.0243913 0.11575 0)
(-0.017855 0.104595 0)
(-0.0278734 0.125334 0)
(-0.107511 0.288263 0)
(-0.107935 0.289711 0)
(-0.113621 0.300401 0)
(-0.0959057 0.264958 0)
(-0.0930645 0.260405 0)
(-0.10129 0.275856 0)
(-0.123408 0.30297 0)
(-0.137404 0.326853 0)
(-0.134065 0.318805 0)
(-0.055456 0.170377 0)
(-0.0609105 0.182259 0)
(-0.0600916 0.179334 0)
(-0.0100195 0.0805636 0)
(-0.00490638 0.0736716 0)
(-0.0151069 0.0950561 0)
(-0.0261461 0.1385 0)
(-0.0282651 0.145414 0)
(-0.0891323 0.253793 0)
(-0.0781479 0.233966 0)
(-0.0732735 0.225356 0)
(-0.00648002 0.086227 0)
(0.00484055 0.0628492 0)
(-0.00184682 0.0796218 0)
(-0.117311 0.308091 0)
(-0.122909 0.318921 0)
(-0.120115 0.312841 0)
(-0.118584 0.303862 0)
(-0.125728 0.31752 0)
(-0.125532 0.315184 0)
(-0.0850253 0.236354 0)
(-0.0877947 0.239678 0)
(-0.0786452 0.222497 0)
(-0.0492726 0.145763 0)
(-0.0507679 0.147783 0)
(-0.0465535 0.138935 0)
(-0.0115708 0.0664682 0)
(-0.0170842 0.0809257 0)
(-0.0160478 0.0748646 0)
(-0.0222246 0.0914559 0)
(-0.00189513 0.0477397 0)
(0.000552714 0.0383194 0)
(0.00268077 0.0366968 0)
(0.0122184 0.0651701 0)
(0.00711482 0.0726377 0)
(0.0170366 0.0503404 0)
(-0.0312431 0.157641 0)
(-0.0418148 0.175286 0)
(-0.0260124 0.145814 0)
(-0.147134 0.34654 0)
(-0.146477 0.346845 0)
(-0.134766 0.32832 0)
(0.0116243 0.0198555 0)
(0.0174133 0.00795908 0)
(0.0124589 0.0231054 0)
(0.045219 -0.0273491 0)
(0.0466126 -0.0241395 0)
(0.0410397 -0.0144148 0)
(-0.133639 0.341584 0)
(-0.132839 0.339674 0)
(-0.134601 0.343735 0)
(-0.138045 0.35373 0)
(-0.138598 0.354893 0)
(-0.138191 0.353663 0)
(-0.158401 0.372757 0)
(-0.150741 0.362632 0)
(-0.163472 0.381908 0)
(-0.223651 0.465051 0)
(-0.205992 0.442133 0)
(-0.222054 0.464565 0)
(-0.179133 0.391962 0)
(-0.178505 0.393382 0)
(-0.190257 0.409223 0)
(-0.150507 0.325413 0)
(-0.142958 0.316613 0)
(-0.154465 0.334131 0)
(-0.121895 0.28791 0)
(-0.124541 0.289191 0)
(-0.115839 0.276442 0)
(-0.0689743 0.19091 0)
(-0.0643652 0.183064 0)
(-0.0712362 0.196469 0)
(-0.0279474 0.10378 0)
(-0.0347331 0.118647 0)
(-0.0284334 0.102551 0)
(-0.00623821 0.0420129 0)
(-0.00959879 0.0520099 0)
(-0.00802481 0.0450892 0)
(0.00274252 0.026315 0)
(-0.000498204 0.0340323 0)
(0.0012301 0.0262633 0)
(0.0114563 0.00182336 0)
(0.00797189 0.00995251 0)
(0.00832433 0.00307633 0)
(0.00939708 0.0801027 0)
(0.0245048 0.0533523 0)
(0.00868087 0.0871423 0)
(-0.129394 0.31731 0)
(-0.111746 0.289988 0)
(-0.124621 0.309572 0)
(-0.00720185 0.115748 0)
(-0.0263112 0.152161 0)
(-0.0227162 0.143769 0)
(-0.12846 0.317472 0)
(-0.112733 0.292106 0)
(-0.130726 0.320025 0)
(-0.144737 0.349227 0)
(-0.159975 0.372518 0)
(-0.151537 0.361499 0)
(0.0530861 -0.0660118 0)
(0.0482128 -0.0618512 0)
(0.053773 -0.071384 0)
(0.0746308 -0.0838541 0)
(0.0780487 -0.0799243 0)
(0.0718808 -0.0704689 0)
(-0.141085 0.352055 0)
(-0.148138 0.363004 0)
(-0.144438 0.358539 0)
(-0.165659 0.382202 0)
(-0.174685 0.394088 0)
(-0.165508 0.391717 0)
(-0.175234 0.406614 0)
(-0.177786 0.409252 0)
(-0.259887 0.515207 0)
(-0.239798 0.490694 0)
(-0.25268 0.507571 0)
(-0.180838 0.388155 0)
(-0.179177 0.389076 0)
(-0.190508 0.40372 0)
(-0.150804 0.333686 0)
(-0.162243 0.352697 0)
(-0.160407 0.345889 0)
(-0.11473 0.252516 0)
(-0.11668 0.249931 0)
(-0.104483 0.232017 0)
(-0.0646562 0.175607 0)
(-0.0619919 0.171556 0)
(-0.0665219 0.180556 0)
(-0.0386857 0.120509 0)
(-0.0391043 0.120453 0)
(-0.0369872 0.115881 0)
(-0.023562 0.0852553 0)
(-0.0209627 0.0799269 0)
(-0.0251294 0.0908967 0)
(-0.0291009 0.101831 0)
(-0.0242968 0.0906916 0)
(-0.00776879 0.0519504 0)
(-0.0108837 0.0618287 0)
(-0.011744 0.0609364 0)
(-0.000685439 0.0147251 0)
(0.000121448 0.0174961 0)
(-0.000739636 0.017775 0)
(-0.00801257 0.0498305 0)
(0.0215792 0.0643393 0)
(0.00479962 0.0986504 0)
(0.048732 0.0120733 0)
(0.0371132 0.0361595 0)
(0.0475208 0.00826308 0)
(-0.135849 0.325118 0)
(-0.130045 0.317024 0)
(-0.117702 0.298466 0)
(-0.0943643 0.263579 0)
(-0.0834509 0.247295 0)
(-0.0949961 0.264551 0)
(-0.141982 0.335633 0)
(-0.170047 0.385972 0)
(-0.18368 0.404052 0)
(-0.182775 0.404409 0)
(0.080517 -0.120282 0)
(0.0746219 -0.116242 0)
(0.078422 -0.124953 0)
(0.0669905 -0.0798675 0)
(0.0678254 -0.0880255 0)
(0.0724709 -0.0898594 0)
(0.080775 -0.111489 0)
(0.0872751 -0.119153 0)
(0.0850321 -0.10899 0)
(-0.194236 0.426838 0)
(-0.185369 0.416135 0)
(-0.179884 0.407512 0)
(-0.143701 0.360524 0)
(-0.149452 0.368752 0)
(-0.149425 0.369676 0)
(-0.198616 0.430598 0)
(-0.20157 0.432919 0)
(-0.212426 0.447946 0)
(-0.135386 0.344929 0)
(-0.138667 0.351368 0)
(-0.137596 0.348744 0)
(-0.182761 0.420632 0)
(-0.170893 0.404038 0)
(-0.18673 0.426362 0)
(-0.259636 0.513208 0)
(-0.272833 0.527713 0)
(-0.257828 0.509202 0)
(-0.246527 0.478374 0)
(-0.251182 0.479644 0)
(-0.235403 0.46122 0)
(-0.205473 0.395678 0)
(-0.208272 0.405259 0)
(-0.214958 0.412046 0)
(-0.155003 0.329287 0)
(-0.164348 0.341067 0)
(-0.152821 0.322123 0)
(-0.163216 0.346886 0)
(-0.159698 0.338879 0)
(-0.112142 0.252854 0)
(-0.122141 0.268339 0)
(-0.0785875 0.187977 0)
(-0.070693 0.173722 0)
(-0.073357 0.181231 0)
(-0.0367165 0.114267 0)
(-0.034563 0.109891 0)
(-0.0169127 0.0704101 0)
(-0.0166169 0.0666676 0)
(-0.0341135 0.110499 0)
(-0.0307705 0.10162 0)
(-0.0317508 0.10562 0)
(-0.0058758 0.036797 0)
(-0.00396379 0.0298637 0)
(-0.00391059 0.0328726 0)
(0.00577531 0.0104765 0)
(0.00054875 0.0140081 0)
(-0.00244646 0.0253474 0)
(-0.00207712 0.0200583 0)
(-0.00142425 0.0196388 0)
(0.0156321 -0.0321139 0)
(0.0119626 -0.0310995 0)
(0.0190596 -0.0394307 0)
(0.0313865 0.0531467 0)
(0.0164308 0.0789984 0)
(0.013691 0.0883617 0)
(0.0260054 0.0666655 0)
(0.0857061 -0.0663229 0)
(0.0798927 -0.0617428 0)
(0.0877564 -0.08258 0)
(-0.148826 0.343806 0)
(-0.146638 0.340352 0)
(-0.155426 0.352753 0)
(-0.138002 0.329059 0)
(-0.121464 0.303417 0)
(-0.107234 0.282621 0)
(-0.113194 0.29132 0)
(-0.0771531 0.237942 0)
(-0.0714314 0.229084 0)
(-0.163355 0.366426 0)
(-0.177022 0.385657 0)
(-0.163624 0.367563 0)
(-0.207945 0.428646 0)
(-0.203261 0.421666 0)
(-0.214847 0.436753 0)
(-0.194595 0.417648 0)
(-0.200801 0.427194 0)
(-0.216837 0.448141 0)
(-0.220716 0.454245 0)
(-0.209068 0.439237 0)
(0.0250462 -0.0386613 0)
(0.0235541 -0.0314217 0)
(0.0206245 -0.0321681 0)
(0.0574817 -0.0870877 0)
(0.0565914 -0.0935322 0)
(0.063253 -0.101057 0)
(0.064766 -0.0949632 0)
(0.0694138 -0.0970636 0)
(0.065368 -0.0897289 0)
(0.0759064 -0.100404 0)
(0.0721941 -0.0962622 0)
(0.0744124 -0.104426 0)
(-0.174294 0.398491 0)
(-0.162851 0.381345 0)
(-0.175639 0.398809 0)
(-0.171726 0.400341 0)
(-0.175518 0.404662 0)
(-0.185172 0.418144 0)
(-0.154186 0.376084 0)
(-0.226067 0.465433 0)
(-0.214712 0.451986 0)
(-0.182013 0.418501 0)
(-0.15846 0.386053 0)
(-0.184504 0.421501 0)
(-0.18424 0.422509 0)
(-0.202158 0.446942 0)
(-0.209655 0.456653 0)
(-0.194042 0.436014 0)
(-0.255167 0.50393 0)
(-0.239297 0.485619 0)
(-0.217101 0.448425 0)
(-0.228997 0.465609 0)
(-0.234728 0.470513 0)
(-0.31862 0.536811 0)
(-0.304357 0.510935 0)
(-0.311488 0.530616 0)
(-0.224752 0.432759 0)
(-0.226368 0.428286 0)
(-0.216124 0.418704 0)
(-0.139546 0.290488 0)
(-0.1478 0.2995 0)
(-0.13971 0.285008 0)
(-0.0841255 0.193424 0)
(-0.0730765 0.174762 0)
(-0.104302 0.219827 0)
(-0.10036 0.216952 0)
(-0.110676 0.234785 0)
(-0.0423699 0.120165 0)
(-0.0411223 0.118456 0)
(-0.044254 0.125155 0)
(-0.0524317 0.140729 0)
(-0.0560599 0.147007 0)
(-0.0520148 0.138408 0)
(-0.0295332 0.0946953 0)
(-0.0300632 0.0969594 0)
(-0.0315413 0.100066 0)
(-0.0167251 0.0729735 0)
(-0.0132169 0.0615402 0)
(-0.0198007 0.0736916 0)
(-0.0244859 0.0859469 0)
(-0.0209038 0.0745978 0)
(-0.0166028 0.0619271 0)
(-0.0151384 0.0596544 0)
(-0.0062407 0.0342228 0)
(-0.00821867 0.0429855 0)
(-0.00841678 0.0411081 0)
(-0.00644784 0.0133668 0)
(-0.00296826 0.00985776 0)
(-0.00479748 0.0129142 0)
(-0.000925459 0.0216548 0)
(-0.0017334 0.0280699 0)
(0.00110227 0.00957606 0)
(-0.000913221 0.0114064 0)
(-0.0011361 0.00964146 0)
(-0.00321112 0.0242728 0)
(-0.00467008 0.0302322 0)
(-0.00422898 0.0260706 0)
(-0.0043554 -3.79883e-05 0)
(-0.00194964 0.000489019 0)
(-0.00962503 0.00996247 0)
(-0.0467692 0.191693 0)
(-0.0368674 0.176188 0)
(-0.0458039 0.19041 0)
(-0.00924156 0.130711 0)
(0.00496747 0.106174 0)
(-0.00339279 0.121726 0)
(0.0673527 -0.0244894 0)
(0.0768222 -0.0460767 0)
(0.0731706 -0.0300795 0)
(-0.16466 0.365413 0)
(-0.17165 0.375431 0)
(-0.16036 0.359995 0)
(-0.111189 0.28857 0)
(-0.121718 0.304077 0)
(-0.127246 0.312367 0)
(-0.0816871 0.244092 0)
(-0.0658379 0.219006 0)
(-0.0718651 0.22928 0)
(-0.0744829 0.234004 0)
(-0.0669628 0.222405 0)
(-0.199662 0.416177 0)
(-0.202461 0.418972 0)
(-0.209908 0.429524 0)
(-0.181539 0.39109 0)
(-0.189974 0.401963 0)
(-0.190711 0.403841 0)
(-0.1913 0.405588 0)
(-0.201973 0.421656 0)
(-0.212197 0.434903 0)
(-0.225442 0.455618 0)
(-0.229354 0.461559 0)
(-0.215658 0.444062 0)
(-0.234212 0.466719 0)
(-0.241084 0.47574 0)
(-0.230085 0.464514 0)
(-0.240611 0.47718 0)
(-0.239691 0.477206 0)
(-0.243444 0.483013 0)
(-0.252473 0.492856 0)
(-0.0148589 -0.00597525 0)
(-0.00558822 -0.0191191 0)
(-0.0111032 -0.00721262 0)
(0.0191827 -0.0742244 0)
(0.0161604 -0.0740692 0)
(0.0237407 -0.0829225 0)
(0.0614592 -0.118946 0)
(0.0542912 -0.110297 0)
(0.0539412 -0.114031 0)
(0.102203 -0.14236 0)
(0.106831 -0.148482 0)
(0.105337 -0.139058 0)
(-0.242287 0.488014 0)
(-0.253512 0.501431 0)
(-0.249612 0.49709 0)
(-0.174576 0.408773 0)
(-0.180385 0.416914 0)
(-0.174787 0.409247 0)
(-0.258603 0.501017 0)
(-0.245988 0.486994 0)
(-0.187193 0.425997 0)
(-0.217875 0.466115 0)
(-0.198899 0.44231 0)
(-0.225093 0.474494 0)
(-0.248794 0.502849 0)
(-0.213467 0.46016 0)
(-0.240105 0.495652 0)
(-0.265945 0.527021 0)
(-0.257015 0.516772 0)
(-0.161521 0.390386 0)
(-0.162759 0.392054 0)
(-0.170656 0.40324 0)
(-0.265597 0.529478 0)
(-0.270934 0.536478 0)
(-0.264254 0.527976 0)
(-0.281515 0.547315 0)
(-0.295009 0.56217 0)
(-0.292355 0.558725 0)
(-0.285432 0.507021 0)
(-0.291128 0.507419 0)
(-0.280222 0.490993 0)
(-0.204775 0.377539 0)
(-0.199278 0.359223 0)
(-0.191402 0.35344 0)
(-0.108631 0.223241 0)
(-0.122141 0.24726 0)
(-0.113824 0.22768 0)
(-0.104515 0.203055 0)
(-0.0926135 0.18227 0)
(-0.0993271 0.197624 0)
(-0.0887576 0.196137 0)
(-0.0786919 0.178826 0)
(-0.0350786 0.0992758 0)
(-0.0360186 0.102823 0)
(-0.0374877 0.105231 0)
(-0.034421 0.1002 0)
(-0.033297 0.0963034 0)
(-0.0317033 0.0935411 0)
(-0.0106051 0.0492489 0)
(-0.0129507 0.0548959 0)
(-0.00990103 0.044395 0)
(-0.0116318 0.0482796 0)
(-0.0129713 0.0507686 0)
(-0.0100751 0.041111 0)
(-0.0183105 0.0653292 0)
(-0.0087989 0.0383954 0)
(-0.00295724 0.00801101 0)
(0.001223 0.00227661 0)
(0.000163932 0.00610885 0)
(-0.00412066 0.0125014 0)
(-0.0065972 0.0155518 0)
(-0.00362733 0.0130376 0)
(-0.00138564 0.011092 0)
(-0.0019291 0.0107807 0)
(-0.00136133 0.0130083 0)
(-0.00284135 0.0119218 0)
(-0.00288153 0.010561 0)
(-0.00122182 0.0111486 0)
(-0.0012818 0.0130443 0)
(-0.00134625 0.0140235 0)
(-0.0465982 0.0695415 0)
(-0.0567444 0.0885878 0)
(-0.0546607 0.0807144 0)
(-0.0289838 0.163947 0)
(-0.0234699 0.154487 0)
(-0.0268875 0.160896 0)
(-0.0363034 0.175702 0)
(0.000275682 0.116385 0)
(0.0100439 0.0999486 0)
(0.00307423 0.112485 0)
(-0.00772827 0.130239 0)
(0.0837826 -0.0451127 0)
(0.0822458 -0.0350569 0)
(0.0755019 -0.0232933 0)
(0.0525886 0.0263744 0)
(0.0491164 0.0321176 0)
(0.0602582 0.0101585 0)
(-0.0984717 0.269209 0)
(-0.0950018 0.264055 0)
(-0.117977 0.298479 0)
(-0.063168 0.21676 0)
(-0.177744 0.385322 0)
(-0.165661 0.368505 0)
(-0.174203 0.379955 0)
(-0.19705 0.416238 0)
(-0.188661 0.403941 0)
(-0.249248 0.486611 0)
(-0.251085 0.490071 0)
(-0.204134 0.428125 0)
(-0.208733 0.432662 0)
(-0.215304 0.442274 0)
(-0.230983 0.467563 0)
(-0.0746515 0.117245 0)
(-0.0853094 0.133973 0)
(-0.0710649 0.106182 0)
(0.0225622 -0.0745815 0)
(0.0219155 -0.0683396 0)
(0.0134666 -0.0601489 0)
(0.0273185 -0.0976696 0)
(0.033899 -0.107431 0)
(0.0356175 -0.106182 0)
(0.0789006 -0.135375 0)
(0.0793345 -0.140955 0)
(0.0853349 -0.144193 0)
(0.106698 -0.0915666 0)
(0.105243 -0.0934581 0)
(0.110771 -0.10686 0)
(0.110649 -0.145686 0)
(0.111877 -0.154674 0)
(-0.232971 0.475104 0)
(-0.235298 0.478921 0)
(-0.222535 0.462672 0)
(-0.213426 0.452377 0)
(-0.222163 0.462864 0)
(-0.228704 0.471485 0)
(-0.186465 0.422328 0)
(-0.196971 0.435873 0)
(-0.195001 0.433837 0)
(-0.215737 0.460889 0)
(-0.211223 0.452972 0)
(-0.218648 0.461425 0)
(-0.188054 0.425973 0)
(-0.186711 0.423837 0)
(-0.181995 0.418579 0)
(-0.18056 0.416758 0)
(-0.180485 0.416984 0)
(-0.17512 0.409347 0)
(-0.230982 0.48017 0)
(-0.211361 0.456933 0)
(-0.204394 0.447566 0)
(-0.308472 0.574289 0)
(-0.27819 0.54211 0)
(-0.247283 0.505374 0)
(-0.249248 0.507754 0)
(-0.237615 0.492525 0)
(-0.280498 0.546827 0)
(-0.265224 0.528469 0)
(-0.279107 0.544316 0)
(-0.348657 0.604208 0)
(-0.346659 0.600081 0)
(-0.345225 0.6002 0)
(-0.278413 0.538657 0)
(-0.265316 0.523126 0)
(-0.267759 0.527238 0)
(-0.277212 0.521884 0)
(-0.291366 0.538608 0)
(-0.28888 0.532822 0)
(-0.2949 0.493257 0)
(-0.277588 0.468535 0)
(-0.293263 0.501236 0)
(-0.281838 0.510937 0)
(-0.275527 0.497902 0)
(-0.222285 0.350206 0)
(-0.215898 0.328919 0)
(-0.208023 0.309486 0)
(-0.153633 0.254331 0)
(-0.15753 0.270923 0)
(-0.168525 0.287169 0)
(-0.126398 0.247719 0)
(-0.140641 0.271736 0)
(-0.131823 0.252 0)
(-0.052397 0.124976 0)
(-0.0605904 0.145069 0)
(-0.0604799 0.140557 0)
(-0.0676182 0.14749 0)
(-0.0757213 0.165638 0)
(-0.0800863 0.169935 0)
(-0.0534001 0.133545 0)
(-0.0545989 0.139568 0)
(-0.0592223 0.146155 0)
(-0.021433 0.0667555 0)
(-0.0218546 0.0669324 0)
(-0.0198211 0.061618 0)
(-0.0463848 0.118265 0)
(-0.0441904 0.111216 0)
(-0.0402398 0.104174 0)
(-0.0235495 0.0740622 0)
(-0.0217495 0.0697583 0)
(-0.0231591 0.0740649 0)
(-0.0203147 0.0682138 0)
(-0.0184283 0.0619338 0)
(-0.0174824 0.0596939 0)
(-0.0136668 0.0517301 0)
(-0.0153745 0.0566169 0)
(-0.0129749 0.0483438 0)
(-0.0114862 0.0413837 0)
(-0.0133147 0.0469598 0)
(-0.0116339 0.0413424 0)
(-0.0065287 0.0270433 0)
(-0.00767147 0.0325434 0)
(-0.00852877 0.0345154 0)
(-0.00500088 0.0269409 0)
(-0.00364194 0.0194488 0)
(-0.00343718 0.0204786 0)
(-0.016958 0.0298081 0)
(-0.0179479 0.0308795 0)
(-0.0142382 0.0255654 0)
(-0.00910335 0.0185153 0)
(-0.0106881 0.0206115 0)
(-0.0132746 0.0238277 0)
(-0.00121803 0.0110822 0)
(-0.000981132 0.00831599 0)
(-0.00386962 0.0108984 0)
(-0.00187134 0.012684 0)
(-0.00164257 0.0155054 0)
(-0.00148253 0.0124204 0)
(-0.0023988 0.0141979 0)
(-0.0471328 0.078801 0)
(-0.056328 0.0940771 0)
(-0.046014 0.0749421 0)
(-0.0163719 0.141696 0)
(-0.0100913 0.133613 0)
(0.0239688 0.0774769 0)
(0.0263512 0.0723556 0)
(0.0316532 0.0634845 0)
(0.0738838 -0.0130862 0)
(0.0763684 -0.017191 0)
(0.0701276 -0.00492316 0)
(0.0965566 -0.0597846 0)
(0.101943 -0.0735394 0)
(0.100044 -0.0673518 0)
(0.0409684 0.0409033 0)
(0.048879 0.0262904 0)
(0.0376563 0.0504957 0)
(-0.153418 0.350879 0)
(-0.16687 0.369487 0)
(-0.0553269 0.205021 0)
(-0.222131 0.448002 0)
(-0.220366 0.446866 0)
(-0.21059 0.433718 0)
(-0.0561094 0.0716359 0)
(-0.0549392 0.0659293 0)
(-0.0431904 0.0477096 0)
(-0.0404427 0.022083 0)
(-0.0534502 0.0416128 0)
(-0.0379747 0.0126795 0)
(0.027407 -0.0848343 0)
(0.0404202 -0.121836 0)
(0.0347611 -0.117134 0)
(0.041327 -0.125652 0)
(0.0859015 -0.138565 0)
(0.0812332 -0.132054 0)
(0.11834 -0.113132 0)
(0.11698 -0.111606 0)
(0.119996 -0.122505 0)
(0.127669 -0.14882 0)
(0.125871 -0.14151 0)
(0.126612 -0.14947 0)
(-0.269398 0.519302 0)
(-0.252339 0.499388 0)
(-0.221674 0.464103 0)
(-0.230901 0.475698 0)
(-0.233932 0.479494 0)
(-0.196214 0.433952 0)
(-0.205961 0.446382 0)
(-0.204201 0.444505 0)
(-0.22674 0.475973 0)
(-0.215322 0.461227 0)
(-0.228227 0.477336 0)
(-0.186172 0.421938 0)
(-0.25178 0.497195 0)
(-0.264128 0.511853 0)
(-0.248061 0.493311 0)
(-0.22785 0.475809 0)
(-0.203857 0.446511 0)
(-0.245088 0.50181 0)
(-0.307905 0.57501 0)
(-0.309147 0.575257 0)
(-0.292852 0.558363 0)
(-0.215927 0.463992 0)
(-0.212032 0.459119 0)
(-0.225366 0.476664 0)
(-0.365015 0.623792 0)
(-0.363597 0.622018 0)
(-0.363223 0.62259 0)
(-0.324405 0.59498 0)
(-0.324161 0.59469 0)
(-0.347966 0.616632 0)
(-0.348258 0.617298 0)
(-0.360842 0.627865 0)
(-0.346134 0.615382 0)
(-0.346233 0.594117 0)
(-0.346032 0.596948 0)
(-0.348523 0.597536 0)
(-0.33073 0.576435 0)
(-0.334222 0.579444 0)
(-0.331955 0.57404 0)
(-0.276352 0.45587 0)
(-0.271454 0.462009 0)
(-0.268903 0.446599 0)
(-0.263286 0.441962 0)
(-0.184346 0.290862 0)
(-0.196989 0.3205 0)
(-0.191112 0.301596 0)
(-0.170512 0.309238 0)
(-0.159189 0.283066 0)
(-0.158233 0.290693 0)
(-0.123444 0.137361 0)
(-0.110877 0.117424 0)
(-0.126008 0.14972 0)
(-0.0947722 0.176863 0)
(-0.104666 0.197549 0)
(-0.102511 0.188992 0)
(-0.103861 0.187061 0)
(-0.0940631 0.170803 0)
(-0.0659472 0.148309 0)
(-0.0566934 0.126413 0)
(-0.0529097 0.122146 0)
(-0.0733799 0.145229 0)
(-0.0818812 0.163245 0)
(-0.0824215 0.160115 0)
(-0.0822129 0.170095 0)
(-0.0722283 0.150871 0)
(-0.0677386 0.144644 0)
(-0.029176 0.0809526 0)
(-0.0269868 0.0764951 0)
(-0.0292672 0.0826345 0)
(-0.0309761 0.0886449 0)
(-0.0292098 0.085118 0)
(-0.0320526 0.0921796 0)
(-0.0389654 0.0987663 0)
(-0.0446577 0.109726 0)
(-0.0374301 0.0927005 0)
(-0.0190775 0.0615898 0)
(-0.0201551 0.0640007 0)
(-0.0182862 0.0587086 0)
(-0.0177129 0.0581367 0)
(-0.0157187 0.0523211 0)
(-0.0172418 0.0573461 0)
(-0.0142297 0.0507337 0)
(-0.010663 0.0413088 0)
(-0.00733252 0.0290712 0)
(-0.0123508 0.0451912 0)
(-0.0150648 0.0544799 0)
(-0.00714893 0.0344495 0)
(-0.00299032 0.0142851 0)
(-0.0029049 0.014781 0)
(-0.00427849 0.0208197 0)
(-0.00904627 0.0180763 0)
(-0.00722779 0.0147145 0)
(-0.0102607 0.0193767 0)
(-0.0428659 0.0729186 0)
(-0.0518353 0.0890954 0)
(-0.00102091 0.0086707 0)
(-0.00134861 0.00640401 0)
(-0.00202682 0.00852661 0)
(-0.00158319 0.00845363 0)
(-0.00229283 0.00590481 0)
(-0.0035664 0.00836099 0)
(-0.00324479 0.00864652 0)
(-0.00103337 0.00818967 0)
(-0.00177996 0.0129776 0)
(-0.00239804 0.0155505 0)
(-0.00155335 0.0101667 0)
(-0.0950672 0.156874 0)
(-0.0844268 0.137505 0)
(-0.0897347 0.152252 0)
(-0.0389278 0.0584553 0)
(-0.0491263 0.077734 0)
(0.0191683 0.0856233 0)
(0.0102828 0.100864 0)
(0.0171971 0.0881846 0)
(0.0873748 -0.0393386 0)
(0.0879743 -0.0421745 0)
(0.0922204 -0.0507814 0)
(0.0780549 -0.0228667 0)
(0.0704869 -0.00779538 0)
(0.0982966 -0.0662496 0)
(0.0529645 0.023328 0)
(0.0585421 0.0156111 0)
(0.0636219 0.00651987 0)
(0.0570039 0.0196962 0)
(-0.0654128 0.102322 0)
(-0.0648794 0.0978745 0)
(-0.0458588 0.0462491 0)
(-0.037276 0.0336246 0)
(-0.0465901 0.024255 0)
(-0.0399067 0.00797926 0)
(-0.0347028 0.00290297 0)
(0.00628135 -0.0809949 0)
(-0.00169315 -0.0678527 0)
(-0.00309905 -0.0687753 0)
(0.0745461 -0.158319 0)
(0.0838973 -0.166674 0)
(0.0797776 -0.161182 0)
(0.131012 -0.16767 0)
(0.131959 -0.17064 0)
(0.133443 -0.168557 0)
(0.105007 -0.0796068 0)
(0.110062 -0.0942448 0)
(0.107981 -0.0860356 0)
(0.111531 -0.0950718 0)
(0.109056 -0.087288 0)
(0.127277 -0.179983 0)
(0.126858 -0.175898 0)
(0.124226 -0.179594 0)
(-0.27288 0.522506 0)
(-0.24282 0.490789 0)
(-0.249301 0.498248 0)
(-0.220814 0.466153 0)
(-0.203086 0.44617 0)
(-0.211209 0.452852 0)
(-0.214813 0.457038 0)
(-0.190527 0.429916 0)
(-0.195895 0.436282 0)
(-0.193628 0.43307 0)
(-0.15809 0.385483 0)
(-0.151785 0.37665 0)
(-0.158244 0.385528 0)
(-0.245315 0.490586 0)
(-0.160703 0.389145 0)
(-0.18446 0.421167 0)
(-0.184392 0.421193 0)
(-0.325526 0.595562 0)
(-0.347197 0.615802 0)
(-0.326924 0.597162 0)
(-0.369168 0.625626 0)
(-0.368824 0.626331 0)
(-0.370756 0.627127 0)
(-0.365884 0.625874 0)
(-0.368068 0.627536 0)
(-0.367383 0.626231 0)
(-0.332045 0.602567 0)
(-0.347592 0.616529 0)
(-0.335664 0.606211 0)
(-0.352574 0.620378 0)
(-0.361581 0.627924 0)
(-0.353889 0.621366 0)
(-0.363841 0.615153 0)
(-0.365696 0.616312 0)
(-0.365652 0.614479 0)
(-0.331523 0.57863 0)
(-0.324026 0.571588 0)
(-0.32789 0.580252 0)
(-0.326485 0.550707 0)
(-0.332527 0.557775 0)
(-0.327948 0.547949 0)
(-0.320235 0.534553 0)
(-0.320504 0.537785 0)
(-0.319013 0.530657 0)
(-0.279459 0.445367 0)
(-0.280658 0.436718 0)
(-0.270032 0.424933 0)
(-0.258603 0.418166 0)
(-0.253803 0.400201 0)
(-0.265722 0.4365 0)
(-0.217038 0.320139 0)
(-0.220987 0.341346 0)
(-0.225146 0.342688 0)
(-0.171351 0.209144 0)
(-0.172142 0.208107 0)
(-0.161293 0.181253 0)
(-0.143979 0.216729 0)
(-0.141506 0.204822 0)
(-0.129812 0.182488 0)
(-0.172124 0.245249 0)
(-0.176579 0.261135 0)
(-0.184612 0.273862 0)
(-0.0763971 0.145721 0)
(-0.0764819 0.142662 0)
(-0.0676927 0.12811 0)
(-0.0654865 0.158531 0)
(-0.0720587 0.168712 0)
(-0.0609781 0.122041 0)
(-0.0640504 0.131775 0)
(-0.0717609 0.144528 0)
(-0.0470748 0.10141 0)
(-0.0601642 0.12734 0)
(-0.051053 0.107006 0)
(-0.0327609 0.0838691 0)
(-0.0299037 0.0749984 0)
(-0.0263251 0.076047 0)
(-0.0245279 0.0705249 0)
(-0.0170459 0.0518205 0)
(-0.0184144 0.0563882 0)
(-0.0191042 0.0575195 0)
(-0.0374778 0.0888227 0)
(-0.0432916 0.100873 0)
(-0.0357076 0.0827186 0)
(-0.0297743 0.0711775 0)
(-0.034519 0.0838866 0)
(-0.0174898 0.0568922 0)
(-0.0164425 0.053328 0)
(-0.0160669 0.051552 0)
(-0.0150581 0.0489341 0)
(-0.0138272 0.0474665 0)