/*--------------------------------*- C++ -*----------------------------------*\
| =========                 |                                                 |
| \\      /  F ield         | OpenFOAM: The Open Source CFD Toolbox           |
|  \\    /   O peration     | Version:  v2012                                 |
|   \\  /    A nd           | Website:  www.openfoam.com                      |
|    \\/     M anipulation  |                                                 |
\*---------------------------------------------------------------------------*/
FoamFile
{
    version     2.0;
    format      ascii;
    class       volScalarField;
    location    "0.3";
    object      k;
}
// * * * * * * * * * * * * * * * * * * * * * * * * * * * * * * * * * * * * * //

dimensions      [0 2 -2 0 0 0 0];


internalField   nonuniform List<scalar> 
13611
(
0.000579407
0.000573127
0.000597571
0.000584015
0.00055985
0.000611961
0.000599715
0.000579231
0.000546401
0.000555659
0.000629885
0.000614795
0.000565362
0.000592887
0.00053287
0.000545355
0.000631217
0.00064811
0.000618435
0.000552279
0.000583152
0.000610023
0.000520692
0.000532933
0.000542617
0.00065031
0.000668332
0.000637761
0.000553216
0.000567484
0.000593005
0.00061896
0.000507907
0.000523844
0.000528499
0.00065268
0.000668694
0.000689334
0.000637846
0.000538624
0.000563886
0.000590171
0.000607981
0.000615638
0.000504538
0.000496898
0.00051347
0.000526271
0.00067257
0.000688515
0.000711992
0.00065207
0.000537239
0.000576019
0.00054987
0.000603517
0.000617894
0.000633229
0.00049441
0.00048607
0.000502191
0.000513424
0.000691323
0.000671276
0.000707673
0.000737491
0.000648682
0.000523897
0.000573861
0.000547107
0.000603947
0.000631551
0.000493376
0.000485131
0.000475777
0.000501954
0.000512444
0.000710962
0.00068811
0.000728598
0.000763633
0.000664916
0.000523454
0.000558692
0.000586003
0.000535573
0.000617616
0.000647464
0.000483339
0.000476519
0.000466059
0.000489696
0.000498817
0.0007168
0.000682416
0.000705495
0.000750717
0.000769729
0.00079052
0.000667485
0.00051565
0.000552592
0.000582078
0.000530632
0.000610274
0.000629668
0.000645994
0.000480873
0.000475786
0.000466373
0.000455773
0.000488287
0.000495292
0.000740317
0.000698862
0.000715385
0.000760584
0.000799549
0.000820834
0.000686664
0.000506509
0.000519511
0.0005387
0.000562061
0.00057531
0.000598472
0.00062096
0.000665518
0.000469091
0.000465986
0.000461289
0.000448837
0.000477946
0.000487336
0.000735213
0.000707076
0.00078466
0.000824634
0.000801944
0.000850665
0.000687146
0.000499416
0.000509793
0.000538161
0.000550386
0.00058462
0.000599683
0.000633881
0.000668178
0.00046775
0.000462081
0.000452069
0.00044021
0.000472088
0.000477227
0.0004899
0.000754895
0.00072868
0.000797276
0.000853748
0.000829563
0.000885382
0.000709759
0.000500112
0.000513256
0.000527099
0.000555833
0.000573536
0.000612552
0.000651667
0.000627486
0.000690051
0.000460362
0.000451555
0.000446916
0.00043436
0.000432729
0.000462134
0.000469264
0.000484213
0.000784968
0.000748083
0.000731238
0.000829074
0.000882011
0.000853121
0.000923189
0.000711857
0.000488667
0.000506072
0.000526452
0.000551503
0.000579445
0.000607066
0.000652289
0.000636874
0.000689387
0.000450857
0.000445717
0.000437789
0.000425878
0.000425041
0.000455803
0.000459684
0.000473078
0.000808316
0.000768973
0.000753505
0.000854227
0.00091222
0.000882478
0.000959125
0.000733621
0.000486506
0.000512115
0.000496005
0.000537828
0.000562807
0.000576106
0.000595845
0.000622608
0.000669322
0.000712215
0.000444651
0.000435122
0.000431577
0.000421269
0.000419751
0.000418327
0.000447394
0.00045108
0.000468742
0.000793802
0.000839205
0.000766412
0.000854519
0.000890389
0.000944648
0.000994656
0.000966514
0.000754182
0.000732694
0.000476588
0.000507679
0.000487331
0.000536328
0.000558999
0.000586594
0.000600447
0.000629903
0.000672807
0.000713887
0.000435578
0.000430408
0.000422554
0.000413216
0.000411405
0.000412027
0.000439248
0.000450265
0.000441696
0.000458974
0.000811304
0.000860542
0.000796447
0.000891844
0.000925093
0.000966055
0.00103588
0.00100699
0.000770271
0.000753097
0.000477806
0.000498159
0.000517764
0.000488443
0.000547081
0.000527092
0.000569914
0.000585535
0.00061445
0.00064817
0.00069582
0.000663875
0.000737577
0.000432932
0.000420594
0.000416506
0.000408235
0.000406656
0.000405159
0.000441906
0.000435052
0.000459329
0.000845192
0.000894173
0.00081203
0.000920896
0.000963146
0.00101294
0.00107807
0.000794426
0.000764808
0.000469396
0.000500654
0.000510176
0.000478918
0.000536414
0.000526715
0.000567572
0.000598422
0.00061428
0.000645767
0.0006951
0.000676456
0.000733603
0.000759706
0.00042591
0.000415077
0.000409285
0.000400056
0.000399043
0.000398758
0.000435562
0.000437709
0.000426957
0.000451923
0.000867321
0.000926827
0.000843129
0.0009562
0.00100215
0.00105429
0.00109739
0.00111638
0.000806825
0.000792509
0.000469291
0.000491694
0.000514065
0.000475667
0.000541461
0.000581713
0.00055649
0.00059561
0.000628921
0.000659821
0.000712097
0.000675162
0.000753437
0.000781018
0.000419395
0.000422134
0.00040833
0.000400727
0.000395553
0.000395871
0.000391366
0.000429086
0.000429921
0.000442882
0.000423889
0.000453951
0.000902367
0.000930947
0.000963359
0.000854524
0.000990074
0.00104004
0.00106702
0.0011448
0.00117827
0.000837314
0.00080615
0.000462827
0.000491093
0.000481791
0.000510128
0.000465558
0.000531844
0.000582513
0.000560428
0.000608762
0.000622765
0.000662153
0.000709468
0.000691568
0.000751075
0.000779427
0.000413788
0.000414682
0.000400497
0.000408243
0.000387695
0.000388538
0.000385873
0.000385529
0.000424234
0.000435588
0.000417205
0.000447751
0.000909719
0.000971635
0.00100223
0.000891371
0.00102531
0.00106162
0.00112034
0.0011636
0.00118047
0.00123759
0.000855794
0.000832406
0.000479519
0.000499789
0.000475245
0.000520056
0.000460427
0.000536807
0.000596902
0.000573258
0.00054995
0.000609231
0.000634434
0.000650854
0.00068139
0.000727434
0.000771945
0.00080508
0.000408041
0.000393994
0.000402233
0.000384314
0.000384189
0.000380997
0.000379028
0.00041666
0.000427258
0.000438163
0.000409715
0.000450737
0.000951517
0.00101047
0.00103944
0.000914358
0.00110527
0.0011633
0.0012196
0.0012381
0.00130882
0.000889447
0.00084242
0.000479545
0.000501644
0.000465358
0.000511943
0.000530783
0.000594733
0.000578784
0.000550146
0.000622635
0.000659563
0.000691782
0.000715046
0.000797144
0.000771043
0.000832491
0.000401179
0.000387299
0.000395751
0.000376885
0.00037697
0.000377135
0.000374195
0.000410719
0.000419801
0.000432326
0.000402371
0.000445096
0.000978456
0.00105116
0.00108676
0.000953858
0.00114688
0.00121204
0.00125284
0.00129753
0.00138951
0.000902056
0.00087795
0.000467335
0.000490265
0.000460673
0.000517684
0.000537119
0.0006058
0.000575156
0.000561041
0.000629689
0.000648856
0.000680004
0.000728234
0.000818348
0.0007997
0.000754067
0.000855615
0.00039517
0.000380584
0.00038934
0.000373132
0.000375484
0.00037125
0.00036921
0.000402744
0.000412513
0.000418358
0.00042488
0.000436473
0.000395888
0.00045012
0.00102274
0.00108346
0.00107177
0.00113416
0.000976362
0.00121026
0.00124216
0.00131102
0.0013596
0.00147742
0.000943726
0.000888703
0.000462629
0.00049039
0.000511862
0.000531701
0.000603368
0.000620667
0.000587849
0.000554801
0.000658109
0.000690333
0.000712623
0.000848965
0.000813424
0.00076453
0.000388606
0.000382174
0.000366501
0.000369078
0.000366982
0.000363742
0.000398004
0.000407245
0.000411859
0.000420189
0.000429472
0.000389663
0.000442308
0.00104395
0.00105237
0.00113288
0.00112978
0.00118013
0.0010234
0.00125301
0.00131211
0.00133939
0.00143171
0.00157935
0.00148147
0.000958626
0.000922105
0.000454424
0.000470709
0.000480318
0.000502069
0.000519746
0.0005404
0.000615918
0.000629719
0.000581267
0.000564268
0.000646235
0.000678257
0.000721529
0.000878753
0.00078989
0.000841429
0.000745133
0.000382952
0.000376097
0.000364521
0.000361999
0.000366151
0.000359693
0.000363249
0.000358124
0.000392337
0.000400898
0.000406783
0.000412741
0.000422589
0.000427143
0.000387749
0.000383917
0.00043286
0.00044546
0.0010915
0.00109926
0.00117579
0.00117481
0.00123155
0.0010562
0.00132816
0.00135702
0.00141674
0.00147674
0.00169683
0.00158406
0.0010038
0.000929398
0.000454601
0.000461857
0.000481648
0.000502174
0.000512256
0.000534132
0.000622814
0.000592817
0.000559338
0.000655144
0.000688083
0.000709832
0.000867279
0.000913971
0.000792082
0.000839942
0.000749903
0.00037639
0.000369837
0.00035859
0.000355311
0.000359783
0.000354627
0.000357382
0.000353438
0.000387935
0.000398265
0.000401443
0.000408879
0.000417767
0.000419423
0.00038299
0.00037889
0.000428653
0.000441049
0.00113015
0.00115213
0.00122458
0.00123812
0.00127606
0.00104629
0.00111276
0.0013821
0.00143539
0.00156518
0.00183466
0.00168568
0.00100498
0.000972084
0.000445767
0.000464227
0.000491991
0.000473786
0.000519338
0.000543244
0.000643449
0.000611078
0.000585697
0.00057022
0.000676177
0.000721459
0.000893591
0.000937242
0.000775016
0.000819591
0.00087052
0.000743551
0.00037205
0.00036492
0.000353834
0.000356134
0.000356894
0.000349317
0.000353131
0.000348736
0.000388892
0.00038335
0.000393407
0.000396979
0.000403659
0.000412227
0.000416381
0.000378467
0.000373846
0.000420983
0.000433098
0.00118233
0.0011964
0.00130109
0.00133869
0.0010971
0.00114963
0.00146201
0.00151552
0.00164917
0.00197253
0.00180415
0.00104906
0.000974096
0.000439446
0.000462658
0.000490302
0.000470427
0.000511367
0.000539142
0.000653541
0.000618831
0.000595191
0.000563048
0.000687024
0.000710243
0.000927092
0.000784699
0.000829055
0.000885065
0.000761402
0.000366082
0.000359784
0.000348838
0.00034998
0.000351879
0.000343195
0.000347312
0.000342694
0.000383542
0.000379346
0.00039175
0.000398667
0.000402347
0.000406899
0.0004088
0.00037443
0.000369746
0.000416441
0.000426128
0.00122527
0.00126054
0.00131177
0.0013646
0.00138442
0.00114999
0.0010959
0.00120613
0.00150532
0.00151426
0.00161877
0.00177356
0.00213134
0.00198444
0.00193156
0.00104947
0.00100757
0.000444317
0.000428575
0.000455839
0.000499718
0.000478474
0.000517955
0.000550522
0.000528761
0.000674513
0.000638213
0.000611389
0.000587348
0.000571561
0.000723308
0.000957691
0.000808612
0.000858579
0.000921699
0.000750569
0.000362959
0.00035544
0.000343508
0.000346552
0.000347972
0.000349491
0.000341614
0.000339036
0.000344098
0.000380437
0.000379609
0.000374994
0.000388216
0.000394098
0.000396319
0.000405507
0.000370124
0.000365748
0.000409931
0.000418837
0.00128546
0.00138898
0.00143392
0.00147706
0.00120563
0.00114961
0.00125187
0.00160287
0.00161728
0.00172542
0.00188262
0.00230929
0.0021658
0.00203992
0.00108985
0.000999712
0.000438767
0.000423499
0.000458517
0.000497766
0.000477258
0.000506471
0.000541153
0.000529934
0.000686332
0.000639402
0.00062091
0.000596806
0.000561825
0.000710659
0.00095828
0.00082058
0.000863936
0.000917447
0.000768552
0.000359388
0.00035565
0.000351588
0.000339744
0.000341208
0.000344
0.000345694
0.000337298
0.000333679
0.000339911
0.000375528
0.00038331
0.000375058
0.000371896
0.000389862
0.000392352
0.000394601
0.000400025
0.000366501
0.000362438
0.000405978
0.000412324
0.00135199
0.00143878
0.00151874
0.00154936
0.00124241
0.00113376
0.00120226
0.00132401
0.00168546
0.00171367
0.00185306
0.00202845
0.00220597
0.0010837
0.00103737
0.000443705
0.000428844
0.000416209
0.000452678
0.000468332
0.000487126
0.000507465
0.000546327
0.00052018
0.000685133
0.000655415
0.000614011
0.000596226
0.000567095
0.000723226
0.00099634
0.000851835
0.000799306
0.000894859
0.000950485
0.000747084
0.000359213
0.000351805
0.000348275
0.000334284
0.000337755
0.000343085
0.000339552
0.00034516
0.000330959
0.000329171
0.000335348
0.00037257
0.000374438
0.000381283
0.000371997
0.000367565
0.000387177
0.000388269
0.000390991
0.000397517
0.00036263
0.000400308
0.000407149
0.000410948
0.00142865
0.00154099
0.00159794
0.00165801
0.00131338
0.00117108
0.00122872
0.00138606
0.00180918
0.00182899
0.00197698
0.00218699
0.00234347
0.00112769
0.00102887
0.000437325
0.000424533
0.000410099
0.000455967
0.000465444
0.000483721
0.000501922
0.000542744
0.000518361
0.000674606
0.000706826
0.000642137
0.000624618
0.000581826
0.000611635
0.000553015
0.00101311
0.000872106
0.000814488
0.00090388
0.000985567
0.000930876
0.000755364
0.000355823
0.000348394
0.000352197
0.000330308
0.000332108
0.000339771
0.000337575
0.000342307
0.000328635
0.00032336
0.000332156
0.000369028
0.000377376
0.000370601
0.000383555
0.000368538
0.000366076
0.000384699
0.000386667
0.000392825
0.000359668
0.000398376
0.00040188
0.000405363
0.00150722
0.00160023
0.00171674
0.00174831
0.00137468
0.00129379
0.00122454
0.00147439
0.00192838
0.00196505
0.00214279
0.00234515
0.00115614
0.00107331
0.000429448
0.000440753
0.000417598
0.000404988
0.000411085
0.000450696
0.00047212
0.000491599
0.000508242
0.000528942
0.000686949
0.000708406
0.000650805
0.000582497
0.000619833
0.000554341
0.00105499
0.000855272
0.000805688
0.00100296
0.000952646
0.0007822
0.000729481
0.000355714
0.00034527
0.000349282
0.000325694
0.000329109
0.000337532
0.000334618
0.000338886
0.000342319
0.000323906
0.000320638
0.000322136
0.000327326
0.000368196
0.000365688
0.00037527
0.000369204
0.000380475
0.00036534
0.000362837
0.000380935
0.000383664
0.000383591
0.00038906
0.000360018
0.000393702
0.000401003
0.00153429
0.00171356
0.00182064
0.00188751
0.00144562
0.00134712
0.00128127
0.00152889
0.00211152
0.00211864
0.00231002
0.00122812
0.00111506
0.000422138
0.000434779
0.000416105
0.000400466
0.000404955
0.000455674
0.000466911
0.000489634
0.000500226
0.000522816
0.000674322
0.000640838
0.000568495
0.000597154
0.000611564
0.00054354
0.00108035
0.000879665
0.000834613
0.000996106
0.0010537
0.000922614
0.000787877
0.000734209
0.000354625
0.000344079
0.000349371
0.00034614
0.000321627
0.000326094
0.000331674
0.000334089
0.000336439
0.000340207
0.000318767
0.00031591
0.000317432
0.000319709
0.000325262
0.000364768
0.000363487
0.000371444
0.000376941
0.00036586
0.000361473
0.000360371
0.000378461
0.000379563
0.000379669
0.000384751
0.000389589
0.000357023
0.000391925
0.000396049
0.00165479
0.00182056
0.00174678
0.00196532
0.00200866
0.00143016
0.00134712
0.00128786
0.00162039
0.00228918
0.00124119
0.00112767
0.000424545
0.000439314
0.000407979
0.000396892
0.000396092
0.000402692
0.000399362
0.000450024
0.000473496
0.000484218
0.000501448
0.000532329
0.000511464
0.00068513
0.000652013
0.00056809
0.00059493
0.000622832
0.000544698
0.000865771
0.000815836
0.00103196
0.00108118
0.000939797
0.000765911
0.000724052
0.000351856
0.000340976
0.000346562
0.000344743
0.0003221
0.000317419
0.000326375
0.000328908
0.000332125
0.000337192
0.000333498
0.000314272
0.000314381
0.000315898
0.000319827
0.000363631
0.00036094
0.000369504
0.000374269
0.000363526
0.000359493
0.000357615
0.0003751
0.000377613
0.000377047
0.00038154
0.000384771
0.000355911
0.000387731
0.00169181
0.00196573
0.00189228
0.00208586
0.00218352
0.00151198
0.00141619
0.00136349
0.00166991
0.00117839
0.0013108
0.000418616
0.000433686
0.000404621
0.000391959
0.000392063
0.000396443
0.000395076
0.000455693
0.000466946
0.000489803
0.00052475
0.000513563
0.000671061
0.000705265
0.000638885
0.000555423
0.000581136
0.000608088
0.00053055
0.000890792
0.000832976
0.00101977
0.00112775
0.000983012
0.000926444
0.000766475
0.00074121
0.00035119
0.000339162
0.000346259
0.000342561
0.000319727
0.00031393
0.00032391
0.000327371
0.000329023
0.000335318
0.000331297
0.000309952
0.000309689
0.000309942
0.00031704
0.00036093
0.000358298
0.000371426
0.000366958
0.000360561
0.000364346
0.00035687
0.000354876
0.000372669
0.000373877
0.000373232
0.000378001
0.000381551
0.000383567
0.000353193
0.000388078
0.00181827
0.00208412
0.00201111
0.00193607
0.00222523
0.00230538
0.0016206
0.00149455
0.00141107
0.00180775
0.00118891
0.00131207
0.00137673
0.000423265
0.000410631
0.00043861
0.000398066
0.000388665
0.000391029
0.000390523
0.000449429
0.000472622
0.000484845
0.000503467
0.000677303
0.000698194
0.000647336
0.000556189
0.000579728
0.00060838
0.000529076
0.000871564
0.000820429
0.00106755
0.00117708
0.00111763
0.0009918
0.000952075
0.000790241
0.000734267
0.000348492
0.000336461
0.000340176
0.000343644
0.000341943
0.000317413
0.000321572
0.000309468
0.000314149
0.000323931
0.000327468
0.00033317
0.000328766
0.000331353
0.000306983
0.000307042
0.000305345
0.000311023
0.000359364
0.000358407
0.000356149
0.000369099
0.000366685
0.000358706
0.000361785
0.00035455
0.000352663
0.000369599
0.000371552
0.000371411
0.000376037
0.000377669
0.000380049
0.000383769
0.00222102
0.00218368
0.00211575
0.00232855
0.00170632
0.00157529
0.00152102
0.00192934
0.00126394
0.00138088
0.00144506
0.000419146
0.000403991
0.000434066
0.000397684
0.000392059
0.000383477
0.000385355
0.000385662
0.000454413
0.000472534
0.000492135
0.000505097
0.000669262
0.000711119
0.000641102
0.000541959
0.000568438
0.000593564
0.000623636
0.000516651
0.000892949
0.000844583
0.00106941
0.00122403
0.0011674
0.00102797
0.000935589
0.000779511
0.000752525
0.000347114
0.000335431
0.000338698
0.000343037
0.00033956
0.00031751
0.000319377
0.000307347
0.000311898
0.000322848
0.000325
0.00033205
0.000327831
0.000329315
0.00030147
0.000301995
0.000305347
0.000300917
0.000316121
0.000356426
0.00035603
0.000353831
0.000364429
0.000356533
0.000359413
0.000361857
0.000351856
0.000350319
0.000367448
0.000368431
0.000373331
0.000368813
0.000374737
0.000376139
0.00038043
0.00230369
0.00229303
0.00210495
0.00183343
0.0016803
0.00158875
0.00193264
0.00127689
0.0013972
0.00153367
0.000411799
0.000425123
0.000404509
0.000438967
0.000392711
0.000385953
0.000381894
0.000382657
0.00038043
0.000447341
0.000464316
0.000482796
0.000494238
0.000682764
0.000704073
0.000655972
0.000537782
0.000573511
0.000590367
0.000620015
0.000514097
0.000880348
0.000830317
0.00111646
0.00121366
0.00119218
0.00103018
0.000963919
0.000799022
0.000742295
0.000348322
0.000344902
0.000336821
0.00033323
0.00034119
0.000338193
0.000315289
0.000317672
0.000309318
0.000305225
0.000313049
0.000320739
0.000323412
0.000329731
0.000325882
0.000299115
0.000300042
0.000301167
0.000296567
0.000289034
0.000354998
0.000353872
0.000351574
0.000364729
0.000354872
0.000357285
0.000359526
0.000349777
0.00036566
0.00037074
0.000365823
0.000368666
0.000370475
0.000374224
0.000376364
0.0022997
0.00189012
0.00176696
0.00171015
0.00211776
0.00133012
0.00147922
0.00160365
0.00040968
0.000422124
0.000398526
0.000434022
0.000393034
0.000386234
0.000380774
0.000377985
0.000377779
0.000376605
0.000448349
0.000464998
0.000483848
0.000493086
0.000675464
0.000718955
0.000651226
0.000524501
0.000549019
0.000564654
0.000602894
0.000634112
0.000503158
0.000908133
0.000850317
0.00107768
0.00116245
0.00127392
0.00125254
0.00100652
0.00094844
0.000785516
0.000758106
0.000346119
0.000344551
0.000335047
0.000333251
0.000340841
0.000339251
0.000335997
0.000314835
0.000318642
0.000307433
0.000302592
0.000305493
0.000310628
0.000320282
0.000321563
0.00032396
0.000328741
0.000325395
0.000294831
0.000296994
0.000295413
0.000293881
0.000359086
0.000353079
0.000351367
0.000349321
0.000362756
0.00035304
0.000355277
0.000357307
0.00036002
0.000347433
0.000363162
0.000368562
0.000363624
0.000366023
0.000369044
0.000371431
0.000374828
0.00201436
0.0017851
0.00177686
0.00214127
0.00147781
0.00157305
0.00172905
0.000401001
0.00041458
0.000426876
0.000438298
0.000387237
0.000383344
0.000375331
0.000374035
0.000373871
0.00037222
0.000456103
0.000474047
0.000483414
0.000689101
0.000709633
0.000665084
0.000521559
0.000542615
0.000573543
0.000602036
0.000633129
0.00050295
0.000887048
0.000834167
0.0010804
0.00119586
0.0012971
0.00126276
0.00102918
0.000978045
0.000802923
0.000745922
0.000345557
0.000342359
0.000334453
0.000331814
0.000339085
0.000338237
0.000335401
0.000313898
0.000317485
0.000308206
0.000301518
0.000303067
0.000310054
0.0003184
0.000320307
0.000322422
0.000330286
0.000326965
0.000323553
0.000291894
0.000293404
0.000296916
0.000297783
0.000288371
0.000133098
0.000351218
0.000349982
0.00034936
0.00034722
0.000351428
0.000353361
0.000355071
0.000359086
0.00036081
0.000365355
0.000363913
0.000361073
0.000366709
0.000369099
0.000370758
0.00205489
0.00193476
0.00191285
0.00231936
0.00143998
0.00159523
0.00166513
0.00181901
0.000398084
0.000412379
0.000418329
0.000437927
0.000381614
0.000378463
0.000371336
0.000374098
0.000370485
0.000369115
0.000368272
0.000455803
0.000473986
0.000484054
0.000681267
0.000722739
0.000665176
0.000531322
0.000513006
0.000550935
0.000589009
0.00056479
0.000618047
0.000649093
0.000494092
0.000908543
0.00085281
0.00112432
0.00117916
0.00136458
0.00131898
0.00102655
0.000954664
0.000787796
0.00076025
0.000343256
0.000341528
0.000332431
0.000331267
0.000337491
0.000336697
0.000333725
0.000312031
0.000315584
0.000306369
0.000299236
0.000302574
0.000308635
0.00031846
0.000320778
0.000322298
0.000329168
0.00032744
0.000322546
0.000287738
0.000291228
0.000294635
0.000266244
0.000290808
0.000822231
0.000349098
0.000347784
0.000347285
0.000345324
0.000351539
0.000349237
0.00035313
0.00035508
0.00035708
0.000359578
0.000362985
0.000361609
0.000360181
0.000363895
0.000366831
0.000367969
0.0022127
0.00197512
0.00199913
0.00151287
0.00165096
0.00178194
0.00196408
0.000390332
0.000404288
0.000420166
0.000430395
0.000447442
0.000383239
0.000375146
0.000374189
0.000366898
0.000369379
0.000367108
0.000366058
0.00036465
0.000464981
0.000475915
0.000693439
0.000711437
0.000680688
0.000526345
0.000516131
0.000545337
0.0005904
0.00057101
0.000616927
0.000649593
0.000497021
0.000889219
0.000834403
0.00113052
0.00123718
0.00136312
0.00107378
0.000983183
0.000803511
0.000745998
0.000343213
0.000339365
0.000332262
0.00032952
0.000335541
0.000337606
0.000335217
0.000333686
0.000311375
0.000314264
0.000304578
0.000306785
0.000298076
0.000301026
0.000309353
0.00031752
0.000319706
0.000320407
0.000326466
0.000320426
0.000323508
0.00028591
0.000292145
0.000288143
0.000294375
0.000281661
0.000287048
0.000407242
0.000347513
0.000346401
0.000345537
0.000349999
0.000347728
0.00035121
0.000353123
0.000355727
0.000356795
0.000359501
0.000359013
0.000358002
0.000362108
0.000364898
0.000365311
0.00230075
0.0021465
0.00216313
0.00160886
0.00145494
0.00176474
0.00189771
0.00207915
0.000387612
0.000400817
0.000414342
0.000432802
0.000448807
0.000375385
0.000370128
0.0003698
0.000365895
0.000363927
0.000364646
0.000362343
0.000360836
0.000465943
0.000478421
0.000722241
0.000688461
0.000532924
0.000507631
0.000553661
0.000604355
0.000583932
0.00056666
0.000632437
0.000669003
0.000488099
0.000910747
0.000850812
0.00118354
0.00130082
0.0013526
0.00107002
0.00103023
0.000952118
0.000784919
0.000758187
0.000341724
0.00033862
0.000330313
0.000328932
0.000334242
0.000335799
0.000332273
0.000312477
0.000314843
0.000303151
0.000305395
0.000296323
0.000299389
0.000301385
0.000309141
0.000316205
0.0003184
0.000327267
0.000325128
0.000319708
0.00032244
0.000282431
0.000290154
0.00028671
0.000292624
0.000284583
0.000283804
0.000156936
0.000345802
0.000344368
0.000343764
0.000348333
0.000349773
0.000346176
0.000351361
0.000353369
0.000356139
0.000357946
0.000356398
0.000356128
0.000359614
0.000362832
0.000362551
0.00231138
0.00167989
0.00150169
0.00186256
0.00179077
0.00205436
0.0022275
0.00038038
0.000393557
0.000406516
0.000418418
0.000442903
0.000427786
0.000458677
0.000373575
0.000369806
0.000364455
0.000364962
0.000361456
0.000359984
0.000361551
0.000362544
0.000359426
0.000360993
0.000358525
0.000471113
0.000709591
0.000521894
0.000509698
0.000540603
0.000602148
0.0005905
0.000576563
0.000633308
0.000671964
0.000488122
0.000885169
0.000821647
0.00120004
0.00132968
0.00143148
0.00112515
0.00104148
0.000969546
0.000794546
0.000750201
0.000342309
0.000340066
0.000337012
0.000329635
0.000332802
0.000334516
0.000335489
0.00033183
0.000330835
0.000312291
0.000313486
0.000303465
0.000306024
0.000296306
0.000297856
0.000300172
0.000310755
0.000307637
0.000315638
0.000316671
0.000326232
0.000324337
0.00032102
0.0003183
0.000322879
0.000282086
0.00028055
0.000290511
0.000288089
0.000284518
0.000292981
0.000289411
0.000281615
0.000221298
0.000926852
0.000344252
0.000344155
0.000343014
0.000347284
0.000347932
0.000344537
0.000345098
0.00034931
0.00035236
0.000353843
0.000355405
0.000354193
0.000353845
0.000358731
0.000360267
0.000359984
0.001683
0.00159885
0.00200832
0.00190074
0.00218497
0.00232295
0.000380733
0.000394428
0.000401517
0.000415086
0.000447948
0.000432758
0.000461787
0.000366959
0.000363577
0.000360786
0.000360911
0.000358632
0.000360416
0.000356385
0.00035764
0.00035618
0.000469757
0.000723412
0.000525688
0.00049846
0.000615576
0.000651438
0.000694647
0.00047786
0.000901508
0.000825557
0.00127389
0.00117582
0.00140112
0.00145786
0.00109404
0.00101752
0.000943318
0.00076784
0.000340761
0.000339708
0.000336912
0.000328241
0.000332156
0.000333016
0.000334461
0.000330315
0.000329895
0.000313943
0.000302528
0.000304689
0.00029487
0.000298244
0.000300768
0.000309763
0.000307213
0.000316466
0.000324795
0.000326858
0.000319952
0.000317792
0.000322656
0.000279846
0.000276256
0.000288872
0.000286134
0.000284372
0.000292156
0.000275792
0.000226103
0.000236111
0.000342564
0.000342305
0.000341221
0.000345668
0.000347685
0.000343202
0.00034351
0.0003486
0.000350188
0.00035267
0.000354859
0.000353666
0.000352121
0.000351993
0.000356555
0.000357688
0.0018127
0.00163415
0.00216932
0.00194099
0.00227941
0.000388371
0.000374561
0.000405914
0.000419911
0.000441982
0.000456914
0.000427729
0.000361002
0.000367602
0.000359225
0.00035624
0.00035673
0.00035482
0.00035791
0.000355583
0.000353031
0.000355912
0.000352643
0.000353904
0.000461617
0.000717905
0.000891045
0.000795056
0.000859015
0.00128008
0.00121522
0.00142911
0.00154741
0.00112236
0.00104545
0.000960847
0.000768057
0.000340059
0.000338128
0.000335312
0.000327778
0.000330608
0.000333057
0.000329703
0.000328571
0.000313031
0.000303359
0.000304598
0.000294702
0.000297336
0.000300795
0.000310537
0.000308394
0.000305912
0.000315614
0.000323839
0.000326013
0.000320205
0.000318547
0.000316453
0.000321601
0.000280397
0.000276665
0.000289329
0.000287167
0.000285551
0.000282626
0.00029096
0.000293126
0.000275094
0.000195899
0.000255732
0.000980877
0.000341151
0.000341113
0.000344705
0.000345714
0.000341688
0.000342426
0.000346571
0.000349434
0.000350785
0.000353073
0.000351066
0.0003504
0.00035008
0.000354933
0.000355469
0.00182586
0.00173637
0.00229397
0.00211485
0.000390164
0.000376653
0.000404007
0.000417443
0.00044481
0.000429483
0.000355197
0.000361943
0.000353243
0.000354312
0.000351199
0.000353785
0.000352616
0.000353365
0.000351679
0.000353382
0.000351827
0.000453711
0.000741332
0.000922007
0.00133773
0.00121437
0.00152804
0.00141129
0.00109794
0.00118395
0.00100508
0.000338581
0.000337349
0.000334258
0.000326442
0.000329741
0.000331843
0.000328469
0.000327871
0.000311872
0.000314235
0.000302161
0.000303459
0.00029593
0.000298386
0.000299692
0.000309517
0.000308361
0.000306046
0.000324595
0.000319549
0.000317885
0.00031583
0.000321569
0.000278799
0.00027465
0.000288548
0.000286176
0.000283988
0.000282292
0.000290727
0.000293227
0.000272575
0.000177521
0.000259837
0.000298712
0.000339385
0.000339431
0.000343038
0.000345114
0.000340367
0.000340679
0.000346233
0.00034769
0.000349173
0.000350948
0.00035166
0.000348608
0.000348449
0.000348698
0.000352487
0.000353135
0.00196044
0.00177693
0.00211881
0.000385153
0.000398013
0.000375027
0.000411202
0.000421845
0.000436922
0.000355529
0.000351389
0.000362583
0.000349353
0.000350056
0.000348257
0.000350187
0.000349237
0.000351118
0.000349714
0.000351113
0.000349311
0.0012875
0.00160017
0.00149389
0.00113454
0.00122074
0.00102414
0.000338185
0.000336364
0.000334867
0.000332808
0.000325763
0.000330701
0.000328724
0.000331808
0.000327358
0.000326479
0.000312286
0.00031354
0.000302111
0.000303743
0.000295996
0.00029717
0.000299765
0.000309939
0.000307389
0.000305087
0.000323854
0.000318459
0.00032024
0.000316557
0.000314366
0.000322611
0.000277066
0.000279119
0.000275194
0.000272043
0.000289313
0.000286948
0.000284424
0.000280758
0.000291797
0.000294664
0.000269819
0.000219518
0.000191597
0.000265363
0.000980731
0.000338455
0.00033856
0.000341798
0.000343594
0.000339115
0.000339693
0.000344362
0.00034765
0.000349636
0.000350129
0.000346904
0.000346964
0.000346831
0.00035165
0.00191159
0.00170142
0.00229545
0.000386988
0.000398935
0.000381804
0.000369098
0.000405553
0.000351018
0.000346296
0.000354933
0.000343633
0.000348197
0.000344604
0.000347958
0.000347746
0.000349461
0.00034973
0.000347598
0.000348879
0.00034722
0.00131656
0.00159442
0.00146769
0.00108336
0.00119141
0.00127746
0.000336883
0.000333942
0.000331714
0.000324451
0.000330132
0.000329028
0.000327568
0.000330634
0.000326164
0.000311283
0.000301106
0.000302885
0.000297443
0.000298974
0.000309041
0.000307767
0.000305509
0.000317459
0.000319814
0.000316382
0.00031365
0.000321758
0.000276138
0.000277146
0.000273043
0.000271317
0.000288715
0.000286137
0.000283527
0.000281514
0.000291257
0.000294648
0.000268788
0.000267483
0.000227696
0.000135351
0.000265285
0.000396386
0.00033691
0.000337318
0.000340468
0.000342172
0.000343075
0.000337871
0.000338644
0.000344462
0.000346183
0.000348035
0.000348411
0.000345279
0.000346629
0.000346094
0.000345409
0.000345659
0.00034928
0.00200898
0.00175738
0.00218281
0.000393276
0.0003775
0.000370941
0.000345986
0.000342101
0.000352765
0.000339904
0.000344605
0.000342657
0.000341267
0.000344802
0.000345
0.000347728
0.000346933
0.000345262
0.000346838
0.000344436
0.00138467
0.00167882
0.00155027
0.00122721
0.00129512
0.000335685
0.00033305
0.000334539
0.000330461
0.000331936
0.000323433
0.000328356
0.00032647
0.00032997
0.000325283
0.000311419
0.000301558
0.000303372
0.00029725
0.000299564
0.000309423
0.000306817
0.000304696
0.00031775
0.000318866
0.000320698
0.000315521
0.000312603
0.000314403
0.000322178
0.000274635
0.000277113
0.000272835
0.000287042
0.000289653
0.00028442
0.000280692
0.000292304
0.000296241
0.000293802
0.000267573
0.000264477
0.000248522
0.000171599
0.000264201
0.000356715
0.000336376