/*--------------------------------*- C++ -*----------------------------------*\
| =========                 |                                                 |
| \\      /  F ield         | OpenFOAM: The Open Source CFD Toolbox           |
|  \\    /   O peration     | Version:  v2012                                 |
|   \\  /    A nd           | Website:  www.openfoam.com                      |
|    \\/     M anipulation  |                                                 |
\*---------------------------------------------------------------------------*/
FoamFile
{
    version     2.0;
    format      ascii;
    class       volScalarField;
    location    "0.3";
    object      nut;
}
// * * * * * * * * * * * * * * * * * * * * * * * * * * * * * * * * * * * * * //

dimensions      [0 2 -1 0 0 0 0];


internalField   nonuniform List<scalar> 
13611
(
1.19269e-05
1.19084e-05
1.19472e-05
1.19136e-05
1.18864e-05
1.19728e-05
1.19411e-05
1.19024e-05
1.18691e-05
1.18699e-05
1.19956e-05
1.19613e-05
1.18788e-05
1.19231e-05
1.1843e-05
1.185e-05
1.199e-05
1.2025e-05
1.19641e-05
1.18546e-05
1.19071e-05
1.19503e-05
1.18265e-05
1.18322e-05
1.18394e-05
1.20157e-05
1.205e-05
1.19931e-05
1.18568e-05
1.18813e-05
1.19234e-05
1.19641e-05
1.1802e-05
1.18101e-05
1.18129e-05
1.20161e-05
1.20447e-05
1.20809e-05
1.19928e-05
1.18319e-05
1.18756e-05
1.1919e-05
1.19471e-05
1.19591e-05
1.1783e-05
1.17912e-05
1.17908e-05
1.18094e-05
1.2044e-05
1.20701e-05
1.21083e-05
1.2014e-05
1.18297e-05
1.18961e-05
1.18519e-05
1.19405e-05
1.19628e-05
1.1986e-05
1.17602e-05
1.17675e-05
1.17667e-05
1.17862e-05
1.20714e-05
1.20419e-05
1.20982e-05
1.21428e-05
1.20091e-05
1.18062e-05
1.18925e-05
1.18473e-05
1.19412e-05
1.19838e-05
1.1752e-05
1.17488e-05
1.17587e-05
1.1765e-05
1.1785e-05
1.20978e-05
1.20657e-05
1.21229e-05
1.21746e-05
1.2033e-05
1.18056e-05
1.18671e-05
1.19125e-05
1.18271e-05
1.19625e-05
1.20079e-05
1.1731e-05
1.17273e-05
1.17314e-05
1.17416e-05
1.176e-05
1.21053e-05
1.20579e-05
1.20898e-05
1.21521e-05
1.21779e-05
1.22094e-05
1.20369e-05
1.17913e-05
1.18563e-05
1.19059e-05
1.1818e-05
1.19509e-05
1.1981e-05
1.20056e-05
1.17248e-05
1.17187e-05
1.17112e-05
1.17266e-05
1.17396e-05
1.17537e-05
1.21364e-05
1.20811e-05
1.21035e-05
1.21631e-05
1.22133e-05
1.22437e-05
1.20644e-05
1.17745e-05
1.1798e-05
1.18322e-05
1.18722e-05
1.18943e-05
1.1932e-05
1.19674e-05
1.20341e-05
1.17013e-05
1.16976e-05
1.16936e-05
1.16966e-05
1.17197e-05
1.17382e-05
1.213e-05
1.20926e-05
1.21933e-05
1.22451e-05
1.22147e-05
1.22792e-05
1.2065e-05
1.17609e-05
1.178e-05
1.18307e-05
1.18518e-05
1.19091e-05
1.19333e-05
1.19868e-05
1.20376e-05
1.16992e-05
1.16879e-05
1.16751e-05
1.16827e-05
1.17084e-05
1.17188e-05
1.17429e-05
1.21559e-05
1.21217e-05
1.22092e-05
1.22774e-05
1.22476e-05
1.23164e-05
1.20962e-05
1.17619e-05
1.17859e-05
1.18108e-05
1.18608e-05
1.18905e-05
1.19535e-05
1.20132e-05
1.19765e-05
1.20683e-05
1.16845e-05
1.16659e-05
1.16591e-05
1.16479e-05
1.16779e-05
1.16885e-05
1.17027e-05
1.17318e-05
1.21938e-05
1.21473e-05
1.21252e-05
1.2247e-05
1.23105e-05
1.22755e-05
1.23576e-05
1.20987e-05
1.17402e-05
1.17724e-05
1.18094e-05
1.18535e-05
1.19002e-05
1.19446e-05
1.20135e-05
1.19904e-05
1.20667e-05
1.1665e-05
1.16535e-05
1.16379e-05
1.16298e-05
1.1664e-05
1.16756e-05
1.16835e-05
1.17101e-05
1.22225e-05
1.21741e-05
1.21543e-05
1.22767e-05
1.23419e-05
1.23085e-05
1.23943e-05
1.21276e-05
1.17356e-05
1.17835e-05
1.17534e-05
1.18298e-05
1.1873e-05
1.18951e-05
1.19268e-05
1.19688e-05
1.20382e-05
1.20981e-05
1.16521e-05
1.16311e-05
1.16227e-05
1.16352e-05
1.16055e-05
1.16772e-05
1.16581e-05
1.16656e-05
1.1701e-05
1.2205e-05
1.22591e-05
1.21709e-05
1.22768e-05
1.23172e-05
1.23766e-05
1.24303e-05
1.24e-05
1.21547e-05
1.21257e-05
1.17162e-05
1.17757e-05
1.17369e-05
1.18278e-05
1.18672e-05
1.19127e-05
1.19346e-05
1.19804e-05
1.20435e-05
1.21006e-05
1.16331e-05
1.16215e-05
1.16024e-05
1.16232e-05
1.15881e-05
1.16527e-05
1.16411e-05
1.16633e-05
1.16462e-05
1.16811e-05
1.22267e-05
1.22843e-05
1.22081e-05
1.23186e-05
1.23549e-05
1.23985e-05
1.24694e-05
1.24399e-05
1.21747e-05
1.21523e-05
1.17184e-05
1.17581e-05
1.17947e-05
1.17394e-05
1.18469e-05
1.18115e-05
1.1886e-05
1.19114e-05
1.19569e-05
1.2008e-05
1.20758e-05
1.20309e-05
1.21323e-05
1.16276e-05
1.16009e-05
1.15897e-05
1.1598e-05
1.15729e-05
1.16632e-05
1.16457e-05
1.16318e-05
1.16816e-05
1.22665e-05
1.23216e-05
1.22269e-05
1.23504e-05
1.2395e-05
1.24452e-05
1.2509e-05
1.22048e-05
1.21672e-05
1.17019e-05
1.17633e-05
1.17811e-05
1.17211e-05
1.18286e-05
1.18112e-05
1.18823e-05
1.19325e-05
1.19572e-05
1.20051e-05
1.20753e-05
1.20494e-05
1.21277e-05
1.2161e-05
1.16127e-05
1.15897e-05
1.15742e-05
1.1582e-05
1.1555e-05
1.16246e-05
1.16324e-05
1.16366e-05
1.16148e-05
1.16665e-05
1.22922e-05
1.23576e-05
1.22635e-05
1.23876e-05
1.24341e-05
1.24853e-05
1.25256e-05
1.25447e-05
1.22195e-05
1.22017e-05
1.17021e-05
1.17465e-05
1.17885e-05
1.17152e-05
1.18376e-05
1.19056e-05
1.18634e-05
1.19281e-05
1.198e-05
1.20261e-05
1.20992e-05
1.2048e-05
1.21541e-05
1.21883e-05
1.15991e-05
1.16046e-05
1.15759e-05
1.15544e-05
1.15579e-05
1.15444e-05
1.16177e-05
1.16185e-05
1.162e-05
1.16476e-05
1.16077e-05
1.16712e-05
1.23308e-05
1.23623e-05
1.23954e-05
1.2276e-05
1.24222e-05
1.24711e-05
1.24971e-05
1.25678e-05
1.25978e-05
1.22557e-05
1.22188e-05
1.16893e-05
1.17456e-05
1.17275e-05
1.17814e-05
1.16952e-05
1.18206e-05
1.1907e-05
1.18702e-05
1.1949e-05
1.19707e-05
1.20297e-05
1.2096e-05
1.20715e-05
1.21514e-05
1.21868e-05
1.15874e-05
1.15892e-05
1.15575e-05
1.15759e-05
1.1536e-05
1.15254e-05
1.16266e-05
1.15648e-05
1.1608e-05
1.16325e-05
1.15934e-05
1.16585e-05
1.2338e-05
1.24039e-05
1.24349e-05
1.23174e-05
1.24572e-05
1.24916e-05
1.25453e-05
1.25837e-05
1.25996e-05
1.26477e-05
1.22773e-05
1.22503e-05
1.17234e-05
1.17621e-05
1.17149e-05
1.17995e-05
1.16851e-05
1.18294e-05
1.19301e-05
1.18916e-05
1.18521e-05
1.19497e-05
1.19886e-05
1.2013e-05
1.20572e-05
1.21206e-05
1.21783e-05
1.22188e-05
1.1575e-05
1.15437e-05
1.15631e-05
1.15185e-05
1.15158e-05
1.16784e-05
1.15465e-05
1.1592e-05
1.16147e-05
1.16385e-05
1.15779e-05
1.16653e-05
1.23822e-05
1.2443e-05
1.24712e-05
1.23426e-05
1.2532e-05
1.25834e-05
1.26308e-05
1.26467e-05
1.27038e-05
1.23152e-05
1.22624e-05
1.17233e-05
1.17655e-05
1.16954e-05
1.17846e-05
1.18185e-05
1.19263e-05
1.19005e-05
1.18522e-05
1.19705e-05
1.20258e-05
1.20719e-05
1.21037e-05
1.22095e-05
1.21772e-05
1.22514e-05
1.15604e-05
1.1527e-05
1.15486e-05
1.14963e-05
1.14961e-05
1.16341e-05
1.15032e-05
1.15797e-05
1.15993e-05
1.16263e-05
1.1562e-05
1.16537e-05
1.24098e-05
1.24824e-05
1.25155e-05
1.23842e-05
1.25695e-05
1.26248e-05
1.26584e-05
1.26946e-05
1.27648e-05
1.23295e-05
1.23028e-05
1.16993e-05
1.1744e-05
1.16859e-05
1.17951e-05
1.18296e-05
1.19439e-05
1.18944e-05
1.18708e-05
1.19812e-05
1.20098e-05
1.20551e-05
1.21215e-05
1.22355e-05
1.22125e-05
1.21552e-05
1.2279e-05
1.15467e-05
1.15105e-05
1.15331e-05
1.14843e-05
1.14947e-05
1.15952e-05
1.15009e-05
1.15627e-05
1.15838e-05
1.15967e-05
1.16106e-05
1.16355e-05
1.15477e-05
1.16643e-05
1.24537e-05
1.25128e-05
1.25017e-05
1.25584e-05
1.24077e-05
1.26234e-05
1.26497e-05
1.27043e-05
1.27418e-05
1.28276e-05
1.2374e-05
1.23158e-05
1.16897e-05
1.1744e-05
1.17842e-05
1.18199e-05
1.19399e-05
1.1967e-05
1.19151e-05
1.186e-05
1.20233e-05
1.20695e-05
1.21001e-05
1.22713e-05
1.2229e-05
1.21684e-05
1.1531e-05
1.15146e-05
1.14652e-05
1.14777e-05
1.16022e-05
1.1471e-05
1.15524e-05
1.1573e-05
1.15834e-05
1.1601e-05
1.16207e-05
1.15327e-05
1.16478e-05
1.24742e-05
1.24826e-05
1.25571e-05
1.25539e-05
1.25985e-05
1.24543e-05
1.26592e-05
1.27047e-05
1.27263e-05
1.27945e-05
1.28962e-05
1.283e-05
1.23904e-05
1.23525e-05
1.16728e-05
1.17056e-05
1.17245e-05
1.17659e-05
1.17984e-05
1.18352e-05
1.19596e-05
1.19808e-05
1.19042e-05
1.18761e-05
1.20056e-05
1.20522e-05
1.2112e-05
1.23053e-05
1.22e-05
1.22619e-05
1.2143e-05
1.1516e-05
1.14976e-05
1.14627e-05
1.14548e-05
1.14699e-05
1.15187e-05
1.16291e-05
1.14544e-05
1.15392e-05
1.1559e-05
1.15726e-05
1.15856e-05
1.16064e-05
1.16158e-05
1.15278e-05
1.1518e-05
1.1628e-05
1.16544e-05
1.25184e-05
1.25253e-05
1.25947e-05
1.25935e-05
1.26415e-05
1.24863e-05
1.27178e-05
1.27393e-05
1.27831e-05
1.28265e-05
1.29702e-05
1.28978e-05
1.24362e-05
1.23609e-05
1.1673e-05
1.16878e-05
1.17269e-05
1.1766e-05
1.17847e-05
1.18241e-05
1.19702e-05
1.19231e-05
1.18678e-05
1.20187e-05
1.2066e-05
1.20959e-05
1.22919e-05
1.23438e-05
1.22025e-05
1.22599e-05
1.21491e-05
1.14982e-05
1.14804e-05
1.14477e-05
1.14363e-05
1.14535e-05
1.15214e-05
1.16012e-05
1.1431e-05
1.15287e-05
1.15536e-05
1.15613e-05
1.15777e-05
1.15963e-05
1.15997e-05
1.15156e-05
1.15044e-05
1.16188e-05
1.16449e-05
1.25541e-05
1.25727e-05
1.26357e-05
1.26462e-05
1.26775e-05
1.24775e-05
1.25381e-05
1.27594e-05
1.27961e-05
1.28858e-05
1.30515e-05
1.29628e-05
1.24382e-05
1.24047e-05
1.16548e-05
1.16925e-05
1.17467e-05
1.17115e-05
1.17977e-05
1.18403e-05
1.20013e-05
1.1952e-05
1.19116e-05
1.18863e-05
1.2049e-05
1.21118e-05
1.2321e-05
1.23685e-05
1.2181e-05
1.22357e-05
1.2295e-05
1.21409e-05
1.14857e-05
1.14665e-05
1.14341e-05
1.14431e-05
1.1446e-05
1.14763e-05
1.16145e-05
1.14215e-05
1.15316e-05
1.15167e-05
1.15427e-05
1.15518e-05
1.15668e-05
1.15848e-05
1.15932e-05
1.15033e-05
1.14906e-05
1.16027e-05
1.16282e-05
1.25991e-05
1.26104e-05
1.26964e-05
1.27263e-05
1.25253e-05
1.25712e-05
1.28164e-05
1.28525e-05
1.29406e-05
1.31272e-05
1.3033e-05
1.24808e-05
1.24065e-05
1.16412e-05
1.16893e-05
1.17435e-05
1.17048e-05
1.17831e-05
1.18332e-05
1.20165e-05
1.19643e-05
1.19272e-05
1.18742e-05
1.20646e-05
1.20965e-05
1.23573e-05
1.21933e-05
1.22472e-05
1.23114e-05
1.21642e-05
1.14694e-05
1.14531e-05
1.1423e-05
1.14288e-05
1.14341e-05
1.14513e-05
1.15932e-05
1.13945e-05
1.15182e-05
1.15062e-05
1.15395e-05
1.15558e-05
1.15641e-05
1.15736e-05
1.15775e-05
1.14922e-05
1.14792e-05
1.1593e-05
1.16132e-05
1.26359e-05
1.26632e-05
1.2704e-05
1.27453e-05
1.27605e-05
1.25722e-05
1.25246e-05
1.26193e-05
1.28467e-05
1.28529e-05
1.292e-05
1.30154e-05
1.32094e-05
1.3132e-05
1.31042e-05
1.24807e-05
1.24401e-05
1.16516e-05
1.16184e-05
1.16754e-05
1.17615e-05
1.17207e-05
1.17953e-05
1.18529e-05
1.18148e-05
1.20468e-05
1.19936e-05
1.19527e-05
1.19144e-05
1.18886e-05
1.21145e-05
1.23895e-05
1.22228e-05
1.22814e-05
1.23512e-05
1.21502e-05
1.1461e-05
1.14421e-05
1.14075e-05
1.14198e-05
1.14247e-05
1.14284e-05
1.14944e-05
1.13989e-05
1.16383e-05
1.15106e-05
1.15074e-05
1.14941e-05
1.15312e-05
1.15457e-05
1.15507e-05
1.15705e-05
1.14803e-05
1.14685e-05
1.15795e-05
1.15979e-05
1.26838e-05
1.2762e-05
1.27954e-05
1.28262e-05
1.26204e-05
1.25725e-05
1.26572e-05
1.29106e-05
1.29198e-05
1.29863e-05
1.30785e-05
1.32925e-05
1.32228e-05
1.31628e-05
1.25184e-05
1.2432e-05
1.16399e-05
1.16077e-05
1.16812e-05
1.17579e-05
1.17185e-05
1.17743e-05
1.18366e-05
1.18168e-05
1.20638e-05
1.19955e-05
1.19676e-05
1.19297e-05
1.1872e-05
1.20972e-05
1.23899e-05
1.22374e-05
1.22876e-05
1.23469e-05
1.21734e-05
1.14518e-05
1.14426e-05
1.1433e-05
1.14016e-05
1.14072e-05
1.14157e-05
1.14197e-05
1.14909e-05
1.13785e-05
1.16026e-05
1.14974e-05
1.15186e-05
1.14955e-05
1.14857e-05
1.15355e-05
1.15416e-05
1.15467e-05
1.15588e-05
1.14706e-05
1.14599e-05
1.15712e-05
1.15842e-05
1.27354e-05
1.27984e-05
1.28544e-05
1.28755e-05
1.26521e-05
1.2558e-05
1.26176e-05
1.27141e-05
1.29634e-05
1.29802e-05
1.30605e-05
1.31561e-05
1.32437e-05
1.25124e-05
1.24689e-05
1.16506e-05
1.16191e-05
1.15923e-05
1.16691e-05
1.17008e-05
1.17377e-05
1.17761e-05
1.18457e-05
1.17992e-05
1.20621e-05
1.20194e-05
1.19567e-05
1.19287e-05
1.1881e-05
1.21143e-05
1.24284e-05
1.22738e-05
1.22116e-05
1.2322e-05
1.23817e-05
1.21458e-05
1.14517e-05
1.14338e-05
1.14255e-05
1.1387e-05
1.14e-05
1.14137e-05
1.14053e-05
1.14184e-05
1.1429e-05
1.13765e-05
1.1591e-05
1.14892e-05
1.14946e-05
1.15135e-05
1.14867e-05
1.14739e-05
1.1529e-05
1.15318e-05
1.15383e-05
1.15532e-05
1.14603e-05
1.15591e-05
1.15735e-05
1.15813e-05
1.27915e-05
1.28683e-05
1.29068e-05
1.29451e-05
1.27073e-05
1.25906e-05
1.26388e-05
1.27615e-05
1.30366e-05
1.30482e-05
1.31284e-05
1.32353e-05
1.33078e-05
1.25526e-05
1.24606e-05
1.1637e-05
1.16099e-05
1.15794e-05
1.16759e-05
1.1695e-05
1.1731e-05
1.17657e-05
1.18394e-05
1.1796e-05
1.20471e-05
1.2092e-05
1.19996e-05
1.19732e-05
1.19054e-05
1.19531e-05
1.18573e-05
1.24452e-05
1.22973e-05
1.22303e-05
1.23321e-05
1.24177e-05
1.23614e-05
1.21566e-05
1.14436e-05
1.1426e-05
1.14351e-05
1.1379e-05
1.1386e-05
1.14062e-05
1.1401e-05
1.14122e-05
1.14621e-05
1.1346e-05
1.16129e-05
1.14796e-05
1.1503e-05
1.14842e-05
1.15197e-05
1.14777e-05
1.14704e-05
1.15228e-05
1.15277e-05
1.15426e-05
1.14529e-05
1.15546e-05
1.15621e-05
1.15694e-05
1.28471e-05
1.2908e-05
1.29806e-05
1.30004e-05
1.27542e-05
1.2691e-05
1.26355e-05
1.28243e-05
1.31037e-05
1.31229e-05
1.32129e-05
1.33084e-05
1.25774e-05
1.25024e-05
1.16204e-05
1.16442e-05
1.15952e-05
1.15686e-05
1.15815e-05
1.16649e-05
1.17084e-05
1.17462e-05
1.17775e-05
1.18152e-05
1.20647e-05
1.20942e-05
1.20126e-05
1.19065e-05
1.19658e-05
1.18595e-05
1.24853e-05
1.22778e-05
1.22196e-05
1.24354e-05
1.23847e-05
1.21905e-05
1.21228e-05
1.14433e-05
1.14192e-05
1.14287e-05
1.13675e-05
1.13793e-05
1.1401e-05
1.13941e-05
1.14043e-05
1.14125e-05
1.14291e-05
1.13553e-05
1.13509e-05
1.16053e-05
1.14774e-05
1.14708e-05
1.14975e-05
1.14807e-05
1.15117e-05
1.14696e-05
1.14622e-05
1.1513e-05
1.15201e-05
1.15198e-05
1.15334e-05
1.14545e-05
1.15439e-05
1.15601e-05
1.28657e-05
1.29789e-05
1.30425e-05
1.308e-05
1.28057e-05
1.27324e-05
1.26817e-05
1.28627e-05
1.31985e-05
1.32028e-05
1.32928e-05
1.26379e-05
1.25407e-05
1.16048e-05
1.16314e-05
1.1592e-05
1.15588e-05
1.15685e-05
1.16753e-05
1.16979e-05
1.17425e-05
1.17625e-05
1.18041e-05
1.20466e-05
1.19976e-05
1.18834e-05
1.19302e-05
1.19529e-05
1.18408e-05
1.25097e-05
1.23058e-05
1.22538e-05
1.24286e-05
1.24842e-05
1.23525e-05
1.21974e-05
1.21288e-05
1.14411e-05
1.14171e-05
1.14292e-05
1.14219e-05
1.13592e-05
1.1372e-05
1.13868e-05
1.13928e-05
1.13991e-05
1.14082e-05
1.14082e-05
1.13266e-05
1.13409e-05
1.14837e-05
1.16533e-05
1.14685e-05
1.14651e-05
1.14871e-05
1.15023e-05
1.1472e-05
1.14602e-05
1.14569e-05
1.15063e-05
1.15092e-05
1.15094e-05
1.15226e-05
1.15342e-05
1.14474e-05
1.15396e-05
1.1549e-05
1.29431e-05
1.30425e-05
1.29995e-05
1.3122e-05
1.31456e-05
1.27934e-05
1.27325e-05
1.26866e-05
1.29228e-05
1.32835e-05
1.2649e-05
1.25522e-05
1.16099e-05
1.16412e-05
1.15748e-05
1.15509e-05
1.15491e-05
1.15635e-05
1.15563e-05
1.16635e-05
1.17111e-05
1.1732e-05
1.17647e-05
1.18211e-05
1.17834e-05
1.2062e-05
1.20144e-05
1.18828e-05
1.19268e-05
1.19705e-05
1.18429e-05
1.22898e-05
1.22313e-05
1.24641e-05
1.25101e-05
1.23707e-05
1.21695e-05
1.21153e-05
1.1435e-05
1.14103e-05
1.14234e-05
1.14192e-05
1.13611e-05
1.13466e-05
1.13738e-05
1.13802e-05
1.13883e-05
1.14014e-05
1.13921e-05
1.13454e-05
1.13277e-05
1.15033e-05
1.16197e-05
1.14658e-05
1.14588e-05
1.14821e-05
1.1495e-05
1.14662e-05
1.14554e-05
1.14504e-05
1.14972e-05
1.15039e-05
1.15022e-05
1.15141e-05
1.15221e-05
1.14455e-05
1.15293e-05
1.2968e-05
1.31223e-05
1.30826e-05
1.31851e-05
1.32331e-05
1.28504e-05
1.27835e-05
1.27444e-05
1.29538e-05
1.25968e-05
1.27042e-05
1.15973e-05
1.16291e-05
1.15676e-05
1.15394e-05
1.15397e-05
1.15496e-05
1.15465e-05
1.16753e-05
1.1698e-05
1.17428e-05
1.18077e-05
1.17874e-05
1.20419e-05
1.20898e-05
1.19949e-05
1.18615e-05
1.19045e-05
1.19477e-05
1.18183e-05
1.23179e-05
1.22519e-05
1.2452e-05
1.25525e-05
1.24149e-05
1.23564e-05
1.21705e-05
1.21381e-05
1.14347e-05
1.14067e-05
1.14237e-05
1.14148e-05
1.13556e-05
1.13386e-05
1.13676e-05
1.13763e-05
1.13807e-05
1.13976e-05
1.13874e-05
1.13203e-05
1.13141e-05
1.14337e-05
1.16374e-05
1.14593e-05
1.14526e-05
1.14873e-05
1.14753e-05
1.1459e-05
1.14685e-05
1.14494e-05
1.14446e-05
1.14904e-05
1.14937e-05
1.14918e-05
1.15047e-05
1.15138e-05
1.15188e-05
1.14398e-05
1.15301e-05
1.30419e-05
1.31842e-05
1.31468e-05
1.3108e-05
1.32531e-05
1.32911e-05
1.2922e-05
1.28386e-05
1.27799e-05
1.30352e-05
1.26058e-05
1.27053e-05
1.27545e-05
1.16072e-05
1.15804e-05
1.16397e-05
1.15533e-05
1.15315e-05
1.1537e-05
1.15359e-05
1.16623e-05
1.17095e-05
1.17332e-05
1.17688e-05
1.2051e-05
1.20801e-05
1.20077e-05
1.18628e-05
1.19023e-05
1.19482e-05
1.18157e-05
1.22961e-05
1.22371e-05
1.24973e-05
1.25956e-05
1.25434e-05
1.24238e-05
1.23836e-05
1.22006e-05
1.21291e-05
1.14292e-05
1.14007e-05
1.14093e-05
1.14187e-05
1.14146e-05
1.135e-05
1.13616e-05
1.13273e-05
1.1341e-05
1.13676e-05
1.13778e-05
1.13928e-05
1.13816e-05
1.13884e-05
1.13279e-05
1.13124e-05
1.14206e-05
1.16225e-05
1.14558e-05
1.14531e-05
1.14476e-05
1.14809e-05
1.14745e-05
1.14547e-05
1.14621e-05
1.14441e-05
1.14395e-05
1.14821e-05
1.14872e-05
1.14867e-05
1.14993e-05
1.15035e-05
1.15095e-05
1.15192e-05
1.32513e-05
1.32332e-05
1.32006e-05
1.33015e-05
1.29756e-05
1.28932e-05
1.2856e-05
1.31044e-05
1.26668e-05
1.2757e-05
1.28038e-05
1.15985e-05
1.15664e-05
1.163e-05
1.15525e-05
1.15395e-05
1.15184e-05
1.15229e-05
1.15239e-05
1.16729e-05
1.17094e-05
1.17474e-05
1.1772e-05
1.20395e-05
1.20982e-05
1.19983e-05
1.18382e-05
1.18834e-05
1.19245e-05
1.19717e-05
1.17931e-05
1.23203e-05
1.22659e-05
1.24991e-05
1.26351e-05
1.25873e-05
1.24596e-05
1.23661e-05
1.21873e-05
1.21532e-05
1.14272e-05
1.1399e-05
1.14068e-05
1.14186e-05
1.14096e-05
1.13516e-05
1.13564e-05
1.13236e-05
1.13362e-05
1.13655e-05
1.13718e-05
1.13912e-05
1.13804e-05
1.13843e-05
1.12861e-05
1.12999e-05
1.15054e-05
1.13354e-05
1.17009e-05
1.14493e-05
1.14481e-05
1.14429e-05
1.14685e-05
1.14499e-05
1.14565e-05
1.14622e-05
1.14385e-05
1.14349e-05
1.14762e-05
1.14788e-05
1.1492e-05
1.14797e-05
1.14954e-05
1.14991e-05
1.15104e-05
1.32904e-05
1.32852e-05
1.3195e-05
1.305e-05
1.29594e-05
1.29017e-05
1.31064e-05
1.26775e-05
1.27693e-05
1.2865e-05
1.15833e-05
1.16112e-05
1.15677e-05
1.16405e-05
1.15412e-05
1.15244e-05
1.15143e-05
1.15161e-05
1.151e-05
1.1658e-05
1.1693e-05
1.17295e-05
1.17513e-05
1.2059e-05
1.20885e-05
1.20202e-05
1.183e-05
1.18914e-05
1.19188e-05
1.19656e-05
1.17876e-05
1.23064e-05
1.2249e-05
1.2542e-05
1.26266e-05
1.26084e-05
1.24616e-05
1.2396e-05
1.22117e-05
1.21397e-05
1.14307e-05
1.14231e-05
1.14027e-05
1.13943e-05
1.14154e-05
1.14079e-05
1.13463e-05
1.13526e-05
1.13296e-05
1.13187e-05
1.13406e-05
1.13607e-05
1.13691e-05
1.13857e-05
1.13765e-05
1.12834e-05
1.13013e-05
1.15155e-05
1.13074e-05
1.15359e-05
1.14464e-05
1.14433e-05
1.14381e-05
1.14691e-05
1.14465e-05
1.14517e-05
1.14565e-05
1.14342e-05
1.14715e-05
1.1485e-05
1.14719e-05
1.14795e-05
1.14839e-05
1.14938e-05
1.14996e-05
1.32883e-05
1.30822e-05
1.30124e-05
1.29774e-05
1.32013e-05
1.27193e-05
1.28279e-05
1.29115e-05
1.15792e-05
1.1605e-05
1.15549e-05
1.16299e-05
1.15422e-05
1.15251e-05
1.15109e-05
1.1504e-05
1.15031e-05
1.14997e-05
1.16601e-05
1.16944e-05
1.17317e-05
1.17482e-05
1.20484e-05
1.21088e-05
1.20127e-05
1.18061e-05
1.18494e-05
1.18761e-05
1.19388e-05
1.1987e-05
1.17671e-05
1.23375e-05
1.22726e-05
1.25063e-05
1.25826e-05
1.26756e-05
1.26577e-05
1.24387e-05
1.23801e-05
1.21946e-05
1.21602e-05
1.1427e-05
1.14234e-05
1.13994e-05
1.1395e-05
1.14164e-05
1.14114e-05
1.14037e-05
1.13454e-05
1.13555e-05
1.1326e-05
1.13123e-05
1.13207e-05
1.13355e-05
1.13611e-05
1.13649e-05
1.13717e-05
1.13842e-05
1.13769e-05
1.12695e-05
1.12949e-05
1.13983e-05
1.12784e-05
1.18979e-05
1.14425e-05
1.14385e-05
1.14338e-05
1.14641e-05
1.14427e-05
1.14474e-05
1.14516e-05
1.14576e-05
1.14298e-05
1.14651e-05
1.14789e-05
1.14663e-05
1.14726e-05
1.148e-05
1.14862e-05
1.14953e-05
1.31488e-05
1.30221e-05
1.30188e-05
1.32143e-05
1.28272e-05
1.28911e-05
1.29887e-05
1.15606e-05
1.15893e-05
1.1615e-05
1.16389e-05
1.15281e-05
1.15178e-05
1.14961e-05
1.14933e-05
1.14925e-05
1.14877e-05
1.16761e-05
1.17122e-05
1.17296e-05
1.20675e-05
1.20958e-05
1.20327e-05
1.18006e-05
1.18397e-05
1.1891e-05
1.1937e-05
1.19851e-05
1.17664e-05
1.2314e-05
1.22531e-05
1.25095e-05
1.26114e-05
1.26939e-05
1.26657e-05
1.24617e-05
1.24111e-05
1.2216e-05
1.21439e-05
1.14262e-05
1.14199e-05
1.13994e-05
1.13923e-05
1.14131e-05
1.14103e-05
1.1404e-05
1.13445e-05
1.13543e-05
1.13294e-05
1.13108e-05
1.13155e-05
1.13355e-05
1.13574e-05
1.13633e-05
1.1369e-05
1.13889e-05
1.13811e-05
1.13731e-05
1.12676e-05
1.12833e-05
1.12981e-05
1.14069e-05
1.12476e-05
9.89433e-06
1.14389e-05
1.14361e-05
1.14343e-05
1.14296e-05
1.14397e-05
1.14436e-05
1.14466e-05
1.14554e-05
1.14595e-05
1.14706e-05
1.14672e-05
1.14602e-05
1.14737e-05
1.14799e-05
1.14844e-05
1.31687e-05
1.31054e-05
1.30947e-05
1.32969e-05
1.28002e-05
1.2905e-05
1.29498e-05
1.30416e-05
1.15537e-05
1.1584e-05
1.15961e-05
1.16371e-05
1.1513e-05
1.15047e-05
1.14851e-05
1.14926e-05
1.14837e-05
1.14796e-05
1.14771e-05
1.16747e-05
1.17112e-05
1.17314e-05
1.2056e-05
1.21133e-05
1.20324e-05
1.18199e-05
1.17864e-05
1.18567e-05
1.19169e-05
1.18796e-05
1.19623e-05
1.20092e-05
1.17524e-05
1.23377e-05
1.22746e-05
1.25499e-05
1.25977e-05
1.27449e-05
1.27104e-05
1.24588e-05
1.23863e-05
1.21967e-05
1.21622e-05
1.14223e-05
1.1419e-05
1.13958e-05
1.13925e-05
1.14115e-05
1.14076e-05
1.14016e-05
1.13409e-05
1.13502e-05
1.13266e-05
1.13058e-05
1.13163e-05
1.13342e-05
1.13585e-05
1.13654e-05
1.13696e-05
1.13874e-05
1.13835e-05
1.13736e-05
1.12506e-05
1.12812e-05
1.12939e-05
1.12792e-05
1.13001e-05
1.27469e-05
1.14354e-05
1.14324e-05
1.14309e-05
1.14264e-05
1.14401e-05
1.14359e-05
1.14428e-05
1.14468e-05
1.1451e-05
1.14566e-05
1.14644e-05
1.14618e-05
1.14582e-05
1.14667e-05
1.1474e-05
1.14768e-05
1.32462e-05
1.31289e-05
1.31416e-05
1.28509e-05
1.29417e-05
1.30201e-05
1.31213e-05
1.15349e-05
1.15666e-05
1.15989e-05
1.16215e-05
1.16572e-05
1.15167e-05
1.14953e-05
1.14929e-05
1.14729e-05
1.14794e-05
1.14747e-05
1.14715e-05
1.14672e-05
1.16934e-05
1.17182e-05
1.20727e-05
1.20976e-05
1.20548e-05
1.18178e-05
1.17967e-05
1.18544e-05
1.19214e-05
1.18936e-05
1.19623e-05
1.20114e-05
1.17652e-05
1.23156e-05
1.22527e-05
1.25552e-05
1.26464e-05
1.27444e-05
1.25039e-05
1.24155e-05
1.22158e-05
1.21435e-05
1.14223e-05
1.14156e-05
1.13978e-05
1.13889e-05
1.14076e-05
1.14127e-05
1.14058e-05
1.14026e-05
1.13417e-05
1.13488e-05
1.13228e-05
1.13297e-05
1.13051e-05
1.13143e-05
1.13377e-05
1.13575e-05
1.13642e-05
1.13664e-05
1.13831e-05
1.13682e-05
1.13771e-05
1.12535e-05
1.12865e-05
1.12725e-05
1.12963e-05
1.13345e-05
1.12906e-05
1.20352e-05
1.14324e-05
1.14299e-05
1.14273e-05
1.14373e-05
1.14335e-05
1.14391e-05
1.14429e-05
1.1448e-05
1.14504e-05
1.14561e-05
1.14554e-05
1.14535e-05
1.14621e-05
1.14688e-05
1.14697e-05
1.3289e-05
1.3215e-05
1.32233e-05
1.29139e-05
1.28104e-05
1.30098e-05
1.30868e-05
1.31813e-05
1.15272e-05
1.15585e-05
1.15895e-05
1.16292e-05
1.16611e-05
1.14946e-05
1.14811e-05
1.14805e-05
1.14698e-05
1.1465e-05
1.14684e-05
1.14619e-05
1.14575e-05
1.16965e-05
1.17305e-05
1.21121e-05
1.20662e-05
1.18341e-05
1.17903e-05
1.18752e-05
1.19451e-05
1.19141e-05
1.18922e-05
1.19881e-05
1.20412e-05
1.1756e-05
1.2339e-05
1.22721e-05
1.26015e-05
1.26972e-05
1.27374e-05
1.25003e-05
1.24616e-05
1.23828e-05
1.21931e-05
1.21595e-05
1.14201e-05
1.14146e-05
1.13946e-05
1.13899e-05
1.14067e-05
1.14103e-05
1.14008e-05
1.13454e-05
1.13522e-05
1.13216e-05
1.13289e-05
1.13024e-05
1.13105e-05
1.13176e-05
1.13398e-05
1.13553e-05
1.13615e-05
1.13868e-05
1.13807e-05
1.13692e-05
1.1377e-05
1.12429e-05
1.12841e-05
1.12713e-05
1.12949e-05
1.13875e-05
1.12637e-05
1.02306e-05
1.14299e-05
1.14267e-05
1.14249e-05
1.14346e-05
1.14366e-05
1.14311e-05
1.14395e-05
1.14433e-05
1.14492e-05
1.14525e-05
1.14496e-05
1.14492e-05
1.14563e-05
1.14637e-05
1.14628e-05
1.32936e-05
1.29589e-05
1.28441e-05
1.30675e-05
1.30244e-05
1.31689e-05
1.32537e-05
1.15079e-05
1.15424e-05
1.15719e-05
1.16045e-05
1.16543e-05
1.16275e-05
1.16844e-05
1.1488e-05
1.14793e-05
1.14659e-05
1.14673e-05
1.14579e-05
1.14549e-05
1.14605e-05
1.14632e-05
1.14542e-05
1.1459e-05
1.14515e-05
1.17239e-05
1.20959e-05
1.18354e-05
1.18145e-05
1.18529e-05
1.19486e-05
1.19311e-05
1.19129e-05
1.19947e-05
1.20499e-05
1.17778e-05
1.23113e-05
1.22395e-05
1.26153e-05
1.27192e-05
1.27951e-05
1.25497e-05
1.24718e-05
1.24008e-05
1.2206e-05
1.21503e-05
1.14222e-05
1.14174e-05
1.14125e-05
1.13948e-05
1.14054e-05
1.14086e-05
1.14101e-05
1.14026e-05
1.13983e-05
1.13476e-05
1.13511e-05
1.13241e-05
1.13338e-05
1.13056e-05
1.131e-05
1.13177e-05
1.13456e-05
1.13386e-05
1.1356e-05
1.1359e-05
1.13871e-05
1.13815e-05
1.13748e-05
1.13675e-05
1.13794e-05
1.12533e-05
1.12393e-05
1.12888e-05
1.12779e-05
1.12669e-05
1.12993e-05
1.13733e-05
1.12646e-05
1.0902e-05
1.28676e-05
1.1427e-05
1.14277e-05
1.14243e-05
1.14326e-05
1.14335e-05
1.14286e-05
1.14294e-05
1.14361e-05
1.14415e-05
1.14447e-05
1.14469e-05
1.14449e-05
1.14449e-05
1.1454e-05
1.14575e-05
1.14565e-05
1.29621e-05
1.29085e-05
1.31451e-05
1.30872e-05
1.32351e-05
1.32989e-05
1.15121e-05
1.15484e-05
1.15681e-05
1.1612e-05
1.16752e-05
1.16493e-05
1.16968e-05
1.14694e-05
1.14628e-05
1.14559e-05
1.14564e-05
1.14509e-05
1.14578e-05
1.1447e-05
1.14513e-05
1.14458e-05
1.17489e-05
1.21159e-05
1.18481e-05
1.18022e-05
1.19714e-05
1.20226e-05
1.2082e-05
1.17705e-05
1.23303e-05
1.2247e-05
1.26749e-05
1.25942e-05
1.27721e-05
1.28141e-05
1.25208e-05
1.24487e-05
1.23747e-05
1.21743e-05
1.14206e-05
1.14182e-05
1.14143e-05
1.13933e-05
1.14065e-05
1.14077e-05
1.14095e-05
1.14013e-05
1.1399e-05
1.13528e-05
1.13247e-05
1.13339e-05
1.13045e-05
1.13133e-05
1.13215e-05
1.13463e-05
1.13415e-05
1.13616e-05
1.13844e-05
1.13907e-05
1.13757e-05
1.13698e-05
1.13821e-05
1.12501e-05
1.12237e-05
1.12878e-05
1.12744e-05
1.12682e-05
1.13013e-05
1.12265e-05
1.0939e-05
1.11375e-05
1.14252e-05
1.14255e-05
1.1422e-05
1.14303e-05
1.14332e-05
1.14269e-05
1.14274e-05
1.14349e-05
1.14376e-05
1.14426e-05
1.14457e-05
1.14435e-05
1.1441e-05
1.1441e-05
1.14492e-05
1.14512e-05
1.3039e-05
1.29311e-05
1.32265e-05
1.31103e-05
1.32797e-05
1.15404e-05
1.15017e-05
1.15883e-05
1.16379e-05
1.16765e-05
1.16998e-05
1.16584e-05
1.14527e-05
1.1475e-05
1.14501e-05
1.14444e-05
1.14458e-05
1.14415e-05
1.1452e-05
1.1446e-05
1.14393e-05
1.14474e-05
1.14379e-05
1.14403e-05
1.17377e-05
1.21126e-05
1.23215e-05
1.22118e-05
1.22862e-05
1.26797e-05
1.26275e-05
1.27915e-05
1.28741e-05
1.2547e-05
1.2477e-05
1.23956e-05
1.21775e-05
1.14202e-05
1.14168e-05
1.14122e-05
1.13951e-05
1.14053e-05
1.14077e-05
1.14029e-05
1.13976e-05
1.13541e-05
1.13304e-05
1.13378e-05
1.13093e-05
1.13154e-05
1.13262e-05
1.13508e-05
1.13454e-05
1.13416e-05
1.13634e-05
1.13858e-05
1.13914e-05
1.13794e-05
1.13733e-05
1.13684e-05
1.13825e-05
1.12568e-05
1.12347e-05
1.12934e-05
1.12833e-05
1.12765e-05
1.12654e-05
1.12999e-05
1.13079e-05
1.12285e-05
1.06773e-05
1.11284e-05
1.29e-05
1.14227e-05
1.14241e-05
1.14289e-05
1.14304e-05
1.14251e-05
1.14261e-05
1.1432e-05
1.14366e-05
1.14393e-05
1.14422e-05
1.14385e-05
1.14375e-05
1.14378e-05
1.14453e-05
1.14461e-05
1.30473e-05
1.29937e-05
1.32857e-05
1.32001e-05
1.15712e-05
1.1529e-05
1.16139e-05
1.16791e-05
1.17133e-05
1.16936e-05
1.14375e-05
1.14642e-05
1.14356e-05
1.14397e-05
1.14325e-05
1.14387e-05
1.14368e-05
1.14412e-05
1.14368e-05
1.14418e-05
1.14357e-05
1.17301e-05
1.2145e-05
1.23565e-05
1.27245e-05
1.26264e-05
1.28597e-05
1.27791e-05
1.25258e-05
1.26005e-05
1.24403e-05
1.14187e-05
1.14168e-05
1.14125e-05
1.13936e-05
1.14047e-05
1.14068e-05
1.14023e-05
1.13994e-05
1.13544e-05
1.1361e-05
1.13317e-05
1.13392e-05
1.13146e-05
1.13237e-05
1.1327e-05
1.13533e-05
1.13492e-05
1.13464e-05
1.13894e-05
1.13829e-05
1.1376e-05
1.13712e-05
1.13873e-05
1.12548e-05
1.1231e-05
1.12967e-05
1.12856e-05
1.12746e-05
1.12684e-05
1.13072e-05
1.1316e-05
1.12238e-05
1.04497e-05
1.11626e-05
1.15561e-05
1.14209e-05
1.14222e-05
1.14269e-05
1.14297e-05
1.14238e-05
1.14244e-05
1.14318e-05
1.1434e-05
1.14368e-05
1.14383e-05
1.14389e-05
1.14343e-05
1.14344e-05
1.14359e-05
1.14402e-05
1.14411e-05
1.31202e-05
1.30167e-05
1.32023e-05
1.15739e-05
1.16107e-05
1.15566e-05
1.16712e-05
1.17099e-05
1.17105e-05
1.14376e-05
1.14293e-05
1.1506e-05
1.14275e-05
1.14299e-05
1.14258e-05
1.14304e-05
1.14292e-05
1.14367e-05
1.14329e-05
1.14373e-05
1.14301e-05
1.26851e-05
1.29078e-05
1.2838e-05
1.25603e-05
1.26321e-05
1.24605e-05
1.14189e-05
1.14162e-05
1.1415e-05
1.14118e-05
1.13965e-05
1.14058e-05
1.14052e-05
1.14095e-05
1.14036e-05
1.13997e-05
1.13613e-05
1.13645e-05
1.13352e-05
1.13447e-05
1.13222e-05
1.13272e-05
1.13333e-05
1.13595e-05
1.13512e-05
1.13492e-05
1.13915e-05
1.13814e-05
1.13872e-05
1.13751e-05
1.13693e-05
1.1391e-05
1.12502e-05
1.12614e-05
1.12403e-05
1.12213e-05
1.13048e-05
1.12922e-05
1.12794e-05
1.12675e-05
1.1315e-05
1.13239e-05
1.12173e-05
1.08693e-05
1.06559e-05
1.12015e-05
1.28711e-05
1.14207e-05
1.14218e-05
1.14256e-05
1.1428e-05
1.14226e-05
1.14237e-05
1.14293e-05
1.14343e-05
1.14358e-05
1.14362e-05
1.14314e-05
1.14324e-05
1.14331e-05
1.14382e-05
1.30922e-05
1.29712e-05
1.32862e-05
1.164e-05
1.16574e-05
1.16353e-05
1.15482e-05
1.16856e-05
1.14372e-05
1.1418e-05
1.14772e-05
1.14141e-05
1.14257e-05
1.14177e-05
1.14259e-05
1.14263e-05
1.1433e-05
1.14341e-05
1.14282e-05
1.14331e-05
1.14262e-05
1.27083e-05
1.29043e-05
1.28194e-05
1.25141e-05
1.26088e-05
1.26777e-05
1.14175e-05
1.1415e-05
1.14135e-05
1.13954e-05
1.14071e-05
1.14068e-05
1.14047e-05
1.14091e-05
1.14019e-05
1.13635e-05
1.13378e-05
1.13485e-05
1.13331e-05
1.13364e-05
1.13641e-05
1.13595e-05
1.13577e-05
1.13847e-05
1.13902e-05
1.13802e-05
1.1373e-05
1.13946e-05
1.12523e-05
1.12583e-05
1.12352e-05
1.12246e-05
1.1311e-05
1.12987e-05
1.12829e-05
1.12754e-05
1.13228e-05
1.1332e-05
1.12164e-05
1.12095e-05
1.09478e-05
9.81088e-06
1.12093e-05
1.19718e-05
1.14199e-05
1.14212e-05
1.14244e-05
1.14264e-05
1.14275e-05
1.14223e-05
1.14232e-05
1.14302e-05
1.14325e-05
1.14332e-05
1.14331e-05
1.14288e-05
1.14309e-05
1.14318e-05
1.14295e-05
1.14316e-05
1.14336e-05
1.31454e-05
1.30056e-05
1.32326e-05
1.16687e-05
1.16561e-05
1.16188e-05
1.14217e-05
1.14089e-05
1.15125e-05
1.14062e-05
1.14179e-05
1.14134e-05
1.14101e-05
1.1419e-05
1.14204e-05
1.14299e-05
1.14289e-05
1.1424e-05
1.14291e-05
1.14205e-05
1.27595e-05
1.29585e-05
1.28757e-05
1.264e-05
1.26929e-05
1.14173e-05
1.14154e-05
1.14164e-05
1.14137e-05
1.14151e-05
1.13979e-05
1.14087e-05
1.14061e-05