/*--------------------------------*- C++ -*----------------------------------*\
| =========                 |                                                 |
| \\      /  F ield         | OpenFOAM: The Open Source CFD Toolbox           |
|  \\    /   O peration     | Version:  v2012                                 |
|   \\  /    A nd           | Website:  www.openfoam.com                      |
|    \\/     M anipulation  |                                                 |
\*---------------------------------------------------------------------------*/
FoamFile
{
    version     2.0;
    format      ascii;
    class       volScalarField;
    location    "0.3";
    object      omega;
}
// * * * * * * * * * * * * * * * * * * * * * * * * * * * * * * * * * * * * * //

dimensions      [0 0 -1 0 0 0 0];


internalField   nonuniform List<scalar> 
13611
(
48.58
48.1278
50.0178
49.0208
47.1001
51.1127
50.2229
48.665
46.0356
46.8125
52.5098
51.3987
47.5944
49.726
44.9944
46.0217
52.6452
53.8969
51.6909
46.5879
48.975
51.0465
44.0276
45.0411
45.8314
54.1219
55.4634
53.1774
46.658
47.7629
49.7346
51.7348
43.0356
44.3556
44.7393
54.3172
55.5177
57.0598
53.1859
45.5229
47.4827
49.5151
50.8894
51.4786
42.819
42.1415
43.5484
44.5637
55.8426
57.043
58.8019
54.2759
45.4144
48.421
46.3952
50.5435
51.6511
52.8307
42.0409
41.306
42.6789
43.5616
57.2697
55.7453
58.494
60.7348
54.0157
44.3748
48.254
46.18
50.5769
52.7005
41.9821
41.2921
40.4618
42.665
43.4827
58.7677
57.0301
60.1007
62.7235
55.2576
44.3393
47.079
49.1923
45.2837
51.6293
53.92
41.202
40.6332
39.7276
41.7061
42.4164
59.2138
56.5947
58.3545
61.7769
63.207
64.7468
55.453
43.7314
46.6073
48.8899
44.9004
51.0652
52.5557
53.8078
41.0134
40.6006
39.823
38.8665
41.5932
42.1394
60.9996
57.8476
59.1056
62.5322
65.4654
67.0415
56.9167
43.0175
44.0336
45.5284
47.3425
48.3686
50.157
51.8877
55.3025
40.0887
39.8359
39.448
38.3733
40.7813
41.517
60.6113
58.4719
64.3518
67.3438
65.6538
69.2771
56.9536
42.4642
43.2763
45.4886
46.4392
49.0902
50.2529
52.8814
55.5075
39.9813
39.5349
38.7207
37.6804
40.3204
40.7234
41.7188
62.1012
60.1137
65.3013
69.5379
67.7328
71.8865
58.6761
42.5196
43.5482
44.6285
46.8632
48.235
51.2448
54.246
52.393
57.1788
39.3994
38.7072
38.332
37.2908
37.0553
39.5375
40.0986
41.2737
64.3745
61.5845
60.3073
67.6959
71.6472
69.498
74.7064
58.8372
41.6233
42.9882
44.579
46.5267
48.692
50.8234
54.2965
53.1153
57.1312
38.6504
38.2474
37.6176
36.6195
36.4404
39.0388
39.3446
40.3993
66.1333
63.1648
61.9949
69.5814
73.9125
71.6968
77.3842
60.4917
41.4555
43.4605
42.2008
45.4639
47.4021
48.4323
49.9587
52.0194
55.5996
58.8698
38.1607
37.41
37.1322
36.2066
36.1683
35.8241
38.3761
38.6676
40.06
65.0389
68.4556
62.9706
69.6043
72.2883
76.325
80.0185
77.9445
62.0484
60.4248
40.6776
43.1124
41.5212
45.3447
47.1044
49.2411
50.3114
52.5779
55.8647
58.9958
37.4431
37.0354
36.4194
35.551
35.5023
35.359
37.7325
38.6052
37.9263
39.2919
66.3549
70.0522
65.239
72.3985
74.8766
77.9174
83.0735
80.9486
63.268
61.9715
40.7739
42.3673
43.8982
41.607
46.1792
44.6254
47.9482
49.1574
51.3888
53.9784
57.6211
55.1809
60.7944
37.2331
36.2553
35.9377
35.1986
35.1385
34.7381
37.9459
37.402
39.3207
68.9022
72.5693
66.4132
74.564
77.7046
81.3914
86.1835
65.0912
62.8583
40.1128
42.5606
43.3047
40.8593
45.3489
44.5946
47.7663
50.1508
51.3733
53.7911
57.5636
56.1404
60.4896
62.4709
36.6762
35.8144
35.3619
34.5411
34.5344
34.3028
37.4439
37.615
36.7598
38.7368
70.5588
75.0008
68.7511
77.19
80.5966
84.4422
87.6115
88.9919
66.0277
64.9506
40.1033
41.8588
43.6073
40.6025
45.7407
48.8604
46.9081
49.9334
52.4978
54.8657
58.8551
56.0392
61.9902
64.0795
36.1576
36.3763
35.2741
34.6818
34.2237
34.2913
33.687
36.9313
36.9983
38.0235
36.5179
38.8951
73.1801
75.3055
77.7189
69.6091
79.7021
83.3957
85.3819
91.0902
93.5299
68.3204
65.9763
39.594
41.811
41.082
43.2995
39.8075
44.9928
48.9219
47.2132
50.9469
52.0241
55.0432
58.6529
57.2894
61.8097
63.9566
35.7101
35.7819
34.6524
35.2668
33.6076
33.7113
33.1889
33.3363
36.5468
37.4458
35.9863
38.4054
73.733
78.3329
80.5986
72.3671
82.3072
84.9866
89.3037
92.4683
93.6917
97.8515
69.7051
67.9499
40.9026
42.4913
40.5676
44.0742
39.4028
45.3789
50.0334
48.207
46.4009
50.9831
52.9199
54.1789
56.5134
60.0164
63.3867
65.8886
35.2521
34.1308
34.786
33.365
33.3619
32.6242
32.8262
35.9436
36.7859
37.6478
35.3877
38.6392
76.8456
81.2081
83.3478
74.0818
88.1962
92.4474
96.5576
97.899
103.026
72.2236
68.6997
40.9052
42.6368
39.7899
43.4416
44.9112
49.8674
48.6352
46.4171
52.0142
54.8455
57.3051
59.0765
65.2889
63.3186
67.9508
34.7028
33.5994
34.2684
32.7832
32.7912
32.4163
32.5296
35.4688
36.192
37.1852
34.8011
38.1937
78.8452
84.2117
86.8327
77.0222
91.2429
96.0052
98.9726
102.211
108.855
73.1626
71.3619
39.9454
41.746
39.4213
43.8899
45.4046
50.7204
48.3553
47.2623
52.5566
54.0274
56.4082
60.0779
66.8833
65.4819
62.0368
69.681
34.2236
33.0641
33.7585
32.4906
32.6658
32.0175
32.1027
34.8313
35.6112
36.0757
36.5942
37.5122
34.2828
38.5894
82.1239
86.5887
85.7297
90.3102
78.6903
95.8746
98.1971
103.195
106.704
115.175
76.2668
72.1598
39.5758
41.7566
43.4363
44.9837
50.5339
51.8646
49.3365
46.7792
54.7362
57.1962
58.894
69.1828
66.5159
62.829
33.7011
33.1903
31.9665
32.1561
31.6303
31.7097
34.4521
35.1892
35.556
36.22
36.9574
33.7878
37.9735
83.6882
84.3068
90.2182
89.9945
93.6725
82.1725
98.9801
103.277
105.246
111.9
122.466
115.469
77.3687
74.6491
38.9301
40.2122
40.9672
42.6714
44.0522
45.6605
51.4999
52.5607
48.8286
47.5128
53.8277
56.2767
59.5715
71.4127
64.7451
68.6213
61.3629
33.2539
32.7109
31.8007
31.6023
31.9228
31.2268
31.2362
31.2651
34.0004
34.6826
35.1505
35.6254
36.4101
36.7726
33.6359
33.3318
37.2258
38.2226
87.1916
87.7633
93.3555
93.2875
97.4212
84.5883
104.433
106.522
110.83
115.132
130.825
122.816
80.7161
75.1887
38.9447
39.5161
41.072
42.6801
43.4679
45.1733
52.0303
49.72
47.1309
54.5102
57.0266
58.6836
70.5568
74.0428
64.9115
68.5111
61.7251
32.7347
32.2147
31.3241
31.0689
31.4125
30.7799
30.8057
30.9193
33.6495
34.471
34.7231
35.3162
36.0259
36.158
33.2584
32.9343
36.8932
37.8749
90.0225
91.6374
96.9148
97.9047
100.655
83.854
88.751
108.32
112.174
121.466
140.571
130.041
80.798
78.364
38.2476
39.7029
41.8832
40.4549
44.0204
45.8811
53.6149
51.1278
49.1702
47.9731
56.1188
59.5669
72.5258
75.7768
63.6251
66.9836
70.803
61.2437
32.3925
31.825
30.9456
31.1222
31.1807
30.438
30.4043
30.5334
33.7241
33.2864
34.0826
34.3651
34.8981
35.5833
35.9158
32.9006
32.5349
36.2831
37.2456
93.8428
94.8741
102.477
105.191
87.5908
91.4492
114.074
117.916
127.442
150.262
138.43
84.0539
78.5152
37.7491
39.5797
41.7509
40.191
43.3984
45.5619
54.387
51.7232
49.9021
47.4176
56.9455
58.7145
75.0235
64.3548
67.6937
71.8901
62.5935
31.9182
31.4137
30.5383
30.6227
30.7745
29.97
29.9583
30.0754
33.2988
32.9689
33.9486
34.4992
34.7929
35.1574
35.3097
32.5811
32.21
35.9217
36.6932
96.9673
99.5439
103.256
107.066
108.493
91.4706
87.5003
95.5781
117.175
117.815
125.292
136.266
161.351
151.114
147.399
84.0877
80.9934
38.1336
36.8876
39.0427
42.4877
40.8229
43.912
46.446
44.7543
55.9909
53.2127
51.1509
49.2973
48.0765
59.7061
77.2984
66.156
69.909
74.6243
61.7744
31.6692
31.0642
30.1124
30.3467
30.4578
30.581
29.72
29.7429
29.5659
33.0509
32.9883
32.6249
33.6667
34.1339
34.3113
35.0467
32.2399
31.8915
35.4013
36.1131
101.347
108.837
112.065
115.159
95.5306
91.4385
98.9061
124.151
125.179
132.865
143.948
173.728
163.793
154.976
87.06
80.4144
37.6951
36.4845
39.2526
42.3346
40.7268
43.0149
45.7185
44.8456
56.892
53.3035
51.8827
50.0269
47.3234
58.7458
77.3439
67.0552
70.3094
74.3061
63.1335
31.3825
31.0813
30.752
29.7979
29.9117
30.1339
30.2717
29.3534
29.3254
29.2962
32.6619
33.2775
32.6266
32.3789
33.7967
33.9945
34.1744
34.6078
31.9514
31.6268
35.0851
35.5936
106.16
112.419
118.149
120.334
98.1985
90.2814
95.2844
104.137
130.017
132.022
141.882
154.183
166.568
86.6097
83.1964
38.0843
36.9086
35.904
38.7928
40.0255
41.501
43.0928
46.1204
44.0859
56.8004
54.5297
51.3527
49.9825
47.7314
59.7001
80.1661
69.4029
65.4547
72.6228
76.7654
61.5099
31.3676
30.7688
30.4821
29.3567
29.6275
30.059
29.7713
30.2283
28.9579
28.9344
28.9318
32.4279
32.5751
33.1162
32.3849
32.0349
33.5829
33.6694
33.8864
34.4075
31.6422
34.6315
35.1795
35.4838
111.687
119.751
123.806
128.08
103.357
93.0122
97.2183
108.613
138.777
140.172
150.588
165.24
176.097
89.8371
82.5699
37.5804
36.5665
35.4163
39.0521
39.7986
41.2343
42.6598
45.8421
43.9438
55.9973
58.454
53.513
52.168
48.8708
51.1697
46.6393
81.4062
70.9187
66.5959
73.2949
79.3678
75.305
62.1362
31.0938
30.4914
30.7996
29.0279
29.1681
29.7882
29.6091
29.9947
28.6714
28.5
28.6024
32.1465
32.8068
32.2705
33.2955
32.1089
31.9148
33.3858
33.5423
34.0327
31.4042
34.4777
34.7585
35.0373
117.32
123.972
132.254
134.482
107.782
101.946
96.9122
114.968
147.163
149.742
162.175
176.216
91.9217
85.8479
36.9564
37.8516
36.0148
35.0076
35.495
38.6369
40.3232
41.8516
43.1537
44.768
56.9386
58.5739
54.1769
48.9226
51.8003
46.7424
84.499
69.6601
65.9339
80.654
76.9212
64.1648
60.1743
31.085
30.2359
30.5618
28.6514
28.9216
29.6054
29.3678
29.7157
29.9951
28.3404
28.2369
28.3797
28.205
32.08
31.8798
32.6394
32.1586
33.0511
31.8527
31.6552
33.0874
33.3038
33.2985
33.7333
31.4303
34.1048
34.6885
119.254
132.026
139.592
144.305
112.889
105.803
101.033
118.862
159.982
160.47
173.779
97.1776
88.9149
36.3761
37.3797
35.8959
34.6461
35.0051
39.029
39.9139
41.6976
42.5273
44.2911
55.9762
53.4139
47.8396
50.0541
51.1643
45.9039
86.3609
71.484
68.1103
80.1465
84.4025
74.6907
64.5941
60.5341
30.9957
30.1371
30.5682
30.3049
28.3143
28.6753
29.1279
29.3247
29.5144
29.8213
27.942
27.891
27.9899
27.8402
27.9115
31.8061
31.7037
32.3356
32.771
31.8916
31.5417
31.4546
32.8916
32.979
32.9877
33.3909
33.7767
31.188
33.9635
34.2928
127.851
139.587
134.373
149.773
152.801
111.789
105.802
101.514
125.39
172.332
98.1253
89.8384
36.5676
37.738
35.2472
34.3604
34.2964
34.8245
34.558
38.5841
40.4312
41.2733
42.6229
45.032
43.4053
56.8009
54.2695
47.8076
49.8819
52.0304
45.9936
70.4463
66.7005
82.7942
86.4243
75.9695
62.9368
59.7632
30.77
29.8831
30.3379
30.1899
28.3511
27.9747
28.6954
28.9018
29.1637
29.5746
29.2744
27.7004
27.7532
27.4616
27.5246
31.7144
31.4989
32.181
32.5593
31.7042
31.3821
31.2318
32.6253
32.8248
32.7805
33.1367
33.3942
31.096
33.6299
130.461
149.801
144.641
158.198
165.004
117.66
110.783
106.988
128.913
93.5467
103.179
36.096
37.2932
34.9789
33.9669
33.9751
34.3254
34.216
39.0306
39.9166
41.7109
44.4413
43.5688
55.7271
58.3356
53.263
46.8256
48.8165
50.8957
44.8924
72.3171
67.9875
81.8964
89.8432
79.1797
74.9771
62.978
61.0645
30.7126
29.7337
30.3105
30.0103
28.156
27.6869
28.4943
28.7766
28.9106
29.4201
29.0932
27.3801
27.372
27.1078
27.2433
31.4968
31.2853
32.3336
31.9782
31.4655
31.7691
31.1694
31.008
32.433
32.5289
32.4783
32.8563
33.1386
33.2991
30.874
33.6577
139.418
158.077
152.973
147.701
167.902
173.452
125.414
116.411
110.413
138.683
94.3148
103.27
107.941
36.4656
35.459
37.6822
34.4547
33.7045
33.8936
33.8528
38.537
40.3624
41.3223
42.78
56.2029
57.7969
53.91
46.8853
48.7073
50.9182
44.7776
70.8816
67.0444
85.4226
93.4515
89.1014
79.8306
76.8819
64.7708
60.5379
30.4913
29.5123
29.8156
30.0948
29.9566
27.9658
28.3035
27.3206
27.7003
28.4961
28.7814
29.2437
28.8857
29.0956
27.0998
27.1419
26.7364
26.7605
31.3695
31.2933
31.1111
32.149
31.9564
31.3151
31.5636
30.9809
30.8286
32.1892
32.3448
32.334
32.7009
32.8307
33.0204
33.3156
167.608
165.015
160.277
175.06
131.502
122.18
118.312
147.229
99.7836
108.244
112.862
36.1378
34.9279
37.323
34.4241
33.9755
33.2925
33.4425
33.4663
38.9291
40.3551
41.8931
42.9066
55.5888
58.7789
53.4327
45.7806
47.8346
49.7766
52.0924
43.8097
72.4777
68.8563
85.5594
96.8759
92.7442
82.5037
75.6577
63.9611
61.9201
30.376
29.4263
29.6926
30.0419
29.7609
27.9706
28.1231
27.1421
27.5133
28.4059
28.5795
29.1496
28.8065
28.927
26.7116
26.7255
26.5394
26.5466
27.0168
31.1308
31.0995
30.9216
31.7764
31.1384
31.3718
31.5695
30.7606
30.636
32.0183
32.0967
32.4863
32.1273
32.599
32.7104
33.0508
173.335
172.601
159.527
140.492
129.659
123.143
147.457
100.72
109.419
119.213
35.5512
36.6131
34.9688
37.7103
34.0268
33.4901
33.167
33.2281
33.0521
38.372
39.7091
41.1608
42.058
56.6186
58.2432
54.5725
45.4592
48.229
49.5323
51.8165
43.6135
71.5358
67.7862
89.0176
96.1191
94.5547
82.6688
77.7604
65.4309
61.1462
30.4724
30.1935
29.5386
29.2453
29.8885
29.6454
27.788
27.9823
27.3019
26.9666
27.6042
28.2322
28.4466
28.9599
28.6453
26.5092
26.5493
26.1533
26.2277
25.0553
31.0139
30.9239
30.7372
31.8009
31.0028
31.1992
31.3818
30.5905
31.8756
32.2802
31.8886
32.1151
32.2604
32.5589
32.7286
173.062
144.48
135.791
131.779
160.421
104.575
115.313
124.203
35.3806
36.3744
34.4898
37.3194
34.0518
33.5124
33.0794
32.8569
32.8416
32.749
38.4516
39.7625
41.2429
41.9711
56.0627
59.3744
54.2117
44.4261
46.333
47.5453
50.4987
52.9
42.7599
73.6078
69.2856
86.1707
92.3849
100.502
98.9551
80.9186
76.6102
64.4149
62.3432
30.2895
30.1619
29.3916
29.2453
29.8554
29.7291
29.4639
27.7499
28.0607
27.1441
26.749
26.9852
27.403
28.1911
28.2945
28.4882
28.8768
28.6014
26.1618
26.2945
25.9174
26.057
30.1806
30.8568
30.7181
30.5516
31.6428
30.8529
31.0355
31.2016
31.422
30.3971
31.6755
32.1077
31.7124
31.9041
32.1468
32.3371
32.6069
153.197
137.082
136.485
162.042
115.209
122.026
133.12
34.6868
35.7727
36.7522
37.6579
33.5908
33.2826
32.6484
32.5438
32.5317
32.4017
39.063
40.4746
41.2131
57.1039
58.6678
55.2731
44.1979
45.8299
48.2333
50.4346
52.8263
42.7446
72.0359
68.0778
86.3664
94.8238
102.183
99.6992
82.5874
78.8043
65.7274
61.4237
30.2426
29.9792
29.3396
29.1262
29.7101
29.643
29.4109
27.6695
27.9615
27.2041
26.6576
26.7833
27.3524
28.0346
28.1879
28.3598
29.0007
28.7289
28.449
25.9055
26.0035
26.2801
26.1055
25.6384
13.452
30.7039
30.6032
30.5537
30.3791
30.72
30.8785
31.0196
31.3465
31.4857
31.8515
31.7352
31.5068
31.9607
32.1518
32.2837
156.043
147.631
146.078
174.429
112.497
123.614
128.583
139.478
34.4552
35.5989
36.075
37.6321
33.1464
32.8963
32.332
32.5511
32.2618
32.1541
32.0876
39.0421
40.473
41.2614
56.5087
59.6648
55.2818
44.9514
43.5251
46.4663
49.4264
47.543
51.6662
54.0496
42.0416
73.6395
69.4776
89.5882
93.6009
107.068
103.772
82.3955
77.074
64.5908
62.5095
30.0515
29.9086
29.1714
29.0776
29.5746
29.5152
29.2699
27.5137
27.8043
27.0486
26.4675
26.7377
27.2304
28.0371
28.224
28.3473
28.9062
28.7643
28.3591
25.5753
25.8152
26.088
23.605
25.7349
64.5045
30.5278
30.4208
30.3814
30.2216
30.7286
30.5387
30.8604
31.0201
31.1833
31.3863
31.6618
31.5492
31.4345
31.735
31.9706
32.0621
167.044
150.44
152.121
117.725
127.57
136.861
149.687
33.8393
34.953
36.2246
37.0344
38.3832
33.2768
32.6346
32.5584
31.9795
32.1775
31.9928
31.9102
31.7995
39.7645
40.6133
57.4384
58.8084
56.4664
44.5385
43.752
46.0029
49.5244
48.0099
51.5727
54.0812
42.2451
72.2028
68.0995
90.0434
97.8282
106.958
85.8753
79.1901
65.7761
61.432
30.0475
29.7283
29.1515
28.9333
29.4137
29.5817
29.39
29.264
27.454
27.6914
26.8996
27.0779
26.3666
26.6059
27.2852
27.9568
28.1328
28.189
28.6799
28.1861
28.435
25.4062
25.8845
25.5617
26.0593
24.8498
25.4237
33.8375
30.3973
30.3067
30.2377
30.6017
30.4132
30.7026
30.8594
31.0732
31.1602
31.3807
31.3402
31.257
31.5919
31.8165
31.85
173.131
162.429
163.585
124.584
113.575
135.647
145.01
157.735
33.6259
34.6773
35.7515
37.2169
38.4874
32.6574
32.2381
32.2111
31.9006
31.7425
31.7957
31.6127
31.4933
39.8362
40.7844
59.6298
57.0568
45.0331
43.055
46.6233
50.5942
49.0118
47.6496
52.7555
55.5597
41.5193
73.8106
69.3288
93.9206
102.449
106.191
85.599
82.6722
76.8904
64.3741
62.3537
29.9232
29.6656
28.9886
28.8793
29.3023
29.4294
29.1446
27.5423
27.7342
26.7765
26.9571
26.2177
26.47
26.6298
27.2616
27.8465
28.0245
28.741
28.5683
28.1207
28.3414
25.1209
25.7135
25.4371
25.9076
24.9908
25.1963
15.3399
30.2541
30.1373
30.0891
30.4631
30.5837
30.2835
30.7147
30.8799
31.106
31.2549
31.1275
31.1049
31.3901
31.6506
31.6285
173.871
129.632
116.916
142.534
137.494
156.001
168.066
33.0539
34.0967
35.1296
36.0566
38.0033
36.7909
39.2555
32.5187
32.2151
31.7861
31.8264
31.5463
31.4263
31.5474
31.6267
31.3795
31.503
31.3082
40.1841
58.6637
44.096
43.1419
45.6095
50.3949
49.4923
48.3981
52.7991
55.7652
41.4444
71.8989
67.1308
95.1259
104.542
111.877
89.6556
83.5068
78.1843
65.0944
61.7436
29.9688
29.7848
29.5301
28.9286
29.1793
29.3212
29.4029
29.1012
29.0249
27.5204
27.6174
26.7982
27.0009
26.2088
26.3356
26.5224
27.3899
27.1319
27.7949
27.8783
28.6494
28.4968
28.2221
28.0009
28.374
25.067
24.9616
25.7344
25.5447
25.2525
25.9292
25.4466
25.0001
20.2989
72.03
30.1263
30.1157
30.025
30.3766
30.431
30.1469
30.1938
30.5446
30.7965
30.9176
31.048
30.9478
30.9174
31.3193
31.4439
31.4216
129.84
123.861
152.781
145.236
165.09
174.673
33.0723
34.1544
34.709
35.7461
38.3676
37.1489
39.4797
31.9947
31.718
31.4935
31.5031
31.3191
31.4559
31.1334
31.2315
31.119
39.9832
59.7077
44.3691
42.2347
51.4207
54.1845
57.4942
40.598
73.113
67.4092
100.505
93.3614
109.701
113.77
87.3779
81.7372
76.2298
63.0706
29.8374
29.7513
29.5168
28.8102
29.12
29.1922
29.3143
28.9718
28.9408
27.6534
26.714
26.8829
26.0842
26.3623
26.566
27.3007
27.0875
27.854
28.5299
28.6952
28.1259
27.9505
28.3478
24.8751
24.6137
25.5916
25.379
25.2367
25.8517
24.5662
20.6695
21.1996
29.9832
29.9598
29.8741
30.2415
30.4101
30.0346
30.0602
30.4857
30.6172
30.8208
31.0037
30.9055
30.7772
30.7658
31.1423
31.2359
139.021
126.373
164.012
148.051
171.646
33.6532
32.5658
35.028
36.0814
37.8524
39.0531
36.6884
31.5212
32.0352
31.3733
31.1279
31.1669
31.0116
31.253
31.066
30.8613
31.091
30.8311
30.9348
39.3276
59.2691
72.3162
65.1057
69.9169
100.955
96.2366
111.723
120.195
89.4524
83.7903
77.5152
63.0715
29.777
29.6168
29.3819
28.7649
28.9871
29.1959
28.914
28.8281
27.5699
26.7739
26.8656
26.0583
26.2771
26.5573
27.3582
27.1824
26.9726
27.7747
28.4422
28.6191
28.1389
28.0082
27.8363
28.2539
24.9091
24.626
25.6193
25.4506
25.3226
25.0879
25.749
25.9222
24.4998
18.3473
22.9801
76.0368
29.8661
29.8589
30.1609
30.2452
29.9067
29.9687
30.316
30.554
30.6649
30.8571
30.6917
30.6361
30.6072
31.0114
31.0559
139.942
133.632
172.664
160.215
33.7184
32.67
34.7864
35.7427
37.9747
36.728
31.0553
31.5717
30.8898
30.9722
30.7192
30.9287
30.8318
30.8854
30.7497
30.8851
30.7656
38.6792
61.0399
74.6173
105.13
96.1766
118.824
110.438
87.6549
93.9606
80.7919
29.6515
29.5484
29.2888
28.6513
28.9127
29.0917
28.8073
28.7622
27.4671
27.659
26.6651
26.762
26.1548
26.3507
26.4581
27.2624
27.1704
26.9729
28.4998
28.0728
27.9436
27.7745
28.2393
24.7716
24.4546
25.5427
25.3575
25.1882
25.0517
25.7117
25.9126
24.2856
16.9882
23.2775
25.8489
29.7162
29.7168
30.0203
30.1944
29.7946
29.8204
30.2869
30.4084
30.5306
30.6819
30.7425
30.4879
30.4736
30.4915
30.8114
30.8653
149.421
136.512
160.488
33.2778
34.2799
32.4514
35.2323
36.0245
37.3103
31.0841
30.7445
31.5125
30.5714
30.6264
30.4799
30.6364
30.5566
30.701
30.5883
30.6991
30.5605
101.498
123.97
116.365
90.3277
96.6376
82.1907
29.6164
29.4637
29.3358
29.1634
28.5845
28.9942
28.8222
29.0818
28.7066
28.6392
27.4869
27.5895
26.6526
26.7741
26.1429
26.235
26.45
27.2844
27.0798
26.8818
28.4294
27.9807
28.1228
27.8288
27.6504
28.3214
24.6276
24.7854
24.4829
24.2434
25.5921
25.4111
25.2162
24.9175
25.7886
26.0214
24.0539
20.1962
17.9804
23.6899
76.1966
29.6352
29.6416
29.9152
30.066
29.688
29.7357
30.1298
30.4042
30.5739
30.6158
30.3467
30.3493
30.3356
30.7435
146.01
131.169
172.768
33.2464
34.2217
32.8144
31.9615
34.7054
30.6908
30.3289
30.9251
30.1059
30.4748
30.1816
30.4536
30.4339
30.566
30.5866
30.4158
30.5149
30.388
103.598
123.558
114.49
86.5714
94.4903
100.764
29.5059
29.2546
29.0633
28.4722
28.941
28.845
28.7221
28.9798
28.6062
27.3932
26.5577
26.6893
26.2455
26.373
27.1945
27.0933
26.8989
27.8846
28.078
27.801
27.5786
28.2378
24.5405
24.617
24.3026
24.1715
25.525
25.3247
25.129
24.9672
25.7231
26.0015
23.9639
23.8623
20.7983
13.796
23.6664
33.1101
29.5019
29.5345
29.8018
29.9456
30.0219
29.5798
29.6454
30.1362
30.2805
30.4407
30.474
30.2112
30.3238
30.2746
30.2207
30.2373
30.5486
152.828
135.125
164.957
33.7035
32.3865
31.9258
30.2918
29.9854
30.6419
29.7999
30.1812
30.0222
29.9092
30.1954
30.2091
30.4227
30.3558
30.2225
30.3468
30.1595
108.521
129.554
120.403
97.0892
102.035
29.4015
29.1756
29.3033
28.9531
29.0786
28.3765
28.7813
28.6225
28.9155
28.5253
27.3887
26.5818
26.7117
26.2142
26.403
27.2124
27.0018
26.8172
27.8961
27.9872
28.1454
27.7183
27.4827
27.6263
28.2661
24.4152
24.6
24.2752
25.3829
25.5873
25.1847
24.8828
25.793
26.1225
25.9162
23.8546
23.6083
22.3789
16.5533
23.571
30.112
29.4542
29.3976
29.5072
29.7341
29.8495
29.8857
29.4956
29.5424
29.6413
30.0169
30.3854
30.4094
30.1036
30.1564
30.1368
30.1099
30.1181
143.765
173.264
31.4978
29.8508
29.6332
30.1961
30.9859
29.4657
30.05
29.7514
29.6286
30.0833
30.0694
30.2629
30.2716
30.0844
30.1798
106.248
133.86
128.128
117.18
29.1487
29.2067
28.8761
29.0216
28.3655
28.701
28.8187
28.5407
28.6185
28.4388
27.3073
26.4989
26.6495
26.3046
27.1835
27.0039
26.8231
27.7994
27.9762
28.0632
27.7178
27.4679
27.5478
28.212
24.2973
24.7495
24.4835
24.1603
25.3309
25.5401
25.0927
24.9557
25.745
26.1235
25.9497
23.7254
24.026
23.4088
23.5258
23.0434
15.8896
23.3775
17.7272
29.3583
29.2738
29.4031
29.7564
29.8045
29.3716
29.4739
29.582
29.8817
30.0077
30.2516
30.2327
30.0003
30.1248
30.0616
30.0086
143.97
173.224
29.5414
29.5575
29.2439
30.1798
29.745
30.593
29.3978
29.1812
29.8078
29.5537
29.6434
29.866
29.8721
30.1423
30.1395
29.9118
30.1202
30.0288
110.549
134.745
130.299
122.381
29.0612
29.188
28.9149
28.7954
28.2626
28.6509
28.7681
28.4558
28.5471
28.4
27.2415
26.5366
26.6804
26.3113
27.1026
26.92
26.7612
27.7707
27.9106
28.0577
27.636
27.402
27.5561
28.1326
24.3362
24.171
24.6944
24.4837
25.2495
25.4307
25.6251
25.1346
24.8981
25.8169
26.053
26.2189
25.9144
23.7814
23.9254
23.1781
23.4161
20.3872
23.2253
29.2513
29.3338
29.3269
29.6379
29.6807
29.3262
29.5008
29.3856
29.7784
29.9098
30.1658
29.8668
29.997
29.9342
29.8758
152.685
164.675
29.1831
29.0034
29.0136
29.7776
29.3275
29.1665
28.8281
29.7212
29.2976
29.4102
29.7689
29.7416
30.0091
29.9729
29.7633
29.8842
29.9318
29.9153
29.8922
144.658
138.779
29.0104
29.0671
28.8671
28.7114
28.2514
28.6837
28.5626
28.4657
28.3277
27.302
26.5117
26.5871
26.4206
27.0827
26.9082
26.8062
27.6886
27.8319
27.9243
27.9865
27.6215
27.4041
27.4736
28.0834
24.2895
24.07
24.5845
24.7745
24.3732
25.2681
25.3743
25.6031
25.0791
24.9662
25.7937
26.059
26.2171
25.9716
23.6906
23.9335
22.9681
23.2103
23.5286
29.1939
29.2482
29.2368
29.5859
29.6065
29.2208
29.4063
29.3491
29.6597
29.7958
30.0197
29.8625
29.7973
29.9392
29.8352
172.512
28.8649
28.934
28.6728
29.3555
29.1238
28.9297
28.5631
28.7377
29.5207
29.2305
29.3521
29.5932
29.5781
29.9096
29.6061
29.7216
29.8948
29.7383
29.7634
148.32
28.9268
29.0212
28.796
28.6563
28.6704
28.1929
28.5247
28.3971
28.2811
27.2792
26.5823
26.3893
27.1566
26.983
26.7685
27.663
27.7983
27.8493
27.9975
27.5584
27.3403
27.4737
28.1203
24.168
24.0614
24.5493
24.7572
24.413
25.2339
25.4144
25.6989
25.511
25.1442
24.9583
25.8762
26.1337
26.2998
25.9718
23.7319
23.8659
23.1066
23.4511
29.1093
29.1731
29.1757
29.166
29.5032
29.521
29.2032
29.3445
29.2767
29.5668
29.6915
29.7515
29.6814
29.8044
29.7226
160.458
28.458
28.5382
28.3581
28.9916
28.8865
28.7724
28.2792
28.4895
29.4623
29.0121
29.1583
29.5019
29.5161
29.7625
29.5932
29.6662
29.7496
29.6767
29.6651
29.6363
28.8342
28.9486
28.7236
28.7725
28.5777
28.5774
28.2037
28.4535
28.3967
28.3185
27.227
26.6878
26.5428
26.4561
27.1193
26.9738
26.8339
27.5891
27.7172
27.8362
27.9639
27.5407
27.2876
27.4398
28.0768
24.0906
23.9324
24.6347
24.8527
24.3639
25.3094
25.6841
25.5122
25.0542
25.8574
26.1397
26.2885
26.0579
23.6663
22.8408
23.2163
22.9716
23.544
23.3455
29.0581
29.089
29.0959
29.0934
29.4012
29.4263
29.1334
29.2198
29.1963
29.4497
29.5288
29.6625
29.5939
29.6515
29.5681
29.7126
29.593
28.0767
28.5746
28.0811
28.0335
28.6818
28.841
28.5725
27.9936
28.2611
28.3246
29.3184
28.9869
29.15
29.3464
29.3605
29.4351
29.5073
29.6282
29.5376
29.5152
29.5219
28.8511
28.9728
28.6628
28.6856
28.5376
28.544
28.1627
28.4088
28.3244
28.2837
27.2267
26.6814
26.6044
26.4341
27.054
27.161
26.913
26.8101
27.5458
27.7136
27.9028
27.794
28.0109
27.4835
27.3196
27.3875
28.1008
24.1374
23.9636
23.885
24.587
24.8233
24.4586
24.2512
25.3393
25.6069
25.7626
25.4577
25.0247
25.9459
26.2201
26.3619
26.0832
23.7452
23.1174
22.9271
23.4806
23.3507
29.0233
29.0251
29.0262
29.3593
29.1265
29.0533
29.187
29.3692
29.4369
29.5571
29.5243
29.5418
29.4538
29.5826
29.5182
27.6623
28.2607
27.7152
27.6628
28.3199
28.631
28.3815
28.4843
27.7777
28.0736
28.1027
29.2639
28.7961
29.0531
29.2712
29.3143
29.3942
29.427
29.4908
29.4537
29.4237
28.7936
28.92
28.5929
28.6526
28.4497
28.4787
28.2069
28.3326
26.742
26.5792
26.4993
27.0435
27.1757
26.9218
26.8535
27.4744
27.5568
27.7076
27.8728
27.8178
27.9869
27.4426
27.2458
27.3832
28.0321
24.0328
23.9454
24.6692
24.7826
24.9296
24.4331
24.235
25.2886
25.5978
25.7631
25.5033
25.125
25.9216
26.0389
26.2369
26.3154
26.1844
23.7293
23.1406
22.9968
23.526
23.3351
28.9464
28.9473
28.9538
29.269
29.0462
28.9806
29.1036
29.2638
29.365
29.3724
29.4184
29.4972
29.4432
29.3456
29.4775
29.4237
27.3341
27.8458
27.337
27.417
27.9868
28.6133
28.1772
28.2896
27.8443
27.5442
27.9486
29.12
28.7637
28.9092
29.1429
29.1839
29.2662
29.3046
29.3976
29.3156
29.3123
28.721
28.8353
28.5231
28.5933
28.4197
28.4375
28.1502
28.2802
26.7022
26.6274
26.4803
26.9786
27.1041
26.8372
27.4848
27.6087
27.7742
27.669
27.9144
27.246
27.3334
28.0259
24.0295
23.8425
24.6369
24.8672
24.957
24.3263
24.5281
24.1303
25.222
25.3697
25.6735
25.846
25.4719
25.0491
25.9866
26.0918
26.3549
26.2177
23.6313
23.2593
23.0632
22.9158
23.4383
28.8911
28.8837
28.8974
29.2092
28.9745
29.0263
28.9068
29.0766
29.2044
29.2926
29.2962
29.3686
29.3783
29.3558
29.3268
29.2569
29.3722
26.9896
27.4911
27.044
27.2122
27.5566
28.4569
28.1368
27.9973
28.2004
27.6653
27.3625
27.7183
29.0609
28.6155
28.8393
29.0227
29.1193
29.0419
29.1684
29.1604
29.2471
29.1913
29.2995
29.2476
29.2567
28.6692
28.7906
28.5255
28.4557
28.6053
28.3671
28.3777
28.0857
28.1709
28.2267
28.3093
26.7373
26.607
26.4351
26.5455
26.9567
27.0772
26.8061
26.9017
27.4659
27.5698
27.7483
27.6868
27.898
27.2278
27.3464
27.9614
23.9266
23.8312
24.7234
24.8356
24.3291
24.5073
24.124
25.2641
25.3547
25.7041
25.864
25.55
25.0811
26.0604
25.9426
26.1781
26.3068
23.6364
23.2983
23.1076
22.9493
23.4513
28.8231
28.8172
28.8279
29.1229
28.9042
28.9611
28.8355
28.9891
29.2292
29.141
29.2118
29.2677
29.3146
29.2655
29.2311
29.163
29.2596
26.774
26.7042
27.1237
26.6906
26.9447
27.1903
27.2475
28.4694
28.3141
27.9654
27.8204
28.074
27.4328
27.5876
28.9294
28.5826
28.6897
28.9068
28.9766
28.9407
29.051
29.0329
29.1293
29.1048
29.2052
29.1097
29.1658
28.678
28.7314
28.4799
28.4083
28.569
28.3421
28.0783
28.1311
28.2185
28.2561
26.7237
26.6569
26.4683
26.5326
27.0064
27.1261
26.8418
26.9014
27.511
27.4105
27.5913
27.7914
27.6543
27.8546
27.2901
27.1865
27.9598
23.9225
23.7353
24.6954
24.9156
24.4215
24.2245
24.6
24.0199
25.206
25.454
25.8114
25.6548
25.5474
25.0318
26.1147
25.981
26.2228
26.3379
23.5588
23.22
23.3988
23.0342
28.7915
28.7629
29.056
28.8973
28.8332
28.7725
28.9813
29.1495
29.1091
29.0606
29.1948
29.1385
29.2047
29.1785
29.1505
29.0946
29.1818
26.4171
26.4134
26.7429
26.4762
26.8077
26.9652
26.757
28.3594
28.1863
27.9347
27.8069
27.6665
28.0777
27.2632
27.4309
28.4148
28.6657
28.7972
28.9593
28.8187
28.9551
29.0538
28.9994
29.1284
29.0822
28.6271
28.6863
28.509
28.4185
28.3609
28.5827
28.2934
28.0586
28.1345
28.1737
28.2484
26.784
26.6513
26.4229
26.5901
27.0124
27.1224
26.8469
26.9544
27.4954
27.4005
27.5888
27.7919
27.6786
27.877
27.2945
27.209
27.9235
28.017
23.8247
23.7337
24.7846
24.8957
24.4421
24.2212
24.5539
23.989
25.2655
25.429
25.8414
25.701
25.6285
25.097
26.1912
26.0707
25.9294
26.3038
23.5607
23.2484
23.4575
22.9393
23.0702
28.7282
28.7041
28.8337
28.7722
28.7049
28.924
29.0381
29.0039
29.1001
29.0656
29.1402
29.108
29.0535
29.0031
29.0848
26.2154
26.1828
26.5396
26.1979
26.5802
26.9116
26.9396
28.2142
27.8485
27.6903
27.4961
27.929
27.2962
27.0801
27.3788
28.3334
28.5567
28.849
28.7097
28.8356
28.9348
28.9125
29.0258
28.9869
28.6336
28.6859
28.4916
28.3814
28.3263
28.5292
28.2897
28.0898
28.1595
28.1969
26.7814
26.7161
26.4521
26.631
27.0743
27.1679
26.9058
26.9545
27.4439
27.5412
27.3543
27.6369
27.7667
27.8447
27.73
27.2591
27.9447
27.992
23.8129
23.6393
24.779
24.9797
24.4226
24.167
24.3407
24.6
24.0725
23.8963
25.2037
25.3729
25.5175
25.7863
25.6554
25.0735
26.2405
26.1248
25.9772
26.3506
23.3574
23.1819
23.4401
23.0346
28.6654
28.7746
28.8133
28.7207
28.6784
28.9373
28.8567
28.9884
29.0272
29.0454
29.0046
29.0357
29.0263
28.978
28.972
29.005
29.0026
25.9837
26.3653
25.801
26.1539
25.8634
26.5175
26.7172
25.1551
28.0796
27.7258
27.5137
27.8602
27.1118
27.0043
27.2427
28.2295
28.4378
28.5811
28.7759
28.7317
28.7643
28.8515
28.8054
28.952
28.8896
28.602
28.6262
28.4509
28.4075
28.3349
28.3072
28.5164
28.2618
28.0815
28.1226
28.1877
26.8621
26.715
26.4314
26.548
26.6128
27.0714
27.1975
26.9292
27.0154
27.4544
27.5639
27.3409
27.6609
27.8034
27.867
27.7429
27.285
27.9196
28.0146
23.7193
23.6316
24.7007
24.8849
24.9716
24.5102
24.2449
24.3373
24.0173
23.9177
25.2294
25.4234
25.5123
25.6073
25.834
25.7708
25.1392
26.2782
26.3334
26.087
26.2381
25.9367
23.3705
23.214
23.5357
23.0992
28.6164
28.7338
28.7465
28.6728
28.6368
28.872
28.8064
28.9175
28.9333
28.9815
28.9421
28.9077
28.9004
28.8951
28.9025
26.0023
25.6874
26.1925
25.6655
25.6551
26.3579
26.6982
29.6764
27.9488
28.0469
27.5766
27.4587
27.7228
27.0956
26.8507
27.143
28.1289
28.2488
28.3533
28.4905
28.6735
28.6248
28.6477
28.7416
28.7227
28.8616
28.8153
28.559
28.4309
28.3799
28.3427
28.2658
28.4832
28.2351
28.0593
28.1076
28.175
26.9341
26.8604
26.7812
26.5176
26.5869
26.7194
27.1286
27.2702
27.1891
27.007
27.5242
27.4404
27.6278
27.3807
27.7167
27.7843
27.8466
27.9374
28.014
23.7459
24.7384
24.8365
25.0661
24.5325
24.1933
24.4306
24.079
23.851
25.3276
25.4126
25.5939
25.6715
25.8398
25.1624
26.3955
26.422
26.2002
26.3348
26.0314