/*--------------------------------*- C++ -*----------------------------------*\
| =========                 |                                                 |
| \\      /  F ield         | OpenFOAM: The Open Source CFD Toolbox           |
|  \\    /   O peration     | Version:  v2012                                 |
|   \\  /    A nd           | Website:  www.openfoam.com                      |
|    \\/     M anipulation  |                                                 |
\*---------------------------------------------------------------------------*/
FoamFile
{
    version     2.0;
    format      ascii;
    class       volScalarField;
    location    "0.3";
    object      p;
}
// * * * * * * * * * * * * * * * * * * * * * * * * * * * * * * * * * * * * * //

dimensions      [1 -1 -2 0 0 0 0];


internalField   nonuniform List<scalar> 
13611
(
92306
92466
92358.8
92815.8
92706.1
92059.3
92671.9
93544.4
92657.8
93134.6
92348
92964.2
93572.2
94007.6
92756.6
93202.6
92671.1
92033.5
93477.3
93863.2
94508.1
93912.4
92608.5
92948.8
93706.7
92875.9
92412.5
93633.1
94318.3
94657.4
94925.8
94261.5
92652.5
93396.3
93874.9
93396.4
92675.5
92059.3
94066.1
94662
95280.3
95426.9
94938.1
94669.9
92869.3
92395.7
93384
94351.4
93610.8
92852.6
92322.5
94288.8
95201.7
95602.2
95499.2
95710.8
95442.9
94940.2
93127.6
92717.4
93869.6
94620.7
93347.7
94063.6
92658.2
92121.7
94757.3
95490.7
96152.1
96031.8
96138.7
95415.4
93700.5
92926.2
92412.5
94360.6
95228.2
93484.7
94306.2
93066.5
92332.4
94997.8
95983.9
96360.9
96403.3
96234.9
96384.9
95722.6
93933.1
93184.3
92857.5
94656
95510.1
93869.5
94777.9
94212.3
93126.2
92724.2
92042.1
95487.5
96344
96840.8
96848.3
96761.9
96836.7
96462.4
96253.2
94379.2
93694.7
93022.5
93003.2
95205.9
95984.7
94019.7
94941.9
94613.4
93719.3
92915
92286.7
95703.9
96322.1
96842.3
97042.7
97221
97211.1
97043.1
96898.9
96504.6
94599.5
93806
93318.7
93033.5
95396.9
96291.9
94503
95381
93802
92610.6
93420.5
91990.8
96197.6
96733.9
97255.4
97584
97701.1
97636.4
97505
97226.5
97014.8
95072.7
94272.3
93197.7
93171.7
95862
96275
96717.7
94813.7
95550.8
94229.7
92807.4
93573.9
92268.6
96391.5
97175
97718.3
97881.9
98102.8
98045.4
97759
97317.1
97633.4
97214
95356.8
94399.2
93901.5
93413.5
93227.8
95857.8
96800.6
97118
94679.1
95305.8
96070.5
94062.7
92565.7
93316.7
92101.9
96898.7
97432.8
98213.3
98450.6
98596.8
98409.5
98222.7
97869.2
98032.1
97707.9
95285.5
94818.8
93933
93351.3
93085.3
96238.1
96773.4
97213.9
95114.8
95658.7
96129.3
94249.7
93002.3
93447.3
92306.2
97122.2
97818.4
98652.4
98225.6
98767.7
98998
98871.9
98470.3
98373.3
98059.5
97925
95700.1
94825
94378.1
92852.6
93989.5
92551.2
96151.2
97145
97715.2
95600.4
95099.5
96519.9
94702.3
93884.5
92952
92079.2
92503.5
96954.5
97656.2
97997.8
99100.2
98633.5
99295.6
99547.8
99170
98937.7
98819.9
98502.9
98429.3
95733.6
95334.8
94385.3
92963.6
94000.3
92907.5
96498.8
97724.3
96958.6
97984.2
96026.3
95561.1
96475.7
94889.9
94071.4
93352.2
92259.5
92593.1
97331.2
97752.3
98458.9
99345
99465.4
99141.1
99675
99537.4
99865.4
99619.8
99131.6
99070.7
98657.5
98907.6
98711.5
96244.3
95352.2
94846
93473.1
94259.9
92787.6
97992.7
97284.7
98556.9
95999.5
95427.8
96888.8
94631
93798.9
93082.9
92287
97308.5
98098
98744.1
99889.4
99926.9
99421.4
100137
100051
100375
99856.5
99602.1
99649.6
99110.7
99268.5
99230.6
98544.6
96424
95755.1
94754.9
93188.8
94198.3
92865.1
97729.7
98466.8
97288.1
98949.3
96455.2
95700.1
96892.5
94876.1
94104.9
93201.9
92694.2
92014.5
97719.2
98087.2
99198.4
100234
100261
99878.3
100581
100596
100701
100323
99872.1
99879.5
99398.9
99663.9
99525
98834.5
96187.5
96959.8
95844.3
95054
93719.8
94685.5
92967.3
98017.1
98457.7
98894
97801.3
99476.1
96511.8
96188.3
95413
97345.9
94622.6
94020.7
93674.6
92791.6
92135.3
97751.6
98540.1
99543.9
100742
100206
100693
99960
101025
101036
101267
100538
100336
100328
99867.4
99970.4
100053
99297
96549.1
97006.9
95564.6
96384.1
93682
94731.1
92809.6
93035.2
98797.9
99391.1
98084.8
99914.4
96990.9
96479.5
95639.7
97386.2
94820
94468
93861.6
93189.3
92459.9
91831
98200.6
98618.4
101010
100936
100706
101054
100392
101448
101247
101386
101576
101022
100682
100680
100365
100222
100314
99619.7
97384
95886.6
96670.1
94254.9
95224.9
92650.9
92813
98644.6
99323.8
99880.7
97906.6
100407
96970.7
96223.5
95300.7
97867.2
94396.4
93644.1
93094.1
92686.7
92069.6
98273.9
99049.9
101519
101474
100809
101534
101858
101713
101813
102073
101121
101129
100725
100683
100107
100788
99500.5
97227
95737
96456.8
94314.1
95241.3
92430.8
93815.8
98985.1
99668.4
100346
98324
100892
97412.2
96378.8
95511.8
97914.1
94734.1
93797.6
93407.6
92507.8
91862.1
98763.5
99122.5
101719
101779
101328
101912
102225
102003
102271
102397
101519
101533
101137
101102
100474
100882
101139
99874.9
97570
96110.2
96807
94770
95803.2
93191.3
93654.2
98846.4
99493
100109
100388
100862
98152.4
101393
97480.5
96005.1
96795.1
95257.6
98432.2
94606.4
94171.4
93365.1
92892
92070.1
98872
99636.5
102197
102300
102353
102654
102530
101922
102689
102922
101976
101554
101561
100364
101312
101617
97364.5
96621.7
94867.4
95923.6
93603.6
94022.6
99287.4
99805.6
100431
100802
101208
98455.8
101875
97988.9
97196.7
96227.3
96677.9
95560.2
98443
95015.8
94131.9
93715.6
92880.3
91772.4
92508.4
99385.7
99788.5
102420
102578
102636
102535
102725
103027
102736
102361
103180
103285
102402
101991
101989
100746
101696
101459
102013
97724.1
97018.1
95438.5
94525.9
96443
93472
93846.9
93890.7
99281.7
99730.6
100298
100821
101113
101637
98911.5
98233.6
101942
102308
97970.4
97538.1
96036.5
96978.9
95448
98871.7
94927.4
94476.9
93743.1
93390.2
92032
92753.2
99600.4
100245
102972
103056
103139
103067
103158
103516
103192
103588
103763
102863
102427
102423
101235
100659
102166
101953
102419
97575.6
96940.7
95542.9
94686.4
96474.3
93160.2
93545
94314.2
99681.8
100119
100470
101157
101474
101783
99133.7
98533.2
102423
102759
98307.7
97437.1
96255.1
96749.7
95890.5
99379.4
98757.9
95340.9
94238.5
93321.4
91762
92512
100156
100399
103150
103363
103340
103394
103576
103885
103274
103589
104082
104150
102875
102841
101626
101044
102497
102282
102043
102819
97946
97432.1
95108.1
96012.5
96925.9
93517.7
93646.1
94250.9
100112
99568.5
100287
100796
101312
101496
102141
98970.5
98396.6
102479
102801
98227.7
97791.2
96977.8
95875.9
99742.8
99065.6
95325
94441.5
93644.1
91944.2
92876.7
100433
100881
103608
103773
103836
103797
103999
104330
103792
104019
104473
104627
103310
103282
101525
103003
102747
102473
103201
97886.3
97396.2
95187.5
96069.9
96911.3
93469.5
93196.5
94434.3
100380
99799.2
100740
101167
101783
101845
102177
99234
98707.6
102850
103268
98545.2
97852.8
97533.9
96753.3
96287.7
99550.2
100247
98933.8
95755.1
94940.8
94156.9
93446.2
91589.1
92325.3
92748.4
100948
101150
104028
103679
104068
104099
104040
104433
104688
104555
103818
104135
104411
104971
105052
103683
101856
103141
102850
102666
103625
98255
97762.9
94847.6
95670
96519.2
97276.4
92824.7
94186.1
93411.5
100767
100190
99639.8
101030
101457
102037
102530
99106.6
98625.1
102860
103266
98359.3
97600.8
97127
96188
99720.5
100614
99310.4
95643.5
95160
94460.9
93787.1
91926.8
92390
93133.7
101234
101648
104503
104173
104522
104612
104512
104796
105128
105063
104175
104607
104758
105292
105471
104071
102398
103620
103270
103162
104085
98348.2
98187.3
97649.2
95102.2
95616.2
96587.9
97305.4
93022.9
94435.1
93216.7
100939
101028
100396
99851.6
101374
101866
102403
102605
99395.3
98915.7
103158
103571
98665.8
97980.3
97049.2
96575.6
100115
101089
100536
99227.8
95947.5
94963
94286.5
93613.4
92868.6
101737
101945
104910
104567
104232
104902
104715
104824
105178
105489
105325
104598
104944
105144
105791
105914
104471
102627
103651
104091
103393
103480
104536
98790.1
98458.6
97905.3
94873
95942.7
97031.3
96384.8
97695.6
93617.6
94199
93173.4
100760
101289
101408
100215
99734.8
101665
101992
102688
102984
99292.2
103207
103467
103924
98499.3
97939
97481.3
96448.4
100281
101491
100914
99592.9
95764.2
95263.2
94603.2
94009.5
93105.5
101899
102382
105348
104996
104588
105294
105197
105345
105500
105967
105797
104920
104781
105441
105497
106079
105911
106243
103077
104029
104526
103862
103455
103937
105031
99025
98284.3
98886
95150.8
95766.4
97064.2
96655.2
97846.2
93062.1
94148.9
93400.5
100944
101500
101427
101675
100337
100030
102221
102718
103033
99500.6
103546
103690
104122
98777.5
98401.4
97341.4
96780.6
100092
100768
101399
99586.4
96059.9
95075
94496.4
93790.8
102372
102695
105373
105741
105168
104478
104980
105703
105515
105618
105886
106122
105396
105253
105825
106608
106296
106693
103110
104437
104967
103857
104345
105191
105432
99361.5
98449.5
99107.6
94980.9
96048.3
97328
96695
97673.2
98223.6
93039.1
93800.9
94498.8
92652.9
101263
100860
101813
101764
101967
100614
100058
102188
102504
103056
103320
99815.4
103731
103990
99246.5
98545.3
97667.4
96576.5
100392
101052
101698
100116
95799.3
95319.7
94953.5
102543
102748
105773
106165
105662
104617
105243
106086
106001
106039
106175
106598
105803
106267
106893
106838
106699
106998
103490
104829
105358
104292
103861
104797
105737
105871
99624.9
98758.4
99451.6
99009.7
95283.1
95953.7
96480.8
97152
97913.4
98396
92884.2
93764.9
94466.1
92305.2
92303.4
101389
101169
101934
102018
101881
100658
100402
102459
102646
103116
103313
103638
99909.8
104053
104166
99417.7
98221.9
99094.2
97421
96886.8
100868
101501
102210
100227
96111.7
103089
103302
106169
106565
105884
104890
104437
105652
105148
106527
106385
106361
106611
106941
106813
106218
106665
107379
107321
107139
107483
105307
105814
104597
104305
105216
106015
106275
99666.9
98746.9
99580.9
99340.9
95693.3
94910.4
96333.7
96628.8
97356.4
98272.6
97772.2
93447
94073.2
92339.5
92295.5
101667
101196
102207
102303
102153
100944
100436
102514
102905
103384
103573
103900
100166
104261
99870.1
98487.7
99318.2
97712
96686.9
101219
101837
102303
100663
103473
103309
106624
106999
106291
104877
104622
105730
105428
106960
106905
106767
107379
107320
106634
106396
107133
107670
107580
107496
107690
105714
106227
105056
104518
105320
105655
106492
106650
100041
98951.7
99872.2
99406.5
95838.8
94999.9
96437.3
96925
97237.6
98503.3
97973.2
93534.9
93925.7
92708.7
91968.6
101772
101424
102367
102386
102214
102376
101044
100665
102772
102975
103438
103582
103847
104187
100238
104551
100069
98229.1
99038.5
99842.8
97564.4
97066.6
101115
101740
102710
100554
103915
103818
103160
107044
106649
107398
106514
105064
106034
105357
107395
107240
107129
107654
106996
106893
107510
108211
108030
107960
108139
106177
106707
105337
104329
105094
105851
106030
106814
107078
100130
98829.4
99238.2
99938.2
99717.9
95713
96240.6
94722.1
95420.7
96841.3
97532.9
98467
97848.7
98267.7
93286.1
94189.9
92521.3
91901.9
102039
101656
101360
102603
102628
102471
102640
100933
100560
102808
103244
103665
103840
103993
104417
104770
98407
99272.6
100132
97989.5
101513
102138
102642
100789
104041
104018
103636
107489
107026
107808
106915
106402
105020
106007
105487
107837
107697
107546
108164
107410
107198
107985
108469
108369
108239
108201
108375
106581
107140
105805
104627
105295
106054
106496
107325
107427
100398
99033.7
99424.5
100256
99746.7
96009
96326.4
94893.3
95477.1
97054.2
97446.3
98727.3
98138.4
98373.2
93193
93926.7
92069.7
92812.1
91488.8
102126
101905
101537
102829
102521
102671
102844
101136
100730
103036
103274
103865
103774
104235
104424
104706
98905
99846.2
100594
101513
102015
103082
101220
104450
104557
103628
107615
107854
107405
108158
107144
106664
105283
105740
106240
108183
107963
107888
108482
107742
107638
108303
108950
108804
108710
108720
108898
107067
107630
106178
105017
105735
106478
106906
107706
107882
100644
100443
99324.8
98958.1
100368
99962.3
96041.7
96547
95258.9
94806.5
95818.4
96983
97648.4
98664.6
98184.4
93463.4
94223.8
91941.3
92688.1
91652.8
102351
101868
101433
103039
102726
102898
103083
101043
103479
104019
103710
103981
104348
104700
104850
100964
101953
102260
103068
101352
104763
104797
104069
108060
108242
107753
108578
107599
107005
106540
105303
105870
106142
108596
108468
108319
108972
108160
107971
108761
109144
109277
109215
108970
108971
109176
107498
108038
106577
106157
105139
105846
106855
107424
108176
108251
100859
100743
99453.1
99213.5
100678
100232
99921.3
96387.6
96797.3
95367
94627.8
95108.4
95894.9
97254.8
97494.1
97953.4
98815.9
98514.6
93300
94118.9
92197.5
92949.2
91326.4
102487
102037
101616
103226
102736
102910
103111
103244
101227
103442
104232
103903
104158
104565
104740
105082
102037
102671
103525
101730
105313
104551
103983
108124
108335
108623
108850
107675
107287
106705
105506
105756
106283
108759
108631
109279
108480
108395
108994
109571
109803
109773
109517
109473
109646
107981
108503
107002
106568
105528
106335
107219
107850
108562
108684
101127
100860
99686.3
99241.2
100741
100455
100174
96525.8
96959.1
95637
94759.6
95084.9
96165.3
97227.6
97647.9
98044.5
99074.9
98751.2
98530.8
93514.2
93833.9
94372.7
92201.7
92877.5
91439.8
102466
102285
101897
101516
102916
103106
103306
103469
103579
104324
104129
103914
104700
104896
105208
102428
102755
103494
101994
105725
105363
104936
104375
108526
108799
108981
109272
107981
107256
106546
106978
105440
105922
106161
109211
109093
109795
108853
108739
109418
109909
109817
110132
109881
110235
109740
109680
109937
108405
108914
107201
106998
105800
106362
107702
108349
108984
109034
101306
101185
99714.3
99491.4
100935
100412
100190
96408.9
96857.4
95683.4
94653.9
95253.2
96184
97469.4
97864
98269.8
99210.1
99068.7
98696.9
93152.1
93845.5
94323.3
91879.6
92532.5
91040.2
102739
102422
102065
101691
103109
102933
103299
103485
103559
103781
104516
104246
104140
104680
104867
105108
102446
103118
103830
106205
105725
104848
104254
108680
108948
109370
109549
109486
108430
107829
107499
106666
107083
105589
105823
106302
109375
110105
109173
109146
109522
110351
110314
110437
110234
110434
110114
110093
110344
108874
109354
107724
107399
106696
108009
108788
109374
109450
101589
101332
99978.1
99477.8
100861
101196
100610
100492
96615.6
96998.1
95505.7
95987.3
94828.3
95191.9
96497.1
97545.3
97970
98234.7
99203.4
98459.8
98908.7
93234.5
94110.9
93617.5
94528.2
91996.6
92367.6
91279.3
102728
102325
101962
103283
103178
103483
103691
103765
103875
104587
104464
104219
104853
105010
105155
102871
103217
103651
106158
106612
105813
105217
104561
109193
109374
109721
110119
109951
108661
108003
107353
106921
106532
105552
105895
106255
109892
110426
109523
109927
110286
110627
111239
110264
110522
111319
110312
110280
110541
109313
109786
107852
107471
107165
108485
108823
109271
109732
109770
101766
101609
99974.4
99663.2
101048
101388
100589
96848.2
97235.6
95614
96037.8
94734.4
95045.3
95414.7
96604.2
97431.5
97848.7
99561.1
99113.1
98523.9
99001.6
93140.3
94108.9
93706.5
94506
91835.2
92527.3
91163.4
102854
102483
102124
103307
103460
103273
103699
103846
104096
104803
104551
104415
104904
105002
105276
103952
106470
107037
105648
106261
105053
104435
109395
109504
109684
110329
110283
110518
110233
109111
108383
107793
107486
106998
106596
105408
105622
106085
105765
106439
110561
109965
110691
111428
111680
111031
111368
111928
111067
110917
111560
109793
110173
108237
108017
107369
108782
109310
109751
110095
110141
102021
101748
101745
100192
101015
101306
101636
100840
100437
97008.4
97260.9
95819
96244.2
94872
95087.5
95440.8
96927.8
96482
97643.8
97919.9
99722.8
99347.9
98857.6
98376
99275.1
93360.4
92869.5
94300.8
93927.4
93616.8
94685.1
91974.3
92293.7
91633.2
90788.5
102718
103057
102391
103533
103605
103205
103516
103856
104051
104178
104905
104714
104493
105083
105125
105272
106901
107171
106042
106413
105253
104843
109960
110019
110131
110715
110584
110670
110648
109323
108388
107990
107272
106803
105559
106087
105815
106444
111574
110268
111480
112156
111573
111316
111175
112267
110152
110743
108331
108674
108113
107767
109279
109727
110145
110383
102179
102046
102022
100164
101309
101466
101831
100903
100653
97505.7
95820.2
96199.6
94845
95280.6
95646.7
97060.5
96661.8
98114.7
99587.4
99975.5
98979.5
98537.5
99483.5
93320.4
92809.9
94306.8
93925.5
93716.2
94676.7
92468.2
91728.5
90922.9
102886
103120
102543
103630
103806
103475
103623
104052
104134
104375
105077
104852
104768
104685
105159
105425
107105
107680
106136
106830
105730
110259
110262
110542
110899
110604
110812
110767
109093
109925
108663
107843
107294
106852
105566
105953
106187
105699
106313
106524
111746
110850
110730
111045
110998
108747
108965
108499
107943
109678
110008
110676
110898
102435
102168
102100
100410
101365
101751
101127
100632
97594.1
95990.2
96354.9
94986.7
95299.4
95695.2
97277.3
96890.7
96573.9
98069
99707.5
100103
99236.8
98791.5
98362.9
99480.5
93514.4
93045
94474
94171.5
94038.5
93688.2
94599.8
94880
92426.5
91460.2
92057.3
90529.5
102822
103348
103874
103955
103542
103846
104211
104320
104442
105167
104987
104964
104783
105298
105418
107504
107807
106678
107006
110534
110647
110773
111562
111864
111755
109263
110100
108621
107508
107937
107055
106681
106010
106134
105671
106431
112559
111143
111116
109039
109369
108385
108943
110058
109705
110432
102556
102426
102324
100378
101576
101887
101101
100840
97470.3
97883.8
95937.9
96268.7
95157.4
95458.4
95619.6
97278.1
97022
96717.9
99966.9
99297.9
98872.5
98428.4
99706.5
93548.8
93078.5
94430.3
94198.8
93972.4
93830.7
94661
94921.1
92724.7
91471.4
92044.9
90536.7
102966
103380
103981
104171
103800
103951
104408
104442
104587
105116
105310
105034
104944
104729
105371
105525
107729
108204
107510
110607
110755
110799
111660
112117
112090
109674
108982
110379
108262
107451
107644
107049
106708
105954
106134
105748
106460
109444
108633
109323
110621
110082
110906
102805
102591
102564
102339
100567
101762
101642
102118
101262
100815
97718.2
97967.4
96051.4
96394.6
95197.8
95413.1
95767
97439.6
96946.4
96629.3
100105
99121.8
99610.1
98694.6
98231.9
99961.1
93492.4
93705.2
93319.2
92968.1
94529.4
94301.5
94059.5
93833.5
94783.9
95096.1
92789.7
91681.7
91230.3
92343.8
89870.1
103215
103621
104177
104326
103848
104154
104570
104610
105256
105345
105158
105036
104886
105509
108158
108542
107816
111605
111888
111830
110661
112499
109888
109026
110160
108285
107223
107550
106860
106575
106056
105853
106220
105710
106360
109792
109136
109797
110979
110659
110101
102870
102800
102606
100489
101973
101941
101514
102189
101092
97687.7
95971.8
96301.6
95531.9
95706
97356.7
97087.7
96750.6
99158.2
99740.1
98842.9
98281.5
100154
93554.7
93693.3
93265.7
93097.2
94520.2
94291.1
94062.3
93949.9
94790.4
95151.2
93033.3
92693.5
91686.7
91245.5
92302.6
90399.9
103357
103707
104249
104311
104534
104034
104314
104751
104749
105310
105434
105214
105270
105006
105162
104893
105605
108572
108883
108437
112429
112662
111864
109584
108672
110235
107971
107158
107286
107672
106841
106571
106057
105886
106195
105838
106358
109952
109257
110099
111026
110629
103050
102847
103010
102622
102787
100641
102111
101666
102393
101196
97827
96085.6
96414.1
95464.9
95791.6
97509.2
96995.9
96630
99353.2
99613.7
100031
98767.3
98064
98522
100446
93511
93784.3
93376.8
94394.1
94620
94156.7
93972.9
94897.3
95324.4
95046.1
93172.7
92892.6
92038.3
91387
92526.4
90416.6
103625
103272
103962
104432
104545
104666
104230
104340
104485
104937
105429
105576
105366
105371
105157
105240
105030
108960
108809
112170
109596
108698
110361
111303
107860
106961
107179
107482
106690
106445
106118
105970
106279
105833
110539
109518
110097
110604
103115
103197
102874
103040
100878
102078
102371
101500
101911
101076
97711.3
95992.1
96308.9
95678.5
97459.4
97097.8
96725.2
99308.6
99890.7
100142
99007.2
98215.5
98496.3
100649
93614.8
93889.4
93773.2
93426
94386.9
94580.7
94155
94068.1
94816.7
95350.2
95119.3
93215.5
93361.3
92799
93147.8
92102.2
91528.2
92403.9
91243.2
103772
103484
104105
104596
104868
104403
104586
104699
104988
105050
105508
105648
105423
105484
105174
105363
109344
109440
109082
109947
108386
111273
110294
111773
107545
108001
106901
107257
106986
106664
106462
106090
106031
106256
105736
105875
110871
109869
110632
110808
103223
103434
103094
102852
100932
102310
102565
101608
102024
101394
97770.8
96109.9
96385.7
95692.6
97323.1
96940
96582
99508.7
99928.5
100358
98932.7
98145
98660.2
100603
93721.1
93529.4
93932.3
93838.1
94330.1
94464.9
94671.3
94240.7
94062.2
94895.1
95233.6
95527.5
95021.3
93363
93434.7
93015.5
93291.1
91860.3
92629.3
103705
104003
104343
104742
104973
104625
104762
104687
105203
105236
105624
105518
105587
105282
105455
109679
109813
108949
109684
108531
111746
110367
107343
107774
106749
107093
106873
106545
106381
106099
106018
106288
106176
105806
105951
105886
110055
110814
103476
103610
103343
102999
101154
102518
102303
101889
101415
97930.2
96019.1
96257.6
95833.3
97398.3
96968
96714.3
99407.6
99761
100188
100375
99125.8
98291.4
98558.9
100792
93753.3
93560
93887.7
94005.8
93828.9
94342.1
94431.4
94628.7
94189.2
94146.8
94824.9
95236.9
95513.6
95089.4
93454
93523.3
92982.4
93258.3
93450.9
103915
104111
104497
104895
105150
104775
104921
104905
105280
105316
105698
105593
105572
105676
105445
110437
109188
110043
108286
111042
107125
107278
107897
107427
106680
106912
106729
106505
106359
106074
106268
106176
105798
106005
105956
110537
103562
103829
103444
102762
103210
101177
102501
102003
101615
97921.3
96284.1
95818.9
97591.6
97168.9
96658
99580.3
99931
100218
100666
99040.4
98184.2
98749.3
101034
93727
93665.6
93923
94008.4
93870.2
94272.4
94460.1
94703.3
94524.2
94183.8
94123.1
94881.9
95342.1
95639
95028.8
93572.6
93592.5
93453
93578
103949
104301
104717
104453
105086
105223
104979
105099
105039
105454
105463
105729
105705
105746
105565
110782
108894
110082
108425
111250
106960
106997
107644
107259
106562
106763
106607
106407
106297
106090
106212
106133
105856
105998
106055
105964
103793
104008
103391
103787
102761
103246
101523
102474
102264
101856
97782.5
96444.8
96097.7
95933.3
97598.8
97186.6
96818.9
99462.2
99848.3
100405
100776
99178.7
98211.8
98711
101197
93792
93666.1
93949.2
94075.2
93911.8
94330.6
94640.7
94487.9
94118.1
94821.4
95305.3
95582.2
95143.7
93673.5
93407.7
93650.2
93501.8
93681.5
93676.8
104181
104350
104851
104682
105152
105380
105172
105291
105237
105523
105576
105531
105575
105778
105747
105847
105680
109043
110485
109571
108065
111989
106774
106817
107693
107362
107002
106504
106613
106511
106383
106274
106194
106130
105927
106022
106077
106041
104011
104250
103722
103949
102985
103499
101659
102732
102340
102095
97948.6
96401
96192.8
95820.3
97433
97848.2
97016.8
96705.4
99536.5
100091
100645
100346
101056
98981.1
98348.4
98564.7
101469
93892.3
93790.5
93739.6
93962.9
94075.3
93944.3
93931.6
94312.4
94529.7
94689
94395.7
94127.4
94859.7
95423.3
95633
95094.2
93747.9
93784.6
93668.3
93764.3
93786.9
104579
105058
104736
105404
105360
105212
105508
105713
105752
105683
105735
105860
105898
105931
105784
108495
110441
109675
108059
111464
106600
106821
106596
107348
107107
106905
106416
106476
106401
106300
106209
106157
106109
106000
106068
106073
104329
104469
103773
104194
102981
103486
102033
102669
96498.7
96111.6
95917.2
97467
97891.4
97085.5
96891.4
99215.7
99635.2
100154
100802
100617
101220
98994.8
98216.7
98750.3
101531
93871.9
93846.5
94014.7
94039
94089.3
93962.5
93957.2
94254.7
94473
94608.8
94357.7
94191.1
94742.9
94964.8
95356.3
95525.8
95214.5
93832.1
93941
93798.3
93856.4
93877.9
104634
105121
104946
105549
105556
105447
105667
105801
105793
105889
105874
105921
105914
106014
106009
105905
108546
110032
109189
107628
111383
106447
106571
106433
107075
107317
106661
106376
106353
106324
106278
106181
106146
106113
106061
106104
106080
104388
104532
104017
104337
103234
103715
102183
102803
96418.8
96193.4
95819.9
97267.5
97712
96884
99350.4
99805.2
100587
100043
101095
98371.6
98679.6
101734
93923.7
93878.3
93994.1
93999.5
94041.3
93985.5
93976.6
93945.6
94227.6
94244.9
94495.9
94638.6
94295.3
94069.5
94724.8
94948.4
95528.9
95193.8
93883.7
93962.8
94053.9
93944.3
93915.8
104847
105344
104996
105733
105616
105683
105527
105817
105993
105974
106019
105970
106017
106049
106006
106124
106081
108166
110142
109288
107417
110948
106259
106406
106493
106280
106758
106961
106561
106303
106231
106232
106220
106146
106177
106128
106111
106109
106097
106130
106110
106133
104639
104832
104267
103996
104649
103276
103652
102006
102430
102639
103119
96523.4
96071.8
95646.9
95889.8
97263.3
97733.2
96701
97059.9
99306.8
99864.2
100697
100435
101286
98260.5
98797.8
101685
93968
93950.8
93994.3
93998
93999.8
93979.1
94003.1
94111.6
94170.2
94405.1
94529.6
94282.8
94043
94818.1
94594.4
95059.7
95353.7
93963.7
94081.4
94173.2
94064.4
93988.5
104949
105388
105203
105884
105859
105942
105779
105994
106051
106134
106160
106156
106089
106128
106154
106246
106140
107666
108353
109663
108850
107386
106952
110995
106186
106195
106178
106252
106112
106671
106300
106227
106127
106139
106185
106118
106108
106104
106120
106139
106119
106152
106157
106172
104835
104957
104584
104232
104855
103830
102269
102521
102996
103262
96387.7
96178.7
95569.1
95774.4
97455.5
97895.9
96790.7
97016.7
99594.6
99034.5
100108
100959
100429
101204
98595.5
98071.7
101906
94033.4
93992.1
93978.3
94000.3
94015.9
94003.2
93984.6
94040.6
94045.2
94110.6
94435.6
94319.9
94177.9
94011
94732.5
94527.1
95000.5
95309
94006.5
94167.7
94083.1
94295.4
105221
105602
106073
106046
105947
105824
106181
106201
106282
106171
106245
106288
106202
106202
106284
106324
106228
107430
107922
109572
109039
106827
106688
110560
106028
106028
106068
106118
106153
105973
106353
106107
106026
106074
106114
106088
106079
106108
106152
106125
106228
106197
105105
105208
104837
104580
104132
105123
103759
102326
102761
103032
103551
96451.2
96057.3
95437.4
95835.6
97391.9
97758.9
96674
97154.7
99581.6
99059.2
100059
101104
100580
101498
98626.1
98165.6
101780
102182
94079.8
94061
93951.6
93953.6
94003.6
94034.1
93970.7
94085.5
94014.4
94049.3
94359.7
94261
94146.3
93968.6
94840.7
94576.5
94393.4
95122.8
94089.3
94276.1
94125.8
94297.4
94389.3
105421
105640
106236
106202
106041
106383
106441
106405
106401
106459
106244
106292
106424
106459
106296
107014
108018
109799
108630
106478
106319
110644
105937
105859
105910
105878
105834
106123
106202
105811
105925
105975
106047
106021
106062
106175
106124
106286
106222
105320
105418
105169
104810
104293
105320
104092
102707
103282
103618
96319.2
96105.2
95397.2
95670.4
97518.7
97990.6
96827.2
97079.4
99336.3
99837.1
98816.1
100380
101014
101464
100795
98384.3
102070
102335
94143.9
94106.1
93933.5
93925.2
94028.7
94096.2
94054.7
93988
94124.9
94141.2
93929
94021.1
94024.2
94255.8
94051.9
93928
94814.6
94489.2
94305.5
95064.4
94295.3
94366.1
94214.1
94501.7
105928
106292
106358
106328
106245
106512
106443
106580
106471
106504
106577
106329
106395
106519
106495
106332
106373
106860
106561
107611
109619
108649
106053
106018
110195
105791
105771
105779
105668
105844
105831
105631
105755
105908
105957
106033
105999
106070
106198
106104
106276
106215
105648
105700
105288
105087
104720
104526
105577
104251
102899
103230
103888
96346.3
95930.7
95164.9
95433.1
95513.9
97417.8
97998.1
96758.2
97142.4
99359.7
99839.1
98764.9
100436
101275
101665
100896
98444.8
102030
102607
94194
94181.8
93972
93907.1
93900.8
93978.1
94082.6
94074.6
94147.8
94175.9
93890.1
93925.2
93927.2
93997.3
94140.7
94027.2
93858.2
94644.5
94917.4
94329.2
94519.7
94175.7
94384.5
94435.3
94237.9
94562.6
106004
106553
106566
106599
106458
106698
106653
106776
106649
106662
106731
106644
106574
106417
106486
106387
107057
106233
107957
109124
105658
105696
110266
105649
105712
105580
105525
105479
105644
105609
105420
105684
105752
105830
105882
105996
105936
106035
106177
106125
106336
106272
105766
105589
105274
105072
104593
105784
104172
102842
103420
103888
96549
96180.9
95955.2
95050.4
95229.3
95480.6
97574.1
98268.3
97819.8
96983.1
99593.6
99111.2
100162
98858.9
100722
101207
101561
102234
102721
94264
93931.1
93893.7
93837.5
93991.8
94118.9
94062.4
94175.8
94250.4
93856.5
93870.4
93826.1
93922.9
93947.3
93819.1
94665.4
94840.2
94180.3
94382.2
94063.8
94441.6
94408.4
94525.7
94321.7
94651.8
106240
106705
106764
106714
106512
106788
106850
106891
106734
106711
106761
106700
106677
106561
106510
106406
106081
106579
105879
107795
109021
105293
105611
105353
109880
105507
105567
105436
105338
105318
105370
105288
105240
105310
105561
105665
105809
105873
105982
105944
106054
106213
106102
106312
106257
106033
105734
105764
105596
105163
104872
106149
104405
103211
103723
104244
96642.9
96166.2
95754.2
94902.4
95231.5
95551
97418.9
98358.5
97849.6
96934.7
99566.4
99244.5
100202
98663.9
100753
101370
101761
102543
102097
103213
94320.6
93928.1
93871.2
93798.5
94160.4
94088.4
94225.8
94275.2
93774.5
93807.4
93768.3
93873.9
93908.3
93767.5
94547.9
94036.1
94225
94394.8
93941.1
94538.1
94500.4
94585.8
94654.2
106219
106439
106991
106963
106921
106894
107037
107086
107076
106894
106872
106939
106850
106794
106648
106593
106478
105718
106092
106485
108356
107215
109424
104930
105174
105108
110043
105353
105472
105240
105142
105154
105194
104968
105026
105554
105625
105704
105800
105942
105884
106003
106200
106136
106365
106316
106069
106052
105742
105475
104889
106377
104652
103977
104424
96543.5
96270.9
95886.5
94802.5
95072.1
95404
97616.9
97116.9
98158.2
99634.3
99078.9
99913.1
100511
98755.8
101044
101283
101654
102746
102275
103363
94392.7
93949.1
93819.1
93870.9
93747.8
94223
94126.7
94038.8
94271.2
94340.4
93696.9
93721.9
93719.6
93744.7
93779.1
93730.2
94586.5
93951.3
94108.3
94241.5
93832.4
94557.6
94492.2
94752.2
106575
106695
107190
107145
107157
107091
107173
107196
107191
107071
107022
106993
106950
106927
106662
106581
106415
106544
105357
105671
105937
106704
108231
107118
109278
104687
104851
105056
104838
109712
105250
105334
105134
105105
104962
104995
104877
104844
105456
105550
105711
105817
105903
105936
106044
106234
106097
106317
106292
106285
106035
105535
105261
106632
104744
103925
104347
96585.8
96074.5
95751.9
94853.6
95110.5
95205.6
95521.4
97510.5
97091.3
98284.4
99386.5
100074
100506
98599.1
101190
101601
101784
102587
103113
102081