/*--------------------------------*- C++ -*----------------------------------*\
| =========                 |                                                 |
| \\      /  F ield         | OpenFOAM: The Open Source CFD Toolbox           |
|  \\    /   O peration     | Version:  v2012                                 |
|   \\  /    A nd           | Website:  www.openfoam.com                      |
|    \\/     M anipulation  |                                                 |
\*---------------------------------------------------------------------------*/
FoamFile
{
    version     2.0;
    format      ascii;
    class       surfaceScalarField;
    location    "0.3";
    object      phi;
}
// * * * * * * * * * * * * * * * * * * * * * * * * * * * * * * * * * * * * * //

dimensions      [0 3 -1 0 0 0 0];
oriented        oriented;


internalField   nonuniform List<scalar> 
21888
(
0.507476
-0.514374
-0.370017
0.877493
-0.56035
0.0459757
-0.692116
0.322099
0.631019
0.246474
-0.565592
-0.64614
0.807483
-0.485384
0.623388
-0.330069
0.576543
-0.029624
-0.535968
-0.51925
-0.126891
0.477414
0.328118
-0.813502
0.688931
-0.0655428
0.536899
0.039644
-0.548874
-0.541128
0.397521
-0.524412
0.50521
-0.0277959
0.799145
-0.471027
-0.415981
0.681354
0.471356
0.544854
0.00183119
-0.550705
0.00896957
-0.550097
-0.535458
0.0110455
-0.659418
0.631622
0.139727
0.217044
-0.68807
-0.508244
0.0922632
0.143322
0.538032
-0.387988
0.859344
0.156866
-0.533626
-0.541735
-0.555307
-0.497198
0.591538
0.0400849
-0.56988
0.709607
0.667503
-0.450459
-0.528092
-0.159978
-0.435829
-0.413092
0.556414
0.529416
0.446252
0.748404
-0.541268
0.00764141
-0.0261383
-0.515597
0.132612
-0.68792
-0.543707
0.0465081
-0.594102
0.634187
0.0976227
0.115504
-0.517029
0.0665701
-0.677007
-0.584674
0.148845
0.0455343
0.510879
0.00282644
0.52659
0.529956
-0.0837041
0.705573
0.0428304
-0.567406
-0.536065
-0.382985
-0.692319
-0.538166
0.650995
-0.0168079
0.701789
-0.604167
-0.530664
0.646168
0.552526
-0.485956
-0.528162
0.57549
0.513706
0.517261
0.621869
0.693825
-0.367945
-0.199461
0.0516702
-0.587735
-0.75093
-0.0957815
-0.596538
-0.560297
0.0221313
-0.523459
0.506651
0.171125
-0.0516402
0.122709
0.0576909
-0.543647
-0.614167
0.086005
0.0514074
0.524083
0.0370633
0.476643
-0.0948471
0.612108
0.545538
0.0763307
0.618518
0.0753073
0.343859
-0.54332
-0.508627
-0.243877
-0.555765
-0.195165
-0.651546
-0.600955
-0.592036
0.749884
-0.243232
0.587291
-0.416165
0.453977
-0.505618
0.685054
-0.562345
0.553573
-0.495882
-0.707053
0.163406
-0.621048
0.596946
0.561146
0.381795
0.60216
0.694849
-0.408772
0.484079
-0.581261
0.0379417
-0.372662
-0.135965
-0.616538
-0.776427
-0.525169
-0.126378
-0.0374246
-0.563531
-0.53569
-0.0563462
0.341112
0.441822
0.0249455
-0.751102
0.334936
-0.297124
0.0479556
-0.332477
-0.579114
-0.0419334
0.107425
0.489521
0.31483
0.246316
0.696626
-0.289719
0.891879
0.436983
0.257866
0.717813
-0.233733
-0.578596
-0.671655
-0.446919
-0.329508
-0.562593
-0.573296
-0.567807
-0.635461
0.515122
-0.17401
0.686582
-0.24476
-0.669574
0.69452
-0.334638
-0.587816
0.290691
-0.53986
-0.637956
0.305479
0.594507
-0.63644
0.544407
0.735837
0.406906
0.309925
0.581954
-0.373886
0.631752
0.343927
0.281388
-0.722078
0.143482
-0.576478
-0.0951772
0.290184
-0.619692
-0.540885
-0.0217086
-0.0310352
-0.542261
0.0664755
-0.634283
-0.567216
-0.0682444
0.512572
-0.666146
0.421386
0.0283736
-0.646673
0.312035
-0.355982
-0.599358
0.0594977
-0.0434491
-0.293878
-0.575359
-0.0610815
-0.164638
0.709045
0.363191
0.372646
0.770098
-0.394538
0.704463
0.570269
0.467114
0.768409
-0.424482
-0.36228
0.643668
-0.431895
-0.432996
-0.662393
-0.650727
-0.474409
-0.56397
-0.638402
-0.643603
0.150292
-0.40641
0.827796
0.66638
-0.638006
0.791054
-0.479019
0.248713
-0.604695
0.555127
-0.495629
0.675522
-0.718971
0.381643
0.54935
-0.610432
0.316195
0.392851
0.688841
0.37556
0.361267
0.343197
0.166993
0.403277
-0.190585
0.657699
0.577823
0.219186
0.332062
-0.763957
0.284082
-0.717077
-0.378311
-0.156532
-0.494195
0.367608
-0.842017
-0.196362
-0.476272
-0.162129
-0.643056
-0.000547522
-0.369048
0.51934
0.25997
0.458749
0.153047
-0.694682
0.215663
-0.445969
-0.049568
-0.113985
-0.169621
-0.631764
0.021332
-0.214091
0.606941
0.353462
0.335379
0.729021
0.528259
-0.326045
0.669242
0.391026
0.443609
-0.037261
0.615084
-0.479657
0.698843
-0.385015
-0.436407
-0.32755
0.290462
-0.668774
-0.592939
-0.690557
-0.374229
-0.467787
-0.481274
-0.536359
-0.352594
-0.632311
0.039683
0.622662
-0.362692
0.534616
-0.0758671
-0.445773
0.598821
0.793645
-0.577982
-0.515575
0.0696056
-0.565143
0.576867
-0.690852
-0.52799
0.358369
0.596225
-0.574893
0.39543
0.211511
0.730809
0.402977
0.143816
0.384444
0.244967
0.424275
0.534842
-0.0821079
0.525716
-0.748745
0.711484
0.532976
-0.0499014
0.320749
-0.705764
0.363928
-0.691478
-0.348025
0.0436751
-0.636614
-0.0112966
-0.679261
0.1037
-0.571487
0.370746
-0.852021
-0.165612
0.282159
-0.634752
-0.350152
0.574299
0.727153
-0.104491
-0.648212
0.28552
0.651286
0.347872
-0.0493919
-0.614152
0.0361705
-0.544547
0.011724
-0.757419
0.0665669
0.0682352
-0.39905
0.125541
-0.700434
0.737228
0.318723
0.412086
0.721699
0.62941
-0.185499
0.609774
0.524429
0.484537
0.226947
-0.0733225
0.606299
-0.618528
0.568626
-0.341836
-0.647803
0.341266
-0.689291
-0.647911
-0.57556
-0.7371
-0.236775
-0.615246
-0.293487
0.219487
-0.569639
-0.0442289
-0.661789
0.557298
-0.376269
0.488508
0.162778
0.621065
-0.273193
0.571673
-0.604464
0.640634
-0.559402
0.0148551
-0.547678
0.691617
-0.62505
0.557989
-0.489754
0.15894
0.669677
-0.544136
-0.480947
0.575915
0.161312
-0.203986
0.616072
0.5362
0.254755
0.374655
0.330064
0.27971
0.779184
0.411214
0.574833
-0.347886
0.469888
0.136411
0.763893
-0.195267
0.400488
-0.742324
-0.00350164
-0.644301
-0.288802
-0.0113721
-0.636539
0.0669182
-0.642479
-0.523509
-0.213591
-0.760284
-0.618598
0.371282
-0.664768
-0.198358
0.444279
-0.0895238
0.646822
0.195404
-0.403892
0.56667
-0.741357
0.468164
-0.572775
-0.0316884
-0.100723
-0.55792
0.143939
-0.539777
-0.0852726
0.179923
-0.380838
0.0864361
-0.630572
-0.52997
0.0490229
0.37193
0.6312
0.580234
0.0358377
0.49807
0.0381303
0.704719
0.77778
0.435658
0.343527
-0.0833208
0.494535
0.491512
0.416008
0.630946
-0.665791
0.470524
-0.518069
-0.224255
-0.52157
-0.655673
0.416126
-0.704928
-0.569621
-0.391283
-0.251196
-0.604874
-0.331545
-0.428739
-0.0307999
-0.587798
-0.248643
-0.728328
-0.221512
0.5708
-0.660324
0.24293
0.62838
-0.432976
0.345158
0.718768
-0.250604
-0.496197
0.464508
-0.742065
0.641342
-0.559606
0.00168574
-0.415667
0.467323
-0.552596
0.621544
-0.441621
0.240706
0.720827
-0.634391
-0.58155
-0.174185
0.546114
0.457015
0.618365
0.581952
0.381108
0.323611
0.400883
0.376897
0.426067
0.724635
0.613629
-0.122117
0.690231
-0.274223
-0.0616807
0.692626
0.733477
-0.262953
0.426985
-0.65124
0.219661
-0.741232
-0.0652368
-0.590437
-0.277943
-0.44154
-0.12808
-0.692736
0.113456
-0.71833
0.137519
-0.469065
-0.459539
-0.590818
0.431427
-0.680069
-0.296901
0.45444
0.116361
-0.0319447
0.697369
0.285793
0.719976
-0.374817
-0.592808
0.342204
-0.605962
0.109765
-0.277556
0.0485334
-0.604276
-0.726713
0.311046
-0.25939
-0.31189
0.279206
-0.58897
-0.0454211
0.184263
-0.765812
-0.16965
0.626665
0.717475
-0.0991107
-0.05236
0.634312
0.724494
-0.265449
0.642346
0.408631
0.363802
0.360833
0.551949
0.568113
0.459254
0.522977
0.457023
-0.431579
-0.806468
-0.718517
0.471777
-0.74972
-0.57928
-0.580811
-0.134213
-0.334851
-0.593752
0.124631
-0.715449
-0.208292
0.336676
-0.633577
0.722844
-0.606483
-0.658367
0.626422
0.322552
-0.372574
0.66818
-0.325976
0.621812
-0.512047
0.344255
0.60822
-0.559687
-0.29323
0.395851
-0.655241
-0.657894
0.346004
-0.378688
-0.404707
-0.567921
0.5225
-0.429137
0.574305
0.452026
0.535201
0.370052
0.354442
0.425671
0.216675
0.772433
0.730885
0.614572
-0.0626236
0.562926
0.00518737
0.700878
-0.241624
-0.141078
0.664055
0.783008
-0.325986
0.433581
-0.86516
-0.47409
-0.332379
-0.0566268
-0.66189
-0.316139
0.14253
-0.721809
-0.280944
-0.299867
-0.615795
-0.469121
-0.717654
0.516382
-0.724674
-0.117195
0.458476
0.264368
0.0199387
0.781028
0.295605
0.282245
0.132944
-0.644991
0.797836
-0.45358
0.238149
-0.683774
0.390544
-0.287923
-0.309236
-0.768411
0.389724
0.339899
-0.744606
-0.228022
-0.245912
-0.616079
0.186943
-0.0662445
0.640549
0.553877
-0.101851
-0.103148
0.638349
0.780114
0.770552
-0.105216
0.877649
0.625669
0.473495
0.500302
-0.430155
0.435342
0.270723
0.541385
0.59781
0.455042
-0.240392
-0.624769
-0.530716
0.213618
-0.545997
-0.519361
0.519443
-0.835581
-0.311718
-0.410091
-0.611585
-0.261995
-0.3538
-0.731116
-0.627054
-0.0905994
-0.205232
-0.733274
0.650907
-0.386539
0.649138
-0.629199
0.648857
-0.353251
0.675611
-0.393366
0.746435
-0.61349
-0.254447
0.292854
0.689419
-0.45127
0.425772
-0.713696
-0.699984
0.390748
-0.31026
-0.557664
0.493625
-0.721646
-0.668011
0.4221
0.537402
0.536498
0.212908
0.567206
0.475886
0.294666
0.333132
0.544516
-0.00707145
0.63274
0.72065
-0.247155
0.526963
-0.0266603
0.573566
-0.138224
0.454106
-0.183383
0.483359
0.0580261
0.0732808
0.524529
0.7278
-0.272758
0.381227
-0.621618
-0.411151
0.0832749
-0.613991
-0.462722
0.0908624
-0.610223
-0.454355
0.275947
-0.686038
-0.235854
-0.375731
-0.589654
-0.468056
-0.26306
-0.629031
-0.558655
0.529918
-0.73515
-0.203356
0.648057
0.0028497
-0.717718
0.331179
-0.0685801
0.0196573
0.32236
0.296053
-0.454715
-0.158775
-0.709162
0.713318
-0.420464
0.262048
-0.283389
-0.322948
-0.683987
0.373727
0.217221
-0.774885
-0.174387
-0.626981
-0.0946658
-0.261887
-0.0800117
0.617413
-0.189641
0.726139
0.688793
0.560134
-0.386398
0.681065
-0.273277
0.606409
0.527213
0.359463
0.3685
0.352149
0.279808
0.546906
0.315882
0.299976
-0.449779
0.507805
0.441781
0.444518
0.278021
0.3753
-0.226002
-0.395616
-0.637153
-0.523129
0.199456
-0.662178
-0.334276
0.230134
-0.684488
-0.221025
-0.465013
-0.596756
-0.444682
-0.144972
-0.707742
-0.672305
0.0432743
0.115659
-0.674314
-0.764169
0.0290186
0.391184
-0.59454
-0.671878
0.674727
-0.340698
-0.602359
0.533779
-0.64662
0.666278
-0.324261
0.748927
-0.452874
-0.680467
0.521691
-0.764096
0.343632
0.685061
-0.423013
0.452135
-0.735524
-0.709771
0.386823
-0.336044
-0.40976
-0.3837
0.499887
-0.674274
0.499557
-0.594222
-0.599542
0.337655
0.427772
0.339741
0.469949
0.218844
0.35769
0.202445
0.401067
0.279997
0.161599
0.44481
0.688813
0.717153
-0.0619657
0.414115
-0.241573
0.521381
0.305333
0.537516
-0.221634
-0.227222
0.527198
0.280583
-0.00588123
0.447662
-0.0418022
0.48632
0.599807
-0.321786
-0.320388
0.695687
0.208127
-0.603743
-0.437697
-0.0618115
-0.461317
-0.72399
-0.795593
-0.534035
-0.476361
0.320713
-0.785726
-0.741728
-0.592083
-0.673777
-0.63104
0.614725
-0.585707
0.0201852
0.35434
-0.465384
0.124686
0.0639184
0.068395
0.424666
0.232187
-0.228332
-0.242404
0.752116
-0.408484
0.329103
-0.348701
-0.684202
0.348158
0.366714
-0.776474
-0.581356
0.197655
-0.0996549
-0.174718
-0.227508
-0.346547
-0.127716
0.555489
-0.294675
0.634416
0.672394
0.619911
-0.271741
0.551738
-0.228414
0.673225
0.67508
0.488739
-0.537928
0.475962
0.408234
-0.0165472
0.420026
-0.114693
0.535946
0.0015693
0.305564
-0.241698
0.522281
0.40586
0.358603
0.358109
0.373901
-0.229343
-0.3744
-0.66704
-0.0906836
-0.633306
-0.47488
-0.691981
0.157946
0.085781
-0.562142
-0.342182
-0.443544
-0.106924
-0.634805
0.0778592
-0.669942
-0.474875
-0.198902
0.150652
-0.781692
-0.68273
0.0970237
-0.56117
-0.361826
0.716166
-0.500713
0.625399
-0.542326
0.606244
-0.432318
0.659677
-0.23501
-0.38425
0.616437
-0.850621
0.622289
-0.577163
0.334759
-0.669935
0.261451
0.710692
-0.38159
-0.71489
0.366189
-0.366732
-0.578819
0.650459
-0.750114
0.482664
-0.657381
0.471161
-0.69867
0.303911
0.260814
0.362675
0.516254
0.15614
0.433567
0.186345
0.345105
0.206634
0.559167
0.114057
0.141827
0.533253
-0.0537678
0.542506
0.10648
0.369483
0.0174212
0.390812
0.403479
0.421253
-0.488971
0.490541
-0.183407
0.338874
-0.0229556
0.428816
-0.103375
0.461978
0.554504
-0.196396
-0.32906
0.702961
0.181734
-0.556134
-0.613688
-0.0533517
-0.704372
-0.207798
-0.425508
-0.682678
-0.6062
-0.524784
-0.380408
0.255901
-0.598083
-0.550468
-0.556945
-0.51929
-0.476005
0.328363
-0.527265
-0.453329
0.666988
-0.569965
0.105818
-0.75106
0.389234
0.387106
-0.125661
0.117351
0.173926
-0.685234
0.450224
0.326443
-0.0687975
-0.484433
0.0451258
-0.335176
0.782341
-0.52089
0.400752
-0.678214
0.311483
-0.650769
0.0719508
-0.26745
-0.18622
-0.748637
0.0499677
-0.374303
-0.171704
0.432518
-0.117349
0.480024
0.462486
0.589707
0.531449
-0.197623
0.404257
0.700994
0.656564
0.517875
0.406628
-0.300149
0.386904
0.367857
0.505643
-0.102163
0.39812
0.0231336
0.445115
0.0454255
-0.200454
0.539329
0.325441
0.290274
0.35405
0.506565
-0.609486
-0.278847
-0.425524
-0.704356
-0.426777
-0.365161
-0.241039
0.241131
-0.765916
-0.745569
-0.0875446
-0.510538
-0.638013
0.0930882
-0.650034
0.158557
-0.677847
0.323995
-0.20327
0.127469
-0.580798
-0.627532
0.0575675
-0.544952
-0.3224
0.711634
-0.376386
0.763492
0.433013
-0.558674
-0.580155
0.697506
0.712172
-0.538246
-0.129931
0.665192
-0.338749
0.596394
-0.567377
0.0829446
0.584485
-0.539359
0.249309
-0.598929
0.0780391
0.614389
-0.213637
-0.255895
-0.676686
-0.720534
0.453084
0.394584
-0.580804
0.523636
-0.473668
-0.85859
0.484288
0.464167
-0.0316487
0.346818
0.282401
-0.173662
0.636148
0.416045
0.0659677
0.465482
0.375245
0.0290116
0.198873
0.50212
-0.112255
0.768819
0.716748
0.300705
0.105923
0.205494
0.0592807
0.327623
0.0354359
0.332421
0.295956
0.468249
-0.340061
0.385486
0.199268
-0.0853556
0.410797
0.359891
-0.0696167
0.427081
-0.073031
0.443297
0.0632677
0.206118
-0.815604
0.222778
-0.648302
-0.256306
-0.44805
-0.683083
0.360071
-0.60111
-0.386401
-0.405844
-0.539451
0.136256
-0.646794
-0.544924
-0.491476
-0.550378
-0.784068
0.6579
-0.600333
0.112949
-0.706784
0.384383
0.335248
0.363004
0.400488
-0.273771
0.153499
0.159259
-0.518192
0.388262
0.27564
0.0782016
0.55635
-0.473406
-0.827313
0.287954
-0.34962
0.707033
-0.628994
-0.722917
0.509279
-0.703416
0.447521
-0.52665
-0.150037
-0.32595
-0.405507
-0.0571677
-0.75725
0.283582
-0.219128
0.328242
0.409957
-0.063139
0.328732
-0.0463311
0.523893
-0.243146
0.659191
0.441213
0.222335
0.357743
-0.0820585
0.584179
0.68676
0.0349328
0.681816
0.359986
-0.25044
0.356363
0.402794
-0.1973
0.363059
0.247065
-0.131235
0.427191
0.337014
0.520833
-0.135347
-0.28119
0.480457
0.34118
0.145891
0.370266
0.426271
-0.592826
-0.345263
-0.303039
-0.793313
-0.546827
-0.668042
0.0669323
0.380851
-0.767252
-0.587454
0.18161
0.156785
-0.696236
-0.0828212
-0.563973
-0.627746
0.105451
-0.596928
0.265554
-0.815932
0.015932
-0.219482
-0.413701
0.695673
-0.31129
-0.310033
0.645281
0.456641
-0.0561524
-0.624788
0.351017
-0.471289
0.728653
-0.569394
0.598146
-0.209884
-0.523834
0.799473
0.638187
-0.559986
-0.270963
-0.0258844
0.666923
-0.378969
0.317303
-0.0158836
-0.31169
-0.0145543
0.445417
-0.595454
-0.578717
0.252767
-0.67025
0.264743
-0.635885
-0.311833
-0.352303
-0.758816
0.539687
0.403733
-0.0754916
0.363626
0.340595
-0.283088
0.806981
0.376103
0.213207
0.228006
0.435542
0.400391
-0.0426478
0.619112
0.574711
0.11205
0.671718
0.0466158
0.31337
0.152354
0.243446
0.112917
0.229891
0.164783
0.198276
0.411848
0.309749
0.0272654
0.297802
0.223031
0.34511
0.285232
0.0559479
-0.320045
0.465936
0.0502214
0.0554194
0.370852
-0.474197
-0.118629
-0.777236
-0.123022
-0.670291
-0.669849
-0.511258
-0.520522
-0.585642
-0.543693
-0.152542
0.0612779
-0.625251
-0.522294
-0.331374
-0.791312
0.571831
0.266761
-0.680462
0.38564
-0.689378
0.378088
0.60496
0.0403217
0.51206
0.548807
-0.338361
0.257364
0.0287519
0.428303
0.239488
-0.692411
0.421448
-0.718296
-0.707213
0.328244
0.604571
-0.620455
-0.681088
0.369398
-0.61607
0.601516
-0.328692
-0.417483
0.672873
-0.40813
0.264026
-0.575859
-0.748515
0.396212
-0.0859429
-0.178608
0.20974
0.285236
0.07839
-0.00317769
0.343772
0.420014
0.386966
0.515324
-0.13922
-0.142529
0.370535
0.505231
-0.0696893
0.257862
0.242588
-0.0091934
0.628305
0.565517
0.532064
0.186922
0.484796
0.290062
0.131457
0.181913
0.331059
-0.178705
-0.243059
0.355975
-0.126061
0.355952
0.329733
0.246771
0.165077
0.183688
0.325068
0.374145
-0.151114
0.437424
-0.0923135
0.302719
0.441078
0.024858
0.421073
-0.662322
-0.663861
-0.113375
0.00293896
-0.67323
-0.608572
-0.597999
0.0867415
-0.645463
0.124941
-0.575
-0.0106417
-0.750542
0.0536679
-0.678919
-0.468626
-0.674059
-0.117253
-0.108632
0.627763
-0.242123
0.692379
-0.314291
0.668085
0.228037
0.284023
0.0725887
0.476219
-0.699123
0.360762
-0.441759
-0.462004
0.490756
-0.0337005
-0.372736
0.612224
-0.285765
-0.352845
-0.0114993
-0.660146
0.0396914
-0.290748
0.667302
-0.0657857
0.366579
-0.695271
-0.748766
0.331283
-0.749766
0.341636
-0.484489
-0.20928
-0.352554
-0.705652
0.619709
-0.570013
0.391405
-0.165708
0.375448
-0.231454
0.309844
-0.282602
0.279425
0.112318
-0.159132
0.546098
0.506489
0.00883442
0.366011
0.300846
-0.134325
0.392187
-0.0856793
0.328267
0.454525
0.17378
0.428857
0.136661
0.0210405
0.511024
0.641447
0.475472
0.156551
0.133511
0.338465
0.0880006
0.177247
0.179261
0.176714
0.180435
0.149298
0.345512
-0.156722
0.340409
0.168346
0.158963
0.215182
0.28631
0.348765
0.137011
-0.350322
0.37518
0.0707509
-0.552145
-0.110177
-0.660922
-0.66552
-0.0793307
-0.5939
-0.687902
-0.558722
-0.450059
-0.684701
-0.440088
-0.310454
0.121081
0.558666
-0.67592
-0.803903
0.450256
-0.713553
0.399261
0.500075
0.16801
-0.135593
0.363631
0.354774
0.572664
0.340625
-0.35279
-0.759191
0.317432
-0.268435
-0.655921
0.62222
0.294566
-0.0436972
0.348403
-0.634167
-0.698953
0.346108
0.607878
-0.619378
0.593856
-0.554164
-0.771423
0.480674
-0.633279
0.567493
-0.418483
-0.364015
-0.531895
0.0474062
-0.741175
-0.670816
0.318262
0.0496955
0.786308
-0.394903
0.0928459
0.224165
0.195973
0.0834517
0.308291
0.347357
0.567139
-0.299924
0.308758
0.0660869
-0.139165
0.440011
0.193942
0.253022
0.602637
0.647684
0.142582
0.498865
0.618054
0.312772
0.133473
0.204991
-0.171225
0.259225
-0.154127
0.331373
0.285668
-0.108954
0.282771
0.134705
0.210806
0.186283
0.327309
0.339288
-0.124106
0.327607
-0.0412974
0.373829
-0.0250643
0.271717
0.391134
-0.0159532
-0.550265
-0.651015
-0.00990688
-0.669779
0.00425957
0.0360664
-0.629966
-0.566821
-0.788617
0.229895
0.265804
-0.715863
-0.418897
0.320213
-0.630667
-0.245236
0.00914723
-0.685067
-0.385317
0.835573
0.726614
-0.327352
-0.385461
0.55347
0.0172705
0.34636
0.372044
0.125245
0.447419
0.46587
-0.800953
0.448163
-0.483522
0.353785
0.673564
-0.378998
0.629867
-0.35055
0.152141
-0.425314
-0.0254006
-0.0255222
-0.0734898
0.188496
-0.716529
0.298046
-0.719234
0.355219
0.653843
-0.606437
-0.766517
0.025342
-0.0169725
-0.398267
0.612949
-0.563254
0.218046
-0.235093
0.327939
0.29393
-0.0697657
-0.194885
0.278337
0.250627
0.0576639
0.458399
-0.111041
0.627025
-0.0598864
0.464124
-0.155365
-0.279942
0.346029
0.160068
-0.126072
0.320014
0.305085
-0.0520623
-0.15353
0.756167
0.494155
-0.142237
0.641102
0.613022
0.0991561
0.213616
-0.0191502
0.224141
0.160149
0.309174
-0.049949
0.126857
0.158811
0.20022
0.0234139
0.259357
-0.0147291
0.225535
-0.13058
0.316863
0.196729
0.138856
0.200432
0.203502
0.332532
0.366069
0.0366236
0.356091
-0.606242
0.055977
-0.614949
-0.679686
-0.601982
-0.233179
-0.396787
-0.468404
-0.485968
0.331065
-0.749962
-0.57469
0.30115
-0.546387
0.587765
-0.578618
-0.354002
0.341297
0.450112
-0.688361
0.361009
-0.0415659
0.595036
-0.0103702
0.35673
-0.132928
0.580348
0.4555
-0.240198
-0.607821
0.124299
-0.254036
0.714381
-0.0845148
-0.605175
0.254625
-0.453035
-0.654877
0.229563
0.707064
-0.732465
0.515414
-0.540936
0.609569
-0.683059
-0.541112
0.729608
-0.421188
0.809805
-0.454586
-0.697575
0.0911378
-0.465367
-0.672233
0.657788
-0.67476
0.259521
0.246552
0.658396
-0.44035
0.133054
0.167859
0.180862
0.209861
0.0684759
0.267525
0.42227
0.0361288
0.353082
0.323605
0.30342
0.362383
0.190664
-0.231128
0.391196
0.234698
0.0853159
0.0739572
0.182636
0.61393
0.81776
0.382841
0.258261
0.177868
0.435154
0.226014
0.194466
0.247555
0.256296
-0.0961469
0.206347
0.257854
-0.0990434
0.27823
-0.0780101
0.244628
0.262159
0.220716
0.335585
-0.0985096
0.298941
-0.156806
0.360307
0.175726
0.402147
-0.0360776
-0.060243
0.416334
-0.403213
-0.211736
-0.588264
-0.0914222
-0.708578
0.106595
-0.66498
0.196576
0.274477
-0.760445
-0.475484
-0.524507
-0.0501828
0.0413787
-0.511391
-0.0672269
-0.865393
0.719888
-0.378591
0.573714
-0.123602
0.67083
-0.309821
0.532148
0.462108
0.296487
0.208026
0.372322
0.218565
0.236935
0.465953
-0.706151
0.652731
-0.528432
0.460345
-0.67812
0.593605
-0.400252
0.205361
0.745289
-0.515726
0.165952
-0.217051
0.0686324
0.0622303
0.0514883
-0.748865
0.327677
-0.778667
0.32408
0.55652
-0.465382
-0.466394
0.00102716
-0.505565
-0.166668
-0.11824
-0.489344
0.703201
-0.45665
0.262851
-0.103598
0.236653
-0.0688967
0.236756
-0.09727
0.278131
-0.194551
0.263026
0.170255
-0.255446
0.291574
0.0976369
-0.185847
0.489266
0.456159
-0.093776
-0.182716
0.373379
0.20848
-0.154888
0.240204
-0.252851
0.326808
-0.0702151
0.38728
0.22665
0.495613
0.322147
0.560709
0.645541
0.432213
0.0861848
0.139829
0.28065
0.00691362
0.240642
0.262142
-0.055795
0.108271
0.149584
0.179187
0.184132
0.00271344
0.241915
0.284482
-0.0223227
-0.0582168
0.278932
0.277368
0.261798
0.256895
0.0420461
-0.194133
0.369859
0.208014
0.380256
-0.417912
-0.479454
-0.185526
-0.563869
0.34972
-0.825204
-0.529637
-0.425015
0.764072
-0.831299
-0.515673
0.566612
0.153276
0.292239
0.44301
-0.57577
0.265949
0.0168712
0.515276
-0.0661731
0.528281
0.515052
0.444961
-0.0154663
0.387788
-0.109817
-0.05342
-0.0680864
0.640977
-0.0473722
-0.631913
0.231661
-0.426552
-0.636832
0.121106
0.673276
-0.507325
-0.682802
0.465751
-0.614169
0.644009
-0.581779
-0.572095
0.623584
-0.45099
0.752009
-0.427929
0.40145
-0.866833
-0.504537
0.439714
-0.606383
-0.517614
0.399374
-0.801646
0.312302
0.295359
0.684806
-0.421955
0.180883
0.0421022
0.209235
0.0818671
0.0325684
0.230458
-0.0934319
0.263687
0.415095
-0.123521
0.303641
-0.206005
0.270313
0.508067
-0.0188006
0.321319
0.328849
0.0445301
0.296731
-0.0882507
0.169989
0.294043
0.0327648
0.722263
-0.31728
0.639427
0.198933
0.361777
0.394744
0.250796
0.631146
0.248099
0.287564
0.243355
0.223138
0.190542
-0.0409589
0.234573
-0.0553863
0.264517
-0.0803859
0.219592
0.015535
0.261833
0.19251
0.0692875
0.27243
0.234556
0.216951
0.152908
-0.20583
0.413844
0.174426
0.382088
0.418045
-0.603571
-0.145824
-0.452659
-0.372545
-0.147549
0.339057
-0.153156
-0.678143
0.241425
-0.757098
0.605452
-0.452177
0.60953
-0.317291
0.707886
-0.264876
0.720373
-0.454423
0.724758
0.449103
0.512815
0.186892
0.32816
0.0532902
0.391671
0.441078
0.487797
-0.597614
0.57191
-0.62533
0.572891
-0.636713
0.589341
-0.405171
0.258255
0.632799
-0.511693
0.101181
-0.820753
0.313428
-0.355002
0.0298402
0.0510196
-0.0131294
-0.792699
0.341709
-0.74522
0.317291
-0.116164
-0.427118
-0.16548
-0.470156
-0.136227
-0.402272
-0.480397
0.705064
-0.409705
0.283109
0.191281
-0.010398
0.233384
0.161502
0.0477329
0.243369
-0.204461
0.23703
0.137026
0.170749
0.0929372
0.18012
0.122845
0.381435
-0.111123
0.190787
0.362635
0.377218
-0.055899
-0.162798
0.207328
0.133933
0.205793
-0.0754006
0.24539
-0.260008
0.292773
0.325456
0.396807
0.593883
0.0455438
0.756521
0.576252
0.63018
-0.0157719
0.263871
0.0924333
0.195131
0.0237371
0.219618
0.229569
-0.00643188
0.174771
0.193614
0.209131
0.149184
0.216929
0.00266331
0.255401
0.286238
0.00122735
0.271203
-0.0457375
0.280294
-0.148953
0.301861
0.264891
0.361318
-0.400189
-0.203381
-0.598483
0.314976
-0.687521
-0.547738
0.471893
-0.625049
-0.436719
-0.442122
0.340576
0.157354
0.403081
0.0333735
0.223668
0.50109
0.672771
0.365157
0.147658
0.0147834
0.313377
0.406454
0.0787452
0.362333
-0.0257035
-0.0524396
0.617589
-0.0282479
-0.620372
0.215201
-0.362117
-0.526339
0.0146462
-0.450834
0.552015
0.727646
-0.414218
-0.737303
0.382301
0.621744
-0.591904
0.640079
-0.589059
-0.609196
0.596067
-0.403511
0.719841
-0.402551
0.557999
-0.674163
-0.63207
0.204952
-0.635636
-0.768297
0.155727
-0.806364
0.325967
0.310136
0.653533
-0.370424
0.206531
0.0289222
0.218482
0.198061
0.0453081
0.0887205
0.148309
0.225747
-0.0978496
0.190787
0.351435
-0.171315
-0.224993
0.347838
0.266096
-0.302371
0.493158
0.0602636
-0.284149
0.22825
-0.0176657
0.222182
-0.0882488
0.214371
-0.00857871
0.12266
-0.0146181
0.169568
0.123205
-0.120533
0.51734
0.47335
-0.367909
0.413453
0.563055
0.193466
0.0391028
0.537149
-0.00834763
0.638527
0.11503
0.148841
0.207463
0.218868
0.222281
-0.0257427
0.200513
0.207404
-0.0137892
0.204676
0.00445529
-0.122417
0.2716
0.132985
0.240501
0.281521
0.118219
0.152984
0.292176
0.00968479
0.220948
0.0439431
0.0817954
0.279523
0.361168
-0.564549
-0.237315
-0.303264
-0.384256
0.252262
0.862629
-0.390735
-0.295743
-0.329306
-0.732462
0.224351
-0.666472
0.799968
-0.459392
-0.553351
0.710704
-0.150269
0.608446
-0.575072
-0.0850486
0.586138
0.28676
0.386011
0.443902
0.434418
0.395172
0.0503778
0.356076
0.412711
0.552137
-0.57784
0.565149
-0.637166
0.608919
-0.311139
0.291416
0.576225
-0.561579
0.276812
-0.057181
-0.755608
0.34139
-0.115559
-0.373307
0.0481751
-0.0128337
-0.0410999
-0.762526
0.359015
-0.763201
0.36065
-0.642452
-0.0317107
-0.4375
0.226992
-0.541305
-0.650637
-0.436559
0.646505
-0.336368
0.276081
0.20873
-0.00219872
0.237652
0.153615
0.0648674
0.198923
0.198075
-0.0497656
0.127897
0.171571
0.0192154
0.0672865
0.176523
0.391686
-0.125591
0.125249
-0.226282
0.286546
0.374497
-0.146247
0.204517
0.126122
0.160989
0.201112
-0.0784513
0.186494
0.183874
-0.0606689
0.556443
-0.095473
0.568823
0.444511
-0.0310577
0.554708
0.730615
0.639257
-0.0487262
0.197567
0.0385091
0.168954
0.0309324
0.187935
0.201489
0.020792
0.181661
0.151787
0.190887
-0.169099
0.173554
0.102501
0.251204
-0.0750847
0.315586
0.126992
0.154529
0.279976
0.217091
0.230633
0.323466
-0.312287
-0.54058
0.150878
-0.535135
-0.752343
0.361607
0.283525
-0.612831
-0.508111
-0.515594
0.705624
0.094344
0.251313
-0.695241
0.544972
-0.0867958
-0.0229357
0.620575
0.0485308
0.537607
0.434542
0.100132
0.34377
0.0643723
0.370046
0.0484794
0.346693
0.404556
0.0483135
0.364397
-0.0126909
0.59301
0.0159081
-0.65449
0.343351
-0.363073
-0.218228
0.602427
-0.325615
0.545246
0.697768
-0.356378
-0.577229
0.46167
-0.648345
0.275038
0.657687
-0.609512
0.618238
-0.631072
-0.66257
0.621471
-0.404186
0.686641
-0.32599
0.656051
-0.687761
0.389842
-0.827342
-0.622825
0.08152
0.00541386
-0.835425
0.398866
0.350272
0.650212
-0.374131
0.199291
0.209118
0.0285337
0.236439
0.120472
0.0574263
0.140649
0.159352
0.185323
0.204539
0.271759
-0.204473
0.2645
-0.0879768
0.165405
0.248906
0.336708
-0.211459
0.3875
-0.100955
0.125512
0.287976
-0.0834592
-0.160551
0.286674
0.000437628
-0.0896842
0.276178
0.184312
-0.191757
0.131088
-0.19972
0.756163
0.349038
0.369103
-0.352821
0.321763
-0.14347
0.698178
0.587145
-0.180388
0.819645
0.236076
0.199887
0.208727
0.181869
-0.000208038
-0.0877516
0.239539
0.180345
0.0105415
0.213199
-0.0396444
-0.107685
0.210186
0.143518
0.149626
0.16596
0.304155
0.115785
0.164191
0.266863
-0.0497713
-0.035374
0.266007
0.288092
0.487713
-0.0528674
-0.588002
-0.468818
-0.261217
-0.564719
-0.0481125
0.202146
-0.710257
0.0994248
-0.615019
0.683823
-0.589479
0.630995
-0.379682
0.757356
-0.212384
-0.630679
0.543884
0.586471
-0.609406
0.066652
0.553923
0.0967467
0.440861
0.498914
0.470178
0.392084
0.123047
0.223646
0.229993
0.174563
0.135441
0.228956
0.58032
-0.630126
0.646034
0.287139
0.526532
-0.74476
0.372153
-0.117324
-0.774872
0.418494
0.080458
-0.186675
-0.499834
0.0087262
-0.10454
-0.00865579
-0.763758
0.359573
-0.82618
0.50019
-0.29792
-0.646154
-0.181188
-0.564634
0.564123
-0.558709
-0.271302
-0.364892
0.541935
-0.191663
0.167804
-0.00755195
0.206843
-0.152866
0.1814
0.121251
0.115187
0.241723
0.186537
-0.0458883
0.183981
-0.0246287
0.0215265
0.183012
0.0600275
-0.236694
0.148717
0.278113
-0.112709
0.290626
-0.0417198
-0.0161123
0.176041
0.177158
-0.170846
0.296358
0.0512818
0.203214
0.152039
0.0844212
-0.0842378
0.268549
0.240053
-0.108966
0.192928
0.563236
-0.109509
0.458546
-0.097861
0.466964
0.431599
-0.109836
0.51779
0.0166197
0.570525
0.150778
0.668866
0.12625
0.109827
0.0428753
0.157011
0.178857
0.0298707
0.0941173
0.180137
0.169655
0.0698836
0.22374
0.170542
0.259303
-0.137736
0.303696
0.0839918
0.220163
0.248183
0.129126
0.216235
0.0634472
0.224645
0.211998
-0.512532
0.043714
0.454531
-0.715748
-0.362573
-0.560644
-0.610833
-0.403021
0.64489
0.0389332
0.0415159
0.377674
-0.655935
0.443551
-0.0442086
-0.112051
-0.0290869
0.711542
0.65067
-0.0594226
0.500283
0.439492
0.152965
0.317213
0.214189
0.177895
0.186494
0.146155
0.0774917
0.365434
0.320717
0.443145
0.548644
0.0973902
-0.457622
0.772139
-0.399986
0.654814
0.41154
0.694643
-0.614185
0.507969
0.620816
-0.61209
0.618299
-0.722839
-0.644904
0.636249
-0.466607
0.646397
-0.146208
-0.595574
0.297655
0.569005
-0.750193
-0.110103
-0.82018
0.261471
-0.675997
0.404694
-0.752802
0.38791
0.454735
0.614707
-0.446903
0.171305
0.0539766
0.154001
0.0273991
-0.0993079
0.214495
0.145373
0.0411644
0.138093
0.129372
0.166899
0.0837044
-0.237811
0.297838
-0.0890938
0.177917
-0.269219
0.227499
-0.327389
0.311277
-0.151348
0.342373
-0.165214
0.126992
0.0271392
-0.179048
0.23033
0.0241664
0.200526
-0.0484867
0.165222
-0.0808007
0.155816
0.16278
0.10577
0.0562562
-0.364479
0.557406
0.579855
0.32209
0.360685
0.102485
-0.301879
0.192043
-0.150233
0.668024
0.420292
0.818802
0.672081
0.169125
-0.048004
0.157831
0.186882
-0.11902
0.213137
0.0611171
0.121651
-0.116018
0.185902
0.143861
0.0798789
-0.0866728
0.257215
0.17263
0.109408
0.194288
0.00779306
0.21237
0.0777361
0.170447
-0.178676
0.307803
0.0375592
0.262204
0.61058
-0.566866
-0.105168
0.432158
-0.79473
-0.128487
-0.396979
-0.213853
-0.610349
0.649282
-0.64538
0.686896
-0.267706
0.689261
-0.24571
0.593031
-0.63724
-0.627931
0.51588
0.519557
0.711093
0.000449032
0.17871
0.47196
0.678994
0.592456
0.495108
0.263986
0.0922726
0.273162
0.250518
0.0701995
0.188976
0.254169
-0.625244
0.722634
0.157085
-0.727623
-0.657027
0.19042
0.57205
-0.718258
-0.026569
-0.522525
-0.439734
-0.31046
-0.549837
-0.414526
-0.348108
-0.269117