/*--------------------------------*- C++ -*----------------------------------*\
| =========                 |                                                 |
| \\      /  F ield         | OpenFOAM: The Open Source CFD Toolbox           |
|  \\    /   O peration     | Version:  v2012                                 |
|   \\  /    A nd           | Website:  www.openfoam.com                      |
|    \\/     M anipulation  |                                                 |
\*---------------------------------------------------------------------------*/
FoamFile
{
    version     2.0;
    format      ascii;
    class       volScalarField;
    location    "0.3";
    object      rAU;
}
// * * * * * * * * * * * * * * * * * * * * * * * * * * * * * * * * * * * * * //

dimensions      [-1 3 1 0 0 0 0];


internalField   nonuniform List<scalar> 
13611
(
1.96753e-07
1.93356e-07
1.94894e-07
1.94658e-07
1.94673e-07
1.9675e-07
1.95113e-07
1.9601e-07
1.96739e-07
1.94142e-07
1.96173e-07
1.95706e-07
1.92482e-07
1.96049e-07
1.96146e-07
1.93369e-07
1.96134e-07
1.96751e-07
1.9582e-07
1.96711e-07
1.95559e-07
1.92931e-07
1.96751e-07
1.96135e-07
1.93351e-07
1.96108e-07
1.96563e-07
1.94987e-07
1.96678e-07
1.95556e-07
1.94509e-07
1.95777e-07
1.95614e-07
1.93238e-07
1.95983e-07
1.96083e-07
1.96533e-07
1.96754e-07
1.95012e-07
1.96263e-07
1.95342e-07
1.93329e-07
1.91642e-07
1.95485e-07
1.95887e-07
1.96736e-07
1.93238e-07
1.95967e-07
1.9627e-07
1.94958e-07
1.96107e-07
1.95039e-07
1.96259e-07
1.95473e-07
1.95549e-07
1.9645e-07
1.9185e-07
1.93255e-07
1.94197e-07
1.96022e-07
1.96043e-07
1.96248e-07
1.95052e-07
1.96284e-07
1.96206e-07
1.96762e-07
1.95084e-07
1.96327e-07
1.95506e-07
1.95534e-07
1.96712e-07
1.94257e-07
1.94125e-07
1.96031e-07
1.96736e-07
1.96039e-07
1.96239e-07
1.9505e-07
1.94112e-07
1.93549e-07
1.96424e-07
1.95589e-07
1.96332e-07
1.95448e-07
1.95571e-07
1.93418e-07
1.9311e-07
1.96524e-07
1.95466e-07
1.93896e-07
1.95653e-07
1.96007e-07
1.96833e-07
1.95244e-07
1.93823e-07
1.92442e-07
1.94813e-07
1.96518e-07
1.96759e-07
1.95622e-07
1.92504e-07
1.95687e-07
1.95687e-07
1.9407e-07
1.92182e-07
1.91376e-07
1.96414e-07
1.95485e-07
1.9412e-07
1.9551e-07
1.96764e-07
1.96163e-07
1.96666e-07
1.94809e-07
1.95468e-07
1.91869e-07
1.94562e-07
1.94932e-07
1.96175e-07
1.96094e-07
1.92721e-07
1.93054e-07
1.9536e-07
1.93846e-07
1.93152e-07
1.94493e-07
1.94292e-07
1.96691e-07
1.96293e-07
1.94493e-07
1.92967e-07
1.9453e-07
1.93905e-07
1.92861e-07
1.95152e-07
1.95406e-07
1.93674e-07
1.96133e-07
1.94931e-07
1.96747e-07
1.96194e-07
1.93188e-07
1.95552e-07
1.95237e-07
1.94646e-07
1.94692e-07
1.94781e-07
1.94885e-07
1.96709e-07
1.96018e-07
1.94852e-07
1.94422e-07
1.94517e-07
1.95439e-07
1.94707e-07
1.93589e-07
1.95784e-07
1.94311e-07
1.95855e-07
1.94643e-07
1.94443e-07
1.96231e-07
1.9643e-07
1.92477e-07
1.95499e-07
1.95838e-07
1.95661e-07
1.95521e-07
1.95109e-07
1.94381e-07
1.92879e-07
1.9587e-07
1.9359e-07
1.95088e-07
1.94296e-07
1.94506e-07
1.96713e-07
1.93943e-07
1.94195e-07
1.92405e-07
1.96175e-07
1.95396e-07
1.94755e-07
1.94355e-07
1.96205e-07
1.94683e-07
1.96739e-07
1.96355e-07
1.95198e-07
1.94007e-07
1.95961e-07
1.94859e-07
1.94526e-07
1.94689e-07
1.94115e-07
1.92891e-07
1.95842e-07
1.95243e-07
1.95926e-07
1.94493e-07
1.94887e-07
1.94062e-07
1.94781e-07
1.94961e-07
1.95712e-07
1.9534e-07
1.93122e-07
1.94502e-07
1.95827e-07
1.93432e-07
1.95672e-07
1.94281e-07
1.94516e-07
1.95588e-07
1.95806e-07
1.93328e-07
1.95588e-07
1.94637e-07
1.92805e-07
1.94541e-07
1.96229e-07
1.95824e-07
1.96439e-07
1.94154e-07
1.95179e-07
1.94963e-07
1.94892e-07
1.9511e-07
1.96717e-07
1.9345e-07
1.95945e-07
1.94976e-07
1.95036e-07
1.93769e-07
1.95557e-07
1.96115e-07
1.95439e-07
1.93322e-07
1.96698e-07
1.95138e-07
1.94563e-07
1.94517e-07
1.94716e-07
1.95766e-07
1.95663e-07
1.95029e-07
1.94643e-07
1.95013e-07
1.94274e-07
1.95971e-07
1.96029e-07
1.9645e-07
1.95019e-07
1.95101e-07
1.94882e-07
1.94903e-07
1.94736e-07
1.94103e-07
1.95536e-07
1.95853e-07
1.95765e-07
1.95948e-07
1.94786e-07
1.95012e-07
1.94873e-07
1.9464e-07
1.9564e-07
1.96391e-07
1.93001e-07
1.93899e-07
1.9279e-07
1.94013e-07
1.94564e-07
1.93749e-07
1.92827e-07
1.95572e-07
1.92551e-07
1.92729e-07
1.96154e-07
1.95095e-07
1.95621e-07
1.94743e-07
1.94004e-07
1.92841e-07
1.9517e-07
1.93604e-07
1.95978e-07
1.95389e-07
1.9489e-07
1.94372e-07
1.96782e-07
1.92796e-07
1.94147e-07
1.95993e-07
1.95976e-07
1.94819e-07
1.94588e-07
1.95642e-07
1.96474e-07
1.93699e-07
1.94592e-07
1.94392e-07
1.95136e-07
1.95587e-07
1.94442e-07
1.9199e-07
1.93865e-07
1.95493e-07
1.92639e-07
1.96065e-07
1.95721e-07
1.9563e-07
1.94583e-07
1.94239e-07
1.94006e-07
1.95184e-07
1.93927e-07
1.93385e-07
1.9515e-07
1.93743e-07
1.95026e-07
1.94559e-07
1.9482e-07
1.93504e-07
1.94949e-07
1.94695e-07
1.94446e-07
1.95414e-07
1.96714e-07
1.95056e-07
1.95492e-07
1.94562e-07
1.95837e-07
1.94543e-07
1.96724e-07
1.94185e-07
1.93959e-07
1.95515e-07
1.94887e-07
1.95571e-07
1.94922e-07
1.95851e-07
1.95002e-07
1.94737e-07
1.95711e-07
1.94905e-07
1.93954e-07
1.94228e-07
1.93797e-07
1.95191e-07
1.96052e-07
1.93233e-07
1.94669e-07
1.94058e-07
1.97081e-07
1.94789e-07
1.93877e-07
1.95818e-07
1.9305e-07
1.93585e-07
1.94684e-07
1.93494e-07
1.94501e-07
1.94191e-07
1.9671e-07
1.95498e-07
1.94979e-07
1.94167e-07
1.92842e-07
1.95814e-07
1.91959e-07
1.95928e-07
1.94909e-07
1.93295e-07
1.93008e-07
1.94406e-07
1.93741e-07
1.95817e-07
1.94029e-07
1.9488e-07
1.95006e-07
1.94826e-07
1.9415e-07
1.94979e-07
1.94576e-07
1.94439e-07
1.92642e-07
1.95274e-07
1.96229e-07
1.92895e-07
1.93954e-07
1.97122e-07
1.93831e-07
1.94797e-07
1.94927e-07
1.96683e-07
1.95057e-07
1.95e-07
1.95114e-07
1.94841e-07
1.93891e-07
1.9466e-07
1.94554e-07
1.95306e-07
1.9517e-07
1.95556e-07
1.92306e-07
1.94154e-07
1.94174e-07
1.95808e-07
1.96711e-07
1.9456e-07
1.94874e-07
1.95391e-07
1.94615e-07
1.92733e-07
1.93409e-07
1.94274e-07
1.9433e-07
1.93763e-07
1.92928e-07
1.94577e-07
1.94141e-07
1.92269e-07
1.94519e-07
1.94155e-07
1.94454e-07
1.95374e-07
1.9521e-07
1.95623e-07
1.95227e-07
1.94583e-07
1.94601e-07
1.95404e-07
1.96861e-07
1.93232e-07
1.94896e-07
1.95093e-07
1.95697e-07
1.95451e-07
1.94433e-07
1.95912e-07
1.95403e-07
1.95489e-07
1.94985e-07
1.94936e-07
1.93379e-07
1.934e-07
1.93073e-07
1.95811e-07
1.95204e-07
1.95127e-07
1.95496e-07
1.94753e-07
1.94642e-07
1.94399e-07
1.93202e-07
1.94517e-07
1.94513e-07
1.94934e-07
1.93917e-07
1.944e-07
1.94381e-07
1.95527e-07
1.94781e-07
1.95596e-07
1.93389e-07
1.94657e-07
1.93825e-07
1.95135e-07
1.95184e-07
1.94419e-07
1.95419e-07
1.94354e-07
1.94979e-07
1.95826e-07
1.94705e-07
1.95337e-07
1.95172e-07
1.95148e-07
1.93406e-07
1.95144e-07
1.95062e-07
1.95686e-07
1.93725e-07
1.9196e-07
1.96028e-07
1.96716e-07
1.95179e-07
1.9501e-07
1.96433e-07
1.97203e-07
1.94772e-07
1.95601e-07
1.94471e-07
1.93882e-07
1.94448e-07
1.94692e-07
1.94855e-07
1.94556e-07
1.94711e-07
1.94862e-07
1.9346e-07
1.95552e-07
1.94933e-07
1.95453e-07
1.94855e-07
1.95963e-07
1.95127e-07
1.94967e-07
1.93887e-07
1.93139e-07
1.93259e-07
1.95391e-07
1.94931e-07
1.95831e-07
1.92881e-07
1.94115e-07
1.94822e-07
1.95765e-07
1.93458e-07
1.95077e-07
1.96193e-07
1.95181e-07
1.95468e-07
1.9504e-07
1.95391e-07
1.9395e-07
1.9397e-07
1.96241e-07
1.96285e-07
1.94605e-07
1.96405e-07
1.97196e-07
1.94379e-07
1.94931e-07
1.9331e-07
1.93862e-07
1.95351e-07
1.94922e-07
1.94588e-07
1.94561e-07
1.94626e-07
1.96164e-07
1.95336e-07
1.94642e-07
1.95206e-07
1.96264e-07
1.94789e-07
1.94774e-07
1.93104e-07
1.95252e-07
1.93826e-07
1.93053e-07
1.93257e-07
1.93701e-07
1.94456e-07
1.94473e-07
1.96044e-07
1.9429e-07
1.9543e-07
1.94367e-07
1.94587e-07
1.93757e-07
1.94781e-07
1.94753e-07
1.93192e-07
1.93717e-07
1.93122e-07
1.96709e-07
1.9624e-07
1.95784e-07
1.95695e-07
1.9353e-07
1.93298e-07
1.95492e-07
1.94614e-07
1.93142e-07
1.94991e-07
1.9546e-07
1.92947e-07
1.95833e-07
1.95345e-07
1.94787e-07
1.94473e-07
1.94453e-07
1.95867e-07
1.94656e-07
1.93759e-07
1.9406e-07
1.94736e-07
1.94889e-07
1.94645e-07
1.95201e-07
1.95414e-07
1.9385e-07
1.96731e-07
1.93797e-07
1.90657e-07
1.93535e-07
1.92839e-07
1.94393e-07
1.93129e-07
1.9506e-07
1.94665e-07
1.94502e-07
1.9423e-07
1.94847e-07
1.93942e-07
1.93078e-07
1.93382e-07
1.95522e-07
1.94049e-07
1.96181e-07
1.95414e-07
1.94795e-07
1.94964e-07
1.93797e-07
1.9651e-07
1.94097e-07
1.95878e-07
1.95757e-07
1.9353e-07
1.94339e-07
1.95295e-07
1.94519e-07
1.94908e-07
1.95299e-07
1.96107e-07
1.95033e-07
1.95339e-07
1.94965e-07
1.94675e-07
1.93883e-07
1.9494e-07
1.93022e-07
1.94576e-07
1.93968e-07
1.93968e-07
1.94604e-07
1.94044e-07
1.9462e-07
1.95085e-07
1.94249e-07
1.95487e-07
1.94738e-07
1.93012e-07
1.93477e-07
1.90502e-07
1.90474e-07
1.92542e-07
1.91644e-07
1.92606e-07
1.92023e-07
1.93277e-07
1.94417e-07
1.9287e-07
1.94566e-07
1.95929e-07
1.9566e-07
1.95637e-07
1.9236e-07
1.95607e-07
1.94321e-07
1.9463e-07
1.93916e-07
1.94664e-07
1.96703e-07
1.96527e-07
1.95844e-07
1.94551e-07
1.94979e-07
1.9505e-07
1.95944e-07
1.92439e-07
1.95928e-07
1.96068e-07
1.95104e-07
1.95531e-07
1.94783e-07
1.94725e-07
1.94842e-07
1.94344e-07
1.93391e-07
1.94489e-07
1.93769e-07
1.94422e-07
1.9571e-07
1.92686e-07
1.93512e-07
1.93657e-07
1.94989e-07
1.94788e-07
1.94065e-07
1.94166e-07
1.968e-07
1.93778e-07
1.93371e-07
1.92048e-07
1.92273e-07
1.93865e-07
1.91627e-07
1.91012e-07
1.93569e-07
1.93069e-07
1.93016e-07
1.93542e-07
1.9434e-07
1.93444e-07
1.94226e-07
1.94958e-07
1.94464e-07
1.96008e-07
1.94807e-07
1.92829e-07
1.95741e-07
1.96124e-07
1.94061e-07
1.95001e-07
1.95037e-07
1.94619e-07
1.9646e-07
1.92699e-07
1.96134e-07
1.93453e-07
1.95679e-07
1.95366e-07
1.95271e-07
1.94911e-07
1.94615e-07
1.94784e-07
1.94983e-07
1.94784e-07
1.94792e-07
1.93363e-07
1.9429e-07
1.95173e-07
1.94647e-07
1.93551e-07
1.92937e-07
1.93463e-07
1.95329e-07
1.92764e-07
1.95352e-07
1.94572e-07
1.96078e-07
1.9266e-07
1.92421e-07
1.92418e-07
1.93197e-07
1.91633e-07
1.93213e-07
1.94208e-07
1.91607e-07
1.92024e-07
1.93675e-07
1.94877e-07
1.94787e-07
1.95168e-07
1.95451e-07
1.94924e-07
1.95561e-07
1.9452e-07
1.96172e-07
1.94967e-07
1.94376e-07
1.95816e-07
1.96005e-07
1.9477e-07
1.96673e-07
1.95122e-07
1.92881e-07
1.95124e-07
1.95038e-07
1.95969e-07
1.95347e-07
1.95984e-07
1.94576e-07
1.95823e-07
1.94219e-07
1.92962e-07
1.93958e-07
1.94968e-07
1.95773e-07
1.93742e-07
1.94572e-07
1.94774e-07
1.95278e-07
1.96098e-07
1.94834e-07
1.94541e-07
1.95797e-07
1.95795e-07
1.91604e-07
1.93485e-07
1.95956e-07
1.94235e-07
1.94673e-07
1.92038e-07
1.95345e-07
1.94603e-07
1.96831e-07
1.93088e-07
1.92504e-07
1.91528e-07
1.91323e-07
1.90645e-07
1.94623e-07
1.93406e-07
1.91443e-07
1.89371e-07
1.92729e-07
1.93344e-07
1.94742e-07
1.94578e-07
1.93378e-07
1.94539e-07
1.96036e-07
1.94442e-07
1.93788e-07
1.94422e-07
1.94074e-07
1.95484e-07
1.95077e-07
1.93658e-07
1.94736e-07
1.94585e-07
1.94355e-07
1.94992e-07
1.95228e-07
1.95415e-07
1.9561e-07
1.94116e-07
1.95714e-07
1.95378e-07
1.94382e-07
1.94177e-07
1.96019e-07
1.96106e-07
1.94724e-07
1.95423e-07
1.9532e-07
1.94903e-07
1.96027e-07
1.95808e-07
1.94404e-07
1.95804e-07
1.95418e-07
1.89774e-07
1.92513e-07
1.89316e-07
1.93612e-07
1.94433e-07
1.90867e-07
1.91294e-07
1.92454e-07
1.95983e-07
1.92722e-07
1.90061e-07
1.90233e-07
1.91671e-07
1.88741e-07
1.90577e-07
1.91007e-07
1.94482e-07
1.89898e-07
1.9138e-07
1.90738e-07
1.92244e-07
1.9437e-07
1.9535e-07
1.9523e-07
1.95202e-07
1.95003e-07
1.96e-07
1.94037e-07
1.93211e-07
1.95956e-07
1.94902e-07
1.95384e-07
1.95023e-07
1.94697e-07
1.93936e-07
1.94131e-07
1.95761e-07
1.94931e-07
1.95588e-07
1.91671e-07
1.93258e-07
1.93526e-07
1.95424e-07
1.95681e-07
1.95038e-07
1.94496e-07
1.95299e-07
1.94841e-07
1.94894e-07
1.95001e-07
1.94209e-07
1.93505e-07
1.93501e-07
1.92452e-07
1.95543e-07
1.92365e-07
1.92342e-07
1.96254e-07
1.90068e-07
1.91718e-07
1.91615e-07
1.96154e-07
1.94888e-07
1.91204e-07
1.93765e-07
1.90926e-07
1.9564e-07
1.9563e-07
1.9544e-07
1.91677e-07
1.90265e-07
1.89103e-07
1.89262e-07
1.9135e-07
1.87188e-07
1.88159e-07
1.89496e-07
1.91204e-07
1.90608e-07
1.91955e-07
1.91459e-07
1.94742e-07
1.94202e-07
1.9555e-07
1.95058e-07
1.94955e-07
1.94092e-07
1.93088e-07
1.94025e-07
1.95431e-07
1.95556e-07
1.95372e-07
1.94897e-07
1.95245e-07
1.90234e-07
1.95843e-07
1.9585e-07
1.94806e-07
1.94544e-07
1.9529e-07
1.94239e-07
1.94325e-07
1.95648e-07
1.92613e-07
1.93924e-07
1.95178e-07
1.93724e-07
1.94752e-07
1.95088e-07
1.93705e-07
1.96596e-07
1.95044e-07
1.96285e-07
1.94628e-07
1.95484e-07
1.96404e-07
1.92467e-07
1.94478e-07
1.93994e-07
1.95747e-07
1.90615e-07
1.91594e-07
1.91913e-07
1.94991e-07
1.9505e-07
1.88279e-07
1.89362e-07
1.90469e-07
1.95034e-07
1.95304e-07
1.96799e-07
1.8705e-07
1.88795e-07
1.88481e-07
1.88215e-07
1.88829e-07
1.87491e-07
1.90423e-07
1.89407e-07
1.8988e-07
1.88245e-07
1.90261e-07
1.92455e-07
1.91425e-07
1.95918e-07
1.94325e-07
1.95178e-07
1.95023e-07
1.94411e-07
1.94317e-07
1.94442e-07
1.94477e-07
1.95745e-07
1.94747e-07
1.95457e-07
1.89999e-07
1.96021e-07
1.93e-07
1.93015e-07
1.95078e-07
1.93973e-07
1.91525e-07
1.95246e-07
1.94846e-07
1.95249e-07
1.95168e-07
1.92265e-07
1.96124e-07
1.94802e-07
1.94704e-07
1.95056e-07
1.96553e-07
1.9588e-07
1.9632e-07
1.9301e-07
1.96312e-07
1.9573e-07
1.94435e-07
1.95788e-07
1.94852e-07
1.96393e-07
1.90545e-07
1.88051e-07
1.89241e-07
1.93021e-07
1.92839e-07
1.91321e-07
1.89746e-07
1.9058e-07
1.90265e-07
1.94181e-07
1.94198e-07
1.95495e-07
1.94783e-07
1.87739e-07
1.88114e-07
1.88459e-07
1.88982e-07
1.88133e-07
1.90379e-07
1.87459e-07
1.87348e-07
1.91249e-07
1.89537e-07
1.9189e-07
1.8936e-07
1.91809e-07
1.92617e-07
1.96242e-07
1.95545e-07
1.96139e-07
1.95776e-07
1.95871e-07
1.95053e-07
1.95826e-07
1.94072e-07
1.96842e-07
1.96955e-07
1.93616e-07
1.96468e-07
1.94137e-07
1.95132e-07
1.95422e-07
1.93842e-07
1.89278e-07
1.93247e-07
1.95194e-07
1.95779e-07
1.94872e-07
1.95311e-07
1.95923e-07
1.96359e-07
1.95226e-07
1.9543e-07
1.94667e-07
1.94444e-07
1.94278e-07
1.94571e-07
1.95666e-07
1.9388e-07
1.94072e-07
1.95756e-07
1.96094e-07
1.95145e-07
1.96724e-07
1.85664e-07
1.89985e-07
1.8914e-07
1.88892e-07
1.9466e-07
1.90848e-07
1.90407e-07
1.90442e-07
1.89099e-07
1.87122e-07
1.951e-07
1.93306e-07
1.95435e-07
1.9555e-07
1.96811e-07
1.87404e-07
1.84914e-07
1.88896e-07
1.87187e-07
1.86368e-07
1.88653e-07
1.88178e-07
1.86462e-07
1.87234e-07
1.88514e-07
1.88953e-07
1.91317e-07
1.86255e-07
1.91721e-07
1.91667e-07
1.95354e-07
1.96128e-07
1.95522e-07
1.94922e-07
1.95064e-07
1.96176e-07
1.95104e-07
1.959e-07
1.93832e-07
1.95301e-07
1.96199e-07
1.9333e-07
1.96048e-07
1.9565e-07
1.9608e-07
1.9323e-07
1.91544e-07
1.93788e-07
1.92638e-07
1.95572e-07
1.95205e-07
1.93303e-07
1.95183e-07
1.93085e-07
1.95271e-07
1.95041e-07
1.94968e-07
1.95419e-07
1.94489e-07
1.92945e-07
1.9392e-07
1.95371e-07
1.95187e-07
1.96559e-07
1.94412e-07
1.95005e-07
1.95674e-07
1.94007e-07
1.8699e-07
1.87665e-07
1.86556e-07
1.86523e-07
1.94323e-07
1.95301e-07
1.90694e-07
1.89631e-07
1.89392e-07
1.8917e-07
1.88736e-07
1.93515e-07
1.93931e-07
1.95968e-07
1.95404e-07
1.87137e-07
1.83188e-07
1.87498e-07
1.86746e-07
1.88217e-07
1.86691e-07
1.84289e-07
1.86028e-07
1.88674e-07
1.8793e-07
1.88745e-07
1.92091e-07
1.86398e-07
1.91298e-07
1.95198e-07
1.95111e-07
1.95954e-07
1.93748e-07
1.95037e-07
1.94641e-07
1.9364e-07
1.94991e-07
1.95529e-07
1.95751e-07
1.94941e-07
1.9587e-07
1.95668e-07
1.95979e-07
1.91086e-07
1.90996e-07
1.93622e-07
1.92203e-07
1.95643e-07
1.95033e-07
1.94824e-07
1.92896e-07
1.9553e-07
1.93254e-07
1.93129e-07
1.94623e-07
1.95483e-07
1.95534e-07
1.95829e-07
1.95939e-07
1.95265e-07
1.96147e-07
1.96517e-07
1.95429e-07
1.94966e-07
1.93367e-07
1.95914e-07
1.94521e-07
1.86775e-07
1.88104e-07
1.86894e-07
1.83421e-07
1.89107e-07
1.94334e-07
1.8724e-07
1.90536e-07
1.88491e-07
1.86401e-07
1.87451e-07
1.93962e-07
1.95223e-07
1.95387e-07
1.96804e-07
1.84088e-07
1.88383e-07
1.82499e-07
1.82805e-07
1.8456e-07
1.86667e-07
1.85381e-07
1.89089e-07
1.87202e-07
1.87359e-07
1.88927e-07
1.87011e-07
1.88156e-07
1.92146e-07
1.86658e-07
1.91294e-07
1.94933e-07
1.93484e-07
1.95134e-07
1.95955e-07
1.92514e-07
1.93396e-07
1.95837e-07
1.94684e-07
1.96183e-07
1.9527e-07
1.96054e-07
1.94889e-07
1.95144e-07
1.95943e-07
1.93315e-07
1.95531e-07
1.94042e-07
1.91532e-07
1.95115e-07
1.91509e-07
1.9591e-07
1.95843e-07
1.95545e-07
1.96063e-07
1.94649e-07
1.93653e-07
1.95609e-07
1.95529e-07
1.95507e-07
1.95703e-07
1.95753e-07
1.95279e-07
1.95625e-07
1.95869e-07
1.93377e-07
1.9537e-07
1.94896e-07
1.95041e-07
1.95014e-07
1.95089e-07
1.86205e-07
1.84674e-07
1.86194e-07
1.86785e-07
1.84471e-07
1.88624e-07
1.8739e-07
1.94729e-07
1.93863e-07
1.89971e-07
1.87817e-07
1.81657e-07
1.86547e-07
1.85506e-07
1.94621e-07
1.95568e-07
1.94705e-07
1.94748e-07
1.85355e-07
1.88115e-07
1.84999e-07
1.84768e-07
1.83586e-07
1.84285e-07
1.84961e-07
1.89026e-07
1.85731e-07
1.84753e-07
1.88207e-07
1.85639e-07
1.85521e-07
1.89061e-07
1.88877e-07
1.91192e-07
1.92722e-07
1.94887e-07
1.96578e-07
1.90467e-07
1.94372e-07
1.95249e-07
1.95776e-07
1.96084e-07
1.94273e-07
1.95772e-07
1.93261e-07
1.9516e-07
1.95754e-07
1.95018e-07
1.94078e-07
1.94503e-07
1.91418e-07
1.91122e-07
1.92443e-07
1.95225e-07
1.95148e-07
1.94238e-07
1.95848e-07
1.94601e-07
1.94259e-07
1.9526e-07
1.95908e-07
1.94e-07
1.94633e-07
1.95204e-07
1.95816e-07
1.95545e-07
1.95051e-07
1.95923e-07
1.94639e-07
1.95163e-07
1.94618e-07
1.95723e-07
1.95316e-07
1.94813e-07
1.85857e-07
1.83499e-07
1.82372e-07
1.86055e-07
1.85042e-07
1.87738e-07
1.87127e-07
1.91308e-07
1.89983e-07
1.88503e-07
1.85662e-07
1.82978e-07
1.84408e-07
1.83149e-07
1.95048e-07
1.95449e-07
1.95619e-07
1.93647e-07
1.96772e-07
1.86814e-07
1.84005e-07
1.86863e-07
1.85271e-07
1.79703e-07
1.83021e-07
1.84651e-07
1.87181e-07
1.86086e-07
1.8591e-07
1.85997e-07
1.83255e-07
1.85087e-07
1.90616e-07
1.88444e-07
1.88472e-07
1.93577e-07
1.95042e-07
1.96857e-07
1.94395e-07
1.93301e-07
1.9533e-07
1.96274e-07
1.94373e-07
1.95633e-07
1.95221e-07
1.94104e-07
1.94536e-07
1.9526e-07
1.93846e-07
1.93549e-07
1.9454e-07
1.89019e-07
1.93173e-07
1.9409e-07
1.94506e-07
1.95217e-07
1.95852e-07
1.95598e-07
1.94776e-07
1.94363e-07
1.94956e-07
1.96211e-07
1.95591e-07
1.94911e-07
1.95134e-07
1.95831e-07
1.95603e-07
1.95178e-07
1.93192e-07
1.9464e-07
1.95395e-07
1.95073e-07
1.95186e-07
1.95104e-07
1.94843e-07
1.81233e-07
1.83026e-07
1.81643e-07
1.836e-07
1.79949e-07
1.85362e-07
1.85609e-07
1.89294e-07
1.8742e-07
1.87598e-07
1.89811e-07
1.83829e-07
1.86413e-07
1.85634e-07
1.85274e-07
1.95882e-07
1.94359e-07
1.95771e-07
1.94518e-07
1.94874e-07
1.83829e-07
1.86955e-07
1.87222e-07
1.85367e-07
1.82451e-07
1.83158e-07
1.84542e-07
1.85877e-07
1.89383e-07
1.85359e-07
1.89464e-07
1.83887e-07
1.88972e-07
1.86574e-07
1.89991e-07
1.94586e-07
1.9336e-07
1.94805e-07
1.94403e-07
1.96324e-07
1.92922e-07
1.95295e-07
1.95863e-07
1.94221e-07
1.94089e-07
1.93774e-07
1.9283e-07
1.93655e-07
1.94625e-07
1.94102e-07
1.88913e-07
1.91578e-07
1.91225e-07
1.9402e-07
1.95159e-07
1.95902e-07
1.95546e-07
1.94596e-07
1.94202e-07
1.9475e-07
1.94975e-07
1.94629e-07
1.96057e-07
1.96261e-07
1.95101e-07
1.95408e-07
1.95484e-07
1.94912e-07
1.95142e-07
1.93215e-07
1.9598e-07
1.92586e-07
1.93288e-07
1.94962e-07
1.95198e-07
1.94517e-07
1.85613e-07
1.8237e-07
1.83924e-07
1.80645e-07
1.81151e-07
1.82546e-07
1.82257e-07
1.87735e-07
1.85312e-07
1.892e-07
1.9107e-07
1.87459e-07
1.89222e-07
1.84002e-07
1.7988e-07
1.84027e-07
1.83478e-07
1.85629e-07
1.93284e-07
1.92483e-07
1.95014e-07
1.94218e-07
1.9675e-07
1.80992e-07
1.85143e-07
1.85268e-07
1.84185e-07
1.81235e-07
1.82564e-07
1.83024e-07
1.84992e-07
1.86159e-07
1.84038e-07
1.88121e-07
1.83346e-07
1.86077e-07
1.86692e-07
1.82258e-07
1.90812e-07
1.93016e-07
1.95564e-07
1.94696e-07
1.95667e-07
1.95999e-07
1.9515e-07
1.94328e-07
1.96037e-07
1.94435e-07
1.93281e-07
1.96478e-07
1.93349e-07
1.92044e-07
1.93081e-07
1.92888e-07
1.93028e-07
1.91927e-07
1.95773e-07
1.95504e-07
1.95144e-07
1.93993e-07
1.94262e-07
1.93979e-07
1.94914e-07
1.9479e-07
1.94993e-07
1.96178e-07
1.95007e-07
1.95405e-07
1.957e-07
1.95063e-07
1.94546e-07
1.96098e-07
1.95399e-07
1.92838e-07
1.9533e-07
1.9572e-07
1.94883e-07
1.94777e-07
1.85767e-07
1.86131e-07
1.85296e-07
1.77197e-07
1.80018e-07
1.78302e-07
1.807e-07
1.86223e-07
1.81395e-07
1.89821e-07
1.87743e-07
1.90416e-07
1.88332e-07
1.83655e-07
1.82013e-07
1.82429e-07
1.79577e-07
1.83146e-07
1.79219e-07
1.95276e-07
1.94838e-07
1.92165e-07
1.93215e-07
1.95681e-07
1.96393e-07
1.80809e-07
1.86492e-07
1.85409e-07
1.86206e-07
1.81931e-07
1.83245e-07
1.8588e-07
1.80871e-07
1.82821e-07
1.87358e-07
1.83348e-07
1.8376e-07
1.84288e-07
1.85705e-07
1.90281e-07
1.93956e-07
1.94265e-07
1.93066e-07
1.92704e-07
1.94797e-07
1.95438e-07
1.94126e-07
1.94814e-07
1.95334e-07
1.93846e-07
1.96256e-07
1.96449e-07
1.96677e-07
1.91009e-07
1.92053e-07
1.93647e-07
1.89423e-07
1.9265e-07
1.92478e-07
1.95766e-07
1.9544e-07
1.95155e-07
1.93533e-07
1.93633e-07
1.93898e-07
1.92163e-07
1.93398e-07
1.94369e-07
1.94466e-07
1.9409e-07
1.94934e-07
1.95709e-07
1.94963e-07
1.95463e-07
1.94938e-07
1.95319e-07
1.96519e-07
1.93099e-07
1.94259e-07
1.95611e-07
1.96482e-07
1.95051e-07
1.94591e-07
1.86279e-07
1.8591e-07
1.81488e-07
1.7902e-07
1.8414e-07
1.77616e-07
1.82131e-07
1.83333e-07
1.84705e-07
1.86688e-07
1.89364e-07
1.8999e-07
1.81981e-07
1.84491e-07
1.80619e-07
1.82037e-07
1.76319e-07
1.83737e-07
1.85033e-07
1.95342e-07
1.92185e-07
1.90649e-07
1.96244e-07
1.94027e-07
1.96718e-07
1.83731e-07
1.80892e-07
1.83468e-07
1.83276e-07
1.81962e-07
1.85029e-07
1.83019e-07
1.85873e-07
1.79481e-07
1.85983e-07
1.88173e-07
1.8369e-07
1.80317e-07
1.86846e-07
1.84039e-07
1.87625e-07
1.93431e-07
1.9432e-07
1.94411e-07
1.94913e-07
1.94758e-07
1.94772e-07
1.94521e-07
1.96021e-07
1.95742e-07
1.9654e-07
1.95889e-07
1.95681e-07
1.96454e-07
1.94186e-07
1.94098e-07
1.91509e-07
1.91829e-07
1.895e-07
1.90053e-07
1.89524e-07
1.95659e-07
1.951e-07
1.91844e-07
1.93784e-07
1.93917e-07
1.93624e-07
1.93648e-07
1.94364e-07
1.94142e-07
1.93867e-07
1.94929e-07
1.95714e-07
1.94936e-07
1.95495e-07
1.95121e-07
1.95408e-07
1.93808e-07
1.95837e-07
1.97398e-07
1.95777e-07
1.94957e-07
1.94534e-07
1.86309e-07
1.84316e-07
1.82055e-07
1.79448e-07
1.82415e-07
1.83105e-07
1.81654e-07
1.81282e-07
1.8371e-07
1.8504e-07
1.83445e-07
1.85363e-07
1.88816e-07
1.83339e-07
1.84899e-07
1.78961e-07
1.76608e-07
1.85111e-07
1.78756e-07
1.85185e-07
1.83541e-07
1.93586e-07
1.9155e-07
1.92548e-07
1.90521e-07
1.93071e-07
1.93552e-07
1.94247e-07
1.80629e-07
1.83684e-07
1.83527e-07
1.79362e-07
1.80016e-07
1.82704e-07
1.8206e-07
1.82187e-07
1.83172e-07
1.87442e-07
1.8734e-07
1.83131e-07
1.8273e-07
1.83737e-07
1.84571e-07
1.94165e-07
1.95347e-07
1.94908e-07
1.92828e-07
1.95303e-07
1.9288e-07
1.96041e-07
1.9383e-07
1.95903e-07
1.95926e-07
1.95281e-07
1.95904e-07
1.95708e-07
1.96799e-07
1.93965e-07
1.91546e-07
1.91743e-07
1.89977e-07
1.78789e-07
1.8875e-07
1.90187e-07
1.95669e-07
1.95034e-07
1.93853e-07
1.94613e-07
1.94522e-07
1.9502e-07
1.95665e-07
1.93146e-07
1.91304e-07
1.92216e-07
1.96012e-07
1.96579e-07
1.95388e-07
1.95052e-07
1.94862e-07
1.95114e-07
1.94605e-07
1.95239e-07
1.97382e-07
1.94255e-07
1.95474e-07
1.94808e-07
1.94493e-07
1.80394e-07
1.84709e-07
1.82871e-07
1.8092e-07
1.78456e-07
1.81148e-07
1.7859e-07
1.82162e-07
1.80665e-07
1.84874e-07
1.85956e-07
1.86144e-07
1.8293e-07
1.84024e-07
1.82754e-07
1.77078e-07
1.76875e-07
1.77936e-07
1.74999e-07
1.80782e-07
1.75846e-07
1.9317e-07
1.89657e-07
1.89762e-07
1.86959e-07
1.93322e-07
1.95287e-07
1.94098e-07
1.78965e-07
1.81685e-07
1.81318e-07
1.77294e-07
1.79387e-07
1.74015e-07
1.8295e-07
1.83597e-07
1.8331e-07
1.85831e-07
1.84076e-07
1.8409e-07
1.83515e-07
1.81744e-07
1.8783e-07
1.93331e-07
1.95956e-07
1.9427e-07
1.95766e-07
1.92832e-07
1.93274e-07
1.92775e-07
1.96157e-07
1.95176e-07
1.9371e-07
1.95005e-07
1.95135e-07
1.95246e-07
1.95111e-07
1.96789e-07
1.94683e-07
1.94391e-07
1.94611e-07
1.91116e-07
1.89702e-07
1.88242e-07
1.8482e-07
1.91162e-07
1.87473e-07
1.86837e-07
1.93503e-07
1.94339e-07
1.95684e-07
1.95183e-07
1.96627e-07
1.93719e-07
1.91745e-07
1.96648e-07
1.95987e-07
1.96367e-07
1.95397e-07
1.95103e-07
1.9635e-07
1.95644e-07
1.94727e-07
1.95202e-07
1.94102e-07
1.94748e-07
1.9542e-07
1.93752e-07
1.93731e-07
1.79981e-07
1.77915e-07
1.77448e-07
1.82484e-07
1.76488e-07
1.75821e-07
1.80374e-07
1.79793e-07
1.77498e-07
1.80449e-07
1.79205e-07
1.84149e-07
1.85078e-07
1.86301e-07
1.83664e-07
1.83582e-07
1.82424e-07
1.83888e-07
1.76991e-07
1.86176e-07
1.81541e-07
1.75728e-07
1.79811e-07
1.75864e-07
1.78158e-07
1.92083e-07
1.95377e-07
1.89782e-07
1.88472e-07
1.89659e-07
1.86811e-07
1.94985e-07
1.95264e-07
1.93226e-07
1.96695e-07
1.81379e-07
1.84335e-07
1.81629e-07
1.73196e-07
1.788e-07
1.82493e-07
1.75145e-07
1.82782e-07
1.81616e-07
1.8121e-07
1.82105e-07
1.84706e-07
1.83767e-07
1.8019e-07
1.86394e-07
1.86307e-07
1.9591e-07
1.94893e-07
1.92888e-07
1.95199e-07
1.94273e-07
1.91419e-07
1.9609e-07
1.95038e-07
1.95244e-07
1.94523e-07
1.95103e-07
1.95054e-07
1.95042e-07
1.96201e-07
1.94993e-07
1.93736e-07
1.9178e-07
1.90053e-07
1.80073e-07
1.85008e-07
1.88985e-07
1.79734e-07
1.94154e-07
1.96391e-07
1.96762e-07
1.96712e-07
1.9668e-07
1.96679e-07
1.96696e-07
1.96733e-07
1.95668e-07
1.95987e-07
1.95608e-07
1.93748e-07
1.9319e-07
1.9516e-07
1.95075e-07
1.95125e-07
1.94912e-07
1.96382e-07
1.79422e-07
1.75475e-07
1.78584e-07
1.73452e-07
1.75026e-07
1.81362e-07
1.76159e-07
1.75184e-07
1.73e-07
1.84215e-07
1.82336e-07
1.82579e-07
1.85701e-07
1.85545e-07
1.83476e-07
1.83673e-07
1.83569e-07
1.86209e-07
1.72625e-07
1.79543e-07
1.79912e-07
1.77348e-07
1.75372e-07
1.92211e-07
1.94172e-07
1.87345e-07
1.89732e-07
1.87929e-07
1.80501e-07
1.92966e-07
1.9525e-07
1.95009e-07
1.82236e-07
1.82363e-07
1.80147e-07
1.77406e-07
1.80303e-07
1.75783e-07
1.78265e-07
1.8387e-07
1.81234e-07
1.83445e-07
1.81908e-07
1.85015e-07
1.8116e-07
1.82562e-07
1.82323e-07
1.86497e-07
1.95744e-07
1.94747e-07
1.95005e-07
1.95132e-07
1.95282e-07
1.95983e-07
1.96533e-07
1.95967e-07
1.94222e-07
1.95571e-07
1.93247e-07
1.94557e-07
1.94393e-07
1.96178e-07
1.9554e-07
1.91788e-07
1.90592e-07
1.89432e-07
1.86378e-07
1.86824e-07
1.90621e-07
1.87415e-07
1.90355e-07
1.87673e-07
1.93884e-07
1.96176e-07
1.94664e-07
1.96692e-07
1.96714e-07
1.9542e-07
1.95058e-07
1.94961e-07
1.94968e-07
1.94983e-07
1.95345e-07
1.94091e-07
1.96391e-07
1.79857e-07
1.81341e-07
1.79688e-07
1.75026e-07
1.80338e-07
1.81704e-07
1.76909e-07
1.76551e-07
1.82536e-07
1.80476e-07
1.82286e-07
1.85813e-07
1.83864e-07
1.79884e-07
1.78122e-07
1.78587e-07
1.81999e-07
1.77095e-07
1.78093e-07
1.73152e-07
1.77956e-07
1.77197e-07
1.77776e-07
1.76202e-07
1.91801e-07
1.93748e-07
1.85625e-07
1.83754e-07
1.89898e-07
1.89468e-07
1.79644e-07
1.81791e-07
1.95336e-07
1.95023e-07
1.95639e-07
1.96654e-07
1.80457e-07
1.79788e-07
1.78746e-07
1.81529e-07
1.78492e-07
1.78e-07
1.79929e-07
1.79851e-07
1.77558e-07
1.77261e-07
1.8445e-07
1.80044e-07
1.79787e-07
1.84211e-07
1.82059e-07
1.95549e-07
1.93335e-07
1.94878e-07
1.96936e-07
1.96011e-07
1.9651e-07
1.94164e-07
1.93078e-07
1.95639e-07
1.94329e-07
1.95861e-07
1.94807e-07
1.94084e-07
1.92499e-07
1.94511e-07
1.90143e-07
1.89574e-07
1.79906e-07
1.8119e-07
1.85894e-07
1.80465e-07
1.9671e-07
1.9669e-07
1.96699e-07
1.93522e-07
1.95541e-07
1.9511e-07
1.95019e-07
1.9497e-07
1.94558e-07
1.95989e-07
1.73384e-07
1.79445e-07
1.80899e-07
1.75921e-07
1.78986e-07
1.73425e-07
1.73087e-07
1.7515e-07
1.78477e-07
1.76947e-07
1.8286e-07
1.81554e-07
1.81541e-07
1.80038e-07
1.81685e-07
1.79789e-07
1.77865e-07
1.81924e-07
1.79771e-07
1.73939e-07
1.75728e-07
1.77659e-07
1.78121e-07
1.87848e-07
1.89023e-07
1.80449e-07
1.8512e-07
1.85786e-07
1.89335e-07
1.8085e-07
1.82587e-07
1.94319e-07
1.93752e-07
1.93708e-07
1.93742e-07
1.81347e-07
1.77673e-07
1.7808e-07
1.80886e-07
1.78047e-07
1.80332e-07
1.80198e-07
1.78405e-07
1.81076e-07
1.83333e-07
1.81198e-07
1.79145e-07
1.79838e-07
1.83387e-07
1.83173e-07
1.85439e-07
1.93753e-07
1.94787e-07
1.96836e-07
1.93825e-07
1.94486e-07
1.92602e-07
1.93284e-07
1.96799e-07
1.96753e-07
1.95832e-07
1.93454e-07
1.95663e-07
1.95215e-07
1.9069e-07
1.90951e-07
1.89435e-07
1.87482e-07
1.86944e-07
1.82393e-07
1.82319e-07
1.86852e-07
1.95552e-07
1.94034e-07
1.9637e-07
1.95856e-07
1.94273e-07
1.96714e-07
1.76947e-07
1.74021e-07
1.7957e-07
1.75394e-07
1.75906e-07
1.71009e-07
1.72934e-07
1.76506e-07
1.79047e-07
1.79271e-07
1.78576e-07
1.78976e-07
1.82879e-07
1.81517e-07
1.80526e-07
1.816e-07
1.81557e-07
1.79869e-07
1.80439e-07
1.80329e-07
1.76308e-07
1.7404e-07
1.7772e-07
1.7832e-07
1.80625e-07
1.76654e-07
1.86849e-07
1.87378e-07
1.90031e-07
1.89895e-07
1.82619e-07
1.85402e-07
1.86221e-07
1.88086e-07
1.82623e-07
1.85744e-07
1.91066e-07
1.94038e-07
1.94144e-07
1.94787e-07
1.96543e-07
1.81721e-07
1.74784e-07
1.79871e-07
1.75181e-07
1.72198e-07
1.7478e-07
1.81649e-07
1.76066e-07
1.74317e-07
1.74137e-07
1.80628e-07
1.74406e-07
1.78097e-07
1.80572e-07
1.94353e-07
1.94543e-07
1.94878e-07
1.94399e-07
1.94027e-07
1.93122e-07
1.95965e-07
1.96763e-07
1.9578e-07
1.94501e-07
1.96497e-07
1.94787e-07
1.90756e-07
1.90884e-07
1.88981e-07
1.86312e-07
1.81386e-07
1.87827e-07
1.86232e-07
1.84321e-07
1.87779e-07
1.9477e-07
1.93599e-07
1.96703e-07
1.96674e-07
1.92873e-07
1.91887e-07
1.75182e-07
1.73295e-07
1.78363e-07
1.7702e-07
1.69524e-07
1.74829e-07
1.78676e-07
1.7217e-07
1.77962e-07
1.80766e-07
1.80495e-07
1.80321e-07
1.82671e-07
1.79384e-07
1.79415e-07
1.80345e-07
1.80228e-07
1.79515e-07
1.75168e-07
1.73738e-07
1.77627e-07
1.76437e-07
1.84879e-07
1.89428e-07
1.9036e-07
1.88474e-07
1.83003e-07
1.8445e-07
1.85401e-07
1.88634e-07
1.84654e-07
1.85032e-07
1.9234e-07
1.93627e-07
1.9322e-07
1.9253e-07
1.9143e-07
1.92016e-07
1.77251e-07
1.73259e-07
1.68541e-07
1.7801e-07
1.77786e-07
1.76263e-07
1.70419e-07
1.80013e-07
1.78525e-07
1.78537e-07
1.81408e-07
1.78765e-07
1.82422e-07
1.78012e-07
1.78848e-07
1.78964e-07
1.85927e-07
1.94157e-07
1.92886e-07
1.94858e-07
1.96816e-07
1.96782e-07
1.94635e-07
1.94577e-07
1.94674e-07
1.95881e-07
1.9348e-07
1.89058e-07
1.90529e-07
1.92706e-07
1.87452e-07
1.86232e-07
1.79194e-07
1.86295e-07
1.86133e-07
1.85753e-07
1.85908e-07
1.93189e-07
1.93257e-07
1.94832e-07
1.96694e-07
1.91999e-07
1.81215e-07
1.65898e-07
1.69231e-07
1.73188e-07
1.75348e-07
1.7893e-07
1.71423e-07
1.77632e-07