/*--------------------------------*- C++ -*----------------------------------*\
| =========                 |                                                 |
| \\      /  F ield         | OpenFOAM: The Open Source CFD Toolbox           |
|  \\    /   O peration     | Version:  v2012                                 |
|   \\  /    A nd           | Website:  www.openfoam.com                      |
|    \\/     M anipulation  |                                                 |
\*---------------------------------------------------------------------------*/
FoamFile
{
    version     2.0;
    format      ascii;
    class       volVectorField;
    location    "0.3";
    object      U;
}
// * * * * * * * * * * * * * * * * * * * * * * * * * * * * * * * * * * * * * //

dimensions      [0 1 -1 0 0 0 0];


internalField   nonuniform List<vector> 
13611
(
(7.95246 0.134995 0)
(7.94772 0.113993 -1.71108e-24)
(7.9171 0.0772286 -2.16022e-23)
(7.93766 0.0570168 0)
(7.93868 0.0746397 4.09288e-23)
(7.92753 0.10588 9.79286e-23)
(7.94387 0.0531689 -2.17045e-23)
(7.93638 0.0683004 0)
(7.92915 0.148807 -1.73512e-22)
(7.93332 0.0575908 1.47783e-24)
(7.90436 0.0749272 -8.6121e-23)
(7.94913 0.0572975 2.231e-23)
(7.93087 0.0750559 -7.43077e-24)
(7.95591 0.0568241 -1.54343e-24)
(7.91285 0.103767 3.47389e-23)
(7.93793 0.0650689 -2.90688e-23)
(7.93671 0.0408441 1.7194e-23)
(7.91493 0.10361 7.64668e-23)
(7.96353 0.063201 0)
(7.93553 0.0692366 1.52544e-23)
(7.95444 0.0508758 -3.00286e-24)
(7.95872 0.0596095 -1.63208e-23)
(7.92359 0.151453 0)
(7.94046 0.0523078 3.39438e-23)
(7.93093 0.0691408 7.21273e-26)
(7.94886 0.0468447 -5.96226e-25)
(7.90075 0.0726638 -5.42688e-23)
(7.96672 0.0533449 8.35713e-24)
(7.95016 0.0591973 -1.19627e-23)
(7.95471 0.0537233 1.98084e-23)
(7.95245 0.0516832 0)
(7.96008 0.0496745 -7.30862e-24)
(7.91241 0.116707 0)
(7.93593 0.0617278 0)
(7.92748 0.0761535 1.22292e-23)
(7.96577 0.0550055 1.87869e-23)
(7.93665 0.0379005 1.37875e-23)
(7.91434 0.104034 8.32124e-23)
(7.96542 0.0501586 -5.63754e-24)
(7.94605 0.0623626 4.50585e-24)
(7.94657 0.054486 0)
(7.95058 0.048312 0)
(7.95509 0.0485702 0)
(7.95688 0.0492735 3.72803e-24)
(7.93195 0.0680621 0)
(7.93501 0.171133 0)
(7.93734 0.0744409 0)
(7.93766 0.0688623 -7.41133e-24)
(7.97166 0.0482503 1.27621e-23)
(7.95315 0.0483392 1.1869e-23)
(7.90441 0.0667385 0)
(7.96597 0.0466829 6.2431e-25)
(7.94075 0.061094 3.22965e-24)
(7.94602 0.0491184 0)
(7.94172 0.0556008 -4.60005e-24)
(7.95233 0.0434292 0)
(7.95557 0.0441796 2.81041e-24)
(7.95872 0.04549 2.15424e-23)
(7.92679 0.0818181 0)
(7.92266 0.124584 -8.99534e-24)
(7.93264 0.0785649 1.82384e-23)
(7.93485 0.0701694 -7.49788e-24)
(7.97084 0.048894 1.73418e-23)
(7.96968 0.0450695 2.64692e-24)
(7.94566 0.0385244 -3.24653e-24)
(7.91705 0.089291 1.31295e-22)
(7.96185 0.0446409 1.67809e-23)
(7.93536 0.061199 0)
(7.94398 0.0456133 0)
(7.93842 0.0511592 -5.23436e-24)
(7.95157 0.0415373 0)
(7.9577 0.0426651 -3.88099e-25)
(7.92623 0.089682 -3.69772e-23)
(7.92023 0.0742332 -3.85813e-24)
(7.95799 0.185229 -2.44384e-22)
(7.93191 0.0735178 2.86528e-23)
(7.93286 0.0661659 -2.81708e-24)
(7.97513 0.0427421 0)
(7.97014 0.042175 -2.23486e-24)
(7.96999 0.039982 0)
(7.90611 0.0617845 -1.29268e-22)
(7.96302 0.0408279 0)
(7.93204 0.0573292 -7.37925e-24)
(7.94031 0.0466817 0)
(7.9468 0.0420366 -1.40872e-24)
(7.93479 0.0522628 -5.87101e-24)
(7.95396 0.0377086 2.44432e-24)
(7.95992 0.0392526 -5.05383e-24)
(7.92391 0.0894575 -2.83585e-23)
(7.91372 0.0882018 4.18093e-23)
(7.9294 0.116797 1.8784e-22)
(7.92841 0.0764205 1.63874e-23)
(7.92721 0.0671416 -5.27604e-24)
(7.97598 0.0408091 2.17715e-24)
(7.96595 0.0403628 -6.47079e-24)
(7.97235 0.0403848 1.69137e-24)
(7.97047 0.0326358 0)
(7.9644 0.0305953 9.49177e-24)
(7.91089 0.0884867 8.48717e-23)
(7.96318 0.0381805 0)
(7.92864 0.0566022 0)
(7.9394 0.0444837 1.31797e-24)
(7.94645 0.0392056 -8.95538e-24)
(7.93257 0.0489988 1.2621e-23)
(7.95192 0.0353773 -5.7865e-24)
(7.95593 0.0361556 5.50114e-24)
(7.95872 0.0359518 0)
(7.92657 0.0805462 1.25933e-23)
(7.91724 0.0923601 -5.44428e-24)
(7.90698 0.0718746 -6.33655e-23)
(7.96175 0.193919 0)
(7.92482 0.0735441 2.08398e-23)
(7.92282 0.0645542 -5.73828e-24)
(7.97594 0.0380221 2.04466e-25)
(7.96662 0.0371732 -4.89476e-24)
(7.96954 0.0371379 9.47116e-25)
(7.97532 0.0379017 2.94104e-25)
(7.9745 0.0326687 -8.2709e-24)
(7.90861 0.056571 -2.78843e-23)
(7.96569 0.0352818 0)
(7.92594 0.0590768 0)
(7.9292 0.0510626 0)
(7.93504 0.0452724 1.14183e-23)
(7.9414 0.039799 6.94967e-25)
(7.94453 0.0376145 9.18939e-25)
(7.94949 0.035514 -4.90724e-24)
(7.95431 0.0330191 -6.18957e-24)
(7.96172 0.0318391 0)
(7.92132 0.0817041 1.51166e-23)
(7.92097 0.102362 -1.95575e-23)
(7.92 0.0904607 9.39128e-24)
(7.9411 0.169025 0)
(7.92005 0.0756394 1.66951e-23)
(7.91925 0.0646391 0)
(7.97236 0.0353746 5.66134e-24)
(7.968 0.0352024 4.75065e-24)
(7.97665 0.0361278 4.56346e-24)
(7.96132 0.024652 0)
(7.97988 0.0393667 1.36409e-24)
(7.91662 0.0857445 8.75703e-23)
(7.96537 0.0322074 0)
(7.9233 0.0569871 -2.45012e-24)
(7.92521 0.0489067 1.22287e-23)
(7.93335 0.0405884 3.37727e-23)
(7.93707 0.0368956 1.73115e-24)
(7.94625 0.0334453 1.15926e-23)
(7.94953 0.032322 1.54612e-24)
(7.95656 0.0306028 2.26777e-25)
(7.96172 0.0287714 0)
(7.9179 0.0825946 -3.31001e-23)
(7.91786 0.094728 -2.01292e-23)
(7.91238 0.0910576 -2.94621e-23)
(7.93578 0.105159 3.66968e-22)
(7.91563 0.0731787 -2.53528e-24)
(7.9153 0.0687777 -9.20056e-24)
(7.9197 0.0605445 0)
(7.97273 0.0330655 -5.51162e-25)
(7.97028 0.0324435 1.79252e-23)
(7.9751 0.0313338 0)
(7.97634 0.0305587 0)
(7.9807 0.03438 -7.79945e-24)
(7.91764 0.0536356 0)
(7.96785 0.0288649 1.11684e-24)
(7.92185 0.0520733 9.41325e-24)
(7.92547 0.0446611 -2.20888e-23)
(7.92978 0.0400558 3.10543e-23)
(7.9381 0.0330618 1.42119e-24)
(7.94331 0.0310746 1.13008e-23)
(7.95205 0.0294675 0)
(7.95933 0.0283192 0)
(7.95536 0.0289112 -1.09028e-24)
(7.96496 0.0259114 0)
(7.91341 0.0827901 -1.53416e-23)
(7.91085 0.0938652 -1.46365e-23)
(7.89906 0.097804 -5.12987e-23)
(7.91727 0.077643 3.02634e-23)
(7.91208 0.226072 -4.45538e-22)
(7.91175 0.0766393 2.69005e-24)
(7.90977 0.0664261 0)
(7.91564 0.0579353 0)
(7.97489 0.0310932 0)
(7.97251 0.031994 1.21447e-23)
(7.9703 0.0292783 4.00466e-24)
(7.97864 0.0309571 0)
(7.96651 0.0223152 0)
(7.98202 0.0354991 1.35017e-24)
(7.92518 0.0826524 0)
(7.96769 0.0264114 1.13051e-24)
(7.91639 0.0528532 5.98915e-24)
(7.92132 0.0413259 -2.31207e-23)
(7.92877 0.0347128 -8.95975e-24)
(7.93649 0.0304652 0)
(7.9445 0.0274671 5.58621e-24)
(7.95043 0.0258784 5.86981e-24)
(7.9591 0.024045 0)
(7.95675 0.0246199 -1.09965e-23)
(7.96511 0.0227564 1.92609e-23)
(7.90999 0.0875864 0)
(7.91135 0.0892217 0)
(7.88926 0.111477 -1.41491e-23)
(7.92607 0.0993195 0)
(7.89382 0.162083 1.68456e-22)
(7.90709 0.0761077 0)
(7.90555 0.0707435 0)
(7.91047 0.0605443 0)
(7.97712 0.0287784 0)
(7.97449 0.0283916 0)
(7.97251 0.0270535 4.27415e-24)
(7.97906 0.0292193 8.56193e-24)
(7.98196 0.0279632 -1.32453e-23)
(7.98368 0.0302176 -1.66047e-23)
(7.92912 0.0562323 0)
(7.97009 0.0236396 -1.71601e-26)
(7.91467 0.0501607 1.79188e-23)
(7.92314 0.0352952 9.01209e-24)
(7.91731 0.0439442 -2.1158e-24)
(7.93223 0.0305065 -2.16474e-23)
(7.93924 0.0253248 0)
(7.943 0.0246651 6.99855e-24)
(7.94801 0.0252805 5.24922e-24)
(7.95395 0.0229688 -5.04227e-24)
(7.96183 0.0217529 1.19433e-23)
(7.96786 0.020045 2.59258e-23)
(7.90599 0.0868273 4.64857e-24)
(7.91076 0.0919572 -2.87669e-23)
(7.89929 0.106009 9.09986e-24)
(7.94966 0.0885989 8.05287e-23)
(7.89492 0.115816 1.03955e-23)
(7.8937 0.238288 0)
(7.90439 0.0806102 -1.59405e-23)
(7.90046 0.0700962 1.31183e-24)
(7.9062 0.057083 2.16953e-23)
(7.97611 0.0271602 7.00486e-25)
(7.97899 0.0273778 -8.99804e-24)
(7.97331 0.0248118 5.47722e-25)
(7.97981 0.0282824 -9.23795e-24)
(7.98133 0.0281281 8.86106e-24)
(7.97737 0.0206804 0)
(7.93827 0.0964278 1.84232e-22)
(7.97184 0.0129315 0)
(7.97216 0.0235648 -1.62656e-24)
(7.97 0.020769 1.96178e-23)
(7.90918 0.0513215 9.93695e-24)
(7.92069 0.0329202 0)
(7.91308 0.041537 -1.26338e-24)
(7.931 0.02604 -4.80391e-24)
(7.93691 0.0205867 -1.95663e-23)
(7.94526 0.0208658 7.34269e-24)
(7.94874 0.0215447 1.02967e-23)
(7.95514 0.0200608 0)
(7.96201 0.019169 0)
(7.9677 0.0173715 1.70163e-23)
(7.90111 0.0911683 -9.42023e-24)
(7.90324 0.0943155 -7.23205e-24)
(7.89242 0.102757 -2.48177e-23)
(7.92917 0.064789 4.07729e-23)
(7.88905 0.119157 -7.06645e-24)
(7.89201 0.143213 -4.75292e-23)
(7.89792 0.0805953 -2.46916e-23)
(7.89701 0.0633851 -2.01522e-23)
(7.89679 0.0760216 -2.99648e-24)
(7.90046 0.0574258 2.26619e-23)
(7.97709 0.0246073 -4.95129e-26)
(7.98059 0.024309 0)
(7.97587 0.023401 1.74117e-25)
(7.98183 0.0258016 6.16852e-24)
(7.98311 0.0263049 2.3292e-25)
(7.98126 0.0336158 -3.23568e-24)
(7.96334 0.0374859 -1.26043e-22)
(7.97625 0.0269706 0)
(7.97366 0.0205187 -1.34209e-24)
(7.97218 0.0190319 -1.86628e-24)
(7.90895 0.0466651 -1.52351e-24)
(7.91566 0.0318247 0)
(7.92399 0.0277198 7.48407e-24)
(7.91177 0.0363283 1.89063e-23)
(7.93338 0.020977 -1.10516e-23)
(7.92734 0.0252354 7.31007e-24)
(7.9398 0.0165939 -2.07762e-23)
(7.94437 0.0177467 9.07277e-24)
(7.95179 0.0192131 1.04765e-23)
(7.95784 0.0170388 0)
(7.96556 0.0168608 1.01421e-23)
(7.96046 0.0171493 0)
(7.9702 0.0147529 8.47604e-24)
(7.89592 0.08645 3.21195e-24)
(7.90089 0.0996654 7.21685e-25)
(7.8951 0.101923 -1.285e-23)
(7.91039 0.0987698 1.34805e-22)
(7.89275 0.108967 0)
(7.92833 0.205354 2.08428e-22)
(7.89169 0.0649493 -1.97262e-23)
(7.89247 0.0763159 0)
(7.89889 0.0517544 2.47968e-24)
(7.97931 0.0231478 0)
(7.98239 0.0234931 -8.43705e-24)
(7.97696 0.0208187 -3.54821e-25)
(7.98256 0.025952 7.1442e-24)
(7.98521 0.026264 -1.67831e-23)
(7.97918 0.0301274 1.51922e-23)
(7.96737 0.060597 4.12032e-23)
(7.97573 0.019471 1.44049e-25)
(7.97365 0.0169884 5.71921e-24)
(7.90352 0.0460022 0)
(7.91499 0.0255842 0)
(7.91938 0.0230296 8.74783e-24)
(7.90669 0.0359445 3.7504e-23)
(7.92923 0.0172376 -2.72374e-23)
(7.92578 0.0193281 -3.3874e-23)
(7.93874 0.0125539 1.30032e-23)
(7.94728 0.0144039 -4.72252e-24)
(7.95139 0.0153042 -2.36867e-23)
(7.95701 0.0131277 0)
(7.96524 0.0140549 -5.32766e-24)
(7.96255 0.0136138 -5.76938e-24)
(7.96939 0.012073 8.05886e-24)
(7.97263 0.0149943 6.88897e-24)
(7.89212 0.088841 1.50632e-23)
(7.89754 0.0987578 2.08374e-24)
(7.89342 0.104876 1.13963e-23)
(7.91029 0.0979875 0)
(7.89589 0.113939 -1.75268e-23)
(7.91478 0.169409 8.31704e-25)
(7.88969 0.0706765 0)
(7.88685 0.0611014 0)
(7.88761 0.0814368 1.0362e-23)
(7.8931 0.0499145 0)
(7.98025 0.0208327 -7.05078e-24)
(7.98405 0.0217193 4.26188e-25)
(7.97918 0.0195451 -7.02185e-24)
(7.98404 0.0239559 1.02308e-25)
(7.98742 0.0240768 3.65105e-24)
(7.98439 0.0248523 0)
(7.98847 0.0243942 6.21971e-24)
(7.96305 0.0659061 0)
(7.97706 0.017 0)
(7.97606 0.0158713 0)
(7.90186 0.0412742 1.36451e-23)
(7.91071 0.023336 -6.64357e-25)
(7.92033 0.0185288 -1.74267e-23)
(7.90385 0.0307003 5.93146e-24)
(7.93064 0.0129161 -4.15003e-23)
(7.94263 0.00946127 2.61246e-23)
(7.93526 0.0103343 -1.44742e-23)
(7.94627 0.0113054 1.38411e-23)
(7.95409 0.0122449 -8.32656e-24)
(7.95916 0.0107334 0)
(7.967 0.0117751 2.30916e-24)
(7.96187 0.0118233 -6.44587e-24)
(7.97118 0.0100469 6.34116e-24)
(7.9745 0.0123551 0)
(7.89158 0.0942183 1.65957e-24)
(7.88699 0.0860584 1.56704e-24)
(7.89445 0.102965 3.08235e-24)
(7.89237 0.111285 3.2559e-23)
(7.90278 0.10599 0)
(7.8935 0.115665 -5.53005e-24)
(7.9394 0.116977 -3.0453e-24)
(7.88351 0.0710603 3.47559e-24)
(7.88176 0.0662293 3.11376e-24)
(7.88817 0.0549881 0)
(7.88169 0.0779672 0)
(7.8915 0.0431771 2.28e-23)
(7.98238 0.0194453 -5.12818e-25)
(7.98384 0.0200436 4.54913e-24)
(7.98559 0.0217196 1.18216e-23)
(7.98035 0.0171042 0)
(7.98535 0.0238934 1.93222e-24)
(7.98787 0.0230699 1.24045e-24)
(7.98761 0.0253247 2.53861e-24)
(7.99097 0.0227353 0)
(7.9655 0.0377323 1.50188e-23)
(7.97924 0.0159013 0)
(7.97677 0.0132429 0)
(7.8966 0.0387893 -3.24689e-25)
(7.90913 0.0172525 -3.64497e-25)
(7.90619 0.025745 0)
(7.91794 0.015246 1.02738e-23)
(7.89707 0.0330453 -1.14512e-24)
(7.92666 0.00926504 -2.8066e-23)
(7.94237 0.00589453 0)
(7.93604 0.00468747 5.48299e-23)
(7.94918 0.00849516 0)
(7.9524 0.00941967 6.51087e-24)
(7.959 0.00791708 7.75779e-25)
(7.96622 0.00919101 8.75014e-24)
(7.96378 0.00922931 -1.24944e-23)
(7.97081 0.00697397 0)
(7.97396 0.0102182 0)
(7.8851 0.0961677 5.05337e-24)
(7.88303 0.0913896 0)
(7.89408 0.110239 5.50257e-24)
(7.88511 0.10166 2.75966e-24)
(7.89913 0.133028 6.99463e-23)
(7.89244 0.119641 -1.64727e-23)
(7.82902 0.1782 0)
(7.95095 0.0945955 1.79412e-23)
(7.8755 0.0656013 0)
(7.87985 0.0516757 2.06793e-23)
(7.87571 0.0791569 -4.17826e-24)
(7.88561 0.0391318 2.45325e-23)
(7.98334 0.0169426 1.23029e-26)
(7.98592 0.0175602 1.79871e-26)
(7.98719 0.0199871 1.1246e-23)
(7.98245 0.015899 0)
(7.9863 0.021641 -1.62833e-24)
(7.98762 0.0218732 0)
(7.98924 0.0244287 0)
(7.99292 0.0287353 0)
(7.98312 0.0162427 0)
(7.9711 0.0604565 -5.54239e-23)
(7.98036 0.0134959 1.13921e-23)
(7.97862 0.0120554 7.20468e-24)
(7.90237 0.0154939 1.68061e-23)
(7.91272 0.0138274 2.03441e-23)
(7.90047 0.0205731 1.23981e-23)
(7.9216 0.0100564 0)
(7.89197 0.0283288 0)
(7.92867 0.00381608 3.97036e-24)
(7.94618 0.00316993 -1.37532e-24)
(7.93988 0.00297898 8.256e-24)
(7.93335 0.0022555 3.8705e-23)
(7.94879 0.00470215 0)
(7.95406 0.00628153 4.21118e-24)
(7.9569 0.0057449 -1.56073e-24)
(7.96209 0.00666701 -5.28673e-24)
(7.96817 0.00667533 6.32252e-24)
(7.97296 0.00485127 0)
(7.97589 0.00797001 -8.25956e-24)
(7.87648 0.09254 0)
(7.8885 0.114495 4.87427e-24)
(7.88009 0.104831 0)
(7.89066 0.136862 -1.19738e-23)
(7.89007 0.122622 0)
(7.99788 0.338784 0)
(7.9639 0.0996628 3.87044e-23)
(7.87166 0.0727605 -3.99944e-24)
(7.8737 0.058043 4.89609e-23)
(7.87892 0.0440985 -5.07393e-23)
(7.87257 0.0870315 -2.82859e-23)
(7.88543 0.0316032 4.53423e-23)
(7.98544 0.0159785 -4.67702e-24)
(7.98736 0.0176064 0)
(7.98805 0.0199424 5.39042e-24)
(7.98384 0.01375 -1.7422e-24)
(7.98905 0.021191 0)
(7.99226 0.0244341 4.08731e-24)
(7.99259 0.0237918 0)
(7.98925 0.0236853 0)
(7.96892 0.0337651 -8.41715e-24)
(7.98249 0.0123239 3.12733e-24)
(7.97948 0.00997267 5.98053e-24)
(7.90189 0.00900303 4.19304e-24)
(7.91352 0.00738836 -9.18936e-24)
(7.8939 0.0216058 -1.43584e-24)
(7.91834 0.00494872 6.46146e-24)
(7.92639 0.000469405 1.12118e-23)
(7.94623 -0.000581278 1.84342e-23)
(7.94229 -0.000870125 0)
(7.93369 -0.00274589 0)
(7.95186 0.00307115 0)
(7.95859 0.0023184 1.28831e-23)
(7.96351 0.00438355 6.97766e-24)
(7.96673 0.00398598 9.38881e-24)
(7.97534 0.00589536 0)
(7.97282 0.00265141 2.11989e-23)
(7.97802 0.00815948 -8.61534e-24)
(7.87491 0.0999174 0)
(7.88865 0.120716 0)
(7.88056 0.111221 -1.38521e-23)
(7.88429 0.141667 1.01377e-23)
(7.89012 0.130771 0)
(7.99611 0.209839 3.12033e-22)
(7.90861 0.138849 1.42696e-22)
(7.86456 0.0726821 0)
(7.86533 0.0566303 2.70184e-23)
(7.87128 0.0394603 -5.0759e-23)
(7.86361 0.0887089 -3.77313e-23)
(7.87922 0.0253591 4.54157e-23)
(7.98653 0.0139937 0)
(7.98897 0.0158321 0)
(7.98975 0.0182198 7.64493e-24)
(7.98578 0.0126812 -2.33583e-24)
(7.99053 0.0191628 0)
(7.99365 0.0198585 3.21762e-24)
(7.99577 0.0210791 0)
(7.98886 0.0188904 2.6486e-25)
(7.97325 0.0447901 1.42207e-23)
(7.98322 0.0100099 -4.81983e-25)
(7.98165 0.00896736 2.95709e-25)
(7.89374 0.00752512 -7.37661e-24)
(7.90781 0.00394105 0)
(7.88951 0.0141178 2.07607e-25)
(7.92122 0.000706575 1.36464e-23)
(7.9293 -0.0035522 0)
(7.94876 -0.00289563 1.97259e-23)
(7.94098 -0.00488246 5.42177e-24)
(7.93671 -0.00578532 1.51889e-23)
(7.95366 0.000204085 3.10449e-24)
(7.95719 -0.000326915 1.78776e-23)
(7.96195 0.00191757 1.0056e-23)
(7.96838 0.00135584 1.76616e-23)
(7.97712 0.0037119 -3.46476e-25)
(7.97583 0.00158292 -4.12912e-25)
(7.97115 0.000866725 2.76891e-23)
(7.97923 0.00581708 -5.07321e-24)
(7.86816 0.102741 0)
(7.88388 0.127351 0)
(7.87449 0.115872 -2.64319e-23)
(7.88658 0.136808 1.05242e-23)
(7.8861 0.132963 0)
(7.93783 0.214163 4.15175e-22)
(7.90344 0.158009 0)
(7.85931 0.0821775 -9.3829e-24)
(7.86028 0.0648563 3.59845e-23)
(7.8607 0.0508112 1.6885e-23)
(7.86461 0.042472 0)
(7.87203 0.0289302 0)
(7.86075 0.0969712 0)
(7.8816 0.0158269 1.96249e-25)
(7.98813 0.0128403 0)
(7.99037 0.0166921 0)
(7.98939 0.0140782 -4.7274e-24)
(7.99092 0.017905 8.35754e-24)
(7.98698 0.0101973 -5.8672e-25)
(7.99239 0.0179925 0)
(7.99327 0.0186641 0)
(7.99662 0.0194488 0)
(7.9978 0.0179943 0)
(7.97341 0.0272189 4.62354e-23)
(7.98531 0.00895256 0)
(7.98152 0.00644365 -1.38829e-26)
(7.89051 0.00193239 -3.51282e-23)
(7.908 -0.00150954 -3.38329e-23)
(7.91845 -0.00345772 0)
(7.92644 -0.00792412 -4.66379e-24)
(7.9479 -0.00758861 1.37052e-23)
(7.95214 -0.00237169 0)
(7.9441 -0.00912156 -2.36574e-23)
(7.93408 -0.0111586 8.22521e-24)
(7.95909 -0.00343517 -2.90245e-24)
(7.96374 -0.000996564 7.6864e-24)
(7.96685 -0.00131127 2.75908e-24)
(7.97931 0.00375473 1.38898e-23)
(7.9771 -0.000635737 -1.4235e-23)
(7.97261 -0.00206408 -2.64486e-24)
(7.86756 0.111989 0)
(7.87504 0.124764 4.4989e-23)
(7.88511 0.142057 1.84544e-23)
(7.88593 0.140097 1.82122e-23)
(7.91166 0.13989 1.47288e-22)
(7.89062 0.146899 0)
(7.84947 0.0804119 0)
(7.85241 0.0648845 3.36364e-23)
(7.85054 0.0492386 4.20149e-23)
(7.85737 0.0369864 0)
(7.86525 0.025031 0)
(7.85352 0.100664 -7.11977e-24)
(7.87459 0.00970427 -9.78894e-24)
(7.98956 0.010691 0)
(7.9889 0.0132067 -8.21238e-24)
(7.99174 0.0147119 6.3406e-24)
(7.99137 0.01339 -2.26202e-24)
(7.99265 0.015593 -2.0775e-24)
(7.98874 0.00934038 0)
(7.99365 0.0154185 0)
(7.99498 0.016607 0)
(7.99679 0.0170426 0)
(7.99678 0.0132143 -1.20299e-23)
(7.97602 0.0396384 8.34657e-24)
(7.99593 0.0106617 -1.08371e-23)
(7.9855 0.00677898 5.69307e-24)
(7.98336 0.00545929 0)
(7.88434 -0.000357224 -2.50981e-23)
(7.89627 -0.00452483 -1.42715e-23)
(7.902 -0.00555744 0)
(7.91361 -0.00565387 -3.43683e-23)
(7.92158 -0.00840223 -4.56611e-24)
(7.92908 -0.0120368 1.94686e-24)
(7.95078 -0.00960442 2.5574e-23)
(7.95409 -0.00613468 -6.18077e-24)
(7.94153 -0.0133893 -2.01434e-23)
(7.93648 -0.0146373 3.92236e-24)
(7.95701 -0.00653331 -1.28822e-23)
(7.96223 -0.00378949 -8.74613e-24)
(7.96821 -0.00407503 -5.98894e-24)
(7.98174 0.00175354 1.59559e-23)
(7.97513 -0.00250817 -6.53943e-24)
(7.97915 -0.00161008 -2.68383e-25)
(7.97086 -0.00423634 -5.69057e-24)
(7.86023 0.116445 0)
(7.868 0.130669 4.65355e-23)
(7.88707 0.145015 4.37755e-23)
(7.88514 0.145378 0)
(7.87817 0.143284 -8.0319e-25)
(7.93296 0.119584 1.35614e-22)
(7.85245 0.326011 0)
(7.88323 0.158897 -3.24908e-23)
(7.84412 0.0874537 -2.98017e-23)
(7.84661 0.0721862 0)
(7.84548 0.0551779 1.89076e-23)
(7.84812 0.0419032 3.11494e-24)
(7.85794 0.0300907 1.59818e-23)
(7.86151 0.0170563 -4.1149e-24)
(7.84584 0.09661 -1.77671e-23)
(7.85245 0.110516 -3.54737e-23)
(7.86601 0.0104761 1.77345e-23)
(7.87732 0.00261139 -2.65825e-23)
(7.99096 0.00992678 -1.45894e-24)
(7.99104 0.0110763 -2.98357e-24)
(7.99266 0.0145372 1.02104e-23)
(7.99248 0.0118751 -2.63472e-24)
(7.99358 0.0150393 -9.61593e-25)
(7.98983 0.00755495 0)
(7.99488 0.0143106 7.57595e-24)
(7.99528 0.014473 8.98116e-24)
(7.99776 0.0154469 0)
(7.9972 0.0156685 -7.22028e-24)
(7.9797 0.0193012 -4.19198e-23)
(8.0002 0.0108743 -1.04729e-23)
(7.98734 0.00537877 5.87557e-24)
(7.98409 0.00351692 -6.56446e-24)
(7.88425 -0.0106441 0)
(7.88997 -0.0123182 1.80512e-23)
(7.90269 -0.0136071 1.62812e-23)
(7.91291 -0.0122349 0)
(7.91767 -0.0139363 0)
(7.92604 -0.0173718 -5.9895e-24)
(7.95169 -0.0125889 1.46716e-24)
(7.94375 -0.0167266 -2.06019e-23)
(7.93471 -0.0188052 2.33671e-23)
(7.95861 -0.00965045 -9.32189e-24)
(7.96396 -0.00661887 -5.89613e-24)
(7.96677 -0.00657352 -5.975e-24)
(7.98102 -0.000389911 5.28527e-24)
(7.98367 0.00216005 8.32236e-24)
(7.97536 -0.00495351 8.18529e-24)
(7.97895 -0.00391964 -9.96665e-24)
(7.97165 -0.00626568 -2.45198e-24)
(7.8591 0.126691 0)
(7.86789 0.140922 2.80318e-23)
(7.88934 0.152996 -1.78264e-24)
(7.88441 0.142814 0)
(7.87989 0.154063 -7.08106e-25)
(7.95108 0.0602399 3.75866e-22)
(7.84464 0.188928 7.53152e-22)
(7.87535 0.15315 1.95508e-24)
(7.83411 0.0873463 -1.80688e-23)
(7.83977 0.0690693 8.72266e-24)
(7.83824 0.0579819 -3.32387e-23)
(7.84133 0.0385848 -1.14201e-23)
(7.85025 0.0254434 1.52325e-23)
(7.85213 0.0179017 1.66681e-24)
(7.83827 0.101483 -3.67793e-26)
(7.8445 0.115226 -3.4627e-23)
(7.86102 0.00277283 1.72397e-23)
(7.87314 -0.00529518 5.71275e-24)
(7.99192 0.00856876 -1.42185e-24)
(7.99238 0.0107594 -2.14753e-24)
(7.9936 0.0130043 2.52229e-24)
(7.99399 0.0115705 -4.55266e-24)
(7.99442 0.0128909 2.07145e-24)
(7.98902 0.00603483 0)
(7.99151 0.0074569 0)
(7.99583 0.0121839 0)
(7.99749 0.0130054 0)
(7.99761 0.012974 -1.42297e-23)
(7.98263 0.0295488 3.7237e-23)
(7.99765 0.00725739 2.01035e-24)
(7.98735 0.00331368 -5.70058e-24)
(7.98634 0.00259427 -1.1522e-23)
(7.87747 -0.013487 3.34247e-23)
(7.89211 -0.0166177 1.28615e-23)
(7.90794 -0.0156606 0)
(7.89825 -0.0160544 6.34124e-24)
(7.92025 -0.0181405 0)
(7.92922 -0.0208776 8.12106e-24)
(7.95582 -0.0132446 3.4721e-24)
(7.94837 -0.0160599 -7.8772e-24)
(7.94176 -0.0210901 -1.04562e-23)
(7.93765 -0.0222942 1.13665e-23)
(7.96193 -0.00970656 3.87889e-24)
(7.96813 -0.00911104 4.1654e-24)
(7.98256 -0.00226329 0)
(7.98542 0.000211272 -6.81951e-24)
(7.97405 -0.00656211 -1.71157e-24)
(7.97744 -0.00540932 2.21095e-24)
(7.98109 -0.00429018 -4.02914e-24)
(7.97076 -0.00873249 -8.43197e-24)
(7.85206 0.131439 0)
(7.85883 0.14753 2.98823e-23)
(7.89123 0.148209 0)
(7.88821 0.156716 -4.10048e-24)
(7.87157 0.161641 0)
(7.94702 0.0912903 -1.21618e-22)
(7.83549 0.270006 -2.81703e-22)
(7.88212 0.160882 -8.19881e-23)
(7.82797 0.0799645 -6.39832e-24)
(7.83089 0.0960058 6.16151e-24)
(7.8313 0.070921 9.15739e-24)
(7.82843 0.0528202 -3.76939e-23)
(7.83363 0.0380252 1.23308e-23)
(7.84331 0.0282209 -7.62716e-24)
(7.84723 0.0112827 4.65846e-24)
(7.83654 0.110615 -2.00036e-23)
(7.84356 0.125708 4.05742e-23)
(7.85242 0.00376276 0)
(7.86535 -0.00507697 2.42403e-23)
(7.99323 0.00814725 0)
(7.9937 0.00899591 -2.78259e-25)
(7.99511 0.00979473 -4.94703e-24)
(7.99527 0.0116556 0)
(7.99046 0.00423046 1.51631e-24)
(7.9924 0.00610555 -5.64457e-25)
(7.99674 0.0108005 0)
(7.9981 0.0105711 0)
(7.99841 0.00995291 1.3902e-24)
(7.98677 0.0133532 -5.71232e-23)
(8.00186 0.0080009 6.23977e-24)
(7.98917 0.00220061 5.60041e-24)
(7.98698 0.000815312 -6.38918e-24)
(7.87214 -0.0208242 2.09829e-23)
(7.89031 -0.0210526 -3.02059e-24)
(7.90671 -0.021854 3.23608e-23)
(7.89538 -0.0231487 -3.1446e-24)
(7.91671 -0.0225725 -5.20515e-24)
(7.92738 -0.025123 0)
(7.95667 -0.0168616 -1.00845e-23)
(7.9497 -0.0199802 -5.63401e-24)
(7.94379 -0.0244097 -1.32749e-23)
(7.93522 -0.027231 0)
(7.96301 -0.0125012 1.08519e-24)
(7.96618 -0.0122197 3.6835e-24)
(7.9843 -0.00176471 0)
(7.97472 -0.00926847 8.89509e-24)
(7.97804 -0.00739908 8.05047e-24)
(7.98164 -0.00600534 0)
(7.97263 -0.0106802 -8.04239e-24)
(7.85062 0.143244 0)
(7.85906 0.158294 0)
(7.89972 0.156587 0)
(7.89277 0.168138 -1.07514e-22)
(7.87431 0.173545 1.7145e-23)
(7.97562 0.131194 -3.11916e-22)
(7.82476 0.176827 5.30048e-23)
(7.87956 0.159495 -3.7959e-23)
(7.81671 0.0835303 9.02432e-24)
(7.82239 0.0996586 3.72574e-24)
(7.82119 0.061669 -5.11794e-23)
(7.82799 0.0454169 -2.45363e-24)
(7.82799 0.026937 2.14478e-23)
(7.83464 0.0213282 -4.45176e-24)
(7.83695 0.0141113 1.64689e-24)
(7.82836 0.115197 -1.80646e-23)
(7.83508 0.130579 2.98444e-23)
(7.84686 -0.00409979 0)
(7.85828 -0.0144552 1.5563e-23)
(7.99416 0.00683467 0)
(7.99479 0.00820498 1.4048e-25)
(7.99551 0.00843892 -4.46689e-25)
(7.99599 0.009561 3.7503e-25)
(7.996 0.00992638 -2.24662e-24)
(7.99199 0.00473865 -4.848e-25)
(7.9905 0.00281476 7.24855e-24)
(7.99377 0.00609521 0)
(7.997 0.00894027 -6.15635e-24)
(7.99758 0.0104861 7.37114e-25)
(7.99869 0.00917311 1.48482e-24)
(7.99982 0.00898791 3.11832e-24)
(7.992 0.0223423 0)
(7.99828 0.00145906 -1.58933e-24)
(7.99977 0.00383181 -1.04288e-23)
(7.98968 0.000604768 -4.81425e-24)
(7.98833 -0.00017226 -5.33028e-24)
(7.87634 -0.0271632 -8.64623e-24)
(7.86173 -0.0221041 0)
(7.88529 -0.0259329 -6.02501e-24)
(7.91117 -0.0247985 3.80793e-23)
(7.90046 -0.0248721 0)
(7.91938 -0.0275643 -9.46404e-24)
(7.9313 -0.0285688 0)
(7.92344 -0.0281095 0)
(7.96003 -0.0165713 -2.24378e-23)
(7.95399 -0.0198743 -5.22296e-24)
(7.94768 -0.0232073 5.74493e-24)
(7.94167 -0.0290001 2.36183e-23)
(7.93774 -0.0307556 0)
(7.96737 -0.0143202 0)
(7.9855 -0.0030861 0)
(7.97658 -0.00973251 4.0863e-24)
(7.98015 -0.00775573 8.78853e-24)
(7.98389 -0.00650111 9.32065e-24)
(7.97099 -0.0134738 0)
(7.84443 0.147901 0)
(7.85301 0.167415 0)
(7.90373 0.154251 1.48501e-23)
(7.89995 0.169104 -7.44032e-23)
(7.88708 0.176588 -1.82926e-23)
(7.86859 0.180307 2.06228e-23)
(7.97851 0.117991 1.56138e-22)
(7.9053 0.169492 0)
(7.83613 0.295448 3.04306e-22)
(7.80489 0.0766566 -3.1501e-24)
(7.8146 0.0932496 2.36074e-24)
(7.82066 0.109822 2.34245e-24)
(7.81277 0.059469 -4.44043e-23)
(7.81891 0.043172 -4.01883e-23)
(7.81763 0.0233865 -7.84452e-24)
(7.83102 0.00692285 7.72407e-24)
(7.82683 0.1253 -1.00953e-23)
(7.83427 0.140833 0)
(7.83784 -0.00323576 8.39943e-24)
(7.85016 -0.0138623 2.19346e-23)
(7.99527 0.00676405 0)
(7.99651 0.00720974 3.8419e-25)
(7.99696 0.00768198 -1.49327e-24)
(7.99692 0.00878308 -8.59366e-24)
(7.99321 0.00375852 3.69368e-24)
(7.99213 0.00155982 -3.74996e-24)
(7.99448 0.0047306 3.54719e-24)
(7.99767 0.00771404 -1.485e-24)
(7.99821 0.00791789 -9.38303e-25)
(7.99925 0.00755384 -7.3695e-24)
(7.99952 0.00580242 -2.42032e-24)
(8.00019 0.000255968 -1.52654e-23)
(7.99952 0.00225682 -1.86376e-23)
(8.00018 0.00554142 -4.96254e-24)
(7.99094 -0.000351295 5.03749e-24)
(7.98753 -0.00195729 0)
(7.87293 -0.0352212 1.15744e-23)
(7.85673 -0.0326312 -1.72907e-23)
(7.88811 -0.0338186 -5.41795e-24)
(7.91034 -0.0313489 0)
(7.89982 -0.0314691 1.81155e-23)
(7.91503 -0.0331211 0)
(7.92865 -0.0335447 0)
(7.9247 -0.0337728 0)
(7.96153 -0.0187779 -2.12931e-23)
(7.95387 -0.0234813 1.98606e-23)
(7.95009 -0.02553 1.21292e-23)
(7.94399 -0.0312732 2.75064e-23)
(7.93549 -0.0350375 0)
(7.9655 -0.0169234 -7.5816e-24)
(7.98542 -0.00484275 3.38641e-24)
(7.97776 -0.0120115 -7.13083e-24)
(7.98116 -0.00940155 -4.04465e-25)
(7.984 -0.00853124 6.04763e-24)
(7.97222 -0.0159891 -7.39324e-24)
(7.84014 0.157995 -2.76609e-23)
(7.84366 0.166478 -8.39167e-24)
(7.85632 0.177264 0)
(7.91212 0.171299 1.97139e-23)
(7.90852 0.175908 1.53608e-23)
(7.89029 0.18752 6.92982e-24)
(7.87017 0.193091 2.95163e-23)
(7.97206 0.0816115 -3.62796e-23)
(7.89759 0.169799 -1.26754e-23)
(7.85444 0.227346 4.19173e-26)
(7.7932 0.0812827 -2.19693e-23)
(7.80525 0.0657639 0)
(7.80427 0.0988895 -2.03879e-24)
(7.8135 0.113968 -6.81166e-25)
(7.81179 0.0502495 -2.12675e-23)
(7.81154 0.0304294 -2.78132e-23)
(7.81348 0.0163264 0)
(7.82221 0.00710046 1.12887e-23)
(7.81765 0.130742 0)
(7.8245 0.146736 0)
(7.83234 -0.00962782 -2.66093e-24)
(7.84267 -0.0212053 3.80053e-24)
(7.99602 0.00555836 -2.90333e-24)
(7.99715 0.00611741 5.47838e-24)
(7.99762 0.00687143 4.15316e-24)
(7.99777 0.00725109 4.74695e-24)
(7.99394 0.00275952 0)
(7.99207 0.000276119 1.94172e-24)
(7.99329 0.00188397 -5.57048e-24)
(7.9956 0.00443341 -2.85672e-24)
(7.99793 0.00644397 -3.90864e-24)
(7.9987 0.007148 -4.82634e-24)
(7.99979 0.00628291 -1.74853e-24)
(8.00036 0.00460048 0)
(7.99965 0.00282023 6.236e-24)
(7.9903 -0.00186506 0)
(7.98864 -0.00296229 0)
(7.87835 -0.0421592 3.13681e-23)
(7.86419 -0.0398291 1.06149e-26)
(7.84896 -0.0348132 -1.36219e-23)
(7.88502 -0.039974 1.27542e-23)
(7.89496 -0.0347547 1.69003e-23)
(7.90536 -0.0350476 3.83267e-25)
(7.9164 -0.0367901 7.96535e-24)
(7.93045 -0.0361986 3.55521e-24)
(7.92159 -0.037077 0)
(7.96164 -0.0210711 -2.20669e-23)
(7.95599 -0.025373 2.01239e-23)
(7.94834 -0.0287543 -1.42905e-24)
(7.94384 -0.035285 -1.5621e-23)
(7.93676 -0.0386923 0)
(7.96711 -0.0194055 -1.29206e-23)
(7.98706 -0.00559425 -6.95282e-24)
(7.98003 -0.0117655 1.12216e-24)
(7.97507 -0.0152937 0)
(7.98291 -0.00965863 -3.69933e-24)
(7.98545 -0.00937982 4.63257e-24)
(7.96981 -0.018981 -1.27789e-23)
(7.82639 0.157394 -1.80403e-23)
(7.83557 0.179437 1.6391e-23)
(7.8515 0.189949 1.21529e-23)
(7.91979 0.161771 -1.35856e-23)
(7.91072 0.188637 3.9828e-23)
(7.87903 0.196366 2.36054e-23)
(7.90126 0.193816 3.62383e-23)
(7.86083 0.197603 1.73002e-23)
(7.96688 0.123765 -5.7729e-23)
(7.91375 0.161158 0)
(7.84445 0.118603 -6.01238e-22)
(7.79097 0.0927719 -1.24748e-23)
(7.78468 0.0751472 -4.88882e-24)
(7.79605 0.0602399 0)
(7.80371 0.108285 -4.13361e-25)
(7.81067 0.125926 -3.24358e-23)
(7.80373 0.0451311 5.57049e-24)
(7.80281 0.033022 0)
(7.80506 0.00972133 0)
(7.81728 -0.00335879 3.91753e-23)
(7.81575 0.141554 -2.5318e-23)
(7.82242 -0.0106956 2.37659e-23)
(7.83461 -0.0187177 -1.94176e-23)
(7.84233 -0.028686 1.57114e-23)
(7.99689 0.00531351 5.87648e-24)
(7.99806 0.00526957 0)
(7.99827 0.00541989 -4.09255e-25)
(7.99831 0.00627936 -3.42399e-24)
(7.99521 0.00203268 -1.19933e-25)
(7.99282 -0.000785959 -3.42896e-24)
(7.99405 0.0004895 0)
(7.99646 0.00324715 -4.61425e-25)
(7.99854 0.00520561 2.11565e-24)
(7.99874 0.00540615 3.00606e-24)
(8.0003 0.00444556 6.23408e-24)
(8.0002 0.00215906 0)
(8.00003 0.000790062 0)
(7.99153 -0.00233788 2.34813e-24)
(7.98828 -0.00420159 0)
(7.87529 -0.0502965 0)
(7.86217 -0.0478548 -2.13256e-23)
(7.84391 -0.0451266 0)
(7.88909 -0.0452717 0)
(7.89499 -0.0420937 -1.03043e-24)
(7.90465 -0.0412858 -1.67964e-23)
(7.9135 -0.040147 8.19027e-24)
(7.92892 -0.0410149 -1.43143e-23)
(7.92063 -0.0424169 -2.88067e-23)
(7.9593 -0.0241698 -1.30327e-23)
(7.96506 -0.0221368 -5.96956e-24)
(7.95379 -0.0299224 1.06837e-23)
(7.95036 -0.0311873 0)
(7.94063 -0.0389479 0)
(7.94786 -0.0357834 -5.54234e-24)
(7.93275 -0.0433908 -1.78337e-23)
(7.98798 -0.00717518 1.06021e-25)
(7.98104 -0.01315 0)
(7.97588 -0.0170775 -9.59599e-25)
(7.9832 -0.0117198 0)
(7.98678 -0.00882018 -8.73131e-25)
(7.98449 -0.011783 0)
(7.97045 -0.0216022 0)
(7.8188 0.165597 -2.00787e-23)
(7.8408 0.190437 0)
(7.82095 0.178375 0)
(7.93359 0.176966 0)
(7.92567 0.194821 0)
(7.88213 0.207234 1.5871e-23)
(7.90006 0.20445 1.59155e-23)
(7.85989 0.210645 -9.39413e-24)
(7.96995 0.0736143 -2.68354e-23)
(7.92361 0.150028 3.77636e-23)
(7.79317 0.194931 2.7313e-22)
(7.78172 0.0966762 -1.30776e-23)
(7.78673 0.0649202 -1.23316e-23)