/*--------------------------------*- C++ -*----------------------------------*\
| =========                 |                                                 |
| \\      /  F ield         | OpenFOAM: The Open Source CFD Toolbox           |
|  \\    /   O peration     | Version:  v2012                                 |
|   \\  /    A nd           | Website:  www.openfoam.com                      |
|    \\/     M anipulation  |                                                 |
\*---------------------------------------------------------------------------*/
FoamFile
{
    version     2.0;
    format      ascii;
    class       surfaceVectorField;
    location    "0.3";
    object      Uf;
}
// * * * * * * * * * * * * * * * * * * * * * * * * * * * * * * * * * * * * * //

dimensions      [0 1 -1 0 0 0 0];


internalField   nonuniform List<vector> 
21888
(
(7.96581 0.106497 -8.16432e-25)
(7.91172 0.0958074 -1.1747e-23)
(7.9415 0.0831053 -8.18379e-25)
(7.94205 0.0960967 -1.44464e-21)
(7.93483 0.0788339 3.01201e-23)
(7.92904 0.064902 5.51174e-22)
(7.94107 0.0549828 -1.05365e-23)
(7.9339 0.0688641 0)
(7.91219 0.0963289 -6.8631e-23)
(7.93527 0.0643525 1.65387e-23)
(7.89751 0.0792011 2.73206e-20)
(7.95062 0.0575175 -5.53862e-21)
(7.93343 0.0723565 -4.48682e-24)
(7.9446 0.0605012 -7.66776e-25)
(7.94626 0.113272 -3.47124e-20)
(7.93348 0.0674036 -3.41149e-21)
(7.93565 0.0615162 -1.44531e-23)
(7.92076 0.0556019 -3.35399e-23)
(7.92651 0.0760711 2.70107e-20)
(7.93864 0.0516572 1.96233e-23)
(7.9572 0.0617101 1.00923e-23)
(7.93543 0.0698739 3.55083e-24)
(7.95589 0.0520688 1.92235e-21)
(7.95675 0.0585397 2.10942e-22)
(7.89579 0.112304 1.8135e-23)
(7.9279 0.0688316 3.42921e-23)
(7.94292 0.0619708 6.27969e-21)
(7.93417 0.069076 -1.40696e-23)
(7.94662 0.0462964 6.05565e-21)
(7.89068 0.0759366 1.08018e-23)
(7.96193 0.0605709 -7.80417e-24)
(7.96388 0.057455 4.37025e-24)
(7.93006 0.067451 -4.7086e-21)
(7.94192 0.0654213 3.39479e-24)
(7.95425 0.052371 8.40465e-24)
(7.95353 0.0516058 -1.28974e-24)
(7.95921 0.0540804 4.65509e-22)
(7.94199 0.119974 0)
(7.93324 0.0614225 1.78685e-23)
(7.93046 0.0717046 -7.60581e-22)
(7.95744 0.0518039 9.24642e-24)
(7.93887 0.0452856 -6.36042e-21)
(7.91877 0.0528811 -2.01869e-23)
(7.92395 0.0763479 2.56463e-20)
(7.9676 0.0531465 2.12078e-21)
(7.96606 0.0516352 -5.46778e-24)
(7.95368 0.0575134 -3.36055e-21)
(7.94592 0.0618073 -3.28361e-24)
(7.95019 0.0548489 9.17528e-24)
(7.95139 0.0499893 0)
(7.95416 0.0498853 0)
(7.96289 0.0499252 -6.42977e-24)
(7.95843 0.0498665 -1.78617e-24)
(7.92389 0.0859383 0)
(7.89636 0.124618 0)
(7.93189 0.0699752 6.46153e-24)
(7.93723 0.0681705 0)
(7.93211 0.0715141 1.75226e-21)
(7.96731 0.0508561 1.58327e-23)
(7.94949 0.0464352 5.76953e-21)
(7.89144 0.0733353 4.40458e-23)
(7.96588 0.0486228 -3.5487e-22)
(7.94266 0.0658412 -1.07956e-24)
(7.94341 0.0616228 3.42293e-23)
(7.9459 0.0514384 0)
(7.94466 0.0548639 -2.26749e-24)
(7.94868 0.0486313 0)
(7.95119 0.0459019 0)
(7.95583 0.0489614 1.70943e-24)
(7.95533 0.04638 1.40295e-24)
(7.95794 0.0472618 1.30744e-22)
(7.93856 0.0766814 0)
(7.92263 0.0777923 0)
(7.95492 0.126568 -4.76304e-24)
(7.93423 0.0772238 9.7221e-24)
(7.93606 0.0695933 2.53849e-22)
(7.9716 0.0483002 6.13211e-22)
(7.97068 0.0463703 7.72216e-24)
(7.96174 0.0487973 1.45254e-23)
(7.94565 0.0455379 -3.31763e-21)
(7.92827 0.0481039 -1.84202e-24)
(7.92521 0.0690132 6.22334e-23)
(7.96754 0.0460147 1.54752e-24)
(7.96398 0.0458653 -4.56278e-23)
(7.941 0.0581826 -6.66224e-25)
(7.93843 0.0609896 1.64444e-24)
(7.945 0.0476125 0)
(7.94001 0.053136 -8.93918e-23)
(7.9544 0.0436534 1.60209e-24)
(7.95196 0.0426248 0)
(7.95631 0.0435358 -5.93596e-23)
(7.96011 0.0451183 -2.21552e-24)
(7.95832 0.0441039 1.27309e-22)
(7.92639 0.0870398 -1.82558e-23)
(7.92911 0.082463 -1.77346e-24)
(7.92145 0.0975821 1.05043e-22)
(7.9104 0.136133 -1.21035e-22)
(7.92779 0.0837394 -2.25087e-21)
(7.93226 0.0757671 2.2712e-23)
(7.93329 0.0719052 -3.82349e-23)
(7.9338 0.0682543 4.17762e-23)
(7.97276 0.0457317 8.67088e-24)
(7.97002 0.0435463 1.47138e-22)
(7.96045 0.0434306 -1.65081e-24)
(7.89759 0.0671834 3.4422e-20)
(7.9623 0.0426713 8.49561e-24)
(7.934 0.063526 -1.37382e-24)
(7.93352 0.058782 -4.08536e-24)
(7.9423 0.046091 0)
(7.94542 0.0436477 -7.53497e-25)
(7.93945 0.049104 -2.70919e-24)
(7.93618 0.0518537 -5.59343e-24)
(7.94886 0.0419011 -7.33469e-25)
(7.95296 0.0390697 1.51093e-24)
(7.95871 0.0411489 -4.11794e-23)
(7.92662 0.0889541 -2.20109e-21)
(7.91033 0.0860111 -1.02627e-20)
(7.96821 0.128304 -8.08003e-20)
(7.93023 0.0749714 2.75587e-22)
(7.93022 0.0666093 -3.98863e-24)
(7.97312 0.0408581 0)
(7.97546 0.0414166 1.09786e-24)
(7.96794 0.0413662 4.62428e-23)
(7.97143 0.0411795 -9.64433e-26)
(7.96906 0.0364665 0)
(7.93561 0.0431984 1.3481e-21)
(7.92316 0.0658848 2.08189e-20)
(7.96475 0.0405062 -3.59021e-24)
(7.96309 0.0396691 0)
(7.93381 0.0547594 -4.68866e-22)
(7.92995 0.0571974 -3.48692e-24)
(7.93986 0.045353 7.06362e-25)
(7.94659 0.0402205 -9.29725e-23)
(7.93375 0.0507449 2.76482e-24)
(7.95286 0.0368716 -1.82692e-24)
(7.95521 0.0370104 1.30012e-22)
(7.9618 0.0386138 -2.3591e-24)
(7.95933 0.0379546 -2.68264e-24)
(7.92533 0.0837273 -8.27271e-24)
(7.91904 0.0900458 1.98566e-21)
(7.91535 0.0904737 7.89217e-23)
(7.91641 0.0835415 -5.30276e-21)
(7.91631 0.0881856 4.55315e-23)
(7.90995 0.139497 1.01352e-22)
(7.92811 0.0791419 1.43823e-23)
(7.92669 0.075464 1.8465e-23)
(7.92586 0.0704241 8.45726e-24)
(7.92463 0.065311 -1.55175e-22)
(7.97387 0.0406965 1.90504e-24)
(7.97577 0.0393661 -1.49567e-22)
(7.96619 0.0388189 1.18457e-22)
(7.97096 0.038795 -4.05625e-23)
(7.96529 0.0339344 4.51433e-24)
(7.97321 0.0363197 1.46867e-25)
(7.97304 0.0329488 4.02676e-21)
(7.89623 0.0631705 2.60413e-23)
(7.96427 0.0366563 0)
(7.92739 0.0578308 0)
(7.92891 0.0537657 0)
(7.93717 0.0448854 6.48053e-24)
(7.9405 0.0423027 2.15022e-22)
(7.94535 0.038623 -4.23158e-24)
(7.9483 0.0374462 -4.97309e-22)
(7.93076 0.0500903 5.95553e-24)
(7.93363 0.0469831 -5.14118e-22)
(7.951 0.0353474 -5.40143e-24)
(7.95261 0.0341483 3.74154e-22)
(7.95679 0.0361718 3.53442e-24)
(7.95522 0.0341713 3.07291e-22)
(7.96017 0.0337389 0)
(7.92354 0.0813189 -7.82893e-22)
(7.91996 0.0970396 -7.02508e-22)
(7.90975 0.0850364 -7.79144e-21)
(7.97842 0.157195 0)
(7.92188 0.0748072 -2.39993e-22)
(7.92455 0.0618853 -2.77923e-24)
(7.92069 0.064778 -2.73687e-24)
(7.97661 0.037201 2.43551e-25)
(7.97424 0.0368922 2.79252e-24)
(7.9683 0.0370721 -1.6621e-24)
(7.96723 0.0363873 -7.12866e-25)
(7.97044 0.0364442 2.88116e-24)
(7.97513 0.0367986 -4.92495e-22)
(7.965 0.0310162 -4.17604e-24)
(7.97756 0.0372789 -3.14776e-24)
(7.93578 0.0373989 -1.34462e-23)
(7.92699 0.0617144 2.19264e-20)
(7.967 0.0351241 2.34093e-24)
(7.96554 0.0338944 0)
(7.92459 0.0576214 -1.42277e-24)
(7.92765 0.0499656 5.20027e-24)
(7.93424 0.0433917 6.86944e-23)
(7.94305 0.0386681 8.11194e-25)
(7.93927 0.038251 1.21833e-24)
(7.94537 0.0353723 -1.34027e-22)
(7.94952 0.0338924 3.36416e-23)
(7.95533 0.0321559 -2.01455e-22)
(7.96355 0.0320668 0)
(7.96172 0.0303292 0)
(7.91937 0.0830658 4.76164e-22)
(7.91966 0.0882579 -2.43063e-24)
(7.92095 0.0972888 -5.40363e-24)
(7.92019 0.0978034 -1.82167e-21)
(7.92326 0.091107 -8.46771e-24)
(7.92226 0.119511 -1.66309e-23)
(7.9363 0.13701 1.8363e-22)
(7.91898 0.0790501 -7.82926e-24)
(7.91815 0.0739806 7.54323e-24)
(7.91773 0.0665684 -4.12313e-24)
(7.91942 0.0621459 0)
(7.97263 0.0344637 3.18589e-22)
(7.96918 0.0337059 -3.93695e-23)
(7.97918 0.0370824 2.84232e-24)
(7.97579 0.0335978 2.33883e-24)
(7.97257 0.0297252 0)
(7.97932 0.0364169 1.48498e-21)
(7.90259 0.0589147 4.45091e-23)
(7.96662 0.0305827 5.48312e-25)
(7.92137 0.0587056 -1.25187e-24)
(7.92277 0.0551709 3.15853e-22)
(7.92294 0.0506736 -3.5335e-22)
(7.9253 0.0466039 -1.66194e-22)
(7.93512 0.0385868 1.68536e-23)
(7.93172 0.040273 2.49335e-22)
(7.93757 0.0350876 2.01433e-23)
(7.94795 0.0328724 6.5984e-24)
(7.94492 0.0323908 -2.63648e-24)
(7.95073 0.0309195 7.96873e-25)
(7.95814 0.0294472 1.09798e-25)
(7.95583 0.0297163 -5.27182e-25)
(7.96034 0.0285088 0)
(7.96342 0.027236 0)
(7.91575 0.0825931 -2.56346e-22)
(7.91245 0.0945654 -1.74239e-23)
(7.89943 0.103 1.35525e-20)
(7.9259 0.0889355 -1.08845e-21)
(7.89296 0.138107 -9.05242e-20)
(7.91552 0.0711221 2.59357e-22)
(7.91329 0.0750397 3.20408e-25)
(7.91247 0.0677098 -4.61285e-24)
(7.91765 0.0595065 0)
(7.97406 0.0320484 -2.83379e-25)
(7.9726 0.0325203 6.67232e-24)
(7.97134 0.0322482 -8.69652e-23)
(7.9703 0.0309237 1.11049e-23)
(7.97485 0.0316579 0)
(7.97703 0.0311217 0)
(7.96753 0.0289274 0)
(7.97919 0.0336532 6.72424e-25)
(7.97972 0.0326267 -4.1241e-24)
(7.98209 0.0344343 -3.25481e-24)
(7.9444 0.0328949 0)
(7.93832 0.0585213 0)
(7.96925 0.0290369 2.69819e-24)
(7.96777 0.0276455 -6.57206e-25)
(7.91938 0.0523242 7.71842e-24)
(7.92787 0.0425816 3.29961e-24)
(7.92317 0.0433267 4.96736e-22)
(7.92927 0.0373199 1.08085e-23)
(7.94074 0.0320591 6.93152e-24)
(7.93728 0.031936 7.4392e-25)
(7.94386 0.028902 8.16559e-24)
(7.95389 0.0291614 -6.15201e-25)
(7.95118 0.0275957 3.12518e-24)
(7.95922 0.0263338 0)
(7.95604 0.0269318 -4.45205e-23)
(7.96628 0.0261445 5.41671e-25)
(7.96503 0.0242508 9.85013e-24)
(7.91252 0.0794905 7.65314e-23)
(7.91192 0.0849631 -8.43343e-24)
(7.90381 0.0943015 2.34393e-21)
(7.91222 0.0896143 -7.49804e-24)
(7.89496 0.104581 -3.29428e-23)
(7.90621 0.0973564 5.18281e-21)
(7.92208 0.0882321 1.54951e-23)
(7.93547 0.176497 -8.22441e-23)
(7.90959 0.076384 1.43936e-24)
(7.90751 0.0684354 0)
(7.91009 0.0634604 0)
(7.91582 0.0553042 2.85724e-24)
(7.91381 0.0589665 0)
(7.97603 0.0298893 0)
(7.97357 0.0301847 5.91084e-24)
(7.97136 0.0281358 -3.76628e-23)
(7.97904 0.0302963 3.87123e-24)
(7.9775 0.0288566 -6.32982e-24)
(7.98189 0.0326483 1.38831e-21)
(7.91624 0.0591802 0)
(7.96906 0.0248671 4.85252e-25)
(7.91557 0.051487 4.97833e-23)
(7.92213 0.0382052 -7.16201e-24)
(7.91914 0.0426755 1.48999e-23)
(7.92597 0.0349967 2.58092e-23)
(7.93034 0.032682 1.52204e-22)
(7.93459 0.0304597 -1.03018e-23)
(7.9379 0.0276183 0)
(7.9436 0.0263024 6.31144e-24)
(7.94659 0.0264552 2.47469e-22)
(7.94919 0.0256461 5.56989e-24)
(7.95196 0.0244366 -1.3007e-22)
(7.95784 0.0243533 -6.03475e-24)
(7.96027 0.0230003 5.31899e-24)
(7.95549 0.0237271 -1.69668e-22)
(7.96352 0.0223548 -1.16275e-22)
(7.96642 0.0214968 5.35888e-23)
(7.91099 0.0891617 0)
(7.9078 0.0870149 2.65938e-24)
(7.91113 0.0906658 -1.51245e-23)
(7.89632 0.105726 -2.54696e-24)
(7.94728 0.106726 4.59648e-23)
(7.90708 0.113157 5.2571e-24)
(7.92456 0.114845 -7.62716e-21)
(7.85896 0.164195 8.44466e-23)
(7.90646 0.0739193 0)
(7.90572 0.0785557 -8.58719e-24)
(7.90321 0.0701319 6.8479e-25)
(7.90824 0.059039 1.09416e-23)
(7.97667 0.0277674 3.68226e-25)
(7.9781 0.0280119 -4.93013e-24)
(7.97354 0.0277337 2.05455e-24)
(7.97514 0.0278514 3.11403e-25)
(7.97287 0.0260085 2.54656e-24)
(7.97943 0.0286851 -5.63507e-25)
(7.98019 0.0286755 7.73307e-24)
(7.98307 0.0288755 -4.79068e-22)
(7.97979 0.0242959 -6.58338e-24)
(7.98261 0.0292875 -4.94649e-24)
(7.95078 0.0677549 8.99346e-23)
(7.95026 0.029885 0)
(7.97107 0.0236178 -8.19785e-25)
(7.97004 0.0222475 1.02052e-23)
(7.91609 0.0476759 5.38881e-22)
(7.91176 0.0507748 1.31555e-23)
(7.9219 0.0339931 4.34287e-24)
(7.91537 0.0423152 -1.65758e-24)
(7.93157 0.027623 -1.72823e-22)
(7.94145 0.0249352 3.8565e-24)
(7.93811 0.0232384 -9.13049e-24)
(7.94399 0.0225827 -2.95069e-22)
(7.94839 0.0232748 7.89884e-24)
(7.95447 0.0218077 -2.88552e-24)
(7.96189 0.0200782 5.14941e-24)
(7.96918 0.0203756 3.33201e-22)
(7.96778 0.0186607 2.27609e-23)
(7.90518 0.0837004 9.23138e-24)
(7.9037 0.0888834 8.06848e-25)
(7.90537 0.0993766 6.39704e-22)
(7.9065 0.09415 1.45928e-21)
(7.8951 0.104285 -7.94636e-24)
(7.93081 0.0765782 6.06688e-23)
(7.89176 0.105535 5.24221e-21)
(7.89221 0.117546 1.45864e-24)
(7.93091 0.152681 -2.45288e-23)
(7.90125 0.0805669 -9.80104e-23)
(7.8989 0.0671433 -2.29975e-23)
(7.89853 0.0730715 -8.68938e-25)
(7.90769 0.0535209 1.4861e-23)
(7.9038 0.0571657 2.47133e-22)
(7.97665 0.0259037 7.45015e-23)
(7.97934 0.027876 8.11152e-23)
(7.97974 0.0258431 -4.61217e-24)
(7.97269 0.0241122 -6.30359e-25)
(7.97467 0.0240736 2.63144e-24)
(7.98084 0.0269448 -1.03921e-24)
(7.9823 0.0272788 4.60524e-24)
(7.97121 0.0206446 0)
(7.97943 0.0272561 -1.61282e-24)
(7.93793 0.0537942 4.42324e-20)
(7.9766 0.0211996 0)
(7.97301 0.0219151 -6.1495e-23)
(7.97105 0.0198558 8.55823e-24)
(7.90905 0.0492994 4.17333e-23)
(7.91798 0.0323675 0)
(7.92256 0.0298623 4.3205e-24)
(7.91067 0.0440692 -1.39811e-24)
(7.91256 0.0396466 1.08733e-22)
(7.93249 0.0237683 -7.92786e-24)
(7.92877 0.0257231 1.80516e-24)
(7.93484 0.0208235 -1.48178e-23)
(7.93826 0.0184278 3.73677e-22)
(7.94716 0.0211246 8.81978e-24)
(7.94484 0.0196178 8.1283e-24)
(7.94998 0.0204079 -1.96973e-22)
(7.9533 0.0195736 5.83622e-24)
(7.95667 0.0185769 0)
(7.96408 0.018006 5.42988e-24)
(7.96109 0.0183479 0)
(7.96637 0.0171305 -1.16045e-22)
(7.96909 0.0161358 1.99953e-22)
(7.9018 0.0921335 1.21315e-21)
(7.89842 0.0891983 5.08202e-22)
(7.90211 0.0968281 -7.08232e-24)
(7.89351 0.102633 4.16173e-22)
(7.91001 0.106643 -5.27418e-24)
(7.91356 0.0911769 -1.53286e-20)
(7.89912 0.106635 3.04729e-21)
(7.89389 0.109977 -3.29163e-24)
(7.87227 0.153789 5.587e-20)
(7.89742 0.0786673 2.88161e-23)
(7.89659 0.0831477 -1.1433e-23)
(7.89878 0.0604581 1.11192e-24)
(7.89355 0.0644198 2.8773e-22)
(7.89429 0.0762728 -1.33295e-24)
(7.8996 0.0543367 9.69386e-24)
(7.97645 0.0240162 6.4674e-26)
(7.97813 0.0239353 -2.67412e-26)
(7.97999 0.0237797 0)
(7.98149 0.0238966 -4.27057e-24)
(7.9764 0.0220765 4.28183e-23)
(7.98209 0.02477 -7.52751e-25)
(7.98235 0.025759 2.64344e-22)
(7.98282 0.0261742 1.77659e-24)
(7.98315 0.0267287 -7.82094e-24)
(7.98328 0.0285138 9.23309e-22)
(7.98072 0.0314828 8.26038e-22)
(7.97158 0.0305565 -5.16882e-23)
(7.96544 0.048052 -4.98824e-23)
(7.97817 0.030747 6.48706e-24)
(7.97298 0.019809 -1.58724e-24)
(7.9746 0.0200412 -7.29624e-25)
(7.97287 0.0179605 9.27538e-23)
(7.90651 0.0463735 -8.40202e-25)
(7.91392 0.0338135 8.38745e-24)
(7.91535 0.0288452 0)
(7.92581 0.0265106 1.00705e-22)
(7.92154 0.0253947 8.1357e-24)
(7.90879 0.0361186 -8.37585e-24)
(7.93161 0.018892 -5.1732e-22)
(7.92655 0.0223241 -1.38211e-23)
(7.94237 0.0171662 -4.75728e-24)
(7.93928 0.014644 -4.13111e-24)
(7.94582 0.0160602 -1.54101e-23)
(7.95159 0.0172166 -6.85587e-24)
(7.95934 0.0170873 0)
(7.95741 0.0149573 0)
(7.96541 0.0153205 2.25945e-24)
(7.9615 0.0151305 -3.13951e-24)
(7.9698 0.0132994 6.16059e-23)
(7.9715 0.0148858 7.62246e-24)
(7.89399 0.0876658 -8.73977e-24)
(7.89818 0.101593 -6.38646e-24)
(7.89944 0.0983943 1.49855e-24)
(7.89427 0.10357 4.91539e-25)
(7.92303 0.0984798 6.79691e-23)
(7.8935 0.108377 5.42928e-24)
(7.89228 0.111414 -8.6662e-24)
(7.95057 0.158147 1.09958e-22)
(7.89085 0.0684451 -8.36117e-24)
(7.88951 0.0625896 -1.00288e-23)
(7.89084 0.0728002 0)
(7.89044 0.0788245 5.00936e-24)
(7.90136 0.0488387 1.20478e-24)
(7.89595 0.0508735 1.24342e-24)
(7.97979 0.0219824 -3.57575e-24)
(7.9831 0.0226726 9.36662e-23)
(7.9763 0.0201383 -9.22527e-26)
(7.97805 0.0202009 -3.59058e-24)
(7.98321 0.0248993 3.58696e-24)
(7.98689 0.0253434 -1.19923e-21)
(7.98098 0.0276719 8.61114e-24)
(7.97772 0.0391731 -3.05769e-21)
(7.97545 0.0550913 2.03683e-23)
(7.97638 0.0182328 7.27942e-26)
(7.97311 0.0161614 -1.8605e-22)
(7.97497 0.0163896 2.65318e-24)
(7.90258 0.0431183 7.6525e-24)
(7.91737 0.0241259 4.94419e-24)
(7.91299 0.024381 -3.26843e-25)
(7.91971 0.0209625 -1.94168e-22)
(7.90433 0.038815 2.91932e-22)
(7.90534 0.0330087 2.33096e-22)
(7.92687 0.0183237 4.59621e-22)
(7.92991 0.0154566 -3.35679e-23)
(7.9237 0.0188473 -4.68537e-22)
(7.9409 0.0108574 3.96415e-23)
(7.93686 0.0114971 -9.73452e-25)
(7.94922 0.0149222 1.80837e-22)
(7.94678 0.0128511 6.09245e-24)
(7.95275 0.0139198 -1.42394e-22)
(7.95563 0.0126768 -4.07926e-24)
(7.95816 0.0118121 0)
(7.96386 0.0138382 7.94721e-24)
(7.96606 0.0130309 -1.85209e-24)
(7.9622 0.0127065 -6.11721e-24)
(7.96818 0.0118942 5.01386e-24)
(7.97028 0.0110018 -4.98149e-23)
(7.97343 0.0135667 3.43922e-24)
(7.89237 0.0921495 8.32173e-22)
(7.88969 0.0869717 8.29444e-24)
(7.89407 0.0959955 1.84081e-24)
(7.89576 0.10102 -4.15329e-23)
(7.89278 0.107942 -2.3656e-22)
(7.911 0.12702 3.77256e-25)
(7.90201 0.109324 0)
(7.8986 0.109516 -9.51817e-24)
(7.89497 0.114372 -5.46659e-22)
(7.91439 0.144051 -3.27422e-21)
(7.8865 0.0709072 1.76227e-24)
(7.88351 0.0637394 1.68256e-24)
(7.88759 0.0587465 0)
(7.88727 0.0836599 1.28103e-22)
(7.88437 0.0801169 4.92041e-24)
(7.89077 0.0524439 0)
(7.89222 0.0462503 1.21398e-23)
(7.97969 0.0201308 -3.40277e-23)
(7.98148 0.0200952 -3.53098e-24)
(7.98393 0.0207706 2.88319e-24)
(7.9849 0.0217121 2.34362e-23)
(7.97976 0.0183282 -3.53295e-24)
(7.98481 0.0227481 9.80574e-24)
(7.98487 0.0238578 1.10153e-24)
(7.98632 0.0242986 -1.10649e-22)
(7.98752 0.0235483 2.33022e-24)
(7.98342 0.0276321 3.32702e-24)
(7.98603 0.0246413 1.39565e-24)
(7.99188 0.0237817 2.68306e-24)
(7.95251 0.04517 7.9535e-24)
(7.97654 0.0163508 0)
(7.9781 0.0164747 0)
(7.97642 0.0147734 0)
(7.89903 0.0402143 6.69361e-24)
(7.90991 0.02027 1.14988e-23)
(7.90855 0.0246729 -3.0959e-25)
(7.91919 0.0170706 8.46609e-23)
(7.90505 0.0282486 2.9513e-24)
(7.90003 0.0319366 2.55685e-24)
(7.93333 0.0115831 -2.75786e-22)
(7.92839 0.0110577 3.06578e-22)
(7.94444 0.0103486 6.00554e-23)
(7.94248 0.00731918 1.179e-23)
(7.93564 0.00751637 1.9953e-23)
(7.94787 0.00973366 6.15188e-24)
(7.95319 0.0105306 -1.6474e-25)
(7.96059 0.0113381 -3.48575e-24)
(7.95907 0.00926049 3.97334e-25)
(7.96659 0.0104877 -1.89884e-23)
(7.96285 0.010572 -9.27227e-23)
(7.971 0.00870245 3.39972e-24)
(7.97248 0.0101206 3.40241e-24)
(7.9758 0.0126934 0)
(7.97425 0.0114991 0)
(7.88807 0.0953436 3.43119e-24)
(7.88438 0.0887798 7.50011e-25)
(7.89414 0.105691 4.03444e-24)
(7.88955 0.102809 2.9144e-24)
(7.89291 0.113516 8.57185e-23)
(7.89315 0.11099 -2.70361e-23)
(7.90108 0.1195 3.49637e-23)
(7.89365 0.117427 -3.63859e-22)
(7.84961 0.117083 -1.18204e-24)
(7.95212 0.0926384 8.36917e-24)
(7.88278 0.0692433 -1.3632e-22)
(7.88243 0.0738488 1.9876e-24)
(7.87929 0.0657066 1.73736e-24)
(7.88396 0.0532386 1.05816e-23)
(7.87931 0.0783779 -1.82881e-24)
(7.89444 0.0408456 1.02726e-23)
(7.88854 0.0412236 -6.08366e-23)
(7.983 0.0198556 2.02566e-24)
(7.98284 0.0180415 -1.55932e-22)
(7.98496 0.0188894 1.72007e-22)
(7.98636 0.0208244 -4.05012e-23)
(7.97977 0.0164878 0)
(7.98143 0.0165116 0)
(7.98564 0.0227306 2.1045e-25)
(7.98814 0.0234944 8.44395e-22)
(7.98789 0.022734 6.26826e-25)
(7.98838 0.0248413 1.24234e-24)
(7.99238 0.0265838 0)
(7.98548 0.0206683 0)
(7.97559 0.0232203 6.34837e-24)
(7.97656 0.0427598 -1.22714e-20)
(7.97981 0.014701 5.75662e-24)
(7.97754 0.0126905 3.27266e-24)
(7.89678 0.0357104 1.06818e-22)
(7.90613 0.0161978 8.30661e-24)
(7.91087 0.0155419 9.85888e-24)
(7.90309 0.0234954 6.30167e-24)
(7.91507 0.014537 -1.41546e-22)
(7.92004 0.0125908 4.71471e-24)
(7.89481 0.0310713 -6.48507e-25)
(7.92382 0.00968809 -1.28277e-23)
(7.9277 0.00595495 -9.98329e-24)
(7.94441 0.00464816 -6.70507e-25)
(7.94098 0.00476397 3.79617e-24)
(7.93827 0.00376011 9.13555e-23)
(7.93467 0.00328782 5.84528e-22)
(7.95058 0.00897938 3.09008e-24)
(7.94899 0.00676102 0)
(7.95336 0.00794018 2.29791e-22)
(7.95803 0.00704788 -2.38341e-25)
(7.96056 0.00727519 -4.78926e-24)
(7.96484 0.00922393 -2.91706e-24)
(7.96714 0.00804324 3.99797e-23)
(7.96298 0.00791684 -1.05212e-22)
(7.96944 0.00681027 3.32549e-24)
(7.97192 0.00583615 0)
(7.97497 0.0091779 -4.02637e-24)
(7.88432 0.0944922 2.85177e-24)
(7.88465 0.098491 -7.02856e-22)
(7.88044 0.0915304 0)
(7.89107 0.112535 5.16688e-24)
(7.88328 0.102863 1.4995e-24)
(7.92861 0.121203 -1.00241e-20)
(7.89512 0.134554 2.90513e-23)
(7.89054 0.127405 -2.1065e-21)
(7.89071 0.122036 -7.71047e-24)
(7.91256 0.258643 0)
(7.96345 0.0968023 2.94291e-23)
(7.87346 0.069161 -2.01335e-24)
(7.87473 0.0624461 2.29062e-23)
(7.87637 0.0547185 -4.6004e-22)
(7.87942 0.0481728 -1.25428e-23)
(7.87357 0.0757508 -1.29698e-23)
(7.87426 0.0829649 -1.5753e-23)
(7.88279 0.0413593 -8.83729e-24)
(7.88548 0.0353529 -1.11253e-22)
(7.98289 0.0165092 6.59298e-27)
(7.98426 0.0165023 -2.13701e-24)
(7.98573 0.0166622 -1.56004e-22)
(7.98659 0.0175728 9.85924e-27)
(7.98728 0.0190838 6.23861e-24)
(7.98767 0.0199164 1.1987e-22)
(7.98313 0.0148355 -8.54906e-25)
(7.98708 0.0217043 -7.40987e-25)
(7.98709 0.0209146 1.8848e-23)
(7.98803 0.021593 0)
(7.98924 0.022355 0)
(7.99054 0.0245827 2.13167e-24)
(7.99275 0.0264752 1.70463e-24)
(7.99255 0.0261948 0)
(7.98822 0.0215554 0)
(7.96049 0.0413556 -3.2585e-23)
(7.97952 0.0128254 -8.59553e-24)
(7.98135 0.0129291 -1.28208e-23)
(7.97903 0.0108722 6.56009e-24)
(7.90096 0.01776 -7.54848e-22)
(7.90207 0.0131717 -3.11139e-22)
(7.91312 0.0107026 -7.20507e-24)
(7.89786 0.0210259 -1.83302e-23)
(7.92008 0.00738171 3.18899e-24)
(7.88889 0.0299575 2.24616e-23)
(7.89285 0.0248612 -7.13444e-25)
(7.93104 0.00311427 -9.74829e-23)
(7.92732 0.00242818 -5.0213e-22)
(7.94752 0.00388378 -7.0261e-25)
(7.94621 0.00137441 -1.0892e-23)
(7.94094 0.000785562 4.13074e-24)
(7.93352 -0.000293957 1.92692e-23)
(7.9502 0.00382674 0)
(7.95533 0.00604662 -1.77338e-24)
(7.95301 0.00459064 2.09516e-24)
(7.95775 0.00382907 6.08786e-24)
(7.96276 0.00568475 2.35326e-25)
(7.9675 0.00529761 7.81962e-24)
(7.97419 0.00543426 0)
(7.97289 0.00369303 1.10231e-23)
(7.9756 0.00668307 -3.48089e-24)
(7.97709 0.00806982 -3.47688e-23)
(7.87464 0.0900546 -1.3607e-23)
(7.87538 0.0963608 0)
(7.88829 0.117759 2.22945e-24)
(7.88425 0.112618 3.67033e-23)
(7.87751 0.102593 0)
(7.88028 0.107897 -6.68665e-24)
(7.88773 0.139163 -1.32784e-24)
(7.88941 0.121824 0)
(7.89024 0.126946 0)
(8.02242 0.235916 1.25771e-22)
(7.98074 0.150208 8.31614e-21)
(7.9296 0.130481 -1.97408e-20)
(7.86832 0.0725949 -2.01207e-24)
(7.86953 0.0571518 3.53373e-22)
(7.87465 0.0417221 3.74541e-22)
(7.86804 0.0878347 -1.61423e-22)
(7.88259 0.0287666 1.11367e-23)
(7.98598 0.0151331 -2.54595e-24)
(7.98823 0.0166024 0)
(7.98898 0.0190896 6.54353e-24)
(7.98317 0.0129762 7.75904e-25)
(7.98475 0.013212 1.40237e-23)
(7.98986 0.0203736 0)
(7.99286 0.0218946 -1.1361e-22)
(7.99111 0.0236699 0)
(7.99406 0.0224927 0)
(7.9872 0.0223548 1.08587e-25)
(7.97988 0.0243634 -7.94874e-22)
(7.97851 0.0348439 1.82785e-20)
(7.98285 0.0112231 -2.6378e-23)
(7.97868 0.00916379 -1.55973e-22)
(7.98063 0.00947316 3.11646e-24)
(7.89829 0.0082495 -1.19789e-24)
(7.90448 0.00648402 2.22272e-24)
(7.9158 0.00609232 1.15013e-22)
(7.9113 0.00580073 -5.3015e-24)
(7.89176 0.0182602 -6.66746e-25)
(7.9197 0.00307214 1.74803e-22)
(7.92439 0.000575683 -4.90157e-24)
(7.92767 -0.00170915 5.74698e-24)
(7.94442 -0.000752684 9.21205e-24)
(7.94752 -0.00176284 1.15898e-23)
(7.94162 -0.00247224 2.38711e-24)
(7.93145 -0.00316369 0)
(7.93516 -0.00396189 6.68928e-24)
(7.95268 0.00184372 1.37029e-24)
(7.95789 0.00105956 -5.73821e-23)
(7.96028 0.00212455 4.38703e-24)
(7.96494 0.00419955 8.09507e-24)
(7.96274 0.00317726 1.89557e-24)
(7.96755 0.0027514 1.08119e-22)
(7.97624 0.00489642 -1.66365e-25)
(7.97423 0.00208935 -6.78217e-23)
(7.97203 0.00189678 -1.13365e-22)
(7.9785 0.00689767 2.18854e-22)
(7.87177 0.101193 0)
(7.8867 0.123683 0)
(7.87765 0.113463 -1.98964e-22)
(7.89381 0.134916 7.95563e-23)
(7.88622 0.137834 1.90535e-21)
(7.88901 0.133967 4.57729e-24)
(7.8882 0.131884 0)
(7.94569 0.222008 -4.17863e-20)
(7.91422 0.149578 6.69603e-23)
(7.86188 0.0772486 -4.56499e-24)
(7.86234 0.0688267 1.88294e-23)
(7.86264 0.0610082 3.17918e-23)
(7.86272 0.0529426 2.1289e-23)
(7.86754 0.0411203 -2.27872e-23)
(7.87169 0.0343974 -2.58825e-23)
(7.86139 0.0853374 -1.82158e-23)
(7.86177 0.0928114 -1.82376e-23)
(7.87513 0.0272199 2.12345e-23)
(7.88041 0.0208726 2.36879e-23)
(7.98614 0.0132757 -1.25798e-24)
(7.98753 0.0133743 0)
(7.98967 0.0163703 0)
(7.98915 0.0148839 -2.40391e-24)
(7.9901 0.0171913 3.23372e-24)
(7.9903 0.0180827 -6.28231e-23)
(7.98636 0.0115991 -7.89215e-23)
(7.99073 0.0185155 4.50135e-24)
(7.99156 0.0185429 0)
(7.99493 0.0202592 1.50976e-24)
(7.99357 0.0195165 1.81329e-24)
(7.99611 0.0203473 0)
(7.99499 0.0202734 1.28542e-25)
(7.96618 0.031552 -1.72426e-20)
(7.98238 0.00943995 -6.29776e-26)
(7.98415 0.0095179 -2.59708e-25)
(7.9816 0.00785492 -6.04485e-23)
(7.89133 0.0109016 -3.29295e-24)
(7.8921 0.00436832 -2.3596e-22)
(7.9079 0.00130239 -1.66273e-23)
(7.88593 0.0149157 1.20945e-24)
(7.91972 -0.00160627 6.18799e-24)
(7.92795 -0.00547746 -2.14369e-24)
(7.94833 -0.00504185 1.68387e-23)
(7.95043 -0.00263095 9.85026e-24)
(7.93879 -0.00531107 -8.39079e-23)
(7.94247 -0.00698745 5.55005e-23)
(7.93536 -0.00873689 1.15037e-23)
(7.95549 -6.33052e-05 2.15925e-23)
(7.95283 -0.0011974 1.4151e-24)
(7.95812 -0.00183501 7.72903e-24)
(7.96281 0.000467509 -2.92382e-23)
(7.96984 0.00112343 1.08628e-22)
(7.96757 -6.86305e-05 9.75524e-24)
(7.97653 0.00253252 -1.59217e-22)
(7.97801 0.00373375 -6.74145e-24)
(7.97643 0.000682988 -6.60441e-24)
(7.97193 -0.000777733 -5.55317e-23)
(7.9805 0.00602782 -2.62434e-24)
(7.97923 0.00507926 3.04464e-24)
(7.86454 0.100251 0)
(7.86774 0.10721 0)
(7.88473 0.1299 0)
(7.8799 0.126416 2.04135e-23)
(7.87109 0.114214 -1.331e-23)
(7.87451 0.119855 -3.10216e-22)
(7.88525 0.139545 1.45338e-23)
(7.88564 0.136422 8.62555e-24)
(7.91828 0.178821 1.89993e-22)
(7.92319 0.176767 2.80973e-22)
(7.89417 0.154995 0)
(7.85408 0.0814894 -4.61311e-24)
(7.85567 0.0649596 -1.72619e-22)
(7.86284 0.0472234 8.93735e-24)
(7.85528 0.0501198 -1.97023e-22)
(7.86054 0.038979 0)
(7.86831 0.0264835 0)
(7.85702 0.0988724 -3.82084e-24)
(7.87797 0.0128328 -4.8708e-24)
(7.98888 0.0115387 0)
(7.98844 0.0130976 -4.27914e-24)
(7.99109 0.0157581 3.07879e-24)
(7.98914 0.0136597 5.94091e-24)
(7.99056 0.0136721 -3.36051e-24)
(7.99189 0.0165987 2.48338e-24)
(7.98618 0.00951319 -2.89765e-25)
(7.98791 0.00974971 -2.80256e-25)
(7.99284 0.0183795 0)
(7.99299 0.0165789 0)
(7.99432 0.017495 0)
(7.9972 0.0186928 0)
(7.99655 0.0179435 0)
(7.99707 0.0154886 -6.29569e-24)
(7.98139 0.0296114 -9.10206e-21)
(7.98589 0.0163746 1.41705e-23)
(7.98541 0.00783578 2.93093e-24)
(7.9823 0.00595777 -7.43609e-27)
(7.88647 0.000713315 4.76282e-22)
(7.894 -0.00149003 -2.31462e-23)
(7.90465 -0.0036227 -1.55494e-23)
(7.91148 -0.00386893 -4.63068e-22)
(7.91593 -0.0044994 -1.69424e-23)
(7.92013 -0.0060032 -2.39604e-24)
(7.92373 -0.0081844 6.5448e-24)
(7.92772 -0.00998891 -1.4034e-24)
(7.94639 -0.00831575 -1.84616e-22)
(7.9491 -0.00866269 -5.46567e-22)
(7.95315 -0.00419052 -3.098e-24)
(7.94282 -0.0112103 -2.19189e-23)
(7.93162 -0.0115998 2.76704e-23)
(7.93522 -0.0128247 6.16969e-24)
(7.95807 -0.00497984 -7.84641e-24)
(7.96068 -0.00361285 -8.51363e-24)
(7.96528 -0.00115404 2.93699e-24)
(7.96297 -0.00235856 -4.9491e-25)
(7.96753 -0.00273933 -1.71084e-24)
(7.98054 0.0027673 5.63646e-23)
(7.97601 -0.00162635 3.02875e-23)
(7.97832 -0.00113843 -1.15884e-22)
(7.97388 -0.00228335 -4.59051e-24)
(7.97168 -0.0031377 6.04726e-23)
(7.86384 0.114232 0)
(7.87135 0.127857 -1.27186e-22)
(7.88615 0.143672 -1.08487e-23)
(7.88532 0.144112 8.01655e-24)
(7.88701 0.143213 -8.38211e-22)
(7.88233 0.140948 8.51572e-24)
(7.92875 0.121718 -1.22978e-20)
(7.84899 0.199665 7.28264e-23)
(7.88773 0.144897 0)
(7.88465 0.152885 -1.76874e-23)
(7.84622 0.0844435 -1.71905e-23)
(7.84757 0.0750529 0)
(7.85007 0.0685615 1.72548e-23)
(7.84906 0.0602329 2.65055e-23)
(7.84774 0.0521322 -2.87052e-22)
(7.84928 0.0454402 -2.09167e-23)
(7.8527 0.0393084 1.49452e-24)
(7.85764 0.0335003 7.99034e-24)
(7.8613 0.0279496 9.03082e-24)
(7.86341 0.0209045 -2.0447e-24)
(7.84923 0.0977918 -2.12017e-22)
(7.85306 0.10596 -2.21934e-23)
(7.86987 0.0101398 5.59866e-24)
(7.87597 0.00520682 5.31072e-22)
(7.98919 0.0101866 0)
(7.99028 0.0103004 -7.43938e-25)
(7.99014 0.0120373 -8.45075e-23)
(7.99154 0.0140727 1.84327e-24)
(7.99225 0.0146066 4.31731e-23)
(7.99181 0.0127248 4.83303e-23)
(7.99265 0.0150673 -1.89882e-25)
(7.99305 0.0153356 3.43843e-23)
(7.98924 0.00838315 0)
(7.99361 0.0151952 -5.28865e-25)
(7.99434 0.0148766 3.62519e-24)
(7.99579 0.0170227 0)
(7.99513 0.0156381 4.13117e-24)
(7.99716 0.0162992 0)
(7.99537 0.0130818 -1.14701e-23)
(7.99713 0.0146957 4.65571e-22)
(7.97161 0.0255154 1.70905e-20)
(7.99943 0.0114528 -1.96736e-21)
(7.98439 0.00614519 2.82591e-24)
(7.98647 0.00612941 9.7018e-23)
(7.98373 0.00425623 -3.60863e-24)
(7.8815 0.00119413 -2.57845e-23)
(7.88429 -0.00530631 -1.2777e-23)
(7.89865 -0.00500197 -8.07403e-24)
(7.89333 -0.00848092 -3.42005e-22)
(7.90236 -0.0102021 8.95419e-24)
(7.91326 -0.00890243 -1.7314e-23)
(7.91984 -0.0110508 -2.46617e-24)
(7.92758 -0.0143878 2.01279e-22)
(7.95267 -0.00784004 8.48408e-24)
(7.95122 -0.0108356 -5.32627e-23)
(7.95534 -0.00631976 2.54478e-23)
(7.93893 -0.0140358 -7.70544e-24)
(7.9427 -0.0150373 -1.72672e-22)
(7.93556 -0.0167296 -2.89262e-23)
(7.95778 -0.00806264 1.11507e-23)
(7.96307 -0.00521724 3.04737e-23)
(7.96965 -0.00414566 -5.83631e-24)
(7.96743 -0.00528486 8.86587e-23)
(7.98136 0.000377354 -1.39288e-22)
(7.98292 0.00198458 6.89259e-23)
(7.97523 -0.00380396 8.23075e-25)
(7.97995 -0.000931832 -1.80772e-22)
(7.97903 -0.00293537 -3.30234e-23)
(7.97123 -0.00544549 -3.95698e-24)
(7.85597 0.113231 -1.94221e-23)
(7.85946 0.121542 0)
(7.86313 0.128547 2.0987e-23)
(7.86807 0.136087 3.68113e-23)
(7.88746 0.149154 -4.42522e-22)
(7.88446 0.144145 0)
(7.87286 0.142216 1.43851e-23)
(7.8786 0.149088 -7.72497e-23)
(7.91116 0.144916 8.59412e-21)
(7.95113 0.0954708 2.43555e-22)
(7.90276 0.232914 3.82797e-22)
(7.88075 0.154475 -1.561e-23)
(7.84543 0.0927243 9.4422e-22)
(7.83881 0.0870495 -4.80886e-22)
(7.84247 0.0707208 5.01412e-24)
(7.8414 0.0567614 -1.06334e-23)
(7.84458 0.0403616 -4.27967e-24)
(7.85363 0.0281452 -4.72883e-22)
(7.8637 0.0144709 5.42885e-24)
(7.85609 0.0175437 1.53091e-23)
(7.84149 0.0993955 -7.7007e-24)
(7.84793 0.113209 1.92519e-22)
(7.86333 0.00625051 9.17797e-23)
(7.87485 -0.00139867 4.79732e-22)
(7.99101 0.010482 -2.24819e-24)
(7.99145 0.00928895 -4.51444e-23)
(7.99152 0.0109691 -2.63794e-24)
(7.99305 0.0137953 -6.9112e-23)
(7.99245 0.0112515 -2.39347e-24)
(7.99321 0.0117236 -3.5436e-24)
(7.99404 0.0140919 -1.52613e-22)
(7.98942 0.00684881 0)
(7.99084 0.00747941 0)
(7.99513 0.0143134 1.18278e-22)
(7.99531 0.0132124 3.85215e-24)
(7.99605 0.0138754 4.74074e-24)
(7.99792 0.0149785 -3.53539e-24)
(7.99766 0.0144056 0)