/*--------------------------------*- C++ -*----------------------------------*\
| =========                 |                                                 |
| \\      /  F ield         | OpenFOAM: The Open Source CFD Toolbox           |
|  \\    /   O peration     | Version:  v2012                                 |
|   \\  /    A nd           | Website:  www.openfoam.com                      |
|    \\/     M anipulation  |                                                 |
\*---------------------------------------------------------------------------*/
FoamFile
{
    version     2.0;
    format      ascii;
    class       volScalarField;
    location    "0.9";
    object      k;
}
// * * * * * * * * * * * * * * * * * * * * * * * * * * * * * * * * * * * * * //

dimensions      [0 2 -2 0 0 0 0];


internalField   nonuniform List<scalar> 
13611
(
0.000579423
0.000573137
0.000597576
0.000584015
0.000559861
0.000611968
0.000599716
0.000579227
0.000546418
0.000555663
0.000629887
0.000614794
0.000565359
0.000592881
0.000532886
0.000545358
0.000631217
0.000648112
0.000618431
0.000552273
0.000583145
0.000610017
0.000520715
0.000532941
0.000542613
0.000650308
0.00066833
0.000637756
0.00055321
0.000567477
0.000592998
0.000618953
0.00050793
0.000523845
0.000528493
0.000652676
0.000668692
0.000689332
0.00063784
0.000538617
0.000563878
0.000590164
0.000607974
0.00061563
0.000504549
0.000496932
0.000513472
0.000526265
0.000672565
0.000688512
0.000711986
0.000652063
0.000537232
0.000576011
0.000549862
0.00060351
0.000617888
0.000633222
0.000494419
0.000486101
0.00050219
0.000513417
0.000691318
0.00067127
0.00070767
0.000737486
0.000648675
0.00052389
0.000573852
0.000547098
0.000603939
0.000631545
0.000493378
0.000485146
0.000475819
0.000501949
0.000512437
0.000710957
0.000688104
0.000728594
0.000763627
0.00066491
0.000523445
0.000558683
0.000585994
0.000535564
0.000617607
0.000647458
0.000483339
0.00047653
0.000466098
0.000489689
0.000498809
0.000716795
0.00068241
0.000705489
0.000750714
0.000769726
0.000790514
0.000667479
0.000515641
0.000552582
0.000582068
0.000530622
0.000610265
0.00062966
0.000645987
0.000480867
0.000475789
0.000466391
0.000455834
0.000488279
0.000495283
0.000740311
0.000698857
0.00071538
0.000760579
0.000799545
0.000820827
0.000686658
0.0005065
0.000519501
0.00053869
0.000562051
0.000575301
0.000598463
0.000620952
0.000665511
0.000469083
0.00046599
0.000461303
0.000448889
0.000477937
0.000487326
0.000735208
0.000707071
0.000784655
0.00082463
0.000801939
0.000850657
0.000687139
0.000499405
0.000509782
0.00053815
0.000550376
0.00058461
0.000599674
0.000633873
0.000668171
0.000467742
0.000462081
0.000452091
0.00044027
0.000472079
0.000477217
0.000489889
0.00075489
0.000728675
0.000797272
0.000853743
0.000829559
0.000885374
0.000709752
0.000500101
0.000513244
0.000527087
0.000555822
0.000573526
0.000612543
0.000651659
0.000627478
0.000690044
0.000460356
0.000451559
0.000446933
0.000434401
0.000432787
0.000462127
0.000469252
0.000484201
0.000784964
0.000748078
0.000731232
0.00082907
0.000882006
0.000853117
0.000923181
0.00071185
0.000488655
0.00050606
0.000526441
0.000551492
0.000579435
0.000607057
0.000652282
0.000636866
0.00068938
0.000450854
0.000445722
0.000437809
0.000425907
0.000425078
0.000455796
0.000459674
0.000473065
0.000808311
0.000768968
0.000753499
0.000854224
0.000912215
0.000882473
0.000959117
0.000733615
0.000486493
0.000512103
0.000495992
0.000537818
0.000562797
0.000576097
0.000595836
0.0006226
0.000669315
0.000712209
0.000444655
0.000435126
0.000431588
0.000421289
0.000419752
0.000418321
0.000447393
0.000451073
0.000468728
0.000793797
0.0008392
0.000766406
0.000854514
0.000890386
0.000944644
0.000994647
0.000966507
0.000754176
0.000732688
0.000476575
0.000507667
0.000487317
0.000536316
0.000558988
0.000586585
0.000600439
0.000629895
0.0006728
0.000713881
0.000435581
0.00043041
0.000422549
0.000413184
0.000411376
0.000411977
0.000439248
0.000450257
0.000441692
0.000458961
0.000811299
0.000860538
0.000796441
0.00089184
0.00092509
0.000966053
0.00103587
0.00100698
0.000770265
0.000753092
0.000477791
0.000498146
0.000517752
0.00048843
0.000547069
0.00052708
0.000569903
0.000585526
0.000614442
0.000648163
0.000695814
0.000663868
0.000737572
0.000432932
0.00042057
0.000416477
0.000408181
0.000406594
0.000405064
0.000441901
0.000435049
0.000459314
0.000845188
0.00089417
0.000812024
0.000920892
0.000963143
0.00101293
0.00107806
0.000794421
0.000764804
0.000469381
0.00050064
0.000510162
0.000478903
0.000536401
0.000526702
0.00056756
0.000598413
0.000614271
0.000645759
0.000695094
0.000676449
0.000733597
0.000759701
0.000425898
0.00041503
0.000409226
0.000399969
0.000398969
0.000398635
0.000435557
0.000437706
0.00042694
0.000451912
0.000867316
0.000926823
0.000843124
0.000956196
0.00100214
0.00105429
0.00109739
0.00111636
0.00080682
0.000792504
0.000469277
0.000491678
0.000514051
0.00047565
0.000541447
0.000581702
0.000556478
0.0005956
0.000628912
0.000659813
0.00071209
0.000675154
0.000753432
0.000781013
0.000419363
0.000422107
0.000408243
0.000400641
0.000395462
0.000395784
0.000391228
0.000429074
0.000429912
0.000442875
0.000423865
0.000453939
0.000902363
0.000930944
0.000963356
0.00085452
0.00099007
0.00104003
0.00106702
0.0011448
0.00117826
0.000837309
0.000806145
0.000462812
0.000491077
0.000481773
0.000510113
0.00046554
0.00053183
0.000582502
0.000560416
0.000608752
0.000622755
0.000662145
0.000709462
0.000691561
0.000751069
0.000779422
0.000413723
0.000414618
0.00040039
0.000408148
0.000387646
0.000388472
0.0003857
0.000385458
0.000424215
0.00043558
0.000417158
0.000447741
0.000909715
0.000971631
0.00100223
0.000891368
0.00102531
0.00106162
0.00112034
0.00116359
0.00118047
0.00123758
0.00085579
0.000832402
0.000479501
0.000499773
0.000475226
0.000520041
0.000460409
0.000536793
0.000596891
0.000573246
0.000549936
0.000609221
0.000634425
0.000650845
0.000681383
0.000727427
0.000771939
0.000805075
0.000407938
0.000393865
0.000402101
0.000384284
0.000384129
0.00038097
0.000379029
0.000416612
0.000427241
0.000438154
0.000409626
0.000450723
0.000951513
0.00101047
0.00103944
0.000914355
0.00110527
0.0011633
0.0012196
0.0012381
0.00130881
0.000889443
0.000842416
0.000479526
0.000501628
0.000465339
0.000511928
0.000530769
0.000594722
0.000578772
0.000550133
0.000622625
0.000659554
0.000691775
0.000715039
0.000797139
0.000771037
0.000832487
0.000401041
0.000387198
0.000395606
0.000376927
0.000376972
0.000377141
0.000374271
0.000410636
0.00041976
0.000432316
0.000402246
0.000445084
0.000978453
0.00105116
0.00108676
0.000953855
0.00114688
0.00121204
0.00125284
0.00129753
0.00138951
0.000902052
0.000877946
0.000467315
0.000490248
0.000460654
0.000517669
0.000537105
0.000605789
0.000575144
0.000561029
0.000629679
0.000648847
0.000679996
0.000728227
0.000818343
0.000799695
0.000754061
0.00085561
0.000395018
0.000380535
0.000389208
0.000373195
0.000375496
0.000371309
0.000369345
0.000402622
0.00041244
0.000418313
0.000424856
0.000436462
0.000395744
0.000450103
0.00102274
0.00108346
0.00107177
0.00113415
0.000976359
0.00121026
0.00124216
0.00131102
0.0013596
0.00147741
0.000943723
0.000888699
0.000462609
0.000490372
0.000511847
0.000531687
0.000603358
0.000620657
0.000587838
0.000554788
0.0006581
0.000690325
0.000712616
0.00084896
0.000813419
0.000764524
0.000388475
0.000382104
0.000366607
0.000369147
0.000367064
0.000363914
0.000397869
0.00040714
0.000411779
0.000420146
0.000429454
0.000389536
0.000442296
0.00104394
0.00105237
0.00113287
0.00112978
0.00118013
0.0010234
0.00125301
0.00131211
0.00133939
0.00143171
0.00157934
0.00148147
0.000958623
0.000922101
0.000454406
0.000470688
0.000480299
0.000502052
0.000519731
0.000540385
0.000615909
0.000629709
0.000581255
0.000564255
0.000646226
0.00067825
0.000721522
0.000878749
0.000789885
0.000841424
0.000745126
0.000382869
0.000376099
0.000364629
0.000362147
0.000366257
0.000359875
0.000363269
0.000358343
0.000392205
0.000400777
0.000406675
0.00041266
0.000422552
0.00042712
0.000387634
0.000383831
0.000432843
0.000445445
0.0010915
0.00109926
0.00117578
0.00117481
0.00123155
0.00105619
0.00132816
0.00135702
0.00141674
0.00147674
0.00169682
0.00158406
0.0010038
0.000929395
0.000454583
0.000461836
0.000481628
0.000502157
0.00051224
0.000534117
0.000622804
0.000592806
0.000559324
0.000655135
0.000688075
0.000709825
0.000867275
0.000913968
0.000792076
0.000839937
0.000749896
0.000376383
0.00036991
0.000358697
0.000355426
0.000359907
0.000354791
0.000357448
0.000353599
0.000387821
0.000398131
0.000401312
0.000408774
0.00041771
0.000419373
0.000382915
0.000378859
0.000428635
0.000441035
0.00113015
0.00115213
0.00122458
0.00123812
0.00127606
0.00104629
0.00111276
0.0013821
0.00143539
0.00156518
0.00183466
0.00168568
0.00100498
0.000972081
0.00044575
0.000464207
0.000491973
0.000473765
0.000519322
0.000543229
0.00064344
0.000611068
0.000585684
0.000570207
0.000676169
0.000721453
0.000893587
0.000937239
0.00077501
0.000819586
0.000870515
0.000743545
0.000372103
0.000365041
0.000353926
0.000356245
0.000357027
0.000349491
0.000353138
0.000348895
0.000388773
0.000383272
0.000393271
0.000396828
0.000403523
0.000412141
0.000416317
0.000378441
0.000373873
0.000420942
0.000433082
0.00118233
0.0011964
0.00130109
0.00133869
0.0010971
0.00114963
0.00146201
0.00151552
0.00164917
0.00197253
0.00180415
0.00104906
0.000974093
0.000439433
0.000462637
0.000490282
0.000470406
0.000511349
0.000539126
0.000653532
0.000618821
0.000595178
0.000563033
0.000687017
0.000710236
0.000927088
0.000784694
0.00082905
0.000885061
0.000761397
0.000366191
0.000359923
0.000348879
0.000350045
0.000351985
0.000343403
0.000347333
0.000342754
0.000383464
0.000379312
0.000391607
0.000398515
0.000402206
0.000406785
0.000408696
0.000374455
0.000369821
0.000416382
0.000426101
0.00122527
0.00126054
0.00131176
0.0013646
0.00138442
0.00114998
0.0010959
0.00120613
0.00150532
0.00151426
0.00161877
0.00177356
0.00213134
0.00198444
0.00193156
0.00104947
0.00100757
0.0004443
0.000428549
0.00045582
0.000499699
0.000478453
0.000517936
0.000550506
0.000528743
0.000674505
0.000638203
0.000611377
0.000587333
0.000571546
0.000723302
0.000957688
0.000808608
0.000858575
0.000921695
0.000750563
0.000363086
0.000355571
0.00034351
0.000346573
0.000348033
0.00034958
0.000341765
0.000339157
0.000344002
0.000380381
0.000379574
0.000375012
0.000388082
0.000393939
0.000396166
0.000405385
0.000370198
0.000365855
0.000409837
0.000418787
0.00128545
0.00138898
0.00143392
0.00147705
0.00120563
0.00114961
0.00125187
0.00160287
0.00161728
0.00172542
0.00188262
0.00230929
0.0021658
0.00203992
0.00108985
0.00099971
0.000438751
0.000423463
0.000458495
0.000497746
0.000477236
0.000506451
0.000541135
0.000529915
0.000686323
0.000639391
0.000620898
0.000596792
0.000561808
0.000710651
0.000958277
0.000820575
0.000863932
0.000917444
0.000768546
0.000359524
0.000355781
0.000351697
0.00033969
0.000341169
0.00034402
0.000345748
0.000337448
0.000333718
0.000339866
0.000375532
0.000383217
0.000375072
0.000371952
0.000389719
0.000392196
0.000394448
0.000399876
0.00036661
0.000362564
0.000405858
0.000412245
0.00135199
0.00143877
0.00151873
0.00154936
0.00124241
0.00113375
0.00120226
0.00132401
0.00168546
0.00171367
0.00185306
0.00202845
0.00220597
0.0010837
0.00103737
0.000443684
0.000428817
0.000416147
0.000452656
0.000468309
0.000487105
0.000507444
0.000546309
0.000520161
0.000685124
0.000655404
0.000613997
0.000596212
0.000567079
0.000723218
0.000996337
0.000851831
0.000799301
0.000894856
0.000950482
0.000747077
0.000359343
0.000351909
0.000348354
0.000334202
0.000337696
0.000343106
0.00033953
0.00034521
0.000331175
0.000329274
0.000335336
0.000372611
0.000374457
0.000381208
0.000372049
0.000367662
0.000387045
0.000388129
0.000390838
0.000397359
0.00036276
0.000400166
0.00040704
0.00041086
0.00142865
0.00154099
0.00159794
0.00165801
0.00131338
0.00117108
0.00122872
0.00138606
0.00180918
0.00182899
0.00197698
0.00218699
0.00234347
0.00112769
0.00102887
0.000437303
0.000424499
0.000410012
0.000455943
0.00046542
0.000483698
0.0005019
0.000542726
0.000518341
0.000674595
0.000706817
0.000642125
0.000624605
0.00058181
0.000611621
0.000552998
0.00101311
0.000872102
0.000814482
0.000903876
0.000985565
0.000930873
0.000755356
0.000355946
0.00034847
0.000352297
0.000330198
0.000332013
0.000339762
0.00033754
0.000342326
0.000328819
0.000323419
0.00033202
0.000369112
0.000377352
0.000370668
0.000383455
0.00036862
0.000366183
0.000384584
0.000386536
0.000392666
0.000359807
0.000398233
0.000401753
0.000405248
0.00150722
0.00160023
0.00171674
0.00174831
0.00137467
0.00129379
0.00122453
0.00147439
0.00192838
0.00196505
0.00214279
0.00234515
0.00115614
0.00107331
0.00042942
0.000440731
0.000417543
0.000404875
0.000411002
0.000450674
0.000472096
0.000491576
0.000508221
0.000528922
0.000686938
0.000708396
0.000650793
0.000582482
0.00061982
0.000554324
0.00105499
0.000855267
0.000805681
0.00100296
0.000952643
0.000782192
0.000729472
0.000355841
0.000345312
0.000349356
0.000325564
0.000329013
0.000337509
0.000334567
0.000338879
0.000342335
0.000324118
0.000320789
0.000322073
0.000327217
0.000368293
0.000365798
0.000375272
0.000369287
0.000380407
0.00036545
0.000362959
0.00038086
0.000383558
0.000383486
0.000388915
0.000360151
0.000393557
0.000400869
0.00153429
0.00171356
0.00182064
0.00188751
0.00144562
0.00134712
0.00128127
0.00152889
0.00211152
0.00211864
0.00231002
0.00122812
0.00111505
0.000422095
0.000434758
0.000416043
0.000400337
0.000404844
0.00045565
0.000466886
0.000489611
0.000500204
0.000522797
0.000674311
0.000640826
0.000568479
0.000597141
0.000611551
0.000543522
0.00108034
0.000879659
0.000834607
0.000996103
0.00105369
0.00092261
0.000787869
0.0007342
0.000354745
0.000344103
0.00034945
0.000346184
0.000321495
0.000325995
0.000331606
0.000334045
0.00033641
0.0003402
0.000319057
0.000316038
0.000317333
0.000319864
0.000324885
0.000364894
0.000363618
0.000371495
0.000376917
0.000365976
0.000361594
0.000360495
0.000378416
0.000379504
0.000379609
0.000384637
0.000389453
0.000357149
0.000391783
0.000395907
0.00165479
0.00182056
0.00174678
0.00196532
0.00200866
0.00143016
0.00134712
0.00128786
0.00162039
0.00228918
0.00124119
0.00112766
0.000424507
0.000439292
0.000407882
0.000396756
0.000395953
0.000402571
0.000399235
0.000450003
0.00047347
0.000484194
0.000501426
0.00053231
0.000511443
0.00068512
0.000652002
0.000568075
0.000594917
0.00062282
0.000544682
0.000865765
0.000815829
0.00103196
0.00108117
0.000939792
0.000765904
0.000724043
0.000351958
0.000340971
0.000346614
0.000344775
0.000321995
0.000317287
0.000326294
0.000328839
0.000332075
0.000337162
0.000333455
0.00031453
0.000314352
0.00031595
0.000319541
0.000363766
0.00036108
0.000369576
0.000374279
0.000363659
0.000359626
0.000357737
0.000375098
0.00037758
0.000377023
0.00038146
0.00038467
0.000356031
0.000387608
0.00169181
0.00196573
0.00189228
0.00208586
0.00218352
0.00151198
0.00141619
0.00136349
0.00166991
0.00117839
0.0013108
0.000418559
0.000433665
0.000404503
0.000391826
0.000391928
0.000396311
0.000394945
0.000455669
0.000466921
0.00048978
0.000524732
0.000513543
0.000671051
0.000705256
0.000638874
0.000555407
0.000581122
0.000608075
0.000530533
0.000890786
0.000832971
0.00101977
0.00112775
0.000983008
0.000926439
0.000766468
0.000741202
0.000351282
0.000339141
0.000346305
0.000342571
0.000319635
0.000313807
0.000323838
0.000327308
0.000328967
0.000335274
0.000331244
0.000310134
0.000309652
0.000310056
0.000316583
0.000361077
0.000358442
0.000371474
0.000367059
0.000360707
0.000364468
0.000357
0.000354987
0.000372704
0.000373896
0.000373263
0.000377966
0.000381478
0.000383475
0.000353297
0.000387957
0.00181827
0.00208412
0.00201111
0.00193607
0.00222523
0.00230538
0.0016206
0.00149455
0.00141107
0.00180775
0.00118891
0.00131207
0.00137673
0.000423221
0.000410538
0.000438589
0.00039792
0.000388541
0.000390894
0.000390396
0.00044941
0.000472596
0.000484821
0.000503447
0.000677293
0.000698185
0.000647326
0.000556173
0.000579713
0.000608367
0.000529058
0.000871559
0.000820422
0.00106755
0.00117707
0.00111763
0.000991795
0.000952071
0.000790234
0.000734259
0.000348559
0.000336422
0.000340166
0.000343665
0.000341947
0.000317325
0.000321497
0.000309331
0.000314055
0.000323869
0.000327411
0.000333115
0.00032871
0.000331294
0.000307174
0.000306939
0.000305442
0.000310534
0.000359515
0.000358554
0.000356285
0.000369177
0.000366788
0.000358853
0.000361924
0.000354667
0.00035276
0.000369673
0.000371605
0.000371465
0.000376027
0.00037764
0.000379993
0.00038368
0.00222102
0.00218368
0.00211575
0.00232855
0.00170632
0.00157529
0.00152102
0.00192934
0.00126393
0.00138087
0.00144506
0.000419088
0.000403862
0.000434046
0.000397537
0.000391913
0.000383392
0.000385249
0.000385565
0.000454389
0.000472509
0.000492113
0.000505077
0.000669252
0.000711111
0.000641091
0.000541942
0.000568423
0.00059355
0.000623624
0.000516633
0.000892945
0.000844577
0.00106941
0.00122403
0.0011674
0.00102796
0.000935585
0.000779505
0.000752518
0.000347166
0.000335386
0.000338676
0.000343052
0.000339545
0.000317435
0.000319308
0.000307228
0.000311816
0.000322791
0.000324945
0.000331992
0.000327767
0.00032925
0.000301652
0.000301844
0.000305172
0.000301074
0.000315343
0.000356571
0.000356173
0.000353958
0.000364555
0.000356677
0.000359558
0.000361997
0.000351958
0.0003504
0.000367552
0.000368525
0.000373357
0.0003689
0.000374747
0.000376131
0.000380373
0.00230369
0.00229303
0.00210495
0.00183343
0.0016803
0.00158875
0.00193264
0.00127688
0.0013972
0.00153367
0.000411701
0.000425083
0.000404378
0.000438947
0.000392558
0.000385834
0.000381826
0.000382578
0.000380365
0.000447322
0.000464291
0.000482772
0.000494216
0.000682755
0.000704064
0.000655962
0.000537765
0.000573498
0.000590354
0.000620004
0.000514078
0.000880343
0.000830311
0.00111646
0.00121365
0.00119218
0.00103018
0.000963916
0.000799016
0.000742288
0.000348385
0.000344934
0.000336787
0.000333177
0.00034119
0.000338168
0.000315224
0.000317616
0.000309234
0.000305111
0.000312981
0.000320685
0.000323355
0.000329668
0.000325818
0.000299083
0.000299881
0.000300856
0.000296731
0.000288281
0.000355137
0.000354004
0.000351681
0.000364856
0.000355011
0.000357431
0.000359676
0.00034986
0.000365783
0.000370796
0.000365942
0.000368749
0.000370535
0.000374241
0.000376355
0.0022997
0.00189012
0.00176696
0.00171015
0.00211776
0.00133012
0.00147922
0.00160365
0.000409558
0.000422073
0.000398372
0.000433999
0.000392877
0.000386116
0.0003807
0.000377959
0.000377748
0.000376584
0.000448328
0.000464972
0.000483825
0.000493064
0.000675455
0.000718948
0.000651216
0.000524482
0.000549003
0.00056464
0.000602883
0.000634102
0.000503137
0.000908129
0.000850313
0.00107768
0.00116244
0.00127392
0.00125254
0.00100652
0.000948436
0.000785511
0.000758101
0.000346163
0.00034458
0.000335005
0.0003332
0.000340839
0.000339236
0.000335961
0.000314782
0.000318592
0.000307363
0.000302472
0.000305415
0.00031057
0.00032023
0.000321508
0.000323897
0.000328679
0.000325334
0.000294741
0.000296834
0.000295316
0.00029391
0.000358474
0.000353208
0.000351481
0.000349411
0.000362901
0.000353168
0.000355416
0.000357456
0.000360173
0.000347496
0.000363305
0.000368644
0.000363759
0.000366128
0.000369121
0.000371483
0.00037484
0.00201436
0.0017851
0.00177686
0.00214127
0.00147781
0.00157305
0.00172905
0.000400847
0.000414493
0.000426839
0.000438275
0.000387109
0.000383247
0.000375319
0.000374053
0.00037389
0.000372251
0.000456077
0.000474021
0.000483389
0.000689093
0.000709625
0.000665075
0.000521539
0.000542601
0.000573529
0.000602024
0.000633118
0.000502928
0.000887044
0.000834164
0.0010804
0.00119586
0.0012971
0.00126276
0.00102918
0.000978041
0.00080292
0.000745916
0.0003456
0.00034237
0.000334409
0.00033176
0.000339072
0.000338217
0.000335364
0.000313851
0.000317437
0.000308145
0.000301431
0.000303002
0.000310009
0.00031835
0.000320251
0.000322361
0.00033023
0.000326905
0.000323494
0.000291722
0.000293216
0.000296813
0.000297721
0.000288344
0.000131665
0.000351333
0.000350085
0.000349454
0.000347287
0.000351544
0.000353491
0.000355214
0.000359242
0.000360963
0.000365465
0.000364038
0.00036122
0.000366811
0.000369177
0.000370817
0.00205489
0.00193476
0.00191285
0.00231936
0.00143998
0.00159523
0.00166513
0.00181901
0.000397925
0.000412281
0.000418265
0.000437905
0.000381547
0.00037842
0.000371375
0.000374107
0.000370546
0.000369182
0.000368345
0.000455775
0.000473959
0.000484029
0.000681259
0.000722733
0.000665166
0.000531307
0.000512988
0.000550925
0.000588997
0.000564781
0.000618036
0.000649083
0.000494073
0.00090854
0.000852809
0.00112432
0.00117916
0.00136458
0.00131898
0.00102655
0.000954662
0.000787792
0.000760245
0.000343279
0.000341534
0.000332382
0.000331214
0.000337467
0.000336668
0.000333683
0.000311987
0.000315539
0.000306318
0.000299156
0.000302518
0.000308594
0.000318408
0.000320718
0.000322239
0.000329111
0.000327382
0.000322491
0.00028757
0.000291067
0.000294551
0.000265866
0.000290771
0.00082311
0.000349194
0.000347866
0.00034736
0.000345373
0.000351656
0.000349334
0.000353261
0.000355227
0.000357235
0.000359733
0.000363113
0.000361742
0.000360325
0.000364017
0.000366932
0.000368059
0.0022127
0.00197512
0.00199913
0.00151287
0.00165096
0.00178194
0.00196408
0.000390186
0.000404151
0.000420113
0.000430373
0.000447417
0.000383163
0.000375161
0.000374209
0.000366983
0.000369452
0.000367201
0.000366158
0.000364757
0.000464952
0.000475893
0.000693431
0.00071143
0.000680679
0.000526344
0.000516123
0.000545344
0.000590391
0.000571008
0.000616917
0.000649583
0.000497019
0.000889218
0.0008344
0.00113051
0.00123718
0.00136311
0.00107378
0.000983182
0.000803508
0.000745992
0.00034324
0.000339356
0.000332215
0.000329464
0.000335509
0.000337585
0.000335183
0.000333646
0.000311333
0.00031422
0.000304527
0.000306744
0.000298016
0.000300976
0.000309314
0.000317469
0.000319649
0.000320351
0.000326412
0.000320373
0.000323457
0.000285716
0.000292049
0.000287962
0.000294316
0.000281494
0.000286987
0.000406557
0.000347593
0.000346468
0.000345592
0.000350103
0.000347809
0.000351327
0.000353258
0.000355877
0.000356947
0.000359636
0.000359148
0.000358146
0.000362241
0.000365015
0.000365425
0.00230075
0.0021465
0.00216313
0.00160886
0.00145494
0.00176474
0.00189771
0.00207915
0.000387462
0.00040066
0.000414263
0.00043278
0.000448779
0.000375398
0.000370212
0.000369877
0.000366003
0.00036404
0.000364758
0.000362462
0.000360957
0.000465913
0.000478416
0.000722234
0.000688451
0.000532934
0.000507643
0.000553683
0.00060435
0.000583929
0.000566671
0.000632431
0.000668997
0.000488113
0.000910747
0.000850809
0.00118354
0.00130082
0.0013526
0.00107002
0.00103023
0.000952118
0.000784914
0.000758181
0.000341739
0.000338608
0.000330263
0.000328879
0.000334205
0.00033577
0.00033223
0.000312436
0.000314797
0.000303107
0.000305357
0.00029627
0.000299339
0.000301341
0.0003091
0.000316156
0.000318346
0.000327215
0.000325075
0.00031966
0.000322392
0.000282225
0.000290083
0.000286562
0.000292575
0.000284274
0.000283712
0.000155099
0.000345864
0.000344414
0.000343802
0.00034842
0.000349877
0.000346241
0.000351482
0.000353505
0.000356285
0.000358084
0.000356529
0.000356263
0.000359752
0.000362964
0.000362679
0.00231138
0.00167989
0.00150169
0.00186256
0.00179077
0.00205436
0.0022275
0.000380289
0.000393377
0.000406386
0.000418365
0.000442891
0.000427776
0.000458653
0.000373587
0.000369893
0.000364595
0.000365092
0.000361599
0.000360111
0.000361678
0.000362667
0.000359551
0.000361122
0.000358652
0.000471124
0.000709584
0.00052195
0.000509755
0.000540629
0.000602156
0.00059051
0.000576583
0.000633311
0.000671964
0.000488182
0.000885166
0.000821642
0.00120004
0.00132968
0.00143148
0.00112515
0.00104148
0.000969544
0.00079454
0.000750195
0.000342332
0.000340066
0.000336991
0.000329587
0.000332762
0.000334481
0.000335461
0.000331787
0.00033079
0.000312246
0.000313439
0.000303427
0.000305985
0.000296262
0.000297813
0.000300133
0.000310712
0.000307597
0.000315588
0.000316619
0.000326183
0.000324287
0.000320975
0.000318254
0.000322832
0.000281909
0.000280358
0.000290462
0.00028801
0.000284376
0.00029294
0.000289415
0.000281555
0.00022064
0.000927759
0.000344298
0.000344199
0.000343045
0.000347361
0.000348017
0.000344586
0.000345151
0.000349411
0.000352487
0.000353976
0.000355536
0.000354314
0.000353969
0.000358871
0.000360405
0.00036012
0.001683
0.00159885
0.00200832
0.00190074
0.00218497
0.00232295
0.000380605
0.000394221
0.000401334
0.000415018
0.000447956
0.000432777
0.000461777
0.000367028
0.000363707
0.000360944
0.000361068
0.000358777
0.000360547
0.000356509
0.000357768
0.000356305
0.000469828
0.000723405
0.000525756
0.000498534
0.000615586
0.000651442
0.000694646
0.000477944
0.000901503
0.000825549
0.00127389
0.00117582
0.00140112
0.00145786
0.00109404
0.00101752
0.000943314
0.000767834
0.000340772
0.000339708
0.000336894
0.000328194
0.000332116
0.000332979
0.00033443
0.000330271
0.00032985
0.000313894
0.000302491
0.00030465
0.000294829
0.000298205
0.000300732
0.00030972
0.000307172
0.000316419
0.000324747
0.00032681
0.00031991
0.00031775
0.000322612
0.000279695
0.000276034
0.000288831
0.000286081
0.000284292
0.000292118
0.000275638
0.000225718
0.000233943
0.000342593
0.000342331
0.000341236
0.000345728
0.000347769
0.000343236
0.000343546
0.000348693
0.000350295
0.000352792
0.000354989
0.000353787
0.000352226
0.0003521
0.000356692
0.000357824
0.0018127
0.00163415
0.00216932
0.00194099
0.00227941
0.000388161
0.000374496
0.000405763
0.000419897
0.000442026
0.000456934
0.000427771
0.000361106
0.000367629
0.000359357
0.000356407
0.000356896
0.000354962
0.000358042
0.000355705
0.000353137
0.000356039
0.000352749
0.000354021
0.000461698
0.000717902
0.000891037
0.00079505
0.000859007
0.00128008
0.00121522
0.00142911
0.00154741
0.00112236
0.00104545
0.000960839
0.000768051
0.000340064
0.000338118
0.000335286
0.000327732
0.000330566
0.000333022
0.00032966
0.000328525
0.000312985
0.00030332
0.000304558
0.000294664
0.000297298
0.000300758
0.000310494
0.000308352
0.000305872
0.000315571
0.000323793
0.000325967
0.000320164
0.000318507
0.000316413
0.000321559
0.000280318
0.00027648
0.000289292
0.000287127
0.00028551
0.000282565
0.000290922
0.000293089
0.000274956
0.00019481
0.00025553
0.000981445
0.000341167
0.000341127
0.000344756
0.000345777
0.000341708
0.000342453
0.000346641
0.000349531
0.000350892
0.000353192
0.000351167
0.000350493
0.00035017
0.000355064
0.0003556
0.00182586
0.00173637
0.00229397
0.00211485
0.000389939
0.000376533
0.000403851
0.000417461
0.000444917
0.000429582
0.000355238
0.000361998
0.00035333
0.000354478
0.00035134
0.000353938
0.00035274
0.000353476
0.000351776
0.000353498
0.00035193
0.000453811
0.000741329
0.000921999
0.00133773
0.00121437
0.00152804
0.00141129
0.00109794
0.00118395
0.00100507
0.000338575
0.000337335
0.000334229
0.000326397
0.0003297
0.000331805
0.000328426
0.000327827
0.000311829
0.000314193
0.000302122
0.00030342
0.000295893
0.000298349
0.000299655
0.000309478
0.000308321
0.000306008
0.000324551
0.000319511
0.000317849
0.000315794
0.000321529
0.000278738
0.000274486
0.000288512
0.00028614
0.000283951
0.000282252
0.000290691
0.000293191
0.000272401
0.000176701
0.00025971
0.000296073
0.000339387
0.000339432
0.000343072
0.000345168
0.000340375
0.00034069
0.000346296
0.000347767
0.000349262
0.00035105
0.000351769
0.000348683
0.000348522
0.000348777
0.000352602
0.000353251
0.00196044
0.00177693
0.00211881
0.000384975
0.000397814
0.000374985
0.000411156
0.000421921
0.000437043
0.000355549
0.000351416
0.000362649
0.00034944
0.000350196
0.000348383
0.00035032
0.000349338
0.000351213
0.000349794
0.000351213
0.000349395
0.00128751
0.00160017
0.00149389
0.00113453
0.00122073
0.00102413
0.000338178
0.000336345
0.000334842
0.000332775
0.00032572
0.000330662
0.000328684
0.000331772
0.000327317
0.000326436
0.000312248
0.000313503
0.000302073
0.000303706
0.00029596
0.000297134
0.000299728
0.000309903
0.000307351
0.000305051
0.000323812
0.000318423
0.000320202
0.000316522
0.000314332
0.00032257
0.000277014
0.000279084
0.000275107
0.000271865
0.000289277
0.000286913
0.000284389
0.000280726
0.000291762
0.000294628
0.00026967
0.00021911
0.000190083
0.000265245
0.000980064
0.000338449
0.000338553
0.000341819
0.000343632
0.000339113
0.000339695
0.000344404
0.000347725
0.000349727
0.000350224
0.000346962
0.000347022
0.000346889
0.000351757
0.00191159
0.00170142
0.00229545
0.000386918
0.000398798
0.000381808
0.000369135
0.00040549
0.000350982
0.000346226
0.00035495
0.000343649
0.000348318
0.000344698
0.000348061
0.000347826
0.000349541
0.000349817
0.000347659
0.00034896
0.000347282
0.00131656
0.00159443
0.00146769
0.00108335
0.0011914
0.00127746
0.000336868
0.000333915
0.000331681
0.00032441
0.000330093
0.000328989
0.000327528
0.000330596
0.000326123
0.000311248
0.000301069
0.000302851
0.000297408
0.000298939
0.000309009
0.000307734
0.000305477
0.000317425
0.000319778
0.000316349
0.000313618
0.00032172
0.000276107
0.000277122
0.000272977
0.000271201
0.000288681
0.000286103
0.000283493
0.000281482
0.000291225
0.000294616
0.000268676
0.000267325
0.000227433
0.000133975
0.000265186
0.000393815
0.000336894
0.000337303
0.000340476
0.000342196
0.000343104
0.00033786
0.000338637
0.000344502
0.000346241
0.00034811
0.000348489
0.000345319
0.000346689
0.000346143
0.00034545
0.000345708
0.000349365
0.00200898
0.00175738
0.00218281
0.000393188
0.000377672
0.000371129
0.000345879
0.000342018
0.000352832
0.000339906
0.000344692
0.000342728
0.000341321
0.000344875
0.000345053
0.000347791
0.000346993
0.000345298
0.000346899
0.000344471
0.00138467
0.00167882
0.00155027
0.0012272
0.00129511
0.000335664
0.000333021
0.000334515
0.000330427
0.000331906
0.000323394
0.000328318
0.000326431
0.000329934
0.000325244
0.000311389
0.000301524
0.000303343
0.000297218
0.000299532
0.000309394
0.000306786
0.000304668
0.000317717
0.000318832
0.000320662
0.00031549
0.000312574
0.000314373
0.00032214
0.000274611
0.000277087
0.000272802
0.000287008
0.000289621
0.000284387
0.000280661
0.000292275
0.000296211
0.000293773
0.000267504
0.000264357
0.000248384
0.000170835
0.000264086
0.000354129