/*--------------------------------*- C++ -*----------------------------------*\
| =========                 |                                                 |
| \\      /  F ield         | OpenFOAM: The Open Source CFD Toolbox           |
|  \\    /   O peration     | Version:  v2012                                 |
|   \\  /    A nd           | Website:  www.openfoam.com                      |
|    \\/     M anipulation  |                                                 |
\*---------------------------------------------------------------------------*/
FoamFile
{
    version     2.0;
    format      ascii;
    class       volScalarField;
    location    "0.9";
    object      omega;
}
// * * * * * * * * * * * * * * * * * * * * * * * * * * * * * * * * * * * * * //

dimensions      [0 0 -1 0 0 0 0];


internalField   nonuniform List<scalar> 
13611
(
48.5796
48.1276
50.0171
49.0205
47.0999
51.112
50.2225
48.6646
46.0358
46.8124
52.509
51.3984
47.5941
49.7256
44.9947
46.0215
52.6447
53.8958
51.6905
46.5875
48.9745
51.0461
44.0283
45.0413
45.8311
54.1214
55.4623
53.177
46.6575
47.7623
49.7341
51.7343
43.0364
44.3556
44.7389
54.3168
55.5172
57.0587
53.1855
45.5224
47.4821
49.5145
50.8889
51.478
42.8196
42.1429
43.5485
44.5633
55.8422
57.0425
58.8008
54.2754
45.4139
48.4204
46.3946
50.543
51.6506
52.8302
42.0415
41.3076
42.6788
43.5611
57.2693
55.7448
58.4934
60.7336
54.0152
44.3741
48.2533
46.1793
50.5763
52.7
41.9823
41.2931
40.4641
42.6646
43.4821
58.7673
57.0296
60.1003
62.7224
55.2571
44.3386
47.0782
49.1916
45.283
51.6286
53.9195
41.202
40.6342
39.7299
41.7055
42.4158
59.2134
56.5942
58.354
61.7765
63.2065
64.7456
55.4526
43.7307
46.6066
48.8892
44.8996
51.0645
52.5551
53.8072
41.013
40.6009
39.8245
38.87
41.5926
42.1387
60.9992
57.8471
59.1052
62.5318
65.4649
67.0404
56.9162
43.0168
44.0328
45.5276
47.3417
48.3679
50.1563
51.8871
55.3019
40.0881
39.8363
39.4491
38.3764
40.7807
41.5162
60.611
58.4715
64.3514
67.3432
65.6534
69.2759
56.953
42.4634
43.2754
45.4877
46.4383
49.0895
50.2522
52.8808
55.5069
39.9807
39.5348
38.7223
37.6842
40.3198
40.7227
41.718
62.1009
60.1133
65.301
69.5374
67.7324
71.8855
58.6756
42.5187
43.5473
44.6276
46.8623
48.2342
51.2441
54.2454
52.3924
57.1783
39.3988
38.707
38.3328
37.2932
37.0603
39.5368
40.0977
41.2728
64.3742
61.5841
60.3068
67.6956
71.6466
69.4977
74.7054
58.8367
41.6223
42.9872
44.5781
46.5259
48.6913
50.8227
54.296
53.1147
57.1307
38.6498
38.247
37.6186
36.6226
36.4461
39.0382
39.3437
40.3983
66.1329
63.1644
61.9945
69.5812
73.9121
71.6964
77.3833
60.4913
41.4545
43.4596
42.1998
45.463
47.4013
48.4315
49.9579
52.0188
55.5991
58.8693
38.1601
37.4095
37.1324
36.2112
36.17
35.8321
38.3754
38.6666
40.059
65.0386
68.4553
62.9702
69.604
72.288
76.3246
80.0175
77.9437
62.048
60.4244
40.6766
43.1115
41.5201
45.3438
47.1035
49.2404
50.3107
52.5773
55.8642
58.9953
37.4425
37.0348
36.4196
35.5568
35.5046
35.3668
37.7317
38.6041
37.9253
39.2908
66.3546
70.0519
65.2386
72.3982
74.8764
77.9173
83.0726
80.9479
63.2675
61.9711
40.7727
42.3663
43.8972
41.6059
46.1783
44.6245
47.9474
49.1567
51.3881
53.9778
57.6206
55.1803
60.794
37.2324
36.2546
35.9372
35.2034
35.1398
34.749
37.9447
37.4009
39.3194
68.9018
72.569
66.4128
74.5637
77.7045
81.3912
86.1827
65.0908
62.8579
40.1117
42.5594
43.3036
40.8582
45.3479
44.5936
47.7654
50.15
51.3726
53.7904
57.5631
56.1398
60.4892
62.4705
36.6754
35.8135
35.3615
34.5473
34.5356
34.3126
37.4427
37.6137
36.7585
38.7355
70.5584
75.0006
68.7507
77.1897
80.5964
84.4421
87.6114
88.9908
66.0274
64.9503
40.1022
41.8576
43.6062
40.6012
45.7396
48.8595
46.9071
49.9326
52.4971
54.8651
58.8546
56.0387
61.9898
64.0792
36.1569
36.3752
35.2733
34.6802
34.2277
34.2906
33.6991
36.93
36.9969
38.0222
36.5165
38.8938
73.1798
75.3052
77.7187
69.6088
79.7019
83.3955
85.3817
91.0901
93.5291
68.3201
65.976
39.5928
41.8097
41.0807
43.2983
39.8061
44.9917
48.921
47.2122
50.9461
52.0234
55.0426
58.6524
57.2889
61.8092
63.9562
35.7093
35.7807
34.6511
35.266
33.6123
33.7095
33.2021
33.3454
36.5454
37.4444
35.9848
38.404
73.7327
78.3326
80.5984
72.3668
82.307
84.9864
89.3036
92.4683
93.6915
97.8505
69.7048
67.9496
40.9012
42.4901
40.5662
44.073
39.4013
45.3778
50.0325
48.2061
46.3999
50.9823
52.9192
54.1782
56.5128
60.0159
63.3863
65.8882
35.2506
34.1295
34.785
33.3661
33.3594
32.6455
32.8375
35.9421
36.7844
37.6464
35.3861
38.6376
76.8453
81.2079
83.3476
74.0816
88.1961
92.4473
96.5575
97.8988
103.025
72.2233
68.6993
40.9038
42.6355
39.7884
43.4403
44.91
49.8665
48.6343
46.4161
52.0135
54.8449
57.3045
59.076
65.2885
63.3182
67.9504
34.7013
33.5976
34.2674
32.7836
32.7872
32.4358
32.5354
35.4672
36.1904
37.1836
34.7993
38.192
78.8449
84.2115
86.8325
77.022
91.2428
96.0052
98.9726
102.211
108.854
73.1623
71.3616
39.9439
41.7446
39.4198
43.8886
45.4035
50.7196
48.3544
47.2613
52.5558
54.0267
56.4076
60.0774
66.8829
65.4815
62.0363
69.6806
34.2219
33.0626
33.7572
32.4878
32.663
32.0353
32.1113
34.8296
35.6095
36.074
36.5925
37.5105
34.2809
38.5877
82.1237
86.5885
85.7295
90.3101
78.6901
95.8745
98.197
103.195
106.704
115.175
76.2666
72.1595
39.5742
41.7552
43.4351
44.9826
50.5331
51.8639
49.3356
46.7782
54.7356
57.1956
58.8935
69.1825
66.5155
62.8285
33.6993
33.1891
31.9618
32.1527
31.651
31.7148
34.4502
35.1874
35.5542
36.2182
36.9555
33.7857
37.9717
83.688
84.3066
90.218
89.9943
93.6724
82.1723
98.98
103.277
105.246
111.9
122.465
115.469
77.3684
74.6488
38.9284
40.2106
40.9657
42.6701
44.051
45.6593
51.4992
52.56
48.8277
47.5118
53.8271
56.2761
59.571
71.4124
64.7446
68.6209
61.3625
33.2519
32.7092
31.7959
31.5995
31.9202
31.2425
31.26
31.2732
33.9985
34.6807
35.1487
35.6235
36.4081
36.7707
33.6338
33.3296
37.2239
38.2209
87.1915
87.7632
93.3553
93.2874
97.421
84.5881
104.433
106.522
110.83
115.132
130.825
122.816
80.7159
75.1884
38.943
39.5144
41.0705
42.6787
43.4666
45.1721
52.0295
49.7191
47.1298
54.5095
57.026
58.683
70.5565
74.0425
64.9111
68.5107
61.7246
32.7326
32.213
31.3185
31.0628
31.4096
30.7987
30.8297
30.9193
33.6475
34.469
34.7212
35.3141
36.0239
36.156
33.2562
32.9318
36.8913
37.8731
90.0223
91.6372
96.9146
97.9046
100.655
83.8539
88.7508
108.32
112.174
121.466
140.571
130.04
80.7977
78.3637
38.2458
39.7013
41.8818
40.4533
44.0191
45.8799
53.6142
51.127
49.1692
47.972
56.1182
59.5664
72.5255
75.7765
63.6246
66.9832
70.8027
61.2432
32.3901
31.8228
30.9386
31.1177
31.178
30.4518
30.4302
30.5349
33.722
33.2842
34.0805
34.363
34.896
35.5812
35.9138
32.8983
32.5323
36.2811
37.2437
93.8427
94.874
102.477
105.191
87.5907
91.4491
114.073
117.916
127.442
150.262
138.43
84.0537
78.5149
37.7472
39.578
41.7494
40.1893
43.397
45.5606
54.3863
51.7224
49.9011
47.4164
56.9449
58.714
75.0233
64.3544
67.6933
71.8898
62.5931
31.9156
31.4114
30.5303
30.6178
30.7717
29.985
29.9854
30.0703
33.2965
32.9666
33.9464
34.497
34.7906
35.1552
35.3076
32.5787
32.2073
35.9196
36.6912
96.9673
99.5438
103.256
107.066
108.493
91.4705
87.5001
95.578
117.175
117.815
125.292
136.266
161.351
151.114
147.399
84.0875
80.9932
38.1318
36.8856
39.0409
42.4862
40.8212
43.9105
46.4448
44.7529
55.9902
53.2119
51.1499
49.2961
48.0753
59.7056
77.2982
66.1556
69.9087
74.624
61.774
31.6663
31.0615
30.1038
30.3401
30.454
30.5782
29.7405
29.745
29.5952
33.0485
32.986
32.6225
33.6644
34.1315
34.3089
35.0445
32.2373
31.8886
35.3992
36.111
101.346
108.837
112.065
115.159
95.5305
91.4383
98.9061
124.151
125.179
132.865
143.948
173.728
163.793
154.976
87.0598
80.4141
37.6931
36.4824
39.2507
42.333
40.7251
43.0133
45.7171
44.8441
56.8913
53.3026
51.8817
50.0257
47.322
58.7452
77.3436
67.0549
70.3092
74.3059
63.133
31.3795
31.0782
30.7492
29.7888
29.9042
30.1298
30.2687
29.376
29.3223
29.3241
32.6595
33.2752
32.6241
32.3764
33.7944
33.9921
34.1721
34.6055
31.9487
31.6238
35.0828
35.5914
106.16
112.419
118.149
120.334
98.1984
90.2813
95.2842
104.137
130.017
132.022
141.882
154.183
166.568
86.6095
83.1962
38.0823
36.9066
35.9018
38.7908
40.0237
41.4992
43.0911
46.119
44.0843
56.7997
54.5288
51.3516
49.9813
47.7301
59.6995
80.1658
69.4026
65.4543
72.6225
76.7652
61.5093
31.3645
30.7654
30.4791
29.3471
29.6212
30.0556
29.7669
30.2252
28.9759
28.9369
28.9607
32.4254
32.5727
33.1137
32.3823
32.0323
33.5804
33.6669
33.884
34.4051
31.6394
34.6291
35.1772
35.4816
111.687
119.751
123.806
128.08
103.356
93.0121
97.2181
108.613
138.777
140.172
150.588
165.24
176.097
89.8369
82.5697
37.5783
36.5644
35.4141
39.0501
39.7966
41.2325
42.6581
45.8407
43.9422
55.9965
58.4533
53.5121
52.167
48.8696
51.1686
46.638
81.4061
70.9184
66.5955
73.2946
79.3676
75.3048
62.1355
31.0905
30.488
30.7962
29.0185
29.1611
29.7847
29.6051
29.9914
28.6942
28.4966
28.6316
32.1439
32.8044
32.268
33.293
32.1063
31.9122
33.3832
33.5399
34.0303
31.4013
34.4753
34.7561
35.0351
117.32
123.972
132.254
134.482
107.782
101.946
96.9121
114.968
147.163
149.742
162.175
176.216
91.9216
85.8477
36.9542
37.8495
36.0125
35.0053
35.4928
38.6348
40.3213
41.8498
43.152
44.7665
56.9378
58.5732
54.1759
48.9214
51.7993
46.741
84.4988
69.6597
65.9334
80.6538
76.921
64.1642
60.1736
31.0819
30.2323
30.5583
28.6409
28.9156
29.602
29.3638
29.7124
29.9914
28.3601
28.2406
28.3708
28.2364
32.0775
31.8771
32.6367
32.156
33.0485
31.85
31.6525
33.0847
33.3014
33.296
33.7308
31.4275
34.1022
34.6862
119.254
132.026
139.592
144.305
112.889
105.803
101.033
118.862
159.982
160.47
173.779
97.1775
88.9148
36.3738
37.3774
35.8936
34.6438
35.0028
39.0269
39.9119
41.6957
42.5255
44.2895
55.9753
53.413
47.8384
50.0531
51.1633
45.9025
86.3608
71.4836
68.1098
80.1462
84.4023
74.6903
64.5935
60.5334
30.9927
30.1334
30.5651
30.3014
28.3051
28.6694
29.1236
29.3211
29.5108
29.8175
27.9648
27.8894
27.979
27.8674
27.9412
31.8035
31.7011
32.333
32.7683
31.889
31.5388
31.4517
32.889
32.9765
32.9852
33.3884
33.7741
31.1852
33.9611
34.2905
127.851
139.587
134.373
149.773
152.801
111.789
105.802
101.514
125.39
172.332
98.1252
89.8383
36.5654
37.7358
35.2448
34.3582
34.2941
34.8221
34.5557
38.5819
40.4292
41.2714
42.6212
45.0305
43.4036
56.8001
54.2687
47.8064
49.8809
52.0295
45.9923
70.4458
66.7
82.7939
86.4241
75.9691
62.9362
59.7626
30.767
29.8793
30.3348
30.1866
28.3446
27.9642
28.6909
28.8977
29.1601
29.5706
29.2708
27.7099
27.7442
27.4901
27.5554
31.7118
31.4962
32.1782
32.5566
31.7015
31.3792
31.2289
32.6226
32.8223
32.7779
33.1341
33.3916
31.0931
33.6275
130.461
149.801
144.641
158.198
165.004
117.66
110.783
106.988
128.913
93.5466
103.179
36.0937
37.2909
34.9764
33.9646
33.9727
34.3229
34.2136
39.0284
39.9146
41.7091
44.4399
43.5672
55.7263
58.3349
53.2621
46.8244
48.8154
50.8947
44.891
72.3167
67.987
81.8961
89.8431
79.1794
74.9767
62.9775
61.0639
30.7096
29.73
30.3074
30.007
28.1504
27.6774
28.4901
28.7728
28.907
29.4162
29.0894
27.3824
27.3616
27.1296
27.273
31.4942
31.2827
32.3308
31.9755
31.4628
31.7664
31.1666
31.005
32.4304
32.5264
32.4756
32.8537
33.1359
33.2966
30.8711
33.6553
139.418
158.077
152.973
147.701
167.902
173.452
125.414
116.411
110.413
138.683
94.3147
103.27
107.941
36.4633
35.4567
37.68
34.4522
33.7022
33.891
33.8505
38.5349
40.3604
41.3205
42.7783
56.2022
57.7962
53.9092
46.884
48.7061
50.9172
44.7761
70.8812
67.0439
85.4224
93.4514
89.1012
79.8303
76.8816
64.7703
60.5373
30.4883
29.5086
29.8122
30.0917
29.9535
27.9604
28.2991
27.3098
27.6942
28.4923
28.7777
29.2398
28.8819
29.0916
27.1056
27.1297
26.7595
26.7914
31.3669
31.2908
31.1084
32.1463
31.9536
31.3124
31.5608
30.978
30.8255
32.1866
32.3423
32.3313
32.6982
32.8279
33.0178
33.3132
167.608
165.015
160.277
175.06
131.502
122.18
118.312
147.229
99.7836
108.244
112.862
36.1354
34.9256
37.3207
34.4217
33.9729
33.2902
33.4399
33.4639
38.9269
40.3531
41.8914
42.905
55.588
58.7783
53.4318
45.7793
47.8334
49.7756
52.0915
43.8082
72.4774
68.8559
85.5591
96.8758
92.744
82.5035
75.6574
63.9606
61.9195
30.3729
29.4227
29.6893
30.0388
29.7578
27.9661
28.1189
27.1336
27.5081
28.4022
28.5758
29.1459
28.8025
28.923
26.711
26.7103
26.5662
26.5568
27.0447
31.1282
31.097
30.9189
31.7738
31.1357
31.3691
31.5668
30.7577
30.6329
32.0157
32.0942
32.4836
32.1246
32.5962
32.7079
33.0484
173.335
172.601
159.527
140.492
129.659
123.142
147.457
100.72
109.418
119.213
35.5489
36.6107
34.9665
37.7079
34.0247
33.4876
33.1646
33.2255
33.0494
38.3697
39.707
41.1589
42.0562
56.6179
58.2426
54.5717
45.4579
48.2279
49.5313
51.8156
43.612
71.5354
67.7858
89.0174
96.1189
94.5545
82.6686
77.7601
65.4305
61.1457
30.4694
30.1905
29.5353
29.2417
29.8855
29.6423
27.7838
27.9786
27.2965
26.9585
27.5999
28.2285
28.4427
28.9561
28.6414
26.498
26.5363
26.1799
26.2354
25.084
31.0113
30.9214
30.7345
31.7984
31.0001
31.1965
31.3791
30.5875
31.8731
32.2774
31.886
32.1123
32.2577
32.5564
32.7261
173.062
144.48
135.791
131.779
160.421
104.575
115.313
124.203
35.3784
36.372
34.4879
37.3169
34.0499
33.5102
33.0768
32.8546
32.8389
32.7462
38.4493
39.7604
41.2411
41.9693
56.062
59.3739
54.2109
44.4247
46.3318
47.5442
50.4978
52.8992
42.7582
73.6074
69.2853
86.1705
92.3847
100.502
98.9549
80.9184
76.6099
64.4145
62.3428
30.2864
30.1589
29.3883
29.242
29.8523
29.7261
29.4609
27.7461
28.0571
27.1397
26.7407
26.9802
27.3991
28.1874
28.2907
28.4842
28.8733
28.5978
26.1468
26.2823
25.935
26.0518
30.2044
30.8542
30.7156
30.549
31.6403
30.8502
31.0328
31.1989
31.4195
30.3943
31.673
32.1049
31.7097
31.9012
32.1441
32.3345
32.6045
153.197
137.082
136.485
162.042
115.209
122.026
133.12
34.6848
35.7703
36.7497
37.6554
33.5892
33.2807
32.6459
32.5413
32.5291
32.3989
39.0608
40.4726
41.2112
57.1033
58.6672
55.2724
44.1963
45.8287
48.2321
50.4336
52.8254
42.7429
72.0356
68.0776
86.3662
94.8237
102.183
99.6991
82.5872
78.804
65.7271
61.4233
30.2397
29.9761
29.3365
29.123
29.707
29.64
29.408
27.6659
27.9579
27.2001
26.6519
26.7793
27.3489
28.0309
28.184
28.3559
28.9974
28.7254
28.4455
25.8875
25.9884
26.2731
26.1201
25.6275
13.4872
30.7013
30.6007
30.5513
30.3764
30.7173
30.8758
31.0171
31.344
31.4833
31.8487
31.7324
31.5042
31.9581
32.1493
32.2813
156.043
147.631
146.078
174.429
112.497
123.614
128.583
139.478
34.4532
35.5964
36.0722
37.6295
33.145
32.8945
32.3292
32.5491
32.2593
32.1513
32.0847
39.0398
40.471
41.2594
56.5081
59.6643
55.2811
44.9501
43.5235
46.4652
49.4254
47.5419
51.6653
54.0488
42.0399
73.6393
69.4775
89.588
93.6008
107.068
103.772
82.3953
77.0738
64.5906
62.5091
30.0487
29.9058
29.1684
29.0745
29.5717
29.5122
29.267
27.5101
27.8008
27.0449
26.4625
26.734
27.2269
28.0333
28.22
28.3436
28.903
28.7611
28.3559
25.5563
25.8032
26.0823
23.6293
25.7312
64.4842
30.5252
30.4184
30.379
30.2191
30.7259
30.5361
30.8579
31.0177
31.1809
31.3837
31.659
31.5463
31.4317
31.7323
31.9681
32.0597
167.044
150.44
152.121
117.725
127.57
136.861
149.687
33.8368
34.9502
36.2216
37.0315
38.3806
33.275
32.6336
32.5571
31.9768
32.1757
31.9903
31.9075
31.7966
39.7623
40.6113
57.4378
58.8078
56.4657
44.5376
43.7509
46.0024
49.5235
48.0092
51.5718
54.0804
42.2441
72.2027
68.0993
90.0432
97.8281
106.958
85.8752
79.1901
65.7759
61.4316
30.0449
29.7255
29.1486
28.9303
29.4108
29.5789
29.387
29.2611
27.4505
27.6878
26.8959
27.0745
26.3626
26.6023
27.2818
27.953
28.1291
28.1855
28.6769
28.1828
28.432
25.3878
25.878
25.5481
26.0554
24.8662
25.4207
33.8211
30.3948
30.3043
30.2353
30.599
30.4106
30.7001
30.8571
31.0707
31.1577
31.3779
31.3373
31.2543
31.5893
31.8139
31.8475
173.131
162.429
163.585
124.584
113.575
135.647
145.01
157.735
33.622
34.6741
35.7481
37.2138
38.4847
32.6546
32.2371
32.2098
31.8986
31.7398
31.7933
31.6099
31.4903
39.8339
40.7832
59.6293
57.0561
45.0327
43.0546
46.6234
50.5935
49.0111
47.6493
52.7547
55.559
41.5188
73.8106
69.3285
93.9205
102.449
106.191
85.5989
82.6721
76.8903
64.3737
62.3532
29.9207
29.6631
28.9857
28.8764
29.2995
29.4268
29.1417
27.5388
27.7305
26.773
26.9538
26.2141
26.4665
26.6263
27.2581
27.8428
28.0208
28.7381
28.5653
28.1176
28.3386
25.1013
25.7088
25.4263
25.9042
25.0043
25.1861
15.3183
30.2516
30.1349
30.0868
30.4604
30.5811
30.281
30.7123
30.8775
31.1035
31.2522
31.1246
31.1021
31.3875
31.648
31.626
173.871
129.632
116.916
142.534
137.494
156.001
168.066
33.0474
34.0923
35.1259
36.0529
38.0007
36.7881
39.2532
32.5127
32.2128
31.7857
31.8256
31.5446
31.4235
31.545
31.6243
31.3765
31.5003
31.3052
40.1835
58.6631
44.0972
43.1431
45.6097
50.3945
49.492
48.3981
52.7984
55.7644
41.4456
71.8987
67.1302
95.1259
104.542
111.877
89.6556
83.5068
78.1842
65.0939
61.743
29.9665
29.7824
29.5277
28.9258
29.1765
29.3186
29.4005
29.0984
29.022
27.5168
27.6137
26.7949
26.9975
26.2055
26.3323
26.5191
27.3863
27.1285
27.7913
27.8748
28.6467
28.494
28.2193
27.9979
28.3712
25.0525
24.9428
25.7309
25.5392
25.2425
25.926
25.4592
24.9923
20.3028
71.9779
30.124
30.1133
30.0227
30.3741
30.4285
30.1444
30.1913
30.5423
30.7941
30.9151
31.0453
30.9449
30.9146
31.3168
31.4414
31.4191
129.84
123.861
152.781
145.236
165.09
174.673
33.0637
34.1489
34.7041
35.7432
38.3661
37.1473
39.4781
31.9848
31.7161
31.4929
31.5021
31.3169
31.4535
31.1304
31.2289
31.1159
39.9845
59.707
44.3707
42.2364
51.4203
54.1839
57.4934
40.5999
73.1125
67.4082
100.505
93.3614
109.701
113.77
87.3779
81.737
76.2294
63.07
29.8351
29.7491
29.5146
28.8074
29.1174
29.1897
29.312
28.969
28.938
27.6498
26.7107
26.8796
26.081
26.3591
26.5628
27.2973
27.0842
27.8508
28.5272
28.6925
28.1233
27.9478
28.3451
24.8628
24.5922
25.5885
25.3753
25.231
25.8486
24.5501
20.6817
21.1264
29.9809
29.9574
29.8719
30.239
30.4078
30.0321
30.0577
30.4834
30.6148
30.8182
31.0012
30.9027
30.7742
30.7629
31.1398
31.2335
139.021
126.373
164.012
148.051
171.646
33.6461
32.5543
35.0235
36.08
37.8518
39.0525
36.6879
31.5112
32.0216
31.3682
31.1277
31.1662
31.0095
31.2506
31.0632
30.8582
31.0886
30.8281
30.9317
39.3292
59.2683
72.3153
65.1047
69.9159
100.955
96.2366
111.723
120.195
89.4524
83.7899
77.5143
63.0706
29.7748
29.6147
29.3797
28.7622
28.9846
29.1936
28.9114
28.8253
27.5666
26.7705
26.8624
26.0552
26.2739
26.5541
27.3551
27.1791
26.9694
27.7718
28.4397
28.6165
28.1364
28.0057
27.8336
28.2514
24.903
24.6096
25.6163
25.4476
25.3195
25.0835
25.7459
25.9191
24.4811
18.3349
22.9735
75.9346
29.8639
29.8565
30.1586
30.2429
29.9043
29.9664
30.3137
30.5517
30.6624
30.8545
30.6891
30.6333
30.6043
31.0088
31.0534
139.942
133.632
172.664
160.215
33.7119
32.6592
34.7832
35.7441
37.9763
36.7295
31.0394
31.5549
30.8836
30.9718
30.7192
30.9274
30.8292
30.8825
30.7466
30.8827
30.7625
38.681
61.0389
74.6162
105.13
96.1767
118.824
110.438
87.6545
93.9606
80.7911
29.6494
29.5463
29.2867
28.6486
28.9104
29.0895
28.8048
28.7595
27.464
27.6561
26.6618
26.7589
26.1517
26.3475
26.455
27.2596
27.1674
26.97
28.4972
28.0704
27.9412
27.772
28.2368
24.7668
24.4398
25.5397
25.3546
25.1853
25.0486
25.7087
25.9096
24.2657
16.9935
23.2699
25.7188
29.714
29.7144
30.018
30.1922
29.7922
29.8181
30.2847
30.4061
30.5281
30.6794
30.74
30.4851
30.4707
30.4888
30.8088
30.8629
149.421
136.512
160.488
33.2716
34.2765
32.4434
35.2333
36.0275
37.3124
31.0643
30.7314
31.4992
30.5683
30.6261
30.4801
30.6352
30.5542
30.6983
30.5852
30.6967
30.5574
101.498
123.97
116.365
90.3269
96.6374
82.1896
29.6143
29.4617
29.3338
29.1614
28.5819
28.992
28.82
29.0797
28.7042
28.6366
27.4842
27.5869
26.6495
26.7713
26.1399
26.232
26.447
27.2819
27.077
26.8792
28.4269
27.9784
28.1204
27.8265
27.648
28.3189
24.6235
24.7826
24.4752
24.2274
25.5892
25.4082
25.2133
24.9149
25.7857
26.0185
24.0372
20.1962
17.9436
23.6765
75.9858
29.633
29.6393
29.913
30.0638
29.6857
29.7334
30.1276
30.4018
30.5713
30.6133
30.3439
30.3464
30.3329
30.741
146.01
131.169
172.768
33.2474
34.2226
32.8152
31.9529
34.7086
30.6683
30.3123
30.908
30.1017
30.4741
30.182
30.4518
30.4311
30.5631
30.5841
30.4126
30.5125
30.3849
103.599
123.558
114.49
86.5706
94.4896
100.764
29.5039
29.2527
29.0614
28.4696
28.939
28.843
28.72
28.9778
28.6038
27.3908
26.5549
26.6869
26.2427
26.3702
27.1923
27.091
26.8967
27.8824
28.0756
27.7988
27.5763
28.2353
24.5379
24.6148
24.2963
24.161
25.5222
25.3219
25.1262
24.9645
25.7205
25.999
23.9534
23.8442
20.8006
13.7839
23.6526
32.9388
29.4997
29.5322
29.7997
29.9435
30.0198
29.5775
29.6432
30.1339
30.2781
30.4382
30.4715
30.2083
30.3213
30.2718
30.2178
30.2347
30.5461
152.828
135.125
164.957
33.7066
32.3923
31.9271
30.2693
29.9733
30.6298
29.7976
30.1806
30.0221
29.9092
30.1936
30.2062
30.4199
30.3533
30.2192
30.3444
30.1563
108.521
129.554
120.402
97.0882
102.034
29.3995
29.1737
29.3014
28.9513
29.0768
28.374
28.7794
28.6204
28.9136
28.523
27.3865
26.5793
26.7097
26.2118
26.4007
27.2104
26.9996
26.8152
27.8939
27.9849
28.143
27.7162
27.4805
27.6242
28.2637
24.4129
24.5976
24.2717
25.3801
25.5847
25.1819
24.8801
25.7907
26.1203
25.914
23.8477
23.5944
22.3735
16.554
23.5547
29.9511
29.452
29.3955
29.505
29.7321
29.8474
29.8836
29.4934
29.5402
29.6392
30.0146
30.3829
30.4069
30.101
30.1539
30.134
30.107
30.1156
143.765
173.264
31.5015
29.8251
29.6188
30.1846
30.9872
29.4641
30.0488
29.7512
29.6291
30.081
30.0663
30.2598
30.269
30.0811
30.1773
106.247
133.86
128.128
117.179
29.1469
29.2049
28.8745
29.02
28.3632
28.6991
28.8168
28.5387
28.6166
28.4366
27.3052
26.4967
26.6477
26.3025
27.1816
27.002
26.8213
27.7973
27.9738
28.0609
27.7157
27.4659
27.5459
28.2097
24.2955
24.7469
24.4813
24.1576
25.3284
25.538
25.09
24.953
25.7433
26.1218
25.948
23.72
24.0232
23.393
23.5194
23.0352
15.9033
23.3626
17.6997
29.3561
29.2717
29.4009
29.7544
29.8025
29.3694
29.4719
29.58
29.8796
30.0053
30.2492
30.2302
29.9976
30.1224
30.0589
30.0057
143.97
173.224
29.5194
29.5318
29.2331
30.1805
29.7275
30.5994
29.3979
29.1768
29.8066
29.5538
29.6427
29.8637
29.869
30.1393
30.1369
29.9084
30.1177
30.0263
110.548
134.745
130.299
122.38
29.0594
29.1861
28.9134
28.7939
28.2604
28.6491
28.7664
28.4539
28.5453
28.3981
27.2396
26.5348
26.6788
26.3096
27.1008
26.9183
26.7596
27.7686
27.9084
28.0555
27.634
27.4002
27.5542
28.1305
24.3342
24.1692
24.692
24.4814
25.2473
25.4286
25.6234
25.1322
24.8958
25.8156
26.0514
26.2174
25.913
23.7797
23.9239
23.1679
23.4132
20.3889
23.2109
29.2492
29.3317
29.3248
29.636
29.6787
29.3242
29.4988
29.3836
29.7763
29.9073
30.1633
29.8642
29.9947
29.9315
29.8729
152.685
164.675
29.161
28.9741
28.9981
29.7813
29.3112
29.1667
28.8254
29.7194
29.2976
29.4092
29.7662
29.7383
30.0061
29.9704
29.7598
29.881
29.9293
29.9128
29.8898
144.658
138.778
29.0086
29.0651
28.8654
28.71
28.2494
28.682
28.5609
28.4639
28.3258
27.3002
26.5102
26.5858
26.4192
27.0812
26.9067
26.8048
27.6865
27.8297
27.9223
27.9846
27.6195
27.4023
27.4718
28.0814
24.2875
24.0685
24.5822
24.7722
24.3711
25.2664
25.3727
25.602
25.0772
24.9643
25.7928
26.0578
26.2159
25.9705
23.6897
23.9323
22.9567
23.2075
23.5282
29.1918
29.246
29.2347
29.5839
29.6046
29.2188
29.4044
29.3472
29.6576
29.7934
30.0172
29.8601
29.7945
29.9368
29.8324
172.512
28.838
28.9099
28.6598
29.3515
29.1239
28.9301
28.5573
28.7371
29.5188
29.23
29.3506
29.5904
29.5748
29.907
29.6026
29.7184
29.8922
29.7358
29.761
148.32
28.9249
29.0191
28.7944
28.6548
28.669
28.191
28.5231
28.3954
28.2793
27.2775
26.5812
26.3882
27.1551
26.9815
26.7673
27.6611
27.7963
27.8474
27.9956
27.5563
27.3386
27.4717
28.1185
24.1661
24.0598
24.5474
24.7555
24.4111
25.2327
25.4132
25.6981
25.5101
25.143
24.9569
25.8755
26.1326
26.2988
25.9709
23.731
23.8647
23.1059
23.451
29.1072
29.171
29.1737
29.1639
29.5013
29.5191
29.2013
29.3427
29.2748
29.5647
29.689
29.7492
29.6787
29.8021
29.7199
160.458
28.4333
28.513
28.3414
28.9876
28.8865
28.7726
28.2752
28.4893
29.4599
29.0113
29.1565
29.4989
29.5126
29.7599
29.5898
29.6634
29.7471
29.6742
29.6626
29.6339
28.8324
28.9467
28.7221
28.7707
28.5763
28.5761
28.202
28.4521
28.3951
28.3168
27.2253
26.6867
26.5418
26.4552
27.1178
26.9725
26.8328
27.5873
27.7154
27.8346
27.9622
27.5388
27.2859
27.4379
28.0752
24.0889
23.931
24.6331
24.8515
24.3624
25.3086
25.6835
25.5116
25.0532
25.8569
26.1389
26.2877
26.0573
23.6654
22.84
23.2165
22.9714
23.5432
23.3454
29.0561
29.0869
29.0939
29.0914
29.3994
29.4244
29.1316
29.2181
29.1945
29.4478
29.5265
29.6598
29.5914
29.6491
29.5653
29.7103
29.5902
28.0494
28.5592
28.0531
28.021
28.6804
28.8405
28.5727
27.9882
28.26
28.3248
29.3159
28.9855
29.1477
29.3433
29.357
29.4317
29.5046
29.6257
29.5352
29.5127
29.5195
28.8492
28.9708
28.6612
28.6837
28.5363
28.5426
28.1612
28.4076
28.3231
28.2823
27.2251
26.6804
26.6034
26.4332
27.0526
27.1595
26.9117
26.8089
27.5441
27.7122
27.9012
27.7925
28.0093
27.4816
27.3179
27.3857
28.0993
24.136
23.962
23.8836
24.586
24.8226
24.4576
24.2499
25.3389
25.6065
25.7622
25.4573
25.0242
25.9455
26.2193
26.3611
26.0827
23.7439
23.1177
22.9276
23.4799
23.3501
29.0213
29.0232
29.0242
29.3575
29.1248
29.0515
29.1852
29.3673
29.4347
29.5544
29.5218
29.5395
29.4511
29.5803
29.5154
27.6406
28.2465
27.6866
27.6493
28.3145
28.6302
28.3818
28.4839
27.7748
28.0731
28.1029
29.261
28.7944
29.0505
29.2679
29.3108
29.3912
29.4244
29.4883
29.4513
29.4214
28.7918
28.9181
28.5913
28.6508
28.4485
28.4775
28.2055
28.3314
26.7409
26.5783
26.4985
27.0421
27.1741
26.9205
26.8523
27.4728
27.5555
27.7062
27.8712
27.8163
27.9854
27.4409
27.2441
27.3815
28.0307
24.0316
23.9441
24.6688
24.7822
24.9292
24.4326
24.2344
25.2883
25.5976
25.7628
25.5031
25.1248
25.9213
26.0385
26.2362
26.3147
26.1839
23.7282
23.1403
22.9975
23.5251
23.3344
28.9444
28.9454
28.9519
29.2672
29.0445
28.9789
29.1019
29.262
29.3629
29.37
29.4158
29.495
29.4408
29.3429
29.4751
29.4209
27.3106
27.8245
27.3085
27.4091
27.9817
28.612
28.1774
28.289
27.8437
27.5412
27.949
29.1171
28.7614
28.9066
29.1396
29.1803
29.2632
29.3022
29.3951
29.3132
29.3099
28.7192
28.8335
28.5213
28.5916
28.4186
28.4361
28.149
28.2791
26.7012
26.6266
26.4796
26.9773
27.1027
26.8361
27.4835
27.6075
27.7729
27.6677
27.9129
27.2444
27.3319
28.0248
24.0288
23.8413
24.6369
24.8673
24.957
24.3261
24.5282
24.1298
25.2219
25.3696
25.6734
25.8458
25.4718
25.0491
25.9864
26.0914
26.3543
26.2172
23.6303
23.2588
23.063
22.9163
23.4375
28.8892
28.882
28.8955
29.2075
28.9728
29.0246
28.9051
29.075
29.2026
29.2905
29.2939
29.3659
29.3761
29.3535
29.3241
29.2543
29.3699
26.9696
27.4711
27.0143
27.2054
27.5467
28.4552
28.1365
27.9977
28.1993
27.6654
27.3617
27.7189
29.0579
28.613
28.8364
29.0193
29.1159
29.0383
29.1652
29.1577
29.2446
29.1888
29.297
29.2452
29.2543
28.6675
28.7887
28.5238
28.4541
28.6037
28.366
28.3764
28.0847
28.17
28.2258
28.3083
26.7363
26.6062
26.4345
26.5448
26.9555
27.076
26.8052
26.9006
27.4648
27.5688
27.7472
27.6857
27.8968
27.2265
27.3453
27.9604
23.9261
23.8305
24.7237
24.8359
24.3294
24.5076
24.1241
25.2642
25.3549
25.704
25.8639
25.5501
25.0813
26.0602
25.9426
26.1777
26.3064
23.6357
23.298
23.1076
22.9493
23.4507
28.8212
28.8154
28.8261
29.1212
28.9025
28.9594
28.8339
28.9874
29.2272
29.1393
29.2094
29.2651
29.3123
29.2632
29.2283
29.1604
29.2572
26.7639
26.6803
27.099
26.6614
26.9387
27.1886
27.2358
28.4671
28.3125
27.9649
27.8206
28.0727
27.4331
27.5883
28.9263
28.5798
28.6868
28.9035
28.973
28.9371
29.048
29.0302
29.1269
29.1024
29.2028
29.1073
29.1634
28.6763
28.7296
28.4784
28.4066
28.5675
28.3407
28.0775
28.1304
28.2177
28.2552
26.7231
26.6563
26.4679
26.5322
27.0053
27.125
26.8409
26.9006
27.5101
27.4095
27.5904
27.7904
27.6534
27.8536
27.289
27.1853
27.959
23.9225
23.7347
24.6959
24.916
24.4219
24.2249
24.6005
24.0202
25.2063
25.4543
25.8114
25.6548
25.5477
25.0322
26.1148
25.9812
26.2227
26.3375
23.5583
23.22
23.3986
23.0346
28.7897
28.7612
29.0543
28.8957
28.8316
28.7709
28.9797
29.1474
29.1072
29.0589
29.1923
29.1362
29.2025
29.1763
29.1478
29.0921
29.1795
26.4077
26.3957
26.7151
26.4453
26.806
26.965
26.7412
28.3569
28.1844
27.9336
27.8066
27.6669
28.076
27.264
27.4316
28.412
28.6625
28.7938
28.9561
28.8151
28.9525
29.0514
28.997
29.126
29.0797
28.6254
28.6845
28.5075
28.417
28.3593
28.5812
28.2922
28.0581
28.1339
28.173
28.2473
26.7835
26.6509
26.4227
26.5898
27.0116
27.1216
26.8464
26.9536
27.4947
27.3997
27.5881
27.7911
27.678
27.8762
27.2936
27.2082
27.9229
28.0165
23.8249
23.7336
24.7852
24.8963
24.4427
24.2219
24.5546
23.9896
25.2661
25.4295
25.8417
25.7013
25.6289
25.0976
26.1914
26.071
25.9299
26.3037
23.5606
23.249
23.4576
22.9396
23.0709
28.7265
28.7024
28.8321
28.7706
28.7033
28.9224
29.0362
29.0022
29.0976
29.0633
29.138
29.1058
29.0508
29.0007
29.0827
26.2104
26.1626
26.5155
26.169
26.58
26.9125
26.9239
28.2119
27.8471
27.6897
27.4963
27.9274
27.2971
27.0811
27.3792
28.3304
28.5534
28.8458
28.7061
28.833
28.9324
28.9101
29.0234
28.9845
28.6319
28.6841
28.4902
28.38
28.3246
28.5276
28.2881
28.0894
28.1586
28.1959
26.7812
26.716
26.4523
26.631
27.0737
27.1673
26.9055
26.954
27.4432
27.5406
27.3535
27.6364
27.7661
27.8442
27.7295
27.2583
27.9445
27.9918
23.8135
23.6394
24.78
24.9806
24.4234
24.1678
24.3415
24.6009
24.0734
23.897
25.2044
25.3735
25.5184
25.7867
25.6563
25.0744
26.241
26.1256
25.9781
26.3509
23.3581
23.1827
23.4406
23.0357
28.6638
28.773
28.8118
28.7192
28.6769
28.9357
28.8553
28.9864
29.0245
29.043
29.0024
29.0336
29.0241
28.9754
28.9697
29.0028
29.0005
25.9803
26.3647
25.7869
26.1302
25.8318
26.5189
26.7185
25.1387
28.0772
27.7246
27.5133
27.8582
27.1128
27.0054
27.2432
28.2265
28.4345
28.5775
28.7731
28.7284
28.7619
28.8491
28.8031
28.9496
28.8871
28.6003
28.6245
28.4495
28.4062
28.3336
28.3058
28.5148
28.2604
28.081
28.1217
28.1863
26.8621
26.7151
26.4317
26.5483
26.6131
27.0711
27.1971
26.9291
27.0151
27.4541
27.5638
27.3405
27.6609
27.8034
27.8669
27.743
27.2845
27.9196
28.0144
23.7201
23.6322
24.7017
24.8862
24.9729
24.5111
24.2459
24.3384
24.0184
23.9187
25.2307
25.4245
25.5136
25.6083
25.835
25.772
25.1405
26.279
26.3339
26.0881
26.2391
25.9379
23.3716
23.2151
23.5365
23.1005
28.6149
28.7322
28.745
28.6713
28.6354
28.8704
28.805
28.9156
28.9306
28.9791
28.9399
28.9051
28.8981
28.8929
28.9005
26.0022
25.6816
26.1934
25.6433
25.6287
26.3598
26.6997
29.6417
27.9465
28.0442
27.5753
27.4579
27.7208
27.0963
26.8521
27.1429
28.1259
28.2455
28.3499
28.4869
28.6707
28.6215
28.6453
28.7392
28.7204
28.8593
28.8129
28.5574
28.4296
28.3786
28.3415
28.2645
28.4818
28.2337
28.0588
28.1064
28.1737
26.9342
26.8608
26.7815
26.5183
26.5877
26.7201
27.1285
27.2699
27.1889
27.007
27.5241
27.4403
27.628
27.3805
27.717
27.7846
27.8467
27.9373
28.0134
23.7471
24.7398
24.8382
25.0679
24.5337
24.1945
24.4319
24.0802
23.8522
25.3292
25.4141
25.5956
25.6732
25.8415
25.1641