/*--------------------------------*- C++ -*----------------------------------*\
| =========                 |                                                 |
| \\      /  F ield         | OpenFOAM: The Open Source CFD Toolbox           |
|  \\    /   O peration     | Version:  v2012                                 |
|   \\  /    A nd           | Website:  www.openfoam.com                      |
|    \\/     M anipulation  |                                                 |
\*---------------------------------------------------------------------------*/
FoamFile
{
    version     2.0;
    format      ascii;
    class       volScalarField;
    location    "0.9";
    object      p;
}
// * * * * * * * * * * * * * * * * * * * * * * * * * * * * * * * * * * * * * //

dimensions      [1 -1 -2 0 0 0 0];


internalField   nonuniform List<scalar> 
13611
(
92438.7
92578.1
92477.1
92921.6
92844.3
92133.1
92784.1
93661.8
92819.2
93268.1
92467.8
93075.8
93696.1
94124.8
92902.7
93333.5
92790.1
92106.3
93589.8
93990.4
94627
94026.7
92742.4
93082.6
93837.7
92983.7
92546.3
93745.9
94444.6
94780.6
95042.4
94374.6
92803.9
93535.9
94011.2
93505.9
92797.5
92139
94178.4
94793.8
95404.7
95545.8
95053.3
94783.9
93017.5
92510.9
93533.1
94487.5
93719.9
92958.5
92430
94399.2
95332.7
95723.6
95626.7
95827.3
95558
95052.2
93283.9
92904.3
94021.4
94762.1
93453
94172.4
92765.4
92204.4
94867.8
95625.2
96273.5
96158.8
96255.2
95528.1
93856.3
93101.9
92532.9
94508.1
95366.9
93588.3
94413.3
93168.6
92429.8
95106.5
96116.7
96485
96522.6
96364.6
96500.2
95833.5
94091.6
93350.9
93052.3
94805.8
95651.8
93973.4
94885.1
94317.3
93227.3
92822
92118
95596.2
96478.9
96964.4
96966.8
96891.2
96952
96575.1
96364.6
94533.4
93857
93204
93219.7
95352
96124.2
94121.2
95047.2
94717.5
93819.2
93009.9
92388.2
95810.8
96459.1
96973.7
97170.2
97343.3
97331.1
97159.7
97012.4
96613
94754.5
93969.4
93484.4
93218.6
95545
96431.6
94604.4
95485.6
93898.9
92708.4
93516
92059
96304.3
96869.7
97387.6
97710.5
97824.6
97755.2
97621.3
97338.9
97123.4
95225.7
94433.6
93356.7
93370.6
96008.3
96418.2
96855.4
94913.5
95653.6
94325.6
92898.2
93667.3
92362.5
96495.7
97309.2
97848.5
98009.7
98224.8
98164.5
97873.7
97427.2
97746.8
97320.1
95509.6
94564.5
94069.4
93598.8
93464.8
96006.7
96942.4
97255.5
94775.6
95405.8
96172.9
94155.8
92657.1
93408.5
92173.1
97002.7
97568.4
98344.2
98577.5
98719.5
98527.7
98337.9
97979.1
98144.2
97813.6
95442.4
94980.9
94107.5
93540.8
93329.5
96386.4
96917.4
97353.2
95210.1
95757.4
96229.4
94341.3
93094
93538.7
92408.2
97224.2
97953.2
98781.3
98358.3
98892.4
99118.5
98990.7
98586.3
98486
98167.5
98028.6
95854.3
94990.5
94550
93060.4
94169.1
92672.6
96302
97287.8
97853.1
95696.9
95192.2
96618.9
94793.3
93974.2
93038.7
92175.2
92590.4
97054.4
97758.3
98133.4
99228.6
98767.1
99420.5
99669
99287.4
99053.5
98932.2
98610.1
98533.1
95889.6
95495.2
94557.1
93166
94182.6
93138
96648.8
97864.6
97105.6
98123
96121.6
95652.7
96572.1
94978.7
94158.1
93435.6
92342.6
92674
97430
97852.2
98593.8
99474.8
99592.7
99273.6
99797.9
99663.6
99984.8
99737.2
99245.9
99181.2
98762.4
99015.9
98813.2
96396.5
95513.5
95012.4
93659.7
94427.6
92967.1
98134.1
97429.7
98693.4
96092.2
95517.2
96984.4
94717.8
93882
93161.6
92369.1
97405.2
98197.2
98879.2
100018
100055
99554.7
100261
100177
100495
99972.4
99716.3
99760.2
99216.2
99375.3
99333
98644.6
96575.4
95911.2
94920.7
93351.4
94356.9
93034.2
97872.5
98606.2
97433.7
99085.9
96547.2
95787.4
96985.6
94960.1
94186.1
93276.8
92763.5
92095.3
97815.2
98184.4
99332.7
100364
100388
100011
100704
100713
100822
100439
99984.6
99988.3
99502.6
99771.3
99625.7
98932.9
96340
97107.3
95998.2
95212.6
93896.5
94845.3
93124.4
98159.2
98598.1
99031.8
97943.7
99611.1
96601.2
96276.2
95497.9
97438.6
94704.5
94098.9
93750.7
92861.3
92209.2
97845.5
98636.9
99678.1
100871
100337
100820
100094
101150
101153
101388
100652
100449
100436
99972.2
100076
100154
99395.4
96700.4
97155.1
95719.8
96536.9
93843.5
94887.7
92992.9
93196.4
98937
99527.6
98226.6
100050
97080.1
96564.8
95722.2
97476.7
94899.6
94545.3
93934.2
93257.7
92528.8
91883.9
98294
98713.3
101141
101065
100838
101180
100526
101572
101362
101505
101698
101136
100794
100790
100472
100325
100413
99716.6
97528
96037.3
96814.9
94414.7
95378.8
92860
92957
98783.7
99461.3
100016
98048.1
100540
97057.4
96306.5
95380.4
97956.9
94471.3
93714.4
93159.9
92751
92126.1
98365
99143.8
101650
101602
100942
101662
101984
101829
101931
102196
101234
101238
100831
100787
100205
100887
99595.6
97370
95887.8
96602.9
94478.7
95397.1
92583.9
93984.5
99122.5
99804.5
100481
98463
101026
97497.7
96459.8
95589.8
98001.7
94807.8
93865.5
93473
92567.7
91911.8
98854.3
99214.4
101851
101909
101461
102039
102350
102119
102391
102519
101631
101643
101244
101205
100570
100979
101239
99968.3
97711.9
96258.9
96950.9
94930.4
95954.4
93375.8
93825.2
98983.7
99629
100243
100522
100995
98291.3
101526
97564
96083.5
96875.5
95333.1
98518.9
94677.1
94240.2
93428.6
92952.5
92121.9
98960.3
99728.3
102329
102430
102481
102779
102646
102036
102807
103045
102085
101660
101665
100458
101409
101717
97505.8
96767.3
95025.1
96072.4
93836.3
94190.6
99421.7
99940.4
100565
100936
101342
98592.5
102008
98072
97278.3
96304.5
96756.1
95634.6
98527.6
95086.6
94198.2
93779.6
92937.9
91816.9
92562.1
99473.8
99878.5
102552
102710
102767
102665
102852
103152
102850
102473
103299
103407
102513
102098
102092
100838
101794
101554
102114
97863.1
97160.1
95590.3
94686.9
96585.4
93661.4
94165.9
94059.5
99415.2
99864.3
100431
100954
101245
101769
99045.4
98370
102075
102441
98051.9
97618.5
96112.4
97056.6
95520.7
98955.2
94996.2
94543.8
93804.9
93449.5
92081.7
92807.2
99686.3
100334
103105
103189
103270
103196
103286
103643
103305
103706
103886
102972
102533
102528
101328
100750
102263
102047
102519
97714.3
97080.9
95693.1
94845.7
96615.1
93353.2
93791.9
94479.4
99812.9
100251
100603
101290
101607
101916
99265.8
98667
102556
102893
98388.6
97515.8
96329.6
96825.2
95962.8
99464
98839.7
95409.3
94302.7
93379
91801.1
92563.5
100242
100487
103284
103497
103471
103527
103705
104011
103385
103704
104202
104272
102982
102944
101717
101133
102596
102377
102135
102920
98081.1
97566.6
95262.4
96155.7
97061.5
93690.7
93872.2
94419.7
100242
99699.6
100418
100927
101444
101628
102272
99102.4
98529.5
102611
102934
98307.1
97869.7
97052.1
95946.9
99825.4
99146.4
95392.3
94505.3
93702.3
91991.5
92929
100518
100969
103743
103907
103968
103931
104128
104457
103903
104134
104591
104751
103416
103386
101615
103101
102841
102564
103300
98019.9
97529.9
95338.9
96209.2
97043.5
93655.4
93396.8
94596.5
100509
99928.3
100870
101298
101914
101977
102307
99363.7
98837.8
102982
103402
98624.3
97929.6
97609.4
96825.8
96358.6
99631.9
100330
99013.4
95822.6
95005.7
94217.4
93502.5
91625.8
92372.1
92799.1
101033
101236
104164
103814
104203
104231
104173
104563
104813
104684
103925
104247
104527
105091
105174
103786
101943
103237
102943
102756
103726
98384.9
97892.2
95002.2
95812.3
96654.1
97404.8
92999.2
94356.9
93678.9
100894
100318
99768.2
101158
101587
102167
102661
99235.6
98754
102991
103400
98437.1
97674.7
97199.3
96257.2
99800.5
100696
99389.7
95709.8
95224.7
94522
93843.4
91969
92438.8
93183.6
101317
101735
104640
104309
104659
104746
104647
104928
105256
105193
104281
104720
104873
105411
105595
104175
102486
103714
103361
103251
104184
98476.6
98315.9
97776.1
95247
95755.2
96717.7
97430.5
93214.3
94592.5
93445.5
101063
101155
100522
99978.1
101503
101995
102532
102735
99521.7
99042.6
103288
103705
98742.4
98054.1
97120.2
96645.2
100195
101171
100617
99305.5
96014
95026.2
94345.4
93667.6
92919.3
101821
102030
105048
104704
104368
105040
104852
104959
105311
105616
105456
104704
105055
105260
105910
106038
104574
102713
103743
104187
103483
103567
104636
98916.5
98584.3
98027.9
95016.9
96075.4
97156
96513.9
97817.9
93795.3
94361.3
93349.2
100884
101413
101533
100340
99860.5
101793
102120
102816
103114
99418.2
103337
103601
104058
98574.6
98011.6
97552.5
96516.6
100359
101572
100994
99670.1
95829.5
95326.8
94663
94062.2
93153.9
101981
102467
105489
105134
104725
105434
105336
105482
105635
106096
105930
105028
104885
105553
105612
106201
106027
106370
103163
104120
104620
103951
103541
104025
105130
99148.7
98404.2
99008.9
95283.5
95894.1
97185.7
96777.7
97965
93219.5
94282.6
93621.8
101066
101624
101548
101801
100460
100153
102348
102846
103163
99624
103677
103823
104256
98851.8
98474.4
97411.5
96849
100170
100847
101479
99662.4
96125.9
95137
94552.4
93843.7
102453
102779
105513
105884
105307
104614
105118
105845
105654
105755
106021
106253
105503
105356
105936
106730
106411
106821
103194
104528
105061
103941
104432
105287
105533
99483.8
98567.4
99226.6
95107.7
96167.6
97446.1
96813.9
97789.6
98340.6
93164.8
93933.7
94623
92788.4
101384
100982
101936
101885
102092
100736
100180
102314
102631
103183
103448
99937.1
103861
104123
99321.5
98617.6
97737.4
96644.1
100469
101130
101777
100191
95864
95382.3
95013.2
102623
102830
105916
106310
105803
104752
105380
106229
106142
106177
106312
106732
105911
106380
107019
106959
106816
107129
103573
104919
105450
104376
103944
104884
105832
105971
99744.5
98874
99568.4
99125.5
95396
96066.1
96596.5
97267.3
98026.2
98510.2
93006
93882.3
94578.3
92406.2
92412.3
101507
101290
102056
102142
102000
100778
100522
102584
102772
103242
103440
103767
100030
104185
104299
99491.7
98293.2
99167.5
97490.6
96954.9
100945
101579
102289
100302
96177.9
103168
103383
106314
106712
106025
105025
104571
105791
105284
106673
106527
106502
106749
107074
106950
106325
106776
107505
107442
107255
107614
105397
105907
104680
104386
105302
106112
106377
99784.6
98859.3
99694.6
99454.7
95803.5
95017.6
96441.7
96738.3
97467.3
98384.1
97882.2
93566.6
94184.2
92457.7
92422.6
101785
101315
102328
102427
102272
101063
100554
102637
103031
103509
103699
104028
100284
104392
99944.6
98558.5
99390.7
97781.5
96755.4
101295
101914
102380
100738
103553
103386
106772
107149
106435
105011
104755
105868
105564
107108
107051
106908
107514
107459
106742
106500
107246
107799
107704
107614
107825
105803
106318
105138
104598
105404
105741
106589
106749
100157
99062.4
99984.9
99517.8
95940.1
95098
96541.1
97031.8
97345.1
98612.4
98079.6
93636.4
94023.3
92814.1
92025.1
101889
101541
102489
102506
102330
102494
101160
100781
102895
103099
103562
103708
103974
104317
100354
104683
100143
98299.5
99110.6
99916.4
97634.2
97135.2
101190
101817
102786
100628
103993
103895
103236
107195
106796
107551
106657
105198
106173
105492
107546
107387
107273
107797
107103
106998
107622
108340
108154
108079
108275
106266
106799
105416
104407
105172
105934
106113
106908
107177
100243
98937.5
99348.2
100049
99827.7
95807.9
96340.7
94810.1
95514.1
96943.7
97635.7
98573.2
97952.1
98372.9
93384
94279
92597.6
91989.4
102156
101773
101476
102724
102748
102587
102757
101049
100675
102930
103367
103788
103965
104119
104547
104902
98476.9
99343.9
100206
98059.2
101587
102213
102717
100863
104118
104094
103710
107643
107176
107965
107062
106543
105153
106144
105620
107992
107847
107691
108307
107518
107300
108098
108602
108496
108361
108317
108515
106667
107228
105884
104704
105371
106135
106579
107420
107525
100509
99140
99531.8
100365
99854
96100.7
96421.4
94973.9
95563.3
97152.9
97545.5
98831.4
98238.7
98475.4
93268.6
93999.5
92142
92883.1
91525
102241
102020
101651
102949
102635
102787
102962
101249
100843
103157
103396
103989
103896
104361
104552
104838
98975.9
99918.8
100668
101587
102090
103156
101294
104527
104632
103702
107769
108012
107557
108318
107291
106806
105415
105875
106377
108342
108117
108037
108630
107848
107740
108413
109084
108931
108833
108836
109041
107153
107719
106254
105094
105810
106557
106987
107798
107979
100756
100552
99430.5
99062.2
100475
100068
96129.8
96638.8
95340.3
94880.4
95903
97077.5
97743.7
98766
98281.2
93532.5
94288.5
91993.9
92741.9
91704.6
102465
101982
101546
103159
102839
103013
103201
101156
103600
104142
103831
104103
104471
104827
104976
101037
102026
102334
103141
101425
104838
104869
104142
108218
108403
107907
108742
107750
107149
106680
105433
106004
106278
108758
108627
108470
109124
108266
108071
108871
109283
109407
109344
109091
109084
109324
107580
108124
106654
106232
105214
105920
106934
107505
108268
108346
100968
100851
99556.7
99316.4
100784
100337
100024
96474.9
96889.5
95442
94695.7
95179.7
95973.8
97346.2
97586.4
98048
98915.2
98608.9
93351.9
94173.7
92243.7
92998.1
91345.6
102599
102149
101727
103345
102849
103024
103226
103362
101337
103561
104355
104023
104279
104687
104867
105210
102111
102745
103597
101804
105384
104623
104055
108282
108497
108787
109017
107824
107431
106844
105636
105887
106417
108922
108788
109437
108584
108496
109101
109709
109930
109905
109639
109587
109797
108064
108588
107076
106641
105601
106407
107295
107926
108651
108779
101235
100966
99788.9
99342.4
100844
100558
100276
96609.2
97047.2
95711.2
94821.4
95151.2
96242.7
97316.2
97737.3
98135.7
99174.9
98846.4
98622.2
93561.9
93880.6
94423.3
92230.8
92906.4
91453
102577
102396
102007
101626
103028
103219
103421
103586
103697
104446
104249
104033
104823
105023
105335
102502
102827
103566
102067
105796
105433
105007
104446
108688
108967
109150
109445
108132
107398
106682
107118
105568
106053
106293
109379
109254
109958
108957
108837
109526
110045
109961
110260
110011
110373
109861
109790
110094
108485
108996
107273
107069
105872
106433
107777
108424
109072
109126
101413
101290
99814.2
99591
101037
100514
100289
96488.6
96941.6
95752.7
94710.3
95316.7
96256.7
97555.3
97953.6
98360.3
99310.1
99161.2
98786.1
93182.9
93882.1
94366
91892
92554.8
91044
102849
102530
102173
101799
103221
103043
103413
103600
103675
103899
104637
104364
104257
104802
104992
105234
102519
103191
103902
106274
105793
104919
104324
108841
109116
109545
109727
109661
108586
107976
107642
106801
107222
105716
105952
106433
109543
110280
109275
109245
109626
110483
110451
110560
110364
110562
110237
110201
110500
108953
109435
107794
107468
106764
108080
108860
109460
109542
101695
101435
100077
99575.6
100960
101297
100710
100590
96692.5
97079.5
95571.1
96056.8
94880.1
95250.7
96570.5
97632
98057.2
98322.2
99294.6
98546.3
98997.1
93261.3
94148.7
93646
94571.3
91997.6
92383.9
91265.2
102837
102434
102070
103394
103287
103595
103805
103880
103991
104706
104582
104336
104975
105134
105279
102943
103289
103722
106226
106679
105881
105286
104631
109361
109547
109900
110307
110132
108816
108149
107494
107057
106664
105677
106022
106384
110067
110605
109621
110028
110397
110777
111349
110383
110657
111485
110424
110385
110694
109389
109866
107919
107538
107231
108553
108892
109342
109818
109860
101871
101712
100070
99758.7
101146
101488
100685
96926.4
97317.7
95675.2
96102.6
94781
95100.6
95472.3
96674.2
97515.3
97934.2
99653.7
99202.4
98607.8
99087.3
93156.1
94139.8
93729.8
94543.4
91822.4
92539.3
91152.4
102962
102589
102230
103417
103572
103381
103811
103960
104212
104923
104668
104530
105025
105125
105400
104023
106536
107103
105717
106328
105122
104505
109561
109677
109861
110517
110474
110715
110419
109271
108533
107935
107626
107133
106727
105532
105746
106211
105891
106568
110737
110064
110790
111606
111811
111158
111531
112107
111191
111026
111733
109870
110256
108302
108081
107434
108846
109377
109820
110180
110234
102125
101851
101845
100286
101111
101404
101735
100935
100532
97083.5
97338
95880.1
96307.9
94917.3
95136.7
95495.2
96999.7
96548.3
97724.9
98001.9
99813.3
99435.4
98941.1
98457.4
99361.2
93372.4
92879.1
94332.6
93952.7
93635.8
94722.6
91951
92278.4
91611.3
90751.2
102824
103163
102497
103642
103716
103312
103624
103967
104165
104292
105023
104831
104607
105204
105249
105393
106966
107235
106109
106479
105323
104913
110135
110200
110313
110909
110790
110876
110842
109479
108534
108130
107409
106935
105682
106211
105938
106571
111785
110366
111615
112353
111713
111418
111267
112501
110221
110826
108394
108737
108175
107830
109340
109790
110212
110481
102282
102148
102122
100256
101404
101562
101928
100996
100746
97582.8
95878.9
96259.6
94886.2
95331.8
95702.3
97129.4
96726
98195.1
99675.8
100066
99060.5
98616
99568.1
93328
92803.6
94333
93946
93732.1
94710.4
92451.9
91692.5
90874
102991
103224
102646
103738
103916
103580
103729
104163
104246
104489
105195
104969
104882
104798
105279
105547
107169
107742
106204
106895
105798
110443
110438
110728
111096
110793
111004
110973
109245
110092
108809
107980
107427
106983
105688
106077
106311
105821
106438
106650
111947
110946
110797
111111
111064
108808
109025
108559
108005
109735
110061
110748
111002
102538
102268
102197
100500
101458
101847
101219
100723
97668.9
96048.2
96413.9
95025.4
95346.8
95748.6
97346.6
96956.2
96634.7
98146.4
99793.7
100191
99317.2
98870.1
98439.6
99562.5
93519.4
93043.2
94500.3
94192.3
94056.6
93700.4
94630.4
94915.6
92397.7
91399.3
92020.9
90485.1
102925
103451
103982
104064
103647
103951
104320
104432
104554
105285
105102
105078
104895
105418
105538
107567
107868
106743
107069
110725
110834
110959
111772
112089
111985
109409
110262
108762
107641
108071
107184
106808
106133
106256
105792
106555
112812
111219
111187
109097
109428
108444
109001
110111
109763
110472
102658
102527
102420
100466
101668
101981
101191
100929
97542
97959.1
95993.1
96324.5
95201.6
95506.7
95670.2
97343
97085.5
96777.2
100053
99375.5
98948.8
98502.4
99787.6
93549.6
93070.2
94453.1
94217.2
93987.2
93841.4
94689.8
94955.3
92700.9
91405.9
91994.7
90458.2
103068
103481
104087
104279
103903
104055
104517
104552
104698
105233
105427
105146
105057
104840
105490
105645
107790
108264
107571
110795
110946
110990
111862
112331
112262
109825
109126
110546
108398
107582
107773
107177
106833
106076
106256
105868
106582
109500
108691
109377
110665
110136
110952
102906
102690
102660
102433
100653
101854
101732
102212
101351
100902
97789.2
98039.9
96105.4
96449.1
95239.8
95457.7
95816.1
97503.1
97007.3
96685.6
100189
99197.8
99687.4
98768.9
98303.6
100043
93490.8
93707
93308.3
92952.1
94554.2
94321
94073.4
93839.7
94815.3
95134.4
92761.8
91619.1
91142.5
92302.2
89769.9
103316
103722
104282
104434
103950
104258
104678
104720
105372
105463
105270
105147
104996
105628
108217
108600
107875
111820
112107
112050
110840
112747
110035
109164
110309
108417
107351
107677
106985
106697
106174
105973
106340
105827
106481
109846
109192
109848
111023
110722
110154
102968
102896
102700
100573
102064
102030
101603
102281
101178
97751.9
96023
96353.3
95576.3
95752.5
97417.7
97146.8
96805.3
99232
99816
98915.2
98350
100233
93548.5
93692.7
93250.5
93078.7
94543.1
94307.8
94072.4
93954.8
94818.7
95187.8
93008.1
92658.8
91616.5
91159.7
92244.8
90302.5
103456
103806
104353
104417
104641
104134
104417
104859
104859
105425
105550
105325
105384
105117
105273
105002
105723
108627
108940
108491
112679
112938
112078
109727
108804
110375
108097
107283
107409
107796
106964
106693
106175
106004
106313
105955
106477
110005
109310
110146
111088
110687
103147
102942
103105
102713
102881
100723
102200
101752
102484
101280
97890.8
96135.6
96464.7
95506.9
95836
97569.7
97052.2
96682.2
99425.6
99686.9
100108
98837.4
98129.1
98590.6
100526
93501.4
93784.2
93359.9
94412.6
94644
94168.7
93971.2
94926.6
95365.2
95079.2
93146.2
92851.6
91970.8
91307.3
92470
90331
103723
103369
104062
104535
104650
104771
104330
104441
104587
105044
105544
105691
105477
105484
105266
105349
105138
109015
108864
112353
109733
108826
110506
111446
107982
107084
107300
107603
106811
106564
106235
106087
106397
105948
110588
109569
110144
110647
103211
103289
102964
103133
100960
102165
102460
101584
101997
101158
97772.2
96038.8
96357
95720.2
97517.6
97152.5
96776.5
99378.3
99962.5
100216
99075.4
98278.8
98561
100727
93603.2
93897.5
93769.5
93409.8
94403.9
94602.7
94164.8
94073
94843.4
95389.3
95152.7
93186.5
93340.4
92748.1
93112.7
92024.2
91442.5
92340
91150
103869
103580
104202
104700
104973
104502
104687
104800
105094
105157
105622
105763
105533
105597
105283
105473
109396
109491
109208
110087
108508
111441
110438
111926
107665
108122
107021
107377
107105
106783
106580
106207
106147
106373
105849
105989
110920
109917
110678
110834
103316
103528
103184
102940
101011
102396
102653
101691
102107
101475
97830.6
96156
96433.1
95730.4
97378.8
96992.2
96630.4
99577.3
100001
100433
98998.1
98206.2
98724.1
100679
93712.7
93513
93934.8
93833.1
94344.2
94483.6
94694.5
94252.3
94067.3
94922.9
95269.4
95561.3
95051.3
93336.4
93411.4
92962.6
93252.9
91773.8
92565.8
103800
104100
104440
104845
105076
104724
104863
104787
105308
105343
105736
105628
105698
105390
105563
109730
109866
109072
109813
108650
111939
110512
107459
107889
106867
107211
106990
106663
106496
106215
106133
106403
106290
105918
106065
105999
110101
110847
103569
103702
103432
103085
101232
102605
102387
101972
101495
97989.7
96062.3
96302.3
95873.8
97452.7
97019.6
96763.4
99473.3
99830.8
100260
100448
99190.2
98351.7
98620.6
100868
93741.9
93542.2
93886
94010.2
93820
94356.4
94447.8
94650.4
94199.1
94154.4
94850.3
95269.2
95547.2
95119.7
93425.6
93500.4
92923.3
93213.1
93418.4
104010
104206
104593
104998
105252
104872
105021
105004
105384
105422
105810
105703
105680
105787
105551
110482
109311
110180
108402
111202
107241
107393
108010
107539
106797
107028
106845
106621
106473
106188
106382
106289
105909
106117
106068
110578
103652
103921
103531
102847
103296
101254
102584
102083
101693
97978.9
96327.4
95856.5
97646.1
97220.1
96704.9
99644
99998.8
100287
100742
99102.8
98242.8
98810.2
101109
93712.9
93646.5
93918.4
94011.4
93860.8
94282.4
94477.3
94726.5
94542.8
94196.3
94128.9
94908
95374.8
95673.9
95057.2
93547.4
93570
93407.5
93545.1
104043
104395
104814
104548
105188
105325
105076
105199
105137
105557
105569
105838
105812
105855
105669
110829
109009
110224
108538
111414
107074
107111
107752
107367
106678
106876
106720
106522
106410
106203
106325
106246
105965
106110
106168
106074
103882
104099
103478
103875
102844
103329
101599
102555
102344
101935
97838.6
96489.1
96138.6
95972.3
97651.2
97236.6
96865.4
99523.6
99913.1
100472
100844
99239.4
98268.2
98769.9
101270
93775.9
93645.2
93945.6
94080.2
93905.1
94343.6
94662.1
94506
94127
94845.6
95336.5
95615.8
95172.6
93646.9
93355.5
93611.2
93455.2
93652.9
93641.4
104274
104444
104946
104777
105252
105482
105268
105390
105335
105625
105679
105638
105679
105886
105853
105956
105786
109163
110636
109696
108170
112191
106886
106922
107798
107468
107105
106618
106725
106624
106497
106386
106306
106242
106038
106132
106188
106151
104101
104342
103807
104036
103068
103582
101734
102812
102417
102172
98003.4
96443.2
96233.4
95856.7
97483.8
97901.3
97064.8
96749.8
99596.3
100154
100713
100411
101126
99040.3
98404.3
98621.8
101542
93877.9
93770.3
93718.4
93958.9
94078.4
93938.3
93921.1
94325.8
94549.3
94711.4
94412
94134.8
94882.9
95455.2
95667.7
95121.4
93724.1
93743.3
93620.6
93734.8
93755.9
104672
105153
104829
105504
105457
105307
105606
105813
105854
105789
105839
105968
106004
106039
105889
108597
110606
109791
108161
111677
106708
106924
106702
107448
107210
107007
106528
106585
106512
106412
106320
106268
106219
106109
106178
106183
104417
104560
103857
104280
103061
103567
102108
102746
96541.4
96150.6
95954.2
97515.7
97943.3
97132
96936.1
99273.6
99694.3
100216
100868
100682
101289
99052.6
98269.8
98806.3
101602
93854.6
93826.7
94012.5
94039.3
94094.2
93954.7
93945.2
94266.5
94491.5
94630.5
94373.8
94199.2
94764.1
94989.5
95387.4
95558.5
95244.2
93807.7
93903.3
93755
93827.6
93845
104725
105214
105038
105648
105652
105541
105765
105900
105894
105992
105978
106029
106020
106118
106117
106010
108644
110151
109291
107723
111497
106555
106672
106536
107176
107414
106763
106488
106462
106434
106389
106291
106255
106222
106170
106213
106189
104475
104622
104099
104420
103313
103795
102256
102878
96459.7
96232.6
95855.3
97314.6
97761.4
96927.8
99407.6
99864.5
100648
100103
101161
98424.1
98734.2
101806
93906.4
93856.8
93990
94000.2
94045.8
93975.7
93970.5
93930.9
94237.4
94257.1
94515.1
94661.2
94310.3
94074.8
94746.5
94971.3
95561.2
95222.2
93858.1
93927.7
94014.7
93900.1
93885.6
104938
105437
105088
105832
105711
105780
105620
105914
106092
106074
106120
106074
106123
106155
106110
106228
106188
108250
110277
109380
107505
111107
106365
106508
106594
106383
106854
107052
106659
106414
106337
106342
106330
106255
106287
106237
106219
106218
106206
106238
106218
106242
104725
104921
104349
104076
104734
103353
103729
102077
102502
102712
103194
96564.4
96109.4
95680.5
95926
97308.9
97780.9
96743.3
97103.8
99362.9
99922.5
100756
100490
101351
98310.9
98850.8
101750
93948.6
93929
93991.3
93997.3
93989.2
93972.1
93988.2
94121
94180.4
94422.8
94550.1
94297
94047.7
94838.9
94615.2
95086.7
95384.1
93937.3
94048.4
94136.6
94023.1
93958.2
105039
105479
105294
105982
105954
106038
105872
106091
106151
106232
106261
106259
106196
106233
106257
106349
106248
107748
108433
109757
108934
107470
107040
111080
106291
106299
106277
106347
106213
106763
106393
106338
106233
106245
106294
106228
106217
106213
106228
106247
106227
106259
106264
106281
104921
105044
104665
104311
104938
103906
102339
102591
103067
103335
96426.2
96216
95601.9
95808.9
97501.3
97943.8
96831.5
97059.1
99650.9
99089.1
100167
101019
100490
101267
98645.8
98120.4
101970
94014.2
93968.6
93974.1
94001
94007.1
93990.2
93978.5
94023.4
94052.2
94121.5
94454.9
94336.2
94190.5
94013.7
94753.6
94546.4
95025.3
95339
93978.4
94133.9
94051
94257.9
105311
105693
106170
106142
106040
105916
106277
106300
106380
106268
106347
106388
106308
106307
106386
106428
106334
107500
107993
109655
109115
106906
106771
110652
106131
106129
106167
106213
106246
106073
106441
106197
106130
106180
106223
106197
106187
106215
106259
106233
106335
106304
105190
105295
104919
104659
104209
105206
103833
102394
102829
103101
103623
96489.5
96093.1
95469
95870
97435.8
97804.6
96713.5
97197.1
99635.9
99111.4
100115
101164
100640
101560
98674.6
98213.3
101843
102248
94058.5
94037.6
93948.5
93952.5
93994.8
94021
93963.6
94068.3
94020.9
94059
94377.1
94275.7
94159.6
93971.5
94864.5
94596.6
94411.8
95151.9
94060.9
94243.9
94093.8
94257.8
94353.4
105510
105730
106331
106295
106131
106477
106538
106501
106502
106559
106349
106396
106526
106562
106401
107078
108080
109876
108691
106548
106401
110679
106039
105956
106006
105970
105932
106211
106286
105901
106028
106080
106153
106127
106168
106281
106231
106392
106328
105406
105506
105250
104888
104368
105402
104165
102777
103350
103688
96355.6
96140.3
95427
95703.1
97562.9
98036.8
96866.8
97120.5
99389.3
99892.1
98867.9
100437
101073
101525
100853
98432.4
102132
102398
94123.2
94080.6
93929.3
93925.4
94019
94081.8
94043.5
93981.1
94108.9
94121.6
93933.4
94028.7
94032.8
94271.9
94064
93930
94838.6
94509
94323.1
95091.5
94266.7
94332.7
94188.3
94465.1
106017
106385
106449
106418
106335
106608
106535
106678
106573
106604
106675
106434
106499
106621
106599
106437
106478
106915
106625
107659
109672
108693
106127
106094
110249
105891
105866
105872
105766
105929
105914
105718
105856
106012
106062
106138
106104
106175
106304
106209
106381
106320
105732
105786
105367
105164
104796
104601
105659
104323
102967
103300
103958
96382.3
95964.4
95193.6
95463.2
95545.5
97460
98043.4
96796.2
97183.3
99410.5
99892.1
98814
100491
101333
101725
100953
98492.4
102091
102672
94171.6
94157.7
93966.3
93904.4
93900
93969.4
94069
94062.7
94131
94157.4
93893.9
93932.6
93935.2
94008.5
94155.7
94040.5
93860.4
94667.1
94943.1
94347.6
94541
94191.7
94355.4
94402.4
94213
94528.1
106090
106645
106657
106688
106546
106792
106745
106871
106749
106762
106829
106746
106677
106521
106590
106440
107104
106290
107994
109163
105727
105773
110293
105747
105811
105674
105617
105574
105729
105689
105507
105784
105853
105933
105986
106101
106040
106139
106283
106230
106440
106377
105849
105668
105350
105147
104667
105864
104243
102909
103487
103956
96585.4
96215.7
95988.5
95077.6
95257.4
95510.2
97616.4
98314.5
97863.1
97022
99644.7
99160.4
100216
98907.6
100776
101264
101619
102294
102784
94242.1
93925.2
93889.5
93837.2
93982.9
94103.9
94051.5
94160.2
94230.7
93860.8
93876.4
93834.5
93932.9
93959.6
93821
94688.8
94864.7
94198
94402.3
94078.6
94410.8
94381.2
94492.5
94295.9
94616.5
106325
106795
106855
106802
106599
106881
106945
106988
106833
106812
106859
106802
106779
106664
106613
106510
106130
106617
105935
107816
109034
105363
105669
105426
109885
105603
105664
105530
105428
105412
105454
105367
105325
105398
105659
105766
105912
105977
106087
106048
106158
106319
106207
106417
106361
106115
105811
105843
105672
105236
104945
106230
104474
103276
103789
104312
96677.9
96200.1
95786.2
94928.1
95259.5
95581.6
97459.8
98403.8
97892.1
96972.5
99615.1
99292.6
100251
98710.4
100806
101426
101818
102604
102155
103276
94296.8
93920
93867.3
93797.7
94146.2
94077.2
94207.5
94255.9
93778.2
93813.5
93776.1
93884.5
93921.1
93769.4
94570.3
94052.8
94243.9
94416.2
93955.1
94507.4
94472.9
94553.7
94621.8
106302
106525
107081
107054
107009
106980
107130
107180
107173
106993
106972
107037
106951
106896
106750
106696
106581
105769
106136
106514
108369
107231
109422
104994
105230
105182
110020
105448
105569
105332
105232
105247
105275
105051
105113
105654
105726
105806
105903
106046
105988
106107
106304
106239
106469
106419
106146
106130
105816
105548
104959
106457
104721
104041
104491
96576.3
96302.6
95918.6
94827.5
95098.6
95432.6
97657.6
97155.7
98201.6
99682.4
99125.4
99961.4
100561
98800.9
101096
101337
101710
102806
102332
103425
94368.4
93940.8
93816.7
93866.4
93747.9
94206.9
94113.7
94028.2
94253.8
94319.4
93701.2
93726.8
93726.9
93754.8
93791
93731.7
94610
93967.2
94126.3
94261.7
93846.4
94527.9
94465.9
94718.2
106658
106780
107279
107236
107244
107176
107266
107293
107288
107169
107121
107093
107050
107028
106765
106683
106518
106647
105405
105710
105965
106726
108223
107117
109256
104753
104910
105108
104910
109685
105345
105431
105226
105195
105051
105087
104957
104928
105555
105650
105813
105920
106006
106039
106147
106338
106201
106418
106367
106364
106108
105606
105330
106712
104811
103987
104413
96619.8
96106.3
95782.5
94878.8
95137
95233.1
95550.7
97550.2
97129.5
98327.1
99432.1
100121
100555
98643.1
101240
101656
101840