/*--------------------------------*- C++ -*----------------------------------*\
| =========                 |                                                 |
| \\      /  F ield         | OpenFOAM: The Open Source CFD Toolbox           |
|  \\    /   O peration     | Version:  v2012                                 |
|   \\  /    A nd           | Website:  www.openfoam.com                      |
|    \\/     M anipulation  |                                                 |
\*---------------------------------------------------------------------------*/
FoamFile
{
    version     2.0;
    format      ascii;
    class       volScalarField;
    location    "0.9";
    object      p_rgh;
}
// * * * * * * * * * * * * * * * * * * * * * * * * * * * * * * * * * * * * * //

dimensions      [1 -1 -2 0 0 0 0];


internalField   nonuniform List<scalar> 
13611
(
102023
101801
101829
101648
102021
101697
101639
101905
102357
101948
101809
101695
101940
101899
102158
101898
101684
101680
101780
101893
101875
101834
102256
101860
101957
101660
101892
101766
101880
101896
101872
101808
102098
101936
101991
101737
101693
101707
101775
101979
101959
101908
101856
101830
101861
102087
101961
102001
101726
101636
101713
101766
102015
101944
101997
101886
101865
101818
101981
102265
102065
102054
101686
101737
101608
101716
101791
102060
101971
102020
101902
101838
102107
102034
102114
102078
102083
101679
101732
101647
101694
101779
102075
102008
101951
102061
101895
101828
102149
102092
102382
102121
102136
101690
101755
101713
101632
101572
101667
101796
102124
102028
101961
102091
101920
101877
101853
102130
102171
102123
102765
102157
102155
101679
101741
101718
101678
101582
101704
101780
102147
102126
102076
102026
101997
101945
101888
101826
102176
102174
102081
102397
102206
102201
101687
101751
101653
101561
101638
101622
101793
102178
102159
102099
102063
101991
101958
101885
101838
102221
102207
101997
102563
102230
102236
102212
101684
101737
101642
101542
101617
101663
101773
102194
102163
102136
102058
102014
101943
101864
101911
101814
102261
102295
102275
102265
103024
102272
102292
102251
101662
101704
101748
101617
101503
101600
101707
101784
102235
102218
102155
102091
102008
101958
101877
101905
101821
102293
102280
102325
102192
102725
102315
102335
102293
101663
101701
101726
101612
101566
101587
101746
101768
102256
102206
102256
102131
102074
102040
101983
101923
101856
101801
102327
102304
102306
102074
102399
102305
102339
102375
102331
101681
101642
101724
101619
101589
101550
101775
101512
101742
101780
102303
102229
102294
102150
102102
102022
101990
101929
101857
101811
102367
102364
102340
102196
102460
102550
102384
102403
102403
102385
101680
101640
101699
101606
101574
101559
101593
101509
101738
101757
102329
102285
102218
102311
102137
102191
102075
102036
101965
101913
101833
101883
101794
102407
102396
102367
102375
102354
102543
102460
102445
102411
101657
101619
101698
101591
101537
101543
101563
101717
101753
102377
102299
102259
102361
102162
102201
102084
102012
101974
101925
101842
101866
101804
101771
102439
102411
102371
102127
102329
102289
102466
102496
102480
102470
101659
101607
101676
101576
101534
101510
101393
101638
101714
101731
102392
102335
102238
102382
102156
102052
102122
102019
101952
101904
101825
101877
101787
101751
102429
102473
102434
102386
102280
102362
102423
102521
102551
102510
102535
102484
101640
101619
101586
101676
101557
101521
101522
101411
101510
101693
101733
102445
102340
102373
102257
102442
102194
102052
102119
101996
101962
101903
101840
101862
101797
101759
102483
102521
102432
102493
102232
102362
102612
102020
102603
102578
102591
102539
101640
101604
101572
101657
101543
101524
101498
101440
101401
101438
101693
101713
102385
102310
102419
102239
102486
102179
102025
102086
102144
102002
101949
101924
101874
101822
101779
101746
102566
102475
102527
102349
102424
102479
101780
102632
102637
102590
102609
102536
101618
101585
101550
101655
101505
101468
101422
101392
101387
101672
101707
102408
102317
102470
102271
102212
102033
102065
102147
101971
101911
101865
101834
101755
101779
101725
102581
102478
102521
102402
102430
101881
102361
102694
102699
102652
102682
102589
101614
101570
101540
101635
101499
101447
101428
101344
101414
101672
101688
102469
102360
102511
102255
102187
102012
102083
102122
101960
101929
101881
101823
101740
101750
101798
101707
102640
102516
102569
102381
102495
102489
102315
102730
102737
102724
102707
102650
102705
102576
101601
101546
101569
101517
101633
101477
101457
101412
101378
101367
101650
101690
102487
102363
102275
102203
102022
101979
102051
102134
101916
101869
101841
101717
101746
101788
102636
102572
102397
102514
103051
102381
102813
102806
102811
102755
102696
102766
102622
101599
101580
101539
101550
101511
101615
101478
101440
101415
101363
101356
101322
101650
101671
102552
102463
102411
102321
102246
102176
101985
101965
102063
102105
101935
101887
101828
101703
101764
101727
101804
102699
102628
102445
102384
102551
102407
103741
102405
102854
102838
102850
102830
102750
102713
102817
102764
102692
102597
101584
101572
101526
101546
101495
101607
101464
101445
101402
101394
101345
101328
101634
101667
102557
102503
102397
102319
102268
102196
101974
102036
102116
101918
101871
101845
101708
101683
101755
101721
101791
102701
102619
102450
102401
102546
102176
103084
102420
102929
102906
102912
102886
102817
102790
102886
102830
102737
102647
101581
101556
101516
101528
101499
101617
101591
101465
101415
101383
101322
101294
101638
101651
102603
102481
102352
102432
102245
102161
101935
101994
102050
102086
101886
101828
101691
101668
101770
101736
101698
101804
102763
102686
102394
102464
102601
102175
103385
102422
102987
102964
102969
102962
102950
102872
102835
102893
102830
102808
102711
101567
101555
101521
101488
101602
101583
101456
101417
101386
101318
101323
101622
101653
102632
102492
102350
102437
102262
102166
101918
101973
102023
102097
101868
101839
101675
101764
101727
101691
101780
102765
102686
102349
102439
102565
102101
102689
102286
103077
103031
103028
102981
102992
102926
102911
102963
102897
102847
102752
101563
101543
101532
101505
101490
101591
101609
101570
101461
101434
101400
101365
101228
101289
101316
101626
101639
102595
102712
102528
102315
102401
102240
102136
102205
101885
101931
101990
102032
102065
101819
101657
101743
101707
101670
101785
102831
102741
102276
102369
102488
102619
101784
102305
103255
103139
103096
103035
103100
103058
103061
102964
102965
102896
102921
102824
101550
101519
101505
101477
101575
101597
101567
101452
101435
101407
101368
101244
101305
101329
101614
101642
102625
102752
102493
102317
102401
102267
102145
102186
101859
101927
101960
101999
102074
101824
101657
101729
101696
101665
101768
102844
102820
102701
102244
102315
102444
102583
101984
102278
102723
103231
103143
103174
103100
103109
103105
103080
103037
103041
102967
102957
102862
101544
101520
101495
101482
101575
101602
101585
101554
101456
101423
101392
101352
101333
101615
101625
102580
102692
102819
102528
102445
102355
102251
102119
102206
101855
101905
101963
101994
102056
101808
101640
101706
101740
101680
101652
101778
102954
102876
102740
102168
102297
102508
102369
102666
102250
102293
102565
103250
103306
103228
103172
103105
103179
103186
103165
103074
103050
103036
102937
102853
101534
101510
101498
101471
101565
101591
101576
101550
101446
101429
101401
101361
101324
101596
101624
102597
102697
102833
102485
102439
102355
102273
102129
102203
101873
101820
101907
101939
102018
101950
102081
101630
101685
101714
101674
101637
101656
101762
103010
102828
102987
102064
102183
102484
102357
102665
101900
101951
103137
103328
103302
103386
103230
103242
103193
103230
103232
103149
103111
103064
102994
102921
101526
101514
101490
101474
101556
101567
101581
101540
101453
101419
101383
101360
101590
101612
102649
102548
102754
102910
102808
102496
102395
102316
102237
102166
101836
101813
101882
102001
101926
102070
101615
101686
101713
101621
101640
101736
101781
103088
102859
103040
101941
102133
102507
102283
102587
102772
101607
101888
101839
102103
103393
103342
103371
103472
103290
103313
103224
103285
103247
103287
103195
103179
103123
102986
101532
101510
101490
101467
101547
101559
101571
101541
101443
101429
101409
101574
101599
102660
102556
102721
102952
102846
102447
102397
102300
102250
102161
101842
101890
102027
101967
101931
102095
101600
101667
101687
101622
101601
101642
101716
101764
103163
102919
103121
102991
101841
101988
102195
102402
102608
102793
101523
101663
101641
101259
102008
103473
103455
103455
103363
103562
103366
103320
103360
103334
103373
103267
103185
103231
103106
103035
101525
101502
101517
101485
101472
101551
101560
101568
101534
101452
101567
101590
102612
102508
102748
102954
103012
102819
102919
102454
102364
102322
102240
102131
102204
101824
101866
102010
101951
101902
102072
101667
101688
101601
101592
101624
101726
101773
103178
102909
103170
103098
101880
101640
102029
102164
102397
102720
102522
101656
101527
101336
101762
103554
103504
103517
103434
103639
103459
103369
103427
103390
103431
103326
103250
103304
103159
101528
101500
101513
101486
101472
101543
101553
101555
101532
101576
101554
102620
102511
102719
103025
103069
102871
102946
102411
102372
102270
102139
102183
101836
101796
101872
102036
101973
101912
102096
101645
101666
101593
101576
101604
101625
101719
101736
103296
102958
103263
103109
101771
101481
101948
102193
102292
102763
102540
101494
101368
101377
101565
103627
103582
103500
103603
103721
103656
103513
103448
103487
103475
103516
103402
103324
103228
103337
103137
101524
101496
101509
101520
101486
101475
101536
101545
101546
101527
101565
101547
101545
102557
102666
102465
102759
103054
102878
103008
102416
102328
102272
102206
101807
101785
101839
102026
101956
101899
102089
101642
101665
101568
101566
101562
101591
101599
101688
101732
103345
102881
103044
103280
103204
101616
101836
101304
101493
102078
102310
102714
102430
102630
101435
101234
101213
101349
103710
103637
103616
103556
103627
103816
103756
103518
103450
103561
103547
103558
103455
103385
103278
103173
101494
101506
101518
101489
101531
101537
101536
101525
101550
101534
101531
102545
102644
102463
102695
102815
103125
102945
103038
102385
102318
102251
102178
101808
101756
101834
102052
101983
101926
101864
102124
101616
101632
101560
101549
101545
101572
101596
101680
101703
103432
102936
103088
103400
103220
101619
101773
101143
101340
102072
102219
102777
102488
102612
101111
100965
101093
101084
101141
103803
103761
103703
103697
103887
103830
103766
103614
103518
103630
103634
103522
103641
103405
103353
103242
101502
101514
101520
101526
101532
101527
101525
101545
101523
101525
102572
102498
102603
102430
102688
102798
103145
103015
102926
102395
102344
102271
102198
101777
101751
101795
102033
101927
101894
101837
102113
101610
101628
101540
101543
101530
101555
101571
101650
101696
103501
103454
103038
102870
103447
103286
101499
101763
101197
100974
101361
101948
102224
102725
102446
100927
100799
100941
100892
101060
103887
103810
103706
103702
103966
103916
103860
103618
103703
103553
103709
103641
103495
103372
103276
101520
101524
101525
101521
101521
101529
101512
101513
102534
102478
102602
102426
102632
102735
102853
103206
103074
102999
102372
102327
102250
102184
101769
101719
101782
102060
101953
101912
101862
101803
102151
101581
101597
101538
101530
101524
101517
101555
101563
101644
101667
103594
103574
103074
102960
103560
103385
103249
101598
101836
101075
100867
100921
101247
101997
102093
102318
102747
102532
100714
100585
100804
100757
100882
103971
103901
103800
103768
104034
103988
103942
103846
103702
103779
103564
103792
103716
103492
103435
103270
101520
101521
101512
101520
101495
101507
101509
102545
102499
102445
102393
102614
102705
102853
103197
103146
103006
102349
102278
102219
101739
101713
101749
102022
101966
101980
101902
101804
102115
101574
101590
101520
101501
101513
101498
101526
101529
101613
101659
103693
103626
103148
102943
103601
103475
103351
101542
101771
101079
100670
100770
101268
101900
102089
102287
102851
102649
102496
100588
100507
100430
100714
100556
100727
104007
103978
103894
103805
104123
104078
104026
103921
103861
103663
103784
103867
103568
103434
103348
101517
101516
101509
101517
101491
101486
101493
101499
102506
102487
102444
102381
102582
102735
102933
102793
103297
103164
103082
102331
102253
102233
101729
101683
101727
102020
102061
101858
101980
101989
101853
101753
102140
101545
101557
101503
101492
101500
101487
101514
101518
101601
101627
103783
103764
103136
103027
103677
103453
103337
101387
101653
100922
100495
100699
101114
101963
102160
102357
102875
102778
102517
100392
100238
100220
100679
100517
100578
104148
104083
103994
103898
104153
104194
104102
104045
104002
103904
103701
103846
103922
103641
103516
103415
101515
101511
101502
101469
101475
101492
101496
102501
102505
102385
102384
102361
102536
102605
102675
102936
102798
103331
103251
103086
102277
102294
101692
101673
101683
102023
102077
101701
101841
101757
101716
101670
102028
101535
101549
101481
101470
101472
101486
101480
101582
101624
103892
103838
103237
103004
103644
103785
103533
103482
101367
101617
100765
100963
100383
100508
101221
101918
102114
102256
102794
102338
102596
100186
100136
100118
100118
100501
100369
100464
104218
104090
103995
104238
104316
104203
104161
104046
104007
103807
103881
104016
103669
103550
103462
101510
101507
101501
101466
101461
101467
101478
101491
102444
102482
102360
102453
102351
102493
102570
102708
102852
103001
103403
103263
103148
102323
102109
101664
101640
101541
102104
102037
101642
101819
102209
101634
101647
101943
101513
101496
101461
101455
101454
101463
101462
101470
101579
101608
103982
103950
103214
103056
103731
103881
103512
101461
101684
100669
100846
100200
100394
100500
101147
101795
102015
102971
102706
102294
102568
100084
99911.6
99938.8
99911.4
100478
100240
100340
104308
104195
104092
104303
104262
104404
104247
104154
104072
103830
103995
104056
103750
103615
103471
101497
101451
101445
101471
101455
101481
101488
102409
102465
102383
102482
102418
102549
102413
102423
102501
102596
102678
102831
102989
103430
103385
103223
103360
103086
102019
101652
101481
102394
102184
101897
102222
102516
101897
101777
102463
101489
101486
101441
101428
101438
101420
101440
101478
101534
101576
104075
103986
104035
103292
103700
103850
103995
103615
103409
101416
101579
100687
100841
100070
100219
100349
101294
100971
101815
101981
103014
102793
102448
102160
102716
99854
100119
99791.6
99829.9
99851.6
99840.2
100266
100156
100196
100273
104292
104390
104203
104400
104356
104419
104496
104347
104232
104176
103916
104031
104168
103740
103640
103598
101441
101435
101456
101449
101479
101483
102447
102460
102406
102499
102232
102231
102371
102357
102458
102528
102726
102899
103493
103276
103435
103102
102545
101585
101988
102824
102169
101873
101767
102964
101425
101558
101424
101419
101418
101424
101410
101434
101451
101570
104175
104139
104171
103246
103855
103932
104104
103648
103507
101665
100548
100683
99916.7
100204
100385
101266
100950
102024
102913
103131
102453
102177
102786
99682.8
99890.2
99594.9
99668.7
99643.2
99637.1
99939.7
100096
100165
104407
104500
104306
104488
104418
104585
104601
104393
104332
104229
103894
103993
104140
104218
103802
103642
101427
101414
101460
101437
101466
102462
102470
102384
102264
101957
102257
102036
102337
102385
102388
102525
102693
102888
103562
103398
103232
103551
103165
103031
102693
101681
101514
101548
101562
101412
101404
101389
101410
101379
101253
101500
101673
104295
104222
104240
103356
103881
104080
103753
103478
101616
100545
100657
99823.8
100041
100257
101324
101073
100788
101888
102932
103162
102569
102300
102024
102735
99496
99691.3
99519
99495.4
99544
99499
99524.4
99650.3
99817.3
100175
99858.4
100050
104432
104635
104590
104542
104680
104712
104528
104379
104339
103965
104071
104187
104330
103778
103710
101413
101404
101433
101422
102225
102376
102213
102503
102767
102612
102207
102333
102339
102602
102428
102772
102954
103447
103325
103630
103133
103262
101657
101609
101391
101405
101392
101383
101297
101389
101191
104381
104348
104354
103319
103983
104152
103726
103577
101450
101740
100391
100483
99871
100006
100099
101212
101037
100758
103061
102527
102275
101969
102820
99359
99562.8
99316
99315.9
99373
99350.1
99363.3
99483
99661.9
100027
99749.4
99828.6
104542
104694
104707
104613
104819
104831
104579
104498
104400
104052
103941
104277
104351
104406
103859
103703
101399
101387
101403
102099
102131
102220
102614
102729
102695
102185
102219
102121
102338
102590
102461
102754
102927
103513
103334
103650
103148
101382
101377
101357
101378
101327
101341
104500
104448
104456
104378
103387
104075
104008
104260
103800
103531
101505
101692
100346
100444
99687.8
99816.2
100045
101227
100894
100593
103091
102387
102715
102109
101799
102962
99353.4
99182
99405.4
99593.5
99222.9
99222.7
99227.7
99191.9
99314.6
99504.5
99514.9
99785.5
100085
99624
99371.2
104661
104823
104795
104733
104906
104927
104711
104527
104117
104014
104299
104455
104532
103819
101382
101374
101391
102594
102791
102776
102058
103166
102123
102110
101898
102250
102652
102417
102827
103014
103476
103593
103296
103786
103222
101349
101358
101313
101413
101457
101317
104578
104594
104535
103319
104199
104189
103933
104321
103688
101392
100173
100265
99774.6
99891
101057
100866
100556
102347
102747
102127
101738
103028
99114.8
99043.4
99294.1
99390
99055.1
99025.6
99076.4
99033.8
99135.9
99363.6
99337.5
99524.7
99707.9
100002
99593.5
99572.7
104781
104914
104901
104797
104785
105029
105053
104743
104634
104198
104031
104419
104269
104536
104484
104642
103871
101355
101355
101348
103148
103359
102793
102107
102128
101615
102237
102617
102502
102321
102807
102993
103534
103684
103369
103833
103185
101299
101341
101257
101499
101394
104680
104637
104689
104567
104620
103375
104281
104014
104439
103726
101377
100120
100225
99566.8
99797.5
101090
100709
100369
102407
102589
102918
102005
101521
101833
103209
99044.7
98886.8
99146.2
98934.9
98978.8
98933.2
98863.3
99069.6
99407.4
99169
99220.9
99360.9
99677.3
99753.2
99477.9
99477.7
104923
104777
105055
104999
104941
104920
105117
105116
105092
104871
104155
103995
104473
104350
104653
104612
104741
101344
101348
102851
102039
102025
101708
102168
102115
102694
102474
102294
102890
103081
103470
103641
103309
103918
101335
101317
101235
101293
104798
104815
104723
104789
103490
104251
104432
103902
104154
103614
101223
99925.2
100042
99630
100936
100661
100331
102309
102739
102942
102095
101530
101732
103300
98916.6
98803
98784.6
99105.4
98768
98771.9
98765.8
98726.7
98837.2
99261
99071.1
99194.9
99136.7
99372.4
99240.6
99632.7
99795.1
99512.8
99775.1
105044
104934
105181
105039
105020
105281
105266
105219
104991
104838
104224
104054
104574
104342
104750
104664
101326
101323
101957
102027
101989
102125
101914
102354
102168
102009
102663
102365
102553
102863
103077
103539
103683
103334
104011
103902
101371
101267
101304
101232
104886
104950
104842
104724
103497
104389
104548
103949
104209
103804
101180
99894.6
99974.5
99496.5
100776
100463
100115
102377
102714
103057
101971
101408
101773
103232
98811.1
98913.3
98610.2
98630.5
98649.1
98671.8
98696.9
98634.5
98539.9
98757.3
99103.5
99307
98863.5
99046.3
99031.5
99262.3
99117.9
99673.8
99450.5
105049
105167
105312
105147
105159
105405
105316
105379
105111
104944
104196
104604
104438
104854
104778
101307
101318
101855
101869
101860
102399
101799
102119
101910
102742
102322
102515
102944
103145
103522
103747
103239
103453
104124
103837
104074
101259
101279
105041
105088
104998
104826
103621
104516
104393
104118
103802
101243
99681.1
99791.8
99496.3
100718
100364
100117
102238
102547
102854
103005
102038
101413
101609
103319
98617.1
98833.8
98540.8
98491.1
98529.7
98478
98511.5
98498.2
98446.1
98439.1
98545.5
98953.7
99151.3
98790.8
98965.7
98911.1
99318.6
99134.9
98994
105198
105280
105445
105203
105248
105542
105424
105500
105251
105076
104286
104554
104763
104399
104898
101287
101769
101845
101760
101991
102212
102015
101773
101916
102708
102404
102600
102902
103088
103666
103287
103490
104262
103910
104136
101284
105120
105214
105068
104674
104952
103589
104510
104173
103900
101137
99700.4
99338.3
100809
100471
99964.4
102275
102607
102829
103201
101918
101285
101690
103470
98584.3
98722.1
98388.5
98290.1
98375.8
98262.2
98387.5
98426.5
98358.7
98224.2
98251
98448.4
98955.4
99157.7
98595.7
98847.4
98830.4
99058
98904.6
105249
105400
105562
105460
105363
105375
105653
105506
105629
105371
105150
104635
104857
104507
105025
101307
101644
101810
101646
102136
102171
102033
101654
101792
102794
102359
102569
102985
103184
103709
103393
103619
104362
104037
103832
104242
105266
105352
105047
105298
104674
104987
103823
104479
104335
104055
100969
99759.1
99450.6
99317.5
100701
100368
100008
102139
102472
102926
103224
101954
101226
101581
103551
98467.4
98709.7
98234.2
98187.9
98266.5
98183.9
98221.5
98168.3
98083.7
98263
98784.5
98983.8
98592
98754.3
99174.4
98945.2
99106.2
98784.3
98897.2
105401
105482
105704
105631
105463
105495
105812
105701
105737
105530
105380
105101
105293
104769
104985
104515
105043
101577
101778
101633
101506
102585
102231
101951
101522
101676
101774
102772
102451
102667
102966
103174
103410
103651
104342
104083
103879
104241
105388
105495
105283
105427
104813
105158
103880
104641
104370
104195
101008
99602.4
99410.5
99083
100516
100863
100158
99792.8
102140
102612
103093
102829
103418
101753
101252
101412
103721
98369
98500.2
98617
98074.2
98021
98081.6
98273.1
98012.9
98102.8
98142.9
98015.4
97951.9
98162.3
98810.9
98914.8
98406.3
98626
98859.7
99010.2
98705.6
98769.5
105648
105848
105714
105610
105890
105901
105826
105679
105538
105223
105352
104811
105066
104639
105215
101341
101641
101545
101353
102293
102169
101835
102022
101385
101553
101612
102854
102412
102672
103047
103275
103540
103788
104472
104022
104326
105622
105651
105338
105586
104808
105150
104141
104603
99590.5
99237.6
99057.3
100430
100786
100108
99885.2
101835
102161
102599
103154
102996
103498
101683
101046
101471
103735
98272.9
98389.7
97930.5
97903.6
97911.7
97930.4
98073.5
97853.1
97913.8
97945.2
97825.9
97854.9
97953.1
98214.2
98622.6
98722.5
98437.3
98517.7
98757.4
98926.3
98609.6
98679.5
105727
105949
105867
105759
106036
106082
105986
105821
105650
105578
105480
104751
104955
105236
104614
105320
101194
101450
101330
101212
101923
102255
101751
101955
101424
101260
101529
102818
102499
102603
103008
103257
103554
103832
104450
104079
104290
105693
105729
105503
105696
104979
105310
104219
104677
99408.6
99201.6
98853.1
100210
100574
99785.6
101892
102253
102934
102455
103365
101098
101354
103847
98153.4
98396.6
97759.2
97673.5
97712.1
97945.8
97769.4
98026.9
97809.8
97666.3
97826.3
97871.4
97668.7
97635.8
97811
98047.6
98604.4
98287.6
98524.7
98678.6
98709.4
98877.6
98574.9
105880
106120
105947
105857
106152
106074
106210
106058
105946
105786
105726
105482
104869
105023
105335
105269
104731
101012
101409
101241
101057
101787
102192
101804
101592
101999
101307
101135
101367
102873
102450
102696
103051
103341
103139
103439
103647
103971
103747
104542
104209
104442
105873
105941
105662
105507
105918
104993
105274
104048
104370
104523
104883
99401.5
98984.8
98651.7
98814.1
100101
100488
99551.3
99884.7
101789
102226
102954
102715
103462
100910
101370
103774
98159.3
98288
97584.9
97548.9
97773.3
97639.2
97896.7
97494
97480.9
97608.1
97649.4
97516.7
97455.4
97845.4
97625.2
98095.5
98370.7
98398.8
98543.4
98611.8
98786.2
98483.7
105982
106208
106105
106039
106350
106283
106417
106252
105906
106100
105815
105633
104865
105151
105518
105425
104737
100926
100927
101168
101038
100947
100991
101537
102321
102075
101693
101496
101881
101141
101287
102810
102533
102654
102923
103282
103148
103482
103617
104008
103869
104650
104257
104494
105994
106058
105909
105681
106076
105400
104225
104425
104781
104983
99174.2
98982.1
98431.2
98595.1
100205
100558
99535.8
99754.4
101974
101524
102385
103136
102667
103351
101151
100698
103911
98054.2
98292.4
97440.6
97386.5
97665.1
97745.1
97488.9
97912
97355.2
97270.5
97532.9
97486.9
97309.4
97338.3
97621.1
97442.7
97903.2
98202.9
98391.6
98512.7
98466
98604.1
106172
106380
106182
106433
106491
106513
106362
106015
106161
106202
105787
106008
104993
105172
105576
105433
104911
100651
100721
101064
100967
100743
100852
101299
102294
102052
101759
101564
101350
101917
101012
101130
102460
102769
102914
103370
103048
103695
104135
103853
104670
104419
106211
106232
106080
105933
105612
106257
105330
104231
104588
104798
105182
99125.8
98778.1
98247.7
98562.2
100046
100320
99335.3
99809.1
101881
101447
102266
103195
102728
103544
101102
100681
103771
104104
98070.8
98185.6
97253.7
97218.8
97512.6
97615.3
97394
97812.5
97155.4
97108.4
97326.6
97287.9
97154.4
97145.8
97671
97408.4
97269.1
97963.8
98304.9
98415.7
98330
98684.1
98515.3
106331
106460
106590
106697
106716
106537
106333
106396
105904
106143
105115
105314
105734
105582
104980
100497
100627
100975
100751
100523
100769
101073
102145
101670
101483
101244
101809
101035
100844
101090
102488
102752
103348
103060
103630
104141
103955
104761
104475
106354
106364
106338
106110
105735
106419
105584
104529
104961
105227
98914
98729.2
98095.4
98287.2
100077
100474
99404.7
99657.8
101639
102051
101210
102513
103076
103485
102879
100844
103969
104190
97972.5
98197.1
97116.7
97042.8
97452.5
97622
97497.6
97279.4
97708.6
97854.1
97022.3
97068.4
96955
97190.4
96939.7
97016.3
97532.8
97197.4
97059.2
97785
98314.7
98416.5
98269.6
98502.6
106688
106701
106634
106852
106853
106554
106644
106415
105874
106085
106316
105207
105363
105729
105522
104924
105172
100334
100433
100412
100783
100627
100448
100564
100907
102097
101531
101318
101789
100879
100725
100979
102361
102624
102907
103476
103190
103756
104257
103912
104660
104396
106605
106595
106445
106302
106039
105901
106602
105699
104654
104908
105424
98831.8
98484.6
97828.8
98046.3
98087.4
99883.2
100388
99249.5
99627.4
101583
101973
101092
102494
103243
103604
102894
100814
103904
104385
97986.2
98103.9
97157.9
96937.1
96901.6
97255
97431.5
97379.1
97636.7
97745.5
96851.5
96836.6
96786.1
96859.1
96939.2
96798.7
96821.4
97277.9
97590.3
96999.4
97139.6
96885.3
98213.4
98325.8
98131.8
98414.1
106804
106910
106852
107056
107047
106709
106814
106620
106047
106220
106429
105866
105576
105027
105298
100188
100268
100245
100379
100654
100225
100498
100761
101907
102167
101435
101237
101619
100861
100565
100939
102252
102522
102654
102906
103452
103179
103712
104200
104032
104747
104509
106717
106674
106464
106320
105966
106777
105637
104580
105030
105399
98992.4
98610.2
98423.1
97601.6
97748.8
97926.8
99951.1
100600
100166
99414.4
101735
101314
102216
101104
102707
103146
103477
104027
104439
97874.3
96958.6
96828.8
96708
97151.3
97388
97230.2
97528.1
97753.2
96708.7
96702.7
96569.8
96654.6
96602
96682.3
97203.7
97406.2
96723.8
96883.4
96655.6
98232.2
98106
98342.4
98048.2
98372.5
106999
107081
106987
107206
107126
106871
106767
106649
106209
106027
106381
105856
105747
105465
105226
104926
100023
100021
100135
100194
100505
100150
100104
100292
100548
101900
102060
101457
101092
101630
100699
100472
100740
100976
102259
102508
102768
103038
103555
103311
103839
104324
103994
104649
104460
106910
106807
106785
106716
106403
106180
107055
105818
104855
105259
105686
98974.7
98503.5
98145
97404.7
97660.4
97924.2
99717.3
100599
100090
99270.4
101652
101365
102181
100861
102655
103241
103599
104267
103877
104846
97894.2
96943
96681.8
96556.2
97274
97119.5
97514.8
97635.4
96512.6
96520.2
96444.6
96515.4
96456.8
96513.8
96988.2
96546.4
96688.8
96812.6
96468.4
98180.9
98024.9
98252
98258.6
107023
107116
107293
107183
107389
107434
107103
106995
106798
106385
106175
106519
106058
105802
105558
105332
104997
99945
99940.8
99904.5
100277
100005
100517
99959.6
99886.4
100286
100418
101780
102110
101333
101080
101496
100527
100595
100827
102362
102601
102744
103030
103491
103305
103804
104283
104116
104719
104590
107076
107026
106850
106645
106187
107252
106000
105445
105818
98812.3
98547.9
98198.3
97198.4
97414.4
97671
99833.6
99392.2
100351
101638
101152
101871
102414
100862
102882
103119
103476
104399
103986
104933
97824
96849.7
96555.9
96585.6
96393.6
97276.8
97133.6
96946.2
97419.4
97605.7
96314.3
96333.8
96279.9
96274.4
96226.8
96372.9
96949
96348.3
96466.9
96555.7
96237
98065.2
97903.5
98216.4
107319
107370
107500
107284
107549
107635
107159
107038
106952
106695
106461
106347
106151
105965
105503
105268
104843
105141
99778
99757.9
99724.6
99903.7
100083
99833.6
100358
99924.6
99808.4
99725.6
100164
100356
101819
102013
101376
101163
100907
101465
100417
100624
102366
102562
102881
103179
103525
103673
103951
104385
104078
104616
107262
107201
107085
106699
106484
107438
106077
105382
105744
98766.6
98263
97980.5
97181
97369.3
97436.2
97723.6
99653.8
99265.3
100395
101377
101957
102359
100668
102960
103364
103540
104240
104698
103782
105160
97740.8
96738.6
96381.2
96625
96362.9
96241.4
97163.3
96996
96820
97440.3
97658.8
96155.9
96162.1
96175.6
96150.4
96053.2
96187.1
96685.6
96234.3
96390.2
96272.7
96476.3
96057.2
98020.8
97822.6
98111.7
107501
107605
107648
107488
107777
107799
107388
107275
107056
106781
106691
106405
106138
105910
105611
105449
104834
105149
99671.6
99658.6
99571.5
99659.4
99949.2
100129
99660.8
99742.6
99993.9
99600.8
99514.9
100146
100158
101694
102022
101219
101073
100781
101535
101261
100255
100515
102268
102593
102874
103193
103370
103725
103943
104265
104544
107485
107253
107432
107174
107010
106546
107632
106278
105654
105969
98419.5
98836.3
98001
96909.5
97068.1
97267.8
97495.5
99719.9
99040.2
100173
101281
101782
102429
100635
103306
102813
104335
104788
103863
105244
97701.2
96674.3
96250.1
96443.9
96254.6
96077.2
97022.3
97186.3
96837.3
97391.7
97494.7
95989.4
95937.6