/*--------------------------------*- C++ -*----------------------------------*\
| =========                 |                                                 |
| \\      /  F ield         | OpenFOAM: The Open Source CFD Toolbox           |
|  \\    /   O peration     | Version:  v2012                                 |
|   \\  /    A nd           | Website:  www.openfoam.com                      |
|    \\/     M anipulation  |                                                 |
\*---------------------------------------------------------------------------*/
FoamFile
{
    version     2.0;
    format      ascii;
    class       surfaceScalarField;
    location    "0.9";
    object      phi;
}
// * * * * * * * * * * * * * * * * * * * * * * * * * * * * * * * * * * * * * //

dimensions      [0 3 -1 0 0 0 0];
oriented        oriented;


internalField   nonuniform List<scalar> 
21888
(
0.507393
-0.514368
-0.370059
0.877452
-0.56029
0.0459215
-0.692066
0.322007
0.631041
0.246411
-0.565571
-0.646144
0.807427
-0.485421
0.623335
-0.330096
0.576506
-0.0296733
-0.535897
-0.519197
-0.126947
0.477332
0.328045
-0.813466
0.688942
-0.065607
0.536917
0.0395891
-0.54887
-0.541096
0.397466
-0.524413
0.505207
-0.0278754
0.799094
-0.471049
-0.416
0.681307
0.47131
0.544796
0.00178499
-0.550655
0.00892668
-0.550022
-0.535415
0.0110026
-0.659436
0.63156
0.139659
0.216987
-0.688037
-0.508206
0.0922064
0.14324
0.538066
-0.388026
0.859336
0.15677
-0.53363
-0.541729
-0.555277
-0.497204
0.591553
0.040007
-0.569886
0.709544
0.667449
-0.450461
-0.528036
-0.160001
-0.43583
-0.413146
0.556387
0.529388
0.44619
0.748324
-0.541226
0.00759576
-0.0261763
-0.515552
0.132554
-0.687831
-0.543669
0.0464655
-0.59411
0.634117
0.0975628
0.115434
-0.516972
0.066511
-0.676973
-0.584631
0.148802
0.0454615
0.510925
0.0027448
0.526643
0.52998
-0.0837896
0.705581
0.0427426
-0.567402
-0.536073
-0.382998
-0.692272
-0.538166
0.651002
-0.0168845
0.701732
-0.604169
-0.530673
0.646108
0.552482
-0.485971
-0.528171
0.575441
0.51367
0.517244
0.621791
0.693744
-0.367909
-0.199494
0.0516368
-0.58771
-0.750907
-0.0958194
-0.596452
-0.560258
0.0220925
-0.523458
0.506574
0.171059
-0.0516869
0.122649
0.0576578
-0.543629
-0.614127
0.0859559
0.051313
0.524128
0.0369913
0.476679
-0.0949229
0.612167
0.545562
0.0762291
0.618542
0.0752017
0.34382
-0.543314
-0.508621
-0.24389
-0.555719
-0.195188
-0.651539
-0.600909
-0.592035
0.749839
-0.243265
0.587249
-0.41619
0.453922
-0.505608
0.685011
-0.562362
0.553524
-0.495867
-0.706998
0.163369
-0.621042
0.596875
0.56112
0.381756
0.602111
0.694772
-0.408803
0.484005
-0.581224
0.0379102
-0.372625
-0.135997
-0.616515
-0.776412
-0.525134
-0.126405
-0.0374544
-0.563454
-0.535654
-0.0563809
0.341036
0.441746
0.0248868
-0.751066
0.334876
-0.297145
0.0479158
-0.332497
-0.579072
-0.0419706
0.107299
0.489576
0.31491
0.24621
0.696666
-0.289839
0.891951
0.43701
0.257762
0.717792
-0.233787
-0.578605
-0.67165
-0.446888
-0.329524
-0.562588
-0.573293
-0.567765
-0.635453
0.515094
-0.174059
0.686564
-0.244818
-0.669543
0.694429
-0.334667
-0.587776
0.290631
-0.53986
-0.637932
0.305435
0.594459
-0.636429
0.544309
0.735786
0.406826
0.309865
0.582085
-0.373959
0.63172
0.343834
0.281307
-0.722051
0.143447
-0.576449
-0.0952015
0.290144
-0.619668
-0.540855
-0.0217328
-0.0310584
-0.542234
0.0664423
-0.634208
-0.567176
-0.0682766
0.512506
-0.666119
0.421302
0.0283101
-0.646632
0.311965
-0.356001
-0.599319
0.0594591
-0.0434735
-0.293884
-0.57532
-0.0611092
-0.164717
0.709026
0.363278
0.372508
0.770104
-0.394647
0.704512
0.570277
0.467003
0.768376
-0.424542
-0.362309
0.643615
-0.431908
-0.433002
-0.662378
-0.650726
-0.474413
-0.563967
-0.638355
-0.643597
0.150197
-0.406432
0.827734
0.666312
-0.638002
0.790986
-0.47902
0.248666
-0.604667
0.555071
-0.495612
0.675482
-0.718955
0.381597
0.549312
-0.610421
0.316304
0.392722
0.688813
0.375457
0.361422
0.34309
0.166937
0.403339
-0.190678
0.657682
0.577697
0.219073
0.33203
-0.763937
0.284053
-0.717055
-0.378325
-0.156557
-0.49417
0.367583
-0.841996
-0.196384
-0.476216
-0.16214
-0.643028
-0.000568058
-0.369078
0.519275
0.259879
0.458655
0.152984
-0.69463
0.21561
-0.445964
-0.0495959
-0.114015
-0.169643
-0.631728
0.0213062
-0.214184
0.606906
0.35359
0.335223
0.729047
0.52836
-0.326221
0.669311
0.391028
0.443498
-0.0373802
0.615077
-0.479673
0.698746
-0.385026
-0.436378
-0.32756
0.290429
-0.668754
-0.592934
-0.690554
-0.374206
-0.46779
-0.481271
-0.536346
-0.352599
-0.632296
0.0396025
0.622592
-0.362713
0.534594
-0.0759386
-0.445768
0.598752
0.793579
-0.577969
-0.515532
0.069568
-0.565128
0.576822
-0.690837
-0.527976
0.358333
0.596191
-0.574885
0.395545
0.211361
0.730767
0.402826
0.143912
0.384448
0.245139
0.424172
0.53494
-0.0822451
0.525743
-0.74875
0.71137
0.532832
-0.0500043
0.32072
-0.705745
0.363897
-0.691457
-0.348034
0.0436549
-0.636589
-0.011318
-0.679236
0.103671
-0.57146
0.370716
-0.851987
-0.16563
0.282135
-0.634734
-0.350161
0.574196
0.72713
-0.104538
-0.648176
0.285463
0.651192
0.347812
-0.0494238
-0.614101
0.0361313
-0.544533
0.0116944
-0.757379
0.0665421
0.0682151
-0.399046
0.125519
-0.700405
0.737104
0.318906
0.411861
0.721732
0.629586
-0.185713
0.609884
0.524445
0.484549
0.226821
-0.0734306
0.606263
-0.618509
0.568505
-0.341848
-0.647802
0.34124
-0.689274
-0.647907
-0.575565
-0.737091
-0.236801
-0.615186
-0.293495
0.219463
-0.569623
-0.0443125
-0.661737
0.557199
-0.376274
0.488498
0.162694
0.621028
-0.273217
0.571605
-0.604436
0.640567
-0.559359
0.0148259
-0.547664
0.691574
-0.625031
0.557961
-0.489746
0.158915
0.669647
-0.544128
-0.480942
0.575948
0.161156
-0.20414
0.616001
0.536019
0.255114
0.374473
0.330454
0.27943
0.779558
0.411118
0.57479
-0.347969
0.470003
0.13626
0.763843
-0.195338
0.400462
-0.74231
-0.00352297
-0.644279
-0.288812
-0.0113909
-0.636516
0.0668996
-0.642465
-0.52348
-0.213611
-0.760281
-0.618576
0.371258
-0.664752
-0.198366
0.444185
-0.0895703
0.646769
0.195331
-0.403915
0.566609
-0.74131
0.468093
-0.572726
-0.0317101
-0.100742
-0.5579
0.143909
-0.539747
-0.0852847
0.179902
-0.380832
0.0864197
-0.630548
-0.529947
0.0490051
0.371808
0.631159
0.580356
0.0356453
0.498251
0.0377679
0.704927
0.777681
0.436147
0.343411
-0.0834245
0.494543
0.491366
0.415874
0.630803
-0.665742
0.470403
-0.518045
-0.224265
-0.521568
-0.65567
0.416102
-0.704914
-0.569616
-0.391261
-0.251204
-0.604872
-0.331558
-0.428723
-0.0308152
-0.58776
-0.248651
-0.728313
-0.221556
0.570718
-0.660288
0.242854
0.628302
-0.432972
0.345053
0.718707
-0.250614
-0.496172
0.464462
-0.742015
0.641273
-0.559568
0.00166805
-0.415659
0.467287
-0.552571
0.621515
-0.441613
0.240683
0.720797
-0.634377
-0.581543
-0.174331
0.546139
0.456828
0.618123
0.581785
0.381686
0.323242
0.401256
0.376425
0.426368
0.725097
0.613607
-0.122241
0.690188
-0.274314
-0.0618292
0.692632
0.733407
-0.263003
0.426963
-0.651228
0.219642
-0.74121
-0.0652524
-0.590418
-0.277951
-0.441519
-0.128097
-0.692723
0.113437
-0.718309
0.137499
-0.469056
-0.459538
-0.59081
0.431406
-0.680057
-0.296907
0.454433
0.116285
-0.031986
0.697287
0.285735
0.719892
-0.37484
-0.592766
0.342152
-0.605913
0.109742
-0.277553
0.0485069
-0.604245
-0.726676
0.311017
-0.25939
-0.311888
0.279184
-0.588948
-0.0454289
0.184247
-0.76579
-0.169846
0.626673
0.717506
-0.0993824
-0.0525711
0.634356
0.724498
-0.265757
0.642182
0.408598
0.364442
0.360655
0.551777
0.567947
0.459093
0.522787
0.456889
-0.431586
-0.806462
-0.718515
0.471757
-0.749708
-0.579286
-0.58081
-0.134196
-0.334861
-0.593734
0.124602
-0.715413
-0.208299
0.336658
-0.633564
0.722734
-0.606449
-0.658312
0.626326
0.322447
-0.372577
0.66812
-0.325968
0.621767
-0.512026
0.344214
0.608165
-0.559658
-0.293228
0.395821
-0.65521
-0.657867
0.345979
-0.378683
-0.404701
-0.567905
0.522476
-0.429132
0.574102
0.451749
0.534973
0.370564
0.353934
0.42593
0.216253
0.773041
0.731218
0.614551
-0.0627736
0.562906
0.00504103
0.700779
-0.241685
-0.141265
0.664052
0.782917
-0.326029
0.433563
-0.865149
-0.474076
-0.332386
-0.0566407
-0.661874
-0.316145
0.142511
-0.721797
-0.28093
-0.29988
-0.615791
-0.469132
-0.717639
0.516363
-0.724663
-0.117201
0.458476
0.264257
0.0198775
0.780923
0.295543
0.282197
0.132926
-0.644952
0.797773
-0.453559
0.238115
-0.683739
0.390511
-0.287918
-0.309232
-0.768385
0.389702
0.339883
-0.744585
-0.228022
-0.245909
-0.61606
0.186929
-0.0664552
0.640557
0.553963
-0.102214
-0.10341
0.638384
0.779864
0.770215
-0.105663
0.878704
0.625555
0.473286
0.500132
-0.430188
0.435229
0.270591
0.541232
0.597597
0.454895
-0.240397
-0.624752
-0.530716
0.2136
-0.545987
-0.519363
0.519424
-0.835569
-0.311699
-0.410098
-0.611579
-0.261979
-0.353811
-0.731111
-0.627022
-0.0906165
-0.205238
-0.733262
0.650797
-0.38654
0.649028
-0.629151
0.648778
-0.353235
0.675542
-0.393346
0.746382
-0.613456
-0.25444
0.292823
0.689356
-0.451242
0.425745
-0.713663
-0.699956
0.390724
-0.310254
-0.557656
0.493608
-0.721629
-0.667991
0.422082
0.537147
0.53617
0.212412
0.567452
0.476005
0.29421
0.333276
0.545428
-0.00753971
0.633095
0.720563
-0.247277
0.526911
-0.0267794
0.573561
-0.138332
0.454048
-0.183457
0.483312
0.0579201
0.0730551
0.524542
0.727695
-0.2728
0.381213
-0.62161
-0.411152
0.0832629
-0.613979
-0.462724
0.0908509
-0.610214
-0.454356
0.275932
-0.68603
-0.235841
-0.375738
-0.589652
-0.468043
-0.263068
-0.62902
-0.558659
0.529903
-0.735141
-0.203359
0.647995
0.00280254
-0.71764
0.3311
-0.0686113
0.0196269
0.322308
0.296011
-0.454685
-0.158771
-0.709125
0.713261
-0.420438
0.262019
-0.28338
-0.322939
-0.683963
0.373709
0.217212
-0.774868
-0.174384
-0.626964
-0.0946653
-0.261881
-0.0802407
0.617388
-0.189891
0.726061
0.688417
0.559912
-0.386616
0.680826
-0.273889
0.607166
0.527825
0.359205
0.368584
0.351978
0.279634
0.546781
0.315717
0.299854
-0.449795
0.507715
0.44164
0.444301
0.2779
0.375194
-0.225992
-0.395619
-0.637143
-0.523128
0.199443
-0.662167
-0.334282
0.230122
-0.684478
-0.22101
-0.46502
-0.596748
-0.444669
-0.144983
-0.707737
-0.672281
0.0432607
0.115648
-0.674307
-0.764154
0.0290125
0.391172
-0.594531
-0.671795
0.674598
-0.340695
-0.602298
0.533687
-0.646554
0.666181
-0.324246
0.74885
-0.45284
-0.680427
0.521656
-0.764043
0.343605
0.684998
-0.422979
0.452109
-0.735489
-0.709742
0.386803
-0.336033
-0.409752
-0.383696
0.499871
-0.674255
0.499542
-0.594208
-0.599523
0.337643
0.427497
0.339445
0.470036
0.218381
0.358014
0.201898
0.401208
0.279618
0.162175
0.44499
0.690001
0.71722
-0.0621269
0.414105
-0.24162
0.521254
0.305161
0.537399
-0.221683
-0.227263
0.527117
0.280452
-0.0060354
0.447675
-0.04199
0.486291
0.59971
-0.32181
-0.320385
0.69558
0.208117
-0.603736
-0.4377
-0.0618228
-0.461305
-0.72399
-0.795587
-0.534031
-0.476361
0.320702
-0.785722
-0.741731
-0.592089
-0.673767
-0.631047
0.614712
-0.5857
0.0201812
0.354213
-0.465326
0.124631
0.0638829
0.0683606
0.424604
0.232159
-0.228318
-0.242387
0.752053
-0.408448
0.329074
-0.348686
-0.684178
0.348145
0.366705
-0.776457
-0.581345
0.197649
-0.0996521
-0.174713
-0.227503
-0.346535
-0.127912
0.555409
-0.294863
0.634308
0.671935
0.619589
-0.271921
0.551539
-0.228879
0.673869
0.676049
0.488341
-0.537931
0.475804
0.40807
-0.0166766
0.419978
-0.114816
0.535927
0.00147215
0.305434
-0.241743
0.522195
0.405685
0.358379
0.357967
0.37377
-0.229335
-0.374402
-0.667035
-0.0906912
-0.633298
-0.474885
-0.69197
0.157939
0.0857746
-0.562135
-0.342187
-0.443535
-0.106934
-0.634797
0.0778483
-0.669938
-0.474859
-0.198908
0.150644
-0.78169
-0.682719
0.0970198
-0.561164
-0.361826
0.716039
-0.50064
0.625271
-0.542272
0.606155
-0.43228
0.659596
-0.234992
-0.38421
0.616369
-0.850575
0.622257
-0.577126
0.334739
-0.669884
0.261436
0.710621
-0.381547
-0.714859
0.366173
-0.366714
-0.578808
0.650439
-0.750091
0.482652
-0.657364
0.471151
-0.698654
0.303904
0.260546
0.362387
0.516211
0.155724
0.433676
0.185912
0.345205
0.206333
0.560198
0.11367
0.14177
0.534279
-0.0542296
0.542571
0.106294
0.36951
0.017256
0.390814
0.403301
0.421111
-0.488923
0.490395
-0.183488
0.338706
-0.0231121
0.428797
-0.103537
0.461916
0.554407
-0.19644
-0.329073
0.702843
0.181726
-0.556128
-0.613677
-0.0533579
-0.704368
-0.207787
-0.425511
-0.682672
-0.606196
-0.524781
-0.380409
0.255892
-0.598079
-0.55047
-0.556949
-0.519294
-0.47601
0.328357
-0.527265
-0.453333
0.666979
-0.569959
0.105815
-0.750948
0.389121
0.386966
-0.125676
0.117324
0.173875
-0.685158
0.450166
0.326411
-0.068789
-0.484402
0.0451311
-0.335145
0.78227
-0.520835
0.400723
-0.678188
0.311474
-0.650758
0.07195
-0.26744
-0.186213
-0.748624
0.0499701
-0.374284
-0.17183
0.432376
-0.117561
0.479948
0.461981
0.5894
0.531118
-0.197752
0.404085
0.701969
0.656241
0.518661
0.40651
-0.300216
0.386766
0.367702
0.505564
-0.102263
0.398085
0.0230258
0.44512
0.045275
-0.200505
0.539212
0.32526
0.290086
0.353902
0.506403
-0.609486
-0.27884
-0.425528
-0.704351
-0.426781
-0.365154
-0.241041
0.241127
-0.765908
-0.745563
-0.0875379
-0.510541
-0.638007
0.0930806
-0.650029
0.15855
-0.677844
0.32399
-0.203275
0.127462
-0.580795
-0.627525
0.057566
-0.544943
-0.322383
0.711504
-0.376376
0.763342
0.43292
-0.558596
-0.580081
0.697405
0.712054
-0.538179
-0.129916
0.665114
-0.338702
0.596325
-0.567351
0.0829487
0.584446
-0.539315
0.249301
-0.598882
0.0780478
0.614323
-0.2136
-0.255877
-0.676674
-0.720516
0.453076
0.394578
-0.580791
0.523628
-0.473658
-0.858561
0.484276
0.46418
-0.0318038
0.346619
0.282196
-0.173892
0.635873
0.415508
0.0657348
0.465383
0.375275
0.0288102
0.199443
0.502526
-0.112649
0.76889
0.718104
0.300739
0.105771
0.205348
0.0591118
0.327654
0.0352988
0.332403
0.295823
0.468146
-0.340065
0.38534
0.199147
-0.0855107
0.410771
0.359857
-0.0697708
0.426992
-0.0730902
0.443235
0.0631675
0.206112
-0.815597
0.222771
-0.648299
-0.256298
-0.448053
-0.683079
0.360065
-0.601107
-0.386398
-0.405842
-0.539452
0.136249
-0.64679
-0.544927
-0.491479
-0.550382
-0.78407
0.657891
-0.600325
0.112948
-0.706663
0.38428
0.335128
0.362988
0.400355
-0.273743
0.153458
0.159227
-0.518125
0.388209
0.275621
0.0781999
0.556327
-0.473378
-0.827262
0.287947
-0.349581
0.706981
-0.628934
-0.722836
0.509235
-0.703383
0.447506
-0.526642
-0.150032
-0.325938
-0.405484
-0.0571636
-0.757238
0.28358
-0.219107
0.328053
0.409938
-0.0633191
0.328714
-0.0465178
0.523224
-0.243351
0.658859
0.44101
0.222032
0.357524
-0.082483
0.585009
0.686407
0.0347869
0.683317
0.359851
-0.250494
0.356265
0.402708
-0.197361
0.362953
0.246892
-0.131294
0.427116
0.336852
0.520744
-0.135404
-0.281217
0.480364
0.341
0.145775
0.370145
0.426155
-0.592826
-0.345257
-0.303042
-0.79331
-0.54683
-0.668037
0.0669302
0.380847
-0.767245
-0.58745
0.181607
0.156781
-0.696233
-0.0828152
-0.563975
-0.627742
0.105446
-0.596925
0.265548
-0.81593
0.0159303
-0.219478
-0.413694
0.695539
-0.311259
-0.31001
0.645138
0.456576
-0.0562211
-0.624679
0.350936
-0.471221
0.728535
-0.569308
0.598059
-0.20985
-0.523762
0.799382
0.638101
-0.559902
-0.270935
-0.025872
0.666873
-0.378926
0.317292
-0.0158541
-0.311642
-0.0145262
0.445414
-0.595446
-0.578706
0.252769
-0.67023
0.264746
-0.63587
-0.311824
-0.35229
-0.758777
0.53967
0.403698
-0.0756449
0.36342
0.340379
-0.283237
0.806462
0.375621
0.213254
0.227756
0.435286
0.400335
-0.0428114
0.619796
0.574789
0.111618
0.672994
0.0464957
0.313355
0.152215
0.24349
0.112774
0.229756
0.164859
0.198093
0.411752
0.3097
0.0271516
0.297843
0.222901
0.34496
0.28521
0.0557901
-0.320018
0.465793
0.050127
0.0553431
0.370812
-0.474193
-0.118633
-0.777236
-0.123017
-0.670293
-0.669847
-0.511256
-0.520519
-0.585638
-0.543688
-0.152544
0.061273
-0.625248
-0.522296
-0.331377
-0.791304
0.571826
0.26676
-0.680454
0.385529
-0.689247
0.377988
0.604876
0.0402626
0.511919
0.548655
-0.338311
0.257313
0.0287513
0.428251
0.239481
-0.692376
0.421441
-0.718248
-0.707165
0.328239
0.604528
-0.620382
-0.681036
0.369394
-0.615994
0.601468
-0.328686
-0.417462
0.672852
-0.408106
0.264028
-0.575851
-0.748502
0.396212
-0.0859253
-0.178578
0.209565
0.285213
0.0782078
-0.00332171
0.3437
0.419988
0.386473
0.514984
-0.139363
-0.142683
0.370438
0.505127
-0.0698408
0.257652
0.242401
-0.00946494
0.629261
0.565324
0.531606
0.18709
0.485904
0.289986
0.131566
0.181789
0.330979
-0.178765
-0.243112
0.355886
-0.126129
0.355884
0.32966
0.246832
0.16492
0.183572
0.324995
0.374078
-0.151177
0.437356
-0.0923963
0.302622
0.441028
0.0247652
0.420939
-0.662321
-0.663858
-0.113378
0.00293524
-0.673229
-0.608574
-0.597995
0.0867392
-0.645459
0.12494
-0.574996
-0.0106411
-0.75054
0.0536732
-0.678921
-0.468623
-0.674055
-0.11725
-0.108628
0.627646
-0.242117
0.692236
-0.314248
0.667908
0.227921
0.283998
0.0725084
0.476146
-0.698997
0.360685
-0.441684
-0.461933
0.490684
-0.0336813
-0.372668
0.612149
-0.285724
-0.352797
-0.0114662
-0.660098
0.0397163
-0.290704
0.667218
-0.0657504
0.36658
-0.695265
-0.748746
0.331285
-0.749744
0.341638
-0.484474
-0.209272
-0.352534
-0.705623
0.619698
-0.569982
0.391405
-0.165767
0.375331
-0.231549
0.309757
-0.282634
0.279313
0.112151
-0.15933
0.545804
0.506332
0.00865179
0.365764
0.300598
-0.134445
0.392098
-0.0857893
0.32819
0.455713
0.173548
0.429029
0.136295
0.0207012
0.510905
0.642802
0.476396
0.156619
0.133367
0.338408
0.0878674
0.17712
0.179316
0.17657
0.180521
0.149139
0.345441
-0.156771
0.340342
0.168224
0.159025
0.215053
0.286179
0.348631
0.136855
-0.350284
0.375049
0.0706551
-0.552142
-0.110179
-0.660923
-0.66552
-0.0793276
-0.593901
-0.687901
-0.55872
-0.450057
-0.684696
-0.440086
-0.310454
0.121079
0.558664
-0.675914
-0.803894
0.45012
-0.713411
0.399163
0.50001
0.167898
-0.135641
0.363563
0.354653
0.572518
0.340505
-0.352726
-0.759066
0.317382
-0.268382
-0.655814
0.622132
0.29455
-0.0436646
0.348398
-0.634122
-0.698906
0.346109
0.607836
-0.619302
0.593822
-0.554106
-0.771366
0.480662
-0.633192
0.567442
-0.418459
-0.363985
-0.531891
0.0474162
-0.741162
-0.670798
0.318264
0.0497152
0.786276
-0.394871
0.092697
0.223968
0.196014
0.083299
0.308165
0.347002
0.566505
-0.29988
0.308532
0.065884
-0.13928
0.439877
0.193745
0.252818
0.602578
0.6472
0.143273
0.499529
0.619669
0.312683
0.133538
0.20487
-0.17126
0.259127
-0.154181
0.3313
0.285617
-0.109047
0.282677
0.134776
0.210665
0.186162
0.327249
0.339218
-0.124165
0.327552
-0.041373
0.373793
-0.0251618
0.271631
0.391082
-0.0160331
-0.550265
-0.651014
-0.00990871
-0.669778
0.00425795
0.0360647
-0.629966
-0.566822
-0.788614
0.229894
0.265803
-0.71586
-0.418893
0.320211
-0.630665
-0.245229
0.00915106
-0.685065
-0.385261
0.83538
0.726457
-0.327293
-0.385409
0.553308
0.0173366
0.346226
0.37199
0.125287
0.447232
0.465791
-0.800807
0.448081
-0.483424
0.35375
0.673471
-0.378921
0.629807
-0.350508
0.152154
-0.425257
-0.0253564
-0.0254799
-0.0734443
0.188521
-0.716512
0.298053
-0.719214
0.355229
0.653838
-0.606422
-0.766512
0.0253494
-0.0169601
-0.398248
0.612932
-0.563216
0.218061
-0.235135
0.327832
0.293852
-0.0698844
-0.194935
0.278234
0.250624
0.0575405
0.45814
-0.111138
0.626617
-0.0601118
0.463989
-0.155457
-0.279999
0.345883
0.159878
-0.126147
0.319892
0.304998
-0.0521803
-0.153826
0.756404
0.493374
-0.142727
0.642256
0.614412
0.0990364
0.213646
-0.0192733
0.224143
0.16004
0.309149
-0.0500214
0.126928
0.158688
0.200102
0.0233037
0.259373
-0.0148643
0.22553
-0.130647
0.316809
0.196602
0.138927
0.200291
0.203388
0.33242
0.36592
0.036496
0.355956
-0.60624
0.0559758
-0.614949
-0.679686
-0.601982
-0.233178
-0.396788
-0.468403
-0.485966
0.331066
-0.749959
-0.574689
0.301152
-0.546382
0.587765
-0.578614
-0.353999
0.341196
0.449971
-0.688222
0.360929
-0.0416072
0.594915
-0.0104388
0.356665
-0.132973
0.580205
0.455353
-0.240141
-0.607723
0.124299
-0.253973
0.714267
-0.0844601
-0.605146
0.254638
-0.452992
-0.654841
0.229585
0.707017
-0.732373
0.515389
-0.540868
0.609536
-0.68298
-0.541021
0.729542
-0.421161
0.809783
-0.454554
-0.69757
0.0911486
-0.465359
-0.672221
0.65778
-0.67474
0.259532
0.246567
0.65837
-0.440309
0.132897
0.167706
0.18074
0.209905
0.0683285
0.267446
0.422175
0.0359653
0.352851
0.32365
0.302967
0.362063
0.190426
-0.231186
0.391065
0.2347
0.0851916
0.0738119
0.18252
0.613677
0.817024
0.384101
0.258155
0.17801
0.436402
0.225965
0.194373
0.247447
0.256253
-0.0962127
0.206232
0.257804
-0.0991152
0.278192
-0.0780898
0.244509
0.262026
0.220596
0.335529
-0.0985555
0.298846
-0.156842
0.36023
0.175578
0.402069
-0.0361489
-0.0603106
0.416267
-0.403212
-0.211737
-0.588263
-0.0914234
-0.708577
0.106594
-0.664979
0.196576
0.274478
-0.760444
-0.475481
-0.524506
-0.0501833
0.0413833
-0.511392
-0.0672217
-0.865391
0.719717
-0.378521
0.573592
-0.123621
0.670683
-0.309754
0.531985
0.461941
0.296354
0.208042
0.372164
0.218577
0.236776
0.465871
-0.706012
0.652629
-0.528331
0.460294
-0.678005
0.593545
-0.400203
0.205378
0.745249
-0.515664
0.165995
-0.216984
0.0686677
0.0622683
0.0515374
-0.748851
0.32769
-0.778649
0.324095
0.556516
-0.465367
-0.466393
0.00103324
-0.505564
-0.166657
-0.118224
-0.489319
0.703178
-0.456611
0.262869
-0.103676
0.236573
-0.0689784
0.236684
-0.0973516
0.278091
-0.194583
0.262912
0.170094
-0.255404
0.29137
0.0974467
-0.185891
0.488858
0.455965
-0.0939021
-0.182771
0.373197
0.208293
-0.154944
0.240136
-0.252831
0.326643
-0.0703112
0.387641
0.226036
0.495514
0.32151
0.562111
0.645796
0.433242
0.0862786
0.139686
0.280652
0.00679607
0.240651
0.262108
-0.0558764
0.108324
0.14948
0.179077
0.184018
0.00259298
0.241916
0.284459
-0.0224335
-0.058295
0.278891
0.277234
0.261674
0.256892
0.0419536
-0.194179
0.369757
0.20789
0.380118
-0.417912
-0.479453
-0.185526
-0.563867
0.349721
-0.825202
-0.529636
-0.425009
0.76407
-0.831291
-0.51567
0.566506
0.15321
0.292162
0.442885
-0.575649
0.265895
0.0168155
0.515169
-0.0662289
0.52817
0.514931
0.444817
-0.0155478
0.387711
-0.109778
-0.0533829
-0.0680371
0.640856
-0.0473114
-0.631885
0.231682
-0.426507
-0.636803
0.121139
0.673213
-0.507217
-0.682753
0.465769
-0.614085
0.64398
-0.581711
-0.571979
0.623516
-0.450959
0.751988
-0.427894
0.401456
-0.866823
-0.504531
0.439718
-0.606375
-0.517605
0.39938
-0.801633
0.312314
0.295377
0.684781
-0.421912
0.180783
0.0419899
0.209113
0.0817397
0.0324698
0.230442
-0.0935218
0.263616
0.414975
-0.123606
0.303529
-0.206082
0.270074
0.507783
-0.0189251
0.321073
0.328794
0.0444038
0.296639
-0.0883462
0.169825
0.294008
0.032635
0.721549
-0.317262
0.638773
0.19994
0.362171
0.395487
0.250309
0.633183
0.24801
0.287448
0.243244
0.223015
0.19052
-0.0410403
0.234542
-0.0554649
0.264482
-0.0804641
0.219483
0.0154152
0.261819
0.192495
0.0691793
0.272308
0.234449
0.216982
0.152775
-0.205841
0.413731
0.174277
0.382088
0.418045
-0.60357
-0.145823
-0.45266
-0.372543
-0.147548
0.339061
-0.15315
-0.678142
0.241427
-0.757097
0.605312
-0.452102
0.609391
-0.317229
0.707756
-0.264871
0.720208
-0.454314
0.724572
0.448941
0.512623
0.186923
0.328008
0.0531942
0.391623
0.440906
0.487701
-0.597479
0.571819
-0.625202
0.572819
-0.636581
0.58927
-0.405121
0.258274
0.632775
-0.511636
0.101234
-0.820677
0.31346
-0.354909
0.0298943
0.0510633
-0.0130648
-0.792685
0.341725
-0.745202
0.317308
-0.116149
-0.427105
-0.16547
-0.470156
-0.136219
-0.402253
-0.48037
0.705041
-0.409664
0.283129
0.191295
-0.0105121
0.233285
0.161513
0.0475997
0.243253
-0.204495
0.236965
0.13692
0.170799
0.0928168
0.179923
0.122711
0.381316
-0.111242
0.19052
0.362391
0.377107
-0.0560337
-0.162833
0.207236
0.133807
0.205662
-0.0754789
0.245303
-0.260022
0.292657
0.325525
0.396024
0.593473
0.0453002
0.757658
0.575834
0.631964
-0.0158531
0.263863
0.0922906
0.195157
0.0236189
0.219625
0.229529
-0.00651411
0.174667
0.193501
0.209018
0.149065
0.216936
0.00254645
0.255305
0.286161
0.00115024
0.271157
-0.0458176
0.280266
-0.148965
0.30174
0.264766
0.3612
-0.400189
-0.203381
-0.598482
0.314978
-0.68752
-0.547738
0.471896
-0.625046
-0.436714
-0.44212
0.340441
0.157289
0.402979
0.0333874
0.223672
0.5009
0.672613
0.365097
0.147526
0.0146734
0.313335
0.406296
0.0786332
0.362272
-0.02566
-0.0523834
0.617453
-0.0281829
-0.620345
0.215224
-0.362071
-0.52632
0.0146836
-0.450727
0.551961
0.727564
-0.414105
-0.737206
0.382297
0.621716
-0.591822
0.640051
-0.588988
-0.609068
0.596004
-0.403476
0.719822
-0.402514
0.557996
-0.674145
-0.632071
0.204966
-0.635626
-0.76829
0.155743
-0.806356
0.325986
0.310158
0.653506
-0.370377
0.206424
0.0287899
0.218399
0.198042
0.045211
0.088782
0.148183
0.225702
-0.0979071
0.190724
0.351287
-0.171364
-0.225006
0.347718
0.265865
-0.302328
0.492848
0.0600629
-0.284129
0.228095
-0.0177698
0.22213
-0.0883237
0.214337
-0.00867562
0.122563
-0.0147183
0.169582
0.123075
-0.120749
0.516774
0.472723
-0.367819
0.413119
0.564413
0.193245
0.0385921
0.537242
-0.00879207
0.640756
0.11511
0.148753
0.2074
0.218776
0.222172
-0.0258275
0.200494
0.20738
-0.0138788
0.204668
0.00434951
-0.122451
0.271515
0.132854
0.240343
0.281417
0.118282
0.152875
0.292128
0.00961208
0.220913
0.0438533
0.0816761
0.279524
0.361168
-0.564549
-0.237314
-0.303265
-0.384255
0.252262
0.862624
-0.390728
-0.295746
-0.3293
-0.73246
0.224352
-0.666472
0.799761
-0.45932
-0.553222
0.710511
-0.150242
0.608309
-0.574921
-0.0851376
0.586037
0.28675
0.385863
0.44373
0.434276
0.395011
0.0502559
0.35604
0.412528
0.552037
-0.577697
0.565069
-0.63702
0.608837
-0.311096
0.291434
0.576215
-0.561531
0.276837
-0.0571073
-0.75553
0.341426
-0.115489
-0.373233
0.0482287
-0.0127728
-0.0410161
-0.76251
0.359033
-0.763187
0.360673
-0.64245
-0.0316952
-0.437484
0.226998
-0.541292
-0.650613
-0.436524
0.646481
-0.336324
0.276105
0.208744
-0.00232022
0.237534
0.153649
0.0647499
0.19886
0.198052
-0.0498691
0.127795
0.171613
0.0191113
0.0671587
0.176354
0.391534
-0.125669
0.125029
-0.226293
0.286355
0.374397
-0.146302
0.20436
0.126014
0.160906
0.201073
-0.0785095
0.186354
0.183853
-0.0607783
0.555366
-0.0956197
0.568343
0.444335
-0.0312158
0.555621
0.730487
0.64121
-0.0488292
0.197583
0.038411
0.168989
0.03082
0.187956
0.201489
0.0206827
0.181553
0.151665
0.190789
-0.169117
0.173467
0.102398
0.251137
-0.0751594
0.315503
0.127026
0.15439
0.279901
0.216969
0.230525
0.323377
-0.312287
-0.540579
0.15088
-0.535135
-0.752341
0.361614
0.283528
-0.612828
-0.508108
-0.515593
0.705513
0.094248
0.251191
-0.695054
0.544812
-0.086746
-0.0228839
0.620376
0.0486095
0.537428
0.434472
0.100014
0.343717
0.0642769
0.369999
0.0483714
0.346639
0.404412
0.0482153
0.364313
-0.0126279
0.592857
0.0159801
-0.654457
0.343362
-0.363023
-0.21817
0.602352
-0.325515
0.545245
0.697766
-0.35634
-0.57716
0.46167
-0.648316
0.275083
0.657676
-0.609447
0.618233
-0.631005
-0.662478
0.621462
-0.404153
0.686617
-0.325944
0.656053
-0.687748
0.389849
-0.827333
-0.622822
0.0815302
0.00543996
-0.835407
0.398883
0.350293
0.65018
-0.374075
0.199169
0.209124
0.0284105
0.236362
0.120351
0.0575191
0.140533
0.159255
0.185314
0.204425
0.271659
-0.2045
0.264415
-0.0880611
0.165241
0.248728
0.336518
-0.211489
0.387381
-0.101026
0.125357
0.287871
-0.0835107
-0.160585
0.286598
0.000321805
-0.0897419
0.276096
0.184175
-0.191771
0.130992
-0.199764
0.75513
0.348716
0.368579
-0.352744
0.321528
-0.143952
0.699572
0.586535
-0.181197
0.822407
0.235994
0.199809
0.208639
0.181839
-0.000285986
-0.0878098
0.239475
0.180344
0.0104458
0.213195
-0.039728
-0.107742
0.21014
0.143395
0.149686
0.165817
0.304077
0.115838
0.164063
0.266797
-0.0498283
-0.0354346
0.265959
0.287943
0.487713
-0.0528662
-0.588001
-0.468813
-0.261209
-0.564719
-0.0481093
0.20215
-0.710258
0.0994261
-0.615019
0.683552
-0.589304
0.63078
-0.379588
0.757128
-0.212316
-0.630495
0.543749
0.586358
-0.609242
0.0665366
0.553839
0.0966175
0.44081
0.498749
0.470012
0.391932
0.123079
0.223561
0.229823
0.174589
0.135504
0.228809
0.580229
-0.630031
0.646011
0.287157
0.526536
-0.744706
0.372251
-0.117233
-0.774861
0.418521
0.0805162
-0.186646
-0.499778
0.00878548
-0.104469
-0.00856862
-0.763741
0.359588
-0.826149
0.500205
-0.297899
-0.646158
-0.181175
-0.564628
0.564129
-0.558689
-0.271279
-0.364858
0.541913
-0.191619
0.167837
-0.00763875
0.206807
-0.152918
0.181329
0.121314
0.115049
0.241664
0.186494
-0.0459609
0.183977
-0.0247225
0.0214304
0.182995
0.0599148
-0.236683
0.148622
0.278026
-0.112785
0.290556
-0.0418278
-0.0162264
0.175893
0.177001
-0.170865
0.296222
0.0511883
0.203088
0.151922
0.0843256
-0.0843097
0.268485
0.240013
-0.109021
0.192401
0.562729
-0.109619
0.458335
-0.0979533
0.466532
0.431456
-0.109927
0.518376
0.016223
0.570312
0.150984
0.671423
0.126287
0.109707
0.0427651
0.157044
0.178873
0.0297662
0.0940288
0.180058
0.169676
0.0697994
0.223641
0.170412
0.259233
-0.137779
0.303596
0.0840582
0.220019
0.248121
0.129018
0.216131
0.0633263
0.224616
0.211999
-0.512533
0.0437204
0.454535
-0.715743
-0.362569
-0.560643
-0.610831
-0.40302
0.644645
0.0389072
0.0414751
0.377539
-0.655741
0.443426
-0.0441373
-0.111992
-0.0290129
0.711182
0.650457
-0.0592923
0.500103
0.439457
0.15283
0.317182
0.214186
0.177746
0.186405
0.146027
0.0775342
0.365326
0.320616
0.442995
0.548541
0.0974699
-0.457549
0.772045
-0.399795
0.654812
0.411502
0.694654
-0.614138
0.508008
0.620846
-0.612061
0.618337
-0.722806
-0.644792
0.636223
-0.466561
0.64635
-0.146145
-0.595567
0.297668
0.569013
-0.750188
-0.110093
-0.820179
0.26149
-0.675992
0.404714
-0.752784
0.387926
0.454731
0.614688
-0.44685
0.171234
0.0538893
0.154019
0.0273096
-0.099378
0.214427
0.145416
0.0410776
0.138016
0.129297
0.166847
0.0836168
-0.237791
0.297706
-0.0891697
0.17777
-0.269198
0.22737
-0.327304
0.311077
-0.151411
0.342265
-0.165265
0.126841
0.027024
-0.17906
0.230248
0.0240279
0.200501
-0.0485787
0.165181
-0.0808557
0.155704
0.162811
0.105673
0.0561603
-0.364281
0.556683
0.578952
0.321836
0.360382
0.102251
-0.301798
0.191871
-0.150701
0.669077
0.419611
0.820061
0.674361
0.169052
-0.0481083
0.157815
0.18681
-0.119046
0.213075
0.0610118
0.121567
-0.116061
0.18586
0.143891
0.0797494
-0.0867297
0.257141
0.172503
0.109296
0.1943
0.00769698
0.212322
0.0778091
0.170312
-0.178679
0.307697
0.0374518
0.262068
0.610583
-0.566862
-0.105161
0.432161
-0.79473
-0.128482
-0.39698
-0.213851
-0.610045
0.648952
-0.645142
0.686617
-0.267603
0.689066
-0.24564
0.593044
-0.637181
-0.627867
0.515875
0.519528
0.710713
0.00046872
0.178779
0.471678
0.678881
0.592287
0.494928
0.263939
0.0923183
0.273008
0.250337
0.0702789
0.188963
0.254032
-0.625082
0.722551
0.157139
-0.727644
-0.657009
0.190448
0.572067
-0.718213
-0.0265537
-0.522511
-0.43974
-0.310449
-0.549832
-0.414502
-0.34807