/*--------------------------------*- C++ -*----------------------------------*\
| =========                 |                                                 |
| \\      /  F ield         | OpenFOAM: The Open Source CFD Toolbox           |
|  \\    /   O peration     | Version:  v2012                                 |
|   \\  /    A nd           | Website:  www.openfoam.com                      |
|    \\/     M anipulation  |                                                 |
\*---------------------------------------------------------------------------*/
FoamFile
{
    version     2.0;
    format      ascii;
    class       volScalarField;
    location    "0.9";
    object      rAU;
}
// * * * * * * * * * * * * * * * * * * * * * * * * * * * * * * * * * * * * * //

dimensions      [-1 3 1 0 0 0 0];


internalField   nonuniform List<scalar> 
13611
(
1.63225e-07
1.6088e-07
1.61944e-07
1.61781e-07
1.61791e-07
1.63223e-07
1.62095e-07
1.62713e-07
1.63216e-07
1.61424e-07
1.62826e-07
1.62504e-07
1.60275e-07
1.62741e-07
1.62807e-07
1.6089e-07
1.62799e-07
1.63224e-07
1.62582e-07
1.63196e-07
1.62403e-07
1.60586e-07
1.63224e-07
1.62799e-07
1.60878e-07
1.62781e-07
1.63095e-07
1.62009e-07
1.63174e-07
1.62401e-07
1.61678e-07
1.62553e-07
1.62441e-07
1.60799e-07
1.62695e-07
1.62764e-07
1.63074e-07
1.63226e-07
1.62025e-07
1.62888e-07
1.62253e-07
1.60862e-07
1.59692e-07
1.62352e-07
1.62629e-07
1.63213e-07
1.60799e-07
1.62685e-07
1.62893e-07
1.61988e-07
1.62781e-07
1.62044e-07
1.62885e-07
1.62343e-07
1.62396e-07
1.63017e-07
1.59837e-07
1.60811e-07
1.61462e-07
1.62722e-07
1.62736e-07
1.62878e-07
1.62053e-07
1.62902e-07
1.62849e-07
1.63232e-07
1.62075e-07
1.62932e-07
1.62366e-07
1.62386e-07
1.63197e-07
1.61504e-07
1.61413e-07
1.62728e-07
1.63213e-07
1.62733e-07
1.62871e-07
1.62051e-07
1.61404e-07
1.61014e-07
1.62999e-07
1.62423e-07
1.62935e-07
1.62326e-07
1.6241e-07
1.60924e-07
1.6071e-07
1.63067e-07
1.62338e-07
1.61254e-07
1.62467e-07
1.62712e-07
1.63281e-07
1.62185e-07
1.61204e-07
1.60247e-07
1.61888e-07
1.63064e-07
1.6323e-07
1.62447e-07
1.6029e-07
1.62491e-07
1.62491e-07
1.61375e-07
1.60067e-07
1.59508e-07
1.62992e-07
1.62352e-07
1.61409e-07
1.62368e-07
1.63233e-07
1.62819e-07
1.63166e-07
1.61885e-07
1.6234e-07
1.5985e-07
1.61714e-07
1.6197e-07
1.62828e-07
1.62772e-07
1.60441e-07
1.60672e-07
1.62266e-07
1.6122e-07
1.60739e-07
1.61667e-07
1.61528e-07
1.63182e-07
1.62909e-07
1.61667e-07
1.60611e-07
1.61692e-07
1.61261e-07
1.60538e-07
1.62122e-07
1.62297e-07
1.611e-07
1.62798e-07
1.61969e-07
1.63222e-07
1.6284e-07
1.60764e-07
1.62398e-07
1.62181e-07
1.61772e-07
1.61804e-07
1.61866e-07
1.61937e-07
1.63195e-07
1.6272e-07
1.61915e-07
1.61617e-07
1.61683e-07
1.6232e-07
1.61815e-07
1.61042e-07
1.62558e-07
1.61541e-07
1.62607e-07
1.6177e-07
1.61632e-07
1.62867e-07
1.63003e-07
1.60272e-07
1.62361e-07
1.62596e-07
1.62473e-07
1.62377e-07
1.62093e-07
1.6159e-07
1.6055e-07
1.62617e-07
1.61042e-07
1.62078e-07
1.61531e-07
1.61675e-07
1.63197e-07
1.61287e-07
1.61461e-07
1.60222e-07
1.62827e-07
1.6229e-07
1.61848e-07
1.61571e-07
1.62848e-07
1.61798e-07
1.63216e-07
1.62951e-07
1.62154e-07
1.61331e-07
1.6268e-07
1.6192e-07
1.6169e-07
1.61803e-07
1.61405e-07
1.60559e-07
1.62598e-07
1.62185e-07
1.62656e-07
1.61666e-07
1.61938e-07
1.61368e-07
1.61866e-07
1.6199e-07
1.62508e-07
1.62252e-07
1.60718e-07
1.61673e-07
1.62587e-07
1.60933e-07
1.6248e-07
1.6152e-07
1.61683e-07
1.62423e-07
1.62573e-07
1.60861e-07
1.62423e-07
1.61767e-07
1.60499e-07
1.617e-07
1.62865e-07
1.62585e-07
1.63009e-07
1.61433e-07
1.6214e-07
1.61991e-07
1.61941e-07
1.62092e-07
1.632e-07
1.60946e-07
1.62669e-07
1.62001e-07
1.62042e-07
1.61167e-07
1.62401e-07
1.62786e-07
1.6232e-07
1.60857e-07
1.63187e-07
1.62112e-07
1.61715e-07
1.61683e-07
1.61822e-07
1.62546e-07
1.62475e-07
1.62037e-07
1.61771e-07
1.62026e-07
1.61516e-07
1.62686e-07
1.62726e-07
1.63017e-07
1.6203e-07
1.62087e-07
1.61935e-07
1.61949e-07
1.61834e-07
1.61396e-07
1.62386e-07
1.62605e-07
1.62545e-07
1.62671e-07
1.61869e-07
1.62025e-07
1.61929e-07
1.61769e-07
1.62458e-07
1.62976e-07
1.60634e-07
1.61256e-07
1.60488e-07
1.61335e-07
1.61717e-07
1.61153e-07
1.60514e-07
1.62412e-07
1.60323e-07
1.60446e-07
1.62813e-07
1.62083e-07
1.62445e-07
1.6184e-07
1.61329e-07
1.60524e-07
1.62134e-07
1.61053e-07
1.62692e-07
1.62285e-07
1.61939e-07
1.61582e-07
1.63245e-07
1.60493e-07
1.61428e-07
1.62702e-07
1.6269e-07
1.61892e-07
1.61732e-07
1.6246e-07
1.63034e-07
1.61118e-07
1.61735e-07
1.61597e-07
1.62111e-07
1.62422e-07
1.61632e-07
1.59934e-07
1.61233e-07
1.62357e-07
1.60384e-07
1.62752e-07
1.62514e-07
1.62452e-07
1.61729e-07
1.61492e-07
1.6133e-07
1.62144e-07
1.61276e-07
1.60901e-07
1.62121e-07
1.61148e-07
1.62034e-07
1.61711e-07
1.6189e-07
1.60983e-07
1.61982e-07
1.61806e-07
1.61634e-07
1.62303e-07
1.63198e-07
1.62056e-07
1.62356e-07
1.61714e-07
1.62594e-07
1.61702e-07
1.63205e-07
1.61454e-07
1.61298e-07
1.62372e-07
1.61939e-07
1.62411e-07
1.61964e-07
1.62604e-07
1.62018e-07
1.61836e-07
1.62508e-07
1.61951e-07
1.61294e-07
1.61484e-07
1.61186e-07
1.62149e-07
1.62742e-07
1.60795e-07
1.61788e-07
1.61367e-07
1.63452e-07
1.6187e-07
1.61242e-07
1.62579e-07
1.60668e-07
1.61039e-07
1.61799e-07
1.60977e-07
1.61673e-07
1.61458e-07
1.63195e-07
1.6236e-07
1.62003e-07
1.61442e-07
1.60524e-07
1.62579e-07
1.59912e-07
1.62657e-07
1.61954e-07
1.60838e-07
1.6064e-07
1.61607e-07
1.61147e-07
1.62581e-07
1.61347e-07
1.61934e-07
1.62021e-07
1.61897e-07
1.6143e-07
1.62003e-07
1.61725e-07
1.6163e-07
1.60386e-07
1.62206e-07
1.62864e-07
1.60561e-07
1.61295e-07
1.6348e-07
1.61211e-07
1.61875e-07
1.61967e-07
1.63173e-07
1.62053e-07
1.62017e-07
1.62096e-07
1.61907e-07
1.61251e-07
1.61782e-07
1.61709e-07
1.62228e-07
1.62134e-07
1.624e-07
1.60153e-07
1.61432e-07
1.61446e-07
1.62574e-07
1.63196e-07
1.61713e-07
1.6193e-07
1.62287e-07
1.61751e-07
1.6045e-07
1.60918e-07
1.61516e-07
1.61555e-07
1.61162e-07
1.60584e-07
1.61725e-07
1.61424e-07
1.60127e-07
1.61685e-07
1.61434e-07
1.6164e-07
1.62275e-07
1.62162e-07
1.62446e-07
1.62173e-07
1.61729e-07
1.61741e-07
1.62297e-07
1.63298e-07
1.60791e-07
1.61945e-07
1.62081e-07
1.62498e-07
1.62328e-07
1.61626e-07
1.62646e-07
1.62295e-07
1.62354e-07
1.62006e-07
1.61973e-07
1.60896e-07
1.60911e-07
1.60684e-07
1.62576e-07
1.62158e-07
1.62105e-07
1.6236e-07
1.61847e-07
1.6177e-07
1.61602e-07
1.60775e-07
1.61684e-07
1.61681e-07
1.61972e-07
1.61269e-07
1.61602e-07
1.61589e-07
1.62381e-07
1.61866e-07
1.62428e-07
1.60903e-07
1.6178e-07
1.61204e-07
1.62109e-07
1.62144e-07
1.61617e-07
1.62302e-07
1.61568e-07
1.62002e-07
1.62588e-07
1.61814e-07
1.62249e-07
1.62136e-07
1.62119e-07
1.60915e-07
1.62116e-07
1.62059e-07
1.6249e-07
1.61135e-07
1.59912e-07
1.62726e-07
1.632e-07
1.62141e-07
1.62024e-07
1.63006e-07
1.63536e-07
1.6186e-07
1.62432e-07
1.61652e-07
1.61245e-07
1.61636e-07
1.61804e-07
1.61917e-07
1.6171e-07
1.61817e-07
1.61922e-07
1.60952e-07
1.62398e-07
1.61971e-07
1.6233e-07
1.61916e-07
1.6268e-07
1.62104e-07
1.61996e-07
1.6125e-07
1.60722e-07
1.6081e-07
1.62287e-07
1.61969e-07
1.62591e-07
1.60553e-07
1.61406e-07
1.61894e-07
1.62545e-07
1.60951e-07
1.6207e-07
1.6284e-07
1.62142e-07
1.6234e-07
1.62044e-07
1.62287e-07
1.61291e-07
1.61305e-07
1.62873e-07
1.62903e-07
1.61744e-07
1.62986e-07
1.6353e-07
1.61588e-07
1.6197e-07
1.60849e-07
1.61231e-07
1.62259e-07
1.61964e-07
1.61732e-07
1.61714e-07
1.61759e-07
1.62819e-07
1.62249e-07
1.6177e-07
1.62159e-07
1.62888e-07
1.61873e-07
1.61863e-07
1.60698e-07
1.62188e-07
1.61206e-07
1.60671e-07
1.60812e-07
1.6112e-07
1.61643e-07
1.61655e-07
1.62737e-07
1.61526e-07
1.62314e-07
1.6158e-07
1.61732e-07
1.61158e-07
1.61866e-07
1.61846e-07
1.60767e-07
1.6113e-07
1.60718e-07
1.63195e-07
1.62872e-07
1.62558e-07
1.62496e-07
1.61002e-07
1.60841e-07
1.62356e-07
1.61751e-07
1.60733e-07
1.62011e-07
1.62334e-07
1.60598e-07
1.62592e-07
1.62255e-07
1.6187e-07
1.61653e-07
1.61639e-07
1.62615e-07
1.6178e-07
1.6116e-07
1.61368e-07
1.61835e-07
1.61941e-07
1.61775e-07
1.62153e-07
1.62304e-07
1.61215e-07
1.63204e-07
1.61182e-07
1.59008e-07
1.61005e-07
1.60523e-07
1.61598e-07
1.60724e-07
1.62059e-07
1.61787e-07
1.61673e-07
1.61486e-07
1.61911e-07
1.61286e-07
1.60688e-07
1.60898e-07
1.62377e-07
1.6136e-07
1.62832e-07
1.62303e-07
1.61876e-07
1.61992e-07
1.61185e-07
1.63058e-07
1.61393e-07
1.62623e-07
1.62539e-07
1.61002e-07
1.61561e-07
1.62221e-07
1.61685e-07
1.61954e-07
1.62224e-07
1.62781e-07
1.6204e-07
1.62251e-07
1.61993e-07
1.61792e-07
1.61245e-07
1.61976e-07
1.60649e-07
1.61724e-07
1.61304e-07
1.61304e-07
1.61744e-07
1.61357e-07
1.61757e-07
1.62077e-07
1.615e-07
1.62347e-07
1.61827e-07
1.60642e-07
1.60964e-07
1.58902e-07
1.58882e-07
1.60318e-07
1.59694e-07
1.60362e-07
1.59956e-07
1.60826e-07
1.61615e-07
1.60545e-07
1.61717e-07
1.62657e-07
1.62472e-07
1.62456e-07
1.60191e-07
1.62436e-07
1.61548e-07
1.61761e-07
1.61268e-07
1.61784e-07
1.63191e-07
1.6307e-07
1.62599e-07
1.61707e-07
1.62003e-07
1.62052e-07
1.62668e-07
1.60246e-07
1.62657e-07
1.62754e-07
1.62089e-07
1.62383e-07
1.61867e-07
1.61828e-07
1.61908e-07
1.61564e-07
1.60905e-07
1.61664e-07
1.61166e-07
1.61617e-07
1.62507e-07
1.60416e-07
1.60989e-07
1.6109e-07
1.62013e-07
1.61873e-07
1.61373e-07
1.61435e-07
1.63251e-07
1.61172e-07
1.60891e-07
1.59974e-07
1.6013e-07
1.61233e-07
1.59683e-07
1.59256e-07
1.61029e-07
1.60682e-07
1.60645e-07
1.6101e-07
1.61562e-07
1.60941e-07
1.61482e-07
1.61988e-07
1.61646e-07
1.62712e-07
1.61884e-07
1.60515e-07
1.62528e-07
1.62792e-07
1.61368e-07
1.62018e-07
1.62042e-07
1.61754e-07
1.63024e-07
1.60426e-07
1.628e-07
1.60948e-07
1.62486e-07
1.6227e-07
1.62204e-07
1.61955e-07
1.61752e-07
1.61868e-07
1.62006e-07
1.61868e-07
1.61873e-07
1.60885e-07
1.61527e-07
1.62136e-07
1.61773e-07
1.61016e-07
1.60591e-07
1.60959e-07
1.62246e-07
1.60472e-07
1.62255e-07
1.61713e-07
1.6276e-07
1.604e-07
1.60235e-07
1.60231e-07
1.6077e-07
1.59688e-07
1.60782e-07
1.61471e-07
1.59668e-07
1.59958e-07
1.61102e-07
1.61933e-07
1.6187e-07
1.62133e-07
1.62328e-07
1.61965e-07
1.62404e-07
1.61686e-07
1.62825e-07
1.61994e-07
1.61586e-07
1.6258e-07
1.6271e-07
1.61858e-07
1.6317e-07
1.62101e-07
1.60552e-07
1.62102e-07
1.62043e-07
1.62686e-07
1.62257e-07
1.62696e-07
1.61725e-07
1.62585e-07
1.61478e-07
1.60608e-07
1.61298e-07
1.61995e-07
1.6255e-07
1.61148e-07
1.61722e-07
1.61861e-07
1.62209e-07
1.62774e-07
1.61902e-07
1.617e-07
1.62567e-07
1.62565e-07
1.59668e-07
1.60971e-07
1.62676e-07
1.61492e-07
1.61794e-07
1.5997e-07
1.62247e-07
1.61746e-07
1.63271e-07
1.60697e-07
1.60292e-07
1.59613e-07
1.59472e-07
1.59002e-07
1.61758e-07
1.60916e-07
1.59554e-07
1.58113e-07
1.60447e-07
1.60873e-07
1.61839e-07
1.61725e-07
1.60895e-07
1.61698e-07
1.62731e-07
1.61631e-07
1.61179e-07
1.61617e-07
1.61377e-07
1.62351e-07
1.6207e-07
1.6109e-07
1.61834e-07
1.61731e-07
1.61572e-07
1.62011e-07
1.62175e-07
1.62304e-07
1.62439e-07
1.61407e-07
1.6251e-07
1.62278e-07
1.6159e-07
1.61449e-07
1.6272e-07
1.6278e-07
1.61827e-07
1.62309e-07
1.62238e-07
1.6195e-07
1.62725e-07
1.62574e-07
1.61605e-07
1.62572e-07
1.62305e-07
1.58392e-07
1.60296e-07
1.58075e-07
1.6106e-07
1.61628e-07
1.59158e-07
1.59454e-07
1.60245e-07
1.62694e-07
1.60428e-07
1.58595e-07
1.58714e-07
1.59715e-07
1.57677e-07
1.58953e-07
1.59253e-07
1.61661e-07
1.58481e-07
1.59511e-07
1.59064e-07
1.60111e-07
1.61583e-07
1.62258e-07
1.62176e-07
1.62156e-07
1.62019e-07
1.62706e-07
1.61351e-07
1.6078e-07
1.62676e-07
1.61949e-07
1.62282e-07
1.62032e-07
1.61808e-07
1.61282e-07
1.61416e-07
1.62542e-07
1.6197e-07
1.62424e-07
1.59714e-07
1.60813e-07
1.60999e-07
1.6231e-07
1.62487e-07
1.62044e-07
1.61669e-07
1.62224e-07
1.61907e-07
1.61944e-07
1.62018e-07
1.61471e-07
1.60984e-07
1.60981e-07
1.60254e-07
1.62391e-07
1.60194e-07
1.60178e-07
1.62881e-07
1.58598e-07
1.59745e-07
1.59674e-07
1.62814e-07
1.61942e-07
1.59391e-07
1.61165e-07
1.59199e-07
1.62451e-07
1.62451e-07
1.62311e-07
1.59719e-07
1.58737e-07
1.57927e-07
1.58038e-07
1.5949e-07
1.56589e-07
1.57268e-07
1.582e-07
1.59389e-07
1.58974e-07
1.59911e-07
1.59566e-07
1.6184e-07
1.61466e-07
1.62396e-07
1.62057e-07
1.61986e-07
1.6139e-07
1.60695e-07
1.61343e-07
1.62314e-07
1.62401e-07
1.62274e-07
1.61945e-07
1.62186e-07
1.58713e-07
1.62598e-07
1.62604e-07
1.61884e-07
1.61703e-07
1.62217e-07
1.61492e-07
1.61552e-07
1.62465e-07
1.60366e-07
1.61274e-07
1.6214e-07
1.61135e-07
1.61846e-07
1.62078e-07
1.61122e-07
1.63118e-07
1.62048e-07
1.62903e-07
1.6176e-07
1.62351e-07
1.62985e-07
1.60264e-07
1.61656e-07
1.61322e-07
1.62532e-07
1.58979e-07
1.59659e-07
1.5988e-07
1.62014e-07
1.62054e-07
1.57355e-07
1.58111e-07
1.58878e-07
1.62034e-07
1.6223e-07
1.63248e-07
1.56494e-07
1.57712e-07
1.57494e-07
1.57307e-07
1.57737e-07
1.56801e-07
1.58849e-07
1.58138e-07
1.58468e-07
1.57331e-07
1.58734e-07
1.60258e-07
1.59543e-07
1.6265e-07
1.61551e-07
1.6214e-07
1.62033e-07
1.6161e-07
1.61545e-07
1.61632e-07
1.61656e-07
1.62531e-07
1.61842e-07
1.62332e-07
1.5855e-07
1.62721e-07
1.60634e-07
1.60645e-07
1.62071e-07
1.61308e-07
1.59613e-07
1.62187e-07
1.61912e-07
1.62189e-07
1.62134e-07
1.60125e-07
1.62792e-07
1.61881e-07
1.61813e-07
1.62056e-07
1.63088e-07
1.62624e-07
1.62928e-07
1.60641e-07
1.62921e-07
1.6252e-07
1.61627e-07
1.6256e-07
1.61915e-07
1.62978e-07
1.5893e-07
1.57196e-07
1.58023e-07
1.60653e-07
1.60527e-07
1.59471e-07
1.58375e-07
1.58955e-07
1.58735e-07
1.61442e-07
1.61462e-07
1.62363e-07
1.61856e-07
1.56975e-07
1.57235e-07
1.57478e-07
1.57843e-07
1.5725e-07
1.58816e-07
1.56779e-07
1.56701e-07
1.59421e-07
1.58229e-07
1.59865e-07
1.58107e-07
1.5981e-07
1.6037e-07
1.62873e-07
1.62393e-07
1.62802e-07
1.62552e-07
1.62618e-07
1.62053e-07
1.62587e-07
1.61376e-07
1.63286e-07
1.63364e-07
1.6106e-07
1.63029e-07
1.61421e-07
1.62109e-07
1.62309e-07
1.61218e-07
1.5805e-07
1.60806e-07
1.62152e-07
1.62555e-07
1.61929e-07
1.62232e-07
1.62654e-07
1.62954e-07
1.62173e-07
1.62314e-07
1.61787e-07
1.61633e-07
1.61519e-07
1.6172e-07
1.62477e-07
1.61243e-07
1.61376e-07
1.62538e-07
1.62772e-07
1.62117e-07
1.63205e-07
1.55523e-07
1.58542e-07
1.5795e-07
1.5778e-07
1.61785e-07
1.59146e-07
1.58835e-07
1.5886e-07
1.57924e-07
1.56543e-07
1.62078e-07
1.60848e-07
1.62321e-07
1.62385e-07
1.63256e-07
1.56741e-07
1.54995e-07
1.57783e-07
1.56588e-07
1.56016e-07
1.57613e-07
1.57282e-07
1.56081e-07
1.56622e-07
1.57516e-07
1.57822e-07
1.59467e-07
1.55937e-07
1.5975e-07
1.59712e-07
1.62261e-07
1.62794e-07
1.62377e-07
1.61963e-07
1.62061e-07
1.62828e-07
1.62088e-07
1.62637e-07
1.6121e-07
1.62224e-07
1.62843e-07
1.60862e-07
1.62741e-07
1.62466e-07
1.62763e-07
1.60794e-07
1.59626e-07
1.61181e-07
1.60384e-07
1.62412e-07
1.62159e-07
1.60845e-07
1.62144e-07
1.60693e-07
1.62205e-07
1.62045e-07
1.61995e-07
1.62306e-07
1.61664e-07
1.60596e-07
1.61271e-07
1.62273e-07
1.62146e-07
1.63091e-07
1.61611e-07
1.6202e-07
1.62482e-07
1.61331e-07
1.56452e-07
1.56924e-07
1.56149e-07
1.56126e-07
1.61551e-07
1.6223e-07
1.59039e-07
1.58299e-07
1.58129e-07
1.57974e-07
1.57671e-07
1.60991e-07
1.61282e-07
1.62675e-07
1.62282e-07
1.56554e-07
1.53781e-07
1.56808e-07
1.5628e-07
1.57308e-07
1.56243e-07
1.54556e-07
1.55777e-07
1.57627e-07
1.57108e-07
1.57677e-07
1.60004e-07
1.56037e-07
1.59454e-07
1.62154e-07
1.62093e-07
1.62675e-07
1.61152e-07
1.62043e-07
1.61769e-07
1.61077e-07
1.6201e-07
1.62382e-07
1.62535e-07
1.61976e-07
1.62618e-07
1.62479e-07
1.62694e-07
1.59307e-07
1.59244e-07
1.61066e-07
1.60083e-07
1.62461e-07
1.6204e-07
1.61896e-07
1.60563e-07
1.62383e-07
1.6081e-07
1.60723e-07
1.61757e-07
1.62351e-07
1.62386e-07
1.62589e-07
1.62665e-07
1.622e-07
1.62808e-07
1.63063e-07
1.62313e-07
1.61993e-07
1.60888e-07
1.62647e-07
1.61686e-07
1.56301e-07
1.5723e-07
1.56385e-07
1.53948e-07
1.57933e-07
1.6156e-07
1.56627e-07
1.58927e-07
1.57501e-07
1.56041e-07
1.56774e-07
1.61298e-07
1.62174e-07
1.62275e-07
1.6325e-07
1.54415e-07
1.57423e-07
1.53295e-07
1.53509e-07
1.54746e-07
1.56224e-07
1.55324e-07
1.57916e-07
1.56599e-07
1.56709e-07
1.57804e-07
1.56465e-07
1.57265e-07
1.60043e-07
1.56219e-07
1.59451e-07
1.61971e-07
1.60969e-07
1.6211e-07
1.62676e-07
1.60297e-07
1.60908e-07
1.62594e-07
1.61798e-07
1.62833e-07
1.62203e-07
1.62744e-07
1.6194e-07
1.62117e-07
1.62668e-07
1.60853e-07
1.62384e-07
1.61356e-07
1.59617e-07
1.62097e-07
1.59601e-07
1.62646e-07
1.62599e-07
1.62394e-07
1.62751e-07
1.61775e-07
1.61086e-07
1.62437e-07
1.62383e-07
1.62367e-07
1.62502e-07
1.62537e-07
1.6221e-07
1.62448e-07
1.62616e-07
1.60895e-07
1.62273e-07
1.61945e-07
1.62045e-07
1.62026e-07
1.62079e-07
1.55902e-07
1.54827e-07
1.55892e-07
1.56309e-07
1.54685e-07
1.57596e-07
1.56732e-07
1.61833e-07
1.61233e-07
1.58534e-07
1.57031e-07
1.52703e-07
1.56142e-07
1.55409e-07
1.61754e-07
1.62413e-07
1.61803e-07
1.6183e-07
1.55305e-07
1.57234e-07
1.55058e-07
1.54892e-07
1.54061e-07
1.54553e-07
1.55027e-07
1.57871e-07
1.55572e-07
1.54881e-07
1.57301e-07
1.55505e-07
1.55421e-07
1.57899e-07
1.57769e-07
1.59381e-07
1.60441e-07
1.61939e-07
1.63105e-07
1.58876e-07
1.61583e-07
1.62189e-07
1.62552e-07
1.62764e-07
1.61514e-07
1.6255e-07
1.60814e-07
1.62129e-07
1.62538e-07
1.62031e-07
1.61381e-07
1.61675e-07
1.59537e-07
1.59333e-07
1.6025e-07
1.62173e-07
1.6212e-07
1.61491e-07
1.62603e-07
1.61742e-07
1.61505e-07
1.62196e-07
1.62643e-07
1.61327e-07
1.61764e-07
1.62158e-07
1.6258e-07
1.62393e-07
1.62052e-07
1.62654e-07
1.61768e-07
1.62129e-07
1.61753e-07
1.62516e-07
1.62235e-07
1.61888e-07
1.55659e-07
1.54001e-07
1.53205e-07
1.55798e-07
1.55086e-07
1.56979e-07
1.56551e-07
1.59467e-07
1.58542e-07
1.57511e-07
1.55522e-07
1.53634e-07
1.54643e-07
1.53752e-07
1.62052e-07
1.62331e-07
1.62432e-07
1.61079e-07
1.63228e-07
1.56327e-07
1.54353e-07
1.56365e-07
1.55245e-07
1.51318e-07
1.53663e-07
1.54809e-07
1.56587e-07
1.55816e-07
1.55693e-07
1.55755e-07
1.53828e-07
1.55118e-07
1.58981e-07
1.57467e-07
1.57486e-07
1.61033e-07
1.62046e-07
1.63297e-07
1.61599e-07
1.60842e-07
1.62245e-07
1.62895e-07
1.61584e-07
1.62454e-07
1.62169e-07
1.61399e-07
1.61698e-07
1.62197e-07
1.61221e-07
1.61015e-07
1.617e-07
1.57869e-07
1.60756e-07
1.61389e-07
1.61677e-07
1.62168e-07
1.62605e-07
1.6243e-07
1.61862e-07
1.61577e-07
1.61987e-07
1.62852e-07
1.62425e-07
1.61956e-07
1.6211e-07
1.6259e-07
1.62433e-07
1.6214e-07
1.60767e-07
1.61768e-07
1.62289e-07
1.62067e-07
1.62145e-07
1.62088e-07
1.61908e-07
1.52399e-07
1.53668e-07
1.5269e-07
1.54072e-07
1.51495e-07
1.5531e-07
1.55484e-07
1.58062e-07
1.56754e-07
1.5688e-07
1.58421e-07
1.54236e-07
1.56048e-07
1.55501e-07
1.55251e-07
1.6263e-07
1.6158e-07
1.62536e-07
1.61682e-07
1.61912e-07
1.54234e-07
1.56428e-07
1.56616e-07
1.55313e-07
1.5326e-07
1.53759e-07
1.54733e-07
1.55669e-07
1.58125e-07
1.5531e-07
1.58181e-07
1.54276e-07
1.57836e-07
1.5616e-07
1.58547e-07
1.61731e-07
1.60883e-07
1.61882e-07
1.61604e-07
1.6293e-07
1.6058e-07
1.6222e-07
1.62612e-07
1.6148e-07
1.61389e-07
1.6117e-07
1.60518e-07
1.61089e-07
1.61759e-07
1.61398e-07
1.57795e-07
1.5965e-07
1.59406e-07
1.61341e-07
1.62127e-07
1.6264e-07
1.62395e-07
1.61738e-07
1.61466e-07
1.61844e-07
1.62e-07
1.61761e-07
1.62746e-07
1.62887e-07
1.62087e-07
1.623e-07
1.62351e-07
1.61956e-07
1.62115e-07
1.60783e-07
1.62693e-07
1.60347e-07
1.60833e-07
1.61991e-07
1.62153e-07
1.61684e-07
1.55483e-07
1.53207e-07
1.54303e-07
1.51989e-07
1.52344e-07
1.53327e-07
1.53125e-07
1.56973e-07
1.55274e-07
1.57996e-07
1.59299e-07
1.5678e-07
1.58011e-07
1.54357e-07
1.51445e-07
1.54371e-07
1.53987e-07
1.55499e-07
1.60837e-07
1.60283e-07
1.62018e-07
1.61481e-07
1.6321e-07
1.52228e-07
1.55158e-07
1.55246e-07
1.54483e-07
1.52401e-07
1.5334e-07
1.53664e-07
1.5505e-07
1.55872e-07
1.54377e-07
1.57242e-07
1.53895e-07
1.5581e-07
1.56244e-07
1.53126e-07
1.59118e-07
1.60645e-07
1.62406e-07
1.61807e-07
1.62477e-07
1.62706e-07
1.6212e-07
1.61553e-07
1.62733e-07
1.61628e-07
1.6083e-07
1.63037e-07
1.60877e-07
1.59973e-07
1.60692e-07
1.60559e-07
1.60655e-07
1.59893e-07
1.62551e-07
1.62365e-07
1.62117e-07
1.61321e-07
1.61507e-07
1.61312e-07
1.61958e-07
1.61872e-07
1.62013e-07
1.6283e-07
1.62022e-07
1.62297e-07
1.625e-07
1.6206e-07
1.61703e-07
1.62774e-07
1.62292e-07
1.60522e-07
1.62245e-07
1.62514e-07
1.61936e-07
1.61863e-07
1.55592e-07
1.55852e-07
1.55265e-07
1.49542e-07
1.51542e-07
1.50323e-07
1.52026e-07
1.55916e-07
1.52518e-07
1.58428e-07
1.56981e-07
1.58845e-07
1.57387e-07
1.54107e-07
1.52952e-07
1.53245e-07
1.51227e-07
1.53748e-07
1.50978e-07
1.62213e-07
1.61909e-07
1.60061e-07
1.60773e-07
1.6249e-07
1.62962e-07
1.52099e-07
1.56103e-07
1.55345e-07
1.55905e-07
1.52893e-07
1.5382e-07
1.55677e-07
1.52147e-07
1.53524e-07
1.56709e-07
1.53895e-07
1.54183e-07
1.54557e-07
1.55553e-07
1.58748e-07
1.61296e-07
1.61509e-07
1.6068e-07
1.60428e-07
1.61876e-07
1.62319e-07
1.61413e-07
1.61888e-07
1.62249e-07
1.61221e-07
1.62884e-07
1.63017e-07
1.63173e-07
1.59254e-07
1.5998e-07
1.61084e-07
1.58152e-07
1.60394e-07
1.60275e-07
1.62547e-07
1.62322e-07
1.62125e-07
1.61003e-07
1.61072e-07
1.61255e-07
1.60055e-07
1.60911e-07
1.61582e-07
1.61649e-07
1.61389e-07
1.61972e-07
1.62506e-07
1.61993e-07
1.62336e-07
1.61974e-07
1.62237e-07
1.63064e-07
1.60702e-07
1.61505e-07
1.62438e-07
1.63038e-07
1.62052e-07
1.61735e-07
1.5595e-07
1.55697e-07
1.52583e-07
1.50835e-07
1.5445e-07
1.49835e-07
1.53037e-07
1.53885e-07
1.5485e-07
1.56241e-07
1.58113e-07
1.58549e-07
1.5293e-07
1.54699e-07
1.51966e-07
1.52965e-07
1.48912e-07
1.54168e-07
1.55078e-07
1.62263e-07
1.60075e-07
1.59005e-07
1.62864e-07
1.61346e-07
1.63187e-07
1.5416e-07
1.52162e-07
1.53981e-07
1.53847e-07
1.52915e-07
1.55075e-07
1.5366e-07
1.55671e-07
1.51162e-07
1.55746e-07
1.57278e-07
1.54136e-07
1.51754e-07
1.56349e-07
1.54383e-07
1.56896e-07
1.60932e-07
1.61547e-07
1.6161e-07
1.61957e-07
1.6185e-07
1.61859e-07
1.61686e-07
1.62722e-07
1.6253e-07
1.63079e-07
1.62631e-07
1.62488e-07
1.6302e-07
1.61455e-07
1.61394e-07
1.59603e-07
1.59824e-07
1.58206e-07
1.5859e-07
1.58223e-07
1.62473e-07
1.62087e-07
1.59833e-07
1.61177e-07
1.61269e-07
1.61067e-07
1.61083e-07
1.61577e-07
1.61425e-07
1.61234e-07
1.61968e-07
1.6251e-07
1.61974e-07
1.62359e-07
1.62101e-07
1.62298e-07
1.61193e-07
1.62594e-07
1.63668e-07
1.62553e-07
1.61988e-07
1.61695e-07
1.55972e-07
1.54578e-07
1.52983e-07
1.51139e-07
1.53235e-07
1.5372e-07
1.52697e-07
1.52441e-07
1.5415e-07
1.55085e-07
1.53964e-07
1.55311e-07
1.5773e-07
1.53888e-07
1.54987e-07
1.50794e-07
1.49119e-07
1.55137e-07
1.50647e-07
1.55191e-07
1.54026e-07
1.61048e-07
1.59631e-07
1.60327e-07
1.58914e-07
1.6067e-07
1.61017e-07
1.61477e-07
1.51976e-07
1.54132e-07
1.54022e-07
1.51076e-07
1.51541e-07
1.53443e-07
1.52983e-07
1.53075e-07
1.53771e-07
1.56767e-07
1.56696e-07
1.53741e-07
1.53458e-07
1.54168e-07
1.54755e-07
1.6144e-07
1.62257e-07
1.61953e-07
1.60515e-07
1.62226e-07
1.60551e-07
1.62735e-07
1.61209e-07
1.62641e-07
1.62657e-07
1.62213e-07
1.62641e-07
1.62506e-07
1.63258e-07
1.61304e-07
1.59628e-07
1.59765e-07
1.58538e-07
1.50669e-07
1.57682e-07
1.58682e-07
1.6248e-07
1.6204e-07
1.61224e-07
1.6175e-07
1.61687e-07
1.62031e-07
1.62475e-07
1.60735e-07
1.59458e-07
1.6009e-07
1.62715e-07
1.63105e-07
1.62286e-07
1.62053e-07
1.61922e-07
1.62096e-07
1.61744e-07
1.62182e-07
1.63658e-07
1.61502e-07
1.62344e-07
1.61885e-07
1.61667e-07
1.51807e-07
1.54853e-07
1.53559e-07
1.5218e-07
1.50434e-07
1.52339e-07
1.50534e-07
1.53059e-07
1.51997e-07
1.54968e-07
1.55727e-07
1.55859e-07
1.53601e-07
1.54371e-07
1.53478e-07
1.49455e-07
1.49309e-07
1.50064e-07
1.47971e-07
1.52082e-07
1.48574e-07
1.6076e-07
1.58315e-07
1.58393e-07
1.5643e-07
1.60844e-07
1.62221e-07
1.61374e-07
1.50797e-07
1.52723e-07
1.52464e-07
1.49606e-07
1.51091e-07
1.47267e-07
1.53616e-07
1.54069e-07
1.53867e-07
1.5564e-07
1.54407e-07
1.54416e-07
1.54012e-07
1.52762e-07
1.57041e-07
1.60863e-07
1.62676e-07
1.61513e-07
1.62545e-07
1.60517e-07
1.60824e-07
1.60478e-07
1.62817e-07
1.6214e-07
1.61127e-07
1.62022e-07
1.62111e-07
1.62188e-07
1.62095e-07
1.63252e-07
1.61799e-07
1.61598e-07
1.6175e-07
1.59329e-07
1.58346e-07
1.57328e-07
1.54931e-07
1.59361e-07
1.5679e-07
1.56345e-07
1.60982e-07
1.61561e-07
1.6249e-07
1.62144e-07
1.63139e-07
1.61132e-07
1.59763e-07
1.63153e-07
1.62697e-07
1.6296e-07
1.62292e-07
1.62088e-07
1.62948e-07
1.62461e-07
1.61829e-07
1.62156e-07
1.61396e-07
1.61843e-07
1.62307e-07
1.61155e-07
1.6114e-07
1.51511e-07
1.50048e-07
1.49719e-07
1.53286e-07
1.49033e-07
1.48553e-07
1.51789e-07
1.51383e-07
1.4975e-07
1.5185e-07
1.50963e-07
1.54458e-07
1.55109e-07
1.55969e-07
1.54117e-07
1.5406e-07
1.53246e-07
1.54277e-07
1.49393e-07
1.55885e-07
1.52617e-07
1.48491e-07
1.51394e-07
1.48588e-07
1.50222e-07
1.60007e-07
1.62285e-07
1.58401e-07
1.57489e-07
1.58321e-07
1.56326e-07
1.61998e-07
1.62201e-07
1.60781e-07
1.6317e-07
1.52508e-07
1.54587e-07
1.52683e-07
1.4668e-07
1.50681e-07
1.53287e-07
1.48074e-07
1.53498e-07
1.52673e-07
1.52386e-07
1.53019e-07
1.54854e-07
1.54189e-07
1.51665e-07
1.56037e-07
1.55976e-07
1.62644e-07
1.61943e-07
1.60556e-07
1.62154e-07
1.61515e-07
1.59537e-07
1.62771e-07
1.62045e-07
1.62187e-07
1.61689e-07
1.62089e-07
1.62054e-07
1.62047e-07
1.62847e-07
1.62014e-07
1.61144e-07
1.5979e-07
1.5859e-07
1.5158e-07
1.55062e-07
1.57846e-07
1.51342e-07
1.61433e-07
1.62976e-07
1.63232e-07
1.63197e-07
1.63175e-07
1.63174e-07
1.63186e-07
1.63212e-07
1.62478e-07
1.62698e-07
1.62436e-07
1.61151e-07
1.60765e-07
1.62127e-07
1.62069e-07
1.62103e-07
1.61956e-07
1.6297e-07
1.51121e-07
1.48311e-07
1.50524e-07
1.46864e-07
1.47991e-07
1.52487e-07
1.48794e-07
1.48103e-07
1.46539e-07
1.54506e-07
1.53181e-07
1.53351e-07
1.55552e-07
1.55439e-07
1.53985e-07
1.54125e-07
1.54052e-07
1.55907e-07
1.46267e-07
1.51201e-07
1.51465e-07
1.49645e-07
1.4824e-07
1.60096e-07
1.61454e-07
1.56701e-07
1.58371e-07
1.57113e-07
1.51887e-07
1.60619e-07
1.62182e-07
1.62005e-07
1.53105e-07
1.53197e-07
1.51635e-07
1.49688e-07
1.51745e-07
1.48528e-07
1.50297e-07
1.54263e-07
1.52403e-07
1.53962e-07
1.5288e-07
1.55068e-07
1.5235e-07
1.53341e-07
1.53173e-07
1.56105e-07
1.6253e-07
1.61842e-07
1.6202e-07
1.62108e-07
1.62211e-07
1.62697e-07
1.63076e-07
1.62685e-07
1.6148e-07
1.62411e-07
1.60805e-07
1.61712e-07
1.61601e-07
1.62833e-07
1.62391e-07
1.59794e-07
1.58964e-07
1.58158e-07
1.56022e-07
1.56337e-07
1.58987e-07
1.56748e-07
1.58802e-07
1.56932e-07
1.61247e-07
1.62827e-07
1.61785e-07
1.63183e-07
1.63198e-07
1.62307e-07
1.62057e-07
1.6199e-07
1.61994e-07
1.62005e-07
1.62255e-07
1.61389e-07
1.62976e-07
1.51429e-07
1.52479e-07
1.51307e-07
1.47988e-07
1.51769e-07
1.52731e-07
1.49333e-07
1.49078e-07
1.53324e-07
1.51865e-07
1.53143e-07
1.55629e-07
1.54259e-07
1.5145e-07
1.50194e-07
1.50528e-07
1.52946e-07
1.49464e-07
1.50171e-07
1.46645e-07
1.50074e-07
1.49537e-07
1.49949e-07
1.48832e-07
1.59809e-07
1.61161e-07
1.55494e-07
1.54182e-07
1.58485e-07
1.58187e-07
1.5128e-07
1.52799e-07
1.62255e-07
1.62021e-07
1.6246e-07
1.63144e-07
1.51854e-07
1.51377e-07
1.5064e-07
1.52613e-07
1.50457e-07
1.50109e-07
1.51481e-07
1.51425e-07
1.49795e-07
1.49585e-07
1.54672e-07
1.51561e-07
1.51379e-07
1.54502e-07
1.52984e-07
1.62396e-07
1.60866e-07
1.61932e-07
1.63351e-07
1.62716e-07
1.63061e-07
1.61442e-07
1.6069e-07
1.62459e-07
1.61555e-07
1.62614e-07
1.61887e-07
1.61387e-07
1.60288e-07
1.61681e-07
1.58652e-07
1.58257e-07
1.51464e-07
1.52373e-07
1.55686e-07
1.5186e-07
1.63196e-07
1.63181e-07
1.63188e-07
1.60995e-07
1.6239e-07
1.62093e-07
1.6203e-07
1.61996e-07
1.61712e-07
1.62699e-07
1.46816e-07
1.5114e-07
1.52164e-07
1.48628e-07
1.50812e-07
1.46849e-07
1.46601e-07
1.48079e-07
1.50446e-07
1.49358e-07
1.53548e-07
1.52626e-07
1.52621e-07
1.51555e-07
1.5272e-07
1.51377e-07
1.50016e-07
1.52893e-07
1.51365e-07
1.47208e-07
1.4849e-07
1.49866e-07
1.50195e-07
1.57056e-07
1.57883e-07
1.51848e-07
1.55142e-07
1.55608e-07
1.58093e-07
1.52133e-07
1.5336e-07
1.61557e-07
1.61141e-07
1.61127e-07
1.61127e-07
1.52484e-07
1.49876e-07
1.50167e-07
1.52159e-07
1.50141e-07
1.51764e-07
1.51671e-07
1.50399e-07
1.52295e-07
1.53887e-07
1.52377e-07
1.50923e-07
1.51415e-07
1.53923e-07
1.53772e-07
1.55367e-07
1.61155e-07
1.6187e-07
1.63282e-07
1.61207e-07
1.61664e-07
1.60362e-07
1.60833e-07
1.63258e-07
1.63226e-07
1.62595e-07
1.60953e-07
1.62478e-07
1.62168e-07
1.59032e-07
1.59214e-07
1.58159e-07
1.56797e-07
1.56418e-07
1.53223e-07
1.53171e-07
1.56356e-07
1.62398e-07
1.61349e-07
1.62962e-07
1.62608e-07
1.61515e-07
1.63198e-07
1.4936e-07
1.47268e-07
1.51222e-07
1.48251e-07
1.48617e-07
1.45104e-07
1.46485e-07
1.49045e-07
1.50849e-07
1.51013e-07
1.50517e-07
1.508e-07
1.53561e-07
1.526e-07
1.51905e-07
1.52659e-07
1.52629e-07
1.51433e-07
1.51843e-07
1.51765e-07
1.48903e-07
1.47281e-07
1.4991e-07
1.50335e-07
1.5197e-07
1.4915e-07
1.56357e-07
1.56724e-07
1.5858e-07
1.58488e-07
1.53382e-07
1.55339e-07
1.55913e-07
1.57219e-07
1.53385e-07
1.5558e-07
1.59304e-07
1.6135e-07
1.61411e-07
1.61876e-07
1.63071e-07
1.52748e-07
1.47817e-07
1.51437e-07
1.48103e-07
1.4596e-07
1.47817e-07
1.52697e-07
1.48736e-07
1.47482e-07
1.47354e-07
1.5198e-07
1.47547e-07
1.50181e-07
1.51936e-07
1.6157e-07
1.61701e-07
1.61932e-07
1.61605e-07
1.61347e-07
1.60722e-07
1.62685e-07
1.63234e-07
1.6256e-07
1.61676e-07
1.63052e-07
1.61872e-07
1.59078e-07
1.59167e-07
1.57843e-07
1.55978e-07
1.5251e-07
1.57037e-07
1.55924e-07
1.54583e-07
1.57005e-07
1.61858e-07
1.61049e-07
1.63191e-07
1.63171e-07
1.60546e-07
1.59862e-07
1.481e-07
1.46751e-07
1.50364e-07
1.49411e-07
1.44035e-07
1.47846e-07
1.50585e-07
1.45942e-07
1.50088e-07
1.52074e-07
1.51878e-07
1.51754e-07
1.53416e-07
1.51091e-07
1.51111e-07
1.51776e-07
1.51693e-07
1.51189e-07
1.48092e-07
1.4707e-07
1.49843e-07
1.48995e-07
1.54975e-07
1.58158e-07
1.58809e-07
1.57497e-07
1.53652e-07
1.54671e-07
1.55339e-07
1.57601e-07
1.54814e-07
1.55081e-07
1.60184e-07
1.61077e-07
1.60784e-07
1.60291e-07
1.59553e-07
1.5993e-07
1.49578e-07
1.46724e-07
1.43327e-07
1.50113e-07
1.49957e-07
1.48877e-07
1.44679e-07
1.51542e-07
1.50486e-07
1.50491e-07
1.52529e-07
1.50652e-07
1.53242e-07
1.50121e-07
1.50711e-07
1.50797e-07
1.55708e-07
1.61435e-07
1.60555e-07
1.61919e-07
1.63271e-07
1.63248e-07
1.61768e-07
1.61731e-07
1.61797e-07
1.62628e-07
1.60969e-07
1.57896e-07
1.5892e-07
1.60433e-07
1.56776e-07
1.55922e-07
1.50959e-07
1.55965e-07
1.55851e-07
1.55584e-07
1.55695e-07
1.60764e-07
1.60812e-07
1.61901e-07
1.63185e-07
1.5994e-07
1.52386e-07
1.41413e-07
1.43822e-07
1.46669e-07
1.48212e-07
1.50768e-07
1.45404e-07
1.49843e-07
1.4773e-07