/*--------------------------------*- C++ -*----------------------------------*\
| =========                 |                                                 |
| \\      /  F ield         | OpenFOAM: The Open Source CFD Toolbox           |
|  \\    /   O peration     | Version:  v2012                                 |
|   \\  /    A nd           | Website:  www.openfoam.com                      |
|    \\/     M anipulation  |                                                 |
\*---------------------------------------------------------------------------*/
FoamFile
{
    version     2.0;
    format      ascii;
    class       surfaceVectorField;
    location    "0.9";
    object      Uf;
}
// * * * * * * * * * * * * * * * * * * * * * * * * * * * * * * * * * * * * * //

dimensions      [0 1 -1 0 0 0 0];


internalField   nonuniform List<vector> 
21888
(
(7.9661 0.107823 -1.78292e-24)
(7.91119 0.0970166 -1.00261e-23)
(7.94129 0.0840422 -1.78717e-24)
(7.94186 0.0970397 -1.48132e-21)
(7.93464 0.0796432 3.02634e-23)
(7.92868 0.0655379 5.52349e-22)
(7.94076 0.0556139 -9.07785e-24)
(7.93351 0.0696908 0)
(7.91155 0.0975433 -6.69017e-23)
(7.935 0.065026 1.26401e-23)
(7.89672 0.0800389 2.77191e-20)
(7.95034 0.0580989 -5.58881e-21)
(7.93294 0.0732118 -4.94568e-24)
(7.94419 0.0612213 -3.74994e-25)
(7.94628 0.114606 -3.52437e-20)
(7.93309 0.0681669 -3.44415e-21)
(7.93538 0.0621972 -1.27868e-23)
(7.92022 0.0561456 -2.84642e-23)
(7.92608 0.0768695 2.74117e-20)
(7.93824 0.0521842 1.63511e-23)
(7.95693 0.0623488 8.26663e-24)
(7.93493 0.0707054 2.79298e-24)
(7.95555 0.0527053 1.93075e-21)
(7.95644 0.0591959 2.13544e-22)
(7.89516 0.113486 1.46123e-23)
(7.92773 0.0695112 2.88076e-23)
(7.94279 0.062629 6.32012e-21)
(7.93379 0.0698742 -1.13305e-23)
(7.94628 0.0467554 6.10155e-21)
(7.88967 0.0766869 1.19178e-23)
(7.96167 0.0612199 -6.78028e-24)
(7.96362 0.0580496 3.75167e-24)
(7.92951 0.0682603 -4.76052e-21)
(7.94145 0.0662137 2.88027e-24)
(7.95389 0.0530251 6.37088e-24)
(7.95316 0.0522305 -7.46278e-25)
(7.95891 0.0546817 4.70306e-22)
(7.94209 0.121231 0)
(7.93308 0.0620793 1.54999e-23)
(7.92995 0.0725544 -7.7757e-22)
(7.95715 0.0523086 7.68667e-24)
(7.93842 0.045683 -6.42093e-21)
(7.91812 0.0533077 -1.73367e-23)
(7.92344 0.0771388 2.60355e-20)
(7.96737 0.0536872 2.14765e-21)
(7.9658 0.0521706 -5.95033e-24)
(7.95332 0.0582321 -3.40004e-21)
(7.94549 0.0625766 -3.79129e-24)
(7.9498 0.0555434 6.7056e-24)
(7.951 0.0505997 0)
(7.9538 0.0504783 0)
(7.96261 0.0504659 -5.91686e-24)
(7.9581 0.0504314 -1.31471e-24)
(7.92378 0.0867868 0)
(7.89592 0.125908 0)
(7.93149 0.0707948 4.93483e-24)
(7.93706 0.0689433 0)
(7.93159 0.0723945 1.7586e-21)
(7.96705 0.051374 1.37374e-23)
(7.94908 0.0468512 5.8313e-21)
(7.8904 0.0741731 4.15613e-23)
(7.96561 0.0491369 -3.58682e-22)
(7.94222 0.0666631 -1.51218e-24)
(7.94296 0.0624138 3.29283e-23)
(7.94547 0.052096 0)
(7.94422 0.0555732 -1.84873e-24)
(7.94827 0.0492411 0)
(7.9508 0.0464734 0)
(7.95548 0.0495297 1.72866e-24)
(7.95497 0.0469328 1.28359e-24)
(7.9576 0.0477983 1.28759e-22)
(7.9385 0.0774998 0)
(7.92252 0.0786358 0)
(7.95544 0.127812 -4.17749e-24)
(7.93401 0.0781143 8.99322e-24)
(7.93556 0.070473 2.5791e-22)
(7.97137 0.0487888 6.17576e-22)
(7.97043 0.0468507 7.12375e-24)
(7.96141 0.0492825 1.4136e-23)
(7.94517 0.0459869 -3.34697e-21)
(7.92764 0.0485765 -9.49926e-25)
(7.92464 0.0698019 5.88764e-23)
(7.96727 0.0465011 1.20887e-24)
(7.96368 0.0463623 -4.78219e-23)
(7.94053 0.0589407 -5.34029e-25)
(7.93795 0.0617996 1.35002e-24)
(7.94458 0.048234 0)
(7.93955 0.053844 -8.92204e-23)
(7.95403 0.0441879 1.46578e-24)
(7.95159 0.0431615 0)
(7.95596 0.0440519 -6.08075e-23)
(7.95978 0.0456211 -3.41467e-24)
(7.95798 0.0446087 1.26435e-22)
(7.92625 0.088032 -1.50157e-23)
(7.92915 0.0833283 -1.46129e-24)
(7.92162 0.0984923 1.01922e-22)
(7.9104 0.137494 -1.10579e-22)
(7.92754 0.0847253 -2.27003e-21)
(7.9319 0.0766898 2.18401e-23)
(7.93279 0.0728132 -4.45989e-23)
(7.93329 0.0691476 4.46904e-23)
(7.97253 0.0461981 7.52975e-24)
(7.96977 0.0440026 1.48705e-22)
(7.9601 0.0438604 -8.51318e-25)
(7.8966 0.0679647 3.49483e-20)
(7.96199 0.0431396 7.39226e-24)
(7.93349 0.064381 -1.06073e-24)
(7.93301 0.0595943 -4.02805e-24)
(7.94188 0.0467147 0)
(7.94501 0.044235 -6.07477e-25)
(7.939 0.0497712 -2.2167e-24)
(7.9357 0.0525712 -5.24812e-24)
(7.94849 0.0424529 -5.9133e-25)
(7.95261 0.0395761 1.42234e-24)
(7.95838 0.0416268 -4.45455e-23)
(7.92641 0.0900185 -2.22148e-21)
(7.91032 0.0868943 -1.03571e-20)
(7.96911 0.129561 -8.19572e-20)
(7.92972 0.0759365 2.81219e-22)
(7.92969 0.0675238 -3.08615e-24)
(7.97288 0.0412774 0)
(7.97525 0.041849 1.09342e-24)
(7.96767 0.0418057 4.74642e-23)
(7.97119 0.0416127 1.59627e-25)
(7.96878 0.036835 0)
(7.93505 0.0436354 1.36333e-21)
(7.92255 0.0666476 2.11513e-20)
(7.96446 0.0409451 -3.40416e-24)
(7.96279 0.040108 0)
(7.93332 0.05553 -4.78453e-22)
(7.92944 0.0580067 -3.438e-24)
(7.93944 0.0459892 8.52803e-25)
(7.94618 0.0407729 -9.32387e-23)
(7.93329 0.0514872 2.40653e-24)
(7.95249 0.0373623 -1.58392e-24)
(7.95488 0.0374836 1.31725e-22)
(7.96149 0.03905 -2.66983e-24)
(7.95901 0.0384 -3.03598e-24)
(7.92498 0.0848001 -8.11051e-24)
(7.91883 0.0911293 2.00327e-21)
(7.91531 0.0914843 7.5424e-23)
(7.91659 0.084383 -5.33691e-21)
(7.91668 0.0889875 4.3836e-23)
(7.91009 0.141169 9.47568e-23)
(7.92763 0.0801792 1.25875e-23)
(7.92615 0.0764812 1.60052e-23)
(7.92531 0.0714067 7.53748e-24)
(7.9241 0.066259 -1.57345e-22)
(7.97364 0.0411224 1.64098e-24)
(7.97557 0.0397725 -1.50562e-22)
(7.96591 0.0392362 1.1781e-22)
(7.97071 0.0392016 -4.18219e-23)
(7.96498 0.0342798 4.14743e-24)
(7.97297 0.0366789 3.44235e-25)
(7.97282 0.0332763 4.06469e-21)
(7.89516 0.063874 2.69816e-23)
(7.96398 0.0370616 0)
(7.92687 0.0586739 0)
(7.92843 0.0545479 0)
(7.93676 0.0455558 6.3804e-24)
(7.94007 0.0429425 2.18883e-22)
(7.94492 0.0391753 -3.66484e-24)
(7.9479 0.0379667 -5.05199e-22)
(7.9303 0.0508527 5.65992e-24)
(7.93319 0.0477075 -5.19928e-22)
(7.95061 0.0358294 -5.0219e-24)
(7.95223 0.0346047 3.79506e-22)
(7.95646 0.0366178 3.11775e-24)
(7.95487 0.0346106 3.10485e-22)
(7.95986 0.0341433 0)
(7.92306 0.0824212 -7.84818e-22)
(7.91987 0.0982154 -7.03799e-22)
(7.91 0.0859197 -7.82574e-21)
(7.97963 0.159182 0)
(7.92132 0.0758617 -2.42319e-22)
(7.92402 0.0628094 -2.16902e-24)
(7.92016 0.0657624 -2.13595e-24)
(7.97641 0.0375742 5.87905e-25)
(7.97401 0.0372695 3.11345e-24)
(7.96803 0.0374655 -1.81933e-24)
(7.96696 0.0367804 -6.90222e-25)
(7.97018 0.0368228 2.81762e-24)
(7.97491 0.0371598 -4.96929e-22)
(7.9647 0.0313056 -3.34779e-24)
(7.97736 0.0376396 -2.80941e-24)
(7.93519 0.0377415 -1.07957e-23)
(7.92635 0.0623872 2.22674e-20)
(7.96673 0.0355126 2.31951e-24)
(7.96527 0.0342767 0)
(7.92405 0.0585377 -1.06388e-24)
(7.92719 0.0507293 4.91306e-24)
(7.93376 0.0440834 6.78202e-23)
(7.94261 0.0392576 1.13505e-24)
(7.93877 0.0388747 1.54139e-24)
(7.94494 0.0359117 -1.3215e-22)
(7.94911 0.0343734 3.46562e-23)
(7.95497 0.0325839 -2.01406e-22)
(7.96326 0.0324469 0)
(7.96141 0.0307061 0)
(7.91881 0.0842543 4.84974e-22)
(7.91922 0.0894615 -1.02618e-24)
(7.92106 0.0984687 -5.30249e-24)
(7.92001 0.0990555 -1.83786e-21)
(7.92366 0.0921957 -8.30448e-24)
(7.92279 0.120877 -1.39086e-23)
(7.9369 0.138371 1.58579e-22)
(7.9184 0.0801883 -6.1022e-24)
(7.9176 0.0750815 7.678e-24)
(7.91719 0.0676078 -2.45855e-24)
(7.91887 0.0631509 0)
(7.97239 0.0348194 3.22861e-22)
(7.96893 0.0340765 -4.14246e-23)
(7.97899 0.0374455 2.2693e-24)
(7.97557 0.0339322 2.18557e-24)
(7.97233 0.0300036 0)
(7.97913 0.0367709 1.49843e-21)
(7.90153 0.0595499 4.25784e-23)
(7.96634 0.0309512 4.49804e-25)
(7.92082 0.0596765 -9.36085e-25)
(7.92226 0.0560755 3.14256e-22)
(7.92246 0.051504 -3.55017e-22)
(7.92475 0.0473918 -1.61129e-22)
(7.93457 0.0392314 1.48005e-23)
(7.93116 0.0409597 2.5389e-22)
(7.93703 0.0356824 2.06674e-23)
(7.94752 0.0333712 5.89215e-24)
(7.94447 0.0329075 -2.05196e-24)
(7.95032 0.0313793 6.65532e-25)
(7.95779 0.0298429 -1.39441e-25)
(7.95545 0.0301319 -7.93855e-25)
(7.96 0.0288797 0)
(7.96309 0.0275916 0)
(7.91518 0.0838353 -2.60455e-22)
(7.91208 0.0958722 -1.52294e-23)
(7.89959 0.104276 1.36453e-20)
(7.92638 0.0900383 -1.09823e-21)
(7.89274 0.140068 -9.18409e-20)
(7.91498 0.0722258 2.62735e-22)
(7.91273 0.0762279 8.9815e-25)
(7.91192 0.0688252 -2.75056e-24)
(7.9171 0.0605139 0)
(7.97383 0.0323785 4.14899e-25)
(7.97236 0.0328642 6.58285e-24)
(7.9711 0.032599 -8.77618e-23)
(7.97005 0.0312726 1.0271e-23)
(7.97462 0.0319772 0)
(7.97682 0.0314322 0)
(7.96723 0.0291965 0)
(7.979 0.0339756 3.05675e-25)
(7.97954 0.0329459 -3.78041e-24)
(7.98192 0.0347662 -3.29345e-24)
(7.94384 0.0331889 0)
(7.93772 0.0591463 0)
(7.96899 0.0293793 2.4681e-24)
(7.96749 0.0279905 -1.13495e-24)
(7.91888 0.0532287 6.85646e-24)
(7.92728 0.0433349 3.44763e-24)
(7.92254 0.0441215 5.03192e-22)
(7.92868 0.038002 8.84481e-24)
(7.94024 0.0325975 6.38202e-24)
(7.93674 0.0325021 9.3412e-25)
(7.94337 0.0293891 7.15998e-24)
(7.95349 0.029588 -6.61117e-25)
(7.95076 0.0280295 2.80312e-24)
(7.95887 0.0266938 0)
(7.95565 0.0273234 -4.57404e-23)
(7.96598 0.0264842 4.44608e-25)
(7.96472 0.0245769 8.93191e-24)
(7.91195 0.0807603 7.36533e-23)
(7.91134 0.0863153 -7.5431e-24)
(7.9036 0.0956277 2.35907e-21)
(7.91181 0.0910018 -7.42964e-24)
(7.89499 0.105937 -2.70824e-23)
(7.90648 0.0986447 5.2308e-21)
(7.9226 0.0894956 1.33823e-23)
(7.93622 0.178378 -8.35876e-23)
(7.90903 0.0776633 8.43072e-25)
(7.90694 0.0696334 0)
(7.90952 0.0645811 0)
(7.9153 0.0562851 2.33294e-24)
(7.91326 0.0600143 0)
(7.97581 0.0301945 0)
(7.97334 0.0305133 5.33353e-24)
(7.9711 0.0284576 -3.89917e-23)
(7.97884 0.0305947 3.58205e-24)
(7.97729 0.0291138 -5.3888e-24)
(7.98172 0.0329558 1.40138e-21)
(7.91522 0.0597966 0)
(7.96879 0.0251735 3.98394e-25)
(7.91501 0.0524161 5.12515e-23)
(7.92148 0.0389616 -5.95411e-24)
(7.91847 0.0435033 1.7155e-23)
(7.92534 0.035686 2.43361e-23)
(7.92975 0.0333155 1.54402e-22)
(7.93403 0.0310416 -9.19907e-24)
(7.93737 0.0281462 0)
(7.9431 0.0267738 5.68131e-24)
(7.94612 0.0269064 2.50568e-22)
(7.94875 0.0260698 5.01543e-24)
(7.95153 0.0248321 -1.3152e-22)
(7.95746 0.0247065 -5.40359e-24)
(7.95992 0.0233278 4.73155e-24)
(7.9551 0.0240923 -1.71193e-22)
(7.96319 0.0226669 -1.19598e-22)
(7.96612 0.0217875 5.25752e-23)
(7.91047 0.09059 0)
(7.90723 0.0885086 1.89306e-24)
(7.91069 0.0922354 -1.06588e-23)
(7.89639 0.107213 8.9103e-25)
(7.94846 0.108055 4.17555e-23)
(7.90768 0.114925 2.97211e-24)
(7.92547 0.115829 -7.66712e-21)
(7.8588 0.165558 7.51449e-23)
(7.90589 0.0752203 0)
(7.90514 0.0799647 -7.37225e-24)
(7.90263 0.0714481 5.16798e-25)
(7.90764 0.0601313 9.17414e-24)
(7.97646 0.0280566 5.33802e-25)
(7.9779 0.0282965 -4.44015e-24)
(7.97331 0.0280448 1.91486e-24)
(7.97492 0.0281525 4.51427e-25)
(7.97263 0.0263054 2.37219e-24)
(7.97924 0.028968 -3.93607e-25)
(7.98 0.02895 6.60691e-24)
(7.98292 0.029138 -4.82045e-22)
(7.9796 0.0245003 -5.60466e-24)
(7.98245 0.0295583 -4.1466e-24)
(7.95025 0.0686258 8.72208e-23)
(7.9497 0.0301353 0)
(7.97082 0.0239012 -8.81691e-25)
(7.96978 0.0225257 9.145e-24)
(7.91544 0.0485743 5.36362e-22)
(7.91112 0.0517414 1.54359e-23)
(7.92124 0.0347117 3.74003e-24)
(7.91466 0.0431933 -1.0776e-24)
(7.93099 0.0282087 -1.7263e-22)
(7.94095 0.0254144 3.46785e-24)
(7.93757 0.0237238 -8.11941e-24)
(7.94351 0.0230193 -2.98077e-22)
(7.94794 0.0236821 7.08234e-24)
(7.95407 0.0221626 -2.41638e-24)
(7.96155 0.020374 4.5807e-24)
(7.96891 0.0206415 3.35605e-22)
(7.96749 0.018916 2.08391e-23)
(7.90461 0.0852116 8.91014e-24)
(7.90313 0.0905136 1.39467e-24)
(7.90514 0.101049 6.53249e-22)
(7.90602 0.0959177 1.48273e-21)
(7.89516 0.106096 -5.88837e-24)
(7.93231 0.0775037 5.1057e-23)
(7.89208 0.107545 5.27758e-21)
(7.89288 0.119728 -2.98368e-24)
(7.93226 0.154052 -1.89118e-23)
(7.90066 0.0821156 -9.81723e-23)
(7.89826 0.0684983 -2.20229e-23)
(7.89794 0.0745445 -6.39826e-25)
(7.90703 0.0545542 1.25963e-23)
(7.90314 0.0582914 2.45165e-22)
(7.97644 0.0261807 7.59854e-23)
(7.97915 0.0281552 8.2483e-23)
(7.97956 0.0261062 -4.15378e-24)
(7.97246 0.0243935 -7.17668e-25)
(7.97445 0.0243457 2.46372e-24)
(7.98066 0.0272111 -7.87096e-25)
(7.98213 0.0275358 4.23761e-24)
(7.97093 0.0207932 0)
(7.97922 0.0274893 -5.87959e-25)
(7.93705 0.0544917 4.50477e-20)
(7.97636 0.0213833 0)
(7.97278 0.0221789 -6.20359e-23)
(7.97079 0.0201106 7.52263e-24)
(7.90835 0.0502961 4.2237e-23)
(7.9173 0.0331137 0)
(7.92191 0.0305443 3.74658e-24)
(7.90992 0.0450077 -1.10546e-24)
(7.91182 0.0405222 1.07374e-22)
(7.93191 0.0243134 -6.73501e-24)
(7.92817 0.0263155 1.65122e-24)
(7.93427 0.0213127 -1.29933e-23)
(7.93772 0.0188639 3.79108e-22)
(7.94671 0.0215262 7.88603e-24)
(7.94436 0.0200209 7.26128e-24)
(7.94955 0.0207815 -1.99273e-22)
(7.95289 0.0199203 5.19765e-24)
(7.95629 0.018893 0)
(7.96376 0.0182714 4.83608e-24)
(7.96075 0.0186333 0)
(7.96607 0.0173765 -1.19182e-22)
(7.96882 0.0163644 2.00823e-22)
(7.90123 0.0938911 1.25206e-21)
(7.89783 0.0909534 5.26259e-22)
(7.90156 0.0988126 -7.19138e-24)
(7.89344 0.104736 4.2734e-22)
(7.91156 0.107546 -5.27057e-24)
(7.91519 0.0921842 -1.54607e-20)
(7.90045 0.108353 2.93217e-21)
(7.89503 0.112294 -5.32711e-24)
(7.87311 0.155219 5.68631e-20)
(7.89683 0.0802634 3.14305e-23)
(7.89599 0.084831 -8.7598e-24)
(7.89808 0.0617058 8.88686e-25)
(7.89279 0.065817 3.00503e-22)
(7.89368 0.0778943 -9.9194e-25)
(7.89884 0.0555015 6.75147e-24)
(7.97624 0.02428 1.03221e-25)
(7.97793 0.0241901 2.08487e-25)
(7.97981 0.0240252 0)
(7.98132 0.0241391 -4.24944e-24)
(7.97619 0.0223257 4.2904e-23)
(7.98192 0.025016 -9.18201e-25)
(7.98218 0.0260105 2.66473e-22)
(7.98265 0.0264253 1.46817e-24)
(7.98298 0.0269787 -7.28961e-24)
(7.9831 0.0287766 9.32614e-22)
(7.98051 0.0317877 8.37649e-22)
(7.97125 0.0308399 -4.54068e-23)
(7.96505 0.0485106 -4.47645e-23)
(7.97793 0.0310537 6.13027e-24)
(7.97274 0.0200567 -1.67645e-24)
(7.97438 0.0202829 -8.2008e-25)
(7.97263 0.0181934 9.32779e-23)
(7.90574 0.0473747 -6.78063e-25)
(7.91321 0.0346193 7.03786e-24)
(7.91463 0.0295952 0)
(7.92519 0.0271421 1.00379e-22)
(7.92087 0.0260453 7.11036e-24)
(7.90804 0.0369961 -1.63576e-23)
(7.93101 0.0193911 -5.20922e-22)
(7.92591 0.022903 -1.19874e-23)
(7.94186 0.0175633 -4.18452e-24)
(7.93873 0.0150367 -3.7068e-24)
(7.94534 0.016423 -1.62743e-23)
(7.95117 0.0175543 -6.02376e-24)
(7.95899 0.0173741 0)
(7.95704 0.0152371 0)
(7.96511 0.0155541 2.04081e-24)
(7.96117 0.0153864 -2.75363e-24)
(7.96954 0.0135 6.12783e-23)
(7.97125 0.0150956 6.82197e-24)
(7.89339 0.0895135 -4.25001e-24)
(7.89776 0.103801 -4.31075e-24)
(7.89886 0.100652 1.13971e-24)
(7.89407 0.106105 4.94029e-25)
(7.92523 0.100501 5.20364e-23)
(7.89408 0.111168 3.84725e-24)
(7.89369 0.114679 -7.36943e-24)
(7.95335 0.160571 1.05737e-22)
(7.8901 0.0699771 -6.94367e-24)
(7.88867 0.0640311 -8.32854e-24)
(7.89014 0.0744125 0)
(7.8898 0.0805845 3.28259e-24)
(7.90055 0.0499269 9.32125e-25)
(7.89512 0.0520545 9.62024e-25)
(7.9796 0.0222137 -3.20288e-24)
(7.98294 0.0229013 9.40894e-23)
(7.97608 0.0203727 -2.41992e-25)
(7.97785 0.0204277 -3.39366e-24)
(7.98305 0.0251413 3.32637e-24)
(7.98674 0.02558 -1.21284e-21)
(7.98078 0.027957 8.13752e-24)
(7.97748 0.0395923 -3.08798e-21)
(7.97525 0.0558102 1.68682e-23)
(7.97617 0.0184517 6.70698e-26)
(7.97287 0.0163786 -1.88941e-22)
(7.97475 0.0166016 2.18576e-24)
(7.90178 0.0441286 6.553e-24)
(7.91664 0.0247992 4.34813e-24)
(7.91223 0.0251059 -2.6289e-25)
(7.919 0.0215804 -1.92524e-22)
(7.90354 0.0397637 2.91226e-22)
(7.90455 0.0338879 2.32418e-22)
(7.92621 0.0188492 4.7077e-22)
(7.92927 0.0159309 -2.91136e-23)
(7.92302 0.0194107 -4.69173e-22)
(7.94036 0.0111997 3.65696e-23)
(7.93629 0.0118714 -8.6974e-25)
(7.94878 0.0152524 1.83577e-22)
(7.94631 0.0131761 5.58308e-24)
(7.95233 0.0142192 -1.41769e-22)
(7.95524 0.0129457 -3.68648e-24)
(7.95779 0.0120555 0)
(7.96355 0.014069 9.01242e-24)
(7.96577 0.0132441 -1.66367e-24)
(7.96187 0.0129372 -5.47092e-24)
(7.9679 0.0120897 4.45391e-24)
(7.97001 0.0111826 -5.09705e-23)
(7.97319 0.0137598 3.00058e-24)
(7.8918 0.0942363 8.53576e-22)
(7.88904 0.0889468 6.07321e-24)
(7.89349 0.0982256 1.91958e-24)
(7.89519 0.103536 -3.60488e-23)
(7.89238 0.110925 -1.7085e-22)
(7.9139 0.130454 -7.67498e-25)
(7.90457 0.113272 0)
(7.90055 0.113742 -8.09391e-24)
(7.89581 0.118621 -3.22971e-22)
(7.91795 0.147364 -3.34595e-21)
(7.88569 0.0725439 1.36686e-24)
(7.88258 0.0652787 1.29105e-24)
(7.88669 0.0601568 0)
(7.88658 0.0855895 1.44923e-22)
(7.8836 0.081998 3.22431e-24)
(7.88989 0.0537258 0)
(7.89134 0.0474216 9.96895e-24)
(7.9795 0.020349 -3.34533e-23)
(7.98131 0.0203082 -3.00978e-24)
(7.98378 0.020983 2.57267e-24)
(7.98475 0.0219302 2.30096e-23)
(7.97957 0.0185328 -3.16687e-24)
(7.98466 0.022973 9.54826e-24)
(7.98471 0.0240882 9.50482e-25)
(7.98617 0.0245288 -1.1271e-22)
(7.98738 0.0237729 1.73371e-24)
(7.98325 0.0279197 2.30467e-24)
(7.98589 0.0248885 1.63465e-24)
(7.99181 0.0240096 1.85859e-24)
(7.95195 0.0457372 6.68416e-24)
(7.97633 0.0165553 0)
(7.9779 0.0166721 0)
(7.97621 0.0149661 0)
(7.8982 0.0412243 5.65788e-24)
(7.90911 0.0209735 1.0893e-23)
(7.90775 0.0254492 -2.49014e-25)
(7.91845 0.0176451 8.30561e-23)
(7.90423 0.0290875 2.39526e-24)
(7.89918 0.0328558 2.0507e-24)
(7.93273 0.0119887 -2.75581e-22)
(7.92773 0.0114978 3.18121e-22)
(7.94394 0.0106624 5.82547e-23)
(7.94195 0.00761562 1.03358e-23)
(7.93505 0.00785979 1.72223e-23)
(7.9474 0.0100179 5.37001e-24)
(7.95278 0.0107907 -1.77322e-25)
(7.96025 0.0115637 -3.16836e-24)
(7.95871 0.00947483 3.53206e-25)
(7.96629 0.0106768 -1.9628e-23)
(7.96253 0.0107815 -9.21519e-23)
(7.97073 0.00886245 3.12084e-24)
(7.97224 0.010287 3.12331e-24)
(7.97558 0.0128711 0)
(7.97402 0.0116709 0)
(7.88743 0.0976037 3.70213e-24)
(7.88364 0.090904 -3.17207e-25)
(7.89345 0.108577 3.13821e-24)
(7.88887 0.105516 2.72821e-24)
(7.8924 0.117217 2.44656e-22)
(7.89231 0.114261 -3.68212e-23)
(7.90366 0.124938 2.85674e-23)
(7.89336 0.121972 -4.24278e-22)
(7.85297 0.120463 -1.27367e-24)
(7.95692 0.0965615 6.20936e-24)
(7.88188 0.0709051 -1.41114e-22)
(7.88157 0.0756048 1.54164e-24)
(7.87831 0.0673563 1.3331e-24)
(7.883 0.0546273 8.85645e-24)
(7.87843 0.0803001 -1.43017e-24)
(7.89357 0.0419213 8.34889e-24)
(7.88762 0.0423752 -6.58975e-23)
(7.98284 0.0200628 2.18334e-24)
(7.98268 0.0182348 -1.56633e-22)
(7.98481 0.0190842 1.73822e-22)
(7.98623 0.0210329 -4.17045e-23)
(7.97959 0.016678 0)
(7.98126 0.0166968 0)
(7.98548 0.0229518 1.63532e-25)
(7.98802 0.0237243 8.51867e-22)
(7.98775 0.0229533 9.55904e-25)
(7.98826 0.0250877 1.45508e-24)
(7.9923 0.0268285 0)
(7.98534 0.0208323 0)
(7.97534 0.0233987 5.3352e-24)
(7.97639 0.0432318 -1.24758e-20)
(7.97963 0.0148774 5.21149e-24)
(7.97734 0.01286 2.93011e-24)
(7.89592 0.036705 1.04813e-22)
(7.90527 0.0168977 7.07903e-24)
(7.91006 0.0161819 8.40979e-24)
(7.90224 0.0243026 5.39469e-24)
(7.91429 0.0151231 -1.42973e-22)
(7.9193 0.0131181 4.05047e-24)
(7.89391 0.0320325 -6.33335e-25)
(7.92311 0.0101534 -1.10749e-23)
(7.92702 0.00634735 -8.62717e-24)
(7.94388 0.00490606 -5.70674e-25)
(7.94043 0.00504415 3.31165e-24)
(7.93769 0.00405066 8.76799e-23)
(7.93406 0.0035999 5.81775e-22)
(7.95014 0.00923825 2.76801e-24)
(7.94853 0.00701034 0)
(7.95293 0.00817485 2.31029e-22)
(7.95764 0.00724434 -2.09571e-25)
(7.9602 0.00746294 -4.56698e-24)
(7.96453 0.00941117 -2.5667e-24)
(7.96684 0.00821095 4.01138e-23)
(7.96265 0.00810062 -1.05062e-22)
(7.96916 0.00695964 3.06397e-24)
(7.97166 0.00596576 0)
(7.97474 0.00932531 -3.65974e-24)
(7.88361 0.0967809 2.86464e-24)
(7.88393 0.100967 -7.23153e-22)
(7.87966 0.0938092 0)
(7.89015 0.115919 3.94132e-24)
(7.8825 0.105638 1.64221e-24)
(7.93241 0.126643 -1.02198e-20)
(7.89699 0.140347 2.42437e-23)
(7.8906 0.132784 -2.08353e-21)
(7.88955 0.126963 -5.89734e-24)
(7.91914 0.264764 0)
(7.96906 0.101647 2.60894e-23)
(7.87241 0.0709761 -1.5703e-24)
(7.87368 0.0641095 1.88599e-23)
(7.87533 0.056227 -4.72118e-22)
(7.87842 0.0495435 -1.00294e-23)
(7.87256 0.0777084 -1.26053e-23)
(7.8733 0.0851006 -1.25562e-23)
(7.88181 0.0425905 -6.93929e-24)
(7.88451 0.0364726 -1.17778e-22)
(7.98273 0.0166896 1.42158e-25)
(7.98411 0.0166798 -1.78083e-24)
(7.98559 0.0168374 -1.56994e-22)
(7.98645 0.0177539 2.45917e-25)
(7.98716 0.0192777 5.99512e-24)
(7.98755 0.0201162 1.2081e-22)
(7.98297 0.0150026 -7.96536e-25)
(7.98694 0.0219166 -6.5578e-25)
(7.98695 0.0211226 1.8937e-23)
(7.9879 0.0218055 0)
(7.98912 0.0225794 0)
(7.99044 0.0248223 1.97996e-24)
(7.99267 0.0267277 1.58331e-24)
(7.99246 0.0264463 0)
(7.98808 0.0217387 0)
(7.96006 0.0418687 -2.97115e-23)
(7.97934 0.0129878 -9.59456e-24)
(7.98117 0.0130857 -1.37889e-23)
(7.97885 0.0110198 5.82829e-24)
(7.90007 0.0185199 -7.62802e-22)
(7.90116 0.0138778 -3.15692e-22)
(7.91231 0.0112846 -9.12844e-24)
(7.89694 0.0218591 -1.94201e-23)
(7.91933 0.00786543 2.64722e-24)
(7.88793 0.0309759 1.87131e-23)
(7.8919 0.0257823 -6.00959e-25)
(7.93039 0.00345646 -1.02778e-22)
(7.92664 0.00279233 -5.09404e-22)
(7.94702 0.00411249 -5.97997e-25)
(7.9457 0.00158764 -1.23122e-23)
(7.94038 0.00103184 3.60351e-24)
(7.93289 -5.94657e-06 1.66956e-23)
(7.94973 0.00403964 0)
(7.95492 0.00625056 -2.01206e-24)
(7.95257 0.00479712 1.90466e-24)
(7.95736 0.00399797 5.3732e-24)
(7.96241 0.00584826 2.48074e-25)
(7.96719 0.00544008 7.16861e-24)
(7.97395 0.00555097 0)
(7.97263 0.00379971 9.8836e-24)
(7.97537 0.00680591 -3.16394e-24)
(7.97689 0.0081986 -3.44687e-23)
(7.87372 0.0923831 -1.08784e-23)
(7.87451 0.0989312 0)
(7.88717 0.121582 1.67461e-24)
(7.88329 0.115962 4.52304e-23)
(7.87664 0.105416 0)
(7.87939 0.110974 -5.28963e-24)
(7.88833 0.145024 -1.34719e-24)
(7.88804 0.126232 0)
(7.88849 0.131924 0)
(8.03251 0.241221 1.06909e-22)
(7.98853 0.155231 8.68169e-21)
(7.93407 0.136119 -1.99583e-20)
(7.86721 0.0745706 -1.56931e-24)
(7.86842 0.058807 3.45831e-22)
(7.8736 0.0430542 3.82056e-22)
(7.86696 0.0901851 -1.50444e-22)
(7.88157 0.0298386 8.53314e-24)
(7.98584 0.015296 -2.28566e-24)
(7.98811 0.0167735 0)
(7.98886 0.019282 6.23232e-24)
(7.98302 0.0131279 6.09536e-25)
(7.98461 0.0133628 1.42409e-23)
(7.98974 0.0205774 0)
(7.99277 0.0221103 -1.14873e-22)
(7.99099 0.0238974 0)
(7.99399 0.0227142 0)
(7.98704 0.0225794 -2.20218e-25)
(7.97967 0.0246269 -7.99315e-22)
(7.97834 0.0352754 1.85626e-20)
(7.98269 0.0113602 -2.6911e-23)
(7.97849 0.00929709 -1.57461e-22)
(7.98045 0.00960361 2.7007e-24)
(7.89732 0.00894995 -1.02408e-24)
(7.90357 0.00710555 1.86061e-24)
(7.915 0.00660348 1.18314e-22)
(7.91045 0.0063539 -4.54574e-24)
(7.89078 0.0191219 -5.62038e-25)
(7.91893 0.00352202 1.74368e-22)
(7.92368 0.000955257 -6.87851e-24)
(7.92698 -0.00138297 4.9722e-24)
(7.94389 -0.000543015 8.14876e-24)
(7.94702 -0.00158437 7.75854e-24)
(7.94107 -0.00226037 2.07631e-24)
(7.93079 -0.00288036 0)
(7.93454 -0.00371643 5.85279e-24)
(7.95223 0.00202658 1.21241e-24)
(7.95749 0.00120482 -5.98483e-23)
(7.9599 0.00226745 2.98192e-24)
(7.96461 0.00434081 7.28305e-24)
(7.96239 0.00331837 6.25184e-25)
(7.96724 0.0028699 1.06801e-22)
(7.97602 0.00500262 -1.41689e-25)
(7.97398 0.00217663 -6.97048e-23)
(7.97176 0.00198938 -1.16339e-22)
(7.9783 0.00701151 2.21213e-22)
(7.87079 0.103998 0)
(7.88512 0.127773 0)
(7.87662 0.11679 -1.74352e-22)
(7.89537 0.140811 6.66787e-23)
(7.88569 0.143627 1.82129e-21)
(7.88711 0.139154 2.94203e-24)
(7.88594 0.136751 0)
(7.95443 0.227037 -4.24851e-20)
(7.91743 0.155644 5.69121e-23)
(7.86068 0.0794071 -3.59586e-24)
(7.86116 0.0707985 1.532e-23)
(7.86147 0.0628254 2.58201e-23)
(7.86156 0.0546096 1.72809e-23)
(7.86643 0.0425486 -1.86338e-23)
(7.87059 0.0356784 -2.1165e-23)
(7.86018 0.0876806 -1.75244e-23)
(7.86057 0.0953615 -1.45172e-23)
(7.87404 0.0283633 1.75127e-23)
(7.87933 0.0218912 1.95372e-23)
(7.98601 0.0134236 -1.26666e-24)
(7.98741 0.0135207 0)
(7.98956 0.0165387 0)
(7.98904 0.0150382 -2.17807e-24)
(7.98999 0.0173673 3.05784e-24)
(7.9902 0.018266 -6.38874e-23)
(7.98623 0.0117336 -8.00816e-23)
(7.99063 0.0187011 4.21788e-24)
(7.99145 0.018727 0)
(7.99486 0.0204629 1.43752e-24)
(7.99349 0.0197139 1.72653e-24)
(7.99605 0.0205559 0)
(7.99491 0.0204915 -2.60687e-25)
(7.96578 0.031955 -1.75184e-20)
(7.98222 0.00956382 -2.22052e-25)
(7.98401 0.00963869 -3.67344e-25)
(7.98143 0.00796806 -6.12406e-23)
(7.89032 0.0116931 -2.77751e-24)
(7.89109 0.00509047 -2.38276e-22)
(7.907 0.00184143 -1.41067e-23)
(7.88488 0.0158071 1.17789e-24)
(7.91894 -0.00121092 5.22307e-24)
(7.92724 -0.00519701 -1.84743e-24)
(7.94783 -0.00490006 1.48566e-23)
(7.94995 -0.00247715 8.68464e-24)
(7.9382 -0.00510563 -8.48703e-23)
(7.94192 -0.00682282 5.638e-23)
(7.93472 -0.00855151 1.00618e-23)
(7.95507 8.69713e-05 2.06203e-23)
(7.95239 -0.00104326 1.25206e-24)
(7.95773 -0.00171525 6.81695e-24)
(7.96246 0.000584102 -3.10228e-23)
(7.96955 0.00121871 1.07799e-22)
(7.96727 2.57324e-05 8.89736e-24)
(7.97631 0.00261769 -1.60428e-22)
(7.9778 0.00382425 -7.21421e-24)
(7.9762 0.000751607 -5.98383e-24)
(7.97166 -0.000707568 -5.73235e-23)
(7.98032 0.00612893 -2.47911e-24)
(7.97903 0.00517616 2.82157e-24)
(7.86338 0.103018 0)
(7.86662 0.110219 0)
(7.88271 0.134181 0)
(7.87831 0.130302 1.59295e-23)
(7.86995 0.117478 -1.05338e-23)
(7.8733 0.1234 -2.9663e-22)
(7.88353 0.145065 1.00174e-23)
(7.88316 0.140909 6.47117e-24)
(7.92418 0.184701 1.64181e-22)
(7.93219 0.181229 2.45355e-22)
(7.89713 0.161063 0)
(7.85277 0.0838156 -3.63376e-24)
(7.85442 0.066937 -1.87391e-22)
(7.8617 0.0488046 7.2743e-24)
(7.85407 0.051831 -2.05417e-22)
(7.85936 0.0404875 0)
(7.86715 0.0277265 0)
(7.85569 0.101613 -3.02223e-24)
(7.87684 0.0137909 -4.0441e-24)
(7.98878 0.0116677 0)
(7.98832 0.0132387 -3.98379e-24)
(7.991 0.015918 2.85172e-24)
(7.98903 0.013803 6.74006e-24)
(7.99046 0.0138123 -3.19215e-24)
(7.9918 0.0167636 2.32391e-24)
(7.98605 0.0096303 -3.58326e-25)
(7.98779 0.00986399 -3.46566e-25)
(7.99275 0.0185647 0)
(7.99291 0.0167437 0)
(7.99425 0.0176755 0)
(7.99715 0.0188919 0)
(7.9965 0.0181317 0)
(7.99702 0.0156597 -5.52763e-24)
(7.98122 0.0299991 -9.26294e-21)
(7.98573 0.016564 1.17432e-23)
(7.98527 0.00794037 2.77063e-24)
(7.98213 0.00605317 -4.73473e-26)
(7.8854 0.00145734 4.79465e-22)
(7.89297 -0.000821661 -1.95837e-23)
(7.9037 -0.00310758 -1.31922e-23)
(7.91059 -0.00341865 -4.59356e-22)
(7.91509 -0.00410518 -1.4382e-23)
(7.91933 -0.00567058 -2.06909e-24)
(7.92295 -0.00790659 7.43465e-24)
(7.92698 -0.00976484 -1.29123e-24)
(7.94587 -0.0081933 -1.86198e-22)
(7.9486 -0.00857103 -5.56905e-22)
(7.95271 -0.00406808 -2.73769e-24)
(7.94226 -0.0110969 -1.92212e-23)
(7.93092 -0.0114285 2.74271e-23)
(7.93456 -0.0126964 5.48696e-24)
(7.95767 -0.00488774 -6.89239e-24)
(7.96031 -0.00352151 -7.8434e-24)
(7.96495 -0.00106071 2.45687e-24)
(7.96262 -0.00226699 -3.90083e-25)
(7.96723 -0.00266918 -1.53192e-24)
(7.98035 0.00284121 5.52422e-23)
(7.97578 -0.00157699 3.1797e-23)
(7.97811 -0.00109183 -1.16116e-22)
(7.97363 -0.00223292 -4.12407e-24)
(7.97141 -0.00308708 6.18957e-23)
(7.86256 0.117434 0)
(7.86987 0.131565 -1.74296e-22)
(7.88347 0.148976 -9.50361e-23)
(7.88363 0.149745 5.73326e-24)
(7.88408 0.147925 -8.00077e-22)
(7.87975 0.14523 6.29933e-24)
(7.93758 0.125816 -1.25988e-20)
(7.8574 0.204507 6.54532e-23)
(7.88806 0.15073 0)
(7.88736 0.159048 -1.37402e-23)
(7.84482 0.0868845 -1.38594e-23)
(7.84622 0.0773013 0)
(7.84877 0.0706705 1.40251e-23)
(7.84776 0.0621989 2.16909e-23)
(7.84645 0.0539745 -2.95098e-22)
(7.848 0.0471742 -3.02627e-23)
(7.85144 0.04091 1.17431e-24)
(7.85641 0.0349682 6.63833e-24)
(7.86009 0.0293077 7.50275e-24)
(7.86219 0.0221369 -1.68297e-24)
(7.84779 0.100519 -2.15214e-22)
(7.85163 0.108877 -1.77259e-23)
(7.86867 0.0111734 4.6791e-24)
(7.87482 0.00610802 5.4251e-22)
(7.98909 0.0103023 0)
(7.99019 0.0104138 -7.74317e-25)
(7.99005 0.0121635 -8.45592e-23)
(7.99145 0.0142146 1.59226e-24)
(7.99217 0.0147533 4.31866e-23)
(7.99172 0.0128548 4.86146e-23)
(7.99257 0.015217 -5.33084e-25)
(7.99298 0.0154881 3.507e-23)
(7.98914 0.0084812 0)
(7.99354 0.0153473 -5.50749e-25)
(7.99426 0.0150295 3.40179e-24)
(7.99573 0.0171988 0)
(7.99506 0.0158017 3.81166e-24)
(7.99712 0.0164663 0)
(7.99531 0.0132343 -9.85645e-24)
(7.99709 0.0148561 4.7031e-22)
(7.97125 0.025852 1.73871e-20)
(7.99941 0.0115881 -1.98564e-21)
(7.98424 0.00623776 2.67135e-24)
(7.98634 0.00621376 9.69517e-23)
(7.98357 0.00433387 -3.30819e-24)
(7.88038 0.00200401 -2.16255e-23)
(7.88311 -0.00458798 -1.07588e-23)
(7.89763 -0.00442226 -6.93907e-24)
(7.8922 -0.00786621 -3.44361e-22)
(7.90135 -0.00973101 7.66656e-24)
(7.91237 -0.0085242 -1.46974e-23)
(7.91902 -0.0107762 -2.12966e-24)
(7.92683 -0.0142181 2.03564e-22)
(7.95222 -0.00775629 7.48299e-24)
(7.95074 -0.0107794 -5.60276e-23)
(7.95492 -0.00622839 2.70557e-23)
(7.93831 -0.0139403 -6.614e-24)
(7.94212 -0.0149756 -1.69483e-22)
(7.93489 -0.0166508 -2.8057e-23)
(7.95738 -0.00799646 1.27225e-23)
(7.96272 -0.00515107 3.13289e-23)
(7.96936 -0.00409608 -5.25324e-24)
(7.96713 -0.00523791 9.06215e-23)
(7.98118 0.000427984 -1.41287e-22)
(7.98276 0.00204547 6.87218e-23)
(7.97499 -0.00377265 7.62007e-25)
(7.97976 -0.000889619 -1.82381e-22)
(7.97882 -0.00290858 -3.26876e-23)
(7.97095 -0.00541471 -3.5651e-24)
(7.85454 0.11633 -1.5539e-23)
(7.85801 0.124854 0)
(7.86157 0.132049 1.6347e-23)
(7.86638 0.139807 2.84933e-23)
(7.88411 0.154047 -4.40647e-22)
(7.88256 0.149741 0)
(7.8708 0.146175 1.09528e-23)
(7.876 0.153205 -8.15873e-23)
(7.91679 0.150472 8.74536e-21)
(7.95999 0.0997417 2.17632e-22)
(7.9141 0.238212 3.42599e-22)
(7.8823 0.16055 -1.17441e-23)
(7.84397 0.0953446 9.63513e-22)
(7.83731 0.0895822 -4.78653e-22)
(7.84109 0.0729321 4.05465e-24)
(7.84003 0.0587513 -8.59133e-24)
(7.84324 0.0420661 -3.53639e-24)
(7.85235 0.0295856 -4.82477e-22)
(7.86246 0.0156385 4.54851e-24)
(7.85479 0.0188269 1.71726e-23)
(7.83993 0.102156 -6.13736e-24)
(7.84636 0.116259 2.22249e-22)
(7.86204 0.00734469 8.85182e-23)
(7.87364 -0.000540834 4.84011e-22)
(7.99093 0.0105932 -2.25516e-24)
(7.99136 0.00939119 -4.56412e-23)
(7.99143 0.0110849 -2.62965e-24)
(7.99298 0.0139372 -7.01841e-23)
(7.99237 0.0113695 -2.41295e-24)
(7.99313 0.0118469 -3.51508e-24)
(7.99397 0.014237 -1.55159e-22)
(7.98931 0.00693231 0)
(7.99075 0.00756785 0)
(7.99506 0.0144652 1.18126e-22)
(7.99525 0.0133514 3.61477e-24)
(7.99599 0.0140207 4.37408e-24)
(7.99789 0.0151351 -3.32956e-24)
(7.99762 0.0145544 0)