/*--------------------------------*- C++ -*----------------------------------*\
| =========                 |                                                 |
| \\      /  F ield         | OpenFOAM: The Open Source CFD Toolbox           |
|  \\    /   O peration     | Version:  v2012                                 |
|   \\  /    A nd           | Website:  www.openfoam.com                      |
|    \\/     M anipulation  |                                                 |
\*---------------------------------------------------------------------------*/
FoamFile
{
    version     2.0;
    format      ascii;
    class       pointVectorField;
    location    "0.37";
    object      pointDisplacement;
}
// * * * * * * * * * * * * * * * * * * * * * * * * * * * * * * * * * * * * * //

dimensions      [0 1 0 0 0 0 0];


internalField   nonuniform List<vector> 
14482
(
(0 0 0)
(0 0 0)
(0 0 0)
(0 0 0)
(0 0 0)
(0 0 0)
(0 0 0)
(0 0 0)
(0 0 0)
(0 0 0)
(0 0 0)
(0 0 0)
(0 0 0)
(0 0 0)
(0 0 0)
(0 0 0)
(0 0 0)
(0 0 0)
(0 0 0)
(0 0 0)
(0 0 0)
(0 0 0)
(0 0 0)
(0 0 0)
(0 0 0)
(0 0 0)
(0 0 0)
(0 0 0)
(0 0 0)
(0 0 0)
(0 0 0)
(0 0 0)
(0 0 0)
(0 0 0)
(0 0 0)
(0 0 0)
(0 0 0)
(0 0 0)
(0 0 0)
(0 0 0)
(0 0 0)
(0 0 0)
(0 0 0)
(0 0 0)
(0 0 0)
(0 0 0)
(0 0 0)
(0 0 0)
(0 0 0)
(0 0 0)
(0 0 0)
(0 0 0)
(0 0 0)
(0 0 0)
(0 0 0)
(0 0 0)
(0 0 0)
(0 0 0)
(0 0 0)
(0 0 0)
(0 0 0)
(0 0 0)
(0 0 0)
(0 0 0)
(0 0 0)
(0 0 0)
(0 0 0)
(0 0 0)
(0 0 0)
(0 0 0)
(0 0 0)
(0 0 0)
(0 0 0)
(0 0 0)
(0 0 0)
(0 0 0)
(0 0 0)
(0 0 0)
(0 0 0)
(0 0 0)
(0 0 0)
(0 0 0)
(0 0 0)
(0.0751637 -0.178696 0)
(0.0753588 -0.178569 0)
(0.0755689 -0.178433 0)
(0.0757952 -0.178286 0)
(0.0760389 -0.178127 0)
(0.0763014 -0.177957 0)
(0.076584 -0.177773 0)
(0.0768883 -0.177576 0)
(0.0772159 -0.177363 0)
(0.0775687 -0.177134 0)
(0.0779484 -0.176887 0)
(0.0783572 -0.176621 0)
(0.0787971 -0.176335 0)
(0.0791914 -0.175933 0)
(0.079608 -0.17549 0)
(0.0800564 -0.175014 0)
(0.0804904 -0.174462 0)
(0.080945 -0.173857 0)
(0.0813937 -0.173178 0)
(0.0818542 -0.172434 0)
(0.0823044 -0.171608 0)
(0.0827491 -0.170699 0)
(0.0831869 -0.169704 0)
(0.0836136 -0.168616 0)
(0.084026 -0.16743 0)
(0.0844144 -0.166139 0)
(0.0847829 -0.164739 0)
(0.085124 -0.163222 0)
(0.0854361 -0.161583 0)
(0.0857136 -0.159815 0)
(0.0859525 -0.157909 0)
(0.0861497 -0.15586 0)
(0.0863007 -0.153659 0)
(0.0864008 -0.151298 0)
(0.0864446 -0.148767 0)
(0.0864272 -0.146058 0)
(0.0863437 -0.143161 0)
(0.0861885 -0.140067 0)
(0.0859554 -0.136764 0)
(0.0856382 -0.133242 0)
(0.08523 -0.129491 0)
(0.0847239 -0.125499 0)
(0.0841128 -0.121255 0)
(0.0833885 -0.116747 0)
(0.0825434 -0.111963 0)
(0.0815691 -0.106893 0)
(0.0804571 -0.101525 0)
(0.0791982 -0.0958475 0)
(0.077784 -0.0898502 0)
(0.0762053 -0.0835226 0)
(0.0744528 -0.0768551 0)
(0.0725179 -0.0698395 0)
(0.0703912 -0.0624671 0)
(0.0680648 -0.054732 0)
(0.0655302 -0.0466286 0)
(0.0627799 -0.0381531 0)
(0.0598068 -0.0293028 0)
(0.0566057 -0.020079 0)
(0.0531707 -0.0104816 0)
(0.0494984 -0.000515508 0)
(0.0455864 0.0098133 0)
(0.0414337 0.020496 0)
(0.0370408 0.0315218 0)
(0.0324105 0.042876 0)
(0.0275468 0.0545434 0)
(0.0224562 0.066504 0)
(0.0171469 0.078736 0)
(0.0116285 0.0912166 0)
(0.00591421 0.103918 0)
(1.70852e-05 0.116812 0)
(-0.00604672 0.129868 0)
(-0.01226 0.143054 0)
(-0.0186037 0.156336 0)
(-0.0250584 0.169679 0)
(-0.0316024 0.183048 0)
(-0.0382148 0.196406 0)
(-0.0448729 0.209718 0)
(-0.0515552 0.222949 0)
(-0.0582391 0.236064 0)
(-0.0649028 0.249027 0)
(-0.0715255 0.261809 0)
(-0.0780872 0.274378 0)
(-0.0845683 0.286706 0)
(-0.090951 0.298767 0)
(-0.0972189 0.310537 0)
(-0.103357 0.321995 0)
(-0.109352 0.333124 0)
(-0.115191 0.343906 0)
(-0.120864 0.354331 0)
(-0.126363 0.364387 0)
(-0.131681 0.374067 0)
(-0.136812 0.383367 0)
(-0.141752 0.392283 0)
(-0.146499 0.400817 0)
(-0.15105 0.408968 0)
(-0.155405 0.416741 0)
(-0.159567 0.424143 0)
(-0.163536 0.431178 0)
(-0.167315 0.437855 0)
(-0.170908 0.444184 0)
(-0.174319 0.450175 0)
(-0.177552 0.455839 0)
(-0.180613 0.461187 0)
(-0.183507 0.466231 0)
(-0.186241 0.470983 0)
(-0.188819 0.475456 0)
(-0.191249 0.479662 0)
(-0.193537 0.483614 0)
(-0.195688 0.487323 0)
(-0.19771 0.490803 0)
(-0.199608 0.494064 0)
(-0.201389 0.497118 0)
(-0.203058 0.499977 0)
(-0.204622 0.502652 0)
(-0.206087 0.505153 0)
(-0.207457 0.50749 0)
(-0.208738 0.509674 0)
(-0.209936 0.511711 0)
(-0.211054 0.513613 0)
(-0.212099 0.515387 0)
(-0.213074 0.517041 0)
(-0.213983 0.518583 0)
(-0.214832 0.52002 0)
(-0.215623 0.521358 0)
(-0.21636 0.522605 0)
(-0.217046 0.523765 0)
(-0.217686 0.524846 0)
(-0.218282 0.525852 0)
(-0.218836 0.526787 0)
(-0.219352 0.527657 0)
(-0.219832 0.528467 0)
(-0.220279 0.529219 0)
(-0.220694 0.529919 0)
(-0.221081 0.53057 0)
(-0.22144 0.531174 0)
(-0.221775 0.531737 0)
(-0.222085 0.532259 0)
(-0.222374 0.532744 0)
(-0.222642 0.533195 0)
(-0.222891 0.533614 0)
(-0.223123 0.534003 0)
(-0.223338 0.534364 0)
(-0.223538 0.534701 0)
(-0.223724 0.535012 0)
(-0.223896 0.535301 0)
(-0.224056 0.53557 0)
(-0.224205 0.53582 0)
(-0.224343 0.536052 0)
(-0.224472 0.536267 0)
(-0.224591 0.536467 0)
(-0.224805 0.536377 0)
(-0.224995 0.536297 0)
(-0.225168 0.536224 0)
(-0.225332 0.536155 0)
(-0.225491 0.536088 0)
(-0.22565 0.536021 0)
(-0.225814 0.535952 0)
(-0.225988 0.535879 0)
(-0.226177 0.5358 0)
(-0.226392 0.535709 0)
(-0.226332 0.535485 0)
(-0.226268 0.535242 0)
(-0.226199 0.534981 0)
(-0.226125 0.5347 0)
(-0.226044 0.534398 0)
(-0.225958 0.534072 0)
(-0.225865 0.533722 0)
(-0.225765 0.533343 0)
(-0.225657 0.532937 0)
(-0.225541 0.5325 0)
(-0.225416 0.532028 0)
(-0.225281 0.531521 0)
(-0.225136 0.530976 0)
(-0.22498 0.530388 0)
(-0.224812 0.529756 0)
(-0.224631 0.529077 0)
(-0.224436 0.528345 0)
(-0.224227 0.527559 0)
(-0.224001 0.526713 0)
(-0.223758 0.525804 0)
(-0.223497 0.524826 0)
(-0.223216 0.523776 0)
(-0.222914 0.522647 0)
(-0.222589 0.521434 0)
(-0.22224 0.520131 0)
(-0.221864 0.518733 0)
(-0.221461 0.517232 0)
(-0.221027 0.51562 0)
(-0.220561 0.513892 0)
(-0.22006 0.512038 0)
(-0.219523 0.510051 0)
(-0.218946 0.507921 0)
(-0.218327 0.50564 0)
(-0.217662 0.503198 0)
(-0.21695 0.500584 0)
(-0.216187 0.497788 0)
(-0.215368 0.494799 0)
(-0.214492 0.491607 0)
(-0.213554 0.488197 0)
(-0.212551 0.48456 0)
(-0.211478 0.480682 0)
(-0.210331 0.47655 0)
(-0.209106 0.472151 0)
(-0.207799 0.467473 0)
(-0.206405 0.462501 0)
(-0.20492 0.457225 0)
(-0.203338 0.451628 0)
(-0.201656 0.4457 0)
(-0.199869 0.439428 0)
(-0.197972 0.4328 0)
(-0.195961 0.425806 0)
(-0.193831 0.418435 0)
(-0.191578 0.410678 0)
(-0.189198 0.402527 0)
(-0.186688 0.393978 0)
(-0.184045 0.385024 0)
(-0.181264 0.375664 0)
(-0.178346 0.365897 0)
(-0.175287 0.355726 0)
(-0.172087 0.345155 0)
(-0.168745 0.334192 0)
(-0.165261 0.322846 0)
(-0.161637 0.311131 0)
(-0.157875 0.299064 0)
(-0.153977 0.286663 0)
(-0.149948 0.273951 0)
(-0.145791 0.260955 0)
(-0.141511 0.2477 0)
(-0.137116 0.23422 0)
(-0.132611 0.220547 0)
(-0.128005 0.206718 0)
(-0.123306 0.192769 0)
(-0.118522 0.17874 0)
(-0.113663 0.164671 0)
(-0.108739 0.150602 0)
(-0.10376 0.136576 0)
(-0.0987359 0.12263 0)
(-0.0936788 0.108807 0)
(-0.0885989 0.0951446 0)
(-0.0835072 0.0816795 0)
(-0.0784148 0.0684469 0)
(-0.0733326 0.05548 0)
(-0.0682708 0.0428073 0)
(-0.0632406 0.0304579 0)
(-0.0582515 0.0184546 0)
(-0.0533133 0.00681861 0)
(-0.0484356 -0.00443151 0)
(-0.0436267 -0.0152824 0)
(-0.038895 -0.0257215 0)
(-0.034248 -0.0357412 0)
(-0.0296925 -0.0453359 0)
(-0.0252348 -0.054503 0)
(-0.0208804 -0.0632418 0)
(-0.0166336 -0.0715563 0)
(-0.0124988 -0.0794494 0)
(-0.00847918 -0.0869282 0)
(-0.00457723 -0.0940006 0)
(-0.000794827 -0.100677 0)
(0.00286669 -0.106966 0)
(0.00640689 -0.112881 0)
(0.00982563 -0.118435 0)
(0.0131234 -0.12364 0)
(0.0163012 -0.12851 0)
(0.0193606 -0.13306 0)
(0.0223033 -0.137302 0)
(0.0251313 -0.141251 0)
(0.0278471 -0.144921 0)
(0.0304535 -0.148326 0)
(0.0329531 -0.15148 0)
(0.0353489 -0.154395 0)
(0.0376443 -0.157085 0)
(0.039842 -0.159561 0)
(0.0419454 -0.161836 0)
(0.0439576 -0.163922 0)
(0.0458818 -0.165829 0)
(0.0477213 -0.167567 0)
(0.0494792 -0.169147 0)
(0.0511582 -0.170579 0)
(0.0527608 -0.171871 0)
(0.0542896 -0.173032 0)
(0.0557477 -0.174071 0)
(0.0571376 -0.174994 0)
(0.0584602 -0.175811 0)
(0.0597189 -0.176527 0)
(0.0609135 -0.177152 0)
(0.0620495 -0.177687 0)
(0.0631254 -0.178142 0)
(0.0641429 -0.178525 0)
(0.0651033 -0.178843 0)
(0.0660089 -0.179099 0)
(0.0668628 -0.17929 0)
(0.0676616 -0.179444 0)
(0.0684119 -0.179542 0)
(0.0691105 -0.179619 0)
(0.0697643 -0.179631 0)
(0.0703718 -0.179642 0)
(0.0709353 -0.179642 0)
(0.0714473 -0.179528 0)
(0.0719231 -0.179421 0)
(0.072365 -0.179322 0)
(0.0727755 -0.17923 0)
(0.0731568 -0.179145 0)
(0.0735109 -0.179066 0)
(0.0738398 -0.178992 0)
(0.0741453 -0.178924 0)
(0.0744289 -0.17886 0)
(0.0746922 -0.178802 0)
(0.0749367 -0.178747 0)
(-0.0130442 0.0999183 0)
(-0.0168362 0.11347 0)
(-0.0161499 0.109025 0)
(-0.0208764 0.120959 0)
(-0.0177406 0.110006 0)
(-0.0171866 0.110406 0)
(-0.0287568 0.13307 0)
(-0.0274276 0.130732 0)
(-0.0317362 0.142693 0)
(-0.00622699 0.0682597 0)
(-0.00326399 0.060415 0)
(-0.00629233 0.0714715 0)
(-0.0139073 0.12148 0)
(-0.0130268 0.121612 0)
(-0.0206098 0.141901 0)
(-0.0056453 0.0747989 0)
(-0.00317435 0.070205 0)
(-0.00697807 0.081501 0)
(-0.0347432 0.169679 0)
(-0.0344559 0.169865 0)
(-0.036533 0.175116 0)
(-0.0312872 0.158628 0)
(-0.0299975 0.156366 0)
(-0.0329013 0.16394 0)
(-0.0453815 0.185803 0)
(-0.0521559 0.20366 0)
(-0.0505646 0.197621 0)
(-0.0160413 0.0944124 0)
(-0.0182411 0.102405 0)
(-0.0176622 0.0989857 0)
(-4.97411e-05 0.0524743 0)
(0.00197197 0.0505705 0)
(-0.0020771 0.0626602 0)
(-0.00691015 0.102298 0)
(-0.00783873 0.108833 0)
(-0.0312355 0.167233 0)
(-0.0263676 0.153035 0)
(-0.0254304 0.151813 0)
(0.00142555 0.0621961 0)
(0.00623055 0.0478446 0)
(0.00341548 0.0594773 0)
(-0.037279 0.177935 0)
(-0.0391582 0.182811 0)
(-0.0388163 0.181197 0)
(-0.0414857 0.183034 0)
(-0.0444004 0.191419 0)
(-0.0449817 0.191456 0)
(-0.0285093 0.141759 0)
(-0.0296189 0.142885 0)
(-0.0258918 0.132216 0)
(-0.0118577 0.0665543 0)
(-0.0122837 0.0669543 0)
(-0.0108537 0.0618926 0)
(-0.000598234 0.0358855 0)
(-0.00249723 0.0438913 0)
(-0.00214244 0.0388947 0)
(-0.00418698 0.0480682 0)
(0.0030091 0.0276417 0)
(0.00385408 0.021353 0)
(0.00477396 0.0213892 0)
(0.0108022 0.0533841 0)
(0.00822143 0.0577401 0)
(0.0126124 0.0422466 0)
(-0.00825265 0.119363 0)
(-0.0136655 0.132065 0)
(-0.00627512 0.11079 0)
(-0.0604181 0.24093 0)
(-0.0584118 0.235996 0)
(-0.053328 0.224238 0)
(0.00849011 0.0126003 0)
(0.0109818 0.00559763 0)
(0.00896205 0.0158457 0)
(0.0249498 -0.0149581 0)
(0.0260978 -0.0123021 0)
(0.0231224 -0.005185 0)
(-0.0409225 0.188259 0)
(-0.0403527 0.187231 0)
(-0.0406631 0.187796 0)
(-0.0405126 0.186081 0)
(-0.0418091 0.188858 0)
(-0.0413589 0.188165 0)
(-0.0605871 0.232579 0)
(-0.0556412 0.221469 0)
(-0.0628326 0.238698 0)
(-0.0984054 0.318958 0)
(-0.0877009 0.296023 0)
(-0.0963114 0.315568 0)
(-0.0745024 0.258092 0)
(-0.0738085 0.258115 0)
(-0.080851 0.273434 0)
(-0.0581683 0.201307 0)
(-0.054209 0.19377 0)
(-0.0603315 0.208716 0)
(-0.0438925 0.171312 0)
(-0.0449216 0.171486 0)
(-0.0408168 0.161891 0)
(-0.0198426 0.0990194 0)
(-0.0182574 0.0951876 0)
(-0.0209465 0.103794 0)
(-0.0059771 0.0530672 0)
(-0.00798883 0.0590279 0)
(-0.00596343 0.0502299 0)
(0.000726514 0.0203366 0)
(-0.000299984 0.0253888 0)
(1.35401e-05 0.02148 0)
(0.00448449 0.0132389 0)
(0.00320827 0.0174219 0)
(0.00373608 0.0126063 0)
(0.00806607 -0.00152701 0)
(0.00656319 0.00329128 0)
(0.00667676 -0.00159456 0)
(0.0105278 0.0653325 0)
(0.0188708 0.0445399 0)
(0.0116379 0.0687688 0)
(-0.0548234 0.22917 0)
(-0.0457156 0.208381 0)
(-0.0532037 0.225979 0)
(0.00363376 0.0897338 0)
(-0.00464362 0.114403 0)
(-0.00371402 0.109183 0)
(-0.0514931 0.220263 0)
(-0.0449413 0.205124 0)
(-0.054297 0.227466 0)
(-0.0516325 0.218261 0)
(-0.0587261 0.235392 0)
(-0.0529323 0.221022 0)
(0.0277312 -0.0443916 0)
(0.0251338 -0.0415993 0)
(0.0279348 -0.0484947 0)
(0.0411741 -0.0594667 0)
(0.0442052 -0.0571684 0)
(0.0403728 -0.0491294 0)
(-0.043315 0.195679 0)
(-0.0463414 0.203327 0)
(-0.0442179 0.197687 0)
(-0.0603327 0.239011 0)
(-0.0662347 0.252992 0)
(-0.0608461 0.236176 0)
(-0.0657135 0.248166 0)
(-0.0680179 0.253512 0)
(-0.115468 0.357519 0)
(-0.103223 0.332664 0)
(-0.109119 0.345668 0)
(-0.0757694 0.256427 0)
(-0.0747784 0.256609 0)
(-0.0813888 0.270431 0)
(-0.058624 0.208578 0)
(-0.064962 0.225139 0)
(-0.0636941 0.218988 0)
(-0.0403575 0.143209 0)
(-0.0416054 0.142371 0)
(-0.0356692 0.128078 0)
(-0.0173965 0.0843401 0)
(-0.0164339 0.0821904 0)
(-0.0181925 0.0881529 0)
(-0.00828181 0.0512713 0)
(-0.00835512 0.0505426 0)
(-0.00773872 0.0484448 0)
(-0.00437964 0.0382203 0)
(-0.00369972 0.0370541 0)
(-0.00484358 0.0419083 0)
(-0.00599888 0.0475833 0)
(-0.00467071 0.0433938 0)
(0.000556971 0.0266582 0)
(-0.000426419 0.0322941 0)
(-0.000820426 0.030731 0)
(0.00216152 0.00505853 0)
(0.0027404 0.00673459 0)
(0.00215642 0.00700988 0)
(0.000333692 0.0248554 0)
(0.0187506 0.051079 0)
(0.0111427 0.0751476 0)
(0.032642 0.0122761 0)
(0.0262053 0.0317879 0)
(0.0307553 0.0107281 0)
(-0.0613497 0.243967 0)
(-0.0574972 0.235896 0)
(-0.0509615 0.221866 0)
(-0.0395849 0.198889 0)
(-0.0334092 0.185989 0)
(-0.0405924 0.201089 0)
(-0.0624691 0.246235 0)
(-0.065434 0.251392 0)
(-0.0748038 0.272636 0)
(-0.0719938 0.266272 0)
(0.0425258 -0.0874846 0)
(0.0388083 -0.0834864 0)
(0.0407503 -0.0904947 0)
(0.035906 -0.055389 0)
(0.0359423 -0.0615835 0)
(0.03907 -0.063605 0)
(0.0433857 -0.0810699 0)
(0.0474848 -0.0880433 0)
(0.0467211 -0.0799828 0)
(-0.0713531 0.263427 0)
(-0.0652574 0.249086 0)
(-0.0635215 0.245365 0)
(-0.0424394 0.192149 0)
(-0.0453827 0.19977 0)
(-0.0448434 0.197977 0)
(-0.0764885 0.275271 0)
(-0.0800711 0.283437 0)
(-0.0860857 0.296064 0)
(-0.0421967 0.191064 0)
(-0.0437665 0.194675 0)
(-0.0438121 0.194817 0)
(-0.0676164 0.253036 0)
(-0.0638305 0.242769 0)
(-0.0705483 0.259366 0)
(-0.117412 0.359971 0)
(-0.126454 0.376233 0)
(-0.117811 0.359284 0)
(-0.115915 0.342775 0)
(-0.119283 0.345801 0)
(-0.108816 0.326343 0)
(-0.0904471 0.267221 0)
(-0.0918395 0.275091 0)
(-0.0962534 0.282493 0)
(-0.0606507 0.204963 0)
(-0.0659643 0.21581 0)
(-0.0596073 0.19933 0)
(-0.0651487 0.219946 0)
(-0.0631986 0.213107 0)
(-0.0388332 0.142501 0)
(-0.0438104 0.155122 0)
(-0.0239955 0.0952134 0)
(-0.0206304 0.0849765 0)
(-0.0214741 0.089305 0)
(-0.00761993 0.0470123 0)
(-0.00703402 0.0453838 0)
(-0.00254397 0.0334986 0)
(-0.00255451 0.0304491 0)
(-0.00704203 0.0472857 0)
(-0.00610425 0.0428051 0)
(-0.00649813 0.04622 0)
(0.000502249 0.0171782 0)
(0.000997774 0.0136703 0)
(0.00131148 0.0154002 0)
(0.00554272 0.0029946 0)
(0.00297533 0.00442105 0)
(0.00155291 0.0113355 0)
(0.00125467 0.00862648 0)
(0.0017506 0.0082161 0)
(0.00997979 -0.0256238 0)
(0.00848566 -0.0259061 0)
(0.0113972 -0.0301128 0)
(0.0245715 0.0429941 0)
(0.0176488 0.0600949 0)
(0.0174715 0.0656599 0)
(0.0237109 0.0496684 0)
(0.0523487 -0.0492187 0)
(0.0479101 -0.0442457 0)
(0.0517897 -0.0610997 0)
(-0.0690506 0.259672 0)
(-0.0682787 0.257883 0)
(-0.0734421 0.268021 0)
(-0.0615032 0.244264 0)
(-0.0551495 0.230742 0)
(-0.0466045 0.213299 0)
(-0.0506197 0.221544 0)
(-0.0298489 0.178698 0)
(-0.0268884 0.171991 0)
(-0.0757792 0.274172 0)
(-0.0838699 0.290394 0)
(-0.0744392 0.271582 0)
(-0.102973 0.327571 0)
(-0.100603 0.322579 0)
(-0.109418 0.338201 0)
(-0.0833565 0.291199 0)
(-0.0860185 0.296814 0)
(-0.096754 0.318914 0)
(-0.0979744 0.321562 0)
(-0.0901117 0.305371 0)
(0.01398 -0.028025 0)
(0.013341 -0.0229359 0)
(0.0120628 -0.0242852 0)
(0.0296084 -0.060459 0)
(0.0288855 -0.0652659 0)
(0.0324976 -0.0711201 0)
(0.0336441 -0.0666061 0)
(0.0364822 -0.0685437 0)
(0.0342332 -0.0626463 0)
(0.0407234 -0.0719687 0)
(0.0384028 -0.0682887 0)
(0.0394027 -0.0747057 0)
(-0.0616124 0.241183 0)
(-0.0559613 0.227836 0)
(-0.0635632 0.246159 0)
(-0.0563909 0.22741 0)
(-0.0586858 0.233213 0)
(-0.0638695 0.245488 0)
(-0.047583 0.2052 0)
(-0.0952917 0.315148 0)
(-0.0863329 0.296222 0)
(-0.0581377 0.226561 0)
(-0.047667 0.200904 0)
(-0.0578988 0.225188 0)
(-0.0703577 0.258423 0)
(-0.0772324 0.275303 0)
(-0.0796121 0.281324 0)
(-0.0724851 0.264868 0)
(-0.117737 0.357566 0)
(-0.107246 0.337728 0)
(-0.0967472 0.309848 0)
(-0.10375 0.325606 0)
(-0.107781 0.332024 0)
(-0.174096 0.419401 0)
(-0.172845 0.41017 0)
(-0.16993 0.415534 0)
(-0.102231 0.301316 0)
(-0.10365 0.298614 0)
(-0.0967449 0.287809 0)
(-0.0529655 0.174289 0)
(-0.0574938 0.182452 0)
(-0.0532758 0.17069 0)
(-0.0268034 0.100713 0)
(-0.0219886 0.0870832 0)
(-0.0362663 0.121669 0)
(-0.0342617 0.118788 0)
(-0.0389818 0.131804 0)
(-0.00958659 0.0492223 0)
(-0.00911185 0.0481337 0)
(-0.0101441 0.0519422 0)
(-0.0131482 0.0617713 0)
(-0.0146171 0.0661979 0)
(-0.0131488 0.0608257 0)
(-0.00558958 0.0365619 0)
(-0.00574977 0.0381612 0)
(-0.00612089 0.0391677 0)
(-0.0024159 0.0361855 0)
(-0.00142242 0.02984 0)
(-0.00341098 0.0324297 0)
(-0.00456736 0.0370584 0)
(-0.00367079 0.0312501 0)
(-0.00269038 0.0260442 0)
(-0.0022874 0.0261823 0)
(4.36053e-05 0.0155681 0)
(-0.000255401 0.0199975 0)
(-0.000517454 0.0186847 0)
(0.000835705 0.00120484 0)
(0.0020976 -0.000118757 0)
(0.0012464 0.00171002 0)
(0.0022727 0.00925379 0)
(0.00222824 0.0129694 0)
(0.00345398 0.00117774 0)
(0.00249471 0.0021278 0)
(0.00264905 0.00049216 0)
(0.000896844 0.0108148 0)
(0.000585939 0.0137591 0)
(0.00040926 0.0116717 0)
(0.00210301 -0.00834022 0)
(0.00293545 -0.0070873 0)
(8.91167e-05 -0.00285764 0)
(-0.0130368 0.142982 0)
(-0.00748923 0.130663 0)
(-0.0128394 0.143014 0)
(0.00673518 0.0964717 0)
(0.0136568 0.0787712 0)
(0.0102321 0.0893292 0)
(0.0425479 -0.0154237 0)
(0.0475472 -0.0329813 0)
(0.0463363 -0.0205704 0)
(-0.0799385 0.280132 0)
(-0.0842983 0.288788 0)
(-0.0763401 0.273948 0)
(-0.0479164 0.215619 0)
(-0.0539641 0.228558 0)
(-0.0566148 0.234114 0)
(-0.0326636 0.183337 0)
(-0.0242024 0.163663 0)
(-0.0272216 0.171905 0)
(-0.0287802 0.176653 0)
(-0.0242343 0.166572 0)
(-0.0989798 0.318984 0)
(-0.10286 0.324963 0)
(-0.106911 0.332981 0)
(-0.0881483 0.29818 0)
(-0.0949156 0.31024 0)
(-0.0935442 0.308592 0)
(-0.092058 0.306543 0)
(-0.0973109 0.317642 0)
(-0.105127 0.332021 0)
(-0.108456 0.340113 0)
(-0.109955 0.343296 0)
(-0.0996853 0.323983 0)
(-0.115216 0.35224 0)
(-0.120009 0.360812 0)
(-0.106798 0.338324 0)
(-0.115745 0.354493 0)
(-0.113458 0.350727 0)
(-0.115181 0.354139 0)
(-0.124956 0.370747 0)
(-0.00247277 -0.0149875 0)
(0.0011905 -0.0217027 0)
(-0.000752351 -0.0151425 0)
(0.00952431 -0.0522655 0)
(0.00763348 -0.0517093 0)
(0.0111662 -0.0571794 0)
(0.0303403 -0.0833917 0)
(0.0266299 -0.0766957 0)
(0.0261075 -0.0789633 0)
(0.0564157 -0.109024 0)
(0.0593546 -0.114791 0)
(0.0594064 -0.107369 0)
(-0.102876 0.32926 0)
(-0.111936 0.34574 0)
(-0.107894 0.338613 0)
(-0.0501839 0.210303 0)
(-0.052797 0.218011 0)
(-0.0501532 0.209923 0)
(-0.127992 0.376156 0)
(-0.115991 0.355841 0)
(-0.0715407 0.260187 0)
(-0.0854923 0.290993 0)
(-0.0776347 0.275145 0)
(-0.0770911 0.27098 0)
(-0.0989993 0.31671 0)
(-0.0760787 0.269498 0)
(-0.0935 0.31209 0)
(-0.106679 0.3396 0)
(-0.102617 0.332134 0)
(-0.0603397 0.23382 0)
(-0.060991 0.235044 0)
(-0.0648062 0.244767 0)
(-0.110108 0.351509 0)
(-0.112766 0.357998 0)
(-0.109294 0.350272 0)
(-0.120266 0.372709 0)
(-0.126782 0.385401 0)
(-0.126006 0.383443 0)
(-0.144762 0.381097 0)
(-0.150886 0.384918 0)
(-0.143904 0.3704 0)
(-0.0912996 0.253755 0)
(-0.0888014 0.238631 0)
(-0.0833186 0.232087 0)
(-0.0384428 0.124775 0)
(-0.0448017 0.142322 0)
(-0.0410299 0.128468 0)
(-0.0370082 0.111658 0)
(-0.0318453 0.0979885 0)
(-0.0346071 0.107903 0)
(-0.0292379 0.104307 0)
(-0.0249476 0.0922597 0)
(-0.00770691 0.039001 0)
(-0.00784703 0.0404141 0)
(-0.00839649 0.0419983 0)
(-0.00726375 0.0387594 0)
(-0.00704892 0.0370694 0)
(-0.0064877 0.0354038 0)
(-0.000970959 0.0226739 0)
(-0.00166323 0.024802 0)
(-0.000994595 0.0198655 0)
(-0.00150683 0.0211149 0)
(-0.00189861 0.0215132 0)
(-0.00131425 0.0174561 0)
(-0.0030779 0.0262799 0)
(-0.000939628 0.0167331 0)
(0.00226153 -0.00164382 0)
(0.00393006 -0.00450178 0)
(0.00336128 -0.00189565 0)
(0.000454921 0.00341815 0)
(-8.64748e-05 0.00413517 0)
(0.000954718 0.00334125 0)
(0.00107087 0.00385441 0)
(0.000968547 0.00336414 0)
(0.00147696 0.00443559 0)
(0.000931971 0.00335358 0)
(0.000582945 0.00304878 0)
(0.000978373 0.00417893 0)
(0.00129545 0.00481081 0)
(0.00120007 0.00551805 0)
(-0.0135561 0.0274143 0)
(-0.0173569 0.0378412 0)
(-0.0167075 0.0330533 0)
(-0.00312786 0.121267 0)
(-0.000418463 0.114007 0)
(-0.00199191 0.119354 0)
(-0.00751199 0.131503 0)
(0.0126004 0.0850455 0)
(0.0176785 0.0728192 0)
(0.0143107 0.0823635 0)
(0.00865405 0.0954791 0)
(0.0553635 -0.0380707 0)
(0.0558222 -0.0320213 0)
(0.0520746 -0.0227233 0)
(0.0415429 0.0147217 0)
(0.0392688 0.0196958 0)
(0.0445595 0.00346047 0)
(-0.0408575 0.199595 0)
(-0.0394422 0.197198 0)
(-0.0523198 0.225128 0)
(-0.0219974 0.162066 0)
(-0.0864675 0.294486 0)
(-0.0785211 0.279087 0)
(-0.0848436 0.290957 0)
(-0.091904 0.307651 0)
(-0.0875437 0.298663 0)
(-0.125161 0.370065 0)
(-0.124866 0.37017 0)
(-0.0927621 0.310133 0)
(-0.098499 0.320816 0)
(-0.101651 0.327329 0)
(-0.105074 0.33546 0)
(-0.0247452 0.0541611 0)
(-0.0295057 0.0643768 0)
(-0.0235386 0.0473872 0)
(0.0114826 -0.0527826 0)
(0.0117024 -0.049232 0)
(0.00781519 -0.0445032 0)
(0.0108752 -0.0639904 0)
(0.0135207 -0.0696625 0)
(0.0151509 -0.0701581 0)
(0.0402007 -0.0978973 0)
(0.0399204 -0.101707 0)
(0.0437336 -0.105544 0)
(0.0681733 -0.0756414 0)
(0.0661493 -0.0749475 0)
(0.0689744 -0.0861647 0)
(0.0629936 -0.113523 0)
(0.0627527 -0.120663 0)
(-0.0989494 0.321986 0)
(-0.0990896 0.321874 0)
(-0.0904229 0.304662 0)
(-0.0821351 0.287191 0)
(-0.0893254 0.302358 0)
(-0.0924974 0.308856 0)
(-0.0640814 0.245953 0)
(-0.0702625 0.259699 0)
(-0.0688646 0.256683 0)
(-0.080971 0.283069 0)
(-0.0781915 0.277737 0)
(-0.0814295 0.286267 0)
(-0.0594173 0.235909 0)
(-0.0585795 0.234865 0)
(-0.0549836 0.22437 0)
(-0.0537355 0.221013 0)
(-0.052969 0.218749 0)
(-0.050591 0.211627 0)
(-0.0861687 0.288022 0)
(-0.0701036 0.254592 0)
(-0.0668706 0.246868 0)
(-0.134477 0.390919 0)
(-0.113711 0.355031 0)
(-0.0998169 0.328373 0)
(-0.101881 0.333297 0)
(-0.0959089 0.31945 0)
(-0.114811 0.360323 0)
(-0.107459 0.34465 0)
(-0.114606 0.358485 0)
(-0.177454 0.460061 0)
(-0.181457 0.462852 0)
(-0.175748 0.457152 0)
(-0.125726 0.378657 0)
(-0.117026 0.361787 0)
(-0.118094 0.364863 0)
(-0.135481 0.384216 0)
(-0.145909 0.402849 0)
(-0.144339 0.398078 0)
(-0.157339 0.375422 0)
(-0.150127 0.358574 0)
(-0.154316 0.381031 0)
(-0.141266 0.382299 0)
(-0.137101 0.369923 0)
(-0.114172 0.245317 0)
(-0.115061 0.23384 0)
(-0.108839 0.21485 0)
(-0.0642642 0.150877 0)
(-0.0656142 0.163972 0)
(-0.07221 0.17755 0)
(-0.0471557 0.14341 0)
(-0.0544246 0.162056 0)
(-0.0500556 0.14704 0)
(-0.0151484 0.0595495 0)
(-0.0177234 0.0700834 0)
(-0.0181826 0.0691568 0)
(-0.0215415 0.0757111 0)
(-0.0244184 0.0860648 0)
(-0.0264225 0.0896406 0)
(-0.0146462 0.0614441 0)
(-0.0146026 0.0633713 0)
(-0.0166992 0.0688871 0)
(-0.00385666 0.0231572 0)
(-0.00403946 0.0233934 0)
(-0.00354457 0.0211259 0)
(-0.0122385 0.0526544 0)
(-0.0118172 0.0498657 0)
(-0.010273 0.0450746 0)
(-0.00424584 0.0261933 0)
(-0.00378345 0.0243685 0)
(-0.00409147 0.0262539 0)
(-0.00343993 0.0249304 0)
(-0.00304115 0.0220057 0)
(-0.00286376 0.0216358 0)
(-0.00208823 0.0212655 0)
(-0.00245137 0.0229379 0)
(-0.00198282 0.0192777 0)
(-0.00174948 0.0153597 0)
(-0.00207779 0.0171402 0)
(-0.00177669 0.0149583 0)
(-0.000786429 0.0112454 0)
(-0.000876752 0.0138302 0)
(-0.00110858 0.0143574 0)
(1.85386e-05 0.0119923 0)
(1.07551e-05 0.00852309 0)
(0.000267857 0.00903405 0)
(-0.00363083 0.0104633 0)
(-0.00369115 0.0103544 0)
(-0.00255369 0.00818243 0)
(-0.000622797 0.00475791 0)
(-0.0013826 0.00605131 0)
(-0.00198687 0.00689099 0)
(0.000808447 0.00441172 0)
(0.000669182 0.00313288 0)
(0.000171202 0.00311279 0)
(0.00154587 0.00367465 0)
(0.00104057 0.00643348 0)
(0.000696 0.00518266 0)
(0.000186183 0.00619665 0)
(-0.0137721 0.0338872 0)
(-0.0171711 0.0419349 0)
(-0.013325 0.0314343 0)
(0.0027406 0.104875 0)
(0.00749105 0.0972451 0)
(0.0261306 0.0542063 0)
(0.0267363 0.0510896 0)
(0.0301437 0.0431508 0)
(0.0535815 -0.0172263 0)
(0.0554902 -0.0210422 0)
(0.0521727 -0.011278 0)
(0.0658474 -0.0545693 0)
(0.0677456 -0.0640427 0)
(0.0678506 -0.0608562 0)
(0.0322453 0.0296128 0)
(0.0373882 0.0165749 0)
(0.0320096 0.0350357 0)
(-0.0713351 0.264539 0)
(-0.0803359 0.282038 0)
(-0.0181012 0.15423 0)
(-0.111727 0.343859 0)
(-0.108224 0.338454 0)
(-0.102242 0.327276 0)
(-0.0179469 0.0270816 0)
(-0.0177508 0.0236761 0)
(-0.0129574 0.0139052 0)
(-0.0142198 -3.31991e-05 0)
(-0.0200552 0.0109805 0)
(-0.0141702 -0.00450738 0)
(0.0131684 -0.0586798 0)
(0.0146015 -0.075918 0)
(0.01121 -0.0715438 0)
(0.0139972 -0.0766432 0)
(0.0447572 -0.101872 0)
(0.0420932 -0.0961527 0)
(0.0765416 -0.0966776 0)
(0.0750209 -0.0945264 0)
(0.076 -0.102627 0)
(0.0783401 -0.122023 0)
(0.077414 -0.115463 0)
(0.0766133 -0.121212 0)
(-0.123712 0.366906 0)
(-0.111522 0.345548 0)
(-0.0852002 0.293398 0)
(-0.092853 0.30845 0)
(-0.093854 0.31057 0)
(-0.0696748 0.258798 0)
(-0.0753712 0.271558 0)
(-0.0741488 0.268695 0)
(-0.0883526 0.298095 0)
(-0.0812515 0.283871 0)
(-0.0889845 0.29729 0)
(-0.057866 0.233869 0)
(-0.113949 0.351834 0)
(-0.123035 0.367148 0)
(-0.110116 0.344066 0)
(-0.0848595 0.284639 0)
(-0.0667557 0.246248 0)
(-0.0954825 0.31629 0)
(-0.134124 0.398224 0)
(-0.140431 0.408272 0)
(-0.128743 0.387609 0)
(-0.0862894 0.297391 0)
(-0.0830209 0.289763 0)
(-0.0898015 0.305404 0)
(-0.189295 0.478014 0)
(-0.189763 0.477225 0)
(-0.185907 0.473975 0)
(-0.138416 0.407921 0)
(-0.140535 0.410407 0)
(-0.146794 0.421387 0)
(-0.152266 0.430825 0)
(-0.170309 0.456229 0)
(-0.151922 0.430584 0)
(-0.186426 0.461668 0)
(-0.183689 0.460186 0)
(-0.188027 0.465222 0)
(-0.175755 0.448173 0)
(-0.180482 0.454944 0)
(-0.177701 0.448041 0)
(-0.154025 0.354147 0)
(-0.142386 0.34668 0)
(-0.143129 0.333727 0)
(-0.137162 0.325439 0)
(-0.0858461 0.185404 0)
(-0.0924616 0.209621 0)
(-0.0906367 0.195537 0)
(-0.0717735 0.194723 0)
(-0.0658455 0.173456 0)
(-0.064598 0.178788 0)
(-0.0617586 0.0808464 0)
(-0.0538033 0.0648683 0)
(-0.0603337 0.085452 0)
(-0.0328586 0.0939139 0)
(-0.0372084 0.107851 0)
(-0.0363324 0.101853 0)
(-0.0370731 0.100342 0)
(-0.0326141 0.0895532 0)
(-0.0205502 0.0749962 0)
(-0.0175257 0.0633296 0)
(-0.0158118 0.0596343 0)
(-0.0242519 0.0754464 0)
(-0.0275007 0.0862363 0)
(-0.0277469 0.0840675 0)
(-0.0274372 0.0901951 0)
(-0.0236361 0.0787326 0)
(-0.021819 0.0747198 0)
(-0.00652636 0.0316837 0)
(-0.00578419 0.0290626 0)
(-0.00635073 0.0317676 0)
(-0.00660128 0.0339046 0)
(-0.00601633 0.0318934 0)
(-0.00680744 0.0353431 0)
(-0.0102259 0.043515 0)
(-0.0123241 0.0503325 0)
(-0.0101243 0.0417437 0)
(-0.00322601 0.0209796 0)
(-0.00350436 0.021942 0)
(-0.00309374 0.0198095 0)
(-0.00291581 0.0197272 0)
(-0.00252121 0.0176409 0)
(-0.0028049 0.0196535 0)
(-0.00224975 0.0191759 0)
(-0.00152677 0.0168601 0)
(-0.000977866 0.0117757 0)
(-0.00189288 0.0174202 0)
(-0.0024055 0.0213695 0)
(-0.000444307 0.0153216 0)
(-0.000174358 0.00612705 0)
(-7.11197e-05 0.00640666 0)
(-0.000216368 0.00902697 0)
(-0.00116545 0.00549785 0)
(-0.000959149 0.00459689 0)
(-0.00179348 0.00639386 0)
(-0.0123591 0.0313646 0)
(-0.0155896 0.0399567 0)
(0.000540978 0.00352128 0)
(0.000441236 0.00202237 0)
(0.00054159 0.00258451 0)
(0.000669435 0.00270656 0)
(-4.82826e-05 0.00174946 0)
(-0.000235911 0.00250574 0)
(8.50053e-06 0.00252957 0)
(0.000416639 0.00341305 0)
(0.000495132 0.00556992 0)
(0.000367985 0.00678094 0)
(0.000260248 0.00439432 0)
(-0.0335155 0.0791184 0)
(-0.0287681 0.0666677 0)
(-0.0308915 0.0764041 0)
(-0.0106732 0.021906 0)
(-0.0144565 0.0323996 0)
(0.0232007 0.0612847 0)
(0.0184945 0.0731727 0)
(0.0217436 0.0635077 0)
(0.0616876 -0.038983 0)
(0.0614576 -0.0410572 0)
(0.0635555 -0.0475539 0)
(0.0546196 -0.0234544 0)
(0.051136 -0.0123605 0)
(0.0655048 -0.0577933 0)
(0.040237 0.0144365 0)
(0.0448298 0.00626531 0)
(0.0479725 -0.00145783 0)
(0.044809 0.00863925 0)
(-0.0208402 0.0454375 0)
(-0.0207958 0.0426139 0)
(-0.0144939 0.0127558 0)
(-0.0109469 0.00608833 0)
(-0.0182518 0.00203226 0)
(-0.016609 -0.00598709 0)
(-0.0137393 -0.00912231 0)
(-0.00135091 -0.051324 0)
(-0.00422606 -0.0447472 0)
(-0.00551378 -0.0450166 0)
(0.0325351 -0.106898 0)
(0.0378658 -0.115628 0)
(0.0360737 -0.111303 0)
(0.077868 -0.135973 0)
(0.078496 -0.139362 0)
(0.0804031 -0.136847 0)
(0.069989 -0.0698492 0)
(0.0715806 -0.0801626 0)
(0.0719325 -0.0756169 0)
(0.0734274 -0.0825092 0)
(0.073068 -0.0772636 0)
(0.0726737 -0.145737 0)
(0.0727924 -0.141926 0)
(0.0700167 -0.144001 0)
(-0.127656 0.374349 0)
(-0.101853 0.324613 0)
(-0.104363 0.330147 0)
(-0.0861905 0.29106 0)
(-0.0735144 0.266084 0)
(-0.0797151 0.280081 0)
(-0.0806021 0.282261 0)
(-0.0610712 0.23908 0)
(-0.0646513 0.249784 0)
(-0.0628179 0.244859 0)
(-0.0436339 0.19204 0)
(-0.0417782 0.18748 0)
(-0.0438843 0.192987 0)
(-0.107002 0.337891 0)
(-0.0467819 0.197974 0)
(-0.0579335 0.22438 0)
(-0.0578917 0.224668 0)
(-0.141391 0.410458 0)
(-0.166714 0.447986 0)
(-0.142813 0.413114 0)
(-0.197468 0.486648 0)
(-0.194944 0.484251 0)
(-0.202281 0.492609 0)
(-0.186023 0.475114 0)
(-0.189127 0.478657 0)
(-0.191155 0.480558 0)
(-0.1417 0.413913 0)
(-0.144227 0.418026 0)
(-0.143447 0.41739 0)
(-0.155921 0.436823 0)
(-0.172198 0.459478 0)
(-0.158405 0.440872 0)
(-0.2057 0.490119 0)
(-0.208736 0.493997 0)
(-0.209277 0.493486 0)
(-0.177309 0.451788 0)
(-0.171769 0.44379 0)
(-0.170669 0.444351 0)
(-0.183591 0.442327 0)
(-0.18321 0.441235 0)
(-0.185257 0.439676 0)
(-0.176892 0.422009 0)
(-0.180423 0.432917 0)
(-0.181632 0.426666 0)
(-0.168666 0.366464 0)
(-0.168541 0.358298 0)
(-0.165251 0.352231 0)
(-0.150786 0.332022 0)
(-0.144979 0.311922 0)
(-0.148414 0.337528 0)
(-0.130088 0.253096 0)
(-0.130219 0.265325 0)
(-0.134031 0.271581 0)
(-0.0986418 0.153937 0)
(-0.101802 0.156911 0)
(-0.0957449 0.137111 0)
(-0.0615143 0.12363 0)
(-0.0616645 0.11662 0)
(-0.0553383 0.0999096 0)
(-0.0846056 0.156101 0)
(-0.0852367 0.166331 0)
(-0.0911483 0.178231 0)