/*--------------------------------*- C++ -*----------------------------------*\
| =========                 |                                                 |
| \\      /  F ield         | OpenFOAM: The Open Source CFD Toolbox           |
|  \\    /   O peration     | Version:  v2012                                 |
|   \\  /    A nd           | Website:  www.openfoam.com                      |
|    \\/     M anipulation  |                                                 |
\*---------------------------------------------------------------------------*/
FoamFile
{
    version     2.0;
    format      ascii;
    class       volVectorField;
    location    "1.7";
    object      cellDisplacement;
}
// * * * * * * * * * * * * * * * * * * * * * * * * * * * * * * * * * * * * * //

dimensions      [0 1 0 0 0 0 0];


internalField   nonuniform List<vector> 
13611
(
(2.21918e-06 5.45379e-05 0)
(6.23406e-06 0.000150562 0)
(4.05834e-06 0.000105889 0)
(1.04247e-05 0.000264357 0)
(7.46621e-06 0.000173148 0)
(1.93521e-06 5.23691e-05 0)
(8.27905e-06 0.000218733 0)
(1.53266e-05 0.000386744 0)
(3.4533e-06 7.6642e-05 0)
(1.35454e-05 0.000312589 0)
(3.31102e-06 9.45777e-05 0)
(9.22366e-06 0.000255626 0)
(1.72678e-05 0.00041428 0)
(1.7981e-05 0.000475521 0)
(8.08772e-06 0.000170439 0)
(1.63606e-05 0.000362853 0)
(6.44611e-06 0.000185295 0)
(1.46722e-06 4.35287e-05 0)
(1.21733e-05 0.00034258 0)
(2.21599e-05 0.00052113 0)
(2.30034e-05 0.000607486 0)
(1.58256e-05 0.000437542 0)
(4.79147e-06 9.52554e-05 0)
(1.50506e-05 0.000318225 0)
(2.20317e-05 0.000491449 0)
(7.11535e-06 0.000213986 0)
(2.61444e-06 8.13182e-05 0)
(1.19804e-05 0.000353321 0)
(2.68209e-05 0.000640886 0)
(2.701e-05 0.000682041 0)
(2.40008e-05 0.00066687 0)
(1.69128e-05 0.000489732 0)
(9.57277e-06 0.000180202 0)
(2.21588e-05 0.000453103 0)
(2.63001e-05 0.000562237 0)
(9.72522e-06 0.000295452 0)
(5.17557e-06 0.000161435 0)
(1.2014e-06 3.87871e-05 0)
(1.43917e-05 0.000430922 0)
(3.3006e-05 0.000754544 0)
(3.19231e-05 0.000820876 0)
(2.7436e-05 0.000772124 0)
(2.19727e-05 0.000634811 0)
(1.9209e-05 0.000564227 0)
(1.81174e-05 0.000340243 0)
(4.76952e-06 8.46025e-05 0)
(2.39643e-05 0.000467262 0)
(3.29569e-05 0.000707182 0)
(9.86829e-06 0.000314071 0)
(5.79979e-06 0.000188061 0)
(2.4014e-06 8.0825e-05 0)
(1.4334e-05 0.000447408 0)
(3.82747e-05 0.000891906 0)
(3.10526e-05 0.000847074 0)
(3.69929e-05 0.000917329 0)
(2.60611e-05 0.000779801 0)
(2.32961e-05 0.000704949 0)
(1.87825e-05 0.000580032 0)
(2.33028e-05 0.000415132 0)
(1.04073e-05 0.00017529 0)
(3.2826e-05 0.000621447 0)
(4.0043e-05 0.000821062 0)
(7.96826e-06 0.000260343 0)
(1.20249e-05 0.000387313 0)
(4.4595e-06 0.000150063 0)
(1.19431e-06 4.16121e-05 0)
(1.65051e-05 0.000523154 0)
(4.53588e-05 0.00101768 0)
(3.42134e-05 0.000959655 0)
(4.10013e-05 0.00104375 0)
(2.78406e-05 0.000853701 0)
(2.1174e-05 0.000663955 0)
(3.25966e-05 0.000582428 0)
(2.02903e-05 0.000343799 0)
(5.95612e-06 9.36069e-05 0)
(4.04393e-05 0.000778686 0)
(4.75104e-05 0.000997591 0)
(7.77086e-06 0.000264646 0)
(1.21301e-05 0.00040559 0)
(5.68834e-06 0.000196895 0)
(1.96803e-06 7.14915e-05 0)
(1.60554e-05 0.000532358 0)
(4.91514e-05 0.00114029 0)
(3.89799e-05 0.00105918 0)
(3.22381e-05 0.000957802 0)
(4.6252e-05 0.00114198 0)
(2.69012e-05 0.000861888 0)
(2.0638e-05 0.000679947 0)
(4.00468e-05 0.000685621 0)
(2.71565e-05 0.000439554 0)
(1.40357e-05 0.000210591 0)
(4.98578e-05 0.000916724 0)
(5.6666e-05 0.0011381 0)
(9.03034e-06 0.000313626 0)
(1.4048e-05 0.000475862 0)
(1.08117e-05 0.000371973 0)
(5.40444e-06 0.000193579 0)
(3.78544e-06 0.000138471 0)
(8.3026e-07 3.10441e-05 0)
(1.78299e-05 0.000603883 0)
(5.54036e-05 0.00127004 0)
(4.18667e-05 0.00116819 0)
(3.34656e-05 0.00103161 0)
(4.98767e-05 0.00126984 0)
(2.84745e-05 0.000936741 0)
(2.47625e-05 0.000827043 0)
(2.23484e-05 0.000758325 0)
(5.00171e-05 0.000863395 0)
(3.76461e-05 0.000613044 0)
(2.52933e-05 0.00038691 0)
(8.89057e-06 0.000122859 0)
(5.87324e-05 0.00109791 0)
(6.23362e-05 0.00128324 0)
(8.64765e-06 0.000312503 0)
(1.33183e-05 0.000470507 0)
(1.15806e-05 0.000411873 0)
(7.07614e-06 0.000259547 0)
(3.92546e-06 0.000149039 0)
(1.42994e-06 5.54091e-05 0)
(1.69255e-05 0.000600809 0)
(6.04003e-05 0.00132347 0)
(5.53162e-05 0.00135425 0)
(4.7525e-05 0.00128136 0)
(4.0367e-05 0.00119579 0)
(3.67657e-05 0.00113322 0)
(3.08126e-05 0.00100404 0)
(2.60816e-05 0.000895054 0)
(2.05176e-05 0.000739378 0)
(6.01551e-05 0.000985238 0)
(4.48445e-05 0.000693124 0)
(3.67948e-05 0.000544123 0)
(2.29749e-05 0.000307604 0)
(6.81806e-05 0.00121478 0)
(7.18285e-05 0.00143395 0)
(1.02433e-05 0.000375083 0)
(1.44791e-05 0.000523546 0)
(6.70741e-06 0.000254341 0)
(2.78073e-06 0.00010807 0)
(5.18664e-06 0.000199491 0)
(6.28739e-07 2.50455e-05 0)
(1.80181e-05 0.000659496 0)
(6.61173e-05 0.00146251 0)
(6.04152e-05 0.00149184 0)
(4.86997e-05 0.00138401 0)
(4.38299e-05 0.00132289 0)
(3.52935e-05 0.00116123 0)
(3.17902e-05 0.00107523 0)
(2.56036e-05 0.000916258 0)
(2.11413e-05 0.000794112 0)
(6.95403e-05 0.00115504 0)
(5.77146e-05 0.000886768 0)
(3.95786e-05 0.000552722 0)
(2.49821e-05 0.000315337 0)
(7.76883e-05 0.00139432 0)
(7.89692e-05 0.00149418 0)
(7.26935e-05 0.00152857 0)
(1.0411e-05 0.000394628 0)
(1.37069e-05 0.000514852 0)
(7.50098e-06 0.000293206 0)
(3.06472e-06 0.000122607 0)
(5.15909e-06 0.000204595 0)
(1.19292e-06 4.89595e-05 0)
(1.65091e-05 0.000635299 0)
(6.65079e-05 0.00154963 0)
(5.93696e-05 0.00156381 0)
(5.30199e-05 0.00150021 0)
(4.18235e-05 0.00134935 0)
(3.71019e-05 0.00125081 0)
(2.98406e-05 0.00106362 0)
(2.32779e-05 0.000870841 0)
(2.71468e-05 0.000990895 0)
(1.92583e-05 0.000761874 0)
(8.15253e-05 0.0013056 0)
(6.64402e-05 0.000959424 0)
(5.64655e-05 0.000772072 0)
(4.88638e-05 0.000600096 0)
(1.0636e-05 0.000128974 0)
(8.7037e-05 0.00146563 0)
(9.02601e-05 0.00170954 0)
(7.82496e-05 0.0016667 0)
(8.92691e-06 0.000349664 0)
(1.19325e-05 0.000457591 0)
(1.46766e-05 0.000568878 0)
(6.37809e-06 0.000255773 0)
(2.30161e-06 9.43926e-05 0)
(4.19034e-06 0.000168844 0)
(5.61764e-07 2.36554e-05 0)
(1.71331e-05 0.000683884 0)
(7.33169e-05 0.00168146 0)
(6.39668e-05 0.00172172 0)
(5.26619e-05 0.00159648 0)
(4.32506e-05 0.00145456 0)
(3.51961e-05 0.00126192 0)
(2.99091e-05 0.00111901 0)
(2.34685e-05 0.000924318 0)
(2.55531e-05 0.000993436 0)
(1.95284e-05 0.000806485 0)
(8.87587e-05 0.00133499 0)
(8.24481e-05 0.00117642 0)
(6.29488e-05 0.000807945 0)
(5.58047e-05 0.000639747 0)
(2.04107e-05 0.000228921 0)
(9.84233e-05 0.00164075 0)
(0.000100599 0.00178896 0)
(8.74422e-05 0.00177957 0)
(9.24159e-06 0.000375791 0)
(1.18813e-05 0.000473133 0)
(1.33784e-05 0.000537302 0)
(6.26583e-06 0.000259041 0)
(2.95802e-06 0.000123997 0)
(4.11883e-06 0.000171177 0)
(8.91064e-07 3.84856e-05 0)
(1.60019e-05 0.000666306 0)
(7.53792e-05 0.00178777 0)
(5.87397e-05 0.00173663 0)
(7.06113e-05 0.00181458 0)
(4.78153e-05 0.00157101 0)
(3.93566e-05 0.00144214 0)
(3.62366e-05 0.00135237 0)
(3.18677e-05 0.0011954 0)
(2.67729e-05 0.00106057 0)
(2.16169e-05 0.000892612 0)
(1.77776e-05 0.00077181 0)
(0.000103987 0.00154069 0)
(9.3882e-05 0.00124426 0)
(8.43294e-05 0.00106094 0)
(4.0926e-05 0.000450362 0)
(7.96334e-05 0.000888943 0)
(9.50818e-06 0.000100135 0)
(0.00010772 0.00168437 0)
(0.000111971 0.0019763 0)
(9.18749e-05 0.00194094 0)
(1.06817e-05 0.00043694 0)
(8.32804e-06 0.000348404 0)
(1.33475e-05 0.000556547 0)
(7.0676e-06 0.000297369 0)
(4.95281e-06 0.000208465 0)
(2.6159e-06 0.000112043 0)
(3.39878e-07 1.50294e-05 0)
(1.68018e-06 7.27054e-05 0)
(1.4439e-05 0.000611515 0)
(1.63458e-05 0.000709992 0)
(8.41844e-05 0.00192855 0)
(5.90596e-05 0.00184066 0)
(7.45801e-05 0.00196343 0)
(4.67681e-05 0.00165552 0)
(3.87751e-05 0.0015271 0)
(3.3165e-05 0.00132562 0)
(3.09247e-05 0.0012347 0)
(2.60999e-05 0.00109288 0)
(2.1195e-05 0.000921123 0)
(1.77635e-05 0.00080833 0)
(0.00011674 0.0016239 0)
(0.000113897 0.0014905 0)
(9.42472e-05 0.00110415 0)
(4.5626e-05 0.000463431 0)
(8.75399e-05 0.000905689 0)
(2.40217e-05 0.000238012 0)
(0.000122023 0.00187311 0)
(0.000113437 0.0021427 0)
(0.000124716 0.00202097 0)
(0.000102884 0.00211556 0)
(1.07397e-05 0.000456333 0)
(8.53982e-06 0.000370694 0)
(1.19136e-05 0.000511413 0)
(6.70987e-06 0.000291483 0)
(4.86538e-06 0.00021061 0)
(3.09998e-06 0.0001361 0)
(8.87137e-07 3.97152e-05 0)
(1.68133e-06 7.44419e-05 0)
(1.39598e-05 0.000616814 0)
(1.49826e-05 0.000672898 0)
(8.35514e-05 0.00203353 0)
(6.45478e-05 0.00198759 0)
(5.40942e-05 0.00183502 0)
(7.15511e-05 0.00204636 0)
(4.17868e-05 0.00162439 0)
(4.94851e-05 0.00176136 0)
(3.45982e-05 0.00148205 0)
(3.22936e-05 0.00137521 0)
(2.82111e-05 0.00119025 0)
(2.38356e-05 0.00105582 0)
(1.92229e-05 0.000873889 0)
(2.20757e-05 0.000986208 0)
(1.62363e-05 0.000777537 0)
(0.000130892 0.00185171 0)
(0.000129757 0.00157351 0)
(0.000119713 0.00136711 0)
(6.72708e-05 0.000663027 0)
(0.000112124 0.00113202 0)
(1.61823e-05 0.000146694 0)
(0.000125328 0.00231692 0)
(0.000137029 0.00220057 0)
(0.000101353 0.0022593 0)
(9.55112e-06 0.000418066 0)
(7.54275e-06 0.000333746 0)
(1.17677e-05 0.000525011 0)
(5.78868e-06 0.000254421 0)
(3.96111e-06 0.000174724 0)
(2.38879e-06 0.000106588 0)
(8.87794e-07 4.04617e-05 0)
(1.27473e-05 0.000576483 0)
(1.44921e-05 0.000677264 0)
(9.00632e-05 0.00218462 0)
(5.96246e-05 0.00205058 0)
(5.42223e-05 0.00195345 0)
(7.66282e-05 0.0021986 0)
(4.13405e-05 0.00171835 0)
(4.5883e-05 0.001806 0)
(3.22646e-05 0.00152105 0)
(2.909e-05 0.00132286 0)
(2.72977e-05 0.00122978 0)
(2.31747e-05 0.0011052 0)
(1.892e-05 0.000903392 0)
(2.03155e-05 0.000966312 0)
(1.61459e-05 0.000813415 0)
(1.49542e-05 0.000720803 0)
(0.000145772 0.00199025 0)
(0.00015035 0.0018063 0)
(0.000130076 0.00137862 0)
(7.35629e-05 0.000670489 0)
(0.000123043 0.00115454 0)
(4.2343e-05 0.000368196 0)
(0.000135876 0.00232525 0)
(0.00012908 0.00249609 0)
(0.000153017 0.00230505 0)
(0.000108751 0.00245139 0)
(9.56188e-06 0.000434261 0)
(7.23921e-06 0.000330835 0)
(1.06158e-05 0.000486543 0)
(5.5869e-06 0.000252729 0)
(4.07744e-06 0.000184352 0)
(2.35886e-06 0.00010765 0)
(1.63167e-06 7.51779e-05 0)
(3.46014e-07 1.59465e-05 0)
(1.24052e-05 0.000584493 0)
(1.31441e-05 0.000629408 0)
(8.62316e-05 0.00226656 0)
(6.02946e-05 0.0021666 0)
(4.82398e-05 0.00191946 0)
(7.42454e-05 0.00230168 0)
(3.71362e-05 0.00171798 0)
(2.85645e-05 0.00144617 0)
(3.29177e-05 0.00161755 0)
(2.75335e-05 0.001356 0)
(2.45919e-05 0.00118289 0)
(2.11828e-05 0.0010638 0)
(1.74084e-05 0.00087537 0)
(2.00016e-05 0.000996756 0)
(1.47802e-05 0.000782358 0)
(1.36783e-05 0.000691639 0)
(0.000154439 0.00196605 0)
(0.000158134 0.00223073 0)
(0.000170597 0.00192346 0)
(0.000156735 0.00158952 0)
(0.00010465 0.00092783 0)
(0.000155454 0.00144548 0)
(4.36369e-05 0.000350415 0)
(0.000147716 0.00249878 0)
(0.000144346 0.00261618 0)
(0.000121744 0.00256446 0)
(0.00016062 0.00251729 0)
(0.000100648 0.00253247 0)
(8.68048e-06 0.00040503 0)
(7.72166e-06 0.000361117 0)
(6.24394e-06 0.00028811 0)
(1.04366e-05 0.000497651 0)
(4.83277e-06 0.000220735 0)
(3.59971e-06 0.000165483 0)
(2.91474e-06 0.000134703 0)
(1.56336e-06 7.32365e-05 0)
(5.82591e-07 2.74563e-05 0)
(1.12595e-05 0.000544493 0)
(1.27686e-05 0.000639219 0)
(9.05168e-05 0.00242591 0)
(5.38218e-05 0.00220197 0)
(6.71658e-05 0.00228758 0)
(4.5454e-05 0.00198213 0)
(8.20032e-05 0.00244843 0)
(3.61412e-05 0.00181855 0)
(2.60762e-05 0.0014551 0)
(2.83763e-05 0.00161336 0)
(2.48866e-05 0.00130084 0)
(2.36174e-05 0.00121947 0)
(1.97927e-05 0.00106949 0)
(1.71003e-05 0.000906677 0)
(1.82969e-05 0.000965644 0)
(1.44908e-05 0.000812363 0)
(1.36126e-05 0.000718083 0)
(0.000174817 0.00218193 0)
(0.000177359 0.00234728 0)
(0.000177359 0.00184779 0)
(0.00018705 0.00217915 0)
(0.000116902 0.000957656 0)
(0.000176262 0.00152788 0)
(1.55365e-05 0.000120196 0)
(8.85892e-05 0.000681713 0)
(0.000153706 0.00280635 0)
(0.000127909 0.00279669 0)
(0.00017603 0.00270865 0)
(0.000102299 0.00270662 0)
(8.66518e-06 0.000419247 0)
(7.19069e-06 0.000348446 0)
(5.9152e-06 0.000280634 0)
(9.40674e-06 0.000460323 0)
(4.6014e-06 0.000215648 0)
(3.93401e-06 0.000184627 0)
(2.83137e-06 0.000133729 0)
(1.89669e-06 8.99749e-05 0)
(1.06776e-06 5.05096e-05 0)
(2.53561e-07 1.21047e-05 0)
(1.09345e-05 0.000551259 0)
(1.1691e-05 0.000600626 0)
(5.53093e-05 0.00234882 0)
(4.76762e-05 0.00212144 0)
(6.40982e-05 0.00241111 0)
(3.94423e-05 0.00193092 0)
(8.03553e-05 0.00257933 0)
(3.12456e-05 0.00178992 0)
(2.31593e-05 0.00138194 0)
(2.56208e-05 0.00152783 0)
(2.76673e-05 0.00168795 0)
(2.28774e-05 0.00131701 0)
(2.14297e-05 0.00118954 0)
(1.98293e-05 0.00112087 0)
(1.8089e-05 0.00100244 0)
(1.55219e-05 0.000874464 0)
(1.32393e-05 0.000775443 0)
(1.24809e-05 0.000690101 0)
(0.000195783 0.00257456 0)
(0.000210111 0.00207994 0)
(0.000209378 0.00237493 0)
(0.000157415 0.00126695 0)
(0.000210794 0.00181492 0)
(2.1324e-05 0.00013917 0)
(9.94486e-05 0.000705624 0)
(0.000172298 0.00288823 0)
(0.000144913 0.00292621 0)
(0.00011559 0.00285468 0)
(0.00019506 0.00275799 0)
(8.94311e-05 0.00272872 0)
(7.7187e-06 0.000381595 0)
(6.38737e-06 0.000310865 0)
(5.05579e-06 0.000241081 0)
(9.19977e-06 0.000468465 0)
(3.46819e-06 0.000165337 0)
(2.40031e-06 0.000114308 0)
(1.61406e-06 7.75649e-05 0)
(1.19607e-06 5.74039e-05 0)
(4.85227e-07 2.35564e-05 0)
(9.91039e-06 0.0005127 0)
(1.12089e-05 0.000602123 0)
(4.82839e-05 0.00240487 0)
(4.07122e-05 0.00214557 0)
(6.90653e-05 0.00255287 0)
(3.65746e-05 0.00202585 0)
(2.89097e-05 0.00186078 0)
(2.09918e-05 0.00139797 0)
(2.20109e-05 0.00148954 0)
(2.37606e-05 0.00169265 0)
(2.08821e-05 0.00124638 0)
(1.77861e-05 0.0010976 0)
(1.66187e-05 0.000981161 0)
(1.52657e-05 0.000910545 0)
(1.23533e-05 0.000717367 0)
(1.25291e-05 0.000781101 0)
(1.15145e-05 0.000639479 0)
(0.000216852 0.00261498 0)
(0.000225517 0.00206268 0)
(0.000225314 0.00235629 0)
(0.000177453 0.00131327 0)
(0.000237433 0.00188201 0)
(5.84932e-05 0.000377421 0)
(0.000147195 0.0010217 0)
(0.000184968 0.00310631 0)
(0.000153238 0.00313939 0)
(0.000114751 0.00303948 0)
(0.000215925 0.00303013 0)
(8.57756e-05 0.0028874 0)
(7.56254e-06 0.000386591 0)
(5.90708e-06 0.000294171 0)
(4.76851e-06 0.000232798 0)
(8.29253e-06 0.000431773 0)
(3.53733e-06 0.000172049 0)
(2.29552e-06 0.000111322 0)
(1.80466e-06 8.76709e-05 0)
(9.28631e-07 4.51373e-05 0)
(2.28603e-07 1.12167e-05 0)
(9.5728e-06 0.000517322 0)
(1.01393e-05 0.000558104 0)
(5.01346e-05 0.00257747 0)
(3.98635e-05 0.00227563 0)
(6.29243e-05 0.00267185 0)
(3.08881e-05 0.00198123 0)
(2.4107e-05 0.0017984 0)
(1.86353e-05 0.00134709 0)
(1.96367e-05 0.0015216 0)
(2.01085e-05 0.00161858 0)
(1.87541e-05 0.00122513 0)
(1.72795e-05 0.00114499 0)
(1.63682e-05 0.00102561 0)
(1.39082e-05 0.00088821 0)
(1.12858e-05 0.000689575 0)
(1.13249e-05 0.000722412 0)
(1.27271e-05 0.000825894 0)
(1.04979e-05 0.000612366 0)
(0.000239813 0.0028452 0)
(0.000265307 0.00233245 0)
(0.000256485 0.00260476 0)
(0.00022396 0.00163961 0)
(0.000276833 0.00221528 0)
(8.47802e-05 0.000514152 0)
(0.000151034 0.000960544 0)
(0.000208479 0.00319893 0)
(0.000174737 0.00323981 0)
(0.000144118 0.00325003 0)
(0.000127408 0.00320383 0)
(9.71081e-05 0.00304944 0)
(0.000240339 0.00308049 0)
(6.94648e-05 0.00285378 0)
(6.86899e-06 0.000358129 0)
(5.15452e-06 0.000256482 0)
(5.85749e-06 0.000300076 0)
(4.10023e-06 0.000201667 0)
(7.99507e-06 0.000434323 0)
(3.00753e-06 0.000148293 0)
(2.497e-06 0.000122757 0)
(1.58036e-06 7.76613e-05 0)
(1.12601e-06 5.53742e-05 0)
(3.58501e-07 1.78416e-05 0)
(8.56229e-06 0.000475082 0)
(9.78144e-06 0.000564453 0)
(4.14333e-05 0.00263666 0)
(3.1546e-05 0.00227705 0)
(2.6474e-05 0.00203227 0)
(2.0482e-05 0.0018344 0)
(1.60808e-05 0.00135942 0)
(1.77522e-05 0.00126793 0)
(1.60137e-05 0.00143763 0)
(1.62866e-05 0.00164063 0)
(1.52262e-05 0.00111326 0)
(1.47377e-05 0.000999562 0)
(1.3627e-05 0.000932262 0)
(1.04015e-05 0.000635206 0)
(1.05356e-05 0.000711426 0)
(1.15853e-05 0.000809045 0)
(0.000263477 0.00285753 0)
(0.0002815 0.00259944 0)
(0.000256108 0.00172786 0)
(0.000312523 0.00233773 0)
(7.86258e-05 0.000444054 0)
(0.00019277 0.00117525 0)
(0.000221007 0.0034589 0)
(0.000182615 0.0034347 0)
(0.000152768 0.00348112 0)
(0.000122603 0.00335876 0)
(9.45642e-05 0.00320442 0)
(0.000262514 0.00331191 0)
(6.15163e-05 0.00298781 0)
(6.72121e-06 0.000363481 0)
(6.1811e-06 0.000321953 0)
(4.82953e-06 0.000245742 0)
(5.14284e-06 0.0002663 0)
(3.96865e-06 0.000199472 0)
(7.16014e-06 0.000395207 0)
(3.05955e-06 0.000153949 0)
(2.16133e-06 0.000107583 0)
(1.74304e-06 8.66242e-05 0)
(9.8377e-07 4.88684e-05 0)
(1.39155e-07 6.9732e-06 0)
(6.64158e-07 3.31514e-05 0)
(8.2536e-06 0.000478172 0)
(8.89386e-06 0.000526631 0)
(4.05014e-05 0.00279809 0)
(3.17015e-05 0.00254822 0)
(2.80874e-05 0.00240527 0)
(2.6013e-05 0.00214852 0)
(2.09535e-05 0.00194587 0)
(1.61837e-05 0.00174982 0)
(1.42562e-05 0.00127863 0)
(1.53409e-05 0.00122899 0)
(1.31773e-05 0.00144896 0)
(1.30154e-05 0.00155449 0)
(1.42771e-05 0.00115435 0)
(1.4135e-05 0.00104008 0)
(1.22564e-05 0.000906003 0)
(9.44902e-06 0.000605272 0)
(1.0624e-05 0.000753683 0)
(9.62911e-06 0.000665389 0)
(1.13895e-05 0.000846176 0)
(0.000291564 0.00311005 0)
(0.000320271 0.00287932 0)
(0.000307433 0.00209072 0)
(0.000243316 0.00151905 0)
(0.000353077 0.00267681 0)
(0.000146858 0.000785742 0)
(3.22456e-05 0.000172047 0)
(0.000192757 0.0010711 0)
(0.000243258 0.00357973 0)
(0.000203556 0.00355262 0)
(0.00016965 0.00356133 0)
(0.000137455 0.00353322 0)
(0.000108744 0.00335319 0)
(8.22595e-05 0.00326236 0)
(0.000261264 0.00351171 0)
(0.000289558 0.00332709 0)
(6.78295e-05 0.00318784 0)
(4.71766e-05 0.00293772 0)
(6.05567e-06 0.000331407 0)
(5.75169e-06 0.000308637 0)
(4.31164e-06 0.000220173 0)
(4.8087e-06 0.000255323 0)
(3.48799e-06 0.000176941 0)
(6.68461e-06 0.000383188 0)
(2.5927e-06 0.000131908 0)
(2.199e-06 0.000111153 0)
(1.524e-06 7.66422e-05 0)
(1.20435e-06 6.05203e-05 0)
(2.28731e-07 1.15759e-05 0)
(6.81665e-07 3.43766e-05 0)
(7.43117e-06 0.000443032 0)
(8.49886e-06 0.00052588 0)
(2.6453e-05 0.00279754 0)
(2.28394e-05 0.00265854 0)
(1.86649e-05 0.0023621 0)
(1.8207e-05 0.00212448 0)
(1.63233e-05 0.00199388 0)
(1.17069e-05 0.00177681 0)
(1.18343e-05 0.00123578 0)
(1.04653e-05 0.00136656 0)
(9.47765e-06 0.00156203 0)
(1.21639e-05 0.00111001 0)
(1.24134e-05 0.00100321 0)
(1.16603e-05 0.000937397 0)
(9.20529e-06 0.000622323 0)
(8.70749e-06 0.000557712 0)
(9.67912e-06 0.000736775 0)
(8.88945e-06 0.000655715 0)
(1.02984e-05 0.000820649 0)
(0.000321878 0.00313933 0)
(0.00035428 0.00292288 0)
(0.000348793 0.00218882 0)
(0.000286078 0.00163337 0)
(0.000397537 0.00276033 0)
(0.000151547 0.000725885 0)
(8.07566e-05 0.0003847 0)
(0.000255717 0.00135804 0)
(0.000251076 0.00381891 0)
(0.000203063 0.0037355 0)
(0.000179558 0.00373591 0)
(0.000132686 0.00367294 0)
(0.000103689 0.00349619 0)
(8.68262e-05 0.00345122 0)
(0.000283765 0.00371678 0)
(0.000313224 0.00355236 0)
(5.51242e-05 0.00330627 0)
(3.68016e-05 0.00305901 0)
(5.73599e-06 0.000322454 0)
(5.1035e-06 0.000276102 0)
(3.97915e-06 0.000207463 0)
(4.17005e-06 0.000221853 0)
(3.50097e-06 0.000181422 0)
(6.78265e-06 0.000401933 0)
(5.9659e-06 0.000343508 0)
(2.60734e-06 0.000135034 0)
(1.77013e-06 8.99269e-05 0)
(9.72945e-07 4.92759e-05 0)
(8.78928e-08 4.46439e-06 0)
(4.62017e-07 2.3423e-05 0)
(7.21811e-06 0.000450318 0)
(7.68971e-06 0.000486693 0)
(2.28917e-05 0.00294057 0)
(1.54797e-05 0.00259681 0)
(1.46363e-05 0.00221386 0)
(1.42609e-05 0.00245025 0)
(1.10913e-05 0.00190831 0)
(8.3257e-06 0.00167306 0)
(1.09119e-05 0.00114115 0)
(1.01596e-05 0.00126879 0)
(7.5731e-06 0.00137592 0)
(6.86419e-06 0.00146636 0)
(1.14407e-05 0.00103285 0)
(1.02609e-05 0.000896922 0)
(8.24781e-06 0.000585323 0)
(7.95154e-06 0.000531866 0)
(9.54027e-06 0.000767456 0)
(8.8848e-06 0.000686059 0)
(8.11673e-06 0.000605226 0)
(9.76661e-06 0.000841622 0)
(0.00035065 0.0033981 0)
(0.000394019 0.00325395 0)
(0.000339717 0.00193251 0)
(0.000397168 0.00251342 0)
(0.000437285 0.00305924 0)
(0.000212429 0.000958087 0)
(5.00963e-05 0.000212316 0)
(0.000270524 0.00130351 0)
(0.000238811 0.00396316 0)
(0.000276519 0.00388819 0)
(0.000216064 0.00390851 0)
(0.000175819 0.00388617 0)
(0.000139923 0.00384617 0)
(0.000112792 0.00363899 0)
(7.72873e-05 0.00355952 0)
(0.000307256 0.00373661 0)
(0.000342638 0.00358975 0)
(5.94853e-05 0.00349339 0)
(3.91475e-05 0.00322573 0)
(5.1455e-06 0.000290953 0)
(4.82021e-06 0.000267411 0)
(3.80418e-06 0.000206322 0)
(3.08358e-06 0.000161401 0)
(6.02264e-06 0.000370037 0)
(5.51492e-06 0.000326107 0)
(2.24928e-06 0.000117502 0)
(1.63482e-06 8.40833e-05 0)
(9.73761e-07 4.98585e-05 0)
(1.02595e-07 5.2433e-06 0)
(4.81528e-07 2.46185e-05 0)
(6.50877e-06 0.000418292 0)
(7.43904e-06 0.000491972 0)
(9.68447e-06 0.00299527 0)
(5.96108e-06 0.00258716 0)
(6.92146e-06 0.00218599 0)
(6.4976e-06 0.00243878 0)
(5.88233e-06 0.00193878 0)
(4.25061e-06 0.00166289 0)
(8.74219e-06 0.00107896 0)
(8.07922e-06 0.00120134 0)
(5.6152e-06 0.00129257 0)
(3.44962e-06 0.0014662 0)
(9.80953e-06 0.000984271 0)
(9.40262e-06 0.000915402 0)
(7.73129e-06 0.000543207 0)
(8.55031e-06 0.000749538 0)
(8.08619e-06 0.000668406 0)
(7.47963e-06 0.000588366 0)
(8.58702e-06 0.000792296 0)
(0.000386692 0.00346438 0)
(0.000432953 0.00330344 0)
(0.000384821 0.00201295 0)
(0.000449208 0.00258768 0)
(0.000482058 0.00311052 0)
(0.000237077 0.000949128 0)
(9.6341e-05 0.000358727 0)
(0.00033263 0.00150536 0)
(0.000252606 0.00418854 0)
(0.000291208 0.00407647 0)
(0.000198303 0.00402814 0)
(0.000157619 0.0039405 0)
(0.000119602 0.00393063 0)
(0.000105385 0.00378835 0)
(8.57375e-05 0.0037544 0)
(0.000326924 0.00394374 0)
(0.000364593 0.003813 0)
(4.65972e-05 0.00360017 0)
(2.37113e-05 0.00333129 0)
(4.77114e-06 0.000276613 0)
(4.24684e-06 0.000239056 0)
(3.85338e-06 0.000214856 0)
(3.26092e-06 0.000177018 0)
(2.97635e-06 0.000159143 0)
(5.49904e-06 0.000335633 0)
(5.94241e-06 0.000378792 0)
(4.92238e-06 0.000291356 0)
(2.20037e-06 0.000117044 0)
(1.84239e-06 9.5938e-05 0)
(1.22783e-06 6.33261e-05 0)
(6.97339e-07 3.58327e-05 0)
(2.10604e-08 1.07767e-06 0)
(1.86091e-07 9.53388e-06 0)
(3.27572e-07 1.67904e-05 0)
(6.3206e-06 0.000424133 0)
(6.785e-06 0.000461899 0)
(-2.34761e-06 0.00286384 0)
(7.1727e-06 0.00321529 0)
(-1.50122e-06 0.00266224 0)
(3.77177e-06 0.00206744 0)
(2.44628e-06 0.00232179 0)
(1.49062e-06 0.00184778 0)
(2.1336e-06 0.00155236 0)
(1.34647e-06 0.00173918 0)
(8.43634e-06 0.0010005 0)
(7.51323e-06 0.0011061 0)
(6.22107e-06 0.00121674 0)
(2.79342e-06 0.00128307 0)
(1.41206e-06 0.00136365 0)
(8.14786e-06 0.000863888 0)
(6.93969e-06 0.000505651 0)
(7.89629e-06 0.000700587 0)
(7.45767e-06 0.000620898 0)
(6.73465e-06 0.000540376 0)
(7.85852e-06 0.000797605 0)
(0.000408876 0.0037096 0)
(0.000469263 0.00356703 0)
(0.000383931 0.00180408 0)
(0.00044483 0.00233732 0)
(0.000494761 0.00288675 0)
(0.000513601 0.00335705 0)
(0.000190485 0.000699073 0)
(0.000324267 0.00127686 0)
(4.73292e-05 0.00015141 0)
(0.00024158 0.00434615 0)
(0.000280649 0.00423192 0)
(0.000317803 0.00411294 0)
(0.00019839 0.0041952 0)
(0.000157301 0.00412828 0)
(0.000117784 0.00411327 0)
(7.34672e-05 0.00387251 0)
(0.000354141 0.00397924 0)
(0.000394156 0.00385879 0)
(5.21177e-05 0.0037841 0)
(2.62845e-05 0.00352187 0)
(4.2172e-06 0.000243953 0)
(3.31298e-06 0.000186913 0)
(3.00996e-06 0.000166949 0)
(2.4807e-06 0.000133421 0)
(4.84815e-06 0.000301548 0)
(5.33957e-06 0.000351621 0)
(4.53079e-06 0.000275779 0)
(1.80004e-06 9.60782e-05 0)
(1.61024e-06 8.48912e-05 0)
(1.09108e-06 5.69475e-05 0)
(6.29571e-07 3.26598e-05 0)
(2.35127e-08 1.20693e-06 0)
(9.67192e-08 4.96797e-06 0)
(2.9736e-07 1.53551e-05 0)
(5.74063e-06 0.000395735 0)
(6.52272e-06 0.000465708 0)
(-1.83663e-05 0.00291956 0)
(-1.22543e-05 0.00328098 0)
(-1.14187e-05 0.00255893 0)
(-3.58759e-06 0.0020377 0)
(-6.25397e-06 0.00229301 0)
(-3.95372e-06 0.00190474 0)
(-1.72263e-06 0.00155109 0)
(-2.91895e-06 0.00165722 0)
(7.24272e-06 0.000937974 0)
(5.80046e-06 0.00106968 0)
(4.90505e-06 0.00113811 0)
(1.85753e-06 0.00119401 0)
(-1.51425e-06 0.00135738 0)
(7.28678e-06 0.000871811 0)
(6.51993e-06 0.000504675 0)
(6.97022e-06 0.000669148 0)
(6.81015e-06 0.000601584 0)
(6.22627e-06 0.000531627 0)
(6.73471e-06 0.000743821 0)
(0.000442561 0.00384138 0)
(0.000469433 0.0038041 0)
(0.000506289 0.00356001 0)
(0.000451237 0.00196166 0)
(0.000490595 0.00230407 0)
(0.00054377 0.0029651 0)
(0.000557534 0.00342432 0)
(0.000211207 0.000664735 0)
(0.000393106 0.0013969 0)
(0.000116009 0.000335737 0)
(0.000258065 0.00454263 0)
(0.000217075 0.00433877 0)
(0.000297465 0.0044315 0)
(0.00033267 0.00428703 0)
(0.000175863 0.00423738 0)
(0.000138233 0.00421807 0)
(9.73065e-05 0.00416587 0)
(7.83017e-05 0.00404773 0)
(0.000374001 0.00419825 0)
(0.000413903 0.00406449 0)
(3.89143e-05 0.00387545 0)
(1.30827e-05 0.00363579 0)
(3.78631e-06 0.000224204 0)
(3.10553e-06 0.0001791 0)
(2.53477e-06 0.000141189 0)
(2.28426e-06 0.000125266 0)
(4.62199e-06 0.000295794 0)
(5.30743e-06 0.000362528 0)
(4.84933e-06 0.000318868 0)
(3.94752e-06 0.000240744 0)
(1.61884e-06 8.76047e-05 0)
(1.26839e-06 6.69058e-05 0)
(7.81123e-07 4.08332e-05 0)
(3.96033e-07 2.05594e-05 0)
(1.20673e-07 6.21902e-06 0)
(5.51234e-06 0.000397379 0)
(5.82612e-06 0.000428309 0)
(-2.74995e-05 0.00276435 0)
(-2.52138e-05 0.00311358 0)
(-1.71928e-05 0.00346251 0)
(-2.25901e-05 0.0026097 0)
(-1.24633e-05 0.00239391 0)
(-8.63e-06 0.00212693 0)
(-7.59856e-06 0.00182785 0)
(-3.35681e-06 0.00145791 0)
(-6.46064e-06 0.0016902 0)
(6.01474e-06 0.000914494 0)
(4.80916e-06 0.000995316 0)
(3.18806e-06 0.00112712 0)
(-2.64224e-07 0.00113822 0)
(-3.23124e-06 0.00127132 0)
(6.25193e-06 0.000821512 0)
(5.88547e-06 0.000464792 0)
(6.54541e-06 0.000619446 0)
(6.41048e-06 0.000683237 0)
(6.31597e-06 0.000561948 0)
(5.63095e-06 0.000496966 0)
(5.97588e-06 0.000757314 0)
(0.000444523 0.00407426 0)
(0.000509133 0.00403016 0)
(0.00054086 0.0037562 0)
(0.000471294 0.00177838 0)
(0.00055576 0.00252981 0)
(0.000573943 0.00326476 0)
(0.000574366 0.00284046 0)
(0.00057485 0.00367497 0)
(0.000283749 0.000821598 0)
(0.000380982 0.00114832 0)
(0.000132168 0.000332758 0)
(0.000285574 0.0045812 0)
(0.000245959 0.00468869 0)
(0.000207495 0.0045107 0)
(0.000323317 0.00444661 0)
(0.000360709 0.00433506 0)
(0.000170202 0.00438503 0)
(0.000144241 0.00437866 0)
(8.96992e-05 0.0043355 0)
(5.90519e-05 0.00413719 0)
(0.000404734 0.00423591 0)
(4.19167e-05 0.00405391 0)
(2.10507e-05 0.00381207 0)
(-4.16605e-06 0.0036053 0)
(3.28951e-06 0.000194274 0)
(2.54177e-06 0.000147388 0)
(2.27433e-06 0.000129576 0)
(1.82653e-06 0.000100327 0)
(4.04941e-06 0.000263383 0)
(4.80354e-06 0.000339562 0)
(4.39393e-06 0.000297727 0)
(3.5893e-06 0.000224474 0)
(1.20182e-06 6.49909e-05 0)
(1.05021e-06 5.60696e-05 0)
(6.22447e-07 3.28481e-05 0)
(2.48457e-07 1.30253e-05 0)
(4.90087e-08 2.53286e-06 0)
(4.90882e-06 0.000358809 0)
(5.5955e-06 0.000429406 0)
(-4.26881e-05 0.00277249 0)
(-4.32514e-05 0.00311135 0)
(-3.69632e-05 0.00352498 0)
(-2.84552e-05 0.00246009 0)
(-2.16932e-05 0.00233678 0)
(-1.64545e-05 0.00207168 0)
(-1.23952e-05 0.00183907 0)
(-6.91428e-06 0.00142114 0)
(-1.03206e-05 0.001626 0)
(5.06382e-06 0.00093085 0)
(5.54766e-06 0.000839019 0)
(3.04633e-06 0.00098404 0)
(2.2762e-06 0.00104937 0)
(-2.40399e-06 0.00116616 0)
(4.17271e-07 0.00104433 0)
(-6.36398e-06 0.00129805 0)
(5.40009e-06 0.00044794 0)
(5.7954e-06 0.000575359 0)
(5.53311e-06 0.000627884 0)
(5.72808e-06 0.000544573 0)
(5.29098e-06 0.000460411 0)
(5.35935e-06 0.000506379 0)
(4.99206e-06 0.000711537 0)
(0.000468867 0.00426403 0)
(0.00054412 0.00398143 0)
(0.00050582 0.00426199 0)
(0.000559247 0.00196128 0)
(0.000605135 0.00238512 0)
(0.000615576 0.00330062 0)
(0.000623957 0.00304406 0)
(0.000612561 0.00381296 0)
(0.000256128 0.000608659 0)
(0.000461231 0.00119696 0)
(6.87305e-05 0.000150507 0)
(0.000297995 0.0047543 0)
(0.000221048 0.00466551 0)
(0.000259733 0.00486153 0)
(0.000183542 0.00450956 0)
(0.000343833 0.00459877 0)
(0.000370556 0.00452967 0)
(0.000136238 0.00448964 0)
(9.76644e-05 0.00448537 0)
(6.31689e-05 0.0043009 0)
(0.000424582 0.00440955 0)
(2.2041e-05 0.00409037 0)
(1.0495e-05 0.0039335 0)
(-1.49275e-05 0.00375115 0)
(2.80778e-06 0.000169143 0)
(2.37676e-06 0.000141088 0)
(1.77745e-06 0.000101159 0)
(1.57665e-06 8.79762e-05 0)
(3.66949e-06 0.000236559 0)
(3.97479e-06 0.00026713 0)
(4.37969e-06 0.000307537 0)
(3.04227e-06 0.000191316 0)
(9.51645e-07 5.2087e-05 0)
(7.23684e-07 3.85791e-05 0)
(3.2384e-07 1.71116e-05 0)
(7.8674e-08 4.11941e-06 0)
(4.5293e-06 0.000345012 0)
(5.07593e-06 0.000400737 0)
(-5.08885e-05 0.00292848 0)
(-4.78172e-05 0.00259363 0)
(-5.63906e-05 0.00324945 0)
(-3.47522e-05 0.00370971 0)
(-5.50441e-05 0.00343605 0)
(-3.89458e-05 0.00244059 0)
(-2.34817e-05 0.00218012 0)
(-1.67447e-05 0.0019314 0)
(-1.4008e-05 0.00170915 0)
(-1.03102e-05 0.00149369 0)
(3.94568e-06 0.000846914 0)
(4.4684e-06 0.000802603 0)
(2.24123e-06 0.000908915 0)
(-4.07125e-06 0.00108209 0)
(-3.18049e-07 0.000965797 0)
(-8.02944e-06 0.00121687 0)
(4.97248e-06 0.000410706 0)
(5.34758e-06 0.000572671 0)
(4.90318e-06 0.000618626 0)
(4.74092e-06 0.000429318 0)
(4.77185e-06 0.000472335 0)
(4.65528e-06 0.000652964 0)
(4.20365e-06 0.000736232 0)
(0.00045783 0.00442774 0)
(0.000579161 0.00412904 0)
(0.000532256 0.00444562 0)
(0.000596158 0.00178388 0)
(0.000672234 0.00258648 0)
(0.00064986 0.00349743 0)
(0.000670566 0.00309231 0)
(0.000650101 0.00373271 0)
(0.000613497 0.00404141 0)
(0.0003229 0.00066451 0)
(0.000427752 0.000922219 0)
(0.000552684 0.00144852 0)
(0.000126601 0.00019793 0)
(0.000283888 0.00488466 0)
(0.000322335 0.00482512 0)
(0.000209044 0.00480311 0)
(0.000245859 0.00500581 0)
(0.000173072 0.00464226 0)
(0.000343706 0.0047655 0)
(0.000395523 0.00463528 0)
(0.000151997 0.00462862 0)
(0.000117626 0.00453586 0)
(7.82617e-05 0.00461277 0)
(4.72089e-05 0.00441311 0)
(0.000419355 0.00457548 0)
(1.27546e-05 0.0042242 0)
(-7.52363e-06 0.00390368 0)
(2.72794e-06 0.000168762 0)
(1.90758e-06 0.00011454 0)
(1.46202e-06 8.45919e-05 0)
(1.12151e-06 6.23579e-05 0)
(3.13315e-06 0.000206602 0)
(3.53629e-06 0.000242868 0)
(3.92222e-06 0.000281874 0)
(2.79053e-06 0.000181279 0)
(4.78334e-07 2.60194e-05 0)