/*--------------------------------*- C++ -*----------------------------------*\
| =========                 |                                                 |
| \\      /  F ield         | OpenFOAM: The Open Source CFD Toolbox           |
|  \\    /   O peration     | Version:  v2012                                 |
|   \\  /    A nd           | Website:  www.openfoam.com                      |
|    \\/     M anipulation  |                                                 |
\*---------------------------------------------------------------------------*/
FoamFile
{
    version     2.0;
    format      ascii;
    class       volScalarField;
    location    "1.7";
    object      k;
}
// * * * * * * * * * * * * * * * * * * * * * * * * * * * * * * * * * * * * * //

dimensions      [0 2 -2 0 0 0 0];


internalField   nonuniform List<scalar> 
13611
(
0.000575546
0.000591639
0.00058177
0.000562399
0.000425321
0.000486798
0.0005743
0.000562543
0.00114406
0.000420757
0.000443029
0.000564333
0.000550301
0.000581305
0.000530984
0.000424316
0.000543319
0.000600344
0.000594704
0.000562811
0.000581682
0.000599212
0.00117394
0.00042665
0.000521421
0.000598457
0.00075695
0.000617324
0.000552938
0.000566526
0.000598901
0.000617573
0.000570768
0.000468448
0.000526874
0.000624131
0.000632801
0.000866856
0.000631109
0.000538007
0.000566221
0.000593599
0.000612445
0.000620645
0.000421628
0.00121217
0.000451261
0.000526268
0.000653948
0.000648593
0.000724868
0.000650365
0.000539762
0.000579394
0.000552486
0.00060473
0.000620184
0.000639048
0.000361376
0.0005056
0.000460514
0.000519839
0.000663804
0.000665093
0.000663738
0.00105185
0.000653449
0.00052626
0.000575218
0.000548666
0.000604571
0.000633914
0.000409982
0.000345862
0.00110931
0.000498727
0.00051679
0.000686106
0.000687013
0.000691073
0.000633538
0.000671065
0.000525144
0.000559783
0.000586575
0.000537029
0.000618128
0.00064803
0.000413903
0.00031318
0.000419276
0.000501135
0.000502061
0.000704124
0.000688033
0.000702262
0.000710941
0.000706523
0.000823449
0.000669189
0.000517307
0.000553918
0.000583268
0.00053211
0.000611342
0.000630178
0.000646397
0.000471958
0.000375717
0.000315016
0.00100888
0.000494793
0.000497382
0.000730039
0.000705778
0.000722017
0.000742321
0.00074788
0.00079195
0.000687012
0.000508228
0.000521067
0.000540138
0.000563513
0.000576672
0.000599703
0.000622101
0.000665942
0.00047668
0.000391525
0.000355472
0.00057296
0.000482926
0.000489327
0.000739215
0.000708914
0.000768665
0.000766335
0.000758665
0.000858459
0.000687284
0.000501199
0.000511517
0.000539752
0.000551917
0.000586047
0.000601009
0.000635275
0.000669334
0.000475385
0.000442168
0.000358512
0.000386195
0.000474939
0.000479224
0.000491764
0.000763085
0.000729668
0.000811601
0.000792145
0.000795005
0.000926347
0.000709929
0.000501917
0.000515062
0.000528763
0.000557272
0.000574887
0.000613851
0.000652922
0.000628745
0.000691211
0.000466615
0.000445179
0.000384532
0.000296287
0.00114815
0.000465153
0.000471314
0.000486171
0.000792531
0.000750115
0.000731174
0.000833833
0.000828057
0.000802739
0.00131886
0.000712863
0.000490615
0.000507841
0.000527993
0.000552876
0.000580624
0.000608175
0.000653274
0.000637863
0.000690265
0.000458329
0.000450443
0.0003618
0.000232706
0.000662665
0.000458263
0.000461855
0.000475166
0.000806931
0.000767717
0.000753279
0.00086648
0.000834138
0.000839492
0.000918608
0.000734664
0.000488481
0.000513719
0.000497869
0.000539258
0.000564065
0.000577318
0.000596987
0.000623595
0.0006702
0.000712978
0.00045129
0.000445539
0.00039535
0.000365486
0.00028047
0.000725874
0.000450387
0.000453361
0.000470919
0.000793146
0.000839043
0.000767475
0.000855013
0.000895983
0.000865596
0.00146654
0.00079801
0.000755175
0.000733455
0.000478677
0.000509309
0.000489223
0.00053777
0.00056031
0.000587786
0.000601578
0.000630926
0.00067368
0.000714655
0.000442444
0.000442611
0.000381741
0.000333584
0.000262654
0.000416578
0.000441323
0.000452665
0.000443988
0.000461279
0.000812079
0.000860992
0.000797255
0.000891877
0.000933108
0.00097683
0.000950343
0.00086618
0.000770941
0.000753741
0.000479833
0.000499844
0.000519316
0.000490234
0.000548457
0.000528579
0.000571189
0.000586749
0.000615541
0.000649162
0.00069665
0.000664813
0.000738308
0.000436659
0.000434895
0.00041161
0.000292524
0.000310918
0.00105894
0.000444457
0.000437554
0.000461559
0.000845735
0.000894479
0.000812689
0.000922057
0.000971639
0.000979388
0.00110935
0.000795075
0.000765443
0.000471464
0.000502291
0.000511739
0.000480762
0.000537803
0.000528169
0.000568786
0.000599583
0.000615394
0.000646781
0.000695977
0.000677394
0.000734391
0.000760379
0.000429339
0.000427272
0.000399053
0.000292539
0.000302414
0.00055663
0.000438217
0.000440248
0.000429537
0.000454177
0.000867897
0.000927218
0.000843734
0.000955888
0.00100564
0.00104061
0.00107009
0.00141306
0.00080739
0.000793099
0.000471262
0.000493355
0.000515572
0.000477493
0.000542758
0.000582823
0.000557689
0.000596721
0.00062998
0.00066079
0.000712944
0.000676102
0.000754193
0.00078167
0.000423077
0.00042506
0.000418163
0.000424639
0.000280149
0.00037282
0.000437084
0.000431868
0.000432603
0.000445272
0.000426702
0.000456055
0.000902884
0.000931403
0.00096356
0.000855041
0.000990518
0.00104468
0.00107153
0.00111709
0.00109746
0.000837834
0.000806733
0.000464817
0.000492673
0.000483528
0.000511591
0.000467469
0.000533096
0.000583521
0.000561457
0.00060979
0.000623786
0.000663068
0.000710301
0.000692446
0.00075179
0.000780126
0.000416073
0.000417628
0.000415575
0.00041188
0.000260994
0.000376527
0.00104331
0.000286374
0.000426915
0.000437954
0.000420116
0.000449849
0.0009102
0.000972053
0.00100251
0.000891832
0.00102484
0.00106205
0.00112446
0.00116035
0.00112652
0.0015538
0.000856275
0.000832951
0.000481128
0.000501272
0.000476945
0.000521374
0.000462309
0.000537908
0.000597805
0.000574205
0.000550963
0.000610146
0.000635358
0.000651728
0.000682233
0.000728193
0.000772591
0.00080574
0.000411223
0.000404891
0.00040498
0.000311638
0.000388064
0.0012451
0.000226305
0.000419486
0.000429761
0.000440369
0.000412796
0.000452713
0.000951923
0.00101081
0.00103952
0.000914744
0.00110604
0.00116693
0.00120917
0.00119684
0.00122467
0.000889887
0.000842972
0.000481021
0.000502966
0.000467119
0.000513172
0.000531816
0.000595511
0.000579595
0.00055102
0.000623479
0.000660297
0.000692534
0.000715741
0.000797775
0.000771604
0.000833104
0.000404454
0.00039958
0.000399529
0.000303264
0.000387496
0.000614401
0.000215135
0.000413539
0.000422305
0.000434518
0.0004055
0.000447037
0.000978792
0.00105147
0.00108691
0.000954204
0.0011463
0.0012174
0.00125958
0.0012501
0.00165561
0.000902502
0.00087846
0.000468855
0.000491579
0.000462359
0.00051877
0.000538016
0.000606475
0.000575885
0.000561793
0.000630406
0.000649522
0.000680681
0.000728802
0.000818889
0.000800178
0.000754577
0.000856211
0.000398672
0.00039252
0.000392287
0.000346897
0.000389028
0.000501677
0.000227421
0.000405736
0.000415161
0.000420754
0.000427139
0.000438516
0.000399221
0.000451891
0.00102304
0.00108374
0.00107206
0.00113413
0.000976669
0.00121003
0.0012421
0.00131472
0.00136068
0.00140968
0.000944128
0.000889238
0.000464049
0.000491538
0.000512858
0.000532508
0.000603945
0.000621321
0.000588437
0.00055545
0.000658643
0.000690873
0.000713114
0.000849471
0.000813776
0.000764893
0.000392282
0.000386306
0.000351556
0.000385578
0.000379789
0.00021283
0.000400962
0.000409881
0.000414238
0.000422411
0.000431514
0.000393122
0.000444044
0.00104416
0.00105268
0.00113314
0.00113
0.00118039
0.00102366
0.00125315
0.00131253
0.00134036
0.00142447
0.00180044
0.00146556
0.000959079
0.000922593
0.000455843
0.000471902
0.000481412
0.000503058
0.000520585
0.000541074
0.000616417
0.000630244
0.000581785
0.000564806
0.000646714
0.000678742
0.000721897
0.000879141
0.000790204
0.000841719
0.000745463
0.0003869
0.000379891
0.00037217
0.000312466
0.000376031
0.000171543
0.00131667
0.000174099
0.000395464
0.000403666
0.000409264
0.000415024
0.000424711
0.000429113
0.000391128
0.000387658
0.000434695
0.000447044
0.00109168
0.00109948
0.00117603
0.001175
0.00123172
0.00105648
0.00132823
0.00135714
0.00141781
0.0014766
0.00164268
0.00157385
0.0010042
0.000929813
0.000455734
0.000462874
0.000482507
0.000502971
0.000512978
0.000534713
0.000623233
0.000593251
0.000559825
0.000655518
0.000688465
0.000710176
0.000867585
0.000914339
0.000792308
0.000840131
0.000750171
0.000380673
0.000372785
0.000370439
0.000336848
0.000369597
0.000156409
0.000518804
0.000254536
0.000391056
0.000400979
0.000403957
0.000411128
0.000419856
0.000421438
0.000386495
0.000382778
0.000430378
0.000442468
0.0011303
0.00115232
0.00122476
0.00123825
0.00127622
0.00104664
0.00111299
0.00138218
0.00143568
0.00156377
0.00199004
0.0016674
0.00100533
0.000972437
0.000446891
0.000465088
0.000492759
0.000474614
0.000519928
0.00054374
0.000643824
0.000611487
0.000586186
0.000570703
0.000676516
0.000721747
0.000893785
0.000937512
0.000775252
0.00081978
0.000870662
0.000743813
0.000376486
0.00036847
0.000358692
0.000367772
0.000363354
0.000161769
0.00127898
0.000244318
0.00039183
0.000386705
0.000396158
0.000399464
0.000405938
0.000414357
0.000418356
0.000382238
0.000378019
0.000422806
0.000434609
0.00118246
0.00119653
0.0013012
0.00133881
0.00109742
0.00114985
0.00146209
0.00151573
0.00165093
0.00194776
0.00180226
0.00104934
0.000974359
0.000440415
0.000463433
0.000491004
0.000471187
0.000512011
0.000539795
0.000653896
0.00061922
0.000595785
0.000563937
0.000687295
0.000710502
0.000927271
0.000784917
0.00082921
0.000885127
0.000761627
0.000371001
0.00036317
0.000360332
0.000361569
0.000358211
0.000136029
0.000571664
0.000295312
0.000386564
0.000382764
0.000394361
0.000401061
0.000404531
0.000409015
0.000410849
0.000378312
0.000374053
0.000418091
0.00042739
0.00122539
0.00126066
0.00131186
0.00136469
0.00138453
0.00115026
0.00109617
0.0012063
0.00150538
0.00151433
0.00161923
0.00177432
0.00222449
0.00196415
0.00192463
0.00104967
0.00100776
0.000445118
0.000429557
0.000456626
0.000500405
0.000479199
0.00051872
0.000551422
0.000529596
0.000674875
0.000638664
0.00061198
0.000588605
0.000572868
0.000723535
0.000957776
0.00080881
0.000858725
0.000921766
0.000750812
0.000368043
0.000359418
0.000346176
0.000359025
0.000356621
0.000354584
0.000232931
0.000237771
0.00139157
0.000383408
0.000382871
0.000378684
0.000390867
0.000396514
0.000398526
0.000407461
0.000374288
0.000370301
0.000411666
0.000420179
0.00128554
0.00138902
0.00143398
0.00147713
0.00120587
0.0011498
0.00125206
0.00160289
0.00161733
0.00172534
0.0018838
0.00229999
0.00214845
0.002044
0.00108997
0.000999801
0.000439695
0.000424432
0.00045933
0.000498655
0.000478108
0.000507488
0.000542556
0.000531235
0.000686776
0.000640229
0.000621776
0.000598504
0.000563555
0.000711053
0.000958293
0.000820833
0.000864205
0.000917669
0.000768872
0.000364649
0.000361075
0.000355473
0.000352368
0.000354349
0.000352356
0.000350648
0.000226005
0.000276455
0.000827479
0.000378669
0.000386126
0.000378414
0.000375636
0.000392421
0.000394673
0.000396774
0.000402048
0.000370725
0.000367045
0.000407575
0.000413526
0.00135208
0.00143878
0.00151877
0.00154943
0.00124264
0.00113389
0.00120243
0.00132415
0.00168548
0.0017137
0.0018532
0.00202998
0.00220449
0.00108371
0.00103737
0.000444817
0.000429761
0.000417144
0.000453833
0.000469291
0.000488152
0.000508861
0.000548139
0.000521738
0.000685833
0.000656501
0.000615492
0.00059831
0.000569283
0.000723887
0.000996336
0.000852112
0.000799702
0.000895127
0.000950774
0.000747854
0.000364075
0.000357585
0.000352673
0.000340765
0.000349339
0.00034919
0.000348595
0.000349581
0.000129161
0.000240588
0.000529514
0.000375868
0.000377598
0.000384114
0.00037557
0.000371563
0.000389727
0.000390658
0.000393155
0.000399364
0.000367114
0.000401953
0.000408463
0.00041197
0.00142869
0.00154101
0.00159795
0.00165804
0.00131356
0.00117113
0.0012288
0.00138619
0.00180918
0.00182904
0.00197662
0.00218676
0.00234378
0.00112763
0.00102879
0.000439057
0.00042578
0.000411103
0.00045758
0.000467006
0.000485436
0.000503763
0.000545
0.000520662
0.000675679
0.000707783
0.000644033
0.000626633
0.000583913
0.000613772
0.000555395
0.00101326
0.000872397
0.000815116
0.000904208
0.000985864
0.000931234
0.000756824
0.000360771
0.000354156
0.000357434
0.000342954
0.000344468
0.000345841
0.000345339
0.000347391
0.000175698
0.000270531
0.00142033
0.000372458
0.00038035
0.000373912
0.000386229
0.000372208
0.000370015
0.000387127
0.000388964
0.000394786
0.000364234
0.000399772
0.000403082
0.000406378
0.00150727
0.00160023
0.00171674
0.00174834
0.00137483
0.00129387
0.00122457
0.0014745
0.00192836
0.00196504
0.00214255
0.00234525
0.00115595
0.00107325
0.000431174
0.000443117
0.000419039
0.000405993
0.000412359
0.000452957
0.000474029
0.000493672
0.0005107
0.0005314
0.000688671
0.000710049
0.000653244
0.00058424
0.000621824
0.000556308
0.00105518
0.000855915
0.000807062
0.00100346
0.000953191
0.000783795
0.000731289
0.000360579
0.000351503
0.000354599
0.000341968
0.000340369
0.000343064
0.000341995
0.000343911
0.000348719
0.000164866
0.000245365
0.000316965
0.000732707
0.000371657
0.000369272
0.000378181
0.000372421
0.000383109
0.000369022
0.000366905
0.000383456
0.000386112
0.000385814
0.000390892
0.00036437
0.000395045
0.000402072
0.00153438
0.00171357
0.00182062
0.00188752
0.00144574
0.00134714
0.00128125
0.00152897
0.00211151
0.00211875
0.00231002
0.00122801
0.00111504
0.000424543
0.000437645
0.000418295
0.00040146
0.000406425
0.000458453
0.000469483
0.000492248
0.000502877
0.000525182
0.000676595
0.000642751
0.000570174
0.000598637
0.000613042
0.000545393
0.00108077
0.000880756
0.000836597
0.000996747
0.00105424
0.000923748
0.000789951
0.000736337
0.000359424
0.000349991
0.000354569
0.000351664
0.000340096
0.000337119
0.000339829
0.000340018
0.000342341
0.000346742
0.000119785
0.000268935
0.000323681
0.000279627
0.00164894
0.000368392
0.000367173
0.000374455
0.000379675
0.000369199
0.000365287
0.000364346
0.000381083
0.00038215
0.000382035
0.00038675
0.000391094
0.000361498
0.00039308
0.00039712
0.00165486
0.00182055
0.00174681
0.00196532
0.00200866
0.00143019
0.00134715
0.00128761
0.00162046
0.00228917
0.00124145
0.00112807
0.000427539
0.000442422
0.000410419
0.000398069
0.000397113
0.000404862
0.000400732
0.000452919
0.000476372
0.000486923
0.000503941
0.00053429
0.000513713
0.000687753
0.000653278
0.000569581
0.00059628
0.000623795
0.000546271
0.00086767
0.000817975
0.00103279
0.00108192
0.000941635
0.000768003
0.000726265
0.000356784
0.000347106
0.00035192
0.000350331
0.000334512
0.000335494
0.000334977
0.000336425
0.00033811
0.000344058
0.000339486
0.000210071
0.000308201
0.000304422
0.000818351
0.000367204
0.000364763
0.000372476
0.000377047
0.000366828
0.000363384
0.000361684
0.000377844
0.000380173
0.000379331
0.00038344
0.000386209
0.000360257
0.000388917
0.00169188
0.00196572
0.0018923
0.00208584
0.00218353
0.00151195
0.00141616
0.00136324
0.00166994
0.00117895
0.00131135
0.000421742
0.000436535
0.000407678
0.000393097
0.000393127
0.000398605
0.000396783
0.000458443
0.000469562
0.000492429
0.000526223
0.000514971
0.000672322
0.000707313
0.000639992
0.000557191
0.000582993
0.00060971
0.000531954
0.000893275
0.000835076
0.00102144
0.00112877
0.000984923
0.000928823
0.000768252
0.000743042
0.000355862
0.000345409
0.000351378
0.000348257
0.000330353
0.000331659
0.000331765
0.000334073
0.000335174
0.000342293
0.000337874
0.000238119
0.000303023
0.000230336
0.00155912
0.000364589
0.000362205
0.000374304
0.000370018
0.000363983
0.000367513
0.000360921
0.000358981
0.000375476
0.000376574
0.000375663
0.000380068
0.000383153
0.000384869
0.000357581
0.000389203
0.00181834
0.00208412
0.00201112
0.00193611
0.00222524
0.00230538
0.00162059
0.00149452
0.00141078
0.00180775
0.00118992
0.00131325
0.0013772
0.000426261
0.000413929
0.000441032
0.000401306
0.000389993
0.000393654
0.000392195
0.000451824
0.000474913
0.000487112
0.000505428
0.000677323
0.00069867
0.000648609
0.000559411
0.000583336
0.000611775
0.000532438
0.000873647
0.000821985
0.00106972
0.00117798
0.00111957
0.000994354
0.000954746
0.000791736
0.000734975
0.000353249
0.000343027
0.000346253
0.000348857
0.000347429
0.000327742
0.000329922
0.00033005
0.000325977
0.000330768
0.000334029
0.000340455
0.000335578
0.000338771
0.000232495
0.00031693
0.000178534
0.000909702
0.000362954
0.000362259
0.000360203
0.000372069
0.000369746
0.00036213
0.000365031
0.000358698
0.000356884
0.00037254
0.000374188
0.000373731
0.000377923
0.000379271
0.000381395
0.000384973
0.00222101
0.00218367
0.0021158
0.00232855
0.00170627
0.00157524
0.00152082
0.00192933
0.00126506
0.00138238
0.0014465
0.000421596
0.000407135
0.000436336
0.000401022
0.0003953
0.000384799
0.000387976
0.000387455
0.000456394
0.000474461
0.000493844
0.000508712
0.000670517
0.000711291
0.000644459
0.000545319
0.000571535
0.000596775
0.000626636
0.000519845
0.000894601
0.000845669
0.00107215
0.00122512
0.00116977
0.00103063
0.00093735
0.000780655
0.000753054
0.00035177
0.000342052
0.000344729
0.000348047
0.000345258
0.000326335
0.000327389
0.000325084
0.000322422
0.000329699
0.000331811
0.000339312
0.000335513
0.000337142
0.00023622
0.000318487
0.000435937
0.000196615
0.00176612
0.000360127
0.000359882
0.00035795
0.000367573
0.00036005
0.000362757
0.000365099
0.000356202
0.000354653
0.000370415
0.000371221
0.000375345
0.00037119
0.000376296
0.000377609
0.000381722
0.00230369
0.00229304
0.00210493
0.00183342
0.00168026
0.0015887
0.00193266
0.00127799
0.00139891
0.00153523
0.000414165
0.000427225
0.000407133
0.000441252
0.000395946
0.000389481
0.000383486
0.000384841
0.000383444
0.000449814
0.00046658
0.000484894
0.000497461
0.000685257
0.00070607
0.000659664
0.000535924
0.000573847
0.000589585
0.000619848
0.000514339
0.000881545
0.00083138
0.00111921
0.00121543
0.00119549
0.00103239
0.000964956
0.000800013
0.000744047
0.000352773
0.000349688
0.000343148
0.000340143
0.000346333
0.000343828
0.000323795
0.000325307
0.000320205
0.000322276
0.000321995
0.000327912
0.000330959
0.000337276
0.000333923
0.000282727
0.000321585
0.000445316
0.000177374
0.000943008
0.000358672
0.000357874
0.000355899
0.000367825
0.000358412
0.000360688
0.000362828
0.000354221
0.000368426
0.000372688
0.000368419
0.000370828
0.00037211
0.000375676
0.000377709
0.0022997
0.00189006
0.00176693
0.00171028
0.00211777
0.0013316
0.00148133
0.00160656
0.000412227
0.000425082
0.000400661
0.000437608
0.000395435
0.000389825
0.000384271
0.000379652
0.000380188
0.000379453
0.000451907
0.000468347
0.000487354
0.000493315
0.00067922
0.000721808
0.000650509
0.000519281
0.000541173
0.000557729
0.000600112
0.00063085
0.000498394
0.000908918
0.000850917
0.00107961
0.00116517
0.00127623
0.00125577
0.00100769
0.000949246
0.000785947
0.000759847
0.000350662
0.000349249
0.000341472
0.000340069
0.000345854
0.000344604
0.000341811
0.000322714
0.000325945
0.000316727
0.000321069
0.000316374
0.000319467
0.000327906
0.000329304
0.000332127
0.000336387
0.000333553
0.000285714
0.000318868
0.000283429
0.000223067
0.00160183
0.000356819
0.000355439
0.000353736
0.00036587
0.000356692
0.000358758
0.000360692
0.000363275
0.000352086
0.0003661
0.000370355
0.000366193
0.0003681
0.000370662
0.000372959
0.00037637
0.00201431
0.0017851
0.00177749
0.00214122
0.00148096
0.0015751
0.00173178
0.000403005
0.000417594
0.000430779
0.000442312
0.000389579
0.000386546
0.000379051
0.00037594
0.000376182
0.000375311
0.000459211
0.000476965
0.000477665
0.000692348
0.000712298
0.000660345
0.00050305
0.000527675
0.000559319
0.000589797
0.000619909
0.000483535
0.00088735
0.000833807
0.00108105
0.00119781
0.00130058
0.00126517
0.00102938
0.000978572
0.000802529
0.000745264
0.000350265
0.000347196
0.000340605
0.000338739
0.000344263
0.000343625
0.000341191
0.000322015
0.000325416
0.000317396
0.000314788
0.000312456
0.000318632
0.000326492
0.000328737
0.000330954
0.000337612
0.000334853
0.000332001
0.000307372
0.000316489
0.00031256
0.000232204
0.000232596
0.000883157
0.000355099
0.000353994
0.000353644
0.000351845
0.000355112
0.000356897
0.00035851
0.00036227
0.000363778
0.000367208
0.000366175
0.000363803
0.000368364
0.000370677
0.000372446
0.00205486
0.00193483
0.00191358
0.00231935
0.00144359
0.00159848
0.00166728
0.00182306
0.000402176
0.000417052
0.000422886
0.000439496
0.000384365
0.000381874
0.000374929
0.00037778
0.00037233
0.000371705
0.000371213
0.000455753
0.000473381
0.000463046
0.000679371
0.000723019
0.000649715
0.000513386
0.000494592
0.000536863
0.000576488
0.000555067
0.000601774
0.000630491
0.000476794
0.000908314
0.000851931
0.00112474
0.00117982
0.00136801
0.00132138
0.00102709
0.000954563
0.000784493
0.000756355
0.00034822
0.000346544
0.000338748
0.000337883
0.000342765
0.000342285
0.000339684
0.000320458
0.000323789
0.000315748
0.000311954
0.000312114
0.000317727
0.000326953
0.000329586
0.000331028
0.000336359
0.000335046
0.000330961
0.000288407
0.000313082
0.000308947
0.000384884
0.000217953
0.00158294
0.000353
0.000351922
0.000351614
0.000350041
0.000355143
0.000353033
0.000356662
0.000358486
0.000360328
0.000362459
0.000364816
0.000363885
0.000362747
0.000365644
0.000368428
0.000369695
0.00221268
0.00197534
0.00200037
0.00151675
0.001655
0.00178413
0.00196682
0.00039428
0.000409603
0.000420617
0.000423736
0.000440872
0.000387175
0.000377969
0.00037746
0.000370676
0.00037316
0.00036909
0.000368521
0.000367782
0.000457884
0.000453092
0.000685287
0.000704048
0.000659223
0.000523528
0.000507902
0.000554255
0.000575455
0.000567125
0.000587512
0.000622032
0.000502788
0.000888855
0.000825126
0.00113088
0.00123722
0.00136486
0.00107477
0.000982211
0.000796227
0.000736614
0.000348163
0.000344661
0.000338492
0.000336336
0.000341002
0.000342985
0.000340891
0.000339587
0.000320416
0.000323077
0.000314342
0.000316059
0.000309203
0.000311071
0.00031879
0.000326508
0.000328905
0.000329527
0.000334014
0.000329314
0.00033167
0.000297876
0.000308085
0.000311491
0.000306316
0.000264785
0.000213628
0.0010256
0.000351573
0.000350664
0.000350086
0.00035366
0.000351523
0.000354804
0.00035651
0.000358848
0.00035975
0.000361378
0.000361085
0.00036066
0.000363866
0.000366573
0.000367083
0.00230074
0.00214669
0.00216349
0.00161266
0.00145707
0.00176859
0.00189842
0.00208126
0.000390111
0.000402752
0.000402645
0.000406758
0.000419826
0.000379486
0.000373068
0.000373342
0.000369749
0.00036756
0.000366651
0.000364895
0.000363929
0.000439016
0.000481389
0.000708965
0.000653642
0.000543516
0.000524639
0.000584731
0.000581162
0.000573391
0.000584343
0.000599225
0.000651378
0.00051196
0.000907394
0.000828079
0.00118403
0.00130112
0.00135261
0.0010732
0.00102842
0.000945624
0.000770275
0.000745491
0.00034676
0.000344045
0.00033683
0.000335741
0.000339882
0.000341542
0.000338349
0.000321662
0.000324233
0.000313293
0.000315307
0.000307437
0.00030958
0.000311857
0.000319287
0.000325489
0.00032782
0.000334377
0.00033292
0.000328603
0.000330685
0.000299669
0.000304244
0.000308877
0.000304351
0.000332868
0.000219089
0.000841813
0.000349931
0.00034876
0.000348361
0.000352082
0.00035345
0.000350055
0.000354878
0.000356585
0.000358996
0.000359817
0.000358533
0.000358588
0.000361443
0.000364541
0.000364365
0.00231133
0.00168313
0.00150167
0.00186565
0.00179425
0.00205472
0.00222829
0.000378971
0.000390802
0.00039855
0.000388632
0.000419896
0.000399973
0.00043169
0.000377083
0.000373599
0.000367407
0.000368423
0.000365371
0.000363737
0.000363533
0.00036455
0.000362275
0.000363265
0.000361957
0.000482448
0.000684779
0.000574589
0.000567741
0.000586405
0.000571393
0.000572123
0.000591172
0.000613249
0.000726734
0.000559179
0.000859882
0.000801603
0.00120099
0.00133103
0.00143149
0.00112485
0.00103034
0.000952786
0.000767251
0.000741535
0.000347137
0.000345303
0.000342607
0.000336254
0.000338633
0.000340352
0.0003414
0.000337816
0.000337219
0.000322292
0.000323572
0.000313552
0.000316704
0.00030726
0.000308589
0.0003111
0.000321206
0.000318323
0.000325459
0.000326449
0.000333511
0.000332045
0.000329619
0.000327514
0.00033087
0.000305491
0.000275999
0.000302703
0.000303675
0.000307646
0.000304436
0.000164674
0.000193966
0.000346079
0.00158371
0.000348624
0.000348249
0.000347529
0.000351089
0.0003517
0.000348546
0.000349063
0.000352852
0.000355491
0.000356787
0.000357318
0.000356233
0.000356423
0.000360525
0.000362007
0.000361764
0.00168333
0.00159916
0.00201023
0.00190288
0.00218477
0.00232293
0.000360956
0.000366294
0.000364288
0.000375381
0.00045206
0.000412756
0.000454455
0.000365283
0.000367445
0.000364048
0.000364626
0.000362515
0.000362479
0.000359181
0.000359895
0.000359641
0.000534996
0.0007146
0.000595147
0.000578004
0.000576936
0.000673713
0.000782488
0.000557469
0.00087081
0.000840563
0.0012743
0.00117645
0.0014023
0.00145936
0.00108247
0.000998891
0.000910579
0.000756505
0.000345633
0.000344831
0.000342367
0.000335151
0.000338415
0.000339284
0.000340449
0.000336535
0.000336297
0.000324151
0.000313283
0.000316031
0.00030623
0.000309416
0.000311847
0.00032067
0.000318584
0.000326142
0.000332304
0.000334059
0.000328751
0.000327076
0.000330643
0.000303639
0.000289568
0.000301103
0.000299931
0.000301783
0.0003043
0.000240614
0.000234969
0.00106083
0.000346988
0.000346555
0.000345855
0.000349585
0.000351406
0.00034727
0.000347567
0.000351973
0.000353377
0.000355498
0.000356736
0.000355651
0.000354188
0.000354352
0.000358372
0.000359559
0.00181272
0.00163574
0.00217004
0.00194105
0.0022793
0.000357244
0.000347306
0.000348909
0.000393739
0.000427631
0.000462616
0.000442537
0.000363136
0.000348386
0.000362781
0.000359521
0.000360433
0.000358748
0.000359965
0.000358023
0.000356007
0.00035811
0.000356051
0.000357356
0.000509344
0.000797218
0.000955002
0.000801122
0.000929758
0.0012776
0.00121626
0.00142982
0.00154894
0.0011033
0.00102611
0.000930434
0.000775358
0.000344821
0.000343323
0.000340994
0.000334624
0.000337171
0.000339391
0.000336228
0.000335197
0.000323464
0.000314841
0.000316527
0.000306911
0.000309252
0.000312751
0.000321515
0.000319708
0.00031774
0.000325509
0.00033161
0.000333357
0.000328788
0.000327668
0.000326125
0.000329883
0.000298903
0.000299877
0.000301678
0.000299501
0.000298444
0.0002988
0.00030337
0.000305799
0.00024295
0.000498722
0.00022205
0.00166551
0.00034576
0.000345423
0.000348645
0.000349518
0.000345896
0.000346584
0.000349957
0.000352534
0.000353709
0.000354974
0.000353047
0.000352411
0.000352476
0.000356767
0.000357337
0.00182761
0.00173803
0.00229397
0.00211487
0.000360345
0.000333294
0.000403515
0.00049584
0.000382333
0.000548748
0.000352051
0.000338897
0.000356892
0.000357832
0.000354348
0.000357623
0.000356352
0.000355799
0.000354414
0.000355533
0.00035528
0.000581323
0.000826803
0.000978539
0.00133774
0.00122609
0.0015289
0.00141154
0.00108538
0.00116486
0.000993043
0.000343483
0.000342403
0.00033992
0.000333608
0.000336776
0.000338374
0.000335217
0.000334668
0.000322599
0.000324507
0.000314368
0.00031588
0.000308284
0.000311009
0.000312166
0.000320949
0.000319921
0.000318156
0.000332307
0.00032842
0.000327202
0.000325649
0.000330034
0.000296066
0.000298362
0.000301474
0.000298945
0.000296766
0.000295929
0.000304
0.000306636
0.000275902
0.000372942
0.000206912
0.00117636
0.000344148
0.000343961
0.000347105
0.000348721
0.000344663
0.000344978
0.00034951
0.000350846
0.00035208
0.000352922
0.000353535
0.000350653
0.000350674
0.000351372
0.000354344
0.000355051
0.00196131
0.00177797
0.00211913
0.000346857
0.000387185
0.000330001
0.000494778
0.000562329
0.00098601
0.000336615
0.000352194
0.000335454
0.000353034
0.000353556
0.000351515
0.000354003
0.000352981
0.00035351
0.000352388
0.000353307
0.000352806
0.00129369
0.00160081
0.00149337
0.0011344
0.0011688
0.0010054
0.000343127
0.000341546
0.000340267
0.00033871
0.000333081
0.000337627
0.000336078
0.000338064
0.000334672
0.000333617
0.000323031
0.000323986
0.000314674
0.000316488
0.000309209
0.0003105
0.000312898
0.000321413
0.000319378
0.000317689
0.000331728
0.00032765
0.000329098
0.000326242
0.000324554
0.000330882
0.000294579
0.000293238
0.000295199
0.000299512
0.000302783
0.000299992
0.0002973
0.000294047
0.000305482
0.000308352
0.000282253
0.000261215
0.000634262
0.000231988
0.0017687
0.000343167
0.000343189
0.000345799
0.000347231
0.000343618
0.000343983
0.000347691
0.000350705
0.000351595
0.000352023
0.000348913
0.000349202
0.000349491
0.000353532
0.00191229
0.00170204
0.00229541
0.000360078
0.000429277
0.000347681
0.000334853
0.000481083
0.000324129
0.000345588
0.00032661
0.000347414
0.000351832
0.000347783
0.00035175
0.000351369
0.00035194
0.000352037
0.000350395
0.000350937
0.000350511
0.00132518
0.00159397
0.00146232
0.00107234
0.00122136
0.00123043
0.00034201
0.000339438
0.000337615
0.00033213
0.000336979
0.000336278
0.000335211
0.000337098
0.000333567
0.000322398
0.000314192
0.000316152
0.000311174
0.000312565
0.00032097
0.000319947
0.000318362
0.000327117
0.00032892
0.000326276
0.000324179
0.00033036
0.000291222
0.000290624
0.000292412
0.000296308
0.000302756
0.000299855
0.000296898
0.000294963
0.000305653
0.000308982
0.000294958
0.000277243
0.000233733
0.000505296
0.000223059
0.00114199
0.000341813
0.000342169
0.000344608
0.000345991
0.000346571
0.000342449
0.00034302
0.000347721
0.000349285
0.000350038
0.000350299
0.000347288
0.000348692
0.000348553
0.000347518
0.000348565
0.000351167
0.00200903
0.00175715
0.00218285
0.000392774
0.000361177
0.000363697
0.000326784
0.000345022
0.000343418
0.000343753
0.000348199
0.000346041
0.0003444
0.00034856
0.000348607
0.000350191
0.000349174
0.000347853
0.000348955
0.00034778
0.00138423
0.00167727
0.00153604
0.00153916
0.0012149
0.000340921
0.000338684
0.000339958
0.000336612
0.000337718
0.000331561
0.000335594
0.000334496
0.000336361
0.000333202
0.000322594
0.000314988
0.000316913
0.000311478
0.000313625
0.000321462
0.000319414
0.000317962
0.000327596
0.000328454
0.00032968
0.000325849
0.000323532
0.000324991
0.000330695
0.000289598
0.000290877
0.000289647
0.000301232
0.000304171
0.000298239
0.000294645
0.00030722
0.000310816
0.000308627
0.000292274
0.000285622
0.000215989
0.000336139
0.000252053
0.00105935
0.000341356
0.000340812