/*--------------------------------*- C++ -*----------------------------------*\
| =========                 |                                                 |
| \\      /  F ield         | OpenFOAM: The Open Source CFD Toolbox           |
|  \\    /   O peration     | Version:  v2012                                 |
|   \\  /    A nd           | Website:  www.openfoam.com                      |
|    \\/     M anipulation  |                                                 |
\*---------------------------------------------------------------------------*/
FoamFile
{
    version     2.0;
    format      ascii;
    class       volScalarField;
    location    "1.7";
    object      nut;
}
// * * * * * * * * * * * * * * * * * * * * * * * * * * * * * * * * * * * * * //

dimensions      [0 2 -1 0 0 0 0];


internalField   nonuniform List<scalar> 
13611
(
1.18718e-05
1.1948e-05
1.18512e-05
1.1844e-05
1.13018e-05
1.14416e-05
1.18487e-05
1.18494e-05
1.29336e-05
1.12887e-05
1.1191e-05
1.17931e-05
1.18308e-05
1.18853e-05
1.18092e-05
1.13302e-05
1.16785e-05
1.18165e-05
1.18915e-05
1.18925e-05
1.19018e-05
1.19175e-05
1.30091e-05
1.13725e-05
1.17639e-05
1.18487e-05
1.22246e-05
1.19334e-05
1.18555e-05
1.18771e-05
1.19418e-05
1.19598e-05
1.19823e-05
1.15886e-05
1.18084e-05
1.19329e-05
1.19241e-05
1.24171e-05
1.19736e-05
1.18289e-05
1.18823e-05
1.19288e-05
1.19604e-05
1.19741e-05
1.13858e-05
1.30636e-05
1.15303e-05
1.18096e-05
1.19946e-05
1.19508e-05
1.20952e-05
1.20096e-05
1.18377e-05
1.19058e-05
1.18595e-05
1.19427e-05
1.19686e-05
1.20026e-05
1.10463e-05
1.17859e-05
1.15955e-05
1.1811e-05
1.19977e-05
1.20259e-05
1.19636e-05
1.26589e-05
1.20225e-05
1.18134e-05
1.18949e-05
1.18505e-05
1.19412e-05
1.19896e-05
1.13546e-05
1.09515e-05
1.29723e-05
1.17535e-05
1.18008e-05
1.20357e-05
1.20634e-05
1.20269e-05
1.1781e-05
1.20494e-05
1.18093e-05
1.18684e-05
1.19122e-05
1.18297e-05
1.19623e-05
1.20081e-05
1.1399e-05
1.07274e-05
1.14349e-05
1.17881e-05
1.17713e-05
1.20747e-05
1.20727e-05
1.20823e-05
1.20525e-05
1.2016e-05
1.2227e-05
1.20406e-05
1.17946e-05
1.18586e-05
1.19078e-05
1.18207e-05
1.19524e-05
1.19808e-05
1.20053e-05
1.16866e-05
1.11933e-05
1.07761e-05
1.28993e-05
1.17651e-05
1.17591e-05
1.21129e-05
1.20984e-05
1.212e-05
1.21214e-05
1.20917e-05
1.21349e-05
1.20641e-05
1.1778e-05
1.1801e-05
1.18348e-05
1.1875e-05
1.18968e-05
1.19341e-05
1.19693e-05
1.2034e-05
1.17338e-05
1.13231e-05
1.11084e-05
1.21197e-05
1.17389e-05
1.1743e-05
1.21397e-05
1.20964e-05
1.21588e-05
1.21043e-05
1.21189e-05
1.22389e-05
1.20642e-05
1.17645e-05
1.17835e-05
1.18339e-05
1.18549e-05
1.19119e-05
1.19358e-05
1.19895e-05
1.20396e-05
1.17311e-05
1.15992e-05
1.1164e-05
1.13099e-05
1.17175e-05
1.17235e-05
1.17468e-05
1.21744e-05
1.21232e-05
1.22403e-05
1.21423e-05
1.2176e-05
1.23498e-05
1.20956e-05
1.17657e-05
1.17899e-05
1.18143e-05
1.18635e-05
1.1893e-05
1.19559e-05
1.20154e-05
1.19788e-05
1.20703e-05
1.17103e-05
1.16415e-05
1.134e-05
1.06814e-05
1.31924e-05
1.16985e-05
1.17073e-05
1.1736e-05
1.22102e-05
1.21513e-05
1.21241e-05
1.22575e-05
1.219e-05
1.21719e-05
1.28519e-05
1.21004e-05
1.17446e-05
1.17762e-05
1.18125e-05
1.1856e-05
1.19022e-05
1.19464e-05
1.2015e-05
1.19919e-05
1.2068e-05
1.16974e-05
1.16775e-05
1.12249e-05
1.00105e-05
1.24799e-05
1.16827e-05
1.16887e-05
1.17147e-05
1.22189e-05
1.21704e-05
1.2153e-05
1.23009e-05
1.21893e-05
1.2226e-05
1.22816e-05
1.21294e-05
1.17402e-05
1.17868e-05
1.17577e-05
1.18325e-05
1.18752e-05
1.18971e-05
1.19286e-05
1.19702e-05
1.20395e-05
1.20992e-05
1.16804e-05
1.16818e-05
1.14407e-05
1.12807e-05
1.05897e-05
1.27271e-05
1.16681e-05
1.16711e-05
1.17063e-05
1.22029e-05
1.22582e-05
1.21727e-05
1.22773e-05
1.23288e-05
1.22267e-05
1.29413e-05
1.20463e-05
1.21563e-05
1.21268e-05
1.17214e-05
1.1779e-05
1.17412e-05
1.18305e-05
1.18695e-05
1.19147e-05
1.19365e-05
1.1982e-05
1.20448e-05
1.21017e-05
1.16632e-05
1.16791e-05
1.13888e-05
1.11235e-05
1.04393e-05
1.16355e-05
1.16462e-05
1.16696e-05
1.16518e-05
1.16871e-05
1.22279e-05
1.22848e-05
1.22093e-05
1.23181e-05
1.237e-05
1.24256e-05
1.22985e-05
1.21695e-05
1.21756e-05
1.21531e-05
1.17234e-05
1.17615e-05
1.17976e-05
1.17433e-05
1.18494e-05
1.18143e-05
1.18882e-05
1.19134e-05
1.19586e-05
1.20095e-05
1.2077e-05
1.20323e-05
1.21333e-05
1.16415e-05
1.16694e-05
1.15728e-05
1.0793e-05
1.09198e-05
1.34306e-05
1.16528e-05
1.16384e-05
1.16874e-05
1.22672e-05
1.23219e-05
1.22278e-05
1.23522e-05
1.24113e-05
1.23946e-05
1.25259e-05
1.22056e-05
1.2168e-05
1.17069e-05
1.17666e-05
1.17841e-05
1.17251e-05
1.18311e-05
1.18139e-05
1.18844e-05
1.19344e-05
1.19589e-05
1.20066e-05
1.20766e-05
1.20507e-05
1.21288e-05
1.21618e-05
1.16249e-05
1.16465e-05
1.15265e-05
1.08461e-05
1.0874e-05
1.24183e-05
1.164e-05
1.16438e-05
1.16214e-05
1.16724e-05
1.22929e-05
1.2358e-05
1.22642e-05
1.23866e-05
1.24386e-05
1.24694e-05
1.24884e-05
1.28341e-05
1.22202e-05
1.22024e-05
1.17065e-05
1.17498e-05
1.17914e-05
1.17191e-05
1.184e-05
1.19075e-05
1.18655e-05
1.19299e-05
1.19816e-05
1.20275e-05
1.21003e-05
1.20494e-05
1.21551e-05
1.21891e-05
1.16122e-05
1.16131e-05
1.16185e-05
1.16944e-05
1.07037e-05
1.14136e-05
1.18912e-05
1.16267e-05
1.16279e-05
1.16542e-05
1.16156e-05
1.16762e-05
1.23314e-05
1.23628e-05
1.23955e-05
1.22766e-05
1.24224e-05
1.24778e-05
1.25037e-05
1.25325e-05
1.24659e-05
1.22563e-05
1.22195e-05
1.16938e-05
1.17487e-05
1.17311e-05
1.17842e-05
1.16994e-05
1.18229e-05
1.19086e-05
1.18718e-05
1.19506e-05
1.19723e-05
1.20311e-05
1.20972e-05
1.20727e-05
1.21523e-05
1.21877e-05
1.15922e-05
1.15969e-05
1.16345e-05
1.15867e-05
1.05286e-05
1.14635e-05
1.35318e-05
1.07914e-05
1.16157e-05
1.16389e-05
1.16015e-05
1.16636e-05
1.23386e-05
1.24044e-05
1.24351e-05
1.23179e-05
1.24563e-05
1.2492e-05
1.2551e-05
1.2581e-05
1.25279e-05
1.29167e-05
1.22779e-05
1.22509e-05
1.17266e-05
1.1765e-05
1.17184e-05
1.18019e-05
1.16892e-05
1.18313e-05
1.19314e-05
1.1893e-05
1.18537e-05
1.19511e-05
1.199e-05
1.20143e-05
1.20584e-05
1.21216e-05
1.21792e-05
1.22196e-05
1.15831e-05
1.15961e-05
1.15681e-05
1.10138e-05
1.15429e-05
1.34621e-05
1.00883e-05
1.15999e-05
1.16217e-05
1.1644e-05
1.1586e-05
1.16698e-05
1.23826e-05
1.24433e-05
1.24711e-05
1.2343e-05
1.25329e-05
1.25885e-05
1.26197e-05
1.25984e-05
1.25932e-05
1.23157e-05
1.2263e-05
1.1726e-05
1.17679e-05
1.16991e-05
1.17867e-05
1.18201e-05
1.19274e-05
1.19016e-05
1.18535e-05
1.19717e-05
1.20269e-05
1.2073e-05
1.21047e-05
1.22103e-05
1.21779e-05
1.22521e-05
1.15683e-05
1.159e-05
1.15595e-05
1.09733e-05
1.15648e-05
1.26168e-05
9.93617e-06
1.15869e-05
1.16057e-05
1.16318e-05
1.15699e-05
1.16581e-05
1.24102e-05
1.24827e-05
1.25156e-05
1.23846e-05
1.25686e-05
1.26313e-05
1.2667e-05
1.26395e-05
1.29726e-05
1.23299e-05
1.23033e-05
1.17022e-05
1.17463e-05
1.16892e-05
1.17968e-05
1.18309e-05
1.19448e-05
1.18955e-05
1.1872e-05
1.19821e-05
1.20106e-05
1.2056e-05
1.21222e-05
1.22361e-05
1.22131e-05
1.21558e-05
1.22797e-05
1.15558e-05
1.15715e-05
1.15395e-05
1.13245e-05
1.15736e-05
1.23276e-05
1.01662e-05
1.157e-05
1.15904e-05
1.16023e-05
1.1616e-05
1.16403e-05
1.15564e-05
1.1668e-05
1.24539e-05
1.2513e-05
1.2502e-05
1.25583e-05
1.2408e-05
1.26229e-05
1.26493e-05
1.27092e-05
1.27448e-05
1.27569e-05
1.23744e-05
1.23163e-05
1.16923e-05
1.1746e-05
1.17858e-05
1.18215e-05
1.19409e-05
1.19679e-05
1.19162e-05
1.18617e-05
1.20239e-05
1.20702e-05
1.21007e-05
1.22719e-05
1.22294e-05
1.21688e-05
1.15417e-05
1.15299e-05
1.13853e-05
1.15755e-05
1.16956e-05
9.96263e-06
1.15593e-05
1.15788e-05
1.1588e-05
1.16059e-05
1.16254e-05
1.1543e-05
1.16516e-05
1.24744e-05
1.24829e-05
1.25573e-05
1.25541e-05
1.25987e-05
1.24545e-05
1.26594e-05
1.2705e-05
1.27271e-05
1.27888e-05
1.30497e-05
1.28164e-05
1.23908e-05
1.2353e-05
1.16759e-05
1.1708e-05
1.17267e-05
1.17678e-05
1.18001e-05
1.18371e-05
1.19607e-05
1.19815e-05
1.19061e-05
1.18782e-05
1.20063e-05
1.20527e-05
1.21123e-05
1.23057e-05
1.22003e-05
1.22622e-05
1.21434e-05
1.153e-05
1.1513e-05
1.15189e-05
1.10997e-05
1.15279e-05
9.21227e-06
1.41103e-05
9.3256e-06
1.15474e-05
1.15654e-05
1.15772e-05
1.15898e-05
1.1611e-05
1.16201e-05
1.15383e-05
1.15313e-05
1.1632e-05
1.16578e-05
1.25186e-05
1.25255e-05
1.25949e-05
1.25936e-05
1.26416e-05
1.24866e-05
1.27178e-05
1.27394e-05
1.27841e-05
1.28266e-05
1.29256e-05
1.28904e-05
1.24366e-05
1.23613e-05
1.16763e-05
1.16909e-05
1.17297e-05
1.17683e-05
1.17872e-05
1.1827e-05
1.19719e-05
1.19257e-05
1.1871e-05
1.20197e-05
1.20665e-05
1.20964e-05
1.22923e-05
1.23443e-05
1.22026e-05
1.226e-05
1.21494e-05
1.15165e-05
1.1493e-05
1.15287e-05
1.13368e-05
1.15123e-05
8.97581e-06
1.26798e-05
1.05738e-05
1.15372e-05
1.15594e-05
1.15655e-05
1.15812e-05
1.16002e-05
1.16035e-05
1.15279e-05
1.15207e-05
1.16231e-05
1.16487e-05
1.25542e-05
1.25729e-05
1.26358e-05
1.26463e-05
1.26777e-05
1.24778e-05
1.25382e-05
1.27595e-05
1.27963e-05
1.28849e-05
1.31452e-05
1.29492e-05
1.24385e-05
1.24051e-05
1.16585e-05
1.1696e-05
1.17497e-05
1.17147e-05
1.18008e-05
1.1844e-05
1.20032e-05
1.19545e-05
1.19155e-05
1.18904e-05
1.20501e-05
1.21125e-05
1.23212e-05
1.23688e-05
1.21814e-05
1.22359e-05
1.2295e-05
1.21416e-05
1.15072e-05
1.14843e-05
1.1484e-05
1.15176e-05
1.14841e-05
9.13573e-06
1.45029e-05
1.0489e-05
1.1539e-05
1.15279e-05
1.15487e-05
1.15553e-05
1.15698e-05
1.15883e-05
1.15969e-05
1.1519e-05
1.15105e-05
1.16068e-05
1.16324e-05
1.25992e-05
1.26105e-05
1.26965e-05
1.27264e-05
1.25256e-05
1.25714e-05
1.28165e-05
1.28526e-05
1.29419e-05
1.3112e-05
1.30324e-05
1.2481e-05
1.24068e-05
1.16463e-05
1.16939e-05
1.17481e-05
1.17097e-05
1.17877e-05
1.18386e-05
1.20196e-05
1.19678e-05
1.19322e-05
1.18805e-05
1.20663e-05
1.20982e-05
1.23575e-05
1.21945e-05
1.22476e-05
1.23113e-05
1.21656e-05
1.14959e-05
1.14712e-05
1.15132e-05
1.1502e-05
1.1472e-05
8.49983e-06
1.30786e-05
1.10662e-05
1.15273e-05
1.15187e-05
1.1544e-05
1.1559e-05
1.15665e-05
1.15764e-05
1.15803e-05
1.15101e-05
1.1502e-05
1.15973e-05
1.16179e-05
1.2636e-05
1.26633e-05
1.27041e-05
1.27454e-05
1.27606e-05
1.25724e-05
1.25248e-05
1.26194e-05
1.28468e-05
1.28529e-05
1.29203e-05
1.3016e-05
1.32561e-05
1.31213e-05
1.31006e-05
1.2481e-05
1.24404e-05
1.16575e-05
1.16235e-05
1.16812e-05
1.17667e-05
1.1726e-05
1.18017e-05
1.18597e-05
1.18213e-05
1.205e-05
1.19974e-05
1.19574e-05
1.19218e-05
1.18965e-05
1.21171e-05
1.23895e-05
1.22241e-05
1.22821e-05
1.23515e-05
1.21526e-05
1.14901e-05
1.14648e-05
1.14577e-05
1.15044e-05
1.14778e-05
1.14587e-05
1.05724e-05
1.04627e-05
1.50129e-05
1.15196e-05
1.15189e-05
1.151e-05
1.15362e-05
1.1549e-05
1.15531e-05
1.15732e-05
1.15021e-05
1.14944e-05
1.15832e-05
1.16025e-05
1.26838e-05
1.2762e-05
1.27955e-05
1.28263e-05
1.26206e-05
1.25727e-05
1.26573e-05
1.29106e-05
1.29198e-05
1.29862e-05
1.3079e-05
1.32885e-05
1.32145e-05
1.31648e-05
1.25185e-05
1.2432e-05
1.16483e-05
1.16142e-05
1.1689e-05
1.17655e-05
1.1726e-05
1.17827e-05
1.18455e-05
1.18257e-05
1.20679e-05
1.20011e-05
1.19736e-05
1.19383e-05
1.18812e-05
1.21009e-05
1.23898e-05
1.224e-05
1.22895e-05
1.23485e-05
1.21771e-05
1.14836e-05
1.14755e-05
1.14553e-05
1.151e-05
1.14993e-05
1.14677e-05
1.14496e-05
1.07059e-05
1.09233e-05
1.44502e-05
1.15091e-05
1.15256e-05
1.15091e-05
1.15028e-05
1.154e-05
1.15446e-05
1.15491e-05
1.15613e-05
1.14935e-05
1.14876e-05
1.15746e-05
1.15884e-05
1.27355e-05
1.27984e-05
1.28544e-05
1.28756e-05
1.26523e-05
1.25582e-05
1.26177e-05
1.27142e-05
1.29634e-05
1.29802e-05
1.30606e-05
1.31568e-05
1.3243e-05
1.25124e-05
1.24688e-05
1.16611e-05
1.16275e-05
1.15986e-05
1.16794e-05
1.17094e-05
1.17465e-05
1.17862e-05
1.18556e-05
1.18093e-05
1.20674e-05
1.20259e-05
1.19645e-05
1.19378e-05
1.18907e-05
1.21193e-05
1.24286e-05
1.22764e-05
1.22153e-05
1.23241e-05
1.2384e-05
1.21508e-05
1.14821e-05
1.14706e-05
1.14516e-05
1.1461e-05
1.14781e-05
1.14514e-05
1.14621e-05
1.14448e-05
8.34832e-06
1.05775e-05
1.37112e-05
1.1503e-05
1.15069e-05
1.15214e-05
1.15026e-05
1.14941e-05
1.1534e-05
1.15357e-05
1.15415e-05
1.15561e-05
1.14867e-05
1.15624e-05
1.1577e-05
1.15862e-05
1.27915e-05
1.28683e-05
1.29068e-05
1.29451e-05
1.27074e-05
1.25907e-05
1.26389e-05
1.27616e-05
1.30366e-05
1.30482e-05
1.31283e-05
1.32352e-05
1.33079e-05
1.25524e-05
1.24603e-05
1.16508e-05
1.1621e-05
1.15866e-05
1.16885e-05
1.17068e-05
1.17428e-05
1.17773e-05
1.18501e-05
1.18079e-05
1.20534e-05
1.20979e-05
1.2008e-05
1.19821e-05
1.19143e-05
1.19618e-05
1.18674e-05
1.24464e-05
1.23007e-05
1.2235e-05
1.23353e-05
1.242e-05
1.23647e-05
1.21632e-05
1.14755e-05
1.14621e-05
1.14697e-05
1.14854e-05
1.14712e-05
1.14441e-05
1.14499e-05
1.14435e-05
9.84863e-06
1.09374e-05
1.57295e-05
1.14956e-05
1.15131e-05
1.14989e-05
1.15263e-05
1.1495e-05
1.14902e-05
1.15279e-05
1.15322e-05
1.15461e-05
1.14801e-05
1.15577e-05
1.15653e-05
1.15745e-05
1.28471e-05
1.2908e-05
1.29806e-05
1.30004e-05
1.27543e-05
1.2691e-05
1.26356e-05
1.28244e-05
1.31037e-05
1.31229e-05
1.32128e-05
1.33084e-05
1.2577e-05
1.25025e-05
1.16345e-05
1.16606e-05
1.16072e-05
1.15748e-05
1.15918e-05
1.16801e-05
1.17215e-05
1.1759e-05
1.17904e-05
1.18268e-05
1.20723e-05
1.21014e-05
1.20219e-05
1.19133e-05
1.19734e-05
1.18673e-05
1.24867e-05
1.22823e-05
1.22258e-05
1.24388e-05
1.23889e-05
1.21971e-05
1.21301e-05
1.14741e-05
1.146e-05
1.14644e-05
1.15006e-05
1.14558e-05
1.14359e-05
1.14415e-05
1.14355e-05
1.14541e-05
9.63211e-06
1.08437e-05
1.13523e-05
1.49043e-05
1.1494e-05
1.14888e-05
1.1508e-05
1.14954e-05
1.1519e-05
1.14882e-05
1.14834e-05
1.15197e-05
1.15257e-05
1.15259e-05
1.15377e-05
1.14788e-05
1.15473e-05
1.15641e-05
1.28658e-05
1.29789e-05
1.30425e-05
1.308e-05
1.28058e-05
1.27324e-05
1.26817e-05
1.28628e-05
1.31984e-05
1.32028e-05
1.32928e-05
1.26379e-05
1.2541e-05
1.16218e-05
1.16492e-05
1.16079e-05
1.15648e-05
1.15797e-05
1.16916e-05
1.17129e-05
1.17566e-05
1.17757e-05
1.18144e-05
1.20552e-05
1.20049e-05
1.18899e-05
1.19359e-05
1.19587e-05
1.18484e-05
1.25122e-05
1.23112e-05
1.22608e-05
1.24327e-05
1.24875e-05
1.23578e-05
1.22045e-05
1.21364e-05
1.14705e-05
1.14579e-05
1.14627e-05
1.14601e-05
1.15002e-05
1.14474e-05
1.14402e-05
1.14315e-05
1.14379e-05
1.14526e-05
8.35637e-06
1.1119e-05
1.14046e-05
1.21001e-05
1.64987e-05
1.14874e-05
1.14846e-05
1.14997e-05
1.15113e-05
1.14886e-05
1.14804e-05
1.14779e-05
1.15147e-05
1.15171e-05
1.15175e-05
1.15285e-05
1.15383e-05
1.14727e-05
1.15437e-05
1.15534e-05
1.29431e-05
1.30425e-05
1.29995e-05
1.3122e-05
1.31456e-05
1.27934e-05
1.27326e-05
1.2686e-05
1.29229e-05
1.32835e-05
1.26505e-05
1.25544e-05
1.16286e-05
1.16585e-05
1.15915e-05
1.15587e-05
1.15543e-05
1.15786e-05
1.15665e-05
1.16794e-05
1.1726e-05
1.17458e-05
1.17761e-05
1.18291e-05
1.17933e-05
1.20708e-05
1.20193e-05
1.18888e-05
1.1932e-05
1.19744e-05
1.18497e-05
1.22964e-05
1.22383e-05
1.24688e-05
1.25144e-05
1.23769e-05
1.21766e-05
1.21227e-05
1.14653e-05
1.14535e-05
1.14581e-05
1.14574e-05
1.1449e-05
1.14911e-05
1.14316e-05
1.143e-05
1.14283e-05
1.14488e-05
1.14321e-05
1.05079e-05
1.13723e-05
1.31411e-05
1.62644e-05
1.14846e-05
1.148e-05
1.14954e-05
1.15057e-05
1.14835e-05
1.1477e-05
1.14721e-05
1.15078e-05
1.15129e-05
1.1512e-05
1.15213e-05
1.15275e-05
1.14695e-05
1.15349e-05
1.2968e-05
1.31223e-05
1.30826e-05
1.31851e-05
1.32331e-05
1.28504e-05
1.27835e-05
1.27439e-05
1.29538e-05
1.25996e-05
1.27064e-05
1.16153e-05
1.1645e-05
1.15856e-05
1.15469e-05
1.15458e-05
1.15649e-05
1.15591e-05
1.16892e-05
1.17111e-05
1.17548e-05
1.18142e-05
1.17937e-05
1.20469e-05
1.20969e-05
1.19993e-05
1.18691e-05
1.19118e-05
1.19539e-05
1.18248e-05
1.2325e-05
1.22583e-05
1.24578e-05
1.25571e-05
1.24211e-05
1.23632e-05
1.21763e-05
1.21441e-05
1.14616e-05
1.14523e-05
1.14548e-05
1.14537e-05
1.14308e-05
1.14812e-05
1.14228e-05
1.14233e-05
1.14235e-05
1.1449e-05
1.14341e-05
1.08229e-05
1.13602e-05
1.17702e-05
1.65735e-05
1.14792e-05
1.14748e-05
1.14998e-05
1.14905e-05
1.14777e-05
1.14851e-05
1.1473e-05
1.14672e-05
1.15027e-05
1.15048e-05
1.15038e-05
1.15139e-05
1.15206e-05
1.15253e-05
1.14637e-05
1.15365e-05
1.30419e-05
1.31842e-05
1.31468e-05
1.3108e-05
1.32531e-05
1.32911e-05
1.2922e-05
1.28386e-05
1.27795e-05
1.30352e-05
1.26101e-05
1.27095e-05
1.27562e-05
1.16236e-05
1.15988e-05
1.16532e-05
1.15714e-05
1.15408e-05
1.15542e-05
1.15481e-05
1.16755e-05
1.17204e-05
1.17438e-05
1.17782e-05
1.20524e-05
1.20828e-05
1.20125e-05
1.1877e-05
1.19161e-05
1.19605e-05
1.1831e-05
1.23023e-05
1.2242e-05
1.25035e-05
1.25999e-05
1.25492e-05
1.24305e-05
1.23905e-05
1.22054e-05
1.21321e-05
1.14563e-05
1.14508e-05
1.14535e-05
1.14501e-05
1.14494e-05
1.1424e-05
1.14212e-05
1.14935e-05
1.14285e-05
1.14177e-05
1.14247e-05
1.14486e-05
1.14312e-05
1.14446e-05
1.09572e-05
1.14451e-05
1.06352e-05
1.69386e-05
1.14759e-05
1.14746e-05
1.14716e-05
1.14955e-05
1.14908e-05
1.14745e-05
1.14808e-05
1.14681e-05
1.14622e-05
1.14966e-05
1.14998e-05
1.14996e-05
1.15089e-05
1.15119e-05
1.1518e-05
1.15275e-05
1.32513e-05
1.32332e-05
1.32006e-05
1.33015e-05
1.29756e-05
1.28932e-05
1.28559e-05
1.31044e-05
1.26711e-05
1.27617e-05
1.2808e-05
1.16127e-05
1.15828e-05
1.1645e-05
1.15699e-05
1.15582e-05
1.15282e-05
1.15414e-05
1.15378e-05
1.16851e-05
1.17197e-05
1.17557e-05
1.17897e-05
1.20442e-05
1.20999e-05
1.201e-05
1.18548e-05
1.18975e-05
1.19375e-05
1.19833e-05
1.18099e-05
1.23254e-05
1.22694e-05
1.25058e-05
1.26396e-05
1.25935e-05
1.24662e-05
1.23712e-05
1.21911e-05
1.21557e-05
1.14534e-05
1.14501e-05
1.14494e-05
1.14477e-05
1.14468e-05
1.1417e-05
1.14162e-05
1.14629e-05
1.14156e-05
1.14173e-05
1.14226e-05
1.14502e-05
1.14413e-05
1.14478e-05
1.08936e-05
1.14779e-05
1.54506e-05
1.05124e-05
1.71121e-05
1.14706e-05
1.14699e-05
1.14672e-05
1.14865e-05
1.14706e-05
1.14764e-05
1.14817e-05
1.14651e-05
1.14593e-05
1.1492e-05
1.14934e-05
1.15033e-05
1.14943e-05
1.15057e-05
1.15094e-05
1.15199e-05
1.32904e-05
1.32852e-05
1.3195e-05
1.30501e-05
1.29594e-05
1.2902e-05
1.31065e-05
1.2682e-05
1.27743e-05
1.2869e-05
1.15969e-05
1.16254e-05
1.15808e-05
1.16575e-05
1.1558e-05
1.15447e-05
1.15267e-05
1.1533e-05
1.15314e-05
1.16755e-05
1.17066e-05
1.17412e-05
1.17704e-05
1.20672e-05
1.20951e-05
1.20336e-05
1.18315e-05
1.18985e-05
1.19218e-05
1.197e-05
1.1797e-05
1.23102e-05
1.22526e-05
1.25483e-05
1.2632e-05
1.26155e-05
1.24673e-05
1.23996e-05
1.22152e-05
1.21458e-05
1.14557e-05
1.14506e-05
1.14494e-05
1.14499e-05
1.14464e-05
1.14439e-05
1.14133e-05
1.14135e-05
1.14123e-05
1.14552e-05
1.14116e-05
1.14173e-05
1.14291e-05
1.14486e-05
1.14432e-05
1.1259e-05
1.14923e-05
1.65036e-05
9.87634e-06
1.80747e-05
1.14679e-05
1.14663e-05
1.14648e-05
1.14867e-05
1.14681e-05
1.1473e-05
1.14771e-05
1.14612e-05
1.14871e-05
1.14975e-05
1.14879e-05
1.14937e-05
1.14962e-05
1.15058e-05
1.1511e-05
1.32883e-05
1.30822e-05
1.30124e-05
1.29778e-05
1.32013e-05
1.27242e-05
1.28332e-05
1.29181e-05
1.1597e-05
1.1627e-05
1.15669e-05
1.16579e-05
1.15553e-05
1.15447e-05
1.1533e-05
1.15179e-05
1.15227e-05
1.15219e-05
1.16863e-05
1.17163e-05
1.17513e-05
1.17595e-05
1.20611e-05
1.2118e-05
1.20156e-05
1.17972e-05
1.18318e-05
1.18616e-05
1.19364e-05
1.19834e-05
1.17601e-05
1.23401e-05
1.22755e-05
1.25113e-05
1.25888e-05
1.26815e-05
1.26644e-05
1.24424e-05
1.23828e-05
1.21981e-05
1.2167e-05
1.14535e-05
1.14508e-05
1.14471e-05
1.14488e-05
1.14469e-05
1.14442e-05
1.14414e-05
1.14108e-05
1.14144e-05
1.13995e-05
1.14644e-05
1.14096e-05
1.14105e-05
1.14234e-05
1.14277e-05
1.14388e-05
1.14496e-05
1.14491e-05
1.13168e-05
1.14884e-05
1.36747e-05
1.05187e-05
1.67078e-05
1.1465e-05
1.14622e-05
1.14611e-05
1.14826e-05
1.14653e-05
1.14694e-05
1.14732e-05
1.14778e-05
1.14596e-05
1.14825e-05
1.14922e-05
1.14836e-05
1.14878e-05
1.14936e-05
1.14996e-05
1.15089e-05
1.31488e-05
1.30222e-05
1.30202e-05
1.32143e-05
1.28336e-05
1.28962e-05
1.29941e-05
1.15754e-05
1.16124e-05
1.16456e-05
1.16714e-05
1.15413e-05
1.15359e-05
1.15207e-05
1.15104e-05
1.15128e-05
1.15125e-05
1.17006e-05
1.1733e-05
1.17197e-05
1.20798e-05
1.21061e-05
1.20256e-05
1.17452e-05
1.1798e-05
1.18544e-05
1.19073e-05
1.19541e-05
1.17063e-05
1.23163e-05
1.22556e-05
1.2512e-05
1.26161e-05
1.27011e-05
1.2671e-05
1.24634e-05
1.24132e-05
1.22187e-05
1.21469e-05
1.14558e-05
1.14492e-05
1.1442e-05
1.14474e-05
1.14459e-05
1.14446e-05
1.14419e-05
1.14146e-05
1.14214e-05
1.14083e-05
1.14234e-05
1.13942e-05
1.14124e-05
1.14256e-05
1.14349e-05
1.14426e-05
1.14504e-05
1.14504e-05
1.14504e-05
1.15211e-05
1.15047e-05
1.1437e-05
1.26083e-05
1.05617e-05
1.81528e-05
1.14625e-05
1.146e-05
1.14598e-05
1.14594e-05
1.14632e-05
1.14667e-05
1.1469e-05
1.14753e-05
1.14776e-05
1.14854e-05
1.14839e-05
1.14788e-05
1.14885e-05
1.1495e-05
1.15001e-05
1.31687e-05
1.31055e-05
1.30961e-05
1.32969e-05
1.28071e-05
1.29109e-05
1.29543e-05
1.30488e-05
1.15842e-05
1.16204e-05
1.16348e-05
1.1662e-05
1.1533e-05
1.15251e-05
1.15115e-05
1.15165e-05
1.15012e-05
1.15034e-05
1.15029e-05
1.16895e-05
1.17216e-05
1.16625e-05
1.20562e-05
1.21189e-05
1.1997e-05
1.17668e-05
1.17303e-05
1.18176e-05
1.18866e-05
1.1856e-05
1.19218e-05
1.19636e-05
1.16984e-05
1.23397e-05
1.22772e-05
1.25519e-05
1.26001e-05
1.27517e-05
1.27156e-05
1.2461e-05
1.23884e-05
1.21947e-05
1.2159e-05
1.14555e-05
1.1452e-05
1.14402e-05
1.14416e-05
1.14461e-05
1.14442e-05
1.14419e-05
1.14158e-05
1.14214e-05
1.14122e-05
1.14163e-05
1.14026e-05
1.1419e-05
1.14307e-05
1.14419e-05
1.14504e-05
1.1446e-05
1.14489e-05
1.14503e-05
1.13587e-05
1.14809e-05
1.14257e-05
1.5736e-05
1.08401e-05
1.66306e-05
1.14599e-05
1.14577e-05
1.14567e-05
1.14569e-05
1.14636e-05
1.146e-05
1.14662e-05
1.14688e-05
1.14717e-05
1.14752e-05
1.14801e-05
1.14797e-05
1.14772e-05
1.14822e-05
1.14894e-05
1.14935e-05
1.32462e-05
1.31293e-05
1.31437e-05
1.28577e-05
1.29483e-05
1.30242e-05
1.31257e-05
1.15686e-05
1.16087e-05
1.16232e-05
1.16157e-05
1.16473e-05
1.15491e-05
1.15165e-05
1.15148e-05
1.15013e-05
1.15053e-05
1.14942e-05
1.14952e-05
1.1495e-05
1.16789e-05
1.16388e-05
1.20579e-05
1.20851e-05
1.20041e-05
1.18124e-05
1.17755e-05
1.18831e-05
1.18841e-05
1.18861e-05
1.18795e-05
1.19362e-05
1.17921e-05
1.23187e-05
1.22395e-05
1.25571e-05
1.26477e-05
1.27484e-05
1.25067e-05
1.2417e-05
1.22064e-05
1.21274e-05
1.14557e-05
1.14527e-05
1.14412e-05
1.14407e-05
1.14444e-05
1.14502e-05
1.14448e-05
1.1444e-05
1.14247e-05
1.14277e-05
1.14145e-05
1.14174e-05
1.1408e-05
1.14101e-05
1.14268e-05
1.14383e-05
1.1451e-05
1.14552e-05
1.14467e-05
1.14527e-05
1.14502e-05
1.14454e-05
1.14359e-05
1.14876e-05
1.14117e-05
1.35802e-05
1.09092e-05
1.71295e-05
1.1458e-05
1.1456e-05
1.14553e-05
1.14617e-05
1.14582e-05
1.14632e-05
1.14649e-05
1.14683e-05
1.14695e-05
1.14725e-05
1.14731e-05
1.14734e-05
1.14786e-05
1.14857e-05
1.14877e-05
1.3289e-05
1.32153e-05
1.32239e-05
1.29203e-05
1.28147e-05
1.30157e-05
1.30879e-05
1.31844e-05
1.15609e-05
1.15863e-05
1.15693e-05
1.15369e-05
1.15503e-05
1.15353e-05
1.15068e-05
1.15052e-05
1.14978e-05
1.14943e-05
1.14886e-05
1.14873e-05
1.14863e-05
1.15985e-05
1.17452e-05
1.20857e-05
1.19787e-05
1.18691e-05
1.18489e-05
1.19633e-05
1.1878e-05
1.18843e-05
1.19416e-05
1.18902e-05
1.19917e-05
1.18371e-05
1.23377e-05
1.22327e-05
1.26036e-05
1.26988e-05
1.27386e-05
1.25063e-05
1.24619e-05
1.2376e-05
1.21668e-05
1.2136e-05
1.14542e-05
1.14536e-05
1.1442e-05
1.14413e-05
1.14467e-05
1.14537e-05
1.14454e-05
1.14299e-05
1.14386e-05
1.14216e-05
1.14265e-05
1.14098e-05
1.14093e-05
1.14229e-05
1.14394e-05
1.14409e-05
1.14517e-05
1.14426e-05
1.14482e-05
1.14535e-05
1.14513e-05
1.1488e-05
1.14235e-05
1.1475e-05
1.14144e-05
1.48746e-05
1.06356e-05
1.82816e-05
1.14565e-05
1.14544e-05
1.14533e-05
1.146e-05
1.14616e-05
1.14569e-05
1.14628e-05
1.14643e-05
1.14688e-05
1.14694e-05
1.14684e-05
1.14695e-05
1.14734e-05
1.14809e-05
1.14816e-05
1.32936e-05
1.29643e-05
1.28451e-05
1.3072e-05
1.30297e-05
1.31695e-05
1.32547e-05
1.15343e-05
1.15582e-05
1.15641e-05
1.15162e-05
1.15801e-05
1.15508e-05
1.15852e-05
1.15334e-05
1.15171e-05
1.14909e-05
1.14934e-05
1.14871e-05
1.14854e-05
1.14808e-05
1.14836e-05
1.1482e-05
1.14823e-05
1.14816e-05
1.17578e-05
1.2037e-05
1.19834e-05
1.19826e-05
1.19885e-05
1.18402e-05
1.18622e-05
1.19428e-05
1.19194e-05
1.21671e-05
1.19866e-05
1.22684e-05
1.22004e-05
1.26183e-05
1.27224e-05
1.27961e-05
1.25516e-05
1.24601e-05
1.23771e-05
1.21508e-05
1.2133e-05
1.14532e-05
1.14539e-05
1.14536e-05
1.14454e-05
1.14482e-05
1.14531e-05
1.1456e-05
1.14469e-05
1.14475e-05
1.1445e-05
1.14498e-05
1.1425e-05
1.14421e-05
1.14183e-05
1.14203e-05
1.14314e-05
1.14501e-05
1.14471e-05
1.14524e-05
1.14558e-05
1.14459e-05
1.1447e-05
1.14549e-05
1.1457e-05
1.14494e-05
1.14963e-05
1.1302e-05
1.14139e-05
1.14328e-05
1.14763e-05
1.14212e-05
1.09121e-05
1.02798e-05
1.55214e-05
1.60205e-05
1.14555e-05
1.14545e-05
1.14528e-05
1.14591e-05
1.14597e-05
1.14549e-05
1.14576e-05
1.14593e-05
1.14621e-05
1.14645e-05
1.14641e-05
1.14631e-05
1.14662e-05
1.14721e-05
1.14759e-05
1.14756e-05
1.29633e-05
1.29097e-05
1.31476e-05
1.30904e-05
1.32348e-05
1.32989e-05
1.14781e-05
1.14813e-05
1.14674e-05
1.15065e-05
1.16927e-05
1.16056e-05
1.16677e-05
1.15001e-05
1.1503e-05
1.14868e-05
1.14847e-05
1.14813e-05
1.14786e-05
1.1475e-05
1.14745e-05
1.14762e-05
1.19321e-05
1.20953e-05
1.20372e-05
1.20268e-05
1.18324e-05
1.20591e-05
1.22637e-05
1.19952e-05
1.22762e-05
1.22711e-05
1.26772e-05
1.2597e-05
1.27751e-05
1.28174e-05
1.25088e-05
1.24226e-05
1.23193e-05
1.21495e-05
1.14521e-05
1.14529e-05
1.1453e-05
1.14487e-05
1.14573e-05
1.14592e-05
1.14559e-05
1.14495e-05
1.14494e-05
1.14557e-05
1.14359e-05
1.14531e-05
1.14249e-05
1.14309e-05
1.14384e-05
1.14599e-05
1.14625e-05
1.1458e-05
1.14464e-05
1.14496e-05
1.14591e-05
1.14607e-05
1.14519e-05
1.14877e-05
1.14604e-05
1.14185e-05
1.14215e-05
1.14424e-05
1.1435e-05
1.09424e-05
1.40391e-05
1.78082e-05
1.14547e-05
1.14538e-05
1.14522e-05
1.14584e-05
1.14585e-05
1.1455e-05
1.14569e-05
1.14566e-05
1.14581e-05
1.14633e-05
1.14635e-05
1.14611e-05
1.14598e-05
1.14618e-05
1.14678e-05
1.14709e-05
1.30395e-05
1.29341e-05
1.32274e-05
1.31107e-05
1.32796e-05
1.14537e-05
1.1432e-05
1.14133e-05
1.15907e-05
1.1653e-05
1.17199e-05
1.17302e-05
1.14978e-05
1.14392e-05
1.14947e-05
1.14749e-05
1.14742e-05
1.1472e-05
1.14727e-05
1.14711e-05
1.14684e-05
1.14693e-05
1.14684e-05
1.14709e-05
1.18848e-05
1.22739e-05
1.24248e-05
1.22147e-05
1.24043e-05
1.26787e-05
1.26308e-05
1.27937e-05
1.28772e-05
1.2525e-05
1.24462e-05
1.23389e-05
1.21853e-05
1.14512e-05
1.14522e-05
1.1454e-05
1.14514e-05
1.14612e-05
1.14596e-05
1.1457e-05
1.14517e-05
1.14621e-05
1.1452e-05
1.14679e-05
1.14439e-05
1.1445e-05
1.14562e-05
1.14678e-05
1.14661e-05
1.14709e-05
1.14639e-05
1.14528e-05
1.14542e-05
1.14586e-05
1.14619e-05
1.14658e-05
1.14576e-05
1.14462e-05
1.15005e-05
1.14305e-05
1.14158e-05
1.14163e-05
1.14337e-05
1.14381e-05
1.14501e-05
1.08266e-05
1.71072e-05
1.15299e-05
1.54843e-05
1.14537e-05
1.1454e-05
1.14569e-05
1.14564e-05
1.14548e-05
1.14572e-05
1.14533e-05
1.14572e-05
1.14602e-05
1.14602e-05
1.14555e-05
1.14552e-05
1.14591e-05
1.14646e-05
1.14661e-05
1.30501e-05
1.29965e-05
1.32858e-05
1.32002e-05
1.14453e-05
1.13652e-05
1.15924e-05
1.18494e-05
1.15268e-05
1.19943e-05
1.14601e-05
1.1416e-05
1.14812e-05
1.14687e-05
1.14628e-05
1.1468e-05
1.14675e-05
1.14663e-05
1.14644e-05
1.14633e-05
1.14664e-05
1.20381e-05
1.2308e-05
1.24399e-05
1.27264e-05
1.26431e-05
1.28619e-05
1.27812e-05
1.25047e-05
1.25791e-05
1.24134e-05
1.14518e-05
1.14514e-05
1.14549e-05
1.14553e-05
1.14682e-05
1.1462e-05
1.14601e-05
1.14572e-05
1.14677e-05
1.14679e-05
1.14654e-05
1.14786e-05
1.14514e-05
1.14649e-05
1.14659e-05
1.14792e-05
1.14763e-05
1.14827e-05
1.14574e-05
1.1468e-05
1.1468e-05
1.14712e-05
1.14677e-05
1.14364e-05
1.14895e-05
1.14432e-05
1.14278e-05
1.14161e-05
1.14183e-05
1.1459e-05
1.14703e-05
1.12023e-05
1.70647e-05
1.09629e-05
1.71515e-05
1.14542e-05
1.14551e-05
1.14566e-05
1.14532e-05
1.14558e-05
1.14577e-05
1.14527e-05
1.14549e-05
1.14587e-05
1.14556e-05
1.14578e-05
1.14526e-05
1.14547e-05
1.14581e-05
1.14597e-05
1.14613e-05
1.31214e-05
1.30183e-05
1.32027e-05
1.14243e-05
1.15452e-05
1.13977e-05
1.1833e-05
1.19669e-05
1.25133e-05
1.13895e-05
1.14652e-05
1.15031e-05
1.14671e-05
1.14579e-05
1.14538e-05
1.14591e-05
1.14594e-05
1.1461e-05
1.146e-05
1.14587e-05
1.14609e-05
1.26947e-05
1.29096e-05
1.28395e-05
1.25473e-05
1.25687e-05
1.24184e-05
1.14535e-05
1.1453e-05
1.14548e-05
1.14578e-05
1.14621e-05
1.14672e-05
1.14739e-05
1.14603e-05
1.14712e-05
1.14634e-05
1.14762e-05
1.14747e-05
1.14761e-05
1.14919e-05
1.14735e-05
1.14807e-05
1.14844e-05
1.14873e-05
1.14866e-05
1.14951e-05
1.1464e-05
1.14716e-05
1.14742e-05
1.14733e-05
1.14754e-05
1.14701e-05
1.1434e-05
1.14194e-05
1.14523e-05
1.15264e-05
1.14595e-05
1.14409e-05
1.14233e-05
1.14173e-05
1.14733e-05
1.14832e-05
1.13096e-05
1.38516e-05
1.74757e-05
1.08687e-05
1.52258e-05
1.14547e-05
1.14572e-05
1.14541e-05
1.14518e-05
1.14575e-05
1.14569e-05
1.14506e-05
1.14559e-05
1.14532e-05
1.14548e-05
1.14489e-05
1.14528e-05
1.14559e-05
1.14581e-05
1.30931e-05
1.29726e-05
1.32862e-05
1.15164e-05
1.16646e-05
1.155e-05
1.15271e-05
1.17851e-05
1.13526e-05
1.14465e-05
1.14269e-05
1.14547e-05
1.14533e-05
1.14438e-05
1.1455e-05
1.14566e-05
1.14582e-05
1.14567e-05
1.14558e-05
1.14534e-05
1.1456e-05
1.27205e-05
1.29056e-05
1.2816e-05
1.24853e-05
1.26337e-05
1.2622e-05
1.14546e-05
1.1457e-05
1.14602e-05
1.14671e-05
1.14671e-05
1.14736e-05
1.1478e-05
1.14632e-05
1.14707e-05
1.14853e-05
1.14889e-05
1.15062e-05
1.14946e-05
1.14965e-05
1.15004e-05
1.14997e-05
1.15097e-05
1.14839e-05
1.14834e-05
1.14826e-05
1.14853e-05
1.14817e-05
1.1419e-05
1.1413e-05
1.14388e-05
1.14991e-05
1.14754e-05
1.14579e-05
1.14357e-05
1.14293e-05
1.14948e-05
1.15047e-05
1.15066e-05
1.12622e-05
1.31426e-05
1.82803e-05
1.06576e-05
1.64009e-05
1.14571e-05
1.14601e-05
1.14549e-05
1.14523e-05
1.14501e-05
1.14591e-05
1.14575e-05
1.14525e-05
1.14555e-05
1.14503e-05
1.14522e-05
1.14467e-05
1.14483e-05
1.14535e-05
1.1449e-05
1.14553e-05
1.14532e-05
1.31455e-05
1.3006e-05
1.32326e-05
1.15794e-05
1.1764e-05
1.18351e-05
1.13661e-05
1.14497e-05
1.16707e-05
1.14433e-05
1.14442e-05
1.14386e-05
1.14368e-05
1.14474e-05
1.14504e-05
1.14546e-05
1.14505e-05
1.14503e-05
1.14496e-05
1.14504e-05
1.27598e-05
1.29587e-05
1.28634e-05
1.29316e-05
1.25896e-05
1.1457e-05
1.14594e-05
1.14584e-05
1.14642e-05
1.14607e-05
1.14783e-05
1.14757e-05
1.14859e-05
1.1465e-05
1.14812e-05