/*--------------------------------*- C++ -*----------------------------------*\
| =========                 |                                                 |
| \\      /  F ield         | OpenFOAM: The Open Source CFD Toolbox           |
|  \\    /   O peration     | Version:  v2012                                 |
|   \\  /    A nd           | Website:  www.openfoam.com                      |
|    \\/     M anipulation  |                                                 |
\*---------------------------------------------------------------------------*/
FoamFile
{
    version     2.0;
    format      ascii;
    class       volScalarField;
    location    "1.7";
    object      omega;
}
// * * * * * * * * * * * * * * * * * * * * * * * * * * * * * * * * * * * * * //

dimensions      [0 0 -1 0 0 0 0];


internalField   nonuniform List<scalar> 
13611
(
48.4802
49.5177
49.0897
47.484
37.633
42.5464
48.4694
47.4742
88.4565
37.2725
39.5881
47.8528
46.5143
48.9095
44.9634
37.45
46.5229
50.8054
50.0106
47.325
48.8734
50.2798
90.24
37.5158
44.3237
50.5081
61.9203
51.7307
46.6398
47.6989
50.1518
51.6373
47.6343
40.423
44.6184
52.3036
53.0689
69.8112
52.7085
45.4824
47.6524
49.7616
51.2063
51.8322
37.0309
92.7895
39.1371
44.5628
54.5202
54.2721
59.9301
54.1539
45.5967
48.6648
46.5858
50.6362
51.8177
53.2423
32.7146
42.8986
39.7148
44.0131
55.3275
55.3053
55.4796
83.092
54.3523
44.5478
48.3582
46.2992
50.6288
52.8719
36.1072
31.5811
85.5138
42.4324
43.7929
57.0057
56.9502
57.4608
53.7761
55.6926
44.4686
47.1657
49.2416
45.3968
51.6732
53.9661
36.3104
29.1944
36.6662
42.5118
42.6513
58.3139
56.991
58.123
58.9872
58.7985
67.347
55.5778
43.8595
46.7104
48.9822
45.0151
51.1478
52.5989
53.8428
40.3844
33.5663
29.2328
78.212
42.0559
42.2975
60.2694
58.3363
59.5723
61.2407
61.8506
65.2621
56.9466
43.1505
44.1546
45.6399
47.4535
48.4728
50.2514
51.9748
55.3385
40.6244
34.5776
32.0004
47.275
41.1388
41.6697
60.8922
58.6053
63.2186
63.3108
62.6015
70.1418
56.9689
42.6026
43.4095
45.6105
46.5562
49.1984
50.3535
52.9857
55.5943
40.5234
38.1205
32.1132
34.1465
40.5326
40.8773
41.8636
62.6793
60.1875
66.3057
65.2386
65.2927
75.0088
58.6929
42.6593
43.6866
44.7561
46.9735
48.3383
51.343
54.3402
52.488
57.2652
39.8466
38.2406
33.9093
27.7386
87.0306
39.7616
40.258
41.4256
64.9073
61.7311
60.3073
68.0262
67.9293
65.9503
102.62
58.9124
41.7738
43.1242
44.6978
46.6326
48.7831
50.9086
54.3715
53.191
57.1978
39.182
38.5737
32.2319
23.2462
53.0985
39.2259
39.5131
40.5614
66.0397
63.0806
61.983
70.4402
68.4322
68.6644
74.7958
60.5691
41.6075
43.5844
42.3441
45.5743
47.4993
48.5257
50.0466
52.0954
55.6666
58.9278
38.6364
38.1395
34.5563
32.3992
26.4852
57.0337
38.5997
38.8447
40.228
64.9964
68.4473
63.0488
69.642
72.674
70.7956
113.322
66.2452
62.1219
60.4823
40.838
43.2387
41.6671
45.4564
47.2058
49.3328
50.3983
52.6563
55.9312
59.0541
37.9349
37.8976
33.5191
29.9891
25.1601
35.8024
37.8941
38.79
38.1047
39.4692
66.4122
70.0861
65.2989
72.4035
75.4333
78.6144
77.2729
71.1765
63.3186
62.0203
40.9296
42.4982
44.0186
41.7459
46.2857
44.7407
48.0467
49.251
51.4725
54.0542
57.6842
55.2525
60.8497
37.5088
37.2679
35.567
27.103
28.4728
78.8451
38.1416
37.5957
39.4921
68.9429
72.5928
66.4626
74.6471
78.2866
79.0175
88.5644
65.1399
62.9061
40.2723
42.6878
43.4262
41.0028
45.4566
44.7075
47.86
50.2401
51.4588
53.8686
57.6304
56.2119
60.5495
62.5217
36.9328
36.6869
34.6205
26.9717
27.8108
44.8233
37.6476
37.8095
36.9609
38.9104
70.6017
75.03
68.7962
77.1709
80.8484
83.4524
85.6863
110.103
66.0702
64.9951
40.2564
41.9883
43.7244
40.7449
45.8412
48.946
47.0009
50.0189
52.579
54.9397
58.9195
56.1109
62.0475
64.1288
36.4339
36.6017
35.9912
36.3113
26.1731
32.6644
36.757
37.1445
37.2037
38.207
36.7351
39.0585
73.2185
75.3393
77.7346
69.6478
79.7362
83.7229
85.6966
89.1359
88.037
68.3594
66.0202
39.7491
41.9344
41.2176
43.4135
39.9567
45.0902
48.9998
47.2933
51.0258
52.1024
55.113
58.7162
57.3562
61.8638
64.0094
35.8924
36.012
35.7193
35.5478
24.7892
32.8459
77.1006
26.5372
36.7533
37.6283
36.2122
38.5686
73.7688
78.3638
80.6196
72.4014
82.2751
85.018
89.5909
92.2298
89.9211
120.294
69.7412
67.9908
41.0287
42.6072
40.7007
44.177
39.5501
45.4649
50.1033
48.2807
46.4801
51.0537
52.9907
54.2458
56.5776
60.074
63.4354
65.9384
35.502
34.9162
35.0082
28.2953
33.6194
92.4893
22.4325
36.1628
36.9793
37.8193
35.6289
38.7934
76.8757
81.2329
83.3541
74.1105
88.2511
92.6982
95.816
94.9997
97.2487
72.2565
68.7411
41.0216
42.7407
39.9279
43.5381
44.9924
49.9281
48.6988
46.4857
52.0794
54.9018
57.3623
59.1293
65.3364
63.3608
67.9969
34.9623
34.4762
34.5628
27.6364
33.5064
48.697
21.6517
35.6903
36.3876
37.3562
35.048
38.3457
78.87
84.2347
86.8442
77.0478
91.2034
96.3796
99.4381
98.9041
127.623
73.1959
71.4
40.0657
41.8496
39.5542
43.9755
45.4754
50.7731
48.4121
47.3209
52.6123
54.079
56.4602
60.1211
66.9238
65.5179
62.0755
69.7258
34.4997
33.9212
33.9951
30.6325
33.6133
40.6953
22.3702
35.0679
35.8195
36.2647
36.7716
37.6721
34.5455
38.729
82.1458
86.6091
85.7512
90.3094
78.7132
95.8597
98.1952
103.446
106.764
110.503
76.2968
72.1998
39.6884
41.8473
43.5148
45.0459
50.5779
51.9156
49.3812
46.8271
54.778
57.238
58.9319
69.2207
66.5425
62.857
33.9883
33.5048
30.878
33.3099
32.4727
21.3628
34.6874
35.3991
35.7471
36.3963
37.1181
34.0571
38.1102
83.7038
84.3293
90.2375
90.0106
93.6912
82.1921
98.9897
103.309
105.315
111.384
137.968
114.35
77.4023
74.6855
39.0415
40.3059
41.0525
42.7487
44.117
45.7102
51.537
52.6014
48.8644
47.5496
53.8644
56.3143
59.6002
71.4415
64.7693
68.6434
61.3885
33.5559
32.9966
32.3096
28.1508
32.6193
18.6211
93.3128
18.6689
34.247
34.903
35.351
35.8094
36.5784
36.9286
33.8983
33.6178
37.3706
38.3471
87.205
87.7794
93.373
93.301
97.4332
84.609
104.438
106.531
110.904
115.121
127.088
122.095
80.7456
75.2197
39.0306
39.5927
41.1356
42.7394
43.5201
45.2111
52.0579
49.7456
47.159
54.5369
57.056
58.7096
70.5797
74.07
64.9296
68.5264
61.7456
33.0547
32.4359
32.1319
29.7128
32.1044
17.4256
40.916
24.0724
33.8953
34.6887
34.9276
35.4996
36.1937
36.3199
33.5269
33.2253
37.0279
37.9841
90.0338
91.6513
96.9277
97.9143
100.667
83.8802
88.7673
108.326
112.194
121.364
151.389
128.764
80.8237
78.3902
38.3317
39.7647
41.938
40.5144
44.0587
45.9085
53.6379
51.1513
49.195
47.9968
56.142
59.5869
72.5406
75.7964
63.6423
66.9982
70.8145
61.2613
32.7174
32.0847
31.234
31.9314
31.6398
17.7073
88.1878
23.2929
33.9571
33.5452
34.3034
34.5698
35.0858
35.7565
36.075
33.1831
32.8413
36.4273
37.362
93.8523
94.8837
102.484
105.2
87.6146
91.4657
114.079
117.932
127.565
148.549
138.291
84.0744
78.5342
37.8159
39.6305
41.7943
40.2391
43.4361
45.5962
54.4027
51.7404
49.9308
47.4672
56.9599
58.7278
75.0371
64.3666
67.704
71.8955
62.6052
32.2725
31.6594
31.2972
31.4352
31.2247
16.0038
43.71
26.6858
33.5347
33.2299
34.1614
34.6969
34.9742
35.3319
35.4782
32.8679
32.5206
36.0508
36.7872
96.9759
99.5527
103.262
107.073
108.5
91.4903
87.5198
95.5911
117.179
117.82
125.324
136.318
167.809
149.691
146.911
84.1019
81.0073
38.183
36.956
39.0906
42.5272
40.8662
43.953
46.4956
44.8
56.0064
53.2335
51.1798
49.3722
48.1542
59.7119
77.3054
66.1651
69.9169
74.6279
61.7819
32.0313
31.3498
30.2133
31.2075
31.0704
30.9446
22.032
22.7257
92.6916
33.283
33.2384
32.9003
33.8818
34.3331
34.4952
35.2073
32.541
32.2158
35.5398
36.2146
101.353
108.84
112.07
115.164
95.5481
91.4524
98.9197
124.153
125.182
132.859
144.032
173.081
162.583
155.263
87.0689
80.4214
37.7477
36.5442
39.2958
42.383
40.7733
43.0707
45.8028
44.9222
56.9092
53.3475
51.9288
50.133
47.4325
58.7604
77.3453
67.0616
70.3204
74.3145
63.1406
31.7539
31.4649
31.0312
30.614
30.8147
30.7259
30.6254
21.1103
25.3087
57.2642
32.9016
33.5016
32.8797
32.656
34.0053
34.1868
34.3554
34.7755
32.2552
31.9514
35.2127
35.6845
106.166
112.419
118.152
120.338
98.2148
90.2909
95.2969
104.147
130.018
132.024
141.893
154.291
166.464
86.6111
83.1972
38.1454
36.9607
35.9652
38.8576
40.0782
41.5572
43.1744
46.2346
44.1804
56.8334
54.5906
51.443
50.119
47.8762
59.7302
80.1649
69.4103
65.4673
72.632
76.7745
61.5476
31.7082
31.1741
30.7969
29.7327
30.4353
30.4933
30.4128
30.5451
15.4715
22.7453
38.6192
32.6756
32.8148
33.3393
32.6508
32.3264
33.7896
33.8651
34.0644
34.5588
31.9599
34.7639
35.2822
35.5568
111.69
119.752
123.806
128.083
103.37
93.0153
97.2236
108.623
138.777
140.176
150.562
165.223
176.119
89.8339
82.5656
37.6847
36.6388
35.4809
39.1477
39.8918
41.339
42.7741
45.9912
44.0943
56.0573
58.5047
53.6335
52.2973
49.0096
51.3111
46.8001
81.41
70.9228
66.6214
73.3027
79.3774
75.3138
62.2225
31.4383
30.898
31.1634
29.8599
30.029
30.2199
30.1609
30.3569
17.8398
24.7346
90.2974
32.4001
33.0365
32.5172
33.5085
32.38
32.2025
33.5819
33.7285
34.1922
31.7273
34.5893
34.8527
35.1098
117.324
123.972
132.254
134.484
107.794
101.952
96.9142
114.976
147.161
149.741
162.158
176.223
91.9102
85.8424
37.0598
38.0014
36.1016
35.0757
35.5734
38.7802
40.4409
41.9825
43.3149
44.932
57.0454
58.6747
54.3378
49.0409
51.9336
46.8773
84.5044
69.687
66.013
80.6722
76.939
64.2608
60.287
31.4255
30.6722
30.9305
29.7349
29.7116
29.999
29.8908
30.074
30.445
17.1163
22.6273
27.9207
49.161
32.3348
32.1418
32.8625
32.3975
33.2588
32.1217
31.951
33.287
33.5
33.4736
33.8797
31.7429
34.211
34.7689
119.26
132.027
139.591
144.306
112.897
105.804
101.031
118.868
159.982
160.477
173.779
97.1689
88.9111
36.5298
37.5687
36.0353
34.7138
35.0981
39.2122
40.0827
41.8699
42.7045
44.4526
56.1247
53.5409
47.9545
50.1545
51.2634
46.031
86.377
71.541
68.2335
80.171
84.4231
74.7504
64.7264
60.6717
31.3348
30.5459
30.9324
30.6858
29.573
29.4493
29.7049
29.744
29.9304
30.2763
14.3346
24.1871
28.3815
23.1095
99.9432
32.0693
31.9709
32.5622
32.9828
32.1362
31.8184
31.7432
33.0953
33.1812
33.1698
33.5472
33.8954
31.5093
34.0514
34.3726
127.856
139.586
134.375
149.773
152.802
111.791
105.803
101.499
125.395
172.332
98.1351
89.8542
36.7663
37.9486
35.4069
34.4388
34.3694
34.9664
34.6461
38.7793
40.6253
41.455
42.7934
45.1674
43.5597
56.9768
54.3524
47.909
49.9732
52.0941
46.1
70.5627
66.8373
82.8298
86.4544
76.0798
63.0719
59.9093
31.1184
30.3058
30.7137
30.5768
29.2175
29.1961
29.3027
29.4335
29.5854
30.052
29.6958
19.9917
27.1009
23.1655
50.3154
31.9736
31.7737
32.4023
32.7705
31.944
31.662
31.5273
32.8336
33.0215
32.9511
33.281
33.5032
31.4099
33.7167
130.466
149.8
144.643
158.198
165.005
117.658
110.781
106.972
128.915
93.5705
103.204
36.3092
37.487
35.1881
34.0434
34.0494
34.4669
34.3266
39.2194
40.0955
41.8915
44.5416
43.665
55.8089
58.4708
53.3359
46.9446
48.9424
51.0051
44.9863
72.4765
68.1231
81.9924
89.8908
79.2945
75.1279
63.0939
61.1855
31.0483
30.1607
30.6752
30.4055
28.9002
28.8872
29.0441
29.245
29.3408
29.8972
29.5497
22.0013
26.6741
19.5694
94.0732
31.7609
31.5654
32.5486
32.2019
31.7122
31.9991
31.4584
31.3051
32.6425
32.7318
32.6555
33.0095
33.258
33.3934
31.1924
33.7366
139.423
158.077
152.973
147.704
167.903
173.452
125.413
116.409
110.394
138.683
94.3618
103.329
107.963
36.6721
35.6872
37.8464
34.681
33.7926
34.0702
33.962
38.6985
40.5204
41.4783
42.9121
56.1984
57.8237
53.9944
47.1002
48.9536
51.1495
45.0035
71.0151
67.1446
85.5533
93.4909
89.2143
79.9933
77.0545
64.8677
60.5812
30.8344
29.9567
30.2312
30.4677
30.3447
28.6888
28.8868
28.7163
28.5231
28.9699
29.2375
29.7377
29.3564
29.6008
21.2184
27.6915
16.7871
53.7059
31.6276
31.5705
31.3996
32.3664
32.1776
31.5597
31.795
31.2779
31.1356
32.4045
32.5388
32.4995
32.8374
32.9461
33.1128
33.3961
167.608
165.015
160.28
175.06
131.499
122.176
118.298
147.228
99.8376
108.322
112.938
36.3046
35.15
37.4698
34.6609
34.2008
33.379
33.616
33.5814
39.0577
40.484
42.0088
43.1488
55.6713
58.7851
53.6604
46
48.0384
49.9914
52.2925
44.0179
72.582
68.925
85.7325
96.9269
92.8865
82.674
75.7687
64.0347
61.951
30.713
29.8732
30.109
30.4032
30.162
28.5833
28.6775
28.3597
28.2441
28.8772
29.0487
29.6338
29.3247
29.4504
21.6843
27.7478
28.2149
18.7032
103.209
31.3957
31.3761
31.2151
32.0005
31.389
31.609
31.7985
31.0684
30.949
32.2325
32.2986
32.6294
32.2934
32.7051
32.8087
33.1358
173.335
172.601
159.525
140.491
129.656
123.136
147.459
100.772
109.509
119.297
35.7135
36.7493
35.1557
37.8512
34.2574
33.7367
33.2693
33.3688
33.2522
38.5264
39.856
41.2986
42.2636
56.787
58.3763
54.8187
45.2965
48.2285
49.4544
51.7835
43.5992
71.6112
67.8533
89.1916
96.2184
94.7638
82.8083
77.8217
65.4934
61.2595
30.7945
30.5388
29.9708
29.7072
30.257
30.0445
28.37
28.5019
28.0579
28.1336
28.2164
28.7208
28.9576
29.46
29.181
25.1112
27.9828
26.9831
17.9595
52.1729
31.2762
31.2108
31.0428
32.0218
31.253
31.4379
31.6132
30.906
32.0729
32.4146
32.0702
32.2636
32.3682
32.6512
32.813
173.062
144.476
135.788
131.785
160.422
104.651
115.429
124.366
35.546
36.5598
34.6386
37.5374
34.2211
33.7665
33.3192
32.9621
32.9946
32.9332
38.6696
39.9739
41.4724
41.9502
56.3149
59.5651
54.1388
44.0173
45.7388
47.0198
50.2759
52.6437
42.38
73.6554
69.3182
86.2909
92.556
100.637
99.1577
80.9885
76.6581
64.4317
62.4516
30.6163
30.4998
29.8305
29.7033
30.2136
30.1117
29.8749
28.2814
28.5555
27.7843
28.0057
27.7288
27.9976
28.7047
28.8163
29.0352
29.3798
29.1335
25.2468
27.7556
20.7265
21.2068
95.8735
31.1225
31.0096
30.8639
31.8629
31.1105
31.2796
31.4377
31.6503
30.7241
31.8833
32.2267
31.8883
32.0427
32.2495
32.4323
32.7024
153.193
137.082
136.517
162.038
115.397
122.137
133.274
34.8156
35.961
36.9907
37.8971
33.755
33.5081
32.9018
32.661
32.675
32.6003
39.2468
40.6517
40.7574
57.3144
58.838
54.9115
42.8301
44.7259
47.1823
49.5324
51.8576
41.3055
72.047
68.0349
86.4012
94.9427
102.399
99.8476
82.592
78.8332
65.6805
61.3542
30.5752
30.3247
29.7681
29.5911
30.0773
30.0252
29.8194
28.2107
28.4918
27.8215
27.5565
27.4224
27.9197
28.5755
28.7486
28.923
29.4848
29.2437
28.9946
26.679
27.5095
27.3288
18.4168
22.0226
48.6511
30.9792
30.8894
30.8596
30.7037
30.9786
31.1247
31.2591
31.5695
31.6945
31.9718
31.8859
31.6936
32.0637
32.247
32.3862
156.041
147.634
146.119
174.429
112.718
123.809
128.705
139.711
34.7177
35.8896
36.3467
37.6861
33.3274
33.134
32.57
32.8035
32.3732
32.3127
32.2712
38.9881
40.3854
39.7039
56.3505
59.6603
54.1567
43.6301
42.1636
45.4291
48.4989
46.8173
50.4767
52.7009
40.7572
73.6093
69.3914
89.6075
93.6355
107.28
103.918
82.4241
77.0528
64.3308
62.2055
30.3978
30.2605
29.6104
29.5312
29.9459
29.9089
29.6877
28.0715
28.3492
27.6676
27.3252
27.3723
27.8245
28.6031
28.8051
28.9097
29.3865
29.2646
28.9041
25.3909
27.2699
27.0397
24.4588
20.1062
95.1821
30.803
30.7148
30.6906
30.553
30.9801
30.8055
31.1055
31.2576
31.41
31.5862
31.7781
31.6981
31.6059
31.8443
32.0667
32.1655
167.042
150.453
152.192
117.965
127.817
136.986
149.845
34.0818
35.2842
36.1876
36.4795
37.8519
33.5242
32.8197
32.7804
32.229
32.4338
32.1109
32.0587
31.9951
39.2062
38.9293
56.8331
58.2577
54.9164
44.32
43.132
46.6424
48.4224
47.7132
49.4559
52.1132
42.6378
72.1549
67.4151
90.0586
97.822
107.061
85.9354
79.1019
65.2301
60.7396
30.3922
30.0943
29.5853
29.3982
29.7963
29.9546
29.7856
29.6739
28.0458
28.2713
27.5389
27.6822
27.104
27.2629
27.8983
28.5451
28.7228
28.7667
29.1798
28.7543
28.9662
26.0259
26.9401
27.1155
26.8423
19.4979
19.5824
59.8731
30.6838
30.6097
30.561
30.8557
30.6786
30.9516
31.0957
31.2906
31.3658
31.4994
31.4724
31.4345
31.6995
31.9156
31.9545
173.131
162.441
163.605
124.816
113.703
135.881
145.051
157.857
33.7439
34.7612
34.803
35.2572
36.3477
32.8977
32.4216
32.4498
32.1581
31.9776
31.9144
31.765
31.6838
37.8512
40.986
58.6617
54.5669
45.7925
44.2773
48.8772
48.9275
48.248
48.9334
50.3967
54.3189
43.2505
73.5465
67.6936
93.9443
102.46
106.182
85.8121
82.5253
76.4081
63.3097
61.4279
30.2736
30.0382
29.4379
29.3447
29.6925
29.8193
29.562
28.142
28.3454
27.4298
27.5944
26.9451
27.134
27.301
27.9112
28.4496
28.6263
29.222
29.0805
28.6903
28.8774
26.0854
26.6331
26.9175
26.6639
22.3783
20.5997
46.0469
30.5444
30.4476
30.4157
30.7226
30.8378
30.5541
30.9592
31.1038
31.3018
31.372
31.2627
31.2645
31.5028
31.7519
31.7347
173.868
129.828
116.907
142.721
137.705
156.022
168.113
32.8561
33.8118
34.4645
33.7467
36.2601
34.6272
37.2623
32.6948
32.4386
31.9738
32.0552
31.8071
31.6694
31.6645
31.7452
31.5515
31.6369
31.525
41.0323
56.8897
47.9487
47.3806
48.914
48.2587
48.2306
49.5003
51.4496
59.7293
46.6504
70.0895
65.7028
95.1785
104.621
111.869
89.6183
82.6907
76.9797
63.1443
61.1172
30.3093
30.1471
29.9127
29.3789
29.5795
29.717
29.801
29.5115
29.4579
28.1601
28.2601
27.4445
27.6789
26.9095
27.021
27.2144
28.0527
27.8082
28.4184
28.4963
29.138
29.0072
28.7753
28.5865
28.8985
26.573
24.4203
26.5207
26.5616
26.807
26.6553
15.091
18.8687
22.2969
98.8557
30.433
30.4029
30.3445
30.6383
30.6902
30.4276
30.4655
30.7917
31.0145
31.1209
31.1685
31.0765
31.0847
31.4263
31.5449
31.5247
129.853
123.873
152.897
145.365
165.077
174.671
31.4474
31.9034
31.7674
32.6233
38.6617
35.5654
38.9497
31.7635
31.9433
31.6929
31.749
31.5745
31.5788
31.3012
31.3647
31.3379
44.8369
59.0807
49.4425
48.0597
48.7589
55.8678
63.805
46.4743
70.9345
68.4992
100.519
93.3909
109.769
113.858
86.5365
80.4094
73.915
62.2666
30.1809
30.1086
29.8931
29.2741
29.5372
29.6081
29.7182
29.3929
29.3725
28.296
27.3947
27.5934
26.8038
27.0683
27.2633
27.9819
27.7937
28.464
29.0314
29.1765
28.6891
28.539
28.8722
26.4317
25.2669
26.3697
26.2601
26.3741
26.6112
21.9892
16.7367
59.5697
30.2922
30.2567
30.2
30.509
30.6678
30.3159
30.3367
30.7224
30.8407
31.012
31.1192
31.0311
30.907
30.9159
31.2504
31.3452
139.017
126.467
164.056
148.051
171.64
31.1903
30.38
30.5704
33.9702
36.6971
39.4727
37.7261
31.583
30.4554
31.5607
31.3311
31.4125
31.2715
31.3757
31.2109
31.0424
31.2233
31.0462
31.1532
42.8568
64.9523
76.8623
65.5869
74.9547
100.767
96.2932
111.76
120.285
88.0877
82.4431
75.4069
63.6307
30.1123
29.9787
29.7708
29.2213
29.4186
29.6162
29.3468
29.2705
28.2204
27.4922
27.601
26.8188
27.0208
27.2997
28.0364
27.8829
27.6998
28.3942
28.9546
29.1036
28.6934
28.5875
28.4433
28.7916
26.1136
26.0752
26.3925
26.2356
26.142
26.1332
26.5228
26.7072
22.4401
29.1527
19.2587
107.561
30.1875
30.1574
30.4309
30.5086
30.1966
30.2502
30.555
30.7696
30.8642
30.9745
30.8189
30.7641
30.7594
31.1189
31.1648
140.046
133.731
172.664
160.215
31.4841
29.3259
34.8087
41.8452
33.1691
45.751
30.7198
29.6863
31.0849
31.2008
30.913
31.1843
31.0751
31.0299
30.9144
31.0149
30.9843
48.2902
67.1763
78.6615
105.115
96.9771
118.871
110.439
86.7977
92.6023
79.9978
29.9939
29.9006
29.6747
29.1227
29.366
29.5214
29.2509
29.2104
28.1312
28.297
27.4189
27.5192
26.921
27.1271
27.2256
27.9591
27.8767
27.7074
29.0036
28.6378
28.5318
28.3883
28.7794
25.8881
25.9681
26.3453
26.1594
25.9955
25.9172
26.5294
26.733
24.6291
21.8546
18.8739
68.5865
30.0455
30.027
30.2973
30.4474
30.0863
30.1088
30.5176
30.6284
30.7259
30.8078
30.8553
30.6176
30.614
30.6657
30.9208
30.9782
149.474
136.574
160.507
30.3613
33.5364
28.9534
41.8133
46.9903
78.7971
29.5548
30.7185
29.1621
30.7866
30.8571
30.6897
30.8929
30.8028
30.8447
30.7494
30.833
30.7834
101.908
124.002
116.311
90.4098
92.9924
80.9599
29.9582
29.8216
29.7053
29.5615
29.0593
29.443
29.2908
29.4986
29.175
29.1027
28.1478
28.2349
27.42
27.54
26.9498
27.0454
27.2455
27.9798
27.8043
27.6369
28.9365
28.5619
28.6816
28.435
28.2826
28.8473
25.7634
25.6789
25.7765
25.9849
26.422
26.221
26.0258
25.7544
26.6254
26.8525
24.9568
18.8581
36.2939
21.3446
116.164
29.9587
29.9539
30.1898
30.321
29.9906
30.0242
30.3644
30.6136
30.6985
30.7314
30.4756
30.4906
30.5076
30.8543
146.053
131.203
172.766
31.2666
36.8018
30.1022
29.0491
40.8213
28.5511
30.1917
28.5827
30.3294
30.7188
30.3904
30.7071
30.6695
30.715
30.7275
30.5868
30.6405
30.5963
104.177
123.51
114.101
85.8885
96.6743
97.4835
29.8578
29.6272
29.4597
28.9636
29.3865
29.3089
29.2046
29.4071
29.0798
28.0705
27.3474
27.4767
27.0713
27.1879
27.9096
27.8221
27.6604
28.4848
28.6432
28.4149
28.2255
28.7727
25.5032
25.4643
25.5631
25.768
26.383
26.1701
25.9623
25.8077
26.5905
26.8571
25.6339
24.6172
17.7843
27.6416
20.9297
69.6293
29.8341
29.8575
30.0839
30.2115
30.2679
29.8845
29.9384
30.3621
30.4907
30.5701
30.588
30.3395
30.4579
30.4319
30.3536
30.4282
30.6611
152.831
135.103
164.959
33.92
30.7018
30.7304
28.7508
30.1338
29.4258
30.0396
30.4257
30.2521
30.1133
30.4488
30.4449
30.572
30.4944
30.3793
30.4773
30.3726
108.483
129.432
119.411
119.023
96.5002
29.7566
29.555
29.669
29.362
29.4674
28.8858
29.2438
29.1224
29.3381
29.0215
28.0676
27.3804
27.5062
27.0573
27.2312
27.9308
27.7492
27.5969
28.4968
28.5713
28.6977
28.35
28.1482
28.2728
28.7928
25.3701
25.4599
25.3632
26.252
26.4646
26.0372
25.7481
26.6776
26.9817
26.7926
25.4282
25.0775
18.7818
20.5119
23.1088
63.9907
29.7862
29.7434
29.8266
30.0167
30.1132
30.1374
29.7989
29.8441
29.9326
30.2411
30.5061
30.523
30.2374
30.2951
30.2898
30.2472
30.3062
143.686
173.275
31.7793
28.0414
29.7262
29.6153
31.7611
29.6857
30.3002
29.9843
29.8269
30.3278
30.2954
30.4124
30.4164
30.265
30.3101
107.97
133.594
127.59
113.674
29.5285
29.579
29.2907
29.4152
28.8855
29.1761
29.2572
29.0559
29.1155
28.953
28.0035
27.3189
27.4616
27.1516
27.9094
27.7578
27.6077
28.4223
28.5628
28.6346
28.3537
28.1433
28.2146
28.7589
25.2013
25.6266
25.3601
25.2129
26.2252
26.4472
25.9743
25.8429
26.6573
27.001
26.8461
25.223
25.1347
25.0549
25.183
19.2705
16.5939
21.8026
27.6029
29.6992
29.6277
29.7283
30.0287
30.0533
29.6801
29.7786
29.8708
30.1194
30.2136
30.3742
30.3452
30.1343
30.2584
30.2277
30.1443
143.64
173.294
28.5105
27.7694
29.701
31.8346
28.5832
32.7759
29.5917
29.4797
30.0571
29.7726
29.8872
30.1092
30.101
30.291
30.2857
30.0866
30.2377
30.1613
126.862
134.624
129.474
125.73
29.4493
29.5546
29.3225
29.2223
28.8109
29.1196
29.2066
28.9905
29.0484
28.9389
27.9555
27.3639
27.4977
27.1719
27.8462
27.695
27.5682
28.4051
28.5165
28.633
28.2938
28.0976
28.2289
28.7
25.2114
25.1103
25.6065
25.3958
26.1624
26.3457
26.5501
26.0458
25.819
26.7453
26.947
27.0976
26.8327
24.86
24.9315
25.028
24.817
17.3251
23.0946
29.6046
29.672
29.6437
29.9133
29.9366
29.6409
29.7975
29.6976
30.0128
30.1045
30.2829
30.0017
30.134
30.1039
30.0117
152.363
164.404
28.229
26.9691
29.0385
32.6286
28.7179
29.3622
29.1013
29.9669
29.5219
29.654
30.0058
29.9587
30.1565
30.1228
29.9487
30.0401
30.0484
30.0557
30.0179
144.854
140.733
29.3993
29.4457
29.2781
29.1479
28.8213
29.1357
29.0477
28.9881
28.8851
28.0152
27.3539
27.4302
27.2792
27.849
27.7063
27.6236
28.3515
28.4574
28.5427
28.5937
28.2931
28.1159
28.1737
28.6851
25.2039
24.9997
25.5099
25.7066
25.3107
26.2066
26.3158
26.5596
26.019
25.9135
26.7575
26.9784
27.1219
26.9045
24.7122
24.8837
25.0218
24.7012
24.558
29.5533
29.5979
29.5576
29.854
29.8638
29.5441
29.7072
29.6588
29.9069
30.0046
30.1383
30.0028
29.9309
30.0689
29.9879
171.857
27.2452
27.4758
28.8899
31.3957
29.3371
29.1112
28.8472
28.9443
29.7643
29.4682
29.5953
29.8296
29.799
30.0606
29.7829
29.8741
30.0101
29.8778
29.8904
150.563
29.3269
29.4045
29.219
29.1064
29.1152
28.7799
29.0072
28.9259
28.8451
28.0123
27.4565
27.2866
27.929
27.7784
27.624
28.3524
28.4474
28.4973
28.6218
28.2512
28.0726
28.1806
28.7268
25.0907
24.9903
25.508
25.7252
25.3719
26.2083
26.3859
26.6769
26.491
26.1199
25.9328
26.8656
27.0587
27.2157
26.946
24.6972
24.8155
24.4459
24.4552
29.4807
29.5195
29.5018
29.4969
29.7734
29.7849
29.5288
29.6367
29.5931
29.8166
29.8918
29.8952
29.8179
29.9398
29.8798
162.282
27.1886
27.2165
28.3047
31.5632
29.1063
28.9749
28.5559
28.679
29.7016
29.2507
29.3989
29.7319
29.7128
29.9165
29.7532
29.82
29.8656
29.8095
29.8137
29.763
29.2506
29.3418
29.1629
29.2014
29.0417
29.0432
28.7901
28.9512
28.914
28.8679
27.9792
27.5653
27.4506
27.3778
27.9196
27.8054
27.7105
28.3017
28.4049
28.5145
28.6115
28.2522
28.0402
28.1642
28.6963
25.039
24.8732
25.6118
25.8405
25.351
26.3096
26.7069
26.5325
26.046
26.8954
27.1056
27.2434
27.0536
24.6365
24.4971
24.2711
24.3616
24.5348
24.368
29.4316
29.449
29.4268
29.4261
29.6793
29.6944
29.467
29.5212
29.51
29.7141
29.7578
29.8362
29.798
29.7949
29.7089
29.8416
29.7417
26.4028
29.3804
26.2819
28.2119
32.6851
29.0728
28.7792
28.2817
28.4676
28.5087
29.5563
29.2262
29.3866
29.5776
29.5559
29.5902
29.6634
29.745
29.6677
29.664
29.6515
29.2642
29.3613
29.1154
29.1333
29.0095
29.0244
28.755
28.909
28.8534
28.8297
27.9932
27.5975
27.5384
27.3972
27.8815
27.9582
27.7716
27.7154
28.2995
28.438
28.5764
28.4987
28.6564
28.2186
28.0795
28.1389
28.714
25.1254
24.9172
24.8372
25.6011
25.8443
25.4777
25.2512
26.3748
26.6446
26.8153
26.5082
26.0554
27.0244
27.202
27.3398
27.1201
24.7106
24.1494
24.1329
24.4811
24.3612
29.3809
29.3645
29.3687
29.6347
29.4523
29.3961
29.4808
29.6362
29.6662
29.7307
29.7103
29.6872
29.5967
29.717
29.6795
26.71
29.7393
25.9981
27.8222
31.3796
28.8641
28.5761
28.7102
28.0344
28.2591
28.2775
29.4991
29.0331
29.2889
29.4846
29.4863
29.5482
29.5822
29.6071
29.5909
29.553
29.2132
29.31
29.063
29.1085
28.9382
28.9821
28.7756
28.849
27.6687
27.5418
27.4821
27.8889
27.9913
27.8017
27.7618
28.2496
28.3597
28.4623
28.5666
28.5299
28.6398
28.2183
28.0526
28.172
28.6674
25.0414
24.9328
25.7184
25.8343
25.9751
25.4918
25.2785
26.3595
26.6945
26.8677
26.5965
26.2017
27.0404
27.1094
27.2518
27.3315
27.2298
24.7182
24.1773
24.0284
24.5298
24.3502
29.318
29.2917
29.2984
29.5484
29.3722
29.3328
29.4018
29.5468
29.6154
29.5788
29.6071
29.6407
29.5901
29.4903
29.6043
29.5856
26.0552
27.9375
25.3634
27.7525
31.6461
28.8482
28.3809
28.5176
28.027
27.8156
28.1236
29.356
28.9963
29.1421
29.3584
29.3524
29.421
29.4599
29.5159
29.4515
29.4422
29.159
29.2438
29.0122
29.0682
28.9288
28.9587
28.7368
28.8221
27.6606
27.6021
27.4927
27.8515
27.9455
27.7667
28.2936
28.4084
28.5197
28.4484
28.5965
28.0853
28.1543
28.6558
25.0684
24.8447
25.7346
25.9637
26.0514
25.3969
25.6268
25.187
26.3152
26.5078
26.8012
26.9836
26.6172
26.165
27.139
27.2014
27.3986
27.2933
24.6357
24.2943
24.1219
23.9469
24.4552
29.2602
29.2416
29.2495
29.4933
29.3185
29.3376
29.2691
29.3746
29.485
29.5348
29.5109
29.5484
29.5251
29.505
29.4793
29.4038
29.5048
26.019
28.0645
24.9917
27.5415
29.6193
28.6885
28.3589
28.1889
28.4286
27.8262
27.5686
27.8804
29.2888
28.8451
29.069
29.2283
29.2806
29.2211
29.3218
29.3185
29.3896
29.3486
29.418
29.381
29.3807
29.115
29.1912
29.0232
28.9668
29.0754
28.9022
28.9209
28.6922
28.7522
28.7958
28.8635
27.7109
27.6213
27.4785
27.5748
27.8664
27.9711
27.7696
27.8366
28.3131
28.4091
28.5049
28.4713
28.5821
28.1093
28.2154
28.6218
24.9827
24.868
25.8745
25.9911
25.4562
25.6533
25.2319
26.4402
26.548
26.883
27.0375
26.7565
26.2662
27.2079
27.1266
27.2895
27.3868
24.6742
24.3615
24.1895
24.0115
24.4932
29.2004
29.1792
29.1837
29.4139
29.2513
29.272
29.2103
29.2964
29.4867
29.4315
29.4189
29.4434
29.4581
29.4175
29.3889
29.3103
29.3872
26.7562
25.1565
26.6857
24.3163
27.3478
27.4226
31.1106
28.6967
28.5428
28.1891
28.0235
28.298
27.5838
27.7578
29.1558
28.8094
28.9173
29.1243
29.1382
29.1079
29.2067
29.1945
29.2735
29.257
29.3243
29.2419
29.2899
29.1125
29.1434
28.9961
28.9472
29.0444
28.908
28.6976
28.7411
28.8087
28.8404
27.7582
27.7026
27.5611
27.6269
27.9264
28.0506
27.8402
27.8855
28.3834
28.2879
28.4342
28.5265
28.465
28.5642
28.1929
28.0975
28.6454
25.0168
24.7888
25.9084
26.1401
25.5835
25.3684
25.8071
25.1405
26.4164
26.6977
27.0074
26.8587
26.787
26.2594
27.3107
27.1963
27.3775
27.4567
24.6133
24.3071
24.467
24.1436
29.1568
29.1416
29.3531
29.2234
29.2021
29.1594
29.2864
29.404
29.3828
29.3634
29.3862
29.3657
29.3532
29.3327
29.3038
29.2442
29.3202
26.375
25.4524
25.772
24.2116
27.092
27.1439
31.3816
28.5845
28.4116
28.1559
28.0281
27.8622
28.3003
27.4027
27.6006
28.642
28.8861
29.0065
29.1166
28.9964
29.1141
29.1922
29.1528
29.2503
29.209
29.0617
29.0902
29.0105
28.9621
28.9243
29.0376
28.8905
28.715
28.7644
28.7928
28.8557
27.8665
27.7566
27.5558
27.725
27.9978
28.1159
27.9115
27.9624
28.403
28.3266
28.4651
28.5632
28.5157
28.609
28.2327
28.1822
28.6434
28.6966
24.9358
24.8239
26.0604
26.1677
25.6532
25.4262
25.7964
25.1603
26.5332
26.6964
27.0676
26.9403
26.8834
26.3765
27.3957
27.3009
27.1701
27.4685
24.6504
24.3768
24.554
24.0462
24.2137
29.1033
29.0905
29.1622
29.1367
29.1123
29.2382
29.3232
29.3103
29.2926
29.2889
29.2951
29.2636
29.2093
29.1569
29.2268
26.3538
24.9181
27.7722
24.0957
26.8198
27.0383
32.0078
28.4375
28.0652
27.9085
27.7028
28.149
27.4497
27.2039
27.5751
28.5571
28.7665
29.0055
28.8759
28.9944
29.076
29.0615
29.1469
29.1128
29.0532
29.0716
28.9887
28.9486
28.9186
28.9973
28.899
28.7575
28.8127
28.847
27.9326
27.8807
27.6595
27.845
28.096
28.1905
28.0109
28.0211
28.3847
28.4532
28.3086
28.5141
28.5683
28.6128
28.5583
28.2393
28.6827
28.7129
24.9719
24.7456
26.0948
26.2894
25.6789
25.4044
25.5996
25.9034
25.2992
25.0852
26.49
26.6608
26.8126
27.0349
26.9518
26.3799
27.505
27.4324
27.2834
27.5856
24.5067
24.3351
24.5731
24.214
29.0735
29.1173
29.1422
29.1052
29.0852
29.2547
29.1827
29.2615
29.202
29.2547
29.2417
29.1934
29.1853
29.132
29.1308
29.1367
29.1564
26.1909
26.5993
24.9677
27.8913
23.4761
26.6277
26.8224
30.0408
28.3013
27.9394
27.7284
28.0789
27.2717
27.1439
27.4405
28.4474
28.6529
28.7569
28.9351
28.8871
28.9186
28.9865
28.9554
29.0735
29.0157
29.0159
29.0258
28.9658
28.9547
28.9382
28.9242
28.9714
28.9041
28.7679
28.8073
28.8695
28.0789
27.9571
27.6852
27.8029
27.8753
28.1649
28.2643
28.0909
28.1302
28.4305
28.5166
28.3502
28.5771
28.6384
28.6547
28.6168
28.3054
28.6963
28.7547
24.9001
24.7841
26.031
26.2388
26.3259
25.8283
25.5554
25.6588
25.2919
25.1625
26.5607
26.7471
26.8565
26.927
27.1503
27.1131
26.4709
27.6068
27.6097
27.4439
27.5998
27.2947
24.5763
24.4093
24.7034
24.3185
29.031
29.0773
29.0854
29.0504
29.0552
29.2024
29.1438
29.1962
29.1083
29.1934
29.1743
29.0656
29.0615
29.0278
29.0612
26.2579
25.6179
26.4278
24.0042
25.6077
26.4508
26.8134
29.9031
28.168
28.2644
27.7854
27.6673
27.9381
27.2812
26.9891
27.34
28.3456
28.4549
28.5538
28.6543
28.8331
28.7785
28.802
28.8801
28.8698
28.9819
28.9398
28.9896
28.9463
28.9467
28.9401
28.9232
28.9538
28.9035
28.7772
28.8513
28.893
28.1486
28.1432
28.0701
27.855
27.9428
28.1155
28.261
28.3376
28.3008
28.1824
28.5042
28.4584
28.5839
28.415
28.6359
28.6631
28.6732
28.7578
28.7953
25.0003
26.117
26.2352
26.465
25.8891
25.5407
25.7981
25.4106
25.1393
26.6985
26.7915
27.021
27.1088
27.305
26.5581
27.7934
27.7817
27.6977
27.8237
27.5069