/*--------------------------------*- C++ -*----------------------------------*\
| =========                 |                                                 |
| \\      /  F ield         | OpenFOAM: The Open Source CFD Toolbox           |
|  \\    /   O peration     | Version:  v2012                                 |
|   \\  /    A nd           | Website:  www.openfoam.com                      |
|    \\/     M anipulation  |                                                 |
\*---------------------------------------------------------------------------*/
FoamFile
{
    version     2.0;
    format      ascii;
    class       volScalarField;
    location    "1.7";
    object      p;
}
// * * * * * * * * * * * * * * * * * * * * * * * * * * * * * * * * * * * * * //

dimensions      [1 -1 -2 0 0 0 0];


internalField   nonuniform List<scalar> 
13611
(
91406
91369.6
91568.6
91609.1
91258.8
91437.7
91665.2
91811.2
90557.8
91453.9
91505.1
91808.6
91618.9
92108
90752.2
91422.5
91747.3
91451.4
92043.5
91737.1
92309.3
92207.1
90822.8
91347.8
91550.7
91876.4
91478.6
92192.1
91959.4
92231
92659.1
92486.2
90756.3
91285.4
91368.9
92149.9
91769.5
91430.5
92472.3
91827.9
92461.3
92856.8
92779.4
92699.5
90988.2
91203.6
91018.6
91539.1
92348
91940.2
91521.3
92669.2
92060.1
92801.2
92377
93195.4
93121.4
92980.2
90864.3
90704.1
90973.7
91417.5
92267.9
92622.2
91836.3
91407.9
92962.2
91929.6
93072.7
92602.1
93446.3
93242.2
90803.6
90621.4
91300
91154.6
91598.9
92367.8
92831.5
92118.2
91624.1
93206.7
92151.7
92971.4
93399.6
92480.4
93709.8
93555.9
90647.8
90440.3
90245
90972.8
91395.9
92622.2
93136.5
92831.4
92247
92001.4
91487.9
93538.6
92099
93205.2
93701.5
92694.5
93998.3
93932.9
93909
90745
90534.2
90359.1
90068.2
91062.9
91536.6
92809.3
93336.5
93156.4
92640.6
92136.9
91666.7
93798.8
91856
92481.4
93031.4
93566
93781.9
94016.6
94206.8
94266.5
90495.5
90381.9
90430.1
89838.6
90793.3
91363.6
93165.2
93673.3
92759.6
91968.5
92488.3
91541.7
94167
91855.4
92503.4
93345
93710.4
94186.3
94317.2
94510.7
94658.8
90481.8
90314.6
90303.6
89628.6
90770.9
91030.3
91569
93462
93889.4
93131.8
92170.7
92670.6
91550
94460.2
92131.8
92851.6
93286.8
94112.3
94391.1
94648.7
94759.1
94739.8
94980
90226.5
89921.5
89875.7
90038.2
88189.3
90425.1
90887.5
91571.1
93448.2
93812.3
94307.3
93063.5
92036.6
92493.5
91375.8
94867.2
91969.7
92874.6
93649.5
94340.3
94767.8
94995.1
95210.8
95171.2
95395.2
89868.1
89836.2
89445.9
89392.9
87844.3
90228.7
90461.5
91227.9
93843.1
94152.3
94470.1
93247.4
92249.1
92607.5
91190.5
95167.7
92090.3
93394.2
92538.6
94132.3
94847.6
95002.5
95048.2
95356.2
95517.6
95735.4
89668.7
89394.5
89376.1
90102.7
89088.9
90848.4
89846
90213.2
91293.1
94198.1
93917
94842
93636.9
92974.1
92290.6
91016.1
91855.2
95153.4
95620.3
91773.4
93585.7
92486.4
94468.3
95185
95417.8
95441.6
95748.5
95924.5
96162.9
89274.9
89046.1
89145.2
90209.1
88532.6
90210.5
89513.4
90415.9
89639.2
90913.6
94606.5
94358.4
94931.5
93861.4
93198.8
92584.4
91517.7
91978
95543
95834.9
91990.2
93316.6
94042.1
92853.5
95008.2
94376.4
95692.3
95761.6
95791.9
96126.3
96230.8
96169.1
96552.1
89089.8
88532.6
88525.4
88899.5
88375
90719.5
89980.2
89351.2
91194.4
94692
94321
95340.2
93675.6
93034.9
92380.2
91539.4
95640.3
96191.6
91773.2
93787
94167.7
92616.7
95220.8
94821.7
96135.7
96178.4
96185.9
96611.7
96621.5
96614.8
96992.5
96536.3
88677.6
88208.4
88116.9
88475.6
88089.7
89471.1
89544.6
89952.4
88778.3
90918.1
95135.5
94629.4
95459.1
93961.3
93347.3
92585.4
92263.4
91236.4
96057.2
96319.1
92066.8
93774.6
94688.7
92832.5
95728.5
96599.9
96173.9
96583.5
96616
96974.1
97004.9
96937.3
97387.5
96928.5
88302.4
88505.3
87619
87591.1
88209.6
87415.7
89319
89162.6
89357.7
90322.8
88689.6
91398.9
95285.6
95067.9
94446
95911.3
93787.2
93305.6
92986.3
92316.3
91535.3
96208.6
96766.8
91904.6
94264.5
93282.5
94976
92376.8
95900.8
97049.2
96810.7
96972
97002.7
97424.8
97390.3
97343.8
97850.9
97336.3
87810.1
87880.7
87248.1
87399.4
87882.4
86847.1
90310.5
88796.5
89023.8
90072.8
88166.6
91242.7
95761.5
95421.4
94714.8
96062.1
94016.8
93734
93215.9
92666.1
91997.1
91468.5
96665.2
96960.7
94040.1
94760
93448.5
95544.4
92412.2
96463.8
97483.2
97182.2
96900.6
97436.2
97450.2
97640
97643.7
97852.2
98219.6
97747.3
87406.9
86442
86798.2
86806.2
86053.3
88379.7
88201.1
88348.3
89352.2
90576.9
87533.2
91865.1
95849.7
95256.5
94465.6
96554
93722.4
93058.6
92604.3
92210.5
91709.2
96855.9
97411.5
94433.4
95308
93040
95785.9
96680.7
97918.4
97768.4
97431.7
97742.2
98172.9
98073.9
98227
98169.8
98687.7
97767.2
86745.9
85955.7
86296.4
86140
85395
87956.1
86438.5
87844.7
88925.3
90436.4
86846.7
91839.6
96313.5
95472
94718.3
96713
94068.6
93256.9
92895.2
92133.1
91483.6
97358.5
97611.7
94080.4
95218.4
93236.9
96352.8
97269.3
98367.3
98149.4
97989.5
98220.3
98456.8
98377
98713.8
98621.6
98943.8
98920.5
98233.1
86058.2
84996.4
85482
85250.9
84524
86820.3
85869.2
87045.6
88108.8
89162.9
89789.6
91151.7
86109.5
92634.6
96468.7
95185.4
95907.6
94542.4
97258
94005.1
93614.1
92898.8
92478.9
91711.4
97598
98121.8
94430.2
95800.9
96676.4
97609.7
98878.6
98514.5
98828.9
98484.5
98997.2
98873.6
99061.2
98660.6
99399.8
99443.9
85384
84730
84473.9
83662.5
84394.3
85227.6
86490.5
87665.5
88578.3
89758.4
90973.9
85376.6
92726.1
97002.4
96273.3
95452
95874
94871.5
97386.7
94419.9
93615.6
93239.3
92496.2
91455.2
92182.7
98126.7
98393
94098.1
95171.4
95761
96488.3
97350.2
98270.6
99315.6
99075.5
99293.4
99121.5
99312.7
99205.4
99560.4
99127.3
99666.6
99663.5
99740.3
84573.5
83754
83330.6
84620.7
82763.5
85274.9
79266.3
84560.7
85747.3
86925.5
87964.7
88984.3
90222.1
91325
85310.4
84579.9
92011.1
93449.3
97076.6
96682.6
95315.5
96228.4
94811.2
97884.8
94379.4
93962.9
93295.6
92964.8
91669.3
92423
98462.5
98861.7
94761.9
95356.6
96464.4
97155.9
97661.5
98708.8
99898.2
99959.9
99595.7
99899.7
99743.6
99905.9
99563.1
99180.3
100171
100171
100207
83754.4
82842
82392.6
83233.6
81657.2
85160.5
81459.9
83243.4
85202.1
86717
87375
88877.9
90110.4
90731.9
84462.3
83820.3
92197.1
93552.8
97465.8
96661.2
95581.9
96069.2
95266.2
98360.8
97884.3
94804.8
93781.9
92917.3
91448.3
92231.5
99008.9
99139.2
94454.5
95907.7
97160.9
96463.3
98379
99412.1
100227
100214
100447
100268
100110
100430
100045
99636.5
100409
100405
100383
100542
82946.9
81839
82408.5
81509.1
80769.5
84594.2
82084.3
82385
85426.3
84486.6
86080.4
87213.6
88284.8
89533.2
90781.2
83863.1
83038.1
91508
92957.6
97473.1
97068.6
96353.6
95298.8
98858.8
98276.1
94824.1
93991.6
93237.7
91564.2
92544.8
99405
99599.3
94778.3
96410.6
97780.7
96908.5
98737.4
99904.5
100927
100848
101068
100767
100674
100821
100059
100948
100897
100831
101044
81997
80840.7
81356.6
80335
79736
82019.6
83967.1
81834.3
84678.2
83870.3
86385.3
87618.8
88703.2
89421.7
90025.2
83127.9
82344.6
91548.4
93116.7
97860.9
97209.9
96927.7
96186.6
95737.9
98762.8
99351.8
98241.4
95269.6
94479.2
93738.2
93060.4
91350.2
92018.8
92433.4
99896.2
99957.4
95696.1
94011.7
96481.7
98436.1
97580.1
99462.5
100587
99914.6
101143
101207
101209
101615
101473
101345
100480
101193
101105
101131
101446
81363.9
79900.3
81189.4
80383.2
79362.6
78962.1
84430.2
80496.2
81601.7
84690.2
83899.3
83174
86048.4
87168
88254.4
90018
82424.5
81609.2
90832.3
92397.2
97750.5
97067.4
96606.5
95684.3
99078.3
99849.8
98706.2
95187.7
94715.7
94048.1
93410.3
91674.8
92071.4
92795.6
100284
100414
96037.6
94339
97314.1
99080.1
98169
99680.3
101046
100687
101664
101795
101773
102169
101924
101719
100982
101726
101544
101598
102027
80373.5
79770.1
79030.5
79722.5
79299
78421.5
77950.6
82663.3
79683.7
80662.9
83894.1
85278.8
83159.1
82550.9
86506.1
87497.1
88577.3
89392.5
81690.7
80941.6
90844.2
92322.7
98141.8
97498.7
96572.5
96104.1
99541.1
100291
99909.6
98726.6
95510.2
94539.4
93893
93258.5
92524
100752
100816
96991
95379
93700
97529.5
98050.6
99014.3
100298
101672
100855
102150
102316
102196
102818
102606
102243
101290
101859
102159
101740
101951
102457
80233.1
78697.1
78175.1
78789.4
78016.3
77645.2
77678.7
77436.1
81524.9
79190.9
80873.6
83181.7
83871.4
85143.4
82529.6
81806.9
86281.1
86916.1
88231.2
89549.4
80974.1
90182.6
91490.3
92837.3
98029.8
97517.7
97053.5
96008.8
99861.7
100811
100433
99197.5
95349.7
94851.7
94212.4
93658.2
92771.4
101080
101191
97406.7
95839.8
93857.7
98423.7
98744.5
99731.9
100597
102256
101528
102436
102513
102863
102749
103045
103175
102873
101722
102309
102711
102205
102003
102345
103049
79432.6
77894.2
78560.7
77574.8
76885.5
76796.3
76667.9
76504.1
83509.9
79029.7
77178.6
82554.5
84461
83148.4
85688.7
81800.2
81296.2
86744.5
87566.4
88929.1
80294.6
90466.8
91276.5
92473.3
98403
98036.5
96947
96371.9
99740.5
100420
100912
99281.7
95660
94677
94123.9
93438.1
101563
101554
96859.7
98405.9
95476.1
93041
94600.1
98891.7
99557.8
100442
101376
102218
103134
103076
103432
103800
103770
103555
101843
102705
103169
102390
102768
103330
103411
79465.8
77004.8
77759.8
76682.6
75584.4
75895.8
75570.3
75698.4
76290.4
83625.6
77423
78144.5
82746.5
82591.2
81842
84398.1
83098.4
85549
81510.6
80550.9
86026.3
87009.3
87553.1
88840.7
80142.3
90134
91724
98939.9
98237.2
97313.9
96187.1
100211
100884
101411
99940.3
95412.5
94927.1
94569.8
102003
101722
97230.6
98905.1
96425.1
92754.3
94446.9
99859.6
100214
101127
101667
102875
103572
103923
104037
104274
104246
103842
102203
103185
103664
102759
102453
103207
103979
103969
78884.3
76557.7
77632.1
76808
75079.9
74697.6
75150.3
75055.1
74635.4
75446
80365
77759.4
76531.3
82950.4
86929.2
81893.7
81423.6
83697.5
84926.5
82392.1
80603.1
80165.7
85920.7
86445
86897.4
88093.2
89368.7
79340.3
90666.1
91448.9
99196.4
97910.3
98858.1
97078
96520.3
100801
101420
101991
100135
95734.5
102432
102146
98260.6
99977.6
96253.6
93003.6
91906.1
95168.1
93628.5
100441
101112
101437
102377
103554
102928
104145
104504
104765
104958
104938
104612
103666
104141
103053
102793
103653
104256
104405
78076.8
75538.1
76739.7
76204.7
74172.7
74444.5
73642
73975.1
74004.7
74576.8
73775.1
75981.6
76686.5
82783
82341.7
81770.4
80786.6
83722.9
84834.9
82247.2
80355.9
79401.7
85348.1
86411
86838.2
87971.3
89105
79050.4
90422.4
99738.1
98221.8
99138.1
97395.1
96322.6
101365
102021
102522
100716
102356
102964
98847.9
100600
97030.9
92268.7
91673.7
94608
93645.4
101521
101854
102354
104119
103812
104595
104469
105048
105045
105204
105346
104771
104153
104665
103488
102934
103760
104110
104832
104952
77744
74817.4
76384.8
75396.9
72845.2
72962.7
72416.2
73077.2
73058.4
73766.4
72849
77198.9
75673.3
81566.9
84044.1
81102.5
80388.1
84285
83272.1
81503.5
82658
79647
78928.4
85243.1
85704.6
86162.1
87338.2
88421.5
89654.6
78222
90980.3
100003
97950.5
98836.6
99745.8
97247.2
96723.2
101299
102081
103284
100584
102554
102973
103524
100114
98285.5
101689
96878.6
92201
94891
92902
102145
102698
102869
104186
105118
105089
105632
105886
105867
105997
105474
104654
105212
103699
102768
103374
104315
104534
105283
105463
76908.5
73978.7
74818.4
75434.7
75000.6
72006.8
72029.9
72523.3
71816.9
72032.2
71928.9
72968.3
71897.1
72609.5
77616.2
73938.6
79393.4
82407.3
81032.4
80519.6
79706.7
84193.1
83632.4
81328.7
82383.3
78987.5
78123
84629.9
85602.2
86169.8
87318.3
88010.7
89508.2
90806.1
98151.3
99097.8
100080
97706
101864
102812
103700
100871
102733
103376
104548
100914
98822
102368
97955.5
96005
91445.1
94080.9
92596.4
103205
103526
103744
105154
105613
105529
106247
106162
106240
106270
106432
105693
105150
105775
104189
102798
103356
104511
105054
105898
105957
76541.9
73325.7
73956
75132.6
74116.2
70845.8
70874.7
70895.5
70406.3
71055.6
71029.6
72311.2
71058.7
71575.9
75982
73153.6
80223.8
77096.6
86603
80298.8
79926.8
79137.3
83427.9
80733.7
81749.4
82779.4
78333.7
77502.1
84460.5
84950.5
86808.2
85684.2
88186.3
88856.6
90129.8
98698
99753.4
100608
101828
102592
104707
101411
102616
102229
105760
100715
102066
99768.5
103320
98118.6
96144.8
91573.3
93011.9
94234.1
103723
103788
104165
105540
106123
106068
106749
106948
107022
106981
107169
106600
105729
106362
104522
102976
103749
104991
105533
106410
106507
76813.9
75722.4
73290.9
72504
74396.7
73539
69639.3
69945.5
70124.3
70138
69270.2
70159.9
69999.9
71437.9
70074.3
74522.6
70900.1
80139.4
76603.7
82222
80176
79269.3
78435.8
83833.6
80550.4
81526.5
82568.3
77603.4
84675.1
86643.4
85034.7
85990.1
87550.3
88990.2
89798.1
101030
102371
102874
104584
101484
102458
101571
107187
101723
102857
100190
104133
99367.5
97201
95168.3
90985.5
92570.2
93314.2
104631
104842
105007
106463
106649
106555
107367
107150
107608
107656
107435
107581
106945
106274
106904
105039
104351
102710
103485
105464
106192
106980
107021
76193.5
75534.8
72573.7
71987.7
74197.6
73754.8
72599.1
68987
69676.1
68675.7
69919
68501.5
67939.5
69407.5
69294.5
69667.5
70726.8
69341.6
73565.7
69746.3
78739.1
74354.8
83603.1
79613.1
78663.2
77806
83637.4
79935.5
80908
81948.1
83000.7
76976.2
84009.4
86892.6
84757
85750.6
87779.4
88523.1
90102
102316
103382
105677
101867
99427
102698
109504
101440
102690
103999
104953
99125.7
97590.4
95071.6
91013.9
91685.5
93157.8
105205
105388
106884
107128
107086
107738
107892
108405
108420
108174
108270
107775
106865
107476
105577
104716
102723
104059
105912
106730
107507
107562
76203.9
74753.4
72199.2
71296.2
73429.9
73104.4
72105.1
67895.8
68320.5
67610
68063.3
67468.9
67035.4
68357.3
68319.8
68653.2
70772
69667.6
68395.7
71448.3
70106.9
67952.8
75341.6
73147.2
79816.4
79020.7
78630.8
77877.8
77046.5
79672.7
80652.4
81674.1
82970.5
83623
86303.8
85195.2
84180.9
87466.9
88513.5
89578.5
102583
102890
104513
102059
101436
97292.4
97923.4
111266
102432
103854
104683
105831
99721.3
96997.4
93956.7
95828.6
90106.7
91423.9
92149.7
106226
106406
107835
107616
107574
108325
108437
108149
108936
108634
109124
108566
108632
108231
107420
108021
105816
105472
102358
103630
106545
107362
108034
108047
75525
74677.1
71258.6
70892.8
72923.7
72396.5
71204.6
67060.4
67512.3
66203.9
67232.9
66306.7
65639.5
67738.1
68026.1
68135.2
70000.5
69283.5
67631.6
71472.8
68704.2
66846.4
76242.6
73524.4
77433.4
78628.6
77918.9
77258.2
76455.6
80029.8
78938.6
81006.1
81916.9
82518.9
83679.7
86284.6
84831.5
84193.4
86874.9
87922.2
88918.8
102395
102913
106171
102999
97714.5
98688
114826
102427
103911
105729
106340
106656
101183
98650.4
97433.2
93754.2
95555.1
89897.5
90554.5
92030
106855
108358
108075
108102
108540
109088
108901
109648
109340
109691
109307
109311
109081
108011
108592
106567
106067
103907
106948
107962
108568
108548
75645.3
73934.9
70777.7
70125.7
71958.6
73059
71804.8
70987.3
65876.7
66469
65783.5
65241.8
65770.1
65210.8
64964.6
66836.4
66943.1
67079.9
68528.3
66654.8
67394.9
70198.6
67112.4
68808.8
65226.8
72784.2
71806.7
74656.6
78021
77306.8
76569.8
79801.4
78754.5
80696.3
81574.3
82573.2
83081.6
85587.9
84945.4
83701.5
86829.9
87818
88434.6
102381
102374
102891
102755
103455
95327.3
93873.2
114493
104049
105008
106588
107873
107833
101519
98863.7
96495.3
94574.7
92837.2
89265.3
90110.5
91217.9
107878
109281
108581
109116
109581
109442
110424
109551
109801
110680
109648
109583
109363
108564
109146
106760
106031
104964
107568
108004
108578
108994
108991
75134.4
73867.1
69818.9
69443.1
71413.4
72353.6
70334.1
65636.1
65990.3
64476.9
63973.5
64928
64934
64047.1
63889
66158.8
66383.2
68626.6
67801.2
65682.6
66281.9
69834.7
65873
67793.7
64057.3
71624.1
69987.9
71832.6
77484.8
76702.4
75982.5
79237.8
80128.9
78222.1
80996.8
81998.7
83105.3
85720.4
84338.9
83713.3
86329.8
87317.5
88346.6
106975
105561
104146
89703.6
104729
101400
113571
104433
105154
106184
107743
108787
108482
108659
103130
100140
97629.8
96456.3
94305.2
92527.5
88692.3
89023.3
90397.2
89238.5
91532.6
109264
109175
110264
110509
110908
110367
110726
111204
110378
110262
110662
109209
109641
107376
107418
105021
107988
108618
109111
109513
109485
75347
74369.1
73127.2
69223.4
70584.6
71622.6
72432.7
70167.1
69560.5
64438.2
64706.1
63706.1
62998.8
63400.1
63485.1
62816.5
63632
62978.6
65151.5
65432.7
67886.5
67143.7
65488.7
64943.7
66279.3
69265.2
69429.6
64256.2
66290.1
67999.8
62755
65730.4
68190.8
63347.9
69527.4
76751.2
77328.2
76043.4
79232.4
79780.7
77618.5
78285.3
80606
81948.5
82572.7
85254.4
84290.1
83123
86530.8
87145.6
87561.8
106160
105000
93905.5
105241
100677
107667
106128
106714
107349
108616
109444
109554
109380
103574
99777.4
97953.4
95248.6
93159.4
88513.6
89734.8
88653.3
91102.1
111127
109654
110932
111228
110822
110638
110572
112060
109666
110292
107707
107869
107519
105774
108632
109159
109629
109848
74773.6
74188.8
72961.8
68331.7
70277.3
70958.6
71768.9
69356.6
68948.1
64293.2
62556.8
61817.2
62453.8
62400.8
62090.2
62651.4
61832
64794.8
67115
67787.4
64557.8
63985.5
65635.4
69151.9
69046.9
63109
65552.9
66741.5
61476.1
69003.7
55267.5
71123.3
76153.8
76479.9
75436.2
78783.7
79925.2
77307.8
77762.1
80743.2
81392.8
82538.9
85527.2
84683.4
83688.8
83149.1
86167
87440.6
107711
105615
94356.1
106320
96844.2
107233
106893
108507
110075
109483
109254
110039
102409
105654
100611
96989.4
94841.3
92801.9
88006.8
88830.8
89698
87940.9
90218.5
91134.6
111094
110282
110249
110641
110534
108147
108241
108667
106070
109161
109729
110259
110394
74780.1
73507.2
72129.5
67863.8
69462.3
71000
68915.1
68144.7
63325.7
61707.6
60772.4
61123.4
61145.4
60869.7
62127.8
61780.2
60794.2
63608.8
66232
66896.1
64298.8
63787.9
63185.6
64798.3
68272.9
69660.6
61807.7
63292.7
64340.6
66575.5
61108.1
60336.3
67848.8
52731.7
57669.1
76710.7
75488.8
76209.1
78821
79429.9
76698.6
77681.7
80260.7
81448
82010
85181
84317.1
83777.3
82660.1
86330.1
86864.2
110642
106781
102245
106699
108707
108746
109137
111038
111750
111317
102789
106048
100030
95502.5
97030.8
93533.4
91719.5
88441.4
88953.5
87258
90317.3
112441
110661
110637
108744
108671
107481
109236
109735
109144
110235
74226.6
73500.6
71715.4
67002.9
69159.9
70408.1
68082.4
67689.8
62352.5
63015.8
60668.5
59710
60533.1
60067.9
59976.2
60895.1
60696.4
59725.7
66108
63176.9
62845.1
62110.6
64195.5
68196
70377.5
60705.6
62067
63885.6
64839.5
59658
59025
75386.5
37189.6
40076.8
68652.8
74848.9
75485.4
78281.8
79588.8
76478.6
77041.2
80436.7
80987.1
81844.7
84566.4
85333.9
83328.6
82756.2
82069.9
85839.9
86732.4
110864
104632
110234
109043
109506
109338
110916
111344
111438
104568
101570
107405
98305.8
94775.6
95469.2
93025.2
91348.3
87778.9
88544.2
86976.3
89927.5
108882
106919
110347
110193
109643
110639
74166.2
72985.4
72214
70801.2
66295
69675.3
68274.3
70345.4
67504.5
66725.9
61355.1
61832.3
59725.3
58675.2
59006.7
58814.2
58734.1
60049.9
59697.6
58677.3
65252.4
62509.8
63156.9
61966
61319.5
64344.8
69715.4
65494.8
71827.2
71809.2
59402.7
60816.6
62390.5
64147
58565.9
58164.5
87127.2
15180.5
53034.5
59253.1
66622.5
74813.1
75379.6
78191
79196.6
75902
77070
79988.5
81208.2
84417
84941
83280.7
82346.1
81703
86120.6
106173
105059
109274
111778
112000
112565
108712
113045
105477
101385
106949
98032.9
93573.6
94739.7
91886.1
90401.3
87792.7
87169.9
88588.2
86152.3
89151.8
109188
110930
109469
110644
109971
109665
73488.5
71927.1
70422.1
65398.9
69194.5
68425.6
67534.2
69566.3
66547.9
60300.5
58684.1
57613.2
57820.5
57790.4
58821.1
58602.8
57641.1
61512.1
62436.1
61076
60258.9
63467.5
67526.4
64979.9
73116
72623.9
58287
59543.7
61468.4
62195.7
57260.7
56837
75477
98442.2
3945.92
54511.9
27003.2
76627.4
74120.5
74772.2
77660.8
78616.4
79427.1
75579.5
76692.4
80259.3
80913.2
84002.6
84778.2
82728.4
83561
81866.5
82355
81156.2
85782.8
106330
106915
107161
113588
115449
112443
103856
99800.1
107926
96340.3
92891.5
93303.6
95031.3
91347.4
89939.4
87348.1
86539.3
87835.4
85964.8
88675.5
109372
111418
109441
110399
110117
73129.2
71319.7
72364.3
69523.1
70656.5
64672.4
67960.5
66740.4
69173.5
65872.5
59308
57611.6
56576.4
56593
56560.6
58133.9
57603.7
56631.6
60851.2
61335.3
62578
60078.8
59365.4
59751.2
63671
68207
63038.3
72461
58256.2
57151.3
59835.5
60979.7
56145.1
56167.7
56010.6
72257.5
127286
2306.26
24444.6
15552.4
90379.4
74204.9
73383.9
74861.7
77596.2
78440.3
78953.1
75636.9
76145.4
77108.4
79987.1
84204.6
85102.6
82717.6
83174.1
81557.2
81877.2
80881.8
106642
107462
112477
103609
99728
108079
110225
95695
91765
92453
93832.4
90349.2
88992
87304.7
86649.2
87915.2
85371.6
110153
111026
109614
110293
71337.8
71943.3
68968.5
70245.8
64529.2
67209.2
68363.7
65985
66677.1
64985.2
58349.9
56469.7
55601.9
55804.8
56987.8
56522.5
55653.7
59675.4
60864
61738.6
59309.4
58308
58608.9
62926.6
65944
61289.3
62517
72812
57117.1
55881.3
58697.5
59179.5
54917.3
54867.1
54823.9
77171.6
73869.1
137560
92240.3
2300.04
50485.4
2318.65
101216
73713.7
72797.8
74328.5
77968
78899.9
75050
76092.3
77042.3
79401.9
80365.5
83892
84694.4
82309.6
83318.2
81127.1
81835.7
108720
108319
101454
104995
98080.7
111219
106857
111489
94016.7
96246.6
91100.5
92642.1
91358.1
89815
88579.9
86770.4
86335.5
87356
84796.2
85097.4
110601
110107
110250
110702
70779.1
72049
69431.6
68214.4
63512.7
66840.7
67980.1
65156.6
65833.2
64530.6
57369.6
55469.7
54509
54657.2
56213.2
55588.1
54551.5
58866.9
60012.9
61526.8
58219.9
57379.1
57870.8
62039.4
63535.7
68009.8
59476.9
60591.9
56673.2
55895.5
54746.7
57172.5
57810
53788.6
54329.8
54148.5
53810.1
74469.1
73239.8
141765
97075.7
5537.14
49303
73001.9
73743.2
74423.5
77637.9
78364.9
75130.1
76603.3
75628.4
79275.5
80268.6
84059.8
82172.8
82995.9
80768
81379.2
108704
108787
100925
104340
98785.6
112067
108085
92878.7
94942.2
90145.3
91612.3
90506.2
88985.6
87877.8
86462.4
85802.5
87354.7
86643.6
84252.4
85269.3
84415.7
109651
110456
70629.4
71379.5
69240.4
67631.8
63212.8
67196.3
66021
65052
63766
56967.1
54215.5
53619.7
53811.5
55068.9
54376.4
53668.1
57673.1
59107.2
59776.7
60431.1
57438.1
56392.2
56643.1
61435.6
61280.4
67163.6
59289.2
57851.6
59720.7
55296.3
54943.8
53543.8
56111
56390
52587.1
53112.7
52957.7
52729.9
71822.5
70398.7
148457
123262
75323.2
72634.4
73204.9
73990.2
77757.4
78316.3
74626.4
76372.3
75739.8
78733.4
79772.5
83642
82460.8
81612.7
83123.5
80864
109661
102049
106150
97527.6
110723
91651.2
92446.3
95578.2
93113.4
89484.8
90570.2
89599.1
88484.6
87507.7
85861.1
86766.8
86101.4
83725.5
84784
84115.8
109984
69960.5
71407.8
68597.1
66870.6
67422.6
62291.6
65554.2
64294.9
63236.1
55896
52619.8
52518.3
54707.9
54102.2
52564.9
56673.4
58255.1
58833.2
60418.4
56485.3
55588.6
56038.2
61520.2
61236.6
64069.1
57663.4
56202.2
57916.7
54150.1
53831
52493.8
53201.5
54422.5
55077.6
51412.8
52420.4
52146.4
51580.8
70259.9
69024.2
115809
65615.7
72041.2
73032.8
74112.8
73380.5
77445.9
77852.4
74785.6
76477.1
75377.4
78540
79687.4
82283.1
81411.1
82702.7
80479.3
110023
100575
106271
98141.1
111148
90625.3
90805.8
94191.4
92196.9
88678.8
89588.4
88721.8
87726.6
86869.8
85439.5
86181.3
85504.5
83237.3
84289.8
84890.4
83575.3
69664.4
70813.7
67840.5
68885.3
66091.7
66448.7
62314.8
64733.9
64207.6
63411.1
55122.8
52106.6
51655.1
51557
53404.6
52865.5
51871.3
55649.7
57025.2
58370.4
59594.7
55733.3
54644
55036.8
60748.2
58952.2
64632.8
56159.4
54948.2
56396.7
53152
51333.6
51969.6
53790.4
50361
51236.5
51021.9
50735.5
68162.9
59856.7
76452.7
93655.9
67317.7
64450.1
71902.9
72343.2
73627.1
73125
76941.2
77629.5
74455.3
75952
75428.9
77921.9
78774.7
80003.7
79216.6
81811.5
80839.2
82706
80495.1
101508
108061
104194
96353.2
114326
89587
89847.6
94417.2
92698
90710.9
88121.4
88665.4
88060.1
87284.8
86410.6
85651.3
84985.5
83207.3
83860.5
84433.2
83471.4
70010
71224
67515.5
68300.1
65780.4
66116.9
61513
64299.5
63234.7
62671.5
54233
50876.5
50528.4
50223.7
52621.3
53306.5
51968.4
50546
54829.2
56626.9
58684
57413.1
59831.9
54876.9
53921.6
54155.7
60679.1
57059.5
59386.3
62010.5
54608.1
53675.5
54612.8
55993.6
52019.2
51181.8
50373.2
51459.8
52787.4
49295.5
50636
50029.3
49542.5
62501.3
65062.8
70569.1
62739.4
60670.1
72155
73485.4
72554.3
77083.5
74942.8
73871.6
76076
77729.7
78523.1
79771.2
79388.6
81612.7
80762
82258.7
80041.2
98795.1
109175
104672
96432.1
113601
88540.1
89769.8
88526.3
92666.3
91361.5
90263.2
87471.6
87728.5
87324.1
86606.8
85761.7
85052.1
84461.5
82686.1
83918.9
83089.7
69656.3
70983.8
66726
68288.5
64821.6
65207.4
61705.1
63290.7
50034.7
49457.8
49207.2
51422.2
52138.9
50891.1
50002.5
53820.9
54305.6
55770.4
57827.1
57047.2
59131.8
53856.1
52457.9
53200.8
59794.9
55817
57103.7
53159
52945.4
52763.2
53041.7
53748.2
51285.1
50135.8
49374.8
50284.6
51738.8
48409
48888
49428.7
49048.2
48861.7
59267.1
54138
61733.5
58768.8
55146.3
71496.8
72819
72361.7
76711.6
74782.8
73658.2
75676.8
77176.4
78066.3
78700.4
79105.3
81807.7
81108.9
80319.1
82276.4
79819.7
99440.3
106895
102605
94228.8
111553
87599.2
88369
87531.8
91192.7
92505.5
88959.6
87027.9
86897.7
86826.1
86248
85298.2
84591.7
84014.1
82701
83499.7
82871.1
68924.3
70233.3
66326.6
67530.2
64577.8
64867.2
61026.2
62640.3
48778.8
48463.2
48003.2
50578.5
51062.2
48991.4
53162
54108.2
56194.1
54768.3
58047.4
51709.6
52263.8
59318.4
53912.1
56588.9
51835.4
51464.7
51527.5
52608.7
51782.4
52848.3
51196
49932.3
49286.9
48547.7
49561.3
50863.9
47323.2
47586.2
47928.4
47693.6
57876.8
51496.7
47835.4
47195.6
54740.6
71362.6
72614.9
71793.6
76727.4
74106.3
75095.3
73030.2
75803.8
77198.8
77954.1
78366.3
79276.1
81443.5
81069.4
79903.3
80319.3
81873.5
97585.7
108112
103432
93230.9
111189
86556.3
87445
88056.1
86576.7
89518.6
90646.1
88442.4
86489.3
86086.1
86026.3
85644.4
84772.4
85275.9
84537.7
84045.2
83562.9
83848
82379.9
83019.2
82483.2
68693.9
70164.5
66697.9
65340.1
67896.3
63603.7
63896.7
59838.6
61088.6
61629.9
62850.6
47839.2
47245.6
47411.9
47016.6
49377.2
49821
48007.9
48644.2
52113.9
52814.6
55388.7
54289.5
57378.9
50451.3
51373.6
58114.9
52897.5
54107
50630.9
50522.5
50860.7
50575.8
50875.1
49604.8
49087.3
48228.7
47520.2
48525
49750
46820.1
46756.8
47030.9
47127.8
54261.6
47182.8
43261
44592.1
51889
70752.9
71961.7
71592.8
76258.1
73915.3
74930.6
72763.9
75378.6
77594.2
76871.3
78302.1
79100.6
81480.4
80704.4
79484.1
79952.1
81752.2
94659
98801.8
105318
101629
93008.4
90711.7
112031
85883.6
86203.1
86289.7
86729.6
85752.4
89117.4
86995.3
85982.1
85338
85358
85483.5
84434.2
84660.2
84007
83757.3
83221.6
83367.3
81954
82661.6
82212.5
68961.4
69609.2
66210.4
64809.5
67543.5
63448.2
59402.6
60183.1
61306
62008.6
46526.7
46266.5
45857
45730.4
48911
49237.3
47008.7
47520.7
51789.9
51197.6
52545.1
55439.5
53310.9
56332.4
50318.8
49530
57581.1
50802
52872.2
49542.6
49426.7
50164.6
49974.9
49578.7
49891.8
49036.8
47969.3
47336.3
47956.6
47726.1
49129.3
45495.5
45735.8
45752.7
45889.8
52066.4
43590.8
48212.5
39152
70963.8
71728.1
76178.3
74422.4
73205.5
72106.1
75599.5
77484.7
77094.1
76430.9
78675.8
77814.5
81155.7
80631.4
79552.2
79998.3
81334.8
93887.4
96710.2
105533
102967
90115.2
89298.6
111393
84931.9
85110.2
85583.6
85963.9
86267.9
84948.5
87429.5
86076.1
84642
84745.6
84926
83981
84474.1
83316.4
82783
83112.4
81876.4
82260.8
68532.9
69626.5
66701.6
65303.9
63894.6
67917.5
62440.8
58524.5
59883.3
60428.3
61772.9
45414.5
45149.1
45149.8
44804.2
47575
47571.2
45799
46895.5
50553.5
49812.4
51251.1
54438.6
52606.9
55951.7
49368.6
48391
56468.4
57754.8
49535.3
50352
48494.4
48448.8
49010
48450
48726.1
48163.3
47917.3
47268.7
46254.9
46862.1
46737.7
48099.4
44939
44917
45415.9
45166.3
49233.6
41532.9
47019.7
36675.4
37714.8
70656.5
71084.3
74253.9
73066.3
71682
75395.2
76806.1
76305.3
78543.6
77733
80824.2
80279.9
79212.2
79736.4
81091
91580.9
97601.6
107854
100948
88488.2
87321.7
111751
84527.4
84522.6
84840.6
84833.7
84177.1
86137.9
86679.6
84584.2
83987.4
84090.8
83535.7
83867.9
82951.4
82481.4
82645
81529.9
81904.1
68985.2
70054.5
66583
64850.4
63366.4
67461.3
62404.6
58889.6
59899.6
60666.9
44204.5
44149.5
43971.1
43362.7
46795.3
47299
45139.3
45770
49534.3
50280.8
48920.5
51270.9
53408.8
54956.5
52660.8
48349.7
56001.3
56835.2
47472.9
48622.6
47541.9
47502.7
48097.8
47402
47791.4
47774.5
47276
47038.1
47530.8
47278.9
46353.5
46033.1
45823
47469.6
43828.6
43767.8
44352.1
43923.5
42106.5
38950.2
44422.7
35377.5
70951.2
73592.5
74467.6
72524.5
71831.8
75883.4
74895
76880.1
78789.7
78090.3
77332.8
80567.2
80290.6
79395.3
79989.6
81164.5
80653
90822.9
89007.9
95485.4
107116
101445
85995.3
85757.6
110465
83670.6
84154
84215.6
83306.7
84624.6
84785.2
83599.8
83260.8
83792.7
83665
83038.2
83450.7
82478.8
82052.5
82349
81530
81820.8
69045.9
69754.7
65895.2
65135.3
63876.4
63321.4
67672.9
61784.2
58460.4
58888.7
60414.1
43008.1
43010.4
43360.7
43089.8
42672.9
45344.5
46092.9
43936.6
44826.1
48402.4
48999.8
47721.6
50182.6
52844.7
54394.2
51394
47257.5
54966.7
56770.3
45839.3
46189.8
47293.9
46682.8
46706.9
47182.6
46038.1
46398.5
45682.4
45505.8
46697
46299.7
45841.4
45743.3
44925.9
44814.9
46627.9
42913.9
43348.3
43491
42836
44100.1
40181.8
37907.5
44198.6
35244.5
70266.8
73608.1
74102.9
72589.8
71446.4
75730.3
74836.4
76543.6
78560.9
77988.3
77309.8
79169.6
79873
80816.3
80381.3
88200.3
92220.1
87256.7
98070.1
104386
83924.9
83953.2
111320
83144.3
83109.5
83088.5
83035.7
82461.1
83570.6
83658.2
82380.7
82951.9
82834.5
83132
83074.1
82637.1
82895.7
82112
81809.4
81938.7
81233.8
81472.2
68518.6
65941.6
64443.1
63707.3
62429.1
67155.8
61006.5
57513.9
58150.3
59410.4
42885
41971.4
42051.2
42005
41803.8
41213
44587.5
46148.6
44955.6
43693.5
48094.4
47243.9
48899.4
46938.2
50179.8
51683.5
53278.6
54367.8
55817
43790
46141.3
45934.7
45974.4
46221.2
44846.7
45758.9
44613.2
43929.7
46030.2
45822.3
44991
44875.6
44002.9
46011.5
41816.7
42158.6
42276.9
41623.2
43066.9
38451.6
40378.9
36345.1
42213.5
34059.7
70020.1
73157.4
74339.5
72109.3
70852.9
75158.7
76077.6
76918.4
78201.2
78757.2
77602.8
79197.8
79457.3
80031.3
80491.1
80898.2
86535.8
89743.1
85108.7
97887.9
104730
81984
83598.5
82267.9
110071
82320.3
82371.4
82331
82140.9
81574.8
82257.9
81908.5
81626.2
81866.2
82051.2
82292.6
82815.1
82722.5
82176.4
82565.8
81721.5
81430.1
81662.6
81225.9
81301.3
68498.6
65176.1
66448.3
64450.4
62950.5
62200.2
67785.4
60579.2
57228.3
58341.2
59651.9
41666.4
40799.4
40839.3
41406.9
40690
40364.2
43156.2
45188.4
43617.6
42412.2
46973.4
46356.7
47813.9
45537.1
48885.6
51079.4
52619.7
54771.5
53137.8
56350.8
42039.1
45662.2
45321
45301.5
43775.2
44655.5
43384.4
42831.1
45322.3
45031
44604
44114.6
43096.9
45379.2
40729.2
42094
41366.2
40583
42656.6
36913.5
38604
35826.7
34471.8
69072.7
70314.9
73378.6
74045.9
71897.5
71136.8
75002.9
75900.7
76913.7
77998.5
78657.6