/*--------------------------------*- C++ -*----------------------------------*\
| =========                 |                                                 |
| \\      /  F ield         | OpenFOAM: The Open Source CFD Toolbox           |
|  \\    /   O peration     | Version:  v2012                                 |
|   \\  /    A nd           | Website:  www.openfoam.com                      |
|    \\/     M anipulation  |                                                 |
\*---------------------------------------------------------------------------*/
FoamFile
{
    version     2.0;
    format      ascii;
    class       volScalarField;
    location    "1.7";
    object      p_rgh;
}
// * * * * * * * * * * * * * * * * * * * * * * * * * * * * * * * * * * * * * //

dimensions      [1 -1 -2 0 0 0 0];


internalField   nonuniform List<scalar> 
13611
(
100991
100594
100922
100338
100437
101002
100523
100058
100096
100137
100847
100431
99867.2
99886.9
100009
99990.3
100643
101025
100238
99645.3
99563.6
100018
100337
100129
99675
100555
100825
100215
99401.4
99353.5
99494.7
99924.1
100052
99690.3
99354.4
100384
100667
100999
100073
99020.6
99023.5
99226.7
99588.7
99750.9
99835.3
100780
99451.4
99059.2
100357
100619
100805
100040
98750.8
99029.5
98756.6
99261.4
99435.4
99751.4
99565.7
100067
99023.4
98717.5
100503
100191
100680
100919
99890.4
98373.9
98780
98473.6
99101.3
99558.1
99059.7
99557
100882
98731.7
98325.1
100461
100154
100598
100889
99884
98121
98504.5
98837.4
98187.8
99112.7
99557.1
98712.2
99186
99576.8
98296.9
97891
100342
100011
100230
100654
100753
101037
99744.2
97756.1
98280.4
98705.3
97906.4
98975.6
99242.9
99404.4
98350
98854.1
99281.9
99614.3
97878.7
97579.6
100370
100035
100161
100502
100710
100983
99773.6
97556.7
97647.3
97949.5
98260.7
98458.4
98812
99091
99486.7
97926.4
98593.2
99031.7
99019.7
97466.1
97146.6
100252
99943.8
100516
100822
100612
101105
99662.2
97178.5
97289.4
97747
97961.3
98433.9
98664.3
99065.5
99380.8
97488.9
98096.4
98949.2
98824.5
97006.6
96863
96940.1
100236
99977.6
100451
100816
100622
100851
99743.9
97031.4
97181.1
97427.7
97958.8
98252.5
98728.7
99204.3
98913.7
99481.1
96991
97661.6
98089.3
98710.1
97750.1
96704.6
96253.8
96583.1
100338
100115
99888.3
100528
100883
100687
100910
99654.9
96652.2
96765.4
97242.8
97725.6
98260.5
98625.9
99117.5
98941.5
99410.6
96732
97147.2
97671
98050.4
97242
96173.3
95896
96185.5
100300
100101
99971.7
100520
100723
100658
100529
99718.5
96410.8
96835.5
96454.2
97386.4
97817.5
98064.9
98456.9
98803.8
99215.3
99515.3
96156.7
96720.3
97142.7
99121.2
97327.2
100481
95899.9
95319.9
95789.5
100186
100370
99952.9
100465
100591
100803
100616
100778
99847
99649
95962.3
96604.7
96032.5
97214.5
97632.6
98164.8
98390.3
98756
99180.4
99448.6
95768.1
95930
96939.3
99244.1
96818.4
99624.8
95267.1
94975.6
94955.9
95196.4
100169
100349
100064
100492
100617
100709
100769
100814
99857
99746.7
95745.3
96146.1
96685.7
95910.9
97363.2
96920.8
97797.3
98073.6
98522.6
98868.4
99310.4
99046.1
99540.8
95118.5
95430.7
95893
97621.2
96312.9
100297
94329.3
94388
94934.3
100261
100426
100059
100551
100691
100762
100734
99957.5
99754.2
95292.8
96087.2
96391
95444.5
97138.2
96863.8
97740
98230.6
98455.2
98787.1
99256.1
99115.1
99471.8
99669.3
94561
94725.7
95580.8
97257.7
96073.5
98729.6
94160.7
93866.2
93846.9
94325.8
100251
100452
100154
100580
100697
100820
100894
100779
99962
99871.6
95148
95766.9
96557.6
95226
97197.1
97952.4
97489.5
98177
98595.4
98899.8
99336.2
99052.9
99556.2
99753.6
94410.6
93893.1
94073.9
94780.3
96601.8
94946.7
98620.6
93548.4
93335.7
93825.9
93305.7
94296.1
100328
100414
100537
100154
100642
100729
100759
100867
100837
100062
99868.9
94695.6
95754.3
95340.6
96431.6
94749.4
96962.3
97962.3
97557.2
98328.5
98528
98902.3
99266.5
99138.7
99501.8
99706.5
93614
93269.6
93978.2
93376.6
96279.9
94335.7
99931
97627
92717.5
93150.9
92557.7
93758.7
100325
100464
100567
100247
100662
100714
100781
100849
100870
101023
100070
99966.3
95307.6
96025.9
95053.4
96622
94397.5
97087.8
98159.3
97778
97362.7
98314.8
98617.4
98785.1
99056.4
99358.6
99593.1
99783.2
92470
92899.9
92534
94753
93116.4
98000.2
97030.8
92224.9
92556.6
93178.4
92120.6
93887.7
100414
100538
100637
100257
100757
100813
100867
100852
100970
100168
99981.1
95215.1
96043.2
94593
96414.7
96927.1
98135.3
97917.2
97399.4
98491.3
98856.9
99117.7
99283.3
99726.8
99587.5
99902.4
91982.6
92565.8
92237.7
94076.4
92446.6
97256.8
94824.8
91446.1
91850.5
92637
91095.5
93431.5
100434
100586
100671
100351
100762
100839
100851
100910
100986
100181
100090
94723
95691.7
94313.4
96587.9
97123.8
98273.6
97856.3
97608.4
98560.7
98754.4
99024.7
99340.4
99797.9
99722.4
99487.4
99977.8
91014.4
91276.7
91125.7
92717.7
91086.3
95938.5
94368.5
90823
91248.2
91674.8
92006
92836.2
90553.4
93712.6
100509
100650
100604
100729
100377
100806
100832
100883
100905
100957
100292
100089
94614.6
95755.7
96490.8
97051.8
98267.9
98470.1
98086.8
97589.4
98839.2
99092.1
99246.1
99925.2
99743.7
99523.1
90541.7
90560.6
91862.2
90126.4
93613.3
93429.8
89915.7
90564.4
90858.8
91610.2
92360.2
89582.1
93369.1
100533
100579
100688
100671
100750
100478
100813
100858
100875
100922
100994
100943
100308
100191
94125
94948.5
95428.6
96166
96763.6
97311.9
98463.2
98579.3
98071.5
97834.6
98745.8
99004.7
99305
99997.9
99643.9
99843.7
99438.8
89439.7
89250.1
90205.3
92332.7
88754.9
94028.3
88843.3
92916.1
89221.4
89934.2
90418
90895.1
91759.9
92300.3
89116.7
89006.2
92658.8
93634.3
100612
100640
100731
100720
100788
100540
100848
100865
100894
100910
100933
100945
100414
100200
94241
94696.4
95614.5
96298.8
96662.8
97279.5
98579.5
98303.3
97840.9
98856.1
99091.5
99232.7
99949.3
100119
99669.9
99851
99487.3
88772
88408.7
89170.5
90804.4
87614.7
93990.6
90755.5
91196.9
88355.7
89409.2
89720.9
90509.9
91355
91639.7
88119.4
88017.9
92410.4
93337.4
100662
100704
100771
100774
100805
100518
100639
100862
100895
100922
100969
100963
100409
100308
93802.9
94917.6
96063.6
95393
96938.2
97578.5
98787.5
98515.9
98308.1
98096.3
99024.2
99323.5
100024
100177
99590.8
99770.5
99952.1
99434.8
87662.4
86990.6
89558.9
87842.2
86339
93087.8
91598.8
90399.9
88210.2
87788.9
88669.5
89286.6
89828.3
90813
91378.7
87690.8
87373.4
91738.4
92765.8
100736
100757
100824
100842
100639
100716
100889
100904
100921
100891
100939
100513
100288
93696.8
95020.6
96183.8
95438.3
96890.5
97630
98952.5
98698
98512
98128.2
99135.8
99283.2
100125
99618
99789
99963.6
99531.3
86775.8
86029
88386.4
86590.3
85288
90474.8
93263
89538.6
87288.1
87012.5
88583
89341.1
89819.7
90407.7
90665.8
86765.7
86441
91448.7
92499.8
100803
100825
100852
100867
100871
100725
100635
100801
100909
100908
100921
100924
100952
100936
100950
100493
100365
94155.5
92941.4
94832
96540.2
95830.8
97157.4
97924.3
97452.7
99112.2
98901.7
98683.6
98569.1
98376.6
99386.9
100199
99706.1
99875.5
100051
99513.6
85846.2
84784.3
88480.4
86962.7
85224.7
84208.9
93222.2
88456.6
91179
86978.1
86718.8
86481
88031.3
88679.7
89188.8
90358.8
86193.3
85789.2
90799.8
91855.3
100866
100914
100914
100906
100856
100755
100886
100931
100927
100934
100935
100950
100937
100941
100584
100326
94051.2
92814.2
95173.5
96671.7
95946
97038
97950
97696.1
99250.3
99012.4
98870.2
98769.1
98417
99377.4
100158
99746.5
99884.2
100017
99617.9
84778.7
84311.4
83990.5
86738.5
85880.8
84177.1
83136
91440
87383
89943.5
86106
87308.8
85854.8
85714.8
88153.9
88647.9
89165.4
89734.6
85251.4
84906
90550.9
91515.1
100946
100966
100949
100942
100924
100725
100881
100977
100953
100937
100941
100943
100938
100551
100415
94549.7
93397.2
92185.2
95043.2
95667.6
96431.3
97255.7
98189
97621.8
99309.6
99175.9
98908.9
98913.4
98635.4
99485.5
100221
99827.9
99718.1
99942.6
100041
99606.6
84310.7
83028
82923.8
85957.7
84263
83029.4
83561.1
82320.4
89987.2
87133.4
90092.9
85591.6
85810.3
86882.4
85404.8
85093.4
87710.1
88024.7
88622.5
89549.8
84646.8
89920.8
90864.1
91667.2
100991
101018
101001
100964
101070
100833
101018
101079
100966
100955
100951
100957
100941
100699
100352
94541.7
93432.6
92000.9
95499.2
95870.9
96624.4
97253.8
98303.3
97817.2
99289.7
99455.3
99227.1
99086
98873.2
99108.9
98597.6
100194
99879.6
99810.3
99932.8
100104
99980.7
99689
83335.3
82356.4
82580.4
84374.5
83197.6
82127.2
82276.6
81241.6
92196.1
86710.1
86694.6
84862.6
86184.8
85034.1
87161.7
84626.8
84379.7
87670.3
87996.2
88957.8
83825.1
89893.3
90486.8
91175
101079
101078
101026
100998
101130
101143
101017
101161
100987
100959
100955
100955
100703
100391
94024.2
95095.6
92955.2
91374
92323.8
95566.8
96319.7
97022.3
97609.4
98145.9
99475.7
99540.8
99387.4
99081.6
99294.2
98815.2
100267
99868.2
99827.1
100074
99981.9
99785
99665.7
83112.9
81336.5
81616.5
83533.5
81575.2
80990.7
81070.2
80532.4
80761.8
92074.7
85386
85374.2
92062.6
84648
84249.7
85880.4
84734.6
86792.5
84133.6
83639.8
87042.9
87669.6
87702.8
88630.7
83429.2
89437.6
90624.7
101152
101131
101068
101011
101292
101316
101207
101291
100991
100974
100965
100957
100495
94003.4
95176.4
93373.5
90991.5
91947.2
96100
96490.6
97269
97621.1
98317.9
99511
99441.7
99056
99291.7
99368.8
98820.2
100234
99938.3
99906.6
100009
100115
99969.9
99868.6
99768.8
82347.9
80645.3
81230.1
80717.4
81543.3
80643.8
80777.9
80223.5
79255.6
79769.7
88886.9
85548.6
83607
91806.2
96525.3
83908.8
83638.3
85145.4
86194.3
84004.5
83239.5
83011.1
86743.3
87053.4
87075.6
87965.7
88829.2
82587.5
89628.1
90224.2
101231
101120
101209
101073
101038
101409
101404
101273
101368
101009
100834
100356
94585.5
95796.6
93008
90969.5
90386.5
92229.8
91300
96243.5
96967.7
97275.3
97883.1
98623.5
98196.2
99651.4
99601.8
99279.7
99475.7
99593.1
99080.4
99941.1
99927
99977.6
100002
99979.6
99876.3
99808.7
81516
79630.8
80261.7
79893.9
80271.4
81082.3
79256.4
79429.9
78969.1
78952.9
78452.1
84076.6
84039
91662.8
91681.7
83590.5
83025.4
84961.2
85890.3
83666.2
82801.2
82265
86185.3
86817.6
86808.2
87643.8
88370.8
82117.5
89230.8
101323
101164
101261
101100
101039
101615
101661
101699
101512
100382
101134
94722.2
95984.4
93345.1
90321.7
90027.4
91645.3
91063.9
96843.5
97193.5
97733
98755.7
98549.9
99696.4
99771.1
99682.7
99291.9
99481.4
99652.3
99053.4
99999.5
100018
99947
99915.5
99963.8
99998.6
99967.3
99944.7
80931.5
78757.5
79711.7
79034.6
78698.5
79361.1
77850.9
78269.7
78039.5
77959.4
77348.6
85061.5
83025.7
90130.8
93584
82892.9
82480.5
85345.4
84419.9
82947.3
83871.6
82050.9
81645.4
85883.9
86129
86165.5
87079.6
87816.8
88609.9
81254
89475.5
101384
101147
101235
101350
101099
101063
101647
101811
102046
101484
100129
100627
101835
95500.5
94183.3
96623.1
93011
90096.4
91631.3
90457.2
97033.4
97656
97884.6
98608.7
99828.6
99882.1
99856.5
99580.9
99677.4
99824.9
99298.4
100035
100083
99854.5
99928.9
99766.8
99975.2
100024
100067
100023
80059.9
77966.8
78560.4
78715.9
78425.5
77836.5
77551
79028.7
77813.7
77196.9
76639.6
77151.1
76413.6
76907.5
85669.9
80900.8
88007.7
91766.5
82639.7
82436.5
81899
85075.2
84563.2
82612.4
83436.2
81507.6
80948.6
85310.7
85831.7
85989.6
86856.6
87323.3
88284.1
89119.3
101169
101260
101393
101136
101809
102137
102521
101533
100168
100818
102370
95838.9
94317.3
96885.3
93617.4
92310
89459.2
90918.1
90053.7
97615.3
98013.1
98318.2
99036.5
99909.7
99991
99989
99619.9
99735.4
99841.8
99985.6
99311.9
100103
100183
99868.9
99645.7
99532.6
99951.1
100074
100163
100141
79516
77167.5
77559.5
78218.7
77531.5
76387.1
76252.1
77076.1
76200.7
76007.2
75738.7
76301.2
75348.7
75755
83824.3
80122.3
89173.1
85295.3
96218.2
81915.9
81721.8
81242.4
84228.8
82041.8
82847.7
83636.7
80751.4
80228.6
84984.9
85240.1
86391.3
85481
87277.3
87704.3
88576.8
101224
101349
101461
101768
102036
103079
101643
99637.6
99123
103584
95541.4
96572.2
94839.9
97449.9
93544.8
92169.7
89344.9
90190.2
90819.1
97792.7
98031.2
98412.8
99118.6
100057
100085
100137
99904.3
100025
100049
100177
99680.8
100190
100275
99810.9
99427.1
99471.3
99992.8
100120
100267
100229
79611.5
78676.9
76946.3
76358
77420.7
76808.1
75032
75097.7
75995.5
76241.3
74748.9
75062.1
74517
75441.4
74280.3
81916.7
77413.4
89083
84749.2
91575.6
81653.9
81152.8
80650.2
84429.4
81734.2
82485.9
83282.8
80119
84831.2
86104.4
84965.1
85579.6
86623.8
87581.8
88142.6
101512
101869
102067
102965
101580
99150
98214.8
104559
96060.1
96950.5
94909.7
97833.5
94275.9
92817.7
91376.3
88801.6
89680.4
90074.5
98259.4
98555.9
98800.3
99533.3
100156
100207
100282
99935.1
100160
100230
100212
100305
99780
100277
100380
99925.8
99651.1
99023
99083.3
100089
100254
100360
100347
78872.7
78311.8
76139.2
75679.1
77027.8
76854.8
75875
74136.4
74652.5
74322.7
76095.9
74254.2
73233
74092.5
73837.1
73977.4
74604.1
73308.4
80923.7
76155.2
87294.5
82107.8
93137.4
81041.9
80471.9
79933.9
84114.2
81178.8
81928.5
82719.4
83539.7
79396.4
84281.2
86151.4
84580.2
85239.8
86634
87138.9
88207.3
101727
102159
103592
101583
95539
99583.1
106959
95724.8
96712.6
97674
98343.2
93942.9
92895.1
91116
88617.9
88986.6
89785
98645.6
98890.6
99675.6
100287
100308
100390
100212
100446
100499
100442
100492
100101
100378
100481
100023
99578.3
98637
99151.6
100146
100335
100472
100446
78716.6
77468.3
75608.5
74944.7
76242.5
76075.7
75233.8
72855.9
73076.3
72994.9
73917.1
73096.9
72084
72975.4
72709.2
72845.1
74495.1
73515.4
72313.2
78467.1
76726.7
73958.1
83816.4
80785.7
89085.8
80508.6
80270.9
79821.6
79282.3
80826.5
81569.8
82337.1
83361.7
83841.8
85572.9
84784.5
84070.3
86262.2
86972.8
87637.8
101599
101579
102457
101509
97133.5
93346.3
94410.8
108319
96271.5
97391.3
97992.5
98779.7
94196.8
92365.6
90245.1
91537.2
87881.2
88577.9
88979.9
99190.4
99415.3
100118
100392
100423
100530
100417
100254
100538
100608
100744
100562
100598
100283
100482
100585
100048
99897.2
97988.3
98685.8
100284
100458
100566
100551
77951.3
77207.7
74631.1
74378.4
75620.2
75389.6
74307.3
71984.7
72254.6
71390.4
73019.6
71699.1
70519.8
72181.3
72271.9
72173.9
73614
72947.7
71408.3
78669.6
75049.7
72695.1
85021.5
81474.7
86964.5
79987.9
79531.2
79137.3
78612.4
81021
80149.4
81754.2
82419.6
82903.2
83740.8
85400.6
84368.1
83914.6
85765.5
86496.6
87148
101391
101234
103773
98196
93397.5
95262.2
111998
96108.4
97318
98583.2
99008.9
99366.9
95155.9
93308
92495.9
89927
91165.4
87558.2
87897.7
88724.5
99600
100380
100495
100533
100600
100631
100531
100793
100820
100888
100789
100782
100614
100595
100709
100256
100071
98616.2
100357
100584
100692
100632
77899.9
76395.7
73990.8
73603.8
74700.1
75604.6
74684.1
73934.2
70578.7
71038.2
70991.2
70168.6
71275.7
70476.4
69641.1
71158.8
71040.4
71056.3
72076.7
70490.3
71041.3
77107.3
73090.4
75265.2
70769.4
81275.5
79776.8
83848.1
79462.9
79022.9
78553.9
80706.3
79845
81363.9
81990.2
82797.3
83154.8
84742.2
84299.1
83439.1
85575.3
86283.4
86666.1
100948
100592
100671
97996.5
98237.9
90914.3
90065.8
111352
97150.3
97958.8
99059.5
100028
100061
95218.2
93311.6
91741.3
90405.2
89213.3
87039
87397.1
88025.1
100143
100791
100627
100730
100728
100772
101114
100812
100965
101406
100859
100847
100616
100689
100778
100303
99950
99187.7
100480
100575
100707
100757
100742
77305
76164.8
73016
72792.2
74056.8
74806.6
73217.6
70200.8
70390.8
69485
68737.3
70346.2
70233
69085.7
68389.3
70473.7
70503.2
71995.1
71353.5
69413.5
69811
76740.5
71631.1
73983.6
69417.8
80266.3
77668.1
81010.1
78893
78369.6
77904.3
80185
80879.5
79307.8
81492.5
82251.1
83023.2
84681.9
83722.7
83296.5
85107.9
85858.5
86466.9
104449
100477
98489
85458.2
99856
97759
110554
97298
97957.6
98718.4
99717.9
100740
100324
100660
96300.1
94131.3
92320.2
91539.6
90039.4
88829.2
86638.6
86710.1
87453.7
86755.7
88093.1
100550
100764
100956
101299
101282
101107
101418
101613
101085
101014
101394
100829
100873
100517
100766
99026.6
100564
100683
100770
100868
100828
77357.5
76564.4
75377.8
72284.3
73232.1
74128.4
74753.7
72905.1
72494.1
68801.9
68980.6
68529.9
67554.3
68553.6
68571.7
67680.8
67956.8
67427
69279
69451.5
71139.5
70552
69043.5
68690.2
69684.2
75720.4
76645.4
69703
72149.3
74191.5
67867
74025.6
76045.2
71913.5
79044.5
78281
78617.8
77811.3
80052.7
80482.6
78788.3
79220.7
81047
82075.4
82515.9
84203.2
83547.8
82743.4
85119.5
85588.8
85818.1
100636
99201.4
89253.1
100212
96833.9
104237
98453.3
98986.5
99453.4
100214
100893
100914
100915
96468.7
93726.3
92378.9
90599.9
89161.6
86373
86845.4
86199.1
87675.9
101889
100876
101305
101699
101278
101094
101073
102525
100871
101025
100738
100553
100763
99369.5
100702
100804
100869
100939
76728
76241.7
75073.3
71377.5
72788.5
73389.9
74006.9
72067.6
71767
68412.1
67242.2
66262.2
67483
67279.6
66785.6
66820.2
66083
68665.5
70403.8
70907.1
67998.5
67592.1
68905.4
75474.1
76102.4
68355.5
71253.2
72626.4
66395.8
76460.9
63646.7
80404.2
77633.1
77819.7
77157.8
79597
80489.4
78376.8
78698.8
81034.8
81539.4
82339.1
84281.1
83764.4
83004.9
82628.6
84744.2
85587.8
101970
99289.1
89612.4
100863
92512.1
99263.8
98936.7
100171
101248
100652
100511
101107
95520.5
97961.4
94212.5
91562.5
90140.4
88746.1
85931.1
86200
86665.5
85721.3
86990.8
87557.7
101842
101017
100967
101078
101033
100752
100621
101499
99475.8
100805
100922
101011
101065
76599.6
75523.6
74235.3
70776.2
71946.9
73295.4
71509.1
70957.6
67310.3
66222.5
65039.1
65921.6
65845.6
65392.3
66139.3
65927
64973.8
67392.3
69423.8
69923
67600.8
67265
66814.3
68023.1
74214.4
76273.1
66812.5
68575.7
69805
72343.3
65991.9
65067.4
75231.3
61486.7
65471.9
86270.5
77059.2
77458.9
79493.6
79971.8
77797.3
78508.4
80531.7
81457.5
81856.6
83917.2
83343.9
82945.5
82156.1
84743.9
85089.1
104489
100318
96935.4
101053
100215
100296
100397
101772
102431
101946
95603.5
98131.8
93629.1
90495.4
91415.5
89157.4
87907.1
85804.8
86069.9
85148.2
86939
102892
101100
101059
101039
100650
100429
101619
100921
100771
100955
76013.8
75386.2
73714.1
69912.3
71537.7
72642.9
70678.2
70396.7
66296.5
66836.9
65083.9
63890.1
65205.3
64576.2
64417.6
64798.6
64680.1
63734.6
69171.1
66380
66219.8
65622.4
67282.1
73965.1
76828.1
65551.7
67142.8
69243.7
70316.4
64320.9
63549.1
82302.4
45785
47790.4
78012.8
76388.8
76764.5
78966.7
79987
77461.1
77884.1
80562.4
80996.3
81609.2
83443.4
83904.1
82520
82111.9
81698.7
84264.3
84844.3
104474
97756.2
104066
100353
100698
100575
101671
101744
101872
96942.9
94681.1
98989
92270.5
89815.9
90186.6
88638.6
87483.4
85266.6
85670.3
84811
86537.8
100765
99605.8
102327
100906
100834
101028
75825.1
74808.5
74075.1
72811.5
69086.8
71959.4
70614.3
72458.3
70015.9
69414.8
65110
65525.7
63984.4
62693.6
63458.3
63179.7
62976.7
63809.7
63614.7
62611.6
68210.6
65749.3
66238.3
65353.3
64858.5
67320
75532.9
70928.7
77878.1
78404.9
64056.6
65697.2
67517.4
69462.3
63057.7
62535
93826.6
23310.9
61956
66523.3
76218.6
76224.5
76548.8
78770.5
79562
76925.6
77807
80086.5
81079.2
83220.5
83549.6
82370.3
81717.3
81303
84367.2
99337.9
97833.1
102790
102556
102687
103295
99937.3
103466
97576.9
94348.7
98546.9
91888.7
88909.6
89509.6
87767.2
86760.4
85145.3
84842.5
85592.6
84166.5
85939.9
100691
103097
100934
101034
100706
100828
75164.3
73692.1
72324.8
68203.3
71394.1
70649.1
69927.3
71672.1
69118.8
63979.3
62851.5
61547.4
62027.7
61941.6
62495.8
62354.5
61420.6
64677.8
65421.7
64336.6
63691.3
66318.9
73042.9
70283.7
79107.1
78882.6
62782.5
64237.4
66441.4
67238.2
61569.1
61014.2
81748.3
105251
11996.1
63329
34295.7
85883
75513.8
75948.5
78276.4
79063.1
79637.5
76543
77396.8
80209.4
80752.9
82835.1
83317.9
81884.9
82506.6
81349.3
81628.9
80860.6
83986.9
99058.5
99330.6
100018
104059
105872
103161
96249.3
93143.5
99172.7
90505.3
88260.2
88429.1
89584.3
87229.6
86283.3
84758.7
84273.2
84941.6
83898.6
85430.7
100667
103449
100553
100810
100824
74729.2
73082.5
74015.6
71444.6
72463.8
67384.5
70107.5
69066.7
71195.5
68380.1
62834.4
61615.8
60360.9
60661.3
60536.8
61691.8
61292.4
60345.5
63885.3
64292.1
65445
63295
62799.9
63040.2
66413
73695.7
68091.5
78191
62757
61472.4
64570.5
65831.4
60282.1
60215.5
60098.8
78268.1
133726
9961.82
32855.4
22494
99506.7
75473.1
74859.4
75925.2
78128.6
78798.8
79169.5
76493.8
76890.1
77682.9
79881.3
82875.8
83463.9
81776.6
82102.6
81009.3
81204.3
80550.2
98971.3
99946.7
102977
95927.9
92945
99287.6
100950
89852.3
87412.5
87661.2
88552.6
86470.3
85554.2
84590.5
84256.1
84876.5
83398.8
100900
102774
100706
100939
72993.1
73537.7
70796.6
71971.5
67121
69362.1
70402.8
68366.3
68899.7
67503.1
61840.7
60374
59310.5
59726.9
60444.6
60064.2
59237.5
62659.2
63697.5
64521.7
62380.4
61603.9
61826.6
65560.5
71197.8
66148.7
67477
78445.6
61458
60034.7
63265.7
63794.7
58903
58745
58742.4
83109.1
79600.1
144112
98294.2
9850.13
58798.2
9423.98
109807
74958.9
74221.8
75377.4
78376.3
79015.8
75900.7
76742.4
77531.3
79366.4
80113.3
82554.5
83044.6
81414.7
82125
80660.4
81091.6
100650
100151
94217.8
96944.2
91580.5
101907
98341.1
101919
88547
90155.4
86780.1
87661.7
86841.6
85936.9
85122.4
84154.6
83926.2
84367.2
83016.2
83067.6
101053
101456
100876
101100
72417.8
73540.6
71159.3
70067.5
66060.6
68901.7
69943.7
67479.6
68001.3
66923.9
60759.4
59228.2
58075.6
58436.3
59646.6
59090.5
58063.7
61721.9
62783
64210
61243.8
60625.6
60968.6
64653.5
68574.2
73345.8
64102.9
65332.3
60950.7
60063.4
58736.2
61523.1
62240.8
57617.6
58167.5
57904.1
57620.7
80103.8
78788.5
147981
102857
13384.8
56109.2
74320.6
74881.9
75366.3
78009.6
78517.5
75883.2
77127.5
76293.1
79147.9
79936.9
82579.8
81213.6
81797.9
80298.8
80660.1
100282
100240
93721.7
96406
92012.4
102529
99377.8
87566.2
88985.2
86060.5
86756.1
86067.9
85310.6
84573.1
83821.9
83472.4
84239.6
83858.4
82518.4
83098.2
82549.9
100809
100889
72172.9
72836.6
70877.1
69442.9
65664.8
69175.9
68094.3
67265.3
66137.2
60262.2
57854
57132.4
57450.7
58371.7
57754.1
57051.4
60492.1
61880.2
62430.7
63048.7
60339
59500.2
59680.5
63948.8
66090.4
72386.1
63889.4
62285.4
64367.5
59390.9
58984.8
57377.3
60322.8
60634.9
56275.6
56801.4
56572
56401.9
77281.4
75736.5
154763
129095
80812.2
73893.7
74350.6
74914.5
78032.2
78382.5
75369.4
76847.5
76308.3
78670.8
79495.2
82179.5
81376.3
80762.6
81798.8
80277.3
100466
94517.5
97821.6
90901.8
101515
86652.7
87095.5
89359.6
87514.8
85436.4
85980.8
85393.3
84809.8
84169.3
83393.1
83721.7
83354.8
82139.1
82635
82243.7
100691
71499.8
72773.1
70206.5
68767.2
69149.9
64690.9
67549.3
66452.5
65509.7
59097.3
56017.1
56016.8
57911.1
57388.6
55854.5
59361.3
60921.3
61435.5
62939.9
59352.4
58676.1
58968
63944.9
66037.3
69072.6
62075.5
60430.6
62368.1
58099.7
57718.8
56182.9
56998.6
58416.1
59157.4
54949.8
56008.2
55643.5
55119.7
75477.4
74206.7
121360
70882.3
73320.2
74110.1
74934.9
74365.2
77692.8
77974.3
75437.1
76856.7
75942.8
78425.7
79338.6
81144.6
80523
81417.7
79903.4
100501
93220
97863.4
91262.3
101873
85753.5
85756.7
88111.2
86645.2
84837.3
85106.8
84610.3
84235.4
83692.6
83000.9
83301.4
82932.1
81696.7
82275.7
82611.7
81803.9
71121.2
72140.1
69482.1
70381.4
67991.6
68178.8
64604.4
66727.6
66267.4
65598.8
58295.7
55404
54989.7
54921.9
56495
56033.3
55046.5
58321
59642.2
60884.7
62038.2
58502.1
57647.8
57898.2
63094.6
63568.2
69619.6
60391.9
59008.4
60690.2
56964.8
54880.9
55612.6
57708.5
53773.8
54691.9
54403.1
54158.8
73182.2
65572.1
81683.9
99202.9
72356.1
69606.5
73102.6
73454.8
74458.8
74053.3
77224.7
77715.1
75074.7
76336.7
75906.1
77900.2
78547.9
79535.8
78902.1
80760.3
80040.1
81329.1
79821.6
93929.4
99205.7
96135.7
89700.9
104720
84965.4
84905.7
88156.4
86926.3
85404
84318.3
84429.3
84144.4
83800.4
83247.7
82807.6
82450.7
81573.5
81871.7
82181.7
81622.3
71371.6
72451.4
69065.5
69765.4
67597.7
67767.1
63727.1
66200
65257.6
64763.3
57281.9
54063.3
53730.3
53468.8
55692.8
56311.7
55097.2
53621.5
57429.6
59144.8
61126.7
59892.2
62188.9
57642.8
56817.2
56996.1
62924.7
61473.7
64035
66827.2
58663.4
57569
58689.9
60271.5
55678.6
54719.4
53795.7
55040.2
56564.1
52572.9
54002
53292.1
52831.9
67315.5
70067.9
75846.7
67612.1
65581.2
73206
74256.2
73514.6
77262
75451.5
74542
76370.9
77668.7
78279.6
79276.1
78972.6
80522.5
79893.1
80923.9
79438
91544.8
100213
96429.4
89632.2
104217
84035.1
84707.2
83878.5
86617.5
85723.6
84889.6
83842
83593.5
83526.3
83289.4
82767.1
82379.4
82087.8
81113.4
81822.4
81295.3
70936.5
72149.4
68281.8
69670.6
66641
66865.4
63807.3
65218.6
53114
52569.4
52331.6
54377
55027.1
53903.7
52986.7
56437.5
56830.6
58215
60177.6
59424.9
61406.5
56540.7
55281.5
55917.5
61996.1
60152.1
61581.5
57018.5
56755.9
56534.9
56947.2
57798.2
54840.8
53540.8
52679.3
53715.1
55355.3
51594.2
52114.6
52674.7
52226.6
52063.2
63884.8
58876.6
66789.7
63450.6
59873.5
72574.1
73630.3
73266
76896.5
75243.5
74276
75974.3
77172.5
77895.9
78359.5
78679.7
80596.7
80111.8
79507.8
80838.9
79201.6
91993.6
98195.2
94645.1
87726.3
101979
83335.3
83474.2
82982.8
85458.4
86362.5
83747.5
83402.8
82975.3
83037.3
82914.8
82316.1
81945.4
81681.7
81045.4
81426.2
81035.3
70219.2
71416.6
67806.5
68882.7
66317.9
66458.3
63059.2
64511.3
51757.8
51459.3
51022.2
53513.5
53919
51885.2
55703.2
56557.1
58543.6
57181.3
60316.4
54433.4
54935.9
61428.8
58072.4
61038.2
55541.6
55085.4
55146
56502.7
55512.9
56859.8
54732.7
53312.7
52583.6
51750.3
52895.4
54380.2
50385.4
50666
50987.3
50768.6
62445.4
56134.5
52407.1
52050.5
59323.8
72380.8
73375.8
72729.5
76827.9
74625
75465.1
73698
76024.4
77128.9
77740.4
78045.9
78756.5
80257
80006.7
79199.6
79430.6
80483.6
90348.1
99244.3
95291.8
86788.8
101868
82420.8
82769.8
83078.4
82226.9
83987.8
84739.7
83169.5
82993.5
82240
82424.2
82414.6
81911.8
82178.2
81794.5
81529.6
81375.7
81446.4
80749.3
81072.9
80747.9
69919.8
71261.9
68087.4
66847.5
69158.2
65318.4
65517.8
61879.4
63028.8
63513.3
64613.1
50708.8
50147.8
50401.9
49928.9
52209.4
52572.6
50850.9
51463.8
54597.2
55179
57652.2
56578.3
59557.8
53100.6
53946.4
60208.8
57015.6
58371.4
54162.8
54017.9
54565
54171
54695
52941.4
52355.9
51398.8
50611.4
51721.9
53112.3
49827.8
49761.9
50047
50127.6
58621.1
51560.2
47609.2
49229
56305.6
71773.6
72768.7
72481.8
76391.7
74390.2
75253.2
73388
75617.1
77423.9
76816.1
77930.9
78548
80217.6
79692.5
78817.9
79100.3
80308.9
87836.8
91292.5
96727.9
93730.2
86488
84670.7
102488
81953.5
82015.2
81735.2
81903.8
81453.6
83508.7
81908.8
82500.3
81681.1
81811.4
82160.8
81541
81641.9
81331.9
81203.4
81043.4
81068
80411.3
80717.4
80491.2
70113
70701.1
67532.6
66257.2
68761.1
65019.3
61360.7
62089.4
63093.7
63731.8
49306.7
49061.9
48706.9
48540.2
51657.9
51898.4
49750.1
50255.2
54172.4
53689
54826.4
57623
55552.6
58484.7
52877.3
52157.2
59592.6
54745.3
57095.8
52942.8
52756.9
53745.2
53643.5
53018
53685.5
52299.2
51087.9
50402.8
51088.6
50819.3
52403.6
48365.6
48627.7
48639.3
48768.3
56372.5
47845.5
52512.6
43364.4
71903.3
72494.7
76267.8
74792.1
73736
72783.2
75763.6
77275.2
76952
76442.5
78189.7
77510.8
79909.9
79567
78815.2
79076.6
79980.4
87033.9
89431.4
96939.1
94814.3
83953.9
83385
102039
81134.8
81069.6
81206.2
81341.6
81394
80827
82013.9
81027.1
81014.4
81381.5
81665.5
81208
81385.9
80855.1
80720.5
80791.8
80278.2
80441.1
69633.5
70642.8
67942.4
66656.6
65376.1
69048.1
64014.9
60434.1
61716
62199.3
63407.9
48085.4
47863.1
47947
47522.5
50228.2
50134.6
48457.9
49548.9
52859.7
52205.5
53465.7
56537.7
54760.8
58005.5
51850.1
50910
58466.5
59683.3
53444.9
54395.8
51734.2
51655
52448.6
51954.5
52081.3
51808.3
51010.3
50285.2
49192.9
49855.5
49709.5
51223.3
47751.9
47728.4
48265.3
47990.5
53366.6
45576.4
51139.8
40965.7
41739.5
71557.6
71894.5
74592.4
73549.5
72347.9
75534.7
76679.5
76278.1
78021.3
77394.2
79660.6
79268.9
78494.1
78830
79739.3
84992.6
90138.5
98948.9
93000.4
82461.2
81695.5
102144
80672.4
80267.4
80345.1
80129.7
80088.1
80976.2
81247
79793.2
80492.2
80810
80785.5
80851.7
80471.4
80403.3
80429.9
79966.6
80116.8
70013.7
70992.5
67751.6
66152
64812.5
68559
63901.7
60715.7
61587.2
62283.2
46797
46769.6
46658.9
45973.5
49355.4
49786.4
47716.7
48348.8
51843
52502.2
51318.2
53412.6
55480.2
56986.4
54754.2
50813.9
57910.8
58699.6
51215.4
52629.1
50659.8
50560.9
51447.9
50846.7
51157.8
50995.9
50776.5
50665.5
50573.3
50280.7
49244.4
48936.2
48674.8
50501.2
46530.7
46456.3
47080.7
46630.6
46028.1
42899.6
48383.1
39271.9
71704
73988.9
74733.7
73039.8
72431.2
75909.5
75083.7
76695.8
78166.8
77647.8
77051.8
79411.7
79226.5
78577.7
78985.7
79720.3
79417.8
84229.6
82810.2
88223.4
98220.1
93367.7
80314.6
80230.2
101120
79915.5
79848.4
79686.5
79364.3
79588.3
79606.3
78878.9
79809.7
80451.3
80560
80432.7
80589
80118.7
80070
80113
79875.9
79961.7
69999.9
70644.4
67054.5
66354.1
65200.4
64701.5
68697.3
63239
60222.4
60574.1
61959.5
45494.2
45560.9
46012.7
45694.8
45240
47813.9
48488.6
46430.3
47314
50635.3
51144.1
50055.7
52252.6
54825.5
56344.5
53403.9
49633.4
56852.3
58558.8
49541.2
50021.7
50410.7
49646.9
49644.9
50385.8
49303.4
49622.3
49083.2
48985.6
49606.4
49165.4
48658
48566.2
47693.9
47553.2
49535.4
45531.6
46007.1
46139.2
45438.3
46782.1
43908.4
41693.4
47997.3
38985.6
71062.2
73954.8
74379
73040.3
72030.5
75727.3
74986.3
76371.9
77935.1
77524.4
76989
78365
78846.2
79392.6
79161.5
81934.7
85367.7
81201.9
90438.6
95866.2
78419
78682.8
101786
79341.6
79506.7
78878.6
78681.2
78540.1
78717.4
78542.8
77832.4
79462.7
79549.5
79900.5
80045.4
80045.4
80088.1
79745
79790.7
79803.6
79608.4
79671.4
69467.9
67030.7
65639.6
64962.1
63808.3
68151.1
62480.1
59260.7
59770.8
60933.1
45331.3
44401.3
44518
44547
44316.2
43656
46970.4
48487.6
47309.6
46129.1
50247.6
49457.1
50965.1
49192.3
52178.5
53636.1
55207.6
56175.9
57548.3
47305
49096.6
48799.9
48783.1
49303.8
48028.2
48845.8
47874.4
47337.8
48832
48607.2
47693.2
47568.5
46624.3
48816.3
44341.6
44712.9
44799.3
44108.1
45632.9
42136.7
43973.3
40052.9
45841.1
37666.2
70777
73526.2
74553.6
72596.4
71464
75230.2
75980.1
76658.9
77654.5
78049.3
77202.6
78328.3
78499.8
78905.4
79175.1
79384.1
80412.7
83125.6
79297.8
90244.5
96187.7
76769.5
78025
77135.8
100729
78655.8
78808.9
78289.4
77829.6
77828.2
77517
77021.5
77057.8
77465.7
78694.6
79080.9
79720.7
79836.8
79703.2
79883.5
79464
79500.3
79512.9
79525.7
79466.2
69376.3
66255.6
67473.4
65578
64199.5
63517.4
68694.3
62003.7
58885.3
59889.9
61105.8
44005.1
43139.5
43230
43899.6
43114.3
42736.1
45462.3
47439.5
45867.7
44754.6
49072.9
48490.9
49810.8
47745.1
50804.4
52965.9
54472.9
56510.6
54934.7
57997.8
45513.1
48601.5
48060.9
47995
46797.8
47601.9
46579.7
46094.3
48007.4
47697.6
47237
46719.5
45614.6
48069.2
43157.6
44580.8
43811.6
42986.8
45156.2
40446
42020.5
39380.6
37959.7
69876.9
70989.7
73674.4
74257.7