/*--------------------------------*- C++ -*----------------------------------*\
| =========                 |                                                 |
| \\      /  F ield         | OpenFOAM: The Open Source CFD Toolbox           |
|  \\    /   O peration     | Version:  v2012                                 |
|   \\  /    A nd           | Website:  www.openfoam.com                      |
|    \\/     M anipulation  |                                                 |
\*---------------------------------------------------------------------------*/
FoamFile
{
    version     2.0;
    format      ascii;
    class       pointVectorField;
    location    "1.7";
    object      pointDisplacement;
}
// * * * * * * * * * * * * * * * * * * * * * * * * * * * * * * * * * * * * * //

dimensions      [0 1 0 0 0 0 0];


internalField   nonuniform List<vector> 
17322
(
(0 0 0)
(0 0 0)
(0 0 0)
(0 0 0)
(0 0 0)
(0 0 0)
(0 0 0)
(0 0 0)
(0 0 0)
(0 0 0)
(0 0 0)
(0 0 0)
(0 0 0)
(0 0 0)
(0 0 0)
(0 0 0)
(0 0 0)
(0 0 0)
(0 0 0)
(0 0 0)
(0 0 0)
(0 0 0)
(0 0 0)
(0 0 0)
(0 0 0)
(0 0 0)
(0 0 0)
(0 0 0)
(0 0 0)
(0 0 0)
(0 0 0)
(0 0 0)
(0 0 0)
(0 0 0)
(0 0 0)
(0 0 0)
(0 0 0)
(0 0 0)
(0 0 0)
(0 0 0)
(0 0 0)
(0 0 0)
(0 0 0)
(0 0 0)
(0 0 0)
(0 0 0)
(0 0 0)
(0 0 0)
(0 0 0)
(0 0 0)
(0 0 0)
(0 0 0)
(0 0 0)
(0 0 0)
(0 0 0)
(0 0 0)
(0 0 0)
(0 0 0)
(0 0 0)
(0 0 0)
(0 0 0)
(0 0 0)
(0 0 0)
(0 0 0)
(0 0 0)
(0 0 0)
(0 0 0)
(0 0 0)
(0 0 0)
(0 0 0)
(0 0 0)
(0 0 0)
(0 0 0)
(0 0 0)
(0 0 0)
(0 0 0)
(0 0 0)
(0 0 0)
(0 0 0)
(0 0 0)
(0 0 0)
(0 0 0)
(0 0 0)
(0 0 0)
(0 0 0)
(0 0 0)
(0 0 0)
(0 0 0)
(0 0 0)
(0 0 0)
(0 0 0)
(0 0 0)
(0 0 0)
(0 0 0)
(0 0 0)
(0.000285277 0.0119397 0)
(0.000190865 0.0119251 0)
(9.22153e-05 0.0119097 0)
(-8.91462e-06 0.0118869 0)
(-0.000108529 0.011843 0)
(-0.000206444 0.0117853 0)
(-0.000302623 0.0117157 0)
(-0.000395729 0.0116339 0)
(-0.000486428 0.0115417 0)
(-0.000574649 0.0114396 0)
(-0.000660351 0.0113279 0)
(-0.000743941 0.0112072 0)
(-0.000825448 0.0110776 0)
(-0.00090517 0.0109395 0)
(-0.000983222 0.0107927 0)
(-0.00105978 0.0106374 0)
(-0.00113487 0.0104736 0)
(-0.00120871 0.010301 0)
(-0.00128129 0.0101198 0)
(-0.00135273 0.00992964 0)
(-0.00142306 0.00973051 0)
(-0.0014923 0.0095222 0)
(-0.00156052 0.00930459 0)
(-0.00162767 0.00907746 0)
(-0.00169379 0.00884066 0)
(-0.00175886 0.00859399 0)
(-0.00182284 0.00833727 0)
(-0.00188574 0.00807033 0)
(-0.00194748 0.00779297 0)
(-0.00200805 0.00750502 0)
(-0.00206739 0.00720633 0)
(-0.00212543 0.00689673 0)
(-0.00218213 0.00657605 0)
(-0.00223742 0.00624416 0)
(-0.00229122 0.00590096 0)
(-0.00234347 0.00554634 0)
(-0.00239409 0.00518022 0)
(-0.002443 0.00480249 0)
(-0.00249012 0.00441311 0)
(-0.00253537 0.00401207 0)
(-0.00257868 0.00359937 0)
(-0.00261996 0.00317501 0)
(-0.00265915 0.00273908 0)
(-0.00269615 0.00229159 0)
(-0.00273091 0.00183272 0)
(-0.00276335 0.00136256 0)
(-0.00279342 0.000881307 0)
(-0.00282105 0.0003891 0)
(-0.0028462 -0.000113726 0)
(-0.00286881 -0.000626935 0)
(-0.00288886 -0.00115024 0)
(-0.00290631 -0.00168331 0)
(-0.00292114 -0.00222576 0)
(-0.00293334 -0.00277716 0)
(-0.0029429 -0.00333708 0)
(-0.00294982 -0.00390509 0)
(-0.00295413 -0.00448067 0)
(-0.00295584 -0.00506324 0)
(-0.00295499 -0.00565227 0)
(-0.00295161 -0.00624715 0)
(-0.00294576 -0.00684734 0)
(-0.00293749 -0.00745213 0)
(-0.00292688 -0.00806089 0)
(-0.00291398 -0.008673 0)
(-0.00289889 -0.0092877 0)
(-0.00288169 -0.00990432 0)
(-0.00286246 -0.0105221 0)
(-0.00284131 -0.0111405 0)
(-0.00281834 -0.0117586 0)
(-0.00279364 -0.0123759 0)
(-0.00276734 -0.0129916 0)
(-0.00273952 -0.0136049 0)
(-0.00271031 -0.0142152 0)
(-0.00267981 -0.0148219 0)
(-0.00264814 -0.0154243 0)
(-0.0026154 -0.0160217 0)
(-0.00258171 -0.0166135 0)
(-0.00254717 -0.0171992 0)
(-0.00251188 -0.0177781 0)
(-0.00247594 -0.0183498 0)
(-0.00243947 -0.0189137 0)
(-0.00240255 -0.0194694 0)
(-0.00236527 -0.0200164 0)
(-0.00232773 -0.0205543 0)
(-0.00229001 -0.0210827 0)
(-0.0022522 -0.0216014 0)
(0.00121797 -0.0216843 0)
(0.00128051 -0.0211681 0)
(0.00134342 -0.020642 0)
(0.00140661 -0.0201065 0)
(0.00146997 -0.0195619 0)
(0.00153339 -0.0190087 0)
(0.00159675 -0.0184471 0)
(0.00165994 -0.0178778 0)
(0.00172285 -0.0173012 0)
(0.00178532 -0.0167178 0)
(0.00184724 -0.0161283 0)
(0.00190847 -0.0155332 0)
(0.00196888 -0.014933 0)
(0.00202831 -0.0143285 0)
(0.00208664 -0.0137202 0)
(0.00214372 -0.0131089 0)
(0.00219939 -0.0124952 0)
(0.00225354 -0.0118798 0)
(0.00230601 -0.0112635 0)
(0.00235667 -0.0106468 0)
(0.00240538 -0.0100306 0)
(0.00245201 -0.00941555 0)
(0.00249644 -0.00880228 0)
(0.00253856 -0.00819148 0)
(0.00257823 -0.00758391 0)
(0.00261538 -0.00698021 0)
(0.00264988 -0.00638098 0)
(0.00268167 -0.00578695 0)
(0.00271065 -0.00519863 0)
(0.00273677 -0.00461664 0)
(0.00275995 -0.00404152 0)
(0.00278016 -0.00347382 0)
(0.00279735 -0.00291408 0)
(0.00281151 -0.00236273 0)
(0.0028226 -0.00182019 0)
(0.00283063 -0.0012869 0)
(0.0028356 -0.000763232 0)
(0.00283752 -0.000249528 0)
(0.00283641 0.000253926 0)
(0.00283232 0.000746891 0)
(0.00282527 0.00122903 0)
(0.00281532 0.0017002 0)
(0.00280252 0.00216021 0)
(0.00278693 0.00260896 0)
(0.00276861 0.00304626 0)
(0.00274764 0.00347211 0)
(0.00272409 0.0038864 0)
(0.00269805 0.00428914 0)
(0.00266957 0.00468033 0)
(0.00263876 0.00505997 0)
(0.00260569 0.00542809 0)
(0.00257043 0.0057848 0)
(0.00253308 0.00613018 0)
(0.00249371 0.00646433 0)
(0.00245239 0.00678735 0)
(0.00240919 0.00709938 0)
(0.00236419 0.00740056 0)
(0.00231745 0.00769106 0)
(0.00226901 0.00797106 0)
(0.00221894 0.0082407 0)
(0.00216729 0.00850018 0)
(0.00211407 0.00874967 0)
(0.00205934 0.00898937 0)
(0.00200311 0.00921944 0)
(0.00194536 0.00944007 0)
(0.00188615 0.00965144 0)
(0.00182542 0.0098537 0)
(0.00176314 0.010047 0)
(0.0016993 0.0102316 0)
(0.00163378 0.0104074 0)
(0.00156661 0.0105747 0)
(0.00149755 0.0107334 0)
(0.00142659 0.0108837 0)
(0.00135356 0.0110256 0)
(0.00127833 0.0111589 0)
(0.0012006 0.0112834 0)
(0.00112033 0.0113991 0)
(0.00103709 0.0115053 0)
(0.000950901 0.0116017 0)
(0.000861807 0.0116879 0)
(0.000769061 0.011762 0)
(0.000674016 0.0118243 0)
(0.000576608 0.0118729 0)
(0.000476686 0.0119005 0)
(0.000378881 0.0119206 0)
(1.74293e-06 7.34572e-05 0)
(1.89989e-06 7.5752e-05 0)
(4.0511e-06 0.000158772 0)
(5.17755e-06 0.000211317 0)
(3.32679e-06 0.000136207 0)
(1.09589e-06 4.80745e-05 0)
(2.29317e-06 0.000100373 0)
(2.45337e-06 9.22569e-05 0)
(6.18644e-06 0.000241482 0)
(3.79591e-06 0.00016244 0)
(3.20021e-06 0.000144234 0)
(5.9416e-06 0.00025356 0)
(5.34747e-06 0.000199074 0)
(8.50202e-06 0.000319855 0)
(7.67265e-06 0.000311319 0)
(7.63755e-06 0.000328337 0)
(2.86235e-06 0.000138251 0)
(2.01366e-06 9.8937e-05 0)
(2.00224e-06 9.6168e-05 0)
(1.63934e-06 7.40087e-05 0)
(1.0132e-06 4.71318e-05 0)
(3.55783e-06 0.000124721 0)
(7.26975e-06 0.000256804 0)
(1.05127e-05 0.000414632 0)
(1.22388e-05 0.000449724 0)
(5.37266e-06 0.000249822 0)
(4.85206e-06 0.000216262 0)
(6.51853e-06 0.000291886 0)
(2.22803e-06 0.000104106 0)
(1.50691e-05 0.000608525 0)
(1.19904e-05 0.000495277 0)
(1.3115e-05 0.000510346 0)
(9.51367e-06 0.000401037 0)
(1.06918e-05 0.000471944 0)
(8.40529e-06 0.00037911 0)
(3.05545e-06 0.00015678 0)
(3.52695e-06 0.000175399 0)
(3.84969e-06 0.000197095 0)
(7.52414e-07 3.60332e-05 0)
(1.46761e-06 6.97388e-05 0)
(1.37504e-06 6.68056e-05 0)
(3.6088e-06 0.000116753 0)
(1.00628e-05 0.000357013 0)
(9.94326e-06 0.000331076 0)
(1.23776e-05 0.000427158 0)
(6.33725e-06 0.000211999 0)
(1.30293e-05 0.000566304 0)
(6.783e-06 0.000320002 0)
(6.70923e-06 0.000337727 0)
(5.53138e-06 0.000269338 0)
(5.47424e-06 0.000288066 0)
(5.37833e-06 0.000272556 0)
(2.58608e-06 0.000129269 0)
(1.87947e-06 9.43844e-05 0)
(2.12801e-06 0.000109366 0)
(6.82277e-07 3.35996e-05 0)
(7.60883e-06 0.000238895 0)
(1.93797e-05 0.000673644 0)
(1.57191e-05 0.000583809 0)
(1.54424e-05 0.000534486 0)
(1.51458e-05 0.000655508 0)
(1.76738e-05 0.000733379 0)
(1.38074e-05 0.000671662 0)
(1.2422e-05 0.000654455 0)
(1.20339e-05 0.000591583 0)
(7.43332e-06 0.000394913 0)
(6.31568e-06 0.00033672 0)
(4.52214e-06 0.000226054 0)
(2.59959e-06 0.000137257 0)
(1.3297e-06 6.76622e-05 0)
(1.36025e-06 6.76149e-05 0)
(4.35496e-06 0.000130023 0)
(1.98437e-05 0.000553746 0)
(2.45534e-05 0.000711716 0)
(2.08869e-05 0.000629594 0)
(1.84974e-05 0.000597218 0)
(1.66891e-05 0.000505913 0)
(2.33915e-05 0.000828746 0)
(1.87626e-05 0.000712334 0)
(1.60786e-05 0.000734082 0)
(1.36218e-05 0.000626224 0)
(1.01913e-05 0.000505817 0)
(8.92235e-06 0.000473287 0)
(8.47425e-06 0.000424666 0)
(4.64015e-06 0.000263596 0)
(3.68739e-06 0.000211765 0)
(4.40103e-06 0.000240135 0)
(9.01362e-07 4.52377e-05 0)
(4.22403e-07 2.12252e-05 0)
(5.54241e-06 0.000152086 0)
(6.24255e-06 0.000158801 0)
(9.44401e-06 0.000274376 0)
(1.27471e-05 0.000340146 0)
(1.42569e-05 0.000410822 0)
(1.41829e-05 0.000461947 0)
(1.20545e-05 0.000371425 0)
(2.85357e-05 0.000983113 0)
(2.65548e-05 0.000880177 0)
(2.38272e-05 0.000990864 0)
(1.95176e-05 0.000845715 0)
(2.1382e-05 0.000841709 0)
(6.38717e-06 0.000356536 0)
(7.55283e-06 0.000430134 0)
(1.49011e-05 0.000750637 0)
(5.43547e-06 0.000299497 0)
(3.53936e-06 0.000187806 0)
(4.54034e-06 0.000236144 0)
(2.79659e-06 0.000158521 0)
(2.75788e-06 0.0001505 0)
(3.44824e-06 0.000190409 0)
(1.42493e-06 7.60906e-05 0)
(1.44581e-06 7.53498e-05 0)
(1.94047e-06 0.000102291 0)
(9.00074e-07 4.65741e-05 0)
(9.2281e-07 4.86965e-05 0)
(7.11549e-07 3.62312e-05 0)
(2.68022e-07 1.36622e-05 0)
(2.13659e-05 0.000532553 0)
(2.72108e-05 0.000612864 0)
(3.23379e-05 0.000784594 0)
(2.99554e-05 0.000940968 0)
(3.36255e-05 0.00108107 0)
(2.50099e-05 0.000939149 0)
(2.78444e-05 0.00104551 0)
(2.03459e-05 0.000930185 0)
(1.86739e-05 0.000935699 0)
(1.76165e-05 0.000842002 0)
(1.59079e-05 0.000844115 0)
(1.34929e-05 0.000749289 0)
(1.14224e-05 0.000664023 0)
(1.06285e-05 0.000595309 0)
(9.4613e-06 0.00057535 0)
(6.99359e-06 0.000455553 0)
(7.9975e-06 0.000485119 0)
(8.05732e-06 0.000518825 0)
(5.3032e-06 0.000336037 0)
(4.1795e-06 0.000262611 0)
(5.06308e-06 0.000306086 0)
(2.04559e-06 0.000114245 0)
(2.03514e-06 0.000109958 0)
(1.3829e-06 7.58942e-05 0)
(1.29782e-06 7.35625e-05 0)
(8.03053e-07 4.33231e-05 0)
(4.71568e-07 2.43027e-05 0)
(1.06617e-05 0.000235675 0)
(1.17118e-05 0.000283635 0)
(1.82727e-05 0.000420451 0)
(2.03806e-05 0.000437579 0)
(3.95253e-05 0.000865008 0)
(4.28393e-05 0.00102551 0)
(3.68419e-05 0.0010722 0)
(2.89645e-05 0.00114881 0)
(2.19455e-05 0.0011359 0)
(1.94726e-05 0.00101963 0)
(2.17641e-05 0.00102901 0)
(8.54871e-06 0.000574282 0)
(1.15544e-05 0.00076726 0)
(1.39545e-05 0.000838284 0)
(1.25821e-05 0.000867931 0)
(6.07819e-06 0.000360062 0)
(5.34269e-06 0.000308501 0)
(4.37788e-06 0.00028858 0)
(1.97761e-06 0.000115365 0)
(2.82433e-06 0.000166202 0)
(6.72289e-07 3.72496e-05 0)
(4.45954e-07 2.37194e-05 0)
(5.00297e-07 2.61756e-05 0)
(2.05691e-07 1.05737e-05 0)
(8.59918e-08 4.40575e-06 0)
(1.98369e-07 1.03019e-05 0)
(1.45346e-05 0.000289247 0)
(3.12394e-05 0.000630099 0)
(5.34607e-05 0.00140646 0)
(5.11999e-05 0.00123528 0)
(6.06934e-05 0.00140862 0)
(5.38326e-05 0.00116722 0)
(3.91969e-05 0.00123555 0)
(3.34782e-05 0.00127401 0)
(3.01639e-05 0.00127974 0)
(2.55352e-05 0.00114281 0)
(2.61694e-05 0.00126863 0)
(1.50877e-05 0.00095623 0)
(1.31383e-05 0.000969753 0)
(7.39578e-06 0.000553263 0)
(8.81771e-06 0.000626798 0)
(8.15249e-06 0.000637451 0)
(9.70691e-06 0.000701503 0)
(8.77288e-06 0.000718136 0)
(5.85981e-06 0.000388512 0)
(6.11787e-06 0.00042886 0)
(5.25455e-06 0.000370803 0)
(3.31286e-06 0.000201841 0)
(3.245e-06 0.000208049 0)
(2.51708e-06 0.00016022 0)
(4.30886e-06 0.000315969 0)
(3.4796e-06 0.000254201 0)
(3.9514e-06 0.000274222 0)
(1.07618e-06 6.32371e-05 0)
(8.01114e-07 5.08617e-05 0)
(1.4159e-06 8.62539e-05 0)
(1.67344e-06 0.000106181 0)
(5.87264e-07 3.35708e-05 0)
(6.70818e-05 0.00165868 0)
(5.7552e-05 0.00162378 0)
(6.77732e-05 0.00129381 0)
(5.94143e-05 0.00103886 0)
(7.67941e-05 0.00130706 0)
(4.29589e-05 0.0015458 0)
(3.88275e-05 0.00135186 0)
(4.72994e-05 0.00145404 0)
(3.57372e-05 0.0014174 0)
(3.07241e-05 0.00141722 0)
(1.93272e-05 0.00117076 0)
(2.27385e-05 0.00125465 0)
(1.59223e-05 0.00107018 0)
(1.3276e-05 0.00107563 0)
(6.21481e-06 0.000466417 0)
(5.15395e-06 0.000389375 0)
(6.10033e-06 0.00062462 0)
(7.57265e-06 0.000733757 0)
(5.60065e-06 0.000685055 0)
(4.11504e-06 0.000328743 0)
(5.95529e-06 0.000492388 0)
(3.09191e-06 0.000217276 0)
(2.59844e-06 0.000174526 0)
(3.57395e-06 0.000237648 0)
(2.29785e-06 0.000140097 0)
(4.6485e-07 2.74087e-05 0)
(6.35019e-07 3.86915e-05 0)
(6.6675e-05 0.00140634 0)
(7.99063e-05 0.00160207 0)
(7.13769e-05 0.00157778 0)
(4.50525e-05 0.00171312 0)
(5.26598e-05 0.00171382 0)
(5.03849e-05 0.00185506 0)
(1.68155e-05 0.000940154 0)
(1.80805e-05 0.00104952 0)
(4.19491e-05 0.00184192 0)
(4.19713e-05 0.00204119 0)
(3.38672e-05 0.00190119 0)
(1.05195e-05 0.00078897 0)
(9.34853e-06 0.000794311 0)
(6.83736e-06 0.000574136 0)
(5.38594e-06 0.00043072 0)
(4.67169e-06 0.000381971 0)
(4.86653e-06 0.000419478 0)
(3.88603e-06 0.000343127 0)
(2.25778e-06 0.000161562 0)
(1.86873e-06 0.000142422 0)
(1.58488e-06 0.00011512 0)
(1.11749e-06 7.39565e-05 0)
(1.66564e-06 0.0001363 0)
(1.17581e-06 9.2849e-05 0)
(1.441e-05 0.000256546 0)
(3.4346e-05 0.000535338 0)
(4.8404e-05 0.000787865 0)
(3.01718e-05 0.000513242 0)
(9.45751e-05 0.00149534 0)
(8.88305e-05 0.00158224 0)
(6.61514e-05 0.001873 0)
(7.76617e-05 0.00190557 0)
(8.04339e-05 0.00211551 0)
(7.23683e-05 0.00111479 0)
(0.00011091 0.00183073 0)
(6.77219e-05 0.00214844 0)
(1.02509e-05 0.00105796 0)
(1.08312e-05 0.000961665 0)
(1.31307e-05 0.00119149 0)
(1.64133e-05 0.00129641 0)
(1.31413e-05 0.00134226 0)
(3.22475e-05 0.00170756 0)
(5.16292e-06 0.000524418 0)
(5.04912e-06 0.00046636 0)
(5.85213e-06 0.000528301 0)
(7.29434e-06 0.000646675 0)
(2.64943e-06 0.000234162 0)
(3.31653e-06 0.000279444 0)
(3.12471e-06 0.000280482 0)
(9.47028e-07 6.78263e-05 0)
(7.39675e-07 5.08801e-05 0)
(1.60469e-06 0.00011077 0)
(3.30966e-06 0.000258436 0)
(2.74537e-06 0.000228419 0)
(2.40403e-06 0.000191995 0)
(2.73713e-06 0.000204432 0)
(2.61617e-05 0.000485308 0)
(8.17412e-05 0.00179751 0)
(5.03057e-05 0.000734692 0)
(4.26371e-05 0.000559316 0)
(7.44207e-05 0.00100353 0)
(0.000116273 0.00171477 0)
(9.99535e-05 0.00140182 0)
(3.87214e-05 0.00244646 0)
(3.31516e-05 0.00212655 0)
(4.76115e-05 0.00224972 0)
(4.61786e-06 0.00137462 0)
(1.00958e-05 0.00146238 0)
(5.75005e-06 0.0015638 0)
(7.04273e-06 0.000809338 0)
(8.38745e-06 0.000928975 0)
(6.46871e-06 0.000876957 0)
(1.61245e-05 0.00186819 0)
(2.53024e-05 0.00190883 0)
(2.15938e-05 0.002049 0)
(5.27626e-05 0.00205652 0)
(5.24005e-06 0.000778054 0)
(4.12739e-06 0.000426689 0)
(9.00403e-06 0.000851288 0)
(2.66739e-06 0.000249031 0)
(3.08043e-06 0.000294263 0)
(2.45434e-06 0.000243807 0)
(2.74791e-06 0.000289625 0)
(3.21617e-06 0.000354332 0)
(2.61095e-06 0.000302593 0)
(1.13833e-06 8.54216e-05 0)
(5.93239e-07 4.5821e-05 0)
(5.44682e-07 4.0256e-05 0)
(2.0678e-06 0.000178674 0)
(1.37053e-06 0.000119479 0)
(6.56599e-07 5.30167e-05 0)
(1.71914e-05 0.000274984 0)
(2.45969e-05 0.000354169 0)
(7.61686e-05 0.0027123 0)
(9.08768e-05 0.00257025 0)
(0.000100826 0.00287771 0)
(0.000138797 0.00206747 0)
(0.000146851 0.00236939 0)
(0.000124728 0.0021638 0)
(7.28225e-05 0.00243015 0)
(6.01387e-05 0.00228322 0)
(9.53983e-06 0.00117201 0)
(8.01857e-06 0.00128697 0)
(4.09705e-06 0.0012086 0)
(4.00403e-06 0.0010606 0)
(6.50387e-06 0.00114639 0)
(1.24995e-05 0.00165947 0)
(2.71381e-05 0.00176593 0)
(6.70244e-06 0.00100422 0)
(5.00802e-06 0.000866762 0)
(3.47372e-06 0.00040614 0)
(4.07879e-06 0.000477181 0)
(4.82125e-06 0.000570508 0)
(4.25745e-06 0.000597865 0)
(1.98629e-06 0.000203454 0)
(2.05135e-06 0.000194132 0)
(2.11038e-06 0.000244685 0)
(3.56888e-06 0.000352428 0)
(1.05382e-06 9.77098e-05 0)
(1.59372e-06 0.000145583 0)
(1.40582e-06 0.000135872 0)
(4.68331e-07 3.95096e-05 0)
(1.02814e-06 8.57871e-05 0)
(7.89229e-07 6.95401e-05 0)
(9.97808e-05 0.00192192 0)
(9.6261e-05 0.00235339 0)
(0.000112823 0.00265102 0)
(0.000173711 0.0024916 0)
(6.27977e-05 0.000668507 0)
(0.000103892 0.00112945 0)
(7.09689e-05 0.000850285 0)
(0.000105971 0.00130675 0)
(0.000147797 0.00164091 0)
(0.000134552 0.00175749 0)
(3.47647e-05 0.00290659 0)
(5.33056e-05 0.0027805 0)
(5.12659e-05 0.00311741 0)
(2.28586e-05 0.0022552 0)
(-1.92862e-07 0.00125342 0)
(6.6572e-08 0.00145811 0)
(-4.27623e-06 0.00136116 0)
(2.18388e-05 0.00250353 0)
(1.52434e-06 0.000832738 0)
(3.6585e-06 0.000917166 0)
(1.40174e-06 0.000974584 0)
(3.17385e-06 0.000422534 0)
(3.21948e-06 0.000758224 0)
(2.85799e-06 0.000630607 0)
(4.06519e-06 0.000668025 0)
(2.72802e-06 0.000344229 0)
(3.3602e-05 0.000393886 0)
(0.000159117 0.00267255 0)
(0.000136469 0.00245064 0)
(0.000132565 0.00303011 0)
(0.000286265 0.00352611 0)
(0.000236118 0.00331031 0)
(0.000264544 0.00308875 0)
(9.4697e-05 0.000908918 0)
(4.48331e-05 0.000424958 0)
(0.000187467 0.00176691 0)
(0.000244034 0.00233924 0)
(0.000196631 0.00212691 0)
(1.24351e-05 0.0027627 0)
(1.05496e-05 0.00251825 0)
(7.97899e-05 0.00306192 0)
(-1.7023e-06 0.00104625 0)
(1.49486e-06 0.00111061 0)
(6.29823e-06 0.0017924 0)
(1.09759e-05 0.00206182 0)
(7.20494e-07 0.00195929 0)
(6.18054e-07 0.00163255 0)
(-3.01583e-06 0.00177783 0)
(1.05708e-05 0.00232882 0)
(-2.3885e-06 0.00246512 0)
(-8.87867e-07 0.00217213 0)
(-7.35387e-07 0.000874566 0)
(3.09142e-06 0.000547726 0)
(2.70906e-06 0.000440337 0)
(3.69008e-06 0.000509882 0)
(2.02942e-06 0.000538269 0)
(1.58619e-06 0.000161969 0)
(1.00417e-06 9.80722e-05 0)
(1.64473e-06 0.000182369 0)
(1.60816e-06 0.00019563 0)
(3.4266e-07 3.03183e-05 0)
(4.62133e-07 4.29783e-05 0)
(0.000110863 0.00320156 0)
(0.00019354 0.00237881 0)
(0.000217299 0.00281725 0)
(0.000167451 0.00201138 0)
(0.000162104 0.00214323 0)
(2.80978e-05 0.000296164 0)
(0.000135484 0.00134002 0)
(0.000309116 0.0025663 0)
(0.000354641 0.00317641 0)
(0.000289197 0.00286509 0)
(-3.46539e-05 0.00293497 0)
(-1.39538e-05 0.00272975 0)
(-6.88943e-06 0.00306479 0)
(7.14691e-05 0.00337681 0)
(4.17278e-05 0.00341315 0)
(-1.48302e-05 0.00223375 0)
(-5.9994e-06 0.00155677 0)
(-9.93479e-06 0.00134225 0)
(-1.93235e-05 0.00247188 0)
(-9.90957e-06 0.00196275 0)
(-9.95054e-08 0.00073791 0)
(-2.35081e-06 0.000741113 0)
(-8.99893e-07 0.000614337 0)
(1.26476e-06 0.000438829 0)
(2.05111e-06 0.000446058 0)
(1.01223e-06 0.000530356 0)
(1.1367e-06 0.000129125 0)
(8.28115e-07 9.44713e-05 0)
(9.45588e-07 0.000102957 0)
(7.06442e-07 7.4598e-05 0)
(4.0828e-07 4.22925e-05 0)
(7.11792e-07 7.1654e-05 0)
(2.01492e-06 0.00028404 0)
(1.76741e-06 0.000230842 0)
(2.24058e-06 0.00028097 0)
(1.25422e-06 0.000276109 0)
(1.6602e-06 0.00028139 0)
(1.89131e-06 0.000358695 0)
(0.000119662 0.00350888 0)
(9.52176e-05 0.00335349 0)
(0.00030058 0.00391248 0)
(0.000265147 0.00402787 0)
(0.000263178 0.00370308 0)
(0.000318255 0.00335285 0)
(0.000334795 0.00376912 0)
(7.82826e-05 0.000659397 0)
(0.000138949 0.00121334 0)
(0.000131168 0.000991149 0)
(5.45026e-05 0.000395736 0)
(0.000296905 0.00184869 0)
(0.00039409 0.00226213 0)
(0.000352756 0.00242798 0)
(5.23255e-06 0.00343622 0)
(2.32392e-05 0.00312787 0)
(-8.13929e-06 0.000914627 0)
(-1.24894e-05 0.00101988 0)
(-9.57665e-06 0.00076072 0)
(-3.05412e-06 0.000899925 0)
(-2.41046e-05 0.00151334 0)
(-2.26502e-05 0.00174045 0)
(-3.24559e-05 0.00179044 0)
(-1.51063e-05 0.00158186 0)
(-3.46649e-05 0.0026068 0)
(-3.09374e-05 0.00230142 0)
(-2.41953e-05 0.0019965 0)
(-2.30597e-06 0.000566717 0)
(1.32959e-06 0.000353645 0)
(9.93805e-08 0.000318749 0)
(7.12856e-07 0.000340397 0)
(4.4713e-07 0.00042433 0)
(8.56211e-07 0.000103129 0)
(1.2515e-06 0.000151102 0)
(6.18497e-07 6.86739e-05 0)
(7.16084e-07 6.90643e-05 0)
(3.69182e-07 3.64468e-05 0)
(1.37836e-06 0.000209621 0)
(9.80011e-07 0.000145854 0)
(1.25643e-06 0.000167444 0)
(6.16576e-07 0.00013005 0)
(1.08869e-06 0.000206565 0)
(7.5061e-07 0.000190858 0)
(0.000194562 0.00385886 0)
(0.000177215 0.0040693 0)
(0.000155687 0.00370721 0)
(0.000392783 0.00441705 0)
(0.00042152 0.00476001 0)
(0.000370493 0.00471293 0)
(0.00050652 0.00378317 0)
(0.000473581 0.00332625 0)
(0.000538627 0.00355452 0)
(0.000269049 0.0019822 0)
(0.000198828 0.00133671 0)
(3.00149e-06 0.00377361 0)
(-2.15997e-05 0.00361075 0)
(-8.9874e-05 0.00295419 0)
(-7.57035e-05 0.00333521 0)
(-0.000120097 0.00335509 0)
(9.52868e-05 0.00361477 0)
(9.67993e-05 0.00395329 0)
(6.5782e-05 0.00367735 0)
(-1.64053e-05 0.00137261 0)
(-9.15468e-06 0.00111578 0)
(-5.39923e-06 0.00100218 0)
(-1.06725e-06 0.000483602 0)
(-5.77568e-05 0.00275771 0)
(-5.04399e-05 0.00240708 0)
(-4.1192e-05 0.00207907 0)
(-1.78414e-06 0.000415247 0)
(8.06356e-07 0.000263094 0)
(-4.62807e-08 0.000514538 0)
(-3.31689e-07 0.000401541 0)
(6.10169e-07 9.5367e-05 0)
(7.7791e-07 0.000107536 0)
(4.9137e-07 6.53197e-05 0)
(7.23262e-07 9.27098e-05 0)
(4.66508e-07 5.01633e-05 0)
(8.52436e-07 0.000145287 0)
(4.28218e-07 0.000173165 0)
(0.000159882 0.00450564 0)
(0.000192094 0.00436279 0)
(0.000196635 0.00465203 0)
(0.000443849 0.00454568 0)
(0.00049444 0.00448033 0)
(0.000473051 0.00479918 0)
(0.000443008 0.00281973 0)
(0.00052762 0.00316813 0)
(0.000234132 0.00135139 0)
(0.000141134 0.000825113 0)
(0.000108193 0.000715903 0)
(0.00050763 0.00263597 0)
(0.000431085 0.00208405 0)
(0.000522205 0.0021534 0)
(3.30065e-05 0.00370493 0)
(-3.51894e-05 0.00331133 0)
(-5.55846e-05 0.00365191 0)
(3.03898e-05 0.00453841 0)
(2.50939e-05 0.00477684 0)
(-1.35131e-05 0.00465483 0)
(-3.42241e-05 0.00157418 0)
(-6.55639e-06 0.000743815 0)
(-4.21485e-06 0.00065378 0)
(-3.1902e-06 0.000477028 0)
(-3.9057e-05 0.00143671 0)
(-2.81536e-05 0.00131912 0)
(-0.000126379 0.00297574 0)
(-0.000110599 0.00258588 0)
(-6.10291e-05 0.00215276 0)
(-4.69926e-05 0.00178847 0)
(3.5769e-07 0.00024522 0)
(-3.42484e-07 0.000145589 0)
(-1.33674e-08 0.000100685 0)
(-4.94167e-08 0.000210635 0)
(2.91958e-07 3.78081e-05 0)
(4.96323e-07 6.15044e-05 0)
(5.89484e-07 6.88696e-05 0)
(4.33742e-07 4.95164e-05 0)
(3.04316e-07 3.59351e-05 0)
(1.40526e-07 1.56936e-05 0)
(3.60279e-07 3.99332e-05 0)
(2.87669e-07 3.27599e-05 0)
(2.33369e-07 2.50294e-05 0)
(1.48392e-07 8.77547e-05 0)
(3.13393e-07 9.21427e-05 0)
(0.000420806 0.00390971 0)
(0.000384256 0.00402496 0)
(0.000374604 0.00363897 0)
(0.000394865 0.00299619 0)
(0.000429118 0.00356351 0)
(0.000613156 0.00456005 0)
(0.000554023 0.00460354 0)
(0.000547263 0.00423732 0)
(0.000586325 0.00308301 0)
(0.000204969 0.00103373 0)
(0.000145545 0.000612621 0)
(0.000275386 0.00119858 0)
(-6.91638e-05 0.00416067 0)
(-8.40975e-05 0.00388719 0)
(-5.3652e-05 0.00394243 0)
(-5.90247e-05 0.00307043 0)
(6.10886e-05 0.00472437 0)
(4.81244e-05 0.0049673 0)
(-1.8988e-05 0.00120093 0)
(-2.2014e-05 0.00103574 0)
(-1.52302e-05 0.000912157 0)
(-7.19315e-06 0.000504992 0)
(-1.13788e-05 0.000657811 0)
(-4.14279e-06 0.000346532 0)
(-5.49626e-06 0.000552424 0)
(-6.60264e-05 0.00187473 0)
(-5.25389e-05 0.00155403 0)
(-8.45908e-05 0.00220714 0)
(-7.60433e-05 0.00252097 0)
(-4.51681e-07 0.000287523 0)
(-1.03112e-06 0.000276505 0)
(3.91266e-07 5.64535e-05 0)
(2.3826e-07 3.24546e-05 0)
(2.34224e-07 3.80802e-05 0)
(1.82385e-07 2.09605e-05 0)
(2.07904e-07 2.58238e-05 0)
(2.71773e-07 6.0212e-05 0)
(4.29883e-07 7.86198e-05 0)
(0.000211897 0.00585196 0)
(0.000246764 0.0057095 0)
(0.000258009 0.00593586 0)
(0.000399828 0.0050426 0)
(0.000345774 0.00494803 0)
(0.000610333 0.00631256 0)
(0.000606556 0.00606753 0)
(0.000656591 0.00621329 0)
(0.000577511 0.00389935 0)
(0.000611989 0.00421734 0)
(0.00062794 0.00277258 0)
(0.000650421 0.00326628 0)
(9.80089e-05 0.000502506 0)
(0.000487838 0.0015306 0)
(0.000392747 0.0016206 0)
(-0.000152134 0.00484366 0)
(-0.000207694 0.00475639 0)
(-0.000180234 0.00450207 0)
(-9.29709e-05 0.00361424 0)
(4.70159e-05 0.00597412 0)
(6.69353e-05 0.0057605 0)
(9.85167e-05 0.00596999 0)
(-1.63079e-05 0.000767533 0)
(-2.21075e-05 0.000842337 0)
(-1.4334e-05 0.000567011 0)
(-2.94073e-05 0.000913883 0)
(-3.03434e-05 0.00113261 0)
(-1.89117e-06 0.000304367 0)
(-3.08593e-06 0.00034601 0)
(-4.08118e-05 0.00122871 0)
(-0.000107741 0.00216874 0)
(-0.00012719 0.00203857 0)
(-9.92822e-05 0.0018261 0)
(-1.34356e-06 0.00016617 0)
(-7.69992e-07 0.000146867 0)
(1.73431e-07 0.000163154 0)
(6.44409e-08 7.38768e-06 0)
(1.25321e-07 1.50754e-05 0)
(1.07477e-07 1.25741e-05 0)
(0.000412114 0.0066252 0)
(0.000379314 0.00640994 0)
(0.000425568 0.00635926 0)
(0.000528425 0.00484333 0)
(0.00058794 0.00487463 0)
(0.000775866 0.00375793 0)
(0.000730704 0.00411549 0)
(0.000692218 0.00365876 0)
(0.000729097 0.00324369 0)
(0.000288685 0.000993749 0)
(0.00032192 0.00165002 0)
(-0.000249999 0.00403187 0)
(-0.00019999 0.00416153 0)
(-0.000242418 0.00443698 0)
(-0.000208706 0.00378655 0)
(-0.000253339 0.00363956 0)
(-0.00020741 0.00333798 0)
(-0.000184646 0.00292742 0)
(-0.000159609 0.00316504 0)
(0.000179047 0.00600712 0)
(0.000140635 0.0061721 0)
(0.000139414 0.00593505 0)
(-1.15617e-05 0.000548088 0)
(-2.45622e-05 0.000660984 0)
(-1.86242e-05 0.000604256 0)
(-7.60027e-06 0.000411974 0)
(-4.09016e-06 0.000266458 0)
(-2.16159e-06 0.000205788 0)
(-3.88941e-05 0.000991908 0)
(-5.11681e-05 0.00107035 0)
(-3.1417e-05 0.000706222 0)
(-0.000149903 0.00275933 0)
(-7.49037e-05 0.00149067 0)
(-9.96911e-05 0.00153961 0)
(-6.53624e-05 0.00111309 0)
(0.000438577 0.00584079 0)
(0.00049154 0.00574614 0)
(0.000483194 0.00601292 0)
(0.00086288 0.00393493 0)
(0.000828443 0.0034258 0)
(0.000706149 0.00116797 0)
(0.000637174 0.00162039 0)
(0.000525719 0.00113545 0)
(0.000994329 0.00295777 0)
(0.00103143 0.00243347 0)
(0.00108455 0.00293741 0)
(0.00013228 0.00044195 0)
(0.000355451 0.000893666 0)
(-0.000203787 0.00529617 0)
(-0.000218126 0.00501742 0)
(-0.000173274 0.00510924 0)
(-0.000181237 0.00552785 0)
(-0.000147308 0.00538381 0)
(-7.63229e-06 0.000329525 0)
(-8.74998e-06 0.000303832 0)
(-1.15798e-05 0.000329328 0)
(-3.21921e-06 0.000164153 0)
(-2.11261e-06 0.000165563 0)
(-0.000256939 0.00215014 0)
(-0.00018975 0.002008 0)
(-0.000236068 0.00253506 0)
(-0.000141316 0.00182099 0)
(-0.000109145 0.00137408 0)
(2.6976e-05 0.00790037 0)
(1.60473e-05 0.00807886 0)
(-2.94927e-05 0.0079479 0)
(0.000359481 0.00719045 0)
(0.00034837 0.00740312 0)
(0.000307102 0.0072572 0)
(0.00118298 0.0056394 0)
(0.00126207 0.00539862 0)
(0.00124768 0.00579002 0)
(0.000888116 0.00298686 0)
(0.000867923 0.00244578 0)
(0.000943221 0.00259661 0)
(0.000885852 0.00150975 0)
(0.000784592 0.00195853 0)
(0.001012 0.00179114 0)
(0.000922646 0.00212476 0)
(0.000199839 0.000552667 0)
(0.000401489 0.000716979 0)
(0.000535721 0.00075897 0)
(-0.000360266 0.00473129 0)
(-0.000428475 0.00458862 0)
(-0.000389453 0.00435278 0)
(-0.000188026 0.00493378 0)
(-9.41118e-05 0.00854213 0)
(-0.000153299 0.00838619 0)
(-9.43689e-05 0.00834637 0)
(-2.09174e-05 0.000360059 0)
(-3.90251e-05 0.000728975 0)
(-4.57919e-05 0.000709768 0)
(-1.67443e-05 0.000407036 0)
(-0.000135174 0.00240945 0)
(-0.000174863 0.00243102 0)
(-0.000275157 0.00300603 0)
(-0.000222697 0.00291842 0)
(-7.61155e-05 0.00105599 0)
(0.00071717 0.0079207 0)
(0.00076285 0.00808858 0)
(0.000683895 0.00818135 0)
(0.000860601 0.00743613 0)
(0.000944448 0.00723154 0)
(0.000913661 0.00752454 0)
(0.0015481 0.00217357 0)
(0.00148291 0.00262431 0)
(0.00146561 0.0021124 0)
(0.000986879 0.00124742 0)
(0.000878355 0.000735782 0)
(0.000211862 0.000401894 0)
(0.000166107 0.000175491 0)
(0.000634721 0.000374793 0)
(-0.000565687 0.00542603 0)
(-0.000627395 0.00528424 0)
(-0.000608208 0.00505164 0)
(-0.000595381 0.00349347 0)
(-0.00052368 0.0036307 0)
(-0.000575719 0.00390322 0)
(-0.000314453 0.0066897 0)
(-0.000367709 0.00668773 0)
(-0.000363219 0.00652018 0)
(0.000288171 0.00855213 0)
(0.000205952 0.00860154 0)
(0.000231119 0.00841086 0)
(-0.000250377 0.00680063 0)
(-0.000269329 0.00653781 0)
(-0.000202717 0.00668025 0)
(-1.74758e-05 0.000362203 0)
(-0.000143366 0.00101349 0)
(-0.000181841 0.00155852 0)
(-0.000232093 0.00158803 0)
(-0.000381365 0.00214551 0)
(-0.000375179 0.00164119 0)
(-0.000290594 0.00158533 0)
(-4.51286e-05 0.000584927 0)
(-8.3653e-05 0.00093161 0)
(0.000181539 0.00930865 0)
(0.000193269 0.00915813 0)
(0.000240365 0.00927671 0)
(0.00137539 0.00831502 0)
(0.00137242 0.00809003 0)
(0.00143556 0.0080961 0)
(0.00164543 0.00429873 0)
(0.00158073 0.00482556 0)
(0.00156939 0.00433014 0)
(0.00172616 0.0063068 0)
(0.00177584 0.00591985 0)
(0.00181848 0.00606137 0)
(0.000920606 -0.00117315 0)
(0.000841604 -0.000216428 0)
(0.000736084 -0.000854274 0)
(0.001026 0.000216978 0)
(0.00115945 0.000650483 0)
(0.00103489 0.000841674 0)
(0.000378008 0.000369002 0)
(0.000228846 2.37847e-05 0)
(0.000452719 3.92337e-05 0)
(-0.000905045 0.0031816 0)
(-0.000900712 0.00353181 0)
(-0.000958942 0.00334382 0)
(-0.000533381 0.0031768 0)
(-0.000350864 0.009039 0)
(-0.000305006 0.00919663 0)
(-0.000380843 0.00915585 0)
(-0.000995583 0.00700575 0)
(-0.000919097 0.00733786 0)
(-0.000990773 0.00728329 0)
(-2.30718e-05 0.000337497 0)
(-0.000115103 0.00103244 0)
(-0.000304969 0.0020182 0)
(-5.42297e-05 0.000511949 0)
(-3.70409e-05 0.00041115 0)
(0.000729985 0.00951125 0)
(0.000736927 0.00967538 0)
(0.0006755 0.00964306 0)
(0.00136317 0.00658876 0)
(0.00142389 0.0066067 0)
(0.00135788 0.00685889 0)
(0.00113581 0.0100777 0)
(0.00110476 0.00998995 0)
(0.00115938 0.00989593 0)
(0.00156697 0.00310745 0)
(0.00164089 0.00274437 0)
(0.00161148 0.00340402 0)
(0.00211842 0.000399026 0)
(0.00219827 1.59498e-05 0)
(0.00218897 0.000721678 0)
(0.00126076 0.000264872 0)
(0.00130361 -0.000320031 0)
(0.00137559 0.000287584 0)
(0.000604742 -0.000298646 0)
(0.00138057 -0.00326667 0)
(0.001471 -0.00265819 0)
(0.00136717 -0.00247247 0)
(0.000383375 -0.000294033 0)
(-0.000511007 0.00576593 0)
(-0.000553665 0.00592482 0)
(-0.000573191 0.0056783 0)
(-0.000751479 0.00435354 0)
(-0.000799734 0.00460586 0)
(-0.000818513 0.00421847 0)
(-0.000786447 0.00174526 0)
(-0.00079572 0.00220712 0)
(-0.000883914 0.00196478 0)
(-0.000874879 0.00638108 0)
(-0.000936284 0.00600083 0)
(-0.000871104 0.0061327 0)
(-0.000653956 0.00906546 0)
(-0.000581177 0.00907714 0)
(-0.000581757 0.00924554 0)
(-0.000108347 0.000592613 0)
(-6.61331e-05 0.000453433 0)