/*--------------------------------*- C++ -*----------------------------------*\
| =========                 |                                                 |
| \\      /  F ield         | OpenFOAM: The Open Source CFD Toolbox           |
|  \\    /   O peration     | Version:  v2012                                 |
|   \\  /    A nd           | Website:  www.openfoam.com                      |
|    \\/     M anipulation  |                                                 |
\*---------------------------------------------------------------------------*/
FoamFile
{
    version     2.0;
    format      ascii;
    class       volScalarField;
    location    "1.7";
    object      rAU;
}
// * * * * * * * * * * * * * * * * * * * * * * * * * * * * * * * * * * * * * //

dimensions      [-1 3 1 0 0 0 0];


internalField   nonuniform List<scalar> 
13611
(
2.65556e-08
2.64923e-08
2.65202e-08
2.65185e-08
2.65175e-08
2.65559e-08
2.6527e-08
2.65443e-08
2.6556e-08
2.6508e-08
2.65456e-08
2.65391e-08
2.64779e-08
2.65457e-08
2.65451e-08
2.64933e-08
2.65468e-08
2.6556e-08
2.65421e-08
2.6558e-08
2.65363e-08
2.64875e-08
2.65556e-08
2.65465e-08
2.6494e-08
2.65454e-08
2.6552e-08
2.65258e-08
2.65575e-08
2.65362e-08
2.65166e-08
2.65403e-08
2.65332e-08
2.6492e-08
2.65434e-08
2.65461e-08
2.65533e-08
2.65561e-08
2.65262e-08
2.65488e-08
2.65316e-08
2.64939e-08
2.64623e-08
2.65344e-08
2.654e-08
2.65551e-08
2.6492e-08
2.65431e-08
2.65496e-08
2.65253e-08
2.65438e-08
2.65267e-08
2.65483e-08
2.65341e-08
2.65355e-08
2.65521e-08
2.64662e-08
2.64928e-08
2.6508e-08
2.65405e-08
2.65454e-08
2.65483e-08
2.6528e-08
2.65498e-08
2.65476e-08
2.65565e-08
2.65272e-08
2.65503e-08
2.65346e-08
2.65349e-08
2.65571e-08
2.65119e-08
2.65078e-08
2.65416e-08
2.65552e-08
2.65453e-08
2.65477e-08
2.6528e-08
2.65098e-08
2.64995e-08
2.65506e-08
2.65366e-08
2.65502e-08
2.65335e-08
2.65365e-08
2.6495e-08
2.64903e-08
2.65539e-08
2.6533e-08
2.65007e-08
2.65352e-08
2.65434e-08
2.65587e-08
2.65314e-08
2.65036e-08
2.64783e-08
2.65231e-08
2.65546e-08
2.65563e-08
2.65373e-08
2.64776e-08
2.6538e-08
2.65386e-08
2.65076e-08
2.64722e-08
2.64567e-08
2.65518e-08
2.65334e-08
2.65076e-08
2.65333e-08
2.65549e-08
2.6546e-08
2.65552e-08
2.65226e-08
2.65351e-08
2.64672e-08
2.65186e-08
2.65254e-08
2.65458e-08
2.65466e-08
2.64818e-08
2.64884e-08
2.6532e-08
2.6504e-08
2.64908e-08
2.6516e-08
2.65126e-08
2.65574e-08
2.65485e-08
2.65147e-08
2.6485e-08
2.65138e-08
2.65035e-08
2.64841e-08
2.6529e-08
2.6534e-08
2.65021e-08
2.65474e-08
2.65258e-08
2.65563e-08
2.65484e-08
2.64906e-08
2.65354e-08
2.65295e-08
2.65188e-08
2.65199e-08
2.65215e-08
2.65238e-08
2.65577e-08
2.65426e-08
2.65215e-08
2.65128e-08
2.65136e-08
2.65325e-08
2.65192e-08
2.64983e-08
2.65407e-08
2.65136e-08
2.65421e-08
2.65199e-08
2.65167e-08
2.65467e-08
2.65527e-08
2.64773e-08
2.65346e-08
2.65406e-08
2.65379e-08
2.65353e-08
2.65278e-08
2.65144e-08
2.64858e-08
2.65423e-08
2.64976e-08
2.6526e-08
2.65094e-08
2.65135e-08
2.65526e-08
2.65043e-08
2.65091e-08
2.64752e-08
2.65479e-08
2.65334e-08
2.65218e-08
2.65148e-08
2.65483e-08
2.65212e-08
2.65566e-08
2.65514e-08
2.65283e-08
2.65063e-08
2.65431e-08
2.65228e-08
2.65169e-08
2.65198e-08
2.65096e-08
2.64863e-08
2.65419e-08
2.65289e-08
2.65418e-08
2.65131e-08
2.65208e-08
2.64997e-08
2.652e-08
2.65236e-08
2.65379e-08
2.65327e-08
2.64911e-08
2.65171e-08
2.6542e-08
2.64974e-08
2.65394e-08
2.6511e-08
2.65172e-08
2.65355e-08
2.65402e-08
2.64934e-08
2.65364e-08
2.65189e-08
2.64843e-08
2.65172e-08
2.65487e-08
2.65414e-08
2.65526e-08
2.65075e-08
2.65278e-08
2.6523e-08
2.65221e-08
2.65248e-08
2.65499e-08
2.64947e-08
2.65417e-08
2.65238e-08
2.6527e-08
2.65035e-08
2.65366e-08
2.65472e-08
2.65349e-08
2.64954e-08
2.65566e-08
2.65289e-08
2.6518e-08
2.65172e-08
2.65192e-08
2.65394e-08
2.65373e-08
2.6526e-08
2.65189e-08
2.6526e-08
2.65124e-08
2.65441e-08
2.65452e-08
2.65529e-08
2.65239e-08
2.65254e-08
2.65215e-08
2.65223e-08
2.65177e-08
2.64986e-08
2.65339e-08
2.65403e-08
2.65384e-08
2.6542e-08
2.65224e-08
2.65266e-08
2.65239e-08
2.65196e-08
2.65386e-08
2.65519e-08
2.64882e-08
2.65057e-08
2.64849e-08
2.65079e-08
2.65165e-08
2.65015e-08
2.64843e-08
2.65357e-08
2.64794e-08
2.64825e-08
2.65471e-08
2.65275e-08
2.65374e-08
2.65212e-08
2.65074e-08
2.64854e-08
2.65294e-08
2.64961e-08
2.6542e-08
2.65307e-08
2.65234e-08
2.65105e-08
2.65503e-08
2.64819e-08
2.65073e-08
2.65431e-08
2.65444e-08
2.6523e-08
2.65187e-08
2.65386e-08
2.65536e-08
2.65025e-08
2.65182e-08
2.6515e-08
2.65289e-08
2.65356e-08
2.65148e-08
2.64682e-08
2.65036e-08
2.65346e-08
2.64809e-08
2.65456e-08
2.65392e-08
2.65376e-08
2.65182e-08
2.65119e-08
2.65075e-08
2.65296e-08
2.65062e-08
2.64919e-08
2.65254e-08
2.64994e-08
2.65259e-08
2.65141e-08
2.65147e-08
2.64954e-08
2.65229e-08
2.65177e-08
2.65138e-08
2.65342e-08
2.65583e-08
2.65274e-08
2.65358e-08
2.65185e-08
2.65421e-08
2.65183e-08
2.65574e-08
2.65112e-08
2.65069e-08
2.65344e-08
2.65229e-08
2.65361e-08
2.65234e-08
2.65414e-08
2.65258e-08
2.65207e-08
2.65391e-08
2.65242e-08
2.65065e-08
2.65118e-08
2.65036e-08
2.65298e-08
2.65457e-08
2.64894e-08
2.65167e-08
2.65046e-08
2.65612e-08
2.65207e-08
2.65002e-08
2.65342e-08
2.64863e-08
2.6497e-08
2.65183e-08
2.64946e-08
2.65152e-08
2.65114e-08
2.65581e-08
2.65359e-08
2.65261e-08
2.65108e-08
2.64862e-08
2.65418e-08
2.64697e-08
2.65431e-08
2.65247e-08
2.64946e-08
2.64868e-08
2.65138e-08
2.65013e-08
2.65406e-08
2.65066e-08
2.65232e-08
2.6526e-08
2.65226e-08
2.65101e-08
2.65256e-08
2.65182e-08
2.65157e-08
2.64819e-08
2.65314e-08
2.6549e-08
2.64823e-08
2.65031e-08
2.65617e-08
2.64995e-08
2.65208e-08
2.65204e-08
2.65517e-08
2.65228e-08
2.65235e-08
2.65261e-08
2.65201e-08
2.65034e-08
2.65202e-08
2.65181e-08
2.65324e-08
2.65296e-08
2.6537e-08
2.64761e-08
2.65107e-08
2.65113e-08
2.65416e-08
2.65575e-08
2.65183e-08
2.65241e-08
2.65326e-08
2.65178e-08
2.64821e-08
2.64955e-08
2.6511e-08
2.65131e-08
2.65029e-08
2.64869e-08
2.65181e-08
2.65101e-08
2.64746e-08
2.65171e-08
2.65104e-08
2.65161e-08
2.65333e-08
2.65303e-08
2.65344e-08
2.65264e-08
2.65144e-08
2.65153e-08
2.65287e-08
2.65469e-08
2.64876e-08
2.65216e-08
2.65257e-08
2.65375e-08
2.65316e-08
2.6514e-08
2.65434e-08
2.65342e-08
2.65358e-08
2.65263e-08
2.65254e-08
2.64962e-08
2.64968e-08
2.64902e-08
2.65408e-08
2.65303e-08
2.65288e-08
2.65346e-08
2.65207e-08
2.65183e-08
2.6514e-08
2.64919e-08
2.65171e-08
2.6517e-08
2.65248e-08
2.65058e-08
2.6515e-08
2.65147e-08
2.6536e-08
2.65223e-08
2.65374e-08
2.64962e-08
2.65161e-08
2.64995e-08
2.65249e-08
2.65264e-08
2.65097e-08
2.65241e-08
2.65088e-08
2.65227e-08
2.65398e-08
2.65186e-08
2.65289e-08
2.65276e-08
2.65294e-08
2.6497e-08
2.65295e-08
2.65277e-08
2.65393e-08
2.65032e-08
2.64698e-08
2.65453e-08
2.65577e-08
2.65299e-08
2.65267e-08
2.65519e-08
2.65664e-08
2.65205e-08
2.65368e-08
2.65161e-08
2.65053e-08
2.65158e-08
2.65203e-08
2.65235e-08
2.65179e-08
2.65208e-08
2.65238e-08
2.64977e-08
2.65366e-08
2.65251e-08
2.65348e-08
2.65193e-08
2.65399e-08
2.65241e-08
2.65205e-08
2.64983e-08
2.64835e-08
2.64876e-08
2.65305e-08
2.6522e-08
2.65399e-08
2.64839e-08
2.65077e-08
2.65191e-08
2.65391e-08
2.64979e-08
2.65283e-08
2.65486e-08
2.65298e-08
2.65353e-08
2.65274e-08
2.65339e-08
2.65073e-08
2.65077e-08
2.65492e-08
2.65502e-08
2.65192e-08
2.65515e-08
2.65665e-08
2.65143e-08
2.65246e-08
2.64947e-08
2.65049e-08
2.65328e-08
2.65246e-08
2.65186e-08
2.65182e-08
2.65194e-08
2.65479e-08
2.65327e-08
2.65198e-08
2.6526e-08
2.65457e-08
2.65171e-08
2.65157e-08
2.64828e-08
2.65231e-08
2.65002e-08
2.64857e-08
2.64896e-08
2.6499e-08
2.65151e-08
2.65126e-08
2.65441e-08
2.65134e-08
2.65344e-08
2.65148e-08
2.65189e-08
2.65035e-08
2.65225e-08
2.65221e-08
2.6493e-08
2.6503e-08
2.64918e-08
2.65576e-08
2.65498e-08
2.65411e-08
2.65394e-08
2.64975e-08
2.64931e-08
2.65343e-08
2.65187e-08
2.6491e-08
2.65259e-08
2.65346e-08
2.64878e-08
2.65417e-08
2.65326e-08
2.65223e-08
2.65165e-08
2.65162e-08
2.65426e-08
2.65201e-08
2.65034e-08
2.65089e-08
2.65162e-08
2.65185e-08
2.65128e-08
2.6526e-08
2.65277e-08
2.65015e-08
2.65427e-08
2.6495e-08
2.64384e-08
2.6495e-08
2.64815e-08
2.65123e-08
2.64883e-08
2.65257e-08
2.65163e-08
2.65121e-08
2.651e-08
2.65217e-08
2.65069e-08
2.64907e-08
2.64963e-08
2.65362e-08
2.65089e-08
2.65484e-08
2.65344e-08
2.65229e-08
2.65262e-08
2.65044e-08
2.6554e-08
2.651e-08
2.65427e-08
2.65406e-08
2.6498e-08
2.65126e-08
2.65308e-08
2.65174e-08
2.65239e-08
2.65316e-08
2.65468e-08
2.65269e-08
2.65326e-08
2.65257e-08
2.65204e-08
2.65056e-08
2.65255e-08
2.64896e-08
2.65186e-08
2.65074e-08
2.65073e-08
2.65137e-08
2.65022e-08
2.65123e-08
2.65219e-08
2.6505e-08
2.65326e-08
2.65026e-08
2.64778e-08
2.64926e-08
2.64365e-08
2.64367e-08
2.64771e-08
2.64597e-08
2.6479e-08
2.64634e-08
2.64876e-08
2.65136e-08
2.64846e-08
2.65186e-08
2.65437e-08
2.6539e-08
2.65386e-08
2.64773e-08
2.65378e-08
2.6514e-08
2.65199e-08
2.65068e-08
2.65206e-08
2.65577e-08
2.65549e-08
2.65421e-08
2.65182e-08
2.65254e-08
2.65264e-08
2.65438e-08
2.64784e-08
2.65433e-08
2.65461e-08
2.65283e-08
2.65361e-08
2.65224e-08
2.65213e-08
2.65235e-08
2.65143e-08
2.64966e-08
2.65171e-08
2.65035e-08
2.65158e-08
2.65397e-08
2.64832e-08
2.64916e-08
2.64938e-08
2.65195e-08
2.65148e-08
2.65008e-08
2.65105e-08
2.65411e-08
2.64931e-08
2.64906e-08
2.64647e-08
2.64692e-08
2.65012e-08
2.64581e-08
2.64474e-08
2.64971e-08
2.64839e-08
2.64825e-08
2.6497e-08
2.65125e-08
2.64976e-08
2.65123e-08
2.65261e-08
2.65168e-08
2.65452e-08
2.65231e-08
2.64862e-08
2.65406e-08
2.65475e-08
2.6509e-08
2.65269e-08
2.65273e-08
2.65196e-08
2.65526e-08
2.6484e-08
2.65473e-08
2.64968e-08
2.65388e-08
2.65334e-08
2.65315e-08
2.65247e-08
2.65193e-08
2.65224e-08
2.65262e-08
2.65225e-08
2.65228e-08
2.6496e-08
2.65134e-08
2.65298e-08
2.65202e-08
2.64924e-08
2.64796e-08
2.64897e-08
2.65254e-08
2.64751e-08
2.65326e-08
2.64924e-08
2.65387e-08
2.64787e-08
2.64739e-08
2.64732e-08
2.64881e-08
2.64592e-08
2.64891e-08
2.65092e-08
2.64547e-08
2.64623e-08
2.64995e-08
2.65226e-08
2.65227e-08
2.65298e-08
2.65351e-08
2.65252e-08
2.65371e-08
2.65177e-08
2.65482e-08
2.6526e-08
2.65152e-08
2.65419e-08
2.65452e-08
2.65225e-08
2.65574e-08
2.65291e-08
2.64873e-08
2.6529e-08
2.65274e-08
2.65436e-08
2.6532e-08
2.65438e-08
2.65183e-08
2.65416e-08
2.65113e-08
2.64882e-08
2.65064e-08
2.65259e-08
2.65412e-08
2.6503e-08
2.65184e-08
2.65222e-08
2.65318e-08
2.65469e-08
2.65235e-08
2.65181e-08
2.65415e-08
2.65414e-08
2.64537e-08
2.64895e-08
2.65391e-08
2.65037e-08
2.65116e-08
2.64601e-08
2.65298e-08
2.65084e-08
2.65338e-08
2.64864e-08
2.64752e-08
2.64535e-08
2.64515e-08
2.64411e-08
2.65177e-08
2.64942e-08
2.64513e-08
2.64091e-08
2.64815e-08
2.64937e-08
2.65221e-08
2.65189e-08
2.64965e-08
2.65182e-08
2.65458e-08
2.65163e-08
2.65041e-08
2.6516e-08
2.65095e-08
2.65357e-08
2.65282e-08
2.65019e-08
2.6522e-08
2.65191e-08
2.65147e-08
2.65265e-08
2.65301e-08
2.65333e-08
2.65368e-08
2.65101e-08
2.65398e-08
2.65327e-08
2.65146e-08
2.65108e-08
2.65455e-08
2.6547e-08
2.65215e-08
2.65343e-08
2.65321e-08
2.65249e-08
2.65457e-08
2.65417e-08
2.65156e-08
2.65417e-08
2.65345e-08
2.6415e-08
2.64701e-08
2.64056e-08
2.64916e-08
2.65076e-08
2.64356e-08
2.64452e-08
2.64745e-08
2.65371e-08
2.64491e-08
2.64272e-08
2.643e-08
2.64589e-08
2.64008e-08
2.64367e-08
2.64471e-08
2.65158e-08
2.64262e-08
2.64494e-08
2.64357e-08
2.64723e-08
2.65151e-08
2.65332e-08
2.65311e-08
2.65305e-08
2.65268e-08
2.65452e-08
2.65088e-08
2.64933e-08
2.65443e-08
2.65249e-08
2.65338e-08
2.65272e-08
2.65212e-08
2.65071e-08
2.65106e-08
2.65408e-08
2.65246e-08
2.65368e-08
2.64625e-08
2.64932e-08
2.64991e-08
2.65344e-08
2.65385e-08
2.65269e-08
2.65176e-08
2.65325e-08
2.65235e-08
2.65245e-08
2.65266e-08
2.6511e-08
2.64987e-08
2.64987e-08
2.6479e-08
2.65368e-08
2.64773e-08
2.64771e-08
2.65497e-08
2.64221e-08
2.64534e-08
2.64511e-08
2.65412e-08
2.65152e-08
2.64423e-08
2.64935e-08
2.64385e-08
2.65395e-08
2.65302e-08
2.65092e-08
2.64591e-08
2.64311e-08
2.64078e-08
2.64098e-08
2.64496e-08
2.63694e-08
2.63906e-08
2.64165e-08
2.64514e-08
2.64339e-08
2.64667e-08
2.64565e-08
2.65215e-08
2.65119e-08
2.65369e-08
2.65279e-08
2.65259e-08
2.65098e-08
2.64911e-08
2.65086e-08
2.65347e-08
2.6537e-08
2.65336e-08
2.65249e-08
2.65313e-08
2.64367e-08
2.65423e-08
2.65424e-08
2.65222e-08
2.65179e-08
2.653e-08
2.6512e-08
2.65136e-08
2.65384e-08
2.64815e-08
2.65062e-08
2.65295e-08
2.65027e-08
2.65218e-08
2.65279e-08
2.65021e-08
2.65553e-08
2.65268e-08
2.65492e-08
2.65199e-08
2.65359e-08
2.65526e-08
2.64794e-08
2.65171e-08
2.65081e-08
2.65402e-08
2.64321e-08
2.64508e-08
2.64582e-08
2.65175e-08
2.65184e-08
2.63822e-08
2.64033e-08
2.6427e-08
2.65319e-08
2.65203e-08
2.65329e-08
2.63667e-08
2.64017e-08
2.63954e-08
2.63902e-08
2.64011e-08
2.63722e-08
2.64392e-08
2.64148e-08
2.64255e-08
2.63894e-08
2.64358e-08
2.64789e-08
2.64589e-08
2.65438e-08
2.65143e-08
2.65301e-08
2.65272e-08
2.65157e-08
2.65141e-08
2.65164e-08
2.6517e-08
2.65405e-08
2.65221e-08
2.65352e-08
2.64322e-08
2.65456e-08
2.64894e-08
2.64885e-08
2.65274e-08
2.65072e-08
2.64612e-08
2.65292e-08
2.6523e-08
2.6531e-08
2.65294e-08
2.64747e-08
2.6547e-08
2.65228e-08
2.65206e-08
2.65272e-08
2.65544e-08
2.65424e-08
2.65501e-08
2.64897e-08
2.65509e-08
2.65401e-08
2.65164e-08
2.65414e-08
2.65236e-08
2.65519e-08
2.64318e-08
2.63808e-08
2.64037e-08
2.64784e-08
2.64732e-08
2.64437e-08
2.64107e-08
2.64292e-08
2.64227e-08
2.65184e-08
2.64979e-08
2.65273e-08
2.64858e-08
2.63794e-08
2.63834e-08
2.6395e-08
2.64049e-08
2.63882e-08
2.64306e-08
2.63716e-08
2.63722e-08
2.64517e-08
2.64174e-08
2.6464e-08
2.64103e-08
2.64656e-08
2.6482e-08
2.65497e-08
2.65369e-08
2.65478e-08
2.65411e-08
2.65428e-08
2.65277e-08
2.65421e-08
2.65096e-08
2.65607e-08
2.65627e-08
2.65011e-08
2.65538e-08
2.65108e-08
2.65275e-08
2.65335e-08
2.65053e-08
2.64178e-08
2.64944e-08
2.65296e-08
2.65404e-08
2.65247e-08
2.65314e-08
2.65434e-08
2.65513e-08
2.65303e-08
2.65336e-08
2.65201e-08
2.6516e-08
2.65123e-08
2.6519e-08
2.6539e-08
2.65056e-08
2.65097e-08
2.65408e-08
2.65469e-08
2.6529e-08
2.6558e-08
2.63327e-08
2.64182e-08
2.63997e-08
2.63965e-08
2.65107e-08
2.64326e-08
2.64242e-08
2.64257e-08
2.63978e-08
2.63571e-08
2.65346e-08
2.64774e-08
2.65262e-08
2.65341e-08
2.65289e-08
2.63726e-08
2.6318e-08
2.64039e-08
2.6369e-08
2.63518e-08
2.63958e-08
2.63849e-08
2.63546e-08
2.63718e-08
2.6397e-08
2.64061e-08
2.64526e-08
2.63467e-08
2.6465e-08
2.64639e-08
2.65333e-08
2.65475e-08
2.65365e-08
2.65254e-08
2.6528e-08
2.65484e-08
2.65287e-08
2.65434e-08
2.65051e-08
2.65324e-08
2.6549e-08
2.64958e-08
2.65451e-08
2.65378e-08
2.65467e-08
2.64917e-08
2.64624e-08
2.65035e-08
2.64797e-08
2.65364e-08
2.65296e-08
2.64939e-08
2.65286e-08
2.64898e-08
2.65302e-08
2.65267e-08
2.65256e-08
2.65336e-08
2.65173e-08
2.64877e-08
2.65055e-08
2.65334e-08
2.65298e-08
2.65556e-08
2.6516e-08
2.65266e-08
2.65391e-08
2.65079e-08
2.63604e-08
2.63703e-08
2.63513e-08
2.63491e-08
2.65027e-08
2.65226e-08
2.64299e-08
2.64088e-08
2.64032e-08
2.63999e-08
2.63902e-08
2.64874e-08
2.64936e-08
2.65419e-08
2.65009e-08
2.63672e-08
2.62814e-08
2.6378e-08
2.63601e-08
2.63879e-08
2.63567e-08
2.63038e-08
2.63457e-08
2.63999e-08
2.63856e-08
2.64019e-08
2.64669e-08
2.63489e-08
2.64525e-08
2.65305e-08
2.65289e-08
2.65443e-08
2.65035e-08
2.65275e-08
2.65202e-08
2.65015e-08
2.65267e-08
2.65365e-08
2.65407e-08
2.65258e-08
2.65418e-08
2.65382e-08
2.65449e-08
2.64505e-08
2.64473e-08
2.65003e-08
2.64713e-08
2.65378e-08
2.65265e-08
2.6523e-08
2.64863e-08
2.65357e-08
2.64934e-08
2.64914e-08
2.65192e-08
2.65347e-08
2.65357e-08
2.65413e-08
2.6544e-08
2.65313e-08
2.65476e-08
2.65546e-08
2.65349e-08
2.65259e-08
2.64959e-08
2.65434e-08
2.65176e-08
2.63558e-08
2.63782e-08
2.63575e-08
2.62834e-08
2.63952e-08
2.65039e-08
2.63567e-08
2.64261e-08
2.63844e-08
2.63415e-08
2.63623e-08
2.64969e-08
2.65196e-08
2.65346e-08
2.65314e-08
2.6304e-08
2.63866e-08
2.62715e-08
2.62733e-08
2.63122e-08
2.63549e-08
2.63295e-08
2.64003e-08
2.63691e-08
2.63734e-08
2.64057e-08
2.6367e-08
2.63889e-08
2.64691e-08
2.63543e-08
2.64533e-08
2.65255e-08
2.64985e-08
2.65293e-08
2.65444e-08
2.64803e-08
2.64969e-08
2.65422e-08
2.6521e-08
2.65487e-08
2.65318e-08
2.65464e-08
2.6525e-08
2.65296e-08
2.65433e-08
2.6494e-08
2.65357e-08
2.65063e-08
2.64588e-08
2.65276e-08
2.6458e-08
2.65427e-08
2.65417e-08
2.65362e-08
2.65455e-08
2.65199e-08
2.65013e-08
2.65378e-08
2.65362e-08
2.65355e-08
2.65391e-08
2.65411e-08
2.65316e-08
2.65381e-08
2.65427e-08
2.64968e-08
2.65336e-08
2.65243e-08
2.65273e-08
2.65268e-08
2.65282e-08
2.63439e-08
2.63054e-08
2.63368e-08
2.63553e-08
2.6304e-08
2.63851e-08
2.63597e-08
2.65117e-08
2.64928e-08
2.64146e-08
2.63694e-08
2.62385e-08
2.63431e-08
2.63181e-08
2.651e-08
2.65274e-08
2.6522e-08
2.64834e-08
2.63287e-08
2.63795e-08
2.63244e-08
2.63178e-08
2.6293e-08
2.63062e-08
2.63199e-08
2.63983e-08
2.63377e-08
2.63186e-08
2.63898e-08
2.63418e-08
2.63375e-08
2.64123e-08
2.6406e-08
2.64511e-08
2.64843e-08
2.65247e-08
2.65558e-08
2.64412e-08
2.65152e-08
2.65314e-08
2.65412e-08
2.65468e-08
2.65135e-08
2.65412e-08
2.64946e-08
2.65294e-08
2.65389e-08
2.65266e-08
2.65074e-08
2.65151e-08
2.64567e-08
2.64517e-08
2.64794e-08
2.65299e-08
2.65299e-08
2.65115e-08
2.65417e-08
2.65191e-08
2.65127e-08
2.65317e-08
2.6544e-08
2.65077e-08
2.65202e-08
2.65306e-08
2.65422e-08
2.65367e-08
2.65276e-08
2.65436e-08
2.65203e-08
2.65296e-08
2.65192e-08
2.654e-08
2.65325e-08
2.65231e-08
2.63358e-08
2.62796e-08
2.62545e-08
2.63405e-08
2.63163e-08
2.63665e-08
2.63546e-08
2.64412e-08
2.64126e-08
2.63832e-08
2.63235e-08
2.62661e-08
2.62975e-08
2.62658e-08
2.65158e-08
2.6525e-08
2.65273e-08
2.64963e-08
2.65298e-08
2.63591e-08
2.62942e-08
2.63621e-08
2.6327e-08
2.62074e-08
2.62789e-08
2.63141e-08
2.63629e-08
2.63373e-08
2.63417e-08
2.63448e-08
2.62905e-08
2.63305e-08
2.64416e-08
2.63974e-08
2.63975e-08
2.65003e-08
2.65276e-08
2.65609e-08
2.65156e-08
2.64952e-08
2.6533e-08
2.65503e-08
2.65154e-08
2.65386e-08
2.65311e-08
2.65097e-08
2.65176e-08
2.65291e-08
2.65045e-08
2.65006e-08
2.65156e-08
2.64109e-08
2.64927e-08
2.6507e-08
2.65169e-08
2.65297e-08
2.65413e-08
2.65372e-08
2.65225e-08
2.65148e-08
2.65262e-08
2.65499e-08
2.65382e-08
2.65257e-08
2.65299e-08
2.65431e-08
2.65378e-08
2.653e-08
2.64927e-08
2.65201e-08
2.65337e-08
2.65279e-08
2.65302e-08
2.65286e-08
2.65239e-08
2.62322e-08
2.62756e-08
2.62383e-08
2.62819e-08
2.62089e-08
2.63212e-08
2.63197e-08
2.63985e-08
2.63583e-08
2.63645e-08
2.64091e-08
2.62829e-08
2.6338e-08
2.63239e-08
2.63163e-08
2.65323e-08
2.65028e-08
2.65303e-08
2.65131e-08
2.64966e-08
2.62998e-08
2.63641e-08
2.63643e-08
2.63304e-08
2.62644e-08
2.62811e-08
2.63113e-08
2.63319e-08
2.64196e-08
2.63416e-08
2.64209e-08
2.63108e-08
2.64094e-08
2.63617e-08
2.64321e-08
2.65191e-08
2.64963e-08
2.65233e-08
2.65159e-08
2.65512e-08
2.64882e-08
2.65324e-08
2.65429e-08
2.65122e-08
2.65099e-08
2.65015e-08
2.64864e-08
2.65017e-08
2.65177e-08
2.65073e-08
2.64089e-08
2.64625e-08
2.64571e-08
2.65078e-08
2.65292e-08
2.65428e-08
2.65368e-08
2.65195e-08
2.6512e-08
2.65228e-08
2.65272e-08
2.65205e-08
2.65467e-08
2.65506e-08
2.65293e-08
2.65343e-08
2.65357e-08
2.65252e-08
2.65291e-08
2.64931e-08
2.65447e-08
2.64811e-08
2.64948e-08
2.65261e-08
2.65306e-08
2.6518e-08
2.63235e-08
2.62631e-08
2.6295e-08
2.62197e-08
2.62317e-08
2.62575e-08
2.6254e-08
2.63655e-08
2.6313e-08
2.63953e-08
2.64368e-08
2.63581e-08
2.6396e-08
2.62857e-08
2.61931e-08
2.62842e-08
2.62773e-08
2.63232e-08
2.64801e-08
2.6465e-08
2.65198e-08
2.65026e-08
2.65336e-08
2.6229e-08
2.63272e-08
2.63294e-08
2.63059e-08
2.62381e-08
2.62684e-08
2.62792e-08
2.63229e-08
2.63402e-08
2.63002e-08
2.63917e-08
2.62906e-08
2.63449e-08
2.6367e-08
2.62728e-08
2.64475e-08
2.64899e-08
2.65373e-08
2.65214e-08
2.65392e-08
2.65451e-08
2.65298e-08
2.65146e-08
2.65458e-08
2.65164e-08
2.64949e-08
2.65551e-08
2.64959e-08
2.64699e-08
2.64921e-08
2.64904e-08
2.6491e-08
2.64705e-08
2.65404e-08
2.65356e-08
2.65297e-08
2.65084e-08
2.65134e-08
2.65085e-08
2.65258e-08
2.65229e-08
2.65265e-08
2.65492e-08
2.65276e-08
2.65338e-08
2.65397e-08
2.65283e-08
2.65183e-08
2.6547e-08
2.65338e-08
2.64861e-08
2.65331e-08
2.65402e-08
2.6525e-08
2.65231e-08
2.63278e-08
2.6343e-08
2.63204e-08
2.61419e-08
2.62066e-08
2.61638e-08
2.62199e-08
2.63321e-08
2.62257e-08
2.64084e-08
2.63637e-08
2.64202e-08
2.63758e-08
2.62738e-08
2.62393e-08
2.62484e-08
2.61879e-08
2.62637e-08
2.61812e-08
2.65202e-08
2.65135e-08
2.64561e-08
2.64846e-08
2.65314e-08
2.65288e-08
2.6225e-08
2.63528e-08
2.63322e-08
2.63422e-08
2.62517e-08
2.62815e-08
2.63432e-08
2.62396e-08
2.6284e-08
2.63764e-08
2.62895e-08
2.62978e-08
2.63185e-08
2.63512e-08
2.64372e-08
2.65075e-08
2.65133e-08
2.64909e-08
2.64839e-08
2.65227e-08
2.65347e-08
2.65108e-08
2.65234e-08
2.65341e-08
2.65071e-08
2.65494e-08
2.65555e-08
2.65565e-08
2.645e-08
2.64725e-08
2.6502e-08
2.64231e-08
2.64839e-08
2.64816e-08
2.65412e-08
2.65351e-08
2.65293e-08
2.65002e-08
2.65018e-08
2.65072e-08
2.64736e-08
2.64963e-08
2.65146e-08
2.65167e-08
2.65094e-08
2.65262e-08
2.65396e-08
2.65257e-08
2.65355e-08
2.65261e-08
2.65326e-08
2.65549e-08
2.64909e-08
2.65128e-08
2.65382e-08
2.65542e-08
2.65282e-08
2.65198e-08
2.63369e-08
2.63399e-08
2.62378e-08
2.61795e-08
2.62924e-08
2.61482e-08
2.62517e-08
2.62688e-08
2.62995e-08
2.63408e-08
2.63984e-08
2.64105e-08
2.62359e-08
2.62945e-08
2.62073e-08
2.62365e-08
2.61125e-08
2.62812e-08
2.63063e-08
2.65178e-08
2.6459e-08
2.64262e-08
2.65413e-08
2.65002e-08
2.6533e-08
2.62849e-08
2.62341e-08
2.62915e-08
2.62874e-08
2.62539e-08
2.63184e-08
2.62755e-08
2.63415e-08
2.62096e-08
2.63462e-08
2.63922e-08
2.63036e-08
2.62278e-08
2.63633e-08
2.63171e-08
2.63838e-08
2.64976e-08
2.65143e-08
2.65161e-08
2.65248e-08
2.6522e-08
2.65227e-08
2.65181e-08
2.65466e-08
2.65419e-08
2.65558e-08
2.65439e-08
2.65396e-08
2.65522e-08
2.65101e-08
2.65076e-08
2.64622e-08
2.64678e-08
2.64246e-08
2.64335e-08
2.64256e-08
2.65392e-08
2.65295e-08
2.64682e-08
2.65047e-08
2.65067e-08
2.65007e-08
2.65011e-08
2.65152e-08
2.65098e-08
2.6505e-08
2.65256e-08
2.65393e-08
2.6525e-08
2.65364e-08
2.65295e-08
2.65343e-08
2.65048e-08
2.65421e-08
2.65709e-08
2.65414e-08
2.65265e-08
2.65186e-08
2.63401e-08
2.63064e-08
2.62481e-08
2.61893e-08
2.62545e-08
2.6267e-08
2.62347e-08
2.62383e-08
2.62756e-08
2.63056e-08
2.62695e-08
2.63112e-08
2.63853e-08
2.62661e-08
2.6302e-08
2.617e-08
2.61143e-08
2.63039e-08
2.61701e-08
2.63102e-08
2.62709e-08
2.64853e-08
2.64449e-08
2.64664e-08
2.64221e-08
2.64821e-08
2.64908e-08
2.64914e-08
2.62302e-08
2.62955e-08
2.62919e-08
2.61979e-08
2.62149e-08
2.62832e-08
2.62541e-08
2.62647e-08
2.62878e-08
2.63776e-08
2.63749e-08
2.62878e-08
2.6281e-08
2.63004e-08
2.63221e-08
2.65113e-08
2.65333e-08
2.65253e-08
2.64858e-08
2.65323e-08
2.64868e-08
2.65459e-08
2.6505e-08
2.65462e-08
2.65462e-08
2.65335e-08
2.65446e-08
2.65405e-08
2.65615e-08
2.65098e-08
2.64636e-08
2.64664e-08
2.64325e-08
2.61951e-08
2.64081e-08
2.64324e-08
2.65391e-08
2.65275e-08
2.65059e-08
2.65194e-08
2.65181e-08
2.65265e-08
2.65387e-08
2.64924e-08
2.64563e-08
2.64741e-08
2.65457e-08
2.65552e-08
2.65331e-08
2.65283e-08
2.65244e-08
2.65289e-08
2.65196e-08
2.65316e-08
2.65708e-08
2.65133e-08
2.6536e-08
2.65235e-08
2.65176e-08
2.62142e-08
2.63127e-08
2.62662e-08
2.62195e-08
2.61674e-08
2.62231e-08
2.61783e-08
2.62416e-08
2.62046e-08
2.62999e-08
2.63233e-08
2.63286e-08
2.62567e-08
2.62808e-08
2.62537e-08
2.6126e-08
2.61205e-08
2.61515e-08
2.60823e-08
2.62121e-08
2.60964e-08
2.64768e-08
2.64042e-08
2.64073e-08
2.6345e-08
2.64871e-08
2.65208e-08
2.64883e-08
2.61937e-08
2.62528e-08
2.62447e-08
2.61517e-08
2.61939e-08
2.60795e-08
2.62871e-08
2.62947e-08
2.62907e-08
2.63473e-08
2.6308e-08
2.63072e-08
2.62974e-08
2.62586e-08
2.63949e-08
2.64957e-08
2.65443e-08
2.65135e-08
2.65406e-08
2.64858e-08
2.64945e-08
2.64853e-08
2.65508e-08
2.65327e-08
2.65046e-08
2.65271e-08
2.65305e-08
2.65315e-08
2.65296e-08
2.65625e-08
2.65221e-08
2.65181e-08
2.65209e-08
2.64544e-08
2.64272e-08
2.64016e-08
2.63315e-08
2.64531e-08
2.63821e-08
2.6369e-08
2.6499e-08
2.65142e-08
2.6538e-08
2.65287e-08
2.65562e-08
2.65023e-08
2.64649e-08
2.65567e-08
2.65447e-08
2.65508e-08
2.65324e-08
2.65289e-08
2.65512e-08
2.65387e-08
2.65218e-08
2.65307e-08
2.65105e-08
2.65228e-08
2.6535e-08
2.65029e-08
2.65029e-08
2.61986e-08
2.61585e-08
2.61537e-08
2.62563e-08
2.61221e-08
2.61e-08
2.62025e-08
2.61988e-08
2.61392e-08
2.62024e-08
2.61699e-08
2.62832e-08
2.63021e-08
2.63302e-08
2.62718e-08
2.62699e-08
2.62476e-08
2.62792e-08
2.61228e-08
2.63349e-08
2.62294e-08
2.60971e-08
2.61892e-08
2.60977e-08
2.61542e-08
2.64534e-08
2.65205e-08
2.64053e-08
2.63792e-08
2.6405e-08
2.63409e-08
2.65191e-08
2.65246e-08
2.64756e-08
2.65393e-08
2.6248e-08
2.63017e-08
2.62505e-08
2.60633e-08
2.61971e-08
2.62561e-08
2.61041e-08
2.62835e-08
2.62543e-08
2.62462e-08
2.62703e-08
2.6332e-08
2.63006e-08
2.62318e-08
2.63645e-08
2.63644e-08
2.65439e-08
2.6525e-08
2.64871e-08
2.65302e-08
2.65135e-08
2.64595e-08
2.65488e-08
2.65296e-08
2.65309e-08
2.65163e-08
2.65259e-08
2.65239e-08
2.6526e-08
2.65494e-08
2.65278e-08
2.65021e-08
2.64667e-08
2.64339e-08
2.62234e-08
2.63311e-08
2.64118e-08
2.62222e-08
2.65111e-08
2.65522e-08
2.65565e-08
2.65574e-08
2.65569e-08
2.65569e-08
2.65572e-08
2.65579e-08
2.65391e-08
2.65437e-08
2.6538e-08
2.65039e-08
2.64931e-08
2.65298e-08
2.65288e-08
2.65296e-08
2.65251e-08
2.65523e-08
2.6202e-08
2.61077e-08
2.6174e-08
2.60485e-08
2.60909e-08
2.62216e-08
2.61071e-08
2.60929e-08
2.60363e-08
2.6288e-08
2.62419e-08
2.6246e-08
2.63166e-08
2.63133e-08
2.62675e-08
2.62738e-08
2.62714e-08
2.63352e-08
2.60193e-08
2.61794e-08
2.61895e-08
2.61296e-08
2.60915e-08
2.64562e-08
2.64962e-08
2.63523e-08
2.64036e-08
2.63648e-08
2.6198e-08
2.64742e-08
2.65173e-08
2.65072e-08
2.62474e-08
2.6259e-08
2.62183e-08
2.61595e-08
2.62274e-08
2.61114e-08
2.61749e-08
2.63046e-08
2.62462e-08
2.62917e-08
2.62674e-08
2.63312e-08
2.62453e-08
2.62768e-08
2.62767e-08
2.6358e-08
2.65407e-08
2.65221e-08
2.65266e-08
2.65293e-08
2.6532e-08
2.65468e-08
2.65538e-08
2.65433e-08
2.65084e-08
2.65337e-08
2.64906e-08
2.65148e-08
2.6516e-08
2.65473e-08
2.65381e-08
2.6465e-08
2.64439e-08
2.64218e-08
2.63557e-08
2.63714e-08
2.64494e-08
2.63759e-08
2.64456e-08
2.63922e-08
2.65061e-08
2.6548e-08
2.65197e-08
2.6557e-08
2.65574e-08
2.65347e-08
2.6528e-08
2.65263e-08
2.65264e-08
2.6527e-08
2.65334e-08
2.65086e-08
2.65519e-08
2.62104e-08
2.62396e-08
2.61989e-08
2.60816e-08
2.62126e-08
2.62348e-08
2.61285e-08
2.61209e-08
2.62504e-08
2.61977e-08
2.62378e-08
2.6318e-08
2.62754e-08
2.6185e-08
2.61432e-08
2.61577e-08
2.62365e-08
2.61224e-08
2.61446e-08
2.60306e-08
2.61401e-08
2.61259e-08
2.61395e-08
2.61114e-08
2.64461e-08
2.64865e-08
2.6314e-08
2.62729e-08
2.64061e-08
2.63982e-08
2.61781e-08
2.62279e-08
2.65219e-08
2.65067e-08
2.65268e-08
2.65414e-08
2.62248e-08
2.62039e-08
2.61879e-08
2.62536e-08
2.61737e-08
2.61692e-08
2.6221e-08
2.62183e-08
2.61641e-08
2.61678e-08
2.63217e-08
2.62233e-08
2.62177e-08
2.63147e-08
2.6266e-08
2.65368e-08
2.64957e-08
2.65246e-08
2.65624e-08
2.65463e-08
2.65534e-08
2.65113e-08
2.64914e-08
2.65391e-08
2.65151e-08
2.65462e-08
2.65252e-08
2.65114e-08
2.64796e-08
2.65199e-08
2.64352e-08
2.64253e-08
2.62296e-08
2.62551e-08
2.63547e-08
2.62399e-08
2.65594e-08
2.6557e-08
2.6557e-08
2.65e-08
2.65373e-08
2.65291e-08
2.65277e-08
2.65264e-08
2.65192e-08
2.6544e-08
2.60632e-08
2.62059e-08
2.62228e-08
2.61029e-08
2.6184e-08
2.60645e-08
2.60378e-08
2.60882e-08
2.61519e-08
2.61187e-08
2.62516e-08
2.62211e-08
2.62226e-08
2.61863e-08
2.62248e-08
2.61807e-08
2.61417e-08
2.62344e-08
2.61877e-08
2.60443e-08
2.609e-08
2.61348e-08
2.61501e-08
2.63643e-08
2.63877e-08
2.61962e-08
2.6303e-08
2.6319e-08
2.63934e-08
2.62049e-08
2.62448e-08
2.64993e-08
2.648e-08
2.6488e-08
2.64855e-08
2.62441e-08
2.61565e-08
2.61732e-08
2.6242e-08
2.61631e-08
2.6221e-08
2.62272e-08
2.61869e-08
2.62561e-08
2.63028e-08
2.62488e-08
2.62039e-08
2.62194e-08
2.62983e-08
2.62932e-08
2.63476e-08
2.65036e-08
2.65229e-08
2.65604e-08
2.65062e-08
2.65173e-08
2.6483e-08
2.64952e-08
2.65615e-08
2.65607e-08
2.65445e-08
2.65014e-08
2.65383e-08
2.65328e-08
2.64449e-08
2.64505e-08
2.64215e-08
2.63845e-08
2.63665e-08
2.62802e-08
2.62823e-08
2.63707e-08
2.65375e-08
2.65092e-08
2.65528e-08
2.65417e-08
2.65134e-08
2.65565e-08
2.61384e-08
2.60634e-08
2.61925e-08
2.60969e-08
2.61003e-08
2.59838e-08
2.60211e-08
2.61228e-08
2.61699e-08
2.61842e-08
2.61542e-08
2.6164e-08
2.62513e-08
2.62197e-08
2.6198e-08
2.62216e-08
2.62208e-08
2.61817e-08
2.62017e-08
2.61986e-08
2.61074e-08
2.60464e-08
2.61409e-08
2.61515e-08
2.62038e-08
2.61157e-08
2.63425e-08
2.63533e-08
2.64099e-08
2.64085e-08
2.62455e-08
2.63084e-08
2.63273e-08
2.63684e-08
2.62457e-08
2.63164e-08
2.64348e-08
2.64888e-08
2.64896e-08
2.65108e-08
2.65325e-08
2.62513e-08
2.60931e-08
2.62101e-08
2.61168e-08
2.60266e-08
2.61058e-08
2.62581e-08
2.61423e-08
2.60964e-08
2.60933e-08
2.62526e-08
2.60991e-08
2.6186e-08
2.62443e-08
2.65148e-08
2.65186e-08
2.65246e-08
2.65207e-08
2.65128e-08
2.64976e-08
2.65453e-08
2.65608e-08
2.65398e-08
2.65207e-08
2.65537e-08
2.6525e-08
2.64465e-08
2.64491e-08
2.64128e-08
2.6361e-08
2.62565e-08
2.63885e-08
2.63673e-08
2.63261e-08
2.63906e-08
2.65229e-08
2.65018e-08
2.65587e-08
2.65564e-08
2.64858e-08
2.64686e-08
2.60977e-08
2.60535e-08
2.61593e-08
2.61267e-08
2.59468e-08
2.60771e-08
2.6159e-08
2.60199e-08
2.61653e-08
2.6212e-08
2.61963e-08
2.61919e-08
2.62462e-08
2.61705e-08
2.61707e-08
2.61987e-08
2.61954e-08
2.61884e-08
2.60814e-08
2.60459e-08
2.61339e-08
2.6108e-08
2.62972e-08
2.63956e-08
2.64167e-08
2.63769e-08
2.62539e-08
2.62868e-08
2.63086e-08
2.63792e-08
2.6291e-08
2.63004e-08
2.64585e-08
2.6487e-08
2.64731e-08
2.64556e-08
2.64425e-08
2.64472e-08
2.61526e-08
2.60576e-08
2.59463e-08
2.61609e-08
2.61688e-08
2.61404e-08
2.59816e-08
2.62295e-08
2.61959e-08
2.61907e-08
2.62639e-08
2.61911e-08
2.62785e-08
2.61854e-08
2.61926e-08
2.62058e-08
2.63539e-08
2.65112e-08
2.64878e-08
2.65243e-08
2.65628e-08
2.65665e-08
2.65319e-08
2.65205e-08
2.65242e-08
2.65455e-08
2.65004e-08
2.64135e-08
2.64416e-08
2.64888e-08
2.63827e-08
2.63594e-08
2.62099e-08
2.63579e-08
2.63525e-08
2.63416e-08
2.63535e-08
2.64939e-08
2.64953e-08
2.65241e-08
2.6557e-08
2.64694e-08
2.6227e-08
2.58716e-08
2.59426e-08
2.60366e-08
2.6082e-08