/*--------------------------------*- C++ -*----------------------------------*\
| =========                 |                                                 |
| \\      /  F ield         | OpenFOAM: The Open Source CFD Toolbox           |
|  \\    /   O peration     | Version:  v2012                                 |
|   \\  /    A nd           | Website:  www.openfoam.com                      |
|    \\/     M anipulation  |                                                 |
\*---------------------------------------------------------------------------*/
FoamFile
{
    version     2.0;
    format      ascii;
    class       volVectorField;
    location    "1.7";
    object      U;
}
// * * * * * * * * * * * * * * * * * * * * * * * * * * * * * * * * * * * * * //

dimensions      [0 1 -1 0 0 0 0];


internalField   nonuniform List<vector> 
13611
(
(8.14997 0.00493538 -1.2625e-24)
(8.09855 -0.0138313 0)
(8.13283 0.00699686 5.73096e-24)
(8.01371 0.002209 1.8831e-23)
(8.11054 0.00130175 -6.37303e-24)
(8.12362 0.00599337 -1.87982e-24)
(8.042 0.0104021 3.06588e-24)
(7.99785 0.00711058 1.92295e-23)
(8.12232 -0.0642136 -2.05708e-23)
(8.0662 0.014514 1.25269e-23)
(8.12892 0.00741164 -5.30121e-24)
(8.00658 0.00731717 6.69282e-24)
(8.00315 0.00984315 8.5238e-24)
(7.98328 0.0189644 0)
(8.16157 -0.0252354 -5.18606e-25)
(8.05612 -0.000697176 -6.27976e-24)
(8.04538 0.00934706 1.65655e-24)
(8.11841 0.00575178 0)
(7.97793 0.0136178 6.00965e-24)
(7.97744 0.0162117 -4.50483e-24)
(7.9981 0.019641 1.09657e-23)
(7.98434 0.015705 0)
(8.15732 -0.0407506 0)
(8.08437 0.016405 -4.40175e-24)
(7.99653 0.00572014 -7.90984e-24)
(8.01481 0.010949 0)
(8.12334 0.0047831 -6.1513e-25)
(7.97496 0.0126738 1.01092e-23)
(7.99566 0.0162816 0)
(8.0026 0.0221954 1.08768e-23)
(8.01116 0.0184916 1.38009e-23)
(7.99209 0.0157011 0)
(8.18538 -0.022347 0)
(8.03536 0.011874 1.29939e-23)
(7.98902 0.00133464 3.3052e-24)
(7.97604 0.0103003 6.52596e-24)
(8.04494 0.00711097 -5.72417e-25)
(8.11198 0.00214508 0)
(7.98848 0.0142004 0)
(8.01176 0.016801 1.91161e-24)
(8.01672 0.0211443 -1.46993e-23)
(8.01682 0.0202216 1.29159e-23)
(8.00856 0.0171646 0)
(8.00499 0.0149623 2.11887e-25)
(8.09792 0.00278845 0)
(8.17142 -0.0141622 -1.08729e-23)
(8.03294 0.00656071 -7.90466e-25)
(8.00472 0.0129615 8.13329e-25)
(7.97233 0.01144 5.61683e-24)
(8.00981 0.00480461 -2.06417e-24)
(8.11342 0.00183505 0)
(7.99397 0.0106801 0)
(8.02035 0.0211458 1.8857e-23)
(8.02124 0.0216619 0)
(8.02185 0.0244529 -1.45145e-23)
(8.01786 0.0208064 -3.01297e-23)
(8.01397 0.0180803 -2.55682e-23)
(8.01006 0.0145683 2.5124e-25)
(8.08443 0.00514819 6.35199e-24)
(8.19217 -0.0144664 -3.13287e-23)
(8.01126 0.0113126 -4.39802e-24)
(8.01578 0.0188406 1.90113e-24)
(7.97787 0.0105534 8.35648e-24)
(7.98747 0.00843339 0)
(8.0317 0.00221186 5.66125e-24)
(8.09857 2.99679e-05 4.56695e-24)
(8.00617 0.0123311 0)
(8.03092 0.0271406 1.89936e-23)
(8.02277 0.024761 9.62467e-24)
(8.0278 0.0279966 0)
(8.01854 0.0226441 -1.70036e-23)
(8.01315 0.0164048 0)
(8.03332 0.00794737 -7.53018e-24)
(8.12735 -0.00774455 1.28801e-23)
(8.15828 -0.0189801 -7.50458e-24)
(8.01648 0.0160898 2.13994e-24)
(8.03118 0.0251969 -2.14418e-23)
(7.9734 0.00748788 6.33589e-24)
(7.99421 0.00906789 0)
(7.98123 0.00849545 7.0753e-24)
(8.1012 0.00627552 3.64458e-25)
(8.01017 0.0103775 9.82516e-24)
(8.03505 0.0318938 -4.72806e-24)
(8.02575 0.0279839 1.51117e-23)
(8.02009 0.0256791 -2.25911e-23)
(8.03034 0.0312756 -1.24124e-23)
(8.01523 0.023193 0)
(8.01168 0.0156904 9.97961e-24)
(8.02457 0.00896327 8.57906e-24)
(8.11423 0.000398333 -1.55655e-25)
(8.18835 0.0107294 6.86538e-24)
(8.02755 0.0210307 -1.16466e-23)
(8.04387 0.0324368 -3.27583e-23)
(7.98138 0.00701288 -2.82339e-24)
(8.00624 0.00927961 8.82464e-24)
(7.99146 0.00829382 -1.02249e-23)
(7.98592 0.0106596 0)
(8.00024 0.00815755 -4.70364e-24)
(8.1043 0.0068413 -1.87607e-24)
(8.00943 0.0118324 1.11552e-23)
(8.035 0.035118 0)
(8.01992 0.02947 0)
(8.01476 0.0271128 -2.20746e-24)
(8.02488 0.0347546 -1.38852e-23)
(8.01275 0.0248567 -1.66454e-23)
(8.01325 0.0211271 -4.45701e-24)
(8.01127 0.0171618 0)
(8.02823 0.0177487 -2.40538e-23)
(8.04971 0.0126352 8.26648e-25)
(8.15806 0.00527085 7.67488e-24)
(8.17118 -0.0565927 0)
(8.04444 0.029871 -3.6398e-23)
(8.05128 0.0406393 -1.02878e-23)
(7.98595 0.00656307 -7.07224e-25)
(8.00936 0.00935901 -8.76723e-24)
(8.00455 0.00873467 -1.08685e-23)
(7.98283 0.00838444 -5.7165e-25)
(7.98784 0.00794533 6.20896e-24)
(8.10423 0.0120502 -1.11795e-23)
(8.00789 0.0120156 -9.10251e-24)
(8.03751 0.0409946 2.08159e-23)
(8.02628 0.038612 0)
(8.02065 0.0342813 -7.90908e-24)
(8.01514 0.030426 -1.29867e-23)
(8.0143 0.0289591 2.92628e-24)
(8.01263 0.0259582 -1.10966e-23)
(8.01196 0.0237467 -8.11287e-24)
(8.00972 0.0157704 -2.06353e-23)
(8.04126 0.0235205 -3.89395e-23)
(8.03089 0.0126173 -7.11103e-24)
(8.09452 0.0117484 0)
(8.1646 -0.0979974 1.25697e-24)
(8.05532 0.033983 -1.90115e-23)
(8.04763 0.043354 -1.30887e-23)
(8.00022 0.00803706 0)
(8.00706 0.0103126 -1.11014e-23)
(7.98487 0.00977816 -7.04941e-25)
(8.012 0.00730693 5.16369e-24)
(7.97527 0.00956859 3.02506e-24)
(8.10556 0.0166146 2.6448e-24)
(8.00745 0.0135084 -2.06193e-23)
(8.03247 0.0459188 2.21904e-23)
(8.02812 0.0458956 -1.40171e-23)
(8.01963 0.0378437 3.75548e-23)
(8.0162 0.0353792 -1.57028e-23)
(8.01271 0.0291402 1.94962e-23)
(8.01134 0.0274534 1.70154e-24)
(8.01159 0.0221505 8.07637e-24)
(8.00893 0.0173231 0)
(8.05638 0.0269261 -4.14975e-23)
(8.03769 0.0155919 0)
(8.11249 -0.0112488 5.02266e-23)
(8.19846 0.0282879 3.84277e-24)
(8.0587 0.039165 -2.44789e-23)
(8.05426 0.0441264 -6.35949e-23)
(8.03201 0.0483274 -2.85717e-23)
(8.0036 0.00908628 -2.67509e-24)
(8.00538 0.0107103 -2.22585e-24)
(7.99938 0.00860443 0)
(7.9912 0.0127016 -4.93812e-25)
(7.97871 0.00936809 5.23816e-24)
(8.09869 0.0066141 -1.05356e-24)
(8.0062 0.0137822 0)
(8.03126 0.0470169 -8.74998e-24)
(8.0255 0.0468747 0)
(8.02048 0.0420829 4.02319e-23)
(8.01372 0.0356862 1.33044e-23)
(8.01119 0.0307982 1.31639e-23)
(8.00939 0.0270155 -5.0735e-25)
(8.0096 0.0196935 -2.21265e-24)
(8.00918 0.0237189 1.59319e-23)
(8.00687 0.0164957 9.36304e-24)
(8.06657 0.0379577 -3.8396e-23)
(8.04237 0.0345198 0)
(8.10733 -4.06571e-05 5.31043e-23)
(8.15148 0.0728671 -3.17042e-23)
(8.29542 -0.212549 -4.86773e-23)
(8.06612 0.0449986 -1.24844e-23)
(8.05077 0.0540044 -4.57437e-23)
(8.03705 0.0521963 -2.42694e-23)
(8.00093 0.00847762 -7.18187e-24)
(8.00396 0.00984481 0)
(8.00514 0.01244 0)
(7.99526 0.00922908 0)
(8.01196 0.0167322 3.69049e-24)
(7.97633 0.0091505 1.99834e-24)
(8.09311 -0.00427571 1.28711e-23)
(8.00617 0.0145765 2.25367e-24)
(8.03719 0.051974 0)
(8.02129 0.0517623 0)
(8.01358 0.0452425 1.90604e-23)
(8.0093 0.0378178 1.30362e-23)
(8.00794 0.0321308 1.14402e-23)
(8.00787 0.027776 6.20495e-24)
(8.00625 0.0214903 0)
(8.00607 0.0233556 0)
(8.00488 0.0176089 0)
(8.07636 0.0341561 -2.22072e-23)
(8.05028 0.0451156 -2.13351e-23)
(8.12773 -0.00522587 -2.03025e-23)
(8.11425 -0.000854522 9.26139e-25)
(8.38179 -0.00478927 4.21745e-24)
(8.06673 0.0547058 -7.31448e-24)
(8.05798 0.0579058 -8.40726e-23)
(8.04092 0.0596384 -4.89722e-24)
(8.00065 0.00955625 -3.98592e-24)
(8.00289 0.0111845 0)
(8.00429 0.0121675 0)
(7.99963 0.0078329 -2.2146e-24)
(7.98193 0.0173319 1.12552e-23)
(7.9803 0.01308 6.67022e-24)
(8.07986 -0.00915337 3.0421e-23)
(8.0048 0.0144697 -7.56689e-24)
(8.03469 0.0570646 0)
(8.0144 0.0519895 0)
(8.02346 0.0579956 0)
(8.00967 0.0433021 1.79029e-23)
(8.00501 0.0363652 0)
(8.00537 0.0326518 1.83836e-23)
(8.00725 0.0293902 0)
(8.00584 0.0250236 4.50368e-24)
(8.00485 0.0199521 0)
(8.00368 0.0164733 0)
(8.08281 0.0408328 2.95864e-24)
(8.04317 0.0391938 0)
(8.07151 0.0205421 0)
(8.0824 0.125252 2.33368e-24)
(8.11688 -0.0127032 -2.85617e-23)
(8.60676 0.052578 8.72516e-23)
(8.07538 0.0559092 0)
(8.06076 0.0696463 -4.63415e-23)
(8.0455 0.06581 -3.03645e-23)
(8.00261 0.0104107 0)
(8.00056 0.00830241 -5.40147e-24)
(8.00468 0.0121039 0)
(7.99902 0.00771612 -5.04638e-24)
(7.99668 0.00751039 -5.63643e-25)
(7.99432 0.0211966 -6.00852e-25)
(8.06784 -0.0404766 0)
(8.01012 0.0296688 -6.35012e-24)
(8.00449 0.0127128 -6.03214e-25)
(8.00378 0.0149818 -3.14743e-24)
(8.03938 0.063719 0)
(8.01222 0.0543355 -1.16154e-23)
(8.01811 0.0648751 1.68472e-23)
(8.0082 0.0466437 1.08136e-23)
(8.00394 0.0379657 -8.56259e-24)
(8.00341 0.0317172 8.33578e-24)
(8.00415 0.0294014 0)
(8.00397 0.0255618 -1.2057e-23)
(8.00379 0.0206036 0)
(8.00304 0.0167863 4.76885e-24)
(8.09952 0.0496481 -3.33555e-23)
(8.08471 0.0436977 0)
(8.08181 0.0314595 -7.25032e-23)
(8.01608 0.110541 -4.04712e-23)
(8.13253 -0.00584496 -1.65804e-24)
(8.4981 0.0482216 5.29018e-24)
(8.08312 0.0699236 0)
(8.05352 0.0775885 3.36705e-23)
(8.07179 0.0751077 9.66407e-23)
(8.04618 0.0743503 -2.65041e-23)
(8.00372 0.00977766 0)
(8.00237 0.0078602 1.04585e-23)
(8.00378 0.0108529 -4.08157e-25)
(7.99982 0.00657669 -1.2851e-24)
(7.99829 0.00679205 1.12164e-25)
(7.9922 -0.00177356 1.02186e-24)
(8.03449 0.00539408 0)
(8.01026 0.006426 -2.0728e-24)
(8.00351 0.0129063 -5.5613e-25)
(8.00316 0.0137481 -3.11646e-24)
(8.02525 0.0679007 1.76048e-23)
(8.01178 0.0606212 2.19033e-23)
(8.00845 0.0529086 0)
(8.01436 0.0651838 5.75616e-23)
(8.00429 0.0430334 2.08393e-24)
(8.0077 0.0490549 3.76007e-25)
(8.00291 0.0357536 -1.49068e-23)
(8.00279 0.0318998 -1.33902e-23)
(8.0032 0.0278741 -1.21364e-23)
(8.00324 0.023561 1.06914e-23)
(8.00319 0.0182811 0)
(8.00331 0.0215716 1.07619e-23)
(8.00251 0.0156114 1.30337e-23)
(8.09898 0.0659092 -3.76495e-23)
(8.09834 0.0481358 0)
(8.09955 0.0406849 -5.03704e-23)
(8.04127 0.056817 0)
(8.12519 0.0207155 0)
(8.53556 -0.0109965 1.32575e-22)
(8.05495 0.0887977 7.8374e-23)
(8.07565 0.0863338 7.6653e-23)
(8.03187 0.0786485 3.5902e-23)
(8.00292 0.00867157 1.04934e-23)
(8.00165 0.0069342 0)
(8.00305 0.0109584 -4.21435e-25)
(7.99978 0.00548126 9.69445e-26)
(7.99518 0.00510963 -2.30099e-24)
(7.99846 0.00380397 8.03154e-25)
(8.02835 -0.0146688 0)
(8.00304 0.0120382 -7.32189e-26)
(8.00251 0.0138723 5.3179e-24)
(8.02387 0.0742318 0)
(8.00624 0.0622401 1.08285e-23)
(8.00482 0.0565018 1.06326e-23)
(8.01292 0.0714061 4.22205e-23)
(8.00147 0.0469356 1.63171e-23)
(8.00202 0.0493351 1.68324e-23)
(7.99985 0.0363989 1.29263e-23)
(8.00217 0.0304056 0)
(8.00248 0.0283595 0)
(8.0019 0.0238748 1.95313e-23)
(8.00266 0.0185129 4.76971e-24)
(8.00256 0.0204537 7.16634e-24)
(8.00237 0.0160416 0)
(8.00223 0.0142047 1.35199e-23)
(8.10713 0.0747788 1.49055e-23)
(8.11872 0.0669522 0)
(8.11219 0.0377284 -4.92681e-23)
(7.96468 0.0416185 0)
(8.14387 0.0155584 3.58385e-23)
(8.38415 -0.0474653 1.67524e-22)
(8.06728 0.0932056 -2.73038e-24)
(8.04369 0.0972373 2.78909e-23)
(8.0835 0.095099 3.93511e-24)
(8.02889 0.0892037 3.22998e-23)
(8.00256 0.00851435 -6.45643e-24)
(8.00192 0.00618485 -4.53615e-24)
(8.00257 0.00969268 -5.34227e-24)
(8.00048 0.00449254 0)
(7.99691 0.00476624 -2.23909e-25)
(7.9965 0.00727048 7.98018e-24)
(7.99943 0.00770388 4.14515e-24)
(8.03015 -0.012189 0)
(8.00239 0.0117746 -8.73074e-25)
(8.00221 0.012601 -8.15089e-26)
(8.01771 0.0765246 1.70004e-23)
(8.00506 0.0667536 -1.21267e-23)
(8.00219 0.0546001 -7.95007e-24)
(8.00823 0.0746106 0)
(8.00003 0.0446605 0)
(7.99773 0.0332823 -1.93737e-25)
(7.99842 0.0397679 7.1844e-25)
(7.99903 0.0303992 -3.31132e-24)
(8.00134 0.026451 1.13812e-23)
(8.00155 0.0220773 8.18907e-24)
(8.00233 0.0173596 0)
(8.00225 0.0204632 2.3943e-24)
(8.0022 0.0149048 0)
(8.00191 0.0135466 -6.95167e-25)
(8.12198 0.0775602 3.85939e-23)
(8.09562 0.0925223 4.98992e-24)
(8.13177 0.0785928 3.86557e-24)
(8.12822 0.0502925 -5.09514e-23)
(8.03076 0.0603875 2.97719e-23)
(8.14734 0.0305985 0)
(8.45224 -0.101918 0)
(8.06435 0.101995 6.17688e-26)
(8.04848 0.103247 3.92556e-23)
(8.03463 0.0967978 -3.38936e-23)
(8.0755 0.102824 -2.42833e-23)
(8.0172 0.0904317 -1.33135e-23)
(8.00205 0.00736723 -5.55372e-25)
(8.00179 0.00661354 2.65321e-24)
(8.00093 0.00535953 -4.52351e-24)
(8.00208 0.00949227 0)
(7.9996 0.00432134 7.50753e-25)
(7.99667 0.00388384 -8.65207e-25)
(7.99709 0.00289583 0)
(8.00043 0.00573138 0)
(8.02149 0.00477546 -8.57238e-25)
(8.00196 0.0104793 -6.33911e-25)
(8.00177 0.0124111 -1.03163e-25)
(8.01498 0.0806366 -1.32793e-23)
(8.00093 0.0653663 0)
(8.0061 0.0723365 -1.1927e-23)
(8.00136 0.0559894 -8.17089e-24)
(8.00842 0.0811811 2.14272e-23)
(7.99818 0.0492768 1.2356e-23)
(7.99493 0.033159 0)
(7.993 0.0390271 1.81096e-23)
(7.99794 0.0287726 1.58041e-23)
(7.99978 0.0265924 6.01958e-24)
(8.00032 0.0215195 0)
(8.00168 0.0180617 -5.17481e-24)
(8.00195 0.0189943 -5.55357e-24)
(8.00052 0.0151236 0)
(8.00223 0.0137854 -6.97819e-25)
(8.12277 0.088859 1.30248e-23)
(8.10488 0.0964662 -1.09808e-23)
(8.14686 0.0650827 -8.23633e-25)
(8.13354 0.0876991 5.5366e-23)
(7.99491 0.0334631 6.82385e-23)
(8.17617 0.0314689 1.56239e-22)
(8.48497 -0.0493382 0)
(8.18979 -0.072171 4.51843e-23)
(8.04523 0.114148 4.38021e-23)
(8.02808 0.10824 -3.33186e-23)
(8.07419 0.115435 -2.26031e-23)
(8.01289 0.100026 -1.65737e-23)
(8.00162 0.00758444 5.82645e-25)
(8.00117 0.0060345 5.55637e-24)
(8.00083 0.0050617 3.55829e-24)
(8.00153 0.00832743 -3.37455e-25)
(8.00021 0.00404828 0)
(7.99866 0.00347464 0)
(7.99797 0.00224834 8.58565e-25)
(7.99425 0.000665934 0)
(8.01391 0.00774193 2.93915e-25)
(8.01732 -0.0104293 3.07144e-26)
(8.00135 0.0103807 -5.57577e-24)
(8.00164 0.0114104 -5.68971e-24)
(7.99774 0.0715853 0)
(7.99999 0.0603603 1.20576e-25)
(8.00087 0.0736989 0)
(7.99898 0.0529094 5.02073e-24)
(8.00538 0.0850425 7.61347e-24)
(7.99495 0.0484448 7.56142e-24)
(7.99277 0.0295558 8.56085e-25)
(7.99181 0.0353162 -7.92723e-24)
(7.99165 0.0434052 2.60492e-23)
(7.99424 0.0275457 -8.41004e-27)
(7.99804 0.0242516 0)
(7.99795 0.02214 3.65197e-24)
(7.99961 0.0194084 -5.47752e-24)
(8.00037 0.0169141 -9.51746e-24)
(7.99979 0.0142807 7.58678e-24)
(8.00197 0.0127967 3.41422e-24)
(8.10568 0.110656 0)
(8.16801 0.0813256 9.46178e-24)
(8.13792 0.102908 2.97513e-23)
(8.09878 0.0223715 2.95309e-23)
(8.19804 0.0471821 1.27883e-22)
(8.23427 -0.300164 0)
(8.25748 -0.075184 -1.79875e-24)
(8.0553 0.12232 -4.30456e-24)
(8.03411 0.116927 -3.71578e-23)
(8.01609 0.110013 -1.68062e-23)
(8.08855 0.120259 2.56868e-23)
(8.00757 0.0963784 -4.81121e-23)
(8.00125 0.00667529 4.89178e-25)
(8.00095 0.00514675 0)
(8.00063 0.0039545 3.54409e-24)
(8.00084 0.00821371 9.72794e-24)
(7.99889 0.00300443 1.74883e-24)
(7.99661 0.000995111 5.91771e-25)
(7.99776 0.00211017 0)
(8.0068 -0.00266482 -1.21186e-24)
(8.02024 -0.00500387 2.94187e-24)
(8.00118 0.00917133 1.01485e-23)
(8.00188 0.0110449 0)
(7.99549 0.0722921 -1.84597e-23)
(7.99408 0.0602185 6.06642e-23)
(8.00027 0.0829667 -1.41789e-23)
(7.99295 0.0560433 2.19768e-23)
(7.98878 0.0490059 1.17442e-23)
(7.98912 0.0295375 8.58764e-25)
(7.98795 0.0337943 0)
(7.98613 0.0437383 -1.57847e-23)
(7.99403 0.0253784 0)
(7.99449 0.0212402 -4.85492e-26)
(7.99737 0.0190846 -7.0584e-26)
(7.99776 0.0173784 -4.46156e-24)
(8.00058 0.0129193 1.10006e-23)
(7.99749 0.0139291 1.19833e-23)
(8.00205 0.011561 0)
(8.12388 0.114386 0)
(8.18988 0.0752874 -6.7482e-23)
(8.15607 0.10308 -7.14013e-23)
(8.09997 0.031279 4.0046e-23)
(8.23707 0.0539541 -7.1509e-23)
(8.29707 -0.161367 1.34278e-22)
(8.20637 -0.0312549 5.48204e-23)
(8.0549 0.13742 0)
(8.03375 0.131939 -6.43303e-24)
(8.01446 0.120449 -1.11684e-23)
(8.08648 0.140291 7.14472e-24)
(8.00383 0.103722 -4.7965e-23)
(8.00111 0.00617422 -2.58116e-24)
(8.00081 0.00441272 -9.91877e-25)
(8.00052 0.00316157 0)
(8.00079 0.00706909 0)
(7.99953 0.00200018 -2.04963e-25)
(7.99765 0.00174603 4.05838e-25)
(7.99473 0.00129093 0)
(8.00531 -0.00369163 3.39572e-26)
(8.01854 -0.00308931 6.95288e-25)
(8.00157 0.00898719 -3.00111e-24)
(8.00181 0.00962883 0)
(7.9972 0.0816373 2.06414e-23)
(7.9925 0.0670289 -6.36078e-24)
(7.99868 0.087576 -2.53669e-25)
(7.98736 0.0546171 0)
(7.98302 0.0472314 -1.65127e-25)
(7.98785 0.0274349 0)
(7.98532 0.034462 3.98632e-23)
(7.98417 0.0387411 1.44879e-23)
(7.99148 0.0241335 -5.8977e-24)
(7.99198 0.0216333 3.91661e-24)
(7.99476 0.0194063 2.48784e-24)
(7.99581 0.0163123 9.0799e-24)
(7.99906 0.0118976 -3.61968e-24)
(7.99708 0.0123435 0)
(7.99584 0.0146054 1.61509e-23)
(8.00179 0.0106464 -6.65268e-24)
(8.12555 0.13542 -3.19519e-23)
(8.21303 0.103608 -7.7248e-23)
(8.16259 0.124349 -6.07053e-23)
(8.1818 0.0624898 0)
(8.23915 0.0873316 -7.53371e-23)
(8.34873 -0.2598 1.39277e-22)
(8.28461 -0.0846981 1.59857e-23)
(8.06568 0.148921 7.08019e-24)
(8.04564 0.143305 3.52211e-23)
(8.02281 0.13699 -2.21302e-23)
(8.0185 0.129624 0)
(8.0052 0.11704 4.91042e-23)
(8.10316 0.1471 0)
(7.99974 0.0997738 -2.55906e-25)
(8.00087 0.00506537 8.47659e-24)
(8.0003 0.0035566 0)
(8.00119 0.00417986 -9.95747e-25)
(8.00002 0.00254462 -9.11422e-25)
(8.00053 0.00671021 0)
(7.99923 0.00160987 -3.24455e-25)
(7.9995 0.00145904 -3.41853e-25)
(7.99606 0.00182774 0)
(7.99489 0.00204355 0)
(8.01835 -0.00166554 -1.31008e-25)
(8.00131 0.00778023 -2.9994e-24)
(8.00177 0.0096069 -6.58161e-24)
(7.98831 0.0839085 -6.48823e-24)
(7.98287 0.0668958 3.59223e-23)
(7.9821 0.0551443 -1.58888e-23)
(7.97855 0.0473189 9.14765e-24)
(7.98393 0.0270671 -1.26197e-23)
(7.98889 0.0244843 -1.93518e-23)
(7.98278 0.0305339 2.48736e-23)
(7.97856 0.0391845 2.73421e-23)
(7.98977 0.020455 2.0442e-23)
(7.99253 0.0183594 0)
(7.99313 0.0166476 4.99645e-24)
(7.9994 0.0107684 -3.62128e-24)
(7.99557 0.0119973 6.27723e-24)
(7.99366 0.0138875 4.83443e-24)
(8.14681 0.138929 -9.63251e-23)
(8.18989 0.122208 0)
(8.19383 0.0741388 0)
(8.27358 0.108446 5.42498e-24)
(8.37565 0.185839 -8.21694e-23)
(8.33186 0.00720169 -2.58516e-23)
(8.06632 0.166759 5.76774e-24)
(8.04393 0.15528 2.35263e-23)
(8.02013 0.151383 -2.20813e-23)
(8.01305 0.136736 0)
(8.00139 0.12674 6.18282e-23)
(8.1073 0.173645 0)
(7.99276 0.104544 2.51996e-23)
(8.00022 0.00503714 0)
(8.00099 0.00448269 8.50542e-24)
(8.00046 0.00301153 3.07285e-24)
(8.00062 0.0031193 0)
(8 0.00244375 -1.34281e-24)
(8.0004 0.00562666 0)
(7.99907 0.00153524 -1.78098e-24)
(7.99876 0.000873318 -2.9863e-25)
(7.99801 0.00060995 0)
(7.99641 0.0013237 0)
(8.01903 -0.00232077 0)
(7.99744 0.00281218 5.22162e-25)
(8.00206 0.007769 5.73288e-24)
(8.00156 0.00872072 0)
(7.98225 0.0888994 0)
(7.97799 0.0781493 -4.13131e-23)
(7.97659 0.0721181 7.94773e-24)
(7.97867 0.0599978 0)
(7.97734 0.0509381 -1.09691e-23)
(7.97578 0.0436636 -1.57016e-24)
(7.98301 0.02426 -1.90146e-23)
(7.98611 0.0225281 -1.41655e-23)
(7.97795 0.0310055 0)
(7.97606 0.0347736 2.73121e-23)
(7.98643 0.0204177 1.00226e-23)
(7.99013 0.0185973 -1.06752e-23)
(7.99108 0.0154875 -4.12362e-24)
(7.99782 0.0100103 3.47735e-24)
(7.99388 0.0122895 0)
(7.99538 0.0107717 6.34235e-24)
(7.99169 0.0140484 4.87596e-24)
(8.15316 0.163074 -6.46134e-23)
(8.20092 0.148129 0)
(8.26172 0.101468 7.4816e-24)
(8.226 0.0511671 1.02238e-24)
(8.26393 0.141302 1.64906e-23)
(8.20179 0.111354 5.08809e-23)
(8.79172 -0.591754 -2.0926e-22)
(8.43099 -0.0974784 -5.08052e-24)
(8.07175 0.186879 -1.82543e-23)
(8.05365 0.172198 2.90186e-23)
(8.02449 0.160519 5.46258e-25)
(8.01688 0.151574 0)
(8.00537 0.137224 1.44026e-23)
(7.99407 0.126167 5.00813e-23)
(8.09593 0.191462 -1.76424e-23)
(8.1339 0.180862 0)
(7.99158 0.115989 7.42183e-23)
(7.98414 0.0997906 1.64476e-23)
(8.00013 0.0041149 1.09779e-24)
(8.00048 0.00382204 -1.92202e-24)
(8.00029 0.00262003 3.06622e-24)
(8.00056 0.00291139 1.00952e-24)
(7.99967 0.00182383 -2.84939e-24)
(8.00054 0.005213 -5.5511e-24)
(7.99935 0.0012305 9.56605e-25)
(7.99891 0.00150023 6.92435e-25)
(7.99761 0.00105153 1.2943e-26)
(7.99697 0.000579324 0)
(8.0151 -0.000201817 3.29138e-25)
(7.99532 0.00359746 -8.33955e-25)
(8.00151 0.00666231 5.64708e-24)
(7.99998 0.00860823 -1.2584e-24)
(7.95906 0.0858658 0)
(7.95879 0.0802817 -1.26387e-23)
(7.96485 0.0695517 -1.57121e-23)
(7.97011 0.0583684 -1.11639e-23)
(7.96915 0.051621 -1.11097e-23)
(7.96767 0.0420744 -1.62427e-24)
(7.98004 0.0228913 -1.02935e-23)
(7.97423 0.0272706 0)
(7.96816 0.0344414 1.40018e-23)
(7.98344 0.0189455 -5.98505e-24)
(7.98829 0.0172783 -9.42585e-24)
(7.9885 0.0158232 -3.04275e-24)
(7.9963 0.0103066 -8.19967e-24)
(7.99828 0.00885772 8.29888e-24)
(7.99218 0.0116555 1.3329e-23)
(7.99342 0.0102448 -1.02925e-23)
(7.99033 0.0130502 -1.78219e-24)
(8.17769 0.17206 0)
(8.22585 0.160462 9.38799e-23)
(8.29434 0.111789 8.13409e-23)
(8.23266 0.0979918 -2.25261e-23)
(8.29508 0.157073 6.6475e-23)
(8.09062 0.337424 -6.56712e-24)
(8.94976 -0.0900085 -1.45043e-22)
(8.41272 -0.0050822 7.38221e-24)
(8.05883 0.207251 1.32665e-24)
(8.04263 0.181356 0)
(8.02191 0.175681 0)
(8.0107 0.156454 0)
(7.99758 0.14075 1.42132e-23)
(7.98893 0.136503 0)
(8.09592 0.208858 3.72036e-23)
(8.13855 0.203665 -3.21899e-24)
(7.97456 0.120189 1.29309e-23)
(7.96641 0.102783 9.03514e-24)
(7.99999 0.00391594 6.04324e-25)
(8.00033 0.00322023 1.06525e-24)
(8.0003 0.0021414 4.84952e-26)
(8.00041 0.00222827 -5.99298e-24)
(8 0.00163291 0)
(8.00146 0.00551073 0)
(8.00023 0.00410136 -9.75603e-25)
(7.99964 0.000784246 -1.0455e-25)
(7.99858 0.00119107 9.08515e-26)
(7.99719 0.00163215 -6.50327e-25)
(8.01373 -0.00489831 3.09216e-24)
(7.99814 0.00466839 5.3499e-26)
(8.00053 0.00680655 -9.36166e-26)
(7.99968 0.00733094 -6.01912e-24)
(7.95211 0.0938051 -9.78028e-24)
(7.95008 0.0774552 1.61884e-23)
(7.96367 0.0603545 0)
(7.95807 0.0688961 -2.89884e-24)
(7.96434 0.0480194 0)
(7.96434 0.0377995 0)
(7.97918 0.0193251 -2.85458e-24)
(7.97552 0.0231584 -7.74894e-24)
(7.96805 0.0265453 -1.2395e-23)
(7.96428 0.0303476 1.40494e-23)
(7.98367 0.0173456 0)
(7.98644 0.0143775 -9.30546e-25)
(7.99499 0.00909509 5.168e-25)
(7.99674 0.00798813 0)
(7.98994 0.0119456 8.665e-24)
(7.9917 0.0106251 -7.09829e-24)
(7.99334 0.00930325 8.60656e-24)
(7.9868 0.0128106 4.32482e-24)
(8.18467 0.197519 1.43432e-23)
(8.22898 0.197849 1.06522e-22)
(8.27654 0.11696 0)
(8.31306 0.144816 8.11511e-23)
(8.29109 0.190819 8.3377e-23)
(8.09285 0.182048 0)
(9.08654 -0.316022 1.91378e-22)
(8.41602 -0.0504167 4.51283e-24)
(8.05055 0.209894 -3.90432e-23)
(8.06892 0.216795 3.27575e-23)
(8.04315 0.199181 -4.32403e-23)
(8.01674 0.186041 -1.32953e-23)
(8.00802 0.169488 2.97896e-26)
(7.99755 0.150862 0)
(7.97973 0.138922 3.4456e-23)
(8.11405 0.217208 3.2924e-23)
(8.16347 0.213485 0)
(7.97229 0.131442 4.18522e-23)
(7.96339 0.11316 9.09167e-24)
(7.99994 0.00331443 -2.37614e-24)
(7.99997 0.00303936 0)
(8.0002 0.00171741 -6.19578e-24)
(7.99991 0.00110293 0)
(8.00145 0.00462398 -9.93204e-24)
(8.00039 0.00378831 4.6125e-24)
(7.99964 0.000565475 -1.08117e-25)
(7.99926 0.00111738 0)
(7.99818 0.00232177 1.61338e-25)
(8.00937 -0.00198185 9.68902e-24)
(7.99502 0.00393329 6.09226e-25)
(7.99971 0.00554364 -8.90585e-25)
(7.99746 0.00711954 0)
(7.93583 0.0908407 4.81191e-23)
(7.94313 0.0731307 3.00136e-24)
(7.95138 0.0564653 1.82033e-23)
(7.94484 0.0631465 2.35846e-23)
(7.95594 0.0468214 -4.69136e-24)
(7.95747 0.0362557 -2.66767e-23)
(7.97429 0.0178826 0)
(7.97138 0.0216699 0)
(7.96634 0.0227437 -1.1097e-23)
(7.96192 0.0287809 -3.17825e-24)
(7.97959 0.0157393 0)
(7.98124 0.013597 0)
(7.99528 0.00815972 0)
(7.98568 0.0108742 4.48187e-25)
(7.9895 0.00966761 5.25522e-24)
(7.99221 0.00868521 -4.86202e-24)
(7.98369 0.0117544 5.14759e-24)
(8.20889 0.214043 1.42949e-23)
(8.25172 0.211445 2.91099e-23)
(8.28518 0.111991 0)
(8.35004 0.153952 1.73067e-23)
(8.32051 0.203082 0)
(7.88297 0.0803649 0)
(9.24905 0.0140803 5.06894e-23)
(8.52783 -0.00506317 0)
(8.05074 0.232879 0)
(8.06969 0.235764 3.18142e-23)
(8.02446 0.203915 -6.28616e-23)
(8.01148 0.183986 -2.38485e-23)
(7.98828 0.170814 3.34948e-26)
(7.98655 0.156507 0)
(7.97903 0.152168 1.15368e-23)
(8.10804 0.238587 2.42024e-23)
(8.15922 0.236026 0)
(7.95564 0.134081 1.91031e-23)
(7.94017 0.110724 0)
(7.99998 0.00310141 0)
(7.99967 0.00251093 0)
(7.99943 0.0018562 0)
(8.00013 0.00117477 -2.39624e-24)
(8.0001 0.0010407 -7.91791e-25)
(8.00118 0.00390742 -1.08641e-23)
(8.00008 0.00484374 1.07445e-24)
(8.00017 0.00306194 0)
(7.99963 0.000746881 0)
(7.99957 0.0007344 0)
(7.99941 0.00175541 6.33241e-25)
(7.99849 0.00235601 3.51063e-25)
(8.00693 -0.00830984 3.85474e-24)
(7.99737 0.00616995 0)
(7.99769 0.00458918 6.92087e-25)
(7.99754 0.00572143 1.90778e-23)
(7.9967 0.00640682 6.13667e-24)
(7.92847 0.0815811 4.64351e-23)
(7.9256 0.101606 2.24928e-24)
(7.93495 0.0731727 9.00847e-24)
(7.95043 0.0506509 -8.46746e-24)
(7.94321 0.0612412 3.59852e-23)
(7.95178 0.0411871 1.93655e-23)
(7.95823 0.0312651 -1.93238e-23)
(7.95477 0.0374318 9.033e-24)
(7.97543 0.0154382 1.6533e-23)
(7.97282 0.0187834 0)
(7.96979 0.0201939 1.1649e-23)
(7.96807 0.0211721 0)
(7.96495 0.0238073 0)
(7.97763 0.0120891 0)
(7.99445 0.00714206 7.17219e-24)
(7.98563 0.00973572 -2.60714e-24)
(7.98942 0.00846948 5.50695e-24)
(7.9915 0.00749846 -4.31309e-24)
(7.97944 0.0109529 0)
(8.21244 0.235082 0)
(8.26052 0.242817 0)
(8.32981 0.0730395 1.02821e-22)
(8.3467 0.129998 0)
(8.3608 0.179275 0)
(8.31998 0.230049 0)
(8.15574 0.0148418 -3.89912e-23)
(8.4052 0.0116198 -9.74256e-23)
(9.37471 -0.447988 5.21162e-22)
(8.03755 0.244372 0)
(8.0629 0.243401 -1.29798e-24)
(8.08297 0.246695 -3.62398e-23)
(8.021 0.216299 -3.50821e-23)
(8.00273 0.198932 2.78903e-24)
(7.9805 0.183559 1.73339e-25)
(7.96778 0.155068 6.34666e-24)
(8.12695 0.248449 2.43418e-23)
(8.18012 0.24617 0)
(7.95541 0.146512 0)
(7.93534 0.123712 0)
(7.99989 0.00263488 4.72093e-24)
(7.99927 0.00136142 0)
(7.99972 0.00111373 -2.61516e-24)
(7.99988 0.0008099 9.12839e-25)
(8.00122 0.00334458 -1.50268e-24)
(7.99884 0.00422593 2.86407e-24)
(8.00065 0.00290251 -1.49984e-24)
(7.99968 0.000796506 5.37487e-26)
(7.99971 0.00107697 7.65889e-25)
(8.00006 0.00120977 6.89543e-25)
(8.00045 0.00137048 7.04234e-26)
(7.99957 0.0020561 2.24336e-25)
(7.99853 0.00173894 -2.65214e-25)
(7.99986 -5.80315e-05 3.27813e-25)
(7.99657 0.00495994 2.07387e-23)
(7.99509 0.00612514 5.80884e-24)
(7.91882 0.0793461 1.67829e-23)
(7.91155 0.0988412 -2.65475e-23)
(7.92913 0.0663509 1.72565e-23)
(7.94497 0.0466065 -4.06133e-23)
(7.93772 0.0572157 -5.76365e-23)
(7.94784 0.0409731 -1.45295e-23)
(7.95906 0.0299258 0)
(7.9557 0.0332241 -1.06136e-23)
(7.9745 0.0134393 1.65569e-23)
(7.97355 0.0173154 -3.84547e-24)
(7.97158 0.0178826 6.68283e-24)
(7.97311 0.017557 1.92576e-24)
(7.96833 0.0231941 -1.35297e-23)
(7.97596 0.0118503 0)
(7.99298 0.00695265 -4.28017e-24)
(7.98206 0.00862946 5.24045e-25)
(7.98668 0.00804565 3.78126e-24)
(7.9884 0.00729475 -4.26367e-24)
(7.97702 0.00898384 0)
(8.2217 0.256659 0)
(8.2449 0.260389 4.69485e-23)
(8.2839 0.250264 0)
(8.37443 0.0812746 8.18722e-23)
(8.38411 0.128207 -3.18808e-23)
(8.38667 0.194997 0)
(8.34396 0.245581 0)
(8.15378 0.194462 3.84537e-23)
(8.50042 0.096046 -7.80061e-23)
(9.30736 -0.336214 1.51286e-22)
(8.03755 0.264071 0)
(8.02357 0.235623 -3.15835e-24)
(8.06771 0.267646 -2.82682e-24)
(8.08318 0.264704 -2.42885e-23)
(8.00819 0.214835 2.65994e-23)
(7.98271 0.198946 0)
(7.97086 0.182688 1.69321e-25)
(7.9649 0.167115 6.23145e-24)
(8.1197 0.269832 3.18606e-23)
(8.17079 0.267547 1.7136e-23)
(7.94097 0.147836 0)
(7.92099 0.129712 0)
(7.99987 0.00211796 7.02062e-25)
(7.99901 0.00124405 1.03271e-24)
(7.99965 0.000824321 -2.64878e-24)
(8.00001 0.000839956 5.61756e-25)
(8.00079 0.00323036 0)
(7.99722 0.00424651 4.92732e-24)
(7.99911 0.00346484 -8.23465e-24)
(8.00069 0.00250335 1.41877e-24)
(7.99975 0.000864549 -3.30281e-25)
(7.99988 0.00120331 6.79997e-25)
(8.00019 0.00120743 -5.37284e-25)
(7.9998 0.00100827 0)
(7.99972 0.000668334 -1.049e-25)
(7.99515 0.00475131 -1.8214e-23)
(7.99446 0.00534268 -1.74434e-23)
(7.91988 0.0708113 4.4259e-23)
(7.91003 0.0888467 -8.48683e-24)
(7.90427 0.113453 -2.02779e-23)
(7.92595 0.0648448 5.07729e-23)
(7.9339 0.0597724 0)
(7.9405 0.0496541 -6.61256e-23)
(7.95167 0.0393512 7.42537e-24)
(7.96429 0.0266538 -5.81746e-24)
(7.95556 0.0347604 -1.07012e-23)
(7.97582 0.0136895 0)
(7.97639 0.014779 0)
(7.97431 0.0165487 1.03882e-23)
(7.9806 0.0153394 -4.26662e-24)
(7.97672 0.0191224 -2.69434e-23)
(7.97724 0.010695 0)
(7.99227 0.00576704 -1.87253e-23)
(7.983 0.0072681 3.44956e-24)
(7.9798 0.00733726 -4.06111e-24)
(7.98632 0.00734352 -4.62575e-24)
(7.98629 0.00610341 -3.20227e-24)
(7.98009 0.00946306 -4.86015e-24)
(8.19563 0.276067 -3.08558e-23)
(8.24873 0.293451 6.65038e-23)
(8.29095 0.275488 6.69832e-24)
(8.41786 0.0889634 0)
(8.42815 0.165941 -3.82309e-23)
(8.37282 0.237393 0)
(8.42779 0.192764 -1.10171e-22)
(8.32179 0.270642 0)
(7.93902 -0.0359711 1.24496e-22)
(8.43711 -0.0628387 1.73882e-22)
(9.37643 0.210513 -4.55543e-22)
(8.05204 0.276673 -2.13084e-23)
(8.02043 0.273385 0)
(8.00941 0.246495 -1.73542e-23)
(8.07744 0.276136 7.95552e-24)
(8.09545 0.276462 -1.75678e-23)
(7.99647 0.222067 7.86932e-24)
(7.97788 0.212966 0)
(7.95733 0.192433 -3.89647e-23)
(7.94287 0.16577 3.63181e-23)
(8.13766 0.278956 3.10107e-23)
(7.93489 0.15823 3.8361e-23)
(7.92283 0.139298 0)
(7.9118 0.126723 0)
(7.99963 0.00139694 -4.41416e-24)
(7.99912 0.000764393 -3.41542e-24)
(7.99929 0.000851981 -2.64703e-24)
(7.99991 0.000812782 -1.69292e-24)
(8.00026 0.00237197 0)
(7.99592 0.00351237 -1.27525e-23)
(7.99752 0.00291241 -1.61647e-23)
(8.00114 0.00169872 -5.49198e-25)
(7.99986 0.000980433 0)
(7.99989 0.00107192 2.65401e-25)
(8.00012 0.000924011 -1.06432e-24)
(8.00007 0.000821015 2.36459e-25)
(8 0.000465094 0)
(7.99491 0.00384342 0)
(7.99407 0.00522833 -1.46609e-23)
(7.91954 0.0687452 0)
(7.90622 0.0873487 3.60379e-23)
(7.88695 0.114606 5.03343e-23)
(7.9296 0.0591612 2.76033e-23)
(7.9347 0.0554919 0)
(7.9434 0.045991 -6.5807e-23)
(7.95174 0.0373803 -4.10196e-24)
(7.97086 0.0255328 -5.93058e-24)
(7.96221 0.0321515 0)
(7.97923 0.0126798 0)
(7.98028 0.0107701 0)
(7.9829 0.0137848 9.62808e-24)
(7.98099 0.0145985 1.03449e-23)
(7.98062 0.0154737 -9.24419e-24)
(7.98538 0.0125837 1.80553e-25)
(7.97772 0.0205793 0)
(7.98902 0.00535618 0)
(7.98041 0.00657366 -6.72888e-25)
(7.98101 0.00586993 -9.16123e-24)
(7.98242 0.00631421 0)
(7.98693 0.00533793 -1.85408e-24)
(7.98255 0.00586267 -3.23362e-24)
(7.98885 0.00725153 -5.63453e-24)
(8.19324 0.301246 -4.93408e-23)
(8.27656 0.294068 8.4596e-23)
(8.22061 0.311019 -5.47836e-23)
(8.45062 0.148502 0)
(8.4736 0.166036 1.45029e-23)
(8.39167 0.24695 0)
(8.43101 0.217478 -5.72136e-23)
(8.33847 0.293855 1.48841e-23)
(7.94006 0.359023 0)
(8.72509 0.112347 1.26033e-22)