/*--------------------------------*- C++ -*----------------------------------*\
| =========                 |                                                 |
| \\      /  F ield         | OpenFOAM: The Open Source CFD Toolbox           |
|  \\    /   O peration     | Version:  v2012                                 |
|   \\  /    A nd           | Website:  www.openfoam.com                      |
|    \\/     M anipulation  |                                                 |
\*---------------------------------------------------------------------------*/
FoamFile
{
    version     2.0;
    format      ascii;
    class       surfaceVectorField;
    location    "1.7";
    object      Uf;
}
// * * * * * * * * * * * * * * * * * * * * * * * * * * * * * * * * * * * * * //

dimensions      [0 1 -1 0 0 0 0];


internalField   nonuniform List<vector> 
21888
(
(8.12767 -0.00667006 -6.60066e-25)
(8.13797 0.00508564 -2.24657e-21)
(8.05506 -0.00454394 9.8228e-24)
(8.09873 -0.00579604 -2.94525e-24)
(8.1298 0.00578354 2.43807e-24)
(8.09276 0.00911389 2.09446e-22)
(8.0274 0.00620345 1.1178e-23)
(8.00703 0.00439804 1.89752e-22)
(8.12913 -0.0227299 -3.46031e-20)
(8.08453 0.00588268 5.31178e-24)
(8.1257 0.00632987 1.04064e-21)
(8.0238 0.00853907 4.86869e-24)
(8.00414 0.00857488 1.27652e-23)
(7.99025 0.0124814 9.67799e-24)
(8.13122 -0.0391969 -1.05523e-23)
(8.03616 0.0110145 -2.59284e-21)
(8.06139 0.00642914 2.7187e-24)
(8.08642 0.00877135 5.24959e-23)
(8.12412 0.00633901 -2.70564e-24)
(8.02775 0.00777704 4.04817e-24)
(7.99088 0.0106718 -4.83845e-23)
(7.98777 0.0159337 2.2165e-24)
(7.99096 0.0194252 5.72232e-24)
(7.98454 0.016982 0)
(8.16866 -0.0267691 -2.70703e-25)
(8.11853 0.00243202 -1.205e-21)
(8.0634 0.00364365 7.91882e-21)
(8.02536 0.00367332 2.1175e-22)
(8.03017 0.0102001 8.28185e-25)
(8.12031 0.0048572 -3.08944e-25)
(7.98041 0.0153784 3.13567e-24)
(7.97693 0.0133738 -4.50459e-22)
(7.98952 0.0105235 -1.3865e-21)
(7.98535 0.014964 -2.542e-24)
(8.00009 0.0209756 2.91881e-22)
(8.00595 0.0194789 1.2583e-23)
(7.98824 0.0154641 0)
(8.16077 -0.0246559 0)
(8.06503 0.0107048 3.83767e-24)
(7.99608 0.00285409 2.11802e-21)
(7.99512 0.0105676 3.31367e-24)
(8.02878 0.00949822 -2.76845e-25)
(8.08408 0.00590587 2.38037e-24)
(8.11721 0.00387709 -3.1296e-25)
(7.97547 0.0115708 -3.74179e-24)
(7.98188 0.0136111 4.93177e-24)
(7.99928 0.0193549 5.3715e-24)
(8.00409 0.0165791 1.00749e-24)
(8.01029 0.0211205 -2.85176e-24)
(8.01443 0.0188704 -7.97543e-22)
(8.00913 0.0177508 5.86634e-24)
(7.99034 0.0148252 0)
(7.99857 0.0151311 1.06015e-25)
(8.1376 -0.00629545 0)
(8.18467 -0.0133049 -5.63926e-24)
(8.00891 0.00341907 -4.43866e-21)
(8.03542 0.00939952 6.41211e-22)
(7.99497 0.00941187 2.25264e-24)
(7.97427 0.0108873 -6.77369e-23)
(8.02502 0.00562767 -1.40726e-24)
(8.11409 0.0030353 0)
(7.99083 0.0122942 0)
(8.00801 0.0146428 -1.31605e-21)
(8.01604 0.0191497 1.03684e-23)
(8.01947 0.0217558 -7.19323e-24)
(8.01867 0.022986 -7.24408e-22)
(8.01839 0.020986 7.28808e-24)
(8.01769 0.0207849 7.40334e-22)
(8.007 0.016087 9.71532e-26)
(8.01134 0.0178224 -1.27625e-23)
(8.00802 0.01494 5.68896e-22)
(8.06439 0.000735586 -3.74121e-25)
(8.09434 0.00282313 3.5227e-24)
(8.17622 -0.00964698 -1.00207e-20)
(8.02056 0.009897 -2.71372e-24)
(8.01087 0.0155442 1.34605e-24)
(7.97585 0.0105179 -9.18517e-22)
(7.97988 0.0096267 2.81839e-24)
(7.99433 0.00835042 6.68947e-23)
(8.02172 0.00284761 1.36803e-21)
(8.06689 0.00297359 3.21211e-24)
(8.10429 0.00217343 2.1646e-24)
(7.99091 0.00970721 0)
(7.99981 0.0117055 0)
(8.02115 0.0228305 2.25436e-24)
(8.02572 0.024003 -2.22664e-22)
(8.02202 0.0228913 4.68169e-24)
(8.02502 0.026041 -6.91335e-24)
(8.01555 0.0193437 -3.48785e-22)
(8.01821 0.0213203 6.87664e-23)
(8.01343 0.0173658 -1.43919e-23)
(8.00819 0.0136358 1.39103e-25)
(8.0115 0.0150291 1.41783e-25)
(8.0592 0.00645128 1.425e-23)
(8.10462 -0.000423013 7.89551e-22)
(8.15934 -0.0123054 -1.0277e-22)
(8.17684 -0.0161357 -1.34389e-21)
(8.02386 0.00988955 -1.0611e-21)
(8.01345 0.0128561 -1.58985e-24)
(8.01582 0.0171988 -7.77706e-22)
(8.02378 0.0220051 -1.02192e-23)
(7.97482 0.00870803 7.34621e-24)
(7.99157 0.00909254 0)
(8.00534 0.00299148 -3.5408e-21)
(8.10099 0.00385206 2.67076e-21)
(8.00815 0.0113746 4.8508e-24)
(8.03131 0.0263793 -7.27687e-25)
(8.03321 0.0300963 5.86291e-24)
(8.02419 0.0264056 1.04255e-22)
(8.02133 0.0252495 -1.7511e-23)
(8.02683 0.0280114 7.28968e-24)
(8.02932 0.0298143 -7.00075e-24)
(8.0194 0.0241969 7.05904e-23)
(8.01631 0.0227728 -6.49353e-24)
(8.01258 0.0161692 4.46743e-24)
(8.02976 0.00822061 -1.54698e-25)
(8.1204 -0.00343528 5.46907e-24)
(8.17466 -0.00529978 -3.02775e-25)
(8.02224 0.0187889 -5.20351e-24)
(8.03659 0.0289189 -8.07733e-22)
(7.9763 0.00904802 6.68717e-24)
(7.97748 0.00743192 2.26697e-22)
(8.00049 0.00893179 4.5912e-24)
(7.99247 0.00869867 -5.56892e-24)
(7.98639 0.00979423 3.79913e-24)
(8.04953 0.00678466 2.39179e-22)
(8.10548 0.00476708 -8.06764e-25)
(8.00782 0.0098654 2.66575e-22)
(8.00982 0.0109947 -1.41568e-24)
(8.03211 0.0313205 -6.56008e-22)
(8.03551 0.0331816 -2.23398e-24)
(8.02257 0.0289931 7.01338e-24)
(8.01723 0.0266403 -6.85604e-23)
(8.02778 0.0329206 -2.88196e-23)
(8.0139 0.0244461 -8.63716e-24)
(8.01459 0.0222494 -2.12564e-24)
(8.01061 0.0135686 -1.77916e-22)
(8.01146 0.016581 5.29761e-24)
(8.02629 0.0141519 -7.428e-24)
(8.03675 0.00964007 -2.66156e-21)
(8.08368 0.00778132 3.07447e-25)
(8.13417 0.00238493 -5.19528e-22)
(8.1711 0.00693015 -2.07063e-22)
(8.19238 -0.0157948 3.70405e-24)
(8.02797 0.0193423 -1.82043e-23)
(8.03548 0.0247337 2.19734e-22)
(8.04456 0.0314253 -1.11604e-21)
(8.04826 0.0375028 -1.15335e-22)
(7.9871 0.00761858 1.7099e-22)
(7.98364 0.00678413 -1.50316e-23)
(8.00781 0.00936266 5.04191e-25)
(7.99804 0.00853084 -2.68946e-23)
(7.9909 0.0112884 -2.23692e-24)
(7.98387 0.00787281 -2.85437e-25)
(7.99463 0.00854646 -1.69768e-21)
(8.10175 0.00794286 3.59094e-21)
(8.00872 0.0119537 1.18396e-24)
(8.03639 0.0380317 1.02928e-23)
(8.03078 0.0373294 0)
(8.02047 0.0318883 -4.04263e-24)
(8.01746 0.0298199 -6.44736e-24)
(8.01457 0.0279687 2.48564e-25)
(8.01368 0.0265284 -6.79596e-24)
(8.02526 0.036812 -6.55213e-24)
(8.02285 0.0345948 2.40387e-22)
(8.01284 0.0252504 1.99863e-22)
(8.01217 0.0242776 -1.93707e-22)
(8.01245 0.0197677 -2.86369e-24)
(8.01262 0.0223759 7.1084e-23)
(8.01037 0.0163815 -1.07625e-23)
(8.03419 0.0205397 -2.86817e-22)
(8.04284 0.012077 1.78841e-21)
(8.1264 0.00969376 3.98056e-24)
(8.15895 -0.0681381 6.06694e-25)
(8.05087 0.0321676 2.14982e-22)
(8.04368 0.0402032 5.74814e-24)
(8.05007 0.0415751 -1.17528e-23)
(7.9844 0.00751496 -6.48115e-25)
(7.99272 0.00722443 -3.71815e-25)
(8.00665 0.00907766 -1.24223e-22)
(8.00834 0.00967219 -9.77915e-24)
(8.00284 0.00844133 -6.40965e-24)
(7.98424 0.0091815 1.85843e-22)
(7.99855 0.00860164 2.05401e-21)
(7.98101 0.00799028 -5.24647e-22)
(8.05645 0.00900734 -2.71739e-24)
(8.10647 0.0132843 2.40301e-21)
(8.0073 0.0112997 -2.96832e-22)
(8.00767 0.012704 -1.46162e-23)
(8.0338 0.0448906 1.97051e-21)
(8.02722 0.0415264 -5.96132e-24)
(8.02017 0.0360552 -7.66448e-24)
(8.01474 0.0296688 -1.53933e-23)
(8.01578 0.0327712 2.54398e-22)
(8.01349 0.0290679 1.14924e-23)
(8.01204 0.0264129 -9.52811e-23)
(8.01171 0.0228809 -1.31294e-24)
(8.00864 0.0145393 2.4194e-22)
(8.00933 0.0166238 -1.04635e-23)
(8.04934 0.0251915 3.87437e-23)
(8.03934 0.0194195 -1.95496e-23)
(8.06088 0.0103394 -3.63319e-24)
(8.0331 0.0155198 -4.10793e-24)
(8.09832 0.000930634 2.30862e-23)
(8.13797 -0.0431803 2.88908e-23)
(8.16804 -0.0351723 1.64032e-21)
(8.0555 0.0301792 -7.20252e-22)
(8.05684 0.036645 -2.16133e-23)
(8.04979 0.0434586 -1.00986e-21)
(8.03899 0.0465221 -2.17995e-23)
(8.00193 0.00871979 -1.17611e-24)
(8.00615 0.0105191 -2.11453e-23)
(7.97936 0.010009 1.30154e-24)
(7.99196 0.00924034 -3.61311e-25)
(8.0013 0.0107281 2.05077e-24)
(7.9775 0.00964047 -6.79371e-22)
(8.1016 0.0112609 8.7212e-22)
(8.00679 0.0136237 -1.04965e-23)
(8.03314 0.047209 3.70366e-22)
(8.03155 0.0452509 -9.4595e-22)
(8.03052 0.0467404 6.87974e-22)
(8.02675 0.0463008 -6.87606e-24)
(8.01751 0.0364588 9.43256e-24)
(8.02024 0.0397379 -4.61625e-22)
(8.01513 0.0357484 -1.91488e-24)
(8.01179 0.0283533 1.83991e-22)
(8.01206 0.0298017 -9.22995e-23)
(8.01048 0.0273223 2.88142e-22)
(8.01077 0.020912 7.02424e-23)
(8.01005 0.023356 4.79002e-22)
(8.00939 0.0186392 -1.28193e-24)
(8.00772 0.0168276 4.98092e-24)
(8.06252 0.0319297 1.41693e-21)
(8.04128 0.0247402 0)
(8.11553 -0.0132175 -1.13944e-20)
(8.17675 0.0449528 -1.60268e-23)
(8.27926 -0.0693511 -2.41016e-23)
(8.05674 0.0420357 -1.09311e-21)
(8.06204 0.0422531 -2.63845e-22)
(8.05277 0.0487033 5.55903e-22)
(8.03452 0.0499835 2.98563e-22)
(8.00174 0.00891072 -3.46809e-22)
(8.00384 0.00934057 -1.1531e-24)
(8.00483 0.0101992 -1.10473e-24)
(8.00529 0.0117367 -1.1354e-24)
(8.00022 0.00817165 -3.23616e-24)
(7.99715 0.0089465 0)
(8.00313 0.0133332 1.41754e-24)
(7.98379 0.0107859 1.37837e-23)
(7.98651 0.00929398 2.76978e-24)
(7.97727 0.00943932 4.18309e-22)
(8.05165 0.0140117 1.50981e-24)
(8.08944 0.00487331 5.62091e-24)
(8.00567 0.013 0)
(8.00618 0.0140928 1.12599e-24)
(8.03349 0.0498756 -4.41875e-24)
(8.02301 0.0445548 1.92209e-23)
(8.02347 0.0492314 0)
(8.01698 0.0437646 4.21178e-23)
(8.01237 0.0332184 1.59842e-23)
(8.01158 0.0367628 9.11104e-23)
(8.00941 0.0315402 1.22184e-23)
(8.00948 0.0250992 -1.4231e-22)
(8.00857 0.0275138 3.42239e-23)
(8.00801 0.0206038 -1.15517e-24)
(8.0077 0.0235167 8.44762e-24)
(8.00655 0.0155663 -1.50962e-23)
(8.00586 0.0172057 4.57521e-24)
(8.06668 0.0428378 -9.59843e-22)
(8.07102 0.0362572 -3.11064e-23)
(8.07771 0.0200077 2.72571e-23)
(8.04491 0.04201 -1.04069e-23)
(8.12251 -0.00245458 1.68342e-23)
(8.13528 0.0281679 1.07572e-20)
(8.14002 0.0370382 4.98521e-22)
(8.32236 -0.0813067 -1.82043e-20)
(8.06676 0.0491538 -1.00804e-23)
(8.05437 0.0558943 2.63201e-23)
(8.04589 0.0567819 8.55039e-24)
(8.0375 0.0525508 -1.26923e-23)
(8.03837 0.0552295 -1.6434e-23)
(8.00092 0.00923405 -5.44769e-22)
(8.00339 0.010511 0)
(8.00457 0.0122751 0)
(7.99722 0.00858803 -1.00131e-24)
(7.99551 0.0147778 -3.84055e-21)
(7.97828 0.0110281 -1.43068e-22)
(8.08843 -0.00493188 -8.2138e-21)
(8.00534 0.0144828 -1.52345e-22)
(8.03607 0.0540158 0)
(8.01799 0.0520459 0)
(8.0223 0.0549857 0)
(8.01383 0.0486971 9.42532e-24)
(8.01178 0.0443652 -9.60293e-23)
(8.00957 0.0404081 1.53523e-23)
(8.00684 0.0368818 6.00875e-24)
(8.00661 0.032431 6.86374e-23)
(8.00765 0.0307746 5.72607e-24)
(8.00755 0.0285695 3.20616e-24)
(8.00686 0.0264511 4.11834e-23)
(8.00605 0.0225427 0)
(8.00557 0.0207737 0)
(8.00604 0.0240245 2.13329e-24)
(8.00499 0.0186012 0)
(8.00426 0.0170461 0)
(8.06256 0.0366959 3.27797e-21)
(8.07967 0.0384746 -7.80945e-24)
(8.04722 0.0420491 -1.01182e-23)
(8.09271 0.0178965 -1.01694e-23)
(8.08087 0.0444265 1.72973e-24)
(8.11442 -0.00486897 -1.39879e-23)
(8.22716 0.0830147 3.28732e-24)
(8.50046 0.0305274 4.56353e-23)
(8.06265 0.0558254 1.82217e-22)
(8.07065 0.0551591 -3.37405e-24)
(8.05909 0.0643236 -1.05188e-21)
(8.04324 0.0627153 -1.77413e-23)
(8.0017 0.00997795 -1.89062e-24)
(8.00061 0.008869 -4.76152e-24)
(8.0036 0.0115861 0)
(8.00271 0.0108459 0)
(8.0045 0.0121887 0)
(7.9993 0.0076675 -6.1124e-23)
(7.99765 0.00808402 -8.965e-22)
(7.98099 0.0151901 1.97754e-22)
(7.98902 0.0192482 5.29203e-24)
(7.98773 0.0102293 -3.36128e-22)
(8.06698 -0.021138 1.5571e-23)
(8.04477 0.0149088 1.14278e-23)
(8.00477 0.0135556 -4.09412e-24)
(8.00429 0.0147954 -5.33819e-24)
(8.02962 0.0575176 0)
(8.03745 0.0604851 0)
(8.01325 0.0532723 -6.01719e-24)
(8.02048 0.0618031 9.057e-24)
(8.00881 0.0452606 1.37423e-23)
(8.00532 0.034299 1.013e-23)
(8.00447 0.0372327 -3.99525e-24)
(8.00433 0.0321443 7.74091e-23)
(8.00562 0.0293456 0)
(8.00504 0.0252776 -2.57861e-24)
(8.00426 0.0203826 0)
(8.0038 0.0155873 -1.77876e-24)
(8.00335 0.0165762 2.45087e-24)
(8.07946 0.0493507 1.48027e-24)
(8.0894 0.0449239 2.2054e-22)
(8.05482 0.0255849 0)
(8.06499 0.0386451 0)
(8.08066 0.0265137 -3.6438e-23)
(8.0839 0.118433 1.75249e-21)
(8.10226 0.0136922 -6.63442e-21)
(8.12684 -0.00906352 2.99477e-22)
(8.53764 0.0629076 2.83549e-20)
(8.08004 0.0620505 0)
(8.05747 0.073347 -9.99862e-24)
(8.06669 0.0725284 -4.54352e-22)
(8.04179 0.0644532 -1.27167e-23)
(8.04599 0.0695841 1.87698e-22)
(8.00321 0.0101282 0)
(7.99981 0.00802043 -1.12957e-23)
(8.00147 0.00813105 2.32834e-24)
(8.00456 0.0124844 -3.26833e-25)
(8.0042 0.0114502 -2.13331e-25)
(7.99956 0.00715636 1.60371e-22)
(7.99769 0.00727142 -2.30316e-25)
(8.0051 0.0231904 -4.51171e-21)
(7.99204 0.00844491 2.07951e-25)
(8.05778 -0.0117585 0)
(8.00832 0.0166044 -4.04936e-24)
(8.00393 0.0127883 -5.68239e-23)
(8.00336 0.0143235 -6.97474e-23)
(8.03256 0.0662887 8.44193e-24)
(8.01249 0.0574941 3.50843e-22)
(8.00989 0.0532667 -4.91071e-24)
(8.02157 0.0663329 4.08789e-22)
(8.01647 0.0645596 3.42289e-23)
(8.00628 0.0448707 -6.45004e-23)
(8.00805 0.047894 5.11904e-24)
(8.00409 0.0408005 -2.89258e-23)
(8.00341 0.0368308 -1.18155e-23)
(8.00379 0.030555 4.16779e-24)
(8.00312 0.0318283 7.74016e-24)
(8.00376 0.028739 -5.48588e-24)
(8.00349 0.0268804 -9.01442e-23)
(8.00348 0.0244565 -2.64451e-25)
(8.00341 0.0193387 0)
(8.00353 0.0211163 5.46081e-24)
(8.00315 0.0176352 1.99971e-24)
(8.00275 0.0161737 4.85166e-23)
(8.09436 0.0494996 -1.82898e-23)
(8.09961 0.0566716 1.39424e-21)
(8.08976 0.0457178 0)
(8.09271 0.0328611 4.70656e-21)
(8.26712 0.0762584 1.22761e-21)
(8.03021 0.0819197 -2.19646e-23)
(8.08707 0.0290733 -8.11493e-25)
(8.1245 0.0137147 -7.72268e-25)
(8.50329 0.0193963 8.33875e-21)
(8.07801 0.0724923 4.37728e-23)
(8.09046 0.0679005 -1.78904e-23)
(8.04927 0.075609 3.78419e-24)
(8.05431 0.0843731 1.44792e-22)
(8.07362 0.0816278 1.07403e-21)
(8.0384 0.07715 1.41292e-22)
(8.00376 0.0102975 -2.08412e-25)
(8.00327 0.00927263 4.82605e-24)
(8.00268 0.00811699 -2.69231e-22)
(8.00192 0.00741595 5.16479e-24)
(8.00343 0.0109371 -4.52392e-23)
(8.0007 0.00661699 -6.76135e-25)
(7.9996 0.00619016 -6.45393e-25)
(7.99906 0.00625474 5.5629e-24)
(7.99787 0.00550314 -1.02997e-24)
(7.99332 0.00311396 -4.86528e-25)
(7.99574 0.00100523 -3.93417e-22)
(8.01951 0.00680512 -1.22281e-24)
(8.0303 -0.00396434 0)
(8.00471 0.00344593 1.34786e-21)
(8.00335 0.0132843 -1.75355e-24)
(8.00329 0.0125107 -3.36035e-25)
(8.00284 0.0138189 1.02872e-24)
(8.02509 0.0704442 9.70822e-24)
(8.0128 0.0625697 3.50613e-22)
(8.00909 0.0620224 1.63314e-23)
(8.00808 0.0509746 1.88936e-25)
(8.00654 0.0548101 5.48261e-24)
(8.01311 0.0689778 5.90595e-22)
(8.00296 0.0448763 8.85053e-24)
(8.0048 0.049373 4.70166e-23)
(8.00284 0.0336876 -2.12059e-23)
(8.0014 0.0361233 -1.19425e-24)
(8.00245 0.0311312 -6.66734e-24)
(8.00283 0.0280367 -5.9797e-24)
(8.00339 0.0224342 -1.1966e-22)
(8.00251 0.0238975 1.53546e-23)
(8.00291 0.0184763 2.43021e-24)
(8.00288 0.0209392 8.80539e-24)
(8.00242 0.0159153 6.3781e-24)
(8.00241 0.0148362 -4.42254e-23)
(8.10327 0.0703289 -1.10598e-23)
(8.09902 0.0443469 -2.63884e-23)
(8.10905 0.0603551 0)
(8.10554 0.03884 -4.97639e-23)
(8.00036 0.0492571 0)
(8.11823 0.0263443 -2.34681e-23)
(8.13447 0.0181658 1.77202e-23)
(8.47579 -0.0410541 -3.89049e-20)
(8.06215 0.0913964 -1.3526e-22)
(8.04944 0.0929028 -1.3564e-23)
(8.07084 0.0901553 3.11459e-23)
(8.08029 0.0906573 4.15002e-23)
(8.02754 0.076265 1.74425e-23)
(8.03083 0.0835905 -6.38851e-22)
(8.00275 0.008625 1.89803e-24)
(8.00177 0.00659829 -2.03674e-24)
(8.00306 0.011494 -2.38156e-25)
(8.0028 0.0103435 -2.80971e-24)
(8.00022 0.00502405 4.79734e-26)
(7.99598 0.0047347 -6.09525e-22)
(7.99803 0.00546538 3.9121e-24)
(8.01393 -0.000373424 2.19616e-24)
(8.02683 -0.0114755 0)
(8.00272 0.0119086 7.58198e-25)
(8.00236 0.0140538 3.65174e-23)
(8.0024 0.0131909 2.42331e-24)
(8.02042 0.0755971 9.53227e-24)
(8.00514 0.0589544 2.04845e-22)
(8.00589 0.0642568 -4.65046e-25)
(8.00377 0.0558058 2.55509e-24)
(8.01558 0.0741762 -2.63011e-22)
(8.01058 0.0729575 2.10018e-23)
(8.00174 0.0483143 8.83769e-23)
(8.00075 0.0457108 9.07585e-24)
(8.00209 0.0516289 6.05634e-24)
(7.99854 0.0346096 2.11552e-22)
(7.99928 0.0380077 6.71626e-24)
(8.00231 0.0293845 0)
(8.00062 0.0304773 -1.63676e-24)
(8.00198 0.0274857 5.36351e-24)
(8.00169 0.0251114 -6.36964e-23)
(8.00162 0.0228511 1.32482e-22)
(8.00265 0.0194798 -2.65468e-23)
(8.00253 0.0180009 2.59902e-24)
(8.00239 0.0204959 3.0865e-23)
(8.00231 0.0167554 0)
(8.00225 0.0154338 0)
(8.00209 0.0138899 6.40167e-24)
(8.11489 0.0760418 9.7501e-22)
(8.10122 0.0841504 9.93267e-24)
(8.1206 0.0730674 2.20977e-23)
(8.12678 0.0730168 2.06283e-24)
(8.11859 0.0442267 -1.58248e-21)
(8.15508 0.00135487 7.60151e-23)
(7.99231 0.0571431 1.42724e-23)
(8.0922 0.0361151 1.27733e-22)
(8.14713 0.0191326 1.93652e-23)
(8.41139 -0.0732195 8.93568e-23)
(8.06618 0.0974243 3.95703e-22)
(8.04608 0.10044 3.40318e-23)
(8.03945 0.096481 8.32447e-25)
(8.08894 0.093126 -1.89786e-21)
(8.07909 0.100006 -1.08821e-23)
(8.03177 0.0929594 -3.09195e-25)
(8.02283 0.0904066 8.02105e-24)
(8.00255 0.00916257 -3.8777e-23)
(8.00228 0.00789562 -6.34737e-24)
(8.00185 0.00644699 -5.5433e-25)
(8.00144 0.0057075 6.38919e-23)
(8.00232 0.00957689 -2.68807e-24)
(8.0007 0.00497679 -2.24782e-24)
(7.99993 0.00443798 4.09938e-25)
(7.99833 0.00416658 -1.32782e-22)
(7.9967 0.00429562 -5.51347e-23)
(7.99996 0.00568426 -6.24076e-21)
(7.99677 0.00465263 3.59305e-24)
(7.99911 0.0064343 1.78815e-24)
(8.02913 -0.00144989 -4.53957e-25)
(8.00227 0.0122592 -4.4178e-25)
(8.00221 0.0111564 2.7994e-24)
(8.002 0.0124888 1.97923e-23)
(8.01651 0.0784436 1.93198e-24)
(8.00294 0.0659107 -5.94672e-24)
(8.00599 0.0698087 2.35146e-22)
(8.00183 0.0551386 1.19026e-22)
(8.0069 0.0730786 -5.99146e-24)
(8.00811 0.0780748 1.12974e-23)
(7.9992 0.0420407 3.85906e-25)
(7.99887 0.0473569 6.67496e-24)
(7.99849 0.0317973 1.90201e-22)
(7.99619 0.0332928 -8.74443e-26)
(7.99577 0.0396705 -8.41367e-23)
(7.99832 0.0294272 1.71194e-22)
(8.00049 0.0264769 8.43215e-24)
(8.00198 0.0211786 5.05551e-24)
(8.00093 0.0218984 3.99524e-24)
(8.00204 0.0175814 -2.65077e-24)
(8.00208 0.0197189 -1.54546e-24)
(8.00142 0.0149955 0)
(8.0022 0.0143921 -3.23388e-25)
(8.00182 0.0129867 -3.95039e-25)
(8.00206 0.0135958 1.59056e-23)
(8.12271 0.083185 -3.43315e-22)
(8.10021 0.0945531 -3.33675e-24)
(8.13695 0.0726548 -2.2716e-21)
(8.13266 0.083713 1.04864e-22)
(8.14003 0.0418592 -2.45375e-23)
(8.1369 0.0562051 -2.77474e-23)
(8.01995 0.0466047 -1.03726e-21)
(8.15796 0.0314565 7.3187e-23)
(8.47723 -0.0613513 0)
(8.30364 -0.0745816 2.45739e-23)
(8.05733 0.103216 1.76338e-23)
(8.06851 0.102003 1.05697e-21)
(8.04737 0.107801 -5.17951e-22)
(8.03098 0.102983 -6.36531e-22)
(8.07555 0.108054 8.16422e-22)
(8.01562 0.0850255 -2.56295e-22)
(8.01518 0.0950635 -1.49239e-23)
(8.00194 0.00696517 1.05363e-24)
(8.00185 0.00754493 9.54418e-23)
(8.0015 0.00633875 -1.88088e-23)
(8.0009 0.00521535 -4.29926e-25)
(8.00201 0.0100168 -3.2759e-25)
(8.0018 0.00891637 -1.66644e-25)
(7.99993 0.00420561 3.87718e-25)
(7.99647 0.00398802 -4.96468e-25)
(7.99761 0.00360509 -4.37234e-25)
(7.99792 0.0027107 4.38394e-25)
(7.9965 0.00219294 0)
(8.0068 0.00725829 1.51146e-25)
(8.01711 0.00628009 3.09059e-23)
(8.01947 -0.00254819 -1.89926e-23)
(8.00165 0.0104157 1.58163e-23)
(8.0017 0.0119542 -2.64082e-24)
(8.0118 0.0813575 4.49313e-24)
(7.99897 0.0686486 0)
(8.00035 0.0628245 5.95285e-26)
(8.00329 0.0733342 -5.86548e-24)
(8.00095 0.0581901 -3.79759e-24)
(8.00006 0.0543092 -1.03344e-24)
(8.00741 0.0823769 -7.37388e-22)
(7.99867 0.0512529 -8.5284e-24)
(7.99623 0.0484875 4.50157e-22)
(7.99391 0.0314208 4.17369e-25)
(7.99355 0.0341033 -3.64508e-24)
(7.99213 0.0369335 -1.21389e-22)
(7.99231 0.0413744 -9.63779e-23)
(7.99884 0.0277275 -1.12631e-23)
(7.99616 0.0282839 7.00247e-24)
(7.99889 0.0253941 2.9466e-24)
(7.99934 0.021735 1.58505e-24)
(7.99981 0.020431 -2.80789e-24)
(8.00177 0.0185937 -5.38282e-24)
(8.00117 0.0176219 1.70544e-22)
(8.00083 0.0191357 8.96487e-23)
(8.00038 0.0160852 -5.0061e-24)
(8.00009 0.0146495 4.00879e-24)
(8.00212 0.013315 1.30667e-24)
(8.11508 0.0925296 -2.71662e-22)
(8.12772 0.0883299 3.24593e-23)
(8.10564 0.102418 -6.04341e-24)
(8.15981 0.0727151 4.67182e-24)
(8.13574 0.094539 -2.48393e-22)
(8.08267 -0.0283655 -1.5617e-20)
(8.04677 0.0279159 4.89142e-23)
(8.13848 0.0311034 7.08109e-21)
(8.18899 0.0377725 -5.15539e-21)
(8.3875 -0.179452 0)
(8.22738 -0.0738539 6.19295e-23)
(8.0502 0.11822 1.95857e-23)
(8.04008 0.115704 1.71814e-22)
(8.03086 0.112499 -3.52403e-23)
(8.02259 0.109298 -2.56407e-23)
(8.06425 0.119476 -1.50549e-22)
(8.08055 0.117494 6.66196e-22)
(8.01417 0.10443 -9.45223e-23)
(8.01022 0.0980852 -3.19858e-23)
(8.00162 0.00787209 1.55604e-25)
(8.00138 0.0071706 5.39805e-25)
(8.00122 0.00630372 -4.88575e-23)
(8.00105 0.00564239 3.04571e-24)
(8.00088 0.00505642 1.97403e-24)
(8.00067 0.00458469 1.0316e-22)
(8.0012 0.00829904 4.08734e-23)
(7.99945 0.00364394 0)
(8.0004 0.00404344 1.57656e-24)
(7.99874 0.00327482 7.47297e-25)
(7.99837 0.00284445 1.59471e-22)
(7.99726 0.0015953 7.19427e-25)
(7.99516 0.00111524 2.46802e-25)
(7.99728 0.00118715 0)
(8.00984 0.00204967 -4.88382e-25)
(8.01949 -0.00731133 1.4451e-24)
(8.00149 0.0108645 -1.81476e-25)
(8.00129 0.00980379 1.96523e-24)
(8.00176 0.0112065 -2.69394e-24)
(7.9995 0.0728144 0)
(7.99684 0.0713934 -8.08734e-24)
(7.99708 0.0607203 -4.6171e-23)
(8.00062 0.0778406 -6.33703e-24)
(7.99608 0.0543191 1.33887e-23)
(8.00631 0.0906516 -1.99906e-23)
(8.00301 0.0842789 3.95303e-22)
(7.99372 0.0461346 1.6304e-23)
(7.99169 0.0489665 9.66069e-24)
(7.99356 0.028526 4.33256e-25)
(7.99106 0.0294603 -6.12559e-23)
(7.98995 0.034683 -3.96683e-24)
(7.98889 0.0434462 5.04617e-24)
(7.99399 0.0264006 -4.14362e-27)
(7.99806 0.0233263 1.60362e-24)
(7.99601 0.0248379 0)
(7.99611 0.0216389 3.75261e-23)
(7.99866 0.0193767 -3.04327e-24)
(7.99912 0.0170935 5.39826e-23)
(8.00026 0.0135319 -5.05837e-23)
(7.9986 0.0142167 2.8537e-23)
(8.00117 0.0128608 -8.39317e-25)
(8.00202 0.0121096 1.52247e-24)
(8.09751 0.115573 1.23524e-23)
(8.11509 0.112535 0)
(8.17878 0.0776262 -3.22913e-23)
(8.16186 0.094623 5.08771e-22)
(8.13092 0.109096 1.48518e-23)
(8.14569 0.102529 -1.36635e-21)
(8.09855 0.0267352 3.45933e-23)
(8.19402 0.062409 2.60835e-23)
(8.21599 0.0509242 -4.43989e-22)
(8.24686 -0.21841 5.41192e-23)
(8.27848 -0.105449 1.08952e-20)
(8.23781 -0.0608556 2.45935e-23)
(8.05516 0.129784 -2.16527e-24)
(8.03406 0.124684 1.88859e-22)
(8.01554 0.115258 -1.37394e-23)
(8.08776 0.130353 1.61478e-23)
(8.00576 0.0998572 -4.52267e-22)
(8.00118 0.00644194 -1.35496e-23)
(8.00084 0.00472509 -5.55349e-25)
(8.00057 0.00354578 1.73141e-24)
(8.00101 0.00871541 2.95594e-23)
(8.00083 0.00764628 4.88675e-24)
(7.99914 0.00248984 1.41332e-22)
(7.99732 0.00145246 -1.08407e-22)
(8.00152 0.0012047 -5.45936e-25)
(7.99581 0.00101164 0)
(8.0069 -0.00332587 5.18669e-22)
(8.01232 -0.00496077 -3.74716e-22)
(8.01788 -0.00327211 3.79216e-21)
(8.00136 0.00905491 3.77081e-24)
(8.00195 0.0113284 0)
(8.00186 0.0103339 0)
(7.99582 0.0768053 5.47796e-22)
(7.9944 0.0700487 8.70213e-22)
(7.99313 0.0579795 5.35555e-22)
(7.99363 0.0629566 -5.54315e-22)
(7.99959 0.0850046 -7.6625e-24)
(7.99047 0.0555227 1.192e-23)
(7.98828 0.0514096 6.71851e-24)
(7.98601 0.0481961 -8.74837e-23)
(7.98841 0.0316874 4.29137e-25)
(7.98841 0.0284091 4.21139e-25)
(7.98683 0.034011 1.75489e-23)
(7.98433 0.045578 -2.87455e-22)
(7.98518 0.0414612 -2.45268e-24)
(7.99289 0.0248085 -2.60293e-24)
(7.99326 0.0214508 -2.95736e-23)
(7.99462 0.0203408 7.86641e-25)
(7.99748 0.0182942 -2.77346e-24)
(7.99612 0.0191854 1.18549e-24)
(7.99678 0.0167979 2.08257e-24)
(7.99988 0.0124574 3.98067e-24)
(7.99722 0.0131193 5.97415e-24)
(7.99678 0.0141968 -9.65336e-23)
(8.00195 0.0111436 -3.27168e-24)
(8.12503 0.124446 -1.56049e-23)
(8.20088 0.0897164 -9.76579e-22)
(8.16016 0.113107 1.26675e-21)
(8.15325 -0.00552505 -5.81565e-21)
(8.13833 0.0494654 2.04776e-23)
(8.21451 0.0596402 -4.03949e-23)
(8.23905 0.0670712 3.73102e-21)
(8.32954 -0.216613 -1.0438e-20)
(8.24121 -0.0600771 2.01166e-21)
(8.06008 0.142986 3.44461e-24)
(8.05005 0.140422 1.84256e-23)
(8.04022 0.138056 -1.90535e-22)
(8.02756 0.134942 -1.5305e-23)
(8.01709 0.125503 -5.01396e-24)
(8.01011 0.119253 7.11066e-22)
(8.07576 0.144979 1.44029e-22)
(8.09479 0.143668 3.45343e-24)
(8.00433 0.110776 3.71516e-24)
(8.00197 0.10204 -2.50481e-23)
(8.0009 0.0067055 -1.19105e-24)
(8.00097 0.00556348 3.50128e-24)
(8.00057 0.00390204 -4.41825e-25)
(8.00103 0.00434203 6.51283e-23)
(8.0004 0.00346168 0)
(8.00031 0.00281719 -4.73263e-25)
(8.00065 0.00686542 0)
(7.9998 0.00228486 4.62804e-24)
(7.99936 0.00179935 -2.67305e-25)
(7.99602 0.0016204 1.90434e-25)
(7.99845 0.00161219 1.16956e-23)
(7.99546 0.00153433 0)
(7.99982 -0.000892906 1.64808e-26)
(8.01933 -0.00183503 2.15858e-21)
(8.00169 0.00933848 -1.38418e-24)
(8.00148 0.00843533 1.49739e-23)
(8.00179 0.0096185 -3.13521e-24)
(7.99816 0.0850485 9.39037e-24)
(7.99252 0.082835 5.07494e-24)
(7.98777 0.0669943 1.4413e-23)
(7.99882 0.0932736 -3.34164e-24)
(7.9844 0.0550992 -8.68326e-24)
(7.98106 0.0470637 -2.75288e-22)
(7.98592 0.0274617 -6.05091e-24)
(7.9885 0.0259463 -9.68826e-24)
(7.98492 0.0365388 -1.52633e-22)
(7.98417 0.0326412 -3.01266e-22)
(7.98114 0.0391583 2.12892e-23)
(7.9918 0.0228658 -8.9784e-25)
(7.99004 0.0243742 -8.79266e-23)
(7.9909 0.0210662 -1.1409e-23)
(7.99367 0.0188974 1.27335e-24)
(7.99592 0.0154761 -3.96066e-23)
(7.99435 0.016548 9.68245e-23)
(7.99808 0.0120961 -1.79742e-24)
(7.99914 0.0114401 -3.76518e-23)
(7.99639 0.0121596 2.81165e-24)
(7.99465 0.0141976 9.99647e-24)
(8.00173 0.0101746 -8.44614e-23)
(8.00079 0.0106032 -5.35505e-24)
(8.11457 0.141556 -1.62319e-23)
(8.13579 0.137073 -2.65992e-22)
(8.2271 0.0968087 2.15547e-21)
(8.2025 0.111746 -4.2203e-23)
(8.15477 0.131721 -7.83838e-23)
(8.17445 0.123035 -3.27708e-23)
(8.18868 0.0682645 0)
(8.25323 0.0978034 -3.70923e-23)
(8.3151 -0.158658 7.24305e-23)
(8.33981 -0.0393363 2.83325e-23)
(8.31792 -0.0487297 -3.95489e-24)
(8.06633 0.157699 6.41291e-24)
(8.04474 0.150075 2.85549e-23)
(8.02008 0.13274 -1.17139e-23)
(8.02222 0.143963 7.39818e-22)
(8.01508 0.134191 0)
(8.00285 0.122783 4.65843e-22)
(8.10474 0.161689 0)
(7.99641 0.101878 1.26601e-23)
(8.00053 0.00509388 3.74254e-24)
(8.00097 0.00473543 -9.45828e-23)
(8.00035 0.00327812 1.49206e-24)
(8.0011 0.00431809 3.69465e-24)
(8.00084 0.00360576 -4.43677e-25)
(7.99999 0.00246949 -1.15426e-24)
(8.0009 0.00727642 -1.51811e-24)
(8.00048 0.00614421 0)
(7.99939 0.00150111 -3.33665e-25)
(7.99915 0.00157423 4.01962e-24)
(7.99902 0.00113196 -3.17418e-25)
(7.99544 0.00210028 0)
(7.99702 0.00111958 0)
(7.99594 0.00167247 0)
(8.0178 -0.00145986 -6.35401e-26)
(8.00662 0.000982827 7.25572e-23)
(8.00169 0.00777202 1.49587e-24)
(8.00165 0.00918484 -3.52529e-24)
(7.98529 0.0866608 -2.64732e-24)
(7.98214 0.0802104 -2.64925e-23)
(7.97951 0.0696967 -5.63169e-23)
(7.97997 0.0625479 1.4622e-23)
(7.98084 0.0574038 -8.05582e-24)
(7.97952 0.0528351 -2.03448e-22)
(7.97782 0.0493221 1.84466e-23)
(7.97725 0.045611 3.86212e-24)
(7.98343 0.0285868 3.85217e-24)
(7.98334 0.0256364 -2.2236e-22)
(7.98752 0.0235409 1.06212e-22)
(7.98047 0.0305674 1.25694e-23)
(7.97715 0.041417 1.29505e-23)
(7.97734 0.0370429 1.32794e-22)
(7.98814 0.020395 -1.13865e-22)
(7.98991 0.0195166 4.77471e-24)
(7.99284 0.0175076 2.48855e-24)
(7.99134 0.0184736 -5.31473e-24)
(7.9921 0.0160785 3.36725e-25)
(7.99861 0.0103895 -6.55681e-26)
(7.99463 0.0121874 2.88072e-24)
(7.99545 0.0113207 2.33825e-23)
(7.99379 0.0130933 2.4192e-24)
(7.99264 0.0139913 4.21078e-23)
(8.15009 0.151622 -1.57086e-22)
(8.19642 0.134825 0)
(8.23084 0.0869373 4.00676e-24)
(8.20519 0.0548153 5.78416e-25)
(8.26997 0.107602 4.99043e-21)
(8.26905 0.124362 1.10689e-23)
(8.27957 0.138958 -8.21793e-21)
(8.64352 -0.146473 -1.46425e-22)
(8.27583 0.0321364 2.36191e-23)
(8.39941 -0.0459601 9.26959e-21)
(8.0701 0.178486 -8.08781e-24)
(8.05909 0.170369 -6.18922e-22)
(8.04838 0.163447 2.57142e-22)
(8.03453 0.157999 3.22563e-23)
(8.02201 0.155822 -1.05224e-23)
(8.01859 0.15221 -1.04734e-23)
(8.01452 0.143795 0)
(8.00919 0.136902 7.19817e-24)
(8.00397 0.132772 3.50309e-23)
(7.99783 0.125713 5.59927e-23)
(8.10085 0.183671 -1.003e-23)
(8.12217 0.177885 0)
(7.99226 0.110952 5.32818e-24)
(7.98771 0.101447 4.88894e-22)
(8.00031 0.0052615 0)
(8.00018 0.00456655 5.59782e-25)
(8.00067 0.00408243 2.61472e-24)
(8.00055 0.00304706 1.46641e-24)
(8.00036 0.00280892 1.39756e-23)
(8.00064 0.00306983 4.2632e-25)
(8.00015 0.00254427 9.00076e-25)
(7.99984 0.00213735 1.7879e-24)
(8.00045 0.00538944 -2.78546e-24)
(7.99941 0.00167406 2.46027e-23)
(7.99914 0.00139672 -4.71013e-25)
(7.99837 0.000775729 -1.50905e-25)
(7.99885 0.00119493 5.99374e-23)
(7.99789 0.000818111 5.99014e-27)
(7.99687 0.00204099 2.4505e-25)
(7.99662 0.000824209 0)
(8.01801 -0.000673106 1.61595e-25)
(7.99629 0.00320402 5.63727e-23)
(8.00185 0.00821354 2.84564e-24)
(8.00175 0.00721368 5.22543e-23)
(8.0007 0.00869325 -6.91725e-25)
(7.98306 0.0939067 7.60471e-24)
(7.97087 0.0877189 0)
(7.97773 0.0756246 3.88797e-22)
(7.96862 0.0792244 -1.06189e-22)
(7.97011 0.0705091 -5.06235e-24)
(7.9744 0.0596669 -5.53861e-24)
(7.97371 0.0510342 -1.10338e-23)
(7.972 0.0428559 8.02183e-23)
(7.98476 0.0232477 1.41598e-22)
(7.98169 0.0237121 -1.50777e-23)
(7.98617 0.0215734 4.69405e-23)
(7.97692 0.0329626 1.41161e-23)
(7.976 0.0290204 0)
(7.97199 0.0346973 2.05207e-23)
(7.985 0.019757 7.50697e-23)
(7.98925 0.0180125 1.83857e-22)
(7.9914 0.0147514 4.80269e-25)
(7.9898 0.0156111 7.24081e-23)
(7.99692 0.0102305 -3.33244e-24)
(7.99814 0.00932853 -2.11808e-23)
(7.99303 0.0119688 6.66428e-24)
(7.99589 0.0105136 -9.2538e-25)
(7.99433 0.0105717 -2.68004e-24)
(7.99093 0.0134412 1.31196e-24)
(8.14261 0.172756 -2.92415e-23)
(8.16511 0.167463 -3.20396e-23)
(8.18841 0.162118 0)
(8.21432 0.154679 4.93343e-23)
(8.27594 0.107042 4.4456e-23)
(8.23557 0.0735589 -1.0913e-23)
(8.2433 0.150412 -1.27431e-21)
(8.28008 0.149787 4.33118e-23)
(8.30611 -0.0101245 2.34182e-23)
(8.12266 0.20541 -2.09313e-20)
(8.78426 -0.298748 -7.11212e-20)
(8.41237 -0.0408753 1.02717e-24)
(8.08355 0.188303 -1.8075e-21)
(8.063 0.199729 -7.10568e-24)
(8.04726 0.17755 1.23378e-23)
(8.02238 0.169243 2.36793e-25)
(8.01378 0.153982 0)
(8.0014 0.13898 -5.07057e-23)
(7.99325 0.122071 -9.69535e-22)
(7.99018 0.132129 2.15642e-23)
(8.09744 0.200817 1.34976e-23)