/*--------------------------------*- C++ -*----------------------------------*\
| =========                 |                                                 |
| \\      /  F ield         | OpenFOAM: The Open Source CFD Toolbox           |
|  \\    /   O peration     | Version:  v2012                                 |
|   \\  /    A nd           | Website:  www.openfoam.com                      |
|    \\/     M anipulation  |                                                 |
\*---------------------------------------------------------------------------*/
FoamFile
{
    version     2.0;
    format      ascii;
    class       volVectorField;
    location    "1.01";
    object      cellDisplacement;
}
// * * * * * * * * * * * * * * * * * * * * * * * * * * * * * * * * * * * * * //

dimensions      [0 1 0 0 0 0 0];


internalField   nonuniform List<vector> 
11961
(
(-0.00126577 0.00266111 0)
(-0.00303906 0.00640103 0)
(-0.00281768 0.00590968 0)
(-0.00189972 0.00401675 0)
(-0.00573408 0.0120624 0)
(-0.00151018 0.00316175 0)
(-0.00540643 0.0113416 0)
(-0.00476013 0.0100767 0)
(-0.00835533 0.0175918 0)
(-0.00272959 0.00570283 0)
(-0.00738966 0.0154815 0)
(-0.00873374 0.0184406 0)
(-0.00505545 0.0107324 0)
(-0.0111061 0.0233303 0)
(-0.00543204 0.0113463 0)
(-0.00120679 0.00251833 0)
(-0.00745114 0.0155807 0)
(-0.0104026 0.0218062 0)
(-0.0121436 0.0256604 0)
(-0.00929352 0.0197476 0)
(-0.00208417 0.00443738 0)
(-0.0144233 0.0303071 0)
(-0.00596015 0.0124272 0)
(-0.00213471 0.00444809 0)
(-0.0103645 0.0216471 0)
(-0.0122798 0.0256805 0)
(-0.0125311 0.0265708 0)
(-0.015246 0.0321333 0)
(-0.00926094 0.0197547 0)
(-0.00509168 0.010875 0)
(-0.0167854 0.0351734 0)
(-0.00817528 0.0170327 0)
(-0.00423693 0.00882717 0)
(-0.000900114 0.00187403 0)
(-0.0105666 0.0220295 0)
(-0.0152602 0.0318981 0)
(-0.0164148 0.0348456 0)
(-0.0190198 0.0401072 0)
(-0.0126698 0.0270757 0)
(-0.00440396 0.00944346 0)
(-0.0202773 0.0424886 0)
(-0.00825318 0.0171687 0)
(-0.00465588 0.00968699 0)
(-0.00169963 0.0035354 0)
(-0.0126252 0.0262827 0)
(-0.0170374 0.0355142 0)
(-0.0165127 0.0352019 0)
(-0.019812 0.0419382 0)
(-0.0217435 0.0457081 0)
(-0.0123157 0.0264394 0)
(-0.00841378 0.0181061 0)
(-0.00151783 0.00325878 0)
(-0.0223307 0.0466537 0)
(-0.00643677 0.0133836 0)
(-0.0100205 0.0208239 0)
(-0.00342762 0.0071286 0)
(-0.00131746 0.00273941 0)
(-0.0154302 0.0321131 0)
(-0.0119677 0.0248777 0)
(-0.0205786 0.0428752 0)
(-0.0204235 0.0436246 0)
(-0.0238516 0.0505332 0)
(-0.0258457 0.0543299 0)
(-0.0154797 0.0333037 0)
(-0.00821596 0.0177692 0)
(-0.00146442 0.00317364 0)
(-0.0257945 0.0538776 0)
(-0.00638013 0.0132474 0)
(-0.00989612 0.020535 0)
(-0.00341671 0.0070975 0)
(-0.000463095 0.000962777 0)
(-0.00226732 0.00471068 0)
(-0.0160162 0.0332417 0)
(-0.0136025 0.0282288 0)
(-0.0224082 0.0465709 0)
(-0.0196756 0.0422353 0)
(-0.0243542 0.0518582 0)
(-0.0272495 0.0575101 0)
(-0.0278175 0.0582661 0)
(-0.0151911 0.032841 0)
(-0.0119184 0.0258435 0)
(-0.00433635 0.00941293 0)
(-0.0278753 0.0580422 0)
(-0.00454661 0.00943816 0)
(-0.00803223 0.0166619 0)
(-0.0121118 0.0251068 0)
(-0.000698962 0.00145203 0)
(-0.00156068 0.00324133 0)
(-0.0183861 0.0381005 0)
(-0.0263099 0.0546627 0)
(-0.0214753 0.0445281 0)
(-0.021805 0.0469752 0)
(-0.0289571 0.0617533 0)
(-0.0309862 0.0654293 0)
(-0.0316098 0.0661013 0)
(-0.0187243 0.0405381 0)
(-0.0119366 0.0260375 0)
(-0.00465628 0.0101584 0)
(-0.0315561 0.0657096 0)
(-0.00419877 0.00870564 0)
(-0.00769185 0.0159323 0)
(-0.0122242 0.0252949 0)
(-0.000190047 0.000394834 0)
(-0.0014338 0.00297598 0)
(-0.0179634 0.0371228 0)
(-0.0275509 0.0570695 0)
(-0.0243905 0.0504686 0)
(-0.0252814 0.0544649 0)
(-0.0322245 0.0684019 0)
(-0.0290741 0.0623621 0)
(-0.0341966 0.07195 0)
(-0.0345714 0.0724049 0)
(-0.0192322 0.0418513 0)
(-0.00856235 0.0187266 0)
(-0.0156815 0.0342877 0)
(-0.00182196 0.00399104 0)
(-0.0336968 0.0699965 0)
(-0.00563625 0.0116731 0)
(-0.00280845 0.00582244 0)
(-0.00952424 0.0197027 0)
(-0.0147591 0.0304916 0)
(-0.000159516 0.000331239 0)
(-0.00191482 0.00397135 0)
(-0.000617319 0.00128154 0)
(-0.0210053 0.0433197 0)
(-0.0312444 0.0646056 0)
(-0.0244238 0.0504093 0)
(-0.0260341 0.0564242 0)
(-0.0363421 0.0770688 0)
(-0.0323359 0.0695795 0)
(-0.0375057 0.079063 0)
(-0.0387043 0.0808086 0)
(-0.0229462 0.0499934 0)
(-0.00769725 0.0169443 0)
(-0.0161579 0.0355266 0)
(-0.00374461 0.008249 0)
(-0.0338004 0.0699784 0)
(-0.0369662 0.0767458 0)
(-0.00484449 0.0100192 0)
(-0.00189437 0.00392199 0)
(-0.00881662 0.0182101 0)
(-0.0136254 0.0280918 0)
(-0.00093887 0.00194658 0)
(-0.000347037 0.000719984 0)
(-0.0209052 0.0430053 0)
(-0.0311314 0.0641723 0)
(-0.0274627 0.0565752 0)
(-0.0297644 0.0645202 0)
(-0.0391421 0.0831983 0)
(-0.0365876 0.0786334 0)
(-0.04129 0.0867975 0)
(-0.0422019 0.088268 0)
(-0.0394113 0.0819325 0)
(-0.0233789 0.051291 0)
(-0.00982936 0.0217322 0)
(-0.0200303 0.0441331 0)
(-0.0135073 0.0298429 0)
(-0.00196859 0.00436198 0)
(-0.0370638 0.076651 0)
(-0.00249606 0.00516285 0)
(-0.00618849 0.0127823 0)
(-0.000631819 0.0013086 0)
(-0.0104794 0.0216111 0)
(-0.0150046 0.0308682 0)
(-0.0181154 0.0372317 0)
(-0.0247226 0.0507499 0)
(-0.0336379 0.069152 0)
(-0.02762 0.0567429 0)
(-0.0307063 0.0669864 0)
(-0.0394006 0.0841896 0)
(-0.043355 0.0918003 0)
(-0.0382975 0.0829168 0)
(-0.0443687 0.0934763 0)
(-0.0464614 0.0968772 0)
(-0.0434738 0.0901183 0)
(-0.0271708 0.0597019 0)
(-0.00788511 0.0175522 0)
(-0.0191289 0.0424321 0)
(-0.0151957 0.033753 0)
(-0.00407502 0.00907864 0)
(-0.0397917 0.0820986 0)
(-0.0012162 0.0025122 0)
(-0.0050976 0.0105132 0)
(-0.00913541 0.0188139 0)
(-0.0124986 0.0256797 0)
(-0.0183823 0.0376795 0)
(-0.0244568 0.0500763 0)
(-0.0311871 0.0639761 0)
(-0.0372084 0.0764199 0)
(-0.0347772 0.0758849 0)
(-0.0450764 0.096232 0)
(-0.0469362 0.0995814 0)
(-0.043132 0.0933443 0)
(-0.0490383 0.103012 0)
(-0.047 0.0975534 0)
(-0.0503164 0.105121 0)
(-0.0437422 0.0903264 0)
(-0.0276248 0.061213 0)
(-0.00995479 0.0222557 0)
(-0.0206731 0.0460689 0)
(-0.0136019 0.0303603 0)
(-0.00208776 0.00467913 0)
(-0.0400118 0.0822892 0)
(-0.00254814 0.00525584 0)
(-0.00648838 0.0133633 0)
(-0.00994505 0.0204479 0)
(-0.0128039 0.026255 0)
(-0.015525 0.0317995 0)
(-0.0211338 0.0432531 0)
(-0.027038 0.0552409 0)
(-0.0325841 0.066665 0)
(-0.0383153 0.0784458 0)
(-0.0353661 0.0777768 0)
(-0.0471368 0.101146 0)
(-0.0511012 0.10785 0)
(-0.043999 0.0959918 0)
(-0.051062 0.105622 0)
(-0.0547322 0.113892 0)
(-0.0473778 0.0975548 0)
(-0.0242865 0.054147 0)
(-0.0315592 0.0700044 0)
(-0.00923246 0.0207545 0)
(-0.0181183 0.0406682 0)
(-0.0150544 0.033792 0)
(-0.00345874 0.00779482 0)
(-0.0440383 0.0903288 0)
(-0.00131551 0.00270859 0)
(-0.00542923 0.0111646 0)
(-0.0074316 0.0152653 0)
(-0.010003 0.0204928 0)
(-0.0153364 0.031347 0)
(-0.0206505 0.042168 0)
(-0.0257587 0.052518 0)
(-0.0305715 0.0624391 0)
(-0.0361919 0.0739804 0)
(-0.0415378 0.0848893 0)
(-0.0396829 0.087293 0)
(-0.0529983 0.113553 0)
(-0.0555982 0.117252 0)
(-0.048777 0.106432 0)
(-0.0548004 0.113436 0)
(-0.0510768 0.105226 0)
(-0.0588508 0.122527 0)
(-0.0472906 0.0970549 0)
(-0.0236748 0.0532532 0)
(-0.0321386 0.0718321 0)
(-0.00654073 0.0147481 0)
(-0.0123939 0.0279386 0)
(-0.01973 0.0445122 0)
(-0.00144037 0.00326335 0)
(-0.0441389 0.09026 0)
(-0.00289201 0.00594545 0)
(-0.00735807 0.0150892 0)
(-0.0101239 0.0207047 0)
(-0.0127322 0.0260115 0)
(-0.0177518 0.036234 0)
(-0.0228323 0.0465465 0)
(-0.0274991 0.0559581 0)
(-0.0319625 0.065117 0)
(-0.0379419 0.0773664 0)
(-0.0412862 0.0841654 0)
(-0.0397628 0.0882376 0)
(-0.0538863 0.116473 0)
(-0.057191 0.121435 0)
(-0.0596184 0.124791 0)
(-0.0483063 0.106472 0)
(-0.0583891 0.12038 0)
(-0.0546427 0.112175 0)
(-0.0626094 0.129631 0)
(-0.0503761 0.103103 0)
(-0.025854 0.0584571 0)
(-0.0295518 0.0666542 0)
(-0.0360426 0.0805512 0)
(-0.00665592 0.0150959 0)
(-0.0123583 0.0280155 0)
(-0.0182172 0.0413657 0)
(-0.00351096 0.00798047 0)
(-0.0470746 0.0960627 0)
(-0.00165328 0.00339053 0)
(-0.00405632 0.00830895 0)
(-0.00770072 0.0157314 0)
(-0.0121615 0.0247981 0)
(-0.0172106 0.0350583 0)
(-0.0219401 0.0446451 0)
(-0.0301265 0.0612927 0)
(-0.0261546 0.053117 0)
(-0.0346725 0.070554 0)
(-0.0372077 0.0757311 0)
(-0.0433908 0.0882604 0)
(-0.0436139 0.0969307 0)
(-0.0589349 0.127459 0)
(-0.0634663 0.134331 0)
(-0.0643096 0.134433 0)
(-0.0521073 0.115087 0)
(-0.0581346 0.119368 0)
(-0.0619539 0.127749 0)
(-0.0539307 0.110373 0)
(-0.0668323 0.138276 0)
(-0.0498594 0.101803 0)
(-0.023486 0.0536036 0)
(-0.0314577 0.0714207 0)
(-0.0354912 0.0800911 0)
(-0.00899371 0.0204428 0)
(-0.0147991 0.0336646 0)
(-0.0199581 0.0455791 0)
(-0.00320653 0.00731696 0)
(-0.0477481 0.0972047 0)
(-0.00421093 0.00861018 0)
(-0.00897332 0.0182986 0)
(-0.014224 0.0289642 0)
(-0.0192761 0.0392125 0)
(-0.0235593 0.0478531 0)
(-0.0316144 0.0641907 0)
(-0.0277459 0.0562559 0)
(-0.0342994 0.0696418 0)
(-0.0395523 0.0803239 0)
(-0.0423397 0.0859642 0)
(-0.0463517 0.0942338 0)
(-0.0425311 0.0955346 0)
(-0.063842 0.136957 0)
(-0.057476 0.125837 0)
(-0.0657608 0.139809 0)
(-0.0662523 0.139057 0)
(-0.067668 0.140578 0)
(-0.0503154 0.112508 0)
(-0.0612173 0.125278 0)
(-0.0648478 0.133181 0)
(-0.0560714 0.114421 0)
(-0.0695469 0.143187 0)
(-0.0523052 0.106528 0)
(-0.0242881 0.0558477 0)
(-0.0304389 0.0698144 0)
(-0.038154 0.086375 0)
(-0.00875742 0.0200001 0)
(-0.0137163 0.0313649 0)
(-0.0180024 0.0413663 0)
(-0.00111687 0.00255167 0)
(-0.005827 0.01333 0)
(-0.0510616 0.103822 0)
(-0.00182068 0.00371753 0)
(-0.00764942 0.0155704 0)
(-0.0134917 0.0274221 0)
(-0.0188707 0.0383097 0)
(-0.0216124 0.0438277 0)
(-0.030571 0.0619878 0)
(-0.0273796 0.0554109 0)
(-0.0361575 0.0732962 0)
(-0.0388096 0.078681 0)
(-0.0441347 0.0894183 0)
(-0.0482519 0.0978378 0)
(-0.0454802 0.102533 0)
(-0.0681025 0.146267 0)
(-0.0607014 0.13336 0)
(-0.0716704 0.151631 0)
(-0.0711064 0.148567 0)
(-0.0715933 0.148651 0)
(-0.053458 0.120046 0)
(-0.0643243 0.131675 0)
(-0.061341 0.125109 0)
(-0.0681866 0.139967 0)
(-0.0591233 0.120492 0)
(-0.0548611 0.111702 0)
(-0.073172 0.150379 0)
(-0.0272181 0.0627446 0)
(-0.0217816 0.0504578 0)
(-0.0330563 0.0762006 0)
(-0.036825 0.0842527 0)
(-0.0109005 0.0249593 0)
(-0.0152286 0.0349762 0)
(-0.019051 0.0440646 0)
(-0.00101823 0.00233617 0)
(-0.00573533 0.0131578 0)
(-0.0520845 0.105689 0)
(-0.00396817 0.00808103 0)
(-0.0100934 0.0205086 0)
(-0.0160935 0.0326594 0)
(-0.0222374 0.0449999 0)
(-0.0316845 0.0641271 0)
(-0.0252209 0.0509883 0)
(-0.029806 0.0602575 0)
(-0.0357274 0.0723023 0)
(-0.0405992 0.0821552 0)
(-0.0430903 0.0871715 0)
(-0.0470519 0.0952657 0)
(-0.0507152 0.102774 0)
(-0.0433243 0.0989506 0)
(-0.0688845 0.148923 0)
(-0.0726177 0.154556 0)
(-0.0584328 0.130042 0)
(-0.065773 0.143572 0)
(-0.0748339 0.15722 0)
(-0.0742243 0.155157 0)
(-0.0749643 0.154975 0)
(-0.0507215 0.115677 0)
(-0.0670682 0.136855 0)
(-0.0643462 0.130894 0)
(-0.0701727 0.143557 0)
(-0.0593864 0.120688 0)
(-0.0568435 0.11549 0)
(-0.0754254 0.155236 0)
(-0.0744988 0.152452 0)
(-0.0258533 0.0602321 0)
(-0.0226482 0.0528213 0)
(-0.0325844 0.0759322 0)
(-0.0391627 0.0900196 0)
(-0.0106471 0.0244679 0)
(-0.013122 0.030222 0)
(-0.0168213 0.039019 0)
(-0.00278781 0.00639945 0)
(-0.0082087 0.0188656 0)
(-0.0541364 0.109731 0)
(-0.00213185 0.00433288 0)
(-0.00964375 0.0195598 0)
(-0.015318 0.0310308 0)
(-0.0198534 0.0401174 0)
(-0.0337431 0.0682453 0)
(-0.0260469 0.0525246 0)
(-0.0303137 0.0611779 0)
(-0.0376569 0.076086 0)
(-0.0398357 0.0804817 0)
(-0.044698 0.0902311 0)
(-0.0482865 0.0975587 0)
(-0.0527414 0.106662 0)
(-0.0454574 0.104529 0)
(-0.0747723 0.160727 0)
(-0.0767428 0.16328 0)
(-0.0622376 0.138864 0)
(-0.0674103 0.148416 0)
(-0.0800443 0.167538 0)
(-0.0784807 0.16303 0)
(-0.0786239 0.162572 0)
(-0.0534683 0.122753 0)
(-0.0668902 0.136122 0)
(-0.0695848 0.141999 0)
(-0.0647992 0.131474 0)
(-0.0729344 0.149037 0)
(-0.0611931 0.124087 0)
(-0.0572219 0.116005 0)
(-0.0789709 0.161936 0)
(-0.0773861 0.157993 0)
(-0.0266354 0.0625832 0)
(-0.0216626 0.0509031 0)
(-0.0295192 0.0694861 0)
(-0.0363643 0.0847232 0)
(-0.0138098 0.0319156 0)
(-0.0169856 0.0396038 0)
(-0.0029801 0.00684295 0)
(-0.00769827 0.0177101 0)
(-0.0543751 0.110008 0)
(-0.0561002 0.113655 0)
(-0.00401246 0.00813296 0)
(-0.012313 0.0249388 0)
(-0.007263 0.0147141 0)
(-0.0169929 0.0343585 0)
(-0.0207847 0.0418964 0)
(-0.0344642 0.0695549 0)
(-0.0239887 0.0483069 0)
(-0.0287393 0.0579148 0)
(-0.0328995 0.0663358 0)
(-0.0367858 0.0742006 0)
(-0.0412679 0.0832341 0)
(-0.0469632 0.0947593 0)
(-0.0435994 0.0879008 0)
(-0.0507617 0.102434 0)
(-0.0527218 0.106429 0)
(-0.0420871 0.0982287 0)
(-0.0771999 0.166605 0)
(-0.0807883 0.170781 0)
(-0.0605452 0.137035 0)
(-0.0730109 0.159891 0)
(-0.0821911 0.172435 0)
(-0.0818326 0.170053 0)
(-0.081824 0.168397 0)
(-0.0500843 0.116991 0)
(-0.0690684 0.140205 0)
(-0.0719606 0.14648 0)
(-0.0634283 0.128535 0)
(-0.0673415 0.136354 0)
(-0.0739366 0.150612 0)
(-0.0599911 0.121441 0)
(-0.0793934 0.162222 0)
(-0.0815569 0.16726 0)
(-0.0780194 0.158765 0)
(-0.0236174 0.0559444 0)
(-0.0191971 0.0450714 0)
(-0.0290388 0.0693053 0)
(-0.0373158 0.087605 0)
(-0.0119597 0.0276285 0)
(-0.0148086 0.0344386 0)
(-0.00523182 0.0120211 0)
(-0.00109203 0.00250513 0)
(-0.00933397 0.0215069 0)
(-0.0562388 0.113701 0)
(-0.00187593 0.00379513 0)
(-0.0118474 0.0239462 0)
(-0.00892346 0.0180361 0)
(-0.0144821 0.0292376 0)
(-0.0185158 0.0372711 0)
(-0.0246878 0.0495951 0)
(-0.0303323 0.0610092 0)
(-0.0330783 0.0665586 0)
(-0.0383213 0.0771642 0)
(-0.0406237 0.0818066 0)
(-0.0485646 0.0977986 0)
(-0.0444081 0.0893483 0)
(-0.0507968 0.102297 0)
(-0.0552181 0.11123 0)
(-0.0418837 0.0989208 0)
(-0.0827548 0.177368 0)
(-0.084773 0.179161 0)
(-0.0646132 0.146561 0)
(-0.0754484 0.166134 0)
(-0.0868657 0.18139 0)
(-0.0855727 0.177024 0)
(-0.0848756 0.174488 0)
(-0.051358 0.121215 0)
(-0.044732 0.105744 0)
(-0.0712176 0.144494 0)
(-0.0689685 0.139687 0)
(-0.0724517 0.147144 0)
(-0.0650853 0.131509 0)
(-0.0673443 0.136027 0)
(-0.076163 0.154867 0)
(-0.0612922 0.12378 0)
(-0.082285 0.167618 0)
(-0.0840115 0.171728 0)
(-0.0803315 0.163114 0)
(-0.0232987 0.0558091 0)
(-0.0180019 0.0424683 0)
(-0.0314323 0.0753705 0)
(-0.0257917 0.0622085 0)
(-0.0348266 0.0828911 0)
(-0.012664 0.029312 0)
(-0.0146938 0.0342048 0)
(-0.00459204 0.010527 0)
(-0.00233264 0.00534257 0)
(-0.00819821 0.0188373 0)
(-0.0577001 0.116445 0)
(-0.00378066 0.00762774 0)
(-0.00754611 0.0152207 0)
(-0.0150729 0.0303698 0)
(-0.0193543 0.0388632 0)
(-0.0274832 0.0551294 0)
(-0.0222976 0.0447317 0)
(-0.0300001 0.0602139 0)
(-0.0352827 0.0708891 0)
(-0.0378322 0.0760393 0)
(-0.0424517 0.085358 0)
(-0.0482586 0.0970264 0)
(-0.0462849 0.0930224 0)
(-0.0527311 0.105998 0)
(-0.0550257 0.110611 0)
(-0.0573579 0.115535 0)
(-0.0369938 0.0886162 0)
(-0.0856799 0.181928 0)
(-0.0861354 0.185207 0)
(-0.0883449 0.185224 0)
(-0.0719217 0.160687 0)
(-0.0618295 0.142752 0)
(-0.0835649 0.18172 0)
(-0.089067 0.184949 0)
(-0.0863656 0.177853 0)
(-0.0885086 0.183135 0)
(-0.0870982 0.178281 0)
(-0.0455141 0.109806 0)
(-0.055639 0.130835 0)
(-0.0423536 0.102038 0)
(-0.0726942 0.147075 0)
(-0.07137 0.144258 0)
(-0.0751031 0.152181 0)
(-0.0641527 0.129408 0)
(-0.0694761 0.140029 0)
(-0.0768103 0.155715 0)
(-0.0602357 0.121475 0)
(-0.0841864 0.171573 0)
(-0.0825092 0.167584 0)
(-0.0864914 0.176678 0)
(-0.0805742 0.163204 0)
(-0.0206537 0.0496844 0)
(-0.0159721 0.0374079 0)
(-0.0185544 0.0441907 0)
(-0.0292718 0.0714937 0)
(-0.0257731 0.0631053 0)
(-0.0109579 0.0252294 0)
(-0.0131478 0.0303911 0)
(-0.00593911 0.0136038 0)
(-0.00124747 0.00284297 0)
(-0.00906621 0.0208076 0)
(-0.00192777 0.00388068 0)
(-0.00939327 0.0189015 0)
(-0.0128567 0.0258629 0)
(-0.0172134 0.0345249 0)
(-0.0268317 0.0536961 0)
(-0.0235188 0.0470753 0)
(-0.0325618 0.0652481 0)
(-0.0350759 0.0703363 0)
(-0.0401451 0.0805385 0)
(-0.0424611 0.0852165 0)
(-0.0501913 0.100714 0)
(-0.0468048 0.093853 0)
(-0.0523684 0.105065 0)
(-0.0570122 0.11438 0)
(-0.0598693 0.120306 0)
(-0.0351158 0.0854981 0)
(-0.0908738 0.192175 0)
(-0.0919232 0.195556 0)
(-0.0918413 0.192142 0)
(-0.0760235 0.170233 0)
(-0.0666101 0.153687 0)
(-0.0866294 0.188959 0)
(-0.0927424 0.192008 0)
(-0.0897045 0.184069 0)
(-0.0921674 0.189733 0)
(-0.0897328 0.183512 0)
(-0.0434421 0.10706 0)
(-0.0537193 0.128937 0)
(-0.0374858 0.0917888 0)
(-0.0749639 0.151547 0)
(-0.0718346 0.144844 0)
(-0.0653368 0.131469 0)
(-0.0696793 0.140097 0)
(-0.0789295 0.159732 0)
(-0.0617124 0.124087 0)
(-0.0864727 0.175851 0)
(-0.0846772 0.171518 0)
(-0.087908 0.179011 0)
(-0.0824219 0.166616 0)
(-0.0197646 0.0482669 0)
(-0.0147714 0.0344094 0)
(-0.0167374 0.0397039 0)
(-0.0306095 0.0755222 0)
(-0.0235541 0.0584402 0)
(-0.0114699 0.0263481 0)
(-0.0133463 0.0307645 0)
(-0.0056667 0.0129198 0)
(-0.00216 0.00489735 0)
(-0.00755115 0.0172096 0)
(-0.00391321 0.00785669 0)
(-0.0075785 0.0152157 0)
(-0.0141493 0.0284013 0)
(-0.0171671 0.0343581 0)
(-0.0286709 0.0572678 0)
(-0.0220131 0.0439709 0)
(-0.0333426 0.0666726 0)
(-0.0374777 0.0750146 0)
(-0.0399611 0.0800007 0)
(-0.0449305 0.0900287 0)
(-0.0492174 0.0986007 0)
(-0.0544317 0.108969 0)
(-0.0596522 0.11965 0)
(-0.0567875 0.113689 0)
(-0.0932639 0.195886 0)
(-0.0966689 0.205035 0)
(-0.0945639 0.196709 0)
(-0.0825137 0.182554 0)
(-0.0731152 0.166168 0)
(-0.0644415 0.151196 0)
(-0.0921636 0.199708 0)
(-0.0943112 0.194238 0)
(-0.0947346 0.196274 0)
(-0.0923257 0.189398 0)
(-0.0917366 0.187061 0)
(-0.0471403 0.116112 0)
(-0.0374946 0.0945773 0)
(-0.058124 0.139114 0)
(-0.0350084 0.087689 0)
(-0.0767205 0.154726 0)
(-0.0742793 0.149445 0)
(-0.0677437 0.136126 0)
(-0.063917 0.128391 0)
(-0.0721774 0.144811 0)
(-0.0802411 0.161918 0)
(-0.0876517 0.177758 0)
(-0.0869775 0.176064 0)
(-0.0842933 0.170366 0)
(-0.0901653 0.183224 0)
(-0.082407 0.166185 0)
(-0.02091 0.0518284 0)
(-0.0173028 0.0419901 0)
(-0.0150941 0.0352762 0)
(-0.0163119 0.0389321 0)
(-0.0284833 0.0717912 0)
(-0.0231366 0.0587155 0)
(-0.0103752 0.0235859 0)
(-0.0123294 0.0280629 0)
(-0.00416452 0.00944497 0)
(-0.000930298 0.00209292 0)
(-0.0075001 0.0169691 0)
(-0.00201431 0.00403395 0)
(-0.00952746 0.0190859 0)
(-0.0125784 0.0252026 0)
(-0.0190449 0.0380468 0)
(-0.0143898 0.0287841 0)
(-0.0274429 0.0547047 0)
(-0.0318656 0.0636295 0)
(-0.0241128 0.0480604 0)
(-0.036597 0.0731227 0)
(-0.0424392 0.0848128 0)
(-0.0450826 0.090144 0)
(-0.0506826 0.101331 0)
(-0.0537184 0.107344 0)
(-0.0613334 0.122702 0)
(-0.0593 0.118496 0)
(-0.0972422 0.203305 0)
(-0.0983778 0.209662 0)
(-0.100422 0.210985 0)
(-0.0976985 0.203106 0)
(-0.086791 0.192323 0)
(-0.0772209 0.175599 0)
(-0.0691357 0.162002 0)
(-0.0924922 0.202426 0)
(-0.0963236 0.207022 0)
(-0.0972082 0.199755 0)
(-0.0978729 0.201795 0)
(-0.0949647 0.19402 0)
(-0.0942326 0.192037 0)
(-0.0918513 0.186731 0)
(-0.0450918 0.113917 0)
(-0.0336908 0.0878676 0)
(-0.0562406 0.137238 0)
(-0.0304826 0.0776312 0)
(-0.0794857 0.160147 0)
(-0.0764718 0.153877 0)
(-0.074378 0.149268 0)
(-0.0680157 0.13634 0)
(-0.0655325 0.131343 0)
(-0.0723433 0.144798 0)
(-0.0901826 0.182729 0)
(-0.0888661 0.179292 0)
(-0.0858326 0.173008 0)
(-0.0844363 0.169961 0)
(-0.0190964 0.0481723 0)
(-0.0160773 0.0394026 0)
(-0.0140474 0.0324002 0)
(-0.0145289 0.0339101 0)
(-0.0248745 0.0636329 0)
(-0.0200154 0.0514503 0)
(-0.00875698 0.0197635 0)
(-0.0109746 0.0248009 0)
(-0.0120725 0.027098 0)
(-0.00444741 0.0100032 0)
(-0.00178156 0.00397091 0)
(-0.0059458 0.0133529 0)
(-0.00434791 0.00868534 0)
(-0.00817637 0.0163379 0)
(-0.0170506 0.0340013 0)
(-0.0140696 0.0280889 0)
(-0.0292254 0.0581546 0)
(-0.0335944 0.0669147 0)
(-0.0233619 0.0464587 0)
(-0.0380867 0.0759423 0)
(-0.042649 0.0850626 0)
(-0.0473489 0.0945212 0)
(-0.0497973 0.0994085 0)
(-0.0553007 0.110257 0)
(-0.0637087 0.127319 0)
(-0.0596336 0.118918 0)
(-0.100042 0.209126 0)
(-0.104533 0.221161 0)
(-0.104703 0.219305 0)
(-0.100412 0.207816 0)
(-0.0842676 0.189109 0)
(-0.0751653 0.173325 0)
(-0.0671108 0.160034 0)
(-0.0973906 0.212223 0)
(-0.10016 0.215683 0)
(-0.098677 0.202147 0)
(-0.100346 0.20681 0)
(-0.0977195 0.199362 0)
(-0.0958347 0.194658 0)
(-0.0943767 0.191404 0)
(-0.0394122 0.102684 0)
(-0.0502249 0.1258 0)
(-0.0344788 0.0912774 0)
(-0.029212 0.0774324 0)
(-0.0608128 0.147861 0)
(-0.0281775 0.0736129 0)
(-0.0810322 0.162726 0)
(-0.0790809 0.158705 0)
(-0.0766056 0.153416 0)
(-0.0701503 0.140367 0)
(-0.0655125 0.131051 0)
(-0.0747115 0.149224 0)
(-0.0919934 0.185873 0)
(-0.0913192 0.184059 0)
(-0.0880303 0.177254 0)
(-0.0853028 0.171253 0)
(-0.0167416 0.0421258 0)
(-0.0143835 0.0344516 0)
(-0.0127804 0.028737 0)
(-0.013901 0.0322493 0)
(-0.0229881 0.060605 0)
(-0.0182751 0.0483165 0)
(-0.00816264 0.018135 0)
(-0.0102569 0.022792 0)
(-0.0109047 0.0240037 0)
(-0.00336106 0.0074925 0)
(-0.000851781 0.00187622 0)
(-0.00569664 0.0126311 0)
(-0.00236559 0.00471246 0)
(-0.0109175 0.0217749 0)
(-0.017345 0.0345133 0)
(-0.0285152 0.0566341 0)
(-0.0321456 0.063943 0)
(-0.0365695 0.0727959 0)
(-0.0203426 0.0404233 0)
(-0.0259829 0.0515785 0)
(-0.0408378 0.0813685 0)
(-0.0454342 0.0904616 0)
(-0.0473354 0.0942907 0)
(-0.0515345 0.102644 0)
(-0.0577642 0.115082 0)
(-0.0539837 0.107453 0)
(-0.0652073 0.129964 0)
(-0.0620979 0.123575 0)
(-0.103437 0.214836 0)
(-0.107059 0.227104 0)
(-0.106638 0.223963 0)
(-0.107119 0.222948 0)
(-0.103208 0.213471 0)
(-0.0870457 0.196289 0)
(-0.0804523 0.184925 0)
(-0.0721963 0.171887 0)
(-0.100102 0.218813 0)
(-0.104706 0.2241 0)
(-0.101639 0.207808 0)
(-0.0988197 0.201893 0)
(-0.102751 0.210979 0)
(-0.0995689 0.20228 0)
(-0.0983835 0.19951 0)
(-0.0953213 0.192785 0)
(-0.0370242 0.099949 0)
(-0.0502847 0.128085 0)
(-0.029768 0.0822344 0)
(-0.0254162 0.0697097 0)
(-0.0576168 0.143429 0)
(-0.0246493 0.065537 0)
(-0.0836195 0.16764 0)
(-0.0790376 0.158275 0)
(-0.0766947 0.153238 0)
(-0.0702009 0.140148 0)
(-0.068038 0.135815 0)
(-0.0747821 0.149012 0)
(-0.0943448 0.190462 0)
(-0.0932025 0.187279 0)
(-0.0897262 0.180062 0)
(-0.088314 0.176948 0)
(-0.0152957 0.0392195 0)
(-0.0131402 0.0314159 0)
(-0.0120284 0.0260751 0)
(-0.0128881 0.0288476 0)
(-0.0194092 0.0523683 0)
(-0.0158163 0.0419525 0)
(-0.00901703 0.0198528 0)
(-0.00669828 0.0147532 0)
(-0.0102808 0.0219386 0)
(-0.00416116 0.00918204 0)
(-0.00181271 0.00393864 0)
(-0.00455726 0.00905529 0)
(-0.0109284 0.0217488 0)
(-0.014381 0.0285843 0)
(-0.030751 0.0609848 0)
(-0.0330142 0.0655291 0)
(-0.03813 0.0757492 0)
(-0.0202374 0.0401088 0)
(-0.0257517 0.051005 0)
(-0.0423052 0.0840945 0)
(-0.0451453 0.0896993 0)
(-0.0499748 0.0994042 0)
(-0.0588442 0.116983 0)
(-0.0555822 0.110361 0)
(-0.0678698 0.135196 0)
(-0.0645335 0.12838 0)
(-0.0613142 0.121808 0)
(-0.106387 0.220663 0)
(-0.111864 0.236051 0)
(-0.110552 0.231102 0)
(-0.110226 0.228869 0)
(-0.105676 0.217597 0)
(-0.0930062 0.208444 0)
(-0.0797078 0.185689 0)
(-0.0693422 0.16869 0)
(-0.106258 0.22984 0)
(-0.0987916 0.218257 0)
(-0.107826 0.231233 0)
(-0.101638 0.207234 0)
(-0.103192 0.211098 0)
(-0.105278 0.216103 0)
(-0.102107 0.207145 0)
(-0.0996289 0.201322 0)
(-0.0979943 0.197794 0)
(-0.0396548 0.107248 0)
(-0.0310006 0.0868431 0)
(-0.0461471 0.120947 0)
(-0.024434 0.0704219 0)
(-0.0230382 0.0658444 0)
(-0.0229959 0.0630219 0)
(-0.0608197 0.151798 0)
(-0.0848265 0.16953 0)
(-0.0809132 0.161568 0)
(-0.0792354 0.158 0)
(-0.0725126 0.144463 0)
(-0.0772008 0.153503 0)
(-0.096451 0.194081 0)
(-0.095978 0.192693 0)
(-0.0924209 0.185261 0)
(-0.089257 0.178338 0)
(-0.0135736 0.0346084 0)
(-0.012317 0.028197 0)
(-0.0127256 0.0314181 0)
(-0.0122464 0.0263483 0)
(-0.0109466 0.0229504 0)
(-0.0123287 0.0272961 0)
(-0.0175634 0.0494039 0)
(-0.013525 0.0370294 0)
(-0.00853924 0.0184257 0)
(-0.00625573 0.013512 0)
(-0.00917888 0.0194306 0)
(-0.00354802 0.00771001 0)
(-0.000950653 0.00203335 0)
(-0.00222655 0.00441255 0)
(-0.00841779 0.0167254 0)
(-0.0142267 0.028207 0)
(-0.0308257 0.0610135 0)
(-0.0352952 0.0699687 0)
(-0.041116 0.0816306 0)
(-0.0374991 0.0743707 0)
(-0.0230948 0.0457049 0)
(-0.0170924 0.0338408 0)
(-0.0285255 0.0564153 0)
(-0.0469196 0.0930537 0)
(-0.0511044 0.101428 0)
(-0.0579979 0.115106 0)
(-0.0542224 0.107498 0)
(-0.0698988 0.138942 0)
(-0.0667642 0.132469 0)
(-0.0621115 0.123138 0)
(-0.108892 0.2247 0)
(-0.11393 0.241078 0)
(-0.114203 0.239377 0)
(-0.113322 0.236779 0)
(-0.111484 0.23193 0)
(-0.112233 0.231978 0)
(-0.108407 0.222983 0)
(-0.0925256 0.210049 0)
(-0.0858021 0.198608 0)
(-0.0736899 0.179468 0)
(-0.110168 0.238212 0)
(-0.10495 0.231063 0)
(-0.112297 0.23925 0)
(-0.103063 0.209559 0)
(-0.106069 0.216423 0)
(-0.107313 0.21942 0)
(-0.104153 0.210629 0)
(-0.102125 0.205934 0)
(-0.0986977 0.198592 0)
(-0.0363798 0.102607 0)
(-0.0265951 0.0784708 0)
(-0.0483627 0.128151 0)
(-0.0216774 0.0660194 0)
(-0.0185249 0.0547349 0)
(-0.0197017 0.0557253 0)
(-0.0559143 0.144163 0)
(-0.0874919 0.174608 0)
(-0.0833983 0.166364 0)
(-0.0796399 0.158411 0)
(-0.0723945 0.143899 0)
(-0.0771559 0.153045 0)
(-0.0978607 0.195864 0)
(-0.0942658 0.188411 0)
(-0.0920114 0.183403 0)
(-0.0123453 0.0327266 0)
(-0.0113173 0.0252278 0)
(-0.0111182 0.027018 0)
(-0.0118899 0.0242626 0)
(-0.0106676 0.0214084 0)
(-0.0118156 0.0249255 0)
(-0.0140679 0.0412445 0)
(-0.0124747 0.0359006 0)
(-0.00723501 0.0154625 0)
(-0.00465171 0.00997342 0)
(-0.00845197 0.0175202 0)
(-0.0015883 0.00332508 0)
(-0.00477992 0.0094545 0)
(-0.0106469 0.0211036 0)
(-0.0331435 0.0655244 0)
(-0.0352264 0.0696935 0)
(-0.0420383 0.083277 0)
(-0.0398323 0.0788583 0)
(-0.0231037 0.0456107 0)
(-0.0171301 0.0338293 0)
(-0.0286579 0.0565542 0)
(-0.0497201 0.0985612 0)
(-0.0464951 0.0920327 0)
(-0.0598595 0.118586 0)
(-0.0555316 0.109807 0)
(-0.0694817 0.137824 0)
(-0.0663499 0.1314 0)
(-0.0641415 0.126999 0)
(-0.111719 0.230232 0)
(-0.118281 0.249237 0)
(-0.118296 0.2472 0)
(-0.116214 0.241306 0)
(-0.114787 0.237917 0)
(-0.115179 0.237833 0)
(-0.110605 0.226543 0)
(-0.0976094 0.220924 0)
(-0.0869213 0.203213 0)
(-0.0824476 0.196607 0)
(-0.0687705 0.172387 0)
(-0.115139 0.246843 0)
(-0.109785 0.239045 0)
(-0.105891 0.234655 0)
(-0.115666 0.246502 0)
(-0.106037 0.215181 0)
(-0.107546 0.21858 0)
(-0.109871 0.224391 0)
(-0.106811 0.215977 0)
(-0.104126 0.210059 0)
(-0.103148 0.207274 0)
(-0.101316 0.203386 0)
(-0.0303119 0.0902668 0)
(-0.0421636 0.116775 0)
(-0.0256691 0.0785365 0)
(-0.0177907 0.0578538 0)
(-0.0146659 0.0463065 0)
(-0.0593937 0.15372 0)
(-0.0888786 0.176868 0)
(-0.0850575 0.16917 0)
(-0.0822001 0.163125 0)
(-0.0746286 0.148014 0)
(-0.0793924 0.15713 0)
(-0.100343 0.200622 0)
(-0.096907 0.193556 0)
(-0.0940691 0.187523 0)
(-0.091701 0.182309 0)
(-0.0107041 0.0284401 0)
(-0.0106644 0.0243723 0)
(-0.0112767 0.0236462 0)
(-0.0102079 0.0257669 0)
(-0.0118081 0.0238473 0)
(-0.01164 0.0225743 0)
(-0.00980639 0.0191468 0)
(-0.0111829 0.0216333 0)
(-0.0122567 0.0387424 0)
(-0.00930323 0.0279485 0)
(-0.00716823 0.0150099 0)
(-0.0042459 0.00893072 0)
(-0.00821693 0.0165279 0)
(-0.00065149 0.00134246 0)
(-0.0029432 0.00613279 0)
(-0.00445829 0.0088018 0)
(-0.00927117 0.0183443 0)
(-0.0338835 0.0668453 0)
(-0.0373774 0.0738367 0)
(-0.0443562 0.087752 0)
(-0.0396476 0.0783447 0)
(-0.0261146 0.0514855 0)
(-0.0204308 0.0402904 0)
(-0.0143505 0.0283046 0)
(-0.0318788 0.0628257 0)
(-0.0508865 0.100645 0)
(-0.0489058 0.0966502 0)
(-0.0600662 0.11877 0)
(-0.0535562 0.105787 0)
(-0.0582332 0.115018 0)
(-0.0715512 0.141609 0)
(-0.0683771 0.135091 0)
(-0.0644686 0.127353 0)
(-0.114117 0.234155 0)
(-0.119609 0.253054 0)
(-0.120208 0.251844 0)
(-0.120021 0.249567 0)
(-0.118896 0.246415 0)
(-0.117304 0.241308 0)
(-0.113461 0.232097 0)
(-0.095137 0.21876 0)
(-0.10301 0.230692 0)
(-0.087135 0.208639 0)
(-0.0730389 0.183187 0)
(-0.118503 0.253941 0)
(-0.114666 0.249039 0)
(-0.111803 0.246349 0)
(-0.110667 0.224518 0)
(-0.111791 0.227415 0)
(-0.109267 0.220284 0)
(-0.106519 0.214199 0)
(-0.105739 0.212135 0)
(-0.101931 0.20405 0)
(-0.0279814 0.088191 0)
(-0.0408261 0.116319 0)
(-0.0195563 0.0658002 0)
(-0.0164185 0.0571526 0)
(-0.0141759 0.0487859 0)
(-0.0126958 0.0435987 0)
(-0.0544625 0.146477 0)
(-0.0878976 0.174636 0)
(-0.0845857 0.167855 0)
(-0.0819764 0.162255 0)
(-0.074186 0.146807 0)
(-0.0789275 0.15585 0)
(-0.101854 0.203039 0)
(-0.0986426 0.1964 0)
(-0.0969658 0.192805 0)
(-0.0933329 0.185063 0)
(-0.00904897 0.02552 0)
(-0.00965383 0.0210301 0)
(-0.0108223 0.0213392 0)
(-0.00870985 0.021662 0)
(-0.0117465 0.0222222 0)
(-0.0119571 0.0218159 0)
(-0.00877682 0.0171857 0)
(-0.0102225 0.0190457 0)
(-0.0110575 0.02037 0)
(-0.00880536 0.0304096 0)
(-0.00740644 0.024859 0)
(-0.00632437 0.0130183 0)
(-0.00515121 0.0106193 0)
(-0.00686079 0.0137552 0)
(-0.00115203 0.00232019 0)
(-0.00315906 0.0064247 0)
(-0.00191066 0.00376749 0)
(-0.0083411 0.0164427 0)
(-0.010982 0.0216794 0)
(-0.036607 0.0721776 0)
(-0.0444114 0.0876565 0)
(-0.0419906 0.0828358 0)
(-0.0264418 0.052013 0)
(-0.0208037 0.0409144 0)
(-0.0149032 0.0293235 0)
(-0.0322115 0.0633269 0)
(-0.049203 0.0970373 0)
(-0.0626293 0.123647 0)
(-0.0538619 0.106164 0)
(-0.0598605 0.117948 0)
(-0.0708175 0.139862 0)
(-0.0670213 0.132225 0)
(-0.116759 0.239354 0)
(-0.122948 0.259695 0)
(-0.124297 0.259442 0)
(-0.123181 0.255411 0)
(-0.121334 0.250384 0)
(-0.119947 0.246322 0)
(-0.11567 0.235682 0)
(-0.0996006 0.228686 0)
(-0.107725 0.241525 0)
(-0.0820652 0.201084 0)
(-0.0955546 0.224863 0)
(-0.0693155 0.178333 0)
(-0.122473 0.261101 0)
(-0.118154 0.254717 0)
(-0.115351 0.251991 0)
(-0.112807 0.250239 0)
(-0.11267 0.22771 0)
(-0.114722 0.233105 0)
(-0.112026 0.22574 0)
(-0.10893 0.21892 0)
(-0.107579 0.215154 0)
(-0.104378 0.208454 0)
(-0.0212952 0.0742678 0)
(-0.0332392 0.101269 0)
(-0.0461462 0.129517 0)
(-0.017553 0.063772 0)
(-0.0114898 0.0463538 0)
(-0.0102388 0.0414257 0)
(-0.00838891 0.0331364 0)
(-0.060427 0.161216 0)
(-0.0894165 0.177084 0)
(-0.0873467 0.172851 0)
(-0.0841932 0.166251 0)
(-0.0762531 0.150568 0)
(-0.0809048 0.159419 0)
(-0.104092 0.207378 0)
(-0.101128 0.201158 0)
(-0.0977428 0.193856 0)
(-0.0959617 0.190091 0)
(-0.0919628 0.18193 0)
(-0.00754277 0.0204378 0)
(-0.00992896 0.019616 0)
(-0.00851798 0.0193651 0)
(-0.0113836 0.0210574 0)
(-0.0120559 0.021782 0)
(-0.0123138 0.0211702 0)
(-0.00805372 0.0152244 0)
(-0.0097942 0.0177057 0)
(-0.011777 0.0204905 0)
(-0.0068558 0.0275601 0)