/*--------------------------------*- C++ -*----------------------------------*\
| =========                 |                                                 |
| \\      /  F ield         | OpenFOAM: The Open Source CFD Toolbox           |
|  \\    /   O peration     | Version:  v2012                                 |
|   \\  /    A nd           | Website:  www.openfoam.com                      |
|    \\/     M anipulation  |                                                 |
\*---------------------------------------------------------------------------*/
FoamFile
{
    version     2.0;
    format      ascii;
    class       surfaceScalarField;
    location    "1.01";
    object      meshPhi;
}
// * * * * * * * * * * * * * * * * * * * * * * * * * * * * * * * * * * * * * //

dimensions      [0 3 -1 0 0 0 0];


internalField   nonuniform List<scalar> 
18811
(
0.00346343
0.00034511
0.0012506
0.00652215
-0.00433866
0.00850553
0.00697948
-0.00473206
0.0150747
0.000495156
0.00784394
0.00724605
0.0068333
0.0102729
0.0101819
0.00860049
-0.00337557
-0.00459906
0.0164972
0.0226505
0.0143115
-0.00111939
-0.0127716
0.0276939
0.013609
-0.00047519
0.000333433
0.0131986
0.00758141
0.0126778
0.0163275
0.0116767
0.00791277
0.00551117
0.0165807
0.0168949
0.0121127
-0.00874942
0.00613022
-0.00246158
0.0194801
-0.0021778
0.031316
0.030202
0.0387395
-0.00953462
0.0227257
0.00224666
-0.019513
0.0411992
0.0153929
-0.000239388
0.000205008
0.000503402
0.017581
0.0162389
0.013753
0.0229126
0.0196268
0.0260308
0.0192031
0.00987354
0.0145853
-0.00395266
0.020205
0.0268569
-0.0113286
0.0141164
0.00954443
-0.0065745
0.00466982
-0.0017376
0.0270706
-0.00570094
-0.0229569
0.044411
0.0392153
0.0489618
0.0516475
-0.0139012
0.0300625
0.0068835
0.00122125
-0.0176761
0.0496501
0.000449753
0.0158474
0.000665059
-0.000370286
-0.00126801
0.0013474
0.00867252
0.0130651
0.0317315
0.0100784
0.0368848
0.0196329
0.0365179
0.0296722
0.0284983
0.0232898
0.0119357
0.0217667
-0.00865375
0.00638072
0.0248139
0.0309184
-0.00834859
0.0110811
-0.01287
0.0161181
-0.00545496
0.0069874
-4.30052e-05
-0.00270197
-0.0265333
0.0398885
-0.00947821
0.0392334
-0.00436256
0.0393517
0.0641298
0.0728656
0.0589313
-0.0161148
0.0332259
0.0117053
0.00578824
-0.019535
0.0570989
0.000994755
0.00214098
0.0109244
0.00155936
-0.000619918
0.000280943
0.0384598
0.00631116
0.025956
0.0375719
-0.0115282
0.0569253
0.0444393
0.0297544
0.025364
0.0534029
-0.000690081
0.0640476
0.0271601
-0.0147923
0.0335943
0.0136068
-0.00159754
0.0606918
0.00920439
-0.00563321
-0.0098348
0.0158701
-0.0146191
0.0298624
0.000134388
0.00243058
-0.00101431
-0.0300237
0.0408227
-0.0260851
0.0567993
0.0146778
0.0294588
0.0332772
0.075831
0.0666564
-0.00224768
0.0600635
0.0669381
-0.0167085
0.0506969
0.0046543
0.0242054
0.00449499
0.00757281
0.0562875
0.00251543
-0.00466595
0.000931148
0.00478473
0.00373965
0.000599817
-0.000966895
0.000145221
0.0279594
0.0154975
0.0475374
0.0168549
0.0453995
-0.0222985
0.0607661
0.00389815
0.0752524
-0.0148445
0.0889522
0.0667171
0.0565092
0.0132382
0.0347593
-0.0105737
0.0214372
0.0361862
-0.00618298
-0.000508584
0.058386
0.0508377
0.00789377
-0.005813
0.0109497
0.00447164
-0.00185172
-0.0102737
0.0182847
-0.0177742
0.0245247
-0.000705119
0.000775392
-0.0174225
0.0360969
-0.0317498
0.0545384
0.018737
0.052654
0.026988
0.0528448
0.0380235
0.0597795
0.00980967
0.0604737
0.0697138
0.0670052
-0.0236111
0.0646979
0.0265009
0.00201116
0.0172066
0.0259398
0.00644391
0.0688039
0.00143375
0.00328011
0.00285907
0.0325702
-0.00459998
0.0190969
0.0240076
0.0193495
-0.00657762
0.0662142
0.0489714
-0.0244546
0.0858543
0.0698612
0.00269344
0.050962
-0.0286665
0.0959404
0.0642748
0.0170377
0.058592
0.0516252
0.0190401
0.0509207
-0.0141519
0.023305
-0.0264215
0.0484543
0.00387721
-0.000207604
0.0471597
0.026511
0.00364433
-0.00477163
0.0104355
-0.00837153
0.0131133
-0.0175227
0.0158395
-0.0106919
0.0328918
-0.02149
0.0461959
0.0471368
0.0311113
0.0371543
0.0654069
0.00613423
0.0647623
0.0575957
0.0343819
0.0688521
0.0235569
0.0443708
0.0740646
0.0862191
0.0694641
-0.0223667
0.085448
0.0196228
0.00941518
0.049774
0.00313063
0.0278893
0.00766048
0.0604835
0.0012223
0.00376265
-0.00255597
0.0226783
-0.00345469
0.014604
0.0152012
0.0112673
0.0386445
-0.00200391
0.0512523
-0.0102141
0.0473586
-0.0161027
0.0886153
0.103788
0.106799
-0.0275124
0.102365
0.0650107
0.0133208
0.0058503
0.0871017
0.0503031
0.0209091
0.0371678
0.078557
-0.00935389
0.0243256
-0.0389191
0.0464073
-0.00603472
0.0136508
-0.000156417
0.0393633
0.0227448
0.00345863
0.00918022
-0.00371614
0.00850363
-0.0121471
0.0121851
-0.00785154
0.0259203
-0.0127022
0.0299898
-0.021328
0.0348844
0.0386567
0.0409798
0.0329214
0.0158877
0.0668355
0.0661759
0.0469691
0.0530592
0.0649877
0.047093
0.0626726
0.0758632
0.0669707
0.0243984
0.0733855
0.0611504
-0.0297029
0.0751314
0.0138493
0.0710863
0.0100297
0.023517
0.0227602
0.00554321
0.0573168
0.00192615
-0.00198584
0.0143245
-7.45671e-05
0.0101369
0.0137552
0.00984512
0.0290527
0.0073295
0.000272732
0.038449
0.028499
0.0134223
0.0458501
-0.0178598
0.0883863
0.119587
0.110181
0.0996991
-0.0352146
0.103323
0.0109887
0.0664776
0.0572284
0.011067
-0.00377434
0.0787659
0.0453156
0.0169732
0.0575872
0.0263411
0.0786525
0.0566103
-0.00709722
0.0221486
-0.0114363
0.0409813
-0.0252252
0.0534378
0.0040518
0.0259803
0.0322731
0.00450826
0.00476227
-0.00577276
0.0078015
-0.00673114
0.0197387
-0.00979718
0.0232012
-0.0116987
0.0225279
0.0293723
-0.0226222
0.0321039
0.0233697
0.0157296
0.0374009
0.0103955
0.0368662
0.0583744
0.0854395
0.0424648
0.0866374
0.0327905
0.050128
0.058372
0.0604019
0.0480667
0.0696605
0.0641519
0.0577206
0.0170406
0.0617041
0.0435763
-0.0410163
0.074858
0.0254555
0.0563741
0.0847979
0.016028
0.0200021
0.0187938
-0.00307621
0.0147263
-0.00158026
0.0349432
8.40989e-05
0.0037635
0.0108628
0.0117962
0.0017357
0.021622
0.00870998
0.016658
0.0166415
0.0381132
0.0264744
0.0121301
0.0380918
0.0365787
-0.0275672
0.0899154
-0.00472773
0.0959229
0.107782
0.0862014
0.0894609
0.0759223
-0.0420385
0.0947225
0.0477232
0.0230608
0.00720808
0.0574128
0.0525318
0.00604441
-0.00785378
0.0691582
0.00347283
0.0410395
0.0599585
0.0192068
-0.0116678
0.0727844
0.0612949
-0.00855819
0.0301325
-0.0145017
0.0380194
-0.0302577
0.0550099
0.00195861
0.0115768
0.0392909
0.00184507
-0.00321734
0.0103637
-0.004967
0.0173727
0.019674
-0.00766717
0.0235308
0.0262481
-0.00560358
0.0236739
0.0201871
0.0191106
0.0333577
0.00981521
0.029169
0.00597061
0.0315159
0.0531913
0.0572792
0.0420266
0.0305273
0.081784
0.0378818
0.0494053
0.00302322
0.0837261
0.0765326
0.050078
0.0488898
0.0554581
-0.0310579
0.0552387
0.0492331
0.0223144
0.0478692
0.0371113
0.0319939
0.0528351
-0.0391287
0.0622316
0.00712531
0.0686557
0.0712635
0.0188119
0.0108712
0.0205038
0.00685055
-0.00573258
0.0230027
0.00190965
0.0379904
0.000770983
0.00729143
0.0105182
0.0257313
-9.02168e-05
-0.000912089
0.0280671
0.0219919
0.0236629
-0.00806348
0.0280042
0.0225035
0.011637
0.0330986
0.0360898
0.0340316
-0.029445
0.0869333
-0.0170313
0.0779762
0.0822153
0.0840844
0.0696356
-0.027048
0.0762261
0.0564651
0.018313
0.0573912
-0.0453443
0.098593
0.0177997
0.0381766
0.0289382
0.0268204
0.00507295
0.0444993
-0.0226421
0.0454369
0.0257502
0.0549035
-0.0192686
0.051726
-0.0153885
0.0698136
0.0480384
0.0326832
0.0393006
0.0453286
0.0286479
-0.00633198
0.0429561
-0.0295113
0.0549534
0.00901116
0.0210897
0.0155742
0.0226312
0.00279634
0.0102071
-0.000776508
-0.00505045
0.0168715
-0.0174902
0.0192947
0.0208241
0.00114364
0.0223819
0.00261469
0.0218669
0.0192964
0.00936797
0.031704
0.0275813
0.00616988
0.00453039
0.0321025
0.00959414
0.0248303
0.0462541
-0.00823442
0.0882197
0.0757344
0.0256817
0.0622372
0.0983703
0.0614267
0.0147525
0.000424937
0.0551519
0.0569292
0.0425572
0.060761
0.0471867
0.0435752
-0.00921114
0.0363825
0.0255936
0.0428525
0.00295052
-0.00774838
0.0339198
0.0165784
0.0386832
0.0289721
0.0229726
0.0447178
0.0278104
0.0408667
0.00900276
0.0808243
0.0885506
0.0169397
0.0421933
0.0151602
0.0162958
-0.000167234
-0.00777033
0.0331797
0.0253765
0.0151149
0.00459442
0.000756927
0.00623609
0.00602289
0.000919842
0.019856
0.00106393
-0.00082631
0.0224088
0.0227146
0.0260031
0.021882
0.0325104
0.0204558
0.0117484
0.032666
0.0271602
0.0121798
0.020339
0.0375313
-0.0311876
0.0809467
-0.00223009
0.0913655
0.00495562
0.0714614
0.109484
0.097616
0.0668907
0.0696151
0.00453634
0.0526963
0.079597
-0.0156522
0.0340895
0.0132982
0.0182839
0.0254998
0.0340443
0.0206792
0.0158569
0.0440389
0.0371789
0.0458499
0.0435006
-0.0207209
0.0438089
0.0713987
0.0533208
0.0491383
0.0333621
0.0602827
-0.019744
0.0401804
-0.0269331
0.0444319
0.0114692
0.00670258
0.0160246
0.0407462
0.00275736
-0.00451268
0.0123618
0.00330088
0.0148461
-0.0142645
0.0169007
0.0231581
0.000775119
0.00888209
0.018013
0.0315777
0.015065
0.018167
0.027296
0.0143181
0.0187078
-0.00589289
0.0334909
0.034968
0.0200963
0.017732
0.0735013
0.00987827
0.0235956
0.0674221
0.035316
0.0360994
0.0492982
0.0640478
0.0325633
0.0668011
0.0284651
0.0386989
0.019488
0.0500981
0.0217652
0.0309317
0.0113998
0.0707726
0.0605659
0.00825906
0.0259498
0.0341475
0.0338806
0.028901
0.00529583
0.0449172
0.0234262
0.0344702
0.00299089
0.0282413
0.0175674
0.0112285
0.0322699
0.0238363
0.0199291
0.0269982
0.0461863
0.00128695
0.0534081
-0.00544851
0.0563905
0.0618818
0.0567383
0.0151534
0.0313653
0.0137093
-0.00912895
0.0236739
0.00305825
-0.00868343
0.0261285
0.0137319
0.0272943
0.00392683
0.00101395
0.00966098
0.00248265
0.0184448
-9.62627e-07
0.00918159
0.0151159
0.0204776
0.0284282
0.0110409
0.021364
0.0299443
0.0218295
-0.0111545
0.0302431
0.0227293
0.0181127
0.0171399
0.0385016
0.0317184
0.0687197
0.0584284
0.016099
0.0514898
0.0645846
0.0841723
-0.00948197
0.0767745
0.0831718
-0.0116551
0.0503178
0.0411633
0.0384529
-0.00452143
0.0353636
-0.0538781
0.0675611
0.0650125
0.00871721
-0.00590004
0.0318549
0.0282523
0.0212516
0.0126274
0.0399552
0.0176455
0.0272444
0.0447154
0.0305364
0.0394812
0.0413658
0.0276468
-0.0153429
0.0352292
-0.0152442
0.0634629
0.0334511
0.0391361
0.00402646
0.0538253
0.0673849
-0.0204225
0.0373223
-0.0173142
0.031489
0.0156824
0.0106018
0.00674311
0.00316881
0.00849562
0.00317427
0.0128454
-0.0102608
0.0114041
-0.0122827
0.0284149
0.00926361
0.00397221
0.025154
0.0259043
0.00870506
0.0217679
0.0310117
0.0180748
0.0123512
-0.00215978
0.0251254
0.0354523
0.0165474
0.0220317
0.00948894
0.0223615
0.0560492
0.0147271
0.0295423
0.029097
0.0813551
0.0243636
0.0402441
0.0521959
0.0338192
0.0308173
0.0483905
0.0112637
0.0729831
0.014297
0.0358604
0.00685773
0.0341013
0.0302887
0.0079181
0.0420308
0.0582452
0.0119459
0.00488088
0.0626518
0.0671236
0.044489
0.0458517
0.0382617
0.00174897
-0.0123513
0.039513
0.0293469
0.0401622
0.011014
0.0283558
0.0336322
0.00746582
0.0385304
0.0237199
0.0113711
0.0293287
0.034489
-0.00849355
0.0420857
-0.00347138
0.0426539
0.0707309
0.0185087
0.0497866
0.0204667
0.0229117
0.0152822
0.000439664
0.012952
0.00167501
0.023012
0.00401675
0.00128305
0.00916623
0.00370302
0.0156835
-0.00344664
0.0139256
0.0152391
-0.0129633
0.0236605
0.0101613
0.0155363
0.0103283
0.0160182
0.0326124
0.0291757
0.037665
0.0144612
0.0210125
0.039002
0.0365078
0.0533554
0.0441473
0.0368967
-0.000317783
0.0403108
0.0644408
0.0664172
-0.00822457
0.0585083
0.0234292
0.050015
0.0444161
0.0352705
0.0416874
0.0306618
0.0110979
0.066216
-0.049011
0.0633996
0.0569287
0.0199514
0.0291364
0.0151242
0.0202864
0.0253136
0.0258162
0.0420022
0.0142607
0.0250284
0.0263644
0.00279213
-0.000689141
0.0288387
0.0326781
0.0310082
0.0261848
0.0120011
0.0375624
0.0484193
-0.0162439
0.0506821
0.0383964
0.025897
0.0385551
0.0337553
0.0163
0.0341877
-0.00633254
0.0272585
-0.00871128
0.0314419
0.0135126
0.00575295
0.0225935
0.000796558
0.00349827
0.00624543
0.00456633
0.0111267
0.00377805
0.00846346
-0.00951583
0.0241567
0.0260776
0.0150525
0.031992
0.00399212
0.0288219
0.0333517
0.0188814
0.0188631
0.0399228
0.000264928
0.038618
0.0366783
0.00116092
0.0517538
-0.00824782
0.0519964
-0.013788
0.050148
0.0411167
0.0444535
0.0207514
0.0353223
0.0322426
0.0204952
0.0396858
0.0679709
0.0418559
0.00400344
0.0399825
0.0388634
-0.00052691
0.0417189
0.0298007
0.0369986
0.0298871
0.0394204
0.0617086
0.00373752
0.0110996
0.0473304
0.060145
0.0316919
0.0352215
0.0393296
-0.0132167
0.03894
0.028679
-0.0118605
0.0366651
0.0405358
0.0325878
-0.000303887
-0.00443235
0.0351295
0.0327993
0.0141703
0.0342182
0.012489
0.0369101
0.0228222
0.0141074
0.0477303
0.0512894
0.0486983
0.0165633
0.018193
0.0257881
0.00458785
0.0112412
0.00259172
0.0058765
0.00149113
0.0123103
0.00378212
0.00202405
0.0102684
-0.0113152
0.0161384
-0.00188251
0.0134244
0.0111458
0.00997593
0.0165344
-0.00388543
0.0198977
0.0118358
0.0204813
0.00488942
0.0241094
0.0116975
0.0217701
0.0306403
0.0273737
0.0124732
0.0030329
0.0354334
0.00289955
0.033618
0.0374125
0.0325371
0.0185721
0.0228653
0.0266143
0.00239605
0.0381985
0.0570739
0.0538131
-0.0119321
0.0529977
0.0124388
0.0553427
0.0539388
0.0287262
0.0108955
0.0407143
0.0148572
0.0263398
-0.00801505
0.0374213
0.02859
-0.0186052
0.0512814
0.0526126
0.0454711
-0.0344851
0.0392326
0.0368688
0.0265061
-0.0116662
0.0429857
0.0231869
0.0163037
0.0227354
0.0268313
0.0315765
0.0111657
0.025127
0.00484429
0.0351339
0.0369206
0.0344082
-0.00387403
0.0361368
0.0461243
-0.00742482
0.0424291
0.0380349
0.0374733
0.0158537
0.0360657
0.00904936
0.0394754
0.0193001
-0.00250592
0.0198978
-0.00213222
0.0235292
0.00881807
0.00363304
0.0150581
-0.00238778
0.00452137
0.00985441
0.0175012
-0.000180739
-0.00454814
0.0184068
0.0215034
0.0287166
0.0146341
0.0159133
0.0255694
0.00277709
0.021437
0.0246642
0.0208478
0.00975767
0.0301536
0.0332648
0.0161392
0.019015
0.0181611
0.0150938
-0.00353818
0.040337
-0.0153055
0.0468443
0.0405964
-0.0114344
0.0374543
0.0341071
-0.0131375
0.070775
0.0415967
0.0190168
0.035478
0.0416111
0.01334
0.0379242
0.00623935
0.0220319
0.0254671
0.0116431
0.0285486
-0.00823433
0.0340314
0.0285642
-0.00393387
0.0320837
0.0437491
0.00998085
0.014389
0.0397416
0.0325809
0.013547
0.047649
-0.00764908
0.0526496
0.043061
0.038459
0.0391251
0.0335797
-0.010502
0.0370516
0.0208259
-0.0112225
0.0359426
0.030748
0.0280249
0.00821242
-0.000862527
0.0346006
0.0345858
0.00522963
0.0400092
0.0270107
0.0127012
0.0265345
0.00729559
0.00772602
0.0262317
0.0454423
0.0441639
0.0165596
0.0126681
0.0248333
-0.00324873
0.00680706
0.00248009
0.00210593
0.00171307
0.00485659
0.00946763
0.00170309
0.0101991
-0.000161671
0.0187974
0.0215786
0.0120862
0.0167203
0.0164892
-0.00104379
-0.00045998
0.0167903
0.0124285
0.0132317
0.0339549
0.0343949
0.0165607
0.0134182
0.0187277
0.0142625
0.0366898
0.036786
0.0314059
0.0282821
0.0210144
0.0247783
0.0290214
0.0109372
0.014712
0.0222447
0.000427275
0.0330705
0.0390617
0.0322672
0.061458
-0.0196118
0.0564742
0.00345758
0.0374057
0.052075
0.0405246
0.0313255
0.0331305
0.028446
0.00113853
0.0323099
-0.0103111
0.0381903
0.0212339
-5.94731e-05
0.0470632
0.0441072
0.0426562
-0.0317179
0.0461817
0.0163435
0.035878
0.0343589
0.0343728
0.00340741
0.000259416
0.0382164
0.0332614
0.0253888
0.00742393
0.0277945
0.0119937
0.0181221
0.0391916
0.0419951
-0.000947071
0.0348771
0.0193656
0.0192917
0.000265633
0.0246563
0.0301996
0.0297644
0.027686
0.0240145
-0.0018538
0.0473809
0.0182955
0.0248944
0.0153349
0.000727203
0.0135735
-0.000859455
0.0105012
0.0101291
0.00362999
0.0038674
0.00799166
0.014101
-0.00292763
0.00208927
0.0168379
0.00248215
0.0191938
0.025375
0.0193013
0.0165089
0.0139947
0.0190194
0.0127401
0.021157
0.020329
0.0138972
0.0319173
0.0343506
0.0117887
0.0243461
0.0125528
0.023635
-8.21209e-05
0.0311226
-0.00422914
0.0318965
-0.0126205
0.0328145
-0.00829547
0.0321005
0.0199803
0.025217
-0.00167187
0.0234102
0.0282026
-0.0192254
0.0517168
0.0429155
0.0340859
0.0232442
0.030443
0.0061194
0.0289408
0.0226163
0.0271464
0.031901
0.00580975
0.0266724
0.033644
0.0178201
0.0137891
0.0158571
0.0216247
0.0386984
0.0286977
0.0214629
-0.000224846
0.0440452
0.0158549
0.0283802
0.0449524
-0.0343993
0.0508942
0.0524067
0.0328076
0.0408459
0.0398689
0.0366578
-0.0110458
0.0380482
0.0307681
0.0075038
0.0241967
0.0170395
0.0153774
0.0185046
0.0365778
0.00596262
0.0161513
0.0202554
0.00784034
0.00905902
0.0154744
0.00774681
0.0158387
0.00754817
0.0134275
0.0133183
0.0337691
0.0374717
0.0136989
0.00927751
-0.00651139
0.0159493
0.000902075
0.00323306
0.00307038
0.00210984
0.006089
-0.0011043
0.0179871
0.0181366
0.000804969
0.0245108
0.0200657
0.0153319
0.00149577
0.0128169
0.00193324
0.00364658
0.0153699
0.0265187
-0.00120815
0.0222301
0.0314609
0.00969934
0.0239345
0.0362854
-0.00555843
0.0287272
0.0251062
0.02952
0.00750188
0.0243018
0.00897191
0.0221881
-0.0157231
0.0349239
0.00885959
0.031537
-0.0019632
0.0294554
0.0107225
0.0410039
0.00794288
0.0351539
0.0428451
-0.019749
0.0438281
0.00135981
0.0281931
0.0343457
-0.0116427
0.0338092
0.0275372
0.0107088
0.0203271
0.0363868
0.0308726
0.0373157
0.0289182
-0.008391
0.0292701
0.0292564
-0.0121596
0.0419159
0.0520903
0.0314745
0.0264053
0.0193949
0.00897056
0.0421575
0.0336642
0.0222028
0.00979052
0.0218161
0.0181511
0.0137737
0.0250195
0.0248624
0.0124274
0.0246713
0.00202886
0.0279456
0.0309596
0.0315491
0.0397369
0.0181491
0.0169655
0.023739
0.0211291
0.0243395
0.0186031
-0.0018494
0.0124791
-0.00545568
0.0102874
0.00925111
0.0423858
0.0144827
0.0214137
0.0064863
0.000975981
0.00848867
0.0161387
-0.00164659
0.001555
0.00442004
0.000541341
0.00393613
0.00930998
0.00783561
0.0100551
0.00239629
0.0156407
0.0231293
0.0223673
0.0189889
0.0146346
-0.00834048
0.0110482
0.0230497
0.00456157
0.0215867
0.0264195
0.00709152
0.0238938
0.0306419
0.0304478
0.0132193
0.0223117
0.0144205
0.0136258
0.00252806
0.0221346
0.00141691
0.0272824
0.0339726
0.032115
-0.00587711
0.0272955
0.0281899
0.000262855
0.0304419
0.0299971
0.0458393
0.0291068
0.00592543
0.0377855
0.0231518
0.0205352
0.0286532
-0.00123242
0.0270316
0.00657138
0.0246251
0.00864248
-0.000357057
0.0356462
0.029592
0.0252117
0.0109106
0.0046284
0.0235409
0.0330506
0.0304337
0.0281774
0.0149336
0.0218207
0.0318904
-0.000679917
0.0330875
0.0259846
-0.00885812
0.0286228
0.0336214
-0.00328923
0.0380699
0.0307793
0.0310686
0.0365033
0.0373181
-0.0106998
0.0344262
0.0177969
0.00935594
0.00365197
0.0262113
0.0339863
0.0268524
0.0116311
0.0300056
0.0181387
0.00252443
0.00218343
0.0143825
0.000185023
0.0222148
0.0038844
0.00995335
0.00178856
0.00633914
0.00734693
0.00104396
0.00574991
0.00698391
0.0168178
0.0248072
0.0368099
-0.00378764
0.00967412
0.0041951
0.00685109
0.000507898
0.00111694
0.00255776
0.00168121
0.00214209
-0.00186346
0.0065953
0.0255214
0.000500819
0.0222978
0.0225183
0.0149554
0.00406367
0.0134481
0.00152219
0.00971844
0.00185056
0.0033535
0.0193984
0.00457237
0.0212766
0.0259336
0.00412991
0.0258208
0.00368131
0.0258912
0.035887
0.035085
0.0268233
0.0268837
0.00596898
0.0154963
0.0153024
0.0140304
0.0124227
0.0159913
0.0112789
0.0148938
0.0147636
0.00300347
0.0260241
0.0208248
0.0248272
0.0275221
0.00099833
0.029419
0.00590333
0.0321295
-0.0081562
0.0287976
0.0197991
0.00801162
0.025156
0.0304253
0.0354258
0.00914218
0.0252228
0.0315127
0.0329913
0.0334019
0.0112321
0.0205177
0.011509
0.0181623
-0.0064775
0.0354023
0.0372684
0.0298381
0.0256097
-0.0015762
0.028152
0.0275507
0.00794969
0.0256391
0.0306236
-0.000410387
0.0300498
0.0294844
0.0107148
0.0245749
0.0256102
0.00991543
0.0234109
0.0286049
0.0344452
0.00507367
0.0276629
0.0306782
0.0402895
0.0281434
0.0164464
0.0219442
0.0135269
0.00755747
0.000819595
0.000416249
-0.00168788
0.00703011
-0.00117111
0.00372651
0.000932331
0.0323525
0.0245028
0.0106718
0.00646836
0.00852529
-0.00288509
0.000761419
0.00279189
0.00272536
0.000427773
0.00640889
0.00109448
0.000434723
0.0245133
0.0262461
0.022484
0.018075
0.0175447
0.0115415
0.00881851
-0.00272051
0.0214768
0.0247899
0.0288508
0.00776465
0.0172596
0.0325363
0.00724073
0.0275521
0.00640074
0.0276705
0.0161296
0.0095711
0.0116768
0.0140525
0.0248363
0.0283854
0.0255542
0.0275596
0.0251875
0.0299851
0.0341534
0.026485
0.025455
-0.00852947
0.0381095
0.013446
0.0184501
0.0210429
-0.019182
0.0263233
0.00514826
0.0218794
0.00758829
0.0204718
0.013903
-0.00476898
0.0290236
0.0257851
0.0217242
0.00977662
0.0116415
0.020741
0.0282029
0.0310604
0.0175014
0.0174986
0.0036097
0.0344636
0.034435
0.000273016
0.0265248
0.02941
0.000184333
0.027541
0.0258335
0.0248396
0.00709218
0.0387807
0.0333484
0.0318829
-0.00834682
0.0305565
0.0060861
0.0213482
0.011663
0.0216927
0.00456849
0.0215615
0.0136376
0.016019
0.0125173
0.0265718
0.00086421
0.0240667
0.014965
-0.00304814
-0.000373166
0.0189077
0.00208258
0.00561756
0.00229647
0.000447738
-0.00307474
0.00459636
0.0028456
0.000121541
0.000212769
-0.0035921
0.0187701
0.0129375
0.0227642
0.0283226
0.00265504
-0.000297676
0.00094058
0.00234035
0.00466519
0.00169891
0.0212054
0.00501476
0.020463
0.0266507
-0.00282867
0.0206415
0.0144761
-0.00549623
0.0175708
0.00386229
0.00658966
0.0143566
0.0130797
0.0110286
0.0341887
0.0296426
0.0131632
0.0183171
-0.000257619
0.0269559
0.026548
-0.0152032
0.0280516
0.00863857
0.0135639
0.0137703
0.0140528
0.00971824
0.0126341
0.0137706
0.00718453
0.0170263
0.0357753
-0.00252402
0.0350949
0.0120863
0.0139369
0.0366596
0.0164271
0.0216392
0.0295298
0.0319075
-0.00879806
0.0303075
0.0223145
0.0024915
0.0260325
0.0269824
-0.0155934
0.0283149
0.0160263
0.0117535
0.0221909
0.0359911
0.0292287
0.0329503
0.00262799
0.0270097
-0.0137769
0.0310845
-0.00518716
0.024081
0.0211777
0.0193241
0.015108
0.0221199
0.021653
0.00853524
0.0140492
0.0137076
0.0155391
0.0101673
0.0169497
0.0275909
0.021094
0.0161295
0.0133418
0.0187778
0.0222905
0.00506069
0.0244153
0.0318044
0.0248148
0.0339128
0.027543
0.00738159
0.0179877
0.0204827
0.00611998
0.00487747
0.0123065
0.004004
0.00104481
-0.00849676
-0.00142166
0.00347218
-0.000215227
-0.00041412
0.00113466
0.000392404
-0.00315881
-0.000535025
-0.00673717
0.0279774
-0.00119784
0.0220562
0.0225055
0.0045479
0.00435311
0.0010744
-0.00078497
0.0064527
0.00189914
-0.000240287
0.0204447
0.0305307
0.0252683
0.0265151
-0.00472346
0.0191521
0.0128568
0.0112878
0.033748
0.0155914
0.0172981
0.00776088
0.0206944
0.027555
0.0250929
0.00907764
0.016947
0.0126584
0.012973
0.0155767
0.011209
0.0293124
0.0250773
0.0261829
0.023653
0.0294975
0.0151847
0.0186813
0.0120746
0.0211642
0.0199718
-0.00548371
0.0260564
0.0195734
0.00900063
0.00527014
0.0255612
0.0223664
0.00730735
-0.0196288
0.0208363
0.00538842
0.0211766
0.00433173
0.0169627
0.0104242
0.0326673
0.0162119
0.0183744
0.0303814
0.00233998
0.02916
0.0279569
0.00986728
0.022843
0.0160788
0.00939837
0.0358802
0.00545576
0.0176713
0.0279782
0.0228845
0.0238097
-0.00788578
0.0249996
0.0197921
0.0269276
0.0282617
0.0229339
0.0302318
0.0104346
0.0130543
0.00677272
0.0239372
0.0304684
0.0219733
0.0105399
0.0101227
0.0163265
0.0270502
0.00301079
0.0143059
0.00511736
-0.00375492
-0.00359245
0.0120922
-0.00145136
0.00124089
-0.00447437
-0.0014756
-0.00664987
-0.00759079
-0.011158
0.00102203
-0.00274362
0.0015424
-0.00173118
-0.0068147
-0.00432781
-0.00793881
0.0215083
0.00590167
0.0197786
0.0159775
0.0031868
0.025004
0.00101724
0.000533767
0.000316918
0.00365113
0.0153869
0.0135706
0.0385886
0.00842516
0.0167721
0.0123052
0.00642843
0.0111906
0.00170757
0.00873061
0.0031637
0.0161484
0.0155459
0.0288068
0.0326764
0.00706865
0.0192992
0.0308084
0.0289719
-0.0151955
0.0248338
0.0121958
0.0032892
0.0205323
0.0278361
-0.0087548
0.0305472
0.0182848
0.00949979
0.031514
0.0286943
-0.00505611
0.0249698
-0.00477045
0.0237238
0.0165245
0.0142996
0.0106
0.0237012
0.0217702
0.0198449
-0.00916259
0.0159357
0.0301594
-0.0110058
0.0252641
0.0201701
-0.0152728
0.0243409
0.0261917
-0.00960136
0.0242279
-0.00298158
0.0202662
0.0259926
0.0107615
0.0173341
0.0133741
0.0131094
0.0278769
0.00287121
0.0208046
0.0282854
0.0166056
0.0192874
0.0200867
0.00849465
-0.000295889
0.0233153
0.0235454
0.0155533
-0.00182297
0.0213213
0.0147334
0.0108007
0.0129261
0.0142263
0.0113933
0.0103114
0.013415
0.0154049
0.0226598
0.0234202
0.0030677
0.0195028
0.00421861
0.0248776
-0.000716042
0.020825
0.0257243
0.0116209
0.0139499
0.0159829
0.00783094
5.95125e-05
0.00442479
-0.00581435
-0.0176603
0.0111612
-0.0241032
-0.00646123
-0.000106449
-0.000156383
0.00145626
-0.000464885
0.000486559
-0.00433654
-0.00500988
-0.00512756
-0.0162615
0.0289848
0.0173758
0.000751442
0.0182486
0.0205288
0.0033734
0.00130339
0.000320093
0.00297396
0.00163906
0.013529
0.0229504
0.0196409
0.0307918
0.0172442
0.0105041
0.00687265
0.027
0.0181678
0.00890753
-0.00464519
0.0343317
0.0353667
0.023684
0.0105739
0.0171999
0.0144958
-0.0157665
0.025491
0.0282458
0.0192885
0.00634307
0.0185568
0.00968465
0.0166251
0.0129251
0.0097991
0.0171706
0.00978446
0.0137784
0.0073234
-0.00663029
0.0220635
-0.00837113
0.0180416
0.0212907
0.00111885
0.0201155
0.000383528
0.0189578
-0.000344872
0.0172544
-0.00175331
0.0120996
0.012708
-0.00561926
0.0246521
0.0175483
0.014948
-0.000694607
0.0235541
0.0185316
0.0157172
0.00869523
0.0231182
0.0191929
0.026854
0.0188849
0.0100621
0.0203647
0.0100802
0.011815
0.00857403
0.0209111
0.0175742
0.0293058
0.032056
0.0104049
0.00495238
0.0147639
0.00575919
0.0247763
0.0224994
0.0232911
0.0247962
0.00322355
0.0180578
0.025117
0.0226689
0.0221311
-0.00904513
0.0281191
0.0151158
0.0273332
0.00606513
0.00658389
0.0107727
-0.00167022
-0.00303573
-0.00393938
0.00414756
0.00094669
-0.0132789
-0.00666124
-0.0153245
-0.0131939
-0.0151573
0.00825981
-0.0202921
0.000115253
-0.00136184
0.00041248
-0.00344059
-0.00291945
-0.0117263
-0.00478016
-0.0154124
0.0204538
0.00798514
0.0196538
0.0185994
-0.00338418
0.0228763
0.00040833
0.002971
-0.00257654
0.0232887
-0.00385829
0.0224239
0.0196768
0.00808263
0.0124589
-0.00177525
0.012388
0.00520986
-0.0010887
0.0251173
0.024663
0.0288791
0.0129889
0.0198213
0.033636
-0.0154164
0.0273804
0.00760666
0.00163106
0.024936
0.0194332
0.0224612
-0.0117173
0.0196951
0.024625
-0.0123431
0.0233051
0.0252054
0.0272172
0.0247463
0.0102177
0.0128392
0.0185005
-0.00137525
0.0194825
0.0196934
0.0174243
0.00868178
-0.0156699
0.0253298
-0.0185593
0.0286588
0.00436852
0.020009
-0.00428872
0.0195032
0.00212547
0.0257728
0.00464034
0.0171732
0.0225926
0.00945077
0.0152537
0.00449612
0.0157257
0.0213206
0.0101044
0.0107366
0.022215
0.02689
0.00414032
0.0137754
0.0101821
0.0195306
0.0180525
0.0141136
-0.00461939
0.00930866
0.00967581
-0.00634126
0.0120214
0.0133595
0.00945263
0.00336481
0.0178384
0.0251224
0.0128677
0.0104056
0.028915
-0.00280157
0.025209
-0.00168008
0.0227703
-0.00346386
0.0239977
0.0208601
0.0051666
0.0103077
0.0153362
-0.00761925
0.0102623
0.00279077
-0.0017923
-0.00711138
-0.0103618
-0.0235086
-0.0236905
0.00760138
-0.0271508
-0.0296493
0.00419909
7.10724e-06
-0.000546696
0.000385577
-0.00275114
0.00152796
-0.00562986
-0.00326773
-0.00998532
0.000688751
-0.0184057
0.0255936
0.0185252
-0.000630766
0.00713646
0.0128548
0.0205732
0.00125422
-0.000229999
0.00089612
0.00249791
0.0197516
0.00185832
0.0183283
0.01936
0.0295403
-0.00438281
0.0160109
0.00748379
0.00644816
0.0331907
0.0170899
0.00794431
-0.0132347
0.0297755
0.0316234
-0.00285751
0.0135824
-0.0193184
0.0240147
0.0109265
0.0160518
0.00140178
0.0167574
0.00398026
0.0195112
-0.00188117
0.0173237
0.00554739
0.0126384
0.00929344
0.00513585
0.018198
0.0199815
0.00525561
0.0246544
-0.00212592
-0.00722202
0.0164448
0.0145852
-0.00248189
0.0124312
0.0262326
-0.00897483
0.0215842
-0.00333774
0.0254831
-0.00996448
-0.00913955
0.0166777
0.0105981
0.00347231
0.0223546
0.0179655
-3.41539e-05
0.0181458
0.0200967
0.0241237
0.0246764
0.0193957
-0.0117057
0.0245846
-0.00613452
0.0223752
0.0160041
0.0155487
0.0129423
0.00999532
0.017747
0.0098386
0.00722892
0.0243965
0.00182927
0.018233
-0.00029165
0.0104936
-0.00215987
0.00768993
0.00344695
0.0218916
0.0251921
0.019892
0.00080374
0.0245305
0.0226131
0.0179152
0.0152189
0.00699408
0.00552084
0.0134854
0.0185717
0.0189467
0.00518232
0.000530584
0.00293647
-0.00128193
-0.00532857
0.00274894
-0.015566
-0.0271701
0.0102633
0.00219399
-0.0293429
-0.00267405
-0.0239518
-0.0266557
-0.0280226
-0.0274497
-0.00108188
-0.00214183
-0.00525524
-0.00125289
-0.00994922
-0.0112753
-0.00112151
-0.0191528
0.0149087
0.0103228
0.0183478
0.0107909
-0.00709599
0.0172385
-0.00701534
0.015493
-0.00022411
0.00224925
0.000750026
0.0327113
0.00890577
0.00806136
0.00942908
0.00754547
0.0174075
0.00813732
0.00703336
0.00756676
-0.00317706
0.010522
0.00326951
0.0167817
0.0328251
0.0225772
0.0199103
-0.00869085
0.0216802
-7.1521e-05
0.0250619
0.0161174
0.0212511
0.0157018
0.0206281
0.0167472
-0.0114621
0.0191379
0.0216271
0.0214813
0.00847653
0.0215647
-0.006155
0.0178198
0.0219625
-0.0106837
0.0107763
0.0200155
0.0102731
-0.0128594
0.0210884
-0.0205828
0.02116
0.0276337
-0.00807603
0.0249821
-0.00957747
0.0182482
-0.00236901
0.0163467
0.00215724
0.010745
0.00396449
0.0186454
0.0215455
0.00758083
0.0155194
0.00804854
0.0149851
-0.00193627
0.017644
0.00423163
0.0113818
0.0110171
-0.00144628
0.0117189
0.020025
0.0181871
0.0117065
0.00156834
0.0229867
0.0199088
0.00891698
0.00479121
-0.0044935
0.0071402
-0.00157227
0.0212852
0.00601983
0.0169911
0.0235153
0.0369561
-0.0186151
0.0356467
0.01902
-0.00295507
0.0240215
-0.00991094
0.0213052
0.00668389
0.015461
-0.00531231
0.00229415
-0.00324345
-0.0079044
-0.0122801
-0.0349776
-0.0269356
-0.0406715
0.009692
0.0117738
-0.0431771
-0.0387913
0.00637874
5.47755e-05
-0.00143865
-0.00321986
0.000565944
-0.00537079
-0.00280138
-0.00799056
-0.0149722
0.00206732
-0.022139
-0.0067587
0.016837
0.015206
0.00176782
0.00238732
0.00674167
0.00639526
-0.00982623
0.0246003
-0.000455647
0.00567489
0.00152987
0.0208921
0.00670663
0.016472
0.0134432
0.0211857
0.0236866
-0.00345824
0.0102906
0.00652976
0.0220714
0.00369462
-0.0165681
0.0326883
0.0105948
-0.0238451
0.0208882
0.0112916
-0.0089488
0.0228654
0.0100286
0.0238828
-0.0111715
0.0192756
-0.000519251
-0.00390986
0.0191147
0.013552
0.0185287
0.00104547
0.0232891
-0.00428954
0.0125777
-0.0053025
0.00519432
0.00587152
-0.01958
0.0278596
-0.00207876
-0.0188477
0.0262073
0.0123676
-0.00172244
-0.00600629