/*--------------------------------*- C++ -*----------------------------------*\
| =========                 |                                                 |
| \\      /  F ield         | OpenFOAM: The Open Source CFD Toolbox           |
|  \\    /   O peration     | Version:  v2012                                 |
|   \\  /    A nd           | Website:  www.openfoam.com                      |
|    \\/     M anipulation  |                                                 |
\*---------------------------------------------------------------------------*/
FoamFile
{
    version     2.0;
    format      ascii;
    class       volVectorField;
    location    "2";
    object      ddtCorrDdt0(U);
}
// * * * * * * * * * * * * * * * * * * * * * * * * * * * * * * * * * * * * * //

dimensions      [0 1 -2 0 0 0 0];


internalField   nonuniform List<vector> 
11941
(
(1.67375e-05 2.78841e-05 -3.26082e-24)
(2.57626e-05 5.77977e-05 1.86969e-24)
(3.33433e-05 4.30851e-05 4.40362e-24)
(3.0693e-05 9.71661e-05 -3.15648e-26)
(8.80647e-06 2.73426e-05 0)
(3.53486e-05 0.000102647 -1.74141e-24)
(2.08148e-05 1.2271e-05 5.26745e-24)
(1.61625e-05 9.75167e-05 -1.18214e-25)
(3.80538e-05 0.000124607 1.58818e-24)
(1.27185e-05 7.07546e-05 2.25363e-24)
(5.59149e-05 0.000119332 0)
(3.88686e-05 3.66789e-05 -2.13742e-24)
(5.6197e-05 0.000217076 2.06076e-24)
(1.83288e-05 9.4059e-05 -3.15282e-24)
(6.77173e-05 0.000208095 0)
(2.2887e-06 3.33515e-05 -5.20469e-24)
(6.96464e-05 0.000137864 0)
(3.43312e-05 4.54372e-05 0)
(7.84345e-05 0.000265127 0)
(4.31419e-05 0.000229998 -1.04166e-24)
(2.40852e-05 0.000108411 2.98041e-24)
(0.000111564 0.000305388 0)
(-8.11285e-07 5.8145e-05 2.2647e-24)
(6.94048e-05 0.000124478 -3.92852e-24)
(0.000132524 0.000275498 0)
(3.78353e-05 7.51174e-06 0)
(0.000100756 0.000385304 0)
(5.00341e-05 0.000304747 1.22903e-24)
(1.13819e-05 0.00011053 -3.60198e-24)
(0.000144997 0.000393757 0)
(2.0859e-06 5.0247e-05 -1.55565e-24)
(7.66015e-05 0.000131207 1.23613e-24)
(0.000183476 0.000310686 0)
(4.31928e-05 6.47259e-05 -3.41477e-24)
(0.000106183 0.000450994 -3.98839e-25)
(7.81767e-05 0.000414165 -2.65025e-24)
(2.67088e-05 0.00028032 -2.45096e-24)
(6.45558e-06 0.000154121 3.87797e-24)
(0.000183243 0.000436872 5.1669e-24)
(-1.03795e-06 5.55356e-05 1.73168e-24)
(4.05707e-05 0.000108568 2.11549e-25)
(0.000135899 0.000233306 1.86764e-24)
(0.000221365 0.000352615 0)
(7.47674e-05 2.53076e-05 6.28141e-24)
(0.000134885 0.000502912 4.08468e-24)
(6.77045e-05 0.000487031 5.01584e-24)
(1.69219e-05 0.000341379 0)
(9.79808e-07 0.00013691 -5.43007e-25)
(0.000218529 0.000455871 4.81818e-25)
(0.000178106 0.000511388 0)
(-2.07432e-06 2.27801e-05 5.73967e-25)
(-2.4182e-06 8.92402e-05 2.42966e-25)
(6.31279e-05 0.000128922 0)
(0.000161713 0.000219086 3.35387e-25)
(0.000251734 0.0004303 -3.43957e-24)
(0.000264694 0.00032781 1.60807e-24)
(9.8924e-05 -3.24337e-05 -6.63058e-24)
(0.000119577 0.000566571 -2.04589e-24)
(7.20101e-05 0.000571377 -3.6286e-24)
(3.13982e-05 0.000442037 -1.93909e-24)
(-5.18907e-06 0.000286877 0)
(0.000231171 0.000479964 -4.1469e-24)
(0.000197428 0.000525185 9.57764e-24)
(-5.94244e-06 5.70652e-05 -6.48513e-25)
(-2.12012e-06 8.64112e-05 2.28122e-25)
(8.80858e-05 0.000121437 0)
(0.000200102 0.000233205 -3.3511e-25)
(0.000312535 0.000407977 5.0949e-24)
(0.000251712 0.000304622 -1.54156e-24)
(0.000318739 0.00037005 -7.08438e-24)
(7.38464e-05 -1.11827e-05 0)
(0.000164311 0.000590253 -3.31502e-24)
(5.72675e-05 0.000592007 2.91047e-24)
(1.26206e-06 0.000551046 0)
(-2.23991e-05 0.000321474 -6.38561e-25)
(0.000277009 0.000555098 6.85396e-24)
(0.000227438 0.000582035 -2.59707e-24)
(-1.16457e-05 4.69861e-05 1.55784e-26)
(-1.58923e-05 0.000147501 -4.60688e-25)
(0.000144243 0.000140997 0)
(0.000201749 0.00017819 0)
(0.000371593 0.0004922 -1.04871e-23)
(0.000298452 0.00024949 0)
(0.000377453 0.000312301 -4.17164e-25)
(9.93796e-05 5.06574e-05 2.54878e-24)
(0.000142447 0.000650157 5.13255e-24)
(1.18944e-05 0.000583703 0)
(7.46926e-05 0.000670557 -4.56431e-24)
(-4.20662e-05 0.000481602 3.85462e-25)
(-2.66278e-05 0.000361131 1.25658e-25)
(0.000265587 0.000573666 -7.41298e-24)
(-1.45169e-05 5.42466e-05 0)
(-1.54868e-05 0.00017568 -5.69518e-25)
(0.000127071 0.000129217 6.00811e-24)
(0.000255481 0.000185891 1.35237e-23)
(0.000444307 0.000496487 1.12311e-24)
(0.000364196 0.000264103 -6.28473e-24)
(0.00045509 0.000384679 1.16305e-23)
(0.000140872 -6.68348e-05 4.19192e-24)
(0.000199004 0.000690143 -2.5602e-24)
(-1.4465e-05 0.000646599 1.86004e-25)
(3.93759e-05 0.000671973 1.81583e-24)
(-9.95526e-05 0.000540806 2.12903e-25)
(-4.77112e-05 0.000334381 -7.74022e-25)
(0.000283418 0.00064 3.89666e-24)
(-1.18566e-05 3.48493e-05 0)
(-2.36628e-05 0.000120078 4.75597e-25)
(0.0001537 8.97228e-05 -6.53886e-24)
(0.000276413 0.000140446 -6.1672e-24)
(0.000468552 0.000543262 1.81002e-25)
(0.000395722 0.000184736 -1.70522e-25)
(0.000543451 0.000352679 -1.54487e-23)
(0.000116479 2.26749e-05 3.50185e-24)
(0.000175089 0.000781251 2.48021e-24)
(-7.10967e-05 0.00063929 4.46918e-26)
(2.26817e-05 0.000712135 0)
(-0.000104479 0.000592545 -2.92436e-25)
(-9.20863e-05 0.000478476 0)
(-6.16814e-05 0.000359657 6.20227e-25)
(0.000356694 0.000651505 -5.68127e-24)
(-2.4972e-05 5.31589e-05 6.89909e-25)
(-3.66225e-05 0.0001511 -1.54103e-24)
(9.49012e-05 6.09169e-05 -4.70469e-24)
(0.000230957 7.99174e-05 1.41452e-24)
(0.000346158 0.000124648 5.41717e-26)
(0.000584949 0.000565708 4.27193e-24)
(0.000413431 0.000632724 6.96143e-24)
(0.000468094 0.000172854 4.36791e-24)
(0.000531681 0.000247178 0)
(0.000627298 0.000403382 1.35092e-23)
(0.000165589 -0.000131264 -8.66507e-25)
(0.000265617 0.000859952 0)
(8.00427e-05 0.000817524 -9.16658e-25)
(-9.2111e-05 0.000702585 -9.33841e-25)
(-5.68136e-05 0.000721516 6.80259e-25)
(-0.000160232 0.000607919 1.88511e-24)
(-0.00013829 0.000489837 0)
(-6.55207e-05 0.000272439 -1.81188e-25)
(0.000400744 0.000840579 0)
(-3.52008e-05 0.000112939 4.28852e-24)
(-1.63767e-05 1.65522e-05 -6.29167e-25)
(0.000136735 2.75111e-05 -1.72174e-24)
(0.000252039 6.20583e-05 4.9314e-24)
(0.000376022 3.24961e-05 -3.30179e-26)
(0.00066155 0.000475655 -4.04235e-24)
(0.000568147 0.000666617 -2.72132e-24)
(0.000473159 0.000736573 0)
(0.000504904 4.71274e-05 1.40759e-23)
(0.000628457 0.000188901 0)
(0.000728523 0.000277862 5.65367e-24)
(9.69168e-05 -0.000151549 9.19177e-24)
(0.000225629 0.000951706 5.81886e-25)
(2.64806e-05 0.000888791 1.16648e-24)
(-0.000168488 0.000672513 4.26829e-25)
(-9.8503e-05 0.000851243 -1.70132e-24)
(-0.000202476 0.000598706 0)
(-0.000173556 0.000508653 0)
(-0.000118745 0.000396068 2.94953e-25)
(-9.23541e-05 0.000320607 -2.63615e-24)
(0.000468358 0.000810633 0)
(-3.87662e-05 0.000114081 -5.36128e-24)
(-2.79345e-05 6.27961e-05 2.4913e-24)
(0.000222326 4.21711e-05 -3.6802e-24)
(0.000254161 6.35833e-06 -5.76001e-24)
(0.000309124 -8.51593e-06 0)
(0.000469048 5.48757e-07 3.06318e-26)
(0.000779496 0.000502362 -6.04118e-24)
(0.000684261 0.000718911 -1.46237e-25)
(0.000635445 6.08795e-05 -1.14036e-23)
(0.000821503 0.000218375 6.77832e-24)
(6.53314e-05 0.000128548 -8.95115e-24)
(0.000308804 0.00107202 -1.49761e-24)
(7.74918e-05 0.000982644 2.17974e-25)
(-0.000242931 0.000685516 -2.06717e-24)
(-0.000167723 0.000882687 8.85718e-25)
(-0.000282758 0.000553421 0)
(-0.000226643 0.000465004 -4.15474e-24)
(-0.000173513 0.000390751 -3.40562e-24)
(-6.35399e-05 0.000196468 2.45241e-24)
(0.000563296 0.000939187 5.68994e-24)
(-4.82986e-05 6.55942e-05 3.28076e-24)
(0.00021932 -3.06898e-05 0)
(0.000230028 -4.52184e-05 8.67605e-24)
(0.000319949 -9.31332e-05 0)
(0.000483242 -6.50548e-05 -7.15315e-24)
(0.00077621 0.000639568 3.03017e-24)
(0.000885778 0.000392642 9.91785e-24)
(0.00072096 0.000890238 -6.96581e-24)
(0.00071862 -5.0404e-06 -1.46535e-23)
(0.000840492 5.57948e-06 1.42477e-23)
(0.000895586 0.000281649 -1.81447e-23)
(0.000331285 -0.000109151 4.48041e-24)
(9.56214e-05 9.98882e-05 7.35633e-24)
(0.000225829 0.00122705 1.03241e-24)
(0.000501127 0.00107139 -2.11044e-24)
(1.37497e-05 0.00108219 -7.20367e-25)
(-0.000330319 0.000608779 -1.9153e-25)
(-0.000254989 0.000802868 4.36556e-24)
(-0.000172093 0.000984384 -2.47964e-24)
(-0.000291846 0.000514453 1.17601e-25)
(-0.000222956 0.000425627 3.70684e-24)
(-0.000137207 0.000309995 4.15115e-24)
(-9.74465e-05 0.000247169 -9.26571e-25)
(-5.17286e-05 0.000102716 2.76578e-25)
(-3.54214e-05 6.78025e-06 -2.38304e-26)
(0.000221928 -3.06146e-05 -1.24575e-23)
(0.000243839 -0.000119338 0)
(0.00037732 -0.000137525 0)
(0.000556084 -0.000163795 0)
(0.00091092 0.000708121 -4.26369e-24)
(0.00101992 0.000443437 2.22497e-24)
(0.000872898 0.00102078 -5.47331e-24)
(0.000700144 -0.000110562 1.47219e-23)
(0.000924435 1.52501e-05 -1.51743e-23)
(0.000990061 0.000135743 1.03799e-23)
(0.00022681 -0.00038746 -1.13883e-23)
(-7.9781e-06 -5.11031e-05 0)
(0.000315123 0.00140555 2.16518e-25)
(8.76514e-05 0.0012261 5.83762e-25)
(0.000611398 0.00124651 -7.82431e-25)
(-7.98118e-05 0.00109703 0)
(-0.000409539 0.000642463 0)
(-0.000363892 0.00082946 -5.48504e-24)
(-0.000302601 0.00104445 2.67303e-24)
(-0.000344922 0.000463058 -4.30056e-24)
(-0.000249205 0.000401487 0)
(-0.000178587 0.000300356 0)
(-7.64323e-05 0.000153112 3.20717e-24)
(-6.33702e-05 0.000111136 -2.73724e-24)
(-2.88522e-05 2.84408e-05 4.931e-24)
(0.000159915 -0.000118011 8.30282e-24)
(0.00021659 -0.000151322 6.03626e-24)
(0.000378325 -0.000196805 0)
(0.000510918 -0.000274116 0)
(0.00102679 0.000581741 -8.3396e-24)
(0.00105396 0.000957627 8.64209e-24)
(0.00113789 0.000349077 -1.20918e-23)
(0.000835433 0.00118109 -2.30311e-24)
(0.000782421 -0.000299768 -8.48411e-24)
(0.00101525 -0.000109665 1.40554e-23)
(0.00112268 0.000194126 -1.04386e-23)
(0.000137235 -9.82175e-05 4.36173e-24)
(3.0401e-05 -3.3894e-05 0)
(0.000520703 0.00138997 -5.90515e-25)
(0.000224355 0.00157177 2.60593e-25)
(2.85424e-05 0.00135803 1.06403e-24)
(-0.000141679 0.00124199 -3.5828e-24)
(-0.000482246 0.000592076 -1.70863e-24)
(-0.000420709 0.000758664 0)
(-0.000390415 0.0010157 0)
(-0.000317543 0.00119521 0)
(-0.000299885 0.000385961 5.40755e-24)
(-0.000415147 0.000445109 0)
(-0.000211283 0.000336937 2.58566e-24)
(-0.000124528 0.000213612 -2.47269e-24)
(-7.52227e-05 0.000117628 -2.31615e-24)
(-2.5114e-05 5.8099e-06 0)
(0.000186001 -0.000179353 -6.57275e-24)
(0.000232349 -0.000206043 -7.11226e-24)
(0.000306772 -0.000238366 0)
(0.000406379 -0.000310239 0)
(0.000568241 -0.00037565 -5.94377e-24)
(0.00122055 0.000728466 8.77149e-24)
(0.00121797 0.000924351 -3.52738e-24)
(0.00129497 0.000427119 1.59975e-23)
(0.000978466 0.00131261 2.77984e-24)
(0.000943992 -0.000298049 -1.08565e-23)
(0.000694889 -0.00040263 1.54615e-23)
(0.00118361 -7.78626e-05 0)
(0.00123258 8.56212e-05 1.30767e-23)
(0.000226272 -0.00041494 4.53694e-24)
(0.000125484 -0.000129176 3.63967e-24)
(0.000650159 0.00156504 7.17704e-25)
(0.00029714 0.00172419 -3.72956e-25)
(9.39351e-05 0.00155929 6.50898e-25)
(-0.000102944 0.00135322 3.58161e-24)
(-0.000615035 0.00062268 2.92744e-24)
(-0.00046856 0.00049919 0)
(-0.00052813 0.000828423 -6.10879e-24)
(-0.000525744 0.000975737 0)
(-0.000441792 0.0012791 3.00682e-24)
(-0.00030731 0.000339033 0)
(-0.000417211 0.000320821 -1.52617e-23)
(-0.000214149 0.000311508 -2.53574e-24)
(-0.000136542 0.000186395 -2.45732e-24)
(-5.72948e-05 0.000109188 0)
(-4.70126e-05 5.69402e-05 0)
(0.000210856 -0.00022842 6.26678e-24)
(0.000192946 -0.000319637 9.75766e-25)
(0.000304534 -0.000361244 -5.81614e-24)
(0.000382359 -0.00037214 0)
(0.000474984 -0.000545434 -1.52053e-23)
(0.00140254 0.000655482 0)
(0.00133038 0.00104983 0)
(0.00142401 0.000298372 0)
(0.00087579 0.00150906 0)
(0.00119421 0.00127377 0)
(0.00102829 -0.000542451 -7.53888e-24)
(0.000707944 -0.000557434 1.90203e-23)
(0.00128541 -0.000299197 1.1219e-23)
(0.00139063 0.00016172 -1.4717e-23)
(2.56379e-05 -0.000296255 -1.02026e-23)
(0.000506786 0.00169708 0)
(0.000177476 0.00194712 2.01437e-24)
(-9.78373e-06 0.00164276 -2.43812e-24)
(-0.000192896 0.00152877 0)
(-0.000713559 0.000505056 0)
(-0.000648195 0.000779226 5.66612e-24)
(-0.000555177 0.000407739 5.60984e-24)
(-0.000627361 0.00101252 7.41791e-24)
(-0.000609992 0.00124483 -1.58913e-23)
(-0.000399328 0.00144343 0)
(-0.000256737 0.000302305 0)
(-0.000357326 0.000292703 9.40045e-24)
(-0.000504061 0.000312281 0)
(-0.000161518 0.000234046 2.46155e-24)
(-7.05726e-05 0.00012767 0)
(-7.2785e-05 -6.93009e-06 0)
(0.000190664 -0.000317477 -1.18734e-23)
(0.000246123 -0.000385387 4.47949e-24)
(0.000172903 -0.00032284 1.08795e-23)
(0.000379697 -0.000508144 3.98154e-24)
(0.000526543 -0.000617422 8.74386e-24)
(0.0015632 0.000670804 7.47028e-24)
(0.00159135 0.00104254 1.40419e-23)
(0.00163561 0.000492137 0)
(0.000993581 0.00178702 -5.23793e-25)
(0.00133374 0.00149172 3.22093e-25)
(0.000939422 -0.000674569 -2.13793e-25)
(0.00121356 -0.000510421 9.32323e-24)
(0.000759038 -0.000705896 -1.26922e-23)
(0.00147412 -0.000301049 9.3661e-24)
(0.00152984 1.9218e-05 -1.2816e-24)
(0.000100718 -5.37159e-05 -6.77467e-24)
(0.000599005 0.0019514 0)
(0.000299013 0.00204341 -2.0441e-24)
(4.10384e-05 0.00194038 0)
(-0.000121877 0.00163825 -4.77821e-25)
(-0.000838304 0.000571875 -9.13221e-24)
(-0.000671739 0.000435172 -4.67267e-24)
(-0.00077739 0.000735812 0)
(-0.000768719 0.000965109 5.54831e-24)
(-0.000757036 0.00122048 4.36502e-24)
(-0.000535457 0.00155546 0)
(-0.000247654 0.000257447 -3.53578e-24)
(-0.000360632 0.000233827 1.03576e-23)
(-0.000545477 0.000225951 4.22903e-24)
(-0.000148465 0.000195213 0)
(-6.95484e-05 0.00010716 0)
(-6.10726e-05 4.9277e-05 0)
(5.55014e-05 -0.000222359 7.79967e-24)
(0.000236579 -0.000468797 -3.79176e-24)
(0.000143633 -0.000412322 -1.81834e-24)
(0.000297162 -0.000541521 1.73129e-24)
(0.000477386 -0.000752733 0)
(0.00171207 0.000821282 -1.34625e-23)
(0.00169616 0.00122162 -1.16313e-23)
(0.001829 0.000320626 9.69565e-24)
(0.000833235 0.00198101 5.82023e-25)
(0.00123428 0.00179129 -3.17896e-25)
(0.0015691 0.00147539 0)
(0.00100832 -0.000883347 8.09661e-24)
(0.00135454 -0.000700804 2.67156e-25)
(0.000643531 -0.000808227 1.42985e-23)
(0.00166316 -0.000388402 -2.19153e-23)
(0.00174776 4.82302e-05 -1.24989e-23)
(0.000211342 -0.000595712 3.90262e-24)
(0.00024209 0.00230407 2.1015e-24)
(-0.000124931 0.00201557 -7.31742e-24)
(-0.000212818 0.00176919 4.29825e-24)
(-0.000982832 0.000471163 2.50789e-23)
(-0.000753196 0.000298674 0)
(-0.000838174 0.000830582 0)
(-0.000860144 0.00106402 -6.0246e-24)
(-0.000863439 0.00145468 -8.07386e-24)
(-0.000733432 0.00154443 0)
(-0.000447519 0.00169377 -3.63237e-24)
(-0.000294771 0.000207743 -4.37928e-24)
(-0.000192332 0.000202533 -3.29309e-24)
(-0.000402288 0.000184095 0)
(-0.000470817 0.000125009 0)
(-0.000675534 0.000123197 -5.15926e-24)
(-0.000107904 0.000119314 -6.1043e-24)
(-0.000101705 -3.24902e-05 -5.01462e-24)
(6.38768e-06 -0.000250229 0)
(0.000152894 -0.000492542 3.38256e-24)
(-1.38084e-06 -0.000331136 8.39535e-24)
(0.000271368 -0.000628306 -9.20861e-24)
(0.000404481 -0.00077743 -8.0112e-24)
(0.00198896 0.000876003 -2.60858e-24)
(0.00197456 0.00128711 1.93223e-23)
(0.00209228 0.00038166 -2.83337e-24)
(0.000894565 0.00232555 2.21673e-24)
(0.00140335 0.00204187 -2.76489e-24)
(0.00175321 0.00174329 0)
(0.000819569 -0.00105651 -8.12006e-24)
(0.00123497 -0.000901481 -3.45326e-23)
(0.00154116 -0.000676636 0)
(0.000669292 -0.000937744 -1.0866e-23)
(0.00188006 -0.000198307 0)
(0.00169627 -0.000488492 1.09413e-23)
(0.000145343 -0.000294464 -4.2735e-24)
(0.000525316 0.0025244 -2.88603e-24)
(2.00914e-05 0.0023863 3.89315e-24)
(-0.000248658 0.00209082 1.25595e-23)
(-0.00109662 0.000614465 -2.16966e-23)
(-0.00101158 0.00035647 -1.75055e-23)
(-0.000902287 0.000241501 8.98452e-24)
(-0.00102869 0.000787014 4.11402e-25)
(-0.00104066 0.00110766 -1.87563e-23)
(-0.00112502 0.00136421 2.03833e-23)
(-0.000844156 0.00169689 1.38177e-23)
(-0.000532547 0.00194105 -1.09011e-23)
(-0.000255237 0.000168635 0)
(-0.000173247 0.000153495 9.52759e-24)
(-0.000337135 0.000103444 -4.72785e-24)
(-0.0004721 3.9776e-05 -6.93001e-25)
(-0.000721355 0.000114679 0)
(-9.11731e-05 0.000104555 0)
(-8.02183e-05 4.47576e-05 0)
(0.00010959 -0.00052349 -2.1783e-24)
(-3.41032e-05 -0.000412273 -1.83236e-23)
(0.000157819 -0.000649842 -1.47989e-23)
(0.000262534 -0.000782671 8.59524e-24)
(0.000393281 -0.00100103 -8.87785e-24)
(0.00218797 0.000643965 -9.4802e-24)
(0.00211413 0.00113561 -1.57944e-23)
(0.00203978 0.001577 -4.48174e-24)
(0.00228009 3.94342e-05 6.89265e-24)
(0.00112904 0.00249204 -2.70422e-24)
(0.00138479 0.00237051 3.68049e-24)
(0.0017111 0.00197172 0)
(0.000822918 -0.00124787 2.54137e-24)
(0.00130298 -0.0011486 3.69272e-23)
(0.00164166 -0.000992855 2.522e-23)
(0.000489208 -0.00116593 0)
(0.00215726 -0.000166543 -2.6358e-25)
(0.00196328 -0.000625715 -7.85298e-24)
(0.000151275 -0.00079185 -6.41232e-24)
(0.000525963 0.00293386 1.42736e-24)
(-0.000227717 0.00227469 -1.09494e-23)
(7.18554e-06 0.00283382 0)
(-0.00127916 0.000579375 -9.28087e-24)
(-0.00115223 0.000225997 1.47869e-23)
(-0.000919273 -2.75682e-05 0)
(-0.00113064 0.000991845 2.19753e-23)
(-0.00129012 0.00150816 8.5076e-24)
(-0.0010332 0.00173087 -1.73237e-23)
(-0.000743285 0.00203687 1.32204e-23)
(-0.000273674 0.000112794 0)
(-0.00020222 0.000145768 0)
(-0.000358133 2.17497e-06 4.56651e-24)
(-0.000525717 -5.37687e-05 -8.52974e-24)
(-0.000805256 -6.75026e-05 0)
(-0.000629855 -9.15953e-05 2.80773e-23)
(-0.000129994 7.67451e-05 0)
(-0.000134062 -7.54269e-05 5.38044e-24)
(1.14138e-05 -0.000476716 1.7332e-23)
(0.000126763 -0.000600445 9.75594e-24)
(9.60429e-05 -0.000464625 1.19966e-23)
(0.000131323 -0.000773457 -4.53695e-24)
(0.000177173 -0.000829092 1.84014e-23)
(0.00023286 -0.00102762 1.65706e-23)
(0.00248641 0.000710571 1.51299e-23)
(0.00240913 0.00118484 1.44964e-24)
(0.00238441 0.0017845 0)
(0.00257541 6.97699e-05 -9.10771e-24)
(0.00106815 0.0028128 1.06388e-24)
(0.00168073 0.00257446 -5.85988e-25)
(0.00194736 0.00213585 4.08406e-24)
(0.000681131 -0.00156038 -2.14962e-24)
(0.00114206 -0.00131428 -7.72992e-24)
(0.00153947 -0.0011616 -1.84067e-23)
(0.00194151 -0.000901663 -1.64454e-23)
(0.000429263 -0.00129008 0)
(0.00223601 -0.000437362 -6.62163e-25)
(0.000230556 0.00306616 -3.73502e-24)
(0.000793358 0.00304032 -2.31761e-24)
(-0.000489189 0.00248103 0)
(-0.000434531 0.00286217 -4.59015e-24)
(-0.00143 0.000875677 -2.73467e-23)
(-0.00136271 0.000407576 2.20936e-23)
(-0.0010628 -7.92467e-05 -9.07774e-26)
(-0.0013157 0.000243781 -1.6166e-23)
(-0.00135264 0.000998932 9.18158e-24)
(-0.00125619 0.00166567 -1.46792e-23)
(-0.0015044 0.00129323 0)
(-0.00106102 0.00212835 5.21026e-24)
(-0.00081405 0.00222106 -1.99283e-23)
(-0.000234588 6.02928e-05 0)
(-0.00019846 7.37e-05 0)
(-0.000320167 -1.66949e-05 0)
(-0.000451574 -0.000139365 -9.74936e-25)
(-0.000743031 -0.000117665 3.01849e-23)
(-7.2325e-05 6.57244e-05 6.12048e-24)
(-9.45495e-05 3.24811e-05 -3.99143e-24)
(-6.44824e-05 -0.000556033 -8.30686e-24)
(2.68032e-05 -0.000658108 0)
(8.18838e-05 -0.00100331 -5.58556e-24)
(-5.44938e-06 -0.000778118 1.06766e-23)
(0.000140453 -0.000897564 -2.03007e-23)
(9.90389e-05 -0.00109999 3.91202e-24)
(0.00257613 0.000974692 2.30102e-23)
(0.00270466 0.000481493 -1.20473e-23)
(0.00261396 0.00159292 -2.42933e-24)
(0.00229572 0.00199058 -1.08902e-23)
(0.00281532 -0.00023985 -2.83272e-24)
(0.00135507 0.00302895 5.47068e-26)
(0.00166897 0.0028976 7.66593e-25)
(0.00193474 0.00249495 -4.1082e-24)
(0.000886472 -0.00178674 -5.77513e-24)
(0.000372614 -0.00156193 0)
(0.00113281 -0.00167299 -2.48602e-25)
(0.00165545 -0.00140177 7.45328e-24)
(0.00209969 -0.00126519 2.54714e-23)
(0.000277829 -0.00137426 0)
(0.00249817 -0.000641171 1.2757e-23)
(0.000125724 0.00334607 7.4721e-25)
(0.000812233 0.00346034 -3.43929e-24)
(-0.000759983 0.00247495 1.43755e-23)
(-0.000576761 0.00317044 1.31738e-23)
(-0.00165863 0.000752891 5.9643e-24)
(-0.00162681 0.000493805 0)
(-0.00114122 -0.000165686 2.35956e-23)
(-0.00141221 0.000103658 1.35836e-23)
(-0.00144563 0.00192578 0)
(-0.00172503 0.00131908 1.74355e-23)
(-0.00131486 0.00221732 -1.19514e-23)
(-0.000236527 2.74316e-05 8.68469e-25)
(-0.000259515 -1.9356e-05 -9.79027e-25)
(-0.000345413 -0.000112595 -1.23167e-24)
(-0.000467592 -0.000279576 0)
(-0.000761584 -0.000181295 -1.61605e-23)
(-0.00010704 8.27636e-05 -5.65906e-24)
(-0.000167185 -0.000137434 3.72504e-24)
(-2.58147e-05 -0.000569554 7.08725e-24)
(1.25681e-05 -0.000667267 6.14943e-24)
(0.000110962 -0.000539891 6.94523e-24)
(-1.1171e-05 -0.000766772 -4.9153e-24)
(4.33875e-05 -0.000893596 1.02392e-23)
(0.000118227 -0.00129876 8.32199e-24)
(-5.28372e-05 -0.00102155 -6.11013e-24)
(0.00288692 0.0010684 -1.32427e-23)
(0.0030501 0.000520932 6.56365e-24)
(0.00291354 0.00161138 0)
(0.00251389 0.00226345 1.20984e-23)
(0.00279531 -0.000516823 -1.57541e-23)
(0.00320931 0.000108641 3.18782e-24)
(0.00124987 0.00344891 -1.47095e-24)
(0.00199595 0.00316181 -8.70104e-25)
(0.00223811 0.00257964 1.12904e-23)
(0.000847664 -0.00204816 0)
(0.000345535 -0.00151272 0)
(0.00140566 -0.00170931 -1.61481e-23)
(0.00197451 -0.00144661 -1.50023e-23)
(0.00242056 -0.00109134 -1.46554e-23)
(0.000309995 0.00364479 1.19974e-23)
(-0.000328917 0.00346783 -2.41159e-23)
(0.000676078 0.00364803 2.66461e-24)
(-0.000958108 0.00271683 -1.49964e-23)
(-0.00094812 0.00316767 -8.60982e-24)
(-0.00191581 0.000871371 0)
(-0.00177586 0.00031291 -1.5183e-23)
(-0.00114419 -0.000318202 -2.19822e-23)
(-0.00133264 -8.98963e-05 0)
(-0.00165557 0.000119308 -1.60314e-23)
(-0.00171806 0.0018184 0)
(-0.00186605 0.00161444 0)
(-0.00191983 0.00106036 -1.86457e-23)
(-0.00143321 0.00249194 1.83465e-23)
(-0.000144372 6.26298e-05 0)
(-0.00022214 -0.000104611 0)
(-0.000297055 -0.000164347 -1.20338e-24)
(-0.000579044 -0.000337235 -2.60117e-24)
(-0.000356807 -0.000335202 7.67982e-24)
(-0.000870345 -0.000356385 -7.18231e-24)
(-0.000110842 -4.41419e-06 0)
(-3.46653e-05 -0.000665217 0)
(-1.07162e-05 -0.000722242 0)
(1.46991e-05 -0.00127624 -7.91742e-24)
(-5.45845e-05 -0.000807894 6.73721e-24)
(-2.10366e-05 -0.000745948 9.90378e-24)
(-2.27234e-05 -0.000867932 -4.61141e-24)
(-0.000130951 -0.00129391 0)
(-0.00011796 -0.000966282 -4.24718e-24)
(0.00306144 0.00139171 -2.09265e-24)
(0.00312469 0.000672352 -7.97292e-24)
(0.00304384 0.0019704 1.86872e-24)
(0.00286755 0.00223929 0)
(0.00313236 -0.000772373 2.62658e-23)
(0.00353625 -6.52937e-05 7.23376e-24)
(0.0014606 0.00361221 0)
(0.00190719 0.00342606 0)
(0.00234057 0.00295544 -9.97037e-24)
(0.000510332 -0.00204174 0)
(0.00120467 -0.0022494 -9.78822e-24)
(0.000169197 -0.00173096 -1.1255e-23)
(0.00160025 -0.00190408 2.26329e-23)
(0.00199825 -0.00177957 1.41128e-23)
(0.00270671 -0.00130108 2.04363e-23)
(9.50755e-05 0.00389352 -7.90955e-24)
(-0.000564468 0.00375996 7.38757e-24)
(0.000808852 0.00407906 4.05598e-24)
(-0.00125386 0.00269304 6.72648e-24)
(-0.00115512 0.00327269 8.98174e-24)
(-0.00216243 0.000550548 0)
(-0.00209942 0.000228386 1.45277e-23)
(-0.001333 -0.000401503 0)
(-0.00102485 -0.000403138 0)
(-0.00148969 -0.000197821 0)
(-0.00170647 -4.95916e-05 1.93563e-23)
(-0.00192737 0.00210745 0)
(-0.00214709 0.0014666 4.40827e-24)
(-0.00217405 0.0011676 -3.8316e-24)
(-0.00176574 0.00246962 -1.91667e-23)
(-0.000107221 -3.4588e-05 0)
(-0.000241431 -0.000150334 -7.27246e-24)
(-0.000292752 -0.000241045 0)
(-0.000569465 -0.000501762 -9.19402e-24)
(-0.000318757 -0.000414311 -1.49625e-23)
(-0.000743005 -0.000549381 0)
(-0.000186031 -0.000193329 0)
(-7.26079e-05 -0.000627208 0)
(3.38934e-05 -0.000632434 0)
(-9.38956e-05 -0.000801278 -6.94559e-24)
(-6.02029e-05 -0.000726466 -1.03441e-23)
(-0.000103355 -0.000901031 -4.43772e-24)
(-0.000245876 -0.0011875 6.45749e-24)
(-0.00016982 -0.00162724 1.09766e-23)
(-0.000234728 -0.0010124 0)
(0.0034159 0.0013391 9.73806e-24)
(0.00350574 0.000908443 2.23757e-24)
(0.00346329 0.00193234 2.14727e-23)
(0.00300691 0.00268313 -1.16276e-24)
(0.00354434 -0.000569189 -3.78598e-24)
(0.00305637 -0.00115142 0)
(0.00373615 0.000147336 1.88334e-23)
(0.00144363 0.00408609 -2.44018e-24)
(0.0021776 0.00367662 -1.63283e-24)
(0.00274409 0.00305494 -6.48159e-24)
(0.000220703 -0.00188438 -1.00154e-23)
(0.000477133 -0.00239563 0)
(0.00152418 -0.00216929 -1.03608e-23)
(0.00114863 -0.00254151 1.39973e-23)
(0.00230699 -0.00188465 1.46654e-23)
(0.00265638 -0.00170829 -3.27125e-24)
(0.000272931 0.0043399 -6.0324e-24)
(-0.000337537 0.00394853 9.36603e-24)
(-0.000964695 0.00374237 1.33921e-23)
(0.00118445 0.00423466 0)
(0.000494959 0.00440335 -5.29953e-24)
(-0.00140627 0.00305913 2.46127e-23)
(-0.00124816 0.00350074 -2.66037e-23)
(-0.00252643 0.000548011 1.10434e-23)
(-0.00218551 0.000131384 -1.00906e-23)
(-0.00150387 -0.000292556 -1.417e-23)
(-0.00139068 -0.000662878 -1.01312e-23)
(-0.00101733 -0.000673349 1.1179e-23)
(-0.0019392 -8.2208e-05 -4.19477e-23)
(-0.00231994 0.00194695 0)
(-0.00237607 0.00164228 1.0122e-23)
(-0.00246984 0.000983908 -1.58744e-23)
(-0.00197772 0.00264023 2.23455e-23)
(-7.30521e-05 -5.14537e-05 -4.11891e-24)
(-0.000200649 -0.000204188 0)
(-0.000198032 -0.000271585 0)
(-0.000473122 -0.000564386 -4.68178e-24)
(-0.00035345 -0.000532652 1.6656e-23)
(-0.000192202 -0.000437199 -1.55224e-23)
(-0.000769611 -0.000669763 0)
(-0.000153743 -6.87088e-05 0)
(-8.2252e-05 -0.000683912 4.10659e-24)
(5.42548e-06 -0.00133333 8.23344e-24)
(-0.000154986 -0.000775017 -1.84045e-24)
(-8.06598e-05 -0.000785348 -7.67716e-24)
(-0.0001459 -0.000835313 2.76019e-24)
(-0.000483784 -0.00117148 -6.87296e-24)
(-0.00044988 -0.00167711 0)
(-0.000335747 -0.000915886 0)
(0.00361278 0.00152646 -2.06199e-23)
(0.00379021 0.000654152 -3.91124e-23)
(0.00376793 0.00248692 -1.13725e-23)
(0.00351883 0.0027576 1.05939e-23)
(0.00385988 -0.000869112 -1.04425e-23)
(0.0034029 -0.00139982 -7.99403e-24)
(0.00407416 -0.000201162 -5.81123e-24)
(0.00183338 0.00413992 4.31835e-24)
(0.00254619 0.00379629 0)
(0.00286814 0.00354083 7.27932e-24)
(-5.31667e-05 -0.00217442 1.19563e-23)
(0.000778693 -0.00261211 0)
(0.000129169 -0.00248262 -8.8295e-24)
(0.00187909 -0.00240443 0)
(0.00136292 -0.00290522 -8.51821e-24)
(0.00222456 -0.00233012 0)
(0.00295583 -0.00196707 -3.69368e-23)
(-0.000173658 0.00449533 1.53452e-23)
(-0.000512031 0.00434959 -3.83999e-24)
(-0.00118706 0.00405374 -1.9066e-23)
(0.00123427 0.00465522 9.20941e-25)
(0.000482824 0.00488829 5.71536e-25)
(-0.00182903 0.00294499 -2.40247e-23)
(-0.00169335 0.00360975 3.23087e-23)
(-0.00273901 0.000415683 5.36393e-25)
(-0.00237083 -6.92845e-05 -5.04712e-23)
(-0.00170581 -0.000463794 1.54761e-23)
(-0.00127741 -0.000793792 1.64881e-23)
(-0.00164587 -0.000634449 8.01848e-25)
(-0.000891141 -0.000792009 -1.15356e-23)
(-0.00194607 -0.000356494 1.7948e-23)
(-0.00252543 0.00227161 0)
(-0.00271585 0.001512 1.29298e-23)
(-0.00275148 0.00123931 1.00372e-23)
(-0.00231857 0.00261102 0)
(-0.000135376 -6.02414e-05 8.80668e-24)
(-0.000175929 -0.000167374 -2.27122e-24)
(-0.000177293 -0.000315556 6.72288e-24)
(-0.00046408 -0.00071198 2.37199e-25)
(-0.000258849 -0.00061707 4.35156e-24)
(-0.000158322 -0.00048398 -2.38661e-24)
(-0.000635279 -0.0007481 -8.46091e-24)
(-0.000192153 -0.000330534 8.47567e-25)
(-0.000111307 -0.000593508 -3.71289e-24)
(-6.07296e-05 -0.000672688 -1.29887e-23)
(-0.00014063 -0.000733534 5.05471e-24)
(-0.000144764 -0.000709627 0)
(-0.00024455 -0.000821288 0)
(-0.000589042 -0.000992521 0)
(-0.000575769 -0.00143868 -7.63584e-24)
(-0.000526067 -0.00189596 -2.28256e-23)
(-0.000464605 -0.000867531 0)
(0.0040543 0.00159292 3.5919e-24)
(0.00421471 0.00083175 2.53995e-23)
(0.00424178 0.00227659 2.85199e-23)
(0.00371632 0.00316103 -1.48004e-23)
(0.00410455 -0.00066964 2.88159e-23)
(0.00381032 -0.00128143 2.12339e-23)
(0.00326308 -0.00184066 3.17272e-23)
(0.0044362 3.69092e-05 -1.94331e-23)
(0.00206395 0.0044957 6.4237e-24)
(0.00256215 0.00416846 -4.81092e-24)
(0.00332934 0.00370718 0)
(-0.000365403 -0.002173 2.00453e-23)
(0.000594311 -0.0030931 -3.66701e-24)
(-0.000101115 -0.00295875 6.1605e-24)
(0.00166992 -0.00285004 0)
(0.00098339 -0.00330247 8.28725e-24)
(0.00248789 -0.00262475 2.27665e-23)
(0.00282788 -0.00247005 -1.22892e-23)
(-0.00026652 0.00503179 0)
(-0.000970309 0.00430296 1.80327e-23)
(-0.00177208 0.00389348 -1.89308e-23)
(0.00160595 0.00498535 2.17426e-25)
(0.000857566 0.00506114 -1.38235e-24)
(7.35469e-05 0.00519369 0)
(-0.00198638 0.00336018 0)
(-0.00305754 0.000664193 0)
(-0.00278017 0.000182495 0)
(-0.00259722 -5.3852e-05 5.71207e-23)
(-0.00224503 -0.000391105 1.99543e-23)
(-0.0012555 -0.000996396 -5.78462e-24)
(-0.0017877 -0.000807034 -1.43061e-23)
(-0.00080504 -0.000963755 -1.33125e-24)
(-0.00291071 0.00216382 0)
(-0.00301118 0.00180997 -2.80914e-23)
(-0.0030831 0.000990538 -1.10351e-23)
(-0.0025403 0.00284031 -2.19346e-23)
(-6.69249e-05 -0.000290991 -7.36262e-24)
(-0.000117365 -0.000145875 0)
(-0.0001044 -0.000309684 7.48072e-24)
(-0.000369433 -0.000762125 8.96665e-24)
(-0.000152053 -0.000593386 1.18959e-23)
(-0.000246048 -0.000736392 2.54348e-24)
(-0.000117523 -0.000489221 1.80022e-24)
(-0.000593672 -0.000924885 1.2497e-24)
(-0.000101026 -0.0011899 3.29849e-24)
(-7.95962e-05 -0.00069101 4.63818e-24)
(-0.000213011 -0.000688062 1.69436e-24)
(-0.000125489 -0.000647855 0)
(-0.000263017 -0.000755258 1.86826e-24)
(-0.000769578 -0.000909558 4.18029e-24)
(-0.000860082 -0.00127659 1.26165e-23)
(-0.000981873 -0.00197121 -2.60514e-25)
(-0.000477398 -0.000783952 0)
(0.00432585 0.00126303 0)
(0.00454738 0.000502764 0)
(0.00469851 0.00243883 -3.56393e-23)
(0.00427271 0.00344015 0)
(0.00448092 -0.000873926 -3.90342e-23)
(0.0041339 -0.00149712 7.05666e-24)
(0.00369959 -0.00208447 -6.34184e-23)
(0.00489039 -0.00046744 1.26612e-23)
(0.00195588 0.00496597 0)
(0.00294784 0.00473578 0)
(0.00348222 0.00421084 0)
(-0.000653696 -0.00256874 0)
(0.00016286 -0.00324804 8.23874e-24)
(-0.000548211 -0.0029078 -5.22158e-24)
(0.00192589 -0.00331917 1.90137e-23)
(0.0011526 -0.00379365 0)
(0.0023029 -0.00322234 -1.99453e-23)
(0.00319247 -0.00279632 -7.57849e-24)
(-0.000788151 0.00504819 0)
(-0.00116603 0.00463654 -1.33382e-23)
(-0.00199224 0.00413495 0)
(0.00150704 0.00556224 1.53474e-25)
(0.00094675 0.00563385 6.72959e-24)
(6.43092e-05 0.00581136 -1.00906e-23)
(-0.00247784 0.00332649 0)
(-0.00332681 0.000384866 1.30668e-23)
(-0.00322235 0.000233654 -4.269e-23)
(-0.0027299 -0.00035684 -8.59242e-24)