/*--------------------------------*- C++ -*----------------------------------*\
| =========                 |                                                 |
| \\      /  F ield         | OpenFOAM: The Open Source CFD Toolbox           |
|  \\    /   O peration     | Version:  v2012                                 |
|   \\  /    A nd           | Website:  www.openfoam.com                      |
|    \\/     M anipulation  |                                                 |
\*---------------------------------------------------------------------------*/
FoamFile
{
    version     2.0;
    format      ascii;
    class       volScalarField;
    location    "2";
    object      p;
}
// * * * * * * * * * * * * * * * * * * * * * * * * * * * * * * * * * * * * * //

dimensions      [0 2 -2 0 0 0 0];


internalField   nonuniform List<scalar> 
11941
(
-0.00101476
-0.000772568
-0.00121786
-0.000767104
-0.000519042
-0.00120057
-0.00146911
-0.000539537
-0.00100888
-0.000288441
-0.00142677
-0.00158588
-0.000526977
-0.000304394
-0.00103936
-3.96885e-05
-0.00156497
-0.00176817
-0.000760074
-0.000217271
-0.000114572
-0.00128605
0.000193666
-0.00178655
-0.00156283
-0.00195253
-0.000764908
-6.86036e-05
0.000159065
-0.00119327
0.000449683
-0.00197139
-0.00189017
-0.00215555
-0.000535787
-0.000198194
0.000241149
0.000343516
-0.00131818
0.000690352
-0.00209369
-0.00204275
-0.0019948
-0.00240713
-0.000639086
9.3414e-05
0.00050573
0.000580449
-0.00160164
-0.000982544
0.000913948
0.000719892
-0.00225459
-0.00231829
-0.00184603
-0.00234837
-0.00272808
-0.000390165
2.76802e-06
0.000501142
0.000747056
-0.00150963
-0.00109033
0.00111545
0.0010406
-0.00239145
-0.00251595
-0.00215827
-0.00254603
-0.00249489
-0.00260897
-0.000569427
0.000287716
0.000791489
0.000994981
-0.00174584
-0.000982895
0.00138239
0.00116003
-0.00265268
-0.00273708
-0.00222796
-0.00289088
-0.00294918
-0.00272723
-0.000310786
0.000711955
0.000200262
0.00114417
0.00117581
-0.00133284
0.0015928
0.00139254
-0.00271521
-0.00292831
-0.00264546
-0.00314355
-0.00317325
-0.00302963
-0.000558012
0.000941566
0.000618967
0.00157945
0.00146162
-0.0013141
0.00181952
0.0015806
-0.00289628
-0.00319552
-0.002664
-0.00352334
-0.0036736
-0.00296213
-0.00026172
0.00136276
0.000715653
0.00166092
0.00182673
0.0017172
-0.00166997
0.00201505
0.00182276
-0.00274008
-0.00319785
-0.00349169
-0.00324887
-0.00218812
-0.00381253
-0.00384968
-0.00397282
-0.00342141
-0.000701953
0.000368993
0.00160063
0.00138899
0.00207086
0.00217239
0.00189122
-0.00136578
0.00199178
0.00224963
-0.00288665
-0.00336903
-0.00378615
-0.00390425
-0.00309423
-0.00241281
-0.00424176
-0.00435943
-0.00465166
-0.00307982
-0.000303133
0.000798483
0.00211201
0.00159015
0.0023763
0.00239862
0.00228751
0.00215958
-0.00192587
0.00222111
0.0023813
-0.00322643
-0.00353772
-0.00372056
-0.00419965
-0.00449939
-0.003504
-0.00472464
-0.00520577
-0.00296341
-0.0006674
0.000666741
0.00255439
0.00215439
0.00294302
0.0027546
0.00257209
0.00230237
-0.00211597
0.00251962
-0.00332201
-0.00351553
-0.00398132
-0.00453086
-0.0042019
-0.00524893
-0.00316285
-0.00532112
-0.00564935
-0.00542989
-0.00379941
-0.00303526
-1.30743e-05
-0.00157421
0.00121926
0.00316241
0.00260331
0.00224321
0.00306281
0.00280231
0.00261194
0.00247925
0.00259104
0.00260785
-0.00335214
-0.00372779
-0.00431299
-0.00502159
-0.00468465
-0.00578783
-0.00372311
-0.00548315
-0.0062605
-0.00619672
-0.00398486
-0.00289823
-0.000345016
0.000851792
-0.00200565
0.00185416
0.00361784
0.00323245
0.00302185
0.00348107
0.00307618
0.00282081
0.00257528
0.00274522
0.00279707
-0.00338829
-0.003758
-0.00443398
-0.00512314
-0.00548975
-0.00463621
-0.00657047
-0.00316856
-0.00621412
-0.00687855
-0.00679801
-0.00301368
-0.00254963
-0.00133754
0.000378866
0.00142964
0.00236877
0.00401317
0.00366764
0.00344077
0.00328726
0.00335394
0.0038448
0.00303461
0.00280371
0.00290659
0.00302748
-0.00361166
-0.00395124
-0.00423625
-0.00479171
-0.00557314
-0.00626269
-0.0054485
-0.00715271
-0.00375218
-0.00685802
-0.00608088
-0.00765792
-0.00759023
-0.00407163
-0.0028922
-0.00169794
0.000208878
0.00124528
0.00231197
0.00458377
0.00403873
0.0042276
0.00429099
0.00398915
0.00354109
0.00403795
0.00319668
0.00296959
0.00298159
0.00304767
-0.00347496
-0.00385502
-0.00439062
-0.00475132
-0.00549291
-0.00722985
-0.00583164
-0.00797878
-0.00280093
-0.00491061
-0.00758924
-0.00649765
-0.00841574
-0.00825003
-0.00289511
-0.000744847
0.00117619
0.0020508
0.00300066
0.00514087
0.00473079
0.00458036
0.00473697
0.00457679
0.00394875
0.00341798
0.00386457
0.00440682
0.00314069
0.00313541
0.00336123
-0.00347781
-0.00417115
-0.00361125
-0.00508108
-0.00584633
-0.00798516
-0.00725813
-0.00890721
-0.00310263
-0.00531365
-0.00756643
-0.00839791
-0.00707332
-0.00923815
-0.00904461
-0.00296426
-0.00080832
0.00109033
0.00204226
0.00280721
0.00571647
0.00508849
0.00544064
0.00535673
0.00540194
0.00474116
0.00350891
0.00394423
0.00472055
0.00324156
0.00316437
0.00327714
-0.00312681
-0.00426052
-0.00359185
-0.00473101
-0.00601207
-0.00832538
-0.00754399
-0.0100952
-0.00173281
-0.00444257
-0.00663888
-0.00830116
-0.00929993
-0.00686404
-0.0101625
-0.00986413
-0.00382332
0.00176779
0.00316374
0.00341651
0.00637241
0.00551271
0.00579096
0.00583521
0.00584098
0.00562674
0.00437571
0.00372353
0.00340224
0.00420584
0.00450859
0.00523972
0.00332579
0.0036156
-0.00289588
-0.00386036
-0.00312729
-0.00479073
-0.00572636
-0.00990736
-0.00888774
-0.010986
-0.00154027
-0.00483086
-0.00715282
-0.00809801
-0.00915859
-0.0101604
-0.00729189
-0.0107309
-0.0106177
-0.00302916
0.000522928
0.00302306
0.00388808
0.00695496
0.00648967
0.00609325
0.00658922
0.00665043
0.00705934
0.00629985
0.00506251
0.00369957
0.00345613
0.00405347
0.00459981
0.00538671
0.00327671
0.0034427
-0.00375551
-0.00287861
-0.00432379
-0.00525189
-0.00610975
-0.0111226
-0.0101179
-0.00887792
-0.0122382
-0.00266562
-0.00412128
-0.00669113
-0.00859663
-0.00983161
-0.0108287
-0.00690992
-0.0118764
-0.0117707
-0.00368978
0.00115974
0.00400317
0.00356566
0.00768457
0.00713119
0.00636308
0.00713187
0.00796019
0.00724581
0.00604564
0.00386073
0.0035755
0.00421316
0.00496784
0.00599355
0.00530105
0.00341608
0.00387471
-0.00325863
-0.00394535
-0.00273626
-0.00435381
-0.00491005
-0.00557392
-0.0126474
-0.0114745
-0.0104374
-0.0135695
-0.00178988
-0.00543162
-0.00773523
-0.00831133
-0.00955438
-0.0107745
-0.0120728
-0.00734032
-0.01273
0.00301907
0.000111419
0.00557722
0.00563548
0.00826619
0.00793166
0.00685356
0.00774386
0.00806402
0.00811228
0.00875124
0.00777718
0.00674236
0.00375486
0.00361759
0.0041398
0.00473349
0.00569337
0.00325493
0.00357182
-0.00313642
-0.00362083
-0.00341314
-0.0039681
-0.00509463
-0.00564482
-0.0127782
-0.0138242
-0.0120073
-0.00959573
-0.014682
-0.00286424
-0.00482554
-0.00719862
-0.00952895
-0.00776716
-0.0101298
-0.011538
-0.0130409
-0.00692521
-0.0141033
0.00439011
0.000704276
0.00692098
0.00699599
0.00921457
0.00878202
0.0072095
0.00812816
0.00915424
0.00975103
0.00912588
0.00379578
0.00391675
0.00433568
0.00493777
0.00585675
0.00330322
0.00412401
-0.00265246
-0.00366595
-0.00264003
-0.0038427
-0.00474963
-0.00602037
-0.00504478
-0.0143723
-0.0155438
-0.013513
-0.0107914
-0.0151792
-0.016512
-0.00181652
-0.00622776
-0.00852276
-0.00975302
-0.00755239
-0.0110793
-0.0127552
-0.0142522
0.00394047
0.00688923
0.00232612
0.00825537
0.00831947
0.0100647
0.00931634
0.00729697
0.00793388
0.00882158
0.0101548
0.0102617
0.010209
0.0098723
0.00350153
0.00381545
0.00412111
0.0053631
0.00451277
0.00648039
0.00359464
-0.0028615
-0.0033411
-0.0037602
-0.00395454
-0.0034655
-0.00430679
-0.00586335
-0.00467113
-0.0148734
-0.0160099
-0.0141072
-0.0126921
-0.0167605
-0.0182589
-0.00250012
-0.00527512
-0.00865471
-0.008988
-0.0108383
-0.00759863
-0.0118131
-0.0133257
-0.0155247
0.00607436
0.00849435
0.00220308
0.0094085
0.0100975
0.0108935
0.0103212
0.00806172
0.00700524
0.00850075
0.00920461
0.0112503
0.0115059
0.011326
0.0111692
0.00341754
0.00393285
0.00418451
0.00542817
0.00442745
0.00600954
0.00394958
-0.00252944
-0.00263187
-0.00348286
-0.0032098
-0.00422702
-0.00517988
-0.00636752
-0.00474747
-0.0170319
-0.0182402
-0.0163435
-0.0132461
-0.0184384
-0.0170379
-0.0197185
-0.00129549
-0.00649142
-0.0106811
-0.00820598
-0.00940163
-0.0118218
-0.0110356
-0.0142832
-0.0155384
0.00626748
0.00790617
0.0101402
0.000411001
0.00508305
0.0106868
0.0109018
0.0120097
0.0106209
0.00858133
0.00829371
0.007248
0.00986908
0.0125928
0.0125742
0.0122211
0.012363
0.00310345
0.00381376
0.00383814
0.0051362
0.00472521
0.00400861
0.00624316
0.00352829
-0.002749
-0.00407693
-0.00349434
-0.00321957
-0.00382333
-0.00495221
-0.00608749
-0.00410374
-0.0180622
-0.0201801
-0.0178955
-0.0159706
-0.0202112
-0.0186746
-0.0215787
-0.00352534
-0.00853923
-0.01071
-0.00784641
-0.0102597
-0.00868407
-0.01305
-0.0118759
-0.0143734
-0.0170052
0.00917157
0.00972545
0.0117665
0.00128258
0.00606877
0.0123222
0.0131599
0.0126138
0.011404
0.00927156
0.00789117
0.009155
0.00678932
0.00988976
0.0137885
0.013651
0.013418
0.0136929
0.00313376
0.00352354
0.00374822
0.00536748
0.00442959
0.00381873
0.00590193
0.00412602
-0.00243873
-0.00264187
-0.00313804
-0.00271587
-0.00377112
-0.00419313
-0.00531449
-0.0065132
-0.00389932
-0.0204925
-0.0222465
-0.0210359
-0.016557
-0.0219329
-0.0203653
-0.0186958
-0.0236435
-0.00380502
-0.0077602
-0.0131629
-0.0072077
-0.0103498
-0.00872716
-0.0130107
-0.0116648
-0.0155119
-0.0169805
0.0107267
0.0118271
0.0143998
-0.000293421
0.0041989
0.00915525
0.0139134
0.0136438
0.012529
0.0121322
0.0105883
0.00813868
0.0095519
0.00686946
0.0151167
0.0148584
0.0143032
0.0148695
0.00329336
0.00318686
0.00345385
0.00507453
0.00399594
0.00460752
0.00348872
0.006142
-0.00383815
-0.00281754
-0.00307983
-0.00240727
-0.00335512
-0.00394657
-0.00501035
-0.00603997
-0.00337372
-0.0225352
-0.0244128
-0.0232349
-0.0196553
-0.0239771
-0.0219556
-0.0203495
-0.0258494
-0.00267712
-0.00904305
-0.0133344
-0.00739707
-0.00965719
-0.00799793
-0.0139054
-0.0119774
-0.0152877
-0.0184644
0.0135358
0.0135895
0.0161212
0.00192003
0.00512447
0.0104666
0.0154568
0.0144508
0.0135659
0.0124523
0.0108293
0.00772581
0.00873987
0.0102913
0.00924456
0.00720796
0.016536
0.0160341
0.0156099
0.0162877
0.00320662
0.00317217
0.00335119
0.00527899
0.00368523
0.00426605
0.00332622
0.00579311
-0.00251102
-0.00252858
-0.00275206
-0.00317898
-0.00342446
-0.0043287
-0.00520825
-0.00653155
-0.00304891
-0.0254607
-0.0271782
-0.0263066
-0.0239257
-0.0166903
-0.0223549
-0.0259745
-0.0239345
-0.0219864
-0.0203159
-0.0291944
-0.00412406
-0.0117007
-0.00984752
-0.00797687
-0.0135834
-0.0110211
-0.0165611
-0.018324
0.0154476
0.0157484
0.0175836
0.00149679
0.00782494
0.0132379
0.0172111
0.015504
0.0137326
0.0122637
0.01159
0.00793143
0.00863344
0.0105085
0.00975197
0.00699086
0.0177425
0.017622
0.0163807
0.0179629
0.00379267
0.00284685
0.00285514
0.00490663
0.00339181
0.00379801
0.00441937
0.00285601
0.00603207
-0.00254508
-0.00237128
-0.0026892
-0.00279354
-0.00311314
-0.00321674
-0.00405962
-0.00477678
-0.00640093
-0.0027222
-0.0283907
-0.0296345
-0.0284292
-0.0184898
-0.0234392
-0.0279109
-0.0261314
-0.0237543
-0.0217092
-0.032204
-0.00395596
-0.0123545
-0.00909417
-0.00697264
-0.0141567
-0.0112504
-0.0162145
-0.0194692
0.0178567
0.0153207
0.0175958
0.0196189
0.0181911
-0.000930469
0.00499524
0.00826823
0.0140054
0.0158942
0.0145712
0.0130286
0.0113636
0.00744108
0.00893842
0.00974685
0.00658098
0.0191937
0.0187142
0.0176322
0.019757
0.00303368
0.00244402
0.00506774
0.00309133
0.00349225
0.00402495
0.00241688
0.00244799
0.00560905
-0.00322975
-0.00191915
-0.00244591
-0.00258666
-0.00267506
-0.00342995
-0.00274151
-0.00431112
-0.00491395
-0.00555235
-0.0024488
-0.0324423
-0.0321673
-0.0309574
-0.0304672
-0.0222901
-0.016097
-0.0271373
-0.0308714
-0.026454
-0.0235347
-0.0215698
-0.0346232
-0.00679581
-0.00982086
-0.00883249
-0.00690173
-0.015065
-0.0129617
-0.0102496
-0.0183809
0.0205732
0.018347
0.0197351
0.0217796
0.0203643
0.00031491
0.0048913
0.0115683
0.017902
0.0175068
0.0155368
0.0141025
0.0126141
0.0117236
0.00748723
0.00854
0.0102555
0.00676137
0.0204199
0.0186315
0.020474
0.0211674
0.00393266
0.00286858
0.00462949
0.00311096
0.0036619
0.0031369
0.00411784
0.00223544
0.00262894
0.00577289
-0.00236383
-0.00188214
-0.00225983
-0.00227596
-0.00254175
-0.0024339
-0.00317903
-0.00249879
-0.00397738
-0.00404913
-0.00540575
-0.00217495
-0.0351977
-0.0359474
-0.0349008
-0.0355574
-0.0243925
-0.0176209
-0.0281719
-0.0324561
-0.0280956
-0.0262942
-0.0226089
-0.0385908
-0.00510437
-0.0116717
-0.00812897
-0.00731948
-0.00588632
-0.0154236
-0.0133677
-0.0110083
-0.018895
0.0220067
0.0218591
0.0211832
0.0241555
0.021919
-0.00123105
0.00707701
0.012186
0.020085
0.0184031
0.0162263
0.0147177
0.0130821
0.0113947
0.00787381
0.00896232
0.0096889
0.0108075
0.00634608
0.0223461
0.0201788
0.0219204
0.00407143
0.00476808
0.00243813
0.00328488
0.00295143
0.00376743
0.00346716
0.00233826
0.00529125
-0.00333598
-0.00183779
-0.00196482
-0.0021039
-0.00220868
-0.00211158
-0.00339416
-0.00280421
-0.00258767
-0.00219956
-0.00382995
-0.00462727
-0.00193709
-0.0387449
-0.0398711
-0.0379363
-0.0351792
-0.0387295
-0.0244527
-0.0210556
-0.015085
-0.0316436
-0.0362029
-0.0303883
-0.0266631
-0.0211741
-0.0247869
-0.0396794
-0.0409655
-0.00763971
-0.00822205
-0.00660024
-0.00549805
-0.0155113
-0.0126021
-0.0101701
-0.0175232
0.0246954
0.0246351
0.0236593
0.0253434
0.0252564
0.0244343
0.00135102
0.00556687
0.0152352
0.020038
0.0238815
0.019576
0.0173855
0.015669
0.0144689
0.0122431
0.0137721
0.00765396
0.00847252
0.00993958
0.0109764
0.00654015
0.0241699
0.0207301
0.0235222
0.00434433
0.00170566
0.00316902
0.0027087
0.00390142
0.00337256
0.00351763
0.00542134
-0.00193124
-0.00170593
-0.00188846
-0.00202902
-0.00205654
-0.00191455
-0.00311888
-0.00261124
-0.0022214
-0.00206067
-0.00402678
-0.00350204
-0.00460452
-0.00174961
-0.0414631
-0.0422256
-0.0401892
-0.0431647
-0.0284963
-0.0214029
-0.0165621
-0.0324502
-0.037399
-0.0318705
-0.0298859
-0.0215048
-0.0254758
-0.0437262
-0.0455874
-0.00797878
-0.00724626
-0.00894302
-0.00660652
-0.00570833
-0.0145059
-0.0128076
-0.0114445
-0.0193278
0.0262239
0.0269435
0.0280541
0.0279281
0.0257809
-0.000426166
0.00815925
0.0184924
0.0122333
0.0259319
0.0274397
0.0198633
0.0178094
0.0162258
0.0153052
0.0123336
0.0138281
0.00696014
0.00865258
0.0095879
0.0116408
0.0059662
0.0246165
0.0224015
0.0239327
0.00441831
0.000905023
0.0027797
0.00283264
0.00356245
0.00307677
0.00357521
0.00497503
-0.0026099
-0.00141368
-0.00177452
-0.00177569
-0.00174971
-0.00168948
-0.00322022
-0.00274207
-0.00216714
-0.0020899
-0.00184498
-0.00325969
-0.0032591
-0.00424681
-0.00157418
-0.0456219
-0.0468797
-0.0373023
-0.0448995
-0.0471752
-0.0282753
-0.0244228
-0.0133373
-0.0350485
-0.042846
-0.0308126
-0.0235251
-0.028357
-0.0481605
-0.0490604
-0.00440631
-0.00675593
-0.00856135
-0.0056779
-0.00494795
-0.0150552
-0.0109938
-0.018708
0.0290937
0.0306791
0.0302158
0.0300866
0.0283902
0.00311056
0.00692059
0.0212311
0.0145844
0.0286831
0.0315316
0.0189458
0.0210836
0.0171516
0.0153938
0.0131143
0.0145338
0.00702085
0.00816263
0.0100148
0.0117333
0.00589807
0.0264936
0.0236577
0.0221737
0.0261532
0.00396336
0.00227194
0.00261125
0.00263713
0.00363777
0.00316955
0.00275793
0.00511522
-0.00181337
-0.00125236
-0.00151706
-0.00163134
-0.00165139
-0.00157489
-0.00153943
-0.00267224
-0.00243953
-0.00190213
-0.00186037
-0.00159433
-0.00311476
-0.00286775
-0.00407647
-0.00375774
-0.00140578
-0.0493403
-0.0502355
-0.0399671
-0.0488209
-0.0522461
-0.0337056
-0.0250627
-0.0148658
-0.0359756
-0.0447011
-0.0338722
-0.0236171
-0.0291439
-0.0526366
-0.0543017
-0.00513372
-0.00548897
-0.00717655
-0.0094613
-0.00539604
-0.0167803
-0.0133102
-0.0115648
-0.0196388
0.0313598
0.0327289
0.0326634
0.0327139
0.0294251
0.00172219
0.0111635
0.0185905
0.0252033
0.0279252
0.0327163
0.03471
0.019275
0.02135
0.0174736
0.0160757
0.0131242
0.0143358
0.00623866
0.00741395
0.00856742
0.0106828
0.00939459
0.012602
0.01138
0.0281441
0.0252524
0.0235559
0.0278208
0.00393973
0.00311654
0.00219382
0.002026
0.00333279
0.00289026
0.00250686
0.00478823
-0.00275102
-0.00153491
-0.00122507
-0.00143771
-0.00143069
-0.00152553
-0.00144908
-0.00136642
-0.00255035
-0.00207881
-0.0016767
-0.00190753
-0.00167951
-0.00142608
-0.00331216
-0.00284774
-0.00275263
-0.00383877
-0.00342191
-0.00129141
-0.0541679
-0.0558054
-0.0446909
-0.0533808
-0.0490547
-0.056763
-0.0318744
-0.0246641
-0.00866753
-0.0199025
-0.0399631
-0.0470204
-0.0340573
-0.0216951
-0.0269481
-0.0313794
-0.0588271
-0.0518695
-0.0589455
-0.00535529
-0.00667158
-0.00867047
-0.00467471
-0.0160207
-0.0140836
-0.0110352
-0.0182497
0.0344236
0.0367054
0.0345623
0.0335696
0.0338723
0.0322086
0.00347643
0.0120223
0.0204308
0.0255662
0.0316454
0.0357432
0.0394626
0.0203137
0.0185046
0.0224041
0.0169926
0.0159097
0.0148258
0.00591091
0.00710851
0.00809895
0.0105916
0.0095599
0.0129566
0.0119674
0.0296766
0.0267848
0.0236132
0.02821
0.0042607
0.00349654
0.00221616
0.00192053
0.0029911
0.00325891
0.00255145
0.00225847
0.0050381
-0.00229359
-0.00127318
-0.00131776
-0.00134167
-0.00129913
-0.0014064
-0.00133557
-0.00124156
-0.00229609
-0.00194389
-0.00144356
-0.00162487
-0.00146715
-0.00121067
-0.00258417
-0.00253929
-0.0022226
-0.00339937
-0.00394418
-0.00291513
-0.0011579
-0.0587002
-0.0598434
-0.0485497
-0.0436401
-0.0594606
-0.0557082
-0.0625752
-0.0370712
-0.0299179
-0.00721512
-0.0182048
-0.0408237
-0.0463806
-0.0379305
-0.0228238
-0.0271765
-0.0309887
-0.0644715
-0.057161
-0.0643591
-0.00522341
-0.00451088
-0.00563107
-0.00685601
-0.00967552
-0.00741672
-0.00436095
-0.0130535
-0.0110118
-0.0187207
0.037276
0.0404748
0.0378308
0.0368478
0.0376782
0.0338174
0.00830415
-0.00102063
0.0183149
0.0296165
0.0329758
0.0412895
0.0439437
0.0204
0.0188046
0.0224342
0.017794
0.016492
0.014366
0.00641306
0.00744147
0.0083643
0.0109345
0.00916544
0.013712
0.0117683
0.0316626
0.0269451
0.024915
0.0303956
0.00380313
0.00340563
0.0028599
0.00185751
0.00276371
0.00284121
0.00234701
0.00200078
0.00481171
-0.00127447
-0.00116768
-0.00118721
-0.00117193
-0.001179
-0.00118036
-0.00110931
-0.0020334
-0.00168171
-0.00127385
-0.00138847
-0.00159512
-0.00148646
-0.00128628
-0.00110768
-0.00108743
-0.00243756
-0.00222392
-0.001974
-0.00293116
-0.00327398
-0.00256735
-0.00257637
-0.000888134
-0.0635539
-0.0655798
-0.052666
-0.04737
-0.0597792
-0.0635881
-0.0588431
-0.0673441
-0.0298725
-0.0115495
-0.0226611
-0.047398
-0.0390205
-0.0254393
-0.0210143
-0.0332179
-0.0649298
-0.0698128
-0.0551572
-0.0614306
-0.0695653
-0.00432978
-0.00402802
-0.00525361
-0.00595125
-0.00864618
-0.00724054
-0.00382853
-0.0138242
-0.0114434
-0.00954456
-0.0169227
0.0412392
0.0452815
0.0410791
0.0390382
0.0395418
0.0360707
0.011019
-0.00017285
0.020126
0.0305818
0.0380016
0.0435743
0.0498983
0.0212971
0.0194707
0.0231075
0.0177395
0.0159408
0.0171161
0.0150205
0.0062192
0.00697911
0.00801027
0.0105015
0.00957882
0.0135857
0.0122034
0.0318356
0.0281765
0.0246402
0.0310109
0.00388317
0.0030156
0.00192674
0.00246777
0.00257777
0.00206713
0.00186746
0.00520049
0.00430943
-0.00170055
-0.00110961
-0.00105715
-0.00104727
-0.00104621
-0.00111789
-0.0010921
-0.00102862
-0.00170762
-0.00148964
-0.00111846
-0.00117669
-0.00135558
-0.0013219
-0.00111688
-0.000936878
-0.000920327
-0.00209247
-0.00213247
-0.00205627
-0.00175298
-0.00292602
-0.00305933
-0.00216062
-0.00224599
-0.00118492
-0.000918001
-0.0692555
-0.0542626
-0.048232
-0.0659136
-0.0687753
-0.0648309
-0.0732119
-0.0369011
-0.00867883
-0.0225933
-0.0513597
-0.042556
-0.0366261
-0.0255146
-0.0207425
-0.0316891
-0.0717783
-0.0758409
-0.060574
-0.0645151
-0.0751711
-0.0039469
-0.0037042
-0.00446534
-0.00522435
-0.00580826
-0.00761985
-0.00631181
-0.00346686
-0.0125069
-0.0151872
-0.0107405
-0.00882788
-0.0182219
0.044932
0.0499358
0.0439467
0.0427901
0.0383813
0.0432697
0.0347286
0.00951745
0.0047315
0.0246756
0.0292229
0.0383183
0.0479692
0.054641
0.021025
0.0195225
0.0234896
0.02207
0.0188658
0.016322
0.0174949
0.0146754
0.00581342
0.0070327
0.0084668
0.0108212
0.00922825
0.0131151
0.0117763
0.0278001
0.0295884
0.0262655
0.0329285
0.0034678
0.00268049
0.00287846
0.00226961
0.00224011
0.0023178
0.00194873
0.00154494
0.00479356
0.0040422
-0.000973846
-0.000904803
-0.000938909
-0.000947175
-0.000988412
-0.000961022
-0.000889045
-0.00151269
-0.00167052
-0.00127859
-0.00101556
-0.00110861
-0.00108943
-0.00121417
-0.00115049
-0.000959816
-0.00084967
-0.00087504
-0.000845736
-0.00184755
-0.00177066
-0.0017991
-0.00155215
-0.00262805
-0.00259716
-0.00174723
-0.0021215
-0.00221117
-0.00152128
-0.000718458
-0.0742188
-0.0625874
-0.043614
-0.05693
-0.0704586
-0.0727863
-0.0681153
-0.0780138
-0.0294026
-0.0111541
-0.0175225
-0.0522479
-0.042517
-0.0379334
-0.0229305
-0.0280635
-0.0356953
-0.0729371
-0.0773327
-0.0798672
-0.0602373
-0.0688772
-0.080059
-0.00326175
-0.00332062
-0.00397997
-0.0046185
-0.00498271
-0.00715466
-0.00601932
-0.00321898
-0.0109079
-0.0126154
-0.0154388
-0.00925244
-0.00763026
-0.0173894
0.0485403
0.0546553
0.047519
0.0450808
0.0403787
0.0455605
0.0356841
0.0148789
0.00380328
0.0220011
0.0347252
0.043146
0.0516099
0.0481194
0.0613633
0.0202911
0.023448
0.021932
0.0190757
0.0159108
0.0180636
0.0149758
0.00603284
0.00655103
0.00808202
0.0102376
0.00952171
0.0136262
0.0120907
0.0286878
0.0307863
0.0258394
0.0343993
0.0327403
0.00304613
0.0034568
0.00245438
0.00251952
0.00166243
0.00202544
0.0021286
0.00173586
0.0015002
0.00494321
0.00421855
-0.000871482
-0.000821577
-0.000807113
-0.000845824
-0.000902216
-0.000844082
-0.000774008
-0.00127969
-0.00139724
-0.00111914
-0.000914881
-0.000944242
-0.000940939
-0.000926889
-0.00104126
-0.00102
-0.000852875
-0.000712461
-0.000737655
-0.000683009
-0.00163368
-0.00159399
-0.0015553
-0.00131687
-0.00245556
-0.00253579
-0.00142027
-0.00183828
-0.00167677
-0.000863619
-0.0786969
-0.0633651
-0.0682061
-0.0455525
-0.0603212
-0.075266
-0.077931
-0.0732013
-0.0831349
-0.0316895
-0.00670334
-0.0189265
-0.0561844
-0.049083
-0.0451404
-0.0220902
-0.0282399
-0.035527
-0.0782384
-0.0824572
-0.085946
-0.0654486
-0.0693328
-0.0836064
-0.00282257
-0.00291028
-0.00324111
-0.00332153
-0.00445001
-0.00475373
-0.00627481
-0.00518516
-0.00263229
-0.00949109
-0.0111622
-0.0137841
-0.00842745
-0.00703378
-0.0174842
0.0527302
0.0593286
0.0505514
0.0494755
0.0436994
0.0384351
0.0500456
0.012324
-0.000516132
0.0260115
0.0332819
0.0427619
0.0571123
0.0537464
0.0626069
0.0661495
0.0204358
0.023652
0.0210648
0.0186087
0.0199344
0.0164861
0.0177516
0.0146121
0.00552482
0.00675658
0.00901114
0.007491
0.0103771
0.0132145
0.011485
0.0303334
0.0279274
0.0245981
0.0356885
0.0342944
0.00265644
0.00307266
0.00217661
0.00232962
0.00217444
0.00184154
0.00185993
0.00169775
0.00116845
0.00449412
0.00388961
-0.000756601
-0.000737251
-0.000778782
-0.000718794
-0.000755397
-0.000782444
-0.000732758
-0.000603489
-0.00128737
-0.00114357
-0.000922112
-0.000799081
-0.000754603
-0.000875006
-0.000844329
-0.000917749
-0.000867879
-0.000737893
-0.000636725
-0.000690125
-0.0006722
-0.000592069
-0.00140883
-0.00135329
-0.0013045
-0.00105685
-0.0020505
-0.00210226
-0.0021911
-0.00140235
-0.00145605
-0.0014898
-0.00155634
-0.00129659
-0.0844234
-0.0719235
-0.0736838
-0.0391033
-0.053916
-0.070568
-0.0755757
-0.0791186
-0.0824804
-0.0773267
-0.0883014
-0.0253277
-0.0109768
-0.0561985
-0.0509207
-0.0431202
-0.0233306
-0.0189561
-0.0316277
-0.0256175
-0.0373739
-0.0783837
-0.0830279
-0.0866131
-0.0878821
-0.0883522
-0.066047
-0.0744055
-0.0852681
-0.00219602
-0.00271113
-0.00273767
-0.00335615
-0.0038062
-0.00404408
-0.00571523
-0.00487144
-0.00982194
-0.00818313
-0.0107547
-0.0132027
-0.00738803
-0.00598534
-0.0151222
0.0559148
0.0624696
0.0547102
0.0521765
0.0451322
0.0396483
0.0522234
0.0149144
0.0028286
0.0225123
0.0393575
0.048097
0.0629656
0.056179
0.0705517
0.0726735
0.0226774
0.0211526
0.0191406
0.0202279
0.01723
0.0160755
0.0186901
0.0150565
0.00563759
0.00597085
0.00898361
0.00743643
0.0096187
0.0135849
0.0115668
0.0316879
0.0282688
0.0247119
0.0375324
0.0339978
0.00258849
0.00245799
0.00319239
0.00276365
0.00190031
0.00205967
0.00146402
0.00175608
0.00168106
0.00156471
0.00110072
0.004098
0.00460878
0.0035447
-0.000672718
-0.000643482
-0.000668488
-0.000670255
-0.00061431
-0.000667897
-0.000691784
-0.000619171
-0.000734202
-0.00103625
-0.00100316
-0.000737012
-0.000761184
-0.000695451
-0.000738877
-0.000704562
-0.000769605
-0.000753838
-0.000635074
-0.00053805
-0.000586815
-0.000563479
-0.000492321
-0.000544857
-0.00109856
-0.00115964
-0.00111199
-0.00104096
-0.000947765
-0.00162221
-0.00155954
-0.0020324
-0.00126033
-0.00119982
-0.00111737
-0.00141009
-0.0889118
-0.0771718
-0.0769282
-0.0411207
-0.0547218
-0.0738448
-0.0811955
-0.0852016
-0.0891478
-0.0829846
-0.093404
-0.0263973
-0.0108777
-0.0580535
-0.0481185
-0.0400086
-0.0215717
-0.0181613
-0.0321539
-0.0264062
-0.0361691
-0.084588
-0.0862474
-0.0929527
-0.0928931
-0.094328
-0.0619288
-0.0716572
-0.0759012
-0.0918037
-0.00140368
-0.00238002
-0.00241195
-0.00275023
-0.00372154
-0.00363131
-0.00491236
-0.00391712
-0.00814081
-0.00744059
-0.00907989
-0.0118797
-0.0064488
-0.00519759
-0.0156259
0.0603817
0.0684057
0.0577683
0.0572931
0.0421822
0.04786
0.0507583
0.0575102
0.0106416
-0.00231285
0.0253465
0.0378095
0.0461513
0.054028
0.0669365
0.0632061
0.0771448
0.0751093
0.0762343
0.0217239
0.0228566
0.0206905
0.0197113
0.0176535
0.0168219
0.0189008
0.0147076
0.00499212
0.00598164
0.00843944
0.00709891
0.00980253
0.0127916
0.011067
0.0311052
0.0296545
0.026848
0.0255038
0.023539
0.0381587
0.0352316
0.00230739
0.00225697
0.0027338
0.00248302
0.00187583
0.00171423
0.00189344
0.0021524
0.0015524
0.001492
0.00136383
0.00124255
0.0036376
0.00405599
0.00338008
-0.000585387
-0.000555277
-0.00057609
-0.00057187
-0.000552058
-0.000560497
-0.000587043
-0.000595148
-0.000527208
-0.000928095
-0.000795637
-0.000652612
-0.000667366
-0.000568052
-0.000669298
-0.000606467
-0.000665561
-0.000664998
-0.000659301
-0.000536788
-0.000478699
-0.000507411
-0.000417972
-0.00050511
-0.000545979
-0.000915555
-0.000959893
-0.000671408
-0.000683168
-0.00140336
-0.00130986
-0.00186773
-0.000903027
-0.00102756
-0.00125252
-0.00080086
-0.0939689
-0.0853578
-0.0851036
-0.0349015
-0.0485596
-0.0638409
-0.0844501
-0.0857313
-0.0941271
-0.0873778
-0.1002
-0.0186052
-0.0548602
-0.0484217
-0.0414662
-0.0226236
-0.0184819
-0.0292284
-0.0252526
-0.0358131
-0.0858407
-0.0904414
-0.0937266
-0.0988688
-0.0959484
-0.0948766
-0.0989757
-0.0629888
-0.0721688
-0.0817746
-0.00143753
-0.00194676
-0.00235652
-0.00298752
-0.003214
-0.0030202
-0.00417028
-0.00351983
-0.00703042
-0.00677462
-0.00849428
-0.0113388
-0.00540556
-0.00440317
-0.0137641
0.0633701
0.0724118
0.0603713
0.0423803
0.0466044
0.0532915
0.0607791
0.0160843
-0.00040428
0.0313692
0.0448238
0.0520173
0.05976
0.0730921
0.0670344
0.0826681
0.0827332
0.0842211
0.0213174
0.0219219
0.0207506
0.0198842
0.0183985
0.0167403
0.0196494
0.0152871
0.00488096
0.00650197
0.00515531
0.00818482
0.00713084
0.0104
0.0133889
0.0112785
0.0325726
0.0296621
0.0279566
0.0250787
0.0231446
0.0368338
0.0404944
0.034239
0.0020889
0.0019695
0.00263238
0.00253761
0.00215473
0.00169043
0.00154232
0.00168447
0.00141722
0.00134232
0.00115909
0.00162335
0.00369177
0.00393865
0.00304692
-0.00049772
-0.00043016
-0.000501226
-0.000479532
-0.000451225
-0.000470291
-0.000494509
-0.000558661
-0.000521335
-0.000446113
-0.000583797
-0.000602362
-0.000478692
-0.000606292
-0.000514251
-0.000523446
-0.000542521
-0.000468846
-0.000529384
-0.000425816
-0.000485742
-0.000433648
-0.000572519
-0.000345944
-0.000454739
-0.000445627
-0.000753578
-0.000639187
-0.000578834
-0.000602648
-0.000580571
-0.0014019
-0.00112005
-0.00147829
-0.000733718
-0.000487983
-0.000985497
-0.000322701
-0.0988459
-0.0875299
-0.0905371
-0.0900854
-0.0365745
-0.051982
-0.0621744
-0.082115
-0.0943697
-0.091051
-0.0986163
-0.10264
-0.104302
-0.0185098
-0.0507568
-0.0588027
-0.0449496
-0.0385669
-0.0199841
-0.0161676
-0.0320674
-0.0250707
-0.092469
-0.0949584
-0.101956
-0.103423
-0.10119
-0.100048
-0.104394
-0.066979
-0.077647
-0.0827429
-0.0019351
-0.00168391
-0.000986022
-0.00207657
-0.00222595
-0.00287832
-0.00219556
-0.00281787
-0.00636321
-0.00532983
-0.00946652
-0.00670777
-0.011954
-0.00477067
-0.0036185
-0.0139161
0.0681599
0.0776097
0.064815
0.0440012
0.0494074
0.0561635
0.0600041
0.0665567
0.0154237
-0.00827616
0.0080707
0.0312359
0.0513637
0.0423743
0.0591934
0.077618
0.0741966
0.0901527
0.0822727
0.088781
0.0907442
0.020874
0.021616
0.0208322
0.0203385
0.018634
0.0180004
0.0160609
0.0200224
0.0146393
0.00421064
0.00611292
0.00501505
0.00770608
0.00669377
0.0095032
0.0128834
0.0119611
0.0103149
0.0323695
0.0305719
0.0271453
0.0237952
0.0256466
0.0220596
0.0378304
0.040894
0.0363899
0.00188667
0.00181236
0.0028081
0.00243607
0.00224639
0.00193786
0.00152497
0.00136322
0.00151197
0.00124464
0.00116483
0.000928838
0.00115138
0.00318672
0.00369519
0.00311785
-0.000433072
-0.000395562
-0.000434626
-0.000388075
-0.000388292
-0.000413659
-0.00042514
-0.000470896
-0.000445751
-0.000352355
-0.000737064
-0.000580855
-0.000315876
-0.000441278
-0.000469565
-0.000440291
-0.000383356
-0.000340674
-0.000433719
-0.000395955
-0.000468475
-0.000353763
-0.000300854
-0.000369952
-0.000429854
-0.00016639
-0.000492332
-0.000571898
-0.000377764
-0.00043133
-0.000383696
-0.00118189
-0.000926447
-0.00110402
-0.000709526
-0.000290694
-0.000610188
-0.000787099
-0.00036977
-0.102524
-0.096615
-0.0980368
-0.100858
-0.0456216
-0.0280135
-0.0697335
-0.0930298
-0.105382
-0.096929
-0.100203
-0.110388
-0.112181
-0.0152675
-0.0500057
-0.0571415
-0.0455967
-0.0380822
-0.0169159
-0.0221305
-0.0300798
-0.0268051
-0.0970171
-0.103327
-0.110141
-0.103004
-0.109441
-0.0665439
-0.0775644
-0.0887631
-0.00194113
0.000290801
-0.000966678
-0.00219689
-0.00175182
-0.0024952
-0.00185232
-0.00264286
-0.0047765
-0.00583756
-0.00437388
-0.00831052
-0.00678932
-0.0101609
-0.003777
-0.00263026
-0.0124993
0.0690807
0.0786896
0.0437402
0.0488197
0.0554645
0.0634151
0.0713536
0.0247768
-0.000493341
0.00977941
0.0597002