/*--------------------------------*- C++ -*----------------------------------*\
| =========                 |                                                 |
| \\      /  F ield         | OpenFOAM: The Open Source CFD Toolbox           |
|  \\    /   O peration     | Version:  v2012                                 |
|   \\  /    A nd           | Website:  www.openfoam.com                      |
|    \\/     M anipulation  |                                                 |
\*---------------------------------------------------------------------------*/
FoamFile
{
    version     2.0;
    format      ascii;
    class       volVectorField;
    location    "2";
    object      U;
}
// * * * * * * * * * * * * * * * * * * * * * * * * * * * * * * * * * * * * * //

dimensions      [0 1 -1 0 0 0 0];


internalField   nonuniform List<vector> 
11941
(
(1.00005 0.000108742 -6.64895e-24)
(1.00007 0.000221453 2.54791e-24)
(1.00012 0.000197864 8.97915e-24)
(1.00012 0.000442714 -4.05231e-25)
(1.00003 0.000101769 0)
(1.00014 0.000443471 -3.54249e-24)
(1.00007 5.7e-05 1.49783e-23)
(1.0001 0.0005032 -1.27011e-24)
(1.00018 0.000565086 3.2308e-24)
(1.00004 0.00023997 6.1134e-25)
(1.00025 0.000497052 0)
(1.00015 0.000161811 -6.28475e-24)
(1.0002 0.000757986 1.9663e-24)
(1.00007 0.000390925 -2.67597e-24)
(1.00024 0.000669108 0)
(1.00001 0.000108659 -5.59828e-25)
(1.00028 0.000520725 0)
(1.00015 0.000226483 0)
(1.00026 0.000784208 0)
(1.00011 0.000775123 -3.85867e-25)
(1.00011 0.000550216 3.53945e-25)
(1.00031 0.000807778 0)
(1.00003 0.000258286 -3.91606e-25)
(1.00026 0.000463176 -1.38057e-23)
(1.0004 0.000748857 0)
(1.00013 4.50443e-05 0)
(1.00027 0.000932071 0)
(1.0001 0.000850675 -3.19453e-25)
(1.00005 0.000477142 1.49628e-24)
(1.00036 0.000887788 0)
(1 0.000150826 3.22205e-24)
(1.00032 0.000479592 4.9035e-24)
(1.00049 0.000732426 0)
(1.00018 0.000250412 -1.19898e-23)
(1.00024 0.000997244 -4.37451e-25)
(1.00015 0.000967 -2.92135e-25)
(1.00004 0.000830533 1.01245e-24)
(1.00002 0.00059564 -3.06307e-24)
(1.00043 0.000924098 1.05747e-23)
(0.99997 0.000237391 -3.74811e-24)
(1.00021 0.000374423 7.53353e-25)
(1.00041 0.000625985 6.04164e-24)
(1.00057 0.000742857 0)
(1.00023 7.5488e-05 2.16945e-23)
(1.00028 0.00107414 4.08623e-24)
(1.0001 0.00104058 -1.44264e-24)
(1.00002 0.000866678 0)
(1.00002 0.000553621 7.87838e-25)
(1.00053 0.000994491 1.79503e-24)
(1.00038 0.00110104 0)
(0.999992 6.89414e-05 -6.11139e-24)
(0.999993 0.000430176 -1.38444e-24)
(1.00029 0.000364496 0)
(1.00049 0.000525394 9.4859e-25)
(1.00062 0.000970999 -7.43786e-24)
(1.00066 0.00068462 3.99187e-24)
(1.00036 -0.000104218 -2.18204e-23)
(1.00024 0.00118749 -2.86367e-24)
(1.0001 0.00119578 3.83974e-25)
(1.00001 0.000987417 1.50692e-24)
(0.999999 0.00082572 0)
(1.00054 0.00105172 -7.74487e-24)
(1.00042 0.00116489 1.62775e-23)
(0.999994 0.000240006 9.99597e-24)
(0.999969 0.000433765 -5.46812e-24)
(1.00034 0.000356851 0)
(1.0006 0.000493049 -9.47806e-25)
(1.00071 0.000964071 1.17888e-23)
(1.00068 0.000671755 -3.82676e-24)
(1.00082 0.000873685 -1.72608e-23)
(1.00026 -2.13544e-05 0)
(1.00027 0.00132756 -3.06788e-24)
(1.00001 0.00119668 -1.31471e-24)
(0.999931 0.00110082 0)
(0.999874 0.000840923 6.9854e-24)
(1.00068 0.00137332 1.51153e-23)
(1.00047 0.00136708 -3.94623e-24)
(0.999972 0.000143113 -2.98758e-24)
(0.999923 0.000553156 6.73011e-24)
(1.00044 0.000319573 0)
(1.00059 0.000334267 0)
(1.00091 0.00124674 -2.39702e-23)
(1.0008 0.000519106 0)
(1.001 0.000767656 -1.8513e-24)
(1.0003 0.000132109 7.89496e-24)
(1.00021 0.00146919 2.85494e-24)
(0.999938 0.00112615 0)
(1.00002 0.00147784 2.56551e-24)
(0.999826 0.00100483 -1.74145e-23)
(0.999862 0.000833881 4.39038e-24)
(1.00056 0.00140156 -1.37429e-23)
(0.999927 0.000260066 0)
(0.999915 0.000588387 -8.97434e-24)
(1.00034 0.000291725 1.60987e-23)
(1.00071 0.000371117 3.46412e-23)
(1.00106 0.0012811 2.75962e-24)
(1.00098 0.00061972 -1.64922e-23)
(1.00119 0.00103663 3.12141e-23)
(1.00045 -0.00023414 1.27668e-23)
(1.0003 0.00163704 -2.54167e-24)
(0.999831 0.00127533 -3.79006e-24)
(0.999867 0.00145983 -2.67541e-24)
(0.999697 0.00100186 1.58687e-23)
(0.999846 0.000807113 -1.51172e-23)
(1.00055 0.0015567 7.48986e-24)
(0.999952 0.000103102 0)
(0.999909 0.000450374 7.49436e-24)
(1.00044 0.000149534 -1.75387e-23)
(1.00078 0.000243274 -1.52559e-23)
(1.00108 0.00137753 4.87183e-25)
(1.00111 0.000460447 -1.76199e-24)
(1.00147 0.000937326 -4.51389e-23)
(1.00037 -7.97249e-06 9.47795e-24)
(1.00018 0.00186525 2.46226e-24)
(0.999653 0.00123222 8.38542e-24)
(0.999813 0.0015354 0)
(0.999621 0.00103043 -4.39715e-24)
(0.9997 0.000904827 0)
(0.999769 0.000791455 8.66917e-24)
(1.0008 0.0016133 -1.4483e-23)
(0.999898 0.000202109 3.72244e-24)
(0.999854 0.000522891 -1.00629e-23)
(1.00028 8.22963e-05 -1.38353e-23)
(1.00063 0.000106573 3.72136e-24)
(1.00096 0.000267529 1.40531e-24)
(1.00139 0.00155652 1.37992e-23)
(1.00096 0.00162894 1.77095e-23)
(1.00131 0.000481317 1.13967e-23)
(1.00145 0.000681172 0)
(1.00162 0.00113932 4.20926e-23)
(1.00052 -0.000490558 -2.59766e-24)
(1.00032 0.00222623 0)
(0.999862 0.00193046 4.26681e-24)
(0.999562 0.00143647 -1.54521e-23)
(0.999608 0.00147171 1.02375e-23)
(0.999522 0.00102687 1.26466e-23)
(0.999591 0.00085188 0)
(0.999791 0.000658136 -1.33449e-24)
(1.0008 0.00225993 0)
(0.999881 0.000389307 2.628e-23)
(0.999932 5.5192e-05 -3.3947e-24)
(1.00039 2.33804e-06 -5.00477e-24)
(1.00067 5.01069e-05 1.42459e-23)
(1.00108 8.34528e-05 1.7567e-24)
(1.00166 0.00133434 -1.31323e-23)
(1.00143 0.00193292 -8.11131e-24)
(1.00112 0.00207862 0)
(1.00137 0.000154515 4.50249e-23)
(1.00167 0.000589429 0)
(1.00192 0.000840639 2.01477e-23)
(1.00032 -0.000492643 2.74954e-23)
(1.00013 0.00243119 1.01104e-24)
(0.999703 0.00201421 -6.57472e-26)
(0.999354 0.00127364 1.48835e-24)
(0.999414 0.00184996 -1.67565e-23)
(0.999397 0.00102676 0)
(0.999472 0.000798687 0)
(0.999653 0.000693163 1.73607e-24)
(0.999717 0.000657041 -1.52025e-23)
(1.00101 0.00221674 0)
(0.999834 0.000416985 -2.9121e-23)
(0.999876 0.000209218 1.28966e-23)
(1.00058 -1.37029e-05 -1.04891e-23)
(1.00073 -5.289e-05 -1.78537e-23)
(1.00087 -1.23421e-05 0)
(1.00127 6.99341e-05 1.92772e-24)
(1.00207 0.00156737 -2.32488e-23)
(1.0017 0.0022139 6.87793e-26)
(1.00179 0.000252392 -3.76361e-23)
(1.00223 0.000741298 2.74722e-23)
(1.0002 0.000285778 -2.68835e-23)
(1.00028 0.00288629 -2.46558e-24)
(0.999725 0.0023641 7.63727e-24)
(0.999146 0.00125501 -1.29184e-23)
(0.999147 0.00186548 8.53764e-24)
(0.999222 0.000835725 0)
(0.999413 0.000663969 -1.98366e-23)
(0.999542 0.000620428 -1.74793e-23)
(0.999789 0.000507521 1.40163e-23)
(1.00112 0.00268923 2.0048e-23)
(0.999818 0.000240849 1.49407e-23)
(1.00055 -0.000155433 0)
(1.00066 -0.000192022 2.77219e-23)
(1.00096 -0.000233266 0)
(1.00137 -7.64224e-05 -2.47841e-23)
(1.00203 0.00207846 1.23257e-23)
(1.00242 0.00135531 3.85026e-23)
(1.00168 0.00260928 -2.57478e-23)
(1.00201 0.00011904 -5.58991e-23)
(1.00229 0.000182346 5.57231e-23)
(1.00243 0.00107669 -6.96047e-23)
(1.00086 -0.000511533 1.40212e-23)
(1.00023 0.000174393 2.20302e-23)
(0.999917 0.00323256 8.39121e-25)
(1.0008 0.00296452 -6.75766e-24)
(0.999396 0.00259426 -1.4766e-23)
(0.999004 0.000956461 -9.60797e-25)
(0.999026 0.00152434 2.36267e-23)
(0.999024 0.00207307 -1.47911e-23)
(0.999264 0.000734523 5.34349e-25)
(0.999464 0.000611081 1.77274e-23)
(0.999635 0.000539956 2.13057e-23)
(0.999683 0.000520502 -4.66598e-24)
(0.999822 0.000290902 1.27245e-24)
(0.999873 3.17577e-06 -5.76115e-25)
(1.00054 -0.000200759 -3.94444e-23)
(1.00074 -0.000350959 0)
(1.00113 -0.000367799 0)
(1.00159 -0.000327563 0)
(1.00239 0.00235532 -1.73433e-23)
(1.00283 0.00165235 9.4087e-24)
(1.00193 0.00315736 -2.41568e-23)
(1.00198 -0.000113008 5.58729e-23)
(1.00266 0.000254998 -5.93472e-23)
(1.00274 0.000697293 4.2013e-23)
(1.00064 -0.00132623 -3.53118e-23)
(1.00007 -0.000285505 0)
(1.00007 0.00383284 4.30144e-25)
(0.999512 0.00312818 7.48275e-24)
(1.00105 0.00360383 -3.00116e-24)
(0.999103 0.0025408 0)
(0.998776 0.00090848 0)
(0.998682 0.00141441 -2.89218e-23)
(0.998655 0.00199075 1.59447e-23)
(0.999163 0.000596012 -1.69222e-23)
(0.999421 0.000533776 0)
(0.999599 0.000491486 0)
(0.999764 0.000369903 1.56032e-23)
(0.999816 0.000282712 -1.23915e-23)
(0.999848 0.000113928 2.19766e-23)
(1.00049 -0.000457974 2.60616e-23)
(1.00069 -0.000456848 2.16392e-23)
(1.00114 -0.00046032 0)
(1.00151 -0.00058961 0)
(1.00284 0.00200979 -3.62961e-23)
(1.00261 0.00319642 3.83178e-23)
(1.00321 0.00144014 -5.23654e-23)
(1.00166 0.0035732 -1.12786e-23)
(1.00217 -0.000612354 -3.41872e-23)
(1.00291 -0.000115441 5.7251e-23)
(1.00317 0.000915778 -4.22509e-23)
(1.00029 -0.000520122 1.32525e-23)
(1.00004 -0.000250259 0)
(1.00062 0.00393712 -3.02655e-24)
(0.999635 0.00420915 7.22721e-25)
(0.99914 0.00333666 5.58633e-24)
(0.998782 0.00274667 -1.94916e-23)
(0.998717 0.000684975 -6.41436e-24)
(0.998621 0.00112 0)
(0.998475 0.00186055 0)
(0.998339 0.00238628 0)
(0.999311 0.000405166 2.12781e-23)
(0.998932 0.000488517 0)
(0.99952 0.000434889 1.09955e-23)
(0.999691 0.00039889 -1.18417e-23)
(0.999767 0.00027614 -1.01894e-23)
(0.999823 -4.71015e-06 0)
(1.00054 -0.000576974 -2.09348e-23)
(1.00078 -0.000550635 -2.54965e-23)
(1.00096 -0.000572664 0)
(1.00123 -0.000714802 0)
(1.0017 -0.000815715 -2.38106e-23)
(1.0033 0.00265266 3.92461e-23)
(1.00298 0.00316548 -1.62012e-23)
(1.00372 0.00171488 6.92795e-23)
(1.00204 0.00427279 1.36132e-23)
(1.00267 -0.000582519 -4.4221e-23)
(1.00196 -0.000802486 6.21856e-23)
(1.00342 3.77228e-05 0)
(1.00354 0.000522346 5.53465e-23)
(1.00055 -0.0014654 1.34058e-23)
(1.00035 -0.000380168 1.14817e-23)
(1.00089 0.0047808 3.67842e-24)
(0.999679 0.00479793 -1.03435e-24)
(0.999174 0.00403482 2.07913e-24)
(0.998719 0.00313477 1.94852e-23)
(0.998382 0.000594324 1.09899e-23)
(0.998847 0.000502365 0)
(0.998301 0.0011053 -2.46913e-23)
(0.998072 0.00155643 0)
(0.997897 0.00246699 1.40524e-23)
(0.999317 0.000295876 0)
(0.99904 0.000126117 -4.95471e-23)
(0.999521 0.000371374 -1.07832e-23)
(0.999669 0.00035768 -1.05047e-23)
(0.999821 0.000259907 0)
(0.999827 0.000146776 0)
(1.00054 -0.000617618 1.99603e-23)
(1.0007 -0.000793464 3.37559e-24)
(1.00094 -0.000853118 -2.1456e-23)
(1.00117 -0.000831269 0)
(1.00151 -0.00122649 -5.8696e-23)
(1.00404 0.002518 0)
(1.00327 0.003672 0)
(1.00415 0.00122126 0)
(1.00148 0.00484692 0)
(1.00278 0.00439484 0)
(1.00286 -0.00112413 -3.17749e-23)
(1.00207 -0.00107567 7.69502e-23)
(1.00371 -0.000501585 4.75751e-23)
(1.00406 0.000755139 -6.21552e-23)
(1.00011 -0.000992082 -3.10196e-23)
(1.00023 0.00505771 0)
(0.99911 0.00535385 7.79397e-24)
(0.998585 0.00411852 -1.11637e-23)
(0.998238 0.00346058 0)
(0.998282 0.000166411 0)
(0.99811 0.000987404 2.2902e-23)
(0.99867 0.000158696 1.79715e-23)
(0.997699 0.00151592 3.37377e-23)
(0.997582 0.00226152 -7.25531e-23)
(0.997756 0.00296212 0)
(0.999462 0.000249625 0)
(0.999246 0.000126146 3.09092e-23)
(0.998896 1.23555e-05 0)
(0.999614 0.000313009 1.05228e-23)
(0.999762 0.000218475 0)
(0.999715 -7.67227e-05 0)
(1.00051 -0.000782856 -3.78187e-23)
(1.00081 -0.000857294 1.6525e-23)
(1.00054 -0.000804094 3.44595e-23)
(1.00119 -0.00117008 1.50841e-23)
(1.00169 -0.00127028 3.37962e-23)
(1.00441 0.00250437 3.75607e-23)
(1.0042 0.00388967 7.68575e-23)
(1.00487 0.00189346 0)
(1.00176 0.00610775 -3.33733e-24)
(1.00311 0.00533867 1.95307e-24)
(1.00261 -0.00138404 -8.87833e-25)
(1.00347 -0.000975668 4.048e-23)
(1.00213 -0.00152489 -5.15364e-23)
(1.00436 -0.000425178 4.18564e-23)
(1.00451 0.000443281 -5.58851e-24)
(1.00019 -0.000372558 -2.02227e-23)
(1.00032 0.00618526 0)
(0.999058 0.00608672 -7.90895e-24)
(0.998607 0.00526366 0)
(0.998253 0.00386989 -2.15592e-24)
(0.997861 0.000259739 -3.09334e-23)
(0.99842 6.65023e-05 -1.49692e-23)
(0.997779 0.000691868 0)
(0.997464 0.00130602 2.34466e-23)
(0.997088 0.00213838 2.00021e-23)
(0.997163 0.00327815 0)
(0.999501 0.000175266 -1.13594e-23)
(0.999312 6.55698e-06 3.18261e-23)
(0.998882 -0.000204511 1.20349e-23)
(0.999646 0.000241783 0)
(0.999821 0.000200639 0)
(0.9998 8.14952e-05 0)
(1.00012 -0.000663725 2.32824e-23)
(1.00083 -0.00106586 -1.18422e-23)
(1.00048 -0.000980545 -5.18661e-24)
(1.00098 -0.00122048 5.61347e-24)
(1.00157 -0.00161966 0)
(1.00475 0.00306959 -6.95192e-23)
(1.00448 0.00446512 -6.57058e-23)
(1.00554 0.00133314 4.58956e-23)
(1.00087 0.00656654 3.70833e-24)
(1.00258 0.00622603 -1.92763e-24)
(1.00403 0.00535819 0)
(1.00278 -0.00199406 3.45185e-23)
(1.0038 -0.0015724 1.95167e-24)
(1.00192 -0.00175432 5.74729e-23)
(1.00492 -0.000680096 -9.93278e-23)
(1.00516 0.000688861 -5.91653e-23)
(1.00056 -0.00180788 1.13189e-23)
(0.998515 0.00686778 7.43849e-24)
(0.997571 0.00535515 -3.18186e-23)
(0.997789 0.00414746 1.90357e-23)
(0.99761 -0.000137485 8.46498e-23)
(0.998378 -0.000267392 0)
(0.997442 0.000944959 0)
(0.997041 0.00159365 -2.52604e-23)
(0.996689 0.00259438 -3.44057e-23)
(0.996741 0.00302842 0)
(0.997198 0.00377469 -1.60868e-23)
(0.999425 6.80025e-06 -1.27488e-23)
(0.999589 0.000145303 -1.11059e-23)
(0.999226 -0.000121362 0)
(0.999164 -0.000369621 0)
(0.998721 -0.000534038 -1.46821e-23)
(0.999767 0.000109495 -2.07276e-23)
(0.999627 -0.000226158 -1.78355e-23)
(1.00011 -0.000615565 0)
(1.00054 -0.00114849 1.05642e-23)
(1.00013 -0.000850705 2.25575e-23)
(1.00094 -0.00131572 -2.9352e-23)
(1.00131 -0.00164567 -2.87302e-23)
(1.00587 0.00319903 -1.50198e-23)
(1.00543 0.00489227 1.16845e-22)
(1.00627 0.00157118 -1.50867e-23)
(1.00062 0.007654 1.64349e-23)
(1.00294 0.00725193 -1.88891e-23)
(1.00448 0.00648996 0)
(1.00237 -0.00241496 -3.4722e-23)
(1.00342 -0.00203762 -1.5429e-22)
(1.00445 -0.00161881 0)
(1.00188 -0.00219472 -4.36758e-23)
(1.00553 -0.00010082 0)
(1.00503 -0.00106317 5.02581e-23)
(1.00038 -0.000996918 -1.23945e-23)
(0.999218 0.00784087 -9.93022e-24)
(0.997571 0.0068837 1.65285e-23)
(0.997218 0.0053204 5.45708e-23)
(0.9971 8.4329e-05 -7.74309e-23)
(0.997753 -0.000377262 -5.57744e-23)
(0.998068 -0.000495601 2.78359e-23)
(0.997018 0.000621837 -9.23682e-25)
(0.996573 0.00138333 -7.6327e-23)
(0.996003 0.00200592 8.53543e-23)
(0.996039 0.00323567 5.83393e-23)
(0.996743 0.0046758 -4.69619e-23)
(0.999543 -4.5546e-05 0)
(0.99966 6.8645e-05 3.22774e-23)
(0.999407 -0.000261121 -1.28887e-23)
(0.999192 -0.000482582 -1.87336e-24)
(0.99868 -0.000529431 0)
(0.999824 0.000134665 0)
(0.999753 2.56133e-06 0)
(1.00047 -0.00117544 -5.54605e-24)
(1.00014 -0.000970649 -4.61281e-23)
(1.00067 -0.00138355 -3.98378e-23)
(1.001 -0.00160874 2.72877e-23)
(1.00122 -0.00218951 -3.13092e-23)
(1.00657 0.00242078 -5.49552e-23)
(1.0061 0.00432233 -9.65016e-23)
(1.00561 0.00584099 -2.76977e-23)
(1.00674 0.00038576 3.98342e-23)
(1.00136 0.00859131 -2.03791e-23)
(1.00247 0.00835205 2.5173e-23)
(1.00414 0.00716618 0)
(1.00241 -0.00281159 1.12438e-23)
(1.00345 -0.00276692 1.65678e-22)
(1.00453 -0.00246813 1.19547e-22)
(1.00151 -0.0025899 0)
(1.00627 -0.000172655 -6.20191e-25)
(1.0056 -0.00175862 -3.9497e-23)
(1.00042 -0.00222095 -1.7662e-23)
(0.99877 0.00936081 2.84803e-24)
(0.996957 0.00587835 -4.72142e-23)
(0.997015 0.00779817 0)
(0.996681 -0.000238617 -3.09802e-23)
(0.997564 -0.00081631 4.73285e-23)
(0.998297 -0.00115406 0)
(0.996485 0.00103536 8.60583e-23)
(0.9954 0.00195106 3.46236e-23)
(0.995449 0.0030237 -7.31411e-23)
(0.995815 0.00464405 5.71025e-23)
(0.999526 -0.00020119 0)
(0.999627 -1.82902e-05 0)
(0.999424 -0.000502272 1.24488e-23)
(0.999141 -0.000782512 -2.29321e-23)
(0.99869 -0.00116452 0)
(0.998901 -0.000902744 7.602e-23)
(0.999789 -8.0521e-05 0)
(0.999554 -0.000397528 1.83425e-23)
(1.00032 -0.00106399 4.28156e-23)
(1.00051 -0.00134059 2.59707e-23)
(1.00024 -0.00133877 3.21491e-23)
(1.0006 -0.00169452 -1.15236e-23)
(1.00082 -0.00177293 5.62732e-23)
(1.00073 -0.00218321 5.89851e-23)
(1.00763 0.00264057 8.52479e-23)
(1.00728 0.00454872 8.52283e-24)
(1.00677 0.00693344 0)
(1.00779 0.00033952 -4.78845e-23)
(1.00072 0.00967902 9.15012e-24)
(1.00337 0.00952601 -4.04162e-24)
(1.00503 0.00793184 2.76129e-23)
(1.00199 -0.00348161 -9.51057e-24)
(1.00303 -0.00304417 -3.48329e-23)
(1.00419 -0.00283286 -8.71912e-23)
(1.00551 -0.00233947 -8.22745e-23)
(1.00142 -0.00260029 0)
(1.0065 -0.00113969 -6.28936e-24)
(0.997312 0.00913373 -1.7863e-23)
(0.999429 0.00990493 -6.46562e-24)
(0.99585 0.0060873 0)
(0.995508 0.00746482 -2.06518e-23)
(0.996105 0.000173222 -9.96167e-23)
(0.996793 -0.000704547 7.62269e-23)
(0.998048 -0.00132654 -2.67089e-25)
(0.997201 -0.00101343 -5.199e-23)
(0.996002 0.000510015 3.41679e-23)
(0.995174 0.00235776 -5.98056e-23)
(0.995235 0.00103607 0)
(0.994845 0.00411865 2.2531e-23)
(0.995335 0.00466264 -8.78977e-23)
(0.99962 -0.000257114 0)
(0.999646 -0.000180144 0)
(0.999549 -0.000527367 0)
(0.999371 -0.00088221 -1.53816e-24)
(0.998898 -0.00114394 8.35821e-23)
(0.999977 -2.96207e-05 1.97494e-23)
(0.999729 -0.000108554 -1.34019e-23)
(1.00018 -0.00126484 -1.90539e-23)
(1.00037 -0.00144374 0)
(1.00018 -0.00246715 -1.45532e-23)
(1.00029 -0.0016933 2.88708e-23)
(1.00077 -0.00185865 -6.24131e-23)
(1.00064 -0.00227455 1.25838e-23)
(1.00796 0.00364438 1.43206e-22)
(1.00837 0.00187363 -6.93223e-23)
(1.0079 0.00627228 -1.53946e-23)
(1.00628 0.00757731 -7.39018e-23)
(1.00844 -0.000701965 -1.6889e-23)
(1.00145 0.0111482 -2.79716e-25)
(1.00296 0.0108503 5.39064e-24)
(1.00466 0.00943306 -2.77339e-23)
(1.00227 -0.00400689 -2.60895e-23)
(1.0011 -0.00347333 0)
(1.00271 -0.00400135 -2.83518e-24)
(1.00443 -0.00353392 3.62089e-23)
(1.00566 -0.0035498 1.28699e-22)
(1.00102 -0.00277173 0)
(1.00732 -0.00191795 6.68314e-23)
(0.99611 0.00993965 2.68527e-24)
(0.998899 0.0120274 -1.4117e-23)
(0.995073 0.00550622 6.37667e-23)
(0.99442 0.00775985 6.18406e-23)
(0.995664 -0.000512438 2.13986e-23)
(0.996257 -0.000958129 0)
(0.997963 -0.0015653 6.89484e-23)
(0.997178 -0.00134118 4.34585e-23)
(0.994303 0.00249155 0)
(0.994558 0.000690923 6.42768e-23)
(0.993911 0.0036103 -4.9847e-23)
(0.999669 -0.000303107 2.68846e-24)
(0.999667 -0.000470556 -3.0307e-24)
(0.999527 -0.000762884 -1.63989e-24)
(0.999397 -0.00114596 0)
(0.998893 -0.00119996 -4.46829e-23)
(0.999892 8.27151e-06 -1.82605e-23)
(0.999457 -0.000640547 1.25074e-23)
(1.00013 -0.00123841 1.62564e-23)
(1.00035 -0.00142925 1.53708e-23)
(1.00023 -0.00138066 1.69036e-23)
(1.00029 -0.00162754 -1.28649e-23)
(1.00052 -0.0018165 3.21602e-23)
(1.00055 -0.00264158 2.9586e-23)
(1.00031 -0.00211071 -2.08522e-23)
(1.00934 0.00400037 -8.30828e-23)
(1.00959 0.00183417 4.12649e-23)
(1.00912 0.0065207 0)
(1.00729 0.00911502 8.21026e-23)
(1.00833 -0.00149583 -9.29398e-23)
(1.00999 0.00047159 1.90063e-23)
(1.00061 0.012605 -1.16108e-23)
(1.00394 0.0127098 -6.11854e-24)
(1.00577 0.0103538 7.8553e-23)
(1.00202 -0.00454366 0)
(1.00107 -0.00317761 0)
(1.00368 -0.00417781 -7.99298e-23)
(1.00524 -0.00380175 -7.62823e-23)
(1.00686 -0.00316057 -8.03288e-23)
(0.99618 0.0116189 5.89928e-23)
(0.994312 0.0091153 -1.16626e-22)
(0.997576 0.0124947 1.19439e-23)
(0.993966 0.00560421 -6.42582e-23)
(0.993428 0.00726796 -3.88902e-23)
(0.995053 -0.000636789 0)
(0.99617 -0.00137526 -4.97764e-23)
(0.998245 -0.00187466 -6.42324e-23)
(0.997492 -0.00165706 0)
(0.996797 -0.00169015 -5.12899e-23)
(0.993751 0.00184866 0)
(0.993908 0.00118921 0)
(0.994607 -0.000306941 -6.87384e-23)
(0.9932 0.00405591 7.67649e-23)
(0.999839 -0.000104965 0)
(0.999697 -0.000663931 0)
(0.999687 -0.000809873 -1.22977e-24)
(0.999228 -0.00132387 -7.15851e-24)
(0.999681 -0.00117352 2.21409e-23)
(0.998795 -0.00163578 -1.99676e-23)
(0.999716 -0.00027785 0)
(1.00014 -0.00145734 0)
(1.00028 -0.00155756 0)
(1.00015 -0.00305503 -1.92698e-23)
(1.00029 -0.00168433 2.01173e-23)
(1.00027 -0.00159902 2.64681e-23)
(1.0004 -0.00180775 -1.40729e-23)
(1.0002 -0.00264884 0)
(1.0002 -0.00200232 -1.46708e-23)
(1.00999 0.00553871 -1.36618e-23)
(1.01019 0.00216823 -5.01248e-23)
(1.0097 0.00831804 1.3125e-23)
(1.00888 0.00936203 0)
(1.00933 -0.00251864 1.54681e-22)
(1.01125 -0.00028506 4.6715e-23)
(1.00118 0.0136393 0)
(1.00328 0.0137246 0)
(1.00577 0.0120993 -6.93552e-23)
(1.00117 -0.0043495 0)
(1.00249 -0.00532858 -4.60923e-23)
(1.00069 -0.00349991 -4.42583e-23)
(1.00394 -0.00480799 1.08738e-22)
(1.00503 -0.00484115 7.10865e-23)
(1.00759 -0.00414853 1.12223e-22)
(0.99447 0.012084 -3.96499e-23)
(0.992968 0.00975218 3.59307e-23)
(0.997379 0.0145744 2.25489e-23)
(0.993238 0.00484292 2.9439e-23)
(0.992285 0.00685866 4.05708e-23)
(0.994994 -0.00176989 0)
(0.995747 -0.00221514 4.76279e-23)
(0.997953 -0.00227018 0)
(0.998636 -0.0019164 0)
(0.997379 -0.00211178 0)
(0.99684 -0.00205505 6.06097e-23)
(0.992734 0.00217405 0)
(0.99333 0.000319052 1.59672e-23)
(0.993795 -0.000418903 -1.38785e-23)
(0.992437 0.00324891 -7.83558e-23)
(0.99989 -0.000475209 0)
(0.999686 -0.000707332 -2.53476e-23)
(0.999696 -0.000923967 0)
(0.999414 -0.00156391 -2.4601e-23)
(0.999773 -0.00125904 -4.19331e-23)
(0.999188 -0.00179164 0)
(0.999536 -0.00083843 0)
(1.00011 -0.00126512 0)
(1.00022 -0.0016046 0)
(1.00019 -0.00169702 -2.20909e-23)
(1.00017 -0.00158142 -2.7645e-23)
(1.00022 -0.00189825 -1.44158e-23)
(0.999982 -0.00237945 2.37779e-23)
(1.00001 -0.00317293 4.31637e-23)
(1.00008 -0.00209768 0)
(1.01159 0.00540526 6.73301e-23)
(1.01216 0.00341899 1.49454e-23)
(1.01167 0.0082568 1.52332e-22)
(1.00953 0.011739 -8.40709e-24)
(1.01085 -0.00189531 -2.30759e-23)
(1.00896 -0.00382229 0)
(1.0128 0.000507909 1.2722e-22)
(1.00034 0.0160539 -1.73014e-23)
(1.00408 0.0151125 -1.12925e-23)
(1.00754 0.0130908 -4.6003e-23)
(1.00073 -0.00397781 -4.09297e-23)
(1.00078 -0.00522491 0)
(1.00337 -0.00539951 -5.10012e-23)
(1.00202 -0.00589082 6.59134e-23)
(1.00566 -0.005543 7.96519e-23)
(1.00694 -0.00535098 -1.55178e-23)
(0.994063 0.0142184 -3.34818e-23)
(0.993127 0.011067 4.52058e-23)
(0.991606 0.00910986 6.29041e-23)
(0.998708 0.0162185 0)
(0.994967 0.0151138 -2.96133e-23)
(0.992165 0.00568945 1.04284e-22)
(0.991295 0.00755566 -1.23264e-22)
(0.994152 -0.00217111 3.76323e-23)
(0.995852 -0.00238237 -3.17294e-23)
(0.997511 -0.00229959 -4.20302e-23)
(0.998196 -0.00280374 -2.85416e-23)
(0.99892 -0.00236835 3.13067e-23)
(0.99652 -0.00249719 -1.30042e-22)
(0.992004 0.00126032 0)
(0.99238 0.000378132 3.68482e-23)
(0.993449 -0.0012892 -5.4035e-23)
(0.991238 0.00351402 9.1351e-23)
(1.00009 -0.0004026 -1.69269e-23)
(0.999759 -0.000779347 0)
(0.999877 -0.000924742 0)
(0.999647 -0.00160005 -1.18379e-23)
(0.999784 -0.00146261 4.47491e-23)
(0.999953 -0.00122979 -4.40877e-23)
(0.99927 -0.00197764 0)
(0.999724 -0.000497541 0)
(1.00012 -0.00144265 1.15437e-23)
(1.00026 -0.00322333 2.10063e-23)
(1.00013 -0.00165563 -8.28433e-24)
(1.00015 -0.00174761 -2.34031e-23)
(1.00008 -0.00179127 9.76685e-24)
(0.999632 -0.00223834 -2.53077e-23)
(0.999567 -0.00302642 0)
(0.999855 -0.00190644 0)
(1.01246 0.00625002 -1.4379e-22)
(1.01356 0.00233872 -2.6413e-22)
(1.01327 0.0113263 -8.11761e-23)
(1.01171 0.0124335 7.71734e-23)
(1.01207 -0.00320899 -6.51099e-23)
(1.00998 -0.004969 -4.8733e-23)
(1.01411 -0.000840212 -3.76978e-23)
(1.00192 0.0168209 3.09206e-23)
(1.00575 0.0168793 0)
(1.00749 0.0157449 5.16652e-23)
(0.999933 -0.0042047 4.88616e-23)
(1.00117 -0.00576593 0)
(1.00006 -0.00502188 -3.703e-23)
(1.00375 -0.0065494 0)
(1.002 -0.00697835 -4.05494e-23)
(1.00485 -0.00663427 0)
(1.00773 -0.00667462 -2.08231e-22)
(0.991861 0.0136421 8.33275e-23)
(0.991575 0.0122068 -2.16027e-23)
(0.99005 0.00994594 -9.45793e-23)
(0.997872 0.0178724 4.84293e-24)
(0.993946 0.0173443 3.33528e-24)
(0.990901 0.00479995 -1.01793e-22)
(0.989807 0.00663155 1.4901e-22)
(0.993992 -0.00281661 1.76655e-24)
(0.995714 -0.00334975 -1.56214e-22)
(0.997529 -0.00304854 4.59044e-23)
(0.998714 -0.00285399 4.70236e-23)
(0.997828 -0.00317611 2.55393e-24)
(0.999345 -0.00240275 -3.23054e-23)
(0.996955 -0.00308872 5.51106e-23)
(0.990875 0.00158053 0)
(0.991881 -0.000656395 4.61099e-23)
(0.992435 -0.00137886 3.46433e-23)
(0.99053 0.00272218 0)
(0.999956 -0.000370885 3.61962e-23)
(0.999848 -0.000658914 -9.3372e-24)
(0.999932 -0.00100514 1.98229e-23)
(0.999807 -0.00185942 1.47404e-24)
(0.999951 -0.001523 1.0797e-23)
(1.00002 -0.00126374 -4.78732e-24)
(0.999547 -0.00201093 -2.24615e-23)
(0.999559 -0.00122275 4.36731e-24)
(1.00011 -0.00118718 -1.0437e-23)
(1.00021 -0.00168877 -3.35737e-23)
(1.00005 -0.00159091 1.82659e-23)
(1.00001 -0.00151577 0)
(0.99998 -0.00179151 0)
(0.99954 -0.00196345 0)
(0.999435 -0.00261683 -2.82002e-23)
(0.999317 -0.00345465 -8.85611e-23)
(0.99972 -0.00182043 0)
(1.01474 0.00689024 2.5864e-23)
(1.01558 0.00331885 1.7379e-22)
(1.01563 0.0102338 2.09343e-22)
(1.01208 0.0142134 -1.07907e-22)
(1.01382 -0.00253159 1.88008e-22)
(1.0115 -0.00465693 1.30928e-22)
(1.00929 -0.00650732 1.84656e-22)
(1.01611 5.11645e-05 -1.32536e-22)
(1.00236 0.0188697 4.24149e-23)
(1.00498 0.018166 -3.16879e-23)
(1.00971 0.016783 0)
(0.999361 -0.00389619 7.85336e-23)
(1.00043 -0.00658725 -1.64602e-23)
(0.999298 -0.00561718 2.60265e-23)
(1.00295 -0.00726555 0)
(1.0011 -0.00734314 3.945e-23)
(1.00547 -0.00790916 1.23824e-22)
(1.00695 -0.00805777 -6.50104e-23)
(0.990405 0.01566 0)
(0.989958 0.0114545 8.94533e-23)
(0.988346 0.00799096 -8.78593e-23)
(0.998952 0.0206088 2.58046e-24)
(0.995398 0.0185459 -8.96339e-24)
(0.991375 0.0172269 0)
(0.9896 0.00578278 0)
(0.993075 -0.00303162 0)
(0.994475 -0.00330975 0)
(0.995243 -0.00367797 1.78204e-22)
(0.996664 -0.00371025 6.10043e-23)
(0.998922 -0.00310959 -1.67837e-23)
(0.997845 -0.00362992 -4.16116e-23)
(0.999526 -0.00257092 -3.69653e-24)
(0.99014 0.00031794 0)
(0.990761 -0.000642124 -1.01125e-22)
(0.992183 -0.0024946 -3.80874e-23)
(0.989202 0.00286653 -8.83225e-23)
(0.999932 -0.00102186 -2.56587e-23)
(1.00002 -0.000630384 0)
(1.00005 -0.000978135 2.28575e-23)
(0.99998 -0.00187113 2.33242e-23)
(1.00008 -0.00143415 2.9467e-23)
(1.00009 -0.00169714 6.33609e-24)
(1.00004 -0.00127978 4.77858e-24)
(0.999787 -0.00237681 3.4701e-24)
(1.0002 -0.00288228 8.76765e-24)
(1.00016 -0.00150857 1.70785e-23)
(0.999958 -0.00152693 7.29145e-24)
(1.00005 -0.00133207 0)
(0.999883 -0.001658 7.78946e-24)
(0.999321 -0.00175016 1.56929e-23)
(0.999032 -0.00224365 4.62597e-23)
(0.998584 -0.00332907 -1.4296e-25)
(0.999644 -0.00166558 0)
(1.01613 0.00529545 0)
(1.01697 0.00177284 0)
(1.01785 0.0110663 -2.61762e-22)
(1.01508 0.0160933 0)
(1.01528 -0.00376742 -2.5468e-22)
(1.01272 -0.00609806 4.38597e-23)
(1.01037 -0.00795022 -3.80416e-22)
(1.01736 -0.0028334 8.70585e-23)
(1.00106 0.0209012 0)
(1.00642 0.0216824 0)
(1.01004 0.0198581 0)
(0.998651 -0.00439572 0)
(0.999512 -0.00635793 3.59346e-23)
(0.998643 -0.00503224 -2.0592e-23)
(1.00307 -0.00881486 9.75407e-23)
(1.00083 -0.00853011 0)
(1.00438 -0.00919636 -1.02193e-22)
(1.0078 -0.00945657 -3.91387e-23)
(0.987858 0.014819 0)
(0.988127 0.0121949 -6.96261e-23)
(0.986761 0.00820422 0)
(0.997069 0.022278 3.0441e-24)
(0.99444 0.0214263 4.83939e-23)
(0.990111 0.0197174 -6.60759e-23)
(0.988184 0.00510783 0)
(0.99302 -0.00432669 4.16459e-23)
(0.994049 -0.00436739 -1.34204e-22)
(0.9956 -0.00474064 -2.64966e-23)
(0.996873 -0.00406241 1.21821e-22)
(0.999337 -0.00302166 -9.8939e-23)
(0.999045 -0.00377234 1.05215e-22)
(0.997483 -0.00401922 -5.47572e-23)
(0.998488 -0.00387045 0)
(0.999537 -0.00284601 6.26904e-25)
(0.988789 0.00050896 3.85438e-23)
(0.990265 -0.00219828 -5.24289e-23)
(0.991067 -0.00311455 4.71821e-23)
(0.988357 0.00149272 4.45385e-23)
(0.999991 -0.00056169 2.19812e-23)
(1.00008 -0.000793782 -1.98715e-23)
(1.00004 -0.00124085 -2.18396e-23)
(1.0002 -0.00204265 0)
(1.00018 -0.001447 -2.94818e-23)
(1.00023 -0.00168446 1.83703e-23)
(1.00016 -0.00135107 -5.79186e-24)
(1.00006 -0.00231871 -3.88967e-23)
(0.999812 -0.00210207 0)
(1.00008 -0.00124763 -1.98337e-23)
(0.999938 -0.00154508 -1.7332e-23)
(0.999784 -0.00156035 0)
(0.999318 -0.00150911 -2.94956e-23)
(0.999024 -0.00194037 -3.4371e-23)
(0.99841 -0.00281235 0)
(0.998285 -0.00368685 6.72293e-23)
(0.99959 -0.00143049 0)
(1.01888 0.00625957 -7.59393e-23)
(1.01946 0.00149477 -1.64496e-22)
(1.01999 0.00864364 2.73509e-22)
(1.01861 0.0141698 4.2537e-23)
(1.01286 0.0197552 -1.021e-22)
(1.01719 0.0163184 0)
(1.01721 -0.00327166 0)
(1.01469 -0.00572194 -2.81504e-22)
(1.01195 -0.00776377 2.72968e-22)
(1.00944 -0.00939788 -1.25891e-22)
(1.02047 -0.000796798 -1.06966e-23)
(1.00245 0.0233305 0)
(1.00856 0.0218729 0)
(0.998828 -0.00735321 -2.58869e-23)
(0.997459 -0.00562482 2.73765e-23)
(1.00199 -0.00935989 4.55874e-23)
(0.999261 -0.00825374 -1.6607e-23)
(1.00518 -0.0103134 -1.81659e-22)
(1.0068 -0.0106559 1.04024e-22)
(0.986016 0.0157006 -8.44207e-23)
(0.986615 0.0108193 6.90933e-23)
(0.985507 0.00732394 -3.75964e-23)
(0.99711 0.0242369 1.16243e-23)
(0.992083 0.0218097 -2.96814e-23)
(0.987333 0.0198261 7.83062e-23)
(0.986802 0.00448306 0)
(0.992137 -0.00470395 0)
(0.994454 -0.00496744 6.72138e-23)
(0.996134 -0.00504611 -8.54873e-23)
(0.996832 -0.00490848 -7.75898e-23)
(0.999715 -0.00361753 3.88214e-23)
(0.999427 -0.00389906 3.14232e-23)
(0.998 -0.00503386 -1.56781e-23)
(0.998768 -0.00479416 2.35582e-23)
(1.00004 -0.00289884 -2.56277e-23)
(0.988036 -0.000745915 -9.03431e-23)
(0.988839 -0.00228033 7.07905e-23)
(0.990916 -0.00390956 -1.32164e-22)
(0.986729 0.00251879 0)
(0.999695 -0.00151155 -1.9145e-23)
(1.0001 -0.000602883 2.64682e-23)
(1.00019 -0.00104416 -2.13859e-23)
(1.00036 -0.00197369 2.57132e-23)
(1.00024 -0.00145307 -5.17126e-25)
(1.00026 -0.00155421 5.62659e-24)
(1.00037 -0.00180937 2.69076e-24)
(1.00024 -0.00110024 -2.17534e-23)
(1.00031 -0.00256298 2.08615e-23)
(1.00009 -0.00125051 0)
(0.999943 -0.00140943 0)
(0.999926 -0.00144253 0)
(0.999751 -0.00141088 0)
(0.999508 -0.00141961 0)
(0.999187 -0.00125152 8.20999e-24)
(0.99878 -0.00166139 2.31764e-23)
(0.998084 -0.00229854 -1.81934e-23)
(0.997414 -0.00380573 -6.75292e-23)
(0.999651 -0.00134973 3.23108e-24)
(1.02071 0.00292226 -1.49016e-23)
(1.02299 0.00861067 -3.82051e-22)
(1.02244 0.0140494 -1.78616e-23)
(1.01431 0.0231473 9.75143e-23)
(1.01861 0.0188919 1.54927e-24)
(1.01795 -0.00645246 7.26432e-23)
(1.0163 -0.00727467 1.26144e-22)
(1.01343 -0.00901577 0)
(1.01026 -0.0118764 -1.47876e-22)
(1.0226 -0.00373265 -3.19238e-22)
(1.00195 0.0254782 0)
(1.00907 0.0251916 0)
(0.997605 -0.00660947 0)
(0.996841 -0.00479799 4.02056e-23)
(1.00172 -0.0106969 -1.23939e-22)
(0.998686 -0.00964654 1.78512e-23)