/*--------------------------------*- C++ -*----------------------------------*\
| =========                 |                                                 |
| \\      /  F ield         | OpenFOAM: The Open Source CFD Toolbox           |
|  \\    /   O peration     | Version:  v2012                                 |
|   \\  /    A nd           | Website:  www.openfoam.com                      |
|    \\/     M anipulation  |                                                 |
\*---------------------------------------------------------------------------*/
FoamFile
{
    version     2.0;
    format      ascii;
    class       volVectorField;
    location    "2";
    object      U_0;
}
// * * * * * * * * * * * * * * * * * * * * * * * * * * * * * * * * * * * * * //

dimensions      [0 1 -1 0 0 0 0];


internalField   nonuniform List<vector> 
11941
(
(1.00005 0.000108736 -6.64856e-24)
(1.00007 0.00022144 2.54778e-24)
(1.00012 0.000197854 8.97862e-24)
(1.00012 0.000442693 -4.05202e-25)
(1.00003 0.000101763 0)
(1.00014 0.000443448 -3.54228e-24)
(1.00007 5.69973e-05 1.49773e-23)
(1.0001 0.000503178 -1.27003e-24)
(1.00018 0.000565059 3.23061e-24)
(1.00004 0.000239955 6.11359e-25)
(1.00025 0.000497026 0)
(1.00015 0.000161803 -6.28434e-24)
(1.0002 0.000757938 1.96622e-24)
(1.00007 0.000390904 -2.67587e-24)
(1.00024 0.000669062 0)
(1.00001 0.000108652 -5.59935e-25)
(1.00028 0.000520695 0)
(1.00015 0.000226473 0)
(1.00026 0.00078415 0)
(1.00011 0.000775072 -3.85868e-25)
(1.00011 0.000550192 3.54e-25)
(1.00031 0.000807711 0)
(1.00003 0.000258273 -3.91512e-25)
(1.00026 0.000463149 -1.38048e-23)
(1.0004 0.000748796 0)
(1.00013 4.50426e-05 0)
(1.00027 0.000931987 0)
(1.0001 0.000850608 -3.19401e-25)
(1.00005 0.000477117 1.49609e-24)
(1.00036 0.000887702 0)
(1 0.000150815 3.2218e-24)
(1.00032 0.000479564 4.90317e-24)
(1.00049 0.000732357 0)
(1.00018 0.000250398 -1.1989e-23)
(1.00024 0.000997145 -4.3743e-25)
(1.00015 0.000966909 -2.92165e-25)
(1.00004 0.000830472 1.01232e-24)
(1.00002 0.000595606 -3.06276e-24)
(1.00043 0.000924002 1.05741e-23)
(0.99997 0.000237379 -3.74782e-24)
(1.00021 0.000374399 7.53304e-25)
(1.00041 0.000625934 6.04126e-24)
(1.00057 0.000742779 0)
(1.00023 7.54825e-05 2.16931e-23)
(1.00028 0.00107403 4.08604e-24)
(1.0001 0.00104048 -1.44246e-24)
(1.00002 0.000866603 0)
(1.00002 0.000553591 7.87771e-25)
(1.00053 0.000994391 1.79495e-24)
(1.00038 0.00110092 0)
(0.999992 6.89364e-05 -6.11098e-24)
(0.999993 0.000430156 -1.38435e-24)
(1.00029 0.000364468 0)
(1.00049 0.000525346 9.48535e-25)
(1.00062 0.000970905 -7.43746e-24)
(1.00066 0.000684548 3.99166e-24)
(1.00036 -0.000104211 -2.1819e-23)
(1.00024 0.00118736 -2.86353e-24)
(1.0001 0.00119565 3.83907e-25)
(1.00001 0.00098732 1.50678e-24)
(0.999999 0.000825657 0)
(1.00054 0.00105162 -7.74446e-24)
(1.00042 0.00116477 1.62766e-23)
(0.999994 0.000239994 9.99532e-24)
(0.999969 0.000433746 -5.46778e-24)
(1.00034 0.000356824 0)
(1.0006 0.000492998 -9.47751e-25)
(1.0007 0.000963981 1.17882e-23)
(1.00068 0.000671688 -3.82655e-24)
(1.00082 0.000873603 -1.72599e-23)
(1.00026 -2.1352e-05 0)
(1.00027 0.00132743 -3.0677e-24)
(1.00001 0.00119655 -1.31459e-24)
(0.999931 0.00110069 0)
(0.999874 0.000840852 6.98495e-24)
(1.00068 0.0013732 1.51144e-23)
(1.00047 0.00136695 -3.94603e-24)
(0.999972 0.000143103 -2.98739e-24)
(0.999923 0.000553123 6.72968e-24)
(1.00044 0.000319542 0)
(1.00059 0.000334228 0)
(1.00091 0.00124663 -2.39689e-23)
(1.0008 0.000519052 0)
(1.001 0.000767587 -1.8512e-24)
(1.0003 0.000132098 7.89447e-24)
(1.00021 0.00146905 2.85477e-24)
(0.999938 0.00112602 0)
(1.00002 0.00147769 2.56539e-24)
(0.999826 0.00100472 -1.74134e-23)
(0.999862 0.000833802 4.39013e-24)
(1.00056 0.00140144 -1.37421e-23)
(0.999927 0.000260054 0)
(0.999915 0.000588348 -8.97379e-24)
(1.00034 0.000291697 1.60978e-23)
(1.00071 0.000371076 3.46394e-23)
(1.00106 0.00128099 2.75947e-24)
(1.00098 0.000619662 -1.64913e-23)
(1.00119 0.00103654 3.12125e-23)
(1.00045 -0.000234125 1.2766e-23)
(1.0003 0.00163688 -2.54147e-24)
(0.999831 0.00127519 -3.78985e-24)
(0.999867 0.00145968 -2.67527e-24)
(0.999697 0.00100174 1.58677e-23)
(0.999846 0.00080704 -1.51163e-23)
(1.00055 0.00155656 7.48943e-24)
(0.999952 0.000103094 0)
(0.999909 0.000450347 7.4939e-24)
(1.00044 0.000149514 -1.75377e-23)
(1.00078 0.000243243 -1.52551e-23)
(1.00107 0.00137741 4.87155e-25)
(1.00111 0.000460406 -1.76189e-24)
(1.00147 0.000937248 -4.51365e-23)
(1.00037 -7.97748e-06 9.47744e-24)
(1.00018 0.00186508 2.46207e-24)
(0.999653 0.00123208 8.38496e-24)
(0.999813 0.00153524 0)
(0.999621 0.0010303 -4.3969e-24)
(0.999701 0.000904722 0)
(0.999769 0.000791376 8.66865e-24)
(1.0008 0.00161316 -1.44822e-23)
(0.999898 0.000202097 3.72222e-24)
(0.999854 0.000522858 -1.00623e-23)
(1.00028 8.22829e-05 -1.38345e-23)
(1.00063 0.000106555 3.72116e-24)
(1.00096 0.000267501 1.40521e-24)
(1.00139 0.00155639 1.37984e-23)
(1.00096 0.0016288 1.77085e-23)
(1.00131 0.000481279 1.13961e-23)
(1.00145 0.000681118 0)
(1.00162 0.00113923 4.20903e-23)
(1.00052 -0.000490529 -2.59749e-24)
(1.00032 0.00222604 0)
(0.999862 0.00193028 4.2667e-24)
(0.999562 0.00143631 -1.54513e-23)
(0.999608 0.00147155 1.0237e-23)
(0.999522 0.00102674 1.26459e-23)
(0.999591 0.000851773 0)
(0.999791 0.000658076 -1.33441e-24)
(1.0008 0.00225974 0)
(0.999881 0.000389283 2.62784e-23)
(0.999932 5.51884e-05 -3.39451e-24)
(1.00039 2.33199e-06 -5.00447e-24)
(1.00067 5.00933e-05 1.42451e-23)
(1.00108 8.34456e-05 1.75657e-24)
(1.00166 0.00133423 -1.31315e-23)
(1.00143 0.00193278 -8.11086e-24)
(1.00112 0.00207845 0)
(1.00137 0.000154505 4.50225e-23)
(1.00167 0.000589387 0)
(1.00192 0.000840578 2.01466e-23)
(1.00032 -0.00049261 2.74937e-23)
(1.00013 0.00243098 1.01091e-24)
(0.999703 0.00201401 -6.58068e-26)
(0.999354 0.00127349 1.48831e-24)
(0.999414 0.00184977 -1.67558e-23)
(0.999397 0.00102663 0)
(0.999472 0.000798575 0)
(0.999653 0.000693076 1.73597e-24)
(0.999717 0.00065697 -1.52016e-23)
(1.00101 0.00221656 0)
(0.999834 0.00041696 -2.91192e-23)
(0.999876 0.000209204 1.28959e-23)
(1.00058 -1.37122e-05 -1.04885e-23)
(1.00073 -5.28914e-05 -1.78526e-23)
(1.00087 -1.23403e-05 0)
(1.00127 6.9934e-05 1.92759e-24)
(1.00207 0.00156726 -2.32475e-23)
(1.0017 0.00221374 6.87549e-26)
(1.00179 0.000252378 -3.76341e-23)
(1.00223 0.00074125 2.74706e-23)
(1.0002 0.000285749 -2.68818e-23)
(1.00028 0.00288606 -2.46515e-24)
(0.999725 0.00236388 7.63713e-24)
(0.999146 0.00125486 -1.29178e-23)
(0.999147 0.00186529 8.53727e-24)
(0.999222 0.000835604 0)
(0.999413 0.000663867 -1.98355e-23)
(0.999542 0.000620342 -1.74783e-23)
(0.999789 0.000507478 1.40154e-23)
(1.00112 0.00268902 2.00466e-23)
(0.999818 0.000240834 1.49398e-23)
(1.00055 -0.000155426 0)
(1.00066 -0.000192012 2.77203e-23)
(1.00096 -0.000233245 0)
(1.00137 -7.64081e-05 -2.47826e-23)
(1.00203 0.00207832 1.2325e-23)
(1.00242 0.00135522 3.85005e-23)
(1.00168 0.00260909 -2.57461e-23)
(1.00201 0.000119041 -5.58959e-23)
(1.00229 0.000182344 5.57201e-23)
(1.00243 0.00107663 -6.96009e-23)
(1.00086 -0.000511509 1.40203e-23)
(1.00023 0.000174371 2.20289e-23)
(0.999917 0.00323229 8.38779e-25)
(1.0008 0.00296428 -6.75718e-24)
(0.999396 0.00259403 -1.47658e-23)
(0.999005 0.000956327 -9.60748e-25)
(0.999026 0.00152416 2.36255e-23)
(0.999024 0.00207285 -1.47905e-23)
(0.999264 0.00073441 5.34319e-25)
(0.999464 0.000610988 1.77264e-23)
(0.999636 0.000539888 2.13045e-23)
(0.999683 0.000520448 -4.6657e-24)
(0.999822 0.00029088 1.27238e-24)
(0.999873 3.17428e-06 -5.76078e-25)
(1.00054 -0.000200752 -3.9442e-23)
(1.00074 -0.000350932 0)
(1.00113 -0.000367769 0)
(1.00159 -0.000327527 0)
(1.00239 0.00235516 -1.73422e-23)
(1.00283 0.00165225 9.40818e-24)
(1.00193 0.00315713 -2.41553e-23)
(1.00198 -0.000112984 5.58698e-23)
(1.00266 0.000254995 -5.93439e-23)
(1.00274 0.000697263 4.20108e-23)
(1.00064 -0.00132615 -3.53094e-23)
(1.00007 -0.000285494 0)
(1.00007 0.00383253 4.29992e-25)
(0.999512 0.00312791 7.48274e-24)
(1.00105 0.00360355 -3.00092e-24)
(0.999103 0.00254056 0)
(0.998776 0.000908339 0)
(0.998682 0.00141423 -2.89204e-23)
(0.998655 0.00199052 1.5944e-23)
(0.999163 0.00059591 -1.69212e-23)
(0.999421 0.000533688 0)
(0.999599 0.00049142 0)
(0.999764 0.000369869 1.56023e-23)
(0.999816 0.000282688 -1.23908e-23)
(0.999848 0.000113922 2.19753e-23)
(1.00049 -0.000457948 2.606e-23)
(1.00069 -0.000456814 2.16378e-23)
(1.00114 -0.000460277 0)
(1.00151 -0.00058955 0)
(1.00284 0.00200966 -3.6294e-23)
(1.00261 0.00319621 3.83154e-23)
(1.00321 0.00144006 -5.23626e-23)
(1.00166 0.00357294 -1.12778e-23)
(1.00217 -0.000612288 -3.41853e-23)
(1.00291 -0.000115417 5.72479e-23)
(1.00317 0.000915735 -4.22486e-23)
(1.00029 -0.000520101 1.32516e-23)
(1.00004 -0.000250252 0)
(1.00062 0.00393682 -3.02624e-24)
(0.999635 0.0042088 7.22911e-25)
(0.99914 0.00333636 5.58634e-24)
(0.998782 0.0027464 -1.9491e-23)
(0.998717 0.000684845 -6.41403e-24)
(0.998621 0.00111984 0)
(0.998475 0.00186033 0)
(0.998339 0.00238602 0)
(0.999311 0.000405081 2.12769e-23)
(0.998932 0.00048842 0)
(0.99952 0.000434815 1.09948e-23)
(0.999691 0.000398843 -1.1841e-23)
(0.999767 0.000276114 -1.01887e-23)
(0.999823 -4.71143e-06 0)
(1.00054 -0.000576935 -2.09335e-23)
(1.00078 -0.00055059 -2.54949e-23)
(1.00096 -0.000572612 0)
(1.00123 -0.000714733 0)
(1.0017 -0.000815632 -2.38093e-23)
(1.0033 0.0026525 3.92439e-23)
(1.00298 0.00316528 -1.62002e-23)
(1.00372 0.00171479 6.92757e-23)
(1.00204 0.0042725 1.36123e-23)
(1.00267 -0.000582454 -4.42186e-23)
(1.00196 -0.000802398 6.21821e-23)
(1.00342 3.77399e-05 0)
(1.00354 0.000522327 5.53436e-23)
(1.00055 -0.00146531 1.34048e-23)
(1.00035 -0.00038014 1.14809e-23)
(1.00089 0.00478046 3.67805e-24)
(0.999679 0.00479755 -1.03462e-24)
(0.999174 0.00403447 2.0791e-24)
(0.998719 0.00313447 1.94846e-23)
(0.998382 0.000594187 1.09893e-23)
(0.998847 0.000502256 0)
(0.998301 0.00110512 -2.469e-23)
(0.998072 0.00155621 0)
(0.997897 0.00246671 1.40518e-23)
(0.999317 0.000295801 0)
(0.99904 0.000126047 -4.95445e-23)
(0.999521 0.000371305 -1.07826e-23)
(0.999669 0.000357639 -1.05041e-23)
(0.999821 0.000259883 0)
(0.999827 0.000146764 0)
(1.00054 -0.000617567 1.9959e-23)
(1.0007 -0.000793393 3.37538e-24)
(1.00094 -0.000853039 -2.14547e-23)
(1.00117 -0.000831187 0)
(1.00151 -0.00122637 -5.86926e-23)
(1.00404 0.00251785 0)
(1.00327 0.00367177 0)
(1.00415 0.0012212 0)
(1.00148 0.00484659 0)
(1.00278 0.00439456 0)
(1.00286 -0.00112401 -3.17732e-23)
(1.00207 -0.00107555 7.69459e-23)
(1.00371 -0.00050152 4.75726e-23)
(1.00406 0.000755104 -6.21519e-23)
(1.00011 -0.000992017 -3.10175e-23)
(1.00023 0.00505734 0)
(0.99911 0.00535342 7.7944e-24)
(0.998585 0.00411816 -1.11637e-23)
(0.998238 0.00346025 0)
(0.998282 0.0001663 0)
(0.99811 0.000987233 2.29009e-23)
(0.99867 0.000158606 1.79705e-23)
(0.997699 0.0015157 3.37362e-23)
(0.997582 0.00226124 -7.255e-23)
(0.997756 0.00296181 0)
(0.999462 0.000249559 0)
(0.999246 0.000126082 3.09075e-23)
(0.998896 1.22868e-05 0)
(0.999614 0.000312958 1.05221e-23)
(0.999762 0.000218447 0)
(0.999715 -7.67212e-05 0)
(1.00051 -0.000782786 -3.78163e-23)
(1.00081 -0.000857209 1.6524e-23)
(1.00054 -0.000804023 3.44573e-23)
(1.00119 -0.00116996 1.50832e-23)
(1.00169 -0.00127015 3.37943e-23)
(1.00441 0.00250422 3.75586e-23)
(1.0042 0.00388944 7.6853e-23)
(1.00487 0.00189335 0)
(1.00176 0.00610736 -3.337e-24)
(1.00311 0.00533835 1.95294e-24)
(1.00261 -0.00138389 -8.87784e-25)
(1.00347 -0.000975555 4.04778e-23)
(1.00213 -0.00152474 -5.15335e-23)
(1.00436 -0.000425112 4.18542e-23)
(1.00451 0.000443276 -5.58821e-24)
(1.00019 -0.000372546 -2.02213e-23)
(1.00032 0.00618483 0)
(0.999058 0.00608627 -7.90939e-24)
(0.998607 0.00526324 0)
(0.998253 0.00386953 -2.15588e-24)
(0.997861 0.000259614 -3.09318e-23)
(0.99842 6.64067e-05 -1.49684e-23)
(0.997779 0.000691707 0)
(0.997464 0.0013058 2.34455e-23)
(0.997088 0.00213811 2.00013e-23)
(0.997163 0.00327781 0)
(0.999501 0.000175209 -1.13588e-23)
(0.999312 6.50559e-06 3.18244e-23)
(0.998882 -0.00020456 1.20343e-23)
(0.999646 0.00024174 0)
(0.999821 0.000200615 0)
(0.9998 8.14843e-05 0)
(1.00012 -0.000663676 2.32808e-23)
(1.00083 -0.00106576 -1.18415e-23)
(1.00048 -0.000980454 -5.18628e-24)
(1.00098 -0.00122036 5.61314e-24)
(1.00157 -0.00161949 0)
(1.00475 0.00306941 -6.95153e-23)
(1.00448 0.00446485 -6.57019e-23)
(1.00554 0.00133307 4.58932e-23)
(1.00087 0.0065661 3.70796e-24)
(1.00258 0.00622564 -1.92749e-24)
(1.00403 0.00535786 0)
(1.00278 -0.00199387 3.45166e-23)
(1.0038 -0.00157225 1.95154e-24)
(1.00192 -0.00175414 5.74696e-23)
(1.00491 -0.00068001 -9.93226e-23)
(1.00516 0.00068885 -5.91622e-23)
(1.00056 -0.00180775 1.13181e-23)
(0.998515 0.00686727 7.43927e-24)
(0.997571 0.00535471 -3.18181e-23)
(0.997789 0.00414707 1.90352e-23)
(0.99761 -0.000137588 8.46454e-23)
(0.998378 -0.000267458 0)
(0.997442 0.000944777 0)
(0.997041 0.00159342 -2.52591e-23)
(0.996689 0.00259406 -3.44042e-23)
(0.996741 0.00302808 0)
(0.997198 0.00377431 -1.60863e-23)
(0.999425 6.75459e-06 -1.27481e-23)
(0.999589 0.000145258 -1.11053e-23)
(0.999226 -0.000121402 0)
(0.999164 -0.000369649 0)
(0.998721 -0.000534065 -1.46814e-23)
(0.999767 0.000109469 -2.07263e-23)
(0.999627 -0.000226151 -1.78344e-23)
(1.00011 -0.00061551 0)
(1.00054 -0.00114839 1.05635e-23)
(1.00013 -0.000850632 2.2556e-23)
(1.00094 -0.00131558 -2.93503e-23)
(1.00131 -0.0016455 -2.87285e-23)
(1.00587 0.00319884 -1.50189e-23)
(1.00543 0.00489199 1.16838e-22)
(1.00627 0.0015711 -1.50859e-23)
(1.00062 0.00765349 1.64329e-23)
(1.00294 0.00725149 -1.88875e-23)
(1.00448 0.00648958 0)
(1.00237 -0.00241473 -3.47201e-23)
(1.00342 -0.00203742 -1.54281e-22)
(1.00445 -0.00161867 0)
(1.00188 -0.00219452 -4.36733e-23)
(1.00553 -0.000100776 0)
(1.00503 -0.00106306 5.02555e-23)
(1.00038 -0.000996853 -1.23936e-23)
(0.999218 0.00784031 -9.9314e-24)
(0.997571 0.00688318 1.65283e-23)
(0.997219 0.00531994 5.45699e-23)
(0.9971 8.41939e-05 -7.7427e-23)
(0.997753 -0.00037734 -5.57714e-23)
(0.998068 -0.000495655 2.78344e-23)
(0.997018 0.000621664 -9.23696e-25)
(0.996573 0.00138309 -7.63234e-23)
(0.996003 0.00200562 8.53505e-23)
(0.996039 0.00323529 5.83371e-23)
(0.996743 0.00467538 -4.69604e-23)
(0.999543 -4.5583e-05 0)
(0.99966 6.86112e-05 3.22755e-23)
(0.999408 -0.000261144 -1.2888e-23)
(0.999192 -0.00048259 -1.87325e-24)
(0.99868 -0.000529456 0)
(0.999824 0.000134642 0)
(0.999753 2.5515e-06 0)
(1.00047 -0.00117533 -5.54572e-24)
(1.00014 -0.000970558 -4.61251e-23)
(1.00067 -0.00138341 -3.98355e-23)
(1.001 -0.00160857 2.72861e-23)
(1.00122 -0.00218929 -3.13074e-23)
(1.00657 0.00242064 -5.49523e-23)
(1.0061 0.00432209 -9.64961e-23)
(1.00561 0.00584064 -2.76961e-23)
(1.00674 0.000385751 3.98322e-23)
(1.00136 0.00859076 -2.03766e-23)
(1.00247 0.00835152 2.5171e-23)
(1.00414 0.00716575 0)
(1.00241 -0.00281132 1.12432e-23)
(1.00345 -0.00276667 1.65669e-22)
(1.00453 -0.00246791 1.1954e-22)
(1.00151 -0.00258964 0)
(1.00627 -0.000172619 -6.20152e-25)
(1.0056 -0.00175848 -3.94949e-23)
(1.00042 -0.00222078 -1.76607e-23)
(0.99877 0.00936017 2.84975e-24)
(0.996957 0.00587785 -4.72136e-23)
(0.997015 0.00779755 0)
(0.996681 -0.000238744 -3.09786e-23)
(0.997564 -0.00081636 4.7326e-23)
(0.998297 -0.00115405 0)
(0.996485 0.00103514 8.60541e-23)
(0.995401 0.00195073 3.46221e-23)
(0.995449 0.00302331 -7.31384e-23)
(0.995815 0.0046436 5.71008e-23)
(0.999526 -0.000201214 0)
(0.999628 -1.83222e-05 0)
(0.999424 -0.000502272 1.24481e-23)
(0.999141 -0.0007825 -2.29308e-23)
(0.99869 -0.0011645 0)
(0.998901 -0.000902724 7.60158e-23)
(0.999789 -8.05378e-05 0)
(0.999554 -0.000397511 1.83414e-23)
(1.00032 -0.00106389 4.2813e-23)
(1.00051 -0.00134046 2.59693e-23)
(1.00024 -0.00133867 3.21467e-23)
(1.0006 -0.00169435 -1.15229e-23)
(1.00082 -0.00177275 5.627e-23)
(1.00073 -0.00218299 5.89816e-23)
(1.00763 0.00264041 8.52434e-23)
(1.00727 0.00454846 8.52228e-24)
(1.00677 0.00693305 0)
(1.00779 0.000339504 -4.78821e-23)
(1.00072 0.00967841 9.14888e-24)
(1.00337 0.00952545 -4.04129e-24)
(1.00503 0.00793137 2.7611e-23)
(1.00199 -0.00348126 -9.51005e-24)
(1.00303 -0.00304388 -3.4831e-23)
(1.00419 -0.0028326 -8.71866e-23)
(1.00551 -0.00233927 -8.22702e-23)
(1.00142 -0.00260001 0)
(1.0065 -0.00113959 -6.28904e-24)
(0.997312 0.00913306 -1.78631e-23)
(0.999429 0.00990426 -6.4674e-24)
(0.99585 0.00608676 0)
(0.995508 0.00746419 -2.06515e-23)
(0.996105 0.00017303 -9.96116e-23)
(0.996793 -0.000704636 7.62228e-23)
(0.998048 -0.00132653 -2.67074e-25)
(0.997201 -0.00101349 -5.19872e-23)
(0.996002 0.000509795 3.41662e-23)
(0.995175 0.0023574 -5.98031e-23)
(0.995236 0.00103578 0)
(0.994845 0.00411819 2.25303e-23)
(0.995335 0.00466215 -8.78952e-23)
(0.99962 -0.000257127 0)
(0.999647 -0.00018016 0)
(0.999549 -0.000527364 0)
(0.999371 -0.00088218 -1.53812e-24)
(0.998899 -0.00114392 8.35773e-23)
(0.999977 -2.96352e-05 1.97482e-23)
(0.999729 -0.000108561 -1.34011e-23)
(1.00018 -0.00126471 -1.90526e-23)
(1.00037 -0.0014436 0)
(1.00018 -0.00246693 -1.45521e-23)
(1.00029 -0.00169313 2.88691e-23)
(1.00077 -0.00185846 -6.24095e-23)
(1.00064 -0.00227431 1.25831e-23)
(1.00796 0.00364417 1.43198e-22)
(1.00837 0.00187353 -6.93188e-23)
(1.0079 0.00627193 -1.53938e-23)
(1.00628 0.00757687 -7.38973e-23)
(1.00844 -0.000701912 -1.68882e-23)
(1.00145 0.0111475 -2.79832e-25)
(1.00296 0.0108496 5.39019e-24)
(1.00465 0.00943252 -2.7732e-23)
(1.00227 -0.0040065 -2.60881e-23)
(1.0011 -0.00347299 0)
(1.00271 -0.00400098 -2.83507e-24)
(1.00443 -0.00353362 3.6207e-23)
(1.00566 -0.00354952 1.28693e-22)
(1.00102 -0.00277143 0)
(1.00732 -0.00191781 6.68279e-23)
(0.99611 0.00993891 2.68515e-24)
(0.998899 0.0120266 -1.41195e-23)
(0.995073 0.00550568 6.3765e-23)
(0.99442 0.00775915 6.18397e-23)
(0.995665 -0.000512603 2.13975e-23)
(0.996257 -0.000958237 0)
(0.997963 -0.00156527 6.89445e-23)
(0.997179 -0.0013412 4.34561e-23)
(0.994303 0.00249113 0)
(0.994559 0.000690633 6.42737e-23)
(0.993911 0.00360982 -4.98453e-23)
(0.999669 -0.000303113 2.68829e-24)
(0.999667 -0.000470552 -3.03052e-24)
(0.999527 -0.00076286 -1.63986e-24)
(0.999397 -0.00114589 0)
(0.998893 -0.00119992 -4.46804e-23)
(0.999892 8.25332e-06 -1.82594e-23)
(0.999457 -0.000640517 1.25067e-23)
(1.00013 -0.00123828 1.62553e-23)
(1.00035 -0.00142911 1.53699e-23)
(1.00023 -0.00138054 1.69022e-23)
(1.00029 -0.00162737 -1.28641e-23)
(1.00052 -0.0018163 3.21582e-23)
(1.00055 -0.00264129 2.95843e-23)
(1.00031 -0.00211049 -2.0851e-23)
(1.00934 0.00400013 -8.30784e-23)
(1.00959 0.00183406 4.12628e-23)
(1.00912 0.00652034 0)
(1.00729 0.00911453 8.20976e-23)
(1.00833 -0.00149571 -9.29351e-23)
(1.00999 0.000471566 1.90053e-23)
(1.00061 0.0126043 -1.16091e-23)
(1.00394 0.0127091 -6.11802e-24)
(1.00577 0.0103532 7.85476e-23)
(1.00202 -0.00454321 0)
(1.00107 -0.00317727 0)
(1.00368 -0.00417743 -7.99255e-23)
(1.00524 -0.00380143 -7.62782e-23)
(1.00686 -0.00316033 -8.03246e-23)
(0.99618 0.0116181 5.89936e-23)
(0.994312 0.00911454 -1.16625e-22)
(0.997576 0.0124939 1.19454e-23)
(0.993967 0.00560362 -6.42563e-23)
(0.993429 0.00726727 -3.88893e-23)
(0.995054 -0.000636981 0)
(0.996171 -0.00137532 -4.97737e-23)
(0.998246 -0.00187459 -6.42287e-23)
(0.997492 -0.00165704 0)
(0.996797 -0.00169018 -5.12871e-23)
(0.993752 0.00184826 0)
(0.993909 0.00118886 0)
(0.994608 -0.000307174 -6.87351e-23)
(0.993201 0.00405537 7.67623e-23)
(0.999839 -0.000104979 0)
(0.999697 -0.000663908 0)
(0.999687 -0.000809836 -1.2298e-24)
(0.999229 -0.0013238 -7.15808e-24)
(0.999681 -0.00117345 2.21395e-23)
(0.998795 -0.0016357 -1.99664e-23)
(0.999716 -0.000277849 0)
(1.00014 -0.00145719 0)
(1.00028 -0.0015574 0)
(1.00015 -0.00305475 -1.92681e-23)
(1.00029 -0.00168415 2.0116e-23)
(1.00027 -0.00159886 2.64664e-23)
(1.0004 -0.00180756 -1.40721e-23)
(1.0002 -0.00264856 0)
(1.0002 -0.00200211 -1.46699e-23)
(1.00999 0.00553841 -1.3661e-23)
(1.01019 0.00216809 -5.01222e-23)
(1.0097 0.00831761 1.31243e-23)
(1.00888 0.00936153 0)
(1.00933 -0.00251847 1.54673e-22)
(1.01125 -0.000285045 4.67127e-23)
(1.00118 0.0136385 0)
(1.00328 0.0137239 0)
(1.00577 0.0120987 -6.93505e-23)
(1.00117 -0.00434905 0)
(1.00249 -0.00532808 -4.60897e-23)
(1.00069 -0.00349953 -4.42556e-23)
(1.00394 -0.00480758 1.08732e-22)
(1.00503 -0.00484076 7.10826e-23)
(1.00759 -0.00414824 1.12217e-22)
(0.99447 0.0120832 -3.96502e-23)
(0.992968 0.00975135 3.59303e-23)
(0.997379 0.0145735 2.255e-23)
(0.993238 0.00484233 2.94383e-23)
(0.992285 0.00685794 4.05698e-23)
(0.994994 -0.00177001 0)
(0.995748 -0.00221519 4.76253e-23)
(0.997953 -0.00227009 0)
(0.998636 -0.00191631 0)
(0.997379 -0.00211174 0)
(0.996841 -0.00205504 6.06063e-23)
(0.992734 0.00217358 0)
(0.99333 0.00031873 1.59665e-23)
(0.993796 -0.000419159 -1.38778e-23)
(0.992437 0.00324837 -7.8353e-23)
(0.99989 -0.000475201 0)
(0.999686 -0.000707299 -2.53459e-23)
(0.999696 -0.000923914 0)
(0.999414 -0.0015638 -2.45995e-23)
(0.999774 -0.00125895 -4.19304e-23)
(0.999188 -0.00179151 0)
(0.999536 -0.000838388 0)
(1.00011 -0.00126498 0)
(1.00022 -0.00160446 0)
(1.00019 -0.00169685 -2.20894e-23)
(1.00017 -0.00158127 -2.76431e-23)
(1.00022 -0.00189805 -1.44148e-23)
(0.999982 -0.00237919 2.37763e-23)
(1.00001 -0.00317258 4.31611e-23)
(1.00008 -0.00209746 0)
(1.01159 0.00540496 6.73267e-23)
(1.01216 0.00341879 1.49447e-23)
(1.01167 0.00825637 1.52324e-22)
(1.00953 0.0117384 -8.40661e-24)
(1.01085 -0.00189519 -2.30747e-23)
(1.00896 -0.00382204 0)
(1.01279 0.000507877 1.27213e-22)
(1.00034 0.016053 -1.72985e-23)
(1.00408 0.0151117 -1.12913e-23)
(1.00754 0.0130902 -4.59999e-23)
(1.00073 -0.00397739 -4.09273e-23)
(1.00078 -0.00522438 0)
(1.00337 -0.00539903 -5.09984e-23)
(1.00202 -0.00589026 6.59097e-23)
(1.00566 -0.00554259 7.96477e-23)
(1.00694 -0.00535061 -1.55169e-23)
(0.994063 0.0142174 -3.34818e-23)
(0.993127 0.0110661 4.52053e-23)
(0.991606 0.00910904 6.29027e-23)
(0.998708 0.0162176 0)
(0.994967 0.0151128 -2.96147e-23)
(0.992165 0.00568878 1.04281e-22)
(0.991296 0.00755489 -1.23261e-22)
(0.994153 -0.00217123 3.76303e-23)
(0.995852 -0.0023824 -3.17275e-23)
(0.997512 -0.00229952 -4.20278e-23)
(0.998196 -0.0028036 -2.85398e-23)
(0.99892 -0.0023682 3.13048e-23)
(0.99652 -0.00249718 -1.30034e-22)
(0.992004 0.00125989 0)
(0.992381 0.000377771 3.68464e-23)
(0.99345 -0.00128942 -5.40322e-23)
(0.991239 0.00351344 9.13477e-23)
(1.00009 -0.000402588 -1.69257e-23)
(0.999759 -0.000779302 0)
(0.999877 -0.000924683 0)
(0.999648 -0.00159992 -1.18372e-23)
(0.999784 -0.00146249 4.47463e-23)
(0.999953 -0.00122969 -4.40847e-23)
(0.99927 -0.0019775 0)
(0.999724 -0.000497526 0)
(1.00012 -0.0014425 1.15428e-23)
(1.00026 -0.00322304 2.10043e-23)
(1.00013 -0.00165546 -8.28367e-24)
(1.00015 -0.00174744 -2.34015e-23)
(1.00008 -0.00179109 9.76616e-24)
(0.999632 -0.00223809 -2.5306e-23)
(0.999567 -0.00302605 0)
(0.999855 -0.00190624 0)
(1.01246 0.00624968 -1.43783e-22)
(1.01356 0.00233858 -2.64117e-22)
(1.01327 0.0113257 -8.11717e-23)
(1.01171 0.0124328 7.7169e-23)
(1.01207 -0.0032088 -6.51066e-23)
(1.00998 -0.0049687 -4.87305e-23)
(1.01411 -0.000840168 -3.7696e-23)
(1.00192 0.01682 3.09159e-23)
(1.00575 0.0168784 0)
(1.00749 0.0157441 5.16617e-23)
(0.999933 -0.00420422 4.88586e-23)
(1.00117 -0.00576536 0)
(1.00006 -0.00502133 -3.70277e-23)
(1.00375 -0.00654887 0)
(1.002 -0.00697771 -4.05471e-23)
(1.00485 -0.00663375 0)
(1.00773 -0.00667419 -2.08221e-22)
(0.991861 0.0136411 8.33273e-23)
(0.991576 0.0122058 -2.16026e-23)
(0.99005 0.00994505 -9.45776e-23)
(0.997872 0.0178714 4.84166e-24)
(0.993946 0.0173433 3.33536e-24)
(0.990901 0.0047993 -1.0179e-22)
(0.989807 0.00663075 1.49006e-22)
(0.993993 -0.0028167 1.76645e-24)
(0.995715 -0.00334974 -1.56204e-22)
(0.99753 -0.00304844 4.59017e-23)
(0.998714 -0.00285382 4.70207e-23)
(0.997828 -0.00317597 2.55375e-24)
(0.999345 -0.00240257 -3.23035e-23)
(0.996956 -0.00308864 5.51074e-23)
(0.990876 0.00158003 0)
(0.991881 -0.000656727 4.61077e-23)
(0.992435 -0.00137913 3.46416e-23)
(0.99053 0.00272161 0)
(0.999956 -0.000370872 3.61935e-23)
(0.999848 -0.000658877 -9.3365e-24)
(0.999932 -0.00100508 1.98215e-23)
(0.999807 -0.00185926 1.47397e-24)
(0.999951 -0.00152286 1.07964e-23)
(1.00002 -0.00126363 -4.787e-24)
(0.999547 -0.00201076 -2.24601e-23)
(0.999559 -0.00122267 4.367e-24)
(1.00011 -0.00118705 -1.04362e-23)
(1.00021 -0.00168862 -3.35707e-23)
(1.00005 -0.00159075 1.82645e-23)
(1.00001 -0.00151562 0)
(0.99998 -0.00179133 0)
(0.99954 -0.00196323 0)
(0.999435 -0.00261651 -2.81983e-23)
(0.999317 -0.00345424 -8.85554e-23)
(0.99972 -0.00182024 0)
(1.01474 0.00688989 2.58627e-23)
(1.01558 0.00331867 1.73781e-22)
(1.01563 0.0102333 2.09333e-22)
(1.01208 0.0142127 -1.07901e-22)
(1.01382 -0.00253145 1.87999e-22)
(1.0115 -0.00465665 1.30921e-22)
(1.00929 -0.00650692 1.84647e-22)
(1.01611 5.11563e-05 -1.3253e-22)
(1.00236 0.0188687 4.24102e-23)
(1.00498 0.0181651 -3.16846e-23)
(1.00971 0.0167822 0)
(0.999362 -0.00389571 7.85286e-23)
(1.00043 -0.00658657 -1.64593e-23)
(0.999298 -0.00561653 2.60249e-23)
(1.00295 -0.00726492 0)
(1.0011 -0.00734241 3.94477e-23)
(1.00547 -0.00790859 1.23817e-22)
(1.00695 -0.00805723 -6.50069e-23)
(0.990405 0.0156589 0)
(0.989958 0.0114535 8.94516e-23)
(0.988346 0.00799011 -8.7857e-23)
(0.998952 0.0206077 2.5826e-24)
(0.995397 0.0185448 -8.96428e-24)
(0.991375 0.0172258 0)
(0.989601 0.00578204 0)
(0.993076 -0.00303177 0)
(0.994476 -0.00330979 0)
(0.995243 -0.00367796 1.78194e-22)
(0.996665 -0.00371016 6.10007e-23)
(0.998922 -0.00310937 -1.67826e-23)
(0.997845 -0.00362974 -4.16091e-23)
(0.999526 -0.00257071 -3.6963e-24)
(0.990141 0.000317465 0)
(0.990762 -0.000642521 -1.0112e-22)
(0.992184 -0.00249481 -3.80855e-23)
(0.989202 0.00286591 -8.83191e-23)
(0.999932 -0.00102179 -2.56569e-23)
(1.00002 -0.000630352 0)
(1.00005 -0.000978067 2.28558e-23)
(0.99998 -0.00187096 2.33227e-23)
(1.00008 -0.00143402 2.9465e-23)
(1.00009 -0.00169698 6.33569e-24)
(1.00004 -0.00127967 4.77825e-24)
(0.999787 -0.00237661 3.46988e-24)
(1.0002 -0.00288202 8.76686e-24)
(1.00016 -0.00150842 1.7077e-23)
(0.999958 -0.00152678 7.29083e-24)
(1.00005 -0.00133193 0)
(0.999883 -0.00165783 7.78886e-24)
(0.999321 -0.00174996 1.56918e-23)
(0.999032 -0.00224337 4.62565e-23)
(0.998584 -0.00332863 -1.42892e-25)
(0.999644 -0.00166541 0)
(1.01613 0.00529517 0)
(1.01697 0.00177273 0)
(1.01785 0.0110657 -2.61749e-22)
(1.01508 0.0160926 0)
(1.01528 -0.00376723 -2.54668e-22)
(1.01272 -0.00609773 4.38575e-23)
(1.01037 -0.00794976 -3.80397e-22)
(1.01736 -0.00283329 8.70543e-23)
(1.00106 0.0209001 0)
(1.00642 0.0216813 0)
(1.01004 0.0198571 0)
(0.998651 -0.00439515 0)
(0.999512 -0.00635722 3.59324e-23)
(0.998643 -0.0050316 -2.05906e-23)
(1.00307 -0.00881413 9.75353e-23)
(1.00083 -0.00852927 0)
(1.00438 -0.00919566 -1.02188e-22)
(1.0078 -0.00945596 -3.91365e-23)
(0.987858 0.0148179 0)
(0.988127 0.0121939 -6.96248e-23)
(0.986761 0.00820331 0)
(0.997069 0.0222768 3.04491e-24)
(0.99444 0.021425 4.83957e-23)
(0.990111 0.0197161 -6.60761e-23)
(0.988185 0.0051071 0)
(0.993021 -0.00432677 4.16436e-23)
(0.99405 -0.00436744 -1.34196e-22)
(0.995601 -0.00474057 -2.6495e-23)
(0.996874 -0.00406228 1.21814e-22)
(0.999337 -0.00302142 -9.89328e-23)
(0.999045 -0.00377208 1.05208e-22)
(0.997484 -0.00401905 -5.47538e-23)
(0.998488 -0.00387021 0)
(0.999537 -0.00284578 6.26865e-25)
(0.988789 0.000508417 3.85423e-23)
(0.990266 -0.00219864 -5.24262e-23)
(0.991068 -0.00311484 4.71797e-23)
(0.988358 0.00149212 4.45369e-23)
(0.999991 -0.000561666 2.19796e-23)
(1.00008 -0.000793725 -1.98701e-23)
(1.00004 -0.00124075 -2.18381e-23)
(1.0002 -0.00204244 0)
(1.00018 -0.00144687 -2.94799e-23)
(1.00023 -0.00168429 1.83691e-23)
(1.00016 -0.00135094 -5.79145e-24)
(1.00006 -0.0023185 -3.88942e-23)
(0.999812 -0.00210188 0)
(1.00008 -0.00124751 -1.9832e-23)
(0.999938 -0.00154493 -1.73306e-23)
(0.999784 -0.00156019 0)
(0.999319 -0.00150894 -2.94934e-23)
(0.999024 -0.00194013 -3.43685e-23)
(0.99841 -0.00281199 0)
(0.998285 -0.00368635 6.72248e-23)
(0.99959 -0.00143035 0)
(1.01888 0.00625926 -7.59357e-23)
(1.01946 0.00149465 -1.64488e-22)
(1.01999 0.0086432 2.73497e-22)
(1.01861 0.0141691 4.25349e-23)
(1.01285 0.0197542 -1.02094e-22)
(1.01719 0.0163177 0)
(1.01721 -0.00327152 0)
(1.01469 -0.00572165 -2.81491e-22)
(1.01195 -0.00776334 2.72954e-22)
(1.00944 -0.00939732 -1.25884e-22)
(1.02047 -0.000796803 -1.06961e-23)
(1.00245 0.0233293 0)
(1.00856 0.0218719 0)
(0.998828 -0.00735238 -2.58853e-23)
(0.997459 -0.00562407 2.73747e-23)
(1.00199 -0.00935905 4.55847e-23)
(0.999261 -0.00825286 -1.66059e-23)
(1.00518 -0.0103126 -1.81649e-22)
(1.0068 -0.0106552 1.04018e-22)
(0.986016 0.0156994 -8.44194e-23)
(0.986615 0.0108183 6.9092e-23)
(0.985508 0.00732305 -3.75953e-23)
(0.997109 0.0242356 1.16252e-23)
(0.992083 0.0218084 -2.96826e-23)
(0.987333 0.0198248 7.83065e-23)
(0.986802 0.00448229 0)
(0.992138 -0.00470405 0)
(0.994455 -0.00496741 6.72098e-23)
(0.996134 -0.00504597 -8.54819e-23)
(0.996833 -0.00490829 -7.7585e-23)
(0.999715 -0.00361722 3.8819e-23)
(0.999428 -0.00389875 3.1421e-23)
(0.998001 -0.00503358 -1.56771e-23)
(0.998769 -0.00479385 2.35567e-23)
(1.00004 -0.00289857 -2.5626e-23)
(0.988037 -0.000746448 -9.03389e-23)
(0.98884 -0.00228075 7.07872e-23)
(0.990917 -0.00390979 -1.32157e-22)
(0.98673 0.00251809 0)
(0.999695 -0.00151145 -1.91436e-23)
(1.0001 -0.000602843 2.64662e-23)
(1.00019 -0.00104408 -2.13843e-23)
(1.00036 -0.00197349 2.57115e-23)
(1.00024 -0.00145294 -5.17123e-25)
(1.00026 -0.00155405 5.62622e-24)
(1.00037 -0.00180917 2.69057e-24)
(1.00024 -0.00110014 -2.17517e-23)
(1.00031 -0.00256272 2.08601e-23)
(1.00009 -0.0012504 0)
(0.999943 -0.00140929 0)
(0.999926 -0.00144239 0)
(0.999751 -0.00141075 0)
(0.999508 -0.00141947 0)
(0.999187 -0.00125139 8.20939e-24)
(0.99878 -0.00166118 2.31747e-23)
(0.998084 -0.00229821 -1.81921e-23)
(0.997414 -0.00380517 -6.75245e-23)
(0.999651 -0.00134961 3.23083e-24)
(1.02071 0.00292207 -1.4901e-23)
(1.02299 0.00861023 -3.82033e-22)
(1.02244 0.0140487 -1.78607e-23)
(1.01431 0.0231463 9.75085e-23)
(1.01861 0.0188911 1.5492e-24)
(1.01795 -0.00645221 7.26396e-23)
(1.0163 -0.00727436 1.26138e-22)
(1.01343 -0.00901533 0)
(1.01026 -0.0118757 -1.47868e-22)
(1.02259 -0.0037326 -3.19223e-22)
(1.00195 0.0254769 0)
(1.00907 0.0251905 0)
(0.997606 -0.00660862 0)
(0.996842 -0.00479728 4.02028e-23)
(1.00172 -0.010696 -1.23931e-22)