/*--------------------------------*- C++ -*----------------------------------*\
| =========                 |                                                 |
| \\      /  F ield         | OpenFOAM: The Open Source CFD Toolbox           |
|  \\    /   O peration     | Version:  v2012                                 |
|   \\  /    A nd           | Website:  www.openfoam.com                      |
|    \\/     M anipulation  |                                                 |
\*---------------------------------------------------------------------------*/
FoamFile
{
    version     2.0;
    format      ascii;
    class       volVectorField;
    location    "1.3";
    object      cellDisplacement;
}
// * * * * * * * * * * * * * * * * * * * * * * * * * * * * * * * * * * * * * //

dimensions      [0 1 0 0 0 0 0];


internalField   nonuniform List<vector> 
13611
(
(1.04855e-05 0.000155204 0)
(2.92704e-05 0.000428728 0)
(1.96373e-05 0.000301115 0)
(4.98896e-05 0.000752244 0)
(3.45165e-05 0.000493299 0)
(9.50369e-06 0.00014885 0)
(4.02727e-05 0.000622024 0)
(7.32177e-05 0.0011007 0)
(1.56997e-05 0.000218409 0)
(6.25158e-05 0.000890708 0)
(1.66345e-05 0.000268688 0)
(4.57661e-05 0.000726612 0)
(8.08911e-05 0.00117993 0)
(8.75516e-05 0.0013528 0)
(3.60878e-05 0.000486062 0)
(7.44058e-05 0.00103452 0)
(3.24783e-05 0.000526455 0)
(7.49139e-06 0.000123601 0)
(6.08029e-05 0.000973746 0)
(0.00010304 0.00148483 0)
(0.000111974 0.00172854 0)
(7.84755e-05 0.00124408 0)
(2.09436e-05 0.000271846 0)
(6.72649e-05 0.000907814 0)
(0.000100441 0.00140134 0)
(3.65576e-05 0.000607695 0)
(1.36291e-05 0.00023079 0)
(6.10513e-05 0.00100382 0)
(0.000125508 0.00182591 0)
(0.00012916 0.00194195 0)
(0.000119321 0.00189654 0)
(8.5531e-05 0.00139184 0)
(4.10979e-05 0.000514949 0)
(9.79094e-05 0.00129364 0)
(0.000118081 0.00160434 0)
(5.01982e-05 0.00083908 0)
(2.70199e-05 0.000458242 0)
(6.36936e-06 0.000110054 0)
(7.38376e-05 0.00122426 0)
(0.000151925 0.0021513 0)
(0.000153798 0.00233681 0)
(0.000137152 0.00219553 0)
(0.000111049 0.00180454 0)
(9.77583e-05 0.00160347 0)
(7.7752e-05 0.000972622 0)
(2.00825e-05 0.000242009 0)
(0.00010417 0.00133509 0)
(0.000148211 0.00201814 0)
(5.20039e-05 0.000891572 0)
(3.08149e-05 0.000533657 0)
(1.29793e-05 0.000229283 0)
(7.49061e-05 0.00127062 0)
(0.000177495 0.00254242 0)
(0.000153247 0.00240964 0)
(0.000175702 0.00261256 0)
(0.000133717 0.00221538 0)
(0.000120121 0.00200274 0)
(9.77111e-05 0.00164762 0)
(9.83184e-05 0.00118797 0)
(4.31167e-05 0.000501936 0)
(0.000141336 0.00177691 0)
(0.000177252 0.00234514 0)
(4.24867e-05 0.000738759 0)
(6.37257e-05 0.00109954 0)
(2.41037e-05 0.00042574 0)
(6.56034e-06 0.000118006 0)
(8.68626e-05 0.00148567 0)
(0.000207435 0.00290251 0)
(0.000170855 0.00272905 0)
(0.000196805 0.00297147 0)
(0.000144385 0.00242434 0)
(0.000110913 0.00188569 0)
(0.000137725 0.00166717 0)
(8.42491e-05 0.000984624 0)
(2.41709e-05 0.000268506 0)
(0.000175173 0.00222629 0)
(0.000212135 0.00284833 0)
(4.22502e-05 0.000750935 0)
(6.54019e-05 0.00115115 0)
(3.11601e-05 0.000558565 0)
(1.10312e-05 0.000202723 0)
(8.62578e-05 0.00151134 0)
(0.000227652 0.00325055 0)
(0.000192117 0.00301291 0)
(0.000164918 0.00272074 0)
(0.000219393 0.00325243 0)
(0.000142326 0.0024473 0)
(0.000110563 0.00193028 0)
(0.00016699 0.00196461 0)
(0.000111235 0.00126042 0)
(5.62031e-05 0.000604723 0)
(0.000212771 0.00262355 0)
(0.00024918 0.00325193 0)
(4.95541e-05 0.000889777 0)
(7.62135e-05 0.00135057 0)
(5.90733e-05 0.00105547 0)
(3.00965e-05 0.00054911 0)
(2.12936e-05 0.000392695 0)
(4.71979e-06 8.80128e-05 0)
(9.67568e-05 0.00171425 0)
(0.000255532 0.00362113 0)
(0.000208666 0.00332173 0)
(0.000174033 0.00292961 0)
(0.000239518 0.00361493 0)
(0.000152475 0.0026588 0)
(0.000133511 0.00234731 0)
(0.000121373 0.00215198 0)
(0.000209186 0.00247409 0)
(0.000154551 0.00175818 0)
(0.000101893 0.0011109 0)
(3.48012e-05 0.000353604 0)
(0.000252088 0.00314125 0)
(0.000276559 0.00366516 0)
(4.83718e-05 0.000886494 0)
(7.36944e-05 0.00133481 0)
(6.42811e-05 0.0011684 0)
(3.98647e-05 0.000736156 0)
(2.24889e-05 0.000422574 0)
(8.27436e-06 0.000157061 0)
(9.38623e-05 0.00170404 0)
(0.00027402 0.00377616 0)
(0.00026164 0.00385738 0)
(0.000233583 0.00364508 0)
(0.000206388 0.00339771 0)
(0.000191238 0.00321839 0)
(0.000164287 0.00284993 0)
(0.000142411 0.00253941 0)
(0.000114639 0.00209696 0)
(0.000247627 0.00282667 0)
(0.000181332 0.00199052 0)
(0.000146865 0.00156402 0)
(8.92548e-05 0.000886675 0)
(0.000288199 0.00347903 0)
(0.000315425 0.00409804 0)
(5.76618e-05 0.00106382 0)
(8.10158e-05 0.00148493 0)
(3.84099e-05 0.00072125 0)
(1.61165e-05 0.000306361 0)
(2.99096e-05 0.000565631 0)
(3.6894e-06 7.09862e-05 0)
(0.000101421 0.00187015 0)
(0.000301105 0.0041724 0)
(0.000286813 0.00424877 0)
(0.000244728 0.00393445 0)
(0.000225991 0.00375796 0)
(0.000189067 0.00329565 0)
(0.000172453 0.00305079 0)
(0.000142609 0.00259855 0)
(0.000120538 0.00225139 0)
(0.000287585 0.0033131 0)
(0.00023307 0.00254755 0)
(0.000155509 0.00159117 0)
(9.55651e-05 0.000910335 0)
(0.000329289 0.00399277 0)
(0.000340629 0.00427455 0)
(0.000325139 0.0043646 0)
(5.96086e-05 0.00111899 0)
(7.81296e-05 0.00145985 0)
(4.36107e-05 0.000831294 0)
(1.80254e-05 0.000347537 0)
(3.0213e-05 0.000580024 0)
(7.10842e-06 0.000138757 0)
(9.52398e-05 0.00180086 0)
(0.000308845 0.00441733 0)
(0.000289247 0.00444987 0)
(0.000266024 0.004265 0)
(0.000222161 0.00383037 0)
(0.000201042 0.00354903 0)
(0.000165924 0.00301636 0)
(0.000132471 0.00246896 0)
(0.000152653 0.0028094 0)
(0.000112665 0.00215913 0)
(0.000333575 0.00374819 0)
(0.000263682 0.0027607 0)
(0.000220708 0.00222453 0)
(0.00018572 0.0017341 0)
(4.02419e-05 0.000372439 0)
(0.000361695 0.00420286 0)
(0.0003897 0.00489079 0)
(0.000351736 0.00475818 0)
(5.19541e-05 0.000991299 0)
(6.87148e-05 0.00129734 0)
(8.49715e-05 0.00161258 0)
(3.75633e-05 0.000725035 0)
(1.37114e-05 0.000267551 0)
(2.47377e-05 0.000478604 0)
(3.39203e-06 6.70282e-05 0)
(0.000100677 0.00193805 0)
(0.000338582 0.00479437 0)
(0.000314555 0.00489777 0)
(0.000272255 0.00453485 0)
(0.000234222 0.00412721 0)
(0.000196344 0.00357851 0)
(0.000170277 0.00317215 0)
(0.000137022 0.0026195 0)
(0.000148252 0.00281582 0)
(0.000116777 0.00228478 0)
(0.000356617 0.00383828 0)
(0.000326282 0.00338662 0)
(0.00024203 0.00233211 0)
(0.00020865 0.00185317 0)
(7.58305e-05 0.000663058 0)
(0.00040795 0.00470645 0)
(0.000425651 0.0051247 0)
(0.000386951 0.00508463 0)
(5.4815e-05 0.00106507 0)
(6.97251e-05 0.00134101 0)
(7.88511e-05 0.00152271 0)
(3.74885e-05 0.000734278 0)
(1.78254e-05 0.000351477 0)
(2.47112e-05 0.00048525 0)
(5.45328e-06 0.000109052 0)
(9.60845e-05 0.00188771 0)
(0.000352668 0.00509498 0)
(0.00030051 0.00493426 0)
(0.000340893 0.00516533 0)
(0.000256258 0.00445864 0)
(0.000221968 0.00408858 0)
(0.000206156 0.00383354 0)
(0.000181686 0.00338856 0)
(0.000156799 0.00300526 0)
(0.000129271 0.00252869 0)
(0.000109105 0.00218581 0)
(0.000416251 0.0044318 0)
(0.000364317 0.00358929 0)
(0.000322771 0.00306486 0)
(0.000151495 0.00130602 0)
(0.000296064 0.00257809 0)
(3.48406e-05 0.000290858 0)
(0.000438069 0.00483872 0)
(0.00047293 0.00566253 0)
(0.000412161 0.00554224 0)
(6.35493e-05 0.00123825 0)
(5.0127e-05 0.000987336 0)
(8.01983e-05 0.00157685 0)
(4.26696e-05 0.000842758 0)
(2.99102e-05 0.000590883 0)
(1.5943e-05 0.000317573 0)
(2.10649e-06 4.25882e-05 0)
(1.02944e-05 0.000206045 0)
(8.74635e-05 0.00173234 0)
(0.000100339 0.00201082 0)
(0.000388939 0.00549926 0)
(0.000309337 0.00522662 0)
(0.000363766 0.0055871 0)
(0.000259595 0.00469483 0)
(0.000226666 0.00432659 0)
(0.000195211 0.00375544 0)
(0.000181885 0.00349803 0)
(0.000157253 0.00309536 0)
(0.000130171 0.00260843 0)
(0.000111785 0.00228845 0)
(0.000459333 0.00467894 0)
(0.000440776 0.00430158 0)
(0.000354534 0.00319721 0)
(0.000166003 0.00134865 0)
(0.000320028 0.00263459 0)
(8.68326e-05 0.000692703 0)
(0.000493834 0.00538323 0)
(0.000490107 0.00613167 0)
(0.000513116 0.00580095 0)
(0.000457477 0.00604415 0)
(6.51638e-05 0.00129288 0)
(5.24027e-05 0.00105023 0)
(7.26749e-05 0.00144877 0)
(4.11939e-05 0.000825924 0)
(2.98213e-05 0.000596945 0)
(1.91448e-05 0.00038577 0)
(5.53542e-06 0.000112549 0)
(1.04298e-05 0.000210988 0)
(8.64667e-05 0.00174685 0)
(9.36146e-05 0.00190539 0)
(0.000395161 0.00579322 0)
(0.000336478 0.00564472 0)
(0.000294477 0.00520589 0)
(0.000361318 0.0058168 0)
(0.000242747 0.00460254 0)
(0.000275494 0.00499458 0)
(0.00021112 0.00419619 0)
(0.000196392 0.0038939 0)
(0.000170666 0.00337067 0)
(0.000147896 0.00298916 0)
(0.000120914 0.00247396 0)
(0.000137584 0.00279204 0)
(0.00010505 0.00220061 0)
(0.000517704 0.00533317 0)
(0.000492746 0.004552 0)
(0.000447868 0.00396254 0)
(0.000243369 0.00193297 0)
(0.000407952 0.00329682 0)
(5.72723e-05 0.000427429 0)
(0.000538117 0.00663456 0)
(0.00056259 0.00631779 0)
(0.000464166 0.00644571 0)
(5.88659e-05 0.00118431 0)
(4.6759e-05 0.000945515 0)
(7.32648e-05 0.00148691 0)
(3.57608e-05 0.00072091 0)
(2.45239e-05 0.000495226 0)
(1.48806e-05 0.000302096 0)
(5.59434e-06 0.00011468 0)
(7.99427e-05 0.00163247 0)
(9.25153e-05 0.00191728 0)
(0.000425654 0.00622408 0)
(0.000326949 0.00581644 0)
(0.000303832 0.00553836 0)
(0.000387729 0.00624926 0)
(0.00024852 0.00486575 0)
(0.000268369 0.00511617 0)
(0.000207249 0.00430361 0)
(0.000183136 0.00374382 0)
(0.000170958 0.0034808 0)
(0.000149649 0.00312716 0)
(0.000122226 0.00255652 0)
(0.000130973 0.00273449 0)
(0.000107455 0.00230132 0)
(9.70993e-05 0.00204007 0)
(0.0005713 0.00573834 0)
(0.000570009 0.00522769 0)
(0.000478441 0.0040068 0)
(0.000261584 0.0019589 0)
(0.000440506 0.0033696 0)
(0.000149175 0.00107833 0)
(0.000568931 0.00666498 0)
(0.000562887 0.00713985 0)
(0.000616911 0.00662885 0)
(0.000500515 0.00699257 0)
(6.01043e-05 0.0012299 0)
(4.56628e-05 0.000937117 0)
(6.7057e-05 0.00137782 0)
(3.50537e-05 0.000716084 0)
(2.5579e-05 0.000522424 0)
(1.48758e-05 0.000305124 0)
(1.03433e-05 0.000213079 0)
(2.19343e-06 4.51917e-05 0)
(7.95453e-05 0.00165473 0)
(8.50361e-05 0.00178164 0)
(0.000420856 0.00644999 0)
(0.000337741 0.00614268 0)
(0.000283813 0.00543686 0)
(0.000388715 0.00653598 0)
(0.000236244 0.0048609 0)
(0.000190824 0.00408945 0)
(0.000216413 0.00457555 0)
(0.000181074 0.00383537 0)
(0.000159571 0.00334661 0)
(0.000140759 0.00300908 0)
(0.000115739 0.00247647 0)
(0.000132325 0.00281971 0)
(0.000101169 0.00221288 0)
(9.12165e-05 0.00195699 0)
(0.000594274 0.00567996 0)
(0.00062573 0.00642575 0)
(0.000637299 0.00557888 0)
(0.000571176 0.00462732 0)
(0.00037025 0.00271442 0)
(0.000556046 0.00422232 0)
(0.000151245 0.00102888 0)
(0.000616857 0.00716591 0)
(0.000616452 0.00749247 0)
(0.000547011 0.00732377 0)
(0.000655599 0.00723239 0)
(0.00048331 0.00721121 0)
(5.53708e-05 0.00114701 0)
(4.93187e-05 0.00102272 0)
(3.95944e-05 0.000816147 0)
(6.73636e-05 0.00140893 0)
(3.04817e-05 0.000625437 0)
(2.27873e-05 0.000468943 0)
(1.8506e-05 0.00038175 0)
(1.0001e-05 0.000207572 0)
(3.73889e-06 7.78103e-05 0)
(7.32401e-05 0.00154133 0)
(8.46727e-05 0.0018089 0)
(0.000445608 0.00690156 0)
(0.00032156 0.00623525 0)
(0.000367028 0.00648927 0)
(0.000280439 0.00560997 0)
(0.000422591 0.00695564 0)
(0.000240891 0.00514158 0)
(0.000184208 0.00411172 0)
(0.000202709 0.00455663 0)
(0.00016923 0.00367799 0)
(0.000159457 0.00344839 0)
(0.000137129 0.00302378 0)
(0.000117168 0.00256411 0)
(0.000125041 0.0027308 0)
(0.000102554 0.00229693 0)
(9.2992e-05 0.00203129 0)
(0.000669876 0.00630809 0)
(0.000690319 0.00677458 0)
(0.000650625 0.00537433 0)
(0.000704799 0.00631421 0)
(0.0004075 0.00281266 0)
(0.000622016 0.00447776 0)
(5.33959e-05 0.000353001 0)
(0.000305119 0.00200809 0)
(0.000658577 0.00803612 0)
(0.00058313 0.00798132 0)
(0.000715253 0.00778637 0)
(0.000501694 0.00770133 0)
(5.63846e-05 0.001187 0)
(4.68344e-05 0.000986669 0)
(3.80836e-05 0.000794857 0)
(6.15952e-05 0.00130314 0)
(2.94309e-05 0.000610931 0)
(2.51836e-05 0.000523096 0)
(1.81932e-05 0.000378981 0)
(1.22185e-05 0.00025502 0)
(6.86733e-06 0.000143154 0)
(1.63899e-06 3.43052e-05 0)
(7.27984e-05 0.00156009 0)
(7.86686e-05 0.00169951 0)
(0.000337124 0.00664871 0)
(0.000297497 0.00600311 0)
(0.000367557 0.00683251 0)
(0.000259013 0.0054602 0)
(0.000427918 0.00732101 0)
(0.000224406 0.00505591 0)
(0.000170226 0.00390374 0)
(0.000188291 0.00431477 0)
(0.000206237 0.00476537 0)
(0.000164564 0.00372136 0)
(0.00015084 0.00336229 0)
(0.000141058 0.00316807 0)
(0.000127171 0.00283396 0)
(0.000110172 0.00247226 0)
(9.61636e-05 0.00219214 0)
(8.76165e-05 0.00195169 0)
(0.000761408 0.00743224 0)
(0.000762932 0.00606274 0)
(0.000784526 0.00688852 0)
(0.000547393 0.00372544 0)
(0.0007436 0.00532198 0)
(7.13038e-05 0.000413182 0)
(0.000337308 0.00208479 0)
(0.000718863 0.00828591 0)
(0.000642677 0.00836281 0)
(0.000551972 0.00813094 0)
(0.00077406 0.00794572 0)
(0.000465942 0.00774913 0)
(5.08348e-05 0.00108035 0)
(4.17053e-05 0.000880307 0)
(3.26443e-05 0.000682881 0)
(6.15994e-05 0.00132588 0)
(2.23951e-05 0.00046844 0)
(1.5495e-05 0.000323964 0)
(1.0473e-05 0.000219848 0)
(7.75503e-06 0.0001627 0)
(3.1662e-06 6.67637e-05 0)
(6.69542e-05 0.00145086 0)
(7.73775e-05 0.00170334 0)
(0.000320893 0.00679872 0)
(0.000278977 0.00606353 0)
(0.000392954 0.00723523 0)
(0.000257807 0.00572353 0)
(0.000222923 0.0052527 0)
(0.000165083 0.00394661 0)
(0.000174893 0.00420435 0)
(0.000195251 0.00477665 0)
(0.000153473 0.00352128 0)
(0.000133359 0.00310083 0)
(0.000121298 0.00277289 0)
(0.000112104 0.00257338 0)
(8.92694e-05 0.00202821 0)
(9.45114e-05 0.00220744 0)
(8.10428e-05 0.00180861 0)
(0.00082529 0.00756949 0)
(0.000805592 0.00603242 0)
(0.000828702 0.00685408 0)
(0.000608045 0.00387873 0)
(0.000825037 0.00554141 0)
(0.000195731 0.00112392 0)
(0.000498038 0.00302474 0)
(0.000773041 0.00891139 0)
(0.000683842 0.00896947 0)
(0.000564188 0.00864841 0)
(0.000856175 0.00873143 0)
(0.000467679 0.00819047 0)
(5.07535e-05 0.00109431 0)
(3.90682e-05 0.000832965 0)
(3.11939e-05 0.000659355 0)
(5.62347e-05 0.00122198 0)
(2.30961e-05 0.000487401 0)
(1.49678e-05 0.000315464 0)
(1.17804e-05 0.000248479 0)
(6.06395e-06 0.000127935 0)
(1.50057e-06 3.17893e-05 0)
(6.63153e-05 0.00146358 0)
(7.09939e-05 0.00157871 0)
(0.000339552 0.00728464 0)
(0.00028639 0.00642749 0)
(0.000384213 0.0075626 0)
(0.000237796 0.00559265 0)
(0.000204187 0.00507324 0)
(0.000154401 0.00380171 0)
(0.000170352 0.00429225 0)
(0.000178994 0.00456499 0)
(0.000145672 0.00345966 0)
(0.000135402 0.00323339 0)
(0.000123869 0.00289747 0)
(0.000106483 0.00250946 0)
(8.40938e-05 0.00194922 0)
(8.66439e-05 0.00204154 0)
(9.84118e-05 0.00233342 0)
(7.60669e-05 0.00173155 0)
(0.000909928 0.00824022 0)
(0.000941221 0.00683347 0)
(0.000938197 0.0075856 0)
(0.000766999 0.00484844 0)
(0.000964615 0.00651994 0)
(0.00028157 0.00154019 0)
(0.000505451 0.0028675 0)
(0.000848496 0.00919662 0)
(0.00075429 0.00927473 0)
(0.000666282 0.00926975 0)
(0.000614046 0.00912253 0)
(0.000513565 0.00865798 0)
(0.00093063 0.00889968 0)
(0.000417423 0.00807962 0)
(4.66217e-05 0.0010137 0)
(3.40781e-05 0.000726322 0)
(3.93642e-05 0.00084956 0)
(2.69361e-05 0.000571217 0)
(5.55586e-05 0.00122891 0)
(1.9789e-05 0.000420117 0)
(1.64049e-05 0.000347826 0)
(1.03833e-05 0.000220114 0)
(7.40187e-06 0.000156962 0)
(2.37231e-06 5.05685e-05 0)
(6.02367e-05 0.00134399 0)
(7.04217e-05 0.00159624 0)
(0.000318687 0.00744197 0)
(0.000262162 0.00642309 0)
(0.000228734 0.00573135 0)
(0.000196268 0.00517049 0)
(0.000147841 0.00383384 0)
(0.000145926 0.00357879 0)
(0.00015347 0.00405313 0)
(0.000169435 0.00462287 0)
(0.000127038 0.00314239 0)
(0.00011717 0.00282284 0)
(0.00010893 0.00263291 0)
(7.74822e-05 0.00179571 0)
(8.3525e-05 0.00201001 0)
(9.3826e-05 0.00228509 0)
(0.000978932 0.00830144 0)
(0.00100945 0.00759948 0)
(0.000865976 0.00513601 0)
(0.00107666 0.00690537 0)
(0.00025849 0.00133769 0)
(0.000641319 0.00351875 0)
(0.000906014 0.00993917 0)
(0.000793018 0.00983008 0)
(0.000710236 0.0099281 0)
(0.000612483 0.00955275 0)
(0.000518409 0.00909062 0)
(0.00101354 0.00957263 0)
(0.000404727 0.00844783 0)
(4.65897e-05 0.00102865 0)
(4.19322e-05 0.000911383 0)
(3.23352e-05 0.000695853 0)
(3.47755e-05 0.000753966 0)
(2.63908e-05 0.000564944 0)
(5.02241e-05 0.00111824 0)
(2.03613e-05 0.000436084 0)
(1.42997e-05 0.000304835 0)
(1.15237e-05 0.000245489 0)
(6.50367e-06 0.00013852 0)
(9.24447e-07 1.97644e-05 0)
(4.40264e-06 9.39676e-05 0)
(5.95664e-05 0.00135241 0)
(6.50259e-05 0.00148913 0)
(0.000328452 0.00789393 0)
(0.000283366 0.00718376 0)
(0.000261812 0.00677904 0)
(0.000236181 0.00605691 0)
(0.000206034 0.00548346 0)
(0.00017731 0.00492894 0)
(0.000136485 0.00360544 0)
(0.000135971 0.00346721 0)
(0.000145998 0.00408215 0)
(0.000153396 0.00437798 0)
(0.000127311 0.00325679 0)
(0.000118415 0.00293603 0)
(0.000102975 0.00255794 0)
(7.24842e-05 0.00171081 0)
(8.69145e-05 0.00212878 0)
(7.74659e-05 0.0018799 0)
(9.60053e-05 0.00238919 0)
(0.00108038 0.00904002 0)
(0.00114359 0.00842749 0)
(0.00104185 0.00621061 0)
(0.000812631 0.00453874 0)
(0.00122059 0.00789978 0)
(0.000479679 0.00237769 0)
(0.000105247 0.000520978 0)
(0.000633031 0.00323042 0)
(0.000980304 0.0103022 0)
(0.000863356 0.0101835 0)
(0.000765815 0.0101709 0)
(0.000669921 0.0100591 0)
(0.000571661 0.00952308 0)
(0.000487071 0.00924035 0)
(0.00102658 0.010131 0)
(0.00109265 0.00964517 0)
(0.000438965 0.00901611 0)
(0.000358875 0.00829265 0)
(4.22704e-05 0.000937891 0)
(3.96937e-05 0.000873579 0)
(2.89281e-05 0.000623487 0)
(3.29875e-05 0.000722809 0)
(2.33178e-05 0.000501155 0)
(4.7947e-05 0.00108406 0)
(1.73642e-05 0.000373667 0)
(1.46751e-05 0.000314918 0)
(1.01443e-05 0.000217214 0)
(8.01413e-06 0.000171546 0)
(1.5282e-06 3.2812e-05 0)
(4.54523e-06 9.7442e-05 0)
(5.45638e-05 0.00125297 0)
(6.38283e-05 0.00148693 0)
(0.000287203 0.00787726 0)
(0.000265858 0.00748358 0)
(0.000230862 0.00664802 0)
(0.000211457 0.00598127 0)
(0.000196064 0.0056132 0)
(0.000166181 0.00499988 0)
(0.0001262 0.0034829 0)
(0.000131904 0.00384839 0)
(0.000143567 0.00439551 0)
(0.000117829 0.00313036 0)
(0.00011064 0.00283091 0)
(0.000103557 0.00264551 0)
(7.30373e-05 0.00175854 0)
(6.67959e-05 0.00157655 0)
(8.28987e-05 0.00208045 0)
(7.45868e-05 0.00185206 0)
(9.09219e-05 0.00231652 0)
(0.00116985 0.00915619 0)
(0.00124458 0.00858823 0)
(0.00116784 0.00653529 0)
(0.000943615 0.00491143 0)
(0.00135468 0.00818542 0)
(0.000488873 0.00222178 0)
(0.000260294 0.00117866 0)
(0.000835051 0.00410947 0)
(0.00102297 0.0109808 0)
(0.000877144 0.010696 0)
(0.000808956 0.0106718 0)
(0.000667446 0.0104469 0)
(0.000568472 0.00991957 0)
(0.000515578 0.00977559 0)
(0.00110869 0.0107298 0)
(0.00117962 0.0103015 0)
(0.000411227 0.00933539 0)
(0.000338 0.00862199 0)
(4.0675e-05 0.000912452 0)
(3.53896e-05 0.000781515 0)
(2.70161e-05 0.000587452 0)
(2.86418e-05 0.000628116 0)
(2.36889e-05 0.000513777 0)
(4.96242e-05 0.00113687 0)
(4.2908e-05 0.000971869 0)
(1.76393e-05 0.000382478 0)
(1.18484e-05 0.000254812 0)
(6.50316e-06 0.000139673 0)
(5.88462e-07 1.26546e-05 0)
(3.09004e-06 6.63958e-05 0)
(5.44844e-05 0.00127332 0)
(5.85597e-05 0.00137603 0)
(0.000287882 0.00827468 0)
(0.000239474 0.00730275 0)
(0.000207745 0.00622812 0)
(0.000224655 0.00689055 0)
(0.000174242 0.00536781 0)
(0.000148476 0.00470556 0)
(0.000116469 0.00321652 0)
(0.000123738 0.00357383 0)
(0.000124104 0.00387172 0)
(0.000128753 0.00412467 0)
(0.000109989 0.00291318 0)
(9.64596e-05 0.00253058 0)
(6.74984e-05 0.00165374 0)
(6.26724e-05 0.00150325 0)
(8.47646e-05 0.00216649 0)
(7.68202e-05 0.0019373 0)
(6.85888e-05 0.00170954 0)
(9.09178e-05 0.00237491 0)
(0.00127417 0.00991194 0)
(0.00138628 0.00955759 0)
(0.00112072 0.00581144 0)
(0.0013329 0.00749787 0)
(0.00149361 0.00906444 0)
(0.000681228 0.00295166 0)
(0.00015908 0.00065785 0)
(0.00087295 0.00398014 0)
(0.000999728 0.0113722 0)
(0.00110232 0.0112022 0)
(0.000929266 0.0111952 0)
(0.00081058 0.0110903 0)
(0.0007028 0.0109411 0)
(0.000606635 0.0103303 0)
(0.000496424 0.0100699 0)
(0.00117804 0.0108106 0)
(0.00126737 0.0104384 0)
(0.000438987 0.00986547 0)
(0.000358032 0.0090925 0)
(3.66153e-05 0.000823335 0)
(3.39192e-05 0.000756828 0)
(2.64225e-05 0.000584107 0)
(2.09859e-05 0.000457089 0)
(4.50414e-05 0.00104653 0)
(4.03019e-05 0.000922545 0)
(1.52931e-05 0.000332822 0)
(1.10199e-05 0.000238247 0)
(6.54938e-06 0.000141325 0)
(6.89419e-07 1.48647e-05 0)
(3.23626e-06 6.97888e-05 0)
(5.00392e-05 0.00118266 0)
(5.82186e-05 0.00139065 0)
(0.000253368 0.00841426 0)
(0.000210745 0.00726555 0)
(0.000182944 0.00614181 0)
(0.000200952 0.00685012 0)
(0.000161216 0.00544774 0)
(0.000135729 0.0046729 0)
(0.000105488 0.00303987 0)
(0.00011262 0.00338254 0)
(0.000112148 0.00363591 0)
(0.000118694 0.00412069 0)
(0.000101606 0.0027753 0)
(9.53129e-05 0.00258164 0)
(6.28708e-05 0.00153497 0)
(8.0538e-05 0.00211524 0)
(7.31755e-05 0.00188698 0)
(6.54762e-05 0.00166159 0)
(8.38097e-05 0.00223532 0)
(0.00138324 0.0101372 0)
(0.00150198 0.00973944 0)
(0.00125565 0.0060923 0)
(0.00148766 0.00776794 0)
(0.001626 0.00925889 0)
(0.000748057 0.00295115 0)
(0.000301676 0.00112668 0)
(0.00106537 0.0046201 0)
(0.00105887 0.0120183 0)
(0.00116081 0.0117452 0)
(0.000887844 0.0115121 0)
(0.000762194 0.0112244 0)
(0.000650504 0.0111568 0)
(0.000597244 0.0107421 0)
(0.000537039 0.0106264 0)
(0.00125242 0.0114116 0)
(0.00134956 0.0110863 0)
(0.000409897 0.010152 0)
(0.000321171 0.00937246 0)
(3.44598e-05 0.000782684 0)
(3.01431e-05 0.000676574 0)
(2.71998e-05 0.00060816 0)
(2.26633e-05 0.000501196 0)
(2.05062e-05 0.000450651 0)
(4.09624e-05 0.000949327 0)
(4.54573e-05 0.00107109 0)
(3.59953e-05 0.000824293 0)
(1.51181e-05 0.000331523 0)
(1.25057e-05 0.000271792 0)
(8.29136e-06 0.000179469 0)
(4.7002e-06 0.000101577 0)
(1.41633e-07 3.05539e-06 0)
(1.25231e-06 2.70296e-05 0)
(2.20496e-06 4.76013e-05 0)
(4.9922e-05 0.0011989 0)
(5.40786e-05 0.00130552 0)
(0.000207693 0.00803255 0)
(0.000263348 0.00902914 0)
(0.000194564 0.00746799 0)
(0.000164704 0.00580612 0)
(0.000180093 0.0065177 0)
(0.000141442 0.00518791 0)
(0.00012125 0.00436119 0)
(0.000132878 0.00488338 0)
(9.87795e-05 0.00281949 0)
(0.000103891 0.00311479 0)
(0.000108299 0.00342381 0)
(0.000103134 0.00360631 0)
(0.000105052 0.00383079 0)
(8.78192e-05 0.00243585 0)
(5.77769e-05 0.00142877 0)
(7.50008e-05 0.00197719 0)
(6.782e-05 0.00175298 0)
(5.9743e-05 0.00152606 0)
(8.2067e-05 0.00224955 0)
(0.00146788 0.0108461 0)
(0.00162868 0.0105145 0)
(0.00123577 0.00551314 0)
(0.00145362 0.00706692 0)
(0.00164317 0.00865285 0)
(0.00173749 0.00998015 0)
(0.000595814 0.00219772 0)
(0.00102245 0.00397693 0)
(0.0001465 0.000486141 0)
(0.00104052 0.012449 0)
(0.00114372 0.0121694 0)
(0.00124073 0.0118754 0)
(0.000902191 0.0119812 0)
(0.000777021 0.0117513 0)
(0.000660433 0.011668 0)
(0.000510849 0.0109455 0)
(0.00133384 0.0115399 0)
(0.00143846 0.0112461 0)
(0.000441057 0.0106745 0)
(0.000344001 0.00991036 0)
(3.04204e-05 0.000690329 0)
(2.35496e-05 0.000529074 0)
(2.1184e-05 0.000472644 0)
(1.71514e-05 0.000377847 0)
(3.65344e-05 0.000852889 0)
(4.16823e-05 0.000994155 0)
(3.36968e-05 0.000780131 0)
(1.23931e-05 0.000272157 0)
(1.10084e-05 0.0002405 0)
(7.4183e-06 0.000161384 0)
(4.26689e-06 9.25865e-05 0)
(1.58434e-07 3.4224e-06 0)
(6.5194e-07 1.40868e-05 0)
(2.01023e-06 4.35346e-05 0)
(4.61214e-05 0.00111851 0)
(5.35967e-05 0.00131606 0)
(0.000164826 0.00817119 0)
(0.000211393 0.00919238 0)
(0.000157372 0.00716749 0)
(0.000140766 0.00571462 0)
(0.000152259 0.00642753 0)
(0.000129673 0.00534154 0)
(0.00010975 0.00435221 0)
(0.000114154 0.00464866 0)
(9.06452e-05 0.00264286 0)
(9.61565e-05 0.00301087 0)
(9.85931e-05 0.00320183 0)
(9.37682e-05 0.00335557 0)
(9.5953e-05 0.00380995 0)
(8.58794e-05 0.00245728 0)
(5.64707e-05 0.0014255 0)
(6.99605e-05 0.00188805 0)
(6.44947e-05 0.00169815 0)
(5.76087e-05 0.00150106 0)
(7.47915e-05 0.00209749 0)
(0.00157602 0.0112506 0)
(0.00164978 0.0111751 0)
(0.00173412 0.0105358 0)
(0.00143995 0.00603518 0)
(0.00158093 0.00703106 0)
(0.00178954 0.00892771 0)
(0.00186901 0.0102164 0)
(0.000651753 0.00213201 0)
(0.00122784 0.00440268 0)
(0.000357076 0.00109563 0)
(0.00110544 0.0130171 0)
(0.000968776 0.0124036 0)
(0.00120977 0.0127458 0)
(0.00129879 0.0123783 0)
(0.000840299 0.0120767 0)
(0.000728991 0.0119836 0)
(0.000605073 0.0117953 0)
(0.000539532 0.0114434 0)
(0.00141012 0.0121732 0)
(0.0015132 0.0118417 0)
(0.000409892 0.0109174 0)
(0.00031447 0.0102163 0)
(2.76975e-05 0.000634389 0)
(2.23645e-05 0.000506906 0)
(1.78854e-05 0.000399739 0)
(1.59726e-05 0.000354716 0)
(3.54483e-05 0.000836527 0)
(4.23967e-05 0.00102479 0)
(3.78231e-05 0.000901626 0)
(2.93952e-05 0.000681061 0)
(1.12349e-05 0.000248141 0)
(8.67513e-06 0.000189569 0)
(5.31665e-06 0.000115739 0)
(2.68547e-06 5.82891e-05 0)
(8.14966e-07 1.76344e-05 0)
(4.55817e-05 0.00112307 0)
(4.87875e-05 0.00121024 0)
(0.000125758 0.00772557 0)
(0.000159874 0.00870803 0)
(0.000211342 0.00969673 0)
(0.000128306 0.00729736 0)
(0.000141631 0.00670355 0)
(0.000132635 0.00595923 0)
(0.000113134 0.00512195 0)
(9.79929e-05 0.00408957 0)
(0.00010617 0.00473735 0)
(8.53009e-05 0.0025758 0)
(8.77337e-05 0.00280124 0)
(9.27224e-05 0.00316917 0)
(8.33791e-05 0.00319705 0)
(8.44921e-05 0.00356683 0)
(7.91198e-05 0.00231512 0)
(5.16643e-05 0.0013129 0)
(6.50399e-05 0.00174807 0)
(6.93611e-05 0.0019271 0)
(6.01153e-05 0.00158635 0)
(5.33007e-05 0.00140313 0)
(7.35625e-05 0.00213467 0)
(0.00160209 0.0119019 0)
(0.00178371 0.0118468 0)
(0.00185039 0.0111187 0)
(0.0014815 0.00555669 0)
(0.00178587 0.00773702 0)
(0.00190172 0.00979143 0)
(0.00186594 0.00861918 0)
(0.00194062 0.0109307 0)
(0.000869669 0.00266519 0)
(0.00117228 0.00369968 0)
(0.000399805 0.00110272 0)
(0.00118858 0.0131532 0)
(0.00108316 0.0134149 0)
(0.000955815 0.0128766 0)
(0.00128579 0.0128148 0)
(0.00138391 0.0125421 0)
(0.000836427 0.0124858 0)
(0.000760184 0.0124411 0)
(0.000597167 0.0122642 0)
(0.000490668 0.0116745 0)
(0.00150192 0.0123108 0)
(0.000433518 0.0114225 0)
(0.000352288 0.0107203 0)
(0.000261271 0.0101123 0)
(2.40269e-05 0.000549748 0)
(1.83652e-05 0.000417168 0)
(1.62629e-05 0.000366818 0)
(1.27854e-05 0.000284126 0)
(3.13725e-05 0.000744852 0)
(3.92233e-05 0.000959796 0)
(3.49254e-05 0.000841766 0)
(2.71427e-05 0.000634981 0)
(8.33834e-06 0.000184111 0)
(7.23327e-06 0.000158863 0)
(4.25971e-06 9.31015e-05 0)
(1.69448e-06 3.69323e-05 0)
(3.31549e-07 7.18277e-06 0)
(4.09586e-05 0.00101405 0)
(4.81996e-05 0.00121326 0)
(8.14758e-05 0.00773119 0)
(0.000106415 0.00868173 0)
(0.000158093 0.00985038 0)
(9.94467e-05 0.00687106 0)
(0.000110002 0.00653288 0)
(0.000105336 0.00579552 0)
(9.98086e-05 0.00514808 0)
(8.47507e-05 0.00398267 0)
(8.99658e-05 0.0045531 0)
(8.37153e-05 0.00262072 0)
(7.83459e-05 0.00236358 0)
(8.17071e-05 0.00276767 0)
(8.4267e-05 0.00294983 0)
(7.9134e-05 0.00327299 0)
(7.84426e-05 0.0029348 0)
(7.72238e-05 0.0036383 0)
(4.89965e-05 0.00126512 0)
(5.95803e-05 0.00162354 0)
(6.2694e-05 0.00177084 0)
(5.71064e-05 0.00153699 0)
(4.96004e-05 0.00130009 0)
(5.32007e-05 0.00142933 0)
(6.72881e-05 0.00200522 0)
(0.00168879 0.0124565 0)
(0.00187971 0.0117479 0)
(0.00179486 0.0124888 0)
(0.00174675 0.00617435 0)
(0.00191393 0.00739746 0)
(0.0020236 0.00993825 0)
(0.00202512 0.00923996 0)
(0.00206081 0.0113544 0)
(0.000773276 0.00203864 0)
(0.00140377 0.00394061 0)
(0.000206058 0.00051221 0)
(0.00123989 0.0136511 0)
(0.00100874 0.013325 0)
(0.0011385 0.0139137 0)
(0.000886005 0.0128492 0)
(0.00135854 0.0132618 0)
(0.00142954 0.0130965 0)
(0.000746372 0.0127449 0)
(0.000633276 0.012694 0)
(0.000516532 0.0121391 0)
(0.00157444 0.0128165 0)
(0.000378296 0.011504 0)
(0.000331316 0.0110505 0)
(0.000241514 0.0105106 0)
(2.07547e-05 0.000478587 0)
(1.74151e-05 0.000399275 0)
(1.27028e-05 0.000286395 0)
(1.11386e-05 0.000249129 0)
(2.82733e-05 0.00066905 0)
(3.14327e-05 0.000755337 0)
(3.56113e-05 0.000869356 0)
(2.30858e-05 0.000541211 0)
(6.64922e-06 0.000147549 0)
(4.98065e-06 0.000109321 0)
(2.21837e-06 4.85113e-05 0)
(5.3624e-07 1.16816e-05 0)
(3.88266e-05 0.000974926 0)
(4.45547e-05 0.00113215 0)
(6.93872e-05 0.00815959 0)
(5.23859e-05 0.00722339 0)
(7.85139e-05 0.00905454 0)
(0.000179694 0.0103722 0)
(9.74617e-05 0.00958045 0)
(6.6887e-05 0.00680438 0)
(9.27768e-05 0.00609162 0)
(9.38942e-05 0.00540184 0)
(8.52835e-05 0.00478203 0)
(8.01192e-05 0.00418229 0)
(7.42167e-05 0.00238409 0)
(7.2479e-05 0.00226029 0)
(7.37827e-05 0.00255629 0)
(6.79732e-05 0.00303533 0)
(7.04525e-05 0.00271348 0)
(6.62668e-05 0.00340891 0)
(4.49892e-05 0.00116007 0)
(5.80689e-05 0.00161561 0)
(6.01613e-05 0.00174428 0)
(4.5688e-05 0.00121219 0)
(4.89603e-05 0.00133313 0)
(6.19705e-05 0.00184046 0)
(6.67956e-05 0.00207377 0)
(0.00167181 0.0129018 0)
(0.00199337 0.0121953 0)
(0.00188734 0.0130275 0)
(0.00183598 0.00573057 0)
(0.00212217 0.00803218 0)
(0.0021389 0.0105203 0)
(0.00216231 0.00942564 0)
(0.0021609 0.0111719 0)
(0.00208408 0.0119885 0)
(0.000967134 0.00228735 0)
(0.0012858 0.00314008 0)
(0.00168419 0.00475197 0)
(0.000373441 0.000727265 0)
(0.00121064 0.0140024 0)
(0.00131675 0.0138738 0)
(0.000985976 0.0136994 0)
(0.00111116 0.0143048 0)
(0.000867072 0.0132113 0)
(0.00137314 0.0137282 0)
(0.00151097 0.0134174 0)
(0.000804457 0.0131518 0)
(0.000696024 0.0128562 0)
(0.000587529 0.0130323 0)
(0.000479382 0.0124382 0)
(0.00157425 0.0132743 0)
(0.000362272 0.0118705 0)
(0.000275869 0.0109474 0)
(2.04949e-05 0.000477479 0)
(1.40743e-05 0.000324132 0)
(1.05512e-05 0.000239466 0)
(7.90749e-06 0.000176607 0)
(2.44834e-05 0.000584261 0)
(2.83527e-05 0.000686701 0)
(3.23718e-05 0.000796765 0)
(2.16051e-05 0.000512726 0)
(3.33074e-06 7.37224e-05 0)
(2.85393e-06 6.28734e-05 0)
(1.01669e-06 2.23384e-05 0)
(3.38562e-05 0.00085343 0)
(4.06699e-05 0.00103389 0)
(1.6825e-05 0.00815743 0)
(9.37016e-06 0.00713272 0)
(1.12763e-05 0.00868942 0)
(0.000155897 0.0106614 0)
(4.57967e-05 0.00983312 0)
(4.7328e-05 0.00630105 0)
(6.32949e-05 0.00593802 0)
(7.46841e-05 0.00516669 0)
(7.31787e-05 0.00477412 0)
(6.53692e-05 0.00400312 0)
(7.02351e-05 0.00235498 0)
(6.83532e-05 0.00251592 0)
(6.22251e-05 0.00309674 0)
(6.28204e-05 0.0027679 0)
(6.40566e-05 0.00264163 0)
(5.82053e-05 0.00342538 0)