/*--------------------------------*- C++ -*----------------------------------*\
| =========                 |                                                 |
| \\      /  F ield         | OpenFOAM: The Open Source CFD Toolbox           |
|  \\    /   O peration     | Version:  v2012                                 |
|   \\  /    A nd           | Website:  www.openfoam.com                      |
|    \\/     M anipulation  |                                                 |
\*---------------------------------------------------------------------------*/
FoamFile
{
    version     2.0;
    format      ascii;
    class       volScalarField;
    location    "1.3";
    object      k;
}
// * * * * * * * * * * * * * * * * * * * * * * * * * * * * * * * * * * * * * //

dimensions      [0 2 -2 0 0 0 0];


internalField   nonuniform List<scalar> 
13611
(
0.00100671
0.000629874
0.000404891
0.000492188
0.000424794
0.000659904
0.000512758
0.000541445
0.00111866
0.000401603
0.000629056
0.000563234
0.000529333
0.000613696
0.000462858
0.000399574
0.000549702
0.0010661
0.000633575
0.00056183
0.000596045
0.000622439
0.00107848
0.000359502
0.000514199
0.000572329
0.000512199
0.000655088
0.00056704
0.000580232
0.000593016
0.000624357
0.000451156
0.000426781
0.000532735
0.000660599
0.000561092
0.00108826
0.000645984
0.000552057
0.000567437
0.000590571
0.000609762
0.000617487
0.000351507
0.00109903
0.000407083
0.0005403
0.000699718
0.000598946
0.000472852
0.000657007
0.00054229
0.0005755
0.000551621
0.000604763
0.000618847
0.000633967
0.000323073
0.000432324
0.000440875
0.000532261
0.000700371
0.000680306
0.000571725
0.00107486
0.000650116
0.000526182
0.000574946
0.000548518
0.000605357
0.000632393
0.000394455
0.00031994
0.00104478
0.000506999
0.000519359
0.000731776
0.00069237
0.000708795
0.000545374
0.000665163
0.000525048
0.000560052
0.000587736
0.00053696
0.000619116
0.00064841
0.000415755
0.000311885
0.00039011
0.000513722
0.000501957
0.000731504
0.000683481
0.000713002
0.00070294
0.00066657
0.00118589
0.000668147
0.000517238
0.000554004
0.000583534
0.000532097
0.000611621
0.000631088
0.000647262
0.000484592
0.000380415
0.000303665
0.000957419
0.000498723
0.000497051
0.000754528
0.000699377
0.000717808
0.000766947
0.000719948
0.000742131
0.00068745
0.000508155
0.000521069
0.00054016
0.000563429
0.000576652
0.00059979
0.000622153
0.000666764
0.000491492
0.000393047
0.000341963
0.000529457
0.000485164
0.000489083
0.000739999
0.00070755
0.000789688
0.000714802
0.000788424
0.00125344
0.000688241
0.000501137
0.000511414
0.000539632
0.000551771
0.000585852
0.000600874
0.000634983
0.000669239
0.000482004
0.000449859
0.000332851
0.000340041
0.000475441
0.000478852
0.000491705
0.000757151
0.000729222
0.000806941
0.000769751
0.000816563
0.000808852
0.000710725
0.00050181
0.00051483
0.000528567
0.00055713
0.000574768
0.000613702
0.000652758
0.000628603
0.000691026
0.000470321
0.000452643
0.000372548
0.000283072
0.00110494
0.000465467
0.000471021
0.000486061
0.000789198
0.00074861
0.000731998
0.000835916
0.000781715
0.000819844
0.00134526
0.000712807
0.000490452
0.00050751
0.000527645
0.000552576
0.000580541
0.000608185
0.00065328
0.000637932
0.000690314
0.00046068
0.00045629
0.000362289
0.000236476
0.000645668
0.000457881
0.000461544
0.000475044
0.00080788
0.000769048
0.000754102
0.000863459
0.000843347
0.000857003
0.000906004
0.000734529
0.000488155
0.000513323
0.000497493
0.000538869
0.000563642
0.000576966
0.000596899
0.000623566
0.000670264
0.000713063
0.000451403
0.000451123
0.000405587
0.000369872
0.00029831
0.000713322
0.000449593
0.000453065
0.000470567
0.000793798
0.0008393
0.000767338
0.000855203
0.00089749
0.000865928
0.00146019
0.000795416
0.000755094
0.000733523
0.000478209
0.000508688
0.000488725
0.000537139
0.000559674
0.000587261
0.000601185
0.000630618
0.000673662
0.000714662
0.000441241
0.000443684
0.000400529
0.000340707
0.000280107
0.000414794
0.00044067
0.000452181
0.000443716
0.000460785
0.000812088
0.000861115
0.000797285
0.000892124
0.000933003
0.000981173
0.000939408
0.000860245
0.000771049
0.000753832
0.000479332
0.00049913
0.0005186
0.000489517
0.000547774
0.000527924
0.000570483
0.000586079
0.000615083
0.000648803
0.000696574
0.000664542
0.000738234
0.000435521
0.000435729
0.000424211
0.000304893
0.000322898
0.00104444
0.000443866
0.000437241
0.000460953
0.000845817
0.000894603
0.000812754
0.00092217
0.000972956
0.000982041
0.0010998
0.000795155
0.000765466
0.000470846
0.000501581
0.000511055
0.00047997
0.000537169
0.000527513
0.00056824
0.000598909
0.00061474
0.000646163
0.000695574
0.000676878
0.00073396
0.000760366
0.000428145
0.000426669
0.000411687
0.000284949
0.000313687
0.000537549
0.000437643
0.000439475
0.000429225
0.000453422
0.000867915
0.000927279
0.000843798
0.000956005
0.00100582
0.00104265
0.00106918
0.00140314
0.000807478
0.000793148
0.000470434
0.000492695
0.000514942
0.000476715
0.000542248
0.000582384
0.000557258
0.000596185
0.000629336
0.000660129
0.000712412
0.000675462
0.000753623
0.00078158
0.00042162
0.000424443
0.000416991
0.000436206
0.000272692
0.000385526
0.000375755
0.00043111
0.000431784
0.000444459
0.000426056
0.000455135
0.000902918
0.000931383
0.000963637
0.000855135
0.000990596
0.0010454
0.00107277
0.00111534
0.00109046
0.000837912
0.000806709
0.00046395
0.000492127
0.000482825
0.000511081
0.000466656
0.000532774
0.000583299
0.000561312
0.000609346
0.000623284
0.000662553
0.000709721
0.000691833
0.000751284
0.000779673
0.000414554
0.000416867
0.000418315
0.000410172
0.000253803
0.000395389
0.000951866
0.000241437
0.000425975
0.000437033
0.000419323
0.000448945
0.000910288
0.000972042
0.00100252
0.00089192
0.00102488
0.00106211
0.00112538
0.00116115
0.00112266
0.00155099
0.000856337
0.000832895
0.000480624
0.000500804
0.000476357
0.000521031
0.000461577
0.000537821
0.00059768
0.000574114
0.000550908
0.000609938
0.000634996
0.000651382
0.000681768
0.000727678
0.000772166
0.000805189
0.000410473
0.000405386
0.000403123
0.000324927
0.000402027
0.00113498
0.000153653
0.000418517
0.000428785
0.000439397
0.000411933
0.000451936
0.000951982
0.00101076
0.00103952
0.000914846
0.00110617
0.00116778
0.00120939
0.00119585
0.0012239
0.000889919
0.000842716
0.00048074
0.00050276
0.000466517
0.000513031
0.00053183
0.000595525
0.000579642
0.000551085
0.000623333
0.000660204
0.000692228
0.000715452
0.000797293
0.000771403
0.00083261
0.000403414
0.000399889
0.000397365
0.000341211
0.000399404
0.000478115
0.000200885
0.000412466
0.000421292
0.0004336
0.000404464
0.000446374
0.000978886
0.00105141
0.00108687
0.000954295
0.00114606
0.0012181
0.00126087
0.00124965
0.00165583
0.000902379
0.000878184
0.000468619
0.000491468
0.000461931
0.000518789
0.000538119
0.000606544
0.00057597
0.000561914
0.000630443
0.000649549
0.000680596
0.000728733
0.000818535
0.000800043
0.000754523
0.000855577
0.000397637
0.000386413
0.000390097
0.000382018
0.000387908
0.000375178
0.000198795
0.000404571
0.000414089
0.000419689
0.000426164
0.000437785
0.000398116
0.00045144
0.00102315
0.00108371
0.001072
0.00113407
0.000976731
0.00120996
0.00124209
0.0013156
0.00136161
0.00140975
0.000943944
0.000888681
0.000463952
0.000491587
0.000512971
0.000532662
0.000603981
0.000621377
0.000588524
0.000555576
0.000658761
0.00069099
0.000713197
0.000849096
0.000813868
0.000765038
0.000391033
0.000383174
0.0003912
0.00037856
0.000246094
0.000213646
0.000399739
0.000408784
0.000413173
0.000421536
0.000430863
0.000391892
0.000443726
0.00104434
0.00105273
0.0011331
0.00112991
0.0011804
0.00102369
0.0012531
0.00131261
0.00134073
0.00142481
0.00180075
0.00146588
0.000958538
0.00092204
0.000455797
0.000471991
0.000481552
0.000503204
0.000520768
0.000541246
0.000616392
0.000630268
0.000581802
0.000564882
0.000646697
0.000678817
0.000722045
0.000879001
0.000790289
0.000841794
0.000745532
0.000385675
0.000377571
0.000382762
0.000350447
0.000370688
0.000123812
0.0012346
0.000188011
0.000394146
0.000402506
0.000408144
0.000414093
0.000423983
0.000428606
0.000389769
0.000386354
0.000434333
0.000446876
0.00109183
0.0010996
0.001176
0.00117494
0.00123169
0.00105635
0.00132813
0.00135695
0.001418
0.00147673
0.00164271
0.00157381
0.00100372
0.000929429
0.000455974
0.000463181
0.000482832
0.000503228
0.000513231
0.000534935
0.000623055
0.000593173
0.00055999
0.000655277
0.000688412
0.000710075
0.000867645
0.000914165
0.000792216
0.000840104
0.00075001
0.000379345
0.00037127
0.00037434
0.000375892
0.000363635
0.000131984
0.000473831
0.000289641
0.000389696
0.000399783
0.000402803
0.000410284
0.000419219
0.000420912
0.000385035
0.000381344
0.000430164
0.000442501
0.00113047
0.00115241
0.00122471
0.00123817
0.0012762
0.0010462
0.00111292
0.00138219
0.00143557
0.00156372
0.00199063
0.00166729
0.00100499
0.000972164
0.000447198
0.000465519
0.000493114
0.000475028
0.000520205
0.00054397
0.000643591
0.000611375
0.0005864
0.000570946
0.000676249
0.000721338
0.000893858
0.00093755
0.00077502
0.000819586
0.000870516
0.000743406
0.000375123
0.000367262
0.000375406
0.000364601
0.000359876
0.000170731
0.00124494
0.00028077
0.00039053
0.00038526
0.000394953
0.000398354
0.000405096
0.000413687
0.000417888
0.000380707
0.0003765
0.000422509
0.000434591
0.00118262
0.00119669
0.00130116
0.00133878
0.00109691
0.00114961
0.00146208
0.0015156
0.00165089
0.00194783
0.00180222
0.00104911
0.000974316
0.000440944
0.000463986
0.000491469
0.000471716
0.000512433
0.000540249
0.000653726
0.000619169
0.000596264
0.000564541
0.000686823
0.000710064
0.000927277
0.000784375
0.000828703
0.000884648
0.000761023
0.000369426
0.000362304
0.00037034
0.000356388
0.000354867
0.000147713
0.000546494
0.000329205
0.000385257
0.000381276
0.000393197
0.000400097
0.000403843
0.000408389
0.000410304
0.000376699
0.000372409
0.000418
0.000427677
0.00122551
0.0012608
0.00131196
0.00136463
0.00138446
0.00114981
0.00109589
0.00120616
0.00150534
0.00151435
0.00161911
0.00177435
0.00222506
0.00196404
0.00192457
0.00104965
0.00100779
0.000445802
0.000430126
0.000457262
0.000500875
0.000479734
0.00051924
0.000552028
0.000530127
0.00067473
0.000638758
0.000612427
0.000589606
0.000573838
0.000723154
0.000957686
0.000808232
0.000858184
0.000921252
0.000750485
0.000366225
0.000358317
0.000361469
0.000358121
0.000351852
0.000352502
0.000228266
0.000268161
0.0013384
0.000382129
0.000381447
0.000377098
0.000389721
0.000395597
0.000397857
0.00040703
0.000372595
0.000368557
0.000411486
0.000420407
0.00128565
0.00138909
0.00143396
0.00147707
0.00120542
0.00114973
0.00125171
0.00160285
0.00161737
0.00172526
0.00188381
0.00229995
0.00214835
0.00204401
0.00109001
0.000999749
0.000440389
0.000425122
0.000460024
0.000499222
0.000478713
0.000508058
0.000543337
0.00053195
0.000686955
0.000641122
0.000622768
0.000599939
0.000564719
0.000711153
0.000957807
0.000820367
0.000863644
0.000917114
0.00076906
0.000362677
0.000358997
0.000354553
0.000359102
0.000352571
0.00034767
0.000348844
0.00021125
0.000303756
0.000771912
0.000377333
0.000384892
0.000376987
0.000374021
0.0003914
0.000393907
0.000396144
0.000401554
0.000368955
0.000365244
0.000407547
0.000413916
0.00135214
0.00143888
0.00151874
0.00154938
0.00124232
0.00113391
0.00120233
0.00132388
0.00168541
0.00171373
0.00185313
0.00203
0.00220446
0.00108356
0.00103717
0.000445421
0.000430501
0.000417856
0.000454392
0.000469893
0.000488718
0.000509472
0.000549158
0.000522411
0.000686606
0.000657914
0.000616928
0.000600116
0.000570761
0.000724719
0.000995733
0.000851806
0.000800096
0.000894706
0.000950457
0.000749005
0.000362192
0.000355201
0.000351412
0.000351871
0.000344764
0.000346449
0.000342904
0.000348376
0.000132034
0.00026827
0.000473695
0.000374495
0.000376272
0.000382954
0.000374035
0.000369826
0.000388781
0.00038988
0.000392571
0.000399083
0.000365273
0.000401889
0.000408732
0.00041257
0.00142876
0.00154109
0.00159795
0.001658
0.00131339
0.00117112
0.00122884
0.00138582
0.00180912
0.0018291
0.00197654
0.00218677
0.00234377
0.00112735
0.00102829
0.000439271
0.000426334
0.000411809
0.000457917
0.000467378
0.000485833
0.000504299
0.000546085
0.00052132
0.000677213
0.000709173
0.000646044
0.000628553
0.000585581
0.000615851
0.000556675
0.00101271
0.000872572
0.000816625
0.000904337
0.000985657
0.000931553
0.000759519
0.000358813
0.000351791
0.000355341
0.000346642
0.00033871
0.000343204
0.000340629
0.000345652
0.000164153
0.000304767
0.00134309
0.000371041
0.000379135
0.000372529
0.00038523
0.000370636
0.000368293
0.000386376
0.000388296
0.000394422
0.000362314
0.000399972
0.000403477
0.000407014
0.00150729
0.00160033
0.00171672
0.00174831
0.00137463
0.00129385
0.00122451
0.00147426
0.00192828
0.00196507
0.0021425
0.00234525
0.00115533
0.00107266
0.000431389
0.000442926
0.000419446
0.000406686
0.00041289
0.000452876
0.000474284
0.000494023
0.000511199
0.000532244
0.000691579
0.00071286
0.000655736
0.000585891
0.000624155
0.000557535
0.00105478
0.000857399
0.000809942
0.00100391
0.000954506
0.000787015
0.000734708
0.000358549
0.000348787
0.000352421
0.000345305
0.000333231
0.000341132
0.000337815
0.000342356
0.000345875
0.000164747
0.000283651
0.000334993
0.000659126
0.000370207
0.000367795
0.000377104
0.000371176
0.000382223
0.000367496
0.000365108
0.000382686
0.000385351
0.000385285
0.000390703
0.000362457
0.000395332
0.000402637
0.00153418
0.00171362
0.00182061
0.00188749
0.0014457
0.00134715
0.00128112
0.00152886
0.00211145
0.00211882
0.00231001
0.00122755
0.00111459
0.000424219
0.000437019
0.000418124
0.000402184
0.000406805
0.000458077
0.000469335
0.000492409
0.000503165
0.000525817
0.000679067
0.00064524
0.00057151
0.000600253
0.000614791
0.00054631
0.00108079
0.000883611
0.000840759
0.00099827
0.00105498
0.000926738
0.000794259
0.000740555
0.000357337
0.000347482
0.000352294
0.00034939
0.00033575
0.000329595
0.000334812
0.000337831
0.00034003
0.000343816
0.000129187
0.000314462
0.000334401
0.000254954
0.00154761
0.000366869
0.000365633
0.000373368
0.000378763
0.000367914
0.000363712
0.000362646
0.000380262
0.000381322
0.00038143
0.000386449
0.000391242
0.000359498
0.00039361
0.000397726
0.00165472
0.00182063
0.00174669
0.0019653
0.00200866
0.00143018
0.00134713
0.00128702
0.0016204
0.00228916
0.00124156
0.00112824
0.000426766
0.000441603
0.000410011
0.000398686
0.000397802
0.000404666
0.000401207
0.000452355
0.000476127
0.000486919
0.000504237
0.000535095
0.000514235
0.000689691
0.000655725
0.000570242
0.000597085
0.000624687
0.00054674
0.000871842
0.000822376
0.00103546
0.00108405
0.000946428
0.000771889
0.00072868
0.000354598
0.000344464
0.000349496
0.000347889
0.000326127
0.000334411
0.000329224
0.000332006
0.000335959
0.000340876
0.000337214
0.000259783
0.000332005
0.000288735
0.00074026
0.00036575
0.000363164
0.000371491
0.000376163
0.000365638
0.000361772
0.000359924
0.000376984
0.000379403
0.000378875
0.000383299
0.000386499
0.000358325
0.000389491
0.00169189
0.00196575
0.00189222
0.00208581
0.00218353
0.00151194
0.00141607
0.00136266
0.00166978
0.00117955
0.0013122
0.000420742
0.000435795
0.000406711
0.000393769
0.000393825
0.000398424
0.000396998
0.000457981
0.000469342
0.000492466
0.000527007
0.000515839
0.000674902
0.000709581
0.000640718
0.000557307
0.000583083
0.000609891
0.000532447
0.000898483
0.000839364
0.00102627
0.00113181
0.00098993
0.00093406
0.000770359
0.000744241
0.000353749
0.000342658
0.000349002
0.000345704
0.000322318
0.000327326
0.0003273
0.000331269
0.000333111
0.000339088
0.000335139
0.00028588
0.000328441
0.000260186
0.00146439
0.000363094
0.00036055
0.000373394
0.000369023
0.000362724
0.000366456
0.000359233
0.000357215
0.000374589
0.000375731
0.000375135
0.000379826
0.000383327
0.000385368
0.000355605
0.000389873
0.00181837
0.00208415
0.00201106
0.00193614
0.00222523
0.00230536
0.00162058
0.00149445
0.0014101
0.00180762
0.00119172
0.00131563
0.00137795
0.000425301
0.000412739
0.000440593
0.000400121
0.000390541
0.00039307
0.000392461
0.000451531
0.000474919
0.000487275
0.000505699
0.000680328
0.000701462
0.000647948
0.000557679
0.000581557
0.000610604
0.000530995
0.000877938
0.000823812
0.00107559
0.00118065
0.0011252
0.000999939
0.000960211
0.000793185
0.00073646
0.000351056
0.000340135
0.000343535
0.00034638
0.000344848
0.000319637
0.000324827
0.000324562
0.000317285
0.000328111
0.000331507
0.000337088
0.000332704
0.000335303
0.000290201
0.000327922
0.000245869
0.000821661
0.000361556
0.000360622
0.000358496
0.000371135
0.000368785
0.000360916
0.000363968
0.000356937
0.000355026
0.000371606
0.000373453
0.000373358
0.000377896
0.000379502
0.000381937
0.000385654
0.00222101
0.00218362
0.00211585
0.00232855
0.00170634
0.00157513
0.0015204
0.0019292
0.00126753
0.00138574
0.00144933
0.000420959
0.000405917
0.000435966
0.000399646
0.000394142
0.000385406
0.000387443
0.000387673
0.000456452
0.000474727
0.000494347
0.000507313
0.000670388
0.000713444
0.000643162
0.00054337
0.00056971
0.000595356
0.000625703
0.000518303
0.000897868
0.000845497
0.00107847
0.00122907
0.00117645
0.00103647
0.000940874
0.000780638
0.000753985
0.000349638
0.000339085
0.000341949
0.000345683
0.000342552
0.000320638
0.000323045
0.00031597
0.000314519
0.000327233
0.00032925
0.000336048
0.000331975
0.000333485
0.000307849
0.000324005
0.000447793
0.000284851
0.00163472
0.00035866
0.000358265
0.000356181
0.000366575
0.000358766
0.000361639
0.000364061
0.000354344
0.000352739
0.000369483
0.000370405
0.000375247
0.000370819
0.000376677
0.000378104
0.000382367
0.0023037
0.00229303
0.00210479
0.00183346
0.00168015
0.00158866
0.00193279
0.00128156
0.00140387
0.00153845
0.000413572
0.000426903
0.0004062
0.000440957
0.000394659
0.000388072
0.000383905
0.000384745
0.000382602
0.000449454
0.000466486
0.000484983
0.000495668
0.000683393
0.000705805
0.000658471
0.000538155
0.000573912
0.000590662
0.000620986
0.00051437
0.000881908
0.000831513
0.00112552
0.00122117
0.00120369
0.00103723
0.000966869
0.000799892
0.000746321
0.000350781
0.000347488
0.000340236
0.000337056
0.000343908
0.000341116
0.000319183
0.000322158
0.000311567
0.000313095
0.00031683
0.000325308
0.000327792
0.0003339
0.000330209
0.000318866
0.000314661
0.000461626
0.000287674
0.000854675
0.000357251
0.000356155
0.000354036
0.000366833
0.000357136
0.00035956
0.000361747
0.000352289
0.000367676
0.000372705
0.000367875
0.00037067
0.000372493
0.000376261
0.000378382
0.00229969
0.00188987
0.00176675
0.00171068
0.00211784
0.00133649
0.00148736
0.0016128
0.000411643
0.00042415
0.00040036
0.000436481
0.000394905
0.000388279
0.000382963
0.00038007
0.000379961
0.000378826
0.000450649
0.000467127
0.000485849
0.000492643
0.000677369
0.000721526
0.000654268
0.000525478
0.000548963
0.00056416
0.000603138
0.000636381
0.000503922
0.000907727
0.00085341
0.00108386
0.00117162
0.00128299
0.00126388
0.00100995
0.000948983
0.000793458
0.000764861
0.00034861
0.000347108
0.000338467
0.000336943
0.000343517
0.00034204
0.000338985
0.000319593
0.000323405
0.000309735
0.000310705
0.000308652
0.000315189
0.000324966
0.000326108
0.000328295
0.000332953
0.000329894
0.000320123
0.000309109
0.000357928
0.000302918
0.0014917
0.000355359
0.000353676
0.000351791
0.000364882
0.000355324
0.000357565
0.000359578
0.000362203
0.000350047
0.000365244
0.000370601
0.000365727
0.000368074
0.000371127
0.00037352
0.000376928
0.00201415
0.00178513
0.00177907
0.00214108
0.00148904
0.00158071
0.00173756
0.000403039
0.000416687
0.000429305
0.000440897
0.000389173
0.000385406
0.000377615
0.000376221
0.000376117
0.000374528
0.000457956
0.000475667
0.000483281
0.000692237
0.000712819
0.00066994
0.000525997
0.000542029
0.000572659
0.000603375
0.000640541
0.000507248
0.000890304
0.000845404
0.00108195
0.00120226
0.00130958
0.00127087
0.00102915
0.000977818
0.00081521
0.000750577
0.000348156
0.000344971
0.000337656
0.000335542
0.000341866
0.000341094
0.00033839
0.000318946
0.000322381
0.000312758
0.000305959
0.000305578
0.000315374
0.000323202
0.000324928
0.000326962
0.000334263
0.000331318
0.000328265
0.000316713
0.000308202
0.000302525
0.000323759
0.000302555
0.000804566
0.000353531
0.000352303
0.000351739
0.000349799
0.000353736
0.000355692
0.000357364
0.000361254
0.00036291
0.000367437
0.00036601
0.00036322
0.000368842
0.00037126
0.00037295
0.00205484
0.00193499
0.00191535
0.00231934
0.00145248
0.00160644
0.00167351
0.00183169
0.00039989
0.000414965
0.0004214
0.000439372
0.000383552
0.000380633
0.000373684
0.000376386
0.000372718
0.000371466
0.000370642
0.000455954
0.000473889
0.000484854
0.000686344
0.000727379
0.000672969
0.000530773
0.000512877
0.000547496
0.000595438
0.00056511
0.000626707
0.000648055
0.000490322
0.000914821
0.000863953
0.0011251
0.00118095
0.00137663
0.0013271
0.00102692
0.000959238
0.000785692
0.000760659
0.000345978
0.000344241
0.000335705
0.000334736
0.000340295
0.000339648
0.00033681
0.000317264
0.000320632
0.000311695
0.000303288
0.000307203
0.00031421
0.000323167
0.000325373
0.000327165
0.000333024
0.000331567
0.000327135
0.000313351
0.000301294
0.000299603
0.000432734
0.000301781
0.00146946
0.000351425
0.00035015
0.000349664
0.000347916
0.000353867
0.000351549
0.000355477
0.000357331
0.000359271
0.00036171
0.000365119
0.000363739
0.000362341
0.000366059
0.000369002
0.000370206
0.00221264
0.00197578
0.00200334
0.00152566
0.00166383
0.00178983
0.0019726
0.000392865
0.00040694
0.000424886
0.000435514
0.000448839
0.000384937
0.000377319
0.000376452
0.000369331
0.000371795
0.000369404
0.000368443
0.000367083
0.000466286
0.000476814
0.000698857
0.000712493
0.000683053
0.000515979
0.000500396
0.000511179
0.000628828
0.000581989
0.000637756
0.000566503
0.000474863
0.000893944
0.000805568
0.00113123
0.00123695
0.00136888
0.00107492
0.000988177
0.000780734
0.000723875
0.000345921
0.000342227
0.000335483
0.000333098
0.000338469
0.000340479
0.000338283
0.000336851
0.000316756
0.000319387
0.000310309
0.000312488
0.000302927
0.000306493
0.000314936
0.000322455
0.000324768
0.000325609
0.000330514
0.000325344
0.000327944
0.000307251
0.00029738
0.000298912
0.000299568
0.000337972
0.000298701
0.000951302
0.000349878
0.000348786
0.000348005
0.000352363
0.000350065
0.000353578
0.000355362
0.000357901
0.000358935
0.000361658
0.000361172
0.000360184
0.000364321
0.000367131
0.000367593
0.00230071
0.00214712
0.00216436
0.00162124
0.00146214
0.00177706
0.001901
0.00208575
0.000394745
0.000407914
0.000423615
0.000439041
0.00045273
0.000377632
0.000372446
0.000372196
0.000368376
0.000366398
0.000366978
0.000364778
0.000363319
0.000473403
0.000463422
0.000708687
0.000659097
0.000509524
0.000497114
0.000529291
0.000621039
0.000587274
0.00057535
0.000544872
0.000501247
0.000475276
0.000901339
0.000773515
0.00118483
0.00130187
0.00135293
0.00107376
0.0010322
0.000932989
0.00072981
0.000710084
0.000344449
0.000341549
0.000333695
0.000332481
0.000337257
0.000338908
0.00033556
0.000317792
0.000319978
0.000309295
0.000311313
0.000301664
0.000305022
0.000307771
0.000314862
0.000321277
0.000323584
0.000330996
0.000329342
0.000324577
0.000326946
0.000305462
0.000295102
0.000294846
0.000298554
0.00038296
0.000291533
0.000756885
0.000348175
0.000346801
0.000346231
0.000350719
0.000352169
0.000348532
0.000353664
0.000355567
0.000358298
0.00036016
0.000358583
0.000358338
0.000361858
0.000365081
0.000364863
0.00231129
0.0016906
0.00150194
0.00187243
0.00180207
0.00205617
0.00223
0.000388563
0.000401346
0.000416027
0.000430622
0.000433633
0.000420504
0.00045696
0.000379404
0.000372007
0.000367032
0.000367495
0.000364039
0.000362496
0.000363897
0.000364895
0.000361916
0.000363397
0.000361033
0.000465887
0.000655441
0.00036786
0.000475284
0.000931789
0.00029448
0.000441279
0.000555557
0.000155668
0.000360917
0.000530633
0.000807011
0.000708186
0.00120384
0.00133444
0.00143199
0.00112624
0.00103512
0.000916863
0.000687064
0.000668888
0.000344879
0.000342882
0.00034002
0.000333175
0.000335916
0.000337659
0.000338705
0.000335051
0.000334331
0.000317793
0.000318915
0.000309549
0.000312016
0.000302644
0.000304229
0.000306706
0.000316432
0.000313554
0.000321001
0.000322021
0.000330094
0.000328464
0.000325729
0.000323349
0.000327192
0.00029545
0.000302189
0.00029626
0.000293241
0.00029121
0.000299768
0.000254153
0.000282307
0.000376651
0.0014733
0.000346702
0.000346512
0.000345467
0.000349715
0.000350366
0.00034689
0.000347558
0.000351595
0.000354537
0.000355999
0.00035764
0.000356383
0.000356084
0.00036102
0.000362568
0.000362308
0.00168424
0.00160021
0.00201432
0.00190773
0.00218482
0.00232298
0.000393256
0.00039657
0.000391446
0.000373389
0.000396161
0.000364595
0.000439651
0.00037198
0.000365641
0.000363238
0.000363533
0.000361215
0.000362795
0.000358887
0.000360056
0.000358712
0.000587001
0.000647991
0.00060134
0.000530803
0.000594411
0.000419998
0.00110392
0.000572973
0.000781122
0.000740908
0.00127728
0.00117744
0.00140597
0.00146366
0.00108016
0.000960804
0.00084255
0.000649398
0.00034333
0.000342421
0.000339795
0.000331982
0.000335558
0.000336448
0.000337689
0.00033369
0.00033341
0.000319478
0.000308785
0.000310855
0.000301564
0.00030495
0.000307194
0.000315647
0.000313337
0.000321778
0.000328782
0.000330741
0.000324773
0.000322894
0.000326946
0.000290269
0.000302746
0.000295272
0.000290921
0.000289376
0.000299331
0.000293538
0.000285045
0.000935961
0.000345027
0.0003447
0.00034372
0.000348154
0.000350062
0.000345606
0.000345989
0.000350806
0.000352351
0.000354864
0.000357139
0.000355902
0.000354309
0.000354226
0.000358866
0.000360039
0.00181288
0.00163985
0.00217179
0.00194127
0.00227915
0.00039265
0.000375506
0.000367131
0.000329894
0.000315962
0.000397414
0.000342816
0.000366019
0.000372561
0.000362402
0.000358781
0.00035943
0.000357447
0.000360294
0.000358034
0.000355536
0.000358335
0.000355203
0.000356424
0.00044118
0.000616269
0.000845312
0.00126518
0.00127794
0.00127873
0.00121468
0.0014317
0.00155309
0.00109303
0.000956545
0.000896575
0.000644177
0.000342592
0.000340856
0.000338317
0.000331558
0.000334183
0.000336525
0.000333245
0.00033224
0.000318725
0.000309676
0.000310927
0.000301732
0.000304161
0.000307325
0.000316519
0.000314477
0.000312235
0.000321068
0.000328011
0.000330057
0.000324827
0.000323571
0.000321788
0.000326063
0.000285815
0.000293676
0.00029665
0.000293514
0.000291271
0.000287377
0.00029827
0.000300388
0.000295144
0.00047945
0.000280138
0.0015485
0.000343667
0.000343544
0.000347178
0.000348101
0.00034412
0.000344972
0.000348739
0.0003516
0.00035298
0.000355366
0.000353312
0.000352618
0.000352327
0.00035727
0.000357826
0.00183162
0.00174209
0.00229407
0.00211499
0.00037805
0.000343969
0.000369207
0.000447192
0.000220484
0.000268999
0.00035922
0.000366146
0.000356613
0.000356981
0.000353646
0.000356499
0.000355193
0.000355814
0.000354147
0.000355801
0.000354389
0.00104234
0.00111656
0.00139985
0.00133497
0.00121417
0.00153097
0.00140983
0.00103527
0.00115449
0.00110008
0.000341182
0.000340007
0.000337256
0.000330436
0.000333637
0.000335431
0.000332138
0.000331607
0.000317737
0.00031993
0.000308639
0.00031002
0.000302898
0.000305165
0.000306355
0.000315784
0.000314644
0.000312588
0.000328831
0.000324385
0.00032304
0.000321269
0.00032624
0.000284081
0.000289602
0.000296016
0.00029317
0.000290146
0.000288075
0.000298079
0.000300396
0.000291844
0.000369053
0.000270429
0.00103027
0.000341969
0.000341941
0.00034556
0.000347374
0.000342871
0.00034327
0.000348382
0.000349854
0.000351395
0.000353229
0.00035399
0.000350837
0.000350694
0.000350954
0.000354838
0.000355501
0.00196329
0.00178048
0.00211993
0.000347749
0.000372089
0.000312024
0.000373258
0.000897972
0.000868319
0.000354076
0.000356048
0.00036142
0.000352174
0.000352768
0.000350801
0.000352939
0.0003518
0.000353582
0.000352159
0.000353549
0.000351886
0.00128183
0.00160213
0.00149108
0.00111773
0.00117323
0.00146045
0.00034083
0.000339103
0.000337727
0.000335945
0.000329841
0.000334544
0.000332825
0.000335167
0.000331395
0.000330419
0.000318229
0.000319343
0.000308682
0.000310603
0.000302926
0.000304029
0.000306576
0.000316246
0.000313931
0.000311938
0.00032823
0.000323502
0.000325151
0.000321937
0.000319999
0.000327239
0.000281528
0.000285178
0.000282972
0.000288285
0.000296727
0.000294455
0.000291259
0.000287055
0.000299042
0.000301671
0.000286234
0.000297327
0.000575137
0.000273873
0.0016389
0.00034103
0.000341136
0.00034425
0.000345837
0.000341694
0.000342268
0.000346504
0.000349843
0.000351923
0.000352453
0.000349139
0.000349209
0.000349099
0.000354012
0.0019136
0.00170338
0.00229534
0.000297787
0.000359897
0.000278997
0.000341727
0.000357197
0.00035314
0.000352265
0.000372315
0.000346502
0.000350955
0.000347181
0.00035063
0.000350303
0.000351905
0.000352199
0.000350052
0.000351289
0.000349766
0.00131799
0.00159386
0.00146314
0.00142169
0.0012663
0.00124096
0.000339627
0.000336889
0.000334845
0.000328771
0.000333919
0.000333085
0.000331848
0.00033413
0.000330249
0.000317418
0.000307944
0.000310073
0.00030443
0.000306014
0.000315597
0.000314443
0.000312556
0.000322852
0.000324975
0.000321905
0.000319481
0.000326687
0.000281599
0.000283593
0.000279863
0.000282415
0.000296151
0.000293613
0.000290606
0.000288476
0.000298646
0.000301916
0.000279976
0.000285683
0.000276717
0.000442335
0.00026979
0.00101704
0.000339565
0.000339997
0.000342974
0.000344491
0.00034526
0.000340476
0.000341251
0.000346638
0.000348408
0.000350332
0.00035075
0.000347489
0.000348937
0.000348354
0.000347637
0.00034793
0.000351647
0.00200902
0.00175677
0.00218289
0.000318256
0.000322151
0.000354279
0.000346965
0.000347738
0.000338539
0.00034217
0.000347374
0.000345391
0.000343739
0.000347465
0.00034754
0.000350184
0.000349388
0.000347662
0.000349265
0.000346992
0.00138861
0.00167723
0.00153729
0.00158206
0.0012333
0.000338528
0.000336081
0.000337487
0.000333744
0.000335017
0.000328055
0.000332413
0.000331012
0.000333401
0.000329709
0.000317556
0.000308743
0.000310791
0.000304587
0.000307049
0.000316079
0.000313741
0.000312
0.000323394
0.000324383
0.000325894
0.000321363
0.000318652
0.000320368
0.000327092
0.000279965
0.000284053
0.000278454
0.00029444
0.000297092
0.000291811
0.000287782
0.00029981
0.000303684
0.000301274
0.000276966
0.000282106
0.000265324
0.000331039
0.000280269
0.00094693
0.000339083
0.000338475
0.000339723
0.000342176