/*--------------------------------*- C++ -*----------------------------------*\
| =========                 |                                                 |
| \\      /  F ield         | OpenFOAM: The Open Source CFD Toolbox           |
|  \\    /   O peration     | Version:  v2012                                 |
|   \\  /    A nd           | Website:  www.openfoam.com                      |
|    \\/     M anipulation  |                                                 |
\*---------------------------------------------------------------------------*/
FoamFile
{
    version     2.0;
    format      ascii;
    class       volScalarField;
    location    "1.3";
    object      nut;
}
// * * * * * * * * * * * * * * * * * * * * * * * * * * * * * * * * * * * * * //

dimensions      [0 2 -1 0 0 0 0];


internalField   nonuniform List<scalar> 
13611
(
1.24182e-05
1.19218e-05
1.10809e-05
1.16874e-05
1.12829e-05
1.18736e-05
1.16796e-05
1.18343e-05
1.26214e-05
1.12913e-05
1.18164e-05
1.18532e-05
1.1824e-05
1.19752e-05
1.14575e-05
1.13235e-05
1.17497e-05
1.25068e-05
1.20192e-05
1.19305e-05
1.19366e-05
1.19868e-05
1.26315e-05
1.11245e-05
1.18053e-05
1.18211e-05
1.14371e-05
1.20451e-05
1.18983e-05
1.19062e-05
1.19206e-05
1.19696e-05
1.14508e-05
1.1514e-05
1.18859e-05
1.20491e-05
1.17322e-05
1.25545e-05
1.20098e-05
1.18566e-05
1.18812e-05
1.19185e-05
1.19486e-05
1.19598e-05
1.11358e-05
1.26215e-05
1.14718e-05
1.1863e-05
1.21141e-05
1.18506e-05
1.12426e-05
1.20197e-05
1.18378e-05
1.18942e-05
1.1854e-05
1.19432e-05
1.19642e-05
1.19866e-05
1.10442e-05
1.14268e-05
1.16324e-05
1.18426e-05
1.2105e-05
1.20597e-05
1.17248e-05
1.25577e-05
1.20102e-05
1.18076e-05
1.18943e-05
1.18496e-05
1.19437e-05
1.19851e-05
1.147e-05
1.10143e-05
1.25503e-05
1.17972e-05
1.18008e-05
1.21537e-05
1.20701e-05
1.20995e-05
1.14699e-05
1.20329e-05
1.18081e-05
1.18697e-05
1.19156e-05
1.18296e-05
1.19649e-05
1.20093e-05
1.15791e-05
1.10358e-05
1.13124e-05
1.18102e-05
1.17645e-05
1.21332e-05
1.20586e-05
1.21019e-05
1.20604e-05
1.19457e-05
1.26564e-05
1.20378e-05
1.17943e-05
1.18589e-05
1.19084e-05
1.18208e-05
1.19531e-05
1.19833e-05
1.20076e-05
1.17574e-05
1.1446e-05
1.09912e-05
1.24756e-05
1.17654e-05
1.17564e-05
1.21634e-05
1.20818e-05
1.21071e-05
1.21762e-05
1.2048e-05
1.19775e-05
1.20654e-05
1.17779e-05
1.18012e-05
1.18349e-05
1.18746e-05
1.18966e-05
1.19341e-05
1.19693e-05
1.20361e-05
1.17703e-05
1.15327e-05
1.12739e-05
1.18696e-05
1.17353e-05
1.17416e-05
1.21384e-05
1.2093e-05
1.2203e-05
1.19947e-05
1.21905e-05
1.27224e-05
1.20666e-05
1.17645e-05
1.17832e-05
1.18333e-05
1.18542e-05
1.19111e-05
1.19353e-05
1.19885e-05
1.20392e-05
1.17365e-05
1.16902e-05
1.12649e-05
1.10371e-05
1.17149e-05
1.1722e-05
1.1747e-05
1.21594e-05
1.21222e-05
1.22267e-05
1.21044e-05
1.2225e-05
1.20839e-05
1.20976e-05
1.17654e-05
1.17889e-05
1.18135e-05
1.1863e-05
1.18926e-05
1.19553e-05
1.20148e-05
1.19783e-05
1.20697e-05
1.17097e-05
1.17069e-05
1.14464e-05
1.07895e-05
1.2909e-05
1.16952e-05
1.17067e-05
1.17358e-05
1.2201e-05
1.21477e-05
1.21262e-05
1.22595e-05
1.20934e-05
1.22159e-05
1.28278e-05
1.21001e-05
1.17439e-05
1.17751e-05
1.18116e-05
1.18553e-05
1.1902e-05
1.19464e-05
1.2015e-05
1.1992e-05
1.20681e-05
1.16894e-05
1.17031e-05
1.14491e-05
1.04163e-05
1.23555e-05
1.16796e-05
1.16879e-05
1.17145e-05
1.22211e-05
1.21737e-05
1.2155e-05
1.22927e-05
1.22205e-05
1.22668e-05
1.22445e-05
1.21289e-05
1.1739e-05
1.17858e-05
1.17564e-05
1.18317e-05
1.18744e-05
1.18965e-05
1.19285e-05
1.19703e-05
1.20396e-05
1.20993e-05
1.16668e-05
1.16935e-05
1.16035e-05
1.14713e-05
1.10177e-05
1.25537e-05
1.16626e-05
1.16705e-05
1.17049e-05
1.22045e-05
1.22587e-05
1.21723e-05
1.22774e-05
1.23301e-05
1.22365e-05
1.29062e-05
1.20542e-05
1.2156e-05
1.21268e-05
1.17196e-05
1.17776e-05
1.17397e-05
1.18291e-05
1.18683e-05
1.19138e-05
1.19358e-05
1.19815e-05
1.20448e-05
1.21017e-05
1.16436e-05
1.16617e-05
1.1618e-05
1.14016e-05
1.0929e-05
1.16264e-05
1.16451e-05
1.16679e-05
1.16516e-05
1.16852e-05
1.22278e-05
1.2285e-05
1.22093e-05
1.23185e-05
1.23687e-05
1.24329e-05
1.2275e-05
1.21641e-05
1.21758e-05
1.21533e-05
1.17216e-05
1.17598e-05
1.17961e-05
1.17415e-05
1.1848e-05
1.18129e-05
1.18869e-05
1.19122e-05
1.19579e-05
1.20089e-05
1.20769e-05
1.20319e-05
1.21332e-05
1.16327e-05
1.16424e-05
1.16735e-05
1.12283e-05
1.1214e-05
1.33656e-05
1.16505e-05
1.16376e-05
1.16853e-05
1.22673e-05
1.23221e-05
1.22278e-05
1.23522e-05
1.24125e-05
1.24024e-05
1.25036e-05
1.22057e-05
1.2168e-05
1.17049e-05
1.17649e-05
1.17825e-05
1.17231e-05
1.18298e-05
1.18124e-05
1.18833e-05
1.19332e-05
1.19578e-05
1.20057e-05
1.2076e-05
1.20499e-05
1.21282e-05
1.21618e-05
1.16173e-05
1.16147e-05
1.16414e-05
1.11971e-05
1.11771e-05
1.24393e-05
1.16377e-05
1.16411e-05
1.16208e-05
1.167e-05
1.22929e-05
1.23581e-05
1.22643e-05
1.23868e-05
1.2438e-05
1.2474e-05
1.24894e-05
1.28107e-05
1.22203e-05
1.22025e-05
1.17043e-05
1.17481e-05
1.17899e-05
1.1717e-05
1.18389e-05
1.19067e-05
1.18647e-05
1.1929e-05
1.19806e-05
1.20266e-05
1.20995e-05
1.20484e-05
1.21543e-05
1.2189e-05
1.1603e-05
1.16102e-05
1.15857e-05
1.17317e-05
1.10122e-05
1.15455e-05
1.17652e-05
1.16236e-05
1.16248e-05
1.16514e-05
1.16131e-05
1.16736e-05
1.23314e-05
1.23628e-05
1.23956e-05
1.22768e-05
1.24224e-05
1.2478e-05
1.25047e-05
1.25321e-05
1.24527e-05
1.22564e-05
1.22195e-05
1.16914e-05
1.17473e-05
1.17292e-05
1.17829e-05
1.16971e-05
1.18222e-05
1.19083e-05
1.18715e-05
1.19499e-05
1.19715e-05
1.20303e-05
1.20964e-05
1.20719e-05
1.21517e-05
1.21871e-05
1.15888e-05
1.15939e-05
1.16142e-05
1.15769e-05
1.09158e-05
1.15921e-05
1.34405e-05
1.07664e-05
1.16122e-05
1.16359e-05
1.15983e-05
1.1661e-05
1.23387e-05
1.24044e-05
1.24352e-05
1.2318e-05
1.24564e-05
1.2492e-05
1.25518e-05
1.25822e-05
1.25249e-05
1.29029e-05
1.2278e-05
1.22509e-05
1.17252e-05
1.17638e-05
1.17167e-05
1.18012e-05
1.16871e-05
1.18311e-05
1.19312e-05
1.18929e-05
1.18537e-05
1.19508e-05
1.19895e-05
1.20139e-05
1.20578e-05
1.2121e-05
1.21787e-05
1.22189e-05
1.15795e-05
1.15725e-05
1.15618e-05
1.13385e-05
1.15972e-05
1.32921e-05
9.49289e-06
1.15962e-05
1.16183e-05
1.16411e-05
1.15822e-05
1.16674e-05
1.23827e-05
1.24433e-05
1.24712e-05
1.23431e-05
1.2533e-05
1.25892e-05
1.26204e-05
1.25982e-05
1.25893e-05
1.23157e-05
1.22627e-05
1.17253e-05
1.17674e-05
1.16973e-05
1.17865e-05
1.18202e-05
1.19274e-05
1.19018e-05
1.18537e-05
1.19715e-05
1.20268e-05
1.20726e-05
1.21044e-05
1.22097e-05
1.21778e-05
1.22515e-05
1.15637e-05
1.15594e-05
1.15496e-05
1.14752e-05
1.15821e-05
1.23545e-05
1.02025e-05
1.15827e-05
1.16022e-05
1.16289e-05
1.15653e-05
1.1656e-05
1.24103e-05
1.24826e-05
1.25156e-05
1.23847e-05
1.25683e-05
1.26318e-05
1.26681e-05
1.2639e-05
1.29688e-05
1.23298e-05
1.23031e-05
1.17016e-05
1.17461e-05
1.1688e-05
1.17969e-05
1.18312e-05
1.1945e-05
1.18958e-05
1.18723e-05
1.19822e-05
1.20107e-05
1.20559e-05
1.21222e-05
1.22358e-05
1.2213e-05
1.21558e-05
1.22789e-05
1.15506e-05
1.152e-05
1.15328e-05
1.16001e-05
1.15345e-05
1.20081e-05
1.02545e-05
1.15652e-05
1.15864e-05
1.15988e-05
1.16128e-05
1.16379e-05
1.15512e-05
1.16667e-05
1.24541e-05
1.2513e-05
1.2502e-05
1.25583e-05
1.2408e-05
1.26228e-05
1.26492e-05
1.27101e-05
1.27459e-05
1.27552e-05
1.23742e-05
1.23157e-05
1.16921e-05
1.17462e-05
1.17862e-05
1.18219e-05
1.19413e-05
1.1968e-05
1.19167e-05
1.18623e-05
1.2024e-05
1.20704e-05
1.21008e-05
1.22716e-05
1.22296e-05
1.21689e-05
1.15357e-05
1.15166e-05
1.16518e-05
1.15016e-05
1.09625e-05
1.03812e-05
1.15542e-05
1.15747e-05
1.15843e-05
1.16028e-05
1.16232e-05
1.15371e-05
1.16506e-05
1.24746e-05
1.2483e-05
1.25573e-05
1.2554e-05
1.25988e-05
1.24546e-05
1.26593e-05
1.2705e-05
1.27273e-05
1.27893e-05
1.30497e-05
1.28168e-05
1.23903e-05
1.23524e-05
1.16756e-05
1.17082e-05
1.1727e-05
1.17681e-05
1.18005e-05
1.18376e-05
1.19611e-05
1.19817e-05
1.19069e-05
1.1879e-05
1.20066e-05
1.20529e-05
1.21125e-05
1.23057e-05
1.22003e-05
1.22623e-05
1.21434e-05
1.15233e-05
1.15041e-05
1.15649e-05
1.14713e-05
1.14851e-05
8.64542e-06
1.4041e-05
1.00919e-05
1.15418e-05
1.15608e-05
1.15731e-05
1.15863e-05
1.16083e-05
1.16184e-05
1.1532e-05
1.15246e-05
1.16309e-05
1.16573e-05
1.25187e-05
1.25256e-05
1.25949e-05
1.25936e-05
1.26416e-05
1.24865e-05
1.27178e-05
1.27393e-05
1.27842e-05
1.28267e-05
1.29244e-05
1.28906e-05
1.24361e-05
1.23609e-05
1.16762e-05
1.1691e-05
1.173e-05
1.17687e-05
1.17876e-05
1.18278e-05
1.19729e-05
1.19271e-05
1.18725e-05
1.20201e-05
1.20665e-05
1.20965e-05
1.22924e-05
1.23442e-05
1.22023e-05
1.22597e-05
1.21493e-05
1.1509e-05
1.14916e-05
1.15293e-05
1.16151e-05
1.14678e-05
8.98154e-06
1.27507e-05
1.11488e-05
1.15313e-05
1.15547e-05
1.15612e-05
1.15779e-05
1.15979e-05
1.16017e-05
1.15211e-05
1.15132e-05
1.1622e-05
1.16483e-05
1.25544e-05
1.2573e-05
1.26358e-05
1.26462e-05
1.26777e-05
1.24774e-05
1.25382e-05
1.27595e-05
1.27963e-05
1.28849e-05
1.31477e-05
1.29491e-05
1.24381e-05
1.24048e-05
1.16583e-05
1.1696e-05
1.175e-05
1.17149e-05
1.18014e-05
1.18453e-05
1.20045e-05
1.19562e-05
1.19185e-05
1.1893e-05
1.20506e-05
1.21127e-05
1.23212e-05
1.23691e-05
1.21815e-05
1.22356e-05
1.22946e-05
1.2142e-05
1.14991e-05
1.14816e-05
1.15734e-05
1.14828e-05
1.14623e-05
9.81841e-06
1.44571e-05
1.11287e-05
1.15335e-05
1.15213e-05
1.15438e-05
1.15509e-05
1.15664e-05
1.15857e-05
1.15952e-05
1.15115e-05
1.15021e-05
1.16055e-05
1.16317e-05
1.25993e-05
1.26107e-05
1.26965e-05
1.27264e-05
1.25251e-05
1.25712e-05
1.28165e-05
1.28526e-05
1.29418e-05
1.31114e-05
1.30325e-05
1.24808e-05
1.24069e-05
1.16458e-05
1.16937e-05
1.17483e-05
1.17095e-05
1.17884e-05
1.18407e-05
1.20227e-05
1.19709e-05
1.1937e-05
1.18844e-05
1.20677e-05
1.20999e-05
1.23575e-05
1.21956e-05
1.22476e-05
1.23107e-05
1.21667e-05
1.14856e-05
1.14711e-05
1.1549e-05
1.14556e-05
1.14516e-05
9.31281e-06
1.31106e-05
1.146e-05
1.15215e-05
1.15118e-05
1.15393e-05
1.1555e-05
1.15637e-05
1.1574e-05
1.15784e-05
1.15021e-05
1.1493e-05
1.15958e-05
1.16171e-05
1.26361e-05
1.26634e-05
1.27042e-05
1.27454e-05
1.27605e-05
1.2572e-05
1.25245e-05
1.26193e-05
1.28468e-05
1.28529e-05
1.29203e-05
1.3016e-05
1.32585e-05
1.31212e-05
1.31006e-05
1.24811e-05
1.24406e-05
1.16568e-05
1.16228e-05
1.16806e-05
1.17671e-05
1.17259e-05
1.1803e-05
1.1863e-05
1.18233e-05
1.20537e-05
1.20016e-05
1.19625e-05
1.19281e-05
1.19022e-05
1.21207e-05
1.23893e-05
1.22257e-05
1.22827e-05
1.23516e-05
1.21564e-05
1.14781e-05
1.14609e-05
1.15466e-05
1.14785e-05
1.14424e-05
1.14477e-05
1.09272e-05
1.10598e-05
1.48176e-05
1.15138e-05
1.15125e-05
1.15025e-05
1.15312e-05
1.15449e-05
1.15502e-05
1.15712e-05
1.14933e-05
1.14843e-05
1.15815e-05
1.16014e-05
1.26839e-05
1.27621e-05
1.27955e-05
1.28263e-05
1.26202e-05
1.25727e-05
1.2657e-05
1.29106e-05
1.29198e-05
1.29861e-05
1.3079e-05
1.32884e-05
1.32142e-05
1.31648e-05
1.25187e-05
1.24318e-05
1.16465e-05
1.16128e-05
1.16879e-05
1.17658e-05
1.17255e-05
1.17834e-05
1.1849e-05
1.18284e-05
1.20739e-05
1.20086e-05
1.19811e-05
1.19462e-05
1.1887e-05
1.21067e-05
1.23893e-05
1.22443e-05
1.22925e-05
1.23511e-05
1.21842e-05
1.14704e-05
1.14613e-05
1.14529e-05
1.15207e-05
1.14638e-05
1.1433e-05
1.14405e-05
1.08686e-05
1.13091e-05
1.42312e-05
1.15027e-05
1.152e-05
1.15023e-05
1.14951e-05
1.15352e-05
1.15412e-05
1.15464e-05
1.15589e-05
1.14845e-05
1.14775e-05
1.15728e-05
1.15872e-05
1.27355e-05
1.27985e-05
1.28544e-05
1.28755e-05
1.2652e-05
1.25584e-05
1.26177e-05
1.2714e-05
1.29634e-05
1.29802e-05
1.30605e-05
1.31568e-05
1.3243e-05
1.2512e-05
1.24683e-05
1.16583e-05
1.16254e-05
1.15969e-05
1.1677e-05
1.17082e-05
1.17461e-05
1.17872e-05
1.18603e-05
1.18114e-05
1.20757e-05
1.20353e-05
1.19729e-05
1.19464e-05
1.18976e-05
1.21281e-05
1.24285e-05
1.22814e-05
1.22229e-05
1.2328e-05
1.23885e-05
1.21606e-05
1.14707e-05
1.14534e-05
1.14448e-05
1.15107e-05
1.14309e-05
1.14341e-05
1.14186e-05
1.14389e-05
8.89421e-06
1.11315e-05
1.34839e-05
1.14964e-05
1.15002e-05
1.15157e-05
1.14953e-05
1.14856e-05
1.15293e-05
1.1532e-05
1.15384e-05
1.15536e-05
1.14769e-05
1.15602e-05
1.15756e-05
1.15848e-05
1.27916e-05
1.28684e-05
1.29068e-05
1.29451e-05
1.27073e-05
1.25909e-05
1.26389e-05
1.27613e-05
1.30366e-05
1.30483e-05
1.31282e-05
1.32352e-05
1.33079e-05
1.25519e-05
1.24594e-05
1.16462e-05
1.16173e-05
1.15841e-05
1.16853e-05
1.17045e-05
1.17418e-05
1.17779e-05
1.1855e-05
1.18102e-05
1.20634e-05
1.21081e-05
1.20182e-05
1.19917e-05
1.19222e-05
1.19713e-05
1.18734e-05
1.24486e-05
1.23081e-05
1.22464e-05
1.23422e-05
1.24246e-05
1.23724e-05
1.21768e-05
1.14638e-05
1.14448e-05
1.1456e-05
1.14808e-05
1.14136e-05
1.14271e-05
1.14154e-05
1.14317e-05
9.99019e-06
1.14097e-05
1.5375e-05
1.14884e-05
1.15069e-05
1.14916e-05
1.15212e-05
1.14873e-05
1.14817e-05
1.15241e-05
1.15287e-05
1.15431e-05
1.14698e-05
1.15559e-05
1.15639e-05
1.15726e-05
1.28471e-05
1.29081e-05
1.29806e-05
1.30004e-05
1.27542e-05
1.2691e-05
1.26356e-05
1.28242e-05
1.31037e-05
1.3123e-05
1.32128e-05
1.33084e-05
1.25759e-05
1.25025e-05
1.16292e-05
1.16548e-05
1.16024e-05
1.15724e-05
1.15875e-05
1.16756e-05
1.17193e-05
1.17585e-05
1.17916e-05
1.18304e-05
1.20856e-05
1.21146e-05
1.2033e-05
1.19214e-05
1.19837e-05
1.18737e-05
1.24895e-05
1.22933e-05
1.224e-05
1.24467e-05
1.23999e-05
1.22116e-05
1.21446e-05
1.14625e-05
1.14389e-05
1.145e-05
1.14831e-05
1.13934e-05
1.14236e-05
1.14102e-05
1.14252e-05
1.14312e-05
9.98329e-06
1.15699e-05
1.15237e-05
1.4588e-05
1.14864e-05
1.14812e-05
1.15022e-05
1.14884e-05
1.15143e-05
1.14804e-05
1.14742e-05
1.15155e-05
1.1522e-05
1.1522e-05
1.15347e-05
1.14688e-05
1.15454e-05
1.15624e-05
1.28657e-05
1.2979e-05
1.30425e-05
1.308e-05
1.28058e-05
1.27325e-05
1.26817e-05
1.28627e-05
1.31984e-05
1.32028e-05
1.32928e-05
1.26377e-05
1.25416e-05
1.16143e-05
1.16427e-05
1.16004e-05
1.15623e-05
1.15741e-05
1.16872e-05
1.17099e-05
1.17559e-05
1.17764e-05
1.18179e-05
1.20667e-05
1.20158e-05
1.18968e-05
1.19441e-05
1.19675e-05
1.18536e-05
1.25179e-05
1.23252e-05
1.22767e-05
1.24437e-05
1.24958e-05
1.23716e-05
1.22199e-05
1.21514e-05
1.14587e-05
1.1439e-05
1.14487e-05
1.14443e-05
1.14325e-05
1.13832e-05
1.1401e-05
1.14162e-05
1.14195e-05
1.14286e-05
9.35699e-06
1.17893e-05
1.14684e-05
1.22313e-05
1.59947e-05
1.1479e-05
1.14762e-05
1.14935e-05
1.15062e-05
1.14811e-05
1.14718e-05
1.14688e-05
1.15102e-05
1.15128e-05
1.15131e-05
1.1525e-05
1.1536e-05
1.1462e-05
1.15417e-05
1.15514e-05
1.29431e-05
1.30425e-05
1.29994e-05
1.3122e-05
1.31456e-05
1.27934e-05
1.27327e-05
1.26847e-05
1.29228e-05
1.32835e-05
1.26539e-05
1.25595e-05
1.16205e-05
1.16529e-05
1.15826e-05
1.15549e-05
1.1552e-05
1.157e-05
1.15612e-05
1.16754e-05
1.1724e-05
1.1745e-05
1.17778e-05
1.18339e-05
1.17964e-05
1.20805e-05
1.20302e-05
1.18935e-05
1.19376e-05
1.19811e-05
1.18531e-05
1.23122e-05
1.22537e-05
1.24822e-05
1.25262e-05
1.23933e-05
1.21909e-05
1.21339e-05
1.14526e-05
1.14325e-05
1.14426e-05
1.14407e-05
1.13768e-05
1.14414e-05
1.13855e-05
1.13953e-05
1.1412e-05
1.14217e-05
1.14137e-05
1.1819e-05
1.16265e-05
1.3818e-05
1.58855e-05
1.14763e-05
1.1471e-05
1.14894e-05
1.15005e-05
1.14761e-05
1.14678e-05
1.14623e-05
1.15028e-05
1.15083e-05
1.15074e-05
1.15178e-05
1.15252e-05
1.14589e-05
1.15325e-05
1.2968e-05
1.31223e-05
1.30825e-05
1.3185e-05
1.32331e-05
1.28504e-05
1.27835e-05
1.27429e-05
1.29537e-05
1.2606e-05
1.27118e-05
1.16075e-05
1.16403e-05
1.15756e-05
1.15435e-05
1.15432e-05
1.15557e-05
1.1552e-05
1.16869e-05
1.17098e-05
1.17555e-05
1.18186e-05
1.17985e-05
1.2058e-05
1.21076e-05
1.20055e-05
1.18712e-05
1.19144e-05
1.19575e-05
1.18279e-05
1.23416e-05
1.22727e-05
1.2474e-05
1.25702e-05
1.24375e-05
1.23798e-05
1.21867e-05
1.21527e-05
1.14493e-05
1.14302e-05
1.14398e-05
1.14357e-05
1.1366e-05
1.14131e-05
1.13863e-05
1.14005e-05
1.14068e-05
1.14212e-05
1.14104e-05
1.18548e-05
1.16427e-05
1.34742e-05
1.60016e-05
1.14703e-05
1.1465e-05
1.14943e-05
1.14842e-05
1.14696e-05
1.14783e-05
1.14629e-05
1.14566e-05
1.14973e-05
1.14997e-05
1.14988e-05
1.15099e-05
1.15179e-05
1.15228e-05
1.14525e-05
1.15339e-05
1.30419e-05
1.31842e-05
1.31468e-05
1.31081e-05
1.32531e-05
1.32911e-05
1.2922e-05
1.28386e-05
1.27787e-05
1.30351e-05
1.26209e-05
1.27199e-05
1.27605e-05
1.16178e-05
1.15897e-05
1.16504e-05
1.15607e-05
1.15362e-05
1.15437e-05
1.15413e-05
1.16731e-05
1.17206e-05
1.17448e-05
1.17793e-05
1.20645e-05
1.20942e-05
1.20147e-05
1.18709e-05
1.1911e-05
1.19581e-05
1.18247e-05
1.23166e-05
1.22514e-05
1.25205e-05
1.26121e-05
1.25657e-05
1.2447e-05
1.24069e-05
1.2214e-05
1.21402e-05
1.1443e-05
1.14264e-05
1.1433e-05
1.14338e-05
1.14317e-05
1.13606e-05
1.13799e-05
1.13918e-05
1.13571e-05
1.13947e-05
1.14026e-05
1.14188e-05
1.14056e-05
1.14136e-05
1.24167e-05
1.15201e-05
1.37923e-05
1.64039e-05
1.1467e-05
1.14648e-05
1.14612e-05
1.14896e-05
1.14845e-05
1.1466e-05
1.14734e-05
1.14573e-05
1.14511e-05
1.14908e-05
1.14945e-05
1.14948e-05
1.15054e-05
1.1509e-05
1.15151e-05
1.15245e-05
1.32513e-05
1.32332e-05
1.32006e-05
1.33015e-05
1.29757e-05
1.28932e-05
1.28555e-05
1.31043e-05
1.26823e-05
1.27736e-05
1.28178e-05
1.16081e-05
1.15745e-05
1.16403e-05
1.15601e-05
1.15468e-05
1.15242e-05
1.15305e-05
1.15304e-05
1.16828e-05
1.17197e-05
1.17579e-05
1.17816e-05
1.20478e-05
1.21093e-05
1.20082e-05
1.18462e-05
1.18911e-05
1.19334e-05
1.19814e-05
1.18018e-05
1.23373e-05
1.22745e-05
1.25228e-05
1.26532e-05
1.26108e-05
1.24827e-05
1.23836e-05
1.21956e-05
1.21616e-05
1.14398e-05
1.14254e-05
1.14287e-05
1.14317e-05
1.14275e-05
1.13723e-05
1.13802e-05
1.135e-05
1.13531e-05
1.13945e-05
1.13992e-05
1.14212e-05
1.14091e-05
1.14145e-05
1.24006e-05
1.1438e-05
1.63692e-05
1.31195e-05
1.64536e-05
1.14608e-05
1.14596e-05
1.14559e-05
1.14797e-05
1.14613e-05
1.14683e-05
1.14743e-05
1.14529e-05
1.14469e-05
1.14859e-05
1.14877e-05
1.14994e-05
1.14892e-05
1.15026e-05
1.15061e-05
1.15168e-05
1.32904e-05
1.32852e-05
1.31949e-05
1.30501e-05
1.29593e-05
1.29028e-05
1.31065e-05
1.26947e-05
1.27879e-05
1.28784e-05
1.15918e-05
1.16209e-05
1.15752e-05
1.16508e-05
1.15487e-05
1.15328e-05
1.15211e-05
1.15238e-05
1.15194e-05
1.16686e-05
1.17032e-05
1.17395e-05
1.17596e-05
1.20654e-05
1.20971e-05
1.20313e-05
1.18373e-05
1.18982e-05
1.19253e-05
1.19732e-05
1.17944e-05
1.23162e-05
1.22569e-05
1.25647e-05
1.26482e-05
1.26338e-05
1.24819e-05
1.24085e-05
1.22184e-05
1.21522e-05
1.14426e-05
1.14359e-05
1.14268e-05
1.14234e-05
1.14291e-05
1.14241e-05
1.1375e-05
1.13839e-05
1.13458e-05
1.13441e-05
1.137e-05
1.13921e-05
1.13995e-05
1.14182e-05
1.14088e-05
1.18161e-05
1.13371e-05
1.74909e-05
1.29733e-05
1.76192e-05
1.14579e-05
1.14552e-05
1.14523e-05
1.14801e-05
1.14583e-05
1.14645e-05
1.14693e-05
1.1448e-05
1.14814e-05
1.14936e-05
1.14823e-05
1.14891e-05
1.14928e-05
1.15023e-05
1.15077e-05
1.32883e-05
1.30821e-05
1.30123e-05
1.29792e-05
1.32013e-05
1.27382e-05
1.28474e-05
1.29335e-05
1.15876e-05
1.1615e-05
1.15624e-05
1.16425e-05
1.15498e-05
1.15336e-05
1.15206e-05
1.15122e-05
1.15127e-05
1.15103e-05
1.16717e-05
1.17046e-05
1.17408e-05
1.1754e-05
1.20585e-05
1.21186e-05
1.20252e-05
1.18166e-05
1.18572e-05
1.18822e-05
1.19456e-05
1.19985e-05
1.17775e-05
1.23428e-05
1.22831e-05
1.25243e-05
1.26049e-05
1.26981e-05
1.26821e-05
1.24519e-05
1.23872e-05
1.22147e-05
1.21781e-05
1.14387e-05
1.14356e-05
1.14235e-05
1.14229e-05
1.14292e-05
1.14255e-05
1.14202e-05
1.13805e-05
1.13887e-05
1.13513e-05
1.13377e-05
1.13492e-05
1.13726e-05
1.13949e-05
1.13975e-05
1.14032e-05
1.14186e-05
1.14151e-05
1.17819e-05
1.131e-05
1.54681e-05
1.22564e-05
1.60527e-05
1.14541e-05
1.14501e-05
1.14476e-05
1.14758e-05
1.14544e-05
1.146e-05
1.14649e-05
1.14702e-05
1.14448e-05
1.14762e-05
1.14886e-05
1.14777e-05
1.14832e-05
1.14899e-05
1.14959e-05
1.15045e-05
1.31487e-05
1.30223e-05
1.3024e-05
1.32142e-05
1.28494e-05
1.29094e-05
1.30066e-05
1.15687e-05
1.15989e-05
1.16268e-05
1.16529e-05
1.15365e-05
1.15272e-05
1.15081e-05
1.15035e-05
1.15035e-05
1.15003e-05
1.1687e-05
1.17217e-05
1.17387e-05
1.20812e-05
1.21096e-05
1.20506e-05
1.18242e-05
1.18462e-05
1.18973e-05
1.19503e-05
1.20131e-05
1.17909e-05
1.23251e-05
1.22805e-05
1.25184e-05
1.26291e-05
1.27199e-05
1.26851e-05
1.24675e-05
1.2416e-05
1.22452e-05
1.21619e-05
1.14399e-05
1.14323e-05
1.14193e-05
1.14205e-05
1.14272e-05
1.14253e-05
1.14202e-05
1.13825e-05
1.13907e-05
1.13687e-05
1.13431e-05
1.13495e-05
1.13773e-05
1.13934e-05
1.13987e-05
1.14051e-05
1.14212e-05
1.14181e-05
1.14153e-05
1.15386e-05
1.13255e-05
1.1329e-05
1.48566e-05
1.19837e-05
1.74761e-05
1.14505e-05
1.14475e-05
1.14464e-05
1.14444e-05
1.14517e-05
1.14569e-05
1.14604e-05
1.14679e-05
1.14711e-05
1.14814e-05
1.14787e-05
1.14723e-05
1.14847e-05
1.14909e-05
1.14954e-05
1.31686e-05
1.31058e-05
1.30995e-05
1.32968e-05
1.28245e-05
1.29251e-05
1.29659e-05
1.30653e-05
1.15607e-05
1.1596e-05
1.16119e-05
1.16524e-05
1.15235e-05
1.15158e-05
1.14986e-05
1.15054e-05
1.14952e-05
1.14928e-05
1.1491e-05
1.16845e-05
1.17195e-05
1.17456e-05
1.20743e-05
1.2132e-05
1.20602e-05
1.18273e-05
1.17955e-05
1.18524e-05
1.19426e-05
1.18853e-05
1.19936e-05
1.20171e-05
1.1749e-05
1.23543e-05
1.23046e-05
1.2557e-05
1.26068e-05
1.27693e-05
1.27294e-05
1.24648e-05
1.24005e-05
1.22035e-05
1.21747e-05
1.14375e-05
1.14332e-05
1.14164e-05
1.14161e-05
1.14254e-05
1.14236e-05
1.14189e-05
1.13813e-05
1.13883e-05
1.13724e-05
1.13435e-05
1.1362e-05
1.138e-05
1.13944e-05
1.1402e-05
1.14138e-05
1.14176e-05
1.1418e-05
1.14142e-05
1.16669e-05
1.12951e-05
1.13349e-05
1.63975e-05
1.27416e-05
1.58686e-05
1.14468e-05
1.14439e-05
1.14423e-05
1.14408e-05
1.14529e-05
1.14472e-05
1.1457e-05
1.14603e-05
1.14639e-05
1.14685e-05
1.1476e-05
1.1474e-05
1.14707e-05
1.14783e-05
1.14855e-05
1.14889e-05
1.32462e-05
1.31301e-05
1.31488e-05
1.28748e-05
1.2963e-05
1.30343e-05
1.31357e-05
1.1546e-05
1.15781e-05
1.16275e-05
1.16552e-05
1.1675e-05
1.15261e-05
1.15088e-05
1.15062e-05
1.14883e-05
1.14945e-05
1.14875e-05
1.14856e-05
1.14827e-05
1.17089e-05
1.17304e-05
1.20938e-05
1.21102e-05
1.20711e-05
1.17879e-05
1.17521e-05
1.17452e-05
1.20303e-05
1.1924e-05
1.19475e-05
1.17917e-05
1.16913e-05
1.23344e-05
1.22096e-05
1.25619e-05
1.26511e-05
1.27592e-05
1.2511e-05
1.2432e-05
1.21855e-05
1.21092e-05
1.14379e-05
1.14317e-05
1.1417e-05
1.14141e-05
1.1423e-05
1.14281e-05
1.14235e-05
1.14214e-05
1.13857e-05
1.13897e-05
1.13732e-05
1.1377e-05
1.13542e-05
1.13667e-05
1.13851e-05
1.1399e-05
1.1411e-05
1.14171e-05
1.1416e-05
1.14142e-05
1.14163e-05
1.15298e-05
1.13233e-05
1.12827e-05
1.13515e-05
1.50193e-05
1.28671e-05
1.63923e-05
1.14438e-05
1.14412e-05
1.14397e-05
1.14506e-05
1.14451e-05
1.14536e-05
1.14562e-05
1.14605e-05
1.14623e-05
1.14681e-05
1.14679e-05
1.14662e-05
1.14744e-05
1.14814e-05
1.14829e-05
1.3289e-05
1.32159e-05
1.32253e-05
1.29359e-05
1.28264e-05
1.30291e-05
1.30912e-05
1.31915e-05
1.15585e-05
1.15888e-05
1.16422e-05
1.16711e-05
1.16902e-05
1.151e-05
1.14976e-05
1.14958e-05
1.14862e-05
1.14812e-05
1.14819e-05
1.14771e-05
1.14738e-05
1.17345e-05
1.16748e-05
1.20945e-05
1.20093e-05
1.17576e-05
1.17497e-05
1.17881e-05
1.19853e-05
1.1924e-05
1.19059e-05
1.184e-05
1.15304e-05
1.16992e-05
1.23366e-05
1.21265e-05
1.26089e-05
1.27037e-05
1.27428e-05
1.25116e-05
1.2474e-05
1.23634e-05
1.20863e-05
1.20666e-05
1.14354e-05
1.14323e-05
1.14161e-05
1.14142e-05
1.14233e-05
1.14297e-05
1.14214e-05
1.13895e-05
1.13963e-05
1.13766e-05
1.13806e-05
1.13583e-05
1.1366e-05
1.13763e-05
1.13924e-05
1.13993e-05
1.14103e-05
1.14139e-05
1.14163e-05
1.14145e-05
1.14173e-05
1.15019e-05
1.13364e-05
1.12713e-05
1.13592e-05
1.56848e-05
1.22876e-05
1.74449e-05
1.1441e-05
1.14381e-05
1.14365e-05
1.14478e-05
1.1451e-05
1.14427e-05
1.14534e-05
1.14559e-05
1.14613e-05
1.14649e-05
1.14626e-05
1.14625e-05
1.14689e-05
1.14766e-05
1.14766e-05
1.32936e-05
1.29782e-05
1.28485e-05
1.30819e-05
1.30426e-05
1.31716e-05
1.32573e-05
1.15534e-05
1.15807e-05
1.16212e-05
1.16796e-05
1.16351e-05
1.1629e-05
1.16893e-05
1.15212e-05
1.14965e-05
1.14847e-05
1.14849e-05
1.14759e-05
1.1472e-05
1.14746e-05
1.14771e-05
1.14704e-05
1.14739e-05
1.14684e-05
1.16903e-05
1.19769e-05
1.11608e-05
1.1666e-05
1.25463e-05
1.03978e-05
1.13794e-05
1.18347e-05
5.04668e-05
1.07258e-05
1.18642e-05
1.2162e-05
1.19689e-05
1.26274e-05
1.2731e-05
1.28e-05
1.25599e-05
1.24761e-05
1.23227e-05
1.19592e-05
1.19619e-05
1.14351e-05
1.14338e-05
1.14311e-05
1.14189e-05
1.14233e-05
1.14281e-05
1.14318e-05
1.14219e-05
1.14222e-05
1.13987e-05
1.14024e-05
1.1378e-05
1.13905e-05
1.13696e-05
1.13726e-05
1.13798e-05
1.14004e-05
1.13955e-05
1.14076e-05
1.14116e-05
1.14161e-05
1.14151e-05
1.14184e-05
1.14157e-05
1.1416e-05
1.13152e-05
1.17416e-05
1.13523e-05
1.13234e-05
1.124e-05
1.13702e-05
1.37554e-05
1.2531e-05
1.60423e-05
1.52775e-05
1.14387e-05
1.14381e-05
1.14355e-05
1.14469e-05
1.14484e-05
1.14393e-05
1.14432e-05
1.14493e-05
1.14535e-05
1.14565e-05
1.14593e-05
1.14575e-05
1.14583e-05
1.14674e-05
1.14712e-05
1.14707e-05
1.29671e-05
1.29137e-05
1.31534e-05
1.30983e-05
1.32347e-05
1.3299e-05
1.15969e-05
1.159e-05
1.15712e-05
1.1501e-05
1.14625e-05
1.13821e-05
1.16123e-05
1.15121e-05
1.14809e-05
1.14755e-05
1.14751e-05
1.1469e-05
1.14721e-05
1.14635e-05
1.14663e-05
1.1463e-05
1.20193e-05
1.19301e-05
1.20026e-05
1.18564e-05
1.24519e-05
1.08988e-05
1.26082e-05
1.19822e-05
1.20723e-05
1.19664e-05
1.26861e-05
1.26047e-05
1.27835e-05
1.28261e-05
1.25119e-05
1.23633e-05
1.21711e-05
1.18733e-05
1.1433e-05
1.14327e-05
1.14307e-05
1.14206e-05
1.14298e-05
1.14321e-05
1.14313e-05
1.1423e-05
1.1423e-05
1.14077e-05
1.13835e-05
1.13953e-05
1.13732e-05
1.13779e-05
1.13836e-05
1.14063e-05
1.14049e-05
1.14139e-05
1.14153e-05
1.142e-05
1.14211e-05
1.14194e-05
1.14178e-05
1.12704e-05
1.1605e-05
1.13584e-05
1.13408e-05
1.12991e-05
1.13775e-05
1.20628e-05
1.54141e-05
1.68782e-05
1.14366e-05
1.14358e-05
1.14333e-05
1.14452e-05
1.14474e-05
1.14385e-05
1.14411e-05
1.14466e-05
1.14489e-05
1.14549e-05
1.14586e-05
1.1456e-05
1.14537e-05
1.14544e-05
1.14628e-05
1.14655e-05
1.30413e-05
1.29415e-05
1.32298e-05
1.3112e-05
1.32795e-05
1.15977e-05
1.15575e-05
1.14965e-05
1.13044e-05
1.10746e-05
1.14542e-05
1.1304e-05
1.14912e-05
1.15435e-05
1.1476e-05
1.14648e-05
1.14654e-05
1.146e-05
1.14663e-05
1.14617e-05
1.14557e-05
1.1462e-05
1.14548e-05
1.14577e-05
1.16231e-05
1.17656e-05
1.21542e-05
1.27051e-05
1.27185e-05
1.26856e-05
1.26354e-05
1.27999e-05
1.28851e-05
1.25145e-05
1.23235e-05
1.22187e-05
1.17776e-05
1.14317e-05
1.14309e-05
1.14303e-05
1.14231e-05
1.14314e-05
1.14333e-05
1.14277e-05
1.1424e-05
1.14125e-05
1.13937e-05
1.14045e-05
1.13823e-05
1.13843e-05
1.13931e-05
1.1414e-05
1.14092e-05
1.14091e-05
1.14184e-05
1.14196e-05
1.14236e-05
1.14205e-05
1.14222e-05
1.14219e-05
1.1421e-05
1.12848e-05
1.13599e-05
1.13724e-05
1.13528e-05
1.13459e-05
1.1308e-05
1.13787e-05
1.1385e-05
1.18978e-05
1.68943e-05
1.29133e-05
1.48073e-05
1.14344e-05
1.14349e-05
1.14438e-05
1.14444e-05
1.14365e-05
1.14412e-05
1.14425e-05
1.14477e-05
1.14511e-05
1.1455e-05
1.14505e-05
1.14497e-05
1.14512e-05
1.14592e-05
1.14605e-05
1.30568e-05
1.30031e-05
1.3286e-05
1.32008e-05
1.15628e-05
1.14559e-05
1.14851e-05
1.16892e-05
1.02443e-05
1.07588e-05
1.14834e-05
1.15423e-05
1.14625e-05
1.14599e-05
1.14525e-05
1.14581e-05
1.14546e-05
1.14568e-05
1.14527e-05
1.14562e-05
1.14529e-05
1.26145e-05
1.25855e-05
1.28205e-05
1.27287e-05
1.26353e-05
1.28676e-05
1.27845e-05
1.24234e-05
1.25691e-05
1.25194e-05
1.14309e-05
1.14296e-05
1.14302e-05
1.14252e-05
1.14369e-05
1.14343e-05
1.1429e-05
1.14269e-05
1.14158e-05
1.14202e-05
1.13995e-05
1.14107e-05
1.13862e-05
1.13955e-05
1.13973e-05
1.14219e-05
1.14176e-05
1.14192e-05
1.14245e-05
1.14274e-05
1.14267e-05
1.14267e-05
1.14295e-05
1.12928e-05
1.13191e-05
1.13784e-05
1.1361e-05
1.13472e-05
1.13358e-05
1.13881e-05
1.13942e-05
1.14728e-05
1.71509e-05
1.25236e-05
1.61921e-05
1.14332e-05
1.14337e-05
1.14423e-05
1.14415e-05
1.14368e-05
1.14398e-05
1.14417e-05
1.14445e-05
1.14489e-05
1.14504e-05
1.14522e-05
1.14466e-05
1.14474e-05
1.14488e-05
1.1454e-05
1.14554e-05
1.31243e-05
1.30222e-05
1.32039e-05
1.14628e-05
1.15246e-05
1.13188e-05
1.14464e-05
1.23883e-05
1.24058e-05
1.14861e-05
1.14696e-05
1.157e-05
1.14497e-05
1.14499e-05
1.14454e-05
1.14496e-05
1.14465e-05
1.14519e-05
1.14483e-05
1.14515e-05
1.14471e-05
1.26869e-05
1.29143e-05
1.28429e-05
1.25217e-05
1.25778e-05
1.29042e-05
1.14317e-05
1.14301e-05
1.14306e-05
1.14316e-05
1.14296e-05
1.14377e-05
1.1441e-05
1.14329e-05
1.14371e-05
1.14306e-05
1.14247e-05
1.14258e-05
1.14061e-05
1.1423e-05
1.13969e-05
1.1402e-05
1.14084e-05
1.14293e-05
1.14246e-05
1.1428e-05
1.14291e-05
1.14295e-05
1.14333e-05
1.14298e-05
1.1428e-05
1.14329e-05
1.12797e-05
1.13296e-05
1.12839e-05
1.12909e-05
1.13868e-05
1.13741e-05
1.13535e-05
1.13411e-05
1.13948e-05
1.1401e-05
1.13698e-05
1.46171e-05
1.68925e-05
1.17994e-05
1.4648e-05
1.14327e-05
1.14346e-05
1.14397e-05
1.14391e-05
1.14364e-05
1.14391e-05
1.14385e-05
1.14453e-05
1.14478e-05
1.14491e-05
1.14431e-05
1.14451e-05
1.1446e-05
1.14522e-05
1.30951e-05
1.29761e-05
1.32861e-05
1.12172e-05
1.1461e-05
1.11284e-05
1.14908e-05
1.14088e-05
1.15234e-05
1.14684e-05
1.16283e-05
1.14357e-05
1.14452e-05
1.14368e-05
1.14439e-05
1.14432e-05
1.1448e-05
1.14487e-05
1.14435e-05
1.14469e-05
1.14424e-05
1.2721e-05
1.29102e-05
1.28229e-05
1.28885e-05
1.27013e-05
1.26408e-05
1.14317e-05
1.14319e-05
1.14329e-05
1.14326e-05
1.14378e-05
1.14421e-05
1.14433e-05
1.14346e-05
1.14357e-05
1.14304e-05
1.14142e-05
1.14333e-05
1.14113e-05
1.14163e-05
1.14384e-05
1.14358e-05
1.14406e-05
1.1439e-05
1.14411e-05
1.1437e-05
1.1435e-05
1.14423e-05
1.13106e-05
1.1336e-05
1.12751e-05
1.12654e-05
1.13947e-05
1.13809e-05
1.13585e-05
1.13496e-05
1.1407e-05
1.14154e-05
1.12471e-05
1.1391e-05
1.41304e-05
1.7703e-05
1.17073e-05
1.56514e-05
1.1433e-05
1.14355e-05
1.14391e-05
1.14385e-05
1.14372e-05
1.14365e-05
1.1439e-05
1.14399e-05
1.14438e-05
1.14449e-05
1.14461e-05
1.14403e-05
1.14427e-05
1.14445e-05
1.14417e-05
1.14439e-05
1.14473e-05
1.31457e-05
1.30077e-05
1.32328e-05
1.13012e-05
1.13913e-05
1.15591e-05
1.14903e-05
1.14476e-05
1.15233e-05
1.14234e-05
1.14368e-05
1.14323e-05
1.14286e-05
1.14365e-05
1.14368e-05
1.14446e-05
1.14429e-05
1.14384e-05
1.14428e-05
1.14363e-05
1.27731e-05
1.29622e-05
1.28686e-05
1.30088e-05
1.26155e-05
1.1433e-05
1.14335e-05
1.14336e-05
1.14354e-05
1.14337e-05
1.14406e-05
1.14439e-05
1.14494e-05