/*--------------------------------*- C++ -*----------------------------------*\
| =========                 |                                                 |
| \\      /  F ield         | OpenFOAM: The Open Source CFD Toolbox           |
|  \\    /   O peration     | Version:  v2012                                 |
|   \\  /    A nd           | Website:  www.openfoam.com                      |
|    \\/     M anipulation  |                                                 |
\*---------------------------------------------------------------------------*/
FoamFile
{
    version     2.0;
    format      ascii;
    class       volScalarField;
    location    "1.3";
    object      omega;
}
// * * * * * * * * * * * * * * * * * * * * * * * * * * * * * * * * * * * * * //

dimensions      [0 0 -1 0 0 0 0];


internalField   nonuniform List<scalar> 
13611
(
81.0672
52.8339
36.5397
42.1127
37.6494
55.5776
43.9021
45.7522
88.632
35.5676
53.236
47.5175
44.7677
51.2471
40.398
35.2871
46.7843
85.2421
52.7137
47.092
49.9343
51.9271
85.3804
32.3163
43.5567
48.416
44.7839
54.3865
47.6573
48.7335
49.7472
52.1619
39.3995
37.0662
44.8207
54.8256
47.8248
86.6827
53.7882
46.5613
47.7592
49.5506
51.0321
51.6303
31.5656
87.0762
35.4855
45.545
57.7605
50.5412
42.0588
54.6606
45.8101
48.3849
46.5346
50.6366
51.7248
52.8896
29.2526
37.8343
37.9005
44.9448
57.8578
56.4114
48.7622
85.5937
54.1301
44.5631
48.3381
46.2901
50.6842
52.7651
34.3902
29.0476
83.2473
42.9764
44.0104
60.2104
57.3623
58.5806
47.5483
55.2787
44.4649
47.1835
49.3248
45.3912
51.7442
53.9925
35.9058
28.2611
34.4852
43.4983
42.667
60.2896
56.6799
58.9163
58.2852
55.8
93.6988
55.5043
43.8551
46.7162
49.002
45.0136
51.1686
52.6641
53.9044
41.2159
33.2356
27.6279
76.7435
42.389
42.2792
62.0325
57.887
59.2882
62.9871
59.7564
61.9606
56.9772
43.1449
44.154
45.6413
47.4484
48.4722
50.2584
51.979
55.3972
41.7569
34.081
30.3322
44.606
41.3421
41.654
60.9633
58.5091
64.7126
59.5931
64.6754
98.5223
57.0367
42.5972
43.402
45.6027
46.5465
49.1852
50.3445
52.9658
55.5883
41.0687
38.4816
29.5476
30.8089
40.5844
40.8508
41.858
62.2686
60.1561
65.9983
63.5927
66.7944
66.9365
58.7493
42.6513
43.6709
44.7426
46.9635
48.3301
51.3331
54.3294
52.4786
57.2529
40.165
38.6646
32.5471
26.2359
85.5946
39.7998
40.2353
41.4171
64.6833
61.6257
60.3652
68.1854
64.6398
67.1128
104.87
58.9091
41.7623
43.1002
44.6717
46.6099
48.7766
50.9094
54.3722
53.1963
57.2018
39.4101
38.9888
31.6435
22.7025
52.2574
39.2034
39.4892
40.5519
66.1054
63.1727
62.0405
70.2414
69.0106
69.8634
73.9924
60.5603
41.5841
43.5544
42.3169
45.5446
47.4668
48.4987
50.0398
52.0929
55.6714
58.9341
38.6912
38.5791
34.9538
32.2432
27.0755
56.8219
38.5501
38.8214
40.2024
65.0412
68.4658
63.04
69.6569
72.7887
70.766
113.139
65.9867
62.117
60.4875
40.8041
43.1912
41.6302
45.4081
47.1572
49.2927
50.3682
52.6327
55.9298
59.0545
37.8957
38.0461
34.4749
29.8823
25.6296
35.677
37.8417
38.7543
38.0821
39.4332
66.4132
70.0951
65.3016
72.4215
75.4326
78.9174
76.5305
70.7199
63.3266
62.0269
40.893
42.4436
43.9638
41.6912
46.2336
44.6906
47.9927
49.1997
51.4375
54.0269
57.6783
55.2319
60.844
37.4393
37.4259
36.3398
27.1539
28.7942
78.1437
38.0983
37.5713
39.4474
68.9487
72.6018
66.4675
74.6565
78.3852
79.1813
87.9583
65.146
62.9079
40.2263
42.6338
43.3741
40.9423
45.4082
44.6574
47.8183
50.1886
51.4089
53.8215
57.5998
56.1728
60.5169
62.5207
36.854
36.7353
35.3641
25.4485
28.0651
43.2138
37.6057
37.7522
36.9361
38.8537
70.6031
75.0343
68.8011
77.1792
80.8664
83.5858
85.6069
109.529
66.0767
64.9987
40.1932
41.9382
43.6765
40.6859
45.8022
48.9124
46.9679
49.9778
52.5298
54.8892
58.8793
56.0622
62.0045
64.1219
36.3371
36.5578
35.9918
37.1818
24.7627
33.3918
31.9377
37.0892
37.1433
38.1463
36.6877
38.9883
73.221
75.3377
77.7401
69.6548
79.7429
83.7791
85.7892
88.999
87.5677
68.3652
66.0183
39.6829
41.8929
41.1644
43.3746
39.895
45.0656
48.9827
47.2822
50.9917
52.0639
55.0736
58.672
57.3095
61.8252
63.9753
35.7721
35.9557
36.0175
35.4303
23.2509
34.1084
70.8208
22.425
36.6833
37.5589
36.1538
38.4998
73.7752
78.3629
80.6199
72.4079
82.2776
85.0234
89.6592
92.2849
89.6339
120.205
69.7457
67.9865
40.9905
42.5715
40.6562
44.1509
39.4947
45.4582
50.0936
48.2737
46.4758
51.0376
52.9629
54.2191
56.5418
60.0346
63.4028
65.8969
35.4482
35.0302
34.8669
28.6569
34.6658
85.3875
16.1861
36.091
36.9059
37.7453
35.5661
38.7348
76.88
81.2293
83.3542
74.1181
88.2611
92.7599
95.8279
94.9223
97.2177
72.2588
68.7217
41.0001
42.7248
39.8825
43.5272
44.9932
49.929
48.7021
46.4905
52.0681
54.8945
57.3386
59.107
65.2997
63.3451
67.9598
34.8864
34.5943
34.4052
29.7346
34.4847
38.6998
19.6899
35.6106
36.3113
37.2866
34.9721
38.2957
78.8769
84.2299
86.8412
77.0545
91.1861
96.4319
99.531
98.8728
127.678
73.1866
71.3794
40.0476
41.841
39.5217
43.9767
45.4829
50.7781
48.4181
47.3297
52.615
54.081
56.4534
60.1155
66.8967
65.5073
62.0711
69.6784
34.4256
33.5427
33.8251
32.9322
33.6303
31.2437
19.3861
34.9818
35.7392
36.1839
36.6978
37.6171
34.4654
38.6948
82.1535
86.6064
85.7462
90.3044
78.7176
95.8551
98.1947
103.508
106.828
110.523
76.283
72.1584
39.6807
41.8507
43.5231
45.0574
50.5793
51.9197
49.3866
46.8356
54.787
57.2468
58.9381
69.1921
66.5493
62.8683
33.8975
33.2716
33.5741
32.9137
22.4488
20.5802
34.5968
35.317
35.6667
36.3307
37.0694
33.968
38.0861
83.7172
84.333
90.2343
90.0042
93.6917
82.1941
98.9858
103.315
105.342
111.406
137.991
114.372
77.3621
74.6445
39.0385
40.313
41.0636
42.7598
44.1309
45.7228
51.533
52.6026
48.8624
47.553
53.8619
56.3199
59.6117
71.4303
64.7761
68.6492
61.3938
33.4691
32.8206
33.097
30.5499
32.2755
14.3211
87.9282
18.6299
34.1496
34.8165
35.2665
35.7398
36.5241
36.8903
33.7991
33.5243
37.3432
38.3344
87.216
87.7879
93.3711
93.297
97.431
84.5993
104.431
106.517
110.918
115.13
127.102
122.089
80.7104
75.1913
39.0514
39.6187
41.1622
42.7597
43.54
45.227
52.0387
49.7332
47.1669
54.5152
57.0513
58.7006
70.5837
74.0563
64.9238
68.5258
61.7327
32.9608
32.3079
32.4685
32.3623
31.7092
14.695
37.1611
25.9795
33.7946
34.5992
34.8408
35.4368
36.1461
36.2801
33.42
33.1224
37.0128
37.9885
90.0458
91.658
96.9239
97.9088
100.665
83.8479
88.7621
108.326
112.187
121.36
151.405
128.757
80.7986
78.3698
38.3587
39.8014
41.967
40.5491
44.0801
45.9231
53.6124
51.1344
49.2008
48.0068
56.1173
59.5521
72.5463
75.7978
63.6229
66.9836
70.8046
61.226
32.6218
31.9872
32.4369
31.7519
31.3965
17.3888
86.1127
25.2294
33.8604
33.4389
34.2135
34.4868
35.0236
35.7067
36.0398
33.072
32.7332
36.4059
37.3628
93.8638
94.8949
102.481
105.198
87.5768
91.4476
114.078
117.922
127.563
148.56
138.287
84.0573
78.53
37.863
39.6784
41.8332
40.285
43.4691
45.6264
54.3742
51.7227
49.9511
47.5027
56.9143
58.6834
75.0377
64.3163
67.6623
71.8603
62.5496
32.1642
31.5839
32.067
31.1103
30.9884
15.8613
41.6833
28.7265
33.4381
33.1204
34.0747
34.6255
34.9232
35.2851
35.4372
32.7504
32.403
36.0474
36.8143
96.9843
99.5628
103.27
107.068
108.495
91.4581
87.4996
95.5807
117.176
117.821
125.316
136.32
167.821
149.685
146.907
84.0994
81.0085
38.2439
37.0072
39.1471
42.5658
40.9123
43.9921
46.5337
44.8377
55.9772
53.2229
51.1955
49.4302
48.2128
59.6629
77.2997
66.1095
69.8693
74.5857
61.7357
31.9065
31.2644
31.3051
31.1995
30.7498
30.7923
20.8897
24.2464
90.3252
33.1888
33.1333
32.784
33.7972
34.266
34.4458
35.1762
32.4183
32.0922
35.5297
36.2377
101.36
108.845
112.068
115.16
95.515
91.4466
98.8944
124.15
125.185
132.854
144.033
173.08
162.579
155.263
87.0703
80.4184
37.8131
36.6081
39.3591
42.43
40.8267
43.1164
45.8549
44.9724
56.8959
53.3887
51.9791
50.22
47.5072
58.7406
77.3093
66.9997
70.2578
74.2538
63.1194
31.6185
31.3225
30.9574
31.1702
30.7551
30.4094
30.4919
19.4367
26.8594
54.2408
32.8038
33.4107
32.7748
32.5374
33.9309
34.1306
34.3089
34.7398
32.1264
31.8225
35.2159
35.7217
106.171
112.426
118.15
120.335
98.1914
90.2911
95.2894
104.128
130.013
132.026
141.888
154.292
166.462
86.6012
83.1845
38.2062
37.031
36.0316
38.9133
40.1336
41.6069
43.2226
46.302
44.2296
56.8584
54.6653
51.5272
50.2341
47.9728
59.7551
80.1171
69.3574
65.4586
72.5754
76.721
61.5927
31.5755
31.0126
30.705
30.5691
30.1607
30.2997
30.0303
30.4554
14.8449
24.1001
35.1303
32.5751
32.7186
33.2549
32.5381
32.1992
33.721
33.8086
34.023
34.5418
31.8268
34.7649
35.3097
35.6131
111.695
119.758
123.807
128.079
103.358
93.0135
97.2265
108.596
138.773
140.18
150.556
165.224
176.118
89.8155
82.5309
37.7182
36.6983
35.5496
39.1875
39.9316
41.3764
42.8175
46.0638
44.1414
56.138
58.5701
53.7555
52.4157
49.117
51.4438
46.8842
81.3515
70.8942
66.6828
73.2719
79.3312
75.293
62.3741
31.2997
30.738
31.0179
30.1931
29.6759
30.0342
29.8395
30.2363
16.4314
26.7113
87.3551
32.297
32.9486
32.4175
33.4365
32.2649
32.0766
33.5277
33.6809
34.1694
31.5886
34.6119
34.8911
35.1705
117.325
123.979
132.252
134.482
107.779
101.95
96.9093
114.959
147.156
149.743
162.154
176.223
91.869
85.7954
37.0953
38.0037
36.1517
35.1429
35.6325
38.7882
40.4705
42.0141
43.3527
44.9895
57.2234
58.8428
54.4948
49.1464
52.0836
46.9556
84.4538
69.7454
66.1719
80.6563
76.977
64.4483
60.4969
31.2802
30.4913
30.7793
30.0708
29.2476
29.8621
29.6063
29.9652
30.257
16.5023
24.5163
29.0698
45.1828
32.2301
32.0345
32.7855
32.3087
33.1956
32.0109
31.8199
33.2322
33.4449
33.4391
33.872
31.6038
34.2415
34.823
119.246
132.03
139.59
144.304
112.894
105.804
101.021
118.86
159.978
160.482
173.779
97.1336
88.8716
36.5256
37.536
36.0438
34.7841
35.1479
39.1947
40.08
41.886
42.7265
44.4932
56.2761
53.6994
48.0389
50.2553
51.3718
46.0883
86.3399
71.6912
68.4843
80.2226
84.4265
74.9085
64.9973
60.9442
31.1848
30.377
30.7715
30.5297
29.3681
28.9544
29.3669
29.5922
29.7763
30.0838
13.8064
26.6734
29.1584
20.8445
96.7578
31.9601
31.86
32.4851
32.9182
32.0451
31.7048
31.6203
33.0369
33.1217
33.13
33.5314
33.9148
31.3643
34.1032
34.431
127.846
139.591
134.366
149.771
152.802
111.79
105.801
101.463
125.39
172.331
98.1175
89.831
36.7254
37.8962
35.399
34.5037
34.4357
34.9754
34.7027
38.7444
40.6114
41.4574
42.8123
45.2172
43.5925
57.0911
54.5067
47.9457
50.0172
52.1394
46.1263
70.8113
67.1125
82.9544
86.5426
76.3661
63.3166
60.0534
30.9622
30.1302
30.5434
30.408
28.666
29.2282
28.916
29.1354
29.4392
29.8446
29.5447
21.9801
28.5558
20.8955
46.5998
31.8699
31.6592
32.3333
32.7084
31.8608
31.5467
31.4006
32.7732
32.9678
32.9244
33.2789
33.5353
31.2704
33.7734
130.467
149.802
144.637
158.195
165.005
117.657
110.774
106.934
128.904
93.5702
103.227
36.2474
37.4383
35.135
34.1118
34.1177
34.4785
34.3662
39.1874
40.081
41.8924
44.5913
43.7207
55.9711
58.6063
53.3685
46.9463
48.9396
51.0051
45.0162
72.801
68.3929
82.2725
90.0392
79.5925
75.4502
63.2132
61.2406
30.8971
29.9783
30.5078
30.2302
28.3581
28.6798
28.7451
29.0574
29.2027
29.6893
29.3714
24.115
28.2101
19.3099
91.5148
31.655
31.4479
32.4852
32.133
31.6249
31.9261
31.3388
31.1799
32.5805
32.6731
32.6238
33
33.281
33.444
31.0505
33.8023
139.425
158.079
152.969
147.706
167.902
173.451
125.412
116.403
110.348
138.673
94.424
103.431
107.986
36.6076
35.6126
37.818
34.6103
33.8534
34.0506
34.0049
38.6814
40.5201
41.4885
42.9314
56.391
58.0001
53.9294
46.9788
48.8252
51.0621
44.9058
71.2806
67.2425
85.9063
93.6122
89.5451
80.3359
77.3936
64.9405
60.6627
30.6787
29.7675
30.0476
30.2945
30.1659
28.1355
28.5439
28.4907
27.9372
28.7951
29.073
29.5205
29.1701
29.3775
23.3719
28.4653
17.8265
50.0894
31.5301
31.4546
31.2792
32.3017
32.1116
31.477
31.7229
31.1537
31.0037
32.3395
32.4898
32.4806
32.8452
32.9742
33.1685
33.4639
167.608
165.011
160.284
175.06
131.503
122.168
118.268
147.219
99.945
108.485
113.072
36.2643
35.0699
37.4533
34.5713
34.1344
33.4431
33.6016
33.6219
39.0704
40.5068
42.044
43.0596
55.6439
58.9171
53.5603
45.8688
47.9106
49.8899
52.2228
43.9174
72.7764
68.8823
86.1201
97.1347
93.2886
83.0324
75.9773
64.0099
61.9973
30.5633
29.6782
29.9202
30.2389
29.976
28.1947
28.3865
27.8387
27.7032
28.7186
28.8837
29.423
29.0975
29.2159
24.8253
28.3272
27.3558
21.712
99.3528
31.2946
31.2632
31.0914
31.9324
31.3024
31.5338
31.7283
30.9394
30.8153
32.1684
32.2438
32.632
32.2756
32.7471
32.8611
33.2009
173.335
172.6
159.515
140.494
129.648
123.125
147.468
100.952
109.781
119.46
35.6779
36.7359
35.0922
37.8478
34.1735
33.6494
33.322
33.387
33.2138
38.5182
39.8598
41.312
42.1499
56.6408
58.3448
54.7298
45.4625
48.2352
49.5301
51.8648
43.6113
71.6053
67.8407
89.5777
96.5491
95.2758
83.0981
77.9197
65.4661
61.4144
30.6557
30.3859
29.7752
29.5058
30.0905
29.8593
28.0601
28.2993
27.461
27.6
27.8655
28.5556
28.7549
29.2429
28.9433
26.9857
27.755
26.3923
22.1744
48.5083
31.1795
31.0912
30.9139
31.9538
31.1684
31.3629
31.5405
30.7729
32.0237
32.4271
32.0385
32.2628
32.4109
32.7118
32.8809
173.062
144.462
135.776
131.802
160.427
104.92
115.771
124.699
35.5245
36.5174
34.626
37.4905
34.1916
33.665
33.2415
33.0145
33.0037
32.9118
38.6103
39.9098
41.3813
41.913
56.1735
59.5387
54.4082
44.4697
46.2978
47.4795
50.4903
53.0385
42.7869
73.5429
69.4785
86.5407
92.9491
101.038
99.6586
81.1079
76.6102
64.9592
62.8065
30.4763
30.3534
29.629
29.4972
30.056
29.9364
29.6829
28.0826
28.3971
27.2863
27.4047
27.196
27.7149
28.5186
28.6122
28.7898
29.1589
28.8997
27.1707
27.3305
23.1398
24.7152
92.9249
31.0248
30.8886
30.7306
31.7958
31.0207
31.2011
31.3634
31.5778
30.5858
31.8262
32.2581
31.864
32.0533
32.3001
32.4915
32.7634
153.182
137.083
136.599
162.028
115.884
122.446
133.59
34.8386
35.9247
36.9236
37.836
33.734
33.4346
32.813
32.705
32.6958
32.5668
39.1853
40.5799
41.17
57.2988
58.8641
55.5938
44.4847
45.7554
48.1336
50.4905
53.3202
43.0203
72.2349
68.8409
86.4292
95.1979
102.956
100.186
82.5464
78.7547
66.5739
61.7154
30.4334
30.1752
29.5689
29.3807
29.9169
29.8542
29.6309
28.0208
28.3021
27.5105
26.9731
26.9244
27.7195
28.3675
28.5056
28.6682
29.2669
29.0169
28.7566
27.4482
27.2131
26.7036
21.7922
25.2472
46.0382
30.8747
30.7755
30.7291
30.5651
30.8894
31.046
31.1824
31.5012
31.637
32.0027
31.8862
31.6607
32.116
32.3089
32.4435
156.04
147.643
146.216
174.428
113.258
124.288
129.07
140.195
34.5904
35.7853
36.2902
37.7064
33.2844
33.0531
32.4983
32.714
32.4239
32.3216
32.2549
39.022
40.4358
41.2796
56.8433
59.9552
55.8008
44.8771
43.4808
46.1927
49.8583
47.5468
52.2535
53.9278
41.7329
74.049
70.2137
89.5992
93.6756
107.808
104.255
82.3851
77.3548
64.3827
62.4788
30.2494
30.1089
29.4056
29.3214
29.784
29.7321
29.4958
27.8759
28.1544
27.408
26.7368
27.0378
27.6108
28.3618
28.5365
28.6641
29.1677
29.039
28.6602
26.858
26.6748
26.4319
26.3903
23.6847
92.6016
30.7008
30.5972
30.5589
30.4101
30.8977
30.7105
31.0271
31.1798
31.3394
31.5393
31.8158
31.7012
31.5885
31.8915
32.1277
32.2231
167.04
150.477
152.359
118.5
128.352
137.317
150.171
34.026
35.1476
36.5414
37.3666
38.4444
33.3971
32.7853
32.7172
32.1485
32.3454
32.157
32.0787
31.9685
39.8233
40.6476
57.7866
58.8343
56.5856
43.7718
42.5792
43.5224
52.2704
48.808
53.3799
48.0424
40.6166
72.4756
65.9783
90.0524
97.7744
107.286
85.9175
79.4864
64.0709
59.7788
30.2434
29.9365
29.3844
29.1831
29.6304
29.7931
29.6129
29.493
27.8205
28.0418
27.2843
27.4665
26.6797
26.9642
27.6621
28.288
28.4608
28.5193
28.9519
28.5035
28.726
26.6485
26.2626
26.4929
26.3902
22.5026
23.2144
58.0336
30.5736
30.4852
30.4209
30.7726
30.5864
30.8706
31.0193
31.2291
31.3145
31.5359
31.4943
31.4126
31.7508
31.9762
32.0123
173.13
162.465
163.653
125.328
113.995
136.391
145.211
158.113
34.1517
35.1989
36.3862
37.6177
38.7274
32.8089
32.3933
32.3766
32.0713
31.9129
31.9615
31.783
31.6651
40.3428
39.6943
58.5956
54.8823
43.3356
42.3085
44.9005
51.8169
49.2515
48.3248
46.0196
43.4718
40.6248
73.0624
63.7871
93.9679
102.479
106.172
85.8217
82.7485
75.4641
60.3831
58.8469
30.1212
29.8759
29.2302
29.1288
29.5236
29.6514
29.3799
27.9022
28.0773
27.187
27.3546
26.5589
26.8363
27.0537
27.6378
28.1839
28.3589
28.9994
28.8483
28.4356
28.6361
26.5575
26.0314
26.1591
26.2831
24.4159
23.7258
43.3872
30.4323
30.32
30.2741
30.6365
30.7543
30.4589
30.8786
31.0378
31.2614
31.4141
31.2829
31.2617
31.5511
31.811
31.792
173.865
130.265
116.896
143.132
138.168
156.107
168.21
33.632
34.6564
35.7988
36.8696
37.2693
36.1599
39.092
32.931
32.3584
31.9583
31.998
31.7221
31.5983
31.7133
31.7934
31.5521
31.6717
31.4806
39.8526
54.7254
32.96
40.7411
74.2683
28.3215
38.7789
46.9429
3.08455
33.6494
44.7255
66.3554
59.1689
95.3349
104.818
111.874
89.6694
82.9686
74.4046
57.4507
55.9184
30.1598
29.9884
29.7451
29.1774
29.4061
29.5465
29.6282
29.3339
29.2703
27.8798
27.9691
27.206
27.3926
26.6188
26.7511
26.9518
27.7563
27.5156
28.1391
28.2188
28.9149
28.7745
28.5265
28.3249
28.6607
26.1109
25.7367
26.0969
25.897
25.9085
26.3643
18.4766
22.5288
23.4786
96.4359
30.3097
30.2945
30.21
30.5512
30.6039
30.3245
30.3724
30.7089
30.9544
31.0741
31.2094
31.1047
31.0764
31.4823
31.6068
31.5855
129.885
123.915
153.141
145.648
165.082
174.673
33.9105
34.2165
33.8293
32.4659
34.5615
32.0324
37.8608
32.3121
31.8479
31.6534
31.6801
31.4949
31.6241
31.3069
31.4013
31.2931
48.8384
54.3155
50.1008
44.7693
47.7364
38.536
87.5557
47.8186
64.7036
61.9158
100.684
93.4131
109.983
114.116
86.3305
77.7143
69.2254
54.6941
30.0298
29.951
29.7265
29.0687
29.3581
29.43
29.5408
29.2122
29.1877
28.0056
27.1256
27.2793
26.5153
26.8019
26.9856
27.673
27.4739
28.1917
28.802
28.9614
28.4363
28.276
28.6348
25.755
26.0876
25.9959
25.6525
25.6105
26.309
24.3342
18.4925
55.4537
30.1687
30.1422
30.063
30.4193
30.5799
30.2143
30.241
30.6471
30.7759
30.9793
31.1678
31.0668
30.9341
30.9249
31.307
31.4019
139.011
126.713
164.159
148.053
171.629
33.8558
32.4902
31.9342
29.1827
28.5302
34.696
30.327
31.8521
32.2746
31.5792
31.2942
31.3493
31.1908
31.4219
31.2375
31.0358
31.2628
31.0091
31.108
37.9573
52.3788
69.549
99.5808
100.479
100.802
96.1334
111.852
120.534
87.3407
77.6198
73.3774
54.6953
29.9686
29.8187
29.5982
29.0252
29.2336
29.4338
29.1611
29.0826
27.9278
27.1795
27.2634
26.509
26.7176
26.9747
27.7309
27.5635
27.3672
28.1184
28.7236
28.8926
28.4425
28.3283
28.1728
28.5495
25.3275
25.8519
26.085
25.854
25.6719
25.4135
26.213
26.3844
24.8065
28.3794
21.6938
104.577
30.0556
30.0434
30.3375
30.4166
30.0895
30.1516
30.4775
30.7136
30.8249
31.0228
30.8556
30.7971
30.7678
31.1775
31.2226
140.281
133.975
172.668
160.216
32.6952
30.0256
32.1467
38.2567
21.5226
25.0027
31.2818
31.7222
31.1114
31.1506
30.8793
31.1134
31.0086
31.0571
30.9227
31.0574
30.9432
82.6301
88.7185
109.188
104.879
96.0929
118.979
110.277
83.3317
91.8514
87.8704
29.8474
29.7479
29.5056
28.9217
29.1719
29.3354
29.0609
29.0197
27.833
28.0144
27.0748
27.1691
26.6022
26.7795
26.8797
27.6471
27.5579
27.374
28.783
28.3866
28.2705
28.1157
28.5438
25.1559
25.5852
26.0156
25.8049
25.5698
25.4129
26.1746
26.364
25.4379
21.518
21.5936
63.6277
29.9102
29.9063
30.2002
30.3609
29.9797
30.0065
30.4484
30.5696
30.6925
30.8485
30.9102
30.6499
30.6352
30.6541
30.9793
31.0336
149.592
136.726
160.553
30.3373
32.2865
27.5668
32.6093
72.4853
69.9931
30.8265
31.0428
31.2376
30.7584
30.8098
30.65
30.8253
30.7342
30.8753
30.7608
30.8735
30.7401
101.036
124.059
116.102
89.2634
93.278
113.177
29.8144
29.6675
29.5459
29.3873
28.8586
29.2494
29.0904
29.3161
28.9755
28.9064
27.8544
27.9494
27.0628
27.1911
26.5796
26.6645
26.8728
27.6699
27.4784
27.296
28.7187
28.3041
28.439
28.1665
28.0014
28.6226
24.9588
25.1709
25.0775
25.5326
26.0587
25.8883
25.6536
25.3112
26.2437
26.4601
25.1749
20.341
34.047
23.2107
111.885
29.8292
29.8335
30.0926
30.2329
29.8776
29.9209
30.2929
30.5664
30.7416
30.7842
30.511
30.5116
30.4996
30.9121
146.131
131.27
172.762
26.5473
31.4019
25.0706
29.7391
31.3089
30.6455
30.716
32.018
30.3001
30.6639
30.3564
30.6389
30.6123
30.7394
30.7632
30.5896
30.6886
30.5676
103.607
123.458
114.104
110.308
99.6978
98.1709
29.7093
29.4691
29.2879
28.7574
29.1944
29.1105
28.9993
29.2209
28.8788
27.7696
26.9789
27.1202
26.678
26.8051
27.591
27.4964
27.32
28.2239
28.4042
28.1461
27.9388
28.5509
24.8968
25.0169
24.8214
25.0693
25.9903
25.7988
25.585
25.4173
26.1809
26.4481
24.8932
25.0796
19.5831
24.9864
23.0445
64.9812
29.7005
29.7317
29.9825
30.1168
30.1876
29.771
29.8323
30.3008
30.4451
30.6104
30.6437
30.3741
30.4942
30.4385
30.3832
30.403
30.7186
152.827
135.056
164.961
28.1614
28.2804
30.6495
30.1963
30.3765
29.3786
29.9535
30.3734
30.2117
30.077
30.3821
30.3879
30.5981
30.5332
30.3942
30.5227
30.3413
108.713
129.393
119.46
121.614
97.7608
29.6098
29.3944
29.5171
29.1851
29.3009
28.6745
29.0472
28.9109
29.1544
28.812
27.7648
27.0149
27.1506
26.6598
26.8509
27.612
27.4161
27.2496
28.2448
28.3287
28.4706
28.0776
27.8532
27.9919
28.5773
24.7584
25.047
24.6671
25.8479
26.0488
25.6575
25.3434
26.2514
26.5736
26.3716
24.625
24.9658
20.9404
20.3225
24.4712
59.8255
29.6544
29.6032
29.7047
29.9144
30.0198
30.0533
29.6858
29.733
29.8262
30.1844
30.5555
30.5804
30.2712
30.3291
30.301
30.2728
30.2856
143.71
173.268
41.6469
29.8433
30.0967
27.8373
22.5647
29.6028
30.2412
29.945
29.8109
30.2663
30.251
30.4361
30.4501
30.2609
30.3567
106.764
133.659
127.263
113.258
29.372
29.4274
29.1152
29.2511
28.669
28.9765
29.0686
28.839
28.9065
28.7371
27.6933
26.9459
27.1008
26.7609
27.5892
27.4246
27.2596
28.1662
28.3255
28.4031
28.0884
27.8502
27.9301
28.535
24.6905
25.2142
24.938
24.5494
25.7976
26.0114
25.5615
25.4227
26.2184
26.5873
26.4169
24.4296
24.4463
25.1317
24.4824
21.5415
16.9734
23.5963
26.2375
29.5629
29.484
29.6039
29.9307
29.9728
29.5637
29.6652
29.7649
30.0508
30.178
30.4236
30.4045
30.167
30.2986
30.228
30.1728
143.817
173.234
29.9308
28.825
29.6103
23.6883
28.1517
77.4215
29.5728
29.3543
29.9993
29.748
29.8385
30.0489
30.0552
30.3179
30.3188
30.088
30.2944
30.207
124.755
134.664
127.606
139.488
29.291
29.4061
29.1542
29.042
28.5842
28.9246
29.0194
28.7672
28.841
28.7137
27.6424
26.993
27.1404
26.7778
27.5218
27.3564
27.2185
28.1489
28.2726
28.3999
28.0248
27.8013
27.9506
28.469
24.794
24.5595
25.1593
24.9481
25.7216
25.905
26.1031
25.6012
25.3658
26.3042
26.5256
26.6923
26.4001
24.191
24.3007
24.6127
24.1257
19.0598
24.1761
29.4607
29.5398
29.5238
29.8138
29.8501
29.5211
29.6872
29.5798
29.9526
30.081
30.3382
30.0352
30.173
30.1024
30.0404
152.566
164.621
29.6992
28.7984
29.4423
64.2859
26.5426
29.3551
28.9604
29.9084
29.4968
29.6049
29.9523
29.9244
30.185
30.1555
29.9412
30.0594
30.1068
30.0965
30.0698
144.425
139.907
29.2432
29.2937
29.1142
28.965
28.5851
28.9452
28.8486
28.772
28.6531
27.7104
26.9799
27.0639
26.8958
27.5304
27.3727
27.2819
28.0866
28.2056
28.2939
28.3487
28.0257
27.8263
27.8916
28.4399
24.7553
24.4672
25.0504
25.24
24.8389
25.7522
25.8647
26.1087
25.5569
25.439
26.3201
26.5604
26.7213
26.4784
24.1041
24.3185
24.6355
23.9956
23.9647
29.4078
29.46
29.4355
29.7591
29.7782
29.4198
29.5958
29.5424
29.8349
29.9706
30.1937
30.0366
29.9637
30.1159
30.0015
172.421
29.3635
26.6925
28.9807
33.0686
29.325
29.1296
28.716
28.9128
29.7069
29.4292
29.542
29.7771
29.7623
30.0908
29.7831
29.8973
30.0691
29.9197
29.9424
146.873
29.1687
29.2476
29.0519
28.9173
28.9363
28.5386
28.8093
28.7096
28.6138
27.7108
27.0967
26.9077
27.6199
27.4538
27.2827
28.0755
28.186
28.2377
28.3692
27.9766
27.7798
27.9014
28.4784
24.6362
24.5072
25.0165
25.2309
24.8779
25.7427
25.925
26.2321
26.0333
25.6493
25.4447
26.4411
26.6516
26.8295
26.528
24.1634
24.2886
23.8617
23.9776
29.328
29.3857
29.3762
29.371
29.677
29.6932
29.4033
29.5288
29.4738
29.7467
29.8658
29.9286
29.8503
29.9827
29.8923
162.24
29.1148
24.751
28.6957
18.2733
29.0914
28.982
28.4131
28.6763
29.6471
29.2092
29.3459
29.6869
29.6968
29.9466
29.7686
29.8477
29.9255
29.8566
29.8496
29.8167
29.0847
29.1791
28.9913
29.0328
28.8489
28.8588
28.5508
28.7503
28.7062
28.6438
27.6754
27.2191
27.0908
27.0117
27.6115
27.4836
27.3753
28.0176
28.1302
28.2461
28.3518
27.9688
27.7444
27.8767
28.4453
24.5627
24.389
25.1052
25.3368
24.8364
25.841
26.2664
26.0752
25.5607
26.4705
26.7064
26.8614
26.6487
24.1466
24.228
23.8891
23.8419
24.078
23.9427
29.2814
29.3092
29.2991
29.2986
29.5767
29.5996
29.3394
29.4099
29.3943
29.6279
29.7097
29.8329
29.7693
29.8265
29.739
29.8913
29.764
28.8737
12.2547
27.9427
28.2259
79.8335
29.0424
28.7853
28.1152
28.434
28.528
29.5034
29.1779
29.3344
29.5327
29.5419
29.61
29.6922
29.8053
29.7172
29.7004
29.7035
29.093
29.2022
28.9412
28.9597
28.8184
28.8423
28.5173
28.7093
28.6442
28.6121
27.6934
27.2499
27.1863
27.0307
27.5669
27.6537
27.4431
27.3748
28.0063
28.1566
28.3105
28.2256
28.3988
27.9274
27.7821
27.8448
28.4689
24.6065
24.4413
24.3575
25.0812
25.3351
24.9476
24.7249
25.9102
26.1977
26.3857
26.0496
25.5737
26.6038
26.8133
26.9671
26.7156
24.2328
23.7663
23.733
24.0187
23.9061
29.244
29.232
29.2379
29.5335
29.3319
29.2622
29.3698
29.5527
29.6203
29.7304
29.6981
29.7182
29.6277
29.7634
29.6928
28.3007
12.1504
26.1384
27.8027
29.0493
28.8293
28.5958
28.6892
27.9161
28.2626
28.3079
29.4504
28.9853
29.2386
29.4557
29.4919
29.5747
29.6145
29.6691
29.6354
29.6063
29.0412
29.1553
28.8866
28.9268
28.7423
28.7941
28.5509
28.6442
27.322
27.1841
27.1192
27.5718
27.6807
27.4721
27.4226
27.9507
28.0571
28.1763
28.3008
28.2594
28.3848
27.919
27.7434
27.8694
28.4193
24.4987
24.4158
25.1987
25.327
25.485
24.9615
24.738
25.8995
26.2501
26.4341
26.1464
25.7369
26.6079
26.694
26.863
26.9498
26.8307
24.2126
23.7054
23.6566
24.0276
23.8613
29.1763
29.1572
29.1658
29.4428
29.2536
29.1983
29.2863
29.4507
29.5522
29.5531
29.5953
29.6769
29.6198
29.5207
29.6587
29.601
28.1173
14.6194
28.2976
27.4889
75.9463
28.8057
28.3934
28.4938
28.0312
27.682
28.1589
29.3073
28.949
29.0939
29.3289
29.3609
29.4493
29.4931
29.5771
29.4973
29.4954
28.9794
29.0818
28.8265
28.8808
28.7325
28.7694
28.5102
28.6126
27.3046
27.2413
27.1226
27.5259
27.6295
27.4191
27.9861
28.1149
28.2445
28.1632
28.337
27.7691
27.8424
28.4141
24.5146
24.3147
25.223
25.4783
25.5742
24.8597
25.108
24.6377
25.8536
26.0545
26.3622
26.5468
26.16
25.6987
26.6958
26.7772
27.0135
26.8871
24.118
23.7987
23.6154
23.5345
23.9281
29.1204
29.1008
29.1144
29.3879
29.194
29.2208
29.1278
29.2577
29.3971
29.4802
29.4792
29.5487
29.5588
29.5348
29.504
29.4339
29.5557
27.5661
15.8045
27.2127
27.2871
25.0947
28.6469
28.3458
28.2134
28.3976
27.8679
27.543
27.9287
29.2481
28.8006
29.0266
29.2076
29.2971
29.2205
29.3483
29.3485
29.431
29.3808
29.4802
29.431
29.4384
28.9379
29.0393
28.8297
28.7786
28.8888
28.6997
28.7235
28.4594
28.5313
28.58
28.6544
27.352
27.252
27.0996
27.2018
27.5279
27.6389
27.4137
27.4901
28.0051
28.1214
28.2397
28.2006
28.33
27.781
27.896
28.3764
24.4156
24.3092
25.3821
25.5039
24.9334
25.1412
24.6924
25.9759
26.0809
26.425
26.5836
26.2862
25.7976
26.77
26.6667
26.8691
26.9855
24.1161
23.7981
23.6189
23.523
23.9361
29.0595
29.0367
29.0458
29.3022
29.1288
29.1508
29.0679
29.1741
29.4218
29.3389
29.3968
29.4503
29.4968
29.4462
29.4109
29.3406
29.4439
26.9959
27.7235
19.3284
29.0559
27.0203
27.3618
76.1071
28.6539
28.5048
28.1709
28.0354
28.2685
27.6371
27.801
29.117
28.7699
28.8781
29.0947
29.153
29.1168
29.237
29.2239
29.3145
29.2933
29.3874
29.293
29.3488
28.9499
28.9907
28.7985
28.7475
28.862
28.7053
28.4654
28.5145
28.5889
28.6248
27.388
27.3282
27.1745
27.2436
27.5867
27.7126
27.4793
27.5308
28.0872
27.9712
28.1559
28.2705
28.1918
28.3102
27.8626
27.764
28.3969
24.4553
24.2162
25.4097
25.6546
25.0735
24.8435
25.3066
24.5941
25.9443
26.204
26.5409
26.386
26.2933
25.7751
26.8671
26.7341
26.9475
27.0477
24.0438
23.728
23.8907
23.5467
29.0182
28.9935
29.2404
29.102
29.0722
29.0109
29.1664
29.3452
29.3092
29.2565
29.3821
29.3294
29.3894
29.3618
29.33
29.2747
29.3675
26.6533
27.074
18.4618
25.7988
26.9849
27.1736
32.4303
28.5452
28.3744
28.1314
28.016
27.8822
28.2671
27.4758
27.6438
28.6043
28.8558
28.9841
29.1406
28.9977
29.1461
29.2388
29.1888
29.3124
29.2647
28.9049
28.9416
28.8189
28.7565
28.7198
28.8734
28.6807
28.4759
28.5344
28.5662
28.6409
27.4895
27.373
27.158
27.3363
27.648
27.7702
27.5425
27.607
28.1078
28.0126
28.1828
28.3041
28.2438
28.3531
27.9032
27.8427
28.3892
28.4509
24.3673
24.248
25.5542
25.6665
25.1516
24.9145
25.2935
24.6221
26.0388
26.197
26.5911
26.4478
26.3774
25.8703
26.9641
26.8547
26.7053
27.0505
24.067
23.7826
23.9637
23.4559
23.6039
28.9597
28.9393
29.0395
29.0115
28.9568
29.1169
29.2432
29.2081
29.2932
29.2585
29.3269
29.2925
29.2354
29.1872
29.2742
26.4229
26.4659
20.1949
26.0932
26.7892
27.1268
84.1235
28.4004
28.0399
27.8935
27.7089
28.1188
27.5078
27.2932
27.5936
28.5245
28.7455
29.0321
28.8866
29.0274
29.1219
29.102
29.2102
29.17
28.9021
28.9268
28.81
28.7404
28.7049
28.8357
28.6836
28.5189
28.583
28.6226
27.5511
27.4913
27.2562
27.4482
27.7431
27.8443
27.6422
27.6611
28.0791
28.1621
27.9881
28.232
28.3044
28.3524
28.2898
27.903
28.4247
28.459
24.4151
24.1616
25.5847
25.7779
25.1689
24.8866
25.0911
25.3893
24.7777
24.5444
25.9926
26.1617
26.3197
26.5499
26.4656
25.8781
27.0904
27.0134
26.8488
27.1751
23.9165
23.7372
23.9853
23.6061
28.9155
28.9956
29.016
28.9775
28.9383
29.1431
29.0568
29.1945
29.2178
29.2414
29.2011
29.2243
29.2148
29.1617
29.1604
29.1928
29.1937
26.1909
26.59
26.2111
17.5983
25.1995
26.7363
26.9349
31.6045
28.2684
27.919
27.7184
28.0497
27.328
27.2205
27.4615
28.4206
28.6287
28.7601
28.9654
28.9104
28.9561
29.0367
28.9962
29.1356
29.0722
28.8632
28.874
28.7852
28.761
28.72
28.7024
28.8143
28.6771
28.5265
28.5702
28.6375
27.7045
27.5637
27.2843
27.4089
27.4802
27.8126
27.9198
27.7209
27.7714
28.1172
28.2148
28.0226
28.2856
28.3646
28.3878
28.3357
27.9702
28.4301
28.502
24.3414
24.2106
25.5137
25.7338
25.8313
25.3087
25.027
25.1337
24.7632
24.6289
26.0832
26.2606
26.3798
26.4457
26.6958
26.6584
25.989
27.2068
27.2049
27.0295
27.2014
26.8659
24.0031
23.8236
24.1267
23.7267
28.87
28.9521
28.9568
28.9288
28.9099
29.0915
29.0144
29.131
29.127
29.1834
29.1402
29.0955
29.0919
29.0851
29.0973
26.2496
26.0503
26.4411
25.7315
18.7317
26.5835
26.9188
79.9222
28.138
28.2373
27.7682
27.6564
27.9136
27.3181
27.0712
27.3535
28.3204
28.4395
28.5416
28.6675
28.8656
28.8067
28.8405
28.9288
28.9137
29.0459
28.9986
28.8339
28.7731
28.7531
28.7319
28.6906
28.7929
28.6712
28.5305
28.6062
28.6533
27.7815
27.7656
27.6847
27.4673
27.5572
27.7304
27.915
27.9986
27.9559
27.8226
28.1964
28.1384
28.2832
28.0877
28.3477
28.3801
28.3998
28.4897
28.5378
24.4531
25.5994
25.7311
26.0032
25.3567
24.9974
25.2611
24.8681
24.5992
26.2368
26.3286
26.5713
26.6623
26.872
26.1019
27.4118
27.3968
27.2989
27.4423