/*--------------------------------*- C++ -*----------------------------------*\
| =========                 |                                                 |
| \\      /  F ield         | OpenFOAM: The Open Source CFD Toolbox           |
|  \\    /   O peration     | Version:  v2012                                 |
|   \\  /    A nd           | Website:  www.openfoam.com                      |
|    \\/     M anipulation  |                                                 |
\*---------------------------------------------------------------------------*/
FoamFile
{
    version     2.0;
    format      ascii;
    class       volScalarField;
    location    "1.3";
    object      p;
}
// * * * * * * * * * * * * * * * * * * * * * * * * * * * * * * * * * * * * * //

dimensions      [1 -1 -2 0 0 0 0];


internalField   nonuniform List<scalar> 
13611
(
91546.4
92583.8
92201.5
93792.2
92386.3
92339.6
93203
94519.7
91188.6
93732.9
92403.3
93594
94635.2
95438
92204.3
94199.1
93148.3
92083.9
94448.9
95459
96539.6
95219.6
91941.1
93772.8
95085.4
93280
91975
94662.7
96441.7
96976.7
97254.5
95842.7
92183.9
94536.6
95437.8
94079.3
92888.4
91933.6
95382.7
97122.3
98218.2
98232.6
97152.3
96576.4
93479.5
92516.8
94392.9
96490.1
94334.5
93124.9
92164.6
95682
98297.3
98722.8
98809.8
98615.3
97962
96932.3
93802.2
91902.1
95290.4
97071
93852.3
95199.1
92872.1
91938
96483.9
99038.1
99819.1
99958.8
99421
97766.6
94720.6
92983.3
92811.2
96420.8
98565.8
94045.4
95489.6
93380.1
92197.5
96776.8
100179
100458
100139
100553
99729.8
98216.1
95248.5
93398.2
91664.4
97228.1
99350.7
94640.7
96301.5
95254.1
93487.8
92910.3
91876
97635.3
101073
101550
101023
101753
100593
99690.8
99139.3
96648.6
94714.4
92908.1
90913.4
98611.7
100523
94799.8
96424.1
95829.7
94278.8
93072.3
92100.3
97821
101180
102156
102229
102157
101904
101134
100480
99338.5
97164.6
95159.9
94333.2
92372.5
99121.5
101433
95567.7
97134
94343.2
92662.9
93740
91936
98618.1
102250
103267
103399
103335
102561
102017
100953
100141
98307.3
96354.5
94429.6
91856.4
100404
101483
102420
95962.6
97256.2
94946.4
92901
93900.4
91935.6
98704.1
103266
104275
104278
104023
103529
102284
100850
101793
100205
99074.8
96453.2
94988
94167.6
88987
100494
102972
103507
95624.7
96756.7
98050.4
94621.9
92625.3
93498.5
91701.2
99473.4
104128
105620
105531
105174
104053
103107
101747
102262
100985
98869.6
97759.3
94771.8
93468.8
88456.4
101575
103021
103970
96151
97171.3
97952.4
94788.4
92990.1
93612.2
91251.8
99623.9
105166
106427
105982
105925
105695
105098
103813
103024
101812
101044
100137
97695.6
96462.4
93708
94987.7
91896.1
101405
104213
105390
96932.3
96009
98443
95396.7
94193
92907.9
90931.1
92237.7
99171.6
100415
105938
107617
107237
107107
106874
105364
104598
103734
102491
101785
100271
99044.8
96572.1
93898.8
94327.9
92578.9
102446
105884
103783
106364
97432.7
96546.1
98162.9
95526.3
94368.5
93328.8
91655.5
92368.5
99577.6
100323
107155
108599
108190
108475
107542
107964
107115
106227
104626
103846
102419
103303
101931
101725
99008.6
97440.4
93203.2
95759.6
93210.3
106799
104864
108050
97200.1
96230.1
98638.9
95082.7
93984.2
92939.8
91668.5
99336.9
100709
108217
109895
109504
109612
108720
109005
108061
106266
105438
104835
103085
103629
102709
101426
102250
100297
97065.9
92917
95827
92778.7
106194
108381
104948
109450
97721.8
96464.2
98431.8
95320
94304.7
93129.6
92659.1
91225.7
99788.4
100423
109433
111058
109933
110979
109428
107964
109054
107086
105537
104887
103269
104255
102866
101572
101601
103963
100440
97999.9
94378.6
96840.6
92315.1
107188
108566
109607
106620
110982
97604.3
97059.7
95974
98916.9
94927.7
94124.1
93633.7
92660.6
91608.5
99589.3
100941
110739
112216
111554
111008
111746
110695
108644
109896
107062
106345
105495
103976
104454
103659
102236
102637
104065
99378.2
102059
94280.1
96970.4
92307.6
93990.1
109854
111507
107579
112567
98115.9
97240.5
96129.6
98725.5
95067.5
94607.9
93819
93076.7
92205.9
91629.2
100063
100786
113487
112153
113143
111345
113240
111240
108510
109546
110813
107816
106633
106231
105148
104222
103746
102419
105291
100199
102848
95167.8
97946.8
90409.8
93436.4
109532
111601
112990
107040
113912
97864.8
96792.9
95617.5
99217.2
94450.4
93550.9
92924.1
92429.1
91860.7
99888.8
101249
114845
113323
114023
112758
112356
109254
109973
111670
107541
106676
105467
105002
103143
104351
101965
104690
99543.1
102054
94923
97759.7
91446.6
93730.8
110864
113111
114829
108499
115738
98280.7
96821.9
95745.7
99012.8
94777.8
93705.5
93232.8
92327.6
91622.4
100386
101031
116290
114694
115817
113191
112599
109368
110909
111723
107964
107491
106256
105393
103397
104107
105057
102204
105684
100363
102952
95975.6
99050.8
91156.3
92455.3
110433
112710
114782
115485
116334
107804
116909
98140.7
96292.4
97200.5
95366.9
99492.5
94556.1
94065.1
93169.5
92689.3
91816.4
100192
101602
117787
115789
114341
113569
110227
108771
110998
112717
107894
106641
106240
102913
104568
105565
104825
101967
95954
98937.6
88182.3
93460.1
112128
114039
116361
117310
117978
108819
118896
98603.1
97665.1
96404.1
96889.1
95605.4
99203.6
94923
93965.7
93515.7
92663.1
91560.6
92307.9
100702
101491
119308
118137
117368
115438
114460
113649
109997
109148
111784
112718
108716
107453
106641
103157
105319
104449
106295
105844
102921
96935.5
95005.8
100343
91601.1
80739.4
92286
112064
113937
116032
117859
118266
119550
110619
107749
120109
119850
98344.9
97839.1
96097.6
97047.3
95391.2
99472.7
94736.9
94269.5
93505.5
93132.6
91712.2
92522.9
100620
101987
120797
120085
118202
116350
115605
114700
110357
111843
113548
109065
107809
107386
103878
102704
105827
105035
106668
104958
102135
96697.8
94284.8
99709.5
90801
85016.9
92779.1
113685
115606
116959
119448
119953
120848
111282
108652
122290
121889
98529.6
97535
96201.3
96665.8
95772.6
100057
99041.5
95104.2
93994.6
93032.7
91531.3
92300.3
101239
101829
122291
120442
117566
119451
115789
114588
109826
111153
112678
113471
108579
107691
104120
102968
106430
105655
104818
107324
106009
103451
95185.5
97981.7
100830
91992.8
86281.9
91777
115625
113071
116332
118514
120481
120563
122573
110445
107797
123476
123036
98220.5
97725.3
96744.4
95654.9
100066
99117.6
95008.2
94134.9
93317
91489.7
92579.7
101196
102426
124038
121429
118428
120306
116853
115293
110131
111305
112646
114230
108852
108383
103660
106996
106181
105298
107531
105265
102616
94839.5
97379.9
100093
89472.5
89010.6
92555.5
116788
113953
118422
120152
122669
122446
123583
111277
108752
125414
125264
98324.9
97568.9
97190.1
96411.8
95969
99559
100580
98708
95364.3
94610.8
93818.2
93091.5
91322
92007.3
92442.6
101839
102479
124271
125865
122795
118051
119986
116956
115029
116299
109638
110800
111991
113346
114093
108589
103824
106886
106027
105261
108116
106410
103444
93632.2
96055.1
98313.4
100877
90670.6
90378
86250.4
118709
115730
113049
119856
121756
124329
125495
110445
108036
126463
126518
97944.3
97070.2
96633
95772
99312.9
100571
98805.9
95190.1
94754.2
94061.6
93409
91640
92031.5
92794.8
101831
103169
126221
128072
123174
118909
120863
118168
115766
116561
109710
111237
111928
113139
114720
109159
104591
107342
106511
105966
108394
106215
105077
102362
93433.7
94933.5
97909
100257
88666
90673.3
86217.2
119439
119990
116535
113770
121575
123840
126180
126594
111367
108844
128187
128475
97996.1
97281.2
96452.9
96032.9
99485.3
101185
100054
98434.2
95408.7
94531.5
93882.6
93245.3
92491
102478
103208
126098
128102
129731
124660
122234
120135
118265
115614
117333
110107
111147
112402
113428
114725
109360
104638
107123
108055
106469
106261
109063
107850
105436
102749
91751.9
95158.1
98945.6
96524.2
101343
89391.4
89508.5
85506
118331
121272
121980
115445
112932
123160
124768
128064
128736
110448
129363
129169
129659
97694.4
97090.6
96710.2
95845.4
99166.9
101211
99969.2
98461.2
95195.9
94758.2
94144.5
93632.3
92753.9
102131
103926
127560
129638
131731
124377
122946
120837
119042
116107
117666
110635
109857
111744
112292
114090
112860
115505
105290
107408
108347
107059
106038
107023
109416
108345
104034
107077
92075.1
93556.2
98351.7
96793.8
101251
90352.5
89996.5
80571
119084
122455
121877
123397
115692
114002
126172
128667
129707
110989
131127
130869
131516
97695
97348.9
96507.1
96061.2
98782.1
99381.6
100448
98196.9
95405.8
94566.1
94055.5
93405.8
102648
104188
129182
127011
131553
132773
132608
125331
122263
120135
118626
117050
110699
110230
111712
114189
112785
115542
105104
107941
108841
106628
107503
109284
110038
109846
104006
107454
90748.4
93651.7
98645
96144.5
99868
102523
92281.2
86959.7
90801.3
86292.1
120810
118419
124253
123739
125102
116976
113739
126320
127854
131000
131683
112370
132774
132007
97913.8
97329.7
96694
95831.8
98530.7
99054.3
100084
98295.5
95144.5
94729.9
94428.3
101861
103827
130703
128101
132343
134287
134692
124582
122986
120314
119203
117359
111141
112204
114846
113717
113153
116112
105680
108302
109030
107374
106552
108132
109638
110265
110628
105025
108931
106346
90589
92802.3
94978.5
97274.5
99901.6
102524
88395
87881.8
89643.9
89656.8
90732.8
121214
119776
124883
125451
124176
116719
115195
127904
128957
131805
132328
133166
112244
134283
133754
97843.3
97063.1
97615.3
96446.7
96042.6
98567.1
99178.3
100361
98160.2
95384.5
102905
104989
130143
127123
134278
135656
134763
135608
135954
125335
122238
121028
119166
116842
118361
111214
112128
114797
113775
112947
115915
108817
109459
107880
107507
108616
110019
110657
110253
103999
108712
107172
91230
88952.7
93136.2
94440.2
97191
101280
98564.1
84625
88420.6
89102.2
87253.1
122704
119527
126543
127147
125816
118000
114755
128389
130704
133734
134228
135342
113256
136118
98000
97184.5
97681.8
96643.6
95842.9
98207
98578.7
98849
98121.6
105075
102005
131243
127822
134714
137111
136456
137711
137939
124276
122820
120236
117209
118100
111698
111000
112505
115283
114214
113271
116557
109139
109679
108546
108079
108764
109042
110265
110608
111690
104220
109753
106773
90782.4
88090.3
92515.8
94726.3
95921.7
101486
98500.5
87006.3
87029
88974.2
88288.4
123020
120627
127559
127555
125844
127334
118112
115599
130131
131354
134516
134810
135717
136796
113035
137275
98025.3
96992.4
97499
97935.7
96500.6
96139.1
98062.5
97979.6
97947.9
98176.7
106503
104563
99149.9
129788
133217
126462
136704
138629
139134
139207
124727
121798
120480
118598
111629
111264
112282
115014
114073
113225
116381
109507
110018
109166
107771
109226
109316
109387
110278
110850
111367
103019
105511
109252
107834
89735.6
91476.3
86867.3
88535.8
93491
96058.9
100627
97205.5
99446.6
86737
86518.5
86395.9
85827.3
124542
122000
119744
129107
129200
127330
128947
117015
114421
130444
133288
136240
136701
137356
138698
139192
97105.5
97644.2
98101.4
96806
97920.2
97192.4
96153.9
98273.4
106527
103952
97489.6
130007
134191
126663
136236
138584
139894
141220
141094
123618
121569
119703
117987
111868
111169
112442
115429
114388
113570
112815
116943
109739
110140
109664
109204
110415
109630
109646
110554
110808
112342
103231
105538
110366
107016
89646.9
90684.2
86108.6
87568.2
93416.1
94853.2
101068
97542
98926.8
85558.2
85291.6
86093.2
85794.9
89628
124560
122996
120310
130535
127290
128858
130496
117544
114787
132024
133649
137335
137279
139084
139659
139967
97408.1
97950.7
98355.8
98166
97575.7
94509.4
98361.3
108943
111141
92782.4
131537
128206
133373
125287
137230
140187
141637
142010
142637
123963
122209
120215
118384
111700
111381
112143
115107
113909
113459
112749
116397
110021
110394
110355
110597
111240
109980
109900
110566
111021
113817
111850
104445
102194
110156
107468
88790.7
90659.8
86632.1
85295.5
87685.3
92483.8
94637.3
99903.8
96782.4
85354.7
84108.2
86694.9
86011.4
87206.3
125831
122165
119183
132044
128534
130316
132079
116422
135299
138791
137028
138838
140674
141682
141754
98614.8
98320.5
97844.1
95250.6
98824.4
111284
114989
89252.7
130883
127868
134336
125024
136171
139298
142252
143073
144110
144455
122875
121184
119526
117681
111834
111265
112158
115534
114350
113842
113020
112392
116703
110164
110457
110264
110934
112366
112762
110014
110122
110773
110956
114302
113035
104244
102654
111451
108955
106398
89249.7
91335
85652.2
84394.3
84738.1
86729.7
92681.3
93458.9
95501.9
99877.6
97392.2
84584.2
82754.5
87395.8
84658
88805.8
126307
122733
119676
133382
128120
130024
131983
133464
116867
135031
140302
138608
140353
142298
142735
143106
99082.6
98043.8
93568.8
99283.2
126265
109430
80369.1
132494
129090
126113
123387
137507
139850
143820
144840
145381
146025
121511
119888
117840
111655
111411
111921
115014
113968
113263
112787
112238
115907
110346
110641
110319
111717
114298
113066
110149
110221
110764
111111
115613
112881
104932
102097
110849
109257
106944
88784.3
90780.9
85568.9
83269.2
83718.5
86803.5
91559.8
93051.5
94850.5
100912
98681.3
96368.9
82809.1
82153.2
81870.9
85811.7
84283.4
88808.4
125709
124261
121290
118395
129090
131194
133335
135047
136111
141566
140408
138848
143732
144184
145055
100104
100600
98323.3
99912.9
120243
135382
130724
75079.4
131583
127860
125851
122106
137440
141581
145858
143437
146198
147519
147801
120384
118961
116881
111718
111295
111824
114221
115085
113110
112873
112970
112342
111923
115853
110425
110662
110522
110955
116878
114575
110206
110330
110909
111046
115864
114316
104075
102780
111293
108332
106113
87703.1
89608.5
84594.6
82182
83266.4
85709.5
91786.8
93588
95156.6
100696
99402.6
96237.5
82330.5
80505.2
80633.1
87907.8
85283.6
85246.6
127033
124390
121657
118795
130700
128583
132846
134856
135610
137737
143275
141672
140744
144252
144778
145396
100970
102554
93720.3
116450
135381
127074
61154.2
132615
128679
124016
122213
120552
135278
140010
141757
147371
144999
147924
148768
149316
119142
116843
111564
111389
111607
113723
114257
112683
112450
112489
112066
111731
114778
110594
110797
110241
110499
115142
110235
110378
110887
111148
117421
114283
104676
101847
109885
112722
108575
107075
87244.7
89089.2
83696.7
84718.6
81440.4
82230.1
85946.2
91276.2
93026.5
94051.9
99218.8
94415.8
96865.4
80341.9
79871.1
79381.3
79865.3
88497.8
85287.4
93618.2
126139
123189
120386
131724
129925
133951
136197
137345
138429
144396
143544
141426
145962
146157
146803
103241
105112
105330
117254
116451
145035
147517
63957.2
130236
127163
123442
120364
119213
135740
140410
143924
146865
149037
148827
150581
151029
118018
115556
111284
111475
112961
113981
112026
112064
112272
112113
111744
111510
114467
110621
110794
109971
110957
113383
110203
110274
110590
110945
111061
117814
115649
103598
101937
110138
112822
106816
87797.8
89448.2
82806.1
83715
80415.3
81446.2
81837
85403.1
90299.5
91997.8
100698
98171.7
93723.6
96113.8
79205.2
78572.8
77742.7
78865
92521.5
82855.8
97131.3
126425
123488
120658
131428
133331
130019
135740
137721
140227
146388
144497
143262
146896
146785
148189
89833
107337
115618
165389
109293
118025
65986.3
130304
127843
124733
120970
119171
119741
118092
133123
138425
143058
144813
148185
150490
148803
150295
151665
151268
151894
115102
111317
112452
112897
111540
111712
111780
111625
111472
111307
113418
110770
110877
109604
108270
114013
110177
110331
110577
110934
111099
119431
117014
115427
103917
109146
111572
114093
107841
105427
87286.3
88301.4
82789.1
83504.7
79701.7
80398.7
80919.6
86211.3
84262.9
90013.5
91197
100570
98301.3
94736.2
92450.5
97063.6
75552.4
80590.7
78196.4
77764.6
76111.8
78491.4
94843.4
83306.1
106747
86913.5
124905
127666
122172
132927
134103
129037
131791
136789
139288
140768
147672
146149
143924
148514
148295
149125
106681
112612
150954
106577
120066
91159
127456
125333
123595
119846
116991
117581
116485
132658
139734
143028
147201
150192
150407
153371
153004
153111
114015
111205
111753
112560
111405
111320
111249
113054
110817
110947
108660
109955
108203
113022
110264
110580
110676
111029
119578
118187
116559
102865
109957
111489
114178
107038
105576
88716.6
81835.1
82298.3
78863.2
80025.5
80840.5
85686.5
83722.4
91273.5
99192.5
101500
94149.2
91966.9
97173
73052.8
76482.4
77503.7
76755.5
75579.4
77784.2
72862.1
108369
103175
125205
126906
122314
133165
135713
130225
131848
138539
139767
142575
149393
147465
146773
145756
149691
150739
101338
112674
148253
105205
137093
124896
126816
121165
117953
116221
115514
116666
134937
129189
138289
144960
148417
151529
151342
154014
154583
153029
154382
153709
114117
111151
110906
111077
111009
108807
109730
105612
112438
110145
110707
110764
110960
120909
117988
115827
103310
109203
112798
107502
104558
88148.8
81590.8
81802.1
78235.8
79153.1
80036.5
85955.1
84408.4
82492.9
90073.5
98689.9
100993
94836.6
92647.3
90544
96259.9
72097
74215
77312.7
77042.7
76747.1
74321.1
77299.8
77406.9
64932.5
128634
77300.4
80854.5
123905
127874
134923
136325
129808
133235
139320
141481
142882
150548
149068
148628
146536
151102
151606
91541.9
108405
120159
104315
122041
123705
119289
115745
114526
114499
133642
128444
139485
147561
144905
150756
153337
155391
155846
154061
155187
113441
111111
110837
107856
109955
109289
105592
110551
110013
110888
120872
119292
116482
102130
109820
112717
106391
104856
86861.9
88846.7
80488.6
80649.5
78300.6
78704.8
79099.3
84677.4
83777
81912.5
99546.9
93901.7
91961.2
89719.7
96442.2
70904.7
74239.9
76780.3
76683.2
76219.9
75550.5
76672.4
76747.5
56734.2
132639
93593.1
87450
123971
127291
135008
138157
131247
133141
141153
142086
144272
150409
152113
149394
148309
145759
152387
153187
91940.4
118853
92520.3
121508
119710
122009
116244
113441
113849
130909
136353
125256
142450
149123
147778
152091
154571
156360
157027
155511
156406
109397
112775
103133
110586
110032
110808
122187
119499
118417
115403
102150
111345
109065
113841
106367
103676
86596.6
87839.4
79981.8
80037.6
77338.2
77594.3
78404.9
84320.3
82580.5
80678.1
99164.1
92533.5
94839.4
90434
88171.3
97635.9
68772.2
75045.8
65239.4
73935
76322.9
76536.5
76399.9
75894.1
76239.8
76480
32629.3
144515
110424
30853.2
63888.2
125404
128615
136455
138912
130653
134582
142063
143773
151799
152891
150908
149003
146918
153722
112905
118783
98492
118631
117094
118715
122535
114947
129772
135752
125863
142601
151304
148990
154073
156243
157539
156449
157799
156235
157636
110026
99602.7
109334
110773
109977
110023
121509
119181
116104
100712
111658
110403
107547
113025
104467
85402.4
78874.8
78821.8
77015.5
77452.1
82900.8
81955.2
80044.4
91480.8
94498.9
89989
87239
97328.9
74433.7
76427.1
66273.2
79912
75859.6
76244.2
76477.9
76540.9
75511.2
75661.6
86281.9
2953.12
131524
118220
69148.7
59540.9
125220
128269
136189
138139
140993
131414
135128
143989
144715
152484
154156
151275
152166
148352
150424
146356
155232
113618
112758
110494
116475
117144
119651
131925
138817
123540
145214
152619
151681
147997
155334
157457
158614
158082
159279
157919
158985
110418
97669.7
111541
110196
110226
122095
118612
120877
114902
117394
100451
110555
107070
113403
104089
84890.2
78234.8
78143.3
76029.9
76655.7
82597.7
80670.1
78821.4
91524.1
92994.7
95773.7
88708.3
85724.1
87535.7
98616.5
75161.2
78315.7
67269.2
75856.5
75367.3
76395.3
77103.9
74908
75458.1
74981.3
113512
2520.48
140017
150893
149129
16137.2
126812
123717
129819
137440
139594
141413
132894
134554
136982
145245
154159
155508
152820
153469
149501
150807
147405
113930
111193
118718
131488
138085
123244
120306
145505
154692
153056
149796
157084
158994
159560
159036
160057
158793
110567
100378
110645
110389
119869
121163
115259
117947
101282
109488
112202
105458
108011
102698
83534.4
77004.4
76995.7
75722.8
81492.6
79888
78124.1
89972.5
93266.4
95137.7
88601.3
85005.1
86162.6
98430.3
81495.1
77904.9
80670.9
72285.2
75548.9
74764.4
76482.8
77003
74133.2
74480.8
74154.5
125964
83088.2
2302.12
112644
152405
99949.4
152676
4239.68
126836
123951
129804
139159
143027
132889
136021
138315
144912
147016
155240
156926
153275
154887
149122
152068
107673
111695
134618
128925
140185
120311
125399
118504
148654
143546
155878
152170
155191
158197
160144
160552
160205
161325
158222
160231
110423
107159
110728
110730
119511
122489
116984
114001
100103
109909
112492
104814
107362
103177
82544.9
76328.3
76153.1
74800.3
80296.9
78497.2
76684.1
89710.9
92431.3
95705.7
87134.5
83790.7
85885.7
97203.7
82590.1
82140.7
78661.4
80953.4
75648.9
74911.5
74038.3
76065.9
77334.6
73305.8
73904.6
74088.2
73372
106164
87969.4
2300.02
84347
156658
155322
125396
128265
131348
139950
142980
134397
137942
135811
146698
148558
156681
154595
155956
149951
152726
110048
111825
134674
129471
137908
118447
124320
150048
144438
157644
153595
156457
159694
161341
161567
161057
161876
162095
159466
161176
160665
109993
111034
120504
122323
117825
113695
100536
111272
108605
105753
102212
82584.8
75101.1
74911.8
74374.3
79216.7
77367
76090.6
88017.3
90874.1
93111.3
94536.3
86844.1
83243
84265.7
97140.5
85255.3
85892.5
79901.2
78090.9
82990.1
75064.2
74614
73389.9
76142.7
76740.4
72458.6
72907.7
73049.4
72479.3
112318
85574
2300.54
8525.38
121600
125982
127900
131482
141424
144515
134472
138814
137373
146354
148618
157797
155778
154427
157389
151744
110710
132003
126499
138606
120888
152684
149667
141845
147457
158737
155776
158263
160627
162188
162128
163114
163394
159276
162600
161839
110286
119853
123525
117393
111736
114379
99638.3
108766
105185
102371
81509.9
73991.1
73100
79397.5
77564.6
74818.1
87477.7
90388.3
91940.3
95385.2
85445
81964.7
84090.5
98136.7
87969
89121.9
80453.4
78384.6
82295.1
74866.1
73985.9
72517.4
73419
75403.7
76700.3
71419.6
72392.1
72453.2
71522.9
89433
85858.9
2776.56
133448
125247
128742
133076
130297
142129
144052
136003
140365
137481
147591
150047
157244
155679
158253
152443
109847
132474
125403
136076
119752
153903
152333
142310
147376
160246
157038
159560
161940
163293
163226
163885
164003
160348
162801
163571
162322
120562
123463
116046
119142
110605
113017
100741
107576
106070
103537
80409.8
73897.3
72782
72339.1
78054.2
76340.8
74395.9
85783.3
88763.4
91986.6
94778.1
85003.8
80945.7
82946.9
97616.1
89331.9
90282.7
79495.4
77449.2
82851.8
74083.5
71734.6
72678.2
75648.7
70561.4
71273.2
71325.8
70740.2
80502.6
124817
87236.1
11564.3
89810
125495
126184
127779
132772
130996
141783
144949
136525
140518
138987
146687
149330
151535
150227
157363
155605
159704
154211
130163
122266
127089
136877
117197
156097
153107
139962
144903
149342
161152
159068
160967
162798
164261
165101
165243
161758
163973
164743
163785
122189
125186
116763
118826
111090
113607
100219
107953
104979
103381
79828
72505.9
71749
70844.4
76754.2
78490.3
75018.6
72834.5
84924.9
88942.1
93257.8
90690.5
96009.1
83525.6
80598.4
81559.3
98529
87244.9
91253.4
91681.6
79638.8
77227.6
81041.6
84666.3
73518.4
71888.5
70790.6
72705.6
75480.6
69508.4
70788.3
70418.9
69604.4
88647
67270.6
14755.6
91609.4
104643
128519
133701
130179
143713
138564
135540
142145
147743
150196
152593
151977
158579
157291
160556
154170
131339
121001
125455
134353
117159
157199
151695
155851
140673
145441
147988
162377
160244
162186
164033
165316
165887
165646
162721
164973
164440
122930
125914
115606
119918
109652
112248
101709
106083
71862.1
70482.6
69874
75541.3
77475.9
73990.1
72578.9
83007.3
84695.5
88154.8
92652.1
91027.4
95635.3
82449.2
78528.3
80945.7
97448.3
87693.7
90091.9
78644.6
77733.2
76290.7
80770.7
83216.9
73579
71234.5
70049.9
71794.9
74840.5
68776.4
69013.9
69582.1
69254.2
68934.6
87375.3
80820.5
45823.2
90640.1
100523
127636
132724
130929
143933
139493
136428
142427
147262
149468
151925
152819
159975
158522
157602
162154
155102
128830
123493
126118
135375
120346
159354
152809
156552
143603
138756
148853
163043
162012
162714
164689
166242
166921
166658
163962
166100
165574
121918
124928
116139
119402
110184
112626
101356
105742
70318.4
69564.1
68485.4
74128
75782.8
71458.9
82533.5
85146.7
89802.7
86745.4
93844.4
78024.6
79599
97600.5
85840.3
89184.7
78713.1
76768.8
76047.8
81644.2
79611.8
83861.7
74107.2
72471.4
70327.5
69128.6
71626.3
75210.9
67602.7
67624.6
68048.3
67683.1
87245.9
95603.6
72942.2
60206.6
93424.1
128402
133470
130044
145582
138384
141188
135327
143850
148744
150634
152248
154382
160915
160049
156559
159219
162889
128343
121301
124377
134424
119430
160539
154951
151305
158393
144351
139398
147093
164086
162921
164273
165703
167079
166340
167332
167576
166867
167468
164819
166367
165819
122619
126118
117812
114372
121130
109101
110705
99359.3
102511
104046
107352
69454.4
68062.4
67631.5
67522.9
72795.1
74362.3
70071.5
71518.6
81191.2
83551.6
89239.4
87051.6
93635.9
76457.1
78904.5
95745.3
85734.3
87236.6
77826.3
76890.7
80946.5
79419.5
82627.8
73354.5
72378.9
69559.7
68260.2
70693.8
74781.9
66908.5
67204.5
66960.3
67074.7
86468.1
91669
80285.7
67267.1
91207.1
127836
132288
130647
145376
139230
142227
136027
143863
150336
148893
153509
155629
162191
160404
157104
159727
164274
129717
125642
122714
124205
132167
136973
121430
162352
159972
155600
152067
158541
142118
148079
164715
164547
165153
165813
167831
167413
168352
168583
167903
168311
165045
167623
166701
124023
125632
118127
114351
121329
110648
99548.7
101384
104575
106469
67732.9
67060.4
65841.8
65870.3
72709.2
74205.4
69074.1
70122.8
81561.4
79418.6
83900.2
90158.8
85731.4
92105.8
77045.1
74930.7
95719.3
84241.9
86396.2
77949.9
76221.8
79995.5
81264.5
78669
82810.9
73657.3
71423.1
68378.9
69746
70552.3
75308.5
65397.4
66120.4
65485.9
65651.2
87190.1
87448.6
90631.7
77622.1
129317
132832
146478
141404
138015
134690
145387
151480
150668
147947
155321
153128
163116
161702
158654
161155
164507
126759
124769
121407
122012
132913
136217
118981
163619
161242
157393
154247
150598
160213
142566
147091
165096
166565
166655
168671
167688
169377
168372
169198
166394
167766
124307
126840
119932
116368
112507
123086
109065
98600.9
101689
103325
107181
66605.9
65584.8
64861.4
64841.8
71039.6
72011.5
67486.1
69697
80040.8
77758.4
82302.1
89261.8
85337
92463.8
75975.5
73741.8
93966.4
97028.4
83872.6
84842.6
77282.4
76571.4
79496.1
80456.9
78777
81644.3
73233.5
71410.6
67394.5
68844
69350.5
74826.1
64596
64928
66127.1
64785.2
85898
85123.8
86920.4
76264.2
78959.7
129681
131603
142139
138956
134737
146089
150918
149102
156678
154252
162877
161933
159332
161931
165560
126438
122686
120343
121582
131423
137789
121330
163073
158126
154883
151336
160127
145053
140573
149320
166266
167475
169469
168653
170202
169490
169874
167180
168643
125961
128506
120822
116410
112173
123065
109977
100084
103470
105577
64921.1
64504.2
63388.1
63057.4
70523
71934.9
66932
68179.3
78089.7
80429.3
76057.7
83038.1
87737
90918.3
86100.4
74232.3
94120
96091.1
82357.1
84502.9
77454.8
76019.1
79429.6
80276.2
79710.4
78467.2
80642.8
81436
73895.8
72255.1
70502.7
67633.6
68786.5
75328.8
63158.9
63562.7
64970
63239.5
84662.5
81784.9
85394.6
76826.2
132546
140918
143637
138168
136113
148428
145251
152252
158448
156023
153832
163899
163281
161248
163435
166850
165203
124153
128741
121062
120024
120233
133141
136197
119722
163907
156992
153441
161378
144500
141827
148828
166713
167363
168637
170288
169526
170980
170078
170799
168398
169683
127235
129063
120014
118033
114664
113005
124489
109545
100085
101787
106031
63588
62862.2
62577
62362.5
62022.5
68466.1
70606.7
65424.2
67313.4
76737.5
78839
74350.8
81761.4
87644.9
90782.2
84669.9
73088.7
92535.2
96837.3
81803.3
83025
77973.7
77045.7
76449
78738.3
79372.7
79248.3
79881
80250.5
73875.1
71819.5
70759.3
69411.8
66646.3
67237.9
74763.3
62130.4
62519.5
63590.6
62182.8
65218.9
81206.1
79713.9
82813.9
76154.4
131223
142085
143672
139632
136240
149390
146353
152581
159477
157039
155051
161959
164479
167990
166173
124476
121273
127044
119331
119480
131731
137690
122305
163103
165317
157229
154688
160929
146076
140531
149948
166361
168164
168411
169546
171066
170426
171881
171133
171450
169278
170393
126739
121146
117333
115353
111564
124304
107996
98676.6
101284
104673
63846.7
61986
61705.9
60818.5
60622.8
60056.7
67777.6
71361.9
68872.4
65592.8
77054.8
74820.3
79428.7
73687.2
82575.2
85800.1
89022
92341.3
95854.8
79970.4
77956.5
77546.2
75982.1
78584
78868.2
78788.5
78995.9
79366.7
73191.6
72235.9
69909.8
68938.9
66691.3
75068.2
60569.2
60970.7
62124.8
60622.4
64052.2
79428.8
79558
77350.8
80556.6
73719.5
131734
141608
145136
138711
135282
148106
151461
154489
158668
161059
156473
163492
164540
165809
167686
169199
122936
119378
127029
117311
118399
133770
128817
136604
119435
164288
165508
158947
154070
162575
145788
141610
147994
151864
167572
168867
169419
170468
171866
171117
172572
171763
172296
170173
171364
127956
120202
122888
118374
114244
112058
126525
107885
99227.4
102504
105941
62465.1
60482.6
60027.9
59965.8
59170.2
59089.3
65784.5
70397.2
67369.6
63950.8
75448.9
73934
78109.5
71519.9
81041.9
85407.8
88664
93922.1
90227.7
97727.6
79019.2
78284.3
77566.6
76382.3
78245.3
78530.9
78275.5
78236.9
73571.4
71502.6
70236.1
67772.2
65265.1
74535.1
59100.2
62347.3
60547.2
58999.6
64077.5
76317.2
76561.2
75323
73143
129934
133576
143405
145348
139142
137065
148821
152165
155678
159202
162042
157742
163586
166189
166831
168527
170299
124164
120655
117231
116806
115611
118368
132511
127529
139105
120277
164175
166904
158946
155683
162218
143966
148059
152218
168597
169976
170299
171293
172500
171928
173337
172627
172836
170948
171699
121590
123286
117300
115047
110694
126722
108871
101998
105674
60886.6
60032.3
59070.1
58235.7
57503.5
56924.2
65527.6
63916.7
68187
74551.4
72030.3
75690
78821.3
70616.7
81939.9
83890.5
86903.3
93305.3
89649
97251.1
77093.3
78376.4
77113.2
78122.4
75965
77406.2
78185.3
78451
77417.3
77109.2
72827.5
71782
69683.5
67444.4
64941.8
75041.3
57644.6
61240.1
59043.2
57387.1
62272.4
74826.4
75681
70864.1
130978
133143
143249
147330
141031
136701
150748
153865
155379
157535
160674
161967
164502
166838
168002
169740
171091
170553
122982
119078
115900
115592
115135
113072
117451
134140
129132
124461
138997
119074
165571
167069
160593
157498
154309
163243
145279
150156
169524
170420
171265
172087
173316
173692
173839
173338
173580
172398
121598
124856
118102
113678
111536
128177
107602
100298
104025
59627.3
57934.1
57259.4
57066.3
56123.9
55807.7
56098
63535
62045.2
67320.9
72080.6
74900.7
77205.9
68769.3
81030.5
84264.7
86106.3
91091.1
94739.1
87263.5
98396.4
75985
78459
77498.3
78441.8
78054.8
76477.9
76825
77822.6
78474.7
76586.1
76159.2
73437.2
70712.8
68488.5
66071.8
63466.9