/*--------------------------------*- C++ -*----------------------------------*\
| =========                 |                                                 |
| \\      /  F ield         | OpenFOAM: The Open Source CFD Toolbox           |
|  \\    /   O peration     | Version:  v2012                                 |
|   \\  /    A nd           | Website:  www.openfoam.com                      |
|    \\/     M anipulation  |                                                 |
\*---------------------------------------------------------------------------*/
FoamFile
{
    version     2.0;
    format      ascii;
    class       volScalarField;
    location    "1.3";
    object      p_rgh;
}
// * * * * * * * * * * * * * * * * * * * * * * * * * * * * * * * * * * * * * //

dimensions      [1 -1 -2 0 0 0 0];


internalField   nonuniform List<scalar> 
13611
(
101132
101811
101556
102526
101567
101904
102064
102774
100729
102422
101747
102221
102891
103225
101465
102774
102047
101659
102649
103377
103805
103039
101457
102560
103219
101963
101323
102692
103895
104112
104102
103289
101483
102950
103433
102319
101788
101502
102991
104329
104795
104616
103973
103638
102333
102095
102834
104023
102349
101807
101450
103061
105004
104966
105206
104695
104289
103714
102511
101268
103351
104386
102092
102774
101718
101450
103421
105501
105544
105849
105091
104095
102987
101925
102395
104012
105310
102143
102820
101864
101463
103464
106169
106010
105595
106281
105148
104230
103325
102152
101000
104569
105867
102366
103184
102660
101898
101664
101426
103852
106754
106646
106046
106988
105587
105016
104648
104269
103045
101838
100462
105447
106589
102366
103131
102842
102145
101648
101417
103807
106905
107346
107170
106873
106601
105948
105381
104572
104614
103384
102945
101559
105816
107242
102661
103414
102104
101518
101867
101499
104125
107600
108080
107826
107610
106829
106384
105524
104878
105336
104152
103085
101058
106665
107343
107819
102744
103354
102270
101549
101856
101238
103999
108194
108632
108446
107893
107413
106383
105311
105985
104720
105863
104211
103216
102851
98550.3
106800
108369
108549
102521
103067
103642
102090
101473
101695
101236
104273
108841
109542
109153
108585
107568
106758
105670
106050
105015
105758
105092
103012
102138
97858.5
107549
108488
108960
102615
103129
103464
102066
101466
101665
100591
104187
109519
109900
109930
109207
108691
108184
107243
106491
105526
104838
106653
105044
104248
102735
103242
101531
107490
109356
109921
102928
102468
103564
102230
101814
101423
100531
101162
103876
104457
110162
110669
110818
109883
109349
108135
107569
106761
105763
105085
106794
105956
104386
102942
102631
101998
108234
110482
109136
110685
103003
102544
103304
102162
101791
101456
100907
101205
103903
104247
110947
111465
110867
111569
109926
110540
109246
108564
107378
106607
105514
106197
104933
107787
105936
104833
101937
103719
102790
111191
109941
111831
102777
102341
103367
101963
101644
101324
100863
103664
104284
111776
112232
111762
112480
110668
111079
109692
108342
107730
107030
105735
106146
105203
104572
108170
106848
104555
101712
103832
102044
110852
112340
110059
112902
102845
102293
103136
101943
101658
101366
101291
100769
103704
103987
112555
113089
111836
113414
110927
109343
110399
108703
107538
106831
105616
106388
105049
104410
107746
109392
106931
105219
102788
104399
101623
111620
112591
113157
111282
113924
102654
102412
102070
103168
101787
101551
101409
101213
100910
103452
104054
113574
113745
113653
112499
114162
111789
109583
110671
108442
107892
106992
105868
106266
105324
104619
108482
109497
106143
108076
102696
104488
101931
102834
113599
114636
112020
115132
102687
102290
101987
102918
101717
101591
101386
101262
101079
101184
103478
103802
114797
113457
114791
112457
115271
111896
109211
110169
111306
108718
107822
107396
106579
105744
105134
104467
110402
106695
108628
103138
105044
100033
102280
113462
114858
115643
111678
115984
102436
102080
101793
102928
101488
101308
101188
101072
101122
103210
103829
115670
114096
115622
113423
112635
109496
110148
111668
108312
107380
106529
106075
104713
105265
104112
109975
106192
108040
102884
104847
100754
102137
114523
116093
117084
112804
117382
102408
101941
101702
102658
101474
101290
101190
101105
101125
103218
103519
116978
115208
116941
113462
112485
109298
110643
111370
108326
107809
106922
106035
104586
104898
105639
103959
110692
106687
108645
103474
105655
100285
100973
114269
115908
117353
117759
118074
112305
118038
102187
101762
101902
101557
102619
101360
101285
101155
101117
101062
102894
103579
118019
115784
114191
113044
109640
108749
110281
111851
107756
106877
106442
104189
104924
105658
110036
107847
103376
105446
97410
101685
115616
117001
118704
119223
119422
113086
119592
102140
101976
101645
101691
101487
102302
101318
101210
101153
101090
101100
101069
102891
103298
119384
117959
117078
115154
113908
112721
109167
108674
110588
111459
108170
107270
106402
104039
105310
104641
106009
110768
108471
103850
102747
106385
100370
90319.7
100663
115604
117011
118550
119833
119865
120584
114490
112237
120814
120087
101886
101802
101517
101543
101371
102135
101208
101173
101105
101079
100976
101045
102579
103335
120325
119472
117394
115531
114641
113302
109060
110211
111821
108042
107175
106729
104276
103652
105339
104727
105963
110035
107757
103518
101887
105720
99645.5
94320
100759
116909
118366
119372
121146
121261
121818
115007
112916
122562
121728
101731
101582
101394
101374
101314
102221
101802
101164
101110
101039
101052
101032
102647
103007
121692
119498
116508
118424
114382
112784
108407
109477
110564
111324
107511
106600
104110
103518
105626
105033
104397
106231
110788
108664
102374
104363
106458
100506
95800.7
99818
118481
116445
118993
120658
122094
121908
123235
114342
112199
123768
122901
101489
101418
101219
101201
101852
101563
101075
101049
101002
100816
100974
102312
103123
123010
120085
116870
118879
115040
113048
108176
109177
110113
111617
107332
106861
103736
105680
105085
104442
106032
110109
107867
101909
103686
105705
97947
98313.8
100290
119474
117171
120693
121946
123856
123500
124291
114988
112920
125378
124706
101272
101188
101118
101096
101105
101527
101870
101273
101006
101042
101002
100955
100924
100925
100960
102443
102894
122780
124852
121192
116192
118277
114684
112394
113868
107625
108515
109488
110323
111020
106646
103552
105412
104809
104191
106198
110963
108396
100959
102681
104232
106189
99476.9
98364.6
95830.8
121077
118627
116432
121915
123343
125338
125905
114288
112288
126498
126039
101064
100920
100944
100996
101096
101482
100991
100935
100967
100948
100934
100915
100897
100941
102138
103089
124286
126605
121078
116537
118680
115559
112698
113600
107314
108474
109046
109761
111236
106833
103776
105375
104862
104396
105999
110693
109690
107390
100489
101561
103723
105509
97456.9
98401.8
95505
121734
122100
119312
117013
123300
125067
126843
127008
115006
112885
127963
127732
100804
100752
100832
100873
100873
101626
101031
100689
100853
100931
100931
100930
100905
102283
102815
123705
126175
128277
122220
119893
117589
115255
112157
114129
107283
108024
109135
109543
110777
106617
103577
105103
105627
104681
104359
106226
112004
109844
107569
98957
101456
104394
102463
106298
97871.5
97475.9
94732.7
120825
123296
123801
118402
116299
124669
125955
128533
128810
114200
129173
128610
128553
100659
100593
100660
100803
100380
101239
100559
100347
100814
100862
100884
100931
100924
101757
103095
124743
127285
129936
121495
120114
117766
115730
112179
113984
107505
106814
108125
108647
109939
108812
111252
103770
104989
105458
104796
104147
104668
106068
112327
108572
111177
98916
99917.3
103747
102463
106062
99052.9
97703.6
90090.3
121480
124263
123851
124952
118603
117169
127179
129177
129813
114602
130626
130149
130284
100374
100393
100588
100689
100175
100109
100559
100080
100734
100849
100886
100923
101795
103032
126398
123746
129089
131172
130391
122049
119063
116749
114889
113004
107056
106709
107684
109490
108326
110824
103536
105114
105510
104319
104725
105751
106306
113576
108417
111395
97637.8
99695.7
103808
101706
104775
107072
100746
94944.3
98063
95613.4
122956
120915
125822
125466
126430
119687
116914
127420
128596
131232
131552
115742
132152
130977
100129
100225
100449
100657
99614.7
99490
99885.1
99649.9
100724
100778
100824
100821
102606
127527
124417
129346
132591
132254
120862
119299
116488
115187
112827
107095
107739
109885
108752
108293
111111
103718
105065
105283
104632
104220
104903
105539
106077
114178
109195
112616
110341
97094.6
98801.1
100665
102510
104598
106928
96930
95692.6
96750.3
98521.6
100331
123321
122082
126421
126806
125882
119446
118130
128813
129651
132069
132282
132704
115579
133318
132601
99880.3
100274
99968.1
100442
100561
99178.9
99166.7
99647.2
99396.3
100659
101312
103206
126516
122983
131088
133689
133314
132729
133690
121176
118129
116898
114701
111935
113656
106734
107239
109329
108309
107617
110404
105101
105255
104811
104723
104951
105651
106072
113781
108176
112324
110950
97376.8
95627.1
98808.2
99956.3
102226
105737
103317
92736.6
95798.7
97988.9
96596.1
124618
121860
127873
128291
127332
120538
117710
129314
131197
133791
133983
134688
116414
135002
99586.8
100128
99806.6
100349
100560
98460.7
98223.2
98030.4
98920.1
103107
100180
127164
123246
131082
135234
134881
134810
135423
119633
118192
115645
111868
112862
106813
106315
107153
109548
108508
107591
110860
104994
105040
105012
105066
104975
104938
105410
105611
114970
108247
113173
110501
96686
94525.7
98010.1
99984.3
100973
105762
103079
94884.6
94403
97545.6
97829.6
124908
122817
128710
128798
127387
128645
120611
118410
130862
131867
134609
134638
135195
135830
116160
135844
99408.7
100190
99898.8
99541.3
100353
100480
98412.6
97713.1
96714
99078
104083
102222
97465.3
125216
129164
121432
132891
136595
135936
136831
119649
116787
115523
113044
106352
106069
106519
108725
107898
107065
110224
104895
104898
105328
104938
105625
104984
104883
105071
105420
114613
107094
109343
112629
111354
95613.6
97054
93402.9
94575.6
98720.2
100844
104894
101800
103827
94802
93503.6
95014
95187.6
126249
124015
122034
130082
130226
128716
130099
119632
117342
131217
133608
136151
136327
136753
137554
137581
100123
99807
99414.9
100236
97867.5
96521
94978.1
98937.1
103967
101398
95316
124972
129734
121215
131948
134947
137982
138122
138622
118059
116084
114303
111890
106176
105642
106195
108903
107898
107155
106380
110581
104699
104556
105350
106057
106597
105077
104673
104828
105000
115413
107163
109234
113551
110527
95240.7
96118.9
92320.9
93405.5
98435.7
99635.5
105145
101914
103190
93409
92275.9
95043.8
93997.2
99243.2
126279
124893
122516
131433
128701
130057
131453
120062
117611
132642
134032
137008
137169
138260
138590
138493
99934.3
99546.5
99209.5
98108
97021.6
92884.1
98594.6
105969
108038
90609.9
126404
122748
128488
119449
132707
136269
139483
139258
139286
118061
116480
114488
111984
105644
105407
105541
108077
106924
106539
105766
109494
104489
104314
105648
107053
106967
104987
104492
104431
104750
116714
114904
108193
106138
113281
110836
94236.4
95872.6
92541.5
91427.2
93212.6
97453.7
99230.8
103995
101072
92757.4
90637.7
95637.1
94156
96558.2
127412
124151
121499
132736
129823
131379
132895
119038
135551
138343
137055
138521
139836
140357
140179
99097.8
97820.2
97038.5
93633.9
98921.2
107980
111636
86627.8
125257
121995
129099
118753
131125
134968
138521
140965
141291
141283
116529
114922
113342
110769
105351
104926
105083
108332
106914
106427
105806
105125
109554
104173
103939
105155
106238
108682
108365
104644
104189
104160
104289
117083
115915
107904
106438
114386
112156
109773
94457
96376.1
91337.1
90593.9
90523.6
92072
97437.9
98076.4
99892.6
103845
101447
91944.3
89172.5
95947.6
92408.5
98338.5
127842
124648
121909
133957
129471
131150
132858
134104
119390
135401
139651
138529
139937
141241
141436
141291
98493.9
96823.1
91486.2
99000.4
122380
106318
77825.5
126818
123147
119818
116803
132371
135206
139926
142521
142756
142720
114976
113412
110648
104822
104640
104581
107345
106018
105351
105063
104467
108245
103865
103651
104770
106583
110216
108162
104388
103831
103735
104002
118230
115701
108439
105840
113767
112333
110176
93804.6
95604.3
90996.8
89146.1
89376.3
91905.4
96249.3
97518.2
99124.8
104728
102620
100375
89826.3
88774
87887
94278.3
91911.9
98072.6
127305
126009
123340
120736
130354
132219
134104
135541
136430
140929
140095
138838
142617
142729
143196
99121.9
99290.8
96268.3
99363.2
115943
131438
127213
72134.7
125457
121428
119188
115077
131960
137003
142211
139203
144053
144748
144703
113369
111989
109178
104502
104151
104036
106211
107202
104719
104853
104596
104344
103895
107917
103491
103230
104759
105384
112511
109635
103950
103430
103446
103556
118398
116954
107547
106363
114098
111430
109319
92685.7
94416.7
89824.1
87986.7
88691
90643.3
96304.9
97914.3
99280.9
104405
103161
100105
89516.8
86845.3
86486.7
96677
93221
94774
128503
126113
123645
121060
131801
129905
133702
135465
136099
137899
142486
141308
140567
143235
143441
143711
99966.3
100876
91322.6
111649
131065
123650
58327.8
126331
122116
116894
114904
113282
129289
134714
136871
143609
140667
145666
146190
146082
111905
108877
103990
103826
103674
105274
105896
103832
103935
103691
103553
103206
106319
103182
102918
103934
104505
109854
103647
103003
103015
103237
119784
116855
107991
105423
112736
115378
111561
110129
92008.2
93726.6
88942.8
89694.5
86965
87525.2
90681.3
95675
97206.7
98114.3
102864
98340.4
100606
87233.8
85846.1
85823.5
85415.1
96973.3
93238.8
102799
127693
125017
122481
132740
131129
134729
136721
137674
138607
143648
142998
141267
144801
144712
145122
101808
103331
103110
112498
111237
140624
143711
60817.7
123366
120141
115934
112536
111457
129475
134903
139225
142757
145482
146685
147948
147911
110297
107076
103334
103094
104113
105318
102718
103329
103440
102842
102959
102777
105727
102749
102428
103517
104878
107610
103118
102848
102723
102712
102815
120096
118060
106899
105387
112893
115388
109808
92428.2
93920.8
87853.2
88527.8
85847.4
86769.6
86909.6
89964.6
94689.7
96199.1
104167
101821
97545.4
99739.4
86084.2
84321.6
83913.1
84227.8
101146
90510
106295
127948
125269
122692
132489
134194
131221
136346
138081
140250
145448
143984
142949
145770
145417
146396
87307.6
102255
109964
161144
104422
114386
62970.1
123196
120673
117290
112961
111138
111598
110108
126325
132457
137797
139949
143980
146860
146835
148066
148799
148868
148527
106396
102911
103147
103690
101915
102454
102474
102036
102182
102061
104153
102393
102110
102747
101621
108021
102755
102398
102239
102292
102445
121555
119323
117793
107084
111906
114191
116530
110691
108469
91719
92648.5
87656.4
88113.6
84871.5
85508
85817.3
90603.3
88770.2
94219.6
95298.1
103926
101809
98386.3
96286.4
100568
81975
87775.7
83636.8
83606.6
82275.4
83608.8
103111
91127.7
115286
96423.2
126551
129073
124055
133862
134919
130325
132844
137343
139524
140819
146720
145510
143652
147197
146830
147473
101158
106815
146302
101549
116223
87729.5
119804
117626
115718
111457
108449
108952
108030
125581
133723
137499
142609
146260
148353
150562
150635
149759
104781
102429
102128
103033
101862
101776
101750
103520
102024
101680
101694
102640
101449
106620
102337
102227
101918
102122
121648
120356
118788
106018
112584
114036
116534
109862
108506
92912.3
86563.7
86795.2
83905.5
84931.7
85574
89924.8
88035.7
95229.7
102584
104725
97687.4
95665.7
100545
79331.6
83495.2
82738.7
82431.7
81433.2
82707.4
80276.1
116712
112441
126803
128365
124153
134096
136392
131414
132905
138944
140026
142485
148246
146648
146195
145344
148365
148978
95597.2
106349
143510
99748.7
132761
116946
118879
112844
109135
107398
106780
107742
128079
121518
131927
139581
143773
147539
149356
151468
151630
150899
151231
150204
104870
101887
101624
101515
101509
101414
102111
98445.2
105846
101791
101901
101517
101633
122846
120123
118052
106332
111805
115211
110212
107483
92212.4
86152.7
86124.2
83049.1
83879.6
84598.5
90040.6
88622.2
86733
93943.2
101986
104128
98239.4
96220
94262.9
99588
77991.6
80778.1
82308.8
82306.1
82186.4
80049.8
82181.6
82147.5
72260.2
137358
85051.1
90406.2
125595
129245
135714
136984
131029
134183
139707
141603
142840
149386
148199
147903
146143
149612
149925
85390
101943
114850
98669.4
113563
115269
110560
106485
105211
105132
126484
120548
133120
142607
139335
146441
149594
152840
153045
152043
151884
103894
101550
101260
100153
101935
102239
97976.7
101739
101642
101608
122779
121298
118603
105150
112317
115072
109103
107677
90883.5
92751.5
84949.2
84883.1
82993.4
83244.1
83577.3
88655
87830.6
85985.3
102717
97207.6
95433.3
93323.6
99635.3
76618.3
80630.4
81612.7
81734.8
81544.8
80987.2
81332.5
81281.2
63582.8
141194
101244
96793.7
125633
128694
135814
138674
132354
134108
141396
142210
144150
149390
150784
148695
147776
145501
150910
151393
85550.8
111978
86352.8
112830
110912
113256
107004
103843
104285
123306
129494
116854
136454
144216
142544
147766
150775
153936
154237
153439
153093
101281
105463
95114.6
101299
101224
101198
123968
121444
120402
117537
105056
113750
111526
116077
108998
106480
90433.4
91618
84289
84112.9
81811.8
81987.9
82687.6
88157.5
86566.2
84674.4
102232
95874.1
98026.8
93917.2
91799.9
100721
74525.5
80423
71223.8
80463.3
80967.1
81395.9
81494.6
81160.3
80734.4
80867.3
39246.7
152590
119313
38043.1
73476.1
126939
129910
137157
139398
131803
135445
142281
143759
150707
151603
150107
148487
146633
152066
106070
111558
92008.1
109415
107785
109450
113771
105370
121891
128743
117475
136493
146697
143808
150019
152675
154979
154213
154886
154345
154504
101529
91770.7
100800
101162
100713
101187
123308
121072
118133
103630
113981
112751
110062
115255
107156
89162.8
83088.1
82810.8
81254.3
81641.1
86652.1
85779
83889.1
94748.6
97592.9
93348.3
90762.7
100293
79878.2
81663.9
72186.5
86092
80342.4
80911.7
81412.6
81535.5
79820.3
79857
92464.8
9672.36
139509
126998
76352.3
68773.3
126740
129573
136930
138708
141324
132506
135960
144059
144672
151424
152799
150543
151221
147950
149811
146177
153535
106347
105174
103351
106948
107569
110375
124340
132190
114796
139418
148046
146860
142595
151281
153874
156114
155910
156471
155950
155821
101714
89701.3
102654
100608
100933
123821
120502
122655
116951
119329
103279
112828
109519
115551
106717
88501.7
82288.2
81985.7
80129
80673
86235.3
84429.3
82598.5
94663.8
96060.1
98752.5
92023.1
89247.5
90920.1
101474
80569.1
83297.9
72914.9
80335.5
79680.4
81095
81900.7
79050.3
79531.6
79082.6
119423
8853.18
147591
159247
155965
25233.1
128209
125320
131012
138098
140077
141753
133881
135428
137685
145261
152936
153971
151992
152508
149070
150250
147192
106260
103678
109221
123825
131329
114461
111037
139699
150401
148319
144562
153275
155633
156935
156736
157102
156921
101315
92126.7
101737
101035
121653
122886
117218
119803
103992
111767
114369
107962
110360
105336
87108.8
80955.5
80760.3
79682.2
85030.3
83503.1
81773.8
93062.3
96211.7
98034.5
91774.6
88392.8
89476
101182
86659.4
82699.3
85549.6
77824.7
79865
78906.2
81009.3
81567
78120.7
78385.5
78089
131791
88718.8
8736.95
118581
159864
108198
159672
12774.8
128212
125505
130984
139693
143268
133872
136802
138934
145001
146885
154010
155380
152495
153804
148774
151441
99603.7
103526
127403
120889
133712
111003
116894
108935
143226
137487
151619
147240
150733
154388
156763
158027
157890
158422
156545
158302
100875
98509.4
101354
101128
121281
124111
118844
115986
102771
112099
114585
107262
109658
105694
86019.5
80137.2
79778.9
78617.8
83809.1
82070.3
80260.2
92675.1
95314.5
98505.3
90260.6
87128.8
89082.3
99936.3
87539
87378.8
83216.6
85609.3
79894.3
79060
78021.2
80377.1
81708
77141.2
77764.5
77876.7
77195.5
111681
93407.1
8374.64
89993.9
164421
162001
126846
129536
132424
140450
143260
135284
138597
136608
146696
148349
155308
153752
154870
149603
152126
101626
103277
127490
121548
131157
108911
115620
144778
138511
153625
148789
152078
156093
158117
159018
158823
158845
159399
157838
159104
158903
101151
101466
122181
123913
119596
115640
103111
113382
110808
108093
104708
85967.8
78789.4
78480.3
78058.3
82600.2
80817.1
79541.9
90945.3
93759.4
95881.9
97271.8
89850.5
86446.1
87401.8
99774.9
89966.1
91008.5
84421.4
82458
87541.8
79127.3
78631
77214
80308.6
80931.3
76150.9
76619.4
76697.1
76168.7
117649
90798.5
8459.29
14213.4
126950
127375
129179
132541
141828
144711
135351
139422
138076
146420
148466
156443
154809
153696
156176
151279
101515
124486
118179
132001
111684
147733
144355
135651
141893
154755
151242
154120
157026
158929
159755
160154
160738
157798
160552
160073
100993
121527
125025
119138
113765
116242
102162
110893
107472
104772
84800.4
77445.9
76643.2
82685.5
80928
78175.4
90278.1
93169.6
94660.3
98027.4
88417.4
85146.1
87122.1
100685
92660.8
94013.8
84779.4
82540.1
86650.1
78778.4
77850.1
76203
77198.7
79352.9
80721.4
74966
76007.9
75989.2
75078.3
94520
90919.1
8167.18
138565
126660
129955
134034
131418
142507
144305
136792
140879
138183
147607
149825
156222
154911
157082
151990
100325
125131
117000
129212
110479
149079
147326
136252
141855
156474
152613
155512
158525
160199
160883
161093
161524
158919
160891
161392
160659
122156
124926
117825
120777
112639
114885
103158
109702
108262
105854
83670.7
77257.8
76171.2
75753.4
81231
79587.4
77643.1
88566.2
91496
94621
97344.4
87880.3
84044.3
85911
100088
93830.3
95147.7
83644.8
81441.4
87040.9
77863.3
75276.1
76302.9
79514.3
73981.4
74756.7
74745.4
74185.6
85381.2
130362
92299.4
16940.5
94698.9
130490
127520
129028
133742
132062
142199
145167
137283
141040
139602
146798
149234
151193
150041
156430
154929
158441
153662
122590
113414
119035
130238
107592
151528
148207
133718
139157
144068
157420
154892
157119
159390
161181
162347
162804
160235
162089
162592
162044
123689
126552
118452
120432
113043
115397
102562
109990
107136
105605
82968.3
75756
75009.6
74137.4
79909.7
81586
78223.9
75981.8
87638.4
91578.6
95823
93290.3
98491.5
86398
83592.1
84501.2
100903
91538.9
95774.2
96369
83603.6
81049.8
85017.2
88828.8
77144.5
75413.5
74212.4
76261
79201.4
72797
74187.6
73724.5
72916.8
93321.2
72092.5
19848.2
96323.3
109387
129709
134612
131279
144026
139212
136351
142577
147817
150085
152226
151690
157609
156546
159338
153694
124091
112040
117212
127558
107776
152746
146671
151250
134638
139827
142643
158821
156170
158458
160796
162408
163308
163371
161261
162981
162756
124351
127219
117303
121442
111608
114047
103943
108147
75009
73652
73050.8
78582.2
80457.5
77081.8
75639.1
85734.8
87335.9
90719.7
95127.7
93528.9
98037.7
85241.9
81449.6
83767.7
99779.4
91896.9
94434.4
82415.9
81464.1
79997
84567.3
87143.6
77095.3
74624.2
73351.4
75202.4
78403
71969.4
72258.7
72862.2
72472.7
72166
91844.9
85368.2
50688.9
95159.3
105074
128854
133677
131975
144254
140094
137188
142864
147395
149432
151717
152525
158882
157648
156917
160833
154612
121379
114792
118154
128876
110772
155146
147951
152050
137888
132622
143669
159491
158155
158994
161435
163347
164369
164426
162420
164132
163849
123355
126253
117762
120899
112064
114360
103523
107751
73364.6
72622.3
71556.5
77146.3
78730.8
74430.2
85187.9
87714
92276.3
89279
96241
80849.4
82376.3
99843.7
89862.4
93489
82322.9
80311.5
79596.7
85418.5
83236
87738.7
77596.2
75815.9
73613.4
72332.5
74932.5
78663.2
70675.2
70725.1
71149.3
70789.6
91656
100055
77309.3
64857.5
97834
129562
134375
131122
145821
139046
141699
136139
144212
148812
150556
152063
153993
159850
159110
155984
158458
161618
121096
112429
116228
127980
110107
156461
150318
146360
154094
138838
133499
141842
160666
159140
160744
162555
164308
163326
164681
165158
164784
165167
163303
164530
164197
123990
127359
119346
116024
122537
110957
112470
101535
104588
106068
109255
72395.3
71026
70669.3
70491.9
75712.3
77206.7
72990.3
74420.3
83788.5
86036
91629.4
89465.2
95945.2
79208.1
81585.2
97972.4
89703.3
91348.5
81263.5
80301.2
84524
82901.9
86305.1
76641.6
75605.3
72717.3
71351.2
73864.9
78078.3
69932.4
70215.2
70003.4
70112.3
90661.8
95851.7
84422.1
71693.7
95445
129001
133240
131681
145650
139850
142693
136798
144245
150303
148978
153274
155209
161049
159517
156569
159005
162950
122882
118117
114116
116292
125638
130933
111885
158484
155838
151087
147273
154291
136520
143015
161309
160960
161679
162570
165027
164481
165771
166126
165830
166114
163619
165789
165094
125321
126869
119596
115946
122694
112364
101644
103429
106504
108335
70583.3
69921.4
68741.7
68735.7
75545.3
76963.1
71894.7
72940.2
84061.7
82021.8
86304.7
92471.8
88098.7
94389.1
79709.6
77658.1
97866.5
88028.5
90457.1
81246.7
79468.1
83453.4
84794.5
81996.7
86450.8
76862.1
74501.9
71439.3
72859.1
73614.1
78507.8
68285.7
69018.2
68401.7
68569.4
91321
91496.6
94742.3
81609.8
130402
133746
146709
141919
138692
135514
145694
151409
150667
148100
154969
152963
161993
160764
158049
160363
163275
119883
117467
112800
113841
126741
130300
109622
159885
157257
153061
149662
145752
156144
137159
142061
161537
163278
163474
165990
164684
167015
166418
166980
164914
166060
125556
128003
121322
117869
114135
124366
110785
100649
103663
105238
108961
69351.5
68363.5
67705.1
67619.5
73782.8
74672.1
70224.2
72436.9
82466.4
80265.2
84641.2
91492.9
87619.3
94651.7
78564.8
76363.6
96100.6
99095.2
87614.6
88715.9
80419.8
79684.9
82808.2
83816.2
82012.8
85127.4
76266.7
74382.3
70325.7
71817.9
72295.2
77874.3
67433.6
67752
68976.1
67644.9
89848.4
88953.3
90848.4
80325.6
82753.5
130729
132562
142624
139588
135553
146373
150934
149218
156292
154053
161838
161050
158748
161156
164331
119822
115194
111427
113610
125377
132159
111720
159278
153916
150424
146660
156088
139905
135143
144551
162842
164273
166811
165722
167821
167521
167764
165736
166971
127138
129592
122141
117862
113767
124314
111622
102051
105302
107340
67587.3
67192.9
66123.6
65728.7
73177.3
74523.4
69592.5
70845
80515.8
82773.6
78566.9
85307.4
89940.7
93082.9
88324.7
76802.6
96168.4
98096
85924
88328.6
80462.4
78985.4
82645.4
83564.8
82934.5
81565.4
83980.9
84890.8
76869.5
75203.2
73351.3
70523
71609.1
78276.8
65888.2
66264.2
67697.9
65984
88372.9
85508.7
89154.3
80478.6
133449
141464
144050
138834
136864
148599
145587
152211
157962
155720
153693
162870
162345
160564
162562
165528
164094
117523
122518
113760
111113
112126
127443
130660
110368
160213
152727
148944
157488
139474
136652
144126
163332
164097
165614
167779
166754
168722
168207
168668
166862
167938
128340
130104
121326
119404
116140
114535
125666
111150
101990
103618
107725
66151.5
65479.2
65271.8
65019.5
64646.9
71029.9
73105.7
68002.2
69891.8
79089.4
81107.8
76796.8
83960.7
89761.1
92869.6
86813
75573.1
94560.3
98768.7
85318.6
86667.8
80970.8
79900.6
79286.5
81808.5
82478.3
82320.4
83108.6
83551.4
76711.7
74630.2
73527.7
72198.3
69399.6
69953.7
77588.7
64773.1
65211.9
66244.7
64804.3
67893
84712.4
83268.2
86413.1
79650.2
132170
142582
144098
140235
136977
149534
146652
152555
158990
156715
154873
161291
163584
166690
165081
118170
114376
120956
111658
110935
126201
132412
112765
159357
161779
153059
150367
157058
141235
135415
145420
162940
164954
165257
166601
168571
167709
169616
169226
169423
167772
168709
127840
122389
118684
116761
113095
125453
109619
100567
103052
106346
66375.4
64491.3
64242.3
63405.2
63185.1
62558.9
70258.7
73808.5
71328.6
68117.7
79330.8
77151.4
81622.4
76056.1
84706.5
87888.4
91088.4
94291.5
97730.9
83290.4
80785.5
80291.8
78692.6
81526.9
81879.8
81724.9
82080
82584.5
75923.7
74959.6
72565.6
71593
69287.6
77784.9
63124.5
63560.2
64653.2
63126.1
66610.6
82884.6
82933.6
80818.5
83975.9
77072.1
132644
142128
145501
139352
136048
148327
151511
154375
158262
160489
156216
162758
163717
164813
166498
167808
116766
112705
121182
109617
109826
128535
123211
131459
110080
160683
162009
154950
149790
158882
141058
136722
143441
147489
164285
165732
166406
167670
169493
168528
170420
169948
170255
168591
169645
128988
121438
124069
119658
115648
113529
127590
109462
101031
104203
107547
64890.7
62900.2
62487.3
62499.3
61648.2
61525.3
68189
72758.7
69725
66384.3
77671.9
76188.7
80236.2
73841.9
83095.5
87432.1
90657.1
95805.7
92166.9
99522
82286.8
81087
80185.4
78971.7
81092.7
81318.7
81284
81305.7
76180.7
74109.9
72817.8
70342.8
67762.6
77140.1
61559.1
64833.8
63005
61428.2
66564.2
79611.3
79749
78632.4
76378.1
130893
134406
143854
145713
139763
137760
149028
152212
155530
158814
161462
157448
162909
165305
165846
167365
168910
118280
114384
110530
108648
108291
109428
127447
122136
134206
110666
160603
163555
155020
151591
158553
139236
143632
147977
165425
166981
167370
168563
170102
169397
171202
170785
170888
169386
170056
122763
124425
118577
116386
112159
127759
110386
103635
107236
63250.9
62398.4
61458
60665.2
59895.4
59257.9
67858.1
66295.6
70500.2
76697.6
74238.8
77794.9
80876.1
72854.8
83934.8
85882.9
88882.3
95123.1
91523.3
98988.3
80205.7
81053.6
79669.3
80632.8
78448.9
80176.4
80932.8
81119.8
80276.2
80072.1
75321
74282.1
72150.1
69899.6
67333.8
77534.6
60033.6
63612.3
61397.9
59713.2
64642.4
77983.2
78757.4
73949.7
131881
133975
143710
147615
141578
137404
150875
153843
155273
157286
160237
161441
163820
165988
166947
168526
169607
169246
117286
113038
109555
108669
106918
105674
108512
129286
123985
119014
134246
109721
162146
163760
156823
153532
150219
159710
140759
145889
166459
167462
168472
169495
170995
171490
171816
171568
171633
170784
122738
125936
119324
115013
112930
129148
109106
101927
105593
61907.6
60213.1
59566.8
59435.7
58439
58101.3
58374.5
65794
64328.1
69557.7
74213
76936.2
79213.8
70970.5
82962.9
86187.8
88022.5
92910.6
96492
89128.9
100065
78955.7
81006.4
79914.8
80922.9
80440.9
78854.5
79452.9
80395.4
81002.5
79412.4
79076.9
75822
73124.3
70897.8
68447.3
65769.4
76970.6
58102
61951.1
59800.1
61104
57910.1
64278.8
75076.4
76509.2
73268.6
131070
135285
145498
148246
141652
138657
151492
154400
156665
158587
160255
163049
165209
167453
167863
168868
170586
170550
114504
110688
106942
106361
105837
107497
103810
128461
132068
122582
117557
136865
108751
162448
165027
156619
154731
151024
161388
158326
139777
146342
166945
168480
169426
170350
171220