/*--------------------------------*- C++ -*----------------------------------*\
| =========                 |                                                 |
| \\      /  F ield         | OpenFOAM: The Open Source CFD Toolbox           |
|  \\    /   O peration     | Version:  v2012                                 |
|   \\  /    A nd           | Website:  www.openfoam.com                      |
|    \\/     M anipulation  |                                                 |
\*---------------------------------------------------------------------------*/
FoamFile
{
    version     2.0;
    format      ascii;
    class       surfaceScalarField;
    location    "1.3";
    object      phi;
}
// * * * * * * * * * * * * * * * * * * * * * * * * * * * * * * * * * * * * * //

dimensions      [0 3 -1 0 0 0 0];
oriented        oriented;


internalField   nonuniform List<scalar> 
21888
(
0.50741
-0.505592
-0.361052
0.868493
-0.557441
0.0518702
-0.695372
0.334344
0.614839
0.253692
-0.557481
-0.643477
0.815976
-0.481594
0.621556
-0.325523
0.579238
-0.0210654
-0.536394
-0.524625
-0.118827
0.490477
0.339348
-0.820911
0.675201
-0.0536014
0.530916
0.0483436
-0.54567
-0.535315
0.406768
-0.525577
0.507587
-0.0170827
0.807424
-0.468047
-0.414121
0.67923
0.477344
0.555951
0.00999102
-0.555643
0.0178769
-0.553172
-0.543361
0.0177985
-0.658717
0.641668
0.148736
0.224552
-0.692581
-0.514632
0.100527
0.154464
0.524812
-0.383657
0.861037
0.172323
-0.533353
-0.537748
-0.551738
-0.49682
0.591718
0.0499817
-0.568946
0.717707
0.674315
-0.449747
-0.535967
-0.1566
-0.435425
-0.404594
0.559095
0.526736
0.456479
0.764079
-0.548621
0.0152852
-0.0185344
-0.519201
0.141843
-0.693562
-0.549771
0.0529656
-0.593369
0.643381
0.10539
0.124363
-0.524325
0.0745951
-0.680913
-0.590561
0.155148
0.0558369
0.503288
0.0157014
0.511078
0.529861
-0.0733477
0.710258
0.053864
-0.567142
-0.53447
-0.377343
-0.692112
-0.537581
0.650953
-0.00753972
0.709272
-0.603861
-0.529732
0.654117
0.558336
-0.483724
-0.525749
0.585729
0.51903
0.512265
0.636953
0.704855
-0.37383
-0.193299
0.0570975
-0.591556
-0.75116
-0.0876434
-0.604452
-0.565835
0.0282669
-0.524278
0.51676
0.179561
-0.0455088
0.129857
0.0619728
-0.545688
-0.619114
0.0933807
0.063164
0.522601
0.0460016
0.47306
-0.0850302
0.59735
0.548683
0.0883094
0.618393
0.0865051
0.350297
-0.543585
-0.508727
-0.241249
-0.561509
-0.189635
-0.649138
-0.603548
-0.590834
0.756548
-0.239768
0.592672
-0.413095
0.460606
-0.506103
0.69086
-0.560985
0.559363
-0.497382
-0.713972
0.168295
-0.620575
0.611887
0.568635
0.388068
0.602206
0.706746
-0.407102
0.493634
-0.587178
0.0436038
-0.37828
-0.130436
-0.619522
-0.776801
-0.528756
-0.12037
-0.0310909
-0.572445
-0.540327
-0.0504933
0.349468
0.451109
0.0317035
-0.754838
0.341757
-0.294219
0.0532711
-0.329079
-0.584642
-0.0359174
0.121766
0.490168
0.308577
0.260092
0.696688
-0.272493
0.874777
0.437005
0.269774
0.723295
-0.229636
-0.575906
-0.670751
-0.451091
-0.325699
-0.559836
-0.571452
-0.572485
-0.635122
0.519247
-0.169764
0.690197
-0.239064
-0.672539
0.704259
-0.330766
-0.592088
0.29788
-0.538806
-0.640191
0.311123
0.600632
-0.636537
0.558808
0.750313
0.424245
0.310723
0.564132
-0.369103
0.638912
0.354221
0.289626
-0.725057
0.149164
-0.579869
-0.0908718
0.296743
-0.622431
-0.543013
-0.0168152
-0.0266564
-0.544788
0.072123
-0.644597
-0.572203
-0.0629067
0.52045
-0.669156
0.43011
0.0351229
-0.650691
0.319938
-0.352798
-0.603481
0.0646854
-0.0395498
-0.292351
-0.580025
-0.0565017
-0.159178
0.718024
0.362076
0.388292
0.786378
-0.39434
0.705127
0.581231
0.479762
0.775591
-0.421336
-0.361105
0.650749
-0.4283
-0.430695
-0.663065
-0.649078
-0.470881
-0.561596
-0.643954
-0.642922
0.159363
-0.404384
0.834512
0.672905
-0.637766
0.797615
-0.477665
0.254142
-0.606932
0.561355
-0.496663
0.679792
-0.719334
0.387448
0.553912
-0.610407
0.310959
0.407112
0.699311
0.392096
0.349955
0.355238
0.160719
0.420566
-0.184445
0.664242
0.591181
0.229439
0.336969
-0.765258
0.28822
-0.718907
-0.374836
-0.15164
-0.497428
0.370016
-0.840888
-0.191571
-0.483992
-0.159954
-0.646053
0.0031382
-0.367176
0.526558
0.268536
0.467352
0.159863
-0.699408
0.221752
-0.445259
-0.0455683
-0.109206
-0.165412
-0.636401
0.0260025
-0.209398
0.616546
0.348349
0.351017
0.740507
0.510731
-0.32028
0.675587
0.414729
0.454874
-0.0290201
0.620237
-0.4803
0.709765
-0.381929
-0.440561
-0.324688
0.295431
-0.670259
-0.592193
-0.68899
-0.375931
-0.464948
-0.481009
-0.535879
-0.350615
-0.633257
0.0462754
0.629225
-0.360678
0.537242
-0.0698754
-0.44551
0.60538
0.799528
-0.577769
-0.519806
0.074553
-0.565369
0.581515
-0.690714
-0.528594
0.363188
0.600354
-0.574345
0.392545
0.224039
0.743624
0.420288
0.14441
0.366377
0.236667
0.438985
0.559199
-0.0743845
0.529295
-0.752537
0.723549
0.545888
-0.0427391
0.325104
-0.707025
0.368755
-0.693435
-0.345147
0.0474427
-0.639629
-0.00713789
-0.681843
0.109033
-0.573974
0.373828
-0.85483
-0.162047
0.285646
-0.636256
-0.347605
0.583532
0.729545
-0.100309
-0.651509
0.290836
0.659682
0.354024
-0.0461233
-0.619139
0.0413766
-0.544582
0.0161527
-0.761306
0.070598
0.0717647
-0.398114
0.129438
-0.703778
0.753374
0.31425
0.429441
0.734611
0.603118
-0.180257
0.619301
0.559625
0.487917
0.235653
-0.0682003
0.614119
-0.621825
0.579104
-0.338261
-0.645986
0.34525
-0.69039
-0.646759
-0.572801
-0.736014
-0.232813
-0.62201
-0.291001
0.223391
-0.570992
-0.0382748
-0.666417
0.566113
-0.375575
0.490248
0.169445
0.624014
-0.269985
0.577894
-0.606334
0.647712
-0.563697
0.0191198
-0.54754
0.695961
-0.62536
0.560878
-0.48911
0.162768
0.672729
-0.543287
-0.480382
0.582521
0.170893
-0.19989
0.629384
0.554413
0.238893
0.3643
0.323861
0.295501
0.798622
0.419734
0.580805
-0.345131
0.469176
0.144973
0.770371
-0.191246
0.404476
-0.74273
0.000801328
-0.646779
-0.285908
-0.00767665
-0.639076
0.0702094
-0.643004
-0.526203
-0.209804
-0.75901
-0.620698
0.374949
-0.665945
-0.196038
0.451983
-0.0858436
0.651963
0.202325
-0.402792
0.572244
-0.745529
0.475546
-0.57798
-0.0283516
-0.0978142
-0.558858
0.148426
-0.542929
-0.0824268
0.183623
-0.380159
0.0897393
-0.633023
-0.53308
0.0527016
0.382664
0.640107
0.585656
0.0437728
0.50269
0.0517949
0.688246
0.798265
0.437725
0.361015
-0.0787935
0.498546
0.502028
0.42526
0.643543
-0.67104
0.479804
-0.521219
-0.221505
-0.520412
-0.65445
0.419917
-0.70582
-0.568862
-0.393937
-0.249063
-0.603735
-0.328733
-0.430272
-0.0285672
-0.592125
-0.246023
-0.729115
-0.219046
0.578553
-0.664395
0.249176
0.635966
-0.433639
0.353204
0.725124
-0.249577
-0.498235
0.469883
-0.746901
0.649086
-0.563541
0.0046841
-0.415114
0.472201
-0.554626
0.624323
-0.440697
0.244166
0.723789
-0.634047
-0.580318
-0.170486
0.553181
0.469655
0.637532
0.59699
0.361045
0.327285
0.397996
0.400351
0.440543
0.722159
0.61906
-0.117008
0.696252
-0.27097
-0.0556669
0.699245
0.740693
-0.260878
0.430587
-0.652088
0.223228
-0.743635
-0.0619678
-0.592477
-0.275227
-0.444205
-0.124651
-0.693264
0.116465
-0.720195
0.140522
-0.469253
-0.458835
-0.591194
0.434733
-0.680752
-0.294378
0.456342
0.122213
-0.0284266
0.705519
0.291486
0.72781
-0.374597
-0.597401
0.347822
-0.611637
0.113403
-0.277017
0.051685
-0.606953
-0.730094
0.314981
-0.257892
-0.310459
0.283094
-0.591164
-0.0428813
0.187381
-0.767697
-0.164167
0.63387
0.730148
-0.092544
-0.0454028
0.642437
0.72537
-0.262493
0.66292
0.456797
0.346184
0.376054
0.563415
0.579262
0.469735
0.535118
0.466939
-0.428854
-0.805597
-0.717123
0.475128
-0.750351
-0.576794
-0.579668
-0.136681
-0.332569
-0.595514
0.129014
-0.720203
-0.20562
0.339734
-0.634109
0.733655
-0.611445
-0.664514
0.636083
0.330923
-0.37303
0.674909
-0.327092
0.626807
-0.513409
0.349786
0.61438
-0.562702
-0.291972
0.400355
-0.658247
-0.660467
0.350009
-0.377373
-0.403782
-0.569107
0.526225
-0.427961
0.588507
0.467719
0.549947
0.357954
0.367509
0.428794
0.234191
0.803113
0.734102
0.620864
-0.0574234
0.568252
0.0110304
0.710252
-0.240506
-0.135998
0.671158
0.792678
-0.325732
0.43661
-0.86546
-0.475711
-0.329882
-0.0538002
-0.663317
-0.313736
0.145561
-0.722349
-0.282559
-0.297106
-0.615125
-0.466496
-0.719764
0.519326
-0.724943
-0.114781
0.460982
0.272673
0.0246362
0.791904
0.30187
0.287282
0.136059
-0.649472
0.805221
-0.455446
0.242509
-0.687485
0.39551
-0.287132
-0.308238
-0.77086
0.393487
0.34279
-0.74657
-0.226317
-0.244635
-0.618018
0.19006
-0.0605393
0.649089
0.562209
-0.0944235
-0.0976212
0.647625
0.796403
0.796476
-0.0809373
0.884166
0.653248
0.48489
0.510845
-0.432326
0.443363
0.277935
0.552175
0.610657
0.466168
-0.238494
-0.626962
-0.529509
0.216943
-0.546821
-0.517752
0.522607
-0.83634
-0.314398
-0.407947
-0.611501
-0.263701
-0.351421
-0.730194
-0.631392
-0.0883677
-0.202332
-0.732797
0.661961
-0.389306
0.659649
-0.635033
0.657128
-0.355269
0.682959
-0.39569
0.752843
-0.616793
-0.253966
0.297387
0.6965
-0.454007
0.430226
-0.717363
-0.703045
0.394803
-0.30956
-0.556509
0.496748
-0.723067
-0.670032
0.425394
0.551516
0.553273
0.227314
0.569185
0.484399
0.312158
0.331526
0.552759
0.00403527
0.649302
0.73131
-0.246393
0.534056
-0.0231968
0.579454
-0.136084
0.460594
-0.182654
0.489884
0.062293
0.0793522
0.53134
0.739653
-0.273497
0.383857
-0.622349
-0.410016
0.0856595
-0.615165
-0.461159
0.0930205
-0.61077
-0.452479
0.278232
-0.686176
-0.237587
-0.373911
-0.589005
-0.468962
-0.261228
-0.631117
-0.557327
0.531942
-0.734272
-0.200853
0.656939
0.00501183
-0.726874
0.33755
-0.0672422
0.0220852
0.327681
0.300795
-0.459129
-0.157672
-0.713101
0.719695
-0.422325
0.265673
-0.282881
-0.322563
-0.686654
0.37709
0.220022
-0.776531
-0.173286
-0.629627
-0.0934403
-0.261263
-0.0760137
0.627577
-0.187144
0.740488
0.711798
0.573304
-0.389129
0.701369
-0.263729
0.595341
0.583911
0.385651
0.371385
0.359943
0.287676
0.556264
0.324515
0.30723
-0.454273
0.516559
0.450759
0.45536
0.285367
0.383423
-0.228211
-0.394136
-0.638225
-0.522142
0.202266
-0.663421
-0.332535
0.232971
-0.685448
-0.223257
-0.462916
-0.597166
-0.44615
-0.142853
-0.707375
-0.675853
0.0447383
0.116908
-0.674234
-0.765713
0.0314428
0.393569
-0.594422
-0.681156
0.686142
-0.343628
-0.609472
0.542209
-0.65393
0.675997
-0.326265
0.757233
-0.456464
-0.684021
0.526336
-0.769364
0.347023
0.691587
-0.425936
0.45595
-0.738841
-0.712896
0.390327
-0.335812
-0.409606
-0.382961
0.502585
-0.675874
0.502094
-0.595537
-0.601258
0.339991
0.44048
0.351422
0.47953
0.232349
0.360217
0.213166
0.408365
0.293074
0.171899
0.423549
0.755927
0.745951
-0.0593442
0.419302
-0.243121
0.530805
0.313149
0.547375
-0.222859
-0.228572
0.535803
0.287982
-0.00314536
0.453921
-0.0389645
0.494354
0.610153
-0.324803
-0.323691
0.707095
0.210385
-0.604519
-0.435957
-0.0592383
-0.462901
-0.722656
-0.795434
-0.53274
-0.475061
0.322506
-0.785419
-0.740016
-0.590465
-0.675381
-0.629493
0.616453
-0.58501
0.0220316
0.362425
-0.471673
0.128026
0.066505
0.0705228
0.430941
0.235101
-0.228083
-0.243045
0.758088
-0.411088
0.332131
-0.348522
-0.686454
0.350637
0.369037
-0.778644
-0.582895
0.199933
-0.0986767
-0.173783
-0.226502
-0.346468
-0.126013
0.566535
-0.296618
0.648097
0.692793
0.640794
-0.274146
0.567281
-0.225423
0.649072
0.767536
0.520619
-0.544577
0.485246
0.41617
-0.0137613
0.426313
-0.113156
0.543271
0.00410662
0.312942
-0.243541
0.531515
0.414975
0.36837
0.366596
0.382267
-0.231309
-0.373209
-0.667264
-0.0885441
-0.63411
-0.472925
-0.693163
0.160425
0.087744
-0.562804
-0.340736
-0.444681
-0.10492
-0.635093
0.0793776
-0.66984
-0.476805
-0.198575
0.15148
-0.780971
-0.68403
0.0990205
-0.560864
-0.366309
0.728685
-0.50834
0.636342
-0.548616
0.615087
-0.437837
0.668054
-0.237145
-0.388122
0.623197
-0.853951
0.62585
-0.580198
0.337139
-0.674779
0.263672
0.71775
-0.385646
-0.717102
0.368568
-0.366476
-0.578712
0.651998
-0.750682
0.484222
-0.658011
0.472657
-0.699164
0.305524
0.269957
0.374003
0.526834
0.166037
0.442503
0.198373
0.351548
0.215785
0.532742
0.116445
0.16232
0.605329
-0.0444985
0.565209
0.110819
0.374439
0.020245
0.39594
0.412556
0.430116
-0.496966
0.501065
-0.184026
0.347477
-0.020687
0.435679
-0.10287
0.471266
0.564706
-0.198129
-0.332832
0.715066
0.183844
-0.557052
-0.615877
-0.0513845
-0.70442
-0.209923
-0.424184
-0.682846
-0.605418
-0.523604
-0.378959
0.257546
-0.598281
-0.549599
-0.555713
-0.518359
-0.47595
0.328255
-0.52683
-0.452715
0.668604
-0.569584
0.10774
-0.763349
0.396991
0.395808
-0.127051
0.119412
0.177219
-0.692939
0.455767
0.329607
-0.0697665
-0.485399
0.0456355
-0.337658
0.790467
-0.526824
0.404792
-0.679336
0.312849
-0.652499
0.0737863
-0.266467
-0.185359
-0.750191
0.0510223
-0.373823
-0.172848
0.442834
-0.117119
0.491166
0.482425
0.608618
0.549994
-0.200354
0.416176
0.695182
0.681754
0.621694
0.414681
-0.303854
0.394695
0.375266
0.514684
-0.102122
0.404919
0.0251982
0.452072
0.0489865
-0.202603
0.550066
0.332828
0.298438
0.362084
0.516905
-0.608435
-0.28048
-0.423938
-0.704663
-0.425298
-0.366735
-0.238682
0.242969
-0.766573
-0.745693
-0.0888978
-0.509382
-0.638496
0.0944764
-0.650188
0.159693
-0.678051
0.32405
-0.20278
0.128301
-0.581015
-0.628618
0.0590329
-0.544761
-0.327847
0.724784
-0.383044
0.778786
0.440206
-0.567294
-0.587914
0.707291
0.72303
-0.545856
-0.132176
0.673284
-0.343705
0.603489
-0.569117
0.0837063
0.588687
-0.543071
0.251013
-0.605043
0.0781978
0.62226
-0.217498
-0.256279
-0.67641
-0.720171
0.453695
0.394865
-0.580229
0.52352
-0.472503
-0.859497
0.485659
0.473425
-0.0305649
0.356341
0.290843
-0.17367
0.656174
0.435027
0.070934
0.479107
0.38458
0.0316298
0.195631
0.499635
-0.112435
0.794324
0.817421
0.305456
0.109231
0.210833
0.0623236
0.332382
0.0378503
0.337426
0.302797
0.477266
-0.345414
0.394385
0.20464
-0.0847517
0.417599
0.367342
-0.0688848
0.435619
-0.0735515
0.451618
0.0652592
0.208216
-0.816649
0.224624
-0.648561
-0.258029
-0.446633
-0.683325
0.361682
-0.600364
-0.385649
-0.404891
-0.537476
0.137763
-0.647143
-0.544018
-0.490494
-0.549749
-0.783795
0.659386
-0.600354
0.114625
-0.718935
0.391038
0.341685
0.370064
0.408678
-0.278769
0.155703
0.161395
-0.525299
0.393093
0.278527
0.0781631
0.559569
-0.475876
-0.833373
0.29028
-0.35405
0.71622
-0.638053
-0.733992
0.516462
-0.705892
0.449601
-0.527509
-0.148904
-0.325313
-0.405817
-0.056713
-0.756033
0.283525
-0.220249
0.336796
0.419
-0.0626287
0.33622
-0.0453493
0.543857
-0.247044
0.682168
0.455554
0.232122
0.36788
-0.0625082
0.562236
0.731951
0.0157573
0.801796
0.367786
-0.254402
0.363637
0.410705
-0.19987
0.370242
0.252687
-0.132562
0.435361
0.3447
0.531636
-0.137263
-0.285773
0.490395
0.348733
0.149829
0.378045
0.435288
-0.592024
-0.347054
-0.301506
-0.793686
-0.545561
-0.668882
0.0685189
0.382435
-0.768086
-0.588196
0.183304
0.1585
-0.695976
-0.0842324
-0.56291
-0.628249
0.106525
-0.597018
0.266455
-0.816205
0.016205
-0.21792
-0.412888
0.708946
-0.317969
-0.316528
0.658156
0.466073
-0.0574364
-0.635112
0.356303
-0.47945
0.74029
-0.578953
0.607024
-0.21396
-0.533046
0.811532
0.648059
-0.569935
-0.273823
-0.0262847
0.674688
-0.384431
0.320617
-0.0178125
-0.317462
-0.0166162
0.445396
-0.594303
-0.578166
0.252848
-0.671704
0.265875
-0.634884
-0.310643
-0.351365
-0.764704
0.544437
0.412073
-0.0752523
0.373686
0.349473
-0.290228
0.834207
0.392042
0.218429
0.237156
0.45059
0.410141
-0.0422269
0.57809
0.618319
0.113738
0.807522
0.0484716
0.31932
0.156305
0.247734
0.115906
0.23549
0.166901
0.203351
0.4196
0.316
0.0286981
0.303233
0.228388
0.353112
0.290203
0.0585447
-0.326341
0.476147
0.0516855
0.0566319
0.378634
-0.475314
-0.11671
-0.776819
-0.124566
-0.669119
-0.670126
-0.510382
-0.519678
-0.584784
-0.544926
-0.151049
0.0626636
-0.625573
-0.521723
-0.330562
-0.790394
0.572474
0.26707
-0.679959
0.392369
-0.702042
0.384014
0.617858
0.040247
0.522671
0.560352
-0.345797
0.260788
0.0280358
0.434071
0.241545
-0.699547
0.425705
-0.725852
-0.716273
0.331819
0.612165
-0.630018
-0.690491
0.372998
-0.625799
0.60914
-0.327236
-0.418869
0.677583
-0.411722
0.26388
-0.574528
-0.748163
0.396789
-0.0871353
-0.181437
0.214966
0.292475
0.0812339
-0.00238622
0.35188
0.434379
0.39993
0.535154
-0.143047
-0.144377
0.381569
0.521065
-0.0704306
0.265802
0.250271
-0.0010528
0.579225
0.617338
0.548207
0.225529
0.582096
0.296209
0.133024
0.186301
0.338051
-0.181746
-0.247658
0.363567
-0.128026
0.363514
0.336385
0.250349
0.169263
0.187972
0.33192
0.382401
-0.154026
0.446713
-0.0936211
0.308906
0.450341
0.0257824
0.430292
-0.661635
-0.665014
-0.111805
0.00455409
-0.673673
-0.607462
-0.599107
0.088725
-0.646365
0.126686
-0.575723
-0.00906403
-0.750156
0.052286
-0.677859
-0.469437
-0.674986
-0.115413
-0.107486
0.641181
-0.248879
0.706397
-0.32246
0.681361
0.23223
0.290414
0.0726672
0.487634
-0.711673
0.365818
-0.45095
-0.46995
0.497954
-0.0359094
-0.380254
0.621751
-0.290596
-0.358701
-0.0136696
-0.668338
0.0382909
-0.29537
0.677597
-0.0684953
0.366089
-0.69333
-0.751929
0.333048
-0.756323
0.34459
-0.48429
-0.208443
-0.355153
-0.713455
0.626303
-0.577049
0.395592
-0.168385
0.383366
-0.236636
0.317894
-0.288137
0.285766
0.115266
-0.163969
0.563979
0.525002
0.0102043
0.378069
0.311173
-0.137214
0.403049
-0.0871981
0.337492
0.404856
0.174469
0.460062
0.157337
0.0219262
0.526364
0.630473
0.592873
0.159281
0.13693
0.345587
0.0903934
0.181766
0.182588
0.18098
0.183376
0.153018
0.35265
-0.15982
0.347788
0.172092
0.162218
0.220169
0.292669
0.356693
0.14053
-0.358318
0.384072
0.0719493
-0.55307
-0.108565
-0.660459
-0.664875
-0.0806152
-0.593058
-0.688077
-0.557642
-0.449041
-0.684064
-0.441137
-0.309019
0.12214
0.557505
-0.67291
-0.800819
0.457434
-0.727339
0.404804
0.51264
0.168634
-0.139913
0.372108
0.362338
0.585241
0.347675
-0.361598
-0.772736
0.321725
-0.27483
-0.668254
0.632294
0.29731
-0.0465501
0.352015
-0.642632
-0.707364
0.348636
0.613667
-0.627376
0.598798
-0.560537
-0.779279
0.483881
-0.642078
0.573545
-0.423289
-0.368881
-0.531886
0.0475905
-0.740335
-0.676052
0.32089
0.0492375
0.795397
-0.399825
0.095244
0.230715
0.200169
0.0856102
0.315452
0.361115
0.586004
-0.309111
0.319349
0.0689927
-0.142114
0.453329
0.200304
0.260968
0.634599
0.683781
0.1473
0.483268
0.74025
0.319522
0.135948
0.209642
-0.17483
0.265221
-0.157077
0.338841
0.292226
-0.111246
0.288973
0.136932
0.215726
0.190706
0.334301
0.347124
-0.126967
0.33504
-0.0423855
0.382556
-0.0258879
0.277472
0.400709
-0.0166639
-0.549702
-0.651826
-0.00863319
-0.670663
0.00578797
0.0370697
-0.630128
-0.565937
-0.789153
0.231506
0.267087
-0.716136
-0.416988
0.322071
-0.63109
-0.243314
0.0100661
-0.682989
-0.396126
0.853442
0.741307
-0.336596
-0.396274
0.564818
0.0186407
0.353438
0.380955
0.130014
0.455165
0.477644
-0.815911
0.454232
-0.494264
0.357418
0.683707
-0.386436
0.637103
-0.355371
0.152746
-0.430676
-0.0284521
-0.0286141
-0.0766863
0.187066
-0.723686
0.300384
-0.726048
0.35715
0.658489
-0.61091
-0.765713
0.0253734
-0.0175719
-0.402806
0.618425
-0.569206
0.218584
-0.239662
0.33492
0.301917
-0.0711803
-0.198794
0.284419
0.256407
0.0590587
0.47602
-0.114862
0.648356
-0.062267
0.479884
-0.160498
-0.288896
0.357926
0.164472
-0.129427
0.329754
0.314362
-0.0533686
-0.162911
0.797589
0.520963
-0.139172
0.622503
0.749235
0.101318
0.218207
-0.0193626
0.229009
0.164007
0.316159
-0.0509389
0.129745
0.16248
0.20491
0.0240706
0.264908
-0.0146057
0.230341
-0.133272
0.323971
0.201018
0.142196
0.204912
0.208058
0.340149
0.374786
0.0378189
0.364259
-0.60715
0.0574484
-0.614756
-0.679296
-0.601361
-0.234062
-0.396065
-0.467087
-0.484639
0.331805
-0.748867
-0.573642
0.300812
-0.544117
0.585745
-0.57566
-0.351201
0.345089
0.457086
-0.701707
0.365033
-0.045912
0.610655
-0.0120357
0.365443
-0.13956
0.594637
0.465564
-0.24756
-0.617937
0.123617
-0.260573
0.726172
-0.0891376
-0.610538
0.255146
-0.45781
-0.659564
0.228857
0.712237
-0.740743
0.518119
-0.546768
0.612881
-0.689608
-0.549239
0.736241
-0.42568
0.815798
-0.45867
-0.702613
0.0916926
-0.464909
-0.677252
0.66378
-0.681361
0.260964
0.246572
0.662995
-0.444434
0.136139
0.172507
0.185241
0.214545
0.0698875
0.273618
0.438801
0.037261
0.365063
0.335202
0.313251
0.376602
0.197462
-0.238581
0.403089
0.242005
0.0877662
0.0758046
0.188654
0.658501
0.856271
0.364509
0.258053
0.22137
0.527911
0.231065
0.198846
0.253083
0.262027
-0.0980213
0.211085
0.264075
-0.101595
0.284944
-0.0800361
0.250311
0.268168
0.225942
0.343203
-0.101159
0.306058
-0.160746
0.36879
0.179384
0.412376
-0.0376164
-0.0626545
0.42688
-0.403934
-0.210822
-0.589177
-0.0901199
-0.709879
0.108519
-0.664968
0.197872
0.276042
-0.760692
-0.472899
-0.525069
-0.0485732
0.0416329
-0.509348
-0.0663523
-0.86073
0.734127
-0.389137
0.587561
-0.130562
0.683685
-0.318734
0.541576
0.47101
0.302754
0.215743
0.378837
0.225529
0.239989
0.471973
-0.719608
0.661949
-0.538397
0.465545
-0.688503
0.5993
-0.404445
0.205165
0.749397
-0.520578
0.162939
-0.222665
0.0660798
0.0597503
0.0476729
-0.753656
0.327961
-0.781895
0.323207
0.561728
-0.470045
-0.466077
0.001171
-0.508627
-0.168623
-0.119642
-0.492707
0.706597
-0.460047
0.262141
-0.106001
0.242151
-0.0708095
0.24333
-0.099738
0.284993
-0.199449
0.26935
0.173894
-0.264561
0.301849
0.100531
-0.194479
0.507776
0.475466
-0.0988197
-0.188363
0.385864
0.214757
-0.1594
0.247182
-0.261285
0.337114
-0.0726149
0.405579
0.252984
0.520345
0.33604
0.58591
0.663667
0.53772
0.0882242
0.142843
0.287074
0.00697016
0.246118
0.268377
-0.0572958
0.111179
0.152896
0.183346
0.188336
0.00266858
0.247649
0.291086
-0.0229086
-0.059401
0.285337
0.283789
0.267617
0.263689
0.0423571
-0.199954
0.379304
0.212396
0.389232
-0.416548
-0.480727
-0.18425
-0.562829
0.350093
-0.823089
-0.529305
-0.42443
0.764514
-0.830799
-0.510864
0.581341
0.152701
0.294473
0.450695
-0.587101
0.268309
0.0129359
0.528573
-0.0727072
0.543633
0.528238
0.455669
-0.0202585
0.399038
-0.115191
-0.0577322
-0.0729071
0.651878
-0.0526414
-0.635185
0.230716
-0.430043
-0.639719
0.119113
0.67956
-0.516687
-0.688061
0.465349
-0.622025
0.647753
-0.58804
-0.582088
0.629699
-0.453953
0.753673
-0.430487
0.403949
-0.874008
-0.507455
0.444107
-0.612751
-0.520773
0.401126
-0.804316
0.311595
0.293605
0.687193
-0.425075
0.185092
0.0427112
0.214197
0.0839433
0.0329586
0.236401
-0.0962492
0.270159
0.431254
-0.129373
0.314874
-0.21431
0.281026
0.528496
-0.0206856
0.33248
0.340449
0.0454422
0.306996
-0.0922144
0.174585
0.304158
0.0329805
0.773389
-0.33108
0.667187
0.196551
0.389391
0.392678
0.271026
0.734278
0.254023
0.294048
0.248792
0.228034
0.1953
-0.0424043
0.240402
-0.0570577
0.271071
-0.0827395
0.224748
0.0154935
0.268284
0.197478
0.0701266
0.279163
0.239824
0.223612
0.155664
-0.21213
0.424499
0.17707
0.38345
0.418597
-0.60288
-0.144253
-0.453486
-0.369687
-0.145861
0.340095
-0.153955
-0.676998
0.240252
-0.752437
0.618004
-0.465381
0.621263
-0.32686
0.726643
-0.276041
0.734786
-0.466548
0.739484
0.455791
0.523289
0.193377
0.334816
0.0515427
0.404075
0.450527
0.494907
-0.610159
0.579001
-0.636799
0.578902
-0.648239
0.595531
-0.409031
0.257129
0.63597
-0.516888
0.0974163
-0.829069
0.312324
-0.363791
0.0256822
0.0478965
-0.0186014
-0.793573
0.339602
-0.745179
0.314674
-0.116828
-0.429916
-0.167377
-0.475149
-0.13761
-0.403201
-0.481994
0.706428
-0.412847
0.281332
0.1962
-0.0111004
0.238919
0.165785
0.048424
0.249742
-0.21007
0.243038
0.140162
0.175499
0.0946728
0.185529
0.126167
0.399275
-0.118215
0.197464
0.378621
0.392997
-0.0604797
-0.168981
0.214439
0.138033
0.211967
-0.0778297
0.252433
-0.268466
0.301472
0.342316
0.431121
0.623055
0.0441841
0.782073
0.613362
0.753367
-0.0166163
0.27064
0.0940871
0.199965
0.0238212
0.224976
0.234976
-0.00694535
0.178684
0.197996
0.214008
0.152231
0.222403
0.00235162
0.261329
0.293716
0.000746654
0.278404
-0.0479982
0.287808
-0.153578
0.309221
0.270899
0.370406
-0.400786
-0.202113
-0.597699
0.316012
-0.685438
-0.546649
0.475093
-0.628586
-0.436741
-0.43773
0.341869
0.15581
0.407852
0.0282866
0.233145
0.506251
0.688855
0.377418
0.145795
0.0119847
0.322787
0.415997
0.076295
0.374174
-0.0312309
-0.0579633
0.629394
-0.0339279
-0.622776
0.213722
-0.36567
-0.528732
0.0118233
-0.461206
0.558575
0.736931
-0.424666
-0.747105
0.38326
0.625605
-0.59997
0.643926
-0.596065
-0.621992
0.603329
-0.405598
0.720292
-0.40564
0.557424
-0.674262
-0.634725
0.204809
-0.642504
-0.77235
0.154213
-0.805273
0.323263
0.307424
0.655784
-0.374477
0.211311
0.0288585
0.223938
0.203613
0.0461396
0.0916788
0.151367
0.23185
-0.101019
0.195702
0.364513
-0.178951
-0.234115
0.360307
0.274825
-0.318843
0.516339
0.0598119
-0.296554
0.236105
-0.0196589
0.230425
-0.0923762
0.22198
-0.00999747
0.125794
-0.0160157
0.175997
0.125492
-0.126163
0.557301
0.496943
-0.388597
0.432817
0.569211
0.212863
0.0505112
0.562877
0.0229079
0.730414
0.118428
0.152212
0.212517
0.22379
0.227334
-0.0270383
0.205723
0.212894
-0.014899
0.210252
0.00375014
-0.125866
0.278091
0.135454
0.245696
0.288539
0.122168
0.156223
0.300581
0.00862143
0.227397
0.0434832
0.0816665
0.288702
0.362166
-0.564316
-0.235505
-0.304303
-0.380912
0.253351
0.870441
-0.395356
-0.296345
-0.331745
-0.732364
0.221567
-0.662704
0.817268
-0.475535
-0.568882
0.724603
-0.161126
0.617142
-0.588952
-0.0965285
0.602648
0.297914
0.390871
0.453649
0.443638
0.404409
0.0474984
0.368438
0.421606
0.559153
-0.590461
0.57136
-0.651296
0.617299
-0.315031
0.290092
0.578381
-0.566581
0.275681
-0.063463
-0.763807
0.339087
-0.121548
-0.3806
0.0439176
-0.0177167
-0.0480313
-0.760942
0.355326
-0.762483
0.356823
-0.641713
-0.0325539
-0.43693
0.227944
-0.544443
-0.651076
-0.437701
0.648383
-0.340982
0.273884
0.214054
-0.0027344
0.242924
0.158311
0.0656394
0.20446
0.203288
-0.0519111
0.130839
0.177031
0.0186802
0.0679851
0.181386
0.4092
-0.134343
0.127778
-0.238439
0.298281
0.391087
-0.154956
0.210785
0.129619
0.166013
0.207072
-0.0812678
0.19107
0.189617
-0.0641076
0.60783
-0.104639
0.601599
0.469823
-0.0369782
0.592065
0.775735
0.762953
-0.0507311
0.202945
0.0387307
0.173788
0.0308065
0.192988
0.206558
0.0207821
0.185854
0.15499
0.195348
-0.173745
0.177489
0.10434
0.25761
-0.0784111
0.324081
0.131114
0.15741
0.287324
0.222145
0.236003
0.332154
-0.311
-0.53964
0.154772
-0.534864
-0.757908
0.362194
0.285647
-0.617157
-0.509703
-0.511814
0.7291
0.0880178
0.248953
-0.712121
0.550877
-0.0950907
-0.0298797
0.632431
0.0567888
0.545769
0.447589
0.0975533
0.356035
0.060511
0.383069
0.0469268
0.357437
0.415309
0.0453493
0.376203
-0.0191742
0.606735
0.010494
-0.658002
0.342952
-0.367934
-0.223652
0.609104
-0.33347
0.545593
0.697783
-0.358754
-0.583516
0.461935
-0.65167
0.27103
0.658942
-0.615064
0.61852
-0.636274
-0.670672
0.622571
-0.407178
0.688144
-0.331343
0.654481
-0.687045
0.388322
-0.825303
-0.624403
0.0800232
0.00338927
-0.831764
0.394043
0.347141
0.653538
-0.379678
0.20383
0.214865
0.0280701
0.242685
0.123203
0.0598546
0.143443
0.162963
0.190703
0.209394
0.282643
-0.214635
0.27488
-0.0934715
0.170787
0.256777
0.352986
-0.225184
0.407145
-0.108841
0.12771
0.29882
-0.0880171
-0.167505
0.29714
-0.00147825
-0.0932402
0.284327
0.188157
-0.198268
0.134177
-0.213031
0.820825
0.365218
0.388586
-0.373888
0.336937
-0.137749
0.729741
0.637985
-0.164466
0.927442
0.241677
0.204598
0.213774
0.186881
-0.00102846
-0.0909768
0.245966
0.185461
0.0098837
0.219238
-0.041755
-0.111452
0.215784
0.146148
0.155102
0.168953
0.312487
0.119893
0.167416
0.27459
-0.0524634
-0.0380318
0.274017
0.294097
0.489001
-0.0504824
-0.584237
-0.472643
-0.262144
-0.569216
-0.0473959
0.202309
-0.710677
0.098743
-0.614137
0.696021
-0.608122
0.643022
-0.394176
0.775262
-0.224502
-0.64318
0.547992
0.591741
-0.621703
0.0565595
0.575729
0.0904281
0.455253
0.508036
0.480552
0.401333
0.128348
0.229067
0.232645
0.182614
0.144057
0.232095
0.587485
-0.639392
0.649811
0.285582
0.525754
-0.749439
0.364254
-0.125146
-0.772917
0.414093
0.0753925
-0.189765
-0.501934
0.003415
-0.110562
-0.0168952
-0.762151
0.354954
-0.827684
0.496318
-0.298733
-0.642941
-0.182382
-0.562899
0.56027
-0.556895
-0.27151
-0.368127
0.544143
-0.197021
0.164447
-0.00849874
0.212334
-0.157761
0.185839
0.125342
0.117358
0.248561
0.191524
-0.0480733
0.189617
-0.0266462
0.021089
0.188315
0.0602646
-0.247001
0.153547
0.291724
-0.120918
0.304465
-0.0476632
-0.0208826
0.181986
0.182904
-0.180073
0.307808
0.0518363
0.209141
0.155334
0.0860729
-0.0889327
0.277111
0.248191
-0.114
0.208553
0.612252
-0.123709
0.488945
-0.107943
0.496517
0.459681
-0.122728
0.56515
0.0248407
0.613093
0.198826
0.728629
0.130217
0.111462
0.042907
0.161693
0.18401
0.0297669
0.0959024
0.184429
0.174821
0.0711436
0.229114
0.174019
0.266029
-0.143398
0.312322
0.0877539
0.224711
0.255153
0.131173
0.221535
0.0621411
0.231927
0.215653
-0.514594
0.0410365
0.451096
-0.713085
-0.364401
-0.56384
-0.611737
-0.401384
0.665195
0.0306945
0.0348032
0.380992
-0.672281
0.447683
-0.051523
-0.124387
-0.0342932
0.721611
0.666046
-0.0519155
0.507083
0.456026
0.150732
0.329755
0.223852
0.177432
0.190468
0.147006
0.0820418
0.376639
0.329582
0.455894
0.560519
0.0892261
-0.463889
0.778845
-0.41468
0.653613
0.414423
0.692357
-0.617008
0.502556
0.616837
-0.613466
0.61324
-0.723848
-0.653242
0.636265
-0.472754
0.649951
-0.153659
-0.595196
0.296448
0.568343
-0.750955
-0.111796
-0.814353
0.257452
-0.669544
0.398022
-0.750184
0.38204
0.452911
0.615208
-0.450782
0.175515
0.0545778
0.158937
0.0269068
-0.103229
0.220601
0.150482
0.0410499
0.14155
0.132296
0.171579
0.0850954
-0.248714
0.309002
-0.0951513
0.183571
-0.283337
0.2357
-0.346598
0.325736
-0.164594
0.360275
-0.177349
0.128952
0.0244963
-0.186632
0.238484
0.022529
0.206969
-0.0516215
0.170493
-0.084411
0.159275
0.169471
0.107656
0.0565029
-0.39212
0.600519
0.63716
0.335995
0.381018
0.10439
-0.320976
0.198266
-0.148211
0.713492
0.464644
0.91259
0.768499
0.173125
-0.0507178
0.162181
0.191463
-0.122854
0.218754
0.0615733
0.124104
-0.120039
0.19118
0.148587
0.0805199
-0.0898602
0.26387
0.176158
0.111053
0.201247
0.00623486
0.21846
0.0813146
0.173821
-0.185206
0.316358
0.0363093
0.268209
0.605714
-0.564883
-0.107237
0.435731
-0.79895
-0.131405
-0.398656
-0.21281
-0.631433
0.66201
-0.666022
0.700717
-0.285137
0.708113
-0.260535
0.599744
-0.651352
-0.645158
0.520682
0.52616
0.731028
-0.00955837
0.19321
0.472726
0.700175
0.606666
0.507115
0.272491
0.0982898
0.27831
0.253665
0.075876
0.197054
0.258806
-0.635425
0.724562
0.151288
-0.723437
-0.657765
0.184993
0.569136
-0.722822
-0.0268866
-0.517907
-0.439635
-0.311449
-0.551288
-0.412104
-0.352177
-0.275741
0.00210966