/*--------------------------------*- C++ -*----------------------------------*\
| =========                 |                                                 |
| \\      /  F ield         | OpenFOAM: The Open Source CFD Toolbox           |
|  \\    /   O peration     | Version:  v2012                                 |
|   \\  /    A nd           | Website:  www.openfoam.com                      |
|    \\/     M anipulation  |                                                 |
\*---------------------------------------------------------------------------*/
FoamFile
{
    version     2.0;
    format      ascii;
    class       pointVectorField;
    location    "1.3";
    object      pointDisplacement;
}
// * * * * * * * * * * * * * * * * * * * * * * * * * * * * * * * * * * * * * //

dimensions      [0 1 0 0 0 0 0];


internalField   nonuniform List<vector> 
17322
(
(0 0 0)
(0 0 0)
(0 0 0)
(0 0 0)
(0 0 0)
(0 0 0)
(0 0 0)
(0 0 0)
(0 0 0)
(0 0 0)
(0 0 0)
(0 0 0)
(0 0 0)
(0 0 0)
(0 0 0)
(0 0 0)
(0 0 0)
(0 0 0)
(0 0 0)
(0 0 0)
(0 0 0)
(0 0 0)
(0 0 0)
(0 0 0)
(0 0 0)
(0 0 0)
(0 0 0)
(0 0 0)
(0 0 0)
(0 0 0)
(0 0 0)
(0 0 0)
(0 0 0)
(0 0 0)
(0 0 0)
(0 0 0)
(0 0 0)
(0 0 0)
(0 0 0)
(0 0 0)
(0 0 0)
(0 0 0)
(0 0 0)
(0 0 0)
(0 0 0)
(0 0 0)
(0 0 0)
(0 0 0)
(0 0 0)
(0 0 0)
(0 0 0)
(0 0 0)
(0 0 0)
(0 0 0)
(0 0 0)
(0 0 0)
(0 0 0)
(0 0 0)
(0 0 0)
(0 0 0)
(0 0 0)
(0 0 0)
(0 0 0)
(0 0 0)
(0 0 0)
(0 0 0)
(0 0 0)
(0 0 0)
(0 0 0)
(0 0 0)
(0 0 0)
(0 0 0)
(0 0 0)
(0 0 0)
(0 0 0)
(0 0 0)
(0 0 0)
(0 0 0)
(0 0 0)
(0 0 0)
(0 0 0)
(0 0 0)
(0 0 0)
(0 0 0)
(0 0 0)
(0 0 0)
(0 0 0)
(0 0 0)
(0 0 0)
(0 0 0)
(0 0 0)
(0 0 0)
(0 0 0)
(0 0 0)
(0 0 0)
(0.0022991 0.033827 0)
(0.0020295 0.0337971 0)
(0.00174781 0.033766 0)
(0.00145814 0.0337137 0)
(0.00117015 0.0336018 0)
(0.000885244 0.0334503 0)
(0.000603784 0.033265 0)
(0.000329513 0.0330446 0)
(6.07735e-05 0.0327944 0)
(-0.000202178 0.0325157 0)
(-0.000459177 0.0322097 0)
(-0.00071131 0.0318778 0)
(-0.000958642 0.0315206 0)
(-0.00120198 0.0311386 0)
(-0.00144166 0.0307322 0)
(-0.00167818 0.0303014 0)
(-0.00191158 0.0298459 0)
(-0.00214254 0.0293659 0)
(-0.00237101 0.0288608 0)
(-0.00259734 0.0283305 0)
(-0.00282165 0.0277745 0)
(-0.00304401 0.0271924 0)
(-0.00326465 0.0265837 0)
(-0.00348345 0.0259479 0)
(-0.00370052 0.0252846 0)
(-0.00391585 0.0245931 0)
(-0.00412934 0.023873 0)
(-0.00434105 0.0231238 0)
(-0.00455079 0.0223449 0)
(-0.0047585 0.0215358 0)
(-0.00496405 0.0206961 0)
(-0.00516731 0.0198252 0)
(-0.00536814 0.0189228 0)
(-0.00556636 0.0179884 0)
(-0.00576179 0.0170218 0)
(-0.00595423 0.0160226 0)
(-0.00614347 0.0149905 0)
(-0.00632931 0.0139253 0)
(-0.00651156 0.0128269 0)
(-0.00668994 0.0116951 0)
(-0.00686428 0.0105301 0)
(-0.00703432 0.00933168 0)
(-0.00719985 0.00810023 0)
(-0.00736064 0.0068357 0)
(-0.00751649 0.00553862 0)
(-0.00766717 0.00420924 0)
(-0.00781251 0.0028481 0)
(-0.00795229 0.00145559 0)
(-0.00808637 3.26493e-05 0)
(-0.00821455 -0.00142005 0)
(-0.00833672 -0.00290171 0)
(-0.00845273 -0.00441138 0)
(-0.00856248 -0.00594798 0)
(-0.00866588 -0.0075103 0)
(-0.00876287 -0.00909712 0)
(-0.00885339 -0.0107072 0)
(-0.00893744 -0.0123391 0)
(-0.009015 -0.0139911 0)
(-0.00908608 -0.0156618 0)
(-0.00915074 -0.0173493 0)
(-0.00920905 -0.0190523 0)
(-0.00926108 -0.0207686 0)
(-0.00930695 -0.0224964 0)
(-0.00934677 -0.0242341 0)
(-0.00938067 -0.0259793 0)
(-0.00940883 -0.0277303 0)
(-0.0094314 -0.0294848 0)
(-0.00944859 -0.0312413 0)
(-0.00946057 -0.0329973 0)
(-0.00946757 -0.034751 0)
(-0.00946979 -0.0365003 0)
(-0.00946745 -0.0382433 0)
(-0.00946076 -0.039978 0)
(-0.00944998 -0.0417023 0)
(-0.00943533 -0.0434147 0)
(-0.00941703 -0.0451131 0)
(-0.00939533 -0.0467958 0)
(-0.00937045 -0.0484611 0)
(-0.00934261 -0.0501076 0)
(-0.00931204 -0.0517333 0)
(-0.00927898 -0.0533373 0)
(-0.00924361 -0.0549179 0)
(-0.00920616 -0.0564739 0)
(-0.0091668 -0.058004 0)
(-0.00912578 -0.0595075 0)
(-0.00908326 -0.0609831 0)
(0.000748236 -0.0616513 0)
(0.000990024 -0.060195 0)
(0.0012341 -0.0587109 0)
(0.00148013 -0.0572002 0)
(0.00172778 -0.0556636 0)
(0.00197669 -0.0541023 0)
(0.00222647 -0.0525176 0)
(0.00247675 -0.0509109 0)
(0.0027271 -0.0492834 0)
(0.00297709 -0.0476367 0)
(0.00322627 -0.0459724 0)
(0.00347421 -0.0442921 0)
(0.00372043 -0.0425975 0)
(0.00396443 -0.0408904 0)
(0.00420577 -0.0391726 0)
(0.00444392 -0.037446 0)
(0.00467841 -0.0357125 0)
(0.00490878 -0.0339739 0)
(0.00513451 -0.0322324 0)
(0.00535513 -0.0304898 0)
(0.00557018 -0.0287483 0)
(0.0057792 -0.0270097 0)
(0.00598175 -0.0252759 0)
(0.00617741 -0.0235488 0)
(0.00636576 -0.0218307 0)
(0.00654644 -0.0201231 0)
(0.00671909 -0.018428 0)
(0.00688336 -0.0167472 0)
(0.00703898 -0.0150822 0)
(0.00718568 -0.0134349 0)
(0.0073232 -0.0118067 0)
(0.00745137 -0.0101991 0)
(0.00756998 -0.0086138 0)
(0.00767893 -0.00705186 0)
(0.0077781 -0.00551453 0)
(0.00786743 -0.00400305 0)
(0.00794686 -0.00251849 0)
(0.00801643 -0.0010618 0)
(0.00807611 0.000366196 0)
(0.00812603 0.00176482 0)
(0.0081662 0.0031331 0)
(0.00819679 0.00447064 0)
(0.00821787 0.00577689 0)
(0.00822966 0.00705154 0)
(0.00823228 0.00829406 0)
(0.00822596 0.00950443 0)
(0.00821086 0.0106824 0)
(0.00818726 0.0118278 0)
(0.00815531 0.0129409 0)
(0.0081153 0.0140214 0)
(0.00806745 0.0150696 0)
(0.00801198 0.0160856 0)
(0.00794914 0.0170698 0)
(0.00787918 0.0180224 0)
(0.0078023 0.0189437 0)
(0.00771874 0.0198341 0)
(0.0076287 0.0206939 0)
(0.00753237 0.0215236 0)
(0.00742995 0.0223237 0)
(0.00732157 0.0230947 0)
(0.00720748 0.0238371 0)
(0.00708769 0.0245513 0)
(0.00696237 0.025238 0)
(0.00683161 0.0258975 0)
(0.00669536 0.0265304 0)
(0.00655381 0.0271373 0)
(0.0064068 0.0277185 0)
(0.0062543 0.0282746 0)
(0.00609627 0.0288059 0)
(0.00593238 0.0293128 0)
(0.00576276 0.0297956 0)
(0.00558671 0.0302545 0)
(0.00540423 0.0306896 0)
(0.00521481 0.031101 0)
(0.00501809 0.0314884 0)
(0.00481318 0.0318513 0)
(0.00459995 0.0321893 0)
(0.00437712 0.032501 0)
(0.00414471 0.0327853 0)
(0.00390278 0.0330407 0)
(0.00364899 0.0332625 0)
(0.00338721 0.0334512 0)
(0.003117 0.033601 0)
(0.00283707 0.033692 0)
(0.00256218 0.0337609 0)
(1.05318e-05 0.000208197 0)
(1.11549e-05 0.000214722 0)
(2.35815e-05 0.000450115 0)
(3.07709e-05 0.000599015 0)
(1.98027e-05 0.000386093 0)
(6.76374e-06 0.000136242 0)
(1.41381e-05 0.000284486 0)
(1.39878e-05 0.000261579 0)
(3.59413e-05 0.000684649 0)
(2.3125e-05 0.000460433 0)
(2.00433e-05 0.000408779 0)
(3.61401e-05 0.000718604 0)
(3.03433e-05 0.000564559 0)
(4.84978e-05 0.000907049 0)
(4.54608e-05 0.000882433 0)
(4.663e-05 0.000930344 0)
(1.86194e-05 0.000391726 0)
(1.32267e-05 0.000280369 0)
(1.29869e-05 0.000272554 0)
(1.0277e-05 0.000209761 0)
(6.45644e-06 0.000133582 0)
(1.96061e-05 0.000353777 0)
(4.02169e-05 0.000728519 0)
(6.13957e-05 0.00117535 0)
(6.9015e-05 0.00127544 0)
(3.42147e-05 0.000707721 0)
(3.02035e-05 0.000612839 0)
(4.06705e-05 0.000826945 0)
(1.42326e-05 0.000295056 0)
(8.9068e-05 0.00172442 0)
(7.16937e-05 0.00140341 0)
(7.60777e-05 0.00144668 0)
(5.74872e-05 0.00113634 0)
(6.61895e-05 0.00133678 0)
(5.26408e-05 0.00107384 0)
(2.05601e-05 0.000444053 0)
(2.33157e-05 0.00049683 0)
(2.58684e-05 0.000558165 0)
(4.87243e-06 0.000102126 0)
(9.46308e-06 0.000197661 0)
(8.97673e-06 0.00018935 0)
(1.91534e-05 0.000331308 0)
(5.57887e-05 0.0010128 0)
(5.34984e-05 0.000939587 0)
(6.77323e-05 0.00121207 0)
(3.41626e-05 0.000601522 0)
(8.00026e-05 0.00160405 0)
(4.35332e-05 0.000906304 0)
(4.46391e-05 0.000956152 0)
(3.61287e-05 0.000762779 0)
(3.73573e-05 0.000815471 0)
(3.59245e-05 0.000771739 0)
(1.71484e-05 0.000366227 0)
(1.24981e-05 0.00026745 0)
(1.43354e-05 0.000309827 0)
(4.48829e-06 9.5236e-05 0)
(3.98474e-05 0.000678178 0)
(0.000106437 0.00191129 0)
(8.91059e-05 0.00165539 0)
(8.46321e-05 0.00151663 0)
(9.27939e-05 0.00185663 0)
(0.000105939 0.00207768 0)
(9.01074e-05 0.00190096 0)
(8.47969e-05 0.00185144 0)
(7.89937e-05 0.00167437 0)
(5.09964e-05 0.00111762 0)
(4.34212e-05 0.000953035 0)
(2.99768e-05 0.000640192 0)
(1.77822e-05 0.000388733 0)
(8.91013e-06 0.000191756 0)
(8.99514e-06 0.00019164 0)
(2.23018e-05 0.000369245 0)
(9.88093e-05 0.00157456 0)
(0.000124272 0.00202296 0)
(0.000107511 0.00178881 0)
(9.81771e-05 0.0016958 0)
(8.61009e-05 0.00143725 0)
(0.000129656 0.00235074 0)
(0.000107528 0.0020194 0)
(0.000101357 0.00207832 0)
(8.61866e-05 0.00177305 0)
(6.72587e-05 0.00143171 0)
(6.11511e-05 0.00133923 0)
(5.62337e-05 0.00120211 0)
(3.31114e-05 0.000745947 0)
(2.6486e-05 0.000599311 0)
(3.06723e-05 0.000679739 0)
(5.99366e-06 0.000128227 0)
(2.81069e-06 6.01628e-05 0)
(2.7383e-05 0.000432304 0)
(2.99086e-05 0.000451822 0)
(4.7809e-05 0.000779567 0)
(6.22797e-05 0.000967426 0)
(7.19404e-05 0.00116756 0)
(7.5561e-05 0.00131148 0)
(6.26225e-05 0.00105485 0)
(0.000156116 0.00278901 0)
(0.00014268 0.00249819 0)
(0.000143031 0.00280676 0)
(0.000119672 0.00239504 0)
(0.000124791 0.00238541 0)
(4.51017e-05 0.00100884 0)
(5.39602e-05 0.00121678 0)
(9.91631e-05 0.00212385 0)
(3.80942e-05 0.00084761 0)
(2.42753e-05 0.000531777 0)
(3.07809e-05 0.000668617 0)
(1.99355e-05 0.00044873 0)
(1.92275e-05 0.00042614 0)
(2.42036e-05 0.000539029 0)
(9.81392e-06 0.000215558 0)
(9.81994e-06 0.000213497 0)
(1.32637e-05 0.00028976 0)
(6.09017e-06 0.000132007 0)
(6.31386e-06 0.000137994 0)
(4.77076e-06 0.000102701 0)
(1.79827e-06 3.87297e-05 0)
(0.000101615 0.00151629 0)
(0.000124526 0.00174753 0)
(0.000152264 0.00223515 0)
(0.000157071 0.00267179 0)
(0.000178215 0.00306887 0)
(0.000142601 0.00266245 0)
(0.000158781 0.0029638 0)
(0.000128374 0.00263309 0)
(0.000123913 0.00264704 0)
(0.000113863 0.00238292 0)
(0.000109043 0.00238735 0)
(9.49611e-05 0.00211886 0)
(8.25962e-05 0.00187752 0)
(7.51811e-05 0.0016837 0)
(7.02996e-05 0.00162667 0)
(5.42173e-05 0.00128785 0)
(5.93378e-05 0.00137179 0)
(6.2015e-05 0.00146668 0)
(4.04207e-05 0.000950293 0)
(3.16947e-05 0.000742784 0)
(3.74984e-05 0.000865841 0)
(1.44574e-05 0.000323476 0)
(1.41094e-05 0.000311421 0)
(9.67614e-06 0.000214954 0)
(9.25351e-06 0.000208288 0)
(5.56446e-06 0.000122742 0)
(3.18401e-06 6.88965e-05 0)
(4.84199e-05 0.000671873 0)
(5.50547e-05 0.000807662 0)
(8.4257e-05 0.00119824 0)
(9.16214e-05 0.00124835 0)
(0.000179077 0.00246801 0)
(0.000200751 0.00292204 0)
(0.000186886 0.00304715 0)
(0.000169762 0.00325502 0)
(0.000148352 0.0032122 0)
(0.000132485 0.00288346 0)
(0.000139864 0.00291193 0)
(6.75596e-05 0.00162297 0)
(9.0639e-05 0.00216771 0)
(0.000102914 0.00236928 0)
(0.000101105 0.00245133 0)
(4.44635e-05 0.00101852 0)
(3.84929e-05 0.00087287 0)
(3.42003e-05 0.00081602 0)
(1.43408e-05 0.000326534 0)
(2.05857e-05 0.000470347 0)
(4.73084e-06 0.000105508 0)
(3.06558e-06 6.72227e-05 0)
(3.40728e-06 7.42011e-05 0)
(1.38694e-06 2.99785e-05 0)
(5.78722e-07 1.24912e-05 0)
(1.3455e-06 2.92093e-05 0)
(6.36035e-05 0.000826004 0)
(0.000137439 0.00179982 0)
(0.000260222 0.00400218 0)
(0.000240747 0.00351928 0)
(0.000281326 0.00401552 0)
(0.000243218 0.00333088 0)
(0.000205981 0.00350819 0)
(0.000192257 0.00361082 0)
(0.000183042 0.00362378 0)
(0.000159333 0.00323498 0)
(0.00017057 0.00358881 0)
(0.000114976 0.0027015 0)
(0.000110281 0.00273769 0)
(6.26326e-05 0.00156289 0)
(7.22357e-05 0.00177076 0)
(7.10786e-05 0.00180009 0)
(8.03678e-05 0.0019814 0)
(7.88664e-05 0.00202727 0)
(4.59359e-05 0.00109834 0)
(4.96811e-05 0.00121205 0)
(4.28563e-05 0.00104804 0)
(2.46562e-05 0.000571051 0)
(2.49184e-05 0.000588454 0)
(1.92444e-05 0.000453236 0)
(3.60292e-05 0.000893017 0)
(2.90264e-05 0.000718522 0)
(3.189e-05 0.000775265 0)
(7.83819e-06 0.000178989 0)
(6.11611e-06 0.000143906 0)
(1.05385e-05 0.000244071 0)
(1.27701e-05 0.000300397 0)
(4.20856e-06 9.50558e-05 0)
(0.000318802 0.00472403 0)
(0.00028852 0.00461636 0)
(0.00029306 0.00370047 0)
(0.000249578 0.00297631 0)
(0.000320067 0.00374717 0)
(0.000240244 0.0043831 0)
(0.000213648 0.00383453 0)
(0.000245944 0.0041297 0)
(0.000209584 0.00401567 0)
(0.000194966 0.00401039 0)
(0.000143302 0.0033076 0)
(0.000159513 0.00354626 0)
(0.000125876 0.00302216 0)
(0.000118537 0.00303494 0)
(5.27485e-05 0.00131777 0)
(4.39403e-05 0.00110024 0)
(6.41171e-05 0.00176219 0)
(7.65052e-05 0.00207002 0)
(6.71184e-05 0.00193144 0)
(3.64091e-05 0.000928798 0)
(5.39108e-05 0.00139052 0)
(2.51561e-05 0.000614302 0)
(2.05434e-05 0.000493566 0)
(2.80752e-05 0.000672036 0)
(1.71108e-05 0.000396408 0)
(3.39276e-06 7.75807e-05 0)
(4.7272e-06 0.000109491 0)
(0.000298449 0.00401525 0)
(0.000351593 0.00457844 0)
(0.000325081 0.00450138 0)
(0.000258944 0.00485477 0)
(0.000281131 0.00486426 0)
(0.000285197 0.00525838 0)
(0.000118826 0.0026579 0)
(0.000130646 0.00296615 0)
(0.000259616 0.00521309 0)
(0.000274746 0.00577209 0)
(0.000240472 0.00537105 0)
(8.92224e-05 0.00222777 0)
(8.61903e-05 0.00224169 0)
(6.25431e-05 0.00162104 0)
(4.76813e-05 0.00121671 0)
(4.1981e-05 0.00107901 0)
(4.53277e-05 0.00118463 0)
(3.68038e-05 0.000969064 0)
(1.85858e-05 0.000456774 0)
(1.60274e-05 0.000402535 0)
(1.31736e-05 0.000325462 0)
(8.75519e-06 0.000209216 0)
(1.49778e-05 0.000385089 0)
(1.03248e-05 0.000262399 0)
(6.07694e-05 0.000734021 0)
(0.000139172 0.00153677 0)
(0.000198792 0.00226027 0)
(0.000125506 0.00147043 0)
(0.000385693 0.00429438 0)
(0.000375823 0.00453205 0)
(0.00033241 0.00532468 0)
(0.000368287 0.00542797 0)
(0.000392412 0.00602005 0)
(0.000292632 0.00320302 0)
(0.000458593 0.00525273 0)
(0.000357993 0.00609936 0)
(0.000108361 0.00298246 0)
(0.000102927 0.00271283 0)
(0.000126712 0.0033599 0)
(0.000144126 0.00365741 0)
(0.000137949 0.00378284 0)
(0.000221151 0.00482601 0)
(5.39588e-05 0.00147985 0)
(4.93314e-05 0.00131659 0)
(5.62666e-05 0.00149138 0)
(6.92483e-05 0.00182523 0)
(2.51123e-05 0.000661431 0)
(3.04197e-05 0.000789411 0)
(2.99356e-05 0.000792189 0)
(7.80089e-06 0.000191782 0)
(5.93831e-06 0.000143914 0)
(1.29102e-05 0.000313265 0)
(2.88428e-05 0.000730283 0)
(2.49668e-05 0.000645325 0)
(2.12678e-05 0.000542507 0)
(2.31653e-05 0.000577824 0)
(0.000111862 0.00138797 0)
(0.00037184 0.00512897 0)
(0.000200191 0.00211304 0)
(0.000164803 0.0016132 0)
(0.000289971 0.00289308 0)
(0.000465043 0.00493322 0)
(0.000393935 0.00403782 0)
(0.000296123 0.00690555 0)
(0.000255428 0.00600254 0)
(0.000307074 0.0063628 0)
(0.000115313 0.00386499 0)
(0.000137954 0.00411673 0)
(0.000132743 0.00439671 0)
(8.05412e-05 0.0022817 0)
(9.33399e-05 0.00261874 0)
(8.38577e-05 0.00247091 0)
(0.00018602 0.00526065 0)
(0.000215991 0.005384 0)
(0.000215693 0.00577324 0)
(0.000307406 0.00582609 0)
(7.29335e-05 0.00219216 0)
(4.3695e-05 0.00120427 0)
(8.9398e-05 0.00240131 0)
(2.62674e-05 0.000703322 0)
(3.08267e-05 0.000830939 0)
(2.5257e-05 0.000688468 0)
(2.95104e-05 0.000817665 0)
(3.56715e-05 0.00100007 0)
(3.00701e-05 0.000854093 0)
(9.66414e-06 0.00024145 0)
(5.13251e-06 0.000129487 0)
(4.57876e-06 0.000113803 0)
(1.92942e-05 0.000504669 0)
(1.28539e-05 0.000337135 0)
(5.85485e-06 0.000149888 0)
(7.01509e-05 0.000788592 0)
(9.74302e-05 0.00101861 0)
(0.000426017 0.00768961 0)
(0.000457847 0.00730666 0)
(0.000510839 0.00817967 0)
(0.000557308 0.00594683 0)
(0.000604176 0.00680198 0)
(0.000524305 0.00620213 0)
(0.00039446 0.0068949 0)
(0.000346205 0.00646971 0)
(0.000114733 0.00330172 0)
(0.0001188 0.00362267 0)
(0.000101445 0.00339878 0)
(9.01959e-05 0.00298343 0)
(0.000103912 0.00322677 0)
(0.000159728 0.00467179 0)
(0.0002106 0.00498475 0)
(9.39612e-05 0.00282815 0)
(7.88104e-05 0.00244085 0)
(4.02586e-05 0.00114597 0)
(4.72863e-05 0.00134617 0)
(5.63641e-05 0.00160904 0)
(5.67299e-05 0.00168536 0)
(2.08984e-05 0.000574553 0)
(2.03961e-05 0.000548298 0)
(2.43176e-05 0.000690788 0)
(3.65636e-05 0.000994977 0)
(1.03314e-05 0.000276071 0)
(1.54503e-05 0.00041103 0)
(1.41906e-05 0.000383809 0)
(4.32344e-06 0.000112253 0)
(9.37468e-06 0.000242538 0)
(7.43256e-06 0.000195576 0)
(0.000433566 0.0054972 0)
(0.000456687 0.00670424 0)
(0.000527934 0.00755678 0)
(0.000691312 0.00717498 0)
(0.000230926 0.00194217 0)
(0.000384157 0.00327941 0)
(0.000268287 0.00245987 0)
(0.000403837 0.00377794 0)
(0.000549735 0.00476139 0)
(0.000520886 0.00507318 0)
(0.000320083 0.00819213 0)
(0.000364557 0.00785765 0)
(0.000384972 0.00880112 0)
(0.000235034 0.0063527 0)
(9.21319e-05 0.00351997 0)
(0.000108115 0.00409409 0)
(8.80818e-05 0.00381745 0)
(0.000251004 0.00704794 0)
(6.60391e-05 0.0023419 0)
(7.85661e-05 0.00258085 0)
(7.61683e-05 0.00273968 0)
(4.05905e-05 0.00119181 0)
(6.55251e-05 0.00213452 0)
(5.50336e-05 0.00177599 0)
(6.13483e-05 0.00188217 0)
(3.3493e-05 0.000971299 0)
(0.000126244 0.0011398 0)
(0.000663591 0.00766645 0)
(0.000580649 0.00701953 0)
(0.000615178 0.00864093 0)
(0.00109986 0.0101985 0)
(0.000937412 0.00953911 0)
(0.00100101 0.00894995 0)
(0.000340609 0.00265117 0)
(0.000160701 0.00123978 0)
(0.000673157 0.0051599 0)
(0.000880999 0.00682789 0)
(0.000728135 0.00617875 0)
(0.000243352 0.0077647 0)
(0.000218956 0.00707725 0)
(0.000463986 0.00867487 0)
(7.23215e-05 0.00293755 0)
(8.65154e-05 0.00312128 0)
(0.000151449 0.00503787 0)
(0.000185481 0.005798 0)
(0.00014756 0.0054996 0)
(0.000122753 0.00458367 0)
(0.000122908 0.0049868 0)
(0.000204543 0.00654613 0)
(0.000176808 0.00691429 0)
(0.000158901 0.00609446 0)
(6.2468e-05 0.00245696 0)
(4.9598e-05 0.00154347 0)
(4.05409e-05 0.00124146 0)
(4.85619e-05 0.00143771 0)
(4.57751e-05 0.00151595 0)
(1.66526e-05 0.000457435 0)
(1.0218e-05 0.000277189 0)
(1.83383e-05 0.000515008 0)
(1.92157e-05 0.000552403 0)
(3.23264e-06 8.51686e-05 0)
(4.51931e-06 0.000120878 0)
(0.000565728 0.00909933 0)
(0.000739372 0.0068812 0)
(0.00084293 0.00813656 0)
(0.000635254 0.00582179 0)
(0.000630296 0.0061853 0)
(0.000102998 0.000860238 0)
(0.000490817 0.00390453 0)
(0.00108583 0.00753918 0)
(0.00126699 0.00929668 0)
(0.0010534 0.00835176 0)
(0.000117949 0.00819623 0)
(0.000163086 0.00764365 0)
(0.000210081 0.00859137 0)
(0.000464713 0.00955057 0)
(0.000380563 0.00962144 0)
(0.000122439 0.00625176 0)
(9.75619e-05 0.00436373 0)
(6.9952e-05 0.00375827 0)
(0.000127353 0.00691446 0)
(0.000116461 0.00549748 0)
(5.42423e-05 0.00207416 0)
(4.7828e-05 0.00208069 0)
(4.27515e-05 0.00172655 0)
(3.61807e-05 0.001236 0)
(3.90292e-05 0.00125699 0)
(4.21941e-05 0.00149278 0)
(1.29079e-05 0.000364774 0)
(9.43906e-06 0.000267033 0)
(1.04072e-05 0.00029088 0)
(7.59794e-06 0.000210629 0)
(4.34012e-06 0.000119691 0)
(7.39615e-06 0.000202364 0)
(2.69505e-05 0.000801508 0)
(2.22896e-05 0.000651657 0)
(2.7385e-05 0.000793011 0)
(2.41314e-05 0.000778712 0)
(2.57139e-05 0.000793826 0)
(3.21058e-05 0.00101136 0)
(0.000616103 0.00997195 0)
(0.000532241 0.00950988 0)
(0.00117384 0.0112959 0)
(0.00108141 0.0115814 0)
(0.00104818 0.0106693 0)
(0.00117735 0.00974907 0)
(0.00126014 0.0109314 0)
(0.000274151 0.00193358 0)
(0.0004906 0.00355355 0)
(0.000450569 0.0029224 0)
(0.000185678 0.0011686 0)
(0.000992097 0.00552383 0)
(0.00130307 0.00679531 0)
(0.00119909 0.00720574 0)
(0.000275287 0.00964728 0)
(0.000303647 0.00880088 0)
(4.35382e-05 0.00256135 0)
(3.84468e-05 0.00285179 0)
(2.7883e-05 0.00212802 0)
(5.74938e-05 0.00252554 0)
(4.0717e-05 0.00422156 0)
(6.2048e-05 0.00485994 0)
(3.67211e-05 0.00498863 0)
(7.25112e-05 0.00442401 0)
(9.23787e-05 0.00727546 0)
(7.99559e-05 0.00642321 0)
(7.67566e-05 0.00557594 0)
(3.50792e-05 0.00159144 0)
(3.00813e-05 0.000996737 0)
(2.38835e-05 0.000897803 0)
(2.72882e-05 0.000959053 0)
(3.27012e-05 0.00119457 0)
(1.01608e-05 0.000291388 0)
(1.48736e-05 0.000426793 0)
(6.90917e-06 0.000194103 0)
(7.25096e-06 0.000195983 0)
(3.79427e-06 0.000103243 0)
(1.95804e-05 0.000591747 0)
(1.36972e-05 0.000412105 0)
(1.61021e-05 0.000472945 0)
(1.14601e-05 0.00036739 0)
(1.85045e-05 0.000582986 0)
(1.63512e-05 0.000538628 0)
(0.000862762 0.0110331 0)
(0.000830023 0.0116061 0)
(0.000737253 0.0105667 0)
(0.0014836 0.0128045 0)
(0.00159724 0.0137917 0)
(0.00144581 0.0136085 0)
(0.00175441 0.0111565 0)
(0.00162033 0.00984897 0)
(0.00182633 0.0105564 0)
(0.000923524 0.00586029 0)
(0.000671189 0.00397315 0)
(0.000296122 0.010593 0)
(0.000210386 0.0101085 0)
(-4.42801e-05 0.00818574 0)
(2.81912e-05 0.00927306 0)
(-0.000101993 0.00927685 0)
(0.000553567 0.010244 0)
(0.000585819 0.0111969 0)
(0.000472376 0.010389 0)
(5.3048e-05 0.00383603 0)
(5.54382e-05 0.00312428 0)
(5.81265e-05 0.00280966 0)
(3.26048e-05 0.00135947 0)
(3.56692e-05 0.00767212 0)
(3.02253e-05 0.00669681 0)
(3.26078e-05 0.00578762 0)
(2.54423e-05 0.00116701 0)
(2.18542e-05 0.000741859 0)
(3.79042e-05 0.00144735 0)
(2.87221e-05 0.00112991 0)
(8.87504e-06 0.000269714 0)
(1.02685e-05 0.000304085 0)
(6.29513e-06 0.000184788 0)
(9.00632e-06 0.000262161 0)
(5.07154e-06 0.000141275 0)
(1.32804e-05 0.00041043 0)
(1.40975e-05 0.000488735 0)
(0.000816754 0.0128141 0)
(0.000898254 0.0124456 0)
(0.000936572 0.0132626 0)
(0.00164216 0.0132162 0)
(0.00178184 0.0130856 0)
(0.00174933 0.0139527 0)
(0.00148969 0.00840476 0)
(0.00176118 0.00947135 0)
(0.000773144 0.00406185 0)
(0.000466577 0.00247862 0)
(0.000363629 0.00212827 0)
(0.00165816 0.00797207 0)
(0.00139319 0.0063478 0)
(0.00165814 0.00665532 0)
(0.000378599 0.0104319 0)
(0.000146155 0.00925222 0)
(0.000113456 0.0101864 0)
(0.000440931 0.0127734 0)
(0.000446309 0.0134395 0)
(0.000322273 0.0130553 0)
(1.52058e-05 0.00438002 0)
(3.55909e-05 0.00208411 0)
(3.5866e-05 0.00183388 0)
(2.58454e-05 0.00133906 0)
(-9.4957e-06 0.00398832 0)
(1.41656e-05 0.00367198 0)
(-0.000151316 0.00820219 0)
(-0.000135076 0.00712559 0)
(-2.07533e-05 0.00597043 0)
(-6.64916e-06 0.00496545 0)
(1.92159e-05 0.0006914 0)
(9.7726e-06 0.000410122 0)
(7.42337e-06 0.000283984 0)
(1.54587e-05 0.000593785 0)
(3.66426e-06 0.000106914 0)
(6.02225e-06 0.000173897 0)
(6.84009e-06 0.000194676 0)
(4.9579e-06 0.000140282 0)
(3.557e-06 0.000101506 0)
(1.57407e-06 4.42877e-05 0)
(4.01477e-06 0.000112739 0)
(3.27857e-06 9.27081e-05 0)
(2.53487e-06 7.05637e-05 0)
(6.94615e-06 0.000247772 0)
(7.75949e-06 0.000260321 0)
(0.00151953 0.0114173 0)
(0.00142452 0.0116997 0)
(0.00136346 0.0106111 0)
(0.00136698 0.00883939 0)
(0.00151343 0.0104603 0)
(0.00213039 0.0134259 0)
(0.00196441 0.0134884 0)
(0.00191171 0.0124629 0)
(0.00192119 0.00930334 0)
(0.000665128 0.00314519 0)
(0.000462183 0.00189811 0)
(0.000878012 0.00369598 0)
(0.000115748 0.0116028 0)
(4.85901e-05 0.010816 0)
(0.000143174 0.0110057 0)
(5.64858e-05 0.00854856 0)
(0.000547084 0.0133291 0)
(0.000530749 0.0140002 0)
(3.2604e-05 0.00335167 0)
(1.13118e-05 0.00288454 0)
(2.23122e-05 0.00254628 0)
(1.60243e-05 0.00141223 0)
(1.49003e-05 0.00183662 0)
(1.33571e-05 0.000970485 0)
(2.45815e-05 0.00154815 0)
(-5.68555e-05 0.00518381 0)
(-4.08818e-05 0.00430062 0)
(-8.68282e-05 0.00609393 0)
(-3.70912e-05 0.00698574 0)
(1.99523e-05 0.000809656 0)
(1.74231e-05 0.000778077 0)
(5.34354e-06 0.000159721 0)
(3.11003e-06 9.17968e-05 0)
(3.51824e-06 0.000107758 0)
(2.08896e-06 5.92068e-05 0)
(2.52688e-06 7.3005e-05 0)
(5.27283e-06 0.000170321 0)
(7.10317e-06 0.000222361 0)
(0.00109099 0.016649 0)
(0.00117896 0.0162813 0)
(0.00123341 0.0169272 0)
(0.0015606 0.0145591 0)
(0.00139571 0.0142412 0)
(0.00229242 0.0182859 0)
(0.00225645 0.0176031 0)
(0.00241581 0.018048 0)
(0.00196817 0.011556 0)
(0.00209564 0.0124741 0)
(0.00201264 0.00849327 0)
(0.00212018 0.00988278 0)
(0.000318524 0.00152742 0)
(0.00150754 0.00489381 0)
(0.00124549 0.00501761 0)
(-6.95247e-05 0.0134394 0)
(-0.000241846 0.0131314 0)
(-0.000183281 0.012442 0)
(-2.92845e-07 0.0100377 0)
(0.000621939 0.0168369 0)
(0.000659456 0.0162534 0)
(0.000772004 0.0168745 0)
(8.36503e-06 0.00213853 0)
(-3.36534e-06 0.00234062 0)
(-6.6051e-07 0.0015757 0)
(-1.9824e-05 0.00253121 0)
(-6.28146e-06 0.00314565 0)
(1.69328e-05 0.000855357 0)
(1.64655e-05 0.000970835 0)
(-3.03319e-05 0.00340179 0)
(-0.000159014 0.00595629 0)
(-0.000227554 0.00556398 0)
(-0.00016012 0.00500207 0)
(8.31985e-06 0.000466501 0)
(8.59703e-06 0.000413102 0)
(1.26071e-05 0.000460411 0)
(7.36443e-07 2.08597e-05 0)
(1.48543e-06 4.25834e-05 0)
(1.24661e-06 3.54914e-05 0)
(0.00175044 0.0189935 0)
(0.00163299 0.0183636 0)
(0.00176228 0.0182613 0)
(0.00191283 0.0141303 0)
(0.00208711 0.0142748 0)
(0.00252272 0.0113712 0)
(0.00242649 0.0123119 0)
(0.00227473 0.011012 0)
(0.00234265 0.0099057 0)
(0.000898231 0.00314633 0)
(0.00104703 0.00500554 0)
(-0.000431971 0.0110301 0)
(-0.00027185 0.0114561 0)
(-0.000373631 0.0121869 0)
(-0.000330037 0.0103859 0)
(-0.000475672 0.00991606 0)
(-0.000363805 0.00912171 0)
(-0.000329347 0.00799311 0)
(-0.000235228 0.00869391 0)
(0.00101021 0.0170549 0)
(0.000914665 0.0174836 0)
(0.000887674 0.016815 0)
(6.20789e-06 0.00152705 0)
(-2.42384e-05 0.00182462 0)
(-1.07034e-05 0.00167388 0)
(7.90942e-06 0.00114913 0)
(7.57133e-06 0.000744271 0)
(8.81897e-06 0.000576694 0)
(-4.23777e-05 0.00273687 0)
(-7.32911e-05 0.00293997 0)
(-4.14169e-05 0.00194245 0)
(-0.000238854 0.00756395 0)
(-0.000112654 0.0040911 0)
(-0.000183507 0.00419515 0)
(-0.000112753 0.00304098 0)
(0.00174855 0.0168244 0)
(0.00189252 0.0166087 0)
(0.00189474 0.0173442 0)
(0.0027879 0.011941 0)
(0.0026426 0.0105092 0)
(0.00209498 0.00417483 0)
(0.00193869 0.00533031 0)
(0.00158113 0.00385562 0)
(0.00307326 0.00938352 0)
(0.00313153 0.00798107 0)
(0.00332938 0.00940248 0)
(0.00041058 0.00140768 0)
(0.00107863 0.0029618 0)
(-0.000180271 0.0146662 0)
(-0.000248753 0.01386 0)
(-0.000107657 0.0141686 0)
(-9.15738e-05 0.0153475 0)
(-5.3305e-06 0.0149738 0)
(1.6891e-06 0.000916021 0)
(-3.55867e-06 0.000841836 0)
(-1.01236e-05 0.000909532 0)
(2.57617e-06 0.000457019 0)
(5.97858e-06 0.000462966 0)
(-0.000609606 0.00570149 0)
(-0.000418353 0.00539274 0)
(-0.000515639 0.00681637 0)
(-0.000287145 0.00493253 0)
(-0.000224783 0.00371761 0)
(0.000770379 0.0222746 0)
(0.000759891 0.022774 0)
(0.000611722 0.0223677 0)
(0.0016575 0.0205327 0)
(0.00164857 0.02112 0)
(0.00151236 0.0206787 0)
(0.00387564 0.0168218 0)
(0.00407927 0.0162014 0)
(0.00407875 0.0172565 0)
(0.00277291 0.00936424 0)
(0.00266666 0.00785963 0)
(0.00289472 0.00834771 0)
(0.00263468 0.00531749 0)
(0.00238676 0.00643326 0)
(0.00301829 0.0062105 0)
(0.00279389 0.00703493 0)
(0.000610277 0.00180674 0)
(0.0011941 0.00254072 0)
(0.00157715 0.00283811 0)
(-0.000696787 0.0128892 0)
(-0.000912784 0.0124061 0)
(-0.000818697 0.0117777 0)
(-0.000167477 0.0136556 0)
(0.000498226 0.0240204 0)
(0.00030661 0.0235337 0)
(0.000472324 0.0234594 0)
(-3.59025e-05 0.000984477 0)
(-6.25768e-05 0.00199652 0)
(-8.44326e-05 0.00193427 0)
(-1.98039e-05 0.00112111 0)
(-0.000222444 0.00659841 0)
(-0.000339889 0.00660618 0)
(-0.000594371 0.0080961 0)
(-0.000444116 0.0079179 0)
(-0.000149546 0.00286715 0)
(0.00277923 0.022812 0)
(0.00293158 0.0233003 0)
(0.0027139 0.0235133 0)
(0.00313873 0.0215591 0)
(0.00335861 0.021042 0)
(0.00330276 0.0218287 0)
(0.00458991 0.00754623 0)
(0.00444447 0.00875791 0)
(0.00434655 0.00736505 0)
(0.00289844 0.00470381 0)
(0.00254525 0.0031938 0)
(0.000631298 0.00140832 0)
(0.000483252 0.000723819 0)
(0.00182422 0.00191673 0)
(-0.00123591 0.0146708 0)
(-0.00143215 0.0142038 0)
(-0.00139949 0.0135494 0)
(-0.00151088 0.00908198 0)
(-0.00128435 0.00955997 0)
(-0.00141436 0.0102806 0)
(-0.00036357 0.0185377 0)
(-0.000519808 0.018486 0)
(-0.000525063 0.0180078 0)
(0.00160972 0.0243028 0)
(0.00137734 0.0243883 0)
(0.00142659 0.0238669 0)
(-0.000163816 0.0189113 0)
(-0.000247813 0.018142 0)
(-3.73629e-05 0.0186089 0)
(-2.53718e-05 0.000994742 0)
(-0.000356225 0.00265061 0)
(-0.000429951 0.0041362 0)
(-0.00057973 0.00414623 0)
(-0.000985675 0.00551232 0)
(-0.00100887 0.00408751 0)
(-0.000757209 0.00405222 0)
(-9.19446e-05 0.00158495 0)
(-0.000181823 0.00250777 0)
(0.00140026 0.0263733 0)
(0.0014136 0.0259538 0)
(0.00156645 0.0263159 0)
(0.00475111 0.0240762 0)
(0.00471207 0.0234753 0)
(0.00490024 0.0234847 0)
(0.0050803 0.0132897 0)
(0.004946 0.0147119 0)
(0.00486173 0.0133794 0)
(0.0055388 0.0186432 0)
(0.00564088 0.0175906 0)
(0.00578471 0.0179442 0)
(0.0024978 -0.00197961 0)
(0.00235803 0.000549833 0)
(0.00200437 -0.00131407 0)
(0.00291867 0.00192436 0)
(0.00333702 0.00322121 0)
(0.0029991 0.00363978 0)
(0.00109826 0.00155652 0)
(0.000647871 0.000401095 0)
(0.00128129 0.000760093 0)
(-0.00245963 0.00785409 0)
(-0.00241247 0.00887513 0)
(-0.00260195 0.00827854 0)
(-0.00135419 0.00824978 0)
(-0.000174071 0.0253051 0)
(-1.93792e-05 0.025787 0)
(-0.000242563 0.0256323 0)
(-0.00228826 0.0190372 0)
(-0.00202798 0.0200496 0)
(-0.00223634 0.0198691 0)
(-4.41199e-05 0.000918498 0)
(-0.000269098 0.00274687 0)
(-0.000765477 0.00526008 0)
(-0.000124999 0.00136641 0)
(-8.07878e-05 0.00110766 0)
(0.00302269 0.0272034 0)
(0.00306688 0.0276571 0)
(0.00288309 0.0275469 0)
(0.00450184 0.0194445 0)
(0.00468176 0.019498 0)
(0.00451756 0.0201704 0)
(0.00430748 0.0288031 0)
(0.00419956 0.0285699 0)
(0.00434629 0.0283154 0)
(0.00473343 0.0100774 0)
(0.00491258 0.00909435 0)
(0.00489157 0.0108801 0)
(0.00606835 0.00244907 0)
(0.00626003 0.00129981 0)
(0.00630471 0.00324848 0)
(0.00359146 0.00223777 0)
(0.00366126 0.000666176 0)
(0.00392124 0.00236034 0)
(0.00168161 3.90768e-05 0)
(0.00361183 -0.0073802 0)
(0.00392435 -0.00568335 0)
(0.00364695 -0.00520376 0)
(0.00105722 -0.000246622 0)
(-0.00103964 0.0157024 0)
(-0.00114788 0.0161236 0)
(-0.00123149 0.0153932 0)
(-0.00189124 0.0113968 0)
(-0.0020074 0.012085 0)
(-0.00210239 0.0109418 0)
(-0.0022409 0.00383157 0)
(-0.00222712 0.00514914 0)
(-0.00251195 0.0043541 0)
(-0.00202658 0.0172301 0)
(-0.00224838 0.0160773 0)
(-0.0020457 0.0165007 0)
(-0.0010297 0.0252661 0)
(-0.000823712 0.0253215 0)
(-0.000798397 0.0258207 0)
(-0.000283077 0.0015122 0)
(-0.000165629 0.00118213 0)
(-0.000525255 0.00297399 0)
(-0.000635398 0.00244819 0)
(-0.00128963 0.00409114 0)
(-0.00160147 0.00464845 0)
(-0.00146273 0.00313647 0)
(-0.00018597 0.00162183 0)
(0.000996432 0.0290372 0)
(0.00107604 0.0287627 0)
(0.00118778 0.0291746 0)
(0.00411997 0.0293228 0)
(0.00401949 0.0298009 0)
(0.00390416 0.0296058 0)
(0.00685069 0.0241435 0)
(0.00699925 0.0237499 0)
(0.00687273 0.0244349 0)
(0.00427584 0.027775 0)
(0.00445946 0.0275034 0)
(0.00435815 0.0279496 0)
(0.00752321 0.0157683 0)
(0.00739524 0.0157762 0)
(0.00751577 0.0148645 0)
(0.00690414 0.0114306 0)
(0.00694755 0.00995867 0)
(0.00705156 0.0102775 0)
(0.00193465 -0.00368418 0)
(0.00181678 -0.0062637 0)