/*--------------------------------*- C++ -*----------------------------------*\
| =========                 |                                                 |
| \\      /  F ield         | OpenFOAM: The Open Source CFD Toolbox           |
|  \\    /   O peration     | Version:  v2012                                 |
|   \\  /    A nd           | Website:  www.openfoam.com                      |
|    \\/     M anipulation  |                                                 |
\*---------------------------------------------------------------------------*/
FoamFile
{
    version     2.0;
    format      ascii;
    class       volScalarField;
    location    "1.3";
    object      rAU;
}
// * * * * * * * * * * * * * * * * * * * * * * * * * * * * * * * * * * * * * //

dimensions      [-1 3 1 0 0 0 0];


internalField   nonuniform List<scalar> 
13611
(
2.1656e-08
2.16144e-08
2.1633e-08
2.16291e-08
2.16307e-08
2.16561e-08
2.16348e-08
2.16454e-08
2.16558e-08
2.16225e-08
2.16495e-08
2.16429e-08
2.16009e-08
2.1646e-08
2.16494e-08
2.16128e-08
2.16483e-08
2.16558e-08
2.16438e-08
2.16544e-08
2.16399e-08
2.16069e-08
2.16559e-08
2.16486e-08
2.16107e-08
2.16468e-08
2.16527e-08
2.16324e-08
2.16545e-08
2.16398e-08
2.16272e-08
2.16424e-08
2.16414e-08
2.16113e-08
2.16441e-08
2.16461e-08
2.16521e-08
2.16555e-08
2.16329e-08
2.1648e-08
2.16371e-08
2.16119e-08
2.15909e-08
2.16386e-08
2.16441e-08
2.16559e-08
2.16113e-08
2.16439e-08
2.16485e-08
2.16342e-08
2.1647e-08
2.16334e-08
2.16481e-08
2.16388e-08
2.16396e-08
2.16507e-08
2.15937e-08
2.16111e-08
2.1623e-08
2.16464e-08
2.16465e-08
2.16474e-08
2.16347e-08
2.16489e-08
2.16483e-08
2.16554e-08
2.16341e-08
2.16501e-08
2.16392e-08
2.16394e-08
2.16542e-08
2.16242e-08
2.16207e-08
2.16453e-08
2.16562e-08
2.16459e-08
2.16477e-08
2.16347e-08
2.16224e-08
2.1616e-08
2.16516e-08
2.16404e-08
2.16501e-08
2.16385e-08
2.16411e-08
2.16127e-08
2.161e-08
2.16521e-08
2.16377e-08
2.16184e-08
2.16435e-08
2.1644e-08
2.1655e-08
2.1637e-08
2.16184e-08
2.16013e-08
2.16317e-08
2.1653e-08
2.1655e-08
2.1641e-08
2.16014e-08
2.16416e-08
2.16424e-08
2.16215e-08
2.15975e-08
2.15871e-08
2.16507e-08
2.16372e-08
2.1621e-08
2.16403e-08
2.16558e-08
2.16465e-08
2.16527e-08
2.16307e-08
2.16398e-08
2.15942e-08
2.16286e-08
2.16336e-08
2.16482e-08
2.16477e-08
2.16042e-08
2.16086e-08
2.16376e-08
2.16192e-08
2.16104e-08
2.16267e-08
2.1625e-08
2.16549e-08
2.16474e-08
2.16257e-08
2.16077e-08
2.16292e-08
2.1618e-08
2.1606e-08
2.16355e-08
2.16392e-08
2.16176e-08
2.16484e-08
2.16336e-08
2.16546e-08
2.16488e-08
2.16103e-08
2.16402e-08
2.16356e-08
2.16292e-08
2.16296e-08
2.16307e-08
2.16324e-08
2.16551e-08
2.16438e-08
2.16295e-08
2.1626e-08
2.1629e-08
2.1638e-08
2.16293e-08
2.16153e-08
2.16434e-08
2.16257e-08
2.16443e-08
2.16302e-08
2.16276e-08
2.16479e-08
2.16517e-08
2.16016e-08
2.16397e-08
2.16431e-08
2.16417e-08
2.164e-08
2.16348e-08
2.16261e-08
2.16069e-08
2.16449e-08
2.16144e-08
2.16325e-08
2.16222e-08
2.16268e-08
2.1653e-08
2.16192e-08
2.16226e-08
2.15999e-08
2.16482e-08
2.16385e-08
2.1631e-08
2.16264e-08
2.16486e-08
2.16307e-08
2.16545e-08
2.16509e-08
2.16349e-08
2.16208e-08
2.16451e-08
2.16316e-08
2.16279e-08
2.16292e-08
2.16232e-08
2.16072e-08
2.16446e-08
2.16353e-08
2.16434e-08
2.16247e-08
2.16315e-08
2.1619e-08
2.16298e-08
2.16323e-08
2.16416e-08
2.16382e-08
2.16105e-08
2.16279e-08
2.16446e-08
2.16149e-08
2.16428e-08
2.16244e-08
2.16278e-08
2.16399e-08
2.16431e-08
2.16122e-08
2.16406e-08
2.1629e-08
2.1606e-08
2.16281e-08
2.16491e-08
2.16443e-08
2.16513e-08
2.16212e-08
2.1634e-08
2.16311e-08
2.16348e-08
2.16334e-08
2.16502e-08
2.1613e-08
2.16446e-08
2.1632e-08
2.16344e-08
2.16187e-08
2.16409e-08
2.1648e-08
2.16398e-08
2.16135e-08
2.16544e-08
2.1636e-08
2.16283e-08
2.16276e-08
2.16289e-08
2.16426e-08
2.16417e-08
2.16335e-08
2.16291e-08
2.16336e-08
2.16252e-08
2.16462e-08
2.16468e-08
2.16515e-08
2.16322e-08
2.16328e-08
2.16301e-08
2.16349e-08
2.16287e-08
2.16164e-08
2.16395e-08
2.16439e-08
2.16423e-08
2.1645e-08
2.16314e-08
2.16341e-08
2.16324e-08
2.16293e-08
2.16423e-08
2.16509e-08
2.1609e-08
2.16207e-08
2.16064e-08
2.16219e-08
2.16269e-08
2.16182e-08
2.16065e-08
2.16408e-08
2.16027e-08
2.16052e-08
2.16477e-08
2.16347e-08
2.16412e-08
2.16306e-08
2.16212e-08
2.16068e-08
2.16359e-08
2.16134e-08
2.16438e-08
2.16362e-08
2.16355e-08
2.16234e-08
2.16506e-08
2.16041e-08
2.16215e-08
2.16457e-08
2.16461e-08
2.16317e-08
2.1629e-08
2.16423e-08
2.1652e-08
2.16183e-08
2.16289e-08
2.16265e-08
2.16357e-08
2.16407e-08
2.16266e-08
2.15956e-08
2.16186e-08
2.16399e-08
2.16042e-08
2.16465e-08
2.16425e-08
2.16414e-08
2.16285e-08
2.16244e-08
2.16214e-08
2.16362e-08
2.16205e-08
2.16106e-08
2.1633e-08
2.16152e-08
2.16371e-08
2.16258e-08
2.16278e-08
2.16142e-08
2.16321e-08
2.16285e-08
2.16261e-08
2.16393e-08
2.16553e-08
2.16348e-08
2.16405e-08
2.16288e-08
2.16447e-08
2.16288e-08
2.16548e-08
2.1624e-08
2.16211e-08
2.16401e-08
2.1632e-08
2.16403e-08
2.16322e-08
2.16443e-08
2.16341e-08
2.16305e-08
2.16423e-08
2.16325e-08
2.16213e-08
2.16243e-08
2.16188e-08
2.16363e-08
2.16467e-08
2.16098e-08
2.16279e-08
2.1619e-08
2.16563e-08
2.16324e-08
2.16159e-08
2.16406e-08
2.16083e-08
2.1615e-08
2.16291e-08
2.16125e-08
2.16271e-08
2.16242e-08
2.16552e-08
2.16406e-08
2.16339e-08
2.16235e-08
2.16073e-08
2.16444e-08
2.15965e-08
2.16454e-08
2.1633e-08
2.1613e-08
2.16082e-08
2.16263e-08
2.16177e-08
2.16433e-08
2.1621e-08
2.1632e-08
2.16341e-08
2.16316e-08
2.16231e-08
2.16334e-08
2.16288e-08
2.16269e-08
2.16044e-08
2.16374e-08
2.16491e-08
2.16053e-08
2.16188e-08
2.16571e-08
2.16159e-08
2.16325e-08
2.16294e-08
2.16519e-08
2.16336e-08
2.16329e-08
2.16344e-08
2.16307e-08
2.16192e-08
2.163e-08
2.16285e-08
2.16382e-08
2.16363e-08
2.16412e-08
2.16006e-08
2.16235e-08
2.1624e-08
2.16443e-08
2.16549e-08
2.16288e-08
2.16326e-08
2.16379e-08
2.16289e-08
2.16046e-08
2.16136e-08
2.1624e-08
2.16253e-08
2.1618e-08
2.16078e-08
2.1628e-08
2.16228e-08
2.15997e-08
2.1628e-08
2.16235e-08
2.16272e-08
2.1639e-08
2.16367e-08
2.164e-08
2.16342e-08
2.16268e-08
2.16276e-08
2.1635e-08
2.16483e-08
2.16107e-08
2.16316e-08
2.16342e-08
2.16418e-08
2.16382e-08
2.1626e-08
2.16454e-08
2.16394e-08
2.16405e-08
2.16341e-08
2.16334e-08
2.16139e-08
2.16144e-08
2.161e-08
2.16437e-08
2.16367e-08
2.16358e-08
2.16391e-08
2.16305e-08
2.16287e-08
2.1626e-08
2.1611e-08
2.16277e-08
2.16276e-08
2.16327e-08
2.16205e-08
2.16265e-08
2.16264e-08
2.16405e-08
2.16313e-08
2.16415e-08
2.16141e-08
2.16279e-08
2.16162e-08
2.16336e-08
2.16349e-08
2.16223e-08
2.1634e-08
2.1624e-08
2.16324e-08
2.16423e-08
2.1629e-08
2.16366e-08
2.16351e-08
2.16361e-08
2.16146e-08
2.16363e-08
2.1635e-08
2.16427e-08
2.16187e-08
2.15965e-08
2.16467e-08
2.1655e-08
2.16365e-08
2.16344e-08
2.16507e-08
2.16602e-08
2.16301e-08
2.1641e-08
2.16269e-08
2.16199e-08
2.16268e-08
2.16298e-08
2.16321e-08
2.16284e-08
2.16304e-08
2.16324e-08
2.1615e-08
2.1641e-08
2.16333e-08
2.16397e-08
2.16302e-08
2.16436e-08
2.16333e-08
2.16302e-08
2.16151e-08
2.16079e-08
2.16101e-08
2.16376e-08
2.1632e-08
2.16427e-08
2.1606e-08
2.16219e-08
2.16301e-08
2.16425e-08
2.16152e-08
2.16355e-08
2.16488e-08
2.16363e-08
2.164e-08
2.16347e-08
2.16391e-08
2.16214e-08
2.16217e-08
2.16493e-08
2.16501e-08
2.16296e-08
2.16503e-08
2.16602e-08
2.16255e-08
2.16326e-08
2.16126e-08
2.16196e-08
2.1638e-08
2.16327e-08
2.16289e-08
2.16286e-08
2.16294e-08
2.16484e-08
2.16384e-08
2.16297e-08
2.16346e-08
2.16475e-08
2.1628e-08
2.16267e-08
2.16074e-08
2.16328e-08
2.16173e-08
2.16078e-08
2.16111e-08
2.16163e-08
2.16254e-08
2.16246e-08
2.16458e-08
2.16255e-08
2.16393e-08
2.16263e-08
2.16291e-08
2.16188e-08
2.16316e-08
2.16313e-08
2.16119e-08
2.16186e-08
2.16111e-08
2.16549e-08
2.16497e-08
2.16441e-08
2.1643e-08
2.16143e-08
2.1612e-08
2.16394e-08
2.16285e-08
2.16102e-08
2.16335e-08
2.16397e-08
2.16083e-08
2.1644e-08
2.1638e-08
2.16313e-08
2.16275e-08
2.16273e-08
2.16449e-08
2.16299e-08
2.16189e-08
2.16224e-08
2.16283e-08
2.16296e-08
2.16249e-08
2.16341e-08
2.16352e-08
2.162e-08
2.16454e-08
2.16145e-08
2.15765e-08
2.1614e-08
2.16058e-08
2.16251e-08
2.16094e-08
2.16335e-08
2.16273e-08
2.16257e-08
2.16232e-08
2.16313e-08
2.16211e-08
2.16103e-08
2.1614e-08
2.16406e-08
2.16225e-08
2.16487e-08
2.16394e-08
2.16318e-08
2.1634e-08
2.16195e-08
2.16524e-08
2.16232e-08
2.1645e-08
2.16437e-08
2.16146e-08
2.16251e-08
2.16372e-08
2.16272e-08
2.16324e-08
2.16373e-08
2.16477e-08
2.16344e-08
2.16379e-08
2.16337e-08
2.163e-08
2.16202e-08
2.16333e-08
2.16096e-08
2.1629e-08
2.16215e-08
2.16214e-08
2.16265e-08
2.16188e-08
2.16246e-08
2.16314e-08
2.16202e-08
2.16402e-08
2.16192e-08
2.16025e-08
2.16131e-08
2.15742e-08
2.15742e-08
2.16011e-08
2.159e-08
2.16024e-08
2.15941e-08
2.16096e-08
2.16255e-08
2.16062e-08
2.16289e-08
2.16456e-08
2.16426e-08
2.16423e-08
2.16015e-08
2.16417e-08
2.16258e-08
2.16298e-08
2.16212e-08
2.16303e-08
2.16549e-08
2.16531e-08
2.16445e-08
2.16286e-08
2.16328e-08
2.1634e-08
2.16449e-08
2.16008e-08
2.16451e-08
2.16469e-08
2.16353e-08
2.16405e-08
2.16312e-08
2.16305e-08
2.16321e-08
2.16261e-08
2.16142e-08
2.16278e-08
2.16189e-08
2.16271e-08
2.1643e-08
2.16053e-08
2.1612e-08
2.16135e-08
2.16295e-08
2.16266e-08
2.16178e-08
2.16258e-08
2.16451e-08
2.16126e-08
2.1612e-08
2.15947e-08
2.1598e-08
2.16181e-08
2.15893e-08
2.15818e-08
2.16147e-08
2.16076e-08
2.16062e-08
2.16145e-08
2.16248e-08
2.16149e-08
2.16248e-08
2.1634e-08
2.16277e-08
2.16466e-08
2.16319e-08
2.16074e-08
2.16437e-08
2.16482e-08
2.16225e-08
2.16345e-08
2.16347e-08
2.16295e-08
2.16512e-08
2.16041e-08
2.16474e-08
2.16139e-08
2.16419e-08
2.16382e-08
2.16376e-08
2.1633e-08
2.16292e-08
2.16311e-08
2.16341e-08
2.16316e-08
2.16316e-08
2.16142e-08
2.16257e-08
2.16365e-08
2.16299e-08
2.16125e-08
2.16042e-08
2.16097e-08
2.16337e-08
2.16009e-08
2.16402e-08
2.16129e-08
2.16426e-08
2.16019e-08
2.15986e-08
2.15997e-08
2.16101e-08
2.15893e-08
2.16102e-08
2.16228e-08
2.15883e-08
2.15928e-08
2.16161e-08
2.16315e-08
2.16316e-08
2.16364e-08
2.16399e-08
2.16333e-08
2.16412e-08
2.16283e-08
2.16486e-08
2.16339e-08
2.16266e-08
2.16445e-08
2.16467e-08
2.16316e-08
2.16547e-08
2.1636e-08
2.16082e-08
2.16357e-08
2.16347e-08
2.16453e-08
2.16374e-08
2.16454e-08
2.16282e-08
2.16436e-08
2.1624e-08
2.16083e-08
2.16207e-08
2.16338e-08
2.16436e-08
2.16183e-08
2.16284e-08
2.1631e-08
2.16378e-08
2.16477e-08
2.16324e-08
2.16287e-08
2.16441e-08
2.16442e-08
2.15864e-08
2.1611e-08
2.16427e-08
2.16195e-08
2.16248e-08
2.1591e-08
2.16376e-08
2.16236e-08
2.16411e-08
2.16075e-08
2.15997e-08
2.15878e-08
2.15851e-08
2.15761e-08
2.16275e-08
2.16124e-08
2.1586e-08
2.15578e-08
2.16041e-08
2.16122e-08
2.16314e-08
2.16292e-08
2.16142e-08
2.16287e-08
2.16472e-08
2.16274e-08
2.16194e-08
2.16272e-08
2.16228e-08
2.16403e-08
2.16353e-08
2.16178e-08
2.16312e-08
2.16293e-08
2.16263e-08
2.16341e-08
2.1636e-08
2.16382e-08
2.1641e-08
2.16225e-08
2.16422e-08
2.16382e-08
2.16259e-08
2.16234e-08
2.16468e-08
2.16476e-08
2.16306e-08
2.1639e-08
2.16376e-08
2.16331e-08
2.16469e-08
2.16445e-08
2.16273e-08
2.16444e-08
2.16396e-08
2.15628e-08
2.15988e-08
2.15558e-08
2.16115e-08
2.16221e-08
2.15745e-08
2.15812e-08
2.16013e-08
2.16421e-08
2.1586e-08
2.1568e-08
2.1571e-08
2.15888e-08
2.15498e-08
2.15759e-08
2.15813e-08
2.16258e-08
2.1567e-08
2.1585e-08
2.15758e-08
2.15978e-08
2.16249e-08
2.16386e-08
2.16372e-08
2.16368e-08
2.16344e-08
2.16468e-08
2.16223e-08
2.16121e-08
2.16461e-08
2.16331e-08
2.1639e-08
2.16347e-08
2.16307e-08
2.16213e-08
2.16235e-08
2.16436e-08
2.16324e-08
2.16405e-08
2.15908e-08
2.16114e-08
2.16149e-08
2.16387e-08
2.1642e-08
2.16341e-08
2.16274e-08
2.16378e-08
2.1632e-08
2.16324e-08
2.16336e-08
2.16235e-08
2.16157e-08
2.1616e-08
2.16029e-08
2.16411e-08
2.16018e-08
2.16016e-08
2.16496e-08
2.15668e-08
2.1588e-08
2.15864e-08
2.16443e-08
2.16277e-08
2.15794e-08
2.16135e-08
2.15762e-08
2.16441e-08
2.16375e-08
2.16252e-08
2.15889e-08
2.15708e-08
2.15557e-08
2.15569e-08
2.1585e-08
2.15303e-08
2.15437e-08
2.15616e-08
2.15843e-08
2.15748e-08
2.15941e-08
2.15881e-08
2.16297e-08
2.16244e-08
2.16411e-08
2.16351e-08
2.16338e-08
2.16231e-08
2.16106e-08
2.16222e-08
2.16397e-08
2.16412e-08
2.16389e-08
2.16331e-08
2.16374e-08
2.15745e-08
2.16448e-08
2.16448e-08
2.16308e-08
2.16275e-08
2.16366e-08
2.16239e-08
2.1625e-08
2.16415e-08
2.16035e-08
2.162e-08
2.16357e-08
2.16181e-08
2.1631e-08
2.16347e-08
2.16175e-08
2.16531e-08
2.1634e-08
2.16491e-08
2.16301e-08
2.16405e-08
2.16515e-08
2.16032e-08
2.16282e-08
2.16223e-08
2.16431e-08
2.15738e-08
2.15862e-08
2.15908e-08
2.16292e-08
2.16297e-08
2.15398e-08
2.15538e-08
2.15706e-08
2.16395e-08
2.16305e-08
2.16407e-08
2.15271e-08
2.15517e-08
2.1547e-08
2.15443e-08
2.15511e-08
2.15329e-08
2.15731e-08
2.15606e-08
2.1567e-08
2.1542e-08
2.15721e-08
2.16005e-08
2.15874e-08
2.16458e-08
2.16261e-08
2.16366e-08
2.16347e-08
2.1627e-08
2.16259e-08
2.16274e-08
2.1628e-08
2.16435e-08
2.16312e-08
2.164e-08
2.15714e-08
2.16471e-08
2.16097e-08
2.16083e-08
2.16343e-08
2.16203e-08
2.1589e-08
2.16362e-08
2.16314e-08
2.16365e-08
2.16356e-08
2.1599e-08
2.16474e-08
2.16312e-08
2.163e-08
2.16342e-08
2.16526e-08
2.16444e-08
2.16497e-08
2.161e-08
2.16504e-08
2.16429e-08
2.16278e-08
2.16442e-08
2.1632e-08
2.16508e-08
2.15735e-08
2.15375e-08
2.15547e-08
2.16034e-08
2.16003e-08
2.15812e-08
2.15598e-08
2.15719e-08
2.15678e-08
2.16312e-08
2.1615e-08
2.16361e-08
2.161e-08
2.15368e-08
2.1542e-08
2.1547e-08
2.15537e-08
2.15428e-08
2.15715e-08
2.15326e-08
2.15326e-08
2.15846e-08
2.15622e-08
2.15931e-08
2.15576e-08
2.15921e-08
2.16027e-08
2.16497e-08
2.16412e-08
2.16483e-08
2.16439e-08
2.16449e-08
2.16349e-08
2.16447e-08
2.1623e-08
2.1657e-08
2.16584e-08
2.16173e-08
2.16525e-08
2.16239e-08
2.16348e-08
2.16385e-08
2.16189e-08
2.15597e-08
2.16112e-08
2.16358e-08
2.1643e-08
2.1632e-08
2.16372e-08
2.16449e-08
2.16503e-08
2.16363e-08
2.16387e-08
2.16295e-08
2.16267e-08
2.16245e-08
2.16295e-08
2.16424e-08
2.16198e-08
2.16231e-08
2.1644e-08
2.16476e-08
2.16354e-08
2.16548e-08
2.15066e-08
2.15639e-08
2.15542e-08
2.15499e-08
2.16251e-08
2.15737e-08
2.15685e-08
2.15693e-08
2.15513e-08
2.15242e-08
2.16416e-08
2.1601e-08
2.16354e-08
2.16417e-08
2.16382e-08
2.15323e-08
2.14977e-08
2.15529e-08
2.15301e-08
2.15184e-08
2.15486e-08
2.15418e-08
2.15204e-08
2.15314e-08
2.15487e-08
2.15548e-08
2.15861e-08
2.15154e-08
2.15911e-08
2.15905e-08
2.16389e-08
2.16481e-08
2.16409e-08
2.16334e-08
2.16352e-08
2.16487e-08
2.16356e-08
2.16456e-08
2.162e-08
2.16381e-08
2.16495e-08
2.16142e-08
2.16463e-08
2.16414e-08
2.16467e-08
2.16107e-08
2.15891e-08
2.16181e-08
2.16032e-08
2.16405e-08
2.16359e-08
2.16121e-08
2.16355e-08
2.16095e-08
2.16366e-08
2.1634e-08
2.16332e-08
2.16389e-08
2.16278e-08
2.16082e-08
2.16202e-08
2.16383e-08
2.16359e-08
2.16536e-08
2.16274e-08
2.16339e-08
2.1642e-08
2.16212e-08
2.1525e-08
2.15324e-08
2.15184e-08
2.15172e-08
2.16199e-08
2.16331e-08
2.15718e-08
2.15578e-08
2.15547e-08
2.15523e-08
2.15462e-08
2.16084e-08
2.16135e-08
2.16468e-08
2.16206e-08
2.15284e-08
2.14736e-08
2.15339e-08
2.1524e-08
2.15433e-08
2.15215e-08
2.14882e-08
2.15146e-08
2.15507e-08
2.15407e-08
2.15518e-08
2.15957e-08
2.1517e-08
2.15855e-08
2.1637e-08
2.16358e-08
2.1646e-08
2.16189e-08
2.16349e-08
2.16299e-08
2.16176e-08
2.16344e-08
2.16409e-08
2.1644e-08
2.1634e-08
2.16441e-08
2.16417e-08
2.16456e-08
2.15832e-08
2.15817e-08
2.1616e-08
2.15975e-08
2.16414e-08
2.16338e-08
2.16313e-08
2.16072e-08
2.16402e-08
2.16118e-08
2.16102e-08
2.16292e-08
2.16396e-08
2.16403e-08
2.1644e-08
2.16456e-08
2.16369e-08
2.16479e-08
2.16525e-08
2.16399e-08
2.16334e-08
2.16132e-08
2.16451e-08
2.16279e-08
2.15218e-08
2.1538e-08
2.15229e-08
2.14736e-08
2.15498e-08
2.16209e-08
2.15247e-08
2.15696e-08
2.15423e-08
2.15133e-08
2.1528e-08
2.16145e-08
2.16306e-08
2.16414e-08
2.164e-08
2.14864e-08
2.1545e-08
2.14651e-08
2.1469e-08
2.14933e-08
2.15228e-08
2.15034e-08
2.15538e-08
2.15306e-08
2.15332e-08
2.15541e-08
2.15288e-08
2.15443e-08
2.15966e-08
2.15207e-08
2.15858e-08
2.16335e-08
2.16155e-08
2.16361e-08
2.1646e-08
2.16034e-08
2.16145e-08
2.16446e-08
2.16305e-08
2.16491e-08
2.16377e-08
2.16477e-08
2.16334e-08
2.16365e-08
2.16451e-08
2.16122e-08
2.164e-08
2.1621e-08
2.15888e-08
2.16346e-08
2.15886e-08
2.16447e-08
2.1644e-08
2.16403e-08
2.16467e-08
2.16296e-08
2.16171e-08
2.16416e-08
2.16405e-08
2.16402e-08
2.16427e-08
2.16435e-08
2.16372e-08
2.16417e-08
2.16446e-08
2.16145e-08
2.16384e-08
2.16323e-08
2.16342e-08
2.16341e-08
2.16352e-08
2.1514e-08
2.14901e-08
2.15125e-08
2.15215e-08
2.14884e-08
2.15431e-08
2.15264e-08
2.16259e-08
2.16136e-08
2.15621e-08
2.15326e-08
2.14454e-08
2.15153e-08
2.15004e-08
2.16232e-08
2.16362e-08
2.16332e-08
2.16093e-08
2.15038e-08
2.15417e-08
2.14984e-08
2.14968e-08
2.14805e-08
2.14892e-08
2.14989e-08
2.15532e-08
2.15075e-08
2.14972e-08
2.15443e-08
2.15097e-08
2.15084e-08
2.15563e-08
2.15537e-08
2.15842e-08
2.16061e-08
2.16331e-08
2.16536e-08
2.15775e-08
2.16267e-08
2.16375e-08
2.16441e-08
2.16479e-08
2.16259e-08
2.16444e-08
2.16135e-08
2.16356e-08
2.16426e-08
2.16338e-08
2.16217e-08
2.16268e-08
2.15875e-08
2.15839e-08
2.1601e-08
2.16363e-08
2.16357e-08
2.16241e-08
2.16442e-08
2.16292e-08
2.16249e-08
2.16375e-08
2.16455e-08
2.16215e-08
2.16299e-08
2.16369e-08
2.16443e-08
2.16407e-08
2.16349e-08
2.16451e-08
2.16301e-08
2.16358e-08
2.16289e-08
2.16429e-08
2.16381e-08
2.1632e-08
2.15084e-08
2.14728e-08
2.14578e-08
2.15107e-08
2.14966e-08
2.15311e-08
2.1523e-08
2.15807e-08
2.15615e-08
2.15415e-08
2.15026e-08
2.14643e-08
2.14841e-08
2.14661e-08
2.16274e-08
2.16345e-08
2.16383e-08
2.16144e-08
2.16389e-08
2.1524e-08
2.14846e-08
2.1524e-08
2.15036e-08
2.14237e-08
2.1472e-08
2.14952e-08
2.15277e-08
2.15123e-08
2.15129e-08
2.15146e-08
2.14771e-08
2.15022e-08
2.15767e-08
2.1548e-08
2.15487e-08
2.16168e-08
2.1635e-08
2.1657e-08
2.1627e-08
2.16133e-08
2.16387e-08
2.16501e-08
2.16268e-08
2.16423e-08
2.16377e-08
2.16224e-08
2.16278e-08
2.16364e-08
2.16191e-08
2.16158e-08
2.16271e-08
2.15562e-08
2.16104e-08
2.16214e-08
2.16274e-08
2.16361e-08
2.1644e-08
2.1641e-08
2.16315e-08
2.16264e-08
2.16339e-08
2.16491e-08
2.16415e-08
2.16332e-08
2.1636e-08
2.16445e-08
2.16417e-08
2.16367e-08
2.16112e-08
2.16295e-08
2.16384e-08
2.16349e-08
2.16366e-08
2.16357e-08
2.16325e-08
2.14434e-08
2.14685e-08
2.14469e-08
2.14744e-08
2.14231e-08
2.15001e-08
2.15007e-08
2.15521e-08
2.15257e-08
2.153e-08
2.1559e-08
2.14757e-08
2.15123e-08
2.15024e-08
2.14967e-08
2.16389e-08
2.16209e-08
2.16403e-08
2.16256e-08
2.16182e-08
2.14824e-08
2.15255e-08
2.15288e-08
2.15055e-08
2.14629e-08
2.14735e-08
2.14933e-08
2.15095e-08
2.156e-08
2.15065e-08
2.15613e-08
2.14863e-08
2.15551e-08
2.15231e-08
2.1569e-08
2.16293e-08
2.16142e-08
2.16322e-08
2.16273e-08
2.16507e-08
2.16086e-08
2.16382e-08
2.16456e-08
2.16239e-08
2.16223e-08
2.16177e-08
2.16064e-08
2.16169e-08
2.16285e-08
2.16217e-08
2.15548e-08
2.159e-08
2.1586e-08
2.16212e-08
2.16355e-08
2.16448e-08
2.16403e-08
2.16294e-08
2.16246e-08
2.16313e-08
2.1634e-08
2.16295e-08
2.16471e-08
2.16498e-08
2.16357e-08
2.16386e-08
2.16405e-08
2.16336e-08
2.16357e-08
2.16114e-08
2.1646e-08
2.16032e-08
2.1613e-08
2.16341e-08
2.1637e-08
2.16286e-08
2.15051e-08
2.14591e-08
2.148e-08
2.14313e-08
2.14406e-08
2.14602e-08
2.14559e-08
2.15306e-08
2.14961e-08
2.15501e-08
2.15772e-08
2.15256e-08
2.15509e-08
2.14775e-08
2.1417e-08
2.14777e-08
2.14713e-08
2.15016e-08
2.16044e-08
2.15964e-08
2.16322e-08
2.16183e-08
2.16419e-08
2.14415e-08
2.15003e-08
2.15016e-08
2.14888e-08
2.14456e-08
2.14651e-08
2.14723e-08
2.15002e-08
2.15133e-08
2.14873e-08
2.15437e-08
2.1478e-08
2.15154e-08
2.15249e-08
2.14635e-08
2.15798e-08
2.16099e-08
2.16415e-08
2.1631e-08
2.16428e-08
2.16462e-08
2.16365e-08
2.16267e-08
2.16464e-08
2.16266e-08
2.16121e-08
2.16522e-08
2.16131e-08
2.15961e-08
2.16098e-08
2.16071e-08
2.16087e-08
2.1595e-08
2.1643e-08
2.16398e-08
2.16353e-08
2.1622e-08
2.16253e-08
2.16218e-08
2.1633e-08
2.16313e-08
2.16337e-08
2.16488e-08
2.16344e-08
2.16383e-08
2.16432e-08
2.16354e-08
2.1629e-08
2.16476e-08
2.16384e-08
2.1607e-08
2.16387e-08
2.16435e-08
2.16332e-08
2.16317e-08
2.15072e-08
2.15123e-08
2.14986e-08
2.13797e-08
2.1424e-08
2.1397e-08
2.14323e-08
2.15089e-08
2.14388e-08
2.15588e-08
2.15306e-08
2.15675e-08
2.15373e-08
2.14714e-08
2.14479e-08
2.14542e-08
2.14145e-08
2.14658e-08
2.14081e-08
2.16309e-08
2.1627e-08
2.15915e-08
2.16095e-08
2.16375e-08
2.16393e-08
2.1439e-08
2.15188e-08
2.15037e-08
2.15144e-08
2.14551e-08
2.14742e-08
2.15123e-08
2.14422e-08
2.14704e-08
2.15335e-08
2.14786e-08
2.14835e-08
2.14921e-08
2.15121e-08
2.15729e-08
2.16216e-08
2.16255e-08
2.16108e-08
2.16059e-08
2.16311e-08
2.16394e-08
2.16236e-08
2.1633e-08
2.16379e-08
2.16194e-08
2.16486e-08
2.16519e-08
2.16539e-08
2.15828e-08
2.15967e-08
2.16169e-08
2.15622e-08
2.1604e-08
2.16022e-08
2.16429e-08
2.1639e-08
2.16352e-08
2.16162e-08
2.16175e-08
2.16209e-08
2.15984e-08
2.16131e-08
2.16263e-08
2.16272e-08
2.16228e-08
2.16336e-08
2.16425e-08
2.16327e-08
2.16405e-08
2.1634e-08
2.16385e-08
2.16532e-08
2.16098e-08
2.16248e-08
2.16422e-08
2.16529e-08
2.16351e-08
2.16294e-08
2.1514e-08
2.1509e-08
2.14441e-08
2.14065e-08
2.14827e-08
2.13867e-08
2.14535e-08
2.14676e-08
2.14873e-08
2.15152e-08
2.15533e-08
2.15617e-08
2.14463e-08
2.14839e-08
2.14269e-08
2.14475e-08
2.13642e-08
2.1475e-08
2.14922e-08
2.16304e-08
2.15918e-08
2.157e-08
2.16467e-08
2.16172e-08
2.16417e-08
2.14801e-08
2.14398e-08
2.14764e-08
2.1473e-08
2.14561e-08
2.14991e-08
2.14717e-08
2.15127e-08
2.14221e-08
2.15141e-08
2.15443e-08
2.14832e-08
2.14348e-08
2.15264e-08
2.14893e-08
2.15377e-08
2.1615e-08
2.16262e-08
2.16271e-08
2.16327e-08
2.16308e-08
2.16317e-08
2.16288e-08
2.16463e-08
2.1643e-08
2.16524e-08
2.16443e-08
2.16417e-08
2.16508e-08
2.16229e-08
2.16217e-08
2.15898e-08
2.1594e-08
2.15633e-08
2.15704e-08
2.15643e-08
2.16415e-08
2.16353e-08
2.15948e-08
2.16192e-08
2.16205e-08
2.16171e-08
2.16174e-08
2.16274e-08
2.16233e-08
2.16206e-08
2.16339e-08
2.16429e-08
2.16334e-08
2.16408e-08
2.1636e-08
2.16397e-08
2.16201e-08
2.16445e-08
2.16639e-08
2.16445e-08
2.1634e-08
2.16285e-08
2.15149e-08
2.14866e-08
2.14514e-08
2.14129e-08
2.14578e-08
2.14678e-08
2.14458e-08
2.14414e-08
2.14719e-08
2.14914e-08
2.14686e-08
2.14952e-08
2.15453e-08
2.14661e-08
2.14893e-08
2.1402e-08
2.13655e-08
2.1492e-08
2.14011e-08
2.14945e-08
2.14699e-08
2.16083e-08
2.15822e-08
2.15966e-08
2.15672e-08
2.16076e-08
2.16109e-08
2.16152e-08
2.14363e-08
2.14796e-08
2.14768e-08
2.14179e-08
2.14274e-08
2.1468e-08
2.1458e-08
2.14609e-08
2.14752e-08
2.15346e-08
2.15331e-08
2.1475e-08
2.14698e-08
2.14836e-08
2.14962e-08
2.16241e-08
2.16389e-08
2.16337e-08
2.16066e-08
2.1638e-08
2.16073e-08
2.1647e-08
2.16205e-08
2.16452e-08
2.16453e-08
2.1637e-08
2.16449e-08
2.16424e-08
2.16561e-08
2.16217e-08
2.15908e-08
2.15929e-08
2.15699e-08
2.14137e-08
2.15533e-08
2.15714e-08
2.16416e-08
2.16353e-08
2.16201e-08
2.16295e-08
2.16293e-08
2.16344e-08
2.16435e-08
2.16119e-08
2.15883e-08
2.1601e-08
2.16472e-08
2.16535e-08
2.16388e-08
2.16355e-08
2.16328e-08
2.16361e-08
2.16299e-08
2.16379e-08
2.1664e-08
2.16259e-08
2.16407e-08
2.1632e-08
2.16281e-08
2.14299e-08
2.1492e-08
2.14634e-08
2.14337e-08
2.13987e-08
2.14386e-08
2.1401e-08
2.14493e-08
2.14252e-08
2.14884e-08
2.15034e-08
2.15058e-08
2.14596e-08
2.14757e-08
2.1458e-08
2.1373e-08
2.13695e-08
2.13891e-08
2.13432e-08
2.14298e-08
2.13539e-08
2.16026e-08
2.15559e-08
2.15591e-08
2.15174e-08
2.1611e-08
2.1632e-08
2.16132e-08
2.14119e-08
2.14508e-08
2.14451e-08
2.13875e-08
2.14188e-08
2.13372e-08
2.1472e-08
2.14809e-08
2.14771e-08
2.1513e-08
2.14885e-08
2.14882e-08
2.14808e-08
2.14559e-08
2.15416e-08
2.16137e-08
2.16459e-08
2.16258e-08
2.16432e-08
2.1607e-08
2.1613e-08
2.16067e-08
2.16484e-08
2.16361e-08
2.16173e-08
2.16334e-08
2.16354e-08
2.16364e-08
2.16349e-08
2.16563e-08
2.16297e-08
2.16271e-08
2.16294e-08
2.15849e-08
2.15663e-08
2.15472e-08
2.15007e-08
2.15845e-08
2.15362e-08
2.15278e-08
2.16164e-08
2.16261e-08
2.16429e-08
2.16368e-08
2.16551e-08
2.16197e-08
2.15951e-08
2.16554e-08
2.16475e-08
2.16515e-08
2.16392e-08
2.16358e-08
2.16508e-08
2.16425e-08
2.16311e-08
2.16373e-08
2.16242e-08
2.16324e-08
2.16401e-08
2.16187e-08
2.16191e-08
2.1424e-08
2.13933e-08
2.1386e-08
2.14567e-08
2.13689e-08
2.13581e-08
2.14272e-08
2.14183e-08
2.13825e-08
2.14236e-08
2.14027e-08
2.14769e-08
2.14887e-08
2.15078e-08
2.14695e-08
2.14689e-08
2.14536e-08
2.14749e-08
2.13708e-08
2.15091e-08
2.14416e-08
2.13533e-08
2.14148e-08
2.13547e-08
2.13909e-08
2.15892e-08
2.16316e-08
2.15568e-08
2.15398e-08
2.15575e-08
2.15146e-08
2.16307e-08
2.16329e-08
2.16033e-08
2.16462e-08
2.14468e-08
2.1488e-08
2.14496e-08
2.13253e-08
2.14113e-08
2.1462e-08
2.13546e-08
2.14694e-08
2.14528e-08
2.14474e-08
2.14612e-08
2.14987e-08
2.14839e-08
2.14344e-08
2.15216e-08
2.15211e-08
2.16463e-08
2.16335e-08
2.16074e-08
2.16361e-08
2.16253e-08
2.15896e-08
2.16474e-08
2.16344e-08
2.16359e-08
2.16273e-08
2.16348e-08
2.16338e-08
2.1634e-08
2.16482e-08
2.16336e-08
2.16172e-08
2.15933e-08
2.15711e-08
2.1432e-08
2.15026e-08
2.15562e-08
2.1429e-08
2.1625e-08
2.16517e-08
2.16551e-08
2.16557e-08
2.16555e-08
2.16556e-08
2.16557e-08
2.16559e-08
2.16427e-08
2.16463e-08
2.16421e-08
2.16199e-08
2.16119e-08
2.16362e-08
2.16364e-08
2.16365e-08
2.16335e-08
2.16519e-08
2.14169e-08
2.13563e-08
2.14023e-08
2.13195e-08
2.13458e-08
2.14404e-08
2.13635e-08
2.13482e-08
2.13121e-08
2.14795e-08
2.14505e-08
2.14521e-08
2.15026e-08
2.14971e-08
2.14669e-08
2.14708e-08
2.14698e-08
2.15093e-08
2.13035e-08
2.14108e-08
2.14153e-08
2.13761e-08
2.13477e-08
2.15912e-08
2.16158e-08
2.15232e-08
2.15594e-08
2.15339e-08
2.14242e-08
2.16003e-08
2.16305e-08
2.16259e-08
2.14571e-08
2.14601e-08
2.1428e-08
2.13897e-08
2.14335e-08
2.13627e-08
2.14016e-08
2.14847e-08
2.14474e-08
2.14787e-08
2.14588e-08
2.15024e-08
2.14473e-08
2.14672e-08
2.14647e-08
2.15218e-08
2.16439e-08
2.16311e-08
2.1634e-08
2.16363e-08
2.16379e-08
2.16461e-08
2.16518e-08
2.16452e-08
2.16237e-08
2.16402e-08
2.16115e-08
2.16279e-08
2.16256e-08
2.16474e-08
2.16405e-08
2.15923e-08
2.1578e-08
2.1563e-08
2.15206e-08
2.15281e-08
2.15794e-08
2.15341e-08
2.15765e-08
2.15412e-08
2.16217e-08
2.16496e-08
2.16305e-08
2.16554e-08
2.16553e-08
2.16405e-08
2.16361e-08
2.16345e-08
2.16341e-08
2.16354e-08
2.1639e-08
2.16225e-08
2.16522e-08
2.14231e-08
2.14441e-08
2.14188e-08
2.13429e-08
2.14266e-08
2.14465e-08
2.13732e-08
2.1368e-08
2.1455e-08
2.14203e-08
2.14463e-08
2.15019e-08
2.14731e-08
2.14152e-08
2.13849e-08
2.13949e-08
2.14473e-08
2.13716e-08
2.13879e-08
2.13114e-08
2.13841e-08
2.13733e-08
2.13822e-08
2.13612e-08
2.15873e-08
2.1611e-08
2.14955e-08
2.14713e-08
2.15606e-08
2.15557e-08
2.14113e-08
2.14439e-08
2.16319e-08
2.16243e-08
2.16354e-08
2.16471e-08
2.14326e-08
2.14223e-08
2.14095e-08
2.1451e-08
2.14041e-08
2.13974e-08
2.14285e-08
2.14276e-08
2.1394e-08
2.13915e-08
2.14946e-08
2.14315e-08
2.14276e-08
2.14911e-08
2.14606e-08
2.1641e-08
2.16135e-08
2.16329e-08
2.16582e-08
2.16468e-08
2.16517e-08
2.16238e-08
2.16105e-08
2.16425e-08
2.16261e-08
2.16454e-08
2.16317e-08
2.16224e-08
2.1602e-08
2.16284e-08
2.15722e-08
2.15651e-08
2.14321e-08
2.14503e-08
2.15158e-08
2.14403e-08
2.16563e-08
2.16555e-08
2.16549e-08
2.16176e-08
2.16424e-08
2.16363e-08
2.16359e-08
2.16344e-08
2.16302e-08
2.1646e-08
2.13244e-08
2.14168e-08
2.14355e-08
2.13569e-08
2.14059e-08
2.13226e-08
2.13133e-08
2.13452e-08
2.1391e-08
2.1369e-08
2.14553e-08
2.14355e-08
2.14385e-08
2.14126e-08
2.14383e-08
2.14095e-08
2.13846e-08
2.14459e-08
2.14144e-08
2.13209e-08
2.13497e-08
2.13794e-08
2.13883e-08
2.1531e-08
2.15474e-08
2.14206e-08
2.14903e-08
2.14991e-08
2.15537e-08
2.14279e-08
2.14545e-08
2.16183e-08
2.1607e-08
2.16098e-08
2.16119e-08
2.14454e-08
2.13911e-08
2.13998e-08
2.14422e-08
2.13969e-08
2.14321e-08
2.14328e-08
2.14066e-08
2.1447e-08
2.14799e-08
2.14482e-08
2.14187e-08
2.14285e-08
2.14794e-08
2.14767e-08
2.15097e-08
2.16192e-08
2.16317e-08
2.16567e-08
2.16199e-08
2.16279e-08
2.16039e-08
2.16131e-08
2.16566e-08
2.16566e-08
2.16449e-08
2.16154e-08
2.16416e-08
2.16368e-08
2.15787e-08
2.15821e-08
2.1563e-08
2.15375e-08
2.15279e-08
2.14672e-08
2.14665e-08
2.15284e-08
2.16425e-08
2.1623e-08
2.16526e-08
2.16441e-08
2.1626e-08
2.16539e-08
2.13785e-08
2.13317e-08
2.14168e-08
2.13525e-08
2.13554e-08
2.12804e-08
2.13085e-08
2.13688e-08
2.14036e-08
2.1409e-08
2.13923e-08
2.13992e-08
2.14552e-08
2.14345e-08
2.14246e-08
2.14355e-08
2.14355e-08
2.141e-08
2.14242e-08
2.14215e-08
2.13609e-08
2.13217e-08
2.13822e-08
2.13899e-08
2.14246e-08
2.13662e-08
2.15167e-08
2.15225e-08
2.15616e-08
2.15577e-08
2.14542e-08
2.14939e-08
2.15061e-08
2.1532e-08
2.14551e-08
2.15017e-08
2.15726e-08
2.16108e-08
2.16155e-08
2.16247e-08
2.16407e-08
2.14504e-08
2.13468e-08
2.14254e-08
2.13578e-08
2.1307e-08
2.13498e-08
2.14535e-08
2.1373e-08
2.13463e-08
2.13441e-08
2.14426e-08
2.13479e-08
2.14035e-08
2.14413e-08
2.16265e-08
2.16293e-08
2.16329e-08
2.16273e-08
2.1623e-08
2.16115e-08
2.16458e-08
2.16562e-08
2.16426e-08
2.16285e-08
2.16519e-08
2.16315e-08
2.15798e-08
2.15811e-08
2.15571e-08
2.15218e-08
2.14522e-08
2.15408e-08
2.15227e-08
2.14951e-08
2.15413e-08
2.16327e-08
2.16189e-08
2.16562e-08
2.16541e-08
2.16068e-08
2.15963e-08
2.13515e-08
2.13202e-08
2.13959e-08
2.1373e-08
2.12548e-08
2.13408e-08
2.1398e-08
2.13006e-08
2.13909e-08
2.14301e-08
2.14194e-08
2.14165e-08
2.14523e-08
2.14032e-08
2.14031e-08
2.14223e-08
2.14194e-08
2.14118e-08
2.1342e-08
2.13192e-08
2.13789e-08
2.13613e-08
2.14897e-08
2.15551e-08
2.15664e-08
2.15388e-08
2.14601e-08
2.14807e-08
2.14944e-08
2.15403e-08
2.14838e-08
2.14929e-08
2.15918e-08
2.1609e-08
2.15996e-08
2.15942e-08
2.15809e-08
2.15846e-08
2.13845e-08
2.13234e-08
2.12503e-08
2.13981e-08
2.13966e-08
2.1372e-08
2.12781e-08
2.14312e-08
2.14092e-08
2.14097e-08
2.14532e-08
2.14124e-08
2.14666e-08
2.14029e-08
2.14133e-08
2.14164e-08
2.15156e-08
2.16242e-08
2.1609e-08
2.16328e-08
2.16565e-08
2.16567e-08
2.1631e-08
2.16291e-08
2.16307e-08
2.16445e-08
2.16148e-08
2.15576e-08
2.15764e-08
2.1607e-08
2.15368e-08
2.15206e-08
2.14209e-08
2.15203e-08
2.15176e-08
2.15114e-08
2.15162e-08
2.16135e-08
2.16144e-08
2.16331e-08
2.16541e-08
2.15958e-08
2.14404e-08
2.11991e-08
2.1254e-08
2.13157e-08
2.13489e-08
2.14005e-08
2.12857e-08
2.1381e-08
2.13384e-08
2.13127e-08
2.14324e-08