/*--------------------------------*- C++ -*----------------------------------*\
| =========                 |                                                 |
| \\      /  F ield         | OpenFOAM: The Open Source CFD Toolbox           |
|  \\    /   O peration     | Version:  v2012                                 |
|   \\  /    A nd           | Website:  www.openfoam.com                      |
|    \\/     M anipulation  |                                                 |
\*---------------------------------------------------------------------------*/
FoamFile
{
    version     2.0;
    format      ascii;
    class       volVectorField;
    location    "1.3";
    object      U;
}
// * * * * * * * * * * * * * * * * * * * * * * * * * * * * * * * * * * * * * //

dimensions      [0 1 -1 0 0 0 0];


internalField   nonuniform List<vector> 
13611
(
(7.83669 -0.0395288 3.4321e-23)
(7.89044 -0.0433309 4.02144e-23)
(7.8761 0.00846141 0)
(8.00774 -0.0287695 -1.05851e-23)
(7.88938 -0.0323435 -3.05774e-23)
(7.88692 -0.00205429 -1.54784e-23)
(7.98815 -0.0161609 -1.56539e-23)
(8.0609 -0.0298429 0)
(7.89206 -0.138675 -4.61743e-24)
(7.98889 -0.0246075 0)
(7.89208 -0.0307443 1.00277e-23)
(8.03304 -0.0216154 -1.38855e-23)
(8.07365 -0.034016 0)
(8.08019 -0.0180927 -2.73132e-23)
(7.90212 -0.0773247 1.40037e-23)
(8.01262 -0.0450171 -7.49363e-24)
(7.98169 -0.027598 -1.49514e-23)
(7.91087 -0.0234667 3.73029e-23)
(8.06697 -0.0229887 8.29171e-24)
(8.10817 -0.0246244 0)
(8.06701 -0.0163278 -2.44648e-23)
(8.06863 -0.0197461 -1.26016e-23)
(7.92962 -0.0858263 0)
(7.95897 -0.0211758 -4.91941e-23)
(8.09241 -0.0404678 -2.41698e-24)
(8.00823 -0.0308475 -1.66838e-23)
(7.9239 -0.0298576 1.37315e-23)
(8.06479 -0.0189955 -1.71513e-24)
(8.08772 -0.0205715 -3.08259e-24)
(8.06731 -0.0138224 -2.08923e-23)
(8.04494 -0.0110493 2.41313e-23)
(8.062 -0.012603 5.83655e-24)
(7.9043 -0.0583086 2.36103e-23)
(8.04292 -0.026939 -2.36441e-23)
(8.13276 -0.0459025 2.8372e-23)
(8.05881 -0.0233536 0)
(7.97596 -0.0371029 -1.77103e-23)
(7.94486 -0.0302672 -1.14723e-23)
(8.05923 -0.0171981 1.67862e-23)
(8.08266 -0.0143459 5.10079e-23)
(8.05209 -0.00656458 -1.94022e-23)
(8.0426 -0.00514481 1.93831e-23)
(8.04485 -0.0120773 -9.37328e-24)
(8.0481 -0.0118494 0)
(7.97672 -0.020438 1.89241e-23)
(7.89913 -0.0434584 0)
(8.04193 -0.0291311 2.11e-25)
(8.11318 -0.0324556 5.54133e-23)
(8.05788 -0.0293407 1.27259e-23)
(8.00821 -0.0416578 9.69852e-25)
(7.9584 -0.0357399 -9.12944e-24)
(8.05059 -0.0145375 4.80463e-24)
(8.06442 -0.00888651 7.11197e-24)
(8.04362 -0.00391161 0)
(8.05137 -0.00412234 -3.31457e-23)
(8.03675 -0.00548923 -4.41323e-23)
(8.03493 -0.00816142 -5.4754e-23)
(8.03849 -0.0108674 5.75181e-24)
(8.01358 -0.0293295 1.85075e-23)
(7.87773 -0.0373737 2.52656e-24)
(8.09206 -0.0214747 0)
(8.12411 -0.0209581 0)
(8.03794 -0.0356001 1.32173e-23)
(8.04882 -0.0173463 -1.30534e-24)
(7.98614 -0.0368924 0)
(7.97575 -0.0302994 1.36858e-23)
(8.04132 -0.011111 2.08546e-23)
(8.06322 -0.00621999 2.23015e-23)
(8.04262 -0.000815571 0)
(8.05049 -0.000303185 -1.44285e-23)
(8.03518 -0.00144768 2.63533e-23)
(8.03237 -0.00700233 -1.29942e-23)
(8.07539 -0.0334482 0)
(7.97364 -0.0401768 2.27623e-23)
(7.85381 -0.0296436 0)
(8.13739 -0.0150326 0)
(8.08186 -0.00427109 2.28924e-23)
(8.03475 -0.0271531 -1.45338e-23)
(8.04061 -0.0175144 0)
(8.01367 -0.0354064 0)
(7.98665 -0.0315292 1.96776e-23)
(8.03364 -0.0114203 0)
(8.06083 0.000539332 6.28914e-24)
(8.04408 0.00183342 0)
(8.03696 0.00139766 1.51722e-23)
(8.05145 0.00174264 -1.10006e-23)
(8.02941 0.00122283 0)
(8.02498 -0.00517255 0)
(8.10646 -0.0315627 2.25273e-23)
(8.01681 -0.0225951 0)
(7.88272 0.0178869 0)
(8.15115 -0.00705857 9.06154e-25)
(8.07478 0.00329923 0)
(8.03657 -0.0231748 -1.41935e-23)
(8.03552 -0.013638 0)
(8.03818 -0.0190238 0)
(8.00893 -0.0351059 1.69372e-23)
(7.9975 -0.0360798 2.47309e-23)
(8.00097 -0.0193184 1.08732e-23)
(8.02468 -0.009799 0)
(8.0577 0.0037605 8.84214e-24)
(8.03347 0.00248495 -1.13346e-23)
(8.02736 0.00344578 -1.95278e-24)
(8.04022 0.00533282 -1.60131e-23)
(8.02432 0.00247282 0)
(8.0266 0.00168017 5.28793e-23)
(8.02424 -0.00311765 4.2112e-23)
(8.14847 -0.0106485 2.44495e-25)
(8.07812 -0.0131809 1.42708e-23)
(7.99998 -0.0132746 0)
(7.83623 -0.102209 0)
(8.10266 -0.00109955 2.21449e-25)
(8.08026 0.00997053 2.78862e-23)
(8.02954 -0.0226253 0)
(8.02947 -0.0133401 6.6219e-24)
(8.03212 -0.0143513 1.9202e-24)
(8.02143 -0.0238503 -4.90053e-24)
(7.99805 -0.0310116 4.66371e-24)
(8.01946 -0.0188776 0)
(8.02023 -0.00843733 0)
(8.06151 0.0107912 3.62012e-23)
(8.04181 0.00888736 1.15547e-23)
(8.03297 0.00651966 -3.71698e-24)
(8.02604 0.00461609 -1.1024e-23)
(8.02602 0.00468368 0)
(8.02426 0.00252539 3.67601e-24)
(8.0233 0.00417571 1.13962e-23)
(8.02177 -0.00427426 -3.6196e-23)
(8.17644 -0.00184326 -6.03687e-23)
(8.08263 -0.0102949 -3.64974e-23)
(8.03291 -0.0034638 -2.96253e-23)
(7.89709 -0.132238 0)
(8.09778 0.00212176 -1.77327e-23)
(8.07295 0.0115623 5.63308e-23)
(8.02781 -0.0149072 1.93826e-24)
(8.0208 -0.0102194 6.66626e-24)
(8.01662 -0.0188624 3.77652e-24)
(7.99421 -0.0343345 8.45137e-24)
(8.0053 -0.0238925 6.33113e-24)
(8.03806 -0.000971984 0)
(8.01878 -0.00644128 -3.80773e-23)
(8.05104 0.0159491 2.45573e-23)
(8.04132 0.0162037 -5.40098e-24)
(8.03169 0.0103805 6.05131e-23)
(8.02763 0.00876661 0)
(8.02441 0.00489421 -2.69455e-23)
(8.02264 0.0053038 0)
(8.02301 0.00197779 -3.08586e-24)
(8.01965 -0.00141392 -2.80346e-24)
(8.13248 -0.00516062 -1.95246e-23)
(8.14466 -0.00863605 -5.69712e-23)
(8.04388 -0.0373741 0)
(7.92237 0.0477693 -2.43057e-22)
(8.08869 0.00734795 6.12287e-23)
(8.08021 0.0124213 6.01272e-23)
(8.04998 0.0178671 2.84627e-23)
(8.02235 -0.0118852 -2.67361e-24)
(8.01728 -0.00889465 1.62903e-23)
(8.02121 -0.0146141 9.36904e-24)
(7.99235 -0.0251863 -4.80876e-24)
(8.00172 -0.0203018 0)
(8.05078 -0.0170265 -5.33276e-24)
(8.01612 -0.00505585 0)
(8.0452 0.0163748 1.28392e-23)
(8.0374 0.0171436 0)
(8.03174 0.013644 6.42536e-23)
(8.02504 0.00951893 0)
(8.0216 0.00588081 -2.71692e-23)
(8.01952 0.00582259 0)
(8.02038 0.000822994 -2.95845e-24)
(8.01975 0.00322326 0)
(8.01638 -0.00126733 -8.15924e-24)
(8.12649 0.00894729 0)
(8.16943 0.0232218 0)
(8.15634 -0.0298698 0)
(8.0686 0.113398 -4.27965e-23)
(8.11353 -0.354112 -5.56512e-23)
(8.09749 0.01725 3.97858e-23)
(8.06889 0.0209608 0)
(8.05123 0.0202768 -1.8985e-23)
(8.02017 -0.0130287 1.7131e-23)
(8.01713 -0.00981309 3.47717e-24)
(8.01462 -0.0066504 3.01086e-24)
(8.01461 -0.0151629 4.52556e-24)
(7.99356 -0.0185811 -6.97852e-24)
(7.99387 -0.0213655 0)
(8.06493 -0.0148719 -1.3096e-24)
(8.01532 -0.00286761 7.73433e-24)
(8.04883 0.0199149 1.3822e-23)
(8.03127 0.021165 5.02191e-24)
(8.02234 0.0169419 -1.53728e-23)
(8.01663 0.0112542 0)
(8.01592 0.0086298 0)
(8.01686 0.00653598 0)
(8.01586 0.00332776 0)
(8.01557 0.00395512 -2.33915e-23)
(8.01378 0.00041815 -3.30583e-24)
(8.13884 0.00578661 -3.55745e-23)
(8.15099 0.0250104 -3.2249e-23)
(8.1916 -0.0150342 5.08728e-23)
(8.00228 -0.0182078 2.05261e-23)
(8.16275 0.0600623 0)
(8.08896 0.0277514 3.86173e-23)
(8.07555 0.0264222 0)
(8.05333 0.0270523 0)
(8.01306 -0.00987935 0)
(8.01243 -0.00774656 1.23068e-23)
(8.0127 -0.00585931 1.51759e-23)
(8.01495 -0.0140255 0)
(7.98387 -0.00811526 0)
(7.99452 -0.0123094 0)
(8.05781 -0.030456 -1.05493e-23)
(8.01287 -0.00213643 7.49704e-24)
(8.04582 0.0249098 1.92863e-23)
(8.02238 0.0221026 -1.53965e-23)
(8.03363 0.0263943 -1.98178e-23)
(8.01615 0.0156454 0)
(8.00808 0.0109279 -1.64862e-23)
(8.00933 0.00833342 9.5359e-24)
(8.01451 0.0071499 2.14733e-24)
(8.01337 0.00470646 -2.34284e-23)
(8.01378 0.00229813 0)
(8.01169 0.000374479 -3.81975e-23)
(8.12413 0.0147055 0)
(8.14367 0.00805404 0)
(8.14656 0.00871559 5.92141e-23)
(7.79686 0.244702 -6.86752e-23)
(8.10354 -0.0330842 -3.66759e-23)
(8.64085 0.112153 0)
(8.09819 0.0282872 0)
(8.07305 0.0362516 3.68379e-24)
(8.05579 0.0324195 0)
(8.01175 -0.00771688 0)
(8.01142 -0.0107364 0)
(8.0116 -0.00481511 6.96552e-25)
(8.01169 -0.0118765 0)
(8.01133 -0.0151128 0)
(7.99091 -0.000452259 -2.35384e-24)
(8.05548 -0.0609314 -1.48557e-24)
(7.9918 0.00952271 -7.76864e-24)
(8.01212 -0.00397686 -1.61378e-24)
(8.01194 -0.00102351 -3.8381e-23)
(8.04973 0.029852 -5.29457e-24)
(8.01507 0.0229154 -1.75837e-23)
(8.02558 0.031435 -4.37867e-23)
(8.00903 0.0184546 -3.31014e-23)
(8.00402 0.0125098 -1.71502e-23)
(8.00425 0.00821183 -3.73405e-24)
(8.00675 0.0071382 2.13621e-24)
(8.00739 0.0055241 2.63887e-23)
(8.01169 0.00343286 0)
(8.00969 0.000985717 2.07878e-23)
(8.13478 0.0245277 0)
(8.15311 0.00910024 0)
(8.15192 0.0224527 -5.41726e-24)
(7.68048 0.197834 -1.06471e-23)
(8.10193 -0.0124314 -5.70472e-23)
(8.42156 0.0631261 -5.35304e-24)
(8.09762 0.040123 2.11896e-23)
(8.06164 0.0424623 1.6265e-23)
(8.08277 0.043183 3.97298e-24)
(8.05416 0.0395107 2.18558e-23)
(8.00963 -0.00703426 -1.25752e-24)
(8.00811 -0.00871782 0)
(8.01006 -0.0055701 6.94613e-25)
(8.00872 -0.0107249 0)
(8.00969 -0.0127998 0)
(8.004 -0.0216126 -1.3926e-23)
(8.01967 -0.00507197 -2.92545e-23)
(7.99917 -0.00933024 -3.649e-24)
(8.01109 -0.00272842 -1.70744e-23)
(8.01066 -0.00185488 -1.58291e-23)
(8.0337 0.0333258 -5.2793e-24)
(8.01341 0.0280541 -3.1025e-23)
(8.00854 0.0222194 0)
(8.01698 0.0313242 -5.81966e-23)
(8.00375 0.0160524 -3.19503e-23)
(8.00819 0.0199885 -3.65323e-23)
(8.00156 0.0112485 -2.30786e-23)
(8.00164 0.00850428 -3.0761e-23)
(8.00427 0.00682924 2.63008e-23)
(8.00483 0.0043034 -2.5958e-23)
(8.0086 0.0020722 2.08586e-23)
(8.00595 0.00337718 -2.6218e-23)
(8.00675 0.00053266 2.5458e-23)
(8.11907 0.0357597 4.27164e-23)
(8.1709 0.0234829 -5.03013e-23)
(8.18873 0.0182479 -4.32677e-23)
(7.81876 0.0990581 -7.2152e-23)
(8.1445 0.0219995 0)
(8.51115 -0.0126355 1.86685e-23)
(8.06121 0.0526782 0)
(8.08334 0.0530157 1.28904e-23)
(8.03817 0.0416988 4.21254e-24)
(8.00831 -0.00738972 -4.31543e-24)
(8.00728 -0.00922774 0)
(8.00914 -0.00443235 -1.43857e-23)
(8.00871 -0.0116276 2.98539e-24)
(8.00525 -0.0129923 -3.92818e-24)
(8.00038 -0.0154683 -5.21591e-24)
(8.01721 -0.0299851 2.12921e-24)
(8.00989 -0.00296801 -1.42106e-23)
(8.00887 -0.000964099 0)
(8.02976 0.0376906 -1.48218e-24)
(8.00742 0.0299179 9.45525e-23)
(8.00608 0.0251736 0)
(8.01403 0.0358821 -4.35289e-23)
(8.00275 0.0193484 -3.55002e-23)
(8.00356 0.0203291 0)
(8.00136 0.0123862 -7.49043e-23)
(8.00056 0.0080512 0)
(8.00081 0.00715316 0)
(7.99972 0.00473658 -1.67472e-23)
(8.00229 0.00235928 -3.9775e-24)
(8.00013 0.00309355 -1.55019e-23)
(8.00055 0.000937054 6.89998e-24)
(8.00711 -0.000445099 1.84891e-23)
(8.12327 0.0464971 5.78006e-25)
(8.16604 0.0444967 0)
(8.19846 0.0288384 0)
(7.6551 0.0604199 0)
(8.16703 0.0173795 4.17626e-23)
(8.24935 -0.0779776 0)
(8.07399 0.0571121 3.39264e-23)
(8.04615 0.0584209 0)
(8.0877 0.0586558 -2.86578e-23)
(8.03198 0.0505541 0)
(8.00701 -0.0066522 -3.10295e-24)
(8.00553 -0.00848032 9.76546e-24)
(8.00787 -0.0050741 0)
(8.00705 -0.0101826 2.923e-24)
(8.00312 -0.00946907 1.57006e-24)
(8.00032 -0.0067116 0)
(7.99627 -0.00451565 -7.14342e-25)
(8.01727 -0.0274077 1.19385e-23)
(8.00895 -0.00245489 -1.5872e-24)
(8.00806 -0.00164292 1.77671e-24)
(8.01919 0.0396384 0)
(8.00727 0.0336302 8.04369e-23)
(8.00455 0.0242682 -3.51599e-23)
(8.00937 0.0382797 0)
(8.00412 0.0182713 0)
(8.0011 0.0106603 -3.2896e-23)
(8.00324 0.0156793 -6.98215e-23)
(7.99946 0.00820072 -1.73869e-23)
(7.99899 0.00661137 0)
(7.99847 0.00418161 -1.25595e-23)
(7.99923 0.00165833 -7.37118e-25)
(7.99871 0.00320768 0)
(7.99767 0.00052772 1.89896e-23)
(8.00435 -0.000358488 -1.50227e-23)
(8.14225 0.0498214 -2.9755e-24)
(8.09995 0.0596688 0)
(8.16823 0.0570359 0)
(8.21083 0.0407529 -3.48463e-23)
(7.87374 0.0875589 0)
(8.20779 0.0198257 2.35367e-24)
(8.3386 -0.122626 0)
(8.06799 0.0626052 2.14528e-23)
(8.04894 0.0626413 0)
(8.03701 0.056518 0)
(8.07788 0.0632287 8.58037e-24)
(8.01702 0.0505477 0)
(8.00596 -0.00682202 0)
(8.00475 -0.00705102 5.24828e-24)
(8.00484 -0.00850076 9.83239e-24)
(8.00766 -0.004376 0)
(8.00644 -0.0095769 5.04946e-24)
(8.00272 -0.0088165 9.68887e-25)
(8.00159 -0.0100726 0)
(7.99895 -0.00368855 -2.72794e-24)
(8.01185 0.000674654 -3.14513e-24)
(8.0078 -0.00331825 -1.5895e-24)
(8.00569 -0.00112549 -1.57484e-23)
(8.01569 0.0419261 1.44699e-23)
(8.00717 0.0323937 0)
(8.00767 0.0371624 -1.36961e-23)
(8.00699 0.0259346 -3.7587e-23)
(8.00934 0.0426498 1.44706e-23)
(8.00694 0.0223192 0)
(8.00378 0.0111714 3.03254e-23)
(8.00463 0.0158992 -7.33907e-23)
(8.00008 0.00801791 1.38132e-23)
(7.99982 0.00699965 0)
(7.99985 0.00405575 -4.57728e-23)
(7.99866 0.0024768 -7.8322e-24)
(7.99878 0.00271808 0)
(7.99789 0.00109444 0)
(7.99894 1.63982e-06 2.14242e-23)
(8.12848 0.0574829 1.8693e-23)
(8.10311 0.0639042 0)
(8.19788 0.0458673 0)
(8.14336 0.0606501 0)
(7.8149 0.0519444 -7.58118e-24)
(8.24924 0.0150554 0)
(8.40265 -0.0594446 0)
(8.02177 -0.0756118 -2.19247e-23)
(8.04362 0.0706355 -2.87034e-23)
(8.02755 0.0647334 0)
(8.07413 0.0734699 3.73623e-23)
(8.01242 0.058777 0)
(8.00583 -0.00512155 -2.33834e-23)
(8.00347 -0.00549362 5.24007e-24)
(8.0033 -0.00677982 0)
(8.00665 -0.00480985 -2.35561e-23)
(8.00585 -0.00759893 3.31072e-24)
(8.00471 -0.00760047 8.15362e-25)
(8.00231 -0.0088708 0)
(7.99624 -0.0105628 -1.34434e-24)
(8.01223 0.000786682 4.07943e-24)
(8.0086 -0.0201858 7.60544e-24)
(8.00653 -0.00270375 1.49042e-23)
(8.00442 -0.00149328 1.58701e-23)
(8.0062 0.0362643 -2.03528e-23)
(8.00788 0.0288588 0)
(8.00639 0.0372814 2.58152e-24)
(8.00858 0.0240736 3.61208e-23)
(8.00829 0.045274 0)
(8.00848 0.0228452 0)
(8.00328 0.00917338 -8.59344e-24)
(8.00393 0.0132404 3.20796e-23)
(8.00557 0.0196969 -6.84876e-23)
(8.00243 0.00755052 -1.07674e-23)
(8.00112 0.0057696 -2.3616e-23)
(8.00108 0.00487972 -4.61522e-23)
(7.9998 0.00291514 0)
(7.99838 0.00207927 0)
(7.99807 0.00138569 0)
(7.99633 0.000128053 0)
(8.09988 0.0746429 5.02316e-23)
(8.19564 0.0569432 0)
(8.13612 0.0743094 0)
(8.04991 0.0339103 0)
(8.26266 0.0232996 -1.48194e-24)
(8.11565 -0.336424 0)
(8.09471 -0.0877898 1.79669e-24)
(8.0525 0.078427 0)
(8.03246 0.0719307 -2.86063e-23)
(8.01408 0.066499 0)
(8.08621 0.0796005 -1.76035e-23)
(8.00928 0.0546866 0)
(8.00475 -0.00456329 -3.74422e-24)
(8.00267 -0.00555488 0)
(8.00361 -0.00667357 4.63866e-24)
(8.00594 -0.00396643 2.35916e-23)
(8.00368 -0.00687354 -2.2136e-24)
(7.99997 -0.00951154 -1.71773e-24)
(7.9994 -0.00676294 0)
(8.00918 -0.012912 5.53857e-24)
(8.01642 -0.0143706 -5.6742e-25)
(8.0049 -0.00303875 2.66991e-23)
(8.00039 -0.00114073 1.56672e-23)
(8.01041 0.03744 -2.03515e-23)
(8.00883 0.0290679 0)
(8.00583 0.0441999 2.58473e-24)
(8.00823 0.0266551 3.93672e-23)
(8.00566 0.023057 -6.61278e-24)
(8.00236 0.00975235 -3.48457e-23)
(8.00234 0.0129217 0)
(8.00382 0.021159 4.57889e-24)
(8.00277 0.00692248 -3.5316e-23)
(8.00272 0.00468047 -1.89941e-23)
(8.00046 0.00332303 0)
(8.00051 0.00267438 -4.81956e-24)
(7.99712 0.000849596 -6.02957e-24)
(8.00088 0.0016355 1.55556e-23)
(7.99677 -0.000717452 7.92186e-24)
(8.11489 0.0797842 2.03341e-23)
(8.22126 0.0540899 0)
(8.15606 0.0755244 2.83544e-23)
(8.03263 0.039223 0)
(8.31339 0.0271828 -1.65445e-24)
(8.14907 -0.175856 0)
(8.09021 -0.0412311 6.83344e-24)
(8.04974 0.0900962 3.08464e-23)
(8.03035 0.0838314 4.3071e-24)
(8.01363 0.0743362 0)
(8.07993 0.0948899 -8.21601e-23)
(8.00902 0.0603843 1.76761e-23)
(8.00497 -0.00356839 -2.57185e-23)
(8.00171 -0.00439539 0)
(8.00235 -0.00570078 4.57521e-24)
(8.00489 -0.00365105 -2.47522e-23)
(8.00336 -0.00623779 -6.71929e-24)
(8.00034 -0.007148 0)
(7.99727 -0.00814789 8.7214e-26)
(8.00488 -0.0150392 0)
(8.01845 -0.0100155 0)
(8.00183 -0.00263518 0)
(7.99944 -0.00220635 0)
(8.01393 0.0436297 4.98443e-23)
(8.0103 0.0343722 0)
(8.01012 0.0481153 0)
(8.00524 0.0265993 -3.55572e-23)
(8.0024 0.022889 -6.97712e-24)
(8.00175 0.00852305 -2.63573e-23)
(8.00228 0.0144855 0)
(8.0028 0.0177937 0)
(8.00348 0.00653137 -2.38235e-23)
(8.00331 0.0050464 -2.44298e-23)
(8.00255 0.00371622 2.72491e-24)
(8.00265 0.00224327 -1.40784e-23)
(7.99841 0.000647863 -5.97025e-24)
(8.0014 0.00148431 1.70826e-23)
(8.00256 0.00184594 -9.04504e-24)
(7.99402 -0.00116954 -6.62235e-24)
(8.11202 0.0978538 1.77558e-23)
(8.21215 0.079634 4.89955e-23)
(8.15264 0.0925823 -2.59186e-23)
(8.19558 0.0599398 0)
(8.26398 0.0568259 4.92295e-23)
(8.21398 -0.3139 0)
(8.17033 -0.115652 0)
(8.05741 0.100406 -2.09904e-23)
(8.04077 0.0935122 8.02915e-23)
(8.01815 0.0873958 4.27114e-24)
(8.0161 0.0807671 0)
(8.00899 0.0708656 1.74281e-23)
(8.09174 0.103623 5.67196e-23)
(8.0109 0.0569749 -1.36773e-22)
(8.00441 -0.00298775 -1.85729e-23)
(8.00086 -0.00495238 -5.7552e-24)
(8.00202 -0.00361679 0)
(8.00222 -0.00542016 -1.77487e-24)
(8.00346 -0.00284188 2.46275e-23)
(8.00214 -0.00571071 -5.72304e-24)
(8.00146 -0.00622524 -2.88342e-24)
(7.99725 -0.00656173 7.51821e-26)
(7.99561 -0.00646136 7.58357e-26)
(8.02091 -0.0076754 6.02439e-25)
(8.00022 -0.0030791 2.44975e-23)
(7.99493 -0.00183286 1.3085e-23)
(8.00827 0.0454653 -1.51636e-23)
(8.00426 0.0348263 0)
(8.0033 0.0272297 1.34803e-23)
(8.00131 0.0234729 -1.08472e-23)
(7.9995 0.0096618 8.04869e-23)
(8.00197 0.00638744 -2.73862e-23)
(8.00036 0.012546 3.1927e-23)
(7.99985 0.0197956 -1.00167e-23)
(8.00328 0.00475705 -2.37057e-23)
(8.00396 0.00353831 0)
(8.00339 0.00263334 3.23696e-24)
(7.99751 -0.000315493 0)
(8.00374 0.00156717 2.20756e-23)
(8.0041 0.00200945 -1.71733e-23)
(8.1297 0.102545 -1.63995e-23)
(8.17769 0.0904912 -9.42383e-23)
(8.20242 0.0620348 6.1517e-23)
(8.2956 0.0790804 0)
(8.22684 0.21351 0)
(8.25634 -0.00556244 -7.34989e-25)
(8.0562 0.113873 1.90942e-24)
(8.03775 0.102738 6.3206e-23)
(8.01471 0.0976333 1.36743e-23)
(8.01297 0.085187 0)
(8.00715 0.0781141 1.60098e-23)
(8.0921 0.126073 7.98726e-23)
(8.00825 0.0601227 -1.58694e-22)
(8.00469 -0.00246618 2.52568e-24)
(8.0036 -0.00314283 -1.39754e-23)
(8.00032 -0.00394741 9.06282e-25)
(8.00115 -0.00370127 -6.32678e-25)
(8.00066 -0.00435164 -6.4893e-25)
(8.00261 -0.00236952 1.09576e-25)
(8.00123 -0.00440632 0)
(8.00008 -0.00555638 -8.40246e-25)
(7.99815 -0.00644502 3.24916e-25)
(7.99599 -0.00584255 8.13609e-26)
(8.02385 -0.0066813 -3.28156e-25)
(7.99702 -0.00381438 0)
(7.99464 -0.00244748 0)
(7.9942 -0.00182469 1.31332e-23)
(8.00518 0.0479519 -6.45897e-23)
(8.00219 0.0419837 -4.33777e-23)
(8.00184 0.0381847 -4.39279e-23)
(8.0023 0.0304477 4.73683e-23)
(8.00163 0.0252756 -1.07875e-23)
(7.99955 0.0224469 -9.90399e-24)
(7.99753 0.00811717 2.39059e-23)
(7.99971 0.00556887 -3.59508e-23)
(7.99552 0.0151914 3.08953e-23)
(7.99676 0.0178072 -1.70916e-23)
(7.99895 0.0048511 -2.69481e-23)
(8.00246 0.00397938 1.10856e-23)
(8.00286 0.00232779 -1.33694e-23)
(7.99969 -0.000597452 0)
(8.00316 0.00175926 3.50988e-23)
(8.00294 0.00118064 -3.20769e-23)
(8.00197 0.00188659 -1.38916e-23)
(8.13097 0.121445 0)
(8.17938 0.111228 -3.85278e-23)
(8.28543 0.0764808 1.14122e-23)
(8.19995 0.0463175 9.93634e-23)
(8.257 0.106898 0)
(8.03374 0.124308 1.37055e-23)
(8.73793 -0.65093 0)
(8.34777 -0.12444 9.87457e-24)
(8.05927 0.132984 -3.44665e-23)
(8.04546 0.117428 0)
(8.01775 0.105593 1.36913e-23)
(8.0148 0.0967086 0)
(8.00894 0.0857942 0)
(8.00516 0.0768105 -6.51788e-24)
(8.08119 0.139687 0)
(8.11344 0.133194 4.3307e-23)
(8.00684 0.0679355 5.38863e-23)
(8.00522 0.0560554 -2.24091e-23)
(8.00413 -0.0022323 0)
(8.00402 -0.00255614 -3.28353e-24)
(8.00018 -0.00417467 6.74127e-24)
(8.00133 -0.00358786 2.34666e-24)
(8.00075 -0.00451164 3.29009e-24)
(7.99964 -0.00203879 0)
(8.00072 -0.00421734 0)
(8.00051 -0.00441697 1.92922e-25)
(7.99767 -0.00532499 7.08754e-26)
(7.99684 -0.00478469 -1.0492e-24)
(8.02079 -0.00375102 5.82774e-25)
(7.99408 -0.000695371 -3.05723e-25)
(7.99441 -0.00242316 0)
(7.99605 -0.00201135 1.49799e-23)
(7.99254 0.0464986 -5.45386e-25)
(7.99229 0.0431355 0)
(7.99801 0.0376607 -3.99145e-23)
(7.99957 0.030686 -1.25163e-22)
(7.99832 0.0268839 -3.16846e-23)
(7.9941 0.0229269 -4.80028e-23)
(7.99115 0.00891311 -4.65333e-23)
(7.98876 0.0141934 2.86376e-23)
(7.98922 0.0200303 -3.82229e-23)
(7.99215 0.00453263 -3.64922e-23)
(7.99938 0.00346229 2.7645e-23)
(7.99786 0.00318986 -2.37582e-23)
(8.00239 0.000351228 -1.85761e-23)
(7.99877 -0.00155923 0)
(8.00031 0.00220147 0)
(8.00125 0.00175864 9.53993e-25)
(7.99812 0.00190834 -1.02643e-24)
(8.1498 0.129915 0)
(8.19665 0.123479 1.84421e-23)
(8.31724 0.0907724 7.80775e-24)
(8.22432 0.0966329 -7.08822e-23)
(8.28066 0.121663 -6.84095e-23)
(7.88995 0.376527 -5.37035e-23)
(8.84164 -0.0878959 -1.23917e-22)
(8.37149 -0.0275575 -6.27089e-23)
(8.04401 0.148534 -3.56446e-23)
(8.03267 0.123038 1.04711e-23)
(8.01367 0.117305 0)
(8.01048 0.099608 0)
(8.00412 0.0866728 5.51108e-24)
(8.00012 0.0834836 0)
(8.07843 0.152686 1.43137e-24)
(8.11511 0.151932 0)
(7.99645 0.0696461 6.16945e-23)
(7.99462 0.0574432 0)
(8.00354 -0.00229703 -4.06726e-24)
(8.00327 -0.00295778 -2.20755e-23)
(8 -0.00404468 0)
(8.00051 -0.00400627 0)
(7.99995 -0.00396193 3.27921e-24)
(7.99469 -0.00247232 0)
(8.0003 -0.0022609 7.71136e-24)
(8.00018 -0.00340728 1.92802e-24)
(7.99859 -0.00386576 1.07989e-24)
(7.99653 -0.00267688 -1.19004e-24)
(8.02122 -0.0106221 0)
(7.99728 0.00170574 1.9313e-25)
(7.99583 -0.0022351 -1.83176e-23)
(7.99695 -0.00219253 -3.78805e-24)
(7.98801 0.0511597 -1.19417e-22)
(7.98917 0.0412215 2.5636e-23)
(7.99726 0.0323165 -1.41528e-22)
(7.99488 0.0360199 2.59987e-23)
(7.99409 0.0263721 -1.60418e-23)
(7.98943 0.0220813 -4.30703e-23)
(7.98664 0.00694771 -3.57718e-23)
(7.98654 0.0106258 -3.01946e-23)
(7.98459 0.0165324 2.14302e-23)
(7.98331 0.019884 -2.19244e-23)
(7.99047 0.00424426 1.61501e-23)
(7.99106 0.00335144 -1.99666e-23)
(8.00172 0.000321892 1.51782e-23)
(8.00103 -0.00157487 -1.2206e-23)
(7.99506 0.00240617 -4.35587e-24)
(7.99729 0.00226692 0)
(7.99891 0.00163409 1.30774e-23)
(7.98961 0.00275254 8.83813e-24)
(8.15274 0.14962 0)
(8.18895 0.152766 8.17466e-23)
(8.29212 0.100666 -2.68602e-23)
(8.31243 0.122632 -6.7941e-23)
(8.2533 0.150015 0)
(7.94047 0.206066 1.73384e-23)
(9.0321 -0.254866 0)
(8.37945 -0.0530162 2.21878e-24)
(8.03709 0.147879 5.54955e-24)
(8.05098 0.156771 -2.44126e-23)
(8.03173 0.138017 4.43682e-23)
(8.00997 0.12493 0)
(8.00802 0.109995 -1.17366e-23)
(8.00301 0.0943547 5.51622e-24)
(7.99544 0.0838698 -3.26502e-23)
(8.09259 0.160871 -2.07745e-23)
(8.1354 0.160383 0)
(7.99335 0.07751 -1.2241e-22)
(7.9911 0.0643981 -9.26542e-23)
(8.00321 -0.00248787 0)
(8.00393 -0.00290354 -1.45119e-23)
(8.00074 -0.0033351 -5.68986e-24)
(7.99991 -0.00348311 1.88172e-24)
(7.99315 -0.00248008 0)
(7.99782 -0.00219958 1.83575e-23)
(8.00002 -0.0029746 1.72015e-24)
(7.99868 -0.00225448 0)
(7.99736 -0.000798954 -1.85363e-24)
(8.01607 -0.00771171 -2.88421e-24)
(7.99323 0.00214603 6.81529e-26)
(7.99677 -0.00207335 0)
(7.9997 -0.00181828 -4.01119e-25)
(7.98367 0.0498342 -1.16389e-22)
(7.99012 0.0395093 1.16298e-22)
(7.99066 0.0318859 -1.24171e-22)
(7.99035 0.0337127 -7.81282e-24)
(7.99016 0.0274131 0)
(7.9867 0.0236989 -3.98015e-23)
(7.97785 0.00857285 1.02266e-23)
(7.9793 0.0136202 -2.59733e-24)
(7.98326 0.0159739 1.68796e-23)
(7.98844 0.0213608 0)
(7.98019 0.00464901 -1.31482e-23)
(7.98093 0.00331803 -1.28678e-23)
(8.00057 -0.000524035 -1.22538e-23)
(7.98236 0.00283804 0)
(7.98863 0.00233758 1.55593e-23)
(7.99357 0.00212201 -2.19771e-24)
(7.9793 0.00374543 9.04541e-24)
(8.17017 0.162656 8.12438e-23)
(8.20328 0.164172 2.96299e-23)
(8.29708 0.0963573 -3.58118e-23)
(8.33331 0.126385 0)
(8.27304 0.157501 -7.3367e-23)
(7.72036 0.13346 0)
(9.12913 0.0151114 0)
(8.50859 0.0126605 -1.16492e-23)
(8.03535 0.165651 -2.75146e-23)
(8.04925 0.170858 -2.54262e-23)
(8.01476 0.140989 -9.11613e-23)
(8.0088 0.122664 -7.71497e-24)
(7.99482 0.109407 -4.73228e-23)
(7.99548 0.0971266 -2.76173e-23)
(7.9929 0.0933612 -2.73198e-23)
(8.08356 0.177649 -1.7296e-23)
(8.12919 0.177708 0)
(7.9846 0.0790523 -1.06212e-22)
(7.98046 0.0619402 -4.44807e-23)
(8.00197 -0.00215471 -9.81701e-24)
(8.00327 -0.00283107 7.15874e-24)
(8.00283 -0.00277045 7.38699e-24)
(7.99985 -0.00303282 -5.75323e-24)
(7.99953 -0.0029746 0)
(7.99432 -0.00236731 1.83853e-23)
(7.99557 -0.002449 0)
(7.99895 -0.0024128 6.4332e-24)
(7.99976 -0.00224352 1.7466e-24)
(7.9998 -0.00244082 1.69096e-24)
(7.9982 -0.00156983 0)
(7.99805 5.0651e-05 -3.34508e-24)
(8.01276 -0.0180699 -1.46357e-24)
(7.9949 0.0065788 -2.20143e-24)
(7.99651 0.00393446 8.92785e-25)
(7.99952 -0.00148462 0)
(8.00034 -0.00152193 5.42159e-24)
(7.98472 0.0446342 -6.38909e-23)
(7.97716 0.0560639 0)
(7.98604 0.0407216 5.49011e-23)
(7.98886 0.0297179 -7.43199e-23)
(7.98742 0.0347231 -5.68452e-23)
(7.98683 0.0260612 0)
(7.98691 0.0229539 1.74583e-23)
(7.98772 0.0245936 -3.9088e-23)
(7.9771 0.00663703 -9.89044e-24)
(7.97975 0.0119158 0)
(7.98462 0.0136238 -9.50925e-24)
(7.99669 0.0177902 -6.48774e-23)
(7.99674 0.0199262 0)
(7.97119 0.00364429 -8.10912e-24)
(7.99838 -0.000385199 0)
(7.97926 0.00324886 1.27491e-23)
(7.98525 0.00245104 0)
(7.98749 0.00143763 -3.52174e-23)
(7.97209 0.00354162 1.58827e-23)
(8.17168 0.177788 0)
(8.20666 0.188233 7.6081e-24)
(8.33022 0.0725541 -6.89725e-23)
(8.33561 0.110474 6.63634e-24)
(8.31808 0.138509 -7.18644e-23)
(8.26279 0.176407 0)
(8.0412 0.018522 0)
(8.34211 0.0765305 -2.44028e-23)
(9.24455 -0.344459 0)
(8.02231 0.173309 7.52172e-23)
(8.04398 0.174908 1.16057e-23)
(8.05897 0.181155 3.12719e-24)
(8.01192 0.14964 -9.16806e-23)
(8.00239 0.134112 0)
(7.98814 0.118279 -1.9568e-23)
(7.98638 0.093705 -9.93975e-24)
(8.09896 0.186697 2.45804e-23)
(8.1464 0.185763 0)
(7.98282 0.0869792 -1.35983e-22)
(7.97573 0.0709083 3.28112e-23)
(8.00229 -0.00223969 -1.08914e-23)
(8.00245 -0.00205928 -1.07141e-24)
(8.00071 -0.00234449 0)
(7.99948 -0.00238993 0)
(7.99353 -0.00261191 2.94516e-23)
(7.99736 -0.00230249 0)
(7.9957 -0.00249481 6.82887e-24)
(7.99994 -0.00170045 1.41618e-24)
(7.99978 -0.00142693 -2.19253e-24)
(7.99839 -0.0013943 1.31033e-24)
(8.00043 -0.000998155 -1.28314e-24)
(7.99937 0.00290432 -3.13767e-24)
(7.99695 0.00133418 0)
(8.00064 -0.0025457 6.62868e-25)
(7.99977 -0.00130399 5.32188e-23)
(7.99867 -0.00162568 5.37779e-24)
(7.97722 0.0427745 0)
(7.97154 0.0531363 -4.33246e-23)
(7.98133 0.0385891 0)
(7.98603 0.0289699 -6.42106e-24)
(7.98406 0.0335588 0)
(7.98631 0.0267574 7.82346e-24)
(7.99305 0.023382 -1.16755e-23)
(7.9914 0.0244248 6.33543e-23)
(7.97607 0.00656765 4.7842e-24)
(7.98911 0.0123775 0)
(7.99135 0.0134581 0)
(8.00788 0.0156001 -5.65852e-23)
(8.00642 0.0190027 2.38708e-23)
(7.97394 0.00555269 -2.83179e-24)
(7.99195 4.97239e-06 -2.77473e-23)
(7.96767 0.00490213 1.52964e-23)
(7.97351 0.00407778 -1.24934e-23)
(7.97302 0.00272813 1.77871e-23)
(7.96837 0.00464849 -2.39181e-24)
(8.17819 0.196232 0)
(8.19629 0.199576 -1.7137e-23)
(8.22314 0.19408 0)
(8.36024 0.0775086 -3.23615e-23)
(8.35947 0.110873 6.70138e-24)
(8.33374 0.148483 0)
(8.27942 0.188852 -7.47199e-24)
(8.04425 0.112814 1.30398e-23)
(8.42506 0.142818 -1.37063e-23)
(9.13072 -0.3443 1.32881e-24)
(8.02049 0.188169 -3.08326e-23)
(8.01154 0.16512 1.29535e-22)
(8.04628 0.194759 -1.80218e-23)
(8.05701 0.195629 2.78168e-23)
(8.005 0.146962 0)
(7.98735 0.131899 0)
(7.98271 0.116639 2.40226e-23)
(7.98286 0.102983 9.19747e-24)
(8.08876 0.20272 -2.30572e-24)
(8.13644 0.202246 1.70429e-23)
(7.97425 0.0863386 -9.46448e-23)
(7.96762 0.0736674 2.70647e-23)
(8.00104 -0.00215118 1.35982e-23)
(8.00272 -0.00165546 0)
(8.00051 -0.00194507 1.60714e-24)
(7.99919 -0.00212662 4.91164e-24)
(7.99389 -0.00294149 1.09744e-23)
(7.99915 -0.00193863 9.11531e-23)
(7.9968 -0.0028802 2.29146e-23)
(7.99637 -0.00244205 6.84707e-24)
(7.99995 -0.00192345 0)
(7.9999 -0.00152691 1.00638e-24)
(7.99852 -0.0018989 -7.88976e-25)
(7.99982 -0.000813415 -1.53833e-25)
(7.99981 -0.000930506 -1.15613e-24)
(7.99766 -0.000954614 2.38087e-23)
(7.99658 -0.000939368 7.90111e-24)
(7.9739 0.0396529 -9.71744e-24)
(7.97313 0.0470658 5.33902e-23)
(7.9669 0.0622558 -4.16608e-23)
(7.97739 0.0374278 2.0705e-24)
(7.98217 0.0348797 8.08079e-24)
(7.9842 0.030822 0)
(7.99057 0.0278682 8.33596e-24)
(8.00195 0.0215314 -2.93951e-23)
(7.99364 0.0260983 6.43037e-23)
(7.98491 0.00965378 -2.61002e-23)
(7.9969 0.0115252 0)
(8.00494 0.0138429 0)
(8.02475 0.0140325 1.93049e-24)
(8.02123 0.0155245 2.43655e-23)
(7.98154 0.00731292 -1.68296e-24)
(7.98651 -0.000260658 -1.21446e-23)
(7.96827 0.00411266 -1.98387e-23)
(7.97264 0.00470362 2.04812e-23)
(7.97062 0.00438583 1.52247e-23)
(7.96659 0.00282722 0)
(7.98582 0.00696853 -9.34228e-24)
(8.15738 0.210602 1.73043e-23)
(8.19909 0.226477 4.65826e-24)
(8.22728 0.21246 -2.23879e-23)
(8.37908 0.0810017 0)
(8.3794 0.131901 -1.69978e-23)
(8.3097 0.181773 0)
(8.36532 0.146788 0)
(8.25179 0.209368 -3.83555e-23)
(7.88097 -0.135371 1.47094e-23)
(8.36843 -0.0868172 0)
(9.11901 0.250593 -4.98615e-22)
(8.03089 0.200234 -2.97119e-23)
(8.00635 0.193769 -3.08041e-23)
(8.00104 0.171681 5.7675e-23)
(8.05313 0.203195 1.20021e-23)
(8.06496 0.206394 -1.29495e-23)
(7.99544 0.150053 0)
(7.98196 0.14147 0)
(7.97345 0.122528 -3.84266e-23)
(7.96996 0.100255 0)
(8.1034 0.210705 -1.78949e-23)
(7.96863 0.0932234 4.86736e-24)
(7.96552 0.0797312 -2.69047e-23)
(7.96835 0.0714839 0)
(8.00156 -0.00169037 2.57222e-23)
(8.00218 -0.00165915 6.35627e-24)
(8.00148 -0.00199948 -2.87176e-24)
(7.99949 -0.00211543 -7.8439e-24)
(7.99562 -0.00311858 0)
(7.99886 -0.0019449 3.05601e-23)
(7.99932 -0.00317527 3.46072e-23)
(7.99443 -0.00191633 3.91305e-24)
(7.99988 -0.00182386 0)
(8.0007 -0.00191223 3.59045e-24)
(7.99824 -0.00174147 -2.33396e-24)
(7.99968 -0.000325851 0)
(8.00004 0.000156216 -2.43348e-25)
(7.99599 -0.00113443 1.41604e-24)
(7.99291 -0.000783657 -1.68259e-23)
(7.96902 0.0359918 -4.45184e-23)
(7.96617 0.0452211 5.03807e-23)
(7.95392 0.061016 7.21251e-23)
(7.97685 0.0341281 -6.79555e-23)
(7.98088 0.0328916 7.32919e-24)
(7.98655 0.0291409 0)
(7.9931 0.0253883 1.83232e-23)
(8.01402 0.0203955 -4.17969e-23)
(8.00383 0.0240749 -8.72756e-23)
(8.00016 0.00964753 -2.66114e-23)
(7.99507 0.00856332 -1.08492e-23)
(8.01954 0.0121518 -2.28245e-23)
(8.02045 0.0132822 -1.64729e-24)
(8.02418 0.0134821 0)
(8.03049 0.0116948 0)
(8.02242 0.0156452 -4.23791e-23)
(7.97107 0.00102633 2.39599e-25)
(7.96436 0.00547179 1.36871e-24)
(7.98363 0.00482044 -5.58807e-24)
(7.96617 0.00447908 7.74553e-24)
(7.96687 0.00188314 -8.81621e-24)
(7.96558 0.00355117 -7.10938e-24)
(8.01474 0.00524165 2.08396e-23)