/*--------------------------------*- C++ -*----------------------------------*\
| =========                 |                                                 |
| \\      /  F ield         | OpenFOAM: The Open Source CFD Toolbox           |
|  \\    /   O peration     | Version:  v2012                                 |
|   \\  /    A nd           | Website:  www.openfoam.com                      |
|    \\/     M anipulation  |                                                 |
\*---------------------------------------------------------------------------*/
FoamFile
{
    version     2.0;
    format      ascii;
    class       surfaceVectorField;
    location    "1.3";
    object      Uf;
}
// * * * * * * * * * * * * * * * * * * * * * * * * * * * * * * * * * * * * * //

dimensions      [0 1 -1 0 0 0 0];


internalField   nonuniform List<vector> 
21888
(
(7.85489 -0.0324622 -2.511e-20)
(7.86913 -0.00942321 1.56607e-23)
(7.95157 -0.0357816 1.37248e-23)
(7.89217 -0.0386846 -2.17528e-21)
(7.88057 0.00408734 -6.69552e-24)
(7.92569 -0.00521923 -6.89661e-24)
(7.99352 -0.020667 5.86208e-21)
(8.03181 -0.0334255 -6.16868e-24)
(7.90442 -0.0763595 3.78144e-20)
(7.95223 -0.0309469 -1.16724e-23)
(7.88856 -0.017633 -1.6131e-21)
(8.0129 -0.017509 3.27005e-21)
(8.06676 -0.0322528 0)
(8.0727 -0.020833 -1.35622e-23)
(7.88026 -0.0992723 -2.32734e-20)
(8.02949 -0.0267997 0)
(7.9979 -0.0341069 -3.90813e-24)
(7.93764 -0.0305753 -2.68434e-24)
(7.89855 -0.0250967 -4.34453e-21)
(8.0051 -0.0240132 1.60967e-21)
(8.05172 -0.0216952 -3.86778e-22)
(8.09004 -0.0291408 0)
(8.07404 -0.0187931 -1.91563e-21)
(8.07152 -0.018945 4.60829e-22)
(7.93105 -0.0711466 7.30806e-24)
(7.93434 -0.0419906 -2.14916e-23)
(7.98474 -0.0376907 -7.73719e-21)
(8.05388 -0.0448685 -4.5456e-22)
(7.99604 -0.0285259 -1.58176e-23)
(7.91986 -0.024931 -3.89559e-21)
(8.06859 -0.0225075 -1.70209e-24)
(8.06527 -0.0211551 -4.64017e-22)
(8.10167 -0.032201 -1.4272e-24)
(8.09925 -0.0233914 -1.34297e-24)
(8.06709 -0.0150595 -2.26782e-23)
(8.05426 -0.0135171 3.24869e-24)
(8.06574 -0.0152528 1.31497e-21)
(7.89907 -0.062164 1.284e-23)
(8.00515 -0.0298202 -1.17331e-20)
(8.10636 -0.0416135 1.04741e-23)
(8.03391 -0.0273194 -8.2131e-24)
(7.99174 -0.0332702 1.36909e-21)
(7.94998 -0.0341146 -2.01169e-24)
(7.93135 -0.0280355 1.35192e-24)
(8.06215 -0.0211043 -9.22155e-25)
(8.06196 -0.0185614 7.75993e-24)
(8.07743 -0.0174112 -5.78205e-22)
(8.0846 -0.0170843 -5.90924e-22)
(8.05893 -0.00890381 -2.00925e-23)
(8.0435 -0.00739391 -6.46882e-22)
(8.04556 -0.0116681 -1.0025e-22)
(8.0598 -0.0146032 -1.24915e-21)
(8.05507 -0.0123638 2.91667e-24)
(7.94304 -0.0358575 -1.12648e-21)
(7.91025 -0.0442132 1.13611e-23)
(8.09136 -0.0355054 3.83068e-24)
(8.03962 -0.0284434 -1.4303e-21)
(8.12459 -0.0406746 5.46151e-22)
(8.05756 -0.0267866 6.23986e-24)
(7.99556 -0.0384841 -7.25705e-24)
(7.95357 -0.0311466 3.63656e-21)
(8.05541 -0.0156721 1.10066e-23)
(8.09701 -0.0228064 -5.67437e-23)
(8.07357 -0.0117881 7.64649e-23)
(8.04696 -0.00584727 -9.49598e-24)
(8.05251 -0.0056384 -9.62463e-22)
(8.04331 -0.00470821 1.09369e-23)
(8.04002 -0.00521138 2.27054e-22)
(8.04621 -0.0118615 -5.07584e-24)
(8.03974 -0.0105612 -4.76464e-22)
(8.04294 -0.0112831 3.11784e-24)
(8.00581 -0.0270063 1.00701e-23)
(8.00075 -0.0265453 1.8693e-23)
(7.87975 -0.0341162 1.33812e-24)
(8.07016 -0.0265219 9.84884e-26)
(8.11968 -0.027283 2.82731e-23)
(8.04701 -0.0324362 -4.51456e-22)
(8.05335 -0.0224226 7.35209e-23)
(8.0226 -0.0398361 1.01517e-22)
(7.99604 -0.0385989 5.1501e-25)
(7.97436 -0.0376605 -3.94947e-24)
(7.96469 -0.0320586 1.68339e-24)
(8.05057 -0.0162655 2.0162e-24)
(8.04612 -0.0126559 -6.54514e-23)
(8.05781 -0.00660826 -1.29114e-23)
(8.06455 -0.00792607 1.45693e-23)
(8.04315 -0.00251226 0)
(8.05092 -0.00214387 -3.63879e-23)
(8.03535 -0.00666817 1.16185e-21)
(8.036 -0.0035022 -3.03679e-23)
(8.03381 -0.00765511 -3.76914e-23)
(8.03967 -0.0109318 -1.18943e-22)
(8.03595 -0.00965471 -3.51966e-22)
(8.0443 -0.0335885 9.37091e-24)
(7.99459 -0.0348034 1.08054e-21)
(7.92635 -0.0396682 7.86109e-23)
(7.86956 -0.0317497 1.32359e-24)
(8.08565 -0.026315 0)
(8.11141 -0.0198708 0)
(8.13222 -0.0170998 0)
(8.10207 -0.0107767 1.18856e-23)
(8.03715 -0.0310656 -6.57091e-25)
(8.04339 -0.0181839 -5.84479e-25)
(8.00049 -0.0349416 0)
(7.98368 -0.0295687 -5.832e-21)
(8.03728 -0.0114363 1.05594e-23)
(8.07057 -0.00650153 4.71661e-21)
(8.0619 -0.00195264 -5.30412e-24)
(8.04309 0.000608395 0)
(8.03961 0.0003786 8.11395e-24)
(8.04734 0.000673555 -7.46939e-24)
(8.05116 0.00080482 -1.2495e-23)
(8.03681 -0.000296341 1.10645e-21)
(8.03128 -0.00019672 1.00655e-23)
(8.02928 -0.00596485 -7.17848e-24)
(8.08694 -0.0314317 1.03143e-23)
(8.00139 -0.0321817 9.81981e-24)
(7.86515 -0.00287494 0)
(8.142 -0.00940996 4.82729e-25)
(8.07983 -0.00124591 1.19839e-23)
(8.0252 -0.0316813 -7.62995e-24)
(8.03575 -0.0248436 3.58116e-22)
(8.03792 -0.0150708 0)
(8.03978 -0.0184452 0)
(8.01061 -0.0353536 7.84269e-24)
(7.992 -0.0355856 9.44004e-22)
(7.99373 -0.0248695 -5.70938e-22)
(8.03493 -0.0127958 0)
(8.02937 -0.0104804 0)
(8.05519 0.000840925 9.41839e-22)
(8.0599 0.00161526 7.63603e-24)
(8.0383 0.00256267 -6.07316e-24)
(8.0318 0.00281442 1.00661e-22)
(8.0462 0.00341864 -1.34827e-23)
(8.02673 0.00217453 0)
(8.02838 0.00148172 2.5219e-23)
(8.025 -0.00772527 0)
(8.0246 -0.00390784 1.97546e-23)
(8.12697 -0.020264 1.15954e-23)
(8.08961 -0.0225745 2.20001e-21)
(8.04553 -0.0158969 6.72566e-24)
(8.00944 -0.0179668 0)
(7.94862 -0.00390495 0)
(7.88541 -0.028286 0)
(8.14974 -0.00894909 1.53596e-23)
(8.12863 -0.00512787 4.89491e-22)
(8.08946 0.000997746 1.16494e-25)
(8.07807 0.00698935 1.65855e-23)
(8.03746 -0.0208287 -6.24221e-24)
(8.03229 -0.0231352 -7.13238e-24)
(8.03243 -0.0136086 3.13187e-24)
(8.03502 -0.0168739 9.63806e-25)
(8.00277 -0.0348482 -2.23188e-21)
(8.01521 -0.0293532 9.80194e-23)
(7.99944 -0.0326113 1.35795e-23)
(8.011 -0.0188401 5.20078e-24)
(8.0225 -0.00912211 0)
(8.05978 0.00724806 -3.58327e-23)
(8.04987 0.00686116 -4.33328e-22)
(8.03349 0.00448499 -7.44083e-24)
(8.02965 0.00334799 -2.98313e-22)
(8.02659 0.00416351 -1.0185e-24)
(8.02577 0.00297444 1.35633e-23)
(8.04071 0.00722947 -1.45434e-24)
(8.03672 0.00603214 -9.88836e-24)
(8.02443 0.00240842 1.61027e-24)
(8.02368 0.00323207 5.3657e-24)
(8.02564 4.38211e-05 -2.49597e-22)
(8.02495 0.00283529 1.33463e-22)
(8.02282 -0.00380034 1.26985e-24)
(8.16143 -0.00641519 -3.31163e-22)
(8.08185 -0.0121275 -1.18116e-21)
(8.01284 -0.00490616 -1.42621e-23)
(7.84575 -0.0980503 0)
(8.10075 0.000479159 -1.10606e-21)
(8.07017 0.00986429 3.21715e-23)
(8.07694 0.0104557 9.25014e-22)
(8.0265 -0.0235675 -2.13631e-24)
(8.02869 -0.0184352 9.19197e-25)
(8.03095 -0.0139143 4.02045e-24)
(8.02573 -0.0118547 -7.18716e-23)
(8.03046 -0.0145918 4.04457e-23)
(8.01857 -0.0212908 -3.3747e-25)
(7.9937 -0.0307443 -4.02229e-21)
(8.00187 -0.0273886 -9.89165e-23)
(8.00631 -0.0286428 4.37578e-24)
(8.02953 -0.0106371 0)
(8.0205 -0.00930639 3.28444e-24)
(8.01953 -0.00760096 -1.82277e-23)
(8.05441 0.0151335 -2.50301e-21)
(8.04169 0.0119038 4.3425e-24)
(8.03237 0.00839706 4.11398e-23)
(8.02622 0.0046722 -5.30289e-24)
(8.02702 0.00645731 -5.45463e-24)
(8.02506 0.00456278 -1.39279e-23)
(8.0235 0.00365905 1.92535e-24)
(8.02302 0.00292456 5.31425e-24)
(8.02018 -0.00534738 1.11813e-22)
(8.02073 -0.00270548 -4.07679e-23)
(8.1532 -0.00488043 -7.34888e-22)
(8.16238 -0.00322655 6.3278e-21)
(8.05724 -0.00871512 -3.03077e-21)
(8.10913 -0.0103287 -4.51481e-23)
(8.03051 -0.0194727 -1.60091e-23)
(7.98172 -0.0748069 0)
(7.90258 -0.0423698 -1.21621e-22)
(8.11455 -0.00178459 -1.86156e-23)
(8.09317 0.00528463 1.98375e-23)
(8.07526 0.0116626 5.80319e-23)
(8.06023 0.0155823 -6.98401e-22)
(8.02535 -0.0136422 -8.91622e-26)
(8.01886 -0.00954231 1.1812e-23)
(8.01097 -0.0220023 8.45629e-22)
(8.01908 -0.0163868 5.94331e-22)
(7.99552 -0.0278702 1.15584e-24)
(8.00281 -0.022293 3.07029e-24)
(8.04402 -0.00909418 -2.62194e-24)
(8.01759 -0.00570687 -1.93844e-23)
(8.05161 0.0170254 2.64672e-23)
(8.04797 0.014684 -1.1787e-21)
(8.04436 0.0165574 -9.49599e-22)
(8.03928 0.0165261 -2.65047e-24)
(8.02914 0.00942048 2.85589e-23)
(8.0319 0.0118207 5.13261e-22)
(8.02659 0.00951664 0)
(8.02342 0.00512142 -1.35509e-23)
(8.02317 0.00528203 -9.94817e-23)
(8.02124 0.00565902 0)
(8.02198 0.00142947 -1.13572e-22)
(8.02089 0.00316728 -1.3194e-24)
(8.02022 -0.000239651 -2.89327e-24)
(8.01769 -0.00144862 2.9162e-22)
(8.1298 0.0017897 -9.54213e-24)
(8.15158 0.00776655 -2.89128e-23)
(8.10694 -0.0460894 0)
(8.01003 0.0736309 -1.63993e-20)
(8.05591 -0.132591 9.65415e-20)
(8.0847 0.0101983 -8.06524e-22)
(8.09278 0.0126585 4.95111e-23)
(8.07488 0.0162364 3.01355e-23)
(8.05068 0.0188281 5.88995e-24)
(8.02118 -0.0124176 -5.91435e-23)
(8.01933 -0.0104607 1.47591e-22)
(8.01744 -0.0094634 3.56951e-22)
(8.01598 -0.00777379 2.31439e-24)
(8.02087 -0.0142379 3.80851e-22)
(8.01765 -0.0149009 -1.00761e-23)
(7.99347 -0.0224511 -9.16473e-22)
(7.9931 -0.0236033 -2.41408e-24)
(8.00781 -0.0174852 2.13257e-24)
(7.99813 -0.0210476 0)
(8.01987 -0.0178972 -6.222e-24)
(8.05037 -0.0121819 9.74393e-21)
(8.01525 -0.00588858 1.64846e-24)
(8.01572 -0.00400254 3.86353e-24)
(8.04625 0.0185605 -1.25162e-21)
(8.03458 0.0154303 3.06998e-23)
(8.03443 0.0190634 2.47354e-24)
(8.02699 0.0152633 2.39829e-23)
(8.02303 0.00767912 -1.37123e-23)
(8.02104 0.0103342 0)
(8.01858 0.00757223 -1.22696e-23)
(8.01989 0.00429055 0)
(8.0181 0.0062531 0)
(8.01822 0.00208107 -1.54489e-24)
(8.01774 0.00350181 -1.09866e-23)
(8.01596 -0.00209645 -5.45029e-25)
(8.01506 -0.000243029 4.22826e-23)
(8.11177 0.0143736 2.0623e-23)
(8.13425 0.00812013 -1.60185e-23)
(8.16855 0.00550901 0)
(8.16232 0.0207483 -1.57343e-23)
(8.17341 -0.0225505 2.51352e-23)
(8.12382 0.0466158 1.94501e-24)
(8.05026 0.0495036 -1.18971e-23)
(8.1196 -0.101055 -2.27212e-23)
(8.0938 0.0218531 5.46111e-22)
(8.07239 0.0236262 0)
(8.06112 0.0238696 0)
(8.05039 0.0204681 7.30043e-22)
(8.05201 0.0230237 -1.13065e-23)
(8.0165 -0.0114164 8.30283e-24)
(8.01454 -0.00893726 -3.39779e-22)
(8.01364 -0.00624938 9.18756e-24)
(8.01471 -0.0146827 2.47942e-24)
(7.98828 -0.0142835 -3.64402e-24)
(7.99363 -0.0173586 0)
(8.06433 -0.0213994 -6.69634e-24)
(8.01383 -0.00252601 -3.00031e-22)
(8.04745 0.0219934 1.6465e-23)
(8.02696 0.0217884 -5.11574e-24)
(8.03233 0.023864 -4.96821e-23)
(8.02206 0.019629 1.749e-22)
(8.01956 0.0164424 -8.14247e-24)
(8.01653 0.0133179 0)
(8.01185 0.010899 -8.88579e-24)
(8.01256 0.00842605 4.89639e-24)
(8.01524 0.00789453 1.0726e-24)
(8.01568 0.00687138 1.03783e-24)
(8.01504 0.00560458 -1.11426e-23)
(8.01555 0.00371223 -1.28373e-23)
(8.01486 0.0028307 0)
(8.01468 0.00407529 -3.67226e-22)
(8.01393 0.00117769 -1.78567e-24)
(8.01277 0.000379862 -1.96732e-23)
(8.14333 0.0117743 -3.99641e-21)
(8.12827 0.0137726 -1.522e-23)
(8.14473 0.0159259 -1.52951e-23)
(8.16159 0.00798121 -1.69182e-20)
(7.86293 0.0927441 -5.47629e-20)
(8.04762 -0.0156083 1.45014e-20)
(7.97298 0.183043 -3.39107e-23)
(8.4143 0.0996843 0)
(8.08263 0.0263552 2.10298e-23)
(8.0936 0.0279537 1.78124e-23)
(8.07355 0.0321559 1.92376e-24)
(8.05449 0.029989 0)
(8.01227 -0.00853857 0)
(8.01217 -0.0103492 0)
(8.01254 -0.00680508 -4.21895e-23)
(8.01228 -0.00774867 6.83581e-24)
(8.01218 -0.00539172 8.46483e-24)
(8.01328 -0.0129287 0)
(8.01271 -0.0142168 0)
(7.98999 -0.0110111 0)
(7.98728 -0.0042569 -1.1839e-24)
(8.00227 -0.0133829 0)
(8.04636 -0.0404651 -6.12499e-24)
(8.02463 -0.00589256 2.46115e-21)
(8.01268 -0.00310893 2.95369e-24)
(8.0124 -0.00146663 -1.56353e-23)
(8.04035 0.025658 -1.20526e-22)
(8.04822 0.0274055 6.28724e-24)
(8.01856 0.0226235 -1.65292e-23)
(8.0293 0.0291086 -2.50986e-23)
(8.01195 0.0173931 -1.94226e-23)
(8.00888 0.00947839 6.75598e-23)
(8.00611 0.0118838 2.81349e-22)
(8.00668 0.00821654 1.19827e-22)
(8.01043 0.00706571 1.62013e-23)
(8.01083 0.00520846 -2.13095e-24)
(8.01263 0.00313028 0)
(8.01187 -0.000438785 -1.30202e-22)
(8.01066 0.000583182 -7.88682e-24)
(8.11109 0.0212621 0)
(8.12918 0.0193551 0)
(8.14277 0.00389475 2.91999e-23)
(8.15029 0.00497465 0)
(8.14809 0.0154739 -6.70924e-22)
(7.792 0.22219 -2.7945e-21)
(8.13114 0.00237572 -2.14975e-23)
(8.10511 -0.0223513 -4.71005e-23)
(8.50537 0.108536 -2.76346e-24)
(8.09887 0.0332632 1.04339e-23)
(8.06787 0.038932 9.39458e-24)
(8.07854 0.0399596 -8.08676e-22)
(8.05199 0.0306762 -3.0769e-24)
(8.05537 0.035486 9.83542e-24)
(8.01057 -0.00751637 -6.43699e-25)
(8.01167 -0.0114357 0)
(8.00987 -0.00964701 0)
(8.01183 -0.00423658 -5.55207e-25)
(8.01085 -0.00521126 5.34891e-24)
(8.01002 -0.0113019 0)
(8.01057 -0.0139461 0)
(7.99372 0.0018779 -5.37587e-24)
(7.99688 -0.0115942 -1.04336e-21)
(8.04607 -0.0252812 2.74999e-20)
(7.9939 -0.0011784 1.5019e-21)
(8.01151 -0.00334127 -1.07202e-22)
(8.01116 -0.00148229 -2.67711e-23)
(8.042 0.0321251 1.01974e-22)
(8.01466 0.0254832 -3.42492e-22)
(8.01109 0.0221628 -7.43617e-24)
(8.02945 0.0322601 -2.38413e-23)
(8.02187 0.0309923 -4.99355e-23)
(8.00629 0.0171683 -2.21241e-22)
(8.00862 0.019268 -1.00033e-22)
(8.00401 0.0144611 -2.54043e-23)
(8.00265 0.0117742 -3.34025e-22)
(8.00557 0.00763874 -7.99052e-25)
(8.00306 0.00845112 -1.6002e-23)
(8.00571 0.0070508 1.3059e-23)
(8.0055 0.00633801 -1.95668e-22)
(8.00602 0.00486069 -7.46561e-25)
(8.00992 0.00265565 1.11677e-23)
(8.00879 0.00338259 -1.33032e-23)
(8.00907 0.00160888 3.88562e-23)
(8.0082 0.000760891 2.3149e-23)
(8.14454 0.0200469 0)
(8.12737 0.0291224 2.10918e-23)
(8.16012 0.0157908 -2.36309e-23)
(8.17636 0.0115006 -2.38225e-23)
(8.06583 0.120837 -7.88389e-24)
(7.74554 0.149842 -4.02248e-21)
(7.95999 0.0518006 1.01536e-20)
(8.12126 0.0104677 -2.65662e-23)
(8.44494 0.0259657 1.10647e-20)
(8.09096 0.04211 1.33958e-23)
(8.10727 0.0377168 9.44217e-22)
(8.05726 0.0405863 1.56201e-21)
(8.06141 0.0486134 6.45614e-24)
(8.08259 0.0491043 8.9246e-24)
(8.04546 0.0411187 -4.87752e-23)
(8.00982 -0.00622147 -2.60705e-25)
(8.00909 -0.00720113 -1.35597e-23)
(8.00823 -0.00816158 -1.9943e-24)
(8.00763 -0.00895858 0)
(8.00961 -0.00498685 -6.86359e-24)
(8.00804 -0.0100315 0)
(8.00872 -0.0111476 1.38178e-24)
(8.00919 -0.0119482 1.53933e-24)
(8.0088 -0.0134545 -1.85908e-24)
(8.00438 -0.0162476 7.57926e-22)
(8.00136 -0.0179766 1.10833e-21)
(8.00662 -0.00647024 -1.41485e-23)
(8.01779 -0.0165395 -1.49629e-23)
(7.99902 -0.0143811 -1.76587e-21)
(8.01092 -0.00236937 -1.04417e-22)
(8.0105 -0.00283737 -1.65953e-23)
(8.00983 -0.00133362 -8.05071e-24)
(8.03238 0.0350022 -3.57588e-24)
(8.01498 0.0294939 1.90568e-24)
(8.01046 0.0293901 3.21303e-23)
(8.00857 0.0211542 -1.8358e-23)
(8.00719 0.0238567 0)
(8.01475 0.0342006 6.3225e-22)
(8.00316 0.0177914 2.4574e-22)
(8.00582 0.0201436 -1.77959e-23)
(8.00165 0.00975598 -9.52341e-23)
(8.00146 0.0118483 -3.71489e-23)
(8.00102 0.00822022 -1.53163e-23)
(8.00252 0.00680039 1.29609e-23)
(8.00555 0.00376797 -1.41535e-22)
(8.00212 0.00468327 3.18664e-23)
(8.00538 0.00231513 8.20631e-24)
(8.00269 0.00312611 1.90696e-22)
(8.00357 0.000835565 -4.462e-23)
(8.00697 -4.88189e-06 5.78072e-23)
(8.12163 0.0410219 5.24606e-22)
(8.18184 0.024525 4.48243e-21)
(8.16632 0.03842 -2.16056e-23)
(8.18923 0.0229618 -1.94595e-23)
(7.72984 0.0798225 -3.63795e-23)
(8.17015 0.0250915 0)
(8.14911 0.0196653 2.06489e-23)
(8.39997 -0.0576009 9.80949e-24)
(8.06889 0.0554306 1.95512e-23)
(8.05381 0.0555039 0)
(8.07792 0.0547926 2.4307e-22)
(8.08671 0.055872 -7.19244e-24)
(8.03372 0.0395689 1.86216e-22)
(8.03544 0.0458597 2.11163e-24)
(8.00763 -0.00704847 -4.428e-23)
(8.00651 -0.00888149 4.3845e-24)
(8.00957 -0.00372607 -1.10221e-22)
(8.00851 -0.00474404 -7.40368e-24)
(8.00777 -0.0109433 -1.24344e-22)
(8.00369 -0.0112424 -7.45297e-25)
(8.00127 -0.0113315 -2.95655e-24)
(8.00704 -0.0140008 6.22793e-25)
(8.01255 -0.0249287 1.31584e-20)
(8.00946 -0.0026495 -7.96749e-24)
(8.00803 -0.000738893 8.97858e-24)
(8.00846 -0.00132796 9.52489e-25)
(8.02384 0.0387516 -6.51431e-25)
(8.00649 0.0272109 4.11055e-23)
(8.00744 0.0316628 3.69903e-22)
(8.00546 0.0248445 -1.52804e-23)
(8.01697 0.0380044 -2.08879e-23)
(8.01169 0.0370889 -2.16573e-23)
(8.00335 0.0199677 -1.48186e-23)
(8.00326 0.0185744 -1.97502e-23)
(8.00396 0.0220583 -1.52902e-23)
(8.00117 0.0114148 -5.17652e-23)
(8.00244 0.013981 -3.89685e-22)
(8.00065 0.00761898 0)
(8.00001 0.00824469 -8.5917e-24)
(8.00004 0.00696041 0)
(7.99945 0.00561994 -8.5418e-24)
(7.9989 0.004362 1.71589e-22)
(8.00134 0.00267513 -1.20507e-22)
(8.00084 0.00199204 -1.13547e-22)
(7.99936 0.00331047 -7.53253e-24)
(7.99992 0.00129321 2.85515e-24)
(7.99898 0.00065044 1.31244e-23)
(8.00578 -0.000367083 1.70863e-24)
(8.1342 0.0484782 3.09131e-22)
(8.1113 0.0540582 2.88156e-25)
(8.15174 0.0454133 -1.70275e-24)
(8.17028 0.0507722 0)
(8.20262 0.035471 -1.60088e-23)
(7.92293 -0.00767135 0)
(7.75466 0.0819973 0)
(8.03478 0.0530648 2.26553e-23)
(8.1895 0.0109478 1.12293e-20)
(8.2941 -0.0985635 0)
(8.07109 0.0598079 1.77387e-22)
(8.04739 0.0606398 0)
(8.04186 0.0569808 0)
(8.09293 0.0580437 -1.45806e-23)
(8.08229 0.0620629 7.38623e-22)
(8.03465 0.0535452 0)
(8.02413 0.0509118 0)
(8.00743 -0.00576733 -1.45757e-24)
(8.00643 -0.00674544 -1.4324e-24)
(8.0051 -0.00766484 7.26374e-24)
(8.00521 -0.00852139 7.83382e-23)
(8.00777 -0.00471577 0)
(8.00595 -0.00923841 6.35621e-24)
(8.00664 -0.0098094 4.08406e-24)
(8.00487 -0.00989374 1.35806e-22)
(8.00288 -0.00910886 1.24067e-24)
(8.00051 -0.00780395 -3.82066e-25)
(8.00104 -0.00848339 0)
(7.99677 -0.00421613 5.83424e-22)
(8.02035 -0.00960877 8.33366e-21)
(8.00846 -0.00199747 2.45672e-25)
(8.00836 -0.00286906 4.31397e-24)
(8.00696 -0.00146031 3.61001e-23)
(8.01753 0.0407129 7.20153e-24)
(8.00721 0.0329266 3.94611e-23)
(8.00785 0.0355898 -2.15889e-22)
(8.00568 0.0250892 1.08168e-23)
(8.00821 0.0372559 -6.87792e-24)
(8.00944 0.0405837 7.62925e-24)
(8.00362 0.0168714 -3.75065e-23)
(8.00556 0.0205529 0)
(8.00038 0.00941082 -1.44153e-22)
(8.00257 0.0110279 1.6558e-23)
(8.00397 0.0160121 -7.15937e-23)
(7.99979 0.00809098 -1.96486e-23)
(7.99944 0.00688138 0)
(7.99873 0.00359501 -5.76819e-24)
(7.99918 0.00415421 -2.95658e-23)
(7.99892 0.00212187 2.56661e-23)
(7.99866 0.00288674 0)
(7.99776 0.000934347 1.0183e-23)
(7.99834 0.0002514 1.33736e-22)
(8.00497 -0.000702824 7.97309e-23)
(8.00192 -0.000248185 1.61506e-23)
(8.13484 0.0540024 -2.3603e-22)
(8.10116 0.0618286 0)
(8.17922 0.0520727 0)
(8.15522 0.0597543 0)
(8.21352 0.0339523 7.56991e-21)
(8.20497 0.0408984 -1.87172e-23)
(7.85719 0.0691863 -3.78925e-24)
(8.21953 0.018791 1.25127e-24)
(8.38561 -0.0705612 0)
(8.15783 -0.0807823 -1.1923e-23)
(8.05954 0.0632898 1.18401e-23)
(8.07162 0.0625265 1.59408e-23)
(8.04699 0.0658493 -1.2694e-23)
(8.03178 0.0611542 0)
(8.07681 0.0674415 8.03818e-22)
(8.01608 0.0458175 7.84108e-24)
(8.01466 0.0546922 0)
(8.00542 -0.00700328 2.6317e-24)
(8.00591 -0.00589121 -1.21209e-23)
(8.00403 -0.006348 -1.6223e-22)
(8.00407 -0.0076222 4.85221e-24)
(8.00776 -0.00386554 -8.21453e-25)
(8.00703 -0.00459731 -1.16327e-23)
(8.00625 -0.00858116 1.45742e-22)
(8.00188 -0.00884788 5.55988e-25)
(8.00364 -0.00833098 1.12614e-22)
(8.00225 -0.00934829 0)
(7.9969 -0.00835512 -1.95114e-24)
(8.00478 -0.000510814 7.72575e-25)
(8.01204 3.40451e-05 1.0254e-24)
(8.00948 -0.00881792 -1.16912e-21)
(8.00718 -0.0029557 6.74306e-24)
(8.00505 -0.00130462 -1.38564e-24)
(8.01254 0.0425521 -1.86309e-22)
(8.00646 0.0344366 -1.02789e-23)
(8.00741 0.0305851 0)
(8.00687 0.0374972 -5.42536e-24)
(8.00769 0.0273975 -1.77604e-23)
(8.00779 0.0248484 1.28487e-22)
(8.00906 0.0435264 8.19475e-24)
(8.00786 0.023274 1.96104e-23)
(8.00778 0.0225354 0)
(8.00343 0.0101469 1.13507e-23)
(8.00393 0.0120499 1.85973e-22)
(8.00409 0.0143996 -1.4966e-23)
(8.00522 0.0179039 -2.83761e-22)
(7.99997 0.00753093 7.25765e-24)
(8.00121 0.00772924 2.01087e-24)
(8.00046 0.00634038 -1.20552e-23)
(8.00035 0.00445613 8.33891e-23)
(7.99989 0.00347393 -2.23082e-23)
(7.9988 0.00258689 -3.53075e-24)
(7.99845 0.00221084 -4.20752e-24)
(7.99924 0.00288678 0)
(7.99832 0.00155949 0)
(7.99797 0.00123242 0)
(7.99759 -4.10276e-06 1.0981e-23)
(8.1177 0.0612014 1.05542e-23)
(8.135 0.0587975 1.01135e-23)
(8.10249 0.0678498 2.25953e-23)
(8.19685 0.0516784 0)
(8.14002 0.0669068 0)
(7.90485 -0.0265904 -2.45791e-20)
(7.93056 0.0460689 -3.79574e-24)
(8.14946 0.0329277 0)
(8.25997 0.0132224 -7.8855e-25)
(8.28185 -0.201762 0)
(8.072 -0.083446 -3.00418e-21)
(8.04799 0.0745152 -1.42557e-23)
(8.03846 0.0715335 1.60388e-22)
(8.02983 0.0682699 -1.43171e-23)
(8.0213 0.0655909 0)
(8.06273 0.0763797 1.76363e-23)
(8.07972 0.0763113 1.09649e-23)
(8.0133 0.0622254 0)
(8.01071 0.0563835 0)
(8.00627 -0.00505826 -2.52275e-22)
(8.0054 -0.00486803 -1.43819e-23)
(8.00405 -0.00490296 8.62653e-25)
(8.00311 -0.00552065 2.8725e-24)
(8.003 -0.0063817 0)
(8.00337 -0.00668094 2.18436e-24)
(8.00636 -0.00425001 -4.25784e-25)
(8.00529 -0.00766256 1.951e-24)
(8.00486 -0.0071431 3.9014e-24)
(8.00428 -0.00729049 -4.7895e-25)
(8.00293 -0.00764854 -1.07399e-24)
(8.00098 -0.0091474 -8.95786e-25)
(7.99776 -0.00999341 9.38762e-23)
(7.99915 -0.00882424 -6.43046e-25)
(8.01055 -0.00640063 1.81594e-22)
(8.01381 -0.0164561 -2.06035e-21)
(8.00562 -0.00224146 1.96346e-22)
(8.00562 -0.00288341 2.05608e-23)
(8.00234 -0.00121931 -9.75719e-23)
(8.00639 0.0368935 -8.25244e-24)
(8.00812 0.0363159 -3.06448e-22)
(8.00836 0.029121 0)
(8.00624 0.0403705 1.05858e-23)
(8.00844 0.0252836 1.49356e-22)
(8.00885 0.0499389 0)
(8.00713 0.0448311 1.28319e-24)
(8.00717 0.0213718 -3.23884e-23)
(8.007 0.0230417 -3.31824e-24)
(8.00288 0.0083692 -9.65665e-24)
(8.00284 0.0094902 1.04196e-23)
(8.0032 0.0132123 1.60571e-23)
(8.00469 0.0204486 -3.79901e-23)
(8.00265 0.00724764 -5.93074e-23)
(8.00112 0.00537938 -3.35122e-23)
(8.00194 0.00635611 -1.54807e-23)
(8.00194 0.00475148 -6.4855e-23)
(8.00009 0.00307771 0)
(7.99936 0.00251649 -2.35259e-24)
(7.99756 0.00109783 -3.24243e-24)
(7.99953 0.00143538 8.08674e-24)
(7.99676 0.000653996 -3.48819e-24)
(7.99672 -0.000373253 4.38928e-24)
(8.09335 0.0771823 -7.454e-23)
(8.1076 0.0772733 3.9937e-22)
(8.20848 0.0549794 0)
(8.17469 0.0680413 1.51183e-23)
(8.12549 0.0769937 1.01798e-23)
(8.14526 0.0746647 1.36955e-23)
(8.03752 0.0368461 0)
(8.24224 0.0422344 -7.10012e-25)
(8.28265 0.0257151 -1.18153e-21)
(8.11634 -0.245447 0)
(8.12035 -0.120905 1.04296e-24)
(8.09488 -0.0694754 -5.35893e-21)
(8.0511 0.0842479 1.53338e-23)
(8.03146 0.0780858 -1.13743e-23)
(8.01406 0.0704793 0)
(8.08296 0.0874834 -1.96677e-23)
(8.00888 0.0576197 8.06013e-24)
(8.00484 -0.00412821 3.17392e-23)
(8.00217 -0.00489367 0)
(8.00293 -0.00619448 -4.19923e-23)
(8.0055 -0.00360382 3.79462e-22)
(8.00528 -0.0038249 4.03358e-23)
(8.00348 -0.00662634 1.37981e-22)
(8.00054 -0.00810188 -7.84309e-25)
(8.00347 -0.008162 2.49505e-24)
(7.99775 -0.00830364 4.08972e-26)
(8.008 -0.0139791 3.26793e-24)
(8.01038 -0.0157325 -2.61989e-25)
(8.01524 -0.0112048 -3.0331e-25)
(8.00344 -0.00274774 1.3751e-23)
(7.99852 -0.000857134 -9.08338e-23)
(8.00001 -0.00166383 7.77362e-24)
(8.01159 0.040483 1.23644e-23)
(8.01067 0.0362259 -1.07882e-23)
(8.0084 0.0277997 2.0108e-23)
(8.00945 0.0313173 0)
(8.0078 0.046097 1.37533e-24)
(8.00693 0.0267574 -3.19735e-22)
(8.00552 0.0245735 -1.89984e-23)
(8.0041 0.0230168 -7.73607e-23)
(8.00223 0.0113584 -1.74124e-23)
(8.00207 0.00915306 -1.24424e-22)
(8.0024 0.0134455 0)
(8.003 0.0220694 -1.3651e-24)
(8.00327 0.0195835 2.56242e-24)
(8.00309 0.00676944 -5.67379e-23)
(8.00303 0.00482245 -7.68758e-23)
(8.00258 0.00420396 -1.76698e-23)
(8.00052 0.00302226 -2.23358e-24)
(8.00153 0.00344909 1.33777e-24)
(8.00153 0.00243875 6.14935e-23)
(7.99766 0.000662842 1.69653e-22)
(8.00121 0.001577 1.19379e-22)
(8.00166 0.00169948 4.55871e-24)
(7.9953 -0.00105915 2.46025e-22)
(8.11376 0.0884362 1.90747e-23)
(8.21695 0.0666 2.43109e-23)
(8.15507 0.0835373 1.13991e-21)
(8.05942 -0.00864195 3.58098e-24)
(8.11258 0.0487765 0)
(8.2662 0.04699 -9.33951e-25)
(8.29148 0.0377056 2.2276e-23)
(8.18987 -0.253005 0)
(8.12873 -0.0810166 3.20665e-24)
(8.05359 0.0951632 -1.60814e-22)
(8.04503 0.0916179 1.45715e-22)
(8.03619 0.0891328 4.47576e-23)
(8.02345 0.0861324 -1.81205e-23)
(8.01539 0.0778777 0)
(8.01151 0.0730317 8.53253e-24)
(8.06829 0.0977415 -4.98263e-23)
(8.08568 0.0992402 -1.04098e-23)
(8.00895 0.0659542 -1.50388e-23)
(8.00992 0.0587518 -5.64706e-23)
(8.00502 -0.00373546 -3.89453e-22)
(8.00456 -0.00326272 -2.17879e-23)
(8.00128 -0.00473827 -3.19142e-24)
(8.00188 -0.00397317 0)
(8.00149 -0.00518543 -1.38487e-24)
(8.00233 -0.00557816 1.27798e-24)
(8.00431 -0.00312126 -2.06339e-24)
(8.00275 -0.00581657 -1.57305e-23)
(8.00265 -0.00595056 3.71623e-23)
(7.99853 -0.00738628 4.62869e-26)
(8.00079 -0.00683475 -1.25831e-24)
(7.99743 -0.0074334 7.32029e-24)
(8.00024 -0.0104695 3.90266e-26)
(8.02105 -0.00804063 3.12079e-25)
(8.00047 -0.00232885 0)
(8.00101 -0.00285263 1.12977e-23)
(7.99727 -0.00211999 6.2324e-24)
(8.01197 0.0461681 2.30049e-23)
(8.01098 0.0445012 1.12561e-22)
(8.00733 0.0346336 0)
(8.01028 0.0522533 -6.38705e-23)
(8.00415 0.0270203 9.05992e-23)
(8.00199 0.0229626 -8.75548e-24)
(8.00069 0.00899703 2.48609e-23)
(8.0018 0.0074592 -2.68724e-23)
(8.00257 0.016108 0)
(8.00156 0.0137778 1.55764e-23)
(8.00121 0.0189289 -5.29836e-24)
(8.0033 0.00576687 -2.41324e-23)
(8.00271 0.0063822 -1.32044e-22)
(8.00337 0.00507412 -2.61762e-22)
(8.00329 0.00373912 1.39488e-24)
(8.00249 0.00202919 5.20874e-23)
(8.00313 0.00232581 -4.8929e-24)
(7.99985 0.00117633 5.63456e-24)
(7.99818 0.000220868 -3.49192e-24)
(8.00244 0.00150694 3.64553e-23)
(8.00344 0.00206933 -1.34649e-23)
(7.99456 -0.00154568 2.91584e-24)
(7.99548 -0.000643987 -3.78791e-24)
(8.10209 0.101201 -1.37032e-22)
(8.12067 0.100148 1.05969e-24)
(8.23742 0.0687057 -2.05015e-22)
(8.19647 0.0840959 -1.59558e-23)
(8.14125 0.0974018 -6.02595e-23)
(8.16417 0.0916218 -5.17294e-23)
(8.19455 0.0616434 3.1095e-23)
(8.27686 0.06781 2.5922e-23)
(8.19136 -0.200718 0)
(8.19518 -0.0529052 0)
(8.22366 -0.0722427 -3.50237e-25)
(8.05692 0.107137 -9.34473e-24)
(8.03906 0.0987593 1.00706e-22)
(8.01656 0.0835683 2.26081e-24)
(8.01702 0.0923245 9.07158e-24)
(8.01403 0.0837653 0)
(8.00794 0.0750583 1.66044e-23)
(8.09122 0.116053 -9.39995e-22)
(8.00978 0.0582353 -9.96643e-22)
(8.00462 -0.00256956 1.92429e-22)
(8.00403 -0.00309994 -1.3898e-22)
(8.00059 -0.00446834 8.89003e-24)
(8.0028 -0.00337956 -6.89899e-24)
(8.00147 -0.00364128 -3.50768e-25)
(8.00132 -0.0048312 -1.1411e-24)
(8.00193 -0.00310681 4.01279e-22)
(8.00281 -0.00259481 1.01768e-23)
(8.00184 -0.00611064 -1.66194e-22)
(8.00169 -0.00499415 -2.73769e-24)
(8.00059 -0.00584078 -1.7984e-23)
(7.99654 -0.00660124 7.54807e-26)
(7.99777 -0.00641845 2.04388e-25)
(7.99591 -0.00613528 7.64642e-24)
(8.02093 -0.00625725 2.06654e-21)
(8.00748 -0.00557825 2.63984e-25)
(7.99735 -0.00273996 1.18881e-23)
(7.99459 -0.00182807 1.60502e-23)
(8.00676 0.0468261 -4.56384e-22)
(8.0046 0.0431891 -3.13674e-23)
(8.0029 0.0366786 -2.37402e-23)
(8.00287 0.0320904 2.80905e-23)
(8.00303 0.0287457 3.32453e-22)
(8.00237 0.0261391 7.46383e-25)
(8.0014 0.0244763 1.70383e-23)
(8.00056 0.0231436 -1.03821e-23)
(7.99962 0.0110147 -2.31041e-22)
(7.99863 0.00895417 2.84662e-22)
(8.00087 0.00605902 -1.67502e-22)
(7.99812 0.0134624 3.14168e-23)
(7.99955 0.0211325 3.75329e-23)
(7.99843 0.0189149 -1.33968e-23)
(8.0013 0.00458881 -3.58864e-22)
(8.00259 0.00434307 -6.18819e-24)
(8.0035 0.00307078 1.61226e-24)
(8.00333 0.00359757 5.51874e-24)
(8.00327 0.00277203 4.02522e-22)
(7.99863 -0.000423647 0)
(8.0035 0.00159793 2.91069e-22)
(8.00319 0.00131633 1.28471e-22)
(8.0035 0.00185361 8.94236e-24)
(8.00312 0.00181289 -2.47406e-22)
(8.13015 0.112617 -7.80125e-24)
(8.17852 0.101223 6.83999e-23)
(8.24862 0.0648731 3.4681e-23)
(8.19218 0.0447945 2.78036e-20)
(8.29499 0.0829011 6.07734e-24)
(8.27665 0.0916792 0)
(8.11844 0.160031 7.82623e-24)
(8.54399 -0.160447 0)
(8.22647 0.0243578 1.04055e-22)
(8.32113 -0.0659665 5.04211e-24)
(8.0586 0.125014 -3.954e-22)
(8.05005 0.116248 7.93307e-25)
(8.04123 0.109822 3.24296e-23)
(8.02809 0.104419 3.92629e-23)
(8.0159 0.101456 5.64109e-22)
(8.01485 0.0975915 6.48846e-24)
(8.0137 0.0906899 0)
(8.01092 0.085384 0)
(8.00833 0.0825084 6.96477e-24)
(8.00621 0.0770825 1.37375e-22)
(8.086 0.133127 3.44813e-23)
(8.10435 0.130371 -1.44956e-21)
(8.00754 0.0644944 -3.98571e-23)
(8.00645 0.0576066 -3.2336e-22)
(8.00394 -0.00259075 1.52938e-24)
(8.00424 -0.00233189 1.2378e-24)
(8.00385 -0.00279655 2.66297e-23)
(8.00077 -0.00389483 -2.62915e-23)
(8.00024 -0.0040658 -2.72471e-25)
(8.00125 -0.00363191 6.2541e-25)
(8.00041 -0.00422841 1.57973e-23)
(8.00074 -0.00444114 1.28777e-24)
(8.0012 -0.00209575 5.45962e-26)
(8.00096 -0.00444036 1.80959e-24)
(8.00096 -0.00431261 0)
(7.99914 -0.00601947 -2.63903e-25)
(8.00025 -0.00506271 5.41784e-23)
(7.99794 -0.00592634 1.18647e-24)
(7.99638 -0.00479169 4.31809e-26)
(7.99633 -0.00547771 -4.72139e-25)
(8.02401 -0.00413686 1.19053e-25)
(7.99558 -0.00212452 -1.60189e-25)
(7.99436 -0.00208336 6.61432e-24)
(7.99462 -0.00239731 0)
(7.9952 -0.00198487 1.41482e-23)
(8.00521 0.0517018 -4.50917e-23)
(7.99898 0.0475264 -2.57181e-23)
(8.00237 0.0404266 -4.45834e-22)
(7.99731 0.0426182 -2.22804e-23)
(7.99971 0.0376172 -4.17216e-23)
(8.00094 0.030767 -1.99681e-23)
(8.00019 0.0258941 -2.03948e-23)
(7.99709 0.0224699 -2.77819e-23)
(7.99873 0.00672273 -5.34069e-23)
(7.99465 0.00845327 -7.88705e-24)
(7.99921 0.00522918 1.62944e-23)
(7.99595 0.0165838 6.09287e-24)
(7.99198 0.0145445 -3.58316e-22)
(7.9929 0.0189821 2.26215e-23)
(7.99572 0.00484793 -3.15793e-23)
(8.00109 0.0040112 8.36082e-22)
(8.00209 0.00205881 -1.36366e-23)
(8.00051 0.0025001 -4.49981e-22)
(8.0013 -0.000162016 -1.08324e-23)
(7.99904 -0.00114527 0)
(8.00178 0.00213269 1.75516e-23)
(8.00271 0.00074257 -8.84216e-23)
(8.00205 0.00170737 -9.49557e-23)
(7.99998 0.00206451 2.35803e-22)
(8.12136 0.127748 2.37002e-23)
(8.14014 0.125606 0)
(8.16328 0.121926 -1.73988e-23)
(8.18971 0.117957 -7.64268e-22)
(8.29676 0.0845215 2.90367e-21)
(8.22147 0.069825 -7.10053e-21)
(8.22428 0.113973 9.70648e-24)
(8.26994 0.11481 -3.67028e-23)
(8.17862 -0.0192377 -3.04312e-20)
(7.94113 0.23022 -1.658e-23)
(8.69905 -0.324894 -6.29562e-23)
(8.34751 -0.0628589 -2.57005e-23)
(8.0702 0.13587 -1.65562e-23)
(8.04931 0.142976 1.47738e-21)
(8.03803 0.120765 6.01875e-24)
(8.01513 0.112294 5.93463e-24)
(8.01262 0.098161 0)