/*--------------------------------*- C++ -*----------------------------------*\
| =========                 |                                                 |
| \\      /  F ield         | OpenFOAM: The Open Source CFD Toolbox           |
|  \\    /   O peration     | Version:  v2012                                 |
|   \\  /    A nd           | Website:  www.openfoam.com                      |
|    \\/     M anipulation  |                                                 |
\*---------------------------------------------------------------------------*/
FoamFile
{
    version     2.0;
    format      ascii;
    class       pointVectorField;
    location    "0.24";
    object      pointDisplacement;
}
// * * * * * * * * * * * * * * * * * * * * * * * * * * * * * * * * * * * * * //

dimensions      [0 1 0 0 0 0 0];


internalField   nonuniform List<vector> 
14482
(
(0 0 0)
(0 0 0)
(0 0 0)
(0 0 0)
(0 0 0)
(0 0 0)
(0 0 0)
(0 0 0)
(0 0 0)
(0 0 0)
(0 0 0)
(0 0 0)
(0 0 0)
(0 0 0)
(0 0 0)
(0 0 0)
(0 0 0)
(0 0 0)
(0 0 0)
(0 0 0)
(0 0 0)
(0 0 0)
(0 0 0)
(0 0 0)
(0 0 0)
(0 0 0)
(0 0 0)
(0 0 0)
(0 0 0)
(0 0 0)
(0 0 0)
(0 0 0)
(0 0 0)
(0 0 0)
(0 0 0)
(0 0 0)
(0 0 0)
(0 0 0)
(0 0 0)
(0 0 0)
(0 0 0)
(0 0 0)
(0 0 0)
(0 0 0)
(0 0 0)
(0 0 0)
(0 0 0)
(0 0 0)
(0 0 0)
(0 0 0)
(0 0 0)
(0 0 0)
(0 0 0)
(0 0 0)
(0 0 0)
(0 0 0)
(0 0 0)
(0 0 0)
(0 0 0)
(0 0 0)
(0 0 0)
(0 0 0)
(0 0 0)
(0 0 0)
(0 0 0)
(0 0 0)
(0 0 0)
(0 0 0)
(0 0 0)
(0 0 0)
(0 0 0)
(0 0 0)
(0 0 0)
(0 0 0)
(0 0 0)
(0 0 0)
(0 0 0)
(0 0 0)
(0 0 0)
(0 0 0)
(0 0 0)
(0 0 0)
(0 0 0)
(0.0345089 -0.126742 0)
(0.0346512 -0.126674 0)
(0.0348045 -0.126602 0)
(0.0349697 -0.126523 0)
(0.0351475 -0.126438 0)
(0.035339 -0.126347 0)
(0.0355453 -0.126249 0)
(0.0357673 -0.126144 0)
(0.0360064 -0.12603 0)
(0.0362638 -0.125908 0)
(0.0365409 -0.125776 0)
(0.0368392 -0.125634 0)
(0.0371603 -0.125481 0)
(0.0374611 -0.125246 0)
(0.0377805 -0.124986 0)
(0.0381242 -0.124707 0)
(0.0384651 -0.124374 0)
(0.0388245 -0.124009 0)
(0.0391865 -0.123593 0)
(0.0395624 -0.123134 0)
(0.0399387 -0.12262 0)
(0.0403185 -0.122049 0)
(0.0407016 -0.12142 0)
(0.0410854 -0.120727 0)
(0.0414684 -0.119968 0)
(0.0418447 -0.119135 0)
(0.0422174 -0.118228 0)
(0.0425821 -0.117239 0)
(0.0429383 -0.116166 0)
(0.0432828 -0.115003 0)
(0.0436135 -0.113745 0)
(0.0439292 -0.112387 0)
(0.0442274 -0.110922 0)
(0.0445057 -0.109344 0)
(0.0447613 -0.107649 0)
(0.0449919 -0.105828 0)
(0.0451947 -0.103874 0)
(0.0453672 -0.101782 0)
(0.0455059 -0.0995429 0)
(0.0456077 -0.0971492 0)
(0.0456688 -0.0945932 0)
(0.0456858 -0.0918667 0)
(0.0456548 -0.0889613 0)
(0.0455714 -0.0858687 0)
(0.0454314 -0.0825803 0)
(0.0452303 -0.0790879 0)
(0.0449633 -0.0753828 0)
(0.0446253 -0.071457 0)
(0.0442116 -0.0673024 0)
(0.0437169 -0.0629113 0)
(0.0431359 -0.0582764 0)
(0.0424635 -0.0533913 0)
(0.0416942 -0.0482495 0)
(0.0408232 -0.0428461 0)
(0.0398452 -0.0371768 0)
(0.0387557 -0.0312383 0)
(0.03755 -0.0250282 0)
(0.0362246 -0.0185467 0)
(0.0347754 -0.0117935 0)
(0.0331999 -0.0047714 0)
(0.0314957 0.00251575 0)
(0.0296616 0.0100621 0)
(0.0276967 0.0178604 0)
(0.0256019 0.0259005 0)
(0.0233782 0.0341718 0)
(0.0210283 0.0426603 0)
(0.0185558 0.0513507 0)
(0.0159652 0.0602267 0)
(0.0132625 0.0692683 0)
(0.0104544 0.0784559 0)
(0.00754887 0.0877674 0)
(0.0045545 0.0971793 0)
(0.00148108 0.106667 0)
(-0.00166136 0.116207 0)
(-0.00486156 0.12577 0)
(-0.00810854 0.135334 0)
(-0.0113904 0.14487 0)
(-0.0146957 0.154354 0)
(-0.0180126 0.16376 0)
(-0.0213294 0.173063 0)
(-0.0246349 0.18224 0)
(-0.0279184 0.191269 0)
(-0.0311694 0.200129 0)
(-0.0343782 0.2088 0)
(-0.0375358 0.217266 0)
(-0.0406341 0.225511 0)
(-0.0436655 0.233521 0)
(-0.0466234 0.241285 0)
(-0.0495022 0.248794 0)
(-0.0522967 0.25604 0)
(-0.0550031 0.263017 0)
(-0.0576179 0.269722 0)
(-0.0601387 0.276153 0)
(-0.0625638 0.282308 0)
(-0.0648919 0.28819 0)
(-0.0671226 0.2938 0)
(-0.0692561 0.299144 0)
(-0.071293 0.304224 0)
(-0.0732343 0.309046 0)
(-0.0750816 0.313619 0)
(-0.0768368 0.317948 0)
(-0.0785021 0.322041 0)
(-0.08008 0.325906 0)
(-0.081573 0.329553 0)
(-0.082984 0.332989 0)
(-0.0843161 0.336224 0)
(-0.085572 0.339266 0)
(-0.0867552 0.342125 0)
(-0.0878686 0.344809 0)
(-0.0889155 0.347326 0)
(-0.0898988 0.349686 0)
(-0.0908219 0.351897 0)
(-0.0916875 0.353967 0)
(-0.0924989 0.355903 0)
(-0.0932589 0.357714 0)
(-0.0939702 0.359406 0)
(-0.0946357 0.360987 0)
(-0.0952578 0.362463 0)
(-0.0958392 0.36384 0)
(-0.0963822 0.365125 0)
(-0.0968892 0.366323 0)
(-0.0973622 0.36744 0)
(-0.0978036 0.368481 0)
(-0.0982151 0.369451 0)
(-0.0985986 0.370354 0)
(-0.0989561 0.371195 0)
(-0.0992892 0.371978 0)
(-0.0995994 0.372706 0)
(-0.0998881 0.373384 0)
(-0.100157 0.374015 0)
(-0.100407 0.374602 0)
(-0.10064 0.375147 0)
(-0.100856 0.375654 0)
(-0.101058 0.376126 0)
(-0.101245 0.376564 0)
(-0.101419 0.376971 0)
(-0.101581 0.37735 0)
(-0.101732 0.377702 0)
(-0.101871 0.378028 0)
(-0.102001 0.378332 0)
(-0.102122 0.378614 0)
(-0.102234 0.378876 0)
(-0.102339 0.37912 0)
(-0.102436 0.379346 0)
(-0.102525 0.379555 0)
(-0.102609 0.37975 0)
(-0.102687 0.379931 0)
(-0.102759 0.380099 0)
(-0.102826 0.380255 0)
(-0.102888 0.3804 0)
(-0.10304 0.380359 0)
(-0.103174 0.380322 0)
(-0.103297 0.380289 0)
(-0.103414 0.380257 0)
(-0.103527 0.380226 0)
(-0.103639 0.380196 0)
(-0.103756 0.380164 0)
(-0.103879 0.38013 0)
(-0.104013 0.380094 0)
(-0.104165 0.380052 0)
(-0.104145 0.379896 0)
(-0.104124 0.379728 0)
(-0.104101 0.379546 0)
(-0.104076 0.379351 0)
(-0.104049 0.37914 0)
(-0.10402 0.378914 0)
(-0.103989 0.37867 0)
(-0.103956 0.378407 0)
(-0.10392 0.378125 0)
(-0.103881 0.37782 0)
(-0.103839 0.377493 0)
(-0.103794 0.37714 0)
(-0.103745 0.376761 0)
(-0.103693 0.376352 0)
(-0.103636 0.375913 0)
(-0.103576 0.37544 0)
(-0.10351 0.374931 0)
(-0.10344 0.374385 0)
(-0.103364 0.373797 0)
(-0.103282 0.373164 0)
(-0.103194 0.372484 0)
(-0.103099 0.371754 0)
(-0.102997 0.370968 0)
(-0.102887 0.370124 0)
(-0.102769 0.369218 0)
(-0.102642 0.368245 0)
(-0.102505 0.367201 0)
(-0.102358 0.36608 0)
(-0.102199 0.364877 0)
(-0.102029 0.363588 0)
(-0.101845 0.362205 0)
(-0.101648 0.360723 0)
(-0.101436 0.359135 0)
(-0.101209 0.357435 0)
(-0.100964 0.355616 0)
(-0.100701 0.35367 0)
(-0.100419 0.351589 0)
(-0.100116 0.349367 0)
(-0.0997904 0.346993 0)
(-0.0994416 0.34446 0)
(-0.0990675 0.34176 0)
(-0.0986667 0.338882 0)
(-0.0982371 0.335817 0)
(-0.0977775 0.332559 0)
(-0.0972856 0.329095 0)
(-0.0967599 0.325418 0)
(-0.0961981 0.321518 0)
(-0.0955983 0.317386 0)
(-0.0949587 0.313013 0)
(-0.0942771 0.308392 0)
(-0.0935514 0.303515 0)
(-0.0927798 0.298373 0)
(-0.0919601 0.292962 0)
(-0.0910903 0.287275 0)
(-0.0901688 0.281308 0)
(-0.0891937 0.275058 0)
(-0.0881632 0.268522 0)
(-0.0870761 0.261701 0)
(-0.0859308 0.254596 0)
(-0.0847264 0.24721 0)
(-0.0834618 0.239548 0)
(-0.0821363 0.231616 0)
(-0.0807497 0.223424 0)
(-0.0793016 0.214982 0)
(-0.0777922 0.206305 0)
(-0.0762221 0.197407 0)
(-0.074592 0.188306 0)
(-0.0729027 0.179021 0)
(-0.0711556 0.169574 0)
(-0.0693524 0.159988 0)
(-0.0674951 0.150287 0)
(-0.0655857 0.140498 0)
(-0.0636266 0.130648 0)
(-0.0616209 0.120764 0)
(-0.0595712 0.110874 0)
(-0.057481 0.101008 0)
(-0.0553535 0.0911925 0)
(-0.0531927 0.0814561 0)
(-0.0510021 0.0718253 0)
(-0.048786 0.0623262 0)
(-0.0465487 0.0529831 0)
(-0.0442944 0.0438195 0)
(-0.0420276 0.0348553 0)
(-0.0397531 0.026111 0)
(-0.0374752 0.0176029 0)
(-0.0351987 0.00934597 0)
(-0.0329283 0.00135368 0)
(-0.0306684 -0.00636429 0)
(-0.0284236 -0.0137988 0)
(-0.0261982 -0.0209441 0)
(-0.0239962 -0.0277956 0)
(-0.0218217 -0.0343514 0)
(-0.0196783 -0.0406101 0)
(-0.0175692 -0.0465742 0)
(-0.0154977 -0.0522454 0)
(-0.0134665 -0.0576279 0)
(-0.011478 -0.062727 0)
(-0.00953433 -0.0675491 0)
(-0.00763732 -0.0721007 0)
(-0.00578836 -0.0763904 0)
(-0.00398863 -0.0804262 0)
(-0.00223898 -0.084217 0)
(-0.000540006 -0.0877723 0)
(0.00110818 -0.0911013 0)
(0.00270539 -0.0942136 0)
(0.00425181 -0.097119 0)
(0.00574775 -0.099827 0)
(0.00719394 -0.102347 0)
(0.00859088 -0.104689 0)
(0.0099394 -0.106861 0)
(0.0112407 -0.108872 0)
(0.0124954 -0.110732 0)
(0.0137048 -0.112448 0)
(0.0148698 -0.114029 0)
(0.0159918 -0.115482 0)
(0.0170718 -0.116814 0)
(0.0181113 -0.118032 0)
(0.019111 -0.119144 0)
(0.0200719 -0.120155 0)
(0.0209949 -0.121072 0)
(0.0218814 -0.1219 0)
(0.0227324 -0.122644 0)
(0.0235477 -0.123311 0)
(0.0243291 -0.123904 0)
(0.0250756 -0.124431 0)
(0.0257908 -0.124892 0)
(0.0264727 -0.125294 0)
(0.0271219 -0.125642 0)
(0.0277386 -0.125941 0)
(0.0283239 -0.126194 0)
(0.0288804 -0.126399 0)
(0.0294031 -0.126574 0)
(0.0298983 -0.126707 0)
(0.0303607 -0.126821 0)
(0.0307987 -0.126887 0)
(0.0312057 -0.126949 0)
(0.0315842 -0.127 0)
(0.0319384 -0.126968 0)
(0.0322674 -0.126939 0)
(0.0325731 -0.126913 0)
(0.032857 -0.126888 0)
(0.0331207 -0.126864 0)
(0.0333657 -0.126843 0)
(0.0335932 -0.126823 0)
(0.0338044 -0.126804 0)
(0.0340006 -0.126787 0)
(0.0341827 -0.126771 0)
(0.0343518 -0.126756 0)
(-0.00227 0.0526333 0)
(-0.00345815 0.0598093 0)
(-0.00329658 0.0563642 0)
(-0.0049084 0.0606539 0)
(-0.0038728 0.0545098 0)
(-0.00367072 0.0559328 0)
(-0.00730338 0.0605129 0)
(-0.00691377 0.0600747 0)
(-0.00839036 0.0667212 0)
(-0.000269217 0.0337502 0)
(0.000719782 0.031631 0)
(-0.000234147 0.0366646 0)
(-0.00194923 0.0784971 0)
(-0.00143982 0.0805438 0)
(-0.00429217 0.0916457 0)
(0.000112063 0.0409184 0)
(0.00104738 0.0406782 0)
(-0.000257483 0.0450615 0)
(-0.00915004 0.0870408 0)
(-0.00891579 0.0871376 0)
(-0.00967467 0.0894199 0)
(-0.00812484 0.0817597 0)
(-0.00758115 0.0812415 0)
(-0.00859958 0.0843968 0)
(-0.0137768 0.0963753 0)
(-0.0165046 0.108433 0)
(-0.0157348 0.103536 0)
(-0.00321077 0.0404692 0)
(-0.00390349 0.0448903 0)
(-0.00368465 0.0421754 0)
(0.00186377 0.0295617 0)
(0.00272316 0.0306606 0)
(0.00128605 0.0354786 0)
(0.000672465 0.068573 0)
(0.00072896 0.0739551 0)
(-0.00838079 0.101323 0)
(-0.00654424 0.0912928 0)
(-0.00625584 0.0933042 0)
(0.00294764 0.0399646 0)
(0.0047568 0.033213 0)
(0.00385206 0.0400177 0)
(-0.00976302 0.0903484 0)
(-0.0103996 0.0923513 0)
(-0.0104771 0.0922828 0)
(-0.012223 0.095648 0)
(-0.0133579 0.100997 0)
(-0.0136704 0.10121 0)
(-0.00751611 0.0705643 0)
(-0.00786593 0.0701347 0)
(-0.00656264 0.0642939 0)
(-0.00190783 0.0209445 0)
(-0.00202213 0.0207965 0)
(-0.00166771 0.0187403 0)
(0.00114877 0.0159276 0)
(0.00062103 0.0191182 0)
(0.000614257 0.0160911 0)
(9.08982e-05 0.0197443 0)
(0.00244186 0.0142077 0)
(0.00261481 0.0108967 0)
(0.00303361 0.0116746 0)
(0.00800422 0.0404511 0)
(0.00666414 0.042457 0)
(0.00823865 0.0330591 0)
(0.00192764 0.08278 0)
(-0.000552184 0.090758 0)
(0.00213476 0.0771048 0)
(-0.0200811 0.154048 0)
(-0.0191255 0.148236 0)
(-0.0169247 0.14065 0)
(0.00447831 0.00878826 0)
(0.00544898 0.00578958 0)
(0.00481829 0.0112995 0)
(0.0120872 -0.00233745 0)
(0.0129432 -0.000459363 0)
(0.0115382 0.00383125 0)
(-0.0103445 0.0914723 0)
(-0.0101174 0.0913546 0)
(-0.0101027 0.0905047 0)
(-0.00926032 0.0839592 0)
(-0.00958889 0.0851448 0)
(-0.0096796 0.0859473 0)
(-0.0202669 0.130327 0)
(-0.0179699 0.121537 0)
(-0.021232 0.134819 0)
(-0.0389701 0.201899 0)
(-0.0335665 0.182672 0)
(-0.0380677 0.199508 0)
(-0.0261439 0.148185 0)
(-0.0260401 0.149031 0)
(-0.029171 0.160591 0)
(-0.0177223 0.0999866 0)
(-0.0162182 0.095267 0)
(-0.0186438 0.105452 0)
(-0.0125071 0.0819304 0)
(-0.0127392 0.081008 0)
(-0.0112953 0.075388 0)
(-0.00416662 0.0381833 0)
(-0.00372374 0.036888 0)
(-0.00453277 0.0412478 0)
(-0.000417123 0.0206128 0)
(-0.000945667 0.0217186 0)
(-0.000463283 0.0183248 0)
(0.00116664 0.0081372 0)
(0.000910415 0.00993632 0)
(0.000894494 0.00820819 0)
(0.00263609 0.00658833 0)
(0.00218867 0.00814932 0)
(0.00227277 0.00585563 0)
(0.00388779 -9.55057e-06 0)
(0.00331475 0.00209763 0)
(0.00327693 -0.000557609 0)
(0.0090873 0.0489946 0)
(0.0129428 0.0355845 0)
(0.0105807 0.0503466 0)
(-0.017696 0.15104 0)
(-0.0136955 0.136863 0)
(-0.0170178 0.150856 0)
(0.00716468 0.0638095 0)
(0.00442652 0.0790415 0)
(0.00412889 0.0762236 0)
(-0.0162363 0.140127 0)
(-0.0134824 0.131371 0)
(-0.0174209 0.147584 0)
(-0.0155724 0.12616 0)
(-0.0184861 0.138222 0)
(-0.0158888 0.125442 0)
(0.0123468 -0.0215221 0)
(0.0110776 -0.020089 0)
(0.0123182 -0.0242567 0)
(0.0196934 -0.0320898 0)
(0.0218143 -0.0312679 0)
(0.0198038 -0.0252869 0)
(-0.011316 0.0991487 0)
(-0.0124887 0.104794 0)
(-0.0114741 0.0991152 0)
(-0.0191079 0.139538 0)
(-0.0218916 0.152024 0)
(-0.0193746 0.129132 0)
(-0.021399 0.137927 0)
(-0.023136 0.144842 0)
(-0.0488892 0.23739 0)
(-0.0420049 0.214987 0)
(-0.0454022 0.226833 0)
(-0.026166 0.144692 0)
(-0.0260123 0.146024 0)
(-0.0288015 0.155902 0)
(-0.0181966 0.106663 0)
(-0.0209185 0.118939 0)
(-0.020132 0.113279 0)
(-0.0110163 0.0622036 0)
(-0.0115264 0.0620201 0)
(-0.00941711 0.0534765 0)
(-0.00338387 0.0286749 0)
(-0.00311437 0.0278577 0)
(-0.00360757 0.0307735 0)
(-0.00107969 0.014482 0)
(-0.00110961 0.0139277 0)
(-0.000970994 0.0133078 0)
(-0.000216822 0.012272 0)
(-2.17936e-05 0.0126686 0)
(-0.000277202 0.0140204 0)
(-0.000518556 0.0161001 0)
(-0.000187428 0.0154376 0)
(0.00132734 0.0113656 0)
(0.00110141 0.0137954 0)
(0.000884954 0.0124351 0)
(0.00134145 0.00176021 0)
(0.00164371 0.00263344 0)
(0.00136398 0.00266194 0)
(0.00116424 0.010176 0)
(0.0138173 0.0387387 0)
(0.0113319 0.053166 0)
(0.0197501 0.0133121 0)
(0.0171637 0.0259958 0)
(0.0181143 0.0131596 0)
(-0.0204279 0.166804 0)
(-0.0188737 0.160476 0)
(-0.0157406 0.150702 0)
(-0.00920447 0.135158 0)
(-0.00611467 0.125444 0)
(-0.00922103 0.136176 0)
(-0.021261 0.165123 0)
(-0.0216268 0.152453 0)
(-0.0261719 0.171205 0)
(-0.0246482 0.164 0)
(0.0191349 -0.0512209 0)
(0.0171418 -0.0481196 0)
(0.0179678 -0.0531874 0)
(0.0165978 -0.0286865 0)
(0.0163409 -0.0328479 0)
(0.0181393 -0.0344763 0)
(0.0199441 -0.0468587 0)
(0.0221125 -0.0522832 0)
(0.0220681 -0.0466426 0)
(-0.0238529 0.154705 0)
(-0.0208768 0.141555 0)
(-0.0201178 0.139401 0)
(-0.0103054 0.0913615 0)
(-0.0115053 0.0978418 0)
(-0.0111073 0.0953566 0)
(-0.0265608 0.166867 0)
(-0.028503 0.175595 0)
(-0.0314887 0.185725 0)
(-0.0108941 0.0931997 0)
(-0.0114129 0.094911 0)
(-0.011625 0.0960301 0)
(-0.0186171 0.126785 0)
(-0.0166603 0.117653 0)
(-0.0188688 0.1278 0)
(-0.0495926 0.238765 0)
(-0.0539778 0.251795 0)
(-0.049285 0.236902 0)
(-0.0447773 0.212995 0)
(-0.0458861 0.2136 0)
(-0.0410977 0.198556 0)
(-0.0315575 0.147256 0)
(-0.032149 0.153441 0)
(-0.0342097 0.159085 0)
(-0.0186994 0.102298 0)
(-0.0208908 0.109866 0)
(-0.0182818 0.0983131 0)
(-0.0205965 0.113254 0)
(-0.0197563 0.108152 0)
(-0.0104176 0.0615137 0)
(-0.0122283 0.0693712 0)
(-0.00559104 0.0351969 0)
(-0.00456477 0.0298561 0)
(-0.00475834 0.0317072 0)
(-0.000960997 0.0125644 0)
(-0.00082636 0.0122602 0)
(0.000289454 0.0121058 0)
(0.000183808 0.0103213 0)
(-0.000803607 0.0136262 0)
(-0.000621457 0.0121141 0)
(-0.000674925 0.0139105 0)
(0.000940456 0.00652607 0)
(0.00102776 0.00522953 0)
(0.00124297 0.00612167 0)
(0.00284917 0.0015499 0)
(0.00172198 0.00156267 0)
(0.00120319 0.00442015 0)
(0.000956969 0.00322972 0)
(0.00119219 0.00313299 0)
(0.00443273 -0.0135893 0)
(0.00384807 -0.0142603 0)
(0.00496239 -0.0159311 0)
(0.0176066 0.0315605 0)
(0.0144339 0.0430439 0)
(0.0154401 0.0450048 0)
(0.0181241 0.0343778 0)
(0.0280221 -0.0287413 0)
(0.0253011 -0.0240529 0)
(0.0266531 -0.0356436 0)
(-0.0241808 0.178531 0)
(-0.0236212 0.177433 0)
(-0.0261452 0.185037 0)
(-0.0208234 0.165613 0)
(-0.0168081 0.158344 0)
(-0.0130023 0.146059 0)
(-0.0144277 0.151512 0)
(-0.00419011 0.119944 0)
(-0.00318704 0.115518 0)
(-0.0276991 0.186611 0)
(-0.0316276 0.198793 0)
(-0.0270131 0.183285 0)
(-0.0414656 0.227369 0)
(-0.04016 0.223904 0)
(-0.0447762 0.236685 0)
(-0.030504 0.188351 0)
(-0.0317172 0.191543 0)
(-0.0372574 0.210611 0)
(-0.037777 0.211736 0)
(-0.0336852 0.197544 0)
(0.00606091 -0.013873 0)
(0.00585783 -0.0109221 0)
(0.00529167 -0.0121205 0)
(0.0128681 -0.0322495 0)
(0.0123617 -0.0355681 0)
(0.0140916 -0.03943 0)
(0.0148507 -0.0362746 0)
(0.016379 -0.0376266 0)
(0.015308 -0.0335263 0)
(0.018746 -0.0402939 0)
(0.0175137 -0.0375554 0)
(0.0178354 -0.0420421 0)
(-0.0193715 0.137292 0)
(-0.016905 0.127358 0)
(-0.0204593 0.143144 0)
(-0.0163123 0.120344 0)
(-0.0175272 0.12622 0)
(-0.0199787 0.136252 0)
(-0.0123061 0.101725 0)
(-0.0361335 0.20204 0)
(-0.0315662 0.184842 0)
(-0.0122715 0.0964318 0)
(-0.0100354 0.0857054 0)
(-0.011889 0.094329 0)
(-0.0178749 0.123045 0)
(-0.0215177 0.139128 0)
(-0.0242791 0.150418 0)
(-0.0208213 0.136315 0)
(-0.0487288 0.234172 0)
(-0.0436453 0.218166 0)
(-0.0369556 0.190712 0)
(-0.0405839 0.204334 0)
(-0.042069 0.208143 0)
(-0.0779945 0.283532 0)
(-0.0771646 0.275523 0)
(-0.0747793 0.27725 0)
(-0.037067 0.174541 0)
(-0.0377306 0.171881 0)
(-0.0344516 0.163594 0)
(-0.0157228 0.0817137 0)
(-0.0175244 0.087085 0)
(-0.0158884 0.0795316 0)
(-0.00655905 0.0387002 0)
(-0.00504773 0.0314438 0)
(-0.00977183 0.0507024 0)
(-0.00904371 0.0488395 0)
(-0.0106507 0.0561081 0)
(-0.00152388 0.0130858 0)
(-0.00139495 0.0126111 0)
(-0.00163429 0.0140832 0)
(-0.00240844 0.0183538 0)
(-0.00282207 0.0205087 0)
(-0.00244467 0.0181488 0)
(-0.000593687 0.00885502 0)
(-0.000605234 0.00955749 0)
(-0.000687793 0.00967599 0)
(0.000424952 0.0139465 0)
(0.000605584 0.0112931 0)
(-5.70989e-05 0.0102245 0)
(-0.000301491 0.0111123 0)
(-0.000174502 0.00902735 0)
(-1.14867e-05 0.00768248 0)
(0.000135514 0.00835161 0)
(0.00066837 0.00559525 0)
(0.000718522 0.0073278 0)
(0.000552335 0.00656108 0)
(0.00106614 -0.000962514 0)
(0.00148653 -0.0012217 0)
(0.00115208 -0.000451777 0)
(0.0014816 0.00368952 0)
(0.00158384 0.00538069 0)
(0.001937 -2.75668e-05 0)
(0.00154014 0.000248979 0)
(0.00164919 -0.000655008 0)
(0.000866254 0.00402547 0)
(0.000838763 0.00510218 0)
(0.000670962 0.00420468 0)
(0.00159812 -0.0060666 0)
(0.00188049 -0.00501155 0)
(0.000918585 -0.00368898 0)
(0.00392066 0.0947381 0)
(0.00642855 0.0861304 0)
(0.00424991 0.0947382 0)
(0.0120016 0.063951 0)
(0.0146601 0.052658 0)
(0.0139011 0.0587631 0)
(0.0241569 -0.0054942 0)
(0.0260598 -0.0173408 0)
(0.0265099 -0.0101872 0)
(-0.0291192 0.193837 0)
(-0.0314543 0.200303 0)
(-0.0277268 0.189361 0)
(-0.0141349 0.147026 0)
(-0.0166687 0.156501 0)
(-0.0179877 0.159793 0)
(-0.00662247 0.124291 0)
(-0.00315671 0.11079 0)
(-0.00379337 0.11583 0)
(-0.00343878 0.118481 0)
(-0.00171616 0.111512 0)
(-0.0393112 0.22172 0)
(-0.0411416 0.226907 0)
(-0.0433266 0.232816 0)
(-0.0337451 0.205848 0)
(-0.0372043 0.216024 0)
(-0.0364792 0.213673 0)
(-0.035673 0.210847 0)
(-0.0384232 0.218081 0)
(-0.0427308 0.230773 0)
(-0.0441123 0.233582 0)
(-0.0447015 0.234927 0)
(-0.0392233 0.218345 0)
(-0.0478305 0.244091 0)
(-0.0504008 0.250972 0)
(-0.0427964 0.228501 0)
(-0.0479021 0.243644 0)
(-0.0463919 0.238856 0)
(-0.047078 0.240384 0)
(-0.0526374 0.256309 0)
(-0.000194581 -0.0113326 0)
(0.00109429 -0.0140607 0)
(0.000482474 -0.0109334 0)
(0.0037155 -0.0297702 0)
(0.00285417 -0.0296332 0)
(0.00428278 -0.032421 0)
(0.0126267 -0.0480349 0)
(0.0109497 -0.0435276 0)
(0.0106274 -0.0450859 0)
(0.0264992 -0.0687284 0)
(0.0280184 -0.0734325 0)
(0.0285312 -0.0683097 0)
(-0.0404194 0.213704 0)
(-0.0458883 0.230444 0)
(-0.0435373 0.223628 0)
(-0.0109347 0.0962541 0)
(-0.0113121 0.100375 0)
(-0.0105207 0.0946662 0)
(-0.0542412 0.260316 0)
(-0.0473769 0.240954 0)
(-0.0171714 0.119289 0)
(-0.0205116 0.133663 0)
(-0.01937 0.129258 0)
(-0.0172188 0.118753 0)
(-0.0241906 0.147195 0)
(-0.0173913 0.119768 0)
(-0.0287472 0.169335 0)
(-0.0319024 0.181109 0)
(-0.0311418 0.178543 0)
(-0.0150496 0.109974 0)
(-0.0142717 0.106233 0)
(-0.0161435 0.115007 0)
(-0.0377302 0.204401 0)
(-0.0411663 0.216946 0)
(-0.0406585 0.214881 0)
(-0.0533779 0.25503 0)
(-0.0573498 0.266688 0)
(-0.0565957 0.26422 0)
(-0.058832 0.241524 0)
(-0.0629983 0.246173 0)
(-0.059205 0.233676 0)
(-0.0323264 0.137236 0)
(-0.0315576 0.126607 0)
(-0.0287688 0.121477 0)
(-0.0105745 0.0526659 0)
(-0.0128221 0.0625988 0)
(-0.0115407 0.0549193 0)
(-0.010259 0.0460954 0)
(-0.00854155 0.0391957 0)
(-0.00939395 0.0440568 0)
(-0.00742082 0.0411802 0)
(-0.00607128 0.0349261 0)
(-0.00120672 0.00978311 0)
(-0.00120521 0.010113 0)
(-0.00134613 0.0107961 0)
(-0.00105907 0.00943721 0)
(-0.00104112 0.00897095 0)
(-0.000905365 0.00832463 0)
(0.000521295 0.00801425 0)
(0.000322915 0.00838494 0)
(0.000400144 0.00670697 0)
(0.000244203 0.00678093 0)
(0.000111312 0.00650026 0)
(0.000177953 0.00533804 0)
(-0.000129536 0.00713258 0)
(0.000297016 0.00540407 0)
(0.00158349 -0.00206976 0)
(0.00219108 -0.00310295 0)
(0.00195261 -0.00179439 0)
(0.000618156 0.000721469 0)
(0.000533547 0.000725162 0)
(0.000867734 0.000661349 0)
(0.000740841 0.00125718 0)
(0.000724235 0.000969558 0)
(0.000982708 0.00145751 0)
(0.000782348 0.000814998 0)
(0.000580084 0.000743841 0)
(0.00067705 0.00143834 0)
(0.000871573 0.00166284 0)
(0.000828401 0.00197487 0)
(-0.00335903 0.0077703 0)
(-0.00450041 0.0120134 0)
(-0.00438945 0.0098746 0)
(0.00857302 0.0794616 0)
(0.00927393 0.075054 0)
(0.00930355 0.0782378 0)
(0.0067514 0.0866928 0)
(0.0153871 0.0553552 0)
(0.0175129 0.047275 0)
(0.0166078 0.0530146 0)
(0.0141536 0.0617993 0)
(0.0316231 -0.0252126 0)
(0.0329579 -0.0234404 0)
(0.0311213 -0.0165157 0)
(0.0283125 0.00708176 0)
(0.0270708 0.0108549 0)
(0.0288272 0.000531795 0)
(-0.0111819 0.135206 0)
(-0.0102922 0.134254 0)
(-0.0158039 0.154548 0)
(-0.000458541 0.108269 0)
(-0.0329527 0.203857 0)
(-0.0290315 0.192245 0)
(-0.0321591 0.20188 0)
(-0.0355621 0.208582 0)
(-0.0333619 0.202316 0)
(-0.053158 0.258234 0)
(-0.0528537 0.257175 0)
(-0.0357308 0.207668 0)
(-0.0389962 0.218754 0)
(-0.0405418 0.223096 0)
(-0.0415371 0.223707 0)
(-0.00692037 0.0188262 0)
(-0.00856475 0.0233306 0)
(-0.00666657 0.015771 0)
(0.00458317 -0.0298401 0)
(0.00478017 -0.0276912 0)
(0.00322754 -0.0255868 0)
(0.00377807 -0.0360639 0)
(0.0047867 -0.0391683 0)
(0.00561465 -0.039669 0)
(0.0173304 -0.0583824 0)
(0.0169756 -0.0610246 0)
(0.0189492 -0.0640898 0)
(0.0374341 -0.0522846 0)
(0.0359113 -0.0503825 0)
(0.0368676 -0.0585851 0)
(0.0305208 -0.0734018 0)
(0.0298646 -0.0783249 0)
(-0.038131 0.207522 0)
(-0.0382934 0.207012 0)
(-0.033669 0.191761 0)
(-0.0293892 0.175583 0)
(-0.0330435 0.189093 0)
(-0.0347592 0.194831 0)
(-0.019678 0.133335 0)
(-0.0226547 0.145252 0)
(-0.0213461 0.13998 0)
(-0.0288733 0.167937 0)
(-0.0270028 0.164145 0)
(-0.0287381 0.173959 0)
(-0.0147393 0.113296 0)
(-0.0140501 0.111433 0)
(-0.0135434 0.106986 0)
(-0.0127585 0.103799 0)
(-0.0119439 0.101413 0)
(-0.0114473 0.098454 0)
(-0.0202114 0.129528 0)
(-0.0149194 0.108678 0)
(-0.0135878 0.102241 0)
(-0.0378914 0.202202 0)
(-0.0339564 0.189728 0)
(-0.035685 0.19662 0)
(-0.0396991 0.210783 0)
(-0.035175 0.194427 0)
(-0.0367488 0.200878 0)
(-0.0349788 0.194284 0)
(-0.0358881 0.197252 0)
(-0.0813975 0.324301 0)
(-0.0824287 0.32566 0)
(-0.0804192 0.321961 0)
(-0.0550827 0.257188 0)
(-0.0500394 0.241774 0)
(-0.0510307 0.245452 0)
(-0.0552314 0.250317 0)
(-0.0605103 0.266545 0)
(-0.0589671 0.260128 0)
(-0.0689075 0.245072 0)
(-0.0648662 0.229837 0)
(-0.0661185 0.245886 0)
(-0.0565955 0.242798 0)
(-0.0545738 0.231784 0)
(-0.0486567 0.145193 0)
(-0.0510689 0.143051 0)
(-0.0479039 0.127686 0)
(-0.0219866 0.0696197 0)
(-0.0220517 0.0770967 0)
(-0.0250518 0.08587 0)
(-0.0137844 0.0635034 0)
(-0.0165532 0.0746999 0)
(-0.0149508 0.0657682 0)
(-0.00333151 0.0201202 0)
(-0.0039501 0.024189 0)
(-0.00417356 0.0244473 0)
(-0.0052653 0.0283131 0)
(-0.00605108 0.0327851 0)
(-0.00672141 0.0348498 0)
(-0.00304094 0.0198041 0)
(-0.00293728 0.0200107 0)
(-0.00357254 0.0229801 0)
(-0.000438923 0.00471325 0)
(-0.000490071 0.00483724 0)
(-0.00040524 0.0042245 0)
(-0.00243445 0.0161815 0)
(-0.00238669 0.0154712 0)
(-0.00197105 0.0132921 0)
(-0.000467177 0.00549104 0)
(-0.000379478 0.0050088 0)
(-0.000418224 0.00552574 0)
(-0.000267766 0.00561714 0)
(-0.000231081 0.00472301 0)
(-0.000192202 0.00484963 0)
(3.52352e-05 0.00608796 0)
(-3.16408e-05 0.00636829 0)
(3.8013e-06 0.00524893 0)
(-4.79099e-05 0.00367591 0)
(-9.24502e-05 0.00395167 0)
(-6.80061e-05 0.00340678 0)
(0.000138575 0.00333152 0)
(0.000205566 0.0042651 0)
(0.000136718 0.00423971 0)
(0.000507632 0.00416863 0)
(0.000358749 0.00289407 0)
(0.000496012 0.0031711 0)
(-0.0005187 0.00264275 0)
(-0.000466168 0.00242149 0)
(-0.000169061 0.00180683 0)
(0.000456432 0.000669393 0)
(0.000166909 0.00117704 0)
(6.261e-05 0.00122725 0)
(0.000583053 0.00156032 0)
(0.000472904 0.00106921 0)
(0.000429588 0.000691694 0)
(0.0010634 0.0010107 0)
(0.000770576 0.00234134 0)
(0.000548638 0.00185707 0)
(0.000340555 0.00214069 0)
(-0.00334446 0.010878 0)
(-0.00435595 0.0140068 0)
(-0.00322313 0.00979434 0)
(0.00992076 0.0699593 0)
(0.0133121 0.0632247 0)
(0.0218635 0.0334289 0)
(0.0215864 0.0321697 0)
(0.0232501 0.026409 0)
(0.0336095 -0.0156562 0)
(0.0348047 -0.0188151 0)
(0.0335249 -0.0121795 0)
(0.0385428 -0.0415701 0)
(0.0387114 -0.0470791 0)
(0.0393703 -0.0460787 0)
(0.0221619 0.0206548 0)
(0.0245455 0.011398 0)
(0.0231024 0.0225328 0)
(-0.0254861 0.18167 0)
(-0.0298702 0.195357 0)
(0.00174922 0.102599 0)
(-0.0463212 0.240625 0)
(-0.0443386 0.234909 0)
(-0.0411033 0.225721 0)
(-0.00509644 0.00681922 0)
(-0.00514333 0.00516748 0)
(-0.00351385 0.00123708 0)
(-0.00473995 -0.00589094 0)
(-0.0069724 -0.00116304 0)
(-0.00502361 -0.00800025 0)
(0.00515175 -0.0331246 0)
(0.00483336 -0.0420504 0)
(0.00325651 -0.0391087 0)
(0.00434247 -0.0418618 0)
(0.0197754 -0.0616568 0)
(0.0184919 -0.0573028 0)
(0.0418007 -0.070102 0)
(0.0407363 -0.0678892 0)
(0.0406006 -0.072783 0)
(0.040527 -0.0855191 0)
(0.0404227 -0.0809701 0)
(0.0393097 -0.0839545 0)
(-0.0531857 0.252589 0)
(-0.0454788 0.23008 0)
(-0.0308827 0.180718 0)
(-0.0352207 0.194335 0)
(-0.0358353 0.196886 0)
(-0.0227513 0.146875 0)
(-0.0257862 0.159329 0)
(-0.024896 0.155631 0)
(-0.0319315 0.175673 0)
(-0.0285734 0.165645 0)
(-0.032705 0.178672 0)
(-0.013332 0.110874 0)
(-0.0458557 0.234243 0)
(-0.0517118 0.250243 0)
(-0.0440699 0.227568 0)
(-0.0201338 0.128332 0)
(-0.0133291 0.100739 0)
(-0.0294218 0.172091 0)
(-0.0607694 0.275806 0)
(-0.0639945 0.284052 0)
(-0.0578363 0.26713 0)
(-0.0307462 0.177118 0)
(-0.0281756 0.166992 0)
(-0.0314278 0.180059 0)
(-0.0889451 0.341819 0)
(-0.088624 0.340159 0)
(-0.0872714 0.338487 0)
(-0.049006 0.244028 0)
(-0.0480966 0.241257 0)
(-0.0519185 0.25185 0)
(-0.0599166 0.273896 0)
(-0.0644413 0.286247 0)
(-0.0613958 0.278346 0)
(-0.0810447 0.315061 0)
(-0.0816562 0.320188 0)
(-0.0857839 0.328105 0)
(-0.0751146 0.30322 0)
(-0.0784116 0.310732 0)
(-0.0771821 0.303504 0)
(-0.0684458 0.232315 0)
(-0.0601516 0.217484 0)
(-0.0616917 0.210444 0)
(-0.0581399 0.201928 0)
(-0.0333781 0.0958263 0)
(-0.035827 0.110897 0)
(-0.0358652 0.10338 0)
(-0.0240282 0.0961721 0)
(-0.0217622 0.0826845 0)
(-0.0209111 0.0856582 0)
(-0.0276683 0.0389685 0)
(-0.0235523 0.0284737 0)
(-0.025817 0.0397614 0)
(-0.0090068 0.03723 0)
(-0.0104208 0.0442099 0)
(-0.010207 0.0411778 0)
(-0.0105626 0.040476 0)
(-0.00901565 0.0351104 0)
(-0.00490327 0.02751 0)
(-0.00413856 0.0228577 0)
(-0.00360182 0.0208053 0)
(-0.00623746 0.0288158 0)
(-0.00717947 0.0336429 0)
(-0.00730701 0.0326606 0)
(-0.00707769 0.0353048 0)
(-0.00595967 0.0300964 0)
(-0.00539875 0.0281524 0)
(-0.00106965 0.00801064 0)
(-0.000895829 0.00699547 0)
(-0.000995907 0.00777627 0)
(-0.000998661 0.00817064 0)
(-0.000864548 0.00741965 0)
(-0.00101743 0.00851944 0)
(-0.00202458 0.0131708 0)
(-0.00257545 0.0161129 0)
(-0.00206665 0.0129873 0)
(-0.00031114 0.00413388 0)
(-0.00036673 0.00437042 0)
(-0.000306145 0.00384171 0)
(-0.000255719 0.00386874 0)
(-0.000201533 0.00343429 0)
(-0.000226319 0.00393716 0)
(-8.41038e-05 0.00470806 0)
(7.70422e-05 0.00480587 0)
(8.71416e-05 0.00332682 0)
(-2.78437e-05 0.00446235 0)
(-6.59785e-05 0.00560376 0)
(0.000445605 0.00520894 0)
(0.00017857 0.00196932 0)
(0.000234565 0.00212006 0)
(0.000280879 0.00296296 0)
(0.000139846 0.00117162 0)
(9.05518e-05 0.00103866 0)
(-0.000102409 0.00151955 0)
(-0.00293627 0.0100333 0)
(-0.00386107 0.0133737 0)
(0.000409152 0.00124352 0)
(0.000364669 0.000573742 0)
(0.000480628 0.000689561 0)
(0.000517598 0.000791172 0)
(0.000166174 0.000400773 0)
(0.000171084 0.000563884 0)
(0.000280723 0.000574029 0)
(0.000339826 0.00120763 0)
(0.000462385 0.0019853 0)
(0.000449512 0.00239249 0)
(0.000301253 0.00153739 0)
(-0.00974216 0.0301706 0)
(-0.00815053 0.024397 0)
(-0.00870498 0.0288945 0)
(-0.00245921 0.00578591 0)
(-0.00358408 0.00999483 0)
(0.0205353 0.0384828 0)
(0.0186715 0.0465417 0)
(0.0194685 0.0406152 0)
(0.0374132 -0.0312824 0)
(0.0367085 -0.0317614 0)
(0.0375777 -0.0364433 0)
(0.0333385 -0.0189874 0)
(0.0321138 -0.0115107 0)
(0.0376349 -0.0422244 0)
(0.0268145 0.00836784 0)
(0.0297781 0.00111806 0)
(0.0313063 -0.00464006 0)
(0.0304088 0.00175565 0)
(-0.00562524 0.0151108 0)
(-0.00570246 0.01381 0)
(-0.00419939 0.000345545 0)
(-0.00296321 -0.00228622 0)
(-0.00670036 -0.00521099 0)
(-0.00648918 -0.0088121 0)
(-0.0051524 -0.0101344 0)
(-0.00207221 -0.0292965 0)
(-0.00307988 -0.0263878 0)
(-0.00390936 -0.0266954 0)
(0.0123652 -0.0630519 0)
(0.0148011 -0.0699608 0)
(0.0141528 -0.0669098 0)
(0.038894 -0.0944297 0)
(0.0390731 -0.0971944 0)
(0.0406395 -0.0962314 0)
(0.0398879 -0.0517107 0)
(0.0397388 -0.0576813 0)
(0.0407881 -0.0560781 0)
(0.0410747 -0.0605498 0)
(0.0416387 -0.0579006 0)
(0.0340739 -0.099909 0)
(0.0346533 -0.0969163 0)
(0.0323965 -0.0970426 0)
(-0.0552518 0.25928 0)
(-0.0406151 0.210793 0)
(-0.042094 0.216551 0)
(-0.0275309 0.163249 0)
(-0.0222729 0.142853 0)
(-0.0253022 0.157453 0)
(-0.0284998 0.170781 0)
(-0.0161309 0.117966 0)
(-0.0176411 0.125578 0)
(-0.0164518 0.120618 0)
(-0.0092864 0.0849969 0)
(-0.00911032 0.0829561 0)
(-0.00950017 0.0864229 0)
(-0.0424705 0.221885 0)
(-0.00946001 0.0823596 0)
(-0.0114391 0.0915646 0)
(-0.0115781 0.0925648 0)
(-0.0464873 0.235967 0)
(-0.0512106 0.249646 0)
(-0.0479164 0.240593 0)
(-0.093733 0.349257 0)
(-0.0920732 0.347177 0)
(-0.0943883 0.350919 0)
(-0.0877173 0.340137 0)
(-0.0893334 0.343246 0)
(-0.0899038 0.343905 0)
(-0.0522354 0.253291 0)
(-0.0549503 0.26066 0)
(-0.0549408 0.260966 0)
(-0.0671002 0.292793 0)
(-0.0712552 0.302734 0)
(-0.0704327 0.301182 0)
(-0.094241 0.34646 0)
(-0.0955667 0.349088 0)
(-0.0955751 0.348445 0)