/*--------------------------------*- C++ -*----------------------------------*\
| =========                 |                                                 |
| \\      /  F ield         | OpenFOAM: The Open Source CFD Toolbox           |
|  \\    /   O peration     | Version:  v2012                                 |
|   \\  /    A nd           | Website:  www.openfoam.com                      |
|    \\/     M anipulation  |                                                 |
\*---------------------------------------------------------------------------*/
FoamFile
{
    version     2.0;
    format      ascii;
    class       volVectorField;
    location    "1.14";
    object      cellDisplacement;
}
// * * * * * * * * * * * * * * * * * * * * * * * * * * * * * * * * * * * * * //

dimensions      [0 1 0 0 0 0 0];


internalField   nonuniform List<vector> 
11961
(
(-0.00134868 0.00294607 0)
(-0.00323297 0.00708743 0)
(-0.00300306 0.00653178 0)
(-0.00201558 0.00444636 0)
(-0.00609551 0.0133366 0)
(-0.00161192 0.00349226 0)
(-0.00575559 0.0125257 0)
(-0.00504296 0.0111495 0)
(-0.0088655 0.0194326 0)
(-0.00291145 0.00628646 0)
(-0.00786141 0.0170737 0)
(-0.00925383 0.0203816 0)
(-0.0053487 0.0118777 0)
(-0.0117771 0.0257268 0)
(-0.00578976 0.0124989 0)
(-0.00128984 0.00277616 0)
(-0.00793265 0.0171648 0)
(-0.0110491 0.0240339 0)
(-0.012843 0.0283457 0)
(-0.00981907 0.0218509 0)
(-0.0022061 0.00491805 0)
(-0.0152635 0.0333912 0)
(-0.00635839 0.0136776 0)
(-0.00228192 0.0048983 0)
(-0.0110205 0.023818 0)
(-0.0130366 0.0282591 0)
(-0.0132356 0.0293722 0)
(-0.0161117 0.0354356 0)
(-0.00978113 0.0218907 0)
(-0.00538383 0.0120623 0)
(-0.0177532 0.0386866 0)
(-0.00871332 0.0187291 0)
(-0.00452668 0.00971592 0)
(-0.000963813 0.00206396 0)
(-0.0112456 0.0242196 0)
(-0.0161731 0.035067 0)
(-0.0172972 0.0385005 0)
(-0.0200471 0.0441881 0)
(-0.0133601 0.0300043 0)
(-0.00465419 0.010488 0)
(-0.0213971 0.0466847 0)
(-0.00880282 0.0188656 0)
(-0.00497567 0.0106537 0)
(-0.00181983 0.00389069 0)
(-0.0134226 0.02886 0)
(-0.01805 0.038977 0)
(-0.0173945 0.0389604 0)
(-0.0208557 0.046262 0)
(-0.0229012 0.050265 0)
(-0.0129834 0.0293428 0)
(-0.0088831 0.0201259 0)
(-0.00160658 0.00362426 0)
(-0.0235584 0.0511842 0)
(-0.0068747 0.0147088 0)
(-0.0106773 0.0228581 0)
(-0.00366729 0.00784073 0)
(-0.00141192 0.0030148 0)
(-0.0163789 0.0352368 0)
(-0.012738 0.0273024 0)
(-0.0217572 0.0470064 0)
(-0.0214529 0.0482596 0)
(-0.0250243 0.0556813 0)
(-0.0271361 0.05967 0)
(-0.016291 0.03696 0)
(-0.00866857 0.0197766 0)
(-0.00154794 0.00353801 0)
(-0.0271488 0.0590533 0)
(-0.00681356 0.0145461 0)
(-0.0105452 0.022519 0)
(-0.00365635 0.00780204 0)
(-0.000496645 0.00105985 0)
(-0.00242892 0.00518068 0)
(-0.0170006 0.0364224 0)
(-0.0144664 0.0309468 0)
(-0.0236764 0.0509828 0)
(-0.0206731 0.0468115 0)
(-0.0255226 0.0572321 0)
(-0.0285464 0.0632192 0)
(-0.0292035 0.0638824 0)
(-0.0159972 0.0365257 0)
(-0.0125641 0.0287757 0)
(-0.00458138 0.0104952 0)
(-0.0293234 0.0635029 0)
(-0.00486238 0.0103675 0)
(-0.00857012 0.0182772 0)
(-0.0128892 0.0275083 0)
(-0.000749184 0.00159729 0)
(-0.00167203 0.00356413 0)
(-0.0194911 0.0416906 0)
(-0.0277327 0.0597828 0)
(-0.0227284 0.0487219 0)
(-0.0228696 0.052102 0)
(-0.0302138 0.068052 0)
(-0.0323495 0.0718382 0)
(-0.03309 0.0723346 0)
(-0.0196841 0.0450779 0)
(-0.0125799 0.0290403 0)
(-0.0049148 0.0113338 0)
(-0.0330919 0.0718002 0)
(-0.00449004 0.00955692 0)
(-0.00820553 0.0174619 0)
(-0.0130099 0.0276935 0)
(-0.000203919 0.000434498 0)
(-0.00153625 0.00327155 0)
(-0.0190576 0.040574 0)
(-0.0290289 0.0623113 0)
(-0.0257761 0.0551401 0)
(-0.026453 0.0603515 0)
(-0.0335675 0.075192 0)
(-0.0303461 0.068922 0)
(-0.0356485 0.0788286 0)
(-0.0360848 0.0792004 0)
(-0.0201916 0.0465713 0)
(-0.00903578 0.0209088 0)
(-0.0165026 0.0382401 0)
(-0.00192654 0.00446144 0)
(-0.0352892 0.0763484 0)
(-0.00602314 0.0128046 0)
(-0.00300582 0.00639302 0)
(-0.0101513 0.021574 0)
(-0.0156926 0.0333493 0)
(-0.000171074 0.000364325 0)
(-0.00205083 0.00436304 0)
(-0.00066173 0.00140887 0)
(-0.0222379 0.0472468 0)
(-0.032842 0.0704041 0)
(-0.0258012 0.0549639 0)
(-0.0272043 0.0625915 0)
(-0.0377126 0.0845572 0)
(-0.0336134 0.0768517 0)
(-0.038961 0.0865748 0)
(-0.0402751 0.0881611 0)
(-0.0240408 0.055608 0)
(-0.0081238 0.0189457 0)
(-0.0170007 0.0396742 0)
(-0.00396095 0.00923772 0)
(-0.0354504 0.0762506 0)
(-0.0386067 0.0836006 0)
(-0.00517735 0.0109845 0)
(-0.00202696 0.00430236 0)
(-0.00940099 0.0199307 0)
(-0.0144943 0.0306956 0)
(-0.00100565 0.0021383 0)
(-0.00037205 0.000791435 0)
(-0.0221442 0.0468511 0)
(-0.0327481 0.0698243 0)
(-0.0289696 0.0616015 0)
(-0.0310038 0.0714825 0)
(-0.0404864 0.0912403 0)
(-0.0378798 0.0866621 0)
(-0.0427647 0.0948289 0)
(-0.0437444 0.0962398 0)
(-0.0410535 0.0892311 0)
(-0.0244631 0.0571122 0)
(-0.0103731 0.0243239 0)
(-0.0210268 0.0492579 0)
(-0.0142405 0.0333894 0)
(-0.00208574 0.00489538 0)
(-0.0387689 0.0833951 0)
(-0.00267037 0.0056623 0)
(-0.00660932 0.0140007 0)
(-0.000676945 0.00143685 0)
(-0.0111683 0.0236323 0)
(-0.0159468 0.0336712 0)
(-0.0192219 0.0405636 0)
(-0.0261223 0.0551616 0)
(-0.0353233 0.0750748 0)
(-0.0291311 0.0616691 0)
(-0.0319097 0.0742608 0)
(-0.0407275 0.0925308 0)
(-0.0447111 0.100428 0)
(-0.03951 0.0914556 0)
(-0.0457806 0.102077 0)
(-0.0479799 0.105329 0)
(-0.0451414 0.0978986 0)
(-0.0283496 0.0664342 0)
(-0.00834352 0.0197 0)
(-0.0201003 0.0474493 0)
(-0.0160174 0.0378027 0)
(-0.00431569 0.0101917 0)
(-0.0415402 0.0891421 0)
(-0.00130452 0.0027613 0)
(-0.0054454 0.0115094 0)
(-0.00974104 0.0205636 0)
(-0.0132998 0.0279994 0)
(-0.019498 0.040981 0)
(-0.0258571 0.054364 0)
(-0.0328196 0.0694177 0)
(-0.0389721 0.0828473 0)
(-0.0359965 0.084001 0)
(-0.0462758 0.105431 0)
(-0.0481835 0.108845 0)
(-0.0442326 0.102692 0)
(-0.0503523 0.112137 0)
(-0.0486098 0.105894 0)
(-0.0516982 0.114178 0)
(-0.045482 0.0979759 0)
(-0.0287969 0.0682176 0)
(-0.0105333 0.0249981 0)
(-0.0217081 0.0515509 0)
(-0.0143634 0.0340625 0)
(-0.00221398 0.00525999 0)
(-0.0417995 0.0891978 0)
(-0.00272575 0.0057589 0)
(-0.0069282 0.0146167 0)
(-0.0105987 0.02232 0)
(-0.0136187 0.0285888 0)
(-0.0164895 0.0345829 0)
(-0.0223895 0.0469812 0)
(-0.0285346 0.059848 0)
(-0.0342633 0.072203 0)
(-0.0401286 0.0848866 0)
(-0.0365503 0.0862284 0)
(-0.0481989 0.110847 0)
(-0.0522491 0.117455 0)
(-0.0450001 0.105749 0)
(-0.0526313 0.114315 0)
(-0.0560182 0.12331 0)
(-0.0491235 0.105558 0)
(-0.0254271 0.0605284 0)
(-0.0327729 0.0779255 0)
(-0.00979161 0.0233611 0)
(-0.0191036 0.0456553 0)
(-0.0159119 0.0379763 0)
(-0.00367428 0.00878006 0)
(-0.0458633 0.0976683 0)
(-0.001408 0.00296743 0)
(-0.00579503 0.0121993 0)
(-0.00792657 0.0166636 0)
(-0.0106459 0.022304 0)
(-0.016279 0.0340391 0)
(-0.0218682 0.0457275 0)
(-0.0272016 0.0568378 0)
(-0.0321983 0.0675898 0)
(-0.0379772 0.0800321 0)
(-0.0434076 0.0917051 0)
(-0.0407975 0.0965879 0)
(-0.0537645 0.123993 0)
(-0.0565157 0.127359 0)
(-0.0495266 0.116908 0)
(-0.0562346 0.122619 0)
(-0.0527546 0.113743 0)
(-0.0599141 0.132427 0)
(-0.0491044 0.104878 0)
(-0.0248482 0.0597266 0)
(-0.0333388 0.0800426 0)
(-0.00695342 0.0166261 0)
(-0.0131388 0.0314637 0)
(-0.0208119 0.0500389 0)
(-0.00153547 0.00368358 0)
(-0.04603 0.0974922 0)
(-0.00309092 0.0065012 0)
(-0.00783634 0.0164339 0)
(-0.0107693 0.0225092 0)
(-0.0135264 0.0282441 0)
(-0.0188206 0.0392957 0)
(-0.0241489 0.0503992 0)
(-0.0290046 0.0604694 0)
(-0.0336305 0.070367 0)
(-0.0397717 0.0835568 0)
(-0.0431869 0.0908407 0)
(-0.0408353 0.0978061 0)
(-0.0544296 0.12732 0)
(-0.0578587 0.132012 0)
(-0.0604798 0.135005 0)
(-0.0489744 0.117201 0)
(-0.059762 0.12976 0)
(-0.0562853 0.12093 0)
(-0.0636117 0.139645 0)
(-0.0521924 0.111184 0)
(-0.0270918 0.0655836 0)
(-0.0308001 0.0745714 0)
(-0.0372162 0.0896194 0)
(-0.0070872 0.0170404 0)
(-0.0131205 0.031591 0)
(-0.0192786 0.046619 0)
(-0.00374939 0.00902305 0)
(-0.0489763 0.103569 0)
(-0.00176326 0.00369722 0)
(-0.00432081 0.00904648 0)
(-0.0081941 0.0170961 0)
(-0.0129061 0.0268839 0)
(-0.0182312 0.0379623 0)
(-0.0231939 0.0482776 0)
(-0.0317353 0.0662034 0)
(-0.0275912 0.0573415 0)
(-0.0364255 0.0761585 0)
(-0.0390296 0.081723 0)
(-0.0453059 0.095091 0)
(-0.0445179 0.107216 0)
(-0.0589997 0.138845 0)
(-0.0636568 0.14533 0)
(-0.0648304 0.144994 0)
(-0.0524368 0.126373 0)
(-0.0596474 0.128527 0)
(-0.0631472 0.137515 0)
(-0.0556824 0.118898 0)
(-0.0675463 0.148628 0)
(-0.0517399 0.109704 0)
(-0.0247642 0.0604042 0)
(-0.0327216 0.0799572 0)
(-0.0366705 0.0893173 0)
(-0.00958121 0.0230914 0)
(-0.0157185 0.0379992 0)
(-0.0211445 0.0514606 0)
(-0.00343442 0.00829225 0)
(-0.0496758 0.104664 0)
(-0.00448348 0.00936316 0)
(-0.00953724 0.0198571 0)
(-0.0150774 0.0313607 0)
(-0.0203962 0.0424094 0)
(-0.0248772 0.0516723 0)
(-0.0332587 0.0692303 0)
(-0.0292345 0.0606585 0)
(-0.0360351 0.0750805 0)
(-0.0414079 0.0865245 0)
(-0.0442443 0.0925413 0)
(-0.0482878 0.101429 0)
(-0.0434236 0.105944 0)
(-0.063583 0.148466 0)
(-0.0574297 0.137458 0)
(-0.0655761 0.151147 0)
(-0.0664615 0.149943 0)
(-0.0681479 0.151168 0)
(-0.0506413 0.123917 0)
(-0.0626585 0.134561 0)
(-0.0659837 0.14302 0)
(-0.057812 0.123033 0)
(-0.0702357 0.153545 0)
(-0.054174 0.114583 0)
(-0.0256497 0.0630744 0)
(-0.0317787 0.078442 0)
(-0.0392517 0.0962355 0)
(-0.00936634 0.0226631 0)
(-0.0146271 0.0355048 0)
(-0.0191789 0.0468753 0)
(-0.00119944 0.00289579 0)
(-0.0062532 0.0151315 0)
(-0.0529735 0.111621 0)
(-0.00193751 0.00403945 0)
(-0.00812553 0.016883 0)
(-0.0142838 0.0296467 0)
(-0.0199399 0.0413646 0)
(-0.0228055 0.0472715 0)
(-0.0321687 0.0668072 0)
(-0.0287977 0.0596236 0)
(-0.037921 0.0789095 0)
(-0.0406433 0.084679 0)
(-0.0460295 0.0960915 0)
(-0.0501679 0.105092 0)
(-0.0461582 0.113523 0)
(-0.0672221 0.158002 0)
(-0.0601439 0.145294 0)
(-0.0708741 0.163048 0)
(-0.0709343 0.159545 0)
(-0.0716735 0.159457 0)
(-0.0533575 0.131883 0)
(-0.0656071 0.141298 0)
(-0.0628885 0.134262 0)
(-0.0691179 0.150084 0)
(-0.0607912 0.129375 0)
(-0.0566865 0.120051 0)
(-0.0735777 0.160884 0)
(-0.028627 0.0707828 0)
(-0.0231841 0.0572633 0)
(-0.0343755 0.0855818 0)
(-0.0379798 0.0941651 0)
(-0.0116639 0.0282984 0)
(-0.0162748 0.0396767 0)
(-0.0203582 0.050074 0)
(-0.00110089 0.0026647 0)
(-0.0061794 0.0149805 0)
(-0.0539751 0.113466 0)
(-0.0042208 0.00877148 0)
(-0.0106968 0.0221839 0)
(-0.0170126 0.0352571 0)
(-0.0234219 0.0484484 0)
(-0.0332835 0.0690022 0)
(-0.0265265 0.0548379 0)
(-0.0313094 0.0647874 0)
(-0.0374566 0.0777551 0)
(-0.0424324 0.0882757 0)
(-0.0449596 0.0936079 0)
(-0.0489592 0.10227 0)
(-0.0526211 0.11029 0)
(-0.0440553 0.109918 0)
(-0.0676277 0.160836 0)
(-0.071429 0.16618 0)
(-0.0578619 0.142095 0)
(-0.0646758 0.155625 0)
(-0.073915 0.168528 0)
(-0.0736498 0.166299 0)
(-0.0748579 0.165792 0)
(-0.050697 0.127567 0)
(-0.0682539 0.146531 0)
(-0.0657737 0.14014 0)
(-0.0710524 0.153639 0)
(-0.0610506 0.129371 0)
(-0.0586249 0.123919 0)
(-0.0755104 0.165919 0)
(-0.0749571 0.162834 0)
(-0.0273587 0.0682731 0)
(-0.0241619 0.0600976 0)
(-0.0339505 0.0854951 0)
(-0.0401799 0.100482 0)
(-0.011442 0.0278334 0)
(-0.0140947 0.0343853 0)
(-0.0180797 0.044479 0)
(-0.00301583 0.00730188 0)
(-0.00885025 0.0214902 0)
(-0.0559928 0.117669 0)
(-0.00226333 0.004694 0)
(-0.0102054 0.0211253 0)
(-0.0161731 0.0334543 0)
(-0.0209006 0.0431509 0)
(-0.0354026 0.0733795 0)
(-0.0273246 0.056372 0)
(-0.0317868 0.0656826 0)
(-0.0394025 0.0817063 0)
(-0.0416289 0.0863935 0)
(-0.0465283 0.0967146 0)
(-0.0501449 0.10455 0)
(-0.0545779 0.114231 0)
(-0.0459427 0.115974 0)
(-0.0726838 0.172497 0)
(-0.0748254 0.174865 0)
(-0.0609628 0.151113 0)
(-0.0656691 0.160599 0)
(-0.0784899 0.178803 0)
(-0.0776139 0.174072 0)
(-0.0780458 0.173555 0)
(-0.0529195 0.134976 0)
(-0.0681603 0.145616 0)
(-0.0706014 0.151897 0)
(-0.066222 0.140557 0)
(-0.0736211 0.159259 0)
(-0.0627956 0.132787 0)
(-0.0589662 0.124254 0)
(-0.0787655 0.172572 0)
(-0.0775997 0.168382 0)
(-0.0282162 0.0710844 0)
(-0.0232608 0.058187 0)
(-0.0310566 0.0787031 0)
(-0.0375422 0.0950387 0)
(-0.0148782 0.0363954 0)
(-0.0183857 0.0454016 0)
(-0.00322948 0.00781309 0)
(-0.00833461 0.0202276 0)
(-0.0561953 0.11779 0)
(-0.0578931 0.121749 0)
(-0.00424769 0.00878495 0)
(-0.0130067 0.0268886 0)
(-0.00768405 0.0158839 0)
(-0.017911 0.0369829 0)
(-0.0218253 0.0449692 0)
(-0.0360849 0.0746535 0)
(-0.0251477 0.0517961 0)
(-0.0301098 0.0621104 0)
(-0.0344439 0.0711563 0)
(-0.0384633 0.0795869 0)
(-0.043032 0.089208 0)
(-0.0487992 0.101493 0)
(-0.0453883 0.0941474 0)
(-0.0525808 0.109615 0)
(-0.0545427 0.113887 0)
(-0.0427767 0.109498 0)
(-0.0743878 0.178328 0)
(-0.0784535 0.182163 0)
(-0.0591201 0.149387 0)
(-0.0703451 0.171894 0)
(-0.0801006 0.183714 0)
(-0.080439 0.181179 0)
(-0.0810133 0.179248 0)
(-0.0497518 0.129219 0)
(-0.070199 0.149671 0)
(-0.0728217 0.15637 0)
(-0.0649303 0.1374 0)
(-0.0685953 0.145455 0)
(-0.0746054 0.160687 0)
(-0.0616397 0.129877 0)
(-0.0793283 0.172738 0)
(-0.0809976 0.17798 0)
(-0.0782588 0.168969 0)
(-0.0253333 0.0640111 0)
(-0.0207668 0.0517054 0)
(-0.0306718 0.0788133 0)
(-0.0384271 0.0983004 0)
(-0.0129536 0.031603 0)
(-0.0161225 0.0395839 0)
(-0.00567758 0.0137412 0)
(-0.0011861 0.00286231 0)
(-0.0101269 0.0246029 0)
(-0.0579812 0.121621 0)
(-0.0019826 0.00409201 0)
(-0.0124916 0.0257766 0)
(-0.00941427 0.0194213 0)
(-0.0152473 0.0314358 0)
(-0.0194227 0.0399616 0)
(-0.0258024 0.0530615 0)
(-0.0316923 0.0653077 0)
(-0.0345503 0.0712649 0)
(-0.039969 0.0826277 0)
(-0.0423269 0.0875763 0)
(-0.0503313 0.104561 0)
(-0.0461195 0.0955214 0)
(-0.0525699 0.10934 0)
(-0.0569074 0.118756 0)
(-0.0425512 0.110511 0)
(-0.0790886 0.188731 0)
(-0.081628 0.190387 0)
(-0.0622712 0.158922 0)
(-0.0719286 0.177997 0)
(-0.0841464 0.192445 0)
(-0.0837991 0.188007 0)
(-0.0836469 0.185324 0)
(-0.0505742 0.133601 0)
(-0.0450303 0.11768 0)
(-0.0721924 0.154083 0)
(-0.0701262 0.14896 0)
(-0.0733185 0.156903 0)
(-0.0664482 0.140249 0)
(-0.0685818 0.144939 0)
(-0.0766328 0.164929 0)
(-0.0628318 0.132121 0)
(-0.0819118 0.178001 0)
(-0.0832174 0.182293 0)
(-0.0803277 0.173234 0)
(-0.0251205 0.064106 0)
(-0.0196525 0.0489924 0)
(-0.0329814 0.0855409 0)
(-0.0276263 0.071293 0)
(-0.0361343 0.0935228 0)
(-0.0137845 0.0336448 0)
(-0.0160656 0.0394064 0)
(-0.0049934 0.0120431 0)
(-0.00253548 0.00610367 0)
(-0.0089248 0.0215895 0)
(-0.0593515 0.124353 0)
(-0.0039815 0.00820188 0)
(-0.0079428 0.0163595 0)
(-0.0158352 0.0325955 0)
(-0.0202406 0.0415732 0)
(-0.0286552 0.0588961 0)
(-0.0232819 0.0478061 0)
(-0.0312841 0.0643557 0)
(-0.0367619 0.0757896 0)
(-0.0393976 0.0813033 0)
(-0.0441123 0.0912256 0)
(-0.0499624 0.103607 0)
(-0.0479695 0.099335 0)
(-0.0543865 0.113062 0)
(-0.0566412 0.117914 0)
(-0.0589973 0.123286 0)
(-0.0381154 0.0997877 0)
(-0.0819958 0.193112 0)
(-0.0813839 0.19623 0)
(-0.0850056 0.196235 0)
(-0.0685479 0.172781 0)
(-0.0594819 0.155188 0)
(-0.0787133 0.192928 0)
(-0.086331 0.195887 0)
(-0.0847765 0.188736 0)
(-0.0861674 0.194056 0)
(-0.0857385 0.188933 0)
(-0.0453968 0.122041 0)
(-0.0541017 0.14334 0)
(-0.042774 0.114006 0)
(-0.0735355 0.156505 0)
(-0.0723082 0.153502 0)
(-0.0757067 0.161884 0)
(-0.0655326 0.137901 0)
(-0.0704748 0.14883 0)
(-0.0772386 0.165553 0)
(-0.0617933 0.129586 0)
(-0.0835284 0.182032 0)
(-0.082208 0.177786 0)
(-0.0853504 0.187244 0)
(-0.0805658 0.173114 0)
(-0.0225888 0.0575294 0)
(-0.0175077 0.043207 0)
(-0.020369 0.0511961 0)
(-0.0310314 0.0817064 0)
(-0.0277361 0.0726293 0)
(-0.0119666 0.0289989 0)
(-0.014422 0.0350577 0)
(-0.00647341 0.0155927 0)
(-0.00135566 0.00324593 0)
(-0.0099014 0.0238998 0)
(-0.00202587 0.00416465 0)
(-0.00985797 0.0202688 0)
(-0.0134849 0.0277213 0)
(-0.0179814 0.0368941 0)
(-0.0278954 0.057238 0)
(-0.0244765 0.0502005 0)
(-0.0338519 0.0696077 0)
(-0.0364723 0.0750725 0)
(-0.0416649 0.0859451 0)
(-0.0440459 0.0909586 0)
(-0.0517894 0.107322 0)
(-0.0483671 0.100011 0)
(-0.0539376 0.111891 0)
(-0.0584632 0.121657 0)
(-0.0613001 0.128023 0)
(-0.03638 0.096715 0)
(-0.0861588 0.202858 0)
(-0.0864088 0.20602 0)
(-0.0878141 0.202858 0)
(-0.0714364 0.181922 0)
(-0.0630933 0.165864 0)
(-0.0806595 0.19969 0)
(-0.089428 0.202717 0)
(-0.0876796 0.194733 0)
(-0.0893892 0.200335 0)
(-0.0879221 0.19406 0)
(-0.0433659 0.119317 0)
(-0.0519871 0.141322 0)
(-0.0384557 0.103456 0)
(-0.0755865 0.161031 0)
(-0.0726639 0.153846 0)
(-0.0665483 0.139777 0)
(-0.0705805 0.148629 0)
(-0.0791165 0.169496 0)
(-0.0630965 0.132034 0)
(-0.0854831 0.186128 0)
(-0.0840723 0.181488 0)
(-0.0866271 0.189359 0)
(-0.0821729 0.176382 0)
(-0.0219163 0.0564065 0)
(-0.0163131 0.0399354 0)
(-0.0185573 0.0462491 0)
(-0.0323198 0.0862773 0)
(-0.0257104 0.067814 0)
(-0.0125678 0.0303501 0)
(-0.0147211 0.0356487 0)
(-0.00618687 0.014825 0)
(-0.00235663 0.00561112 0)
(-0.00825391 0.0197713 0)
(-0.00409739 0.00840967 0)
(-0.00793435 0.0162846 0)
(-0.0148009 0.030379 0)
(-0.0178873 0.0366546 0)
(-0.0297119 0.0609207 0)
(-0.0228464 0.0467979 0)
(-0.0345594 0.0709761 0)
(-0.0388367 0.0799084 0)
(-0.0413857 0.0852296 0)
(-0.0464511 0.0959138 0)
(-0.0507305 0.104934 0)
(-0.0558244 0.115758 0)
(-0.0610085 0.127149 0)
(-0.0581309 0.12071 0)
(-0.0885279 0.206416 0)
(-0.0899959 0.214832 0)
(-0.0903753 0.207237 0)
(-0.0768085 0.193642 0)
(-0.0685506 0.177966 0)
(-0.0607661 0.163269 0)
(-0.0850046 0.209704 0)
(-0.0910411 0.204758 0)
(-0.0908926 0.206853 0)
(-0.0897896 0.199961 0)
(-0.0896399 0.197351 0)
(-0.0463047 0.128479 0)
(-0.0382456 0.106646 0)
(-0.0554005 0.151392 0)
(-0.0361975 0.0994132 0)
(-0.0770987 0.164017 0)
(-0.0748159 0.158322 0)
(-0.0687556 0.144451 0)
(-0.065143 0.136407 0)
(-0.0727869 0.153226 0)
(-0.0802363 0.171417 0)
(-0.0865417 0.187819 0)
(-0.0860195 0.185978 0)
(-0.0837763 0.18014 0)
(-0.0885231 0.19336 0)
(-0.0821378 0.175691 0)
(-0.02318 0.0606232 0)
(-0.0195034 0.0495453 0)
(-0.0167618 0.0411098 0)
(-0.0183429 0.0458493 0)
(-0.0304125 0.0826114 0)
(-0.0255026 0.0686356 0)
(-0.0113799 0.0271838 0)
(-0.013598 0.0325145 0)
(-0.00455089 0.010839 0)
(-0.00101641 0.00239953 0)
(-0.00820762 0.0195096 0)
(-0.00210272 0.00430797 0)
(-0.0099428 0.0203811 0)
(-0.013129 0.0269156 0)
(-0.0197826 0.0405064 0)
(-0.0149844 0.0306911 0)
(-0.0283624 0.05808 0)
(-0.0329788 0.0676493 0)
(-0.0249351 0.0510313 0)
(-0.0378455 0.0777545 0)
(-0.043789 0.0901732 0)
(-0.0464609 0.095806 0)
(-0.0520459 0.107592 0)
(-0.0550109 0.113854 0)
(-0.0624492 0.13002 0)
(-0.0604289 0.125508 0)
(-0.0918 0.213367 0)
(-0.0907215 0.219033 0)
(-0.0935596 0.220481 0)
(-0.0927444 0.213334 0)
(-0.0796009 0.202611 0)
(-0.0713468 0.186758 0)
(-0.0640937 0.173481 0)
(-0.0843802 0.212024 0)
(-0.0885498 0.216517 0)
(-0.0933672 0.209955 0)
(-0.0935929 0.211976 0)
(-0.0920424 0.204198 0)
(-0.0916361 0.202165 0)
(-0.0898738 0.196845 0)
(-0.0441945 0.126234 0)
(-0.0348271 0.0999028 0)
(-0.0533355 0.149353 0)
(-0.0322138 0.0889998 0)
(-0.0795463 0.169448 0)
(-0.0768172 0.162892 0)
(-0.0748153 0.157841 0)
(-0.0689043 0.144438 0)
(-0.0665586 0.139227 0)
(-0.0728322 0.152952 0)
(-0.0886318 0.192657 0)
(-0.0875608 0.188815 0)
(-0.0850255 0.182463 0)
(-0.0838175 0.179254 0)
(-0.0216222 0.0570806 0)
(-0.0184816 0.0470798 0)
(-0.0156996 0.0379537 0)
(-0.0164142 0.0400465 0)
(-0.0271666 0.0740874 0)
(-0.0226595 0.0610074 0)
(-0.00959534 0.0227486 0)
(-0.012068 0.0286503 0)
(-0.0133428 0.0314628 0)
(-0.00486196 0.0114835 0)
(-0.00194527 0.00455252 0)
(-0.00650538 0.0153419 0)
(-0.00452032 0.00925079 0)
(-0.00850292 0.0174038 0)
(-0.017659 0.0361261 0)
(-0.0146059 0.0298878 0)
(-0.0301039 0.0616171 0)
(-0.0346083 0.0709384 0)
(-0.0240673 0.0492114 0)
(-0.0392288 0.0805506 0)
(-0.0438369 0.0901622 0)
(-0.0486112 0.100235 0)
(-0.0510648 0.105402 0)
(-0.056388 0.116639 0)
(-0.0646489 0.134692 0)
(-0.0605978 0.125693 0)
(-0.0938217 0.218832 0)
(-0.0955603 0.229566 0)
(-0.0967931 0.228125 0)
(-0.0950593 0.217646 0)
(-0.0769956 0.199473 0)
(-0.0691154 0.184411 0)
(-0.0618655 0.171433 0)
(-0.0878895 0.220816 0)
(-0.0908436 0.224217 0)
(-0.0947074 0.212152 0)
(-0.0953949 0.216653 0)
(-0.0942279 0.209244 0)
(-0.0929914 0.20444 0)
(-0.0919215 0.201186 0)
(-0.0393483 0.114976 0)
(-0.0481856 0.137965 0)
(-0.0353197 0.103453 0)
(-0.0310233 0.0891914 0)
(-0.0566871 0.15959 0)
(-0.0301703 0.0850379 0)
(-0.0807616 0.171626 0)
(-0.0790174 0.167456 0)
(-0.0766968 0.161783 0)
(-0.0707965 0.148367 0)
(-0.0664233 0.138687 0)
(-0.0748494 0.15717 0)
(-0.0901018 0.195447 0)
(-0.0895749 0.193414 0)
(-0.0868619 0.186578 0)
(-0.0844519 0.180189 0)
(-0.0193766 0.0505455 0)
(-0.0166968 0.0414403 0)
(-0.0142018 0.0335241 0)
(-0.0158664 0.0383738 0)
(-0.0255453 0.0712799 0)
(-0.0212044 0.0581002 0)
(-0.00892451 0.0208467 0)
(-0.0112506 0.0262909 0)
(-0.0119705 0.0277279 0)
(-0.00367126 0.00859274 0)
(-0.000928205 0.00214778 0)
(-0.00622013 0.0144951 0)
(-0.00244991 0.00500641 0)
(-0.0113172 0.0231477 0)
(-0.0179095 0.0366058 0)
(-0.0292831 0.0598875 0)
(-0.0330655 0.0677053 0)
(-0.0375948 0.0770919 0)
(-0.0209435 0.0427957 0)
(-0.0266706 0.0545136 0)
(-0.0419619 0.0861998 0)
(-0.0465275 0.0957071 0)
(-0.0484774 0.0998161 0)
(-0.0526129 0.108552 0)
(-0.0587321 0.121588 0)
(-0.0549782 0.113516 0)
(-0.0658789 0.137085 0)
(-0.0628057 0.130268 0)
(-0.0968103 0.224113 0)
(-0.0968646 0.23474 0)
(-0.0977825 0.232282 0)
(-0.0990991 0.231505 0)
(-0.0970869 0.222881 0)
(-0.0783789 0.205796 0)
(-0.0727695 0.195067 0)
(-0.0652211 0.182257 0)
(-0.0892808 0.226512 0)
(-0.09437 0.23182 0)
(-0.096982 0.217359 0)
(-0.0949793 0.211736 0)
(-0.097403 0.220419 0)
(-0.0958251 0.211752 0)
(-0.0950173 0.208986 0)
(-0.0927151 0.202264 0)
(-0.0369604 0.112092 0)
(-0.0477118 0.139949 0)
(-0.0312168 0.0943398 0)
(-0.0277331 0.0813943 0)
(-0.0534981 0.154868 0)
(-0.0270664 0.0766676 0)
(-0.0829568 0.176376 0)
(-0.0788807 0.166756 0)
(-0.0766876 0.161355 0)
(-0.0706784 0.147825 0)
(-0.0686556 0.14334 0)
(-0.0747728 0.156677 0)
(-0.0919926 0.199847 0)
(-0.0910299 0.196166 0)
(-0.0881604 0.188904 0)
(-0.0869424 0.185618 0)
(-0.0181822 0.0478145 0)
(-0.0156085 0.0383833 0)
(-0.0132973 0.0303572 0)
(-0.0146568 0.0342925 0)
(-0.0223748 0.0627666 0)
(-0.0189285 0.0513081 0)
(-0.00985366 0.0228262 0)
(-0.00730566 0.0169216 0)
(-0.0111782 0.0251947 0)
(-0.00453649 0.0105198 0)
(-0.001966 0.00449612 0)
(-0.00469843 0.00959355 0)
(-0.0112931 0.0230772 0)
(-0.0148271 0.0302855 0)
(-0.0314808 0.0643795 0)
(-0.0338171 0.0692082 0)
(-0.0390324 0.0800151 0)
(-0.020734 0.0423398 0)
(-0.0263385 0.0538074 0)
(-0.0432757 0.0888524 0)
(-0.046101 0.094722 0)
(-0.0509744 0.105013 0)
(-0.0595948 0.123291 0)
(-0.0563187 0.116235 0)
(-0.0683354 0.142408 0)
(-0.0650976 0.135195 0)
(-0.0619194 0.128213 0)
(-0.0989806 0.229462 0)
(-0.10046 0.242684 0)
(-0.10081 0.238677 0)
(-0.101392 0.23682 0)
(-0.0991784 0.226563 0)
(-0.0826118 0.216739 0)
(-0.0713393 0.19533 0)
(-0.0621128 0.178596 0)
(-0.0941279 0.236414 0)
(-0.0874722 0.225778 0)
(-0.0960644 0.237953 0)
(-0.0971611 0.216671 0)
(-0.0980414 0.220436 0)
(-0.0992027 0.225147 0)
(-0.0977505 0.216229 0)
(-0.0960331 0.210367 0)
(-0.0948382 0.206911 0)
(-0.0387981 0.119207 0)
(-0.03204 0.0990227 0)
(-0.0440346 0.132727 0)
(-0.0267575 0.0824309 0)
(-0.0256439 0.0776334 0)
(-0.0256528 0.0743553 0)
(-0.0554385 0.162497 0)
(-0.0838241 0.177815 0)
(-0.0803602 0.16967 0)
(-0.0788002 0.165871 0)
(-0.0726757 0.151975 0)
(-0.0767517 0.160859 0)
(-0.0936258 0.202956 0)
(-0.0932453 0.201341 0)
(-0.0903514 0.193875 0)
(-0.0875905 0.186579 0)
(-0.0165403 0.042844 0)
(-0.0145503 0.0344201 0)
(-0.0155212 0.0389913 0)
(-0.0136435 0.0308848 0)
(-0.0118744 0.0263475 0)
(-0.0142292 0.0328322 0)
(-0.0208576 0.0601274 0)
(-0.0169613 0.0464469 0)
(-0.00927104 0.0210967 0)
(-0.00677849 0.0154312 0)
(-0.00992272 0.0222012 0)
(-0.00384781 0.00880226 0)
(-0.00102592 0.00231271 0)
(-0.00228519 0.00466157 0)
(-0.00867738 0.0177179 0)
(-0.0145984 0.0297988 0)
(-0.0314524 0.0642905 0)
(-0.0360323 0.0737562 0)
(-0.0419924 0.0861349 0)
(-0.0382823 0.0784098 0)
(-0.0235859 0.0481576 0)
(-0.0174859 0.0356853 0)
(-0.0290802 0.0594086 0)
(-0.047702 0.0980228 0)
(-0.0518988 0.10687 0)
(-0.058631 0.121116 0)
(-0.0548589 0.113061 0)
(-0.0700343 0.145933 0)
(-0.0669424 0.139009 0)
(-0.0624755 0.129292 0)
(-0.101133 0.233022 0)
(-0.101347 0.246872 0)
(-0.102729 0.245778 0)
(-0.102607 0.243656 0)
(-0.101996 0.239535 0)
(-0.103153 0.239541 0)
(-0.101129 0.23144 0)
(-0.0811647 0.217627 0)
(-0.0755008 0.206887 0)
(-0.0646149 0.188007 0)
(-0.0964705 0.243539 0)
(-0.0914053 0.236764 0)
(-0.0995204 0.245054 0)
(-0.0983211 0.218643 0)
(-0.100173 0.225144 0)
(-0.100877 0.227985 0)
(-0.0993529 0.219218 0)
(-0.0979486 0.21453 0)
(-0.0953813 0.207303 0)
(-0.0357039 0.114334 0)
(-0.0282568 0.0906296 0)
(-0.0450957 0.139197 0)
(-0.0243783 0.0781966 0)
(-0.0218049 0.0662324 0)
(-0.022808 0.0669591 0)
(-0.0508706 0.154561 0)
(-0.0860433 0.182691 0)
(-0.0824835 0.174358 0)
(-0.0789543 0.165876 0)
(-0.0723507 0.151019 0)
(-0.0764792 0.15997 0)
(-0.0946357 0.203951 0)
(-0.0917213 0.196505 0)
(-0.0897788 0.191242 0)
(-0.0156691 0.0414322 0)
(-0.0135944 0.0312641 0)
(-0.0140071 0.0343351 0)
(-0.013034 0.0281759 0)
(-0.0113502 0.0242529 0)
(-0.0135023 0.0298892 0)
(-0.0178074 0.0517873 0)
(-0.0162347 0.0458149 0)
(-0.00781605 0.0176288 0)
(-0.00502397 0.0113578 0)
(-0.00904156 0.0198682 0)
(-0.00169781 0.00375747 0)
(-0.00488597 0.0099635 0)
(-0.0109257 0.0222934 0)
(-0.0337226 0.0689483 0)
(-0.0358575 0.0733545 0)
(-0.0427238 0.0876087 0)
(-0.0404694 0.0829107 0)
(-0.0234866 0.0479411 0)
(-0.0174419 0.0355818 0)
(-0.0290526 0.0593448 0)
(-0.050437 0.103737 0)
(-0.0471062 0.0967177 0)
(-0.0602387 0.124461 0)
(-0.0558588 0.115095 0)
(-0.0694586 0.144461 0)
(-0.0663743 0.137627 0)
(-0.0642884 0.133102 0)
(-0.103123 0.237959 0)
(-0.104406 0.253856 0)
(-0.105526 0.252464 0)
(-0.10509 0.247601 0)
(-0.104453 0.244737 0)
(-0.105081 0.24461 0)
(-0.102911 0.234444 0)
(-0.0843666 0.226991 0)
(-0.0753153 0.21035 0)
(-0.0711587 0.203732 0)
(-0.0598941 0.180479 0)
(-0.100367 0.251138 0)
(-0.0954595 0.244012 0)
(-0.0912231 0.23946 0)
(-0.101434 0.251126 0)
(-0.100491 0.223662 0)
(-0.101448 0.226885 0)
(-0.102665 0.2324 0)
(-0.101227 0.224137 0)
(-0.0994171 0.21846 0)
(-0.0987378 0.215386 0)
(-0.0973627 0.211577 0)
(-0.0307385 0.102113 0)
(-0.0398471 0.127815 0)
(-0.0272715 0.0907023 0)
(-0.0211322 0.0700887 0)
(-0.0185448 0.0578268 0)
(-0.0527639 0.162948 0)
(-0.0870155 0.18445 0)
(-0.0836896 0.176667 0)
(-0.0809984 0.17021 0)
(-0.0741765 0.154838 0)
(-0.078245 0.16368 0)
(-0.0965439 0.208367 0)
(-0.0938385 0.201441 0)
(-0.0915091 0.195362 0)
(-0.0893383 0.189686 0)
(-0.014161 0.0369446 0)
(-0.0132572 0.0309012 0)
(-0.0131645 0.0288595 0)
(-0.0134373 0.0335792 0)
(-0.0131321 0.0280851 0)
(-0.0123906 0.0256624 0)
(-0.0102475 0.0213773 0)
(-0.01178 0.0243588 0)
(-0.0163864 0.0497325 0)
(-0.013414 0.0376169 0)
(-0.00769088 0.0170416 0)
(-0.00454931 0.0101146 0)
(-0.00866721 0.018552 0)
(-0.000691314 0.00150814 0)
(-0.00313984 0.00692133 0)
(-0.00454248 0.00925831 0)
(-0.00948213 0.0193392 0)
(-0.0342693 0.0700607 0)
(-0.0378693 0.0775046 0)
(-0.0449154 0.0921347 0)
(-0.0401523 0.0822309 0)
(-0.0264376 0.0539753 0)
(-0.0207383 0.0423092 0)
(-0.0145726 0.0297127 0)
(-0.0322068 0.0658136 0)
(-0.0513665 0.105631 0)
(-0.0493582 0.10139 0)
(-0.0602231 0.124353 0)
(-0.0538439 0.110803 0)
(-0.0583418 0.120307 0)
(-0.0711148 0.147925 0)
(-0.0679894 0.140978 0)
(-0.0642886 0.132999 0)
(-0.105027 0.241254 0)
(-0.104589 0.256791 0)
(-0.106284 0.25625 0)
(-0.107156 0.254549 0)
(-0.106919 0.251966 0)
(-0.106751 0.24751 0)
(-0.104886 0.239343 0)
(-0.08143 0.224359 0)
(-0.0884623 0.235634 0)
(-0.0732909 0.213382 0)
(-0.0621568 0.18951 0)
(-0.102281 0.256956 0)
(-0.0984417 0.252296 0)
(-0.0950839 0.249281 0)
(-0.103614 0.232066 0)
(-0.104195 0.234857 0)
(-0.102996 0.227736 0)
(-0.101158 0.221906 0)
(-0.100643 0.219732 0)
(-0.0977813 0.211809 0)
(-0.0284573 0.0999066 0)
(-0.0383 0.12706 0)
(-0.022279 0.0781365 0)
(-0.0198784 0.069545 0)
(-0.0181616 0.0609249 0)
(-0.0169293 0.0554598 0)
(-0.0481203 0.155178 0)
(-0.0860668 0.181957 0)
(-0.0831012 0.174965 0)
(-0.0805491 0.168852 0)
(-0.0735238 0.1532 0)
(-0.077558 0.161931 0)
(-0.0976089 0.210201 0)
(-0.0950507 0.20367 0)
(-0.0936823 0.200065 0)
(-0.0904329 0.191836 0)
(-0.0129116 0.0344631 0)
(-0.0122225 0.0272417 0)
(-0.0125393 0.0260883 0)
(-0.0120588 0.0293124 0)
(-0.0127655 0.0258148 0)
(-0.0123873 0.0243225 0)
(-0.00914982 0.0191306 0)
(-0.0104206 0.0208622 0)
(-0.0112721 0.0223415 0)
(-0.0134138 0.0412847 0)
(-0.011982 0.0350358 0)
(-0.00672502 0.01468 0)
(-0.00547654 0.0119645 0)
(-0.00721026 0.0153814 0)
(-0.00120723 0.00258339 0)
(-0.00332922 0.00718726 0)
(-0.00194087 0.00395426 0)
(-0.0084703 0.0172632 0)
(-0.0111804 0.0227919 0)
(-0.0369415 0.0755689 0)
(-0.0447583 0.0917889 0)
(-0.0423004 0.0866738 0)
(-0.0265882 0.0542862 0)
(-0.0209258 0.0426898 0)
(-0.015036 0.0306523 0)
(-0.032283 0.0659835 0)
(-0.0493514 0.101357 0)
(-0.0624992 0.129133 0)
(-0.0538175 0.11072 0)
(-0.0595931 0.122916 0)
(-0.0702065 0.145772 0)
(-0.0665535 0.137798 0)
(-0.106783 0.245772 0)
(-0.106605 0.262176 0)
(-0.109016 0.262503 0)
(-0.109292 0.259387 0)
(-0.108798 0.255213 0)
(-0.108524 0.251754 0)
(-0.106565 0.24223 0)
(-0.0839491 0.232546 0)
(-0.0907619 0.24415 0)
(-0.0686814 0.205714 0)
(-0.079239 0.227636 0)
(-0.0584306 0.183939 0)
(-0.105098 0.262934 0)
(-0.10132 0.25734 0)
(-0.0980533 0.254333 0)
(-0.0947119 0.251853 0)
(-0.105163 0.234633 0)
(-0.106169 0.239811 0)
(-0.104885 0.23262 0)
(-0.10287 0.226182 0)
(-0.101918 0.222054 0)
(-0.0995536 0.215594 0)
(-0.0231411 0.0862915 0)
(-0.0321964 0.112272 0)
(-0.0418107 0.139099 0)
(-0.0204591 0.0761493 0)
(-0.0158796 0.0589271 0)
(-0.0149174 0.0538457 0)
(-0.0133139 0.0449295 0)
(-0.0516841 0.167931 0)
(-0.0870369 0.183746 0)
(-0.0851953 0.179396 0)
(-0.0822014 0.172355 0)
(-0.0751462 0.156596 0)
(-0.0790529 0.16508 0)
(-0.0992876 0.214211 0)
(-0.0969455 0.208034 0)
(-0.0939945 0.200338 0)
(-0.0924993 0.196529 0)
(-0.0890917 0.188324 0)
(-0.0113759 0.0288334 0)
(-0.0119813 0.0248153 0)
(-0.0115291 0.0262101 0)
(-0.01256 0.0248496 0)
(-0.0126194 0.0245442 0)
(-0.0122 0.0227079 0)
(-0.00820695 0.0166383 0)
(-0.0097565 0.0190098 0)
(-0.0116274 0.0218828 0)
(-0.011915 0.0389122 0)
(-0.0096099 0.0278361 0)