/*--------------------------------*- C++ -*----------------------------------*\
| =========                 |                                                 |
| \\      /  F ield         | OpenFOAM: The Open Source CFD Toolbox           |
|  \\    /   O peration     | Version:  v2012                                 |
|   \\  /    A nd           | Website:  www.openfoam.com                      |
|    \\/     M anipulation  |                                                 |
\*---------------------------------------------------------------------------*/
FoamFile
{
    version     2.0;
    format      ascii;
    class       surfaceScalarField;
    location    "1.14";
    object      meshPhi;
}
// * * * * * * * * * * * * * * * * * * * * * * * * * * * * * * * * * * * * * //

dimensions      [0 3 -1 0 0 0 0];


internalField   nonuniform List<scalar> 
18811
(
0.000161654
0.00108584
-0.00147493
0.00337955
0.00114261
0.000833707
0.00102872
0.00192954
0.0033757
0.00165158
0.0051802
0.00566347
-0.00201894
-0.00329097
0.00832306
0.0014207
0.00044041
0.00408233
0.00400766
0.00396485
0.00314194
-0.00279134
0.00343411
0.00627119
-0.000377887
0.00410862
0.001319
0.00642091
0.00870627
-0.00673997
0.012555
0.010113
-0.00505508
7.95385e-05
-0.00706338
0.0136075
0.00566005
0.00012027
0.00187503
2.61622e-05
0.000670839
0.00810881
0.0108911
0.0052809
0.00639898
-0.00636456
0.00324955
-0.0037399
0.00542492
0.00806543
0.00132881
0.00569354
0.00320055
0.00123078
0.0116818
0.0159899
-0.0104078
0.0174802
-0.01128
0.019175
0.0134475
-0.00816242
0.00265256
-0.00304925
-0.0103569
0.0201285
-0.000504418
0.00726428
0.00413212
-0.000167569
0.00159292
0.000285491
0.00777027
0.00527448
0.00551404
0.00889796
0.00487235
0.00748156
0.0106063
-0.00977667
0.00373766
-0.00475555
-0.000779209
0.0106576
0.00977087
0.00445019
0.00243079
0.00584427
0.00202237
-0.000216016
0.00106731
0.0123157
0.0085897
0.0196106
-0.0172475
0.0237851
-0.0162531
0.0245021
-0.0149032
0.0263294
0.0129847
-0.00774912
0.00490021
-0.00703934
0.00148449
-0.00948496
0.0211045
-0.000213405
0.00518791
-1.25134e-05
0.0066532
-0.000849466
0.00331669
0.000358467
0.00048761
-0.00434234
0.0156786
0.0050101
0.00383154
0.0145319
-0.00282063
0.00867454
0.0104623
0.0176986
-0.0135474
0.00757958
-0.00623246
-0.00177777
0.0163546
0.00551952
0.00364318
0.00616591
0.0125755
0.000621139
-1.97688e-05
0.00146436
-0.00234295
0.0149898
0.020782
0.0107757
-0.0158988
0.0144227
0.0343163
-0.0250855
-0.0155079
0.0255331
0.0211074
-0.00482305
-0.00695108
-0.012548
0.00942372
0.00357952
-0.00258914
0.0248534
0.00302519
0.000648156
0.000680821
0.00599757
0.000728318
0.0127078
0.00033679
0.00134205
0.000103504
0.000716763
0.010989
0.00813209
0.0134555
0.0194392
0.0238925
-0.00852727
0.0186795
-0.000340529
0.0276276
-0.00289284
0.021361
-0.0175059
0.012554
-0.00570909
-0.00577601
0.000231449
0.0181089
0.00633316
0.00393024
-0.000788966
0.00139984
0.00789081
0.0124955
0.000214817
0.000409543
0.000325955
-0.00836258
0.0179415
-0.0139057
0.0270921
0.0110021
-0.0231094
0.0157005
0.024881
-0.00672936
-0.02563
0.025639
0.0212006
-0.0124741
0.0321899
-0.00920264
-0.00622016
0.00409782
0.0112521
-0.0144858
-0.00278044
0.00355939
-0.0133522
0.0188842
0.000467071
0.00350981
0.00111236
-8.22542e-06
0.000951666
0.00767812
-0.000487484
0.0116484
-0.000140152
0.000367607
0.00958841
0.00655381
0.00671126
0.0201453
0.0182097
-0.00939862
-0.0302291
0.0224876
0.0432038
-0.0182423
0.033879
-0.0143029
0.0194233
0.0168312
-0.0247608
0.0175861
0.015041
-0.00680471
-0.0123429
0.00319723
0.00140228
0.0214089
0.00162576
0.00442524
0.00664382
0.00482326
0.0067067
0.0132844
-0.0126952
0.0193651
0.0158211
0.0038132
0.00591699
-0.028812
0.0205077
0.0121973
0.0321626
-0.0108028
-0.0358643
0.0173808
0.0161639
0.0357726
-0.018558
-0.0158044
0.0308611
-0.00961743
-0.00768922
0.00517145
-0.0164469
0.00522349
-0.0115472
-0.00308887
-0.0125101
0.0324756
0.00102677
0.000857337
0.00309359
0.000939139
0.00519949
-0.00192864
0.00857802
0.0061086
0.00656374
0.00662357
0.0122237
0.0212794
-0.019914
0.0225506
-0.0152986
0.0415815
-0.0313929
0.0286534
0.0446282
-0.0289917
0.0430511
-0.0293083
0.0175027
0.0212317
0.0164797
-0.0320515
0.0249966
0.0128722
-0.00491113
0.0189651
-0.0139486
0.00306347
-2.74072e-05
0.0109863
0.00134858
0.00312803
0.00339972
0.00406732
0.00470353
0.00980209
0.0129203
0.0141605
-0.00248414
0.0197699
0.000665045
0.0155984
0.00615068
-0.0316863
0.0173205
0.0108333
-0.00347061
-0.0401624
0.0106083
-0.0189254
0.034152
0.0371675
-0.0189228
-0.0162485
0.0309657
-0.0104172
-0.00511606
-0.00844259
0.00640976
-0.0162598
0.00228635
-0.0131805
0.00348771
-0.00162234
-0.0149065
0.0245752
0.000618844
0.000709718
0.00159964
0.00413235
-0.00172083
0.00657303
0.00445233
0.00493216
0.00489231
0.00753157
0.0036896
0.00989997
0.0165174
0.0154738
-0.0151197
0.0202352
-0.0232421
-0.0470563
0.0527754
-0.0452917
0.0364726
0.0439076
-0.0356846
0.0154068
0.0156628
-0.0443958
0.0215699
0.014366
-0.019265
0.010786
-0.024538
0.0215855
-0.00282952
-0.00712788
-0.0146352
8.23854e-05
0.00801629
0.00120188
0.00262311
0.00230339
0.00398119
0.00644961
0.00944089
0.0107928
-0.00202022
0.0114001
0.0117924
0.00410114
-0.00620643
0.0208657
0.0130543
-0.0356258
0.0131104
-0.0061141
0.00249152
-0.0118538
-0.0377022
0.00121931
0.0307459
-0.017616
-0.0176153
0.0311299
0.0357334
-0.0168547
-0.0113384
0.0243059
0.0369657
-0.0202198
0.0151131
-0.0133264
-0.00505607
0.00487262
-0.00809072
0.000229302
-0.0126259
-1.34159e-05
-0.00184935
-0.012328
0.0192965
7.94756e-05
0.00278062
-8.75884e-05
0.00373548
0.00188243
0.0042318
0.00405402
0.00493935
0.00369445
0.00668458
0.00927197
0.00282489
0.00794744
-0.0101927
0.0136097
0.00975927
0.018646
-0.00669504
-0.0252265
0.0379968
-0.0498683
-0.050472
0.0469975
-0.0386405
0.0232914
0.0361441
-0.0374063
0.0107166
0.0154975
0.017859
-0.0427148
0.0222379
0.0108868
-0.0227774
0.00812308
0.0300052
-0.0133136
0.0177126
-0.0058949
-0.0124603
-0.0155697
-0.00337855
0.00567231
0.0202715
-0.00191868
0.00214207
0.00527101
0.00785276
0.00825273
0.00898518
-0.00458423
0.0132784
-0.0035235
0.0109329
0.00838165
-0.00639019
0.0153693
0.0113546
0.0124498
-0.0342581
0.0095398
0.0496292
-0.0158013
-0.0165684
-0.00564935
0.00429357
-0.0223507
-0.036851
-0.00106184
-0.0192098
0.0277918
0.0285565
-0.0150138
-0.00332207
0.0198608
0.0307627
-0.0110061
0.0203759
-0.0107019
0.026559
-0.014705
-0.0356638
0.024408
-0.0159221
-0.00805707
0.00123009
-0.00628181
-0.00560589
-0.010684
0.00262061
-1.48461e-05
-0.00181639
0.0173819
0.00134964
0.00166288
0.00296559
0.00334999
0.00403689
0.00223032
0.00551997
0.0106099
0.00918334
0.00893328
0.00142938
-0.00676586
0.0143971
0.00786654
0.015956
-0.00550434
0.0194876
-0.00816181
-0.0276957
-0.045265
0.0255259
-0.0385882
0.0185419
-0.0483191
0.0376846
0.0346106
-0.0337078
0.00889731
0.0361852
-0.0393493
0.00742763
0.0239086
0.00188669
0.0137384
0.0190504
0.00794566
-0.0330243
0.0195665
-0.00776397
-0.0268991
0.0161259
0.0281326
-0.00232314
0.0133231
-0.00737584
-0.0121494
-0.0167666
0.00337066
-0.00681468
0.0067851
0.0149259
0.00159548
0.00227572
0.0057618
0.00895669
0.000550074
0.00919121
0.00841189
0.000194631
0.00871001
0.00932154
0.00885305
0.00493564
-0.00653366
0.0136302
0.00857686
0.0129016
0.00594645
-0.0324524
0.00561889
-0.0494774
-0.000133314
-0.0262339
-0.004013
-0.0349716
0.0466133
-0.013174
0.00901645
0.0347494
-0.0290532
-0.0363338
-0.00300337
0.0249133
-0.019224
-0.0187522
0.0190773
0.0219776
-0.00953361
0.0109577
0.00705607
0.0179092
-0.000997586
0.0251743
-0.00737725
-0.0214715
0.0146988
-0.00450836
-0.0270877
0.0261131
-0.0182185
0.00290107
-0.0107147
-0.00413943
-0.0127
0.0039489
0.000993479
-0.00324302
0.00935625
-0.00827389
0.00145564
0.00179833
0.00351501
0.00332885
0.00507335
0.00121033
0.00717571
0.00849061
0.0113055
-0.00356887
0.00913753
-0.000388625
-0.00643885
0.0107682
0.00644952
-0.00713931
0.0147237
0.013529
-0.00147196
-0.0137842
0.0187537
-0.0302157
0.0444645
-0.0492328
0.0127432
0.0410834
-0.0491412
0.00190512
-0.0514742
0.03415
0.0405161
-0.0345263
0.00801811
0.0364432
-0.0415894
0.00459749
0.00146937
0.020106
-0.0022111
0.014328
-0.0117198
0.0174823
0.0212869
-0.00455047
0.023943
-0.0269781
-0.0271263
0.0180016
0.0313369
-0.0148554
0.027584
-0.0252808
0.00638717
0.00874413
-0.0120218
0.0248773
-0.012865
0.00685804
-0.00183573
-0.0090285
0.00681982
-0.00495118
0.0122627
-0.000887271
0.00157034
0.00473633
0.00208757
0.00568211
-0.001623
0.00793637
0.011541
-0.00372709
0.00860826
0.00483097
0.0104254
0.00631983
-0.00476007
0.0105559
0.00553984
0.00918297
-0.0155723
0.0131367
0.00193844
-0.024339
-0.00475
-0.0485697
-0.00750953
0.0398394
-0.0312742
-0.0149832
-0.0528722
-0.0159864
-0.00419678
0.0299441
-0.0243603
-0.0106877
-0.03021
-0.0128933
0.0163295
-0.0186406
0.018857
0.00714217
-0.0184088
0.0150763
-0.0054797
0.0118293
-0.00503916
0.000979912
0.0207948
-0.0042417
0.016624
0.00754533
0.0223401
-0.014668
-0.0134737
-0.0126059
0.00466128
-0.0170802
0.0108284
-0.000125895
0.00186646
-0.00347914
0.00654033
0.000844439
0.00304991
0.00120651
0.00452433
0.00629686
0.000965515
0.00617368
-0.000462106
0.00812759
-0.00736023
0.0113345
0.00224605
-0.00783154
0.013204
0.00205389
-0.0102435
0.0148476
0.0100662
-0.00174912
0.00199453
0.0155415
-0.0149411
0.018792
-0.0219601
0.0357029
-0.0486213
-0.0520726
0.016633
0.0283319
-0.0486169
-0.061779
0.00165052
-0.0425563
0.0228672
0.0301642
-0.0377297
-0.0339449
0.00764047
-0.028045
0.0174424
-0.0108413
-0.0208622
0.00698859
-0.00310378
-0.00312538
-0.0151925
0.0209679
-0.00147894
0.0139594
-0.0102487
0.0205817
-0.0270898
0.0201509
0.0184772
-0.0188017
-0.020771
0.0151273
0.0301607
-0.0062648
-0.0193931
0.0320834
0.0275094
-0.0028744
0.0195206
0.0165055
-0.00792928
0.022687
-0.00818189
-0.00624571
0.00839118
-0.00131535
-0.00865079
0.00567682
0.016813
-0.0115301
-0.00137411
0.00143455
0.00232091
0.00644166
-0.0025037
0.00766937
-0.0107401
0.00908805
0.0046725
-0.000650895
-0.0102821
0.0113914
0.00188404
0.0113278
0.0113076
0.0026086
0.00862677
-0.0129587
0.0137337
0.00123413
0.000744476
-0.00427416
-0.0204304
-0.0655841
0.0101117
-0.0292206
-0.0379859
-0.0390135
-0.0117779
-0.0707072
0.0388756
-0.0188809
-0.00591353
-0.00135188
0.0282685
-0.0221975
-0.0168901
-0.0107727
-0.0232543
-0.0262026
0.0198702
-0.0139464
0.015454
-0.0222763
0.0178682
0.00907423
-0.0193469
0.0160675
-0.00987443
0.00778348
-0.0100497
-0.00229248
0.00797909
0.0183461
-0.00436294
-0.0303917
0.0287763
0.00657589
0.0068624
-0.0208093
0.0232796
0.0046778
-0.0131283
0.00855293
-0.0180506
0.0129301
0.000545768
0.00275652
-0.00705825
0.000618102
-0.00230615
0.00373088
0.00327936
0.00177422
0.00512707
0.00557244
0.00243128
0.00919699
-0.00946511
0.00773857
0.00101806
-0.0111319
0.0118955
-0.000835111
-0.011348
0.0129345
0.0140792
-0.0064799
0.00112763
-0.0128515
0.0127708
-0.019028
0.01825
0.0202794
-0.0211719
-0.0506751
0.0261712
-0.0457977
-0.0382472
0.00603401
0.00987663
-0.0532782
0.0267655
-0.0419713
-0.0489396
-0.02831
0.0164582
-0.0372746
0.0222056
-0.0298223
-0.0361834
0.032504
-0.00174285
0.0172834
-0.0261436
-0.0298305
0.00617459
-0.00433107
0.00237505
-0.00565261
-0.00830087
0.0159474
0.020366
-0.00606725
0.00718487
-0.0128522
-0.0190083
0.00776067
-0.0225645
0.0185919
-0.0122211
-0.0176065
0.0122536
0.0313165
0.000255102
-0.0193753
0.0285584
-0.0181702
0.0271596
0.00576318
-0.0132987
0.0220219
-0.00463921
-0.00414838
0.00683824
-0.00563003
0.00629392
-0.00114369
-9.39488e-05
-0.00165119
0.00133923
0.00123384
0.0044209
0.000610328
0.0038475
0.00905259
-0.00805973
0.00653922
0.00122976
0.0129486
-0.00638553
-0.0118827
0.01169
-0.0013697
0.0118665
0.00524492
-0.015809
0.0152342
0.00378353
-0.00457625
-0.0153111
-0.0682436
0.0161746
0.0352111
-0.0316536
-0.0432524
-0.0296868
-0.0334002
-0.0102031
-0.0415838
0.00893246
-0.0215972
-0.00440389
4.05709e-05
-0.0221747
0.0188288
-0.0125002
-0.0174452
-0.00706867
-0.0288887
-0.0186663
-0.017923
0.0185432
-0.0225527
0.0148823
0.0105159
0.00148697
-0.0200387
0.012246
-0.0204427
0.0260033
0.0248446
-0.0185598
0.00048139
-0.000272848
-0.0302074
0.0162794
-0.0093815
0.0207489
-0.0272795
0.0281525
0.0122213
0.000994767
0.021204
-0.0113997
0.0246987
0.00034385
-0.0123938
0.0119897
-0.0154316
0.0136197
0.001284
0.00119348
0.00770399
-0.00666719
0.000391458
-0.00301078
0.00334829
0.000794583
0.00609363
0.004028
0.00732009
0.000524643
0.00347848
0.00713222
0.00407737
-0.0125756
0.00968213
-0.00215638
-0.0112767
0.0149265
0.00221798
0.0172618
-0.0154838
0.0107358
0.0291733
-0.0473543
-0.0489902
-0.0248034
0.0474907
-0.0351199
-0.00485006
0.0151847
-0.0648978
0.0127106
-0.0453893
0.0286867
-0.0413579
-0.0303884
-0.0443288
-0.0276957
0.00377927
-0.0340382
0.0253485
-0.027506
0.00156964
-0.0131048
-0.0275064
0.0162401
0.0153581
-0.0187896
-0.0274891
-0.00169433
0.00513707
0.00624979
-0.00565598
-0.00690749
0.0150407
-0.0058658
0.0148791
0.0198892
-0.0093581
-0.0038721
-0.024643
0.0232894
0.019398
-0.0211108
0.00835412
0.0206568
0.0018894
0.0236435
0.00673838
0.0261432
-0.0119064
0.0286383
0.016986
0.0224678
-0.00134761
-0.000836095
0.0258242
-0.0106422
0.00503473
-0.00304634
0.00256742
-0.00160546
-0.000930544
-0.00247072
0.00157072
-0.000141188
0.00115072
0.00402314
0.0044752
0.00627556
-0.00677662
0.0111403
-0.00916171
0.00848959
-0.0027487
0.0114985
-0.00900511
0.012906
-0.00456704
-0.0120652
0.00860919
0.00150252
-0.0133798
0.013754
-0.0193004
0.00179552
0.015308
-0.00628598
-0.0034985
-0.0597089
0.0305968
-0.0474052
0.00929687
0.0272833
-0.0344159
-0.0559189
-0.0190364
-0.0285401
-0.0142314
0.028638
-0.063566
-0.0193845
-0.0159573
0.0183975
-0.00919689
-0.0340191
0.00436912
0.0228363
-0.0228091
0.0081043
-0.0194966
-0.00630807
-0.0109369
-0.00236869
-0.0148682
-0.00204755
-0.0316106
-0.00722451
0.0245379
-0.0203942
0.016938
-0.0196078
0.0110742
0.0122442
-0.00609968
-0.0219712
0.0106918
0.0222799
-0.0283138
-0.00443388
0.000175426
0.0256292
-0.019513
0.027232
-0.019037
0.0271031
0.0161004
0.0112291
0.0189169
0.00074071
0.0201619
0.00541784
0.0104443
-0.00875495
0.0146363
-0.0126805
0.00523039
0.000102974
-0.0012028
0.00494856
-0.00491866
0.000276753
0.00317084
-0.0029657
0.00569967
0.00904862
-0.00376791
0.00321398
0.000809391
0.00399811
0.00500693
0.00256518
-0.0156107
0.00954311
-0.00842212
-0.0129054
0.0129739
0.000397517
-0.000796861
-0.0171754
0.0170994
-0.0212684
0.0130659
0.0321675
-0.0381466
-0.0311867
-0.032907
-0.0202192
0.038727
-0.0318018
-0.00458104
-0.0299256
-0.0308538
-0.0525254
0.0314809
-0.0493968
-0.00808204
-0.0615555
-0.0547819
0.0190575
-0.0364907
-0.0169332
0.0184198
-0.0295211
0.0312428
-0.0289016
0.00615554
0.0249508
-0.0185745
0.0114707
-0.0157816
0.0173662
-0.0288331
0.0107566
-0.0112179
0.0123765
-0.0126013
-0.0146549
0.0137944
0.00251276
-0.00458805
-0.0125729
0.0191
-0.00864944
0.0114824
0.0209415
-0.0122412
-0.00518621
-0.0276651
0.0211071
0.0273221
-0.0295874
0.00523931
0.0144991
0.0147515
0.00684884
0.0217467
0.029013
-0.0121168
-0.0126312
0.0245001
0.0235839
0.0217208
0.000589626
-0.000507099
0.0215737
-0.0149325
-0.00337298
0.00225777
-0.00148712
0.00121625
-0.0024783
-0.00179268
0.00390194
0.00289057
-0.00860016
0.00382405
-0.00645947
-0.0089199
0.00837388
-0.00469621
0.00732132
0.00904184
-0.00528295
-0.0114823
0.0125551
-0.00361955
0.00296098
-0.0115778
0.0108188
-0.0177215
0.0148454
-0.00735494
-0.00654417
8.72392e-05
-0.00183044
-0.0514447
0.0148631
-0.0408101
0.0185002
-0.0351418
0.00156948
0.027154
-0.0337748
0.0226758
-0.0609304
-0.0253408
-0.0204251
-0.0310463
0.0407447
-0.0525975
-0.044759
-0.01804
0.000733609
-0.0200083
-0.00414941
-0.0240167
-0.00675513
0.0283988
-0.0244121
0.00813742
0.0209686
-0.00866295
-0.00379227
-0.00688097
-0.0220881
0.0132088
-0.00669708
0.00289
-0.0372952
-0.0233559
0.0233011
0.0210874
-0.028078
0.0063639
0.0102724
-0.0228185
0.00830037
0.0214773
-0.0285666
-0.00871188
-0.0111184
0.0219127
-0.0187784
-0.00270698
0.0190135
-0.0124483
0.0197219
0.0202359
0.0171533
0.0101994
0.0125545
0.0124745
0.0139673
-8.63257e-06
0.0239289
0.00967024
-0.00759372
0.00892908
-0.00649929
-0.0043891
0.00190474
-5.03393e-05
-0.00015901
0.000289149
-0.00309249
0.00474532
0.00952857
-0.00690956
-0.0119814
0.00408188
0.00223416
-0.00482651
0.00285928
0.00257298
0.0028831
-0.012429
0.00706669
-0.013108
0.0140274
-0.00851537
-0.000360009
-0.0206086
0.0111297
-0.020255
0.0114509
0.0132801
-0.0147463
0.0316504
-0.0355578
-0.024952
-0.0292451
0.0450821
-0.0331344
0.00205109
-0.0181171
0.0310095
-0.0310089
-0.00427618
-0.0221172
-0.0433258
-0.05207
0.0108289
-0.0463483
-0.00571977
-0.0507514
0.011616
-0.0614118
-0.0457751
-0.0250253
-0.0275845
0.00563271
-0.0335479
-0.029118
0.0204443
-0.0312764
0.00492962
-0.022376
-0.0163277
0.00900282
-0.00983311
0.00851699
0.0185795
-0.0258049
0.00582844
-0.0176303
0.0131983
-0.0188826
-0.00347173
-0.00776294
-0.01903
-0.012443
0.023182
-0.0173849
-0.0323086
0.0211117
-0.0282688
0.0148385
-0.0350418
0.0136765
0.0202925
0.0167688
0.00315266
0.00493552
0.0160901
0.0186192
-0.00223866
-0.00730587
0.0170178
0.0153635
-0.00312513
-0.00686829
0.0240335
0.0194115
0.00304405
-0.00131395
-0.00802288
0.00431251
-0.000574471
0.00268588
0.000842758
-0.00240149
0.00372136
-0.00882574
0.00080971
-0.0057984
0.0107795
-0.00999191
0.00473982
-0.00727984
0.00838719
-0.00591906
0.00662269
0.00931224
-0.00817085
-5.9345e-05
0.0145172
-0.00900859
0.00312063
0.0161261
-0.0190182
-0.0113363
0.0184541
-0.00882977
0.00192198
-0.00668837
-0.0444564
0.0122736
-0.0417534
0.00622494
0.042909
-0.0430888
0.0229933
-0.0100749
0.0293221
-0.0356597
-0.0459108
-0.00254045
-0.0575612
-0.000283449
-0.0511198
-0.0163884
-0.0322735
0.0434279
-0.0524396
-0.0427533
-0.0357517
-0.0297239
-0.00553474
-0.0384215
0.0109975
-0.0356308
-0.00656903
-0.0203005
-0.0127911
0.0322372
-0.0293079
0.00706416
-0.0133209
-0.000674998
-0.0159445
-0.00228292
0.0116065
-0.0027823
-0.00645918
0.0232745
-0.0381631
-0.0269931
0.021378
-0.0259847
0.0157945
-0.0305598
0.00854873
0.00836831
-0.0258298
0.00581576
-0.0249785
-0.00932107
-0.00922299
-0.0226639
-0.0158418
0.00313584
0.0182595
0.0219827
0.0183152
0.0198356
0.0149841
-0.0180676
0.0148493
-0.0149507
0.00743422
-0.00203982
0.0202026
-0.00225112
0.023801
-0.00400622
-0.00344558
0.00456151
0.012954
-0.00791566
0.000904155
0.00127215
0.00130576
-0.00185045
0.000141893
0.0101634
-0.0109531
-0.0117455
0.00466111
0.00268574
-0.00850312
3.602e-05
0.000604076
0.00454315
0.000333469
-0.000196256
0.0116853
-0.0131785
0.0012192
0.0147154
-0.0133736
0.000722856
-0.00642503
-0.0221868
0.008492
-0.022802
0.0119933
0.0162719
-0.0158944
0.0305649
-0.0394406
-0.0530065
-0.032299
0.0330162
-0.0287257
-0.0122972
0.0265869
-0.0387756
-0.00743902
-0.050348
-0.041961
-0.0557341
-0.00141932
0.00724121
-0.0427157
-0.0208848
-0.0342575
0.00130629
-0.047407
0.0130823
-0.0461195
-0.0285575
-0.00985465
-0.0374297
-0.0434626
0.020416
0.0210432
-0.0357059
-0.0104503
-0.0200189
-0.00927335
0.0104371
-0.0155773
0.00033179
-0.00902839
0.00931639
0.00450615
-0.0138687
0.0133735
0.0126976
-0.0237202
-0.0152028
-0.00677902
-0.017208
-0.0199659
-0.016264
0.0240415
-0.0207466
-0.0295306
0.0183736
0.024819
-0.0364643
-0.000583014
-0.0343334
0.0156771
0.017405
0.00852041
0.013438
0.0146517
0.00253287
0.00992755
0.0105352
0.0153843
-0.00199722
0.0143175
-0.000976933
-0.00221476
0.0115193
-0.00508723
0.00858672
0.000838319
0.0220447
0.0267584
-0.00794771
0.00530205
-0.00223276
-0.0020896
-0.00031965
0.00220449
0.00431628
-0.00208416
-0.000159715
-0.00325782
0.000224769
-0.00797476
0.0130514
-0.0120697
0.00275255
-0.00958773
0.00770143
-0.0103198
0.00865095
-0.00563688
0.00446803
0.0112063
-0.0139669
0.0137601
-0.0143038
0.00121848
0.0122148
-0.0132995
-0.0175732
0.00871752
-0.0168466
-0.00594466
-0.0147487
-0.0131672
-0.0427722
0.0191896
-0.0543866
-0.044518
0.0138582
-0.0389515
0.0244962
-0.0436631
0.00304632
0.0290186
-0.0387167
-0.0594388
0.00459624
0.00617324
-0.052217
-0.0516787
0.0410304
-0.0464192
-0.0221641
-0.0226758
0.0170474
-0.0402991
-0.0352728
-0.0376034
-0.0434639
0.0273923
-0.0401398
-0.0109328
-0.0191525
-0.0178087
0.0249496
-0.0382219
0.0117126
-0.0334303
-0.00905097
0.00222951
-0.00378637
-0.0241851
0.00261738
-0.00781072
0.0145405
0.00781568
-0.00383409
0.0187719
-0.0399292
0.0268757
-0.0364621
0.0067728
-0.0279086
0.00515114
0.00516142
-0.0252643
0.00198902
-0.0194445
-0.0207043
0.0235033
-0.0267023
-0.0134932
-0.0240485
0.0279711
0.0222884
0.0239818
0.0163967
0.0108522
-0.015406
0.0121084
-0.00847662
0.00631832
-0.0100687
0.00413655
-0.0100343
0.0203674
0.0121012
0.016749
0.00317554
0.00563156
-0.00681106
0.000729913
0.00105251
-0.00218978
0.00073754
-0.00474651
0.00331247
-0.0136303
0.00313845
-0.000231785
-0.0129777
-0.000592556
-0.00485349
0.000963868
-0.00180945
-0.0126415
-0.00383597
-0.00372445
-0.0184551
-0.0210632
0.00550844
-0.0154901
-0.02152
0.00204289
0.0144492
-0.0229167
-0.0468201
0.0295623
0.0312201
-0.0469842
-0.028195
-0.02789
-0.02618
-0.0270128
-0.0214481
-0.0458104
-0.0123275
-0.0219627
-0.0510474
-0.0304343
-0.0257241
-0.064175
0.0137119
-0.0567478
-0.00696802
-0.0355489
-0.0445964
0.00940953
-0.0500959
0.0126137
-0.0599434
-0.0229253
-0.0193271
-0.0359088
-0.0471847
0.0250721
0.015609
-0.0355376
-0.0110281
-0.0249455
0.00665434
-0.00173535
0.00924157
-0.0129564
-0.0145621
-0.00623157
0.0112725
0.0107125
-0.00608583
0.0156441
0.0143569
-0.0129817
-0.0282692
-0.0244883
-0.0227406
-0.0187414
0.0268972
-0.0276521
-0.0312035
0.00940377
-0.0280808
0.00524026
-0.0388108
0.00904474
-0.0286245
0.0130317
-0.0273471
0.000802441
0.0137417
0.0155013
0.0133571
0.00757357
0.0103061
0.0134607
0.0150359
-0.00172724
-0.0050454
0.013186
0.00379243
-0.00274738
-0.00446628
0.00872362
-0.00601109
-0.0033313
0.00649527
0.0158603
0.0267831
0.0248178
-0.0029051
0.00169264
-0.000193411
0.00353665
-0.000315344
-0.000712749
-0.0118657
0.0147574
-0.0175001
-0.000967329
0.0127218
-0.015661
0.00529997
0.0082701
-0.00966332
0.0045063
0.0117645
-0.0180472
-0.0179841
0.0120763
-0.00668846
-0.0147558
-0.0222934
0.00400758
0.0169471
-0.0169871
-0.00809364
-0.0165219
-0.0329615
-0.0468738
0.0143063
-0.0442074
0.0324269
-0.0618337
-0.0463651
0.0170677
0.0227259
-0.0461402
-0.0259467
0.0343763
-0.049862
0.0311843
-0.0563109
-0.0241629
0.0328463
-0.0636948
-0.035968
-0.0461462
-0.0225195
-0.0369819
0.0127738
-0.0515446
-0.0379515
-0.040615
-0.0310997
-0.0328188
0.0188041
-0.0405902
-0.00366501
-0.0318315
-0.0130734
-0.0449038
-0.0315
0.00382466
0.0119636
-0.00359048
-0.00652234
0.00651726
0.000572603
0.00536187
-0.0205475
0.00675016
0.0146348
-0.0013722
0.012501
0.00476653
0.0044212
0.0114932
-0.0374322
-0.0234973
-0.0382691
0.0104547
-0.030752
0.0053732
0.00530537
-0.0227965
-0.00709896
-0.0210217
-0.0364524
-0.0222362
-0.0163655
0.025519
-0.0272995
0.025573
-0.00264491
0.0139766
0.0199133
0.0103899
0.00875516
-0.00979763
0.00871984
0.0033171
-0.00559231
-0.00686112
0.00209737
-0.00875423
0.00162757
-0.00743454
0.00212314
0.0219221
0.00731129
0.0202984
0.0149919
0.0112576
0.00158144
0.00113871
0.00307432
-0.00511896
0.000526096
-0.0192958
0.00432669
-0.00837465
-0.0239009
-0.0073429
0.0113835
-0.00897141
-0.00115596
-0.00342395
-0.0172721
0.0139648
-0.0240909
-0.0234128
0.0053017
-0.011403
-0.0221615
-0.0228646
0.00387503
0.0118151
-0.0221014
0.0141598
-0.0494985
-0.0373594
-0.034217
-0.0147235
-0.050633
-0.0316695
-0.0502826
0.0209389
-0.0549
0.00174869
-0.0594479
-0.0486686
-0.0198693
0.0218291
-0.0619429
-0.0582815
0.0077218
0.00641607
-0.0474385
-0.00395946
-0.0503541
-0.0442893
0.0143648
-0.058524
0.0142884
-0.0495984
-0.0467139
-0.040054
0.00583597
-0.0473149
-0.0298194
-0.0178497
-0.0286002
-0.00279802
0.00156541
0.00865853
0.000283549
-0.0196558
-0.00230075
0.0111976
0.0146581
0.0128469
0.0173877
-0.0176517
-0.0218135
-0.0438737
-0.0159705
-0.0229088
-0.0193151
-0.0201302
0.0131468
-0.0220528
0.0139873
-0.0369598
-0.0245392
-0.0389427
0.0140811
0.0149165
-0.0334761
-0.0145626
0.0130074
0.0119576
0.00676993
0.0053511
0.00616773
0.0123935
0.00797115
-0.000320033
-0.00751754
0.01119
-0.0165588
0.00253471
-0.00256296
-0.00380414
-0.00386284
-0.00140847
-0.00779603
-0.00744887
0.010166
-0.0117826
0.0126464
0.0110618
0.0228986
0.0072931
0.0125986
0.0251238
-0.00167897
0.00202881
-0.000203658
-0.00199147
0.0138503
-0.0263723
-0.0155857
0.013712
-0.0259892
-0.0170657
0.00560718
-0.0137575
0.00964127
-0.00829419
0.00241408
0.00840751
-0.0310054
-0.0151245
-0.0252574
0.0155963
-0.0298905
-0.00986116
-0.0203456
-0.024745
-0.0275027
-0.0654354
-0.0389902
0.00259144
-0.0564619
-0.0292477
-0.0243517
0.0168779
-0.0515553
-0.0367716
-0.0375948
0.035798
-0.0362414
-0.045371
-0.0173751
-0.0454814
0.0314506
-0.0549773
-0.0402468
-0.0345481
-0.0407534
-0.0151076
-0.0342623
-0.0234622
-0.030104
-0.0327873
-0.0470158
-0.035768
-0.0169032
-0.0134052
-0.0303241
-0.012256
0.0341243
-0.030245
-0.0158213
-0.0282432
0.00852598
0.0131755
-0.0441135
0.00758662
0.00490924
-0.00225369
0.0133594
-0.013865
-0.00479867
0.015947
0.00106091
-0.00586391
0.020382
0.0133961
-0.0390601
-0.0163326
-0.0277131
-0.0348319
0.01628
-0.029961
0.00493134
0.0121665
-0.0338033
-0.0305283
0.00762071
-0.0197078
-0.0118336
-0.035056
-0.00424653
-0.0284489
0.00131335
-0.0389326
-0.0031783
-0.0216212
0.0173573
-0.0345902
0.0198768
0.0170245
0.0123733
0.0155879
0.00688699
-0.0110191
0.0154955
-0.0171517
0.00768124
-0.0041583
0.000515356
0.00170799
-0.00261223
-0.00504422
-0.00317747
0.00340458
-0.0126865
-0.010455
0.0260945
0.0143165
0.00901929
0.0266753
0.0162121
0.0101201
0.000925329
0.000720331
-0.00464881
0.00011774
0.0112358
-0.0316548
-0.00740253
-0.0233672
-0.0107692
-0.00161521
-0.00438225
-0.0246873
0.0115071
-0.0302836
-0.0263224
-0.00534547
-0.0228084
-0.0413917
-0.0254154
0.00267774
-0.0591922
-0.038402
-0.0310466
-0.0519901
0.00333345
-0.0630747
0.0276839
-0.0553096
0.0151261
-0.054747
-0.0503063
0.0100679
-0.0492154
0.0107656
-0.0560299
-0.0478684
-0.00160943
-0.0356239
-0.02223
0.0154151
-0.0595995
0.0196453
-0.0580408
0.0126732
-0.0565416
-0.00075778
-0.03617
-0.0657715
-0.0658183
-0.033017
-0.0164588
-0.0522863
-0.0463455
0.0308865
-0.0453342
-0.00105912
0.0218565
-0.0402831
-0.0167348
-0.0286553
-0.0254649
0.00566479
0.00404059
-0.00771949
-0.00169707
0.000962461
0.00153964
0.0151113
-0.021646
0.0201608
0.0238573
0.00062152
-0.0416463
-0.000623226
-0.0293523
-0.0202692
-0.0159585
-0.0312498
-0.0201818
-0.0258635
0.00369844
-0.0404363
-0.0346391
-0.0411794
0.0363112
-0.042497
0.0120119
-0.0255701
-0.000791187
0.0191818
0.0149557
0.00586628
0.00291393
0.0036531
0.00947207
0.00790943
-0.00639063
0.00429646
-0.0189919
-0.0171147
-0.00389146
0.0122391
-0.00897527
-0.00231432
-0.00478527
-0.00127808
0.00329715
-0.00711702
-0.0109256
0.00496932
-0.0183729
0.0149592
0.0131339
0.0256734
0.0214505
0.00470643
0.0261338
0.000192913
-0.00232955
-0.0245935
-0.0114563
0.016176
-0.0275483
0.00114961
-0.0305765
0.00177683
0.00630486
-0.0102509
-2.33331e-05
-0.0274053
-0.00294189
-0.0305518
-0.0356268
0.0127488
-0.0399052
-0.0338815
-0.0355489
-0.0273309
-0.0701029
-0.0405624
-0.0139693
-0.03939
-0.0389215
-0.0290505
-0.0285624
-0.0378864
-0.0299496
-0.0275219
-0.0418841
-0.0379621
-0.046793
-0.0515825
-0.0398633
0.0223552
-0.0472058
-0.0448376
-0.0440549
-0.0391049
-0.036947
-0.0341954
-0.035372
-0.0387891
-0.0316401
-0.0584979
0.00483299
-0.0603141
-0.000937119
-0.0471442
-0.0436335
0.0226429
-0.0413391
-0.00789671
0.0249756
-0.0535468
-0.000695152
0.00841588
0.00358389
-0.00652803
-0.000686791
-0.00485501
0.0172389
-0.0105361
-0.0112905
0.00485081
0.0171057
0.010373
0.0159815
-0.0282156
-0.0147422
-0.0304508
-0.00780024
-0.0224841
-0.0447046
0.0212265
0.0204831
-0.0387701
-0.0134985
-0.0357494
0.012808
-0.0356725
-0.0302859
-0.0144422
-0.0298804
-0.00727587
-0.0248288
-0.0188562
-0.00774434
-0.0378135
0.0127084
-0.0409057
-0.000418625
0.0179427
0.0161333
0.0120511
0.0065353
0.00160768
-0.0160307
-0.0168913
0.0154073
-0.0235807
-0.0247419
0.0108695
-0.00180445
-6.84982e-05
-0.0027188
-0.00196431
-0.00210661
-0.00529233
-0.00716648
-0.00443481
-0.00724449
-0.0126125
0.0252782
0.0188584
0.00712896
0.019238
0.0230994
0.0188446
0.00844886
-0.000963538
-0.00341325
-0.00101343
-0.0434993
-0.0201472
-0.0117912
-0.0233164
-0.0404776
0.0133404
-0.0153436
0.000227785
-0.00517623
-0.021243
0.0059174
-0.0474213
-0.0200084
-0.0251878
-0.00387516
-0.0373302
-0.0590771
-0.0299295
-0.0440555
-0.0462096
0.0185473
-0.0604356
0.0109346
-0.0520448
0.0242584
-0.0552604
0.00976672
-0.0500476
0.0148764
-0.0441892
-0.0501732
0.00572778
0.00534931
-0.0460467
0.011393
-0.0623924
-0.0350198
-0.0191855
0.00796908
-0.0500175
-0.0413331
0.0148307
-0.0640644
0.00830838
-0.0558015
0.0227798
-0.0661792
-0.0300163
-0.0095605
-0.0695525
-0.0686982
-0.0569591
-0.0529984
0.0329854
-0.0359072
-0.0446535
-0.013086
-0.0192313
-0.0401977
-0.0225171
-0.0341256
-0.00107154
0.0110866
0.00460791
-0.0111717
-0.00166529
-0.00221895
0.0104652
0.00896139
-0.020296
0.0223642
0.00510518
0.0135556
-0.0464906
0.0040733
-0.0366208
0.00355893
-0.027436
-0.0347862
-0.021
-0.0476558
-0.0425538
0.00139261
-0.0622644
-0.0342375
0.0149529
-0.036397
0.0293291
-0.0397994
-0.0255287
-0.0143678
0.000538717
0.0144166
0.0135638
0.00405345
0.00391435
0.00746803
-0.00608917
-0.0177334
0.0140563
0.0103408
-0.0301883
0.00591627
-0.0255689
-0.0141456
-0.0165416
-0.011329
-0.00259967
-0.00412172
-0.000820012
-0.00454289
-0.00855669
-0.0128873
0.00626553
-0.0204114
0.0116912
0.0147301
0.026264
0.0198373
-0.00217613
0.0236675
-0.00108954
0.020867
0.000153594
-0.00364941
0.000715478
-0.0442968
-0.0206337
0.00639761
0.00891509
-0.0358258
-0.000208051
-0.0467311
-0.0214181
0.00295468
0.00803461
-0.0102353
0.00105387
-0.0464612
-0.0609549
-0.0690006
-0.00244756
-0.0593319
0.0116891
-0.0585219
-0.0301333
-0.0520795
-0.0304729
-0.0603015
-0.0429239
-0.037093
-0.0298102
-0.0162951
-0.0428235
-0.0522563
-0.0469659
0.0363839
-0.0586682
-0.01666
0.00473578
-0.0490919
-0.0595913
-0.0371079
-0.0654394
-0.0460315
-0.0267869
-0.0316077
-0.0405884
-0.00240272
-0.0585507
0.00487887
-0.06157
0.0114651
-0.0500714
-0.00406292
-0.0425798
-0.0377293