/*--------------------------------*- C++ -*----------------------------------*\
| =========                 |                                                 |
| \\      /  F ield         | OpenFOAM: The Open Source CFD Toolbox           |
|  \\    /   O peration     | Version:  v2012                                 |
|   \\  /    A nd           | Website:  www.openfoam.com                      |
|    \\/     M anipulation  |                                                 |
\*---------------------------------------------------------------------------*/
FoamFile
{
    version     2.0;
    format      ascii;
    class       volScalarField;
    location    "0.2";
    object      nut;
}
// * * * * * * * * * * * * * * * * * * * * * * * * * * * * * * * * * * * * * //

dimensions      [0 2 -1 0 0 0 0];


internalField   nonuniform List<scalar> 
13611
(
1.06496e-05
1.01211e-05
1.30898e-05
1.05927e-05
1.08734e-05
1.11695e-05
9.81058e-06
1.17234e-05
1.11721e-05
1.09749e-05
1.12008e-05
1.01392e-05
1.05892e-05
1.31762e-05
1.11689e-05
1.10241e-05
1.11712e-05
1.1157e-05
9.43452e-06
1.05797e-05
1.16785e-05
1.11867e-05
1.11798e-05
1.11591e-05
1.11628e-05
1.11676e-05
9.60922e-06
1.09157e-05
1.30919e-05
1.1194e-05
1.11787e-05
1.11671e-05
1.1158e-05
1.11576e-05
1.1136e-05
9.68589e-06
1.06679e-05
1.18794e-05
1.11976e-05
1.1187e-05
1.11623e-05
1.11511e-05
1.11504e-05
1.11512e-05
9.30859e-06
1.07776e-05
1.31312e-05
9.53561e-06
1.11966e-05
1.12105e-05
1.11843e-05
1.11709e-05
1.11516e-05
1.11448e-05
1.1139e-05
1.11596e-05
1.01521e-05
1.10123e-05
1.20761e-05
9.25154e-06
1.12091e-05
1.12187e-05
1.11933e-05
1.1171e-05
1.12365e-05
1.11483e-05
1.11628e-05
1.1142e-05
1.11335e-05
1.11451e-05
1.01124e-05
1.10523e-05
1.30002e-05
9.03868e-06
1.12156e-05
1.12303e-05
1.11933e-05
1.12082e-05
1.11831e-05
1.11568e-05
1.11655e-05
1.11404e-05
1.11233e-05
1.11341e-05
1.11421e-05
1.07105e-05
1.1119e-05
1.2322e-05
8.62086e-06
1.12385e-05
1.12411e-05
1.12049e-05
1.12151e-05
1.11853e-05
1.12592e-05
1.1159e-05
1.11758e-05
1.11502e-05
1.11216e-05
1.11308e-05
1.11268e-05
1.06889e-05
1.11197e-05
1.14298e-05
8.93286e-06
1.12494e-05
1.12464e-05
1.12087e-05
1.12336e-05
1.11997e-05
1.12766e-05
1.12927e-05
1.11733e-05
1.11815e-05
1.11519e-05
1.11221e-05
1.11389e-05
1.11157e-05
1.11185e-05
1.102e-05
1.11044e-05
1.11144e-05
1.30554e-05
8.60958e-06
8.24629e-06
1.12711e-05
1.12706e-05
1.12243e-05
1.1237e-05
1.11952e-05
1.13083e-05
1.11754e-05
1.11663e-05
1.11482e-05
1.11327e-05
1.11123e-05
1.11067e-05
1.08636e-05
1.10938e-05
1.11035e-05
1.19755e-05
7.03344e-06
9.55051e-06
1.12858e-05
1.12765e-05
1.12867e-05
1.12347e-05
1.12568e-05
1.12031e-05
1.13067e-05
1.13261e-05
1.11893e-05
1.1168e-05
1.11569e-05
1.114e-05
1.11249e-05
1.11056e-05
1.11911e-05
1.11333e-05
1.10902e-05
1.10972e-05
1.10974e-05
1.30168e-05
9.352e-06
8.7839e-06
1.12726e-05
1.12981e-05
1.13084e-05
1.12364e-05
1.12549e-05
1.12016e-05
1.12248e-05
1.1328e-05
1.13497e-05
1.11892e-05
1.11788e-05
1.11629e-05
1.11367e-05
1.11567e-05
1.11299e-05
1.11214e-05
1.04061e-05
1.11097e-05
1.10799e-05
1.10977e-05
1.10891e-05
1.19506e-05
6.99647e-06
1.12906e-05
1.13115e-05
1.13048e-05
1.13285e-05
1.12573e-05
1.12688e-05
1.12203e-05
1.12334e-05
1.13506e-05
1.13737e-05
1.1206e-05
1.11765e-05
1.11477e-05
1.11671e-05
1.11419e-05
1.11217e-05
1.04734e-05
1.11044e-05
1.10775e-05
1.10803e-05
1.10905e-05
1.11122e-05
9.16428e-06
1.29639e-05
9.42852e-06
1.12881e-05
1.1333e-05
1.1325e-05
1.13568e-05
1.12623e-05
1.12708e-05
1.12224e-05
1.12518e-05
1.13792e-05
1.14068e-05
1.12082e-05
1.11907e-05
1.11613e-05
1.11849e-05
1.11539e-05
1.11334e-05
1.08936e-05
1.11045e-05
1.10656e-05
1.10831e-05
1.11028e-05
1.11157e-05
7.16417e-06
1.18104e-05
9.87756e-06
1.12982e-05
1.13396e-05
1.13547e-05
1.13356e-05
1.13832e-05
1.12786e-05
1.12859e-05
1.12419e-05
1.12581e-05
1.14094e-05
1.12248e-05
1.11942e-05
1.11762e-05
1.1199e-05
1.11534e-05
1.11727e-05
1.11461e-05
1.11252e-05
1.06986e-05
1.11072e-05
1.10599e-05
1.10671e-05
1.10783e-05
1.10981e-05
1.11062e-05
8.11375e-06
9.19057e-06
1.28741e-05
1.132e-05
1.13629e-05
1.1379e-05
1.13649e-05
1.1336e-05
1.14278e-05
1.12908e-05
1.12861e-05
1.12415e-05
1.12573e-05
1.12768e-05
1.14472e-05
1.12313e-05
1.12194e-05
1.11954e-05
1.12188e-05
1.11736e-05
1.11907e-05
1.11584e-05
1.11315e-05
1.0912e-05
1.10765e-05
1.10522e-05
1.10451e-05
1.10697e-05
1.10907e-05
1.11066e-05
1.11214e-05
7.2276e-06
9.60136e-06
1.22369e-05
1.13272e-05
1.1379e-05
1.14158e-05
1.13828e-05
1.13643e-05
1.14409e-05
1.14612e-05
1.13119e-05
1.13069e-05
1.12557e-05
1.12714e-05
1.12837e-05
1.14975e-05
1.15133e-05
1.12471e-05
1.12123e-05
1.1237e-05
1.11737e-05
1.11899e-05
1.12107e-05
1.11587e-05
1.11477e-05
1.05696e-05
1.10865e-05
1.10427e-05
1.1059e-05
1.10833e-05
1.11036e-05
1.11254e-05
1.11332e-05
8.95855e-06
1.13884e-05
1.13494e-05
1.14234e-05
1.14441e-05
1.14166e-05
1.13705e-05
1.14951e-05
1.15021e-05
1.13194e-05
1.13156e-05
1.12704e-05
1.12774e-05
1.13029e-05
1.15272e-05
1.15746e-05
1.12622e-05
1.12332e-05
1.12553e-05
1.11913e-05
1.12088e-05
1.12286e-05
1.11769e-05
1.11581e-05
1.07436e-05
1.10345e-05
1.10384e-05
1.10528e-05
1.10645e-05
1.10937e-05
1.11198e-05
1.11349e-05
1.11529e-05
3.72976e-06
1.29389e-05
7.28876e-06
1.136e-05
1.1438e-05
1.14901e-05
1.14438e-05
1.14096e-05
1.15361e-05
1.15081e-05
1.15403e-05
1.13427e-05
1.13376e-05
1.12887e-05
1.12993e-05
1.13104e-05
1.15801e-05
1.1604e-05
1.12853e-05
1.12591e-05
1.12445e-05
1.12658e-05
1.11914e-05
1.12086e-05
1.12277e-05
1.12444e-05
1.11746e-05
1.07429e-05
1.10307e-05
1.10617e-05
1.10604e-05
1.10821e-05
1.11121e-05
1.11223e-05
1.11552e-05
1.11696e-05
9.07071e-06
1.20667e-05
1.4406e-06
1.13914e-05
1.14861e-05
1.15179e-05
1.14437e-05
1.14859e-05
1.14162e-05
1.15734e-05
1.15529e-05
1.15918e-05
1.13541e-05
1.13484e-05
1.13056e-05
1.1332e-05
1.16627e-05
1.13053e-05
1.1275e-05
1.12642e-05
1.12722e-05
1.12078e-05
1.12245e-05
1.12433e-05
1.12549e-05
1.11906e-05
1.10462e-05
1.10152e-05
1.10493e-05
1.10687e-05
1.10257e-05
1.10817e-05
1.1094e-05
1.11288e-05
1.11473e-05
1.11678e-05
1.11695e-05
1.11895e-05
9.79894e-06
8.9884e-06
1.29445e-05
7.80748e-06
1.12815e-05
1.11251e-05
1.14126e-05
1.15189e-05
1.15572e-05
1.14866e-05
1.15254e-05
1.14595e-05
1.1629e-05
1.1648e-05
1.13934e-05
1.13817e-05
1.13257e-05
1.1343e-05
1.16981e-05
1.1699e-05
1.12975e-05
1.13287e-05
1.12676e-05
1.12925e-05
1.12083e-05
1.12241e-05
1.12412e-05
1.12602e-05
1.12635e-05
1.08536e-05
1.10292e-05
1.10631e-05
1.10388e-05
1.10081e-05
1.11023e-05
1.11198e-05
1.115e-05
1.11333e-05
1.1166e-05
1.11878e-05
1.11895e-05
1.1208e-05
8.7799e-06
1.20123e-05
8.96255e-06
1.12371e-05
1.12588e-05
1.1152e-05
9.9312e-06
1.31908e-05
1.14508e-05
1.15712e-05
1.1612e-05
1.15269e-05
1.14905e-05
1.15704e-05
1.16618e-05
1.16743e-05
1.17001e-05
1.14058e-05
1.13964e-05
1.13356e-05
1.13752e-05
1.17746e-05
1.13069e-05
1.13528e-05
1.12858e-05
1.13089e-05
1.1228e-05
1.1238e-05
1.12583e-05
1.12814e-05
1.12828e-05
1.10341e-05
1.10194e-05
1.1056e-05
1.10918e-05
1.10316e-05
1.10025e-05
1.11276e-05
1.11316e-05
1.11671e-05
1.11606e-05
1.11866e-05
1.12065e-05
1.12073e-05
1.1228e-05
4.61292e-06
1.28372e-05
7.66752e-06
1.07819e-05
1.10384e-05
1.11573e-05
1.12775e-05
1.11367e-05
9.87077e-06
1.12293e-05
1.14841e-05
1.16168e-05
1.16703e-05
1.15763e-05
1.15364e-05
1.16086e-05
1.17418e-05
1.17399e-05
1.17746e-05
1.14496e-05
1.14299e-05
1.13767e-05
1.13951e-05
1.17963e-05
1.18151e-05
1.1337e-05
1.13834e-05
1.13699e-05
1.13045e-05
1.13351e-05
1.12427e-05
1.12558e-05
1.12786e-05
1.13005e-05
1.12976e-05
1.10393e-05
1.10735e-05
1.1113e-05
1.10123e-05
1.09997e-05
1.11507e-05
1.11591e-05
1.11752e-05
1.11861e-05
1.1171e-05
1.12067e-05
1.12271e-05
1.12268e-05
1.12487e-05
5.9797e-06
1.21214e-05
9.13824e-06
1.09748e-05
1.12402e-05
1.11394e-05
1.1221e-05
1.11707e-05
1.11529e-05
1.12015e-05
9.99468e-06
1.31828e-05
1.1484e-05
1.15312e-05
1.16685e-05
1.1729e-05
1.16165e-05
1.15782e-05
1.15442e-05
1.16686e-05
1.17924e-05
1.17831e-05
1.14571e-05
1.14568e-05
1.14396e-05
1.18742e-05
1.18494e-05
1.18595e-05
1.13629e-05
1.14181e-05
1.14107e-05
1.13279e-05
1.1362e-05
1.12617e-05
1.12739e-05
1.13011e-05
1.13299e-05
1.13221e-05
1.10223e-05
1.10668e-05
1.10785e-05
1.11028e-05
1.11484e-05
1.10048e-05
1.09926e-05
1.11638e-05
1.11725e-05
1.11985e-05
1.12084e-05
1.11973e-05
1.12291e-05
1.12488e-05
1.12478e-05
1.12743e-05
9.96883e-06
1.13582e-05
1.07831e-05
8.50328e-06
1.1003e-05
1.10055e-05
1.11272e-05
1.1145e-05
1.12229e-05
1.1189e-05
1.11553e-05
1.12132e-05
9.91872e-06
1.10845e-05
1.15366e-05
1.15667e-05
1.17253e-05
1.1689e-05
1.17818e-05
1.16689e-05
1.1634e-05
1.15917e-05
1.17011e-05
1.18655e-05
1.18569e-05
1.15007e-05
1.1497e-05
1.14592e-05
1.18801e-05
1.19112e-05
1.13988e-05
1.14497e-05
1.14466e-05
1.13566e-05
1.13937e-05
1.12815e-05
1.12941e-05
1.13287e-05
1.13468e-05
1.13396e-05
1.10437e-05
1.10928e-05
1.11086e-05
1.11229e-05
1.11744e-05
1.09833e-05
1.09789e-05
1.12077e-05
1.11971e-05
1.12142e-05
1.12291e-05
1.12162e-05
1.12513e-05
1.12719e-05
1.12703e-05
1.12954e-05
1.12731e-05
1.27837e-05
1.10179e-05
9.08431e-06
1.10028e-05
1.11405e-05
1.11234e-05
1.1139e-05
1.11476e-05
1.12208e-05
1.11931e-05
1.11798e-05
1.12129e-05
9.6362e-06
1.3165e-05
1.15368e-05
1.1575e-05
1.16009e-05
1.17743e-05
1.17494e-05
1.18391e-05
1.16917e-05
1.16301e-05
1.16859e-05
1.17541e-05
1.19205e-05
1.18869e-05
1.18851e-05
1.15331e-05
1.15133e-05
1.19695e-05
1.19504e-05
1.19687e-05
1.14409e-05
1.14881e-05
1.14889e-05
1.13855e-05
1.14314e-05
1.13161e-05
1.1322e-05
1.13572e-05
1.1377e-05
1.13812e-05
1.10379e-05
1.1086e-05
1.11184e-05
1.11579e-05
1.1209e-05
1.09723e-05
1.1005e-05
1.12265e-05
1.12245e-05
1.12499e-05
1.12616e-05
1.12557e-05
1.12865e-05
1.13071e-05
1.12938e-05
1.13342e-05
8.53186e-06
1.15971e-05
1.07368e-05
8.48422e-06
1.09811e-05
1.03252e-05
1.11075e-05
1.11576e-05
1.11345e-05
1.12598e-05
1.12059e-05
1.11852e-05
1.12241e-05
1.12156e-05
1.1609e-05
1.15732e-05
1.16185e-05
1.16342e-05
1.18305e-05
1.17827e-05
1.18565e-05
1.17569e-05
1.16614e-05
1.17456e-05
1.17851e-05
1.19779e-05
1.19575e-05
1.19413e-05
1.15411e-05
1.15742e-05
1.15242e-05
1.20036e-05
1.20024e-05
1.14743e-05
1.15317e-05
1.1423e-05
1.14702e-05
1.13527e-05
1.13553e-05
1.13867e-05
1.14026e-05
1.14068e-05
1.10737e-05
1.11218e-05
1.1154e-05
1.11879e-05
1.12457e-05
1.09836e-05
1.10041e-05
1.12706e-05
1.12925e-05
1.12771e-05
1.12751e-05
1.12961e-05
1.12825e-05
1.13171e-05
1.13399e-05
1.13329e-05
1.13566e-05
1.13552e-05
1.10077e-05
1.27639e-05
1.09525e-05
9.05837e-06
1.09733e-05
1.02185e-05
1.11316e-05
1.11809e-05
1.11575e-05
1.1124e-05
1.11161e-05
1.08778e-05
1.12194e-05
1.12054e-05
1.11999e-05
1.12384e-05
1.12166e-05
1.31777e-05
9.84297e-06
1.16232e-05
1.16435e-05
1.16544e-05
1.18777e-05
1.18545e-05
1.193e-05
1.17886e-05
1.17159e-05
1.17528e-05
1.18472e-05
1.19892e-05
1.20117e-05
1.19731e-05
1.19632e-05
1.1588e-05
1.16181e-05
1.15686e-05
1.20157e-05
1.20189e-05
1.15207e-05
1.15382e-05
1.15736e-05
1.14557e-05
1.15124e-05
1.13963e-05
1.13962e-05
1.14245e-05
1.1444e-05
1.14515e-05
1.10747e-05
1.11167e-05
1.11743e-05
1.1194e-05
1.12423e-05
1.12765e-05
1.13002e-05
1.09737e-05
1.1037e-05
1.13173e-05
1.13277e-05
1.13297e-05
1.13237e-05
1.13537e-05
1.13452e-05
1.13612e-05
1.1377e-05
1.13916e-05
1.14039e-05
7.68536e-06
1.15199e-05
1.05952e-05
1.10029e-05
8.23692e-06
1.09666e-05
1.09666e-05
1.11281e-05
1.1187e-05
1.11715e-05
1.11071e-05
1.11222e-05
1.0852e-05
1.12216e-05
1.12086e-05
1.12006e-05
1.12391e-05
1.12283e-05
1.17575e-05
9.23635e-06
1.16513e-05
1.17142e-05
1.17147e-05
1.19313e-05
1.18813e-05
1.18482e-05
1.17461e-05
1.18115e-05
1.18815e-05
1.20038e-05
1.20125e-05
1.20015e-05
1.20014e-05
1.16024e-05
1.16261e-05
1.20165e-05
1.19848e-05
1.15478e-05
1.15913e-05
1.16149e-05
1.15026e-05
1.1521e-05
1.15504e-05
1.14419e-05
1.14335e-05
1.146e-05
1.14756e-05
1.11413e-05
1.11738e-05
1.12401e-05
1.12887e-05
1.13212e-05
1.13471e-05
1.1366e-05
1.09951e-05
1.10519e-05
1.13246e-05
1.13655e-05
1.13926e-05
1.13679e-05
1.13514e-05
1.13615e-05
1.13885e-05
1.13943e-05
1.142e-05
1.14274e-05
1.14421e-05
1.05199e-05
1.27284e-05
1.08284e-05
1.09956e-05
9.09381e-06
1.09508e-05
1.0955e-05
1.11483e-05
1.11846e-05
1.11964e-05
1.11735e-05
1.11128e-05
1.10933e-05
1.11422e-05
1.10502e-05
9.61264e-06
1.12128e-05
1.11455e-05
1.12125e-05
1.12059e-05
1.12682e-05
1.12533e-05
1.12348e-05
1.30753e-05
1.17153e-05
1.17471e-05
1.17446e-05
1.19711e-05
1.19441e-05
1.18848e-05
1.1793e-05
1.18689e-05
1.19367e-05
1.20025e-05
1.20027e-05
1.19903e-05
1.20046e-05
1.19997e-05
1.1654e-05
1.16724e-05
1.19516e-05
1.19401e-05
1.1588e-05
1.16252e-05
1.16688e-05
1.15304e-05
1.15712e-05
1.15853e-05
1.14943e-05
1.14771e-05
1.1508e-05
1.15178e-05
1.11541e-05
1.11115e-05
1.1229e-05
1.13182e-05
1.13391e-05
1.14311e-05
1.14406e-05
1.14264e-05
1.09879e-05
1.1035e-05
1.14135e-05
1.14379e-05
1.14389e-05
1.14305e-05
1.14015e-05
1.1419e-05
1.14415e-05
1.14491e-05
1.14708e-05
1.14814e-05
1.14871e-05
7.38877e-06
1.15094e-05
1.06207e-05
1.09902e-05
8.56718e-06
1.09428e-05
1.0972e-05
1.11688e-05
1.11905e-05
1.12024e-05
1.1185e-05
1.11273e-05
1.10863e-05
1.11547e-05
1.11101e-05
9.14711e-06
1.1216e-05
1.11183e-05
1.12278e-05
1.1217e-05
1.12662e-05
1.12488e-05
1.17293e-05
1.17376e-05
1.17996e-05
1.18077e-05
1.19759e-05
1.20065e-05
1.19567e-05
1.19513e-05
1.18335e-05
1.19114e-05
1.1962e-05
1.1937e-05
1.19579e-05
1.19108e-05
1.1967e-05
1.19827e-05
1.16891e-05
1.16849e-05
1.17231e-05
1.18676e-05
1.17796e-05
1.16135e-05
1.16808e-05
1.17113e-05
1.15675e-05
1.15989e-05
1.15388e-05
1.15048e-05
1.15169e-05
1.15498e-05
1.15495e-05
1.10556e-05
1.12916e-05
1.13388e-05
1.14121e-05
1.14727e-05
1.1522e-05
1.15426e-05
1.15225e-05
1.09598e-05
1.10706e-05
1.14579e-05
1.14997e-05
1.15589e-05
1.14532e-05
1.14962e-05
1.14795e-05
1.14706e-05
1.14798e-05
1.1522e-05
1.15273e-05
1.14992e-05
1.15354e-05
1.03446e-05
1.26842e-05
1.08197e-05
1.09805e-05
8.51419e-06
1.09316e-05
1.09599e-05
1.11747e-05
1.11986e-05
1.12134e-05
1.11887e-05
1.11263e-05
1.11508e-05
1.11116e-05
1.10779e-05
1.11712e-05
1.04448e-05
1.12006e-05
9.56863e-06
1.11401e-05
1.12305e-05
1.12813e-05
1.12594e-05
1.29878e-05
1.18031e-05
1.18411e-05
1.18291e-05
1.19852e-05
1.19737e-05
1.1981e-05
1.19667e-05
1.18955e-05
1.19608e-05
1.19843e-05
1.19271e-05
1.18506e-05
1.18369e-05
1.17999e-05
1.18869e-05
1.17401e-05
1.17505e-05
1.17616e-05
1.15596e-05
1.16987e-05
1.17075e-05
1.16349e-05
1.1666e-05
1.17003e-05
1.17648e-05
1.16052e-05
1.16517e-05
1.15927e-05
1.15648e-05
1.15731e-05
1.15879e-05
1.15954e-05
1.19716e-05
1.15778e-05
1.1195e-05
1.13844e-05
1.15748e-05
1.15969e-05
1.16257e-05
1.16542e-05
1.15948e-05
1.09344e-05
1.10346e-05
1.15471e-05
1.15807e-05
1.16111e-05
1.15251e-05
1.15908e-05
1.15431e-05
1.15022e-05
1.15471e-05
1.15491e-05
1.15821e-05
1.15715e-05
1.15593e-05
1.15813e-05
7.81373e-06
1.15448e-05
1.08277e-05
1.09734e-05
7.85079e-06
1.00937e-05
1.09627e-05
1.09258e-05
1.11836e-05
1.1208e-05
1.12252e-05
1.12011e-05
1.11449e-05
1.11575e-05
1.11176e-05
1.10805e-05
1.11771e-05
1.02467e-05
1.12209e-05
9.03722e-06
1.11028e-05
1.12427e-05
1.13059e-05
1.12768e-05
1.13002e-05
1.12575e-05
1.22908e-05
1.18002e-05
1.18413e-05
1.18958e-05
1.189e-05
1.19884e-05
1.19801e-05
1.19137e-05
1.19781e-05
1.19286e-05
1.19733e-05
1.19826e-05
1.17918e-05
1.16338e-05
1.16364e-05
1.16025e-05
1.17461e-05
1.17714e-05
1.17835e-05
1.13207e-05
1.1388e-05
1.13987e-05
1.16885e-05
1.17642e-05
1.18055e-05
1.16588e-05
1.16775e-05
1.16454e-05
1.16067e-05
1.16041e-05
1.16326e-05
1.16372e-05
1.41978e-05
1.15778e-05
1.16859e-05
1.1944e-05
1.22492e-05
1.19509e-05
1.16812e-05
1.15438e-05
1.1666e-05
1.16523e-05
1.09455e-05
1.15675e-05
1.16174e-05
1.16669e-05
1.17757e-05
1.16021e-05
1.16717e-05
1.16208e-05
1.15823e-05
1.15948e-05
1.16105e-05
1.16466e-05
1.16325e-05
1.15921e-05
1.16375e-05
1.03187e-05
1.26238e-05
1.09535e-05
1.09784e-05
7.36723e-06
1.00615e-05
1.09219e-05
1.09032e-05
1.11921e-05
1.12099e-05
1.12227e-05
1.12437e-05
1.12027e-05
1.11573e-05
1.1144e-05
1.11711e-05
1.11337e-05
1.11067e-05
1.10658e-05
1.11774e-05
1.11883e-05
1.06664e-05
1.11524e-05
1.11354e-05
9.51979e-06
1.10922e-05
1.12497e-05
1.12943e-05
1.13213e-05
1.12732e-05
1.19151e-05
1.18434e-05
1.18973e-05
1.19321e-05
1.19282e-05
1.19556e-05
1.19209e-05
1.18286e-05
1.19645e-05
1.19721e-05
1.19717e-05
1.19765e-05
1.19633e-05
1.16343e-05
1.17001e-05
1.14481e-05
1.14525e-05
1.13611e-05
1.15965e-05
1.18283e-05
1.18367e-05
1.12586e-05
1.12735e-05
1.17437e-05
1.178e-05
1.18082e-05
1.18579e-05
1.17001e-05
1.17395e-05
1.1703e-05
1.16713e-05
1.16554e-05
1.16808e-05
1.16896e-05
1.08437e-05
1.16581e-05
1.19452e-05
1.15585e-05
1.16524e-05
1.18072e-05
1.17374e-05
1.22881e-05
1.2212e-05
1.11962e-05
1.17716e-05
1.16653e-05
1.07994e-05
1.13844e-05
1.13872e-05
1.17201e-05
1.17581e-05
1.17891e-05
1.16942e-05
1.1761e-05
1.16381e-05
1.17035e-05
1.16782e-05
1.16754e-05
1.17261e-05
1.16738e-05
1.16432e-05
1.16759e-05
8.21729e-06
1.21709e-05
1.09183e-05
1.09314e-05
9.02626e-06
1.04971e-05
1.0933e-05
1.12269e-05
1.12353e-05
1.12558e-05
1.12202e-05
1.11662e-05
1.11526e-05
1.1174e-05
1.11368e-05
1.11133e-05
1.10831e-05
1.11884e-05
1.11966e-05
1.03547e-05
1.11556e-05
1.12002e-05
8.81543e-06
1.10706e-05
1.12672e-05
1.13563e-05
1.129e-05
1.13167e-05
1.13496e-05
1.31277e-05
1.00331e-05
1.18937e-05
1.19382e-05
1.19609e-05
1.19576e-05
1.19164e-05
1.1848e-05
1.16418e-05
1.19137e-05
1.19411e-05
1.19737e-05
1.19387e-05
1.19149e-05
1.14471e-05
1.14885e-05
1.12846e-05
1.12759e-05
1.12981e-05
1.15606e-05
1.14037e-05
1.18572e-05
1.18649e-05
1.15363e-05
1.12156e-05
1.11365e-05
1.17665e-05
1.18328e-05
1.18619e-05
1.18956e-05
1.1752e-05
1.17659e-05
1.17434e-05
1.17068e-05
1.1698e-05
1.16998e-05
1.17284e-05
1.17381e-05
2.67614e-06
5.94425e-07
9.8702e-06
9.24604e-06
1.0585e-05
8.6613e-06
7.60055e-06
1.52128e-05
1.55448e-05
1.1989e-05
1.22568e-05
1.14722e-05
1.09787e-05
1.14e-05
1.15944e-05
1.07685e-05
1.18242e-05
1.19521e-05
1.17682e-05
1.18199e-05
1.17324e-05
1.17711e-05
1.17425e-05
1.17018e-05
1.17463e-05
1.17827e-05
1.1739e-05
1.17332e-05
7.02283e-06
1.10324e-05
1.10267e-05
1.09129e-05
8.9833e-06
1.0487e-05
1.09132e-05
1.12334e-05
1.12386e-05
1.12519e-05
1.12741e-05
1.1224e-05
1.11702e-05
1.11464e-05
1.11641e-05
1.11812e-05
1.11301e-05
1.11107e-05
1.10723e-05
1.11905e-05
1.12135e-05
1.07728e-05
1.1121e-05
1.10995e-05
7.52991e-06
1.10614e-05
1.12807e-05
1.13893e-05
1.13119e-05
1.13387e-05
1.13751e-05
1.30902e-05
8.36563e-06
1.1921e-05
1.19616e-05
1.19673e-05
1.19774e-05
1.17918e-05
1.17164e-05
1.15909e-05
1.18636e-05
1.18917e-05
1.18798e-05
1.19636e-05
1.19389e-05
1.18113e-05
1.12688e-05
1.13829e-05
1.1218e-05
1.12342e-05
1.12695e-05
1.13364e-05
1.12655e-05
1.19027e-05
1.19162e-05
1.13135e-05
1.14052e-05
1.18163e-05
1.18448e-05
1.18692e-05
1.19019e-05
1.19297e-05
1.17935e-05
1.18246e-05
1.17945e-05
1.17614e-05
1.17535e-05
1.17588e-05
1.17692e-05
1.17771e-05
1.17906e-05
1.67298e-05
2.31594e-06
5.96426e-06
1.20059e-05
1.0402e-05
2.9008e-06
8.6981e-06
8.75849e-06
1.20987e-05
1.47566e-05
1.41568e-05
1.21884e-05
1.16071e-05
1.08824e-05
1.13818e-05
1.08409e-05
9.72232e-06
1.18419e-05
1.17943e-05
1.18517e-05
1.18605e-05
1.17627e-05
1.18443e-05
1.18143e-05
1.17906e-05
1.18077e-05
1.18443e-05
1.17701e-05
1.17667e-05
1.98443e-06
1.28338e-05
8.74124e-07
1.09592e-05
1.08267e-05
1.09036e-05
1.0011e-05
1.09101e-05
1.12515e-05
1.12546e-05
1.12638e-05
1.12898e-05
1.12418e-05
1.11836e-05
1.11515e-05
1.1172e-05
1.11902e-05
1.11345e-05
1.11236e-05
1.10914e-05
1.12068e-05
1.1221e-05
9.79892e-06
1.10599e-05
1.10988e-05
1.12147e-05
1.10683e-05
1.13043e-05
1.14623e-05
1.14153e-05
1.13359e-05
1.13679e-05
1.14068e-05
1.25092e-05
8.18959e-06
1.19237e-05
1.19586e-05
1.1962e-05
1.19689e-05
1.19609e-05
1.19618e-05
1.16775e-05
1.17458e-05
1.14241e-05
1.17221e-05
1.17678e-05
1.17879e-05
1.19473e-05
1.18624e-05
1.12726e-05
1.12397e-05
1.14697e-05
1.12854e-05
1.14126e-05
1.12988e-05
1.11996e-05
1.19275e-05
1.20622e-05
1.28076e-05
1.19677e-05
1.18427e-05
1.18923e-05
1.19059e-05
1.19362e-05
1.19498e-05
1.18355e-05
1.18003e-05
1.18377e-05
1.18182e-05
1.18128e-05
1.18156e-05
1.18348e-05
1.18397e-05
2.35041e-05
1.25137e-05
2.38183e-05
1.41421e-05
2.93068e-05
1.0514e-05
1.14002e-05
1.61671e-05
6.83258e-06
1.98145e-07
1.49007e-05
1.23091e-05
1.29422e-05
1.12065e-05
1.1043e-05
1.10944e-05
1.13995e-05
9.71519e-06
8.58743e-06
1.17976e-05
1.14532e-05
1.18479e-05
1.18469e-05
1.18086e-05
1.18532e-05
1.18324e-05
1.18686e-05
1.18592e-05
1.18706e-05
1.18674e-05
1.18394e-05
1.18258e-05
4.02689e-07
1.17743e-05
3.20077e-06
1.09447e-05
1.08878e-05
1.08895e-05
9.94622e-06
1.09076e-05
1.12627e-05
1.12622e-05
1.12812e-05
1.13114e-05
1.12576e-05
1.12473e-05
1.11929e-05
1.11649e-05
1.11442e-05
1.11855e-05
1.1205e-05
1.1124e-05
1.11181e-05
1.10824e-05
1.12193e-05
1.12395e-05
9.9298e-06
1.1047e-05
1.1049e-05
1.11533e-05
1.08353e-05
1.10589e-05
1.13203e-05
1.15055e-05
1.14494e-05
1.13592e-05
1.13956e-05
1.14415e-05
1.19609e-05
6.62267e-06
1.19535e-05
1.19664e-05
1.195e-05
1.19396e-05
1.19024e-05
1.14851e-05
1.15255e-05
1.13706e-05
1.16007e-05
1.16633e-05
1.17023e-05
1.16329e-05
1.19002e-05
1.17674e-05
1.1477e-05
1.12314e-05
1.20065e-05
1.20104e-05
1.17373e-05
1.2002e-05
1.12403e-05
1.12463e-05
1.19554e-05
1.38111e-05
1.28932e-05
1.18872e-05
1.19158e-05
1.19382e-05
1.1955e-05
1.19566e-05
1.18702e-05
1.18533e-05
1.18825e-05
1.18471e-05
1.18574e-05
1.18706e-05
1.18764e-05
1.18797e-05
3.32538e-05
2.73835e-05
2.97401e-05
2.68754e-05
3.00582e-05
3.42082e-05
2.93071e-05
2.21629e-05
2.19037e-05
1.26995e-05
3.67091e-06
4.43383e-06
1.18756e-05
4.35072e-07
1.2684e-05
1.09491e-05
1.04935e-05
1.13644e-05
7.34796e-06
1.34731e-05
1.1613e-05
1.15275e-05
1.18068e-05
1.18188e-05
1.17358e-05
1.18638e-05
1.18756e-05
1.18847e-05
1.18767e-05
1.1905e-05
1.1903e-05
1.18561e-05
9.92903e-06
1.22011e-05
1.28411e-05
1.00763e-05
1.09372e-05
1.09038e-05
1.05015e-05
1.08908e-05
1.12822e-05
1.12857e-05
1.12949e-05
1.13349e-05
1.12724e-05
1.12637e-05
1.12115e-05
1.11691e-05
1.11482e-05
1.12005e-05
1.12194e-05
1.1139e-05
1.11255e-05
1.10954e-05
1.12362e-05
1.12478e-05
1.10418e-05
1.11134e-05
1.09608e-05
1.10667e-05
1.13552e-05
1.15163e-05
1.1484e-05
1.13905e-05
1.13697e-05
1.14333e-05
1.14813e-05
1.29962e-05
9.79945e-06
9.58979e-06
1.19608e-05
1.19384e-05
1.19287e-05
1.18989e-05
1.18287e-05
1.14124e-05
1.14921e-05
1.12608e-05
1.14406e-05
1.14734e-05
1.14711e-05
1.18122e-05
1.16369e-05
1.18486e-05
1.15341e-05
1.1358e-05
1.33499e-05
1.36372e-05
1.22417e-05
1.27851e-05
1.13008e-05
1.14922e-05
1.19542e-05
1.3515e-05
1.36535e-05
1.40532e-05
1.19042e-05
1.1939e-05
1.19454e-05
1.195e-05
1.19272e-05
1.19028e-05
1.18872e-05
1.19032e-05
1.18954e-05
1.19007e-05
1.19021e-05
1.1923e-05
1.19138e-05
3.62794e-05
3.52585e-05
3.08699e-05
3.38567e-05
3.44226e-05
3.70261e-05
3.48237e-05
3.17293e-05
1.71294e-05
6.75449e-06
2.83097e-06
9.40996e-06
4.96373e-06
1.37241e-05
1.11575e-05
8.2228e-06
1.10363e-05
1.14334e-05
1.30538e-05
2.92291e-05
1.16004e-05
1.33885e-05
1.17373e-05
1.17551e-05
1.14617e-05
1.18079e-05
1.18843e-05
1.18777e-05
1.18355e-05
1.19018e-05
1.18883e-05
1.18575e-05
1.19005e-05
1.29613e-05
1.16617e-05
1.01266e-05
1.09525e-05
1.08836e-05
1.05159e-05
1.08909e-05
1.12966e-05
1.13018e-05
1.13198e-05
1.13619e-05
1.13366e-05
1.12924e-05
1.1276e-05
1.12211e-05
1.12233e-05
1.1186e-05
1.11621e-05
1.11488e-05
1.12206e-05
1.11985e-05
1.12368e-05
1.11378e-05
1.11269e-05
1.11176e-05
1.10857e-05
1.12653e-05
1.10569e-05
1.10387e-05
1.11248e-05
1.11182e-05
1.15848e-05
1.15562e-05
1.14135e-05
1.14009e-05
1.1458e-05
1.15123e-05
1.23767e-05
8.64864e-06
9.61282e-06
1.19295e-05
1.18663e-05
1.18527e-05
1.18009e-05
1.17042e-05
1.12599e-05
1.13296e-05
1.12422e-05
1.13819e-05
1.13113e-05
1.13925e-05
1.14626e-05
1.16675e-05
1.30283e-05
1.24943e-05
1.40743e-05
1.43141e-05
1.42168e-05
1.38943e-05
1.44778e-05
1.15581e-05
1.1683e-05
1.24486e-05
1.19401e-05
1.05782e-05
1.19375e-05
1.40853e-05
1.19369e-05
1.19428e-05
1.19385e-05
1.19212e-05
1.19146e-05
1.18864e-05
1.19284e-05
1.1916e-05
1.19117e-05
1.19047e-05
1.19129e-05
1.19304e-05
1.19238e-05
1.19248e-05
1.19323e-05
3.38112e-05
3.63387e-05
3.22028e-05
3.43396e-05
3.4587e-05
3.36928e-05
3.59485e-05
3.6668e-05
3.28096e-05
3.60892e-05
1.83461e-05
3.10556e-05
1.21157e-05
5.02571e-06
1.01567e-05
1.86221e-05
1.11252e-05
6.36233e-06
1.05586e-05
1.14275e-05
2.79712e-05
3.09782e-05
1.24044e-05
1.41561e-05
1.14699e-05
1.15434e-05
1.15219e-05
1.17247e-05
1.18518e-05
1.18085e-05
1.17443e-05
1.17788e-05
1.18825e-05
1.1839e-05
1.17665e-05
1.03086e-05
1.35385e-05
1.28914e-05
1.03656e-05
1.07647e-05
1.09509e-05
1.08863e-05
1.08661e-05
1.09849e-05
1.13273e-05
1.13287e-05
1.13383e-05
1.13944e-05
1.1367e-05
1.13128e-05
1.13025e-05
1.12401e-05
1.12397e-05
1.11847e-05
1.11724e-05
1.11638e-05
1.12402e-05
1.12174e-05
1.12546e-05
1.11498e-05
1.11424e-05
1.11272e-05
1.10966e-05
1.1278e-05
1.10709e-05
1.10301e-05
1.10846e-05
1.12138e-05
1.16354e-05
1.15817e-05
1.14438e-05
1.14179e-05
1.14997e-05
1.15598e-05
1.15214e-05
1.19845e-05
7.9383e-06
1.07119e-05
1.18725e-05
1.18197e-05
1.17831e-05
1.17033e-05
1.15598e-05
1.12547e-05
1.12201e-05
1.13459e-05
1.12679e-05
1.1256e-05
1.12641e-05
1.13505e-05
1.15395e-05
1.33014e-05
1.42859e-05
1.29237e-05
1.55226e-05
1.47001e-05
1.46558e-05
1.5043e-05
1.2289e-05
1.15402e-05
1.27436e-05
1.28868e-05
1.18803e-05
9.50254e-06
1.25301e-05
1.1943e-05
1.19401e-05
1.19405e-05
1.19206e-05
1.18403e-05
1.18471e-05
1.18049e-05
1.19047e-05
1.18692e-05
1.19028e-05
1.19148e-05
1.19041e-05
1.19092e-05
1.19346e-05
1.19297e-05
3.13987e-05
3.18525e-05
3.46921e-05
3.38989e-05
3.01738e-05
2.75656e-05
3.42714e-05
3.53732e-05
3.76234e-05
3.93563e-05
2.71589e-05
3.53125e-05
1.69942e-05
9.05838e-06
7.41363e-06
2.4391e-05
2.24496e-05
1.15619e-05
8.37053e-07
2.58764e-05
1.16949e-05
3.11859e-05
3.2948e-05
1.27191e-05
1.25282e-05
1.15551e-05
1.1547e-05
1.19378e-05
1.14961e-05
1.16854e-05
1.15364e-05
1.16018e-05
1.18533e-05
1.17978e-05
1.17249e-05
1.16327e-05
1.00075e-05
1.15711e-05
1.15193e-05
1.0505e-05
1.07401e-05
1.09575e-05
1.08464e-05
1.08656e-05
1.09126e-05
1.13409e-05
1.13506e-05
1.13635e-05
1.14198e-05
1.1394e-05
1.13433e-05
1.13137e-05
1.12552e-05
1.12586e-05
1.11973e-05
1.11728e-05
1.12605e-05
1.12375e-05
1.12155e-05
1.12743e-05
1.11539e-05
1.11673e-05
1.11489e-05
1.11419e-05
1.11194e-05
1.10933e-05
1.13031e-05
1.10721e-05
1.10148e-05
1.1056e-05
1.11648e-05
1.10252e-05
1.16886e-05
1.16566e-05
1.14685e-05
1.14558e-05
1.15247e-05
1.15918e-05
1.15641e-05
1.29826e-05
1.00097e-05
6.47438e-06
1.07651e-05
1.17829e-05
1.16797e-05
1.16655e-05
1.15482e-05
1.14486e-05
1.13009e-05
1.13431e-05
1.1259e-05
1.12628e-05
1.12598e-05
1.12319e-05
1.13737e-05
1.44098e-05
1.45403e-05
1.43173e-05
1.35051e-05
1.33421e-05
1.24338e-05
1.07045e-05
1.30299e-05
1.21925e-05
1.29267e-05
1.41975e-05
1.17997e-05
4.61058e-06
6.90722e-06
1.19246e-05
1.19079e-05
1.1907e-05
1.18485e-05
1.17852e-05
1.17504e-05
1.16916e-05
1.18783e-05
1.18075e-05
1.18625e-05
1.18643e-05
1.18588e-05
1.1845e-05
1.18759e-05
1.18928e-05
1.19186e-05
2.41312e-05
2.46808e-05
3.29338e-05
3.08126e-05
2.92806e-05
2.58537e-05
2.05178e-05
2.73292e-05
3.31304e-05
3.79101e-05
3.2899e-05
2.8618e-05
4.14908e-05
2.14126e-05
8.65013e-06
7.07301e-07
3.62094e-05
3.51378e-05
1.15672e-05
9.94664e-06
3.15064e-05
2.43796e-05
1.07976e-05
3.34827e-05
3.32366e-05
1.13041e-05
1.28943e-05
1.20911e-05
1.18618e-05
1.22157e-05
1.14601e-05
1.1544e-05
1.15056e-05
1.17593e-05
1.16582e-05
1.15506e-05
1.14499e-05
1.02512e-05
1.30794e-05
1.28366e-05
1.21991e-05
1.04343e-05
1.08417e-05
1.09369e-05
1.08552e-05
1.08361e-05
1.12135e-05
1.13758e-05
1.1378e-05
1.13851e-05
1.14535e-05
1.14222e-05
1.13624e-05
1.13443e-05
1.12776e-05
1.12797e-05
1.12037e-05
1.11945e-05
1.12881e-05
1.1258e-05
1.12316e-05
1.12965e-05
1.11739e-05
1.11833e-05
1.11698e-05
1.11604e-05
1.11254e-05
1.11089e-05
1.13221e-05
1.10971e-05
1.10392e-05
1.10625e-05
1.11363e-05
1.09953e-05
1.1748e-05
1.16991e-05
1.16765e-05
1.15085e-05
1.14775e-05
1.15706e-05
1.16444e-05
1.15946e-05
1.24217e-05
9.85655e-06
8.97168e-06
1.10677e-05
1.16681e-05
1.16069e-05
1.16293e-05
1.15474e-05
1.14324e-05
1.13143e-05
1.16097e-05
1.16375e-05
1.13317e-05
1.14503e-05
1.13988e-05
1.12533e-05
1.1289e-05
1.13055e-05
1.44097e-05
1.35394e-05
1.47404e-05
9.84449e-06
8.44762e-06
9.7194e-06
9.10392e-06
6.78598e-06
1.43489e-05
1.21752e-05
1.37055e-05
1.1673e-05
4.14193e-06
3.31714e-06
1.18985e-05
1.18851e-05
1.18547e-05
1.17671e-05
1.16744e-05
1.16368e-05
1.15969e-05
1.18116e-05
1.16388e-05
1.17371e-05
1.17852e-05
1.17643e-05
1.17573e-05
1.17612e-05
1.18317e-05
1.18454e-05
1.83995e-05
2.4161e-05
3.02355e-05
2.28588e-05
1.8847e-05
1.37333e-05
2.53291e-05
2.81698e-05
3.89779e-05
2.41468e-05
3.83741e-05
3.98924e-05
2.49495e-05
1.49938e-05
4.75817e-06
3.85707e-05
3.9655e-05
1.12631e-05
1.15801e-05
7.40834e-06
3.2633e-05
2.82764e-05
3.22485e-05
2.98409e-05
3.1773e-08
9.42876e-06
1.23584e-05
1.24568e-05
1.20036e-05
1.23328e-05
1.14646e-05
1.13719e-05
1.14038e-05
1.16211e-05
1.15207e-05
1.1435e-05
1.14066e-05
1.01041e-05
1.02218e-05
1.23353e-05
1.15357e-05
1.05928e-05
1.08105e-05
1.09359e-05
1.07752e-05
1.08937e-05
1.10341e-05
1.13924e-05
1.14042e-05
1.14172e-05
1.14703e-05
1.14568e-05
1.13622e-05
1.1399e-05
1.13463e-05
1.12981e-05
1.13097e-05
1.12233e-05
1.12063e-05
1.13141e-05
1.12966e-05
1.12508e-05
1.12846e-05
1.13205e-05
1.11817e-05
1.12013e-05
1.11787e-05
1.11621e-05
1.1144e-05
1.11138e-05
1.11022e-05
1.10438e-05
1.10834e-05
1.10247e-05
1.11629e-05
1.10181e-05
1.18071e-05
1.17837e-05
1.17451e-05
1.15359e-05
1.15152e-05
1.16057e-05
1.16827e-05
1.16592e-05
1.22286e-05
7.58415e-06
8.35666e-06
1.11194e-05
1.15476e-05
1.14984e-05
1.14626e-05
1.14528e-05
1.13123e-05
1.12605e-05
1.187e-05
1.20698e-05
1.16413e-05
1.18327e-05
1.13265e-05
1.15765e-05
1.14768e-05
1.1249e-05
1.22225e-05
9.82512e-06
1.48366e-05
7.40991e-06
5.3648e-06
5.13676e-06
7.4637e-06
3.72634e-06
1.46175e-05
1.30107e-05
1.37638e-05
1.45707e-05
1.15449e-05
2.54272e-06
1.94521e-06
1.18251e-05
1.18166e-05
1.17792e-05
1.16777e-05
1.16122e-05
1.15029e-05
1.1451e-05
1.17025e-05
1.16264e-05
1.15531e-05
1.16666e-05
1.16564e-05
1.16528e-05
1.17008e-05
1.17355e-05
1.17988e-05
4.5045e-06
9.90662e-06
2.57347e-05