/*--------------------------------*- C++ -*----------------------------------*\
| =========                 |                                                 |
| \\      /  F ield         | OpenFOAM: The Open Source CFD Toolbox           |
|  \\    /   O peration     | Version:  v2012                                 |
|   \\  /    A nd           | Website:  www.openfoam.com                      |
|    \\/     M anipulation  |                                                 |
\*---------------------------------------------------------------------------*/
FoamFile
{
    version     2.0;
    format      ascii;
    class       volScalarField;
    location    "0.2";
    object      omega;
}
// * * * * * * * * * * * * * * * * * * * * * * * * * * * * * * * * * * * * * //

dimensions      [0 0 -1 0 0 0 0];


internalField   nonuniform List<scalar> 
13611
(
19.108
15.6598
77.5497
17.659
20.0277
22.7732
14.2099
29.4241
22.7495
20.8577
22.9838
15.9105
17.8745
82.6283
22.6354
21.1293
22.5714
22.4072
13.2071
17.6809
27.8665
22.7483
22.6496
22.4682
22.373
22.3962
13.5744
19.8292
76.1207
22.794
22.5343
22.429
22.2288
22.2428
21.9594
13.7646
18.1357
30.8434
22.7366
22.5283
22.2878
22.0746
22.0786
21.9996
12.5026
18.6704
87.6089
13.4835
22.6319
22.8094
22.4085
22.2819
21.9948
21.9333
21.8171
22.0038
15.3344
20.4875
34.2906
12.6563
22.6334
22.7369
22.3712
22.1828
22.8878
21.8792
22.0768
21.804
21.6586
21.7218
15.0106
20.6457
79.2526
11.8208
22.5597
22.7753
22.2792
22.4564
22.1844
21.9006
21.9994
21.6859
21.4726
21.5922
21.6131
18.0201
21.2524
40.9648
10.8275
22.6095
22.7668
22.2888
22.3811
22.1055
22.8662
21.8285
22.0083
21.7143
21.3745
21.4723
21.3475
17.7147
21.1738
25.4547
11.3401
22.7099
22.5253
22.1994
22.4137
22.1119
22.8603
22.9417
21.8603
21.9537
21.6446
21.2884
21.4577
21.1801
21.1826
19.8137
20.835
21.1042
84.9057
11.0402
9.84658
22.7508
22.5563
22.2193
22.3381
22.0115
22.9398
21.7782
21.6883
21.5431
21.3301
21.0205
20.9582
18.5284
20.7397
20.8888
34.325
8.21377
12.7125
22.7521
22.4958
22.6736
22.1802
22.3409
21.955
22.8589
23.0231
21.7794
21.6188
21.5285
21.2882
21.0692
20.8517
20.8158
20.7692
20.6836
20.7356
20.7716
85.4301
12.8875
10.6578
22.4159
22.5428
22.6931
22.1083
22.2529
21.8636
22.0173
22.8632
23.0282
21.6908
21.616
21.4773
21.1915
21.382
21.003
20.9027
15.7639
20.5666
20.4737
20.6536
20.5416
34.6336
8.0938
22.4117
22.6293
22.4799
22.7904
22.1182
22.2579
21.8694
21.9469
22.9513
23.1163
21.7025
21.5181
21.1659
21.332
21.0528
20.8225
15.8887
20.3952
20.3834
20.3934
20.5108
20.7261
12.337
85.9299
12.0993
22.3473
22.6602
22.5239
22.8214
22.0623
22.199
21.792
21.9704
22.9922
23.1727
21.6278
21.5273
21.2328
21.3795
21.0333
20.7915
18.4239
20.3991
20.1642
20.2866
20.5433
20.6644
8.22684
32.2988
13.2413
22.3047
22.6195
22.7559
22.492
22.9235
22.0905
22.2228
21.7844
21.9258
23.1039
21.628
21.4694
21.2123
21.3609
20.9619
21.127
20.8671
20.6829
16.9763
20.3767
20.0772
20.0545
20.1622
20.3529
20.4746
9.79393
11.2998
79.1315
22.3473
22.6596
22.7455
22.5579
22.4346
22.9732
22.1746
22.0467
21.7087
21.8553
21.9746
23.1216
21.5696
21.4997
21.2824
21.4267
20.9765
21.1196
20.8435
20.6294
18.3233
19.9285
19.8595
19.8208
19.952
20.1172
20.3042
20.5096
7.89162
12.0814
41.9497
22.2925
22.6364
22.8233
22.5284
22.4565
22.9271
23.0775
22.2088
22.0853
21.6936
21.8621
21.9337
23.2331
23.3139
21.6006
21.2666
21.4186
20.9072
21.0476
21.1907
20.781
20.6873
15.9212
20.0033
19.6423
19.8228
19.9944
20.1932
20.3744
20.4746
10.8854
25.9682
22.3199
22.7169
22.8073
22.5912
22.4069
22.9909
23.1356
22.1628
22.0441
21.7499
21.8247
21.9693
23.2289
23.4011
21.5977
21.3335
21.4852
20.9024
21.0415
21.1828
20.7708
20.6485
16.896
19.5328
19.4242
19.5812
19.7233
19.9231
20.1933
20.3015
20.5564
4.80787
84.2466
8.02917
22.276
22.6883
22.8794
22.5972
22.4456
23.0974
22.9637
23.1522
22.1957
22.0782
21.749
21.8618
21.9273
23.3005
23.3861
21.6856
21.5428
21.3134
21.4815
20.8287
20.9704
21.1093
21.2454
20.6914
16.6002
19.3241
19.601
19.4894
19.7787
19.9887
20.1186
20.3498
20.5323
10.2484
37.9585
3.99382
22.3131
22.7462
22.8874
22.5401
22.6853
22.3992
23.0923
23.0213
23.2497
22.1574
22.0396
21.8079
21.9603
23.4888
21.6721
21.5326
21.3796
21.4485
20.8286
20.9694
21.1098
21.2616
20.6837
18.8279
19.1248
19.3288
19.5234
19.219
19.5619
19.7105
19.9733
20.1498
20.3219
20.4649
20.6057
11.9873
11.0601
90.4429
7.88791
23.7255
23.1921
22.2933
22.8345
22.9715
22.5715
22.7162
22.434
23.1746
23.3189
22.2149
22.0879
21.8391
21.9248
23.6118
23.5035
21.5978
21.7323
21.3409
21.4869
20.7561
20.9005
21.0398
21.18
21.2421
17.0765
19.0171
19.2727
19.2676
18.976
19.5265
19.7829
20.0691
19.904
20.2457
20.3891
20.4672
20.6143
10.8144
36.9623
9.82381
22.9898
23.4305
22.5825
15.1301
76.8186
22.3597
22.8733
23.0259
22.6587
22.5135
22.8134
23.2868
23.2111
23.4516
22.1745
22.0547
21.8093
21.9736
23.6405
21.5666
21.7512
21.3542
21.4775
20.7739
20.9038
21.0427
21.1805
21.2926
18.4579
18.8549
19.115
19.3885
19.0828
18.7965
19.6175
19.7274
20.0782
19.9366
20.2388
20.3901
20.5391
20.6995
4.97917
80.6047
7.52363
16.5523
21.0058
22.4586
23.3967
22.351
14.5756
23.9931
22.3643
22.9664
23.1498
22.6984
22.5501
22.8301
23.4054
23.3429
23.5648
22.2163
22.09
21.8767
21.9503
23.7321
23.6786
21.5977
21.8402
21.736
21.4186
21.5359
20.8501
20.9805
21.1154
21.2396
21.292
18.7813
19.0813
19.3398
18.8786
18.6129
19.62
19.7852
20.0285
20.1696
19.8796
20.3131
20.4685
20.5435
20.7038
7.62043
43.1138
10.6972
17.8146
22.6778
22.1875
22.7917
22.5813
22.3966
22.8462
15.1097
76.2747
22.3057
22.4488
23.0233
23.2171
22.7848
22.6463
22.5154
22.9384
23.5433
23.4069
22.175
22.0862
22.013
23.9933
23.8683
23.8141
21.6758
21.8622
21.7977
21.419
21.5474
20.8849
20.9716
21.1106
21.2821
21.3606
18.6067
18.8721
19.0066
19.2196
19.4345
18.8128
18.5485
19.5626
19.7245
20.0748
20.1613
19.9238
20.3225
20.4788
20.6259
20.7933
1.63058
25.5185
16.5084
7.72458
18.5122
20.4753
21.9909
22.1616
22.7109
22.6856
22.2967
22.9005
14.5131
22.2723
22.3498
22.4689
23.159
23.0165
23.3412
22.8563
22.6958
22.5663
22.9522
23.7351
23.6111
22.2157
22.1552
21.9936
23.9429
23.9834
21.6833
21.9307
21.8183
21.483
21.6219
20.8754
21.0312
21.177
21.3555
21.2513
18.5707
18.8606
19.0649
19.17
19.3775
18.4107
18.2514
19.633
19.7725
20.0336
20.2366
19.8884
20.4083
20.5654
20.6348
20.7786
5.41828
81.8028
18.0971
10.5559
18.449
21.3629
21.8701
22.0004
21.9675
22.301
22.6167
22.4376
22.8005
13.3929
74.9078
22.2963
22.4305
22.5346
23.2206
23.1243
23.4735
22.8612
22.645
22.7997
23.0567
23.9678
23.7571
23.6481
22.1782
22.063
24.3472
24.2242
24.2501
21.7543
21.9552
21.9035
21.4879
21.6267
20.9604
21.0399
21.1828
21.4171
21.2981
18.4155
18.7273
18.9659
19.2455
19.4472
18.2084
18.2412
19.7489
19.5794
20.1037
20.2719
19.9677
20.4469
20.6032
20.7139
20.8525
2.11089
29.96
16.3359
7.63383
18.2677
15.9985
21.6322
22.0618
21.727
22.515
22.6846
22.3842
22.8702
22.7644
27.1874
22.3124
22.474
22.5759
23.36
23.1644
23.4889
22.9841
22.6541
22.8896
23.0858
24.2332
24.0377
23.8633
22.1391
22.2634
22.0255
24.5979
24.4949
21.7615
21.9404
21.5597
21.694
20.982
21.1202
21.2469
21.4156
21.3705
18.4049
18.7009
19.0218
19.1906
19.4632
18.0005
18.04
19.8425
19.6678
20.0753
20.2189
20.389
19.9473
20.547
20.7012
20.7543
20.8276
20.9291
6.94139
82.4888
17.5188
9.89884
18.0915
15.1911
21.7201
22.2644
21.9501
21.576
21.4573
18.9061
22.2496
22.5824
22.4756
22.8666
22.662
83.2283
14.3734
22.3988
22.4731
22.5668
23.4712
23.3601
23.7437
23.0052
22.7493
22.8631
23.2489
24.2708
24.5098
24.075
23.9141
22.1894
22.3127
22.0745
24.8249
24.7929
21.8424
21.9095
22.0312
21.5579
21.7315
21.0832
21.1473
21.2854
21.4918
21.4171
18.2878
18.5562
18.8343
18.9859
19.2822
19.4209
19.597
17.7947
18.0804
19.8738
19.7706
20.1542
20.2731
20.4412
20.0386
20.581
20.7117
20.8781
20.9558
2.48449
29.7923
15.2604
17.9921
7.13305
17.9925
17.8139
21.601
22.2176
21.9956
21.2807
21.4131
18.4827
22.2039
22.5577
22.3833
22.772
22.6652
28.5609
12.4101
22.3955
22.5928
22.6707
23.6849
23.3977
23.1597
22.7709
22.9704
23.3058
24.6511
24.7891
24.3965
24.1654
22.1595
22.2778
25.1822
25.1976
21.8519
21.9594
22.0651
21.6294
21.7007
21.8168
21.108
21.2347
21.3761
21.4873
18.3265
18.575
18.8269
19.1373
19.2769
19.4948
19.6124
17.7102
18.0241
19.8214
19.9885
19.8142
20.1308
20.2469
20.3828
20.5401
20.6722
20.8016
20.8727
21.0371
7.4746
81.62
16.5607
17.7771
9.83636
17.7182
17.6109
21.6719
22.1261
22.2794
21.93
21.2494
21.1036
21.5461
19.9094
13.2082
21.8829
21.5116
22.489
22.3841
22.9525
22.7739
22.6102
78.0439
22.5075
22.614
22.6926
23.8861
23.6208
23.2473
22.8792
23.1406
23.4768
24.6975
24.9115
25.1514
24.4291
24.3331
22.2236
22.3293
25.5768
25.5978
21.918
22.0327
22.171
21.6319
21.75
21.8446
21.2087
21.2787
21.4213
21.5611
18.4356
18.165
18.7061
18.9481
19.0696
19.4229
19.549
19.7128
17.5387
17.8501
19.8914
20.0517
19.814
20.2148
20.309
20.4046
20.6039
20.7367
20.8174
20.9537
21.0637
2.65315
30.1737
15.1993
17.7698
7.1264
17.609
17.4667
21.8321
22.0641
22.2176
21.971
21.2666
20.9103
21.5596
20.0609
11.7532
22.0372
21.1823
22.526
22.3598
22.8578
22.6708
28.1056
22.5139
22.7296
22.8396
23.8473
24.2248
23.6436
23.5049
22.9493
23.2678
23.6226
25.145
25.2812
25.5513
24.8243
24.7149
22.3216
22.2427
22.4454
26.0588
26.2558
21.9121
22.117
22.2076
21.6961
21.8193
21.2262
21.279
21.3836
21.5156
21.5675
18.3545
18.2237
18.6238
18.886
19.125
19.4315
19.7188
19.7974
17.4978
17.8587
19.9954
20.1844
19.9659
20.3254
20.2552
20.5087
20.7128
20.6181
20.9074
20.9774
21.0307
21.166
7.99114
82.7882
16.3374
17.5883
7.69102
17.3523
17.3256
21.7763
22.1074
22.2639
21.9029
21.1707
21.4526
21.0161
20.7964
21.6791
16.0534
21.394
13.0952
21.307
22.4327
22.8269
22.6456
77.7694
22.6539
22.8265
22.8609
24.1442
24.5143
23.8923
23.6431
23.1465
23.5065
23.8549
25.1605
25.6353
25.7291
26.0946
25.1208
22.4214
22.3765
22.5009
27.2503
26.6819
26.4721
26.8647
22.0035
22.1099
22.3252
21.718
21.8941
21.3175
21.3771
21.4395
21.5412
21.6484
18.7303
18.4659
18.0526
18.7021
19.1305
19.4216
19.8074
19.8232
19.9575
17.3533
17.6741
20.1026
20.2592
20.0952
20.443
20.4186
20.5366
20.5993
20.7994
20.7442
20.9589
21.0554
21.0947
21.2036
3.4023
28.5366
16.3576
17.5458
5.43871
12.2287
17.2136
17.2951
21.8103
22.0662
22.2375
21.9084
21.2249
21.4166
20.9596
20.6923
21.6341
15.0321
21.548
11.3808
20.8628
22.4498
22.9914
22.7281
22.8985
22.5659
39.3399
22.6018
22.7823
23.0179
23.049
24.1168
24.4586
24.961
23.9714
23.2841
23.6735
24.0453
25.6721
26.3818
26.5553
26.7343
25.7425
22.4637
22.419
28.1905
27.6266
27.6829
21.9998
22.228
22.4011
21.8204
21.9022
21.3691
21.3972
21.5142
21.6316
21.6862
20.1863
17.7699
17.9959
19.2021
20.4701
20.2125
20.9956
20.0678
20.2766
20.2164
17.2465
17.8066
20.2527
20.4296
20.2542
20.5068
20.5065
20.6541
20.6966
20.9133
20.7957
21.0918
21.1327
21.1714
21.309
6.08555
75.9051
17.2692
17.483
4.93178
12.2007
17.044
16.9973
21.7665
21.9853
22.1432
22.32
21.8181
21.3322
21.1462
21.4867
21.0368
20.8131
20.504
21.5624
21.687
17.0206
21.0533
20.5482
12.6534
20.687
22.4075
22.705
22.8684
22.5516
31.8779
22.6982
22.9495
23.1641
23.225
24.4388
24.7767
25.2743
24.0852
24.1359
23.5648
23.9504
24.3724
26.3235
25.9716
27.1315
27.2012
27.627
26.273
22.6124
22.5587
28.3622
28.1379
22.1044
22.2211
22.3641
22.5646
21.8626
22.019
21.4898
21.5053
21.5898
21.6862
21.7953
17.073
18.9885
17.8742
17.0326
17.8247
19.1764
20.1398
20.0434
21.1509
21.3483
21.2287
20.4832
17.0407
17.3608
17.4754
20.4261
20.5575
20.4739
20.6739
20.7009
20.7476
20.7634
21.0292
20.9186
21.2257
21.2398
21.2369
21.3305
3.85442
34.5436
17.0093
17.1425
7.99553
14.3962
16.9077
22.0009
22.1388
22.2928
21.8469
21.3306
21.1104
21.4091
20.9807
20.781
20.4959
21.5511
21.6294
15.2772
20.9575
21.1759
10.6051
20.3673
22.4668
23.0425
22.6149
22.7744
22.9398
76.6081
14.8591
22.8792
23.1376
23.3604
23.3925
24.7662
25.1629
26.0081
24.4545
24.4265
23.6753
24.2195
24.6063
27.0331
26.7965
27.9605
27.9553
28.0384
26.3696
27.0533
22.6677
22.6332
28.9697
28.9814
28.9277
22.1164
22.3503
22.5113
22.6939
21.9757
22.0513
21.5507
21.5489
21.6078
21.6517
21.7975
21.8683
13.4298
16.3228
16.797
17.3449
17.0532
15.455
17.2499
16.3164
19.7119
21.2085
21.3047
21.0797
17.028
17.2445
17.5027
16.863
20.7789
20.6788
20.8082
20.8803
20.925
20.9184
21.1944
21.0239
21.0107
21.3854
21.3709
21.4501
2.17939
17.8127
17.6911
16.9144
7.89589
14.5203
16.7898
21.9442
22.0837
22.2223
22.3529
21.7829
21.2598
21.0144
21.1677
21.3981
20.885
20.6701
20.3208
21.4869
21.6827
17.3017
20.6095
20.0182
8.26268
20.2151
22.4391
23.1343
22.5951
22.759
22.9328
91.9516
10.2898
22.9941
23.3571
23.6029
23.6063
25.2642
25.648
26.1565
24.7467
24.535
24.7136
23.9758
24.1971
25.0903
27.8657
27.2118
28.5924
28.4964
28.7412
27.2624
27.6167
22.8286
22.8454
29.2875
28.7865
22.2296
22.3536
22.4958
22.6793
22.8687
22.0575
22.2057
21.6966
21.5557
21.668
21.7238
21.8259
21.8935
22.0034
25.1245
18.0157
15.5107
21.3759
16.9143
19.5154
19.2814
20.5712
17.302
19.1283
18.643
21.3545
21.3129
16.8539
17.0629
16.8495
16.4704
21.1054
21.1749
21.0889
21.1547
20.963
21.1257
21.3435
21.1916
21.1665
21.5428
21.4093
21.4867
2.42412
78.3276
1.69307
17.1795
16.4403
16.6609
11.421
16.6436
21.9858
22.1182
22.1934
22.3228
21.8014
21.2728
20.9602
21.0917
21.3595
20.819
20.7061
20.3369
21.4998
21.6417
12.9012
20.1616
20.355
20.9598
20.119
22.5032
23.2619
23.1104
22.6662
22.8398
23.0207
46.366
9.44086
22.972
23.257
23.3932
23.6053
23.8717
23.8729
25.7504
25.3945
26.7674
25.2821
25.0213
25.1593
24.0828
24.5213
28.1016
27.9243
28.6522
28.8539
28.7799
27.349
28.0465
22.9299
28.1541
27.0821
28.2904
22.2878
22.5392
22.6576
22.8926
23.0564
22.1911
21.7541
21.7877
21.6905
21.8721
21.9287
22.0704
22.1366
42.1506
25.1546
42.4719
20.1336
46.9146
17.4912
37.7055
42.7105
34.0672
15.3251
17.8311
18.6596
21.4993
22.2024
16.8151
16.8383
16.9633
16.2665
16.4262
21.5697
22.0686
21.2581
21.2641
21.5294
21.258
21.3422
21.5642
21.4345
21.6984
21.6416
21.6078
21.6424
0.686577
24.2505
0.998487
16.911
16.7781
16.4692
11.612
16.5353
22.0764
21.9495
22.2394
22.3796
21.885
21.7581
21.2235
21.0007
20.8527
21.1167
21.4115
20.6277
20.5129
20.1824
21.5721
21.6909
13.1652
19.9531
19.9253
20.6017
17.7341
19.9795
22.4725
23.3095
23.1729
22.667
22.8427
23.0184
30.886
7.35983
23.1848
23.328
23.6753
23.8632
24.1661
26.4408
26.1829
26.936
25.7725
25.4511
25.2183
25.7002
24.3204
24.947
28.3629
28.0565
27.9522
27.6972
28.3852
28.0879
27.806
28.4303
23.136
25.5292
26.7843
22.4761
22.6665
22.8584
23.0846
23.2812
22.3137
21.9126
21.9494
21.7598
21.981
22.1166
22.1978
22.2955
71.7767
58.5352
67.1499
37.1201
48.2012
74.3938
69.723
53.1592
65.2712
43.6547
24.6255
15.3448
19.7175
30.428
21.5154
16.6377
16.4396
16.8101
15.6061
19.1747
22.3486
22.4569
21.7005
21.7567
21.9311
21.4571
21.5748
21.7632
21.6877
21.9262
21.9494
21.7185
5.78873
4.80996
77.4324
4.36419
16.9129
16.5148
14.6153
16.425
22.1107
22.0023
22.2005
22.3911
21.8624
21.7928
21.2747
20.9381
20.8013
21.1021
21.4201
20.6444
20.4767
20.1597
21.5785
21.6433
19.7292
20.2181
18.3874
19.9209
22.5399
23.2546
23.18
22.7693
22.6217
22.9379
23.1014
85.2484
13.4838
12.4593
23.5227
23.731
23.9001
24.1529
24.5356
26.6548
26.2536
27.5075
26.3116
26.1028
26.032
24.6387
25.3747
27.9684
28.326
28.4242
25.7405
25.1922
27.6758
26.9677
28.2352
28.0784
23.3143
26.2563
25.8276
25.1102
22.5412
22.785
22.9362
23.2876
23.5296
22.4844
22.0383
22.1064
21.979
22.1605
22.2447
22.4309
22.4204
98.6766
95.6854
48.2412
70.9837
86.331
108.227
103.567
122.662
80.8591
49.2239
26.0796
21.5305
47.4081
20.9948
16.6141
15.6475
16.5767
16.7317
18.2875
39.9066
22.7389
21.2716
22.0173
22.1207
22.7124
21.9312
21.8029
22.0905
22.0793
22.0941
22.1159
22.209
21.9377
1.72551
19.8411
6.23003
16.871
16.3012
15.1759
16.3072
22.0845
21.9837
22.2466
22.4812
22.3381
21.906
21.767
21.3627
21.2533
20.9498
20.8585
20.7251
21.1827
21.0235
21.513
20.5471
20.391
20.2835
20.0112
21.6832
19.7535
19.6358
20.1049
19.5824
23.4136
23.3075
22.7611
22.6763
22.9106
23.0962
42.9436
10.368
12.3262
23.6944
24.087
24.2392
24.5293
24.9681
27.2413
26.8689
27.6133
26.4983
26.8521
26.3813
26.0078
25.2279
25.9952
26.7588
24.5571
24.3109
24.3073
24.9446
24.1537
27.9748
27.6734
26.7446
23.6033
33.236
29.3995
24.9819
22.7602
22.9086
23.1836
23.5368
23.4613
23.8205
22.6163
22.2416
22.3552
22.0972
22.3268
22.4711
22.5893
22.5302
22.6095
95.5915
115.021
51.8581
69.8882
86.1487
92.7236
116.499
132.111
132.895
131.776
80.9215
128.948
62.8243
43.0652
21.3525
113.28
16.4682
15.0044
16.1691
16.6021
33.906
44.151
22.1384
20.6031
22.8737
22.9851
22.9083
22.4079
22.1276
22.3755
22.3687
22.3693
22.4249
22.5106
22.6762
4.35312
2.31877
72.7809
12.4273
16.279
16.6033
16.2111
16.1909
16.3139
22.1537
22.045
22.2297
22.5106
22.3612
21.8958
21.8207
21.3762
21.3065
20.864
20.8205
20.7387
21.1747
21.0245
21.5118
20.5302
20.3775
20.197
19.9854
21.6561
19.7357
19.4427
19.884
19.9749
23.5193
23.2881
22.8267
22.6588
22.9639
23.1972
23.0519
32.7435
8.83458
16.5428
24.0313
24.3322
24.56
24.9327
25.5248
27.5337
27.4727
27.8806
27.0064
27.2088
27.0101
26.4241
25.6414
25.5581
24.1813
26.0542
22.4422
23.7181
23.7159
23.4013
26.9545
27.8865
26.1402
26.0664
23.8752
36.9366
27.9471
22.78
22.9147
23.1736
23.4053
23.8907
23.8304
24.1185
22.4492
22.6424
22.3932
22.6049
22.7097
22.8892
22.7804
22.834
91.4995
97.2268
67.5799
72.0632
71.8175
66.6506
121.955
129.88
144.613
140.077
136.162
156.15
113.601
69.4674
23.2962
159.104
125.39
16.5744
12.6976
29.4347
16.6662
43.4374
58.5229
21.4172
22.0087
23.038
23.2602
22.5122
23.1635
22.8449
23.1302
22.988
22.5966
22.7103
22.8618
23.0747
4.27659
1.75371
18.3796
13.937
16.0655
16.5453
15.982
16.0969
16.1571
22.1243
22.0423
22.2898
22.5969
22.4392
21.9706
21.7895
21.4434
21.3128
20.869
20.6946
21.2412
21.1016
20.9614
21.584
20.4676
20.6149
20.3216
20.2147
20.0994
19.8788
21.7133
19.631
19.2426
19.49
20.0493
19.3358
23.5593
23.3977
22.8064
22.7346
22.9426
23.1939
23.1049
87.7414
13.9581
6.83628
16.185
24.3518
24.8387
24.9674
25.4634
25.9036
27.9298
27.5598
27.2171
27.5433
27.0871
27.0096
26.247
23.9404
23.857
23.9776
25.7568
26.1077
27.9152
32.6436
25.7614
26.9174
25.8717
24.0829
24.2517
76.3545
50.5825
23.0231
23.2373
23.3638
23.7083
24.1569
24.1685
24.5646
22.7606
23.0035
22.6434
22.865
23.0554
23.1487
23.0893
23.0488
23.0451
59.297
76.0422
68.2392
69.4284
66.236
59.6225
48.7552
97.3501
124.908
154.205
127.07
140.531
159.558
142.38
67.9141
35.0816
182.244
161.37
16.4552
15.3717
42.2245
26.5148
16.0349
58.6998
68.0023
22.0522
21.8712
22.5234
23.2224
22.3707
23.4889
23.2742
23.355
22.9802
23.2021
23.4534
23.6971
8.62811
0.747865
70.2423
2.25985
13.6767
16.3783
16.2361
15.8822
15.9623
16.1918
22.1724
22.1077
22.2902
22.6285
22.4425
21.9523
21.8307
21.4546
21.3911
20.8296
20.7481
21.2674
21.0845
20.9461
21.5861
20.5057
20.5862
20.3621
20.2099
20.0239
19.9117
21.7131
19.6941
19.2404
19.3828
19.8189
19.0364
23.6797
23.519
23.3757
22.8629
22.7105
23.0124
23.2737
23.103
45.7298
13.2928
9.96858
18.205
24.8029
25.1404
24.9763
25.4257
25.9185
26.4394
27.6297
27.5013
27.4998
27.4612
27.3099
27.1428
27.1103
26.5657
23.9932
25.6058
23.3584
35.2482
41.2055
35.9221
38.0613
50.5791
23.8493
26.9354
24.6624
24.6677
79.6836
106.985
23.2655
23.4456
23.653
24.0709
24.5468
24.6052
24.8548
23.0185
23.5477
23.0958
23.2657
23.3846
23.527
23.5537
23.4072
23.3859
46.0359
70.1906
68.2438
38.9491
32.048
24.8486
88.9191
148.52
159.168
110.6
165.321
167.249
182.644
135.378
52.1428
181.253
194.485
16.2194
16.3715
14.2545
50.285
32.882
57.8907
55.0365
33.7655
24.7783
22.3838
22.3292
23.1787
22.6837
23.8407
23.9228
23.9573
23.3877
23.6392
23.8849
24.0391
8.54467
4.55242
27.9941
1.00751
15.1586
16.2416
16.1965
15.6551
15.8882
15.9831
22.2441
22.12
22.3742
22.6013
22.5237
21.8977
22.0164
21.7757
21.5267
21.4195
20.8723
20.7214
21.3614
21.2262
21.0004
21.1482
21.6546
20.4497
20.6392
20.2974
20.1277
20.0225
19.8219
19.5922
19.1231
19.4464
19.1599
19.7864
18.9865
23.783
23.6421
23.4704
22.8499
22.7637
23.0179
23.2949
23.2051
40.1069
7.69681
8.46418
17.8239
25.1819
25.533
25.5465
25.7439
26.4042
26.7113
27.2309
26.8779
27.201
27.1799
27.3603
27.2703
27.1573
27.0299
28.2305
35.2412
23.1851
46.9706
65.1149
68.2347
46.5123
95.1993
23.4568
25.634
24.5501
23.4769
25.1436
135.035
170.581
23.5665
23.7414
23.9228
24.3512
24.7318
25.0396
25.351
23.4612
23.5412
23.8757
23.6232
23.7988
23.8674
23.8374
23.7523
23.6357
17.3955
25.4076
45.7033
30.4372
25.0209
18.1478
13.3796
64.8183
135.465
106.132
165.75
71.25
172.976
224.063
151.52
108.766
182.078
193.913
202.451
16.1188
16.3249
13.7433
50.535
57.6776
32.7129
46.7822
55.0872
42.4401
67.5393
34.5594
22.866
22.5995
23.007
23.6925
23.9665
23.9804
24.2396
24.4492
24.4239
11.6514
3.70572
21.3279
1.12327
15.0217
16.2901
15.931
15.6969
15.5989
16.2589
22.2925
22.2181
22.0836
22.3747
22.6674
22.5105
21.9181
21.9808
21.7889
21.5386
21.4967
20.8504
20.7789
21.3675
21.2662
21.0002
21.1438
21.6632
20.4897
20.6455
20.3362
20.1436
19.9455
19.8203
19.5917
19.1911
19.3422
18.8295
19.35
18.8434
23.7754
23.594
23.4003
22.9261
22.7513
23.1412
23.2367
99.0536
16.9678
7.449
12.2062
18.6913
25.5917
25.9171
25.9211
26.255
26.4874
27.0266
25.9988
25.6362
26.6344
26.3906
27.09
26.3564
26.9002
27.0842
36.3628
29.3271
29.6539
81.0676
100.526
96.27
71.7744
139.981
24.6737
26.2132
23.6131
24.2111
25.6382
206.198
228.836
223.401
23.9272
24.0333
24.226
24.8973
25.3848
25.5017
25.1498
25.5918
25.6525
24.1135
24.4407
24.1689
24.2359
24.3417
24.1813
24.1973
23.889
16.3316
18.7116
22.0909
18.1527
17.0183
15.5625
15.0935
28.3767
98.1939
45.3836
165.87
27.9971
219.072
219.942
127.141
188.432
198.359
181.532
13.6436
16.3933
23.7215
52.8077
53.5367
43.4596
50.3534
42.6482
28.0506
75.2011
41.8983
26.8055
22.9027
23.2068
34.4051
28.594
23.8567
24.344
24.4898
24.3201
23.6759
11.9839
7.78193
69.0076
5.5452
0.343995
16.1039
16.2043
16.0059
15.8023
15.4263
16.2182
22.2848
22.2139
22.142
22.4388
22.6428
22.5637
21.8632
22.0312
21.732
21.6106
21.5443
20.9159
20.7277
21.331
21.4491
21.206
21.0769
20.5899
20.4419
20.3127
20.2397
20.0638
19.9728
19.7971
19.5054
19.7126
19.0769
19.3652
18.6962
19.2416
18.9078
23.9102
23.735
23.4658
22.9321
22.8348
23.1336
23.3695
52.7554
25.2397
6.14416
10.3264
19.2113
25.991
26.3886
26.2854
26.8239
26.9855
25.1058
24.7039
25.5226
25.0816
26.4926
25.4982
26.2917
27.0529
64.4552
50.1664
45.4885
95.754
106.171
149.681
154.888
100.353
194.293
30.9137
36.1751
24.1026
31.0667
26.0692
269.75
307.834
304.567
24.1582
24.5683
24.6569
25.0478
25.8
25.699
25.8651
25.9458
24.7595
24.5986
24.7972
24.3762
24.8012
24.5084
24.874
24.5048
24.2844
19.1197
18.4412
19.2242
16.8698
15.1017
14.5899
15.5826
18.9575
15.5029
85.9778
46.1433
29.0149
159.088
190.49
220.117
201.733
163.829
204.105
163.422
194.195
13.1445
13.8587
25.9005
51.2645
45.3067
44.4307
52.6619
28.0226
16.2007
25.6323
124.076
68.9658
22.8304
28.1676
63.1146
45.5419
24.7427
24.6953
24.0385
22.7128
14.7726
7.06942
82.7601
3.44806
1.34736
15.89
15.7344
15.2617
15.4287
15.997
22.3678
22.2805
22.1154
22.4417
22.7093
22.5793
21.8748
22.0078
21.7433
21.6147
21.5128
20.9071
20.7657
21.3861
21.4521
21.2084
21.066
20.6181
20.482
20.3957
20.2623
20.0914
19.8891
19.5443
19.7263
19.0939
19.3062
18.5783
19.142
18.7768
24.1283
24.0417
23.9488
23.6359
23.032
22.8605
23.2452
23.4456
95.3217
10.5902
6.10721
12.0597
16.9952
19.3177
26.3287
26.6588
26.6659
26.8435
26.9935
26.8484
23.4174
23.3107
24.1714
24.1465
25.854
24.4734
25.8238
25.6636
26.7213
67.701
96.4772
65.4573
148.269
156.15
210.285
219.021
149.134
256.995
231.54
38.0105
55.1015
28.461
35.2046
26.4465
386.898
389.915
24.6452
24.9625
25.4969
26.1769
25.9347
25.8192
26.1912
26.3668
24.7567
24.8534
25.1162
25.2081
24.827
25.0419
25.154
25.407
25.0868
24.7867
18.9387
18.9151
18.8374
18.9278
17.0079
17.0216
17.8689
19.1323
19.4526
17.8906
29.0056
111.788
11.0295
18.9338
200.81
210.131
202.398
129.215
212.859
118.527
137.036
216.326
19.5088
13.5771
36.7806
40.3963
33.2686
47.2966
47.7655
20.4538
13.8167
16.5204
125.297
87.0614
22.1196
43.2295
26.2843
80.65
64.3413
24.6179
23.9542
23.0869
23.455
14.882
10.9033
39.5743
0.530064
4.24958
15.5077
15.843
16.0267
15.2824
15.7568
13.84
22.365
22.2922
22.1662
22.5133
22.6576
22.8017
21.9476
21.8149
22.0672
21.6799
21.5637
20.8528
20.9945
20.7054
21.3653
21.5075
21.1291
21.2887
20.5722
20.4665
20.3474
20.1931
20.0168
19.9105
19.5043
19.6611
19.834
18.982
19.2225
19.4031
18.6324
18.3785
18.5817
18.8069
24.4245
24.3509
24.2062
23.7503
23.0602
22.987
23.3869
23.1739
23.642
46.5991
4.67936
9.44957
17.6933
18.9219
26.6224
26.7121
26.7608
26.8271
26.823
26.6262
23.8128
23.8103
24.1239
23.0822
24.6212
23.8796
24.2411
24.8069
24.8193
25.9497
102.848
147.37
106.881
175.725
205.905
287.683
300.408
197.9
324.31
312.408
57.6569
73.7777
31.8686
57.2302
26.4933
26.6638
438.658
398.952
479.231
24.9749
25.4871
25.6057
26.1735
26.2641
26.1796
26.4878
24.6736
25.1144
25.2009
25.1667
25.025
25.4743
25.2905
25.4109
25.6056
25.4195
25.1836
19.609
18.6617
19.5183
20.3531
17.2519
18.4564
18.9595
18.401
18.7509
17.8645
85.864
17.3956
19.1483
219.572
214.589
264.833
179.725
50.015
70.8961
219.553
22.0168
17.8024
39.2448
40.2392
32.8984
19.8131
45.0385
48.1792
14.5719
16.7603
184.213
162.467
58.0705
37.5969
146.597
116.899
24.4228
23.3311
23.1738
27.202
15.611
10.2987
16.7711
3.22826
2.86287
15.4354
15.6339
16.1426
15.6677
15.1407
13.1142
22.438
22.4043
22.2504
22.1375
22.5558
22.7214
22.8518
21.9667
21.8448
22.0329
21.7107
21.636
20.8881
20.9732
20.7167
21.4563
21.3516
21.543
21.1384
21.2976
20.605
20.5328
20.3946
20.2243
20.0495
19.5791
19.697
19.8685
18.9998
19.2868
19.4042
18.4902
18.3331
18.3762
18.757
24.72
24.5922
24.1955
24.5476
24.0081
23.0185
23.5723
23.2311
23.8466
26.6052
8.67384
12.9684
18.5714
18.8906
26.8103
26.756
26.7691
26.6658
25.964
26.6933
26.0885
24.3396
24.9792
24.1929
23.6089
23.6243
23.5732
25.3563
124.842
144.875
198.788
128.532
232.536
262.011
355.883
390.134
263.598
391.539
75.0303
77.9238
111.277
48.3597
62.1263
77.3895
26.557
26.6486
596.747
487.38
602.307
25.4589
25.7979
26.0362
26.3472
26.5022
26.3575
26.2294
26.5905
24.3926
24.6375
25.2295
25.5515
24.6182
25.5668
25.5952
25.6799
25.6478
25.4627
25.6921
25.5263
18.9559
18.4855
19.7119
19.8287
20.2728
17.6651
17.9835
17.8361
18.2281
20.8181
19.3148
33.259
20.4737
21.1474
225.699
229.564
225.526
245.077
166.325
27.1076
43.5988
54.8087
208.331
33.4582
18.2899
30.9631
23.0072
16.4377
45.1817
40.1142
15.3546
17.1822
204.736
94.7097
44.0714
166.156
194.663
144.149
23.8407
24.9121
31.533
15.777
13.3969
74.3075
0.893187
6.4497
15.2617
15.7333
14.2748
15.4103
15.0597
14.8757
22.5227
22.4629
22.3924
22.307
22.199
22.671
22.8204
22.9593
21.9244
21.8026
22.0891
21.6856
21.6765
20.8667
21.0284
20.6708
20.7996
21.416
21.5163
21.6374
21.239
21.1092
21.3694
20.5561
20.4079
20.5065
20.3352
20.1518
19.9764
19.6616
19.4937
19.8042
18.8846
19.1301
19.2591
18.4365
18.1579
18.1544
18.6887
25.0222
25.4854
24.9462
24.5678
24.8994
24.1698
23.1334
23.5708
23.8086
23.4158
24.1191
82.0612
4.82806
12.9912
18.7051
18.3815
26.7464
26.5125
26.6681
26.0694
25.4842
30.4091
33.9406
30.591
23.1647
26.2973
25.2799
23.8544
23.1866
23.3151
23.5732
171.466
187.996
261.16
183.375
278.787
329.082
463.259
483.943
329.21
489.988
111.68
111.808
132.48
54.5878
91.2933
112.574
26.5162
26.5374
26.4797
649.74
662.525
614.658
727.611
25.8195
26.0891
26.4571
26.419
26.5059
26.1579
26.217
24.174
23.8821
24.7673
25.2861
24.3865
23.9753
25.0617
25.7006
25.6914
25.1377
25.8912
25.9986
25.8727
18.6547
18.5112
18.98
19.12
19.4738
17.739
17.4332
17.5438
17.7982
18.185
20.7193
20.2159
21.0633
202.716
204.069
239.918
276.51
126.192
16.0481
17.0689
70.8553
22.5698
36.366
27.8035
30.8967
22.095
15.1961
14.8086
42.4272
43.7558
40.1237
17.2528
17.3961
267.995
116.779
74.0908
249.05
274.307
221.037
24.2735
29.3421
45.2532
12.6177
17.7546
1.83909
3.68123
6.26147
15.107
15.653
13.9079
15.4121
14.2734
14.9579
15.4251
22.5834
22.5415
22.4575
22.2848
22.1755
22.7059
22.9053
23
21.9634
21.8372
22.0486
21.7541
21.7403
20.9417
21.0174
20.7079
20.7866
21.4306
21.562
21.6407
21.2302
21.1584
21.392
20.6598
20.498
20.5482
20.3498
20.17
20.0026
19.7306
19.5205
19.8288
18.9026
19.1402
19.3885
18.5532
18.2815
18.1365
17.9424
18.7902
25.4037
25.3305
24.4953
24.8936
25.2893
23.1831
23.8051
24.0843
23.4847
24.3539
32.6714
8.69363
10.4067
16.4215
18.6472
18.2672
26.025
26.1846
25.5744
23.7485
45.8895
45.9005
45.8909
36.2271
35.0957
29.8649
27.4062
25.2393
23.2801
208.096
243.113
270.973
326.197
202.738
219.231
365.314
391.461
520.903
510.995
600.138
409.323
603.63
150.457
171.763
75.7242
116.958
96.3822
148.952
25.961
26.0313
25.7556
719.82
683.306
734.691
26.04
26.1587
25.9332
26.1894
26.1728
25.8751
26.0855
26.1488
24.3908
23.7517
24.3509
24.971
23.5928
23.2872
24.8385
25.8541
25.6619
24.641
25.9649
25.9282
25.826
26.0556
18.6764
18.4536
18.8659
19.2685
19.6266
17.2764
17.0237
17.7066
17.3252
18.055
18.3078
19.878
21.4368
19.7561
21.211
176.327
217.939
229.844
254.982
125.339
18.0811
18.3629
28.6958
18.2976
35.9677
29.5262
24.2312
16.464
14.6078
15.8078
42.6831
44.3338
30.6682
17.0922
16.9552
290.782
190.846
84.0742
281.224
260.706
239.051
26.3495
32.192
48.8742
14.6152
72.0088
1.30543
3.4833
11.3307
15.2642
15.4099
13.7623
15.2623
13.7967
14.8862
23.362
22.666
22.5973
22.4437
22.5703
22.3615
22.2381
22.8235
22.915
23.0982
21.9205
21.8171
22.1118
21.8014
20.9088
21.0933
20.7159
20.8371
21.5132
21.5774
21.6995
21.2818
21.1625
21.3539
21.4733
20.6963
20.5422
20.6381
20.2838
20.4575
20.167
20.1043
19.9206
19.751
19.6781
19.5175
19.0187
19.2751
19.3998
17.9626
17.8211
25.9055
26.458
25.8191
24.6038
25.2587
25.581
23.3651
23.8587
24.0512
24.3653
23.71
81.3075
10.3383
5.02386
15.135
18.552
17.7754
25.1513
25.6422
23.8593
23.3917
61.3359
44.9849
63.5908
41.9921
36.4783
32.637
31.9477
29.0584
25.9393
24.511
273.976
286.153
346.44
399.695
274.942
293.965
422.13
485.939
625.835
623.128
665.961
477.797
201.203
211.242
92.4211
164.298
135.651
189.342
25.4298
25.4364
25.5339
25.0636
714.046
726.289
777.049
26.1791
25.3577
25.3951
25.8819
24.9971
25.3592
25.6195
25.7646
26.3394
24.5273
23.8643
24.0547
24.7111
26.3999
24.3868
25.1197
24.6288
24.3553
25.9108
25.4709
25.497
25.9811
19.5555
17.0733
16.7342
17.7754
17.4238