/*--------------------------------*- C++ -*----------------------------------*\
| =========                 |                                                 |
| \\      /  F ield         | OpenFOAM: The Open Source CFD Toolbox           |
|  \\    /   O peration     | Version:  v2012                                 |
|   \\  /    A nd           | Website:  www.openfoam.com                      |
|    \\/     M anipulation  |                                                 |
\*---------------------------------------------------------------------------*/
FoamFile
{
    version     2.0;
    format      ascii;
    class       volScalarField;
    location    "0.2";
    object      p_rgh;
}
// * * * * * * * * * * * * * * * * * * * * * * * * * * * * * * * * * * * * * //

dimensions      [1 -1 -2 0 0 0 0];


internalField   nonuniform List<scalar> 
13611
(
99298.3
99857.9
98953.3
99780
99670.9
99554.6
99953.2
99497.8
99285.9
99612.3
99505.7
100203
99659.8
99513.4
99328.7
99666.2
99447.5
99640.5
100023
99695.9
99814.1
99169.5
99237.7
99378.4
99475.6
99661.9
99799.9
99797.5
99746.1
99073.3
99222
99314.6
99411.9
99572.6
99758.6
99967.4
99864.8
99909.2
99046.9
99172.3
99339.7
99463.2
99566.2
99735.3
100094
99902.2
99934.5
100189
99092.7
98962.8
99193.2
99297.5
99443.2
99617.6
99679.4
99824.2
99956.2
99875.5
99907.3
100198
99010.6
98933.3
99150.2
99332.6
98779.8
99508.1
99397.9
99577.7
99698.1
99825.4
99939.1
99988
99594.9
100053
99008.2
98855
99210.6
99088.4
99282.1
99477.3
99399.2
99603.6
99763.3
99667.2
99894.4
100019
99962.3
99998.6
100242
98928.6
98819
99165
99076.8
99299.3
98700.9
99501
99363.3
99569
99774.4
99700.3
99897.9
100043
100022
99794.6
100045
98850.3
98926.1
99203.5
99029.3
99275
98663.7
98582.3
99468.3
99393.5
99594.1
99814.7
99699.3
99871.2
99968.9
100078
100064
100035
99351.4
100086
100066
98731.4
98866
99159.9
99066.6
99320.7
98539.7
99493.6
99555.9
99655.1
99767.7
99893.8
99969.9
100164
100145
100086
99815.4
100260
100155
98708.3
98899.7
98773.9
99190.6
99032.8
99332.5
98601.4
98440.5
99477.1
99593
99662.7
99785.7
99889.9
100015
100192
100207
100164
100063
100137
99782.5
100432
100211
98978.1
98843.2
98708.2
99252
99089.5
99419.1
99303.9
98552.4
98390.1
99526.2
99585.3
99698.6
99849.7
99751.6
99961
100023
100220
100281
100248
100103
100184
100142
100295
98971.8
98756.1
98888.2
98614.5
99216.6
99075.4
99417.1
99338.4
98446.3
98277.3
99522.3
99644
99867.1
99775.1
99937.9
100058
100238
100344
100305
100257
100165
100094
100484
99978.4
100171
99020.7
98709.9
98848.9
98569
99249.6
99148.3
99465.8
99317.9
98397.4
98219.4
99585.4
99649.5
99840
99744.9
99972.5
100074
100331
100396
100357
100310
100202
100149
100413
100133
100293
99024.7
98766.2
98627.7
98876.1
98470
99229.9
99117.2
99478.5
99363.9
98276.5
99584.8
99699.6
99871.2
99779.9
100027
99930.4
100061
100154
100373
100443
100409
100378
100367
100300
100254
100470
100325
99740.6
99003.1
98708.6
98606
98817.2
98944.2
98417.7
99165.7
99273
99538.1
99431
99334.8
98238.5
99647.3
99695.1
99840.8
99736.1
100037
99956.2
100120
100203
100437
100462
100506
100466
100454
100417
100353
100256
100471
100405
100203
99057.8
98741.5
98558.7
98841.5
98924.7
98459.1
98318
99141.6
99251.9
99550.7
99434.3
99369.8
98169.4
98084.1
99627.9
99868.5
99757.2
100090
100012
99928.3
100174
100202
100463
100543
100561
100495
100479
100408
100362
100315
100589
100138
99037.5
98686.4
98599.2
98804.2
98970.9
98406.2
98265
99187
99296.3
99528.8
99475.9
99360.9
98163.5
97993.4
99663
99839.8
99735.2
100120
100039
99958.9
100195
100259
100489
100594
100567
100596
100556
100537
100469
100416
100313
100438
99813.2
100526
99101.5
98715
98543.1
98842.3
98965.8
98352.3
98462.5
98286.4
99171.6
99282.8
99568.1
99464.8
99409
98112.3
98012.9
99626.5
99712
99864.6
99771.5
100175
100098
100017
99925.2
100249
100505
100660
100621
100660
100589
100550
100527
100431
100359
100457
100263
100672
99087
98689.5
98567.6
98909.5
98754.5
99024.9
98330.7
98421.6
98162.8
99222.1
99332.1
99511.1
99398.2
97946.6
99645.4
99706.3
99860.9
99817.6
100211
100129
100051
99945.8
100290
100586
100692
100695
100622
100669
100693
100660
100621
100552
100501
100410
100342
100564
100787
100282
100536
99523
99459.9
99142.9
98634
98472.3
98902.9
98762.3
99024.4
98284.2
98141.2
99211.4
99322.9
99512.7
99450
97818.7
97981.5
99708.7
99614.5
99896.4
99808.5
100270
100187
100109
100039
99997
100618
100772
100764
100694
100727
100766
100690
100607
100675
100548
100500
100446
100380
100704
100509
100554
99591.3
99519
99291.4
100011
99327.1
99102.9
98627.8
98468
98843.2
98966.3
98697.8
98201
98325.4
98063.7
99257.4
99380.9
99559.5
99442.2
97914.2
99751
99644.1
99908.2
99853.9
100309
100218
100145
100078
99972.7
100675
100813
100796
100803
100726
100785
100787
100754
100646
100716
100597
100544
100436
100366
100548
100324
100525
100673
99618.2
99428.2
99626.3
99340.6
99913.1
99557.2
99134.4
98543.6
98408
98850.3
98972.1
98704.1
98164.3
98234.6
98027.6
99254
99371.1
99547.6
99494
97829.1
97931.7
99758.2
99591.5
99696
99898.9
99826.1
100280
100200
100131
100055
100001
100868
100857
100867
100773
100817
100855
100787
100698
100647
100768
100595
100539
100481
100404
100683
100565
100666
100714
99620.7
99426.3
99629.4
99182.8
99274.4
99038.3
100098
99417.6
99208.5
99093.9
98532.9
98405.8
98785.1
98914.7
99033.3
98667.1
98079.8
98242.5
99316
99426.6
99485.7
97671.4
97763.4
97878
99741.6
99602.2
99669
99935.9
99859.5
100300
100240
100171
100085
99988.5
100889
100898
100894
100890
100904
100768
100814
100903
100845
100741
100696
100812
100645
100585
100468
100404
100648
100437
100719
100663
100740
99624.2
99506.3
99360.9
99695.9
99113.4
99279.3
98950.4
99889.6
99645.3
99223.8
99125.4
98475.6
98604.7
98334.8
98777.8
98920.3
99014.9
98697
98055.8
98203.3
99324.5
99395.7
99523.2
97796.7
97893.9
99777.9
99577.8
99701.4
99918
99842.1
100355
100239
100164
100029
100129
100952
100972
100953
100949
100973
100852
100875
100970
100886
100792
100701
100869
100640
100575
100515
100449
100645
100270
100756
100706
100803
99749.2
99490.7
99386
99643.2
99802.8
99124
99208.8
98958.3
99979.4
99450.8
99285.2
99180.8
99073.2
98483.7
98567.2
98337.3
98818.7
98984.9
98880.2
98669
97966.8
98120.1
98243
99421.6
99517.6
97668.5
97750.7
97780.1
99756.3
99615.9
99673.5
99956.8
99886.2
100348
100290
100221
100016
100136
100962
100996
100997
101001
101017
100883
100930
100949
101021
100828
100753
100913
100692
100621
100506
100459
100723
100513
100758
100689
100862
99897.1
99546.1
99358
99682.5
99849.8
99045
99215.4
98754.5
98873.5
99740.5
99303.4
99186.8
99077
98450.5
98603.7
98388.9
98790.4
98999
98904.8
98716.4
97938.5
98075.9
98221.4
99479.4
99375.7
99573.8
97585.2
97760.8
99792.5
99699.8
99947.9
99863.4
100395
100278
100193
100056
100112
101027
101048
101056
101060
101079
100932
100962
100983
101052
100894
100809
100750
100967
100681
100609
100560
100528
100449
100800
100518
100803
100731
100870
100000
99515.6
99283.3
99419.4
99754.7
99635.2
99859.3
99831.9
99052.1
99131.3
98695.4
98894.6
99707.5
100163
99286.2
99234.8
99130.6
98497.9
98578.6
98369.6
98835.5
98990.7
98955.8
98692.7
98001.2
97840.6
98135.3
98291.8
99489.1
99392
99596.7
97593.5
97677.9
99777.4
99750.5
99656.7
99991.1
99903.3
100380
100321
100225
100046
100146
101053
101065
101094
101104
101111
101116
101105
100953
101019
101048
101064
100934
100854
100814
101010
100725
100647
100550
100488
100793
100680
100787
100826
100725
100844
100915
99560
99260.2
99381.3
99787.7
99663.9
99898.7
99910.6
98974.3
99119.3
98727.2
98826.1
99983.1
100203
99330.1
99216.4
99121.1
98434.4
98614.3
98823.7
99055.6
98961.1
98748.7
97979.1
97819
98120.2
98267.5
99551.5
99443.7
97498.5
97667.6
99823.6
99761.1
99671.6
99984.6
99952
99873.6
100422
100289
100197
100099
101111
101125
101156
101176
101176
101177
101155
101008
101054
101077
101059
101160
100995
100914
100870
100791
100707
100655
100609
100487
100849
100694
100817
100852
100779
100903
100938
99535.8
99312
99184
99422.6
99729.6
99849
99602.5
99998
99980.1
99973.3
99905.9
98974.5
99045.4
98559.1
98683.6
98847.1
99824.9
99330.8
99262.9
99160.9
98454.9
98598.1
98870.8
99035.4
98936.2
98729
98034.4
97892.4
97740.4
98188.3
98322.4
99560
99449.8
97496.2
97575.9
99810.2
99733.3
99658.8
100043
99971.3
99893.3
100417
100314
100224
100101
101152
101127
101173
101199
101222
101242
101234
101189
101008
101044
101124
101102
101199
101038
100958
100914
100827
100765
100720
100617
100541
100795
100733
100830
100882
100759
100914
100977
99488.4
99291.5
99162.9
99351.3
99742.7
99867.1
99611.1
100090
100177
100032
99961.8
98913.3
99035.2
98592.4
98756.1
99925.2
99379.7
99250.1
99148.9
98538.4
98395.7
98664.6
98843.1
99083.5
98974.9
98778.6
98018.3
97844.4
97738.9
98178.7
98258
99512.4
99611.7
99426.2
97415.4
97555.9
99842
99760.5
99700.7
100027
99944.6
100466
100374
100285
100202
100147
101226
101159
101218
101242
101268
101304
101281
101253
101049
101084
101145
101126
101239
101018
101098
100937
100811
100884
100733
100684
100599
100525
100815
100770
100841
100868
100801
100939
100984
99484.7
99227.4
99091
99365.3
99803.8
99685.4
99851.7
99950
99549.5
100125
100104
100238
100035
98930.1
98565.9
98747.6
99615.7
99376.4
99300
99189.2
98541.2
98410.4
98657.8
98877.8
99056.7
98946.7
98726.2
98101.9
97951.4
97876.8
97683.9
98279.9
99512.2
99596
99460.2
97311.8
97406.2
97610.9
97464.6
99850.1
99809.9
99693.7
100066
99960.7
100471
100375
100319
100234
100128
101222
101200
101153
101251
101301
101319
101348
101344
101287
101041
101082
101208
101187
101253
101056
101137
101016
100923
100845
100902
100795
100686
100631
100568
100775
100732
100856
100895
100795
100835
100961
100920
99439.3
99219
99072.2
99337.4
99815.6
99691.5
99911.7
100005
99549.4
100150
100162
100273
100095
98891.8
98409.3
98644.3
98482.6
98812.1
100054
99435.6
99354.5
99256.2
99188.8
98612
98486.8
98362
98859.8
99093
98992
98737.8
98096.6
97954.3
97804.4
97716.3
98232
99547.3
99634.5
97288.4
97577.6
97435
99908.5
99820.6
99740.6
100055
100011
100535
100415
100296
100218
100169
101313
101302
101183
101347
101363
101421
101427
101368
101397
101357
101056
101104
101224
101220
101317
101116
101197
101048
100985
100848
100948
100794
100739
100617
100578
100805
100622
100868
100891
100812
100854
100988
100939
99449.1
99275.8
99135.8
99008.1
99371.9
99762.3
99862.5
99659.9
99903.6
99985.1
100067
99606.6
99502.3
100160
100174
100196
100367
100155
98936.1
98625.8
98465.8
98779.4
99967.1
99469.9
99377.6
99280
99157
98627.4
98503.2
98385.1
98901.2
98802.5
99059
98962.7
98691.3
98026.6
98164.8
97894.6
97814.8
97632
98253.3
99533.8
99626.2
97348.4
97497.2
99916.7
99878
99794.7
99713.9
100105
100012
100532
100418
100317
100259
100159
101414
101394
101254
101273
101150
101346
101435
101478
101446
101425
101449
101367
101016
101076
101114
101291
101280
101332
101159
101237
101039
101114
100910
100976
100846
100720
100660
100622
100817
100757
100875
100924
100826
100856
100968
99244.4
99121.8
99001
99354
99764.8
99877.5
99692.1
99965.7
100034
100122
99584.7
99504.1
100172
100257
100246
100189
100215
98848.2
98265.3
98705.6
98541.3
98368.3
99733.9
100423
99444.3
99342.3
99243.8
99179.3
98573.9
98456.3
98359.5
98891.7
98776.1
99086.5
99004.4
98704.9
98031.3
98112.4
97913
97743.5
97644.1
98316.4
98213.2
99570.2
99669
97183.1
97338.8
97433.6
99970.7
99895.9
99816.3
99746.6
100093
100055
100572
100482
100404
100361
100251
100201
101601
101508
101326
101253
101181
101202
101396
101558
101499
101477
101463
101425
101016
101055
101093
101155
101326
101384
101216
101301
101095
101143
100912
100968
101057
100838
100749
100643
100858
100671
100903
100931
100837
100863
100978
99279.8
99179.2
99065.2
98938.5
99404.1
99807.7
99947.5
99862.5
99678.4
100019
100095
100184
99625.3
99477.4
100267
100303
100280
100302
100274
98855.5
98187.2
98701.9
98531.8
98361.8
100025
100728
99474.2
99365.7
99266.2
99146.2
98586.5
98478.5
98403.8
98854.3
98949.4
98804.3
99075.4
99053
98691.2
97990.1
98143.2
97834.1
97759.4
97613.6
98321.6
98248.5
99564.3
99666.3
97273.1
97462.7
99975.9
99947.2
99866.8
99795.4
99704.8
100139
100063
100572
100619
100484
100429
100343
100291
100190
101424
101624
101291
101635
101120
101274
101565
101630
101589
101558
101594
101473
101427
101008
101075
101157
101185
101393
101416
101264
101338
101141
101228
100966
101020
101079
100897
100799
100706
100809
100647
100772
100912
100884
100949
100848
100963
99253
99142.7
99067.1
98950.7
99383.2
99792.1
99990.2
99911.9
99729.6
100065
100130
100234
99623.2
99519.5
100279
100301
100345
100330
100305
98783.6
98007.3
98184.6
98615.4
98448.8
98279.8
100756
100190
99532.3
99459.5
99421.7
99321.6
99229.3
99181
98534.8
98642.4
98405.1
98859.3
98959.1
98741.3
99130.3
99060.1
98014.8
98106.4
97819
97667
97545.8
98364.8
98210.3
99623
97296.8
97190.4
97372.1
100027
99970.4
99884.5
99825.9
99720.9
100108
100530
100613
100653
100430
100380
100283
100229
101690
101445
101387
101043
101245
101071
101569
101762
101840
101637
101618
101661
101519
101477
101026
101127
101035
101107
101267
101439
101469
101326
101273
101410
101172
101023
100976
101144
100867
100951
100815
100726
100819
100734
100828
100912
100893
100948
100859
100980
99175
99286.8
99024
98885
99346.9
99442.1
99827.5
99984.2
100053
99892.7
99684.9
100181
100227
100303
99581.3
99495.1
100290
100353
100391
100366
100367
100369
98794.8
97956
98107.5
98614.5
98452
98291.3
99694.1
100264
99553.5
99508.1
99426.3
99336.6
99243.6
98532.7
98644.7
98472
98808.4
98912.8
99006.6
98747.3
99125.5
99045.7
98001.8
98142.1
97721.3
97879.3
97657.2
97520.2
98380.1
98204.6
99606.8
97173.1
97382.2
100028
99939.9
99874.3
99787.7
99689.3
100133
100530
100626
100699
100479
100378
100325
100202
101218
101509
102213
101131
101414
101239
101106
101808
101367
101331
101715
101734
101606
101579
101532
101011
101145
101037
101147
101229
101510
101539
101371
101320
101426
101195
101086
101036
101143
100896
100979
100780
100840
100872
100711
100814
100894
100932
100873
100969
99135.9
99238.7
99048
98893.9
99355.5
99420.7
99810.7
100025
100095
99945.7
99703.8
100188
100286
100364
99598.8
99536.8
100452
100435
100418
100421
98761.1
98020
98123.4
98536.4
98689
98379.7
98194.9
99292.1
100236
100318
99512.2
99474.8
99391.3
99302
99216.7
98584.8
98703.9
98471.5
98815
98917.1
99009.2
99167.2
99090
97949.3
98076.5
98134.9
97695
97821.3
97582.9
97459.4
98360.2
98235.6
99635.2
97086.9
97241.2
97328.8
100060
99954.6
99898.9
99801.9
99715.1
100110
100578
100679
100723
100480
100427
100326
100227
101446
102092
101247
101353
101762
101391
101336
101489
102001
101990
101656
101628
101883
101600
101018
101115
101073
101038
101262
101076
101536
101612
101378
101330
101486
101266
101082
101059
101198
100866
100950
101034
100804
100822
100784
100829
100903
100939
100879
100970
99170.7
99263.2
99013.6
98798.9
98954.7
99329.3
99458.4
99765.3
99866.2
100030
100074
100157
99922.1
100005
99653.4
100245
100349
100378
100428
99523.1
100470
100493
100456
100432
97847.7
97968.7
98539.7
98633
98391.3
98183.7
99916.4
100406
100316
99565.5
99491.3
99408.4
99323.2
99242.6
98576.4
98719.4
98521
98871.5
98781.1
98968.2
99058.6
99143.7
97947.4
98075.6
97766.1
97574.5
97845
97550.6
97496.5
98311
98407.6
98203.6
99611.8
97055.3
97208.2
97365.3
100057
100000
99904.8
99768.5
99852.4
99689.8
100153
100582
100687
100771
100532
100430
100373
100282
100200
102225
101354
101038
101189
101188
101143
102316
101493
102498
101641
101905
102116
101456
101558
101641
101875
100991
101175
101051
101060
101256
101474
101617
101665
101447
101422
101497
101274
101142
101116
101256
101191
100891
100978
101068
100821
100858
100747
100863
100881
100921
100927
100954
100975
99134.8
99231
99064
98796.6
98939.1
99369.4
99436.9
99770.3
99830.9
100097
100123
100181
99958.8
100037
99668
100270
100371
100452
100478
99565.8
100528
100555
100516
100439
97781.9
98016.3
98487.4
98658.1
98348.3
98117.8
98268.8
99840.9
100269
100392
99541.3
99460.9
99375.2
99297.5
99218
98632.3
98692.3
98520.2
98867.4
98802.7
98973.6
99085.3
99167.3
98010
97914.8
98138.4
97711.6
97581.5
97797.5
97437.6
98297
98471.2
98405.3
98237.6
99638.6
97151.1
97319.6
100114
100040
99965.2
99890.3
99788.3
99838.1
99714.9
100634
100743
100792
100536
100489
100375
100273
100220
101773
101985
100939
101521
101730
101319
101659
102273
102366
101239
101845
101277
101708
101953
101717
102385
101943
100991
101118
100932
101019
100955
101443
101699
101621
101482
101423
101552
101361
101154
101297
101235
100856
100946
101038
101127
100851
100848
100799
100884
100887
100915
100935
100957
100981
99162.9
99270.4
99010.4
98733.7
98874.6
99340.9
99467.2
99732.7
99860.3
100122
100225
99923.3
100018
100097
99631.3
100336
100267
100422
100460
100500
100523
99531.4
100580
100575
100588
100522
100565
97807.7
97958.3
98524.6
98607
98391.3
98136
98230.9
99522.4
100362
100334
100459
99568.4
99478.9
99388.8
99322.8
99248
98578.2
98720.9
98912
98783.2
99007.4
99078.1
99151.8
97995.7
97938.7
98119.1
97734.9
97569.9
97810.8
97406.3
98351.2
98494.6
98432.8
98243.2
99623.7
97076.5
97260.9
100139
100065
99986.1
99919.3
99761.9
99865.6
99704.6
100638
100737
100789
100587
100489
100440
100355
100307
100195
101091
101945
101065
101694
101527
101565
101232
100977
101550
101841
102534
101376
101400
102027
101904
101847
101935
101438
100983
101042
101047
101263
101051
101081
100861
101809
101703
101536
101486
101566
101357
101213
101288
100878
100973
101071
101164
100875
100876
100719
100897
100891
100898
100919
100930
100945
100985
99151.2
99206
99028.4
98726.9
98885.9
99366.9
99462.7
99759
99824.7
100179
100218
99954.2
100057
100130
99658.4
100367
100312
100446
100533
100553
100575
99572.4
100644
100655
100653
100549
100622
97694.5
97878.2
98002.2
98478.5
98635.2
98347.9
98092.4
98271.1
100042
100447
100326
100487
99554.9
99438.1
99520.9
99367.2
99297.5
99236.8
98592.9
98705
98890.5
98826.6
98997.6
99049
99133.4
99193.1
98042.7
97921.6
98181.4
97716.3
97619.8
97486.6
97792.3
97375.6
98292.3
98555.5
98457
99663.1
97286.1
97048.2
100113
100035
99967.1
99913.2
99783.9
99850.4
99733.1
100688
100797
100829
100595
100540
100436
100379
100275
100222
101605
101053
100978
101232
101321
101174
101559
101343
101898
102573
101582
102030
101566
101914
101733
101769
101651
101019
100983
100970
101365
101298
101554
101400
101898
101785
101650
101553
101473
101561
101400
101254
101337
100933
101035
101133
101229
100891
100882
100813
100909
100890
100899
100915
100937
100948
100968
99099.9
99219.1
98969.4
98774.6
98844.7
99428.8
99346.7
99526
99718
99848.6
100186
100263
99908
100015
100122
100049
99627.8
100418
100308
100506
100587
100591
100633
100708
100708
100712
100610
100520
100694
97670.4
97844.6
97985.6
98514.2
98601.7
98387.2
98142.9
98226.3
100112
100234
100304
100525
99599.4
99438.1
99525.5
99386
99321.5
99272.1
98655.5
98750
98930.4
98804.8
99044.9
98981.3
99131
99180.8
98031.3
97921.8
98192.3
97731.7
97593.8
97399.1
97878.8
97253.8
98310.4
98586.8
98535.9
98455.7
99648.3
97143.5
97035.6
100135
100049
99998.3
99949.2
99822.9
99884.1
99736.6
100698
100845
100762
100651
100533
100477
100352
100297
100190
101763
101544
101216
101309
101350
101401
101458
101852
101719
101397
101462
101521
101846
102059
101683
101888
102698
102747
102448
100976
100987
100985
101162
101027
100924
101116
101252
101183
102128
101935
101612
101507
101686
101400
101323
100956
101062
101166
101267
100885
100877
100837
100923
100896
100905
100920
100941
100934
100966
99077.4
99181.8
99295.5
98994.2
98735.5
98880.2
99455.4
99390.3
99550.2
99742
99805.7
100238
100280
99924.6
100038
100175
100110
99654.6
100441
100360
100538
100633
100652
100672
100760
100782
100778
100658
100607
100748
97740.2
97909.2
98071.1
98472.8
98650.4
98349
98259.9
99871.5
100327
100259
100448
100580
99574.9
99473.5
99510.7
99385.3
99361.9
99269.2
98632.3
98734.4
98898.7
98847
99080.7
99013.6
99171.5
99217.6
97972.8
98132.4
98240.5
97671.3
97556.8
97438.3
97920.2
97138.9
98400.1
98285.8
98545.5
98486.6
99678.9
97179.1
97091.6
96849.3
100127
100091
99990.6
99952.8
99826.9
99857.9
99929
99790.1
99721.3
100899
100778
100660
100573
100474
100380
100294
100207
101479
101412
101544
101165
101182
101213
101422
101647
102225
101930
102354
101979
101952
101873
101776
101902
101988
101378
101013
100960
100872
101145
101178
101018
101014
101127
100860
101830
101657
101628
101462
101566
101691
101627
101369
101025
101128
101239
101345
100895
100877
100819
100934
100903
100902
100907
100914
100939
100935
100947
99116.1
99207.7
99284.8
98962.3
98771.4
98842.8
99513.7
99388.1
99614.8
99710.6
99816
100234
100330
100003
99904.3
100091
100168
100416
100502
100596
100629
100692
100692
100733
100824
100766
100838
100831
100740
100629
100812
97697.3
97905.9
98096.8
98515.7
98607.1
98384.7
98196
99729.2
100338
100283
100465
100560
99599.9
99432
99529.1
99376
99306.7
98669.4
98780.1
98931
98832
99059.2
98987
99171.2
99212.9
97918.6
98088.9
98233.2
97809.9
97571.7
97649.9
97375.6
97921.2
97242.9
98357.6
98266.6
98610
98477.1
99646.3
97178.1
96969.3
97049.6
100158
100078
100032
99999.1
99869.6
99947.8
99783.3
99735
100915
100725
100831
100625
100573
100434
100526
100327
100258
101277
101262
101466
101085
101212
101230
101280
101258
101737
101559
101881
101587
102158
101426
102176
102431
101828
101501
101639
101850
101096
101019
101149
101050
101033
101109
101066
101285
101147
101064
102380
101999
101450
101620
101827
101693
101046
101151
101264
101380
100900
100883
100896
100954
100900
100917
100943
100925
100942
100969
99074.1
99180.3
99330.6
99001.4
98761.8
98887.6
99536
99444.1
99643.3
99748
99857.2
100277
100362
100021
99956.8
100130
100218
100450
100526
100626
100703
100748
100745
100875
100825
100907
100893
100777
100682
100867
97579.7
97748.3
97835.1
98010.4
98471.2
98645.8
98375.6
98222.2
99888.9
100324
100232
100514
100529
100656
99573.8
99441.3
99519.7
99418
99350.3
99295.7
98666.7
98765.4
98911.4
98868.6
99087
99017.4
99143.9
99220.4
99258.4
98099.3
97910.3
98206.3
97662.8
97576.7
97565.8
97389.8
97897.1
97281
97275.6
98400.7
98280.9
98604.1
98558.1
99663.9
96646.2
97163.3
100169
100104
100015
99874.2
99917.8
99987.2
99813.1
99732.2
101000
100885
100735
100834
100644
100609
100431
100516
100333
100230
101303
101256
101353
101513
101126
101172
101193
101213
101197
101576
101791
101444
101818
101565
102155
102063
101760
102332
101718
101635
101677
101690
101000
101015
101136
101157
100903
101147
101101
101089
101123
101086
102074
101897
101492
101738
101559
101628
101730
101114
101230
101342
101457
100905
100896
100961
100881
100889
100919
100912
100960
100922
100937
100999
99102.4
99220.6
99328.8
98955.2
98832.5
98715.7
99503.4
99603.4
99435.6
99714.9
99854.9
100336
100276
100427
100051
99922.2
100205
100129
100506
100591
100680
100760
100799
100792
100926
100873
100835
100965
100920
100929
100849
100761
100724
100934
97556.4
97647.4
97840.5
98027.5
98519.2
98594.8
98313.2
98457.4
98145.4
100186
100491
100555
100630
100703
99594.5
99488.9
99552.8
99432.9
99367.2
99325.4
98714.1
98805.9
98928.3
98862.1
99094.2
98987.4
99055.4
99165.4
99200.2
99256.9
98126.9
97816.1
98126.5
97657
97569.7
97495.2
97276
97798.4
97338.7
97240.9
98428.1
98354.2
98668.3
98532.3
99706.6
99632.2
96799.1
97535.5
96918.5
100149
100087
100058
99907.5
99855
100001
99772
101016
100919
100792
100695
100882
100628
100389
100474
100563
100325
100248
101287
101218
101313
101424
101069
101116
101152
101140
101536
101761
101815
101592
101599
101748
102535
102087
101751
101877
101840
101851
100970
100873
100978
100946
101108
101158
101097
100948
101115
101045
102178
101459
101586
101571
102026
101910
101139
101257
101372
101544
100903
100907
100855
100883
100886
100921
100912
100914
100936
100928
100997
99083
99200.5
99281.5
99386.7
98977.1
98852.1
98725.6
99537.3
99623.3
99489.3
99737.2
99834.3
100375
100325
100458
100043
100097
99945.9
100248
100197
100544
100600
100712
100814
100856
100976
100921
100893
101018
101010
100994
100903
100840
100753
100988
97481.5
97654.7
97913.1
97747.4
97973.7
98617.4
98314.4
98485.3
98168.3
100280
100520
100581
100686
100711
99476.7
99545.8
99435.9
99408
99332.7
98721.1
98820
98944.3
98902.9
99132.3
98961.9
99064
99230.3
99290
98058.7
98029.7
97887.4
98217.7
97847.7
97545.9
97437.2
97548.9
97752.9
97137.4
98403.9
98495.2
98253.2
98655.9
98639.9
98522.4
99724.2
99644.7
97012.1
97308.3
96927.7
100176
100120
100065
99928.4
99852.9
99980.4
100042
99779.7
101094
100981
100775
100680
100898
100612
100392
100465
100544
100294
100345
100218
101231
101152
101300
101320
101403
101039
101068
101110
101123
101446
101650
101777
101560
101509
101821
102232
102268
102121
101730
101652
101684
101796
101969
101022
100998
100899
100941
101005
101062
101037
101005
101015
101627
101780
101537
101796
102045
101748
101214
101320
101423
100911
100903
100810
100901
100894
100923
100911
100958
100969
100936
100945
99038.5
99142.1
99228.3
99291.2
99389.2
98916.2
98797.1
98686
99590.5
99680.9
99505.5
99792.8
99878.1
100429
100340
100525
100459
100091
100008
99925.9
100248
100305
100184
100646
100792
100698
100835
100865
100909
100972
101026
100934
101046
101062
101064
100956
100858
100819
101007
97475.2
97303.6
97565.1
97900.5
97744.9
98021.1
98575.1
98387.3
98241.2
98459.2
98101.3
100077
100589
100627
100694
100772
99507.9
99576.4
99475
99413.5
99376.6
98776.1
98852.5
98897.2
99148.5
98973.3
99058.1
99118.4
99202.2
99274.5
99303.2
98232.8
98023.3
97962.4
98116.9
97802
97639.4
97237.7
97549.4
97748.1
97205.4
98376.3
98528
98328.2
98718.1
98645.8
98483.7
99692.9
99761.8
99621.2
97128.9
96918
97026.2
96914.3
100155
100104
99912.9
99882
99820.4
100002
100061
101090
101004
100816
100718
100878
100958
100660
100432
100502
100570
100271
100348
100231
101192
101113
101230
101275
101338
101023
101004
101052
101063
101057
101436
101624
101528
102234
102040
102149
102190
101703
101668
101709
101653
101708
101076
100906
101047
100992
101125
101050
101132
100947
100977
100959
100995
102109
101615
101695
101853
101968
102000
101235
101399
101551
100906
100861
100912
100907
100911
100918
100910
100968
100944
100990
100927
100985
99039.2
99099.8
99231.3
99348.4
99447.7
98923.9
98796.6
98718.3
99614.2
99687.6
99571.2
99786.9
99835.9
100450
100409
100553
100507
100122
100019
99949.5
100285
100328
100230
100651
100796
100740
100896
100909
100963
101020
101074
100983
101103
101137
101130
100990
100960
100905
100819
101099
97394.3
97568.7
97972.5
97830.7
97659.3
98611.2
98370.8
98246.8
98519.3
98102.9
100404
100554
100729
100647
100766
100781
99560.7
99484.5
99451.2
99383.1
98754.1
98841.7
98867.9
98953.4
99061.7
99125.4
99208.4
99280.8
99353.3
98323.6
98011.7
98050.7
97954.3
98355.2
98112.9
97808.4
97699.7
97548.5
97107.3
97656.8
97685.8
97242.3
98440.5
98441.4
98761.1
98587.9
98771.8
98533.2
99703.7
99786.1
99640.4
97071.4
97068.9
96917.5
100174
100131
99948.1
99876.5
99821.4
99982.1
100040
100105
101054
101152
100796
100708
100916
100985
100633
100434
100470
100564
100296
100335
100400
100211
101140
101052
101216
101274
101327
100979
100973
101044
100983
101019
101031
101391
101522
101648
101486
102125
102010
102090
102216
101273
101634
101665
101663
101528
100788
101014
100871
100926
101024
101039
100824
100781
100917
100975
100951
102154
101595
101456
101538
101807
101649
101217
101275
101404
100908
100857
100919
100901
100905
100912
100908
100935
100921
100959
100924
100879
98995.6
99112.9
99303.4
99214.6
99360.1
99447.6
98902.6
98843.6
98682.7
99666.4
99745.1
99585.2
99840
100505
100425
100609
100531
100117
100075
99946.9
100307
100383
100288
100209
100709
100845
100759
100933
100919
100963
100987
101005
101076
101100
101125
101156
101200
101195
100930
100873
97406
97209
97490.5
98005.8
97832.3
97657.3
98589
98436.8
98318.7
98173.7
98502.9
100228
100622
100739
100692
100767
100830
99583.1
99525.1
99457.7
99423.5
98843.6
98935.4
98904.2
99021
99102
99172.6
99240.7
99282.9
99336.4
99362.1
98158.3
98064.3
97854.4
97922.7
98148.7
98235
97782.9
97635.9
97510.6
97350.5
97515.9
97735.7
98419.6
98419.9
98779
98501.4
98667.8
98587.6
99676
99739.3
99773.8
99620.4
97152.1
97068.6
96918.6
100166
99933.6
99909.4
99846.1
100006
100059
100121
101085
101123
100744
100828
100897
100950
101053
100637
100479
100524
100595
100267
100356
100396
100232
101247
100961
100946
100974
100935
100980
101358
101467
101532
101403
101970
102157
102086
102117
101747
101548
101643
101467
100930
101105
100990
101055
101022
101014
100969
100922
100776
100945
102155
101452
101688
101551
101883
101890
101321
101369
101412
100892
100921
100899
100908
100915
100911
100992
100927
100937
100949
100917
100942
99010.1
99167.8
99058.9
99301.3
99236
99405
99499.4
98945.2
98829.7
98708.4
99686.6
99742
99649.7
99549.1
99786.2
99877.4
100540
100472
100596
100155
100060
99926.8
100008
100373
100326
100245
100694
100804
100902
100985
100990
101058
101070
101108
101157
101186
100875
97312.8
97499.1
97999.4
97910.4
97743.3
97592.2
98635.9
98418.4
98329.8
98176.4
98559.3
100520
100607
100800
100739
100763
100832
99579.8
99522.6
99496.4
99429.1
98805.1
98905.6
98945.5
99067.8
99094.6
99169.9
99250.9
99310
99350.6
99397.6
97949.6
98266.5
97926.2
97986.5
98454.2
98371
97766.7
97662.9
97449
97585.2
97402.1
97713.4
98307.2
98791.8
98505.1
98736.7
98524.1
99688.6
99747.1
99800.1
99634.6
97171.9
97066.4
96919.3
100192
99953.2
99891.7
99856.3
100042
99987.7
100093
100159
101129
100754
100792
100913
100966
101063
100671
100439
100532
100611
100275
100356
101268
100921
100912
100921
100903
101350
101475
101400
101519
101371
102511
102208
102232
101976
101851
101591
101475
100979
100915
100940
100932
100996
100983
100939
101082
100752
100922
102026
101934
101797
101304
101862
102132
101988
101933
101366
101332
100899
100938
100908
100916
100907
100911
100912
100921
100925
100937
100992
100914
100991
99123.6
99062.9
99346.5
99232.2
99412.6
99471.8
98944
98886.1
98769.6
99693.4
99661.9
99565.9
99755
99846.3
100524
100613
100479
100633
100159
100092
99947.8
99999.8
100417
100384
100298
100214
100734
100824
100955
101028
101040
101018
101097
101076
101169
101198
101247
97300.4
97172.8
97441.7
98077
97878.2
97720.5
97618.9
98633.8
98462
98306.2
98245.2
98529
100452
100635
100622
100733
100793
100866
99611.6