/*--------------------------------*- C++ -*----------------------------------*\
| =========                 |                                                 |
| \\      /  F ield         | OpenFOAM: The Open Source CFD Toolbox           |
|  \\    /   O peration     | Version:  v2012                                 |
|   \\  /    A nd           | Website:  www.openfoam.com                      |
|    \\/     M anipulation  |                                                 |
\*---------------------------------------------------------------------------*/
FoamFile
{
    version     2.0;
    format      ascii;
    class       surfaceScalarField;
    location    "0.2";
    object      phi;
}
// * * * * * * * * * * * * * * * * * * * * * * * * * * * * * * * * * * * * * //

dimensions      [0 3 -1 0 0 0 0];
oriented        oriented;


internalField   nonuniform List<scalar> 
21399
(
0.181994
0.60453
-0.592935
0.774929
0.614178
-0.0833784
0.574752
0.13996
0.654783
0.466556
0.308373
0.123023
0.491155
0.502993
0.714713
0.181416
0.473367
0.589579
-0.503782
0.812155
0.502137
-0.0118181
0.514811
0.21093
-0.368414
0.549829
0.684297
0.219571
0.370008
0.33624
0.475915
0.721708
0.373115
-0.109687
0.361297
0.146398
0.0983741
0.451455
-0.0592016
0.743499
0.706248
-0.140508
0.616424
0.72997
0.220469
0.290093
0.071204
0.43649
-0.327925
0.426299
0.392254
0.602991
0.0596971
0.646551
0.676121
0.463986
0.265984
0.351515
-0.131046
-0.342399
0.413603
0.108566
0.20016
0.226138
0.592414
-0.11242
0.715411
0.302382
0.344169
0.341446
0.334675
0.473915
0.568366
0.00911641
0.189774
0.270979
0.142624
0.379545
0.333243
-0.107104
0.521495
0.0709192
0.409075
0.355979
0.359432
0.685615
0.690654
-0.110501
0.584416
0.457865
-0.31697
0.326086
-0.127196
0.302278
-0.159654
0.369402
0.0101423
0.25149
0.320061
0.0131823
0.262298
0.39098
0.45568
-0.0466055
-0.33335
0.692782
0.269959
0.415656
0.391588
0.299066
0.59442
0.727824
0.372482
-0.0463953
0.124295
0.280084
0.0221938
0.212828
0.290226
-0.291346
0.304528
-0.0290481
0.423718
-0.0327383
0.122331
0.377112
0.410977
0.281804
0.807244
0.710043
-0.271785
0.866205
0.456039
-0.354343
0.307947
-0.155796
0.280091
-0.235763
0.257956
-0.0229349
0.270113
0.0201129
0.0943279
0.327351
-0.0228224
0.241065
0.294612
-0.268889
0.39122
0.108224
-0.197397
0.479201
0.261974
0.54527
0.683719
0.0263239
0.629955
0.23625
0.718013
-0.0742521
0.300628
0.0073198
0.286034
-0.0280773
0.277693
0.306147
-0.148753
0.243081
0.122345
-0.334173
0.311351
-0.0931081
-0.0291111
0.323723
0.528533
-0.137313
-0.272157
0.38038
0.331136
0.444526
0.0346756
-0.0621458
0.607416
0.621573
0.470849
0.640044
-0.329996
0.566246
0.388017
0.168829
0.254028
-0.246708
-0.21062
0.182543
0.0670728
0.213039
0.270742
-0.148397
0.272197
0.0391541
0.243085
0.0515667
0.243067
0.353164
-0.0220276
0.38784
0.103946
0.50347
0.520921
0.100652
-0.0984047
0.569254
0.622767
0.0172771
0.678952
-0.112706
0.491962
0.326274
-0.157445
0.258337
-0.00430886
0.0795661
0.300312
-0.117769
-0.167223
0.234296
0.278484
-0.0654453
0.113297
0.101254
-0.230451
0.269605
0.203044
0.0400414
0.254611
0.40761
-0.164544
-0.283158
0.261131
0.403188
-0.015348
0.0704442
0.433026
0.591365
-0.378989
0.479641
0.304783
0.190265
0.632178
0.696229
0.379256
0.0911141
-0.200853
0.196544
0.256432
-0.176866
0.269083
0.031229
0.116526
0.0480333
0.203638
0.274302
-0.161006
0.25239
-0.151136
0.201256
0.0683488
0.241297
0.394424
-0.139813
0.124452
0.22988
0.392907
-0.131777
0.377559
0.812282
0.676293
-0.084928
0.624498
-0.144857
0.34786
-0.0430772
0.44617
-0.255904
0.0481568
0.584021
0.569391
0.126838
-0.185491
0.276605
0.0555792
0.0110539
0.0974361
0.217274
-0.186045
-0.105132
0.221658
-0.224824
0.272857
-0.021186
0.0913841
0.0694522
-0.197024
0.265373
0.101485
0.30367
-0.179218
0.344844
-0.114964
0.171893
0.269003
0.108556
0.435104
0.377178
0.236681
0.439612
0.53957
0.301313
0.091956
0.225926
0.617547
0.593152
0.561943
0.171473
0.187095
-0.131515
-0.183393
0.194446
0.268228
-0.170792
0.21925
-0.00197548
0.035613
0.0758325
0.198064
0.241065
-0.149681
0.245504
0.20701
0.0583635
0.308494
0.165626
-0.278591
0.163627
0.35518
-0.183287
-0.171254
0.27981
0.61386
0.630757
-0.191145
0.562718
-0.0231477
0.494654
-0.193341
-0.255199
0.347155
-0.0292728
0.562188
0.0553593
-0.0668067
0.659959
0.0190499
0.542893
0.174183
-0.00270989
0.00370203
0.136712
-0.0427501
0.237197
0.070273
-0.187517
0.185542
0.209796
0.261823
-0.18599
0.229253
-0.0311888
0.0958237
-0.153073
0.211437
0.0299034
0.322265
-0.156639
0.298091
-0.134463
0.294818
0.0603616
0.138978
0.123564
0.250537
0.63291
0.571201
0.0595561
0.371572
-0.369159
0.346011
0.125495
-0.432152
0.238811
-0.0849971
0.495381
0.598252
0.668074
-0.195691
0.192981
-0.178601
0.182303
-0.0418887
-0.192628
0.149877
0.041506
0.25091
-0.180637
0.0222782
0.19612
-0.0105776
0.10875
0.0432621
0.164931
0.178356
-0.0825323
0.251424
-0.0399877
0.281328
0.141451
0.146864
0.258707
-0.198345
0.305002
-0.166024
-0.171364
0.294928
0.310179
-0.0596424
0.0381055
0.594804
0.609307
-0.461098
0.520655
-0.0895261
0.474962
-0.128951
0.409988
-0.284493
0.364587
-0.125777
0.225182
-0.373205
0.868586
0.225047
-0.164668
0.832742
0.169572
0.0234089
-0.0103244
-0.205647
0.163759
0.171764
-0.0218864
0.21327
0.0452631
-0.00228152
0.19185
-0.184594
0.174016
0.209217
-0.100467
-0.159267
0.202529
0.00566351
-0.216551
0.134019
-0.0126004
0.169229
0.272711
-0.131259
0.273104
-0.12624
0.0873432
0.106657
0.106687
0.233543
0.0613848
0.173901
0.819851
-0.112505
0.721812
0.62464
-0.103985
0.385436
0.281037
0.0800949
-0.372717
0.246941
-0.147535
0.703918
0.624697
0.208046
-0.1573
0.180709
-0.19422
0.183896
-0.0304617
-0.15002
0.128133
0.05597
-0.115293
0.160556
-0.140637
0.138356
0.00725629
0.17406
-4.41096e-05
-0.211993
0.111526
-0.0094632
0.179724
-0.00661853
0.164768
-0.10734
0.276569
0.141845
-0.183425
0.0571849
0.258379
-0.171036
0.264551
-0.157894
0.267955
-0.161268
-0.171214
0.232599
0.29317
-0.119269
-0.0106143
0.830465
0.512135
0.711197
-0.497211
0.393226
-0.111775
0.45372
-0.172683
-0.291497
0.371591
-0.044556
0.145635
0.485356
0.218562
0.631967
0.693401
0.173328
0.00738052
0.0338763
-0.149382
0.11892
0.202252
-0.0741188
-0.129835
0.185805
-0.238905
0.123612
0.011174
-0.100549
0.180584
-0.171215
0.17117
0.252834
-0.141308
-0.174078
0.164614
0.0056462
-0.175251
0.168632
-0.0104832
0.145494
0.0931441
0.20045
-0.0586047
-0.157585
0.21477
0.0871655
0.0935146
0.110061
0.0391817
0.11333
0.378387
0.452078
0.737366
-0.225231
0.552562
0.158636
0.561144
-0.167918
0.341945
-0.331803
0.159119
0.0397888
0.196477
-0.241033
0.318825
-0.17319
0.596949
0.149903
0.482064
0.514746
0.178655
-0.134996
0.142377
0.16464
-0.130763
0.20548
-0.0865598
0.0724173
0.0905207
0.0508084
0.154217
-0.0306054
0.165391
0.0680835
0.0093699
0.162211
0.00895924
0.0233061
0.167857
-0.150671
0.140188
0.258192
-0.112698
-0.0644411
-0.233534
0.174929
-0.0187636
0.241226
-0.15406
0.233019
-0.139504
0.243684
-0.133623
-0.116771
0.155952
0.280863
-0.167533
-0.11046
0.562538
0.407764
0.329602
0.335913
0.442102
0.566399
-0.451303
0.283385
-0.109358
-0.211268
0.370387
0.267625
-0.227837
0.33776
-0.141283
0.0777924
0.107673
0.547719
0.0492306
0.664649
0.488567
0.726374
-0.00297693
0.635644
0.0222535
0.627284
0.183293
-0.0409159
0.0747164
0.0788316
-0.107855
0.180272
0.183886
-0.0933651
0.169125
-0.118316
-0.151564
0.120959
0.195009
-0.126925
0.192663
-0.152602
0.161561
-0.165076
0.188382
0.00278182
0.172316
-0.0321273
0.193751
-0.186874
0.0741762
0.0581584
-0.15279
0.134027
0.0736924
0.0789583
0.10418
-0.225673
0.09205
-0.0697207
0.611768
0.642657
-0.313054
0.533559
-0.197646
-0.294766
0.736868
0.271633
0.525567
-0.242182
-0.373424
0.264066
0.0563573
-0.00303637
0.109924
-0.249984
0.108701
-0.172192
0.273177
-0.165504
0.111977
0.552672
0.600544
0.723158
0.00321598
0.645602
0.0656541
0.56999
0.530953
0.649266
0.637849
0.128209
0.186987
-0.112271
0.178115
-0.0992833
0.0760311
0.061956
0.093622
0.0434446
0.185421
-0.064462
0.0453901
0.040061
0.156353
0.00520783
0.00150792
0.159135
-0.138949
0.106822
0.0409607
-0.10718
0.181356
0.166578
-0.108419
0.211124
-0.0770977
0.27446
-0.200768
0.195089
-0.11613
0.218114
-0.113934
0.230075
-0.138025
0.0968569
-0.119317
0.731086
0.343415
0.299242
0.220505
0.327921
0.617551
0.615048
-0.34595
0.103768
-0.0818843
0.244968
-0.188611
-0.282439
0.279402
0.297339
-0.187416
0.279039
-0.170338
0.100985
0.108956
-0.106732
0.659403
0.60607
0.616426
0.734301
0.00363183
0.64197
-0.444143
0.509797
0.0218927
0.548097
0.0868103
0.652898
0.00226684
0.635582
0.19445
-0.066241
0.0658441
0.0861378
-0.114546
0.190577
-0.109345
0.171301
0.137744
-0.0441217
0.178126
-0.134681
0.113664
-0.142309
0.187699
-0.129445
0.169506
-0.119355
0.124563
-0.177221
0.178729
-0.0180866
-0.0100653
-0.0354871
0.167075
-0.126114
0.0715493
0.234514
-0.0531572
0.102705
0.0899771
-0.00567886
0.101984
0.116141
-0.169509
0.0314843
-0.0726526
0.519746
-0.220504
0.42765
-0.207145
0.483626
-0.155705
0.718849
-0.101298
-0.088593
0.703641
0.387533
-0.283765
-0.322713
0.240829
-0.0374706
0.108728
-0.0433106
0.0916236
-0.25204
0.0817017
-0.151055
0.237204
-0.128248
0.132389
0.527014
0.738459
-0.0619913
0.678417
0.57265
0.161652
0.663862
0.482632
0.0271645
-0.182245
0.730342
0.308882
0.0129016
0.395692
0.290417
-0.000574135
0.655164
0.64644
0.0650051
-0.137896
0.0716546
-0.082217
0.148061
0.17662
-0.0904819
0.0231975
0.081232
0.0334056
-0.155716
0.111594
0.0530173
0.142671
-0.0290074
0.0501508
0.180696
-0.0561337
0.16261
0.127125
0.117059
-0.126057
0.0905702
0.108399
0.158081
-0.0865313
0.104923
0.178292
-0.075587
0.182364
-0.0923867
-0.187343
0.181664
-0.0853594
0.198548
-0.0824073
-0.16703
0.198514
0.10564
0.431153
-0.467578
0.247074
-0.0399282
0.276481
-0.436999
0.281294
0.45448
0.264369
0.602343
-0.0494668
-0.0429364
-0.287512
0.250042
-0.178784
-0.291406
0.248095
0.269297
-0.177674
0.243055
-0.161354
0.0861492
-0.282864
0.154616
-0.0183398
0.545354
0.109763
0.628696
0.510659
0.660078
0.616132
-0.0549273
0.71879
0.300387
-0.406665
0.43383
0.281522
0.448821
0.303319
-0.0109733
0.281982
0.600237
-0.0855851
0.732025
0.184685
-0.11968
0.156005
-0.0843499
0.0944028
-0.00765487
0.0521895
-0.117801
0.140998
0.173667
-0.0924346
0.109367
-0.0759614
-0.0062066
-0.125778
0.178795
-0.15533
0.126322
0.142815
-0.0926642
0.0866813
0.159387
0.00322297
-0.00899794
0.17647
-0.0858998
0.192747
-0.0843473
0.0728555
0.199194
-0.0942709
0.106777
0.10036
-0.1012
0.113189
-0.174912
0.092505
-0.0613905
0.0236021
0.714198
-0.283045
0.590815
-0.343741
-0.399829
0.359901
-0.123348
0.451584
-0.17029
-0.45286
0.717229
0.149483
-0.392507
0.343041
-0.298202
0.255265
-0.041364
0.0905137
-0.0501066
0.0653816
-0.230678
0.0693248
-0.144529
0.196169
-0.0415529
0.655117
0.633531
-0.244967
0.755625
0.0337577
0.62632
0.371165
0.395131
0.323658
-0.247931
0.548318
0.185899
-0.382164
0.663686
0.843952
0.329384
-0.0260656
0.318411
0.29129
-0.00930793
0.514652
0.742147
0.0920204
0.0363249
0.0250172
0.133091
-0.0386886
0.125436
-0.107757
0.159947
0.153072
-0.0120738
0.0977051
0.0606375
-0.134657
0.12845
0.0506919
0.0234656
0.0185649
0.178241
-0.0915597
-0.139254
0.142477
0.143515
-0.0469119
0.134517
0.0486175
0.114847
0.168378
-0.0955226
0.0741072
0.176218
-0.0694412
0.192051
-0.0916915
-0.220614
0.119414
-0.107425
0.198708
-0.106203
0.114828
0.162221
-0.138619
0.478515
0.235683
0.30777
0.0161596
0.328236
-0.314232
0.143942
0.47238
0.244849
0.627997
-0.137242
0.0288089
0.231743
-0.273107
0.288628
-0.198114
-0.281433
0.231326
0.250715
-0.185333
0.220759
-0.151434
0.0516397
0.129498
-0.171051
0.0478039
0.607313
0.0259819
0.607549
0.789383
0.674124
0.843546
0.83831
0.166154
-0.240944
0.426843
0.683762
-0.0200765
0.402756
0.441196
0.265225
0.412952
-0.0945413
0.26505
0.0282301
0.255742
0.518023
0.224124
0.138608
-0.0465879
0.154793
-0.118468
-0.102127
0.127144
-0.136425
0.0977367
-0.00922029
0.0235217
-0.133665
0.121591
-0.0044217
-0.121172
0.181809
-0.00521444
0.159432
-0.10874
-0.127803
0.151269
-0.120176
0.138741
0.0389869
0.0470486
0.0469545
0.0835763
0.14917
-0.100553
0.159922
-0.0450749
0.172807
-0.0987002
0.12261
0.0682304
0.242293
-0.122879
0.0912823
0.0560184
0.173573
-0.0587459
0.0349544
0.604441
-0.368758
0.582257
-0.274487
-0.421782
0.437942
-0.0935464
0.331187
-0.187245
-0.536928
0.781777
0.0910698
-0.269854
0.132612
0.30521
-0.276401
-0.0496897
0.0155209
0.0526006
-0.0385275
0.0354256
-0.218393
0.066959
-0.166753
-0.037255
0.0712421
0.633295
0.611502
0.463919
0.325464
0.0821427
0.591981
0.665005
0.17854
0.395662
0.442648
-0.330269
0.496423
0.172009
0.0965738
0.333814
0.349948
-0.335518
0.315442
0.798419
0.77501
0.31692
-0.051695
0.222378
0.266631
0.268042
-0.0122996
0.529297
0.666772
-0.161231
0.114643
-0.00643794
0.00867631
0.15443
-0.0566936
0.14521
-0.128557
0.152079
0.000419158
-0.114124
0.109702
0.0676856
-0.122692
0.117478
0.0316291
0.0404296
0.0310929
0.0101839
0.144339
-0.105352
-0.11227
0.159318
0.169427
-0.122472
0.156901
-0.0733248
0.0563486
-0.132925
0.08785
0.0398825
0.0707266
0.162217
-0.0396068
0.16203
-0.0937994
-0.223056
0.100177
-0.131774
0.173518
-0.1175
0.103471
0.17611
-0.141156
0.442005
0.162436
0.213499
-0.55403
0.279543
-0.116088
-0.42285
0.329304
-0.0916633
0.117965
0.444498
0.337279
0.533075
0.317916
-0.185305
-0.276202
-0.000199707
0.208416
-0.258106
0.199719
-0.184199
0.298637
-0.246037
0.241849
-0.280376
0.219133
-0.183707
0.183685
-0.116726
-0.189743
0.152488
-0.118501
0.00986875
0.623427
0.0264581
0.585043
0.546061
-0.253433
0.578897
0.60185
0.411573
0.623038
0.160905
0.35916
-0.187152
-0.232616
0.32919
-0.238264
0.588212
0.472969
-0.157527
0.526002
0.272417
0.584478
0.190532
0.216347
0.340709
-0.118331
0.20055
0.0660807
0.18825
-0.156642
0.685939
0.51013
0.00237284
0.131191
-0.137629
-0.124936
0.133613
0.0953849
0.0225177
-0.129051
0.12947
-0.0152346
0.123435
-0.0557493
-0.0115731
0.163706
-0.132077
0.120507
-0.0800769
-0.114809
0.145902
-0.103467
0.113651
0.0218667
0.0539664
0.0654633
0.155671
-0.0993228
0.134357
-0.0465074
0.14773
-0.107848
0.129934
-0.0592076
-0.136061
0.0964543
0.0259686
0.040558
0.19686
-0.0966835
0.0417444
0.0586104
-0.0376844
-0.475931
0.638367
0.503696
-0.290196
0.523321
-0.243778
-0.523992
0.407904
-0.194688
-0.290109
0.198445
-0.172144
0.693798
-0.356519
-0.207608
0.740683
0.0417145
0.0565442
-0.247066
0.246866
-0.07196
-0.0583864
0.114439
-0.0269037
-2.24213e-05
-0.220997
0.104271
-0.0685091
0.0783593
0.649885
0.588183
-0.0818842
0.627946
0.497013
-0.0331992
0.635049
-0.328426
0.739998
0.294612
0.369999
-0.209095
0.126544
0.153558
0.405498
-0.0763085
0.234705
0.285138
0.303073
0.212472
-0.0874523
0.613454
0.782547
0.497026
0.47567
0.258112
-0.0417656
0.139781
0.302269
-0.172614
0.238694
0.270987
-0.0827363
0.695623
-0.145717
0.14809
-0.0145261
-0.00401643
0.166034
-0.0706494
-0.108377
0.130895
0.157123
-0.0276529
0.1082
0.101374
-0.101906
0.090333
0.0488974
-0.0115704
0.0755944
0.0424343
0.156394
-0.0427423
-0.111845
0.133712
0.112721
-0.0587547
0.139059
-0.0735959
0.0397363
0.101223
0.0220863
-0.157418
0.0982104
0.145364
-0.04891
0.145516
-0.119547
-0.099189
0.139747
0.11062
-0.207304
0.160869
-0.119124
0.1655
-0.106889
0.10768
0.0277651
0.430758
0.233124
-0.430947
0.187169
-0.023043
-0.430827
0.236139
-0.232382
-0.288416
0.116272
0.378299
0.315499
0.384164
-0.205352
0.259823
-0.203279
-0.0415493
-0.250051
0.178091
-0.216521
0.158134
-0.102082
-0.166663
0.13976
-0.195272
0.195249
-0.0910004
0.0944096
-0.162919
0.179217
-0.100858
0.0998329
0.550052
0.062706
0.525477
0.594746
-0.186897
0.68391
0.734882
0.553102
0.672911
0.196403
0.328428
-0.201884
0.322487
-0.16893
0.25212
0.455665
-0.22096
-0.0631679
0.366241
0.417845
-0.205373
0.351841
0.261613
0.315694
0.466853
0.490877
0.0061487
-0.0300338
0.505704
0.229221
0.329207
-0.189426
0.129656
0.155958
0.0851747
0.610448
0.126982
0.0211084
0.0975485
-0.112075
-0.142394
0.138378
0.0576569
0.0857441
0.0289891
-0.145646
0.117993
-0.0341941
0.140316
-0.0389425
-0.0553132
0.136566
-0.0876687
-0.113332
0.101761
-0.0377371
0.136945
-0.0945111
0.0942031
0.000876257
-0.0237064
0.068227
0.0399772
0.138871
-0.0991347
0.00203397
-0.131247
0.153333
-0.0330366
0.0966058
0.0201998
0.181443
-0.0708233
-0.0464352
0.0463756
-0.167678
0.0607885
-0.059998
-0.529369
0.557134
-0.179876
0.610634
-0.296245
0.494145
-0.306976
0.38638
-0.409423
0.474034
-0.237895
-0.329376
0.0969947
-0.213104
0.703636
-0.388137
-0.267061
0.651225
0.0544714
-0.291237
0.0879584
0.248485
-0.290034
-0.0919161
-0.113147
0.149887
-0.251969
0.0285858
0.227851
-0.0880917
-0.19439
0.10339
-0.0999806
0.0162981
0.0805859
0.612758
0.528251
-0.166662
0.761409
0.517247
0.425532
0.30935
-0.0441157
0.597217
0.0503731
0.622538
0.358716
-0.162312
0.120603
0.160278
0.301755
-0.0496353
0.381145
0.0745195
0.196886
0.317977
0.336207
0.153342
0.667534
0.75249
0.552028
0.511853
0.0397949
0.266786
-0.137131
-0.125859
0.281817
0.621062
0.118912
-0.0978036
0.157053
-0.0595041
0.0263034
0.137496
-0.0798394
0.137558
-0.051814
0.111481
-0.0824917
0.136829
-0.0188361
0.106122
0.0978868
0.0561675
0.042055
-0.149635
0.0619662
-0.0478737
-0.119431
0.0816936
0.145427
-0.0512236
-0.108499
0.109375
-0.132652
0.108945
-0.0402722
0.0824657
0.0133706
0.122443
0.0194402
0.0233083
-0.125428
0.127462
0.0279056
-0.129554
0.0965172
0.143757
-0.0471511
-0.110893
0.131093
0.0963355
-0.167159
-0.178722
0.132287
-0.132346
0.132532
-0.0717436
0.0837588
0.601467
-0.0443328
0.421591
0.343573
0.1979
0.0794033
0.0646109
0.103495
-0.34139
0.344132
-0.247137
0.0353804
0.754009
0.263088
0.275512
-0.221041
0.214662
-0.126704
-0.0145217
-0.238535
0.146619
-0.255208
0.142061
-0.0886482
-0.0241174
0.200507
-0.171921
0.112415
0.229504
-0.126114
-0.142578
0.0425978
-0.12628
0.148677
-0.0680908
0.145971
0.466787
-0.0306592
0.55891
0.343777
0.417631
-0.103474
0.620721
0.571503
0.653127
0.578422
0.493743
0.139443
0.307679
-0.187076
0.283883
-0.123605
-0.292117
0.242482
-0.299942
0.374461
0.301318
-0.104432
-0.0217484
0.339726
-0.086577
0.422784
0.304878
-0.151535
0.103002
0.564532
0.26886
0.48363
0.65503
-0.150554
0.662407
-0.179845
0.21964
0.277716
0.140928
0.140585
0.101972
-0.138509
0.759572
0.0786398
0.0592489
-0.113318
0.0538141
-0.0870147
0.0550046
0.0577187
0.0936127
0.110744
-0.12958
0.149194
-0.0430715
0.139516
-0.0416294
0.111897
-0.0557297
-0.0685471
0.110602
0.133826
-0.0718603
-0.128055
0.0801818
-0.0463619
-0.129572
0.0783483
-0.0232765
-0.0206083
0.126316
0.137135
-0.117695
-0.0761682
0.0994765
0.0165689
0.131196
-0.103291
0.152726
-0.0562087
-0.141066
0.0939146
-0.00997308
0.169573
-0.0732378
-0.0348721
0.000185852
-0.141272
0.0695288
-0.0575136
0.382543
-0.426876
0.595454
-0.173863
-0.212845
0.556418
0.662756
-0.464856
0.398028
-0.318624
0.454953
-0.390342
0.368464
-0.264969
0.00274243
-0.330739
0.0836019
-0.295359
0.493454
0.260555
-0.44357
0.706658
-0.00637894
-0.246305
0.119601
0.232124
-0.246646
-0.108589
-0.104244
-0.215869
0.12722
-0.185083
0.160965
0.0575831
-0.0726676
-0.189987
0.0638727
-0.147389
0.0223965
0.101483
0.436127
0.561513
-0.320478
0.738109
0.300243
0.20714
0.364363
0.275495
0.377632
-0.0204559
0.598878
0.505552
-0.0118084
-0.20405
0.343493
0.0155619
0.0968072
-0.284782
0.161177
0.0384319
0.00137603
0.254763
0.119698
-0.308087
0.203655
0.233015
0.253149
0.27223
-0.00320935
0.191958
-0.00737663
0.571909
-0.333389
0.602249
0.476254
0.516521
0.329018
-0.0651423
0.263085
-0.122158
0.242997
-0.102412
0.232484
-0.130512
0.407756
0.351816
0.131653
-0.0530132
0.142332
-0.0830834
0.131602
-0.0777874
0.0621791
0.133555
-0.0785505
0.118548
-0.0608289
0.103839
-0.0102267
0.10526
0.00548397
-0.0176827
0.0964447
0.0636305
0.0778255
0.0652794
-0.0189698
-0.136291
0.0644306
-0.0561091
0.0907731
0.123775
-0.0454266
0.108377
-0.116943
0.0963351
0.0501482
-0.0182182
-0.103993
0.120562
0.0272032
0.0494352
-0.115348
0.0591392
0.138143
-0.0442283
-0.11761
0.107637
0.0711538
-0.144392
0.0894417
-0.124314
-0.122653
0.122839
-0.0531245
0.0806293
0.561107
-0.178565
0.235881
0.382609
0.387245
0.112848
-0.0668279
0.136328
-0.0218774
-0.231116
-0.0338527
-0.228374
0.315058
-0.231456
-0.0632345
0.472998
0.600537
-0.339981
0.759078
-0.0524204
-0.234914
0.228535
-0.115313
-0.0181108
-0.259733
0.151144
-0.224089
0.119845
-0.0549032
-0.132513
-0.145845
0.203428
-0.18143
0.108763
0.208514
-0.144641
-0.137584
-0.00980537
-0.115188
-0.0137049
0.643268
-0.25185
0.813362
0.196634
0.541475
0.805795
0.639857
0.574266
0.58707
0.234247
-0.218685
0.220703
-0.123896
0.254482
-0.0933048
-0.254561
0.292993
-0.25111
0.252486
0.267982
-0.148284
-0.0474557
-0.0655757
0.298591
-0.0877145
0.340863
-0.248274
0.520504
-0.257092
0.253882
-0.0651337
0.0777838
0.494125
0.111522
0.490726
0.587776
0.594304
-0.255059
0.584078
0.167342
0.245107
-0.0974796
0.132574
0.12084
0.142695
0.417002
-0.336974
0.68879
0.089319
0.0485181
-0.122809
0.0450214
-0.0606297
0.0399971
0.0430105
-0.106835
0.0966078
-0.0935829
0.0990669
-0.0854491
0.0677664
0.10076
-0.00431494
-0.0756919
0.139322
-0.00762366
0.10773
-0.0424502
0.0887598
0.148497
-0.084066
-0.101487
0.0453777
-0.0107137
0.0169403
-0.109247
0.0638204
-0.00856686
-0.0190128
0.106864
0.0989029
-0.0487547
0.0806846
0.00295172
0.117449
-0.0902453
0.135639
-0.0862036
0.130662
-0.0715226
-0.114069
0.0698411
-0.00643212
-0.0575601
0.128714
-0.0549499
-0.183346
0.059032
-0.0605068
-0.1428
0.0896755
-0.0621707
-0.492597
0.314032
-0.256716
0.485698
-0.103089
0.644755
-0.257511
0.598547
-0.428222
0.361394
-0.291894
0.311519
-0.333396
0.262135
-0.295988
0.0866836
0.122674
-0.35413
0.207307
-0.270542
-0.127566
0.600563
0.472971
0.419097
-0.49437
0.44195
-0.222486
0.107173
0.177578
-0.195689
-0.0729448
-0.102641
-0.218683
0.163779
-0.155613
0.0231006
0.062669
0.0219973
-0.10992
0.0145039
-0.159145
0.126363
-0.136168
-0.134621
0.120916
0.391418
0.597635
0.215727
0.122632
0.418843
0.51106
0.294735
0.307503
0.332355
0.260371
0.313895
-0.103768
0.690838
-0.0203135
0.00201743
0.130586
-0.246628
0.153324
0.255409
0.0375834
0.336834
-0.0843476
0.202406
0.18855
-0.21259
0.165134
0.210876
0.0925892
0.265445
0.0412922
0.190275
0.0703836
0.423742
-0.0794791
0.570206
0.65816
0.25733
0.408882
0.175196
-0.0792867
0.151965
0.256128
-0.123554
0.219014
-0.0981748
0.236712
-0.0940164
0.429902
0.345445
0.343345
0.116109
-0.0267896
0.128927
-0.0804091
0.119024
-0.074003
0.04013
-0.0828295
0.122827
-0.0648546
0.107865
0.0317532
-0.124701
0.0311178
0.023375
-0.0569343
-0.0827222
0.0784073
0.0566002
-0.101509
0.0938857
0.106046
-0.0204872
-0.112311
0.0282451
-0.0669334
0.0870783
-0.097792
-0.112964
0.129905
-0.0491439
-0.0905867
0.0820199
0.1036
-0.122612
0.0581089
0.133843
-0.0531583
-0.0893724
0.0923242
0.0280761
0.0453935
0.0444582
0.0320771
0.133612
-0.0637706
-0.116121
0.109689
-0.131824
0.0742642
-0.00590732
-0.132172
0.0772225
-0.0731404
-0.149935
0.0894286
-0.0602598
0.0714411
0.58773
-0.273698
-0.48636
0.229644
0.541666
0.330219
0.104176
0.498341
-0.136947
-0.429575
0.137681
-0.118056
-0.0712615
-0.209304
0.311739
-0.189065
-0.146823
-0.0929634
0.496796
-0.16281
0.635781
0.758511
-0.339414
0.59935
-0.1574
0.259994
-0.152821
0.0643052
0.14567
-0.218615
-0.17556
0.0729184
0.00816611
0.199354
-0.176253
0.167625
-0.104956
0.164542
-0.142545
0.0546224
-0.127697
0.142201
-0.0327825
-0.0152517
0.698921
0.599649
-0.371578
0.587305
0.633692
0.679214
-0.297458
0.592193
0.64625
0.39338
-0.222109
0.201795
-0.190559
0.192576
-0.0599728
0.239
-0.0856767
-0.142299
0.179882
-0.287469
0.203121
-0.076095
0.278501
0.308196
-0.119646
-0.122334
0.286765
-0.0758886
0.379354
-0.215749
0.481194
0.220936
-0.179644
0.236146
-0.0458709
0.681072
0.329403
0.041245
0.52896
0.126857
0.531303
-0.213438
0.388633
0.176841
0.0233153
0.173575
0.222754
-0.0707891
0.0954603
0.138537
0.128737
0.775346
-0.39705
0.740395
0.0255219
-0.113159
0.0863691
0.0157685
0.0386153
-0.124311
0.0503081
-0.0841811
0.0250356
0.0213172
-0.0641075
0.0958607
-0.0685958
0.0997136
-0.0879934
0.111368
0.0369514
-0.00577381
0.0868477
-0.0302475
0.0976226
0.00842383
0.0771354
-0.0823015
0.110547
0.0201449
0.0360509
0.0657971
-0.0666892
0.0175454
-0.0405926
-0.0694649
0.127574
0.0239093
0.0744155
-0.0237971
0.121046
-0.0929699
0.100661
-0.0552674
0.136322
-0.0918639
0.107625
-0.0755483
0.0459186
-0.0546017
0.118083
-0.0438188
0.112176
-0.148426
0.0752857
-0.0589975
-0.155633
0.0953728
-0.0841916
-0.512939
0.239241
0.0119812
-0.283295
0.580382
-0.038716
0.655814
-0.325595
0.684559
0.261217
-0.398164
0.484202
-0.346522
0.28662
-0.404676
0.237558
-0.30882
0.102435
-0.306963
0.117898
0.120715
-0.267538
-0.213422
0.120459
-0.119203
0.615999
0.595701
0.516578
0.259936
0.527158
-0.214156
0.0613354
-0.149117
-0.0298902
-0.0192608
-0.141238
-0.168087
0.0250803
-0.181262
0.0763057
0.221883
-0.167261
-0.107054
-0.0206422
-0.0390613
-0.139837
-0.131947
0.116696
0.327343
0.00686738
0.592781
0.581711
0.0055946
0.483899
0.149793
0.281164
0.39805
0.499401
0.0927922
0.304522
0.341728
-0.165314
0.558694
-0.0295324
0.255873
-0.0540782
0.179027
-0.197107
0.11143
0.113575
0.204567
-0.0246845
0.271027
-0.0679055
0.232101
0.202613
0.151381
0.0986018
0.373121
0.00623247
0.157372
0.267757
0.0565024
0.158696
0.284022
0.42374
-0.0943372
0.464985
0.655817
0.815325
0.294296
-0.0202655
0.153304
0.102786
-0.0989858
0.194446
0.216298
-0.0777616
0.234345
-0.105608
0.524722
0.250624
0.424838
0.315557
-0.0836363
0.109158
0.00273279
0.0997623
-0.0839939
0.107734
-0.069119
0.10936
-0.0590517
-0.0796422
0.104678
-0.0933713
0.114689
0.0162185
-0.102223
0.0336273
0.0117202
0.10111
0.0102582
-0.0652717
0.0810738
0.0708627
-0.0836493
0.0920731
0.0104461
-0.0993212
0.0170197
0.127425
-0.0168785
-0.0791763
0.0938482
-0.0577974
0.0845615
-0.0187644
-0.0764578
0.0940031
0.0685656
-0.0850173
0.108927
0.113331
-0.0389158
0.0972489
0.00769103
0.0810546
0.0157616
-0.120288
0.0447395
0.109819
-0.0639004
-0.131998
0.0773965
-0.133048
0.0892292
-0.0197716
-0.0567126
-0.146009
0.0870111
-0.0506358
0.0256273
0.499734
-0.260493
0.426554
-0.414573
0.143259
-0.460692
0.421976
0.195122
0.174139
-0.153355
0.0860384
-0.0599019
-0.167118
-0.255545
-0.0532744
-0.15311
-0.186248
0.315213
-0.197314
-0.14708
0.450685
0.0283269
0.567374
-0.0349569
0.551535
-0.452032
0.711968
0.075126
0.251394
-0.190058
0.102276
0.148229
-0.17812
0.182831
-0.202092
0.00699171
0.0537961
0.158066
-0.132985
0.142214
-0.0659085
-0.00919493
-0.140407
0.119765
-0.152265
0.113203
-0.0231413
0.631865
0.588578
0.594422
0.63746
0.765063
0.649194
0.739777
0.651486
-0.208698
0.179166
-0.211988
0.15791
-0.029671
-0.124991
0.236421
0.180156
-0.0665809
0.155471
-0.208632
0.140726
0.011775
0.220326
-0.0937795
0.296392
-0.143937
0.295317
0.252007
-0.153405
-0.304285
0.310517
-0.210802
0.368174
-0.145504
0.413261
-0.186938
0.24344
-0.0282419
-0.197214
0.662199
-0.0976216
0.753439
0.401609
0.413716
-0.155024
0.44932
-0.2135
0.193235
0.120951
0.0323528
0.223737
0.117313
-0.019054
0.156584
0.118129
0.535134
0.675462
0.717166
-0.0795054
0.0822382
0.020257
0.0237404
0.0402408
-0.118239
0.0591875
0.0113065
0.0494168
0.10078
0.0828377
-0.0492104
-0.0829414
0.0946616
-0.0989447
0.109203
-0.0371654
-0.0348854
0.105748
0.0437759
0.0660116
0.0260615
0.0843694
-0.0673497
-0.0935164
0.0766379
0.0146719
0.0555338
-0.100132
0.0813671
0.107118
-0.0131145
-0.0517222
0.0242404
0.096596
0.0123305
0.0576803
0.104514
-0.00726472
-0.0688545
0.0765455
0.0122002
-0.0733786
0.0891402
0.105711
-0.0609713
0.0406132
-0.0556515
0.142853
-0.0536241
0.123082
-0.136518
0.0798051
-0.0495065
0.0964785
-0.147114
0.0994691
-0.0738417
-0.410778
0.150286
-0.26752
0.57804
-0.156064
0.526516
-0.331394
0.484627
-0.310488
-0.309679
0.156324
-0.223641
-0.267763
0.207862
-0.262962
0.095844
0.183119
-0.236394
0.162103
0.0915512
-0.277799
-0.277472
0.0801573
-0.211772
0.0646922
-0.237535
0.68822
-0.665518
0.693845
0.532417
0.314
0.0464497
-0.57485
0.649976
-0.174722
-0.0153364
-0.109495
0.00471147
-0.213679
0.0115868
-0.16773
-0.159883
0.00922876
-0.161535
0.0956263
0.146205
-0.1554
-0.111115
-0.0292916
-0.0325001
-0.0483315
-0.134257
0.0559754
0.532603
-0.0985643
0.692986
0.560799
0.0766605
0.312904
0.452159
0.659416
-0.0102221
0.471503
0.268274
0.477417
0.174069
-0.0328221
0.208724
-0.0508139
-0.166326
0.136655
0.0682441
0.0700943
0.142143
0.193168
-0.0376965
0.0433748
0.258549
-0.117823
-0.196363
0.208138
0.126547
-0.00789231
0.114612
0.0989543
0.0900352
0.0997149
0.384753
-0.0165792
0.239249
0.258237
0.164926
0.252106
0.564577
0.186407
0.567032
0.600124
0.165355
-0.0565601
0.197708
0.163714
-0.0464011
0.14466
0.181627
-0.0250432
-0.0629025
0.181032
-0.271253
0.806386
0.404209
0.364071
0.353095
0.117752
-0.0355134
0.0996807
-0.0794237
0.0934528
-0.0697123
0.0997522
-0.0595114
0.0998667
-0.0406792
-0.0712183
0.0825247
0.100267
-0.0508504
0.0295618
-0.000103699
0.0510568
-0.00428308
0.0743176
0.0685826
0.0891948
-0.045419
-0.0769005
0.102962
-0.00914694
-0.116549
0.0491993
0.0995043
-0.0228665
-0.101877
-0.0463433
0.00698611
0.093505
-0.0121379
-0.093731
0.0806165
0.0660294
0.102263
-0.0783945
0.0907251
0.106268
-0.0485876
0.0943928
-0.101658
0.124496
-0.04795
0.0886642
-0.076464
0.0323321
0.128331
-0.0391912
-0.111451
0.0504801
0.109315
-0.0687014
-0.129296
0.0736442
-0.126126
0.0725022
-0.0111748
-0.0494906
-0.127228
0.0777212
-0.0307493
-0.0476452
0.0354729
0.445737
-0.295452
-0.431075
0.163556
0.00318958
0.370453
0.153232
0.13525
-0.274752
-0.324664
0.101024
-0.30454
0.0367766
-0.116803
-0.0798423
-0.208696
-0.074291
-0.185921
-0.213107
-0.176918
0.257075
0.410536
0.277684
0.435031
0.258814
0.393672
0.138745
0.707672
-0.448466
0.494916
0.20151
0.183358
-0.198694
0.169185
-0.278681
0.167428
-0.162717
0.21913
-0.207543
-0.000301937
-0.185081
0.0251985
-0.12885
0.138079
-0.0332234
-0.0388758
-0.0173218
-0.132318
0.103026
-0.140969
0.108469
-0.152349
0.104018
0.616775
0.434038
0.694416
0.548163
0.581178
-0.173677
0.625836
0.48574
0.467195
0.584606
-0.211461
0.178639
-0.17509
0.124276
-0.074806
-0.149962
0.218207
0.180409
-0.110315
0.212547
-0.0704045
0.174851
0.200717
-0.157342
0.0828945
0.118698
0.0894397
0.245245
0.237353
-0.160066
0.274678
-0.141057
0.240011
0.225916
-0.135881
0.265082
-0.165368
-0.281587
0.265008
-0.165903
0.405152