/*--------------------------------*- C++ -*----------------------------------*\
| =========                 |                                                 |
| \\      /  F ield         | OpenFOAM: The Open Source CFD Toolbox           |
|  \\    /   O peration     | Version:  v2012                                 |
|   \\  /    A nd           | Website:  www.openfoam.com                      |
|    \\/     M anipulation  |                                                 |
\*---------------------------------------------------------------------------*/
FoamFile
{
    version     2.0;
    format      ascii;
    class       volScalarField;
    location    "0.2";
    object      rAU;
}
// * * * * * * * * * * * * * * * * * * * * * * * * * * * * * * * * * * * * * //

dimensions      [-1 3 1 0 0 0 0];


internalField   nonuniform List<scalar> 
13611
(
1.93352e-07
1.91944e-07
1.96553e-07
1.9284e-07
1.93822e-07
1.93436e-07
1.94803e-07
1.94119e-07
1.90671e-07
1.94056e-07
1.93793e-07
1.94421e-07
1.9506e-07
1.96474e-07
1.86204e-07
1.9489e-07
1.94299e-07
1.93366e-07
1.95909e-07
1.92329e-07
1.94347e-07
1.85406e-07
1.86025e-07
1.89075e-07
1.89174e-07
1.94421e-07
1.94446e-07
1.95758e-07
1.96524e-07
1.87268e-07
1.88241e-07
1.8603e-07
1.89556e-07
1.94307e-07
1.95866e-07
1.92558e-07
1.92565e-07
1.943e-07
1.84804e-07
1.88525e-07
1.89306e-07
1.87892e-07
1.87877e-07
1.94016e-07
1.94698e-07
1.94182e-07
1.96489e-07
1.95977e-07
1.86118e-07
1.82103e-07
1.86398e-07
1.88374e-07
1.88041e-07
1.9e-07
1.93221e-07
1.9365e-07
1.9245e-07
1.95e-07
1.94313e-07
1.94699e-07
1.85814e-07
1.83258e-07
1.86541e-07
1.86456e-07
1.81729e-07
1.8622e-07
1.84886e-07
1.89438e-07
1.88603e-07
1.92139e-07
1.94272e-07
1.95068e-07
1.965e-07
1.94435e-07
1.8583e-07
1.8417e-07
1.84098e-07
1.81715e-07
1.86414e-07
1.85916e-07
1.85242e-07
1.88397e-07
1.9039e-07
1.87919e-07
1.92586e-07
1.94413e-07
1.94298e-07
1.94286e-07
1.93958e-07
1.85544e-07
1.78296e-07
1.83593e-07
1.85814e-07
1.8272e-07
1.792e-07
1.85652e-07
1.85023e-07
1.88463e-07
1.87484e-07
1.86027e-07
1.91318e-07
1.9365e-07
1.94429e-07
1.94631e-07
1.93912e-07
1.79875e-07
1.87473e-07
1.87382e-07
1.8588e-07
1.8304e-07
1.82499e-07
1.80927e-07
1.85649e-07
1.81984e-07
1.83891e-07
1.86194e-07
1.87909e-07
1.88127e-07
1.89629e-07
1.95993e-07
1.95862e-07
1.9425e-07
1.96589e-07
1.93829e-07
1.91931e-07
1.82373e-07
1.87363e-07
1.87548e-07
1.81086e-07
1.85088e-07
1.78468e-07
1.84898e-07
1.8309e-07
1.86349e-07
1.87936e-07
1.90285e-07
1.89185e-07
1.93449e-07
1.94757e-07
1.90155e-07
1.95802e-07
1.93369e-07
1.93715e-07
1.80173e-07
1.79661e-07
1.81098e-07
1.78919e-07
1.83039e-07
1.85681e-07
1.78878e-07
1.78266e-07
1.85464e-07
1.82219e-07
1.84017e-07
1.87174e-07
1.89986e-07
1.87838e-07
1.95637e-07
1.95602e-07
1.94781e-07
1.89666e-07
1.89513e-07
1.96595e-07
1.95792e-07
1.94036e-07
1.7741e-07
1.79374e-07
1.80102e-07
1.81895e-07
1.78338e-07
1.82221e-07
1.82449e-07
1.78075e-07
1.77454e-07
1.8302e-07
1.83042e-07
1.79256e-07
1.84052e-07
1.85326e-07
1.84899e-07
1.8775e-07
1.91799e-07
1.94274e-07
1.91261e-07
1.87048e-07
1.8913e-07
1.95508e-07
1.94919e-07
1.74841e-07
1.78043e-07
1.82532e-07
1.77451e-07
1.81088e-07
1.76954e-07
1.81529e-07
1.83706e-07
1.78058e-07
1.78466e-07
1.82939e-07
1.83814e-07
1.84719e-07
1.84511e-07
1.87426e-07
1.84097e-07
1.92812e-07
1.95469e-07
1.94185e-07
1.9222e-07
1.89208e-07
1.86096e-07
1.95507e-07
1.96601e-07
1.94909e-07
1.73392e-07
1.77138e-07
1.82127e-07
1.77779e-07
1.80464e-07
1.76939e-07
1.82117e-07
1.83967e-07
1.77387e-07
1.78453e-07
1.81954e-07
1.83213e-07
1.83909e-07
1.82323e-07
1.84888e-07
1.87873e-07
1.9529e-07
1.92745e-07
1.93196e-07
1.91046e-07
1.86285e-07
1.86027e-07
1.94555e-07
1.95637e-07
1.95089e-07
1.82972e-07
1.74996e-07
1.71588e-07
1.73933e-07
1.79503e-07
1.80364e-07
1.75835e-07
1.82899e-07
1.76575e-07
1.77363e-07
1.81354e-07
1.78127e-07
1.82241e-07
1.77307e-07
1.79442e-07
1.82087e-07
1.86e-07
1.86477e-07
1.95015e-07
1.93091e-07
1.91046e-07
1.92946e-07
1.87586e-07
1.89085e-07
1.87442e-07
1.95523e-07
1.94648e-07
1.96619e-07
1.82906e-07
1.74788e-07
1.79063e-07
1.71778e-07
1.74474e-07
1.78509e-07
1.78673e-07
1.78074e-07
1.76547e-07
1.79019e-07
1.75061e-07
1.77055e-07
1.7994e-07
1.78676e-07
1.81113e-07
1.80063e-07
1.79981e-07
1.81116e-07
1.8079e-07
1.87417e-07
1.96238e-07
1.96284e-07
1.9247e-07
1.92132e-07
1.88742e-07
1.88504e-07
1.86457e-07
1.87314e-07
1.93165e-07
1.95872e-07
1.93891e-07
1.77745e-07
1.76675e-07
1.78123e-07
1.7741e-07
1.72329e-07
1.75804e-07
1.75569e-07
1.78678e-07
1.77894e-07
1.7942e-07
1.75738e-07
1.76953e-07
1.69886e-07
1.75423e-07
1.815e-07
1.80308e-07
1.82483e-07
1.80401e-07
1.7925e-07
1.79513e-07
1.79441e-07
1.86146e-07
1.95369e-07
1.94703e-07
1.92731e-07
1.92225e-07
1.89825e-07
1.89594e-07
1.85136e-07
1.86315e-07
1.93346e-07
1.94607e-07
1.77699e-07
1.7657e-07
1.76333e-07
1.77745e-07
1.75583e-07
1.75445e-07
1.75446e-07
1.78008e-07
1.77812e-07
1.77062e-07
1.75296e-07
1.77021e-07
1.7228e-07
1.75019e-07
1.76935e-07
1.7948e-07
1.76393e-07
1.80708e-07
1.79805e-07
1.79342e-07
1.80026e-07
1.79282e-07
1.95274e-07
1.94944e-07
1.9527e-07
1.92813e-07
1.9142e-07
1.91016e-07
1.87889e-07
1.89258e-07
1.86536e-07
1.95731e-07
1.96678e-07
1.93809e-07
1.77268e-07
1.72073e-07
1.75845e-07
1.69299e-07
1.76126e-07
1.66409e-07
1.66817e-07
1.66581e-07
1.77987e-07
1.77791e-07
1.71031e-07
1.74892e-07
1.77418e-07
1.72163e-07
1.76811e-07
1.75418e-07
1.62606e-07
1.78294e-07
1.6746e-07
1.80728e-07
1.79838e-07
1.79239e-07
1.79118e-07
1.81699e-07
1.93639e-07
1.93117e-07
1.94189e-07
1.91863e-07
1.91448e-07
1.90387e-07
1.871e-07
1.88999e-07
1.83041e-07
1.96181e-07
1.94037e-07
1.95987e-07
1.77007e-07
1.74334e-07
1.65882e-07
1.72516e-07
1.71075e-07
1.70147e-07
1.75869e-07
1.66921e-07
1.74115e-07
1.76495e-07
1.76888e-07
1.7879e-07
1.77369e-07
1.7685e-07
1.79143e-07
1.72437e-07
1.74609e-07
1.77471e-07
1.80402e-07
1.79289e-07
1.79411e-07
1.75652e-07
1.81234e-07
1.95162e-07
1.93966e-07
1.92747e-07
1.95136e-07
1.94964e-07
1.9147e-07
1.91372e-07
1.85716e-07
1.87471e-07
1.80884e-07
1.81447e-07
1.81414e-07
1.94917e-07
1.94684e-07
1.96666e-07
1.95598e-07
1.95995e-07
1.95728e-07
1.72768e-07
1.71365e-07
1.71394e-07
1.7147e-07
1.72126e-07
1.72654e-07
1.75437e-07
1.75131e-07
1.7647e-07
1.76834e-07
1.7834e-07
1.76709e-07
1.73826e-07
1.68996e-07
1.74184e-07
1.78395e-07
1.70944e-07
1.77336e-07
1.81639e-07
1.79783e-07
1.77613e-07
1.76503e-07
1.70782e-07
1.94718e-07
1.93589e-07
1.918e-07
1.9323e-07
1.94961e-07
1.90302e-07
1.90519e-07
1.85473e-07
1.87675e-07
1.8374e-07
1.81996e-07
1.82071e-07
1.81192e-07
1.94323e-07
1.93793e-07
1.95509e-07
1.95973e-07
1.94803e-07
1.90796e-07
1.95695e-07
1.96435e-07
1.75563e-07
1.70776e-07
1.73843e-07
1.71172e-07
1.75706e-07
1.71497e-07
1.66786e-07
1.64757e-07
1.684e-07
1.75323e-07
1.75483e-07
1.7355e-07
1.76638e-07
1.6549e-07
1.74268e-07
1.70195e-07
1.7523e-07
1.70465e-07
1.81282e-07
1.78627e-07
1.77528e-07
1.74501e-07
1.73004e-07
1.95751e-07
1.92337e-07
1.93427e-07
1.91434e-07
1.96139e-07
1.94235e-07
1.89736e-07
1.86933e-07
1.85048e-07
1.87637e-07
1.83048e-07
1.82046e-07
1.82221e-07
1.82113e-07
1.96088e-07
1.96677e-07
1.9578e-07
1.95494e-07
1.95597e-07
1.94874e-07
1.96221e-07
1.90268e-07
1.95611e-07
1.95906e-07
1.74537e-07
1.72376e-07
1.69517e-07
1.71119e-07
1.73168e-07
1.71343e-07
1.68418e-07
1.67382e-07
1.65235e-07
1.76138e-07
1.75208e-07
1.73514e-07
1.75381e-07
1.65198e-07
1.67654e-07
1.77484e-07
1.67602e-07
1.67463e-07
1.72843e-07
1.72128e-07
1.8122e-07
1.75195e-07
1.77106e-07
1.75666e-07
1.72456e-07
1.93411e-07
1.91567e-07
1.91783e-07
1.95435e-07
1.93953e-07
1.8692e-07
1.85822e-07
1.82749e-07
1.80471e-07
1.863e-07
1.83139e-07
1.82087e-07
1.8229e-07
1.83021e-07
1.93468e-07
1.94253e-07
1.95854e-07
1.94877e-07
1.96168e-07
1.90511e-07
1.93585e-07
1.90033e-07
1.89036e-07
1.86415e-07
1.95924e-07
1.96424e-07
1.70444e-07
1.69633e-07
1.69986e-07
1.685e-07
1.70003e-07
1.67218e-07
1.62875e-07
1.6671e-07
1.72673e-07
1.70004e-07
1.67148e-07
1.67584e-07
1.75669e-07
1.68427e-07
1.6534e-07
1.69438e-07
1.73726e-07
1.72859e-07
1.69627e-07
1.72931e-07
1.73971e-07
1.81518e-07
1.78146e-07
1.78932e-07
1.7333e-07
1.69934e-07
1.94498e-07
1.92287e-07
1.88873e-07
1.88108e-07
1.90783e-07
1.94952e-07
1.94957e-07
1.88921e-07
1.87463e-07
1.83853e-07
1.82721e-07
1.86389e-07
1.82886e-07
1.81747e-07
1.81848e-07
1.80758e-07
1.95618e-07
1.94301e-07
1.95725e-07
1.95587e-07
1.9558e-07
1.94539e-07
1.92652e-07
1.90621e-07
1.95212e-07
1.89905e-07
1.91126e-07
1.86368e-07
1.944e-07
1.96224e-07
1.69788e-07
1.60932e-07
1.62626e-07
1.64337e-07
1.68441e-07
1.67252e-07
1.70172e-07
1.64116e-07
1.67401e-07
1.72228e-07
1.66776e-07
1.69846e-07
1.71656e-07
1.71675e-07
1.63373e-07
1.59518e-07
1.7223e-07
1.69104e-07
1.71123e-07
1.72995e-07
1.73766e-07
1.79897e-07
1.78723e-07
1.76842e-07
1.74264e-07
1.74255e-07
1.93216e-07
1.88891e-07
1.88937e-07
1.9058e-07
1.90236e-07
1.93797e-07
1.95599e-07
1.89115e-07
1.87838e-07
1.8758e-07
1.86023e-07
1.86211e-07
1.83052e-07
1.81515e-07
1.81314e-07
1.79833e-07
1.93666e-07
1.96729e-07
1.94531e-07
1.95386e-07
1.96e-07
1.94858e-07
1.88611e-07
1.89944e-07
1.93242e-07
1.9588e-07
1.88131e-07
1.91138e-07
1.87662e-07
1.9631e-07
1.96452e-07
1.70388e-07
1.70275e-07
1.64052e-07
1.68829e-07
1.64505e-07
1.64547e-07
1.65278e-07
1.57235e-07
1.66932e-07
1.67503e-07
1.67509e-07
1.68632e-07
1.68326e-07
1.6927e-07
1.71832e-07
1.60737e-07
1.63126e-07
1.66786e-07
1.7278e-07
1.64648e-07
1.72626e-07
1.73177e-07
1.74011e-07
1.80713e-07
1.76977e-07
1.71172e-07
1.76252e-07
1.75312e-07
1.94466e-07
1.93389e-07
1.93495e-07
1.90881e-07
1.90347e-07
1.94939e-07
1.95902e-07
1.86891e-07
1.88007e-07
1.87204e-07
1.84826e-07
1.86206e-07
1.8265e-07
1.80773e-07
1.77851e-07
1.76626e-07
1.95478e-07
1.96111e-07
1.9542e-07
1.95363e-07
1.95138e-07
1.93417e-07
1.90944e-07
1.90255e-07
1.91929e-07
1.95491e-07
1.88115e-07
1.86957e-07
1.87917e-07
1.87573e-07
1.94776e-07
1.6986e-07
1.67453e-07
1.6228e-07
1.67058e-07
1.67406e-07
1.62589e-07
1.64437e-07
1.69914e-07
1.61127e-07
1.69685e-07
1.66541e-07
1.68544e-07
1.6863e-07
1.693e-07
1.67015e-07
1.69563e-07
1.66343e-07
1.69283e-07
1.73414e-07
1.6916e-07
1.7293e-07
1.74111e-07
1.78182e-07
1.77673e-07
1.74441e-07
1.72979e-07
1.71239e-07
1.93937e-07
1.93486e-07
1.93458e-07
1.9168e-07
1.86299e-07
1.95099e-07
1.96039e-07
1.87575e-07
1.88599e-07
1.84366e-07
1.85204e-07
1.82998e-07
1.83352e-07
1.82902e-07
1.8044e-07
1.75686e-07
1.76842e-07
1.73727e-07
1.9606e-07
1.96737e-07
1.93735e-07
1.95764e-07
1.94296e-07
1.95425e-07
1.90082e-07
1.87247e-07
1.89267e-07
1.92417e-07
1.91728e-07
1.95275e-07
1.94915e-07
1.85672e-07
1.86299e-07
1.88364e-07
1.86086e-07
1.96435e-07
1.95859e-07
1.6482e-07
1.68716e-07
1.68319e-07
1.62496e-07
1.67615e-07
1.63791e-07
1.70882e-07
1.69845e-07
1.60413e-07
1.69603e-07
1.65408e-07
1.66551e-07
1.66701e-07
1.7117e-07
1.68058e-07
1.64475e-07
1.70151e-07
1.66323e-07
1.65867e-07
1.70198e-07
1.60438e-07
1.6754e-07
1.75289e-07
1.69785e-07
1.77619e-07
1.76498e-07
1.73916e-07
1.6916e-07
1.69231e-07
1.92487e-07
1.93092e-07
1.92286e-07
1.91964e-07
1.91598e-07
1.86205e-07
1.84135e-07
1.95176e-07
1.95695e-07
1.82851e-07
1.81714e-07
1.84273e-07
1.84922e-07
1.83016e-07
1.82742e-07
1.82508e-07
1.806e-07
1.79382e-07
1.77157e-07
1.95898e-07
1.95838e-07
1.95582e-07
1.96257e-07
1.95826e-07
1.95383e-07
1.94713e-07
1.86297e-07
1.85707e-07
1.88136e-07
1.90583e-07
1.85972e-07
1.94651e-07
1.93106e-07
1.85078e-07
1.83833e-07
1.81036e-07
1.85696e-07
1.94956e-07
1.9572e-07
1.72009e-07
1.6866e-07
1.68256e-07
1.68662e-07
1.69272e-07
1.70909e-07
1.63976e-07
1.67115e-07
1.67498e-07
1.64824e-07
1.6512e-07
1.66755e-07
1.70432e-07
1.72221e-07
1.67202e-07
1.6539e-07
1.65356e-07
1.59024e-07
1.63893e-07
1.68858e-07
1.72997e-07
1.65326e-07
1.6425e-07
1.79011e-07
1.78723e-07
1.7463e-07
1.74454e-07
1.92965e-07
1.92669e-07
1.91882e-07
1.91712e-07
1.90139e-07
1.87678e-07
1.86497e-07
1.95934e-07
1.92791e-07
1.77096e-07
1.84721e-07
1.81735e-07
1.84225e-07
1.80159e-07
1.79734e-07
1.83722e-07
1.78993e-07
1.74886e-07
1.79804e-07
1.79572e-07
1.95818e-07
1.96741e-07
1.94896e-07
1.95102e-07
1.96401e-07
1.93738e-07
1.95542e-07
1.88286e-07
1.82206e-07
1.84466e-07
1.81959e-07
1.90614e-07
1.88455e-07
1.86688e-07
1.9531e-07
1.95186e-07
1.94669e-07
1.92301e-07
1.82301e-07
1.82248e-07
1.80663e-07
1.82352e-07
1.80153e-07
1.96495e-07
1.72115e-07
1.69937e-07
1.6694e-07
1.69454e-07
1.70172e-07
1.65634e-07
1.65105e-07
1.6687e-07
1.66749e-07
1.6613e-07
1.63879e-07
1.59432e-07
1.60556e-07
1.58171e-07
1.70864e-07
1.6661e-07
1.63966e-07
1.6522e-07
1.58527e-07
1.67305e-07
1.6337e-07
1.66071e-07
1.66109e-07
1.59971e-07
1.7688e-07
1.76873e-07
1.75315e-07
1.76044e-07
1.93884e-07
1.93843e-07
1.90852e-07
1.91035e-07
1.91455e-07
1.91412e-07
1.87242e-07
1.85886e-07
1.93305e-07
1.95365e-07
1.79505e-07
1.85802e-07
1.84244e-07
1.85012e-07
1.81304e-07
1.83999e-07
1.83969e-07
1.78989e-07
1.775e-07
1.76435e-07
1.77222e-07
1.95333e-07
1.95566e-07
1.96468e-07
1.95128e-07
1.95479e-07
1.95021e-07
1.94979e-07
1.86264e-07
1.83369e-07
1.83076e-07
1.82653e-07
1.88416e-07
1.91134e-07
1.86182e-07
1.94498e-07
1.92603e-07
1.952e-07
1.916e-07
1.81618e-07
1.78337e-07
1.82631e-07
1.83093e-07
1.95713e-07
1.61146e-07
1.69729e-07
1.66969e-07
1.63873e-07
1.65578e-07
1.59778e-07
1.65685e-07
1.68166e-07
1.65943e-07
1.55928e-07
1.67155e-07
1.6501e-07
1.65345e-07
1.63532e-07
1.61023e-07
1.61941e-07
1.65938e-07
1.56969e-07
1.5944e-07
1.62575e-07
1.72625e-07
1.6585e-07
1.68642e-07
1.69968e-07
1.71884e-07
1.74639e-07
1.69398e-07
1.69138e-07
1.71223e-07
1.70841e-07
1.93632e-07
1.94707e-07
1.91736e-07
1.89602e-07
1.91124e-07
1.90382e-07
1.89576e-07
1.83143e-07
1.94973e-07
1.94708e-07
1.85047e-07
1.8266e-07
1.83218e-07
1.8184e-07
1.81817e-07
1.81715e-07
1.77609e-07
1.73767e-07
1.79727e-07
1.69672e-07
1.71461e-07
1.72775e-07
1.95634e-07
1.96744e-07
1.95173e-07
1.95124e-07
1.94363e-07
1.96347e-07
1.94326e-07
1.83658e-07
1.85291e-07
1.82988e-07
1.83404e-07
1.87206e-07
1.87079e-07
1.9066e-07
1.91718e-07
1.85745e-07
1.94266e-07
1.93141e-07
1.95744e-07
1.95203e-07
1.85656e-07
1.83311e-07
1.82051e-07
1.96514e-07
1.64374e-07
1.58865e-07
1.63443e-07
1.63482e-07
1.61956e-07
1.61297e-07
1.66489e-07
1.69048e-07
1.65463e-07
1.62986e-07
1.66347e-07
1.62185e-07
1.60834e-07
1.63219e-07
1.65591e-07
1.6161e-07
1.65844e-07
1.56303e-07
1.59914e-07
1.54353e-07
1.54069e-07
1.59932e-07
1.73021e-07
1.69436e-07
1.70155e-07
1.7303e-07
1.70829e-07
1.72362e-07
1.71177e-07
1.71118e-07
1.69119e-07
1.69365e-07
1.9492e-07
1.94051e-07
1.94732e-07
1.93358e-07
1.91804e-07
1.90191e-07
1.87301e-07
1.88159e-07
1.86073e-07
1.9422e-07
1.9634e-07
1.84593e-07
1.8109e-07
1.85345e-07
1.81525e-07
1.80469e-07
1.78466e-07
1.75061e-07
1.79234e-07
1.72214e-07
1.76458e-07
1.74403e-07
1.71772e-07
1.70803e-07
1.92717e-07
1.95598e-07
1.94922e-07
1.94886e-07
1.93615e-07
1.95639e-07
1.96321e-07
1.94453e-07
1.81949e-07
1.83966e-07
1.82951e-07
1.81652e-07
1.86975e-07
1.86014e-07
1.885e-07
1.90641e-07
1.82463e-07
1.93578e-07
1.93517e-07
1.93291e-07
1.92176e-07
1.85426e-07
1.77182e-07
1.80456e-07
1.8135e-07
1.77406e-07
1.95278e-07
1.59958e-07
1.63426e-07
1.61336e-07
1.66218e-07
1.59753e-07
1.61038e-07
1.5999e-07
1.65524e-07
1.6395e-07
1.63135e-07
1.59102e-07
1.62619e-07
1.60017e-07
1.60552e-07
1.53443e-07
1.63138e-07
1.63191e-07
1.65643e-07
1.60676e-07
1.55446e-07
1.58237e-07
1.68978e-07
1.69786e-07
1.63336e-07
1.70712e-07
1.68077e-07
1.71876e-07
1.76418e-07
1.74117e-07
1.6534e-07
1.68301e-07
1.9474e-07
1.93769e-07
1.93912e-07
1.92437e-07
1.916e-07
1.90002e-07
1.84276e-07
1.8591e-07
1.86648e-07
1.86083e-07
1.93861e-07
1.9514e-07
1.8101e-07
1.76609e-07
1.85406e-07
1.79297e-07
1.80357e-07
1.78365e-07
1.75762e-07
1.79317e-07
1.78491e-07
1.77924e-07
1.73937e-07
1.71209e-07
1.66461e-07
1.95464e-07
1.96747e-07
1.95371e-07
1.95715e-07
1.93159e-07
1.94035e-07
1.9589e-07
1.96557e-07
1.79363e-07
1.82613e-07
1.81398e-07
1.80124e-07
1.84082e-07
1.85554e-07
1.82312e-07
1.82218e-07
1.88212e-07
1.90124e-07
1.91911e-07
1.81397e-07
1.78948e-07
1.95798e-07
1.94698e-07
1.95789e-07
1.94884e-07
1.94196e-07
1.77492e-07
1.80992e-07
1.80515e-07
1.79307e-07
1.95714e-07
1.64737e-07
1.63393e-07
1.61935e-07
1.63015e-07
1.60596e-07
1.59995e-07
1.59465e-07
1.58845e-07
1.56572e-07
1.61855e-07
1.61548e-07
1.51719e-07
1.52227e-07
1.53689e-07
1.58055e-07
1.5973e-07
1.56776e-07
1.53772e-07
1.63744e-07
1.65185e-07
1.54387e-07
1.609e-07
1.689e-07
1.63043e-07
1.62532e-07
1.60262e-07
1.66581e-07
1.67562e-07
1.72103e-07
1.73878e-07
1.73959e-07
1.67333e-07
1.66554e-07
1.92391e-07
1.9145e-07
1.92397e-07
1.93574e-07
1.93275e-07
1.92128e-07
1.90201e-07
1.90187e-07
1.84773e-07
1.85921e-07
1.87638e-07
1.85241e-07
1.95867e-07
1.95974e-07
1.94722e-07
1.81315e-07
1.7967e-07
1.85202e-07
1.79309e-07
1.7981e-07
1.7573e-07
1.75704e-07
1.78285e-07
1.75899e-07
1.78464e-07
1.77755e-07
1.69454e-07
1.74722e-07
1.92329e-07
1.94598e-07
1.93652e-07
1.94262e-07
1.94246e-07
1.94315e-07
1.96612e-07
1.82301e-07
1.79574e-07
1.78791e-07
1.83839e-07
1.85469e-07
1.85493e-07
1.82368e-07
1.83781e-07
1.86588e-07
1.90262e-07
1.81394e-07
1.84762e-07
1.92847e-07
1.95065e-07
1.94241e-07
1.93317e-07
1.92001e-07
1.78341e-07
1.82166e-07
1.79119e-07
1.80158e-07
1.80024e-07
1.96604e-07
1.9482e-07
1.66882e-07
1.65452e-07
1.60952e-07
1.61337e-07
1.60429e-07
1.56282e-07
1.57257e-07
1.59376e-07
1.57873e-07
1.60051e-07
1.53099e-07
1.57742e-07
1.56591e-07
1.54867e-07
1.59357e-07
1.58584e-07
1.62342e-07
1.50348e-07
1.47959e-07
1.67155e-07
1.59462e-07
1.57447e-07
1.61219e-07
1.63512e-07
1.65979e-07
1.63165e-07
1.60512e-07
1.54667e-07
1.64819e-07
1.61557e-07
1.65885e-07
1.64262e-07
1.61795e-07
1.67253e-07
1.68198e-07
1.64977e-07
1.93112e-07
1.93364e-07
1.94262e-07
1.93958e-07
1.92543e-07
1.93017e-07
1.91195e-07
1.90415e-07
1.85913e-07
1.82066e-07
1.85276e-07
1.86264e-07
1.94193e-07
1.94515e-07
1.95179e-07
1.94627e-07
1.82183e-07
1.84989e-07
1.80034e-07
1.78925e-07
1.75708e-07
1.73618e-07
1.75862e-07
1.73741e-07
1.70792e-07
1.74496e-07
1.7812e-07
1.74779e-07
1.9418e-07
1.94369e-07
1.95939e-07
1.95767e-07
1.93888e-07
1.93938e-07
1.95289e-07
1.82038e-07
1.78353e-07
1.73675e-07
1.78335e-07
1.81591e-07
1.83207e-07
1.84396e-07
1.84682e-07
1.82136e-07
1.85424e-07
1.89754e-07
1.90646e-07
1.81163e-07
1.84234e-07
1.94875e-07
1.93279e-07
1.94987e-07
1.938e-07
1.88246e-07
1.79903e-07
1.79999e-07
1.80269e-07
1.79189e-07
1.7975e-07
1.9638e-07
1.94508e-07
1.63936e-07
1.62121e-07
1.58802e-07
1.57004e-07
1.57344e-07
1.50046e-07
1.52482e-07
1.56492e-07
1.58227e-07
1.48511e-07
1.5878e-07
1.49328e-07
1.56525e-07
1.57278e-07
1.58272e-07
1.65647e-07
1.54173e-07
1.59939e-07
1.48887e-07
1.54515e-07
1.6577e-07
1.5747e-07
1.58874e-07
1.57941e-07
1.65663e-07
1.5745e-07
1.59623e-07
1.59521e-07
1.63148e-07
1.58411e-07
1.61056e-07
1.60074e-07
1.65201e-07
1.65676e-07
1.65012e-07
1.65104e-07
1.66385e-07
1.66316e-07
1.92962e-07
1.91789e-07
1.94424e-07
1.95212e-07
1.92622e-07
1.90957e-07
1.90652e-07
1.87771e-07
1.88917e-07
1.84213e-07
1.84316e-07
1.83109e-07
1.77815e-07
1.95239e-07
1.95048e-07
1.94529e-07
1.91369e-07
1.79378e-07
1.77951e-07
1.78453e-07
1.76525e-07
1.72388e-07
1.70165e-07
1.7645e-07
1.74504e-07
1.7636e-07
1.72629e-07
1.70451e-07
1.70878e-07
1.93935e-07
1.96747e-07
1.93731e-07
1.96375e-07
1.92875e-07
1.95774e-07
1.94164e-07
1.93771e-07
1.82268e-07
1.7818e-07
1.77136e-07
1.78842e-07
1.81474e-07
1.83579e-07
1.84468e-07
1.84487e-07
1.78062e-07
1.86691e-07
1.87071e-07
1.90958e-07
1.82558e-07
1.78453e-07
1.9235e-07
1.91963e-07
1.93497e-07
1.96216e-07
1.9002e-07
1.79768e-07
1.74333e-07
1.78112e-07
1.81249e-07
1.78011e-07
1.78204e-07
1.95686e-07
1.93979e-07
1.53475e-07
1.58394e-07
1.60129e-07
1.58282e-07
1.58584e-07
1.5154e-07
1.55555e-07
1.57153e-07
1.52205e-07
1.54558e-07
1.57314e-07
1.52722e-07
1.56556e-07
1.57042e-07
1.63877e-07
1.56935e-07
1.61605e-07
1.58715e-07
1.55712e-07
1.49631e-07
1.56829e-07
1.55102e-07
1.52268e-07
1.58567e-07
1.56118e-07
1.60198e-07
1.59984e-07
1.58003e-07
1.60762e-07
1.64874e-07
1.65748e-07
1.66558e-07
1.65119e-07
1.65588e-07
1.64538e-07
1.66916e-07
1.6649e-07
1.66378e-07
1.93633e-07
1.88102e-07
1.89449e-07
1.97039e-07
1.94736e-07
1.93405e-07
1.88204e-07
1.88867e-07
1.87298e-07
1.88532e-07
1.87207e-07
1.8457e-07
1.83765e-07
1.80953e-07
1.9474e-07
1.95016e-07
1.94743e-07
1.95295e-07
1.9192e-07
1.77784e-07
1.78997e-07
1.76794e-07
1.79898e-07
1.7235e-07
1.73659e-07
1.75115e-07
1.72318e-07
1.75492e-07
1.70542e-07
1.68856e-07
1.68332e-07
1.7094e-07
1.92041e-07
1.96024e-07
1.94058e-07
1.96576e-07
1.94247e-07
1.94605e-07
1.95261e-07
1.9523e-07
1.79248e-07
1.77418e-07
1.78045e-07
1.78993e-07
1.72046e-07
1.75069e-07
1.83859e-07
1.84097e-07
1.87563e-07
1.84679e-07
1.8215e-07
1.87689e-07
1.89986e-07
1.90269e-07
1.78849e-07
1.75974e-07
1.94179e-07
1.90031e-07
1.93061e-07
1.96127e-07
1.94334e-07
1.90907e-07
1.79488e-07
1.75215e-07
1.76924e-07
1.78087e-07
1.77196e-07
1.76911e-07
1.9282e-07
1.93698e-07
1.53133e-07
1.64624e-07
1.59912e-07
1.57977e-07
1.60028e-07
1.54218e-07
1.57542e-07
1.53047e-07
1.5235e-07
1.55564e-07
1.5012e-07
1.54119e-07
1.57653e-07
1.55302e-07
1.64778e-07
1.46948e-07
1.54478e-07
1.55201e-07
1.58199e-07
1.54337e-07
1.64908e-07
1.47904e-07
1.62423e-07
1.5717e-07
1.59125e-07
1.63919e-07
1.65402e-07
1.53595e-07
1.66835e-07
1.61019e-07
1.6815e-07
1.65601e-07
1.66436e-07
1.67446e-07
1.66345e-07
1.66317e-07
1.69308e-07
1.69313e-07
1.93963e-07
1.89252e-07
1.92791e-07
1.97427e-07
1.93331e-07
1.95183e-07
1.89062e-07
1.8862e-07
1.9122e-07
1.86251e-07
1.8358e-07
1.85202e-07
1.83052e-07
1.84966e-07
1.81238e-07
1.95793e-07
1.96415e-07
1.943e-07
1.93507e-07
1.96357e-07
1.77592e-07
1.8042e-07
1.75316e-07
1.79434e-07
1.79039e-07
1.80084e-07
1.7438e-07
1.67813e-07
1.76164e-07
1.70921e-07
1.68039e-07
1.69655e-07
1.94124e-07
1.95968e-07
1.96731e-07
1.93972e-07
1.94917e-07
1.96355e-07
1.94346e-07
1.94305e-07
1.79239e-07
1.76373e-07
1.80741e-07
1.74267e-07
1.75014e-07
1.75745e-07
1.82128e-07
1.82924e-07
1.83568e-07
1.81574e-07
1.80628e-07
1.87728e-07
1.85901e-07
1.90814e-07
1.76714e-07
1.79672e-07
1.92392e-07
1.94813e-07
1.94453e-07
1.9082e-07
1.78325e-07
1.76013e-07
1.71315e-07
1.72789e-07
1.76876e-07
1.76097e-07
1.78834e-07
1.96574e-07
1.93667e-07
1.93992e-07
1.64339e-07
1.51287e-07
1.56313e-07
1.55164e-07
1.55653e-07
1.61443e-07
1.53393e-07
1.51662e-07
1.5076e-07
1.55228e-07
1.51437e-07
1.53272e-07
1.46914e-07
1.54337e-07
1.59115e-07
1.51254e-07
1.5271e-07
1.5364e-07
1.4941e-07
1.46948e-07
1.63885e-07
1.52948e-07
1.62533e-07
1.56948e-07
1.49696e-07
1.54789e-07
1.65905e-07
1.63092e-07
1.61017e-07
1.64907e-07
1.59482e-07
1.63783e-07
1.66674e-07
1.67712e-07
1.68047e-07
1.66018e-07
1.67819e-07
1.67765e-07
1.66339e-07
1.94934e-07
1.94732e-07
1.93086e-07
1.95058e-07
1.95634e-07
1.93333e-07
1.92143e-07
1.93419e-07
1.87985e-07
1.84732e-07
1.80972e-07
1.84375e-07
1.86278e-07
1.80932e-07
1.94482e-07
1.96464e-07
1.94098e-07
1.93799e-07
1.96611e-07
1.97149e-07
1.81686e-07
1.81634e-07
1.78991e-07
1.78062e-07
1.79203e-07
1.79658e-07
1.70148e-07
1.62035e-07
1.76631e-07
1.68286e-07
1.68749e-07
1.66694e-07
1.69366e-07
1.93418e-07
1.95807e-07
1.96015e-07
1.94866e-07
1.95872e-07
1.9283e-07
1.94012e-07
1.77377e-07
1.76008e-07
1.79498e-07
1.76755e-07
1.72479e-07
1.75431e-07
1.76163e-07
1.77416e-07
1.75054e-07
1.83451e-07
1.80285e-07
1.83916e-07
1.79703e-07
1.81009e-07
1.79401e-07
1.85653e-07
1.87674e-07
1.89298e-07
1.90588e-07
1.80738e-07
1.92978e-07
1.94999e-07
1.94041e-07
1.95037e-07
1.78074e-07
1.74522e-07
1.75595e-07
1.77606e-07
1.78756e-07
1.7553e-07
1.92564e-07
1.93109e-07
1.94541e-07
1.49668e-07
1.53256e-07
1.55812e-07
1.54033e-07
1.52842e-07
1.59546e-07
1.56934e-07
1.51718e-07
1.53315e-07
1.42896e-07
1.60502e-07
1.51011e-07
1.52304e-07
1.4896e-07
1.58107e-07
1.47541e-07
1.45524e-07
1.49732e-07
1.47568e-07
1.53149e-07
1.49527e-07
1.49445e-07
1.49574e-07
1.58147e-07
1.58208e-07
1.50748e-07
1.45401e-07
1.64461e-07
1.53358e-07
1.64095e-07
1.52243e-07
1.48944e-07
1.54025e-07
1.59644e-07
1.67192e-07
1.69219e-07
1.71019e-07
1.65779e-07
1.66621e-07
1.68502e-07
1.57999e-07
1.56612e-07
1.94998e-07
1.95194e-07
1.95585e-07
1.93574e-07
1.96588e-07
1.95554e-07
1.93718e-07
1.93234e-07
1.90276e-07
1.90866e-07
1.83973e-07
1.8735e-07
1.85271e-07
1.8501e-07
1.79672e-07
1.87e-07
1.95547e-07
1.94485e-07
1.95677e-07
1.9282e-07
1.96784e-07
1.94486e-07
1.82243e-07
1.78776e-07
1.79049e-07
1.78016e-07
1.79019e-07
1.72335e-07
1.6928e-07
1.67801e-07
1.68576e-07
1.69475e-07
1.68088e-07
1.6842e-07
1.66004e-07
1.93649e-07
1.95873e-07
1.96723e-07
1.9593e-07
1.9428e-07
1.96407e-07
1.96069e-07
1.9585e-07
1.95266e-07
1.76942e-07
1.75146e-07
1.72624e-07
1.78816e-07
1.74234e-07
1.76198e-07
1.76246e-07
1.78186e-07
1.78613e-07
1.82843e-07
1.79056e-07
1.84149e-07
1.78572e-07
1.80643e-07
1.8039e-07
1.85461e-07
1.87609e-07
1.87146e-07
1.88195e-07
1.77202e-07
1.90567e-07
1.93075e-07
1.95343e-07
1.95248e-07
1.77805e-07
1.76723e-07
1.75012e-07
1.73404e-07
1.77729e-07
1.69693e-07
1.723e-07
1.92425e-07
1.94059e-07
1.94969e-07
1.53082e-07
1.57741e-07
1.53186e-07
1.49673e-07
1.50514e-07
1.499e-07
1.53852e-07
1.56376e-07
1.53304e-07
1.51734e-07
1.60901e-07
1.59177e-07
1.50971e-07
1.49262e-07
1.41458e-07
1.52173e-07
1.47583e-07
1.57562e-07
1.48281e-07
1.5839e-07
1.47693e-07
1.49816e-07
1.47386e-07
1.48135e-07
1.55194e-07
1.53497e-07
1.50711e-07
1.61409e-07
1.5888e-07
1.55995e-07
1.55583e-07
1.54407e-07
1.51757e-07
1.51604e-07
1.6656e-07
1.65362e-07
1.70126e-07
1.65775e-07
1.64408e-07
1.66117e-07
1.6348e-07
1.58284e-07
1.94585e-07
1.94622e-07
1.96308e-07
1.96388e-07
1.95878e-07
1.94227e-07
1.94546e-07
1.92865e-07
1.93083e-07
1.93108e-07
1.8562e-07
1.89035e-07
1.85207e-07
1.82028e-07
1.85058e-07
1.87313e-07
1.83059e-07
1.94183e-07
1.95476e-07
1.96202e-07
1.92147e-07
1.94413e-07
1.9627e-07
1.7976e-07
1.72266e-07
1.77105e-07
1.75727e-07
1.78913e-07
1.70258e-07
1.68859e-07
1.66154e-07
1.6967e-07
1.61385e-07
1.66541e-07
1.67641e-07
1.66954e-07
1.93592e-07
1.92746e-07
1.96295e-07
1.93694e-07
1.94077e-07
1.95179e-07
1.95452e-07
1.93692e-07
1.94426e-07
1.765e-07
1.71393e-07
1.76401e-07
1.7613e-07
1.75018e-07
1.77209e-07
1.75043e-07
1.77634e-07
1.7882e-07
1.80878e-07
1.83448e-07
1.80677e-07
1.79602e-07
1.74964e-07
1.76923e-07
1.83116e-07
1.78923e-07
1.83356e-07
1.87348e-07
1.86178e-07
1.88843e-07
1.75529e-07
1.91779e-07
1.93046e-07
1.92163e-07
1.94177e-07
1.95656e-07
1.70039e-07
1.76793e-07
1.74656e-07
1.71169e-07
1.7329e-07
1.73058e-07
1.7176e-07
1.96625e-07
1.93246e-07
1.93859e-07
1.95164e-07
1.58798e-07
1.5666e-07
1.50048e-07
1.49201e-07
1.47054e-07
1.53683e-07
1.56798e-07
1.55314e-07
1.52797e-07
1.38841e-07
1.5576e-07
1.49817e-07
1.47238e-07
1.49469e-07
1.51902e-07
1.50373e-07
1.53421e-07
1.47496e-07
1.52614e-07
1.46198e-07
1.43106e-07
1.48254e-07
1.49953e-07
1.52588e-07
1.54909e-07
1.51598e-07
1.62013e-07
1.57716e-07
1.55305e-07
1.5376e-07
1.5481e-07
1.56944e-07
1.47273e-07
1.6616e-07
1.61151e-07
1.56953e-07
1.65638e-07
1.63866e-07
1.57587e-07
1.57775e-07
1.60729e-07
1.61752e-07
1.92655e-07
1.91749e-07
1.9415e-07
1.96217e-07
1.96258e-07
1.95416e-07
1.94877e-07
1.92808e-07
1.91067e-07
1.93468e-07
1.92713e-07
1.83136e-07
1.93465e-07
1.82525e-07
1.80066e-07
1.85817e-07
1.91984e-07
1.88346e-07
1.9219e-07
1.95255e-07
1.96481e-07
1.96002e-07
1.95644e-07
1.95564e-07
1.96135e-07
1.81953e-07
1.77704e-07
1.77782e-07
1.7703e-07
1.70487e-07
1.703e-07
1.69197e-07
1.69329e-07
1.63652e-07
1.66642e-07
1.67626e-07
1.67183e-07
1.95146e-07
1.92709e-07
1.96712e-07
1.96239e-07
1.94303e-07
1.95191e-07
1.95768e-07
1.9581e-07
1.95578e-07
1.95466e-07
1.76676e-07
1.76643e-07
1.73945e-07
1.72892e-07
1.77224e-07
1.74958e-07
1.75869e-07
1.77626e-07
1.78514e-07
1.76897e-07
1.82179e-07
1.79432e-07
1.81438e-07
1.78724e-07
1.75004e-07
1.83416e-07
1.81095e-07
1.82644e-07
1.83445e-07
1.89644e-07
1.87092e-07
1.70226e-07
1.91626e-07
1.92018e-07
1.9321e-07
1.93747e-07
1.94538e-07
1.69559e-07
1.71062e-07
1.66763e-07
1.73846e-07
1.75268e-07
1.73131e-07
1.72542e-07
1.71996e-07
1.92336e-07
1.92743e-07
1.94663e-07
1.95724e-07
1.54321e-07
1.47972e-07
1.48571e-07
1.41807e-07
1.48513e-07
1.41836e-07
1.49106e-07
1.54622e-07
1.55836e-07
1.53383e-07
1.45538e-07
1.32708e-07
1.49031e-07
1.52639e-07
1.52772e-07
1.52035e-07
1.56333e-07
1.50372e-07
1.45465e-07
1.46249e-07
1.45645e-07
1.51315e-07
1.55775e-07
1.43258e-07
1.54533e-07
1.52983e-07
1.52328e-07
1.56609e-07
1.60378e-07
1.57001e-07
1.48832e-07
1.51537e-07
1.51259e-07
1.54602e-07
1.57221e-07
1.64226e-07
1.59175e-07
1.60975e-07
1.65144e-07
1.63946e-07
1.62012e-07
1.59747e-07
1.60597e-07
1.61732e-07
1.93006e-07
1.93426e-07
1.95733e-07
1.95337e-07
1.94605e-07
1.94583e-07
1.90366e-07
1.9116e-07
1.92104e-07
1.90724e-07
1.88997e-07
1.91462e-07
1.85507e-07
1.80411e-07
1.77041e-07
1.90419e-07
1.92394e-07
1.92129e-07
1.94889e-07
1.95571e-07
1.95439e-07
1.95996e-07
1.95981e-07
1.95539e-07
1.78381e-07
1.80014e-07
1.70767e-07
1.70236e-07
1.66518e-07
1.79219e-07
1.7102e-07
1.69317e-07
1.69317e-07
1.66967e-07
1.66269e-07
1.67981e-07
1.67785e-07
1.94122e-07
1.93777e-07
1.9504e-07
1.92936e-07
1.94758e-07
1.94963e-07
1.94925e-07
1.95658e-07
1.94844e-07
1.94677e-07
1.757e-07
1.76101e-07
1.69898e-07
1.7452e-07
1.74309e-07
1.71746e-07
1.71715e-07
1.72356e-07
1.76448e-07
1.77372e-07
1.77447e-07
1.78568e-07
1.78451e-07
1.75231e-07
1.79277e-07
1.7883e-07
1.73682e-07
1.8662e-07
1.82513e-07
1.86642e-07
1.8693e-07
1.89853e-07
1.90761e-07
1.92272e-07
1.93302e-07
1.93213e-07
1.93947e-07
1.95052e-07
1.94336e-07
1.67799e-07
1.7076e-07
1.69296e-07
1.73564e-07
1.75446e-07
1.71643e-07
1.65605e-07
1.72317e-07
1.92165e-07
1.93818e-07
1.94136e-07
1.95638e-07
1.45256e-07
1.49254e-07
1.50364e-07
1.50172e-07
1.44255e-07
1.52542e-07
1.45581e-07
1.50641e-07
1.50335e-07
1.52487e-07
1.36669e-07
1.4704e-07
1.49317e-07
1.51731e-07
1.5403e-07
1.42846e-07
1.54752e-07
1.56289e-07
1.51461e-07
1.48734e-07
1.54877e-07
1.53431e-07
1.53747e-07
1.49297e-07
1.51935e-07
1.48237e-07
1.55153e-07
1.5402e-07
1.54841e-07
1.59403e-07
1.57801e-07
1.53569e-07
1.54835e-07
1.48296e-07
1.43467e-07
1.56587e-07
1.60505e-07
1.6623e-07
1.67818e-07
1.68354e-07
1.65969e-07
1.64065e-07
1.63429e-07
1.61521e-07
1.60557e-07
1.93413e-07
1.9215e-07
1.95393e-07
1.9626e-07
1.94813e-07
1.94343e-07