/*--------------------------------*- C++ -*----------------------------------*\
| =========                 |                                                 |
| \\      /  F ield         | OpenFOAM: The Open Source CFD Toolbox           |
|  \\    /   O peration     | Version:  v2012                                 |
|   \\  /    A nd           | Website:  www.openfoam.com                      |
|    \\/     M anipulation  |                                                 |
\*---------------------------------------------------------------------------*/
FoamFile
{
    version     2.0;
    format      ascii;
    class       volVectorField;
    location    "0.2";
    object      U;
}
// * * * * * * * * * * * * * * * * * * * * * * * * * * * * * * * * * * * * * //

dimensions      [0 1 -1 0 0 0 0];


internalField   nonuniform List<vector> 
13611
(
(8.09229 -0.0510307 0)
(8.13263 -0.0428716 0)
(8.13675 -0.185618 0)
(8.1697 -0.0908954 1.43311e-23)
(8.19386 -0.0866384 -7.01835e-23)
(8.20144 -0.0896117 5.21501e-24)
(8.10967 -0.0664487 2.16353e-22)
(8.17282 -0.131581 -1.4273e-22)
(8.22668 -0.0880445 2.87788e-24)
(8.19729 -0.0946711 -2.46245e-23)
(8.19981 -0.101621 3.82206e-23)
(8.08777 -0.0577926 -1.42928e-22)
(8.16755 -0.101839 -1.38346e-22)
(8.18826 -0.216331 -2.82313e-22)
(8.22337 -0.0983997 6.24356e-24)
(8.19907 -0.0972386 -1.36494e-23)
(8.20749 -0.107583 -4.05206e-23)
(8.19507 -0.102264 4.32093e-23)
(8.09295 -0.0391677 9.37518e-23)
(8.16746 -0.109871 2.01795e-23)
(8.18683 -0.140528 7.59936e-23)
(8.23894 -0.101206 0)
(8.23247 -0.107189 0)
(8.21842 -0.106088 -4.95713e-23)
(8.204 -0.11755 2.27669e-23)
(8.18898 -0.115 -4.18258e-23)
(8.11737 -0.0839097 2.08598e-22)
(8.17186 -0.115116 -4.59468e-23)
(8.15312 -0.17041 -1.29945e-22)
(8.24623 -0.106271 7.64655e-24)
(8.23011 -0.118621 -3.48163e-23)
(8.22236 -0.119803 -3.42418e-23)
(8.2093 -0.129189 -2.66398e-23)
(8.1928 -0.121894 2.63235e-23)
(8.18065 -0.119044 -4.24999e-23)
(8.10818 -0.0940112 7.2461e-23)
(8.15009 -0.113555 -1.51732e-23)
(8.17052 -0.139088 1.10173e-22)
(8.24563 -0.115651 1.25636e-24)
(8.23226 -0.128093 -3.70659e-23)
(8.21724 -0.129464 -1.92992e-23)
(8.20304 -0.137024 -5.12153e-24)
(8.1922 -0.133141 0)
(8.1776 -0.133476 1.61662e-23)
(8.08315 -0.108655 -2.8511e-23)
(8.15321 -0.120233 1.47543e-23)
(8.11273 -0.198961 0)
(8.10521 -0.107454 -3.15999e-23)
(8.24005 -0.126727 -4.08014e-23)
(8.25554 -0.118057 -4.30113e-24)
(8.22655 -0.138274 -8.22467e-24)
(8.2174 -0.138489 6.87825e-24)
(8.20029 -0.144616 1.53834e-23)
(8.18578 -0.139901 0)
(8.17915 -0.140727 1.24569e-23)
(8.16985 -0.136521 2.5011e-23)
(8.11885 -0.126158 0)
(8.15932 -0.1305 3.8289e-23)
(8.12775 -0.144054 0)
(8.12317 -0.0958395 8.32804e-26)
(8.24771 -0.136144 8.91661e-24)
(8.25714 -0.131543 1.28797e-23)
(8.22749 -0.148742 1.20222e-23)
(8.21104 -0.148434 -3.07597e-25)
(8.27475 -0.126301 -2.52938e-24)
(8.19339 -0.151923 5.63428e-24)
(8.2045 -0.149577 1.52958e-23)
(8.18629 -0.150841 0)
(8.17438 -0.149129 5.1251e-24)
(8.16362 -0.147423 -2.69997e-23)
(8.1139 -0.132759 0)
(8.15328 -0.134728 1.09198e-23)
(8.05595 -0.199947 -2.41639e-22)
(8.11722 -0.121409 0)
(8.24565 -0.14816 0)
(8.26561 -0.134411 0)
(8.22099 -0.157441 1.94491e-23)
(8.23693 -0.152768 1.89558e-23)
(8.2127 -0.158233 1.71561e-23)
(8.1929 -0.160162 0)
(8.19957 -0.158997 8.05407e-24)
(8.18014 -0.159885 -2.4736e-23)
(8.1661 -0.152213 -3.1135e-23)
(8.17442 -0.159297 -2.41084e-23)
(8.15568 -0.15066 8.53447e-24)
(8.12759 -0.133511 0)
(8.15207 -0.146395 -1.0344e-24)
(8.07058 -0.184432 2.63432e-22)
(8.11919 -0.125079 -2.26162e-23)
(8.2559 -0.158371 3.48739e-24)
(8.26793 -0.143246 0)
(8.2252 -0.166938 0)
(8.23476 -0.165047 1.89125e-24)
(8.20883 -0.167165 -4.87082e-25)
(8.28392 -0.143612 0)
(8.18736 -0.167943 -1.52641e-23)
(8.20047 -0.166219 -8.37178e-24)
(8.18022 -0.168053 -7.75478e-25)
(8.16168 -0.160909 0)
(8.16769 -0.165468 0)
(8.14898 -0.159542 2.01158e-23)
(8.12285 -0.129867 3.1861e-23)
(8.14524 -0.150257 0)
(8.06804 -0.117188 -4.36535e-22)
(8.13044 -0.132609 -8.14882e-23)
(8.2664 -0.154934 -1.14604e-23)
(8.25445 -0.171776 4.59745e-24)
(8.21901 -0.17749 -3.02616e-24)
(8.24198 -0.174146 0)
(8.21141 -0.178243 -5.09789e-25)
(8.29188 -0.152787 9.00991e-25)
(8.30362 -0.153731 2.1255e-24)
(8.18828 -0.177032 -2.09073e-24)
(8.19621 -0.176183 -1.01486e-23)
(8.17495 -0.1746 1.40855e-23)
(8.15434 -0.168273 0)
(8.16355 -0.174583 2.008e-23)
(8.14869 -0.167932 1.02503e-23)
(8.14083 -0.162659 -7.97613e-24)
(8.11952 -0.133629 7.11625e-24)
(8.1374 -0.145975 0)
(8.13567 -0.157718 -5.39847e-23)
(8.07836 -0.199842 3.11248e-22)
(8.09539 -0.0935857 -1.00274e-22)
(8.13804 -0.136974 0)
(8.28163 -0.161708 -1.16119e-23)
(8.26467 -0.181572 -8.51772e-24)
(8.2234 -0.184403 -1.80174e-23)
(8.2368 -0.182522 -1.00669e-23)
(8.204 -0.183773 0)
(8.30871 -0.167232 1.39743e-23)
(8.18293 -0.184091 -1.3414e-23)
(8.17664 -0.183034 -1.45666e-23)
(8.16699 -0.177854 2.20476e-23)
(8.15486 -0.177028 -1.19998e-23)
(8.14022 -0.174855 -6.46208e-25)
(8.13531 -0.172056 0)
(8.11341 -0.135219 -2.30457e-23)
(8.13254 -0.148311 2.37567e-23)
(8.12666 -0.163229 -2.745e-23)
(8.08509 -0.147707 0)
(8.08587 -0.112014 0)
(8.13042 -0.137407 0)
(8.28571 -0.172753 5.23769e-24)
(8.26059 -0.191406 -1.51131e-23)
(8.27852 -0.181326 -7.40918e-24)
(8.22201 -0.193166 -1.27664e-23)
(8.24246 -0.191482 0)
(8.20069 -0.191135 2.14608e-24)
(8.30096 -0.175747 1.29959e-23)
(8.32147 -0.170371 1.8197e-23)
(8.18391 -0.192834 6.53607e-24)
(8.17082 -0.188732 -7.13183e-24)
(8.16312 -0.185368 4.04046e-24)
(8.14889 -0.185056 -1.31e-23)
(8.13632 -0.181417 2.00632e-23)
(8.12753 -0.175236 0)
(8.10827 -0.135147 -8.05792e-25)
(8.1231 -0.142981 2.35425e-23)
(8.12094 -0.15456 1.81212e-23)
(8.12325 -0.172313 1.6531e-23)
(8.12025 -0.161983 1.48128e-23)
(8.06006 -0.190706 0)
(8.06588 -0.0838688 0)
(8.12487 -0.142304 0)
(8.25166 -0.19474 -5.32362e-24)
(8.26865 -0.202118 0)
(8.28541 -0.193463 1.9493e-23)
(8.21508 -0.199937 -7.02381e-24)
(8.23494 -0.197807 -1.57593e-24)
(8.19167 -0.195651 2.23047e-24)
(8.20702 -0.198301 5.32938e-24)
(8.30545 -0.188278 1.44942e-23)
(8.32581 -0.181737 4.18554e-24)
(8.17687 -0.197939 5.65711e-24)
(8.17069 -0.195883 5.847e-25)
(8.15813 -0.192483 1.03255e-23)
(8.14179 -0.186549 2.38292e-23)
(8.15143 -0.192874 -6.5839e-24)
(8.12691 -0.187547 -5.54646e-24)
(8.12158 -0.184758 2.22753e-23)
(8.11564 -0.14339 6.8947e-24)
(8.11533 -0.144231 0)
(8.10816 -0.157098 1.81446e-24)
(8.11659 -0.176553 1.73739e-23)
(8.10931 -0.169125 8.83334e-24)
(8.05391 -0.145283 2.44177e-23)
(8.06627 -0.10049 4.20122e-23)
(8.25283 -0.20901 -1.20401e-23)
(8.27926 -0.202566 7.18211e-24)
(8.26197 -0.212418 -1.31488e-23)
(8.29779 -0.195974 1.26946e-23)
(8.21958 -0.210458 0)
(8.23666 -0.206981 1.36131e-24)
(8.193 -0.206516 -2.02628e-23)
(8.20189 -0.207833 -1.58545e-23)
(8.3182 -0.191361 1.82325e-23)
(8.33794 -0.18249 -3.42653e-24)
(8.17808 -0.207194 -1.53556e-23)
(8.16228 -0.199542 -1.06391e-24)
(8.13664 -0.195231 1.30761e-23)
(8.14669 -0.201431 -7.37106e-24)
(8.12762 -0.195087 -5.13025e-24)
(8.11504 -0.187361 1.28404e-23)
(8.11781 -0.138486 -3.03293e-23)
(8.11215 -0.139616 0)
(8.10497 -0.151901 0)
(8.10155 -0.165724 3.68436e-23)
(8.10835 -0.174575 6.4967e-24)
(8.11292 -0.183597 0)
(8.04958 -0.0869024 2.60639e-23)
(8.02476 -0.185715 0)
(8.10213 -0.133869 0)
(8.24677 -0.213232 -2.18456e-24)
(8.28274 -0.213045 0)
(8.26618 -0.219991 0)
(8.30065 -0.20955 1.37834e-23)
(8.21564 -0.217751 -2.45794e-25)
(8.22946 -0.211668 4.91813e-25)
(8.18613 -0.211804 -1.39613e-23)
(8.20601 -0.216857 -9.39029e-25)
(8.32115 -0.20394 0)
(8.34215 -0.195265 0)
(8.17063 -0.211708 -1.61474e-23)
(8.16162 -0.207117 -1.70065e-23)
(8.13871 -0.201321 6.09137e-24)
(8.14899 -0.208041 0)
(8.12239 -0.201924 0)
(8.10823 -0.194201 -2.05771e-24)
(8.11614 -0.136059 -2.15976e-23)
(8.10272 -0.142521 -1.17782e-23)
(8.09373 -0.153774 0)
(8.09079 -0.170689 2.78835e-23)
(8.10113 -0.180361 0)
(8.10419 -0.186445 0)
(8.05673 -0.106648 -3.3938e-23)
(8.02728 -0.126908 -5.51112e-23)
(8.10171 -0.128184 0)
(8.24327 -0.222925 -3.22009e-24)
(8.27676 -0.220056 0)
(8.29359 -0.215983 0)
(8.26121 -0.228254 0)
(8.31198 -0.213541 1.4697e-23)
(8.21874 -0.226086 -1.04041e-23)
(8.23316 -0.221665 7.87312e-25)
(8.18572 -0.221564 0)
(8.20081 -0.22288 2.65265e-24)
(8.33361 -0.205924 -5.7052e-24)
(8.17077 -0.219537 -3.89949e-25)
(8.1562 -0.21048 -2.44671e-25)
(8.13465 -0.208627 0)
(8.14643 -0.216217 5.78801e-24)
(8.11651 -0.202528 0)
(8.12747 -0.209147 0)
(8.11066 -0.199093 0)
(8.10042 -0.191915 2.75749e-23)
(8.11135 -0.128859 4.95583e-24)
(8.09662 -0.138847 -1.38561e-23)
(8.09201 -0.149347 0)
(8.08374 -0.161388 -7.06617e-24)
(8.08395 -0.168296 -9.8199e-24)
(8.08748 -0.179203 0)
(8.09294 -0.182762 0)
(8.03725 -0.0796872 0)
(8.08648 -0.126436 -2.5112e-24)
(7.99739 -0.16312 1.56228e-22)
(8.24579 -0.230018 8.13008e-24)
(8.28053 -0.22872 -3.80352e-24)
(8.29089 -0.22796 -3.35329e-24)
(8.26633 -0.237843 0)
(8.25366 -0.232881 0)
(8.31466 -0.224779 1.55056e-23)
(8.22704 -0.228075 -1.02689e-23)
(8.21305 -0.23284 0)
(8.17855 -0.224569 0)
(8.19308 -0.226071 2.31135e-24)
(8.20557 -0.231899 0)
(8.3341 -0.216485 -3.10731e-24)
(8.16415 -0.224768 1.28371e-24)
(8.15801 -0.221614 8.32413e-26)
(8.13873 -0.216211 0)
(8.15202 -0.224072 5.19068e-24)
(8.11458 -0.211293 -3.59716e-24)
(8.12444 -0.217397 7.43861e-24)
(8.10504 -0.205241 -4.19377e-24)
(8.09392 -0.194933 2.59802e-23)
(8.11111 -0.126066 -1.01674e-23)
(8.1008 -0.132636 -1.92059e-24)
(8.08142 -0.143175 0)
(8.07921 -0.149955 0)
(8.07318 -0.161821 -1.68762e-23)
(8.07307 -0.172958 -5.83727e-24)
(8.07991 -0.183069 0)
(8.08748 -0.191306 5.50742e-24)
(8.05119 -0.100931 1.4347e-23)
(8.08462 -0.13071 -1.59548e-23)
(8 -0.149817 1.39035e-24)
(8.23796 -0.237491 8.50279e-24)
(8.27482 -0.237049 0)
(8.29621 -0.235465 0)
(8.26018 -0.247305 -1.37387e-23)
(8.25263 -0.245733 -1.38318e-23)
(8.30803 -0.235166 1.78382e-24)
(8.32592 -0.226043 1.70931e-23)
(8.22891 -0.23611 5.01963e-25)
(8.21484 -0.241269 0)
(8.1764 -0.232917 -7.7863e-24)
(8.19301 -0.235034 -2.68075e-25)
(8.20031 -0.23789 0)
(8.34573 -0.22175 0)
(8.3559 -0.218534 -5.32647e-24)
(8.1667 -0.231825 -1.49314e-24)
(8.1354 -0.224323 -2.17958e-24)
(8.14914 -0.231672 -6.31414e-25)
(8.10806 -0.212159 -8.309e-24)
(8.11788 -0.217437 2.75611e-24)
(8.12813 -0.22417 6.82439e-24)
(8.09917 -0.205222 0)
(8.09417 -0.200711 0)
(8.10441 -0.124571 3.65358e-23)
(8.08764 -0.129822 0)
(8.07017 -0.1425 7.90884e-24)
(8.07039 -0.155596 -5.13313e-23)
(8.06696 -0.168769 -2.15242e-24)
(8.07224 -0.178962 3.26576e-24)
(8.07566 -0.190875 6.54657e-24)
(8.08079 -0.194817 -5.32722e-24)
(8.04098 -0.0954525 -2.66153e-23)
(7.98633 -0.0900607 -3.23062e-22)
(8.23779 -0.248133 0)
(8.28009 -0.24652 0)
(8.29003 -0.245694 0)
(8.26357 -0.253839 -6.3322e-24)
(8.24544 -0.251694 0)
(8.312 -0.24688 1.14787e-23)
(8.33123 -0.234334 5.0559e-24)
(8.22204 -0.242961 -2.69693e-26)
(8.208 -0.247943 -1.09272e-23)
(8.18034 -0.238535 -3.84076e-24)
(8.18774 -0.240265 0)
(8.20097 -0.245486 -2.01177e-23)
(8.34483 -0.233846 4.08723e-24)
(8.36651 -0.230139 -4.35406e-24)
(8.16292 -0.239289 0)
(8.13975 -0.231849 -5.78895e-24)
(8.15347 -0.237985 2.94594e-24)
(8.10406 -0.218367 -7.19677e-24)
(8.11389 -0.224672 -4.94991e-24)
(8.12422 -0.231841 4.37712e-24)
(8.09526 -0.212384 0)
(8.08855 -0.204706 0)
(8.10375 -0.121403 3.24226e-23)
(8.07169 -0.134709 7.49443e-24)
(8.09015 -0.123359 -1.30919e-24)
(8.05762 -0.148953 -3.71182e-23)
(8.05955 -0.155853 -3.85352e-23)
(8.05624 -0.170663 0)
(8.06317 -0.185383 4.8656e-24)
(8.06694 -0.19288 1.01405e-23)
(8.08183 -0.201581 -1.11544e-23)
(8.06516 -0.10232 0)
(8.00741 -0.144239 2.25292e-22)
(8.02363 -0.0661458 -1.02676e-22)
(8.22926 -0.254722 1.28772e-23)
(8.27508 -0.254404 0)
(8.29531 -0.253429 0)
(8.25953 -0.262027 -4.90815e-24)
(8.24392 -0.261135 0)
(8.32167 -0.251423 6.6549e-24)
(8.3069 -0.253533 5.07605e-24)
(8.32958 -0.247207 5.17171e-25)
(8.22147 -0.252715 1.20383e-23)
(8.20752 -0.256047 -1.07793e-23)
(8.17572 -0.247781 -8.9658e-24)
(8.18811 -0.248741 0)
(8.1937 -0.250758 -8.69485e-24)
(8.35204 -0.244402 0)
(8.36284 -0.243418 -5.3282e-24)
(8.16862 -0.248837 0)
(8.1574 -0.239269 1.15904e-24)
(8.13547 -0.237159 -1.73371e-24)
(8.14874 -0.244213 -1.05671e-23)
(8.09724 -0.21751 0)
(8.10691 -0.224279 -7.67645e-24)
(8.11687 -0.231763 0)
(8.12816 -0.23769 -1.87435e-24)
(8.08865 -0.211064 0)
(8.1081 -0.113093 -1.80349e-23)
(8.05782 -0.13447 -1.34777e-25)
(8.08311 -0.118871 0)
(8.04682 -0.148825 -3.65652e-23)
(8.05118 -0.164187 0)
(8.05172 -0.176927 0)
(8.05714 -0.184071 0)
(8.06576 -0.19766 -1.1081e-23)
(8.07582 -0.20652 -1.05914e-23)
(8.08971 -0.109496 -2.91361e-24)
(7.99664 -0.106014 1.11931e-22)
(8.01234 -0.0781264 1.2784e-22)
(8.22864 -0.26244 -1.6766e-24)
(8.27714 -0.264365 2.68619e-24)
(8.29298 -0.264392 0)
(8.25096 -0.265925 0)
(8.26797 -0.268787 3.20851e-24)
(8.23652 -0.265528 -5.70719e-24)
(8.31971 -0.264175 -3.20962e-24)
(8.31105 -0.264581 0)
(8.34272 -0.255112 -3.058e-24)
(8.21423 -0.258525 -1.06815e-23)
(8.2002 -0.261691 -1.11344e-23)
(8.18007 -0.254054 -9.02356e-24)
(8.19295 -0.259173 -1.60415e-23)
(8.37262 -0.253118 1.61768e-23)
(8.16305 -0.258179 -6.30886e-24)
(8.15301 -0.247875 -4.54082e-24)
(8.13689 -0.245217 6.26262e-24)
(8.14255 -0.247998 -2.53861e-25)
(8.09313 -0.223459 0)
(8.10293 -0.23046 0)
(8.11261 -0.238083 -2.92504e-24)
(8.12562 -0.242889 8.60518e-24)
(8.08378 -0.215682 4.71235e-24)
(8.10299 -0.10784 0)
(8.05512 -0.126922 -1.39218e-25)
(8.04357 -0.141712 0)
(8.08932 -0.110928 -2.76175e-23)
(8.0656 -0.120654 -5.22377e-24)
(8.03834 -0.156111 0)
(8.04229 -0.163386 0)
(8.04615 -0.179589 1.27643e-23)
(8.05351 -0.189752 -2.24363e-24)
(8.05992 -0.200029 -1.43159e-23)
(8.07082 -0.205049 5.17664e-24)
(8.07733 -0.213823 5.46927e-24)
(8.09299 -0.0966093 0)
(7.98096 -0.0628079 -3.07385e-23)
(7.98863 -0.130658 6.05744e-23)
(8.06637 -0.0990058 -1.9981e-23)
(8.22214 0.0941669 5.32228e-24)
(8.27409 0.12134 0)
(8.22172 -0.270292 1.76223e-23)
(8.28443 -0.268401 4.03215e-25)
(8.30263 -0.271612 0)
(8.25044 -0.276251 2.69252e-24)
(8.26738 -0.278594 0)
(8.23505 -0.276365 0)
(8.32743 -0.270815 -2.30808e-24)
(8.34617 -0.264832 -1.75297e-23)
(8.21418 -0.268262 1.19789e-23)
(8.19982 -0.270262 -4.97882e-24)
(8.17846 -0.26098 9.12681e-24)
(8.18569 -0.264306 -4.52955e-24)
(8.38672 -0.250381 7.07332e-24)
(8.36613 -0.2623 8.40606e-24)
(8.15594 -0.256409 -8.90191e-25)
(8.16472 -0.263436 -2.2549e-24)
(8.13195 -0.24787 0)
(8.14356 -0.256771 0)
(8.08585 -0.222224 5.32914e-24)
(8.09606 -0.229739 0)
(8.10574 -0.236925 -5.90872e-24)
(8.11465 -0.24489 -4.33684e-24)
(8.12048 -0.246406 5.65405e-24)
(8.10174 -0.100237 2.7555e-23)
(8.03899 -0.126341 5.46584e-24)
(8.03356 -0.141091 -1.16838e-24)
(8.07339 -0.1078 -2.37778e-23)
(8.05978 -0.113242 3.91801e-23)
(8.02967 -0.155739 0)
(8.03764 -0.169523 0)
(8.04764 -0.1876 0)
(8.04048 -0.176647 1.07989e-23)
(8.05448 -0.196009 -1.51836e-24)
(8.0599 -0.207898 6.20967e-24)
(8.0659 -0.21062 3.34347e-24)
(8.07309 -0.219634 5.74111e-24)
(7.98196 -0.050336 8.20751e-23)
(7.97371 -0.0930276 -1.28969e-22)
(8.08206 -0.0939858 1.30759e-23)
(8.25145 0.100279 2.27962e-23)
(8.21278 0.110202 1.76555e-23)
(8.22444 0.0967985 1.84033e-23)
(8.24951 0.0510877 -1.00948e-22)
(8.23959 0.210277 0)
(8.22511 -0.278091 5.25117e-24)
(8.28486 -0.28075 -8.07761e-24)
(8.30402 -0.27976 -5.89156e-24)
(8.2575 -0.281433 1.46363e-24)
(8.24196 -0.280579 3.03059e-24)
(8.27632 -0.285213 0)
(8.3391 -0.272066 0)
(8.32282 -0.282329 0)
(8.35756 -0.268092 -1.6341e-23)
(8.20688 -0.273644 0)
(8.19179 -0.275175 -4.89609e-24)
(8.17254 -0.264214 1.04876e-23)
(8.18507 -0.272264 0)
(8.37082 -0.270747 3.72377e-24)
(8.14998 -0.259939 0)
(8.1605 -0.270176 1.12455e-23)
(8.1297 -0.253688 4.89364e-24)
(8.13732 -0.261649 -8.30358e-25)
(8.08161 -0.228562 7.97033e-24)
(8.09242 -0.234619 0)
(8.10089 -0.242722 -6.14197e-24)
(8.10915 -0.251177 0)
(8.12227 -0.2532 4.34932e-24)
(8.09508 -0.0978564 3.19176e-23)
(8.03474 -0.120101 -2.54891e-23)
(8.02901 -0.133684 -1.88625e-23)
(8.02581 -0.148838 0)
(8.07493 -0.100894 2.48134e-24)
(8.04704 -0.112945 2.66237e-23)
(8.02681 -0.16173 -1.73026e-24)
(8.03181 -0.168542 -1.49335e-24)
(8.04299 -0.1907 -6.22361e-24)
(8.03543 -0.182277 0)
(8.04812 -0.200788 0)
(8.05396 -0.211551 1.27675e-23)
(8.06663 -0.216922 2.67827e-24)
(8.07482 -0.22689 0)
(8.0165 -0.0686697 7.4715e-23)
(7.94535 -0.112412 5.38268e-23)
(8.06652 -0.0880967 0)
(8.09404 -0.0880627 3.74259e-23)
(8.25567 0.124507 -3.81109e-23)
(8.21337 0.115751 1.06833e-23)
(8.21616 0.113772 -2.20968e-23)
(8.22044 0.109178 -3.09201e-24)
(8.23592 0.0909829 1.1405e-23)
(8.28473 0.146102 2.89819e-22)
(8.22004 -0.285772 1.85512e-24)
(8.29453 -0.285482 -7.69685e-24)
(8.31343 -0.285419 -7.94521e-24)
(8.25561 -0.292476 -5.75846e-24)
(8.2401 -0.28967 -1.17151e-23)
(8.27256 -0.293232 -8.64338e-25)
(8.33962 -0.28643 1.75268e-24)
(8.33024 -0.292088 1.9167e-24)
(8.35645 -0.282227 0)
(8.20478 -0.282602 9.72699e-24)
(8.18991 -0.281819 -5.04346e-24)
(8.17196 -0.274127 0)
(8.1776 -0.277449 -4.5541e-25)
(8.3801 -0.268908 0)
(8.36403 -0.283336 0)
(8.14572 -0.266917 6.51599e-25)
(8.16561 -0.277287 0)
(8.15377 -0.274602 9.57289e-24)
(8.13183 -0.260012 3.45398e-24)
(8.13759 -0.267206 -1.96595e-24)
(8.08494 -0.234468 7.83488e-24)
(8.09479 -0.241115 -6.31824e-24)
(8.10274 -0.249935 0)
(8.11097 -0.256837 1.30178e-24)
(8.11824 -0.257539 5.34089e-24)
(8.02259 -0.11847 -2.7981e-23)
(8.02079 -0.133465 -1.88283e-23)
(8.01894 -0.147392 0)
(8.06383 -0.0983401 -9.81139e-24)
(8.03898 -0.106911 1.1957e-23)
(8.0205 -0.164431 -2.11904e-23)
(8.02736 -0.17443 0)
(8.03694 -0.188514 -9.06225e-24)
(8.04294 -0.197429 -6.38996e-24)
(8.02904 -0.180512 2.2332e-24)
(8.04789 -0.208205 3.68222e-25)
(8.05383 -0.218321 0)
(8.06072 -0.221453 0)
(8.06897 -0.231787 0)
(7.99577 -0.0641991 0)
(7.94622 -0.0984315 -1.60859e-22)
(8.0784 -0.0786599 -1.52035e-23)
(8.09245 -0.0840909 1.5811e-23)
(8.25416 0.128033 3.47709e-24)
(8.21137 0.127738 2.66643e-24)
(8.20448 0.128108 1.47782e-23)
(8.23489 0.114942 3.37601e-23)
(8.22511 0.120176 3.56201e-23)
(8.25597 0.115975 -1.79418e-23)
(8.23226 0.069718 0)
(8.24165 0.218205 -3.13739e-22)
(8.21104 -0.287739 9.57549e-24)
(8.22489 -0.292911 -3.5932e-24)
(8.29265 -0.295468 0)
(8.30877 -0.298811 7.841e-24)
(8.26337 -0.298089 -8.20053e-24)
(8.24747 -0.295835 -5.58416e-24)
(8.23308 -0.293425 -5.33336e-24)
(8.27723 -0.300573 4.01878e-24)
(8.34762 -0.290662 -9.22042e-25)
(8.32554 -0.301051 0)
(8.19745 -0.285621 0)
(8.18383 -0.288041 -4.69931e-24)
(8.17681 -0.285856 8.09016e-24)
(8.3944 -0.276562 -8.76178e-24)
(8.38407 -0.279493 -1.61715e-24)
(8.368 -0.289661 1.78369e-24)
(8.1479 -0.273014 0)
(8.1614 -0.283829 -3.06871e-24)
(8.15322 -0.283568 0)
(8.12507 -0.2655 2.27047e-24)
(8.13206 -0.273033 0)
(8.08179 -0.240741 -2.59061e-24)
(8.08793 -0.245907 -8.59717e-24)
(8.09604 -0.254883 0)
(8.10681 -0.263936 1.02818e-23)
(8.11938 -0.26382 1.82448e-24)
(8.02281 -0.109995 -3.30077e-23)
(8.01583 -0.121596 -1.71145e-23)
(8.0172 -0.128684 0)
(8.01678 -0.141324 1.85614e-23)
(8.01513 -0.152856 0)
(8.06405 -0.0902272 -1.0609e-24)
(8.04373 -0.101183 -1.35464e-23)
(8.01476 -0.160229 -1.31652e-23)
(8.01999 -0.171822 0)
(8.0317 -0.194826 1.23509e-23)
(8.03518 -0.200532 -6.41257e-24)
(8.02324 -0.186363 2.35195e-24)
(8.04114 -0.211891 -6.25928e-24)
(8.04752 -0.22238 0)
(8.06166 -0.228598 0)
(8.06895 -0.239803 7.28117e-24)
(8.02287 -0.0694524 1.83504e-25)
(7.94264 -0.0624248 0)
(8.09424 -0.0787745 -5.60418e-24)
(8.0622 -0.0741047 1.69018e-25)
(8.07544 -0.0861817 -8.86026e-24)
(8.25313 0.133575 9.95827e-23)
(8.20317 0.135238 0)
(8.21526 0.137904 8.20588e-24)
(8.19583 0.139031 0)
(8.24495 0.121824 -1.70641e-23)
(8.22294 0.133882 0)
(8.26794 0.121665 -1.39999e-24)
(8.22581 0.0985962 -4.88367e-23)
(8.27845 0.158248 -2.14172e-22)
(8.20839 -0.297919 -1.51824e-24)
(8.221 -0.300674 0)
(8.30077 -0.302334 2.07022e-24)
(8.28498 -0.301705 0)
(8.31445 -0.305116 7.72461e-24)
(8.26308 -0.306273 3.90279e-24)
(8.24395 -0.306092 9.11328e-25)
(8.23291 -0.302483 -1.43629e-24)
(8.27153 -0.308412 8.1105e-24)
(8.34744 -0.302032 8.17643e-24)
(8.32954 -0.309583 -1.12383e-23)
(8.19582 -0.294222 5.12932e-24)
(8.18699 -0.295042 -1.87093e-24)
(8.17101 -0.290531 8.0788e-24)
(8.37952 -0.288057 3.76657e-24)
(8.36688 -0.300632 1.82423e-24)
(8.14115 -0.280727 -2.56692e-24)
(8.16399 -0.289063 -2.42613e-24)
(8.14865 -0.289412 0)
(8.12501 -0.27173 -1.93244e-24)
(8.13371 -0.279583 0)
(8.07474 -0.243811 0)
(8.08818 -0.251761 0)
(8.0958 -0.261084 -3.53656e-24)
(8.11172 -0.268878 -1.05361e-24)
(8.10089 -0.265233 4.54157e-24)
(8.01467 -0.107251 -4.93027e-23)
(8.00915 -0.119742 -2.53771e-23)
(8.011 -0.13186 0)
(8.01044 -0.138008 2.71032e-23)
(8.00647 -0.149337 0)
(8.04562 -0.0877314 0)
(8.03368 -0.0950601 0)
(8.00551 -0.166088 6.72625e-25)
(8.01509 -0.176196 1.07745e-23)
(8.02463 -0.193616 1.2799e-23)
(8.03452 -0.207008 0)
(8.01591 -0.183869 -1.85764e-24)
(8.04073 -0.218624 0)
(8.04776 -0.229079 0)
(8.05498 -0.232506 9.15442e-25)
(8.06216 -0.242705 6.52594e-24)
(7.99459 -0.0489603 0)
(7.95734 -0.096007 0)
(8.08832 -0.0753175 0)
(8.07762 -0.0675474 0)
(8.07138 -0.0785083 0)
(8.24713 0.145703 4.39803e-23)
(8.20119 0.14688 -9.48492e-24)
(8.20942 0.147926 6.24621e-24)
(8.18796 0.152469 0)
(8.21416 0.14679 0)
(8.24559 0.134247 4.00513e-24)
(8.23352 0.140407 0)
(8.26765 0.133325 -6.47978e-25)
(8.21812 0.0839031 1.14681e-22)
(8.22627 0.206417 2.90385e-22)
(8.20082 -0.299727 2.65213e-24)
(8.21329 -0.303636 -3.15035e-25)
(8.2254 -0.305761 -1.78883e-24)
(8.29531 -0.312042 -2.1664e-24)
(8.28668 -0.312256 -4.55276e-24)
(8.31276 -0.314785 0)
(8.25694 -0.312117 -6.57894e-25)
(8.23697 -0.307816 -2.44436e-24)
(8.24897 -0.312709 0)
(8.27301 -0.316959 0)
(8.35735 -0.307261 9.40036e-24)
(8.33847 -0.310921 -8.79194e-24)
(8.32169 -0.318415 -2.81342e-24)
(8.18278 -0.30156 5.14887e-25)
(8.17056 -0.29944 4.35174e-27)
(8.39341 -0.296293 -4.52745e-24)
(8.38483 -0.29754 -7.9205e-25)
(8.37772 -0.307187 0)
(8.1415 -0.288589 -2.20962e-24)
(8.15945 -0.295886 0)
(8.15174 -0.295886 0)
(8.11863 -0.276892 -3.73991e-24)
(8.12573 -0.286286 -1.38525e-24)
(8.07405 -0.25206 -1.11484e-24)
(8.08112 -0.255759 9.71979e-26)
(8.08827 -0.265705 0)
(8.11159 -0.27434 -7.2707e-25)
(8.09637 -0.272319 -5.72162e-24)
(8.01285 -0.0999434 -3.18738e-23)
(8.0068 -0.11343 -1.68371e-23)
(8.00608 -0.125994 -6.07742e-24)
(8.00487 -0.141974 7.3495e-24)
(7.99962 -0.154215 -5.13209e-25)
(8.04063 -0.0816791 0)
(8.02068 -0.0943494 -4.16632e-23)
(8.00663 -0.173759 7.91766e-24)
(8.0002 -0.163047 -8.528e-25)
(8.01923 -0.199162 0)
(8.02764 -0.209991 -3.15252e-25)
(8.00934 -0.189202 0)
(8.03367 -0.223083 0)
(8.04133 -0.23363 -9.80017e-25)
(8.05529 -0.239085 4.49444e-24)
(8.05882 -0.249471 -1.76064e-24)
(8.00348 -0.0523479 -7.84038e-23)
(7.94334 -0.0673337 1.11469e-22)
(8.08654 -0.0686033 0)
(8.05803 -0.0650277 5.3467e-24)
(8.05477 -0.0761749 0)
(8.22104 0.110863 2.16195e-23)
(8.19393 0.154051 -9.04665e-24)
(8.21416 0.156301 0)
(8.18238 0.161751 0)
(8.21374 0.148941 0)
(8.25634 0.139459 3.98655e-24)
(8.23416 0.151662 8.67305e-24)
(8.29007 0.131106 0)
(8.27811 0.13801 1.67188e-24)
(8.25625 0.168404 -2.14912e-22)
(8.19591 -0.306857 -8.20007e-25)
(8.21029 -0.311912 -3.1303e-25)
(8.22372 -0.312539 3.65114e-26)
(8.2975 -0.318711 7.99521e-24)
(8.28051 -0.319327 0)
(8.30546 -0.320828 7.71826e-24)
(8.25773 -0.322133 7.36138e-24)
(8.23094 -0.315059 -3.6546e-24)
(8.24385 -0.323978 3.74055e-24)
(8.26542 -0.323898 9.11146e-24)
(8.35611 -0.321223 0)
(8.33932 -0.324799 -1.16398e-23)
(8.32173 -0.328802 -3.67466e-24)
(8.17536 -0.303591 2.2202e-24)
(8.1875 -0.307732 -9.05613e-25)
(8.16276 -0.301561 -9.25504e-25)
(8.39973 -0.304571 -5.8193e-24)
(8.37606 -0.317172 9.42181e-24)
(8.13585 -0.293966 7.48169e-25)
(8.14762 -0.303617 6.15981e-24)
(8.11865 -0.284311 7.09967e-24)
(8.12659 -0.292886 7.88445e-25)
(8.06666 -0.257577 -9.3818e-24)
(8.08089 -0.263001 1.58286e-24)
(8.08855 -0.272009 0)
(8.10551 -0.278647 0)
(8.0985 -0.277173 -4.76826e-24)
(8.00537 -0.0980224 6.39446e-24)
(8.00156 -0.111194 0)
(7.99994 -0.128941 3.27017e-23)
(7.99727 -0.137095 0)
(7.99249 -0.152491 -8.27132e-24)
(8.02508 -0.0812275 2.19986e-23)
(8.01519 -0.0859648 4.19696e-25)
(8.0006 -0.178587 -1.39087e-23)
(7.99134 -0.164332 4.51731e-24)
(8.01062 -0.196798 0)
(8.02061 -0.206653 0)
(8.02628 -0.218667 -3.62344e-26)
(8.0027 -0.18688 6.01897e-25)
(8.03364 -0.230455 -1.59527e-24)
(8.04132 -0.241158 -1.07085e-24)
(8.04794 -0.243409 3.25108e-24)
(8.04969 -0.249161 1.91973e-24)
(8.06056 -0.255133 -7.97183e-24)
(7.97017 -0.0349379 3.23076e-23)
(7.94779 -0.0804432 -1.10984e-22)
(8.08679 -0.0643808 2.79216e-25)
(8.0733 -0.0588696 2.35442e-23)
(8.05237 -0.0706859 -2.15374e-23)
(8.20924 0.133874 -4.393e-24)
(8.1968 0.164324 0)
(8.2264 0.158363 -9.30676e-24)
(8.20737 0.165113 0)
(8.17367 0.162339 0)
(8.18286 0.169702 1.1758e-23)
(8.21619 0.153859 0)
(8.19174 0.158332 0)
(8.25619 0.150814 -8.49733e-24)
(8.24655 0.156653 1.57173e-23)
(8.29417 0.139325 -3.57909e-24)
(8.27425 0.149903 -2.85928e-25)
(8.18156 0.226083 -1.17134e-22)
(8.20503 0.12482 -9.44228e-23)
(8.19753 -0.314764 0)
(8.20363 -0.316938 1.90088e-25)
(8.21614 -0.316729 0)
(8.29056 -0.329204 -3.25164e-24)
(8.28214 -0.328534 0)
(8.30404 -0.334174 -8.63986e-24)
(8.24912 -0.329616 0)
(8.23145 -0.321971 -5.69222e-24)
(8.23716 -0.326901 -2.50928e-24)
(8.26678 -0.333161 -8.1327e-24)
(8.34718 -0.328445 -8.66823e-24)
(8.36512 -0.325084 0)
(8.33041 -0.332221 -3.21865e-24)
(8.31085 -0.336605 -1.33948e-23)
(8.17277 -0.312379 -6.39007e-25)
(8.18451 -0.315226 0)
(8.15968 -0.308991 -4.3158e-24)
(8.39488 -0.315601 -8.36216e-24)
(8.38401 -0.321706 1.03493e-23)
(8.13726 -0.3005 -4.24735e-24)
(8.14179 -0.304225 4.86849e-24)
(8.1521 -0.310489 -2.905e-24)
(8.11159 -0.288673 7.87468e-24)
(8.1223 -0.298016 -2.86926e-24)
(8.06679 -0.266702 7.34188e-24)
(8.07408 -0.269026 0)
(8.08428 -0.2772 2.00348e-24)
(8.10529 -0.28635 -4.59596e-24)
(8.09372 -0.284354 0)
(8.0034 -0.0911257 -8.01502e-24)
(8.00029 -0.103781 0)
(7.9959 -0.115607 0)
(7.99378 -0.123308 2.82168e-23)
(7.98952 -0.139954 0)
(7.98722 -0.147033 -7.66978e-24)
(7.9862 -0.159318 -8.20647e-24)
(8.02227 -0.0739109 3.10288e-23)
(8.00838 -0.0847306 -2.99812e-23)
(7.99154 -0.180118 -1.4585e-23)
(7.98835 -0.168985 0)
(8.00285 -0.20202 -1.50922e-23)
(8.0119 -0.211779 0)
(8.01572 -0.224536 -1.72604e-23)
(7.99386 -0.192298 -2.04763e-24)
(8.02611 -0.234349 -1.53197e-24)
(8.03437 -0.245082 -4.00416e-24)
(8.04642 -0.255058 1.89118e-24)
(8.05228 -0.260396 9.28656e-25)
(7.9889 -0.0407389 -2.39959e-23)
(7.93181 -0.0616602 1.01491e-23)
(8.087 -0.0571422 1.24341e-23)
(8.07274 -0.0629827 -3.55183e-24)
(8.05141 -0.0582274 -1.49624e-25)
(8.05827 -0.0644749 -1.02255e-23)
(8.03427 -0.0692117 2.64063e-23)
(8.19144 0.170475 0)
(8.22924 0.170512 -7.09041e-24)
(8.21143 0.17418 0)
(8.16634 0.172271 1.03706e-23)
(8.17965 0.177734 2.1177e-23)
(8.2143 0.156214 0)
(8.18426 0.162536 0)
(8.26564 0.155693 -8.57012e-24)
(8.24709 0.167273 0)
(8.2889 0.151221 -8.51933e-24)
(8.27776 0.15536 -1.67656e-24)
(8.20447 0.172475 8.97445e-23)
(8.21569 0.114634 -4.46722e-24)
(8.18989 -0.319774 0)
(8.20404 -0.326408 1.99527e-25)
(8.21642 -0.324286 5.66505e-24)
(8.29464 -0.338107 -1.17025e-24)
(8.27473 -0.335505 -7.74335e-24)
(8.24964 -0.33736 4.11197e-24)
(8.22389 -0.327008 0)
(8.23231 -0.336212 0)
(8.25789 -0.339898 4.9481e-24)
(8.34504 -0.341599 -3.76118e-24)
(8.36294 -0.335904 0)
(8.32786 -0.344269 3.1341e-25)
(8.30931 -0.345734 0)
(8.16465 -0.314867 0)
(8.17725 -0.31775 0)
(8.40246 -0.321392 -1.01415e-23)
(8.38034 -0.335797 0)
(8.13206 -0.30459 -5.19214e-24)
(8.13706 -0.312081 0)
(8.14762 -0.31652 -1.41939e-24)
(8.11145 -0.294603 0)
(8.11641 -0.298599 -2.46355e-24)
(8.126 -0.303957 3.85509e-25)
(8.05991 -0.271291 7.87129e-24)
(8.07583 -0.276062 0)
(8.08692 -0.284003 2.0542e-24)
(8.09756 -0.28944 -4.52046e-24)
(7.99626 -0.0872433 -1.45383e-24)
(7.99378 -0.101068 0)
(7.98712 -0.11157 1.31012e-23)
(7.98179 -0.126631 -2.96181e-23)
(7.98 -0.134189 1.84802e-23)
(7.97789 -0.149927 0)
(7.97841 -0.157008 -4.18838e-24)
(8.01458 -0.0684137 -3.49305e-23)
(8.00564 -0.0775485 -3.29366e-24)
(7.98952 -0.175314 0)
(7.98757 -0.18838 -3.12932e-24)
(7.97776 -0.170671 -1.59164e-23)
(7.9942 -0.199015 -1.72157e-23)
(8.00418 -0.209082 0)
(8.0094 -0.220364 -1.26191e-23)
(8.01618 -0.232279 0)
(8.02631 -0.241491 -4.39009e-24)
(8.0319 -0.252138 -4.72566e-24)
(8.03736 -0.256888 1.89478e-24)
(8.05198 -0.266863 -4.88668e-24)
(7.96344 -0.0351365 3.42172e-23)
(7.93081 -0.064898 0)
(8.0847 -0.0533368 -3.62536e-24)
(8.07505 -0.0579492 -6.88859e-24)
(8.07114 -0.0510757 -1.93163e-23)
(8.04358 -0.0587421 0)
(8.03183 -0.0620179 -2.00508e-23)
(8.19342 0.180642 7.29361e-25)
(8.22362 0.176797 -4.02209e-24)
(8.23962 0.173863 0)
(8.20875 0.183137 6.46272e-24)
(8.17147 0.180199 1.76072e-23)
(8.15848 0.173434 -5.01891e-24)
(8.18528 0.183584 1.13887e-23)
(8.19906 0.156437 -1.15597e-23)
(8.22019 0.140925 0)
(8.18815 0.160951 7.2752e-24)
(8.16596 0.169187 0)
(8.26358 0.16598 8.47488e-24)
(8.25574 0.171243 3.4989e-24)
(8.30732 0.154171 2.5712e-23)
(8.2928 0.164394 2.22301e-23)
(8.27475 0.168426 1.03255e-23)
(8.12927 0.198989 -1.76246e-22)
(8.18912 -0.328253 7.02889e-24)
(8.19647 -0.332291 7.35797e-24)
(8.21014 -0.3295 5.21876e-24)
(8.28849 -0.347397 6.27128e-25)
(8.27186 -0.345307 1.11703e-23)
(8.24216 -0.344058 0)
(8.22447 -0.335219 0)
(8.23466 -0.34267 0)
(8.25552 -0.34697 7.81746e-24)
(8.33591 -0.349019 -3.46873e-24)
(8.35288 -0.345023 -1.40419e-24)
(8.37099 -0.341439 -2.27807e-25)
(8.31895 -0.349618 4.19524e-26)
(8.30212 -0.354333 -5.40547e-24)
(8.16081 -0.321261 -2.61721e-25)
(8.17323 -0.324042 0)
(8.39923 -0.333081 -1.02856e-23)
(8.38823 -0.340811 0)
(8.13187 -0.311885 -5.17002e-24)
(8.14 -0.317078 -1.1477e-24)
(8.14843 -0.323018 -7.32575e-24)
(8.10513 -0.298373 0)
(8.11174 -0.306765 0)
(8.12147 -0.31083 -2.46892e-24)
(8.05949 -0.278342 -7.29377e-24)
(8.07141 -0.28111 1.38479e-23)
(8.08228 -0.289898 5.69227e-24)
(8.09816 -0.29465 9.60723e-24)
(7.99265 -0.0922919 2.12572e-24)
(7.9979 -0.0796334 -7.39711e-25)
(7.9866 -0.105198 0)
(7.97861 -0.114987 1.53028e-23)
(7.97621 -0.120868 -2.34858e-23)
(7.9695 -0.13782 3.96261e-23)
(7.9693 -0.146221 0)