/*--------------------------------*- C++ -*----------------------------------*\
| =========                 |                                                 |
| \\      /  F ield         | OpenFOAM: The Open Source CFD Toolbox           |
|  \\    /   O peration     | Version:  v2012                                 |
|   \\  /    A nd           | Website:  www.openfoam.com                      |
|    \\/     M anipulation  |                                                 |
\*---------------------------------------------------------------------------*/
FoamFile
{
    version     2.0;
    format      ascii;
    class       surfaceVectorField;
    location    "0.2";
    object      Uf;
}
// * * * * * * * * * * * * * * * * * * * * * * * * * * * * * * * * * * * * * //

dimensions      [0 1 -1 0 0 0 0];


internalField   nonuniform List<vector> 
21399
(
(8.11193 -0.0409781 0)
(8.13108 -0.0913422 0)
(8.14989 -0.071038 7.79957e-24)
(8.12403 -0.0529402 9.15324e-23)
(8.12805 -0.14911 -8.3049e-23)
(8.18048 -0.0892863 -1.38983e-22)
(8.19499 -0.0899327 -1.60559e-21)
(8.19978 -0.0903469 -9.97467e-24)
(8.20226 -0.097002 -2.30494e-21)
(8.0873 -0.0735188 -3.59691e-20)
(8.14064 -0.0903926 9.36697e-21)
(8.12741 -0.0802419 1.03249e-20)
(8.20718 -0.144122 -2.08401e-22)
(8.22403 -0.0937857 -6.58145e-22)
(8.19574 -0.095934 -1.94128e-23)
(8.20356 -0.103596 -3.38285e-24)
(8.19631 -0.102686 -2.05657e-21)
(8.1026 -0.0496476 5.45648e-22)
(8.1879 -0.0949625 -1.19542e-20)
(8.16656 -0.106462 -6.30525e-23)
(8.14526 -0.152986 -7.53985e-20)
(8.22867 -0.10336 2.61055e-24)
(8.2209 -0.101932 -1.88652e-23)
(8.19707 -0.100735 1.79129e-23)
(8.21491 -0.106026 -1.16175e-21)
(8.20569 -0.113878 -1.32771e-24)
(8.19215 -0.107898 4.99278e-24)
(8.14019 -0.089254 8.48568e-23)
(8.11082 -0.0730114 -2.68492e-20)
(8.14515 -0.0952395 4.22271e-21)
(8.16713 -0.10984 -1.07912e-23)
(8.1992 -0.137904 -1.12283e-23)
(8.23564 -0.104202 0)
(8.24236 -0.104395 3.8221e-24)
(8.23209 -0.112831 -1.63767e-23)
(8.22099 -0.11475 -4.04769e-23)
(8.20693 -0.123955 -4.65886e-24)
(8.19913 -0.119444 -4.83138e-23)
(8.19127 -0.120127 7.23815e-25)
(8.1853 -0.116794 -1.50517e-22)
(8.10695 -0.0875195 1.33504e-22)
(8.17562 -0.117911 5.28637e-22)
(8.16073 -0.113583 -1.87517e-21)
(8.13697 -0.137966 -6.38106e-20)
(8.24569 -0.110874 2.34333e-22)
(8.226 -0.11946 4.29555e-22)
(8.23095 -0.122108 -2.95648e-22)
(8.21995 -0.124048 -2.76328e-23)
(8.21335 -0.129243 -1.39308e-22)
(8.20604 -0.133362 -1.52134e-23)
(8.19225 -0.12817 1.11274e-23)
(8.17995 -0.128094 -9.15754e-24)
(8.1297 -0.105163 -2.23857e-22)
(8.09642 -0.100853 -2.13913e-22)
(8.15098 -0.116438 -7.04234e-22)
(8.17307 -0.146567 5.14458e-23)
(8.13617 -0.119444 4.32474e-21)
(8.24237 -0.120906 7.36439e-23)
(8.25131 -0.11674 -1.85926e-24)
(8.23704 -0.127097 -3.69649e-22)
(8.2298 -0.133716 -2.15762e-23)
(8.2173 -0.134352 4.75366e-23)
(8.19836 -0.135592 -2.97342e-24)
(8.2017 -0.141601 4.00669e-22)
(8.18903 -0.136204 0)
(8.17858 -0.137546 2.15418e-22)
(8.17289 -0.135143 2.06801e-23)
(8.09113 -0.114699 7.85233e-21)
(8.10397 -0.120078 -1.2897e-23)
(8.13524 -0.122489 6.73965e-24)
(8.15654 -0.126031 2.58112e-23)
(8.09394 -0.143529 0)
(8.11747 -0.101148 -1.82007e-23)
(8.24407 -0.132407 -1.47814e-23)
(8.25636 -0.124667 -4.3587e-23)
(8.22178 -0.138652 -8.66549e-25)
(8.22719 -0.144554 1.75466e-22)
(8.21385 -0.143721 3.04964e-24)
(8.19599 -0.148379 -2.03228e-22)
(8.20276 -0.146509 5.05773e-22)
(8.18325 -0.139996 5.6967e-24)
(8.18612 -0.146764 0)
(8.17636 -0.146206 7.82208e-24)
(8.16539 -0.132905 1.18283e-21)
(8.16639 -0.142405 -3.42133e-24)
(8.1181 -0.129142 0)
(8.15439 -0.132377 -5.92184e-22)
(8.12541 -0.120563 4.12245e-26)
(8.12892 -0.159378 -1.01911e-22)
(8.12506 -0.113583 4.60686e-26)
(8.25322 -0.133531 1.41218e-22)
(8.24659 -0.141646 4.75446e-24)
(8.26171 -0.133169 5.87999e-24)
(8.22328 -0.153256 1.60141e-23)
(8.23287 -0.150018 6.66933e-22)
(8.20743 -0.149099 7.98426e-24)
(8.21198 -0.153995 9.82358e-24)
(8.27014 -0.130136 -1.35144e-24)
(8.19068 -0.151366 3.35409e-24)
(8.19314 -0.156451 2.66587e-24)
(8.20225 -0.155099 4.18336e-22)
(8.18332 -0.155401 -1.23569e-23)
(8.17036 -0.150584 -5.39587e-23)
(8.17445 -0.154205 -1.03665e-23)
(8.16502 -0.150731 4.52235e-22)
(8.15979 -0.14901 7.18692e-24)
(8.11515 -0.128042 0)
(8.11777 -0.129657 0)
(8.14094 -0.1341 5.66128e-24)
(8.15324 -0.142179 1.81673e-21)
(8.03939 -0.165992 -7.08443e-20)
(8.10912 -0.122875 -1.16278e-23)
(8.2401 -0.15091 1.0595e-23)
(8.25102 -0.153018 1.80263e-24)
(8.26699 -0.139495 0)
(8.2172 -0.157714 1.29078e-22)
(8.22331 -0.162892 8.81925e-24)
(8.2365 -0.160239 8.33389e-22)
(8.21096 -0.163341 7.36454e-24)
(8.19612 -0.159668 4.20037e-24)
(8.19023 -0.163962 -7.42545e-24)
(8.20003 -0.162811 -8.99409e-24)
(8.17715 -0.159625 6.30828e-23)
(8.18018 -0.164557 -1.12675e-23)
(8.16349 -0.157385 -1.27034e-23)
(8.1709 -0.162866 -1.05909e-23)
(8.15447 -0.148302 4.25119e-24)
(8.15189 -0.156832 1.57047e-23)
(8.12596 -0.131593 1.66309e-23)
(8.14803 -0.148101 -5.21304e-25)
(8.09905 -0.148482 1.05324e-22)
(8.07165 -0.151779 1.09188e-21)
(8.13019 -0.135934 2.10019e-20)
(8.2628 -0.156091 -5.1346e-24)
(8.25586 -0.165533 5.07979e-22)
(8.2759 -0.143695 0)
(8.26644 -0.147842 -4.85544e-24)
(8.22943 -0.166258 9.24188e-25)
(8.22258 -0.171292 -1.25646e-24)
(8.238 -0.168283 1.06087e-24)
(8.20476 -0.166716 -4.30653e-24)
(8.21004 -0.171946 -3.09389e-23)
(8.28739 -0.14722 4.19029e-25)
(8.18417 -0.167979 -3.31816e-23)
(8.18786 -0.172009 -8.74506e-23)
(8.19791 -0.170812 4.23994e-22)
(8.17717 -0.171811 -1.9662e-23)
(8.16479 -0.163407 0)
(8.15797 -0.16397 0)
(8.16571 -0.169522 9.35138e-24)
(8.14919 -0.163383 7.95663e-22)
(8.14423 -0.161107 -1.7142e-22)
(8.12799 -0.128866 3.82446e-21)
(8.12158 -0.132118 1.26887e-21)
(8.14229 -0.147898 0)
(8.13944 -0.154628 -3.26872e-23)
(8.1019 -0.13495 7.86635e-20)
(8.08524 -0.102564 -4.53353e-22)
(8.13489 -0.135027 -3.65832e-23)
(8.27452 -0.160043 5.87999e-22)
(8.24721 -0.173346 2.15111e-24)
(8.26006 -0.176778 -2.60059e-24)
(8.21455 -0.178103 -1.64059e-24)
(8.22148 -0.181838 5.05793e-23)
(8.23902 -0.179108 -5.9081e-24)
(8.20873 -0.180961 -2.70201e-25)
(8.29775 -0.153138 1.50561e-24)
(8.28734 -0.157306 2.99253e-23)
(8.30644 -0.161123 8.40808e-24)
(8.19266 -0.176565 -6.54461e-24)
(8.18596 -0.181068 -8.08064e-24)
(8.19967 -0.180513 -5.30634e-24)
(8.17588 -0.179319 -1.78426e-24)
(8.17119 -0.17611 1.77649e-23)
(8.15188 -0.168072 4.79011e-24)
(8.15438 -0.173672 -6.62423e-24)
(8.16555 -0.176373 1.03714e-22)
(8.15941 -0.175816 -1.13257e-23)
(8.14457 -0.172286 4.172e-24)
(8.13863 -0.1608 1.30148e-22)
(8.13773 -0.167782 -3.50544e-24)
(8.12801 -0.139623 3.73363e-24)
(8.11413 -0.135227 2.65665e-21)
(8.13427 -0.147033 1.33096e-23)
(8.13058 -0.160685 1.6045e-22)
(8.04884 -0.158146 1.46319e-22)
(8.1144 -0.117319 -5.11704e-23)
(8.09105 -0.102235 -5.341e-23)
(8.13217 -0.135055 0)
(8.28323 -0.166332 -3.93657e-24)
(8.26231 -0.187584 -1.03801e-22)
(8.2725 -0.181102 -7.92934e-24)
(8.23071 -0.18329 -1.35273e-22)
(8.2223 -0.188605 4.29095e-22)
(8.23974 -0.187223 -4.88143e-24)
(8.20231 -0.18757 1.1029e-24)
(8.3048 -0.171438 1.34896e-23)
(8.31549 -0.16873 1.01268e-22)
(8.17933 -0.183536 5.20632e-23)
(8.18341 -0.18833 -2.90725e-24)
(8.17358 -0.186159 -1.0556e-23)
(8.16473 -0.182549 1.13482e-23)
(8.15185 -0.180939 7.50146e-23)
(8.13726 -0.17367 -3.23793e-25)
(8.13803 -0.178589 1.88333e-23)
(8.13127 -0.173676 0)
(8.12273 -0.136155 -1.04905e-23)
(8.1125 -0.136284 -1.23832e-23)
(8.12809 -0.145656 2.27228e-22)
(8.12605 -0.152166 2.05843e-23)
(8.12449 -0.169173 -2.98394e-22)
(8.12358 -0.16257 -5.76673e-24)
(8.09799 -0.150407 0)
(8.07581 -0.110054 0)
(8.07015 -0.104502 0)
(8.10733 -0.131101 0)
(8.12956 -0.139451 0)
(8.2817 -0.176828 1.7107e-22)
(8.29432 -0.174384 3.98281e-23)
(8.25547 -0.193244 8.20247e-23)
(8.26516 -0.197225 -6.57123e-24)
(8.2826 -0.188758 7.96194e-24)
(8.21866 -0.196269 4.24443e-23)
(8.22897 -0.196375 -6.41445e-24)
(8.24773 -0.192942 -2.90583e-24)
(8.23866 -0.195093 -8.81777e-25)
(8.19501 -0.193551 -6.8944e-23)
(8.20436 -0.194511 3.91446e-24)
(8.30322 -0.182068 1.37537e-23)
(8.32365 -0.176071 1.10973e-23)
(8.18819 -0.194255 4.21608e-24)
(8.18046 -0.195669 1.36402e-22)
(8.16722 -0.187186 1.13416e-23)
(8.17072 -0.191937 5.98694e-23)
(8.16039 -0.188263 -4.01234e-22)
(8.14466 -0.185835 7.16986e-24)
(8.15039 -0.189025 -9.59492e-24)
(8.13955 -0.183698 6.84845e-22)
(8.13113 -0.184235 7.05471e-24)
(8.12594 -0.17378 7.70013e-24)
(8.12454 -0.179657 1.13061e-23)
(8.11508 -0.138407 1.13827e-22)
(8.11149 -0.139541 2.96505e-24)
(8.11903 -0.143533 1.15536e-23)
(8.12069 -0.158742 3.74607e-22)
(8.1139 -0.155722 9.52241e-24)
(8.11926 -0.174677 -1.38451e-22)
(8.11409 -0.166133 1.14198e-23)
(8.02658 -0.148975 1.31904e-23)
(8.07875 -0.0984663 2.22377e-23)
(8.12017 -0.141828 2.98967e-24)
(8.25225 -0.202002 -8.75233e-24)
(8.2733 -0.202433 3.26769e-24)
(8.2658 -0.207015 -6.10547e-24)
(8.28216 -0.198222 2.2865e-24)
(8.29195 -0.194599 1.25662e-22)
(8.2112 -0.198878 -6.00067e-25)
(8.21778 -0.206584 -2.88343e-24)
(8.23593 -0.202813 7.7903e-23)
(8.19234 -0.201149 -9.32987e-24)
(8.20481 -0.203586 2.65856e-22)
(8.30147 -0.192161 1.35815e-23)
(8.312 -0.189972 -4.25645e-23)
(8.32232 -0.18654 6.92584e-23)
(8.33193 -0.18235 2.1395e-25)
(8.17338 -0.197074 2.98464e-24)
(8.17749 -0.202642 7.14115e-24)
(8.16708 -0.197834 -2.21987e-25)
(8.15576 -0.192605 3.2378e-24)
(8.16002 -0.19711 3.92761e-24)
(8.13903 -0.191761 2.76342e-22)
(8.14902 -0.197743 -1.76095e-22)
(8.12425 -0.186368 7.06989e-24)
(8.12711 -0.191885 2.67087e-22)
(8.11815 -0.186389 3.523e-22)
(8.11669 -0.141061 -3.61351e-24)
(8.11357 -0.142172 0)
(8.10999 -0.147793 0)
(8.10661 -0.154944 1.04168e-24)
(8.10447 -0.161887 -2.06891e-23)
(8.11292 -0.175639 1.236e-23)
(8.11442 -0.18091 7.32194e-24)
(8.10576 -0.167656 2.09846e-23)
(8.10867 -0.172325 -1.71553e-22)
(8.05152 -0.112122 -5.35811e-22)
(8.06842 -0.147682 1.28075e-23)
(8.04854 -0.0995232 -1.39693e-20)
(8.08678 -0.122904 1.87636e-23)
(8.25699 -0.211006 1.94546e-22)
(8.24974 -0.211183 -6.96883e-24)
(8.28137 -0.209021 2.967e-24)
(8.2641 -0.216173 -6.47402e-24)
(8.29923 -0.202788 1.32406e-23)
(8.21774 -0.214223 -1.2425e-25)
(8.22524 -0.210904 2.67431e-25)
(8.24193 -0.209424 -3.49496e-25)
(8.2323 -0.209113 9.26366e-25)
(8.19705 -0.207612 5.16661e-22)
(8.19 -0.209225 -1.71603e-23)
(8.20396 -0.212308 -1.37786e-23)
(8.31968 -0.197753 8.77093e-24)
(8.33989 -0.188397 -1.80392e-24)
(8.18221 -0.209452 -9.42684e-23)
(8.17404 -0.20944 -1.5762e-23)
(8.16183 -0.202447 1.73975e-22)
(8.13257 -0.195167 4.77035e-24)
(8.13771 -0.198037 1.06861e-22)
(8.14254 -0.201378 3.23357e-24)
(8.14791 -0.205545 -3.07728e-24)
(8.1248 -0.198121 -2.55501e-24)
(8.1142 -0.185132 5.73561e-24)
(8.11169 -0.191312 -2.98326e-22)
(8.1129 -0.13255 -1.41902e-23)
(8.11684 -0.13707 3.06399e-22)
(8.11421 -0.137902 -1.14512e-23)
(8.10666 -0.141518 -7.01785e-24)
(8.09912 -0.153217 0)
(8.09613 -0.168171 -4.78698e-23)
(8.10426 -0.177302 2.91087e-24)
(8.1083 -0.184938 0)
(8.06189 -0.102042 1.21374e-20)
(8.00045 -0.135962 -2.80741e-23)
(8.09707 -0.128934 0)
(8.24558 -0.218677 -3.84829e-22)
(8.2791 -0.216461 0)
(8.28818 -0.214067 0)
(8.2728 -0.219864 0)
(8.26346 -0.224495 0)
(8.29652 -0.213145 6.02132e-24)
(8.30643 -0.211529 4.23954e-23)
(8.21135 -0.217311 -5.59659e-25)
(8.21731 -0.222155 -8.56757e-24)
(8.23144 -0.217172 -3.43193e-23)
(8.18587 -0.216493 -6.99555e-24)
(8.20276 -0.220165 1.14719e-24)
(8.31669 -0.208475 6.98709e-24)
(8.32719 -0.205062 -2.82594e-24)
(8.33793 -0.200769 -2.9223e-24)
(8.16658 -0.209688 1.67738e-23)
(8.17076 -0.216407 -6.98485e-23)
(8.15843 -0.208958 -7.55417e-24)
(8.13646 -0.205168 2.80346e-24)
(8.15325 -0.209188 -1.28812e-25)
(8.14737 -0.212214 3.15097e-24)
(8.11879 -0.202194 0)
(8.12519 -0.20607 0)
(8.10945 -0.196828 -9.90972e-25)
(8.10344 -0.193102 -1.2272e-22)
(8.11333 -0.132578 -2.95958e-22)
(8.10005 -0.140775 -2.42635e-22)
(8.09666 -0.146338 -5.0868e-24)
(8.09264 -0.15136 0)
(8.08761 -0.159006 -4.30437e-24)
(8.08674 -0.169309 4.28831e-23)
(8.08875 -0.17585 1.18993e-23)
(8.10262 -0.18401 0)
(8.09773 -0.181456 0)
(8.10246 -0.188655 1.29534e-23)
(8.04093 -0.0966336 -1.72357e-23)
(8.07182 -0.117565 1.41383e-22)
(8.03299 -0.0984794 -2.51529e-23)
(8.04301 -0.132 3.87603e-20)
(8.10626 -0.127913 2.34371e-24)
(8.09591 -0.125964 -1.25167e-24)
(8.2373 -0.222501 -1.05197e-24)
(8.24448 -0.225613 2.13793e-24)
(8.27867 -0.224672 -1.93251e-24)
(8.29268 -0.222899 -1.74725e-24)
(8.26419 -0.23357 0)
(8.25715 -0.230542 0)
(8.31331 -0.219121 1.51024e-23)
(8.22305 -0.226941 -1.38903e-22)
(8.21575 -0.229539 -5.03627e-24)
(8.23018 -0.224601 -4.3873e-24)
(8.1815 -0.223288 0)
(8.19009 -0.224072 1.34313e-24)
(8.19706 -0.224397 -1.01567e-23)
(8.20346 -0.227799 1.18318e-24)
(8.33409 -0.212553 2.438e-22)
(8.17493 -0.221828 -1.93322e-25)
(8.16724 -0.221849 4.04593e-25)
(8.15713 -0.216196 4.20963e-24)
(8.1311 -0.208894 0)
(8.13684 -0.212655 0)
(8.14296 -0.216215 3.15656e-24)
(8.14889 -0.220314 -1.80735e-22)
(8.11449 -0.200724 0)
(8.11551 -0.207945 -2.05525e-24)
(8.12595 -0.213625 3.91165e-24)
(8.10722 -0.202162 -2.40548e-24)
(8.09758 -0.193457 2.85062e-22)
(8.11174 -0.127951 -1.96525e-24)
(8.09818 -0.136414 -8.96664e-24)
(8.08799 -0.140542 -6.05447e-24)
(8.08549 -0.14985 0)
(8.0844 -0.164716 -6.5357e-22)
(8.07777 -0.161337 -1.2263e-23)
(8.0783 -0.171106 -7.70983e-24)
(8.09075 -0.181016 0)
(8.08301 -0.181442 0)
(8.08966 -0.188092 3.21497e-24)
(8.04788 -0.0930929 6.63422e-24)
(8.08435 -0.127928 -8.68805e-24)
(7.97664 -0.137862 7.31795e-23)
(8.25042 -0.231354 3.63977e-24)
(8.24152 -0.234348 1.15773e-22)
(8.28467 -0.228521 9.04273e-23)
(8.27779 -0.232549 -2.03055e-24)
(8.29362 -0.230643 -1.75513e-24)
(8.27012 -0.237495 0)
(8.26376 -0.242516 -6.447e-24)
(8.25312 -0.240024 -7.57306e-24)
(8.31143 -0.230406 8.23463e-24)
(8.32176 -0.225396 1.48676e-22)
(8.22801 -0.232172 1.59943e-24)
(8.20896 -0.232386 0)
(8.21397 -0.23722 0)
(8.17764 -0.229321 -4.06397e-24)
(8.19308 -0.231369 3.04993e-23)
(8.2031 -0.235199 0)
(8.32905 -0.221133 7.25957e-24)
(8.34064 -0.218359 -1.47993e-24)
(8.16114 -0.223236 6.9841e-25)
(8.16541 -0.228883 -9.45842e-23)
(8.15563 -0.222918 2.55339e-24)
(8.13701 -0.220624 -1.15969e-24)
(8.15061 -0.227609 2.42118e-24)
(8.11129 -0.211707 7.68458e-24)
(8.11627 -0.214049 -6.24198e-25)
(8.12087 -0.217392 -4.55148e-23)
(8.12654 -0.221014 7.10236e-24)
(8.1065 -0.20912 9.51114e-23)
(8.10183 -0.205187 -2.02816e-24)
(8.09095 -0.193052 1.10036e-22)
(8.09398 -0.198797 1.06532e-23)
(8.10591 -0.130227 -1.2027e-22)
(8.10765 -0.125552 4.99424e-22)
(8.09375 -0.131003 -9.37091e-25)
(8.07966 -0.147013 0)
(8.0767 -0.143103 3.54647e-24)
(8.07496 -0.152315 -2.51592e-23)
(8.07189 -0.159195 5.94556e-23)
(8.07008 -0.165106 1.5711e-22)
(8.0697 -0.170991 -4.08795e-24)
(8.07248 -0.176209 2.45835e-22)
(8.07676 -0.181264 1.44788e-24)
(8.07781 -0.186887 3.37262e-24)
(8.08418 -0.192774 4.05292e-25)
(8.06741 -0.117386 1.9014e-21)
(8.0413 -0.0991216 -4.84726e-21)
(8.0928 -0.126086 7.10676e-24)
(8.02125 -0.120551 -1.27377e-23)
(7.99711 -0.121161 8.41636e-23)
(8.23316 -0.237065 4.57846e-24)
(8.23789 -0.243168 4.1127e-24)
(8.27745 -0.241714 0)
(8.30156 -0.235458 8.50127e-25)
(8.29289 -0.240907 0)
(8.25605 -0.246723 2.14053e-22)
(8.26198 -0.250702 -9.82025e-24)
(8.24944 -0.248572 -7.37257e-24)
(8.31061 -0.243128 -1.03248e-22)
(8.32888 -0.231384 1.03332e-23)
(8.22572 -0.23974 2.33486e-25)
(8.21832 -0.242123 -1.31937e-26)
(8.21137 -0.244739 -5.62952e-24)
(8.17165 -0.232418 1.59481e-23)
(8.17852 -0.235744 -6.26003e-23)
(8.19678 -0.236652 -1.2409e-25)
(8.19023 -0.237517 -1.35881e-25)
(8.20062 -0.241185 -9.61505e-24)
(8.34994 -0.220413 -2.37762e-24)
(8.34594 -0.229414 2.38243e-24)
(8.36176 -0.225003 -4.78854e-24)
(8.16466 -0.235177 -7.68718e-25)
(8.13166 -0.224242 -1.45853e-24)
(8.13782 -0.22786 -1.64817e-22)
(8.14346 -0.231751 1.23549e-23)
(8.15179 -0.236271 1.74452e-24)
(8.10604 -0.215141 -7.75693e-24)
(8.1158 -0.221327 -3.3887e-23)
(8.12612 -0.22797 -3.55436e-23)
(8.09736 -0.202805 0)
(8.09712 -0.209584 0)
(8.09094 -0.202638 0)
(8.10536 -0.123738 2.80103e-21)
(8.07923 -0.132301 3.95866e-24)
(8.08847 -0.126857 -6.30771e-25)
(8.07085 -0.139086 1.77714e-23)
(8.06321 -0.146084 -1.70502e-23)
(8.06513 -0.155961 -6.13824e-22)
(8.06245 -0.170042 -1.18425e-24)
(8.06731 -0.181565 -2.2012e-22)
(8.07804 -0.192782 2.57279e-23)
(8.07168 -0.192151 2.70854e-22)
(8.08134 -0.198633 -8.56252e-24)
(8.06089 -0.103408 -1.386e-23)
(8.01663 -0.0979443 5.45118e-20)
(8.00658 -0.0736245 1.86885e-21)
(8.24171 -0.249665 0)
(8.23302 -0.251244 6.49537e-24)
(8.28508 -0.246107 0)
(8.27764 -0.251162 0)
(8.29296 -0.250503 0)
(8.26938 -0.254149 -3.10578e-24)
(8.26109 -0.257529 3.66949e-22)
(8.24464 -0.256705 0)
(8.31763 -0.248055 4.4853e-22)
(8.30847 -0.250484 -1.95207e-22)
(8.33825 -0.234163 -3.89552e-23)
(8.3298 -0.239508 3.00069e-24)
(8.22175 -0.247845 5.59442e-24)
(8.20431 -0.246808 9.10345e-23)
(8.20776 -0.251995 -9.67899e-24)
(8.18446 -0.239344 -1.84796e-24)
(8.17771 -0.242978 -6.49435e-24)
(8.18795 -0.244947 0)
(8.19745 -0.248141 -6.52756e-23)
(8.3481 -0.237801 2.25999e-24)
(8.36516 -0.236835 -3.03346e-22)
(8.16608 -0.244311 0)
(8.15897 -0.239199 7.27344e-25)
(8.13752 -0.235436 -3.40107e-24)
(8.15628 -0.238325 2.25596e-22)
(8.1507 -0.240843 -4.4448e-24)
(8.10069 -0.217945 -3.60139e-24)
(8.10554 -0.221304 -6.31045e-23)
(8.11029 -0.22446 -6.31155e-24)
(8.11547 -0.228153 -2.45764e-24)
(8.12057 -0.231805 2.18241e-24)
(8.1263 -0.235398 7.95307e-25)
(8.09627 -0.214672 0)
(8.09205 -0.211746 0)
(8.08594 -0.203449 -4.46422e-24)
(8.08851 -0.208208 0)
(8.0965 -0.121544 8.86237e-23)
(8.10535 -0.117021 4.70278e-24)
(8.06454 -0.134535 3.59195e-24)
(8.0864 -0.120963 -6.05925e-25)
(8.05845 -0.152672 -3.7874e-23)
(8.05231 -0.148907 -7.3651e-23)
(8.05525 -0.159933 -1.84221e-23)
(8.05348 -0.167537 0)
(8.05334 -0.174932 0)
(8.06459 -0.189679 7.68384e-24)
(8.05995 -0.184627 2.36643e-24)
(8.06625 -0.195849 -9.54487e-23)
(8.07861 -0.204148 3.41116e-23)
(8.03676 -0.0863046 -5.7911e-23)
(8.07766 -0.104591 -1.52853e-24)
(7.97932 -0.114997 1.5858e-22)
(8.02047 -0.0717107 -1.06982e-21)
(8.22552 -0.253669 7.46143e-23)
(8.22891 -0.259412 4.71589e-24)
(8.2761 -0.259344 1.35527e-24)
(8.30213 -0.253382 2.88169e-24)
(8.2938 -0.258719 0)
(8.25569 -0.263871 -2.60027e-24)
(8.26364 -0.26634 -5.71346e-25)
(8.2478 -0.263328 0)
(8.23972 -0.263572 -3.18939e-24)
(8.3255 -0.249324 1.97478e-24)
(8.32155 -0.258999 1.5433e-24)
(8.30894 -0.258843 2.58087e-24)
(8.3357 -0.252153 -1.33057e-24)
(8.21781 -0.255757 2.98364e-25)
(8.2109 -0.257284 -1.71439e-23)
(8.20385 -0.258963 -1.09604e-23)
(8.17257 -0.248268 -4.86665e-24)
(8.17752 -0.251538 3.57937e-22)
(8.19062 -0.249729 -4.03907e-24)
(8.18479 -0.251453 -4.24489e-24)
(8.19331 -0.255113 -1.24963e-23)
(8.35639 -0.244245 -2.41036e-24)
(8.34817 -0.249944 -1.49947e-24)
(8.36811 -0.248319 6.20501e-24)
(8.16633 -0.253374 -2.85789e-24)
(8.15563 -0.244978 -4.14888e-22)
(8.1318 -0.23741 4.49435e-24)
(8.13632 -0.240793 -1.15511e-22)
(8.1501 -0.246456 -7.36457e-24)
(8.14644 -0.245701 -4.35151e-23)
(8.09509 -0.220567 0)
(8.10481 -0.227703 -3.54779e-24)
(8.11475 -0.235262 -1.52419e-24)
(8.12664 -0.240775 8.03474e-24)
(8.08632 -0.212965 2.16565e-24)
(8.10005 -0.109395 2.61375e-21)
(8.10557 -0.11048 -8.10058e-24)
(8.0568 -0.130872 -2.64449e-24)
(8.04952 -0.13883 -5.70403e-26)
(8.08693 -0.114376 -1.47325e-23)
(8.07393 -0.120496 -2.78378e-24)
(8.04536 -0.145413 -1.90666e-23)
(8.042 -0.153043 -1.59838e-23)
(8.04668 -0.163744 0)
(8.05565 -0.180428 0)
(8.04832 -0.177712 7.11085e-24)
(8.05512 -0.188081 -1.28806e-24)
(8.06222 -0.198469 4.1943e-22)
(8.06906 -0.201395 4.67935e-22)
(8.07307 -0.205708 -2.36958e-24)
(8.07659 -0.210624 -1.71031e-24)
(8.08813 -0.101397 -1.32977e-24)
(7.98736 -0.077683 -5.77756e-21)
(8.01203 -0.101608 8.75107e-23)
(7.98815 -0.0774461 -2.2619e-20)
(8.04064 -0.0938412 5.35867e-23)
(8.23275 -0.263879 -6.19356e-23)
(8.22505 -0.266073 -9.1892e-23)
(8.27258 -0.266781 5.73394e-23)
(8.28089 -0.265968 1.60267e-24)
(8.28917 -0.266205 1.82124e-25)
(8.29749 -0.268507 0)
(8.25081 -0.271812 1.44996e-24)
(8.26756 -0.273032 1.7237e-24)
(8.2358 -0.270979 -2.85791e-24)
(8.31413 -0.264723 -1.38795e-24)
(8.3237 -0.26723 -4.76232e-23)
(8.30768 -0.268009 0)
(8.34415 -0.25905 -1.40363e-22)
(8.2142 -0.262956 2.85491e-25)
(8.19646 -0.260503 6.2973e-23)
(8.2 -0.26609 -7.96599e-24)
(8.17927 -0.256807 3.24455e-23)
(8.18929 -0.261789 -1.67359e-23)
(8.37929 -0.251869 -7.41568e-23)
(8.36895 -0.257968 -1.04052e-22)
(8.15878 -0.257255 -3.30792e-24)
(8.1639 -0.261518 1.20171e-22)
(8.15449 -0.249931 -3.31422e-22)
(8.1396 -0.2465 2.80823e-23)
(8.13417 -0.246981 2.47253e-24)
(8.1431 -0.253791 -1.00318e-25)
(8.08964 -0.22287 2.5814e-24)
(8.09463 -0.226709 0)
(8.09949 -0.230096 0)
(8.1044 -0.233692 -3.00306e-24)
(8.10886 -0.237465 -4.47938e-24)
(8.11383 -0.241711 -7.45129e-23)
(8.12883 -0.245523 4.14066e-24)
(8.12293 -0.244209 -2.39539e-22)
(8.08072 -0.214786 5.08932e-24)
(8.08479 -0.219263 -1.07706e-22)
(8.09606 -0.109519 -1.39547e-23)
(8.10184 -0.104344 1.35957e-23)
(8.06089 -0.123349 -2.86159e-24)
(8.04622 -0.126399 2.91344e-24)
(8.0381 -0.141217 -6.257e-25)
(8.08148 -0.109297 2.10622e-22)
(8.06215 -0.116851 2.24253e-22)
(8.0406 -0.159713 0)
(8.03399 -0.155762 0)
(8.03956 -0.167253 0)
(8.04677 -0.184487 5.31996e-24)
(8.04358 -0.178247 5.00135e-23)
(8.05026 -0.188557 -1.04822e-24)
(8.05426 -0.192624 -2.53438e-22)
(8.05753 -0.198187 -8.40813e-24)
(8.05979 -0.204594 -2.83028e-24)
(8.0682 -0.208451 4.16536e-24)
(8.07518 -0.216813 1.84811e-23)
(8.08464 -0.0950927 -8.57327e-24)
(8.09742 -0.0993359 1.37802e-23)
(7.9884 -0.0565042 2.68989e-23)
(7.95895 -0.0928323 3.84043e-20)
(8.07264 -0.0957781 -1.9722e-21)
(8.23668 0.0964962 1.39856e-23)
(8.21801 0.103399 -1.28613e-21)
(8.26161 0.0782619 -5.0601e-23)
(8.28525 0.142035 0)
(8.21825 -0.269422 -3.43292e-23)
(8.22332 -0.274363 1.15477e-23)
(8.2847 -0.275021 2.61642e-23)
(8.30315 -0.27505 -2.70023e-24)
(8.25408 -0.27867 2.08101e-24)
(8.24664 -0.27824 1.44757e-23)
(8.2621 -0.280006 7.45447e-25)
(8.27202 -0.281688 0)
(8.23047 -0.277173 2.46983e-24)
(8.23809 -0.278392 1.37306e-24)
(8.33382 -0.271286 -1.1071e-24)
(8.32456 -0.276799 -1.04057e-24)
(8.34189 -0.268954 -7.3983e-24)
(8.3533 -0.266366 -3.31939e-22)
(8.21077 -0.271184 5.84129e-24)
(8.20315 -0.27187 -2.62334e-24)
(8.19552 -0.272686 5.59938e-23)
(8.18237 -0.262827 1.65696e-24)
(8.1751 -0.262699 -4.85878e-23)
(8.18537 -0.268379 -2.20339e-24)
(8.36155 -0.265235 -4.11322e-24)
(8.36894 -0.266884 6.98358e-23)
(8.15264 -0.25849 -3.83409e-25)
(8.16945 -0.263771 6.78949e-23)
(8.16219 -0.267295 5.71263e-24)
(8.13096 -0.250814 2.29667e-24)
(8.14683 -0.258182 0)
(8.14016 -0.258802 -4.0645e-25)
(8.0838 -0.225065 6.57722e-24)
(8.09407 -0.232571 0)
(8.10324 -0.24011 -7.42155e-23)
(8.11833 -0.24569 -5.12892e-23)
(8.1118 -0.248117 -2.0977e-24)
(8.12131 -0.250493 4.93227e-24)
(8.09925 -0.099435 4.9551e-22)
(8.03654 -0.123004 -7.49843e-23)
(8.03328 -0.130733 -7.91998e-24)
(8.03185 -0.13771 -4.80577e-23)
(8.0296 -0.145043 -5.70157e-25)
(8.06649 -0.110405 -2.86362e-22)
(8.07356 -0.105065 2.58224e-22)
(8.0533 -0.112855 -2.70371e-22)
(8.02785 -0.152457 0)
(8.02767 -0.1598 -1.06049e-24)
(8.03964 -0.173283 5.98688e-24)
(8.03407 -0.168776 -8.7473e-25)
(8.04519 -0.189243 -3.28513e-24)
(8.0376 -0.180051 4.6535e-24)
(8.05111 -0.198777 -6.96679e-25)
(8.06277 -0.209231 4.77945e-24)
(8.05707 -0.209555 -1.94491e-23)
(8.06638 -0.213471 1.66917e-22)
(8.06985 -0.218293 4.25167e-24)
(8.07402 -0.223067 2.94774e-24)
(7.97713 -0.0752173 -3.20311e-23)
(8.0025 -0.0640135 -1.64198e-20)
(7.98007 -0.0954137 -5.53107e-23)
(8.07554 -0.0905165 6.64677e-24)
(8.08803 -0.0899369 2.51968e-23)
(8.25776 0.110389 -8.54386e-24)
(8.21305 0.112542 2.48122e-22)
(8.21243 0.112916 -1.36629e-24)
(8.22156 0.103178 1.82312e-22)
(8.25298 0.0758789 -1.42927e-20)
(8.22895 0.159346 1.50784e-22)
(8.22261 -0.281625 -7.46725e-23)
(8.28067 -0.282951 -4.0975e-24)
(8.28947 -0.283319 8.06207e-23)
(8.29918 -0.282713 -6.82049e-24)
(8.30939 -0.282221 -2.08112e-22)
(8.25655 -0.28681 -1.80119e-23)
(8.24097 -0.285532 -4.90579e-24)
(8.27442 -0.290326 -4.97045e-25)
(8.33941 -0.279528 8.90312e-25)
(8.3183 -0.283762 -3.64981e-24)
(8.32624 -0.287449 9.34093e-25)
(8.35705 -0.275405 -8.08241e-24)
(8.2058 -0.278412 5.0794e-24)
(8.18857 -0.273695 -2.48877e-24)
(8.19072 -0.279243 -3.50478e-24)
(8.17224 -0.269357 5.11083e-24)
(8.18147 -0.274815 -2.21822e-25)
(8.3753 -0.269916 1.85405e-24)
(8.36808 -0.277085 1.95327e-24)
(8.14791 -0.263835 3.26835e-25)
(8.16319 -0.273918 5.32648e-24)
(8.15701 -0.271996 -2.29108e-22)
(8.12544 -0.253397 -2.66353e-23)
(8.131 -0.256195 3.01505e-22)
(8.13492 -0.260856 1.53501e-23)
(8.13734 -0.264893 8.41185e-23)
(8.07837 -0.227769 4.07061e-24)
(8.08335 -0.232117 -1.88584e-22)
(8.08894 -0.23454 3.61341e-24)
(8.09378 -0.237738 -3.2241e-24)
(8.09744 -0.241856 -6.23454e-24)
(8.10192 -0.24609 -3.12387e-24)
(8.10606 -0.250587 0)
(8.10997 -0.254579 7.31801e-25)
(8.12027 -0.255415 1.87006e-23)
(8.08538 -0.0990183 -1.56832e-22)
(8.09393 -0.0932128 1.50925e-21)
(8.04039 -0.116822 -1.51599e-24)
(8.0285 -0.119471 -4.24835e-22)
(8.02399 -0.133317 1.71744e-22)
(8.02232 -0.148137 0)
(8.06901 -0.0995172 -4.04741e-24)
(8.04399 -0.110383 1.96601e-23)
(8.02988 -0.165457 -5.06782e-23)
(8.02335 -0.162539 -1.19154e-23)
(8.02941 -0.171757 -6.945e-25)
(8.03999 -0.189618 -1.42022e-23)
(8.04319 -0.193961 -6.30934e-24)
(8.03617 -0.185919 -5.20901e-24)
(8.03239 -0.181473 1.0934e-24)
(8.04506 -0.198936 -3.41128e-24)
(8.04805 -0.204552 1.89389e-25)
(8.05108 -0.209941 3.15887e-23)
(8.0539 -0.21509 6.07043e-24)
(8.06357 -0.219298 1.28839e-24)
(8.07187 -0.22976 0)
(8.04125 -0.0759889 3.82276e-23)
(7.99652 -0.0681639 3.12256e-23)
(7.93176 -0.090641 4.02737e-20)
(8.06966 -0.0813637 -7.80239e-24)
(8.09371 -0.0861969 6.24174e-22)
(8.24581 0.11023 -1.35182e-23)
(8.25042 0.123639 -6.3838e-21)
(8.21785 0.111581 2.34413e-24)
(8.21281 0.123391 5.79014e-24)
(8.23387 0.118496 2.54724e-22)
(8.21086 0.122016 -2.66239e-21)
(8.22329 0.116058 1.99914e-23)
(8.22281 0.0879066 5.83939e-24)
(8.25892 0.105273 1.47052e-22)
(8.29393 0.160449 -8.30585e-20)
(8.21497 -0.286829 6.02637e-24)
(8.22305 -0.290344 2.74158e-23)
(8.29363 -0.291633 -3.33578e-24)
(8.31126 -0.292823 -1.7417e-22)
(8.26008 -0.295888 3.70202e-23)
(8.2512 -0.294267 -5.66516e-24)
(8.24427 -0.292648 -1.43077e-22)
(8.23553 -0.291687 1.3624e-22)
(8.26748 -0.295686 1.4188e-23)
(8.27514 -0.296389 1.62975e-24)
(8.335 -0.289324 1.33928e-23)
(8.34319 -0.288336 5.54831e-25)
(8.32782 -0.296942 8.99363e-25)
(8.36026 -0.283027 0)
(8.35289 -0.285974 -4.00427e-25)
(8.20831 -0.285015 2.23328e-22)
(8.20028 -0.284299 4.03739e-24)
(8.19388 -0.283577 -2.51698e-24)
(8.18668 -0.284591 1.34123e-22)
(8.17458 -0.275781 -2.20104e-25)
(8.16856 -0.275935 0)
(8.17724 -0.281391 -2.49066e-23)
(8.38212 -0.274856 -8.41231e-25)
(8.36602 -0.286764 9.15747e-25)
(8.1409 -0.267057 -1.33879e-23)
(8.14698 -0.269328 3.54061e-25)
(8.16362 -0.280519 -1.47714e-24)
(8.15157 -0.273835 5.33494e-24)
(8.15328 -0.280199 4.03899e-24)
(8.12823 -0.263071 2.814e-24)
(8.13508 -0.26995 -1.06166e-24)
(8.08333 -0.237492 1.40242e-23)
(8.09149 -0.243839 -1.92903e-22)
(8.09945 -0.252763 0)
(8.11497 -0.257229 1.4487e-23)
(8.10888 -0.259739 5.65444e-24)
(8.11892 -0.260568 7.28369e-23)
(8.02247 -0.114519 -3.03388e-23)
(8.01868 -0.120588 -2.19545e-23)
(8.01888 -0.130913 -8.7745e-24)
(8.01865 -0.137666 1.35518e-24)
(8.01767 -0.143906 1.06689e-23)
(8.01672 -0.150748 0)
(8.06505 -0.0940485 -3.42086e-22)
(8.05323 -0.10059 -5.0187e-22)
(8.03005 -0.107969 -1.31747e-23)
(8.04101 -0.104322 4.85676e-22)
(8.01832 -0.162795 -3.82141e-22)
(8.01984 -0.168803 -9.168e-24)
(8.02811 -0.177451 1.09905e-24)
(8.02372 -0.173176 0)
(8.0345 -0.191107 9.38627e-23)
(8.03937 -0.199263 -1.67955e-22)
(8.02602 -0.183477 -1.52094e-23)
(8.04443 -0.210079 3.14097e-24)
(8.05721 -0.219868 0)
(8.0506 -0.220428 0)
(8.0612 -0.225179 0)
(8.06496 -0.230099 0)
(8.06915 -0.235379 3.54067e-24)
(7.97369 -0.0788076 -7.23081e-23)
(8.01284 -0.069682 8.83036e-26)
(7.94923 -0.0808413 -8.06443e-23)
(8.08704 -0.0788692 -5.27057e-23)
(8.07123 -0.0757717 -1.39322e-21)
(8.09296 -0.0815644 -6.70654e-22)
(8.08385 -0.0863245 -7.18004e-22)
(8.25847 0.127775 1.30469e-20)
(8.20762 0.131198 1.42856e-24)
(8.21343 0.132507 9.52668e-23)
(8.20332 0.133582 5.54805e-24)
(8.20089 0.133006 8.10871e-24)
(8.23016 0.11751 -1.60105e-22)
(8.24009 0.118405 7.492e-24)
(8.22401 0.126299 1.95908e-23)
(8.25172 0.118146 -3.54051e-22)
(8.26204 0.119271 -9.54983e-24)
(8.24065 0.0916665 -2.686e-23)
(8.22292 0.167294 -2.6622e-22)
(8.20974 -0.293206 3.82691e-24)
(8.22932 -0.293047 -4.46888e-24)
(8.22264 -0.296865 -1.64881e-24)
(8.29734 -0.29839 1.07394e-24)
(8.28773 -0.298486 0)
(8.30402 -0.300747 4.67625e-24)
(8.31187 -0.302363 -1.92741e-23)
(8.26321 -0.302263 -7.87156e-24)
(8.2459 -0.301246 -2.36509e-24)
(8.23312 -0.299499 -3.0016e-24)
(8.2814 -0.3011 1.9303e-24)
(8.27446 -0.305314 2.2902e-22)
(8.3475 -0.296433 -1.19092e-23)
(8.31963 -0.303143 3.9736e-24)
(8.32772 -0.304731 -5.70591e-24)
(8.19668 -0.2903 2.65734e-24)
(8.18097 -0.287077 7.17592e-25)
(8.18536 -0.291973 -3.22729e-24)
(8.17368 -0.288615 1.1146e-22)
(8.38863 -0.278231 6.89205e-23)
(8.38141 -0.283707 -1.47547e-22)
(8.37478 -0.288643 2.87704e-24)
(8.36707 -0.294612 -2.42677e-22)
(8.14421 -0.277522 -1.44614e-24)
(8.15701 -0.283689 -1.43769e-24)
(8.16281 -0.286582 -1.61564e-23)
(8.15113 -0.285889 0)
(8.1219 -0.264623 -4.51465e-24)
(8.12505 -0.268554 7.72663e-24)
(8.12838 -0.272374 -9.85224e-25)
(8.13296 -0.276068 0)
(8.08479 -0.243581 4.07036e-23)
(8.07878 -0.241974 -1.50228e-24)
(8.08817 -0.248431 -4.47957e-24)
(8.09179 -0.253338 0)
(8.09581 -0.258559 -1.96057e-24)
(8.109 -0.266701 4.23623e-24)
(8.10393 -0.264588 2.01257e-23)
(8.11592 -0.266448 4.59071e-25)
(8.01901 -0.10864 1.16847e-22)
(8.0169 -0.125553 -7.31426e-24)
(8.01216 -0.120286 3.87541e-22)
(8.01388 -0.130323 0)
(8.01371 -0.139778 1.73231e-22)
(8.01519 -0.156739 -7.07375e-24)
(8.01082 -0.151141 0)
(8.07012 -0.0878752 -5.09729e-24)
(8.05384 -0.0880814 -4.93087e-25)
(8.038 -0.0977345 -6.53869e-24)
(8.00997 -0.16299 -9.52103e-23)
(8.01765 -0.173784 5.18292e-24)